/*--------------------------------*- C++ -*----------------------------------*\
| =========                 |                                                 |
| \\      /  F ield         | OpenFOAM: The Open Source CFD Toolbox           |
|  \\    /   O peration     | Version:  2406                                  |
|   \\  /    A nd           | Website:  www.openfoam.com                      |
|    \\/     M anipulation  |                                                 |
\*---------------------------------------------------------------------------*/
FoamFile
{
    version     2.0;
    format      ascii;
    arch        "LSB;label=32;scalar=64";
    class       volVectorField;
    location    "2.5";
    object      U;
}
// * * * * * * * * * * * * * * * * * * * * * * * * * * * * * * * * * * * * * //

dimensions      [0 1 -1 0 0 0 0];

internalField   nonuniform List<vector> 
16000
(
(0.153132 0.153132 1.11474)
(0.117573 0.168169 1.1542)
(0.072459 0.17688 1.17285)
(0.0244946 0.180953 1.18018)
(-0.0244946 0.180953 1.18018)
(-0.072459 0.17688 1.17285)
(-0.117573 0.168169 1.1542)
(-0.153132 0.153132 1.11474)
(0.168169 0.117573 1.1542)
(0.126109 0.126109 1.18728)
(0.0766337 0.131081 1.19757)
(0.0257137 0.133402 1.19978)
(-0.0257137 0.133402 1.19978)
(-0.0766337 0.131081 1.19757)
(-0.126109 0.126109 1.18728)
(-0.168169 0.117573 1.1542)
(0.17688 0.072459 1.17285)
(0.131081 0.0766337 1.19757)
(0.0792027 0.0792027 1.20176)
(0.0264749 0.0803911 1.20065)
(-0.0264749 0.0803911 1.20065)
(-0.0792027 0.0792027 1.20176)
(-0.131081 0.0766337 1.19757)
(-0.17688 0.072459 1.17285)
(0.180953 0.0244946 1.18018)
(0.133402 0.0257137 1.19978)
(0.0803911 0.0264749 1.20065)
(0.0268183 0.0268183 1.1979)
(-0.0268183 0.0268183 1.1979)
(-0.0803911 0.0264749 1.20065)
(-0.133402 0.0257137 1.19978)
(-0.180953 0.0244946 1.18018)
(0.180953 -0.0244946 1.18018)
(0.133402 -0.0257137 1.19978)
(0.0803911 -0.0264749 1.20065)
(0.0268183 -0.0268183 1.1979)
(-0.0268183 -0.0268183 1.1979)
(-0.0803911 -0.0264749 1.20065)
(-0.133402 -0.0257137 1.19978)
(-0.180953 -0.0244946 1.18018)
(0.17688 -0.072459 1.17285)
(0.131081 -0.0766337 1.19757)
(0.0792027 -0.0792027 1.20176)
(0.0264749 -0.0803911 1.20065)
(-0.0264749 -0.0803911 1.20065)
(-0.0792027 -0.0792027 1.20176)
(-0.131081 -0.0766337 1.19757)
(-0.17688 -0.072459 1.17285)
(0.168169 -0.117573 1.1542)
(0.126109 -0.126109 1.18728)
(0.0766337 -0.131081 1.19757)
(0.0257137 -0.133402 1.19978)
(-0.0257137 -0.133402 1.19978)
(-0.0766337 -0.131081 1.19757)
(-0.126109 -0.126109 1.18728)
(-0.168169 -0.117573 1.1542)
(0.153132 -0.153132 1.11474)
(0.117573 -0.168169 1.1542)
(0.072459 -0.17688 1.17285)
(0.0244946 -0.180953 1.18018)
(-0.0244946 -0.180953 1.18018)
(-0.072459 -0.17688 1.17285)
(-0.117573 -0.168169 1.1542)
(-0.153132 -0.153132 1.11474)
(0.0494154 0.0494154 1.29062)
(0.0414003 0.0615755 1.3895)
(0.027927 0.0703803 1.44408)
(0.00984083 0.075171 1.46809)
(-0.00984083 0.075171 1.46809)
(-0.027927 0.0703803 1.44408)
(-0.0414003 0.0615755 1.3895)
(-0.0494154 0.0494154 1.29062)
(0.0615755 0.0414003 1.3895)
(0.0531611 0.0531611 1.48728)
(0.0357288 0.0616406 1.53241)
(0.0125458 0.0660227 1.54992)
(-0.0125458 0.0660227 1.54992)
(-0.0357288 0.0616406 1.53241)
(-0.0531611 0.0531611 1.48728)
(-0.0615755 0.0414003 1.3895)
(0.0703803 0.0279271 1.44408)
(0.0616406 0.0357288 1.53241)
(0.0413007 0.0413007 1.57006)
(0.0144349 0.0441146 1.5832)
(-0.0144349 0.0441146 1.5832)
(-0.0413007 0.0413007 1.57006)
(-0.0616406 0.0357288 1.53241)
(-0.0703803 0.0279271 1.44408)
(0.075171 0.00984083 1.46809)
(0.0660227 0.0125458 1.54992)
(0.0441146 0.0144349 1.5832)
(0.0153734 0.0153734 1.59386)
(-0.0153734 0.0153734 1.59386)
(-0.0441146 0.0144349 1.5832)
(-0.0660227 0.0125458 1.54992)
(-0.075171 0.00984083 1.46809)
(0.075171 -0.00984083 1.46809)
(0.0660227 -0.0125458 1.54992)
(0.0441146 -0.0144349 1.5832)
(0.0153734 -0.0153734 1.59386)
(-0.0153734 -0.0153734 1.59386)
(-0.0441146 -0.0144349 1.5832)
(-0.0660227 -0.0125458 1.54992)
(-0.075171 -0.00984083 1.46809)
(0.0703803 -0.027927 1.44408)
(0.0616406 -0.0357288 1.53241)
(0.0413007 -0.0413007 1.57006)
(0.0144349 -0.0441146 1.5832)
(-0.0144349 -0.0441146 1.5832)
(-0.0413007 -0.0413007 1.57006)
(-0.0616406 -0.0357288 1.53241)
(-0.0703803 -0.027927 1.44408)
(0.0615755 -0.0414002 1.3895)
(0.0531611 -0.0531611 1.48728)
(0.0357288 -0.0616406 1.53241)
(0.0125458 -0.0660227 1.54992)
(-0.0125458 -0.0660227 1.54992)
(-0.0357288 -0.0616406 1.53241)
(-0.0531611 -0.0531611 1.48728)
(-0.0615755 -0.0414003 1.3895)
(0.0494154 -0.0494154 1.29062)
(0.0414003 -0.0615755 1.3895)
(0.027927 -0.0703803 1.44408)
(0.00984083 -0.075171 1.46809)
(-0.00984083 -0.075171 1.46809)
(-0.027927 -0.0703803 1.44408)
(-0.0414003 -0.0615755 1.3895)
(-0.0494154 -0.0494154 1.29062)
(0.0295334 0.0295334 1.18369)
(0.0263057 0.0381217 1.33605)
(0.0179588 0.0440247 1.43119)
(0.00638113 0.0472238 1.47636)
(-0.00638113 0.0472238 1.47636)
(-0.0179588 0.0440247 1.43119)
(-0.0263057 0.0381217 1.33605)
(-0.0295334 0.0295334 1.18369)
(0.0381217 0.0263057 1.33605)
(0.03387 0.03387 1.50686)
(0.0231033 0.0393329 1.60045)
(0.00819889 0.042227 1.64149)
(-0.00819889 0.042227 1.64149)
(-0.0231033 0.0393329 1.60045)
(-0.03387 0.03387 1.50686)
(-0.0381217 0.0263057 1.33605)
(0.0440247 0.0179588 1.43119)
(0.0393329 0.0231033 1.60045)
(0.0268026 0.0268026 1.68906)
(0.00948465 0.028713 1.72654)
(-0.00948465 0.028713 1.72654)
(-0.0268026 0.0268026 1.68906)
(-0.0393329 0.0231033 1.60045)
(-0.0440247 0.0179588 1.43119)
(0.0472238 0.00638113 1.47636)
(0.042227 0.00819889 1.64149)
(0.028713 0.00948465 1.72654)
(0.0101528 0.0101528 1.76219)
(-0.0101528 0.0101528 1.76219)
(-0.028713 0.00948465 1.72654)
(-0.042227 0.00819889 1.64149)
(-0.0472238 0.00638113 1.47636)
(0.0472238 -0.00638113 1.47636)
(0.042227 -0.00819889 1.64149)
(0.028713 -0.00948464 1.72654)
(0.0101528 -0.0101528 1.76219)
(-0.0101528 -0.0101528 1.76219)
(-0.028713 -0.00948464 1.72654)
(-0.042227 -0.00819889 1.64149)
(-0.0472238 -0.00638113 1.47636)
(0.0440247 -0.0179588 1.43119)
(0.0393329 -0.0231033 1.60045)
(0.0268026 -0.0268026 1.68906)
(0.00948465 -0.028713 1.72654)
(-0.00948465 -0.028713 1.72654)
(-0.0268026 -0.0268026 1.68906)
(-0.0393329 -0.0231033 1.60045)
(-0.0440247 -0.0179588 1.43119)
(0.0381217 -0.0263057 1.33605)
(0.03387 -0.03387 1.50686)
(0.0231033 -0.0393329 1.60045)
(0.00819889 -0.042227 1.64149)
(-0.00819889 -0.042227 1.64149)
(-0.0231033 -0.0393329 1.60045)
(-0.03387 -0.03387 1.50686)
(-0.0381217 -0.0263057 1.33605)
(0.0295334 -0.0295334 1.18369)
(0.0263057 -0.0381217 1.33605)
(0.0179588 -0.0440247 1.43119)
(0.00638113 -0.0472238 1.47636)
(-0.00638113 -0.0472238 1.47636)
(-0.0179588 -0.0440247 1.43119)
(-0.0263057 -0.0381217 1.33605)
(-0.0295334 -0.0295334 1.18369)
(0.00607788 0.00607788 1.17735)
(0.00678721 0.00932593 1.34012)
(0.00531535 0.0121436 1.44756)
(0.00200434 0.0137879 1.50053)
(-0.00200434 0.0137879 1.50053)
(-0.00531535 0.0121436 1.44756)
(-0.00678721 0.00932593 1.34012)
(-0.00607788 0.00607788 1.17735)
(0.00932593 0.00678721 1.34012)
(0.0106419 0.010642 1.53329)
(0.0082524 0.0137676 1.64786)
(0.00308277 0.0154575 1.70082)
(-0.00308277 0.0154575 1.70082)
(-0.0082524 0.0137676 1.64786)
(-0.010642 0.010642 1.53329)
(-0.00932593 0.00678721 1.34012)
(0.0121436 0.00531535 1.44756)
(0.0137676 0.0082524 1.64786)
(0.0104758 0.0104758 1.76219)
(0.00386311 0.0115575 1.81303)
(-0.00386311 0.0115575 1.81303)
(-0.0104758 0.0104758 1.76219)
(-0.0137676 0.0082524 1.64786)
(-0.0121436 0.00531535 1.44756)
(0.0137879 0.00200435 1.50053)
(0.0154575 0.00308277 1.70082)
(0.0115575 0.00386311 1.81303)
(0.00421153 0.00421154 1.8613)
(-0.00421153 0.00421154 1.8613)
(-0.0115575 0.00386311 1.81303)
(-0.0154575 0.00308277 1.70082)
(-0.0137879 0.00200435 1.50053)
(0.0137879 -0.00200434 1.50053)
(0.0154575 -0.00308276 1.70082)
(0.0115575 -0.0038631 1.81303)
(0.00421153 -0.00421153 1.8613)
(-0.00421153 -0.00421153 1.8613)
(-0.0115575 -0.0038631 1.81303)
(-0.0154575 -0.00308276 1.70082)
(-0.0137879 -0.00200434 1.50053)
(0.0121436 -0.00531535 1.44756)
(0.0137676 -0.00825239 1.64786)
(0.0104758 -0.0104758 1.76219)
(0.00386311 -0.0115575 1.81303)
(-0.00386311 -0.0115575 1.81303)
(-0.0104758 -0.0104758 1.76219)
(-0.0137676 -0.00825239 1.64786)
(-0.0121436 -0.00531535 1.44756)
(0.00932593 -0.00678721 1.34012)
(0.0106419 -0.0106419 1.53329)
(0.0082524 -0.0137676 1.64786)
(0.00308277 -0.0154575 1.70082)
(-0.00308277 -0.0154575 1.70082)
(-0.0082524 -0.0137676 1.64786)
(-0.0106419 -0.0106419 1.53329)
(-0.00932593 -0.00678721 1.34012)
(0.00607788 -0.00607788 1.17735)
(0.00678721 -0.00932592 1.34012)
(0.00531535 -0.0121436 1.44756)
(0.00200434 -0.0137879 1.50053)
(-0.00200434 -0.0137879 1.50053)
(-0.00531535 -0.0121436 1.44756)
(-0.00678721 -0.00932593 1.34012)
(-0.00607788 -0.00607788 1.17735)
(0.00420928 0.00420928 1.15879)
(0.00417758 0.00573707 1.32761)
(0.00305281 0.00697193 1.44156)
(0.00112169 0.00767951 1.4987)
(-0.00112169 0.00767951 1.4987)
(-0.00305281 0.00697193 1.44156)
(-0.00417758 0.00573707 1.32761)
(-0.00420929 0.00420928 1.15879)
(0.00573707 0.00417758 1.32761)
(0.0058271 0.0058271 1.53244)
(0.00432306 0.00720708 1.65824)
(0.00159285 0.00796351 1.71788)
(-0.00159285 0.00796351 1.71788)
(-0.00432306 0.00720707 1.65824)
(-0.0058271 0.0058271 1.53244)
(-0.00573707 0.00417758 1.32761)
(0.00697193 0.00305281 1.44156)
(0.00720707 0.00432306 1.65824)
(0.00533722 0.00533722 1.7871)
(0.00194952 0.00580511 1.84585)
(-0.00194952 0.00580511 1.84585)
(-0.00533722 0.00533722 1.7871)
(-0.00720707 0.00432306 1.65824)
(-0.00697193 0.00305281 1.44156)
(0.00767951 0.00112169 1.4987)
(0.00796351 0.00159285 1.71788)
(0.00580511 0.00194952 1.84585)
(0.00208328 0.00208328 1.90127)
(-0.00208328 0.00208328 1.90127)
(-0.00580511 0.00194952 1.84585)
(-0.00796351 0.00159285 1.71788)
(-0.00767951 0.00112169 1.4987)
(0.00767951 -0.00112169 1.4987)
(0.00796351 -0.00159285 1.71788)
(0.00580511 -0.00194951 1.84585)
(0.00208328 -0.00208328 1.90127)
(-0.00208328 -0.00208328 1.90127)
(-0.00580511 -0.00194951 1.84585)
(-0.00796351 -0.00159285 1.71788)
(-0.00767951 -0.00112169 1.4987)
(0.00697193 -0.00305281 1.44156)
(0.00720707 -0.00432305 1.65824)
(0.00533722 -0.00533722 1.7871)
(0.00194952 -0.0058051 1.84585)
(-0.00194952 -0.0058051 1.84585)
(-0.00533722 -0.00533722 1.7871)
(-0.00720707 -0.00432305 1.65824)
(-0.00697193 -0.00305281 1.44156)
(0.00573707 -0.00417758 1.32761)
(0.0058271 -0.0058271 1.53244)
(0.00432306 -0.00720707 1.65824)
(0.00159285 -0.0079635 1.71788)
(-0.00159285 -0.0079635 1.71788)
(-0.00432306 -0.00720707 1.65824)
(-0.0058271 -0.0058271 1.53244)
(-0.00573707 -0.00417758 1.32761)
(0.00420928 -0.00420928 1.15879)
(0.00417758 -0.00573707 1.32761)
(0.00305281 -0.00697193 1.44156)
(0.00112169 -0.00767951 1.4987)
(-0.00112169 -0.00767951 1.4987)
(-0.00305281 -0.00697193 1.44156)
(-0.00417758 -0.00573707 1.32761)
(-0.00420928 -0.00420928 1.15879)
(0.00130174 0.00130174 1.15563)
(0.00140465 0.00190345 1.3259)
(0.00109256 0.00244352 1.44189)
(0.000412967 0.00276631 1.50046)
(-0.000412967 0.00276631 1.50046)
(-0.00109256 0.00244352 1.44189)
(-0.00140465 0.00190345 1.3259)
(-0.00130174 0.00130174 1.15563)
(0.00190345 0.00140465 1.3259)
(0.00214529 0.0021453 1.53424)
(0.0016872 0.00280356 1.66415)
(0.000637026 0.00317699 1.72646)
(-0.000637026 0.00317699 1.72646)
(-0.0016872 0.00280356 1.66415)
(-0.00214529 0.0021453 1.53424)
(-0.00190345 0.00140465 1.3259)
(0.00244352 0.00109257 1.44189)
(0.00280355 0.0016872 1.66415)
(0.00219038 0.00219038 1.7989)
(0.000816972 0.0024356 1.86114)
(-0.000816972 0.0024356 1.86114)
(-0.00219038 0.00219038 1.7989)
(-0.00280356 0.0016872 1.66415)
(-0.00244352 0.00109257 1.44189)
(0.00276631 0.00041297 1.50046)
(0.00317699 0.000637029 1.72646)
(0.0024356 0.000816975 1.86114)
(0.000886492 0.000886495 1.91993)
(-0.000886493 0.000886495 1.91993)
(-0.0024356 0.000816975 1.86114)
(-0.00317699 0.000637029 1.72646)
(-0.00276631 0.00041297 1.50046)
(0.00276631 -0.000412964 1.50046)
(0.00317699 -0.000637022 1.72646)
(0.0024356 -0.000816969 1.86114)
(0.000886492 -0.00088649 1.91993)
(-0.000886493 -0.00088649 1.91993)
(-0.0024356 -0.000816969 1.86114)
(-0.00317699 -0.000637022 1.72646)
(-0.00276631 -0.000412964 1.50046)
(0.00244352 -0.00109256 1.44189)
(0.00280355 -0.00168719 1.66415)
(0.00219038 -0.00219038 1.7989)
(0.000816971 -0.00243559 1.86114)
(-0.000816972 -0.00243559 1.86114)
(-0.00219038 -0.00219038 1.7989)
(-0.00280356 -0.00168719 1.66415)
(-0.00244352 -0.00109256 1.44189)
(0.00190345 -0.00140464 1.3259)
(0.00214529 -0.00214529 1.53424)
(0.0016872 -0.00280355 1.66415)
(0.000637026 -0.00317699 1.72646)
(-0.000637026 -0.00317699 1.72646)
(-0.0016872 -0.00280355 1.66415)
(-0.00214529 -0.00214529 1.53424)
(-0.00190345 -0.00140464 1.3259)
(0.00130174 -0.00130174 1.15563)
(0.00140465 -0.00190345 1.3259)
(0.00109256 -0.00244351 1.44189)
(0.000412967 -0.00276631 1.50046)
(-0.000412967 -0.00276631 1.50046)
(-0.00109256 -0.00244352 1.44189)
(-0.00140465 -0.00190345 1.3259)
(-0.00130174 -0.00130174 1.15563)
(0.000792203 0.000792205 1.15296)
(0.000788354 0.00108156 1.32433)
(0.000581398 0.00132234 1.44146)
(0.000214721 0.00146385 1.50077)
(-0.000214719 0.00146385 1.50077)
(-0.000581397 0.00132233 1.44146)
(-0.000788354 0.00108156 1.32433)
(-0.000792205 0.000792205 1.15296)
(0.00108156 0.000788357 1.32433)
(0.00110842 0.00110842 1.53467)
(0.000833461 0.00139004 1.66657)
(0.000309536 0.00155285 1.73013)
(-0.000309535 0.00155285 1.73013)
(-0.00083346 0.00139004 1.66657)
(-0.00110842 0.00110842 1.53467)
(-0.00108156 0.000788356 1.32433)
(0.00132233 0.000581401 1.44146)
(0.00139004 0.000833465 1.66657)
(0.00105205 0.00105206 1.80409)
(0.000388559 0.00116372 1.86797)
(-0.000388558 0.00116372 1.86797)
(-0.00105205 0.00105206 1.80409)
(-0.00139004 0.000833464 1.66657)
(-0.00132233 0.000581401 1.44146)
(0.00146384 0.000214724 1.50077)
(0.00155285 0.00030954 1.73013)
(0.00116372 0.000388563 1.86797)
(0.000420373 0.000420376 1.92846)
(-0.000420372 0.000420376 1.92846)
(-0.00116372 0.000388562 1.86797)
(-0.00155285 0.000309539 1.73013)
(-0.00146385 0.000214724 1.50077)
(0.00146384 -0.000214716 1.50077)
(0.00155285 -0.000309531 1.73013)
(0.00116372 -0.000388555 1.86797)
(0.000420372 -0.000420369 1.92846)
(-0.000420372 -0.000420369 1.92846)
(-0.00116372 -0.000388555 1.86797)
(-0.00155285 -0.000309531 1.73013)
(-0.00146385 -0.000214716 1.50077)
(0.00132233 -0.000581393 1.44146)
(0.00139004 -0.000833456 1.66657)
(0.00105205 -0.00105205 1.80409)
(0.000388558 -0.00116372 1.86797)
(-0.000388559 -0.00116372 1.86797)
(-0.00105205 -0.00105205 1.80409)
(-0.00139004 -0.000833456 1.66657)
(-0.00132233 -0.000581394 1.44146)
(0.00108156 -0.000788349 1.32433)
(0.00110841 -0.00110841 1.53467)
(0.00083346 -0.00139004 1.66657)
(0.000309535 -0.00155284 1.73013)
(-0.000309535 -0.00155284 1.73013)
(-0.00083346 -0.00139004 1.66657)
(-0.00110842 -0.00110841 1.53467)
(-0.00108156 -0.00078835 1.32433)
(0.0007922 -0.0007922 1.15296)
(0.000788352 -0.00108155 1.32433)
(0.000581397 -0.00132233 1.44146)
(0.00021472 -0.00146384 1.50077)
(-0.00021472 -0.00146384 1.50077)
(-0.000581397 -0.00132233 1.44146)
(-0.000788353 -0.00108155 1.32433)
(-0.000792202 -0.000792202 1.15296)
(0.000340735 0.000340736 1.1521)
(0.000347864 0.000479671 1.32392)
(0.000260863 0.00059821 1.44154)
(9.69832e-05 0.000668246 1.50117)
(-9.69837e-05 0.000668246 1.50117)
(-0.000260863 0.000598211 1.44154)
(-0.000347866 0.000479672 1.32392)
(-0.000340738 0.000340738 1.1521)
(0.000479666 0.000347868 1.32392)
(0.000505477 0.000505482 1.53513)
(0.000384178 0.000642849 1.6679)
(0.000143137 0.000722071 1.732)
(-0.000143138 0.000722071 1.732)
(-0.000384179 0.000642849 1.6679)
(-0.000505479 0.000505482 1.53513)
(-0.000479671 0.000347869 1.32392)
(0.000598205 0.000260867 1.44154)
(0.000642845 0.000384183 1.6679)
(0.000489664 0.000489668 1.80663)
(0.0001812 0.000544341 1.87124)
(-0.0001812 0.000544341 1.87124)
(-0.000489664 0.000489668 1.80663)
(-0.000642846 0.000384183 1.6679)
(-0.000598208 0.000260867 1.44154)
(0.00066824 9.69876e-05 1.50117)
(0.000722066 0.000143142 1.732)
(0.000544337 0.000181204 1.87124)
(0.000196974 0.000196978 1.93251)
(-0.000196975 0.000196978 1.93251)
(-0.000544337 0.000181204 1.87124)
(-0.000722067 0.000143142 1.732)
(-0.000668243 9.69879e-05 1.50117)
(0.00066824 -9.69793e-05 1.50117)
(0.000722066 -0.000143133 1.732)
(0.000544337 -0.000181196 1.87124)
(0.000196974 -0.000196971 1.93251)
(-0.000196975 -0.000196971 1.93251)
(-0.000544337 -0.000181196 1.87124)
(-0.000722067 -0.000143133 1.732)
(-0.000668242 -9.69792e-05 1.50117)
(0.000598205 -0.000260859 1.44154)
(0.000642844 -0.000384174 1.6679)
(0.000489664 -0.00048966 1.80663)
(0.0001812 -0.000544333 1.87124)
(-0.0001812 -0.000544333 1.87124)
(-0.000489664 -0.00048966 1.80663)
(-0.000642845 -0.000384175 1.6679)
(-0.000598207 -0.000260859 1.44154)
(0.000479666 -0.000347861 1.32392)
(0.000505477 -0.000505474 1.53513)
(0.000384178 -0.000642841 1.6679)
(0.000143137 -0.000722063 1.732)
(-0.000143138 -0.000722063 1.732)
(-0.000384179 -0.000642842 1.6679)
(-0.000505477 -0.000505474 1.53513)
(-0.000479668 -0.000347861 1.32392)
(0.000340733 -0.000340733 1.1521)
(0.000347864 -0.000479664 1.32392)
(0.000260863 -0.000598203 1.44154)
(9.69831e-05 -0.000668238 1.50117)
(-9.69839e-05 -0.000668238 1.50117)
(-0.000260863 -0.000598203 1.44154)
(-0.000347864 -0.000479665 1.32392)
(-0.000340735 -0.000340734 1.1521)
(0.000183378 0.000183379 1.15155)
(0.000182636 0.000252985 1.32363)
(0.0001345 0.000310879 1.44151)
(4.95861e-05 0.000344802 1.5013)
(-4.95831e-05 0.000344802 1.5013)
(-0.000134497 0.000310877 1.44151)
(-0.000182634 0.000252982 1.32363)
(-0.000183377 0.000183378 1.15155)
(0.00025298 0.000182639 1.32363)
(0.000258956 0.00025896 1.5353)
(0.000193546 0.000324768 1.66852)
(7.1591e-05 0.000362583 1.73289)
(-7.15884e-05 0.000362583 1.73289)
(-0.000193544 0.000324767 1.66852)
(-0.000258954 0.000258958 1.5353)
(-0.000252982 0.000182638 1.32363)
(0.000310873 0.000134504 1.44151)
(0.000324764 0.000193551 1.66852)
(0.000243696 0.0002437 1.80785)
(8.96178e-05 0.000269587 1.87281)
(-8.96159e-05 0.000269587 1.87281)
(-0.000243694 0.0002437 1.80785)
(-0.000324763 0.000193549 1.66852)
(-0.000310875 0.000134503 1.44151)
(0.000344797 4.95903e-05 1.5013)
(0.000362579 7.15958e-05 1.73289)
(0.000269583 8.96221e-05 1.87281)
(9.70175e-05 9.70213e-05 1.93446)
(-9.70162e-05 9.70211e-05 1.93446)
(-0.000269582 8.96215e-05 1.87281)
(-0.000362578 7.15948e-05 1.73289)
(-0.0003448 4.95892e-05 1.5013)
(0.000344797 -4.95791e-05 1.5013)
(0.000362578 -7.15838e-05 1.73289)
(0.000269583 -8.96118e-05 1.87281)
(9.70173e-05 -9.70125e-05 1.93446)
(-9.70164e-05 -9.70126e-05 1.93446)
(-0.000269582 -8.96122e-05 1.87281)
(-0.000362578 -7.15846e-05 1.73289)
(-0.000344799 -4.958e-05 1.5013)
(0.000310872 -0.000134493 1.44151)
(0.000324763 -0.000193539 1.66852)
(0.000243695 -0.00024369 1.80785)
(8.96172e-05 -0.000269578 1.87281)
(-8.96165e-05 -0.000269578 1.87281)
(-0.000243695 -0.000243691 1.80785)
(-0.000324763 -0.00019354 1.66852)
(-0.000310875 -0.000134494 1.44151)
(0.000252977 -0.000182629 1.32363)
(0.000258954 -0.000258949 1.5353)
(0.000193545 -0.000324759 1.66852)
(7.15899e-05 -0.000362574 1.73289)
(-7.15894e-05 -0.000362574 1.73289)
(-0.000193544 -0.000324759 1.66852)
(-0.000258954 -0.00025895 1.5353)
(-0.00025298 -0.00018263 1.32363)
(0.000183374 -0.000183373 1.15155)
(0.000182633 -0.000252975 1.32363)
(0.000134498 -0.000310869 1.44151)
(4.95847e-05 -0.000344794 1.5013)
(-4.95844e-05 -0.000344794 1.5013)
(-0.000134498 -0.00031087 1.44151)
(-0.000182633 -0.000252976 1.32363)
(-0.000183375 -0.000183375 1.15155)
(8.67707e-05 8.67722e-05 1.15132)
(8.77092e-05 0.000121324 1.32351)
(6.52142e-05 0.000150477 1.44152)
(2.41381e-05 0.00016761 1.50139)
(-2.41364e-05 0.000167609 1.50139)
(-6.52129e-05 0.000150476 1.44152)
(-8.77085e-05 0.000121322 1.32351)
(-8.67713e-05 8.67718e-05 1.15132)
(0.000121318 8.7713e-05 1.32351)
(0.000126291 0.000126296 1.53541)
(9.51089e-05 0.000159576 1.66884)
(3.52683e-05 0.000178635 1.73335)
(-3.52669e-05 0.000178635 1.73335)
(-9.51078e-05 0.000159576 1.66884)
(-0.00012629 0.000126295 1.53541)
(-0.00012132 8.77125e-05 1.32351)
(0.000150469 6.52188e-05 1.44152)
(0.000159571 9.51143e-05 1.66884)
(0.000120352 0.000120357 1.80847)
(4.43134e-05 0.000133316 1.8736)
(-4.43124e-05 0.000133316 1.8736)
(-0.000120351 0.000120356 1.80847)
(-0.000159571 9.51136e-05 1.66884)
(-0.000150471 6.52183e-05 1.44152)
(0.000167602 2.41426e-05 1.50139)
(0.000178629 3.52735e-05 1.73335)
(0.000133312 4.43181e-05 1.8736)
(4.80029e-05 4.80071e-05 1.93544)
(-4.80023e-05 4.8007e-05 1.93544)
(-0.000133311 4.43177e-05 1.8736)
(-0.000178629 3.5273e-05 1.73335)
(-0.000167603 2.41422e-05 1.50139)
(0.000167602 -2.41324e-05 1.50139)
(0.000178629 -3.52622e-05 1.73335)
(0.000133312 -4.43082e-05 1.8736)
(4.80028e-05 -4.79984e-05 1.93544)
(-4.80024e-05 -4.79985e-05 1.93544)
(-0.000133311 -4.43085e-05 1.8736)
(-0.000178629 -3.52626e-05 1.73335)
(-0.000167603 -2.41327e-05 1.50139)
(0.000150469 -6.52093e-05 1.44152)
(0.00015957 -9.51037e-05 1.66884)
(0.000120351 -0.000120347 1.80847)
(4.43131e-05 -0.000133307 1.8736)
(-4.43128e-05 -0.000133308 1.8736)
(-0.000120351 -0.000120347 1.80847)
(-0.00015957 -9.5104e-05 1.66884)
(-0.00015047 -6.52096e-05 1.44152)
(0.000121316 -8.77043e-05 1.32351)
(0.00012629 -0.000126286 1.53541)
(9.51085e-05 -0.000159567 1.66884)
(3.52677e-05 -0.000178626 1.73335)
(-3.52676e-05 -0.000178626 1.73335)
(-9.51084e-05 -0.000159567 1.66884)
(-0.00012629 -0.000126287 1.53541)
(-0.000121317 -8.77048e-05 1.32351)
(8.67677e-05 -8.67668e-05 1.15132)
(8.77075e-05 -0.000121314 1.32351)
(6.52136e-05 -0.000150467 1.44152)
(2.41373e-05 -0.0001676 1.50139)
(-2.41373e-05 -0.0001676 1.50139)
(-6.52136e-05 -0.000150467 1.44152)
(-8.77076e-05 -0.000121315 1.32351)
(-8.67683e-05 -8.67676e-05 1.15132)
(4.52176e-05 4.52195e-05 1.15119)
(4.53633e-05 6.27483e-05 1.32345)
(3.356e-05 7.74224e-05 1.44152)
(1.23974e-05 8.6028e-05 1.50143)
(-1.23926e-05 8.60269e-05 1.50143)
(-3.35556e-05 7.74191e-05 1.44152)
(-4.53593e-05 6.2743e-05 1.32345)
(-4.52152e-05 4.5216e-05 1.15119)
(6.27423e-05 4.53669e-05 1.32345)
(6.47559e-05 6.47612e-05 1.53546)
(4.85776e-05 8.14845e-05 1.669)
(1.7989e-05 9.10617e-05 1.73357)
(-1.7985e-05 9.1061e-05 1.73357)
(-4.85741e-05 8.14825e-05 1.669)
(-6.47532e-05 6.47579e-05 1.53546)
(-6.27418e-05 4.53637e-05 1.32345)
(7.74158e-05 3.35641e-05 1.44152)
(8.14794e-05 4.85826e-05 1.669)
(6.12724e-05 6.1277e-05 1.80878)
(2.25355e-05 6.77827e-05 1.874)
(-2.25328e-05 6.77822e-05 1.874)
(-6.127e-05 6.12757e-05 1.80878)
(-8.14778e-05 4.85804e-05 1.669)
(-7.74166e-05 3.35618e-05 1.44152)
(8.60215e-05 1.24014e-05 1.50143)
(9.10568e-05 1.79937e-05 1.73357)
(6.77784e-05 2.25398e-05 1.874)
(2.43785e-05 2.43823e-05 1.93593)
(-2.43768e-05 2.4382e-05 1.93593)
(-6.77769e-05 2.25388e-05 1.874)
(-9.10559e-05 1.7992e-05 1.73357)
(-8.6023e-05 1.23995e-05 1.50143)
(8.60208e-05 -1.23889e-05 1.50143)
(9.10563e-05 -1.79806e-05 1.73357)
(6.77781e-05 -2.25288e-05 1.874)
(2.43782e-05 -2.43731e-05 1.93593)
(-2.4377e-05 -2.43734e-05 1.93593)
(-6.77771e-05 -2.25295e-05 1.874)
(-9.10559e-05 -1.79819e-05 1.73357)
(-8.60229e-05 -1.23904e-05 1.50143)
(7.74136e-05 -3.35522e-05 1.44152)
(8.14779e-05 -4.857e-05 1.669)
(6.12713e-05 -6.12661e-05 1.80878)
(2.25345e-05 -6.77732e-05 1.874)
(-2.25336e-05 -6.77734e-05 1.874)
(-6.12706e-05 -6.12667e-05 1.80878)
(-8.14778e-05 -4.85709e-05 1.669)
(-7.74161e-05 -3.35534e-05 1.44152)
(6.27378e-05 -4.53552e-05 1.32345)
(6.47531e-05 -6.47487e-05 1.53546)
(4.85757e-05 -8.14736e-05 1.669)
(1.79872e-05 -9.1052e-05 1.73357)
(-1.79866e-05 -9.10522e-05 1.73357)
(-4.85752e-05 -8.14741e-05 1.669)
(-6.47532e-05 -6.47495e-05 1.53546)
(-6.27405e-05 -4.53566e-05 1.32345)
(4.52114e-05 -4.52109e-05 1.15119)
(4.53588e-05 -6.27352e-05 1.32345)
(3.35574e-05 -7.74106e-05 1.44152)
(1.23951e-05 -8.60174e-05 1.50143)
(-1.23947e-05 -8.60177e-05 1.50143)
(-3.35572e-05 -7.74115e-05 1.44152)
(-4.53593e-05 -6.27371e-05 1.32345)
(-4.52134e-05 -4.5213e-05 1.15119)
(2.23413e-05 2.23423e-05 1.15113)
(2.25621e-05 3.11672e-05 1.32341)
(1.6771e-05 3.86063e-05 1.44152)
(6.20857e-06 4.29804e-05 1.50145)
(-6.20867e-06 4.29803e-05 1.50145)
(-1.67712e-05 3.8606e-05 1.44152)
(-2.25628e-05 3.11668e-05 1.32341)
(-2.23428e-05 2.23429e-05 1.15113)
(3.11626e-05 2.25651e-05 1.32341)
(3.24196e-05 3.2424e-05 1.53548)
(2.44302e-05 4.09513e-05 1.66908)
(9.06389e-06 4.58411e-05 1.73369)
(-9.06409e-06 4.58411e-05 1.73369)
(-2.44306e-05 4.09512e-05 1.66908)
(-3.24206e-05 3.24238e-05 1.53548)
(-3.11652e-05 2.25655e-05 1.32341)
(3.86008e-05 1.6775e-05 1.44152)
(4.09471e-05 2.44348e-05 1.66908)
(3.09174e-05 3.09216e-05 1.80894)
(1.13896e-05 3.42525e-05 1.8742)
(-1.139e-05 3.42525e-05 1.8742)
(-3.0918e-05 3.09215e-05 1.80894)
(-4.0948e-05 2.44346e-05 1.66908)
(-3.86029e-05 1.67751e-05 1.44152)
(4.29746e-05 6.21277e-06 1.50145)
(4.58369e-05 9.06852e-06 1.73369)
(3.42487e-05 1.13937e-05 1.8742)
(1.23354e-05 1.2339e-05 1.93618)
(-1.23359e-05 1.2339e-05 1.93618)
(-3.42492e-05 1.13936e-05 1.8742)
(-4.58377e-05 9.06836e-06 1.73369)
(-4.29763e-05 6.21272e-06 1.50145)
(4.29745e-05 -6.20468e-06 1.50145)
(4.58369e-05 -9.05971e-06 1.73369)
(3.42487e-05 -1.13861e-05 1.8742)
(1.23354e-05 -1.23324e-05 1.93618)
(-1.23359e-05 -1.23324e-05 1.93618)
(-3.42493e-05 -1.13862e-05 1.8742)
(-4.58376e-05 -9.0599e-06 1.73369)
(-4.29759e-05 -6.20483e-06 1.50145)
(3.86005e-05 -1.67676e-05 1.44152)
(4.09469e-05 -2.44265e-05 1.66908)
(3.09174e-05 -3.09142e-05 1.80894)
(1.13895e-05 -3.42458e-05 1.8742)
(-1.13902e-05 -3.42459e-05 1.8742)
(-3.09181e-05 -3.09144e-05 1.80894)
(-4.09475e-05 -2.44268e-05 1.66908)
(-3.86016e-05 -1.67678e-05 1.44152)
(3.11617e-05 -2.25586e-05 1.32341)
(3.24193e-05 -3.24163e-05 1.53548)
(2.44301e-05 -4.09442e-05 1.66908)
(9.06366e-06 -4.58343e-05 1.73369)
(-9.06443e-06 -4.58344e-05 1.73369)
(-2.44308e-05 -4.09445e-05 1.66908)
(-3.24199e-05 -3.24168e-05 1.53548)
(-3.11625e-05 -2.25592e-05 1.32341)
(2.23391e-05 -2.23383e-05 1.15113)
(2.2561e-05 -3.11598e-05 1.32341)
(1.67708e-05 -3.85987e-05 1.44152)
(6.20828e-06 -4.29729e-05 1.50145)
(-6.20911e-06 -4.29732e-05 1.50145)
(-1.67716e-05 -3.85995e-05 1.44152)
(-2.25619e-05 -3.1161e-05 1.32341)
(-2.234e-05 -2.23392e-05 1.15113)
(1.14903e-05 1.14914e-05 1.1511)
(1.15724e-05 1.59833e-05 1.3234)
(8.58632e-06 1.97566e-05 1.44152)
(3.17721e-06 2.19744e-05 1.50146)
(-3.17532e-06 2.1974e-05 1.50146)
(-8.58471e-06 1.97553e-05 1.44152)
(-1.15714e-05 1.59813e-05 1.3234)
(-1.14908e-05 1.14911e-05 1.1511)
(1.59801e-05 1.15748e-05 1.3234)
(1.6571e-05 1.65743e-05 1.5355)
(1.2472e-05 2.09001e-05 1.66912)
(4.62647e-06 2.33833e-05 1.73375)
(-4.62498e-06 2.3383e-05 1.73375)
(-1.24709e-05 2.08992e-05 1.66912)
(-1.65707e-05 1.65729e-05 1.5355)
(-1.59826e-05 1.1574e-05 1.3234)
(1.97532e-05 8.58931e-06 1.44152)
(2.0897e-05 1.24754e-05 1.66912)
(1.57689e-05 1.5772e-05 1.80902)
(5.80935e-06 1.74674e-05 1.8743)
(-5.80842e-06 1.74672e-05 1.8743)
(-1.57682e-05 1.57714e-05 1.80902)
(-2.08971e-05 1.24745e-05 1.66912)
(-1.97562e-05 8.58837e-06 1.44152)
(2.19711e-05 3.18033e-06 1.50146)
(2.33804e-05 4.62998e-06 1.73375)
(1.74646e-05 5.81246e-06 1.8743)
(6.29097e-06 6.2937e-06 1.9363)
(-6.29047e-06 6.29356e-06 1.9363)
(-1.74643e-05 5.81199e-06 1.8743)
(-2.33808e-05 4.62921e-06 1.73375)
(-2.19743e-05 3.17951e-06 1.50146)
(2.19708e-05 -3.17216e-06 1.50146)
(2.33802e-05 -4.62141e-06 1.73375)
(1.74645e-05 -5.80525e-06 1.8743)
(6.29085e-06 -6.28766e-06 1.9363)
(-6.29059e-06 -6.28778e-06 1.9363)
(-1.74644e-05 -5.8056e-06 1.8743)
(-2.33807e-05 -4.62201e-06 1.73375)
(-2.19743e-05 -3.1729e-06 1.50146)
(1.97523e-05 -8.58166e-06 1.44152)
(2.08963e-05 -1.24673e-05 1.66912)
(1.57684e-05 -1.57649e-05 1.80902)
(5.80892e-06 -1.74612e-05 1.8743)
(-5.80882e-06 -1.74613e-05 1.8743)
(-1.57685e-05 -1.57652e-05 1.80902)
(-2.08969e-05 -1.24677e-05 1.66912)
(-1.97558e-05 -8.58224e-06 1.44152)
(1.59783e-05 -1.15678e-05 1.3234)
(1.65698e-05 -1.65665e-05 1.5355)
(1.24712e-05 -2.08932e-05 1.66912)
(4.62563e-06 -2.33771e-05 1.73375)
(-4.62573e-06 -2.33772e-05 1.73375)
(-1.24714e-05 -2.08935e-05 1.66912)
(-1.65704e-05 -1.6567e-05 1.5355)
(-1.59815e-05 -1.15689e-05 1.3234)
(1.14876e-05 -1.14872e-05 1.1511)
(1.15704e-05 -1.59763e-05 1.3234)
(8.58519e-06 -1.97502e-05 1.44152)
(3.17612e-06 -2.19686e-05 1.50146)
(-3.17632e-06 -2.19688e-05 1.50146)
(-8.58545e-06 -1.97509e-05 1.44152)
(-1.15712e-05 -1.5978e-05 1.3234)
(-1.14896e-05 -1.14892e-05 1.1511)
(5.80133e-06 5.80166e-06 1.15108)
(5.85487e-06 8.08651e-06 1.32339)
(4.34956e-06 1.00096e-05 1.44152)
(1.60956e-06 1.11412e-05 1.50146)
(-1.61182e-06 1.11415e-05 1.50146)
(-4.35181e-06 1.00105e-05 1.44152)
(-5.85753e-06 8.08813e-06 1.32339)
(-5.80438e-06 5.80403e-06 1.15108)
(8.08399e-06 5.85669e-06 1.32339)
(8.40351e-06 8.40604e-06 1.5355)
(6.33291e-06 1.06136e-05 1.66915)
(2.34968e-06 1.18817e-05 1.73378)
(-2.3518e-06 1.18819e-05 1.73378)
(-6.33507e-06 1.06143e-05 1.66915)
(-8.40611e-06 8.40713e-06 1.5355)
(-8.08827e-06 5.85859e-06 1.32339)
(1.00065e-05 4.3522e-06 1.44152)
(1.06112e-05 6.33581e-06 1.66915)
(8.01663e-06 8.0192e-06 1.80906)
(2.95423e-06 8.88583e-06 1.87436)
(-2.95593e-06 8.88596e-06 1.87436)
(-8.01839e-06 8.01963e-06 1.80906)
(-1.06133e-05 6.33657e-06 1.66915)
(-1.00098e-05 4.35329e-06 1.44152)
(1.11378e-05 1.61246e-06 1.50146)
(1.18793e-05 2.35278e-06 1.73378)
(8.88346e-06 2.95692e-06 1.87436)
(3.20092e-06 3.20327e-06 1.93637)
(-3.20229e-06 3.20336e-06 1.93637)
(-8.88488e-06 2.95724e-06 1.87436)
(-1.18809e-05 2.35341e-06 1.73378)
(-1.11404e-05 1.61334e-06 1.50146)
(1.11381e-05 -1.60895e-06 1.50146)
(1.18795e-05 -2.34872e-06 1.73378)
(8.8836e-06 -2.95325e-06 1.87436)
(3.20103e-06 -3.19994e-06 1.93637)
(-3.20222e-06 -3.19986e-06 1.93637)
(-8.8848e-06 -2.953e-06 1.87436)
(-1.18807e-05 -2.34824e-06 1.73378)
(-1.114e-05 -1.60829e-06 1.50146)
(1.00073e-05 -4.3491e-06 1.44152)
(1.06117e-05 -6.33208e-06 1.66915)
(8.01705e-06 -8.0157e-06 1.80906)
(2.95456e-06 -8.88245e-06 1.87436)
(-2.9557e-06 -8.8824e-06 1.87436)
(-8.01814e-06 -8.01556e-06 1.80906)
(-1.06127e-05 -6.33178e-06 1.66915)