/*--------------------------------*- C++ -*----------------------------------*\
| =========                 |                                                 |
| \\      /  F ield         | OpenFOAM: The Open Source CFD Toolbox           |
|  \\    /   O peration     | Version:  2406                                  |
|   \\  /    A nd           | Website:  www.openfoam.com                      |
|    \\/     M anipulation  |                                                 |
\*---------------------------------------------------------------------------*/
FoamFile
{
    version     2.0;
    format      ascii;
    arch        "LSB;label=32;scalar=64";
    class       surfaceScalarField;
    location    "7.7";
    object      phi;
}
// * * * * * * * * * * * * * * * * * * * * * * * * * * * * * * * * * * * * * //

dimensions      [0 3 -1 0 0 0 0];

oriented        oriented;

internalField   nonuniform List<scalar> 
46880
(
5.70227e-05
5.70227e-05
9.25627e-05
-6.58089e-05
-6.58089e-05
4.14847e-05
5.85524e-05
0.000107332
-6.81955e-05
2.17749e-05
5.89973e-05
0.000116854
-6.9121e-05
1.89592e-13
5.91027e-05
0.000121561
-6.94051e-05
-2.17749e-05
5.91027e-05
0.000121561
-6.94051e-05
-4.14847e-05
5.89973e-05
0.000116854
-6.9121e-05
-5.70227e-05
5.85524e-05
0.000107332
-6.81955e-05
5.70227e-05
9.25627e-05
-6.58089e-05
-6.58089e-05
5.85524e-05
4.14847e-05
0.000107332
-6.81955e-05
4.20291e-05
4.20291e-05
0.000121733
2.18254e-05
4.20503e-05
0.000130284
1.88768e-13
4.1986e-05
0.000134326
-2.18254e-05
4.1986e-05
0.000134326
-4.20291e-05
4.20503e-05
0.000130284
-5.85524e-05
4.20291e-05
0.000121733
4.14847e-05
0.000107332
-6.81955e-05
5.89973e-05
2.17749e-05
0.000116854
-6.9121e-05
4.20503e-05
2.18254e-05
0.000130284
2.17158e-05
2.17158e-05
0.000137965
1.52822e-13
2.16254e-05
0.00014148
-2.17158e-05
2.16254e-05
0.00014148
-4.20503e-05
2.17158e-05
0.000137965
-5.89973e-05
2.18254e-05
0.000130284
2.17749e-05
0.000116854
-6.9121e-05
5.91027e-05
8.80372e-13
0.000121561
-6.94051e-05
4.1986e-05
1.07508e-12
0.000134326
2.16254e-05
1.04948e-12
0.00014148
1.24302e-13
1.02696e-12
0.000144691
-2.16254e-05
9.9625e-13
0.000144691
-4.1986e-05
9.64167e-13
0.00014148
-5.91027e-05
9.69257e-13
0.000134326
7.93768e-13
0.000121561
-6.94051e-05
5.91027e-05
-2.17749e-05
0.000121561
-6.94051e-05
4.1986e-05
-2.18254e-05
0.000134326
2.16254e-05
-2.17158e-05
0.00014148
9.3898e-14
-2.16254e-05
0.000144691
-2.16254e-05
-2.16254e-05
0.000144691
-4.1986e-05
-2.17158e-05
0.00014148
-5.91027e-05
-2.18254e-05
0.000134326
-2.17749e-05
0.000121561
-6.94051e-05
5.89973e-05
-4.14846e-05
0.000116854
-6.9121e-05
4.20503e-05
-4.20291e-05
0.000130284
2.17158e-05
-4.20503e-05
0.000137965
5.49515e-14
-4.1986e-05
0.00014148
-2.17158e-05
-4.1986e-05
0.00014148
-4.20503e-05
-4.20503e-05
0.000137965
-5.89973e-05
-4.20291e-05
0.000130284
-4.14846e-05
0.000116854
-6.9121e-05
5.85524e-05
-5.70227e-05
0.000107332
-6.81955e-05
4.20291e-05
-5.85524e-05
0.000121733
2.18254e-05
-5.89973e-05
0.000130284
1.91995e-14
-5.91027e-05
0.000134326
-2.18254e-05
-5.91027e-05
0.000134326
-4.20291e-05
-5.89973e-05
0.000130284
-5.85524e-05
-5.85524e-05
0.000121733
-5.70227e-05
0.000107332
-6.81955e-05
5.70227e-05
9.25627e-05
-6.58089e-05
-6.58089e-05
4.14847e-05
0.000107332
-6.81955e-05
2.17749e-05
0.000116854
-6.9121e-05
-5.00385e-15
0.000121561
-6.94051e-05
-2.17749e-05
0.000121561
-6.94051e-05
-4.14847e-05
0.000116854
-6.9121e-05
-5.70227e-05
0.000107332
-6.81955e-05
9.25627e-05
-6.58089e-05
-6.58089e-05
2.12981e-05
2.12981e-05
9.11553e-05
-2.05944e-05
-2.05944e-05
1.7387e-05
2.43165e-05
0.000110076
-2.31488e-05
9.64834e-06
2.60548e-05
0.000123205
-2.46671e-05
1.22861e-13
2.68715e-05
0.000129837
-2.54995e-05
-9.64834e-06
2.68715e-05
0.000129837
-2.54995e-05
-1.7387e-05
2.60548e-05
0.000123205
-2.46671e-05
-2.12981e-05
2.43165e-05
0.000110076
-2.31488e-05
2.12981e-05
9.11553e-05
-2.05944e-05
-2.05944e-05
2.43165e-05
1.7387e-05
0.000110076
-2.31488e-05
1.97648e-05
1.97648e-05
0.000130836
1.0936e-05
2.11179e-05
0.00014405
1.05543e-13
2.17195e-05
0.000150414
-1.0936e-05
2.17195e-05
0.000150414
-1.97648e-05
2.11179e-05
0.00014405
-2.43165e-05
1.97648e-05
0.000130836
1.7387e-05
0.000110076
-2.31488e-05
2.60548e-05
9.64834e-06
0.000123205
-2.46671e-05
2.11179e-05
1.0936e-05
0.00014405
1.1672e-05
1.1672e-05
0.000156857
6.89019e-14
1.19938e-05
0.000162878
-1.1672e-05
1.19938e-05
0.000162878
-2.11179e-05
1.1672e-05
0.000156857
-2.60548e-05
1.0936e-05
0.00014405
9.64834e-06
0.000123205
-2.46671e-05
2.68715e-05
7.48495e-13
0.000129837
-2.54995e-05
2.17195e-05
8.5615e-13
0.000150414
1.19938e-05
8.07087e-13
0.000162878
4.25074e-14
7.85356e-13
0.000168678
-1.19938e-05
7.59695e-13
0.000168678
-2.17195e-05
7.39535e-13
0.000162878
-2.68715e-05
7.77049e-13
0.000150414
6.89969e-13
0.000129837
-2.54995e-05
2.68715e-05
-9.64834e-06
0.000129837
-2.54995e-05
2.17195e-05
-1.0936e-05
0.000150414
1.19938e-05
-1.1672e-05
0.000162878
1.79235e-14
-1.19938e-05
0.000168678
-1.19938e-05
-1.19938e-05
0.000168678
-2.17195e-05
-1.1672e-05
0.000162878
-2.68715e-05
-1.0936e-05
0.000150414
-9.64834e-06
0.000129837
-2.54995e-05
2.60548e-05
-1.7387e-05
0.000123205
-2.46671e-05
2.11179e-05
-1.97648e-05
0.00014405
1.1672e-05
-2.11179e-05
0.000156857
-1.61181e-14
-2.17195e-05
0.000162878
-1.1672e-05
-2.17195e-05
0.000162878
-2.11179e-05
-2.11179e-05
0.000156857
-2.60548e-05
-1.97648e-05
0.00014405
-1.7387e-05
0.000123205
-2.46671e-05
2.43165e-05
-2.12981e-05
0.000110076
-2.31488e-05
1.97648e-05
-2.43165e-05
0.000130836
1.0936e-05
-2.60548e-05
0.00014405
-5.00675e-14
-2.68715e-05
0.000150414
-1.0936e-05
-2.68715e-05
0.000150414
-1.97648e-05
-2.60548e-05
0.00014405
-2.43165e-05
-2.43165e-05
0.000130836
-2.12981e-05
0.000110076
-2.31488e-05
2.12981e-05
9.11553e-05
-2.05944e-05
-2.05944e-05
1.7387e-05
0.000110076
-2.31488e-05
9.64834e-06
0.000123205
-2.46671e-05
-6.88849e-14
0.000129837
-2.54995e-05
-9.64834e-06
0.000129837
-2.54995e-05
-1.7387e-05
0.000123205
-2.46671e-05
-2.12981e-05
0.000110076
-2.31488e-05
9.11553e-05
-2.05944e-05
-2.05944e-05
1.18127e-05
1.18127e-05
8.91259e-05
-1.0798e-05
-1.0798e-05
9.90265e-06
1.43956e-05
0.000110627
-1.30364e-05
5.62154e-06
1.59718e-05
0.000125963
-1.44489e-05
2.02613e-13
1.67467e-05
0.000133897
-1.51853e-05
-5.62154e-06
1.67467e-05
0.000133897
-1.51853e-05
-9.90265e-06
1.59718e-05
0.000125963
-1.44489e-05
-1.18127e-05
1.43956e-05
0.000110627
-1.30364e-05
1.18127e-05
8.91259e-05
-1.0798e-05
-1.0798e-05
1.43956e-05
9.90265e-06
0.000110627
-1.30364e-05
1.20477e-05
1.20477e-05
0.000135532
6.80902e-06
1.33212e-05
0.000151939
1.52818e-13
1.39201e-05
0.00016005
-6.80902e-06
1.39201e-05
0.00016005
-1.20477e-05
1.33212e-05
0.000151939
-1.43956e-05
1.20477e-05
0.000135532
9.90265e-06
0.000110627
-1.30364e-05
1.59718e-05
5.62155e-06
0.000125963
-1.44489e-05
1.33212e-05
6.80902e-06
0.000151939
7.49972e-06
7.49972e-06
0.0001685
8.36739e-14
7.81056e-06
0.000176487
-7.49972e-06
7.81056e-06
0.000176487
-1.33212e-05
7.49972e-06
0.0001685
-1.59718e-05
6.80902e-06
0.000151939
5.62155e-06
0.000125963
-1.44489e-05
1.67467e-05
9.00894e-13
0.000133897
-1.51853e-05
1.39201e-05
9.60814e-13
0.00016005
7.81056e-06
8.299e-13
0.000176487
3.92323e-14
7.52466e-13
0.000184299
-7.81056e-06
7.17623e-13
0.000184299
-1.39201e-05
7.28513e-13
0.000176487
-1.67467e-05
8.14869e-13
0.00016005
7.49575e-13
0.000133897
-1.51853e-05
1.67467e-05
-5.62154e-06
0.000133897
-1.51853e-05
1.39201e-05
-6.80902e-06
0.00016005
7.81056e-06
-7.49972e-06
0.000176487
5.68812e-15
-7.81055e-06
0.000184299
-7.81056e-06
-7.81055e-06
0.000184299
-1.39201e-05
-7.49972e-06
0.000176487
-1.67467e-05
-6.80902e-06
0.00016005
-5.62154e-06
0.000133897
-1.51853e-05
1.59718e-05
-9.90265e-06
0.000125963
-1.44489e-05
1.33212e-05
-1.20476e-05
0.000151939
7.49972e-06
-1.33212e-05
0.0001685
-3.36429e-14
-1.39201e-05
0.000176487
-7.49972e-06
-1.39201e-05
0.000176487
-1.33212e-05
-1.33212e-05
0.0001685
-1.59718e-05
-1.20476e-05
0.000151939
-9.90265e-06
0.000125963
-1.44489e-05
1.43956e-05
-1.18127e-05
0.000110627
-1.30364e-05
1.20477e-05
-1.43956e-05
0.000135532
6.80902e-06
-1.59718e-05
0.000151939
-7.1488e-14
-1.67467e-05
0.00016005
-6.80902e-06
-1.67467e-05
0.00016005
-1.20477e-05
-1.59718e-05
0.000151939
-1.43956e-05
-1.43956e-05
0.000135532
-1.18127e-05
0.000110627
-1.30364e-05
1.18127e-05
8.91259e-05
-1.0798e-05
-1.0798e-05
9.90265e-06
0.000110627
-1.30364e-05
5.62154e-06
0.000125963
-1.44489e-05
-9.0202e-14
0.000133897
-1.51853e-05
-5.62154e-06
0.000133897
-1.51853e-05
-9.90265e-06
0.000125963
-1.44489e-05
-1.18127e-05
0.000110627
-1.30364e-05
8.91259e-05
-1.0798e-05
-1.0798e-05
2.98521e-06
2.98521e-06
8.73785e-05
-2.11152e-06
-2.11152e-06
2.93654e-06
4.20871e-06
0.000109321
-2.85467e-06
1.80601e-06
5.10333e-06
0.000125443
-3.45295e-06
5.89055e-14
5.56796e-06
0.000133927
-3.79171e-06
-1.80601e-06
5.56796e-06
0.000133927
-3.79171e-06
-2.93654e-06
5.10333e-06
0.000125443
-3.45295e-06
-2.98521e-06
4.20871e-06
0.000109321
-2.85467e-06
2.98521e-06
8.73785e-05
-2.11152e-06
-2.11152e-06
4.20871e-06
2.93654e-06
0.000109321
-2.85467e-06
4.13753e-06
4.13753e-06
0.000135674
2.52404e-06
4.95623e-06
0.000153699
3.23073e-14
5.34154e-06
0.0001628
-2.52404e-06
5.34154e-06
0.0001628
-4.13753e-06
4.95623e-06
0.000153699
-4.20871e-06
4.13753e-06
0.000135674
2.93654e-06
0.000109321
-2.85467e-06
5.10333e-06
1.80601e-06
0.000125443
-3.45295e-06
4.95623e-06
2.52404e-06
0.000153699
2.98743e-06
2.98743e-06
0.000172437
-8.83071e-15
3.17437e-06
0.000181642
-2.98743e-06
3.17437e-06
0.000181642
-4.95623e-06
2.98743e-06
0.000172437
-5.10333e-06
2.52404e-06
0.000153699
1.80601e-06
0.000125443
-3.45295e-06
5.56796e-06
8.82983e-13
0.000133927
-3.79171e-06
5.34154e-06
9.80935e-13
0.0001628
3.17437e-06
8.56438e-13
0.000181642
-3.92057e-14
7.53343e-13
0.000190648
-3.17437e-06
7.29825e-13
0.000190648
-5.34154e-06
7.90049e-13
0.000181642
-5.56796e-06
9.03781e-13
0.0001628
8.35711e-13
0.000133927
-3.79171e-06
5.56796e-06
-1.80601e-06
0.000133927
-3.79171e-06
5.34154e-06
-2.52404e-06
0.0001628
3.17437e-06
-2.98743e-06
0.000181642
-6.33458e-14
-3.17437e-06
0.000190648
-3.17437e-06
-3.17437e-06
0.000190648
-5.34154e-06
-2.98743e-06
0.000181642
-5.56796e-06
-2.52404e-06
0.0001628
-1.80601e-06
0.000133927
-3.79171e-06
5.10333e-06
-2.93654e-06
0.000125443
-3.45295e-06
4.95623e-06
-4.13753e-06
0.000153699
2.98743e-06
-4.95623e-06
0.000172437
-9.0504e-14
-5.34154e-06
0.000181642
-2.98743e-06
-5.34154e-06
0.000181642
-4.95623e-06
-4.95623e-06
0.000172437
-5.10333e-06
-4.13753e-06
0.000153699
-2.93654e-06
0.000125443
-3.45295e-06
4.20871e-06
-2.98521e-06
0.000109321
-2.85467e-06
4.13753e-06
-4.20871e-06
0.000135674
2.52404e-06
-5.10333e-06
0.000153699
-1.26665e-13
-5.56796e-06
0.0001628
-2.52404e-06
-5.56796e-06
0.0001628
-4.13753e-06
-5.10333e-06
0.000153699
-4.20871e-06
-4.20871e-06
0.000135674
-2.98521e-06
0.000109321
-2.85467e-06
2.98521e-06
8.73785e-05
-2.11152e-06
-2.11152e-06
2.93654e-06
0.000109321
-2.85467e-06
1.80601e-06
0.000125443
-3.45295e-06
-1.42757e-13
0.000133927
-3.79171e-06
-1.80601e-06
0.000133927
-3.79171e-06
-2.93654e-06
0.000125443
-3.45295e-06
-2.98521e-06
0.000109321
-2.85467e-06
8.73785e-05
-2.11152e-06
-2.11152e-06
1.75855e-06
1.75855e-06
8.68359e-05
-1.48727e-06
-1.48727e-06
1.58507e-06
2.31764e-06
0.000109058
-1.88066e-06
9.44341e-07
2.7317e-06
0.000125519
-2.1672e-06
3.05698e-13
2.94525e-06
0.000134245
-2.31887e-06
-9.44341e-07
2.94525e-06
0.000134245
-2.31887e-06
-1.58507e-06
2.7317e-06
0.000125519
-2.1672e-06
-1.75855e-06
2.31764e-06
0.000109058
-1.88066e-06
1.75855e-06
8.68359e-05
-1.48727e-06
-1.48727e-06
2.31763e-06
1.58508e-06
0.000109058
-1.88066e-06
2.13338e-06
2.13339e-06
0.000136043
1.27625e-06
2.52942e-06
0.000154759
2.48732e-13
2.71285e-06
0.000164309
-1.27625e-06
2.71285e-06
0.000164309
-2.13338e-06
2.52941e-06
0.000154759
-2.31764e-06
2.13339e-06
0.000136043
1.58507e-06
0.000109058
-1.88066e-06
2.7317e-06
9.44342e-07
0.000125519
-2.1672e-06
2.52941e-06
1.27625e-06
0.000154759
1.50567e-06
1.50567e-06
0.000174485
1.5473e-13
1.58998e-06
0.00018427
-1.50567e-06
1.58998e-06
0.00018427
-2.52941e-06
1.50567e-06
0.000174485
-2.7317e-06
1.27625e-06
0.000154759
9.44342e-07
0.000125519
-2.1672e-06
2.94525e-06
1.18276e-12
0.000134245
-2.31887e-06
2.71285e-06
1.27371e-12
0.000164309
1.58997e-06
1.09376e-12
0.00018427
8.58887e-14
9.29929e-13
0.000193828
-1.58997e-06
8.89205e-13
0.000193828
-2.71285e-06
9.70848e-13
0.00018427
-2.94525e-06
1.09117e-12
0.000164309
9.91262e-13
0.000134245
-2.31887e-06
2.94525e-06
-9.4434e-07
0.000134245
-2.31887e-06
2.71285e-06
-1.27624e-06
0.000164309
1.58997e-06
-1.50567e-06
0.00018427
4.58962e-14
-1.58997e-06
0.000193828
-1.58997e-06
-1.58997e-06
0.000193828
-2.71285e-06
-1.50567e-06
0.00018427
-2.94525e-06
-1.27624e-06
0.000164309
-9.4434e-07
0.000134245
-2.31887e-06
2.7317e-06
-1.58507e-06
0.000125519
-2.1672e-06
2.52941e-06
-2.13338e-06
0.000154759
1.50567e-06
-2.52941e-06
0.000174485
1.6878e-14
-2.71285e-06
0.00018427
-1.50567e-06
-2.71285e-06
0.00018427
-2.52941e-06
-2.52941e-06
0.000174485
-2.7317e-06
-2.13338e-06
0.000154759
-1.58507e-06
0.000125519
-2.1672e-06
2.31763e-06
-1.75855e-06
0.000109058
-1.88066e-06
2.13338e-06
-2.31763e-06
0.000136043
1.27625e-06
-2.73169e-06
0.000154759
-1.38129e-14
-2.94525e-06
0.000164309
-1.27625e-06
-2.94525e-06
0.000164309
-2.13338e-06
-2.7317e-06
0.000154759
-2.31763e-06
-2.31763e-06
0.000136043
-1.75855e-06
0.000109058
-1.88066e-06
1.75855e-06
8.68359e-05
-1.48727e-06
-1.48727e-06
1.58507e-06
0.000109058
-1.88066e-06
9.44341e-07
0.000125519
-2.1672e-06
-3.68646e-14
0.000134245
-2.31887e-06
-9.44341e-07
0.000134245
-2.31887e-06
-1.58507e-06
0.000125519
-2.1672e-06
-1.75855e-06
0.000109058
-1.88066e-06
8.68359e-05
-1.48727e-06
-1.48727e-06
6.09094e-07
6.09094e-07
8.65409e-05
-4.61558e-07
-4.61558e-07
5.88221e-07
8.41815e-07
0.000108839
-6.01562e-07
3.62056e-07
1.02624e-06
0.000125434
-7.14691e-07
-1.69979e-15
1.12581e-06
0.00013426
-7.78511e-07
-3.62056e-07
1.12581e-06
0.00013426
-7.78511e-07
-5.88221e-07
1.02624e-06
0.000125434
-7.14691e-07
-6.09094e-07
8.41815e-07
0.000108839
-6.01562e-07
6.09094e-07
8.65409e-05
-4.61559e-07
-4.61558e-07
8.41814e-07
5.88222e-07
0.000108839
-6.01562e-07
8.30744e-07
8.30745e-07
0.000136065
5.13706e-07
1.01887e-06
0.000155083
-2.00356e-14
1.11174e-06
0.000164837
-5.13707e-07
1.11174e-06
0.000164837
-8.30744e-07
1.01887e-06
0.000155083
-8.41814e-07
8.30745e-07
0.000136065
5.88222e-07
0.000108839
-6.01563e-07
1.02624e-06
3.62057e-07
0.000125434
-7.1469e-07
1.01887e-06
5.13708e-07
0.000155083
6.28552e-07
6.28553e-07
0.000175266
-4.94021e-14
6.77036e-07
0.000185334
-6.28552e-07
6.77036e-07
0.000185334
-1.01887e-06
6.28553e-07
0.000175266
-1.02624e-06
5.13708e-07
0.000155083
3.62057e-07
0.000125434
-7.14691e-07
1.12581e-06
1.22346e-12
0.00013426
-7.7851e-07
1.11173e-06
1.37722e-12
0.000164837
6.77035e-07
1.23724e-12
0.000185334
-6.8712e-14
1.09795e-12
0.000195182
-6.77035e-07
1.08211e-12
0.000195182
-1.11173e-06
1.20246e-12
0.000185334
-1.12581e-06
1.35304e-12
0.000164837
1.24812e-12
0.00013426
-7.78511e-07
1.12581e-06
-3.62055e-07
0.00013426
-7.7851e-07
1.11173e-06
-5.13705e-07
0.000164837
6.77035e-07
-6.28551e-07
0.000185334
-8.45399e-14
-6.77034e-07
0.000195182
-6.77035e-07
-6.77034e-07
0.000195182
-1.11173e-06
-6.28551e-07
0.000185334
-1.12581e-06
-5.13705e-07
0.000164837
-3.62055e-07
0.00013426
-7.78511e-07
1.02624e-06
-5.8822e-07
0.000125434
-7.1469e-07
1.01887e-06
-8.30743e-07
0.000155083
6.28552e-07
-1.01887e-06
0.000175266
-1.00418e-13
-1.11173e-06
0.000185334
-6.28552e-07
-1.11173e-06
0.000185334
-1.01887e-06
-1.01887e-06
0.000175266
-1.02624e-06
-8.30743e-07
0.000155083
-5.8822e-07
0.000125434
-7.14691e-07
8.41814e-07
-6.09093e-07
0.000108839
-6.01562e-07
8.30744e-07
-8.41813e-07
0.000136065
5.13706e-07
-1.02624e-06
0.000155083
-1.22122e-13
-1.12581e-06
0.000164837
-5.13707e-07
-1.12581e-06
0.000164837
-8.30744e-07
-1.02624e-06
0.000155083
-8.41814e-07
-8.41813e-07
0.000136065
-6.09093e-07
0.000108839
-6.01562e-07
6.09094e-07
8.65409e-05
-4.61558e-07
-4.61558e-07
5.88221e-07
0.000108839
-6.01561e-07
3.62056e-07
0.000125434
-7.1469e-07
-1.31518e-13
0.00013426
-7.7851e-07
-3.62056e-07
0.00013426
-7.7851e-07
-5.88221e-07
0.000125434
-7.1469e-07
-6.09094e-07
0.000108839
-6.01562e-07
8.65409e-05
-4.61558e-07
-4.61558e-07
3.37042e-07
3.37043e-07
8.64326e-05
-2.8288e-07
-2.8288e-07
3.05727e-07
4.42555e-07
0.000108783
-3.55841e-07
1.8277e-07
5.24016e-07
0.000125443
-4.10568e-07
2.60276e-13
5.67997e-07
0.000134315
-4.40394e-07
-1.8277e-07
5.67997e-07
0.000134315
-4.40394e-07
-3.05727e-07
5.24016e-07
0.000125443
-4.10568e-07
-3.37042e-07
4.42555e-07
0.000108783
-3.5584e-07
3.37042e-07
8.64326e-05
-2.8288e-07
-2.8288e-07
4.42554e-07
3.05729e-07
0.000108783
-3.5584e-07
4.11361e-07
4.11362e-07
0.000136127
2.48164e-07
4.93895e-07
0.000155277
2.12032e-13
5.35806e-07
0.000165117
-2.48163e-07
5.35806e-07
0.000165117
-4.11361e-07
4.93894e-07
0.000155277
-4.42554e-07
4.11362e-07
0.000136127
3.05728e-07
0.000108783
-3.55841e-07
5.24015e-07
1.82772e-07
0.000125443
-4.10567e-07
4.93893e-07
2.48165e-07
0.000155277
2.99349e-07
2.9935e-07
0.000175655
1.24412e-13
3.22832e-07
0.000185846
-2.99349e-07
3.22832e-07
0.000185846
-4.93893e-07
2.9935e-07
0.000175655
-5.24015e-07
2.48165e-07
0.000155277
1.82772e-07
0.000125443
-4.10568e-07
5.67995e-07
1.78046e-12
0.000134315
-4.40393e-07
5.35805e-07
1.91833e-12
0.000165117
3.22831e-07
1.68266e-12
0.000185846
6.12263e-14
1.46274e-12
0.000195828
-3.22831e-07
1.4156e-12
0.000195828
-5.35805e-07
1.55334e-12
0.000185846
-5.67996e-07
1.70967e-12
0.000165117
1.554e-12
0.000134315
-4.40394e-07
5.67995e-07
-1.82769e-07
0.000134315
-4.40393e-07
5.35805e-07
-2.48162e-07
0.000165117
3.22831e-07
-2.99347e-07
0.000185846
1.64638e-14
-3.22829e-07
0.000195828
-3.22831e-07
-3.22829e-07
0.000195828
-5.35805e-07
-2.99347e-07
0.000185846
-5.67996e-07
-2.48162e-07
0.000165117
-1.82769e-07
0.000134315
-4.40394e-07
5.24015e-07
-3.05726e-07
0.000125443
-4.10567e-07
4.93893e-07
-4.11359e-07
0.000155277
2.99349e-07
-4.93891e-07
0.000175655
-1.75562e-14
-5.35803e-07
0.000185846
-2.99349e-07
-5.35803e-07
0.000185846
-4.93893e-07
-4.93891e-07
0.000175655
-5.24015e-07
-4.11359e-07
0.000155277
-3.05726e-07
0.000125443
-4.10568e-07
4.42554e-07
-3.3704e-07
0.000108783
-3.55839e-07
4.11361e-07
-4.42552e-07
0.000136127
2.48164e-07
-5.24013e-07
0.000155277
-6.19964e-14
-5.67994e-07
0.000165117
-2.48164e-07
-5.67994e-07
0.000165117
-4.11361e-07
-5.24013e-07
0.000155277
-4.42554e-07
-4.42552e-07
0.000136127
-3.3704e-07
0.000108783
-3.5584e-07
3.37041e-07
8.64326e-05
-2.8288e-07
-2.82879e-07
3.05727e-07
0.000108783
-3.55839e-07
1.8277e-07
0.000125443
-4.10566e-07
-8.24786e-14
0.000134315
-4.40393e-07
-1.8277e-07
0.000134315
-4.40393e-07
-3.05727e-07
0.000125443
-4.10567e-07
-3.37041e-07
0.000108783
-3.55839e-07
8.64326e-05
-2.8288e-07
-2.8288e-07
1.51348e-07
1.5135e-07
8.63735e-05
-1.21836e-07
-1.21836e-07
1.40339e-07
2.02145e-07
0.000108747
-1.55426e-07
8.45677e-08
2.41371e-07
0.000125439
-1.81513e-07
-9.89659e-14
2.62704e-07
0.000134333
-1.96084e-07
-8.45679e-08
2.62704e-07
0.000134333
-1.96084e-07
-1.40339e-07
2.41371e-07
0.000125439
-1.81513e-07
-1.51348e-07
2.02145e-07
0.000108747
-1.55426e-07
1.5135e-07
8.63735e-05
-1.21837e-07
-1.21836e-07
2.02143e-07
1.40341e-07
0.000108747
-1.55425e-07
1.91011e-07
1.91013e-07
0.00013615
1.15755e-07
2.30229e-07
0.000155363
-8.22946e-14
2.5041e-07
0.000165245
-1.15755e-07
2.5041e-07
0.000165245
-1.91011e-07
2.30229e-07
0.000155363
-2.02144e-07
1.91013e-07
0.00013615
1.40341e-07
0.000108747
-1.55427e-07
2.41369e-07
8.45697e-08
0.000125439
-1.81511e-07
2.30227e-07
1.15757e-07
0.000155363
1.40054e-07
1.40056e-07
0.000175835
-8.38609e-14
1.51654e-07
0.000186085
-1.40054e-07
1.51654e-07
0.000186085
-2.30228e-07
1.40056e-07
0.000175835
-2.41369e-07
1.15757e-07
0.000155363
8.45697e-08
0.000125439
-1.81512e-07
2.62702e-07
1.68261e-12
0.000134333
-1.96083e-07
2.50409e-07
1.88727e-12
0.000165245
1.51653e-07
1.70977e-12
0.000186085
-8.28172e-14
1.53507e-12
0.000196131
-1.51653e-07
1.52214e-12
0.000196131
-2.50409e-07
1.69991e-12
0.000186085
-2.62702e-07
1.89157e-12
0.000165245
1.74611e-12
0.000134333
-1.96084e-07
2.62702e-07
-8.45664e-08
0.000134333
-1.96083e-07
2.50409e-07
-1.15754e-07
0.000165245
1.51653e-07
-1.40052e-07
0.000186085
-9.51957e-14
-1.51651e-07
0.000196131
-1.51653e-07
-1.51651e-07
0.000196131
-2.50409e-07
-1.40052e-07
0.000186085
-2.62702e-07
-1.15754e-07
0.000165245
-8.45663e-08
0.000134333
-1.96084e-07
2.41369e-07
-1.40338e-07
0.000125439
-1.81511e-07
2.30227e-07
-1.91009e-07
0.000155363
1.40054e-07
-2.30226e-07
0.000175835
-1.06913e-13
-2.50407e-07
0.000186085
-1.40054e-07
-2.50407e-07
0.000186085
-2.30228e-07
-2.30226e-07
0.000175835
-2.41369e-07
-1.9101e-07
0.000155363
-1.40338e-07
0.000125439
-1.81512e-07
2.02143e-07
-1.51347e-07
0.000108747
-1.55425e-07
1.91011e-07
-2.02142e-07
0.00013615
1.15755e-07
-2.41368e-07
0.000155363
-1.37602e-13
-2.62701e-07
0.000165245
-1.15756e-07
-2.62701e-07
0.000165245
-1.91011e-07
-2.41368e-07
0.000155363
-2.02144e-07
-2.02142e-07
0.00013615
-1.51347e-07
0.000108747
-1.55426e-07
1.51348e-07
8.63735e-05
-1.21835e-07
-1.21835e-07
1.40339e-07
0.000108747
-1.55425e-07
8.45679e-08
0.000125439
-1.81511e-07
-1.48368e-13
0.000134333
-1.96083e-07
-8.45682e-08
0.000134333
-1.96083e-07
-1.4034e-07
0.000125439
-1.81511e-07
-1.51348e-07
0.000108747
-1.55425e-07
8.63735e-05
-1.21836e-07
-1.21836e-07
7.90329e-08
7.90343e-08
8.63467e-05
-6.56222e-08
-6.56223e-08
7.18495e-08
1.04053e-07
0.000108733
-8.28793e-08
4.28781e-08
1.23074e-07
0.000125441
-9.59202e-08
6.23596e-13
1.3333e-07
0.000134345
-1.03101e-07
-4.2877e-08
1.3333e-07
0.000134345
-1.03101e-07
-7.18486e-08
1.23073e-07
0.000125441
-9.59198e-08
-7.90323e-08
1.04053e-07
0.000108733
-8.28785e-08
7.90336e-08
8.63467e-05
-6.56221e-08
-6.5622e-08
1.04051e-07
7.18513e-08
0.000108733
-8.28778e-08
9.64209e-08
9.6423e-08
0.000136165
5.78783e-08
1.15181e-07
0.000155409
5.63981e-13
1.24754e-07
0.000165311
-5.78773e-08
1.24754e-07
0.000165311
-9.64201e-08
1.15181e-07
0.000155409
-1.04051e-07
9.64224e-08
0.000136165
7.18506e-08
0.000108733
-8.28786e-08
1.23072e-07
4.28799e-08
0.000125441
-9.59186e-08
1.15179e-07
5.78803e-08
0.000155409
6.94188e-08
6.94207e-08
0.000175927
4.12383e-13
7.49052e-08
0.000186204
-6.94181e-08
7.49051e-08
0.000186204
-1.15179e-07
6.94204e-08
0.000175927
-1.23072e-07
5.78799e-08
0.000155409
4.28794e-08
0.000125441
-9.59196e-08
1.33328e-07
2.29077e-12
0.000134345
-1.031e-07
1.24752e-07
2.44604e-12
0.000165311
7.49035e-08
2.14021e-12
0.000186204
2.92485e-13
1.85409e-12
0.000196281
-7.4903e-08
1.77906e-12
0.000196281
-1.24752e-07
1.91594e-12
0.000186204
-1.33328e-07
2.08092e-12
0.000165311
1.87002e-12
0.000134345
-1.03101e-07
1.33328e-07
-4.28755e-08
0.000134345
-1.031e-07
1.24752e-07
-5.78756e-08
0.000165311
7.49035e-08
-6.94165e-08
0.000186204
2.18365e-13
-7.49014e-08
0.000196281
-7.49031e-08
-7.49015e-08
0.000196281
-1.24752e-07
-6.94167e-08
0.000186204
-1.33328e-07
-5.78758e-08
0.000165311
-4.28757e-08
0.000134345
-1.03101e-07
1.23072e-07
-7.18472e-08
0.000125441
-9.59186e-08
1.15179e-07
-9.64185e-08
0.000155409
6.94187e-08
-1.15177e-07
0.000175927
1.73513e-13
-1.2475e-07
0.000186204
-6.94184e-08
-1.2475e-07
0.000186204
-1.15179e-07
-1.15177e-07
0.000175927
-1.23072e-07
-9.64187e-08
0.000155409
-7.18473e-08
0.000125441
-9.59196e-08
1.04051e-07
-7.90311e-08
0.000108733
-8.28775e-08
9.64207e-08
-1.04049e-07
0.000136165
5.7878e-08
-1.2307e-07
0.000155409
1.33301e-13
-1.33327e-07
0.000165311
-5.78778e-08
-1.33327e-07
0.000165311
-9.64206e-08
-1.2307e-07
0.000155409
-1.04051e-07
-1.0405e-07
0.000136165
-7.90311e-08
0.000108733
-8.28783e-08
7.90324e-08
8.63467e-05
-6.56213e-08
-6.56209e-08
7.18491e-08
0.000108733
-8.2877e-08
4.28777e-08
0.000125441
-9.59181e-08
8.36695e-14
0.000134345
-1.03099e-07
-4.28776e-08
0.000134345
-1.031e-07
-7.1849e-08
0.000125441
-9.59183e-08
-7.90322e-08
0.000108733
-8.28774e-08
8.63467e-05
-6.56212e-08
-6.56215e-08
3.80805e-08
3.80822e-08
8.63326e-05
-3.10247e-08
-3.10244e-08
3.50231e-08
5.06164e-08
0.000108725
-3.94622e-08
2.10079e-08
6.01984e-08
0.000125441
-4.5952e-08
3.32759e-13
6.53708e-08
0.00013435
-4.95573e-08
-2.10072e-08
6.53707e-08
0.00013435
-4.95572e-08
-3.50227e-08
6.01982e-08
0.000125441
-4.59516e-08
-3.80803e-08
5.0616e-08
0.000108725
-3.94616e-08
3.80819e-08
8.63326e-05
-3.10248e-08
-3.10242e-08
5.06141e-08
3.50253e-08
0.000108725
-3.94604e-08
4.73935e-08
4.7396e-08
0.000136171
2.85615e-08
5.68264e-08
0.000155432
3.06175e-13
6.1625e-08
0.000165344
-2.8561e-08
6.16249e-08
0.000165344
-4.73932e-08
5.68262e-08
0.000155432
-5.06141e-08
4.73957e-08
0.000136171
3.5025e-08
0.000108725
-3.94613e-08
6.01961e-08
2.10099e-08
0.000125441
-4.59498e-08
5.68241e-08
2.85638e-08
0.000155432
3.43452e-08
3.43473e-08
0.000175971
2.00806e-13
3.70868e-08
0.000186263
-3.43449e-08
3.70867e-08
0.000186263
-5.68239e-08
3.43472e-08
0.000175971
-6.01961e-08
2.85636e-08
0.000155432
2.10098e-08
0.000125441
-4.59506e-08
6.53685e-08
2.07041e-12
0.00013435
-4.95552e-08
6.16229e-08
2.28032e-12
0.000165344
3.70849e-08
2.0388e-12
0.000186263
1.26976e-13
1.80448e-12
0.000196355
-3.70847e-08
1.75675e-12
0.000196355
-6.16228e-08
1.91788e-12
0.000186263
-6.53686e-08
2.09755e-12
0.000165344
1.9132e-12
0.00013435
-4.95558e-08
6.53686e-08
-2.10059e-08
0.00013435
-4.95553e-08
6.1623e-08
-2.85593e-08
0.000165344
3.70849e-08
-3.43433e-08
0.000186263
7.9337e-14
-3.70832e-08
0.000196355
-3.70848e-08
-3.70832e-08
0.000196355
-6.16229e-08
-3.43434e-08
0.000186263
-6.53686e-08
-2.85595e-08
0.000165344
-2.1006e-08
0.00013435
-4.95558e-08
6.01963e-08
-3.50216e-08
0.000125441
-4.595e-08
5.68243e-08
-4.73917e-08
0.000155432
3.43453e-08
-5.68225e-08
0.000175971
5.69576e-14
-6.16214e-08
0.000186263
-3.43452e-08
-6.16214e-08
0.000186263
-5.68242e-08
-5.68226e-08
0.000175971
-6.01963e-08
-4.73919e-08
0.000155432
-3.50217e-08
0.000125441
-4.59504e-08
5.06143e-08
-3.80792e-08
0.000108725
-3.94604e-08
4.73937e-08
-5.06127e-08
0.000136171
2.85615e-08
-6.01949e-08
0.000155432
3.69508e-14
-6.53673e-08
0.000165344
-2.85614e-08
-6.53674e-08
0.000165344
-4.73936e-08
-6.01951e-08
0.000155432
-5.06142e-08
-5.0613e-08
0.000136171
-3.80795e-08
0.000108725
-3.94607e-08
3.80804e-08
8.63326e-05
-3.10235e-08
-3.10234e-08
3.50232e-08
0.000108725
-3.94598e-08
2.10078e-08
0.000125441
-4.59495e-08
1.55137e-15
0.00013435
-4.95549e-08
-2.10078e-08
0.00013435
-4.9555e-08
-3.50232e-08
0.000125441
-4.59498e-08
-3.80803e-08
0.000108725
-3.94603e-08
8.63326e-05
-3.10239e-08
-3.10237e-08
1.96294e-08
1.96311e-08
8.63257e-05
-1.61659e-08
-1.6166e-08
1.79428e-08
2.5969e-08
0.000108722
-2.04875e-08
1.07363e-08
3.08012e-08
0.000125441
-2.37789e-08
9.84568e-13
3.34039e-08
0.000134353
-2.55967e-08
-1.07344e-08
3.34036e-08
0.000134353
-2.55964e-08
-1.79413e-08
3.08005e-08
0.000125441
-2.37781e-08
-1.96284e-08
2.59679e-08
0.000108722
-2.04861e-08
1.96299e-08
8.63257e-05
-1.61654e-08
-1.61653e-08
2.59668e-08
1.79448e-08
0.000108722
-2.04857e-08
2.41867e-08
2.4189e-08
0.000136175
1.45478e-08
2.89464e-08
0.000155443
8.44823e-13
3.13603e-08
0.00016536
-1.45462e-08
3.13601e-08
0.00016536
-2.41855e-08
2.89458e-08
0.000155443
-2.5966e-08
2.41881e-08
0.000136175
1.79437e-08
0.000108722
-2.04861e-08
3.0799e-08
1.0738e-08
0.000125441
-2.37769e-08
2.89443e-08
1.45498e-08
0.000155443
1.74636e-08
1.74655e-08
0.000175994
5.81591e-13
1.88401e-08
0.000186293
-1.74625e-08
1.88399e-08
0.000186293
-2.89435e-08
1.7465e-08
0.000175994
-3.07986e-08
1.45491e-08
0.000155443
1.07372e-08
0.000125441
-2.37776e-08
3.34018e-08
2.5719e-12
0.000134353
-2.55948e-08
3.13584e-08
2.67413e-12
0.00016536
1.88384e-08
2.28008e-12
0.000186293
3.8642e-13
1.92596e-12
0.000196393
-1.88377e-08
1.808e-12
0.000196393
-3.13579e-08
1.92148e-12
0.000186293
-3.34016e-08
2.05973e-12
0.00016536
1.83503e-12
0.000134353
-2.55956e-08
3.34018e-08
-1.0733e-08
0.000134353
-2.55948e-08
3.13584e-08
-1.45446e-08
0.00016536
1.88383e-08
-1.7461e-08
0.000186293
2.68614e-13
-1.88362e-08
0.000196393
-1.88378e-08
-1.88363e-08
0.000196393
-3.1358e-08
-1.74613e-08
0.000186293
-3.34017e-08
-1.45451e-08
0.00016536
-1.07336e-08
0.000134353
-2.55957e-08
3.07989e-08
-1.79401e-08
0.000125441
-2.37768e-08
2.89441e-08
-2.4184e-08
0.000155443
1.74633e-08
-2.8942e-08
0.000175994
2.02184e-13
-3.13564e-08
0.000186293
-1.7463e-08
-3.13565e-08
0.000186293
-2.89439e-08
-2.89422e-08
0.000175994
-3.07989e-08
-2.41844e-08
0.000155443
-1.79404e-08
0.000125441
-2.37777e-08
2.59663e-08
-1.96273e-08
0.000108722
-2.0485e-08
2.41863e-08
-2.59645e-08
0.000136175
1.45472e-08
-3.07972e-08
0.000155443
1.43095e-13
-3.34002e-08
0.00016536
-1.4547e-08
-3.34003e-08
0.00016536
-2.41862e-08
-3.07974e-08
0.000155443
-2.59663e-08
-2.59649e-08
0.000136175
-1.96274e-08
0.000108722
-2.04858e-08
1.96286e-08
8.63257e-05
-1.61646e-08
-1.61642e-08
1.79422e-08
0.000108722
-2.04846e-08
1.07355e-08
0.000125441
-2.37762e-08
8.31756e-14
0.000134353
-2.55942e-08
-1.07354e-08
0.000134353
-2.55943e-08
-1.79421e-08
0.000125441
-2.37764e-08
-1.96285e-08
0.000108722
-2.0485e-08
8.63257e-05
-1.61645e-08
-1.61649e-08
9.77383e-09
9.7751e-09
8.63221e-05
-7.98446e-09
-7.98418e-09
8.98172e-09
1.29824e-08
0.00010872
-1.01452e-08
5.38856e-09
1.54375e-08
0.000125441
-1.18028e-08
-3.05747e-14
1.67628e-08
0.000134355
-1.27218e-08
-5.3886e-09
1.67628e-08
0.000134355
-1.27218e-08
-8.98185e-09
1.54374e-08
0.000125441
-1.18028e-08
-9.77403e-09
1.29823e-08
0.00010872
-1.01451e-08
9.77511e-09
8.63221e-05
-7.98481e-09
-7.98432e-09
1.29806e-08
8.98352e-09
0.00010872
-1.0144e-08
1.2156e-08
1.21581e-08
0.000136177
7.33083e-09
1.45844e-08
0.000155449
-3.39081e-14
1.58185e-08
0.000165369
-7.33095e-09
1.58185e-08
0.000165369
-1.21563e-08
1.45843e-08
0.000155449
-1.2981e-08
1.2158e-08
0.000136177
8.98352e-09
0.00010872
-1.0145e-08
1.54357e-08
5.39039e-09
0.000125441
-1.18013e-08
1.45825e-08
7.33284e-09
0.000155449
8.8213e-09
8.82311e-09
0.000176006
-7.81688e-14
9.52807e-09
0.000186308
-8.82147e-09
9.52806e-09
0.000186308
-1.45828e-08
8.82305e-09
0.000176006
-1.54361e-08