/*--------------------------------*- C++ -*----------------------------------*\
| =========                 |                                                 |
| \\      /  F ield         | OpenFOAM: The Open Source CFD Toolbox           |
|  \\    /   O peration     | Version:  2406                                  |
|   \\  /    A nd           | Website:  www.openfoam.com                      |
|    \\/     M anipulation  |                                                 |
\*---------------------------------------------------------------------------*/
FoamFile
{
    version     2.0;
    format      ascii;
    arch        "LSB;label=32;scalar=64";
    class       surfaceScalarField;
    location    "1.7";
    object      phi;
}
// * * * * * * * * * * * * * * * * * * * * * * * * * * * * * * * * * * * * * //

dimensions      [0 3 -1 0 0 0 0];

oriented        oriented;

internalField   nonuniform List<scalar> 
46880
(
5.70227e-05
5.70227e-05
9.25627e-05
-6.58089e-05
-6.58089e-05
4.14847e-05
5.85524e-05
0.000107332
-6.81955e-05
2.17749e-05
5.89973e-05
0.000116854
-6.9121e-05
1.85637e-13
5.91027e-05
0.000121561
-6.94051e-05
-2.17749e-05
5.91027e-05
0.000121561
-6.94051e-05
-4.14847e-05
5.89973e-05
0.000116854
-6.9121e-05
-5.70227e-05
5.85524e-05
0.000107332
-6.81955e-05
5.70227e-05
9.25627e-05
-6.58089e-05
-6.58089e-05
5.85524e-05
4.14847e-05
0.000107332
-6.81955e-05
4.20291e-05
4.20291e-05
0.000121733
2.18254e-05
4.20503e-05
0.000130284
1.83436e-13
4.1986e-05
0.000134326
-2.18254e-05
4.1986e-05
0.000134326
-4.20291e-05
4.20503e-05
0.000130284
-5.85524e-05
4.20291e-05
0.000121733
4.14847e-05
0.000107332
-6.81955e-05
5.89973e-05
2.17749e-05
0.000116854
-6.9121e-05
4.20503e-05
2.18254e-05
0.000130284
2.17158e-05
2.17158e-05
0.000137965
1.46786e-13
2.16254e-05
0.00014148
-2.17158e-05
2.16254e-05
0.00014148
-4.20503e-05
2.17158e-05
0.000137965
-5.89973e-05
2.18254e-05
0.000130284
2.17749e-05
0.000116854
-6.9121e-05
5.91027e-05
8.57833e-13
0.000121561
-6.94051e-05
4.1986e-05
1.04578e-12
0.000134326
2.16254e-05
1.02078e-12
0.00014148
1.18993e-13
1.00025e-12
0.000144691
-2.16254e-05
9.70974e-13
0.000144691
-4.1986e-05
9.39347e-13
0.00014148
-5.91027e-05
9.44877e-13
0.000134326
7.74511e-13
0.000121561
-6.94051e-05
5.91027e-05
-2.17749e-05
0.000121561
-6.94051e-05
4.1986e-05
-2.18254e-05
0.000134326
2.16254e-05
-2.17158e-05
0.00014148
9.01395e-14
-2.16254e-05
0.000144691
-2.16254e-05
-2.16254e-05
0.000144691
-4.1986e-05
-2.17158e-05
0.00014148
-5.91027e-05
-2.18254e-05
0.000134326
-2.17749e-05
0.000121561
-6.94051e-05
5.89973e-05
-4.14846e-05
0.000116854
-6.9121e-05
4.20503e-05
-4.20291e-05
0.000130284
2.17158e-05
-4.20503e-05
0.000137965
5.34181e-14
-4.1986e-05
0.00014148
-2.17158e-05
-4.1986e-05
0.00014148
-4.20503e-05
-4.20503e-05
0.000137965
-5.89973e-05
-4.20291e-05
0.000130284
-4.14846e-05
0.000116854
-6.9121e-05
5.85524e-05
-5.70227e-05
0.000107332
-6.81955e-05
4.20291e-05
-5.85524e-05
0.000121733
2.18254e-05
-5.89973e-05
0.000130284
1.94761e-14
-5.91027e-05
0.000134326
-2.18254e-05
-5.91027e-05
0.000134326
-4.20291e-05
-5.89973e-05
0.000130284
-5.85524e-05
-5.85524e-05
0.000121733
-5.70227e-05
0.000107332
-6.81955e-05
5.70227e-05
9.25627e-05
-6.58089e-05
-6.58089e-05
4.14847e-05
0.000107332
-6.81955e-05
2.17749e-05
0.000116854
-6.9121e-05
-3.90126e-15
0.000121561
-6.94051e-05
-2.17749e-05
0.000121561
-6.94051e-05
-4.14847e-05
0.000116854
-6.9121e-05
-5.70227e-05
0.000107332
-6.81955e-05
9.25627e-05
-6.58089e-05
-6.58089e-05
2.12981e-05
2.12981e-05
9.11553e-05
-2.05944e-05
-2.05944e-05
1.7387e-05
2.43165e-05
0.000110076
-2.31488e-05
9.64834e-06
2.60548e-05
0.000123205
-2.46671e-05
1.21808e-13
2.68715e-05
0.000129837
-2.54995e-05
-9.64834e-06
2.68715e-05
0.000129837
-2.54995e-05
-1.7387e-05
2.60548e-05
0.000123205
-2.46671e-05
-2.12981e-05
2.43165e-05
0.000110076
-2.31488e-05
2.12981e-05
9.11553e-05
-2.05944e-05
-2.05944e-05
2.43165e-05
1.7387e-05
0.000110076
-2.31488e-05
1.97648e-05
1.97648e-05
0.000130836
1.0936e-05
2.11179e-05
0.00014405
1.01193e-13
2.17195e-05
0.000150414
-1.0936e-05
2.17195e-05
0.000150414
-1.97648e-05
2.11179e-05
0.00014405
-2.43165e-05
1.97648e-05
0.000130836
1.7387e-05
0.000110076
-2.31488e-05
2.60548e-05
9.64834e-06
0.000123205
-2.46671e-05
2.11179e-05
1.0936e-05
0.00014405
1.1672e-05
1.1672e-05
0.000156857
6.23456e-14
1.19938e-05
0.000162878
-1.1672e-05
1.19938e-05
0.000162878
-2.11179e-05
1.1672e-05
0.000156857
-2.60548e-05
1.0936e-05
0.00014405
9.64834e-06
0.000123205
-2.46671e-05
2.68715e-05
7.29494e-13
0.000129837
-2.54995e-05
2.17195e-05
8.33932e-13
0.000150414
1.19938e-05
7.87912e-13
0.000162878
3.55012e-14
7.68721e-13
0.000168678
-1.19938e-05
7.43436e-13
0.000168678
-2.17195e-05
7.21715e-13
0.000162878
-2.68715e-05
7.55947e-13
0.000150414
6.69364e-13
0.000129837
-2.54995e-05
2.68715e-05
-9.64834e-06
0.000129837
-2.54995e-05
2.17195e-05
-1.0936e-05
0.000150414
1.19938e-05
-1.1672e-05
0.000162878
1.22924e-14
-1.19938e-05
0.000168678
-1.19938e-05
-1.19938e-05
0.000168678
-2.17195e-05
-1.1672e-05
0.000162878
-2.68715e-05
-1.0936e-05
0.000150414
-9.64834e-06
0.000129837
-2.54995e-05
2.60548e-05
-1.7387e-05
0.000123205
-2.46671e-05
2.11179e-05
-1.97648e-05
0.00014405
1.1672e-05
-2.11179e-05
0.000156857
-1.92198e-14
-2.17195e-05
0.000162878
-1.1672e-05
-2.17195e-05
0.000162878
-2.11179e-05
-2.11179e-05
0.000156857
-2.60548e-05
-1.97648e-05
0.00014405
-1.7387e-05
0.000123205
-2.46671e-05
2.43165e-05
-2.12981e-05
0.000110076
-2.31488e-05
1.97648e-05
-2.43165e-05
0.000130836
1.0936e-05
-2.60548e-05
0.00014405
-4.98566e-14
-2.68715e-05
0.000150414
-1.0936e-05
-2.68715e-05
0.000150414
-1.97648e-05
-2.60548e-05
0.00014405
-2.43165e-05
-2.43165e-05
0.000130836
-2.12981e-05
0.000110076
-2.31488e-05
2.12981e-05
9.11553e-05
-2.05944e-05
-2.05944e-05
1.7387e-05
0.000110076
-2.31488e-05
9.64834e-06
0.000123205
-2.46671e-05
-6.65312e-14
0.000129837
-2.54995e-05
-9.64834e-06
0.000129837
-2.54995e-05
-1.7387e-05
0.000123205
-2.46671e-05
-2.12981e-05
0.000110076
-2.31488e-05
9.11553e-05
-2.05944e-05
-2.05944e-05
1.18127e-05
1.18127e-05
8.91259e-05
-1.0798e-05
-1.0798e-05
9.90265e-06
1.43956e-05
0.000110627
-1.30364e-05
5.62154e-06
1.59718e-05
0.000125963
-1.44489e-05
1.97429e-13
1.67467e-05
0.000133897
-1.51853e-05
-5.62154e-06
1.67467e-05
0.000133897
-1.51853e-05
-9.90265e-06
1.59718e-05
0.000125963
-1.44489e-05
-1.18127e-05
1.43956e-05
0.000110627
-1.30364e-05
1.18127e-05
8.91259e-05
-1.0798e-05
-1.0798e-05
1.43956e-05
9.90265e-06
0.000110627
-1.30364e-05
1.20477e-05
1.20477e-05
0.000135532
6.80902e-06
1.33212e-05
0.000151939
1.44762e-13
1.39201e-05
0.00016005
-6.80902e-06
1.39201e-05
0.00016005
-1.20477e-05
1.33212e-05
0.000151939
-1.43956e-05
1.20477e-05
0.000135532
9.90265e-06
0.000110627
-1.30364e-05
1.59718e-05
5.62155e-06
0.000125963
-1.44489e-05
1.33212e-05
6.80902e-06
0.000151939
7.49972e-06
7.49972e-06
0.0001685
7.4711e-14
7.81056e-06
0.000176487
-7.49972e-06
7.81056e-06
0.000176487
-1.33212e-05
7.49972e-06
0.0001685
-1.59718e-05
6.80902e-06
0.000151939
5.62155e-06
0.000125963
-1.44489e-05
1.67467e-05
8.7539e-13
0.000133897
-1.51853e-05
1.39201e-05
9.34472e-13
0.00016005
7.81056e-06
8.09059e-13
0.000176487
3.12956e-14
7.36091e-13
0.000184299
-7.81056e-06
7.02807e-13
0.000184299
-1.39201e-05
7.12657e-13
0.000176487
-1.67467e-05
7.95202e-13
0.00016005
7.28749e-13
0.000133897
-1.51853e-05
1.67467e-05
-5.62154e-06
0.000133897
-1.51853e-05
1.39201e-05
-6.80902e-06
0.00016005
7.81056e-06
-7.49972e-06
0.000176487
6.36921e-16
-7.81055e-06
0.000184299
-7.81056e-06
-7.81055e-06
0.000184299
-1.39201e-05
-7.49972e-06
0.000176487
-1.67467e-05
-6.80902e-06
0.00016005
-5.62154e-06
0.000133897
-1.51853e-05
1.59718e-05
-9.90265e-06
0.000125963
-1.44489e-05
1.33212e-05
-1.20476e-05
0.000151939
7.49972e-06
-1.33212e-05
0.0001685
-3.50316e-14
-1.39201e-05
0.000176487
-7.49972e-06
-1.39201e-05
0.000176487
-1.33212e-05
-1.33212e-05
0.0001685
-1.59718e-05
-1.20476e-05
0.000151939
-9.90265e-06
0.000125963
-1.44489e-05
1.43956e-05
-1.18127e-05
0.000110627
-1.30364e-05
1.20477e-05
-1.43956e-05
0.000135532
6.80902e-06
-1.59718e-05
0.000151939
-6.84584e-14
-1.67467e-05
0.00016005
-6.80902e-06
-1.67467e-05
0.00016005
-1.20477e-05
-1.59718e-05
0.000151939
-1.43956e-05
-1.43956e-05
0.000135532
-1.18127e-05
0.000110627
-1.30364e-05
1.18127e-05
8.91259e-05
-1.0798e-05
-1.0798e-05
9.90265e-06
0.000110627
-1.30364e-05
5.62154e-06
0.000125963
-1.44489e-05
-8.43809e-14
0.000133897
-1.51853e-05
-5.62154e-06
0.000133897
-1.51853e-05
-9.90265e-06
0.000125963
-1.44489e-05
-1.18127e-05
0.000110627
-1.30364e-05
8.91259e-05
-1.0798e-05
-1.0798e-05
2.98521e-06
2.98521e-06
8.73785e-05
-2.11152e-06
-2.11152e-06
2.93654e-06
4.20871e-06
0.000109321
-2.85467e-06
1.80601e-06
5.10333e-06
0.000125443
-3.45295e-06
5.97455e-14
5.56796e-06
0.000133927
-3.79171e-06
-1.80601e-06
5.56796e-06
0.000133927
-3.79171e-06
-2.93654e-06
5.10333e-06
0.000125443
-3.45295e-06
-2.98521e-06
4.20871e-06
0.000109321
-2.85467e-06
2.98521e-06
8.73785e-05
-2.11152e-06
-2.11152e-06
4.20871e-06
2.93654e-06
0.000109321
-2.85467e-06
4.13753e-06
4.13753e-06
0.000135674
2.52404e-06
4.95623e-06
0.000153699
2.96068e-14
5.34154e-06
0.0001628
-2.52404e-06
5.34154e-06
0.0001628
-4.13753e-06
4.95623e-06
0.000153699
-4.20871e-06
4.13753e-06
0.000135674
2.93654e-06
0.000109321
-2.85467e-06
5.10333e-06
1.80601e-06
0.000125443
-3.45295e-06
4.95623e-06
2.52404e-06
0.000153699
2.98743e-06
2.98743e-06
0.000172437
-1.23229e-14
3.17437e-06
0.000181642
-2.98743e-06
3.17437e-06
0.000181642
-4.95623e-06
2.98743e-06
0.000172437
-5.10333e-06
2.52404e-06
0.000153699
1.80601e-06
0.000125443
-3.45295e-06
5.56796e-06
8.61753e-13
0.000133927
-3.79171e-06
5.34154e-06
9.58043e-13
0.0001628
3.17437e-06
8.37574e-13
0.000181642
-4.33198e-14
7.3734e-13
0.000190648
-3.17437e-06
7.13928e-13
0.000190648
-5.34154e-06
7.71374e-13
0.000181642
-5.56796e-06
8.80239e-13
0.0001628
8.10523e-13
0.000133927
-3.79171e-06
5.56796e-06
-1.80601e-06
0.000133927
-3.79171e-06
5.34154e-06
-2.52404e-06
0.0001628
3.17437e-06
-2.98743e-06
0.000181642
-6.65835e-14
-3.17437e-06
0.000190648
-3.17437e-06
-3.17437e-06
0.000190648
-5.34154e-06
-2.98743e-06
0.000181642
-5.56796e-06
-2.52404e-06
0.0001628
-1.80601e-06
0.000133927
-3.79171e-06
5.10333e-06
-2.93654e-06
0.000125443
-3.45295e-06
4.95623e-06
-4.13753e-06
0.000153699
2.98743e-06
-4.95623e-06
0.000172437
-9.18203e-14
-5.34154e-06
0.000181642
-2.98743e-06
-5.34154e-06
0.000181642
-4.95623e-06
-4.95623e-06
0.000172437
-5.10333e-06
-4.13753e-06
0.000153699
-2.93654e-06
0.000125443
-3.45295e-06
4.20871e-06
-2.98521e-06
0.000109321
-2.85467e-06
4.13753e-06
-4.20871e-06
0.000135674
2.52404e-06
-5.10333e-06
0.000153699
-1.25054e-13
-5.56796e-06
0.0001628
-2.52404e-06
-5.56796e-06
0.0001628
-4.13753e-06
-5.10333e-06
0.000153699
-4.20871e-06
-4.20871e-06
0.000135674
-2.98521e-06
0.000109321
-2.85467e-06
2.98521e-06
8.73785e-05
-2.11152e-06
-2.11152e-06
2.93654e-06
0.000109321
-2.85467e-06
1.80601e-06
0.000125443
-3.45295e-06
-1.3899e-13
0.000133927
-3.79171e-06
-1.80601e-06
0.000133927
-3.79171e-06
-2.93654e-06
0.000125443
-3.45295e-06
-2.98521e-06
0.000109321
-2.85467e-06
8.73785e-05
-2.11152e-06
-2.11152e-06
1.75855e-06
1.75855e-06
8.68359e-05
-1.48727e-06
-1.48727e-06
1.58507e-06
2.31764e-06
0.000109058
-1.88066e-06
9.44341e-07
2.7317e-06
0.000125519
-2.1672e-06
2.97046e-13
2.94525e-06
0.000134245
-2.31887e-06
-9.44341e-07
2.94525e-06
0.000134245
-2.31887e-06
-1.58507e-06
2.7317e-06
0.000125519
-2.1672e-06
-1.75855e-06
2.31764e-06
0.000109058
-1.88066e-06
1.75855e-06
8.68359e-05
-1.48727e-06
-1.48727e-06
2.31763e-06
1.58508e-06
0.000109058
-1.88066e-06
2.13338e-06
2.13339e-06
0.000136043
1.27625e-06
2.52942e-06
0.000154759
2.37575e-13
2.71285e-06
0.000164309
-1.27625e-06
2.71285e-06
0.000164309
-2.13338e-06
2.52941e-06
0.000154759
-2.31764e-06
2.13339e-06
0.000136043
1.58507e-06
0.000109058
-1.88066e-06
2.7317e-06
9.44342e-07
0.000125519
-2.1672e-06
2.52941e-06
1.27625e-06
0.000154759
1.50567e-06
1.50567e-06
0.000174485
1.43224e-13
1.58998e-06
0.00018427
-1.50567e-06
1.58998e-06
0.00018427
-2.52941e-06
1.50567e-06
0.000174485
-2.7317e-06
1.27625e-06
0.000154759
9.44342e-07
0.000125519
-2.1672e-06
2.94525e-06
1.14837e-12
0.000134245
-2.31887e-06
2.71285e-06
1.23602e-12
0.000164309
1.58997e-06
1.06105e-12
0.00018427
7.62948e-14
9.02216e-13
0.000193828
-1.58997e-06
8.63931e-13
0.000193828
-2.71285e-06
9.44643e-13
0.00018427
-2.94525e-06
1.06237e-12
0.000164309
9.64394e-13
0.000134245
-2.31887e-06
2.94525e-06
-9.4434e-07
0.000134245
-2.31887e-06
2.71285e-06
-1.27624e-06
0.000164309
1.58997e-06
-1.50567e-06
0.00018427
3.92455e-14
-1.58997e-06
0.000193828
-1.58997e-06
-1.58997e-06
0.000193828
-2.71285e-06
-1.50567e-06
0.00018427
-2.94525e-06
-1.27624e-06
0.000164309
-9.4434e-07
0.000134245
-2.31887e-06
2.7317e-06
-1.58507e-06
0.000125519
-2.1672e-06
2.52941e-06
-2.13338e-06
0.000154759
1.50567e-06
-2.52941e-06
0.000174485
1.34373e-14
-2.71285e-06
0.00018427
-1.50567e-06
-2.71285e-06
0.00018427
-2.52941e-06
-2.52941e-06
0.000174485
-2.7317e-06
-2.13338e-06
0.000154759
-1.58507e-06
0.000125519
-2.1672e-06
2.31763e-06
-1.75855e-06
0.000109058
-1.88066e-06
2.13338e-06
-2.31763e-06
0.000136043
1.27625e-06
-2.73169e-06
0.000154759
-1.13882e-14
-2.94525e-06
0.000164309
-1.27625e-06
-2.94525e-06
0.000164309
-2.13338e-06
-2.7317e-06
0.000154759
-2.31763e-06
-2.31763e-06
0.000136043
-1.75855e-06
0.000109058
-1.88066e-06
1.75855e-06
8.68359e-05
-1.48727e-06
-1.48727e-06
1.58507e-06
0.000109058
-1.88066e-06
9.44341e-07
0.000125519
-2.1672e-06
-3.16631e-14
0.000134245
-2.31887e-06
-9.44341e-07
0.000134245
-2.31887e-06
-1.58507e-06
0.000125519
-2.1672e-06
-1.75855e-06
0.000109058
-1.88066e-06
8.68359e-05
-1.48727e-06
-1.48727e-06
6.09094e-07
6.09094e-07
8.65409e-05
-4.61558e-07
-4.61558e-07
5.88221e-07
8.41815e-07
0.000108839
-6.01562e-07
3.62056e-07
1.02624e-06
0.000125434
-7.14691e-07
7.88943e-16
1.12581e-06
0.00013426
-7.78511e-07
-3.62056e-07
1.12581e-06
0.00013426
-7.78511e-07
-5.88221e-07
1.02624e-06
0.000125434
-7.14691e-07
-6.09094e-07
8.41815e-07
0.000108839
-6.01562e-07
6.09094e-07
8.65409e-05
-4.61559e-07
-4.61558e-07
8.41814e-07
5.88222e-07
0.000108839
-6.01562e-07
8.30744e-07
8.30745e-07
0.000136065
5.13706e-07
1.01887e-06
0.000155083
-2.06569e-14
1.11174e-06
0.000164837
-5.13707e-07
1.11174e-06
0.000164837
-8.30744e-07
1.01887e-06
0.000155083
-8.41814e-07
8.30745e-07
0.000136065
5.88222e-07
0.000108839
-6.01563e-07
1.02624e-06
3.62057e-07
0.000125434
-7.1469e-07
1.01887e-06
5.13708e-07
0.000155083
6.28552e-07
6.28553e-07
0.000175266
-5.25135e-14
6.77036e-07
0.000185334
-6.28552e-07
6.77036e-07
0.000185334
-1.01887e-06
6.28553e-07
0.000175266
-1.02624e-06
5.13708e-07
0.000155083
3.62057e-07
0.000125434
-7.14691e-07
1.12581e-06
1.19674e-12
0.00013426
-7.7851e-07
1.11173e-06
1.34464e-12
0.000164837
6.77035e-07
1.20689e-12
0.000185334
-7.26602e-14
1.0699e-12
0.000195182
-6.77035e-07
1.05361e-12
0.000195182
-1.11173e-06
1.17052e-12
0.000185334
-1.12581e-06
1.31722e-12
0.000164837
1.21473e-12
0.00013426
-7.78511e-07
1.12581e-06
-3.62055e-07
0.00013426
-7.7851e-07
1.11173e-06
-5.13705e-07
0.000164837
6.77035e-07
-6.28551e-07
0.000185334
-8.82873e-14
-6.77034e-07
0.000195182
-6.77035e-07
-6.77034e-07
0.000195182
-1.11173e-06
-6.28551e-07
0.000185334
-1.12581e-06
-5.13705e-07
0.000164837
-3.62055e-07
0.00013426
-7.78511e-07
1.02624e-06
-5.8822e-07
0.000125434
-7.1469e-07
1.01887e-06
-8.30743e-07
0.000155083
6.28552e-07
-1.01887e-06
0.000175266
-1.02962e-13
-1.11173e-06
0.000185334
-6.28552e-07
-1.11173e-06
0.000185334
-1.01887e-06
-1.01887e-06
0.000175266
-1.02624e-06
-8.30743e-07
0.000155083
-5.8822e-07
0.000125434
-7.14691e-07
8.41814e-07
-6.09093e-07
0.000108839
-6.01562e-07
8.30744e-07
-8.41813e-07
0.000136065
5.13706e-07
-1.02624e-06
0.000155083
-1.22302e-13
-1.12581e-06
0.000164837
-5.13707e-07
-1.12581e-06
0.000164837
-8.30744e-07
-1.02624e-06
0.000155083
-8.41814e-07
-8.41813e-07
0.000136065
-6.09093e-07
0.000108839
-6.01562e-07
6.09094e-07
8.65409e-05
-4.61558e-07
-4.61558e-07
5.88221e-07
0.000108839
-6.01561e-07
3.62056e-07
0.000125434
-7.1469e-07
-1.29275e-13
0.00013426
-7.7851e-07
-3.62056e-07
0.00013426
-7.7851e-07
-5.88221e-07
0.000125434
-7.1469e-07
-6.09094e-07
0.000108839
-6.01562e-07
8.65409e-05
-4.61558e-07
-4.61558e-07
3.37042e-07
3.37043e-07
8.64326e-05
-2.8288e-07
-2.8288e-07
3.05727e-07
4.42555e-07
0.000108783
-3.5584e-07
1.8277e-07
5.24016e-07
0.000125443
-4.10568e-07
2.51771e-13
5.67997e-07
0.000134315
-4.40394e-07
-1.8277e-07
5.67997e-07
0.000134315
-4.40394e-07
-3.05727e-07
5.24016e-07
0.000125443
-4.10568e-07
-3.37042e-07
4.42555e-07
0.000108783
-3.5584e-07
3.37042e-07
8.64326e-05
-2.8288e-07
-2.8288e-07
4.42554e-07
3.05729e-07
0.000108783
-3.55839e-07
4.11361e-07
4.11362e-07
0.000136127
2.48164e-07
4.93894e-07
0.000155277
2.02192e-13
5.35806e-07
0.000165117
-2.48163e-07
5.35806e-07
0.000165117
-4.11361e-07
4.93894e-07
0.000155277
-4.42554e-07
4.11362e-07
0.000136127
3.05728e-07
0.000108783
-3.55841e-07
5.24014e-07
1.82772e-07
0.000125443
-4.10567e-07
4.93893e-07
2.48165e-07
0.000155277
2.99349e-07
2.9935e-07
0.000175655
1.14999e-13
3.22832e-07
0.000185846
-2.99349e-07
3.22832e-07
0.000185846
-4.93893e-07
2.9935e-07
0.000175655
-5.24015e-07
2.48165e-07
0.000155277
1.82772e-07
0.000125443
-4.10568e-07
5.67995e-07
1.73309e-12
0.000134315
-4.40393e-07
5.35805e-07
1.86317e-12
0.000165117
3.22831e-07
1.63145e-12
0.000185846
5.36546e-14
1.41678e-12
0.000195828
-3.22831e-07
1.37192e-12
0.000195828
-5.35805e-07
1.50851e-12
0.000185846
-5.67996e-07
1.66419e-12
0.000165117
1.51628e-12
0.000134315
-4.40394e-07
5.67995e-07
-1.82769e-07
0.000134315
-4.40393e-07
5.35805e-07
-2.48162e-07
0.000165117
3.22831e-07
-2.99347e-07
0.000185846
1.20951e-14
-3.22829e-07
0.000195828
-3.22831e-07
-3.22829e-07
0.000195828
-5.35805e-07
-2.99347e-07
0.000185846
-5.67996e-07
-2.48162e-07
0.000165117
-1.82769e-07
0.000134315
-4.40394e-07
5.24015e-07
-3.05726e-07
0.000125443
-4.10567e-07
4.93893e-07
-4.11359e-07
0.000155277
2.99349e-07
-4.93891e-07
0.000175655
-1.85087e-14
-5.35803e-07
0.000185846
-2.99349e-07
-5.35803e-07
0.000185846
-4.93893e-07
-4.93891e-07
0.000175655
-5.24015e-07
-4.11359e-07
0.000155277
-3.05726e-07
0.000125443
-4.10568e-07
4.42554e-07
-3.3704e-07
0.000108783
-3.55839e-07
4.11361e-07
-4.42552e-07
0.000136127
2.48164e-07
-5.24013e-07
0.000155277
-5.86459e-14
-5.67994e-07
0.000165117
-2.48164e-07
-5.67994e-07
0.000165117
-4.11361e-07
-5.24013e-07
0.000155277
-4.42554e-07
-4.42552e-07
0.000136127
-3.3704e-07
0.000108783
-3.5584e-07
3.37041e-07
8.64326e-05
-2.8288e-07
-2.82879e-07
3.05727e-07
0.000108783
-3.55839e-07
1.8277e-07
0.000125443
-4.10566e-07
-7.61057e-14
0.000134315
-4.40393e-07
-1.8277e-07
0.000134315
-4.40393e-07
-3.05727e-07
0.000125443
-4.10567e-07
-3.37041e-07
0.000108783
-3.55839e-07
8.64326e-05
-2.8288e-07
-2.8288e-07
1.51348e-07
1.51349e-07
8.63735e-05
-1.21836e-07
-1.21836e-07
1.40339e-07
2.02145e-07
0.000108747
-1.55426e-07
8.45677e-08
2.41371e-07
0.000125439
-1.81513e-07
-9.43598e-14
2.62704e-07
0.000134333
-1.96084e-07
-8.45679e-08
2.62704e-07
0.000134333
-1.96084e-07
-1.40339e-07
2.41371e-07
0.000125439
-1.81513e-07
-1.51348e-07
2.02145e-07
0.000108747
-1.55426e-07
1.5135e-07
8.63735e-05
-1.21837e-07
-1.21836e-07
2.02143e-07
1.40341e-07
0.000108747
-1.55425e-07
1.91011e-07
1.91013e-07
0.00013615
1.15755e-07
2.30229e-07
0.000155363
-8.04666e-14
2.5041e-07
0.000165245
-1.15755e-07
2.5041e-07
0.000165245
-1.91011e-07
2.30229e-07
0.000155363
-2.02144e-07
1.91013e-07
0.00013615
1.40341e-07
0.000108747
-1.55427e-07
2.41369e-07
8.45696e-08
0.000125439
-1.81511e-07
2.30227e-07
1.15757e-07
0.000155363
1.40054e-07
1.40055e-07
0.000175835
-8.39542e-14
1.51654e-07
0.000186085
-1.40054e-07
1.51654e-07
0.000186085
-2.30228e-07
1.40055e-07
0.000175835
-2.41369e-07
1.15757e-07
0.000155363
8.45697e-08
0.000125439
-1.81512e-07
2.62702e-07
1.64354e-12
0.000134333
-1.96083e-07
2.50409e-07
1.83759e-12
0.000165245
1.51653e-07
1.66164e-12
0.000186085
-8.41561e-14
1.48928e-12
0.000196131
-1.51653e-07
1.47543e-12
0.000196131
-2.50409e-07
1.64847e-12
0.000186085
-2.62702e-07
1.83676e-12
0.000165245
1.69858e-12
0.000134333
-1.96084e-07
2.62702e-07
-8.45664e-08
0.000134333
-1.96083e-07
2.50409e-07
-1.15754e-07
0.000165245
1.51653e-07
-1.40052e-07
0.000186085
-9.68533e-14
-1.51651e-07
0.000196131
-1.51653e-07
-1.51651e-07
0.000196131
-2.50409e-07
-1.40052e-07
0.000186085
-2.62702e-07
-1.15754e-07
0.000165245
-8.45664e-08
0.000134333
-1.96084e-07
2.41369e-07
-1.40338e-07
0.000125439
-1.81511e-07
2.30227e-07
-1.9101e-07
0.000155363
1.40054e-07
-2.30226e-07
0.000175835
-1.08382e-13
-2.50407e-07
0.000186085
-1.40054e-07
-2.50407e-07
0.000186085
-2.30228e-07
-2.30226e-07
0.000175835
-2.41369e-07
-1.9101e-07
0.000155363
-1.40338e-07
0.000125439
-1.81512e-07
2.02143e-07
-1.51347e-07
0.000108747
-1.55425e-07
1.91011e-07
-2.02142e-07
0.00013615
1.15755e-07
-2.41368e-07
0.000155363
-1.37479e-13
-2.62701e-07
0.000165245
-1.15756e-07
-2.62701e-07
0.000165245
-1.91011e-07
-2.41368e-07
0.000155363
-2.02144e-07
-2.02142e-07
0.00013615
-1.51347e-07
0.000108747
-1.55426e-07
1.51348e-07
8.63735e-05
-1.21835e-07
-1.21835e-07
1.40339e-07
0.000108747
-1.55425e-07
8.45679e-08
0.000125439
-1.81511e-07
-1.46615e-13
0.000134333
-1.96083e-07
-8.45682e-08
0.000134333
-1.96083e-07
-1.4034e-07
0.000125439
-1.81511e-07
-1.51348e-07
0.000108747
-1.55425e-07
8.63735e-05
-1.21836e-07
-1.21836e-07
7.90329e-08
7.90343e-08
8.63467e-05
-6.56221e-08
-6.56223e-08
7.18495e-08
1.04053e-07
0.000108733
-8.28792e-08
4.28781e-08
1.23073e-07
0.000125441
-9.59201e-08
6.06329e-13
1.3333e-07
0.000134345
-1.03101e-07
-4.2877e-08
1.3333e-07
0.000134345
-1.03101e-07
-7.18486e-08
1.23073e-07
0.000125441
-9.59197e-08
-7.90323e-08
1.04053e-07
0.000108733
-8.28784e-08
7.90336e-08
8.63467e-05
-6.5622e-08
-6.5622e-08
1.04051e-07
7.18512e-08
0.000108733
-8.28778e-08
9.64208e-08
9.64229e-08
0.000136165
5.78783e-08
1.15181e-07
0.000155409
5.44387e-13
1.24754e-07
0.000165311
-5.78773e-08
1.24754e-07
0.000165311
-9.64201e-08
1.15181e-07
0.000155409
-1.04051e-07
9.64224e-08
0.000136165
7.18506e-08
0.000108733
-8.28786e-08
1.23072e-07
4.28799e-08
0.000125441
-9.59186e-08
1.15179e-07
5.78803e-08
0.000155409
6.94188e-08
6.94206e-08
0.000175927
3.94078e-13
7.49051e-08
0.000186204
-6.94181e-08
7.4905e-08
0.000186204
-1.15179e-07
6.94204e-08
0.000175927
-1.23071e-07
5.78799e-08
0.000155409
4.28793e-08
0.000125441
-9.59195e-08
1.33328e-07
2.22981e-12
0.000134345
-1.031e-07
1.24752e-07
2.37408e-12
0.000165311
7.49035e-08
2.07383e-12
0.000186204
2.77519e-13
1.79533e-12
0.000196281
-7.4903e-08
1.72383e-12
0.000196281
-1.24752e-07
1.85956e-12
0.000186204
-1.33328e-07
2.02375e-12
0.000165311
1.82412e-12
0.000134345
-1.03101e-07
1.33328e-07
-4.28755e-08
0.000134345
-1.031e-07
1.24752e-07
-5.78756e-08
0.000165311
7.49035e-08
-6.94165e-08
0.000186204
2.07502e-13
-7.49015e-08
0.000196281
-7.49031e-08
-7.49016e-08
0.000196281
-1.24752e-07
-6.94167e-08
0.000186204
-1.33328e-07
-5.78759e-08
0.000165311
-4.28758e-08
0.000134345
-1.03101e-07
1.23072e-07
-7.18472e-08
0.000125441
-9.59186e-08
1.15179e-07
-9.64185e-08
0.000155409
6.94187e-08
-1.15177e-07
0.000175927
1.6717e-13
-1.2475e-07
0.000186204
-6.94184e-08
-1.2475e-07
0.000186204
-1.15179e-07
-1.15177e-07
0.000175927
-1.23072e-07
-9.64187e-08
0.000155409
-7.18473e-08
0.000125441
-9.59195e-08
1.04051e-07
-7.90311e-08
0.000108733
-8.28775e-08
9.64207e-08
-1.04049e-07
0.000136165
5.7878e-08
-1.2307e-07
0.000155409
1.31895e-13
-1.33327e-07
0.000165311
-5.78778e-08
-1.33327e-07
0.000165311
-9.64206e-08
-1.2307e-07
0.000155409
-1.04051e-07
-1.0405e-07
0.000136165
-7.90311e-08
0.000108733
-8.28782e-08
7.90324e-08
8.63467e-05
-6.56213e-08
-6.56208e-08
7.18491e-08
0.000108733
-8.2877e-08
4.28777e-08
0.000125441
-9.5918e-08
8.66405e-14
0.000134345
-1.03099e-07
-4.28776e-08
0.000134345
-1.03099e-07
-7.1849e-08
0.000125441
-9.59183e-08
-7.90322e-08
0.000108733
-8.28774e-08
8.63467e-05
-6.56211e-08
-6.56215e-08
3.80805e-08
3.80822e-08
8.63326e-05
-3.10246e-08
-3.10243e-08
3.50231e-08
5.06163e-08
0.000108725
-3.94621e-08
2.10079e-08
6.01983e-08
0.000125441
-4.59519e-08
3.28937e-13
6.53707e-08
0.00013435
-4.95573e-08
-2.10073e-08
6.53706e-08
0.00013435
-4.95572e-08
-3.50227e-08
6.01981e-08
0.000125441
-4.59516e-08
-3.80803e-08
5.0616e-08
0.000108725
-3.94616e-08
3.80818e-08
8.63326e-05
-3.10247e-08
-3.10242e-08
5.06141e-08
3.50252e-08
0.000108725
-3.94604e-08
4.73935e-08
4.73959e-08
0.000136171
2.85615e-08
5.68263e-08
0.000155432
2.96409e-13
6.16249e-08
0.000165344
-2.8561e-08
6.16249e-08
0.000165344
-4.73932e-08
5.68261e-08
0.000155432
-5.06141e-08
4.73956e-08
0.000136171
3.5025e-08
0.000108725
-3.94612e-08
6.0196e-08
2.10099e-08
0.000125441
-4.59497e-08
5.68241e-08
2.85637e-08
0.000155432
3.43452e-08
3.43473e-08
0.000175971
1.90094e-13
3.70867e-08
0.000186263
-3.43449e-08
3.70867e-08
0.000186263
-5.68239e-08
3.43471e-08
0.000175971
-6.01961e-08
2.85635e-08
0.000155432
2.10097e-08
0.000125441
-4.59505e-08
6.53685e-08
2.01825e-12
0.00013435
-4.95551e-08
6.16229e-08
2.21375e-12
0.000165344
3.70849e-08
1.97578e-12
0.000186263
1.16989e-13
1.7468e-12
0.000196355
-3.70847e-08
1.69995e-12
0.000196355
-6.16228e-08
1.85676e-12
0.000186263
-6.53686e-08
2.03279e-12
0.000165344
1.85754e-12
0.00013435
-4.95558e-08
6.53686e-08
-2.10059e-08
0.00013435
-4.95552e-08
6.1623e-08
-2.85593e-08
0.000165344
3.70849e-08
-3.43433e-08
0.000186263
7.07864e-14
-3.70832e-08
0.000196355
-3.70848e-08
-3.70833e-08
0.000196355
-6.16229e-08
-3.43435e-08
0.000186263
-6.53686e-08
-2.85595e-08
0.000165344
-2.10061e-08
0.00013435
-4.95558e-08
6.01963e-08
-3.50216e-08
0.000125441
-4.595e-08
5.68243e-08
-4.73918e-08
0.000155432
3.43453e-08
-5.68225e-08
0.000175971
5.01438e-14
-6.16214e-08
0.000186263
-3.43452e-08
-6.16215e-08
0.000186263
-5.68242e-08
-5.68227e-08
0.000175971
-6.01962e-08
-4.7392e-08
0.000155432
-3.50217e-08
0.000125441
-4.59504e-08
5.06143e-08
-3.80792e-08
0.000108725
-3.94604e-08
4.73937e-08
-5.06127e-08
0.000136171
2.85615e-08
-6.01949e-08
0.000155432
3.27069e-14
-6.53674e-08
0.000165344
-2.85614e-08
-6.53674e-08
0.000165344
-4.73936e-08
-6.01951e-08
0.000155432
-5.06142e-08
-5.0613e-08
0.000136171
-3.80795e-08
0.000108725
-3.94607e-08
3.80804e-08
8.63326e-05
-3.10235e-08
-3.10234e-08
3.50232e-08
0.000108725
-3.94598e-08
2.10078e-08
0.000125441
-4.59495e-08
7.97898e-16
0.00013435
-4.95549e-08
-2.10078e-08
0.00013435
-4.9555e-08
-3.50232e-08
0.000125441
-4.59497e-08
-3.80803e-08
0.000108725
-3.94602e-08
8.63326e-05
-3.10238e-08
-3.10237e-08
1.96294e-08
1.9631e-08
8.63257e-05
-1.61659e-08
-1.61659e-08
1.79428e-08
2.59689e-08
0.000108722
-2.04873e-08
1.07362e-08
3.08011e-08
0.000125441
-2.37788e-08
9.5887e-13
3.34038e-08
0.000134353
-2.55966e-08
-1.07344e-08
3.34035e-08
0.000134353
-2.55963e-08
-1.79413e-08
3.08004e-08
0.000125441
-2.3778e-08
-1.96284e-08
2.59678e-08
0.000108722
-2.04861e-08
1.96298e-08
8.63257e-05
-1.61654e-08
-1.61653e-08
2.59667e-08
1.79447e-08
0.000108722
-2.04856e-08
2.41867e-08
2.41889e-08
0.000136175
1.45477e-08
2.89463e-08
0.000155443
8.15498e-13
3.13602e-08
0.00016536
-1.45462e-08
3.136e-08
0.00016536
-2.41855e-08
2.89458e-08
0.000155443
-2.5966e-08
2.4188e-08
0.000136175
1.79437e-08
0.000108722
-2.0486e-08
3.0799e-08
1.0738e-08
0.000125441
-2.37769e-08
2.89442e-08
1.45497e-08
0.000155443
1.74636e-08
1.74654e-08
0.000175994
5.55786e-13
1.884e-08
0.000186293
-1.74625e-08
1.88399e-08
0.000186293
-2.89435e-08
1.7465e-08
0.000175994
-3.07986e-08
1.4549e-08
0.000155443
1.07371e-08
0.000125441
-2.37775e-08
3.34018e-08
2.49618e-12
0.000134353
-2.55948e-08
3.13584e-08
2.58502e-12
0.00016536
1.88383e-08
2.19917e-12
0.000186293
3.66958e-13
1.85619e-12
0.000196393
-1.88377e-08
1.74435e-12
0.000196393
-3.13579e-08
1.85773e-12
0.000186293
-3.34016e-08
1.99563e-12
0.00016536
1.78319e-12
0.000134353
-2.55955e-08
3.34018e-08
-1.07331e-08
0.000134353
-2.55947e-08
3.13583e-08
-1.45447e-08
0.00016536
1.88383e-08
-1.7461e-08
0.000186293
2.55772e-13
-1.88362e-08
0.000196393
-1.88378e-08
-1.88363e-08
0.000196393
-3.1358e-08
-1.74613e-08
0.000186293
-3.34017e-08
-1.45451e-08
0.00016536
-1.07336e-08
0.000134353
-2.55956e-08
3.07989e-08
-1.79402e-08
0.000125441
-2.37767e-08
2.89441e-08
-2.41841e-08
0.000155443
1.74633e-08
-2.8942e-08
0.000175994
1.95487e-13
-3.13565e-08
0.000186293
-1.7463e-08
-3.13565e-08
0.000186293
-2.89439e-08
-2.89423e-08
0.000175994
-3.07988e-08
-2.41844e-08
0.000155443
-1.79404e-08
0.000125441
-2.37776e-08
2.59663e-08
-1.96273e-08
0.000108722
-2.0485e-08
2.41863e-08
-2.59646e-08
0.000136175
1.45472e-08
-3.07972e-08
0.000155443
1.42555e-13
-3.34002e-08
0.00016536
-1.4547e-08
-3.34003e-08
0.00016536
-2.41862e-08
-3.07974e-08
0.000155443
-2.59662e-08
-2.59649e-08
0.000136175
-1.96274e-08
0.000108722
-2.04857e-08
1.96286e-08
8.63257e-05
-1.61646e-08
-1.61641e-08
1.79422e-08
0.000108722
-2.04845e-08
1.07355e-08
0.000125441
-2.37761e-08
8.74225e-14
0.000134353
-2.55942e-08
-1.07354e-08
0.000134353
-2.55942e-08
-1.79421e-08
0.000125441
-2.37764e-08
-1.96284e-08
0.000108722
-2.04849e-08
8.63257e-05
-1.61645e-08
-1.61648e-08
9.7738e-09
9.77503e-09
8.63221e-05
-7.98442e-09
-7.98412e-09
8.98172e-09
1.29823e-08
0.00010872
-1.01451e-08
5.38856e-09
1.54374e-08
0.000125441
-1.18028e-08
-2.80891e-14
1.67627e-08
0.000134355
-1.27218e-08
-5.3886e-09
1.67627e-08
0.000134355
-1.27217e-08
-8.98184e-09
1.54373e-08
0.000125441
-1.18027e-08
-9.774e-09
1.29822e-08
0.00010872
-1.0145e-08
9.77505e-09
8.63221e-05
-7.98476e-09
-7.98426e-09
1.29806e-08
8.98346e-09
0.00010872
-1.0144e-08
1.2156e-08
1.2158e-08
0.000136177
7.33083e-09
1.45843e-08
0.000155449
-3.68572e-14
1.58184e-08
0.000165369
-7.33095e-09
1.58184e-08
0.000165369
-1.21563e-08
1.45843e-08
0.000155449
-1.2981e-08
1.21579e-08
0.000136177
8.98346e-09
0.00010872
-1.01449e-08
1.54357e-08
5.39034e-09
0.000125441
-1.18013e-08
1.45825e-08
7.33277e-09
0.000155449
8.82131e-09
8.82306e-09
0.000176006
-8.20935e-14
9.52802e-09
0.000186308
-8.82149e-09
9.52801e-09
0.000186308
-1.45828e-08
8.823e-09
0.000176006