/*--------------------------------*- C++ -*----------------------------------*\
| =========                 |                                                 |
| \\      /  F ield         | OpenFOAM: The Open Source CFD Toolbox           |
|  \\    /   O peration     | Version:  2406                                  |
|   \\  /    A nd           | Website:  www.openfoam.com                      |
|    \\/     M anipulation  |                                                 |
\*---------------------------------------------------------------------------*/
FoamFile
{
    version     2.0;
    format      ascii;
    arch        "LSB;label=32;scalar=64";
    class       volScalarField;
    location    "300";
    object      div(phi);
}
// * * * * * * * * * * * * * * * * * * * * * * * * * * * * * * * * * * * * * //

dimensions      [0 0 -1 0 0 0 0];

internalField   nonuniform List<scalar> 
25000
(
0.589973
-0.0179602
-0.0102935
-0.00627463
-0.00297897
-0.0019915
-0.00123427
-0.000598459
-0.000818297
-0.000961337
-0.0035139
-0.00174411
-0.00387585
-0.00314166
-0.00301616
-0.00133051
-0.00113952
-0.000910189
-0.000467312
-0.000963636
0.00494706
0.000116562
-0.00319978
-0.00269868
-0.00209619
-0.00177704
-0.00102899
-0.000729435
-0.00084005
-0.000744439
0.000295571
-0.000149268
-0.000400474
-0.00193626
-0.00186583
-0.00120904
-0.00108038
-0.000889431
-0.000505386
-0.000790095
0.00288948
0.00155202
-0.00106479
-0.000982771
-0.00115249
-0.00119052
-0.000782251
-0.000600199
-0.000744726
-0.000643366
0.000619376
0.000296639
0.000647457
-0.000734722
-0.000693647
-0.000666622
-0.000611506
-0.000631606
-0.000358368
-0.00069422
0.00152901
0.0015819
-2.23119e-05
0.000337963
-0.000314429
-0.000181425
-0.000161615
-0.000152416
-0.00041381
-0.000487273
0.000656069
0.000835791
0.00101435
0.000286206
0.000244836
0.000238946
-5.12336e-06
3.34511e-05
-0.000107061
-0.000445272
0.00124571
0.000961776
0.000839415
0.00014135
0.000374593
-0.000129459
0.000362467
-4.85768e-05
-4.02388e-05
-0.000344085
0.000309604
-3.4447e-06
-0.000370229
-0.000282948
-0.000547481
-0.000228915
-0.000338614
-0.000207619
-0.000219195
-0.000543519
0.00679254
0.00224421
0.000411191
-0.000172345
0.000222538
-9.57817e-05
-2.19267e-05
0.000328676
-0.000380482
-5.48314e-05
0.0041533
0.0015557
0.000169108
0.000124734
-0.000730727
6.08362e-05
-0.000244006
-0.000355257
0.00014128
-0.000320191
0.00528614
0.00196063
2.59897e-05
-4.64337e-05
-0.000130998
-0.000466721
-0.00012319
5.47864e-05
-0.000300967
-5.40622e-05
0.00244544
0.00125762
0.0013411
8.51814e-05
-0.000260883
-2.63439e-05
-0.000194996
-0.000187933
0.000112364
-0.000117063
0.00350105
0.00216781
0.000464064
0.000439139
9.56554e-05
-0.000205343
-9.65418e-06
5.77809e-05
-8.4537e-05
-4.8902e-05
0.00184542
0.00112163
0.0014533
0.000336543
0.00024571
0.000113594
5.07777e-05
3.21555e-05
0.000115231
-4.0116e-05
0.00234642
0.00187065
0.00071769
0.00100334
0.000374865
0.000414089
0.000349741
0.000260766
0.000172886
1.22622e-05
0.0014149
0.00128987
0.00133779
0.000794272
0.00073674
0.000618842
0.000419065
0.000441323
0.000193505
0.000157333
0.00181814
0.000994175
0.00115724
0.000541341
0.000719063
0.000343853
0.000602686
0.000262349
0.000274766
5.70914e-06
0.000999184
0.000437416
0.000137252
0.000160839
-6.02629e-05
0.000136332
8.37613e-05
0.000221531
4.67987e-05
0.000192342
-0.00191654
-0.00140003
-0.00117521
-0.000938897
-0.000599158
-0.000335976
-0.00035413
0.000200316
-0.000347784
-0.000380313
-0.00138859
-0.000928062
-0.0010501
-0.000643942
-0.000740423
-0.000225488
-9.06151e-05
-0.000133135
0.000207011
-0.000561462
-0.000287381
-0.000516392
-0.000762154
-0.000635954
-0.000428267
-0.000351979
-7.60718e-05
0.000145758
-8.66023e-05
-0.00029848
-0.000322177
-0.00040055
-0.000270842
-0.000450162
-0.0004076
-0.000126832
-3.29619e-05
-1.1604e-05
0.000197954
-0.000358002
0.000172234
8.93288e-05
-0.000347349
-0.000236573
-0.00019155
-0.000189051
9.99148e-05
0.000192465
3.18473e-05
-0.000293432
0.000121356
-6.79065e-05
0.000116416
-0.000186451
-4.45533e-05
9.04949e-05
0.000163333
0.000166305
0.000255726
-0.00031941
0.000529723
0.000387015
1.26591e-05
0.000309622
0.000169479
0.00030186
0.000501332
0.00043429
0.000272751
-0.000190561
0.000494177
0.00041564
0.000445705
0.000386689
0.000425155
0.000670463
0.000508072
0.000603645
0.000394492
-5.9142e-05
0.000836239
0.00033886
0.000661555
0.00028098
0.000666478
0.000322396
0.000805379
0.000432159
0.000491306
-0.000143592
0.000629051
0.000109539
5.29241e-05
9.64672e-05
-0.000111576
0.00013249
4.30458e-05
0.000127942
-8.31768e-06
-0.000245165
0.00294535
0.00216276
0.00171463
0.00162313
0.00147998
0.00149751
0.00131969
0.00208195
0.00189584
0.00135668
0.00181988
0.00149594
0.00124192
0.00120007
0.000741304
0.00115168
0.00121894
0.00110189
0.00179323
0.000396516
0.00193839
0.00156507
0.000917947
0.000946393
0.000918013
0.000711767
0.00108554
0.00136649
0.000939352
0.000366603
0.00132376
0.000982656
0.00129885
0.00081648
0.000638523
0.000936994
0.000901962
0.000866444
0.00136057
0.00014757
0.00164288
0.00143451
0.000681575
0.000832981
0.000789868
0.000542786
0.00104271
0.00119113
0.000799873
0.000282676
0.00117867
0.000778491
0.00123554
0.000760241
0.000755982
0.00104071
0.000985271
0.000966414
0.00128207
0.000121959
0.0016397
0.00159342
0.00101128
0.00136407
0.00120978
0.00113307
0.00155613
0.00151927
0.00113808
0.000392009
0.00151384
0.00149458
0.00169191
0.00147249
0.00138776
0.00172442
0.00154127
0.0015946
0.00161389
0.000417698
0.00244293
0.00180684
0.00177664
0.00129585
0.00152439
0.00118978
0.0018156
0.00164725
0.00167214
0.00089041
0.00167367
0.00077072
0.000393135
0.000374553
0.000211674
0.000560734
0.00070757
0.000837779
0.00138354
0.000333535
0.0021281
0.00219766
0.00164844
0.0016554
0.00140932
0.0017061
0.00131042
0.00227242
0.00224464
0.000642717
0.00106086
0.00132783
0.00118055
0.00108205
0.000622368
0.00108984
0.0012891
0.0011774
0.00188501
-0.000116602
0.00098626
0.00141281
0.000841995
0.000878509
0.000865748
0.000695939
0.00116306
0.00143632
0.000904444
-0.000249147
0.000586391
0.000819118
0.00123637
0.000778517
0.000614578
0.000977635
0.000970586
0.000894634
0.00134924
-0.000461204
0.000898789
0.0013189
0.00061225
0.000817543
0.000811424
0.000546407
0.00117952
0.00126001
0.000686628
-0.000249817
0.000553705
0.000638501
0.00124261
0.000794404
0.000787888
0.00118246
0.00109971
0.00101899
0.00129867
-0.000433494
0.00110244
0.00168723
0.00108367
0.00150113
0.00137459
0.00126136
0.00185053
0.00169067
0.00111865
-3.23701e-05
0.00124976
0.00155867
0.00193625
0.00164868
0.001532
0.00203786
0.00171516
0.00183199
0.00178739
-9.20807e-05
0.00241389
0.00221634
0.00193935
0.00145587
0.00171235
0.00123069
0.00217413
0.0018247
0.00184965
0.000833167
0.00145724
0.000918087
0.0003327
0.000341709
0.000124503
0.00058932
0.00067095
0.000773368
0.00163432
-0.000333749
0.00115017
0.00151493
0.00108962
0.00117806
0.000905799
0.00121302
0.000742927
0.00165066
0.00138533
1.27675e-06
0.000331677
0.000766868
0.000714273
0.000613
0.000225088
0.000670598
0.000840727
0.000714887
0.00133874
-0.000501492
0.000414124
0.00100238
0.000525313
0.00054225
0.000555063
0.000406084
0.000820709
0.00106175
0.000518433
-0.000512075
0.000244823
0.000570535
0.000924748
0.000556344
0.000413086
0.000744115
0.000723604
0.000609297
0.000976923
-0.000671435
0.00047872
0.00103612
0.000478525
0.000634036
0.000640243
0.000397752
0.000939942
0.000978371
0.000390206
-0.000453876
0.000329464
0.000498087
0.00100667
0.000648304
0.000635877
0.000981905
0.00088522
0.000752007
0.000968602
-0.000618461
0.000707836
0.00137739
0.000889234
0.00124308
0.00113346
0.00102916
0.00153468
0.00135115
0.000771477
-0.00025292
0.000966827
0.0012517
0.00158969
0.00135416
0.00124118
0.00171954
0.00136487
0.0014629
0.00134348
-0.000312986
0.00179017
0.00178492
0.00157118
0.00113869
0.00142168
0.000903735
0.00179775
0.001351
0.00137941
0.000403262
0.00117407
0.000793313
0.000310548
0.000317384
4.52904e-05
0.000450769
0.000395665
0.000459008
0.00106322
-0.000616407
0.0020718
0.00175136
0.00152099
0.00162522
0.00144836
0.00143566
0.001266
0.00178919
0.0016029
0.00135296
0.00128078
0.00118816
0.00132245
0.00105941
0.000756402
0.0010105
0.000966748
0.000874634
0.00152312
0.000636523
0.00117498
0.0013813
0.000921113
0.0010034
0.000962619
0.000700327
0.00101235
0.00125182
0.000854229
0.000655225
0.000788709
0.000836996
0.00124038
0.000924995
0.00076596
0.00100553
0.000902304
0.000858003
0.00127845
0.000495267
0.000915999
0.00119258
0.000762761
0.000919198
0.00091991
0.000666401
0.001039
0.0011573
0.000825101
0.000627072
0.000670576
0.000676888
0.00111975
0.00089904
0.000813085
0.00107779
0.000966056
0.000952466
0.00120252
0.000518123
0.000867499
0.00128481
0.00100157
0.00119074
0.00118262
0.00101608
0.00132021
0.0013232
0.00104468
0.000676848
0.000992864
0.00113031
0.00142424
0.0012707
0.00118358
0.00135744
0.00128273
0.00126786
0.00135556
0.000660442
0.00143349
0.00152136
0.00127385
0.00114356
0.00110163
0.00102954
0.00129377
0.0013261
0.00128114
0.000974777
0.00104917
0.000705773
0.000494395
0.000419344
0.000414771
0.000578089
0.000746332
0.000837114
0.00124955
0.00063564
-0.00103099
-0.000184171
-0.000345804
-0.000115265
-0.000216541
5.446e-05
-8.11387e-05
0.000303774
0.000264506
-0.000355008
-0.00131504
-0.000607236
-0.000373102
-0.000380201
-0.000344599
-8.31638e-05
8.04687e-05
0.000129597
0.000324978
-0.000355132
-0.000943855
-0.000253236
-0.0003512
-0.000226
-0.000111273
-5.83863e-05
0.000170307
0.000273593
0.00013093
-0.000308122
-0.000937876
-0.000286906
-4.78692e-05
-8.54828e-05
-4.63146e-05
0.000151388
0.00019438
0.000198423
0.000292188
-0.000306773
-0.000711151
-1.05131e-05
-0.000108712
3.62649e-05
0.000121967
8.84916e-05
0.000335499
0.000343461
0.000136609
-0.000193291
-0.000750035
-0.000149338
0.000153281
0.000139009
0.000158074
0.000364419
0.000335516
0.000304717
0.000358203
-0.000219481
-0.000619824
0.000286779
0.000209677
0.000354978
0.000428039
0.000372869
0.000601059
0.000529409
0.000302464
-6.73879e-05
-0.000308708
0.000205154
0.000522098
0.000467648
0.000442826
0.000651469
0.000537161
0.000570817
0.000518408
-7.81551e-05
-0.000205043
0.000675984
0.000412093
0.000432463
0.000470141
0.000358476
0.000662068
0.000520514
0.000513555
0.000165746
-0.00018758
0.000118567
0.000100754
9.4768e-05
8.10832e-05
0.000214112
0.000201086
0.000198804
0.000386152
-0.000225143
0.00221046
0.00135279
0.00102595
0.0008957
0.000842202
0.000685103
0.000592425
0.00079174
0.000608157
0.000619226
0.00173539
0.000863259
0.000655773
0.000665495
0.000315283
0.00055456
0.000397994
0.000307147
0.000654222
0.000238103
0.00175174
0.000949413
0.000529946
0.00052293
0.000491829
0.000266747
0.000430666
0.000524067
0.000229561
0.000268771
0.00148873
0.000615962
0.000758309
0.000467848
0.000328498
0.000459506
0.000324497
0.000248799
0.000517592
0.000149536
0.00161139
0.000843026
0.000415633
0.000465926
0.000407476
0.000221959
0.000378491
0.00045514
0.00018814
0.000239334
0.00131082
0.000507588
0.000658501
0.000349353
0.000359065
0.000411613
0.000355133
0.000265748
0.000461842
0.000134108
0.00158033
0.00074122
0.000408572
0.000599518
0.000430833
0.000429626
0.000508864
0.000546216
0.000304792
0.000237139
0.0011777
0.000701433
0.000613785
0.000525244
0.00049741
0.000617393
0.000526292
0.000501294
0.000527452
0.000207825
0.00173888
0.000448738
0.000717108
0.000342438
0.000559867
0.000335361
0.000586062
0.000507494
0.000468519
0.000358044
0.0011204
0.000350319
8.17848e-05
0.000141008
3.27845e-06
0.000155132
0.000169904
0.00022512
0.000398516
0.000175238
-0.000976013
-0.000674693
-0.000662141
-0.000658873
-0.000567752
-0.00036059
-0.000459765
-0.000200862
-0.000269063
-0.000756857
-0.000519513
-0.00050328
-0.000699878
-0.000451647
-0.000515564
-0.000296539
-0.000190184
-0.000197786
-0.000171673
-0.000638919
-0.000370728
-0.00047884
-0.000459842
-0.000471522
-0.000369347
-0.000288872
-0.000186598
-0.000157936
-0.00027235
-0.000614261
-0.000179577
-0.000358289
-0.000388184
-0.000384318
-0.000332734
-0.000218852
-0.000167886
-0.000206779
-0.000196113
-0.000614073
-8.47002e-05
-0.000277109
-0.000352004
-0.000307091
-0.000264353
-0.000226536
-0.000117682
-0.000122615
-0.000300266
-0.000539674
-8.04958e-05
-0.0002575
-0.000218351
-0.000317188
-0.000180736
-0.000135913
-7.89586e-05
-0.00015987
-0.000147629
-0.000575836
0.000128966
-0.00014786
-0.000280813
-7.88035e-05
-0.000171399
-3.118e-05
6.95838e-05
-3.77088e-07
-0.000181424
-0.000457401
-1.16203e-05
-7.17257e-05
-0.000116602
-0.000111565
-5.58285e-05
0.000170095
1.19462e-05
0.000119176
-3.38639e-05
-0.00046675
0.000385859
-0.00021196
7.41121e-05
-0.000194679
0.000159185
-0.000156281
0.000295435
-3.09325e-05
3.95637e-05
-0.000294479
6.19959e-05
-0.000101873
-0.000257699
-9.37665e-05
-0.000264459
-5.18449e-05
-0.000201638
-0.000181378
-0.000114219
-0.000593676
0.00131624
0.000738743
0.000704335
0.000647005
0.000655156
0.000537297
0.000526884
0.000548347
0.000529287
0.000668881
0.00111978
0.000660422
0.000546371
0.000567195
0.000382269
0.000468072
0.000360702
0.000332516
0.000456511
0.000412198
0.000981503
0.000580567
0.000419292
0.000434076
0.000409053
0.000294495
0.000353177
0.000377499
0.000291082
0.000405804
0.000738916
0.000357681
0.000465399
0.000344418
0.000288102
0.000332725
0.000267033
0.000264843
0.000377718
0.000349809
0.000758451
0.000418131
0.000252091
0.000304865
0.00027988
0.000209912
0.000268509
0.000312758
0.000266583
0.000363699
0.000546384
0.0002361
0.000340455
0.000214949
0.000238738
0.000242839
0.000242318
0.00025312
0.00032764
0.000336802
0.000654062
0.000317737
0.000188708
0.00029964
0.000216843
0.000251187
0.000273706
0.000308843
0.000304545
0.000339792
0.000416023
0.000279205
0.000263361
0.000227082
0.000253861
0.000269974
0.00027964
0.000312632
0.000326301
0.000355472
0.000658198
0.000151964
0.000289372
0.000164629
0.000239502
0.000209278
0.000281117
0.000297318
0.000326557
0.000345385
0.000380895
0.000119687
3.48396e-05
7.99322e-05
7.29241e-05
0.000147477
0.00021326
0.000288251
0.000368583
0.000415205
-0.00124398
-0.00074889
-0.000758788
-0.000720829
-0.000659775
-0.000455991
-0.000467062
-0.000345815
-0.000254264
-0.000610993
-0.000987835
-0.000701441
-0.000768195
-0.000564942
-0.000491762
-0.00036297
-0.000211329
-0.000142881
-0.000255597
-0.000409971
-0.000785861
-0.00064862
-0.000537019
-0.000520103
-0.000416907
-0.000258337
-0.000212792
-0.000218442
-0.000147386
-0.000412094
-0.000622173
-0.000457241
-0.000500156
-0.000417055
-0.000322716
-0.0002719
-0.000166379
-0.000126851
-0.000228136
-0.000351347
-0.000542896
-0.000431998
-0.000373086
-0.000340625
-0.000291554
-0.000180524
-0.000141636
-0.000166202
-0.000138605
-0.000341883
-0.000486015
-0.000326448
-0.000324151
-0.000306496
-0.000199319
-0.000191972
-0.000101794
-8.23265e-05
-0.000172146
-0.000299728
-0.000401315
-0.000293317
-0.000297065
-0.000205048
-0.000225262
-9.68233e-05
-4.16486e-05
-0.000110628
-7.70644e-05
-0.000273998
-0.000372932
-0.000245019
-0.000226382
-0.000207858
-0.000142043
-2.99837e-05
-9.15595e-05
4.61453e-05
-0.000104461
-0.000235828
-0.000273574
-0.000227779
-0.000141039
-0.000187511
-2.24615e-05
-0.00013967
0.000104126
-9.66836e-05
1.21066e-05
-0.000198371
-0.000293022
-0.000159029
-0.0001583
-6.2571e-05
-0.000103474
6.12334e-06
-6.88805e-05
-4.27263e-05
-3.82816e-05
-0.000279001
0.00149951
0.000738695
0.000637387
0.000504707
0.000540323
0.000386343
0.000342934
0.000372961
0.000278314
0.00039254
0.00138772
0.000637328
0.000373891
0.000467292
0.000205332
0.000342352
0.000207213
0.000141794
0.000283192
0.000170675
0.00129135
0.000556533
0.000316855
0.000285226
0.000260442
0.000126738
0.000184669
0.000209605
6.69254e-05
0.000168296
0.00110795
0.000349306
0.000381063
0.000204996
0.000125264
0.000175524
9.38706e-05
5.68381e-05
0.000188444
9.52852e-05
0.00114534
0.000425517
0.000157325
0.000172603
0.000120854
3.75187e-05
8.73096e-05
0.000132457
3.03417e-05
0.000117285
0.000914784
0.000232248
0.000267499
4.7024e-05
9.76338e-05
6.94759e-05
7.29686e-05
3.68026e-05
0.000131365
6.20169e-05
0.00109617
0.000278777
5.31162e-05
0.000197524
3.9211e-05
0.000113471
0.000116002
0.000143381
7.30894e-05
8.53547e-05
0.00067529
0.000280652
0.000132848
9.39926e-05
0.000117733
0.000172165
0.000128539
0.000154608
0.000138801
8.33761e-05
0.00109618
-5.31213e-05
0.000273998
-2.08526e-05
0.000188588
3.05683e-05
0.000196494
0.000120512
0.000141772
0.000109729
0.000619548
6.44479e-05
-0.000120635
-3.36162e-05
-0.000130402
-1.81162e-05
-1.48317e-05
4.9011e-05
0.000117915
0.000105185
-0.00116589
-0.000791337
-0.00087063
-0.000885069
-0.000786595
-0.000604205
-0.000636085
-0.000468045
-0.000456603
-0.000828053
-0.000878161
-0.000799073
-0.000975665
-0.000676538
-0.000676388
-0.000463396
-0.000333955
-0.000302661
-0.000371195
-0.000627003
-0.000572744
-0.000727411
-0.000687874
-0.000676098
-0.000553873
-0.000410885
-0.000344708
-0.000339674
-0.000345728
-0.000620442
-0.000443948
-0.000538492
-0.000592384
-0.000563546
-0.000477818
-0.00039755
-0.000311322
-0.000305795
-0.000366177
-0.000588632
-0.000299133
-0.000465392
-0.00050803
-0.000469535
-0.00042992
-0.000337114
-0.000281403
-0.000301918
-0.000352676
-0.000560563
-0.00035001
-0.000403424
-0.000394098
-0.000465562
-0.000321736
-0.000321825
-0.000237823
-0.000265088
-0.000316924
-0.000556644
-0.00017706
-0.000342058
-0.000441541
-0.000273926
-0.000360252
-0.000196843
-0.000141725
-0.000219388
-0.000274014
-0.000495171
-0.000332468
-0.000284189
-0.000318266
-0.000311074
-0.00023492
-7.55773e-05
-0.000193868
-6.50018e-05
-0.000234169
-0.00047939
-6.17453e-05
-0.00040101
-0.000154718
-0.000342607
-4.74287e-05
-0.000285349
6.99674e-05
-0.00022061
-0.000121802
-0.000387762
-0.000280804
-0.000269831
-0.000351994
-0.00019615
-0.000311073
-0.000141773
-0.000269153
-0.000244249
-0.000232861
-0.000549238
0.00164061
0.000873362
0.000688962
0.000549895
0.00056473
0.000421283
0.000421461
0.000374241
0.000411322
0.00052202
0.00132908
0.0006289
0.000392043
0.000524189
0.000309684
0.000425711
0.000320368
0.00031108
0.000317441
0.000360979
0.00132834
0.00056373
0.000369451
0.000361997
0.000340378
0.000262679
0.000288562
0.000264221
0.00024503
0.00033744
0.00106417
0.000404272
0.000441694
0.000291422
0.000238239
0.000245525
0.000195922
0.000212157
0.00024536
0.000304748
0.00112689
0.000472712
0.000253145
0.000269919
0.000208097
0.000169039
0.000179676
0.000191701
0.00021649
0.000287549
0.000874834
0.000318623
0.000347504
0.000158436
0.000204829
0.000133591
0.000160937
0.000187981
0.00019698
0.000284491
0.00102856
0.000339974
0.000153621
0.000266297
0.000104096
0.000194725
0.000168693
0.000170812
0.000235695
0.000257388
0.000653642
0.00032501
0.000203946
0.000148598
0.000189373
0.000173832
0.000164446
0.000235915
0.000185774
0.000287861
0.000978533
3.93059e-05
0.000292793
8.15761e-05
0.00020957
0.000125461
0.000218838
0.000165704
0.000231445
0.000238515
0.0006121
0.000157117
2.49066e-05
9.24435e-05
4.37012e-05
0.000124335
0.000151302
0.000234667
0.000271029
0.000353585
-0.00096399
-0.000728224
-0.000677928
-0.000706591
-0.000601788
-0.000424639
-0.000418135
-0.000378156
-0.000232279
-0.000560954
-0.000580311
-0.000459792
-0.000635122
-0.000395851
-0.000337587
-0.000269667
-0.000129205
-6.86401e-05
-0.000289496
-0.000339104
-0.000454269
-0.000543658
-0.000396159
-0.000407758
-0.0003333
-0.000160574
-0.000177127
-0.00023428
-0.000110217
-0.000367417
-0.000351344
-0.000341158
-0.000439505
-0.000353601
-0.000257171
-0.000259591
-0.000151555
-0.00010403
-0.000269342
-0.000300169
-0.000288699
-0.000386605
-0.000318028
-0.000303687
-0.000277263
-0.000147471
-0.00015574
-0.000207677
-0.000124137
-0.000321106
-0.000291691
-0.000261921
-0.00030278
-0.000295241
-0.000180136
-0.000220685
-0.000124037
-9.06497e-05
-0.000221004
-0.000267249
-0.000207195
-0.000291101
-0.000294571
-0.000206984
-0.000257329
-0.000109548
-9.26788e-05
-0.000174022
-9.47508e-05
-0.000265469
-0.000281413
-0.000230631
-0.000253269
-0.000237857
-0.000161664
-8.91334e-05
-0.000143774
-5.30526e-06
-0.000168127
-0.000225703
-0.000170481
-0.000289488
-0.000152143
-0.000212012
-4.88049e-05
-0.000160851
4.68305e-05
-0.00015393
-4.16649e-05
-0.0002137
-0.000241034
-0.000162466
-0.000164602
-5.84365e-05
-0.000100901
-5.13161e-06
-8.62348e-05
-6.42179e-05
-8.54292e-05
-0.000258815
0.001108
0.000553199
0.000537532
0.000438413
0.000459842
0.000341275
0.000341965
0.000270922
0.00029633
0.000427684
0.00102995
0.000558369
0.000386483
0.000442919
0.000296035
0.000321629
0.000226404
0.000206515
0.000210224
0.00029295
0.000889989
0.000419526
0.000318742
0.000297196
0.000261785
0.000190162
0.00018512
0.000164058
0.000142941
0.000270071
0.000731128
0.000283168
0.000292067
0.000205199
0.000162953
0.000154793
0.00010426
0.000101653
0.000154011
0.000223115
0.000722289
0.000274905
0.000152658
0.000157697
0.000117966
7.93429e-05
7.65984e-05
9.93264e-05
9.21888e-05
0.000213487
0.000568621
0.000174011
0.000179626
6.79647e-05
9.42874e-05
5.3515e-05
5.74343e-05
5.39088e-05
0.000112772
0.000179626
0.000651264
0.00015897
5.15034e-05
0.000120068
2.94008e-05
7.20254e-05
4.75607e-05
8.51225e-05
8.15436e-05
0.000173475
0.000388478
0.000159771
6.46158e-05
4.80593e-05
6.52001e-05
6.37971e-05
6.83906e-05
7.19733e-05
0.000100199
0.000165436
0.000602966
-4.75863e-05
0.00013827
-8.33902e-06
8.5879e-05
3.33003e-05
6.94296e-05
7.90283e-05
8.28623e-05
0.000154149
0.00035262
5.3493e-05
-3.836e-05
1.84083e-06
-3.53755e-05
4.04197e-06
2.52647e-05
6.33562e-05
9.69767e-05
0.00019493
-0.00108166
-0.000713044
-0.000699186
-0.000713286
-0.000645971
-0.00049861
-0.000485161
-0.000444502
-0.000339319
-0.000560575
-0.000770321
-0.000578221
-0.000672049
-0.000497909
-0.000415996
-0.000367125
-0.000242468
-0.000193596
-0.000337201
-0.000374565
-0.000636582
-0.000585522
-0.00045222
-0.000467954
-0.000401136
-0.000257037
-0.000266626
-0.000293465
-0.000209761
-0.000385273
-0.000447979
-0.000381454
-0.000481093
-0.000394392
-0.00031613
-0.000311671
-0.000227823
-0.000205076
-0.00030047
-0.00034351
-0.000416002
-0.00041217
-0.000336611
-0.000343037
-0.000314037
-0.000219003
-0.000224587
-0.0002512
-0.000227031
-0.000342085
-0.000335023
-0.000280296
-0.000338352
-0.000314786
-0.000235424
-0.000249795
-0.000190817
-0.000196251
-0.0002482
-0.000327428
-0.000286929
-0.0003139
-0.000299482
-0.000251031
-0.000268155
-0.000177315
-0.000162147
-0.000200921
-0.000209005
-0.000295633
-0.000286222
-0.000245906
-0.000279573
-0.000249699
-0.000209754
-0.000131231
-0.000181579
-0.000119658
-0.000196041
-0.000296074
-0.000215097
-0.000293126
-0.000182363
-0.000238925
-9.66085e-05
-0.000203277
-4.5578e-05
-0.000184956
-0.000140841
-0.00023986
-0.000230774
-0.000157375
-0.000174488
-9.76558e-05
-0.000154346
-9.18204e-05
-0.000176291
-0.000191744
-0.0002024
-0.000336408
0.00118348
0.000701789
0.000637848
0.000606859
0.000558413
0.000430459
0.000416947
0.000312421
0.000345195
0.000459419
0.000870708
0.000549552
0.000508576
0.00046889
0.000355621
0.000353131
0.000252132
0.000254523
0.000240005
0.000355895
0.000759161
0.000503282
0.000376321
0.000383055
0.000331111
0.000247788
0.000241694
0.000206206
0.000214451
0.000338417
0.000511199
0.000330861
0.000402581
0.000308346
0.000253891
0.000229429
0.000167468
0.000181469
0.000199616
0.000313536
0.000498206
0.000360191
0.000259684
0.000266816
0.000221479
0.000166414
0.000154884
0.000154378
0.000186162
0.000294769
0.000366418
0.000234966
0.000281529
0.000212397
0.000181552
0.000147126
0.000122659
0.000144814
0.000163091
0.000290502
0.000362207
0.000260555
0.00019701
0.000201155
0.000149907
0.000131641
0.000100691
0.000121188
0.000166705
0.000261663
0.000273671
0.000204713
0.000197309
0.000153263
0.000146258
8.23969e-05
0.000111359
0.000104431
0.000136122
0.000275342
0.000304217
0.000159537
0.000153744
0.000130828
7.99844e-05
0.000121163
5.27689e-05
0.000121525
0.000124144
0.000218898
0.000231051
0.000124924
9.24823e-05
7.14094e-05
9.14165e-05
8.14111e-05
0.00013895
0.000182519
0.000193024
0.000334996
-0.00145938
-0.000895439
-0.000873067
-0.000790073
-0.000736665
-0.000565626
-0.000520907
-0.000466568
-0.000317619
-0.00050614
-0.00143806
-0.000898377
-0.000825626
-0.000677823
-0.000520348
-0.00043763
-0.000276583
-0.00019357
-0.000316135
-0.000331748
-0.00115489
-0.000789254
-0.00065326
-0.000584334
-0.000481077
-0.000305121
-0.000280432
-0.000287765
-0.000167073
-0.000344877
-0.00109768
-0.000597799
-0.000586456
-0.000482935
-0.00037271
-0.000338081
-0.000231909
-0.000171321
-0.000273286
-0.000283539
-0.000965228
-0.000559004
-0.000460594
-0.000405284
-0.000345542
-0.000231908
-0.000209507
-0.000234649
-0.000157077
-0.000290698
-0.000958167
-0.000465175
-0.000410772
-0.000336892
-0.000267239
-0.000242748
-0.000183104
-0.000139255
-0.000217043
-0.000245888
-0.000942472
-0.000387304
-0.000336432
-0.000292846
-0.000245002
-0.000183467
-0.000140398
-0.000186714
-0.000133109
-0.000234935
-0.00079525
-0.000396776
-0.000268687
-0.000251651
-0.000206927
-0.000151478
-0.000165786
-8.99324e-05
-0.000164583
-0.000210405
-0.000883776
-0.000196629
-0.00029019
-0.000193845
-0.000167292
-0.0001616
-7.00892e-05
-0.000148082
-9.18202e-05
-0.000185033
-0.000686393
-0.000309009
-0.000218712
-0.000176262
-0.000132496
-9.02401e-05
-0.000108427
-0.000107655
-0.000109174
-0.000208177
0.00177059
0.000646232
0.000578163
0.000342473
0.000424979
0.000262849
0.000215339
0.000205825
0.000145076
0.000121387
0.00175795
0.000568254
0.000159929
0.000390443
9.90434e-05
0.000274407
0.000154538
9.93135e-05
0.00013321
2.39071e-05
0.00179867
0.000463156
0.000213775
0.000165455
0.000152725
6.47843e-05
9.57079e-05
7.55962e-05
-1.11605e-05
1.39689e-06
0.00148937
0.000347356
0.000298462
9.72885e-05
3.125e-05
5.21585e-05
-1.76336e-06
-2.4514e-05
2.17375e-05
-4.54477e-05
0.00162141
0.000426868
9.96907e-05
8.81392e-05
3.30234e-06
-3.87158e-05
-2.82166e-05
-1.87799e-05
-5.4498e-05
-5.17178e-05
0.00127344
0.000282421
0.000238729
-5.96351e-05
2.4879e-05
-7.90088e-05
-3.35792e-05
-4.97499e-05
-3.79852e-05
-7.67587e-05
0.00156523
0.000297119
-2.21809e-05
0.000133109
-0.000119949
2.75354e-05
-2.45894e-06
-2.69519e-05
-1.21982e-05
-8.40568e-05
0.000966539
0.000320661
6.32676e-05
-2.56389e-05
1.67215e-05
5.62176e-05
-2.0599e-05
8.59206e-05
-3.22005e-05
-5.99499e-05
0.00147176
-0.000137494
0.000259006
-0.000133569
0.000139991
-9.2048e-05
0.000152861
-3.55536e-05
6.4587e-05
-5.54829e-05
0.00083145
0.00011176
-0.000128793
-4.13231e-05
-0.000181217
-5.24289e-05
-9.03374e-05
-1.15115e-05
3.87627e-05
-4.63627e-05
-0.00136939
-0.00150003
-0.00121273
-0.00130918
-0.00101556
-0.000807546
-0.000786031
-0.000683545
-0.000556739
-0.00086437
-0.000610294
-0.000878857
-0.00122913
-0.000724221
-0.000699306
-0.000524073
-0.000356743
-0.000336562
-0.000535592
-0.000668879
-0.000391835
-0.00100701
-0.000782749
-0.000805486
-0.000666094
-0.000440225
-0.000453788
-0.000496668
-0.000406379
-0.000726422
-0.000259275
-0.000645861
-0.000837672
-0.000725524
-0.000588499
-0.00056709
-0.000420739
-0.000399948
-0.000554155
-0.000678623
-0.000128719
-0.00070699
-0.000652352
-0.0006518
-0.000622589
-0.000435789
-0.000453336
-0.000495515
-0.000438222
-0.000700552
-0.000179238
-0.000494642
-0.000627852
-0.000697183
-0.000474502
-0.000571038
-0.000399178
-0.000396026
-0.00052752
-0.000671299
-1.88566e-05
-0.000640466
-0.000723302
-0.000537686
-0.000693642
-0.000391891
-0.000375934
-0.000481676
-0.00040522
-0.00066532
-0.00035637
-0.000527536
-0.000712318
-0.000662321
-0.000523874
-0.000342974
-0.000471878
-0.000228339
-0.000495837
-0.000647411
-0.000168885
-0.00095372
-0.000446387
-0.000708292
-0.000232901
-0.000548364
-7.6802e-05
-0.000495269
-0.000295697
-0.000572711
-0.000330236
-0.000276116
-0.000444381
-0.000255139
-0.000421942
-0.000231326
-0.000420107
-0.000395151
-0.000394181
-0.000665577
0.000542664
0.000106304
0.00018514
-7.70024e-06
0.000134816
2.85758e-05
8.0592e-05
-0.000116656
9.75091e-05
0.000274453
0.000916661
0.000221223
-5.11417e-05
0.00021892
0.000133002
0.000140703
6.94882e-05
0.000103736
-0.000114151
0.000387028
0.000856109
1.06484e-05
6.94533e-05
3.33275e-05
4.03305e-05
8.73843e-05
-1.24856e-05
-9.9619e-05
0.000106056
0.000303546
0.000742942
6.64073e-05
-5.72601e-05
-3.5947e-05
-3.63742e-06
-9.65358e-05
-6.04212e-05
3.04613e-05
-0.000136559
0.000338625
0.000686576
-7.06016e-05
-4.37217e-05
-8.63983e-05
-0.000134963
-2.21648e-05
-0.000158
-0.00020381
0.000116214
0.000195877
0.000560088
-1.23612e-06
-0.000164492
-0.000215697
-0.000106277
-0.000306233
-0.000179289
-5.04943e-05
-0.000234376
0.000292118
0.000491064
-0.000342301
-0.000346273
-0.000301331
-0.000451723
-0.0002231
-0.00036518
-0.000418421
-3.2912e-05
7.25469e-05
4.93612e-05
-0.000337619
-0.000540815
-0.000495144
-0.000358163
-0.000463765
-0.000432975
-0.00024288
-0.00042968
0.00016668
-5.69485e-05
-0.000915886
-0.000456829
-0.000498554
-0.000310413
-0.000326198
-0.000331913
-0.000475551
-0.000353897
-9.69176e-05
-0.000172363
-6.74541e-05
-0.000110086
-3.43958e-05
-2.70333e-05
-9.67596e-06
-5.91373e-05
9.08004e-05
-0.000135109
0.000311507
-0.00138927
-0.00114373
-0.00108258
-0.00122436
-0.00102903
-0.00100004
-0.000919946
-0.00116062
-0.000937373
-0.000728787
-0.000737386
-0.000906814
-0.00103919
-0.000734777
-0.000558068
-0.000635852
-0.000586401
-0.00054974
-0.000980957
-0.000229742
-0.000596591
-0.000970545
-0.000686343
-0.000709572
-0.000634573
-0.000423683
-0.00060751
-0.000722604
-0.000453228
-0.000227306
-0.000387572
-0.000589646
-0.000827581
-0.000630303
-0.000493646
-0.000617225
-0.000501575
-0.000401377
-0.000743624
-0.000114555
-0.000429276
-0.00076893
-0.000536629
-0.0005982
-0.000582885
-0.000364941
-0.00056984
-0.000677151
-0.000289047
-0.00026837
-0.000321259
-0.000475038
-0.000719777
-0.00059985
-0.000478033
-0.000661656
-0.000542101
-0.000415345
-0.000720525
-0.000106874
-0.000457977
-0.000876941
-0.000704654
-0.000737276
-0.000759062
-0.000561464
-0.000749663
-0.000850629
-0.000469939
-0.000340065
-0.000638776
-0.000799358
-0.000945512
-0.000820383
-0.0006821
-0.000829121
-0.00079014
-0.000707839
-0.000915279
-0.000237506
-0.000841545
-0.00122391
-0.000872829
-0.000729415
-0.000644355