/*--------------------------------*- C++ -*----------------------------------*\
| =========                 |                                                 |
| \\      /  F ield         | OpenFOAM: The Open Source CFD Toolbox           |
|  \\    /   O peration     | Version:  2406                                  |
|   \\  /    A nd           | Website:  www.openfoam.com                      |
|    \\/     M anipulation  |                                                 |
\*---------------------------------------------------------------------------*/
FoamFile
{
    version     2.0;
    format      ascii;
    arch        "LSB;label=32;scalar=64";
    class       volScalarField;
    location    "300";
    object      magR;
}
// * * * * * * * * * * * * * * * * * * * * * * * * * * * * * * * * * * * * * //

dimensions      [0 2 -2 0 0 0 0];

internalField   nonuniform List<scalar> 
25000
(
4.3311e-05
4.12992e-05
3.8159e-05
3.74478e-05
3.71092e-05
3.71125e-05
3.74592e-05
3.81269e-05
4.16404e-05
4.35845e-05
4.13066e-05
4.04609e-05
3.69723e-05
3.51412e-05
3.42621e-05
3.42626e-05
3.5145e-05
3.69772e-05
4.04082e-05
4.16252e-05
3.81403e-05
3.69803e-05
3.43136e-05
3.26944e-05
3.19091e-05
3.19102e-05
3.26973e-05
3.43072e-05
3.69606e-05
3.81218e-05
3.7427e-05
3.51305e-05
3.26907e-05
3.11081e-05
3.0324e-05
3.0326e-05
3.11117e-05
3.26963e-05
3.51456e-05
3.74564e-05
3.70889e-05
3.42442e-05
3.19012e-05
3.03216e-05
2.95381e-05
2.95399e-05
3.03255e-05
3.19115e-05
3.4265e-05
3.71122e-05
3.70966e-05
3.42469e-05
3.1899e-05
3.03188e-05
2.95372e-05
2.9539e-05
3.03249e-05
3.19111e-05
3.42645e-05
3.71122e-05
3.74468e-05
3.51275e-05
3.26837e-05
3.11033e-05
3.03219e-05
3.03237e-05
3.11098e-05
3.26948e-05
3.51448e-05
3.74565e-05
3.81199e-05
3.69449e-05
3.42944e-05
3.26888e-05
3.19051e-05
3.19071e-05
3.26952e-05
3.43055e-05
3.69597e-05
3.81229e-05
4.1632e-05
4.03942e-05
3.69651e-05
3.51367e-05
3.42581e-05
3.42603e-05
3.51426e-05
3.69755e-05
4.04071e-05
4.16279e-05
4.35766e-05
4.16222e-05
3.81115e-05
3.74476e-05
3.7107e-05
3.71102e-05
3.74577e-05
3.81268e-05
4.16404e-05
4.35848e-05
6.14098e-05
5.8624e-05
5.4081e-05
5.34588e-05
5.30382e-05
5.30481e-05
5.34994e-05
5.43576e-05
5.82172e-05
5.99622e-05
5.86949e-05
5.49969e-05
5.28564e-05
5.19419e-05
5.13451e-05
5.13563e-05
5.19772e-05
5.29971e-05
5.52054e-05
5.82048e-05
5.41223e-05
5.29367e-05
5.10091e-05
5.02275e-05
4.98132e-05
4.98215e-05
5.02624e-05
5.10592e-05
5.29362e-05
5.43666e-05
5.34697e-05
5.19511e-05
5.02376e-05
4.93201e-05
4.88544e-05
4.88659e-05
4.9339e-05
5.02584e-05
5.19818e-05
5.35161e-05
5.30438e-05
5.13514e-05
4.98136e-05
4.88587e-05
4.84096e-05
4.84135e-05
4.8866e-05
4.98311e-05
5.13705e-05
5.30699e-05
5.30494e-05
5.13567e-05
4.9821e-05
4.88597e-05
4.84128e-05
4.84158e-05
4.8867e-05
4.98315e-05
5.13713e-05
5.30695e-05
5.34993e-05
5.19748e-05
5.02528e-05
4.93377e-05
4.88702e-05
4.8872e-05
4.93426e-05
5.02608e-05
5.19834e-05
5.35153e-05
5.4353e-05
5.29342e-05
5.10585e-05
5.02654e-05
4.98306e-05
4.98318e-05
5.02686e-05
5.10633e-05
5.294e-05
5.43662e-05
5.81888e-05
5.52051e-05
5.29977e-05
5.19831e-05
5.1369e-05
5.13701e-05
5.19867e-05
5.30028e-05
5.52094e-05
5.82018e-05
5.99648e-05
5.82303e-05
5.43665e-05
5.35126e-05
5.30676e-05
5.30687e-05
5.35156e-05
5.43711e-05
5.82306e-05
5.99699e-05
5.58468e-05
5.14899e-05
4.91541e-05
4.79956e-05
4.7401e-05
4.74011e-05
4.79919e-05
4.93063e-05
5.16025e-05
5.51739e-05
5.15482e-05
4.8034e-05
4.72285e-05
4.65594e-05
4.60685e-05
4.60738e-05
4.65777e-05
4.73656e-05
4.82285e-05
5.15733e-05
4.91687e-05
4.73115e-05
4.5954e-05
4.52545e-05
4.4815e-05
4.48209e-05
4.52863e-05
4.60008e-05
4.72822e-05
4.93042e-05
4.79915e-05
4.65559e-05
4.52617e-05
4.45041e-05
4.40449e-05
4.4057e-05
4.45202e-05
4.52773e-05
4.65754e-05
4.79999e-05
4.74057e-05
4.60669e-05
4.48097e-05
4.4049e-05
4.36595e-05
4.36625e-05
4.4053e-05
4.48258e-05
4.60798e-05
4.74104e-05
4.74065e-05
4.60713e-05
4.48169e-05
4.4047e-05
4.36612e-05
4.36637e-05
4.40533e-05
4.48258e-05
4.60803e-05
4.74104e-05
4.79987e-05
4.65738e-05
4.52722e-05
4.45181e-05
4.40585e-05
4.40601e-05
4.45219e-05
4.52785e-05
4.65765e-05
4.79995e-05
4.93044e-05
4.72857e-05
4.60011e-05
4.5288e-05
4.48261e-05
4.48267e-05
4.52898e-05
4.60032e-05
4.72851e-05
4.93048e-05
5.157e-05
4.82336e-05
4.73684e-05
4.65828e-05
4.60804e-05
4.60806e-05
4.65836e-05
4.73695e-05
4.8231e-05
5.15724e-05
5.51744e-05
5.16109e-05
4.93108e-05
4.79994e-05
4.74101e-05
4.74105e-05
4.80003e-05
4.93138e-05
5.16103e-05
5.51781e-05
4.22188e-05
3.7153e-05
3.62115e-05
3.49526e-05
3.44479e-05
3.44484e-05
3.49453e-05
3.6343e-05
3.73179e-05
4.18603e-05
3.72e-05
3.4383e-05
3.40979e-05
3.33827e-05
3.29978e-05
3.30004e-05
3.33921e-05
3.42128e-05
3.45294e-05
3.72767e-05
3.62152e-05
3.417e-05
3.30558e-05
3.22326e-05
3.1756e-05
3.176e-05
3.22579e-05
3.30948e-05
3.41351e-05
3.63299e-05
3.49399e-05
3.33746e-05
3.22355e-05
3.14712e-05
3.09945e-05
3.10042e-05
3.14835e-05
3.22469e-05
3.33845e-05
3.49435e-05
3.44475e-05
3.29903e-05
3.17464e-05
3.09958e-05
3.05859e-05
3.0588e-05
3.09978e-05
3.17588e-05
3.29988e-05
3.44488e-05
3.44513e-05
3.29926e-05
3.17507e-05
3.09916e-05
3.05853e-05
3.05873e-05
3.09967e-05
3.17578e-05
3.29984e-05
3.44486e-05
3.49508e-05
3.33815e-05
3.22391e-05
3.14775e-05
3.10004e-05
3.10021e-05
3.14812e-05
3.22452e-05
3.33829e-05
3.49429e-05
3.63406e-05
3.4134e-05
3.30897e-05
3.2253e-05
3.17568e-05
3.17578e-05
3.22555e-05
3.30931e-05
3.41341e-05
3.633e-05
3.72901e-05
3.45291e-05
3.42096e-05
3.33896e-05
3.29975e-05
3.2998e-05
3.33917e-05
3.42126e-05
3.4529e-05
3.72796e-05
4.18667e-05
3.73109e-05
3.63377e-05
3.49433e-05
3.44485e-05
3.44489e-05
3.49441e-05
3.63407e-05
3.7314e-05
4.18597e-05
3.21049e-05
2.76694e-05
2.70855e-05
2.58666e-05
2.54224e-05
2.54183e-05
2.58428e-05
2.71604e-05
2.78138e-05
3.1938e-05
2.77002e-05
2.54093e-05
2.49536e-05
2.40605e-05
2.3702e-05
2.37003e-05
2.40564e-05
2.50358e-05
2.55035e-05
2.77706e-05
2.70775e-05
2.50087e-05
2.38596e-05
2.28177e-05
2.22952e-05
2.22955e-05
2.28316e-05
2.38854e-05
2.49656e-05
2.71397e-05
2.58438e-05
2.40447e-05
2.28155e-05
2.1892e-05
2.13669e-05
2.13728e-05
2.18964e-05
2.28182e-05
2.40414e-05
2.58314e-05
2.5414e-05
2.36869e-05
2.2281e-05
2.13655e-05
2.08671e-05
2.08669e-05
2.13634e-05
2.22868e-05
2.36867e-05
2.54052e-05
2.54146e-05
2.36858e-05
2.22826e-05
2.13596e-05
2.0864e-05
2.08649e-05
2.13611e-05
2.22849e-05
2.36857e-05
2.54041e-05
2.58415e-05
2.4041e-05
2.28119e-05
2.18902e-05
2.13653e-05
2.13659e-05
2.18914e-05
2.28148e-05
2.40382e-05
2.58291e-05
2.71495e-05
2.49647e-05
2.38797e-05
2.28239e-05
2.22862e-05
2.22867e-05
2.28244e-05
2.38805e-05
2.49623e-05
2.71373e-05
2.77823e-05
2.55027e-05
2.50309e-05
2.40487e-05
2.3688e-05
2.36879e-05
2.40493e-05
2.50314e-05
2.55003e-05
2.77712e-05
3.1939e-05
2.78007e-05
2.71488e-05
2.58325e-05
2.54061e-05
2.54071e-05
2.5834e-05
2.71528e-05
2.78052e-05
3.19351e-05
2.63298e-05
2.29459e-05
2.23907e-05
2.13647e-05
2.09814e-05
2.09748e-05
2.13312e-05
2.24227e-05
2.30427e-05
2.62179e-05
2.29703e-05
2.13002e-05
2.06459e-05
1.97294e-05
1.93907e-05
1.93883e-05
1.97218e-05
2.07086e-05
2.13655e-05
2.30074e-05
2.23729e-05
2.06924e-05
1.9607e-05
1.85392e-05
1.80502e-05
1.80494e-05
1.8548e-05
1.96237e-05
2.06419e-05
2.24034e-05
2.1337e-05
1.97128e-05
1.85361e-05
1.75787e-05
1.70806e-05
1.70851e-05
1.75799e-05
1.8535e-05
1.97055e-05
2.13189e-05
2.0968e-05
1.93748e-05
1.80362e-05
1.7079e-05
1.65749e-05
1.65741e-05
1.70763e-05
1.80405e-05
1.93734e-05
2.09575e-05
2.09668e-05
1.93732e-05
1.80371e-05
1.7073e-05
1.65717e-05
1.65726e-05
1.7074e-05
1.80388e-05
1.93729e-05
2.09562e-05
2.13285e-05
1.97064e-05
1.85302e-05
1.75753e-05
1.70785e-05
1.70791e-05
1.75762e-05
1.85326e-05
1.9703e-05
2.13165e-05
2.2413e-05
2.06439e-05
1.9621e-05
1.85426e-05
1.80418e-05
1.80422e-05
1.85421e-05
1.96202e-05
2.06397e-05
2.24011e-05
2.30182e-05
2.13691e-05
2.07077e-05
1.97171e-05
1.93778e-05
1.93769e-05
1.97155e-05
2.07045e-05
2.13623e-05
2.30068e-05
2.6223e-05
2.30409e-05
2.24198e-05
2.13257e-05
2.09627e-05
2.09626e-05
2.13227e-05
2.24163e-05
2.30364e-05
2.62147e-05
2.35801e-05
2.12855e-05
2.07339e-05
1.98513e-05
1.951e-05
1.95066e-05
1.98277e-05
2.07624e-05
2.13732e-05
2.35052e-05
2.13172e-05
2.01877e-05
1.94213e-05
1.85694e-05
1.82513e-05
1.82531e-05
1.85738e-05
1.94938e-05
2.02541e-05
2.13465e-05
2.07245e-05
1.94745e-05
1.85235e-05
1.75594e-05
1.71481e-05
1.71495e-05
1.75737e-05
1.85444e-05
1.94289e-05
2.07511e-05
1.98359e-05
1.85639e-05
1.75609e-05
1.67053e-05
1.62951e-05
1.63013e-05
1.67101e-05
1.75645e-05
1.85652e-05
1.98278e-05
1.95044e-05
1.82435e-05
1.71386e-05
1.6295e-05
1.58793e-05
1.58797e-05
1.62958e-05
1.71488e-05
1.82513e-05
1.95041e-05
1.9503e-05
1.82419e-05
1.71393e-05
1.62895e-05
1.58771e-05
1.58794e-05
1.62942e-05
1.71474e-05
1.82514e-05
1.95029e-05
1.98268e-05
1.85572e-05
1.75544e-05
1.67038e-05
1.62964e-05
1.62983e-05
1.6709e-05
1.75643e-05
1.85639e-05
1.98254e-05
2.07512e-05
1.9423e-05
1.85374e-05
1.75681e-05
1.7146e-05
1.71484e-05
1.75723e-05
1.85445e-05
1.94293e-05
2.07488e-05
2.13491e-05
2.02506e-05
1.94892e-05
1.85703e-05
1.82493e-05
1.825e-05
1.85743e-05
1.94944e-05
2.02538e-05
2.13444e-05
2.35177e-05
2.13771e-05
2.07642e-05
1.98289e-05
1.95035e-05
1.95038e-05
1.9827e-05
2.07615e-05
2.13722e-05
2.3501e-05
2.26708e-05
2.11944e-05
2.06284e-05
1.98653e-05
1.955e-05
1.95478e-05
1.98479e-05
2.06544e-05
2.12723e-05
2.26316e-05
2.12223e-05
2.04219e-05
1.96334e-05
1.88751e-05
1.85663e-05
1.8568e-05
1.88812e-05
1.97065e-05
2.04712e-05
2.124e-05
2.06235e-05
1.96918e-05
1.88554e-05
1.79952e-05
1.76393e-05
1.76405e-05
1.80091e-05
1.88716e-05
1.96367e-05
2.06395e-05
1.98537e-05
1.88726e-05
1.79991e-05
1.7232e-05
1.68824e-05
1.68889e-05
1.72356e-05
1.79993e-05
1.88717e-05
1.98479e-05
1.95439e-05
1.85585e-05
1.76313e-05
1.68836e-05
1.654e-05
1.654e-05
1.68828e-05
1.76399e-05
1.85666e-05
1.95459e-05
1.95416e-05
1.85561e-05
1.76312e-05
1.68778e-05
1.65381e-05
1.654e-05
1.68812e-05
1.76386e-05
1.8567e-05
1.95451e-05
1.98434e-05
1.88628e-05
1.79901e-05
1.72308e-05
1.68852e-05
1.68864e-05
1.7235e-05
1.79995e-05
1.88712e-05
1.9846e-05
2.06362e-05
1.96308e-05
1.88658e-05
1.80057e-05
1.76388e-05
1.76407e-05
1.80087e-05
1.88724e-05
1.96385e-05
2.0638e-05
2.12391e-05
2.04683e-05
1.97042e-05
1.88806e-05
1.85664e-05
1.85667e-05
1.88831e-05
1.97085e-05
2.04721e-05
2.12381e-05
2.26355e-05
2.12722e-05
2.06541e-05
1.98491e-05
1.95455e-05
1.95461e-05
1.98485e-05
2.06539e-05
2.12711e-05
2.2627e-05
2.22868e-05
2.13064e-05
2.07705e-05
2.01264e-05
1.98349e-05
1.98333e-05
2.01145e-05
2.07946e-05
2.13735e-05
2.22597e-05
2.13398e-05
2.07452e-05
2.0022e-05
1.93604e-05
1.90608e-05
1.90628e-05
1.937e-05
2.00991e-05
2.07797e-05
2.13395e-05
2.0776e-05
2.00922e-05
1.93481e-05
1.85695e-05
1.82448e-05
1.8246e-05
1.85827e-05
1.9358e-05
2.00245e-05
2.07777e-05
2.01247e-05
1.93702e-05
1.85795e-05
1.78716e-05
1.75503e-05
1.75561e-05
1.78719e-05
1.85714e-05
1.93588e-05
2.0114e-05
1.98363e-05
1.90634e-05
1.82438e-05
1.75545e-05
1.72509e-05
1.72496e-05
1.75486e-05
1.82438e-05
1.90611e-05
1.98315e-05
1.98351e-05
1.90612e-05
1.82432e-05
1.75485e-05
1.72491e-05
1.72495e-05
1.75469e-05
1.82422e-05
1.90611e-05
1.9831e-05
2.01175e-05
1.93595e-05
1.85698e-05
1.7871e-05
1.75539e-05
1.75533e-05
1.78703e-05
1.85703e-05
1.93569e-05
2.01122e-05
2.07826e-05
2.00266e-05
1.93587e-05
1.85828e-05
1.82451e-05
1.82453e-05
1.8581e-05
1.93569e-05
2.00242e-05
2.07767e-05
2.13473e-05
2.07845e-05
2.01026e-05
1.93728e-05
1.90629e-05
1.90615e-05
1.93707e-05
2.0099e-05
2.07787e-05
2.13385e-05
2.22646e-05
2.13752e-05
2.07982e-05
2.01189e-05
1.98341e-05
1.98331e-05
2.01151e-05
2.0793e-05
2.13715e-05
2.22579e-05
2.18431e-05
2.11543e-05
2.06891e-05
2.01511e-05
1.98803e-05
1.9878e-05
2.01402e-05
2.07084e-05
2.12036e-05
2.18184e-05
2.11821e-05
2.07568e-05
2.01367e-05
1.95583e-05
1.92705e-05
1.92724e-05
1.9569e-05
2.02159e-05
2.0778e-05
2.11686e-05
2.07013e-05
2.02131e-05
1.9548e-05
1.88367e-05
1.85316e-05
1.85328e-05
1.88498e-05
1.95553e-05
2.01373e-05
2.0691e-05
2.01532e-05
1.95707e-05
1.88479e-05
1.81906e-05
1.78849e-05
1.78909e-05
1.81901e-05
1.88369e-05
1.9555e-05
2.01396e-05
1.98845e-05
1.9273e-05
1.85305e-05
1.78892e-05
1.76116e-05
1.76102e-05
1.78825e-05
1.85292e-05
1.92684e-05
1.98759e-05
1.98831e-05
1.92701e-05
1.85291e-05
1.78827e-05
1.76097e-05
1.76099e-05
1.78808e-05
1.85277e-05
1.92686e-05
1.98753e-05
2.01455e-05
1.95568e-05
1.88353e-05
1.81893e-05
1.78885e-05
1.7888e-05
1.81884e-05
1.88358e-05
1.95531e-05
2.01369e-05
2.06962e-05
2.01403e-05
1.95557e-05
1.88495e-05
1.85316e-05
1.85316e-05
1.88477e-05
1.95537e-05
2.01368e-05
2.06885e-05
2.11747e-05
2.07836e-05
2.02195e-05
1.95715e-05
1.92715e-05
1.927e-05
1.95688e-05
2.02152e-05
2.07766e-05
2.11655e-05
2.1824e-05
2.121e-05
2.0714e-05
2.01446e-05
1.98773e-05
1.98755e-05
2.01389e-05
2.07054e-05
2.12002e-05
2.18141e-05
2.1269e-05
2.07378e-05
2.03737e-05
1.99274e-05
1.96788e-05
1.96786e-05
1.99227e-05
2.03971e-05
2.07843e-05
2.12494e-05
2.0767e-05
2.05088e-05
1.99931e-05
1.94803e-05
1.92083e-05
1.92123e-05
1.94981e-05
2.00819e-05
2.05312e-05
2.07518e-05
2.03886e-05
2.00733e-05
1.94783e-05
1.88216e-05
1.85311e-05
1.85344e-05
1.88394e-05
1.949e-05
2.00021e-05
2.03803e-05
1.99282e-05
1.9494e-05
1.8833e-05
1.82194e-05
1.79244e-05
1.79318e-05
1.82227e-05
1.88265e-05
1.94842e-05
1.99236e-05
1.96795e-05
1.92084e-05
1.85286e-05
1.79278e-05
1.76675e-05
1.76675e-05
1.79244e-05
1.85323e-05
1.92116e-05
1.96795e-05
1.96785e-05
1.92052e-05
1.85266e-05
1.79211e-05
1.7666e-05
1.76674e-05
1.79231e-05
1.85311e-05
1.9212e-05
1.96795e-05
1.99219e-05
1.94775e-05
1.88191e-05
1.82184e-05
1.79287e-05
1.79298e-05
1.82215e-05
1.88259e-05
1.9483e-05
1.99221e-05
2.03788e-05
1.99962e-05
1.94843e-05
1.88354e-05
1.85324e-05
1.8534e-05
1.88382e-05
1.94895e-05
2.00023e-05
2.03795e-05
2.07535e-05
2.05291e-05
2.00801e-05
1.94976e-05
1.92121e-05
1.92121e-05
1.94998e-05
2.00831e-05
2.05318e-05
2.07508e-05
2.12578e-05
2.07902e-05
2.04024e-05
1.99278e-05
1.96804e-05
1.96793e-05
1.9924e-05
2.03964e-05
2.07833e-05
2.1247e-05
2.07261e-05
2.01951e-05
1.99214e-05
1.95483e-05
1.93187e-05
1.93177e-05
1.95429e-05
1.99408e-05
2.02326e-05
2.07087e-05
2.02234e-05
2.01151e-05
1.96891e-05
1.92265e-05
1.89682e-05
1.89712e-05
1.92421e-05
1.97729e-05
2.01261e-05
2.01979e-05
1.99383e-05
1.97691e-05
1.92344e-05
1.86218e-05
1.83401e-05
1.83428e-05
1.86373e-05
1.92408e-05
1.9691e-05
1.99217e-05
1.95481e-05
1.92391e-05
1.86332e-05
1.80548e-05
1.77653e-05
1.77719e-05
1.8056e-05
1.86228e-05
1.92248e-05
1.95413e-05
1.9318e-05
1.89665e-05
1.83376e-05
1.77689e-05
1.7518e-05
1.75174e-05
1.77636e-05
1.83385e-05
1.89671e-05
1.93165e-05
1.93159e-05
1.89625e-05
1.83349e-05
1.7762e-05
1.75164e-05
1.75171e-05
1.77623e-05
1.83375e-05
1.89676e-05
1.93166e-05
1.95394e-05
1.92196e-05
1.86173e-05
1.80528e-05
1.77693e-05
1.77698e-05
1.80545e-05
1.86221e-05
1.92239e-05
1.95399e-05
1.99191e-05
1.96866e-05
1.92364e-05
1.86339e-05
1.83405e-05
1.83414e-05
1.86355e-05
1.924e-05
1.96914e-05
1.99207e-05
2.01979e-05
2.0125e-05
1.9772e-05
1.92415e-05
1.89697e-05
1.89694e-05
1.92424e-05
1.97736e-05
2.01266e-05
2.01969e-05
2.07121e-05
2.02356e-05
1.99443e-05
1.95456e-05
1.93172e-05
1.93165e-05
1.95432e-05
1.99404e-05
2.02315e-05
2.0706e-05
2.0343e-05
1.95977e-05
1.9388e-05
1.90738e-05
1.88649e-05
1.88653e-05
1.90728e-05
1.94099e-05
1.96359e-05
2.03289e-05
1.96314e-05
1.96412e-05
1.9289e-05
1.88691e-05
1.86264e-05
1.86303e-05
1.88885e-05
1.93754e-05
1.96506e-05
1.96018e-05
1.94091e-05
1.93724e-05
1.88932e-05
1.8319e-05
1.80453e-05
1.80489e-05
1.83353e-05
1.88984e-05
1.92929e-05
1.93894e-05
1.90779e-05
1.88877e-05
1.83327e-05
1.77843e-05
1.74998e-05
1.75064e-05
1.7785e-05
1.83202e-05
1.88698e-05
1.907e-05
1.8868e-05
1.86297e-05
1.80464e-05
1.75047e-05
1.72602e-05
1.72596e-05
1.7498e-05
1.80441e-05
1.86266e-05
1.88644e-05
1.88669e-05
1.86263e-05
1.80436e-05
1.74981e-05
1.72591e-05
1.72591e-05
1.74969e-05
1.8043e-05
1.86266e-05
1.88646e-05
1.90721e-05
1.88685e-05
1.83176e-05
1.77832e-05
1.75046e-05
1.75046e-05
1.77831e-05
1.83187e-05
1.88682e-05
1.90692e-05
1.93916e-05
1.92915e-05
1.88961e-05
1.83328e-05
1.80469e-05
1.80472e-05
1.83326e-05
1.88964e-05
1.92917e-05
1.93891e-05
1.96069e-05
1.96519e-05
1.93758e-05
1.88882e-05
1.86294e-05
1.86287e-05
1.88875e-05
1.93742e-05
1.96495e-05
1.96019e-05
2.03348e-05
1.96397e-05
1.94146e-05
1.90765e-05
1.88664e-05
1.88653e-05
1.90729e-05
1.94089e-05
1.96344e-05
2.03283e-05
2.02829e-05
1.90586e-05
1.88498e-05
1.85761e-05
1.83839e-05
1.83833e-05
1.85738e-05
1.88676e-05
1.90891e-05
2.0271e-05
1.90889e-05
1.91506e-05
1.88584e-05
1.84759e-05
1.82459e-05
1.82492e-05
1.84932e-05
1.89398e-05
1.91517e-05
1.90544e-05
1.88709e-05
1.89407e-05
1.85133e-05
1.79742e-05
1.77075e-05
1.77107e-05
1.79888e-05
1.85149e-05
1.88564e-05
1.88454e-05
1.858e-05
1.84934e-05
1.79875e-05
1.74667e-05
1.71877e-05
1.7194e-05
1.74663e-05
1.79728e-05
1.84719e-05
1.85688e-05
1.83863e-05
1.82476e-05
1.77081e-05
1.71926e-05
1.69541e-05
1.69533e-05
1.71852e-05
1.77046e-05
1.82428e-05
1.83802e-05
1.83843e-05
1.82432e-05
1.77046e-05
1.71858e-05
1.69531e-05
1.6953e-05
1.71842e-05
1.77038e-05
1.8243e-05
1.83802e-05
1.85717e-05
1.84713e-05
1.79705e-05
1.7465e-05
1.71927e-05
1.71927e-05
1.74648e-05
1.79717e-05
1.84709e-05
1.85677e-05
1.88471e-05
1.88557e-05
1.85129e-05
1.79866e-05
1.7709e-05
1.77092e-05
1.79865e-05
1.85132e-05
1.88557e-05
1.88442e-05
1.90572e-05
1.91529e-05
1.89399e-05
1.84925e-05
1.82474e-05
1.82466e-05
1.84916e-05
1.89383e-05
1.91504e-05
1.9053e-05
2.02757e-05
1.9094e-05
1.88717e-05
1.85758e-05
1.83818e-05
1.83806e-05
1.85718e-05
1.88653e-05
1.90868e-05
2.02688e-05
2.04883e-05
1.86309e-05
1.8336e-05
1.80822e-05
1.79046e-05
1.7905e-05
1.80831e-05
1.8356e-05
1.86624e-05
2.04784e-05
1.8664e-05
1.86687e-05
1.8424e-05
1.80762e-05
1.78605e-05
1.78652e-05
1.80978e-05
1.85093e-05
1.86725e-05
1.863e-05
1.83582e-05
1.85075e-05
1.81307e-05
1.76244e-05
1.73663e-05
1.73709e-05
1.76419e-05
1.8135e-05
1.84272e-05
1.83347e-05
1.80875e-05
1.80968e-05
1.76391e-05
1.71444e-05
1.68724e-05
1.68794e-05
1.71461e-05
1.76267e-05
1.8078e-05
1.80799e-05
1.79076e-05
1.78643e-05
1.73685e-05
1.68777e-05
1.66457e-05
1.66456e-05
1.6872e-05
1.73669e-05
1.78625e-05
1.79055e-05
1.79059e-05
1.78602e-05
1.73652e-05
1.68715e-05
1.66454e-05
1.66458e-05
1.68716e-05
1.73666e-05
1.78629e-05
1.79059e-05
1.80802e-05
1.80752e-05
1.76235e-05
1.71447e-05
1.68793e-05
1.68801e-05
1.71461e-05
1.76268e-05
1.80779e-05
1.80801e-05
1.8335e-05
1.84247e-05
1.81325e-05
1.76402e-05
1.73712e-05
1.73721e-05
1.76419e-05
1.81353e-05
1.84277e-05
1.83352e-05
1.86325e-05
1.86726e-05
1.85092e-05
1.80984e-05
1.78666e-05
1.78666e-05
1.80995e-05
1.85103e-05
1.86734e-05
1.86305e-05
2.04843e-05
1.86678e-05
1.83615e-05
1.80879e-05
1.79079e-05
1.79072e-05
1.80849e-05
1.83567e-05
1.86628e-05
2.04782e-05
2.04682e-05
1.84044e-05
1.78892e-05
1.76221e-05
1.74514e-05
1.74515e-05
1.76236e-05
1.79092e-05
1.84338e-05
2.04598e-05
1.84361e-05
1.82186e-05
1.80038e-05
1.76876e-05
1.74846e-05
1.74893e-05
1.77094e-05
1.80876e-05
1.82202e-05
1.83995e-05
1.79129e-05
1.80864e-05
1.77572e-05
1.72821e-05
1.70321e-05
1.70366e-05
1.72992e-05
1.77606e-05
1.80056e-05
1.78866e-05
1.76285e-05
1.77082e-05
1.72969e-05
1.68271e-05
1.6562e-05
1.65687e-05
1.68283e-05
1.72837e-05
1.76883e-05
1.76197e-05
1.74547e-05
1.7488e-05
1.70344e-05
1.65674e-05
1.63413e-05
1.63411e-05
1.65612e-05
1.70322e-05
1.74856e-05
1.74519e-05
1.74527e-05
1.74837e-05
1.7031e-05
1.65614e-05
1.63412e-05
1.63414e-05
1.65611e-05
1.70321e-05
1.7486e-05
1.74522e-05
1.76202e-05
1.76862e-05
1.7281e-05
1.68277e-05
1.65693e-05
1.65699e-05
1.68286e-05
1.7284e-05
1.76885e-05
1.76198e-05
1.78867e-05
1.80039e-05
1.77587e-05
1.72984e-05
1.70376e-05
1.70382e-05
1.72996e-05
1.77611e-05
1.80063e-05
1.78869e-05
1.84011e-05
1.82206e-05
1.80879e-05
1.77104e-05
1.7491e-05
1.74909e-05
1.77109e-05
1.80885e-05
1.82209e-05
1.83998e-05
2.04645e-05
1.84386e-05
1.7914e-05
1.76276e-05
1.74537e-05
1.74531e-05
1.76251e-05
1.79099e-05
1.84339e-05
2.0459e-05
1.85454e-05
1.84061e-05
1.75362e-05
1.72093e-05
1.7035e-05
1.70365e-05
1.72148e-05
1.75605e-05
1.84396e-05
1.8543e-05
1.84401e-05
1.78174e-05
1.76041e-05
1.73152e-05
1.71251e-05
1.71308e-05
1.734e-05
1.76902e-05
1.78213e-05
1.84049e-05
1.75612e-05
1.76869e-05
1.74017e-05
1.69559e-05
1.6715e-05
1.67204e-05
1.69745e-05
1.74063e-05
1.7609e-05
1.75366e-05
1.7217e-05
1.73379e-05
1.69714e-05
1.65261e-05
1.62687e-05
1.62756e-05
1.65282e-05
1.69591e-05
1.73188e-05
1.721e-05
1.70387e-05
1.71298e-05
1.67184e-05
1.62743e-05
1.60546e-05
1.60548e-05
1.62686e-05
1.67163e-05
1.71281e-05
1.70373e-05
1.70373e-05
1.71258e-05
1.67149e-05
1.62686e-05
1.60548e-05
1.60551e-05
1.62685e-05
1.67161e-05
1.71281e-05
1.70375e-05
1.72104e-05
1.73161e-05
1.69563e-05
1.65273e-05
1.62764e-05
1.62772e-05
1.65283e-05
1.69589e-05
1.73184e-05
1.72103e-05
1.75373e-05
1.76065e-05
1.7404e-05
1.69734e-05
1.67214e-05
1.6722e-05
1.69746e-05
1.74061e-05
1.76085e-05
1.75373e-05
1.84078e-05
1.78209e-05
1.76897e-05
1.73405e-05
1.71328e-05
1.71327e-05
1.73408e-05
1.76899e-05
1.78208e-05
1.84058e-05
1.85506e-05
1.84434e-05
1.75646e-05
1.72188e-05
1.70395e-05
1.70389e-05
1.72158e-05
1.75601e-05
1.84388e-05
1.85436e-05
1.34212e-05
1.85672e-05
1.73212e-05
1.68702e-05
1.66725e-05
1.66733e-05
1.68748e-05
1.73436e-05
1.85983e-05
1.34157e-05
1.85997e-05
1.74892e-05
1.72313e-05
1.69614e-05
1.67815e-05
1.67863e-05
1.69842e-05
1.73129e-05
1.74887e-05
1.85622e-05
1.73459e-05
1.73123e-05
1.70618e-05
1.66434e-05
1.64109e-05
1.64157e-05
1.66604e-05
1.70638e-05
1.72321e-05
1.73187e-05
1.68776e-05
1.69833e-05
1.66588e-05
1.6237e-05
1.5987e-05
1.59934e-05
1.62378e-05
1.66446e-05
1.69619e-05
1.68688e-05
1.66756e-05
1.67854e-05
1.64143e-05
1.59927e-05
1.57792e-05
1.5779e-05
1.59861e-05
1.64108e-05
1.6782e-05
1.66727e-05
1.66739e-05
1.6781e-05
1.64105e-05
1.59869e-05
1.57794e-05
1.57794e-05
1.59861e-05
1.64107e-05
1.6782e-05
1.66725e-05
1.68698e-05
1.69603e-05
1.66429e-05
1.62379e-05
1.59948e-05
1.59952e-05
1.62383e-05
1.66446e-05
1.69615e-05
1.68684e-05
1.73193e-05
1.72309e-05
1.70627e-05
1.66602e-05
1.64172e-05
1.64175e-05
1.66607e-05
1.70637e-05
1.72316e-05
1.73182e-05
1.85644e-05
1.74892e-05
1.73133e-05
1.69851e-05
1.6788e-05
1.67877e-05
1.69845e-05
1.73123e-05
1.74877e-05
1.85616e-05
1.3424e-05
1.86022e-05
1.73472e-05
1.68776e-05
1.66745e-05
1.66736e-05
1.68742e-05
1.7342e-05
1.85963e-05
1.34148e-05
2.92554e-05
1.84527e-05
1.72483e-05
1.66161e-05
1.63733e-05
1.63755e-05
1.66245e-05
1.72755e-05
1.84888e-05
2.92027e-05
1.8487e-05
1.72456e-05
1.68835e-05
1.66214e-05
1.64516e-05
1.64576e-05
1.66477e-05
1.69687e-05
1.72497e-05
1.84545e-05
1.72743e-05
1.69647e-05
1.67353e-05
1.6343e-05
1.61204e-05
1.61263e-05
1.63624e-05
1.67404e-05
1.68894e-05
1.72508e-05
1.66244e-05
1.66447e-05
1.63588e-05
1.59608e-05
1.57194e-05
1.57264e-05
1.59636e-05
1.63472e-05
1.66266e-05
1.66194e-05
1.63759e-05
1.64557e-05
1.6124e-05
1.57249e-05
1.55185e-05
1.55192e-05
1.57201e-05
1.61228e-05
1.64556e-05
1.6377e-05
1.63746e-05
1.64513e-05
1.612e-05
1.57192e-05
1.55191e-05
1.55197e-05
1.57203e-05
1.61229e-05
1.64556e-05
1.63769e-05
1.66173e-05
1.66215e-05
1.63432e-05
1.59623e-05
1.57278e-05
1.5729e-05
1.59646e-05
1.63476e-05
1.66264e-05
1.66194e-05
1.72494e-05
1.6885e-05
1.67372e-05
1.63612e-05
1.61282e-05
1.61293e-05
1.63638e-05
1.67412e-05
1.68894e-05
1.7251e-05
1.84558e-05
1.72477e-05
1.69675e-05
1.66482e-05
1.64605e-05
1.6461e-05
1.66498e-05
1.69696e-05
1.72499e-05
1.84553e-05
2.92085e-05
1.84927e-05
1.72791e-05
1.66282e-05
1.6379e-05
1.63786e-05
1.66259e-05
1.72755e-05
1.84882e-05
2.92018e-05
9.20064e-05
1.70817e-05
1.7283e-05
1.64751e-05
1.61635e-05
1.61649e-05
1.64824e-05
1.73088e-05
1.71108e-05
9.19031e-05
1.71115e-05
1.71001e-05
1.65801e-05
1.6305e-05
1.61402e-05
1.61452e-05
1.63289e-05
1.66609e-05
1.71011e-05
1.70799e-05
1.73079e-05
1.66585e-05
1.64256e-05
1.60566e-05
1.5843e-05
1.58481e-05
1.60741e-05
1.64282e-05
1.65819e-05
1.72829e-05
1.64807e-05
1.63255e-05
1.60716e-05
1.56967e-05
1.54631e-05
1.54695e-05
1.56978e-05
1.60581e-05
1.6306e-05
1.64752e-05
1.61619e-05
1.6141e-05
1.58453e-05
1.54682e-05
1.52686e-05
1.52687e-05
1.54622e-05
1.58429e-05
1.61403e-05
1.61636e-05
1.61595e-05
1.61356e-05
1.58405e-05
1.54621e-05
1.52687e-05
1.5269e-05
1.54623e-05
1.58428e-05
1.61402e-05
1.61632e-05
1.64701e-05
1.62997e-05
1.6054e-05
1.56965e-05
1.54705e-05
1.54713e-05
1.56984e-05
1.60582e-05
1.63056e-05
1.64745e-05
1.72777e-05
1.65755e-05
1.64241e-05
1.60724e-05
1.5849e-05
1.58499e-05
1.60747e-05
1.64283e-05
1.65814e-05
1.7282e-05
1.70778e-05
1.70964e-05
1.66582e-05
1.63279e-05
1.61461e-05
1.61466e-05
1.63296e-05
1.66612e-05
1.71008e-05
1.70795e-05
9.18981e-05
1.71131e-05
1.73091e-05
1.64828e-05
1.61651e-05
1.61652e-05
1.64824e-05
1.73086e-05
1.71099e-05
9.19021e-05
0.000217158
1.38912e-05
1.72015e-05
1.64192e-05
1.60373e-05
1.60384e-05
1.64257e-05
1.72247e-05
1.39163e-05
0.00021696
1.39255e-05
1.69961e-05
1.63316e-05
1.60131e-05
1.58472e-05
1.58513e-05
1.60342e-05
1.64063e-05
1.69906e-05
1.38937e-05
1.72312e-05
1.64125e-05
1.61378e-05
1.57864e-05
1.55802e-05
1.55841e-05
1.57998e-05
1.61333e-05
1.63279e-05
1.71998e-05
1.64302e-05
1.60401e-05
1.58045e-05
1.54494e-05
1.52221e-05
1.52268e-05
1.54458e-05
1.57831e-05
1.60103e-05
1.64172e-05
1.60413e-05
1.58561e-05
1.5588e-05
1.52296e-05
1.50349e-05
1.50334e-05
1.52185e-05
1.55767e-05
1.58445e-05
1.60353e-05
1.60388e-05
1.58506e-05
1.5583e-05
1.52236e-05
1.5035e-05
1.50336e-05
1.52184e-05
1.55765e-05
1.5844e-05
1.60348e-05
1.64191e-05
1.60142e-05
1.57872e-05
1.54492e-05
1.52296e-05
1.52285e-05
1.54459e-05
1.57825e-05
1.60091e-05
1.64162e-05
1.72019e-05
1.63301e-05
1.61365e-05
1.58025e-05
1.55863e-05
1.55854e-05
1.57997e-05
1.61325e-05
1.63262e-05
1.71978e-05
1.39015e-05
1.69933e-05
1.64096e-05
1.60369e-05
1.58534e-05
1.58525e-05
1.60344e-05
1.64058e-05
1.69893e-05
1.38933e-05
0.000216954
1.39205e-05
1.72269e-05
1.64278e-05
1.60399e-05
1.60394e-05
1.64261e-05
1.72255e-05
1.39167e-05
0.000216959
0.00042647
2.00873e-05
1.64816e-05
1.63479e-05
1.59588e-05
1.59583e-05
1.63503e-05
1.64949e-05
2.01116e-05
0.000426153
2.01179e-05
1.67475e-05
1.61402e-05
1.57456e-05
1.55708e-05
1.55746e-05
1.5765e-05
1.62116e-05
1.67371e-05
2.007e-05
1.65114e-05
1.62212e-05
1.5859e-05
1.55207e-05
1.53223e-05
1.53256e-05
1.55328e-05
1.58524e-05
1.6133e-05
1.64751e-05
1.63619e-05
1.5773e-05
1.55389e-05
1.52037e-05
1.49843e-05
1.49887e-05
1.51992e-05
1.55157e-05
1.574e-05
1.63422e-05
1.59664e-05
1.5581e-05
1.53305e-05
1.4992e-05
1.48042e-05
1.48023e-05
1.49803e-05
1.53179e-05
1.5566e-05
1.5954e-05
1.59636e-05
1.55756e-05
1.53261e-05
1.49865e-05
1.48048e-05
1.48031e-05
1.49806e-05
1.5318e-05
1.5566e-05
1.59535e-05
1.63507e-05
1.57489e-05
1.55226e-05
1.5205e-05
1.4993e-05
1.49917e-05
1.52004e-05
1.55162e-05
1.57397e-05
1.63409e-05
1.6484e-05
1.61418e-05
1.586e-05
1.55386e-05
1.53304e-05
1.53289e-05
1.55342e-05
1.58529e-05
1.61326e-05
1.64718e-05
2.00647e-05
1.67475e-05
1.62198e-05
1.57713e-05
1.55786e-05
1.55769e-05
1.57662e-05
1.6212e-05
1.67369e-05
2.00725e-05
0.000426167
2.01026e-05
1.65062e-05
1.63569e-05
1.59608e-05
1.5959e-05
1.63512e-05
1.64983e-05
2.01135e-05
0.000426155
0.000732147
5.37829e-05
1.45069e-05
1.59853e-05
1.57968e-05
1.57987e-05
1.59937e-05
1.4527e-05
5.38362e-05
0.000731731
5.38479e-05
1.59858e-05
1.60008e-05
1.55099e-05
1.53186e-05
1.5325e-05
1.55368e-05
1.60829e-05
1.59899e-05
5.37252e-05
1.45353e-05
1.60818e-05
1.55999e-05
1.52655e-05
1.50757e-05
1.50815e-05
1.52839e-05
1.56025e-05
1.60058e-05
1.45179e-05
1.59986e-05
1.55366e-05
1.52828e-05
1.49668e-05
1.47574e-05
1.4764e-05
1.49684e-05
1.52685e-05
1.55144e-05
1.59903e-05
1.58018e-05
1.53261e-05
1.50818e-05
1.47639e-05
1.4585e-05
1.45853e-05
1.4758e-05
1.50778e-05
1.53221e-05
1.57999e-05
1.58004e-05
1.5322e-05
1.50783e-05
1.47593e-05
1.45865e-05
1.45867e-05
1.47591e-05
1.50787e-05
1.5323e-05
1.58004e-05
1.59921e-05
1.55152e-05
1.52693e-05
1.49709e-05
1.47683e-05
1.47693e-05
1.4972e-05
1.52716e-05
1.5517e-05
1.59919e-05
1.45203e-05
1.60083e-05
1.56055e-05
1.52877e-05
1.50878e-05
1.50884e-05
1.52891e-05
1.56074e-05
1.60099e-05
1.45185e-05
5.37104e-05
1.59955e-05
1.6088e-05
1.55426e-05
1.53325e-05
1.53327e-05
1.55435e-05
1.60891e-05
1.59969e-05
5.37208e-05
0.000731731
5.3801e-05
1.45416e-05
1.60043e-05
1.58065e-05
1.58058e-05
1.60013e-05
1.45387e-05
5.38165e-05
0.000731724
0.00113134
0.000122233
1.39305e-05
1.49191e-05
1.52729e-05
1.52751e-05
1.49274e-05
1.39476e-05
0.000122332
0.00113092
0.000122369
1.44258e-05
1.58813e-05
1.53116e-05
1.50912e-05
1.5098e-05
1.53397e-05
1.59659e-05
1.44325e-05
0.000122113
1.39546e-05
1.59613e-05
1.53681e-05
1.50187e-05
1.48327e-05
1.4839e-05
1.50386e-05
1.53737e-05
1.58898e-05
1.39281e-05
1.49296e-05
1.53358e-05
1.50346e-05
1.47321e-05
1.45306e-05
1.45375e-05
1.47354e-05
1.50234e-05
1.53172e-05
1.49261e-05
1.52754e-05
1.50952e-05
1.48363e-05
1.45359e-05
1.43641e-05
1.43649e-05
1.45315e-05
1.48352e-05
1.50949e-05
1.52771e-05
1.52734e-05
1.50901e-05
1.4832e-05
1.45305e-05
1.43649e-05
1.43655e-05
1.45321e-05
1.48356e-05
1.50952e-05
1.52775e-05
1.49218e-05
1.53114e-05
1.50188e-05
1.4734e-05
1.45393e-05
1.45409e-05
1.47369e-05
1.50247e-05
1.53186e-05
1.49263e-05
1.39213e-05
1.58836e-05
1.53698e-05
1.50374e-05
1.48416e-05
1.48429e-05
1.5041e-05
1.53761e-05
1.58914e-05
1.39272e-05
0.000122108
1.44269e-05
1.5963e-05
1.53396e-05
1.51012e-05
1.51024e-05
1.53431e-05
1.59692e-05
1.44345e-05
0.000122107
0.00113088
0.000122289
1.39472e-05
1.49311e-05
1.5278e-05
1.52788e-05
1.49326e-05
1.39419e-05
0.000122294
0.00113091
0.00160746
0.000237511
2.74711e-05
1.33136e-05
1.40694e-05
1.40726e-05
1.33218e-05
2.74979e-05
0.000237657
0.0016071
0.00023773
1.32969e-05
1.56748e-05
1.51398e-05
1.48906e-05
1.48978e-05
1.51693e-05
1.57604e-05
1.3298e-05
0.000237308
2.75098e-05
1.57536e-05
1.51752e-05
1.47872e-05
1.4601e-05
1.46079e-05
1.48082e-05
1.51825e-05
1.56866e-05
2.74279e-05
1.33228e-05
1.51632e-05
1.48022e-05
1.45074e-05
1.43138e-05
1.43207e-05
1.45116e-05
1.47922e-05
1.51458e-05
1.33189e-05
1.40718e-05
1.48929e-05
1.46035e-05
1.43182e-05
1.41538e-05
1.41549e-05
1.4314e-05
1.46022e-05