/*--------------------------------*- C++ -*----------------------------------*\
| =========                 |                                                 |
| \\      /  F ield         | OpenFOAM: The Open Source CFD Toolbox           |
|  \\    /   O peration     | Version:  2406                                  |
|   \\  /    A nd           | Website:  www.openfoam.com                      |
|    \\/     M anipulation  |                                                 |
\*---------------------------------------------------------------------------*/
FoamFile
{
    version     2.0;
    format      ascii;
    arch        "LSB;label=32;scalar=64";
    class       volVectorField;
    location    "300";
    object      momentError;
}
// * * * * * * * * * * * * * * * * * * * * * * * * * * * * * * * * * * * * * //

dimensions      [0 1 -2 0 0 0 0];

internalField   nonuniform List<vector> 
25000
(
(0.000217598 0.00060376 -0.000238618)
(-0.00258373 -0.00020891 -0.000126794)
(-0.00119626 8.50979e-05 -1.93639e-05)
(-0.000548375 7.78249e-05 6.78323e-06)
(-0.000290527 4.14832e-05 1.62906e-05)
(-0.000179719 2.30839e-05 2.01644e-05)
(-0.000128597 1.01858e-05 2.22427e-05)
(-0.00010248 7.88801e-06 2.48292e-05)
(-9.21873e-05 1.43239e-05 2.77009e-05)
(-7.89774e-05 -6.16077e-06 3.12788e-05)
(-0.000482133 -0.00236681 -0.000137673)
(-0.00126234 -0.000985186 -7.29816e-05)
(-0.00079429 -0.000289048 -2.04106e-05)
(-0.000460034 -8.39622e-05 3.11117e-06)
(-0.000270813 -2.44394e-05 1.34988e-05)
(-0.000172085 -6.03361e-06 1.79247e-05)
(-0.000123278 -1.0834e-06 2.02464e-05)
(-9.66078e-05 1.78953e-06 2.26383e-05)
(-8.58082e-05 3.91083e-06 2.586e-05)
(-7.02223e-05 5.1324e-06 3.03473e-05)
(-6.53925e-05 -0.00116819 -2.37484e-05)
(-0.000502794 -0.000667901 -2.37906e-05)
(-0.000450601 -0.000299668 -5.63081e-06)
(-0.000318602 -0.000130501 7.11966e-06)
(-0.000213347 -5.74786e-05 1.42547e-05)
(-0.000146041 -2.78495e-05 1.7615e-05)
(-0.000108146 -1.49167e-05 1.96031e-05)
(-8.57856e-05 -8.27093e-06 2.18806e-05)
(-7.42416e-05 -3.46106e-06 2.49179e-05)
(-6.42823e-05 8.34699e-07 2.91584e-05)
(8.33573e-06 -0.000579477 7.93871e-06)
(-0.0002224 -0.000411702 2.21964e-06)
(-0.000258375 -0.000230538 6.99789e-06)
(-0.000217237 -0.000121237 1.24516e-05)
(-0.000161642 -6.33092e-05 1.63255e-05)
(-0.000119586 -3.51042e-05 1.83835e-05)
(-9.29173e-05 -2.12341e-05 1.97598e-05)
(-7.53533e-05 -1.36341e-05 2.17202e-05)
(-6.49524e-05 -9.18053e-06 2.45766e-05)
(-5.65719e-05 -4.97294e-06 2.86768e-05)
(3.14977e-05 -0.000333828 2.23207e-05)
(-0.000108891 -0.000263453 1.53561e-05)
(-0.000157624 -0.000168923 1.52379e-05)
(-0.000148852 -9.98556e-05 1.69744e-05)
(-0.000122726 -5.79265e-05 1.86123e-05)
(-9.76188e-05 -3.52257e-05 1.95777e-05)
(-7.9757e-05 -2.31163e-05 2.04258e-05)
(-6.74164e-05 -1.66048e-05 2.21571e-05)
(-5.84458e-05 -1.28163e-05 2.48598e-05)
(-5.12308e-05 -1.04247e-05 2.88151e-05)
(2.79679e-05 -0.000223898 2.71672e-05)
(-5.42013e-05 -0.000184347 2.16491e-05)
(-9.93859e-05 -0.000127315 1.98906e-05)
(-0.000107437 -8.19523e-05 1.96899e-05)
(-9.58916e-05 -5.22469e-05 2.01762e-05)
(-8.19665e-05 -3.42059e-05 2.04559e-05)
(-7.10219e-05 -2.45482e-05 2.09906e-05)
(-6.20894e-05 -1.91649e-05 2.25261e-05)
(-5.5761e-05 -1.69762e-05 2.50998e-05)
(-4.97541e-05 -1.63066e-05 2.9046e-05)
(3.27702e-05 -0.000170365 2.91754e-05)
(-2.71935e-05 -0.00014282 2.42564e-05)
(-6.7543e-05 -0.000105275 2.21086e-05)
(-8.02776e-05 -7.35355e-05 2.1294e-05)
(-7.82096e-05 -5.08915e-05 2.11489e-05)
(-7.11231e-05 -3.67976e-05 2.11349e-05)
(-6.52672e-05 -2.88683e-05 2.14232e-05)
(-6.05364e-05 -2.45158e-05 2.28408e-05)
(-5.68418e-05 -2.33277e-05 2.54234e-05)
(-5.12314e-05 -2.40403e-05 2.92916e-05)
(3.13427e-05 -0.000141571 2.99645e-05)
(-9.82544e-06 -0.000123888 2.6045e-05)
(-4.57022e-05 -9.62853e-05 2.39508e-05)
(-6.21475e-05 -7.36949e-05 2.28796e-05)
(-6.4541e-05 -5.5548e-05 2.25565e-05)
(-6.30468e-05 -4.44861e-05 2.23384e-05)
(-6.11865e-05 -3.71869e-05 2.25378e-05)
(-5.92591e-05 -3.38161e-05 2.38628e-05)
(-5.94473e-05 -3.23849e-05 2.63382e-05)
(-5.49441e-05 -3.32819e-05 3.02637e-05)
(4.13646e-05 -0.000130492 3.08303e-05)
(-1.99754e-06 -0.000121192 2.7736e-05)
(-3.27965e-05 -9.99361e-05 2.603e-05)
(-4.89034e-05 -7.96376e-05 2.49074e-05)
(-5.45102e-05 -6.4353e-05 2.45414e-05)
(-5.58975e-05 -5.43878e-05 2.43303e-05)
(-5.72918e-05 -4.88264e-05 2.44298e-05)
(-5.89766e-05 -4.62849e-05 2.57257e-05)
(-6.2402e-05 -4.54661e-05 2.80713e-05)
(-6.03365e-05 -4.33381e-05 3.19244e-05)
(-9.95666e-07 -0.000112825 3.14889e-05)
(-6.13968e-06 -0.00010775 3.03885e-05)
(-2.37077e-05 -0.000100956 2.85666e-05)
(-3.80417e-05 -8.50489e-05 2.75565e-05)
(-4.5179e-05 -7.0824e-05 2.72906e-05)
(-4.95216e-05 -6.12028e-05 2.71996e-05)
(-5.38448e-05 -5.51945e-05 2.74968e-05)
(-5.66056e-05 -5.20653e-05 2.89047e-05)
(-6.05277e-05 -5.31742e-05 3.11131e-05)
(-5.01833e-05 -3.89223e-05 3.37577e-05)
(0.000193492 0.00127456 -0.00184723)
(-0.00703024 -0.000544746 -0.000728286)
(-0.00324205 -9.37414e-05 -0.000352656)
(-0.00178038 2.25191e-05 -0.000196944)
(-0.00106886 -2.6983e-05 -0.000135004)
(-0.000702864 -2.60929e-05 -0.000107131)
(-0.000477587 -6.4692e-05 -9.41356e-05)
(-0.000342005 -6.85682e-05 -8.46803e-05)
(-0.000230656 -8.75343e-05 -7.74586e-05)
(-0.000135072 -9.77358e-05 -6.58756e-05)
(-0.00197443 -0.00626258 -0.000844007)
(-0.00326688 -0.00222618 -0.000558182)
(-0.0023724 -0.000868055 -0.000341495)
(-0.00156465 -0.000341858 -0.000216646)
(-0.00101755 -0.000173202 -0.000151636)
(-0.000677337 -0.000105811 -0.000119356)
(-0.000478071 -8.19076e-05 -0.000102063)
(-0.000334331 -7.56668e-05 -9.11966e-05)
(-0.000233983 -7.75691e-05 -8.23978e-05)
(-0.000156076 -8.70289e-05 -7.17111e-05)
(-0.000797779 -0.00304045 -0.000481951)
(-0.00177913 -0.00178694 -0.000397321)
(-0.00160574 -0.000898398 -0.00028206)
(-0.00121269 -0.000453436 -0.00020031)
(-0.00087328 -0.000238368 -0.000149642)
(-0.000615298 -0.000147585 -0.000120669)
(-0.000438474 -0.000102729 -0.000104076)
(-0.000323053 -8.21717e-05 -9.29746e-05)
(-0.000230714 -7.67471e-05 -8.49501e-05)
(-0.000157349 -7.67982e-05 -7.57006e-05)
(-0.000402843 -0.00182852 -0.000303989)
(-0.000982836 -0.0012645 -0.000287245)
(-0.0010783 -0.000753145 -0.000231305)
(-0.000941278 -0.00042733 -0.000178729)
(-0.000724693 -0.000247134 -0.000141773)
(-0.00054226 -0.000153458 -0.000118439)
(-0.000406813 -0.000106674 -0.000103774)
(-0.000300285 -8.34303e-05 -9.38788e-05)
(-0.000221012 -7.25468e-05 -8.66504e-05)
(-0.000154374 -6.97775e-05 -7.90075e-05)
(-0.00014244 -0.0011873 -0.000216287)
(-0.000624886 -0.000910324 -0.000220451)
(-0.00076724 -0.000602644 -0.000191058)
(-0.00071611 -0.000371738 -0.000159304)
(-0.000605181 -0.000226264 -0.000133317)
(-0.00047695 -0.000147055 -0.000115009)
(-0.000367782 -0.000100951 -0.000102791)
(-0.000286444 -7.7774e-05 -9.38793e-05)
(-0.00021462 -6.70409e-05 -8.71494e-05)
(-0.000149875 -6.09492e-05 -8.07101e-05)
(-7.86789e-05 -0.000863365 -0.000163772)
(-0.000380388 -0.000685344 -0.000174857)
(-0.000542524 -0.000479734 -0.000163255)
(-0.000567707 -0.000315161 -0.000143685)
(-0.000501459 -0.000208113 -0.000125794)
(-0.000418672 -0.000135488 -0.000111932)
(-0.000339026 -9.69422e-05 -0.000101664)
(-0.000267254 -7.45311e-05 -9.35655e-05)
(-0.000204899 -6.13847e-05 -8.75413e-05)
(-0.000144029 -5.30167e-05 -8.06714e-05)
(1.59054e-05 -0.000654907 -0.000130929)
(-0.000257667 -0.000538179 -0.000145895)
(-0.000403446 -0.000408181 -0.000141583)
(-0.000442921 -0.000289901 -0.000131323)
(-0.000422858 -0.000204189 -0.000119206)
(-0.000365495 -0.000145802 -0.000108935)
(-0.000308323 -0.000108139 -0.000100556)
(-0.000253302 -8.2193e-05 -9.33663e-05)
(-0.00019647 -6.69622e-05 -8.65905e-05)
(-0.000134345 -5.06966e-05 -7.92756e-05)
(2.08214e-05 -0.000524538 -0.000105776)
(-0.000165362 -0.000466577 -0.00012149)
(-0.000303179 -0.000370413 -0.000124028)
(-0.000360053 -0.000301537 -0.000118982)
(-0.000352577 -0.000229823 -0.000111794)
(-0.000321588 -0.000183293 -0.000104605)
(-0.000277964 -0.000139046 -9.78784e-05)
(-0.000231513 -0.000109715 -9.12239e-05)
(-0.000180916 -8.02867e-05 -8.46875e-05)
(-0.000121768 -5.61998e-05 -7.53813e-05)
(2.65021e-05 -0.000414524 -8.57719e-05)
(-0.000140653 -0.000408686 -0.000101377)
(-0.00024921 -0.000372591 -0.000106066)
(-0.000297936 -0.000319117 -0.000105604)
(-0.000298067 -0.000272109 -0.000102352)
(-0.000273216 -0.000224218 -9.78389e-05)
(-0.000238384 -0.000178172 -9.34497e-05)
(-0.000202978 -0.00013617 -8.74397e-05)
(-0.000154335 -9.45628e-05 -8.06727e-05)
(-0.000106434 -5.39252e-05 -7.07228e-05)
(-7.01452e-05 -0.000309728 -6.59618e-05)
(-0.000162785 -0.000374169 -7.80841e-05)
(-0.000222149 -0.00035936 -8.51006e-05)
(-0.000252701 -0.000330736 -8.88786e-05)
(-0.00024853 -0.000291123 -8.95263e-05)
(-0.000223868 -0.000249637 -8.83448e-05)
(-0.000192033 -0.000198087 -8.52876e-05)
(-0.000156151 -0.000146244 -7.99066e-05)
(-0.000110425 -9.46833e-05 -7.35392e-05)
(-5.98063e-05 -3.96145e-05 -6.29982e-05)
(-0.000719948 -0.000485301 -0.000871845)
(0.00119617 -1.6841e-05 -0.000564544)
(2.0141e-05 -0.000215117 -0.000438256)
(-0.000150917 -0.000159574 -0.000352933)
(-0.000194455 -0.000120359 -0.000312048)
(-0.00018014 -7.73436e-05 -0.000290844)
(-0.000140278 -7.10591e-05 -0.000283859)
(-0.000105856 -7.01316e-05 -0.000285148)
(-6.19919e-05 -8.36448e-05 -0.000294384)
(-5.46144e-06 -0.000113767 -0.000304983)
(-0.000221675 0.0013703 -0.000652751)
(4.79376e-06 0.000198748 -0.000529276)
(-0.000125933 -7.62714e-06 -0.00042613)
(-0.000172652 -6.53845e-05 -0.000353179)
(-0.000175386 -7.07823e-05 -0.000309394)
(-0.000156177 -5.69096e-05 -0.000286392)
(-0.000134909 -4.55876e-05 -0.000275926)
(-0.000104543 -4.45768e-05 -0.000276762)
(-7.61783e-05 -5.09171e-05 -0.000287244)
(-3.74844e-05 -7.64107e-05 -0.000303799)
(-0.000356699 0.000172541 -0.000562263)
(-0.000189697 5.11795e-05 -0.000480885)
(-0.000196859 -3.40984e-06 -0.000401415)
(-0.000195582 -3.34048e-05 -0.00034288)
(-0.000178782 -3.69318e-05 -0.000303824)
(-0.000153195 -3.60005e-05 -0.000280418)
(-0.000127918 -3.1836e-05 -0.000270083)
(-0.000110459 -3.21832e-05 -0.000270839)
(-8.98266e-05 -4.20235e-05 -0.000282075)
(-6.31529e-05 -6.22685e-05 -0.0003013)
(-0.000268492 -3.60393e-05 -0.000481557)
(-0.000217394 -2.57623e-05 -0.000435363)
(-0.000211272 -3.07577e-05 -0.000380773)
(-0.000203629 -2.94999e-05 -0.000332594)
(-0.000177163 -2.69046e-05 -0.000298424)
(-0.000151457 -2.40246e-05 -0.00027714)
(-0.000131244 -2.28365e-05 -0.000266979)
(-0.000112997 -2.53637e-05 -0.000268237)
(-9.97971e-05 -3.1059e-05 -0.000280216)
(-8.51505e-05 -4.60897e-05 -0.000301054)
(-0.000178313 -0.000104412 -0.000432941)
(-0.000204177 -6.37744e-05 -0.000403344)
(-0.000205126 -4.62065e-05 -0.00036142)
(-0.000192459 -3.3646e-05 -0.000324074)
(-0.000173896 -2.40987e-05 -0.000295067)
(-0.00014986 -2.06811e-05 -0.000275852)
(-0.000129638 -1.81701e-05 -0.000266761)
(-0.000117506 -1.87002e-05 -0.000268492)
(-0.000107432 -2.26806e-05 -0.000281031)
(-9.67902e-05 -2.69861e-05 -0.0003028)
(-0.000135475 -0.000111776 -0.000394901)
(-0.000168214 -7.5497e-05 -0.000375834)
(-0.000183639 -5.364e-05 -0.000346894)
(-0.000182164 -3.69981e-05 -0.000316595)
(-0.000164424 -2.84568e-05 -0.000292708)
(-0.000146016 -2.05957e-05 -0.000276075)
(-0.000129832 -1.82686e-05 -0.000268398)
(-0.000117382 -1.73445e-05 -0.000270765)
(-0.000106953 -1.40843e-05 -0.000283538)
(-9.28216e-05 -8.04524e-06 -0.000305629)
(-0.000104762 -9.07834e-05 -0.00036848)
(-0.000150909 -7.22233e-05 -0.000356369)
(-0.000166928 -6.02764e-05 -0.000333743)
(-0.000166251 -4.81104e-05 -0.0003113)
(-0.000156591 -3.95874e-05 -0.000291657)
(-0.000139696 -3.321e-05 -0.000278315)
(-0.000127267 -2.86196e-05 -0.00027181)
(-0.000114703 -2.24199e-05 -0.000274837)
(-0.000100463 -1.35663e-05 -0.000287799)
(-7.53027e-05 6.36758e-06 -0.000309281)
(-0.000120809 -6.49018e-05 -0.000349161)
(-0.00014125 -7.26539e-05 -0.000341294)
(-0.000158458 -6.66303e-05 -0.000326065)
(-0.000159016 -7.01142e-05 -0.000308447)
(-0.000147899 -6.325e-05 -0.000293842)
(-0.000135072 -6.04513e-05 -0.000282909)
(-0.000120828 -5.03533e-05 -0.000278474)
(-0.000106003 -3.90321e-05 -0.000282071)
(-8.46236e-05 -1.90196e-05 -0.000294543)
(-4.39511e-05 1.25013e-05 -0.000314566)
(-0.000144961 -3.28126e-05 -0.000338641)
(-0.000156453 -6.09865e-05 -0.000333573)
(-0.000164587 -7.77289e-05 -0.000322487)
(-0.000160913 -8.89946e-05 -0.000309852)
(-0.000145368 -9.52177e-05 -0.000299159)
(-0.000127277 -9.1822e-05 -0.000291617)
(-0.000108655 -7.8748e-05 -0.00028898)
(-8.92383e-05 -5.70949e-05 -0.000293067)
(-6.12505e-05 -2.73458e-05 -0.000304725)
(-1.21353e-05 1.66601e-05 -0.000321816)
(-0.000196069 5.62273e-06 -0.000331221)
(-0.000193312 -4.13033e-05 -0.000329998)
(-0.00018993 -6.8543e-05 -0.000322435)
(-0.000175863 -9.97584e-05 -0.000314337)
(-0.00014959 -0.000115032 -0.000307801)
(-0.000118732 -0.000116466 -0.000303533)
(-8.82197e-05 -9.58315e-05 -0.000302943)
(-5.83972e-05 -5.88594e-05 -0.000307474)
(-2.25698e-05 -1.80997e-05 -0.000317185)
(3.39649e-05 4.1503e-05 -0.000327715)
(0.000159319 0.000194812 -3.98828e-05)
(-0.000502492 -8.29927e-06 -0.000215831)
(-0.000229612 3.05323e-05 -0.000260018)
(-9.78927e-05 6.13068e-05 -0.000250832)
(-0.000133213 7.5643e-05 -0.000243686)
(-0.00017374 0.00010711 -0.000242704)
(-0.000209034 0.000124621 -0.000251573)
(-0.000251089 0.000138721 -0.000268916)
(-0.000290937 0.000131444 -0.000295215)
(-0.000313287 9.90658e-05 -0.000328133)
(2.24165e-06 -0.000465775 -0.00024453)
(-0.000193087 -0.000133187 -0.000251263)
(-0.000129602 2.60595e-05 -0.000252304)
(-0.000104937 3.31268e-05 -0.000242465)
(-0.000122143 3.86638e-05 -0.000235822)
(-0.000150882 5.19522e-05 -0.000235587)
(-0.000195187 6.758e-05 -0.000243134)
(-0.000244722 7.27071e-05 -0.000261206)
(-0.000303829 7.03414e-05 -0.000290278)
(-0.000366753 4.60894e-05 -0.000330598)
(0.000121699 -0.000216924 -0.000323411)
(-3.7964e-06 -8.30473e-05 -0.000282195)
(-7.25585e-05 -1.33863e-05 -0.000260418)
(-9.27296e-05 1.37646e-06 -0.000244314)
(-0.000112946 1.19852e-05 -0.000235384)
(-0.000142025 1.92363e-05 -0.000233902)
(-0.000185675 2.5866e-05 -0.000240769)
(-0.000246953 2.88798e-05 -0.000258704)
(-0.000317278 2.46716e-05 -0.000289294)
(-0.00039564 9.38104e-06 -0.000332145)
(0.000149808 -6.23947e-05 -0.000341399)
(3.13578e-05 -6.02526e-05 -0.000298362)
(-4.39522e-05 -3.61274e-05 -0.000269975)
(-8.05786e-05 -1.98367e-05 -0.00025078)
(-0.000103907 -1.05384e-05 -0.000239968)
(-0.000136328 -5.69389e-06 -0.000237018)
(-0.00018567 -1.90536e-06 -0.000243253)
(-0.000247509 -2.50024e-06 -0.000261105)
(-0.000326385 -6.61089e-06 -0.000291229)
(-0.000415459 -1.62073e-05 -0.000335393)
(0.000148153 -6.03683e-05 -0.000347886)
(3.77476e-05 -6.55457e-05 -0.000308877)
(-2.99904e-05 -5.17015e-05 -0.000279878)
(-6.68925e-05 -3.94473e-05 -0.000259376)
(-9.86402e-05 -3.09376e-05 -0.000247434)
(-0.000133222 -2.73688e-05 -0.00024394)
(-0.000183151 -2.67792e-05 -0.000248952)
(-0.000253597 -2.86564e-05 -0.000266209)
(-0.000335392 -3.34862e-05 -0.000297094)
(-0.000426936 -4.00729e-05 -0.000340934)
(0.000131048 -7.3966e-05 -0.000351926)
(4.31212e-05 -7.84543e-05 -0.00031722)
(-1.78834e-05 -7.14668e-05 -0.000288784)
(-6.01011e-05 -6.18905e-05 -0.000268499)
(-9.18525e-05 -5.74485e-05 -0.000256533)
(-0.00013202 -5.41224e-05 -0.000251894)
(-0.000187137 -5.48794e-05 -0.000257051)
(-0.000254847 -5.80233e-05 -0.000274077)
(-0.000338934 -6.0824e-05 -0.000303829)
(-0.00043006 -6.29238e-05 -0.000348301)
(0.000120211 -9.58444e-05 -0.000356806)
(3.81354e-05 -0.000103581 -0.000324799)
(-1.48283e-05 -0.00010602 -0.000298427)
(-5.34708e-05 -0.00010382 -0.000279053)
(-9.10715e-05 -0.000102542 -0.000267158)
(-0.000130565 -0.000101184 -0.00026317)
(-0.000186697 -0.000101995 -0.000267077)
(-0.000258686 -0.000101226 -0.000283327)
(-0.000338605 -9.95696e-05 -0.000313418)
(-0.00042154 -9.08709e-05 -0.000356758)
(9.07964e-05 -0.000131626 -0.000366518)
(3.01094e-05 -0.000153752 -0.000337258)
(-1.85423e-05 -0.000162285 -0.000312818)
(-5.60789e-05 -0.000174527 -0.000294986)
(-8.90365e-05 -0.000175636 -0.000284202)
(-0.000131617 -0.000178668 -0.000279354)
(-0.00018707 -0.000174111 -0.000283283)
(-0.000251644 -0.000167988 -0.000298332)
(-0.000325784 -0.000151902 -0.000325902)
(-0.000397324 -0.000127443 -0.000367711)
(6.78946e-05 -0.000180297 -0.000381692)
(9.26358e-06 -0.000218044 -0.000356755)
(-3.34859e-05 -0.000243655 -0.000335954)
(-6.45391e-05 -0.000261698 -0.000319684)
(-9.41839e-05 -0.000272801 -0.000309362)
(-0.000129393 -0.000275573 -0.000304628)
(-0.000176995 -0.000267236 -0.000306722)
(-0.000237474 -0.000249956 -0.00031939)
(-0.000298826 -0.000219928 -0.000343932)
(-0.000360729 -0.000172039 -0.000379526)
(1.72938e-05 -0.000233425 -0.000400889)
(-2.88559e-05 -0.000294677 -0.000385946)
(-5.81151e-05 -0.00032313 -0.000368954)
(-8.0684e-05 -0.000352469 -0.000354158)
(-0.000101244 -0.000370144 -0.000343839)
(-0.000126824 -0.000375813 -0.000337953)
(-0.000163989 -0.000364325 -0.000338541)
(-0.000205564 -0.000333713 -0.00034829)
(-0.000249172 -0.000287228 -0.000366172)
(-0.000277685 -0.000207236 -0.000391488)
(0.000233727 9.99513e-05 -1.76392e-06)
(0.00022823 0.000105074 -8.54351e-06)
(9.38248e-05 0.000114485 -2.35757e-05)
(5.20558e-05 0.000117366 -2.43004e-05)
(-9.75828e-05 0.000115742 -2.53729e-05)
(-0.000216771 0.00014936 -3.01009e-05)
(-0.000316253 0.000182761 -4.16313e-05)
(-0.000413251 0.000218072 -5.82676e-05)
(-0.00051209 0.00021082 -8.07023e-05)
(-0.00057538 0.000178226 -0.000109052)
(0.000291963 8.32283e-05 -2.67202e-05)
(0.000168388 4.30698e-05 -2.17339e-05)
(0.000104548 8.4158e-05 -2.88109e-05)
(1.21931e-05 4.28542e-05 -3.12053e-05)
(-9.26405e-05 3.53313e-05 -3.39186e-05)
(-0.000186008 4.79849e-05 -3.88798e-05)
(-0.000289639 7.49678e-05 -4.84296e-05)
(-0.000397241 8.95887e-05 -6.39488e-05)
(-0.00052509 8.99638e-05 -8.57239e-05)
(-0.000663193 6.51644e-05 -0.000114789)
(0.000361518 -4.2389e-05 -6.5235e-05)
(0.000236827 1.14701e-08 -4.68256e-05)
(9.83429e-05 5.29865e-06 -4.22218e-05)
(1.65753e-06 -1.41349e-05 -4.04676e-05)
(-9.00486e-05 -1.34602e-05 -4.16431e-05)
(-0.000175129 -5.76586e-06 -4.6091e-05)
(-0.000273214 6.1905e-06 -5.44954e-05)
(-0.000399109 1.59408e-05 -6.89288e-05)
(-0.000543486 1.78706e-05 -9.05579e-05)
(-0.000703624 8.31717e-06 -0.000118973)
(0.00037905 -1.52165e-05 -8.69461e-05)
(0.000225317 -4.69954e-05 -6.5015e-05)
(9.5016e-05 -5.40737e-05 -5.39754e-05)
(-4.64249e-06 -5.66871e-05 -4.95152e-05)
(-8.33626e-05 -5.26543e-05 -4.91153e-05)
(-0.000167457 -4.64261e-05 -5.22214e-05)
(-0.000271729 -3.72997e-05 -6.00608e-05)
(-0.000394024 -3.2606e-05 -7.40576e-05)
(-0.000548009 -3.03188e-05 -9.44039e-05)
(-0.000715394 -3.02076e-05 -0.000122489)
(0.000371121 -8.75413e-05 -0.000100286)
(0.000211223 -0.000101898 -7.76317e-05)
(9.3104e-05 -9.88496e-05 -6.48035e-05)
(4.90909e-06 -9.30772e-05 -5.7772e-05)
(-7.95682e-05 -8.55756e-05 -5.58598e-05)
(-0.000161211 -7.85525e-05 -5.84064e-05)
(-0.000263252 -7.37328e-05 -6.51312e-05)
(-0.000399481 -7.13064e-05 -7.84519e-05)
(-0.000554059 -7.28041e-05 -9.87927e-05)
(-0.000717765 -7.53519e-05 -0.000125804)
(0.000354485 -0.000151174 -0.000110847)
(0.000218139 -0.000147993 -8.80435e-05)
(0.000105244 -0.00014063 -7.28859e-05)
(9.38782e-06 -0.000131406 -6.48892e-05)
(-6.86835e-05 -0.000124881 -6.2072e-05)
(-0.000156311 -0.000117345 -6.3384e-05)
(-0.000266292 -0.000113716 -7.00136e-05)
(-0.000396154 -0.000113688 -8.29896e-05)
(-0.000556352 -0.000115079 -0.000102267)
(-0.000724301 -0.000120444 -0.000129128)
(0.000372761 -0.000216027 -0.000118374)
(0.000220171 -0.000206731 -9.52603e-05)
(0.000109486 -0.000205488 -8.02592e-05)
(2.10933e-05 -0.000200552 -7.11903e-05)
(-6.5075e-05 -0.000194974 -6.77638e-05)
(-0.00014987 -0.000188167 -6.89403e-05)
(-0.000259121 -0.000182332 -7.45593e-05)
(-0.000399201 -0.000176297 -8.70146e-05)
(-0.000557118 -0.000172378 -0.000106445)
(-0.000725637 -0.00016801 -0.000132438)
(0.00036973 -0.000291397 -0.00012524)
(0.000224294 -0.000303795 -0.00010319)
(0.000112333 -0.000309984 -8.77527e-05)
(2.19232e-05 -0.000317748 -7.90402e-05)
(-5.50837e-05 -0.000312217 -7.54162e-05)
(-0.000143269 -0.000304222 -7.57492e-05)
(-0.000253115 -0.000289923 -8.15147e-05)
(-0.000381861 -0.000272759 -9.30774e-05)
(-0.00053794 -0.000246574 -0.000111336)
(-0.000702347 -0.000214376 -0.00013678)
(0.000351335 -0.000385698 -0.000131355)
(0.000201335 -0.000430885 -0.000111679)
(0.000100698 -0.000460837 -9.81424e-05)
(2.42462e-05 -0.000468617 -8.95056e-05)
(-4.87813e-05 -0.000464525 -8.55993e-05)
(-0.000127175 -0.000451269 -8.61449e-05)
(-0.000227291 -0.000426627 -9.06324e-05)
(-0.00035196 -0.00039375 -0.000101662)
(-0.0004876 -0.000342302 -0.000118662)
(-0.000636839 -0.000271558 -0.000141256)
(0.00026002 -0.000479772 -0.00013884)
(0.000153322 -0.000579246 -0.000123555)
(8.63205e-05 -0.000616373 -0.000111446)
(2.90542e-05 -0.000626694 -0.000102807)
(-3.27031e-05 -0.000618566 -9.86875e-05)
(-0.000104713 -0.000598722 -9.85708e-05)
(-0.000196193 -0.000568977 -0.000103385)
(-0.000292646 -0.0005172 -0.000113771)
(-0.000401489 -0.000435129 -0.00012824)
(-0.000487713 -0.000318382 -0.000147816)
(0.000383293 2.49048e-05 0.000305433)
(0.000308944 -6.70479e-06 0.000255965)
(0.00023772 8.63385e-06 0.000227125)
(0.000142022 -9.00567e-06 0.000217755)
(-4.08557e-05 -1.1917e-05 0.000220004)
(-0.00019906 3.34563e-05 0.000228016)
(-0.000339691 9.29082e-05 0.000239299)
(-0.000470986 0.000167387 0.00025365)
(-0.000597716 0.000184166 0.000270095)
(-0.000658558 0.000158154 0.0002875)
(0.00045328 9.52301e-06 0.000262652)
(0.000339895 3.68147e-05 0.000242627)
(0.000237629 4.45883e-05 0.000219288)
(0.000106407 -7.89908e-06 0.000209146)
(-3.11048e-05 -1.74966e-05 0.000209559)
(-0.000157611 -2.42362e-06 0.000215908)
(-0.000296394 3.71461e-05 0.000226865)
(-0.000440551 6.75592e-05 0.00024217)
(-0.000603138 8.39653e-05 0.000261955)
(-0.000764014 7.14886e-05 0.000285894)
(0.000512257 1.93647e-05 0.000229702)
(0.000379943 3.02069e-05 0.000219414)
(0.000217494 9.17772e-06 0.000207019)
(9.15796e-05 -2.16736e-05 0.00020124)
(-2.85558e-05 -2.67747e-05 0.000202352)
(-0.000144593 -2.05016e-05 0.000208727)
(-0.000275983 -5.73662e-06 0.000219701)
(-0.00043578 1.0111e-05 0.000235796)
(-0.000613991 2.14954e-05 0.000257529)
(-0.000797884 2.37015e-05 0.000285677)
(0.000503471 4.65681e-05 0.00021251)
(0.000350688 -6.99501e-07 0.000205794)
(0.000200566 -2.50479e-05 0.00019895)
(7.84434e-05 -3.98715e-05 0.00019652)
(-2.70037e-05 -4.37376e-05 0.000198834)
(-0.000139161 -4.21653e-05 0.000205559)
(-0.000274092 -3.42188e-05 0.000216771)
(-0.000429195 -2.84642e-05 0.00023316)
(-0.000613548 -2.1409e-05 0.000255922)
(-0.000801815 -1.25642e-05 0.000286122)
(0.000479514 -1.7347e-05 0.00020573)
(0.00032539 -4.61605e-05 0.000200023)
(0.000187632 -5.72564e-05 0.000195944)
(7.7427e-05 -6.3457e-05 0.000195211)
(-2.96522e-05 -6.49583e-05 0.000198373)
(-0.000137136 -6.3842e-05 0.000205466)
(-0.00026837 -6.31093e-05 0.000216617)
(-0.000434304 -6.22499e-05 0.000233283)
(-0.000615653 -6.17161e-05 0.000256687)
(-0.00079611 -5.90657e-05 0.000287514)
(0.000454944 -7.25568e-05 0.000205736)
(0.000316455 -8.49358e-05 0.000200323)
(0.000186289 -9.18318e-05 0.000197044)
(7.22731e-05 -9.42102e-05 0.000197381)
(-2.6996e-05 -9.71511e-05 0.000200943)
(-0.000138093 -9.72292e-05 0.00020803)
(-0.000274789 -9.90082e-05 0.0002193)
(-0.000431994 -0.000102741 0.000235851)
(-0.00061621 -0.000105478 0.000259207)
(-0.000797313 -0.000108598 0.000290369)
(0.000453977 -0.000128251 0.00021067)
(0.000303905 -0.000137334 0.000205093)
(0.000177242 -0.000148716 0.000202763)
(7.17526e-05 -0.000156101 0.00020328)
(-3.26522e-05 -0.000161177 0.000207064)
(-0.000138573 -0.000163253 0.000214074)
(-0.000272695 -0.000166652 0.0002249)
(-0.000438047 -0.000166147 0.000241128)
(-0.000616854 -0.000166745 0.00026396)
(-0.000796009 -0.00016325 0.000294313)
(0.000432864 -0.000194835 0.000220732)
(0.000289277 -0.000223561 0.000215567)
(0.000165464 -0.000243566 0.000213629)
(5.97292e-05 -0.000262658 0.000214792)
(-3.38891e-05 -0.000268977 0.000218521)
(-0.00014275 -0.000275319 0.000225087)
(-0.000274796 -0.000272687 0.000235302)
(-0.000425347 -0.00026772 0.000250297)
(-0.000601284 -0.000248481 0.000271189)
(-0.000772354 -0.000219238 0.000299145)
(0.000393153 -0.000280416 0.000234398)
(0.000250311 -0.000337695 0.000231805)
(0.000138506 -0.000377156 0.000231428)
(4.82586e-05 -0.000395263 0.000233492)
(-4.42757e-05 -0.000406211 0.000237177)
(-0.000141566 -0.000412286 0.000243157)
(-0.000263024 -0.000408922 0.000251649)
(-0.000407629 -0.00039723 0.000264406)
(-0.00055562 -0.00035772 0.000281867)
(-0.000707451 -0.00028899 0.000304309)
(0.000275212 -0.000354353 0.000250572)
(0.000187515 -0.000455202 0.000253843)
(0.000110594 -0.000499888 0.000256991)
(3.45555e-05 -0.000519833 0.000260292)
(-4.95093e-05 -0.000530757 0.000263904)
(-0.000145224 -0.000538883 0.000268453)
(-0.000258957 -0.000545383 0.000274758)
(-0.000369202 -0.000530832 0.000283728)
(-0.000481034 -0.000469804 0.00029528)
(-0.000545069 -0.000346273 0.000309194)
(0.000198805 -1.4851e-05 0.000491345)
(0.000223912 -2.21438e-05 0.000445435)
(0.000203031 -1.24287e-05 0.000404091)
(0.000151618 -3.97596e-05 0.000384857)
(2.74318e-05 -5.455e-05 0.000383519)
(-6.69204e-05 -3.60094e-05 0.000393398)
(-0.000139181 -8.03127e-06 0.000414181)
(-0.000202168 2.72151e-05 0.000442979)
(-0.00026067 2.78317e-05 0.00047911)
(-0.000274799 9.16433e-06 0.000517874)
(0.000247653 -7.67264e-06 0.000470697)
(0.000230336 1.32662e-05 0.000437303)
(0.000187182 1.32591e-05 0.000402078)
(0.00010779 -3.7505e-05 0.000383897)
(2.31215e-05 -5.27603e-05 0.000381693)
(-4.83282e-05 -4.98397e-05 0.000389947)
(-0.000120646 -3.02625e-05 0.000408393)
(-0.000188686 -1.85865e-05 0.000437612)
(-0.000266047 -1.61134e-05 0.000476997)
(-0.000325843 -2.89651e-05 0.000525208)
(0.000300698 -1.30149e-05 0.000439432)
(0.000255267 2.11975e-06 0.000415299)
(0.000163782 -1.58182e-05 0.000392045)
(9.1424e-05 -4.24894e-05 0.000379636)
(1.91304e-05 -4.95571e-05 0.00037855)
(-4.43545e-05 -4.83701e-05 0.000387135)
(-0.000110997 -4.21769e-05 0.000405348)
(-0.000193542 -3.69647e-05 0.000435032)
(-0.000278271 -3.63941e-05 0.000477251)
(-0.000348716 -4.14118e-05 0.000531166)
(0.000301701 1.21926e-05 0.000419592)
(0.00023219 -1.96127e-05 0.000400523)
(0.000149434 -3.65239e-05 0.000384315)
(7.85405e-05 -4.88123e-05 0.000376306)
(1.90075e-05 -5.24411e-05 0.000377167)
(-4.25858e-05 -5.20435e-05 0.000386422)
(-0.000114336 -4.8623e-05 0.000405178)
(-0.000192145 -4.79762e-05 0.000435739)
(-0.00028147 -4.71067e-05 0.00047917)
(-0.000357884 -4.76322e-05 0.000536575)
(0.000289209 -2.64479e-05 0.000408847)
(0.000214137 -4.5529e-05 0.00039245)
(0.000139463 -5.28253e-05 0.000380554)
(7.80831e-05 -5.67839e-05 0.000375397)
(1.65922e-05 -5.76118e-05 0.000377876)
(-4.17779e-05 -5.65413e-05 0.000388266)
(-0.000110443 -5.60058e-05 0.00040721)
(-0.000198173 -5.60893e-05 0.000438418)
(-0.000286044 -5.78107e-05 0.000483342)
(-0.000357954 -5.87704e-05 0.000541567)
(0.000272157 -5.25568e-05 0.000402941)
(0.000208298 -6.11904e-05 0.000389389)
(0.000139565 -6.54926e-05 0.000379919)
(7.45491e-05 -6.72419e-05 0.00037724)
(1.94468e-05 -6.83852e-05 0.000381062)
(-4.14145e-05 -6.72472e-05 0.000391939)
(-0.000115139 -6.72336e-05 0.000411822)
(-0.00019618 -6.83833e-05 0.000443408)
(-0.000286597 -6.89656e-05 0.000488)
(-0.00036001 -7.08202e-05 0.000546811)
(0.000272963 -7.34445e-05 0.000400929)
(0.000199839 -8.11813e-05 0.000389862)
(0.000132687 -9.07783e-05 0.000383663)
(7.49214e-05 -9.6235e-05 0.000382466)
(1.65775e-05 -9.88222e-05 0.000387929)
(-4.03354e-05 -9.87113e-05 0.000399693)
(-0.00011082 -9.7161e-05 0.000419387)
(-0.000198335 -9.34988e-05 0.000450927)
(-0.000286065 -9.02879e-05 0.000495289)
(-0.000357483 -8.40091e-05 0.000552116)
(0.000257379 -0.000100016 0.000403871)
(0.000187529 -0.000123267 0.000396674)
(0.000123506 -0.000139947 0.000393153)
(6.64438e-05 -0.000153394 0.000394928)
(1.71452e-05 -0.000157423 0.000401838)
(-3.91608e-05 -0.000156937 0.000413987)
(-0.00010813 -0.000150721 0.000434539)
(-0.000185409 -0.000140312 0.00046448)
(-0.000271469 -0.000121409 0.000505974)
(-0.000338413 -9.80906e-05 0.000558822)
(0.000226822 -0.00013812 0.000411081)
(0.000157652 -0.000181267 0.000410266)
(0.000102879 -0.000209694 0.000411115)
(5.84719e-05 -0.000222873 0.000416568)
(1.3752e-05 -0.00022785 0.000425034)
(-3.27944e-05 -0.000226629 0.000439386)
(-9.23419e-05 -0.000216233 0.000457942)
(-0.00016479 -0.000197973 0.000486465)
(-0.00023769 -0.000164247 0.000522845)
(-0.000297038 -0.000116381 0.00056654)
(0.000145016 -0.000165388 0.000421572)
(0.000111212 -0.000226632 0.000429914)
(8.17752e-05 -0.000256892 0.000437815)
(4.93014e-05 -0.000272858 0.000447038)
(1.40835e-05 -0.000279412 0.000458899)
(-2.66505e-05 -0.000278841 0.000473366)
(-7.73596e-05 -0.000271988 0.000492335)
(-0.00012793 -0.00024785 0.000516629)
(-0.00018179 -0.000197488 0.000544616)
(-0.000204574 -0.000117623 0.00057481)
(0.000151644 -7.70619e-05 0.000477848)
(0.000191584 -8.09345e-05 0.0004322)
(0.000183047 -5.67799e-05 0.000384272)
(0.000155046 -6.58521e-05 0.000353587)
(7.39843e-05 -6.62408e-05 0.000338513)
(2.14554e-05 -5.26904e-05 0.000332418)
(-1.32435e-05 -3.21191e-05 0.000333708)
(-4.16744e-05 -1.00609e-05 0.00033977)
(-6.9344e-05 -6.15217e-06 0.000350212)
(-8.51652e-05 -7.56977e-06 0.00036108)
(0.000188661 -3.61835e-05 0.000460423)
(0.000203012 -1.80515e-05 0.000424747)
(0.000180141 -1.20193e-05 0.000382833)
(0.000128816 -4.5536e-05 0.000355303)
(7.49623e-05 -5.25958e-05 0.000340955)
(3.40161e-05 -4.93207e-05 0.000334882)
(-3.13798e-07 -3.71251e-05 0.000335754)
(-3.08511e-05 -2.9666e-05 0.000342871)
(-6.49697e-05 -2.61001e-05 0.000354849)
(-8.68021e-05 -2.49842e-05 0.00037113)
(0.000230637 -2.91667e-05 0.000435274)
(0.000225205 -1.09604e-05 0.00040657)
(0.000167059 -2.17206e-05 0.000376022)
(0.000120418 -3.76655e-05 0.000353882)
(7.42623e-05 -4.13107e-05 0.000341257)
(3.82369e-05 -3.90999e-05 0.000336249)
(6.08536e-06 -3.45125e-05 0.000337302)
(-3.14689e-05 -3.10526e-05 0.000344922)
(-6.50242e-05 -2.82891e-05 0.000359593)
(-8.41636e-05 -2.45333e-05 0.000379186)