/*--------------------------------*- C++ -*----------------------------------*\
| =========                 |                                                 |
| \\      /  F ield         | OpenFOAM: The Open Source CFD Toolbox           |
|  \\    /   O peration     | Version:  2406                                  |
|   \\  /    A nd           | Website:  www.openfoam.com                      |
|    \\/     M anipulation  |                                                 |
\*---------------------------------------------------------------------------*/
FoamFile
{
    version     2.0;
    format      ascii;
    arch        "LSB;label=32;scalar=64";
    class       volScalarField;
    location    "300";
    object      nut;
}
// * * * * * * * * * * * * * * * * * * * * * * * * * * * * * * * * * * * * * //

dimensions      [0 2 -1 0 0 0 0];

internalField   nonuniform List<scalar> 
25000
(
5.88726e-06
5.92849e-06
5.95434e-06
5.96719e-06
5.97281e-06
5.97281e-06
5.96719e-06
5.9545e-06
5.93058e-06
5.88721e-06
5.93053e-06
5.96743e-06
5.98829e-06
5.99986e-06
6.00547e-06
6.00547e-06
5.99998e-06
5.99342e-06
5.96747e-06
5.92851e-06
5.95448e-06
5.9934e-06
6.01088e-06
6.01854e-06
6.02379e-06
6.02381e-06
6.01921e-06
6.0109e-06
5.98831e-06
5.95436e-06
5.96718e-06
5.99997e-06
6.0192e-06
6.02999e-06
6.03448e-06
6.03491e-06
6.02999e-06
6.01854e-06
5.99987e-06
5.9672e-06
5.97281e-06
6.00547e-06
6.02381e-06
6.03491e-06
6.04156e-06
6.04156e-06
6.03448e-06
6.02379e-06
6.00548e-06
5.97282e-06
5.97281e-06
6.00547e-06
6.02379e-06
6.03448e-06
6.04156e-06
6.04156e-06
6.03448e-06
6.02379e-06
6.00548e-06
5.97282e-06
5.9672e-06
5.99987e-06
6.01854e-06
6.02999e-06
6.03492e-06
6.03492e-06
6.02999e-06
6.01854e-06
5.99987e-06
5.9672e-06
5.95436e-06
5.98831e-06
6.0109e-06
6.01921e-06
6.02381e-06
6.02381e-06
6.01921e-06
6.0109e-06
5.98831e-06
5.95436e-06
5.92851e-06
5.96747e-06
5.99343e-06
5.99998e-06
6.00547e-06
6.00547e-06
5.99998e-06
5.99343e-06
5.96747e-06
5.92851e-06
5.88722e-06
5.93058e-06
5.9545e-06
5.96719e-06
5.97282e-06
5.97282e-06
5.96719e-06
5.9545e-06
5.93058e-06
5.88722e-06
5.52553e-06
5.65219e-06
5.72856e-06
5.7675e-06
5.78451e-06
5.78451e-06
5.7675e-06
5.72937e-06
5.65736e-06
5.52555e-06
5.65725e-06
5.76883e-06
5.83099e-06
5.86531e-06
5.88188e-06
5.8819e-06
5.86611e-06
5.84425e-06
5.76893e-06
5.65226e-06
5.72932e-06
5.84418e-06
5.89743e-06
5.92124e-06
5.93658e-06
5.93671e-06
5.9231e-06
5.89748e-06
5.83105e-06
5.7286e-06
5.76748e-06
5.86607e-06
5.92306e-06
5.95496e-06
5.96863e-06
5.96977e-06
5.95498e-06
5.92127e-06
5.86534e-06
5.76752e-06
5.7845e-06
5.88188e-06
5.93669e-06
5.96975e-06
5.98925e-06
5.98927e-06
5.96861e-06
5.9366e-06
5.8819e-06
5.78452e-06
5.78451e-06
5.88189e-06
5.93659e-06
5.96864e-06
5.98926e-06
5.98927e-06
5.96861e-06
5.9366e-06
5.8819e-06
5.78452e-06
5.76752e-06
5.86534e-06
5.92126e-06
5.95498e-06
5.96981e-06
5.96982e-06
5.95499e-06
5.92127e-06
5.86534e-06
5.76752e-06
5.7286e-06
5.83104e-06
5.89748e-06
5.9231e-06
5.93672e-06
5.93672e-06
5.9231e-06
5.89748e-06
5.83105e-06
5.7286e-06
5.65226e-06
5.76893e-06
5.84425e-06
5.86611e-06
5.88191e-06
5.88191e-06
5.86611e-06
5.84425e-06
5.76893e-06
5.65226e-06
5.52555e-06
5.65737e-06
5.72938e-06
5.76751e-06
5.78452e-06
5.78452e-06
5.76751e-06
5.72938e-06
5.65736e-06
5.52555e-06
5.17401e-06
5.38307e-06
5.50732e-06
5.57182e-06
5.60003e-06
5.60003e-06
5.57187e-06
5.509e-06
5.39035e-06
5.174e-06
5.39026e-06
5.57449e-06
5.67671e-06
5.73305e-06
5.76014e-06
5.7602e-06
5.73474e-06
5.69615e-06
5.57463e-06
5.38314e-06
5.50894e-06
5.69605e-06
5.78499e-06
5.82549e-06
5.85045e-06
5.85071e-06
5.82836e-06
5.78506e-06
5.67679e-06
5.50737e-06
5.57184e-06
5.7347e-06
5.82831e-06
5.88066e-06
5.90354e-06
5.90522e-06
5.88069e-06
5.82554e-06
5.73309e-06
5.57185e-06
5.60003e-06
5.76018e-06
5.85069e-06
5.9052e-06
5.93696e-06
5.93697e-06
5.90347e-06
5.85046e-06
5.76016e-06
5.60005e-06
5.60004e-06
5.76014e-06
5.85045e-06
5.90354e-06
5.93697e-06
5.93698e-06
5.90347e-06
5.85046e-06
5.76016e-06
5.60005e-06
5.57184e-06
5.73308e-06
5.82553e-06
5.88069e-06
5.90532e-06
5.90533e-06
5.8807e-06
5.82554e-06
5.73309e-06
5.57185e-06
5.50736e-06
5.67679e-06
5.78506e-06
5.82836e-06
5.85073e-06
5.85074e-06
5.82836e-06
5.78507e-06
5.6768e-06
5.50737e-06
5.38313e-06
5.57463e-06
5.69615e-06
5.73475e-06
5.76021e-06
5.76021e-06
5.73475e-06
5.69615e-06
5.57464e-06
5.38314e-06
5.17399e-06
5.39036e-06
5.50901e-06
5.57188e-06
5.60005e-06
5.60005e-06
5.57189e-06
5.50902e-06
5.39037e-06
5.17401e-06
4.83944e-06
5.12318e-06
5.2921e-06
5.3811e-06
5.42011e-06
5.42012e-06
5.38126e-06
5.29474e-06
5.13197e-06
4.83943e-06
5.1319e-06
5.38514e-06
5.5258e-06
5.60329e-06
5.64045e-06
5.64058e-06
5.60598e-06
5.54994e-06
5.3853e-06
5.12326e-06
5.29469e-06
5.54984e-06
5.67382e-06
5.73128e-06
5.76541e-06
5.76584e-06
5.73499e-06
5.67391e-06
5.5259e-06
5.29217e-06
5.38124e-06
5.60593e-06
5.73494e-06
5.80709e-06
5.83912e-06
5.84123e-06
5.80713e-06
5.73133e-06
5.60334e-06
5.38116e-06
5.42012e-06
5.64056e-06
5.76581e-06
5.84121e-06
5.88463e-06
5.88465e-06
5.83899e-06
5.76541e-06
5.64047e-06
5.42016e-06
5.42013e-06
5.64045e-06
5.76541e-06
5.83912e-06
5.88466e-06
5.88466e-06
5.83899e-06
5.76541e-06
5.64047e-06
5.42016e-06
5.38113e-06
5.60333e-06
5.73132e-06
5.80714e-06
5.8414e-06
5.8414e-06
5.80714e-06
5.73134e-06
5.60335e-06
5.38116e-06
5.29215e-06
5.52589e-06
5.6739e-06
5.735e-06
5.76589e-06
5.76589e-06
5.73501e-06
5.67391e-06
5.5259e-06
5.29218e-06
5.12323e-06
5.38529e-06
5.54995e-06
5.60599e-06
5.64061e-06
5.64061e-06
5.60599e-06
5.54996e-06
5.3853e-06
5.12326e-06
4.83942e-06
5.13199e-06
5.29477e-06
5.38129e-06
5.42016e-06
5.42016e-06
5.38129e-06
5.29477e-06
5.13199e-06
4.83943e-06
4.52553e-06
4.87377e-06
5.0838e-06
5.19592e-06
5.24521e-06
5.24523e-06
5.19624e-06
5.08742e-06
4.88367e-06
4.52557e-06
4.88364e-06
5.20102e-06
5.3783e-06
5.47607e-06
5.52283e-06
5.52308e-06
5.47974e-06
5.40607e-06
5.20118e-06
4.87389e-06
5.08739e-06
5.40597e-06
5.56399e-06
5.63846e-06
5.6814e-06
5.68201e-06
5.6429e-06
5.56408e-06
5.37841e-06
5.08392e-06
5.19625e-06
5.4797e-06
5.64284e-06
5.7342e-06
5.77524e-06
5.77768e-06
5.73423e-06
5.63852e-06
5.47613e-06
5.19603e-06
5.24526e-06
5.52307e-06
5.68199e-06
5.77766e-06
5.83223e-06
5.83224e-06
5.77504e-06
5.68138e-06
5.52287e-06
5.2453e-06
5.24526e-06
5.52285e-06
5.68141e-06
5.77525e-06
5.83226e-06
5.83226e-06
5.77504e-06
5.68138e-06
5.52287e-06
5.2453e-06
5.19599e-06
5.47612e-06
5.63851e-06
5.73425e-06
5.77793e-06
5.77793e-06
5.73425e-06
5.63852e-06
5.47614e-06
5.19603e-06
5.08388e-06
5.3784e-06
5.56407e-06
5.64291e-06
5.68209e-06
5.68209e-06
5.64291e-06
5.56409e-06
5.37842e-06
5.08393e-06
4.87386e-06
5.20118e-06
5.40608e-06
5.47976e-06
5.52313e-06
5.52313e-06
5.47977e-06
5.40609e-06
5.20119e-06
4.8739e-06
4.52556e-06
4.88371e-06
5.08747e-06
5.1963e-06
5.24529e-06
5.24529e-06
5.19629e-06
5.08746e-06
4.88371e-06
4.52558e-06
4.23182e-06
4.63472e-06
4.88233e-06
5.01618e-06
5.07523e-06
5.07527e-06
5.01669e-06
4.88688e-06
4.64542e-06
4.2319e-06
4.6454e-06
5.02185e-06
5.23397e-06
5.35122e-06
5.4072e-06
5.40758e-06
5.35584e-06
5.26451e-06
5.022e-06
4.63487e-06
4.88687e-06
5.26442e-06
5.45541e-06
5.54686e-06
5.5983e-06
5.5991e-06
5.55191e-06
5.4555e-06
5.23408e-06
4.88248e-06
5.01672e-06
5.35581e-06
5.55186e-06
5.66187e-06
5.71178e-06
5.71448e-06
5.6619e-06
5.54691e-06
5.3513e-06
5.01631e-06
5.07532e-06
5.40758e-06
5.59908e-06
5.71446e-06
5.7797e-06
5.7797e-06
5.7115e-06
5.59825e-06
5.40722e-06
5.07534e-06
5.0753e-06
5.40722e-06
5.59831e-06
5.71179e-06
5.77974e-06
5.77973e-06
5.7115e-06
5.59825e-06
5.40722e-06
5.07534e-06
5.01627e-06
5.35128e-06
5.5469e-06
5.66194e-06
5.7148e-06
5.71481e-06
5.66193e-06
5.54692e-06
5.3513e-06
5.01631e-06
4.88244e-06
5.23407e-06
5.4555e-06
5.55193e-06
5.59921e-06
5.59921e-06
5.55193e-06
5.45551e-06
5.23409e-06
4.88248e-06
4.63483e-06
5.022e-06
5.26453e-06
5.35587e-06
5.40764e-06
5.40765e-06
5.35587e-06
5.26454e-06
5.02201e-06
4.63487e-06
4.23189e-06
4.64546e-06
4.88694e-06
5.01676e-06
5.07535e-06
5.07535e-06
5.01676e-06
4.88694e-06
4.64546e-06
4.23191e-06
3.95582e-06
4.405e-06
4.68677e-06
4.84102e-06
4.90939e-06
4.90945e-06
4.84174e-06
4.69215e-06
4.41618e-06
3.95586e-06
4.41618e-06
4.84692e-06
5.09229e-06
5.22837e-06
5.29322e-06
5.29375e-06
5.23389e-06
5.12489e-06
4.84704e-06
4.40509e-06
4.69215e-06
5.12482e-06
5.34786e-06
5.45623e-06
5.51595e-06
5.51693e-06
5.46182e-06
5.34793e-06
5.09238e-06
4.68686e-06
4.84178e-06
5.23386e-06
5.46177e-06
5.59e-06
5.64863e-06
5.65154e-06
5.59001e-06
5.45627e-06
5.22843e-06
4.84111e-06
4.90951e-06
5.29375e-06
5.51691e-06
5.65152e-06
5.72703e-06
5.72701e-06
5.64826e-06
5.51585e-06
5.29321e-06
4.90947e-06
4.90946e-06
5.29325e-06
5.51597e-06
5.64864e-06
5.72707e-06
5.72705e-06
5.64827e-06
5.51586e-06
5.29321e-06
4.90947e-06
4.8411e-06
5.22843e-06
5.45628e-06
5.59007e-06
5.65194e-06
5.65194e-06
5.59005e-06
5.45628e-06
5.22843e-06
4.84111e-06
4.68686e-06
5.09239e-06
5.34793e-06
5.46184e-06
5.51708e-06
5.51708e-06
5.46184e-06
5.34794e-06
5.09239e-06
4.68686e-06
4.40508e-06
4.84705e-06
5.12491e-06
5.23392e-06
5.29383e-06
5.29383e-06
5.23392e-06
5.12491e-06
4.84705e-06
4.40508e-06
3.95589e-06
4.41623e-06
4.6922e-06
4.8418e-06
4.90953e-06
4.90952e-06
4.8418e-06
4.69219e-06
4.4162e-06
3.95586e-06
3.69668e-06
4.18415e-06
4.4965e-06
4.66982e-06
4.74708e-06
4.74718e-06
4.67079e-06
4.50265e-06
4.19564e-06
3.69673e-06
4.19565e-06
4.67585e-06
4.95291e-06
5.10723e-06
5.18065e-06
5.18134e-06
5.11358e-06
4.98699e-06
4.67595e-06
4.18424e-06
4.50266e-06
4.98693e-06
5.24117e-06
5.36642e-06
5.43423e-06
5.43539e-06
5.37247e-06
5.24123e-06
4.95299e-06
4.4966e-06
4.67083e-06
5.11356e-06
5.37243e-06
5.51851e-06
5.58573e-06
5.58879e-06
5.5185e-06
5.36645e-06
5.10727e-06
4.66991e-06
4.74724e-06
5.18135e-06
5.43537e-06
5.58878e-06
5.67421e-06
5.67418e-06
5.58528e-06
5.43408e-06
5.18061e-06
4.74714e-06
4.74715e-06
5.18068e-06
5.43424e-06
5.58574e-06
5.67427e-06
5.67423e-06
5.58529e-06
5.43408e-06
5.18061e-06
4.74714e-06
4.66991e-06
5.10728e-06
5.36646e-06
5.51858e-06
5.58927e-06
5.58927e-06
5.51855e-06
5.36645e-06
5.10727e-06
4.6699e-06
4.49661e-06
4.953e-06
5.24124e-06
5.3725e-06
5.43558e-06
5.43558e-06
5.3725e-06
5.24124e-06
4.95299e-06
4.4966e-06
4.18424e-06
4.67596e-06
4.98701e-06
5.11361e-06
5.18144e-06
5.18144e-06
5.11361e-06
4.987e-06
4.67595e-06
4.18423e-06
3.69675e-06
4.19567e-06
4.50269e-06
4.67084e-06
4.74724e-06
4.74724e-06
4.67084e-06
4.50268e-06
4.19566e-06
3.69673e-06
3.45545e-06
3.97267e-06
4.31179e-06
4.50265e-06
4.58827e-06
4.58841e-06
4.50386e-06
4.31857e-06
3.98427e-06
3.45548e-06
3.98424e-06
4.50869e-06
4.81578e-06
4.98771e-06
5.06944e-06
5.07029e-06
4.99484e-06
4.85086e-06
4.50877e-06
3.97272e-06
4.31853e-06
4.85079e-06
5.13536e-06
5.27738e-06
5.35312e-06
5.35444e-06
5.28384e-06
5.13542e-06
4.81584e-06
4.31184e-06
4.50384e-06
4.9948e-06
5.2838e-06
5.44738e-06
5.52306e-06
5.52625e-06
5.44735e-06
5.27739e-06
4.98774e-06
4.50269e-06
4.5884e-06
5.07028e-06
5.35442e-06
5.52624e-06
5.62129e-06
5.62125e-06
5.52254e-06
5.35291e-06
5.06936e-06
4.58829e-06
4.58827e-06
5.06944e-06
5.35312e-06
5.52308e-06
5.62136e-06
5.62131e-06
5.52255e-06
5.35292e-06
5.06936e-06
4.58829e-06
4.50267e-06
4.98774e-06
5.27741e-06
5.44746e-06
5.52681e-06
5.5268e-06
5.44742e-06
5.2774e-06
4.98775e-06
4.50269e-06
4.31182e-06
4.81583e-06
5.13542e-06
5.28387e-06
5.35468e-06
5.35468e-06
5.28387e-06
5.13543e-06
4.81585e-06
4.31185e-06
3.97268e-06
4.50877e-06
4.85087e-06
4.99486e-06
5.07042e-06
5.07042e-06
4.99486e-06
4.85088e-06
4.50878e-06
3.97272e-06
3.45547e-06
3.98429e-06
4.31859e-06
4.50389e-06
4.58846e-06
4.58846e-06
4.5039e-06
4.31859e-06
3.98429e-06
3.45549e-06
3.23459e-06
3.77149e-06
4.13313e-06
4.33983e-06
4.43321e-06
4.43339e-06
4.3413e-06
4.14045e-06
3.78309e-06
3.23462e-06
3.78307e-06
4.3458e-06
4.68102e-06
4.86989e-06
4.95962e-06
4.96064e-06
4.8777e-06
4.71674e-06
4.34587e-06
3.77153e-06
4.14041e-06
4.71668e-06
5.03054e-06
5.18912e-06
5.27263e-06
5.27412e-06
5.19594e-06
5.03059e-06
4.68108e-06
4.13318e-06
4.34127e-06
4.87766e-06
5.19591e-06
5.37665e-06
5.46065e-06
5.46394e-06
5.37661e-06
5.18912e-06
4.86991e-06
4.33987e-06
4.43338e-06
4.96062e-06
5.2741e-06
5.46393e-06
5.5683e-06
5.56824e-06
5.46006e-06
5.27237e-06
4.9595e-06
4.43322e-06
4.4332e-06
4.95961e-06
5.27263e-06
5.46067e-06
5.56838e-06
5.56832e-06
5.46007e-06
5.27237e-06
4.9595e-06
4.43322e-06
4.33984e-06
4.86991e-06
5.18915e-06
5.37674e-06
5.46457e-06
5.46456e-06
5.37668e-06
5.18913e-06
4.86991e-06
4.33987e-06
4.13314e-06
4.68106e-06
5.03058e-06
5.19598e-06
5.27441e-06
5.27441e-06
5.19598e-06
5.03059e-06
4.68108e-06
4.13318e-06
3.77148e-06
4.34585e-06
4.71673e-06
4.87772e-06
4.96079e-06
4.96079e-06
4.87772e-06
4.71675e-06
4.34587e-06
3.77153e-06
3.23459e-06
3.78309e-06
4.14045e-06
4.34131e-06
4.43344e-06
4.43344e-06
4.34132e-06
4.14047e-06
3.78311e-06
3.23462e-06
3.03715e-06
3.58174e-06
3.96122e-06
4.18187e-06
4.2823e-06
4.28253e-06
4.18357e-06
3.96896e-06
3.59324e-06
3.03714e-06
3.59323e-06
4.18757e-06
4.54881e-06
4.75384e-06
4.85127e-06
4.85244e-06
4.76226e-06
4.58486e-06
4.18762e-06
3.58174e-06
3.96892e-06
4.58481e-06
4.9268e-06
5.10169e-06
5.1928e-06
5.19444e-06
5.10882e-06
4.92683e-06
4.54884e-06
3.96122e-06
4.18353e-06
4.76222e-06
5.1088e-06
5.30634e-06
5.39851e-06
5.40187e-06
5.30628e-06
5.10167e-06
4.75384e-06
4.18186e-06
4.2825e-06
4.85242e-06
5.19442e-06
5.40187e-06
5.51528e-06
5.51521e-06
5.39785e-06
5.19247e-06
4.85109e-06
4.28225e-06
4.28228e-06
4.85126e-06
5.1928e-06
5.39853e-06
5.51538e-06
5.5153e-06
5.39786e-06
5.19248e-06
4.85109e-06
4.28225e-06
4.18185e-06
4.75385e-06
5.10171e-06
5.30645e-06
5.40257e-06
5.40256e-06
5.30637e-06
5.10168e-06
4.75384e-06
4.18186e-06
3.96121e-06
4.54884e-06
4.92684e-06
5.10887e-06
5.19478e-06
5.19478e-06
5.10887e-06
4.92684e-06
4.54884e-06
3.96122e-06
3.58172e-06
4.18761e-06
4.58486e-06
4.76228e-06
4.85263e-06
4.85263e-06
4.76228e-06
4.58486e-06
4.18761e-06
3.58173e-06
3.03714e-06
3.59324e-06
3.96896e-06
4.18357e-06
4.28257e-06
4.28257e-06
4.18357e-06
3.96896e-06
3.59324e-06
3.03714e-06
2.86878e-06
3.40504e-06
3.79679e-06
4.02924e-06
4.13594e-06
4.13623e-06
4.03119e-06
3.8049e-06
3.41643e-06
2.86878e-06
3.41642e-06
4.03452e-06
4.41934e-06
4.63968e-06
4.74447e-06
4.74581e-06
4.64863e-06
4.4555e-06
4.03456e-06
3.40506e-06
3.80487e-06
4.45547e-06
4.82426e-06
5.01511e-06
5.11366e-06
5.11543e-06
5.02251e-06
4.82428e-06
4.41937e-06
3.79682e-06
4.03116e-06
4.6486e-06
5.02249e-06
5.23648e-06
5.33666e-06
5.34006e-06
5.2364e-06
5.01507e-06
4.63967e-06
4.02925e-06
4.13621e-06
4.74579e-06
5.11542e-06
5.34007e-06
5.46226e-06
5.46217e-06
5.33592e-06
5.11327e-06
4.74426e-06
4.13589e-06
4.13593e-06
4.74447e-06
5.11366e-06
5.33668e-06
5.46237e-06
5.46228e-06
5.33594e-06
5.11327e-06
4.74426e-06
4.13589e-06
4.02924e-06
4.63969e-06
5.01513e-06
5.2366e-06
5.34084e-06
5.34082e-06
5.2365e-06
5.01508e-06
4.63967e-06
4.02925e-06
3.7968e-06
4.41936e-06
4.82429e-06
5.02257e-06
5.11584e-06
5.11584e-06
5.02256e-06
4.82429e-06
4.41936e-06
3.79681e-06
3.40505e-06
4.03455e-06
4.4555e-06
4.64865e-06
4.74603e-06
4.74603e-06
4.64865e-06
4.4555e-06
4.03455e-06
3.40505e-06
2.86877e-06
3.41642e-06
3.80489e-06
4.03118e-06
4.13627e-06
4.13627e-06
4.03119e-06
3.8049e-06
3.41642e-06
2.86877e-06
2.73723e-06
3.24358e-06
3.64079e-06
3.88253e-06
3.99461e-06
3.99495e-06
3.88469e-06
3.64917e-06
3.25478e-06
2.7372e-06
3.25476e-06
3.88718e-06
4.29282e-06
4.52752e-06
4.63933e-06
4.64081e-06
4.53691e-06
4.32892e-06
3.88722e-06
3.24358e-06
3.64912e-06
4.32888e-06
4.723e-06
4.92941e-06
5.03523e-06
5.03713e-06
4.93704e-06
4.72302e-06
4.29284e-06
3.6408e-06
3.88464e-06
4.53688e-06
4.93703e-06
5.16708e-06
5.27509e-06
5.27854e-06
5.16698e-06
4.92936e-06
4.5275e-06
3.88252e-06
3.9949e-06
4.64078e-06
5.03712e-06
5.27856e-06
5.40927e-06
5.40916e-06
5.2743e-06
5.03478e-06
4.63906e-06
3.99453e-06
3.99456e-06
4.63931e-06
5.03523e-06
5.27512e-06
5.4094e-06
5.40929e-06
5.27433e-06
5.03478e-06
4.63906e-06
3.99453e-06
3.8825e-06
4.52752e-06
4.92943e-06
5.16721e-06
5.27938e-06
5.27936e-06
5.1671e-06
4.92937e-06
4.5275e-06
3.88252e-06
3.64077e-06
4.29283e-06
4.72303e-06
4.93712e-06
5.0376e-06
5.0376e-06
4.93711e-06
4.72303e-06
4.29284e-06
3.6408e-06
3.24356e-06
3.8872e-06
4.32891e-06
4.53695e-06
4.64108e-06
4.64108e-06
4.53695e-06
4.32892e-06
3.88722e-06
3.24358e-06
2.73719e-06
3.25477e-06
3.64917e-06
3.8847e-06
3.99501e-06
3.99501e-06
3.8847e-06
3.64917e-06
3.25479e-06
2.7372e-06
2.6584e-06
3.10111e-06
3.49444e-06
3.74238e-06
3.85878e-06
3.85918e-06
3.74476e-06
3.50306e-06
3.11216e-06
2.65835e-06
3.11212e-06
3.74634e-06
4.16949e-06
4.41747e-06
4.53591e-06
4.53753e-06
4.42724e-06
4.20539e-06
3.74638e-06
3.10113e-06
3.50301e-06
4.20535e-06
4.62312e-06
4.84463e-06
4.95753e-06
4.95955e-06
4.85246e-06
4.62314e-06
4.16952e-06
3.49448e-06
3.74471e-06
4.42721e-06
4.85245e-06
5.09816e-06
5.21384e-06
5.21732e-06
5.09804e-06
4.84456e-06
4.41745e-06
3.74239e-06
3.85914e-06
4.53751e-06
4.95954e-06
5.21734e-06
5.35633e-06
5.35621e-06
5.21299e-06
4.95702e-06
4.53561e-06
3.85871e-06
3.85875e-06
4.5359e-06
4.95753e-06
5.21388e-06
5.35647e-06
5.35634e-06
5.21302e-06
4.95703e-06
4.53561e-06
3.85871e-06
3.74237e-06
4.41747e-06
4.84465e-06
5.0983e-06
5.21822e-06
5.21819e-06
5.09818e-06
4.84458e-06
4.41745e-06
3.74239e-06
3.49445e-06
4.1695e-06
4.62315e-06
4.85255e-06
4.96008e-06
4.96008e-06
4.85254e-06
4.62315e-06
4.16952e-06
3.49448e-06
3.10111e-06
3.74636e-06
4.20538e-06
4.42729e-06
4.53785e-06
4.53785e-06
4.42729e-06
4.2054e-06
3.74638e-06
3.10113e-06
2.65834e-06
3.11213e-06
3.50305e-06
3.74476e-06
3.85926e-06
3.85926e-06
3.74477e-06
3.50306e-06
3.11216e-06
2.65834e-06
2.65461e-06
2.98323e-06
3.35962e-06
3.60974e-06
3.72915e-06
3.7296e-06
3.6123e-06
3.36839e-06
2.99408e-06
2.65447e-06
2.99405e-06
3.61302e-06
4.04963e-06
4.30965e-06
4.43431e-06
4.43605e-06
4.31973e-06
4.08521e-06
3.61306e-06
2.98321e-06
3.36833e-06
4.08517e-06
4.52472e-06
4.76079e-06
4.88058e-06
4.88271e-06
4.76878e-06
4.52473e-06
4.04964e-06
3.35963e-06
3.61224e-06
4.31969e-06
4.76877e-06
5.02973e-06
5.1529e-06
5.1564e-06
5.02959e-06
4.7607e-06
4.30961e-06
3.60973e-06
3.72954e-06
4.43602e-06
4.88269e-06
5.15643e-06
5.30346e-06
5.30332e-06
5.15199e-06
4.88001e-06
4.43394e-06
3.72904e-06
3.7291e-06
4.43429e-06
4.88058e-06
5.15294e-06
5.30361e-06
5.30347e-06
5.15203e-06
4.88001e-06
4.43394e-06
3.72904e-06
3.60971e-06
4.30964e-06
4.76081e-06
5.02989e-06
5.15736e-06
5.15733e-06
5.02974e-06
4.76072e-06
4.30961e-06
3.60973e-06
3.3596e-06
4.04963e-06
4.52474e-06
4.76889e-06
4.8833e-06
4.8833e-06
4.76888e-06
4.52474e-06
4.04964e-06
3.35963e-06
2.98321e-06
3.61304e-06
4.08521e-06
4.31978e-06
4.43642e-06
4.43642e-06
4.31978e-06
4.08521e-06
3.61305e-06
2.9832e-06
2.65447e-06
2.99405e-06
3.36838e-06
3.61231e-06
3.72969e-06
3.72969e-06
3.61231e-06
3.36837e-06
2.99407e-06
2.65447e-06
2.77285e-06
2.89965e-06
3.23946e-06
3.48598e-06
3.60664e-06
3.60714e-06
3.48871e-06
3.24835e-06
2.91035e-06
2.77257e-06
2.91035e-06
3.48893e-06
3.93363e-06
4.2042e-06
4.3346e-06
4.33646e-06
4.21453e-06
3.96881e-06
3.48895e-06
2.89957e-06
3.24832e-06
3.96878e-06
4.42788e-06
4.67792e-06
4.8044e-06
4.80661e-06
4.68604e-06
4.42788e-06
3.93363e-06
3.23946e-06
3.48866e-06
4.2145e-06
4.68604e-06
4.9618e-06
5.09229e-06
5.09579e-06
4.96164e-06
4.67781e-06
4.20414e-06
3.48596e-06
3.6071e-06
4.33644e-06
4.80661e-06
5.09583e-06
5.25067e-06
5.25051e-06
5.09133e-06
4.80376e-06
4.33418e-06
3.60651e-06
3.60661e-06
4.33458e-06
4.8044e-06
5.09234e-06
5.25083e-06
5.25068e-06
5.09137e-06
4.80376e-06
4.33418e-06
3.60651e-06
3.48596e-06
4.20419e-06
4.67794e-06
4.96197e-06
5.09681e-06
5.09677e-06
4.96181e-06
4.67783e-06
4.20414e-06
3.48596e-06
3.23945e-06
3.93363e-06
4.42791e-06
4.68617e-06
4.80727e-06
4.80726e-06
4.68615e-06
4.4279e-06
3.93363e-06
3.23947e-06
2.89959e-06
3.48893e-06
3.9688e-06
4.21458e-06
4.33687e-06
4.33687e-06
4.21458e-06
3.96881e-06
3.48894e-06
2.89956e-06
2.77258e-06
2.9103e-06
3.24833e-06
3.48871e-06
3.60725e-06
3.60725e-06
3.4887e-06
3.24833e-06
2.91034e-06
2.77257e-06
3.07918e-06
2.86592e-06
3.13879e-06
3.37336e-06
3.49276e-06
3.49331e-06
3.37624e-06
3.14777e-06
2.87656e-06
3.0787e-06
2.8766e-06
3.37656e-06
3.82205e-06
4.10128e-06
4.23688e-06
4.23885e-06
4.11181e-06
3.85677e-06
3.37656e-06
2.86576e-06
3.14775e-06
3.85674e-06
4.33272e-06
4.59604e-06
4.72899e-06
4.73129e-06
4.60426e-06
4.33271e-06
3.82204e-06
3.13875e-06
3.3762e-06
4.11178e-06
4.60427e-06
4.89438e-06
5.032e-06
5.03551e-06
4.8942e-06
4.59592e-06
4.1012e-06
3.37332e-06
3.49327e-06
4.23882e-06
4.73128e-06
5.03556e-06
5.19798e-06
5.19781e-06
5.03099e-06
4.72828e-06
4.23641e-06
3.4926e-06
3.49272e-06
4.23686e-06
4.72899e-06
5.03206e-06
5.19816e-06
5.19799e-06
5.03104e-06
4.72829e-06
4.23641e-06
3.4926e-06
3.37333e-06
4.10127e-06
4.59606e-06
4.89456e-06
5.03658e-06
5.03654e-06
4.89439e-06
4.59594e-06
4.10121e-06
3.37333e-06
3.13875e-06
3.82205e-06
4.33274e-06
4.60441e-06
4.73201e-06
4.732e-06
4.60439e-06
4.33273e-06
3.82205e-06
3.13878e-06
2.86581e-06
3.37655e-06
3.85677e-06
4.11188e-06
4.23931e-06
4.23931e-06
4.11188e-06
3.85677e-06
3.37656e-06
2.86577e-06
3.07871e-06
2.8765e-06
3.14776e-06
3.37625e-06
3.49344e-06
3.49344e-06
3.37624e-06
3.14774e-06
2.87655e-06
3.07869e-06
3.70888e-06
2.90494e-06
3.06504e-06
3.27529e-06
3.3898e-06
3.3904e-06
3.27832e-06
3.07412e-06
2.91565e-06
3.7079e-06
2.91571e-06
3.28018e-06
3.7158e-06
4.0012e-06
4.14131e-06
4.14337e-06
4.01188e-06
3.75002e-06
3.28017e-06
2.90463e-06
3.07412e-06
3.75e-06
4.23939e-06
4.51519e-06
4.65437e-06
4.65674e-06
4.5235e-06
4.23937e-06
3.71579e-06
3.06498e-06
3.2783e-06
4.01187e-06
4.52352e-06
4.82748e-06
4.97206e-06
4.97556e-06
4.82729e-06
4.51505e-06
4.00111e-06
3.27525e-06
3.39038e-06
4.14336e-06
4.65675e-06
4.97562e-06
5.14541e-06
5.14523e-06
4.971e-06
4.6536e-06
4.14079e-06
3.38963e-06
3.38979e-06
4.1413e-06
4.65438e-06
4.97212e-06
5.14561e-06
5.14542e-06
4.97105e-06
4.65361e-06
4.14079e-06
3.38963e-06
3.27528e-06
4.0012e-06
4.51523e-06
4.82768e-06
4.97669e-06
4.97664e-06
4.82749e-06
4.51508e-06
4.00112e-06
3.27527e-06
3.06499e-06
3.7158e-06
4.23941e-06
4.52367e-06
4.65752e-06
4.65751e-06
4.52364e-06
4.23939e-06
3.71579e-06
3.06502e-06
2.90471e-06
3.28016e-06
3.75002e-06
4.01196e-06
4.14389e-06
4.14389e-06
4.01196e-06
3.75002e-06
3.28016e-06
2.90465e-06
3.70793e-06
2.91558e-06
3.07411e-06
3.27834e-06
3.39055e-06
3.39055e-06
3.27832e-06
3.07408e-06
2.91562e-06
3.70789e-06
4.84239e-06
3.05553e-06
3.02986e-06
3.19697e-06
3.30122e-06
3.30187e-06
3.20013e-06
3.03906e-06
3.06656e-06
4.8409e-06
3.06669e-06
3.20584e-06
3.61627e-06
3.90436e-06
4.04809e-06
4.05023e-06
3.91515e-06
3.64996e-06
3.2058e-06
3.05505e-06
3.03908e-06
3.64996e-06
4.1481e-06
4.43543e-06
4.58055e-06
4.583e-06
4.44379e-06
4.14808e-06
3.61625e-06
3.02974e-06
3.20013e-06
3.91515e-06
4.44382e-06
4.76111e-06
4.91246e-06
4.91595e-06
4.76091e-06
4.43527e-06
3.90425e-06
3.19691e-06
3.30186e-06
4.05023e-06
4.58301e-06
4.91602e-06
5.09298e-06
5.09278e-06
4.91136e-06
4.57973e-06
4.04752e-06
3.30102e-06
3.30121e-06
4.04809e-06
4.58057e-06
4.91253e-06
5.09319e-06
5.09298e-06
4.91141e-06
4.57974e-06
4.04752e-06
3.30103e-06
3.19696e-06
3.90437e-06
4.43547e-06
4.76133e-06
4.91713e-06
4.91708e-06
4.76112e-06
4.4353e-06
3.90426e-06
3.19694e-06
3.02977e-06
3.61628e-06
4.14814e-06
4.44399e-06
4.58384e-06
4.58383e-06
4.44395e-06
4.1481e-06
3.61625e-06
3.02981e-06
3.05514e-06
3.20581e-06
3.64998e-06
3.91526e-06
4.05081e-06
4.0508e-06
3.91525e-06
3.64997e-06
3.2058e-06
3.05509e-06
4.8408e-06
3.06646e-06
3.03905e-06
3.20016e-06
3.30205e-06
3.30204e-06
3.20013e-06
3.03899e-06
3.06653e-06
4.84092e-06
6.87971e-06
3.37545e-06
3.0507e-06
3.14688e-06
3.23289e-06
3.23359e-06
3.15019e-06
3.06008e-06
3.38702e-06
6.8762e-06
3.38727e-06
3.16333e-06
3.52557e-06
3.81141e-06
3.95755e-06
3.95977e-06
3.8223e-06
3.55877e-06
3.16327e-06
3.37451e-06
3.06012e-06
3.55877e-06
4.05919e-06
4.3568e-06
4.50758e-06
4.51008e-06
4.36521e-06
4.05917e-06
3.52555e-06
3.05048e-06
3.1502e-06
3.8223e-06
4.36524e-06
4.6953e-06
4.85322e-06
4.8567e-06
4.69508e-06
4.35664e-06
3.81132e-06
3.14681e-06
3.2336e-06
3.95978e-06
4.51009e-06
4.85678e-06
5.04069e-06
5.04047e-06
4.85208e-06
4.5067e-06
3.95695e-06
3.23268e-06
3.2329e-06
3.95757e-06
4.5076e-06
4.8533e-06
5.04091e-06
5.04069e-06
4.85214e-06
4.50671e-06
3.95695e-06
3.23269e-06
3.14687e-06
3.81144e-06
4.35685e-06
4.69554e-06
4.85793e-06
4.85787e-06
4.69531e-06
4.35667e-06
3.81132e-06
3.14686e-06
3.05053e-06
3.52559e-06
4.05923e-06
4.36543e-06
4.51098e-06
4.51097e-06
4.36539e-06
4.05919e-06
3.52556e-06
3.05059e-06
3.37465e-06
3.16329e-06
3.55879e-06
3.82242e-06
3.96039e-06
3.96039e-06
3.82241e-06
3.55878e-06
3.16327e-06
3.3746e-06
6.876e-06
3.38687e-06
3.06006e-06
3.15023e-06
3.23379e-06
3.23378e-06
3.15018e-06
3.05998e-06
3.38695e-06
6.87623e-06
1.02651e-05
3.96988e-06
3.15725e-06
3.13697e-06
3.19281e-06
3.19357e-06
3.14044e-06
3.16697e-06
3.98251e-06
1.02586e-05
3.98341e-06
3.16664e-06
3.44698e-06
3.72345e-06
3.87025e-06
3.87255e-06
3.73441e-06
3.47976e-06
3.16657e-06
3.96832e-06
3.16718e-06
3.47967e-06
3.97309e-06
4.27941e-06
4.43546e-06
4.43801e-06
4.28785e-06
3.9731e-06
3.44699e-06
3.15691e-06
3.1405e-06
3.73433e-06
4.28786e-06
4.63005e-06
4.79434e-06
4.79781e-06
4.62982e-06
4.27924e-06
3.72336e-06
3.13686e-06
3.19357e-06
3.87248e-06
4.43801e-06
4.79789e-06
4.98855e-06
4.98833e-06
4.79318e-06
4.43454e-06
3.86962e-06
3.19257e-06
3.19282e-06
3.87021e-06
4.43546e-06
4.79442e-06
4.98878e-06
4.98856e-06
4.79324e-06
4.43455e-06
3.86962e-06
3.19258e-06
3.13697e-06
3.72342e-06
4.27945e-06
4.6303e-06
4.79908e-06
4.79902e-06
4.63007e-06
4.27929e-06
3.72337e-06
3.13694e-06
3.15712e-06
3.44695e-06
3.97313e-06
4.28808e-06
4.43897e-06
4.43897e-06
4.28805e-06
3.97313e-06
3.44701e-06
3.15708e-06
3.96892e-06
3.16653e-06
3.47975e-06
3.73454e-06
3.87322e-06
3.87322e-06
3.73454e-06
3.47977e-06
3.16657e-06
3.96846e-06
1.02594e-05
3.98237e-06
3.16691e-06
3.14047e-06
3.19379e-06
3.19378e-06
3.14041e-06
3.1668e-06
3.98235e-06
1.02586e-05
1.52679e-05
4.99792e-06
3.38856e-06
3.18622e-06
3.19367e-06
3.19447e-06
3.18987e-06
3.39874e-06
5.01224e-06
1.52588e-05
5.01374e-06
3.23925e-06
3.38586e-06
3.64215e-06
3.78707e-06
3.78942e-06
3.65315e-06
3.41827e-06
3.23908e-06
4.99532e-06
3.39913e-06
3.41817e-06
3.89065e-06
4.20343e-06
4.36426e-06
4.36686e-06
4.21187e-06
3.89066e-06
3.38586e-06
3.38797e-06
3.19e-06
3.65305e-06
4.21187e-06
4.5654e-06
4.73585e-06
4.7393e-06
4.56516e-06
4.20324e-06
3.64204e-06
3.18604e-06
3.19453e-06
3.78933e-06
4.36684e-06
4.73938e-06
4.93659e-06
4.93635e-06
4.73465e-06
4.36329e-06
3.78639e-06
3.19338e-06
3.1937e-06
3.787e-06
4.36426e-06
4.73593e-06
4.93683e-06
4.9366e-06
4.73472e-06
4.36331e-06
3.78639e-06
3.19341e-06
3.18623e-06
3.64208e-06
4.20346e-06
4.56566e-06
4.74061e-06
4.74054e-06
4.56542e-06
4.20328e-06
3.64205e-06
3.18616e-06
3.38836e-06
3.38578e-06
3.89068e-06
4.21211e-06
4.36786e-06
4.36786e-06
4.21208e-06
3.89069e-06
3.38587e-06
3.38825e-06
4.99647e-06
3.23903e-06
3.41822e-06
3.65326e-06
3.79012e-06
3.79012e-06
3.65327e-06
3.41826e-06
3.23908e-06
4.99564e-06
1.52608e-05
5.01236e-06
3.39876e-06
3.18993e-06
3.19473e-06
3.19471e-06
3.18982e-06
3.39851e-06
5.01202e-06
1.52589e-05
2.19604e-05
6.61411e-06
3.81088e-06
3.32295e-06
3.2558e-06
3.25668e-06
3.32686e-06
3.82195e-06
6.63182e-06
2.19512e-05
6.63368e-06
3.4054e-06
3.34884e-06
3.57007e-06
3.70945e-06
3.71185e-06
3.58109e-06
3.38098e-06
3.40506e-06
6.61109e-06
3.82253e-06
3.38092e-06
3.81293e-06
4.12906e-06
4.29405e-06
4.29668e-06
4.13748e-06
3.81291e-06
3.34873e-06
3.8103e-06
3.32711e-06
3.58098e-06
4.13749e-06
4.50138e-06
4.67774e-06
4.68117e-06
4.50112e-06
4.12883e-06
3.56987e-06
3.32283e-06
3.25681e-06
3.71173e-06
4.29666e-06
4.68126e-06
4.88481e-06
4.88456e-06
4.6765e-06
4.29301e-06
3.70866e-06
3.25555e-06
3.25591e-06
3.70934e-06
4.29404e-06
4.67783e-06
4.88507e-06
4.88482e-06
4.67658e-06
4.29302e-06
3.70866e-06
3.2556e-06
3.32303e-06
3.56995e-06
4.12908e-06
4.50165e-06
4.68252e-06
4.68245e-06
4.50139e-06
4.12887e-06
3.56988e-06
3.32303e-06
3.8107e-06
3.3487e-06
3.81294e-06
4.13774e-06
4.29773e-06
4.29772e-06
4.1377e-06
3.81293e-06
3.34873e-06
3.81077e-06
6.61231e-06
3.40506e-06
3.38093e-06
3.58118e-06
3.71255e-06
3.71255e-06
3.58117e-06
3.38092e-06
3.40506e-06
6.61188e-06
2.19531e-05
6.63201e-06
3.82209e-06
3.32702e-06
3.25703e-06
3.25699e-06
3.32686e-06
3.82181e-06
6.63194e-06
2.19524e-05
3.01427e-05
9.36288e-06
4.52993e-06
3.58868e-06
3.40401e-06
3.40497e-06
3.59294e-06
4.54228e-06
9.38475e-06
3.01349e-05
9.38655e-06
3.72195e-06
3.34731e-06
3.51118e-06
3.63967e-06
3.64211e-06
3.52223e-06
3.37943e-06
3.72147e-06
9.35896e-06
4.54288e-06
3.37944e-06
3.74166e-06
4.05668e-06
4.22496e-06
4.22761e-06
4.06507e-06
3.74159e-06
3.3471e-06
4.52918e-06
3.59324e-06
3.52216e-06
4.0651e-06
4.43804e-06
4.62004e-06
4.62345e-06
4.43776e-06
4.05641e-06
3.5109e-06
3.58857e-06
3.40515e-06
3.64201e-06
4.22761e-06
4.62355e-06
4.83323e-06
4.83297e-06
4.61876e-06
4.22385e-06
3.63878e-06
3.4038e-06
3.40413e-06
3.63957e-06
4.22496e-06
4.62014e-06
4.8335e-06
4.83323e-06
4.61884e-06
4.22387e-06
3.63878e-06
3.40387e-06
3.58867e-06
3.51107e-06
4.0567e-06
4.43833e-06
4.62483e-06
4.62475e-06
4.43804e-06
4.05645e-06
3.51092e-06
3.58889e-06
4.52936e-06
3.34714e-06
3.74167e-06
4.06535e-06
4.22871e-06
4.22869e-06
4.0653e-06
3.74161e-06
3.34712e-06
4.52988e-06
9.35964e-06
3.72146e-06
3.37939e-06
3.52233e-06
3.64283e-06
3.64282e-06
3.5223e-06
3.37935e-06
3.7215e-06
9.36007e-06
3.01345e-05
9.38424e-06
4.54239e-06
3.59317e-06
3.40543e-06
3.40537e-06
3.59292e-06
4.54202e-06
9.38457e-06
3.01357e-05
3.9382e-05
1.34755e-05
5.67187e-06
4.04803e-06
3.68425e-06
3.68533e-06
4.05285e-06
5.6862e-06
1.35013e-05
3.93768e-05
1.35028e-05
4.26038e-06
3.39564e-06
3.47091e-06
3.58108e-06
3.58355e-06
3.48202e-06
3.42808e-06
4.25979e-06
1.34712e-05
5.68666e-06
3.42816e-06
3.67932e-06
3.98682e-06
4.15721e-06
4.15988e-06
3.99518e-06
3.67921e-06
3.39534e-06
5.67116e-06
4.05316e-06
3.48199e-06
3.99523e-06
4.37545e-06
4.56276e-06
4.56614e-06
4.37514e-06
3.98651e-06
3.47056e-06
4.04801e-06
3.68553e-06
3.58349e-06
4.15989e-06
4.56626e-06
4.78186e-06
4.78158e-06