/*--------------------------------*- C++ -*----------------------------------*\
| =========                 |                                                 |
| \\      /  F ield         | OpenFOAM: The Open Source CFD Toolbox           |
|  \\    /   O peration     | Version:  2406                                  |
|   \\  /    A nd           | Website:  www.openfoam.com                      |
|    \\/     M anipulation  |                                                 |
\*---------------------------------------------------------------------------*/
FoamFile
{
    version     2.0;
    format      ascii;
    arch        "LSB;label=32;scalar=64";
    class       volScalarField;
    location    "300";
    object      p;
}
// * * * * * * * * * * * * * * * * * * * * * * * * * * * * * * * * * * * * * //

dimensions      [0 2 -2 0 0 0 0];

internalField   nonuniform List<scalar> 
25000
(
-2.50986e-05
-0.000961477
-0.0016606
-0.00212522
-0.00235755
-0.00235923
-0.00213089
-0.00167335
-0.000988195
-8.20705e-05
-0.0009565
-0.00200185
-0.00278902
-0.00331425
-0.0035768
-0.00357855
-0.00332011
-0.00280062
-0.00202206
-0.000988625
-0.00165377
-0.00278598
-0.003633
-0.00419756
-0.00447976
-0.00448144
-0.00420288
-0.00364276
-0.00280122
-0.00167433
-0.00211811
-0.00330965
-0.00419542
-0.00478346
-0.005077
-0.00507852
-0.00478821
-0.00420373
-0.00332153
-0.0021326
-0.00235063
-0.00357137
-0.00447635
-0.00507543
-0.00537416
-0.00537556
-0.00507965
-0.00448343
-0.00358113
-0.00236195
-0.00235276
-0.00357299
-0.00447725
-0.00507591
-0.00537436
-0.00537561
-0.00507965
-0.00448342
-0.00358113
-0.00236197
-0.00212488
-0.00331457
-0.00419838
-0.00478491
-0.00507761
-0.00507871
-0.00478823
-0.00420371
-0.00332156
-0.00213268
-0.00166787
-0.00279536
-0.00363819
-0.00420014
-0.00448088
-0.00448186
-0.00420304
-0.00364284
-0.00280133
-0.00167451
-0.000983193
-0.00201722
-0.00279689
-0.00331801
-0.00357846
-0.00357932
-0.00332048
-0.0028009
-0.00202235
-0.000988967
-7.75127e-05
-0.00098432
-0.00167052
-0.00212944
-0.00235951
-0.00236021
-0.00213154
-0.00167389
-0.000988713
-8.26011e-05
-0.0177379
-0.0176136
-0.0175136
-0.017439
-0.0174019
-0.017405
-0.0174489
-0.0175337
-0.0176534
-0.0177955
-0.0176076
-0.0174393
-0.0173685
-0.017326
-0.0173073
-0.0173103
-0.017336
-0.017388
-0.0174726
-0.0176543
-0.0175045
-0.017364
-0.0173056
-0.0172788
-0.0172694
-0.0172723
-0.0172879
-0.0173221
-0.0173892
-0.0175358
-0.0174295
-0.0173194
-0.0172756
-0.0172617
-0.0172597
-0.0172622
-0.0172696
-0.0172894
-0.0173387
-0.0174526
-0.0173925
-0.0172995
-0.0172644
-0.0172573
-0.0172592
-0.0172614
-0.0172641
-0.0172758
-0.0173151
-0.0174107
-0.0173961
-0.0173023
-0.0172661
-0.0172583
-0.0172597
-0.0172616
-0.0172642
-0.0172759
-0.0173152
-0.0174108
-0.0174406
-0.0173281
-0.0172813
-0.0172648
-0.0172612
-0.0172629
-0.01727
-0.0172896
-0.0173389
-0.0174528
-0.0175261
-0.0173805
-0.0173156
-0.0172843
-0.0172722
-0.0172737
-0.0172887
-0.0173227
-0.0173896
-0.0175362
-0.0176464
-0.0174658
-0.0173831
-0.0173339
-0.0173116
-0.0173129
-0.0173376
-0.0173891
-0.0174735
-0.017655
-0.0177891
-0.0176484
-0.0175307
-0.0174485
-0.0174077
-0.0174088
-0.0174515
-0.0175356
-0.0176548
-0.0177965
-0.0368013
-0.0365235
-0.0362984
-0.0361465
-0.0360682
-0.0360709
-0.0361549
-0.0363136
-0.0365503
-0.0368394
-0.0365201
-0.0361905
-0.0359382
-0.0357609
-0.0356728
-0.0356754
-0.0357691
-0.035953
-0.0362139
-0.036552
-0.0362934
-0.0359356
-0.0356622
-0.0354672
-0.0353688
-0.0353712
-0.0354748
-0.0356754
-0.0359549
-0.0363171
-0.0361411
-0.0357568
-0.0354652
-0.0352618
-0.0351588
-0.035161
-0.0352686
-0.0354768
-0.035773
-0.0361606
-0.0360625
-0.0356678
-0.0353654
-0.0351572
-0.0350518
-0.0350538
-0.0351632
-0.0353755
-0.0356817
-0.0360791
-0.0360651
-0.03567
-0.0353669
-0.0351582
-0.0350524
-0.0350542
-0.0351635
-0.0353757
-0.0356819
-0.0360794
-0.0361489
-0.0357633
-0.0354699
-0.035265
-0.0351609
-0.0351624
-0.0352697
-0.0354777
-0.0357738
-0.0361614
-0.0363074
-0.0359471
-0.0356702
-0.0354727
-0.0353725
-0.0353739
-0.0354768
-0.0356771
-0.0359563
-0.0363184
-0.036544
-0.036208
-0.0359497
-0.0357688
-0.0356784
-0.0356797
-0.0357725
-0.0359558
-0.0362163
-0.036554
-0.036833
-0.0365462
-0.0363122
-0.0361566
-0.036076
-0.0360771
-0.0361599
-0.0363177
-0.0365537
-0.0368421
-0.0481786
-0.0480337
-0.0479187
-0.0478503
-0.0478141
-0.0478166
-0.0478579
-0.0479314
-0.0480544
-0.0482076
-0.0480331
-0.0478743
-0.0477365
-0.0476451
-0.0476015
-0.0476037
-0.0476522
-0.0477486
-0.0478923
-0.0480573
-0.0479178
-0.0477358
-0.0475916
-0.0474902
-0.0474412
-0.0474434
-0.0474966
-0.0476026
-0.0477515
-0.0479372
-0.0478495
-0.0476441
-0.0474896
-0.0473828
-0.0473307
-0.0473325
-0.0473886
-0.0474994
-0.0476579
-0.0478667
-0.0478131
-0.0476
-0.0474401
-0.0473301
-0.0472757
-0.0472774
-0.0473352
-0.0474488
-0.0476124
-0.0478286
-0.0478153
-0.0476021
-0.0474418
-0.0473314
-0.0472768
-0.0472782
-0.047336
-0.0474495
-0.047613
-0.0478292
-0.047856
-0.0476501
-0.0474947
-0.0473869
-0.047334
-0.0473353
-0.0473909
-0.0475015
-0.0476598
-0.0478685
-0.047929
-0.0477461
-0.0476002
-0.0474974
-0.0474471
-0.0474483
-0.0475009
-0.0476063
-0.0477548
-0.0479402
-0.0480517
-0.0478896
-0.0477489
-0.0476556
-0.0476104
-0.0476114
-0.0476586
-0.0477542
-0.0478972
-0.0480616
-0.0482046
-0.0480545
-0.0479346
-0.0478643
-0.0478264
-0.0478273
-0.0478669
-0.0479391
-0.048061
-0.0482132
-0.0542627
-0.0541818
-0.0541167
-0.0540828
-0.0540637
-0.0540652
-0.0540871
-0.0541233
-0.0541926
-0.0542784
-0.054183
-0.0540831
-0.053991
-0.0539363
-0.0539098
-0.0539111
-0.0539404
-0.0539977
-0.0540929
-0.0541965
-0.0541191
-0.0539919
-0.053892
-0.0538283
-0.0537986
-0.0537999
-0.053832
-0.0538985
-0.0540013
-0.0541309
-0.0540863
-0.0539379
-0.0538288
-0.0537582
-0.0537256
-0.0537267
-0.0537618
-0.053835
-0.0539469
-0.0540979
-0.0540674
-0.0539116
-0.0537994
-0.0537258
-0.0536912
-0.0536923
-0.0537291
-0.0538052
-0.0539202
-0.0540788
-0.0540686
-0.0539129
-0.0538005
-0.0537268
-0.0536921
-0.0536931
-0.0537298
-0.0538059
-0.0539209
-0.0540794
-0.0540896
-0.0539414
-0.0538322
-0.0537613
-0.0537284
-0.0537293
-0.0537642
-0.0538372
-0.0539491
-0.0540999
-0.0541246
-0.0539979
-0.0538978
-0.0538338
-0.0538038
-0.0538047
-0.0538365
-0.0539025
-0.054005
-0.0541343
-0.0541926
-0.0540921
-0.0539997
-0.053945
-0.0539181
-0.0539188
-0.0539473
-0.054004
-0.0540985
-0.0542014
-0.0542771
-0.0541946
-0.0541285
-0.0540951
-0.0540757
-0.0540764
-0.0540972
-0.0541322
-0.0542002
-0.0542849
-0.0584305
-0.0584151
-0.0583977
-0.0583934
-0.0583893
-0.0583895
-0.0583942
-0.058398
-0.0584161
-0.0584336
-0.0584166
-0.0583857
-0.0583484
-0.0583298
-0.0583192
-0.0583194
-0.0583305
-0.0583493
-0.0583872
-0.0584197
-0.0584011
-0.0583498
-0.0583044
-0.0582779
-0.0582648
-0.0582651
-0.0582787
-0.0583059
-0.0583523
-0.0584048
-0.0583984
-0.0583324
-0.0582788
-0.0582445
-0.0582284
-0.0582286
-0.0582455
-0.0582808
-0.0583357
-0.0584033
-0.0583946
-0.0583222
-0.0582663
-0.0582288
-0.0582111
-0.0582115
-0.05823
-0.0582686
-0.0583261
-0.0584003
-0.0583946
-0.0583224
-0.0582665
-0.0582291
-0.0582115
-0.0582119
-0.0582304
-0.058269
-0.0583265
-0.0584008
-0.0583983
-0.0583328
-0.0582796
-0.0582455
-0.0582295
-0.05823
-0.0582469
-0.0582822
-0.0583372
-0.0584047
-0.0584007
-0.0583505
-0.0583058
-0.0582799
-0.0582673
-0.0582677
-0.0582814
-0.0583086
-0.0583549
-0.0584072
-0.058417
-0.0583869
-0.058351
-0.0583337
-0.0583237
-0.0583242
-0.0583352
-0.0583538
-0.0583914
-0.0584234
-0.0584326
-0.0584177
-0.0584019
-0.0583999
-0.0583967
-0.0583971
-0.0584015
-0.0584048
-0.0584221
-0.0584386
-0.0625651
-0.0625841
-0.0625922
-0.0626027
-0.0626063
-0.062606
-0.0626016
-0.0625895
-0.0625805
-0.0625617
-0.0625855
-0.0626024
-0.0626069
-0.0626147
-0.0626166
-0.0626162
-0.0626137
-0.0626048
-0.0625994
-0.0625825
-0.0625957
-0.0626085
-0.0626126
-0.0626192
-0.0626216
-0.0626213
-0.0626183
-0.062611
-0.0626064
-0.0625932
-0.0626079
-0.0626178
-0.0626205
-0.062624
-0.0626256
-0.0626253
-0.0626232
-0.0626193
-0.0626164
-0.0626064
-0.0626123
-0.0626203
-0.0626238
-0.0626264
-0.0626279
-0.0626277
-0.0626258
-0.0626228
-0.0626194
-0.0626114
-0.0626123
-0.0626204
-0.0626239
-0.0626266
-0.0626282
-0.0626279
-0.062626
-0.0626231
-0.0626197
-0.0626118
-0.0626077
-0.0626179
-0.0626209
-0.0626246
-0.0626263
-0.0626261
-0.0626241
-0.0626202
-0.0626173
-0.0626074
-0.0625951
-0.0626086
-0.0626133
-0.0626205
-0.0626232
-0.062623
-0.0626201
-0.0626128
-0.0626081
-0.0625949
-0.0625853
-0.0626027
-0.0626084
-0.0626173
-0.0626196
-0.0626194
-0.0626168
-0.0626077
-0.0626021
-0.0625849
-0.0625656
-0.0625852
-0.0625948
-0.062607
-0.0626113
-0.062611
-0.0626063
-0.0625939
-0.0625842
-0.0625648
-0.0672998
-0.0673157
-0.0673226
-0.0673307
-0.0673336
-0.0673337
-0.0673309
-0.0673223
-0.067315
-0.0672994
-0.067318
-0.0673373
-0.067348
-0.0673584
-0.0673618
-0.0673617
-0.0673582
-0.0673473
-0.0673359
-0.0673166
-0.0673271
-0.06735
-0.0673634
-0.0673758
-0.0673807
-0.0673806
-0.0673753
-0.0673625
-0.0673486
-0.0673252
-0.0673366
-0.0673618
-0.0673771
-0.0673893
-0.0673947
-0.0673945
-0.0673887
-0.0673761
-0.0673604
-0.0673348
-0.0673401
-0.0673658
-0.067383
-0.0673956
-0.0674016
-0.0674014
-0.0673949
-0.0673819
-0.0673644
-0.0673383
-0.0673404
-0.0673661
-0.0673832
-0.0673958
-0.0674019
-0.0674016
-0.0673951
-0.0673821
-0.0673646
-0.0673385
-0.0673373
-0.0673625
-0.067378
-0.0673902
-0.0673955
-0.0673953
-0.0673895
-0.0673768
-0.067361
-0.0673354
-0.0673281
-0.0673512
-0.0673649
-0.0673775
-0.0673824
-0.0673822
-0.0673767
-0.0673638
-0.0673497
-0.0673261
-0.06732
-0.0673392
-0.0673506
-0.0673614
-0.0673647
-0.0673645
-0.0673606
-0.0673494
-0.0673376
-0.0673179
-0.0673034
-0.0673192
-0.0673267
-0.0673354
-0.0673382
-0.0673379
-0.0673346
-0.0673253
-0.0673174
-0.0673012
-0.0725287
-0.0725353
-0.0725373
-0.0725409
-0.0725417
-0.0725423
-0.0725424
-0.0725393
-0.072538
-0.0725324
-0.0725357
-0.0725462
-0.0725523
-0.0725583
-0.0725599
-0.0725603
-0.0725595
-0.0725542
-0.0725485
-0.072539
-0.0725382
-0.0725528
-0.0725608
-0.0725685
-0.0725714
-0.0725718
-0.0725697
-0.0725625
-0.0725552
-0.0725412
-0.0725418
-0.0725589
-0.0725688
-0.072577
-0.0725803
-0.0725806
-0.072578
-0.0725705
-0.0725614
-0.0725452
-0.0725425
-0.0725605
-0.0725717
-0.0725804
-0.0725843
-0.0725847
-0.0725814
-0.0725734
-0.072563
-0.072546
-0.0725429
-0.0725609
-0.0725721
-0.0725808
-0.0725847
-0.072585
-0.0725817
-0.0725737
-0.0725633
-0.0725463
-0.0725427
-0.0725599
-0.07257
-0.0725782
-0.0725815
-0.0725817
-0.072579
-0.0725715
-0.0725623
-0.072546
-0.0725395
-0.0725544
-0.0725627
-0.0725706
-0.0725734
-0.0725737
-0.0725714
-0.0725642
-0.0725567
-0.0725427
-0.0725379
-0.0725486
-0.0725553
-0.0725615
-0.0725631
-0.0725633
-0.0725622
-0.0725567
-0.0725507
-0.072541
-0.0725322
-0.0725389
-0.0725413
-0.0725454
-0.0725462
-0.0725464
-0.0725461
-0.0725427
-0.0725409
-0.072535
-0.0780137
-0.0780137
-0.0780122
-0.0780125
-0.0780117
-0.0780121
-0.0780137
-0.0780139
-0.078016
-0.0780171
-0.0780138
-0.0780171
-0.0780185
-0.0780203
-0.0780203
-0.0780206
-0.0780214
-0.0780201
-0.0780192
-0.0780168
-0.0780121
-0.0780185
-0.0780208
-0.0780241
-0.0780247
-0.078025
-0.078025
-0.0780224
-0.0780208
-0.0780154
-0.078012
-0.0780201
-0.078024
-0.0780277
-0.0780288
-0.0780291
-0.0780287
-0.0780256
-0.0780227
-0.0780158
-0.0780109
-0.0780197
-0.0780244
-0.0780286
-0.0780301
-0.0780304
-0.0780296
-0.0780262
-0.0780225
-0.0780149
-0.0780109
-0.0780198
-0.0780245
-0.0780288
-0.0780303
-0.0780306
-0.0780297
-0.0780263
-0.0780226
-0.078015
-0.0780119
-0.0780201
-0.0780242
-0.0780281
-0.0780292
-0.0780295
-0.0780291
-0.0780261
-0.0780231
-0.0780162
-0.0780116
-0.0780184
-0.0780212
-0.0780248
-0.0780255
-0.0780258
-0.0780258
-0.0780231
-0.0780215
-0.078016
-0.0780133
-0.0780171
-0.0780192
-0.0780214
-0.0780215
-0.0780219
-0.0780226
-0.0780213
-0.0780203
-0.0780178
-0.0780139
-0.0780142
-0.0780133
-0.0780142
-0.0780136
-0.0780141
-0.0780155
-0.0780156
-0.0780175
-0.0780184
-0.0835781
-0.083575
-0.083572
-0.0835706
-0.0835691
-0.0835692
-0.083571
-0.0835725
-0.0835756
-0.0835792
-0.0835745
-0.0835738
-0.0835723
-0.0835717
-0.0835707
-0.0835708
-0.0835722
-0.0835729
-0.0835746
-0.0835757
-0.0835711
-0.0835719
-0.0835707
-0.0835711
-0.0835704
-0.0835706
-0.0835716
-0.0835714
-0.0835731
-0.0835726
-0.0835694
-0.0835711
-0.0835709
-0.0835717
-0.0835713
-0.0835714
-0.0835722
-0.0835718
-0.0835725
-0.0835713
-0.0835677
-0.08357
-0.0835701
-0.0835712
-0.0835711
-0.0835713
-0.0835717
-0.083571
-0.0835714
-0.0835698
-0.0835678
-0.0835701
-0.0835703
-0.0835714
-0.0835713
-0.0835714
-0.0835719
-0.0835712
-0.0835715
-0.0835698
-0.0835696
-0.0835714
-0.0835712
-0.0835721
-0.0835717
-0.0835719
-0.0835726
-0.0835721
-0.0835728
-0.0835716
-0.0835711
-0.0835722
-0.0835711
-0.0835717
-0.0835711
-0.0835712
-0.0835721
-0.0835719
-0.0835735
-0.083573
-0.0835745
-0.083574
-0.0835729
-0.0835725
-0.0835716
-0.0835717
-0.0835729
-0.0835736
-0.0835752
-0.0835763
-0.0835783
-0.0835753
-0.0835726
-0.0835716
-0.0835702
-0.0835703
-0.0835719
-0.0835733
-0.0835763
-0.0835798
-0.0891559
-0.0891511
-0.0891473
-0.089145
-0.0891434
-0.0891436
-0.0891455
-0.089148
-0.089152
-0.0891572
-0.0891512
-0.0891475
-0.0891439
-0.0891417
-0.0891402
-0.0891403
-0.0891421
-0.0891444
-0.0891482
-0.0891522
-0.0891472
-0.0891438
-0.0891398
-0.0891381
-0.0891365
-0.0891367
-0.0891384
-0.0891403
-0.0891446
-0.0891482
-0.0891447
-0.0891415
-0.089138
-0.0891364
-0.089135
-0.0891351
-0.0891367
-0.0891386
-0.0891424
-0.0891459
-0.0891429
-0.0891399
-0.0891364
-0.0891349
-0.0891336
-0.0891337
-0.0891352
-0.089137
-0.0891408
-0.0891441
-0.0891428
-0.0891399
-0.0891364
-0.089135
-0.0891336
-0.0891337
-0.0891353
-0.089137
-0.0891407
-0.0891441
-0.0891445
-0.0891414
-0.089138
-0.0891365
-0.0891351
-0.0891352
-0.0891368
-0.0891385
-0.0891423
-0.0891458
-0.0891468
-0.0891435
-0.0891397
-0.0891381
-0.0891366
-0.0891367
-0.0891384
-0.0891402
-0.0891444
-0.089148
-0.0891506
-0.089147
-0.0891437
-0.0891417
-0.0891403
-0.0891404
-0.089142
-0.0891443
-0.0891479
-0.0891518
-0.0891555
-0.0891508
-0.0891471
-0.0891449
-0.0891434
-0.0891435
-0.0891453
-0.0891477
-0.0891516
-0.0891567
-0.094696
-0.0946918
-0.0946887
-0.0946867
-0.0946857
-0.0946861
-0.0946879
-0.0946905
-0.0946943
-0.0946993
-0.094691
-0.0946871
-0.0946835
-0.0946814
-0.0946802
-0.0946806
-0.0946826
-0.0946854
-0.0946897
-0.0946944
-0.0946871
-0.0946828
-0.0946785
-0.0946765
-0.0946751
-0.0946755
-0.0946777
-0.0946804
-0.0946856
-0.0946908
-0.0946846
-0.0946802
-0.094676
-0.0946739
-0.0946725
-0.0946729
-0.0946751
-0.094678
-0.0946831
-0.0946885
-0.0946831
-0.0946786
-0.0946743
-0.0946722
-0.0946708
-0.0946712
-0.0946734
-0.0946763
-0.0946816
-0.0946871
-0.0946832
-0.0946788
-0.0946744
-0.0946724
-0.094671
-0.0946714
-0.0946736
-0.0946764
-0.0946817
-0.0946872
-0.0946848
-0.0946805
-0.0946764
-0.0946744
-0.0946731
-0.0946734
-0.0946756
-0.0946784
-0.0946835
-0.0946888
-0.0946873
-0.0946833
-0.0946791
-0.0946772
-0.0946759
-0.0946762
-0.0946783
-0.094681
-0.0946861
-0.0946912
-0.0946912
-0.0946876
-0.0946842
-0.0946823
-0.0946812
-0.0946815
-0.0946834
-0.0946861
-0.0946903
-0.094695
-0.0946965
-0.0946924
-0.0946895
-0.0946877
-0.0946868
-0.0946871
-0.0946888
-0.0946913
-0.0946951
-0.0947
-0.100191
-0.100187
-0.100184
-0.100182
-0.100182
-0.100182
-0.100184
-0.100187
-0.100191
-0.100196
-0.100187
-0.100182
-0.100179
-0.100177
-0.100176
-0.100176
-0.100178
-0.100181
-0.100186
-0.100191
-0.100183
-0.100178
-0.100174
-0.100172
-0.10017
-0.100171
-0.100173
-0.100176
-0.100182
-0.100188
-0.100181
-0.100176
-0.100171
-0.100169
-0.100167
-0.100168
-0.10017
-0.100173
-0.100179
-0.100185
-0.10018
-0.100174
-0.100169
-0.100167
-0.100165
-0.100166
-0.100168
-0.100172
-0.100178
-0.100184
-0.10018
-0.100174
-0.100169
-0.100167
-0.100166
-0.100166
-0.100168
-0.100172
-0.100178
-0.100184
-0.100181
-0.100176
-0.100171
-0.100169
-0.100168
-0.100168
-0.10017
-0.100174
-0.100179
-0.100185
-0.100183
-0.100179
-0.100174
-0.100172
-0.100171
-0.100171
-0.100173
-0.100176
-0.100182
-0.100188
-0.100187
-0.100183
-0.100179
-0.100177
-0.100176
-0.100177
-0.100179
-0.100182
-0.100186
-0.100191
-0.100192
-0.100188
-0.100185
-0.100183
-0.100182
-0.100183
-0.100185
-0.100187
-0.100191
-0.100196
-0.105627
-0.105624
-0.105622
-0.10562
-0.10562
-0.105621
-0.105622
-0.105625
-0.105628
-0.105632
-0.105623
-0.105619
-0.105616
-0.105615
-0.105614
-0.105614
-0.105616
-0.105619
-0.105623
-0.105628
-0.10562
-0.105616
-0.105612
-0.10561
-0.105609
-0.105609
-0.105611
-0.105614
-0.105619
-0.105625
-0.105618
-0.105613
-0.105609
-0.105607
-0.105606
-0.105606
-0.105608
-0.105612
-0.105617
-0.105623
-0.105617
-0.105612
-0.105607
-0.105605
-0.105604
-0.105604
-0.105607
-0.10561
-0.105615
-0.105622
-0.105617
-0.105612
-0.105608
-0.105605
-0.105604
-0.105605
-0.105607
-0.10561
-0.105615
-0.105622
-0.105618
-0.105614
-0.105609
-0.105607
-0.105606
-0.105607
-0.105609
-0.105612
-0.105617
-0.105623
-0.105621
-0.105616
-0.105612
-0.10561
-0.105609
-0.10561
-0.105612
-0.105614
-0.105619
-0.105625
-0.105624
-0.10562
-0.105617
-0.105615
-0.105615
-0.105615
-0.105617
-0.105619
-0.105623
-0.105628
-0.105628
-0.105625
-0.105623
-0.105621
-0.105621
-0.105621
-0.105622
-0.105625
-0.105628
-0.105632
-0.111022
-0.111018
-0.111016
-0.111014
-0.111014
-0.111014
-0.111015
-0.111018
-0.111021
-0.111025
-0.111018
-0.111014
-0.11101
-0.111008
-0.111008
-0.111008
-0.111009
-0.111012
-0.111016
-0.111021
-0.111015
-0.11101
-0.111006
-0.111003
-0.111002
-0.111003
-0.111004
-0.111007
-0.111012
-0.111018
-0.111012
-0.111007
-0.111003
-0.111001
-0.110999
-0.111
-0.111002
-0.111005
-0.11101
-0.111016
-0.111011
-0.111006
-0.111001
-0.110999
-0.110997
-0.110998
-0.111
-0.111003
-0.111008
-0.111015
-0.111011
-0.111006
-0.111001
-0.110999
-0.110997
-0.110998
-0.111
-0.111003
-0.111008
-0.111014
-0.111012
-0.111007
-0.111003
-0.111001
-0.110999
-0.111
-0.111001
-0.111004
-0.11101
-0.111015
-0.111014
-0.11101
-0.111006
-0.111003
-0.111002
-0.111002
-0.111004
-0.111007
-0.111012
-0.111017
-0.111018
-0.111014
-0.11101
-0.111008
-0.111007
-0.111007
-0.111009
-0.111012
-0.111015
-0.11102
-0.111022
-0.111018
-0.111015
-0.111014
-0.111013
-0.111013
-0.111014
-0.111017
-0.11102
-0.111024
-0.116366
-0.116363
-0.116361
-0.116359
-0.116359
-0.116359
-0.11636
-0.116362
-0.116365
-0.116369
-0.116362
-0.116359
-0.116356
-0.116354
-0.116353
-0.116353
-0.116354
-0.116357
-0.11636
-0.116365
-0.116359
-0.116355
-0.116351
-0.116349
-0.116348
-0.116348
-0.11635
-0.116352
-0.116357
-0.116362
-0.116357
-0.116353
-0.116349
-0.116346
-0.116345
-0.116345
-0.116347
-0.11635
-0.116355
-0.11636
-0.116356
-0.116351
-0.116347
-0.116345
-0.116343
-0.116344
-0.116346
-0.116349
-0.116353
-0.116359
-0.116356
-0.116352
-0.116347
-0.116345
-0.116344
-0.116344
-0.116346
-0.116349
-0.116353
-0.116359
-0.116357
-0.116353
-0.116349
-0.116347
-0.116345
-0.116346
-0.116347
-0.11635
-0.116355
-0.11636
-0.11636
-0.116355
-0.116351
-0.116349
-0.116348
-0.116348
-0.11635
-0.116353
-0.116357
-0.116362
-0.116363
-0.116359
-0.116356
-0.116354
-0.116353
-0.116353
-0.116355
-0.116357
-0.11636
-0.116365
-0.116366
-0.116363
-0.116361
-0.116359
-0.116359
-0.116359
-0.11636
-0.116362
-0.116365
-0.116368
-0.121673
-0.121669
-0.121667
-0.121665
-0.121664
-0.121665
-0.121666
-0.121668
-0.121671
-0.121675
-0.121669
-0.121665
-0.121662
-0.12166
-0.121659
-0.121659
-0.12166
-0.121663
-0.121666
-0.121671
-0.121666
-0.121662
-0.121658
-0.121655
-0.121654
-0.121654
-0.121656
-0.121659
-0.121663
-0.121668
-0.121664
-0.121659
-0.121655
-0.121653
-0.121651
-0.121652
-0.121653
-0.121656
-0.121661
-0.121666
-0.121663
-0.121658
-0.121654
-0.121651
-0.12165
-0.12165
-0.121652
-0.121655
-0.121659
-0.121665
-0.121663
-0.121658
-0.121654
-0.121651
-0.12165
-0.12165
-0.121652
-0.121655
-0.121659
-0.121665
-0.121664
-0.121659
-0.121655
-0.121653
-0.121651
-0.121652
-0.121653
-0.121656
-0.12166
-0.121666
-0.121666
-0.121661
-0.121658
-0.121655
-0.121654
-0.121654
-0.121656
-0.121658
-0.121663
-0.121667
-0.121669
-0.121665
-0.121662
-0.12166
-0.121659
-0.121659
-0.12166
-0.121662
-0.121666
-0.12167
-0.121673
-0.121669
-0.121666
-0.121665
-0.121664
-0.121664
-0.121665
-0.121667
-0.12167
-0.121674
-0.126937
-0.126932
-0.126929
-0.126928
-0.126927
-0.126927
-0.126928
-0.12693
-0.126933
-0.126938
-0.126932
-0.126928
-0.126925
-0.126923
-0.126922
-0.126922
-0.126923
-0.126925
-0.126929
-0.126932
-0.126929
-0.126925
-0.126921
-0.126919
-0.126918
-0.126918
-0.126919
-0.126921
-0.126925
-0.12693
-0.126927
-0.126923
-0.126919
-0.126916
-0.126915
-0.126915
-0.126917
-0.126919
-0.126923
-0.126928
-0.126927
-0.126922
-0.126918
-0.126915
-0.126914
-0.126914
-0.126915
-0.126918
-0.126922
-0.126927
-0.126927
-0.126922
-0.126918
-0.126915
-0.126914
-0.126914
-0.126915
-0.126918
-0.126922
-0.126927
-0.126928
-0.126923
-0.126919
-0.126917
-0.126915
-0.126915
-0.126917
-0.126919
-0.126923
-0.126928
-0.12693
-0.126925
-0.126921
-0.126919
-0.126918
-0.126918
-0.126919
-0.126921
-0.126925
-0.126929
-0.126932
-0.126928
-0.126925
-0.126923
-0.126922
-0.126922
-0.126923
-0.126925
-0.126928
-0.126932
-0.126938
-0.126932
-0.12693
-0.126928
-0.126927
-0.126927
-0.126928
-0.12693
-0.126932
-0.126937
-0.132168
-0.132161
-0.132158
-0.132157
-0.132156
-0.132156
-0.132157
-0.132159
-0.132162
-0.13217
-0.132161
-0.132157
-0.132154
-0.132152
-0.132151
-0.132151
-0.132153
-0.132155
-0.132158
-0.132162
-0.132159
-0.132154
-0.132151
-0.132148
-0.132147
-0.132147
-0.132149
-0.132151
-0.132155
-0.132159
-0.132157
-0.132153
-0.132148
-0.132146
-0.132145
-0.132145
-0.132146
-0.132149
-0.132153
-0.132157
-0.132157
-0.132152
-0.132147
-0.132145
-0.132143
-0.132143
-0.132145
-0.132147
-0.132152
-0.132157
-0.132157
-0.132152
-0.132147
-0.132145
-0.132143
-0.132143
-0.132145
-0.132147
-0.132151
-0.132156
-0.132158
-0.132153
-0.132148
-0.132146
-0.132145
-0.132144
-0.132146
-0.132148
-0.132152
-0.132157
-0.13216
-0.132155
-0.132151
-0.132148
-0.132147
-0.132147
-0.132148
-0.132151
-0.132154
-0.132159
-0.132162
-0.132158
-0.132154
-0.132152
-0.132151
-0.132151
-0.132152
-0.132154
-0.132157
-0.132161
-0.132169
-0.132162
-0.132159
-0.132157
-0.132156
-0.132156
-0.132157
-0.132158
-0.132161
-0.132169
-0.137356
-0.137348
-0.137347
-0.137346
-0.137346
-0.137347
-0.137349
-0.137351
-0.137354
-0.137364
-0.137346
-0.137344
-0.137343
-0.137342
-0.137342
-0.137343
-0.137344
-0.137347
-0.13735
-0.137354
-0.137344
-0.137341
-0.137339
-0.137338
-0.137338
-0.137339
-0.13734
-0.137343
-0.137347
-0.137352
-0.137342
-0.137339
-0.137337
-0.137336
-0.137336
-0.137336
-0.137338
-0.137341
-0.137345
-0.13735
-0.137341
-0.137338
-0.137336
-0.137335
-0.137334
-0.137335
-0.137337
-0.13734
-0.137344
-0.137349
-0.137342
-0.137339
-0.137336
-0.137335
-0.137334
-0.137335
-0.137337
-0.13734
-0.137344
-0.137349
-0.137343
-0.13734
-0.137337
-0.137336
-0.137336
-0.137336
-0.137338
-0.137341
-0.137345
-0.13735
-0.137345
-0.137342
-0.137339
-0.137338
-0.137338
-0.137339
-0.13734
-0.137343
-0.137347
-0.137351
-0.137348
-0.137345
-0.137343
-0.137342
-0.137342
-0.137343
-0.137344
-0.137347
-0.13735
-0.137354
-0.137357
-0.137349
-0.137347
-0.137347
-0.137347
-0.137347
-0.137349
-0.137351
-0.137354
-0.137363
-0.142523
-0.142513
-0.142511
-0.14251
-0.14251
-0.142511
-0.142512
-0.142515
-0.142518
-0.142529
-0.142511
-0.142509
-0.142507
-0.142506
-0.142506
-0.142506
-0.142508
-0.14251
-0.142514
-0.142518
-0.142508
-0.142505
-0.142503
-0.142502
-0.142502
-0.142502
-0.142504
-0.142507
-0.142511
-0.142515
-0.142505
-0.142503
-0.142501
-0.1425
-0.142499
-0.1425
-0.142502
-0.142504
-0.142508
-0.142513
-0.142504
-0.142502
-0.142499
-0.142498
-0.142498
-0.142498
-0.1425
-0.142503
-0.142507
-0.142512
-0.142504
-0.142501
-0.142499
-0.142498
-0.142497
-0.142498
-0.1425
-0.142503
-0.142507
-0.142512
-0.142505
-0.142502
-0.1425
-0.142499
-0.142498
-0.142499
-0.142501
-0.142504
-0.142508
-0.142513
-0.142507
-0.142504
-0.142502
-0.142501
-0.1425
-0.142501
-0.142503
-0.142506
-0.14251
-0.142514
-0.142509
-0.142507
-0.142505
-0.142504
-0.142504
-0.142505
-0.142506
-0.142509
-0.142513
-0.142517
-0.14252
-0.142511
-0.142509
-0.142508
-0.142508
-0.142509
-0.142511
-0.142513
-0.142516
-0.142528
-0.147652
-0.147642
-0.147641
-0.14764
-0.147639
-0.14764
-0.147641
-0.147643
-0.147645
-0.147656
-0.14764
-0.147638
-0.147636
-0.147635
-0.147635
-0.147635
-0.147636
-0.147638
-0.147641
-0.147644
-0.147637
-0.147634
-0.147633
-0.147632
-0.147631
-0.147632
-0.147633
-0.147635
-0.147638
-0.147642
-0.147634
-0.147632
-0.14763
-0.147629
-0.147629
-0.147629
-0.14763
-0.147632
-0.147636
-0.147639
-0.147633
-0.147631
-0.147629
-0.147628
-0.147627
-0.147628
-0.147629
-0.147631
-0.147634
-0.147638
-0.147633
-0.147631
-0.147629
-0.147628
-0.147627
-0.147628
-0.147629
-0.147631
-0.147634
-0.147638
-0.147634
-0.147632
-0.14763
-0.147629
-0.147628
-0.147629
-0.14763
-0.147632
-0.147635
-0.147638
-0.147637
-0.147634
-0.147632
-0.147631
-0.14763
-0.14763
-0.147632
-0.147634
-0.147637
-0.147641
-0.14764
-0.147637
-0.147635
-0.147634
-0.147633
-0.147633
-0.147635
-0.147636
-0.147639
-0.147643
-0.147651
-0.14764
-0.147639
-0.147637
-0.147637
-0.147637
-0.147638
-0.14764
-0.147643
-0.147654
-0.152759
-0.152749
-0.152748
-0.152746
-0.152745
-0.152746
-0.152747
-0.152749
-0.152751
-0.152762
-0.152747
-0.152744
-0.152743
-0.152741
-0.152741
-0.152741
-0.152742
-0.152744
-0.152746
-0.15275
-0.152745
-0.152741
-0.152739
-0.152738
-0.152737
-0.152738
-0.152739
-0.152741
-0.152743
-0.152747
-0.152741
-0.152739
-0.152737
-0.152736
-0.152735
-0.152735
-0.152736
-0.152738
-0.152741
-0.152744
-0.15274
-0.152738
-0.152736
-0.152734
-0.152734
-0.152734
-0.152735
-0.152737
-0.15274
-0.152743
-0.15274
-0.152738
-0.152736
-0.152734
-0.152733
-0.152734
-0.152735
-0.152737
-0.152739
-0.152743
-0.152741
-0.152739
-0.152737
-0.152735
-0.152734
-0.152735
-0.152736
-0.152738
-0.15274
-0.152743
-0.152745
-0.152741
-0.152738
-0.152737
-0.152736
-0.152736
-0.152737
-0.152739
-0.152742
-0.152746
-0.152747
-0.152743
-0.152741
-0.15274
-0.152739
-0.152739
-0.15274
-0.152742
-0.152744
-0.152748
-0.152758
-0.152747
-0.152745
-0.152743
-0.152742
-0.152742
-0.152743
-0.152746
-0.152749
-0.15276
-0.157836
-0.157826
-0.157826
-0.157823
-0.157822
-0.157823
-0.157823
-0.157827
-0.157828
-0.157837
-0.157825
-0.15782
-0.15782
-0.157819
-0.157818
-0.157818
-0.157819
-0.157821
-0.157822
-0.157826
-0.157823
-0.157818
-0.157817
-0.157815
-0.157815
-0.157815
-0.157816
-0.157818
-0.15782
-0.157824
-0.157819
-0.157816
-0.157814
-0.157813
-0.157813
-0.157813
-0.157814
-0.157815
-0.157818
-0.15782
-0.157818
-0.157815
-0.157813
-0.157812
-0.157811
-0.157812
-0.157813
-0.157814
-0.157816
-0.157819
-0.157818
-0.157815
-0.157813
-0.157812
-0.157811
-0.157811
-0.157812
-0.157814
-0.157816
-0.157819
-0.157819
-0.157816
-0.157814
-0.157813
-0.157812
-0.157812
-0.157813
-0.157815
-0.157817
-0.15782
-0.157822
-0.157818
-0.157816
-0.157814
-0.157814
-0.157814
-0.157815
-0.157817
-0.157819
-0.157823
-0.157824
-0.157819
-0.157818
-0.157817
-0.157816
-0.157817
-0.157817
-0.157819
-0.15782
-0.157825
-0.157834
-0.157824
-0.157823
-0.15782
-0.15782
-0.15782
-0.157821
-0.157824
-0.157825
-0.157835
-0.162891
-0.162882
-0.162882
-0.162878
-0.162877
-0.162877
-0.162878
-0.162881
-0.162881
-0.162891
-0.16288
-0.162875
-0.162875
-0.162873
-0.162873
-0.162873
-0.162873
-0.162875
-0.162875
-0.16288
-0.16288
-0.162874
-0.162872
-0.162871
-0.16287
-0.16287
-0.16287
-0.162872
-0.162873
-0.162879
-0.162876
-0.162872
-0.16287
-0.162868
-0.162868
-0.162868
-0.162868
-0.16287
-0.162872
-0.162875
-0.162875
-0.162871
-0.162869
-0.162867
-0.162866
-0.162866
-0.162867
-0.162869
-0.162871
-0.162874
-0.162874
-0.162871
-0.162869
-0.162867
-0.162866
-0.162866
-0.162867
-0.162868
-0.16287
-0.162874
-0.162875
-0.162871
-0.162869
-0.162868
-0.162867
-0.162867
-0.162868
-0.162869
-0.162871
-0.162874
-0.162879
-0.162873
-0.162871
-0.162869
-0.162868
-0.162868
-0.162869
-0.162871
-0.162872
-0.162878
-0.162879
-0.162874
-0.162873
-0.162871
-0.162871
-0.162871
-0.162871
-0.162872
-0.162873
-0.162878
-0.162889
-0.162879
-0.162879
-0.162875
-0.162874
-0.162874
-0.162875
-0.162878
-0.162878
-0.162888
-0.167926
-0.167915
-0.167915
-0.167912
-0.167911
-0.167911
-0.167911
-0.167914
-0.167913
-0.167923
-0.167914
-0.167909
-0.167908
-0.167906
-0.167906
-0.167905
-0.167906
-0.167907
-0.167907
-0.167912
-0.167915
-0.167908
-0.167906
-0.167904
-0.167903
-0.167903
-0.167903
-0.167905
-0.167906
-0.167912
-0.167911
-0.167906
-0.167904
-0.167902
-0.167901
-0.167901
-0.167902
-0.167903
-0.167904
-0.167909
-0.16791
-0.167905
-0.167903
-0.167901
-0.1679
-0.1679
-0.167901
-0.167902
-0.167904
-0.167908
-0.16791
-0.167905
-0.167903
-0.167901
-0.1679
-0.1679
-0.167901
-0.167902
-0.167904
-0.167908
-0.167911
-0.167906
-0.167904
-0.167902
-0.167901
-0.167901
-0.167901
-0.167903
-0.167904
-0.167909
-0.167915
-0.167907
-0.167906
-0.167904
-0.167903
-0.167902
-0.167903
-0.167905
-0.167906
-0.167912
-0.167914
-0.167908
-0.167907
-0.167906
-0.167905
-0.167905
-0.167905
-0.167906
-0.167906
-0.167912
-0.167925
-0.167914
-0.167914
-0.167911
-0.16791
-0.167909
-0.16791
-0.167913
-0.167912
-0.167923
-0.172945
-0.172932
-0.172933
-0.17293
-0.172929
-0.172929
-0.172929
-0.172932
-0.17293
-0.172943
-0.172932
-0.172926
-0.172925
-0.172923
-0.172923
-0.172922
-0.172923
-0.172924
-0.172924
-0.17293
-0.172933
-0.172925
-0.172924
-0.172921
-0.172921
-0.17292
-0.172921
-0.172923
-0.172924
-0.172931
-0.17293
-0.172924
-0.172922
-0.17292
-0.172919
-0.172919
-0.172919
-0.172921
-0.172922
-0.172928
-0.17293
-0.172923
-0.172921
-0.172919
-0.172918
-0.172918
-0.172918
-0.17292
-0.172922
-0.172928
-0.17293
-0.172923
-0.172921
-0.172919
-0.172918
-0.172918
-0.172919
-0.17292
-0.172922
-0.172928
-0.172931
-0.172924
-0.172922
-0.17292
-0.172919
-0.172919
-0.172919
-0.172921
-0.172922
-0.172929
-0.172934
-0.172926
-0.172924
-0.172922
-0.172921
-0.172921
-0.172921
-0.172923
-0.172924
-0.172932
-0.172932
-0.172926
-0.172925
-0.172923
-0.172923
-0.172923
-0.172923
-0.172924
-0.172925
-0.17293
-0.172946
-0.172932
-0.172933
-0.17293
-0.172929
-0.172929