/*--------------------------------*- C++ -*----------------------------------*\
| =========                 |                                                 |
| \\      /  F ield         | OpenFOAM: The Open Source CFD Toolbox           |
|  \\    /   O peration     | Version:  2406                                  |
|   \\  /    A nd           | Website:  www.openfoam.com                      |
|    \\/     M anipulation  |                                                 |
\*---------------------------------------------------------------------------*/
FoamFile
{
    version     2.0;
    format      ascii;
    arch        "LSB;label=32;scalar=64";
    class       surfaceScalarField;
    location    "300";
    object      phi;
}
// * * * * * * * * * * * * * * * * * * * * * * * * * * * * * * * * * * * * * //

dimensions      [0 3 -1 0 0 0 0];

oriented        oriented;

internalField   nonuniform List<scalar> 
73500
(
1.81567e-06
1.77502e-06
4.76477e-05
-1.57488e-06
-1.55242e-06
1.26755e-06
1.39524e-06
5.15933e-05
-1.53863e-06
8.24998e-07
1.25207e-06
5.46004e-05
-1.48908e-06
4.15339e-07
1.18003e-06
5.66284e-05
-1.44164e-06
1.92837e-08
1.14814e-06
5.76497e-05
-1.41571e-06
-3.71542e-07
1.14854e-06
5.76496e-05
-1.419e-06
-7.56626e-07
1.18221e-06
5.66281e-05
-1.45675e-06
-1.1373e-06
1.24823e-06
5.45993e-05
-1.52513e-06
-1.50374e-06
1.35452e-06
5.15905e-05
-1.64184e-06
1.51144e-06
4.76414e-05
-1.82589e-06
-1.83064e-06
1.43339e-06
1.25379e-06
5.15936e-05
-1.57457e-06
1.10021e-06
1.07688e-06
5.5232e-05
7.37332e-07
9.66287e-07
5.80088e-05
3.76452e-07
9.00685e-07
5.98824e-05
1.88428e-08
8.69597e-07
6.08261e-05
-3.33238e-07
8.68659e-07
6.0826e-05
-6.81009e-07
8.94907e-07
5.9882e-05
-1.02284e-06
9.49108e-07
5.80079e-05
-1.34712e-06
1.03185e-06
5.52303e-05
1.14634e-06
5.15905e-05
-1.63608e-06
1.27772e-06
8.25202e-07
5.46007e-05
-1.49612e-06
9.8831e-07
7.26655e-07
5.80089e-05
6.69101e-07
6.53807e-07
6.06113e-05
3.43294e-07
6.07799e-07
6.23683e-05
1.72393e-08
5.84751e-07
6.32534e-05
-3.06687e-07
5.8258e-07
6.32534e-05
-6.26649e-07
6.00605e-07
6.2368e-05
-9.40349e-07
6.3765e-07
6.06107e-05
-1.24138e-06
6.92073e-07
5.80079e-05
7.67489e-07
5.45994e-05
-1.52044e-06
1.19495e-06
4.17895e-07
5.66287e-05
-1.44443e-06
9.17059e-07
3.71276e-07
5.98826e-05
6.22697e-07
3.35099e-07
6.23683e-05
3.19531e-07
3.0897e-07
6.40474e-05
1.47016e-08
2.95524e-07
6.48935e-05
-2.88706e-07
2.93688e-07
6.48934e-05
-5.8978e-07
3.02053e-07
6.40472e-05
-8.86515e-07
3.20462e-07
6.2368e-05
-1.17601e-06
3.47976e-07
5.9882e-05
3.85525e-07
5.66281e-05
-1.45273e-06
1.15608e-06
2.3805e-08
5.76498e-05
-1.41234e-06
8.82737e-07
1.93774e-08
6.08262e-05
5.96999e-07
1.24637e-08
6.32535e-05
3.06004e-07
8.15757e-09
6.48935e-05
1.27649e-08
4.95503e-09
6.57201e-05
-2.8042e-07
3.00208e-09
6.572e-05
-5.71622e-07
2.06457e-09
6.48934e-05
-8.59776e-07
1.56986e-09
6.32533e-05
-1.14351e-06
1.13581e-09
6.0826e-05
1.12508e-09
5.76497e-05
-1.4174e-06
1.153e-06
-3.67811e-07
5.76496e-05
-1.41671e-06
8.76747e-07
-3.32456e-07
6.0826e-05
5.93016e-07
-3.07766e-07
6.32534e-05
3.02877e-07
-2.92807e-07
6.48934e-05
1.08152e-08
-2.85568e-07
6.572e-05
-2.81368e-07
-2.87313e-07
6.572e-05
-5.72142e-07
-2.97913e-07
6.48934e-05
-8.60234e-07
-3.17465e-07
6.32533e-05
-1.14357e-06
-3.45173e-07
6.0826e-05
-3.8325e-07
5.76497e-05
-1.4176e-06
1.18401e-06
-7.52724e-07
5.6628e-05
-1.45248e-06
9.01256e-07
-6.78311e-07
5.9882e-05
6.08115e-07
-6.26404e-07
6.2368e-05
3.10244e-07
-5.90973e-07
6.40472e-05
9.1288e-09
-5.74446e-07
6.48934e-05
-2.91938e-07
-5.75893e-07
6.48934e-05
-5.91507e-07
-5.95645e-07
6.40472e-05
-8.87264e-07
-6.33822e-07
6.2368e-05
-1.17666e-06
-6.89157e-07
5.98821e-05
-7.64806e-07
5.66281e-05
-1.45312e-06
1.24887e-06
-1.13424e-06
5.45993e-05
-1.52216e-06
9.53182e-07
-1.01953e-06
5.80079e-05
6.43864e-07
-9.3805e-07
6.06107e-05
3.27133e-07
-8.85267e-07
6.2368e-05
7.80102e-09
-8.60054e-07
6.32534e-05
-3.1179e-07
-8.61257e-07
6.32534e-05
-6.29636e-07
-8.89556e-07
6.2368e-05
-9.42132e-07
-9.4468e-07
6.06108e-05
-1.24241e-06
-1.02802e-06
5.80079e-05
-1.14321e-06
5.45994e-05
-1.52129e-06
1.35532e-06
-1.50077e-06
5.15904e-05
-1.63827e-06
1.03507e-06
-1.34307e-06
5.52302e-05
6.97433e-07
-1.23735e-06
5.80079e-05
3.5325e-07
-1.17316e-06
5.98821e-05
6.74452e-09
-1.14145e-06
6.0826e-05
-3.40724e-07
-1.14291e-06
6.0826e-05
-6.85148e-07
-1.1767e-06
5.98821e-05
-1.02545e-06
-1.2434e-06
5.80079e-05
-1.34905e-06
-1.35048e-06
5.52303e-05
-1.50796e-06
5.15905e-05
-1.6371e-06
1.51331e-06
4.76413e-05
-1.82339e-06
-1.8296e-06
1.14981e-06
5.15905e-05
-1.63165e-06
7.71867e-07
5.45994e-05
-1.51653e-06
3.90164e-07
5.66282e-05
-1.44904e-06
5.34645e-09
5.76497e-05
-1.41475e-06
-3.79483e-07
5.76497e-05
-1.41547e-06
-7.61785e-07
5.66282e-05
-1.45212e-06
-1.14108e-06
5.45994e-05
-1.52091e-06
-1.50653e-06
5.15905e-05
-1.63759e-06
4.76414e-05
-1.82732e-06
-1.82776e-06
2.17674e-06
2.15728e-06
4.83358e-05
-2.51219e-06
-2.49717e-06
1.56546e-06
1.86484e-06
5.23398e-05
-1.99552e-06
1.05735e-06
1.76542e-06
5.53909e-05
-2.04692e-06
5.3781e-07
1.71537e-06
5.74484e-05
-2.01616e-06
1.00174e-08
1.69066e-06
5.84843e-05
-1.99697e-06
-5.17973e-07
1.69074e-06
5.84842e-05
-1.99753e-06
-1.03569e-06
1.71704e-06
5.7448e-05
-2.01928e-06
-1.54188e-06
1.76782e-06
5.53902e-05
-2.0518e-06
-2.14228e-06
1.86302e-06
5.23392e-05
-2.01208e-06
2.14713e-06
4.83358e-05
-2.49088e-06
-2.49306e-06
1.88138e-06
1.55361e-06
5.23401e-05
-2.01569e-06
1.48164e-06
1.46842e-06
5.60316e-05
1.01524e-06
1.3949e-06
5.88461e-05
5.20401e-07
1.3485e-06
6.07444e-05
9.13586e-09
1.32574e-06
6.17006e-05
-5.00493e-07
1.32611e-06
6.17004e-05
-9.94096e-07
1.34809e-06
6.0744e-05
-1.45766e-06
1.39301e-06
5.88455e-05
-1.8583e-06
1.46343e-06
5.60308e-05
1.54804e-06
5.23392e-05
-2.00863e-06
1.77932e-06
1.05271e-06
5.53913e-05
-2.05765e-06
1.40743e-06
1.00741e-06
5.88463e-05
9.70774e-07
9.60871e-07
6.14821e-05
4.98684e-07
9.28559e-07
6.32602e-05
9.11771e-09
9.12518e-07
6.41559e-05
-4.803e-07
9.11957e-07
6.41557e-05
-9.51622e-07
9.2732e-07
6.32598e-05
-1.38745e-06
9.58281e-07
6.14814e-05
-1.76313e-06
1.00083e-06
5.88455e-05
1.0427e-06
5.53903e-05
-2.04889e-06
1.72504e-06
5.3545e-07
5.7449e-05
-2.02259e-06
1.35848e-06
5.14744e-07
6.07448e-05
9.38304e-07
4.92332e-07
6.32604e-05
4.81949e-07
4.74378e-07
6.49581e-05
8.38085e-09
4.65414e-07
6.58135e-05
-4.64685e-07
4.6503e-07
6.58133e-05
-9.2082e-07
4.72416e-07
6.49577e-05
-1.3428e-06
4.88032e-07
6.32598e-05
-1.71259e-06
5.08889e-07
6.0744e-05
5.26364e-07
5.74481e-05
-2.01652e-06
1.69698e-06
1.01312e-08
5.84849e-05
-1.99877e-06
1.33463e-06
7.55909e-09
6.1701e-05
9.20847e-07
4.60559e-09
6.41562e-05
4.72993e-07
3.25582e-09
6.58136e-05
7.9561e-09
2.03254e-09
6.66487e-05
-4.5734e-07
1.21594e-09
6.66486e-05
-9.05705e-07
9.02549e-10
6.58132e-05
-1.32058e-06
7.35696e-10
6.41557e-05
-1.68681e-06
5.57911e-10
6.17004e-05
5.63642e-10
5.84843e-05
-1.99571e-06
1.69518e-06
-5.17178e-07
5.84847e-05
-1.99871e-06
1.33216e-06
-5.01505e-07
6.17008e-05
9.19651e-07
-4.81918e-07
6.41561e-05
4.71827e-07
-4.68145e-07
6.58135e-05
7.17466e-09
-4.6132e-07
6.66487e-05
-4.57669e-07
-4.62199e-07
6.66486e-05
-9.05915e-07
-4.7056e-07
6.58132e-05
-1.32081e-06
-4.86606e-07
6.41557e-05
-1.68689e-06
-5.07437e-07
6.17004e-05
-5.25103e-07
5.84843e-05
-1.99591e-06
1.71983e-06
-1.03371e-06
5.74483e-05
-2.01835e-06
1.35347e-06
-9.93022e-07
6.07443e-05
9.33196e-07
-9.51922e-07
6.326e-05
4.78793e-07
-9.21912e-07
6.49579e-05
6.34914e-09
-9.07849e-07
6.58133e-05
-4.65986e-07
-9.08662e-07
6.58132e-05
-9.21557e-07
-9.24608e-07
6.49577e-05
-1.34319e-06
-9.56085e-07
6.32598e-05
-1.71303e-06
-9.99178e-07
6.07441e-05
-1.04119e-06
5.74482e-05
-2.01693e-06
1.76966e-06
-1.54015e-06
5.53904e-05
-2.05129e-06
1.39717e-06
-1.45536e-06
5.88456e-05
9.63514e-07
-1.38593e-06
6.14816e-05
4.93467e-07
-1.34178e-06
6.32599e-05
5.69754e-09
-1.32059e-06
6.41557e-05
-4.82303e-07
-1.32141e-06
6.41557e-05
-9.53009e-07
-1.3446e-06
6.32597e-05
-1.38852e-06
-1.39019e-06
6.14814e-05
-1.7639e-06
-1.46094e-06
5.88455e-05
-1.54604e-06
5.53904e-05
-2.04972e-06
1.8655e-06
-2.13985e-06
5.23392e-05
-2.01088e-06
1.46692e-06
-1.85522e-06
5.60308e-05
1.00582e-06
-1.7598e-06
5.88455e-05
5.13421e-07
-1.71008e-06
6.0744e-05
5.07851e-09
-1.68481e-06
6.17003e-05
-5.03918e-07
-1.68586e-06
6.17003e-05
-9.96351e-07
-1.71264e-06
6.0744e-05
-1.45931e-06
-1.76418e-06
5.88455e-05
-1.85981e-06
-1.8604e-06
5.60308e-05
-2.14504e-06
5.23393e-05
-2.0096e-06
2.15026e-06
4.83357e-05
-2.4889e-06
-2.4937e-06
1.55203e-06
5.23391e-05
-2.00477e-06
1.04714e-06
5.53902e-05
-2.04548e-06
5.30598e-07
5.7448e-05
-2.013e-06
4.19254e-09
5.84841e-05
-1.99293e-06
-5.22242e-07
5.84841e-05
-1.9935e-06
-1.03911e-06
5.7448e-05
-2.01543e-06
-1.54484e-06
5.53903e-05
-2.04887e-06
-2.14449e-06
5.23393e-05
-2.00941e-06
4.83359e-05
-2.49179e-06
-2.49189e-06
1.63219e-06
1.62953e-06
4.8885e-05
-1.90822e-06
-1.90632e-06
1.15267e-06
1.40849e-06
5.29262e-05
-1.51816e-06
7.7862e-07
1.37489e-06
5.60069e-05
-1.61937e-06
3.90986e-07
1.33939e-06
5.80842e-05
-1.58967e-06
3.38091e-09
1.32364e-06
5.91297e-05
-1.58283e-06
-3.84453e-07
1.32367e-06
5.91299e-05
-1.58231e-06
-7.72952e-07
1.33982e-06
5.80846e-05
-1.58874e-06
-1.14878e-06
1.37642e-06
5.60077e-05
-1.61761e-06
-1.62417e-06
1.40903e-06
5.29278e-05
-1.52295e-06
1.62989e-06
4.88877e-05
-1.90178e-06
-1.9049e-06
1.41036e-06
1.14967e-06
5.29261e-05
-1.51931e-06
1.10005e-06
1.09681e-06
5.66516e-05
7.59573e-07
1.06659e-06
5.94925e-05
3.87948e-07
1.04509e-06
6.14088e-05
2.77716e-09
1.03377e-06
6.23738e-05
-3.81812e-07
1.03417e-06
6.2374e-05
-7.53262e-07
1.04576e-06
6.14093e-05
-1.09277e-06
1.06771e-06
5.94934e-05
-1.4035e-06
1.098e-06
5.6653e-05
1.15469e-06
5.2928e-05
-1.51818e-06
1.37702e-06
7.75674e-07
5.60069e-05
-1.61916e-06
1.06985e-06
7.5664e-07
5.94925e-05
7.33819e-07
7.3031e-07
6.21526e-05
3.74546e-07
7.15427e-07
6.39476e-05
2.91947e-09
7.08506e-07
6.48517e-05
-3.68561e-07
7.08656e-07
6.48519e-05
-7.27382e-07
7.16172e-07
6.3948e-05
-1.06281e-06
7.31598e-07
6.21533e-05
-1.37089e-06
7.5778e-07
5.94936e-05
7.78238e-07
5.60081e-05
-1.61285e-06
1.34086e-06
3.87685e-07
5.80843e-05
-1.58899e-06
1.04789e-06
3.8454e-07
6.14089e-05
7.18939e-07
3.71355e-07
6.39476e-05
3.66645e-07
3.63223e-07
6.56615e-05
2.95186e-09
3.59674e-07
6.65249e-05
-3.60411e-07
3.5996e-07
6.65251e-05
-7.12155e-07
3.63719e-07
6.56618e-05
-1.04101e-06
3.7197e-07
6.39482e-05
-1.33426e-06
3.85792e-07
6.14097e-05
3.89185e-07
5.80853e-05
-1.58316e-06
1.32483e-06
9.30899e-11
5.913e-05
-1.58196e-06
1.03656e-06
4.97153e-11
6.2374e-05
7.1169e-07
-2.94116e-10
6.48518e-05
3.63112e-07
-2.00044e-10
6.6525e-05
3.17654e-09
-1.96567e-10
6.7368e-05
-3.56718e-07
-1.6922e-10
6.73681e-05
-7.04828e-07
6.04205e-11
6.65253e-05
-1.02927e-06
2.59117e-10
6.48523e-05
-1.31796e-06
3.12458e-10
6.23746e-05
5.00544e-10
5.91308e-05
-1.57642e-06
1.32498e-06
-3.88131e-07
5.91302e-05
-1.58204e-06
1.03647e-06
-3.84982e-07
6.23742e-05
7.11877e-07
-3.71356e-07
6.4852e-05
3.63156e-07
-3.63586e-07
6.65251e-05
3.22741e-09
-3.59868e-07
6.73682e-05
-3.56524e-07
-3.59839e-07
6.73682e-05
-7.04685e-07
-3.63485e-07
6.65254e-05
-1.02927e-06
-3.71455e-07
6.48524e-05
-1.31787e-06
-3.84779e-07
6.23747e-05
-3.88091e-07
5.91308e-05
-1.57655e-06
1.34151e-06
-7.76207e-07
5.8085e-05
-1.58892e-06
1.04828e-06
-7.56083e-07
6.14096e-05
7.18952e-07
-7.30145e-07
6.39482e-05
3.66996e-07
-7.14885e-07
6.56619e-05
3.29447e-09
-7.07718e-07
6.65253e-05
-3.60124e-07
-7.07763e-07
6.65254e-05
-7.11846e-07
-7.14897e-07
6.56621e-05
-1.04073e-06
-7.3018e-07
6.39484e-05
-1.33431e-06
-7.56458e-07
6.14099e-05
-7.76785e-07
5.80855e-05
-1.58336e-06
1.37831e-06
-1.15194e-06
5.60081e-05
-1.61922e-06
1.07028e-06
-1.09513e-06
5.94937e-05
7.34439e-07
-1.06517e-06
6.21535e-05
3.75119e-07
-1.04309e-06
6.39483e-05
3.39262e-09
-1.03158e-06
6.48524e-05
-3.68021e-07
-1.03141e-06
6.48524e-05
-7.27075e-07
-1.04329e-06
6.39484e-05
-1.06278e-06
-1.0653e-06
6.21537e-05
-1.37105e-06
-1.09568e-06
5.94939e-05
-1.15266e-06
5.60084e-05
-1.61333e-06
1.41178e-06
-1.6264e-06
5.29282e-05
-1.52462e-06
1.10049e-06
-1.40561e-06
5.66533e-05
7.61045e-07
-1.37253e-06
5.94938e-05
3.88745e-07
-1.336e-06
6.14099e-05
3.78619e-09
-1.31939e-06
6.23747e-05
-3.817e-07
-1.31955e-06
6.23747e-05
-7.53193e-07
-1.33584e-06
6.14099e-05
-1.09313e-06
-1.37278e-06
5.94939e-05
-1.40427e-06
-1.40608e-06
5.66535e-05
-1.62741e-06
5.29284e-05
-1.51887e-06
1.63273e-06
4.88881e-05
-1.90337e-06
-1.90702e-06
1.15767e-06
5.29283e-05
-1.51954e-06
7.81522e-07
5.60084e-05
-1.61446e-06
3.92625e-07
5.80855e-05
-1.58438e-06
3.8961e-09
5.91309e-05
-1.57767e-06
-3.84715e-07
5.91309e-05
-1.57736e-06
-7.73623e-07
5.80854e-05
-1.58423e-06
-1.15014e-06
5.60083e-05
-1.61402e-06
-1.62559e-06
5.29283e-05
-1.51968e-06
4.88882e-05
-1.90253e-06
-1.90317e-06
1.13282e-06
1.13504e-06
4.9284e-05
-1.33085e-06
-1.3305e-06
8.17306e-07
1.01844e-06
5.33569e-05
-1.12922e-06
5.57624e-07
1.02679e-06
5.64621e-05
-1.2186e-06
2.79605e-07
1.00167e-06
5.85559e-05
-1.19167e-06
4.64866e-09
9.96681e-07
5.96096e-05
-1.19825e-06
-2.70604e-07
9.96456e-07
5.96097e-05
-1.19765e-06
-5.50011e-07
1.00139e-06
5.85562e-05
-1.19059e-06
-8.11516e-07
1.02755e-06
5.64627e-05
-1.21658e-06
-1.12357e-06
1.01832e-06
5.33581e-05
-1.13275e-06
1.13579e-06
4.9286e-05
-1.32431e-06
-1.33079e-06
1.01574e-06
8.1908e-07
5.33569e-05
-1.12688e-06
7.88381e-07
7.89687e-07
5.7111e-05
5.50298e-07
7.87002e-07
5.99732e-05
2.81706e-07
7.78083e-07
6.19038e-05
3.89792e-09
7.74216e-07
6.28759e-05
-2.73333e-07
7.74433e-07
6.2876e-05
-5.42008e-07
7.7804e-07
6.19042e-05
-7.7962e-07
7.87133e-07
5.99739e-05
-1.0067e-06
7.90209e-07
5.71121e-05
8.23143e-07
5.33584e-05
-1.12363e-06
1.02452e-06
5.5841e-07
5.64622e-05
-1.215e-06
7.85978e-07
5.51056e-07
5.99733e-05
5.37758e-07
5.3781e-07
6.26522e-05
2.74274e-07
5.31689e-07
6.44598e-05
3.89162e-09
5.2848e-07
6.53701e-05
-2.6658e-07
5.28302e-07
6.53702e-05
-5.29773e-07
5.31785e-07
6.44601e-05
-7.77182e-07
5.38345e-07
6.26528e-05
-1.01637e-06
5.50989e-07
5.99742e-05
5.60091e-07
5.64632e-05
-1.20763e-06
9.99107e-07
2.78473e-07
5.85561e-05
-1.188e-06
7.76738e-07
2.80696e-07
6.1904e-05
5.3172e-07
2.73823e-07
6.44598e-05
2.71331e-07
2.70576e-07
6.6185e-05
3.5822e-09
2.68706e-07
6.70541e-05
-2.63717e-07
2.68864e-07
6.70542e-05
-5.23529e-07
2.70376e-07
6.61853e-05
-7.68493e-07
2.73342e-07
6.44603e-05
-9.90341e-07
2.8114e-07
6.19047e-05
2.79334e-07
5.85569e-05
-1.18088e-06
9.94261e-07
2.89607e-09
5.961e-05
-1.19497e-06
7.73372e-07
2.96279e-09
6.2876e-05
5.28212e-07
2.3108e-09
6.53702e-05
2.69481e-07
2.31481e-09
6.70541e-05
3.66433e-09
2.14724e-09
6.79025e-05
-2.62303e-07
1.82609e-09
6.79025e-05
-5.20349e-07
2.00489e-09
6.70544e-05
-7.64448e-07
2.10274e-09
6.53706e-05
-9.85305e-07
1.94293e-09
6.28766e-05
2.31924e-09
5.96107e-05
-1.18754e-06
9.9451e-07
-2.7327e-07
5.96102e-05
-1.1956e-06
7.73003e-07
-2.7564e-07
6.28762e-05
5.28329e-07
-2.68221e-07
6.53703e-05
2.69358e-07
-2.65818e-07
6.70542e-05
3.35548e-09
-2.64247e-07
6.79025e-05
-2.62181e-07
-2.64293e-07
6.79026e-05
-5.20331e-07
-2.66363e-07
6.70544e-05
-7.64686e-07
-2.694e-07
6.53706e-05
-9.85105e-07
-2.76494e-07
6.28766e-05
-2.7479e-07
5.96107e-05
-1.18757e-06
9.99708e-07
-5.52203e-07
5.85566e-05
-1.18865e-06
7.77104e-07
-5.44059e-07
6.19044e-05
5.31263e-07
-5.31846e-07
6.44601e-05
2.7104e-07
-5.25486e-07
6.61853e-05
3.33184e-09
-5.22404e-07
6.70543e-05
-2.64205e-07
-5.22824e-07
6.70544e-05
-5.23752e-07
-5.26241e-07
6.61855e-05
-7.68355e-07
-5.33035e-07
6.44604e-05
-9.90555e-07
-5.46402e-07
6.19048e-05
-5.55305e-07
5.8557e-05
-1.18066e-06
1.02577e-06
-8.13891e-07
5.6463e-05
-1.21569e-06
7.86079e-07
-7.81254e-07
5.9974e-05
5.37873e-07
-7.7879e-07
6.26527e-05
2.7386e-07
-7.69691e-07
6.44602e-05
3.02696e-09
-7.662e-07
6.53705e-05
-2.67203e-07
-7.664e-07
6.53705e-05
-5.30467e-07
-7.71082e-07
6.44604e-05
-7.78009e-07
-7.80952e-07
6.2653e-05
-1.01676e-06
-7.84348e-07
5.99743e-05
-8.18198e-07
5.64633e-05
-1.20787e-06
1.01723e-06
-1.12511e-06
5.33582e-05
-1.13107e-06
7.88972e-07
-1.0078e-06
5.71121e-05
5.50946e-07
-1.01687e-06
5.9974e-05
2.80995e-07
-9.91212e-07
6.19045e-05
2.98657e-09
-9.86173e-07
6.28764e-05
-2.75296e-07
-9.86943e-07
6.28764e-05
-5.43835e-07
-9.92886e-07
6.19046e-05
-7.81277e-07
-1.02006e-06
5.99742e-05
-1.00849e-06
-1.01239e-06
5.71124e-05
-1.13084e-06
5.33585e-05
-1.1242e-06
1.13506e-06
4.9286e-05
-1.32431e-06
-1.33056e-06
8.22377e-07
5.33582e-05
-1.12342e-06
5.59632e-07
5.6463e-05
-1.20782e-06
2.79192e-07
5.85566e-05
-1.18103e-06
2.35695e-09
5.96103e-05
-1.18829e-06
-2.74034e-07
5.96103e-05
-1.18876e-06
-5.53526e-07
5.85567e-05
-1.18307e-06
-8.15338e-07
5.64631e-05
-1.21123e-06
-1.12658e-06
5.33584e-05
-1.12847e-06
4.92862e-05
-1.32563e-06
-1.32924e-06
7.72677e-07
7.83895e-07
4.95518e-05
-9.05925e-07
-9.14455e-07
5.83525e-07
7.32989e-07
5.36509e-05
-8.33406e-07
4.02223e-07
7.50501e-07
5.67767e-05
-8.80283e-07
2.02696e-07
7.30737e-07
5.88846e-05
-8.56254e-07
5.30806e-09
7.32636e-07
5.99456e-05
-8.68031e-07
-1.91897e-07
7.32162e-07
5.99457e-05
-8.67001e-07
-3.92828e-07
7.29461e-07
5.88847e-05
-8.54149e-07
-5.7547e-07
7.49738e-07
5.6777e-05
-8.76493e-07
-7.62374e-07
7.31146e-07
5.36516e-05
-8.33173e-07
7.83179e-07
4.9553e-05
-8.99366e-07
-9.11985e-07
7.21889e-07
5.9157e-07
5.36508e-05
-8.21289e-07
5.65397e-07
5.72645e-07
5.74307e-05
3.99114e-07
5.79619e-07
6.03131e-05
2.04965e-07
5.7374e-07
6.22576e-05
4.39182e-09
5.74e-07
6.32366e-05
-1.95489e-07
5.74027e-07
6.32366e-05
-3.89587e-07
5.73114e-07
6.22577e-05
-5.5555e-07
5.7889e-07
6.03134e-05
-7.1179e-07
5.72293e-07
5.74313e-05
5.94243e-07
5.36516e-05
-8.16316e-07
7.40512e-07
4.07023e-07
5.67765e-05
-8.68173e-07
5.73072e-07
4.03591e-07
6.0313e-05
3.95885e-07
3.99494e-07
6.30115e-05
2.0257e-07
3.96405e-07
6.48326e-05
4.20174e-09
3.94897e-07
6.57498e-05
-1.94192e-07
3.94592e-07
6.57498e-05
-3.8701e-07
3.96188e-07
6.48327e-05
-5.63235e-07
3.99575e-07
6.30118e-05
-7.31079e-07
4.02963e-07
6.03134e-05
4.08186e-07
5.6777e-05
-8.59312e-07
7.20869e-07
2.03303e-07
5.88845e-05
-8.44159e-07
5.67188e-07
2.05751e-07
6.22574e-05
3.93016e-07
2.04e-07
6.48325e-05
2.02191e-07
2.03326e-07
6.65709e-05
3.76344e-09
2.02369e-07
6.74466e-05
-1.94107e-07
2.02501e-07
6.74467e-05
-3.84098e-07
2.02951e-07
6.6571e-05
-5.57981e-07
2.03271e-07
6.48327e-05
-7.10816e-07
2.0598e-07
6.22577e-05
2.03956e-07
5.88847e-05
-8.3539e-07
7.23256e-07
3.22539e-09
5.99455e-05
-8.5663e-07
5.68237e-07
3.54185e-09
6.32364e-05
3.91341e-07
2.95058e-09
6.57497e-05
2.01276e-07
3.01198e-09
6.74466e-05
3.8099e-09
2.88001e-09
6.83015e-05
-1.93784e-07
2.50665e-09
6.83016e-05
-3.82837e-07
2.72545e-09
6.74467e-05
-5.58372e-07
2.77232e-09
6.57498e-05
-7.13192e-07
2.4668e-09
6.32366e-05
2.7646e-09
5.99456e-05
-8.47547e-07
7.23669e-07
-1.97258e-07
5.99456e-05
-8.57352e-07
5.67932e-07
-1.99509e-07
6.32365e-05
3.91529e-07
-1.96939e-07
6.57497e-05
2.01193e-07
-1.97019e-07
6.74466e-05
3.4464e-09
-1.96324e-07
6.83015e-05
-1.93646e-07
-1.96276e-07
6.83016e-05
-3.82887e-07
-1.97463e-07
6.74467e-05
-5.58759e-07
-1.97945e-07
6.57498e-05
-7.1309e-07
-2.00024e-07
6.32366e-05
-1.9851e-07
5.99456e-05
-8.47747e-07
7.21859e-07
-3.99465e-07
5.88847e-05
-8.45298e-07
5.67928e-07
-3.94817e-07
6.22576e-05
3.9277e-07
-3.91595e-07
6.48326e-05
2.01986e-07
-3.88089e-07
6.65709e-05
3.50743e-09
-3.86648e-07
6.74466e-05
-1.9477e-07
-3.87047e-07
6.74466e-05
-3.84523e-07
-3.88545e-07
6.6571e-05
-5.5815e-07
-3.924e-07
6.48327e-05
-7.11568e-07
-3.9685e-07
6.22576e-05
-4.0214e-07
5.88846e-05
-8.35683e-07
7.42766e-07
-5.83536e-07
5.67769e-05
-8.69968e-07
5.73919e-07
-5.61727e-07
6.03133e-05
3.96494e-07
-5.6846e-07
6.30117e-05
2.02345e-07
-5.62307e-07
6.48326e-05
3.22003e-09
-5.62967e-07
6.57498e-05
-1.95027e-07
-5.62942e-07
6.57498e-05
-3.88225e-07
-5.63439e-07
6.48327e-05
-5.64782e-07
-5.70187e-07
6.30117e-05
-7.32328e-07
-5.6425e-07
6.03134e-05
-5.87666e-07
5.67769e-05
-8.60592e-07
7.25256e-07
-7.70485e-07
5.36515e-05
-8.26685e-07
5.67533e-07
-7.18302e-07
5.74312e-05
4.00526e-07
-7.36294e-07
6.03133e-05
2.04517e-07
-7.1599e-07
6.22576e-05
3.41073e-09
-7.17906e-07
6.32365e-05
-1.9811e-07
-7.18601e-07
6.32366e-05
-3.92291e-07
-7.17173e-07
6.22576e-05
-5.58515e-07
-7.38924e-07
6.03134e-05
-7.15221e-07
-7.22423e-07
5.74313e-05
-7.75813e-07
5.36515e-05
-8.18385e-07
7.77833e-07
4.95529e-05
-9.0409e-07
-9.08417e-07
5.89985e-07
5.36515e-05
-8.2184e-07
4.05416e-07
5.67769e-05
-8.64893e-07
2.02802e-07
5.88846e-05
-8.40604e-07
2.87408e-09
5.99456e-05
-8.52952e-07
-1.96439e-07
5.99456e-05
-8.53196e-07
-3.97974e-07
5.88847e-05
-8.421e-07
-5.81528e-07
5.6777e-05
-8.6752e-07
-7.67813e-07
5.36516e-05
-8.25943e-07
4.9553e-05
-9.02597e-07
-9.08398e-07
6.10112e-07
6.2289e-07
4.97656e-05
-7.17355e-07
-7.2725e-07
4.81094e-07
5.91564e-07
5.38845e-05
-6.93094e-07
3.31469e-07
5.94365e-07
5.70257e-05
-6.91361e-07
1.67771e-07
5.71159e-07
5.91439e-05
-6.64143e-07
4.14901e-09
5.72066e-07
6.02102e-05
-6.70957e-07
-1.59296e-07
5.71538e-07
6.02101e-05
-6.69798e-07
-3.24665e-07
5.69672e-07
5.91437e-05
-6.61635e-07
-4.75757e-07
5.93378e-07
5.70255e-05
-6.8717e-07
-6.03463e-07
5.89824e-07
5.38845e-05
-6.9218e-07
6.22327e-07
4.97658e-05
-7.13647e-07
-7.24935e-07
5.79703e-07
4.90507e-07
5.38842e-05
-6.80105e-07
4.5609e-07
4.64036e-07
5.76835e-05
3.20773e-07
4.63223e-07
6.05812e-05
1.64168e-07
4.50683e-07
6.25361e-05
3.24107e-09
4.49742e-07
6.35204e-05
-1.57076e-07
4.49761e-07
6.35203e-05
-3.13809e-07
4.50124e-07
6.2536e-05
-4.49126e-07
4.62685e-07
6.05811e-05
-5.72516e-07
4.63982e-07
5.76835e-05
4.9288e-07
5.38842e-05
-6.76726e-07
5.83665e-07
3.37117e-07
5.70252e-05
-6.78088e-07
4.56276e-07
3.25705e-07
6.0581e-05
3.16851e-07
3.20767e-07
6.32946e-05
1.61721e-07
3.13562e-07
6.51262e-05
3.05416e-09
3.10937e-07
6.60486e-05
-1.55654e-07
3.10699e-07
6.60486e-05
-3.10378e-07
3.13518e-07
6.51261e-05
-4.48974e-07
3.21101e-07
6.32945e-05
-5.76647e-07
3.25429e-07
6.05808e-05
3.3842e-07
5.70249e-05
-6.71236e-07
5.60588e-07
1.68883e-07
5.91435e-05
-6.50842e-07
4.43841e-07
1.65362e-07
6.25359e-05
3.09927e-07
1.63384e-07
6.51261e-05
1.5973e-07
1.61121e-07
6.6875e-05
2.69686e-09
1.59693e-07
6.7756e-05
-1.53839e-07
1.59881e-07
6.77559e-05
-3.03293e-07
1.6099e-07
6.68748e-05
-4.36922e-07
1.63063e-07
6.51259e-05
-5.52935e-07
1.65912e-07
6.25355e-05
1.69821e-07
5.9143e-05
-6.44109e-07
5.62078e-07
2.10726e-09
6.02099e-05
-6.58567e-07
4.43648e-07
2.5411e-09
6.35202e-05
3.07216e-07
2.12305e-09
6.60486e-05
1.5835e-07
2.23977e-09
6.7756e-05
2.80078e-09
2.21453e-09
6.86162e-05
-1.5286e-07
1.95903e-09
6.86162e-05
-3.00824e-07
2.22899e-09
6.77558e-05
-4.3611e-07
2.32771e-09
6.60483e-05
-5.54446e-07
2.05385e-09
6.35197e-05
2.30609e-09
6.02092e-05
-6.51533e-07
5.62551e-07
-1.64868e-07
6.021e-05
-6.59204e-07
4.43511e-07
-1.60976e-07
6.35203e-05
3.07455e-07
-1.58198e-07
6.60486e-05
1.58369e-07
-1.56388e-07
6.7756e-05
2.55334e-09
-1.55009e-07
6.86162e-05
-1.52684e-07
-1.5486e-07
6.86162e-05
-3.00822e-07
-1.56488e-07
6.77558e-05
-4.36458e-07
-1.58613e-07
6.60483e-05
-5.5438e-07
-1.60815e-07
6.35197e-05
-1.65246e-07
6.02092e-05
-6.51797e-07
5.61708e-07
-3.31942e-07
5.91438e-05
-6.52139e-07
4.44756e-07
-3.19227e-07
6.25361e-05
3.10026e-07
-3.14864e-07
6.51262e-05
1.59828e-07
-3.07087e-07
6.6875e-05
2.70479e-09
-3.04301e-07
6.7756e-05
-1.54232e-07
-3.04521e-07
6.77559e-05
-3.03566e-07
-3.07045e-07
6.68748e-05
-4.37064e-07
-3.14907e-07
6.51258e-05
-5.53745e-07
-3.20108e-07
6.25355e-05
-3.33128e-07
5.91429e-05
-6.44672e-07
5.86216e-07
-4.84737e-07
5.70257e-05
-6.80097e-07
4.57665e-07
-4.55832e-07
6.05814e-05
3.17969e-07
-4.54488e-07
6.32948e-05
1.62037e-07
-4.41376e-07
6.51262e-05
2.60035e-09
-4.40569e-07
6.60486e-05
-1.56045e-07
-4.40287e-07
6.60485e-05
-3.11248e-07
-4.41738e-07
6.51259e-05
-4.50302e-07
-4.54976e-07
6.32944e-05
-5.77919e-07
-4.56733e-07
6.05807e-05
-4.86813e-07
5.70248e-05
-6.72788e-07
5.83861e-07
-6.12686e-07
5.38849e-05
-6.8569e-07
4.59192e-07
-5.80016e-07
5.7684e-05
3.2299e-07
-5.82707e-07
6.05813e-05
1.6454e-07
-5.58661e-07
6.2536e-05
3.06525e-09
-5.59334e-07
6.35202e-05
-1.58944e-07
-5.59644e-07
6.35201e-05
-3.15871e-07
-5.58646e-07
6.25357e-05
-4.51726e-07
-5.83482e-07
6.05808e-05
-5.75743e-07
-5.81697e-07
5.76833e-05
-6.15276e-07
5.38841e-05
-6.78971e-07
6.16633e-07
4.97664e-05
-7.19227e-07
-7.21414e-07
4.88476e-07
5.38849e-05
-6.83692e-07
3.35809e-07
5.70256e-05
-6.78156e-07
1.69103e-07
5.91437e-05
-6.50332e-07
2.97932e-09
6.02099e-05
-6.57408e-07
-1.62658e-07
6.02098e-05
-6.5714e-07
-3.28819e-07
5.91433e-05
-6.50273e-07
-4.81164e-07
5.70251e-05
-6.78279e-07
-6.08563e-07
5.38842e-05
-6.84746e-07
4.97656e-05
-7.16718e-07
-7.20872e-07
6.01354e-07
6.07572e-07
4.99775e-05
-7.07276e-07
-7.09689e-07
4.80245e-07
5.75881e-07
5.41146e-05
-6.81241e-07
3.28079e-07
5.64632e-07
5.72696e-05
-6.53094e-07
1.6519e-07
5.395e-07
5.93972e-05
-6.26253e-07
-1.13835e-10
5.38179e-07
6.04683e-05
-6.27707e-07
-1.6556e-07
5.38295e-07
6.04684e-05
-6.27858e-07
-3.29739e-07
5.39991e-07
5.93975e-05
-6.26709e-07
-4.82997e-07
5.66448e-07
5.72701e-05
-6.53948e-07
-6.0255e-07
5.77726e-07
5.41154e-05
-6.85791e-07
6.10189e-07
4.99786e-05
-7.0993e-07
-7.13028e-07
5.70255e-07
4.87265e-07
5.41146e-05
-6.77701e-07
4.47979e-07
4.53411e-07
5.79308e-05
3.10722e-07
4.44293e-07
6.08418e-05
1.57251e-07
4.2588e-07
6.28057e-05
-1.45986e-10
4.23203e-07
6.37946e-05
-1.5724e-07
4.23524e-07
6.37946e-05
-3.11132e-07
4.2626e-07
6.28059e-05
-4.48863e-07
4.45049e-07
6.08422e-05
-5.70713e-07
4.54891e-07
5.79315e-05
4.90147e-07
5.41154e-05
-6.80516e-07
5.59199e-07
3.34068e-07
5.72696e-05
-6.47803e-07
4.3963e-07
3.15388e-07
6.08418e-05
3.04542e-07
3.08133e-07
6.35681e-05
1.54043e-07
2.96764e-07
6.54083e-05
7.31727e-11
2.93112e-07
6.63351e-05
-1.54202e-07
2.93001e-07
6.63352e-05
-3.04884e-07
2.97097e-07
6.54084e-05
-4.39698e-07
3.0897e-07
6.35684e-05
-5.59795e-07
3.15578e-07
6.08422e-05
3.3521e-07
5.727e-05
-6.48567e-07
5.33404e-07
1.68717e-07
5.93972e-05
-6.19932e-07
4.21061e-07
1.59992e-07
6.28056e-05
2.93394e-07
1.56756e-07
6.54082e-05
1.49811e-07
1.52148e-07
6.71655e-05
-9.13486e-11
1.50169e-07
6.80508e-05
-1.49772e-07
1.50376e-07
6.80508e-05
-2.93319e-07
1.52152e-07
6.71656e-05
-4.21344e-07
1.56594e-07
6.54084e-05
-5.33539e-07
1.60467e-07
6.28059e-05
1.69304e-07
5.93974e-05
-6.20976e-07
5.31908e-07
1.71649e-09
6.04683e-05
-6.21178e-07
4.18681e-07
1.86172e-09
6.37944e-05
2.89549e-07
1.3787e-09
6.6335e-05
1.47882e-07
1.41858e-09
6.80507e-05
5.15839e-11
1.40582e-09
6.89152e-05
-1.48078e-07
1.17477e-09
6.89152e-05
-2.89632e-07
1.37755e-09
6.80508e-05
-4.18438e-07
1.45093e-09
6.63351e-05
-5.32104e-07
1.26686e-09
6.37946e-05
1.48643e-09
6.04684e-05
-6.2204e-07
5.32148e-07
-1.65636e-07
6.04683e-05
-6.21587e-07
4.18504e-07
-1.57053e-07
6.37944e-05
2.89707e-07
-1.53405e-07
6.6335e-05
1.47906e-07
-1.492e-07
6.80507e-05
-1.70272e-10
-1.47364e-07
6.89152e-05
-1.47973e-07
-1.47261e-07
6.89152e-05
-2.89646e-07
-1.4945e-07
6.80508e-05
-4.18677e-07
-1.53966e-07
6.63351e-05
-5.32039e-07
-1.57313e-07
6.37945e-05
-1.66384e-07
6.04683e-05
-6.22152e-07
5.33858e-07
-3.30616e-07
5.93973e-05
-6.20474e-07
4.2158e-07
-3.11349e-07
6.28057e-05
2.93423e-07
-3.04788e-07
6.54082e-05
1.49798e-07
-2.93021e-07
6.71655e-05
-9.21816e-11
-2.89185e-07
6.80507e-05
-1.50115e-07
-2.89466e-07
6.80507e-05
-2.93603e-07
-2.93352e-07
6.71655e-05
-4.21466e-07
-3.05321e-07
6.54083e-05
-5.34045e-07
-3.12554e-07
6.28057e-05
-3.32085e-07
5.93973e-05
-6.21227e-07
5.60394e-07
-4.84707e-07
5.72699e-05
-6.48338e-07
4.40379e-07
-4.49363e-07
6.0842e-05
3.05305e-07
-4.39647e-07
6.35682e-05
1.54235e-07
-4.20817e-07
6.54082e-05
-3.1372e-10
-4.18074e-07
6.6335e-05
-1.54609e-07
-4.18268e-07
6.6335e-05
-3.05503e-07
-4.21599e-07
6.54083e-05
-4.40639e-07
-4.41004e-07
6.35682e-05
-5.60503e-07
-4.5091e-07
6.0842e-05
-4.86865e-07
5.72699e-05
-6.49355e-07
5.72408e-07
-6.04052e-07
5.41151e-05
-6.80341e-07
4.50174e-07
-5.71048e-07
5.79312e-05
3.12194e-07
-5.59323e-07
6.08419e-05
1.57613e-07
-5.33101e-07
6.28056e-05
-4.61872e-10
-5.31518e-07
6.37944e-05
-1.5855e-07
-5.31998e-07
6.37944e-05
-3.12726e-07
-5.34272e-07
6.28057e-05
-4.50442e-07
-5.61396e-07
6.0842e-05
-5.72609e-07
-5.73944e-07
5.79313e-05
-6.07013e-07
5.41151e-05
-6.81567e-07
6.05342e-07
4.99783e-05
-7.09327e-07
-7.09954e-07
4.85674e-07
5.4115e-05
-6.80063e-07
3.31505e-07
5.72697e-05
-6.48145e-07
1.66358e-07
5.93971e-05
-6.20429e-07
-8.93064e-10
6.04681e-05
-6.21567e-07
-1.67922e-07
6.04681e-05
-6.22036e-07
-3.32622e-07
5.93972e-05
-6.2173e-07
-4.86359e-07
5.72698e-05
-6.50563e-07
-6.05265e-07
5.41151e-05
-6.83439e-07
4.99783e-05
-7.11144e-07
-7.12713e-07
6.35549e-07
6.46017e-07
5.01997e-05
-7.48621e-07
-7.57077e-07
5.07226e-07
6.10313e-07
5.43557e-05
-7.23458e-07
3.46773e-07
5.92053e-07
5.75251e-05
-6.87828e-07
1.76276e-07
5.66594e-07
5.96623e-05
-6.61483e-07
9.23811e-10
5.62603e-07
6.07384e-05
-6.57768e-07
-1.74429e-07
5.62024e-07
6.07385e-05
-6.56607e-07
-3.46212e-07
5.64736e-07
5.96627e-05
-6.58358e-07
-5.08539e-07
5.89758e-07
5.75257e-05
-6.82411e-07
-6.3727e-07
6.07299e-07
5.43567e-05
-7.19336e-07
6.43396e-07
5.02011e-05
-7.50034e-07
-7.53771e-07
6.0108e-07
5.14489e-07
5.43552e-05
-7.12838e-07
4.72869e-07
4.78993e-07
5.81891e-05
3.26119e-07
4.66112e-07
6.11137e-05
1.65426e-07
4.45392e-07
6.30867e-05
1.09557e-10
4.4141e-07
6.40802e-05
-1.65052e-07
4.4122e-07
6.40804e-05
-3.25983e-07
4.44604e-07
6.30872e-05
-4.73179e-07
4.65006e-07
6.11145e-05
-6.0158e-07
4.77669e-07
5.81902e-05
5.13873e-07
5.43566e-05
-7.14059e-07
5.83695e-07
3.51001e-07
5.75242e-05
-6.76891e-07
4.6073e-07
3.29883e-07
6.11133e-05
3.19169e-07
3.22354e-07
6.38526e-05
1.61624e-07
3.09143e-07
6.57015e-05
-1.89667e-10
3.05237e-07
6.66328e-05
-1.62025e-07
3.05076e-07
6.6633e-05
-3.19535e-07
3.08944e-07
6.5702e-05
-4.61028e-07
3.22115e-07
6.38534e-05
-5.84318e-07
3.28991e-07
6.11145e-05
3.50254e-07
5.75257e-05
-6.76988e-07
5.58603e-07
1.77786e-07
5.96612e-05
-6.51572e-07
4.40288e-07
1.6708e-07
6.3086e-05
3.06144e-07
1.6337e-07
6.57012e-05
1.55958e-07
1.57564e-07
6.74671e-05
-3.78361e-10
1.55552e-07
6.83567e-05
-1.56578e-07
1.55629e-07
6.83569e-05
-3.06582e-07
1.57486e-07
6.74676e-05
-4.40769e-07
1.63115e-07
6.57021e-05
-5.5926e-07
1.66828e-07
6.30872e-05
1.77245e-07