/*--------------------------------*- C++ -*----------------------------------*\
| =========                 |                                                 |
| \\      /  F ield         | OpenFOAM: The Open Source CFD Toolbox           |
|  \\    /   O peration     | Version:  2406                                  |
|   \\  /    A nd           | Website:  www.openfoam.com                      |
|    \\/     M anipulation  |                                                 |
\*---------------------------------------------------------------------------*/
FoamFile
{
    version     2.0;
    format      ascii;
    arch        "LSB;label=32;scalar=64";
    class       volScalarField;
    location    "300";
    object      turbulenceProperties:epsilon;
}
// * * * * * * * * * * * * * * * * * * * * * * * * * * * * * * * * * * * * * //

dimensions      [0 2 -3 0 0 0 0];

internalField   nonuniform List<scalar> 
25000
(
1.05989e-06
9.63447e-07
8.22415e-07
7.9202e-07
7.77759e-07
7.77896e-07
7.92503e-07
8.21029e-07
9.79428e-07
1.07329e-06
9.63785e-07
9.24734e-07
7.72008e-07
6.9738e-07
6.629e-07
6.62918e-07
6.9753e-07
7.72191e-07
9.22322e-07
9.78724e-07
8.21605e-07
7.72324e-07
6.64878e-07
6.03584e-07
5.74923e-07
5.74961e-07
6.03688e-07
6.64631e-07
7.71517e-07
8.2081e-07
7.9114e-07
6.96952e-07
6.03445e-07
5.46403e-07
5.19193e-07
5.1926e-07
5.46528e-07
6.03655e-07
6.97551e-07
7.92384e-07
7.76909e-07
6.62207e-07
5.74636e-07
5.19108e-07
4.9261e-07
4.92672e-07
5.19242e-07
5.75008e-07
6.63012e-07
7.77883e-07
7.77232e-07
6.62312e-07
5.74557e-07
5.19015e-07
4.92583e-07
4.9264e-07
5.19222e-07
5.74994e-07
6.62994e-07
7.77885e-07
7.9198e-07
6.96833e-07
6.03189e-07
5.46233e-07
5.19118e-07
5.19179e-07
5.4646e-07
6.03599e-07
6.97519e-07
7.92389e-07
8.20728e-07
7.70859e-07
6.64133e-07
6.03377e-07
5.74777e-07
5.74848e-07
6.03611e-07
6.64565e-07
7.71476e-07
8.20856e-07
9.79044e-07
9.21685e-07
7.71686e-07
6.97199e-07
6.62747e-07
6.6283e-07
6.97431e-07
7.72118e-07
9.22274e-07
9.78851e-07
1.0729e-06
9.78572e-07
8.20368e-07
7.9201e-07
7.77667e-07
7.778e-07
7.92438e-07
8.21025e-07
9.79427e-07
1.0733e-06
2.13349e-06
1.94345e-06
1.65344e-06
1.61536e-06
1.58993e-06
1.59053e-06
1.61781e-06
1.67039e-06
1.91654e-06
2.03414e-06
1.94811e-06
1.70964e-06
1.57876e-06
1.52438e-06
1.48945e-06
1.4901e-06
1.52645e-06
1.58708e-06
1.72263e-06
1.91576e-06
1.65596e-06
1.58347e-06
1.46992e-06
1.42508e-06
1.40157e-06
1.40204e-06
1.42704e-06
1.47281e-06
1.58353e-06
1.67095e-06
1.61602e-06
1.52491e-06
1.42564e-06
1.37385e-06
1.34795e-06
1.34858e-06
1.37491e-06
1.42683e-06
1.52672e-06
1.61882e-06
1.59027e-06
1.48981e-06
1.40159e-06
1.34818e-06
1.3234e-06
1.32361e-06
1.34859e-06
1.40258e-06
1.49092e-06
1.59183e-06
1.5906e-06
1.49012e-06
1.40201e-06
1.34825e-06
1.32357e-06
1.32374e-06
1.34865e-06
1.4026e-06
1.49097e-06
1.59181e-06
1.61781e-06
1.52631e-06
1.42651e-06
1.37484e-06
1.34882e-06
1.34891e-06
1.37511e-06
1.42696e-06
1.52682e-06
1.61878e-06
1.67011e-06
1.58341e-06
1.47277e-06
1.42721e-06
1.40255e-06
1.40262e-06
1.4274e-06
1.47304e-06
1.58375e-06
1.67092e-06
1.9147e-06
1.72261e-06
1.58712e-06
1.5268e-06
1.49084e-06
1.4909e-06
1.527e-06
1.58742e-06
1.72288e-06
1.91556e-06
2.03432e-06
1.9174e-06
1.67094e-06
1.61861e-06
1.59169e-06
1.59176e-06
1.61879e-06
1.67122e-06
1.91742e-06
2.03467e-06
1.76626e-06
1.50058e-06
1.367e-06
1.30306e-06
1.27086e-06
1.27086e-06
1.30286e-06
1.37547e-06
1.50712e-06
1.72394e-06
1.50395e-06
1.30517e-06
1.26127e-06
1.22552e-06
1.19969e-06
1.19997e-06
1.22648e-06
1.26852e-06
1.31575e-06
1.50545e-06
1.36781e-06
1.26562e-06
1.19364e-06
1.15737e-06
1.13489e-06
1.13519e-06
1.15899e-06
1.19607e-06
1.26414e-06
1.37536e-06
1.30284e-06
1.22533e-06
1.15773e-06
1.11905e-06
1.09598e-06
1.09657e-06
1.11986e-06
1.15854e-06
1.22636e-06
1.30329e-06
1.27111e-06
1.19961e-06
1.13462e-06
1.09617e-06
1.07672e-06
1.07687e-06
1.09638e-06
1.13544e-06
1.20028e-06
1.27136e-06
1.27115e-06
1.19984e-06
1.13499e-06
1.09608e-06
1.07681e-06
1.07693e-06
1.09639e-06
1.13544e-06
1.20031e-06
1.27136e-06
1.30323e-06
1.22628e-06
1.15828e-06
1.11975e-06
1.09664e-06
1.09672e-06
1.11995e-06
1.1586e-06
1.22642e-06
1.30327e-06
1.37537e-06
1.26433e-06
1.19608e-06
1.15908e-06
1.13545e-06
1.13548e-06
1.15917e-06
1.19619e-06
1.2643e-06
1.3754e-06
1.50526e-06
1.31603e-06
1.26867e-06
1.22675e-06
1.20031e-06
1.20032e-06
1.22679e-06
1.26872e-06
1.31589e-06
1.5054e-06
1.72398e-06
1.50761e-06
1.37572e-06
1.30327e-06
1.27134e-06
1.27136e-06
1.30332e-06
1.37589e-06
1.50757e-06
1.72421e-06
1.01008e-06
7.81795e-07
7.42365e-07
6.91473e-07
6.71567e-07
6.71589e-07
6.9118e-07
7.47764e-07
7.88737e-07
9.92989e-07
7.83762e-07
6.69132e-07
6.57767e-07
6.30294e-07
6.15764e-07
6.15857e-07
6.30646e-07
6.62154e-07
6.7484e-07
7.87012e-07
7.42512e-07
6.605e-07
6.17852e-07
5.87336e-07
5.70019e-07
5.70163e-07
5.88249e-07
6.19313e-07
6.59206e-07
7.47231e-07
6.90969e-07
6.29982e-07
5.87434e-07
5.59748e-07
5.42848e-07
5.43185e-07
5.60184e-07
5.87857e-07
6.30363e-07
6.91111e-07
6.7155e-07
6.1548e-07
5.69673e-07
5.4289e-07
5.28531e-07
5.28603e-07
5.42965e-07
5.7012e-07
6.15801e-07
6.71603e-07
6.717e-07
6.15569e-07
5.69831e-07
5.42747e-07
5.28509e-07
5.28578e-07
5.42926e-07
5.70083e-07
6.15783e-07
6.71595e-07
6.91398e-07
6.30251e-07
5.87573e-07
5.59972e-07
5.43049e-07
5.43109e-07
5.60103e-07
5.87795e-07
6.30304e-07
6.91086e-07
7.47668e-07
6.59162e-07
6.19119e-07
5.88071e-07
5.70049e-07
5.70084e-07
5.88163e-07
6.19247e-07
6.59164e-07
7.47232e-07
7.87576e-07
6.7483e-07
6.62033e-07
6.3055e-07
6.15751e-07
6.15768e-07
6.30629e-07
6.62145e-07
6.74823e-07
7.87132e-07
9.93294e-07
7.88439e-07
7.47545e-07
6.91103e-07
6.71589e-07
6.71605e-07
6.91133e-07
7.47667e-07
7.88573e-07
9.92963e-07
5.84222e-07
4.33812e-07
4.15549e-07
3.78891e-07
3.65942e-07
3.65826e-07
3.78193e-07
4.17851e-07
4.38346e-07
5.78162e-07
4.34772e-07
3.6561e-07
3.52439e-07
3.27565e-07
3.17826e-07
3.17781e-07
3.27447e-07
3.54736e-07
3.68324e-07
4.3699e-07
4.15301e-07
3.53968e-07
3.22025e-07
2.94436e-07
2.81061e-07
2.81068e-07
2.94789e-07
3.2272e-07
3.52779e-07
4.17217e-07
3.78222e-07
3.27131e-07
2.94373e-07
2.70932e-07
2.58049e-07
2.58189e-07
2.71042e-07
2.94449e-07
3.27045e-07
3.77859e-07
3.65702e-07
3.17423e-07
2.80701e-07
2.58012e-07
2.46061e-07
2.46057e-07
2.57966e-07
2.80847e-07
3.17416e-07
3.65449e-07
3.6572e-07
3.17392e-07
2.80742e-07
2.57873e-07
2.45989e-07
2.4601e-07
2.57909e-07
2.80801e-07
3.17391e-07
3.65417e-07
3.78156e-07
3.27034e-07
2.94285e-07
2.70887e-07
2.58007e-07
2.58023e-07
2.70917e-07
2.94359e-07
3.26958e-07
3.77791e-07
4.17516e-07
3.52755e-07
3.22566e-07
2.94589e-07
2.80832e-07
2.80844e-07
2.94603e-07
3.22588e-07
3.52685e-07
4.17144e-07
4.37359e-07
3.68302e-07
3.54598e-07
3.27239e-07
3.17451e-07
3.1745e-07
3.27256e-07
3.54612e-07
3.68231e-07
4.37009e-07
5.78198e-07
4.37933e-07
4.17494e-07
3.7789e-07
3.65476e-07
3.65503e-07
3.77935e-07
4.17616e-07
4.38076e-07
5.7806e-07
3.92858e-07
2.98408e-07
2.84077e-07
2.5858e-07
2.49355e-07
2.492e-07
2.5777e-07
2.84889e-07
3.0093e-07
3.89526e-07
2.9904e-07
2.5702e-07
2.41358e-07
2.20333e-07
2.12798e-07
2.12746e-07
2.2016e-07
2.42806e-07
2.58597e-07
3.0001e-07
2.83623e-07
2.42426e-07
2.17542e-07
1.94432e-07
1.84277e-07
1.8426e-07
1.94614e-07
2.17912e-07
2.41262e-07
2.844e-07
2.5791e-07
2.19961e-07
1.94363e-07
1.74737e-07
1.64943e-07
1.65028e-07
1.7476e-07
1.94343e-07
2.19799e-07
2.57473e-07
2.49037e-07
2.1245e-07
1.83991e-07
1.64909e-07
1.55278e-07
1.55264e-07
1.64859e-07
1.84078e-07
2.12418e-07
2.48789e-07
2.4901e-07
2.12414e-07
1.8401e-07
1.64796e-07
1.5522e-07
1.55237e-07
1.64815e-07
1.84044e-07
2.12407e-07
2.48758e-07
2.57705e-07
2.19821e-07
1.94244e-07
1.74667e-07
1.64901e-07
1.64911e-07
1.74686e-07
1.94294e-07
2.19744e-07
2.57415e-07
2.84643e-07
2.4131e-07
2.17852e-07
1.945e-07
1.84105e-07
1.84114e-07
1.94489e-07
2.17834e-07
2.41212e-07
2.8434e-07
3.00291e-07
2.58685e-07
2.42784e-07
2.20055e-07
2.12515e-07
2.12494e-07
2.20021e-07
2.4271e-07
2.58519e-07
2.99994e-07
3.89679e-07
3.00881e-07
2.84814e-07
2.57636e-07
2.48913e-07
2.48909e-07
2.57563e-07
2.84725e-07
3.00763e-07
3.89433e-07
3.14907e-07
2.56785e-07
2.43641e-07
2.23305e-07
2.15672e-07
2.15598e-07
2.22774e-07
2.4431e-07
2.58906e-07
3.1291e-07
2.57552e-07
2.30935e-07
2.13644e-07
1.95251e-07
1.88587e-07
1.88623e-07
1.95341e-07
2.15227e-07
2.32458e-07
2.58259e-07
2.43419e-07
2.14801e-07
1.94224e-07
1.74475e-07
1.66364e-07
1.66391e-07
1.74757e-07
1.94664e-07
2.13812e-07
2.44045e-07
2.22958e-07
1.95133e-07
1.74502e-07
1.57843e-07
1.50156e-07
1.50269e-07
1.57934e-07
1.74577e-07
1.95163e-07
2.22776e-07
2.15549e-07
1.88426e-07
1.6618e-07
1.50152e-07
1.42548e-07
1.42555e-07
1.50169e-07
1.66378e-07
1.88587e-07
2.15542e-07
2.15517e-07
1.88392e-07
1.66195e-07
1.50053e-07
1.42509e-07
1.4255e-07
1.50139e-07
1.66352e-07
1.88589e-07
2.15516e-07
2.22755e-07
1.94994e-07
1.74376e-07
1.57815e-07
1.50177e-07
1.50213e-07
1.57914e-07
1.74572e-07
1.95135e-07
2.22723e-07
2.44047e-07
2.13682e-07
1.94517e-07
1.74645e-07
1.66324e-07
1.66371e-07
1.74729e-07
1.94666e-07
2.1382e-07
2.43991e-07
2.5832e-07
2.32376e-07
2.15126e-07
1.95267e-07
1.88545e-07
1.88559e-07
1.9535e-07
2.15242e-07
2.32451e-07
2.58207e-07
3.13243e-07
2.58999e-07
2.44351e-07
2.22802e-07
2.15528e-07
2.15535e-07
2.22758e-07
2.4429e-07
2.58882e-07
3.12798e-07
2.90819e-07
2.54533e-07
2.41181e-07
2.23656e-07
2.166e-07
2.1655e-07
2.23264e-07
2.41789e-07
2.56413e-07
2.89813e-07
2.55209e-07
2.36363e-07
2.18394e-07
2.01789e-07
1.95209e-07
1.95245e-07
2.01918e-07
2.20011e-07
2.37507e-07
2.5563e-07
2.41065e-07
2.19681e-07
2.01304e-07
1.83293e-07
1.76079e-07
1.76103e-07
1.83573e-07
2.01651e-07
2.18468e-07
2.4144e-07
2.23395e-07
2.01733e-07
1.8337e-07
1.67996e-07
1.61211e-07
1.61334e-07
1.68066e-07
1.83376e-07
2.01718e-07
2.23264e-07
2.16464e-07
1.95045e-07
1.75918e-07
1.61232e-07
1.54688e-07
1.54688e-07
1.61218e-07
1.76092e-07
1.95214e-07
2.1651e-07
2.16415e-07
1.94995e-07
1.75917e-07
1.61123e-07
1.54652e-07
1.54688e-07
1.61188e-07
1.76066e-07
1.95223e-07
2.16491e-07
2.23164e-07
2.01527e-07
1.83189e-07
1.67972e-07
1.61263e-07
1.61284e-07
1.68054e-07
1.8338e-07
2.01706e-07
2.23221e-07
2.41363e-07
2.18336e-07
2.01528e-07
1.83504e-07
1.76068e-07
1.76106e-07
1.83566e-07
2.01668e-07
2.18508e-07
2.41405e-07
2.55608e-07
2.37438e-07
2.19958e-07
2.01904e-07
1.95211e-07
1.95217e-07
2.01958e-07
2.20056e-07
2.37529e-07
2.55585e-07
2.89913e-07
2.56411e-07
2.41783e-07
2.23291e-07
2.16501e-07
2.16514e-07
2.23278e-07
2.41778e-07
2.56383e-07
2.89696e-07
2.80695e-07
2.57117e-07
2.44493e-07
2.29585e-07
2.22981e-07
2.22944e-07
2.29314e-07
2.45062e-07
2.58746e-07
2.80013e-07
2.5793e-07
2.43919e-07
2.27168e-07
2.1235e-07
2.05797e-07
2.05839e-07
2.12557e-07
2.28912e-07
2.44733e-07
2.57917e-07
2.44623e-07
2.28754e-07
2.12017e-07
1.95229e-07
1.8842e-07
1.88445e-07
1.95503e-07
2.12235e-07
2.27226e-07
2.44662e-07
2.29546e-07
2.12563e-07
1.95436e-07
1.8074e-07
1.74256e-07
1.7437e-07
1.80745e-07
1.95268e-07
2.12315e-07
2.29302e-07
2.23011e-07
2.05852e-07
1.88399e-07
1.74337e-07
1.68304e-07
1.68279e-07
1.74223e-07
1.884e-07
2.05803e-07
2.22905e-07
2.22985e-07
2.05806e-07
1.88388e-07
1.7422e-07
1.68269e-07
1.68276e-07
1.74189e-07
1.88367e-07
2.05804e-07
2.22894e-07
2.29382e-07
2.1233e-07
1.95234e-07
1.80727e-07
1.74325e-07
1.74314e-07
1.80714e-07
1.95246e-07
2.12273e-07
2.29262e-07
2.44778e-07
2.27274e-07
2.12249e-07
1.95504e-07
1.88426e-07
1.88431e-07
1.95466e-07
2.12211e-07
2.27218e-07
2.44639e-07
2.58104e-07
2.44845e-07
2.28991e-07
2.1262e-07
2.05841e-07
2.0581e-07
2.12573e-07
2.2891e-07
2.44709e-07
2.57891e-07
2.80134e-07
2.58787e-07
2.45147e-07
2.29414e-07
2.22962e-07
2.22939e-07
2.29327e-07
2.45023e-07
2.58698e-07
2.79965e-07
2.69207e-07
2.53292e-07
2.42522e-07
2.30134e-07
2.24003e-07
2.23949e-07
2.29884e-07
2.42977e-07
2.54484e-07
2.68599e-07
2.53969e-07
2.44176e-07
2.29807e-07
2.16753e-07
2.10392e-07
2.10434e-07
2.16989e-07
2.31612e-07
2.44676e-07
2.53634e-07
2.4281e-07
2.31548e-07
2.16468e-07
2.00932e-07
1.94434e-07
1.94459e-07
2.01209e-07
2.16629e-07
2.29822e-07
2.42564e-07
2.30183e-07
2.17026e-07
2.01169e-07
1.87291e-07
1.81002e-07
1.81121e-07
1.8728e-07
2.00937e-07
2.1668e-07
2.2987e-07
2.24096e-07
2.10447e-07
1.94411e-07
1.81087e-07
1.75449e-07
1.7542e-07
1.80952e-07
1.94384e-07
2.10347e-07
2.23902e-07
2.24064e-07
2.10383e-07
1.94383e-07
1.80956e-07
1.75411e-07
1.75415e-07
1.80918e-07
1.94352e-07
2.10351e-07
2.23889e-07
2.30006e-07
2.16721e-07
2.00902e-07
1.87263e-07
1.81073e-07
1.81062e-07
1.87245e-07
2.00913e-07
2.16638e-07
2.29809e-07
2.42688e-07
2.29889e-07
2.16638e-07
2.01202e-07
1.94433e-07
1.94434e-07
2.01164e-07
2.16594e-07
2.2981e-07
2.42507e-07
2.5378e-07
2.44807e-07
2.31695e-07
2.17045e-07
2.10414e-07
2.10381e-07
2.16983e-07
2.31597e-07
2.44643e-07
2.53558e-07
2.68736e-07
2.54639e-07
2.43109e-07
2.29986e-07
2.23934e-07
2.23894e-07
2.29854e-07
2.42907e-07
2.54403e-07
2.68493e-07
2.54789e-07
2.43205e-07
2.3509e-07
2.2501e-07
2.19461e-07
2.19455e-07
2.24905e-07
2.35636e-07
2.44312e-07
2.54319e-07
2.43906e-07
2.38334e-07
2.26554e-07
2.15057e-07
2.09071e-07
2.09158e-07
2.15449e-07
2.2857e-07
2.38854e-07
2.43534e-07
2.35441e-07
2.28373e-07
2.14966e-07
2.0065e-07
1.94463e-07
1.94532e-07
2.01028e-07
2.15225e-07
2.26757e-07
2.35244e-07
2.25029e-07
2.15357e-07
2.0089e-07
1.87922e-07
1.81837e-07
1.81985e-07
1.87989e-07
2.00755e-07
2.15144e-07
2.24924e-07
2.19476e-07
2.09071e-07
1.94411e-07
1.81903e-07
1.76597e-07
1.76597e-07
1.81837e-07
1.94489e-07
2.09143e-07
2.19477e-07
2.19453e-07
2.09003e-07
1.9437e-07
1.8177e-07
1.76565e-07
1.76593e-07
1.8181e-07
1.94464e-07
2.09151e-07
2.19477e-07
2.24885e-07
2.14995e-07
2.00597e-07
1.879e-07
1.81921e-07
1.81944e-07
1.87966e-07
2.00742e-07
2.15116e-07
2.24891e-07
2.35209e-07
2.26625e-07
2.15099e-07
2.0094e-07
1.9449e-07
1.94524e-07
2.01002e-07
2.15214e-07
2.26762e-07
2.35225e-07
2.43574e-07
2.38806e-07
2.28529e-07
2.15437e-07
2.09152e-07
2.09153e-07
2.15487e-07
2.28597e-07
2.38869e-07
2.43511e-07
2.5452e-07
2.44451e-07
2.35759e-07
2.2502e-07
2.19495e-07
2.19473e-07
2.24934e-07
2.35621e-07
2.44288e-07
2.54262e-07
2.41503e-07
2.30403e-07
2.2465e-07
2.16466e-07
2.11458e-07
2.11437e-07
2.16348e-07
2.25093e-07
2.31277e-07
2.41099e-07
2.31067e-07
2.29205e-07
2.19712e-07
2.09507e-07
2.03901e-07
2.03964e-07
2.09846e-07
2.2159e-07
2.29454e-07
2.30467e-07
2.25037e-07
2.21504e-07
2.09645e-07
1.96448e-07
1.9051e-07
1.90565e-07
1.96771e-07
2.09786e-07
2.19756e-07
2.24655e-07
2.16463e-07
2.09781e-07
1.96685e-07
1.84576e-07
1.78654e-07
1.78787e-07
1.84599e-07
1.96468e-07
2.0947e-07
2.16312e-07
2.11442e-07
2.03863e-07
1.90458e-07
1.78726e-07
1.7365e-07
1.73638e-07
1.78621e-07
1.90478e-07
2.03877e-07
2.11409e-07
2.11397e-07
2.03778e-07
1.90402e-07
1.78588e-07
1.73618e-07
1.73632e-07
1.78595e-07
1.90456e-07
2.03887e-07
2.11411e-07
2.16269e-07
2.09358e-07
1.96351e-07
1.84535e-07
1.78733e-07
1.78743e-07
1.84569e-07
1.96453e-07
2.0945e-07
2.16281e-07
2.24597e-07
2.19657e-07
2.0969e-07
1.967e-07
1.90517e-07
1.90537e-07
1.96733e-07
2.09767e-07
2.19763e-07
2.24633e-07
2.30468e-07
2.29429e-07
2.2157e-07
2.09833e-07
2.03932e-07
2.03927e-07
2.09853e-07
2.21604e-07
2.29466e-07
2.30444e-07
2.41178e-07
2.31347e-07
2.25172e-07
2.16408e-07
2.11425e-07
2.1141e-07
2.16355e-07
2.25084e-07
2.31252e-07
2.41035e-07
2.32269e-07
2.16721e-07
2.1264e-07
2.06001e-07
2.01578e-07
2.01586e-07
2.05981e-07
2.13128e-07
2.17585e-07
2.31948e-07
2.17485e-07
2.18442e-07
2.10854e-07
2.01797e-07
1.96632e-07
1.96715e-07
2.02211e-07
2.12755e-07
2.18652e-07
2.16811e-07
2.1311e-07
2.12689e-07
2.02294e-07
1.90137e-07
1.84465e-07
1.84537e-07
1.90474e-07
2.02407e-07
2.10939e-07
2.1267e-07
2.06091e-07
2.02195e-07
1.9042e-07
1.79116e-07
1.73385e-07
1.73513e-07
1.79131e-07
1.90164e-07
2.01811e-07
2.05918e-07
2.01645e-07
1.96702e-07
1.84487e-07
1.73481e-07
1.68605e-07
1.68592e-07
1.7335e-07
1.8444e-07
1.96637e-07
2.01567e-07
2.01622e-07
1.96631e-07
1.84429e-07
1.73352e-07
1.68582e-07
1.68583e-07
1.73327e-07
1.84419e-07
1.96638e-07
2.01572e-07
2.05964e-07
2.01784e-07
1.9011e-07
1.79094e-07
1.73477e-07
1.73479e-07
1.79092e-07
1.90132e-07
2.01777e-07
2.05902e-07
2.12718e-07
2.10909e-07
2.02358e-07
1.90422e-07
1.84496e-07
1.84503e-07
1.90419e-07
2.02364e-07
2.10913e-07
2.12663e-07
2.16923e-07
2.18681e-07
2.12763e-07
2.02205e-07
1.96697e-07
1.96681e-07
2.02191e-07
2.12727e-07
2.18627e-07
2.16813e-07
2.32084e-07
2.17669e-07
2.13231e-07
2.06061e-07
2.01612e-07
2.01588e-07
2.05983e-07
2.13105e-07
2.17551e-07
2.31935e-07
2.30645e-07
2.0471e-07
2.0084e-07
1.95291e-07
1.91354e-07
1.91341e-07
1.95244e-07
2.01231e-07
2.05386e-07
2.30373e-07
2.05382e-07
2.0756e-07
2.01514e-07
1.9347e-07
1.88687e-07
1.88755e-07
1.93832e-07
2.03267e-07
2.07583e-07
2.0462e-07
2.01301e-07
2.03286e-07
1.94253e-07
1.83069e-07
1.77648e-07
1.77711e-07
1.83365e-07
1.94287e-07
2.01471e-07
2.00747e-07
1.95374e-07
1.93837e-07
1.8334e-07
1.72804e-07
1.67283e-07
1.67402e-07
1.72795e-07
1.83041e-07
1.93387e-07
1.95138e-07
1.91403e-07
1.88723e-07
1.7766e-07
1.67375e-07
1.62704e-07
1.62688e-07
1.67234e-07
1.7759e-07
1.88622e-07
1.91277e-07
1.91362e-07
1.88631e-07
1.77589e-07
1.67244e-07
1.62684e-07
1.62682e-07
1.67215e-07
1.77574e-07
1.88626e-07
1.91277e-07
1.95199e-07
1.93374e-07
1.82995e-07
1.7277e-07
1.67377e-07
1.67377e-07
1.72766e-07
1.83019e-07
1.93364e-07
1.95115e-07
2.00784e-07
2.01455e-07
1.94245e-07
1.83321e-07
1.77677e-07
1.77681e-07
1.83319e-07
1.94252e-07
2.01455e-07
2.00722e-07
2.04678e-07
2.07609e-07
2.03269e-07
1.93818e-07
1.88717e-07
1.88702e-07
1.93799e-07
2.03235e-07
2.07557e-07
2.04588e-07
2.3048e-07
2.05491e-07
2.01317e-07
1.95285e-07
1.9131e-07
1.91284e-07
1.95201e-07
2.01181e-07
2.05336e-07
2.30324e-07
2.35326e-07
1.95394e-07
1.89876e-07
1.84931e-07
1.81418e-07
1.81426e-07
1.84953e-07
1.90304e-07
1.96079e-07
2.35097e-07
1.96112e-07
1.97126e-07
1.92292e-07
1.85175e-07
1.80797e-07
1.80892e-07
1.85621e-07
1.94092e-07
1.97207e-07
1.95376e-07
1.90348e-07
1.94052e-07
1.86313e-07
1.76032e-07
1.70888e-07
1.70977e-07
1.76379e-07
1.864e-07
1.92357e-07
1.89849e-07
1.85042e-07
1.85601e-07
1.76323e-07
1.66508e-07
1.61225e-07
1.61357e-07
1.66541e-07
1.76077e-07
1.85214e-07
1.84885e-07
1.81477e-07
1.80874e-07
1.70931e-07
1.61324e-07
1.56861e-07
1.5686e-07
1.61217e-07
1.70901e-07
1.80838e-07
1.81436e-07
1.81444e-07
1.80791e-07
1.70866e-07
1.61208e-07
1.56855e-07
1.56864e-07
1.6121e-07
1.70894e-07
1.80846e-07
1.81443e-07
1.84892e-07
1.85156e-07
1.76012e-07
1.66513e-07
1.61354e-07
1.61369e-07
1.66541e-07
1.76078e-07
1.8521e-07
1.8489e-07
1.89857e-07
1.92306e-07
1.86349e-07
1.76345e-07
1.70984e-07
1.71001e-07
1.7638e-07
1.86406e-07
1.92369e-07
1.89861e-07
1.95428e-07
1.97209e-07
1.94089e-07
1.85632e-07
1.80922e-07
1.80921e-07
1.85655e-07
1.94113e-07
1.97225e-07
1.95386e-07
2.35235e-07
1.96193e-07
1.90418e-07
1.85052e-07
1.81484e-07
1.81469e-07
1.8499e-07
1.90318e-07
1.96088e-07
2.35093e-07
2.35249e-07
1.90497e-07
1.80575e-07
1.75522e-07
1.72252e-07
1.72255e-07
1.75554e-07
1.80991e-07
1.9113e-07
2.35056e-07
1.91178e-07
1.87609e-07
1.83565e-07
1.77277e-07
1.73257e-07
1.73351e-07
1.77718e-07
1.85297e-07
1.87643e-07
1.90397e-07
1.81066e-07
1.85272e-07
1.78712e-07
1.6927e-07
1.6439e-07
1.64476e-07
1.69604e-07
1.78779e-07
1.83603e-07
1.80522e-07
1.75652e-07
1.77693e-07
1.69559e-07
1.60421e-07
1.55367e-07
1.55493e-07
1.60444e-07
1.69301e-07
1.77293e-07
1.75474e-07
1.72318e-07
1.73326e-07
1.64435e-07
1.55468e-07
1.51198e-07
1.51194e-07
1.55353e-07
1.64393e-07
1.73277e-07
1.72263e-07
1.72278e-07
1.73239e-07
1.64368e-07
1.55356e-07
1.51196e-07
1.512e-07
1.5535e-07
1.6439e-07
1.73285e-07
1.72267e-07
1.75484e-07
1.77249e-07
1.6925e-07
1.60433e-07
1.55503e-07
1.55514e-07
1.6045e-07
1.69307e-07
1.77296e-07
1.75476e-07
1.80524e-07
1.83568e-07
1.78743e-07
1.69588e-07
1.64497e-07
1.64508e-07
1.69613e-07
1.7879e-07
1.83617e-07
1.80529e-07
1.9043e-07
1.87651e-07
1.85303e-07
1.77737e-07
1.73385e-07
1.73383e-07
1.77747e-07
1.85316e-07
1.87657e-07
1.90401e-07
2.35164e-07
1.91229e-07
1.81088e-07
1.75635e-07
1.72297e-07
1.72286e-07
1.75585e-07
1.81006e-07
1.91132e-07
2.35037e-07
1.93793e-07
1.90457e-07
1.73371e-07
1.67274e-07
1.64027e-07
1.64058e-07
1.67385e-07
1.73864e-07
1.91175e-07
1.9374e-07
1.91185e-07
1.79309e-07
1.75442e-07
1.69861e-07
1.6619e-07
1.66299e-07
1.70352e-07
1.77183e-07
1.79388e-07
1.90431e-07
1.73878e-07
1.77118e-07
1.71617e-07
1.62948e-07
1.58338e-07
1.58439e-07
1.63305e-07
1.71708e-07
1.75539e-07
1.73378e-07
1.67428e-07
1.7031e-07
1.63246e-07
1.54749e-07
1.49932e-07
1.50059e-07
1.54789e-07
1.6301e-07
1.69933e-07
1.67288e-07
1.64099e-07
1.6628e-07
1.58402e-07
1.50035e-07
1.45958e-07
1.45962e-07
1.49931e-07
1.58363e-07
1.66246e-07
1.64071e-07
1.64073e-07
1.66203e-07
1.58336e-07
1.49929e-07
1.45962e-07
1.45967e-07
1.49929e-07
1.58359e-07
1.66247e-07
1.64075e-07
1.67296e-07
1.69879e-07
1.62956e-07
1.54772e-07
1.50073e-07
1.50087e-07
1.54792e-07
1.63006e-07
1.69924e-07
1.67295e-07
1.73392e-07
1.75489e-07
1.71664e-07
1.63283e-07
1.58459e-07
1.5847e-07
1.63306e-07
1.71705e-07
1.75529e-07
1.73392e-07
1.90492e-07
1.7938e-07
1.77174e-07
1.70361e-07
1.66338e-07
1.66336e-07
1.70368e-07
1.77178e-07
1.79377e-07
1.9045e-07
1.93901e-07
1.91254e-07
1.73946e-07
1.67462e-07
1.64116e-07
1.64104e-07
1.67406e-07
1.73857e-07
1.91159e-07
1.93755e-07
1.01929e-07
1.93895e-07
1.69028e-07
1.60635e-07
1.5702e-07
1.57035e-07
1.60725e-07
1.69482e-07
1.94568e-07
1.01844e-07
1.94597e-07
1.72645e-07
1.6802e-07
1.62955e-07
1.59564e-07
1.59657e-07
1.63396e-07
1.69638e-07
1.72635e-07
1.93789e-07
1.69527e-07
1.69628e-07
1.64964e-07
1.56999e-07
1.52637e-07
1.52726e-07
1.57319e-07
1.65002e-07
1.68036e-07
1.6898e-07
1.60779e-07
1.6338e-07
1.5729e-07
1.49396e-07
1.44799e-07
1.44916e-07
1.49412e-07
1.57021e-07
1.62964e-07
1.60607e-07
1.57079e-07
1.59639e-07
1.52701e-07
1.44903e-07
1.41011e-07
1.41008e-07
1.44784e-07
1.52636e-07
1.59572e-07
1.57024e-07
1.57045e-07
1.59554e-07
1.52629e-07
1.44798e-07
1.41015e-07
1.41015e-07
1.44784e-07
1.52634e-07
1.59573e-07
1.5702e-07
1.60625e-07
1.62934e-07
1.56988e-07
1.49413e-07
1.4494e-07
1.44948e-07
1.4942e-07
1.57021e-07
1.62955e-07
1.60599e-07
1.68991e-07
1.68012e-07
1.64981e-07
1.57316e-07
1.52754e-07
1.5276e-07
1.57325e-07
1.65e-07
1.68026e-07
1.6897e-07
1.93835e-07
1.72645e-07
1.69646e-07
1.63414e-07
1.59688e-07
1.59682e-07
1.63403e-07
1.69628e-07
1.72615e-07
1.93777e-07
1.0197e-07
1.94649e-07
1.69552e-07
1.60778e-07
1.57058e-07
1.57042e-07
1.60713e-07
1.69451e-07
1.94526e-07
1.01831e-07
4.84991e-07
1.91816e-07
1.67552e-07
1.55733e-07
1.5134e-07
1.51382e-07
1.55896e-07
1.68096e-07
1.92587e-07
4.83244e-07
1.92551e-07
1.67769e-07
1.61231e-07
1.56444e-07
1.53324e-07
1.53436e-07
1.56945e-07
1.62889e-07
1.67849e-07
1.91853e-07
1.68072e-07
1.62813e-07
1.58689e-07
1.5138e-07
1.47286e-07
1.47394e-07
1.5174e-07
1.58785e-07
1.61345e-07
1.67599e-07
1.55892e-07
1.56889e-07
1.51673e-07
1.44367e-07
1.40006e-07
1.40132e-07
1.44418e-07
1.51459e-07
1.56541e-07
1.55795e-07
1.51389e-07
1.534e-07
1.47352e-07
1.40104e-07
1.36407e-07
1.36418e-07
1.40019e-07
1.4733e-07
1.53397e-07
1.51408e-07
1.51364e-07
1.53317e-07
1.47278e-07
1.40003e-07
1.36416e-07
1.36427e-07
1.40023e-07
1.47331e-07
1.53397e-07
1.51407e-07
1.55757e-07
1.56447e-07
1.51385e-07
1.44394e-07
1.40156e-07
1.40177e-07
1.44436e-07
1.51466e-07
1.56537e-07
1.55795e-07
1.67573e-07
1.61259e-07
1.58724e-07
1.51718e-07
1.47428e-07
1.47448e-07
1.51765e-07
1.588e-07
1.61343e-07
1.67603e-07
1.9188e-07
1.6781e-07
1.62866e-07
1.56954e-07
1.53491e-07
1.53499e-07
1.56985e-07
1.62907e-07
1.67853e-07
1.91869e-07
4.83435e-07
1.92669e-07
1.68165e-07
1.55965e-07
1.51446e-07
1.51439e-07
1.55921e-07
1.68095e-07
1.92575e-07
4.83215e-07
4.75786e-06
1.64807e-07
1.68261e-07
1.53035e-07
1.47408e-07
1.47436e-07
1.53176e-07
1.68779e-07
1.65381e-07
4.74729e-06
1.65396e-07
1.64889e-07
1.55415e-07
1.50498e-07
1.4754e-07
1.47633e-07
1.50944e-07
1.5696e-07
1.6491e-07
1.6477e-07
1.68761e-07
1.56915e-07
1.52842e-07
1.46116e-07
1.42261e-07
1.42352e-07
1.46435e-07
1.52891e-07
1.55447e-07
1.68258e-07
1.53144e-07
1.50882e-07
1.46389e-07
1.39636e-07
1.35489e-07
1.35601e-07
1.39657e-07
1.46143e-07
1.50517e-07
1.53036e-07
1.47381e-07
1.47556e-07
1.42303e-07
1.35579e-07
1.32062e-07
1.32064e-07
1.35475e-07
1.42259e-07
1.47542e-07
1.47409e-07
1.47335e-07
1.47455e-07
1.42217e-07
1.35472e-07
1.32064e-07
1.3207e-07
1.35476e-07
1.42257e-07
1.4754e-07
1.47402e-07
1.52942e-07
1.504e-07
1.46068e-07
1.39634e-07
1.35619e-07
1.35633e-07
1.39667e-07
1.46144e-07
1.50508e-07
1.53024e-07
1.68156e-07
1.55327e-07
1.52814e-07
1.46404e-07
1.42369e-07
1.42385e-07
1.46445e-07
1.52893e-07
1.55439e-07
1.6824e-07
1.64729e-07
1.6482e-07
1.5691e-07
1.50926e-07
1.47649e-07
1.47659e-07
1.50959e-07
1.56967e-07
1.64903e-07
1.64763e-07
4.74677e-06
1.65425e-07
1.68785e-07
1.53182e-07
1.47438e-07
1.47441e-07
1.53175e-07
1.68775e-07
1.65363e-07
4.74718e-06
2.5815e-05
1.09292e-07
1.66844e-07
1.51985e-07
1.45067e-07
1.45089e-07
1.52111e-07
1.67308e-07
1.0969e-07
2.57694e-05
1.09836e-07
1.62896e-07
1.5072e-07
1.45107e-07
1.42195e-07
1.42268e-07
1.45497e-07
1.52133e-07
1.62789e-07
1.09331e-07
1.67434e-07
1.52247e-07
1.47503e-07
1.41229e-07
1.37579e-07
1.37647e-07
1.41471e-07
1.4742e-07
1.50651e-07
1.66809e-07
1.52193e-07
1.45603e-07
1.41555e-07
1.35276e-07
1.31309e-07
1.3139e-07
1.35214e-07
1.41169e-07
1.45057e-07
1.51948e-07
1.45142e-07
1.42355e-07
1.37717e-07
1.31437e-07
1.28062e-07
1.28037e-07
1.31246e-07
1.37517e-07
1.42145e-07
1.45031e-07
1.45095e-07
1.42255e-07
1.37629e-07
1.31334e-07
1.28066e-07
1.28041e-07
1.31245e-07
1.37513e-07
1.42137e-07
1.45023e-07
1.51983e-07
1.45126e-07
1.41244e-07
1.35273e-07
1.31438e-07
1.31419e-07
1.35215e-07
1.41158e-07
1.45034e-07
1.5193e-07
1.6685e-07
1.50693e-07
1.47478e-07
1.41518e-07
1.37686e-07
1.37671e-07
1.41469e-07
1.47406e-07
1.5062e-07
1.66772e-07
1.09453e-07
1.62842e-07
1.52194e-07
1.45546e-07
1.42307e-07
1.4229e-07
1.455e-07
1.52124e-07
1.62765e-07
1.09324e-07
2.57678e-05
1.09757e-07
1.6735e-07
1.52148e-07
1.45116e-07
1.45107e-07
1.52118e-07
1.67322e-07
1.09697e-07
2.57691e-05
9.48378e-05
2.2859e-07
1.53443e-07
1.50732e-07
1.43652e-07
1.43644e-07
1.50783e-07
1.53702e-07
2.29138e-07
9.47056e-05
2.29281e-07
1.58262e-07
1.47151e-07
1.40248e-07
1.37237e-07
1.37305e-07
1.40601e-07
1.48486e-07
1.58064e-07
2.28198e-07
1.54009e-07
1.48663e-07
1.42415e-07
1.36501e-07
1.33056e-07
1.33115e-07
1.36716e-07
1.42296e-07
1.47019e-07
1.53322e-07
1.50995e-07
1.40744e-07
1.36824e-07
1.31012e-07
1.27245e-07
1.2732e-07
1.30933e-07
1.36413e-07
1.40148e-07
1.50627e-07
1.43789e-07
1.37417e-07
1.33199e-07
1.27376e-07
1.24174e-07
1.24142e-07
1.27178e-07
1.32981e-07
1.37152e-07
1.43566e-07
1.43738e-07
1.37322e-07
1.33123e-07
1.27283e-07
1.24183e-07
1.24156e-07
1.27183e-07
1.32982e-07
1.37151e-07
1.43556e-07
1.50784e-07
1.40307e-07
1.36536e-07
1.31034e-07
1.27393e-07
1.27371e-07
1.30955e-07
1.36422e-07
1.40143e-07
1.50604e-07
1.53489e-07
1.4718e-07
1.42433e-07
1.36819e-07
1.33198e-07
1.33171e-07
1.36741e-07
1.42306e-07
1.47012e-07
1.53261e-07
2.28078e-07
1.5826e-07
1.48636e-07
1.40714e-07
1.37376e-07
1.37345e-07
1.40622e-07
1.48493e-07
1.5806e-07
2.28255e-07
9.47097e-05
2.28933e-07
1.53912e-07
1.50903e-07
1.4369e-07
1.43657e-07
1.50799e-07
1.53764e-07
2.29182e-07
9.47064e-05
0.000260941
1.62831e-06
1.19134e-07
1.44275e-07
1.40822e-07
1.40856e-07
1.44431e-07
1.19469e-07
1.63138e-06
0.000260669
1.63207e-06
1.44366e-07
1.44582e-07
1.36032e-07
1.32786e-07
1.32898e-07
1.36512e-07
1.46102e-07
1.4444e-07
1.62485e-06
1.19606e-07
1.46083e-07
1.37763e-07
1.32034e-07
1.288e-07
1.289e-07
1.32355e-07
1.37809e-07
1.44672e-07
1.19315e-07
1.44519e-07
1.36508e-07
1.32335e-07
1.26961e-07
1.23427e-07
1.23536e-07
1.26988e-07
1.32086e-07
1.36111e-07
1.44366e-07
1.40912e-07
1.32917e-07
1.28905e-07
1.23536e-07
1.20533e-07
1.20538e-07
1.23437e-07
1.28837e-07
1.32845e-07
1.40877e-07
1.40885e-07
1.32844e-07
1.28845e-07
1.23458e-07
1.20557e-07
1.20561e-07
1.23456e-07
1.28852e-07
1.3286e-07
1.40886e-07
1.44397e-07
1.36124e-07
1.32099e-07
1.27031e-07
1.23609e-07
1.23625e-07
1.27049e-07
1.3214e-07
1.36157e-07
1.44394e-07
1.19355e-07
1.44718e-07
1.37863e-07
1.32421e-07
1.29008e-07
1.29019e-07
1.32445e-07
1.37896e-07
1.44746e-07
1.19326e-07
1.62394e-06
1.44542e-07
1.46194e-07
1.36614e-07
1.33028e-07
1.33032e-07
1.36629e-07
1.46215e-07
1.44567e-07
1.62458e-06
0.000260665
1.62925e-06
1.19711e-07
1.44623e-07
1.40996e-07
1.40983e-07
1.44568e-07
1.19662e-07
1.63018e-06
0.000260661
0.000573646
8.2438e-06
1.09989e-07
1.25877e-07
1.31776e-07
1.31814e-07
1.2602e-07
1.10258e-07
8.25559e-06
0.000573257
8.26037e-06
1.17765e-07
1.4243e-07
1.32531e-07
1.28832e-07
1.28949e-07
1.33027e-07
1.43982e-07
1.17874e-07
8.22789e-06
1.10369e-07
1.439e-07
1.33663e-07
1.27781e-07
1.24672e-07
1.24778e-07
1.28122e-07
1.3376e-07
1.42581e-07
1.09951e-07
1.26057e-07
1.3296e-07
1.28054e-07
1.23009e-07
1.19666e-07
1.1978e-07
1.23063e-07
1.2786e-07
1.32629e-07
1.25996e-07
1.3182e-07
1.28901e-07
1.24733e-07
1.19752e-07
1.16918e-07
1.16932e-07
1.19681e-07
1.24714e-07
1.28894e-07
1.31848e-07
1.31785e-07
1.28813e-07
1.2466e-07
1.19664e-07
1.16931e-07
1.16941e-07
1.1969e-07
1.2472e-07
1.28899e-07
1.31855e-07
1.25923e-07
1.32528e-07
1.27781e-07
1.2304e-07
1.19808e-07
1.19836e-07
1.23089e-07
1.27883e-07
1.32653e-07
1.26e-07
1.09842e-07
1.42471e-07
1.33692e-07
1.28101e-07
1.24823e-07
1.24844e-07
1.28163e-07
1.33802e-07
1.4261e-07
1.09935e-07
8.22708e-06
1.17782e-07
1.4393e-07
1.33027e-07
1.29005e-07
1.29025e-07
1.33086e-07
1.44042e-07
1.17906e-07
8.22698e-06
0.000573221
8.24975e-06
1.10251e-07
1.26083e-07
1.31866e-07
1.3188e-07
1.26108e-07
1.10168e-07
8.25039e-06
0.000573245
0.0010594
2.99499e-05
4.26719e-07
1.00411e-07
1.11999e-07
1.1205e-07
1.00536e-07
4.2753e-07
2.99792e-05
0.00105897
2.99971e-05
1.00196e-07
1.38795e-07
1.29543e-07
1.25392e-07
1.25514e-07
1.30058e-07
1.40345e-07
1.00212e-07
2.99001e-05
4.279e-07
1.40225e-07
1.30294e-07
1.2385e-07
1.20795e-07
1.2091e-07
1.24205e-07
1.30419e-07
1.39004e-07
4.25379e-07
1.00552e-07
1.29953e-07
1.24104e-07
1.19282e-07
1.16123e-07
1.16236e-07
1.1935e-07
1.23935e-07
1.29647e-07
1.00491e-07
1.12038e-07
1.25432e-07
1.20837e-07
1.16195e-07
1.13525e-07