/*--------------------------------*- C++ -*----------------------------------*\
| =========                 |                                                 |
| \\      /  F ield         | OpenFOAM: The Open Source CFD Toolbox           |
|  \\    /   O peration     | Version:  2406                                  |
|   \\  /    A nd           | Website:  www.openfoam.com                      |
|    \\/     M anipulation  |                                                 |
\*---------------------------------------------------------------------------*/
FoamFile
{
    version     2.0;
    format      ascii;
    arch        "LSB;label=32;scalar=64";
    class       volSymmTensorField;
    location    "300";
    object      turbulenceProperties:R;
}
// * * * * * * * * * * * * * * * * * * * * * * * * * * * * * * * * * * * * * //

dimensions      [0 2 -2 0 0 0 0];

internalField   nonuniform List<symmTensor> 
25000
(
(2.6378e-05 -1.51261e-06 -5.93494e-07 2.63729e-05 -5.93256e-07 2.18753e-05)
(2.60019e-05 6.6788e-07 -4.07648e-07 2.46266e-05 -5.24326e-07 2.05251e-05)
(2.37009e-05 4.12124e-07 -2.91301e-07 2.3206e-05 -5.41405e-07 1.88352e-05)
(2.31198e-05 2.54518e-07 -1.73613e-07 2.29533e-05 -5.43858e-07 1.84438e-05)
(2.28458e-05 8.72283e-08 -5.75769e-08 2.28276e-05 -5.44319e-07 1.82605e-05)
(2.2846e-05 -9.18401e-08 5.8437e-08 2.28313e-05 -5.44307e-07 1.82623e-05)
(2.31205e-05 -2.59473e-07 1.74599e-07 2.29663e-05 -5.43807e-07 1.84497e-05)
(2.36616e-05 -4.17426e-07 2.92391e-07 2.32067e-05 -5.41316e-07 1.88183e-05)
(2.62009e-05 -6.90367e-07 4.14968e-07 2.48452e-05 -5.25576e-07 2.06954e-05)
(2.65568e-05 1.49277e-06 5.9145e-07 2.65557e-05 -5.91147e-07 2.19838e-05)
(2.46344e-05 6.70208e-07 -5.25206e-07 2.60038e-05 -4.07489e-07 2.05281e-05)
(2.48709e-05 5.02269e-07 -4.09968e-07 2.48643e-05 -4.09646e-07 1.99778e-05)
(2.27154e-05 3.22616e-07 -3.04817e-07 2.27736e-05 -4.18573e-07 1.82095e-05)
(2.16068e-05 1.85349e-07 -1.84417e-07 2.16543e-05 -4.26603e-07 1.72813e-05)
(2.10776e-05 6.03309e-08 -6.1374e-08 2.1114e-05 -4.30854e-07 1.68356e-05)
(2.10772e-05 -6.03166e-08 6.21127e-08 2.1115e-05 -4.30928e-07 1.68359e-05)
(2.16067e-05 -1.83644e-07 1.85154e-07 2.16591e-05 -4.26877e-07 1.72831e-05)
(2.27144e-05 -3.17217e-07 3.05749e-07 2.27823e-05 -4.19511e-07 1.82097e-05)
(2.48379e-05 -4.77205e-07 4.11075e-07 2.48374e-05 -4.10753e-07 1.99468e-05)
(2.48367e-05 -6.89649e-07 5.25545e-07 2.61907e-05 -4.14472e-07 2.06882e-05)
(2.31943e-05 4.18007e-07 -5.42171e-07 2.36884e-05 -2.90894e-07 1.88271e-05)
(2.27815e-05 3.25119e-07 -4.19346e-07 2.2718e-05 -3.04659e-07 1.82124e-05)
(2.1124e-05 2.1924e-07 -3.09262e-07 2.11213e-05 -3.08807e-07 1.68704e-05)
(2.01294e-05 1.29834e-07 -1.88089e-07 2.01415e-05 -3.11697e-07 1.60546e-05)
(1.96488e-05 4.2853e-08 -6.28168e-08 1.96658e-05 -3.13504e-07 1.56578e-05)
(1.96492e-05 -4.24212e-08 6.32991e-08 1.96667e-05 -3.13612e-07 1.56583e-05)
(2.01304e-05 -1.28667e-07 1.88566e-07 2.01442e-05 -3.12057e-07 1.60558e-05)
(2.11194e-05 -2.16239e-07 3.09709e-07 2.11184e-05 -3.09357e-07 1.68669e-05)
(2.27725e-05 -3.16796e-07 4.19452e-07 2.27029e-05 -3.05124e-07 1.82029e-05)
(2.32043e-05 -4.1631e-07 5.41469e-07 2.3658e-05 -2.92011e-07 1.88156e-05)
(2.29393e-05 2.58193e-07 -5.44324e-07 2.31078e-05 -1.73373e-07 1.8434e-05)
(2.16487e-05 1.87985e-07 -4.27025e-07 2.15989e-05 -1.84108e-07 1.72762e-05)
(2.0141e-05 1.30804e-07 -3.12173e-07 2.01254e-05 -1.87725e-07 1.60527e-05)
(1.91681e-05 7.90631e-08 -1.89817e-07 1.91666e-05 -1.89411e-07 1.52574e-05)
(1.86871e-05 2.63708e-08 -6.35148e-08 1.86911e-05 -1.90336e-07 1.48627e-05)
(1.86882e-05 -2.58767e-08 6.37793e-08 1.86925e-05 -1.90443e-07 1.48635e-05)
(1.91701e-05 -7.80953e-08 1.90064e-07 1.9169e-05 -1.89683e-07 1.52591e-05)
(2.01447e-05 -1.28636e-07 3.12364e-07 2.01287e-05 -1.88146e-07 1.60555e-05)
(2.16605e-05 -1.83403e-07 4.2715e-07 2.1606e-05 -1.84722e-07 1.72833e-05)
(2.29656e-05 -2.58044e-07 5.43957e-07 2.3118e-05 -1.74175e-07 1.84481e-05)
(2.28137e-05 8.97341e-08 -5.44651e-07 2.28346e-05 -5.74311e-08 1.82506e-05)
(2.1103e-05 6.26354e-08 -4.31198e-07 2.10665e-05 -6.11409e-08 1.68269e-05)
(1.96619e-05 4.41538e-08 -3.13907e-07 1.96428e-05 -6.25152e-08 1.56539e-05)
(1.86909e-05 2.69377e-08 -1.90751e-07 1.86844e-05 -6.31776e-08 1.48614e-05)
(1.82102e-05 9.13971e-09 -6.39292e-08 1.8209e-05 -6.35759e-08 1.44673e-05)
(1.82113e-05 -8.52992e-09 6.40143e-08 1.82102e-05 -6.36505e-08 1.44682e-05)
(1.86933e-05 -2.595e-08 1.90812e-07 1.86867e-05 -6.33918e-08 1.48634e-05)
(1.96688e-05 -4.24885e-08 3.1397e-07 1.96487e-05 -6.28689e-08 1.5659e-05)
(2.11181e-05 -6.01874e-08 4.31204e-07 2.1077e-05 -6.16215e-08 1.68371e-05)
(2.28329e-05 -8.99671e-08 5.44424e-07 2.28442e-05 -5.79434e-08 1.8262e-05)
(2.28206e-05 -9.03957e-08 -5.4451e-07 2.28373e-05 5.85338e-08 1.82544e-05)
(2.11051e-05 -5.8371e-08 -4.31217e-07 2.10678e-05 6.22751e-08 1.68281e-05)
(1.96602e-05 -4.10088e-08 -3.13967e-07 1.96418e-05 6.35187e-08 1.56528e-05)
(1.86889e-05 -2.50945e-08 -1.90802e-07 1.86829e-05 6.40369e-08 1.48601e-05)
(1.82095e-05 -8.19363e-09 -6.39969e-08 1.82086e-05 6.42985e-08 1.44669e-05)
(1.82106e-05 8.94097e-09 6.39516e-08 1.82096e-05 6.42415e-08 1.44677e-05)
(1.86929e-05 2.60326e-08 1.90759e-07 1.86863e-05 6.38682e-08 1.48631e-05)
(1.96686e-05 4.23958e-08 3.13924e-07 1.96484e-05 6.32492e-08 1.56588e-05)
(2.11179e-05 6.00185e-08 4.31169e-07 2.10767e-05 6.19257e-08 1.68368e-05)
(2.2833e-05 8.9958e-08 5.44408e-07 2.28442e-05 5.81907e-08 1.8262e-05)
(2.2958e-05 -2.58363e-07 -5.43938e-07 2.31138e-05 1.74636e-07 1.84436e-05)
(2.16478e-05 -1.82137e-07 -4.27098e-07 2.15966e-05 1.85246e-07 1.72743e-05)
(2.01361e-05 -1.27464e-07 -3.12327e-07 2.01218e-05 1.88685e-07 1.60492e-05)
(1.91645e-05 -7.72342e-08 -1.90021e-07 1.91643e-05 1.9024e-07 1.52549e-05)
(1.86854e-05 -2.54652e-08 -6.37198e-08 1.86903e-05 1.91028e-07 1.48615e-05)
(1.86866e-05 2.62501e-08 6.35924e-08 1.86912e-05 1.90987e-07 1.48624e-05)
(1.91688e-05 7.81733e-08 1.899e-07 1.91678e-05 1.90118e-07 1.52581e-05)
(2.01438e-05 1.28552e-07 3.12235e-07 2.01277e-05 1.88494e-07 1.60547e-05)
(2.16601e-05 1.83249e-07 4.27052e-07 2.16054e-05 1.85007e-07 1.72829e-05)
(2.29658e-05 2.58065e-07 5.43903e-07 2.3118e-05 1.74412e-07 1.84482e-05)
(2.3202e-05 -4.17053e-07 -5.41383e-07 2.36577e-05 2.92386e-07 1.88149e-05)
(2.27615e-05 -3.15817e-07 -4.19338e-07 2.26946e-05 3.05518e-07 1.8195e-05)
(2.11106e-05 -2.15253e-07 -3.09625e-07 2.11115e-05 3.09769e-07 1.68605e-05)
(2.01246e-05 -1.27905e-07 -1.88466e-07 2.01397e-05 3.12485e-07 1.60516e-05)
(1.96455e-05 -4.1932e-08 -6.31665e-08 1.96641e-05 3.1408e-07 1.56558e-05)
(1.96468e-05 4.27323e-08 6.29851e-08 1.96652e-05 3.14053e-07 1.56568e-05)
(2.0129e-05 1.28752e-07 1.88303e-07 2.01431e-05 3.12408e-07 1.60547e-05)
(2.11184e-05 2.16175e-07 3.09501e-07 2.11174e-05 3.09647e-07 1.6866e-05)
(2.2772e-05 3.16696e-07 4.19297e-07 2.27022e-05 3.05368e-07 1.82024e-05)
(2.32052e-05 4.1641e-07 5.4139e-07 2.36585e-05 2.92231e-07 1.88161e-05)
(2.48396e-05 -6.90345e-07 -5.25475e-07 2.61956e-05 4.1482e-07 2.06921e-05)
(2.48283e-05 -4.76632e-07 -4.10923e-07 2.48299e-05 4.11059e-07 1.99398e-05)
(2.27061e-05 -3.1638e-07 -3.0562e-07 2.27758e-05 4.19801e-07 1.82037e-05)
(2.16009e-05 -1.8276e-07 -1.84996e-07 2.16547e-05 4.27158e-07 1.72789e-05)
(2.10735e-05 -5.96512e-08 -6.18892e-08 2.11133e-05 4.31218e-07 1.68337e-05)
(2.10749e-05 6.04733e-08 6.16835e-08 2.11145e-05 4.31204e-07 1.68347e-05)
(2.1605e-05 1.83577e-07 1.8481e-07 2.16579e-05 4.27114e-07 1.72818e-05)
(2.27133e-05 3.17131e-07 3.05486e-07 2.27814e-05 4.19725e-07 1.82088e-05)
(2.48374e-05 4.77146e-07 4.1088e-07 2.48366e-05 4.1096e-07 1.99463e-05)
(2.48384e-05 6.89751e-07 5.25455e-07 2.61922e-05 4.1468e-07 2.06896e-05)
(2.65509e-05 1.49163e-06 -5.91267e-07 2.65524e-05 5.91451e-07 2.19793e-05)
(2.6189e-05 -6.89668e-07 -4.14796e-07 2.4835e-05 5.2566e-07 2.06861e-05)
(2.36518e-05 -4.15631e-07 -2.92246e-07 2.3198e-05 5.41408e-07 1.88104e-05)
(2.31129e-05 -2.57322e-07 -1.74425e-07 2.29599e-05 5.43877e-07 1.84437e-05)
(2.28414e-05 -8.9256e-08 -5.81873e-08 2.28294e-05 5.44359e-07 1.82594e-05)
(2.28434e-05 9.06437e-08 5.79746e-08 2.28312e-05 5.44358e-07 1.8261e-05)
(2.31191e-05 2.5872e-07 1.74234e-07 2.2966e-05 5.43882e-07 1.84488e-05)
(2.36613e-05 4.17031e-07 2.92105e-07 2.3207e-05 5.41409e-07 1.88182e-05)
(2.62007e-05 6.90357e-07 4.14745e-07 2.48455e-05 5.25665e-07 2.06953e-05)
(2.65567e-05 -1.49226e-06 5.91278e-07 2.65565e-05 5.91317e-07 2.19835e-05)
(3.74733e-05 -1.22248e-06 1.16573e-06 3.74706e-05 1.16727e-06 3.08939e-05)
(3.66987e-05 7.12372e-07 8.23086e-07 3.50134e-05 1.09266e-06 2.93136e-05)
(3.34e-05 1.80566e-07 5.88323e-07 3.29746e-05 9.98323e-07 2.68164e-05)
(3.29666e-05 1.72132e-07 3.54708e-07 3.27046e-05 9.5992e-07 2.64443e-05)
(3.26799e-05 6.31221e-08 1.18142e-07 3.25076e-05 9.37115e-07 2.62019e-05)
(3.26894e-05 -6.34323e-08 -1.19328e-07 3.25101e-05 9.37087e-07 2.62069e-05)
(3.30046e-05 -1.72561e-07 -3.57019e-07 3.27159e-05 9.59837e-07 2.64649e-05)
(3.36187e-05 -1.87354e-07 -5.95274e-07 3.3093e-05 9.98212e-07 2.69557e-05)
(3.64638e-05 -6.82855e-07 -8.31633e-07 3.47457e-05 1.09217e-06 2.91148e-05)
(3.65573e-05 1.29891e-06 -1.16199e-06 3.65561e-05 1.16181e-06 3.02308e-05)
(3.50598e-05 7.10107e-07 1.09283e-06 3.67425e-05 8.24588e-07 2.93451e-05)
(3.37652e-05 2.89486e-07 7.89527e-07 3.37692e-05 7.90597e-07 2.72312e-05)
(3.24603e-05 1.37014e-07 5.43308e-07 3.25215e-05 7.51106e-07 2.60908e-05)
(3.19927e-05 6.52738e-08 3.24491e-07 3.19093e-05 7.22182e-07 2.55922e-05)
(3.16605e-05 1.8875e-08 1.07326e-07 3.15287e-05 7.06437e-07 2.52755e-05)
(3.16692e-05 -2.40066e-08 -1.08586e-07 3.15337e-05 7.0647e-07 2.52811e-05)
(3.20203e-05 -7.3841e-08 -3.2692e-07 3.19249e-05 7.22472e-07 2.56097e-05)
(3.25584e-05 -1.57168e-07 -5.49529e-07 3.25986e-05 7.53823e-07 2.61568e-05)
(3.38893e-05 -3.70332e-07 -7.95826e-07 3.38918e-05 7.95728e-07 2.73439e-05)
(3.47369e-05 -6.8319e-07 -1.09143e-06 3.64556e-05 8.30802e-07 2.91109e-05)
(3.30036e-05 1.76624e-07 9.98395e-07 3.34229e-05 5.8836e-07 2.68356e-05)
(3.25718e-05 1.34515e-07 7.52054e-07 3.25128e-05 5.45115e-07 2.61252e-05)
(3.13859e-05 1.22075e-07 5.17135e-07 3.1388e-05 5.17905e-07 2.51107e-05)
(3.09572e-05 7.06658e-08 3.06458e-07 3.08917e-05 4.96644e-07 2.46873e-05)
(3.07226e-05 2.07146e-08 1.01298e-07 3.06352e-05 4.8602e-07 2.44636e-05)
(3.07283e-05 -2.73062e-08 -1.02301e-07 3.06397e-05 4.86136e-07 2.44677e-05)
(3.09804e-05 -7.94929e-08 -3.08189e-07 3.09116e-05 4.97296e-07 2.47042e-05)
(3.14162e-05 -1.35816e-07 -5.19556e-07 3.14184e-05 5.19537e-07 2.51364e-05)
(3.25568e-05 -1.56757e-07 -7.52215e-07 3.25216e-05 5.48251e-07 2.61317e-05)
(3.3097e-05 -1.87454e-07 -9.9828e-07 3.36255e-05 5.95132e-07 2.69605e-05)
(3.27139e-05 1.71839e-07 9.6043e-07 3.29708e-05 3.54275e-07 2.64496e-05)
(3.19151e-05 6.31713e-08 7.21996e-07 3.19986e-05 3.24532e-07 2.55963e-05)
(3.08973e-05 6.99461e-08 4.96209e-07 3.09647e-05 3.06941e-07 2.46916e-05)
(3.03831e-05 4.5196e-08 2.92288e-07 3.03839e-05 2.92735e-07 2.42036e-05)
(3.01191e-05 1.30031e-08 9.64084e-08 3.00904e-05 2.85126e-07 2.39578e-05)
(3.01264e-05 -1.88438e-08 -9.7085e-08 3.00976e-05 2.85294e-07 2.39631e-05)
(3.03941e-05 -5.21388e-08 -2.93202e-07 3.03959e-05 2.93228e-07 2.42131e-05)
(3.09066e-05 -7.898e-08 -4.97173e-07 3.09799e-05 3.08084e-07 2.47029e-05)
(3.19248e-05 -7.35226e-08 -7.22509e-07 3.20258e-05 3.26833e-07 2.56123e-05)
(3.27239e-05 -1.7287e-07 -9.6008e-07 3.30171e-05 3.5689e-07 2.64732e-05)
(3.25128e-05 6.29178e-08 9.37676e-07 3.26815e-05 1.17816e-07 2.62048e-05)
(3.15333e-05 1.77084e-08 7.065e-07 3.16637e-05 1.07174e-07 2.52785e-05)
(3.06352e-05 1.99398e-08 4.8569e-07 3.07232e-05 1.01418e-07 2.44637e-05)
(3.00927e-05 1.26602e-08 2.84786e-07 3.01225e-05 9.67027e-08 2.39595e-05)
(2.9839e-05 2.67309e-09 9.3893e-08 2.98394e-05 9.41866e-08 2.37212e-05)
(2.98412e-05 -7.37484e-09 -9.42732e-08 2.98421e-05 9.42781e-08 2.37231e-05)
(3.0096e-05 -1.79093e-08 -2.85237e-07 3.01278e-05 9.70098e-08 2.39636e-05)
(3.0643e-05 -2.58439e-08 -4.86194e-07 3.07367e-05 1.02141e-07 2.44725e-05)
(3.15386e-05 -2.2949e-08 -7.06653e-07 3.16818e-05 1.08347e-07 2.52881e-05)
(3.25194e-05 -6.3618e-08 -9.37401e-07 3.27068e-05 1.19037e-07 2.62177e-05)
(3.25119e-05 -6.31445e-08 9.37649e-07 3.26892e-05 -1.19468e-07 2.62077e-05)
(3.15345e-05 -2.47182e-08 7.06633e-07 3.16689e-05 -1.08712e-07 2.52813e-05)
(3.06394e-05 -2.7983e-08 4.85956e-07 3.07278e-05 -1.02275e-07 2.44675e-05)
(3.00935e-05 -1.91999e-08 2.84966e-07 3.01226e-05 -9.69131e-08 2.39604e-05)
(2.98414e-05 -7.52159e-09 9.4002e-08 2.9841e-05 -9.40573e-08 2.37228e-05)
(2.9843e-05 3.87935e-09 -9.42365e-08 2.98431e-05 -9.40122e-08 2.37242e-05)
(3.00969e-05 1.54084e-08 -2.85241e-07 3.01282e-05 -9.67316e-08 2.3964e-05)
(3.06435e-05 2.40463e-08 -4.86215e-07 3.07368e-05 -1.01899e-07 2.44727e-05)
(3.15393e-05 2.16568e-08 -7.06676e-07 3.16821e-05 -1.0815e-07 2.52885e-05)
(3.25193e-05 6.27278e-08 -9.37412e-07 3.27065e-05 -1.18883e-07 2.62176e-05)
(3.27166e-05 -1.72554e-07 9.60251e-07 3.30037e-05 -3.57029e-07 2.64649e-05)
(3.1924e-05 -7.41267e-08 7.22583e-07 3.2018e-05 -3.2694e-07 2.56089e-05)
(3.09057e-05 -7.98459e-08 4.97064e-07 3.0974e-05 -3.08075e-07 2.47002e-05)
(3.03951e-05 -5.24726e-08 2.93021e-07 3.03934e-05 -2.93118e-07 2.42125e-05)
(3.01305e-05 -1.80822e-08 9.68055e-08 3.00987e-05 -2.85146e-07 2.39652e-05)
(3.01313e-05 1.5329e-08 -9.69679e-08 3.01001e-05 -2.85119e-07 2.3966e-05)
(3.03973e-05 4.96672e-08 -2.93213e-07 3.03972e-05 -2.93024e-07 2.42148e-05)
(3.09088e-05 7.72507e-08 -4.97224e-07 3.09807e-05 -3.07899e-07 2.4704e-05)
(3.19263e-05 7.22939e-08 -7.22561e-07 3.20264e-05 -3.26675e-07 2.5613e-05)
(3.27235e-05 1.72003e-07 -9.60103e-07 3.30166e-05 -3.56753e-07 2.64728e-05)
(3.30905e-05 -1.87104e-07 9.98384e-07 3.36154e-05 -5.95128e-07 2.69537e-05)
(3.25583e-05 -1.56948e-07 7.52274e-07 3.25175e-05 -5.48289e-07 2.61307e-05)
(3.14181e-05 -1.36067e-07 5.19488e-07 3.14155e-05 -5.19579e-07 2.5136e-05)
(3.09845e-05 -7.92224e-08 3.08027e-07 3.09111e-05 -4.9729e-07 2.47057e-05)
(3.07364e-05 -2.6039e-08 1.01962e-07 3.06427e-05 -4.86134e-07 2.44722e-05)
(3.0737e-05 2.39234e-08 -1.02088e-07 3.06436e-05 -4.86109e-07 2.44728e-05)
(3.09859e-05 7.7192e-08 -3.08177e-07 3.09139e-05 -4.97237e-07 2.47072e-05)
(3.14198e-05 1.34223e-07 -5.19616e-07 3.14198e-05 -5.19466e-07 2.51383e-05)
(3.256e-05 1.55642e-07 -7.52277e-07 3.25231e-05 -5.48163e-07 2.61335e-05)
(3.30969e-05 1.86729e-07 -9.98293e-07 3.36252e-05 -5.95025e-07 2.69602e-05)
(3.47287e-05 -6.82094e-07 1.09139e-06 3.64446e-05 -8.30763e-07 2.91025e-05)
(3.38921e-05 -3.70297e-07 7.95803e-07 3.38886e-05 -7.9582e-07 2.73437e-05)
(3.25615e-05 -1.57262e-07 5.49424e-07 3.25963e-05 -7.53948e-07 2.61571e-05)
(3.2027e-05 -7.37426e-08 3.26754e-07 3.19256e-05 -7.22623e-07 2.56127e-05)
(3.1681e-05 -2.3121e-08 1.08201e-07 3.15375e-05 -7.06645e-07 2.52874e-05)
(3.16815e-05 2.14897e-08 -1.08296e-07 3.15384e-05 -7.06632e-07 2.52879e-05)
(3.20286e-05 7.21611e-08 -3.26876e-07 3.19283e-05 -7.22577e-07 2.56144e-05)
(3.25637e-05 1.55936e-07 -5.4955e-07 3.26004e-05 -7.53877e-07 2.61595e-05)
(3.38932e-05 3.69435e-07 -7.95846e-07 3.3893e-05 -7.95736e-07 2.73457e-05)
(3.47355e-05 6.82162e-07 -1.09138e-06 3.64535e-05 -8.30743e-07 2.9109e-05)
(3.65583e-05 1.29936e-06 1.16191e-06 3.65581e-05 -1.162e-06 3.02323e-05)
(3.64731e-05 -6.83754e-07 8.31519e-07 3.47518e-05 -1.09246e-06 2.91218e-05)
(3.36261e-05 -1.87474e-07 5.95114e-07 3.30965e-05 -9.98492e-07 2.69602e-05)
(3.30154e-05 -1.72853e-07 3.5677e-07 3.27213e-05 -9.60131e-07 2.64716e-05)
(3.27056e-05 -6.35952e-08 1.18919e-07 3.25177e-05 -9.37432e-07 2.62166e-05)
(3.27062e-05 6.27594e-08 -1.18998e-07 3.25186e-05 -9.37415e-07 2.62172e-05)
(3.30168e-05 1.72029e-07 -3.56877e-07 3.27236e-05 -9.60082e-07 2.6473e-05)
(3.36284e-05 1.86735e-07 -5.95233e-07 3.31e-05 -9.98384e-07 2.69624e-05)
(3.64727e-05 6.82828e-07 -8.31606e-07 3.47531e-05 -1.09232e-06 2.91215e-05)
(3.65613e-05 -1.29942e-06 -1.16192e-06 3.65616e-05 -1.16184e-06 3.02347e-05)
(3.38805e-05 -3.11554e-07 1.55239e-06 3.38726e-05 1.55545e-06 2.85266e-05)
(3.17889e-05 3.93249e-07 1.08787e-06 3.08781e-05 1.4298e-06 2.60854e-05)
(3.00259e-05 -1.60098e-08 7.86028e-07 2.99836e-05 1.38249e-06 2.47081e-05)
(2.93322e-05 8.84693e-08 4.74685e-07 2.93416e-05 1.36487e-06 2.40431e-05)
(2.89631e-05 2.32878e-08 1.57974e-07 2.90305e-05 1.34719e-06 2.36971e-05)
(2.8964e-05 -2.46501e-08 -1.63846e-07 2.90292e-05 1.34713e-06 2.36975e-05)
(2.93316e-05 -9.01902e-08 -4.82547e-07 2.93363e-05 1.36449e-06 2.40428e-05)
(3.01377e-05 9.13344e-09 -8.00971e-07 3.00571e-05 1.38243e-06 2.47849e-05)
(3.18529e-05 -3.93832e-07 -1.11527e-06 3.09447e-05 1.43123e-06 2.61485e-05)
(3.34613e-05 3.33146e-07 -1.54631e-06 3.34619e-05 1.54529e-06 2.81962e-05)
(3.09168e-05 3.93819e-07 1.42874e-06 3.1825e-05 1.09128e-06 2.61107e-05)
(2.93323e-05 1.42458e-07 1.07873e-06 2.93361e-05 1.08164e-06 2.41157e-05)
(2.88658e-05 1.90053e-08 7.8103e-07 2.89523e-05 1.07164e-06 2.357e-05)
(2.85532e-05 2.14168e-09 4.73009e-07 2.85286e-05 1.06736e-06 2.3149e-05)
(2.82733e-05 -3.4273e-09 1.56117e-07 2.82475e-05 1.06299e-06 2.28626e-05)
(2.82765e-05 -8.34175e-10 -1.6201e-07 2.82504e-05 1.06323e-06 2.28656e-05)
(2.85641e-05 -7.14098e-09 -4.80717e-07 2.85389e-05 1.06859e-06 2.31593e-05)
(2.89515e-05 -2.38774e-08 -7.94938e-07 2.90355e-05 1.07829e-06 2.3636e-05)
(2.94475e-05 -1.80089e-07 -1.09288e-06 2.94504e-05 1.09157e-06 2.42212e-05)
(3.09246e-05 -3.94058e-07 -1.43033e-06 3.18353e-05 1.11249e-06 2.61363e-05)
(2.99942e-05 -1.77615e-08 1.38219e-06 3.00342e-05 7.86102e-07 2.47142e-05)
(2.90051e-05 1.79183e-08 1.07303e-06 2.89201e-05 7.85064e-07 2.36047e-05)
(2.8187e-05 4.63577e-08 7.73363e-07 2.81883e-05 7.75214e-07 2.28097e-05)
(2.78181e-05 2.48603e-08 4.68486e-07 2.77786e-05 7.65385e-07 2.23799e-05)
(2.75624e-05 6.72869e-09 1.55022e-07 2.75356e-05 7.61406e-07 2.21198e-05)
(2.75656e-05 -1.14767e-08 -1.60091e-07 2.75392e-05 7.61848e-07 2.2123e-05)
(2.78369e-05 -2.96491e-08 -4.74636e-07 2.77981e-05 7.67307e-07 2.23961e-05)
(2.82138e-05 -5.0314e-08 -7.80516e-07 2.82161e-05 7.78988e-07 2.28356e-05)
(2.89792e-05 -2.36771e-08 -1.07592e-06 2.89008e-05 7.90702e-07 2.36006e-05)
(3.00539e-05 9.17072e-09 -1.38294e-06 3.0138e-05 7.99183e-07 2.47843e-05)
(2.93395e-05 8.88009e-08 1.3651e-06 2.93295e-05 4.73748e-07 2.40411e-05)
(2.8526e-05 1.74179e-09 1.06649e-06 2.85523e-05 4.73388e-07 2.31465e-05)
(2.7783e-05 2.49873e-08 7.64261e-07 2.78235e-05 4.69681e-07 2.23823e-05)
(2.73774e-05 1.07556e-08 4.61593e-07 2.73778e-05 4.62748e-07 2.19247e-05)
(2.71164e-05 1.63013e-09 1.52924e-07 2.71135e-05 4.5906e-07 2.16575e-05)
(2.71237e-05 -5.82549e-09 -1.5703e-07 2.71211e-05 4.59617e-07 2.16632e-05)
(2.73861e-05 -1.48759e-08 -4.66029e-07 2.7388e-05 4.6424e-07 2.19336e-05)
(2.779e-05 -2.92558e-08 -7.68478e-07 2.78333e-05 4.72569e-07 2.23926e-05)
(2.85346e-05 -6.92516e-09 -1.06962e-06 2.85651e-05 4.78649e-07 2.31589e-05)
(2.93389e-05 -9.06771e-08 -1.36543e-06 2.93388e-05 4.80591e-07 2.40467e-05)
(2.90331e-05 2.27414e-08 1.34801e-06 2.89659e-05 1.57068e-07 2.36997e-05)
(2.82462e-05 -3.67878e-09 1.06254e-06 2.82728e-05 1.55831e-07 2.28616e-05)
(2.75319e-05 6.79723e-09 7.60388e-07 2.75598e-05 1.55362e-07 2.21169e-05)
(2.71158e-05 1.61542e-09 4.58188e-07 2.71196e-05 1.5364e-07 2.16589e-05)
(2.68986e-05 -1.00175e-09 1.52219e-07 2.68988e-05 1.5297e-07 2.14238e-05)
(2.69e-05 -2.60364e-09 -1.55412e-07 2.69009e-05 1.53339e-07 2.14255e-05)
(2.7117e-05 -5.29935e-09 -4.61325e-07 2.71223e-05 1.54809e-07 2.1662e-05)
(2.754e-05 -1.05022e-08 -7.63495e-07 2.75705e-05 1.57686e-07 2.21259e-05)
(2.82509e-05 4.03012e-12 -1.06465e-06 2.8283e-05 1.59412e-07 2.2869e-05)
(2.90316e-05 -2.47502e-08 -1.34802e-06 2.89729e-05 1.61242e-07 2.37022e-05)
(2.9032e-05 -2.5083e-08 1.34796e-06 2.89675e-05 -1.64623e-07 2.37005e-05)
(2.82483e-05 -1.26614e-09 1.06325e-06 2.82755e-05 -1.62477e-07 2.28645e-05)
(2.75365e-05 -1.16426e-08 7.61235e-07 2.75636e-05 -1.60099e-07 2.2121e-05)
(2.71146e-05 -5.82096e-09 4.58722e-07 2.71177e-05 -1.56669e-07 2.16587e-05)
(2.68998e-05 -2.62672e-09 1.52661e-07 2.68995e-05 -1.54935e-07 2.14247e-05)
(2.69011e-05 -4.46509e-10 -1.55153e-07 2.69012e-05 -1.54634e-07 2.14261e-05)
(2.71175e-05 2.83987e-09 -4.61191e-07 2.71222e-05 -1.55725e-07 2.16622e-05)
(2.75402e-05 8.56779e-09 -7.63412e-07 2.75703e-05 -1.5839e-07 2.21259e-05)
(2.82515e-05 -1.51964e-09 -1.06461e-06 2.8283e-05 -1.59995e-07 2.28693e-05)
(2.90317e-05 2.35426e-08 -1.34801e-06 2.89728e-05 -1.61755e-07 2.37022e-05)
(2.93402e-05 -9.10616e-08 1.36541e-06 2.93355e-05 -4.8318e-07 2.40467e-05)
(2.85362e-05 -7.51579e-09 1.06855e-06 2.85615e-05 -4.81056e-07 2.31581e-05)
(2.77889e-05 -2.97402e-08 7.66642e-07 2.78283e-05 -4.7462e-07 2.239e-05)
(2.73864e-05 -1.50078e-08 4.63724e-07 2.73851e-05 -4.65983e-07 2.19324e-05)
(2.71258e-05 -5.28596e-09 1.5431e-07 2.71208e-05 -4.61247e-07 2.16641e-05)
(2.71265e-05 2.8181e-09 -1.5625e-07 2.71221e-05 -4.61006e-07 2.16649e-05)
(2.7388e-05 1.24999e-08 -4.65588e-07 2.73881e-05 -4.65232e-07 2.19345e-05)
(2.77915e-05 2.74272e-08 -7.68251e-07 2.78333e-05 -4.73329e-07 2.23933e-05)
(2.85358e-05 5.53243e-09 -1.0695e-06 2.85653e-05 -4.79272e-07 2.31595e-05)
(2.93388e-05 8.95812e-08 -1.36535e-06 2.93384e-05 -4.81118e-07 2.40466e-05)
(3.00554e-05 9.01907e-09 1.38281e-06 3.01362e-05 -8.0129e-07 2.4785e-05)
(2.89838e-05 -2.42086e-08 1.07502e-06 2.89004e-05 -7.92784e-07 2.36026e-05)
(2.82161e-05 -5.05717e-08 7.78906e-07 2.82141e-05 -7.8091e-07 2.28358e-05)
(2.784e-05 -2.93249e-08 4.72475e-07 2.77971e-05 -7.69067e-07 2.23971e-05)
(2.75706e-05 -1.05755e-08 1.57309e-07 2.75403e-05 -7.63569e-07 2.21259e-05)
(2.75707e-05 8.58279e-09 -1.58782e-07 2.75409e-05 -7.63355e-07 2.21262e-05)
(2.78404e-05 2.7413e-08 -4.73892e-07 2.77988e-05 -7.68426e-07 2.2398e-05)
(2.82164e-05 4.87114e-08 -7.80083e-07 2.82164e-05 -7.79858e-07 2.28369e-05)
(2.89819e-05 2.25355e-08 -1.07568e-06 2.89016e-05 -7.9138e-07 2.36021e-05)
(3.00545e-05 -9.88531e-09 -1.3828e-06 3.01381e-05 -7.9972e-07 2.47847e-05)
(3.09242e-05 -3.93125e-07 1.43003e-06 3.18315e-05 -1.11426e-06 2.6135e-05)
(2.94536e-05 -1.80396e-07 1.09194e-06 2.94503e-05 -1.09347e-06 2.42241e-05)
(2.89557e-05 -2.40326e-08 7.9341e-07 2.90345e-05 -1.08015e-06 2.36377e-05)
(2.85698e-05 -7.07137e-09 4.7864e-07 2.85393e-05 -1.07035e-06 2.31622e-05)
(2.82832e-05 -5.63812e-11 1.59191e-07 2.82513e-05 -1.06493e-06 2.28694e-05)
(2.82831e-05 -1.57092e-09 -1.60232e-07 2.82516e-05 -1.06474e-06 2.28694e-05)
(2.85698e-05 5.46874e-09 -4.79641e-07 2.85403e-05 -1.06977e-06 2.31625e-05)
(2.89556e-05 2.25835e-08 -7.94281e-07 2.9036e-05 -1.07921e-06 2.3638e-05)
(2.94506e-05 1.79202e-07 -1.09245e-06 2.94504e-05 -1.0923e-06 2.42224e-05)
(3.09248e-05 3.93204e-07 -1.43002e-06 3.18342e-05 -1.11301e-06 2.61357e-05)
(3.34624e-05 3.34096e-07 1.5457e-06 3.34607e-05 -1.54675e-06 2.8197e-05)
(3.18601e-05 -3.946e-07 1.11421e-06 3.09469e-05 -1.43287e-06 2.61535e-05)
(3.01427e-05 9.2371e-09 7.99486e-07 3.00573e-05 -1.38399e-06 2.47875e-05)
(2.93388e-05 -9.04613e-08 4.80574e-07 2.9338e-05 -1.36595e-06 2.40468e-05)
(2.89729e-05 -2.45692e-08 1.61187e-07 2.9031e-05 -1.34841e-06 2.37023e-05)
(2.89729e-05 2.36976e-08 -1.6182e-07 2.90316e-05 -1.34823e-06 2.37024e-05)
(2.93388e-05 8.96738e-08 -4.81197e-07 2.93393e-05 -1.36544e-06 2.4047e-05)
(3.01437e-05 -9.84372e-09 -8.00057e-07 3.00604e-05 -1.38314e-06 2.47886e-05)
(3.18588e-05 3.93828e-07 -1.11463e-06 3.09482e-05 -1.4318e-06 2.61524e-05)
(3.34641e-05 -3.33253e-07 -1.54576e-06 3.34643e-05 -1.54565e-06 2.81981e-05)
(2.54131e-05 6.86588e-08 1.38008e-06 2.5404e-05 1.38205e-06 2.19908e-05)
(2.26178e-05 7.56316e-08 9.82648e-07 2.23125e-05 1.27768e-06 1.91238e-05)
(2.19162e-05 -1.14658e-07 7.05605e-07 2.20287e-05 1.27785e-06 1.84771e-05)
(2.1194e-05 2.41041e-08 4.24352e-07 2.1304e-05 1.27333e-06 1.77493e-05)
(2.08854e-05 -1.1697e-08 1.41454e-07 2.10466e-05 1.26277e-06 1.74433e-05)
(2.08854e-05 1.19051e-08 -1.47179e-07 2.10468e-05 1.2628e-06 1.7444e-05)
(2.11863e-05 -2.39354e-08 -4.31403e-07 2.13008e-05 1.27323e-06 1.77475e-05)
(2.20052e-05 1.11211e-07 -7.17264e-07 2.20997e-05 1.27833e-06 1.85436e-05)
(2.27079e-05 -7.79258e-08 -1.00157e-06 2.24199e-05 1.27924e-06 1.92102e-05)
(2.51879e-05 -6.31128e-08 -1.37695e-06 2.51893e-05 1.37594e-06 2.18119e-05)
(2.23436e-05 7.63237e-08 1.27773e-06 2.26465e-05 9.85963e-07 1.91447e-05)
(2.08703e-05 9.47915e-09 9.83937e-07 2.08736e-05 9.86274e-07 1.75222e-05)
(2.07409e-05 -3.86344e-08 7.21207e-07 2.08133e-05 9.92875e-07 1.72126e-05)
(2.0378e-05 -1.60953e-08 4.35069e-07 2.0395e-05 9.99431e-07 1.67573e-05)
(2.01523e-05 -1.17686e-08 1.43547e-07 2.01977e-05 9.99781e-07 1.65153e-05)
(2.01532e-05 1.01443e-08 -1.49285e-07 2.01994e-05 1.00006e-06 1.6517e-05)
(2.03816e-05 1.46317e-08 -4.42164e-07 2.04013e-05 1.00077e-06 1.67636e-05)
(2.081e-05 4.07463e-08 -7.33651e-07 2.0884e-05 9.9965e-07 1.72696e-05)
(2.09575e-05 -3.30958e-08 -9.94611e-07 2.0959e-05 9.93231e-07 1.76018e-05)
(2.23928e-05 -7.79696e-08 -1.27804e-06 2.26834e-05 9.98476e-07 1.91914e-05)
(2.20317e-05 -1.15457e-07 1.27805e-06 2.19182e-05 7.06006e-07 1.84783e-05)
(2.08592e-05 -3.91299e-08 9.95317e-07 2.07874e-05 7.25557e-07 1.72433e-05)
(2.02111e-05 -5.95214e-09 7.21556e-07 2.02117e-05 7.2317e-07 1.65407e-05)
(1.97577e-05 -4.82465e-10 4.3503e-07 1.97488e-05 7.19257e-07 1.60359e-05)
(1.94728e-05 1.30124e-10 1.43421e-07 1.94966e-05 7.17699e-07 1.57501e-05)
(1.94746e-05 -1.82683e-09 -1.48452e-07 1.94992e-05 7.18134e-07 1.57525e-05)
(1.97719e-05 -5.17415e-10 -4.4091e-07 1.97646e-05 7.21102e-07 1.60493e-05)
(2.02332e-05 7.64508e-09 -7.27965e-07 2.02343e-05 7.26291e-07 1.65633e-05)
(2.08332e-05 4.05507e-08 -9.96724e-07 2.07621e-05 7.28796e-07 1.72357e-05)
(2.20905e-05 1.11338e-07 -1.27867e-06 2.1998e-05 7.15197e-07 1.85377e-05)
(2.12957e-05 2.54873e-08 1.2736e-06 2.11864e-05 4.23711e-07 1.77433e-05)
(2.03897e-05 -1.53691e-08 9.98901e-07 2.0374e-05 4.35595e-07 1.67525e-05)
(1.97509e-05 1.66752e-10 7.18396e-07 1.976e-05 4.36214e-07 1.60363e-05)
(1.93343e-05 -6.59594e-09 4.3274e-07 1.93342e-05 4.33816e-07 1.55583e-05)
(1.90571e-05 -2.4318e-09 1.42776e-07 1.9073e-05 4.32507e-07 1.52739e-05)
(1.90629e-05 1.14059e-09 -1.46972e-07 1.90792e-05 4.33063e-07 1.52786e-05)
(1.93407e-05 5.79659e-09 -4.37136e-07 1.93416e-05 4.35155e-07 1.55656e-05)
(1.97563e-05 -4.21888e-10 -7.22348e-07 1.97658e-05 4.38616e-07 1.60448e-05)
(2.03951e-05 1.44035e-08 -1.00177e-06 2.03777e-05 4.39862e-07 1.67606e-05)
(2.12985e-05 -2.46136e-08 -1.27423e-06 2.11862e-05 4.29302e-07 1.77469e-05)
(2.10454e-05 -1.15601e-08 1.26357e-06 2.08856e-05 1.40759e-07 1.74436e-05)
(2.01925e-05 -1.10505e-08 9.99407e-07 2.01483e-05 1.43389e-07 1.65113e-05)
(1.94904e-05 9.02238e-10 7.16789e-07 1.94674e-05 1.43791e-07 1.5745e-05)
(1.90741e-05 -2.12585e-09 4.31723e-07 1.90582e-05 1.43477e-07 1.5274e-05)
(1.8839e-05 -1.01464e-09 1.43043e-07 1.88389e-05 1.43767e-07 1.50201e-05)
(1.884e-05 -4.99588e-11 -1.46403e-07 1.88402e-05 1.44114e-07 1.50214e-05)
(1.90744e-05 1.22974e-09 -4.34933e-07 1.9059e-05 1.44559e-07 1.52762e-05)
(1.94974e-05 -1.56946e-09 -7.19919e-07 1.94744e-05 1.45908e-07 1.57526e-05)
(2.01969e-05 1.02271e-08 -1.0016e-06 2.01531e-05 1.46592e-07 1.6517e-05)
(2.10456e-05 1.1337e-08 -1.26378e-06 2.08866e-05 1.44521e-07 1.74446e-05)
(2.10478e-05 1.20236e-08 1.26362e-06 2.08874e-05 -1.47826e-07 1.7446e-05)
(2.01938e-05 1.05814e-08 1.00007e-06 2.01491e-05 -1.49642e-07 1.65134e-05)
(1.94932e-05 -1.27785e-09 7.17528e-07 1.94693e-05 -1.48411e-07 1.57479e-05)
(1.90713e-05 1.60362e-09 4.32166e-07 1.9055e-05 -1.46601e-07 1.52727e-05)
(1.88387e-05 1.41065e-10 1.43459e-07 1.88383e-05 -1.45944e-07 1.502e-05)
(1.88397e-05 -1.01425e-09 -1.46141e-07 1.88395e-05 -1.45642e-07 1.50211e-05)
(1.90739e-05 -2.28703e-09 -4.34772e-07 1.90582e-05 -1.45678e-07 1.52758e-05)
(1.94968e-05 5.91836e-10 -7.19816e-07 1.94736e-05 -1.46761e-07 1.57521e-05)
(2.01967e-05 -1.11468e-08 -1.00153e-06 2.01527e-05 -1.47259e-07 1.65168e-05)
(2.10456e-05 -1.2224e-08 -1.26373e-06 2.08864e-05 -1.45034e-07 1.74445e-05)
(2.13038e-05 -2.42182e-08 1.27415e-06 2.11892e-05 -4.31934e-07 1.7751e-05)
(2.03941e-05 1.49559e-08 1.00054e-06 2.03751e-05 -4.42346e-07 1.67591e-05)
(1.97524e-05 1.47409e-11 7.20333e-07 1.97603e-05 -4.40805e-07 1.60408e-05)
(1.93379e-05 6.2018e-09 4.34639e-07 1.93372e-05 -4.37082e-07 1.55626e-05)
(1.9061e-05 1.61155e-09 1.44078e-07 1.90761e-05 -4.34897e-07 1.52769e-05)
(1.90618e-05 -2.10962e-09 -1.46194e-07 1.90773e-05 -4.34655e-07 1.52779e-05)
(1.93398e-05 -6.70969e-09 -4.36652e-07 1.93396e-05 -4.36329e-07 1.55647e-05)
(1.97556e-05 -4.00779e-10 -7.22039e-07 1.97643e-05 -4.39513e-07 1.60441e-05)
(2.03943e-05 -1.51747e-08 -1.00156e-06 2.03765e-05 -4.40566e-07 1.67599e-05)
(2.12982e-05 2.38808e-08 -1.27406e-06 2.11856e-05 -4.29848e-07 1.77466e-05)
(2.20979e-05 1.11262e-07 1.27849e-06 2.2003e-05 -7.17366e-07 1.85435e-05)
(2.08331e-05 4.0751e-08 9.9565e-07 2.07604e-05 -7.30952e-07 1.72355e-05)
(2.02308e-05 8.00081e-09 7.26163e-07 2.02301e-05 -7.28303e-07 1.65609e-05)
(1.97698e-05 1.11071e-10 4.38555e-07 1.97604e-05 -7.2299e-07 1.60471e-05)
(1.94733e-05 -1.10062e-09 1.45518e-07 1.94961e-05 -7.20003e-07 1.57515e-05)
(1.94738e-05 1.03556e-09 -1.4716e-07 1.94968e-05 -7.19798e-07 1.5752e-05)
(1.97709e-05 -1.72525e-10 -4.40094e-07 1.97622e-05 -7.22354e-07 1.60485e-05)
(2.02325e-05 -8.13429e-09 -7.27432e-07 2.02327e-05 -7.2726e-07 1.65627e-05)
(2.08327e-05 -4.09514e-08 -9.96361e-07 2.0761e-05 -7.29546e-07 1.72353e-05)
(2.20905e-05 -1.11451e-07 -1.27841e-06 2.1998e-05 -7.15769e-07 1.85377e-05)
(2.24024e-05 -7.7951e-08 1.27771e-06 2.26898e-05 -1.00027e-06 1.91984e-05)
(2.09585e-05 -3.31052e-08 9.93523e-07 2.09572e-05 -9.95124e-07 1.76023e-05)
(2.08092e-05 4.09886e-08 7.31937e-07 2.08806e-05 -1.00153e-06 1.72684e-05)
(2.03811e-05 1.49705e-08 4.39882e-07 2.03982e-05 -1.00258e-06 1.67628e-05)
(2.01524e-05 1.0879e-08 1.46332e-07 2.01959e-05 -1.00185e-06 1.65164e-05)
(2.01525e-05 -1.05175e-08 -1.4754e-07 2.01964e-05 -1.00166e-06 1.65166e-05)
(2.03819e-05 -1.46675e-08 -4.4101e-07 2.04e-05 -1.00205e-06 1.67638e-05)
(2.08104e-05 -4.08199e-08 -7.32877e-07 2.08831e-05 -1.00064e-06 1.72697e-05)