/*--------------------------------*- C++ -*----------------------------------*\
| =========                 |                                                 |
| \\      /  F ield         | OpenFOAM: The Open Source CFD Toolbox           |
|  \\    /   O peration     | Version:  2406                                  |
|   \\  /    A nd           | Website:  www.openfoam.com                      |
|    \\/     M anipulation  |                                                 |
\*---------------------------------------------------------------------------*/
FoamFile
{
    version     2.0;
    format      ascii;
    arch        "LSB;label=32;scalar=64";
    class       volScalarField;
    location    "300";
    object      turbulenceProperties:I;
}
// * * * * * * * * * * * * * * * * * * * * * * * * * * * * * * * * * * * * * //

dimensions      [0 0 0 0 0 0 0];

internalField   nonuniform List<scalar> 
25000
(
0.00497125
0.00485542
0.00466798
0.00462486
0.0046042
0.0046044
0.00462556
0.00466601
0.00487542
0.00498688
0.00485585
0.00480736
0.00459619
0.00448144
0.00442529
0.00442532
0.00448168
0.00459647
0.0048042
0.00487453
0.00466683
0.00459667
0.00442866
0.00432345
0.00427147
0.00427154
0.00432363
0.00442824
0.00459545
0.00466569
0.00462357
0.00448076
0.0043232
0.00421779
0.00416454
0.00416468
0.00421802
0.00432357
0.00448171
0.00462538
0.00460294
0.00442413
0.00427094
0.00416438
0.00411047
0.0041106
0.00416464
0.00427163
0.00442547
0.00460438
0.00460342
0.00442431
0.00427079
0.00416419
0.00411041
0.00411053
0.0041646
0.0042716
0.00442544
0.00460438
0.00462479
0.00448056
0.00432274
0.00421746
0.0041644
0.00416452
0.00421789
0.00432347
0.00448166
0.00462539
0.00466558
0.00459447
0.00442741
0.00432307
0.0042712
0.00427133
0.00432349
0.00442813
0.00459538
0.00466576
0.00487493
0.00480338
0.00459572
0.00448115
0.00442503
0.00442517
0.00448152
0.00459636
0.00480414
0.00487469
0.00498643
0.00487435
0.00466507
0.00462484
0.00460406
0.00460425
0.00462546
0.004666
0.00487541
0.00498689
0.00582894
0.00569998
0.00547818
0.00544896
0.00542869
0.00542918
0.005451
0.00549209
0.00567999
0.00575957
0.00570343
0.00552623
0.00542148
0.00537696
0.00534726
0.00534783
0.00537875
0.00542859
0.00553656
0.00567939
0.00548029
0.00542558
0.00532998
0.00529171
0.00527118
0.00527161
0.00529351
0.00533254
0.0054255
0.00549254
0.00544953
0.00537745
0.00529224
0.00524646
0.005223
0.00522361
0.00524745
0.0052933
0.00537898
0.00545183
0.00542899
0.0053476
0.00527121
0.00522324
0.00520054
0.00520075
0.00522362
0.00527211
0.00534856
0.00543028
0.00542926
0.00534787
0.00527159
0.00522329
0.00520071
0.00520087
0.00522367
0.00527213
0.0053486
0.00543026
0.005451
0.00537864
0.00529303
0.00524739
0.00522384
0.00522393
0.00524763
0.00529342
0.00537906
0.00545179
0.00549187
0.00542541
0.00533251
0.00529367
0.00527209
0.00527215
0.00529384
0.00533275
0.00542569
0.00549252
0.00567863
0.00553655
0.00542862
0.00537906
0.00534849
0.00534854
0.00537923
0.00542887
0.00553676
0.00567924
0.0057597
0.00568063
0.00549254
0.00545166
0.00543016
0.00543022
0.00545181
0.00549277
0.00568063
0.00575994
0.00547357
0.0052608
0.00514389
0.00508548
0.00505519
0.00505518
0.00508525
0.00515174
0.00526634
0.0054401
0.00526379
0.00508692
0.00504835
0.00501535
0.00499029
0.00499057
0.00501629
0.00505554
0.00509704
0.00526485
0.00514468
0.00505276
0.00498438
0.00494942
0.00492688
0.00492719
0.00495111
0.00498684
0.00505112
0.00515162
0.0050853
0.00501518
0.00494982
0.00491144
0.00488764
0.00488829
0.00491229
0.00495062
0.00501616
0.00508564
0.00505546
0.00499022
0.0049266
0.00488787
0.00486782
0.00486798
0.00488807
0.00492744
0.00499086
0.00505564
0.00505548
0.00499045
0.00492698
0.00488775
0.00486791
0.00486805
0.00488808
0.00492744
0.00499089
0.00505564
0.00508562
0.0050161
0.00495036
0.00491218
0.00488838
0.00488846
0.00491238
0.00495068
0.00501621
0.00508562
0.00515166
0.00505133
0.00498687
0.00495121
0.00492746
0.00492749
0.00495129
0.00498696
0.00505127
0.00515165
0.0052647
0.00509732
0.00505569
0.00501656
0.0049909
0.00499091
0.00501659
0.00505573
0.00509716
0.0052648
0.00544013
0.00526676
0.00515197
0.00508562
0.00505563
0.00505565
0.00508566
0.00515212
0.00526672
0.00544029
0.00471068
0.00442297
0.00436953
0.00429488
0.00426476
0.00426478
0.00429439
0.00437738
0.00443261
0.00469036
0.00442577
0.0042593
0.00424496
0.00420248
0.00417932
0.00417947
0.00420304
0.004252
0.00426824
0.00443018
0.00436977
0.00424942
0.00418323
0.00413329
0.00410382
0.00410407
0.00413487
0.00418564
0.00424721
0.00437658
0.00429412
0.00420198
0.00413347
0.00408671
0.0040569
0.00405753
0.00408748
0.00413416
0.00420255
0.00429426
0.00426475
0.00417885
0.00410321
0.00405699
0.00403133
0.00403146
0.0040571
0.00410398
0.00417935
0.00426478
0.00426497
0.00417899
0.00410349
0.00405671
0.00403128
0.00403141
0.00405703
0.00410391
0.00417932
0.00426476
0.00429474
0.00420239
0.00413368
0.0040871
0.00405727
0.00405738
0.00408733
0.00413405
0.00420245
0.00429422
0.00437724
0.00424715
0.00418532
0.00413456
0.00410386
0.00410392
0.00413471
0.00418552
0.00424713
0.00437658
0.00443098
0.00426823
0.0042518
0.00420287
0.00417927
0.00417929
0.00420299
0.00425197
0.0042682
0.00443034
0.00469072
0.00443219
0.00437705
0.00429426
0.00426476
0.00426478
0.0042943
0.00437722
0.00443237
0.00469032
0.0040831
0.00379364
0.00375571
0.00367177
0.00364088
0.00364058
0.00367006
0.00376087
0.00380343
0.00407232
0.00379575
0.00363883
0.0036087
0.0035453
0.00351967
0.00351954
0.00354497
0.00361456
0.0036455
0.00380049
0.00375517
0.00361265
0.00353157
0.00345552
0.00341666
0.00341668
0.00345654
0.00353344
0.00360953
0.00375943
0.00367016
0.00354415
0.00345535
0.00338665
0.00334676
0.00334721
0.00338698
0.00345554
0.00354387
0.00366924
0.00364029
0.00351856
0.00341557
0.00334665
0.00330834
0.00330832
0.00334648
0.003416
0.00351852
0.00363964
0.00364033
0.00351847
0.00341569
0.00334618
0.0033081
0.00330816
0.00334629
0.00341586
0.00351845
0.00363955
0.00366998
0.00354386
0.00345507
0.00338651
0.00334662
0.00334667
0.00338659
0.00345527
0.00354364
0.00366907
0.00376012
0.00360948
0.00353303
0.00345596
0.00341596
0.00341599
0.00345599
0.00353308
0.00360929
0.00375927
0.0038013
0.00364545
0.00361421
0.00354441
0.00351862
0.00351861
0.00354445
0.00361424
0.00364526
0.00380053
0.00407239
0.00380254
0.00376006
0.00366932
0.0036397
0.00363977
0.00366942
0.00376033
0.00380284
0.00407214
0.00368223
0.00344003
0.00340006
0.00332252
0.00329322
0.00329271
0.0033199
0.00340247
0.00344722
0.00367431
0.00344185
0.00331721
0.00326807
0.00319616
0.00316934
0.00316914
0.00319553
0.00327296
0.00332225
0.0034446
0.00339871
0.0032717
0.00318714
0.00310073
0.00306033
0.00306026
0.00310145
0.00318848
0.00326772
0.00340101
0.00332038
0.00319482
0.00310046
0.00302095
0.00297864
0.00297903
0.00302105
0.00310036
0.00319421
0.00331895
0.00329218
0.00316805
0.00305915
0.00297849
0.00293499
0.00293492
0.00297825
0.00305951
0.00316792
0.00329135
0.00329209
0.00316792
0.00305923
0.00297798
0.00293471
0.00293479
0.00297806
0.00305936
0.00316788
0.00329125
0.0033197
0.0031943
0.00309997
0.00302065
0.00297845
0.00297849
0.00302073
0.00310017
0.00319401
0.00331876
0.00340174
0.00326789
0.00318827
0.003101
0.00305962
0.00305966
0.00310095
0.0031882
0.00326755
0.00340083
0.00344541
0.00332254
0.00327289
0.00319515
0.00316828
0.0031682
0.00319502
0.00327263
0.003322
0.00344455
0.00367467
0.00344709
0.00340225
0.00331947
0.00329176
0.00329174
0.00331924
0.00340198
0.00344675
0.00367409
0.00347118
0.00330028
0.00325893
0.00318997
0.00316302
0.00316275
0.00318807
0.00326115
0.00330701
0.0034656
0.00330273
0.00321659
0.00315692
0.00308823
0.00306233
0.00306247
0.00308858
0.00316274
0.00322185
0.00330496
0.0032582
0.0031612
0.00308521
0.00300529
0.00297059
0.00297071
0.0030065
0.00308694
0.00315752
0.00326027
0.00318874
0.00308777
0.00300541
0.00293274
0.00289724
0.00289779
0.00293316
0.00300572
0.00308787
0.00318807
0.00316258
0.00306168
0.00296977
0.00289723
0.00286074
0.00286077
0.0028973
0.00297064
0.00306233
0.00316254
0.00316245
0.00306154
0.00296983
0.00289674
0.00286054
0.00286075
0.00289715
0.00297053
0.00306233
0.00316244
0.00318801
0.00308721
0.00300486
0.00293261
0.00289735
0.00289752
0.00293307
0.0030057
0.00308776
0.00318788
0.00326028
0.00315705
0.00308636
0.00300602
0.00297041
0.00297062
0.00300638
0.00308695
0.00315755
0.00326009
0.00330517
0.00322157
0.00316238
0.00308829
0.00306215
0.00306221
0.00308862
0.0031628
0.00322182
0.0033048
0.00346653
0.00330731
0.00326129
0.00318817
0.00316249
0.00316251
0.00318801
0.00326108
0.00330694
0.00346529
0.00338943
0.00327943
0.00323698
0.00317767
0.00315293
0.00315274
0.00317627
0.00323899
0.0032854
0.00338644
0.00328158
0.00322156
0.00316067
0.00310031
0.0030755
0.00307564
0.0031008
0.00316648
0.00322542
0.00328292
0.00323659
0.00316532
0.00309945
0.00302934
0.00299992
0.00300002
0.00303049
0.00310077
0.00316091
0.00323783
0.00317675
0.0031001
0.00302966
0.00296582
0.00293629
0.00293685
0.00296612
0.00302967
0.00310002
0.00317626
0.00315244
0.00307486
0.00299924
0.00293639
0.00290705
0.00290704
0.00293631
0.00299997
0.00307551
0.00315258
0.00315226
0.00307466
0.00299924
0.00293589
0.00290688
0.00290705
0.00293618
0.00299986
0.00307554
0.00315252
0.00317592
0.0030993
0.0030289
0.00296571
0.00293653
0.00293662
0.00296607
0.00302969
0.00309998
0.00317611
0.00323758
0.00316044
0.0031003
0.0030302
0.00299987
0.00300003
0.00303046
0.00310083
0.00316106
0.00323771
0.00328286
0.00322519
0.00316629
0.00310074
0.0030755
0.00307552
0.00310095
0.00316664
0.00322549
0.00328277
0.00338674
0.0032854
0.00323898
0.00317636
0.00315256
0.0031526
0.00317631
0.00323895
0.0032853
0.0033861
0.00334553
0.0032733
0.00323348
0.00318406
0.00316148
0.00316135
0.00318311
0.00323533
0.0032784
0.00334346
0.00327585
0.0032323
0.00317734
0.00312568
0.00310205
0.0031022
0.00312644
0.00318339
0.00323497
0.00327581
0.0032339
0.00318286
0.00312543
0.0030633
0.00303709
0.00303719
0.00306437
0.00312622
0.00317752
0.00323402
0.00318392
0.00312647
0.00306412
0.0030066
0.00298015
0.00298064
0.00300661
0.00306345
0.00312555
0.00318306
0.00316159
0.00310226
0.00303701
0.0029805
0.00295531
0.0029552
0.00298001
0.003037
0.00310206
0.0031612
0.0031615
0.00310208
0.00303696
0.00298
0.00295516
0.00295518
0.00297986
0.00303687
0.00310207
0.00316117
0.00318335
0.00312561
0.00306332
0.00300654
0.00298045
0.0029804
0.00300648
0.00306336
0.00312539
0.00318293
0.00323441
0.0031777
0.00312627
0.00306438
0.00303711
0.00303713
0.00306423
0.00312613
0.00317749
0.00323394
0.00327641
0.00323535
0.00318367
0.00312667
0.00310221
0.00310209
0.00312649
0.00318338
0.00323489
0.00327573
0.00334382
0.00327853
0.00323561
0.00318345
0.00316141
0.00316133
0.00318315
0.0032352
0.00327825
0.00334331
0.00329663
0.00324638
0.00321205
0.0031711
0.00315028
0.00315009
0.00317023
0.00321352
0.00325012
0.00329474
0.00324849
0.00321807
0.00317147
0.00312686
0.0031044
0.00310455
0.0031277
0.00317764
0.0032197
0.00324745
0.00321298
0.00317744
0.00312675
0.00307072
0.00304644
0.00304654
0.00307178
0.00312732
0.00317151
0.00321218
0.00317127
0.00312784
0.00307163
0.003019
0.00299423
0.00299472
0.00301895
0.00307074
0.00312658
0.00317018
0.0031506
0.0031046
0.00304635
0.00299458
0.00297194
0.00297182
0.00299402
0.00304624
0.00310423
0.00314992
0.00315049
0.00310436
0.00304624
0.00299404
0.00297178
0.0029718
0.00299388
0.00304611
0.00310424
0.00314988
0.00317065
0.00312673
0.00307061
0.00301888
0.00299452
0.00299448
0.00301881
0.00307065
0.00312643
0.00316997
0.00321259
0.00317174
0.00312736
0.00307175
0.00304643
0.00304644
0.00307161
0.0031272
0.00317147
0.00321199
0.00324792
0.00322013
0.00317793
0.0031279
0.00310447
0.00310435
0.00312767
0.00317759
0.00321959
0.00324721
0.00329516
0.00325061
0.00321396
0.00317058
0.00315003
0.00314989
0.00317013
0.00321329
0.00324985
0.00329441
0.00323771
0.0031991
0.00317242
0.00313854
0.00311944
0.00311942
0.00313816
0.00317422
0.00320266
0.00323619
0.00320134
0.00318367
0.00314517
0.0031058
0.00308467
0.00308498
0.00310721
0.00315209
0.00318539
0.00320017
0.00317357
0.00315142
0.00310634
0.00305489
0.00303189
0.00303216
0.00305632
0.00310727
0.00314586
0.00317292
0.0031386
0.00310688
0.0030558
0.00300699
0.00298323
0.00298384
0.00300725
0.00305528
0.00310611
0.00313823
0.0031195
0.00308467
0.00303169
0.00298351
0.00296245
0.00296244
0.00298323
0.00303199
0.00308493
0.00311949
0.00311941
0.00308442
0.00303153
0.00298296
0.00296231
0.00296243
0.00298312
0.00303189
0.00308496
0.00311949
0.0031381
0.00310558
0.00305468
0.0030069
0.00298358
0.00298367
0.00300716
0.00305523
0.00310601
0.00313811
0.00317281
0.00314541
0.00310681
0.00305599
0.00303199
0.00303213
0.00305622
0.00310723
0.00314588
0.00317286
0.0032003
0.00318523
0.00315195
0.00310716
0.00308496
0.00308496
0.00310734
0.00315218
0.00318543
0.00320009
0.00323683
0.00320311
0.00317463
0.00313856
0.00311956
0.00311948
0.00313826
0.00317416
0.00320257
0.00323601
0.00318112
0.00314215
0.00312227
0.00309392
0.00307621
0.00307613
0.00309348
0.00312376
0.00314504
0.00317977
0.00314434
0.00313813
0.00310644
0.00307093
0.00305083
0.00305107
0.00307216
0.00311299
0.00313897
0.00314236
0.00312358
0.0031127
0.00307223
0.00302424
0.00300193
0.00300214
0.00302548
0.00307274
0.00310659
0.00312228
0.0030939
0.00307193
0.00302515
0.00297917
0.00295586
0.00295641
0.00297926
0.00302431
0.00307079
0.00309336
0.00307616
0.00305069
0.00300172
0.00295616
0.00293586
0.00293581
0.00295571
0.0030018
0.00305074
0.00307603
0.00307599
0.00305038
0.0030015
0.00295558
0.00293573
0.00293579
0.00295561
0.00300171
0.00305078
0.00307604
0.00309321
0.00307038
0.00302387
0.002979
0.00295618
0.00295622
0.00297914
0.00302425
0.00307071
0.00309325
0.00312208
0.00310624
0.00307239
0.00302521
0.00300195
0.00300203
0.00302533
0.00307267
0.00310661
0.0031222
0.00314236
0.00313889
0.00311293
0.00307211
0.00305095
0.00305093
0.00307218
0.00311304
0.00313901
0.00314227
0.00318004
0.00314528
0.00312404
0.0030937
0.00307609
0.00307603
0.0030935
0.00312373
0.00314495
0.00317956
0.00313695
0.00308099
0.0030659
0.00304195
0.00302574
0.00302577
0.00304186
0.00306761
0.00308396
0.00313585
0.00308362
0.00308654
0.00306041
0.00302807
0.00300911
0.00300943
0.00302961
0.0030672
0.00308727
0.0030813
0.00306755
0.00306697
0.00303064
0.00298552
0.00296377
0.00296406
0.00298684
0.00303106
0.00306071
0.003066
0.00304227
0.00302955
0.00298663
0.00294291
0.00291993
0.00292048
0.00294297
0.00298562
0.00302812
0.00304163
0.00302599
0.00300938
0.00296386
0.00292034
0.0029005
0.00290045
0.00291978
0.00296366
0.00300912
0.00302569
0.0030259
0.0030091
0.00296362
0.00291979
0.00290041
0.00290041
0.00291968
0.00296358
0.00300913
0.00302571
0.00304181
0.00302802
0.00298541
0.00294282
0.00292032
0.00292033
0.00294281
0.00298549
0.00302799
0.00304157
0.00306618
0.0030606
0.00303088
0.00298663
0.00296389
0.00296392
0.00298662
0.0030309
0.00306061
0.00306598
0.0030817
0.00308737
0.00306723
0.00302959
0.00300935
0.00300929
0.00302953
0.0030671
0.00308718
0.00308131
0.00313631
0.00308426
0.00306798
0.00304215
0.00302586
0.00302577
0.00304186
0.00306752
0.00308384
0.00313581
0.00311795
0.00302446
0.00300925
0.00298829
0.00297328
0.00297322
0.0029881
0.00301066
0.00302686
0.00311703
0.00302685
0.00303383
0.00301221
0.00298262
0.00296456
0.00296482
0.002984
0.00301865
0.00303391
0.00302412
0.00301093
0.00301873
0.00298625
0.00294369
0.00292239
0.00292265
0.00294488
0.00298638
0.00301205
0.0030089
0.0029886
0.00298402
0.00294478
0.00290309
0.00288044
0.00288095
0.00290305
0.00294357
0.0029823
0.0029877
0.00297347
0.0029647
0.00292243
0.00288084
0.0028614
0.00286133
0.00288022
0.00292215
0.0029643
0.00297297
0.00297331
0.00296434
0.00292214
0.00288027
0.00286131
0.00286131
0.00288014
0.00292208
0.00296432
0.00297298
0.00298794
0.00298225
0.00294339
0.00290294
0.00288084
0.00288084
0.00290293
0.00294349
0.00298221
0.00298761
0.00300904
0.00301199
0.00298622
0.0029447
0.0029225
0.00292252
0.00294469
0.00298624
0.00301199
0.0030088
0.00302434
0.00303401
0.00301866
0.00298395
0.00296467
0.00296461
0.00298387
0.00301853
0.00303382
0.003024
0.00311739
0.00302725
0.00301098
0.00298826
0.0029731
0.002973
0.00298793
0.00301048
0.00302667
0.00311686
0.00311947
0.00297691
0.00295465
0.00293507
0.0029211
0.00292113
0.00293514
0.00295625
0.00297941
0.00311871
0.00297954
0.00298199
0.00296394
0.0029369
0.00291987
0.00292025
0.00293865
0.00297074
0.00298229
0.00297684
0.00295643
0.0029706
0.00294192
0.00290175
0.00288102
0.00288139
0.00290318
0.00294226
0.00296419
0.00295454
0.0029355
0.00293857
0.00290295
0.00286317
0.00284097
0.00284155
0.00286331
0.00290194
0.00293705
0.00293488
0.00292134
0.00292018
0.0028812
0.00284141
0.0028224
0.0028224
0.00284094
0.00288107
0.00292003
0.00292117
0.0029212
0.00291985
0.00288092
0.0028409
0.00282238
0.00282241
0.00284091
0.00288104
0.00292007
0.0029212
0.00293491
0.00293683
0.00290167
0.00286319
0.00284154
0.00284161
0.0028633
0.00290195
0.00293704
0.0029349
0.00295458
0.00296399
0.00294206
0.00290304
0.00288142
0.00288149
0.00290318
0.00294229
0.00296423
0.00295459
0.00297703
0.00298229
0.00297073
0.00293869
0.00292037
0.00292037
0.00293878
0.00297082
0.00298235
0.00297687
0.00311917
0.00297984
0.0029567
0.00293553
0.00292136
0.0029213
0.00293529
0.00295631
0.00297944
0.0031187
0.00310385
0.00294568
0.00290558
0.00288472
0.00287117
0.00287118
0.00288484
0.00290718
0.00294801
0.00310321
0.0029482
0.00293284
0.00291701
0.00289232
0.0028762
0.00287659
0.00289409
0.00292375
0.00293296
0.00294529
0.00290749
0.00292365
0.00289857
0.00286069
0.0028405
0.00284087
0.0028621
0.00289885
0.00291716
0.00290536
0.00288524
0.00289399
0.00286191
0.00282395
0.0028022
0.00280276
0.00282404
0.00286082
0.00289238
0.00288452
0.00287145
0.00287648
0.00284069
0.00280265
0.00278403
0.00278401
0.00280213
0.00284051
0.00287628
0.00287122
0.00287128
0.00287613
0.0028404
0.00280215
0.00278402
0.00278404
0.00280212
0.0028405
0.00287632
0.00287124
0.00288457
0.00289221
0.0028606
0.00282399
0.00280281
0.00280286
0.00282407
0.00286085
0.0028924
0.00288453
0.00290537
0.00291702
0.0028987
0.00286203
0.00284096
0.00284101
0.00286213
0.00289889
0.00291721
0.00290539
0.00294541
0.002933
0.00292377
0.00289417
0.00287672
0.00287672
0.00289421
0.00292382
0.00293302
0.0029453
0.00310357
0.0029484
0.00290757
0.00288517
0.00287136
0.00287131
0.00288496
0.00290724
0.00294802
0.00310315
0.0029411
0.00293295
0.00286429
0.00283838
0.00282442
0.00282454
0.00283883
0.00286625
0.0029356
0.0029409
0.00293564
0.00288779
0.00287194
0.00284928
0.00283411
0.00283457
0.00285131
0.00287891
0.0028881
0.00293284
0.00286631
0.00287864
0.00285693
0.00282122
0.00280166
0.00280211
0.00282276
0.00285731
0.00287233
0.00286432
0.00283901
0.00285114
0.00282251
0.00278635
0.00276514
0.00276573
0.00278653
0.00282149
0.00284958
0.00283843
0.00282472
0.00283449
0.00280194
0.00276562
0.00274743
0.00274744
0.00276514
0.00280177
0.00283435
0.0028246
0.00282461
0.00283416
0.00280165
0.00276513
0.00274744
0.00274747
0.00276513
0.00280176
0.00283435
0.00282462
0.00283847
0.00284936
0.00282126
0.00278646
0.00276579
0.00276586
0.00278654
0.00282147
0.00284954
0.00283846
0.00286437
0.00287213
0.00285712
0.00282266
0.0028022
0.00280225
0.00282276
0.00285729
0.00287229
0.00286437
0.00293308
0.00288808
0.00287887
0.00285135
0.00283474
0.00283473
0.00285138
0.00287888
0.00288806
0.00293292
0.00294151
0.0029359
0.00286659
0.00283915
0.00282479
0.00282474
0.00283891
0.00286622
0.00293553
0.00294095
0.00249056
0.00293299
0.00283449
0.00279829
0.00278228
0.00278235
0.00279866
0.00283632
0.00293543
0.00249004
0.00293554
0.00284886
0.00282924
0.00280798
0.00279354
0.00279394
0.00280984
0.00283588
0.00284881
0.00293259
0.00283651
0.00283584
0.0028168
0.00278313
0.00276415
0.00276455
0.00278454
0.00281696
0.00282931
0.00283429
0.00279889
0.00280977
0.00278441
0.00275002
0.00272931
0.00272986
0.00275009
0.00278323
0.00280801
0.00279816
0.00278254
0.00279386
0.00276444
0.0027298
0.00271204
0.00271203
0.00272924
0.00276415
0.00279357
0.0027823
0.0027824
0.00279349
0.00276412
0.0027293
0.00271206
0.00271206
0.00272924
0.00276414
0.00279357
0.00278228
0.00279824
0.00280789
0.00278308
0.0027501
0.00272997
0.00273001
0.00275013
0.00278323
0.00280798
0.00279813
0.00283434
0.00282921
0.00281687
0.00278452
0.00276468
0.00276471
0.00278456
0.00281695
0.00282926
0.00283424
0.00293277
0.00284886
0.00283592
0.00280992
0.00279407
0.00279404
0.00280987
0.00283584
0.00284873
0.00293255
0.00249081
0.00293573
0.00283661
0.00279889
0.00278245
0.00278237
0.00279861
0.00283619
0.00293527
0.00248996
0.00366007
0.00291131
0.00281657
0.00276544
0.00274561
0.0027458
0.00276614
0.00281877
0.00291413
0.00365676
0.002914
0.00281704
0.00278877
0.002768
0.00275431
0.0027548
0.00277018
0.00279575
0.00281737
0.00291145
0.00281867
0.00279543
0.00277798
0.00274627
0.00272802
0.00272852
0.00274789
0.00277839
0.00278926
0.00281676
0.00276612
0.00276993
0.00274758
0.00271501
0.00269493
0.00269553
0.00271525
0.00274662
0.00276843
0.00276571
0.00274583
0.00275464
0.00272832
0.0026954
0.00267817
0.00267822
0.00269499
0.00272822
0.00275463
0.00274592
0.00274572
0.00275427
0.00272799
0.00269492
0.00267821
0.00267827
0.00269501
0.00272823
0.00275463
0.00274591
0.00276554
0.00276801
0.00274629
0.00271514
0.00269565
0.00269575
0.00271533
0.00274666
0.00276841
0.00276571
0.00281665
0.00278889
0.00277813
0.00274779
0.00272868
0.00272877
0.002748
0.00277846
0.00278925
0.00281678
0.00291155
0.0028172
0.00279566
0.00277021
0.00275504
0.00275508
0.00277035
0.00279583
0.00281738
0.00291151
0.00365713
0.00291444
0.00281906
0.00276644
0.00274609
0.00274605
0.00276625
0.00281877
0.00291409
0.00365671
0.00646016
0.00278895
0.00280758
0.00274223
0.00271664
0.00271677
0.00274284
0.00280966
0.00279131
0.00645653
0.00279137
0.00279345
0.00275216
0.00273018
0.0027168
0.00271722
0.00273216
0.00275881
0.00279353
0.0027888
0.00280959
0.00275861
0.00274074
0.0027108
0.00269321
0.00269363
0.00271226
0.00274095
0.0027523
0.00280757
0.0027427
0.00273188
0.00271205
0.00268125
0.00266174
0.00266229
0.00268135
0.00271093
0.00273026
0.00274223
0.00271652
0.00271688
0.0026934
0.00266218
0.00264544
0.00264545
0.00266167
0.0026932
0.00271681
0.00271665
0.00271631
0.00271642
0.002693
0.00266166
0.00264545
0.00264548
0.00266167
0.00269319
0.0027168
0.00271662
0.00274182
0.00272973
0.00271058
0.00268124
0.00266238
0.00266244
0.0026814
0.00271093
0.00273022
0.00274218
0.00280715
0.00275177
0.00274061
0.00271212
0.00269371
0.00269379
0.00271231
0.00274097
0.00275226
0.00280749
0.00278863
0.00279315
0.00275859
0.00273207
0.0027173
0.00271734
0.00273222
0.00275884
0.0027935
0.00278877
0.00645636
0.00279149
0.00280969
0.00274287
0.00271678
0.00271679
0.00274283
0.00280964
0.00279123
0.00645649
0.00987764
0.00250406
0.00278927
0.00272631
0.00269492
0.00269501
0.00272685
0.00279114
0.0025063
0.00987315
0.00250713
0.00277346
0.0027203
0.00269458
0.00268104
0.00268138
0.00269634
0.00272647
0.002773
0.00250429
0.00279166
0.00272698
0.00270553
0.0026769
0.00265984
0.00266017
0.00267802
0.00270514
0.00271998
0.00278913
0.00272721
0.00269683
0.00267842
0.00264915
0.00263009
0.00263049
0.00264884
0.00267661
0.00269434
0.00272614
0.00269526
0.00268179
0.00266051
0.00263073
0.00261433
0.0026142
0.00262977
0.00265955
0.00268081
0.00269475
0.00269505
0.00268132
0.00266008
0.00263021
0.00261435
0.00261422
0.00262976
0.00265952
0.00268077
0.00269471
0.0027263
0.00269467
0.00267696
0.00264913
0.00263073
0.00263064
0.00264884
0.00267656
0.00269424
0.00272606
0.0027893
0.00272017
0.00270541
0.00267825
0.00266036
0.00266028
0.00267802
0.00270508
0.00271984
0.00278897
0.00250499
0.00277323
0.00272674
0.00269657
0.00268156
0.00268148
0.00269635
0.00272643
0.0027729
0.00250425
0.00987301
0.00250669
0.00279132
0.00272702
0.00269514
0.0026951
0.00272688
0.0027912
0.00250634
0.00987313
0.0137786
0.00299782
0.00271889
0.00270926
0.00267739
0.00267735
0.00270947
0.00271999
0.00299963
0.0137736
0.00300008
0.00274181
0.00269339
0.00266121
0.00264685
0.00264717
0.00266284
0.00269931
0.00274096
0.00299654
0.00272134
0.0027001
0.00267124
0.00264356
0.00262708
0.00262737
0.00264458
0.00267069
0.0026928
0.00271837
0.00271041
0.00266351
0.00264511
0.00261738
0.0025989
0.00259929
0.00261699
0.00264314
0.00266074
0.0027088
0.00267802
0.00264771
0.00262778
0.00259957
0.00258369
0.00258353
0.00259856
0.00262672
0.00264645
0.002677
0.00267779
0.00264726
0.00262741
0.0025991
0.00258374
0.0025836
0.00259859
0.00262672
0.00264644
0.00267695
0.00270949
0.00266149
0.00264373
0.00261749
0.00259966
0.00259954
0.0026171
0.00264318
0.00266072
0.00270869
0.0027191
0.00269353
0.00267133
0.00264508
0.00262778
0.00262765
0.00264471
0.00267074
0.00269276
0.0027181
0.00299614
0.0027418
0.00269998
0.00266337
0.00264751
0.00264736
0.00266294
0.00269934
0.00274094
0.00299673
0.0137737
0.00299895
0.00272091
0.00271001
0.00267756
0.00267741
0.00270954
0.00272026
0.00299977
0.0137736
0.0179777
0.00488337
0.00254014
0.00266814
0.00265302
0.00265317
0.00266884
0.00254189
0.00488576
0.0179726
0.00488628
0.00266776
0.00267103
0.00263072
0.00261489
0.00261544
0.00263299
0.00267783
0.00266811
0.00488076
0.00254261
0.00267775
0.0026388
0.00261131
0.00259548
0.00259598
0.00261288
0.00263902
0.00267145
0.00254111
0.00266925
0.00263297
0.00261278
0.00258656
0.00256887
0.00256943
0.0025867
0.00261157
0.0026311
0.00266857
0.00265343
0.00261553
0.00259601
0.00256943
0.00255426
0.00255428
0.00256892
0.00259567
0.00261519
0.00265328
0.00265331
0.00261518
0.00259571
0.00256903
0.00255438
0.00255441
0.00256902
0.00259575
0.00261526
0.00265332
0.00266871
0.00263116
0.00261164
0.00258691
0.00256981
0.0025699
0.00258701
0.00261184
0.00263132
0.0026687
0.00254131
0.00267166
0.00263928
0.0026132
0.00259652
0.00259658
0.00261332
0.00263944
0.00267179
0.00254116
0.00488007
0.00266858
0.00267825
0.00263347
0.00261607
0.00261609
0.00263355
0.00267835
0.00266869
0.00488055
0.0179726
0.00488415
0.00254317
0.00266973
0.00265383
0.00265377
0.00266947
0.00254291
0.00488486
0.0179725
0.0222691
0.00732798
0.00247863
0.00256713
0.00259816
0.00259834
0.00256784
0.00248013
0.00733086
0.0222649
0.00733195
0.00252385
0.00265051
0.00260357
0.00258523
0.0025858
0.00260595
0.00265751
0.00252444
0.00732437
0.00248076
0.00265714
0.00260885
0.00257995
0.00256437
0.00256491
0.00258165
0.00260932
0.00265121
0.00247842
0.00256803
0.00260562
0.00258131
0.00255611
0.00253902
0.00253962
0.00255639
0.00258035
0.00260405
0.00256774
0.00259837
0.00258556
0.00256468
0.00253948
0.00252486
0.00252493
0.0025391
0.00256459
0.00258554
0.00259851
0.0025982
0.00258513
0.00256431
0.00253901
0.00252493
0.00252498
0.00253915
0.00256462
0.00258557
0.00259854
0.00256736
0.00260356
0.00257995
0.00255627
0.00253977
0.00253992
0.00255652
0.00258047
0.00260416
0.00256775
0.00247781
0.0026507
0.00260899
0.00258154
0.00256514
0.00256525
0.00258186
0.00260952
0.00265134
0.00247833
0.0073242
0.00252395
0.00265727
0.00260594
0.00258608
0.00258618
0.00260623
0.00265779
0.00252461
0.00732417
0.0222645
0.00732955
0.00248009
0.00256816
0.00259859
0.00259866
0.00256829
0.00247963
0.00732969
0.0222648
0.0264748
0.0101672
0.00346577
0.00241516
0.00248365
0.00248394
0.0024159
0.00346744
0.0101703
0.0264717
0.0101718
0.00241308
0.00262287
0.00257887
0.00255803
0.00255864
0.00258136
0.00262998
0.00241316
0.0101629
0.0034682
0.00262942
0.00258238
0.00255007
0.00253441
0.002535
0.00255187
0.002583
0.00262385
0.00346304
0.00241599
0.00258085
0.00255136
0.00252671
0.00251022
0.00251083
0.00252707
0.00255051
0.00257938
0.00241563
0.00248387
0.00255822
0.00253462
0.00251061
0.00249656
0.00249666
0.00251025
0.00253451
0.00255824
0.00248401
0.00248374
0.00255778
0.0025342
0.00251011
0.00249659
0.00249662
0.00251022
0.00253446
0.00255815
0.00248396
0.00241539
0.00257866
0.00254992
0.00252673
0.0025108
0.00251094
0.00252693
0.00255031
0.00257917
0.00241542
0.0034637
0.0026229
0.00258232
0.00255144
0.00253492
0.00253499
0.00255167
0.00258273
0.0026234
0.00346416
0.0101633
0.00241261
0.00262938
0.00258101
0.0025586
0.00255866
0.00258117
0.00262969
0.00241263
0.0101634
0.0264708
0.0101694
0.00346744
0.0024159
0.00248395
0.002484
0.00241586
0.00346618
0.0101695
0.0264715
0.0304689
0.0133138
0.00520694
0.00263267
0.00236541
0.00236552
0.0026331
0.00520948
0.0133172
0.0304671
0.0133187
0.00291946
0.00257534
0.00255451
0.00253276
0.00253326
0.00255664
0.00258161
0.00291749
0.0133096
0.00521014
0.00258156
0.00256088
0.00252257
0.00250612
0.00250661
0.00252406
0.00256106
0.00257567
0.00520382
0.00263354
0.00255639
0.00252382
0.00249888
0.00248281
0.00248332
0.00249896
0.00252258
0.00255447
0.0026314
0.00236566
0.00253295
0.00250637
0.00248323
0.00246968
0.00246969
0.00248263
0.00250591
0.00253258
0.00236512
0.00236547
0.00253249
0.00250591
0.00248271
0.0024697
0.00246965
0.00248261
0.00250588
0.00253252
0.00236514
0.0026321
0.00255418
0.00252233
0.00249883
0.00248335
0.00248341
0.00249883
0.00252241
0.00255434
0.00263201
0.00520452
0.00257516
0.00256066
0.00252379
0.00250654
0.00250655
0.00252385
0.0025608
0.00257529
0.00520547
0.0133098
0.00291808
0.00258139
0.00255642
0.00253319
0.0025332
0.00255642
0.00258142
0.00291782
0.0133103
0.0304654
0.0133162
0.00520934
0.00263327
0.0023655
0.00236545
0.00263267
0.00520818
0.0133164
0.0304665
0.0341775
0.0166543
0.00732411
0.00370482
0.00271175
0.00271198
0.00370606
0.00732754
0.0166579
0.0341765
0.0166593
0.00415518
0.00249348
0.00252377
0.00250617
0.00250664
0.00252583
0.00249924
0.00415352
0.0166504
0.00732798
0.00249931
0.00254427
0.00249757
0.00247961
0.00248009
0.00249897
0.00254423
0.00249356
0.00732108
0.00370612
0.00252565
0.00249884
0.00247254
0.00245679
0.00245726
0.00247252
0.00249743
0.00252356
0.00370343
0.00271194
0.0025064
0.00247992
0.00245724
0.00244417
0.00244417
0.00245657
0.00247933
0.0025059
0.00271119
0.00271154
0.00250598
0.00247948
0.00245675
0.00244423
0.00244417
0.0024566
0.00247937
0.0025059
0.00271145
0.00370383
0.00252357
0.00249744
0.00247256
0.00245743
0.00245747
0.00247253
0.00249743
0.00252365
0.00370448
0.00732146
0.00249347
0.00254416