/*--------------------------------*- C++ -*----------------------------------*\
| =========                 |                                                 |
| \\      /  F ield         | OpenFOAM: The Open Source CFD Toolbox           |
|  \\    /   O peration     | Version:  2406                                  |
|   \\  /    A nd           | Website:  www.openfoam.com                      |
|    \\/     M anipulation  |                                                 |
\*---------------------------------------------------------------------------*/
FoamFile
{
    version     2.0;
    format      ascii;
    arch        "LSB;label=32;scalar=64";
    class       volScalarField;
    location    "300";
    object      turbulenceProperties:L;
}
// * * * * * * * * * * * * * * * * * * * * * * * * * * * * * * * * * * * * * //

dimensions      [0 1 0 0 0 0 0];

internalField   nonuniform List<scalar> 
25000
(
0.0353355
0.0361914
0.037654
0.0380112
0.0381847
0.038183
0.0380054
0.0376699
0.036043
0.0352248
0.0361883
0.0365672
0.0382568
0.0392425
0.0397436
0.0397434
0.0392404
0.0382549
0.0365911
0.0360493
0.0376633
0.0382533
0.0397145
0.0406871
0.0411855
0.0411848
0.0406854
0.0397182
0.0382629
0.0376724
0.0380217
0.0392486
0.0406895
0.0417132
0.0422497
0.0422484
0.0417108
0.0406859
0.0392401
0.0380068
0.0381951
0.039754
0.0411906
0.0422515
0.0428092
0.0428078
0.0422487
0.0411839
0.0397419
0.0381831
0.0381911
0.0397524
0.041192
0.0422533
0.0428098
0.0428085
0.0422491
0.0411842
0.0397422
0.0381831
0.0380117
0.0392502
0.0406938
0.0417165
0.0422513
0.04225
0.0417121
0.0406869
0.0392406
0.0380067
0.0376734
0.038271
0.0397256
0.0406907
0.0411881
0.0411868
0.0406867
0.0397192
0.0382634
0.0376719
0.0360463
0.0365974
0.0382612
0.0392451
0.0397459
0.0397447
0.0392418
0.0382558
0.0365915
0.0360481
0.035228
0.0360508
0.0376775
0.0380113
0.0381858
0.0381842
0.0380062
0.03767
0.036043
0.0352247
0.0296488
0.0303537
0.0316089
0.0317956
0.0319229
0.0319199
0.0317835
0.0315284
0.0304599
0.0300044
0.0303357
0.0313479
0.0319818
0.0322653
0.0324539
0.0324503
0.0322544
0.0319406
0.0312887
0.0304628
0.0315969
0.0319588
0.0325621
0.0328168
0.0329545
0.0329518
0.0328056
0.0325461
0.0319577
0.0315257
0.0317923
0.0322625
0.0328137
0.0331207
0.0332796
0.0332758
0.0331144
0.0328067
0.0322529
0.0317786
0.0319212
0.0324519
0.0329544
0.0332782
0.0334343
0.033433
0.0332756
0.0329486
0.0324458
0.0319134
0.0319195
0.0324502
0.0329519
0.0332778
0.0334332
0.0334322
0.0332753
0.0329485
0.0324456
0.0319135
0.0317836
0.0322551
0.0328085
0.0331148
0.0332743
0.0332737
0.0331132
0.0328059
0.0322524
0.0317788
0.0315297
0.0319583
0.0325463
0.0328046
0.0329488
0.0329484
0.0328036
0.0325448
0.0319566
0.0315259
0.030467
0.0312888
0.0319404
0.0322526
0.0324463
0.032446
0.0322515
0.0319389
0.0312875
0.0304636
0.0300037
0.0304565
0.0315258
0.0317796
0.031914
0.0319137
0.0317787
0.0315245
0.0304564
0.0300024
0.031073
0.0323704
0.0331381
0.0335401
0.0337519
0.0337519
0.0335414
0.0330871
0.0323354
0.031262
0.0323524
0.0335267
0.0338196
0.0340666
0.03425
0.0342481
0.0340601
0.0337722
0.0334591
0.0323442
0.0331333
0.0337915
0.0342949
0.0345628
0.0347343
0.0347321
0.034551
0.0342774
0.0338004
0.0330877
0.0335415
0.034068
0.0345604
0.0348585
0.0350421
0.0350375
0.0348522
0.0345541
0.0340608
0.0335386
0.0337502
0.0342507
0.0347364
0.0350407
0.0352
0.0351988
0.0350389
0.0347302
0.0342458
0.0337486
0.03375
0.034249
0.0347336
0.0350413
0.0351993
0.0351983
0.0350388
0.0347302
0.0342456
0.0337486
0.033539
0.0340613
0.0345561
0.0348531
0.0350369
0.0350363
0.0348516
0.0345537
0.0340604
0.0335388
0.0330876
0.0337991
0.0342773
0.0345503
0.0347301
0.0347299
0.0345497
0.0342765
0.0337993
0.0330875
0.0323452
0.0334573
0.0337712
0.0340582
0.0342456
0.0342456
0.0340579
0.0337709
0.0334582
0.0323445
0.0312619
0.0323328
0.0330856
0.0335388
0.0337487
0.0337485
0.0335385
0.0330846
0.032333
0.0312608
0.0357312
0.0380948
0.0385944
0.0392887
0.0395782
0.0395779
0.0392929
0.0385247
0.0380108
0.035884
0.0380709
0.0396128
0.0397889
0.0402197
0.040457
0.0404555
0.0402142
0.0397241
0.0395288
0.0380315
0.0385926
0.0397489
0.0404248
0.0409436
0.0412534
0.0412509
0.040928
0.0404009
0.0397672
0.0385315
0.0392959
0.0402248
0.0409422
0.0414444
0.0417656
0.0417593
0.0414363
0.0409346
0.0402186
0.0392939
0.0395785
0.0404617
0.0412597
0.041765
0.0420492
0.0420477
0.0417634
0.0412516
0.0404564
0.0395777
0.0395763
0.0404602
0.0412569
0.0417676
0.0420496
0.0420482
0.0417641
0.0412523
0.0404567
0.0395778
0.0392898
0.0402204
0.0409395
0.0414402
0.0417619
0.0417608
0.0414378
0.0409356
0.0402195
0.0392942
0.0385258
0.0397679
0.0404041
0.0409311
0.0412529
0.0412523
0.0409295
0.040402
0.0397678
0.0385315
0.0380247
0.0395289
0.0397259
0.0402157
0.0404572
0.0404569
0.0402145
0.0397242
0.039529
0.03803
0.0358812
0.0380144
0.0385275
0.039294
0.0395779
0.0395777
0.0392936
0.0385259
0.0380128
0.0358842
0.0409829
0.0441374
0.0446146
0.0456587
0.0460587
0.0460624
0.0456798
0.0445531
0.0440227
0.0410898
0.0441129
0.046068
0.0464986
0.047362
0.0477234
0.0477251
0.0473665
0.0464244
0.0459829
0.0440569
0.0446213
0.0464495
0.0475695
0.0486517
0.0492237
0.0492234
0.0486375
0.0475439
0.0464874
0.04457
0.0456789
0.0473779
0.0486547
0.0496815
0.0502938
0.0502872
0.0496765
0.0486512
0.0473809
0.0456899
0.0460663
0.0477386
0.0492395
0.0502958
0.0509006
0.0509008
0.0502978
0.049233
0.0477388
0.0460742
0.0460657
0.0477397
0.0492376
0.0503024
0.0509043
0.0509032
0.0503006
0.049235
0.0477397
0.0460753
0.0456809
0.0473812
0.048658
0.0496836
0.050296
0.0502953
0.0496822
0.0486549
0.047384
0.0456919
0.044562
0.0464882
0.0475496
0.0486457
0.0492337
0.0492332
0.0486452
0.0475488
0.0464905
0.0445719
0.0440476
0.0459836
0.0464289
0.047374
0.0477375
0.0477375
0.0473734
0.0464284
0.0459858
0.0440565
0.0410892
0.0440331
0.0445626
0.045689
0.0460734
0.0460726
0.0456876
0.0445594
0.0440295
0.0410917
0.0452808
0.0484721
0.0490651
0.0502318
0.0506906
0.0506985
0.0502712
0.04903
0.0483697
0.0453773
0.048446
0.0503079
0.0511089
0.0522914
0.052751
0.0527543
0.0523019
0.0510335
0.050231
0.0484072
0.0490846
0.0510535
0.0524637
0.0539635
0.0546958
0.0546971
0.0539512
0.0524414
0.051114
0.0490511
0.0502644
0.0523137
0.0539686
0.0554326
0.056242
0.056235
0.0554307
0.0539696
0.0523231
0.0502857
0.0507068
0.0527726
0.0547171
0.0562451
0.0571038
0.0571052
0.0562492
0.0547105
0.0527746
0.0507194
0.0507082
0.0527749
0.0547156
0.0562545
0.0571092
0.0571077
0.0562529
0.0547131
0.0527753
0.050721
0.0502744
0.0523218
0.0539765
0.0554381
0.0562459
0.056245
0.0554366
0.053973
0.0523264
0.0502885
0.0490407
0.0511114
0.052445
0.0539591
0.0547086
0.0547079
0.0539598
0.0524461
0.0511166
0.0490537
0.0483959
0.0502267
0.0510347
0.0523081
0.0527686
0.0527699
0.0523101
0.0510386
0.0502348
0.0484079
0.0453729
0.0483717
0.0490332
0.0502777
0.0507131
0.0507133
0.0502813
0.0490371
0.0483764
0.0453801
0.0478925
0.0503422
0.0509903
0.0521089
0.052563
0.0525675
0.05214
0.0509551
0.0502378
0.0479687
0.0503037
0.0516729
0.0526879
0.0538905
0.0543628
0.0543602
0.0538845
0.0525914
0.0515881
0.0502702
0.0510017
0.0526174
0.0539663
0.0554386
0.0561061
0.0561039
0.0554165
0.0539359
0.0526776
0.0509691
0.0521291
0.0538988
0.0554368
0.0568539
0.0575727
0.0575621
0.0568457
0.0554304
0.0538966
0.0521398
0.0525705
0.0543744
0.0561217
0.0575733
0.0583331
0.0583324
0.0575715
0.056105
0.0543628
0.0525709
0.0525725
0.0543769
0.0561204
0.0575826
0.0583371
0.0583329
0.0575744
0.0561072
0.0543626
0.0525725
0.0521411
0.0539082
0.0554464
0.0568564
0.057571
0.0575676
0.0568475
0.0554308
0.0538985
0.0521429
0.050969
0.0526856
0.053946
0.0554254
0.0561096
0.0561056
0.0554187
0.0539357
0.0526771
0.050972
0.0502672
0.0515927
0.0525975
0.0538896
0.0543659
0.0543648
0.0538838
0.0525905
0.0515885
0.0502727
0.047956
0.0502333
0.0509529
0.0521383
0.0525718
0.0525714
0.0521409
0.0509562
0.050239
0.047973
0.0489055
0.0504762
0.0511303
0.0520938
0.0525099
0.052513
0.0521165
0.0510977
0.050382
0.0489479
0.0504413
0.0513787
0.0523982
0.0534455
0.053892
0.0538895
0.0534372
0.0523017
0.0513168
0.050422
0.051136
0.0523213
0.0534811
0.0547544
0.0553106
0.0553088
0.0547338
0.0534582
0.0523938
0.0511165
0.0521089
0.0534494
0.054749
0.0559696
0.0565542
0.0565437
0.0559637
0.0547483
0.0534503
0.0521166
0.0525182
0.0539033
0.0553233
0.0565527
0.0571485
0.0571485
0.0565536
0.0553095
0.0538916
0.0525155
0.0525212
0.0539068
0.0553233
0.056562
0.0571518
0.0571485
0.0565562
0.0553116
0.053891
0.0525166
0.0521224
0.0534629
0.0547622
0.0559716
0.05655
0.0565481
0.0559647
0.0547479
0.053451
0.0521191
0.0511206
0.0524017
0.0534663
0.054739
0.0553115
0.0553085
0.0547344
0.053457
0.0523914
0.0511184
0.050423
0.0513205
0.0523048
0.0534381
0.0538918
0.0538914
0.0534345
0.052299
0.0513156
0.0504242
0.0489437
0.0503821
0.0510979
0.052115
0.0525159
0.0525152
0.0521157
0.0510982
0.0503835
0.0489529
0.0494035
0.0503798
0.0509721
0.0517636
0.0521372
0.0521394
0.0517788
0.0509418
0.0502983
0.0494336
0.0503381
0.0509853
0.0518865
0.0527671
0.0531828
0.0531802
0.0527543
0.0517867
0.0509429
0.0503406
0.0509646
0.0517956
0.0527895
0.0538938
0.0543775
0.0543757
0.0538751
0.0527759
0.0518832
0.0509633
0.0517657
0.0527539
0.0538797
0.0549512
0.0554603
0.0554514
0.0549508
0.0538911
0.0527693
0.0517795
0.0521354
0.0531793
0.0543791
0.055454
0.0559515
0.0559535
0.0554629
0.0543789
0.0531825
0.0521417
0.052137
0.0531823
0.0543798
0.0554631
0.0559544
0.0559539
0.0554656
0.0543813
0.0531824
0.0521423
0.051775
0.0527684
0.0538934
0.0549522
0.055455
0.0554559
0.0549532
0.0538926
0.0527719
0.0517818
0.0509572
0.0518804
0.0527751
0.0538751
0.0543771
0.0543768
0.0538776
0.0527775
0.0518836
0.0509645
0.0503315
0.050937
0.0517822
0.0527504
0.05318
0.053182
0.0527533
0.0517868
0.0509441
0.0503419
0.0494282
0.0502963
0.0509374
0.0517731
0.0521383
0.0521396
0.0517781
0.0509438
0.0503007
0.0494357
0.0499956
0.0506074
0.0510966
0.0517464
0.0520884
0.0520915
0.0517603
0.0510717
0.0505456
0.0500239
0.0505712
0.0509852
0.0517412
0.0524978
0.0528895
0.0528868
0.0524835
0.0516386
0.0509592
0.0505903
0.0510804
0.0516422
0.0525145
0.0535043
0.0539486
0.0539469
0.053486
0.0525048
0.0517403
0.0510944
0.0517435
0.0524812
0.0534887
0.0544604
0.0549321
0.0549233
0.0544612
0.053504
0.0525023
0.0517612
0.052083
0.052886
0.0539502
0.0549259
0.0553689
0.0553712
0.0549358
0.053952
0.0528923
0.0520942
0.0520848
0.05289
0.0539521
0.0549356
0.0553719
0.0553716
0.0549384
0.0539543
0.0528921
0.052095
0.0517536
0.0524998
0.0535063
0.0544624
0.054927
0.0549278
0.0544638
0.0535056
0.0525048
0.0517646
0.0510878
0.0517365
0.0525043
0.0534866
0.0539487
0.0539486
0.053489
0.0525069
0.051741
0.0510974
0.0505831
0.0509523
0.051634
0.0524801
0.0528881
0.0528902
0.0524838
0.0516395
0.0509608
0.0505941
0.0500175
0.0505379
0.0510647
0.0517546
0.0520924
0.0520947
0.051762
0.0510754
0.0505496
0.0500288
0.0507693
0.0511702
0.0515225
0.0520565
0.0523704
0.0523707
0.0520623
0.0514913
0.051109
0.0507928
0.0511303
0.0513124
0.0519328
0.0526037
0.0529738
0.0529684
0.0525795
0.0518157
0.0512845
0.0511528
0.0515019
0.0518269
0.052606
0.0535212
0.0539439
0.0539392
0.0534961
0.0525902
0.0519211
0.0515141
0.0520552
0.0525851
0.0535053
0.0544114
0.0548654
0.0548545
0.0544065
0.0535142
0.0525984
0.0520615
0.0523695
0.0529738
0.0539476
0.0548606
0.055275
0.055275
0.0548654
0.0539421
0.0529693
0.0523694
0.0523709
0.0529782
0.0539504
0.0548705
0.0552775
0.0552753
0.0548674
0.0539438
0.0529688
0.0523694
0.0520637
0.0526075
0.0535247
0.054413
0.0548593
0.0548575
0.0544082
0.053515
0.0526001
0.0520634
0.051516
0.0519287
0.0525979
0.0535019
0.0539421
0.0539397
0.0534978
0.0525909
0.0519208
0.0515151
0.0511508
0.0512871
0.0518181
0.0525802
0.0529687
0.0529687
0.0525772
0.0518142
0.0512837
0.0511541
0.0507827
0.0511018
0.0514845
0.0520557
0.0523683
0.0523697
0.0520607
0.0514921
0.0511103
0.0507956
0.0515362
0.0519192
0.0521431
0.0525851
0.0528774
0.0528787
0.0525919
0.0521157
0.0518664
0.0515577
0.0518782
0.0518378
0.0523421
0.0529533
0.0533092
0.0533051
0.0529314
0.0522278
0.0518237
0.0519156
0.0521189
0.0522329
0.0529381
0.0538041
0.0542197
0.0542158
0.0537821
0.0529292
0.0523394
0.0521428
0.0525849
0.0529355
0.0537879
0.0546536
0.055105
0.055095
0.0546519
0.0538027
0.0529556
0.0525944
0.0528784
0.0533117
0.0542235
0.0550996
0.0555046
0.0555056
0.0551076
0.054222
0.0533108
0.0528805
0.0528812
0.0533172
0.0542274
0.0551101
0.0555072
0.0555061
0.0551096
0.0542236
0.0533101
0.0528804
0.052597
0.0529627
0.0538107
0.0546566
0.0550991
0.0550984
0.0546542
0.0538038
0.0529569
0.0525963
0.0521462
0.0523453
0.0529353
0.0537869
0.0542193
0.0542178
0.0537847
0.0529304
0.052339
0.0521441
0.0519155
0.0518251
0.052229
0.0529323
0.0533071
0.0533075
0.052931
0.052227
0.0518231
0.0519169
0.0515535
0.0518625
0.0521111
0.0525882
0.0528795
0.0528804
0.0525915
0.0521162
0.0518678
0.0515612
0.0521153
0.0527776
0.0529016
0.0532672
0.0535361
0.0535355
0.053268
0.052869
0.0527208
0.0521334
0.0527269
0.0524911
0.0528956
0.0534585
0.0537996
0.0537938
0.0534305
0.0527733
0.0524785
0.0527721
0.0528702
0.0527774
0.0534155
0.0542451
0.0546575
0.0546522
0.0542211
0.0534081
0.0528903
0.0528997
0.053261
0.0534316
0.0542249
0.0550633
0.0555163
0.0555062
0.0550622
0.0542433
0.0534576
0.0532725
0.0535316
0.0537947
0.0546559
0.0555088
0.0559121
0.0559132
0.0555191
0.0546594
0.0537993
0.0535369
0.0535332
0.0537997
0.0546602
0.055519
0.055914
0.0559139
0.055521
0.054661
0.0537992
0.0535365
0.0532696
0.0534594
0.0542471
0.0550651
0.0555091
0.055509
0.0550652
0.0542455
0.0534599
0.0532736
0.0528967
0.0528922
0.0534113
0.0542248
0.0546552
0.0546547
0.054225
0.0534109
0.052892
0.0529001
0.0527653
0.0524767
0.0527728
0.0534309
0.0537951
0.0537962
0.0534319
0.052775
0.05248
0.052772
0.0521258
0.0527158
0.0528627
0.0532629
0.0535338
0.0535354
0.0532679
0.0528705
0.0527229
0.0521341
0.0522558
0.0535949
0.0537038
0.0540137
0.0542634
0.0542642
0.0540164
0.0536751
0.0535458
0.0522713
0.0535461
0.0531962
0.0535134
0.0540334
0.0543633
0.0543583
0.0540072
0.0533929
0.0531947
0.0536008
0.0536704
0.0533916
0.0539644
0.0547624
0.0551742
0.0551694
0.0547401
0.053962
0.0535162
0.05371
0.0540074
0.0540069
0.054742
0.055558
0.0560137
0.0560038
0.0555587
0.0547645
0.0540392
0.0540243
0.0542598
0.0543606
0.0551733
0.056006
0.0564095
0.056411
0.0560178
0.0551788
0.054368
0.0542689
0.0542628
0.0543674
0.0551788
0.0560169
0.0564113
0.0564114
0.0560193
0.05518
0.0543677
0.0542688
0.05402
0.05404
0.0547679
0.0555607
0.056006
0.0560059
0.055561
0.0547661
0.0540407
0.0540258
0.0537075
0.0535173
0.0539649
0.0547435
0.055172
0.0551717
0.0547436
0.0539644
0.0535173
0.0537117
0.053597
0.053193
0.0533928
0.0540082
0.054361
0.0543621
0.0540095
0.053395
0.0531964
0.0536029
0.0522652
0.053539
0.0536693
0.0540135
0.0542664
0.0542682
0.0540193
0.0536784
0.0535491
0.0522741
0.0519964
0.0542788
0.0545078
0.0547891
0.0550212
0.0550204
0.0547868
0.0544741
0.0542259
0.0520092
0.0542237
0.0539205
0.0541617
0.0546393
0.0549549
0.0549474
0.0546053
0.0540301
0.0539149
0.0542801
0.0544709
0.0540328
0.0545364
0.0553038
0.0557126
0.0557053
0.0552763
0.0545301
0.0541571
0.0545097
0.0547802
0.0546068
0.0552807
0.056075
0.0565308
0.0565194
0.0560722
0.0553002
0.0546364
0.0547925
0.0550165
0.0549488
0.0557091
0.0565222
0.0569252
0.0569253
0.0565315
0.0557116
0.0549517
0.0550198
0.0550192
0.0549553
0.0557144
0.0565323
0.0569257
0.0569249
0.0565321
0.0557121
0.0549511
0.0550193
0.0547921
0.0546407
0.0553053
0.0560746
0.0565196
0.0565183
0.0560723
0.0553002
0.0546367
0.0547922
0.0545092
0.0541607
0.0545338
0.055279
0.0557048
0.0557034
0.0552763
0.0545296
0.0541563
0.0545089
0.0542765
0.0539148
0.0540303
0.0546045
0.0549451
0.0549452
0.0546028
0.0540286
0.0539137
0.0542794
0.0520016
0.0542181
0.0544659
0.0547795
0.055016
0.0550171
0.0547841
0.054473
0.0542253
0.0520094
0.0519285
0.0546683
0.0552425
0.0555464
0.0557716
0.0557712
0.055543
0.0552072
0.0546172
0.0519394
0.0546137
0.0546283
0.054815
0.0552508
0.0555529
0.0555451
0.0552151
0.0546798
0.0546258
0.0546755
0.0552015
0.0546817
0.055115
0.0558512
0.0562567
0.0562493
0.0558233
0.0551098
0.0548122
0.0552466
0.0555352
0.055217
0.0558271
0.0565993
0.0570551
0.0570436
0.0565973
0.0558487
0.0552496
0.0555502
0.0557661
0.0555472
0.0562528
0.0570459
0.0574487
0.057449
0.0570563
0.0562564
0.0555513
0.0557707
0.0557695
0.0555543
0.0562586
0.0570561
0.0574488
0.0574485
0.0570566
0.0562567
0.0555507
0.0557704
0.0555494
0.055253
0.0558529
0.0565983
0.0570427
0.0570417
0.0565968
0.0558482
0.0552493
0.05555
0.0552465
0.0548147
0.0551126
0.0558246
0.0562475
0.0562465
0.0558227
0.055109
0.0548111
0.0552461
0.0546731
0.0546253
0.0546794
0.0552136
0.0555424
0.0555426
0.0552129
0.0546785
0.0546248
0.0546752
0.0519334
0.0546101
0.0551998
0.0555365
0.0557677
0.0557686
0.0555405
0.055206
0.054617
0.0519404
0.0543443
0.0546898
0.0558509
0.0562575
0.0564927
0.0564899
0.0562471
0.0558072
0.0546324
0.0543482
0.0546317
0.0552876
0.055462
0.0558591
0.0561458
0.0561363
0.0558172
0.0553177
0.0552816
0.0546917
0.0558061
0.0553228
0.0556853
0.0563896
0.0567892
0.05678
0.0563582
0.055678
0.0554543
0.0558503
0.0562436
0.0558206
0.0563634
0.0571115
0.0575645
0.0575524
0.0571077
0.0563843
0.0558533
0.0562564
0.0564864
0.0561379
0.0567833
0.0575547
0.0579556
0.0579552
0.0575646
0.0567869
0.0561411
0.056489
0.0564888
0.0561447
0.0567893
0.0575648
0.0579553
0.0579548
0.0575648
0.0567872
0.056141
0.0564887
0.0562557
0.0558577
0.0563889
0.0571093
0.057551
0.0575497
0.0571075
0.0563846
0.055854
0.0562557
0.0558492
0.0554583
0.0556815
0.0563601
0.0567782
0.0567771
0.0563581
0.0556782
0.0554551
0.0558492
0.0546874
0.0552821
0.0553184
0.0558164
0.0561329
0.0561331
0.0558158
0.0553181
0.0552824
0.0546904
0.0543369
0.0546268
0.0558006
0.0562406
0.0564849
0.0564859
0.0562454
0.0558078
0.0546336
0.0543472
0.0635573
0.0544243
0.0562407
0.0568678
0.0571483
0.0571466
0.0568585
0.0561987
0.0543714
0.0635708
0.0543693
0.0558499
0.05609
0.0564588
0.0567331
0.0567246
0.0564187
0.0559473
0.0558507
0.0544319
0.056195
0.0559481
0.0562495
0.0569218
0.0573155
0.057307
0.0568922
0.0562462
0.0560887
0.0562448
0.0568538
0.0564201
0.0568948
0.0576174
0.0580677
0.0580561
0.057616
0.0569198
0.056458
0.0568702
0.0571427
0.0567261
0.0573093
0.0580573
0.058456
0.0584562
0.0580692
0.0573156
0.0567324
0.057148
0.057146
0.056734
0.0573162
0.0580679
0.0584555
0.0584555
0.0580692
0.0573158
0.0567324
0.0571483
0.0568686
0.0564606
0.0569228
0.0576158
0.0580536
0.0580528
0.0576152
0.0569198
0.0564587
0.0568709
0.0562438
0.0560907
0.056248
0.0568925
0.0573043
0.0573038
0.0568917
0.0562464
0.0560895
0.0562456
0.0544286
0.0558499
0.0559466
0.0564171
0.0567217
0.0567223
0.0564181
0.0559481
0.0558523
0.0544327
0.0635512
0.0543658
0.0561929
0.0568539
0.0571446
0.057146
0.0568596
0.0562013
0.0543744
0.0635728
0.0429243
0.0544948
0.0563816
0.0573431
0.057711
0.0577068
0.0573267
0.0563313
0.054435
0.0429631
0.0544375
0.0562819
0.0566984
0.0570562
0.0573168
0.057306
0.0570083
0.0565441
0.0562753
0.0544925
0.0563333
0.0565507
0.0568101
0.0574494
0.0578333
0.0578226
0.0574145
0.0568016
0.0566884
0.0563777
0.057327
0.0570134
0.0574209
0.0581147
0.0585588
0.0585456
0.0581096
0.057442
0.0570473
0.0573374
0.0577061
0.0573094
0.0578267
0.0585486
0.058942
0.0589408
0.0585575
0.0578291
0.0573101
0.0577046
0.0577087
0.0573175
0.0578341
0.0585591
0.058941
0.0589398
0.0585571
0.057829
0.0573101
0.0577047
0.0573409
0.0570559
0.057449
0.058112
0.0585431
0.0585408
0.0581077
0.0574413
0.0570476
0.0573374
0.0563799
0.0566959
0.056807
0.0574166
0.0578191
0.0578172
0.0574122
0.0568002
0.0566885
0.0563773
0.0544905
0.0562785
0.0565461
0.0570075
0.0573008
0.0573
0.0570047
0.0565425
0.0562749
0.0544913
0.0429588
0.0544293
0.0563255
0.0573203
0.0577005
0.0577012
0.0573244
0.0563315
0.0544359
0.0429637
0.0243393
0.0564661
0.0563117
0.0576167
0.0581204
0.0581174
0.0576019
0.0562639
0.0564128
0.0243525
0.0564115
0.0565446
0.0572491
0.0576321
0.0578874
0.0578778
0.0575869
0.0570972
0.0565429
0.0564696
0.0562654
0.0571014
0.0573601
0.0579678
0.0583426
0.0583331
0.0579353
0.0573555
0.0572461
0.0563121
0.0576049
0.0575929
0.0579399
0.0586034
0.0590417
0.0590294
0.0586011
0.0579651
0.0576304
0.0576166
0.0581228
0.0578853
0.0583381
0.0590319
0.0594202
0.05942
0.0590432
0.0583429
0.0578872
0.0581204
0.0581276
0.0578956
0.0583472
0.0590435
0.05942
0.0594194
0.0590432
0.0583431
0.0578875
0.0581211
0.0576254
0.0576415
0.0579725
0.0586036
0.0590274
0.059026
0.0586002
0.057965
0.0576312
0.0576177
0.0563206
0.0572571
0.0573627
0.0579384
0.0583313
0.0583297
0.0579343
0.0573552
0.0572469
0.0563135
0.0564731
0.0565506
0.0571019
0.0575886
0.0578761
0.0578751
0.0575855
0.0570967
0.0565435
0.0564701
0.0243532
0.0564092
0.0562634
0.0576013
0.0581171
0.0581168
0.057602
0.0562643
0.0564144
0.0243527
0.0161983
0.0623945
0.056381
0.0577206
0.0583711
0.0583686
0.057707
0.0563375
0.0623351
0.0162049
0.0623142
0.0567154
0.0577159
0.058182
0.0584421
0.0584341
0.0581401
0.0575703
0.0567247
0.0623892
0.0563268
0.0575596
0.0578879
0.0584718
0.0588389
0.0588314
0.0584458
0.0578961
0.0577225
0.0563841
0.0576992
0.0581296
0.0584372
0.0590732
0.0595075
0.0594982
0.0590801
0.058478
0.058187
0.0577241
0.0583633
0.0584252
0.0588239
0.0594929
0.0598785
0.0598815
0.0595146
0.0588456
0.0584474
0.0583748
0.0583683
0.058436
0.0588336
0.0595047
0.0598782
0.0598811
0.0595148
0.0588461
0.0584482
0.0583756
0.0577207
0.0581801
0.0584703
0.0590735
0.0594928
0.0594949
0.0590799
0.0584792
0.0581893
0.0577258
0.0563805
0.0577186
0.0578903
0.0584409
0.0588271
0.0588287
0.058446
0.0578974
0.0577255
0.0563872
0.0623716
0.05672
0.0575646
0.0581352
0.05843
0.0584317
0.0581398
0.0575712
0.0567268
0.0623902
0.0162052
0.0623256
0.056334
0.0577034
0.0583657
0.0583666
0.0577063
0.0563364
0.0623342
0.016205
0.0120643
0.0518039
0.0574789
0.0578177
0.0585139
0.0585143
0.0578112
0.057451
0.0517729
0.0120678
0.0517649
0.0570946
0.0580848
0.0587019
0.0589825
0.0589746
0.0586619
0.0579419
0.0571125
0.0518262
0.0574222
0.0579247
0.0584151
0.0589818
0.0593399
0.059333
0.0589575
0.0584272
0.0580977
0.0574904
0.0577908
0.058647
0.0589458
0.0595523
0.059979
0.05997
0.0595612
0.0589914
0.0587124
0.0578278
0.0584996
0.0589626
0.0593237
0.0599634
0.0603421
0.0603458
0.059987
0.0593483
0.0589918
0.0585228
0.0585052
0.0589734
0.0593325
0.0599745
0.0603409
0.0603442
0.0599864
0.0593482
0.0589919
0.0585239
0.0578127
0.0586959
0.0589781
0.0595497
0.0599613
0.059964
0.0595587
0.0589904
0.0587129
0.05783
0.0574747
0.0580819
0.0584132
0.0589463
0.0593237
0.0593266
0.0589548
0.0584262
0.0580985
0.0574961
0.051833
0.0570948
0.0579273
0.0586501
0.0589668
0.0589701
0.0586596
0.0579412
0.0571128
0.0518229
0.0120678
0.0517846
0.0574314
0.0577996
0.0585096
0.0585129
0.0578096
0.0574453
0.0517705
0.0120677
0.00979208
0.0317956
0.0610997
0.0583962
0.0587786
0.0587747
0.0583789
0.0610542
0.0317823
0.00979403
0.0317791
0.0583556
0.0583551
0.0591734
0.0594909
0.0594777
0.0591178
0.0581905
0.0583483
0.0318122
0.0610365
0.0581924
0.0589199
0.0594858
0.0598322
0.0598204
0.0594484
0.0589149
0.058346
0.0610767
0.0583699
0.0591183
0.0594506
0.0600265
0.0604401
0.0604266
0.0600233
0.0594799
0.0591649
0.058387
0.0587687
0.0594755
0.0598198
0.0604266
0.0607931
0.0607926
0.060439
0.0598281
0.0594845
0.0587729
0.0587719
0.0594844
0.0598271
0.0604363
0.0607901
0.0607896
0.0604367
0.0598263
0.0594827
0.0587719
0.0583838
0.0591634
0.0594784
0.0600183
0.0604177
0.0604157
0.0600161
0.0594739
0.0591599
0.0583841
0.0610715
0.0583414
0.0589092
0.0594409
0.0598077
0.0598064
0.0594382
0.0589056
0.0583386
0.0610752
0.0318168
0.058338
0.0581814
0.0591068
0.0594629
0.0594625
0.0591051
0.0581792
0.0583355
0.0318136
0.00979419
0.0317927
0.0610233
0.0583594
0.0587599
0.0587612
0.0583651
0.0610295
0.0317881
0.00979419
0.00848791
0.0214442
0.0622168
0.0603264
0.0597026
0.059698
0.0603079
0.0621778
0.021439
0.00848892
0.0214361
0.0612999
0.0585749
0.0595794
0.059962
0.0599477
0.0595202
0.0584041
0.0612858
0.0214542
0.0621622
0.0584125
0.0593845
0.059987
0.0603306
0.0603175
0.0599455
0.0593737
0.0585594
0.0622222
0.0603034
0.0595277
0.0599535
0.0605086
0.0609127
0.060898
0.0605019
0.0599778
0.0595686
0.0603122
0.0596973
0.0599533
0.0603228
0.0609015
0.0612586
0.0612569
0.0609109
0.0603258
0.0599551
0.0596946
0.0597016
0.0599642
0.0603322
0.0609129
0.061257
0.0612556
0.0609097
0.0603249
0.0599544
0.0596937
0.0603209
0.0595798
0.0599869
0.0605047
0.0608943
0.0608908
0.0604987
0.0599751
0.0595659
0.0603117
0.0622376
0.0585707
0.0593812
0.0599479
0.0603119
0.0603094
0.0599407
0.059369
0.0585564
0.0622243
0.0214548
0.0612978
0.0584094
0.0595202
0.059941
0.0599387
0.0595135
0.0583981
0.0612816
0.0214549
0.00848903
0.0214427
0.0621788
0.0603004
0.0596919
0.0596904
0.0602974
0.0621905
0.0214424
0.00848901
0.00772178
0.0159098
0.0443437
0.0637146
0.0620849
0.0620774
0.0636939
0.0443236
0.0159085
0.00772232
0.0159063
0.0637137
0.0589362
0.0599339
0.060387
0.0603715
0.0598707
0.058761
0.0637113
0.015916
0.0443141
0.0587735
0.0597817
0.0604706
0.0608191
0.0608042
0.0604257
0.0597673
0.0589141
0.0443785
0.0636914
0.0598828
0.060438
0.0609822
0.0613759
0.0613607
0.0609736
0.0604603
0.0599221
0.063702
0.0620791
0.0603814
0.0608134
0.0613661
0.0617127
0.0617103
0.0613754
0.0608168
0.0603823
0.0620758
0.0620826
0.0603929
0.0608242
0.0613788
0.0617121
0.0617113
0.0613761
0.0608179
0.0603845
0.062077
0.0637087
0.0599387
0.0604743
0.0609816
0.0613614
0.061358
0.0609769
0.060465
0.0599268
0.0637074
0.0443702
0.0589355
0.0597831
0.0604359
0.0608061
0.0608042
0.0604304
0.0597735
0.0589243
0.0443642
0.0159153
0.063726
0.0587745
0.0598789
0.0603721
0.0603706
0.059875
0.0587674
0.0637254
0.0159153
0.00772237
0.0159096
0.0443236
0.0636938
0.0620768
0.0620756
0.0636947
0.0443396
0.0159096
0.0077223
0.00726935
0.012732
0.0296181
0.0581314
0.0647916
0.0647883
0.0581216
0.0296062
0.0127318
0.0072695
0.0127306
0.0524126
0.0597344
0.0602782
0.0607727
0.0607597
0.0602226
0.0595746
0.0524478
0.0127353
0.0296026
0.0595759
0.0600706
0.0609128
0.0612832
0.0612705
0.0608743
0.0600665
0.0597267
0.0296355
0.058112
0.0602286
0.0608801
0.0614331
0.0618201
0.0618071
0.0614312
0.0609125
0.0602793
0.0581594
0.0647844
0.0607671
0.0612765
0.0618092
0.0621463
0.062146
0.0618247
0.0612886
0.0607775
0.0647995
0.0647899
0.0607793
0.0612882
0.0618226
0.0621459
0.0621471
0.0618252
0.0612892
0.0607791
0.064799
0.058144
0.0602862
0.0609187
0.0614344
0.0618062
0.0618047
0.0614343
0.0609166
0.0602824
0.0581458
0.0296315
0.0597387
0.0600757
0.0608809
0.061272
0.0612716
0.0608793
0.0600725
0.0597356
0.0296263
0.012735
0.0524373
0.0595799
0.0602278
0.0607611
0.0607608
0.0602278
0.0595792
0.0524419
0.0127347
0.00726965
0.0127325
0.0296069
0.0581179
0.0647887
0.06479
0.0581312
0.0296133
0.0127324
0.00726952
0.00700761
0.0108289
0.0213827
0.0412102
0.0562308
0.0562259
0.0411971
0.0213757
0.0108292
0.00700758
0.0108286
0.0367976
0.0613676
0.0607682
0.0611921
0.0611793
0.0607134
0.0612138
0.0368121
0.0108306
0.0213746
0.0612122
0.0602458
0.0613069
0.0617179
0.0617053
0.0612699
0.0602466
0.0613656
0.021391
0.0411965
0.0607176
0.0612732
0.0618617
0.0622436
0.0622311
0.0618621
0.0613104
0.0607735
0.0412255
0.0562268
0.0611852
0.0617095
0.0622317
0.0625587
0.0625587
0.0622492
0.0617253
0.0611991
0.0562423
0.0562351
0.0611968
0.0617211
0.0622445
0.0625573
0.0625588
0.0622484
0.0617243
0.0611989
0.056237
0.041221
0.0607731
0.06131
0.0618609
0.0622268
0.0622257
0.0618617
0.0613103
0.0607713
0.041214
0.0213898
0.061368
0.0602482
0.0612713
0.0617029
0.0617028
0.0612704
0.0602471
0.0613667
0.0213867
0.0108306
0.0368113
0.0612105
0.0607134
0.0611764
0.0611761
0.0607137
0.061211
0.0368114
0.0108304
0.00700778
0.0108297
0.0213771
0.0411981
0.0562242
0.0562283
0.0412073
0.0213801
0.0108297
0.00700766
0.00686672
0.00966098
0.0165752
0.0291067
0.0401469
0.0401432
0.0290984
0.0165715
0.00966153
0.00686663
0.00966119
0.0266025
0.0633931
0.0616
0.0617948
0.0617823
0.061546
0.063247
0.0266096
0.00966188
0.0165708
0.0632467
0.0603245
0.0616458
0.0621239
0.0621115
0.061609
0.0603273
0.0634019
0.0165795
0.0290981
0.0615519
0.0616114
0.0622741
0.0626572
0.0626449
0.0622756
0.0616511
0.061609
0.0291142
0.0401444
0.0617899
0.0621155
0.0626451
0.0629655
0.0629658
0.0626634
0.0621325
0.0618045
0.0401543
0.040151
0.0618018
0.0621275
0.0626579
0.0629637
0.0629652
0.062662
0.0621308
0.0618036
0.0401509
0.0291126
0.0616072
0.0616489
0.0622728
0.0626389
0.0626381
0.0622735
0.0616489
0.0616048
0.0291083
0.016579
0.0633994
0.0603269
0.0616087
0.0621073
0.0621072
0.0616074
0.0603255
0.063398
0.0165773
0.00966195
0.02661
0.0632447
0.0615465
0.0617792
0.0617785
0.0615455
0.0632447
0.0266101
0.00966177
0.00686681
0.00966185
0.0165724
0.0290997
0.0401444
0.0401474
0.0291049
0.0165741
0.00966185
0.00686671
0.00680529
0.00893513
0.0136359
0.0218522
0.0290071
0.0290048
0.0218476
0.0136344
0.0089358
0.00680526
0.0089356
0.0203349
0.0610017
0.062934
0.0627648
0.0627515
0.0628763
0.0608573
0.0203387
0.00893563
0.013634
0.0608592
0.0603724
0.0619234
0.0624978
0.0624849
0.0618854
0.0603751
0.0610169
0.0136385
0.0218476
0.0628795
0.0618859
0.0626712
0.0630647
0.0630522
0.0626732
0.0619276
0.0629403
0.0218566
0.0290062
0.0627532
0.0624853
0.0630508
0.0633717
0.0633723
0.0630706
0.0625052
0.0627726
0.0290113
0.0290103
0.0627641
0.0624969
0.0630629
0.0633693
0.0633711
0.0630689
0.0625034
0.0627717
0.0290093
0.0218562
0.0629319
0.0619217
0.0626676
0.063044
0.063044
0.0626699
0.0619249
0.0629358
0.0218531
0.0136383
0.0610085
0.060371
0.0618815
0.0624776
0.0624782
0.0618822
0.0603726
0.0610081
0.0136371
0.00893576
0.0203395
0.0608549
0.0628743
0.0627453
0.062745
0.0628748
0.0608607
0.020339
0.00893557
0.00680536
0.00893604
0.0136349
0.0218483
0.0290054
0.0290072
0.0218512
0.0136359
0.00893601
0.00680532
0.00679762
0.00848403
0.0117883
0.0173729
0.0221475
0.0221462
0.0173703
0.0117878
0.00848472
0.00679762
0.00848458
0.0163701
0.0493926
0.0643249
0.0642006
0.0641871
0.0642688
0.0493008
0.0163723
0.0084843
0.0117875
0.0493006
0.0605207
0.0621349
0.0628308
0.0628176
0.0620957
0.0605222
0.049409
0.0117898
0.0173701
0.0642746
0.062096
0.0630539