/*--------------------------------*- C++ -*----------------------------------*\
| =========                 |                                                 |
| \\      /  F ield         | OpenFOAM: The Open Source CFD Toolbox           |
|  \\    /   O peration     | Version:  2406                                  |
|   \\  /    A nd           | Website:  www.openfoam.com                      |
|    \\/     M anipulation  |                                                 |
\*---------------------------------------------------------------------------*/
FoamFile
{
    version     2.0;
    format      ascii;
    arch        "LSB;label=32;scalar=64";
    class       volScalarField;
    location    "300";
    object      turbulenceProperties:k;
}
// * * * * * * * * * * * * * * * * * * * * * * * * * * * * * * * * * * * * * //

dimensions      [0 2 -2 0 0 0 0];

internalField   nonuniform List<scalar> 
25000
(
3.73131e-05
3.55768e-05
3.28711e-05
3.22585e-05
3.1967e-05
3.19698e-05
3.22683e-05
3.28433e-05
3.58708e-05
3.75481e-05
3.55831e-05
3.48565e-05
3.18492e-05
3.02712e-05
2.95136e-05
2.9514e-05
3.02745e-05
3.18532e-05
3.4811e-05
3.58578e-05
3.28549e-05
3.1856e-05
2.95578e-05
2.81628e-05
2.74862e-05
2.74871e-05
2.81652e-05
2.95523e-05
3.18391e-05
3.2839e-05
3.22405e-05
3.02619e-05
2.81595e-05
2.6796e-05
2.61204e-05
2.61221e-05
2.67991e-05
2.81644e-05
3.02749e-05
3.22659e-05
3.19495e-05
2.94982e-05
2.74793e-05
2.61183e-05
2.54432e-05
2.54448e-05
2.61217e-05
2.74882e-05
2.95161e-05
3.19695e-05
3.19561e-05
2.95005e-05
2.74774e-05
2.6116e-05
2.54425e-05
2.5444e-05
2.61212e-05
2.74879e-05
2.95157e-05
3.19696e-05
3.22576e-05
3.02593e-05
2.81536e-05
2.67918e-05
2.61186e-05
2.61201e-05
2.67974e-05
2.81631e-05
3.02742e-05
3.2266e-05
3.28373e-05
3.18255e-05
2.95413e-05
2.81579e-05
2.74827e-05
2.74844e-05
2.81634e-05
2.95509e-05
3.18383e-05
3.28399e-05
3.58636e-05
3.4799e-05
3.18428e-05
3.02673e-05
2.95102e-05
2.9512e-05
3.02723e-05
3.18517e-05
3.48101e-05
3.58601e-05
3.75413e-05
3.58551e-05
3.28301e-05
3.22583e-05
3.19651e-05
3.19678e-05
3.2267e-05
3.28433e-05
3.58707e-05
3.75484e-05
5.29189e-05
5.05128e-05
4.65955e-05
4.60577e-05
4.56947e-05
4.57032e-05
4.60927e-05
4.68337e-05
5.01621e-05
5.16721e-05
5.05737e-05
4.73829e-05
4.55363e-05
4.47471e-05
4.42324e-05
4.4242e-05
4.47775e-05
4.56569e-05
4.75625e-05
5.01517e-05
4.6631e-05
4.56049e-05
4.39423e-05
4.32682e-05
4.29107e-05
4.29178e-05
4.32981e-05
4.39855e-05
4.5605e-05
4.68416e-05
4.60672e-05
4.4755e-05
4.32768e-05
4.24853e-05
4.20836e-05
4.20935e-05
4.25016e-05
4.32947e-05
4.47815e-05
4.61071e-05
4.56995e-05
4.42378e-05
4.29111e-05
4.20873e-05
4.16998e-05
4.17032e-05
4.20937e-05
4.29261e-05
4.42542e-05
4.5722e-05
4.57044e-05
4.42424e-05
4.29174e-05
4.20883e-05
4.17026e-05
4.17051e-05
4.20945e-05
4.29265e-05
4.42549e-05
4.57217e-05
4.60926e-05
4.47754e-05
4.329e-05
4.25005e-05
4.20972e-05
4.20987e-05
4.25047e-05
4.32968e-05
4.47829e-05
4.61064e-05
4.68298e-05
4.56033e-05
4.39848e-05
4.33007e-05
4.29257e-05
4.29267e-05
4.33035e-05
4.3989e-05
4.56083e-05
4.68412e-05
5.01379e-05
4.75622e-05
4.56574e-05
4.47826e-05
4.4253e-05
4.42539e-05
4.47856e-05
4.56618e-05
4.75659e-05
5.0149e-05
5.16744e-05
5.01734e-05
4.68414e-05
4.61041e-05
4.572e-05
4.5721e-05
4.61067e-05
4.68454e-05
5.01737e-05
5.16788e-05
4.81399e-05
4.43762e-05
4.23588e-05
4.13585e-05
4.08453e-05
4.08454e-05
4.13554e-05
4.24899e-05
4.4473e-05
4.75597e-05
4.44262e-05
4.13921e-05
4.0694e-05
4.01154e-05
3.96917e-05
3.96963e-05
4.01312e-05
4.08115e-05
4.15595e-05
4.44481e-05
4.23713e-05
4.07649e-05
3.95925e-05
3.89883e-05
3.86089e-05
3.86139e-05
3.90156e-05
3.96328e-05
4.07403e-05
4.24881e-05
4.1355e-05
4.01124e-05
3.89944e-05
3.834e-05
3.79437e-05
3.7954e-05
3.83538e-05
3.90079e-05
4.01293e-05
4.13622e-05
4.08493e-05
3.96903e-05
3.86043e-05
3.79472e-05
3.76106e-05
3.76132e-05
3.79506e-05
3.86182e-05
3.97015e-05
4.08534e-05
4.085e-05
3.96941e-05
3.86105e-05
3.79455e-05
3.7612e-05
3.76143e-05
3.79509e-05
3.86182e-05
3.97019e-05
4.08533e-05
4.13612e-05
4.01279e-05
3.90036e-05
3.8352e-05
3.79554e-05
3.79567e-05
3.83553e-05
3.9009e-05
4.01302e-05
4.13619e-05
4.24883e-05
4.07434e-05
3.9633e-05
3.90171e-05
3.86184e-05
3.86189e-05
3.90186e-05
3.96348e-05
4.07428e-05
4.24887e-05
4.44453e-05
4.1564e-05
4.08139e-05
4.01356e-05
3.9702e-05
3.97021e-05
4.01363e-05
4.08148e-05
4.15617e-05
4.44473e-05
4.75601e-05
4.44803e-05
4.24937e-05
4.13618e-05
4.08531e-05
4.08534e-05
4.13626e-05
4.24963e-05
4.44797e-05
4.75633e-05
3.6404e-05
3.20271e-05
3.1211e-05
3.01236e-05
2.96876e-05
2.96881e-05
3.01173e-05
3.13243e-05
3.2169e-05
3.60946e-05
3.20674e-05
2.96331e-05
2.93834e-05
2.87652e-05
2.84326e-05
2.84348e-05
2.87732e-05
2.94818e-05
2.97592e-05
3.21338e-05
3.12141e-05
2.94449e-05
2.84818e-05
2.77712e-05
2.73597e-05
2.73632e-05
2.77929e-05
2.85154e-05
2.94155e-05
3.13131e-05
3.01127e-05
2.87581e-05
2.77736e-05
2.71134e-05
2.6702e-05
2.67103e-05
2.7124e-05
2.77835e-05
2.87667e-05
3.01158e-05
2.96873e-05
2.84261e-05
2.73514e-05
2.67031e-05
2.6349e-05
2.63508e-05
2.67048e-05
2.73622e-05
2.84335e-05
2.96884e-05
2.96906e-05
2.84282e-05
2.73552e-05
2.66995e-05
2.63484e-05
2.63502e-05
2.67039e-05
2.73613e-05
2.84331e-05
2.96883e-05
3.0122e-05
2.87642e-05
2.77768e-05
2.71188e-05
2.6707e-05
2.67085e-05
2.7122e-05
2.7782e-05
2.87654e-05
3.01152e-05
3.13222e-05
2.94145e-05
2.8511e-05
2.77886e-05
2.73605e-05
2.73613e-05
2.77908e-05
2.85139e-05
2.94146e-05
3.13131e-05
3.21453e-05
2.9759e-05
2.94791e-05
2.87711e-05
2.84324e-05
2.84328e-05
2.87729e-05
2.94816e-05
2.97588e-05
3.21362e-05
3.61001e-05
3.2163e-05
3.13197e-05
3.01156e-05
2.96881e-05
2.96885e-05
3.01163e-05
3.13222e-05
3.21657e-05
3.60941e-05
2.76906e-05
2.38571e-05
2.33495e-05
2.22965e-05
2.19127e-05
2.19092e-05
2.2276e-05
2.34141e-05
2.39814e-05
2.75466e-05
2.38835e-05
2.19023e-05
2.15061e-05
2.07347e-05
2.04249e-05
2.04234e-05
2.0731e-05
2.15764e-05
2.19835e-05
2.39443e-05
2.33426e-05
2.15531e-05
2.05601e-05
1.9661e-05
1.921e-05
1.92103e-05
1.96728e-05
2.05823e-05
2.15165e-05
2.33964e-05
2.22768e-05
2.0721e-05
1.96589e-05
1.88618e-05
1.84087e-05
1.84137e-05
1.88656e-05
1.96614e-05
2.07182e-05
2.22662e-05
2.19055e-05
2.04119e-05
1.91977e-05
1.84074e-05
1.79772e-05
1.7977e-05
1.84057e-05
1.92027e-05
2.04117e-05
2.18979e-05
2.1906e-05
2.04109e-05
1.91992e-05
1.84024e-05
1.79746e-05
1.79753e-05
1.84037e-05
1.92012e-05
2.04109e-05
2.18969e-05
2.22749e-05
2.07179e-05
1.96559e-05
1.88602e-05
1.84073e-05
1.84078e-05
1.88613e-05
1.96584e-05
2.07155e-05
2.22641e-05
2.34048e-05
2.15157e-05
2.05773e-05
1.96662e-05
1.92022e-05
1.92026e-05
1.96666e-05
2.0578e-05
2.15136e-05
2.33943e-05
2.39544e-05
2.19828e-05
2.15722e-05
2.07244e-05
2.04128e-05
2.04128e-05
2.0725e-05
2.15727e-05
2.19807e-05
2.39448e-05
2.75475e-05
2.39701e-05
2.34041e-05
2.22671e-05
2.18987e-05
2.18995e-05
2.22684e-05
2.34076e-05
2.3974e-05
2.75442e-05
2.2715e-05
1.97885e-05
1.93056e-05
1.84188e-05
1.80874e-05
1.80818e-05
1.83899e-05
1.93332e-05
1.98718e-05
2.26184e-05
1.98093e-05
1.83632e-05
1.77958e-05
1.7004e-05
1.67113e-05
1.67093e-05
1.69974e-05
1.78493e-05
1.84194e-05
1.98416e-05
1.92902e-05
1.78354e-05
1.68971e-05
1.59756e-05
1.55535e-05
1.55528e-05
1.59831e-05
1.69115e-05
1.77923e-05
1.93166e-05
1.83949e-05
1.69897e-05
1.59728e-05
1.51465e-05
1.47166e-05
1.47205e-05
1.51475e-05
1.59719e-05
1.69834e-05
1.83793e-05
1.80758e-05
1.66977e-05
1.55414e-05
1.47152e-05
1.428e-05
1.42794e-05
1.47129e-05
1.55451e-05
1.66964e-05
1.80668e-05
1.80749e-05
1.66963e-05
1.55422e-05
1.47101e-05
1.42773e-05
1.42781e-05
1.47109e-05
1.55437e-05
1.6696e-05
1.80657e-05
1.83876e-05
1.69843e-05
1.59679e-05
1.51435e-05
1.47148e-05
1.47152e-05
1.51443e-05
1.59699e-05
1.69813e-05
1.83772e-05
1.93249e-05
1.7794e-05
1.69092e-05
1.59784e-05
1.55463e-05
1.55467e-05
1.5978e-05
1.69085e-05
1.77904e-05
1.93146e-05
1.98509e-05
1.84225e-05
1.78485e-05
1.69933e-05
1.67002e-05
1.66994e-05
1.6992e-05
1.78458e-05
1.84166e-05
1.98411e-05
2.26229e-05
1.98702e-05
1.93307e-05
1.83852e-05
1.80713e-05
1.80712e-05
1.83826e-05
1.93276e-05
1.98663e-05
2.26157e-05
2.03476e-05
1.83603e-05
1.78801e-05
1.71166e-05
1.68214e-05
1.68185e-05
1.70963e-05
1.79046e-05
1.84357e-05
2.02829e-05
1.83875e-05
1.74066e-05
1.67422e-05
1.6006e-05
1.57309e-05
1.57324e-05
1.60097e-05
1.68043e-05
1.74639e-05
1.84129e-05
1.78719e-05
1.67876e-05
1.59648e-05
1.51324e-05
1.47772e-05
1.47784e-05
1.51447e-05
1.59828e-05
1.67488e-05
1.7895e-05
1.71034e-05
1.60012e-05
1.51337e-05
1.43947e-05
1.40406e-05
1.40459e-05
1.43988e-05
1.51369e-05
1.60024e-05
1.70964e-05
1.68166e-05
1.57242e-05
1.4769e-05
1.40405e-05
1.36813e-05
1.36817e-05
1.40412e-05
1.47778e-05
1.57309e-05
1.68163e-05
1.68153e-05
1.57228e-05
1.47697e-05
1.40358e-05
1.36795e-05
1.36814e-05
1.40398e-05
1.47766e-05
1.5731e-05
1.68153e-05
1.70956e-05
1.59954e-05
1.51281e-05
1.43934e-05
1.40416e-05
1.40433e-05
1.43979e-05
1.51367e-05
1.60012e-05
1.70943e-05
1.7895e-05
1.67437e-05
1.59768e-05
1.51398e-05
1.47754e-05
1.47775e-05
1.51435e-05
1.59829e-05
1.67491e-05
1.7893e-05
1.84151e-05
1.74608e-05
1.68003e-05
1.60067e-05
1.57292e-05
1.57298e-05
1.60101e-05
1.68048e-05
1.74636e-05
1.84111e-05
2.02937e-05
1.84391e-05
1.79061e-05
1.70974e-05
1.68157e-05
1.6816e-05
1.70957e-05
1.79039e-05
1.84349e-05
2.02793e-05
1.95674e-05
1.82852e-05
1.7792e-05
1.71313e-05
1.68583e-05
1.68563e-05
1.71162e-05
1.78144e-05
1.83522e-05
1.95335e-05
1.83091e-05
1.76112e-05
1.69272e-05
1.62712e-05
1.6004e-05
1.60055e-05
1.62764e-05
1.69897e-05
1.76537e-05
1.83245e-05
1.77877e-05
1.69769e-05
1.62523e-05
1.55092e-05
1.52016e-05
1.52026e-05
1.55211e-05
1.62663e-05
1.693e-05
1.78016e-05
1.71213e-05
1.62689e-05
1.55125e-05
1.48495e-05
1.45474e-05
1.4553e-05
1.48526e-05
1.55127e-05
1.62683e-05
1.71162e-05
1.68529e-05
1.59973e-05
1.51946e-05
1.45484e-05
1.42513e-05
1.42512e-05
1.45477e-05
1.52021e-05
1.60042e-05
1.68547e-05
1.6851e-05
1.59952e-05
1.51946e-05
1.45434e-05
1.42496e-05
1.42513e-05
1.45464e-05
1.5201e-05
1.60046e-05
1.6854e-05
1.71124e-05
1.62606e-05
1.55048e-05
1.48485e-05
1.45498e-05
1.45508e-05
1.48521e-05
1.55129e-05
1.62678e-05
1.71146e-05
1.77988e-05
1.69249e-05
1.62613e-05
1.55182e-05
1.52011e-05
1.52028e-05
1.55208e-05
1.6267e-05
1.69316e-05
1.78003e-05
1.83238e-05
1.76512e-05
1.69876e-05
1.62758e-05
1.60041e-05
1.60043e-05
1.6278e-05
1.69914e-05
1.76545e-05
1.83229e-05
1.95369e-05
1.83522e-05
1.78142e-05
1.71173e-05
1.68544e-05
1.68549e-05
1.71168e-05
1.7814e-05
1.83512e-05
1.95296e-05
1.92401e-05
1.83853e-05
1.79175e-05
1.7359e-05
1.71063e-05
1.71049e-05
1.73487e-05
1.79382e-05
1.8443e-05
1.92167e-05
1.84138e-05
1.78926e-05
1.72642e-05
1.66913e-05
1.64318e-05
1.64335e-05
1.66994e-05
1.73302e-05
1.79224e-05
1.84139e-05
1.79221e-05
1.73242e-05
1.66785e-05
1.60054e-05
1.57245e-05
1.57255e-05
1.60167e-05
1.66871e-05
1.72664e-05
1.79237e-05
1.73575e-05
1.66996e-05
1.6014e-05
1.54016e-05
1.51237e-05
1.51287e-05
1.54018e-05
1.6007e-05
1.66899e-05
1.73483e-05
1.71075e-05
1.6434e-05
1.57236e-05
1.51273e-05
1.48645e-05
1.48634e-05
1.51223e-05
1.57236e-05
1.64321e-05
1.71034e-05
1.71064e-05
1.64322e-05
1.57231e-05
1.51222e-05
1.48629e-05
1.48632e-05
1.51208e-05
1.57223e-05
1.64321e-05
1.7103e-05
1.73513e-05
1.66905e-05
1.60056e-05
1.54011e-05
1.51268e-05
1.51263e-05
1.54005e-05
1.60061e-05
1.66882e-05
1.73468e-05
1.79279e-05
1.72682e-05
1.66876e-05
1.60167e-05
1.57248e-05
1.57249e-05
1.60152e-05
1.66861e-05
1.72661e-05
1.79229e-05
1.84205e-05
1.79265e-05
1.73332e-05
1.67019e-05
1.64336e-05
1.64324e-05
1.67e-05
1.73301e-05
1.79215e-05
1.84129e-05
1.92209e-05
1.84444e-05
1.79413e-05
1.73525e-05
1.71056e-05
1.71047e-05
1.73492e-05
1.79368e-05
1.84412e-05
1.9215e-05
1.88607e-05
1.82573e-05
1.78501e-05
1.73828e-05
1.71478e-05
1.71457e-05
1.73733e-05
1.78666e-05
1.82996e-05
1.88394e-05
1.82811e-05
1.79051e-05
1.73651e-05
1.68636e-05
1.66142e-05
1.66158e-05
1.68727e-05
1.74329e-05
1.79234e-05
1.82696e-05
1.78605e-05
1.74305e-05
1.68524e-05
1.62369e-05
1.59728e-05
1.59738e-05
1.62482e-05
1.68586e-05
1.73657e-05
1.78517e-05
1.73846e-05
1.68742e-05
1.62465e-05
1.56775e-05
1.54129e-05
1.5418e-05
1.5677e-05
1.62371e-05
1.68607e-05
1.73728e-05
1.71514e-05
1.66163e-05
1.59718e-05
1.54166e-05
1.5176e-05
1.51747e-05
1.54108e-05
1.59707e-05
1.66124e-05
1.7144e-05
1.71501e-05
1.66138e-05
1.59707e-05
1.5411e-05
1.51743e-05
1.51745e-05
1.54094e-05
1.59694e-05
1.66125e-05
1.71435e-05
1.73779e-05
1.68623e-05
1.62357e-05
1.56763e-05
1.5416e-05
1.54155e-05
1.56756e-05
1.62362e-05
1.68591e-05
1.73705e-05
1.78562e-05
1.73682e-05
1.6859e-05
1.62479e-05
1.59727e-05
1.59728e-05
1.62464e-05
1.68573e-05
1.73652e-05
1.78495e-05
1.82749e-05
1.79282e-05
1.7436e-05
1.68749e-05
1.6615e-05
1.66137e-05
1.68725e-05
1.74323e-05
1.79222e-05
1.82669e-05
1.88442e-05
1.83052e-05
1.78715e-05
1.73771e-05
1.71451e-05
1.71436e-05
1.73722e-05
1.7864e-05
1.82967e-05
1.88357e-05
1.83682e-05
1.79008e-05
1.75806e-05
1.71921e-05
1.69762e-05
1.6976e-05
1.71881e-05
1.76007e-05
1.79407e-05
1.83513e-05
1.79258e-05
1.76937e-05
1.72433e-05
1.6798e-05
1.65621e-05
1.65655e-05
1.68133e-05
1.73194e-05
1.7713e-05
1.79129e-05
1.75934e-05
1.73119e-05
1.67938e-05
1.62251e-05
1.59734e-05
1.59763e-05
1.62404e-05
1.68039e-05
1.7251e-05
1.75863e-05
1.71928e-05
1.68097e-05
1.62348e-05
1.57033e-05
1.54478e-05
1.54541e-05
1.57061e-05
1.62294e-05
1.68014e-05
1.71888e-05
1.69768e-05
1.65621e-05
1.59713e-05
1.54506e-05
1.52249e-05
1.52248e-05
1.54478e-05
1.59745e-05
1.6565e-05
1.69768e-05
1.69759e-05
1.65594e-05
1.59696e-05
1.54449e-05
1.52235e-05
1.52247e-05
1.54466e-05
1.59735e-05
1.65653e-05
1.69768e-05
1.71874e-05
1.67956e-05
1.6223e-05
1.57024e-05
1.54514e-05
1.54524e-05
1.57051e-05
1.62289e-05
1.68003e-05
1.71876e-05
1.7585e-05
1.7246e-05
1.6799e-05
1.62369e-05
1.59746e-05
1.5976e-05
1.62394e-05
1.68035e-05
1.72512e-05
1.75856e-05
1.79143e-05
1.77112e-05
1.73178e-05
1.68128e-05
1.65653e-05
1.65653e-05
1.68148e-05
1.73204e-05
1.77135e-05
1.7912e-05
1.83585e-05
1.79458e-05
1.76053e-05
1.71925e-05
1.69775e-05
1.69767e-05
1.71892e-05
1.76001e-05
1.79398e-05
1.83492e-05
1.7902e-05
1.7435e-05
1.71928e-05
1.68673e-05
1.66677e-05
1.66668e-05
1.68627e-05
1.72094e-05
1.74673e-05
1.7887e-05
1.74593e-05
1.73564e-05
1.6983e-05
1.65808e-05
1.63566e-05
1.63591e-05
1.65941e-05
1.70548e-05
1.73658e-05
1.74375e-05
1.72073e-05
1.70515e-05
1.65849e-05
1.60541e-05
1.58099e-05
1.58122e-05
1.60674e-05
1.65905e-05
1.69847e-05
1.7193e-05
1.68671e-05
1.65916e-05
1.60638e-05
1.55624e-05
1.53114e-05
1.53171e-05
1.55633e-05
1.6055e-05
1.65794e-05
1.68613e-05
1.6667e-05
1.63551e-05
1.58077e-05
1.53145e-05
1.50967e-05
1.50962e-05
1.531e-05
1.58086e-05
1.63557e-05
1.66658e-05
1.66653e-05
1.63517e-05
1.58054e-05
1.53086e-05
1.50953e-05
1.50959e-05
1.53089e-05
1.58076e-05
1.6356e-05
1.66658e-05
1.68597e-05
1.65749e-05
1.60502e-05
1.55606e-05
1.53148e-05
1.53153e-05
1.5562e-05
1.60544e-05
1.65786e-05
1.68601e-05
1.71908e-05
1.69809e-05
1.65867e-05
1.60645e-05
1.58102e-05
1.5811e-05
1.60658e-05
1.65898e-05
1.6985e-05
1.71922e-05
1.74375e-05
1.73649e-05
1.7054e-05
1.65936e-05
1.63579e-05
1.63576e-05
1.65944e-05
1.70553e-05
1.73662e-05
1.74366e-05
1.789e-05
1.74699e-05
1.72124e-05
1.6865e-05
1.66664e-05
1.66658e-05
1.6863e-05
1.72091e-05
1.74663e-05
1.78847e-05
1.75732e-05
1.69218e-05
1.67348e-05
1.64601e-05
1.62781e-05
1.62785e-05
1.64592e-05
1.67536e-05
1.69546e-05
1.7561e-05
1.69507e-05
1.69496e-05
1.66398e-05
1.62742e-05
1.60633e-05
1.60667e-05
1.62908e-05
1.67138e-05
1.69578e-05
1.69253e-05
1.67529e-05
1.67112e-05
1.62922e-05
1.57942e-05
1.55569e-05
1.55599e-05
1.58082e-05
1.62967e-05
1.66431e-05
1.6736e-05
1.64636e-05
1.62901e-05
1.58059e-05
1.53301e-05
1.50835e-05
1.50891e-05
1.53307e-05
1.57953e-05
1.62748e-05
1.64568e-05
1.62808e-05
1.60661e-05
1.55578e-05
1.50876e-05
1.48752e-05
1.48747e-05
1.50819e-05
1.55558e-05
1.60635e-05
1.62777e-05
1.62799e-05
1.60632e-05
1.55553e-05
1.5082e-05
1.48742e-05
1.48743e-05
1.50809e-05
1.55549e-05
1.60635e-05
1.62779e-05
1.64586e-05
1.62737e-05
1.57931e-05
1.53291e-05
1.50875e-05
1.50875e-05
1.5329e-05
1.5794e-05
1.62734e-05
1.64561e-05
1.67379e-05
1.66419e-05
1.62947e-05
1.5806e-05
1.55582e-05
1.55584e-05
1.58059e-05
1.6295e-05
1.66421e-05
1.67357e-05
1.69297e-05
1.69589e-05
1.67141e-05
1.62905e-05
1.60659e-05
1.60652e-05
1.629e-05
1.67127e-05
1.69568e-05
1.69254e-05
1.75662e-05
1.69578e-05
1.67576e-05
1.64624e-05
1.62795e-05
1.62785e-05
1.64592e-05
1.67527e-05
1.69532e-05
1.75605e-05
1.75226e-05
1.64584e-05
1.62723e-05
1.60325e-05
1.5865e-05
1.58645e-05
1.60305e-05
1.62876e-05
1.64845e-05
1.75122e-05
1.64844e-05
1.65283e-05
1.62701e-05
1.59366e-05
1.57366e-05
1.57394e-05
1.59514e-05
1.63398e-05
1.65292e-05
1.64547e-05
1.62904e-05
1.63405e-05
1.5966e-05
1.54981e-05
1.52667e-05
1.52694e-05
1.55106e-05
1.59674e-05
1.62684e-05
1.62685e-05
1.60358e-05
1.59516e-05
1.55095e-05
1.50572e-05
1.48152e-05
1.48206e-05
1.50568e-05
1.54969e-05
1.59332e-05
1.60263e-05
1.58671e-05
1.57381e-05
1.52671e-05
1.48194e-05
1.46121e-05
1.46114e-05
1.48131e-05
1.52642e-05
1.57339e-05
1.58619e-05
1.58654e-05
1.57342e-05
1.52641e-05
1.48135e-05
1.46112e-05
1.46111e-05
1.48122e-05
1.52635e-05
1.57341e-05
1.58619e-05
1.60288e-05
1.59327e-05
1.54949e-05
1.50558e-05
1.48194e-05
1.48194e-05
1.50556e-05
1.54959e-05
1.59323e-05
1.60253e-05
1.627e-05
1.62677e-05
1.59656e-05
1.55087e-05
1.52679e-05
1.52681e-05
1.55086e-05
1.59659e-05
1.62677e-05
1.62675e-05
1.64571e-05
1.65303e-05
1.63398e-05
1.59508e-05
1.57378e-05
1.57372e-05
1.595e-05
1.63385e-05
1.65282e-05
1.64535e-05
1.75163e-05
1.64888e-05
1.62911e-05
1.60322e-05
1.58632e-05
1.58621e-05
1.60288e-05
1.62856e-05
1.64825e-05
1.75104e-05
1.77001e-05
1.60907e-05
1.58306e-05
1.56081e-05
1.54532e-05
1.54535e-05
1.56088e-05
1.58478e-05
1.61177e-05
1.76915e-05
1.61191e-05
1.61143e-05
1.5897e-05
1.55933e-05
1.54055e-05
1.54096e-05
1.56118e-05
1.59701e-05
1.61176e-05
1.60899e-05
1.58497e-05
1.59685e-05
1.56374e-05
1.51976e-05
1.49735e-05
1.49774e-05
1.52126e-05
1.56411e-05
1.58997e-05
1.58295e-05
1.56126e-05
1.5611e-05
1.52102e-05
1.47802e-05
1.45442e-05
1.45502e-05
1.47817e-05
1.51996e-05
1.55949e-05
1.56061e-05
1.54557e-05
1.54088e-05
1.49753e-05
1.45487e-05
1.43469e-05
1.43469e-05
1.45439e-05
1.4974e-05
1.54073e-05
1.5454e-05
1.54543e-05
1.54053e-05
1.49725e-05
1.45434e-05
1.43467e-05
1.4347e-05
1.45435e-05
1.49737e-05
1.54076e-05
1.54543e-05
1.56064e-05
1.55925e-05
1.51968e-05
1.47805e-05
1.45501e-05
1.45507e-05
1.47817e-05
1.51997e-05
1.55948e-05
1.56063e-05
1.58298e-05
1.58976e-05
1.56389e-05
1.52111e-05
1.49777e-05
1.49784e-05
1.52126e-05
1.56413e-05
1.59001e-05
1.583e-05
1.6092e-05
1.61177e-05
1.597e-05
1.56123e-05
1.54108e-05
1.54108e-05
1.56133e-05
1.5971e-05
1.61183e-05
1.60903e-05
1.76966e-05
1.61224e-05
1.58526e-05
1.5613e-05
1.5456e-05
1.54554e-05
1.56104e-05
1.58484e-05
1.61181e-05
1.76913e-05
1.76808e-05
1.58962e-05
1.54466e-05
1.52126e-05
1.50636e-05
1.50637e-05
1.52138e-05
1.54637e-05
1.59215e-05
1.76736e-05
1.59235e-05
1.57275e-05
1.5536e-05
1.52595e-05
1.50826e-05
1.50867e-05
1.52782e-05
1.56078e-05
1.57289e-05
1.58921e-05
1.54669e-05
1.56068e-05
1.53165e-05
1.49035e-05
1.46863e-05
1.46901e-05
1.49181e-05
1.53194e-05
1.55376e-05
1.54443e-05
1.52181e-05
1.52771e-05
1.49161e-05
1.45076e-05
1.42774e-05
1.42831e-05
1.45086e-05
1.49048e-05
1.52601e-05
1.52105e-05
1.50665e-05
1.50856e-05
1.46883e-05
1.4282e-05
1.40852e-05
1.4085e-05
1.42767e-05
1.46864e-05
1.50835e-05
1.50641e-05
1.50648e-05
1.50819e-05
1.46853e-05
1.42768e-05
1.40851e-05
1.40853e-05
1.42766e-05
1.46863e-05
1.50839e-05
1.50643e-05
1.5211e-05
1.52583e-05
1.49026e-05
1.45081e-05
1.42836e-05
1.42841e-05
1.45088e-05
1.49051e-05
1.52603e-05
1.52106e-05
1.54444e-05
1.55361e-05
1.53179e-05
1.49174e-05
1.4691e-05
1.46915e-05
1.49185e-05
1.53199e-05
1.55382e-05
1.54446e-05
1.58934e-05
1.57293e-05
1.56081e-05
1.5279e-05
1.50881e-05
1.50881e-05
1.52794e-05
1.56086e-05
1.57295e-05
1.58923e-05
1.76776e-05
1.59256e-05
1.54678e-05
1.52174e-05
1.50656e-05
1.50651e-05
1.52152e-05
1.54644e-05
1.59216e-05
1.76729e-05
1.60155e-05
1.58982e-05
1.51432e-05
1.48577e-05
1.47057e-05
1.4707e-05
1.48624e-05
1.5164e-05
1.5927e-05
1.60134e-05
1.59274e-05
1.53827e-05
1.51926e-05
1.49395e-05
1.47738e-05
1.47787e-05
1.49608e-05
1.52664e-05
1.53861e-05
1.58971e-05
1.51646e-05
1.52636e-05
1.50111e-05
1.46232e-05
1.44138e-05
1.44184e-05
1.46392e-05
1.50151e-05
1.51968e-05
1.51435e-05
1.48643e-05
1.4959e-05
1.46365e-05
1.42488e-05
1.40253e-05
1.40312e-05
1.42507e-05
1.4626e-05
1.49427e-05
1.48583e-05
1.47089e-05
1.47778e-05
1.44167e-05
1.40301e-05
1.38387e-05
1.38389e-05
1.40252e-05
1.44149e-05
1.47763e-05
1.47076e-05
1.47077e-05
1.47744e-05
1.44137e-05
1.40251e-05
1.38389e-05
1.38391e-05
1.40251e-05
1.44148e-05
1.47764e-05
1.47078e-05
1.48587e-05
1.49403e-05
1.46236e-05
1.42499e-05
1.40319e-05
1.40325e-05
1.42508e-05
1.46258e-05
1.49423e-05
1.48586e-05
1.51441e-05
1.51946e-05
1.50132e-05
1.46382e-05
1.44193e-05
1.44198e-05
1.46392e-05
1.5015e-05
1.51963e-05
1.51441e-05
1.58997e-05
1.53857e-05
1.5266e-05
1.49612e-05
1.47804e-05
1.47803e-05
1.49615e-05
1.52661e-05
1.53856e-05
1.58979e-05
1.602e-05
1.59303e-05
1.51675e-05
1.48659e-05
1.47096e-05
1.47091e-05
1.48634e-05
1.51637e-05
1.59263e-05
1.60139e-05
1.15839e-05
1.60368e-05
1.49584e-05
1.45663e-05
1.43941e-05
1.43948e-05
1.45702e-05
1.49777e-05
1.60635e-05
1.15791e-05
1.60647e-05
1.51007e-05
1.48722e-05
1.46356e-05
1.44786e-05
1.44827e-05
1.46551e-05
1.49422e-05
1.51002e-05
1.60325e-05
1.49797e-05
1.49417e-05
1.47192e-05
1.43548e-05
1.41525e-05
1.41566e-05
1.43693e-05
1.47209e-05
1.48729e-05
1.49563e-05
1.45726e-05
1.46544e-05
1.43679e-05
1.40004e-05
1.37831e-05
1.37886e-05
1.40011e-05
1.43558e-05
1.4636e-05
1.4565e-05
1.43967e-05
1.4482e-05
1.41554e-05
1.3788e-05
1.36019e-05
1.36018e-05
1.37824e-05
1.41525e-05
1.4479e-05
1.43943e-05
1.43952e-05
1.44781e-05
1.41521e-05
1.3783e-05
1.36021e-05
1.36021e-05
1.37824e-05
1.41524e-05
1.4479e-05
1.43941e-05
1.45659e-05
1.46347e-05
1.43543e-05
1.40012e-05
1.37898e-05
1.37902e-05
1.40015e-05
1.43558e-05
1.46357e-05
1.45647e-05
1.49568e-05
1.48719e-05
1.472e-05
1.43691e-05
1.41579e-05
1.41582e-05
1.43695e-05
1.47208e-05
1.48725e-05
1.49558e-05
1.60344e-05
1.51007e-05
1.49425e-05
1.46559e-05
1.44842e-05
1.44839e-05
1.46554e-05
1.49417e-05
1.50994e-05
1.6032e-05
1.15862e-05
1.60668e-05
1.49808e-05
1.45726e-05
1.43958e-05
1.4395e-05
1.45696e-05
1.49763e-05
1.60618e-05
1.15783e-05
2.52253e-05
1.59357e-05
1.4896e-05
1.43478e-05
1.41369e-05
1.41388e-05
1.43551e-05
1.49193e-05
1.59667e-05
2.51798e-05
1.59652e-05
1.48913e-05
1.45733e-05
1.43434e-05
1.41952e-05
1.42003e-05
1.4366e-05
1.46464e-05
1.48948e-05
1.59373e-05
1.49183e-05
1.4643e-05
1.44387e-05
1.40966e-05
1.39029e-05
1.39079e-05
1.41133e-05
1.4443e-05
1.45785e-05
1.48981e-05
1.43549e-05
1.43635e-05
1.41101e-05
1.3763e-05
1.35531e-05
1.35591e-05
1.37655e-05
1.41003e-05
1.43479e-05
1.43507e-05
1.41391e-05
1.41986e-05
1.3906e-05
1.35578e-05
1.33779e-05
1.33784e-05
1.35537e-05
1.3905e-05
1.41986e-05
1.41401e-05
1.4138e-05
1.41948e-05
1.39025e-05
1.35529e-05
1.33783e-05
1.33788e-05
1.35539e-05
1.3905e-05
1.41986e-05
1.414e-05
1.43489e-05
1.43436e-05
1.40968e-05
1.37643e-05
1.35603e-05
1.35614e-05
1.37663e-05
1.41006e-05
1.43477e-05
1.43507e-05
1.48969e-05
1.45746e-05
1.44403e-05
1.41122e-05
1.39096e-05
1.39105e-05
1.41144e-05
1.44437e-05
1.45784e-05
1.48983e-05
1.59384e-05
1.48931e-05
1.46454e-05
1.43664e-05
1.42028e-05
1.42032e-05
1.43678e-05
1.46472e-05
1.4895e-05
1.5938e-05
2.51848e-05
1.59701e-05
1.49224e-05
1.43583e-05
1.41418e-05
1.41415e-05
1.43563e-05
1.49193e-05
1.59662e-05
2.51791e-05
7.91938e-05
1.47476e-05
1.49257e-05
1.42267e-05
1.39566e-05
1.39578e-05
1.4233e-05
1.49478e-05
1.47725e-05
7.91052e-05
1.47732e-05
1.47662e-05
1.43126e-05
1.40716e-05
1.39275e-05
1.39318e-05
1.4092e-05
1.43819e-05
1.47671e-05
1.4746e-05
1.4947e-05
1.43798e-05
1.41725e-05
1.38506e-05
1.36645e-05
1.36688e-05
1.38656e-05
1.41748e-05
1.43141e-05
1.49256e-05
1.42315e-05
1.40891e-05
1.38634e-05
1.35361e-05
1.33328e-05
1.33383e-05
1.35371e-05
1.38519e-05
1.40724e-05
1.42268e-05
1.39552e-05
1.39282e-05
1.36665e-05
1.33372e-05
1.3163e-05
1.3163e-05
1.33321e-05
1.36644e-05
1.39276e-05
1.39566e-05
1.39531e-05
1.39235e-05
1.36623e-05
1.33319e-05
1.31631e-05
1.31634e-05
1.33321e-05
1.36643e-05
1.39275e-05
1.39563e-05
1.42224e-05
1.4067e-05
1.38483e-05
1.3536e-05
1.33392e-05
1.33398e-05
1.35375e-05
1.38519e-05
1.4072e-05
1.42262e-05
1.4921e-05
1.43086e-05
1.41712e-05
1.38641e-05
1.36696e-05
1.36704e-05
1.3866e-05
1.41749e-05
1.43137e-05
1.49248e-05
1.47442e-05
1.47631e-05
1.43795e-05
1.40912e-05
1.39326e-05
1.3933e-05
1.40927e-05
1.43822e-05
1.47668e-05
1.47457e-05
7.91008e-05
1.47745e-05
1.49481e-05
1.42333e-05
1.39579e-05
1.39581e-05
1.4233e-05
1.49476e-05
1.47717e-05
7.91043e-05
0.000186398
1.19867e-05
1.48539e-05
1.41786e-05
1.38481e-05
1.38491e-05
1.41842e-05
1.48738e-05
1.20082e-05
0.000186228
1.20162e-05
1.46764e-05
1.40991e-05
1.38207e-05
1.36758e-05
1.36792e-05
1.38388e-05
1.41632e-05
1.46716e-05
1.19889e-05
1.48794e-05
1.41685e-05
1.39253e-05
1.36184e-05
1.34387e-05
1.3442e-05
1.36299e-05
1.39214e-05
1.40958e-05
1.48524e-05
1.4188e-05
1.38438e-05
1.36339e-05
1.33236e-05
1.31257e-05
1.31297e-05
1.33205e-05
1.36155e-05
1.38183e-05
1.41769e-05
1.38516e-05
1.36834e-05
1.34454e-05
1.31321e-05
1.29621e-05
1.29608e-05
1.31226e-05
1.34357e-05
1.36734e-05
1.38464e-05
1.38494e-05
1.36787e-05
1.34411e-05
1.31269e-05
1.29622e-05
1.2961e-05
1.31225e-05
1.34355e-05
1.3673e-05
1.3846e-05
1.41785e-05
1.38216e-05
1.36191e-05
1.33234e-05
1.31321e-05
1.31312e-05
1.33205e-05
1.3615e-05
1.38172e-05
1.4176e-05
1.48542e-05
1.40978e-05
1.39241e-05
1.36322e-05
1.34439e-05
1.34431e-05
1.36298e-05
1.39207e-05
1.40944e-05
1.48507e-05
1.19956e-05
1.4674e-05
1.4166e-05
1.38412e-05
1.36811e-05
1.36803e-05
1.3839e-05
1.41627e-05
1.46705e-05
1.19885e-05
0.000186223
1.20119e-05
1.48757e-05
1.41859e-05
1.38504e-05
1.38499e-05
1.41845e-05
1.48744e-05
1.20086e-05
0.000186228
0.000364642
1.73178e-05
1.42293e-05
1.41164e-05
1.37803e-05
1.37799e-05
1.41185e-05
1.42407e-05
1.73385e-05
0.000364374
1.73439e-05
1.44608e-05
1.39346e-05
1.35908e-05
1.34382e-05
1.34414e-05
1.36074e-05
1.39958e-05
1.44518e-05
1.73029e-05
1.42548e-05
1.40041e-05
1.36856e-05
1.33901e-05
1.3217e-05
1.32199e-05
1.34004e-05
1.368e-05
1.39284e-05
1.42237e-05
1.41284e-05
1.36143e-05
1.34057e-05
1.31125e-05
1.29213e-05
1.29251e-05
1.31085e-05
1.33857e-05
1.3586e-05
1.41115e-05
1.37868e-05
1.3447e-05
1.32241e-05
1.29279e-05
1.27637e-05
1.27621e-05
1.29179e-05
1.32133e-05
1.34341e-05
1.37762e-05
1.37844e-05
1.34424e-05
1.32203e-05
1.29232e-05
1.27642e-05
1.27628e-05
1.29181e-05
1.32133e-05
1.3434e-05
1.37757e-05
1.41188e-05
1.35936e-05
1.33918e-05
1.31136e-05
1.29288e-05
1.29276e-05
1.31096e-05
1.33862e-05
1.35857e-05
1.41103e-05
1.42314e-05
1.3936e-05
1.36865e-05
1.34054e-05
1.3224e-05
1.32227e-05
1.34016e-05
1.36804e-05
1.3928e-05
1.42208e-05
1.72983e-05
1.44608e-05
1.40029e-05
1.36129e-05
1.34449e-05
1.34434e-05
1.36084e-05
1.39962e-05
1.44516e-05
1.73051e-05
0.000364385
1.73308e-05
1.42504e-05
1.41241e-05
1.37821e-05
1.37805e-05
1.41192e-05
1.42435e-05
1.73402e-05
0.000364375
0.000623003
4.63036e-05
1.25198e-05
1.38016e-05
1.36397e-05
1.36413e-05
1.38088e-05
1.25369e-05
4.63488e-05
0.000622653
4.63588e-05
1.3801e-05
1.38147e-05
1.33882e-05
1.32215e-05
1.3227e-05
1.34113e-05
1.38852e-05
1.38045e-05
4.62541e-05
1.25441e-05
1.38843e-05
1.3463e-05
1.31708e-05
1.30051e-05
1.30101e-05
1.31866e-05
1.34652e-05
1.3819e-05
1.25293e-05
1.3813e-05
1.34111e-05
1.31856e-05
1.29089e-05
1.27263e-05
1.27319e-05
1.29102e-05
1.31734e-05
1.33921e-05
1.3806e-05
1.3644e-05
1.32279e-05
1.30103e-05
1.27319e-05
1.25753e-05
1.25756e-05
1.27268e-05
1.3007e-05
1.32245e-05
1.36424e-05
1.36428e-05
1.32244e-05
1.30073e-05
1.27279e-05
1.25766e-05
1.25768e-05
1.27278e-05
1.30077e-05
1.32252e-05
1.36428e-05
1.38074e-05
1.33928e-05
1.3174e-05
1.29124e-05
1.27356e-05
1.27365e-05
1.29133e-05
1.31761e-05
1.33944e-05
1.38073e-05
1.25314e-05
1.38212e-05
1.34679e-05
1.31899e-05
1.30155e-05
1.30161e-05
1.31911e-05
1.34695e-05
1.38225e-05
1.25298e-05
4.62412e-05
1.38094e-05
1.38895e-05
1.34163e-05
1.32334e-05
1.32336e-05
1.34171e-05
1.38906e-05
1.38106e-05
4.62503e-05
0.000622653
4.63185e-05
1.25496e-05
1.3818e-05
1.3648e-05
1.36474e-05
1.38153e-05
1.25471e-05
4.63318e-05
0.000622646
0.000957581
0.000104996
1.20148e-05
1.2878e-05
1.31856e-05
1.31874e-05
1.28851e-05
1.20293e-05
0.000105078
0.000957223
0.00010511
1.24508e-05
1.37116e-05
1.32177e-05
1.3026e-05
1.30318e-05
1.32418e-05
1.37842e-05
1.24566e-05
0.000104893
1.20354e-05
1.37802e-05
1.32638e-05
1.29587e-05
1.27963e-05
1.28017e-05
1.29758e-05
1.32686e-05
1.37189e-05
1.20127e-05
1.2887e-05
1.32385e-05
1.29723e-05
1.27071e-05
1.25313e-05
1.25373e-05
1.271e-05
1.29627e-05
1.32226e-05
1.28841e-05
1.31877e-05
1.30294e-05
1.27994e-05
1.25358e-05
1.23855e-05
1.23862e-05
1.25321e-05
1.27984e-05
1.30292e-05
1.31892e-05
1.3186e-05
1.30251e-05
1.27956e-05
1.25312e-05
1.23861e-05
1.23867e-05
1.25326e-05
1.27988e-05
1.30295e-05
1.31895e-05
1.28803e-05
1.32175e-05
1.29587e-05
1.27087e-05
1.25387e-05
1.25402e-05
1.27113e-05
1.29639e-05
1.32238e-05
1.28842e-05
1.20068e-05
1.37136e-05
1.32653e-05
1.29747e-05
1.28039e-05
1.2805e-05
1.29778e-05
1.32707e-05
1.37202e-05
1.20119e-05
0.000104888
1.24517e-05
1.37817e-05
1.32418e-05
1.30346e-05
1.30356e-05
1.32448e-05
1.3787e-05
1.24583e-05
0.000104887
0.000957191
0.000105041
1.2029e-05
1.28883e-05
1.319e-05
1.31907e-05
1.28896e-05
1.20245e-05
0.000105045
0.000957216
0.00135331
0.000203354
2.36698e-05
1.14875e-05
1.21435e-05
1.21463e-05
1.14946e-05
2.36926e-05
0.000203475
0.00135301
0.000203537
1.1471e-05
1.35327e-05
1.30699e-05
1.28535e-05
1.28597e-05
1.30952e-05
1.36062e-05
1.14719e-05
0.000203181
2.37029e-05
1.36003e-05
1.3098e-05
1.27597e-05
1.25971e-05
1.26031e-05
1.27777e-05
1.31044e-05
1.35429e-05
2.36326e-05
1.14954e-05
1.309e-05
1.27725e-05
1.2514e-05
1.23449e-05
1.23509e-05
1.25176e-05
1.2764e-05
1.30751e-05
1.14921e-05
1.21456e-05
1.28554e-05
1.25993e-05
1.23487e-05
1.22046e-05