/*--------------------------------*- C++ -*----------------------------------*\
| =========                 |                                                 |
| \\      /  F ield         | OpenFOAM: The Open Source CFD Toolbox           |
|  \\    /   O peration     | Version:  2406                                  |
|   \\  /    A nd           | Website:  www.openfoam.com                      |
|    \\/     M anipulation  |                                                 |
\*---------------------------------------------------------------------------*/
FoamFile
{
    version     2.0;
    format      ascii;
    arch        "LSB;label=32;scalar=64";
    class       volSymmTensorField;
    location    "300";
    object      turbulenceProperties:devReff;
}
// * * * * * * * * * * * * * * * * * * * * * * * * * * * * * * * * * * * * * //

dimensions      [0 2 -2 0 0 0 0];

internalField   nonuniform List<symmTensor> 
25000
(
(4.05494e-06 -4.08191e-06 -1.60159e-06 4.04101e-06 -1.60095e-06 -8.09595e-06)
(6.13659e-06 1.79444e-06 -1.09526e-06 2.44162e-06 -1.40874e-06 -8.57822e-06)
(4.78784e-06 1.10426e-06 -7.80524e-07 3.46178e-06 -1.45067e-06 -8.24963e-06)
(4.31933e-06 6.81046e-07 -4.64558e-07 3.87371e-06 -1.45527e-06 -8.19304e-06)
(4.10359e-06 2.33271e-07 -1.53975e-07 4.05508e-06 -1.45565e-06 -8.15866e-06)
(4.09912e-06 -2.45604e-07 1.56275e-07 4.05984e-06 -1.45561e-06 -8.15896e-06)
(4.30367e-06 -6.94307e-07 4.67197e-07 3.89105e-06 -1.45514e-06 -8.19471e-06)
(4.73199e-06 -1.11845e-06 7.83433e-07 3.51318e-06 -1.4504e-06 -8.24517e-06)
(6.14334e-06 -1.85445e-06 1.11468e-06 2.50188e-06 -1.41179e-06 -8.64523e-06)
(4.11461e-06 4.02839e-06 1.59608e-06 4.11155e-06 -1.59527e-06 -8.22616e-06)
(2.45066e-06 1.8003e-06 -1.4108e-06 6.12914e-06 -1.09459e-06 -8.5798e-06)
(4.37009e-06 1.34395e-06 -1.09698e-06 4.35249e-06 -1.09612e-06 -8.72258e-06)
(3.95829e-06 8.6136e-07 -8.13839e-07 4.11379e-06 -1.11756e-06 -8.07207e-06)
(3.80277e-06 4.94272e-07 -4.91785e-07 3.92929e-06 -1.13762e-06 -7.73206e-06)
(3.73611e-06 1.60791e-07 -1.63571e-07 3.83322e-06 -1.14829e-06 -7.56934e-06)
(3.73425e-06 -1.60753e-07 1.6554e-07 3.83517e-06 -1.14849e-06 -7.56942e-06)
(3.79674e-06 -4.89719e-07 4.93745e-07 3.93639e-06 -1.13834e-06 -7.73313e-06)
(3.94643e-06 -8.46493e-07 8.1589e-07 4.12778e-06 -1.11946e-06 -8.07421e-06)
(4.36284e-06 -1.27688e-06 1.09994e-06 4.3615e-06 -1.09907e-06 -8.72434e-06)
(2.5027e-06 -1.85292e-06 1.41201e-06 6.14052e-06 -1.11359e-06 -8.64321e-06)
(3.45917e-06 1.12001e-06 -1.4527e-06 4.78321e-06 -7.79424e-07 -8.24238e-06)
(4.1207e-06 8.6758e-07 -1.11902e-06 3.95121e-06 -8.12982e-07 -8.07191e-06)
(3.77919e-06 5.83978e-07 -8.23765e-07 3.77184e-06 -8.22554e-07 -7.55103e-06)
(3.60436e-06 3.45558e-07 -5.00606e-07 3.63659e-06 -8.29591e-07 -7.24095e-06)
(3.52384e-06 1.13993e-07 -1.67098e-07 3.56889e-06 -8.33947e-07 -7.09273e-06)
(3.52325e-06 -1.12844e-07 1.68381e-07 3.56971e-06 -8.34232e-07 -7.09296e-06)
(3.60242e-06 -3.42427e-07 5.01839e-07 3.63921e-06 -8.30492e-07 -7.24163e-06)
(3.77654e-06 -5.75985e-07 8.24955e-07 3.77403e-06 -8.24018e-07 -7.55057e-06)
(4.1288e-06 -8.4582e-07 1.1199e-06 3.9429e-06 -8.14656e-07 -8.07169e-06)
(3.5146e-06 -1.11548e-06 1.45083e-06 4.73018e-06 -7.82426e-07 -8.24478e-06)
(3.86808e-06 6.90882e-07 -1.45652e-06 4.31908e-06 -4.63916e-07 -8.18716e-06)
(3.93095e-06 5.01295e-07 -1.13874e-06 3.79804e-06 -4.90956e-07 -7.729e-06)
(3.6406e-06 3.48115e-07 -8.30803e-07 3.59919e-06 -4.99601e-07 -7.23979e-06)
(3.46678e-06 2.1018e-07 -5.04605e-07 3.46267e-06 -5.03526e-07 -6.92945e-06)
(3.38391e-06 7.0071e-08 -1.68768e-07 3.39435e-06 -5.05751e-07 -6.77826e-06)
(3.38368e-06 -6.87551e-08 1.69463e-07 3.39496e-06 -5.06013e-07 -6.77864e-06)
(3.46662e-06 -2.07607e-07 5.05263e-07 3.46371e-06 -5.0425e-07 -6.93032e-06)
(3.64206e-06 -3.42368e-07 8.31367e-07 3.59946e-06 -5.00756e-07 -7.24152e-06)
(3.93927e-06 -4.89081e-07 1.13908e-06 3.79404e-06 -4.92598e-07 -7.73331e-06)
(3.89344e-06 -6.90481e-07 1.45553e-06 4.30124e-06 -4.66062e-07 -8.19467e-06)
(4.04894e-06 2.39972e-07 -1.45653e-06 4.10496e-06 -1.53585e-07 -8.15389e-06)
(3.83124e-06 1.66933e-07 -1.14921e-06 3.73397e-06 -1.6295e-07 -7.56521e-06)
(3.57071e-06 1.17453e-07 -8.35019e-07 3.52008e-06 -1.66296e-07 -7.0908e-06)
(3.39739e-06 7.15743e-08 -5.06831e-07 3.38019e-06 -1.67865e-07 -6.77758e-06)
(3.31375e-06 2.42678e-08 -1.69745e-07 3.31067e-06 -1.68807e-07 -6.62442e-06)
(3.31396e-06 -2.26487e-08 1.69971e-07 3.31088e-06 -1.69005e-07 -6.62484e-06)
(3.39804e-06 -6.8953e-08 5.07015e-07 3.38052e-06 -1.68441e-07 -6.77856e-06)
(3.57339e-06 -1.13023e-07 8.35188e-07 3.51981e-06 -1.67237e-07 -7.0932e-06)
(3.83972e-06 -1.60408e-07 1.14922e-06 3.73022e-06 -1.6423e-07 -7.56993e-06)
(4.06454e-06 -2.40595e-07 1.45593e-06 4.0947e-06 -1.54955e-07 -8.15923e-06)
(4.05547e-06 -2.41741e-07 -1.45616e-06 4.1001e-06 1.56534e-07 -8.15557e-06)
(3.83282e-06 -1.55567e-07 -1.14926e-06 3.73324e-06 1.65972e-07 -7.56606e-06)
(3.5697e-06 -1.09087e-07 -8.35178e-07 3.52077e-06 1.68965e-07 -7.09047e-06)
(3.39647e-06 -6.66798e-08 -5.06987e-07 3.38061e-06 1.70155e-07 -6.77708e-06)
(3.31333e-06 -2.17557e-08 -1.69925e-07 3.31088e-06 1.70725e-07 -6.62421e-06)
(3.31362e-06 2.37401e-08 1.69804e-07 3.31099e-06 1.70574e-07 -6.6246e-06)
(3.39796e-06 6.91723e-08 5.06875e-07 3.38045e-06 1.69707e-07 -6.77842e-06)
(3.57341e-06 1.12776e-07 8.35063e-07 3.5197e-06 1.68248e-07 -7.09311e-06)
(3.83974e-06 1.59958e-07 1.14913e-06 3.73011e-06 1.65041e-07 -7.56985e-06)
(4.06465e-06 2.4057e-07 1.45588e-06 4.09459e-06 1.55617e-07 -8.15924e-06)
(3.88765e-06 -6.91335e-07 -1.45549e-06 4.30451e-06 4.67296e-07 -8.19216e-06)
(3.93312e-06 -4.85705e-07 -1.13895e-06 3.79649e-06 4.93997e-07 -7.72961e-06)
(3.63836e-06 -3.3925e-07 -8.31268e-07 3.6005e-06 5.02192e-07 -7.23886e-06)
(3.46454e-06 -2.05318e-07 -5.05147e-07 3.46394e-06 5.05729e-07 -6.92848e-06)
(3.38235e-06 -6.76618e-08 -1.69305e-07 3.39532e-06 5.07567e-07 -6.77767e-06)
(3.38294e-06 6.97471e-08 1.68967e-07 3.39512e-06 5.07458e-07 -6.77806e-06)
(3.46623e-06 2.07814e-07 5.04825e-07 3.46364e-06 5.05406e-07 -6.92987e-06)
(3.642e-06 3.42144e-07 8.31023e-07 3.5992e-06 5.01682e-07 -7.2412e-06)
(3.93948e-06 4.88672e-07 1.13882e-06 3.7937e-06 4.93358e-07 -7.73318e-06)
(3.89378e-06 6.90538e-07 1.45539e-06 4.30092e-06 4.66698e-07 -8.1947e-06)
(3.51118e-06 -1.11747e-06 -1.4506e-06 4.73242e-06 7.8343e-07 -8.24361e-06)
(4.12363e-06 -8.43205e-07 -1.1196e-06 3.94497e-06 8.1571e-07 -8.0686e-06)
(3.77275e-06 -5.73358e-07 -8.2473e-07 3.77519e-06 8.25115e-07 -7.54794e-06)
(3.59991e-06 -3.404e-07 -5.01573e-07 3.63991e-06 8.31632e-07 -7.23983e-06)
(3.52113e-06 -1.11543e-07 -1.68028e-07 3.57066e-06 8.35478e-07 -7.09179e-06)
(3.52167e-06 1.13671e-07 1.67545e-07 3.57054e-06 8.35406e-07 -7.09221e-06)
(3.6018e-06 3.42653e-07 5.01141e-07 3.63935e-06 8.31427e-07 -7.24115e-06)
(3.77644e-06 5.75813e-07 8.244e-07 3.77379e-06 8.24789e-07 -7.55023e-06)
(4.12893e-06 8.45554e-07 1.11949e-06 3.94261e-06 8.15309e-07 -8.07154e-06)
(3.51516e-06 1.11575e-06 1.45062e-06 4.72984e-06 7.83015e-07 -8.245e-06)
(2.5001e-06 -1.85479e-06 -1.41183e-06 6.1433e-06 1.11452e-06 -8.6434e-06)
(4.35868e-06 -1.27535e-06 -1.09953e-06 4.36296e-06 1.09989e-06 -8.72164e-06)
(3.94287e-06 -8.44257e-07 -8.15544e-07 4.12898e-06 1.12024e-06 -8.07185e-06)
(3.794e-06 -4.87361e-07 -4.93325e-07 3.93749e-06 1.13909e-06 -7.73149e-06)
(3.73121e-06 -1.58979e-07 -1.64944e-07 3.83729e-06 1.14926e-06 -7.56849e-06)
(3.73176e-06 1.6117e-07 1.64396e-07 3.83716e-06 1.14922e-06 -7.56892e-06)
(3.79579e-06 4.89538e-07 4.92827e-07 3.93687e-06 1.13897e-06 -7.73266e-06)
(3.94613e-06 8.46263e-07 8.15188e-07 4.12781e-06 1.12003e-06 -8.07394e-06)
(4.36313e-06 1.27672e-06 1.09941e-06 4.36108e-06 1.09963e-06 -8.72422e-06)
(2.50317e-06 1.8532e-06 1.41177e-06 6.14062e-06 1.11415e-06 -8.64379e-06)
(4.11092e-06 4.02531e-06 -1.59559e-06 4.11513e-06 1.59609e-06 -8.22604e-06)
(6.13962e-06 -1.85257e-06 -1.11421e-06 2.50248e-06 1.41202e-06 -8.6421e-06)
(4.7292e-06 -1.11364e-06 -7.83045e-07 3.5135e-06 1.45065e-06 -8.2427e-06)
(4.30114e-06 -6.88551e-07 -4.66733e-07 3.89178e-06 1.45532e-06 -8.19292e-06)
(4.09521e-06 -2.38693e-07 -1.55608e-07 4.063e-06 1.45575e-06 -8.15821e-06)
(4.09559e-06 2.42404e-07 1.55039e-07 4.06317e-06 1.45575e-06 -8.15876e-06)
(4.3022e-06 6.92291e-07 4.66221e-07 3.89256e-06 1.45534e-06 -8.19476e-06)
(4.7314e-06 1.11739e-06 7.82667e-07 3.51408e-06 1.45065e-06 -8.24548e-06)
(6.14285e-06 1.85442e-06 1.11408e-06 2.50262e-06 1.41203e-06 -8.64547e-06)
(4.11383e-06 -4.02702e-06 1.59562e-06 4.11339e-06 1.59573e-06 -8.22723e-06)
(6.16483e-06 -3.43489e-06 3.27545e-06 6.1572e-06 3.27977e-06 -1.2322e-05)
(8.37259e-06 1.97272e-06 2.27931e-06 3.70578e-06 3.02583e-06 -1.20784e-05)
(6.41471e-06 4.95769e-07 1.61532e-06 5.24674e-06 2.74104e-06 -1.16615e-05)
(6.18242e-06 4.70584e-07 9.69721e-07 5.46615e-06 2.62428e-06 -1.16486e-05)
(6.04892e-06 1.72245e-07 3.22382e-07 5.57881e-06 2.55716e-06 -1.16277e-05)
(6.05942e-06 -1.73091e-07 -3.25616e-07 5.57026e-06 2.55708e-06 -1.16297e-05)
(6.22256e-06 -4.71755e-07 -9.76037e-07 5.43338e-06 2.62405e-06 -1.16559e-05)
(6.57875e-06 -5.1436e-07 -1.63426e-06 5.13528e-06 2.74048e-06 -1.1714e-05)
(8.36474e-06 -1.88988e-06 -2.30164e-06 3.60972e-06 3.02271e-06 -1.19745e-05)
(5.92643e-06 3.64966e-06 -3.26495e-06 5.92317e-06 3.26442e-06 -1.18496e-05)
(3.71961e-06 1.96532e-06 3.02457e-06 8.37689e-06 2.28217e-06 -1.20965e-05)
(5.94979e-06 7.91296e-07 2.15814e-06 5.96076e-06 2.16106e-06 -1.19106e-05)
(5.70904e-06 3.7199e-07 1.47507e-06 5.875e-06 2.03923e-06 -1.1584e-05)
(5.84621e-06 1.76562e-07 8.77729e-07 5.62069e-06 1.95346e-06 -1.14669e-05)
(5.86549e-06 5.09649e-08 2.89796e-07 5.5096e-06 1.90748e-06 -1.13751e-05)
(5.8716e-06 -6.48211e-08 -2.93197e-07 5.5057e-06 1.90756e-06 -1.13773e-05)
(5.8656e-06 -1.99718e-07 -8.84222e-07 5.60762e-06 1.95407e-06 -1.14732e-05)
(5.74884e-06 -4.26095e-07 -1.48982e-06 5.85775e-06 2.04368e-06 -1.16066e-05)
(5.96149e-06 -1.01227e-06 -2.17533e-06 5.96846e-06 2.17506e-06 -1.19299e-05)
(3.60682e-06 -1.89189e-06 -3.0224e-06 8.3661e-06 2.30066e-06 -1.19729e-05)
(5.2608e-06 4.84904e-07 2.741e-06 6.41189e-06 1.61529e-06 -1.16727e-05)
(5.8792e-06 3.64685e-07 2.0389e-06 5.71909e-06 1.47786e-06 -1.15983e-05)
(5.63663e-06 3.29073e-07 1.39402e-06 5.64247e-06 1.39609e-06 -1.12791e-05)
(5.67829e-06 1.90009e-07 8.24015e-07 5.50215e-06 1.3354e-06 -1.11804e-05)
(5.67883e-06 5.56078e-08 2.7193e-07 5.44437e-06 1.30471e-06 -1.11232e-05)
(5.68132e-06 -7.33019e-08 -2.7462e-07 5.44342e-06 1.305e-06 -1.11247e-05)
(5.68571e-06 -2.13701e-07 -8.28507e-07 5.50081e-06 1.33688e-06 -1.11865e-05)
(5.64072e-06 -3.6611e-07 -1.40053e-06 5.64659e-06 1.40048e-06 -1.12873e-05)
(5.84645e-06 -4.25588e-07 -2.04223e-06 5.75097e-06 1.48848e-06 -1.15974e-05)
(5.13253e-06 -5.14679e-07 -2.74091e-06 6.58358e-06 1.63401e-06 -1.17161e-05)
(5.47447e-06 4.69784e-07 2.62568e-06 6.17681e-06 9.68539e-07 -1.16513e-05)
(5.6216e-06 1.70861e-07 1.95279e-06 5.84739e-06 8.77768e-07 -1.1469e-05)
(5.50051e-06 1.88037e-07 1.33397e-06 5.6818e-06 8.25153e-07 -1.11823e-05)
(5.51804e-06 1.21092e-07 7.8312e-07 5.52028e-06 7.84318e-07 -1.10383e-05)
(5.52033e-06 3.47887e-08 2.57934e-07 5.44354e-06 7.62834e-07 -1.09639e-05)
(5.52155e-06 -5.04092e-08 -2.59713e-07 5.44442e-06 7.63192e-07 -1.0966e-05)
(5.51848e-06 -1.39694e-07 -7.85566e-07 5.52343e-06 7.85636e-07 -1.10419e-05)
(5.49451e-06 -2.12364e-07 -1.33681e-06 5.69162e-06 8.28385e-07 -1.11861e-05)
(5.60058e-06 -1.98874e-07 -1.95434e-06 5.8738e-06 8.84061e-07 -1.14744e-05)
(5.42886e-06 -4.72601e-07 -2.62471e-06 6.23055e-06 9.75684e-07 -1.16594e-05)
(5.58426e-06 1.71687e-07 2.55869e-06 6.04452e-06 3.21492e-07 -1.16288e-05)
(5.5122e-06 4.7815e-08 1.90765e-06 5.86432e-06 2.89383e-07 -1.13765e-05)
(5.4435e-06 5.35273e-08 1.3038e-06 5.67986e-06 2.7225e-07 -1.11234e-05)
(5.44238e-06 3.38675e-08 7.61834e-07 5.52221e-06 2.5869e-07 -1.09646e-05)
(5.44389e-06 7.13623e-09 2.50662e-07 5.44484e-06 2.51446e-07 -1.08887e-05)
(5.4436e-06 -1.96883e-08 -2.51677e-07 5.44595e-06 2.5169e-07 -1.08895e-05)
(5.44053e-06 -4.79152e-08 -7.63133e-07 5.52579e-06 2.59543e-07 -1.09663e-05)
(5.43758e-06 -6.9377e-08 -1.30517e-06 5.68927e-06 2.74195e-07 -1.11269e-05)
(5.49682e-06 -6.19654e-08 -1.90806e-06 5.88344e-06 2.9255e-07 -1.13803e-05)
(5.5615e-06 -1.73598e-07 -2.55793e-06 6.07273e-06 3.24821e-07 -1.16342e-05)
(5.57291e-06 -1.72306e-07 2.55861e-06 6.05671e-06 -3.26e-07 -1.16296e-05)
(5.5072e-06 -6.67423e-08 1.90801e-06 5.87009e-06 -2.93538e-07 -1.13773e-05)
(5.44368e-06 -7.51196e-08 1.30453e-06 5.68101e-06 -2.74554e-07 -1.11247e-05)
(5.44351e-06 -5.13679e-08 7.62404e-07 5.52145e-06 -2.59284e-07 -1.0965e-05)
(5.44531e-06 -2.00801e-08 2.50953e-07 5.44411e-06 -2.511e-07 -1.08894e-05)
(5.44498e-06 1.03565e-08 -2.51579e-07 5.44511e-06 -2.5098e-07 -1.08901e-05)
(5.44142e-06 4.12242e-08 -7.63142e-07 5.52518e-06 -2.58799e-07 -1.09666e-05)
(5.4382e-06 6.45514e-08 -1.30523e-06 5.68881e-06 -2.73543e-07 -1.1127e-05)
(5.49744e-06 5.84762e-08 -1.90812e-06 5.88305e-06 -2.92018e-07 -1.13805e-05)
(5.56157e-06 1.71169e-07 -2.55797e-06 6.07264e-06 -3.24401e-07 -1.16342e-05)
(5.4354e-06 -4.71736e-07 2.62518e-06 6.22027e-06 -9.76064e-07 -1.16557e-05)
(5.60926e-06 -2.00508e-07 1.95454e-06 5.86353e-06 -8.84351e-07 -1.14728e-05)
(5.50057e-06 -2.14692e-07 1.33652e-06 5.68436e-06 -8.28362e-07 -1.11849e-05)
(5.52318e-06 -1.40588e-07 7.85081e-07 5.51849e-06 -7.85341e-07 -1.10417e-05)
(5.52602e-06 -4.83715e-08 2.58964e-07 5.44094e-06 -7.62793e-07 -1.0967e-05)
(5.52544e-06 4.10066e-08 -2.59398e-07 5.44196e-06 -7.62719e-07 -1.09674e-05)
(5.52149e-06 1.33072e-07 -7.85594e-07 5.52138e-06 -7.8509e-07 -1.10429e-05)
(5.49671e-06 2.07714e-07 -1.33695e-06 5.69012e-06 -8.27888e-07 -1.11868e-05)
(5.60213e-06 1.9555e-07 -1.95448e-06 5.87274e-06 -8.83632e-07 -1.14749e-05)
(5.42906e-06 4.70231e-07 -2.62477e-06 6.23032e-06 -9.75308e-07 -1.16594e-05)
(5.13608e-06 -5.13717e-07 2.74119e-06 6.57712e-06 -1.634e-06 -1.17132e-05)
(5.85375e-06 -4.26108e-07 2.04239e-06 5.74307e-06 -1.48858e-06 -1.15968e-05)
(5.64706e-06 -3.66787e-07 1.40035e-06 5.64006e-06 -1.4006e-06 -1.12871e-05)
(5.69221e-06 -2.12974e-07 8.2807e-07 5.49497e-06 -1.33687e-06 -1.11872e-05)
(5.68923e-06 -6.99e-08 2.73709e-07 5.4375e-06 -1.30499e-06 -1.11267e-05)
(5.68891e-06 6.42208e-08 -2.74048e-07 5.43816e-06 -1.30493e-06 -1.11271e-05)
(5.69084e-06 2.07516e-07 -8.28473e-07 5.49723e-06 -1.33672e-06 -1.11881e-05)
(5.64428e-06 3.61817e-07 -1.4007e-06 5.64415e-06 -1.40029e-06 -1.12884e-05)
(5.84925e-06 4.22561e-07 -2.0424e-06 5.74918e-06 -1.48824e-06 -1.15984e-05)
(5.13294e-06 5.12689e-07 -2.74094e-06 6.58325e-06 -1.63372e-06 -1.17162e-05)
(3.60946e-06 -1.88886e-06 3.02227e-06 8.36113e-06 -2.30055e-06 -1.19706e-05)
(5.96973e-06 -1.01218e-06 2.17527e-06 5.9601e-06 -2.17531e-06 -1.19298e-05)
(5.75622e-06 -4.26351e-07 1.48953e-06 5.8505e-06 -2.04402e-06 -1.16067e-05)
(5.87434e-06 -1.99452e-07 8.83774e-07 5.60009e-06 -1.95448e-06 -1.14744e-05)
(5.88364e-06 -6.24297e-08 2.92156e-07 5.49629e-06 -1.90803e-06 -1.13799e-05)
(5.88332e-06 5.8025e-08 -2.92414e-07 5.4969e-06 -1.908e-06 -1.13802e-05)
(5.87332e-06 1.95175e-07 -8.84104e-07 5.60204e-06 -1.95436e-06 -1.14754e-05)
(5.75432e-06 4.22754e-07 -1.48988e-06 5.85374e-06 -2.04382e-06 -1.16081e-05)
(5.96579e-06 1.00982e-06 -2.17538e-06 5.96536e-06 -2.17508e-06 -1.19312e-05)
(3.60775e-06 1.88904e-06 -3.02225e-06 8.36531e-06 -2.3005e-06 -1.19731e-05)
(5.92509e-06 3.65092e-06 3.26471e-06 5.92459e-06 -3.26495e-06 -1.18497e-05)
(8.36988e-06 -1.89236e-06 2.30132e-06 3.606e-06 -3.0235e-06 -1.19759e-05)
(6.58474e-06 -5.14689e-07 1.63382e-06 5.13083e-06 -2.74125e-06 -1.17156e-05)
(6.23123e-06 -4.72555e-07 9.75354e-07 5.42729e-06 -2.62485e-06 -1.16585e-05)
(6.07327e-06 -1.73536e-07 3.245e-07 5.56038e-06 -2.55802e-06 -1.16337e-05)
(6.07302e-06 1.71255e-07 -3.24717e-07 5.56098e-06 -2.55797e-06 -1.1634e-05)
(6.23054e-06 4.70301e-07 -9.75648e-07 5.42888e-06 -2.62472e-06 -1.16594e-05)
(6.58372e-06 5.12661e-07 -1.63415e-06 5.13328e-06 -2.74095e-06 -1.1717e-05)
(8.3682e-06 1.8898e-06 -2.30156e-06 3.60901e-06 -3.0231e-06 -1.19772e-05)
(5.92526e-06 -3.65107e-06 -3.26472e-06 5.9259e-06 -3.26452e-06 -1.18512e-05)
(5.24165e-06 -9.13705e-07 4.55276e-06 5.21831e-06 4.56172e-06 -1.046e-05)
(6.30046e-06 1.12378e-06 3.10879e-06 3.69779e-06 4.08591e-06 -9.99824e-06)
(5.03098e-06 -4.508e-08 2.21327e-06 4.91184e-06 3.89275e-06 -9.94282e-06)
(4.91855e-06 2.47249e-07 1.32662e-06 4.9448e-06 3.81445e-06 -9.86335e-06)
(4.8273e-06 6.4873e-08 4.40068e-07 5.01498e-06 3.75288e-06 -9.84228e-06)
(4.82985e-06 -6.8668e-08 -4.56426e-07 5.01141e-06 3.75271e-06 -9.84126e-06)
(4.92252e-06 -2.52057e-07 -1.34859e-06 4.93577e-06 3.81339e-06 -9.85829e-06)
(5.09872e-06 2.57126e-08 -2.2549e-06 4.87183e-06 3.89182e-06 -9.97055e-06)
(6.29337e-06 -1.12445e-06 -3.18429e-06 3.70028e-06 4.08639e-06 -9.99365e-06)
(5.14651e-06 9.77029e-07 -4.53493e-06 5.14816e-06 4.53192e-06 -1.02947e-05)
(3.70966e-06 1.12443e-06 4.07934e-06 6.30299e-06 3.11582e-06 -1.00127e-05)
(4.85452e-06 3.98011e-07 3.01385e-06 4.86531e-06 3.02197e-06 -9.71983e-06)
(4.79528e-06 5.24846e-08 2.15688e-06 5.03412e-06 2.95942e-06 -9.8294e-06)
(4.96605e-06 5.87737e-09 1.29807e-06 4.89851e-06 2.92912e-06 -9.86456e-06)
(4.95819e-06 -9.37733e-09 4.27147e-07 4.88759e-06 2.9084e-06 -9.84578e-06)
(4.95855e-06 -2.28235e-09 -4.43267e-07 4.88726e-06 2.90906e-06 -9.84581e-06)
(4.9662e-06 -1.95931e-08 -1.31897e-06 4.8971e-06 2.93196e-06 -9.86329e-06)
(4.80525e-06 -6.57959e-08 -2.19051e-06 5.03669e-06 2.97131e-06 -9.84194e-06)
(4.86449e-06 -5.03141e-07 -3.05332e-06 4.8726e-06 3.04967e-06 -9.73709e-06)
(3.69345e-06 -1.12608e-06 -4.08739e-06 6.29614e-06 3.1791e-06 -9.98959e-06)
(4.91721e-06 -5.00027e-08 3.89119e-06 5.02987e-06 2.21306e-06 -9.94707e-06)
(5.03851e-06 4.93756e-08 2.95684e-06 4.80428e-06 2.16332e-06 -9.84279e-06)
(4.88969e-06 1.26492e-07 2.11021e-06 4.89321e-06 2.11526e-06 -9.7829e-06)
(4.96025e-06 6.75354e-08 1.27269e-06 4.85295e-06 2.07924e-06 -9.81321e-06)
(4.93929e-06 1.82298e-08 4.19997e-07 4.8668e-06 2.06285e-06 -9.80609e-06)
(4.93875e-06 -3.10925e-08 -4.33717e-07 4.86742e-06 2.06399e-06 -9.80618e-06)
(4.96049e-06 -8.05195e-08 -1.28899e-06 4.85508e-06 2.08381e-06 -9.81557e-06)
(4.8896e-06 -1.37286e-07 -2.12971e-06 4.89583e-06 2.12554e-06 -9.78543e-06)
(5.02325e-06 -6.53857e-08 -2.97123e-06 4.80675e-06 2.18357e-06 -9.83e-06)
(4.86696e-06 2.58224e-08 -3.89401e-06 5.10391e-06 2.2503e-06 -9.97087e-06)
(4.94513e-06 2.48175e-07 3.8151e-06 4.91726e-06 1.324e-06 -9.8624e-06)
(4.89603e-06 4.77908e-09 2.9262e-06 4.96807e-06 1.29887e-06 -9.8641e-06)
(4.85223e-06 6.78595e-08 2.07555e-06 4.96238e-06 1.27554e-06 -9.81461e-06)
(4.90806e-06 2.90455e-08 1.24653e-06 4.90899e-06 1.24965e-06 -9.81705e-06)
(4.90453e-06 4.39142e-09 4.11961e-07 4.89665e-06 1.23666e-06 -9.80118e-06)
(4.90481e-06 -1.56905e-08 -4.22947e-07 4.89783e-06 1.23794e-06 -9.80264e-06)
(4.90646e-06 -4.01721e-08 -1.2585e-06 4.91153e-06 1.25367e-06 -9.81799e-06)
(4.84819e-06 -7.94758e-08 -2.08763e-06 4.96587e-06 1.28377e-06 -9.81406e-06)
(4.88948e-06 -1.90045e-08 -2.93531e-06 4.97339e-06 1.31354e-06 -9.86287e-06)
(4.9301e-06 -2.53419e-07 -3.81601e-06 4.92987e-06 1.34312e-06 -9.85997e-06)
(5.01493e-06 6.33509e-08 3.75517e-06 4.82758e-06 4.37545e-07 -9.84251e-06)
(4.88655e-06 -1.00653e-08 2.90718e-06 4.95941e-06 4.26362e-07 -9.84596e-06)
(4.86493e-06 1.84151e-08 2.06004e-06 4.94053e-06 4.20906e-07 -9.80546e-06)
(4.8959e-06 4.35102e-09 1.23409e-06 4.9061e-06 4.13816e-07 -9.80199e-06)
(4.89859e-06 -2.68907e-09 4.0861e-07 4.8992e-06 4.10627e-07 -9.79779e-06)
(4.8978e-06 -6.9891e-09 -4.17183e-07 4.90011e-06 4.11617e-07 -9.79791e-06)
(4.89369e-06 -1.4276e-08 -1.24277e-06 4.908e-06 4.17043e-07 -9.80169e-06)
(4.86195e-06 -2.84532e-08 -2.06851e-06 4.94451e-06 4.27214e-07 -9.80646e-06)
(4.87923e-06 1.10267e-11 -2.91295e-06 4.9668e-06 4.3616e-07 -9.84603e-06)
(5.00319e-06 -6.89466e-08 -3.75518e-06 4.83971e-06 4.49173e-07 -9.8429e-06)
(5.01053e-06 -6.98737e-08 3.75502e-06 4.8308e-06 -4.5859e-07 -9.84133e-06)
(4.88534e-06 -3.46423e-09 2.90913e-06 4.95972e-06 -4.44548e-07 -9.84507e-06)
(4.8662e-06 -3.15429e-08 2.06239e-06 4.93958e-06 -4.3375e-07 -9.80577e-06)
(4.89641e-06 -1.56811e-08 1.23575e-06 4.90479e-06 -4.2205e-07 -9.8012e-06)
(4.8993e-06 -7.05105e-09 4.09798e-07 4.89847e-06 -4.15902e-07 -9.79778e-06)
(4.89887e-06 -1.19859e-09 -4.16486e-07 4.89916e-06 -4.15093e-07 -9.79803e-06)
(4.89443e-06 7.65038e-09 -1.24241e-06 4.90725e-06 -4.19512e-07 -9.80168e-06)
(4.86251e-06 2.32124e-08 -2.06829e-06 4.94391e-06 -4.29121e-07 -9.80642e-06)
(4.87985e-06 -4.15783e-09 -2.91284e-06 4.96625e-06 -4.37756e-07 -9.8461e-06)
(5.00338e-06 6.55826e-08 -3.75514e-06 4.83946e-06 -4.506e-07 -9.84284e-06)
(4.93574e-06 -2.54494e-07 3.81595e-06 4.92255e-06 -1.35036e-06 -9.8583e-06)
(4.89656e-06 -2.06253e-08 2.9324e-06 4.966e-06 -1.32014e-06 -9.86256e-06)
(4.85315e-06 -8.07918e-08 2.08265e-06 4.96017e-06 -1.28935e-06 -9.81331e-06)
(4.91062e-06 -4.05282e-08 1.25228e-06 4.90713e-06 -1.25838e-06 -9.81775e-06)
(4.90809e-06 -1.42371e-08 4.15617e-07 4.89453e-06 -1.24232e-06 -9.80262e-06)
(4.90734e-06 7.59023e-09 -4.20843e-07 4.89546e-06 -1.24167e-06 -9.8028e-06)
(4.90898e-06 3.37558e-08 -1.25731e-06 4.90916e-06 -1.25635e-06 -9.81813e-06)
(4.85033e-06 7.45081e-08 -2.08702e-06 4.96389e-06 -1.28584e-06 -9.81422e-06)
(4.89104e-06 1.51824e-08 -2.93498e-06 4.97193e-06 -1.31525e-06 -9.86298e-06)
(4.9305e-06 2.50356e-07 -3.8158e-06 4.92928e-06 -1.3446e-06 -9.85978e-06)
(4.87093e-06 2.53955e-08 3.89365e-06 5.09841e-06 -2.25623e-06 -9.96934e-06)
(5.03025e-06 -6.68534e-08 2.96872e-06 4.7999e-06 -2.18932e-06 -9.83015e-06)
(4.89533e-06 -1.37989e-07 2.12532e-06 4.88993e-06 -2.13078e-06 -9.78525e-06)
(4.96605e-06 -7.9639e-08 1.28312e-06 4.84957e-06 -2.08859e-06 -9.81561e-06)
(4.94416e-06 -2.8651e-08 4.2618e-07 4.8623e-06 -2.06865e-06 -9.80646e-06)
(4.9437e-06 2.32524e-08 -4.30171e-07 4.86285e-06 -2.06807e-06 -9.80654e-06)
(4.96452e-06 7.44468e-08 -1.28697e-06 4.85137e-06 -2.08685e-06 -9.81589e-06)
(4.89283e-06 1.32913e-07 -2.12852e-06 4.89291e-06 -2.12791e-06 -9.78573e-06)
(5.02606e-06 6.2233e-08 -2.97056e-06 4.80439e-06 -2.18544e-06 -9.83044e-06)
(4.86773e-06 -2.78345e-08 -3.89361e-06 5.10304e-06 -2.25181e-06 -9.97077e-06)
(3.69784e-06 -1.12342e-06 4.08654e-06 6.29041e-06 -3.18417e-06 -9.98825e-06)
(4.87334e-06 -5.03998e-07 3.0507e-06 4.86391e-06 -3.05498e-06 -9.73725e-06)
(4.81247e-06 -6.62235e-08 2.1863e-06 5.02944e-06 -2.97644e-06 -9.8419e-06)
(4.97373e-06 -1.94021e-08 1.31327e-06 4.88985e-06 -2.93678e-06 -9.86358e-06)
(4.96659e-06 -1.54262e-10 4.35553e-07 4.87929e-06 -2.9137e-06 -9.84589e-06)
(4.96612e-06 -4.29811e-09 -4.38402e-07 4.87983e-06 -2.91317e-06 -9.84596e-06)
(4.97233e-06 1.50049e-08 -1.31602e-06 4.89159e-06 -2.9352e-06 -9.86392e-06)
(4.81043e-06 6.22303e-08 -2.1887e-06 5.03207e-06 -2.97385e-06 -9.8425e-06)
(4.86902e-06 5.00662e-07 -3.05213e-06 4.86852e-06 -3.0517e-06 -9.73754e-06)
(3.69571e-06 1.12364e-06 -4.0865e-06 6.29422e-06 -3.18059e-06 -9.98993e-06)
(5.14903e-06 9.79818e-07 4.53314e-06 5.14401e-06 -4.53622e-06 -1.0293e-05)
(6.30007e-06 -1.12665e-06 3.18125e-06 3.69299e-06 -4.09108e-06 -9.99306e-06)
(5.10546e-06 2.60044e-08 2.25072e-06 4.86506e-06 -3.89621e-06 -9.97053e-06)
(4.93061e-06 -2.52815e-07 1.34307e-06 4.92842e-06 -3.81746e-06 -9.85903e-06)
(4.84017e-06 -6.84424e-08 4.49018e-07 5.00207e-06 -3.75626e-06 -9.84224e-06)
(4.83959e-06 6.60143e-08 -4.50782e-07 5.00291e-06 -3.75577e-06 -9.8425e-06)
(4.92913e-06 2.50614e-07 -1.34481e-06 4.93067e-06 -3.81602e-06 -9.85981e-06)
(5.10333e-06 -2.77121e-08 -2.25232e-06 4.86888e-06 -3.89382e-06 -9.9722e-06)
(6.2974e-06 1.12444e-06 -3.18246e-06 3.6977e-06 -4.08803e-06 -9.9951e-06)
(5.14776e-06 -9.77342e-07 -4.53332e-06 5.14837e-06 -4.53298e-06 -1.02961e-05)
(3.50738e-06 2.10532e-07 4.23182e-06 3.47945e-06 4.23785e-06 -6.98682e-06)
(3.73839e-06 2.23258e-07 2.90069e-06 2.83722e-06 3.77159e-06 -6.57561e-06)
(3.20423e-06 -3.31316e-07 2.03892e-06 3.52924e-06 3.6925e-06 -6.73347e-06)
(3.17714e-06 6.8898e-08 1.21295e-06 3.49166e-06 3.63964e-06 -6.6688e-06)
(3.11149e-06 -3.32778e-08 4.02432e-07 3.56993e-06 3.59254e-06 -6.68142e-06)
(3.11038e-06 3.38697e-08 -4.18722e-07 3.56974e-06 3.59264e-06 -6.68012e-06)
(3.16719e-06 -6.84146e-08 -1.23308e-06 3.49457e-06 3.63928e-06 -6.66176e-06)
(3.24201e-06 3.21251e-07 -2.07194e-06 3.5152e-06 3.69266e-06 -6.75721e-06)
(3.72084e-06 -2.2977e-07 -2.95319e-06 2.87155e-06 3.77194e-06 -6.59239e-06)
(3.44922e-06 -1.93527e-07 -4.22223e-06 3.45359e-06 4.21912e-06 -6.90281e-06)
(2.84623e-06 2.25048e-07 3.76752e-06 3.73959e-06 2.90721e-06 -6.58583e-06)
(3.18533e-06 2.70816e-08 2.81107e-06 3.19469e-06 2.81775e-06 -6.38002e-06)
(3.2366e-06 -1.08551e-07 2.02637e-06 3.44012e-06 2.78967e-06 -6.67673e-06)
(3.34515e-06 -4.48201e-08 1.21152e-06 3.39238e-06 2.78308e-06 -6.73753e-06)
(3.31976e-06 -3.26333e-08 3.98044e-07 3.44571e-06 2.7723e-06 -6.76547e-06)
(3.31809e-06 2.81288e-08 -4.13949e-07 3.4463e-06 2.77303e-06 -6.76439e-06)
(3.3389e-06 4.0732e-08 -1.2309e-06 3.39396e-06 2.78596e-06 -6.73286e-06)
(3.2375e-06 1.14164e-07 -2.05556e-06 3.44475e-06 2.80084e-06 -6.68225e-06)
(3.19422e-06 -9.45516e-08 -2.84151e-06 3.19847e-06 2.83757e-06 -6.3927e-06)
(2.86411e-06 -2.30157e-07 -3.77263e-06 3.72193e-06 2.94739e-06 -6.58604e-06)
(3.53081e-06 -3.3352e-07 3.69189e-06 3.2029e-06 2.03943e-06 -6.73371e-06)
(3.44419e-06 -1.09636e-07 2.78873e-06 3.24294e-06 2.03291e-06 -6.68713e-06)
(3.37923e-06 -1.64427e-08 1.99328e-06 3.38087e-06 1.99774e-06 -6.7601e-06)
(3.4134e-06 -1.32427e-09 1.19407e-06 3.38893e-06 1.97422e-06 -6.80233e-06)
(3.37148e-06 3.55821e-10 3.92183e-07 3.43656e-06 1.96254e-06 -6.80804e-06)
(3.37003e-06 -4.9952e-09 -4.05919e-07 3.43736e-06 1.96363e-06 -6.80739e-06)
(3.41118e-06 -1.41962e-09 -1.20972e-06 3.39115e-06 1.97847e-06 -6.80233e-06)
(3.37825e-06 2.11192e-08 -2.01097e-06 3.38136e-06 2.00635e-06 -6.75961e-06)
(3.43571e-06 1.13934e-07 -2.80046e-06 3.23606e-06 2.04767e-06 -6.67177e-06)
(3.51109e-06 3.2172e-07 -3.69482e-06 3.24396e-06 2.06662e-06 -6.75504e-06)
(3.48871e-06 7.28505e-08 3.64034e-06 3.1764e-06 1.2111e-06 -6.66511e-06)
(3.3896e-06 -4.27848e-08 2.78077e-06 3.3461e-06 1.21262e-06 -6.7357e-06)
(3.38889e-06 4.57518e-10 1.97106e-06 3.41386e-06 1.19684e-06 -6.80275e-06)
(3.42624e-06 -1.79544e-08 1.17793e-06 3.42588e-06 1.18086e-06 -6.85213e-06)
(3.40628e-06 -6.59647e-09 3.87293e-07 3.4496e-06 1.17321e-06 -6.85588e-06)
(3.40615e-06 3.09324e-09 -3.98584e-07 3.45043e-06 1.17445e-06 -6.85659e-06)
(3.4245e-06 1.57784e-08 -1.18989e-06 3.42693e-06 1.1845e-06 -6.85143e-06)
(3.387e-06 -1.158e-09 -1.9827e-06 3.41317e-06 1.20391e-06 -6.80018e-06)
(3.38966e-06 4.01086e-08 -2.78959e-06 3.3414e-06 1.22486e-06 -6.73106e-06)
(3.49089e-06 -7.0354e-08 -3.64218e-06 3.16985e-06 1.22709e-06 -6.66074e-06)
(3.56724e-06 -3.28882e-08 3.59484e-06 3.11263e-06 4.00455e-07 -6.67987e-06)
(3.44338e-06 -3.06417e-08 2.77123e-06 3.32075e-06 3.976e-07 -6.76413e-06)
(3.43475e-06 2.46704e-09 1.95996e-06 3.37174e-06 3.93177e-07 -6.80649e-06)
(3.44967e-06 -5.76525e-09 1.17082e-06 3.40649e-06 3.89106e-07 -6.85616e-06)
(3.43637e-06 -2.73887e-09 3.86122e-07 3.43591e-06 3.88076e-07 -6.87228e-06)
(3.4357e-06 -1.34856e-10 -3.9519e-07 3.43629e-06 3.89013e-07 -6.87199e-06)
(3.44822e-06 3.33584e-09 -1.17981e-06 3.40656e-06 3.92135e-07 -6.85478e-06)
(3.43428e-06 -4.29167e-09 -1.96861e-06 3.37152e-06 3.98982e-07 -6.80581e-06)
(3.44187e-06 2.83586e-08 -2.77733e-06 3.32042e-06 4.06485e-07 -6.76229e-06)
(3.56563e-06 3.22535e-08 -3.59541e-06 3.11339e-06 4.11156e-07 -6.67902e-06)
(3.56776e-06 3.42069e-08 3.59495e-06 3.11136e-06 -4.2056e-07 -6.67912e-06)
(3.4431e-06 2.93411e-08 2.77309e-06 3.31921e-06 -4.14944e-07 -6.76231e-06)
(3.43555e-06 -3.49426e-09 1.96207e-06 3.37026e-06 -4.05828e-07 -6.8058e-06)
(3.4494e-06 4.34996e-09 1.17229e-06 3.40518e-06 -3.97669e-07 -6.85458e-06)
(3.43632e-06 3.8078e-10 3.87243e-07 3.43525e-06 -3.93953e-07 -6.87157e-06)
(3.43611e-06 -2.7378e-09 -3.94482e-07 3.43544e-06 -3.93136e-07 -6.87155e-06)
(3.44846e-06 -6.20384e-09 -1.17937e-06 3.40592e-06 -3.95169e-07 -6.85438e-06)
(3.43446e-06 1.61836e-09 -1.96832e-06 3.37101e-06 -4.01316e-07 -6.80547e-06)
(3.44207e-06 -3.09091e-08 -2.77714e-06 3.32003e-06 -4.08335e-07 -6.7621e-06)
(3.56584e-06 -3.47767e-08 -3.59526e-06 3.11309e-06 -4.12616e-07 -6.67893e-06)
(3.49422e-06 -6.9224e-08 3.64196e-06 3.16673e-06 -1.23461e-06 -6.66095e-06)
(3.39171e-06 4.16469e-08 2.78616e-06 3.33872e-06 -1.23178e-06 -6.73043e-06)
(3.38855e-06 4.04608e-11 1.97717e-06 3.41039e-06 -1.20992e-06 -6.79894e-06)
(3.42613e-06 1.68814e-08 1.1831e-06 3.4242e-06 -1.18974e-06 -6.85033e-06)
(3.40715e-06 4.37038e-09 3.90727e-07 3.44792e-06 -1.1794e-06 -6.85507e-06)
(3.40665e-06 -5.72111e-09 -3.96466e-07 3.44853e-06 -1.17875e-06 -6.85519e-06)
(3.42544e-06 -1.82639e-08 -1.18857e-06 3.42497e-06 -1.1877e-06 -6.85042e-06)
(3.38784e-06 -1.10005e-09 -1.98185e-06 3.41165e-06 -1.20637e-06 -6.79949e-06)
(3.39001e-06 -4.22563e-08 -2.78899e-06 3.34046e-06 -1.22682e-06 -6.73047e-06)
(3.4912e-06 6.82592e-08 -3.64169e-06 3.16936e-06 -1.22865e-06 -6.66055e-06)
(3.51493e-06 3.21501e-07 3.69431e-06 3.24085e-06 -2.07289e-06 -6.75579e-06)
(3.43749e-06 1.14497e-07 2.79744e-06 3.23306e-06 -2.05373e-06 -6.67056e-06)
(3.37999e-06 2.21019e-08 2.00599e-06 3.378e-06 -2.0119e-06 -6.758e-06)
(3.41317e-06 3.04743e-10 1.20326e-06 3.38741e-06 -1.98365e-06 -6.80058e-06)
(3.37152e-06 -3.00947e-09 3.97896e-07 3.43372e-06 -1.96873e-06 -6.80524e-06)
(3.37123e-06 2.83156e-09 -4.02384e-07 3.43411e-06 -1.96817e-06 -6.80534e-06)
(3.41236e-06 -4.73354e-10 -1.20748e-06 3.38854e-06 -1.98191e-06 -6.80091e-06)
(3.37912e-06 -2.24706e-08 -2.00949e-06 3.37954e-06 -2.00902e-06 -6.75866e-06)
(3.43627e-06 -1.15059e-07 -2.79943e-06 3.23487e-06 -2.04978e-06 -6.67114e-06)
(3.5111e-06 -3.22048e-07 -3.69406e-06 3.2438e-06 -2.06827e-06 -6.7549e-06)
(2.86985e-06 -2.30103e-07 3.77165e-06 3.71821e-06 -2.95268e-06 -6.58806e-06)
(3.19741e-06 -9.45785e-08 2.8384e-06 3.1937e-06 -2.84298e-06 -6.39111e-06)
(3.24018e-06 1.14843e-07 2.05075e-06 3.44025e-06 -2.80611e-06 -6.68043e-06)