/*--------------------------------*- C++ -*----------------------------------*\
| =========                 |                                                 |
| \\      /  F ield         | OpenFOAM: The Open Source CFD Toolbox           |
|  \\    /   O peration     | Version:  2406                                  |
|   \\  /    A nd           | Website:  www.openfoam.com                      |
|    \\/     M anipulation  |                                                 |
\*---------------------------------------------------------------------------*/
FoamFile
{
    version     2.0;
    format      ascii;
    arch        "LSB;label=32;scalar=64";
    class       volVectorField;
    location    "300";
    object      U;
}
// * * * * * * * * * * * * * * * * * * * * * * * * * * * * * * * * * * * * * //

dimensions      [0 1 -1 0 0 0 0];

internalField   nonuniform List<vector> 
25000
(
(0.00532218 0.00531641 1.00325)
(0.00374031 0.00482179 1.00301)
(0.00261505 0.00460054 1.00283)
(0.0015524 0.00447212 1.00271)
(0.000515962 0.00440642 1.00264)
(-0.000509369 0.00440691 1.00264)
(-0.00154328 0.00447418 1.00271)
(-0.00259996 0.00460244 1.00283)
(-0.00369923 0.00482178 1.00301)
(-0.00532512 0.00532504 1.00325)
(0.00483492 0.00373473 1.00301)
(0.00355964 0.00355167 1.00273)
(0.00249014 0.0034312 1.00254)
(0.00147917 0.00335226 1.00242)
(0.000492047 0.00331322 1.00236)
(-0.000484955 0.00331321 1.00236)
(-0.00147083 0.00335189 1.00242)
(-0.0024794 0.00342846 1.00254)
(-0.0035428 0.00354357 1.00273)
(-0.00482106 0.00369981 1.00301)
(0.00460783 0.00261321 1.00283)
(0.00343874 0.00248539 1.00254)
(0.00240186 0.00239618 1.00234)
(0.00142374 0.00233479 1.00221)
(0.000473489 0.002304 1.00215)
(-0.000466487 0.00230389 1.00215)
(-0.00141619 0.00233411 1.00221)
(-0.00239288 0.00239428 1.00234)
(-0.00342765 0.0024807 1.00254)
(-0.00460199 0.00260103 1.00283)
(0.00447703 0.00155233 1.0027)
(0.00335808 0.00147632 1.00242)
(0.00234006 0.00141979 1.00221)
(0.00138356 0.00137916 1.00208)
(0.000459672 0.00135842 1.00202)
(-0.000452903 0.00135825 1.00202)
(-0.00137643 0.00137853 1.00208)
(-0.0023327 0.00141821 1.00221)
(-0.00335115 0.00147277 1.00242)
(-0.00447391 0.00154483 1.00271)
(0.00440859 0.000516557 1.00264)
(0.00331766 0.000490673 1.00235)
(0.00230867 0.000470888 1.00215)
(0.00136254 0.000456454 1.00202)
(0.000452396 0.000448956 1.00196)
(-0.000445898 0.000448782 1.00196)
(-0.00135611 0.000455758 1.00202)
(-0.00230238 0.000469358 1.00215)
(-0.00331253 0.000487765 1.00236)
(-0.0044072 0.000511889 1.00265)
(0.00440831 -0.000508354 1.00264)
(0.00331616 -0.000485345 1.00236)
(0.00230754 -0.000468027 1.00215)
(0.00136198 -0.000455149 1.00202)
(0.00045204 -0.000448469 1.00196)
(-0.000446028 -0.000448712 1.00196)
(-0.00135611 -0.000455843 1.00202)
(-0.00230236 -0.00046944 1.00215)
(-0.00331248 -0.000487765 1.00236)
(-0.00440714 -0.000511789 1.00265)
(0.00447434 -0.00154207 1.00271)
(0.00335392 -0.00147069 1.00242)
(0.00233696 -0.00141684 1.00221)
(0.00138162 -0.00137777 1.00208)
(0.000458741 -0.00135783 1.00202)
(-0.000453299 -0.00135805 1.00202)
(-0.0013765 -0.00137847 1.00208)
(-0.00233256 -0.00141817 1.00221)
(-0.00335096 -0.00147266 1.00242)
(-0.00447375 -0.00154466 1.00271)
(0.00460233 -0.00259862 1.00283)
(0.00342964 -0.00247864 1.00254)
(0.00239641 -0.00239286 1.00234)
(0.00142077 -0.00233307 1.00221)
(0.000471936 -0.00230322 1.00215)
(-0.000467079 -0.0023034 1.00215)
(-0.00141626 -0.00233382 1.00221)
(-0.00239271 -0.002394 1.00234)
(-0.00342735 -0.00248042 1.00254)
(-0.00460172 -0.00260073 1.00283)
(0.00482134 -0.00369792 1.00301)
(0.00354437 -0.00354173 1.00273)
(0.00248234 -0.00342688 1.00254)
(0.00147486 -0.00335075 1.00242)
(0.000489972 -0.00331244 1.00236)
(-0.000485701 -0.00331268 1.00236)
(-0.00147095 -0.00335142 1.00242)
(-0.00247913 -0.00342799 1.00254)
(-0.00354242 -0.00354315 1.00273)
(-0.00482071 -0.00369945 1.00301)
(0.00532504 -0.00532405 1.00325)
(0.00370052 -0.00481959 1.00301)
(0.00260234 -0.00460072 1.00283)
(0.00154653 -0.00447282 1.00271)
(0.000513712 -0.00440638 1.00265)
(-0.00051006 -0.00440659 1.00265)
(-0.00154317 -0.00447352 1.00271)
(-0.00259961 -0.00460177 1.00283)
(-0.00369875 -0.00482106 1.00301)
(-0.00532448 -0.00532481 1.00325)
(0.00711388 0.00711967 1.01894)
(0.00485402 0.00633475 1.01805)
(0.00344584 0.0063772 1.01737)
(0.00205269 0.00635082 1.01691)
(0.000675231 0.0063286 1.01668)
(-0.000700364 0.00632906 1.01668)
(-0.00208311 0.00635138 1.01692)
(-0.00349144 0.00638027 1.01738)
(-0.00498005 0.0063513 1.01808)
(-0.00710933 0.00710402 1.01899)
(0.00632889 0.00485626 1.01805)
(0.00482141 0.00482627 1.01701)
(0.00351708 0.00486478 1.01627)
(0.00211462 0.00490626 1.01577)
(0.000697573 0.00492829 1.01552)
(-0.000720622 0.00492979 1.01552)
(-0.00214103 0.00491159 1.01577)
(-0.00354978 0.00487791 1.01628)
(-0.00486502 0.00485884 1.01704)
(-0.00635553 0.00497359 1.01808)
(0.00637862 0.00344311 1.01737)
(0.00486188 0.00351769 1.01626)
(0.00352633 0.0035277 1.01547)
(0.00212782 0.00353437 1.01494)
(0.000704229 0.00354017 1.01467)
(-0.000722798 0.00354214 1.01468)
(-0.00214773 0.00354108 1.01494)
(-0.00354864 0.00354128 1.01548)
(-0.00488389 0.00354225 1.01628)
(-0.00638447 0.00348369 1.01739)
(0.00635201 0.0020499 1.01691)
(0.00490546 0.00211391 1.01576)
(0.0035336 0.00212786 1.01494)
(0.0021294 0.00212972 1.01439)
(0.000706411 0.00213169 1.01412)
(-0.000720617 0.00213355 1.01412)
(-0.00214422 0.00213563 1.01439)
(-0.00354837 0.00213889 1.01494)
(-0.0049175 0.0021316 1.01578)
(-0.00635558 0.00207362 1.01692)
(0.00633098 0.000673009 1.01668)
(0.00492834 0.00069619 1.01552)
(0.00353981 0.000703551 1.01467)
(0.00213168 0.00070606 1.01412)
(0.000708285 0.000708055 1.01385)
(-0.000718967 0.000709567 1.01385)
(-0.00214227 0.00071085 1.01412)
(-0.00354998 0.000712087 1.01468)
(-0.00493598 0.000708809 1.01552)
(-0.00633292 0.000688198 1.01668)
(0.00633068 -0.000702281 1.01668)
(0.0049306 -0.000722144 1.01552)
(0.00354242 -0.000723751 1.01467)
(0.00213371 -0.000721223 1.01412)
(0.000709934 -0.000719434 1.01385)
(-0.000717792 -0.000718196 1.01385)
(-0.00214148 -0.000717532 1.01412)
(-0.00354933 -0.000717373 1.01468)
(-0.00493554 -0.000713098 1.01552)
(-0.00633266 -0.000691758 1.01669)
(0.00635337 -0.00208456 1.01691)
(0.00491253 -0.00214224 1.01577)
(0.00354159 -0.00214876 1.01494)
(0.00213609 -0.0021449 1.01439)
(0.000711274 -0.00214284 1.01412)
(-0.000717084 -0.00214191 1.01412)
(-0.00214165 -0.00214208 1.0144)
(-0.00354663 -0.00214399 1.01494)
(-0.00491627 -0.00213579 1.01578)
(-0.00635476 -0.00207711 1.01692)
(0.00638176 -0.00349254 1.01738)
(0.004879 -0.00355097 1.01628)
(0.00354202 -0.00354953 1.01547)
(0.00213947 -0.00354919 1.01494)
(0.000712662 -0.00355055 1.01468)
(-0.000716883 -0.00354987 1.01468)
(-0.00214358 -0.00354702 1.01494)
(-0.00354565 -0.00354607 1.01548)
(-0.00488181 -0.00354619 1.01628)
(-0.0063832 -0.00348709 1.01739)
(0.00635291 -0.00498108 1.01808)
(0.00485987 -0.00486608 1.01704)
(0.00354302 -0.00488486 1.01628)
(0.00213232 -0.00491829 1.01577)
(0.000709473 -0.00493662 1.01552)
(-0.000712502 -0.00493607 1.01552)
(-0.00213527 -0.00491668 1.01578)
(-0.0035458 -0.00488216 1.01628)
(-0.00486219 -0.00486253 1.01704)
(-0.0063539 -0.00497688 1.01808)
(0.00710512 -0.00711023 1.01899)
(0.00497447 -0.00635628 1.01808)
(0.00348453 -0.00638505 1.01738)
(0.00207443 -0.006356 1.01692)
(0.000688971 -0.00633326 1.01668)
(-0.000691059 -0.00633295 1.01668)
(-0.00207652 -0.00635505 1.01692)
(-0.00348658 -0.00638345 1.01739)
(-0.0049765 -0.00635409 1.01808)
(-0.00710675 -0.00710704 1.01899)
(0.00527624 0.00527866 1.03496)
(0.00368016 0.00469767 1.03388)
(0.0025544 0.00495065 1.03307)
(0.00150829 0.00497391 1.03252)
(0.000490981 0.00499605 1.03225)
(-0.000512185 0.00499711 1.03225)
(-0.00153004 0.00497569 1.03253)
(-0.00257458 0.00495546 1.03309)
(-0.00374397 0.00471083 1.03392)
(-0.00528788 0.00528302 1.03504)
(0.00469288 0.0036804 1.03388)
(0.00365969 0.00366184 1.03265)
(0.00268924 0.00375944 1.03173)
(0.00160426 0.00382904 1.03111)
(0.000528074 0.0038691 1.0308)
(-0.000546969 0.00387053 1.0308)
(-0.00162306 0.00383343 1.03112)
(-0.00270597 0.0037678 1.03175)
(-0.00367928 0.0036737 1.03268)
(-0.00471412 0.00373797 1.03392)
(0.00495084 0.00255252 1.03306)
(0.00375827 0.00268878 1.03173)
(0.00273242 0.00273226 1.03073)
(0.00163376 0.00276372 1.03007)
(0.000538344 0.00278061 1.02973)
(-0.000553914 0.00278214 1.02973)
(-0.00164874 0.00276856 1.03007)
(-0.0027472 0.00274018 1.03075)
(-0.0037733 0.00269881 1.03175)
(-0.0049589 0.00256709 1.03309)
(0.00497223 0.00150728 1.03252)
(0.00382855 0.00160404 1.03111)
(0.00276404 0.0016332 1.03006)
(0.00165641 0.00165602 1.02937)
(0.000547285 0.00166909 1.02902)
(-0.000559707 0.00167055 1.02902)
(-0.00166872 0.00166025 1.02937)
(-0.00277552 0.00164018 1.03008)
(-0.00383885 0.00161395 1.03112)
(-0.0049791 0.00152105 1.03253)
(0.00499581 0.000489959 1.03224)
(0.00386845 0.000527398 1.0308)
(0.0027806 0.000537658 1.02973)
(0.00166968 0.000546497 1.02902)
(0.000552927 0.000552252 1.02867)
(-0.000562796 0.000553435 1.02867)
(-0.00167905 0.000550206 1.02903)
(-0.00278954 0.000543838 1.02974)
(-0.00387617 0.000536112 1.03081)
(-0.00500008 0.000500997 1.03225)
(0.00499621 -0.000513669 1.03224)
(0.0038704 -0.000548056 1.0308)
(0.00278237 -0.000554803 1.02973)
(0.00167096 -0.000560575 1.02902)
(0.000554234 -0.000563694 1.02867)
(-0.000561759 -0.000562598 1.02867)
(-0.00167827 -0.0005575 1.02903)
(-0.00278884 -0.000549649 1.02974)
(-0.00387563 -0.000540771 1.03081)
(-0.00499972 -0.000504716 1.03226)
(0.00497619 -0.00153169 1.03253)
(0.00383337 -0.00162413 1.03112)
(0.00276879 -0.0016499 1.03007)
(0.00166084 -0.00166965 1.02937)
(0.000550915 -0.00168004 1.02902)
(-0.000556614 -0.00167922 1.02903)
(-0.00166618 -0.00166712 1.02938)
(-0.00277364 -0.00164565 1.03008)
(-0.0038374 -0.00161838 1.03112)
(-0.00497804 -0.00152464 1.03254)
(0.00495596 -0.00257613 1.03308)
(0.00376814 -0.00270748 1.03175)
(0.00274058 -0.00274825 1.03075)
(0.00164078 -0.0027767 1.03007)
(0.00054461 -0.00279052 1.02974)
(-0.000548799 -0.00278992 1.02974)
(-0.00164474 -0.00277462 1.03008)
(-0.00274403 -0.00274504 1.03075)
(-0.00377091 -0.00270281 1.03175)
(-0.00495725 -0.00257048 1.03309)
(0.00471183 -0.00374573 1.03392)
(0.00367417 -0.00368084 1.03268)
(0.0026994 -0.0037746 1.03175)
(0.00161463 -0.00384002 1.03112)
(0.000536921 -0.00387726 1.03081)
(-0.000539927 -0.00387671 1.03081)
(-0.00161744 -0.0038384 1.03112)
(-0.00270186 -0.00377187 1.03175)
(-0.00367622 -0.00367715 1.03268)
(-0.00471227 -0.0037411 1.03392)
(0.00528367 -0.00528921 1.03504)
(0.00373862 -0.0047154 1.03392)
(0.00256786 -0.00495982 1.03309)
(0.00152185 -0.00498007 1.03253)
(0.000501844 -0.00500103 1.03225)
(-0.000503825 -0.00500071 1.03225)
(-0.00152367 -0.00497899 1.03254)
(-0.00256948 -0.00495813 1.03309)
(-0.00374015 -0.00471298 1.03392)
(-0.00528494 -0.00528568 1.03504)
(0.00356335 0.00356357 1.04578)
(0.002631 0.00332324 1.04471)
(0.00180799 0.00365991 1.04393)
(0.00107477 0.00370283 1.04341)
(0.000346908 0.00376336 1.04315)
(-0.000353852 0.00376382 1.04315)
(-0.00108083 0.00370274 1.04342)
(-0.00180768 0.00366071 1.04394)
(-0.00266621 0.00332775 1.04474)
(-0.00356311 0.00356096 1.04584)
(0.00331993 0.00262979 1.04471)
(0.00266904 0.00266953 1.04352)
(0.00194732 0.00279685 1.04263)
(0.0011589 0.00285724 1.04203)
(0.00038504 0.00289979 1.04173)
(-0.00039115 0.00290041 1.04173)
(-0.00116381 0.00285898 1.04204)
(-0.0019479 0.00279969 1.04264)
(-0.00267131 0.00266961 1.04355)
(-0.00332826 0.00266423 1.04475)
(0.00366071 0.00180612 1.04392)
(0.00279712 0.001946 1.04262)
(0.00201755 0.00201615 1.04166)
(0.00119275 0.00205757 1.04101)
(0.000395127 0.00207739 1.04069)
(-0.00039993 0.00207796 1.04069)
(-0.00119653 0.0020593 1.04102)
(-0.00202061 0.00201808 1.04167)
(-0.00280144 0.00194533 1.04265)
(-0.0036615 0.00180503 1.04395)
(0.00370074 0.00107491 1.0434)
(0.00285726 0.00115875 1.04203)
(0.00205879 0.00119166 1.04101)
(0.00122413 0.00122304 1.04033)
(0.000405675 0.00123845 1.04)
(-0.000409416 0.00123897 1.04)
(-0.00122761 0.00122429 1.04034)
(-0.00206175 0.00119324 1.04102)
(-0.00286051 0.0011603 1.04204)
(-0.0037033 0.00107782 1.04342)
(0.00376184 0.000347381 1.04314)
(0.002899 0.000385113 1.04173)
(0.00207786 0.000394552 1.04069)
(0.00123957 0.000404644 1.03999)
(0.000410835 0.000409826 1.03965)
(-0.000413862 0.000410174 1.03965)
(-0.00124222 0.000405753 1.04)
(-0.00208054 0.000396123 1.04069)
(-0.00290182 0.00038712 1.04174)
(-0.00376368 0.000350003 1.04315)
(0.00376133 -0.000353502 1.04314)
(0.00289946 -0.000391021 1.04173)
(0.00207812 -0.000400178 1.04069)
(0.00123964 -0.000410046 1.04)
(0.000411213 -0.000414746 1.03965)
(-0.000413494 -0.000414386 1.03965)
(-0.00124189 -0.000409211 1.04)
(-0.00208015 -0.00039888 1.0407)
(-0.00290146 -0.000389233 1.04174)
(-0.00376335 -0.00035146 1.04316)
(0.00370103 -0.00108039 1.04341)
(0.00285765 -0.0011633 1.04204)
(0.00205906 -0.00119653 1.04101)
(0.00122479 -0.0012278 1.04034)
(0.000406503 -0.00124277 1.04)
(-0.000408333 -0.00124259 1.04)
(-0.0012265 -0.00122729 1.04034)
(-0.00206081 -0.00119564 1.04102)
(-0.00285964 -0.00116219 1.04204)
(-0.00370241 -0.00107915 1.04342)
(0.00365864 -0.00180681 1.04394)
(0.00279838 -0.00194735 1.04264)
(0.00201759 -0.00201996 1.04167)
(0.00119339 -0.00206163 1.04102)
(0.000396636 -0.00208059 1.04069)
(-0.000398245 -0.00208067 1.04069)
(-0.00119495 -0.00206145 1.04102)
(-0.0020191 -0.00201991 1.04167)
(-0.00280008 -0.00194688 1.04265)
(-0.00366017 -0.00180634 1.04395)
(0.00332588 -0.00266546 1.04474)
(0.00266819 -0.00267046 1.04355)
(0.00194471 -0.00280053 1.04264)
(0.0011601 -0.00285989 1.04204)
(0.000387231 -0.00290159 1.04174)
(-0.000388984 -0.00290171 1.04174)
(-0.00116175 -0.00286025 1.04204)
(-0.00194629 -0.00280098 1.04265)
(-0.00266991 -0.00267083 1.04355)
(-0.00332724 -0.00266559 1.04475)
(0.00355917 -0.00356184 1.04584)
(0.00266307 -0.00332672 1.04474)
(0.0018043 -0.00365965 1.04395)
(0.00107723 -0.00370205 1.04342)
(0.000349608 -0.00376296 1.04315)
(-0.000351729 -0.0037634 1.04315)
(-0.00107923 -0.00370313 1.04342)
(-0.00180607 -0.00366147 1.04395)
(-0.00266484 -0.00332851 1.04475)
(-0.00356158 -0.00356263 1.04584)
(0.00235746 0.00236024 1.05227)
(0.00191894 0.00234443 1.05125)
(0.00130746 0.00263191 1.05051)
(0.000792157 0.00266682 1.05002)
(0.000250504 0.00274101 1.04977)
(-0.000249705 0.00274088 1.04977)
(-0.000789642 0.00266481 1.05002)
(-0.00129616 0.00262914 1.05052)
(-0.00193149 0.00234129 1.05127)
(-0.00235095 0.00235031 1.05231)
(0.00233864 0.00191774 1.05124)
(0.00195329 0.0019543 1.05011)
(0.00140886 0.00206686 1.04926)
(0.000847872 0.0021009 1.04869)
(0.000284262 0.0021397 1.04841)
(-0.000283636 0.00213975 1.04841)
(-0.000845599 0.00210091 1.0487)
(-0.00140128 0.00206626 1.04927)
(-0.00194699 0.00194743 1.05013)
(-0.00234007 0.00193182 1.05127)
(0.0026302 0.00130544 1.0505)
(0.00206659 0.00140753 1.04926)
(0.00148861 0.00148719 1.04833)
(0.000881795 0.00152508 1.04771)
(0.000295686 0.00154565 1.04741)
(-0.000295106 0.00154564 1.04741)
(-0.000879909 0.00152495 1.04772)
(-0.00148584 0.00148571 1.04834)
(-0.00206583 0.00140125 1.04927)
(-0.00262777 0.00129634 1.05052)
(0.00266218 0.000792547 1.05001)
(0.00210002 0.000847752 1.04869)
(0.0015262 0.000880579 1.04771)
(0.000911271 0.000910039 1.04707)
(0.000305554 0.000923845 1.04675)
(-0.000305073 0.000923849 1.04675)
(-0.000910463 0.000909739 1.04707)
(-0.0015249 0.000879333 1.04772)
(-0.00209999 0.000845001 1.0487)
(-0.00266269 0.000789857 1.05002)
(0.00273693 0.000250975 1.04977)
(0.00213781 0.000284312 1.04841)
(0.00154587 0.00029501 1.04741)
(0.000925066 0.000304337 1.04675)
(0.000309185 0.000308006 1.04642)
(-0.00030894 0.000307964 1.04642)
(-0.00092441 0.000304207 1.04675)
(-0.00154557 0.000294358 1.04741)
(-0.00213854 0.000283023 1.04842)
(-0.00273774 0.000249495 1.04978)
(0.00273598 -0.000249706 1.04977)
(0.00213776 -0.000283733 1.04841)
(0.00154552 -0.000295538 1.04741)
(0.000924573 -0.000305914 1.04675)
(0.000309187 -0.000310044 1.04642)
(-0.000308886 -0.000309989 1.04642)
(-0.00092438 -0.000306015 1.04675)
(-0.00154535 -0.000295905 1.04741)
(-0.00213839 -0.000284333 1.04842)
(-0.00273765 -0.000250605 1.04978)
(0.00266117 -0.000790081 1.05002)
(0.00209872 -0.000845561 1.0487)
(0.0015245 -0.000880281 1.04772)
(0.000910317 -0.000910947 1.04707)
(0.000305133 -0.000925281 1.04675)
(-0.000304917 -0.000925302 1.04675)
(-0.000910045 -0.000911059 1.04707)
(-0.00152464 -0.000880478 1.04772)
(-0.00209976 -0.000845991 1.0487)
(-0.00266248 -0.000790643 1.05003)
(0.00262598 -0.00129651 1.05052)
(0.00206457 -0.00140153 1.04927)
(0.0014852 -0.00148575 1.04834)
(0.000879629 -0.00152537 1.04772)
(0.000295139 -0.00154606 1.04741)
(-0.000294965 -0.00154623 1.04741)
(-0.00087957 -0.00152546 1.04772)
(-0.00148529 -0.00148626 1.04834)
(-0.00206535 -0.00140179 1.04927)
(-0.00262731 -0.00129692 1.05052)
(0.00233923 -0.00193209 1.05127)
(0.00194604 -0.00194724 1.05013)
(0.00140078 -0.00206586 1.04927)
(0.000845067 -0.00210032 1.0487)
(0.00028356 -0.00213904 1.04841)
(-0.000283597 -0.00213912 1.04841)
(-0.00084513 -0.00210053 1.0487)
(-0.001401 -0.00206621 1.04927)
(-0.00194679 -0.00194757 1.05013)
(-0.0023401 -0.00193231 1.05127)
(0.00234883 -0.00235094 1.05231)
(0.00193097 -0.00234018 1.05127)
(0.00129595 -0.00262756 1.05052)
(0.00078977 -0.00266305 1.05002)
(0.000249886 -0.00273828 1.04977)
(-0.000249972 -0.00273846 1.04977)
(-0.000789947 -0.00266338 1.05003)
(-0.0012961 -0.00262836 1.05052)
(-0.00193148 -0.00234077 1.05127)
(-0.0023504 -0.00235075 1.05231)
(0.00183676 0.00183511 1.05681)
(0.00161702 0.00188512 1.05584)
(0.00109228 0.00205916 1.05514)
(0.000674556 0.00206519 1.05467)
(0.000206038 0.00212589 1.05444)
(-0.000208014 0.00212623 1.05444)
(-0.000675242 0.00206453 1.05467)
(-0.00108427 0.00205887 1.05514)
(-0.00162569 0.00188536 1.05585)
(-0.00183441 0.00183025 1.05684)
(0.00188539 0.00161246 1.05583)
(0.00159819 0.00159503 1.05476)
(0.00113144 0.00165769 1.05395)
(0.000690113 0.0016519 1.05342)
(0.000229103 0.00167713 1.05315)
(-0.000230323 0.00167743 1.05315)
(-0.000689979 0.0016529 1.05342)
(-0.00112607 0.00165889 1.05396)
(-0.00159357 0.00159059 1.05477)
(-0.00188787 0.0016227 1.05585)
(0.00206195 0.0010894 1.05513)
(0.00166137 0.00112812 1.05395)
(0.0011909 0.00118711 1.05307)
(0.000710413 0.0012016 1.05249)
(0.000238879 0.00121544 1.0522)
(-0.000239762 0.00121559 1.0522)
(-0.000710061 0.001202 1.0525)
(-0.00118957 0.00118668 1.05308)
(-0.00166201 0.00112335 1.05396)
(-0.00206141 0.00108171 1.05514)
(0.00206463 0.000675229 1.05467)
(0.00165432 0.00068941 1.05342)
(0.00120492 0.000708109 1.05249)
(0.000723618 0.000721209 1.05188)
(0.000244407 0.000728228 1.05158)
(-0.000245088 0.000728318 1.05158)
(-0.000724042 0.000721284 1.05188)
(-0.00120477 0.000707461 1.0525)
(-0.00165573 0.000687259 1.05342)
(-0.00206701 0.000672992 1.05467)
(0.00212552 0.000207121 1.05443)
(0.00167814 0.000229308 1.05315)
(0.00121762 0.000238022 1.0522)
(0.000730582 0.000242834 1.05158)
(0.000245677 0.00024413 1.05127)
(-0.000246446 0.000244162 1.05127)
(-0.00073096 0.000242874 1.05158)
(-0.00121855 0.000237585 1.0522)
(-0.00168041 0.000228142 1.05315)
(-0.0021283 0.000205737 1.05444)
(0.00212457 -0.000206756 1.05443)
(0.00167805 -0.000229639 1.05315)
(0.00121723 -0.000239694 1.0522)
(0.000730059 -0.000245597 1.05158)
(0.000245743 -0.000247291 1.05127)
(-0.000246368 -0.000247221 1.05127)
(-0.000730964 -0.000245642 1.05158)
(-0.00121826 -0.000240045 1.0522)
(-0.00168025 -0.000230337 1.05315)
(-0.00212825 -0.000207783 1.05444)
(0.00206353 -0.000673988 1.05467)
(0.00165285 -0.000688649 1.05342)
(0.00120304 -0.00070939 1.05249)
(0.000722733 -0.000723615 1.05188)
(0.000244079 -0.000731035 1.05158)
(-0.000244797 -0.00073103 1.05158)
(-0.000723483 -0.000723718 1.05188)
(-0.00120453 -0.000709601 1.0525)
(-0.00165554 -0.000689165 1.05342)
(-0.00206695 -0.000674665 1.05467)
(0.00205764 -0.0010828 1.05514)
(0.00165909 -0.00112472 1.05396)
(0.00118746 -0.00118803 1.05308)
(0.000708473 -0.00120399 1.05249)
(0.000238651 -0.00121774 1.0522)
(-0.000239346 -0.00121791 1.0522)
(-0.000709511 -0.001204 1.0525)
(-0.00118877 -0.0011885 1.05308)
(-0.00166144 -0.00112491 1.05396)
(-0.00206099 -0.00108308 1.05514)
(0.00188517 -0.00162419 1.05585)
(0.00159085 -0.00159194 1.05477)
(0.0011239 -0.00166037 1.05396)
(0.000687965 -0.00165448 1.05342)
(0.000228904 -0.00167927 1.05315)
(-0.000229759 -0.00167932 1.05315)
(-0.000688962 -0.00165448 1.05342)
(-0.00112538 -0.00166049 1.05396)
(-0.00159297 -0.00159199 1.05477)
(-0.00188761 -0.00162406 1.05585)
(0.00183034 -0.00183221 1.05684)
(0.00162314 -0.00188621 1.05585)
(0.00108216 -0.00205961 1.05514)
(0.000673513 -0.0020657 1.05467)
(0.000206495 -0.00212695 1.05444)
(-0.000207145 -0.00212696 1.05444)
(-0.000674478 -0.00206555 1.05467)
(-0.0010833 -0.00205976 1.05514)
(-0.00162486 -0.00188612 1.05585)
(-0.00183298 -0.00183145 1.05684)
(0.00182398 0.00181863 1.06104)
(0.00161859 0.00186839 1.06009)
(0.0010918 0.00196144 1.05941)
(0.000682091 0.0019538 1.05895)
(0.000203447 0.00199838 1.05872)
(-0.000211883 0.00199954 1.05872)
(-0.000689692 0.00195544 1.05895)
(-0.00109203 0.00196484 1.05941)
(-0.00163044 0.00187396 1.0601)
(-0.00182894 0.00182154 1.06106)
(0.00187382 0.00161238 1.06009)
(0.0015658 0.00155982 1.05905)
(0.00109639 0.00159234 1.05827)
(0.000674078 0.00156514 1.05776)
(0.000218811 0.00158164 1.0575)
(-0.000225313 0.00158235 1.0575)
(-0.000679649 0.00156755 1.05776)
(-0.00109725 0.00159608 1.05828)
(-0.00156667 0.00155988 1.05906)
(-0.00188014 0.00162355 1.0601)
(0.00196774 0.00108946 1.0594)
(0.00159839 0.0010924 1.05827)
(0.00114064 0.00113594 1.05743)
(0.000686225 0.00113323 1.05687)
(0.00022852 0.00114299 1.05659)
(-0.000233959 0.00114347 1.05659)
(-0.000690581 0.00113464 1.05687)
(-0.00114399 0.00113748 1.05743)
(-0.00160318 0.00109091 1.05828)
(-0.00197152 0.00108552 1.05941)
(0.00195681 0.00068356 1.05895)
(0.00156957 0.000673543 1.05775)
(0.00113741 0.000683818 1.05687)
(0.000686081 0.00068354 1.05629)
(0.000230911 0.000686202 1.056)
(-0.000235526 0.000686523 1.056)
(-0.000690543 0.000684422 1.05629)
(-0.00114114 0.000684591 1.05687)
(-0.00157469 0.00067332 1.05776)
(-0.00196306 0.000683351 1.05895)
(0.00200112 0.000205654 1.05872)
(0.00158442 0.00021966 1.05749)
(0.00114593 0.000228076 1.05659)
(0.000688686 0.00022966 1.056)
(0.000231258 0.000230032 1.0557)
(-0.000235555 0.000230245 1.0557)
(-0.000692589 0.000230236 1.056)
(-0.00115041 0.000228551 1.05659)
(-0.00159015 0.00021966 1.0575)
(-0.00200747 0.000205587 1.05873)
(0.00200025 -0.000208772 1.05872)
(0.00158437 -0.00022342 1.0575)
(0.00114568 -0.000233002 1.05659)
(0.000688312 -0.000235295 1.056)
(0.000231502 -0.000235731 1.0557)
(-0.000235354 -0.000235555 1.0557)
(-0.000692536 -0.000235012 1.056)
(-0.00114997 -0.000232831 1.05659)
(-0.00158989 -0.000223505 1.0575)
(-0.00200735 -0.00020913 1.05873)
(0.00195594 -0.000686049 1.05895)
(0.00156829 -0.000676587 1.05776)
(0.00113595 -0.000688578 1.05687)
(0.000685759 -0.000688955 1.05629)
(0.000231025 -0.000691652 1.056)
(-0.000234829 -0.000691591 1.056)
(-0.000689618 -0.000688943 1.05629)
(-0.0011407 -0.000688603 1.05687)
(-0.0015743 -0.000676948 1.05776)
(-0.00196283 -0.000686619 1.05895)
(0.00196397 -0.00108791 1.05941)
(0.00159651 -0.00109383 1.05828)
(0.00113818 -0.00114068 1.05743)
(0.000685287 -0.00113885 1.05687)
(0.000229131 -0.00114816 1.05659)
(-0.000232862 -0.0011484 1.05659)
(-0.000689495 -0.00113895 1.05687)
(-0.0011427 -0.00114137 1.05743)
(-0.00160226 -0.00109427 1.05828)
(-0.00197091 -0.00108853 1.05941)
(0.00187356 -0.00162601 1.0601)
(0.00155989 -0.0015625 1.05906)
(0.001091 -0.0015993 1.05828)
(0.000673506 -0.00157142 1.05776)
(0.000219706 -0.00158716 1.0575)
(-0.000223782 -0.00158738 1.0575)
(-0.000677748 -0.00157182 1.05776)
(-0.00109593 -0.00160008 1.05828)
(-0.00156549 -0.00156338 1.05906)
(-0.00187949 -0.00162671 1.0601)
(0.00182108 -0.00182389 1.06106)
(0.00162331 -0.00187558 1.0601)
(0.0010852 -0.00196699 1.05941)
(0.000683061 -0.00195908 1.05895)
(0.000205371 -0.00200368 1.05872)
(-0.000209619 -0.00200398 1.05872)
(-0.000687681 -0.00195971 1.05895)
(-0.00109001 -0.00196834 1.05941)
(-0.00162872 -0.00187702 1.0601)
(-0.00182682 -0.0018245 1.06106)
(0.00196319 0.00195913 1.06559)
(0.0016973 0.00199786 1.06464)
(0.0011499 0.00205954 1.06396)
(0.000723431 0.00205448 1.0635)
(0.00021617 0.00208916 1.06328)
(-0.000222052 0.00208963 1.06328)
(-0.00072843 0.00205439 1.06351)
(-0.00114898 0.00205977 1.06397)
(-0.00170471 0.00199973 1.06466)
(-0.00196584 0.00196053 1.06561)
(0.00200055 0.00169239 1.06464)
(0.00164191 0.00163709 1.06361)
(0.00115007 0.00166592 1.06284)
(0.000709748 0.00163715 1.06233)
(0.000228043 0.00165193 1.06207)
(-0.000233056 0.00165226 1.06207)
(-0.000713882 0.00163846 1.06233)
(-0.00114993 0.00166796 1.06284)
(-0.00164118 0.00163621 1.06362)
(-0.00200353 0.00169958 1.06466)
(0.00206222 0.00114768 1.06396)
(0.00167032 0.00114642 1.06284)
(0.0011917 0.00118763 1.062)
(0.000722501 0.00118031 1.06145)
(0.000239337 0.00119045 1.06118)
(-0.000243758 0.0011908 1.06118)
(-0.000725729 0.0011813 1.06146)
(-0.0011938 0.00118867 1.06201)
(-0.00167314 0.00114496 1.06284)
(-0.00206386 0.00114385 1.06397)
(0.00205532 0.000723357 1.0635)
(0.00164038 0.000708461 1.06232)
(0.00118401 0.000719788 1.06145)
(0.000717142 0.00071442 1.06088)
(0.000240861 0.000716683 1.06059)
(-0.000244564 0.000716965 1.06059)
(-0.000720574 0.000715223 1.06088)
(-0.00118633 0.000720527 1.06146)
(-0.00164354 0.000708375 1.06233)
(-0.00205917 0.000723097 1.06351)
(0.00209037 0.000216455 1.06327)
(0.001654 0.000227581 1.06207)
(0.0011932 0.000237984 1.06118)
(0.000719439 0.00023889 1.06059)
(0.000241763 0.000239853 1.0603)
(-0.000245155 0.000240093 1.0603)
(-0.000722207 0.000239543 1.06059)
(-0.0011962 0.000238681 1.06118)
(-0.00165775 0.000227898 1.06207)
(-0.00209425 0.00021669 1.06328)
(0.00208956 -0.000221077 1.06327)
(0.00165399 -0.00023278 1.06207)
(0.00119307 -0.000244127 1.06118)
(0.000719141 -0.000245507 1.06059)
(0.000242069 -0.000246407 1.0603)
(-0.000244901 -0.000246178 1.0603)
(-0.000722138 -0.000245015 1.06059)
(-0.00119571 -0.000243599 1.06118)
(-0.00165746 -0.000232362 1.06207)
(-0.00209416 -0.00022087 1.06328)
(0.00205475 -0.000727217 1.06351)
(0.00163932 -0.00071283 1.06233)
(0.00118287 -0.000725529 1.06145)
(0.000717095 -0.00072059 1.06088)
(0.000241118 -0.000722774 1.06059)
(-0.00024376 -0.000722628 1.06059)
(-0.000719526 -0.000720251 1.06088)
(-0.00118586 -0.000725039 1.06146)
(-0.00164317 -0.000712517 1.06233)
(-0.00205906 -0.000726999 1.06351)
(0.00205927 -0.00114767 1.06397)
(0.00166881 -0.00114902 1.06284)
(0.0011899 -0.00119278 1.06201)
(0.00072195 -0.00118612 1.06146)
(0.000240161 -0.00119585 1.06118)
(-0.000242467 -0.00119589 1.06118)
(-0.000724515 -0.00118578 1.06146)
(-0.00119244 -0.0011927 1.06201)
(-0.00167228 -0.00114855 1.06285)
(-0.00206358 -0.00114723 1.06397)
(0.00200013 -0.00170346 1.06465)
(0.00163699 -0.00164 1.06361)
(0.00114587 -0.00167206 1.06284)
(0.000709554 -0.00164284 1.06233)
(0.000229079 -0.00165702 1.06207)
(-0.000231342 -0.001657 1.06207)
(-0.000711799 -0.00164249 1.06233)
(-0.00114855 -0.00167169 1.06285)
(-0.00164013 -0.00163956 1.06362)
(-0.00200325 -0.00170272 1.06466)
(0.00196125 -0.00196403 1.06561)
(0.00170032 -0.00200262 1.06465)
(0.00114466 -0.00206293 1.06397)
(0.000724196 -0.00205838 1.06351)
(0.000217932 -0.0020933 1.06328)
(-0.000219748 -0.00209317 1.06328)
(-0.000726225 -0.00205782 1.06351)
(-0.00114682 -0.00206233 1.06397)
(-0.00170307 -0.00200191 1.06466)
(-0.00196406 -0.00196275 1.06561)
(0.00207381 0.00206636 1.07051)
(0.00174899 0.00209851 1.06955)
(0.00119065 0.00215613 1.06886)
(0.000750562 0.00216013 1.0684)
(0.00022446 0.00219207 1.06817)
(-0.000228535 0.00219294 1.06817)
(-0.000753897 0.00216157 1.0684)
(-0.00118937 0.00215864 1.06887)
(-0.0017536 0.00210262 1.06956)
(-0.00207515 0.00207056 1.07052)
(0.00210543 0.00174257 1.06955)
(0.00170722 0.00170023 1.06851)
(0.00119906 0.00173507 1.06773)
(0.00073999 0.00171247 1.06722)
(0.000236315 0.00172896 1.06696)
(-0.000239006 0.00172943 1.06696)
(-0.000741957 0.00171425 1.06722)
(-0.00119761 0.0017378 1.06774)
(-0.00170512 0.00170114 1.06851)
(-0.00210626 0.00174958 1.06956)
(0.00216312 0.00118768 1.06886)
(0.00174163 0.00119437 1.06773)
(0.00124261 0.00123749 1.0669)
(0.000756422 0.00123155 1.06634)
(0.000249605 0.00124351 1.06607)
(-0.000251504 0.0012439 1.06607)
(-0.000757333 0.00123263 1.06635)
(-0.00124259 0.00123882 1.0669)
(-0.00174204 0.00119395 1.06774)
(-0.00216272 0.00118553 1.06887)
(0.00216576 0.000749618 1.0684)
(0.00171821 0.000737753 1.06722)
(0.00123647 0.000752962 1.06634)
(0.000750381 0.00074689 1.06577)
(0.000251411 0.000750314 1.06548)
(-0.000252618 0.000750555 1.06548)
(-0.000751341 0.000747626 1.06577)
(-0.0012364 0.00075373 1.06635)
(-0.00171859 0.000738035 1.06722)
(-0.00216668 0.000750001 1.0684)
(0.00219759 0.000224313 1.06817)
(0.00173363 0.000235231 1.06696)
(0.00124765 0.000247694 1.06607)
(0.000753857 0.00024897 1.06548)
(0.000253336 0.000250925 1.06519)
(-0.000254283 0.000251122 1.06519)
(-0.000754202 0.000249484 1.06548)
(-0.00124803 0.000248305 1.06607)
(-0.00173426 0.000235674 1.06696)
(-0.0021981 0.0002249 1.06817)
(0.00219709 -0.000227855 1.06817)
(0.00173368 -0.000239066 1.06696)
(0.00124759 -0.000252184 1.06607)
(0.00075359 -0.000253823 1.06548)
(0.000253574 -0.000255766 1.06519)
(-0.000254078 -0.000255611 1.06519)
(-0.00075414 -0.000253461 1.06548)
(-0.00124755 -0.000251776 1.06607)
(-0.00173392 -0.000238646 1.06696)
(-0.00219789 -0.000227386 1.06817)
(0.00216586 -0.000752621 1.0684)
(0.00171761 -0.000741013 1.06722)
(0.00123563 -0.000757139 1.06635)
(0.000750346 -0.000751364 1.06577)
(0.00025156 -0.00075472 1.06548)
(-0.000251976 -0.000754632 1.06548)
(-0.000750423 -0.000751165 1.06577)
(-0.00123591 -0.000756812 1.06635)
(-0.00171803 -0.000740738 1.06722)
(-0.00216614 -0.00075232 1.06841)
(0.00216161 -0.00118771 1.06887)
(0.00174084 -0.00119636 1.06774)
(0.00124143 -0.00124132 1.0669)
(0.000755998 -0.00123575 1.06635)