/*--------------------------------*- C++ -*----------------------------------*\
| =========                 |                                                 |
| \\      /  F ield         | OpenFOAM: The Open Source CFD Toolbox           |
|  \\    /   O peration     | Version:  2406                                  |
|   \\  /    A nd           | Website:  www.openfoam.com                      |
|    \\/     M anipulation  |                                                 |
\*---------------------------------------------------------------------------*/
FoamFile
{
    version     2.0;
    format      ascii;
    arch        "LSB;label=32;scalar=64";
    class       volVectorField;
    location    "2.8";
    object      U;
}
// * * * * * * * * * * * * * * * * * * * * * * * * * * * * * * * * * * * * * //

dimensions      [0 1 -1 0 0 0 0];

internalField   nonuniform List<vector> 
16000
(
(0.153132 0.153132 1.11474)
(0.117573 0.168169 1.1542)
(0.072459 0.17688 1.17285)
(0.0244946 0.180953 1.18018)
(-0.0244946 0.180953 1.18018)
(-0.072459 0.17688 1.17285)
(-0.117573 0.168169 1.1542)
(-0.153132 0.153132 1.11474)
(0.168169 0.117573 1.1542)
(0.126109 0.126109 1.18728)
(0.0766337 0.131081 1.19757)
(0.0257137 0.133402 1.19978)
(-0.0257137 0.133402 1.19978)
(-0.0766337 0.131081 1.19757)
(-0.126109 0.126109 1.18728)
(-0.168169 0.117573 1.1542)
(0.17688 0.072459 1.17285)
(0.131081 0.0766337 1.19757)
(0.0792027 0.0792027 1.20176)
(0.0264749 0.0803911 1.20065)
(-0.0264749 0.0803911 1.20065)
(-0.0792027 0.0792027 1.20176)
(-0.131081 0.0766337 1.19757)
(-0.17688 0.072459 1.17285)
(0.180953 0.0244946 1.18018)
(0.133402 0.0257137 1.19978)
(0.0803911 0.0264749 1.20065)
(0.0268183 0.0268183 1.1979)
(-0.0268183 0.0268183 1.1979)
(-0.0803911 0.0264749 1.20065)
(-0.133402 0.0257137 1.19978)
(-0.180953 0.0244946 1.18018)
(0.180953 -0.0244946 1.18018)
(0.133402 -0.0257137 1.19978)
(0.0803911 -0.0264749 1.20065)
(0.0268183 -0.0268183 1.1979)
(-0.0268183 -0.0268183 1.1979)
(-0.0803911 -0.0264749 1.20065)
(-0.133402 -0.0257137 1.19978)
(-0.180953 -0.0244946 1.18018)
(0.17688 -0.072459 1.17285)
(0.131081 -0.0766337 1.19757)
(0.0792027 -0.0792027 1.20176)
(0.0264749 -0.0803911 1.20065)
(-0.0264749 -0.0803911 1.20065)
(-0.0792027 -0.0792027 1.20176)
(-0.131081 -0.0766337 1.19757)
(-0.17688 -0.072459 1.17285)
(0.168169 -0.117573 1.1542)
(0.126109 -0.126109 1.18728)
(0.0766337 -0.131081 1.19757)
(0.0257137 -0.133402 1.19978)
(-0.0257137 -0.133402 1.19978)
(-0.0766337 -0.131081 1.19757)
(-0.126109 -0.126109 1.18728)
(-0.168169 -0.117573 1.1542)
(0.153132 -0.153132 1.11474)
(0.117573 -0.168169 1.1542)
(0.072459 -0.17688 1.17285)
(0.0244946 -0.180953 1.18018)
(-0.0244946 -0.180953 1.18018)
(-0.072459 -0.17688 1.17285)
(-0.117573 -0.168169 1.1542)
(-0.153132 -0.153132 1.11474)
(0.0494154 0.0494154 1.29062)
(0.0414003 0.0615755 1.3895)
(0.0279271 0.0703803 1.44408)
(0.00984083 0.0751711 1.46809)
(-0.00984083 0.0751711 1.46809)
(-0.0279271 0.0703803 1.44408)
(-0.0414003 0.0615755 1.3895)
(-0.0494154 0.0494154 1.29062)
(0.0615755 0.0414003 1.3895)
(0.0531611 0.0531611 1.48728)
(0.0357288 0.0616406 1.53241)
(0.0125458 0.0660227 1.54992)
(-0.0125458 0.0660227 1.54992)
(-0.0357288 0.0616406 1.53241)
(-0.0531611 0.0531611 1.48728)
(-0.0615755 0.0414003 1.3895)
(0.0703803 0.0279271 1.44408)
(0.0616406 0.0357288 1.53241)
(0.0413007 0.0413007 1.57006)
(0.0144349 0.0441146 1.5832)
(-0.0144349 0.0441146 1.5832)
(-0.0413007 0.0413007 1.57006)
(-0.0616406 0.0357288 1.53241)
(-0.0703803 0.0279271 1.44408)
(0.075171 0.00984083 1.46809)
(0.0660227 0.0125458 1.54992)
(0.0441146 0.0144349 1.5832)
(0.0153734 0.0153734 1.59386)
(-0.0153734 0.0153734 1.59386)
(-0.0441146 0.0144349 1.5832)
(-0.0660227 0.0125458 1.54992)
(-0.0751711 0.00984083 1.46809)
(0.075171 -0.00984083 1.46809)
(0.0660227 -0.0125458 1.54992)
(0.0441146 -0.0144349 1.5832)
(0.0153734 -0.0153734 1.59386)
(-0.0153734 -0.0153734 1.59386)
(-0.0441146 -0.0144349 1.5832)
(-0.0660227 -0.0125458 1.54992)
(-0.0751711 -0.00984083 1.46809)
(0.0703803 -0.027927 1.44408)
(0.0616406 -0.0357288 1.53241)
(0.0413007 -0.0413007 1.57006)
(0.0144349 -0.0441146 1.5832)
(-0.0144349 -0.0441146 1.5832)
(-0.0413007 -0.0413007 1.57006)
(-0.0616406 -0.0357288 1.53241)
(-0.0703803 -0.027927 1.44408)
(0.0615755 -0.0414003 1.3895)
(0.0531611 -0.0531611 1.48728)
(0.0357288 -0.0616406 1.53241)
(0.0125458 -0.0660227 1.54992)
(-0.0125458 -0.0660227 1.54992)
(-0.0357288 -0.0616406 1.53241)
(-0.0531611 -0.0531611 1.48728)
(-0.0615755 -0.0414003 1.3895)
(0.0494154 -0.0494154 1.29062)
(0.0414003 -0.0615755 1.3895)
(0.0279271 -0.0703803 1.44408)
(0.00984083 -0.075171 1.46809)
(-0.00984083 -0.075171 1.46809)
(-0.0279271 -0.0703803 1.44408)
(-0.0414003 -0.0615755 1.3895)
(-0.0494154 -0.0494154 1.29062)
(0.0295334 0.0295334 1.18369)
(0.0263057 0.0381217 1.33605)
(0.0179588 0.0440247 1.43119)
(0.00638113 0.0472238 1.47636)
(-0.00638113 0.0472238 1.47636)
(-0.0179588 0.0440247 1.43119)
(-0.0263057 0.0381217 1.33605)
(-0.0295334 0.0295334 1.18369)
(0.0381217 0.0263057 1.33605)
(0.03387 0.03387 1.50686)
(0.0231033 0.0393329 1.60045)
(0.00819889 0.0422271 1.64149)
(-0.00819889 0.0422271 1.64149)
(-0.0231033 0.0393329 1.60045)
(-0.03387 0.03387 1.50686)
(-0.0381217 0.0263057 1.33605)
(0.0440247 0.0179588 1.43119)
(0.0393329 0.0231033 1.60045)
(0.0268026 0.0268026 1.68906)
(0.00948465 0.028713 1.72654)
(-0.00948465 0.028713 1.72654)
(-0.0268026 0.0268026 1.68906)
(-0.0393329 0.0231033 1.60045)
(-0.0440247 0.0179588 1.43119)
(0.0472238 0.00638113 1.47636)
(0.042227 0.00819889 1.64149)
(0.028713 0.00948465 1.72654)
(0.0101528 0.0101528 1.76219)
(-0.0101528 0.0101528 1.76219)
(-0.028713 0.00948465 1.72654)
(-0.0422271 0.00819889 1.64149)
(-0.0472238 0.00638113 1.47636)
(0.0472238 -0.00638113 1.47636)
(0.042227 -0.00819889 1.64149)
(0.028713 -0.00948464 1.72654)
(0.0101528 -0.0101528 1.76219)
(-0.0101528 -0.0101528 1.76219)
(-0.028713 -0.00948464 1.72654)
(-0.0422271 -0.00819889 1.64149)
(-0.0472238 -0.00638113 1.47636)
(0.0440247 -0.0179588 1.43119)
(0.0393329 -0.0231033 1.60045)
(0.0268026 -0.0268026 1.68906)
(0.00948465 -0.028713 1.72654)
(-0.00948465 -0.028713 1.72654)
(-0.0268026 -0.0268026 1.68906)
(-0.0393329 -0.0231033 1.60045)
(-0.0440247 -0.0179588 1.43119)
(0.0381217 -0.0263057 1.33605)
(0.03387 -0.03387 1.50686)
(0.0231033 -0.0393329 1.60045)
(0.00819889 -0.042227 1.64149)
(-0.00819889 -0.042227 1.64149)
(-0.0231033 -0.0393329 1.60045)
(-0.03387 -0.03387 1.50686)
(-0.0381217 -0.0263057 1.33605)
(0.0295334 -0.0295334 1.18369)
(0.0263057 -0.0381217 1.33605)
(0.0179588 -0.0440247 1.43119)
(0.00638113 -0.0472238 1.47636)
(-0.00638113 -0.0472238 1.47636)
(-0.0179588 -0.0440247 1.43119)
(-0.0263057 -0.0381217 1.33605)
(-0.0295334 -0.0295334 1.18369)
(0.00607788 0.00607788 1.17735)
(0.00678721 0.00932593 1.34012)
(0.00531535 0.0121436 1.44756)
(0.00200434 0.0137879 1.50053)
(-0.00200434 0.0137879 1.50053)
(-0.00531535 0.0121436 1.44756)
(-0.00678721 0.00932593 1.34012)
(-0.00607788 0.00607788 1.17735)
(0.00932593 0.00678721 1.34012)
(0.010642 0.010642 1.53329)
(0.0082524 0.0137676 1.64786)
(0.00308277 0.0154575 1.70082)
(-0.00308277 0.0154575 1.70082)
(-0.0082524 0.0137676 1.64786)
(-0.010642 0.010642 1.53329)
(-0.00932593 0.00678721 1.34012)
(0.0121436 0.00531536 1.44756)
(0.0137676 0.0082524 1.64786)
(0.0104758 0.0104758 1.76219)
(0.00386311 0.0115575 1.81303)
(-0.00386311 0.0115575 1.81303)
(-0.0104758 0.0104758 1.76219)
(-0.0137676 0.0082524 1.64786)
(-0.0121436 0.00531536 1.44756)
(0.0137879 0.00200435 1.50053)
(0.0154575 0.00308277 1.70082)
(0.0115575 0.00386311 1.81303)
(0.00421153 0.00421154 1.8613)
(-0.00421153 0.00421154 1.8613)
(-0.0115575 0.00386311 1.81303)
(-0.0154575 0.00308277 1.70082)
(-0.0137879 0.00200435 1.50053)
(0.0137879 -0.00200434 1.50053)
(0.0154575 -0.00308276 1.70082)
(0.0115575 -0.0038631 1.81303)
(0.00421153 -0.00421153 1.8613)
(-0.00421153 -0.00421153 1.8613)
(-0.0115575 -0.0038631 1.81303)
(-0.0154575 -0.00308276 1.70082)
(-0.0137879 -0.00200434 1.50053)
(0.0121436 -0.00531535 1.44756)
(0.0137676 -0.00825239 1.64786)
(0.0104758 -0.0104758 1.76219)
(0.00386311 -0.0115575 1.81303)
(-0.00386311 -0.0115575 1.81303)
(-0.0104758 -0.0104758 1.76219)
(-0.0137676 -0.00825239 1.64786)
(-0.0121436 -0.00531535 1.44756)
(0.00932593 -0.00678721 1.34012)
(0.010642 -0.0106419 1.53329)
(0.0082524 -0.0137676 1.64786)
(0.00308277 -0.0154575 1.70082)
(-0.00308277 -0.0154575 1.70082)
(-0.0082524 -0.0137676 1.64786)
(-0.010642 -0.0106419 1.53329)
(-0.00932593 -0.00678721 1.34012)
(0.00607788 -0.00607788 1.17735)
(0.00678721 -0.00932593 1.34012)
(0.00531535 -0.0121436 1.44756)
(0.00200434 -0.0137879 1.50053)
(-0.00200434 -0.0137879 1.50053)
(-0.00531535 -0.0121436 1.44756)
(-0.00678721 -0.00932593 1.34012)
(-0.00607788 -0.00607788 1.17735)
(0.00420929 0.00420929 1.15879)
(0.00417758 0.00573707 1.32761)
(0.00305281 0.00697194 1.44156)
(0.00112169 0.00767951 1.4987)
(-0.00112169 0.00767951 1.4987)
(-0.00305281 0.00697193 1.44156)
(-0.00417758 0.00573707 1.32761)
(-0.00420929 0.00420929 1.15879)
(0.00573707 0.00417758 1.32761)
(0.0058271 0.00582711 1.53244)
(0.00432306 0.00720708 1.65824)
(0.00159285 0.00796351 1.71788)
(-0.00159285 0.00796351 1.71788)
(-0.00432306 0.00720708 1.65824)
(-0.0058271 0.00582711 1.53244)
(-0.00573708 0.00417758 1.32761)
(0.00697193 0.00305281 1.44156)
(0.00720708 0.00432306 1.65824)
(0.00533722 0.00533723 1.7871)
(0.00194952 0.00580511 1.84585)
(-0.00194952 0.00580511 1.84585)
(-0.00533722 0.00533723 1.7871)
(-0.00720708 0.00432306 1.65824)
(-0.00697194 0.00305281 1.44156)
(0.00767951 0.00112169 1.4987)
(0.00796351 0.00159285 1.71788)
(0.00580511 0.00194952 1.84585)
(0.00208328 0.00208329 1.90127)
(-0.00208328 0.00208329 1.90127)
(-0.00580511 0.00194952 1.84585)
(-0.00796351 0.00159285 1.71788)
(-0.00767952 0.00112169 1.4987)
(0.00767951 -0.00112169 1.4987)
(0.00796351 -0.00159285 1.71788)
(0.00580511 -0.00194951 1.84585)
(0.00208328 -0.00208328 1.90127)
(-0.00208328 -0.00208328 1.90127)
(-0.00580511 -0.00194951 1.84585)
(-0.00796351 -0.00159285 1.71788)
(-0.00767952 -0.00112169 1.4987)
(0.00697193 -0.00305281 1.44156)
(0.00720708 -0.00432305 1.65824)
(0.00533722 -0.00533722 1.7871)
(0.00194952 -0.0058051 1.84585)
(-0.00194952 -0.0058051 1.84585)
(-0.00533722 -0.00533722 1.7871)
(-0.00720708 -0.00432305 1.65824)
(-0.00697194 -0.00305281 1.44156)
(0.00573707 -0.00417758 1.32761)
(0.0058271 -0.0058271 1.53244)
(0.00432306 -0.00720707 1.65824)
(0.00159285 -0.00796351 1.71788)
(-0.00159285 -0.00796351 1.71788)
(-0.00432306 -0.00720707 1.65824)
(-0.0058271 -0.0058271 1.53244)
(-0.00573707 -0.00417758 1.32761)
(0.00420928 -0.00420928 1.15879)
(0.00417758 -0.00573707 1.32761)
(0.00305281 -0.00697193 1.44156)
(0.00112169 -0.00767951 1.4987)
(-0.00112169 -0.00767951 1.4987)
(-0.00305281 -0.00697193 1.44156)
(-0.00417758 -0.00573707 1.32761)
(-0.00420929 -0.00420929 1.15879)
(0.00130174 0.00130174 1.15563)
(0.00140465 0.00190345 1.3259)
(0.00109256 0.00244352 1.44189)
(0.000412967 0.00276631 1.50046)
(-0.000412967 0.00276631 1.50046)
(-0.00109256 0.00244352 1.44189)
(-0.00140465 0.00190345 1.3259)
(-0.00130174 0.00130174 1.15563)
(0.00190345 0.00140465 1.3259)
(0.0021453 0.0021453 1.53424)
(0.0016872 0.00280356 1.66415)
(0.000637026 0.00317699 1.72646)
(-0.000637026 0.00317699 1.72646)
(-0.0016872 0.00280356 1.66415)
(-0.0021453 0.0021453 1.53424)
(-0.00190346 0.00140465 1.3259)
(0.00244352 0.00109257 1.44189)
(0.00280356 0.0016872 1.66415)
(0.00219038 0.00219039 1.7989)
(0.000816972 0.0024356 1.86114)
(-0.000816972 0.0024356 1.86114)
(-0.00219038 0.00219039 1.7989)
(-0.00280356 0.0016872 1.66415)
(-0.00244352 0.00109257 1.44189)
(0.00276631 0.000412971 1.50046)
(0.00317699 0.00063703 1.72646)
(0.0024356 0.000816975 1.86114)
(0.000886492 0.000886495 1.91993)
(-0.000886493 0.000886495 1.91993)
(-0.0024356 0.000816975 1.86114)
(-0.00317699 0.00063703 1.72646)
(-0.00276632 0.000412971 1.50046)
(0.00276631 -0.000412964 1.50046)
(0.00317699 -0.000637022 1.72646)
(0.0024356 -0.000816969 1.86114)
(0.000886492 -0.00088649 1.91993)
(-0.000886493 -0.00088649 1.91993)
(-0.0024356 -0.000816969 1.86114)
(-0.00317699 -0.000637022 1.72646)
(-0.00276632 -0.000412964 1.50046)
(0.00244352 -0.00109256 1.44189)
(0.00280356 -0.0016872 1.66415)
(0.00219038 -0.00219038 1.7989)
(0.000816972 -0.00243559 1.86114)
(-0.000816972 -0.00243559 1.86114)
(-0.00219038 -0.00219038 1.7989)
(-0.00280356 -0.0016872 1.66415)
(-0.00244352 -0.00109256 1.44189)
(0.00190345 -0.00140465 1.3259)
(0.00214529 -0.00214529 1.53424)
(0.0016872 -0.00280355 1.66415)
(0.000637026 -0.00317699 1.72646)
(-0.000637026 -0.00317699 1.72646)
(-0.0016872 -0.00280355 1.66415)
(-0.0021453 -0.00214529 1.53424)
(-0.00190345 -0.00140465 1.3259)
(0.00130174 -0.00130174 1.15563)
(0.00140465 -0.00190345 1.3259)
(0.00109256 -0.00244352 1.44189)
(0.000412967 -0.00276631 1.50046)
(-0.000412968 -0.00276631 1.50046)
(-0.00109256 -0.00244352 1.44189)
(-0.00140465 -0.00190345 1.3259)
(-0.00130174 -0.00130174 1.15563)
(0.000792206 0.000792207 1.15296)
(0.000788356 0.00108156 1.32433)
(0.000581399 0.00132234 1.44146)
(0.000214721 0.00146385 1.50077)
(-0.00021472 0.00146385 1.50077)
(-0.000581398 0.00132234 1.44146)
(-0.000788355 0.00108156 1.32433)
(-0.000792207 0.000792207 1.15296)
(0.00108156 0.000788359 1.32433)
(0.00110842 0.00110842 1.53467)
(0.000833462 0.00139004 1.66657)
(0.000309536 0.00155285 1.73013)
(-0.000309535 0.00155285 1.73013)
(-0.000833461 0.00139004 1.66657)
(-0.00110842 0.00110842 1.53467)
(-0.00108156 0.000788358 1.32433)
(0.00132233 0.000581403 1.44146)
(0.00139004 0.000833466 1.66657)
(0.00105205 0.00105206 1.80409)
(0.000388559 0.00116372 1.86797)
(-0.000388559 0.00116372 1.86797)
(-0.00105205 0.00105206 1.80409)
(-0.00139004 0.000833465 1.66657)
(-0.00132234 0.000581402 1.44146)
(0.00146385 0.000214725 1.50077)
(0.00155285 0.000309541 1.73013)
(0.00116372 0.000388563 1.86797)
(0.000420373 0.000420376 1.92846)
(-0.000420373 0.000420376 1.92846)
(-0.00116372 0.000388563 1.86797)
(-0.00155285 0.00030954 1.73013)
(-0.00146385 0.000214724 1.50077)
(0.00146385 -0.000214715 1.50077)
(0.00155285 -0.000309531 1.73013)
(0.00116372 -0.000388554 1.86797)
(0.000420373 -0.000420369 1.92846)
(-0.000420373 -0.000420369 1.92846)
(-0.00116372 -0.000388555 1.86797)
(-0.00155285 -0.000309531 1.73013)
(-0.00146385 -0.000214716 1.50077)
(0.00132233 -0.000581394 1.44146)
(0.00139004 -0.000833456 1.66657)
(0.00105205 -0.00105205 1.80409)
(0.000388559 -0.00116372 1.86797)
(-0.000388559 -0.00116372 1.86797)
(-0.00105205 -0.00105205 1.80409)
(-0.00139004 -0.000833456 1.66657)
(-0.00132234 -0.000581394 1.44146)
(0.00108156 -0.00078835 1.32433)
(0.00110842 -0.00110841 1.53467)
(0.000833461 -0.00139004 1.66657)
(0.000309535 -0.00155284 1.73013)
(-0.000309536 -0.00155284 1.73013)
(-0.000833461 -0.00139004 1.66657)
(-0.00110842 -0.00110841 1.53467)
(-0.00108156 -0.000788351 1.32433)
(0.000792202 -0.000792202 1.15296)
(0.000788353 -0.00108155 1.32433)
(0.000581398 -0.00132233 1.44146)
(0.00021472 -0.00146384 1.50077)
(-0.00021472 -0.00146384 1.50077)
(-0.000581398 -0.00132233 1.44146)
(-0.000788354 -0.00108156 1.32433)
(-0.000792205 -0.000792204 1.15296)
(0.000340737 0.000340738 1.1521)
(0.000347865 0.000479674 1.32392)
(0.000260863 0.000598213 1.44154)
(9.69834e-05 0.000668249 1.50117)
(-9.6984e-05 0.000668249 1.50117)
(-0.000260864 0.000598213 1.44154)
(-0.000347867 0.000479674 1.32392)
(-0.00034074 0.00034074 1.1521)
(0.000479668 0.000347869 1.32392)
(0.000505478 0.000505483 1.53513)
(0.000384179 0.000642851 1.6679)
(0.000143137 0.000722072 1.732)
(-0.000143138 0.000722072 1.732)
(-0.00038418 0.000642851 1.6679)
(-0.00050548 0.000505483 1.53513)
(-0.000479673 0.00034787 1.32392)
(0.000598206 0.000260868 1.44154)
(0.000642846 0.000384184 1.6679)
(0.000489664 0.000489669 1.80663)
(0.0001812 0.000544342 1.87124)
(-0.000181201 0.000544342 1.87124)
(-0.000489665 0.000489669 1.80663)
(-0.000642847 0.000384184 1.6679)
(-0.00059821 0.000260868 1.44154)
(0.000668242 9.69882e-05 1.50117)
(0.000722067 0.000143143 1.732)
(0.000544337 0.000181205 1.87124)
(0.000196974 0.000196979 1.93251)
(-0.000196975 0.000196979 1.93251)
(-0.000544338 0.000181205 1.87124)
(-0.000722068 0.000143143 1.732)
(-0.000668245 9.69884e-05 1.50117)
(0.000668242 -9.69793e-05 1.50117)
(0.000722067 -0.000143133 1.732)
(0.000544337 -0.000181196 1.87124)
(0.000196974 -0.000196971 1.93251)
(-0.000196975 -0.000196971 1.93251)
(-0.000544338 -0.000181196 1.87124)
(-0.000722068 -0.000143133 1.732)
(-0.000668245 -9.69792e-05 1.50117)
(0.000598207 -0.00026086 1.44154)
(0.000642846 -0.000384175 1.6679)
(0.000489664 -0.000489661 1.80663)
(0.0001812 -0.000544334 1.87124)
(-0.000181201 -0.000544334 1.87124)
(-0.000489665 -0.000489661 1.80663)
(-0.000642847 -0.000384175 1.6679)
(-0.000598209 -0.00026086 1.44154)
(0.000479668 -0.000347862 1.32392)
(0.000505478 -0.000505474 1.53513)
(0.000384179 -0.000642842 1.6679)
(0.000143137 -0.000722064 1.732)
(-0.000143138 -0.000722064 1.732)
(-0.00038418 -0.000642843 1.6679)
(-0.000505479 -0.000505475 1.53513)
(-0.00047967 -0.000347862 1.32392)
(0.000340735 -0.000340734 1.1521)
(0.000347865 -0.000479666 1.32392)
(0.000260863 -0.000598204 1.44154)
(9.69833e-05 -0.00066824 1.50117)
(-9.69842e-05 -0.00066824 1.50117)
(-0.000260864 -0.000598205 1.44154)
(-0.000347866 -0.000479667 1.32392)
(-0.000340737 -0.000340736 1.1521)
(0.00018338 0.000183381 1.15155)
(0.000182637 0.000252987 1.32363)
(0.000134501 0.000310881 1.44151)
(4.95865e-05 0.000344805 1.5013)
(-4.95833e-05 0.000344804 1.5013)
(-0.000134498 0.000310879 1.44151)
(-0.000182635 0.000252984 1.32363)
(-0.000183379 0.00018338 1.15155)
(0.000252982 0.000182641 1.32363)
(0.000258957 0.000258962 1.5353)
(0.000193547 0.00032477 1.66852)
(7.15914e-05 0.000362585 1.73289)
(-7.15886e-05 0.000362584 1.73289)
(-0.000193544 0.000324769 1.66852)
(-0.000258956 0.00025896 1.5353)
(-0.000252984 0.000182639 1.32363)
(0.000310875 0.000134505 1.44151)
(0.000324765 0.000193552 1.66852)
(0.000243697 0.000243701 1.80785)
(8.96181e-05 0.000269588 1.87281)
(-8.96161e-05 0.000269588 1.87281)
(-0.000243695 0.0002437 1.80785)
(-0.000324764 0.00019355 1.66852)
(-0.000310878 0.000134504 1.44151)
(0.000344799 4.95909e-05 1.5013)
(0.00036258 7.15963e-05 1.73289)
(0.000269584 8.96226e-05 1.87281)
(9.70178e-05 9.70218e-05 1.93446)
(-9.70164e-05 9.70216e-05 1.93446)
(-0.000269583 8.9622e-05 1.87281)
(-0.00036258 7.15953e-05 1.73289)
(-0.000344802 4.95898e-05 1.5013)
(0.000344799 -4.9579e-05 1.5013)
(0.00036258 -7.15838e-05 1.73289)
(0.000269584 -8.96118e-05 1.87281)
(9.70176e-05 -9.70125e-05 1.93446)
(-9.70166e-05 -9.70126e-05 1.93446)
(-0.000269583 -8.96122e-05 1.87281)
(-0.00036258 -7.15846e-05 1.73289)
(-0.000344802 -4.958e-05 1.5013)
(0.000310874 -0.000134494 1.44151)
(0.000324764 -0.00019354 1.66852)
(0.000243696 -0.000243691 1.80785)
(8.96175e-05 -0.000269579 1.87281)
(-8.96167e-05 -0.000269579 1.87281)
(-0.000243695 -0.000243691 1.80785)
(-0.000324764 -0.00019354 1.66852)
(-0.000310877 -0.000134495 1.44151)
(0.00025298 -0.00018263 1.32363)
(0.000258955 -0.00025895 1.5353)
(0.000193546 -0.00032476 1.66852)
(7.15902e-05 -0.000362575 1.73289)
(-7.15896e-05 -0.000362575 1.73289)
(-0.000193545 -0.00032476 1.66852)
(-0.000258955 -0.000258951 1.5353)
(-0.000252982 -0.000182631 1.32363)
(0.000183376 -0.000183375 1.15155)
(0.000182634 -0.000252977 1.32363)
(0.000134499 -0.000310871 1.44151)
(4.9585e-05 -0.000344795 1.5013)
(-4.95846e-05 -0.000344796 1.5013)
(-0.000134499 -0.000310872 1.44151)
(-0.000182634 -0.000252978 1.32363)
(-0.000183378 -0.000183377 1.15155)
(8.67724e-05 8.67742e-05 1.15132)
(8.77103e-05 0.000121326 1.32351)
(6.52149e-05 0.000150479 1.44152)
(2.41383e-05 0.000167612 1.50139)
(-2.41367e-05 0.000167612 1.50139)
(-6.52135e-05 0.000150478 1.44152)
(-8.77096e-05 0.000121325 1.32351)
(-8.67732e-05 8.67739e-05 1.15132)
(0.000121319 8.77144e-05 1.32351)
(0.000126292 0.000126298 1.53541)
(9.51096e-05 0.000159578 1.66884)
(3.52685e-05 0.000178636 1.73335)
(-3.52671e-05 0.000178636 1.73335)
(-9.51086e-05 0.000159577 1.66884)
(-0.000126292 0.000126297 1.53541)
(-0.000121322 8.77139e-05 1.32351)
(0.000150471 6.52197e-05 1.44152)
(0.000159572 9.51153e-05 1.66884)
(0.000120352 0.000120358 1.80847)
(4.43136e-05 0.000133317 1.8736)
(-4.43127e-05 0.000133317 1.8736)
(-0.000120352 0.000120357 1.80847)
(-0.000159572 9.51146e-05 1.66884)
(-0.000150473 6.52192e-05 1.44152)
(0.000167604 2.41431e-05 1.50139)
(0.000178631 3.52739e-05 1.73335)
(0.000133312 4.43186e-05 1.8736)
(4.8003e-05 4.80075e-05 1.93544)
(-4.80025e-05 4.80074e-05 1.93544)
(-0.000133312 4.43182e-05 1.8736)
(-0.000178631 3.52734e-05 1.73335)
(-0.000167605 2.41427e-05 1.50139)
(0.000167604 -2.41324e-05 1.50139)
(0.000178631 -3.52622e-05 1.73335)
(0.000133312 -4.43082e-05 1.8736)
(4.8003e-05 -4.79984e-05 1.93544)
(-4.80027e-05 -4.79985e-05 1.93544)
(-0.000133312 -4.43085e-05 1.8736)
(-0.000178631 -3.52626e-05 1.73335)
(-0.000167605 -2.41327e-05 1.50139)
(0.000150471 -6.52097e-05 1.44152)
(0.000159572 -9.51041e-05 1.66884)
(0.000120352 -0.000120347 1.80847)
(4.43133e-05 -0.000133308 1.8736)
(-4.43131e-05 -0.000133308 1.8736)
(-0.000120352 -0.000120348 1.80847)
(-0.000159572 -9.51045e-05 1.66884)
(-0.000150472 -6.521e-05 1.44152)
(0.000121318 -8.77052e-05 1.32351)
(0.000126291 -0.000126287 1.53541)
(9.51092e-05 -0.000159568 1.66884)
(3.5268e-05 -0.000178627 1.73335)
(-3.52678e-05 -0.000178627 1.73335)
(-9.51091e-05 -0.000159568 1.66884)
(-0.000126291 -0.000126288 1.53541)
(-0.000121319 -8.77058e-05 1.32351)
(8.67695e-05 -8.67684e-05 1.15132)
(8.77087e-05 -0.000121316 1.32351)
(6.52142e-05 -0.000150468 1.44152)
(2.41375e-05 -0.000167601 1.50139)
(-2.41376e-05 -0.000167602 1.50139)
(-6.52143e-05 -0.000150469 1.44152)
(-8.77088e-05 -0.000121317 1.32351)
(-8.67702e-05 -8.67694e-05 1.15132)
(4.52193e-05 4.52214e-05 1.15119)
(4.53645e-05 6.27505e-05 1.32345)
(3.35607e-05 7.74247e-05 1.44152)
(1.23977e-05 8.60302e-05 1.50143)
(-1.23928e-05 8.60291e-05 1.50143)
(-3.35563e-05 7.74213e-05 1.44152)
(-4.53604e-05 6.27452e-05 1.32345)
(-4.52172e-05 4.5218e-05 1.15119)
(6.27442e-05 4.53683e-05 1.32345)
(6.47572e-05 6.47627e-05 1.53546)
(4.85784e-05 8.1486e-05 1.669)
(1.79893e-05 9.10632e-05 1.73357)
(-1.79852e-05 9.10625e-05 1.73357)
(-4.85748e-05 8.1484e-05 1.669)
(-6.47545e-05 6.47594e-05 1.53546)
(-6.27441e-05 4.53651e-05 1.32345)
(7.74178e-05 3.3565e-05 1.44152)
(8.14807e-05 4.85835e-05 1.669)
(6.12731e-05 6.12779e-05 1.80878)
(2.25357e-05 6.77836e-05 1.874)
(-2.2533e-05 6.77832e-05 1.874)
(-6.12707e-05 6.12766e-05 1.80878)
(-8.14791e-05 4.85814e-05 1.669)
(-7.74188e-05 3.35627e-05 1.44152)
(8.60234e-05 1.2402e-05 1.50143)
(9.10581e-05 1.79942e-05 1.73357)
(6.77791e-05 2.25403e-05 1.874)
(2.43787e-05 2.43828e-05 1.93593)
(-2.4377e-05 2.43825e-05 1.93593)
(-6.77776e-05 2.25392e-05 1.874)
(-9.10572e-05 1.79925e-05 1.73357)
(-8.60253e-05 1.24e-05 1.50143)
(8.60227e-05 -1.23888e-05 1.50143)
(9.10576e-05 -1.79805e-05 1.73357)
(6.77788e-05 -2.25287e-05 1.874)
(2.43785e-05 -2.43731e-05 1.93593)
(-2.43772e-05 -2.43734e-05 1.93593)
(-6.77778e-05 -2.25295e-05 1.874)
(-9.10572e-05 -1.79819e-05 1.73357)
(-8.60252e-05 -1.23904e-05 1.50143)
(7.74156e-05 -3.35525e-05 1.44152)
(8.14792e-05 -4.85704e-05 1.669)
(6.12721e-05 -6.12665e-05 1.80878)
(2.25348e-05 -6.77736e-05 1.874)
(-2.25339e-05 -6.77738e-05 1.874)
(-6.12713e-05 -6.12671e-05 1.80878)
(-8.14791e-05 -4.85714e-05 1.669)
(-7.74184e-05 -3.35538e-05 1.44152)
(6.27398e-05 -4.53561e-05 1.32345)
(6.47544e-05 -6.47496e-05 1.53546)
(4.85765e-05 -8.14745e-05 1.669)
(1.79875e-05 -9.10529e-05 1.73357)
(-1.79868e-05 -9.10531e-05 1.73357)
(-4.8576e-05 -8.14751e-05 1.669)
(-6.47545e-05 -6.47505e-05 1.53546)
(-6.27427e-05 -4.53576e-05 1.32345)
(4.52132e-05 -4.52124e-05 1.15119)
(4.53601e-05 -6.27369e-05 1.32345)
(3.35581e-05 -7.74122e-05 1.44152)
(1.23953e-05 -8.6019e-05 1.50143)
(-1.23949e-05 -8.60194e-05 1.50143)
(-3.35579e-05 -7.74133e-05 1.44152)
(-4.53605e-05 -6.2739e-05 1.32345)
(-4.52154e-05 -4.52148e-05 1.15119)
(2.23431e-05 2.23442e-05 1.15113)
(2.25632e-05 3.11695e-05 1.32341)
(1.67717e-05 3.86087e-05 1.44152)
(6.20882e-06 4.29828e-05 1.50145)
(-6.20888e-06 4.29827e-05 1.50145)
(-1.67719e-05 3.86083e-05 1.44152)
(-2.25639e-05 3.11691e-05 1.32341)
(-2.23447e-05 2.23449e-05 1.15113)
(3.11644e-05 2.25666e-05 1.32341)
(3.24209e-05 3.24256e-05 1.53548)
(2.44309e-05 4.0953e-05 1.66908)
(9.06412e-06 4.58428e-05 1.73369)
(-9.06434e-06 4.58427e-05 1.73369)
(-2.44313e-05 4.09528e-05 1.66908)
(-3.24219e-05 3.24254e-05 1.53548)
(-3.11673e-05 2.2567e-05 1.32341)
(3.86026e-05 1.6776e-05 1.44152)
(4.09483e-05 2.44359e-05 1.66908)
(3.09181e-05 3.09227e-05 1.80894)
(1.13898e-05 3.42536e-05 1.8742)
(-1.13902e-05 3.42536e-05 1.8742)
(-3.09187e-05 3.09226e-05 1.80894)
(-4.09493e-05 2.44357e-05 1.66908)
(-3.8605e-05 1.67761e-05 1.44152)
(4.29764e-05 6.21336e-06 1.50145)
(4.58381e-05 9.06913e-06 1.73369)
(3.42493e-05 1.13943e-05 1.8742)
(1.23356e-05 1.23396e-05 1.93618)
(-1.23361e-05 1.23396e-05 1.93618)
(-3.425e-05 1.13942e-05 1.8742)
(-4.5839e-05 9.06894e-06 1.73369)
(-4.29784e-05 6.21327e-06 1.50145)
(4.29763e-05 -6.20455e-06 1.50145)
(4.58381e-05 -9.05958e-06 1.73369)
(3.42493e-05 -1.1386e-05 1.8742)
(1.23356e-05 -1.23323e-05 1.93618)
(-1.23362e-05 -1.23323e-05 1.93618)
(-3.425e-05 -1.13861e-05 1.8742)
(-4.58388e-05 -9.05979e-06 1.73369)
(-4.29779e-05 -6.20474e-06 1.50145)
(3.86023e-05 -1.67679e-05 1.44152)
(4.09481e-05 -2.44269e-05 1.66908)
(3.09181e-05 -3.09146e-05 1.80894)
(1.13897e-05 -3.42461e-05 1.8742)
(-1.13904e-05 -3.42462e-05 1.8742)
(-3.09188e-05 -3.09148e-05 1.80894)
(-4.09488e-05 -2.44271e-05 1.66908)
(-3.86036e-05 -1.67682e-05 1.44152)
(3.11634e-05 -2.25594e-05 1.32341)
(3.24204e-05 -3.24172e-05 1.53548)
(2.44307e-05 -4.09451e-05 1.66908)
(9.06385e-06 -4.58352e-05 1.73369)
(-9.0647e-06 -4.58353e-05 1.73369)
(-2.44316e-05 -4.09454e-05 1.66908)
(-3.24211e-05 -3.24177e-05 1.53548)
(-3.11644e-05 -2.25601e-05 1.32341)
(2.23406e-05 -2.23397e-05 1.15113)
(2.25621e-05 -3.11613e-05 1.32341)
(1.67714e-05 -3.86003e-05 1.44152)
(6.20846e-06 -4.29745e-05 1.50145)
(-6.20937e-06 -4.29748e-05 1.50145)
(-1.67723e-05 -3.86012e-05 1.44152)
(-2.2563e-05 -3.11627e-05 1.32341)
(-2.23418e-05 -2.23409e-05 1.15113)
(1.1492e-05 1.14932e-05 1.1511)
(1.15736e-05 1.59854e-05 1.3234)
(8.58704e-06 1.97588e-05 1.44152)
(3.17748e-06 2.19766e-05 1.50146)
(-3.17552e-06 2.19762e-05 1.50146)
(-8.58539e-06 1.97575e-05 1.44152)
(-1.15726e-05 1.59835e-05 1.3234)
(-1.14928e-05 1.14931e-05 1.1511)
(1.5982e-05 1.15762e-05 1.3234)
(1.65723e-05 1.65759e-05 1.5355)
(1.24728e-05 2.09016e-05 1.66912)
(4.62675e-06 2.33849e-05 1.73375)
(-4.62521e-06 2.33846e-05 1.73375)
(-1.24716e-05 2.09008e-05 1.66912)
(-1.6572e-05 1.65744e-05 1.5355)
(-1.59849e-05 1.15755e-05 1.3234)
(1.97552e-05 8.59028e-06 1.44152)
(2.08983e-05 1.24765e-05 1.66912)
(1.57697e-05 1.57731e-05 1.80902)
(5.80962e-06 1.74685e-05 1.8743)
(-5.80865e-06 1.74683e-05 1.8743)
(-1.5769e-05 1.57725e-05 1.80902)
(-2.08985e-05 1.24755e-05 1.66912)
(-1.97585e-05 8.58937e-06 1.44152)
(2.1973e-05 3.18089e-06 1.50146)
(2.33817e-05 4.6306e-06 1.73375)
(1.74653e-05 5.81307e-06 1.8743)
(6.29124e-06 6.29428e-06 1.9363)
(-6.29068e-06 6.29414e-06 1.9363)
(-1.7465e-05 5.8126e-06 1.8743)
(-2.33821e-05 4.62982e-06 1.73375)
(-2.19767e-05 3.18007e-06 1.50146)
(2.19727e-05 -3.17203e-06 1.50146)
(2.33814e-05 -4.62125e-06 1.73375)
(1.74652e-05 -5.80509e-06 1.8743)
(6.29111e-06 -6.28752e-06 1.9363)
(-6.29081e-06 -6.28764e-06 1.9363)
(-1.74651e-05 -5.80546e-06 1.8743)
(-2.33821e-05 -4.62187e-06 1.73375)
(-2.19766e-05 -3.17281e-06 1.50146)
(1.97543e-05 -8.58198e-06 1.44152)
(2.08976e-05 -1.24676e-05 1.66912)
(1.57692e-05 -1.57652e-05 1.80902)
(5.80919e-06 -1.74615e-05 1.8743)
(-5.80905e-06 -1.74616e-05 1.8743)
(-1.57692e-05 -1.57656e-05 1.80902)
(-2.08983e-05 -1.24681e-05 1.66912)
(-1.97581e-05 -8.58262e-06 1.44152)
(1.59802e-05 -1.15687e-05 1.3234)
(1.65711e-05 -1.65674e-05 1.5355)
(1.24719e-05 -2.08941e-05 1.66912)
(4.62589e-06 -2.3378e-05 1.73375)
(-4.62597e-06 -2.33781e-05 1.73375)
(-1.24721e-05 -2.08944e-05 1.66912)
(-1.65717e-05 -1.6568e-05 1.5355)
(-1.59838e-05 -1.15698e-05 1.3234)
(1.14894e-05 -1.14887e-05 1.1511)
(1.15717e-05 -1.5978e-05 1.3234)
(8.5859e-06 -1.97518e-05 1.44152)
(3.17636e-06 -2.19702e-05 1.50146)
(-3.17656e-06 -2.19705e-05 1.50146)
(-8.58615e-06 -1.97527e-05 1.44152)
(-1.15724e-05 -1.59798e-05 1.3234)
(-1.14916e-05 -1.1491e-05 1.1511)
(5.80307e-06 5.80358e-06 1.15108)
(5.85605e-06 8.08883e-06 1.32339)
(4.35022e-06 1.0012e-05 1.44152)
(1.60976e-06 1.11436e-05 1.50146)
(-1.61208e-06 1.11439e-05 1.50146)
(-4.35251e-06 1.00129e-05 1.44152)
(-5.85879e-06 8.09042e-06 1.32339)
(-5.80636e-06 5.806e-06 1.15108)
(8.08579e-06 5.8582e-06 1.32339)
(8.40475e-06 8.40777e-06 1.5355)
(6.3336e-06 1.06154e-05 1.66915)
(2.34989e-06 1.18834e-05 1.73378)
(-2.35206e-06 1.18836e-05 1.73378)
(-6.33583e-06 1.0616e-05 1.66915)
(-8.40744e-06 8.40881e-06 1.5355)
(-8.09042e-06 5.86012e-06 1.32339)
(1.00082e-05 4.35326e-06 1.44152)
(1.06124e-05 6.33702e-06 1.66915)
(8.01729e-06 8.02042e-06 1.80906)
(2.95443e-06 8.88701e-06 1.87436)
(-2.9562e-06 8.88712e-06 1.87436)
(-8.01914e-06 8.0208e-06 1.80906)
(-1.06146e-05 6.33773e-06 1.66915)
(-1.0012e-05 4.35434e-06 1.44152)
(1.11395e-05 1.61309e-06 1.50146)
(1.18804e-05 2.35352e-06 1.73378)
(8.8841e-06 2.95766e-06 1.87436)
(3.2011e-06 3.20396e-06 1.93637)
(-3.20255e-06 3.20404e-06 1.93637)
(-8.88561e-06 2.95794e-06 1.87436)
(-1.18821e-05 2.35411e-06 1.73378)
(-1.11425e-05 1.61395e-06 1.50146)
(1.11398e-05 -1.60878e-06 1.50146)
(1.18806e-05 -2.34847e-06 1.73378)
(8.88422e-06 -2.95301e-06 1.87436)
(3.2012e-06 -3.19971e-06 1.93637)
(-3.20249e-06 -3.19964e-06 1.93637)
(-8.88553e-06 -2.95278e-06 1.87436)
(-1.18819e-05 -2.34802e-06 1.73378)
(-1.1142e-05 -1.60814e-06 1.50146)
(1.0009e-05 -4.34939e-06 1.44152)
(1.06128e-05 -6.33234e-06 1.66915)
(8.01767e-06 -8.01595e-06 1.80906)
(2.95473e-06 -8.8827e-06 1.87436)
(-2.95599e-06 -8.88266e-06 1.87436)
(-8.01888e-06 -8.01584e-06 1.80906)