/*--------------------------------*- C++ -*----------------------------------*\
| =========                 |                                                 |
| \\      /  F ield         | OpenFOAM: The Open Source CFD Toolbox           |
|  \\    /   O peration     | Version:  2406                                  |
|   \\  /    A nd           | Website:  www.openfoam.com                      |
|    \\/     M anipulation  |                                                 |
\*---------------------------------------------------------------------------*/
FoamFile
{
    version     2.0;
    format      ascii;
    arch        "LSB;label=32;scalar=64";
    class       volScalarField;
    location    "0.3";
    object      div(phi);
}
// * * * * * * * * * * * * * * * * * * * * * * * * * * * * * * * * * * * * * //

dimensions      [0 0 -1 0 0 0 0];

internalField   nonuniform List<scalar> 
25000
(
-6.15446
-5.66931
-5.79936
-5.78692
-5.73306
-5.64398
-5.59813
-5.55631
-5.52226
-4.65224
-5.5022
-4.83477
-4.93302
-4.91316
-4.77259
-4.65025
-4.60162
-4.58056
-4.49326
-3.67512
-5.46413
-4.79388
-4.84533
-4.8581
-4.68013
-4.50077
-4.4735
-4.4733
-4.39919
-3.65244
-5.36469
-4.57864
-4.72507
-4.67937
-4.4938
-4.32645
-4.30371
-4.33566
-4.28571
-3.58932
-5.24497
-4.43394
-4.49434
-4.50316
-4.30888
-4.15664
-4.16055
-4.19148
-4.15746
-3.5121
-5.09114
-4.22866
-4.34636
-4.30983
-4.15895
-4.01332
-4.00554
-4.07161
-4.06247
-3.39185
-4.9561
-4.08078
-4.14072
-4.1647
-3.96624
-3.85561
-3.93338
-3.94789
-3.89917
-3.28842
-4.67546
-3.88445
-3.97578
-3.91263
-3.79104
-3.78878
-3.72788
-3.80426
-3.83611
-3.1138
-4.42082
-3.62567
-3.66116
-3.66047
-3.60239
-3.5109
-3.58124
-3.64628
-3.51775
-2.85734
-3.60474
-2.86041
-2.94972
-2.9673
-2.94194
-2.963
-2.97149
-2.93023
-2.83274
-2.1981
-6.50071
-6.06295
-6.21184
-6.1317
-5.99987
-5.86532
-5.81176
-5.79521
-5.83933
-4.88877
-5.79237
-5.03787
-5.09236
-5.1031
-4.99065
-4.81859
-4.79082
-4.78123
-4.73057
-3.95117
-5.6504
-4.88628
-4.98788
-5.03813
-4.91089
-4.76724
-4.68917
-4.65772
-4.65261
-3.92181
-5.57186
-4.72872
-4.86275
-4.93886
-4.84096
-4.67675
-4.63968
-4.62541
-4.55606
-3.8765
-5.46334
-4.59275
-4.73671
-4.85186
-4.74765
-4.633
-4.58509
-4.54504
-4.49379
-3.81305
-5.37705
-4.48243
-4.63977
-4.73483
-4.67596
-4.53492
-4.47945
-4.47003
-4.42369
-3.70699
-5.31267
-4.36969
-4.48381
-4.60151
-4.46545
-4.34814
-4.36779
-4.31404
-4.24677
-3.61627
-5.07855
-4.2253
-4.31824
-4.30976
-4.20829
-4.18371
-4.07357
-4.09831
-4.18138
-3.42715
-4.84325
-4.02135
-4.05065
-4.06441
-3.98119
-3.85699
-3.88581
-3.95833
-3.86291
-3.12482
-3.90788
-3.20845
-3.32919
-3.33262
-3.27485
-3.26374
-3.2502
-3.19249
-3.06874
-2.31219
-9.03962
-8.2036
-8.25422
-8.04835
-7.76297
-7.4635
-7.25259
-7.10618
-7.1414
-5.86612
-7.79634
-6.47743
-6.36095
-6.32332
-6.13687
-5.83956
-5.73206
-5.69209
-5.55773
-4.63747
-7.26092
-6.01784
-6.0495
-6.06557
-5.85972
-5.63367
-5.44525
-5.34645
-5.38589
-4.50892
-6.90735
-5.68871
-5.77899
-5.83434
-5.68701
-5.39966
-5.28399
-5.24821
-5.13955
-4.41088
-6.57039
-5.41247
-5.56267
-5.66893
-5.51203
-5.32084
-5.17584
-5.08724
-5.06567
-4.30303
-6.34702
-5.23928
-5.4051
-5.51843
-5.42812
-5.1843
-5.06704
-5.04005
-4.9689
-4.17945
-6.19598
-5.07054
-5.23355
-5.38489
-5.19781
-5.01391
-4.97568
-4.87543
-4.79178
-4.0606
-5.88484
-4.8843
-5.01812
-5.04259
-4.91486
-4.8318
-4.65297
-4.65254
-4.69715
-3.82788
-5.55445
-4.61099
-4.66649
-4.70978
-4.60594
-4.4172
-4.42397
-4.46287
-4.33282
-3.49474
-4.41398
-3.66116
-3.79923
-3.80053
-3.71398
-3.68494
-3.65641
-3.59141
-3.46507
-2.59055
-6.4997
-6.25393
-6.47739
-6.51736
-6.61702
-6.65802
-6.71276
-6.66514
-6.63927
-5.39741
-5.83004
-5.05858
-5.01962
-5.10937
-5.16545
-5.15563
-5.26981
-5.36014
-5.28075
-4.35521
-5.59537
-4.74423
-4.76787
-4.83969
-4.83044
-4.85208
-4.92264
-5.036
-5.13155
-4.29097
-5.4921
-4.58722
-4.63365
-4.72568
-4.6882
-4.61578
-4.71932
-4.89004
-4.94641
-4.22807
-5.37321
-4.47164
-4.60347
-4.71213
-4.62625
-4.58189
-4.62134
-4.75809
-4.89037
-4.155
-5.30319
-4.43876
-4.61684
-4.71561
-4.67709
-4.55022
-4.5834
-4.75359
-4.84742
-4.07283
-5.30633
-4.40818
-4.59978
-4.77122
-4.64163
-4.55438
-4.64389
-4.73546
-4.78021
-4.01298
-5.16415
-4.41433
-4.59897
-4.68443
-4.62908
-4.62496
-4.55761
-4.69067
-4.77797
-3.8433
-5.07436
-4.30522
-4.46167
-4.58991
-4.57385
-4.43943
-4.46891
-4.54646
-4.38161
-3.46003
-4.13965
-3.52103
-3.73585
-3.84585
-3.81345
-3.76144
-3.69342
-3.59026
-3.3985
-2.52426
-9.13145
-8.58823
-8.73688
-8.7395
-8.63101
-8.33843
-8.00027
-7.64382
-7.38879
-5.80453
-7.89189
-6.75935
-6.62342
-6.62952
-6.54906
-6.3441
-6.24286
-6.19506
-5.89471
-4.66762
-7.24416
-6.16311
-6.11783
-6.15201
-5.92996
-5.69953
-5.62419
-5.68251
-5.68718
-4.53533
-6.80851
-5.74384
-5.80219
-5.73814
-5.37862
-4.98445
-4.99419
-5.24978
-5.2925
-4.38782
-6.49255
-5.4807
-5.51561
-5.32969
-4.82559
-4.47536
-4.48935
-4.81283
-5.07503
-4.19223
-6.35549
-5.30916
-5.19943
-4.89592
-4.41126
-4.0151
-4.14331
-4.64046
-4.83417
-4.0219
-6.27898
-5.05139
-4.83033
-4.54379
-4.04385
-3.81422
-4.08286
-4.50491
-4.70445
-3.87155
-5.95723
-4.76539
-4.52934
-4.26625
-3.97054
-3.92544
-4.07199
-4.52787
-4.65581
-3.66935
-5.58921
-4.47119
-4.29791
-4.24693
-4.1013
-3.99897
-4.21005
-4.45577
-4.29614
-3.29796
-4.49769
-3.63496
-3.71255
-3.71836
-3.64455
-3.61631
-3.62722
-3.57551
-3.3495
-2.43751
-5.10369
-4.90554
-5.18415
-5.40365
-5.75492
-5.98969
-6.09189
-5.90225
-5.70874
-4.45655
-4.48759
-3.85788
-3.91328
-4.19838
-4.48941
-4.69744
-5.04465
-5.08913
-4.70834
-3.69428
-4.29241
-3.5926
-3.79845
-4.01927
-4.14729
-4.38491
-4.68443
-4.92323
-4.76271
-3.68106
-4.33506
-3.60915
-3.71406
-3.9126
-3.91828
-3.91385
-4.33179
-4.7896
-4.60754
-3.68883
-4.34456
-3.55748
-3.71229
-3.75195
-3.62756
-3.67739
-3.94789
-4.45241
-4.57769
-3.63104
-4.4415
-3.60913
-3.59067
-3.57368
-3.45112
-3.34615
-3.67473
-4.27755
-4.35236
-3.5512
-4.5729
-3.52511
-3.47982
-3.40955
-3.18984
-3.1729
-3.5563
-4.05079
-4.18623
-3.39031
-4.58122
-3.51399
-3.35143
-3.22322
-3.10012
-3.19864
-3.50843
-4.00635
-4.0419
-3.18794
-4.59296
-3.48444
-3.3266
-3.27031
-3.22887
-3.31499
-3.65207
-3.89717
-3.67561
-2.82886
-3.82743
-3.04974
-3.06828
-3.03535
-3.03391
-3.13328
-3.22473
-3.11062
-2.79764
-2.06182
-9.46283
-8.64343
-8.54519
-8.24548
-8.03361
-7.76901
-7.40034
-7.01488
-6.77146
-5.324
-7.74046
-6.42749
-6.18256
-6.02693
-5.8664
-5.77178
-5.81257
-5.71342
-5.32198
-4.21705
-6.8723
-5.54168
-5.46998
-5.34669
-5.16243
-5.1906
-5.28505
-5.32676
-5.23068
-4.06973
-6.31098
-4.93954
-4.8783
-4.83293
-4.6698
-4.57698
-4.92033
-5.18051
-4.89001
-3.98151
-5.83973
-4.46303
-4.45938
-4.38454
-4.18931
-4.28283
-4.57518
-4.8367
-4.78316
-3.81908
-5.58177
-4.2362
-4.09081
-4.02317
-3.93297
-3.94324
-4.37616
-4.73898
-4.51351
-3.69086
-5.38798
-3.97172
-3.83732
-3.77027
-3.60203
-3.79742
-4.26232
-4.453
-4.37576
-3.57961
-5.1145
-3.83876
-3.63605
-3.48509
-3.44541
-3.70352
-4.01761
-4.27234
-4.26302
-3.45167
-4.9061
-3.70102
-3.51496
-3.43633
-3.46893
-3.61988
-3.95529
-4.02267
-3.9566
-3.18659
-4.02914
-3.12859
-3.11417
-3.1113
-3.14806
-3.30396
-3.30548
-3.23134
-3.11795
-2.35778
-4.52122
-4.48066
-4.85299
-4.87079
-4.93695
-4.93424
-4.96185
-4.92222
-4.96496
-4.02991
-3.80684
-3.32336
-3.55469
-3.83412
-3.92016
-3.87552
-3.93773
-3.94135
-3.88836
-3.26467
-3.49075
-2.91548
-3.303
-3.47498
-3.57929
-3.68792
-3.68395
-3.69636
-3.79576
-3.19538
-3.49487
-2.80153
-2.91135
-3.17316
-3.34041
-3.42668
-3.57299
-3.631
-3.61227
-3.16844
-3.40474
-2.5902
-2.74111
-2.97099
-3.15129
-3.3532
-3.43357
-3.45033
-3.55322
-3.09193
-3.45543
-2.63944
-2.6635
-2.93691
-3.18328
-3.2459
-3.34065
-3.33127
-3.34659
-3.02217
-3.57937
-2.69991
-2.79036
-3.06945
-3.16887
-3.24802
-3.21494
-3.10615
-3.22154
-2.91987
-3.61439
-2.92198
-2.96155
-3.13406
-3.25166
-3.20607
-3.05399
-3.04777
-3.18894
-2.7978
-3.72232
-3.01339
-3.15657
-3.2883
-3.32916
-3.16818
-3.08949
-3.07478
-3.08277
-2.55997
-2.99779
-2.62031
-2.84019
-3.00579
-2.96213
-2.87481
-2.73664
-2.63799
-2.51547
-1.93819
-10.6179
-8.9618
-8.90653
-8.53733
-7.82878
-7.06173
-6.42292
-5.96372
-5.85584
-4.70559
-8.24036
-6.10881
-6.10694
-5.98246
-5.62597
-5.07585
-4.64931
-4.42442
-4.31493
-3.66197
-7.1459
-5.33181
-5.35179
-5.24691
-4.89047
-4.50216
-4.06285
-3.77816
-3.91239
-3.36184
-6.34233
-4.74914
-4.74376
-4.63337
-4.36702
-3.95195
-3.64341
-3.48577
-3.45162
-3.1838
-5.68088
-4.24933
-4.25515
-4.1534
-3.84396
-3.54977
-3.23346
-3.10482
-3.29913
-2.98488
-5.28546
-3.90805
-3.87999
-3.72624
-3.42422
-3.05032
-2.85807
-2.9463
-3.04092
-2.8394
-5.02496
-3.6888
-3.62405
-3.38526
-3.02494
-2.71118
-2.62294
-2.71741
-2.9246
-2.68427
-4.9196
-3.67029
-3.52722
-3.17977
-2.82473
-2.55798
-2.45227
-2.64187
-2.83785
-2.5404
-4.85246
-3.83433
-3.48177
-3.15829
-2.74367
-2.49109
-2.42804
-2.60406
-2.69693
-2.34162
-4.11463
-3.28216
-3.14282
-2.7671
-2.48217
-2.29197
-2.25506
-2.29307
-2.3175
-1.84553
-2.10351
-2.23965
-2.57126
-2.79803
-3.07888
-3.21862
-3.33078
-3.39022
-3.57272
-2.99139
-2.16555
-1.95106
-2.16488
-2.43821
-2.68172
-2.65055
-2.67143
-2.71505
-2.77861
-2.47496
-2.3778
-2.04433
-2.32413
-2.5363
-2.61368
-2.6112
-2.47822
-2.5019
-2.63421
-2.3792
-2.59195
-2.18247
-2.31569
-2.48078
-2.49342
-2.34247
-2.33292
-2.44581
-2.50134
-2.33023
-2.70345
-2.17
-2.28627
-2.34086
-2.26848
-2.19656
-2.18317
-2.40283
-2.55326
-2.28384
-2.78406
-2.16424
-2.19118
-2.20672
-2.12205
-2.04659
-2.17999
-2.47056
-2.56246
-2.24157
-2.91097
-2.14243
-2.15338
-2.08871
-2.00909
-2.01761
-2.27752
-2.50891
-2.54334
-2.20976
-3.04959
-2.26163
-2.17707
-2.06828
-1.99796
-2.12416
-2.31885
-2.47829
-2.53427
-2.12767
-3.19245
-2.45778
-2.23919
-2.15668
-2.06281
-2.16258
-2.27504
-2.42305
-2.33569
-1.95926
-2.77411
-2.14907
-2.10858
-1.987
-1.95235
-1.9494
-2.00141
-1.99412
-1.91891
-1.49235
-8.35636
-7.15026
-6.97588
-6.85138
-6.48353
-5.95716
-5.38051
-5.11459
-5.21859
-4.25528
-6.85145
-5.19062
-5.05703
-5.12846
-4.93225
-4.38739
-3.89559
-3.77154
-3.81174
-3.26158
-6.30297
-4.97974
-5.03681
-5.08966
-4.66064
-4.01524
-3.47914
-3.35129
-3.49304
-3.07707
-5.64359
-4.52519
-4.61568
-4.47974
-3.95314
-3.34669
-3.1802
-3.29048
-3.31815
-2.98274
-4.92413
-3.9297
-3.9344
-3.68076
-3.22378
-3.00103
-3.10156
-3.26333
-3.3076
-2.84368
-4.34606
-3.31937
-3.19436
-3.02128
-2.86278
-2.88885
-3.10226
-3.25999
-3.16417
-2.65495
-3.95807
-2.7965
-2.68228
-2.6931
-2.74566
-2.91029
-3.12103
-3.12674
-2.96025
-2.53874
-3.7529
-2.65382
-2.54602
-2.60847
-2.74543
-2.92635
-2.94407
-2.90522
-2.80242
-2.4215
-3.71017
-2.78896
-2.57741
-2.62874
-2.69939
-2.73024
-2.75347
-2.6746
-2.56432
-2.2904
-3.09225
-2.34216
-2.2954
-2.28172
-2.31083
-2.34028
-2.31017
-2.25197
-2.24254
-1.80858
-0.851053
-1.11886
-1.38519
-1.59949
-1.93761
-2.15929
-2.36519
-2.47877
-2.55265
-2.19588
-1.04704
-1.05139
-1.20047
-1.48679
-1.73435
-1.84298
-1.94377
-2.02017
-2.18215
-1.89371
-1.33875
-1.27691
-1.55468
-1.77185
-1.87402
-1.87634
-1.88393
-2.00624
-2.13971
-1.94059
-1.6839
-1.55677
-1.73618
-1.91912
-1.8879
-1.85835
-1.94022
-2.05565
-2.16381
-1.94175
-1.84436
-1.63385
-1.83284
-1.90451
-1.87154
-1.91723
-2.01307
-2.10588
-2.13074
-1.89474
-1.90389
-1.64301
-1.74555
-1.89221
-1.96929
-2.00799
-2.07842
-2.11318
-2.07864
-1.83712
-1.99524
-1.59456
-1.73111
-1.99991
-2.06346
-2.08852
-2.10496
-2.06807
-2.00683
-1.81103
-2.04597
-1.7167
-1.85256
-2.06884
-2.12453
-2.09799
-2.02906
-1.94841
-1.96078
-1.78185
-2.18606
-1.82852
-1.97547
-2.1332
-2.10894
-2.02248
-1.90126
-1.88221
-1.85914
-1.69398
-1.84514
-1.61078
-1.76969
-1.87584
-1.85921
-1.77342
-1.70385
-1.65599
-1.6261
-1.34468
-7.36933
-6.18119
-5.87597
-5.59625
-5.20358
-4.80733
-4.37349
-4.00143
-3.91294
-3.13729
-5.92874
-4.29577
-3.90987
-3.69503
-3.485
-3.16847
-3.02415
-2.96054
-2.83736
-2.3986
-5.2773
-3.89559
-3.72502
-3.52768
-3.13706
-2.81754
-2.56285
-2.45299
-2.59123
-2.16116
-4.76513
-3.58089
-3.46184
-3.24327
-2.82871
-2.40063
-2.25524
-2.24225
-2.16287
-2.00243
-4.27836
-3.18955
-3.1325
-2.87156
-2.48268
-2.23177
-2.0478
-1.93782
-2.04148
-1.78075
-3.93733
-2.88177
-2.67616
-2.55632
-2.31586
-2.04099
-1.91318
-1.89178
-1.79279
-1.68037
-3.60073
-2.5251
-2.3956
-2.32356
-2.14656
-1.94333
-1.83051
-1.70547
-1.75283
-1.60948
-3.35881
-2.40397
-2.24712
-2.17062
-1.99547
-1.79954
-1.66209
-1.63759
-1.68949
-1.59204
-3.0753
-2.37765
-2.11452
-2.05396
-1.80431
-1.6558
-1.54735
-1.60932
-1.67071
-1.50835
-2.43862
-1.83155
-1.78451
-1.6529
-1.54702
-1.44171
-1.45207
-1.48655
-1.46123
-1.19805
-0.288289
-0.496289
-0.679942
-0.702814
-0.928497
-1.12975
-1.34405
-1.38738
-1.38721
-1.1243
-0.434705
-0.487134
-0.543344
-0.680971
-0.873974
-0.941255
-1.15811
-1.24867
-1.21135
-1.05482
-0.521745
-0.525854
-0.750824
-0.821376
-0.925274
-1.07115
-1.11886
-1.20464
-1.28722
-1.06583
-0.888959
-0.783711
-0.800358
-1.00182
-1.10285
-1.10395
-1.18895
-1.24272
-1.19366
-1.09916
-0.965303
-0.783128
-0.998904
-1.08886
-1.17418
-1.24512
-1.19354
-1.17879
-1.25624
-1.0675
-1.11017
-0.938899
-0.964624
-1.1065
-1.22325
-1.21352
-1.20234
-1.21139
-1.16687
-1.08329
-1.12205
-0.900034
-1.01699
-1.1038
-1.19839
-1.20394
-1.13737
-1.0937
-1.17165
-1.07101
-1.14807
-0.985051
-1.02952
-1.14458
-1.19528
-1.11573
-1.05068
-1.03375
-1.11356
-1.10318
-1.11482
-0.974014
-1.05791
-1.17399
-1.14626
-1.10289
-0.961252
-0.998083
-1.0524
-0.932443
-0.923876
-0.851615
-0.975541
-1.04187
-1.08487
-1.00207
-0.925966
-0.865763
-0.769081
-0.665918
-7.98186
-6.02395
-5.36973
-4.89701
-4.53212
-4.19256
-3.6612
-3.27648
-3.04396
-2.48803
-6.10069
-3.91934
-3.41095
-3.02885
-2.79944
-2.5234
-2.28647
-2.17248
-2.11607
-1.8325
-5.17078
-3.47813
-3.1298
-2.85654
-2.57788
-2.30895
-2.06663
-1.93095
-1.94609
-1.66693
-4.60064
-3.14911
-2.92724
-2.63862
-2.35441
-2.12693
-1.99658
-1.86558
-1.762
-1.57094
-4.00974
-2.86614
-2.72923
-2.33563
-2.0371
-1.92988
-1.85701
-1.76678
-1.72814
-1.45449
-3.71978
-2.68583
-2.46073
-2.13339
-1.80652
-1.63973
-1.66685
-1.71872
-1.60938
-1.38722
-3.30401
-2.42745
-2.30822
-1.99932
-1.65176
-1.45333
-1.44113
-1.49586
-1.58937
-1.31168
-2.95869
-2.21056
-2.05977
-1.80417
-1.50916
-1.29465
-1.22251
-1.37378
-1.53313
-1.26128
-2.5443
-1.98398
-1.7806
-1.60979
-1.36849
-1.21257
-1.17183
-1.29451
-1.43295
-1.16783
-1.98695
-1.54025
-1.51536
-1.36826
-1.24499
-1.15409
-1.12019
-1.15252
-1.20076
-0.959023
3.03105
2.04976
1.76619
1.43527
1.09699
0.796072
0.338665
0.0207776
0.0473351
-0.1345
1.93221
1.18954
0.83942
0.697357
0.497646
0.1793
0.0374658
-0.0803131
-0.318176
-0.260815
1.06935
0.568807
0.486963
0.287389
0.0793435
-0.0242665
-0.270123
-0.405834
-0.339534
-0.434191
0.4183
0.227518
0.0446493
-0.0562967
-0.163026
-0.402749
-0.488209
-0.481483
-0.592594
-0.507605
-0.0849781
-0.182771
-0.20184
-0.287547
-0.390931
-0.482971
-0.66367
-0.711629
-0.611262
-0.601156
-0.402123
-0.380091
-0.443961
-0.449328
-0.474085
-0.607587
-0.725668
-0.756965
-0.747952
-0.641538
-0.645419
-0.589918
-0.602532
-0.595328
-0.596549
-0.61443
-0.726483
-0.834164
-0.763278
-0.670729
-0.763855
-0.705542
-0.712488
-0.708743
-0.665564
-0.662243
-0.717863
-0.766414
-0.825368
-0.676282
-0.805259
-0.707638
-0.751057
-0.761983
-0.724111
-0.71267
-0.674338
-0.769397
-0.764791
-0.604799
-0.669793
-0.641315
-0.696976
-0.720535
-0.728914
-0.675002
-0.645835
-0.630019
-0.586357
-0.475135
-3.2865
-2.50734
-2.21788
-2.11686
-1.92111
-1.75967
-1.54572
-1.43855
-1.34756
-1.28451
-2.57357
-1.69662
-1.60155
-1.42384
-1.31501
-1.30049
-1.08293
-0.939537
-1.01976
-0.902286
-2.46391
-1.66524
-1.31958
-1.24928
-1.17296
-1.06375
-1.08139
-0.932708
-0.847137
-0.87862
-2.17048
-1.41421
-1.27346
-1.03797
-0.933817
-0.998636
-0.944757
-0.851842
-0.889025
-0.824918
-2.11038
-1.43764
-1.08372
-0.911909
-0.809818
-0.775865
-0.886306
-0.886181
-0.811414
-0.826982
-2.0061
-1.35489
-1.11283
-0.866439
-0.71188
-0.729484
-0.771479
-0.821931
-0.859514
-0.799243
-2.02187
-1.44422
-1.14219
-0.898703
-0.742963
-0.645904
-0.706731
-0.775001
-0.804566
-0.755918
-1.97251
-1.33866
-1.14498
-0.914212
-0.729419
-0.652321
-0.63137
-0.681957
-0.766985
-0.703507
-1.69248
-1.21059
-0.977207
-0.853924
-0.68817
-0.609215
-0.581777
-0.633912
-0.695177
-0.622834
-1.35425
-0.923617
-0.819368
-0.689413
-0.595427
-0.520709
-0.514984
-0.542409
-0.586841
-0.493753
1.9326
1.44228
1.16576
0.92934
0.648782
0.396277
0.166925
0.0183281
-0.0264642
-0.0607703
1.45699
0.917238
0.717431
0.522194
0.31855
0.142597
-0.0243762
-0.0972678
-0.150644
-0.149849
0.995107
0.636599
0.474777
0.328881
0.170653
0.000629608
-0.120154
-0.21259
-0.225442
-0.224137
0.667763
0.386888
0.260082
0.144623
0.0244517
-0.0950692
-0.231091
-0.29108
-0.305687
-0.270567
0.344985
0.177323
0.109968
0.00813718
-0.0713989
-0.168606
-0.270259
-0.346289
-0.34194
-0.303075
0.163115
0.0416365
-0.0506338
-0.0997288
-0.148913
-0.217057
-0.290866
-0.358093
-0.370766
-0.304383
-0.0574351
-0.13967
-0.178382
-0.210865
-0.245064
-0.262233
-0.322985
-0.367772
-0.355781
-0.304632
-0.217569
-0.236861
-0.295822
-0.315334
-0.312112
-0.325757
-0.344104
-0.35663
-0.361006
-0.289265
-0.308887
-0.319557
-0.331591
-0.366097
-0.3463
-0.349097
-0.333839
-0.341347
-0.309642
-0.2503
-0.31253
-0.289856
-0.33268
-0.329442
-0.324764
-0.295558
-0.273357
-0.243103
-0.214937
-0.16082
-3.92356
-3.34684
-3.11113
-2.7786
-2.38981
-2.03954
-1.7371
-1.56267
-1.65618
-1.41421
-3.20118
-2.55375
-2.23241
-2.05067
-1.81752
-1.48764
-1.30304
-1.19207
-1.03564
-0.941928
-2.68198
-2.07835
-1.92786
-1.75027
-1.54415
-1.39075
-1.15316
-0.992324
-1.00246
-0.801967
-2.20467
-1.75524
-1.5708
-1.38587
-1.26375
-1.10346
-1.04408
-0.96698
-0.828875
-0.742553
-1.82618
-1.4204
-1.26778
-1.06533
-0.924849
-0.936658
-0.907341
-0.833174
-0.838685
-0.677867
-1.55045
-1.22577
-1.04999
-0.883134
-0.767968
-0.701489
-0.769003
-0.830662
-0.781197
-0.657099
-1.35869
-1.03665
-0.943289
-0.820182
-0.698219
-0.667505
-0.719839
-0.763752
-0.779422
-0.65986
-1.18944
-0.854793
-0.80414
-0.719606
-0.66431
-0.663809
-0.664792
-0.736703
-0.740628
-0.620707
-1.00708
-0.734157
-0.648701
-0.619946
-0.617225
-0.591225
-0.655474
-0.648175
-0.672364
-0.626654
-0.830643
-0.590441
-0.546948
-0.509278
-0.484932
-0.509027
-0.522116
-0.549649
-0.627024
-0.487638
1.45745
1.13488
0.92188
0.89983
0.709137
0.512521
0.379112
0.385854
0.248131
0.314113
1.32725
0.912784
0.872312
0.635437
0.404343
0.383621
0.218187
0.164582
0.277113
0.202036
1.40396
1.05952
0.73933
0.618938
0.462801
0.273668
0.265314
0.264531
0.18085
0.202302
1.20307
0.866378
0.827946
0.567552
0.387263
0.318354
0.21548
0.177206
0.213409
0.165291
1.19009
0.902391
0.663991
0.506066
0.361565
0.226038
0.191108
0.166008
0.13871
0.126953
1.08766
0.745565
0.630043
0.445917
0.303468
0.21021
0.146018
0.116384
0.117165
0.0968415
1.03929
0.697092
0.500287
0.372144
0.245145
0.154277
0.115099
0.0931996
0.100534
0.0735084
0.958202
0.522986
0.412293
0.265342
0.171123
0.108088
0.0719278
0.0910417
0.0735861
0.0749123
0.792819
0.439033
0.270351
0.174967
0.0905167
0.038399
0.0609806
0.0403463
0.0820916
0.0599572
0.630959
0.300556
0.18791
0.0890807
0.0260412
0.0176282
0.0247507
0.0567003
0.0809299
0.0661285
-4.59707
-3.40957
-2.96232
-2.32738
-1.49015
-0.941366
-0.492378
-0.179951
-0.202572
-0.0681334
-3.31702
-2.50761
-2.16146
-1.49629
-0.983003
-0.448004
-0.185554
-0.0388451
0.176788
0.107394
-2.48977
-1.91456
-1.53628
-1.08931
-0.560257
-0.238785
0.0547982
0.287849
0.248153
0.274602
-1.68611
-1.24161
-1.01512
-0.595972
-0.248422
0.0679095
0.279875
0.363549
0.466715
0.354526
-1.18941
-0.844757
-0.57088
-0.287994
-0.014829
0.21677
0.364015
0.498497
0.485
0.397743
-0.964681
-0.575576
-0.376249
-0.15159
0.12846
0.27042
0.456122
0.511794
0.531482
0.415035
-0.781918
-0.512725
-0.306175
0.00287611
0.124101
0.374374
0.487876
0.583849
0.579967
0.452871
-0.798981
-0.370663
-0.205567
0.0151881
0.227417
0.409417
0.538502
0.654681
0.612845
0.487581
-0.549565
-0.417533
-0.0250354
0.081963
0.342065
0.406443
0.605124
0.587987
0.602879
0.476486
-0.507631
-0.145753
-0.000960428
0.221768
0.294048
0.436026
0.471289
0.503084
0.477537
0.346669
8.81111
6.98311
6.73915
6.13924
5.29077
4.55213
3.97954
3.63062
3.80246
3.18451
6.54806
4.94206
4.65846
4.5418
3.9567
3.21676
2.88815
2.69633
2.43083
2.22839
5.13975
4.17895
4.43693
4.27594
3.74018
3.21717
2.70145
2.37687
2.44143
2.0143
4.21465
3.524
3.53358
3.63531
3.38939
2.84221
2.59663
2.43864
2.16253
1.94669
3.06879
2.53946
2.82152
2.83728
2.71452
2.5739
2.28354
2.09263
2.13493
1.76445
2.48856
2.04946
2.05565
2.18593
2.22694
2.03187
1.98776
1.93238
1.8148
1.6251
1.97917
1.46859
1.59355
1.7247
1.70065
1.80822
1.81018
1.71776
1.74707
1.56697
1.66652
1.29185
1.26592
1.35111
1.46449
1.61905
1.65828
1.75873
1.76212
1.57003
1.61083
1.10919
1.19953
1.20817
1.40546
1.44184
1.71372
1.75379
1.84374
1.64986
1.31515
1.06113
1.05531
1.14533
1.17134
1.34398
1.46341
1.58017
1.69067
1.29475
3.51107
3.17364
3.32385
3.23488
3.35803
3.35614
3.26402
3.09369
3.35577
2.70746
2.84897
2.37406
2.1405
2.30913
2.43683
2.29517
2.4523
2.49804
2.20594
2.02028
2.54621
2.00894
2.20273
2.22332
2.20804
2.35649
2.25072
2.13456
2.30488
1.87665
2.51973
2.05367
2.06024
2.21528
2.25733
2.12648
2.1889
2.23753
2.04329
1.85752
2.16206
1.76773
1.97874
2.11988
2.14641
2.19054
2.12823
2.03685
2.09024
1.81232
1.96101
1.70092
1.86313
2.03991
2.13361
2.1184
2.07849
2.05093
1.99715
1.75635
1.90439
1.58682
1.783
2.00135
2.08632
2.1261
2.14552
2.03439
1.95749
1.75764
1.88025
1.60515
1.73863
1.9142
2.03431
2.15897
2.12026
2.04513
2.06064
1.72548
1.96617
1.60665
1.73218
1.85757
2.00234
2.07422
2.14688
2.17128
2.04418
1.70196
1.70841
1.42001
1.52399
1.62882
1.70337
1.7981
1.8614
1.82342
1.72837
1.26818
5.4718
4.57172
4.49489
4.24447
4.10985
4.11164
4.23804
4.29431
4.50622
3.7164
3.84279
3.1182
2.93679
2.84098
2.72851
2.58681
2.77681
3.01505
2.92372
2.72135
3.31432
2.70607
2.8231
2.7118
2.42263
2.38324
2.3573
2.39415
2.77278
2.5349
2.97268
2.61152
2.80126
2.74545
2.43614
2.14783
2.09974
2.21256
2.32304
2.32166
3.05553
2.66549
2.91734
3.00873
2.54223
2.19608
2.04384
1.9748
2.12441
2.132
3.0892
2.7483
3.15856
3.26674
2.88478
2.40103
2.08952
2.01655
2.13761
2.00384
3.43853
2.93012
3.15175
3.44584
3.24917
2.67849
2.41605
2.25265
2.17199
2.12063
3.6372
2.94001
3.12848
3.26737
3.25205
3.08249
2.65965
2.48437
2.5851
2.18918
3.59242
2.90801
2.77407
2.84244
2.95208
2.93175
2.90662
2.87969
2.72975
2.32939
3.02047
2.20791
2.16047
2.13235
2.1751
2.32803
2.42624
2.40673
2.4284
1.78082
2.82681
2.5749
2.79938
2.7785
2.64726
2.52264
2.57656
2.86408
3.34042
2.76249
2.10876
1.85838
1.93214
2.02097
2.01437
1.86145
1.84898
2.04216
2.24122
2.0423
1.88201
1.63282
1.75753
1.90048
1.92135
1.85793
1.80428
1.83942
2.01551
2.00885
1.64297
1.45629
1.62551
1.74279
1.84987
1.87471
1.77723
1.75784
1.94992
1.86767
1.67524
1.37439
1.44024
1.65944
1.79877
1.82596
1.86076
1.79596
1.78891
1.78838
1.6079
1.3112
1.4333
1.55135
1.71917
1.88818
1.87643
1.81317
1.94739
1.64057
1.8423
1.43577
1.40519
1.53396
1.68092
1.77553
1.94556
1.99923
1.85003
1.75864
1.97351
1.50901
1.53162
1.50536
1.59837
1.82035
1.89919
1.93463
2.16443
1.82182
2.2322
1.68728
1.54956
1.53124
1.59503
1.69564
1.9044
2.13794
2.15598
1.95934
2.13435
1.46805
1.41207
1.37047
1.38395
1.50815
1.66873
1.76729
1.91165
1.49666
3.11495
2.76641
2.69326
2.35683
2.11203
2.04725
2.0974
2.37782
2.81214
2.04494
2.51226
2.16314
2.08488
1.98334
1.68809
1.46395
1.57722
1.91219
2.04774
1.58128
1.95007
1.75883
2.05504
1.99704
1.70532
1.52502
1.48622
1.65921
1.80841
1.36599
1.82937
1.56966
1.60699
1.8062
1.77512
1.55064
1.55601
1.64043
1.45394
1.18399
1.61662
1.25621
1.36271
1.43907
1.51813
1.56874
1.49007
1.39611
1.26856
1.00878
1.42388
1.15003
1.05134
1.10451
1.2085
1.22531
1.26009
1.18629
1.05127
0.911963
1.23304
0.90947
0.93417
0.93682
0.91705
1.00696
1.03682
0.983819
0.961765
0.889837
1.11441
0.836979
0.831796
0.822739
0.831708
0.876182
0.875374
0.919793
0.94912
0.889728
1.04589
0.70546
0.755796
0.76662
0.810868
0.78218
0.861333
0.883626
0.947267
0.890005
0.905157
0.665022
0.677666
0.710881
0.702277
0.746918
0.764513
0.804528
0.852056
0.71921
2.19172
1.80587
1.70649
1.40362
1.22784
1.14368
1.05279
1.07111
1.33214
1.06234
1.7835
1.38737
1.16109
1.14981
1.00864
0.824051
0.920406
1.04458
0.938532
0.83252
1.26029
1.07779
1.21961
0.986078
0.85263
0.883857
0.824541
0.94494
1.07222
0.70634
1.20624
1.0123
0.77959
0.828803
0.770213
0.644017
0.901273
1.01743
0.706598
0.681576
0.805291
0.589445
0.723349
0.602578
0.555238
0.733467
0.736155
0.678881
0.737003
0.512372
0.727331
0.588288
0.426672
0.469101
0.53138
0.492508
0.648098
0.633256
0.431411
0.47399
0.458698
0.283968
0.387269
0.393742
0.366673
0.537886
0.46225
0.367198
0.466634
0.372507
0.313888
0.258976
0.259297
0.312067
0.409664
0.363568
0.339246
0.391025
0.294546
0.350681
0.167088
0.0655689
0.207316
0.279013
0.324907
0.30094
0.31068
0.243391
0.309068
0.268122
0.0849558
0.136649
0.199443
0.266291
0.274066
0.27925
0.247743
0.270734
0.242858
0.232607
-0.440762
-0.355616
-0.371108
-0.337735
-0.276087
-0.19295
-0.117407
0.0372961
0.0890796
0.151214
-0.135931
-0.164809
-0.175208
-0.141356
-0.122653
-0.0464705
0.0357211
0.0824048
0.172849
0.192531
0.00514355
-0.0244625
-0.0204375
-0.0460967
-0.00294419
0.0513706
0.0842971
0.179695
0.248519
0.203926
0.178173
0.0763311
0.0122381
0.0455426
0.058252
0.0681547
0.177706
0.226041
0.196032
0.235369
0.123613
0.0484805
0.0798297
0.0438117
0.0522098
0.133286
0.140259
0.164433
0.250652
0.17494
0.158845
0.0686015
0.00722665
0.0312836
0.0627251
0.0436438
0.146637
0.180582
0.1156
0.172772
0.038879
-0.0365539
-0.0129192
-0.0111477
-0.0219824
0.0605632
0.0591786
0.0432163
0.151669
0.0979434
-0.00659427
-0.070429
-0.085261
-0.067162
-0.0276407
-0.0344077
-0.00866471
0.079306
0.0256525
0.0847087
-0.0938092
-0.135086
-0.101899
-0.0769809
-0.0464674
-0.0373598
0.0110631
-0.027272
0.0464356
0.0215333
-0.0895941
-0.0686257
-0.0522945
-0.0220534
-0.00958624
0.0100926
0.00864629
0.0331679
0.0146423
0.028344
-2.92303
-2.40591
-2.30137
-2.01338
-1.75696
-1.57167
-1.30787
-0.979414
-1.08126
-0.743393
-2.00279
-1.62292
-1.47783
-1.36135
-1.2128
-0.831317
-0.74276
-0.685245
-0.395974
-0.414243
-1.41018
-1.10536
-1.17873
-0.992837
-0.720454
-0.635822
-0.440643
-0.291875
-0.386809
-0.225891
-1.07563
-0.904193
-0.73406
-0.611423
-0.488236
-0.301099
-0.283084
-0.276373
-0.11689
-0.142499
-0.915301
-0.615288
-0.526044
-0.385564
-0.266685
-0.248857
-0.192511
-0.091826
-0.106933
-0.0670476
-0.833839
-0.544309
-0.356678
-0.278349
-0.201185
-0.165876
-0.131638
-0.0949778
-0.0407268
-0.0353824
-0.793191
-0.461472
-0.339254
-0.212099
-0.187048
-0.152279
-0.14341
-0.0763376
-0.0335385
-0.0530985
-0.778495
-0.457658
-0.325235
-0.231762
-0.172049
-0.175685
-0.162555
-0.0705808
-0.0798184
-0.0537148
-0.6558
-0.519709
-0.302648
-0.24367
-0.162488
-0.19858
-0.158044
-0.140043
-0.0790277
-0.103185
-0.6002
-0.352831
-0.270921
-0.160219
-0.132414
-0.123251
-0.154219
-0.115307
-0.115012
-0.0936762
-0.679916
-0.693155
-0.930146
-0.938593
-0.986351
-0.971218
-0.850886
-0.574012
-0.783543
-0.401536
-0.475146
-0.607567
-0.534485
-0.617539
-0.648603
-0.408976
-0.498576
-0.531237
-0.163899
-0.248693
-0.101184
-0.132814
-0.373202
-0.294139
-0.243344
-0.357985
-0.221724
-0.0962715
-0.279067
-0.049384
0.0356332
-0.106831
-0.000434741
-0.101884
-0.157548
-0.0547439
-0.1152
-0.156552
0.0721979
-0.0127905
0.152989
0.144883
-0.00488584
-0.0170958
-0.0167836
-0.0919188
-0.0274301
0.0696455
-0.0179649
0.0798469
0.195882
0.0330011
0.0478795
-0.0139016
-0.0308792
0.00346351
0.0147553
-0.0032461
0.127947
0.0833761
0.0360393
0.0160557
-0.0389521
-0.0205642
-0.0398994
-0.0319693
0.00714511
0.0708341
0.0800751
0.0949258
-0.128332
-0.0836146
-0.0902362
-0.0744753
-0.0721599
-0.0224611
-0.0134802
0.0465058
0.08804
0.0940039
-0.24195
-0.242731
-0.116067
-0.148382
-0.068131
-0.123993
-0.00134546
0.00335969
0.0828137
0.0708128
-0.355133
-0.189513
-0.182286
-0.115966
-0.137083
-0.086532
-0.0597119
0.0117318
0.0627939
0.0472169
-2.78894
-2.28625
-2.4568
-2.4201
-2.27431
-2.21933
-1.87854
-1.5463
-1.64775
-1.06209
-2.24977
-2.12595
-2.12488
-2.04102
-1.7789
-1.31462
-1.28272
-1.27261
-0.836745
-0.699071
-1.76492
-1.39632
-1.38778
-1.14065
-0.870035
-0.816546
-0.602059
-0.471144
-0.661851
-0.344575
-1.27937
-1.01892
-0.783742
-0.6524
-0.542483
-0.321943
-0.314995
-0.366899
-0.175295
-0.216223
-1.01036
-0.57437
-0.502993
-0.380992
-0.265255
-0.243609
-0.162729
-0.0774996
-0.177038
-0.0942563
-0.68571
-0.411506
-0.289322
-0.245745
-0.196853
-0.112957
-0.0795282
-0.111376
-0.0337549
-0.0712721
-0.542741
-0.282346
-0.234853
-0.180814
-0.153675
-0.10654
-0.0861774
-0.0351431
-0.0674915
-0.0684365
-0.477658
-0.24399
-0.214886
-0.172338
-0.141345
-0.103434
-0.0686639
-0.0769798
-0.0793171
-0.0818706
-0.436472
-0.307639
-0.172047
-0.179074
-0.124923
-0.119993
-0.0973694
-0.117876
-0.129071
-0.148939
-0.489201
-0.229107
-0.18478
-0.134369
-0.141509
-0.134396
-0.140858
-0.156232
-0.201108
-0.169023
2.78378
1.85604
1.56489
1.3942
1.22253
1.11612
1.0247
0.923227
0.988496
0.882787
2.11912
1.41818
1.36072
1.24474
1.11179
1.07459
0.971804
0.806348
0.693613
0.548719
1.88909
1.53382
1.41793
1.303
1.19305
1.13421
1.10451
0.873427
0.707503
0.537319
1.74763
1.36802
1.16368
0.968056
0.857708
0.856316
0.919268
0.841785
0.684716
0.511226
1.67461
1.16392
0.926556
0.769427
0.680931
0.672394
0.706072
0.658126
0.553389
0.413733
1.58241
0.908888
0.745069
0.636576
0.574179
0.553449
0.594044
0.540017
0.446447
0.356702
1.18034
0.637894
0.585717
0.524767
0.461182
0.462111
0.486139
0.428424
0.397948
0.33544
0.81332
0.462201
0.438965
0.410921
0.369519
0.380285
0.372263
0.388631
0.366429
0.345862
0.600905
0.343283
0.332562
0.320182
0.313289
0.288922
0.353421
0.350624
0.395005
0.362172
0.498873
0.285334
0.276424
0.274526
0.259517
0.281809
0.320033
0.37674
0.410188
0.331087
-0.79012
-0.315754
-0.065535
0.0195792
0.180748
0.370777
0.487666
0.62178
0.82508
0.733613
-0.540021
-0.151515
-0.0329044
0.144371
0.308793
0.336273
0.414977
0.479823
0.500067
0.501486
-0.409654
-0.141277
0.0823102
0.205541
0.340634
0.38371
0.37806
0.391337
0.431189
0.453045
-0.266958
-0.0357301
0.0872834
0.27675
0.422819
0.439802
0.389384