/*--------------------------------*- C++ -*----------------------------------*\
| =========                 |                                                 |
| \\      /  F ield         | OpenFOAM: The Open Source CFD Toolbox           |
|  \\    /   O peration     | Version:  2406                                  |
|   \\  /    A nd           | Website:  www.openfoam.com                      |
|    \\/     M anipulation  |                                                 |
\*---------------------------------------------------------------------------*/
FoamFile
{
    version     2.0;
    format      ascii;
    arch        "LSB;label=32;scalar=64";
    class       volScalarField;
    location    "0.3";
    object      magR;
}
// * * * * * * * * * * * * * * * * * * * * * * * * * * * * * * * * * * * * * //

dimensions      [0 2 -2 0 0 0 0];

internalField   uniform 0;

boundaryField
{
    walls
    {
        type            calculated;
        value           nonuniform List<scalar> 
2000
(
4.48535e-07
5.95933e-07
7.50954e-07
8.75629e-07
9.44113e-07
9.44433e-07
8.7795e-07
7.56705e-07
6.03946e-07
4.56854e-07
1.09153e-07
8.64599e-08
7.07919e-08
5.98137e-08
5.38429e-08
5.23993e-08
5.48351e-08
5.98001e-08
6.66994e-08
7.7516e-08
3.82134e-08
8.54232e-09
8.03491e-10
4.6573e-10
1.88825e-09
2.59629e-09
1.85633e-09
5.12252e-10
9.62523e-11
4.24323e-09
8.65516e-08
2.61943e-08
6.12385e-09
4.62026e-09
1.07305e-08
1.6607e-08
1.51973e-08
6.16459e-09
1.12638e-09
1.03565e-08
6.84753e-08
2.64986e-08
3.02588e-08
7.22417e-08
1.40911e-07
1.88831e-07
1.68844e-07
8.89082e-08
2.92469e-08
1.22952e-08
2.1209e-08
3.90813e-08
1.31161e-07
3.2694e-07
5.55734e-07
6.57869e-07
5.43587e-07
2.92546e-07
1.01718e-07
1.79213e-08
2.21323e-08
2.42713e-07
7.68833e-07
1.43968e-06
1.93875e-06
2.04528e-06
1.67324e-06
1.02702e-06
4.08573e-07
6.8263e-08
3.56825e-07
1.37851e-06
3.23671e-06
5.47494e-06
7.09535e-06
7.30795e-06
5.98437e-06
3.70163e-06
1.55118e-06
3.89452e-07
8.34967e-07
2.48542e-06
5.22261e-06
8.42072e-06
1.08811e-05
1.15578e-05
1.0153e-05
7.35649e-06
4.25567e-06
1.80578e-06
7.45268e-07
2.70898e-06
6.07731e-06
1.05006e-05
1.47885e-05
1.70736e-05
1.61139e-05
1.25562e-05
8.1564e-06
4.30425e-06
6.62489e-07
3.00882e-06
7.92e-06
1.50317e-05
2.20121e-05
2.53165e-05
2.32775e-05
1.7154e-05
1.0345e-05
5.25841e-06
4.53467e-07
2.7294e-06
7.9979e-06
1.53412e-05
2.15667e-05
2.40034e-05
2.15815e-05
1.55238e-05
8.90858e-06
4.05053e-06
3.37663e-07
2.05765e-06
6.44984e-06
1.2288e-05
1.67142e-05
1.76664e-05
1.54328e-05
1.13098e-05
6.69695e-06
2.87285e-06
5.04162e-07
2.17927e-06
5.81042e-06
1.05885e-05
1.41413e-05
1.46859e-05
1.24977e-05
9.09463e-06
5.54249e-06
2.29519e-06
2.83014e-06
6.82254e-06
1.2494e-05
1.85633e-05
2.24139e-05
2.21509e-05
1.81069e-05
1.21978e-05
6.51936e-06
2.08214e-06
9.6161e-06
1.83646e-05
2.84848e-05
3.7098e-05
4.05731e-05
3.70041e-05
2.74168e-05
1.64233e-05
6.98171e-06
1.83267e-06
1.12365e-05
2.26244e-05
3.67708e-05
4.84641e-05
5.22683e-05
4.7038e-05
3.58827e-05
2.32791e-05
1.29155e-05
6.27375e-06
8.70316e-06
1.98599e-05
3.54021e-05
5.04317e-05
5.8813e-05
5.72317e-05
4.71447e-05
3.32602e-05
2.02515e-05
1.04463e-05
1.00429e-05
2.05871e-05
3.48751e-05
4.86686e-05
5.70838e-05
5.76745e-05
5.08537e-05
3.87516e-05
2.45951e-05
1.24568e-05
1.6482e-05
3.01034e-05
4.72433e-05
6.14585e-05
6.65782e-05
6.22e-05
5.17007e-05
3.82572e-05
2.37261e-05
1.15361e-05
2.1082e-05
3.77714e-05
5.68816e-05
7.24673e-05
7.89056e-05
7.39065e-05
6.05723e-05
4.31659e-05
2.5295e-05
1.13425e-05
9.48543e-06
2.0644e-05
3.55976e-05
4.96378e-05
5.72802e-05
5.53647e-05
4.5201e-05
3.06298e-05
1.63302e-05
6.08258e-06
1.24596e-06
5.27858e-06
1.2753e-05
2.14461e-05
2.71521e-05
2.68522e-05
2.10659e-05
1.28997e-05
5.74484e-06
1.61421e-06
1.18714e-07
1.3514e-06
5.78294e-06
1.1614e-05
1.65498e-05
1.75246e-05
1.3588e-05
7.81744e-06
3.04609e-06
7.15029e-07
2.25216e-07
9.8776e-07
3.31605e-06
6.4932e-06
9.09629e-06
9.80697e-06
8.17909e-06
5.07499e-06
2.12742e-06
4.88207e-07
4.91056e-07
1.16955e-06
2.54569e-06
3.37141e-06
3.63926e-06
3.73541e-06
3.60073e-06
2.99878e-06
2.13356e-06
7.46199e-07
7.13965e-08
2.46832e-07
8.19337e-07
1.3399e-06
1.67177e-06
1.89693e-06
2.14073e-06
2.15503e-06
1.80457e-06
6.91618e-07
1.24454e-07
2.74575e-07
7.62535e-07
1.62801e-06
2.67336e-06
3.65997e-06
4.19683e-06
3.78498e-06
3.04082e-06
2.30272e-06
3.898e-06
4.36763e-06
5.59885e-06
8.58654e-06
1.30679e-05
1.71824e-05
1.90074e-05
1.788e-05
1.38552e-05
9.55099e-06
2.1006e-05
3.47443e-05
4.4614e-05
4.8371e-05
4.87682e-05
4.72363e-05
4.25634e-05
3.3296e-05
2.16425e-05
1.13667e-05
4.19303e-05
8.70328e-05
0.000133145
0.000153859
0.000137864
0.000105844
7.3372e-05
4.09846e-05
1.74049e-05
6.11136e-06
4.35721e-05
0.000103191
0.000151675
0.000175809
0.000172874
0.000150787
0.00011701
6.8686e-05
2.27918e-05
3.09211e-06
1.75496e-05
2.41339e-05
3.3995e-05
5.58269e-05
6.87145e-05
6.15849e-05
5.15188e-05
4.41874e-05
1.96162e-05
1.29423e-06
2.37735e-05
7.52785e-05
9.23311e-05
8.37445e-05
7.27422e-05
6.7363e-05
6.34367e-05
5.33611e-05
3.15403e-05
1.35331e-05
0.00014969
0.000262971
0.00035829
0.000442558
0.000451024
0.000361515
0.000222942
0.00011064
4.88946e-05
2.56416e-05
0.00018344
0.000313496
0.000421232
0.000569043
0.000728181
0.000768999
0.000636779
0.00040686
0.000174734
4.46855e-05
5.1939e-05
0.000134976
0.00020388
0.000116836
1.65221e-05
0.000116446
0.000512154
0.000784439
0.000535261
0.000164913
2.37827e-06
7.51462e-06
3.30969e-05
0.000118485
0.000233958
0.000151964
1.53841e-05
3.41928e-05
0.000152339
0.000187787
1.06708e-07
5.2741e-07
4.79898e-06
1.69039e-05
7.49352e-05
0.000189844
0.000198964
0.000101908
2.88015e-05
3.55481e-06
0.000131987
0.000110345
6.44861e-05
6.27651e-05
0.00011391
0.000216731
0.000305574
0.000304362
0.000211419
0.000108664
0.000799626
0.000803788
0.000784488
0.000758943
0.000722253
0.000523686
0.000295745
0.000205649
0.000218609
0.000293583
0.000279358
0.000246066
0.000148522
0.00010637
0.000214574
0.000750458
0.00108433
0.00130449
0.00418458
0.00781792
1.62239e-05
8.52797e-05
0.00025421
0.000648878
0.00131522
0.00157116
0.00141996
0.00147683
0.00587942
0.00674623
0.000311303
0.000805173
0.0010487
0.00108198
0.00127195
0.00016821
0.00226543
0.00762778
0.00261649
0.000392518
0.00573511
0.00369086
0.00838609
0.0116831
0.00896791
0.00666953
0.00756555
0.0103326
0.0136017
0.0145399
0.000415428
0.00186257
0.00430793
0.00444178
0.00314969
0.00306377
0.0033838
0.00416186
0.00460123
0.00446102
0.000790812
0.000913846
0.000604217
0.000218651
6.84691e-05
7.00213e-05
8.93542e-05
0.000114577
0.000119557
0.000156203
0.0131918
0.0152632
0.0167417
0.0164556
0.0138831
0.0126397
0.0121461
0.0107465
0.00872908
0.00635001
0.0303914
0.0469744
0.067272
0.0860252
0.0878128
0.0790903
0.0736149
0.0633413
0.0499968
0.0336408
0.0209553
0.0442895
0.0894299
0.134547
0.13661
0.139846
0.1626
0.153202
0.104854
0.0614555
4.60154e-07
6.31243e-07
8.13054e-07
9.56761e-07
1.02957e-06
1.01916e-06
9.31163e-07
7.8667e-07
6.13216e-07
4.53662e-07
3.75754e-08
3.28193e-08
3.53811e-08
4.18095e-08
5.028e-08
6.05185e-08
7.18646e-08
8.3991e-08
9.73076e-08
1.12312e-07
1.14284e-09
1.28419e-09
4.31965e-09
7.11983e-09
6.30162e-09
3.5117e-09
1.27707e-09
1.97983e-09
1.0976e-08
3.72101e-08
3.92176e-09
1.94508e-09
8.67604e-09
1.6653e-08
1.35852e-08
4.71175e-09
7.0045e-10
6.14495e-10
1.52522e-08
7.28225e-08
5.55058e-10
1.22982e-08
7.5258e-08
1.36524e-07
1.42202e-07
9.44039e-08
4.04754e-08
1.06736e-08
6.32395e-09
5.26262e-08
5.97294e-08
2.0178e-07
4.42576e-07
6.62811e-07
7.14561e-07
5.62475e-07
3.1524e-07
1.15125e-07
2.69052e-08
2.05737e-08
6.86837e-07
9.04573e-07
1.31445e-06
1.67079e-06
1.78582e-06
1.53431e-06
1.01545e-06
4.68109e-07
1.22803e-07
1.29518e-08
2.18859e-06
3.43446e-06
4.34142e-06
4.73073e-06
4.51564e-06
3.69557e-06
2.8831e-06
1.88176e-06
8.9958e-07
2.78278e-07
2.89216e-06
5.78617e-06
8.50209e-06
1.01645e-05
1.06631e-05
9.79931e-06
7.74509e-06
5.03493e-06
2.49471e-06
8.71251e-07
3.39819e-06
7.03931e-06
1.14645e-05
1.50696e-05
1.64814e-05
1.51674e-05
1.17656e-05
7.32814e-06
3.35055e-06
9.41869e-07
3.82176e-06
7.95523e-06
1.31197e-05
1.74286e-05
1.90154e-05
1.7133e-05
1.29902e-05
7.68882e-06
3.13391e-06
7.11415e-07
3.63585e-06
7.86199e-06
1.31776e-05
1.77495e-05
1.93177e-05
1.69251e-05
1.21853e-05
6.47094e-06
2.37179e-06
4.20343e-07
3.21892e-06
7.31671e-06
1.30318e-05
1.82515e-05
2.02864e-05
1.82394e-05
1.27629e-05
6.59484e-06
2.25348e-06
3.7878e-07
3.99519e-06
1.00354e-05
1.80266e-05
2.50715e-05
2.78088e-05
2.52714e-05
1.85581e-05
1.01851e-05
3.87011e-06
7.36353e-07
7.28613e-06
1.75184e-05
3.00324e-05
4.05255e-05
4.53685e-05
4.32026e-05
3.42424e-05
2.209e-05
1.097e-05
3.76911e-06
9.80214e-06
2.29105e-05
3.93913e-05
5.4312e-05
6.27987e-05
6.21142e-05
5.24108e-05
3.76986e-05
2.25462e-05
1.07012e-05
5.54686e-06
1.5045e-05
2.92848e-05
4.42557e-05
5.51984e-05
5.81793e-05
5.19348e-05
3.89764e-05
2.40352e-05
1.16857e-05
1.6848e-06
7.66674e-06
1.98571e-05
3.45368e-05
4.62473e-05
5.02516e-05
4.48507e-05
3.24334e-05
1.87386e-05
8.44157e-06
3.8088e-06
1.1762e-05
2.51483e-05
4.04988e-05
5.26689e-05
5.73781e-05
5.25523e-05
3.94986e-05
2.36283e-05
1.10038e-05
1.57112e-05
3.23568e-05
5.35942e-05
7.30482e-05
8.72825e-05
9.34933e-05
8.58969e-05
6.4944e-05
3.91218e-05
1.8971e-05
2.16746e-05
4.35434e-05
7.03201e-05
9.66281e-05
0.000118524
0.000127569
0.000115639
8.61009e-05
5.15527e-05
2.47477e-05
9.76024e-06
2.21083e-05
3.92548e-05
5.73194e-05
7.06661e-05
7.28763e-05
6.34752e-05
4.60688e-05
2.62952e-05
1.0917e-05
4.30008e-06
9.93323e-06
1.84826e-05
2.72858e-05
3.29835e-05
3.20936e-05
2.49023e-05
1.51735e-05
6.7774e-06
1.59633e-06
5.55647e-06
1.09961e-05
1.67484e-05
2.2613e-05
2.42494e-05
2.03108e-05
1.42423e-05
7.79056e-06
2.61536e-06
3.5631e-07
6.26411e-06
8.70482e-06
1.03856e-05
1.33385e-05
1.5381e-05
1.29118e-05
7.39641e-06
3.37664e-06
1.24549e-06
5.47454e-07
3.41305e-06
5.80689e-06
9.8884e-06
1.44753e-05
1.73987e-05
1.52692e-05
9.06989e-06
3.62974e-06
1.2208e-06
7.41825e-07
7.51823e-06
1.53428e-05
2.65969e-05
3.84971e-05
4.3936e-05
3.77493e-05
2.32814e-05
9.58526e-06
2.12449e-06
1.43273e-07
9.76992e-06
2.08163e-05
3.88102e-05
5.91242e-05
7.05603e-05
6.61052e-05
4.74197e-05
2.49453e-05
8.31217e-06
1.01975e-06
1.40424e-05
3.09043e-05
5.66082e-05
8.47628e-05
0.000104321
0.000105321
8.6139e-05
5.61646e-05
2.79876e-05
8.87776e-06
2.03429e-05
4.0886e-05
6.72506e-05
9.24822e-05
0.000108522
0.000105889
8.79867e-05
6.26631e-05
3.82438e-05
1.8898e-05
2.07559e-05
5.45749e-05
9.83723e-05
0.000136665
0.000153048
0.000144412
0.000118777
8.66358e-05
5.97493e-05
3.35908e-05
1.2007e-05
3.97315e-05
8.48209e-05
0.000142266
0.000195121
0.000211686
0.000183415
0.000128013
7.33311e-05
3.65962e-05
3.03865e-05
3.77361e-05
4.93874e-05
6.96466e-05
8.90952e-05
7.86302e-05
4.95084e-05
3.15986e-05
2.33591e-05
2.00414e-05
1.52737e-05
2.22369e-05
2.98659e-05
3.63563e-05
4.21985e-05
7.88385e-05
9.23649e-05
5.89865e-05
2.90289e-05
1.7236e-05
6.32218e-06
7.68374e-06
2.48902e-05
7.04635e-05
0.000167925
0.000252564
0.000295882
0.000281204
0.000229227
0.000149236
7.1775e-07
6.97373e-06
2.9075e-05
0.000108214
0.000280377
0.000460037
0.000509334
0.00043946
0.000316098
0.00018521
1.09956e-07
1.77504e-06
1.21312e-05
4.03029e-05
7.46973e-05
8.42663e-05
7.93595e-05
7.91183e-05
7.3978e-05
4.59815e-05
7.24757e-07
5.58059e-07
5.90655e-07
5.17266e-07
5.19678e-07
1.83499e-07
4.28414e-08
2.65668e-07
1.41914e-06
1.9295e-06
2.87852e-07
1.22048e-06
5.43239e-06
9.80525e-06
5.24254e-06
4.80925e-07
3.647e-07
1.96164e-06
8.50899e-07
1.65621e-07
1.25736e-05
2.20968e-05
4.57473e-05
8.41293e-05
8.47811e-05
5.28162e-05
3.70107e-05
3.9868e-05
6.10344e-05
8.9127e-05
0.000116221
0.000139624
0.00021721
0.000416253
0.00064252
0.000814559
0.000912645
0.000949364
0.000941521
0.000898763
0.000211904
0.000298253
0.000380618
0.000493451
0.000572618
0.000577129
0.000520013
0.000465668
0.000364496
0.00030499
4.73895e-05
1.65355e-05
4.00137e-06
8.48963e-07
1.90862e-07
3.36411e-07
1.91383e-06
7.24572e-06
1.52561e-05
1.59726e-05
0.000277046
0.000771139
0.000899257
0.000617619
0.000269812
8.66978e-05
7.23753e-05
0.000148596
0.000371348
0.000273542
0.00156579
0.00239856
0.00324416
0.00512952
0.00792007
0.00865935
0.00587521
0.00370413
0.00266679
0.00260325
0.000723433
0.00182543
0.00467697
0.00755638
0.0076463
0.00248589
0.000185836
0.000156156
0.000153312
0.00036889
6.61344e-05
0.000345138
0.00140592
0.00105054
0.000875902
0.00301944
0.00268559
0.00157479
0.00190762
0.00170331
0.00171091
0.00415538
0.00965432
0.0138942
0.010093
0.0130094
0.0144149
0.0114941
0.0158762
0.0164033
0.0218281
0.0422306
0.0632224
0.0765791
0.0705338
0.0712684
0.0556973
0.0361538
0.033101
0.0264438
0.0420572
0.084697
0.119648
0.125005
0.0949024
0.064018
0.0367802
0.0275639
0.015709
0.0108192
4.641e-07
6.21194e-07
7.90044e-07
9.27613e-07
1.00608e-06
1.01032e-06
9.38066e-07
8.00971e-07
6.2623e-07
4.61053e-07
6.52177e-08
6.2392e-08
6.42855e-08
6.64181e-08
6.79188e-08
6.87438e-08
6.78202e-08
6.35187e-08
5.52407e-08
4.7996e-08
1.38546e-10
1.29081e-09
3.81787e-09
6.14441e-09
6.45987e-09
5.05921e-09
3.0848e-09
1.67451e-09
1.53725e-09
2.68823e-09
7.93302e-09
3.71896e-08
7.40503e-08
9.47866e-08
8.24613e-08
5.35478e-08
2.68565e-08
1.16436e-08
7.59931e-09
9.28708e-09
7.98278e-08
2.25012e-07
3.81782e-07
4.78809e-07
4.40353e-07
3.06655e-07
1.58435e-07
5.70204e-08
1.55856e-08
2.27385e-09
1.74413e-07
5.02536e-07
9.65813e-07
1.37639e-06
1.71792e-06
1.78774e-06
1.50752e-06
1.0049e-06
4.88735e-07
1.24968e-07
2.72337e-07
1.01031e-06
2.44838e-06
4.43485e-06
6.27856e-06
7.32376e-06
7.0615e-06
5.48669e-06
3.2339e-06
1.26302e-06
6.57036e-07
2.1853e-06
4.99117e-06
8.59523e-06
1.17484e-05
1.30684e-05
1.19504e-05
8.99857e-06
5.47249e-06
2.56911e-06
1.01028e-06
3.20743e-06
6.74587e-06
1.06328e-05
1.36904e-05
1.45878e-05
1.29201e-05
9.58508e-06
5.85133e-06
2.84016e-06
1.05164e-06
3.6878e-06
7.76695e-06
1.19348e-05
1.47963e-05
1.54014e-05
1.37261e-05
1.03944e-05
6.55868e-06
3.2896e-06
1.12799e-06
4.11024e-06
8.97395e-06
1.38236e-05
1.70624e-05
1.80439e-05
1.63165e-05
1.25303e-05
7.90873e-06
3.8747e-06
1.25136e-06
4.40738e-06
9.74905e-06
1.54097e-05
1.97978e-05
2.10944e-05
1.9039e-05
1.4323e-05
8.55843e-06
3.86231e-06
1.50579e-06
5.07588e-06
1.09427e-05
1.73196e-05
2.18837e-05
2.31833e-05
2.02518e-05
1.4379e-05
8.01208e-06
3.38321e-06
2.20965e-06
7.00598e-06
1.46193e-05
2.32136e-05
2.90801e-05
2.92743e-05
2.38447e-05
1.57934e-05
8.47156e-06
3.57538e-06
3.86967e-06
1.12766e-05
2.31147e-05
3.6505e-05
4.54132e-05
4.52276e-05
3.63329e-05
2.37883e-05
1.28956e-05
5.87882e-06
6.41311e-06
1.64126e-05
3.15111e-05
4.79484e-05
5.91379e-05
5.97964e-05
4.9493e-05
3.34427e-05
1.84202e-05
8.29524e-06
7.04534e-06
1.59104e-05
2.73991e-05
3.83334e-05
4.52148e-05
4.52791e-05
3.78605e-05
2.51973e-05
1.30126e-05
4.75146e-06
6.11102e-06
1.32798e-05
2.20743e-05
2.97362e-05
3.37582e-05
3.26703e-05
2.65771e-05
1.68941e-05
7.38745e-06
1.71089e-06
7.15295e-06
1.46001e-05
2.35469e-05
3.12426e-05
3.5166e-05
3.395e-05
2.76663e-05
1.82854e-05
9.17656e-06
3.40653e-06
1.02562e-05
2.06868e-05
3.40854e-05
4.68655e-05
5.56127e-05
5.75724e-05
5.17698e-05
4.0023e-05
2.61757e-05
1.45209e-05
1.39481e-05
3.08158e-05
5.32833e-05
7.43164e-05
8.77237e-05
8.88469e-05
7.78231e-05
5.86187e-05
3.74208e-05
2.01e-05
4.38203e-06
1.35238e-05
2.69378e-05
3.99707e-05
4.8342e-05
4.90979e-05
4.24642e-05
3.07583e-05
1.82847e-05
8.6251e-06
2.46295e-07
1.96151e-06
5.65659e-06
1.11233e-05
1.67777e-05
2.08641e-05
2.08868e-05
1.67275e-05
1.03363e-05
4.31872e-06
4.79641e-09
6.41908e-07
4.01483e-06
1.2524e-05
2.44337e-05
3.593e-05
4.17713e-05
3.66992e-05
2.26527e-05
7.84615e-06
3.24877e-07
3.01655e-06
1.11244e-05
2.71628e-05
4.96948e-05
7.02654e-05
7.58828e-05
6.05776e-05
3.40514e-05
1.16181e-05
1.68662e-05
3.36553e-05
5.7922e-05
8.80744e-05
0.000111399
0.0001148
9.38898e-05
5.89704e-05
2.70614e-05
8.18423e-06
4.38723e-05
8.8902e-05
0.000134093
0.000168271
0.000179519
0.000163521
0.00012326
7.48933e-05
3.53476e-05
1.21598e-05
6.14651e-05
0.000112853
0.000156469
0.000182762
0.000186023
0.000162687
0.00012093
7.38526e-05
3.67028e-05
1.36703e-05
5.87111e-05
9.99149e-05
0.000144825
0.000174117
0.000179442
0.000158673
0.00011967
7.4321e-05
3.70459e-05
1.44614e-05
0.000137846
0.00020338
0.000250512
0.000248007
0.000215476
0.000171136
0.000124213
8.08047e-05
4.62443e-05
1.9815e-05
0.000280181
0.000447652
0.000510799
0.000433763
0.000306685
0.000194262
0.000112118
5.89011e-05
3.17217e-05
1.64698e-05
0.000301255
0.000455787
0.00044229
0.000307926
0.000182394
0.00010441
5.95451e-05
3.52218e-05
1.93364e-05
9.7632e-06
0.00013074
0.000166998
0.000140162
9.68817e-05
8.00434e-05
8.82224e-05
0.000111736
0.000121767
9.24078e-05
4.69386e-05
4.77097e-06
1.40059e-05
3.01845e-05
5.27586e-05
0.000107102
0.000201158
0.0002311
0.000141631
5.04703e-05
1.66732e-05
4.90337e-06
4.87429e-05
0.000191505
0.000395681
0.000429563
0.000257178
7.08237e-05
1.00666e-05
1.58633e-05
1.52538e-05
6.01774e-05
0.000151832
0.000240682
0.000248953
0.000123794
1.89721e-05
2.40966e-06
2.89178e-05
3.58857e-05
1.04299e-05
5.05154e-05
8.58531e-05
9.80197e-05
6.5428e-05
1.89405e-05
2.02057e-06
8.12198e-06
2.09201e-05
1.37369e-05
3.07036e-06
1.13919e-05
8.47465e-06
9.86994e-06
1.00166e-05
4.18602e-06
2.8682e-07
1.01006e-06
2.52338e-06
1.4689e-06
7.34977e-07
0.000193153
0.000205588
0.000105625
2.39546e-05
1.05374e-06
2.28686e-07
1.0782e-06
1.08789e-06
4.63533e-07
9.069e-08
0.00030009
0.000852757
0.00125477
0.00110246
0.000563658
0.000158761
3.14505e-05
1.03684e-05
1.1394e-05
1.28687e-05
1.67847e-05
1.80487e-05
0.000156275
0.000699761
0.00118679
0.000841761
0.000347582
0.000107026
4.13615e-05
6.19048e-05
3.31423e-06
1.17973e-05
1.77851e-05
5.37837e-06
1.41846e-05
2.9536e-05
3.88831e-05
5.3074e-05
7.88429e-05
0.000123726
0.000136249
0.000194949
0.000190639
0.000218465
0.000345569
0.000532379
0.00048662
0.000315653
0.000187232
8.85756e-05
7.40777e-06
4.53864e-06
4.95966e-06
3.5512e-05
0.000158973
0.000174557
4.99164e-06
2.78011e-05
4.14462e-05
6.13746e-05
2.57857e-05
0.000411734
0.00148323
0.00245789
0.00908773
0.0145145
0.00379136
0.000737477
0.00142642
0.00112753
0.0236137
0.0577621
0.101286
0.110954
0.124476
0.161323
0.0904995
0.0163285
0.00134441
0.000228715
0.0921871
0.158196
0.196737
0.202263
0.206397
0.239393
0.247309
0.10272
0.00751941
3.87379e-05
0.0265024
0.0398548
0.0426806
0.0457507
0.0578882
0.085657
0.130757
0.0946009
0.0167036
0.000849579
0.00235013
0.00850725
0.0230893
0.0494185
0.10772
0.16276
0.0996973
0.0322252
0.0121423
0.0111301
0.000311204
0.0114332
0.0642417
0.109756
0.0591258
0.0193552
0.0113544
0.0201181
0.0321175
0.0327165
4.56782e-07
6.04995e-07
7.62795e-07
8.90876e-07
9.64546e-07
9.69152e-07
9.03563e-07
7.78599e-07
6.18858e-07
4.64478e-07
7.97844e-08
7.17507e-08
6.72145e-08
6.26832e-08
5.97435e-08
5.88397e-08
5.96103e-08
6.07028e-08
6.14705e-08
6.63687e-08
6.8768e-09
1.05819e-09
5.47613e-10
1.80506e-09
3.49044e-09
3.86749e-09
2.77186e-09
1.16073e-09
1.70293e-10
2.3385e-10
1.95491e-08
4.98834e-09
2.29175e-09
6.42117e-09
1.398e-08
2.40826e-08
2.86932e-08
2.25047e-08
1.2376e-08
3.92832e-09
1.20805e-08
2.15162e-08
6.2938e-08
1.72257e-07
3.23859e-07
4.34818e-07
4.54164e-07
3.70102e-07
2.11233e-07
7.78749e-08
2.76007e-08
1.8146e-07
5.4186e-07
1.10773e-06
1.66733e-06
1.95128e-06
1.81039e-06
1.29841e-06
6.53508e-07
2.17559e-07
1.05205e-07
6.64799e-07
1.87543e-06
3.3869e-06
4.46018e-06
4.56437e-06
3.67413e-06
2.27119e-06
1.01805e-06
2.77261e-07
2.99612e-07
1.19107e-06
3.05726e-06
5.72619e-06
7.41315e-06
7.32233e-06
5.72697e-06
3.51792e-06
1.69871e-06
5.5916e-07
1.55566e-06
3.31857e-06
5.61369e-06
7.84559e-06
9.06935e-06
8.60267e-06
6.60253e-06
4.11979e-06
2.08955e-06
7.68552e-07
4.14902e-06
7.56336e-06
1.11375e-05
1.35934e-05
1.35164e-05
1.12912e-05
8.15321e-06
4.86825e-06
2.2757e-06
7.70086e-07
5.49736e-06
1.09947e-05
1.68448e-05
2.10217e-05
2.1123e-05
1.69133e-05
1.16001e-05
6.41936e-06
2.83568e-06
8.8319e-07
4.45354e-06
1.02119e-05
1.72292e-05
2.32301e-05
2.56825e-05
2.30554e-05
1.62972e-05
9.02357e-06
3.79805e-06
1.15313e-06
3.27282e-06
8.94951e-06
1.68873e-05
2.34023e-05
2.58593e-05
2.35469e-05
1.74907e-05
1.04575e-05
4.6097e-06
1.41022e-06
2.65509e-06
8.51127e-06
1.78273e-05
2.61192e-05
2.90102e-05
2.61315e-05
1.95819e-05
1.19789e-05
5.68146e-06
1.92844e-06
1.76124e-06
6.99483e-06
1.81523e-05
3.0217e-05
3.5051e-05
3.18654e-05
2.40143e-05
1.52488e-05
8.04238e-06
3.18824e-06
1.87778e-06
8.1409e-06
1.95903e-05
3.27758e-05
4.03289e-05
3.81491e-05
2.97886e-05
1.99356e-05
1.15469e-05
5.25875e-06
6.79288e-06
1.4857e-05
2.50358e-05
3.40796e-05
3.83493e-05
3.63188e-05
2.92166e-05
2.00506e-05
1.19726e-05
5.91437e-06
1.04962e-05
1.97853e-05
3.1377e-05
4.12084e-05
4.42005e-05
3.92831e-05
3.0361e-05
2.13647e-05
1.25165e-05
5.82732e-06
1.16382e-05
2.17901e-05
3.49562e-05
4.66254e-05
5.172e-05
4.89865e-05
3.9548e-05
2.77597e-05
1.63342e-05
7.66289e-06
1.07617e-05
2.13631e-05
3.5339e-05
4.75945e-05
5.39423e-05
5.38807e-05
4.75554e-05
3.55524e-05
2.15509e-05
1.0336e-05
1.04927e-05
2.19069e-05
3.61845e-05
4.73796e-05
5.27337e-05
5.32727e-05
4.98616e-05
3.99832e-05
2.52418e-05
1.23116e-05
5.59948e-06
1.42036e-05
2.46462e-05
3.18793e-05
3.27971e-05
2.93924e-05
2.50825e-05
1.9009e-05
1.09493e-05
3.89324e-06
1.71641e-06
5.84384e-06
1.08861e-05
1.43952e-05
1.4563e-05
1.19414e-05
8.32265e-06
4.76956e-06
1.93195e-06
3.08398e-07
1.03543e-06
5.07322e-06
1.1718e-05
1.84092e-05
2.1772e-05
2.00884e-05
1.33709e-05
7.81252e-06
2.06907e-06
9.81996e-08
1.56966e-06
7.49473e-06
1.51251e-05
2.13828e-05
2.55293e-05
2.20928e-05
1.40013e-05
6.46832e-06
2.03908e-06
3.24563e-07
1.02247e-06
4.26831e-06
9.00901e-06
1.3975e-05
1.65682e-05
1.62679e-05
1.44713e-05
1.34327e-05
1.41231e-05
1.38121e-05
1.4914e-06
7.59443e-06
2.10462e-05
4.48281e-05
6.91639e-05
7.83819e-05
6.95589e-05
5.56946e-05
4.51166e-05
3.42957e-05
7.82878e-06
3.1021e-05
7.52059e-05
0.000136993
0.000181205
0.000184428
0.000151028
0.000105219
7.25604e-05
4.91735e-05
2.27147e-05
5.85912e-05
0.000103472
0.000147741
0.000169935
0.000177607
0.000166089
0.000131915
9.31175e-05
5.70988e-05
2.03896e-05
5.55524e-05
9.83161e-05
0.000136649
0.000159855
0.000175881
0.000185402
0.000178242
0.000156863
0.000116378
7.75808e-06
3.12493e-05
7.41088e-05
0.00012774
0.000172934
0.000199188
0.000209613
0.000221712
0.000228261
0.000194803
1.76393e-06
1.09797e-05
4.62351e-05
0.000118389
0.000197359
0.000243837
0.00024239
0.000220654
0.000215443
0.000203548
1.97037e-08
1.16878e-06
1.37511e-05
6.17772e-05
0.000138113
0.00019188
0.000196517
0.000167509
0.000136827
0.000109347
9.56527e-06
1.87086e-05
4.73719e-05
0.000107558
0.000158088
0.000163826
0.000135046
9.18216e-05
4.41938e-05
1.45486e-05
3.36398e-05
7.33966e-05
0.000137353
0.000201797
0.000209342
0.000157889
8.03055e-05
2.6417e-05
6.67411e-06
1.76531e-06
1.67284e-05
3.73699e-05
0.000102069
0.000136922
0.000154849
0.000144043
0.000111101
7.78525e-05
5.8023e-05
3.9369e-05
5.18552e-05
2.42468e-05
1.37452e-05
6.73115e-06
2.00603e-06
2.24779e-06
6.36646e-06
1.0901e-05
1.55641e-05
2.18489e-05
0.00026904
0.000418894
0.000406859
0.000275129
0.000145796
7.35828e-05
4.03185e-05
2.11177e-05
1.07488e-05
8.12007e-06
1.7007e-06
3.40659e-05
0.000119129
0.000264618
0.000435396
0.000537456
0.000492527
0.000346669
0.000235839
0.000143154
6.49928e-05
5.40836e-05
4.28029e-05
3.24354e-05
2.03705e-05
1.00582e-05
6.377e-06
9.34437e-06
4.1079e-05
8.05727e-05
0.000382987
0.000326449
0.000202607
8.35512e-05
2.06744e-05
8.51212e-06
2.48694e-05
8.16412e-05
0.000103432
6.27725e-05
0.00854255
0.00886916
0.00882173
0.00636483
0.00303656
0.0021699
0.00202373
0.000749639
0.000130912
8.61424e-06
0.00327315
0.0078426
0.013209
0.00815937
0.00154014
0.00184284
0.00234914
0.000979023
0.000533316
0.00027727
0.00591343
0.0145402
0.0132068
0.00521162
0.00123162
0.0017075
0.00113024
0.000446734
0.000246235
3.09826e-05
0.017639
0.0248686
0.027614
0.0176047
0.0132721
0.0148837
0.00764429
0.00267135
0.000637348
7.0139e-05
0.00559051
0.00912894
0.0105232
0.00460056
0.00147741
0.000228526
0.000580107
0.00570446
0.012424
0.017897
0.000398362
0.00110921
0.00160352
0.000514761
0.000382863
0.00634708
0.0230803
0.0446296
0.0729631
0.0879033
0.00721597
0.00876388
0.00761382
0.00521464
0.00332795
0.000353307
0.00340149
0.0202421
0.0349595
0.0324287
0.0287005
0.0377647
0.050716
0.0506219
0.0334317
0.0128136
0.00411094
0.00277493
0.00280875
0.00153784
0.0559928
0.0622489
0.0509657
0.0342614
0.0194499
0.00865959
0.00503026
0.0048887
0.00280472
0.000390236
)
;
    }
    inlet
    {
        type            calculated;
        value           uniform 0;
    }
    outlet
    {
        type            calculated;
        value           uniform 0;
    }
}


// ************************************************************************* //
