/*--------------------------------*- C++ -*----------------------------------*\
| =========                 |                                                 |
| \\      /  F ield         | OpenFOAM: The Open Source CFD Toolbox           |
|  \\    /   O peration     | Version:  2406                                  |
|   \\  /    A nd           | Website:  www.openfoam.com                      |
|    \\/     M anipulation  |                                                 |
\*---------------------------------------------------------------------------*/
FoamFile
{
    version     2.0;
    format      ascii;
    arch        "LSB;label=32;scalar=64";
    class       volVectorField;
    location    "0.3";
    object      momentError;
}
// * * * * * * * * * * * * * * * * * * * * * * * * * * * * * * * * * * * * * //

dimensions      [0 1 -2 0 0 0 0];

internalField   nonuniform List<vector> 
25000
(
(2.10769 3.31384 13.3289)
(4.39507 3.06103 13.4987)
(4.30403 3.63248 13.5315)
(3.24145 3.92086 13.2483)
(1.987 3.96686 12.9225)
(0.631535 3.95688 12.696)
(-0.667473 4.0181 12.6591)
(-1.56267 4.10802 12.6281)
(-1.92453 3.67287 12.2509)
(-2.13615 3.45152 12.5205)
(2.2353 5.19239 13.4022)
(4.75529 5.67985 13.553)
(4.66179 5.95287 13.4611)
(3.41911 5.97166 13.0498)
(1.94059 5.9355 12.6351)
(0.388625 5.95812 12.4068)
(-1.09265 6.0737 12.4056)
(-2.09187 6.1616 12.3839)
(-2.23378 5.77797 11.9369)
(-1.70768 5.40984 11.869)
(3.07547 4.78952 13.2128)
(5.04324 5.45409 13.207)
(4.76559 5.68858 13.0892)
(3.48818 5.68464 12.6839)
(1.97625 5.65296 12.2666)
(0.384047 5.67707 12.0595)
(-1.15765 5.74845 12.0972)
(-2.23301 5.70579 12.1052)
(-2.54182 5.24787 11.672)
(-2.44046 4.70257 11.5999)
(3.5556 3.50008 12.759)
(5.16235 4.05239 12.5837)
(4.77047 4.31834 12.4425)
(3.488 4.37215 12.0727)
(1.99728 4.35836 11.6923)
(0.394865 4.35384 11.5082)
(-1.17884 4.34713 11.545)
(-2.32239 4.21649 11.5535)
(-2.80378 3.7821 11.1628)
(-3.01678 3.33337 11.2058)
(3.83235 2.21555 12.304)
(5.2753 2.61508 11.9783)
(4.79561 2.89005 11.7889)
(3.48002 2.97832 11.4361)
(1.97703 2.9641 11.0911)
(0.365283 2.91762 10.9325)
(-1.22523 2.85222 10.9751)
(-2.40086 2.6986 10.9938)
(-2.92407 2.36517 10.6603)
(-3.17846 2.09634 10.8283)
(4.11051 1.11815 11.9834)
(5.46383 1.38339 11.5181)
(4.87127 1.64664 11.2638)
(3.46511 1.73069 10.8952)
(1.9192 1.67884 10.5657)
(0.285868 1.57113 10.4353)
(-1.30812 1.45277 10.5111)
(-2.49109 1.28545 10.5772)
(-3.01525 1.03233 10.3189)
(-3.22812 0.889832 10.6154)
(4.43976 0.248828 11.8597)
(5.71022 0.369337 11.2519)
(4.96925 0.557108 10.92)
(3.42493 0.581587 10.5079)
(1.79765 0.456958 10.1692)
(0.157953 0.279259 10.0739)
(-1.42748 0.0986344 10.2134)
(-2.61913 -0.0851212 10.3552)
(-3.13624 -0.265858 10.1768)
(-3.31025 -0.312543 10.6097)
(4.66293 -0.311033 11.7934)
(5.83756 -0.305419 11.026)
(4.92739 -0.279547 10.616)
(3.26638 -0.382929 10.1629)
(1.60838 -0.590936 9.82652)
(-0.00147876 -0.835176 9.77147)
(-1.53835 -1.06404 9.97446)
(-2.68757 -1.24341 10.1939)
(-3.17546 -1.34165 10.0826)
(-3.26406 -1.35172 10.649)
(4.64738 -0.256924 11.5222)
(5.54747 -0.368528 10.5201)
(4.53792 -0.719356 10.0499)
(2.91698 -1.02154 9.61447)
(1.34512 -1.30492 9.31405)
(-0.131919 -1.57524 9.29176)
(-1.51761 -1.81051 9.53237)
(-2.5481 -1.95343 9.79965)
(-2.89563 -1.98903 9.7799)
(-2.68138 -2.33335 10.5792)
(5.68404 1.02615 12.0128)
(5.37531 0.312875 10.7651)
(4.0442 -0.854562 10.312)
(2.5389 -1.47066 9.92637)
(1.12263 -1.81051 9.6647)
(-0.206136 -2.06331 9.65914)
(-1.42387 -2.25934 9.91072)
(-2.37906 -2.30476 10.2415)
(-2.86389 -2.24905 10.4529)
(-2.53164 -3.34287 11.7262)
(1.37176 4.01273 38.1042)
(4.46546 3.43981 39.7517)
(4.80315 3.61201 42.6976)
(4.18293 3.90419 44.1377)
(3.20652 4.10807 44.9167)
(1.95579 4.26645 45.3144)
(0.652062 4.45126 45.3428)
(-0.257487 4.62336 44.6087)
(-0.790548 4.24257 42.0596)
(-1.53874 4.2495 42.1167)
(1.68105 4.70646 40.5778)
(4.27914 5.12211 43.8294)
(4.75081 5.34477 47.3293)
(4.08583 5.41704 48.9068)
(2.9572 5.51462 49.6283)
(1.53531 5.68808 50.1478)
(0.0820225 5.89546 50.2993)
(-0.893937 5.99205 49.3825)
(-1.1787 5.52533 45.5733)
(-1.32886 5.18304 41.5702)
(2.62184 3.42669 43.8156)
(4.60508 4.39378 47.9765)
(4.93481 4.93119 51.6978)
(4.23381 5.10166 53.0695)
(3.037 5.21216 53.555)
(1.53837 5.34265 54.01)
(-0.00727679 5.45912 54.3315)
(-1.07625 5.38588 53.6226)
(-1.47892 4.73063 49.6927)
(-2.0063 3.86862 44.0745)
(3.31609 1.8387 45.1922)
(5.03409 2.80313 49.7228)
(5.21805 3.52628 53.4706)
(4.40703 3.83831 54.6572)
(3.09837 3.98182 55.0109)
(1.48875 4.05163 55.3633)
(-0.15169 4.04626 55.647)
(-1.32154 3.84151 54.9735)
(-1.86652 3.15122 51.1218)
(-2.69351 2.32478 45.1752)
(3.86075 0.385671 45.7292)
(5.56843 1.21209 50.3219)
(5.63427 1.98659 54.1971)
(4.64863 2.35467 55.4178)
(3.16383 2.48863 55.8012)
(1.40273 2.50165 56.1146)
(-0.353093 2.43098 56.2988)
(-1.61558 2.2052 55.5313)
(-2.20534 1.6392 51.6178)
(-2.99276 1.06136 45.6394)
(4.53515 -0.847036 46.0457)
(6.23512 -0.199835 50.6162)
(6.12935 0.504793 54.723)
(4.89817 0.820925 56.0504)
(3.20155 0.880839 56.4454)
(1.29082 0.830281 56.7235)
(-0.564169 0.741223 56.8572)
(-1.89906 0.563296 55.9847)
(-2.49792 0.191373 51.8916)
(-3.16368 -0.131379 45.9197)
(5.31972 -1.8002 46.2682)
(6.90758 -1.39992 50.7239)
(6.57097 -0.894731 55.0894)
(5.07325 -0.722566 56.5781)
(3.17302 -0.782277 57.004)
(1.15611 -0.901082 57.2942)
(-0.76677 -1.00943 57.393)
(-2.14806 -1.11688 56.3577)
(-2.73863 -1.24671 51.9807)
(-3.34123 -1.30452 46.0546)
(5.95464 -2.35942 45.7522)
(7.28071 -2.20154 49.8486)
(6.68089 -2.03839 54.3612)
(4.9888 -2.13573 56.0699)
(3.00633 -2.36653 56.6392)
(0.974354 -2.56978 56.9641)
(-0.907634 -2.66687 56.9282)
(-2.23392 -2.63893 55.6577)
(-2.76514 -2.47462 51.0142)
(-3.29921 -2.30954 45.433)
(6.36874 -2.34075 43.2114)
(6.97444 -2.31184 46.214)
(6.04164 -2.68429 50.2732)
(4.34158 -3.12829 51.8991)
(2.54654 -3.50985 52.4921)
(0.771861 -3.75071 52.8066)
(-0.817879 -3.78703 52.6525)
(-1.9241 -3.59745 51.3075)
(-2.35479 -3.25527 46.9701)
(-2.70251 -3.32977 42.9144)
(7.95522 -1.53589 42.597)
(6.92282 -2.24993 42.9104)
(5.28964 -3.50429 45.396)
(3.67565 -4.28766 46.3332)
(2.16403 -4.69074 46.6227)
(0.73019 -4.87226 46.7118)
(-0.542791 -4.84022 46.5962)
(-1.5546 -4.53421 45.7443)
(-2.32328 -4.17934 43.0749)
(-2.7928 -5.08711 43.2578)
(5.63578 6.86753 57.6739)
(7.13679 7.31178 59.4224)
(6.95108 8.37901 64.3958)
(6.26956 9.01166 66.6403)
(5.5923 9.33051 67.814)
(4.59601 9.52294 68.5822)
(3.23276 9.60252 68.5062)
(1.84047 9.52555 66.9164)
(0.524457 8.79793 62.212)
(-1.64015 8.87267 63.6878)
(4.85045 7.17694 58.6354)
(7.47743 9.57676 67.0763)
(7.76779 11.1602 75.2076)
(6.78296 11.6202 77.6609)
(5.65448 11.6494 77.9545)
(4.32343 11.6181 78.0282)
(2.68958 11.5165 77.5196)
(1.13796 11.2016 74.9128)
(0.174899 10.1008 67.0787)
(-0.715358 9.01351 61.0456)
(5.83537 6.85512 64.531)
(8.46374 9.8807 75.0659)
(8.52509 11.4751 83.7803)
(7.1933 11.8194 85.8226)
(5.71733 11.6925 85.3947)
(4.15135 11.5186 85.0856)
(2.24857 11.3173 84.8397)
(0.420712 10.8884 82.6279)
(-0.725877 9.74073 74.5507)
(-1.62283 7.94606 65.2986)
(6.80266 6.08023 67.5288)
(9.16748 8.94456 78.2044)
(8.90893 10.3487 86.4153)
(7.36516 10.6682 88.1868)
(5.6891 10.5046 87.7195)
(3.95883 10.2494 87.4353)
(1.90099 9.93108 87.2658)
(-0.117671 9.43627 85.2962)
(-1.49842 8.34833 77.5471)
(-2.53876 6.60784 67.4413)
(7.80469 5.10984 69.0659)
(9.86931 7.62908 79.7534)
(9.26431 8.83646 87.3918)
(7.48486 9.13111 89.0255)
(5.62952 8.94459 88.726)
(3.75053 8.61246 88.5915)
(1.56963 8.20404 88.4285)
(-0.530554 7.68439 86.4281)
(-2.03319 6.75422 78.8228)
(-3.08162 5.31028 68.4966)
(8.88368 3.92445 70.0614)
(10.5496 5.97697 80.9788)
(9.57956 6.96877 88.1238)
(7.52395 7.21423 89.3944)
(5.47478 7.01612 89.152)
(3.44903 6.62841 89.1748)
(1.21205 6.16453 88.9416)
(-0.917816 5.65273 86.8964)
(-2.44996 4.93349 79.4089)
(-3.50585 3.82685 69.0851)
(9.76 2.53381 69.8774)
(11.0274 4.00184 80.9534)
(9.80215 4.71291 88.2292)
(7.46452 4.88829 89.2777)
(5.24067 4.71089 89.1316)
(3.0822 4.32995 89.3598)
(0.799663 3.845 89.2125)
(-1.32756 3.37035 87.3842)
(-2.85963 2.89361 80.0364)
(-3.94234 2.17465 69.6342)
(10.096 1.0214 67.0244)
(11.0951 1.96384 77.9702)
(9.85571 2.19692 86.6139)
(7.40314 2.23217 88.4469)
(5.03352 2.04361 88.5623)
(2.71257 1.64958 88.9211)
(0.369317 1.15719 88.8199)
(-1.74568 0.723213 87.2173)
(-3.17168 0.578367 79.792)
(-4.14697 0.28269 69.077)
(10.0113 -0.437263 61.0032)
(10.3025 0.112266 69.418)
(9.14946 -0.321716 78.5068)
(6.90823 -0.707594 81.5853)
(4.64076 -1.0072 82.4281)
(2.32013 -1.38036 82.9159)
(0.0611073 -1.74886 82.691)
(-1.85521 -1.88513 80.8977)
(-2.96828 -1.68015 73.2352)
(-3.70534 -1.95883 64.5318)
(11.0726 -2.2167 59.9889)
(9.27792 -1.79447 60.935)
(7.91433 -2.71679 67.8078)
(6.13989 -3.44159 71.4103)
(4.16415 -3.92311 73.001)
(2.08656 -4.24691 73.5295)
(0.0794351 -4.37099 73.1321)
(-1.65257 -4.23666 71.0349)
(-2.90388 -4.01465 65.261)
(-4.19003 -5.53693 64.8624)
(6.04932 12.7622 71.0193)
(6.15278 12.8463 70.8915)
(5.30711 13.923 77.5227)
(4.21702 14.3301 81.0466)
(3.45855 14.2485 83.0036)
(2.8267 13.9543 84.3789)
(2.11473 13.5827 84.8646)
(1.18113 13.0941 83.1877)
(-0.288749 11.9181 77.3055)
(-3.65765 11.3109 80.8151)
(5.23425 10.6469 69.5532)
(6.15183 13.5744 76.2501)
(5.72972 15.9433 87.6551)
(4.22665 16.4682 92.1657)
(2.95192 15.9945 93.6495)
(1.99485 15.1929 94.0432)
(1.14307 14.4142 93.3893)
(0.304653 13.6008 89.6927)
(-0.450925 11.9812 79.652)
(-2.10219 10.1497 75.2358)
(6.45792 9.8065 78.0867)
(7.50088 13.7979 87.2879)
(6.26117 16.0832 99.281)
(4.05324 16.2849 103.854)
(2.13822 15.3907 105.339)
(0.702796 14.2995 105.481)
(-0.380054 13.3572 104.563)
(-1.2277 12.6105 100.86)
(-1.85348 11.3291 88.8562)
(-2.93753 9.04178 79.9981)
(7.44254 8.86309 82.9727)
(8.4382 12.7543 93.3096)
(6.34639 14.3339 103.91)
(3.52891 13.8926 107.516)
(1.3754 12.8649 109.014)
(-0.231855 11.793 109.708)
(-1.41578 11.034 108.911)
(-2.2883 10.6416 105.303)
(-2.80739 9.95701 93.7391)
(-3.64635 7.9589 82.4661)
(8.32303 7.83367 84.7141)
(8.91871 11.3154 96.9157)
(6.19693 12.0413 106.724)
(3.02137 11.0764 108.742)
(0.764872 9.89221 109.652)
(-0.79024 8.89841 110.651)
(-1.83805 8.4884 110.224)
(-2.61026 8.66187 106.813)
(-3.17388 8.62118 96.1047)
(-3.99928 7.04677 83.6503)
(9.09056 6.63292 84.8944)
(9.16942 9.56886 100.183)
(5.99059 9.47603 109.731)
(2.66954 8.25547 109.461)
(0.331679 7.03185 108.792)
(-1.07681 6.31869 109.34)
(-1.86398 6.29581 109.29)
(-2.53894 6.88587 106.743)
(-3.23153 7.36712 96.8569)
(-4.23461 6.12028 84.3415)
(9.40927 5.0216 83.7415)
(9.21678 7.35651 101.984)
(6.02519 6.88365 111.734)
(2.56619 5.62455 109.53)
(0.234748 4.63042 106.844)
(-1.07943 4.28014 106.514)
(-1.75603 4.5335 106.758)
(-2.41278 5.26928 105.273)
(-3.24017 5.96915 96.2241)
(-4.44953 4.92815 83.9673)
(8.97847 2.79923 79.4333)
(8.93196 4.69768 98.1756)
(6.12671 4.291 109.002)
(2.85525 3.40967 107.383)
(0.584724 2.82365 104.382)
(-0.778309 2.71832 103.706)
(-1.62817 3.0311 103.919)
(-2.44328 3.62173 102.34)
(-3.2945 4.17003 92.3589)
(-4.43216 3.05986 80.9012)
(7.97033 0.0546096 69.0591)
(7.91854 1.76227 83.1836)
(5.93259 1.65345 95.4268)
(3.27941 1.29431 97.3567)
(1.16921 0.989444 96.2959)
(-0.34529 0.999471 96.099)
(-1.47439 1.22795 95.6913)
(-2.40334 1.46877 92.8797)
(-2.97457 1.71314 81.6316)
(-3.90235 0.126298 74.2758)
(7.49342 -3.98375 63.3577)
(6.35431 -2.25711 67.128)
(5.0349 -2.12289 76.8903)
(3.22666 -2.13429 80.873)
(1.61001 -2.16497 82.1226)
(0.188688 -2.12603 83.1147)
(-0.913297 -2.02608 82.751)
(-1.68805 -2.06579 80.7272)
(-2.37112 -2.55278 75.3012)
(-3.7407 -5.44566 77.2022)
(12.4675 20.9723 114.083)
(10.1319 19.5829 117.615)
(7.55228 19.4281 125.42)
(4.97496 18.361 126.319)
(3.29531 16.8223 125.781)
(2.25145 15.7925 126.833)
(1.17397 15.4442 129.372)
(-0.608198 15.3962 129.555)
(-3.62483 14.3264 122.938)
(-10.383 13.2373 125.752)
(10.8452 17.4394 111.675)
(9.86177 18.8832 127.113)
(7.75888 19.7247 140.653)
(4.58005 19.208 141.338)
(2.02404 17.6584 137.871)
(0.643419 15.8751 135.45)
(0.13801 14.5095 134.362)
(-0.496652 13.5728 132.843)
(-2.21445 12.2707 124.961)
(-6.71296 10.6031 122.303)
(11.8459 15.2572 122.647)
(10.6682 17.5013 142.226)
(8.36014 18.9271 156.644)
(4.08122 18.8369 154.3)
(0.190771 17.5398 147.841)
(-2.00792 15.5986 144.167)
(-2.76001 13.7043 142.107)
(-2.67577 12.1429 138.877)
(-3.07398 10.7201 131.3)
(-6.29373 8.63212 127.948)
(12.261 12.549 128.483)
(10.6416 14.1969 147.977)
(8.01087 15.4113 160.617)
(3.08024 15.6388 155.543)
(-1.31815 15.2153 149.672)
(-4.00806 13.9491 147.546)
(-5.08426 12.0023 145.636)
(-4.78078 10.3116 141.66)
(-4.13147 9.14503 132.817)
(-6.06961 6.90387 129.268)
(12.3331 9.89943 129.722)
(10.0532 10.5432 147.086)
(6.68943 11.3153 157.673)
(1.73668 12.0193 153.897)
(-2.60778 12.39 149.748)
(-5.43555 12.0112 150.342)
(-6.48753 10.4985 149.247)
(-5.89299 8.70029 143.219)
(-4.8028 7.91084 133.726)
(-5.70857 5.60793 129.442)
(11.7574 7.71416 127.867)
(8.55173 7.32341 142.35)
(4.87692 8.05462 153.506)
(0.11943 9.1793 153.02)
(-4.00019 9.9929 151.339)
(-6.47882 10.1481 155.864)
(-7.17628 9.13856 154.166)
(-6.22426 7.64303 143.401)
(-4.93904 7.13407 135.508)
(-5.36248 4.77604 130.821)
(10.1003 5.81342 122.849)
(6.56763 5.23302 136.071)
(2.90119 6.20426 151.43)
(-1.76966 7.15334 153.269)
(-5.34065 7.95543 154.427)
(-7.23359 8.20217 159.235)
(-7.49761 7.7792 153.942)
(-6.17668 6.85725 141.287)
(-4.76679 6.55491 135.772)
(-5.03043 3.86331 132.546)
(8.22994 4.51754 113.882)
(5.0594 4.51419 131.179)
(1.02055 5.10611 150.142)
(-3.51432 5.44363 152.159)
(-6.65739 5.8905 152.483)
(-7.92836 6.1841 152.508)
(-7.582 6.0948 145.901)
(-5.99109 5.74752 137.108)
(-4.56668 5.31734 133.508)
(-4.35484 1.92061 130.86)
(6.91835 3.22602 103.298)
(3.9337 3.72734 121.585)
(-0.262681 3.71131 139.589)
(-4.5843 3.35101 140.161)
(-7.09312 3.41234 137.444)
(-7.81941 3.66907 135.255)
(-7.07426 3.66387 131.46)
(-5.47877 3.41627 126.741)
(-3.87243 2.53284 124.163)
(-3.1911 -1.62863 121.122)
(6.71559 0.435146 95.4671)
(3.34828 1.72602 104.335)
(-0.291252 1.4317 116.266)
(-3.53747 0.827012 117.785)
(-5.2005 0.69003 116.986)
(-5.57464 0.630401 118.476)
(-4.89267 0.193593 120.356)
(-3.48183 -0.96125 121.01)
(-2.04655 -3.99524 118.527)
(-1.72333 -9.54918 119.113)
(5.1731 17.9098 146.205)
(0.898296 15.9149 161.846)
(-3.68975 14.8836 176.773)
(-6.74101 12.6659 176.789)
(-7.53607 10.0452 172.385)
(-7.08491 8.3937 172.585)
(-6.28528 7.81619 177.816)
(-5.65889 7.75313 182.211)
(-5.70911 6.79748 173.607)
(-8.61059 5.78726 166.927)
(3.58287 12.7961 157.319)
(0.0887731 12.8425 195.269)
(-4.48682 13.3664 218.006)
(-7.92662 12.241 212.874)
(-9.23941 10.2573 200.802)
(-8.71486 7.9823 190.507)
(-7.21455 6.4474 184.976)
(-5.70953 5.6809 186.928)
(-4.28163 4.47112 179.916)
(-5.98356 3.03827 166.839)
(4.41541 7.87765 174.327)
(1.02801 7.93851 224.252)
(-3.37614 9.48928 249.081)
(-6.84431 9.95975 237.805)
(-8.95801 9.36476 220.438)
(-9.55332 7.50734 208.562)
(-8.72355 4.48426 195.244)
(-7.11376 2.19014 187.244)
(-5.48079 1.0333 188.432)
(-5.83751 0.0891077 177.942)
(4.15958 2.07319 180.145)
(0.894561 1.13004 230.228)
(-2.80858 3.21533 249.706)
(-5.97714 5.22481 236.406)
(-8.21668 6.459 222.136)
(-9.39595 6.07695 213.812)
(-9.69034 2.94371 201.491)
(-8.46088 -1.18356 185.116)
(-6.57876 -2.44288 185.515)
(-5.59028 -2.31691 182.061)
(2.98815 -3.07422 178.409)
(-0.0583417 -4.09068 224.483)
(-3.1796 -1.22903 239.418)
(-6.04546 1.81492 229.171)
(-8.0012 3.91191 219.205)
(-9.20501 4.43533 214.022)
(-10.0975 1.85947 204.429)
(-9.04952 -2.9186 184.249)
(-6.72941 -4.84045 180.846)
(-4.91364 -3.89227 182.962)
(1.54545 -6.43063 173.516)
(-1.21742 -6.71832 216.118)
(-4.25876 -3.1607 231.414)
(-7.00127 0.147769 224.954)
(-8.53392 2.21056 218.435)
(-9.64849 2.92797 216.369)
(-10.4324 0.891844 207.906)
(-8.88828 -3.50632 186.582)
(-6.18438 -5.65334 181.511)
(-3.93562 -4.71683 182.47)
(0.267114 -7.6774 167.01)
(-2.73763 -7.46425 207.741)
(-6.27094 -3.49963 226.905)
(-8.92772 -0.29517 223.998)
(-10.1396 1.07 221.233)
(-10.7971 1.30676 221.313)
(-10.5407 -0.247024 211.378)
(-7.94915 -3.40719 189.826)
(-5.1662 -5.17063 186.577)
(-2.89587 -4.76147 184.891)
(-0.879743 -7.34213 157.004)
(-5.06434 -7.03779 196.872)
(-9.5731 -3.00303 221.029)
(-12.4362 -0.409689 222.679)
(-12.8949 -0.0286973 221.791)
(-11.9361 -0.495841 220.087)
(-9.89095 -1.62544 207.559)
(-6.52007 -3.24562 190.691)
(-3.53143 -4.50633 188.958)
(-1.50497 -4.55286 183.563)
(-1.76361 -5.54581 141.047)
(-7.59683 -5.51901 175.138)
(-13.2605 -2.5383 202.182)
(-16.0857 -0.788306 207.283)
(-15.2979 -0.841169 205.347)
(-12.1644 -1.63064 200.057)
(-8.27589 -2.68149 188.609)
(-4.44565 -3.49435 180.62)
(-1.25305 -4.49187 177.78)
(0.226481 -5.3952 167.354)
(-0.143238 -2.93281 135.152)
(-7.49628 -3.56694 146.346)
(-13.1641 -2.28587 164.34)
(-15.2985 -1.62777 171.829)
(-13.5363 -1.76304 172.834)
(-9.45243 -2.65956 170.794)
(-4.91246 -3.99966 165.969)
(-1.02452 -6.34078 169.56)
(1.14183 -7.88555 162.499)
(1.33855 -9.76031 153.552)
(9.10305 17.0661 155.076)
(5.55324 13.6758 179.014)
(0.519279 12.4024 201.715)
(-4.65282 10.4451 203.725)
(-8.4367 7.5524 197)
(-11.3119 5.28138 196.728)
(-13.5002 4.14812 207.184)
(-13.8333 3.6676 212.007)
(-12.7629 3.80176 198.484)
(-13.6233 7.22268 185.707)
(9.30376 15.8956 183.398)
(7.07845 13.9004 224.305)
(3.81617 12.6136 258.982)
(-1.23832 10.9346 263.884)
(-6.0444 8.53411 249.169)
(-9.73738 5.67822 231.968)
(-12.8111 3.27974 227.936)
(-13.8319 1.11717 231.25)
(-12.4684 -0.690885 215.368)
(-12.5432 1.4577 188.226)
(9.96752 12.1903 207.946)
(8.54534 10.7665 258.279)
(6.48123 9.34709 295.562)
(2.43118 8.17695 298.432)
(-1.65248 7.21509 280.525)
(-5.88017 5.27899 258.35)
(-10.0261 1.72077 243.535)
(-12.5406 -2.65438 240.994)
(-12.0918 -6.56016 228.681)
(-12.2489 -4.87533 201.316)
(10.8364 6.44211 217.922)
(8.60841 5.28546 268.596)
(6.43926 4.25345 294.343)
(4.07822 4.44417 288.482)
(0.92251 5.05784 274.262)
(-2.90038 4.13328 258.888)
(-7.27457 0.133315 242.704)
(-10.7803 -5.77399 233.689)
(-11.2589 -11.2581 227.554)
(-11.1471 -9.7278 205.385)
(11.1264 1.02463 219.005)
(7.68477 0.192364 266.271)
(5.09705 0.759095 281.035)
(3.57589 2.42518 271.294)
(1.0848 4.04044 260.942)
(-2.23955 3.85179 250.523)
(-5.73994 -0.415062 236.592)
(-9.22965 -7.71196 227.098)
(-9.74686 -13.7443 224.75)
(-9.33943 -12.4611 206.073)
(10.5514 -3.10496 216.342)
(6.65326 -3.17913 260.144)
(3.94283 -0.595983 271.509)
(2.54623 2.21901 262.508)
(0.296912 4.12303 253.997)
(-2.65838 3.92517 243.153)
(-5.3667 -0.812013 229.107)
(-7.31759 -8.74144 219.031)
(-7.67841 -14.6318 224.397)
(-7.39365 -13.5079 207.274)
(9.3247 -6.35755 210.833)
(5.30954 -5.21466 252.203)
(2.58759 -1.05537 267.259)
(1.07621 2.17162 261.149)
(-1.07453 3.59001 250.81)
(-3.38584 2.49971 235.135)
(-4.3221 -2.69437 217.499)
(-4.84153 -9.54959 213.606)
(-5.16897 -14.3338 224.007)
(-5.79816 -13.1065 208.497)
(7.50625 -8.96383 201.15)
(2.70441 -6.96883 242.775)
(-0.551539 -2.21738 264.526)
(-2.24454 0.523469 260.941)
(-3.72758 0.577436 247.524)
(-4.04751 -1.77527 225.439)
(-2.10086 -5.66336 204.412)
(-1.74439 -10.0954 211.669)
(-2.22583 -12.578 215.909)
(-4.62356 -11.2824 202.575)
(5.27976 -9.88934 182.811)
(-1.59491 -7.89268 221.354)
(-5.92026 -3.90309 247.388)
(-7.22837 -2.25327 246.637)
(-6.63461 -3.03229 232.003)
(-4.06525 -4.8061 208.871)
(-0.384408 -6.51181 193.542)
(0.705895 -9.20912 199.407)
(-0.763936 -10.2534 192.891)
(-4.47492 -9.1753 178.88)
(4.92691 -8.68513 169.861)
(-4.59109 -7.06698 189.472)
(-9.83958 -4.96127 210.086)
(-10.4612 -4.40271 211.887)
(-8.0708 -4.9185 200.269)
(-4.3948 -6.04666 185.504)
(-2.11459 -8.59453 184.739)
(-2.33403 -10.4036 182.821)
(-4.10559 -10.4121 169.287)
(-8.00059 -9.41719 164.69)
(-2.7373 14.0294 164.813)
(-1.60234 11.1035 184.462)
(-0.672088 8.73285 211.438)
(-1.23387 6.11813 221.724)
(-4.20902 3.41655 222.015)
(-7.9268 0.773852 222.613)
(-10.8754 -1.31027 226.566)
(-11.8984 -2.38797 224.343)
(-9.78356 -2.04877 202.535)
(-5.97504 2.26879 188.366)
(-3.47026 11.0217 195.501)
(-2.96757 10.4706 233.416)
(-0.753871 8.10163 259.746)
(0.0214698 5.32236 270.263)
(-1.81665 2.31347 270.81)
(-5.82484 -0.417144 269.342)
(-9.85988 -3.1387 274.343)
(-12.1634 -6.06206 277.231)
(-11.6484 -8.25575 247.918)
(-8.43917 -5.26574 203.751)
(-2.29941 7.38184 225.928)
(-2.90444 7.74267 272.721)
(-0.232239 5.62958 295.68)
(2.29167 3.15095 303.811)
(1.66197 1.02271 298.271)
(-0.889651 -1.16576 292.7)
(-4.59724 -4.3298 296.702)
(-7.71197 -9.26699 304.243)
(-9.15698 -13.9539 277.765)
(-8.53525 -11.9185 224.768)
(-0.740491 3.04869 240.356)
(-3.47848 2.99429 289.423)
(-2.5765 1.79243 310.27)
(0.635046 0.390898 309.256)
(2.29229 -0.334367 297.967)
(1.61556 -1.30696 287.877)
(-0.911083 -4.3503 291.281)
(-3.80104 -10.5004 300.373)
(-5.95053 -16.6082 277.976)
(-7.38507 -15.0504 227.127)
(0.598769 -0.780311 245.986)
(-4.43895 -1.23902 295.314)
(-6.26821 -1.64314 317.72)
(-3.68791 -1.05146 306.421)
(-0.597964 -0.460534 288.853)
(0.612577 -0.711383 279.926)
(-0.496535 -3.44752 283.635)
(-2.26554 -9.91794 293.165)
(-3.77143 -16.2413 271.453)
(-5.95909 -14.8213 221.015)
(2.07686 -3.76595 246.412)
(-4.42339 -3.83115 292.06)
(-7.6425 -3.13164 314.942)
(-5.78584 -1.45122 298.18)
(-2.79875 -0.298733 278.056)
(-1.25688 -0.589886 272.545)
(-1.12796 -3.3785 279.666)
(-1.91069 -9.64699 293.013)
(-2.75511 -15.3662 270.332)
(-5.09714 -13.7076 213.839)
(3.4421 -6.66063 241.484)
(-2.61377 -5.79029 279.346)
(-5.84807 -3.88192 297.006)
(-4.32725 -2.04012 281.064)
(-2.09389 -1.40636 265.387)
(-1.20127 -2.50688 267.814)
(-1.0187 -5.52468 282.816)
(-1.30337 -11.1462 299.142)
(-2.1312 -15.4481 271.907)
(-4.90792 -13.1334 209.447)
(3.67988 -9.57052 229.848)
(-1.12907 -8.08579 261.791)
(-2.81236 -5.8429 274.777)
(-0.950951 -4.78917 258.224)
(1.20487 -5.07285 246.077)
(1.69342 -6.7922 258.694)
(2.00996 -9.80969 279.895)
(1.83157 -13.4507 294.606)
(-0.678191 -15.4181 263.251)
(-5.47859 -12.2649 203.65)
(2.76274 -10.3136 206.1)
(-1.64696 -8.34449 227.156)
(-1.78724 -5.96196 237.408)
(1.73182 -5.4209 223.447)
(5.15542 -6.82901 217.203)
(6.36979 -9.72955 228.42)
(6.64109 -12.2345 244.899)
(5.23511 -14.0845 254.991)
(0.200601 -14.5151 227.839)
(-6.98839 -10.7836 187.147)
(2.25186 -8.5854 197.728)
(-3.32158 -7.25339 205.844)
(-3.95706 -5.22592 209.387)
(-0.780662 -4.326 193.983)
(2.51604 -6.02272 189.932)
(4.30061 -8.75352 190.315)
(4.5467 -11.2384 198.515)
(2.10854 -12.9353 202.675)
(-3.98869 -12.7934 189.753)
(-11.6917 -9.87185 184.615)
(7.71258 -0.491811 176.422)
(10.7106 -0.17323 190.663)
(12.6401 1.88502 221.353)
(12.3152 3.64385 239.053)
(10.2895 4.21132 249.912)
(6.25833 3.91832 255.462)
(1.3736 3.39652 255.951)
(-2.64152 3.29471 247.49)
(-4.61489 3.57729 222.731)
(-5.07422 5.83715 209.936)
(8.02477 -0.0218767 193.3)
(12.9813 2.52185 237.582)
(16.0415 5.01703 262.219)
(15.7758 5.91481 281.727)
(13.434 5.73714 289.025)
(9.39126 4.81515 294.923)
(3.90281 3.33965 304.229)
(-1.40029 2.16701 302.02)
(-4.34436 1.77897 265.333)
(-5.61688 2.98478 224.504)
(8.88957 1.56898 226.519)
(13.8434 4.92303 267.266)
(15.7368 5.77486 290.384)
(16.5936 4.77756 307.371)
(15.2508 4.42899 309.529)
(11.7441 3.60049 313.175)
(6.62055 2.20057 331.744)
(1.00729 0.848862 343.138)
(-2.80745 0.785963 304.433)
(-5.6431 2.80449 248.088)
(9.66617 3.78305 249.912)
(11.9122 5.97398 283.97)
(12.4425 4.81814 303.177)
(13.4658 2.89484 305.626)
(12.9012 2.04729 300.104)
(10.648 1.48712 303.564)
(7.09091 1.05166 329.58)
(2.62197 1.09982 351.716)
(-1.81722 2.29124 312.829)
(-5.75588 4.81063 247.849)
(10.5509 5.55539 265.777)
(9.79124 6.33318 293.383)
(9.01598 3.77472 302.036)
(8.99831 1.20562 297.277)
(8.781 -0.116845 294.593)
(7.81277 -0.204311 304.621)
(5.65708 0.510443 336.348)
(2.37416 2.35428 354.968)
(-2.2908 4.22059 310.036)
(-6.85997 6.41939 239.143)
(11.8367 7.07843 275.054)
(8.56652 6.98714 297.996)
(6.00106 3.71929 300.61)
(5.54823 0.190166 300.443)
(5.94644 -1.60373 303.31)
(6.2995 -1.66629 323.387)
(4.37236 -0.943991 362.319)
(0.06125 0.922041 367.594)
(-4.39026 3.50729 312.825)
(-9.10104 5.32249 236.312)
(13.6289 7.7272 278.408)
(9.53057 7.39781 297.898)
(5.67719 3.60111 302.836)
(4.87978 -0.419343 310.309)
(6.16369 -2.92833 320.148)
(7.32345 -4.05856 349.786)
(4.72136 -4.96529 394.179)
(-1.48528 -4.57828 385.59)
(-6.9597 -0.892125 322)
(-11.5194 1.58243 240.711)
(15.1886 6.72546 267.255)
(13.132 6.59883 280.683)
(10.7112 2.72277 287.443)
(10.014 -1.55314 303.395)
(11.7677 -5.35855 321.361)
(12.1949 -8.75009 355.309)
(8.21999 -11.2392 397.494)
(0.161969 -11.0379 384.108)
(-7.87353 -7.08772 322.786)
(-13.1899 -3.752 241.615)
(15.7369 4.44118 235.761)
(15.6154 5.93022 236.64)
(18.1022 3.01628 244.778)
(19.6658 -1.39443 261.593)
(20.4694 -6.1866 281.503)
(19.6874 -10.9349 312.826)
(13.7329 -14.972 348.282)
(2.27162 -15.811 344.923)
(-8.28338 -12.6828 293.768)
(-13.7977 -9.31216 223.466)
(15.2624 1.98183 217.512)
(14.2576 5.4423 196.976)
(17.6387 4.60267 200.199)
(20.6306 1.30428 209.247)
(21.3796 -3.83447 221.54)
(18.8528 -9.66815 240.5)
(12.0881 -14.635 262.67)
(1.84067 -16.1388 269.448)
(-8.52639 -14.809 239.568)
(-14.1523 -13.968 204.263)
(6.09948 -7.70383 170.344)
(7.99707 -7.03175 182.756)
(8.78854 -4.49877 211.001)
(8.23879 -1.93716 230.505)
(7.68046 -0.0440116 242.234)
(7.81124 1.06274 252.59)
(7.51082 1.82568 254.721)
(6.50766 2.67546 239.896)
(5.08602 3.48209 205.93)
(1.88393 3.52397 189.982)
(7.22472 -11.969 186.623)
(9.70671 -10.0027 218.618)
(10.837 -5.84724 239.65)
(8.53927 -2.58474 256.803)
(7.00652 -0.775848 270.229)
(6.36677 0.203788 279.474)
(6.88386 1.25286 294.018)
(6.55625 3.34154 288.568)
(4.54866 6.62941 244.881)
(2.8006 8.70577 196.975)
(6.48208 -13.0122 219.687)
(9.91117 -9.97129 247.141)
(9.01097 -6.52947 266.909)
(6.44555 -4.55374 286.364)
(4.86815 -2.55662 296.833)
(4.55197 -0.79299 310.573)
(4.57255 1.44301 333.192)
(5.26786 4.28473 331.355)
(3.70984 9.08862 290.549)
(0.679358 12.942 218.91)
(4.95572 -10.9343 250.778)
(7.28134 -8.44323 275.095)
(6.01963 -7.16319 295.7)
(4.79144 -6.13185 303.588)
(3.72091 -4.38408 307.654)
(3.26543 -2.2901 327.374)
(2.1158 0.64096 363.691)
(1.55831 4.79586 355.243)
(1.67787 10.2553 308.919)
(-2.53494 13.618 230.788)
(4.00571 -7.30421 270.785)
(5.37293 -6.45949 293.159)
(5.04445 -7.34458 307.076)
(4.66095 -7.23146 309.936)
(3.6232 -5.70129 315.511)
(2.33571 -3.90786 344.334)
(0.245321 -1.97853 391.816)
(-2.84972 1.85619 368.871)
(-2.64075 7.69409 311.563)
(-6.1013 9.84971 239.256)
(4.1192 -2.2142 280.351)
(4.94345 -3.32681 305.112)
(5.07945 -6.12637 317.297)
(5.28613 -7.20249 322.309)
(4.08951 -6.77523 334.501)
(2.02791 -6.57373 372.169)
(-1.93541 -5.83176 411.421)
(-7.54981 -3.68499 381.392)
(-7.14732 1.82225 315.344)
(-8.67401 3.95758 246.632)
(5.6112 3.91044 279.947)
(6.6648 1.2637 312.325)
(6.85502 -3.8128 332.666)
(6.861 -7.00343 346.741)
(5.30382 -8.51611 368.868)
(2.27265 -9.22127 402.975)
(-5.54349 -10.2042 422.094)
(-11.8062 -9.47848 387.736)
(-9.3653 -4.39456 315.888)
(-9.1168 -1.67616 248.835)
(8.56894 8.63942 261.786)
(11.8973 5.6479 294.815)
(13.13 -1.67675 323.491)
(12.2053 -7.0788 351.076)
(9.35799 -9.78496 377.083)
(2.30349 -11.3705 399.13)
(-7.90201 -13.6303 406.721)
(-12.4006 -12.6404 371.234)
(-8.45271 -8.11315 299.128)
(-7.77135 -5.7644 238.897)
(11.711 8.98471 223.256)
(17.3977 7.06522 245.429)
(22.3903 0.747713 276.895)
(22.3955 -5.81352 307.139)
(16.4797 -10.6758 334.193)
(5.28417 -13.7455 351.808)
(-4.71036 -14.4241 352.917)
(-7.29123 -12.1961 318.751)
(-5.68227 -9.17573 261.683)
(-6.62605 -8.31098 208.818)
(13.239 4.40471 203.546)
(19.0137 4.07273 196.026)
(24.3397 -0.788343 215.328)
(23.9235 -7.14112 235.167)
(17.4849 -12.2737 255.713)
(8.21136 -14.4793 274.23)
(0.211214 -14.3115 280.416)
(-2.98678 -12.3363 261.827)
(-3.86366 -10.8041 216.261)
(-5.69719 -11.0232 180.477)
(12.924 0.293267 169.776)
(11.9107 1.39236 180.497)
(9.98119 3.77623 203.728)
(7.41662 5.35477 220.355)
(5.85243 6.10318 231.125)
(4.81761 6.32139 241.087)
(4.57382 6.39821 246.41)
(4.63009 6.80756 231.815)
(2.67233 7.53343 197.576)
(-4.25847 8.29332 187.529)
(12.9784 -2.9982 188.099)
(13.7321 -0.927243 219.775)
(12.2794 2.8534 245.832)
(7.95849 5.65789 251.716)
(4.25995 6.37746 262.334)
(1.98758 5.96082 274.886)
(1.21018 5.78062 289.948)
(1.72219 7.23145 275.084)
(0.88542 10.0595 226.347)
(-4.5283 11.3582 191.288)
(11.1153 -4.26347 219.876)
(12.3353 -0.900062 243.148)
(9.45318 3.25165 255.761)
(3.23154 5.40811 268.549)
(-1.23498 5.93345 282.137)
(-4.51629 5.19965 303.277)
(-4.98459 4.82034 327.791)
(-3.39527 6.09185 313.132)
(-3.0404 9.85021 264.255)
(-7.3861 11.2682 212.507)
(7.93414 -3.33537 238.856)
(8.71476 -0.443459 262.108)
(4.9395 2.34274 282.444)
(-0.154751 3.85454 294.169)
(-5.08374 3.84216 313.662)
(-9.09348 3.14916 341.843)
(-10.8939 2.58058 360.629)
(-8.95182 3.71851 325.933)
(-6.64988 6.27845 275.745)
(-9.8486 7.10545 224.782)
(5.91893 -2.01372 259.181)
(6.17658 -0.72891 282.494)
(3.43976 -0.253207 303.401)
(-1.25423 0.142971 320.932)
(-6.37804 0.0764477 344.057)
(-11.4772 -0.69072 363.982)
(-14.7071 -2.00372 358.113)
(-12.995 -1.20806 314.946)
(-8.86799 1.18711 270.54)
(-9.87219 1.58349 232.788)
(5.17809 -0.125129 272.893)
(5.21188 -1.14076 303.908)
(2.81513 -3.18168 328.6)
(-1.33771 -3.98904 351.141)
(-7.13926 -4.19696 366.583)
(-13.5656 -5.66715 365.737)
(-17.3786 -7.40847 345.053)
(-14.579 -6.45325 308.062)
(-8.12354 -3.8609 270.774)
(-7.28362 -3.37433 239.681)
(6.33865 2.73854 275.352)
(6.58431 -0.298099 320.703)
(4.12397 -4.95178 358.281)
(-1.30014 -7.12848 376.321)
(-9.18541 -8.70216 370.944)
(-15.8923 -10.5239 354.881)
(-18.2433 -11.3916 335.511)
(-13.4071 -9.56396 304.587)
(-5.14917 -7.43966 270.294)
(-2.90579 -6.72928 237.501)
(9.27606 5.57184 255.842)
(10.3653 1.52381 307.336)
(7.18422 -5.28206 352.029)
(-1.15544 -9.35491 361.894)
(-9.70744 -11.37 348.85)
(-15.4875 -12.4618 333.611)
(-16.0975 -11.9135 318.991)
(-10.4145 -9.34246 294.397)
(-1.64772 -7.14795 258.075)
(1.5314 -7.13035 220.74)
(12.9599 4.52454 215.69)
(14.3986 0.641666 249.334)
(10.6762 -5.74813 291.392)
(1.44597 -10.4099 307.689)
(-7.27544 -12.1519 304.362)
(-11.7161 -11.4603 295.266)