/*--------------------------------*- C++ -*----------------------------------*\
| =========                 |                                                 |
| \\      /  F ield         | OpenFOAM: The Open Source CFD Toolbox           |
|  \\    /   O peration     | Version:  2406                                  |
|   \\  /    A nd           | Website:  www.openfoam.com                      |
|    \\/     M anipulation  |                                                 |
\*---------------------------------------------------------------------------*/
FoamFile
{
    version     2.0;
    format      ascii;
    arch        "LSB;label=32;scalar=64";
    class       volScalarField;
    location    "0.3";
    object      nu;
}
// * * * * * * * * * * * * * * * * * * * * * * * * * * * * * * * * * * * * * //

dimensions      [0 2 -1 0 0 0 0];

internalField   nonuniform List<scalar> 
25000
(
0.00736739
0.00748871
0.0073435
0.00726
0.00723307
0.00723819
0.00727595
0.00733531
0.00738185
0.00721337
0.00744513
0.00758398
0.0074828
0.00744834
0.00745958
0.00748906
0.00753009
0.0075853
0.00764342
0.00745506
0.00729753
0.00749066
0.00748846
0.00751459
0.0075623
0.00760717
0.00763796
0.0076674
0.00768857
0.00744201
0.00723729
0.00748994
0.00755036
0.00761766
0.00768886
0.00774206
0.00776555
0.00777343
0.0077521
0.00744556
0.00723373
0.00753391
0.00763415
0.00772857
0.00781378
0.00786832
0.00787981
0.00786152
0.00779498
0.00744902
0.00725767
0.00758403
0.00770255
0.00781653
0.00791271
0.007964
0.00795657
0.00790887
0.00780921
0.00745217
0.00730524
0.00763099
0.00774539
0.00786897
0.00797257
0.00801648
0.00798736
0.00791924
0.00781436
0.0074735
0.00738747
0.00769539
0.00777505
0.00788307
0.00797484
0.00800552
0.00796745
0.00790448
0.00782617
0.00752098
0.00751268
0.00776328
0.00775031
0.00779856
0.00785097
0.00787326
0.00786074
0.00784812
0.00784514
0.00759815
0.00736265
0.00754619
0.00744935
0.00743079
0.00744222
0.00745745
0.00747884
0.00751954
0.00759803
0.00738613
0.0062682
0.0062772
0.00618976
0.00610413
0.00604814
0.0060169
0.00599977
0.00597797
0.00591589
0.00579966
0.00620061
0.00639623
0.00638612
0.00633013
0.00629163
0.00628194
0.00629633
0.00631323
0.00624205
0.0059281
0.00610277
0.00637277
0.00639881
0.0063536
0.0063167
0.0063086
0.00633178
0.00637298
0.00633938
0.00599963
0.00604742
0.00633483
0.00636644
0.00632033
0.00628059
0.00626926
0.00629077
0.00633583
0.00632422
0.00601814
0.0060252
0.00631966
0.00634785
0.00629618
0.00625269
0.00623912
0.00625955
0.00630597
0.00630523
0.00602248
0.00602306
0.00632446
0.00635088
0.00629345
0.00624699
0.00623303
0.00625461
0.00630326
0.00630397
0.00602202
0.00603571
0.00633995
0.00637183
0.00631481
0.00626974
0.00625879
0.00628385
0.00633401
0.00632328
0.00602138
0.00606231
0.00635654
0.00640209
0.00635742
0.00632233
0.00631849
0.00634654
0.00639149
0.00635111
0.00602019
0.00608726
0.00631442
0.0063615
0.00634104
0.00632794
0.00633292
0.00635264
0.00636968
0.00629094
0.00599309
0.00608855
0.00609004
0.00606265
0.00604243
0.00603882
0.00604142
0.00604265
0.00603832
0.00600456
0.00592964
0.00527143
0.00539243
0.00544225
0.00541833
0.00536925
0.00531518
0.00526035
0.0051973
0.00510376
0.00500196
0.00533729
0.0057281
0.0058643
0.00582936
0.00576695
0.00571044
0.00566282
0.00560122
0.00543277
0.00510779
0.00535437
0.00581774
0.00595966
0.00591961
0.00586699
0.00582734
0.0058022
0.00577339
0.00561148
0.00520393
0.00534944
0.00579689
0.00592034
0.00588429
0.00584328
0.00581551
0.00579966
0.00578509
0.00565369
0.00525131
0.00535366
0.00577331
0.00588213
0.00584791
0.0058118
0.00578989
0.00577821
0.00576917
0.00565755
0.0052724
0.00537
0.00576275
0.00585933
0.00582269
0.0057865
0.00576617
0.00575664
0.00575118
0.00564962
0.00527799
0.00539261
0.0057643
0.00584979
0.00580528
0.0057637
0.0057411
0.00573356
0.00573271
0.00563627
0.00527678
0.0054122
0.00576299
0.0058389
0.00578414
0.00573531
0.00571085
0.0057075
0.00571216
0.00561546
0.00527016
0.00539577
0.00565718
0.00571385
0.00566601
0.00562239
0.00560203
0.0056008
0.0056008
0.00550703
0.0052292
0.00535243
0.00536192
0.00535023
0.00531507
0.00528713
0.00527317
0.00526836
0.0052619
0.00522303
0.00516184
0.00488151
0.00496089
0.0050338
0.00504212
0.00500867
0.00495103
0.00488283
0.00481008
0.00472192
0.00465339
0.00493715
0.00529645
0.0055517
0.00560049
0.00555182
0.0054621
0.00535074
0.00521438
0.00499911
0.00471796
0.00498464
0.00548293
0.00587622
0.00595925
0.00590956
0.00581737
0.00568754
0.00550565
0.00519546
0.00479742
0.0050172
0.0055349
0.00591697
0.00600302
0.00598213
0.00592208
0.0058071
0.00561427
0.00527721
0.00484536
0.00505743
0.00555229
0.00587111
0.00595468
0.00597045
0.00594046
0.00583885
0.00564342
0.00530413
0.00487164
0.00510081
0.00555502
0.00580516
0.00588508
0.00593346
0.00592646
0.00582585
0.00562541
0.0052955
0.00487917
0.00513091
0.00554167
0.00573715
0.00579989
0.00585293
0.00584722
0.00574155
0.00554984
0.00525209
0.00486874
0.00512824
0.00549475
0.00564473
0.00566378
0.00567175
0.00563773
0.00554127
0.00539696
0.00516603
0.00483752
0.0050637
0.00531355
0.00539379
0.00536854
0.0053295
0.00527733
0.00520933
0.00512895
0.00499185
0.00477233
0.00498437
0.0049959
0.00499018
0.0049536
0.00491126
0.00486845
0.00482636
0.00478781
0.00474376
0.00471982
0.0048213
0.00485749
0.00490422
0.00489074
0.00483819
0.00476376
0.00468379
0.0046095
0.00453394
0.00450079
0.00484496
0.00512721
0.00532723
0.0053638
0.00533457
0.00525987
0.00512933
0.00496149
0.00474977
0.00452255
0.00487778
0.00526638
0.00555366
0.00563351
0.00569176
0.00572905
0.00559781
0.00528903
0.00491567
0.00457192
0.00489425
0.00529899
0.00558828
0.00570152
0.00584757
0.00602769
0.00596925
0.00552214
0.0050165
0.0046101
0.00491056
0.00531972
0.00562211
0.00578353
0.00599861
0.00625793
0.00623303
0.00567752
0.00507991
0.00463913
0.0049289
0.00536841
0.00572175
0.00593388
0.00619477
0.00641507
0.0063304
0.00573431
0.00509632
0.00465039
0.00494248
0.00544635
0.00586579
0.00609157
0.00630818
0.00639216
0.00623229
0.00564816
0.00505282
0.00463528
0.00492816
0.0054635
0.0058737
0.0060355
0.00613262
0.00610204
0.00584987
0.00538464
0.0049397
0.00459423
0.00483928
0.00521612
0.00545416
0.00552248
0.00551589
0.00541174
0.00521016
0.0049654
0.00473328
0.00452692
0.00471249
0.00478274
0.00484635
0.00485614
0.00482416
0.00475061
0.00465113
0.00455648
0.0044938
0.00449652
0.00483889
0.00485315
0.00487312
0.00484139
0.00477654
0.00469107
0.00460116
0.00452968
0.00447611
0.00448135
0.00492667
0.00522181
0.00537577
0.00534591
0.00528009
0.00519461
0.0050362
0.00484525
0.00465905
0.00448006
0.00498372
0.00541255
0.00562782
0.00558182
0.00556127
0.00559193
0.00548449
0.00513229
0.00478174
0.00450506
0.00497055
0.00539823
0.00558529
0.00557522
0.00562948
0.0057595
0.00580073
0.00536728
0.00486456
0.00452553
0.00492824
0.00534455
0.00554758
0.00560282
0.00572633
0.00592941
0.00607538
0.00557287
0.00493914
0.00454655
0.00488398
0.00532492
0.00560094
0.00573168
0.00592923
0.00620959
0.00639915
0.00569463
0.00498159
0.0045593
0.00484992
0.00535266
0.00573885
0.00595105
0.00621108
0.00650872
0.0065335
0.00563305
0.00496002
0.00455215
0.00481454
0.00539442
0.00590578
0.0061608
0.00635934
0.00644344
0.00607898
0.00537108
0.00486897
0.00452309
0.00472665
0.00523476
0.00564636
0.0057805
0.00576661
0.0056086
0.00529082
0.00493928
0.00468013
0.00447415
0.00456218
0.00469998
0.00482668
0.00487294
0.00484721
0.00475491
0.0046205
0.0045043
0.00445087
0.00446454
0.00469827
0.00469163
0.00468873
0.0046884
0.00466887
0.00462762
0.00458458
0.00455464
0.00452741
0.00455434
0.00483027
0.00512727
0.00518355
0.00519844
0.00518105
0.00510939
0.00499115
0.00487796
0.00473245
0.00455542
0.00492882
0.00547108
0.00558384
0.00559565
0.00558758
0.00553597
0.00535974
0.00512391
0.00485885
0.00457864
0.00493261
0.00556873
0.00578424
0.00576931
0.00576551
0.00576237
0.00560345
0.00528729
0.00492915
0.00459518
0.00488061
0.00555149
0.00590719
0.00593541
0.00596082
0.00596728
0.00580229
0.0054224
0.00499138
0.00461661
0.00480353
0.00547698
0.00596357
0.00611755
0.00620912
0.00620107
0.00597079
0.00549981
0.00502326
0.0046309
0.00471998
0.0053773
0.0059636
0.00623773
0.00640388
0.00639791
0.00604883
0.00548316
0.00501517
0.00462481
0.00463847
0.0052542
0.00587624
0.00622584
0.00647092
0.00646289
0.0058884
0.00534251
0.00495358
0.00458975
0.00454087
0.00500252
0.00542351
0.00562126
0.00567681
0.00554365
0.00522718
0.00497311
0.00476055
0.00451912
0.00442365
0.0045555
0.00468698
0.00474598
0.00474753
0.0046916
0.00460568
0.00454774
0.00449893
0.00447488
0.00450912
0.00457756
0.00455342
0.00453668
0.00454089
0.00455547
0.00457904
0.00459874
0.00457437
0.00454756
0.00465604
0.00516825
0.00517102
0.00508713
0.0050505
0.00503737
0.00504653
0.00505859
0.00491628
0.00461795
0.00479497
0.00581724
0.00595233
0.00576401
0.0056342
0.00550449
0.00542124
0.00538757
0.00513844
0.00469436
0.00485588
0.00595333
0.00632976
0.0063659
0.00616774
0.0058516
0.00564395
0.00556064
0.00524519
0.00473569
0.00485816
0.00594983
0.00657038
0.00678595
0.00646667
0.00600957
0.00577724
0.00571197
0.00534088
0.00476459
0.00480948
0.00590055
0.00687207
0.00677954
0.00633823
0.00592598
0.00576389
0.00577536
0.00540754
0.00478259
0.00471715
0.00570464
0.00656262
0.00647718
0.00612435
0.00579654
0.00570551
0.00577331
0.00540473
0.00477463
0.00459628
0.00542785
0.0062882
0.00646662
0.00606122
0.00571906
0.00565233
0.00567565
0.00527648
0.00471958
0.00444272
0.00497075
0.00545161
0.0056699
0.00555123
0.00537111
0.00528011
0.00518927
0.00493623
0.00460434
0.00431638
0.00444573
0.00457039
0.00464502
0.00467735
0.00468893
0.00468184
0.0046406
0.00455625
0.00450555
0.00435754
0.00453012
0.00456756
0.00453995
0.00452725
0.0045423
0.00457342
0.00458834
0.00454218
0.00446709
0.00451775
0.00523414
0.00542272
0.00524783
0.00514673
0.00512492
0.00518047
0.00522068
0.00500238
0.0045698
0.00464952
0.00590095
0.00624182
0.00580356
0.00563675
0.00555002
0.00560892
0.00573126
0.00534675
0.00468801
0.00472289
0.00576546
0.00585514
0.00574217
0.00564206
0.00557348
0.00567607
0.00589807
0.00548866
0.00475791
0.00476059
0.00568652
0.00576662
0.00563355
0.00552668
0.00552054
0.00574134
0.00610751
0.00561279
0.00480137
0.00476284
0.00574134
0.00584957
0.00563856
0.00553237
0.00558936
0.00591737
0.00625848
0.00572114
0.00483157
0.0047218
0.00580145
0.00604937
0.00578312
0.0057082
0.00588481
0.0063418
0.00619071
0.00572896
0.00484382
0.00462281
0.00562052
0.00604301
0.00580953
0.00581971
0.00616024
0.00654527
0.00601945
0.00559163
0.00482052
0.00445887
0.00508904
0.005481
0.0054699
0.00550392
0.00564207
0.00568631
0.00548527
0.00520469
0.00473573
0.00430176
0.00445872
0.00459442
0.00467834
0.00474375
0.00479452
0.00480615
0.00476052
0.00469013
0.00462327
0.00435561
0.00450182
0.00460147
0.00460953
0.00459871
0.00460358
0.00461967
0.004596
0.00450085
0.00437755
0.00447843
0.00511389
0.00564312
0.00549919
0.0053343
0.00529557
0.00537732
0.00537495
0.0050233
0.00451154
0.00458296
0.0054987
0.00593429
0.00557072
0.00543079
0.00546182
0.00575862
0.00608517
0.00542273
0.00464249
0.00466206
0.00541918
0.0054319
0.0053342
0.00532432
0.0054508
0.00591253
0.00644827
0.00560922
0.00472079
0.00473084
0.00541733
0.00539508
0.00535871
0.00541525
0.00567211
0.00635619
0.00618215
0.00567138
0.00476563
0.00478374
0.00557607
0.00557176
0.00556226
0.00570645
0.00620184
0.00610318
0.00570774
0.00563539
0.00479379
0.00479312
0.00587062
0.00598282
0.00603811
0.00640189
0.00637372
0.00560369
0.00544376
0.00558228
0.00480376
0.00471261
0.00582942
0.0062634
0.00654587
0.00668461
0.00585736
0.00541874
0.00540143
0.00563326
0.0047882
0.00453447
0.00517753
0.00550384
0.00565665
0.00571563
0.00554596
0.00536994
0.00541476
0.0054126
0.00471172
0.00436109
0.00452088
0.0046336
0.00470744
0.00475972
0.00477944
0.00477012
0.00475074
0.0046987
0.00455361
0.00438186
0.00451447
0.00462752
0.00465399
0.00464635
0.00463428
0.00462019
0.00455423
0.00441
0.00427276
0.00451422
0.00510241
0.00570399
0.00568847
0.00546384
0.00536121
0.00540256
0.00530811
0.00488454
0.00439721
0.00459514
0.00537899
0.00634589
0.00583412
0.00552887
0.00553456
0.00596152
0.00616383
0.00529575
0.00453052
0.00465348
0.00535142
0.00553594
0.00539486
0.00538649
0.00567241
0.00654012
0.00619506
0.00549468
0.00462827
0.00471394
0.00532501
0.00538667
0.00539689
0.0056429
0.00629384
0.0060167
0.00573334
0.00553795
0.00469573
0.00477686
0.00543469
0.00553899
0.00573152
0.00620283
0.00595269
0.00555613
0.00555025
0.00557914
0.00473936
0.00480381
0.00570855
0.00608492
0.00619968
0.00582942
0.00551675
0.00539717
0.00552101
0.00566597
0.0047458
0.00472612
0.00567134
0.00627519
0.00585132
0.00553346
0.00541779
0.00543034
0.00567213
0.00583855
0.00469598
0.00453856
0.00506004
0.00534205
0.00533424
0.00529175
0.00532632
0.00543296
0.00563403
0.00538317
0.0045655
0.00437291
0.00448623
0.00456748
0.00460084
0.004632
0.00467753
0.00471255
0.0047015
0.0045846
0.00437103
0.00433522
0.00448173
0.00459568
0.0046242
0.00461306
0.00457945
0.00453145
0.00445584
0.0043178
0.00417941
0.00450886
0.00512302
0.00568577
0.00574351
0.00555579
0.00536503
0.00524758
0.00511449
0.00476613
0.00430865
0.00460514
0.00537976
0.00654452
0.00626387
0.00581405
0.00568598
0.00573217
0.0056773
0.00515614
0.00445573
0.00464763
0.00535003
0.00580282
0.00572708
0.00570849
0.00588577
0.00598901
0.00578931
0.00535262
0.00456673
0.00467835
0.00531188
0.00559016
0.00573161
0.0060013
0.0060751
0.0058155
0.00566218
0.00544589
0.00465663
0.00470863
0.00533306
0.00562615
0.00595925
0.00605524
0.00577813
0.00560905
0.00557078
0.00549853
0.00470761
0.00470795
0.00540144
0.00577098
0.00576826
0.00568143
0.00558715
0.00552715
0.00555968
0.00557869
0.00468488
0.00462551
0.00526524
0.00557919
0.00552091
0.00554592
0.0055778
0.00560122
0.0057865
0.00570893
0.00458557
0.00446428
0.00485807
0.00507837
0.00515799
0.00528389
0.00543284
0.00560325
0.00574751
0.00517303
0.00441407
0.00432404
0.00440175
0.00447022
0.0045155
0.00458154
0.00464696
0.00466791
0.00460426
0.00443683
0.00423129
0.00425256
0.00440304
0.00450812
0.0045428
0.00453373
0.00448821
0.00441909
0.00433764
0.00422438
0.00411118
0.00443254
0.00503108
0.00547493
0.00557256
0.00551036
0.00532075
0.00509852
0.00488944
0.00458954
0.00420066
0.00455667
0.0053962
0.00640915
0.00664063
0.00628358
0.00588256
0.00559569
0.00535151
0.00491542
0.0043257
0.00461541
0.0053899
0.0058608
0.0059449
0.00598955
0.0059253
0.00575318
0.00555403
0.0051271
0.00443302
0.00464647
0.0053536
0.00565499
0.00578202
0.00593182
0.00591354
0.00576165
0.00561815
0.00527911
0.00452739
0.00465883
0.00535809
0.00566768
0.00580219
0.0058052
0.00572961
0.00567768
0.00565612
0.00540509
0.00458317
0.00463765
0.00536849
0.00577689
0.0057008
0.00556282
0.00554556
0.00560691
0.00576514
0.00549952
0.00456245
0.00455454
0.00521383
0.00562976
0.00551124
0.00544518
0.00552413
0.00576499
0.00621619
0.00534127
0.00445164
0.00440783
0.00480369
0.00508585
0.00515857
0.00523204
0.00539297
0.00557511
0.00532783
0.00479221
0.00428747
0.004283
0.00435072
0.00443668
0.00448851
0.00453818
0.00457824
0.00456279
0.0044567
0.00430956
0.00418007
0.00420641
0.00439185
0.004512
0.00454209
0.00451677
0.00445145
0.0043557
0.00426579
0.00417939
0.00412206
0.00438088
0.00505886
0.00547035
0.00550368
0.00542569
0.00530258
0.00503519
0.00474068
0.00444896
0.00415075
0.00449515
0.00553348
0.00640415
0.00610885
0.00593794
0.00597262
0.00567604
0.00516897
0.00468075
0.00421759
0.00453726
0.00560332
0.00640756
0.0059937
0.00581833
0.00594976
0.00591179
0.00542335
0.00483737
0.00427706
0.00456069
0.00556107
0.00616534
0.00584011
0.00564652
0.00577565
0.00595744
0.0056741
0.00499495
0.00433338
0.0045625
0.00547277
0.006123
0.00594911
0.00560892
0.00568869
0.00588162
0.00584542
0.0051695
0.0043778
0.00453291
0.00533953
0.00604271
0.00593948
0.00556117
0.00568373
0.00596754
0.00589271
0.00524813
0.00438431
0.00446483
0.00510449
0.00565943
0.00564193
0.00555061
0.00587865
0.0062667
0.0057076
0.00505201
0.00432122
0.00435698
0.00474173
0.00504301
0.00515749
0.00524917
0.00536814
0.00524073
0.00496263
0.00462313
0.00420891
0.00425662
0.00432975
0.00441431
0.00446087
0.00449713
0.0045247
0.00451012
0.00444111
0.00430532
0.00417548
0.00415658
0.0044022
0.00455974
0.0045942
0.00454552
0.00446134
0.00437009
0.00430872
0.00424799
0.00420832
0.00435493
0.00519791
0.00576871
0.0057722
0.00556489
0.00554119
0.00516249
0.00484697
0.00454531
0.00423437
0.00448432
0.00580346
0.0062791
0.00580308
0.00540078
0.00557702
0.00587923
0.00529884
0.00476288
0.00428772
0.00453935
0.00596147
0.00589528
0.00560074
0.00517653
0.00509849
0.00542507
0.00534861
0.00482657
0.00432437
0.00455357
0.00599491
0.00569087
0.00567095
0.00527304
0.00498019
0.00508892
0.00532509
0.00484967
0.00434429
0.00452551
0.00586103
0.00558306
0.00556604
0.00557769
0.00514889
0.00501625
0.00524953
0.0048708
0.00434363
0.00445012
0.0054846
0.00567486
0.00539424
0.00541181
0.00539871
0.00520057
0.00522016
0.00487971
0.00432223
0.00435264
0.00506333
0.00585241
0.00573856
0.00566922
0.00581574
0.00548749
0.00515945
0.00477889
0.00427863
0.00425367
0.00466237
0.00504467
0.0052337
0.00528266
0.00521383
0.00500602
0.00476147
0.00451545
0.00422036
0.00417919
0.00426475
0.00436001
0.00443215
0.00448517
0.00451769
0.0044922
0.00438155
0.00424702
0.00417613
0.0041268
0.00440364
0.00458733
0.00462417
0.00455674
0.00445828
0.00438538
0.00435873
0.00431447
0.00424923
0.00435594
0.00522154
0.00564745
0.00554428
0.00529113
0.00551536
0.00534007
0.005073
0.00474204
0.00433107
0.00452959
0.00536103
0.00526698
0.00515824
0.00490416
0.00498889
0.0057108
0.00586146
0.00503344
0.00440423
0.00464643
0.00525937
0.00514484
0.00516522
0.00482127
0.00472253
0.00507353
0.00547951
0.00503238
0.00444737
0.00469091
0.00524066
0.00511509
0.0055397
0.00504174
0.00469783
0.00485412
0.00536408
0.00502881
0.00446825
0.00463101
0.00523203
0.00493875
0.00522536
0.00545742
0.00489534
0.00482231
0.00525107
0.00498371
0.00444964
0.0044903
0.00531298
0.00487355
0.00488503
0.00511954
0.00520099
0.00498726
0.00516128
0.00489401
0.0043965
0.00433444
0.005281
0.00523711
0.00508221
0.0052003
0.00541591
0.00520343
0.00505566
0.00476217
0.0043226
0.00421174
0.00470946
0.00505966
0.00508129
0.00508405
0.00502916
0.00489982
0.00473493
0.00452376
0.00423679
0.00414093
0.00425275
0.00435816
0.00441752
0.00447151
0.0045041
0.0044763
0.00437369
0.00425175
0.00418005
0.00413045
0.00441207
0.00462041
0.00469168
0.00464858
0.00455915
0.00448554
0.0044434
0.0043689
0.00425076
0.00438492
0.0052183
0.00543802
0.00535053
0.00517875
0.00525845
0.00521955
0.00509726
0.00483162
0.00436753
0.0045973
0.00521477
0.00506912
0.00501651
0.00481208
0.00480407
0.00526964
0.00585133
0.00513052
0.00444199
0.004748
0.00512678
0.00504127
0.00513848
0.004827
0.00463142
0.0048365
0.0054692
0.00511929
0.00446579
0.00481221
0.00514614
0.00509946
0.00573112
0.00520994
0.00469827
0.00470017
0.00522375
0.00510213
0.00447036
0.00473205
0.00510074
0.00489571
0.00520276
0.00577087
0.00499828
0.00475826
0.0050958
0.00509107
0.00446446
0.00455484
0.0051972
0.00480267
0.0048295
0.00506068
0.00532444
0.00506176
0.005175
0.00510698
0.0044644
0.004395
0.00542225
0.00520673
0.00504203
0.00507705
0.00530769
0.00549336
0.00544454
0.0051123
0.00447206
0.00429071
0.00478963
0.00503296
0.00508259
0.00514826
0.0052393
0.0053462
0.00525645
0.00493376
0.00445849
0.00422741
0.00433478
0.004407
0.00445839
0.00452708
0.00461427
0.00467896
0.0046536
0.0045503
0.004433
0.00407763
0.00429972
0.00455023
0.00471466
0.00478248
0.00477397
0.00474252
0.0046549
0.00449517
0.00428622
0.00430735
0.00503424
0.00550023
0.00544323
0.00535053
0.00539846
0.0054066
0.00539272
0.00509553
0.00445235
0.00455043
0.00538832
0.0051132
0.00503946
0.00492586
0.00498103
0.00533633
0.00558663
0.00537779
0.00454238
0.00473682
0.00531287
0.00503566
0.00509729
0.00491083
0.0047312
0.0048896
0.00536953
0.00529594
0.00455653
0.00483426
0.00536412
0.00512247
0.00557059
0.00546265
0.00486973
0.00474905
0.00509312
0.0053068
0.00456623
0.00478008
0.00532012
0.00497918
0.00521724
0.00597959
0.00535175
0.00490276
0.00505771
0.00544074
0.00460073
0.00462878
0.00548408
0.00493487
0.00490075
0.00505741
0.00532629
0.00518758
0.00525417
0.00582759
0.00464776
0.00450681
0.00558503
0.00549337
0.00518846
0.00511479
0.00519007
0.00521703
0.00531124
0.00570556
0.00463797
0.00441741
0.0049578
0.005209
0.00532894
0.00551726
0.00563544
0.0055376
0.00556535
0.0053835
0.00457631
0.00431667
0.00443063
0.00448772
0.00452661
0.00460237
0.00471086
0.00477388
0.00474158
0.00462979
0.00445775
0.00436411
0.00447435
0.00467813
0.0048615
0.00497922
0.00503704
0.00501738
0.00488684
0.00466176
0.00440026
0.0044416
0.00484907
0.00536285
0.00559418
0.00554476
0.00554355
0.00559697
0.00579179
0.00574763
0.00461332
0.00455145
0.00523139
0.00571412
0.00550265
0.00533412
0.00531287
0.00535988
0.00544296
0.00572937
0.00474879
0.00464812
0.00557951
0.00547543
0.00540347
0.00527799
0.00520046
0.00528507
0.00543205
0.00561852
0.00477316
0.00471518
0.00584982
0.00538266
0.00561328
0.00575263
0.00529046
0.00526146
0.00542146
0.00552219
0.00473483
0.00472451
0.00589793
0.00532204
0.00543618
0.00605538
0.00570354
0.00528092
0.00535361
0.00542497
0.0046661
0.00468035
0.00576228
0.00539151
0.00522221
0.00522948
0.00530723
0.00519804
0.00523047
0.00542059
0.00460513
0.0046309
0.00559196
0.00608134
0.00562293
0.0053622
0.00523699
0.00517124
0.00535425
0.00561
0.00455869
0.00456436
0.00515391
0.00553532
0.00563959
0.00565787
0.00562186
0.00559577
0.00593654
0.00527601
0.00446905
0.00445035
0.00455134
0.00459182
0.00460376
0.00462791
0.00466861
0.00468996
0.00464095
0.00450441
0.00434139
0.00469739
0.00491947
0.00517182
0.00531717
0.00536433
0.00535313
0.00521883
0.00496
0.00465571
0.00437596
0.00480946
0.00537065
0.00549502
0.00531943
0.00517507
0.00510846
0.00515475
0.00539328
0.00567701
0.00459795
0.00489853
0.0055951
0.00550716
0.00535288
0.00519518
0.00502999
0.00492835
0.00494391
0.00521869
0.00476436
0.00494229
0.00597069
0.00574847
0.00568574
0.00560624
0.0053282
0.00514826
0.00505913
0.00518713
0.00484409
0.00490904
0.00594748
0.00570741
0.00585462
0.00697926
0.0059997
0.00559507
0.00552386
0.00580605
0.00493182
0.0048286
0.00564833
0.00552876
0.00548133
0.00566181
0.00590586
0.00567089
0.00557796
0.00601212
0.00490563
0.00472984
0.00544565
0.00545957
0.00531852
0.00530918
0.0053798
0.00526407
0.00515658
0.00524832
0.00474957
0.00464301
0.00537869
0.00585118
0.00557441
0.00548039
0.00542433
0.00519356
0.00512327
0.00525122
0.00462315
0.00455994
0.00510777
0.00571278
0.00582104
0.00568864
0.00566032
0.00542313
0.00564314
0.0053564
0.00446794
0.00446406
0.00456119
0.00462628
0.00463293
0.00463271
0.00468071
0.0047016
0.00465547
0.00447237
0.00428776
0.00449392
0.00477621
0.00498873
0.00512761
0.00522838
0.00525141
0.00510166
0.00486372
0.00459375
0.0043003
0.00471688
0.00521012
0.00508621
0.0049943
0.00505211
0.00525774
0.00559562
0.00602667
0.00551443
0.00453462
0.00476515
0.00499965
0.00487844
0.00483677
0.00487105
0.00494642
0.00505289
0.00523661
0.00558265
0.00468609
0.0048369
0.00515233
0.00503469
0.00498826
0.00499017
0.00499643
0.00501467
0.00508704
0.00533103
0.00477027
0.00493047
0.00569523
0.00545802
0.00534845
0.00528369
0.00521834
0.00519242
0.00523476
0.00547397
0.00484666
0.00491852
0.00664607
0.00605757
0.00598299
0.00579645
0.00555415
0.00543125
0.00545488
0.00585612
0.00488408
0.00480497
0.00583281
0.00570973
0.00598373
0.00621527
0.00562715
0.00531165
0.00522851
0.00543754
0.00478983
0.0046769
0.00569858
0.0056241
0.00580531
0.0062392
0.00548137
0.00512875
0.00511213
0.00535222
0.00463141
0.00452633
0.00528673
0.00552371
0.00566855
0.00598627
0.00540029
0.00519474
0.00546594
0.00526531
0.0044134
0.00432471
0.00451389
0.00462139
0.00468574
0.00473734
0.0047293
0.00469309
0.0046045
0.00439638
0.00419735
0.00418268
0.00439876
0.00453244
0.00459981
0.0046268
0.00462117
0.00459658
0.00455139
0.00442569
0.00420565
0.00442787
0.00509791
0.00539273
0.00535451
0.00525015
0.00519281
0.00521813
0.00524327
0.00499916
0.00441611
0.004544
0.00500532
0.00496949
0.00493881
0.00496035
0.00502778
0.00516258
0.00534524
0.00524379
0.00453665
0.00454413
0.00478899
0.00475479
0.00475381
0.00481336
0.00491696
0.00505301
0.00523105
0.00525572
0.00459055
0.00457171
0.00479283
0.00475942
0.00474366
0.00478716
0.00488102
0.00499616
0.00513853
0.0052109
0.00461459
0.00464701
0.00499488
0.00494792
0.0048787
0.00487527
0.00495039
0.00506318
0.00519441
0.00525421
0.00462543
0.00470402
0.00535887
0.00531962
0.00513584
0.00505369
0.00510238
0.0052448
0.00543221
0.00544181
0.00461089
0.00467586
0.00562101
0.00585291
0.00547368
0.0052506
0.0052302
0.00537992
0.00568877
0.00552708
0.0045328
0.00452186
0.0052682
0.00561698
0.00548405
0.00525902
0.00519978
0.00533652
0.00562299
0.00512068
0.00436009
0.00425322
0.00450479
0.00462054
0.00465053
0.0046486
0.00463951
0.00461415
0.00453583
0.00435707
0.00414166
0.0041511
0.0042332
0.00430677
0.00433174
0.00434462
0.00435779
0.00434727
0.0043039
0.00420159
0.00401241
0.00425161
0.00464204
0.00503244
0.00514385
0.00512582
0.00505955
0.00497061
0.00486232
0.00463389
0.00418703
0.0043016
0.00487957
0.00552534
0.00563209
0.00551246
0.00540559
0.00528055
0.00514742
0.00485363
0.00428839
0.00433417
0.00495332
0.00524583
0.00530592
0.00531503
0.00532526
0.00533368
0.00528891
0.00498661
0.00434987
0.00434642
0.00485774
0.00497216
0.00502499
0.00511366
0.00520162
0.00526231
0.00529041
0.00505657
0.00438671
0.00434745
0.00476172
0.0048344
0.00485992
0.00495454
0.005094
0.00519142
0.00521726
0.00502393
0.00438391
0.00437738
0.00481708
0.00485206
0.00481778
0.00486559
0.00501327
0.00514982
0.00517315
0.00495148
0.00434574
0.0043875
0.00494419
0.00499732
0.00489848
0.00487544
0.0049732
0.00512986
0.00515681
0.00487955
0.00429603
0.00430008
0.00481527
0.00493976
0.00487829
0.00483797
0.00486491
0.00494026
0.00493827
0.00468601
0.00421822
0.00410976
0.00430057
0.0043746
0.00439328
0.00439829
0.00439872
0.00439192
0.00436289
0.0042614
0.00410211
0.00424533
0.00434973
0.00434964
0.00426305
0.00419144
0.00417405
0.0042012
0.00420648
0.00411738
0.00387989
0.00448867
0.00489185
0.00540211
0.00527236
0.00489
0.00469228
0.00464934
0.00467062
0.00455943
0.00406993
0.00452189
0.0047871
0.00508798
0.00548434
0.00566295
0.00532877
0.00513279
0.00508824
0.00490197
0.00420413
0.00450294
0.00472027
0.00489053
0.00510832
0.00539335
0.00563678
0.00560222
0.00554234
0.00524212
0.00431527
0.00447954
0.00470946
0.00482864
0.00500956
0.00529862
0.00569932
0.00608691
0.00612419
0.00551811
0.00439304
0.0044036
0.00468802
0.00478398
0.00496101
0.00529467
0.00563767
0.00599845
0.00610149
0.00547982
0.00440562
0.00431842
0.00470784
0.00481279
0.00488284
0.00521768
0.00550304
0.00565878
0.00567648
0.00523898
0.00434376
0.00422892
0.0047166
0.00486619
0.00482205
0.0049965
0.00536734
0.00545658
0.00537426
0.00496782
0.00422897
0.00412345
0.00451939
0.00466335
0.00463684
0.004639
0.00478286
0.0049049
0.00485659
0.00458595
0.00407995
0.00402237
0.00417257
0.00424819
0.00425561
0.00423492
0.00422536
0.00423806
0.00421356
0.00411236
0.00394213
0.00435255
0.00452756
0.00447621
0.00427456
0.00414498
0.0041289
0.00417557
0.00419236
0.00410669
0.00383128
0.00471234
0.00522141
0.00512717
0.00502956
0.00469586
0.00447233
0.00445675
0.00450978
0.00451173
0.00403024
0.00497946
0.00499767
0.00485168
0.00486011
0.00504538
0.00494064
0.00476119
0.00477411
0.00477022
0.00417303
0.00496015
0.00487965
0.00483676
0.00475133
0.00474572
0.00509444
0.00518095
0.00507134
0.00502171
0.00428744
0.00479814
0.00487748
0.00498241
0.00483358
0.0046301
0.00472345
0.00518261
0.00550846
0.00530341
0.0043635
0.0047178
0.00498458
0.00533113
0.00506568
0.00471058
0.00464121
0.00484163
0.00523229
0.00525882
0.0043778
0.00467432
0.00509184
0.00568982
0.0054986
0.00488959
0.00473935
0.00481781
0.00505333
0.00512049
0.00435158
0.00454353
0.00499198
0.0052905
0.00604259
0.0051516
0.00489676
0.00490938
0.00505126
0.00504067
0.00428679
0.00435527
0.00469231
0.00487068
0.00515486
0.00511627
0.00491197
0.00485504
0.00488896
0.00479377
0.00417504
0.00418656
0.00427524
0.004369
0.00447515
0.00452547
0.004506
0.00446876
0.00442249
0.00430238
0.00404786
0.00424238
0.00436604
0.00432208
0.00429677
0.00432307
0.00433143
0.00428751
0.00416381
0.00398627
0.0038017
0.00454916
0.00509163
0.00499003
0.00467262
0.0045655
0.0045708
0.00453806
0.00443442
0.00438117
0.00391699
0.00494487
0.00497085
0.00478509
0.00487726
0.00478567
0.00473005
0.00470682
0.00465591
0.00478767
0.00409538
0.00540094
0.00538346
0.00481331
0.00462832
0.00477312
0.00481384
0.00478457
0.00485696
0.00491252
0.00422434
0.00551226
0.00528043
0.00530283
0.00477043
0.00459531
0.00473838
0.00489733
0.00495819
0.0048011
0.00431824
0.00535252
0.00503246
0.00496065
0.00542736
0.00480164
0.00469816
0.00482707
0.00490152
0.00489853
0.00441933
0.0050428
0.00496539
0.00464314
0.00497159
0.00552653
0.00510609
0.00507953
0.00521958
0.00526126
0.00448718
0.00476602
0.00505165
0.00456639
0.00460303
0.00502912
0.00556747
0.00562615
0.00576133
0.00545834
0.00447462
0.00459579
0.00519191
0.00472303
0.00457757
0.00476134
0.00511342
0.0052797
0.00520505
0.0049378
0.00437853
0.00445129
0.00453165
0.00441493
0.00435848
0.00441916
0.00451975
0.00455301
0.0045128
0.00441856
0.00425117
0.004307
0.00439986
0.00446164
0.00454243
0.00459129
0.00458206
0.0045378
0.00438609
0.0041833
0.00406476
0.00458903
0.00506889
0.00500897
0.00494821
0.00488482
0.00486441
0.00477903
0.0045277
0.00431204
0.00402227
0.00491537
0.00568753
0.00527624
0.005131
0.005097
0.00515372
0.00483246
0.00460541
0.00451597
0.00408099
0.00535927
0.00504619
0.00479932
0.00480413
0.00493267
0.0049663
0.00466046
0.00466932
0.00464336
0.00418993
0.00558077
0.00505696
0.00488476
0.00483534
0.00487377
0.00474006
0.00461441
0.00474102
0.00471913
0.00427841
0.00520436
0.00494257
0.00508156
0.00530133
0.00499682
0.00472896
0.00478119
0.00491903
0.00489289
0.00433098
0.00505567
0.0047564
0.00476137
0.00502229
0.00498412
0.0048889
0.00508152
0.00515981
0.00508572
0.00435719
0.00493572
0.00472126
0.00462158