/*--------------------------------*- C++ -*----------------------------------*\
| =========                 |                                                 |
| \\      /  F ield         | OpenFOAM: The Open Source CFD Toolbox           |
|  \\    /   O peration     | Version:  2406                                  |
|   \\  /    A nd           | Website:  www.openfoam.com                      |
|    \\/     M anipulation  |                                                 |
\*---------------------------------------------------------------------------*/
FoamFile
{
    version     2.0;
    format      ascii;
    arch        "LSB;label=32;scalar=64";
    class       volScalarField;
    location    "0.3";
    object      nut;
}
// * * * * * * * * * * * * * * * * * * * * * * * * * * * * * * * * * * * * * //

dimensions      [0 2 -1 0 0 0 0];

internalField   uniform 0;

boundaryField
{
    walls
    {
        type            nutUSpaldingWallFunction;
        value           nonuniform List<scalar> 
2000
(
2.67947e-09
3.68455e-09
4.70809e-09
5.52868e-09
5.9822e-09
5.98308e-09
5.53657e-09
4.72822e-09
3.71416e-09
2.71052e-09
1.17086e-09
1.17622e-09
1.15624e-09
1.11603e-09
1.08185e-09
1.06398e-09
1.05813e-09
1.04259e-09
1.00344e-09
9.49668e-10
6.13579e-10
2.82738e-10
7.26994e-11
5.55949e-11
1.37677e-10
1.67614e-10
1.31961e-10
5.5627e-11
1.71286e-11
1.59573e-10
1.01171e-09
5.60652e-10
2.52984e-10
2.27682e-10
3.98232e-10
5.22071e-10
4.78797e-10
2.57025e-10
8.0079e-11
2.74884e-10
8.74592e-10
5.60687e-10
6.74685e-10
1.23701e-09
1.93095e-09
2.31296e-09
2.08958e-09
1.31671e-09
5.97414e-10
3.02963e-10
4.23344e-10
7.12225e-10
1.66996e-09
3.13382e-09
4.48795e-09
4.97815e-09
4.2834e-09
2.73657e-09
1.28757e-09
3.82267e-10
4.3773e-10
2.20227e-09
4.96055e-09
7.79819e-09
9.67567e-09
9.99834e-09
8.55117e-09
5.92423e-09
3.03079e-09
8.74915e-10
2.41129e-09
6.39151e-09
1.19817e-08
1.77004e-08
2.14544e-08
2.1847e-08
1.86941e-08
1.30097e-08
6.87015e-09
2.54369e-09
4.0608e-09
9.17562e-09
1.60708e-08
2.30556e-08
2.78975e-08
2.89517e-08
2.58652e-08
1.98357e-08
1.27661e-08
6.5178e-09
3.78794e-09
9.67315e-09
1.76378e-08
2.64038e-08
3.36869e-08
3.6799e-08
3.43567e-08
2.75489e-08
1.90352e-08
1.11063e-08
3.52368e-09
1.0315e-08
2.07507e-08
3.29142e-08
4.30175e-08
4.68833e-08
4.30733e-08
3.3371e-08
2.20269e-08
1.25589e-08
2.79227e-09
9.71489e-09
2.08756e-08
3.3329e-08
4.24786e-08
4.53703e-08
4.11137e-08
3.1383e-08
2.00934e-08
1.07003e-08
2.33054e-09
8.16908e-09
1.82944e-08
2.90843e-08
3.63222e-08
3.75802e-08
3.34552e-08
2.58314e-08
1.6861e-08
8.66555e-09
2.97978e-09
8.46168e-09
1.71567e-08
2.65403e-08
3.27743e-08
3.35431e-08
2.93832e-08
2.25887e-08
1.5007e-08
7.54761e-09
8.58529e-09
1.70519e-08
2.74554e-08
3.74667e-08
4.34883e-08
4.31736e-08
3.68968e-08
2.70514e-08
1.65789e-08
7.10819e-09
1.81895e-08
3.13346e-08
4.55725e-08
5.73632e-08
6.2657e-08
5.9207e-08
4.76286e-08
3.24849e-08
1.7296e-08
6.57637e-09
2.00158e-08
3.56225e-08
5.33248e-08
6.76208e-08
7.32292e-08
6.86259e-08
5.61989e-08
4.02522e-08
2.52391e-08
1.39943e-08
1.71108e-08
3.28816e-08
5.20983e-08
6.93018e-08
7.87498e-08
7.7438e-08
6.64828e-08
5.01335e-08
3.32776e-08
1.91399e-08
1.86817e-08
3.36147e-08
5.16163e-08
6.77934e-08
7.73053e-08
7.77932e-08
6.96418e-08
5.50636e-08
3.7492e-08
2.13213e-08
2.53254e-08
4.24606e-08
6.22148e-08
7.82658e-08
8.49889e-08
8.14985e-08
7.03529e-08
5.46273e-08
3.66684e-08
2.03365e-08
2.946e-08
4.88186e-08
6.97439e-08
8.66214e-08
9.43615e-08
9.06304e-08
7.75601e-08
5.8843e-08
3.81433e-08
2.01272e-08
1.80361e-08
3.36688e-08
5.2267e-08
6.86188e-08
7.74704e-08
7.58641e-08
6.47747e-08
4.76497e-08
2.91491e-08
1.37293e-08
5.1905e-09
1.45673e-08
2.78106e-08
4.09586e-08
4.8952e-08
4.86188e-08
4.05112e-08
2.80072e-08
1.53446e-08
6.08367e-09
1.22082e-09
6.30333e-09
1.71037e-08
2.80939e-08
3.61067e-08
3.74008e-08
3.09426e-08
2.05902e-08
1.03944e-08
3.69124e-09
1.7899e-09
5.17883e-09
1.21378e-08
1.96387e-08
2.49829e-08
2.61708e-08
2.26476e-08
1.579e-08
8.33992e-09
2.92298e-09
2.89676e-09
5.73085e-09
1.02934e-08
1.31049e-08
1.42138e-08
1.44539e-08
1.36737e-08
1.14218e-08
8.34619e-09
3.78382e-09
8.88074e-10
2.21134e-09
5.14845e-09
7.45631e-09
8.83244e-09
9.54513e-09
9.9433e-09
9.32892e-09
7.53213e-09
3.61251e-09
1.26298e-09
2.37439e-09
4.93284e-09
8.40516e-09
1.1781e-08
1.42892e-08
1.50362e-08
1.31883e-08
1.0381e-08
7.55763e-09
1.04464e-08
1.29676e-08
1.67606e-08
2.33027e-08
3.11701e-08
3.68895e-08
3.79918e-08
3.42185e-08
2.63533e-08
1.81094e-08
2.93902e-08
4.63678e-08
6.00474e-08
6.75199e-08
7.01351e-08
6.87467e-08
6.23535e-08
5.01014e-08
3.46251e-08
2.01433e-08
4.49363e-08
8.157e-08
1.17734e-07
1.37734e-07
1.33061e-07
1.13053e-07
8.72605e-08
5.69718e-08
3.02786e-08
1.37381e-08
4.59509e-08
9.04309e-08
1.27368e-07
1.49357e-07
1.52872e-07
1.4056e-07
1.16317e-07
7.82938e-08
3.5744e-08
9.03624e-09
2.62693e-08
3.70129e-08
5.07538e-08
7.37191e-08
8.66369e-08
8.10093e-08
7.02024e-08
5.96711e-08
3.25896e-08
5.28647e-09
3.16347e-08
7.44218e-08
9.37083e-08
9.44802e-08
8.96196e-08
8.55284e-08
7.97927e-08
6.70561e-08
4.36737e-08
2.23937e-08
9.82117e-08
1.61122e-07
2.16719e-07
2.64321e-07
2.76445e-07
2.41091e-07
1.73062e-07
1.05058e-07
5.72514e-08
3.32451e-08
1.11196e-07
1.79429e-07
2.39377e-07
3.08671e-07
3.71674e-07
3.84076e-07
3.30059e-07
2.33612e-07
1.24879e-07
4.66466e-08
5.08064e-08
1.05919e-07
1.51788e-07
1.15271e-07
3.54125e-08
1.18762e-07
2.86882e-07
3.48799e-07
2.48025e-07
1.03712e-07
7.63102e-09
1.78501e-08
4.92787e-08
1.1577e-07
1.8245e-07
1.39713e-07
3.24773e-08
5.04827e-08
1.14457e-07
1.12347e-07
1.12491e-09
3.50407e-09
1.51568e-08
3.49202e-08
9.0206e-08
1.60308e-07
1.5958e-07
9.8621e-08
4.07868e-08
9.74816e-09
9.09663e-08
9.42736e-08
7.51454e-08
7.90324e-08
1.1779e-07
1.75095e-07
2.09416e-07
1.95294e-07
1.40531e-07
8.06021e-08
2.76469e-07
3.21439e-07
3.51808e-07
3.6868e-07
3.68936e-07
3.01287e-07
2.03767e-07
1.51734e-07
1.4231e-07
1.48257e-07
1.44023e-07
1.53858e-07
1.24542e-07
1.08059e-07
1.73349e-07
3.78061e-07
4.59642e-07
4.80517e-07
8.90645e-07
1.13474e-06
2.50134e-08
8.02747e-08
1.74589e-07
3.33251e-07
5.3385e-07
5.97239e-07
5.43007e-07
5.17627e-07
1.09994e-06
1.03447e-06
1.53669e-07
3.20785e-07
4.1944e-07
4.56282e-07
5.18592e-07
1.41158e-07
7.13013e-07
1.42875e-06
6.58203e-07
1.74089e-07
9.36774e-07
8.24115e-07
1.52965e-06
2.01418e-06
1.76558e-06
1.46891e-06
1.53691e-06
1.74317e-06
1.86153e-06
1.67275e-06
1.83575e-07
5.39883e-07
1.01088e-06
1.10266e-06
9.21146e-07
9.0625e-07
9.3225e-07
9.89947e-07
9.47644e-07
8.01474e-07
2.74177e-07
3.47897e-07
2.99582e-07
1.71086e-07
8.63318e-08
8.75797e-08
9.85626e-08
1.07322e-07
9.91162e-08
1.00746e-07
1.56982e-06
1.99607e-06
2.35363e-06
2.49467e-06
2.32003e-06
2.18792e-06
2.06379e-06
1.78626e-06
1.41166e-06
9.98611e-07
2.64935e-06
4.04136e-06
5.63687e-06
7.05416e-06
7.39402e-06
6.9212e-06
6.39464e-06
5.4306e-06
4.20725e-06
2.8276e-06
2.10232e-06
3.89788e-06
6.74854e-06
9.36152e-06
9.77913e-06
9.92435e-06
1.05545e-05
9.48555e-06
6.70711e-06
4.1268e-06
2.72204e-09
3.82098e-09
4.95276e-09
5.85252e-09
6.32585e-09
6.28504e-09
5.75222e-09
4.8492e-09
3.75147e-09
2.69885e-09
6.10078e-10
6.50935e-10
7.56987e-10
8.96739e-10
1.03744e-09
1.16172e-09
1.24819e-09
1.28307e-09
1.26395e-09
1.19136e-09
7.09719e-11
8.83588e-11
2.07146e-10
3.00893e-10
2.88304e-10
2.00924e-10
1.03697e-10
1.27314e-10
3.30033e-10
6.03735e-10
1.50967e-10
1.13358e-10
3.17903e-10
5.07638e-10
4.6337e-10
2.42328e-10
7.26428e-11
6.12753e-11
4.03217e-10
9.10343e-10
4.48667e-11
3.5331e-10
1.19356e-09
1.84013e-09
1.95003e-09
1.51654e-09
8.72318e-10
3.57992e-10
2.31467e-10
7.44525e-10
8.07038e-10
1.96829e-09
3.53667e-09
4.84608e-09
5.24438e-09
4.5269e-09
3.06851e-09
1.54361e-09
5.65838e-10
4.15999e-10
3.60383e-09
4.93898e-09
6.8952e-09
8.54518e-09
9.2003e-09
8.38114e-09
6.29312e-09
3.65686e-09
1.44838e-09
3.14753e-10
7.33521e-09
1.11953e-08
1.43524e-08
1.6185e-08
1.62577e-08
1.4375e-08
1.19409e-08
8.59002e-09
4.91915e-09
2.0706e-09
8.70218e-09
1.54175e-08
2.16817e-08
2.5885e-08
2.75547e-08
2.61601e-08
2.1902e-08
1.57142e-08
9.19681e-09
4.1681e-09
9.60676e-09
1.7389e-08
2.6052e-08
3.29715e-08
3.60102e-08
3.42168e-08
2.83178e-08
1.9788e-08
1.10216e-08
4.37225e-09
1.0325e-08
1.87449e-08
2.83018e-08
3.60542e-08
3.93198e-08
3.68793e-08
3.00952e-08
2.03805e-08
1.05777e-08
3.68099e-09
1.00134e-08
1.86088e-08
2.83774e-08
3.64596e-08
3.97018e-08
3.66019e-08
2.8933e-08
1.83306e-08
8.91367e-09
2.66558e-09
9.29226e-09
1.7805e-08
2.81841e-08
3.70903e-08
4.09147e-08
3.8324e-08
2.97677e-08
1.85444e-08
8.63719e-09
2.50005e-09
1.06093e-08
2.16181e-08
3.44049e-08
4.50885e-08
4.96756e-08
4.68358e-08
3.74718e-08
2.42206e-08
1.20378e-08
3.75759e-09
1.53403e-08
3.04415e-08
4.70884e-08
6.05817e-08
6.71282e-08
6.51349e-08
5.46111e-08
3.89784e-08
2.28285e-08
1.02343e-08
1.84046e-08
3.58979e-08
5.56329e-08
7.25317e-08
8.19849e-08
8.1431e-08
7.09525e-08
5.41441e-08
3.55433e-08
1.94228e-08
1.29745e-08
2.77188e-08
4.6354e-08
6.39377e-08
7.57204e-08
7.82122e-08
7.05549e-08
5.5268e-08
3.69712e-08
2.05034e-08
6.245e-09
1.83158e-08
3.65019e-08
5.4892e-08
6.79121e-08
7.14746e-08
6.44709e-08
4.93632e-08
3.17272e-08
1.67932e-08
1.03004e-08
2.38249e-08
4.22076e-08
6.05409e-08
7.35681e-08
7.75514e-08
7.1072e-08
5.57209e-08
3.65829e-08
1.97584e-08
2.45908e-08
4.43867e-08
6.72356e-08
8.70501e-08
1.00416e-07
1.0476e-07
9.6186e-08
7.56732e-08
4.9883e-08
2.76099e-08
2.99682e-08
5.32843e-08
7.94744e-08
1.03419e-07
1.21244e-07
1.26864e-07
1.15515e-07
9.0018e-08
5.91101e-08
3.25092e-08
1.83598e-08
3.51248e-08
5.55166e-08
7.49765e-08
8.81547e-08
8.98318e-08
7.98135e-08
6.12431e-08
3.90638e-08
1.96602e-08
1.11013e-08
2.14872e-08
3.49402e-08
4.74928e-08
5.51456e-08
5.41974e-08
4.48397e-08
3.09076e-08
1.69691e-08
6.03773e-09
1.29851e-08
2.28568e-08
3.28666e-08
4.2295e-08
4.56385e-08
4.09137e-08
3.17998e-08
2.04946e-08
9.42546e-09
2.38904e-09
1.39558e-08
1.97793e-08
2.4482e-08
3.05555e-08
3.44874e-08
3.09739e-08
2.12659e-08
1.2252e-08
5.9506e-09
3.10276e-09
9.63118e-09
1.54499e-08
2.37871e-08
3.21608e-08
3.72243e-08
3.4348e-08
2.4106e-08
1.28024e-08
5.86987e-09
3.7404e-09
1.56378e-08
2.80503e-08
4.36759e-08
5.86635e-08
6.57791e-08
5.99073e-08
4.30351e-08
2.32931e-08
8.29367e-09
1.35126e-09
1.83683e-08
3.38398e-08
5.5115e-08
7.64121e-08
8.80781e-08
8.46092e-08
6.67047e-08
4.19858e-08
1.92347e-08
4.57739e-09
2.29544e-08
4.31521e-08
6.95371e-08
9.54013e-08
1.1208e-07
1.12741e-07
9.6351e-08
6.91969e-08
4.059e-08
1.7311e-08
2.88166e-08
5.12637e-08
7.7328e-08
1.00664e-07
1.14826e-07
1.13098e-07
9.7612e-08
7.40232e-08
4.91883e-08
2.75431e-08
2.91273e-08
6.1141e-08
9.76412e-08
1.2798e-07
1.41882e-07
1.369e-07
1.17409e-07
9.035e-08
6.47222e-08
3.92202e-08
2.08277e-08
5.03028e-08
8.91142e-08
1.31158e-07
1.64764e-07
1.7327e-07
1.53447e-07
1.149e-07
7.34048e-08
4.13303e-08
3.68691e-08
4.87869e-08
6.39303e-08
8.45098e-08
1.0168e-07
9.41549e-08
6.84879e-08
4.85453e-08
3.62823e-08
2.84961e-08
2.41626e-08
3.52386e-08
4.69058e-08
5.66437e-08
6.41103e-08
9.41386e-08
1.0041e-07
7.12305e-08
4.1507e-08
2.60183e-08
1.39635e-08
1.8293e-08
4.1915e-08
8.50958e-08
1.50258e-07
1.93271e-07
2.06086e-07
1.86476e-07
1.47873e-07
9.79692e-08
3.61774e-09
1.72133e-08
4.60166e-08
1.10553e-07
2.05569e-07
2.7913e-07
2.87462e-07
2.45116e-07
1.80027e-07
1.11772e-07
1.12038e-09
7.39208e-09
2.67762e-08
5.99542e-08
9.06536e-08
9.76663e-08
9.10455e-08
8.49278e-08
7.33954e-08
4.72427e-08
3.71176e-09
3.66159e-09
4.20122e-09
4.10648e-09
4.24601e-09
2.24747e-09
8.77028e-10
2.52745e-09
6.43809e-09
6.72687e-09
2.09131e-09
5.8742e-09
1.63873e-08
2.52529e-08
1.77452e-08
4.00889e-09
3.27982e-09
8.78225e-09
4.71483e-09
1.46392e-09
2.14199e-08
3.50701e-08
6.09325e-08
9.48683e-08
9.84259e-08
7.33905e-08
5.69798e-08
5.58161e-08
6.54615e-08
7.14343e-08
8.41837e-08
1.09144e-07
1.59133e-07
2.54403e-07
3.43942e-07
3.98345e-07
4.13489e-07
3.95983e-07
3.54585e-07
2.97266e-07
1.21861e-07
1.74234e-07
2.2493e-07
2.8253e-07
3.20245e-07
3.21903e-07
2.92024e-07
2.54871e-07
1.97162e-07
1.52301e-07
4.83149e-08
2.92058e-08
1.35058e-08
5.57577e-09
2.38066e-09
3.36538e-09
9.32519e-09
1.9685e-08
2.79889e-08
2.48637e-08
1.41789e-07
3.0972e-07
3.78036e-07
3.20174e-07
1.97814e-07
9.77145e-08
8.53569e-08
1.25264e-07
1.98875e-07
1.41977e-07
4.18476e-07
6.32667e-07
8.48057e-07
1.20458e-06
1.62919e-06
1.72121e-06
1.30784e-06
9.18865e-07
6.75352e-07
5.74338e-07
2.59405e-07
5.33869e-07
1.06509e-06
1.53417e-06
1.59337e-06
7.88777e-07
1.52364e-07
1.29945e-07
1.15404e-07
1.71118e-07
5.90197e-08
1.89826e-07
5.03408e-07
4.478e-07
4.08277e-07
8.87403e-07
8.00047e-07
5.37634e-07
5.45295e-07
4.39706e-07
4.42071e-07
8.88909e-07
1.67049e-06
2.24573e-06
1.90049e-06
2.22514e-06
2.29519e-06
1.85767e-06
2.04178e-06
1.79676e-06
2.15598e-06
3.78225e-06
5.42341e-06
6.55656e-06
6.43961e-06
6.48042e-06
5.36276e-06
3.81344e-06
3.24274e-06
2.42722e-06
3.25205e-06
5.86153e-06
8.11226e-06
8.93579e-06
7.76589e-06
6.05657e-06
4.12936e-06
3.21644e-06
2.0354e-06
1.39179e-06
2.73789e-09
3.78384e-09
4.86504e-09
5.74041e-09
6.23576e-09
6.25224e-09
5.78069e-09
4.90609e-09
3.80166e-09
2.72568e-09
8.54473e-10
9.63502e-10
1.08995e-09
1.18982e-09
1.24696e-09
1.25618e-09
1.20505e-09
1.08186e-09
8.94323e-10
7.08475e-10
1.93182e-11
8.90185e-11
1.91995e-10
2.74655e-10
2.92458e-10
2.5132e-10
1.78989e-10
1.14503e-10
9.79514e-11
1.20322e-10
2.32958e-10
6.96859e-10
1.18027e-09
1.46856e-09
1.39294e-09
1.06787e-09
6.75451e-10
3.76976e-10
2.61039e-10
2.56681e-10
9.60542e-10
2.10019e-09
3.22588e-09
3.96628e-09
3.89531e-09
3.12022e-09
2.01306e-09
1.00482e-09
4.07583e-10
1.07596e-10
1.5548e-09
3.4423e-09
5.70608e-09
7.58611e-09
8.98351e-09
9.20574e-09
8.02139e-09
5.84631e-09
3.38428e-09
1.26747e-09
2.04292e-09
5.28097e-09
1.00931e-08
1.55503e-08
1.99003e-08
2.18756e-08
2.06955e-08
1.65682e-08
1.0787e-08
5.23454e-09
3.5036e-09
8.47605e-09
1.5627e-08
2.33469e-08
2.92439e-08
3.12233e-08
2.85916e-08
2.24506e-08
1.48985e-08
8.09241e-09
4.56303e-09
1.07287e-08
1.88049e-08
2.66084e-08
3.21274e-08
3.34065e-08
2.99944e-08
2.3337e-08
1.55226e-08
8.60564e-09
4.67763e-09
1.16898e-08
2.05076e-08
2.85674e-08
3.36995e-08
3.45396e-08
3.11303e-08
2.45278e-08
1.66489e-08
9.41705e-09
4.8833e-09
1.24944e-08
2.24105e-08
3.12669e-08
3.67849e-08
3.80714e-08
3.46212e-08
2.75134e-08
1.86777e-08
1.04125e-08
5.20452e-09
1.30411e-08
2.35797e-08
3.34247e-08
4.03053e-08
4.19086e-08
3.80664e-08
2.98695e-08
1.96052e-08
1.03917e-08
5.82987e-09
1.42218e-08
2.53129e-08
3.59126e-08
4.28651e-08
4.44132e-08
3.95383e-08
2.99401e-08
1.88258e-08
9.58035e-09
7.37517e-09
1.73328e-08
3.02429e-08
4.29966e-08
5.10529e-08
5.12621e-08
4.37117e-08
3.17145e-08
1.94804e-08
9.91077e-09
1.04001e-08
2.32157e-08
4.00751e-08
5.67961e-08
6.71565e-08
6.69881e-08
5.66332e-08
4.07933e-08
2.52159e-08
1.34473e-08
1.41794e-08
2.92347e-08
4.84829e-08
6.71646e-08
7.90013e-08
7.95433e-08
6.84922e-08
5.0296e-08
3.13903e-08
1.66117e-08
1.50249e-08
2.86865e-08
4.44926e-08
5.85271e-08
6.69713e-08
6.70315e-08
5.80845e-08
4.22605e-08
2.5353e-08
1.17988e-08
1.37717e-08
2.56779e-08
3.89651e-08
5.00718e-08
5.596e-08
5.48432e-08
4.67282e-08
3.30545e-08
1.79049e-08
6.30408e-09
1.51698e-08
2.72181e-08
4.05425e-08
5.1615e-08
5.73817e-08
5.61523e-08
4.78953e-08
3.47021e-08
2.04591e-08
9.61998e-09
1.89238e-08
3.37132e-08
5.08912e-08
6.6234e-08
7.6073e-08
7.77126e-08
7.04186e-08
5.61759e-08
3.89617e-08
2.34288e-08
2.28562e-08
4.30717e-08
6.69907e-08
8.79723e-08
1.00722e-07
1.01514e-07
9.05061e-08
7.10451e-08
4.85387e-08
2.861e-08
1.1226e-08
2.59616e-08
4.40376e-08
6.00664e-08
6.98023e-08
7.04733e-08
6.23491e-08
4.77879e-08
3.12573e-08
1.70183e-08
1.91676e-09
7.92674e-09
1.68677e-08
2.73409e-08
3.63867e-08
4.16128e-08
4.02906e-08
3.28583e-08
2.20146e-08
1.11296e-08
1.65879e-10
3.97497e-09
1.36282e-08
2.9354e-08
4.57886e-08
5.80739e-08
6.16589e-08
5.32273e-08
3.56274e-08
1.6044e-08
2.26231e-09
1.03028e-08
2.5513e-08
4.72704e-08
7.08854e-08
8.77607e-08
8.90292e-08
7.24271e-08
4.57447e-08
2.03942e-08
2.56871e-08
4.54761e-08
7.05313e-08
9.7687e-08
1.16715e-07
1.18896e-07
1.01605e-07
7.12993e-08
3.97508e-08
1.64638e-08
4.62187e-08
8.26524e-08
1.18249e-07
1.4555e-07
1.56602e-07
1.4785e-07
1.20155e-07
8.2616e-08
4.68655e-08
2.10082e-08
5.6862e-08
9.57195e-08
1.30031e-07
1.53139e-07
1.60056e-07
1.47363e-07
1.18731e-07
8.18937e-08
4.79559e-08
2.25742e-08
5.53023e-08
8.88381e-08
1.24022e-07
1.48676e-07
1.56582e-07
1.45144e-07
1.1799e-07
8.22239e-08
4.82334e-08
2.33702e-08
9.35194e-08
1.3767e-07
1.73885e-07
1.84916e-07
1.75274e-07
1.52047e-07
1.20705e-07
8.65474e-08
5.52651e-08
2.83437e-08
1.44735e-07
2.23925e-07
2.69874e-07
2.6102e-07
2.17799e-07
1.64305e-07
1.13261e-07
7.12142e-08
4.38184e-08
2.5284e-08
1.51259e-07
2.26234e-07
2.46656e-07
2.11048e-07
1.57955e-07
1.12039e-07
7.67342e-08
5.19338e-08
3.23497e-08
1.836e-08
9.03832e-08
1.21642e-07
1.21208e-07
1.0332e-07
9.50878e-08
1.01047e-07
1.13067e-07
1.11404e-07
8.46228e-08
4.81574e-08
1.17767e-08
2.63613e-08
4.69694e-08
7.0985e-08
1.13518e-07
1.67297e-07
1.76221e-07
1.21786e-07
5.81561e-08
2.54776e-08
1.19602e-08
5.67163e-08
1.46149e-07
2.44616e-07
2.65945e-07
1.93725e-07
8.45637e-08
2.3756e-08
2.84782e-08
2.40004e-08
5.59607e-08
1.14425e-07
1.68511e-07
1.83859e-07
1.23286e-07
3.85659e-08
1.02459e-08
4.55494e-08
4.68929e-08
1.8931e-08
5.03157e-08
8.07553e-08
9.7289e-08
8.11258e-08
3.90533e-08
9.76601e-09
2.2291e-08
3.73652e-08
2.59658e-08
8.92995e-09
2.01032e-08
1.93602e-08
2.3563e-08
2.54405e-08
1.53668e-08
2.90736e-09
6.19611e-09
1.01952e-08
6.57808e-09
3.72439e-09
1.14992e-07
1.38268e-07
1.01656e-07
4.33936e-08
6.28569e-09
2.4334e-09
6.46922e-09
6.11101e-09
3.26144e-09
1.02846e-09
1.50476e-07
3.31574e-07
4.67002e-07
4.60599e-07
3.13787e-07
1.42991e-07
5.08418e-08
2.41716e-08
2.33071e-08
2.17313e-08
2.55161e-08
3.04106e-08
1.27892e-07
3.46491e-07
4.97092e-07
4.01333e-07
2.24708e-07
1.01745e-07
5.12378e-08
5.70801e-08
9.28622e-09
2.36432e-08
3.38651e-08
1.72576e-08
3.25085e-08
5.11403e-08
5.88068e-08
6.67324e-08
7.6734e-08
8.74788e-08
9.27375e-08
1.33823e-07
1.46441e-07
1.70201e-07
2.33209e-07
3.04554e-07
2.78677e-07
1.99479e-07
1.30328e-07
7.10127e-08
1.53047e-08
1.31505e-08
1.52031e-08
5.44129e-08
1.43105e-07
1.52645e-07
1.55889e-08
4.47993e-08
5.14243e-08
5.59558e-08
3.20921e-08
2.10616e-07
5.17683e-07
7.55925e-07
1.77412e-06
2.38181e-06
9.92472e-07
3.3187e-07
4.55431e-07
3.40805e-07
2.26344e-06
4.60229e-06
7.29603e-06
8.2804e-06
9.21184e-06
1.0852e-05
7.26346e-06
2.3025e-06
4.36292e-07
1.26394e-07
5.32193e-06
8.69206e-06
1.11062e-05
1.21053e-05
1.2672e-05
1.38936e-05
1.3677e-05
7.29064e-06
1.25848e-06
3.97189e-08
2.4354e-06
3.64877e-06
4.22877e-06
4.71375e-06
5.63587e-06
7.19926e-06
9.08712e-06
6.90644e-06
2.0796e-06
2.81228e-07
5.40288e-07
1.38511e-06
2.85581e-06
4.91514e-06
8.30706e-06
1.08037e-05
7.66127e-06
3.52078e-06
1.73024e-06
1.41657e-06
1.52821e-07
1.65044e-06
5.41413e-06
8.13452e-06
5.68506e-06
2.82453e-06
1.97397e-06
2.64467e-06
3.18799e-06
2.77882e-06
2.71056e-09
3.72015e-09
4.75554e-09
5.59086e-09
6.06557e-09
6.0836e-09
5.64013e-09
4.81574e-09
3.77248e-09
2.73914e-09
9.66654e-10
1.04946e-09
1.12003e-09
1.14832e-09
1.15267e-09
1.14195e-09
1.11346e-09
1.05215e-09
9.54557e-10
8.63612e-10
2.14747e-10
7.83322e-11
5.76823e-11
1.29221e-10
2.00594e-10
2.13711e-10
1.68502e-10
9.20836e-11
2.48495e-11
2.67148e-11
4.06337e-10
2.01648e-10
1.37936e-10
2.81205e-10
4.70126e-10
6.56864e-10
7.07517e-10
5.69381e-10
3.54824e-10
1.51118e-10
2.99679e-10
4.93935e-10
1.06481e-09
2.11778e-09
3.2272e-09
3.86773e-09
3.84339e-09
3.16818e-09
2.02224e-09
9.46534e-10
4.9865e-10
1.8385e-09
3.99722e-09
6.63448e-09
8.81639e-09
9.71201e-09
8.97519e-09
6.84253e-09
4.0451e-09
1.78071e-09
1.14016e-09
4.08482e-09
8.56896e-09
1.31761e-08
1.61273e-08
1.6358e-08
1.38524e-08
9.63901e-09
5.30678e-09
2.06588e-09
2.16686e-09
5.8436e-09
1.15697e-08
1.81955e-08
2.20389e-08
2.187e-08
1.8191e-08
1.26049e-08
7.2612e-09
3.17346e-09
5.94843e-09
1.09587e-08
1.6801e-08
2.20764e-08
2.49446e-08
2.41476e-08
1.98557e-08
1.38926e-08
8.24857e-09
3.85924e-09
1.08588e-08
1.81731e-08
2.55928e-08
3.09463e-08
3.18763e-08
2.85396e-08
2.26033e-08
1.53927e-08
8.69302e-09
3.86503e-09
1.29059e-08
2.28665e-08
3.30008e-08
4.04577e-08
4.19442e-08
3.65859e-08
2.80711e-08
1.82417e-08
9.94925e-09
4.20397e-09
1.13413e-08
2.1851e-08
3.34596e-08
4.30189e-08
4.73002e-08
4.42629e-08
3.4595e-08
2.24856e-08
1.19033e-08
4.95069e-09
9.38752e-09
2.01487e-08
3.30479e-08
4.32126e-08
4.74986e-08
4.48404e-08
3.61314e-08
2.46179e-08
1.34056e-08
5.6005e-09
8.25487e-09
1.95361e-08
3.41681e-08
4.62328e-08
5.09767e-08
4.78015e-08
3.87237e-08
2.6757e-08
1.52397e-08
6.78453e-09
6.41474e-09
1.73114e-08
3.45446e-08
5.05671e-08
5.72674e-08
5.40029e-08
4.38966e-08
3.10326e-08
1.88639e-08
9.2353e-09
6.67292e-09
1.90014e-08
3.61991e-08
5.31546e-08
6.24263e-08
6.03266e-08
5.0119e-08
3.65924e-08
2.35585e-08
1.2555e-08
1.46943e-08
2.75084e-08
4.20977e-08
5.44483e-08
6.05229e-08
5.853e-08
4.95266e-08
3.67243e-08
2.40913e-08
1.34961e-08
1.9197e-08
3.28076e-08
4.8372e-08
6.12033e-08
6.60558e-08
6.14309e-08
5.07165e-08
3.81896e-08
2.47598e-08
1.33754e-08
2.04531e-08
3.48127e-08
5.16949e-08
6.60348e-08
7.27604e-08
7.03682e-08
5.96724e-08
4.48614e-08
2.91607e-08
1.58246e-08
1.94911e-08
3.43894e-08
5.20392e-08
6.6871e-08
7.46621e-08
7.46093e-08
6.68371e-08
5.22322e-08
3.45743e-08
1.90149e-08
1.91897e-08
3.49233e-08
5.2801e-08
6.66848e-08
7.36271e-08
7.4088e-08
6.88103e-08
5.61431e-08
3.81016e-08
2.11703e-08
1.305e-08
2.67584e-08
4.16971e-08
5.22636e-08
5.49764e-08
5.13907e-08
4.50935e-08
3.55409e-08
2.28037e-08
1.04407e-08
6.31639e-09
1.55081e-08
2.52375e-08
3.20627e-08
3.3382e-08
2.95489e-08
2.28977e-08
1.52033e-08
7.86072e-09
2.20331e-09
4.62671e-09
1.42049e-08
2.63872e-08
3.72727e-08
4.27204e-08
4.06602e-08
3.06282e-08
2.05755e-08
8.18854e-09
1.08451e-09
5.97338e-09
1.80573e-08
3.08716e-08
4.08579e-08
4.70897e-08
4.30687e-08
3.14601e-08
1.82828e-08
8.09862e-09
2.26197e-09
4.59144e-09
1.27765e-08
2.24495e-08
3.14573e-08
3.61043e-08
3.57003e-08
3.21422e-08
2.8705e-08
2.66644e-08
2.27183e-08
5.7859e-09
1.8197e-08
3.78091e-08
6.44241e-08
8.69926e-08
9.39698e-08
8.44602e-08
6.88432e-08
5.44563e-08
3.97282e-08
1.60039e-08
4.3189e-08
8.27284e-08
1.28131e-07
1.57436e-07
1.59184e-07
1.3614e-07
1.01827e-07
7.29354e-08
4.95731e-08
3.0817e-08
6.3893e-08
1.00698e-07
1.34218e-07
1.51304e-07
1.55532e-07
1.44382e-07
1.17076e-07
8.50649e-08
5.43632e-08
2.88562e-08
6.18914e-08
9.76771e-08
1.28026e-07
1.45794e-07
1.54644e-07
1.54524e-07
1.40929e-07
1.17278e-07
8.42487e-08
1.59042e-08
4.3409e-08
8.20614e-08
1.22829e-07
1.53062e-07
1.67002e-07
1.66684e-07
1.61206e-07
1.47745e-07
1.15659e-07
6.38193e-09
2.27596e-08
6.13074e-08
1.1715e-07
1.66017e-07
1.89179e-07
1.82344e-07
1.6081e-07
1.42628e-07
1.1883e-07
3.96766e-10
5.7054e-09
2.90214e-08
7.84072e-08
1.33155e-07
1.63135e-07
1.6018e-07
1.35677e-07
1.07825e-07
8.10567e-08
1.8069e-08
3.16148e-08
6.22455e-08
1.10436e-07
1.44796e-07
1.48014e-07
1.27087e-07
9.36258e-08
5.37472e-08
2.34447e-08
3.92684e-08
7.34426e-08
1.19976e-07
1.62786e-07
1.72131e-07
1.44557e-07
9.21115e-08
4.33981e-08
1.67924e-08
6.42026e-09
2.55401e-08
4.84063e-08
9.98203e-08
1.28098e-07
1.42928e-07
1.36657e-07
1.12609e-07
8.45093e-08
6.3468e-08
4.31563e-08
5.1034e-08
3.71065e-08
2.90106e-08
1.99714e-08
9.83471e-09
1.06046e-08
1.94104e-08
2.52225e-08
2.82566e-08
3.00469e-08
1.402e-07
2.13486e-07
2.32901e-07
1.95853e-07
1.36985e-07
9.00299e-08
6.02438e-08
3.78569e-08
2.24969e-08
1.63302e-08
6.19498e-09
4.54699e-08
1.09124e-07
1.91045e-07
2.68757e-07
3.06355e-07
2.80999e-07
2.11564e-07
1.50398e-07
9.55796e-08
5.8777e-08
6.08198e-08
5.84922e-08
5.27248e-08
4.08105e-08
2.62595e-08
1.90936e-08
2.26686e-08
5.12437e-08
6.70973e-08
1.7518e-07
1.83727e-07
1.51717e-07
9.36805e-08
4.06001e-08
2.31745e-08
4.41789e-08
8.67384e-08
9.05981e-08
5.75878e-08
1.20073e-06
1.42399e-06
1.57508e-06
1.37449e-06
8.97174e-07
7.29655e-07
6.7636e-07
3.41538e-07
1.04571e-07
1.67662e-08
6.59595e-07
1.31209e-06
2.0157e-06
1.5946e-06
5.83065e-07
6.57637e-07
7.40815e-07
4.03079e-07
2.49358e-07
1.43654e-07
9.48279e-07
1.92661e-06
2.01267e-06
1.20419e-06
5.09685e-07
6.26331e-07
4.69927e-07
2.47142e-07
1.53931e-07
3.66828e-08
1.88523e-06
2.7075e-06
3.21203e-06
2.59592e-06
2.25553e-06
2.42374e-06
1.54481e-06
7.48288e-07
2.75608e-07
5.9802e-08
9.21412e-07
1.44744e-06
1.75578e-06
1.12083e-06
5.73219e-07
1.75698e-07
3.03847e-07
1.19922e-06
1.75611e-06
1.90281e-06
1.79331e-07
3.90094e-07
5.4318e-07
2.84939e-07
2.442e-07
1.41984e-06
3.08119e-06
4.35045e-06
5.32792e-06
5.16212e-06
1.08065e-06
1.41394e-06
1.44021e-06
1.21807e-06
9.48496e-07
2.27736e-07
9.19867e-07
2.6366e-06
3.34883e-06
2.75851e-06
2.55991e-06
3.52843e-06
4.72265e-06
5.05033e-06
4.02092e-06
2.20091e-06
1.03991e-06
7.59162e-07
6.92969e-07
4.13307e-07
3.89236e-06
4.8295e-06
4.73639e-06
3.94812e-06
2.85462e-06
1.71289e-06
1.177e-06
1.08361e-06
6.91311e-07
1.76187e-07
)
;
    }
    inlet
    {
        type            calculated;
        value           uniform 0;
    }
    outlet
    {
        type            calculated;
        value           uniform 0;
    }
}


// ************************************************************************* //
