/*--------------------------------*- C++ -*----------------------------------*\
| =========                 |                                                 |
| \\      /  F ield         | OpenFOAM: The Open Source CFD Toolbox           |
|  \\    /   O peration     | Version:  2406                                  |
|   \\  /    A nd           | Website:  www.openfoam.com                      |
|    \\/     M anipulation  |                                                 |
\*---------------------------------------------------------------------------*/
FoamFile
{
    version     2.0;
    format      ascii;
    arch        "LSB;label=32;scalar=64";
    class       volScalarField;
    location    "0.3";
    object      p;
}
// * * * * * * * * * * * * * * * * * * * * * * * * * * * * * * * * * * * * * //

dimensions      [0 2 -2 0 0 0 0];

internalField   nonuniform List<scalar> 
25000
(
-77.3838
-77.369
-77.3427
-77.3197
-77.3021
-77.2918
-77.2891
-77.2887
-77.289
-77.2975
-77.3633
-77.3521
-77.3242
-77.2952
-77.2729
-77.2603
-77.257
-77.2583
-77.2585
-77.2578
-77.3324
-77.3173
-77.286
-77.2528
-77.2267
-77.2119
-77.2083
-77.2107
-77.2113
-77.2074
-77.3053
-77.2816
-77.2452
-77.208
-77.1791
-77.1627
-77.1592
-77.1634
-77.167
-77.1673
-77.2838
-77.2528
-77.2111
-77.1707
-77.14
-77.1231
-77.1203
-77.1264
-77.1333
-77.1379
-77.267
-77.2308
-77.1854
-77.143
-77.1118
-77.0955
-77.0939
-77.1017
-77.1107
-77.1172
-77.2521
-77.2132
-77.1659
-77.1234
-77.0934
-77.0789
-77.079
-77.088
-77.0977
-77.1042
-77.2348
-77.1956
-77.1487
-77.1083
-77.0816
-77.0701
-77.072
-77.082
-77.0915
-77.0957
-77.2153
-77.1743
-77.1291
-77.0936
-77.0721
-77.0644
-77.0684
-77.0792
-77.0896
-77.0942
-77.1926
-77.1472
-77.1066
-77.0798
-77.0647
-77.0611
-77.0666
-77.0774
-77.0916
-77.1041
-76.8323
-76.7644
-76.6969
-76.6397
-76.5963
-76.5714
-76.5665
-76.5774
-76.6017
-76.6615
-76.735
-76.6665
-76.5963
-76.533
-76.4851
-76.4588
-76.4569
-76.4755
-76.509
-76.5677
-76.6608
-76.5821
-76.504
-76.4334
-76.3806
-76.3532
-76.3541
-76.3798
-76.4232
-76.4876
-76.6098
-76.5176
-76.4289
-76.3513
-76.295
-76.2673
-76.2716
-76.3044
-76.358
-76.4348
-76.5794
-76.4768
-76.3791
-76.2955
-76.2368
-76.2099
-76.2175
-76.2563
-76.3187
-76.4046
-76.5673
-76.4591
-76.3552
-76.2679
-76.2084
-76.1831
-76.194
-76.2371
-76.3041
-76.3936
-76.5702
-76.461
-76.3562
-76.2693
-76.2119
-76.1895
-76.203
-76.2477
-76.3143
-76.401
-76.5837
-76.4785
-76.3792
-76.2989
-76.2478
-76.2297
-76.2442
-76.2865
-76.3468
-76.4233
-76.6077
-76.5077
-76.4193
-76.3523
-76.3113
-76.2981
-76.3117
-76.3472
-76.397
-76.4624
-76.6514
-76.5551
-76.4808
-76.4312
-76.4019
-76.3932
-76.403
-76.4282
-76.4683
-76.5305
-72.8916
-72.8344
-72.762
-72.6979
-72.6406
-72.5929
-72.5575
-72.535
-72.5263
-72.5478
-72.7915
-72.7349
-72.6556
-72.5788
-72.5145
-72.466
-72.4364
-72.4268
-72.4333
-72.4556
-72.7011
-72.6286
-72.5339
-72.4464
-72.3774
-72.3294
-72.3048
-72.305
-72.3258
-72.3598
-72.6149
-72.5262
-72.4189
-72.3243
-72.2535
-72.2078
-72.1883
-72.1973
-72.2312
-72.2817
-72.5372
-72.4377
-72.3226
-72.2244
-72.1531
-72.1107
-72.0963
-72.1128
-72.1568
-72.2194
-72.4699
-72.3648
-72.2477
-72.1485
-72.0788
-72.0407
-72.0305
-72.0527
-72.1039
-72.1722
-72.416
-72.3106
-72.1956
-72.0987
-72.0321
-71.9972
-71.9921
-72.0193
-72.0734
-72.1424
-72.3777
-72.2763
-72.1685
-72.0771
-72.0151
-71.9849
-71.9846
-72.0149
-72.0685
-72.1301
-72.3599
-72.2615
-72.165
-72.0851
-72.0316
-72.0074
-72.0117
-72.0427
-72.0901
-72.143
-72.3585
-72.2639
-72.1824
-72.1189
-72.0776
-72.0612
-72.0683
-72.0948
-72.1343
-72.1849
-69.0655
-69.047
-69.0125
-68.9827
-68.9549
-68.9264
-68.8999
-68.8773
-68.8618
-68.8654
-68.9536
-68.9456
-68.9037
-68.8565
-68.8162
-68.7839
-68.7619
-68.7542
-68.7572
-68.7616
-68.8561
-68.8301
-68.7676
-68.7046
-68.6546
-68.6206
-68.6058
-68.6126
-68.6368
-68.6605
-68.7581
-68.7094
-68.6304
-68.556
-68.5006
-68.4678
-68.4595
-68.4789
-68.5226
-68.5681
-68.6623
-68.5932
-68.5023
-68.424
-68.3687
-68.3391
-68.3385
-68.3679
-68.423
-68.4846
-68.5705
-68.484
-68.3893
-68.3121
-68.2624
-68.2401
-68.2448
-68.2802
-68.3423
-68.4125
-68.4901
-68.3915
-68.2969
-68.2251
-68.1832
-68.1677
-68.1782
-68.217
-68.2807
-68.3555
-68.4288
-68.3244
-68.2338
-68.1678
-68.1316
-68.1223
-68.1377
-68.1791
-68.2424
-68.3154
-68.3985
-68.2889
-68.2045
-68.1441
-68.1126
-68.1081
-68.1281
-68.1727
-68.2315
-68.303
-68.378
-68.274
-68.2052
-68.1551
-68.1307
-68.1302
-68.1513
-68.1917
-68.2399
-68.3098
-64.1167
-64.0945
-64.0634
-64.0338
-64.0029
-63.9715
-63.9438
-63.9211
-63.9075
-63.8969
-63.9796
-63.9782
-63.9485
-63.907
-63.868
-63.8354
-63.8114
-63.8006
-63.7993
-63.7832
-63.8572
-63.8529
-63.8132
-63.7618
-63.7164
-63.6841
-63.6686
-63.6716
-63.6896
-63.6919
-63.7479
-63.7298
-63.6793
-63.6179
-63.5665
-63.5358
-63.5293
-63.5465
-63.5837
-63.607
-63.6583
-63.62
-63.5567
-63.488
-63.4321
-63.4017
-63.4059
-63.4368
-63.4884
-63.5306
-63.5824
-63.5204
-63.4469
-63.3727
-63.3154
-63.2886
-63.3021
-63.3441
-63.4063
-63.4623
-63.5111
-63.426
-63.3431
-63.2683
-63.2166
-63.1982
-63.2202
-63.2699
-63.3374
-63.4022
-63.4354
-63.3316
-63.2442
-63.1748
-63.1347
-63.1297
-63.1601
-63.2173
-63.2867
-63.3537
-63.3603
-63.244
-63.1587
-63.1002
-63.0754
-63.0854
-63.1265
-63.1909
-63.2551
-63.3261
-63.2793
-63.1678
-63.0982
-63.057
-63.0471
-63.0661
-63.1099
-63.1676
-63.2125
-63.2823
-55.1709
-55.2256
-55.3053
-55.4024
-55.4921
-55.565
-55.6212
-55.6532
-55.6577
-55.6191
-55.0651
-55.1282
-55.2174
-55.3198
-55.4147
-55.4929
-55.5564
-55.5975
-55.6014
-55.5532
-54.9832
-55.0428
-55.1295
-55.2285
-55.3213
-55.405
-55.4816
-55.5413
-55.5624
-55.528
-54.9431
-54.997
-55.0694
-55.151
-55.2326
-55.3152
-55.4047
-55.487
-55.5303
-55.5144
-54.9507
-54.9977
-55.0488
-55.1059
-55.169
-55.2433
-55.3404
-55.4433
-55.5083
-55.5109
-54.995
-55.0284
-55.0555
-55.0889
-55.1319
-55.1955
-55.2968
-55.4127
-55.4906
-55.5075
-55.0557
-55.0674
-55.0742
-55.0893
-55.1188
-55.1759
-55.2758
-55.392
-55.4716
-55.4968
-55.1139
-55.0993
-55.0922
-55.1014
-55.1296
-55.1858
-55.2765
-55.3792
-55.4474
-55.4747
-55.1402
-55.1091
-55.1005
-55.1188
-55.1572
-55.2157
-55.2913
-55.3668
-55.4128
-55.4439
-55.1443
-55.1078
-55.1067
-55.1431
-55.1904
-55.2418
-55.2903
-55.328
-55.3391
-55.3718
-44.5179
-44.5111
-44.5558
-44.6524
-44.7723
-44.8944
-45.0106
-45.1058
-45.1681
-45.2019
-44.4021
-44.4081
-44.4653
-44.5771
-44.7171
-44.8575
-44.9902
-45.095
-45.1465
-45.16
-44.3041
-44.3204
-44.3907
-44.5138
-44.6642
-44.8189
-44.9696
-45.0955
-45.1586
-45.1686
-44.2518
-44.278
-44.3625
-44.4951
-44.647
-44.805
-44.9677
-45.1129
-45.1927
-45.2109
-44.2527
-44.2872
-44.3839
-44.5194
-44.67
-44.8298
-44.9969
-45.1543
-45.2492
-45.2731
-44.3012
-44.3413
-44.4378
-44.5718
-44.7204
-44.8805
-45.0538
-45.2174
-45.3146
-45.3386
-44.383
-44.4236
-44.5123
-44.639
-44.7863
-44.9516
-45.1287
-45.2876
-45.3781
-45.3966
-44.4913
-44.5268
-44.6028
-44.723
-44.871
-45.0373
-45.2052
-45.3442
-45.4173
-45.432
-44.5899
-44.6311
-44.7041
-44.8234
-44.969
-45.1207
-45.2596
-45.3648
-45.4209
-45.4438
-44.7083
-44.7516
-44.8204
-44.9352
-45.0624
-45.1772
-45.272
-45.3428
-45.3921
-45.4455
-33.0092
-33.0196
-33.0439
-33.0917
-33.1583
-33.2334
-33.3088
-33.3798
-33.4358
-33.4943
-32.9269
-32.9657
-33.0116
-33.0809
-33.1657
-33.255
-33.3387
-33.4057
-33.4533
-33.5087
-32.8974
-32.9519
-33.0218
-33.1127
-33.213
-33.3142
-33.4049
-33.4713
-33.5112
-33.5549
-32.9172
-32.9823
-33.0754
-33.1925
-33.3082
-33.4151
-33.509
-33.5745
-33.6058
-33.6391
-32.9651
-33.0465
-33.1691
-33.3122
-33.4417
-33.5511
-33.638
-33.6943
-33.7136
-33.7258
-33.0381
-33.1419
-33.2902
-33.4522
-33.5864
-33.6905
-33.7686
-33.8107
-33.8089
-33.7976
-33.138
-33.2618
-33.4282
-33.5973
-33.7275
-33.8231
-33.8876
-33.9103
-33.8903
-33.8568
-33.2729
-33.4076
-33.577
-33.7449
-33.8666
-33.9453
-33.9872
-33.9847
-33.9481
-33.9038
-33.4092
-33.5522
-33.7142
-33.8706
-33.9765
-34.0307
-34.0414
-34.0159
-33.9759
-33.9299
-33.5632
-33.7034
-33.8404
-33.9621
-34.0304
-34.0503
-34.0391
-34.0131
-33.9935
-33.965
-20.2254
-20.1099
-19.9704
-19.8455
-19.7512
-19.6899
-19.6641
-19.6734
-19.7034
-19.7665
-20.2201
-20.1148
-19.9777
-19.8566
-19.7636
-19.6988
-19.6633
-19.6567
-19.6761
-19.7311
-20.2622
-20.1479
-20.0117
-19.8971
-19.8094
-19.7454
-19.6994
-19.6687
-19.6632
-19.6904
-20.3247
-20.2064
-20.0782
-19.9734
-19.8894
-19.8207
-19.7603
-19.6986
-19.6552
-19.6467
-20.3764
-20.2706
-20.163
-20.0688
-19.9838
-19.9025
-19.8129
-19.7099
-19.6277
-19.5852
-20.4141
-20.3387
-20.2578
-20.1727
-20.0774
-19.9691
-19.8401
-19.693
-19.5803
-19.5219
-20.4477
-20.4154
-20.3657
-20.2842
-20.1648
-20.0171
-19.8439
-19.6644
-19.5386
-19.4795
-20.4918
-20.5014
-20.474
-20.3872
-20.2362
-20.0457
-19.8388
-19.6482
-19.5213
-19.4687
-20.5428
-20.5736
-20.5461
-20.444
-20.267
-20.054
-19.8401
-19.6572
-19.5391
-19.4903
-20.6121
-20.6235
-20.56
-20.4264
-20.2331
-20.0297
-19.8443
-19.6938
-19.5997
-19.5522
-5.97438
-5.93322
-5.84065
-5.74214
-5.66366
-5.60758
-5.56931
-5.54224
-5.52803
-5.5387
-6.05286
-6.01188
-5.91074
-5.7996
-5.70561
-5.63093
-5.57119
-5.52042
-5.48334
-5.47025
-6.18519
-6.11585
-5.99266
-5.86574
-5.75832
-5.66532
-5.57805
-5.49509
-5.42833
-5.38783
-6.32701
-6.22941
-6.08694
-5.94758
-5.8247
-5.70666
-5.58261
-5.45959
-5.36177
-5.2988
-6.44847
-6.33604
-6.18479
-6.02858
-5.87843
-5.72643
-5.56519
-5.41426
-5.30308
-5.23108
-6.53767
-6.42694
-6.27023
-6.0907
-5.90451
-5.7161
-5.53235
-5.37865
-5.27012
-5.19795
-6.58549
-6.49066
-6.33068
-6.12377
-5.90101
-5.68863
-5.50448
-5.3649
-5.26538
-5.1969
-6.58564
-6.51384
-6.35096
-6.12018
-5.87488
-5.66049
-5.49416
-5.37185
-5.27741
-5.21194
-6.5672
-6.5062
-6.33973
-6.09764
-5.85073
-5.65009
-5.50322
-5.39055
-5.29912
-5.23673
-6.56497
-6.48472
-6.30529
-6.06709
-5.84176
-5.66852
-5.53907
-5.43066
-5.33923
-5.27465
6.6915
6.74959
6.82062
6.88199
6.92423
6.94659
6.95443
6.96619
6.9785
6.96114
6.69673
6.74241
6.81667
6.89161
6.94799
6.98349
7.00316
7.02213
7.04524
7.05145
6.66186
6.72023
6.81109
6.90265
6.97132
7.01573
7.04356
7.0672
7.09736
7.11952
6.62643
6.70807
6.81529
6.91658
6.99487
7.04714
7.07747
7.09939
7.13066
7.15793
6.60514
6.71064
6.82974
6.93946
7.02593
7.07958
7.09763
7.10477
7.12996
7.1575
6.59435
6.71754
6.8507
6.97283
7.05833
7.09698
7.09536
7.08723
7.10619
7.13548
6.60282
6.73359
6.88043
7.01134
7.08138
7.09176
7.07124
7.05452
7.07112
7.10853
6.64837
6.77359
6.92391
7.04753
7.09345
7.07891
7.04256
7.02227
7.04216
7.09195
6.70231
6.81906
6.9634
7.07159
7.0964
7.06555
7.02049
7.00177
7.02662
7.08411
6.72063
6.8438
6.98371
7.07673
7.08131
7.03541
6.98719
6.97882
7.01567
7.06711
19.7513
19.7128
19.664
19.6098
19.5624
19.5254
19.4969
19.4886
19.5043
19.5094
19.7754
19.7188
19.66
19.6081
19.5683
19.5388
19.5141
19.5036
19.5168
19.5394
19.765
19.7078
19.6577
19.6199
19.5878
19.5558
19.5206
19.4938
19.4957
19.5223
19.7457
19.7007
19.6698
19.6462
19.6162
19.5714
19.5128
19.4609
19.4458
19.4579
19.7332
19.7069
19.6905
19.6726
19.6331
19.567
19.4861
19.4164
19.3866
19.3806
19.7247
19.717
19.7067
19.6805
19.6226
19.5399
19.446
19.3698
19.3389
19.3291
19.7137
19.7238
19.7117
19.6666
19.5893
19.4943
19.3956
19.3225
19.3003
19.3139
19.7084
19.7295
19.7137
19.648
19.5506
19.4419
19.3409
19.2761
19.2663
19.3128
19.7112
19.7384
19.7218
19.6407
19.5193
19.388
19.2799
19.2269
19.2355
19.3052
19.696
19.7329
19.721
19.6305
19.4852
19.3313
19.2134
19.1764
19.2237
19.3021
33.1492
33.1352
33.074
33.0039
32.9316
32.8634
32.7869
32.7083
32.6542
32.6085
33.1973
33.1644
33.0922
33.0159
32.9473
32.883
32.8056
32.7136
32.633
32.5824
33.2482
33.2035
33.1274
33.0521
32.9909
32.9309
32.8445
32.7257
32.6096
32.5377
33.2752
33.2339
33.1659
33.0945
33.0322
32.9659
32.8645
32.7201
32.5668
32.4536
33.2816
33.2487
33.1889
33.1128
33.0372
32.9543
32.8448
32.7007
32.5331
32.3844
33.2622
33.2375
33.1831
33.0902
32.9952
32.9
32.7903
32.6663
32.5243
32.3776
33.2168
33.199
33.1418
33.0332
32.9209
32.8179
32.7151
32.6196
32.5239
32.4244
33.152
33.1368
33.0714
32.9534
32.8263
32.7116
32.6154
32.5448
32.4926
32.4629
33.098
33.0797
33
32.8633
32.7112
32.5705
32.4752
32.4364
32.4303
32.4656
33.0439
33.0244
32.9381
32.7759
32.5936
32.4342
32.3493
32.3655
32.425
32.4889
47.8127
47.7093
47.5414
47.3712
47.198
47.0282
46.8616
46.7139
46.6344
46.6226
47.8013
47.684
47.5115
47.3407
47.1827
47.0279
46.8563
46.6721
46.5302
46.4695
47.824
47.6841
47.492
47.3112
47.1696
47.0436
46.8846
46.6703
46.4629
46.3515
47.8266
47.6817
47.4751
47.2769
47.1375
47.0347
46.8929
46.6576
46.383
46.2067
47.8207
47.6813
47.4702
47.2532
47.0985
46.9995
46.8823
46.6535
46.3323
46.0937
47.7896
47.6658
47.4727
47.2435
47.0666
46.9554
46.8505
46.6551
46.3327
46.0643
47.7216
47.6158
47.4498
47.2235
47.0337
46.9045
46.7979
46.6364
46.3462
46.1005
47.6069
47.5116
47.3679
47.1527
46.9608
46.8144
46.7037
46.5813
46.3536
46.1638
47.4955
47.3844
47.2386
47.0145
46.8057
46.657
46.5756
46.5239
46.379
46.2796
47.3956
47.2569
47.088
46.8415
46.6277
46.5198
46.533
46.5816
46.4919
46.4389
62.4272
62.363
62.2455
62.1391
62.0514
61.9802
61.9151
61.8669
61.8685
61.896
62.3838
62.3105
62.2181
62.1557
62.113
62.0631
61.9772
61.8616
61.7752
61.7397
62.4002
62.2965
62.1926
62.146
62.1459
62.1405
62.0708
61.9122
61.748
61.6712
62.4288
62.3047
62.1812
62.1354
62.1674
62.2036
62.1562
61.9651
61.7208
61.5933
62.4774
62.3522
62.2224
62.1696
62.2099
62.2765
62.2544
62.0491
61.7377
61.5546
62.5357
62.4349
62.3238
62.2665
62.2964
62.3695
62.3614
62.1693
61.8324
61.6179
62.5868
62.5188
62.4385
62.3786
62.3917
62.4622
62.4651
62.2842
61.9605
61.7681
62.5874
62.547
62.4952
62.4253
62.417
62.4974
62.5465
62.3974
62.1181
61.9785
62.5594
62.4997
62.4518
62.3782
62.3721
62.4906
62.6312
62.5774
62.3668
62.3071
62.5019
62.3949
62.3461
62.2973
62.362
62.5876
62.8158
62.8248
62.6044
62.5387
80.8404
80.6883
80.4574
80.2462
80.1344
80.1558
80.3039
80.5413
80.7787
80.9115
80.7261
80.5797
80.3894
80.2015
80.0942
80.1035
80.2341
80.4561
80.6783
80.8053
80.6293
80.4787
80.3087
80.1621
80.1106
80.1593
80.2895
80.475
80.6579
80.7807
80.5181
80.36
80.2019
80.1197
80.1654
80.2868
80.4137
80.538
80.663
80.7781
80.4181
80.2606
80.1332
80.1218
80.2663
80.4792
80.617
80.6725
80.7335
80.8321
80.3487
80.2097
80.1316
80.1931
80.415
80.6909
80.8553
80.8747
80.8869
80.9581
80.3125
80.1925
80.1599
80.2856
80.5717
80.8842
81.0704
81.0943
81.0835
81.136
80.2894
80.1822
80.1833
80.3474
80.6877
81.0583
81.2761
81.3123
81.2915
81.3375
80.3026
80.1884
80.2316
80.4395
80.8181
81.2387
81.4999
81.5528
81.5246
81.5701
80.3237
80.2078
80.3212
80.6209
81.0637
81.4838
81.7235
81.7539
81.6721
81.6785
100.22
100.202
100.097
99.9641
99.8961
99.959
100.195
100.564
100.924
101.104
100.242
100.246
100.181
100.02
99.8737
99.851
100.04
100.44
100.898
101.178
100.245
100.295
100.28
100.138
99.9984
99.9783
100.144
100.541
101.038
101.362
100.176
100.253
100.278
100.211
100.159
100.21
100.4
100.771
101.231
101.521
100.076
100.147
100.213
100.249
100.318
100.465
100.683
100.995
101.372
101.603
100.002
100.049
100.158
100.311
100.495
100.707
100.937
101.187
101.463
101.628
99.9939
99.9959
100.153
100.428
100.72
100.958
101.163
101.358
101.544
101.646
100.072
100.032
100.231
100.606
100.987
101.248
101.407
101.53
101.636
101.682
100.243
100.205
100.445
100.863
101.271
101.536
101.655
101.703
101.727
101.731
100.359
100.401
100.728
101.178
101.553
101.762
101.827
101.818
101.785
101.769
119.145
119.148
119.142
119.116
119.084
119.069
119.109
119.205
119.338
119.404
119.203
119.262
119.302
119.231
119.092
118.979
118.985
119.132
119.353
119.508
119.253
119.404
119.509
119.434
119.242
119.063
119.025
119.196
119.496
119.733
119.254
119.462
119.616
119.588
119.435
119.273
119.234
119.406
119.718
119.97
119.199
119.4
119.58
119.633
119.586
119.505
119.492
119.649
119.931
120.153
119.136
119.278
119.464
119.613
119.688
119.695
119.723
119.864
120.093
120.271
119.128
119.194
119.388
119.633
119.811
119.886
119.939
120.056
120.227
120.353
119.217
119.238
119.452
119.764
120.008
120.123
120.175
120.251
120.353
120.416
119.373
119.417
119.66
119.986
120.232
120.349
120.39
120.431
120.474
120.49
119.447
119.567
119.861
120.17
120.378
120.475
120.513
120.549
120.57
120.57
138.99
138.981
139.031
139.075
139.078
139.032
138.943
138.814
138.678
138.541
138.882
138.93
138.988
138.98
138.902
138.789
138.676
138.57
138.475
138.36
138.816
138.918
138.991
138.936
138.767
138.561
138.39
138.291
138.246
138.193
138.725
138.858
138.946
138.879
138.677
138.426
138.202
138.08
138.067
138.064
138.576
138.704
138.79
138.748
138.575
138.328
138.098
137.966
137.963
137.991
138.387
138.479
138.558
138.56
138.45
138.244
138.034
137.916
137.917
137.95
138.221
138.276
138.347
138.39
138.337
138.177
138.002
137.908
137.904
137.926
138.146
138.188
138.26
138.323
138.294
138.167
138.024
137.95
137.937
137.95
138.143
138.199
138.293
138.357
138.328
138.222
138.112
138.059
138.043
138.064
138.135
138.209
138.331
138.396
138.363
138.28
138.215
138.197
138.185
138.211
157.19
157.076
156.971
156.867
156.741
156.597
156.471
156.368
156.275
156.233
156.956
156.864
156.75
156.612
156.438
156.246
156.071
155.943
155.875
155.859
156.726
156.64
156.52
156.36
156.146
155.904
155.688
155.531
155.45
155.439
156.476
156.389
156.275
156.1
155.859
155.587
155.334
155.153
155.065
155.043
156.232
156.126
155.995
155.809
155.561
155.276
155.01
154.82
154.736
154.729
155.996
155.856
155.691
155.483
155.237
154.97
154.715
154.538
154.477
154.494
155.789
155.617
155.404
155.165
154.919
154.68
154.469
154.337
154.305
154.352
155.638
155.455
155.204
154.934
154.685
154.473
154.317
154.244
154.252
154.333
155.562
155.385
155.121
154.838
154.589
154.396
154.289
154.275
154.328
154.45
155.547
155.374
155.118
154.834
154.584
154.411
154.348
154.385
154.469
154.605
169.611
169.61
169.641
169.697
169.728
169.735
169.779
169.861
169.926
169.995
169.445
169.506
169.61
169.71
169.743
169.717
169.688
169.691
169.729
169.803
169.317
169.426
169.592
169.744
169.799
169.758
169.678
169.613
169.593
169.637
169.203
169.329
169.523
169.714
169.807
169.788
169.703
169.608
169.551
169.548
169.111
169.206
169.373
169.569
169.694
169.717
169.664
169.586
169.526
169.507
169.041
169.072
169.167
169.322
169.455
169.522
169.522
169.489
169.466
169.472
169.001
168.957
168.958
169.038
169.151
169.252
169.314
169.346
169.384
169.449
169.008
168.905
168.82
168.817
168.891
169.013
169.133
169.237
169.342
169.476
169.063
168.954
168.822
168.756
168.791
168.909
169.064
169.224
169.387
169.577
169.153
169.094
168.96
168.856
168.848
168.939
169.1
169.291
169.471
169.65
181.982
182.213
182.572
182.93
183.236
183.543
183.925
184.359
184.724
184.995
181.988
182.34
182.805
183.23
183.573
183.869
184.17
184.477
184.746
184.948
182.105
182.531
183.069
183.55
183.92
184.199
184.428
184.636
184.822
184.969
182.298
182.726
183.266
183.773
184.169
184.452
184.657
184.815
184.941
185.037
182.515
182.882
183.375
183.879
184.289
184.584
184.79
184.936
185.04
185.11
182.73
182.996
183.409
183.877
184.284
184.592
184.81
184.965
185.077
185.156
182.947
183.084
183.395
183.802
184.186
184.496
184.727
184.901
185.043
185.162
183.198
183.194
183.38
183.711
184.055
184.354
184.593
184.792
184.971
185.144
183.441
183.357
183.428
183.668
183.966
184.25
184.498
184.724
184.933
185.147
183.692
183.597
183.591
183.74
183.968
184.221
184.473
184.712
184.909
185.096
192.701
193.234
194.039
194.817
195.456
196
196.642
197.454
198.254
198.868
192.531
193.132
194.064
195.036
195.862
196.561
197.251
197.97
198.627
199.122
192.488
193.104
194.137
195.252
196.217
197.016
197.71
198.364
198.967
199.427
192.715
193.306
194.347
195.489
196.505
197.345
198.057
198.698
199.266
199.687
193.183
193.76
194.75
195.833
196.817
197.65
198.354
198.975
199.508
199.885
193.914
194.475
195.358
196.318
197.206
197.974
198.627
199.199
199.686
200.024
194.811
195.321
196.078
196.881
197.63
198.285
198.852
199.354
199.786
200.097
195.716
196.12
196.727
197.384
197.993
198.527
198.993
199.417
199.79
200.075
196.423
196.708
197.162
197.705
198.222
198.678
199.066
199.417
199.724
199.989
196.988
197.171
197.459
197.867
198.292
198.697
199.047
199.347
199.589
199.816
214.34
214.121
214.201
214.238
214.199
214.226
214.426
214.955
215.763
216.435
213.677
213.458
213.543
213.664
213.786
214.069
214.626
215.413
216.237
216.82
212.781
212.53
212.678
212.96
213.303
213.841
214.608
215.513
216.371
216.99
212.046
211.727
211.892
212.286
212.793
213.482
214.361
215.348
216.288
216.976
211.639
211.285
211.449
211.872
212.424
213.152
214.069
215.1
216.097
216.83
211.639
211.324
211.466
211.825
212.314
212.976
213.853
214.871
215.866
216.607
211.978
211.752
211.843
212.081
212.446
212.995
213.773
214.71
215.651
216.376
212.529
212.375
212.389
212.506
212.748
213.165
213.795
214.604
215.449
216.135
213.05
212.932
212.889
212.925
213.08
213.394
213.894
214.561
215.269
215.879
213.502
213.33
213.244
213.238
213.337
213.588
213.995
214.53
215.102
215.635
246.103
245.376
244.705
244.011
243.368
242.902
242.404
241.973
242.034
242.361
246.455
245.825
245.009
244.058
243.198
242.641
242.418
242.428
242.65
242.857
246.45
245.875
245.1
244.173
243.331
242.759
242.569
242.673
242.83
242.92
246.181
245.426
244.588
243.779
243.098
242.614
242.396
242.421
242.475
242.545
245.807
244.836
243.845
243.04
242.502
242.149
241.933
241.852
241.845
241.939
245.441
244.382
243.256
242.325
241.786
241.507
241.327
241.217
241.225
241.367
245.072
244.107
242.994
241.905
241.197
240.877
240.741
240.689
240.756
240.985
244.726
243.969
243.002
241.834
240.906
240.42
240.243
240.233
240.381
240.703
244.616
243.996
243.17
242.015
240.96
240.297
240.015
239.987
240.172
240.494
244.898
244.234
243.481
242.42
241.366
240.613
240.213
240.097
240.216
240.469
268.758
268.574
268.457
268.35
268.363
268.432
268.294
267.968
267.885
268.247
269.264
269.244
269.158
268.905
268.657
268.58
268.528
268.392
268.373
268.653
269.603
269.821
269.883
269.732
269.485
269.322
269.275
269.156
268.951
268.962
269.632
269.931
270.172
270.236
270.143
270.011
269.915
269.696
269.286
269.058
269.586
269.756
270.105
270.4
270.49
270.386
270.183
269.815
269.277
268.898
269.769
269.717
269.981
270.363
270.604
270.564
270.288
269.783
269.16
268.729
270.258
270.02
270.106
270.373
270.605
270.622
270.347
269.778
269.131
268.738
270.871
270.627
270.621
270.705
270.78
270.709
270.358
269.739
269.148
268.844
271.569
271.364
271.378
271.309
271.131
270.824
270.314
269.666
269.198
268.989
272.348
272.114
272.122
271.943
271.56
271.064
270.466
269.852
269.495
269.372
292.623
292.84
293.206
293.562
293.854
294.037
294.123
294.113
294.137
294.484
292.528
292.762
293.01
293.237
293.465
293.657
293.806
293.893
294.003
294.412
292.543
292.86
293.063
293.184
293.346
293.583
293.846
294.001
294.06
294.375
292.509
292.813
293.074
293.258
293.44
293.743
294.077
294.189
294.138
294.302
292.334
292.449
292.752
293.126
293.46
293.799
294.08
294.109
294.017
294.08
292.09
291.891
292.089
292.6
293.139
293.541
293.825
293.887
293.815
293.84
292.001
291.465
291.444
291.916
292.573
293.118
293.54
293.718
293.725
293.762
292.193
291.433
291.186
291.472
292.079
292.716
293.304
293.58
293.687
293.771
292.821
291.898
291.471
291.561
292.051
292.712
293.327
293.576
293.715
293.823
293.505
292.707
292.323
292.352
292.742
293.304
293.762
293.937
294.058
294.203
322.326
322.431
322.596
322.668
322.564
322.362
322.164
322.029
321.984
322.068
322.189
322.247
322.295
322.258
322.079
321.832
321.637
321.572
321.65
321.837
322.163
322.102
321.972
321.772
321.473
321.175
321.012
321.042
321.217
321.473
322.23
322.031
321.72
321.335
320.92
320.605
320.526
320.605
320.762
320.975
322.26
321.924
321.424
320.841
320.296
319.98
319.976
320.041
320.145
320.336
322.179
321.65
320.899
320.086
319.396
319.048
319.096
319.204
319.352
319.63
322.098
321.299
320.238
319.149
318.298
317.92
318.04
318.278
318.594
319.027
322.118
321.084
319.731
318.365
317.36
316.98
317.192
317.577
318.091
318.647
322.202
321.075
319.6
318.117
317.041
316.647
316.902
317.391
318.021
318.596
322.103
321.064
319.762
318.434
317.45
317.063
317.308
317.886
318.602
319.157
349.902
350.036
350.148
350.052
349.702
349.259
348.876
348.605
348.494
348.598
349.796
349.832
349.866
349.656
349.21
348.745
348.405
348.236
348.258
348.42
349.582
349.418
349.325
349.005
348.502
348.049
347.771
347.702
347.821
348.039
349.118
348.866
348.695
348.323
347.838
347.434
347.227
347.225
347.354
347.547
348.628
348.376
348.094
347.648
347.2
346.902
346.804
346.8
346.859
347.002
348.379
348.022
347.547
347.023
346.606
346.348
346.242
346.207
346.257
346.443
348.374
347.88
347.235
346.571
345.979
345.523
345.303
345.339
345.558
345.915
348.347
347.8
347.056
346.192
345.296
344.57
344.273
344.458
344.964
345.526
348.052
347.562
346.879
346.006
344.996
344.131
343.814
344.12
344.826
345.414
347.737
347.305
346.9
346.274
345.383
344.547
344.218
344.601
345.415
345.896
372.947
372.757
373.242
373.916
374.417
374.693
374.809
374.858
374.966
375.264
372.007
371.617
372.181
373.008
373.574
373.881
374.159
374.471
374.844
375.294
370.593
370.278
370.919
371.704
372.25
372.744
373.299
373.876
374.499
375.158
369.441
369.338
369.913
370.532
371.118
371.846
372.619
373.344
374.068
374.854
368.93
368.926
369.271
369.777
370.577
371.586
372.426
373.036
373.658
374.448
368.856
368.82
369.069
369.695
370.804
371.935
372.552
372.868
373.292
373.987
368.786
368.824
369.205
370.059
371.311
372.278
372.609
372.746
373.037
373.607
368.67
368.893
369.449
370.357
371.42
372.114
372.432
372.737
373.078
373.532
368.852
369.209
369.864
370.607
371.252
371.68
372.153
372.866
373.43
373.807
369.632
369.995
370.621
371.094
371.342
371.577
372.132
373.15
374.015
374.289
396.148
394.862
394.265
394.223
394.556
395.167
395.861
396.375
396.731
397.05
395.722
394.439
393.793
393.716
394.183
395.011
395.835
396.345
396.511
396.62
395.437
394.409
393.783
393.751
394.478
395.568
396.547
397.089
397.219
397.484
395.561
394.767
394.131
394.116
395.043
396.332
397.361
397.822
398.014
398.654
395.805
395.166
394.563
394.663
395.756
397.083
397.923
398.218
398.544
399.592
395.867
395.382
395.079
395.504
396.704
397.863
398.378
398.554
399
400.187
395.557
395.343
395.573
396.411
397.671
398.607
398.923
399.102
399.574
400.575
395.205
395.386
396.09
397.144
398.355
399.224
399.66
399.975
400.408
401.109
395.543
396.014
396.871
397.758
398.71
399.633
400.456
401.078
401.501
401.977
397.039
397.204
397.748
398.203
398.792
399.732
400.9
401.873
402.253
402.535
426.321
425.229
423.59
422.108
421.145
420.56
420.171
419.961
420.187
420.546
426.371
425.189
423.32
421.517
420.165
419.184
418.444
417.98
418.056
418.336
426.595
425.58
423.864
422.054
420.551
419.261
418.095
417.241
417.069
417.677
427.004
426.216
424.693
422.934
421.392
419.841
418.261
417.061
416.775
417.902
427.24
426.694
425.323
423.682
422.208
420.481
418.61
417.25
417.152
418.86
427.155
426.78
425.61
424.232
422.888
421.148
419.325
418.231
418.595
420.806
426.599
426.358
425.562
424.546
423.387
421.932
420.576
419.977
420.695
422.91
425.937
425.904
425.417
424.721
423.949
423.118
422.439
422.203
422.835
424.443
425.977
425.923
425.454
424.905
424.576
424.535
424.658
424.75
425.034
425.822
427.281
426.411
425.67
425.133
425.076
425.538
426.222
426.602
426.645
426.932
451.53
452.294
452.221
452.044
452.145
451.751
450.571
449.768
450.179
450.444
450.343
451.146
451.071
450.717
450.591
450.212
449.164
448.449
449.037
449.71
449.875
450.468
450.286
449.683
449.14
448.488
447.53
447.036
447.988
449.223
450.102
450.333
449.863
448.853
447.816
446.835
445.93
445.772
447.041
448.671
450.841
450.357
449.473
448.068
446.61
445.418
444.683
445.047
446.802
448.751
451.359
450.192
449.112
447.564
445.944
444.669
444.206
445.141
447.353
449.322
451.153
450.02
449.062
447.601
446.051
444.865
444.615
445.721
447.898
449.823
450.683
450.122
449.422
448.267
447.1
446.24
446.062
446.811
448.476
450.345
450.729
450.437
449.916
449.347
448.939
448.704
448.671
448.962
449.808
451.024
451.651
450.881
450.311
450.301
450.647
451.021
451.202
451.26
451.42
451.768
470.102
469.848
470.051
470.946
472.07
472.381
470.794
466.972
463.167
463.381
469.439
469.381
469.231
469.618
469.903
468.987
466.634
462.942
459.42
459.726
468.393
468.838
468.711
468.798
468.303
466.618
464.125
461.392
459.417
460.531
466.721
467.716
467.712
467.656
467.069
465.758
464.209
463.234
463.457
465.117
465.481
466.124
466.089
466.142
466.051
465.91
466.099
466.987
468.541
469.882
465.6
465.225
464.97
465.171
465.651
466.648
468.153
470.042
471.836
472.554
467.102
466.049
465.447
465.497
466.098
467.585
469.644
471.669
473.035
473.277
469.202
468.141
467.254
466.975
467.322
468.633
470.587
472.275
473.003
472.824
471.046
470.108
469.001
468.494
468.603
469.59
471.128
472.353
472.634
472.127
471.939
470.917
469.607
469.175
469.417
470.454
471.794
472.715
472.796
472.183
482.954
482.035
482.251
480.087
473.552
465.173
460.978
462.707
468.374
475.524
482.414
480.989
479.817
476.548
469.618
461.821
459.206
462.429
469.195
475.567
482.272
481.225
480.059
477.366
471.798
465.041
462.815
466.498
472.831
477.438
480.774
480.52
479.986
478.767
475.776
471.705
470.5
473.215
477.259
479.756
478.66
478.92
479.091
479.145
478.447
477.203
477.108
478.644
480.626
481.646
476.879
477.573
478.398
479.442
480.053
480.36
480.91
481.759
482.457
482.566
475.258
476.932
478.569
480.263
481.358
481.986
482.47
482.847
482.925
482.704
474.495
477.405
479.684
481.159
481.712
481.827
482.175
482.559
482.582
482.429
476.7
479.84
481.699
481.698
481.114
480.753
481.257
481.993
482.306
482.316
480.936
482.918
483.496
481.991
480.724
480.583
481.442
482.263
482.719
482.935
495.181
494.709
492.396
486.414
481.218
480.435
483.676
488.399
493.106
497.859
494.685
494.595
492.897
487.651
482.628
481.617
484.383
488.643
492.932
497.083
495.526
496.107
495.534
492.164
488.004
486.114
487.026
489.619
492.84
496.345
495.813
497.095
497.35
495.48
492.567
490.256
489.685
490.849
492.886
495.426
496.162
497.09
497.231
495.984
494.054
492.386
491.775
492.255
493.082
494.251
495.206
494.801
494.322
493.683
493.282
492.95
492.804
493.047
492.927
492.771
490.722