/*--------------------------------*- C++ -*----------------------------------*\
| =========                 |                                                 |
| \\      /  F ield         | OpenFOAM: The Open Source CFD Toolbox           |
|  \\    /   O peration     | Version:  2406                                  |
|   \\  /    A nd           | Website:  www.openfoam.com                      |
|    \\/     M anipulation  |                                                 |
\*---------------------------------------------------------------------------*/
FoamFile
{
    version     2.0;
    format      ascii;
    arch        "LSB;label=32;scalar=64";
    class       surfaceScalarField;
    location    "0.3";
    object      phi;
}
// * * * * * * * * * * * * * * * * * * * * * * * * * * * * * * * * * * * * * //

dimensions      [0 3 -1 0 0 0 0];

oriented        oriented;

internalField   nonuniform List<scalar> 
73500
(
2.30069e-05
2.48901e-05
4.96666e-05
-2.98818e-05
-3.22508e-05
1.88754e-05
2.15463e-05
5.31168e-05
-3.11447e-05
1.41798e-05
1.97415e-05
5.63702e-05
-2.99865e-05
8.72952e-06
1.80498e-05
5.88229e-05
-2.84072e-05
3.05626e-06
1.66949e-05
6.02144e-05
-2.73129e-05
-2.5411e-06
1.58394e-05
6.05105e-05
-2.66263e-05
-8.15806e-06
1.55162e-05
5.97463e-05
-2.62077e-05
-1.35947e-05
1.58009e-05
5.79787e-05
-2.6389e-05
-1.85423e-05
1.65023e-05
5.54353e-05
-2.73033e-05
1.86556e-05
5.28255e-05
-2.39487e-05
-2.78195e-05
1.94598e-05
1.97259e-05
5.38107e-05
-2.83788e-05
1.41181e-05
1.52971e-05
5.56191e-05
9.25257e-06
1.29648e-05
5.76912e-05
4.39837e-06
1.12424e-05
5.92671e-05
-2.10846e-07
9.91349e-06
6.0096e-05
-4.60245e-06
9.0548e-06
6.01761e-05
-9.03544e-06
8.75989e-06
5.95332e-05
-1.35705e-05
9.00259e-06
5.81911e-05
-1.85534e-05
9.84251e-06
5.64165e-05
1.29199e-05
5.52139e-05
-2.45814e-05
1.69409e-05
1.37288e-05
5.74222e-05
-2.6213e-05
1.12107e-05
9.34315e-06
5.80524e-05
6.25836e-06
6.93947e-06
5.93386e-05
1.66163e-06
5.25737e-06
6.03373e-05
-2.38757e-06
4.07643e-06
6.08061e-05
-6.09846e-06
3.36557e-06
6.07694e-05
-1.00015e-05
3.12946e-06
6.0239e-05
-1.43377e-05
3.38234e-06
5.92101e-05
-1.95081e-05
4.35179e-06
5.79351e-05
7.49294e-06
5.7535e-05
-2.55541e-05
1.45368e-05
7.10783e-06
5.9893e-05
-2.38484e-05
9.02935e-06
3.5145e-06
5.97344e-05
4.18675e-06
1.36679e-06
6.04994e-05
-1.20746e-07
8.51212e-09
6.11303e-05
-3.77987e-06
-9.00009e-07
6.13809e-05
-7.10515e-06
-1.4154e-06
6.12821e-05
-1.07101e-05
-1.57855e-06
6.08404e-05
-1.49138e-05
-1.40491e-06
6.00369e-05
-1.99528e-05
-6.31945e-07
5.91153e-05
1.74483e-06
5.92395e-05
-2.55089e-05
1.27652e-05
4.57308e-07
6.11049e-05
-2.21837e-05
7.45687e-06
-2.17735e-06
6.05209e-05
2.90554e-06
-3.71639e-06
6.10199e-05
-1.16592e-06
-4.67619e-06
6.14775e-05
-4.56607e-06
-5.22373e-06
6.1636e-05
-7.68036e-06
-5.51156e-06
6.15193e-05
-1.11611e-05
-5.6227e-06
6.11274e-05
-1.52915e-05
-5.57374e-06
6.04436e-05
-2.02451e-05
-5.20838e-06
5.97165e-05
-3.93526e-06
6.01293e-05
-2.5708e-05
1.18018e-05
-5.94156e-06
6.11663e-05
-2.11827e-05
6.72283e-06
-7.59919e-06
6.05159e-05
2.35579e-06
-8.58401e-06
6.09909e-05
-1.50679e-06
-9.04505e-06
6.145e-05
-4.79752e-06
-9.24742e-06
6.16172e-05
-7.87594e-06
-9.25973e-06
6.15089e-05
-1.13639e-05
-9.25611e-06
6.11227e-05
-1.55591e-05
-9.37886e-06
6.0445e-05
-2.05938e-05
-9.49462e-06
5.97362e-05
-9.34881e-06
6.01882e-05
-2.6108e-05
1.18672e-05
-1.20267e-05
6.01618e-05
-2.10686e-05
6.90159e-06
-1.28555e-05
5.98003e-05
2.70305e-06
-1.33337e-05
6.04759e-05
-1.13154e-06
-1.34179e-05
6.10877e-05
-4.42449e-06
-1.31983e-05
6.13462e-05
-7.63374e-06
-1.2924e-05
6.12604e-05
-1.1361e-05
-1.2888e-05
6.08265e-05
-1.57436e-05
-1.30291e-05
6.00368e-05
-2.0921e-05
-1.34749e-05
5.91664e-05
-1.45813e-05
5.93899e-05
-2.64695e-05
1.30902e-05
-1.73413e-05
5.81243e-05
-2.20452e-05
8.19409e-06
-1.79137e-05
5.84094e-05
4.00323e-06
-1.8185e-05
5.94896e-05
1.47548e-07
-1.78558e-05
6.03847e-05
-3.38463e-06
-1.73192e-05
6.08009e-05
-7.0347e-06
-1.68602e-05
6.07397e-05
-1.10199e-05
-1.6556e-05
6.02007e-05
-1.57068e-05
-1.66696e-05
5.91865e-05
-2.12882e-05
-1.73131e-05
5.79856e-05
-1.92488e-05
5.76947e-05
-2.7091e-05
1.54251e-05
-2.24307e-05
5.52461e-05
-2.36511e-05
1.08734e-05
-2.32898e-05
5.65961e-05
6.69388e-06
-2.33427e-05
5.83048e-05
2.45134e-06
-2.26425e-05
5.96036e-05
-1.72227e-06
-2.18485e-05
6.0226e-05
-5.90383e-06
-2.11153e-05
6.018e-05
-1.04451e-05
-2.07308e-05
5.94783e-05
-1.54713e-05
-2.07792e-05
5.81375e-05
-2.12041e-05
-2.11071e-05
5.64306e-05
-2.29918e-05
5.52597e-05
-2.76044e-05
2.07534e-05
5.20908e-05
-2.8098e-05
-2.69522e-05
1.67639e-05
5.5188e-05
-2.93781e-05
1.18193e-05
5.79678e-05
-2.87875e-05
6.2812e-06
5.99104e-05
-2.76869e-05
7.46524e-07
6.08406e-05
-2.68684e-05
-4.81258e-06
6.08034e-05
-2.61215e-05
-1.04327e-05
5.98391e-05
-2.56313e-05
-1.5877e-05
5.79667e-05
-2.56811e-05
-2.14104e-05
5.53762e-05
-2.57834e-05
5.26304e-05
-2.73031e-05
-2.68602e-05
-2.35911e-05
-3.28585e-05
4.32741e-05
2.14888e-05
2.91315e-05
-1.73488e-05
-3.86136e-05
4.1313e-05
3.18217e-05
-8.11902e-06
-4.05027e-05
4.17671e-05
3.24726e-05
2.13694e-06
-4.09677e-05
4.30979e-05
3.27087e-05
1.25993e-05
-4.04977e-05
4.4563e-05
3.20088e-05
2.23851e-05
-3.93494e-05
4.59513e-05
3.07515e-05
3.0378e-05
-3.75767e-05
4.71968e-05
2.91216e-05
3.57094e-05
-3.50624e-05
4.83591e-05
2.68462e-05
3.77137e-05
-3.15549e-05
5.00273e-05
2.30606e-05
-2.58449e-05
5.40216e-05
3.34566e-05
1.97147e-05
-2.89703e-05
-2.8635e-05
4.35551e-05
2.32002e-05
-2.53912e-05
-3.56313e-05
3.8058e-05
-1.77978e-05
-3.84823e-05
3.63918e-05
-8.04784e-06
-3.95034e-05
3.59586e-05
2.99295e-06
-3.94232e-05
3.59637e-05
1.42895e-05
-3.84907e-05
3.64181e-05
2.43579e-05
-3.68552e-05
3.73892e-05
3.1992e-05
-3.44644e-05
3.89873e-05
3.55126e-05
-3.10123e-05
4.20248e-05
-2.45553e-05
4.95152e-05
3.18711e-05
-3.2151e-05
-2.2561e-05
4.53877e-05
2.59195e-05
-2.94858e-05
-2.9206e-05
3.7749e-05
-2.28115e-05
-3.24326e-05
3.46463e-05
-1.34799e-05
-3.38258e-05
3.28826e-05
-2.18946e-06
-3.4e-05
3.17862e-05
9.79245e-06
-3.32459e-05
3.15964e-05
2.08019e-05
-3.16889e-05
3.24798e-05
2.92978e-05
-2.94318e-05
3.45055e-05
3.33485e-05
-2.62051e-05
3.84006e-05
-2.02338e-05
4.74689e-05
3.0631e-05
-3.42077e-05
-1.56322e-05
4.68602e-05
2.78371e-05
-3.16872e-05
-2.10287e-05
3.78297e-05
-2.53288e-05
-2.39385e-05
3.36347e-05
-1.61711e-05
-2.52646e-05
3.08766e-05
-4.79808e-06
-2.54618e-05
2.90179e-05
7.51914e-06
-2.47378e-05
2.84274e-05
1.89167e-05
-2.3346e-05
2.93244e-05
2.77598e-05
-2.14124e-05
3.17485e-05
3.23027e-05
-1.87519e-05
3.63215e-05
-1.42795e-05
4.63277e-05
3.05813e-05
-3.49993e-05
-7.86174e-06
4.73418e-05
2.85371e-05
-3.24541e-05
-1.17557e-05
3.76439e-05
-2.61514e-05
-1.39117e-05
3.28207e-05
-1.7076e-05
-1.48343e-05
2.94919e-05
-5.70382e-06
-1.47993e-05
2.7231e-05
6.60771e-06
-1.40628e-05
2.64611e-05
1.80287e-05
-1.28413e-05
2.74081e-05
2.69188e-05
-1.13499e-05
3.01015e-05
3.15682e-05
-9.60328e-06
3.50981e-05
-7.0282e-06
4.56099e-05
3.01436e-05
-3.45371e-05
4.0576e-07
4.69185e-05
2.82592e-05
-3.18532e-05
-2.04716e-06
3.73303e-05
-2.55416e-05
-3.31934e-06
3.24601e-05
-1.65376e-05
-3.6027e-06
2.90358e-05
-5.38386e-06
-3.23831e-06
2.67189e-05
6.65301e-06
-2.36573e-06
2.59589e-05
1.77625e-05
-1.31391e-06
2.6964e-05
2.63293e-05
-4.14903e-07
2.97417e-05
3.07364e-05
2.69966e-07
3.48041e-05
8.7321e-07
4.53039e-05
2.92684e-05
-3.27726e-05
8.61377e-06
4.58092e-05
2.70229e-05
-2.98346e-05
7.39376e-06
3.70652e-05
-2.34656e-05
6.9194e-06
3.27921e-05
-1.47075e-05
7.23076e-06
2.98174e-05
-3.95934e-06
8.05612e-06
2.78177e-05
7.4544e-06
9.05877e-06
2.7238e-05
1.78247e-05
9.79748e-06
2.82592e-05
2.57676e-05
1.01537e-05
3.08685e-05
2.97345e-05
9.85531e-06
3.55494e-05
8.37066e-06
4.53847e-05
2.8146e-05
-2.95149e-05
1.63087e-05
4.43636e-05
2.46226e-05
-2.62153e-05
1.56882e-05
3.71193e-05
-1.9851e-05
1.56638e-05
3.40193e-05
-1.14373e-05
1.6515e-05
3.20406e-05
-1.47822e-06
1.76276e-05
3.07247e-05
8.79896e-06
1.85907e-05
3.04466e-05
1.81845e-05
1.91818e-05
3.13681e-05
2.51993e-05
1.9008e-05
3.34834e-05
2.832e-05
1.78374e-05
3.72875e-05
1.48645e-05
4.57594e-05
2.63667e-05
-2.45086e-05
2.15437e-05
4.35025e-05
2.11489e-05
-2.04628e-05
2.09454e-05
3.85129e-05
-1.40917e-05
2.13249e-05
3.69773e-05
-6.46938e-06
2.25284e-05
3.63354e-05
2.11541e-06
2.37426e-05
3.594e-05
1.09169e-05
2.46879e-05
3.59941e-05
1.87734e-05
2.49529e-05
3.66414e-05
2.45538e-05
2.43592e-05
3.79225e-05
2.69628e-05
2.30261e-05
4.03988e-05
1.98093e-05
4.67401e-05
2.41707e-05
-1.54037e-05
4.49252e-05
2.09335e-05
1.58323e-05
-1.00957e-05
4.39103e-05
2.03779e-05
-4.47474e-06
4.4771e-05
2.17172e-05
1.33367e-06
4.58505e-05
2.33187e-05
7.55698e-06
4.65421e-05
2.4352e-05
1.36856e-05
4.68923e-05
2.50301e-05
1.90971e-05
4.70195e-05
2.50842e-05
2.32545e-05
4.70236e-05
2.42563e-05
2.51569e-05
4.74065e-05
2.28407e-05
4.98894e-05
2.26903e-05
2.06699e-05
-3.68952e-05
-7.31226e-05
4.21585e-05
3.27868e-05
6.13515e-05
-2.99326e-05
-7.80356e-05
3.21881e-05
6.34828e-05
-1.79652e-05
-7.91981e-05
2.71021e-05
6.40854e-05
-3.31069e-06
-7.94961e-05
2.50574e-05
6.4863e-05
1.31313e-05
-7.86523e-05
2.50654e-05
6.40106e-05
2.97915e-05
-7.64865e-05
2.70118e-05
6.17512e-05
4.44958e-05
-7.27692e-05
3.08914e-05
5.81327e-05
5.5206e-05
-6.72835e-05
3.67014e-05
5.28979e-05
5.98583e-05
-6.00036e-05
4.51958e-05
4.56321e-05
-4.94204e-05
5.85207e-05
5.48066e-05
3.89443e-05
-4.62955e-05
-7.19349e-05
3.59868e-05
3.67908e-05
-4.23954e-05
-7.71343e-05
1.91139e-05
-3.17002e-05
-7.84005e-05
1.03021e-05
-1.68653e-05
-7.86983e-05
5.33973e-06
9.93976e-07
-7.81028e-05
2.77801e-06
2.03016e-05
-7.62245e-05
2.78752e-06
3.84232e-05
-7.29052e-05
5.81874e-06
5.25271e-05
-6.78391e-05
1.23769e-05
5.9155e-05
-6.07077e-05
2.39663e-05
-4.92774e-05
4.49695e-05
5.41087e-05
-5.10108e-05
-6.53086e-05
3.34595e-05
4.06456e-05
-4.81161e-05
-6.91151e-05
1.30255e-05
-3.81956e-05
-7.00985e-05
1.90811e-06
-2.33967e-05
-7.03318e-05
-5.26634e-06
-4.77488e-06
-6.97965e-05
-9.82583e-06
1.58128e-05
-6.80798e-05
-1.12534e-05
3.56075e-05
-6.48953e-05
-8.77598e-06
5.12304e-05
-6.0125e-05
-1.66028e-06
5.84829e-05
-5.35776e-05
1.16587e-05
-4.32214e-05
3.62588e-05
5.39079e-05
-5.27286e-05
-5.48759e-05
3.15814e-05
4.21103e-05
-5.02159e-05
-5.6665e-05
9.38479e-06
-4.06706e-05
-5.68698e-05
-3.4149e-06
-2.58427e-05
-5.67358e-05
-1.23549e-05
-6.83127e-06
-5.60021e-05
-1.84158e-05
1.4471e-05
-5.41169e-05
-2.07266e-05
3.50208e-05
-5.10435e-05
-1.8488e-05
5.12305e-05
-4.67067e-05
-1.08439e-05
5.89776e-05
-4.1009e-05
3.82518e-06
-3.30866e-05
3.03963e-05
5.48989e-05
-5.2127e-05
-4.12385e-05
2.90727e-05
4.178e-05
-4.97623e-05
-4.09926e-05
6.57414e-06
-4.04604e-05
-4.01656e-05
-7.12505e-06
-2.56045e-05
-3.94065e-05
-1.72746e-05
-6.31873e-06
-3.8207e-05
-2.42119e-05
1.5154e-05
-3.61278e-05
-2.68645e-05
3.5818e-05
-3.30295e-05
-2.45831e-05
5.20404e-05
-2.90914e-05
-1.64844e-05
5.94633e-05
-2.4673e-05
-8.58342e-07
-1.95387e-05
2.67259e-05
5.49896e-05
-4.99535e-05
-2.53831e-05
2.62027e-05
4.03445e-05
-4.7489e-05
-2.34053e-05
4.66278e-06
-3.82945e-05
-2.14626e-05
-8.98217e-06
-2.34282e-05
-1.98466e-05
-1.95848e-05
-4.19315e-06
-1.80932e-05
-2.67731e-05
1.71285e-05
-1.56312e-05
-2.93674e-05
3.73649e-05
-1.25187e-05
-2.68165e-05
5.28607e-05
-9.16547e-06
-1.83099e-05
5.94348e-05
-6.14501e-06
-2.26255e-06
-3.91418e-06
2.53929e-05
5.41933e-05
-4.67102e-05
-8.63707e-06
2.37205e-05
3.8181e-05
-4.38177e-05
-5.31285e-06
4.06317e-06
-3.45111e-05
-2.3983e-06
-8.50693e-06
-1.98097e-05
7.78114e-08
-1.84753e-05
-8.32091e-07
2.60315e-06
-2.5226e-05
1.98532e-05
5.43135e-06
-2.74064e-05
3.90375e-05
8.38208e-06
-2.44542e-05
5.3289e-05
1.11204e-05
-1.57125e-05
5.86309e-05
1.26324e-05
7.36346e-08
1.18102e-05
2.65464e-05
5.26537e-05
-4.23998e-05
7.70518e-06
2.26355e-05
3.50877e-05
-3.87933e-05
1.14364e-05
5.55533e-06
-2.9166e-05
1.48883e-05
-4.93553e-06
-1.46098e-05
1.81546e-05
-1.30489e-05
3.62702e-06
2.12461e-05
-1.84712e-05
2.29832e-05
2.42415e-05
-1.98279e-05
4.06077e-05
2.70962e-05
-1.64645e-05
5.29943e-05
2.90094e-05
-7.9558e-06
5.66205e-05
2.90248e-05
6.49e-06
2.5885e-05
3.03371e-05
4.97085e-05
-3.69276e-05
2.02068e-05
2.47182e-05
3.18928e-05
-3.18993e-05
2.34974e-05
1.13563e-05
-2.16605e-05
2.71399e-05
3.77839e-06
-7.57818e-06
3.07031e-05
-1.45758e-06
9.20026e-06
3.39516e-05
-4.63463e-06
2.65827e-05
3.6927e-05
-4.70996e-06
4.17053e-05
3.92077e-05
-1.07747e-06
5.17271e-05
4.02504e-05
6.41838e-06
5.39188e-05
3.9621e-05
1.81507e-05
3.58405e-05
3.74453e-05
4.61375e-05
-2.74184e-05
3.21856e-05
2.49099e-05
2.71564e-05
-2.02446e-05
2.57215e-05
2.70527e-05
-9.95975e-06
2.27163e-05
3.07121e-05
2.64426e-06
2.13804e-05
3.40603e-05
1.66779e-05
2.11996e-05
3.67938e-05
3.03107e-05
2.26867e-05
3.90992e-05
4.15546e-05
2.61334e-05
4.06637e-05
4.86833e-05
3.1402e-05
4.09941e-05
4.99e-05
3.86736e-05
4.0077e-05
4.95748e-05
4.33467e-05
3.7838e-05
-1.35981e-05
-7.54876e-05
5.15827e-05
9.97706e-06
5.74645e-05
-1.28666e-05
-7.72717e-05
3.61304e-05
5.98553e-05
-9.96893e-06
-7.66769e-05
2.589e-05
6.10149e-05
-4.74054e-06
-7.77308e-05
1.92942e-05
6.36742e-05
3.69699e-06
-7.97662e-05
1.58302e-05
6.54789e-05
1.50146e-05
-8.14556e-05
1.62067e-05
6.57647e-05
2.7288e-05
-8.15581e-05
2.11263e-05
6.40211e-05
3.79547e-05
-7.91468e-05
3.07449e-05
6.00551e-05
4.38231e-05
-7.4055e-05
4.56314e-05
5.42233e-05
-6.5099e-05
6.76721e-05
4.05387e-05
4.90845e-05
-1.83737e-05
-8.42321e-05
4.17588e-05
9.46733e-06
-2.07756e-05
-8.31239e-05
1.63232e-05
-1.92796e-05
-7.98863e-05
4.96642e-07
-1.42233e-05
-7.87841e-05
-1.07724e-05
-4.80306e-06
-7.99512e-05
-1.88951e-05
8.79995e-06
-8.2206e-05
-2.24793e-05
2.45205e-05
-8.41514e-05
-1.97979e-05
3.87997e-05
-8.4143e-05
-9.20632e-06
4.66134e-05
-8.07658e-05
1.13335e-05
-7.17005e-05
4.63472e-05
4.29633e-05
-2.33915e-05
-8.87773e-05
3.58849e-05
1.34381e-05
-2.64791e-05
-8.35465e-05
5.64889e-06
-2.51244e-05
-7.75329e-05
-1.32405e-05
-1.93887e-05
-7.39798e-05
-2.77616e-05
-8.63202e-06
-7.33363e-05
-3.9302e-05
6.64416e-06
-7.50474e-05
-4.58471e-05
2.44025e-05
-7.77855e-05
-4.50603e-05
4.05513e-05
-7.97244e-05
-3.43115e-05
4.91527e-05
-7.86017e-05
-1.08825e-05
-7.18243e-05
3.07123e-05
4.55643e-05
-2.82738e-05
-8.80943e-05
2.95944e-05
1.72818e-05
-3.10554e-05
-7.94411e-05
-2.81065e-06
-2.87558e-05
-7.10715e-05
-2.36221e-05
-2.14894e-05
-6.52023e-05
-4.03927e-05
-8.89338e-06
-6.23066e-05
-5.41005e-05
8.10583e-06
-6.25173e-05
-6.21284e-05
2.7149e-05
-6.5087e-05
-6.22074e-05
4.42281e-05
-6.80807e-05
-5.16464e-05
5.30807e-05
-6.89281e-05
-2.64241e-05
-6.54312e-05
1.86498e-05
4.89682e-05
-3.31237e-05
-8.11796e-05
2.10328e-05
2.19996e-05
-3.47985e-05
-7.00876e-05
-1.18717e-05
-3.08503e-05
-6.01665e-05
-3.35142e-05
-2.14662e-05
-5.25674e-05
-5.14141e-05
-6.60816e-06
-4.77232e-05
-6.57073e-05
1.20613e-05
-4.63572e-05
-7.36326e-05
3.20616e-05
-4.80345e-05
-7.35227e-05
4.94552e-05
-5.10255e-05
-6.28564e-05
5.76465e-05
-5.31523e-05
-3.66009e-05
-5.27257e-05
1.01232e-05
5.20715e-05
-3.834e-05
-6.79215e-05
1.1299e-05
2.78957e-05
-3.83124e-05
-5.53224e-05
-2.08181e-05
-3.22124e-05
-4.46887e-05
-4.21293e-05
-2.03406e-05
-3.62952e-05
-5.98581e-05
-3.1921e-06
-3.04935e-05
-7.33379e-05
1.71962e-05
-2.78774e-05
-8.00914e-05
3.80467e-05
-2.83503e-05
-7.91404e-05
5.52956e-05
-3.05895e-05
-6.7907e-05
6.23751e-05
-3.31366e-05
-4.10298e-05
-3.53741e-05
6.05723e-06
5.50743e-05
-4.40065e-05
-4.95248e-05
2.75656e-06
3.46938e-05
-4.19274e-05
-3.62029e-05
-2.75827e-05
-3.3378e-05
-2.56084e-05
-4.74992e-05
-1.90193e-05
-1.74841e-05
-6.37545e-05
4.69827e-07
-1.15679e-05
-7.55797e-05
2.25262e-05
-8.29602e-06
-8.07588e-05
4.4136e-05
-7.61074e-06
-7.85899e-05
6.10026e-05
-8.61253e-06
-6.62538e-05
6.67141e-05
-1.11594e-05
-3.89441e-05
-1.60899e-05
7.03594e-06
5.7956e-05
-4.96314e-05
-2.78425e-05
-1.9351e-06
4.13769e-05
-4.54898e-05
-1.52399e-05
-2.96791e-05
-3.44149e-05
-5.34009e-06
-4.73139e-05
-1.74043e-05
2.10417e-06
-6.12195e-05
4.31054e-06
7.55193e-06
-7.09059e-05
2.78932e-05
1.1033e-05
-7.43292e-05
5.01442e-05
1.27942e-05
-7.03789e-05
6.60963e-05
1.26584e-05
-5.6434e-05
6.99661e-05
9.85341e-06
-2.93569e-05
2.70473e-06
1.35407e-05
5.96752e-05
-5.46313e-05
-7.74389e-06
5.16483e-07
4.83952e-05
-4.79146e-05
3.30139e-06
-2.33016e-05
-3.40367e-05
1.25303e-05
-3.82084e-05
-1.43902e-05
1.92363e-05
-4.91143e-05
9.26602e-06
2.41474e-05
-5.58996e-05
3.40201e-05
2.75957e-05
-5.67164e-05
5.59065e-05
2.94042e-05
-5.01652e-05
7.01681e-05
2.91117e-05
-3.47297e-05
7.25675e-05
2.5733e-05
-9.69495e-06
1.75031e-05
2.67702e-05
6.13943e-05
-5.48612e-05
1.3313e-05
6.42717e-06
5.17799e-05
-4.56155e-05
-2.28836e-06
1.48913e-05
-2.94181e-05
-1.24824e-05
2.34708e-05
-7.7011e-06
-1.89239e-05
2.92133e-05
1.69516e-05
-2.13231e-05
3.33238e-05
4.10859e-05
-1.82365e-05
3.58097e-05
6.07733e-05
-8.91501e-06
3.64963e-05
7.22284e-05
6.09426e-06
3.52176e-05
7.31823e-05
2.55242e-05
3.1004e-05
4.86931e-05
6.25804e-05
2.42409e-05
3.36111e-05
-2.70121e-05
4.52835e-05
-3.2122e-05
1.46543e-05
2.96693e-05
-2.46765e-05
3.10241e-05
1.62258e-05
1.88049e-05
-2.14695e-05
2.19575e-05
1.74146e-05
5.35573e-06
-2.33449e-05
1.4559e-05
2.19629e-05
-5.55233e-06
-2.96315e-05
9.17086e-06
2.75227e-05
-1.128e-05
-3.87495e-05
8.62836e-06
3.30462e-05
-1.21066e-05
-4.91076e-05
1.50503e-05
3.80989e-05
-9.44671e-06
-5.91214e-05
2.8378e-05
4.23352e-05
-5.82581e-06
-6.81876e-05
4.82664e-05
4.68767e-05
-7.37591e-05
7.61534e-05
-3.06336e-06
5.16025e-05
4.54569e-05
-3.50429e-05
3.15453e-05
-4.32926e-05
4.23936e-05
-2.73797e-05
7.33153e-06
3.17776e-05
-1.85853e-05
-6.97069e-06
1.74641e-05
-1.5882e-05
-1.96337e-05
4.90176e-06
-2.02828e-05
-3.14508e-05
-2.20556e-06
-3.10608e-05
-3.83366e-05
-3.25296e-06
-4.65218e-05
-3.61318e-05
-2.13736e-07
-6.36831e-05
-2.19001e-05
2.63283e-06
-7.87344e-05
6.16343e-06
-8.82056e-05
5.14769e-05
2.43915e-06
5.09506e-05
-4.30578e-05
2.40138e-05
-4.66955e-05
4.96029e-05
-2.97162e-05
-4.80976e-06
4.05315e-05
-1.54611e-05
-2.1973e-05
2.73487e-05
-7.3336e-06
-3.83242e-05
1.5321e-05
-7.85126e-06
-5.45658e-05
7.97021e-06
-1.80328e-05
-6.58069e-05
6.44233e-06
-3.65634e-05
-6.73841e-05
9.0377e-06
-5.97622e-05
-5.44629e-05
1.05194e-05
-8.16769e-05
-2.24724e-05
-9.71595e-05
3.22405e-05
8.15912e-06
4.86287e-05
-4.94231e-05
1.69207e-05
-4.4833e-05
4.88291e-05
-3.10082e-05
-1.53318e-05
4.26141e-05
-1.18678e-05
-3.53332e-05
3.29859e-05
1.77093e-06
-5.44325e-05
2.41689e-05
5.81341e-06
-7.27829e-05
1.89159e-05
-2.22302e-06
-8.5506e-05
1.81254e-05
-2.19256e-05
-8.873e-05
2.03447e-05
-4.92793e-05
-7.73167e-05
2.05506e-05
-7.68683e-05
-4.39817e-05
-9.88475e-05
1.57401e-05
1.53247e-05
3.82959e-05
-5.272e-05
7.54045e-06
-3.63078e-05
3.97766e-05
-2.97256e-05
-2.78321e-05
3.73206e-05
-6.42682e-06
-5.03208e-05
3.29782e-05
1.17233e-05
-7.07329e-05
2.97317e-05
1.96731e-05
-8.88939e-05
2.89337e-05
1.39433e-05
-0.000100662
3.08204e-05
-5.4277e-06
-0.000103455
3.37702e-05
-3.45039e-05
-9.26422e-05
3.27599e-05
-6.56971e-05
-5.8982e-05
-9.29081e-05
2.89636e-06
2.44902e-05
2.06746e-05
-5.16265e-05
-3.57224e-06
-2.13856e-05
2.34252e-05
-2.50018e-05
-4.10765e-05
2.52901e-05
1.11299e-06
-6.45632e-05
2.73013e-05
2.1732e-05
-8.44712e-05
3.10657e-05
3.18201e-05
-0.000100743
3.67422e-05
2.79281e-05
-0.000110214
4.31998e-05
9.85471e-06
-0.000111538
4.8062e-05
-1.86542e-05
-0.000100247
4.64502e-05
-5.04909e-05
-6.62644e-05
-8.07948e-05
-4.26068e-06
3.54861e-05
-1.98229e-06
-4.53298e-05
-1.42562e-05
-1.35935e-06
2.32408e-06
-1.67997e-05
-5.20629e-05
8.84091e-06
9.82099e-06
-7.46562e-05
1.76683e-05
3.02323e-05
-9.26143e-05
2.92218e-05
4.04953e-05
-0.00010621
4.21967e-05
3.76241e-05
-0.00011324
5.42913e-05
2.15855e-05
-0.000112778
6.2117e-05
-4.04502e-06
-9.98169e-05
6.04898e-05
-3.39154e-05
-6.50419e-05
-6.51241e-05
-4.49785e-06
4.76851e-05
-2.60928e-05
-3.34515e-05
-2.1306e-05
2.07314e-05
-1.99817e-05
-5.9899e-06
-5.75355e-05
-8.73443e-06
1.84917e-05
-7.81e-05
6.91696e-06
3.63686e-05
-9.3546e-05
2.60921e-05
4.50002e-05
-0.000104536
4.6367e-05
4.25243e-05
-0.000109341
6.44688e-05
2.93392e-05
-0.000106293
7.51923e-05
8.01345e-06
-9.00806e-05
7.37511e-05
-1.80092e-05
-5.45059e-05
-4.7479e-05
2.42018e-06
5.9309e-05
-4.86814e-05
-1.78775e-05
-2.01437e-05
4.23793e-05
-4.01567e-05
5.64117e-06
-5.32196e-05
-2.39148e-05
2.60856e-05
-7.19068e-05
-1.7209e-06
3.99531e-05
-8.49578e-05
2.45348e-05
4.61458e-05
-9.31764e-05
5.15432e-05
4.3909e-05
-9.47386e-05
7.43893e-05
3.34956e-05
-8.71454e-05
8.71102e-05
1.68059e-05
-6.64679e-05
8.6392e-05
-4.94946e-06
-3.14166e-05
-3.02499e-05
1.77247e-05
7.14887e-05
-6.45586e-05
-4.43741e-06
-2.58038e-06
5.8556e-05
-5.39098e-05
-2.98989e-05
1.51966e-05
-3.29627e-05
-4.58864e-05
3.05318e-05
-4.63241e-06
-5.58305e-05
4.02045e-05
2.7647e-05
-5.96461e-05
4.38809e-05
5.92663e-05
-5.54324e-05
4.12413e-05
8.45124e-05
-4.1505e-05
3.27187e-05
9.74011e-05
-1.78497e-05
2.01461e-05
9.64969e-05
1.18765e-05
2.77777e-06
4.43222e-05
8.09671e-05
-1.49319e-05
5.94979e-05
3.12633e-05
1.32654e-05
-4.5785e-05
-2.25534e-05
6.29704e-05
3.24298e-05
6.75005e-06
-2.16234e-05
5.22938e-05
3.31669e-05
8.4245e-06
-2.01432e-05
3.07026e-05
2.8738e-05
9.966e-06
-1.46518e-05
4.69255e-06
1.89214e-05
1.00766e-05
-6.9366e-06
-2.00192e-05
4.38997e-06
1.28603e-05
2.43502e-06
-3.99165e-05
-1.37939e-05
2.19456e-05
1.31571e-05
-5.17143e-05
-3.40356e-05
3.67633e-05
2.47126e-05
-5.4464e-05
-5.41503e-05
5.61547e-05
3.738e-05
-6.8315e-05
8.17859e-05
-4.68309e-05
4.66706e-05
7.67505e-05
4.41196e-05
-8.56924e-06
-5.86359e-05
8.66762e-05
4.7244e-05
-2.58315e-05
8.23243e-05
5.04314e-05
-2.88634e-05
6.42591e-05
4.81285e-05
-3.09091e-05
3.7887e-05
3.85338e-05
-3.55011e-05
9.46847e-06
2.08556e-05
-3.76946e-05
-1.64925e-05
-4.53439e-06
-3.1386e-05
-3.55478e-05
-3.46584e-05
-1.39004e-05
-4.50516e-05
-6.39178e-05
1.51548e-05
-8.51913e-05
5.93157e-05
-4.35413e-05
8.77614e-05
5.66275e-05
-1.99376e-05
-6.55797e-05
0.000102192
6.14355e-05
-4.16763e-05
0.000102638
6.64292e-05
-4.75306e-05
8.86448e-05
6.67707e-05
-5.2902e-05
6.4279e-05
5.90399e-05
-6.10988e-05
3.51519e-05
4.02356e-05
-6.7048e-05
6.23803e-06
9.53784e-06
-6.41142e-05
-1.78669e-05
-2.9675e-05
-4.71546e-05
-3.28158e-05
-6.92643e-05
-1.31063e-05
-9.97052e-05
4.1414e-05
-3.54181e-05
9.20056e-05
6.64786e-05
-2.56842e-05
-6.89573e-05
0.000108015
7.32076e-05
-5.16665e-05
0.000111318
8.05214e-05
-6.19036e-05
0.000101342
8.38328e-05
-7.14489e-05
8.11512e-05
7.84504e-05
-8.20812e-05
5.51443e-05
5.97961e-05
-8.91266e-05
2.71745e-05
2.53915e-05
-8.7608e-05
1.31324e-06
-2.11761e-05
-7.1786e-05
-1.73649e-05
-6.98889e-05
-3.55987e-05
-0.000109461
2.49199e-05
-2.5048e-05
8.84468e-05
7.2165e-05
-2.91397e-05
-6.73573e-05
0.000103333
8.22113e-05
-6.02878e-05
0.000107357
9.25178e-05
-7.5644e-05
0.000100997
9.87394e-05
-8.89305e-05
8.67366e-05
9.49713e-05
-0.000100606
6.72838e-05
7.60238e-05
-0.000107018
4.47189e-05
3.92634e-05
-0.000104916
2.11791e-05
-1.21468e-05
-8.92891e-05
9.75929e-07
-6.75115e-05
-5.21788e-05
-0.000113631
1.10406e-05
-1.12758e-05
7.66238e-05
7.31167e-05
-3.13588e-05
-5.99143e-05
8.89828e-05
8.76155e-05
-6.753e-05
9.33232e-05
0.000101357
-8.67406e-05
9.07459e-05
0.000109675
-0.000102022
8.34855e-05
0.00010609
-0.000113594
7.3138e-05
8.62144e-05
-0.000118776
5.90152e-05
4.78232e-05
-0.000115427
4.05648e-05
-5.75265e-06
-9.89102e-05
2.10446e-05
-6.36271e-05
-6.11085e-05
-0.00011225
2.27299e-06
5.03394e-06
5.71537e-05
6.96868e-05
-3.24573e-05
-4.57608e-05
6.77741e-05
8.87993e-05
-7.22216e-05
7.37385e-05
0.000105315
-9.31744e-05
7.62599e-05
0.000114494
-0.000108608
7.72073e-05
0.000110077
-0.000119349
7.66088e-05
8.87662e-05
-0.000123355
7.15321e-05
4.97354e-05
-0.000118639
5.92156e-05
-2.97915e-06
-0.00010028
4.14748e-05
-5.90499e-05
-6.17996e-05
-0.000105753
-4.47502e-08
2.29352e-05
3.25715e-05
6.24223e-05
-3.1442e-05
-2.5056e-05
4.33746e-05
8.49085e-05
-7.25115e-05
5.32508e-05
0.000102798
-9.35008e-05
6.27107e-05
0.000111482
-0.000107956
7.23873e-05
0.000105579
-0.000117484
8.07196e-05
8.33431e-05
-0.000120266
8.34891e-05
4.56034e-05
-0.000113597
7.64418e-05
-3.18783e-06
-9.24379e-05
6.08191e-05
-5.32697e-05
-5.39385e-05
-9.37138e-05
4.18913e-06
4.01319e-05
7.84225e-06
5.25756e-05
-2.49883e-05
-2.50916e-06
2.08663e-05
7.5656e-05
-6.4599e-05
3.6328e-05
9.27684e-05
-8.49731e-05
5.33621e-05
9.96715e-05
-9.79319e-05
7.11228e-05
9.23445e-05
-0.000105477
8.6677e-05
7.07175e-05
-0.000105649
9.47173e-05
3.67102e-05
-9.49478e-05
9.13992e-05
-4.79956e-06
-7.04811e-05
7.81429e-05
-4.59279e-05
-3.35273e-05
-7.6954e-05
1.68376e-05
5.65063e-05
-1.2161e-05
-5.33908e-06
3.9336e-05
1.91064e-05
4.35176e-06
-3.70096e-05
6.004e-05
2.60741e-05
-5.53974e-05
7.39366e-05
4.994e-05
-6.59343e-05
7.91138e-05
7.40499e-05
-6.96027e-05
7.12747e-05
9.42668e-05
-6.43852e-05
5.23104e-05
0.000105226
-4.79392e-05
2.49656e-05
0.000103434
-2.19047e-05
-5.66411e-06
9.06273e-05
8.79504e-06
-3.57404e-05
4.21902e-05
6.67275e-05
-5.47985e-05
2.46032e-05
4.4285e-05
-3.18839e-05
-1.10639e-05
-3.04658e-05
3.89011e-05
4.89181e-05
-3.92945e-05
-3.47827e-05
4.12225e-05
5.38673e-05
-2.9107e-05
-3.70953e-05
2.91095e-05
5.38554e-05
-1.50574e-05
-3.51794e-05
6.00087e-06
4.7264e-05
-3.44225e-06
-2.89509e-05
-2.13861e-05
3.42339e-05
7.13018e-06
-1.88279e-05
-4.49823e-05
1.59045e-05
1.90425e-05
-5.97342e-06
-5.74047e-05
-5.34798e-06
3.17874e-05
7.61014e-06
-5.60846e-05
-2.51691e-05
4.60696e-05
2.01371e-05
-3.42248e-05
6.6791e-05
-4.18979e-05
2.50234e-05
3.15893e-05
6.57242e-05
-6.28121e-05
-1.45572e-05
5.16219e-05
7.16335e-05
-8.2613e-05
6.26286e-05
7.84919e-05
-7.86823e-05
5.86025e-05
8.04401e-05
-6.77514e-05
3.91733e-05
7.46193e-05
-5.7553e-05
9.01763e-06
5.97114e-05
-4.69142e-05
-2.3551e-05
3.55838e-05
-3.22725e-05
-4.75793e-05
5.35028e-06
-1.36812e-05
-5.5395e-05
-2.31773e-05
9.35883e-06
-3.84538e-05
4.58129e-05
-4.62556e-05
3.71701e-05
8.87547e-05
-7.71828e-05
-1.77839e-05
5.98723e-05
9.45614e-05
-0.000100023
7.50768e-05
0.000101764
-9.9132e-05
7.62841e-05
0.00010502
-9.18965e-05
6.1146e-05
0.000100356
-8.4634e-05
3.18994e-05
8.43617e-05
-7.54589e-05
-4.29514e-06
5.52021e-05
-6.05934e-05
-3.54344e-05
1.61745e-05
-3.96211e-05
-4.97665e-05
-2.17123e-05
-1.22424e-05
-4.36808e-05
3.18822e-05
-4.3789e-05
3.99042e-05
0.000109847
-8.06554e-05
-2.01547e-05
6.17611e-05
0.000114124
-0.000104793
7.67271e-05
0.00012015
-0.000107306
7.97424e-05
0.000123322
-0.000105032
6.83398e-05
0.000118967
-0.000101301
4.32372e-05
0.000102118
-9.35535e-05
8.94184e-06
6.86079e-05
-7.92062e-05
-2.36589e-05
2.21436e-05
-5.79515e-05
-4.103e-05
-2.30557e-05
-2.84735e-05
-5.02064e-05
2.00477e-05
-3.85461e-05
3.98725e-05
0.000127219
-7.7673e-05
-2.20237e-05
5.76447e-05
0.000129233
-0.000103916
6.86209e-05
0.000132627
-0.000110272
7.05862e-05
0.000133711
-0.000112563
6.21362e-05
0.000127448
-0.000111553
4.26551e-05
0.000108072
-0.00010465
1.44143e-05
7.08647e-05
-9.07004e-05
-1.4307e-05
1.94789e-05
-7.00235e-05
-3.13967e-05
-2.96099e-05
-4.00523e-05
-5.79878e-05
1.04012e-05
-3.16823e-05
3.83917e-05
0.000139421
-7.06738e-05
-2.40039e-05
5.09389e-05
0.000139421
-0.000100465
5.7383e-05
0.000139417
-0.000110226
5.77678e-05
0.000136242
-0.000115286
5.18219e-05
0.000125101
-0.000115548
3.84867e-05
0.000101114
-0.000108757
1.75584e-05
6.00768e-05
-9.49667e-05
-5.6616e-06
6.76517e-06
-7.48521e-05
-2.09173e-05
-4.10435e-05
-4.52873e-05
-6.59809e-05
5.01384e-06
-2.40792e-05
3.68098e-05
0.000145059
-6.1078e-05
-2.58901e-05
4.59607e-05
0.000144347
-9.5712e-05
5.04034e-05
0.000140806
-0.000108485
5.12339e-05
0.000132141
-0.000114906
4.87354e-05
0.000114231
-0.000115245
4.08394e-05
8.3695e-05
-0.000107807
2.56639e-05
3.9352e-05
-9.35568e-05
6.72529e-06
-1.23361e-05
-7.32405e-05
-8.01098e-06
-5.4239e-05
-4.42383e-05
-7.1981e-05
4.65402e-06
-1.47238e-05
3.57253e-05
0.000141111
-4.89727e-05
-2.52824e-05
4.53347e-05
0.000141871
-8.8454e-05
5.19585e-05
0.000136141
-0.000104185
5.6491e-05
0.000122685
-0.000111642
5.82337e-05
9.81277e-05
-0.000111757
5.42625e-05
6.16433e-05
-0.000103524
4.21209e-05
1.60529e-05
-8.80811e-05
2.44014e-05
-3.08825e-05
-6.64234e-05
7.80698e-06
-6.38674e-05
-3.74983e-05
-7.27663e-05
9.299e-06
-3.96537e-06
3.72805e-05
0.0001254
-3.17973e-05
-2.47567e-05
5.10805e-05
0.000128842
-7.34505e-05
6.31822e-05
0.000122605
-9.16047e-05
7.31366e-05
0.000106324
-9.96693e-05
7.86383e-05
7.79791e-05
-9.9183e-05
7.62058e-05
3.95313e-05
-8.98211e-05
6.39192e-05
-3.74652e-06
-7.22358e-05
4.45922e-05
-4.22874e-05
-4.89802e-05
2.43592e-05
-6.52064e-05
-2.0594e-05
-6.60466e-05
2.1315e-05
6.66914e-06
4.17262e-05
-2.17297e-06
9.42904e-05
-2.13578e-05
6.28118e-05
-3.57311e-05
0.000100103
8.155e-05
-5.27774e-05
9.45272e-05
9.60851e-05
-5.98291e-05
7.87177e-05
0.000103422
-5.74873e-05
5.13497e-05
9.96371e-05
-4.6376e-05
1.77752e-05
8.41981e-05
-2.76867e-05
-1.59604e-05
6.04289e-05
-5.48011e-06
-4.19151e-05
3.49125e-05
1.78891e-05
-5.51371e-05
4.56296e-05
1.1263e-05
-5.02693e-05
-2.31891e-05
2.24252e-05
-5.3293e-05
2.54168e-05
-1.17439e-05
-1.11834e-05
3.29641e-05
-7.30436e-05
-2.03503e-05
-1.61507e-07
4.50706e-05
-6.69502e-05
-2.87207e-05
3.69153e-06
5.37343e-05
-4.89274e-05
-3.46223e-05
-1.5899e-06
5.56214e-05
-2.94194e-05
-3.56176e-05
-1.19428e-05
5.04018e-05
-1.25185e-05
-3.1649e-05
-2.01321e-05
3.96104e-05
8.41904e-07
-2.43293e-05
-2.04835e-05
2.70318e-05
1.06928e-05
-1.62065e-05
-1.29491e-05
1.95564e-05
2.10487e-05
-1.21863e-05
2.4103e-05
4.09914e-05
-2.33201e-06
-1.64969e-05
-3.13915e-05
3.84533e-05
-8.71122e-05
3.19069e-05
-2.08219e-05
5.10174e-05
-0.000118492
-8.55919e-06
6.5052e-05
-0.000119084
-1.76918e-06
7.53436e-05
-0.000105237
-5.03712e-06
7.8435e-05
-8.65381e-05
-1.68871e-05
7.2845e-05
-6.68392e-05
-2.99641e-05
5.89005e-05
-4.78179e-05
-3.5323e-05
4.12909e-05
-3.16259e-05
-2.96771e-05
2.96351e-05
-1.48556e-05
3.28692e-05
1.82039e-05
-1.74862e-05
-4.53127e-05
5.50874e-05
-0.000100014
4.39778e-05
-3.65442e-05
6.7223e-05
-0.000131688
-2.47909e-05
7.99898e-05
-0.000133749
-1.64236e-05
8.9873e-05
-0.000123377
-1.69501e-05
9.30455e-05
-0.000107687
-2.71292e-05
8.65673e-05
-8.82437e-05
-4.08862e-05
6.97959e-05
-6.6832e-05
-4.81506e-05
4.79894e-05
-4.79246e-05
-4.32786e-05
3.33814e-05
-2.95711e-05
3.66059e-05
7.46818e-06
-2.94961e-05
-6.25754e-05
7.18051e-05
-9.93545e-05
5.67324e-05
-5.85272e-05
7.99417e-05
-0.000128199
-5.01652e-05