/*--------------------------------*- C++ -*----------------------------------*\
| =========                 |                                                 |
| \\      /  F ield         | OpenFOAM: The Open Source CFD Toolbox           |
|  \\    /   O peration     | Version:  2406                                  |
|   \\  /    A nd           | Website:  www.openfoam.com                      |
|    \\/     M anipulation  |                                                 |
\*---------------------------------------------------------------------------*/
FoamFile
{
    version     2.0;
    format      ascii;
    arch        "LSB;label=32;scalar=64";
    class       volSymmTensorField;
    location    "0.3";
    object      turbulenceProperties:R;
}
// * * * * * * * * * * * * * * * * * * * * * * * * * * * * * * * * * * * * * //

dimensions      [0 2 -2 0 0 0 0];

internalField   uniform (0 0 -0 0 -0 0);

boundaryField
{
    walls
    {
        type            calculated;
        value           nonuniform List<symmTensor> 
2000
(
(-7.29932e-08 6.11716e-08 2.24465e-07 -4.638e-08 -1.88681e-07 1.19373e-07)
(-1.34061e-07 6.62015e-08 3.31112e-07 -2.88388e-08 -2.02188e-07 1.629e-07)
(-1.9656e-07 5.5551e-08 4.50657e-07 -1.19403e-08 -1.8618e-07 2.085e-07)
(-2.42733e-07 3.62907e-08 5.52172e-07 -3.08629e-09 -1.32192e-07 2.4582e-07)
(-2.67562e-07 5.12843e-09 6.10078e-07 1.48424e-09 -4.75343e-08 2.66077e-07)
(-2.6439e-07 -2.75495e-08 6.10266e-07 -2.01141e-09 4.85357e-08 2.66401e-07)
(-2.35263e-07 -5.44571e-08 5.53522e-07 -1.18553e-08 1.33294e-07 2.47119e-07)
(-1.88271e-07 -6.7665e-08 4.53855e-07 -2.33426e-08 1.88023e-07 2.11614e-07)
(-1.34722e-07 -6.73882e-08 3.35437e-07 -3.15549e-08 2.04743e-07 1.66277e-07)
(-8.23322e-08 -5.99867e-08 2.28843e-07 -3.91819e-08 1.91965e-07 1.21514e-07)
(1.93445e-09 7.31437e-10 5.98512e-08 -2.76729e-09 -4.86665e-08 8.3284e-10)
(-3.30183e-09 -1.48101e-09 5.29137e-08 1.95569e-09 -3.04523e-08 1.34614e-09)
(-4.97846e-09 -4.04241e-09 4.63505e-08 2.68355e-09 -1.79557e-08 2.2949e-09)
(-3.7332e-09 -4.08255e-09 4.09496e-08 7.02322e-10 -9.1375e-09 3.03088e-09)
(-2.47443e-09 -3.70257e-09 3.76794e-08 -8.03246e-10 -2.70681e-09 3.27768e-09)
(-1.54497e-09 -2.50194e-09 3.6749e-08 -1.80106e-09 2.77069e-09 3.34603e-09)
(-1.3655e-09 -1.07609e-09 3.76918e-08 -1.90462e-09 8.5745e-09 3.27012e-09)
(-2.04903e-09 4.25991e-10 3.92801e-08 -8.99439e-10 1.54295e-08 2.94847e-09)
(-3.39013e-09 1.28559e-09 4.06923e-08 1.16365e-09 2.36218e-08 2.22647e-09)
(-3.47025e-09 3.33431e-10 4.24495e-08 1.97844e-09 3.45427e-08 1.49181e-09)
(1.19539e-09 -5.75009e-10 2.14676e-08 -4.62987e-10 -1.63662e-08 -7.32407e-10)
(-3.22235e-10 -7.66916e-10 5.45362e-09 6.22927e-10 -2.42164e-09 -3.00692e-10)
(-1.34813e-10 -3.32742e-10 4.33469e-10 1.68238e-10 -1.97114e-11 -3.3425e-11)
(-2.25205e-11 -2.35202e-10 -1.94276e-10 1.62186e-11 1.22408e-10 6.30197e-12)
(1.1208e-10 -4.91123e-10 -1.21828e-09 -1.63674e-10 1.9064e-10 5.15947e-11)
(2.65528e-10 -3.39251e-10 -1.77142e-09 -3.59562e-10 -1.14142e-10 9.40332e-11)
(1.98885e-10 -3.79296e-11 -1.24123e-09 -2.84138e-10 -3.42215e-10 8.52535e-11)
(1.94705e-11 8.84943e-11 -2.99868e-10 -4.85511e-11 -1.77926e-10 2.90806e-11)
(-2.54215e-11 4.45549e-11 4.48671e-11 2.38154e-11 -5.1044e-12 1.60615e-12)
(-4.18166e-10 3.03205e-10 2.4121e-09 4.85543e-10 1.69846e-09 -6.73773e-11)
(-1.01998e-08 -2.58309e-09 4.77753e-08 1.12554e-08 -3.66132e-08 -1.05563e-09)
(-6.24285e-09 -4.04879e-09 1.53754e-08 6.75118e-09 -6.91868e-09 -5.08326e-10)
(-2.28969e-09 -2.73675e-09 2.40383e-09 2.37827e-09 -1.70914e-10 -8.85821e-11)
(-1.1725e-09 -2.76124e-09 -1.04711e-09 1.14855e-09 7.78007e-10 2.39445e-11)
(-5.00573e-10 -4.96123e-09 -5.6265e-09 3.51224e-10 1.04984e-09 1.49349e-10)
(1.23185e-09 -5.88286e-09 -1.00588e-08 -1.52374e-09 -3.82355e-10 2.9189e-10)
(2.53496e-09 -4.42511e-09 -9.14675e-09 -2.82213e-09 -2.23562e-09 2.87176e-10)
(1.81052e-09 -1.58276e-09 -3.22354e-09 -1.89774e-09 -1.63132e-09 8.72285e-11)
(7.21695e-10 -2.90301e-10 3.59378e-11 -7.12467e-10 -1.85838e-10 -9.22839e-12)
(2.61425e-09 -1.65911e-10 5.62529e-09 -2.46125e-09 3.93689e-09 -1.52999e-10)
(-2.21518e-08 -3.47252e-09 3.4611e-08 2.18353e-08 -2.55081e-08 3.16565e-10)
(-1.48825e-08 -7.64578e-09 8.39394e-09 1.45869e-08 -2.23479e-09 2.95575e-10)
(-1.45848e-08 -1.42839e-08 -5.31603e-09 1.38255e-08 4.82581e-09 7.59369e-10)
(-1.78384e-08 -3.25951e-08 -3.3518e-08 1.5939e-08 1.16449e-08 1.89941e-09)
(-1.16028e-08 -5.72004e-08 -8.03062e-08 8.06656e-09 1.00437e-08 3.53622e-09)
(7.39295e-09 -6.91386e-08 -1.13518e-07 -1.20081e-08 -7.21116e-09 4.6151e-09)
(2.55592e-08 -5.67527e-08 -9.81404e-08 -2.97365e-08 -2.49862e-08 4.17735e-09)
(2.51961e-08 -2.70325e-08 -4.53816e-08 -2.73005e-08 -2.16749e-08 2.10438e-09)
(1.49972e-08 -7.97414e-09 -8.53361e-09 -1.56935e-08 -7.44568e-09 6.96299e-10)
(7.78053e-09 -1.28141e-09 3.03748e-09 -8.00291e-09 1.54964e-09 2.22375e-10)
(-1.29851e-08 -2.27952e-09 6.58301e-09 1.25273e-08 -3.67455e-09 4.57852e-10)
(-2.14667e-08 -1.14153e-08 -9.88255e-09 2.06106e-08 9.619e-09 8.56162e-10)
(-3.91057e-08 -3.94212e-08 -6.69157e-08 3.62055e-08 3.38463e-08 2.9002e-09)
(-4.93521e-08 -9.40473e-08 -1.98307e-07 4.32112e-08 5.57136e-08 6.14089e-09)
(-2.8026e-08 -1.52581e-07 -3.5971e-07 1.82791e-08 3.3776e-08 9.74685e-09)
(2.1436e-08 -1.7156e-07 -4.29917e-07 -3.29074e-08 -3.60136e-08 1.14714e-08)
(6.25281e-08 -1.33618e-07 -3.41854e-07 -7.27563e-08 -9.14963e-08 1.02283e-08)
(6.04953e-08 -6.38759e-08 -1.68152e-07 -6.65448e-08 -7.98376e-08 6.04951e-09)
(3.53319e-08 -1.88276e-08 -4.72263e-08 -3.7825e-08 -3.52962e-08 2.49317e-09)
(1.04074e-08 -1.79305e-09 -4.34095e-09 -1.08714e-08 -5.01687e-09 4.63926e-10)
(-4.51518e-09 -1.20841e-09 -1.04162e-08 3.91248e-09 1.08135e-08 6.02704e-10)
(-2.55169e-08 -1.63309e-08 -1.38655e-07 2.22059e-08 9.68772e-08 3.31103e-09)
(-4.33897e-08 -4.87911e-08 -4.92113e-07 3.1422e-08 2.22462e-07 1.19677e-08)
(-4.11155e-08 -7.90116e-08 -9.82672e-07 1.70283e-08 2.51333e-07 2.40872e-08)
(-1.95243e-08 -8.89008e-08 -1.36326e-06 -1.26599e-08 1.10414e-07 3.21842e-08)
(5.12576e-09 -7.49602e-08 -1.43832e-06 -3.80304e-08 -1.26202e-07 3.29047e-08)
(1.90874e-08 -4.65292e-08 -1.1429e-06 -4.54578e-08 -2.99857e-07 2.63703e-08)
(1.71509e-08 -1.74912e-08 -6.59969e-07 -3.28829e-08 -3.01172e-07 1.5732e-08)
(8.07486e-09 -2.53043e-09 -2.36816e-07 -1.38e-08 -1.65026e-07 5.72519e-09)
(2.67133e-09 -1.49234e-11 -3.46932e-08 -3.27377e-09 -3.34244e-08 6.02445e-10)
(3.22193e-08 3.51173e-09 -1.84174e-07 -3.63249e-08 1.68945e-07 4.10557e-09)
(8.19531e-08 3.83092e-08 -8.06611e-07 -9.35195e-08 5.3876e-07 1.15664e-08)
(1.15045e-07 1.21911e-07 -2.08433e-06 -1.44351e-07 9.28099e-07 2.9306e-08)
(9.10488e-08 2.3766e-07 -3.74084e-06 -1.45494e-07 9.59646e-07 5.44448e-08)
(-1.20836e-09 2.92339e-07 -4.99038e-06 -7.24435e-08 4.21052e-07 7.36519e-08)
(-9.53731e-08 2.71534e-07 -5.14201e-06 1.6156e-08 -4.25708e-07 7.92171e-08)
(-1.44755e-07 1.98037e-07 -4.09345e-06 7.82027e-08 -1.04647e-06 6.65526e-08)
(-1.3191e-07 1.04931e-07 -2.38551e-06 8.77688e-08 -1.06577e-06 4.41412e-08)
(-9.0729e-08 4.27999e-08 -9.06269e-07 7.07921e-08 -6.10826e-07 1.99368e-08)
(-3.68232e-08 6.87384e-09 -2.00143e-07 3.13382e-08 -1.8587e-07 5.48506e-09)
(8.01907e-08 9.71829e-09 -4.35427e-07 -7.93328e-08 3.90552e-07 -8.57899e-10)
(1.39668e-07 6.33299e-08 -1.45905e-06 -1.38737e-07 9.67703e-07 -9.31726e-10)
(1.42169e-07 1.32986e-07 -3.3685e-06 -1.4543e-07 1.5009e-06 3.26122e-09)
(8.44324e-08 1.595e-07 -5.76145e-06 -9.60711e-08 1.49207e-06 1.16387e-08)
(1.59655e-08 7.93577e-08 -7.66395e-06 -3.9642e-08 6.74873e-07 2.36765e-08)
(5.35023e-09 2.02565e-09 -8.14792e-06 -4.48501e-08 -6.32911e-07 3.94999e-08)
(1.39079e-08 -7.36447e-09 -6.969e-06 -6.01291e-08 -1.72387e-06 4.62213e-08)
(-2.38301e-09 1.96615e-08 -4.77639e-06 -4.20447e-08 -2.05981e-06 4.44277e-08)
(-5.91515e-08 4.38972e-08 -2.52938e-06 2.61927e-08 -1.62882e-06 3.29588e-08)
(-6.34721e-08 1.85207e-08 -9.56776e-07 4.54052e-08 -8.43474e-07 1.80669e-08)
(1.10434e-08 -3.33735e-09 -3.91007e-07 -4.1297e-09 3.53159e-07 -6.91367e-09)
(-3.02718e-08 -3.35726e-08 -1.5901e-06 4.42577e-08 1.06687e-06 -1.39858e-08)
(-9.97533e-08 -1.49336e-07 -3.91522e-06 1.16946e-07 1.76171e-06 -1.71923e-08)
(-1.24547e-07 -3.76699e-07 -7.16995e-06 1.35549e-07 1.88799e-06 -1.1002e-08)
(-1.81736e-08 -5.85066e-07 -1.03966e-05 5.35276e-09 9.58559e-07 1.28209e-08)
(1.68736e-07 -6.06496e-07 -1.20231e-05 -2.06584e-07 -8.91399e-07 3.78476e-08)
(2.90858e-07 -4.32732e-07 -1.1057e-05 -3.34694e-07 -2.69885e-06 4.3836e-08)
(2.89404e-07 -2.22234e-07 -8.1594e-06 -3.23312e-07 -3.47974e-06 3.39077e-08)
(2.00008e-07 -6.58549e-08 -4.86751e-06 -2.21088e-07 -3.08575e-06 2.10799e-08)
(9.23128e-08 4.70265e-09 -2.3004e-06 -1.04949e-07 -1.99037e-06 1.26367e-08)
(-2.18706e-08 -6.70276e-09 -3.44044e-07 2.98274e-08 3.16732e-07 -7.95678e-09)
(-1.59905e-07 -9.44949e-08 -1.75241e-06 1.78303e-07 1.19071e-06 -1.83989e-08)
(-3.52556e-07 -3.96777e-07 -5.07473e-06 3.74158e-07 2.30662e-06 -2.16015e-08)
(-3.98571e-07 -8.92112e-07 -1.02308e-05 4.04701e-07 2.71085e-06 -6.12945e-09)
(-1.40735e-07 -1.24422e-06 -1.54494e-05 1.15315e-07 1.41978e-06 2.54196e-08)
(2.38364e-07 -1.12379e-06 -1.78131e-05 -2.87135e-07 -1.3495e-06 4.87706e-08)
(3.83184e-07 -6.1505e-07 -1.59627e-05 -4.24611e-07 -3.94588e-06 4.14277e-08)
(2.82358e-07 -2.12893e-07 -1.1132e-05 -2.92719e-07 -4.80423e-06 1.0361e-08)
(1.93271e-07 -6.34842e-08 -6.15927e-06 -1.79277e-07 -3.94127e-06 -1.39936e-08)
(1.59721e-07 -8.28307e-09 -2.80712e-06 -1.3927e-07 -2.43368e-06 -2.04508e-08)
(-1.31482e-08 -3.57227e-09 -2.32849e-07 1.80891e-08 2.19823e-07 -4.94096e-09)
(-1.24489e-07 -6.82982e-08 -1.58662e-06 1.44048e-07 1.08834e-06 -1.9559e-08)
(-3.53326e-07 -3.7802e-07 -5.12628e-06 3.93036e-07 2.32833e-06 -3.97093e-08)
(-4.41442e-07 -9.59899e-07 -1.04432e-05 4.92611e-07 2.73393e-06 -5.11687e-08)
(-1.32659e-07 -1.35657e-06 -1.51295e-05 1.77466e-07 1.33892e-06 -4.48071e-08)
(2.89316e-07 -1.0404e-06 -1.68869e-05 -2.61944e-07 -1.32495e-06 -2.73715e-08)
(2.49538e-07 -2.20148e-07 -1.48023e-05 -2.29236e-07 -3.69684e-06 -2.03023e-08)
(-1.07949e-07 2.0158e-07 -1.00628e-05 1.3618e-07 -4.37928e-06 -2.82304e-08)
(-1.85226e-07 1.06573e-07 -5.28635e-06 2.13761e-07 -3.41821e-06 -2.85341e-08)
(-3.69549e-08 -5.3689e-11 -2.15641e-06 6.25054e-08 -1.88423e-06 -2.55506e-08)
(2.83579e-08 2.60402e-09 -1.72594e-07 -2.65781e-08 1.62652e-07 -1.77974e-09)
(6.20951e-08 2.57868e-08 -1.19732e-06 -4.85471e-08 8.24335e-07 -1.3548e-08)
(-1.3186e-08 -3.23067e-08 -4.1542e-06 5.24387e-08 1.88137e-06 -3.92528e-08)
(-9.7003e-08 -2.68037e-07 -8.40864e-06 1.56876e-07 2.16822e-06 -5.98732e-08)
(1.96987e-08 -4.43817e-07 -1.17692e-05 4.40761e-08 9.83237e-07 -6.37748e-08)
(1.63274e-07 -1.03322e-07 -1.24478e-05 -1.1317e-07 -1.03426e-06 -5.01036e-08)
(-9.71644e-08 5.063e-07 -1.05688e-05 1.35262e-07 -2.66754e-06 -3.80977e-08)
(-5.43099e-07 6.53603e-07 -7.28856e-06 5.81669e-07 -3.1762e-06 -3.85706e-08)
(-5.38084e-07 2.82197e-07 -3.93837e-06 5.69674e-07 -2.55472e-06 -3.15898e-08)
(-2.00835e-07 1.89897e-08 -1.51824e-06 2.2353e-07 -1.33259e-06 -2.26957e-08)
(6.78948e-08 5.74831e-09 -2.58672e-07 -7.45797e-08 2.34601e-07 6.68493e-09)
(2.46316e-07 1.20125e-07 -1.25418e-06 -2.63283e-07 8.49748e-07 1.6967e-08)
(3.94894e-07 3.96181e-07 -3.71127e-06 -4.1628e-07 1.66887e-06 2.13866e-08)
(3.75366e-07 7.70332e-07 -7.20381e-06 -4.03643e-07 1.84866e-06 2.82773e-08)
(1.44088e-07 1.01224e-06 -9.91331e-06 -1.79006e-07 8.14085e-07 3.49183e-08)
(-1.79729e-07 1.16636e-06 -1.02804e-05 1.3414e-07 -8.74124e-07 4.55887e-08)
(-5.9069e-07 1.22198e-06 -8.46477e-06 5.52758e-07 -2.15007e-06 3.79316e-08)
(-9.21759e-07 9.49018e-07 -5.77115e-06 9.04723e-07 -2.51299e-06 1.70366e-08)
(-8.52759e-07 4.23811e-07 -3.18932e-06 8.56213e-07 -2.06836e-06 -3.45421e-09)
(-3.71407e-07 4.64527e-08 -1.18559e-06 3.82669e-07 -1.04111e-06 -1.12618e-08)
(2.8924e-07 4.70819e-08 -1.49036e-06 -3.35338e-07 1.29705e-06 4.60972e-08)
(6.697e-07 3.64093e-07 -3.98779e-06 -7.66616e-07 2.59147e-06 9.69169e-08)
(8.95168e-07 9.86552e-07 -7.99285e-06 -1.04674e-06 3.49729e-06 1.51571e-07)
(8.06484e-07 1.86201e-06 -1.25644e-05 -1.00727e-06 3.18033e-06 2.00789e-07)
(2.17665e-07 2.42412e-06 -1.56046e-05 -4.27249e-07 1.29375e-06 2.09584e-07)
(-5.31249e-07 2.41249e-06 -1.54169e-05 3.42459e-07 -1.27031e-06 1.88791e-07)
(-1.09181e-06 1.93889e-06 -1.22332e-05 9.6162e-07 -3.07469e-06 1.30192e-07)
(-1.21394e-06 1.14365e-06 -7.76503e-06 1.13926e-06 -3.37656e-06 7.4674e-08)
(-9.76771e-07 4.73186e-07 -3.75301e-06 9.61299e-07 -2.45008e-06 1.54714e-08)
(-3.65973e-07 4.80575e-08 -1.06033e-06 3.68438e-07 -9.51952e-07 -2.46486e-09)
(5.83558e-07 1.42179e-07 -5.1174e-06 -6.55467e-07 4.43159e-06 7.19083e-08)
(8.31664e-07 5.24438e-07 -1.09087e-05 -9.69096e-07 6.9664e-06 1.37432e-07)
(8.01366e-07 1.02467e-06 -1.84545e-05 -1.01135e-06 7.95106e-06 2.09989e-07)
(4.97292e-07 1.45573e-06 -2.54059e-05 -7.45035e-07 6.33399e-06 2.47743e-07)
(-2.0432e-08 1.32846e-06 -2.85648e-05 -1.98788e-07 2.30834e-06 2.1922e-07)
(-3.0654e-07 7.29828e-07 -2.60617e-05 1.39342e-07 -2.19824e-06 1.67198e-07)
(-2.16713e-07 1.66863e-07 -1.87863e-05 1.05974e-07 -4.78064e-06 1.10739e-07)
(-1.15301e-08 -5.42319e-08 -1.06239e-05 -6.60473e-08 -4.68913e-06 7.75774e-08)
(-5.76939e-08 2.58991e-08 -4.11428e-06 1.89741e-08 -2.72793e-06 3.87198e-08)
(-3.98922e-08 4.30179e-09 -9.6229e-07 1.95224e-08 -8.67251e-07 2.03697e-08)
(7.48264e-08 1.90911e-08 -5.99542e-06 -5.87084e-08 5.21333e-06 -1.6118e-08)
(1.86129e-08 6.85215e-10 -1.34781e-05 1.8502e-09 8.61816e-06 -2.04631e-08)
(-2.46728e-07 -2.86502e-07 -2.38856e-05 2.672e-07 1.02652e-05 -2.04717e-08)
(-3.63892e-07 -7.63607e-07 -3.32653e-05 3.57025e-07 8.1911e-06 6.86694e-09)
(-2.24432e-07 -1.39418e-06 -3.68243e-05 1.95076e-07 2.82387e-06 2.93567e-08)
(2.57628e-07 -1.80313e-06 -3.30826e-05 -3.15666e-07 -2.91401e-06 5.80387e-08)
(7.94612e-07 -1.62185e-06 -2.45118e-05 -8.80202e-07 -6.29463e-06 8.55898e-08)
(9.54716e-07 -9.61397e-07 -1.50192e-05 -1.05245e-06 -6.59119e-06 9.77311e-08)
(6.07303e-07 -2.91748e-07 -7.64952e-06 -6.92766e-07 -4.93722e-06 8.54634e-08)
(2.15324e-07 -1.92563e-08 -3.34093e-06 -2.74001e-07 -2.90781e-06 5.86774e-08)
(9.32737e-08 -4.26962e-09 -4.63373e-06 -8.11443e-08 4.04886e-06 -1.21294e-08)
(4.33624e-07 1.59984e-07 -1.18054e-05 -4.15834e-07 7.59173e-06 -1.77892e-08)
(7.04039e-07 5.47932e-07 -2.29661e-05 -6.66419e-07 9.92186e-06 -3.76197e-08)
(8.12287e-07 1.35469e-06 -3.45778e-05 -7.99582e-07 8.57713e-06 -1.27052e-08)
(3.67214e-07 2.00633e-06 -4.14096e-05 -3.84962e-07 3.24932e-06 1.77484e-08)
(-3.08529e-07 2.00335e-06 -4.02683e-05 2.6476e-07 -3.47952e-06 4.37693e-08)
(-7.5172e-07 1.49307e-06 -3.22623e-05 6.93881e-07 -8.22802e-06 5.78396e-08)
(-8.31011e-07 8.59542e-07 -2.15276e-05 7.74146e-07 -9.39669e-06 5.68645e-08)
(-6.74282e-07 3.64703e-07 -1.2028e-05 6.38811e-07 -7.73456e-06 3.54718e-08)
(-3.40981e-07 6.57398e-08 -5.56334e-06 3.31428e-07 -4.84706e-06 9.55354e-09)
(7.07597e-07 1.41956e-07 -5.34202e-06 -7.46726e-07 4.61987e-06 3.9129e-08)
(1.0939e-06 5.97955e-07 -1.22148e-05 -1.15617e-06 7.8159e-06 6.22727e-08)
(1.28738e-06 1.36016e-06 -2.25715e-05 -1.39019e-06 9.74745e-06 1.02807e-07)
(1.23713e-06 2.6079e-06 -3.3267e-05 -1.39457e-06 8.31097e-06 1.57447e-07)
(5.16563e-07 3.88107e-06 -4.00383e-05 -6.91219e-07 3.28094e-06 1.74656e-07)
(-8.20949e-07 4.64931e-06 -4.03758e-05 6.59795e-07 -3.28447e-06 1.61154e-07)
(-2.29366e-06 4.35155e-06 -3.45703e-05 2.17211e-06 -8.60284e-06 1.21551e-07)
(-3.0383e-06 2.96094e-06 -2.48681e-05 2.97064e-06 -1.07061e-05 6.7652e-08)
(-2.58905e-06 1.26984e-06 -1.44514e-05 2.58677e-06 -9.23611e-06 2.2764e-09)
(-1.29619e-06 1.69319e-07 -6.56726e-06 1.32103e-06 -5.71979e-06 -2.4834e-08)
(7.87194e-07 1.40898e-07 -8.8192e-06 -8.34693e-07 7.5744e-06 4.74997e-08)
(8.64505e-07 4.85156e-07 -1.79528e-05 -9.38956e-07 1.13908e-05 7.44514e-08)
(6.79197e-07 7.75806e-07 -3.06941e-05 -8.06549e-07 1.31405e-05 1.27352e-07)
(5.47434e-07 1.1538e-06 -4.21758e-05 -7.20895e-07 1.03931e-05 1.73461e-07)
(3.67402e-07 1.86728e-06 -4.68932e-05 -5.64305e-07 3.69057e-06 1.96903e-07)
(-3.19455e-07 3.0914e-06 -4.37192e-05 1.26763e-07 -3.66208e-06 1.92692e-07)
(-1.73087e-06 3.79807e-06 -3.52393e-05 1.59918e-06 -8.80119e-06 1.31683e-07)
(-2.90118e-06 3.05463e-06 -2.45512e-05 2.8501e-06 -1.05568e-05 5.10828e-08)
(-2.75148e-06 1.41569e-06 -1.38976e-05 2.76993e-06 -8.87098e-06 -1.84487e-08)
(-1.40788e-06 1.82111e-07 -6.0586e-06 1.43699e-06 -5.27035e-06 -2.91132e-08)
(5.67089e-07 -2.06751e-08 -1.13129e-05 -4.86725e-07 9.69336e-06 -8.03644e-08)
(9.37838e-07 3.549e-07 -2.25715e-05 -8.15937e-07 1.42463e-05 -1.21901e-07)
(9.38798e-07 7.72109e-07 -3.70019e-05 -7.99906e-07 1.57241e-05 -1.38892e-07)
(8.55861e-07 1.25793e-06 -4.97554e-05 -7.26691e-07 1.21627e-05 -1.2917e-07)
(6.45167e-07 2.08671e-06 -5.5586e-05 -5.5763e-07 4.30326e-06 -8.75371e-08)
(-1.63842e-07 3.3186e-06 -5.19668e-05 1.93623e-07 -4.41547e-06 -2.97807e-08)
(-1.64246e-06 3.89198e-06 -4.13384e-05 1.67759e-06 -1.03795e-05 -3.5128e-08)
(-2.67611e-06 2.92219e-06 -2.77848e-05 2.7456e-06 -1.199e-05 -6.9496e-08)
(-2.40036e-06 1.27352e-06 -1.48805e-05 2.48826e-06 -9.53352e-06 -8.78916e-08)
(-1.13376e-06 1.61119e-07 -5.97739e-06 1.19331e-06 -5.21675e-06 -5.95521e-08)
(3.66024e-07 -1.07518e-07 -5.05491e-06 -2.2515e-07 4.39554e-06 -1.40874e-07)
(1.2088e-06 3.48636e-07 -1.22415e-05 -9.46669e-07 7.86753e-06 -2.62133e-07)
(1.71289e-06 1.20731e-06 -2.30338e-05 -1.30794e-06 9.95863e-06 -4.04955e-07)
(1.68909e-06 2.2562e-06 -3.39566e-05 -1.19247e-06 8.45922e-06 -4.96622e-07)
(1.05662e-06 3.11726e-06 -4.02432e-05 -5.30739e-07 3.23151e-06 -5.25882e-07)
(-1.81661e-08 3.41855e-06 -3.88606e-05 4.93506e-07 -3.24955e-06 -4.7534e-07)
(-1.086e-06 2.96159e-06 -3.0835e-05 1.48265e-06 -7.76092e-06 -3.96647e-07)
(-1.43059e-06 1.71547e-06 -1.97456e-05 1.72317e-06 -8.58533e-06 -2.92578e-07)
(-1.05844e-06 6.15672e-07 -9.62535e-06 1.23543e-06 -6.24276e-06 -1.76995e-07)
(-3.89878e-07 8.25105e-08 -3.20478e-06 4.64007e-07 -2.83462e-06 -7.41287e-08)
(-1.00368e-08 -2.65183e-08 -6.47877e-07 3.22393e-08 5.95772e-07 -2.22025e-08)
(2.62098e-07 8.68763e-08 -3.08369e-06 -1.86517e-07 2.08816e-06 -7.55815e-08)
(4.94886e-07 3.52827e-07 -8.20714e-06 -3.3176e-07 3.69416e-06 -1.63126e-07)
(5.92032e-07 8.08794e-07 -1.46508e-05 -3.65981e-07 3.79479e-06 -2.26051e-07)
(3.84519e-07 1.2598e-06 -1.90859e-05 -1.33019e-07 1.62696e-06 -2.515e-07)
(-4.6104e-08 1.35997e-06 -1.88722e-05 2.83012e-07 -1.56212e-06 -2.36908e-07)
(-4.12561e-07 1.09309e-06 -1.43854e-05 6.14892e-07 -3.6683e-06 -2.02331e-07)
(-4.62668e-07 5.7721e-07 -8.30607e-06 6.09633e-07 -3.68421e-06 -1.46965e-07)
(-3.0818e-07 1.92142e-07 -3.3653e-06 3.8518e-07 -2.23937e-06 -7.69999e-08)
(-1.17885e-07 2.94907e-08 -8.40662e-07 1.39205e-07 -7.60519e-07 -2.13206e-08)
(-4.39393e-08 -9.06266e-09 -4.66966e-08 4.25778e-08 5.39544e-08 1.36153e-09)
(-5.96888e-08 -1.39989e-08 -7.64171e-07 5.63986e-08 5.70621e-07 3.29013e-09)
(-1.05741e-07 -2.16077e-08 -3.69314e-06 1.11642e-07 1.75203e-06 -5.90099e-09)
(-1.286e-07 -1.74642e-09 -7.92741e-06 1.28927e-07 2.14065e-06 -3.2701e-10)
(-1.38856e-07 1.55143e-07 -1.16519e-05 1.20731e-07 1.06836e-06 1.81248e-08)
(-2.30336e-07 3.825e-07 -1.23437e-05 2.00157e-07 -9.96773e-07 3.01791e-08)
(-3.75757e-07 4.59704e-07 -9.28771e-06 3.5011e-07 -2.38979e-06 2.56478e-08)
(-4.08766e-07 3.20226e-07 -5.01854e-06 4.03497e-07 -2.25897e-06 5.26867e-09)
(-2.57317e-07 1.0837e-07 -1.76754e-06 2.59089e-07 -1.19863e-06 -1.77222e-09)
(-1.16379e-07 1.51425e-08 -3.6297e-07 1.12679e-07 -3.3246e-07 3.69955e-09)
(-1.55184e-07 -2.88491e-08 2.07511e-08 1.54262e-07 1.25858e-08 9.22536e-10)
(-3.43715e-07 -1.73221e-07 -4.53255e-07 3.42486e-07 3.66975e-07 1.22866e-09)
(-5.6792e-07 -5.50931e-07 -1.98436e-06 5.68692e-07 9.66389e-07 -7.72553e-10)
(-4.9736e-07 -9.14512e-07 -4.31028e-06 4.92634e-07 1.19204e-06 4.72649e-09)
(-1.66313e-07 -8.28554e-07 -6.34758e-06 1.56336e-07 6.05677e-07 9.97731e-09)
(6.58253e-09 -3.39567e-07 -6.90608e-06 -1.43192e-08 -5.28109e-07 7.73672e-09)
(-7.32806e-08 1.0458e-08 -5.60867e-06 6.86611e-08 -1.40941e-06 4.61948e-09)
(-1.13526e-07 4.50793e-08 -3.2801e-06 1.19516e-07 -1.45019e-06 -5.98948e-09)
(4.04285e-09 -3.31881e-08 -1.2509e-06 -7.78717e-09 -8.34901e-07 3.74432e-09)
(-2.58889e-09 -5.49441e-09 -2.60937e-07 -1.57267e-09 -2.25924e-07 4.16155e-09)
(-3.25981e-07 -5.68059e-08 9.7367e-08 3.2609e-07 -3.95155e-08 -1.08752e-10)
(-6.08927e-07 -3.20117e-07 -3.45683e-07 6.18437e-07 2.92028e-07 -9.50933e-09)
(-7.85508e-07 -8.29963e-07 -1.25338e-06 7.98197e-07 5.94403e-07 -1.2689e-08)
(-4.94765e-07 -1.09807e-06 -1.98774e-06 5.10142e-07 5.23185e-07 -1.53768e-08)
(-8.65539e-08 -9.25455e-07 -2.38983e-06 1.06585e-07 2.11447e-07 -2.00316e-08)
(1.44302e-07 -6.72654e-07 -2.54356e-06 -1.10938e-07 -1.93232e-07 -3.33641e-08)
(2.98058e-07 -5.58212e-07 -2.398e-06 -2.58271e-07 -5.84868e-07 -3.97871e-08)
(4.49466e-07 -4.5134e-07 -1.8626e-06 -4.12835e-07 -7.97783e-07 -3.66311e-08)
(5.62859e-07 -2.90519e-07 -1.14956e-06 -5.5616e-07 -7.46368e-07 -6.69851e-09)
(2.16724e-07 -2.60516e-08 -3.5976e-07 -2.18332e-07 -3.17773e-07 1.60815e-09)
(-4.95234e-08 -8.20848e-09 1.12962e-08 4.69852e-08 -4.52058e-09 2.53812e-09)
(-1.09095e-07 -5.71293e-08 -9.61884e-08 1.08291e-07 7.83095e-08 8.04398e-10)
(-1.69349e-07 -1.779e-07 -4.76566e-07 1.68103e-07 2.20054e-07 1.24612e-09)
(-1.13449e-07 -2.51996e-07 -8.79183e-07 1.10972e-07 2.20457e-07 2.47657e-09)
(-2.54448e-08 -2.10506e-07 -1.15945e-06 2.16513e-08 9.05433e-08 3.79354e-09)
(2.48817e-08 -2.01126e-07 -1.3215e-06 -2.36158e-08 -1.08429e-07 -1.26588e-09)
(1.2927e-07 -2.93287e-07 -1.43688e-06 -1.23335e-07 -3.53172e-07 -5.93426e-09)
(3.03206e-07 -3.30974e-07 -1.33903e-06 -2.91868e-07 -5.75234e-07 -1.13382e-08)
(4.79191e-07 -2.58056e-07 -9.65663e-07 -4.82478e-07 -6.30818e-07 3.28742e-09)
(2.03194e-07 -2.60863e-08 -3.35154e-07 -2.0675e-07 -2.90062e-07 3.55663e-09)
(-1.22298e-08 -4.52906e-09 -6.7018e-08 5.55875e-09 5.58572e-08 6.67105e-09)
(6.81754e-09 -1.38104e-09 -1.59205e-07 -1.6168e-08 1.10227e-07 9.35045e-09)
(6.02676e-08 5.38389e-08 -4.83e-07 -7.79394e-08 2.2256e-07 1.76718e-08)
(9.94407e-08 2.00478e-07 -1.09086e-06 -1.27962e-07 2.85478e-07 2.85216e-08)
(2.7938e-08 3.4172e-07 -1.8514e-06 -6.58718e-08 1.60328e-07 3.79338e-08)
(-9.71873e-08 2.50136e-07 -2.56627e-06 5.71504e-08 -2.05562e-07 4.00369e-08)
(-3.44338e-08 -9.82316e-08 -2.87568e-06 -7.41864e-09 -7.25253e-07 4.18524e-08)
(2.23161e-07 -3.22637e-07 -2.42428e-06 -2.61199e-07 -1.05929e-06 3.80388e-08)
(5.2805e-07 -3.27263e-07 -1.72991e-06 -5.66704e-07 -1.10583e-06 3.86534e-08)
(5.34029e-07 -1.16581e-07 -1.1867e-06 -5.56526e-07 -9.6525e-07 2.24963e-08)
(-4.86541e-07 -1.08656e-07 -2.09221e-06 3.89892e-07 1.73465e-06 9.66486e-08)
(-2.09032e-07 -1.2546e-07 -2.60766e-06 5.30285e-08 1.63922e-06 1.56003e-07)
(3.10311e-07 3.03926e-07 -3.59444e-06 -5.31797e-07 1.56431e-06 2.21486e-07)
(7.28775e-07 1.48105e-06 -5.63043e-06 -1.01729e-06 1.4644e-06 2.88511e-07)
(4.08885e-07 3.24377e-06 -8.59199e-06 -7.37351e-07 7.94611e-07 3.28466e-07)
(-8.8218e-07 4.20125e-06 -1.13435e-05 5.93871e-07 -8.28544e-07 2.88308e-07)
(-1.99836e-06 3.28627e-06 -1.2527e-05 1.80074e-06 -3.04593e-06 1.97622e-07)
(-1.80466e-06 1.391e-06 -1.14431e-05 1.7051e-06 -4.88676e-06 9.95617e-08)
(-3.43336e-07 -1.00721e-07 -8.26232e-06 2.91231e-07 -5.25406e-06 5.21051e-08)
(8.08916e-07 -3.25372e-07 -5.12803e-06 -8.2179e-07 -4.30618e-06 1.28734e-08)
(-2.04414e-06 -2.02494e-07 -1.11926e-05 1.77933e-06 9.57099e-06 2.64807e-07)
(-3.05944e-06 -1.3339e-06 -2.07233e-05 2.4368e-06 1.2826e-05 6.22639e-07)
(-1.78851e-06 -1.48957e-06 -2.90671e-05 7.37577e-07 1.20691e-05 1.05093e-06)
(2.81995e-07 9.75107e-07 -3.32305e-05 -1.51532e-06 7.91924e-06 1.23332e-06)
(6.44055e-07 5.04214e-06 -3.39799e-05 -1.78039e-06 2.58379e-06 1.13634e-06)
(-1.46138e-06 8.30293e-06 -3.22168e-05 5.84744e-07 -2.67475e-06 8.76638e-07)
(-4.62091e-06 8.59861e-06 -2.76647e-05 4.059e-06 -6.89026e-06 5.61908e-07)
(-6.08864e-06 5.7086e-06 -2.02434e-05 5.84814e-06 -8.73285e-06 2.40492e-07)
(-4.68792e-06 2.14034e-06 -1.21197e-05 4.68569e-06 -7.79515e-06 2.23268e-09)
(-2.07355e-06 2.08277e-07 -5.88543e-06 2.16876e-06 -5.04119e-06 -9.52106e-08)
(6.31174e-06 7.89484e-07 -2.19323e-05 -6.40988e-06 1.88933e-05 9.81405e-08)
(1.23359e-05 6.50428e-06 -5.08336e-05 -1.25655e-05 3.17164e-05 2.29631e-07)
(9.96799e-06 1.05708e-05 -8.59133e-05 -1.01476e-05 3.56342e-05 1.79646e-07)
(5.78474e-06 1.21753e-05 -0.000105171 -6.29955e-06 2.43001e-05 5.14813e-07)
(1.21762e-06 1.11111e-05 -9.66382e-05 -1.9931e-06 6.15409e-06 7.75479e-07)
(-1.91814e-06 8.82285e-06 -7.3965e-05 1.09156e-06 -7.07536e-06 8.26579e-07)
(-3.67078e-06 6.61769e-06 -4.96837e-05 3.02248e-06 -1.29595e-05 6.48298e-07)
(-4.08451e-06 4.11295e-06 -2.59354e-05 3.72487e-06 -1.16173e-05 3.5964e-07)
(-3.6702e-06 2.00374e-06 -9.6198e-06 3.5959e-06 -6.45807e-06 7.42982e-08)
(-2.20717e-06 4.10221e-07 -2.73908e-06 2.23723e-06 -2.46265e-06 -3.00679e-08)
(1.30392e-05 1.35479e-06 -2.10567e-05 -1.30084e-05 1.82873e-05 -3.07737e-08)
(3.09529e-05 1.56023e-05 -5.41431e-05 -3.06659e-05 3.46418e-05 -2.87002e-07)
(3.06552e-05 3.17665e-05 -9.00013e-05 -2.9683e-05 3.85025e-05 -9.72218e-07)
(1.92338e-05 4.07077e-05 -0.000112579 -1.82965e-05 2.77557e-05 -9.37387e-07)
(4.48352e-06 3.74644e-05 -0.000115909 -3.36063e-06 9.37865e-06 -1.12289e-06)
(-4.83305e-06 2.29128e-05 -0.000103638 5.98176e-06 -8.49626e-06 -1.14872e-06)
(-5.806e-06 9.25808e-06 -7.94642e-05 6.23419e-06 -2.02253e-05 -4.28191e-07)
(-4.12249e-06 3.56908e-06 -4.39836e-05 3.90909e-06 -1.98853e-05 2.13399e-07)
(-3.00722e-06 1.53425e-06 -1.29422e-05 2.88858e-06 -9.00982e-06 1.1865e-07)
(-9.68334e-07 1.88303e-07 -1.37691e-06 9.59754e-07 -1.38556e-06 8.58011e-09)
(6.10823e-06 1.31011e-06 -8.03296e-06 -6.07699e-06 7.11543e-06 -3.12418e-08)
(5.66348e-06 3.34562e-06 -1.30862e-05 -5.40593e-06 8.83725e-06 -2.57548e-07)
(1.76928e-06 2.93236e-06 -2.15712e-05 -1.29159e-06 1.00699e-05 -4.77687e-07)
(-3.473e-06 -3.04225e-06 -3.7809e-05 3.63344e-06 1.03394e-05 -1.60434e-07)
(-2.63917e-06 -8.18581e-06 -4.76203e-05 2.24268e-06 4.47997e-06 3.96494e-07)
(5.12701e-07 -3.56283e-06 -4.32715e-05 -9.82751e-07 -3.24098e-06 4.7005e-07)
(-6.25457e-07 2.95696e-06 -3.52896e-05 4.62638e-07 -8.52488e-06 1.62819e-07)
(-4.69602e-06 5.44961e-06 -2.79348e-05 4.70456e-06 -1.20048e-05 -8.53554e-09)
(-3.72076e-06 1.80299e-06 -1.09606e-05 3.78334e-06 -7.41156e-06 -6.25765e-08)
(-2.44436e-07 5.06459e-09 -6.02097e-07 2.39713e-07 -6.45254e-07 4.72307e-09)
(-7.64329e-06 -5.37516e-07 -1.10623e-05 7.54778e-06 1.01107e-05 9.55134e-08)
(-2.82893e-05 -1.25575e-05 -3.65595e-05 2.68456e-05 2.40335e-05 1.44368e-06)
(-2.3604e-05 -2.24935e-05 -5.24755e-05 2.10133e-05 2.23645e-05 2.59077e-06)
(-1.03827e-05 -2.00093e-05 -5.34365e-05 8.16811e-06 1.26899e-05 2.21457e-06)
(-3.06272e-06 -1.47756e-05 -4.90565e-05 1.02925e-06 3.68271e-06 2.03347e-06)
(5.85773e-07 -9.65535e-06 -4.64536e-05 -2.38879e-06 -3.61589e-06 1.80302e-06)
(2.43982e-06 -5.45555e-06 -4.32059e-05 -3.3136e-06 -1.03316e-05 8.73777e-07)
(4.43641e-06 -4.20137e-06 -3.42984e-05 -4.37804e-06 -1.44999e-05 -5.83687e-08)
(5.45717e-06 -2.84064e-06 -1.80464e-05 -5.3306e-06 -1.15996e-05 -1.26565e-07)
(4.579e-06 -8.37812e-07 -6.19261e-06 -4.62244e-06 -5.59942e-06 4.34303e-08)
(-4.77608e-05 -8.47984e-06 -7.10659e-05 4.5914e-05 6.23294e-05 1.84681e-06)
(-5.71545e-05 -2.92796e-05 -0.00014781 5.27024e-05 9.40199e-05 4.45215e-06)
(-3.13197e-05 -2.97695e-05 -0.000230154 2.46193e-05 9.75349e-05 6.70039e-06)
(-1.6487e-05 -2.54982e-05 -0.000303046 9.8316e-06 7.23557e-05 6.65544e-06)
(-6.3968e-06 -2.5367e-05 -0.000317164 4.20088e-07 2.08898e-05 5.97671e-06)
(4.05676e-07 -1.65937e-05 -0.000253649 -5.97457e-06 -2.64556e-05 5.56889e-06)
(-5.66942e-07 -6.02496e-06 -0.000151649 -3.92897e-06 -4.24237e-05 4.49591e-06)
(-7.46768e-07 -2.05023e-06 -7.08097e-05 -1.30101e-06 -3.31539e-05 2.04778e-06)
(1.52987e-06 -1.27489e-06 -2.8642e-05 -2.13983e-06 -1.92278e-05 6.09956e-07)
(2.83753e-07 -1.13811e-08 -1.36395e-05 -4.37451e-07 -1.19399e-05 1.53698e-07)
(-7.12268e-05 -1.32443e-05 -8.08945e-05 7.20284e-05 7.05322e-05 -8.01604e-07)
(-8.83742e-05 -5.05491e-05 -0.000165074 8.95735e-05 0.000106855 -1.19928e-06)
(-4.29512e-05 -5.64339e-05 -0.000264347 4.3076e-05 0.000117489 -1.24828e-07)
(1.0809e-05 -7.13538e-06 -0.000389244 -1.00588e-05 0.000101161 -7.50277e-07)
(3.3927e-05 8.47005e-05 -0.000505198 -2.87072e-05 4.15072e-05 -5.21979e-06)
(-5.73464e-06 0.000164613 -0.000515865 1.24206e-05 -4.84766e-05 -6.68592e-06)
(-8.11683e-05 0.000164722 -0.000396361 8.0682e-05 -0.00010936 4.86241e-07)
(-0.000112198 9.23614e-05 -0.000225741 0.000105375 -0.000106811 6.82351e-06)
(-6.47818e-05 2.02076e-05 -8.57481e-05 6.00096e-05 -5.99549e-05 4.7722e-06)
(-1.57314e-05 -1.34022e-07 -2.00147e-05 1.51309e-05 -1.89579e-05 6.00503e-07)
(-3.17172e-05 -4.32148e-06 -1.32049e-05 3.28932e-05 1.05414e-05 -1.17604e-06)
(-7.8725e-05 -3.97904e-05 -2.72768e-05 8.26072e-05 1.6236e-05 -3.88224e-06)
(-9.22264e-05 -9.96069e-05 -4.00935e-05 9.68787e-05 1.72643e-05 -4.65227e-06)
(-2.70621e-05 -7.0939e-05 -3.07803e-05 2.80589e-05 9.23141e-06 -9.96749e-07)
(1.90506e-06 -3.69334e-06 -1.06603e-05 -2.55223e-06 1.98112e-06 6.47175e-07)
(-1.88505e-06 6.38617e-05 -5.19212e-05 -4.58119e-07 1.05144e-06 2.34317e-06)
(-0.000120622 0.000287903 -0.00017981 0.000123065 -3.28747e-05 -2.44238e-06)
(-0.000337693 0.000340735 -0.000257121 0.00034099 -0.000101491 -3.29784e-06)
(-0.000293002 0.000121338 -0.000177025 0.000289349 -0.000111347 3.65317e-06)
(-8.68527e-05 3.21609e-06 -5.84412e-05 8.54742e-05 -5.24108e-05 1.37855e-06)
(-1.65172e-06 -1.77662e-07 -1.58101e-07 1.67605e-06 5.07516e-08 -2.43306e-08)
(-4.8506e-06 -2.00302e-06 2.96454e-10 4.9695e-06 -3.21735e-07 -1.18902e-07)
(-1.78602e-05 -1.47255e-05 1.92534e-06 1.81602e-05 -1.64939e-06 -2.9997e-07)
(-4.35086e-05 -7.11109e-05 7.14955e-06 4.38038e-05 -2.36621e-06 -2.95243e-07)
(-3.22153e-05 -0.000162338 5.4911e-06 3.01752e-05 2.86675e-06 2.0401e-06)
(1.78171e-05 -0.000104798 -1.11286e-05 -2.23116e-05 4.72748e-06 4.49447e-06)
(4.91904e-06 -6.54242e-06 -6.61734e-06 -6.14394e-06 1.41854e-07 1.22489e-06)