/*--------------------------------*- C++ -*----------------------------------*\
| =========                 |                                                 |
| \\      /  F ield         | OpenFOAM: The Open Source CFD Toolbox           |
|  \\    /   O peration     | Version:  2406                                  |
|   \\  /    A nd           | Website:  www.openfoam.com                      |
|    \\/     M anipulation  |                                                 |
\*---------------------------------------------------------------------------*/
FoamFile
{
    version     2.0;
    format      ascii;
    arch        "LSB;label=32;scalar=64";
    class       volSymmTensorField;
    location    "0.3";
    object      turbulenceProperties:devReff;
}
// * * * * * * * * * * * * * * * * * * * * * * * * * * * * * * * * * * * * * //

dimensions      [0 2 -2 0 0 0 0];

internalField   nonuniform List<symmTensor> 
25000
(
(0.016666 0.031974 -0.0114996 0.0233704 -0.00879636 -0.0400364)
(0.00707618 0.0229289 -0.00560889 0.0293274 0.00892407 -0.0364036)
(0.00670512 0.0221504 -0.000760083 0.0318006 0.0219513 -0.0385058)
(0.0058514 0.0211069 0.00193844 0.0336888 0.0300325 -0.0395402)
(0.00481168 0.016746 0.00188948 0.0358377 0.0336114 -0.0406493)
(0.00477172 0.0115156 -5.53934e-05 0.0373542 0.0335328 -0.0421259)
(0.00549435 0.00563021 -0.00198877 0.038182 0.0302889 -0.0436763)
(0.00473761 0.00055695 -0.00265268 0.0404569 0.0236324 -0.0451945)
(0.00424575 -0.00341149 -0.00334099 0.0439676 0.0131809 -0.0482133)
(0.0198609 -0.0228376 -0.00280546 0.04032 -0.000548714 -0.0601809)
(0.024201 0.0250082 0.00627375 0.0169245 -1.62172e-05 -0.0411255)
(0.0105455 0.0176548 0.00912117 0.0182212 0.0142528 -0.0287668)
(0.0056719 0.0161877 0.0106736 0.0195677 0.0227934 -0.0252396)
(0.00139473 0.0152171 0.0102816 0.020781 0.0278319 -0.0221758)
(-0.00150404 0.0125333 0.007241 0.0217325 0.0300238 -0.0202284)
(-0.00187368 0.00898631 0.00241807 0.0220552 0.0297934 -0.0201816)
(-0.000482098 0.00545424 -0.00238712 0.0221632 0.0274383 -0.0216811)
(0.000519866 0.00314662 -0.00612045 0.0237181 0.0229389 -0.024238)
(0.00277679 0.00077232 -0.0102372 0.0264037 0.0160998 -0.0291805)
(0.020133 -0.0111354 -0.0139717 0.0263357 0.0053215 -0.0464687)
(0.0265745 0.0245494 0.0200741 0.0179678 0.00551326 -0.0445424)
(0.0119206 0.016792 0.0184398 0.0149957 0.0163057 -0.0269164)
(0.00540216 0.0135511 0.0172338 0.0139225 0.0223753 -0.0193246)
(-0.000802574 0.0115468 0.0148268 0.0140717 0.0257077 -0.0132691)
(-0.0048152 0.00915675 0.00996792 0.0140105 0.0270321 -0.00919526)
(-0.00519974 0.00647447 0.0033903 0.0134431 0.0266898 -0.00824333)
(-0.00276322 0.00402367 -0.00315611 0.0129674 0.024873 -0.0102042)
(0.000594582 0.0022799 -0.0087299 0.0135746 0.0215669 -0.0141692)
(0.00573506 -0.000380726 -0.015 0.0152607 0.0164723 -0.0209958)
(0.0233618 -0.0100486 -0.0220451 0.0173448 0.00786525 -0.0407067)
(0.0281854 0.0223129 0.0291226 0.0165457 0.00788646 -0.0447311)
(0.0124763 0.0153288 0.0245511 0.0110768 0.0155835 -0.0235531)
(0.00568672 0.0112813 0.0212814 0.00772204 0.019967 -0.0134088)
(-0.00115968 0.00864659 0.0173537 0.0066016 0.0222517 -0.00544192)
(-0.00555678 0.00639336 0.0112519 0.00569225 0.0230008 -0.000135465)
(-0.00574802 0.00431537 0.00355925 0.00448676 0.0225435 0.00126125)
(-0.00251175 0.00249875 -0.00411883 0.00358449 0.02105 -0.00107274)
(0.00214164 0.000792591 -0.0109777 0.00392004 0.0184935 -0.00606168)
(0.0078708 -0.0024159 -0.0188536 0.00636371 0.014552 -0.0142345)
(0.0246331 -0.0108074 -0.0281782 0.010815 0.00796849 -0.0354481)
(0.0296916 0.0168074 0.034224 0.0141768 0.00717058 -0.0438683)
(0.0124359 0.0117626 0.0282292 0.00790407 0.0121585 -0.0203399)
(0.00540374 0.00812261 0.0236809 0.00331171 0.0150955 -0.00871545)
(-0.00157712 0.00561399 0.0186508 0.00135414 0.0165664 0.000222974)
(-0.00593475 0.00372701 0.0116419 -0.000114081 0.0168805 0.00604883)
(-0.00583826 0.00226222 0.00320625 -0.00170319 0.0162885 0.00754144)
(-0.00207926 0.00112574 -0.00517181 -0.00281135 0.0149738 0.00489061)
(0.00315812 -3.21801e-05 -0.0128091 -0.00234873 0.0129897 -0.000809384)
(0.00901633 -0.00244611 -0.0215571 0.00105528 0.0101553 -0.0100716)
(0.0253176 -0.00775082 -0.031865 0.00733906 0.00578096 -0.0326566)
(0.0304186 0.0103807 0.0362063 0.0124967 0.00444857 -0.0429153)
(0.0117237 0.00707406 0.0298637 0.00693 0.00699473 -0.0186537)
(0.00453837 0.00419787 0.0246907 0.00228672 0.00848926 -0.00682509)
(-0.0024176 0.00222153 0.01897 0.000177726 0.00910916 0.00223988)
(-0.00655458 0.000919465 0.0113499 -0.00149444 0.00896852 0.00804901)
(-0.00609841 0.00018814 0.0024473 -0.00328688 0.00821633 0.0093853)
(-0.00192929 -7.04788e-05 -0.0062688 -0.00453901 0.00706001 0.0064683)
(0.00369258 -0.000215402 -0.0141452 -0.00412965 0.00568468 0.000437073)
(0.00973016 -0.00115053 -0.023019 -0.000511289 0.00410446 -0.00921887)
(0.0257032 -0.00344011 -0.0332299 0.00647716 0.00207893 -0.0321804)
(0.0310234 0.00398532 0.0351255 0.0111633 0.001367 -0.0421867)
(0.0112686 0.00234872 0.0293995 0.0075342 0.00137054 -0.0188028)
(0.00394568 1.88396e-05 0.0241734 0.00397498 0.00122358 -0.00792066)
(-0.00283964 -0.00150736 0.0182104 0.00234048 0.000744277 0.000499163)
(-0.00661204 -0.00216318 0.0103528 0.000772497 -1.42857e-05 0.00583954)
(-0.00576171 -0.0020615 0.00133799 -0.00109946 -0.000934812 0.00686118)
(-0.00123434 -0.0014144 -0.00727466 -0.00262658 -0.00177628 0.00386092)
(0.00464056 -0.000584998 -0.0148239 -0.00273912 -0.00229355 -0.00190144)
(0.0107581 6.52003e-05 -0.0231526 0.000154194 -0.00234095 -0.0109123)
(0.0260454 0.000978037 -0.0323882 0.00693592 -0.00167301 -0.0329814)
(0.0325845 -0.000739546 0.0303365 0.00905635 -0.00102317 -0.0416409)
(0.0119993 -0.00160742 0.0264224 0.00847481 -0.00401178 -0.0204741)
(0.00456606 -0.00427421 0.0217515 0.00683976 -0.00612369 -0.0114058)
(-0.00175878 -0.00569082 0.0160554 0.00600146 -0.0080133 -0.00424268)
(-0.00494205 -0.0056018 0.00851015 0.00474416 -0.00953486 0.000197886)
(-0.00375077 -0.00457299 -2.68023e-05 0.00287468 -0.0105394 0.000876091)
(0.00081193 -0.0031991 -0.00795963 0.00100672 -0.0108273 -0.00181865)
(0.00672389 -0.00193612 -0.0145986 3.0152e-05 -0.0101964 -0.00675405)
(0.0132434 -0.000404931 -0.021647 0.00120847 -0.00847357 -0.0144518)
(0.0279364 0.00329408 -0.0287089 0.00688734 -0.00469105 -0.0348237)
(0.0339963 -0.00825142 0.0208766 0.0078299 -0.00322415 -0.0418262)
(0.0136299 -0.007339 0.0200672 0.0112384 -0.010261 -0.0248684)
(0.00720937 -0.01038 0.0167075 0.0112025 -0.0150134 -0.0184119)
(0.00220952 -0.0111787 0.0120408 0.0107456 -0.018619 -0.0129551)
(-0.000215073 -0.00954228 0.00567779 0.0098801 -0.0208885 -0.00966502)
(0.000954688 -0.00705123 -0.0015582 0.00815372 -0.0218235 -0.00910841)
(0.00488715 -0.00471194 -0.0081283 0.00611355 -0.0213223 -0.0110007)
(0.00993542 -0.00341739 -0.0133124 0.0046027 -0.0192453 -0.0145381)
(0.0164019 -0.0016254 -0.0184419 0.0038239 -0.0154226 -0.0202258)
(0.0308509 0.00426231 -0.0218423 0.00728135 -0.00779598 -0.0381323)
(0.033639 -0.0267728 0.0036676 0.0167273 -0.00289781 -0.0503663)
(0.0189821 -0.01865 0.0069989 0.0215398 -0.0153204 -0.0405219)
(0.0153316 -0.0206963 0.00694151 0.0221356 -0.0243594 -0.0374672)
(0.011653 -0.0188998 0.00520033 0.0228663 -0.0303393 -0.0345193)
(0.00910794 -0.0138625 0.00160155 0.0237697 -0.0334277 -0.0328776)
(0.00895363 -0.00858421 -0.00302682 0.023671 -0.0341833 -0.0326247)
(0.0107719 -0.00370991 -0.00708159 0.0229743 -0.032624 -0.0337462)
(0.013319 -0.000902232 -0.00972111 0.02265 -0.0284634 -0.035969)
(0.017118 0.00370693 -0.0116246 0.0221228 -0.021334 -0.0392408)
(0.029346 0.0209351 -0.00994122 0.0227757 -0.00830144 -0.0521217)
(-0.0126065 0.0702705 0.0846425 -0.00588385 0.0745628 0.0184903)
(-0.0537245 0.0490671 0.0451143 -0.00179782 0.102829 0.0555223)
(-0.0652987 0.0428064 0.0195727 -0.00107149 0.121219 0.0663702)
(-0.0727876 0.0391593 0.00573993 0.00226876 0.136432 0.0705188)
(-0.077148 0.0327415 -0.00604923 0.00778319 0.147999 0.0693648)
(-0.0772845 0.0243148 -0.0189344 0.0138231 0.155806 0.0634614)
(-0.0733349 0.0135724 -0.0338837 0.019851 0.160578 0.0534839)
(-0.0673235 0.000706261 -0.0537746 0.0277748 0.163162 0.0395487)
(-0.0548687 -0.0138059 -0.0905746 0.0378692 0.162977 0.0169995)
(-0.00932196 -0.0490751 -0.147788 0.0366131 0.146509 -0.0272911)
(-0.000123889 0.0478872 0.121016 -0.0451134 0.044329 0.0452373)
(-0.0444566 0.0332699 0.0626605 -0.0460129 0.0572212 0.0904695)
(-0.0615064 0.0280072 0.0312208 -0.0436676 0.0666145 0.105174)
(-0.073789 0.024358 0.0157657 -0.0390365 0.0753492 0.112825)
(-0.0819465 0.0191499 0.003078 -0.0340947 0.0820932 0.116041)
(-0.0842489 0.0126321 -0.0102716 -0.0300071 0.0861761 0.114256)
(-0.0808794 0.0053956 -0.02472 -0.0265458 0.0880392 0.107425)
(-0.0737586 -0.00155642 -0.0438957 -0.021619 0.0889089 0.0953776)
(-0.0591602 -0.00921406 -0.0846653 -0.0136712 0.0910566 0.0728315)
(-0.0121753 -0.0301542 -0.162731 -0.00759424 0.0943176 0.0197696)
(9.76321e-05 0.0408324 0.141926 -0.0526027 0.0300712 0.0525051)
(-0.0420832 0.0276274 0.0739153 -0.0582224 0.0351819 0.100306)
(-0.0599657 0.0209461 0.0396117 -0.0590374 0.0403073 0.119003)
(-0.0742226 0.0159159 0.0228003 -0.056399 0.0456626 0.130622)
(-0.0841362 0.0105848 0.00850146 -0.0534131 0.0496178 0.137549)
(-0.087375 0.00493578 -0.00654503 -0.0510313 0.0516303 0.138406)
(-0.0839004 -0.000654396 -0.0220712 -0.048878 0.0518228 0.132778)
(-0.0751372 -0.0057216 -0.0412178 -0.0455803 0.0510025 0.120718)
(-0.058296 -0.0115319 -0.0811473 -0.039531 0.0515298 0.097827)
(-0.0115665 -0.0261434 -0.162507 -0.0312132 0.0570248 0.0427797)
(0.000314501 0.0319052 0.154041 -0.0573838 0.0239832 0.0570693)
(-0.0406207 0.0216022 0.0810244 -0.0661546 0.0260821 0.106775)
(-0.0582755 0.0149019 0.04502 -0.0700634 0.0283832 0.128339)
(-0.0730196 0.00962207 0.0269906 -0.0696828 0.0308981 0.142702)
(-0.0834063 0.00477232 0.0113021 -0.0684116 0.0326184 0.151818)
(-0.0868212 0.000307759 -0.00509355 -0.0672762 0.0333072 0.154097)
(-0.0829963 -0.0036949 -0.0217333 -0.0659915 0.0330249 0.148988)
(-0.0732852 -0.00728294 -0.0414188 -0.0633502 0.0320181 0.136635)
(-0.0562629 -0.0118808 -0.0806727 -0.0571263 0.0315879 0.113389)
(-0.0110496 -0.0220377 -0.162227 -0.0471343 0.0343054 0.0581839)
(0.00108249 0.020478 0.16001 -0.0615745 0.0157878 0.060492)
(-0.0400127 0.0134444 0.0841961 -0.0712932 0.016916 0.111306)
(-0.0574087 0.00805113 0.0469733 -0.0770663 0.0170053 0.134475)
(-0.0721418 0.0037546 0.0282821 -0.0782095 0.0171457 0.150351)
(-0.0823954 3.98632e-05 0.0119969 -0.0781034 0.0171701 0.160499)
(-0.0855369 -0.00295066 -0.00488721 -0.0777907 0.016923 0.163328)
(-0.0813647 -0.00511286 -0.0219444 -0.0769644 0.0164285 0.158329)
(-0.0712061 -0.00664169 -0.0419309 -0.0744011 0.0156904 0.145607)
(-0.0542273 -0.00873842 -0.081062 -0.0675385 0.015017 0.121766)
(-0.00994072 -0.0135423 -0.162626 -0.0562219 0.0148386 0.0661626)
(0.00170183 0.00861536 0.161334 -0.0647823 0.00395605 0.0630805)
(-0.0401276 0.00421587 0.0842658 -0.0732128 0.00491718 0.11334)
(-0.057064 0.000222735 0.0462489 -0.079412 0.00351591 0.136476)
(-0.071464 -0.0025323 0.0275414 -0.0812671 0.00192377 0.152731)
(-0.0812153 -0.00451914 0.0113507 -0.0818517 0.000760813 0.163067)
(-0.0838244 -0.00557388 -0.00540956 -0.081986 -9.71645e-05 0.16581)
(-0.0792112 -0.00545292 -0.0223034 -0.0813194 -0.000694339 0.160531)
(-0.0687356 -0.00430636 -0.0421716 -0.0786463 -0.00106494 0.147382)
(-0.0518178 -0.00330769 -0.0814427 -0.0713854 -0.00175564 0.123203)
(-0.0080521 -0.00335159 -0.163064 -0.0596467 -0.00437042 0.0676988)
(0.00260174 -0.0025785 0.158343 -0.0674083 -0.0101534 0.0648066)
(-0.0403069 -0.00490558 0.0819782 -0.0726114 -0.00926834 0.112918)
(-0.0564462 -0.00821977 0.0436012 -0.0775821 -0.0114117 0.134028)
(-0.0701067 -0.00948283 0.0253147 -0.0790394 -0.0141727 0.149146)
(-0.0790456 -0.00929256 0.00976841 -0.0795835 -0.0162207 0.158629)
(-0.080948 -0.00775137 -0.00634411 -0.0796892 -0.0174623 0.160637)
(-0.0758566 -0.00488915 -0.0225463 -0.0789649 -0.0179535 0.154821)
(-0.0652093 -0.00103377 -0.0418685 -0.0762995 -0.0179281 0.141509)
(-0.0486024 0.0028631 -0.0813698 -0.0692927 -0.018772 0.117895)
(-0.00537982 0.00729494 -0.162581 -0.0584309 -0.0234178 0.0638107)
(0.005237 -0.0124903 0.150778 -0.0698719 -0.0276532 0.0646349)
(-0.0391068 -0.0128758 0.0780557 -0.0704218 -0.0281651 0.109529)
(-0.0542571 -0.0164141 0.0399402 -0.0724792 -0.0304612 0.126736)
(-0.0666047 -0.0166206 0.0221761 -0.0722661 -0.033562 0.138871)
(-0.0743423 -0.0140604 0.00755571 -0.071854 -0.0359189 0.146196)
(-0.0755066 -0.00965725 -0.00745202 -0.0714167 -0.0372432 0.146923)
(-0.0701894 -0.0041297 -0.0226331 -0.0705519 -0.0376311 0.140741)
(-0.0596225 0.00176988 -0.0413749 -0.0683423 -0.0376261 0.127965)
(-0.0432005 0.00742164 -0.0811034 -0.062797 -0.0391602 0.105997)
(-0.000297044 0.0160989 -0.160232 -0.0544413 -0.0448015 0.0547384)
(0.00954628 -0.0261115 0.137586 -0.0673918 -0.0586513 0.0578455)
(-0.0348448 -0.0224886 0.0739078 -0.0632471 -0.0668581 0.0980918)
(-0.0478292 -0.0257309 0.0376518 -0.0627689 -0.0707103 0.110598)
(-0.0578746 -0.0245835 0.0200787 -0.0608327 -0.0738904 0.118707)
(-0.06406 -0.0193022 0.00566467 -0.0588713 -0.0760176 0.122931)
(-0.0646776 -0.0118747 -0.00902141 -0.0575059 -0.0771402 0.122183)
(-0.0597228 -0.00377273 -0.0240617 -0.0563527 -0.0777196 0.116076)
(-0.0502326 0.00344441 -0.0429631 -0.054547 -0.0782143 0.10478)
(-0.0347564 0.0100262 -0.0822307 -0.0509676 -0.0797604 0.085724)
(0.00731187 0.0233551 -0.154396 -0.0462734 -0.0802573 0.0389615)
(0.00613146 -0.0574778 0.107194 -0.0335985 -0.104691 0.027467)
(-0.029052 -0.0425112 0.0660642 -0.0276996 -0.13597 0.0567516)
(-0.0373416 -0.0419442 0.0372959 -0.0263018 -0.149324 0.0636434)
(-0.0444439 -0.0361925 0.020434 -0.0226484 -0.156557 0.0670923)
(-0.0491898 -0.0258671 0.00484293 -0.0183333 -0.1601 0.0675231)
(-0.0501187 -0.0138236 -0.0117298 -0.0149484 -0.161318 0.0650671)
(-0.0470268 -0.00137372 -0.0288611 -0.0123299 -0.161117 0.0593566)
(-0.0406235 0.00953895 -0.0486076 -0.00961286 -0.15928 0.0502364)
(-0.0289695 0.0212205 -0.0824259 -0.00661095 -0.153791 0.0355805)
(0.00814715 0.0492251 -0.130838 -0.00715575 -0.130434 -0.000991398)
(0.00855762 0.0959975 0.264603 0.00873309 0.242135 -0.0172907)
(-0.047429 0.0691064 0.155144 0.00916933 0.275927 0.0382597)
(-0.0716673 0.0607332 0.0772234 0.00649583 0.285602 0.0651715)
(-0.091247 0.0518554 0.030709 0.00771415 0.30029 0.0835329)
(-0.103457 0.0382639 -0.00733718 0.0120782 0.319366 0.091379)
(-0.107447 0.0229431 -0.0448063 0.0182322 0.338876 0.089215)
(-0.103223 0.00550575 -0.085268 0.0258202 0.357096 0.0774027)
(-0.0920045 -0.013888 -0.136775 0.0358902 0.373445 0.0561143)
(-0.0714597 -0.0343218 -0.223371 0.0484099 0.384577 0.0230499)
(-0.0103407 -0.0775596 -0.347295 0.0466639 0.355594 -0.0363232)
(0.0183196 0.0594657 0.308105 -0.0465481 0.142239 0.0282285)
(-0.0458022 0.0387511 0.15722 -0.0531964 0.139612 0.0989986)
(-0.0762005 0.0324762 0.0766603 -0.0566151 0.140643 0.132816)
(-0.0997992 0.0265059 0.0392203 -0.0545845 0.151027 0.154384)
(-0.115133 0.017854 0.00847 -0.0508094 0.165864 0.165943)
(-0.121197 0.00768766 -0.024653 -0.0463896 0.180522 0.167586)
(-0.117687 -0.00333878 -0.0612508 -0.04081 0.19323 0.158497)
(-0.104458 -0.0144315 -0.109967 -0.0324857 0.20521 0.136944)
(-0.0782993 -0.0261562 -0.205961 -0.0194859 0.219864 0.0977852)
(-0.0144673 -0.0510648 -0.377506 -0.00871016 0.236115 0.0231774)
(0.0140927 0.0419597 0.322428 -0.0669114 0.0835617 0.0528187)
(-0.0481625 0.0238452 0.161489 -0.07857 0.0734327 0.126733)
(-0.0796775 0.0172964 0.0843705 -0.0840163 0.075305 0.163694)
(-0.104977 0.0119315 0.0509935 -0.0826913 0.0842263 0.187668)
(-0.121716 0.00563875 0.0209824 -0.0807563 0.0948252 0.202472)
(-0.128905 -0.0013153 -0.0140454 -0.0786652 0.104172 0.20757)
(-0.12605 -0.00865408 -0.0525346 -0.0751703 0.111064 0.201221)
(-0.111667 -0.0163629 -0.100898 -0.0688856 0.116377 0.180552)
(-0.0814349 -0.0252747 -0.194284 -0.0568135 0.124376 0.138248)
(-0.0154706 -0.043466 -0.370462 -0.0404114 0.144784 0.055882)
(0.00959551 0.0239868 0.329346 -0.0811341 0.056726 0.0715386)
(-0.0488048 0.0103692 0.167465 -0.0956768 0.0477182 0.144482)
(-0.0796893 0.00556415 0.0931106 -0.103222 0.0493602 0.182912)
(-0.105612 0.00216223 0.0599615 -0.103394 0.0548478 0.209006)
(-0.122792 -0.00189215 0.0282156 -0.103135 0.0605188 0.225927)
(-0.13014 -0.00634074 -0.00938408 -0.102714 0.0652895 0.232854)
(-0.127304 -0.0109409 -0.0504071 -0.100841 0.0687606 0.228145)
(-0.112275 -0.01598 -0.0998514 -0.0962289 0.0709588 0.208504)
(-0.0810115 -0.0220112 -0.190343 -0.0846925 0.0742748 0.165704)
(-0.0154794 -0.0340675 -0.364119 -0.065454 0.0868649 0.0809333)
(0.00453937 0.00698192 0.328573 -0.0922591 0.0358076 0.0877197)
(-0.049888 -0.00191366 0.170508 -0.106958 0.0282217 0.156846)
(-0.0800665 -0.00405567 0.0986263 -0.115324 0.0273816 0.195391)
(-0.106629 -0.00496309 0.0648037 -0.116522 0.0287864 0.22315)
(-0.124094 -0.00696435 0.031217 -0.117333 0.0302112 0.241427)
(-0.131127 -0.00938855 -0.008333 -0.117794 0.0313664 0.248921)
(-0.127675 -0.0117857 -0.0510722 -0.116955 0.0323966 0.24463)
(-0.111736 -0.0141231 -0.101382 -0.113391 0.0329237 0.225128)
(-0.0793145 -0.016088 -0.19012 -0.102313 0.0336927 0.181627)
(-0.0141219 -0.0205973 -0.361111 -0.0820029 0.038328 0.0961249)
(-0.00108131 -0.00681011 0.32119 -0.100187 0.0131065 0.101268)
(-0.0519394 -0.0117819 0.169391 -0.11313 0.00691214 0.165069)
(-0.0808609 -0.0119495 0.099984 -0.121423 0.00194067 0.202284)
(-0.107698 -0.0107785 0.0659008 -0.123268 -0.00154712 0.230966)
(-0.125176 -0.0108459 0.0309213 -0.124748 -0.00430559 0.249924)
(-0.131488 -0.0115287 -0.00976141 -0.125738 -0.00635006 0.257226)
(-0.126972 -0.0120199 -0.0532878 -0.125474 -0.00737584 0.252447)
(-0.109553 -0.0112664 -0.103888 -0.122473 -0.00796524 0.232026)
(-0.0756916 -0.0087542 -0.19139 -0.11169 -0.00836276 0.187381)
(-0.0108135 -0.00668845 -0.359396 -0.0913019 -0.00916122 0.102115)
(-0.00575627 -0.0174285 0.309979 -0.105002 -0.0144079 0.110758)
(-0.0544005 -0.0192216 0.164133 -0.114861 -0.0190309 0.169261)
(-0.0815374 -0.0188763 0.095895 -0.122153 -0.0289865 0.20369)
(-0.107535 -0.0164853 0.0622665 -0.124175 -0.038686 0.23171)
(-0.124514 -0.014836 0.0271564 -0.125841 -0.0460243 0.250355)
(-0.129827 -0.0137177 -0.0134139 -0.127018 -0.0508486 0.256845)
(-0.123696 -0.0119116 -0.0565309 -0.126815 -0.0531578 0.250512)
(-0.104354 -0.00765776 -0.106181 -0.123762 -0.0536806 0.228116)
(-0.0695844 -0.000640863 -0.191999 -0.112935 -0.0535796 0.18252)
(-0.00531861 0.00760316 -0.355694 -0.0935225 -0.0572073 0.0988411)
(-0.0076788 -0.0249923 0.296923 -0.10526 -0.0558726 0.112939)
(-0.0564189 -0.0247528 0.155822 -0.110937 -0.0596897 0.167356)
(-0.0816084 -0.0257202 0.0859502 -0.11584 -0.072124 0.197448)
(-0.105334 -0.0232131 0.0530662 -0.116801 -0.0867622 0.222135)
(-0.120686 -0.0198438 0.0198549 -0.117736 -0.0980087 0.238422)
(-0.124361 -0.0161593 -0.0185125 -0.118451 -0.104629 0.242812)
(-0.116299 -0.0111552 -0.0594095 -0.11774 -0.106919 0.234039)
(-0.0950681 -0.00333335 -0.106725 -0.114423 -0.10599 0.209491)
(-0.0598192 0.00701143 -0.190606 -0.104469 -0.104621 0.164289)
(0.00389952 0.020485 -0.348238 -0.0881772 -0.109463 0.0842777)
(-0.00656412 -0.0361412 0.280818 -0.0975678 -0.131668 0.104132)
(-0.0548499 -0.0319871 0.14979 -0.0979792 -0.145416 0.152829)
(-0.0767561 -0.0340154 0.0766032 -0.0996285 -0.158157 0.176385)
(-0.0965222 -0.0315187 0.0419291 -0.0981102 -0.173517 0.194632)
(-0.10892 -0.0259287 0.0105788 -0.0966611 -0.185959 0.205581)
(-0.110353 -0.018739 -0.0244547 -0.0956366 -0.192885 0.20599)
(-0.100268 -0.00958919 -0.0622518 -0.0940011 -0.194827 0.194269)
(-0.0782501 0.00165711 -0.107378 -0.09076 -0.193081 0.16901)
(-0.0447787 0.0140612 -0.190092 -0.0834509 -0.191034 0.12823)
(0.0166027 0.0329542 -0.336981 -0.0732684 -0.188024 0.0566657)
(-0.0117857 -0.0667876 0.233782 -0.0536424 -0.234097 0.0654282)
(-0.0513372 -0.0510112 0.1418 -0.049665 -0.292142 0.101002)
(-0.066784 -0.049382 0.0746899 -0.0502472 -0.31665 0.117031)
(-0.0803717 -0.0430448 0.0364936 -0.0474777 -0.335208 0.127849)
(-0.0881332 -0.0328244 0.00343549 -0.0434292 -0.348669 0.131562)
(-0.087083 -0.0201836 -0.0316942 -0.0389881 -0.355594 0.126071)
(-0.0767424 -0.00481475 -0.069857 -0.0339765 -0.356715 0.110719)
(-0.0576776 0.0121578 -0.115247 -0.0282993 -0.35292 0.085977)
(-0.0312096 0.0306428 -0.18978 -0.0215077 -0.342643 0.0527173)
(0.0207066 0.0672406 -0.293474 -0.0180438 -0.295677 -0.00266289)
(0.0250897 0.0759607 0.423855 0.0458344 0.384284 -0.0709241)
(-0.0046541 0.0446169 0.278977 0.032773 0.447766 -0.0281189)
(-0.0161969 0.0392641 0.157777 0.0198421 0.459814 -0.00364524)
(-0.0337797 0.0361969 0.0796424 0.0138058 0.474786 0.0199738)
(-0.0511798 0.0282326 0.0133534 0.014928 0.49933 0.0362519)
(-0.0649641 0.0159935 -0.0551294 0.022768 0.530358 0.0421961)
(-0.0710392 -0.00155048 -0.130735 0.0353008 0.56214 0.0357384)
(-0.066576 -0.0227018 -0.222525 0.0498784 0.58799 0.0166976)
(-0.0496622 -0.0433134 -0.359131 0.0633042 0.59876 -0.013642)
(0.0123205 -0.0852789 -0.526453 0.0572528 0.540626 -0.0695732)
(0.0392799 0.0368563 0.486086 0.00116466 0.239907 -0.0404445)
(0.00458348 0.0158576 0.277515 -0.0168607 0.237355 0.0122772)
(-0.0126632 0.0161352 0.147045 -0.0325204 0.233911 0.0451835)
(-0.0354136 0.0199933 0.0834256 -0.041121 0.243193 0.0765346)
(-0.0577556 0.0204487 0.0340056 -0.0439123 0.262633 0.101668)
(-0.076252 0.0157926 -0.0227708 -0.0400179 0.2882 0.11627)
(-0.0860565 0.00566756 -0.0930046 -0.0296103 0.315649 0.115667)
(-0.0813515 -0.00885679 -0.187331 -0.014154 0.341455 0.0955055)
(-0.0590966 -0.0254741 -0.347235 0.00444965 0.365442 0.054647)
(0.00681866 -0.052916 -0.590884 0.0126887 0.380946 -0.0195074)
(0.0365821 0.025772 0.493152 -0.0156443 0.146655 -0.0209378)
(-0.00120414 0.00595477 0.272262 -0.031426 0.122445 0.0326302)
(-0.0218481 0.00455736 0.149917 -0.0468274 0.120018 0.0686755)
(-0.0482451 0.00816704 0.0957958 -0.0561339 0.130881 0.104379)
(-0.0726163 0.0105519 0.0522808 -0.0631342 0.146352 0.13575)
(-0.0922051 0.00940263 -0.0024521 -0.0650646 0.163869 0.15727)
(-0.102268 0.00365364 -0.0742054 -0.0606078 0.182541 0.162876)
(-0.0953279 -0.0072166 -0.171455 -0.0499056 0.200051 0.145233)
(-0.0667167 -0.02197 -0.333271 -0.0318131 0.21753 0.0985297)
(0.0029882 -0.0433516 -0.590256 -0.0166344 0.247018 0.0136462)
(0.0298948 0.0116244 0.485309 -0.0321861 0.104721 0.00229132)
(-0.00903034 -0.00278451 0.268999 -0.0468095 0.0774925 0.0558398)
(-0.0306669 -0.00481479 0.158125 -0.0616746 0.0765844 0.0923415)
(-0.0579425 -0.00245063 0.108227 -0.0709024 0.0869026 0.128845)
(-0.0822072 0.000160181 0.0633862 -0.0795439 0.0973961 0.161751)
(-0.100687 0.00119986 0.00661385 -0.0848719 0.106486 0.185559)
(-0.109683 -0.00124455 -0.0671584 -0.0850776 0.116581 0.19476)
(-0.10115 -0.0081231 -0.167287 -0.0793669 0.126968 0.180517)
(-0.0694703 -0.0188729 -0.327645 -0.0632851 0.136151 0.132755)
(0.00155032 -0.0327201 -0.583146 -0.0447303 0.157286 0.04318)
(0.0188012 -0.000369071 0.467579 -0.0507104 0.0752991 0.0319092)
(-0.0200472 -0.00891668 0.264099 -0.0645159 0.0505542 0.0845631)
(-0.0423892 -0.0112786 0.166166 -0.0771872 0.0479721 0.119576)
(-0.0689226 -0.0104906 0.11851 -0.0845168 0.0550542 0.153439)
(-0.0921687 -0.00830381 0.0689948 -0.0919036 0.0608238 0.184072)
(-0.108726 -0.00600116 0.00777064 -0.0975599 0.0635063 0.206286)
(-0.115343 -0.00600785 -0.0681441 -0.100295 0.0662378 0.215638)
(-0.104479 -0.00921611 -0.17022 -0.0987528 0.0694828 0.203232)
(-0.0695415 -0.0147941 -0.328838 -0.0861936 0.0712329 0.155735)
(0.00203689 -0.0194597 -0.5787 -0.0672468 0.0797382 0.0652099)
(0.00404961 -0.00871234 0.446318 -0.0687459 0.0410816 0.0646962)
(-0.034023 -0.0119293 0.257573 -0.0824545 0.0226122 0.116477)
(-0.0560829 -0.0146252 0.171683 -0.0921671 0.0158486 0.14825)
(-0.0810166 -0.0151686 0.126061 -0.0961286 0.0164815 0.177145)
(-0.102698 -0.0139319 0.0711281 -0.100451 0.0170189 0.20315)
(-0.116896 -0.0112468 0.00391136 -0.104422 0.0149006 0.221317)
(-0.120734 -0.00942199 -0.0755723 -0.107993 0.0117239 0.228727)
(-0.106769 -0.00949844 -0.179219 -0.109421 0.0079395 0.21619)
(-0.0677176 -0.0101786 -0.335651 -0.100085 0.00369214 0.167803)
(0.00382571 -0.006574 -0.577642 -0.0815636 0.00173492 0.0777379)
(-0.0113985 -0.0147388 0.428843 -0.0832029 -0.0056982 0.0946014)
(-0.0488594 -0.0131082 0.251043 -0.0966299 -0.0151536 0.145489)
(-0.0701341 -0.0156759 0.172307 -0.103443 -0.0273785 0.173577)
(-0.0928359 -0.0170645 0.128172 -0.104463 -0.0372072 0.197298)
(-0.112564 -0.0170126 0.0690699 -0.105522 -0.0448295 0.218086)
(-0.124425 -0.0150521 -0.00414354 -0.107343 -0.0525278 0.231767)
(-0.125071 -0.012277 -0.0882801 -0.110716 -0.0610198 0.235787)
(-0.107206 -0.00922934 -0.192832 -0.113229 -0.0695723 0.220435)
(-0.0643215 -0.00482314 -0.345746 -0.105339 -0.0757043 0.16966)
(0.00655801 0.00674591 -0.578402 -0.0864498 -0.0831289 0.0798918)
(-0.0239302 -0.0188257 0.419663 -0.0895311 -0.0777489 0.113461)
(-0.0624132 -0.0145558 0.246391 -0.101665 -0.0806548 0.164079)
(-0.0835129 -0.0169913 0.165671 -0.106992 -0.0975849 0.190505)
(-0.103744 -0.0189112 0.120058 -0.106832 -0.119145 0.210576)
(-0.120812 -0.0197364 0.0586508 -0.105782 -0.137615 0.226595)
(-0.129589 -0.018395 -0.0183265 -0.105731 -0.153034 0.235319)
(-0.126195 -0.0147336 -0.10516 -0.10739 -0.166589 0.233586)
(-0.10396 -0.00835566 -0.207316 -0.108175 -0.176617 0.212135)
(-0.0578861 0.00125628 -0.35524 -0.0999666 -0.17992 0.157853)
(0.0115069 0.019485 -0.578179 -0.0806139 -0.1855 0.069107)
(-0.0304386 -0.0283866 0.413018 -0.0876128 -0.201493 0.118051)
(-0.0707019 -0.0206356 0.245283 -0.0960375 -0.218153 0.166739)
(-0.0915115 -0.022092 0.154122 -0.100592 -0.238665 0.192103)
(-0.109404 -0.02349 0.100997 -0.0999816 -0.266816 0.209386)
(-0.123031 -0.0238198 0.0369171 -0.0975933 -0.293622 0.220624)
(-0.127347 -0.0214195 -0.0410886 -0.0952369 -0.316288 0.222583)
(-0.118428 -0.0154055 -0.126629 -0.093508 -0.334116 0.211936)
(-0.0920436 -0.00506285 -0.222201 -0.0904734 -0.344375 0.182517)
(-0.0462619 0.00923978 -0.362418 -0.080905 -0.344494 0.127167)
(0.0186025 0.0335312 -0.569396 -0.0639659 -0.329656 0.0453634)
(-0.0379962 -0.0605115 0.35961 -0.044584 -0.358046 0.0825801)
(-0.0819568 -0.0394424 0.236999 -0.0438998 -0.435632 0.125857)
(-0.100936 -0.0340996 0.146077 -0.0525574 -0.47175 0.153493)
(-0.114771 -0.0308847 0.0806662 -0.0558673 -0.506103 0.170638)
(-0.122938 -0.0284048 0.00872075 -0.0541448 -0.538586 0.177082)
(-0.121128 -0.0226668 -0.0724459 -0.0481319 -0.56575 0.16926)
(-0.106782 -0.0118353 -0.156742 -0.03893 -0.585612 0.145712)
(-0.079096 0.00546896 -0.245008 -0.0271289 -0.593406 0.106225)
(-0.0396804 0.028243 -0.36069 -0.0124484 -0.578522 0.0521287)
(0.0175149 0.0695636 -0.497681 -0.00329889 -0.492139 -0.014216)
(-0.0125349 0.0206542 0.472979 0.0255374 0.405389 -0.0130025)
(0.00642365 -0.0178032 0.339137 0.0084945 0.492302 -0.0149181)
(0.0326371 -0.02075 0.22165 -0.00899723 0.520149 -0.0236399)
(0.0380892 -0.0125019 0.141153 -0.0187051 0.556783 -0.0193841)
(0.0280155 -0.00684193 0.0576492 -0.0184112 0.608582 -0.00960425)
(0.0125074 -0.00526532 -0.0424585 -0.00835601 0.666585 -0.00415135)
(0.000696112 -0.00963456 -0.155653 0.00849307 0.718534 -0.00918918)
(-0.00307586 -0.0176583 -0.285346 0.027746 0.752099 -0.0246701)
(-0.00132204 -0.0254832 -0.460051 0.0439815 0.753414 -0.0426595)
(0.0355461 -0.0583164 -0.64639 0.0445212 0.650274 -0.0800673)
(-0.010651 -0.0137737 0.549609 0.00338534 0.257049 0.00726564)
(0.0126381 -0.0405582 0.348093 -0.019738 0.266389 0.00709996)
(0.0452437 -0.0356988 0.22277 -0.0430463 0.269978 -0.0021974)
(0.0539927 -0.0190396 0.165708 -0.0590165 0.292107 0.00502383)
(0.0427664 -0.00285326 0.106766 -0.0651634 0.330298 0.022397)
(0.0221384 0.00855292 0.018961 -0.059619 0.37691 0.0374807)
(0.00278086 0.0128053 -0.0989936 -0.04282 0.425838 0.0400391)
(-0.00596225 0.00890605 -0.250589 -0.0173551 0.466988 0.0233173)
(-0.00423391 -0.000224273 -0.470874 0.0102069 0.489624 -0.00597304)
(0.0364654 -0.022554 -0.753771 0.0206731 0.482689 -0.0571385)
(-0.0147409 -0.00811621 0.557984 0.00163974 0.172299 0.0131012)
(0.00472201 -0.0342458 0.343244 -0.0146248 0.155119 0.00990283)
(0.0376909 -0.0323151 0.22827 -0.0363084 0.154163 -0.00138246)
(0.0465829 -0.017904 0.187259 -0.0544285 0.16897 0.00784557)
(0.0362763 -0.000825821 0.139734 -0.067851 0.190332 0.0315747)
(0.0169142 0.0140353 0.0581784 -0.0726306 0.216906 0.0557164)
(-0.00287863 0.0227583 -0.0616082 -0.0653412 0.25035 0.0682198)
(-0.0116525 0.0203218 -0.226639 -0.04563 0.285615 0.0572826)
(-0.00555026 0.00839901 -0.463397 -0.0168424 0.312225 0.0223927)
(0.0366192 -0.0105274 -0.772062 0.000274838 0.337115 -0.0368941)
(-0.0152979 -0.00360602 0.551489 -0.00274385 0.155357 0.0180418)
(-0.00283177 -0.0235082 0.336673 -0.0170081 0.138904 0.0198399)
(0.0257154 -0.0241764 0.229936 -0.0380312 0.135393 0.0123159)
(0.0325293 -0.0143114 0.192488 -0.0562355 0.135481 0.0237062)
(0.022896 0.000799758 0.145836 -0.0718772 0.13502 0.0489812)
(0.00642186 0.0170335 0.0707219 -0.0827144 0.138571 0.0762925)
(-0.010805 0.0282385 -0.0420986 -0.0829945 0.154719 0.0937995)
(-0.0179182 0.0267376 -0.209035 -0.068817 0.180774 0.0867352)
(-0.00787499 0.0142763 -0.451915 -0.0419135 0.20447 0.0497885)
(0.0357021 -0.000143788 -0.770143 -0.0205992 0.23063 -0.0151029)
(-0.016277 -0.000750669 0.54185 -0.00914656 0.149629 0.0254236)
(-0.0123711 -0.013162 0.326571 -0.024781 0.140952 0.0371521)
(0.0084459 -0.0156202 0.221071 -0.0454347 0.131221 0.0369888)
(0.0117499 -0.00926931 0.181175 -0.0614945 0.114964 0.0497446)
(0.00125057 0.00430243 0.132845 -0.0748854 0.097143 0.0736349)
(-0.014075 0.0208819 0.0635125 -0.0861727 0.0829714 0.100248)
(-0.027435 0.0331108 -0.0363442 -0.0901475 0.0855991 0.117583)
(-0.0289125 0.0319537 -0.199072 -0.0812124 0.102254 0.110125)
(-0.0123078 0.0203111 -0.444412 -0.0598765 0.114154 0.0721843)
(0.0326977 0.01171 -0.764896 -0.0382814 0.12796 0.00558366)
(-0.0214449 -0.000781368 0.536065 -0.0145693 0.122838 0.0360142)
(-0.0260777 -0.00650221 0.312691 -0.0326331 0.12164 0.0587108)