/*--------------------------------*- C++ -*----------------------------------*\
| =========                 |                                                 |
| \\      /  F ield         | OpenFOAM: The Open Source CFD Toolbox           |
|  \\    /   O peration     | Version:  2406                                  |
|   \\  /    A nd           | Website:  www.openfoam.com                      |
|    \\/     M anipulation  |                                                 |
\*---------------------------------------------------------------------------*/
FoamFile
{
    version     2.0;
    format      ascii;
    arch        "LSB;label=32;scalar=64";
    class       volVectorField;
    location    "0.3";
    object      U;
}
// * * * * * * * * * * * * * * * * * * * * * * * * * * * * * * * * * * * * * //

dimensions      [0 1 -1 0 0 0 0];

internalField   nonuniform List<vector> 
25000
(
(0.071663 0.0833585 1.07921)
(0.0615049 0.0815329 1.08657)
(0.0480316 0.0828057 1.09067)
(0.0335321 0.081387 1.09025)
(0.0184925 0.0793519 1.08646)
(0.00306913 0.0771506 1.08132)
(-0.0132464 0.0746609 1.07608)
(-0.0292399 0.0727702 1.07054)
(-0.0429266 0.0704025 1.06432)
(-0.0552297 0.0677623 1.06024)
(0.0704299 0.0695835 1.0846)
(0.0534039 0.061356 1.08013)
(0.0363504 0.0581382 1.07478)
(0.0207902 0.0548589 1.06794)
(0.0069838 0.0515869 1.061)
(-0.00625738 0.0488348 1.05574)
(-0.0203176 0.0467624 1.05309)
(-0.0349829 0.0453504 1.05257)
(-0.048939 0.044083 1.05378)
(-0.0635568 0.0468992 1.05941)
(0.0694621 0.0509246 1.08601)
(0.0488432 0.0399314 1.07191)
(0.0293509 0.0340866 1.06034)
(0.0129277 0.0297089 1.04981)
(-0.000342076 0.0261339 1.04132)
(-0.0124394 0.0234896 1.03638)
(-0.0255541 0.0218257 1.03568)
(-0.0403641 0.0209805 1.03869)
(-0.0562649 0.0212477 1.04525)
(-0.0742277 0.0266416 1.05873)
(0.065342 0.0311181 1.08389)
(0.0439646 0.019859 1.06307)
(0.023954 0.0133013 1.04746)
(0.00758052 0.00886467 1.03488)
(-0.00507288 0.0056722 1.02583)
(-0.0163962 0.00355001 1.02143)
(-0.0289607 0.0023978 1.0222)
(-0.0438722 0.00214068 1.02773)
(-0.0606411 0.0034791 1.0382)
(-0.0791023 0.00977 1.05756)
(0.060918 0.0115869 1.08028)
(0.0394682 0.00197545 1.05555)
(0.0198236 -0.00379538 1.03756)
(0.00406901 -0.00745309 1.02393)
(-0.00788165 -0.00980023 1.01479)
(-0.0185687 -0.0111751 1.011)
(-0.0307116 -0.0117946 1.0129)
(-0.0455454 -0.0117428 1.0202)
(-0.0625684 -0.0103765 1.03328)
(-0.0812476 -0.00526262 1.05635)
(0.0572015 -0.00726227 1.07721)
(0.0363692 -0.0147381 1.05095)
(0.0174216 -0.019146 1.03192)
(0.00241048 -0.0216608 1.01789)
(-0.00890382 -0.0229716 1.00894)
(-0.0191706 -0.023508 1.00572)
(-0.0310983 -0.0236132 1.00848)
(-0.0459457 -0.0234747 1.01691)
(-0.0631888 -0.022717 1.03144)
(-0.0821648 -0.019777 1.05619)
(0.0551949 -0.0255448 1.07559)
(0.0353817 -0.0314422 1.05009)
(0.0172389 -0.0347976 1.03136)
(0.00290456 -0.0362656 1.01764)
(-0.00803052 -0.0365449 1.00912)
(-0.0181828 -0.0362077 1.00643)
(-0.0302109 -0.035739 1.00974)
(-0.045283 -0.035389 1.01861)
(-0.0627697 -0.0351191 1.03333)
(-0.0817464 -0.0344403 1.05766)
(0.0553104 -0.0423204 1.07491)
(0.0367823 -0.0481802 1.05279)
(0.0196211 -0.0514764 1.03605)
(0.00589795 -0.0523063 1.02366)
(-0.00498297 -0.0516987 1.01602)
(-0.0154542 -0.0505007 1.01383)
(-0.0278637 -0.0492561 1.01718)
(-0.043191 -0.0481948 1.02554)
(-0.0609188 -0.047513 1.03884)
(-0.0802242 -0.0481474 1.06024)
(0.0567895 -0.0567177 1.07451)
(0.0411579 -0.0643642 1.05888)
(0.0255933 -0.0688176 1.04644)
(0.0122652 -0.0694264 1.03688)
(0.000668943 -0.0681862 1.03078)
(-0.0108358 -0.0661481 1.029)
(-0.0239933 -0.0639148 1.0317)
(-0.0393628 -0.0616048 1.03816)
(-0.0564525 -0.0592196 1.04808)
(-0.0750642 -0.0599388 1.06365)
(0.0666362 -0.0687562 1.07585)
(0.0542294 -0.0812693 1.07066)
(0.0391028 -0.0874429 1.06604)
(0.0242724 -0.0878265 1.06149)
(0.00978689 -0.0862954 1.05784)
(-0.00462119 -0.0834254 1.05632)
(-0.0198527 -0.0799078 1.05722)
(-0.0356893 -0.0759729 1.0598)
(-0.0518171 -0.0704418 1.06352)
(-0.0670518 -0.0689468 1.06985)
(-0.075158 -0.111653 1.01719)
(-0.0584159 -0.132561 0.977309)
(-0.0369566 -0.13958 0.973797)
(-0.0109382 -0.142565 0.981839)
(0.0177722 -0.140844 0.993007)
(0.0468031 -0.13491 1.00563)
(0.0730196 -0.12522 1.02039)
(0.0954666 -0.111203 1.03977)
(0.115407 -0.0924771 1.07294)
(0.126014 -0.0702411 1.15349)
(-0.091955 -0.0992524 1.00581)
(-0.0854981 -0.124488 0.931143)
(-0.0698682 -0.136691 0.905633)
(-0.0462532 -0.143116 0.896518)
(-0.0158679 -0.144508 0.894685)
(0.0179327 -0.140877 0.899319)
(0.050731 -0.132428 0.910509)
(0.0798334 -0.119517 0.929628)
(0.104753 -0.10279 0.96655)
(0.119221 -0.0780899 1.065)
(-0.105793 -0.0836764 1.01584)
(-0.102702 -0.109525 0.920189)
(-0.0895885 -0.123993 0.881319)
(-0.0664511 -0.13218 0.861263)
(-0.0340886 -0.134991 0.851192)
(0.00343164 -0.132573 0.851255)
(0.0406131 -0.125304 0.861536)
(0.0733647 -0.113835 0.882247)
(0.0994402 -0.0985212 0.922018)
(0.113637 -0.0751605 1.02516)
(-0.11794 -0.0658655 1.02345)
(-0.115179 -0.0887128 0.914921)
(-0.102095 -0.102188 0.867564)
(-0.0779311 -0.109777 0.840532)
(-0.043498 -0.112291 0.82544)
(-0.00319369 -0.110122 0.822835)
(0.0369609 -0.103827 0.83284)
(0.0720716 -0.0941393 0.8552)
(0.0992925 -0.0811784 0.89769)
(0.114705 -0.0614643 1.00381)
(-0.125585 -0.0460426 1.02559)
(-0.122308 -0.0629757 0.910137)
(-0.108486 -0.0727997 0.858738)
(-0.0830023 -0.0779354 0.828628)
(-0.0468905 -0.078992 0.81143)
(-0.00489021 -0.0764393 0.807722)
(0.0367908 -0.0710434 0.817593)
(0.0730329 -0.0636781 0.840752)
(0.100685 -0.0545977 0.884765)
(0.116284 -0.0413577 0.993014)
(-0.12757 -0.0243215 1.02573)
(-0.12305 -0.0345738 0.908598)
(-0.108515 -0.0394471 0.85718)
(-0.0822282 -0.0409328 0.82724)
(-0.0454516 -0.0397224 0.8101)
(-0.00314429 -0.036416 0.806376)
(0.0383917 -0.0319624 0.816121)
(0.0740016 -0.0274556 0.839021)
(0.100645 -0.023404 0.882827)
(0.115311 -0.0181065 0.99162)
(-0.123127 -0.00099199 1.02688)
(-0.116639 -0.00559012 0.913039)
(-0.101491 -0.00557836 0.864918)
(-0.0752948 -0.00298532 0.83781)
(-0.0393592 0.000894949 0.8225)
(0.00135122 0.00502951 0.81953)
(0.0406371 0.00821682 0.828871)
(0.0736487 0.00943207 0.850214)
(0.0978795 0.008213 0.891865)
(0.111228 0.00547925 0.998961)
(-0.111563 0.0245739 1.03092)
(-0.102817 0.0231739 0.925414)
(-0.0870335 0.0263125 0.883003)
(-0.0618312 0.0320867 0.860531)
(-0.0285695 0.0380852 0.848315)
(0.00820699 0.0425815 0.846445)
(0.0430561 0.0442961 0.85476)
(0.0718036 0.0425182 0.873445)
(0.0924858 0.0372258 0.91157)
(0.103488 0.0284136 1.01447)
(-0.0925874 0.0525457 1.0454)
(-0.0808256 0.0517538 0.955158)
(-0.064383 0.0554199 0.920363)
(-0.041269 0.0624577 0.902984)
(-0.0128128 0.0691226 0.893888)
(0.0176788 0.0732224 0.892879)
(0.046128 0.0734607 0.899906)
(0.0695223 0.0696272 0.915795)
(0.0866157 0.062487 0.949888)
(0.094982 0.0502957 1.04456)
(-0.0579866 0.0782149 1.09854)
(-0.0430506 0.0763329 1.04115)
(-0.0278231 0.0798476 1.02084)
(-0.00957942 0.087006 1.011)
(0.0105886 0.0926926 1.00544)
(0.0313819 0.0956395 1.00483)
(0.0505417 0.0946451 1.01013)
(0.0668202 0.0896948 1.02228)
(0.0794751 0.0824423 1.04848)
(0.0861461 0.0692901 1.11914)
(-0.102665 -0.246174 0.729403)
(-0.0907942 -0.267165 0.525622)
(-0.0702714 -0.275318 0.443041)
(-0.0353972 -0.281367 0.415981)
(0.00923272 -0.279272 0.423794)
(0.0585094 -0.268001 0.461171)
(0.106433 -0.247967 0.526238)
(0.148785 -0.219046 0.622774)
(0.183157 -0.182192 0.772351)
(0.203654 -0.138728 1.05169)
(-0.139789 -0.243829 0.584206)
(-0.137789 -0.264524 0.324344)
(-0.120048 -0.273121 0.21494)
(-0.0836384 -0.278342 0.159139)
(-0.032849 -0.277625 0.136268)
(0.0256256 -0.268901 0.14789)
(0.0846596 -0.251718 0.195527)
(0.138028 -0.226261 0.282944)
(0.180493 -0.193445 0.435872)
(0.204563 -0.147991 0.762569)
(-0.166145 -0.226697 0.535855)
(-0.16544 -0.244127 0.248567)
(-0.147224 -0.251574 0.118391)
(-0.107841 -0.255462 0.0390105)
(-0.0521219 -0.254701 -0.00665825)
(0.0124522 -0.24745 -0.0113535)
(0.0780647 -0.233272 0.0293365)
(0.137425 -0.212125 0.117502)
(0.182996 -0.184073 0.275267)
(0.206423 -0.143658 0.611099)
(-0.183022 -0.198837 0.512143)
(-0.180837 -0.208823 0.20769)
(-0.160721 -0.211929 0.0597735)
(-0.118209 -0.212875 -0.0375733)
(-0.0586974 -0.210905 -0.0980473)
(0.00973812 -0.204197 -0.111885)
(0.0792049 -0.192495 -0.0735727)
(0.142161 -0.175449 0.0185377)
(0.189938 -0.152935 0.183507)
(0.214427 -0.121021 0.523552)
(-0.189593 -0.161429 0.493557)
(-0.185064 -0.16217 0.183197)
(-0.163443 -0.159448 0.0247064)
(-0.119074 -0.156755 -0.0831883)
(-0.0573203 -0.152973 -0.151387)
(0.0131961 -0.146291 -0.169092)
(0.0843631 -0.136568 -0.130798)
(0.148736 -0.123423 -0.0350889)
(0.196816 -0.107183 0.13542)
(0.220247 -0.0862174 0.478136)
(-0.187491 -0.1167 0.479923)
(-0.179808 -0.109037 0.175732)
(-0.157338 -0.10057 0.0167195)
(-0.112702 -0.0940414 -0.0934895)
(-0.0504542 -0.0880209 -0.162796)
(0.0201116 -0.081048 -0.179999)
(0.0908927 -0.0726201 -0.140441)
(0.154373 -0.0629229 -0.0426775)
(0.200286 -0.0531915 0.129456)
(0.220756 -0.0435668 0.470564)
(-0.178127 -0.0667367 0.475235)
(-0.16705 -0.0530092 0.187884)
(-0.143907 -0.0397445 0.0405917)
(-0.100263 -0.0293549 -0.0610505)
(-0.0394553 -0.0207704 -0.123555)
(0.0293285 -0.0129743 -0.135941)
(0.097685 -0.0053677 -0.0942917)
(0.157408 0.00105689 0.00276155)
(0.198628 0.00430036 0.170165)
(0.215156 0.00286253 0.501231)
(-0.161995 -0.0138333 0.48942)
(-0.147863 0.00258783 0.228139)
(-0.123493 0.0188985 0.104866)
(-0.0813854 0.0329216 0.0244938)
(-0.0236585 0.044281 -0.0225464)
(0.0409565 0.0532056 -0.0265752)
(0.104048 0.0597885 0.0158431)
(0.157162 0.0626788 0.106571)
(0.191295 0.0598377 0.260335)
(0.202171 0.0492985 0.570628)
(-0.140656 0.0373207 0.551818)
(-0.122064 0.0538282 0.326316)
(-0.0951062 0.0707322 0.232823)
(-0.054511 0.0868029 0.181581)
(-0.00186674 0.0999424 0.15641)
(0.0555284 0.109441 0.162375)
(0.110009 0.114697 0.202454)
(0.153741 0.114273 0.27996)
(0.180066 0.107131 0.412009)
(0.185931 0.0905489 0.690766)
(-0.102925 0.0844647 0.728707)
(-0.0801603 0.0989996 0.574632)
(-0.051615 0.114633 0.521597)
(-0.014371 0.129698 0.504024)
(0.0294932 0.141482 0.503096)
(0.0747727 0.149754 0.518451)
(0.115432 0.153404 0.553259)
(0.146107 0.151071 0.612452)
(0.16312 0.142871 0.713755)
(0.16569 0.124768 0.92661)
(-0.0178117 -0.260298 0.774001)
(-0.020321 -0.271947 0.378124)
(-0.0256435 -0.273859 0.176601)
(-0.0192822 -0.281713 0.0754436)
(-0.0014179 -0.288959 0.0428802)
(0.026951 -0.29072 0.0755351)
(0.0620212 -0.283083 0.177244)
(0.0976309 -0.263282 0.356535)
(0.126849 -0.233259 0.646031)
(0.144334 -0.197302 1.1512)
(-0.0344089 -0.280778 0.47136)
(-0.0489738 -0.276882 -0.0277132)
(-0.0587119 -0.267058 -0.268284)
(-0.0528829 -0.266012 -0.406017)
(-0.0315012 -0.272255 -0.483716)
(0.00372091 -0.279971 -0.498121)
(0.0493708 -0.283084 -0.434316)
(0.097712 -0.276454 -0.272666)
(0.137281 -0.257364 0.0353224)
(0.15955 -0.221691 0.648893)
(-0.0609727 -0.290598 0.327728)
(-0.0739343 -0.275495 -0.204759)
(-0.0818996 -0.257196 -0.467704)
(-0.0728469 -0.248439 -0.634499)
(-0.0467589 -0.250186 -0.745129)
(-0.00535629 -0.258225 -0.79084)
(0.0478006 -0.266795 -0.750792)
(0.104338 -0.269432 -0.599058)
(0.150457 -0.259827 -0.284988)
(0.175119 -0.231379 0.358151)
(-0.0892491 -0.290074 0.226772)
(-0.0968209 -0.263729 -0.310751)
(-0.0993299 -0.237735 -0.592839)
(-0.0844382 -0.221593 -0.7863)
(-0.0514321 -0.216364 -0.920381)
(-0.00309582 -0.220762 -0.982349)
(0.056727 -0.230258 -0.952929)
(0.11964 -0.238186 -0.80367)
(0.170629 -0.237286 -0.481219)
(0.197328 -0.220153 0.173041)
(-0.117164 -0.274681 0.131847)
(-0.117897 -0.239013 -0.390296)
(-0.112815 -0.207076 -0.683825)
(-0.0900425 -0.184363 -0.898605)
(-0.0491025 -0.17196 -1.04765)
(0.00688991 -0.170997 -1.11469)
(0.0733213 -0.178701 -1.08527)
(0.14089 -0.188894 -0.932265)
(0.19414 -0.194885 -0.599353)
(0.219423 -0.190239 0.0617382)
(-0.145366 -0.243193 0.0466645)
(-0.138047 -0.200854 -0.447234)
(-0.123794 -0.165146 -0.740956)
(-0.0921583 -0.137782 -0.967878)
(-0.0428021 -0.119833 -1.12381)
(0.0204954 -0.11359 -1.18829)
(0.0926843 -0.118188 -1.15129)
(0.163736 -0.128598 -0.988146)
(0.217044 -0.139075 -0.643863)
(0.238323 -0.145667 0.0204606)
(-0.172819 -0.197092 -0.0120719)
(-0.157794 -0.150218 -0.473228)
(-0.133239 -0.112469 -0.75377)
(-0.0924924 -0.0830468 -0.977784)
(-0.0349053 -0.0622892 -1.1303)
(0.0351548 -0.0523807 -1.18603)
(0.111961 -0.0535182 -1.13579)
(0.184533 -0.0626888 -0.957591)
(0.236125 -0.0761056 -0.604087)
(0.252258 -0.0927984 0.0545421)
(-0.197463 -0.140577 -0.0199134)
(-0.175778 -0.0911435 -0.447936)
(-0.14066 -0.0522922 -0.700635)
(-0.0907435 -0.02229 -0.9)
(-0.0251827 -0.000724234 -1.03248)
(0.0509113 0.0111239 -1.0699)
(0.130621 0.0124806 -1.00068)
(0.202191 0.00460162 -0.808)
(0.249623 -0.0115362 -0.457165)
(0.258622 -0.0377989 0.178494)
(-0.218733 -0.0819567 0.070814)
(-0.188636 -0.0305269 -0.314474)
(-0.14234 0.0098085 -0.52495)
(-0.0830038 0.0401863 -0.676737)
(-0.0101515 0.061588 -0.767388)
(0.0701331 0.0735084 -0.771614)
(0.149874 0.0750633 -0.678506)
(0.216753 0.0661183 -0.479045)
(0.258288 0.045802 -0.151137)
(0.262246 0.0100784 0.430221)
(-0.219949 -0.0175113 0.359887)
(-0.184476 0.0332852 0.0801423)
(-0.129069 0.0741413 -0.0630346)
(-0.0619129 0.102598 -0.146658)
(0.015803 0.121638 -0.175009)
(0.0959796 0.131084 -0.13203)
(0.170094 0.130128 -0.0138147)
(0.226974 0.11842 0.179331)
(0.259642 0.0936521 0.458394)
(0.259809 0.052709 0.904478)
(0.122962 -0.118022 1.03882)
(0.121262 -0.114162 0.566981)
(0.0884077 -0.102597 0.281353)
(0.0457017 -0.108043 0.0875074)
(0.0075037 -0.126124 -0.0295371)
(-0.0179318 -0.150255 -0.0470356)
(-0.031092 -0.175684 0.0550941)
(-0.0366412 -0.197955 0.288339)
(-0.0409493 -0.220624 0.687025)
(-0.0374509 -0.24363 1.36503)
(0.15949 -0.128828 0.700213)
(0.160257 -0.100831 0.0942167)
(0.128606 -0.0699407 -0.251057)
(0.0830813 -0.0612037 -0.511651)
(0.0414137 -0.0771548 -0.717759)
(0.0129112 -0.112405 -0.83153)
(-0.00042956 -0.159058 -0.808558)
(-0.00324682 -0.20815 -0.603882)
(-0.00544472 -0.251898 -0.152159)
(-0.00432132 -0.283948 0.721031)
(0.169876 -0.141684 0.518043)
(0.179176 -0.0986251 -0.13173)
(0.152134 -0.0532469 -0.505881)
(0.10924 -0.0301772 -0.81114)
(0.0694485 -0.0374572 -1.07294)
(0.0429075 -0.0737957 -1.24217)
(0.030944 -0.131884 -1.27258)
(0.0300745 -0.200504 -1.10455)
(0.0295001 -0.263049 -0.640129)
(0.0283028 -0.30812 0.304732)
(0.155593 -0.153737 0.336172)
(0.171442 -0.09755 -0.325217)
(0.152442 -0.040001 -0.714982)
(0.118352 -0.00299481 -1.04318)
(0.0883915 0.00201183 -1.32152)
(0.0710424 -0.029188 -1.50336)
(0.0660641 -0.0916179 -1.55579)
(0.0705357 -0.173199 -1.41784)
(0.0736834 -0.253217 -0.963111)
(0.0706691 -0.315949 0.00368198)
(0.116298 -0.158941 0.106641)
(0.136002 -0.0896744 -0.5522)
(0.127205 -0.0212602 -0.940599)
(0.107467 0.0284628 -1.25988)
(0.0935428 0.0452594 -1.52083)
(0.0924278 0.0211732 -1.68283)
(0.101724 -0.0413211 -1.73244)
(0.116681 -0.130672 -1.61356)
(0.125901 -0.224389 -1.17018)
(0.120885 -0.305031 -0.200945)
(0.0543469 -0.155548 -0.149683)
(0.0767458 -0.0733634 -0.795081)
(0.0802719 0.00475044 -1.15982)
(0.0777887 0.0638764 -1.44471)
(0.0840273 0.0892053 -1.66559)
(0.104115 0.0714052 -1.78988)
(0.132939 0.0109566 -1.82529)
(0.162983 -0.081017 -1.71334)
(0.180976 -0.183116 -1.26812)
(0.174674 -0.27895 -0.299792)
(-0.0226151 -0.143873 -0.382559)
(0.00243915 -0.0502802 -1.00152)
(0.019856 0.0343011 -1.3243)
(0.0363571 0.0976676 -1.56731)
(0.0650635 0.127324 -1.74384)
(0.108131 0.11418 -1.83502)
(0.158271 0.0576286 -1.8524)
(0.204959 -0.0321012 -1.72202)
(0.233246 -0.136699 -1.25538)
(0.227637 -0.243525 -0.284827)
(-0.103772 -0.123964 -0.524169)
(-0.0750539 -0.0230443 -1.10726)
(-0.0432884 0.0624491 -1.39308)
(-0.00720714 0.125066 -1.6037)
(0.0440089 0.155352 -1.74918)
(0.10947 0.145381 -1.81582)
(0.180131 0.0936592 -1.79607)
(0.242173 0.00953439 -1.60813)
(0.279681 -0.0932473 -1.10217)
(0.275508 -0.205883 -0.139709)
(-0.181868 -0.0985663 -0.489654)
(-0.146956 0.00341687 -1.03834)
(-0.0992486 0.0855549 -1.30931)
(-0.0428488 0.143754 -1.50007)
(0.0302669 0.171522 -1.61783)
(0.116056 0.162142 -1.64022)
(0.203606 0.114453 -1.54382)
(0.276039 0.0365176 -1.26636)
(0.321467 -0.0619481 -0.721551)
(0.324063 -0.17451 0.187875)
(-0.244589 -0.0564635 -0.146242)
(-0.203305 0.0363475 -0.60637)
(-0.138172 0.107104 -0.861033)
(-0.0599491 0.155409 -1.01913)
(0.0337654 0.177769 -1.07765)
(0.135614 0.168961 -1.00835)
(0.233445 0.128263 -0.795179)
(0.310292 0.0627284 -0.42392)
(0.360574 -0.0264382 0.107382)
(0.366604 -0.129162 0.823347)
(0.158891 0.0460054 0.689977)
(0.194396 0.0428246 0.39804)
(0.18053 0.046266 0.253424)
(0.129807 0.0328442 0.122981)
(0.056784 0.00361364 0.0116924)
(-0.023736 -0.038275 -0.00659914)
(-0.10357 -0.0900866 0.126459)
(-0.174373 -0.148002 0.423463)
(-0.224649 -0.211536 0.892835)
(-0.232797 -0.263649 1.62739)
(0.203479 0.0942489 0.293566)
(0.253346 0.102 -0.110116)
(0.25967 0.112096 -0.294493)
(0.225136 0.103243 -0.485395)
(0.159871 0.0708056 -0.695746)
(0.0776955 0.0144676 -0.841618)
(-0.0122198 -0.0627632 -0.828515)
(-0.101351 -0.152764 -0.568488)
(-0.172626 -0.243244 -0.00686894)
(-0.203641 -0.313447 0.981903)
(0.233353 0.136153 0.109671)
(0.292161 0.146671 -0.330137)
(0.310018 0.159431 -0.539552)
(0.289268 0.156419 -0.77684)
(0.235504 0.128666 -1.04842)
(0.159349 0.0691445 -1.26267)
(0.0692568 -0.0241391 -1.33781)
(-0.0272751 -0.139982 -1.15216)
(-0.112349 -0.254785 -0.559493)
(-0.156865 -0.343616 0.54026)
(0.24796 0.173253 -0.0141533)
(0.305938 0.186186 -0.508815)
(0.327884 0.202056 -0.769358)
(0.317533 0.206208 -1.04602)
(0.278033 0.186338 -1.3349)
(0.215895 0.128663 -1.55998)
(0.136457 0.0255077 -1.66464)
(0.0460716 -0.112839 -1.53968)
(-0.0405794 -0.253447 -0.96679)
(-0.0941251 -0.365557 0.182596)
(0.243722 0.204909 -0.145952)
(0.292944 0.225891 -0.715239)
(0.31206 0.249194 -1.03329)
(0.307803 0.261333 -1.32969)
(0.283135 0.246589 -1.60479)
(0.241428 0.188983 -1.80539)
(0.184053 0.0784107 -1.89794)
(0.113568 -0.0769333 -1.79657)
(0.0385104 -0.241267 -1.25266)
(-0.0175852 -0.376465 -0.0928714)
(0.21863 0.22616 -0.300091)
(0.25543 0.261332 -0.934855)
(0.269057 0.295128 -1.28489)
(0.269216 0.313287 -1.57655)
(0.259995 0.298681 -1.81968)
(0.242898 0.237148 -1.9798)
(0.215389 0.119594 -2.0429)
(0.173263 -0.0466548 -1.93431)
(0.11791 -0.227257 -1.39929)
(0.0655612 -0.379722 -0.254832)
(0.171989 0.23256 -0.46932)
(0.198343 0.284918 -1.13552)
(0.209663 0.329384 -1.47957)
(0.217428 0.35096 -1.74332)
(0.226486 0.332526 -1.9446)
(0.236577 0.263952 -2.06445)
(0.24116 0.139818 -2.09734)
(0.228168 -0.0314522 -1.95751)
(0.194318 -0.217744 -1.40283)
(0.148952 -0.376976 -0.276203)
(0.10664 0.2216 -0.618717)
(0.129041 0.290756 -1.28077)
(0.145554 0.34426 -1.59284)
(0.166847 0.367406 -1.81455)
(0.197889 0.344229 -1.97519)
(0.235682 0.268603 -2.06236)
(0.26903 0.139043 -2.05718)
(0.280329 -0.0329969 -1.84931)
(0.266003 -0.214706 -1.25572)
(0.226642 -0.368062 -0.15795)
(0.0366108 0.199175 -0.654462)
(0.0608002 0.280461 -1.29925)
(0.089274 0.338822 -1.58557)
(0.128896 0.362528 -1.77024)
(0.182667 0.335725 -1.89191)
(0.244676 0.254236 -1.93176)
(0.29919 0.121071 -1.84335)
(0.327874 -0.0460451 -1.51872)
(0.330595 -0.214587 -0.876359)
(0.299087 -0.351143 0.142361)
(-0.0356147 0.168418 -0.338765)
(0.0032969 0.255241 -0.935028)
(0.0506886 0.309685 -1.22948)
(0.111898 0.332783 -1.38825)
(0.184997 0.305852 -1.44447)
(0.262712 0.227507 -1.37409)
(0.329454 0.104274 -1.13118)
(0.370096 -0.0443977 -0.661807)
(0.385563 -0.193724 -0.0195186)
(0.354077 -0.302513 0.769067)
(0.0119627 0.115765 -0.460044)
(0.0791693 0.118647 -0.541797)
(0.12071 0.125963 -0.369349)
(0.118594 0.121203 -0.214716)
(0.0671651 0.0985497 -0.129813)
(-0.0199252 0.054726 -0.0244705)
(-0.119195 -0.00793125 0.185821)
(-0.200261 -0.0799818 0.491601)
(-0.235617 -0.146739 0.899968)
(-0.20614 -0.173729 1.52759)
(0.0210953 0.185931 -1.01924)
(0.099798 0.194305 -1.26937)
(0.16565 0.206507 -1.15325)
(0.192819 0.206509 -1.01603)
(0.163449 0.184132 -0.965304)
(0.0828543 0.133327 -0.925243)
(-0.0303717 0.0547546 -0.765319)
(-0.142665 -0.0411805 -0.437724)
(-0.210811 -0.132194 0.0720186)
(-0.208102 -0.180382 0.939944)
(0.0397356 0.249904 -1.24776)
(0.119101 0.261633 -1.54607)
(0.192118 0.276478 -1.47398)
(0.232846 0.280203 -1.38156)
(0.220027 0.261189 -1.36996)
(0.151455 0.208816 -1.37425)
(0.040128 0.11719 -1.27171)
(-0.0852538 -0.00198571 -0.968446)
(-0.173851 -0.115948 -0.415552)
(-0.186804 -0.180909 0.557559)
(0.0601558 0.309185 -1.31191)
(0.130517 0.319902 -1.65912)
(0.195805 0.335381 -1.66666)
(0.236269 0.342445 -1.65503)
(0.230742 0.327351 -1.67992)
(0.175711 0.274327 -1.6947)
(0.0785374 0.171717 -1.6193)
(-0.0404651 0.0318567 -1.34985)
(-0.131233 -0.103666 -0.779627)
(-0.150197 -0.183412 0.246265)
(0.0792411 0.365543 -1.29362)
(0.133229 0.37093 -1.71644)
(0.180448 0.383116 -1.81415)
(0.208845 0.389192 -1.87848)
(0.202562 0.373212 -1.93283)
(0.159069 0.316479 -1.94657)
(0.0832179 0.203966 -1.87308)
(-0.0140121 0.0480686 -1.61468)
(-0.0907367 -0.102018 -1.03786)
(-0.106573 -0.190801 0.00364144)
(0.0987687 0.416618 -1.22301)
(0.13337 0.414065 -1.74113)
(0.16071 0.417328 -1.91252)
(0.174411 0.413711 -2.02619)
(0.164066 0.386829 -2.10067)
(0.130739 0.319058 -2.11746)
(0.0776181 0.196094 -2.04079)
(0.00770235 0.0311192 -1.77722)
(-0.0498127 -0.122452 -1.18329)
(-0.0601204 -0.20882 -0.145123)
(0.119252 0.45678 -1.11402)
(0.138483 0.4464 -1.73429)
(0.151956 0.435974 -1.95734)
(0.157411 0.413565 -2.09633)
(0.147786 0.365067 -2.18532)
(0.125927 0.277455 -2.20955)
(0.0938419 0.14234 -2.12813)
(0.0468025 -0.0228478 -1.83418)
(0.00366579 -0.165301 -1.22341)
(-0.00706543 -0.235412 -0.194622)
(0.135963 0.4757 -0.967086)
(0.151595 0.462679 -1.67489)
(0.162278 0.438333 -1.93526)
(0.170998 0.393356 -2.08782)
(0.170758 0.31747 -2.18448)
(0.163232 0.20547 -2.20951)
(0.147896 0.0603728 -2.10837)
(0.113951 -0.095969 -1.76156)
(0.0753401 -0.214022 -1.15046)
(0.0518858 -0.257387 -0.139319)
(0.158126 0.476724 -0.738086)
(0.178829 0.466545 -1.50117)
(0.195675 0.432173 -1.79604)
(0.216467 0.368186 -1.95415)
(0.231434 0.268269 -2.04099)
(0.237609 0.136405 -2.03529)
(0.230339 -0.013292 -1.86438)
(0.199547 -0.154186 -1.45783)
(0.155173 -0.24459 -0.855051)
(0.108862 -0.259268 0.0920972)
(0.179599 0.440922 -0.232743)
(0.222287 0.44505 -0.933555)
(0.252308 0.4087 -1.2513)
(0.287066 0.340342 -1.40412)
(0.313778 0.233087 -1.44835)
(0.325388 0.097804 -1.35701)
(0.314373 -0.0472313 -1.06461)
(0.275211 -0.169999 -0.611862)
(0.21585 -0.238962 -0.0588496)
(0.139524 -0.228724 0.684941)
(-0.138336 0.0732401 -1.31941)
(-0.101381 0.089181 -1.53346)
(-0.0486475 0.108744 -1.28747)
(-0.00797625 0.123325 -0.930575)
(-0.00451878 0.123401 -0.615196)
(-0.0341718 0.103757 -0.351234)
(-0.0727243 0.0666456 -0.111227)
(-0.0916625 0.0253828 0.111205)
(-0.0688404 0.00711429 0.37352)
(-0.0102997 0.0421781 0.891516)
(-0.162935 0.123501 -1.93998)
(-0.134718 0.1535 -2.31122)
(-0.0843893 0.183231 -2.18701)
(-0.0361439 0.202833 -1.90325)
(-0.0214975 0.201964 -1.60346)
(-0.0476079 0.176406 -1.30721)
(-0.0951415 0.127963 -0.99322)
(-0.129953 0.0713079 -0.681042)
(-0.121251 0.0367389 -0.343013)
(-0.0704373 0.0588117 0.333029)
(-0.199687 0.169811 -2.12282)
(-0.182045 0.205888 -2.47831)
(-0.137584 0.238263 -2.40622)
(-0.0889831 0.259127 -2.2017)
(-0.0679676 0.258871 -1.96906)
(-0.0844202 0.230792 -1.69764)
(-0.128224 0.174153 -1.36515)
(-0.166837 0.104028 -1.01326)
(-0.16461 0.0561195 -0.646869)
(-0.115989 0.0692031 0.0631298)
(-0.239741 0.210401 -2.09397)
(-0.241031 0.241232 -2.41227)
(-0.211606 0.267959 -2.36642)
(-0.173181 0.284345 -2.24488)
(-0.152578 0.282133 -2.0923)
(-0.159905 0.251954 -1.87208)
(-0.191829 0.189233 -1.5593)
(-0.221546 0.110946 -1.21209)
(-0.212442 0.0587246 -0.843695)
(-0.155974 0.072503 -0.121793)
(-0.26322 0.248615 -1.9665)
(-0.290411 0.264076 -2.26767)
(-0.286518 0.274851 -2.24231)
(-0.269649 0.277734 -2.19125)
(-0.259497 0.264765 -2.09943)
(-0.264886 0.226271 -1.91301)
(-0.285216 0.158131 -1.62999)
(-0.298329 0.0796611 -1.31351)
(-0.273076 0.0347988 -0.967646)
(-0.202496 0.0593474 -0.250556)
(-0.251046 0.290144 -1.79905)
(-0.30153 0.280052 -2.13123)
(-0.324469 0.264194 -2.13252)
(-0.334536 0.240884 -2.1203)
(-0.343753 0.20385 -2.05184)
(-0.356055 0.147992 -1.86761)
(-0.370373 0.0749873 -1.59526)
(-0.371049 0.00566828 -1.30323)
(-0.331932 -0.0193542 -0.988607)
(-0.248352 0.0259808 -0.297397)
(-0.194222 0.33446 -1.61523)
(-0.253432 0.290859 -2.04316)
(-0.295101 0.239344 -2.09296)
(-0.327641 0.178003 -2.09573)
(-0.357305 0.106459 -2.01252)
(-0.383076 0.0278731 -1.79306)
(-0.402689 -0.0476806 -1.49752)
(-0.40255 -0.0984262 -1.21215)
(-0.362557 -0.0938677 -0.920099)
(-0.276602 -0.0221381 -0.249345)
(-0.100275 0.372597 -1.39609)
(-0.146278 0.295529 -1.96918)
(-0.189936 0.205676 -2.09013)
(-0.231847 0.103483 -2.10951)
(-0.276607 -0.00398089 -2.00531)
(-0.320289 -0.103784 -1.73935)
(-0.356984 -0.176153 -1.40499)
(-0.372441 -0.200983 -1.10207)
(-0.34969 -0.164515 -0.795293)
(-0.276592 -0.0686382 -0.108977)
(0.0265648 0.40704 -1.05023)
(0.0083697 0.30787 -1.78023)
(-0.0242361 0.189035 -1.9865)
(-0.064004 0.0556966 -2.02307)
(-0.117715 -0.0794496 -1.89537)
(-0.181559 -0.193445 -1.60024)
(-0.244644 -0.25931 -1.23566)
(-0.290362 -0.261878 -0.891413)
(-0.300683 -0.200827 -0.53208)
(-0.256737 -0.0911781 0.176888)
(0.176766 0.412176 -0.303224)
(0.19505 0.316327 -1.01819)
(0.179613 0.192096 -1.28965)
(0.143489 0.0545575 -1.35539)
(0.0797084 -0.0856176 -1.21254)
(-0.00574621 -0.199586 -0.921719)
(-0.0998991 -0.259208 -0.555806)
(-0.184132 -0.253884 -0.184535)
(-0.237216 -0.18807 0.199765)
(-0.232175 -0.0869186 0.794042)
(-0.0843431 -0.0418093 -1.59752)
(-0.0879067 -0.000840112 -2.09826)
(-0.0772462 0.0423485 -2.00471)
(-0.0500455 0.0805356 -1.65618)
(-0.0189092 0.104199 -1.24542)
(0.00537801 0.109552 -0.880758)
(0.0244547 0.0999337 -0.605935)
(0.0466688 0.0860851 -0.413427)
(0.083222 0.0876926 -0.19928)
(0.11813 0.117828 0.332101)
(-0.161254 -0.0317167 -2.23238)
(-0.16333 0.0128507 -2.7924)
(-0.158836 0.0611476 -2.77043)
(-0.13962 0.102371 -2.49265)
(-0.117091 0.126389 -2.12555)
(-0.100378 0.128455 -1.74319)
(-0.0895373 0.111356 -1.398)
(-0.0722787 0.0897743 -1.14718)
(-0.031902 0.0857781 -0.910284)
(0.0201163 0.1169 -0.252534)
(-0.274932 -0.00186208 -2.3515)
(-0.28022 0.0411695 -2.85443)
(-0.279313 0.0806109 -2.83166)
(-0.262539 0.109852 -2.59739)
(-0.243564 0.124781 -2.2813)
(-0.231327 0.121118 -1.91874)
(-0.224022 0.100627 -1.55065)
(-0.206628 0.0776028 -1.2812)
(-0.161427 0.0739768 -1.06651)
(-0.0937106 0.105647 -0.428967)
(-0.398694 0.0366816 -2.22799)
(-0.422279 0.0662646 -2.66043)
(-0.431108 0.0829675 -2.62771)
(-0.421107 0.0888383 -2.44136)
(-0.406774 0.0860526 -2.18035)
(-0.395233 0.073054 -1.85184)
(-0.38337 0.0528059 -1.50644)
(-0.356398 0.0379577 -1.27173)
(-0.299238 0.0441868 -1.10449)
(-0.211321 0.0811708 -0.508457)
(-0.493313 0.0751519 -2.00003)
(-0.546142 0.078795 -2.37233)
(-0.576571 0.0621365 -2.33917)
(-0.584169 0.0354448 -2.17712)
(-0.579607 0.00766487 -1.93225)
(-0.568291 -0.0164985 -1.63004)
(-0.547242 -0.0323164 -1.35293)
(-0.503024 -0.0306916 -1.22444)
(-0.427626 -0.00850664 -1.13657)
(-0.31813 0.0364304 -0.58099)
(-0.525736 0.116207 -1.74259)
(-0.60566 0.0835763 -2.08567)
(-0.665289 0.026956 -2.04098)
(-0.698512 -0.037622 -1.85584)
(-0.708227 -0.0928588 -1.59952)
(-0.69859 -0.127352 -1.32117)
(-0.670316 -0.13577 -1.13375)
(-0.611682 -0.114874 -1.14265)
(-0.51731 -0.0744605 -1.14479)
(-0.388983 -0.0205605 -0.633727)
(-0.476327 0.160331 -1.4956)
(-0.568285 0.0854832 -1.86488)
(-0.653819 -0.0127151 -1.81036)
(-0.715509 -0.112841 -1.5956)
(-0.744871 -0.190875 -1.32612)
(-0.743994 -0.231284 -1.0709)
(-0.717119 -0.230287 -0.955025)
(-0.654988 -0.193005 -1.06399)
(-0.550059 -0.134857 -1.13087)
(-0.411034 -0.0728428 -0.657978)
(-0.349837 0.201164 -1.26987)
(-0.433364 0.0846678 -1.74546)
(-0.532017 -0.0512726 -1.7198)
(-0.619465 -0.179399 -1.49753)
(-0.676739 -0.270095 -1.22382)
(-0.697781 -0.307218 -0.987327)
(-0.685614 -0.293199 -0.903842)
(-0.632121 -0.240564 -1.03645)
(-0.531053 -0.169039 -1.10898)
(-0.391631 -0.103176 -0.650811)
(-0.17355 0.234295 -0.948555)
(-0.234807 0.0881779 -1.57849)
(-0.332126 -0.0742933 -1.60991)
(-0.437414 -0.219653 -1.40306)
(-0.528209 -0.312853 -1.14122)
(-0.584355 -0.339096 -0.924221)
(-0.601104 -0.308591 -0.845774)
(-0.569036 -0.240577 -0.941709)
(-0.483152 -0.161468 -0.981322)
(-0.351272 -0.0980025 -0.537829)
(0.0242682 0.238045 -0.185557)
(-0.007743 0.0868357 -0.836155)
(-0.0960431 -0.0757912 -0.921821)
(-0.212102 -0.216881 -0.75618)
(-0.334359 -0.301987 -0.547581)
(-0.433091 -0.314182 -0.387518)
(-0.488796 -0.267736 -0.329832)
(-0.486111 -0.189374 -0.384193)
(-0.422542 -0.108966 -0.412606)
(-0.302992 -0.0584753 -0.0985138)
(0.0874549 -0.0808421 -1.39591)
(0.0542271 -0.0537716 -2.08071)
(0.0165763 -0.0227952 -2.19725)
(-0.000598495 0.00194343 -2.00577)
(0.00451819 0.0158776 -1.66677)
(0.0216019 0.0186615 -1.28615)
(0.0364638 0.013855 -0.963928)
(0.0429297 0.00797096 -0.743396)
(0.0403176 0.00314299 -0.499476)
(0.0170619 -0.00266744 0.143405)
(0.021147 -0.118743 -1.95193)
(-0.0213683 -0.0880154 -2.72553)
(-0.0660755 -0.0497548 -2.85746)
(-0.0940046 -0.0165791 -2.68921)
(-0.101732 0.00103753 -2.35365)
(-0.0961736 0.00290117 -1.95602)
(-0.0850207 -0.00330939 -1.59712)
(-0.0745933 -0.00841276 -1.38521)
(-0.0669092 -0.012734 -1.18009)
(-0.0696488 -0.0232728 -0.465846)
(-0.112916 -0.128573 -2.0161)
(-0.157535 -0.0978004 -2.7305)
(-0.204072 -0.063257 -2.82512)
(-0.233659 -0.0353693 -2.63493)
(-0.244745 -0.021625 -2.29596)
(-0.241433 -0.0211596 -1.89779)
(-0.227258 -0.0250489 -1.56756)
(-0.203857 -0.024393 -1.43042)
(-0.180247 -0.0232433 -1.29942)
(-0.163394 -0.0376601 -0.666586)
(-0.269283 -0.120904 -1.8246)
(-0.326858 -0.100345 -2.4221)
(-0.372859 -0.0836838 -2.45306)
(-0.397124 -0.0730006 -2.25695)
(-0.403464 -0.0695012 -1.94871)
(-0.394443 -0.0698879 -1.60003)
(-0.368626 -0.0647755 -1.36249)
(-0.324995 -0.049632 -1.37314)
(-0.276696 -0.0405007 -1.35626)
(-0.238363 -0.0601001 -0.812041)
(-0.402263 -0.10386 -1.53523)