/*--------------------------------*- C++ -*----------------------------------*\
| =========                 |                                                 |
| \\      /  F ield         | OpenFOAM: The Open Source CFD Toolbox           |
|  \\    /   O peration     | Version:  2406                                  |
|   \\  /    A nd           | Website:  www.openfoam.com                      |
|    \\/     M anipulation  |                                                 |
\*---------------------------------------------------------------------------*/
FoamFile
{
    version     2.0;
    format      ascii;
    arch        "LSB;label=32;scalar=64";
    class       volVectorField;
    location    "1";
    object      U;
}
// * * * * * * * * * * * * * * * * * * * * * * * * * * * * * * * * * * * * * //

dimensions      [0 1 -1 0 0 0 0];

internalField   nonuniform List<vector> 
25000
(
(0.190583 0.190583 1.08823)
(0.158705 0.210916 1.15542)
(0.120413 0.227428 1.20061)
(0.0749074 0.238691 1.22846)
(0.0254186 0.244373 1.24164)
(-0.0254186 0.244373 1.24164)
(-0.0749074 0.238691 1.22846)
(-0.120413 0.227428 1.20061)
(-0.158705 0.210916 1.15542)
(-0.190583 0.190583 1.08823)
(0.210916 0.158705 1.15542)
(0.177282 0.177282 1.22847)
(0.133812 0.191552 1.2712)
(0.082873 0.201254 1.29483)
(0.028032 0.206125 1.3053)
(-0.028032 0.206125 1.3053)
(-0.082873 0.201254 1.29483)
(-0.133812 0.191552 1.2712)
(-0.177282 0.177282 1.22847)
(-0.210916 0.158705 1.15542)
(0.227428 0.120413 1.20061)
(0.191552 0.133812 1.2712)
(0.144016 0.144016 1.31018)
(0.0889603 0.150949 1.33013)
(0.0300423 0.154445 1.3384)
(-0.0300423 0.154445 1.3384)
(-0.0889603 0.150949 1.33013)
(-0.144016 0.144016 1.31018)
(-0.191552 0.133812 1.2712)
(-0.227428 0.120413 1.20061)
(0.238691 0.0749074 1.22846)
(0.201254 0.082873 1.29483)
(0.150949 0.0889603 1.33013)
(0.0930815 0.0930815 1.34718)
(0.0314033 0.0951604 1.35386)
(-0.0314033 0.0951604 1.35386)
(-0.0930815 0.0930815 1.34718)
(-0.150949 0.0889603 1.33013)
(-0.201254 0.082873 1.29483)
(-0.238691 0.0749074 1.22846)
(0.244373 0.0254186 1.24164)
(0.206125 0.028032 1.3053)
(0.154445 0.0300423 1.3384)
(0.0951604 0.0314033 1.35386)
(0.0320911 0.0320911 1.35968)
(-0.0320911 0.0320911 1.35968)
(-0.0951604 0.0314033 1.35386)
(-0.154445 0.0300423 1.3384)
(-0.206125 0.028032 1.3053)
(-0.244373 0.0254186 1.24164)
(0.244373 -0.0254186 1.24164)
(0.206125 -0.028032 1.3053)
(0.154445 -0.0300423 1.3384)
(0.0951604 -0.0314033 1.35386)
(0.0320911 -0.0320911 1.35968)
(-0.0320911 -0.0320911 1.35968)
(-0.0951604 -0.0314033 1.35386)
(-0.154445 -0.0300423 1.3384)
(-0.206125 -0.028032 1.3053)
(-0.244373 -0.0254186 1.24164)
(0.238691 -0.0749074 1.22846)
(0.201254 -0.082873 1.29483)
(0.150949 -0.0889603 1.33013)
(0.0930815 -0.0930815 1.34718)
(0.0314033 -0.0951604 1.35386)
(-0.0314033 -0.0951604 1.35386)
(-0.0930815 -0.0930815 1.34718)
(-0.150949 -0.0889603 1.33013)
(-0.201254 -0.082873 1.29483)
(-0.238691 -0.0749074 1.22846)
(0.227428 -0.120413 1.20061)
(0.191552 -0.133812 1.2712)
(0.144016 -0.144016 1.31018)
(0.0889603 -0.150949 1.33013)
(0.0300423 -0.154445 1.3384)
(-0.0300423 -0.154445 1.3384)
(-0.0889603 -0.150949 1.33013)
(-0.144016 -0.144016 1.31018)
(-0.191552 -0.133812 1.2712)
(-0.227428 -0.120413 1.20061)
(0.210916 -0.158705 1.15542)
(0.177282 -0.177282 1.22847)
(0.133812 -0.191552 1.2712)
(0.082873 -0.201254 1.29483)
(0.028032 -0.206125 1.3053)
(-0.028032 -0.206125 1.3053)
(-0.082873 -0.201254 1.29483)
(-0.133812 -0.191552 1.2712)
(-0.177282 -0.177282 1.22847)
(-0.210916 -0.158705 1.15542)
(0.190583 -0.190583 1.08823)
(0.158705 -0.210916 1.15542)
(0.120413 -0.227428 1.20061)
(0.0749074 -0.238691 1.22846)
(0.0254186 -0.244373 1.24164)
(-0.0254186 -0.244373 1.24164)
(-0.0749074 -0.238691 1.22846)
(-0.120413 -0.227428 1.20061)
(-0.158705 -0.210916 1.15542)
(-0.190583 -0.190583 1.08823)
(0.0361154 0.0361154 1.25172)
(0.0336561 0.044702 1.37272)
(0.0277157 0.0518389 1.46105)
(0.0181364 0.0573124 1.51886)
(0.00632067 0.0601634 1.54732)
(-0.00632067 0.0601634 1.54732)
(-0.0181364 0.0573124 1.51886)
(-0.0277157 0.0518389 1.46105)
(-0.0336561 0.044702 1.37272)
(-0.0361154 0.0361154 1.25172)
(0.044702 0.0336561 1.37272)
(0.0427353 0.0427353 1.51634)
(0.0353661 0.0503583 1.61126)
(0.0231558 0.0559692 1.66939)
(0.00804881 0.0589226 1.697)
(-0.00804881 0.0589226 1.697)
(-0.0231558 0.0559692 1.66939)
(-0.0353661 0.0503583 1.61126)
(-0.0427353 0.0427353 1.51634)
(-0.044702 0.0336561 1.37272)
(0.0518389 0.0277157 1.46105)
(0.0503583 0.0353661 1.61126)
(0.0416965 0.0416965 1.70804)
(0.0273296 0.0463064 1.76543)
(0.00950045 0.0487396 1.79204)
(-0.00950045 0.0487396 1.79204)
(-0.0273296 0.0463064 1.76543)
(-0.0416965 0.0416965 1.70804)
(-0.0503583 0.0353661 1.61126)
(-0.0518389 0.0277157 1.46105)
(0.0573124 0.0181364 1.51886)
(0.0559692 0.0231558 1.66939)
(0.0463064 0.0273296 1.76543)
(0.0303425 0.0303425 1.82147)
(0.0105449 0.0319247 1.84711)
(-0.0105449 0.0319247 1.84711)
(-0.0303425 0.0303425 1.82147)
(-0.0463064 0.0273296 1.76543)
(-0.0559692 0.0231558 1.66939)
(-0.0573124 0.0181364 1.51886)
(0.0601634 0.00632067 1.54732)
(0.0589226 0.00804881 1.697)
(0.0487396 0.00950045 1.79204)
(0.0319247 0.0105449 1.84711)
(0.0110924 0.0110924 1.87214)
(-0.0110924 0.0110924 1.87214)
(-0.0319247 0.0105449 1.84711)
(-0.0487396 0.00950045 1.79204)
(-0.0589226 0.00804881 1.697)
(-0.0601634 0.00632067 1.54732)
(0.0601634 -0.00632067 1.54732)
(0.0589226 -0.00804881 1.697)
(0.0487396 -0.00950045 1.79204)
(0.0319247 -0.0105449 1.84711)
(0.0110924 -0.0110924 1.87214)
(-0.0110924 -0.0110924 1.87214)
(-0.0319247 -0.0105449 1.84711)
(-0.0487396 -0.00950045 1.79204)
(-0.0589226 -0.00804881 1.697)
(-0.0601634 -0.00632067 1.54732)
(0.0573124 -0.0181364 1.51886)
(0.0559692 -0.0231558 1.66939)
(0.0463064 -0.0273296 1.76543)
(0.0303425 -0.0303425 1.82147)
(0.0105449 -0.0319247 1.84711)
(-0.0105449 -0.0319247 1.84711)
(-0.0303425 -0.0303425 1.82147)
(-0.0463064 -0.0273296 1.76543)
(-0.0559692 -0.0231558 1.66939)
(-0.0573124 -0.0181364 1.51886)
(0.0518389 -0.0277157 1.46105)
(0.0503583 -0.0353661 1.61126)
(0.0416965 -0.0416965 1.70804)
(0.0273296 -0.0463064 1.76543)
(0.00950045 -0.0487396 1.79204)
(-0.00950045 -0.0487396 1.79204)
(-0.0273296 -0.0463064 1.76543)
(-0.0416965 -0.0416965 1.70804)
(-0.0503583 -0.0353661 1.61126)
(-0.0518389 -0.0277157 1.46105)
(0.044702 -0.0336561 1.37272)
(0.0427353 -0.0427353 1.51634)
(0.0353661 -0.0503583 1.61126)
(0.0231558 -0.0559692 1.66939)
(0.00804881 -0.0589226 1.697)
(-0.00804881 -0.0589226 1.697)
(-0.0231558 -0.0559692 1.66939)
(-0.0353661 -0.0503583 1.61126)
(-0.0427353 -0.0427353 1.51634)
(-0.044702 -0.0336561 1.37272)
(0.0361154 -0.0361154 1.25172)
(0.0336561 -0.044702 1.37272)
(0.0277157 -0.0518389 1.46105)
(0.0181364 -0.0573124 1.51886)
(0.00632067 -0.0601634 1.54732)
(-0.00632067 -0.0601634 1.54732)
(-0.0181364 -0.0573124 1.51886)
(-0.0277157 -0.0518389 1.46105)
(-0.0336561 -0.044702 1.37272)
(-0.0361154 -0.0361154 1.25172)
(0.016769 0.016769 1.06119)
(0.0155789 0.0208666 1.19282)
(0.0131439 0.0244949 1.29436)
(0.00873152 0.0273221 1.36347)
(0.00306093 0.0288344 1.39834)
(-0.00306093 0.0288344 1.39834)
(-0.00873152 0.0273221 1.36347)
(-0.0131439 0.0244949 1.29436)
(-0.0155789 0.0208666 1.19282)
(-0.016769 0.016769 1.06119)
(0.0208666 0.0155789 1.19282)
(0.020276 0.020276 1.35777)
(0.0172632 0.0243524 1.47522)
(0.011552 0.0274498 1.55129)
(0.00405634 0.0291172 1.58872)
(-0.00405634 0.0291172 1.58872)
(-0.011552 0.0274498 1.55129)
(-0.0172632 0.0243524 1.47522)
(-0.020276 0.020276 1.35777)
(-0.0208666 0.0155789 1.19282)
(0.0244949 0.0131439 1.29436)
(0.0243524 0.0172632 1.47522)
(0.0208534 0.0208534 1.60216)
(0.0140071 0.0235388 1.68284)
(0.00492592 0.0249796 1.72201)
(-0.00492592 0.0249796 1.72201)
(-0.0140071 0.0235388 1.68284)
(-0.0208534 0.0208534 1.60216)
(-0.0243524 0.0172632 1.47522)
(-0.0244949 0.0131439 1.29436)
(0.0273221 0.00873152 1.36347)
(0.0274498 0.011552 1.55129)
(0.0235388 0.0140071 1.68284)
(0.0158279 0.0158279 1.76586)
(0.00556955 0.0168008 1.80592)
(-0.00556955 0.0168008 1.80592)
(-0.0158279 0.0158279 1.76586)
(-0.0235388 0.0140071 1.68284)
(-0.0274498 0.011552 1.55129)
(-0.0273221 0.00873152 1.36347)
(0.0288344 0.00306093 1.39834)
(0.0291172 0.00405634 1.58872)
(0.0249796 0.00492592 1.72201)
(0.0168008 0.00556955 1.80592)
(0.00591295 0.00591295 1.84631)
(-0.00591295 0.00591295 1.84631)
(-0.0168008 0.00556955 1.80592)
(-0.0249796 0.00492592 1.72201)
(-0.0291172 0.00405634 1.58872)
(-0.0288344 0.00306093 1.39834)
(0.0288344 -0.00306093 1.39834)
(0.0291172 -0.00405634 1.58872)
(0.0249796 -0.00492592 1.72201)
(0.0168008 -0.00556955 1.80592)
(0.00591295 -0.00591295 1.84631)
(-0.00591295 -0.00591295 1.84631)
(-0.0168008 -0.00556955 1.80592)
(-0.0249796 -0.00492592 1.72201)
(-0.0291172 -0.00405634 1.58872)
(-0.0288344 -0.00306093 1.39834)
(0.0273221 -0.00873152 1.36347)
(0.0274498 -0.011552 1.55129)
(0.0235388 -0.0140071 1.68284)
(0.0158279 -0.0158279 1.76586)
(0.00556955 -0.0168008 1.80592)
(-0.00556955 -0.0168008 1.80592)
(-0.0158279 -0.0158279 1.76586)
(-0.0235388 -0.0140071 1.68284)
(-0.0274498 -0.011552 1.55129)
(-0.0273221 -0.00873152 1.36347)
(0.0244949 -0.0131439 1.29436)
(0.0243524 -0.0172632 1.47522)
(0.0208534 -0.0208534 1.60216)
(0.0140071 -0.0235388 1.68284)
(0.00492592 -0.0249796 1.72201)
(-0.00492592 -0.0249796 1.72201)
(-0.0140071 -0.0235388 1.68284)
(-0.0208534 -0.0208534 1.60216)
(-0.0243524 -0.0172632 1.47522)
(-0.0244949 -0.0131439 1.29436)
(0.0208666 -0.0155789 1.19282)
(0.020276 -0.020276 1.35777)
(0.0172632 -0.0243524 1.47522)
(0.011552 -0.0274498 1.55129)
(0.00405634 -0.0291172 1.58872)
(-0.00405634 -0.0291172 1.58872)
(-0.011552 -0.0274498 1.55129)
(-0.0172632 -0.0243524 1.47522)
(-0.020276 -0.020276 1.35777)
(-0.0208666 -0.0155789 1.19282)
(0.016769 -0.016769 1.06119)
(0.0155789 -0.0208666 1.19282)
(0.0131439 -0.0244949 1.29436)
(0.00873152 -0.0273221 1.36347)
(0.00306093 -0.0288344 1.39834)
(-0.00306093 -0.0288344 1.39834)
(-0.00873152 -0.0273221 1.36347)
(-0.0131439 -0.0244949 1.29436)
(-0.0155789 -0.0208666 1.19282)
(-0.016769 -0.016769 1.06119)
(0.00265366 0.00265366 1.16316)
(0.00317607 0.00386059 1.3061)
(0.00290849 0.00496796 1.41718)
(0.00204419 0.005864 1.49328)
(0.00073636 0.00635818 1.53187)
(-0.00073636 0.00635818 1.53187)
(-0.00204419 0.005864 1.49328)
(-0.00290849 0.00496796 1.41718)
(-0.00317607 0.00386059 1.3061)
(-0.00265366 0.00265366 1.16316)
(0.00386059 0.00317607 1.3061)
(0.00467985 0.00467985 1.48651)
(0.00432038 0.00607452 1.61661)
(0.00304071 0.00717413 1.7019)
(0.00109523 0.00778177 1.74422)
(-0.00109523 0.00778177 1.74422)
(-0.00304071 0.00717413 1.7019)
(-0.00432038 0.00607452 1.61661)
(-0.00467985 0.00467985 1.48651)
(-0.00386059 0.00317607 1.3061)
(0.00496796 0.00290849 1.41718)
(0.00607452 0.00432038 1.61661)
(0.0056231 0.0056231 1.75906)
(0.00396029 0.00664559 1.85111)
(0.00142641 0.00720943 1.89632)
(-0.00142641 0.00720943 1.89632)
(-0.00396029 0.00664559 1.85111)
(-0.0056231 0.0056231 1.75906)
(-0.00607452 0.00432038 1.61661)
(-0.00496796 0.00290849 1.41718)
(0.005864 0.00204419 1.49328)
(0.00717413 0.00304071 1.7019)
(0.00664559 0.00396029 1.85111)
(0.00468346 0.00468346 1.94716)
(0.00168735 0.0050825 1.99416)
(-0.00168735 0.0050825 1.99416)
(-0.00468346 0.00468346 1.94716)
(-0.00664559 0.00396029 1.85111)
(-0.00717413 0.00304071 1.7019)
(-0.005864 0.00204419 1.49328)
(0.00635818 0.00073636 1.53187)
(0.00778177 0.00109523 1.74422)
(0.00720943 0.00142641 1.89632)
(0.0050825 0.00168735 1.99416)
(0.0018313 0.0018313 2.04198)
(-0.0018313 0.0018313 2.04198)
(-0.0050825 0.00168735 1.99416)
(-0.00720943 0.00142641 1.89632)
(-0.00778177 0.00109523 1.74422)
(-0.00635818 0.00073636 1.53187)
(0.00635818 -0.00073636 1.53187)
(0.00778177 -0.00109523 1.74422)
(0.00720943 -0.00142641 1.89632)
(0.0050825 -0.00168735 1.99416)
(0.0018313 -0.0018313 2.04198)
(-0.0018313 -0.0018313 2.04198)
(-0.0050825 -0.00168735 1.99416)
(-0.00720943 -0.00142641 1.89632)
(-0.00778177 -0.00109523 1.74422)
(-0.00635818 -0.00073636 1.53187)
(0.005864 -0.00204419 1.49328)
(0.00717413 -0.00304071 1.7019)
(0.00664559 -0.00396029 1.85111)
(0.00468346 -0.00468346 1.94716)
(0.00168735 -0.0050825 1.99416)
(-0.00168735 -0.0050825 1.99416)
(-0.00468346 -0.00468346 1.94716)
(-0.00664559 -0.00396029 1.85111)
(-0.00717413 -0.00304071 1.7019)
(-0.005864 -0.00204419 1.49328)
(0.00496796 -0.00290849 1.41718)
(0.00607452 -0.00432038 1.61661)
(0.0056231 -0.0056231 1.75906)
(0.00396029 -0.00664559 1.85111)
(0.00142641 -0.00720943 1.89632)
(-0.00142641 -0.00720943 1.89632)
(-0.00396029 -0.00664559 1.85111)
(-0.0056231 -0.0056231 1.75906)
(-0.00607452 -0.00432038 1.61661)
(-0.00496796 -0.00290849 1.41718)
(0.00386059 -0.00317607 1.3061)
(0.00467985 -0.00467985 1.48651)
(0.00432038 -0.00607452 1.61661)
(0.00304071 -0.00717413 1.7019)
(0.00109523 -0.00778177 1.74422)
(-0.00109523 -0.00778177 1.74422)
(-0.00304071 -0.00717413 1.7019)
(-0.00432038 -0.00607452 1.61661)
(-0.00467985 -0.00467985 1.48651)
(-0.00386059 -0.00317607 1.3061)
(0.00265366 -0.00265366 1.16316)
(0.00317607 -0.00386059 1.3061)
(0.00290849 -0.00496796 1.41718)
(0.00204419 -0.005864 1.49328)
(0.00073636 -0.00635818 1.53187)
(-0.00073636 -0.00635818 1.53187)
(-0.00204419 -0.005864 1.49328)
(-0.00290849 -0.00496796 1.41718)
(-0.00317607 -0.00386059 1.3061)
(-0.00265366 -0.00265366 1.16316)
(0.00290033 0.00290033 1.07225)
(0.00246219 0.00345466 1.2118)
(0.00210692 0.00400454 1.3217)
(0.00139124 0.00444348 1.39774)
(0.000489288 0.00467922 1.43652)
(-0.000489288 0.00467922 1.43652)
(-0.00139124 0.00444348 1.39774)
(-0.00210692 0.00400454 1.3217)
(-0.00246219 0.00345466 1.2118)
(-0.00290033 0.00290033 1.07225)
(0.00345466 0.00246219 1.2118)
(0.00315292 0.00315292 1.39008)
(0.00274395 0.00378719 1.52084)
(0.00185113 0.00429611 1.60769)
(0.000654258 0.00457532 1.65113)
(-0.000654258 0.00457532 1.65113)
(-0.00185113 0.00429611 1.60769)
(-0.00274395 0.00378719 1.52084)
(-0.00315292 0.00315292 1.39008)
(-0.00345466 0.00246219 1.2118)
(0.00400454 0.00210692 1.3217)
(0.00378719 0.00274395 1.52084)
(0.00334191 0.00334191 1.66581)
(0.00228051 0.00380991 1.76093)
(0.000809284 0.0040671 1.80811)
(-0.000809284 0.0040671 1.80811)
(-0.00228051 0.00380991 1.76093)
(-0.00334191 0.00334191 1.66581)
(-0.00378719 0.00274395 1.52084)
(-0.00400454 0.00210692 1.3217)
(0.00444348 0.00139124 1.39774)
(0.00429611 0.00185113 1.60769)
(0.00380991 0.00228051 1.76093)
(0.0026133 0.0026133 1.86125)
(0.000929765 0.00279636 1.91087)
(-0.000929765 0.00279636 1.91087)
(-0.0026133 0.0026133 1.86125)
(-0.00380991 0.00228051 1.76093)
(-0.00429611 0.00185113 1.60769)
(-0.00444348 0.00139124 1.39774)
(0.00467922 0.000489288 1.43652)
(0.00457532 0.000654258 1.65113)
(0.0040671 0.000809284 1.80811)
(0.00279636 0.000929765 1.91087)
(0.000996119 0.000996119 1.96166)
(-0.000996119 0.000996119 1.96166)
(-0.00279636 0.000929765 1.91087)
(-0.0040671 0.000809284 1.80811)
(-0.00457532 0.000654258 1.65113)
(-0.00467922 0.000489288 1.43652)
(0.00467922 -0.000489288 1.43652)
(0.00457532 -0.000654258 1.65113)
(0.0040671 -0.000809284 1.80811)
(0.00279636 -0.000929765 1.91087)
(0.000996119 -0.000996119 1.96166)
(-0.000996119 -0.000996119 1.96166)
(-0.00279636 -0.000929765 1.91087)
(-0.0040671 -0.000809284 1.80811)
(-0.00457532 -0.000654258 1.65113)
(-0.00467922 -0.000489288 1.43652)
(0.00444348 -0.00139124 1.39774)
(0.00429611 -0.00185113 1.60769)
(0.00380991 -0.00228051 1.76093)
(0.0026133 -0.0026133 1.86125)
(0.000929765 -0.00279636 1.91087)
(-0.000929765 -0.00279636 1.91087)
(-0.0026133 -0.0026133 1.86125)
(-0.00380991 -0.00228051 1.76093)
(-0.00429611 -0.00185113 1.60769)
(-0.00444348 -0.00139124 1.39774)
(0.00400454 -0.00210692 1.3217)
(0.00378719 -0.00274395 1.52084)
(0.00334191 -0.00334191 1.66581)
(0.00228051 -0.00380991 1.76093)
(0.000809284 -0.0040671 1.80811)
(-0.000809284 -0.0040671 1.80811)
(-0.00228051 -0.00380991 1.76093)
(-0.00334191 -0.00334191 1.66581)
(-0.00378719 -0.00274395 1.52084)
(-0.00400454 -0.00210692 1.3217)
(0.00345466 -0.00246219 1.2118)
(0.00315292 -0.00315292 1.39008)
(0.00274395 -0.00378719 1.52084)
(0.00185113 -0.00429611 1.60769)
(0.000654258 -0.00457532 1.65113)
(-0.000654258 -0.00457532 1.65113)
(-0.00185113 -0.00429611 1.60769)
(-0.00274395 -0.00378719 1.52084)
(-0.00315292 -0.00315292 1.39008)
(-0.00345466 -0.00246219 1.2118)
(0.00290033 -0.00290033 1.07225)
(0.00246219 -0.00345466 1.2118)
(0.00210692 -0.00400454 1.3217)
(0.00139124 -0.00444348 1.39774)
(0.000489288 -0.00467922 1.43652)
(-0.000489288 -0.00467922 1.43652)
(-0.00139124 -0.00444348 1.39774)
(-0.00210692 -0.00400454 1.3217)
(-0.00246219 -0.00345466 1.2118)
(-0.00290033 -0.00290033 1.07225)
(-0.000678093 -0.000678093 1.13196)
(-0.000279458 -0.000516512 1.27545)
(-0.000207351 -0.00050326 1.38809)
(-6.22886e-05 -0.000424299 1.46588)
(-3.30229e-05 -0.000395585 1.50552)
(3.30229e-05 -0.000395585 1.50552)
(6.22886e-05 -0.000424299 1.46588)
(0.000207351 -0.00050326 1.38809)
(0.000279458 -0.000516512 1.27545)
(0.000678093 -0.000678093 1.13196)
(-0.000516512 -0.000279458 1.27545)
(-7.27523e-05 -7.27523e-05 1.4582)
(-2.601e-05 1.91503e-05 1.59186)
(8.63848e-05 0.00015855 1.68052)
(1.50967e-05 0.000223402 1.72485)
(-1.50967e-05 0.000223402 1.72485)
(-8.63848e-05 0.00015855 1.68052)
(2.601e-05 1.91503e-05 1.59186)
(7.27523e-05 -7.27523e-05 1.4582)
(0.000516512 -0.000279458 1.27545)
(-0.00050326 -0.000207351 1.38809)
(1.91503e-05 -2.601e-05 1.59186)
(6.76562e-05 6.76562e-05 1.73991)
(0.000173089 0.000181092 1.837)
(4.69193e-05 0.000242817 1.88517)
(-4.69193e-05 0.000242817 1.88517)
(-0.000173089 0.000181092 1.837)
(-6.76562e-05 6.76562e-05 1.73991)
(-1.91503e-05 -2.601e-05 1.59186)
(0.00050326 -0.000207351 1.38809)
(-0.000424299 -6.22886e-05 1.46588)
(0.00015855 8.63848e-05 1.68052)
(0.000181092 0.000173089 1.837)
(0.000260785 0.000260785 1.93945)
(8.01098e-05 0.000310371 1.99017)
(-8.01098e-05 0.000310371 1.99017)
(-0.000260785 0.000260785 1.93945)
(-0.000181092 0.000173089 1.837)
(-0.00015855 8.63848e-05 1.68052)
(0.000424299 -6.22886e-05 1.46588)
(-0.000395585 -3.30229e-05 1.50552)
(0.000223402 1.50967e-05 1.72485)
(0.000242817 4.69193e-05 1.88517)
(0.000310371 8.01098e-05 1.99017)
(9.87141e-05 9.87141e-05 2.04213)
(-9.87141e-05 9.87141e-05 2.04213)
(-0.000310371 8.01098e-05 1.99017)
(-0.000242817 4.69193e-05 1.88517)
(-0.000223402 1.50967e-05 1.72485)
(0.000395585 -3.30229e-05 1.50552)
(-0.000395585 3.30229e-05 1.50552)
(0.000223402 -1.50967e-05 1.72485)
(0.000242817 -4.69193e-05 1.88517)
(0.000310371 -8.01098e-05 1.99017)
(9.87141e-05 -9.87141e-05 2.04213)
(-9.87141e-05 -9.87141e-05 2.04213)
(-0.000310371 -8.01098e-05 1.99017)
(-0.000242817 -4.69193e-05 1.88517)
(-0.000223402 -1.50967e-05 1.72485)
(0.000395585 3.30229e-05 1.50552)
(-0.000424299 6.22886e-05 1.46588)
(0.00015855 -8.63848e-05 1.68052)
(0.000181092 -0.000173089 1.837)
(0.000260785 -0.000260785 1.93945)
(8.01098e-05 -0.000310371 1.99017)
(-8.01098e-05 -0.000310371 1.99017)
(-0.000260785 -0.000260785 1.93945)
(-0.000181092 -0.000173089 1.837)
(-0.00015855 -8.63848e-05 1.68052)
(0.000424299 6.22886e-05 1.46588)
(-0.00050326 0.000207351 1.38809)
(1.91503e-05 2.601e-05 1.59186)
(6.76562e-05 -6.76562e-05 1.73991)
(0.000173089 -0.000181092 1.837)
(4.69193e-05 -0.000242817 1.88517)
(-4.69193e-05 -0.000242817 1.88517)
(-0.000173089 -0.000181092 1.837)
(-6.76562e-05 -6.76562e-05 1.73991)
(-1.91503e-05 2.601e-05 1.59186)
(0.00050326 0.000207351 1.38809)
(-0.000516512 0.000279458 1.27545)
(-7.27523e-05 7.27523e-05 1.4582)
(-2.601e-05 -1.91503e-05 1.59186)
(8.63848e-05 -0.00015855 1.68052)
(1.50967e-05 -0.000223402 1.72485)
(-1.50967e-05 -0.000223402 1.72485)
(-8.63848e-05 -0.00015855 1.68052)
(2.601e-05 -1.91503e-05 1.59186)
(7.27523e-05 7.27523e-05 1.4582)
(0.000516512 0.000279458 1.27545)
(-0.000678093 0.000678093 1.13196)
(-0.000279458 0.000516512 1.27545)
(-0.000207351 0.00050326 1.38809)
(-6.22886e-05 0.000424299 1.46588)
(-3.30229e-05 0.000395585 1.50552)
(3.30229e-05 0.000395585 1.50552)
(6.22886e-05 0.000424299 1.46588)
(0.000207351 0.00050326 1.38809)
(0.000279458 0.000516512 1.27545)
(0.000678093 0.000678093 1.13196)
(0.00114094 0.00114094 1.08761)
(0.000847641 0.00127636 1.22887)
(0.000699835 0.00142385 1.34033)
(0.000439717 0.00153576 1.41756)
(0.000152072 0.00159138 1.457)
(-0.000152072 0.00159138 1.457)
(-0.000439717 0.00153576 1.41756)
(-0.000699835 0.00142385 1.34033)
(-0.000847641 0.00127636 1.22887)
(-0.00114094 0.00114094 1.08761)
(0.00127636 0.000847641 1.22887)
(0.000998849 0.000998849 1.40956)
(0.000832732 0.00113927 1.54251)
(0.000537336 0.00125257 1.63104)
(0.000185035 0.00131104 1.67542)
(-0.000185035 0.00131104 1.67542)
(-0.000537336 0.00125257 1.63104)
(-0.000832732 0.00113927 1.54251)
(-0.000998849 0.000998849 1.40956)
(-0.00127636 0.000847641 1.22887)
(0.00142385 0.000699835 1.34033)
(0.00113927 0.000832732 1.54251)
(0.000964143 0.000964143 1.69034)
(0.000630125 0.00106202 1.7877)
(0.000217848 0.00111419 1.83614)
(-0.000217848 0.00111419 1.83614)
(-0.000630125 0.00106202 1.7877)
(-0.000964143 0.000964143 1.69034)
(-0.00113927 0.000832732 1.54251)
(-0.00142385 0.000699835 1.34033)
(0.00153576 0.000439717 1.41756)
(0.00125257 0.000537336 1.63104)
(0.00106202 0.000630125 1.7877)
(0.000698415 0.000698415 1.89072)
(0.00024207 0.00073483 1.94188)
(-0.00024207 0.00073483 1.94188)
(-0.000698415 0.000698415 1.89072)
(-0.00106202 0.000630125 1.7877)
(-0.00125257 0.000537336 1.63104)
(-0.00153576 0.000439717 1.41756)
(0.00159138 0.000152072 1.457)
(0.00131104 0.000185035 1.67542)
(0.00111419 0.000217848 1.83614)
(0.00073483 0.00024207 1.94188)
(0.000255022 0.000255022 1.99437)
(-0.000255022 0.000255022 1.99437)
(-0.00073483 0.00024207 1.94188)
(-0.00111419 0.000217848 1.83614)
(-0.00131104 0.000185035 1.67542)
(-0.00159138 0.000152072 1.457)
(0.00159138 -0.000152072 1.457)
(0.00131104 -0.000185035 1.67542)
(0.00111419 -0.000217848 1.83614)
(0.00073483 -0.00024207 1.94188)
(0.000255022 -0.000255022 1.99437)
(-0.000255022 -0.000255022 1.99437)
(-0.00073483 -0.00024207 1.94188)
(-0.00111419 -0.000217848 1.83614)
(-0.00131104 -0.000185035 1.67542)
(-0.00159138 -0.000152072 1.457)
(0.00153576 -0.000439717 1.41756)
(0.00125257 -0.000537336 1.63104)
(0.00106202 -0.000630125 1.7877)
(0.000698415 -0.000698415 1.89072)
(0.00024207 -0.00073483 1.94188)
(-0.00024207 -0.00073483 1.94188)
(-0.000698415 -0.000698415 1.89072)
(-0.00106202 -0.000630125 1.7877)
(-0.00125257 -0.000537336 1.63104)
(-0.00153576 -0.000439717 1.41756)
(0.00142385 -0.000699835 1.34033)
(0.00113927 -0.000832732 1.54251)
(0.000964143 -0.000964143 1.69034)
(0.000630125 -0.00106202 1.7877)
(0.000217848 -0.00111419 1.83614)
(-0.000217848 -0.00111419 1.83614)
(-0.000630125 -0.00106202 1.7877)
(-0.000964143 -0.000964143 1.69034)
(-0.00113927 -0.000832732 1.54251)
(-0.00142385 -0.000699835 1.34033)
(0.00127636 -0.000847641 1.22887)
(0.000998849 -0.000998849 1.40956)
(0.000832732 -0.00113927 1.54251)
(0.000537336 -0.00125257 1.63104)
(0.000185035 -0.00131104 1.67542)
(-0.000185035 -0.00131104 1.67542)
(-0.000537336 -0.00125257 1.63104)
(-0.000832732 -0.00113927 1.54251)
(-0.000998849 -0.000998849 1.40956)
(-0.00127636 -0.000847641 1.22887)
(0.00114094 -0.00114094 1.08761)
(0.000847641 -0.00127636 1.22887)
(0.000699835 -0.00142385 1.34033)
(0.000439717 -0.00153576 1.41756)
(0.000152072 -0.00159138 1.457)
(-0.000152072 -0.00159138 1.457)
(-0.000439717 -0.00153576 1.41756)
(-0.000699835 -0.00142385 1.34033)
(-0.000847641 -0.00127636 1.22887)
(-0.00114094 -0.00114094 1.08761)
(-0.000664136 -0.000664136 1.11765)
(-0.0004339 -0.000696723 1.26061)
(-0.000344291 -0.000750747 1.3731)
(-0.000200217 -0.000782155 1.45091)
(-6.93536e-05 -0.00079535 1.49062)
(6.93536e-05 -0.00079535 1.49062)
(0.000200217 -0.000782155 1.45091)
(0.000344291 -0.000750747 1.3731)
(0.0004339 -0.000696723 1.26061)
(0.000664136 -0.000664136 1.11765)
(-0.000696723 -0.0004339 1.26061)
(-0.000453341 -0.000453341 1.44306)
(-0.000356248 -0.00048212 1.57689)
(-0.000206341 -0.000497159 1.66587)
(-6.97185e-05 -0.000502721 1.71043)
(6.97185e-05 -0.000502721 1.71043)
(0.000206341 -0.000497159 1.66587)
(0.000356248 -0.00048212 1.57689)
(0.000453341 -0.000453341 1.44306)
(0.000696723 -0.0004339 1.26061)
(-0.000750747 -0.000344291 1.3731)
(-0.00048212 -0.000356248 1.57689)
(-0.000380882 -0.000380882 1.72546)
(-0.000219099 -0.000388834 1.82317)
(-7.39293e-05 -0.000392242 1.87174)
(7.39293e-05 -0.000392242 1.87174)
(0.000219099 -0.000388834 1.82317)
(0.000380882 -0.000380882 1.72546)
(0.00048212 -0.000356248 1.57689)
(0.000750747 -0.000344291 1.3731)
(-0.000782155 -0.000200217 1.45091)
(-0.000497159 -0.000206341 1.66587)
(-0.000388834 -0.000219099 1.82317)
(-0.000221224 -0.000221224 1.92648)
(-7.41916e-05 -0.000221601 1.97774)
(7.41916e-05 -0.000221601 1.97774)
(0.000221224 -0.000221224 1.92648)
(0.000388834 -0.000219099 1.82317)
(0.000497159 -0.000206341 1.66587)
(0.000782155 -0.000200217 1.45091)
(-0.00079535 -6.93536e-05 1.49062)
(-0.000502721 -6.97185e-05 1.71043)
(-0.000392242 -7.39293e-05 1.87174)
(-0.000221601 -7.41916e-05 1.97774)
(-7.42211e-05 -7.42211e-05 2.03031)
(7.42211e-05 -7.42211e-05 2.03031)
(0.000221601 -7.41916e-05 1.97774)
(0.000392242 -7.39293e-05 1.87174)
(0.000502721 -6.97185e-05 1.71043)
(0.00079535 -6.93536e-05 1.49062)
(-0.00079535 6.93536e-05 1.49062)
(-0.000502721 6.97185e-05 1.71043)
(-0.000392242 7.39293e-05 1.87174)
(-0.000221601 7.41916e-05 1.97774)
(-7.42211e-05 7.42211e-05 2.03031)
(7.42211e-05 7.42211e-05 2.03031)
(0.000221601 7.41916e-05 1.97774)
(0.000392242 7.39293e-05 1.87174)
(0.000502721 6.97185e-05 1.71043)
(0.00079535 6.93536e-05 1.49062)
(-0.000782155 0.000200217 1.45091)
(-0.000497159 0.000206341 1.66587)
(-0.000388834 0.000219099 1.82317)
(-0.000221224 0.000221224 1.92648)
(-7.41916e-05 0.000221601 1.97774)
(7.41916e-05 0.000221601 1.97774)
(0.000221224 0.000221224 1.92648)
(0.000388834 0.000219099 1.82317)
(0.000497159 0.000206341 1.66587)
(0.000782155 0.000200217 1.45091)
(-0.000750747 0.000344291 1.3731)
(-0.00048212 0.000356248 1.57689)
(-0.000380882 0.000380882 1.72546)
(-0.000219099 0.000388834 1.82317)
(-7.39293e-05 0.000392242 1.87174)
(7.39293e-05 0.000392242 1.87174)
(0.000219099 0.000388834 1.82317)
(0.000380882 0.000380882 1.72546)
(0.00048212 0.000356248 1.57689)
(0.000750747 0.000344291 1.3731)
(-0.000696723 0.0004339 1.26061)
(-0.000453341 0.000453341 1.44306)
(-0.000356248 0.00048212 1.57689)
(-0.000206341 0.000497159 1.66587)
(-6.97185e-05 0.000502721 1.71043)
(6.97185e-05 0.000502721 1.71043)
(0.000206341 0.000497159 1.66587)
(0.000356248 0.00048212 1.57689)
(0.000453341 0.000453341 1.44306)
(0.000696723 0.0004339 1.26061)
(-0.000664136 0.000664136 1.11765)
(-0.0004339 0.000696723 1.26061)
(-0.000344291 0.000750747 1.3731)
(-0.000200217 0.000782155 1.45091)
(-6.93536e-05 0.00079535 1.49062)
(6.93536e-05 0.00079535 1.49062)
(0.000200217 0.000782155 1.45091)
(0.000344291 0.000750747 1.3731)
(0.0004339 0.000696723 1.26061)
(0.000664136 0.000664136 1.11765)
(0.00057853 0.00057853 1.09682)
(0.000414572 0.000640091 1.23872)
(0.000334302 0.00070635 1.35062)
(0.000204456 0.000753271 1.42814)
(7.07027e-05 0.000775805 1.46773)
(-7.07027e-05 0.000775805 1.46773)
(-0.000204456 0.000753271 1.42814)
(-0.000334302 0.00070635 1.35062)
(-0.000414572 0.000640091 1.23872)
(-0.00057853 0.00057853 1.09682)
(0.000640091 0.000414572 1.23872)
(0.00047107 0.00047107 1.42016)
(0.000379998 0.000524098 1.55359)
(0.000237115 0.000564736 1.64245)
(8.11148e-05 0.000584698 1.68699)
(-8.11148e-05 0.000584698 1.68699)
(-0.000237115 0.000564736 1.64245)
(-0.000379998 0.000524098 1.55359)
(-0.00047107 0.00047107 1.42016)
(-0.000640091 0.000414572 1.23872)
(0.00070635 0.000334302 1.35062)
(0.000524098 0.000379998 1.55359)
(0.000428197 0.000428197 1.70195)
(0.000269233 0.000460895 1.79968)
(9.22781e-05 0.000477688 1.8483)
(-9.22781e-05 0.000477688 1.8483)
(-0.000269233 0.000460895 1.79968)
(-0.000428197 0.000428197 1.70195)
(-0.000524098 0.000379998 1.55359)
(-0.00070635 0.000334302 1.35062)
(0.000753271 0.000204456 1.42814)
(0.000564736 0.000237115 1.64245)
(0.000460895 0.000269233 1.79968)
(0.000290656 0.000290656 1.90312)
(9.96009e-05 0.000301414 1.95449)
(-9.96009e-05 0.000301414 1.95449)
(-0.000290656 0.000290656 1.90312)
(-0.000460895 0.000269233 1.79968)
(-0.000564736 0.000237115 1.64245)
(-0.000753271 0.000204456 1.42814)
(0.000775805 7.07027e-05 1.46773)
(0.000584698 8.11148e-05 1.68699)
(0.000477688 9.22781e-05 1.8483)
(0.000301414 9.96009e-05 1.95449)
(0.000103254 0.000103254 2.00721)
(-0.000103254 0.000103254 2.00721)
(-0.000301414 9.96009e-05 1.95449)
(-0.000477688 9.22781e-05 1.8483)
(-0.000584698 8.11148e-05 1.68699)
(-0.000775805 7.07027e-05 1.46773)
(0.000775805 -7.07027e-05 1.46773)
(0.000584698 -8.11148e-05 1.68699)
(0.000477688 -9.22781e-05 1.8483)
(0.000301414 -9.96009e-05 1.95449)
(0.000103254 -0.000103254 2.00721)
(-0.000103254 -0.000103254 2.00721)
(-0.000301414 -9.96009e-05 1.95449)
(-0.000477688 -9.22781e-05 1.8483)
(-0.000584698 -8.11148e-05 1.68699)
(-0.000775805 -7.07027e-05 1.46773)
(0.000753271 -0.000204456 1.42814)
(0.000564736 -0.000237115 1.64245)
(0.000460895 -0.000269233 1.79968)
(0.000290656 -0.000290656 1.90312)
(9.96009e-05 -0.000301414 1.95449)
(-9.96009e-05 -0.000301414 1.95449)
(-0.000290656 -0.000290656 1.90312)
(-0.000460895 -0.000269233 1.79968)
(-0.000564736 -0.000237115 1.64245)
(-0.000753271 -0.000204456 1.42814)
(0.00070635 -0.000334302 1.35062)
(0.000524098 -0.000379998 1.55359)
(0.000428197 -0.000428197 1.70195)
(0.000269233 -0.000460895 1.79968)
(9.22781e-05 -0.000477688 1.8483)
(-9.22781e-05 -0.000477688 1.8483)
(-0.000269233 -0.000460895 1.79968)
(-0.000428197 -0.000428197 1.70195)
(-0.000524098 -0.000379998 1.55359)
(-0.00070635 -0.000334302 1.35062)
(0.000640091 -0.000414572 1.23872)
(0.00047107 -0.00047107 1.42016)
(0.000379998 -0.000524098 1.55359)
(0.000237115 -0.000564736 1.64245)
(8.11148e-05 -0.000584698 1.68699)
(-8.11148e-05 -0.000584698 1.68699)
(-0.000237115 -0.000564736 1.64245)
(-0.000379998 -0.000524098 1.55359)
(-0.00047107 -0.00047107 1.42016)