/*--------------------------------*- C++ -*----------------------------------*\
| =========                 |                                                 |
| \\      /  F ield         | OpenFOAM: The Open Source CFD Toolbox           |
|  \\    /   O peration     | Version:  2406                                  |
|   \\  /    A nd           | Website:  www.openfoam.com                      |
|    \\/     M anipulation  |                                                 |
\*---------------------------------------------------------------------------*/
FoamFile
{
    version     2.0;
    format      ascii;
    arch        "LSB;label=32;scalar=64";
    class       volScalarField;
    location    "0.6";
    object      div(phi);
}
// * * * * * * * * * * * * * * * * * * * * * * * * * * * * * * * * * * * * * //

dimensions      [0 0 -1 0 0 0 0];

internalField   nonuniform List<scalar> 
25000
(
0.125385
0.115588
0.116841
0.114492
0.111933
0.109308
0.10698
0.105845
0.106007
0.0876001
0.11125
0.0985101
0.0989782
0.0982932
0.0954901
0.091564
0.0905643
0.0897504
0.086003
0.0692848
0.106237
0.0945775
0.0967222
0.0967311
0.0933348
0.0901251
0.087971
0.086803
0.0851195
0.0680405
0.102433
0.0898529
0.0927287
0.0931958
0.090438
0.0862738
0.0854958
0.0853152
0.0818336
0.0669081
0.0981826
0.0854299
0.0886357
0.0896571
0.0867426
0.0841863
0.0828746
0.0820959
0.0802914
0.0650982
0.0944492
0.081333
0.0844008
0.085382
0.0835507
0.080316
0.0794676
0.0798456
0.0774194
0.0625876
0.0909435
0.0771065
0.0797954
0.0811867
0.0783392
0.076225
0.0768369
0.0760247
0.0738378
0.060432
0.0859982
0.0731835
0.0754516
0.0751516
0.073522
0.0733437
0.0715711
0.0725279
0.0720911
0.0571665
0.0814642
0.0678759
0.0683585
0.0688549
0.0680601
0.0663228
0.0673414
0.0684257
0.0656243
0.0526047
0.0659804
0.0523739
0.0538792
0.0541152
0.0537203
0.0540226
0.0541631
0.0536102
0.0521198
0.0402537
0.118063
0.109178
0.108108
0.103668
0.100427
0.0983592
0.0981047
0.0991164
0.101315
0.0850593
0.103116
0.0890487
0.0872731
0.0857922
0.0835882
0.0803558
0.0809191
0.0819981
0.0815092
0.0682101
0.0973312
0.0836522
0.0849139
0.0847764
0.0820151
0.0798585
0.0784154
0.0785173
0.0793666
0.0665087
0.0940602
0.0801923
0.0819381
0.0830462
0.0810802
0.0775764
0.0772154
0.0774061
0.0757829
0.064919
0.0913489
0.0768836
0.0799138
0.0813484
0.0789533
0.0769459
0.0757106
0.0749634
0.0744783
0.0631297
0.0898813
0.0751865
0.0775309
0.0787925
0.0772558
0.074334
0.0734225
0.073728
0.0725493
0.0614225
0.0899961
0.0733282
0.0750188
0.0760782
0.0734245
0.0712281
0.0717483
0.0711084
0.0706234
0.060559
0.0883974
0.0724531
0.0727721
0.0717536
0.0696064
0.0692391
0.0677144
0.0691393
0.0710067
0.0586588
0.0871218
0.070636
0.0689232
0.0680594
0.0662394
0.0644772
0.0654775
0.0678817
0.0669436
0.0547289
0.0722722
0.057066
0.0575438
0.0565167
0.0553209
0.0551131
0.0554283
0.0552772
0.0540562
0.041547
0.180455
0.162837
0.158944
0.147622
0.137944
0.131127
0.12638
0.123843
0.126355
0.102437
0.153441
0.128663
0.119858
0.113252
0.105741
0.0978164
0.0977231
0.0988609
0.0954759
0.0797057
0.135137
0.111412
0.108052
0.101139
0.0932117
0.0894229
0.0864609
0.0869293
0.0911824
0.0748885
0.123024
0.0999591
0.094579
0.0906198
0.0850046
0.0785601
0.0791743
0.0821042
0.0815454
0.0716515
0.111506
0.0888077
0.0872271
0.0832475
0.0775034
0.0749849
0.0736613
0.075063
0.0791381
0.0679545
0.105255
0.0842511
0.0808606
0.0781068
0.0742625
0.0698413
0.0703132
0.0737822
0.0752461
0.0655024
0.10123
0.0797256
0.0778957
0.0752952
0.0702004
0.0680508
0.0696554
0.0714654
0.0741068
0.0643429
0.0967318
0.0785036
0.0762221
0.072527
0.0689367
0.0684473
0.0680745
0.071952
0.0752157
0.0622898
0.0931642
0.0756351
0.0730888
0.0709268
0.0684803
0.066618
0.0689316
0.0722414
0.0717955
0.0585172
0.0755523
0.0603505
0.0608239
0.0596702
0.0582692
0.0585229
0.0593123
0.0596289
0.058551
0.0445424
0.102457
0.0998869
0.104083
0.102079
0.102755
0.104245
0.105153
0.10447
0.107262
0.0854819
0.0925343
0.0834104
0.0806023
0.0815338
0.0813135
0.0780523
0.0826083
0.0855305
0.0818492
0.0685517
0.0851589
0.073116
0.0764032
0.0736939
0.0707722
0.0725368
0.0724947
0.0750452
0.08036
0.0649602
0.0824575
0.0703262
0.0667833
0.0664716
0.0642028
0.0612923
0.066516
0.072006
0.0713124
0.0630759
0.0780301
0.0631454
0.0645336
0.0614612
0.0573589
0.0588914
0.0613709
0.0653232
0.0707666
0.0598984
0.0768131
0.0636408
0.0612845
0.0597361
0.0573288
0.0556044
0.0598131
0.0657036
0.0667428
0.0583767
0.0765416
0.0615317
0.0621027
0.0606022
0.0572309
0.0574942
0.060929
0.063498
0.06683
0.0570399
0.0753667
0.0630902
0.062525
0.0610391
0.059164
0.0598208
0.0605768
0.0648516
0.0667508
0.0551382
0.0739271
0.0616279
0.0617477
0.0614998
0.0603842
0.0595678
0.0617236
0.0640961
0.0633722
0.0505032
0.0608225
0.0506114
0.052744
0.0530036
0.0525066
0.0527192
0.0528808
0.0524798
0.0501814
0.0378229
0.19999
0.180902
0.178349
0.164298
0.151627
0.141464
0.131713
0.123321
0.125252
0.0975642
0.167283
0.140874
0.128589
0.121265
0.111545
0.0991418
0.0985465
0.0980366
0.0893915
0.0752657
0.140038
0.114704
0.112729
0.102154
0.0909339
0.0872739
0.0817497
0.0805565
0.0865931
0.0680433
0.123077
0.100316
0.0910871
0.0848234
0.0758925
0.0670639
0.070831
0.0752334
0.0716464
0.0644554
0.106071
0.0827029
0.0809426
0.0715557
0.0612768
0.0603499
0.061108
0.0637532
0.0704188
0.0587457
0.0974435
0.0775362
0.0707865
0.065137
0.0583779
0.0533907
0.0574563
0.0631897
0.0628257
0.0561487
0.0907151
0.0698321
0.0679854
0.0629255
0.0561981
0.0549913
0.0568411
0.058371
0.0626521
0.0535208
0.084874
0.0680725
0.0649117
0.0605935
0.0567274
0.055224
0.0551953
0.0594906
0.060976
0.0511937
0.0799023
0.0643355
0.0612485
0.0591016
0.0558717
0.0541766
0.0558083
0.0578329
0.0580852
0.0469442
0.0640481
0.050631
0.050894
0.0493066
0.0477398
0.0474149
0.0476291
0.0479724
0.0466907
0.0356658
0.0477173
0.0519571
0.0586462
0.0595103
0.0634608
0.0670631
0.0697759
0.07045
0.0730886
0.0582185
0.04723
0.0465911
0.0464137
0.0503392
0.0531422
0.0519388
0.057441
0.0601598
0.0573445
0.0485986
0.0457569
0.0411805
0.0472437
0.0467989
0.0465589
0.0501127
0.0507072
0.0536069
0.0582812
0.0466635
0.04838
0.0434641
0.0413302
0.0433059
0.042815
0.0412455
0.0474852
0.0525671
0.0515543
0.0461622
0.0481022
0.0393348
0.0424374
0.0405592
0.0375227
0.0400405
0.0434495
0.0474654
0.0525188
0.0437305
0.049699
0.0424028
0.0409605
0.0406937
0.0390908
0.0381329
0.0431818
0.0486926
0.048649
0.0430293
0.0513618
0.0414965
0.0432574
0.0425596
0.0404544
0.0414457
0.0444136
0.0462264
0.049454
0.0414078
0.0520073
0.0440452
0.0440996
0.0437934
0.0429218
0.0433762
0.0441542
0.0476174
0.0479687
0.0398501
0.0518645
0.0435798
0.044325
0.0448528
0.0440761
0.0436875
0.0448297
0.0458422
0.0453012
0.0353819
0.0432379
0.0363903
0.038636
0.03912
0.0389391
0.0386926
0.0382205
0.0374626
0.0349181
0.0262881
0.171734
0.153556
0.150084
0.138246
0.126489
0.117062
0.108024
0.100799
0.10231
0.0798695
0.146099
0.121693
0.110694
0.103197
0.0931312
0.0822838
0.0802978
0.0793965
0.072412
0.0608091
0.122744
0.100076
0.0965461
0.0868263
0.076135
0.0713173
0.0663915
0.0648123
0.0693139
0.0546809
0.106415
0.0860542
0.0783574
0.071644
0.0625702
0.0541443
0.0565026
0.059806
0.0572842
0.0513847
0.0902497
0.0707546
0.0683452
0.0597783
0.0498182
0.0474362
0.0483054
0.0505403
0.0555895
0.0468539
0.081289
0.0646791
0.0592236
0.0537136
0.0472143
0.042335
0.045344
0.0496793
0.0500674
0.0445195
0.0742139
0.0575588
0.055571
0.0514268
0.0452237
0.0437994
0.0451379
0.0465513
0.049595
0.0429214
0.0681014
0.0549627
0.0524439
0.048636
0.0453467
0.0442246
0.0440015
0.0474759
0.0493264
0.0412139
0.063501
0.0510448
0.0488066
0.0466925
0.0445601
0.0428964
0.0450263
0.0469973
0.0474271
0.0389128
0.0502547
0.0398799
0.0397584
0.0386681
0.0373513
0.0377628
0.0384581
0.0392823
0.0391626
0.0297926
0.00149376
0.00942849
0.0152983
0.0174329
0.0227345
0.0275906
0.0319387
0.0342867
0.0364248
0.0296276
0.00485797
0.0107265
0.0129752
0.0179758
0.0227088
0.0237731
0.0289213
0.0314478
0.0308202
0.0264987
0.00641684
0.00982462
0.0169298
0.0187215
0.020977
0.0250473
0.0266551
0.0296137
0.0326103
0.0265733
0.0119681
0.0147845
0.0151007
0.0191925
0.0210178
0.0214008
0.0263234
0.0300239
0.0301066
0.0270354
0.0132804
0.0135953
0.0184683
0.0194268
0.0194227
0.0219198
0.0249247
0.0281952
0.0313028
0.026339
0.0163321
0.0173697
0.0185064
0.0207989
0.0215472
0.0219883
0.0257398
0.0294953
0.0299162
0.0263482
0.0175108
0.0171838
0.0210073
0.0225886
0.0229984
0.0246198
0.0271144
0.0287392
0.0306645
0.0258136
0.0191318
0.0197607
0.0219363
0.0240632
0.025033
0.0264518
0.0274527
0.0298374
0.0302745
0.025045
0.0194771
0.0195378
0.0232037
0.0253881
0.0266077
0.0270681
0.028282
0.0290953
0.0286529
0.0223371
0.0170656
0.0180458
0.0212782
0.0232828
0.0241183
0.0245776
0.0244038
0.0238658
0.0221032
0.0165321
0.157876
0.133961
0.124369
0.108132
0.091651
0.0784388
0.0667121
0.0580131
0.0577163
0.0443681
0.127406
0.100461
0.0878229
0.0763745
0.0646617
0.0522541
0.0474587
0.0444596
0.0382253
0.0327505
0.102479
0.079955
0.073146
0.0621041
0.0505425
0.0437796
0.0372378
0.0340092
0.0364798
0.027954
0.0856622
0.0658327
0.056978
0.0490938
0.0397343
0.0307267
0.0301966
0.030641
0.0274189
0.0256302
0.0700421
0.0518464
0.0476479
0.0388778
0.0297013
0.0259117
0.0239536
0.0235237
0.0266166
0.021896
0.0612165
0.0455767
0.0387633
0.0332771
0.0267276
0.0214695
0.0213249
0.0227254
0.0214743
0.0202097
0.0539596
0.038431
0.035126
0.0292749
0.0239643
0.0209237
0.0196852
0.0190491
0.0210367
0.0182477
0.0481785
0.035308
0.0310353
0.026391
0.0222388
0.0191565
0.0180101
0.0188195
0.0192674
0.0169021
0.0433236
0.0325218
0.0271453
0.0242947
0.0198652
0.0183109
0.0170992
0.017808
0.0180574
0.0152536
0.0337592
0.023342
0.0215811
0.0184151
0.0165501
0.0149738
0.0147647
0.0149464
0.0149117
0.0119853
-0.0823868
-0.0659836
-0.058229
-0.0490524
-0.0387402
-0.030489
-0.0232259
-0.0185242
-0.0178811
-0.0129535
-0.0603499
-0.044703
-0.0373215
-0.0307703
-0.0226471
-0.0174146
-0.0129711
-0.0109618
-0.00861847
-0.00662218
-0.0429914
-0.0323847
-0.0269818
-0.0216184
-0.015845
-0.0110932
-0.00828689
-0.00573029
-0.00557844
-0.00388075
-0.02921
-0.0213052
-0.0186251
-0.0140477
-0.0095156
-0.00616751
-0.00400823
-0.00307291
-0.00254255
-0.00198395
-0.0182452
-0.013971
-0.0114244
-0.00833529
-0.00510636
-0.00277645
-0.00167442
-0.000805618
-0.000657404
-0.000872374
-0.0114459
-0.00806727
-0.00675341
-0.0042822
-0.00251564
-0.000811217
-0.000120447
0.000547418
-0.000102278
0.000101842
-0.00593034
-0.00441831
-0.00270934
-0.00212321
-0.000137519
0.000100022
0.000613477
0.000487954
0.000588331
-0.000222051
-0.00196711
-0.00130983
-0.000678914
0.000564758
0.000830435
0.000785851
0.000983516
0.000365958
-0.000518699
-0.00034528
4.97285e-05
0.00103236
0.00109581
0.0023123
0.00140351
0.0020408
-3.1858e-05
-0.000380789
-0.00143307
-0.00210758
0.00148448
0.00133196
0.00256788
0.00239056
0.00275339
0.00130221
0.000347975
-0.00100653
-0.00277289
-0.00193106
0.0829902
0.0673659
0.0602937
0.051195
0.0399535
0.0307582
0.02252
0.0166573
0.0161536
0.0118217
0.0663294
0.0496181
0.0422415
0.0340139
0.0257401
0.0183291
0.0135279
0.01098
0.00773604
0.00683407
0.0506973
0.0383691
0.0322775
0.0257163
0.0185168
0.0131273
0.00888471
0.00578283
0.00601098
0.00418473
0.0381912
0.0278262
0.0234986
0.0180461
0.012398
0.00746088
0.00498494
0.00370425
0.00218402
0.00259459
0.0269755
0.0197334
0.0165626
0.0119305
0.00735639
0.00438163
0.00220078
0.00069616
0.000906091
0.00107275
0.0200858
0.0140832
0.0109979
0.00790029
0.00452401
0.00194584
0.000295186
-0.000531742
-0.000662628
4.81799e-05
0.0140492
0.00951761
0.00760202
0.00474144
0.00240213
0.000355491
-0.00098486
-0.00146974
-0.00149978
-0.000213688
0.00993448
0.00660693
0.00468981
0.00255567
0.000563941
-0.000917114
-0.00166211
-0.00210932
-0.00112839
-0.000453409
0.00706999
0.00475274
0.0024055
0.000888661
-0.000860949
-0.00152958
-0.00205493
-0.00123487
-0.000897322
0.000634262
0.00464616
0.00215696
0.000875194
-0.000674427
-0.00146006
-0.00184439
-0.00130687
-0.000621115
0.000743377
0.00107896
-0.118533
-0.102352
-0.0970642
-0.0881849
-0.0776384
-0.0691249
-0.0610882
-0.0553728
-0.055518
-0.0427335
-0.0976953
-0.0783946
-0.0699217
-0.062586
-0.0534333
-0.0459086
-0.0424067
-0.0409733
-0.0367613
-0.0304481
-0.0810719
-0.0639974
-0.0581924
-0.0508999
-0.0426921
-0.0374605
-0.0337203
-0.0316392
-0.0335785
-0.0260609
-0.0670711
-0.0520699
-0.0469406
-0.0405602
-0.0334465
-0.0273852
-0.0271001
-0.0280596
-0.0264661
-0.0236093
-0.0560699
-0.0425872
-0.0386031
-0.0325442
-0.0256771
-0.0227783
-0.0224289
-0.0227415
-0.0249873
-0.020832
-0.0487417
-0.0366946
-0.0326331
-0.0278854
-0.0232783
-0.0198245
-0.0204807
-0.0219053
-0.0218272
-0.0193651
-0.0436731
-0.0323668
-0.0290434
-0.0256801
-0.0213478
-0.0199624
-0.0199207
-0.0200983
-0.0214405
-0.0184354
-0.0391072
-0.029371
-0.0267694
-0.0231614
-0.0206812
-0.019422
-0.0189536
-0.0204123
-0.0211475
-0.0176106
-0.0357546
-0.0270913
-0.0236317
-0.0212257
-0.0193217
-0.0180602
-0.0191818
-0.0199289
-0.0204954
-0.0169366
-0.0277032
-0.0197685
-0.0181129
-0.0164824
-0.0152249
-0.0153802
-0.0158547
-0.0166179
-0.0170907
-0.0129434
0.0283421
0.0156334
0.00746994
-0.000164468
-0.010054
-0.018073
-0.0251993
-0.0297704
-0.0310453
-0.025489
0.0176287
0.00661293
0.001024
-0.00648035
-0.0125215
-0.0177371
-0.0228299
-0.0260485
-0.027493
-0.0220464
0.00695295
0.00071812
-0.0053245
-0.0100615
-0.0144461
-0.0186176
-0.0226002
-0.0261322
-0.0274365
-0.0229337
-0.00126673
-0.00584871
-0.00937273
-0.0130892
-0.0158282
-0.0185386
-0.0226178
-0.0261177
-0.0278612
-0.0232794
-0.00848285
-0.0102317
-0.0131163
-0.0157185
-0.0167915
-0.01898
-0.0232788
-0.0268053
-0.0280396
-0.0239157
-0.0129017
-0.0139132
-0.0168327
-0.0181373
-0.0194735
-0.0213166
-0.0248635
-0.027935
-0.0293992
-0.0242019
-0.0174116
-0.0173895
-0.0192805
-0.0219197
-0.0223702
-0.0244076
-0.0276296
-0.0296496
-0.0299947
-0.0249864
-0.0198522
-0.0199467
-0.0223284
-0.0239976
-0.0253072
-0.027754
-0.028829
-0.0309628
-0.0315782
-0.0248339
-0.0218921
-0.0203644
-0.0239959
-0.0252849
-0.0276314
-0.0278228
-0.0303871
-0.0312005
-0.0303291
-0.0232355
-0.0186772
-0.0185336
-0.020769
-0.0230667
-0.0238291
-0.0252484
-0.0255034
-0.0250991
-0.0236236
-0.0168819
-0.139597
-0.125564
-0.12341
-0.116051
-0.10756
-0.100825
-0.0940926
-0.0887673
-0.0901916
-0.07006
-0.119074
-0.0996771
-0.0916759
-0.0863353
-0.0777725
-0.0705531
-0.0688584
-0.0688148
-0.0635809
-0.0523697
-0.102292
-0.0835283
-0.079511
-0.0725486
-0.0642401
-0.0600678
-0.057255
-0.0561951
-0.0596299
-0.0471669
-0.0880587
-0.0710676
-0.0662906
-0.0600656
-0.052606
-0.0467509
-0.0484704
-0.0516121
-0.0504812
-0.0441012
-0.0768186
-0.0605197
-0.0570293
-0.0505291
-0.0426203
-0.040887
-0.0428264
-0.0450322
-0.0484479
-0.0410568
-0.0693842
-0.054677
-0.0510651
-0.0455696
-0.0407111
-0.0381173
-0.0409012
-0.0444371
-0.0456821
-0.039188
-0.0652692
-0.0509086
-0.0478797
-0.0452173
-0.040241
-0.0398424
-0.0419467
-0.0436757
-0.0451826
-0.0389428
-0.060638
-0.0487871
-0.0469363
-0.0435483
-0.0412756
-0.0415178
-0.041606
-0.044654
-0.0466967
-0.0377204
-0.0580251
-0.0460929
-0.0442904
-0.0420243
-0.0413188
-0.039822
-0.0430245
-0.0449722
-0.044943
-0.0364985
-0.0459653
-0.0360304
-0.035295
-0.0347337
-0.0336109
-0.0348677
-0.0358644
-0.0367006
-0.0369189
-0.0272657
0.000239913
-0.0123695
-0.0219138
-0.0298088
-0.0393018
-0.0471004
-0.0533559
-0.0569921
-0.0591873
-0.0475521
-0.0101151
-0.0181872
-0.0227064
-0.0299485
-0.0349246
-0.0386536
-0.0443065
-0.0479259
-0.0475491
-0.0391095
-0.0194965
-0.021332
-0.0271067
-0.0305359
-0.0333127
-0.0374288
-0.0406271
-0.0441132
-0.0471264
-0.0382503
-0.0260006
-0.0260311
-0.0280876
-0.0306372
-0.0318764
-0.0331316
-0.0384474
-0.0431766
-0.0438077
-0.0378325
-0.0316206
-0.0278999
-0.0300964
-0.0307263
-0.0297452
-0.0324594
-0.0370248
-0.0409842
-0.0440194
-0.0369086
-0.0348138
-0.0308494
-0.0320846
-0.0319849
-0.0319611
-0.0331101
-0.0377026
-0.0421784
-0.0430255
-0.0365824
-0.0385985
-0.0330294
-0.0341873
-0.0354458
-0.0345298
-0.0365122
-0.0400475
-0.0420958
-0.0436577
-0.0362793
-0.0399471
-0.0352715
-0.0366622
-0.0371731
-0.0376133
-0.0394593
-0.0404986
-0.0435068
-0.0439593
-0.0353661
-0.0407731
-0.0350246
-0.0373753
-0.0381692
-0.0393537
-0.0392496
-0.0416659
-0.0426052
-0.041758
-0.0321611
-0.0337749
-0.0298041
-0.0319342
-0.0335684
-0.0339001
-0.0348714
-0.0348919
-0.0343851
-0.0322582
-0.023592
-0.169133
-0.152091
-0.149072
-0.138401
-0.128168
-0.120512
-0.112864
-0.106409
-0.108274
-0.0840289
-0.141815
-0.11917
-0.10924
-0.103239
-0.0946523
-0.085062
-0.084403
-0.0842323
-0.0769433
-0.0640948
-0.119615
-0.0981636
-0.0957029
-0.0871815
-0.0777772
-0.0743714
-0.0701742
-0.0690179
-0.0737247
-0.0577329
-0.104148
-0.0851468
-0.0782317
-0.0724146
-0.0645312
-0.0574264
-0.0604426
-0.064208
-0.0613554
-0.0543529
-0.0901563
-0.0710607
-0.0688272
-0.0609145
-0.0519931
-0.0513107
-0.0527843
-0.055036
-0.0598979
-0.0498799
-0.0825053
-0.0659272
-0.0608109
-0.0553906
-0.0497992
-0.0465089
-0.0501199
-0.054678
-0.0545739
-0.0476924
-0.0773135
-0.0603481
-0.0582638
-0.0544852
-0.0489902
-0.0484381
-0.0504339
-0.051792
-0.0543742
-0.0461954
-0.0726668
-0.0587411
-0.0564492
-0.0529196
-0.0500122
-0.0494489
-0.0494516
-0.0528494
-0.0541047
-0.0444331
-0.0689659
-0.0557004
-0.0534675
-0.051545
-0.0496159
-0.0481212
-0.0502539
-0.0519796
-0.0516714
-0.0415046
-0.0553218
-0.0439083
-0.0439228
-0.0429435
-0.0416795
-0.0419851
-0.042394
-0.0426506
-0.0416628
-0.0312662
-0.0820677
-0.0832955
-0.0890796
-0.0884701
-0.0904676
-0.0924893
-0.0937117
-0.0932315
-0.0956932
-0.0754128
-0.0764509
-0.0720745
-0.0704388
-0.0726957
-0.0728182
-0.0702728
-0.0744768
-0.0769515
-0.0728787
-0.0602974
-0.0724254
-0.063847
-0.0678092
-0.0659983
-0.0634058
-0.0650787
-0.0651076
-0.0670691
-0.0713169
-0.0567286
-0.0709611
-0.0620757
-0.0597247
-0.0591162
-0.0563551
-0.0537003
-0.0590054
-0.0640316
-0.0627781
-0.0547047
-0.0686856
-0.0564195
-0.0574049
-0.0538402
-0.0486682
-0.0502134
-0.0539381
-0.0577394
-0.0619369
-0.0517615
-0.0679114
-0.0569352
-0.0550375
-0.0523381
-0.049111
-0.0480065
-0.0527964
-0.0581177
-0.0585623
-0.0503052
-0.0686287
-0.0558682
-0.0559612
-0.0545543
-0.0509623
-0.0513755
-0.0547114
-0.056736
-0.0586769
-0.0494482
-0.0676672
-0.0572238
-0.056976
-0.0554554
-0.0537246
-0.0543655
-0.0547642
-0.0581233
-0.0591005
-0.0479311
-0.0665967
-0.0558498
-0.0561552
-0.0557021
-0.0549523
-0.0538865
-0.0559887
-0.0575718
-0.0561943
-0.0443078
-0.0543319
-0.0454125
-0.0471701
-0.0475793
-0.0470567
-0.0474455
-0.0474622
-0.046788
-0.0445261
-0.0330991
-0.15748
-0.145913
-0.146982
-0.139701
-0.133246
-0.12873
-0.123754
-0.118764
-0.121585
-0.094711
-0.136808
-0.118295
-0.110676
-0.1072
-0.101331
-0.0932925
-0.094884
-0.0960597
-0.0888839
-0.0738201
-0.119299
-0.099802
-0.0996501
-0.0927133
-0.0849222
-0.0835187
-0.0805274
-0.0804616
-0.0858578
-0.0675689
-0.107637
-0.0896401
-0.0834497
-0.0789761
-0.0722907
-0.0662068
-0.0705644
-0.0753732
-0.0727433
-0.0639904
-0.0963997
-0.076975
-0.0757317
-0.0683408
-0.0596376
-0.0597497
-0.0622694
-0.0654667
-0.0707743
-0.059248
-0.0904835
-0.0735392
-0.0689141
-0.0636549
-0.0577087
-0.0545882
-0.0591257
-0.0647711
-0.0652459
-0.0567064
-0.0868301
-0.0690067
-0.067591
-0.0638922
-0.058006
-0.0571902
-0.0600005
-0.0620332
-0.0646797
-0.0552772
-0.0829247
-0.0683731
-0.0665741
-0.0631294
-0.0597802
-0.0593566
-0.0593286
-0.0630861
-0.0649466
-0.0532215
-0.0796
-0.0655638
-0.0638105
-0.0620252
-0.0598888
-0.0581284
-0.0603181
-0.0625735
-0.0617837
-0.0498095
-0.0641698
-0.0518924
-0.0525972
-0.0517917
-0.0504881
-0.0507048
-0.0510625
-0.0510481
-0.0497881
-0.0374822
-0.116584
-0.11286
-0.117245
-0.114276
-0.113106
-0.112646
-0.111448
-0.109113
-0.111635
-0.0874492
-0.104993
-0.0947029
-0.090885
-0.0907847
-0.0886631
-0.0838869
-0.087294
-0.0894171
-0.0839154
-0.0694267
-0.0957859
-0.0822837
-0.0845136
-0.0806537
-0.0759438
-0.0766728
-0.0755839
-0.0768682
-0.0817658
-0.0646727
-0.090193
-0.0768657
-0.0728652
-0.0705016
-0.0661881
-0.0624556
-0.067651
-0.0727925
-0.070829
-0.0619439
-0.0842387
-0.0682194
-0.0681164
-0.0626334
-0.055873
-0.0573399
-0.0607166
-0.0644076
-0.0693965
-0.0579886
-0.0813419
-0.0670983
-0.0638263
-0.0596959
-0.0548952
-0.0530931
-0.0581149
-0.0640501
-0.0645777
-0.055962
-0.0802201
-0.0645415
-0.0639565
-0.0611253
-0.0562205
-0.0559319
-0.0592761
-0.061583
-0.0643048
-0.0546089
-0.0779699
-0.0650453
-0.064014
-0.0613896
-0.0585829
-0.058523
-0.0588825
-0.0627417
-0.0643957
-0.0527627
-0.0756749
-0.0630295
-0.06211
-0.0610099
-0.0591567
-0.0578392
-0.0598249
-0.0621087
-0.061192
-0.0488182
-0.0614944
-0.05045
-0.0518109
-0.0514338
-0.0505217
-0.0506426
-0.0509229
-0.0506905
-0.0488315
-0.0367295
-0.129047
-0.121575
-0.12412
-0.119176
-0.115711
-0.113828
-0.111305
-0.107966
-0.110555
-0.0860524
-0.112434
-0.0988428
-0.093686
-0.0923024
-0.0895544
-0.0837308
-0.0870624
-0.0890575
-0.0827953
-0.0685715
-0.0991611
-0.0839077
-0.085594
-0.0807945
-0.0755984
-0.0763911
-0.0747643
-0.0757688
-0.0810255
-0.063597
-0.0914856
-0.0772257
-0.0722254
-0.0697218
-0.0653608
-0.0615603
-0.0667798
-0.071843
-0.0694535
-0.0609113
-0.0836433
-0.0671735
-0.0670706
-0.0611147
-0.0544997
-0.0566347
-0.0596263
-0.0630171
-0.0682351
-0.0568141
-0.0801783
-0.0658884
-0.0620199
-0.0579413
-0.0533063
-0.0519001
-0.0568429
-0.0626963
-0.0630545
-0.0547966
-0.0784675
-0.0628338
-0.0623219
-0.059131
-0.0545
-0.0543663
-0.0576331
-0.0599042
-0.062802
-0.05338
-0.0764505
-0.0634536
-0.0621753
-0.059503
-0.0566744
-0.0565902
-0.0570846
-0.0609533
-0.0627445
-0.0514724
-0.0742093
-0.0618846
-0.0603409
-0.0592691
-0.0571385
-0.056011
-0.0578483
-0.0603032
-0.0595097
-0.047583
-0.0607312
-0.0494559
-0.050649
-0.0499392
-0.0489964
-0.0489687
-0.0492961
-0.0491162
-0.0474142
-0.0356747
-0.144113
-0.133713
-0.13392
-0.12662
-0.120752
-0.116702
-0.112328
-0.107579
-0.109188
-0.0849352
-0.124653
-0.108155
-0.101343
-0.0979003
-0.0929816
-0.0858661
-0.0874609
-0.0880709
-0.0810817
-0.0668199
-0.109521
-0.0918019
-0.091389
-0.0852409
-0.0784498
-0.077765
-0.0751993
-0.0750265
-0.0790763
-0.0617644
-0.0995571
-0.0826245
-0.0767861
-0.0724684
-0.0667749
-0.0623614
-0.0665526
-0.0706937
-0.0675959
-0.058921
-0.0901394
-0.0714809
-0.069728
-0.0624744
-0.055017
-0.0567394
-0.0590156
-0.061639
-0.0659958
-0.0546436
-0.0852956
-0.0687046
-0.0638159
-0.0584673
-0.0531936
-0.0516083
-0.0557996
-0.0609075
-0.0606828
-0.0524521
-0.0825732
-0.0649979
-0.0632673
-0.0591893
-0.0539553
-0.0533959
-0.0560602
-0.0578479
-0.0602057
-0.0508955
-0.0793584
-0.0647256
-0.0625809
-0.0589962
-0.0556025
-0.0549828
-0.0551258
-0.0585744
-0.0599697
-0.0489512
-0.0761344
-0.0625499
-0.0599979
-0.0582074
-0.0554544
-0.054018
-0.0555209
-0.057742
-0.0567466
-0.0452402
-0.0615317
-0.049228
-0.0497333
-0.0484246
-0.0471231
-0.0468468
-0.0470963
-0.0469113
-0.0452564
-0.0340122
-0.0808556
-0.0795596
-0.0835068
-0.0818885
-0.081997
-0.0828478
-0.0829224
-0.0817252
-0.0840493
-0.0659745
-0.0744353
-0.0678762
-0.0655442
-0.0662387
-0.0661547
-0.0630156
-0.0667654
-0.0686489
-0.0642734
-0.0533105
-0.0686886
-0.0594289
-0.0622527
-0.0598348
-0.0573575
-0.0593452
-0.0588164
-0.0601324
-0.0638593
-0.0502865
-0.0663749
-0.0570793
-0.053812
-0.0530653
-0.0509219
-0.0492674
-0.0540588
-0.0580444
-0.0560114
-0.0487794
-0.0629266
-0.0508962
-0.0514426
-0.0474402
-0.043357
-0.0465123
-0.049358
-0.0520793
-0.0556646
-0.0460358
-0.0619535
-0.0513501
-0.0486472
-0.0459314
-0.0432063
-0.0434255
-0.047692
-0.0522006
-0.0519928
-0.0447105
-0.0621284
-0.0500311
-0.050104
-0.0479608
-0.0450537
-0.0455901
-0.0485115
-0.050111
-0.0518905
-0.0435549
-0.0615623
-0.0514257
-0.0507981
-0.0491174
-0.0472004
-0.0475152
-0.0480182
-0.0508208
-0.0516335
-0.0419188
-0.0603067
-0.0505742
-0.0498297
-0.0493182
-0.0477319
-0.0469925
-0.0482438
-0.0498611
-0.0485677
-0.0383006
-0.049572
-0.0405554
-0.0419855
-0.0416115
-0.0409607
-0.0407543
-0.0407302
-0.0400689
-0.0380487
-0.0284575
-0.141685
-0.129034
-0.127318
-0.118742
-0.110327
-0.103873
-0.0975806
-0.0921884
-0.0932915
-0.0724781
-0.121916
-0.103657
-0.0959199
-0.0903991
-0.0833275
-0.0751345
-0.0744146
-0.074053
-0.0678669
-0.0559177
-0.104824
-0.0869478
-0.0846336
-0.0775989
-0.0696977
-0.0668911
-0.0633072
-0.0620706
-0.0651576
-0.0509814
-0.0922845
-0.0756894
-0.0700221
-0.0648742
-0.0584915
-0.0534232
-0.0553806
-0.0578686
-0.0551778
-0.0480794
-0.0804585
-0.0638041
-0.0615505
-0.0544444
-0.0472526
-0.0478342
-0.0488152
-0.0502038
-0.0533508
-0.0444405
-0.0737243
-0.0591352
-0.0546212
-0.049259
-0.0443378
-0.042973
-0.0457669
-0.049222
-0.0491691
-0.0423956
-0.0691083
-0.0545244
-0.0527935
-0.0491287
-0.0444779
-0.0438534
-0.045686
-0.046923
-0.0484116
-0.0413202
-0.0648891
-0.0530485
-0.0513152
-0.0481978
-0.0452658
-0.0447577
-0.0446379
-0.0472023
-0.0486654
-0.0396841
-0.0613907
-0.0503891
-0.0484127
-0.046775
-0.0446899
-0.0433585
-0.0448926
-0.0468737
-0.04612
-0.0373028
-0.0491906
-0.0392272
-0.0394758
-0.0384363
-0.0373401
-0.0374368
-0.0379607
-0.0381107
-0.0373942
-0.0282086
-0.0247086
-0.0280603
-0.0322104
-0.0333284
-0.0366024
-0.0399633
-0.0428152
-0.0441925
-0.0461424
-0.0367958
-0.0256492
-0.0261487
-0.0268649
-0.0296806
-0.032319
-0.0324501
-0.0364487
-0.0386192
-0.0372607
-0.0310526
-0.0261587
-0.0242197
-0.028196
-0.0286608
-0.0293338
-0.0321429
-0.0332015
-0.0352683
-0.0377576
-0.0302591
-0.0287711
-0.0261383
-0.0254309
-0.0271266
-0.027601
-0.0278751
-0.0316406
-0.0346856
-0.0342994
-0.0298947
-0.0292403
-0.0243482
-0.0262779
-0.0254882
-0.0243748
-0.0271871
-0.0297259
-0.0321248
-0.0344205
-0.0287934
-0.030562
-0.0262852
-0.0257355
-0.0252655
-0.0246451
-0.0260378
-0.0293774
-0.0326019
-0.0329491
-0.0282854
-0.031865
-0.0263879
-0.0275937
-0.0273987
-0.0266543
-0.0278781
-0.0303823
-0.0318783
-0.0330325
-0.027837
-0.0325257
-0.0281605
-0.0287037
-0.0288926
-0.028616
-0.0296343
-0.0303497
-0.0323614
-0.0330663
-0.0268448
-0.0325554
-0.0279926
-0.0289705
-0.0295823
-0.0295736
-0.0295543
-0.0306418
-0.0318185
-0.0309792
-0.0244009
-0.0272007
-0.0233319
-0.0250094
-0.0256313
-0.025764
-0.0259532
-0.0259836
-0.0255111
-0.0241007
-0.0180217
-0.101156
-0.0897581
-0.086672
-0.078809
-0.0702014
-0.0632884
-0.0567138
-0.0518083
-0.0520519
-0.0401553
-0.0853501
-0.0705334
-0.0639692
-0.0582148
-0.051476
-0.0443498
-0.0422409
-0.0409635
-0.0365733
-0.0305279
-0.0707703
-0.0576352
-0.0546963
-0.048551
-0.0419684
-0.0386223
-0.03482
-0.0331068
-0.0351074
-0.0270851
-0.0600112
-0.048054
-0.0433984
-0.0392334
-0.0340882
-0.0293589
-0.0295565
-0.03037
-0.0281372
-0.0252614
-0.0494154
-0.0382653
-0.0364768
-0.0310765
-0.0257764
-0.0253398
-0.0246181
-0.024774
-0.0272
-0.022453
-0.0434032
-0.0337543
-0.0298792
-0.0260674
-0.0224168
-0.0208074
-0.0221004
-0.0239067
-0.0233803
-0.0210483
-0.0383118
-0.0289192
-0.0274853
-0.0243593
-0.0211402
-0.0205714
-0.0208952
-0.0212053
-0.022885
-0.0196428
-0.0344339
-0.026914
-0.025109
-0.02277
-0.0207771
-0.0197764
-0.0196082
-0.0211557
-0.0217864
-0.0184927
-0.0311989
-0.0246519
-0.0226682
-0.021445
-0.0196447
-0.0188942
-0.0193345
-0.0202386
-0.02053
-0.0169175
-0.0246036
-0.0186561
-0.0183128
-0.0171915
-0.0163848
-0.016121
-0.0163397
-0.0167298
-0.0166286
-0.0129426
0.0377707
0.0302031
0.026671
0.0227953
0.0168569
0.0117842
0.00697247
0.00342519
0.00269422
0.000902703
0.0284794
0.0213351
0.0181273
0.0139051
0.00910384
0.00565531
0.00216817
0.000454172
-0.00137001
-0.00166607
0.0211488
0.016021
0.0121666
0.00931575
0.00561996
0.00220535
-9.97369e-06
-0.0024554
-0.00316978
-0.00321131
0.0137296
0.00970356
0.0085104
0.00519517
0.00230235
1.01761e-05
-0.00246943
-0.00383717
-0.00453725
-0.00433173
0.00885967
0.00659483
0.00419081
0.00226006
0.000182175
-0.00201182
-0.00338683
-0.0048363
-0.00573608
-0.00472643
0.00511584
0.0030262
0.00207759
0.000143229
-0.00146284
-0.00273499
-0.00440362
-0.00568546
-0.0055901
-0.00522167
0.00246416
0.00157623
-8.59671e-05
-0.00125038
-0.00246979
-0.00377683
-0.00474419
-0.00527611
-0.00615663
-0.0047302
0.00048971
-0.000368382
-0.00118491
-0.002523
-0.00351196
-0.00421136
-0.00485874
-0.00559531
-0.00509816
-0.00449842
-0.000815705
-0.00110154
-0.00251716
-0.00364678
-0.00425346
-0.0048288
-0.00476263
-0.00458214
-0.00446116
-0.0028723
-0.00142784
-0.0020642
-0.00325911
-0.0040453
-0.00456354
-0.00442882
-0.00402904
-0.00357356
-0.00240765
-0.00191868
-0.0503226
-0.0407197
-0.0365553
-0.0312583
-0.0251615
-0.019895
-0.0154041
-0.0126982
-0.0119104
-0.00948177
-0.0401532
-0.0298806
-0.0255026
-0.0212034
-0.0162691
-0.01263
-0.00990431
-0.00844765
-0.00737726
-0.00623666
-0.0307045
-0.023356
-0.0201056
-0.0163938
-0.0126144
-0.00957646
-0.00745354
-0.00624348
-0.0062022
-0.00500871
-0.0234382
-0.0171678
-0.0147605
-0.0119214
-0.00887504
-0.00650159
-0.0053676
-0.00475754
-0.00433753
-0.00420326
-0.0163878
-0.0120761
-0.0105605
-0.00798115
-0.00567219
-0.00441396
-0.00338394
-0.00309448
-0.0035333
-0.00325937
-0.0122759
-0.00867893
-0.00693991
-0.00523959
-0.00376085
-0.00245316
-0.00227259
-0.00222052
-0.00237439
-0.00264444
-0.00852377
-0.00565718
-0.00459133
-0.00346135
-0.00201819
-0.00170702
-0.00123276
-0.00134784
-0.00195823
-0.00218099
-0.00577736
-0.00377896
-0.00277997
-0.00169144
-0.00115361
-0.000713677
-0.000644624
-0.00120908
-0.0016679
-0.00194191
-0.00412609
-0.00215026
-0.00141303
-0.000611502
-0.000397022
-0.000114571
-0.00072279
-0.00107225
-0.0018154
-0.00210686
-0.00244559
-0.00115331
-0.000419683
-6.53202e-05
0.000221911
-0.000155267
-0.000592582
-0.0013649
-0.00210079
-0.00194085
0.0716989
0.0615049
0.0586704
0.0533422
0.0470691
0.0425032
0.0374905
0.0330583
0.0340964
0.0252352
0.0601986
0.0485314
0.0431339
0.0388616
0.0338961
0.0284743
0.026751
0.02578
0.0212199
0.0177673
0.0503326
0.0393926
0.036387
0.0318111
0.0265802
0.0240356
0.0209041
0.0185053
0.0200302
0.0144985
0.0421113
0.0327772
0.029103
0.0252518
0.021125
0.016944
0.0165054
0.0167932
0.014419
0.0128603
0.0359743
0.0268529
0.0244414
0.0204436
0.016044
0.0143678
0.0134522
0.0126308
0.0137603
0.0109688
0.0319417
0.0240225
0.0210193
0.0179599
0.0147224
0.012211