/*--------------------------------*- C++ -*----------------------------------*\
| =========                 |                                                 |
| \\      /  F ield         | OpenFOAM: The Open Source CFD Toolbox           |
|  \\    /   O peration     | Version:  2406                                  |
|   \\  /    A nd           | Website:  www.openfoam.com                      |
|    \\/     M anipulation  |                                                 |
\*---------------------------------------------------------------------------*/
FoamFile
{
    version     2.0;
    format      ascii;
    arch        "LSB;label=32;scalar=64";
    class       volScalarField;
    location    "0.6";
    object      magR;
}
// * * * * * * * * * * * * * * * * * * * * * * * * * * * * * * * * * * * * * //

dimensions      [0 2 -2 0 0 0 0];

internalField   uniform 0;

boundaryField
{
    walls
    {
        type            calculated;
        value           nonuniform List<scalar> 
2000
(
5.87663e-07
8.33791e-07
1.10238e-06
1.3247e-06
1.45048e-06
1.4504e-06
1.32451e-06
1.10214e-06
8.33558e-07
5.87504e-07
2.41101e-07
3.31734e-07
4.38427e-07
5.30681e-07
5.84149e-07
5.84069e-07
5.30457e-07
4.38103e-07
3.31363e-07
2.40735e-07
8.90906e-08
1.19313e-07
1.5609e-07
1.88974e-07
2.08188e-07
2.07875e-07
1.88108e-07
1.54857e-07
1.17969e-07
8.78622e-08
1.21491e-07
1.63023e-07
2.11988e-07
2.54626e-07
2.79016e-07
2.78133e-07
2.52216e-07
2.08634e-07
1.59529e-07
1.18441e-07
1.03526e-07
1.36864e-07
1.76006e-07
2.09777e-07
2.28713e-07
2.27277e-07
2.05859e-07
1.70509e-07
1.3104e-07
9.81755e-08
1.21621e-07
1.59335e-07
2.028e-07
2.39567e-07
2.59604e-07
2.57076e-07
2.32509e-07
1.92428e-07
1.47506e-07
1.09588e-07
1.27596e-07
1.64219e-07
2.05934e-07
2.40472e-07
2.58249e-07
2.538e-07
2.27864e-07
1.87025e-07
1.41853e-07
1.03995e-07
1.41646e-07
1.80405e-07
2.24034e-07
2.59329e-07
2.76241e-07
2.69406e-07
2.40024e-07
1.95508e-07
1.47033e-07
1.0694e-07
1.43926e-07
1.83291e-07
2.27438e-07
2.62622e-07
2.78484e-07
2.6998e-07
2.38875e-07
1.933e-07
1.44625e-07
1.05352e-07
1.40102e-07
1.80391e-07
2.25488e-07
2.61024e-07
2.76064e-07
2.6567e-07
2.32261e-07
1.84933e-07
1.35881e-07
9.78551e-08
1.31968e-07
1.71229e-07
2.14779e-07
2.48326e-07
2.60874e-07
2.47894e-07
2.12638e-07
1.65e-07
1.17717e-07
8.27308e-08
1.24935e-07
1.61423e-07
2.01123e-07
2.30653e-07
2.39842e-07
2.25032e-07
1.90089e-07
1.44854e-07
1.01432e-07
7.01698e-08
1.19908e-07
1.53011e-07
1.88212e-07
2.13515e-07
2.20128e-07
2.053e-07
1.72879e-07
1.31735e-07
9.2527e-08
6.42528e-08
1.16967e-07
1.48321e-07
1.81199e-07
2.0458e-07
2.10755e-07
1.97398e-07
1.67865e-07
1.29926e-07
9.29934e-08
6.56644e-08
1.12348e-07
1.44622e-07
1.79299e-07
2.05107e-07
2.14254e-07
2.04012e-07
1.77099e-07
1.40689e-07
1.03612e-07
7.50795e-08
9.64777e-08
1.29627e-07
1.6851e-07
2.0093e-07
2.17681e-07
2.14343e-07
1.92473e-07
1.58713e-07
1.21879e-07
9.21391e-08
7.35665e-08
1.03805e-07
1.43422e-07
1.81029e-07
2.06292e-07
2.12411e-07
1.98739e-07
1.70444e-07
1.36295e-07
1.07075e-07
5.84744e-08
8.34651e-08
1.18426e-07
1.54605e-07
1.82129e-07
1.93109e-07
1.8477e-07
1.60541e-07
1.28929e-07
1.01246e-07
5.22506e-08
7.31842e-08
1.02669e-07
1.339e-07
1.57984e-07
1.67584e-07
1.59438e-07
1.36417e-07
1.067e-07
8.14461e-08
4.98921e-08
6.89581e-08
9.51924e-08
1.22394e-07
1.42462e-07
1.49225e-07
1.40197e-07
1.18407e-07
9.13471e-08
6.89322e-08
4.97526e-08
6.85928e-08
9.39576e-08
1.19365e-07
1.37307e-07
1.42447e-07
1.33167e-07
1.12617e-07
8.76681e-08
6.70775e-08
5.0043e-08
6.91412e-08
9.4861e-08
1.20018e-07
1.37559e-07
1.42407e-07
1.33401e-07
1.13701e-07
8.99027e-08
7.02415e-08
4.83936e-08
6.69797e-08
9.22027e-08
1.16922e-07
1.34457e-07
1.39851e-07
1.31997e-07
1.13852e-07
9.16471e-08
7.32851e-08
4.82923e-08
6.59332e-08
8.94185e-08
1.12502e-07
1.29011e-07
1.34476e-07
1.27785e-07
1.11522e-07
9.13904e-08
7.47317e-08
5.06721e-08
6.77193e-08
8.90755e-08
1.09313e-07
1.23015e-07
1.26579e-07
1.19338e-07
1.0365e-07
8.50336e-08
6.96553e-08
6.22494e-08
7.92688e-08
9.92058e-08
1.16938e-07
1.28222e-07
1.30229e-07
1.22722e-07
1.07506e-07
8.96647e-08
7.37185e-08
9.60526e-08
1.15242e-07
1.37363e-07
1.56107e-07
1.67664e-07
1.68649e-07
1.58394e-07
1.38028e-07
1.13163e-07
8.86978e-08
1.59139e-07
1.83239e-07
2.10278e-07
2.30624e-07
2.38783e-07
2.30436e-07
2.05611e-07
1.68238e-07
1.27301e-07
9.18924e-08
2.32651e-07
2.6215e-07
2.90822e-07
3.05718e-07
2.99647e-07
2.7067e-07
2.23517e-07
1.68325e-07
1.17027e-07
7.99156e-08
2.59432e-07
2.9584e-07
3.25127e-07
3.32902e-07
3.12769e-07
2.67785e-07
2.07745e-07
1.46262e-07
9.45827e-08
6.0793e-08
2.03995e-07
2.49989e-07
2.91198e-07
3.09918e-07
2.96934e-07
2.56221e-07
1.98989e-07
1.40057e-07
9.01115e-08
5.74507e-08
1.08321e-07
1.46006e-07
1.8816e-07
2.20048e-07
2.27959e-07
2.09918e-07
1.72191e-07
1.26896e-07
8.52762e-08
5.65535e-08
6.31326e-08
9.18348e-08
1.27299e-07
1.6088e-07
1.79621e-07
1.77765e-07
1.56297e-07
1.22591e-07
8.8354e-08
6.21764e-08
4.00053e-08
6.07787e-08
8.75736e-08
1.14001e-07
1.31909e-07
1.36028e-07
1.25895e-07
1.05188e-07
8.25013e-08
6.39385e-08
4.62851e-08
6.63251e-08
9.27393e-08
1.1646e-07
1.31771e-07
1.33603e-07
1.22028e-07
1.00527e-07
7.71382e-08
5.87127e-08
4.29652e-08
5.76901e-08
7.61574e-08
9.27218e-08
1.02828e-07
1.03163e-07
9.36718e-08
7.68743e-08
5.86679e-08
4.42645e-08
4.15011e-08
5.20291e-08
6.43185e-08
7.66995e-08
8.45324e-08
8.55831e-08
7.92541e-08
6.74339e-08
5.42747e-08
4.46208e-08
1.29077e-07
1.56458e-07
1.89898e-07
2.35509e-07
2.78227e-07
3.09402e-07
3.20284e-07
3.09742e-07
2.83962e-07
2.58294e-07
6.66578e-07
8.44902e-07
1.00902e-06
1.20745e-06
1.36365e-06
1.45439e-06
1.45154e-06
1.35703e-06
1.20731e-06
1.0488e-06
2.56593e-06
3.15283e-06
3.62644e-06
4.03923e-06
4.25537e-06
4.25878e-06
4.03994e-06
3.63741e-06
3.14257e-06
2.60287e-06
4.25245e-06
4.78595e-06
5.07189e-06
5.15128e-06
5.02602e-06
4.79491e-06
4.46918e-06
4.00552e-06
3.37426e-06
2.56097e-06
6.22812e-06
6.46384e-06
6.49218e-06
6.33069e-06
6.26309e-06
6.1029e-06
5.52228e-06
4.43555e-06
3.10747e-06
1.8424e-06
1.33757e-05
1.54515e-05
1.74867e-05
1.87674e-05
1.88741e-05
1.67842e-05
1.25726e-05
7.84396e-06
4.08958e-06
1.78706e-06
2.28229e-05
2.84816e-05
3.28618e-05
3.40869e-05
3.15988e-05
2.54174e-05
1.70594e-05
1.00199e-05
5.97609e-06
3.52167e-06
2.67266e-05
3.32689e-05
3.67265e-05
3.56429e-05
3.11048e-05
2.41853e-05
1.64659e-05
1.05265e-05
6.51671e-06
3.8207e-06
2.22342e-05
2.73811e-05
2.97408e-05
2.86759e-05
2.50477e-05
1.92794e-05
1.25506e-05
7.04003e-06
3.32116e-06
1.07526e-06
1.8645e-05
2.27321e-05
2.49937e-05
2.49368e-05
2.20073e-05
1.59656e-05
8.98543e-06
4.02828e-06
1.51414e-06
4.66142e-07
4.54877e-05
5.82216e-05
6.9207e-05
7.61765e-05
7.4989e-05
6.37747e-05
4.76995e-05
3.40563e-05
2.4137e-05
1.68898e-05
0.000103029
0.000136762
0.000170539
0.000196154
0.000202987
0.000185866
0.000154526
0.000123945
9.74854e-05
7.47946e-05
0.000150432
0.000201221
0.000260225
0.000306103
0.00032304
0.000301323
0.000253359
0.000197414
0.000143118
9.28112e-05
5.87246e-07
8.33132e-07
1.1016e-06
1.32396e-06
1.44996e-06
1.45021e-06
1.32461e-06
1.10243e-06
8.33842e-07
5.87719e-07
2.39201e-07
3.29462e-07
4.36041e-07
5.28524e-07
5.8251e-07
5.83111e-07
5.30148e-07
4.38287e-07
3.31746e-07
2.41177e-07
8.48542e-08
1.14435e-07
1.51058e-07
1.84454e-07
2.04727e-07
2.05784e-07
1.87359e-07
1.55168e-07
1.18856e-07
8.89825e-08
1.11542e-07
1.51451e-07
1.99865e-07
2.43611e-07
2.70489e-07
2.72895e-07
2.50229e-07
2.09201e-07
1.61535e-07
1.21013e-07
9.03389e-08
1.2173e-07
1.60141e-07
1.95326e-07
2.17588e-07
2.20641e-07
2.03738e-07
1.71995e-07
1.34692e-07
1.02765e-07
1.0212e-07
1.38161e-07
1.817e-07
2.21228e-07
2.46445e-07
2.50606e-07
2.32876e-07
1.98472e-07
1.57192e-07
1.20862e-07
9.50583e-08
1.31429e-07
1.76383e-07
2.18012e-07
2.45857e-07
2.5275e-07
2.3751e-07
2.04894e-07
1.64389e-07
1.27708e-07
8.9619e-08
1.2949e-07
1.80846e-07
2.3032e-07
2.65491e-07
2.77311e-07
2.63623e-07
2.29239e-07
1.84633e-07
1.43266e-07
7.88666e-08
1.18314e-07
1.71585e-07
2.25594e-07
2.66335e-07
2.82789e-07
2.71281e-07
2.36468e-07
1.89764e-07
1.46366e-07
7.24605e-08
1.09127e-07
1.60108e-07
2.13851e-07
2.56061e-07
2.74765e-07
2.64999e-07
2.31015e-07
1.84574e-07
1.41822e-07
6.96937e-08
1.0238e-07
1.48121e-07
1.97054e-07
2.36172e-07
2.54227e-07
2.45967e-07
2.14948e-07
1.72009e-07
1.32619e-07
7.03683e-08
1.00635e-07
1.42421e-07
1.86581e-07
2.21549e-07
2.37482e-07
2.2971e-07
2.01319e-07
1.61827e-07
1.25438e-07
7.10188e-08
1.0009e-07
1.39652e-07
1.80537e-07
2.12204e-07
2.26003e-07
2.18111e-07
1.91478e-07
1.5466e-07
1.20612e-07
7.008e-08
9.80847e-08
1.35905e-07
1.7418e-07
2.03205e-07
2.15202e-07
2.07179e-07
1.82134e-07
1.4806e-07
1.16706e-07
6.84174e-08
9.50337e-08
1.30782e-07
1.66258e-07
1.92461e-07
2.02351e-07
1.93675e-07
1.69645e-07
1.38082e-07
1.09804e-07
6.77397e-08
9.24299e-08
1.25051e-07
1.56577e-07
1.78539e-07
1.8469e-07
1.73496e-07
1.48649e-07
1.1824e-07
9.25328e-08
7.08447e-08
9.37184e-08
1.22634e-07
1.49058e-07
1.65078e-07
1.65612e-07
1.50226e-07
1.235e-07
9.37992e-08
7.04867e-08
7.93409e-08
1.01048e-07
1.26627e-07
1.48055e-07
1.58286e-07
1.53694e-07
1.35002e-07
1.07437e-07
7.88266e-08
5.74324e-08
9.34548e-08
1.15324e-07
1.3924e-07
1.5716e-07
1.62836e-07
1.53875e-07
1.31978e-07
1.02921e-07
7.39486e-08
5.30111e-08
9.91469e-08
1.21594e-07
1.46107e-07
1.63518e-07
1.67573e-07
1.56278e-07
1.32146e-07
1.01524e-07
7.19208e-08
5.10216e-08
8.63529e-08
1.08315e-07
1.3436e-07
1.54038e-07
1.60319e-07
1.50622e-07
1.2771e-07
9.8072e-08
6.97916e-08
4.97861e-08
6.62994e-08
8.53911e-08
1.10115e-07
1.30786e-07
1.40244e-07
1.35033e-07
1.16976e-07
9.16635e-08
6.6792e-08
4.87485e-08
5.19e-08
6.68036e-08
8.72903e-08
1.06014e-07
1.16664e-07
1.1556e-07
1.0311e-07
8.33001e-08
6.24718e-08
4.67037e-08
4.17422e-08
5.28682e-08
6.91334e-08
8.56924e-08
9.70171e-08
9.95658e-08
9.23824e-08
7.78433e-08
6.06788e-08
4.68191e-08
3.89707e-08
4.77252e-08
6.05828e-08
7.47605e-08
8.53922e-08
8.95818e-08
8.57455e-08
7.50745e-08
6.0965e-08
4.88095e-08
4.90485e-08
6.19702e-08
7.68322e-08
9.1576e-08
1.01144e-07
1.03811e-07
9.87744e-08
8.73428e-08
7.28858e-08
5.99249e-08
6.7826e-08
9.027e-08
1.16101e-07
1.38429e-07
1.5189e-07
1.54314e-07
1.46443e-07
1.30755e-07
1.119e-07
9.40185e-08
7.71296e-08
1.1071e-07
1.54946e-07
1.95567e-07
2.24904e-07
2.37035e-07
2.32485e-07
2.14267e-07
1.88753e-07
1.60765e-07
6.63593e-08
1.07591e-07
1.68005e-07
2.33757e-07
2.90658e-07
3.26164e-07
3.35343e-07
3.19193e-07
2.85317e-07
2.42448e-07
4.8273e-08
8.73331e-08
1.48576e-07
2.24635e-07
2.98116e-07
3.51777e-07
3.73345e-07
3.60331e-07
3.20671e-07
2.70533e-07
3.62254e-08
6.68921e-08
1.17859e-07
1.86077e-07
2.54667e-07
3.05377e-07
3.22621e-07
3.03665e-07
2.58029e-07
2.09267e-07
4.10218e-08
6.14998e-08
9.46012e-08
1.38273e-07
1.80887e-07
2.09271e-07
2.11753e-07
1.88047e-07
1.47326e-07
1.10931e-07
5.82269e-08
7.71711e-08
1.01988e-07
1.29535e-07
1.5054e-07
1.58072e-07
1.47567e-07
1.21565e-07
8.92486e-08
6.30129e-08
6.06381e-08
7.51568e-08
9.15899e-08
1.05769e-07
1.11629e-07
1.06991e-07
9.26307e-08
7.18077e-08
5.18192e-08
3.64629e-08
6.23179e-08
7.62543e-08
9.4812e-08
1.08581e-07
1.13086e-07
1.06443e-07
9.14017e-08
7.19297e-08
5.43245e-08
4.09956e-08
5.00624e-08
6.3447e-08
8.10904e-08
9.32836e-08
9.72995e-08
9.25065e-08
8.17519e-08
6.75311e-08
5.39854e-08
4.18408e-08
5.94728e-08
7.6454e-08
9.14663e-08
9.98193e-08
9.73618e-08
8.82539e-08
7.67001e-08
6.50638e-08
5.48914e-08
4.52163e-08
2.80996e-07
3.11601e-07
3.07149e-07
2.73138e-07
2.12673e-07
1.56287e-07
1.19593e-07
1.07514e-07
1.10861e-07
1.2393e-07
1.19791e-06
1.40076e-06
1.49771e-06
1.42775e-06
1.1354e-06
7.82295e-07
5.28024e-07
4.4505e-07
4.75716e-07
5.54494e-07
2.51292e-06
3.08543e-06
3.74162e-06
4.31336e-06
4.4257e-06
3.95022e-06
3.19932e-06
2.6627e-06
2.41157e-06
2.28678e-06
3.17047e-06
3.59625e-06
4.15726e-06
4.9396e-06
5.69184e-06
6.04115e-06
5.78519e-06
5.20093e-06
4.60722e-06
4.06843e-06
5.03024e-06
5.91831e-06
6.29662e-06
6.81144e-06
7.56494e-06
8.29571e-06
8.58084e-06
8.21793e-06
7.4376e-06
6.36143e-06
6.91781e-06
1.11399e-05
1.36004e-05
1.48716e-05
1.5845e-05
1.69195e-05
1.77e-05
1.75263e-05
1.62426e-05
1.38225e-05
4.79022e-06
1.24794e-05
2.08314e-05
2.65423e-05
2.90214e-05
2.99768e-05
3.03879e-05
2.97978e-05
2.74282e-05
2.32607e-05
2.12358e-06
8.92926e-06
2.1028e-05
3.44051e-05
4.25862e-05
4.44447e-05
4.26709e-05
3.91968e-05
3.38916e-05
2.75987e-05
1.94629e-07
1.03467e-06
6.05336e-06
1.7451e-05
3.07758e-05
3.84268e-05
3.8433e-05
3.42489e-05
2.83268e-05
2.26838e-05
4.32525e-06
4.48385e-06
5.24203e-06
9.90796e-06
1.96854e-05
3.05688e-05
3.47623e-05
3.11258e-05
2.43012e-05
1.86574e-05
7.68588e-06
2.29903e-05
4.18102e-05
5.70431e-05
7.05892e-05
8.38715e-05
8.9202e-05
8.00863e-05
6.17901e-05
4.49229e-05
2.91325e-05
5.944e-05
9.62082e-05
0.000128705
0.000153408
0.00017243
0.000180284
0.000165624
0.000131919
9.78296e-05
3.78538e-05
6.95909e-05
0.000110575
0.000150236
0.000179613
0.000199886
0.000210432
0.00020133
0.000172082
0.000136763
5.87194e-07
8.3322e-07
1.10182e-06
1.32419e-06
1.45009e-06
1.45016e-06
1.32436e-06
1.10204e-06
8.33438e-07
5.87364e-07
2.39918e-07
3.30369e-07
4.3701e-07
5.29247e-07
5.8276e-07
5.82716e-07
5.29089e-07
4.36706e-07
3.2991e-07
2.39396e-07
8.54017e-08
1.15075e-07
1.51695e-07
1.84766e-07
2.04383e-07
2.0448e-07
1.84971e-07
1.51855e-07
1.15004e-07
8.51027e-08
1.09906e-07
1.49414e-07
1.97454e-07
2.40477e-07
2.66148e-07
2.66883e-07
2.42408e-07
2.00006e-07
1.51785e-07
1.11752e-07
8.16345e-08
1.11539e-07
1.48975e-07
1.83392e-07
2.04798e-07
2.06827e-07
1.89011e-07
1.56991e-07
1.20309e-07
8.99308e-08
8.31239e-08
1.1555e-07
1.56387e-07
1.94193e-07
2.18431e-07
2.22139e-07
2.04641e-07
1.71576e-07
1.32966e-07
1.00386e-07
7.56798e-08
1.05273e-07
1.42738e-07
1.77366e-07
1.99545e-07
2.02753e-07
1.86449e-07
1.5592e-07
1.20742e-07
9.15404e-08
7.81959e-08
1.06903e-07
1.42641e-07
1.7495e-07
1.94502e-07
1.95328e-07
1.77367e-07
1.4625e-07
1.11757e-07
8.41734e-08
7.97225e-08
1.06482e-07
1.38944e-07
1.67442e-07
1.83193e-07
1.81202e-07
1.61959e-07
1.31285e-07
9.85495e-08
7.32853e-08
8.81111e-08
1.15139e-07
1.46723e-07
1.73267e-07
1.86297e-07
1.81518e-07
1.59937e-07
1.27767e-07
9.41982e-08
6.87246e-08
1.00313e-07
1.29029e-07
1.61435e-07
1.87339e-07
1.98449e-07
1.90898e-07
1.66249e-07
1.31312e-07
9.54031e-08
6.84082e-08
1.11952e-07
1.43405e-07
1.78179e-07
2.04844e-07
2.14974e-07
2.0486e-07
1.76758e-07
1.38323e-07
9.94819e-08
7.05814e-08
1.16402e-07
1.49786e-07
1.8666e-07
2.14435e-07
2.24311e-07
2.12582e-07
1.82176e-07
1.41506e-07
1.01177e-07
7.14867e-08
1.10795e-07
1.4345e-07
1.80121e-07
2.08082e-07
2.18334e-07
2.07117e-07
1.77513e-07
1.37892e-07
9.88765e-08
7.01272e-08
9.91737e-08
1.2903e-07
1.6352e-07
1.90916e-07
2.02328e-07
1.93795e-07
1.6774e-07
1.3163e-07
9.54612e-08
6.82955e-08
8.82825e-08
1.15051e-07
1.46859e-07
1.73446e-07
1.86282e-07
1.81165e-07
1.59458e-07
1.27399e-07
9.40319e-08
6.81807e-08
8.22711e-08
1.06767e-07
1.36551e-07
1.62637e-07
1.76911e-07
1.74975e-07
1.57167e-07
1.28616e-07
9.732e-08
7.21932e-08
8.21476e-08
1.05926e-07
1.3519e-07
1.61532e-07
1.77197e-07
1.77679e-07
1.62661e-07
1.36498e-07
1.06331e-07
8.12993e-08
8.40133e-08
1.09328e-07
1.40821e-07
1.69507e-07
1.87603e-07
1.90256e-07
1.76885e-07
1.51526e-07
1.21189e-07
9.53046e-08
8.55227e-08
1.13347e-07
1.48492e-07
1.80676e-07
2.0151e-07
2.05253e-07
1.9113e-07
1.63377e-07
1.30025e-07
1.01437e-07
8.81523e-08
1.17454e-07
1.54693e-07
1.88635e-07
2.09665e-07
2.11121e-07
1.92343e-07
1.58799e-07
1.20698e-07
8.96379e-08
9.3169e-08
1.21752e-07
1.57224e-07
1.8847e-07
2.05277e-07
2.01337e-07
1.77024e-07
1.39475e-07
1.00207e-07
7.03107e-08
1.02167e-07
1.28585e-07
1.59386e-07
1.8466e-07
1.95097e-07
1.86009e-07
1.58882e-07
1.21399e-07
8.4248e-08
5.69954e-08
1.14715e-07
1.40812e-07
1.6814e-07
1.88214e-07
1.93152e-07
1.7991e-07
1.50476e-07
1.12515e-07
7.5487e-08
4.89442e-08
1.28829e-07
1.57716e-07
1.8521e-07
2.02889e-07
2.03992e-07
1.86856e-07
1.54274e-07
1.14099e-07
7.53513e-08
4.78679e-08
9.95045e-08
1.30333e-07
1.64524e-07
1.89488e-07
1.96766e-07
1.83615e-07
1.53941e-07
1.15771e-07
7.98809e-08
5.36762e-08
4.57056e-08
6.99206e-08
1.03865e-07
1.34964e-07
1.53355e-07
1.52985e-07
1.36092e-07
1.09112e-07
8.28398e-08
6.2835e-08
2.11488e-08
3.62016e-08
6.02523e-08
8.68771e-08
1.07917e-07
1.16651e-07
1.11841e-07
9.66693e-08
7.92284e-08
6.51923e-08
1.55313e-08
2.54095e-08
4.10167e-08
6.03675e-08
7.74436e-08
8.73054e-08
8.71584e-08
7.76336e-08
6.48416e-08
5.36417e-08
2.3165e-08
3.05113e-08
4.11056e-08
5.3443e-08
6.35126e-08
6.84423e-08
6.64105e-08
5.77493e-08
4.71177e-08
3.81513e-08
4.46677e-08
5.69763e-08
7.0809e-08
8.31562e-08
8.96483e-08
8.81663e-08
7.80964e-08
6.19693e-08
4.46601e-08
3.22404e-08
7.33299e-08
9.631e-08
1.1996e-07
1.38926e-07
1.46458e-07
1.40259e-07
1.2076e-07
9.34885e-08
6.45585e-08
4.42593e-08
1.16054e-07
1.53768e-07
1.93404e-07
2.24535e-07
2.3631e-07
2.24411e-07
1.90927e-07
1.44956e-07
9.88022e-08
6.50836e-08
1.38976e-07
1.84422e-07
2.33048e-07
2.69193e-07
2.79995e-07
2.60321e-07
2.15543e-07
1.58319e-07
1.05833e-07
6.77677e-08
1.70983e-07
2.25967e-07
2.84377e-07
3.24336e-07
3.31741e-07
3.01809e-07
2.43722e-07
1.73871e-07
1.12828e-07
6.96629e-08
1.6271e-07
2.19119e-07
2.77382e-07
3.1418e-07
3.15438e-07
2.78543e-07
2.16073e-07
1.46765e-07
9.13012e-08
5.44246e-08
1.50891e-07
2.07029e-07
2.64961e-07
3.01891e-07
3.0328e-07
2.691e-07
2.13005e-07
1.50768e-07
1.03152e-07
6.50897e-08
3.13072e-07
3.93229e-07
4.91692e-07
5.81819e-07
6.34888e-07
6.37307e-07
5.92992e-07
5.10383e-07
4.2843e-07
3.27151e-07
7.63454e-07
1.00657e-06
1.23956e-06
1.43007e-06
1.55167e-06
1.6141e-06
1.63031e-06
1.59261e-06
1.50556e-06
1.33125e-06
1.6256e-07
6.88805e-07
1.5781e-06
2.56696e-06
3.31814e-06
3.67524e-06
3.64665e-06
3.3835e-06
2.98851e-06
2.6383e-06
2.21657e-08
2.01478e-08
2.71409e-07
9.84365e-07
1.99463e-06
3.02803e-06
3.76311e-06
4.01597e-06
3.74932e-06
3.27411e-06
3.00945e-09
8.86278e-10
1.46547e-08
3.71746e-08
1.17245e-07
3.8881e-07
1.02842e-06
2.06403e-06
3.16994e-06
3.90124e-06
1.05659e-07
5.15183e-08
4.99495e-08
9.56113e-08
4.77999e-08
1.22898e-09
3.07866e-08
3.76852e-07
1.40673e-06
3.15177e-06
1.74264e-07
8.14936e-07
2.1224e-06
2.77426e-06
1.99579e-06
7.9361e-07
1.14059e-07
1.45091e-08
3.0923e-07
1.24115e-06
1.55146e-06
6.92367e-06
1.42576e-05
1.73563e-05
1.57304e-05
1.11857e-05
5.73348e-06
1.59152e-06
1.18234e-07
1.55846e-07
9.90078e-06
2.16561e-05
3.27944e-05
3.868e-05
4.23813e-05
4.28271e-05
3.72926e-05
2.51828e-05
1.11254e-05
2.37071e-06
1.03447e-05
1.00493e-05
7.2298e-06
5.74662e-06
6.68569e-06
8.56727e-06
1.04382e-05
1.08605e-05
8.56272e-06
5.57379e-06
3.53138e-05
4.99118e-05
4.6647e-05
3.47522e-05
2.38673e-05
1.35447e-05
6.35456e-06
2.36906e-06
1.29013e-06
1.68796e-06
2.52647e-05
3.7361e-05
4.61053e-05
4.42395e-05
3.7105e-05
2.75282e-05
1.92435e-05
1.41311e-05
1.32439e-05
1.59793e-05
1.3766e-05
1.53227e-05
1.65045e-05
1.66007e-05
1.66612e-05
1.63083e-05
1.57425e-05
1.62712e-05
1.83948e-05
2.27172e-05
5.87546e-07
8.33544e-07
1.10197e-06
1.32403e-06
1.44959e-06
1.44937e-06
1.32347e-06
1.10123e-06
8.32867e-07
5.87056e-07
2.40742e-07
3.31228e-07
4.37777e-07
5.29771e-07
5.82971e-07
5.82663e-07
5.28955e-07
4.36674e-07
3.30153e-07
2.39821e-07
8.78563e-08
1.17809e-07
1.54413e-07
1.87076e-07
2.06049e-07
2.05475e-07
1.85496e-07
1.52168e-07
1.15361e-07
8.55101e-08
1.18435e-07
1.59235e-07
2.07677e-07
2.49742e-07
2.73423e-07
2.71633e-07
2.44733e-07
2.00426e-07
1.5107e-07
1.10493e-07
9.77256e-08
1.29302e-07
1.66742e-07
1.9868e-07
2.15573e-07
2.11965e-07
1.88621e-07
1.52273e-07
1.13141e-07
8.2104e-08
1.07642e-07
1.41086e-07
1.80117e-07
2.12431e-07
2.28178e-07
2.22106e-07
1.95656e-07
1.563e-07
1.14991e-07
8.2698e-08
1.00149e-07
1.29553e-07
1.63959e-07
1.9216e-07
2.05344e-07
1.99076e-07
1.74972e-07
1.39791e-07
1.03313e-07
7.47948e-08
1.01966e-07
1.31309e-07
1.65631e-07
1.94089e-07
2.07941e-07
2.02757e-07
1.79736e-07
1.45129e-07
1.08289e-07
7.86215e-08
1.01216e-07
1.31309e-07
1.66538e-07
1.96236e-07
2.11484e-07
2.07656e-07
1.85464e-07
1.50912e-07
1.13066e-07
8.20804e-08
9.58375e-08
1.28631e-07
1.68358e-07
2.03245e-07
2.23031e-07
2.22049e-07
2.00585e-07
1.64962e-07
1.2477e-07
9.14306e-08
8.24653e-08
1.15805e-07
1.58895e-07
1.99406e-07
2.25676e-07
2.30242e-07
2.12361e-07
1.78081e-07
1.37557e-07
1.02992e-07
7.05613e-08
1.01943e-07
1.44727e-07
1.8754e-07
2.18578e-07
2.28983e-07
2.16467e-07
1.85855e-07
1.47184e-07
1.1285e-07
6.44208e-08
9.28137e-08
1.3239e-07
1.73411e-07
2.05143e-07
2.18639e-07
2.10512e-07
1.84075e-07
1.48477e-07
1.15749e-07
6.48073e-08
9.07051e-08
1.26555e-07
1.63901e-07
1.93172e-07
2.06162e-07
1.99219e-07
1.74822e-07
1.41287e-07
1.10186e-07
7.26273e-08
9.6901e-08
1.29324e-07
1.62234e-07
1.86976e-07
1.96446e-07
1.87454e-07
1.62528e-07
1.29552e-07
9.97159e-08
8.94553e-08
1.13874e-07
1.43792e-07
1.71736e-07
1.90062e-07
1.93266e-07
1.79481e-07
1.52058e-07
1.18653e-07
8.99229e-08
1.06594e-07
1.33518e-07
1.63714e-07
1.88639e-07
2.01341e-07
1.97926e-07
1.78408e-07
1.4747e-07
1.12829e-07
8.46058e-08
1.02774e-07
1.32474e-07
1.66515e-07
1.94063e-07
2.07226e-07
2.02274e-07
1.80464e-07
1.47689e-07
1.12321e-07
8.42762e-08
8.27703e-08
1.11134e-07
1.46483e-07
1.77728e-07
1.95473e-07
1.94554e-07
1.75685e-07
1.44817e-07
1.11038e-07
8.42216e-08
6.94015e-08
9.3652e-08
1.25282e-07
1.55253e-07
1.74604e-07
1.77505e-07
1.63429e-07
1.37144e-07
1.073e-07
8.31787e-08
6.75075e-08
8.94736e-08
1.1799e-07
1.45495e-07
1.64233e-07
1.68724e-07
1.57748e-07
1.34863e-07
1.07689e-07
8.50816e-08
7.16261e-08
9.41071e-08
1.2263e-07
1.49853e-07
1.68587e-07
1.73735e-07
1.63852e-07
1.41948e-07
1.14801e-07
9.15498e-08
7.62539e-08
1.00587e-07
1.30966e-07
1.59775e-07
1.79781e-07
1.85969e-07
1.7678e-07
1.55122e-07
1.27137e-07
1.02585e-07
7.95705e-08
1.05653e-07
1.37664e-07
1.67599e-07
1.88261e-07
1.94864e-07
1.86155e-07
1.65235e-07
1.37931e-07
1.14112e-07
7.57991e-08
1.02089e-07
1.34884e-07
1.65253e-07
1.86485e-07
1.9386e-07
1.86725e-07
1.6818e-07
1.44156e-07
1.23376e-07
7.86164e-08
1.0285e-07
1.33256e-07
1.60119e-07
1.77096e-07
1.79295e-07
1.66602e-07
1.42754e-07
1.15395e-07
9.32794e-08
8.56813e-08
1.05267e-07
1.28421e-07
1.46097e-07
1.51516e-07
1.41501e-07
1.18254e-07
8.81144e-08
6.04753e-08
4.18115e-08
8.12061e-08
9.66332e-08
1.13442e-07
1.23841e-07
1.21604e-07
1.06115e-07
8.15196e-08
5.46082e-08
3.31508e-08
1.98534e-08
7.02721e-08
8.67271e-08
1.04705e-07
1.16149e-07
1.14892e-07
1.00587e-07
7.7274e-08
5.15821e-08
3.05296e-08
1.70964e-08
5.26492e-08
6.80503e-08
8.77623e-08
1.04471e-07
1.11122e-07
1.05207e-07
8.82685e-08
6.57835e-08
4.36798e-08
2.78806e-08
4.84032e-08
6.12802e-08
7.90329e-08
9.69595e-08
1.08663e-07
1.10432e-07
1.01119e-07
8.39525e-08
6.35411e-08
4.75016e-08
5.04783e-08
6.51569e-08
8.35936e-08
1.02475e-07
1.15883e-07
1.20693e-07
1.15319e-07
1.01715e-07
8.40122e-08
6.94321e-08
6.28346e-08
8.71315e-08
1.16484e-07
1.45377e-07
1.65647e-07
1.7315e-07
1.66574e-07
1.48565e-07
1.25484e-07
1.05784e-07
7.17076e-08
1.01869e-07
1.39604e-07
1.75596e-07
2.0116e-07
2.10163e-07
2.01482e-07
1.78608e-07
1.50108e-07
1.25702e-07
6.71273e-08
1.01821e-07
1.49841e-07
1.98075e-07
2.35163e-07
2.51513e-07
2.44869e-07
2.19104e-07
1.85109e-07
1.54779e-07
4.90856e-08
7.60793e-08
1.14946e-07
1.56791e-07
1.91615e-07
2.10668e-07
2.10737e-07
1.93825e-07
1.6855e-07
1.44492e-07
4.94546e-08
7.47387e-08
1.0898e-07
1.44754e-07
1.72675e-07
1.86417e-07
1.84047e-07
1.68458e-07
1.47935e-07
1.31742e-07
2.65762e-07
3.09624e-07
3.57679e-07
3.93412e-07
4.06278e-07
3.97025e-07
3.72205e-07
3.40636e-07
3.08334e-07
2.918e-07
1.03737e-06
1.07842e-06
1.10208e-06
1.07676e-06
1.00697e-06
8.9347e-07
7.61333e-07
6.56236e-07
6.02698e-07
6.22414e-07
2.40624e-06
2.46382e-06
2.28689e-06
1.74526e-06
1.01422e-06
4.20188e-07
1.16408e-07
2.32498e-08
7.16238e-09
2.18107e-08
1.78921e-06
1.22689e-06
5.53688e-07
1.13004e-07
2.37961e-09
1.86617e-08
8.21376e-08
1.32948e-07
1.45799e-07
1.05906e-07
8.81339e-07
3.75308e-07
1.13596e-07
1.40767e-07
3.92e-07
6.93878e-07
8.12661e-07
6.15249e-07
2.75308e-07
5.96217e-08
1.07607e-06
1.32996e-06
1.70246e-06
1.90773e-06
1.74386e-06
1.3466e-06
8.39471e-07
4.03555e-07
1.79626e-07
1.11385e-07
2.78548e-06
2.90817e-06
2.88757e-06
2.80692e-06
2.43024e-06
1.89366e-06
1.53859e-06
1.27746e-06
8.72456e-07
2.86596e-07
2.77238e-06
2.61742e-06
2.06653e-06
1.03859e-06
3.2496e-07
1.31633e-07
1.66341e-07
2.85219e-07
2.28845e-07
1.6007e-07
1.86892e-07
3.84733e-08
8.08681e-08
2.55319e-07
4.38241e-07
5.12611e-07
5.27375e-07
7.87845e-07
1.67695e-06
3.79562e-06
2.72925e-07
3.57713e-07
1.28787e-07
9.1181e-08
3.81654e-07
7.52072e-07
1.67811e-06
3.34912e-06
6.43471e-06
9.37392e-06
1.47964e-05
2.40243e-05
4.06539e-05
6.18083e-05
7.07086e-05
6.17365e-05
4.83522e-05
4.10632e-05
3.21274e-05
2.72777e-05
8.02681e-05
0.000110967
0.000132247
0.000128805
0.000102735
7.48531e-05
4.90849e-05
2.99764e-05
2.48022e-05
2.27952e-05
8.97411e-05
9.6492e-05
9.24986e-05
7.75624e-05
5.75503e-05
3.37229e-05
1.03317e-05
3.72917e-06
8.24109e-06
1.41813e-05
)
;
    }
    inlet
    {
        type            calculated;
        value           uniform 0;
    }
    outlet
    {
        type            calculated;
        value           uniform 0;
    }
}


// ************************************************************************* //
