/*--------------------------------*- C++ -*----------------------------------*\
| =========                 |                                                 |
| \\      /  F ield         | OpenFOAM: The Open Source CFD Toolbox           |
|  \\    /   O peration     | Version:  2406                                  |
|   \\  /    A nd           | Website:  www.openfoam.com                      |
|    \\/     M anipulation  |                                                 |
\*---------------------------------------------------------------------------*/
FoamFile
{
    version     2.0;
    format      ascii;
    arch        "LSB;label=32;scalar=64";
    class       volVectorField;
    location    "0.6";
    object      momentError;
}
// * * * * * * * * * * * * * * * * * * * * * * * * * * * * * * * * * * * * * //

dimensions      [0 1 -2 0 0 0 0];

internalField   nonuniform List<vector> 
25000
(
(0.184536 0.178912 0.122653)
(0.123794 0.19827 0.169098)
(0.0854052 0.193241 0.18038)
(0.0581256 0.184703 0.185848)
(0.0320387 0.177753 0.190013)
(0.00584687 0.173783 0.192516)
(-0.0216243 0.173042 0.193101)
(-0.0550419 0.174331 0.191819)
(-0.104241 0.174904 0.184913)
(-0.164753 0.161276 0.136119)
(0.196907 0.11667 0.170863)
(0.130097 0.126338 0.230995)
(0.0859529 0.118224 0.244545)
(0.0580525 0.112096 0.25106)
(0.0321161 0.107771 0.256002)
(0.00604943 0.104601 0.258985)
(-0.0216082 0.103211 0.259794)
(-0.0561238 0.105291 0.2585)
(-0.111422 0.113516 0.250585)
(-0.18012 0.106551 0.190646)
(0.192513 0.0784729 0.185076)
(0.1224 0.0812597 0.247919)
(0.0799563 0.07531 0.262773)
(0.0534256 0.0721743 0.270124)
(0.0283841 0.070227 0.275333)
(0.00342209 0.0686082 0.27827)
(-0.0225395 0.0678095 0.278729)
(-0.0540296 0.0699409 0.276492)
(-0.103267 0.0783658 0.267382)
(-0.168301 0.077263 0.205823)
(0.188175 0.0529229 0.193131)
(0.117958 0.0553043 0.257588)
(0.0771751 0.0511387 0.27359)
(0.0514926 0.0492637 0.281404)
(0.0269237 0.0485455 0.286593)
(0.00249265 0.0481093 0.289428)
(-0.0224566 0.0482416 0.289689)
(-0.0513366 0.0506105 0.286816)
(-0.0950928 0.0574645 0.27659)
(-0.154771 0.0560257 0.21389)
(0.186816 0.0287391 0.199358)
(0.115794 0.0317354 0.265296)
(0.0757978 0.0288863 0.282056)
(0.050869 0.0276143 0.290021)
(0.0267842 0.027548 0.295019)
(0.00286173 0.0278715 0.297649)
(-0.0211975 0.0287475 0.297774)
(-0.0483461 0.0312191 0.294567)
(-0.088551 0.0362739 0.283615)
(-0.145108 0.0340699 0.219763)
(0.188679 0.00398675 0.203646)
(0.115144 0.00788996 0.270773)
(0.0749493 0.00622446 0.288131)
(0.0505791 0.00536496 0.296249)
(0.0271185 0.00572882 0.301119)
(0.00378457 0.00658125 0.303491)
(-0.0195931 0.00783903 0.303286)
(-0.0456344 0.0101566 0.299672)
(-0.0842361 0.0134321 0.288184)
(-0.140117 0.0107026 0.223424)
(0.192922 -0.0223467 0.206163)
(0.115788 -0.0174405 0.274222)
(0.0746269 -0.0175659 0.291893)
(0.0506868 -0.0176935 0.300147)
(0.0278965 -0.0168096 0.304945)
(0.00504073 -0.0156599 0.30696)
(-0.017815 -0.0142247 0.306235)
(-0.0434635 -0.0124354 0.302152)
(-0.0824738 -0.0114759 0.290295)
(-0.139781 -0.0145213 0.224883)
(0.197332 -0.0540297 0.206791)
(0.118897 -0.0485982 0.275334)
(0.0764376 -0.0458098 0.292634)
(0.0522096 -0.0441365 0.300569)
(0.0294066 -0.0424845 0.305099)
(0.00657118 -0.0413192 0.306704)
(-0.0164013 -0.0405629 0.305541)
(-0.0429416 -0.0405868 0.301286)
(-0.0843158 -0.043039 0.289607)
(-0.143821 -0.045441 0.22387)
(0.195021 -0.10103 0.200966)
(0.12527 -0.0967814 0.268732)
(0.0823785 -0.0884137 0.285052)
(0.0561233 -0.0831617 0.292049)
(0.0316323 -0.0806387 0.296006)
(0.00719791 -0.0807952 0.297219)
(-0.017579 -0.0832458 0.295838)
(-0.04659 -0.0878834 0.291913)
(-0.0913985 -0.0946766 0.280835)
(-0.150137 -0.0890341 0.21583)
(0.161509 -0.163153 0.152493)
(0.11079 -0.15611 0.208411)
(0.0785179 -0.143807 0.222768)
(0.0535678 -0.136608 0.228796)
(0.0293014 -0.135097 0.232009)
(0.00499919 -0.138933 0.23282)
(-0.0198262 -0.1472 0.231321)
(-0.0484443 -0.157619 0.227484)
(-0.0889619 -0.163463 0.217064)
(-0.144585 -0.144295 0.162704)
(0.232841 0.21084 0.475626)
(0.156956 0.244324 0.616382)
(0.116571 0.24479 0.622567)
(0.0899088 0.235166 0.615664)
(0.0656027 0.225134 0.615519)
(0.0398173 0.216532 0.618951)
(0.0110653 0.2108 0.626454)
(-0.026123 0.208261 0.642162)
(-0.0818926 0.205995 0.648755)
(-0.156693 0.194661 0.522552)
(0.233496 0.144382 0.617513)
(0.157348 0.158496 0.765102)
(0.110022 0.147252 0.755083)
(0.0805473 0.137036 0.741094)
(0.0551986 0.128949 0.738642)
(0.0297021 0.122586 0.741129)
(0.00105167 0.119549 0.749062)
(-0.0373414 0.122389 0.769504)
(-0.0990086 0.133398 0.789576)
(-0.180373 0.129726 0.653318)
(0.224403 0.109599 0.625616)
(0.143773 0.110207 0.756773)
(0.0963321 0.0966623 0.740875)
(0.0664631 0.087137 0.730016)
(0.0419504 0.0811415 0.730547)
(0.0187686 0.077273 0.732458)
(-0.00679771 0.0764426 0.736335)
(-0.0416651 0.081929 0.752726)
(-0.097638 0.0963167 0.777408)
(-0.175961 0.0994761 0.654517)
(0.218258 0.084927 0.619821)
(0.13419 0.0835355 0.744247)
(0.0868397 0.0707262 0.731174)
(0.0576984 0.0621265 0.726517)
(0.0346555 0.0575629 0.730612)
(0.0133484 0.0551985 0.732398)
(-0.00967704 0.0553687 0.7324)
(-0.0411506 0.0609852 0.742185)
(-0.0924435 0.0739634 0.763487)
(-0.167147 0.0763883 0.645757)
(0.21797 0.0616337 0.619814)
(0.128793 0.0612564 0.742891)
(0.0810259 0.0511601 0.732754)
(0.0529991 0.044273 0.731694)
(0.0311685 0.0407695 0.737374)
(0.0111221 0.0391988 0.739247)
(-0.010097 0.0396259 0.73783)
(-0.0390182 0.043837 0.74397)
(-0.0871527 0.0529027 0.7619)
(-0.160534 0.0529696 0.644826)
(0.221051 0.0370143 0.622494)
(0.126776 0.0385626 0.746072)
(0.077977 0.0318361 0.735626)
(0.0505445 0.0268274 0.734613)
(0.0296244 0.0242272 0.740557)
(0.0105106 0.0232 0.742653)
(-0.0096256 0.0234656 0.741359)
(-0.0370455 0.0257347 0.747568)
(-0.0835275 0.0300058 0.765438)
(-0.156549 0.0272192 0.64755)
(0.226148 0.00981152 0.628246)
(0.128235 0.0127044 0.754151)
(0.0781646 0.0093042 0.740114)
(0.050668 0.00658075 0.735452)
(0.0299746 0.00527236 0.740241)
(0.0110288 0.00468547 0.742649)
(-0.00899491 0.00442199 0.743042)
(-0.0362314 0.00429804 0.753012)
(-0.0825983 0.00349919 0.773981)
(-0.155553 -0.00151148 0.65363)
(0.232085 -0.0252304 0.640873)
(0.135062 -0.0227903 0.774097)
(0.0844874 -0.0228521 0.756767)
(0.0558931 -0.0229231 0.745642)
(0.033525 -0.0226698 0.746978)
(0.0127798 -0.0229945 0.749739)
(-0.00903064 -0.0243783 0.754086)
(-0.037814 -0.0273774 0.770456)
(-0.0854487 -0.0328643 0.794115)
(-0.157989 -0.037805 0.666601)
(0.231129 -0.0774922 0.642718)
(0.147274 -0.0796758 0.792137)
(0.0985701 -0.0757025 0.780819)
(0.0676608 -0.0728059 0.766622)
(0.0411622 -0.071682 0.764733)
(0.0157482 -0.0729362 0.767668)
(-0.0104261 -0.0769316 0.775409)
(-0.0425869 -0.0836444 0.794714)
(-0.0921376 -0.0924582 0.812192)
(-0.160575 -0.0886366 0.668921)
(0.200848 -0.14883 0.505729)
(0.138409 -0.151868 0.648248)
(0.102908 -0.148009 0.652822)
(0.0738079 -0.145657 0.645398)
(0.0460227 -0.147406 0.645029)
(0.0183042 -0.152549 0.647719)
(-0.00978779 -0.160708 0.653517)
(-0.0421616 -0.170437 0.666242)
(-0.0862825 -0.175175 0.668333)
(-0.150708 -0.157215 0.532776)
(0.22037 0.15155 0.896341)
(0.140887 0.198052 1.14293)
(0.102424 0.202921 1.1491)
(0.083723 0.19441 1.13434)
(0.0737665 0.185518 1.13835)
(0.0657668 0.17902 1.15644)
(0.0531646 0.176567 1.19056)
(0.0266962 0.177445 1.24791)
(-0.0240721 0.176972 1.2935)
(-0.0962496 0.16394 1.12852)
(0.203321 0.0756529 1.14371)
(0.123578 0.0956782 1.38679)
(0.0789408 0.0840153 1.34871)
(0.0590833 0.0732049 1.30502)
(0.0515507 0.0661779 1.29287)
(0.0477924 0.0633076 1.30429)
(0.0384305 0.0662594 1.34078)
(0.0123094 0.0764994 1.41217)
(-0.0434415 0.0953963 1.48678)
(-0.121218 0.0975742 1.30263)
(0.182519 0.0404682 1.14798)
(0.101373 0.0425825 1.34572)
(0.0570275 0.0252691 1.27751)
(0.0380329 0.0136273 1.22152)
(0.0335298 0.007943 1.20307)
(0.0351218 0.00817721 1.21133)
(0.0314022 0.015377 1.24773)
(0.0100375 0.0311289 1.32489)
(-0.0397867 0.056854 1.42253)
(-0.112787 0.0691363 1.26941)
(0.166391 0.0220523 1.12602)
(0.0859473 0.0205262 1.29642)
(0.0431339 0.00406009 1.21584)
(0.0257848 -0.00628126 1.15613)
(0.0246809 -0.0104389 1.13609)
(0.031202 -0.00833265 1.14288)
(0.0319567 0.000495532 1.17765)
(0.0146971 0.0164459 1.25485)
(-0.030506 0.040062 1.36035)
(-0.0991804 0.0510043 1.22496)
(0.159649 0.0111704 1.11775)
(0.07814 0.0118727 1.27632)
(0.0366877 0.000731683 1.1905)
(0.0208629 -0.00533312 1.12952)
(0.0221453 -0.00641653 1.10942)
(0.032608 -0.00339471 1.1157)
(0.0361527 0.00368346 1.14906)
(0.0205892 0.0151914 1.22553)
(-0.0223351 0.0312473 1.33336)
(-0.0900372 0.0366378 1.20418)
(0.161334 0.00196278 1.11919)
(0.0785441 0.00729164 1.27763)
(0.0381167 0.00338712 1.1909)
(0.0233766 0.00309313 1.12932)
(0.0252343 0.00641487 1.1089)
(0.0356997 0.00986431 1.11516)
(0.0389947 0.0126307 1.14866)
(0.0237176 0.0171958 1.22496)
(-0.0185333 0.0235674 1.33222)
(-0.0865102 0.0220316 1.20097)
(0.170334 -0.00990911 1.13137)
(0.0870336 -0.000757714 1.30103)
(0.0475869 0.00161049 1.21757)
(0.0334412 0.00581624 1.15637)
(0.0333843 0.011564 1.13575)
(0.0393844 0.0147563 1.14245)
(0.0394624 0.0144556 1.17703)
(0.022863 0.0130914 1.25331)
(-0.0198943 0.0105863 1.35685)
(-0.0885163 0.00363988 1.21502)
(0.184471 -0.0311966 1.16069)
(0.103541 -0.0214207 1.35609)
(0.0649316 -0.0149777 1.28289)
(0.049562 -0.00848282 1.22451)
(0.0452098 -0.00268601 1.20524)
(0.0446542 -0.00049396 1.21293)
(0.0390401 -0.00277542 1.24806)
(0.0189104 -0.00823222 1.32273)
(-0.0258992 -0.0168363 1.41667)
(-0.0954437 -0.0249587 1.25234)
(0.195742 -0.0703447 1.17296)
(0.125909 -0.0652411 1.41135)
(0.0891671 -0.0570271 1.36657)
(0.070753 -0.0500754 1.31944)
(0.0598352 -0.0460517 1.3053)
(0.0507982 -0.0465127 1.31438)
(0.0375613 -0.0518163 1.34708)
(0.0123159 -0.0607546 1.41293)
(-0.0348114 -0.0717487 1.48061)
(-0.102128 -0.0706067 1.27879)
(0.18698 -0.131424 0.943644)
(0.133347 -0.128389 1.18607)
(0.106663 -0.12276 1.18448)
(0.0883614 -0.118837 1.16354)
(0.0734292 -0.12 1.16172)
(0.0586871 -0.126127 1.17287)
(0.0407012 -0.136796 1.19785)
(0.013747 -0.149403 1.24337)
(-0.0292071 -0.155612 1.27459)
(-0.0940254 -0.137286 1.08067)
(0.33591 0.124328 1.41903)
(0.241717 0.206326 1.75174)
(0.19832 0.237548 1.75928)
(0.175379 0.246811 1.73604)
(0.15883 0.249701 1.74296)
(0.140416 0.248934 1.77545)
(0.113978 0.246199 1.83463)
(0.07173 0.241243 1.92929)
(0.00398986 0.229533 2.00724)
(-0.0893061 0.204087 1.81981)
(0.291244 0.0683051 1.73976)
(0.215871 0.117692 2.07962)
(0.173955 0.120795 2.03249)
(0.151314 0.118774 1.96821)
(0.135981 0.116963 1.94891)
(0.119664 0.117283 1.9697)
(0.0941812 0.122031 2.03238)
(0.0512778 0.131735 2.14587)
(-0.0177682 0.147062 2.25606)
(-0.104772 0.141658 2.02431)
(0.259624 0.0456298 1.73809)
(0.190776 0.0747338 2.02092)
(0.152403 0.067034 1.92728)
(0.130201 0.0578132 1.83492)
(0.116556 0.0517999 1.7948)
(0.104578 0.0533211 1.80907)
(0.0827829 0.0642519 1.88082)
(0.0427224 0.0827792 2.01214)
(-0.019606 0.108014 2.1591)
(-0.0972199 0.11372 1.96468)
(0.237092 0.0307983 1.69595)
(0.169727 0.0552203 1.94179)
(0.13301 0.0456384 1.82169)
(0.111947 0.0336288 1.70574)
(0.102983 0.0254571 1.64315)
(0.0986186 0.0272617 1.65336)
(0.0817687 0.0405303 1.74055)
(0.0446234 0.0608953 1.88969)
(-0.0134274 0.0853006 2.05753)
(-0.0859819 0.0902264 1.88817)
(0.22643 0.0195234 1.6739)
(0.156505 0.044219 1.90261)
(0.120202 0.0385666 1.76673)
(0.1005 0.0300801 1.63252)
(0.0953248 0.0243939 1.55544)
(0.0977 0.0259146 1.56336)
(0.0845895 0.0354424 1.66123)
(0.0490763 0.0499536 1.82648)
(-0.00677085 0.0669014 2.0073)
(-0.0786453 0.0673797 1.84861)
(0.224287 0.00779933 1.66597)
(0.152585 0.0346862 1.89794)
(0.117641 0.0358909 1.763)
(0.099179 0.0348981 1.63064)
(0.0939789 0.0352629 1.55606)
(0.0953147 0.0360955 1.56393)
(0.0824399 0.037228 1.65912)
(0.04923 0.0412811 1.82203)
(-0.00393247 0.0477459 2.00114)
(-0.0752981 0.0426638 1.83876)
(0.227917 -0.00789942 1.67338)
(0.156551 0.0205166 1.92882)
(0.124163 0.0269655 1.81093)
(0.106559 0.0309032 1.69825)
(0.0974464 0.0340368 1.63902)
(0.0915249 0.0334971 1.64903)
(0.0760471 0.0290998 1.73208)
(0.0447996 0.0251932 1.87634)
(-0.00508628 0.0227652 2.03952)
(-0.0751117 0.0135203 1.85886)
(0.234912 -0.0333992 1.7043)
(0.16663 -0.00514279 2.00331)
(0.136255 0.00427353 1.91193)
(0.118223 0.00933356 1.82163)
(0.104153 0.0118004 1.78308)
(0.0904782 0.00939332 1.79659)
(0.0706761 0.00225414 1.86479)
(0.0397112 -0.0058829 1.99032)
(-0.00852166 -0.0141856 2.13025)
(-0.0770056 -0.024798 1.9168)
(0.237193 -0.0764829 1.70384)
(0.17881 -0.0506667 2.06662)
(0.150577 -0.0393047 2.02377)
(0.131006 -0.0343934 1.96152)
(0.112231 -0.0343758 1.94253)
(0.0920429 -0.0394735 1.96068)
(0.0677486 -0.0490135 2.01748)
(0.0352354 -0.0605687 2.12177)
(-0.0122454 -0.0726116 2.22005)
(-0.0760245 -0.0786808 1.95925)
(0.223484 -0.139999 1.36024)
(0.175625 -0.111991 1.73556)
(0.156373 -0.102387 1.75886)
(0.139209 -0.10048 1.74238)
(0.120401 -0.105497 1.74941)
(0.0989132 -0.115682 1.77529)
(0.0740084 -0.129675 1.82106)
(0.0426022 -0.145178 1.89626)
(-0.000287665 -0.156471 1.94901)
(-0.0614754 -0.155536 1.7126)
(0.309761 0.00460687 2.01907)
(0.21358 0.112303 2.39384)
(0.16523 0.154034 2.37041)
(0.140296 0.170316 2.31978)
(0.126188 0.177504 2.3218)
(0.116148 0.177725 2.3706)
(0.102683 0.173755 2.4685)
(0.0753128 0.165953 2.62588)
(0.0214479 0.149714 2.77227)
(-0.0574419 0.107404 2.60868)
(0.255734 -0.0636381 2.35612)
(0.175288 0.00676262 2.76025)
(0.130929 0.0207452 2.67963)
(0.10884 0.0294016 2.58435)
(0.0984164 0.0367099 2.55576)
(0.0926455 0.0432516 2.58948)
(0.0824951 0.0517893 2.68884)
(0.0573697 0.062841 2.86306)
(0.00605489 0.0771504 3.04101)
(-0.0641341 0.0609239 2.80286)
(0.213905 -0.0918762 2.30222)
(0.145465 -0.0433287 2.64758)
(0.108235 -0.0390612 2.51617)
(0.0883636 -0.0355762 2.38999)
(0.0801206 -0.0308126 2.33256)
(0.0787692 -0.020898 2.3575)
(0.0725022 -0.00300158 2.47213)
(0.0507863 0.0192769 2.6679)
(0.00818446 0.0449515 2.89041)
(-0.0492554 0.0420956 2.69126)
(0.182053 -0.106917 2.20809)
(0.121295 -0.0643308 2.51919)
(0.0897327 -0.0618462 2.35969)
(0.0729499 -0.0616976 2.19862)
(0.070257 -0.0604352 2.09879)
(0.0772881 -0.0494893 2.11645)
(0.0753773 -0.0252557 2.26407)
(0.0560283 0.00153248 2.49452)
(0.0178674 0.0275588 2.74266)
(-0.0334593 0.0251635 2.56842)
(0.162276 -0.115005 2.14913)
(0.10426 -0.0727029 2.44975)
(0.077249 -0.0669481 2.27334)
(0.0640941 -0.0655343 2.08005)
(0.0663664 -0.0647876 1.95088)
(0.0821746 -0.0533461 1.96046)
(0.0833593 -0.028955 2.13423)
(0.0641623 -0.00543367 2.40091)
(0.0278008 0.0141331 2.66849)
(-0.0228105 0.00789789 2.50373)
(0.152394 -0.121649 2.1165)
(0.0962542 -0.0764876 2.43161)
(0.0741105 -0.0639239 2.26309)
(0.0651756 -0.0551816 2.07747)
(0.0688023 -0.0476878 1.95507)
(0.0831867 -0.036034 1.96603)
(0.0845925 -0.0214287 2.13495)
(0.0676187 -0.00886432 2.39642)
(0.0337676 0.000484708 2.65963)
(-0.0166617 -0.0115155 2.48749)
(0.149645 -0.130525 2.10943)
(0.0958685 -0.0819464 2.4641)
(0.0788003 -0.0632124 2.32625)
(0.0740922 -0.0483145 2.18306)
(0.0759276 -0.0359088 2.09674)
(0.0821788 -0.0259671 2.11784)
(0.0814261 -0.020287 2.25902)
(0.067267 -0.0176646 2.47904)
(0.0366274 -0.0177998 2.71585)
(-0.0131361 -0.0351482 2.5199)
(0.151028 -0.147289 2.13348)
(0.101432 -0.0959673 2.55317)
(0.0877366 -0.0724657 2.4544)
(0.0853472 -0.0551885 2.35175)
(0.0853677 -0.0425086 2.31068)
(0.0855967 -0.0356039 2.34195)
(0.0813706 -0.0350132 2.45307)
(0.0678283 -0.0384255 2.63867)
(0.0382359 -0.0460198 2.84502)
(-0.0108084 -0.0673393 2.61016)
(0.146511 -0.181055 2.11016)
(0.109012 -0.12776 2.62177)
(0.0983268 -0.099274 2.58974)
(0.0963623 -0.0804817 2.52811)
(0.0946704 -0.069649 2.52074)
(0.0911681 -0.0663708 2.56336)
(0.0840741 -0.0701186 2.65976)
(0.0693691 -0.0793763 2.8201)
(0.0399404 -0.0939533 2.97469)
(-0.00422262 -0.115126 2.68512)
(0.117018 -0.24457 1.60177)
(0.0960694 -0.180791 2.15066)
(0.0971465 -0.148074 2.21716)
(0.10049 -0.129368 2.22534)
(0.10246 -0.122429 2.26182)
(0.101391 -0.124706 2.32331)
(0.0966168 -0.134901 2.41414)
(0.0847683 -0.151307 2.54611)
(0.0609467 -0.170381 2.6505)
(0.0226632 -0.19001 2.40564)
(0.368014 0.0909724 2.74115)
(0.286199 0.168534 3.15122)
(0.242877 0.211141 3.11217)
(0.21593 0.234859 3.0451)
(0.193157 0.248832 3.0495)
(0.167642 0.252103 3.12019)
(0.133297 0.244963 3.25971)
(0.08104 0.226011 3.47894)
(-0.00256895 0.187792 3.68834)
(-0.118686 0.112603 3.56655)
(0.308885 0.0528995 3.0711)
(0.251503 0.101158 3.52861)
(0.215977 0.112465 3.42181)
(0.193194 0.122674 3.30356)
(0.174373 0.131862 3.2735)
(0.153703 0.137295 3.32717)
(0.124876 0.139553 3.4686)
(0.0796013 0.137548 3.70692)
(0.0085899 0.128401 3.94952)
(-0.0819387 0.0756875 3.71491)
(0.273832 0.0368926 2.95997)
(0.226877 0.0684166 3.35678)
(0.198266 0.069474 3.19038)
(0.177217 0.0724131 3.0363)
(0.159519 0.0768776 2.97165)
(0.141878 0.0828578 3.01323)
(0.116254 0.0921033 3.17591)
(0.0755873 0.0998582 3.44394)
(0.0161179 0.101192 3.74291)
(-0.0561482 0.0587833 3.54817)
(0.250778 0.0197852 2.80901)
(0.204315 0.0485715 3.17242)
(0.179027 0.0485295 2.9772)
(0.160611 0.0482235 2.78414)
(0.147949 0.0490641 2.66503)
(0.137531 0.0539753 2.69389)
(0.114987 0.0660035 2.89541)
(0.0772597 0.0763596 3.2111)
(0.0238946 0.0776333 3.54353)
(-0.0405633 0.0356384 3.37514)
(0.237923 0.00245946 2.70883)
(0.186942 0.0314173 3.0678)
(0.163188 0.0339815 2.85649)
(0.147999 0.0347017 2.62772)
(0.140848 0.0358011 2.48077)
(0.137625 0.0406081 2.49517)
(0.115356 0.0497521 2.71832)
(0.078692 0.0554516 3.08136)
(0.0295487 0.0513455 3.43927)
(-0.0317777 0.00714324 3.27858)
(0.231057 -0.0167438 2.64664)
(0.175426 0.0129825 3.0317)
(0.153244 0.0196929 2.83516)
(0.140259 0.0249445 2.61948)
(0.132791 0.0295825 2.48103)
(0.126927 0.0343452 2.49769)
(0.106257 0.0360043 2.717)
(0.0745315 0.0326952 3.07129)
(0.0314892 0.0207603 3.42023)
(-0.0259053 -0.0267127 3.24648)
(0.226847 -0.0391878 2.61776)
(0.167944 -0.00892123 3.05935)
(0.14729 0.000840242 2.90464)
(0.135312 0.00914773 2.74305)
(0.124055 0.0151929 2.64784)
(0.111726 0.0178228 2.6834)
(0.0934916 0.0140572 2.87579)
(0.0683833 0.00346916 3.17278)
(0.0327033 -0.0152682 3.48388)
(-0.0192306 -0.0661672 3.27611)
(0.223897 -0.0694685 2.62252)
(0.164107 -0.0384986 3.15266)
(0.143877 -0.0262233 3.0497)
(0.131945 -0.0169034 2.93855)
(0.11881 -0.0113273 2.90286)
(0.103537 -0.0114566 2.95649)
(0.0861175 -0.0191551 3.11357)
(0.0652691 -0.0346966 3.36406)
(0.0355275 -0.059401 3.63297)
(-0.00938028 -0.11396 3.37181)
(0.215528 -0.116506 2.55317)
(0.161065 -0.0839814 3.20495)
(0.1412 -0.0679528 3.1884)
(0.128809 -0.0575738 3.12976)
(0.115565 -0.0531021 3.13811)
(0.100379 -0.0557529 3.20954)
(0.0844016 -0.0668992 3.34866)
(0.06662 -0.087195 3.56545)
(0.0423519 -0.118743 3.76724)
(0.00952264 -0.177386 3.43446)
(0.195049 -0.184673 1.86522)
(0.143004 -0.146103 2.57339)
(0.128813 -0.127864 2.67893)
(0.12066 -0.117953 2.7094)
(0.113451 -0.116026 2.77607)
(0.105236 -0.12202 2.87564)
(0.0969033 -0.136919 3.01175)
(0.0867763 -0.161938 3.19589)
(0.0721392 -0.200437 3.33834)
(0.0496617 -0.268991 3.06175)
(0.216921 0.264803 3.20554)
(0.179816 0.245479 3.81066)
(0.156462 0.235036 3.85004)
(0.137688 0.227556 3.82515)
(0.11794 0.220245 3.86944)
(0.0940365 0.206941 3.98562)
(0.0608235 0.184898 4.18123)
(0.00957686 0.15033 4.46837)
(-0.0729466 0.0913909 4.73744)
(-0.185081 -0.0200153 4.66032)
(0.193246 0.19012 3.65541)
(0.162418 0.167212 4.27605)
(0.143726 0.141938 4.19689)
(0.131161 0.12665 4.08341)
(0.119996 0.116445 4.06886)
(0.107303 0.105424 4.15465)
(0.086454 0.0914287 4.34789)
(0.0474434 0.0710673 4.65654)
(-0.0211625 0.039105 4.96296)
(-0.11144 -0.0489984 4.73287)
(0.180234 0.161081 3.54927)
(0.152082 0.128389 4.07453)
(0.137376 0.0980768 3.90357)
(0.126808 0.0796102 3.73347)
(0.118658 0.0672358 3.66875)
(0.112234 0.0571948 3.73223)
(0.0987189 0.0497407 3.95117)
(0.0675256 0.03781 4.30023)
(0.0122753 0.0151433 4.68052)
(-0.0597124 -0.0607876 4.49293)
(0.170208 0.14285 3.3787)
(0.141756 0.104605 3.84277)
(0.128629 0.0732052 3.62533)
(0.119501 0.053733 3.40493)
(0.115642 0.0396082 3.27071)
(0.117518 0.0289815 3.31408)
(0.109645 0.0256992 3.57118)
(0.0833662 0.0169802 3.98388)
(0.035863 -0.00530142 4.40965)
(-0.0266544 -0.0791427 4.25133)
(0.166208 0.129204 3.26421)
(0.134054 0.0866739 3.70479)
(0.121623 0.0561073 3.46111)
(0.114637 0.0382582 3.19976)
(0.115777 0.0258708 3.0402)
(0.126572 0.0162226 3.06438)
(0.1191 0.0118999 3.33337)
(0.0935385 0.000229697 3.79844)
(0.051488 -0.0264172 4.25664)
(-0.00544872 -0.100881 4.10481)
(0.169013 0.1171 3.19687)
(0.131358 0.0711508 3.6523)
(0.119044 0.04218 3.4199)
(0.113968 0.0274589 3.17402)
(0.115611 0.0195634 3.02547)
(0.12319 0.0134069 3.05299)
(0.115482 0.00249328 3.31643)
(0.0948785 -0.0167625 3.76755)
(0.059869 -0.0497418 4.21012)
(0.00893028 -0.126151 4.03704)
(0.179591 0.105592 3.17244)
(0.134795 0.0561104 3.68082)
(0.120373 0.0276611 3.48994)
(0.114897 0.0136712 3.3008)
(0.112999 0.00655883 3.19946)
(0.113019 -0.00049797 3.25101)
(0.107317 -0.0149213 3.49426)
(0.0936505 -0.0397305 3.87211)
(0.0662489 -0.0777005 4.26269)
(0.0216175 -0.155752 4.04029)
(0.19949 0.0909127 3.19041)
(0.146488 0.0381683 3.7901)
(0.127257 0.0096428 3.65367)
(0.118869 -0.00575172 3.51588)
(0.113968 -0.0155069 3.47909)
(0.110417 -0.0260585 3.55441)
(0.105782 -0.0438113 3.75938)
(0.0962392 -0.07248 4.0779)
(0.0740898 -0.114739 4.40989)
(0.0356916 -0.193687 4.11211)
(0.230238 0.0670037 3.12129)
(0.168684 0.0101683 3.84947)
(0.141986 -0.0184562 3.80684)
(0.128762 -0.0359318 3.72333)
(0.12117 -0.0497884 3.7315)
(0.116199 -0.0654586 3.8249)
(0.111996 -0.0885602 4.00493)
(0.104488 -0.122711 4.27717)
(0.086455 -0.170973 4.52063)
(0.0594017 -0.248943 4.12473)
(0.281506 0.0308055 2.36503)
(0.205371 -0.03184 3.12712)
(0.171108 -0.0649798 3.20339)
(0.153425 -0.0861459 3.2063)
(0.145115 -0.105506 3.26856)
(0.142312 -0.127876 3.38357)
(0.142484 -0.158454 3.55027)
(0.140476 -0.200238 3.77478)
(0.131474 -0.255624 3.94076)
(0.113421 -0.336553 3.5967)
(0.200575 0.561377 3.36755)
(0.151557 0.490801 4.30467)
(0.125144 0.449406 4.52537)
(0.0996495 0.411698 4.61418)
(0.0683837 0.375042 4.74301)
(0.0271934 0.334921 4.92365)
(-0.0253477 0.286978 5.17126)
(-0.0934308 0.22723 5.49787)
(-0.188242 0.145331 5.77443)
(-0.312839 0.0325485 5.66212)
(0.211449 0.497457 4.05199)
(0.191079 0.421921 4.94864)
(0.174404 0.366865 4.98346)
(0.154252 0.323689 4.92774)
(0.127447 0.286968 4.95764)
(0.0926601 0.250902 5.08534)
(0.0476221 0.212303 5.32534)
(-0.0125323 0.167097 5.68228)
(-0.0935584 0.109766 6.00788)
(-0.189187 0.00891929 5.71985)
(0.23312 0.475168 4.02169)
(0.219 0.391875 4.77674)
(0.207282 0.332538 4.67804)
(0.187446 0.286094 4.53348)
(0.160302 0.247882 4.4878)
(0.128112 0.212471 4.5748)
(0.086647 0.179313 4.84362)
(0.0301554 0.141382 5.25532)
(-0.0415062 0.0920418 5.67867)
(-0.120688 -0.0029587 5.44471)
(0.256532 0.456744 3.88887)
(0.240151 0.370629 4.54116)
(0.22829 0.310433 4.3666)
(0.207742 0.26375 4.1511)
(0.182263 0.22552 4.01279)
(0.155614 0.18879 4.06932)
(0.117659 0.153276 4.36998)
(0.0626782 0.115481 4.86313)
(-0.00515434 0.0659583 5.34795)
(-0.0793797 -0.0279494 5.15304)
(0.284938 0.438617 3.81027)
(0.261008 0.348966 4.40457)
(0.246531 0.288675 4.18175)
(0.226197 0.244923 3.91096)
(0.205855 0.213267 3.74628)
(0.189227 0.177626 3.79721)
(0.145046 0.130562 4.08186)
(0.0859031 0.0858074 4.62257)
(0.0209319 0.033403 5.14806)
(-0.050488 -0.0583647 4.96297)
(0.315604 0.419299 3.78327)
(0.283061 0.324671 4.365)
(0.265555 0.262831 4.13754)
(0.244697 0.218233 3.87734)
(0.223625 0.185452 3.72127)
(0.200182 0.150251 3.76626)
(0.151359 0.0994687 4.04926)
(0.09657 0.0505594 4.56867)
(0.038173 -0.00411747 5.07034)
(-0.028189 -0.0924895 4.85896)
(0.349465 0.398134 3.80741)
(0.306977 0.297989 4.42102)
(0.284141 0.232416 4.2234)
(0.258322 0.181878 4.01273)
(0.228743 0.141413 3.90448)
(0.193913 0.102131 3.96024)
(0.149273 0.0565747 4.23662)
(0.102844 0.00805803 4.66862)
(0.0527346 -0.0457147 5.10539)
(-0.00725474 -0.129152 4.83232)
(0.38826 0.370499 3.88438)
(0.334168 0.267284 4.57414)
(0.303747 0.198706 4.42412)
(0.270729 0.142574 4.25749)
(0.233874 0.095423 4.2085)
(0.193865 0.0522168 4.28792)
(0.152539 0.00788429 4.51926)
(0.111828 -0.0398337 4.88102)
(0.0681683 -0.0922863 5.24393)
(0.0149833 -0.170346 4.87845)
(0.43966 0.332437 3.86885)
(0.366038 0.227476 4.67361)
(0.324689 0.156275 4.61632)
(0.284721 0.0961862 4.49905)
(0.243576 0.044327 4.48831)
(0.202271 -0.00221999 4.57947)
(0.16274 -0.048198 4.77439)
(0.125159 -0.0966041 5.07464)
(0.08632 -0.150021 5.32865)
(0.0430881 -0.224582 4.84721)
(0.533313 0.296232 3.14631)
(0.427086 0.182965 3.94333)
(0.368801 0.100998 3.9931)
(0.320372 0.0352705 3.95138)
(0.275377 -0.0204621 3.97986)
(0.233914 -0.0696272 4.07626)
(0.196375 -0.117279 4.23919)
(0.160625 -0.166896 4.47231)
(0.124144 -0.223725 4.63212)
(0.0808164 -0.301252 4.20956)
(-0.0620854 0.728294 3.48299)
(-0.101427 0.63185 4.71044)
(-0.12295 0.555165 5.09658)
(-0.139696 0.481288 5.30174)
(-0.154929 0.408825 5.51805)
(-0.173403 0.336888 5.7613)
(-0.196822 0.265735 6.04835)
(-0.229223 0.195116 6.38419)
(-0.280759 0.120865 6.61127)
(-0.356939 0.0484832 6.3433)
(0.00774857 0.610227 4.45463)
(-0.0272494 0.53254 5.59688)
(-0.0486356 0.466408 5.74132)
(-0.0646252 0.399096 5.75053)
(-0.0797433 0.331574 5.82728)
(-0.0959147 0.264765 5.99241)
(-0.115963 0.200671 6.26718)
(-0.145115 0.139783 6.64778)
(-0.189211 0.0823156 6.95066)
(-0.247627 0.00828887 6.52287)
(0.0634206 0.556196 4.53033)
(0.0221086 0.482524 5.49508)
(-0.000946713 0.421723 5.46942)
(-0.02019 0.358216 5.35978)
(-0.0394019 0.294075 5.33833)
(-0.0559597 0.230054 5.44719)
(-0.0727011 0.17092 5.75405)
(-0.0987536 0.114869 6.20262)
(-0.134523 0.0615769 6.62658)
(-0.178148 -0.0126293 6.28085)
(0.112994 0.514125 4.45226)
(0.0688264 0.441203 5.27752)
(0.0434147 0.383055 5.14931)
(0.0196084 0.324081 4.94853)
(-0.00504382 0.264414 4.81374)
(-0.0232186 0.200756 4.8888)
(-0.0322072 0.141867 5.21736)
(-0.0563601 0.0870061 5.76675)
(-0.0899861 0.0336422 6.2696)
(-0.129765 -0.0413729 5.98236)
(0.162175 0.473008 4.42465)
(0.114288 0.400229 5.16098)
(0.086754 0.344368 4.96259)
(0.0602875 0.291721 4.68978)
(0.0322874 0.243303 4.53433)
(0.0208518 0.18454 4.63221)
(0.0102614 0.113011 4.90491)
(-0.0189473 0.055223 5.48921)
(-0.0529768 0.0019697 6.042)
(-0.092501 -0.0697763 5.77553)
(0.208851 0.430189 4.45496)
(0.156927 0.357799 5.15342)
(0.128714 0.302931 4.93307)
(0.104338 0.251309 4.66375)
(0.0814103 0.203171 4.50547)
(0.0658487 0.149228 4.57151)
(0.0397327 0.078242 4.86486)
(0.0080767 0.0207856 5.42475)
(-0.0251757 -0.030505 5.94584)
(-0.0641602 -0.0960904 5.65279)
(0.252349 0.383788 4.54656)
(0.195581 0.312336 5.25781)
(0.165215 0.257693 5.05389)
(0.140376 0.203142 4.82246)
(0.115569 0.15006 4.70761)
(0.0898402 0.0954883 4.76732)
(0.0588228 0.0368949 5.06584)
(0.0270782 -0.0155029 5.52789)
(-0.0049695 -0.061683 5.97477)
(-0.0434727 -0.11847 5.61204)
(0.290618 0.328289 4.70067)
(0.229413 0.260577 5.47382)
(0.195438 0.208705 5.31252)
(0.166599 0.154617 5.11651)
(0.136784 0.100286 5.05017)
(0.105047 0.0472712 5.12794)
(0.0720026 -0.00381748 5.37415)
(0.0397382 -0.0505727 5.75824)
(0.00717881 -0.0913221 6.11855)
(-0.0315587 -0.138501 5.64999)
(0.321935 0.259173 4.74913)
(0.258022 0.198078 5.62291)
(0.218981 0.152368 5.56058)
(0.185231 0.10344 5.41376)
(0.15061 0.0527192 5.379)
(0.114778 0.00349119 5.45799)
(0.0788831 -0.0432443 5.65569)
(0.0435962 -0.086233 5.9634)
(0.00789825 -0.124293 6.19404)
(-0.0316537 -0.163196 5.59534)
(0.339803 0.173732 4.06628)
(0.277934 0.12846 4.89394)
(0.236584 0.0879084 4.94372)
(0.198232 0.0459263 4.87426)
(0.158597 0.00105839 4.8743)
(0.118092 -0.0430111 4.94792)
(0.0771411 -0.0857673 5.09553)
(0.034798 -0.126228 5.31483)
(-0.0102069 -0.16385 5.43117)
(-0.0661325 -0.199754 4.89763)
(-0.0684824 0.676257 3.90836)
(-0.117824 0.654699 5.23429)
(-0.146642 0.634125 5.67835)
(-0.164904 0.595552 5.93134)
(-0.177306 0.541266 6.18943)
(-0.190957 0.478212 6.46014)
(-0.207122 0.411229 6.74561)
(-0.229408 0.344144 7.05116)
(-0.26868 0.278451 7.1801)
(-0.337684 0.247855 6.69568)
(-0.0535576 0.6159 5.07471)
(-0.0736659 0.613738 6.32759)
(-0.0900031 0.602118 6.52661)
(-0.105868 0.562372 6.57299)
(-0.123325 0.503934 6.68298)
(-0.143424 0.436396 6.87366)
(-0.165293 0.3666 7.15309)
(-0.190328 0.299234 7.51905)
(-0.219898 0.236311 7.74277)
(-0.264054 0.182234 7.1059)
(-0.00493007 0.585708 5.25501)
(-0.0288729 0.594154 6.31148)
(-0.0471271 0.586818 6.32768)
(-0.0694 0.545667 6.24297)
(-0.0974123 0.485105 6.24338)
(-0.127184 0.414979 6.37051)
(-0.15406 0.343305 6.68974)
(-0.182073 0.27404 7.14092)
(-0.20654 0.208619 7.50782)
(-0.235469 0.14111 6.9698)
(0.0556002 0.543367 5.24193)
(0.0236608 0.555023 6.1404)
(-0.000571425 0.548862 6.04111)
(-0.0319974 0.510412 5.85554)
(-0.0730505 0.45361 5.73497)
(-0.115713 0.382744 5.83174)
(-0.13867 0.303666 6.15654)
(-0.168352 0.230256 6.7139)
(-0.193867 0.162839 7.17075)
(-0.220919 0.0906236 6.70755)
(0.115844 0.486989 5.27104)
(0.0777262 0.497327 6.06491)
(0.0478871 0.490344 5.88374)
(0.00876477 0.457411 5.61768)
(-0.044407 0.41542 5.4963)
(-0.0892175 0.354188 5.66438)
(-0.113864 0.251599 5.86663)
(-0.149537 0.171832 6.43793)
(-0.178655 0.107592 6.94415)
(-0.207632 0.0403521 6.50466)
(0.165996 0.420178 5.35833)
(0.124641 0.426578 6.10327)
(0.092563 0.415813 5.89081)
(0.0528539 0.381307 5.62107)
(0.00428444 0.334379 5.47873)
(-0.0422491 0.27273 5.56939)
(-0.0885258 0.177514 5.83157)
(-0.131893 0.106548 6.3796)
(-0.164801 0.0509585 6.84279)
(-0.195937 -0.00571449 6.3671)
(0.200594 0.344541 5.51211)
(0.157314 0.3468 6.26241)
(0.124046 0.330437 6.059)
(0.0836762 0.2903 5.8132)
(0.0350372 0.236122 5.69462)
(-0.0182785 0.17171 5.75394)
(-0.0733533 0.100667 6.04315)
(-0.121713 0.0432936 6.4877)
(-0.156894 -6.43375e-05 6.86093)
(-0.189335 -0.0434835 6.29361)
(0.215388 0.257622 5.73123)
(0.171423 0.258765 6.53607)
(0.136877 0.239632 6.37527)
(0.0939064 0.198861 6.15774)
(0.0419449 0.145867 6.07352)
(-0.0154037 0.0883341 6.13976)
(-0.072897 0.0336696 6.36723)
(-0.122715 -0.010449 6.7194)
(-0.158568 -0.0418956 6.98212)