/*--------------------------------*- C++ -*----------------------------------*\
| =========                 |                                                 |
| \\      /  F ield         | OpenFOAM: The Open Source CFD Toolbox           |
|  \\    /   O peration     | Version:  2406                                  |
|   \\  /    A nd           | Website:  www.openfoam.com                      |
|    \\/     M anipulation  |                                                 |
\*---------------------------------------------------------------------------*/
FoamFile
{
    version     2.0;
    format      ascii;
    arch        "LSB;label=32;scalar=64";
    class       volScalarField;
    location    "0.6";
    object      nu;
}
// * * * * * * * * * * * * * * * * * * * * * * * * * * * * * * * * * * * * * //

dimensions      [0 2 -1 0 0 0 0];

internalField   nonuniform List<scalar> 
25000
(
0.00648171
0.0065543
0.00658584
0.00659198
0.00659001
0.00658983
0.00659152
0.00658519
0.00655348
0.00648165
0.00655424
0.0065799
0.00656711
0.00655325
0.00654567
0.00654546
0.00655269
0.00656629
0.00657872
0.00655369
0.00658568
0.00656696
0.0065415
0.00652625
0.00651994
0.00651973
0.00652571
0.00654073
0.00656584
0.00658485
0.00659173
0.00655301
0.00652616
0.00651393
0.00651008
0.00650988
0.00651343
0.00652547
0.00655199
0.00659089
0.00658977
0.00654545
0.00651987
0.0065101
0.00650786
0.00650768
0.00650965
0.00651925
0.00654453
0.006589
0.00658965
0.00654531
0.00651974
0.00650997
0.00650774
0.00650758
0.00650955
0.00651918
0.00654447
0.00658896
0.00659136
0.00655256
0.00652573
0.00651352
0.00650969
0.00650955
0.00651315
0.00652522
0.0065518
0.0065908
0.00658504
0.00656612
0.00654072
0.0065255
0.00651924
0.00651912
0.00652517
0.00654028
0.00656546
0.00658467
0.00655339
0.00657852
0.00656577
0.00655198
0.00654449
0.00654438
0.00655172
0.00656543
0.00657799
0.00655329
0.00648144
0.00655341
0.00658479
0.00659092
0.00658901
0.00658896
0.0065908
0.00658473
0.00655338
0.00648184
0.00614
0.00631122
0.00652167
0.00668737
0.0067745
0.00677536
0.00669013
0.00652637
0.00631684
0.00614555
0.00631151
0.00667885
0.00693967
0.00704752
0.00707493
0.00707439
0.00704685
0.00694129
0.00668355
0.00631668
0.00652195
0.00693934
0.00709651
0.00708029
0.00705004
0.00704899
0.00707761
0.00709426
0.00694108
0.00652601
0.00668721
0.007047
0.00708029
0.00701032
0.00696619
0.00696522
0.00700767
0.007077
0.0070462
0.00668991
0.0067738
0.00707487
0.00705065
0.00696669
0.00692068
0.00691982
0.00696431
0.00704743
0.00707309
0.00677555
0.00677395
0.00707489
0.00705041
0.0069664
0.00692042
0.00691963
0.00696421
0.00704743
0.00707315
0.00677546
0.00668767
0.00704708
0.00707955
0.00700938
0.00696537
0.00696464
0.00700737
0.00707698
0.00704625
0.00668956
0.00652274
0.0069396
0.00709534
0.00707861
0.00704855
0.00704795
0.00707705
0.00709402
0.00694062
0.00652517
0.00631261
0.00667948
0.00693889
0.00704566
0.00707296
0.00707284
0.00704572
0.00694024
0.00668225
0.00631536
0.00614136
0.00631228
0.00652206
0.0066869
0.00677343
0.00677404
0.00668871
0.00652485
0.00631531
0.00614411
0.00580967
0.00587838
0.00601157
0.0061367
0.00621339
0.00621718
0.00614695
0.00602575
0.00589382
0.00582459
0.00587948
0.006115
0.00635828
0.00655191
0.00666162
0.0066659
0.00656358
0.00637426
0.00613156
0.00589388
0.00601329
0.0063587
0.0067077
0.00697009
0.00710341
0.00710748
0.00698194
0.00672437
0.00637513
0.00602628
0.00613761
0.00655128
0.00696888
0.00725964
0.00738147
0.00738436
0.00726939
0.0069842
0.00656629
0.00614875
0.00621157
0.00665792
0.00709913
0.00737888
0.00747557
0.00747766
0.00738655
0.0071125
0.0066713
0.00622114
0.00621117
0.00665755
0.00709862
0.00737808
0.00747461
0.00747669
0.00738555
0.00711133
0.00667008
0.00622003
0.00613677
0.00655058
0.00696792
0.00725795
0.00737922
0.00738192
0.00726661
0.00698092
0.00656293
0.00614569
0.00601277
0.00635849
0.00670742
0.00696911
0.00710148
0.00710469
0.0069782
0.00671984
0.0063704
0.0060219
0.00587979
0.00611567
0.00635906
0.00655215
0.00666075
0.00666362
0.00655991
0.00636956
0.0061264
0.00588887
0.00581094
0.00587997
0.00601329
0.00613791
0.00621346
0.00621573
0.00614403
0.00602171
0.00588911
0.0058197
0.00577673
0.00580842
0.00590919
0.00601019
0.00607546
0.00608174
0.00602699
0.0059321
0.00583315
0.00579978
0.00580991
0.0059883
0.00618483
0.00635314
0.00645775
0.00646599
0.00637444
0.0062123
0.00601597
0.00583353
0.00591125
0.00618492
0.00648626
0.0067578
0.00693586
0.00694785
0.00678624
0.00651888
0.00621423
0.00593378
0.00601025
0.00635041
0.00675383
0.00717334
0.00750194
0.0075226
0.00721322
0.00679146
0.00638008
0.00603107
0.00606989
0.00644765
0.00692086
0.00748394
0.00804659
0.00808497
0.00753677
0.00696167
0.00647693
0.00608936
0.00606772
0.00644544
0.00691812
0.00747942
0.00803747
0.0080742
0.0075304
0.00695774
0.00647408
0.00608702
0.00600474
0.00634505
0.006748
0.00716578
0.007491
0.00750955
0.00720186
0.00678248
0.00637278
0.00602484
0.00590427
0.00617875
0.00648075
0.00675244
0.00692955
0.00693969
0.00677673
0.00650914
0.00620499
0.0059253
0.00580293
0.00598268
0.00618085
0.00635032
0.00645479
0.00646143
0.00636771
0.00620388
0.00600675
0.00582441
0.00577019
0.00580385
0.00590682
0.00600927
0.00607462
0.00607951
0.00602261
0.00592567
0.00582523
0.00579132
0.00574881
0.00576272
0.00584722
0.0059355
0.0059947
0.00600314
0.00595801
0.00587765
0.00579504
0.00577761
0.00576376
0.00591534
0.006088
0.00623993
0.00633869
0.00635066
0.00627058
0.00612696
0.00595387
0.00579562
0.00584735
0.00608611
0.00635646
0.00661267
0.00679518
0.006815
0.00665783
0.00640632
0.00612984
0.00588036
0.0059307
0.0062309
0.00660256
0.00702726
0.00742487
0.00747049
0.00710103
0.00666581
0.00627891
0.00596418
0.0059795
0.00631514
0.00676131
0.00737979
0.00831275
0.00848033
0.00749832
0.00683653
0.00636631
0.00601377
0.00597351
0.00630835
0.00675249
0.00736379
0.00826301
0.00841833
0.00748058
0.00682828
0.00636094
0.00600964
0.00591439
0.00621325
0.00658216
0.00700051
0.00738674
0.00743068
0.00707396
0.00664756
0.00626534
0.00595322
0.0058242
0.00606265
0.00633302
0.00658916
0.00677132
0.00679147
0.00663606
0.00638689
0.00611282
0.00586551
0.00573679
0.00588964
0.00606525
0.00622074
0.0063223
0.00633525
0.00625458
0.00611009
0.00593688
0.00577961
0.00571993
0.00573694
0.00582643
0.00591983
0.00598281
0.00599262
0.00594667
0.00586456
0.00578041
0.00576272
0.00575723
0.00576555
0.00584499
0.00592912
0.0059869
0.00599767
0.00595802
0.00588433
0.00580761
0.00579404
0.0057652
0.00590707
0.00607103
0.00621702
0.00631496
0.00633134
0.00625891
0.00612401
0.00595901
0.00580714
0.00584048
0.00606527
0.00632266
0.00657164
0.0067573
0.00678667
0.00663769
0.00639425
0.00612681
0.0058858
0.00591521
0.00619741
0.00655203
0.00696922
0.00738597
0.00746173
0.00708529
0.00664817
0.00626826
0.00596325
0.00595694
0.00627147
0.00669699
0.00730694
0.00832311
0.00867085
0.00750553
0.006816
0.00634957
0.00600762
0.00594709
0.00625942
0.00668055
0.00727626
0.00821877
0.00851453
0.00747069
0.00680115
0.00634026
0.00600071
0.00588779
0.00616513
0.00651231
0.00691483
0.00730645
0.00737907
0.00703267
0.00661451
0.0062441
0.00594439
0.0058002
0.00602038
0.0062737
0.00651851
0.00670126
0.00673317
0.00659184
0.00635607
0.00609486
0.00585886
0.00571667
0.00585594
0.00602019
0.00616856
0.00627012
0.00629016
0.00622037
0.00608734
0.00592454
0.00577586
0.00570544
0.00571333
0.00579591
0.00588528
0.00594874
0.0059637
0.00592571
0.00585194
0.00577492
0.00576252
0.00573846
0.005748
0.00583163
0.00592093
0.00598463
0.00600162
0.00596739
0.00589718
0.00582172
0.00580785
0.00574533
0.00588582
0.00605163
0.00620196
0.00630712
0.00633234
0.0062671
0.00613568
0.00597092
0.00581825
0.00581866
0.00603946
0.00629551
0.00654747
0.00674411
0.00678924
0.00664892
0.0064059
0.00613598
0.00589323
0.00589147
0.00616618
0.00651446
0.00692979
0.00736432
0.00748309
0.00710772
0.00665993
0.00627337
0.00596617
0.00593242
0.00623602
0.00664903
0.00724319
0.00826086
0.00884154
0.00754419
0.00682414
0.00634893
0.00600556
0.00592389
0.00622321
0.00662857
0.00719984
0.0081
0.00851567
0.00747759
0.0067974
0.00633274
0.0059939
0.00586781
0.00613189
0.00646452
0.00685044
0.00723242
0.00732966
0.00700834
0.00659815
0.00623048
0.00593367
0.00578463
0.0059924
0.00623385
0.00646811
0.0066472
0.00668742
0.00655946
0.00633316
0.00607723
0.00584525
0.00570636
0.00583466
0.00598932
0.00612986
0.00622823
0.00625149
0.00618892
0.00606296
0.00590522
0.00576056
0.00570282
0.00570128
0.00577542
0.00585794
0.00591792
0.00593377
0.00589977
0.00583078
0.00575783
0.0057486
0.0057084
0.00572068
0.00581355
0.00591529
0.00599219
0.00601985
0.00599084
0.00591989
0.00583978
0.00581991
0.00571603
0.00585732
0.0060305
0.00619321
0.00631423
0.0063541
0.00629603
0.00616299
0.0059917
0.0058321
0.00579076
0.00601031
0.00627064
0.00653382
0.00675163
0.00682112
0.00668919
0.00643897
0.0061581
0.00590704
0.00586632
0.00613688
0.00648393
0.00690366
0.00736476
0.00754342
0.00716654
0.00669642
0.00629382
0.00597807
0.00591223
0.00620903
0.00661435
0.00719508
0.0081974
0.00906946
0.00761538
0.00685483
0.00636365
0.00601363
0.00591103
0.0062026
0.0065979
0.00714844
0.00799412
0.00848107
0.00749853
0.00681098
0.00633901
0.00599715
0.00586352
0.0061204
0.00644468
0.00681835
0.00718767
0.00729777
0.00699982
0.00659669
0.00622911
0.00593255
0.00578868
0.00599026
0.00622523
0.00645171
0.00662467
0.0066663
0.00654566
0.00632495
0.00607137
0.0058414
0.00571806
0.00584117
0.00599043
0.00612457
0.00621737
0.00623849
0.00617745
0.00605419
0.00589856
0.00575623
0.00572222
0.00571673
0.00578625
0.00586292
0.00591726
0.00592947
0.00589454
0.00582636
0.00575481
0.00574726
0.0056794
0.00568784
0.00578465
0.00589612
0.00598578
0.00602404
0.00599832
0.00592303
0.00583494
0.00580817
0.00568642
0.00582288
0.00599936
0.00617284
0.00631032
0.00636566
0.00631291
0.00617411
0.00599276
0.0058255
0.00576284
0.00597652
0.00623822
0.00651178
0.00675211
0.00684803
0.00672227
0.00645959
0.00616422
0.00590441
0.00584227
0.00610586
0.00645043
0.00687458
0.0073626
0.00760432
0.00722034
0.00672188
0.00630102
0.00597701
0.00589479
0.0061842
0.00658321
0.00715413
0.00814455
0.00930594
0.00766983
0.00687209
0.00636656
0.00601125
0.00590265
0.00618814
0.00657745
0.00711514
0.00792092
0.00841841
0.00749743
0.00681111
0.00633504
0.00599186
0.00586501
0.00611806
0.0064393
0.00680715
0.00716572
0.00727315
0.00698589
0.00658753
0.00622042
0.00592493
0.00579883
0.0059984
0.00623216
0.00645549
0.00662243
0.00665857
0.00653635
0.00631563
0.00606197
0.00583346
0.00573478
0.00585673
0.00600546
0.00613719
0.00622513
0.00624064
0.00617534
0.00604936
0.00589205
0.00575025
0.00574303
0.00573762
0.00580759
0.00588271
0.00593311
0.00594016
0.00590045
0.00582851
0.0057542
0.00574543
0.00567191
0.00567086
0.00576216
0.005873
0.00596651
0.00600967
0.00598504
0.00590619
0.00581346
0.00578486
0.00567748
0.00580326
0.00597392
0.00614742
0.00629128
0.0063553
0.0063055
0.00616214
0.00597484
0.00580604
0.00575642
0.0059587
0.00621326
0.00648593
0.00673567
0.0068486
0.00672793
0.00645624
0.00615185
0.00588999
0.00584061
0.0060932
0.00642913
0.00684806
0.00734392
0.00762531
0.00724058
0.0067231
0.00629126
0.00596566
0.00589989
0.00618011
0.00657078
0.00713117
0.00810592
0.00942459
0.00768241
0.00686579
0.00635386
0.00599918
0.00591584
0.00619536
0.00658008
0.00711225
0.00790453
0.00838363
0.00747681
0.00679284
0.00631663
0.00597613
0.00588599
0.00613628
0.0064567
0.00682363
0.00717569
0.00726648
0.00696823
0.00656616
0.00619811
0.00590493
0.00582551
0.00602413
0.00625828
0.00648056
0.00664081
0.00666361
0.00652762
0.0062974
0.00603882
0.00581023
0.00576442
0.00588571
0.0060348
0.00616513
0.0062471
0.00625176
0.00617357
0.0060359
0.00587022
0.00572527
0.00577226
0.00576699
0.00583798
0.0059124
0.00595821
0.00595616
0.00590442
0.00581993
0.0057349
0.00571975
0.00568044
0.00567097
0.00575248
0.00585481
0.00594294
0.00598444
0.0059604
0.00588303
0.00579315
0.00577015
0.00568358
0.00579904
0.0059591
0.00612329
0.00626137
0.00632444
0.00627625
0.00613449
0.00595024
0.0057887
0.0057653
0.00595638
0.00619919
0.00646041
0.00670212
0.00681538
0.0066994
0.00642933
0.00612735
0.00587283
0.00585506
0.00609742
0.00642196
0.0068269
0.00730659
0.007585
0.00721182
0.0066958
0.00626605
0.00594781
0.00592134
0.00619399
0.00657689
0.00712725
0.00808259
0.00931558
0.00763965
0.00683111
0.00632382
0.00597738
0.00594419
0.00621973
0.00660255
0.00713662
0.0079412
0.00837182
0.00743103
0.00675059
0.00627963
0.00594764
0.00591926
0.00616837
0.00649001
0.00685937
0.00720625
0.00726396
0.00693516
0.00652362
0.00615601
0.00586958
0.00586053
0.00605889
0.00629376
0.00651444
0.00666406
0.00666371
0.00650329
0.00625792
0.00599449
0.00576979
0.00579838
0.0059191
0.00606748
0.00619413
0.00626562
0.00625225
0.00615372
0.00599994
0.00582609
0.00568221
0.00580276
0.00579723
0.00586707
0.00593776
0.00597452
0.00595752
0.0058881
0.00578812
0.00569327
0.0056766
0.00569056
0.00567923
0.00575464
0.00584898
0.00592959
0.00596709
0.00594413
0.00587165
0.00578874
0.00577444
0.00569068
0.00580234
0.00595487
0.00610896
0.00623664
0.00629353
0.00624642
0.00611089
0.00593565
0.00578577
0.00577453
0.00596083
0.00619499
0.00644323
0.00666854
0.00677018
0.00665702
0.00639693
0.00610611
0.00586451
0.00586968
0.00610815
0.00642547
0.00681689
0.00727004
0.00751192
0.00715181
0.00665463
0.00623853
0.00593392
0.00594282
0.00621412
0.00659535
0.00714398
0.00809494
0.00907959
0.0075553
0.00677987
0.00628869
0.00595681
0.00597144
0.00624864
0.0066363
0.00718434
0.00803202
0.00835659
0.00736228
0.00669501
0.00623793
0.00592062
0.00594859
0.00620097
0.00652852
0.00690491
0.00724536
0.0072526
0.00688692
0.00647113
0.00611151
0.00583856
0.00588757
0.00608894
0.00632659
0.00654537
0.0066799
0.00665042
0.00646545
0.00621087
0.00595097
0.00573812
0.00582043
0.00594349
0.00609172
0.00621306
0.00627087
0.00623769
0.00612169
0.0059592
0.0057867
0.00565306
0.00581962
0.0058165
0.00588496
0.00595012
0.00597579
0.00594421
0.005862
0.00575539
0.00566132
0.005653
0.00569445
0.00568537
0.00576051
0.00585225
0.00592893
0.00596399
0.00594262
0.00587556
0.00580018
0.00579491
0.00569075
0.00580295
0.00595371
0.00610307
0.00622353
0.006275
0.00622904
0.00610081
0.00593619
0.00579884
0.00577434
0.00596067
0.0061924
0.00643358
0.00664524
0.00673342
0.00662121
0.00637354
0.00609747
0.00587073
0.00587245
0.00611223
0.00642952
0.00681551
0.00724678
0.00744166
0.00708922
0.00661772
0.00622151
0.00593363
0.00595027
0.00622562
0.00661358
0.00717388
0.00814567
0.00882678
0.00745987
0.00673191
0.00626474
0.00595112
0.00598239
0.00626618
0.00666671
0.00724201
0.00815544
0.00829522
0.00728549
0.00664635
0.00621102
0.00591233
0.00595903
0.00621834
0.00655692
0.00694441
0.00727394
0.00722429
0.00683649
0.00642962
0.00608632
0.00583125
0.00589345
0.00610018
0.0063432
0.00656116
0.00668013
0.00662646
0.00642925
0.00617808
0.00593076
0.00573471
0.0058206
0.00594783
0.00609776
0.00621538
0.00626249
0.00621707
0.00609526
0.00593598
0.00577396
0.00565559
0.00581633
0.00581749
0.00588643
0.00594829
0.00596717
0.0059292
0.00584537
0.00574329
0.00565867
0.00566354
0.00569622
0.0056886
0.00576556
0.00585793
0.0059336
0.00596756
0.00594753
0.00588503
0.00581649
0.00581911
0.0056879
0.0058004
0.00595211
0.006101
0.00621826
0.00626629
0.00622138
0.00609994
0.00594564
0.0058198
0.00576805
0.00595495
0.00618789
0.00642774
0.00663133
0.00670862
0.00659695
0.00636184
0.00610133
0.00588911
0.0058646
0.0061065
0.00642786
0.00681567
0.00723322
0.00738643
0.00704092
0.00659617
0.00622159
0.0059503
0.00594206
0.00622192
0.00662004
0.00719888
0.00820119
0.00862208
0.00738658
0.00670555
0.00626353
0.00596761
0.00597333
0.00626331
0.00667832
0.00728384
0.00826189
0.00821801
0.00723179
0.00662463
0.00621193
0.00593081
0.00594705
0.00621198
0.00656179
0.00696123
0.00728192
0.00719513
0.00680664
0.00641662
0.00609169
0.00585331
0.00587727
0.0060877
0.00633668
0.00655725
0.00666914
0.00660692
0.00641251
0.00617333
0.00594141
0.00576087
0.00580172
0.00593178
0.00608537
0.00620461
0.00625034
0.00620492
0.00608863
0.00593979
0.00579082
0.00568605
0.00579817
0.00580288
0.00587544
0.00593979
0.00596028
0.00592556
0.00584855
0.0057563
0.00568293
0.00569889
0.00570442
0.00569418
0.00577052
0.00586221
0.00593556
0.00596618
0.00594424
0.00588278
0.00581781
0.00582407
0.00569218
0.00580065
0.00595156
0.00609976
0.00621352
0.0062565
0.00620984
0.0060922
0.00594532
0.00582744
0.00576773
0.00595087
0.00618417
0.00642399
0.00662097
0.00668731
0.00657458
0.00635014
0.00610332
0.00590315
0.00585932
0.00609853
0.00642287
0.00681437
0.0072218
0.00734171
0.00700498
0.00658507
0.00623009
0.00597291
0.00593125
0.00620954
0.00661394
0.00720747
0.00822667
0.00848296
0.0073468
0.00670299
0.00628141
0.0059994
0.00595673
0.00624528
0.0066673
0.00729106
0.00830485
0.00817506
0.00721843
0.00663501
0.00623901
0.00597051
0.00592537
0.00618792
0.00654217
0.00694985
0.00727297
0.00718414
0.00680948
0.00643583
0.00612507
0.00589838
0.00585286
0.00606005
0.00631171
0.00653823
0.00665618
0.00660296
0.00642198
0.00619718
0.00597838
0.00580896
0.00577829
0.00590552
0.00606194
0.00618765
0.00624186
0.00620731
0.0061039
0.00596819
0.00583122
0.00573627
0.00577938
0.00578329
0.00585973
0.00593089
0.00596023
0.00593613
0.00587103
0.00579069
0.00572813
0.00575149
0.00572734
0.00571105
0.00578239
0.00586843
0.00593366
0.00595373
0.00592117
0.00585132
0.00578058
0.00578178
0.00571236
0.00581362
0.00595912
0.00610133
0.00620542
0.0062359
0.00617901
0.0060566
0.00590894
0.00579082
0.0057845
0.00596026
0.00618905
0.00642351
0.00660777
0.00665637
0.00653576
0.0063152
0.00607545
0.00588036
0.0058709
0.00610301
0.00642464
0.00681366
0.00720381
0.00729094
0.00696196
0.00656152
0.00622005
0.00597049
0.00593532
0.00620604
0.00660815
0.00720295
0.00820271
0.00837836
0.00732428
0.00670526
0.00629529
0.00601972
0.00595227
0.00623177
0.0066489
0.00727063
0.00828549
0.00819035
0.00724125
0.00666469
0.00627437
0.00600987
0.0059145
0.0061668
0.00651497
0.00692258
0.00725943
0.00720061
0.0068443
0.00647919
0.00617344
0.00594985
0.00584003
0.00603731
0.00628495
0.00651631
0.00664996
0.00661936
0.00645763
0.00624488
0.00603302
0.00586707
0.00576832
0.00588747
0.00604276
0.00617557
0.00624435
0.00622836
0.0061423
0.00601941
0.00589059
0.00579903
0.00577561
0.00577447
0.00585214
0.00593082
0.0059732
0.0059651
0.00591557
0.0058477
0.00579353
0.00581876
0.00577335
0.00575055
0.00581384
0.00588924
0.00593932
0.00594046
0.00588912
0.00580491
0.00572594
0.005725
0.00575565
0.00584817
0.00598473
0.00611526
0.0062017
0.00621
0.00613326
0.00599855
0.00584641
0.00572954
0.00582498
0.00599125
0.00621151
0.0064343
0.00659687
0.00661675
0.00647739
0.00625208
0.00601486
0.00582475
0.00590691
0.00612945
0.00644369
0.00682318
0.00718565
0.00722946
0.00689727
0.00650811
0.0061756
0.00593212
0.0059635
0.00622347
0.00661681
0.00720252
0.00816399
0.00827891
0.00728855
0.00668509
0.00628053
0.00600772
0.00597069
0.00623717
0.00664101
0.00724763
0.00825745
0.00825969
0.00727589
0.00668723
0.00629195
0.00602497
0.00592536
0.00616352
0.00649825
0.00689882
0.00725499
0.0072423
0.00689706
0.006526
0.00621338
0.0059847
0.00584839
0.00603265
0.00627121
0.00650442
0.0066568
0.00665387
0.00650915
0.00629933
0.0060841
0.00591299
0.00577919
0.0058881
0.00603907
0.00617736
0.00626175
0.00626565
0.00619457
0.00607747
0.00594767
0.00585082
0.00579158
0.00578398
0.00586072
0.00594571
0.00600131
0.00600923
0.00597238
0.00591001
0.0058544
0.00587204
0.00583232
0.00580834
0.00586536
0.00592982
0.00596341
0.00594533
0.00587788
0.00578515
0.00570609
0.00571326
0.00581291
0.00590227
0.00603183
0.00614967
0.00621515
0.00619811
0.00610106
0.00595715
0.00580706
0.00570079
0.00588001
0.00604243
0.00625635
0.00646616
0.00660147
0.00658548
0.00642276
0.00619241
0.0059621
0.00578479
0.00595797
0.0061765
0.00648609
0.00685625
0.00718466
0.00716922
0.00682247
0.00644168
0.00612129
0.00589055
0.0060071
0.00626137
0.00664897
0.00723043
0.00816842
0.00816142
0.00722192
0.00663604
0.00624036
0.00597559
0.00600474
0.00626247
0.0066553
0.00725172
0.00828517
0.00833152
0.00728235
0.00667669
0.00627566
0.00600833
0.00595173
0.00617933
0.00650175
0.00689513
0.0072685
0.00728923
0.00693482
0.00654317
0.00621586
0.00597962
0.00587131
0.00604567
0.0062754
0.00650797
0.0066734
0.00668814
0.00654565
0.00632313
0.00609259
0.00590976
0.00580247
0.00590393
0.00605022
0.0061907
0.00628406
0.00629709
0.00622595
0.00609778
0.00595232
0.00584083
0.00581614
0.00580411
0.00587914
0.00596687
0.00602834
0.00604005
0.00599865
0.00592216
0.00584742
0.00584689
0.00589285
0.00587275
0.00592735
0.00598425
0.00600475
0.00597196
0.00589378
0.00579733
0.00572149
0.00573811
0.00587201
0.00596349
0.00609013
0.00619869
0.00624623
0.00620805
0.00609618
0.00594837
0.00580479
0.00571213
0.00593687
0.00610068
0.00631238
0.0065124
0.00662213
0.00657322
0.00639155
0.00616043
0.00594143
0.005781
0.00601155
0.00623127
0.00654089
0.00690603
0.0072001
0.00712168
0.00675994
0.00638955
0.00608624
0.00587427
0.00605443
0.00630849
0.00669686
0.00728621
0.00822208
0.00802679
0.00713614
0.00657686
0.00619945
0.00595203
0.00604314
0.00629793
0.0066877
0.00729045
0.00839464
0.00831545
0.00723271
0.00663029
0.00623722
0.00598171
0.00598087
0.00620367
0.00652026
0.00691166
0.007293
0.00730417
0.00692023
0.00651137
0.00618001
0.00594901
0.00589271
0.00606242
0.00628697
0.00651725
0.00668305
0.00669252
0.00653299
0.00629271
0.00605308
0.00587095
0.00581807
0.00591699
0.00606009
0.00619872
0.00628942
0.00629406
0.00620691
0.0060613
0.00590475
0.0057912
0.00582684
0.00581475
0.00588832
0.00597444
0.00603139
0.006032
0.00597282
0.00587766
0.00579022
0.00578626
0.00589727
0.00589144
0.00595465
0.006015
0.00603289
0.00599389
0.00591036
0.00581223
0.0057387
0.00576152
0.00588786
0.00599074
0.00612282
0.00623137
0.00627131
0.00622215
0.00610313
0.00595544
0.00581868
0.00573572
0.0059618
0.00613424
0.00634973
0.00654707
0.00664091
0.00657125
0.00638008
0.00615273
0.00594595
0.00579954
0.00604366
0.00627015
0.00658452
0.00695031
0.00721752
0.00709001
0.00672162
0.00636435
0.00607956
0.00588559
0.00608908
0.00634823
0.00674366
0.0073527
0.00830388
0.00790806
0.00706392
0.0065357
0.00618219
0.0059555
0.00607415
0.00633151
0.00672574
0.00734855
0.00853428
0.00818265
0.00715479
0.00658237
0.00621233
0.0059781
0.00600356
0.00622658
0.00654235
0.00693331
0.00730241
0.00726576
0.00686588
0.00646514
0.00615066
0.00593984
0.00590601
0.0060752
0.00629655
0.00652133
0.00667454
0.00666427
0.00649024
0.00624984
0.00602218
0.00585892
0.00582395
0.00592383
0.00606398
0.00619711
0.00627779
0.00626881
0.00617084
0.00602394
0.00587697
0.00578075
0.00582875
0.00581936
0.00589075
0.00597229
0.00602106
0.0060111
0.00594415
0.00584923
0.00577119
0.00578343
0.00582537
0.0058352
0.00591504
0.00599141
0.0060216
0.00598983
0.00591085
0.00581698
0.00574885
0.00577798
0.00583348
0.00595046
0.00609561
0.00621635
0.00626453
0.0062196
0.00610444
0.00596247
0.00583315
0.00575856
0.00592692
0.00611025
0.00633482
0.00653946
0.00663409
0.00656234
0.00637462
0.00615682
0.00596167
0.00582663
0.00603008
0.00626481
0.00658674
0.00695873
0.0072141
0.00706348
0.00670149
0.00636121
0.00609371
0.00591433
0.00609374
0.0063599
0.00676596
0.00740083
0.00837108
0.0078178
0.00701849
0.00652218
0.00619221
0.00598313
0.00608821
0.00635086
0.0067545
0.00740433
0.00863756
0.00802671
0.00709104
0.00656024
0.00621765
0.00600329
0.00601799
0.00624378
0.00656185
0.0069529
0.00729563
0.00720894
0.00681797
0.00644331
0.00615448
0.00596434
0.00591747
0.00608813
0.0063079
0.00652706
0.00666479
0.00663786
0.00646314
0.00623735
0.00603058
0.00588699
0.00583442
0.00593681
0.00607525
0.00620385
0.00627633
0.00626021
0.00616312
0.00602673
0.00589631
0.00581706
0.00584193
0.00583657
0.0059072
0.00598578
0.00603009
0.00601762
0.00595422
0.00586944
0.00580543
0.00583141
0.00574719
0.00575675
0.00584175
0.00592982
0.00597669
0.00596212
0.00589759
0.00581489
0.00575479
0.005786
0.00575607
0.00587402
0.0060241
0.00615601
0.00622055
0.00619297
0.00609253
0.00596229
0.00584178
0.00577119
0.00585838
0.00604346
0.00627118
0.00648353
0.00659128
0.0065363
0.00636434
0.00615943
0.00597441
0.00584523
0.00597949
0.00621734
0.00654145
0.00691628
0.00717319
0.00703322
0.00669087
0.00636662
0.00611122
0.00593872
0.00606721
0.00633892
0.00675152
0.00739948
0.00835074
0.00775275
0.00699807
0.00652636
0.0062121
0.00601108
0.00608326
0.00635288
0.00676654
0.00744312
0.00871007
0.0079299
0.00706067
0.00656176
0.00623789
0.00603243
0.00602626
0.00625782
0.0065809
0.00697607
0.00729963
0.00717891
0.00680118
0.00644852
0.00617688
0.00599501
0.00593303
0.00610811
0.00632915
0.00654641
0.00667443
0.00663812
0.00646703
0.00625336
0.00605892
0.00592134
0.00585584
0.00596274
0.00610247
0.00623005
0.00629901
0.00628046
0.00618608
0.00605645
0.00593323
0.00585657
0.00586765
0.00586787
0.00594128
0.00602023
0.00606355
0.00605108
0.00599038
0.00590975
0.00584895
0.00587401
0.00572428
0.0057175
0.00579043
0.00587484
0.00592888
0.00592958
0.00588135
0.00581069
0.00575667
0.00578575
0.00571979
0.00582052
0.00595801
0.00608674
0.00616095
0.00615213
0.00607048
0.00595337
0.00583944
0.00576762
0.00581533
0.00598326
0.0061962
0.00640172
0.00651952
0.0064891
0.00634032
0.00614976
0.00597138
0.00584132
0.00593892
0.00616264
0.00647062
0.00682785
0.00708256
0.00698093
0.00666953
0.00636007
0.00611053
0.00593636
0.00604052
0.00630465
0.00670734
0.00733173
0.00819274
0.007694
0.00698225
0.00652388
0.00621455
0.00601085
0.00607754
0.0063468
0.00676392
0.00746136
0.00885522
0.00791907
0.00705203
0.00656268
0.0062434
0.00603456
0.00604013
0.00627435
0.00660383
0.00701153
0.00733841
0.00718946
0.00680478
0.00645554
0.00618648
0.00600034
0.00596085
0.00613794
0.00636199
0.00658199
0.00670548
0.00665986
0.00648352
0.00626887
0.00607375
0.00593052
0.00589285
0.00600045
0.00614082
0.00626858
0.00633433
0.00631073
0.00621197
0.00607901
0.00595226
0.00586861
0.00590644
0.00590781
0.0059813
0.00605924
0.00609951
0.0060829
0.00601797
0.00593275
0.00586639
0.0058836
0.00572837
0.00570766
0.0057659
0.00584112
0.00589671
0.00590964
0.00587721
0.00581901
0.00577148
0.00580062
0.00571752
0.00580117
0.0059205
0.00603704
0.00611242
0.00611792
0.00605406
0.00594993
0.00584273
0.00577119
0.00580919
0.00595651
0.00614589
0.00633241
0.00644931
0.00643924
0.00631377
0.00613733
0.00596506
0.00583445
0.0059327
0.0061361
0.00641618
0.00673945
0.0069773
0.00691505
0.00663901
0.0063436
0.00609795
0.0059212
0.00604109
0.00629051
0.00666938
0.00724365
0.00798066
0.00761838
0.00695869
0.00650857
0.00619933
0.00599054
0.00609162
0.00635486
0.00676519
0.00747333
0.00913498
0.00795926
0.00704817
0.00655217
0.00622909
0.00601326
0.00606908
0.00630228
0.00663335
0.00705579
0.00740685
0.00722494
0.00681215
0.00645147
0.00617611
0.00598199
0.00599995
0.00617549
0.00639815
0.00661982
0.00674095
0.00668383
0.00649422
0.00627007
0.00606806
0.0059168
0.00593533
0.00603892
0.00617453
0.00629866
0.00635944
0.00632884
0.00622225
0.00608212
0.00594916
0.00585838
0.00594186
0.00593749
0.00600462
0.00607703
0.00611243
0.00609123
0.0060216
0.00593148
0.00586009
0.00587177
0.00575471
0.00572764
0.00577337
0.00583726
0.00588885
0.00590771
0.00588726
0.00584087
0.00580147
0.00583438
0.00574055
0.00581738
0.00592173
0.00602357
0.00609345
0.00610578
0.00605514
0.00596284
0.00586351
0.00579544
0.00583268
0.00596902
0.00613775
0.00630294
0.00641153
0.00641225
0.00630402
0.00613951
0.00597369
0.00584527
0.00595791
0.00614848
0.00640245
0.00669178
0.00690983
0.00687251
0.00662236
0.00633684
0.00609434
0.00591736
0.00607035
0.00630913
0.00666224
0.00718623
0.00783708
0.00757275
0.00694629
0.00649688
0.0061855
0.00597333
0.00612748
0.00638473
0.00678025
0.00747524
0.00931476
0.0080241
0.00705116
0.0065388
0.00620859
0.00598665
0.00611097
0.00633997
0.00666231
0.00708318
0.00745417
0.00725688
0.00681425
0.00643707
0.0061528
0.0059511
0.00604313
0.00621217
0.00642384
0.00663664
0.00675338
0.00668923
0.00648808
0.00625356
0.00604392
0.00588505
0.00597371
0.00606854
0.00619115
0.00630388
0.00635696
0.00632089
0.0062083
0.00606198
0.00592346
0.00582635
0.00596852
0.00595386
0.00600702
0.00606767
0.00609572
0.0060709
0.00599842
0.00590496
0.00582948
0.00583671
0.00579125
0.00577924
0.00583204
0.00589721
0.00594694
0.00596475
0.00594682
0.00590618
0.00587369
0.00591213
0.00576488
0.00585796
0.00596936
0.00607288
0.00614195
0.00615542
0.0061095
0.00602398
0.00593164
0.00586863
0.00584735
0.00599941
0.00617358
0.00633918
0.00644777
0.00645204
0.00634969
0.00619083
0.00603021
0.00590516
0.00596287
0.0061679
0.00642509
0.0067132
0.00693563
0.00690907
0.00666253
0.0063774
0.0061366
0.00596082
0.00606246
0.00631387
0.0066673
0.00718462
0.0078463
0.00763342
0.00698616
0.00652607
0.00621281
0.00600053
0.00610003
0.00636838
0.00676085
0.00742578
0.0090049
0.00809141
0.00708105
0.00655531
0.00622337
0.00600192
0.00605639
0.00629761
0.00661892
0.00702821
0.00740055
0.00725299
0.00681947
0.00644231
0.00616058
0.00596159
0.00595771
0.00614453
0.00636358
0.00658055
0.00671164
0.00666798
0.0064802
0.00625307
0.00605031
0.00589688
0.00585588
0.00597638
0.00611532
0.00624159
0.00631157
0.00629355
0.00619548
0.00605994
0.00593113
0.00584228
0.00582128
0.00583686
0.00591313
0.00599465
0.00604344
0.00603843
0.00598232
0.00590193
0.00583774
0.00585552
0.00582366
0.00583568
0.00591561
0.00600307
0.00606518
0.00608553
0.00606624
0.00602593
0.00599653
0.00603249
0.00578786
0.00590144
0.00603867
0.00616807
0.00625571
0.00627687
0.00623199
0.00614726
0.00605759
0.00599371
0.00584407
0.00601883
0.00622153
0.00642001
0.00655722
0.00657335
0.00646916
0.00630732
0.00614717
0.0060206
0.0059257
0.00615202
0.0064386
0.00677037
0.00705252
0.00704979
0.00678343
0.00648483
0.00624122
0.0060632
0.00598237
0.00624851
0.00662124
0.00717329
0.00798123
0.00786293
0.007109
0.00661953
0.00630239
0.0060893
0.00597139
0.00624419
0.00663456
0.00724802
0.00840826
0.00815994
0.00715874
0.00662532
0.0062963
0.00607827
0.00588454
0.00612532
0.00644291
0.00683352
0.0072063
0.00719244
0.0068358
0.00648479
0.00621719
0.00602695
0.00575809