/*--------------------------------*- C++ -*----------------------------------*\
| =========                 |                                                 |
| \\      /  F ield         | OpenFOAM: The Open Source CFD Toolbox           |
|  \\    /   O peration     | Version:  2406                                  |
|   \\  /    A nd           | Website:  www.openfoam.com                      |
|    \\/     M anipulation  |                                                 |
\*---------------------------------------------------------------------------*/
FoamFile
{
    version     2.0;
    format      ascii;
    arch        "LSB;label=32;scalar=64";
    class       volScalarField;
    location    "0.6";
    object      nut;
}
// * * * * * * * * * * * * * * * * * * * * * * * * * * * * * * * * * * * * * //

dimensions      [0 2 -1 0 0 0 0];

internalField   uniform 0;

boundaryField
{
    walls
    {
        type            nutUSpaldingWallFunction;
        value           nonuniform List<scalar> 
2000
(
3.18467e-09
4.56824e-09
6.02325e-09
7.21602e-09
7.88785e-09
7.8876e-09
7.21537e-09
6.02241e-09
4.56744e-09
3.18412e-09
1.90107e-09
2.67647e-09
3.52559e-09
4.24013e-09
4.64849e-09
4.64811e-09
4.23903e-09
3.52399e-09
2.67464e-09
1.89931e-09
1.03115e-09
1.42741e-09
1.86814e-09
2.24671e-09
2.46416e-09
2.4619e-09
2.24039e-09
1.85908e-09
1.41754e-09
1.02242e-09
1.24683e-09
1.72805e-09
2.25324e-09
2.69675e-09
2.94807e-09
2.94235e-09
2.68108e-09
2.23133e-09
1.70526e-09
1.22756e-09
1.13043e-09
1.55247e-09
2.01056e-09
2.39488e-09
2.60997e-09
2.59992e-09
2.36738e-09
1.97184e-09
1.51166e-09
1.09427e-09
1.24764e-09
1.70399e-09
2.19289e-09
2.59787e-09
2.82063e-09
2.80376e-09
2.55069e-09
2.12347e-09
1.62533e-09
1.17052e-09
1.28484e-09
1.7358e-09
2.2136e-09
2.60388e-09
2.8116e-09
2.78182e-09
2.51934e-09
2.08674e-09
1.58688e-09
1.13356e-09
1.36973e-09
1.83869e-09
2.33085e-09
2.72716e-09
2.93006e-09
2.88541e-09
2.60089e-09
2.14422e-09
1.62213e-09
1.15311e-09
1.38319e-09
1.85666e-09
2.35249e-09
2.74833e-09
2.94463e-09
2.88919e-09
2.59326e-09
2.12936e-09
1.60581e-09
1.14259e-09
1.36057e-09
1.83861e-09
2.34011e-09
2.73807e-09
2.92892e-09
2.86083e-09
2.54901e-09
2.0724e-09
1.54562e-09
1.09208e-09
1.31163e-09
1.78082e-09
2.27138e-09
2.65566e-09
2.82907e-09
2.74196e-09
2.4148e-09
1.93253e-09
1.41555e-09
9.85362e-10
1.26835e-09
1.71763e-09
2.18177e-09
2.5382e-09
2.68703e-09
2.5841e-09
2.2545e-09
1.78434e-09
1.29216e-09
8.90835e-10
1.23684e-09
1.66223e-09
2.09486e-09
2.42092e-09
2.54946e-09
2.44281e-09
2.12715e-09
1.68352e-09
1.22144e-09
8.44048e-10
1.21817e-09
1.63083e-09
2.04668e-09
2.35833e-09
2.48239e-09
2.38476e-09
2.08915e-09
1.66933e-09
1.22521e-09
8.55352e-10
1.18848e-09
1.60578e-09
2.03349e-09
2.36204e-09
2.50755e-09
2.4334e-09
2.15882e-09
1.75275e-09
1.3091e-09
9.28503e-10
1.08263e-09
1.50164e-09
1.95761e-09
2.33243e-09
2.53203e-09
2.50816e-09
2.27177e-09
1.88707e-09
1.44599e-09
1.05254e-09
9.16996e-10
1.31059e-09
1.77352e-09
2.18804e-09
2.45002e-09
2.4943e-09
2.31681e-09
1.97134e-09
1.54848e-09
1.15398e-09
7.9671e-10
1.14671e-09
1.57719e-09
1.98641e-09
2.26996e-09
2.35287e-09
2.21565e-09
1.90037e-09
1.49668e-09
1.11508e-09
7.43654e-10
1.058e-09
1.4451e-09
1.81891e-09
2.08053e-09
2.15711e-09
2.02425e-09
1.71994e-09
1.33286e-09
9.75944e-10
7.22882e-10
1.02011e-09
1.37965e-09
1.72145e-09
1.95275e-09
2.00905e-09
1.87085e-09
1.57703e-09
1.21186e-09
8.81158e-10
7.21615e-10
1.01676e-09
1.36861e-09
1.69517e-09
1.90909e-09
1.95258e-09
1.81276e-09
1.5293e-09
1.18171e-09
8.66552e-10
7.24219e-10
1.02177e-09
1.37669e-09
1.70088e-09
1.91127e-09
1.95226e-09
1.81471e-09
1.53829e-09
1.20007e-09
8.91355e-10
7.09531e-10
1.00212e-09
1.35298e-09
1.67393e-09
1.88479e-09
1.93075e-09
1.80301e-09
1.53956e-09
1.21428e-09
9.14809e-10
7.08626e-10
9.9251e-10
1.32782e-09
1.63489e-09
1.83767e-09
1.88497e-09
1.76756e-09
1.52019e-09
1.2122e-09
9.25823e-10
7.29803e-10
1.00888e-09
1.3247e-09
1.60634e-09
1.78487e-09
1.81637e-09
1.69505e-09
1.45355e-09
1.15985e-09
8.86797e-10
8.278e-10
1.11103e-09
1.41505e-09
1.67409e-09
1.83078e-09
1.84828e-09
1.72432e-09
1.48642e-09
1.19812e-09
9.18114e-10
1.07968e-09
1.3972e-09
1.72719e-09
1.99814e-09
2.15759e-09
2.16528e-09
2.01585e-09
1.73209e-09
1.38153e-09
1.02815e-09
1.47093e-09
1.85621e-09
2.2419e-09
2.53775e-09
2.67944e-09
2.62159e-09
2.36522e-09
1.95536e-09
1.48484e-09
1.05069e-09
1.85621e-09
2.31165e-09
2.73475e-09
3.01631e-09
3.07955e-09
2.89345e-09
2.48955e-09
1.95612e-09
1.41035e-09
9.64632e-10
1.98439e-09
2.48949e-09
2.92829e-09
3.17812e-09
3.16169e-09
2.87468e-09
2.38053e-09
1.79489e-09
1.23796e-09
8.15906e-10
1.71266e-09
2.24545e-09
2.73707e-09
3.0418e-09
3.06261e-09
2.79795e-09
2.31854e-09
1.74786e-09
1.20179e-09
7.88146e-10
1.16214e-09
1.61504e-09
2.09425e-09
2.46569e-09
2.60425e-09
2.4759e-09
2.12156e-09
1.64504e-09
1.16166e-09
7.80442e-10
8.34729e-10
1.21537e-09
1.64793e-09
2.03466e-09
2.24993e-09
2.23566e-09
1.99897e-09
1.61033e-09
1.18696e-09
8.26956e-10
6.31272e-10
9.4396e-10
1.31063e-09
1.64784e-09
1.8625e-09
1.89796e-09
1.75123e-09
1.4665e-09
1.13842e-09
8.41402e-10
6.90441e-10
9.96119e-10
1.35781e-09
1.66989e-09
1.86165e-09
1.87746e-09
1.71833e-09
1.42655e-09
1.09264e-09
7.98683e-10
6.59445e-10
9.14262e-10
1.20314e-09
1.45195e-09
1.59898e-09
1.60223e-09
1.4612e-09
1.21029e-09
9.23937e-10
6.71771e-10
6.45627e-10
8.58328e-10
1.08503e-09
1.29284e-09
1.41833e-09
1.42911e-09
1.31909e-09
1.11697e-09
8.80882e-10
6.74995e-10
1.29393e-09
1.6849e-09
2.10595e-09
2.57013e-09
2.94209e-09
3.13995e-09
3.10301e-09
2.84204e-09
2.42742e-09
1.97888e-09
3.5367e-09
4.73253e-09
5.8565e-09
6.99386e-09
7.78996e-09
8.10574e-09
7.83451e-09
7.02893e-09
5.89413e-09
4.67115e-09
8.08311e-09
1.06154e-08
1.28411e-08
1.46777e-08
1.56673e-08
1.56781e-08
1.46869e-08
1.28737e-08
1.06005e-08
8.15718e-09
1.10217e-08
1.37175e-08
1.57814e-08
1.70461e-08
1.73583e-08
1.68664e-08
1.56289e-08
1.36594e-08
1.10737e-08
8.07657e-09
1.39322e-08
1.65016e-08
1.83712e-08
1.93524e-08
1.98708e-08
1.9555e-08
1.77908e-08
1.45371e-08
1.05259e-08
6.59926e-09
2.22763e-08
2.81821e-08
3.37604e-08
3.77149e-08
3.9111e-08
3.63816e-08
2.94689e-08
2.06187e-08
1.24542e-08
6.47527e-09
3.09335e-08
4.10423e-08
4.9762e-08
5.44453e-08
5.37056e-08
4.69703e-08
3.55641e-08
2.3977e-08
1.57225e-08
9.81176e-09
3.40862e-08
4.51577e-08
5.32882e-08
5.59691e-08
5.32012e-08
4.5574e-08
3.48094e-08
2.47155e-08
1.658e-08
1.03202e-08
3.04409e-08
4.00615e-08
4.68048e-08
4.89643e-08
4.65729e-08
3.96494e-08
2.94607e-08
1.93033e-08
1.09603e-08
4.73923e-09
2.73186e-08
3.57318e-08
4.20599e-08
4.49343e-08
4.30105e-08
3.53069e-08
2.39894e-08
1.36944e-08
6.75637e-09
2.82304e-09
4.72659e-08
6.37112e-08
7.86936e-08
8.93195e-08
9.14391e-08
8.27546e-08
6.69454e-08
5.08496e-08
3.70517e-08
2.56959e-08
7.81729e-08
1.07794e-07
1.37167e-07
1.60001e-07
1.68934e-07
1.59996e-07
1.38114e-07
1.12673e-07
8.75044e-08
6.4183e-08
9.86975e-08
1.36765e-07
1.78014e-07
2.10571e-07
2.25045e-07
2.15578e-07
1.87368e-07
1.50118e-07
1.10851e-07
7.32996e-08
3.18321e-09
4.56591e-09
6.02047e-09
7.21341e-09
7.88601e-09
7.88689e-09
7.21569e-09
6.02341e-09
4.56844e-09
3.18487e-09
1.89188e-09
2.66522e-09
3.51382e-09
4.22956e-09
4.64049e-09
4.64343e-09
4.23752e-09
3.52489e-09
2.67652e-09
1.90144e-09
1.00084e-09
1.39137e-09
1.831e-09
2.21361e-09
2.43897e-09
2.44668e-09
2.23491e-09
1.86136e-09
1.42406e-09
1.03038e-09
1.18326e-09
1.65183e-09
2.17339e-09
2.62464e-09
2.89252e-09
2.90826e-09
2.66811e-09
2.23504e-09
1.71837e-09
1.24382e-09
1.03992e-09
1.44493e-09
1.89749e-09
2.2924e-09
2.53142e-09
2.55313e-09
2.3524e-09
1.98236e-09
1.53734e-09
1.12533e-09
1.121e-09
1.56146e-09
2.05013e-09
2.47413e-09
2.73214e-09
2.76031e-09
2.55316e-09
2.1641e-09
1.68991e-09
1.24287e-09
1.07286e-09
1.5144e-09
2.01317e-09
2.45204e-09
2.72816e-09
2.77478e-09
2.58419e-09
2.20675e-09
1.73691e-09
1.28553e-09
1.03483e-09
1.50067e-09
2.04422e-09
2.53595e-09
2.85966e-09
2.93703e-09
2.75475e-09
2.36389e-09
1.86498e-09
1.37931e-09
9.56916e-10
1.41994e-09
1.97941e-09
2.50391e-09
2.8652e-09
2.97243e-09
2.8035e-09
2.40929e-09
1.89656e-09
1.39752e-09
9.0853e-10
1.35133e-09
1.89719e-09
2.42319e-09
2.79694e-09
2.92044e-09
2.76354e-09
2.37508e-09
1.86461e-09
1.37078e-09
8.8713e-10
1.29953e-09
1.80887e-09
2.30474e-09
2.66175e-09
2.78467e-09
2.64017e-09
2.27247e-09
1.78579e-09
1.31558e-09
8.92379e-10
1.28593e-09
1.76593e-09
2.22892e-09
2.55952e-09
2.67081e-09
2.53184e-09
2.18307e-09
1.72027e-09
1.27148e-09
8.97415e-10
1.28165e-09
1.74481e-09
2.18439e-09
2.49282e-09
2.59094e-09
2.45272e-09
2.11705e-09
1.67318e-09
1.24129e-09
8.90129e-10
1.26587e-09
1.71598e-09
2.13695e-09
2.42749e-09
2.51434e-09
2.37664e-09
2.05313e-09
1.62906e-09
1.2165e-09
8.77138e-10
1.24161e-09
1.67607e-09
2.07688e-09
2.34804e-09
2.42126e-09
2.28049e-09
1.9657e-09
1.5609e-09
1.17191e-09
8.71799e-10
1.22065e-09
1.63067e-09
2.0019e-09
2.24244e-09
2.28947e-09
2.1318e-09
1.81285e-09
1.4194e-09
1.05529e-09
8.96056e-10
1.23104e-09
1.61128e-09
1.94244e-09
2.13727e-09
2.14151e-09
1.95175e-09
1.61824e-09
1.23169e-09
8.93279e-10
9.6042e-10
1.28916e-09
1.64324e-09
1.93443e-09
2.08298e-09
2.04574e-09
1.82808e-09
1.48586e-09
1.10724e-09
7.87978e-10
1.06172e-09
1.39784e-09
1.74167e-09
2.00648e-09
2.11947e-09
2.04722e-09
1.8029e-09
1.44729e-09
1.06476e-09
7.50258e-10
1.10085e-09
1.4439e-09
1.79375e-09
2.05577e-09
2.15695e-09
2.06666e-09
1.80421e-09
1.43514e-09
1.04673e-09
7.32855e-10
1.01153e-09
1.34515e-09
1.70396e-09
1.98188e-09
2.09921e-09
2.02045e-09
1.76679e-09
1.40499e-09
1.0276e-09
7.21909e-10
8.60379e-10
1.16283e-09
1.50842e-09
1.79286e-09
1.93406e-09
1.88969e-09
1.67435e-09
1.34808e-09
1.00036e-09
7.12688e-10
7.40566e-10
1.00051e-09
1.30837e-09
1.57646e-09
1.72783e-09
1.71779e-09
1.54985e-09
1.2714e-09
9.60255e-10
6.9425e-10
6.48101e-10
8.66952e-10
1.13422e-09
1.38378e-09
1.54326e-09
1.56797e-09
1.449e-09
1.21972e-09
9.43286e-10
6.95298e-10
6.21311e-10
8.14163e-10
1.04597e-09
1.27266e-09
1.42707e-09
1.46959e-09
1.38424e-09
1.19292e-09
9.45978e-10
7.13234e-10
7.15022e-10
9.5501e-10
1.20937e-09
1.44061e-09
1.58261e-09
1.60818e-09
1.50933e-09
1.30869e-09
1.05527e-09
8.08702e-10
8.72297e-10
1.2028e-09
1.55777e-09
1.85596e-09
2.0306e-09
2.05048e-09
1.9213e-09
1.67574e-09
1.37222e-09
1.06561e-09
9.43941e-10
1.36333e-09
1.8595e-09
2.2941e-09
2.58319e-09
2.6677e-09
2.55049e-09
2.26801e-09
1.89031e-09
1.48015e-09
8.60687e-10
1.3394e-09
1.95368e-09
2.55873e-09
3.02254e-09
3.24382e-09
3.19223e-09
2.8953e-09
2.43478e-09
1.90375e-09
7.08135e-10
1.17845e-09
1.8116e-09
2.49664e-09
3.06942e-09
3.39731e-09
3.40909e-09
3.11848e-09
2.61542e-09
2.036e-09
5.94063e-10
1.00093e-09
1.57195e-09
2.2245e-09
2.78692e-09
3.11517e-09
3.11726e-09
2.80808e-09
2.28933e-09
1.73961e-09
6.4123e-10
9.51035e-10
1.37435e-09
1.85494e-09
2.26031e-09
2.47152e-09
2.40856e-09
2.09364e-09
1.62406e-09
1.17921e-09
7.94265e-10
1.09243e-09
1.43863e-09
1.78173e-09
2.0193e-09
2.08068e-09
1.93001e-09
1.60221e-09
1.19437e-09
8.33748e-10
8.14195e-10
1.07471e-09
1.34659e-09
1.5732e-09
1.68071e-09
1.63762e-09
1.45054e-09
1.16024e-09
8.55944e-10
5.96366e-10
8.28244e-10
1.0848e-09
1.3761e-09
1.59949e-09
1.69492e-09
1.63325e-09
1.43941e-09
1.16204e-09
8.81478e-10
6.40994e-10
7.24217e-10
9.69137e-10
1.25023e-09
1.45712e-09
1.5454e-09
1.49826e-09
1.34384e-09
1.11752e-09
8.77722e-10
6.48795e-10
8.03605e-10
1.08437e-09
1.34301e-09
1.51546e-09
1.54275e-09
1.45304e-09
1.29053e-09
1.09125e-09
8.86187e-10
6.80181e-10
2.08079e-09
2.56435e-09
2.81969e-09
2.80561e-09
2.4874e-09
2.06057e-09
1.69385e-09
1.48489e-09
1.36365e-09
1.26174e-09
5.0626e-09
6.44521e-09
7.44815e-09
7.73171e-09
6.94204e-09
5.52726e-09
4.20834e-09
3.54764e-09
3.33021e-09
3.16009e-09
7.98139e-09
1.04753e-08
1.30831e-08
1.5264e-08
1.60248e-08
1.49487e-08
1.27156e-08
1.06276e-08
9.01061e-09
7.53348e-09
9.20653e-09
1.15146e-08
1.39709e-08
1.66091e-08
1.87245e-08
1.94226e-08
1.83025e-08
1.60311e-08
1.34058e-08
1.07284e-08
1.222e-08
1.56324e-08
1.80306e-08
2.0243e-08
2.23152e-08
2.36143e-08
2.33249e-08
2.1233e-08
1.79879e-08
1.41155e-08
1.48584e-08
2.30491e-08
2.89315e-08
3.27011e-08
3.51463e-08
3.65921e-08
3.63938e-08
3.38113e-08
2.90598e-08
2.27301e-08
1.18525e-08
2.47077e-08
3.75922e-08
4.6683e-08
5.09835e-08
5.20125e-08
5.07416e-08
4.68582e-08
4.01019e-08
3.12963e-08
7.18769e-09
2.01082e-08
3.78035e-08
5.47553e-08
6.45443e-08
6.62677e-08
6.25238e-08
5.54651e-08
4.5675e-08
3.47655e-08
1.62175e-09
5.32081e-09
1.75629e-08
3.60523e-08
5.28446e-08
6.05878e-08
5.86227e-08
5.10446e-08
4.09044e-08
3.0817e-08
1.10407e-08
1.3043e-08
1.5962e-08
2.53638e-08
4.00803e-08
5.25896e-08
5.50834e-08
4.81115e-08
3.72168e-08
2.73266e-08
1.58095e-08
3.58884e-08
5.75933e-08
7.46474e-08
8.80304e-08
9.79282e-08
9.84153e-08
8.60788e-08
6.60779e-08
4.6902e-08
3.59387e-08
6.45232e-08
9.63856e-08
1.23385e-07
1.42133e-07
1.52759e-07
1.51888e-07
1.34713e-07
1.05424e-07
7.57191e-08
4.22178e-08
7.1099e-08
1.05012e-07
1.35729e-07
1.56652e-07
1.67338e-07
1.67091e-07
1.51952e-07
1.24191e-07
9.30703e-08
3.18304e-09
4.56622e-09
6.02124e-09
7.2142e-09
7.88647e-09
7.88669e-09
7.2148e-09
6.02205e-09
4.567e-09
3.18363e-09
1.89536e-09
2.66972e-09
3.5186e-09
4.2331e-09
4.64171e-09
4.6415e-09
4.23233e-09
3.5171e-09
2.66745e-09
1.89283e-09
1.00479e-09
1.39614e-09
1.83573e-09
2.21591e-09
2.43647e-09
2.43717e-09
2.21741e-09
1.83692e-09
1.3956e-09
1.00263e-09
1.1726e-09
1.63818e-09
2.15728e-09
2.6039e-09
2.86398e-09
2.86883e-09
2.6167e-09
2.17433e-09
1.65406e-09
1.18462e-09
9.77347e-10
1.36958e-09
1.8153e-09
2.20553e-09
2.43918e-09
2.45396e-09
2.24669e-09
1.87454e-09
1.43458e-09
1.03703e-09
9.88228e-10
1.39954e-09
1.8701e-09
2.28421e-09
2.5374e-09
2.5637e-09
2.35875e-09
1.97937e-09
1.52522e-09
1.10929e-09
9.33043e-10
1.32192e-09
1.76834e-09
2.16082e-09
2.40063e-09
2.4242e-09
2.22797e-09
1.86668e-09
1.43773e-09
1.04836e-09
9.51909e-10
1.3344e-09
1.76758e-09
2.14271e-09
2.36323e-09
2.36938e-09
2.1608e-09
1.79485e-09
1.3712e-09
9.95836e-10
9.63246e-10
1.33118e-09
1.73937e-09
2.08588e-09
2.27805e-09
2.26285e-09
2.04376e-09
1.67999e-09
1.26952e-09
9.14832e-10
1.02412e-09
1.39648e-09
1.79843e-09
2.13009e-09
2.30166e-09
2.2653e-09
2.02811e-09
1.65227e-09
1.23489e-09
8.79534e-10
1.1088e-09
1.4974e-09
1.90686e-09
2.23449e-09
2.39255e-09
2.33634e-09
2.07681e-09
1.68022e-09
1.24456e-09
8.77064e-10
1.18591e-09
1.5975e-09
2.02571e-09
2.36019e-09
2.51272e-09
2.4396e-09
2.15628e-09
1.73462e-09
1.27689e-09
8.94028e-10
1.21456e-09
1.64068e-09
2.08425e-09
2.4273e-09
2.57904e-09
2.49553e-09
2.19653e-09
1.75896e-09
1.29017e-09
9.01031e-10
1.17838e-09
1.5978e-09
2.0392e-09
2.38297e-09
2.5367e-09
2.45602e-09
2.1619e-09
1.7313e-09
1.27211e-09
8.90498e-10
1.10106e-09
1.4974e-09
1.9219e-09
2.26052e-09
2.42108e-09
2.35799e-09
2.08819e-09
1.68271e-09
1.24502e-09
8.76184e-10
1.02534e-09
1.39583e-09
1.79944e-09
2.13143e-09
2.30155e-09
2.2626e-09
2.0244e-09
1.64937e-09
1.23357e-09
8.75276e-10
9.81996e-10
1.33338e-09
1.72099e-09
2.04905e-09
2.22991e-09
2.21493e-09
2.00654e-09
1.65901e-09
1.25982e-09
9.06471e-10
9.81087e-10
1.32693e-09
1.71046e-09
2.0405e-09
2.23212e-09
2.23583e-09
2.04923e-09
1.72057e-09
1.33004e-09
9.74875e-10
9.94673e-10
1.35287e-09
1.75376e-09
2.10164e-09
2.31155e-09
2.33152e-09
2.15723e-09
1.83427e-09
1.44098e-09
1.07454e-09
1.00559e-09
1.38313e-09
1.81169e-09
2.18545e-09
2.41509e-09
2.44248e-09
2.26208e-09
1.92088e-09
1.50446e-09
1.11638e-09
1.02441e-09
1.41361e-09
1.85764e-09
2.24391e-09
2.47448e-09
2.485e-09
2.27084e-09
1.8877e-09
1.4374e-09
1.03496e-09
1.05973e-09
1.44506e-09
1.87618e-09
2.24268e-09
2.44259e-09
2.41376e-09
2.15822e-09
1.74343e-09
1.28256e-09
8.91923e-10
1.1213e-09
1.49422e-09
1.89197e-09
2.21481e-09
2.36766e-09
2.29945e-09
2.01989e-09
1.60131e-09
1.15327e-09
7.84308e-10
1.20374e-09
1.57972e-09
1.95498e-09
2.24085e-09
2.35319e-09
2.25298e-09
1.95375e-09
1.52849e-09
1.07827e-09
7.14481e-10
1.29236e-09
1.69323e-09
2.07413e-09
2.34613e-09
2.433e-09
2.30562e-09
1.98357e-09
1.54142e-09
1.07693e-09
7.04722e-10
1.10324e-09
1.50646e-09
1.92878e-09
2.24963e-09
2.37939e-09
2.2805e-09
1.98037e-09
1.5547e-09
1.11574e-09
7.55656e-10
6.85102e-10
1.0288e-09
1.4553e-09
1.8276e-09
2.04271e-09
2.03961e-09
1.83673e-09
1.49965e-09
1.14117e-09
8.32414e-10
4.27254e-10
6.87295e-10
1.04236e-09
1.39525e-09
1.64709e-09
1.72757e-09
1.62889e-09
1.39272e-09
1.11066e-09
8.51547e-10
3.53555e-10
5.53079e-10
8.23145e-10
1.1157e-09
1.34335e-09
1.44579e-09
1.39744e-09
1.21709e-09
9.81982e-10
7.55444e-10
4.5186e-10
6.19012e-10
8.24634e-10
1.03578e-09
1.18985e-09
1.24551e-09
1.18293e-09
1.01515e-09
8.07375e-10
6.13012e-10
6.75534e-10
9.07567e-10
1.15094e-09
1.35851e-09
1.47031e-09
1.45534e-09
1.3072e-09
1.06057e-09
7.81701e-10
5.53165e-10
9.15067e-10
1.25158e-09
1.58939e-09
1.86011e-09
1.98582e-09
1.93391e-09
1.70713e-09
1.36433e-09
9.7968e-10
6.71722e-10
1.21222e-09
1.667e-09
2.12965e-09
2.49613e-09
2.66195e-09
2.57883e-09
2.25966e-09
1.78427e-09
1.27092e-09
8.50317e-10
1.35379e-09
1.86353e-09
2.38763e-09
2.78989e-09
2.95386e-09
2.8247e-09
2.43418e-09
1.88347e-09
1.32565e-09
8.71664e-10
1.53713e-09
2.11067e-09
2.69757e-09
3.12771e-09
3.2778e-09
3.09317e-09
2.6251e-09
1.99531e-09
1.37907e-09
8.86817e-10
1.49114e-09
2.07125e-09
2.65672e-09
3.06732e-09
3.17809e-09
2.94473e-09
2.4383e-09
1.79844e-09
1.21127e-09
7.62345e-10
1.42381e-09
2.00041e-09
2.58303e-09
2.99292e-09
3.10191e-09
2.88229e-09
2.41588e-09
1.82697e-09
1.30396e-09
8.49541e-10
2.2267e-09
2.96386e-09
3.77317e-09
4.47461e-09
4.87872e-09
4.88928e-09
4.52485e-09
3.85725e-09
3.12047e-09
2.28481e-09
3.84477e-09
5.27212e-09
6.64999e-09
7.7661e-09
8.43985e-09
8.64676e-09
8.41638e-09
7.75424e-09
6.74675e-09
5.40365e-09
1.48702e-09
4.17362e-09
7.70671e-09
1.11139e-08
1.34497e-08
1.43225e-08
1.37918e-08
1.2314e-08
1.02782e-08
8.22457e-09
4.36012e-10
4.73189e-10
2.61546e-09
6.17196e-09
9.84164e-09
1.27166e-08
1.40592e-08
1.36781e-08
1.18118e-08
9.3893e-09
1.25857e-10
7.01399e-11
4.37185e-10
8.25774e-10
1.7276e-09
3.60608e-09
6.33844e-09
9.08781e-09
1.06529e-08
1.0453e-08
1.14031e-09
8.42823e-10
9.16877e-10
1.47042e-09
9.91093e-10
9.068e-11
7.25977e-10
3.19405e-09
6.46535e-09
9.16572e-09
1.53521e-09
4.6103e-09
9.2314e-09
1.16504e-08
9.83797e-09
5.58016e-09
1.62976e-09
4.12059e-10
2.54395e-09
5.16778e-09
5.91693e-09
1.71917e-08
2.97713e-08
3.59523e-08
3.49813e-08
2.83609e-08
1.81871e-08
7.72384e-09
1.38818e-09
1.4312e-09
1.84644e-08
3.46316e-08
4.96714e-08
5.88473e-08
6.43571e-08
6.47718e-08
5.75374e-08
4.2226e-08
2.30029e-08
7.6751e-09
1.88567e-08
2.14418e-08
1.94368e-08
1.80911e-08
2.0584e-08
2.40289e-08
2.62813e-08
2.51755e-08
1.9577e-08
1.29608e-08
4.03075e-08
5.76965e-08
6.14146e-08
5.48059e-08
4.49393e-08
3.16908e-08
1.92422e-08
9.81331e-09
6.11082e-09
6.2351e-09
3.29086e-08
4.84339e-08
6.11729e-08
6.37694e-08
5.9124e-08
4.91862e-08
3.81919e-08
2.95573e-08
2.56118e-08
2.48377e-08
2.26661e-08
2.80104e-08
3.25261e-08
3.48922e-08
3.61295e-08
3.56636e-08
3.37932e-08
3.22721e-08
3.13625e-08
3.08405e-08
3.18426e-09
4.56737e-09
6.02179e-09
7.21368e-09
7.88474e-09
7.884e-09
7.21175e-09
6.01922e-09
4.56502e-09
3.18257e-09
1.89933e-09
2.67396e-09
3.52238e-09
4.23567e-09
4.64275e-09
4.64125e-09
4.23168e-09
3.51694e-09
2.66865e-09
1.89489e-09
1.02238e-09
1.41636e-09
1.85581e-09
2.23285e-09
2.44861e-09
2.44443e-09
2.22127e-09
1.83923e-09
1.39825e-09
1.00557e-09
1.22753e-09
1.70333e-09
2.22505e-09
2.66493e-09
2.91172e-09
2.90002e-09
2.63204e-09
2.17712e-09
1.64928e-09
1.17643e-09
1.0912e-09
1.49935e-09
1.94504e-09
2.31644e-09
2.51703e-09
2.49113e-09
2.24385e-09
1.83982e-09
1.38159e-09
9.80787e-10
1.15773e-09
1.58162e-09
2.03917e-09
2.41336e-09
2.60619e-09
2.56346e-09
2.29473e-09
1.86945e-09
1.39538e-09
9.85124e-10
1.10768e-09
1.50112e-09
1.92507e-09
2.26954e-09
2.44313e-09
2.39717e-09
2.1429e-09
1.74588e-09
1.30679e-09
9.26347e-10
1.11994e-09
1.51355e-09
1.93707e-09
2.28347e-09
2.46202e-09
2.42422e-09
2.17845e-09
1.78642e-09
1.34498e-09
9.55084e-10
1.1149e-09
1.51356e-09
1.94357e-09
2.29892e-09
2.48765e-09
2.45996e-09
2.22075e-09
1.82971e-09
1.38102e-09
9.80605e-10
1.07823e-09
1.49457e-09
1.95654e-09
2.34888e-09
2.57001e-09
2.56307e-09
2.33e-09
1.93227e-09
1.46692e-09
1.04759e-09
9.83422e-10
1.40142e-09
1.8884e-09
2.32158e-09
2.58863e-09
2.62061e-09
2.41288e-09
2.02502e-09
1.55727e-09
1.12684e-09
8.93875e-10
1.29614e-09
1.78338e-09
2.23593e-09
2.53844e-09
2.61182e-09
2.44137e-09
2.07874e-09
1.62316e-09
1.19173e-09
8.45396e-10
1.22375e-09
1.68865e-09
2.13115e-09
2.44165e-09
2.53887e-09
2.39999e-09
2.06651e-09
1.63188e-09
1.21038e-09
8.48492e-10
1.20664e-09
1.64264e-09
2.05874e-09
2.35331e-09
2.44906e-09
2.32024e-09
2.00222e-09
1.58299e-09
1.17441e-09
9.09803e-10
1.25649e-09
1.66458e-09
2.0459e-09
2.30677e-09
2.37767e-09
2.23529e-09
1.91473e-09
1.5011e-09
1.10474e-09
1.03365e-09
1.38706e-09
1.77634e-09
2.11854e-09
2.33006e-09
2.35405e-09
2.17657e-09
1.83821e-09
1.42244e-09
1.03697e-09
1.1508e-09
1.52908e-09
1.92329e-09
2.24396e-09
2.41383e-09
2.38867e-09
2.1686e-09
1.80403e-09
1.37926e-09
9.98975e-10
1.12536e-09
1.52174e-09
1.94336e-09
2.28324e-09
2.4568e-09
2.42065e-09
2.18385e-09
1.80565e-09
1.37544e-09
9.96583e-10
9.85637e-10
1.36651e-09
1.7966e-09
2.16349e-09
2.37045e-09
2.36362e-09
2.14822e-09
1.78406e-09
1.36579e-09
9.96184e-10
8.84835e-10
1.23051e-09
1.63252e-09
1.99152e-09
2.21203e-09
2.23449e-09
2.05515e-09
1.72556e-09
1.33745e-09
9.88615e-10
8.69962e-10
1.19659e-09
1.57364e-09
1.91388e-09
2.13059e-09
2.16611e-09
2.01108e-09
1.70792e-09
1.34041e-09
1.0024e-09
9.02089e-10
1.23416e-09
1.61126e-09
1.94879e-09
2.16502e-09
2.20529e-09
2.05841e-09
1.76233e-09
1.39396e-09
1.0484e-09
9.3735e-10
1.28553e-09
1.67749e-09
2.02685e-09
2.25199e-09
2.29917e-09
2.15644e-09
1.86081e-09
1.4839e-09
1.12409e-09
9.62111e-10
1.3248e-09
1.72951e-09
2.08705e-09
2.31644e-09
2.36589e-09
2.22576e-09
1.93418e-09
1.55982e-09
1.19983e-09
9.33932e-10
1.29727e-09
1.70805e-09
2.06914e-09
2.30305e-09
2.35843e-09
2.22993e-09
1.95521e-09
1.60254e-09
1.25855e-09
9.55009e-10
1.30315e-09
1.69535e-09
2.02948e-09
2.23127e-09
2.24822e-09
2.07946e-09
1.76843e-09
1.39834e-09
1.06045e-09
1.00656e-09
1.32162e-09
1.65714e-09
1.91837e-09
2.02757e-09
1.9444e-09
1.68534e-09
1.31575e-09
9.41254e-10
6.48736e-10
9.74026e-10
1.25415e-09
1.53592e-09
1.73361e-09
1.7719e-09
1.62994e-09
1.34167e-09
9.81268e-10
6.51137e-10
4.11027e-10
8.91542e-10
1.17387e-09
1.46249e-09
1.66703e-09
1.71154e-09
1.57759e-09
1.2986e-09
9.47698e-10
6.19133e-10
3.75038e-10
7.47091e-10
1.01189e-09
1.31269e-09
1.56236e-09
1.67708e-09
1.62181e-09
1.40912e-09
1.10021e-09
7.71269e-10
5.06189e-10
7.09609e-10
9.49006e-10
1.23112e-09
1.49257e-09
1.65425e-09
1.67069e-09
1.53146e-09
1.27747e-09
9.70276e-10
7.01473e-10
7.27961e-10
9.85149e-10
1.27393e-09
1.54379e-09
1.72053e-09
1.76395e-09
1.65967e-09
1.43671e-09
1.15118e-09
8.84966e-10
8.3232e-10
1.17693e-09
1.56084e-09
1.91245e-09
2.14137e-09
2.20037e-09
2.07898e-09
1.81199e-09
1.47189e-09
1.14532e-09
9.02637e-10
1.2954e-09
1.74423e-09
2.14734e-09
2.41226e-09
2.47788e-09
2.33618e-09
2.02854e-09
1.64273e-09
1.27303e-09
8.66971e-10
1.29517e-09
1.8217e-09
2.31203e-09
2.65473e-09
2.76635e-09
2.63287e-09
2.29923e-09
1.86788e-09
1.44614e-09
7.15701e-10
1.08339e-09
1.54855e-09
2.00349e-09
2.3416e-09
2.48166e-09
2.40149e-09
2.13286e-09
1.76366e-09
1.38648e-09
7.18952e-10
1.07156e-09
1.49868e-09
1.90766e-09
2.19682e-09
2.30241e-09
2.21022e-09
1.95717e-09
1.62813e-09
1.31015e-09
2.01384e-09
2.55987e-09
3.1046e-09
3.5207e-09
3.71157e-09
3.65957e-09
3.40327e-09
3.01324e-09
2.55344e-09
2.13259e-09
4.63982e-09
5.50033e-09
6.18796e-09
6.52547e-09
6.47298e-09
6.01531e-09
5.27599e-09
4.50299e-09
3.85003e-09
3.39207e-09
7.77263e-09
9.12867e-09
9.68025e-09
8.77037e-09
6.49428e-09
3.77974e-09
1.66247e-09
5.77469e-10
2.51852e-10
4.32498e-10
6.48006e-09
5.9504e-09
4.05221e-09
1.63088e-09
1.49093e-10
5.58254e-10
1.3456e-09
1.68988e-09
1.61111e-09
1.14447e-09
4.19731e-09
2.87733e-09
1.52746e-09
1.85091e-09
3.58899e-09
5.09665e-09
5.43429e-09
4.28364e-09
2.35681e-09
7.96633e-10
4.73564e-09
6.2235e-09
8.01724e-09
9.18298e-09
8.97687e-09
7.6627e-09
5.55471e-09
3.32093e-09
1.82775e-09
1.1807e-09
8.49121e-09
1.00963e-08
1.11663e-08
1.17433e-08
1.11091e-08
9.52877e-09
8.11364e-09
6.76386e-09
4.8174e-09
2.09477e-09
8.47723e-09
9.47224e-09
9.0908e-09
6.3664e-09
3.21767e-09
1.84606e-09
2.06488e-09
2.68969e-09
2.1099e-09
1.45111e-09
1.61623e-09
7.01297e-10
1.2293e-09
2.67762e-09
3.86106e-09
4.24593e-09
4.16742e-09
4.97728e-09
7.13865e-09
1.02109e-08
2.02591e-09
2.76745e-09
1.61997e-09
1.38385e-09
3.51646e-09
5.35891e-09
8.51163e-09
1.21437e-08
1.63092e-08
1.77408e-08
2.3695e-08
3.69247e-08
5.65832e-08
7.82732e-08
8.78976e-08
8.09128e-08
6.74275e-08
5.70462e-08
4.41699e-08
3.44441e-08
6.70085e-08
9.46645e-08
1.17052e-07
1.23177e-07
1.10784e-07
9.12128e-08
6.8091e-08
4.70062e-08
3.76911e-08
3.09067e-08
7.17786e-08
8.69011e-08
9.40108e-08
9.02487e-08
7.76448e-08
5.58766e-08
2.61069e-08
1.30642e-08
1.91479e-08
2.30896e-08
)
;
    }
    inlet
    {
        type            calculated;
        value           uniform 0;
    }
    outlet
    {
        type            calculated;
        value           uniform 0;
    }
}


// ************************************************************************* //
