/*--------------------------------*- C++ -*----------------------------------*\
| =========                 |                                                 |
| \\      /  F ield         | OpenFOAM: The Open Source CFD Toolbox           |
|  \\    /   O peration     | Version:  2406                                  |
|   \\  /    A nd           | Website:  www.openfoam.com                      |
|    \\/     M anipulation  |                                                 |
\*---------------------------------------------------------------------------*/
FoamFile
{
    version     2.0;
    format      ascii;
    arch        "LSB;label=32;scalar=64";
    class       volScalarField;
    location    "0.6";
    object      p;
}
// * * * * * * * * * * * * * * * * * * * * * * * * * * * * * * * * * * * * * //

dimensions      [0 2 -2 0 0 0 0];

internalField   nonuniform List<scalar> 
25000
(
39.4459
39.3972
39.366
39.3453
39.3351
39.3349
39.3448
39.3651
39.396
39.444
39.3972
39.3426
39.3059
39.2818
39.2698
39.2696
39.2812
39.305
39.3413
39.3952
39.3659
39.3059
39.2643
39.2371
39.2236
39.2233
39.2364
39.2632
39.3044
39.3639
39.3453
39.2818
39.2371
39.2079
39.1935
39.1932
39.2072
39.236
39.2804
39.3433
39.3351
39.2699
39.2236
39.1935
39.1786
39.1784
39.1929
39.2226
39.2685
39.3332
39.335
39.2698
39.2235
39.1934
39.1785
39.1783
39.1928
39.2226
39.2684
39.3332
39.345
39.2814
39.2366
39.2075
39.193
39.1928
39.2069
39.2358
39.2802
39.3433
39.3654
39.3052
39.2635
39.2363
39.2228
39.2227
39.2359
39.2628
39.3042
39.3638
39.3963
39.3416
39.3048
39.2807
39.2687
39.2686
39.2804
39.3042
39.3407
39.3949
39.4444
39.3956
39.3643
39.3437
39.3335
39.3335
39.3435
39.364
39.395
39.4432
37.9714
37.9996
38.0193
38.0327
38.0396
38.0394
38.0324
38.0186
37.9986
37.9696
37.9997
38.0309
38.0531
38.0683
38.0762
38.076
38.0679
38.0524
38.0299
37.998
38.0195
38.0533
38.0783
38.096
38.1052
38.1051
38.0956
38.0777
38.0523
38.0181
38.0334
38.0688
38.0963
38.1159
38.1259
38.1258
38.1155
38.0957
38.0679
38.032
38.0407
38.0771
38.1059
38.1263
38.1367
38.1366
38.1259
38.1053
38.0762
38.0394
38.041
38.0774
38.1062
38.1266
38.137
38.1369
38.1263
38.1056
38.0766
38.0398
38.0345
38.0698
38.0973
38.1168
38.1269
38.1267
38.1164
38.0967
38.0689
38.0332
38.0213
38.0549
38.0799
38.0975
38.1067
38.1066
38.0971
38.0793
38.054
38.0199
38.0018
38.0329
38.055
38.0702
38.0781
38.078
38.0698
38.0544
38.032
38.0002
37.9735
38.0016
38.0213
38.0349
38.0417
38.0416
38.0345
38.0207
38.0007
37.9719
38.0847
38.0813
38.0796
38.0785
38.0777
38.0773
38.0774
38.0779
38.079
38.081
38.0816
38.0786
38.0766
38.0749
38.0739
38.0735
38.0738
38.0747
38.076
38.0779
38.0799
38.0766
38.0743
38.0725
38.0714
38.071
38.0713
38.0724
38.0742
38.0766
38.0789
38.0751
38.0726
38.071
38.0701
38.0698
38.0699
38.071
38.0729
38.076
38.0785
38.0744
38.0719
38.0704
38.0698
38.0695
38.0695
38.0704
38.0725
38.0758
38.0785
38.0745
38.0719
38.0704
38.0699
38.0696
38.0696
38.0706
38.0727
38.0761
38.0791
38.0752
38.0727
38.071
38.0703
38.07
38.0703
38.0715
38.0736
38.0768
38.08
38.0766
38.0742
38.0725
38.0716
38.0714
38.0719
38.0732
38.0751
38.0778
38.0815
38.0784
38.0764
38.0749
38.0741
38.0739
38.0744
38.0755
38.0771
38.0792
38.0842
38.0808
38.0792
38.0783
38.0778
38.0776
38.0779
38.0786
38.0798
38.0821
37.4196
37.4231
37.4264
37.4288
37.4302
37.4304
37.4295
37.4274
37.4246
37.4198
37.4241
37.4287
37.4322
37.4348
37.4362
37.4363
37.4351
37.4327
37.4291
37.4236
37.4272
37.4324
37.4364
37.4392
37.4407
37.4408
37.4394
37.4366
37.4327
37.4269
37.4299
37.4354
37.4395
37.4425
37.4441
37.4441
37.4426
37.4397
37.4355
37.4296
37.4318
37.4374
37.4416
37.4445
37.4461
37.4462
37.4446
37.4416
37.4373
37.4315
37.4328
37.4383
37.4424
37.4453
37.4468
37.4468
37.4452
37.4422
37.4379
37.4321
37.4328
37.438
37.4419
37.4446
37.446
37.4459
37.4443
37.4414
37.4373
37.4316
37.4318
37.4367
37.4402
37.4426
37.4438
37.4437
37.4422
37.4394
37.4356
37.4301
37.43
37.4342
37.4372
37.4393
37.4403
37.4401
37.4387
37.4362
37.4327
37.4275
37.427
37.43
37.4325
37.4344
37.4352
37.435
37.4337
37.4315
37.4286
37.4241
37.2573
37.2553
37.2548
37.2542
37.2536
37.2532
37.2529
37.2528
37.2529
37.2526
37.2572
37.2552
37.2541
37.253
37.2522
37.2516
37.2513
37.2514
37.2516
37.2518
37.2564
37.2544
37.253
37.2517
37.2508
37.2502
37.25
37.2503
37.251
37.2518
37.2561
37.2539
37.2522
37.2507
37.2496
37.2491
37.2492
37.2498
37.2507
37.252
37.2561
37.2538
37.2519
37.2502
37.2491
37.2487
37.2489
37.2497
37.2509
37.2525
37.2564
37.2542
37.2522
37.2505
37.2493
37.2489
37.2492
37.2502
37.2515
37.2531
37.257
37.2549
37.253
37.2514
37.2503
37.2499
37.2502
37.251
37.2523
37.2538
37.2577
37.2559
37.2542
37.2528
37.2519
37.2515
37.2517
37.2524
37.2534
37.2545
37.2584
37.257
37.2556
37.2545
37.2537
37.2534
37.2534
37.2539
37.2546
37.255
37.2601
37.2584
37.2572
37.2564
37.2558
37.2555
37.2555
37.2557
37.2563
37.2564
36.8811
36.8817
36.8832
36.8842
36.8849
36.8852
36.8851
36.8845
36.8833
36.8811
36.8842
36.8853
36.8867
36.8877
36.8883
36.8885
36.8882
36.8874
36.886
36.8839
36.8857
36.8875
36.8891
36.8903
36.8909
36.891
36.8907
36.8898
36.8883
36.8862
36.8873
36.8894
36.8911
36.8922
36.8927
36.8929
36.8927
36.8919
36.8905
36.8884
36.8884
36.8908
36.8925
36.8936
36.894
36.8943
36.8943
36.8937
36.8923
36.8902
36.8893
36.8918
36.8936
36.8947
36.8951
36.8954
36.8955
36.8949
36.8936
36.8916
36.8897
36.8923
36.8942
36.8954
36.896
36.8963
36.8962
36.8956
36.8944
36.8923
36.8897
36.8924
36.8942
36.8955
36.8963
36.8965
36.8963
36.8957
36.8945
36.8924
36.8894
36.8919
36.8936
36.8949
36.8956
36.8959
36.8957
36.8951
36.894
36.8916
36.889
36.8909
36.8923
36.8934
36.8941
36.8944
36.8943
36.8939
36.8934
36.8913
36.6851
36.6831
36.6822
36.6813
36.6807
36.6804
36.6802
36.68
36.6796
36.6794
36.6846
36.6832
36.6823
36.6814
36.6808
36.6804
36.6802
36.6801
36.6801
36.6805
36.6837
36.6827
36.6819
36.6812
36.6806
36.6802
36.68
36.6801
36.6803
36.6807
36.6828
36.682
36.6813
36.6807
36.6802
36.68
36.68
36.6803
36.6806
36.6811
36.6817
36.6811
36.6806
36.6802
36.6798
36.6799
36.6801
36.6806
36.6811
36.6816
36.6807
36.6803
36.68
36.6797
36.6795
36.6798
36.6803
36.6809
36.6815
36.682
36.6797
36.6795
36.6795
36.6795
36.6796
36.6799
36.6806
36.6812
36.682
36.6823
36.6789
36.6789
36.6791
36.6793
36.6796
36.6801
36.6807
36.6815
36.6822
36.6823
36.6784
36.6783
36.6787
36.6791
36.6796
36.6801
36.6808
36.6815
36.6823
36.6817
36.6773
36.6771
36.6779
36.6786
36.6793
36.68
36.6808
36.6818
36.6831
36.6827
36.4319
36.4332
36.4337
36.4342
36.4349
36.4356
36.4361
36.4365
36.4362
36.4365
36.431
36.4331
36.4344
36.4354
36.4364
36.4373
36.438
36.4384
36.4386
36.4392
36.4314
36.4335
36.435
36.4363
36.4375
36.4384
36.4391
36.4396
36.4398
36.44
36.4316
36.4337
36.4354
36.4369
36.4382
36.4392
36.4401
36.4407
36.4409
36.4408
36.4314
36.4335
36.4354
36.4371
36.4384
36.4397
36.4408
36.4415
36.4417
36.4414
36.431
36.433
36.4351
36.4369
36.4384
36.4399
36.4412
36.4419
36.4422
36.4417
36.4305
36.4324
36.4345
36.4365
36.4383
36.4399
36.4411
36.4419
36.4421
36.4415
36.43
36.4316
36.4337
36.4359
36.4377
36.4393
36.4404
36.4412
36.4416
36.4408
36.4298
36.4306
36.4327
36.4348
36.4366
36.4381
36.4393
36.4401
36.4405
36.4393
36.4269
36.4276
36.4304
36.4328
36.4348
36.4365
36.4379
36.4389
36.4401
36.4391
36.2675
36.2693
36.2691
36.2693
36.2696
36.2703
36.2711
36.2721
36.2729
36.2752
36.2645
36.2669
36.2678
36.2685
36.2693
36.2703
36.2715
36.2728
36.2742
36.2766
36.2644
36.2661
36.2671
36.268
36.269
36.27
36.2713
36.2727
36.2742
36.2762
36.2639
36.2653
36.2664
36.2675
36.2685
36.2696
36.2709
36.2726
36.2742
36.2759
36.2633
36.2644
36.2655
36.2667
36.2678
36.2691
36.2707
36.2724
36.274
36.2755
36.2625
36.2633
36.2644
36.2657
36.2671
36.2687
36.2705
36.2722
36.2738
36.275
36.2618
36.2622
36.2633
36.2648
36.2664
36.2682
36.27
36.2718
36.2734
36.2744
36.261
36.2611
36.2622
36.2637
36.2655
36.2674
36.2693
36.2712
36.2728
36.2738
36.2605
36.2599
36.2611
36.2626
36.2645
36.2664
36.2684
36.2703
36.2721
36.2728
36.2573
36.257
36.259
36.2609
36.2631
36.2653
36.2676
36.2698
36.2719
36.2728
36.0836
36.0888
36.0914
36.0943
36.0971
36.0998
36.1024
36.1049
36.1068
36.1098
36.0824
36.0878
36.0915
36.0951
36.0986
36.1019
36.105
36.1078
36.1103
36.1133
36.0843
36.089
36.0928
36.0967
36.1004
36.1037
36.107
36.11
36.1125
36.115
36.086
36.0904
36.0944
36.0985
36.1022
36.1055
36.1088
36.1119
36.1145
36.1167
36.0878
36.0919
36.096
36.1001
36.1038
36.1071
36.1106
36.1137
36.1162
36.118
36.0893
36.0931
36.0972
36.1013
36.1052
36.1089
36.1123
36.1153
36.1175
36.1191
36.0907
36.0942
36.0982
36.1023
36.1063
36.1101
36.1135
36.1163
36.1185
36.1199
36.0918
36.095
36.0989
36.103
36.107
36.1107
36.114
36.1168
36.1189
36.1205
36.0927
36.0956
36.0993
36.1032
36.1071
36.1108
36.114
36.1168
36.1189
36.1207
36.0916
36.0949
36.0989
36.1029
36.1068
36.1104
36.1137
36.1165
36.1187
36.1208
35.9903
35.9933
35.9948
35.9967
35.9982
35.9996
36.0011
36.0028
36.0043
36.0066
35.9891
35.9921
35.9943
35.9965
35.9986
36.0007
36.0028
36.005
36.0071
36.0094
35.9895
35.9921
35.9945
35.997
35.9995
36.0018
36.0041
36.0066
36.0089
36.011
35.9897
35.9923
35.9949
35.9978
36.0004
36.0027
36.0052
36.008
36.0104
36.0125
35.9901
35.9927
35.9955
35.9984
36.0012
36.0036
36.0064
36.0092
36.0117
36.0136
35.9907
35.9931
35.996
35.999
36.0019
36.0048
36.0077
36.0104
36.0127
36.0145
35.9913
35.9936
35.9965
35.9996
36.0027
36.0058
36.0087
36.0113
36.0135
36.0151
35.9919
35.9943
35.997
36.0001
36.0033
36.0064
36.0093
36.0118
36.0139
36.0156
35.9924
35.9951
35.9978
36.0007
36.0037
36.0067
36.0095
36.0119
36.0139
36.0158
35.9926
35.9959
35.9985
36.0012
36.004
36.0067
36.0093
36.0117
36.0135
36.0159
35.9009
35.9027
35.9044
35.9062
35.9077
35.9089
35.9099
35.9109
35.9115
35.9119
35.9029
35.9046
35.9064
35.9084
35.9102
35.9117
35.913
35.9142
35.915
35.9154
35.9048
35.9066
35.9086
35.9108
35.9129
35.9145
35.9159
35.9171
35.918
35.9183
35.9066
35.9086
35.9109
35.9133
35.9155
35.9171
35.9185
35.9199
35.9207
35.921
35.9085
35.9107
35.9132
35.9156
35.9178
35.9194
35.921
35.9222
35.9229
35.9229
35.9104
35.9128
35.9153
35.9177
35.9199
35.9217
35.9232
35.9241
35.9245
35.9243
35.9124
35.9147
35.9171
35.9195
35.9217
35.9235
35.9247
35.9254
35.9255
35.9251
35.9143
35.9165
35.9188
35.9211
35.923
35.9246
35.9255
35.926
35.9259
35.9254
35.9159
35.9183
35.9203
35.9223
35.9239
35.9251
35.9258
35.926
35.9258
35.9252
35.917
35.9198
35.9216
35.9231
35.9243
35.9251
35.9255
35.9256
35.9253
35.9249
35.887
35.885
35.8844
35.8839
35.8834
35.8827
35.8821
35.8816
35.8811
35.8795
35.8901
35.8881
35.887
35.8862
35.8855
35.8846
35.8838
35.8831
35.8823
35.8807
35.8917
35.8902
35.8892
35.8884
35.8875
35.8865
35.8855
35.8846
35.8837
35.8824
35.893
35.8919
35.891
35.8902
35.8893
35.8882
35.8871
35.8861
35.885
35.8837
35.894
35.8932
35.8925
35.8916
35.8906
35.8894
35.8884
35.8871
35.8858
35.8843
35.895
35.8943
35.8936
35.8927
35.8916
35.8904
35.8892
35.8877
35.8861
35.8844
35.8958
35.8952
35.8944
35.8934
35.8922
35.891
35.8894
35.8877
35.8859
35.884
35.8966
35.8958
35.8949
35.8938
35.8925
35.8909
35.8892
35.8873
35.8854
35.8832
35.897
35.8961
35.8951
35.8939
35.8924
35.8906
35.8887
35.8868
35.8849
35.8823
35.8967
35.8958
35.8948
35.8935
35.892
35.8902
35.8884
35.8865
35.8848
35.882
35.8697
35.8683
35.8681
35.8681
35.8684
35.8686
35.8688
35.8688
35.8688
35.8668
35.8743
35.8728
35.8722
35.8719
35.8717
35.8714
35.871
35.8703
35.8695
35.8673
35.8773
35.8763
35.8757
35.8753
35.875
35.8744
35.8736
35.8725
35.8711
35.8692
35.88
35.8794
35.8789
35.8785
35.878
35.8772
35.8761
35.8746
35.8727
35.8706
35.8822
35.882
35.8817
35.8812
35.8805
35.8796
35.8782
35.8762
35.8738
35.8714
35.8842
35.8842
35.884
35.8834
35.8826
35.8814
35.8795
35.877
35.8744
35.8716
35.8861
35.886
35.8858
35.8851
35.884
35.8824
35.8801
35.8773
35.8743
35.8713
35.8878
35.8873
35.8869
35.8861
35.8847
35.8827
35.88
35.8771
35.8741
35.8707
35.8892
35.8881
35.8875
35.8864
35.8848
35.8825
35.8798
35.8769
35.8739
35.8699
35.8888
35.8874
35.887
35.8859
35.8843
35.8822
35.8798
35.8771
35.8744
35.87
35.9202
35.9197
35.9192
35.9192
35.9195
35.9202
35.921
35.9217
35.9226
35.9219
35.9234
35.9227
35.922
35.9217
35.9216
35.9216
35.9217
35.9217
35.9215
35.9203
35.9261
35.9254
35.9247
35.9241
35.9237
35.9233
35.9229
35.9223
35.9216
35.9204
35.9282
35.9276
35.9269
35.9261
35.9255
35.9248
35.9239
35.9227
35.9215
35.9199
35.9297
35.9292
35.9285
35.9277
35.9268
35.9258
35.9245
35.9227
35.9209
35.919
35.9308
35.9303
35.9297
35.9288
35.9277
35.9262
35.9243
35.9221
35.9199
35.9177
35.9317
35.931
35.9304
35.9293
35.9279
35.926
35.9237
35.9212
35.9187
35.9163
35.9323
35.9313
35.9305
35.9293
35.9276
35.9254
35.9229
35.9202
35.9177
35.915
35.9328
35.9311
35.9301
35.9288
35.9269
35.9247
35.9222
35.9196
35.917
35.9138
35.9316
35.9294
35.9289
35.9277
35.9261
35.9241
35.9219
35.9193
35.9167
35.9125
35.9641
35.967
35.9683
35.9704
35.9731
35.9762
35.9794
35.9825
35.9858
35.9885
35.966
35.9686
35.9704
35.9727
35.9754
35.9783
35.9811
35.9836
35.9858
35.9874
35.9692
35.9713
35.9732
35.9756
35.9783
35.9809
35.9833
35.9853
35.9868
35.988
35.9721
35.9742
35.9763
35.9786
35.9811
35.9835
35.9854
35.9866
35.9875
35.9879
35.9747
35.9769
35.9791
35.9814
35.9836
35.9855
35.9868
35.9874
35.9876
35.9875
35.977
35.9792
35.9816
35.9839
35.9858
35.987
35.9875
35.9875
35.9872
35.9868
35.9791
35.9811
35.9835
35.9857
35.9872
35.9878
35.9877
35.9873
35.9867
35.9861
35.9809
35.9826
35.9848
35.9866
35.9877
35.9881
35.9877
35.987
35.9861
35.9856
35.9828
35.9837
35.9856
35.9871
35.9879
35.9881
35.9876
35.9867
35.9857
35.9852
35.9828
35.9834
35.9855
35.9869
35.9877
35.9878
35.9873
35.986
35.9843
35.9825
36.0698
36.0735
36.0752
36.0774
36.0799
36.0826
36.0855
36.0886
36.0917
36.0956
36.0701
36.0734
36.0757
36.0783
36.0812
36.0843
36.0874
36.0905
36.0933
36.0963
36.0721
36.0748
36.0773
36.0802
36.0833
36.0866
36.0897
36.0926
36.0952
36.0976
36.0739
36.0766
36.0794
36.0824
36.0856
36.0888
36.0917
36.0942
36.0965
36.0984
36.0757
36.0784
36.0814
36.0846
36.0877
36.0905
36.0931
36.0953
36.0972
36.0989
36.0773
36.08
36.0831
36.0864
36.0894
36.0917
36.0938
36.0958
36.0976
36.0993
36.0787
36.0813
36.0844
36.0877
36.0904
36.0925
36.0943
36.0962
36.0979
36.0998
36.08
36.0824
36.0854
36.0884
36.0909
36.093
36.0948
36.0964
36.0981
36.1003
36.0813
36.0836
36.0864
36.089
36.0914
36.0934
36.0951
36.0966
36.0982
36.1012
36.0822
36.0845
36.0873
36.0898
36.0919
36.0937
36.095
36.096
36.0964
36.0987
36.1696
36.1725
36.1744
36.1768
36.1793
36.1818
36.1845
36.1874
36.1904
36.1947
36.1713
36.1737
36.176
36.1788
36.1818
36.185
36.1881
36.1913
36.1946
36.1986
36.1734
36.1757
36.1784
36.1817
36.1852
36.1888
36.1923
36.1955
36.1987
36.202
36.1755
36.1781
36.1813
36.185
36.1889
36.1928
36.1963
36.1995
36.2024
36.2052
36.1779
36.1808
36.1845
36.1886
36.1926
36.1964
36.1998
36.2029
36.2056
36.2081
36.1803
36.1836
36.1876
36.192
36.196
36.1994
36.2026
36.2057
36.2085
36.2109
36.1828
36.1862
36.1904
36.1948
36.1988
36.2022
36.2053
36.2083
36.211
36.2137
36.1852
36.1888
36.1929
36.1972
36.2011
36.2046
36.2077
36.2106
36.2133
36.2163
36.1876
36.1917
36.1956
36.1996
36.2033
36.2066
36.2097
36.2126
36.2152
36.2191
36.1909
36.1954
36.1988
36.2022
36.2054
36.2084
36.2111
36.2135
36.2155
36.2197
36.3107
36.3101
36.3106
36.311
36.3115
36.3119
36.3127
36.314
36.3157
36.317
36.3128
36.3119
36.3121
36.3128
36.3135
36.3144
36.3155
36.317
36.3187
36.3201
36.3137
36.3135
36.3141
36.3151
36.3164
36.3177
36.3191
36.3206
36.3224
36.3239
36.3147
36.3152
36.3163
36.3178
36.3194
36.321
36.3225
36.324
36.3257
36.3271
36.3159
36.317
36.3186
36.3204
36.3222
36.3238
36.3254
36.3269
36.3283
36.3296
36.3173
36.3188
36.3207
36.3227
36.3246
36.3261
36.3276
36.3291
36.3304
36.3315
36.3187
36.3205
36.3225
36.3247
36.3266
36.3281
36.3296
36.3311
36.3323
36.3333
36.3203
36.3223
36.3244
36.3265
36.3284
36.33
36.3315
36.3328
36.3338
36.3349
36.3216
36.3245
36.3266
36.3286
36.3303
36.3318
36.3332
36.3343
36.3352
36.3368
36.3249
36.3283
36.3297
36.3313
36.3325
36.3336
36.3345
36.3352
36.3355
36.3374
36.4394
36.4343
36.432
36.4297
36.4278
36.4263
36.4254
36.4253
36.4263
36.4236
36.4398
36.4351
36.4324
36.4302
36.4283
36.4266
36.4253
36.4244
36.4241
36.4216
36.4384
36.4349
36.4327
36.4309
36.4293
36.4279
36.4267
36.4258
36.4253
36.424
36.437
36.4345
36.4329
36.4316
36.4304
36.4294
36.4283
36.4273
36.4266
36.4257
36.4358
36.4341
36.4331
36.4322
36.4314
36.4305
36.4296
36.4285
36.4276
36.4268
36.435
36.4339
36.4333
36.4328
36.4322
36.4314
36.4305
36.4293
36.4281
36.4273
36.4346
36.4339
36.4336
36.4334
36.4329
36.4322
36.4311
36.4298
36.4285
36.4277
36.4349
36.4343
36.4342
36.4341
36.4336
36.4328
36.4317
36.4304
36.429
36.4281
36.4354
36.4352
36.4352
36.435
36.4345
36.4336
36.4325
36.431
36.4295
36.4292
36.4365
36.437
36.4367
36.4365
36.4357
36.4345
36.433
36.4311
36.4288
36.4285
36.5646
36.5597
36.5571
36.5543
36.5517
36.5493
36.5472
36.5452
36.5442
36.5374
36.5631
36.5589
36.556
36.5529
36.5497
36.5464
36.5432
36.5402
36.5373
36.5308
36.5606
36.5573
36.5545
36.5514
36.5481
36.5447
36.5414
36.5381
36.5351
36.5307
36.5576
36.5551
36.5525
36.5496
36.5464
36.5432
36.54
36.5367
36.5337
36.5301
36.5543
36.5523
36.5501
36.5474
36.5446
36.5418
36.5387
36.5353
36.5323
36.5297
36.5512
36.5495
36.5475
36.5453
36.5429
36.5403
36.5372
36.5339
36.531
36.529
36.5486
36.5469
36.5452
36.5433
36.5412
36.5387
36.5357
36.5325
36.5298
36.5284
36.5467
36.5447
36.5432
36.5415
36.5395
36.5371
36.5343
36.5314
36.5289
36.5279
36.545
36.5429
36.5415
36.5402
36.5383
36.5361
36.5335
36.5308
36.5284
36.5282
36.5419
36.5404
36.5401
36.5393
36.5378
36.5357
36.533
36.5299
36.5264
36.5257
36.6447
36.641
36.6383
36.6356
36.6331
36.6307
36.6285
36.6261
36.6246
36.6191
36.6405
36.6375
36.6349
36.6319
36.6289
36.6258
36.6226
36.6196
36.6168
36.6116
36.6367
36.634
36.6313
36.6283
36.625
36.6217
36.6185
36.6154
36.6126
36.6089
36.6324
36.6299
36.6273
36.6244
36.6212
36.618
36.6149
36.6118
36.6092
36.6063
36.628
36.6255
36.623
36.6204
36.6175
36.6148
36.6119
36.6089
36.6065
36.6046
36.6238
36.6213
36.619
36.6167
36.6145
36.6122
36.6094
36.6065
36.6043
36.6033
36.6204
36.6176
36.6156
36.6137
36.612
36.6098
36.6071
36.6046
36.6027
36.6026
36.6176
36.6147
36.6128
36.6112
36.6096
36.6076
36.6054
36.6032
36.6016
36.6022
36.6157
36.6124
36.6107
36.6094
36.608
36.6063
36.6044
36.6026
36.6013
36.603
36.6114
36.6091
36.6087
36.608
36.6071
36.6057
36.6038
36.6018
36.5995
36.6006
36.6804
36.6812
36.6809
36.6803
36.6793
36.6779
36.6761
36.6738
36.6719
36.6684
36.6772
36.6783
36.6784
36.6777
36.6764
36.6747
36.6726
36.6703
36.668
36.6647
36.6762
36.6767
36.6763
36.6753
36.6737
36.6718
36.6696
36.6674
36.6653
36.6627
36.6749
36.6747
36.674
36.6726
36.6707
36.6687
36.6666
36.6645
36.6626
36.6606
36.6734
36.6725
36.6713
36.6698
36.6677
36.6658
36.6638
36.6619
36.6603
36.6591
36.6718
36.6703
36.6687
36.667
36.6654
36.6636
36.6616
36.6598
36.6585
36.6581
36.6702
36.6682
36.6665
36.6648
36.6634
36.6617
36.6598
36.6582
36.6572
36.6577
36.6686
36.6663
36.6646
36.6631
36.6617
36.6601
36.6584
36.657
36.6563
36.6576
36.6671
36.6649
36.6634
36.662
36.6606
36.6592
36.6577
36.6566
36.656
36.6584
36.664
36.6631
36.6625
36.6615
36.6605
36.6592
36.6575
36.6559
36.6541
36.656
36.676
36.6772
36.6782
36.6788
36.6788
36.6782
36.6773
36.6763
36.6761
36.6758
36.6734
36.6748
36.6759
36.6765
36.6766
36.6762
36.6755
36.6748
36.6746
36.6745
36.6723
36.6735
36.6744
36.6749
36.6749
36.6745
36.6739
36.6735
36.6734
36.6736
36.6718
36.6727
36.6733
36.6736
36.6733
36.6728
36.6723
36.672
36.6721
36.6723
36.672
36.6723
36.6726
36.6725
36.6719
36.6712
36.6709
36.6708
36.671
36.6716
36.6725
36.6723
36.672
36.6716
36.6711
36.6705
36.6701
36.67
36.6704
36.6715
36.6728
36.6724
36.6718
36.6712
36.6708
36.6703
36.6699
36.6699
36.6704
36.6721
36.6728
36.6727
36.672
36.6713
36.6709
36.6705
36.6702
36.6703
36.6708
36.6732
36.6725
36.6733
36.6727
36.672
36.6716
36.6712
36.6711
36.6712
36.6718
36.6755
36.6736
36.6754
36.6744
36.6736
36.673
36.6724
36.6719
36.6716
36.6711
36.6747
36.628
36.6272
36.6324
36.6362
36.6387
36.64
36.6407
36.641
36.6419
36.6404
36.6314
36.6305
36.6336
36.6365
36.6387
36.64
36.6408
36.6414
36.6421
36.6413
36.6308
36.6318
36.6347
36.6375
36.6396
36.641
36.642
36.6427
36.6435
36.6436
36.6328
36.6345
36.6371
36.6396
36.6415
36.6426
36.6434
36.644
36.6448
36.6451
36.6365
36.6384
36.6405
36.6424
36.6438
36.6445
36.6449
36.6454
36.6461
36.6467
36.6413
36.6431
36.6444
36.6456
36.6463
36.6466
36.6467
36.6471
36.6476
36.6484
36.6461
36.648
36.6487
36.649
36.6491
36.6491
36.649
36.6491
36.6494
36.6505
36.6506
36.6527
36.653
36.6527
36.6524
36.6519
36.6515
36.6513
36.6513
36.6525
36.6542
36.6576
36.6574
36.6566
36.6557
36.6548
36.654
36.6534
36.6532
36.6551
36.6632
36.6659
36.6635
36.6616
36.6595
36.6578
36.6561
36.6548
36.6535
36.6553
36.5651
36.5517
36.5539
36.5554
36.5569
36.5577
36.5581
36.5581
36.5588
36.555
36.5763
36.5626
36.5598
36.5588
36.5583
36.5578
36.5574
36.5572
36.5573
36.5552
36.575
36.5661
36.5632
36.5618
36.5609
36.5601
36.5594
36.5589
36.5589
36.5583
36.5776
36.571
36.5681
36.5663
36.5652
36.564
36.5626
36.5616
36.5612
36.5609
36.5819
36.5773
36.5743
36.5719
36.5703
36.5686
36.5664
36.5649
36.5641
36.5638
36.5882
36.5849
36.5816
36.5784
36.5755
36.5729
36.5705
36.5686
36.5674
36.5668
36.5954
36.5932
36.5897
36.5857
36.5815
36.5778
36.575
36.5727
36.571
36.5697
36.6034
36.6017
36.5979
36.5932
36.5883
36.5838
36.58
36.577
36.5746
36.5724
36.6113
36.6101
36.6059
36.6005
36.5949
36.5896
36.585
36.5813
36.5782
36.5745
36.626
36.622
36.6149
36.6081
36.6011
36.5949
36.5896
36.5856
36.583
36.5787
36.4698
36.4541
36.4515
36.4493
36.4491
36.4492
36.4493
36.4484
36.4467
36.4414
36.4818
36.4659
36.459
36.4545
36.4517
36.4499
36.4484
36.447
36.4457
36.4432
36.4822
36.4704
36.4634
36.4584
36.455
36.4525
36.4504
36.4485
36.4473
36.4461
36.4847
36.4751
36.4684
36.4631
36.4596
36.4568
36.454
36.4516
36.4501
36.4492
36.487
36.4801
36.474
36.4686
36.4648
36.4619
36.4585
36.4556
36.4538
36.4528
36.4905
36.4858
36.4805
36.4751
36.4702
36.4664
36.463
36.46
36.458
36.4564
36.495
36.4921
36.4877
36.4823
36.4767
36.4717
36.4678
36.4647
36.4623
36.4594
36.5008
36.4985
36.4948
36.4895
36.4837
36.4782
36.4735
36.4697
36.4667
36.4621
36.5072
36.5044
36.501
36.496
36.4903
36.4845
36.4794
36.475
36.4714
36.4633
36.5161
36.5101
36.5064
36.5017
36.4962
36.4906
36.4861
36.4824
36.4815
36.4731
36.323
36.317
36.3121
36.3082
36.3067
36.3067
36.3068
36.3062
36.304
36.3035
36.3209
36.3159
36.3112
36.3072
36.3048
36.3038
36.3033
36.3029
36.3028
36.3051
36.3188
36.3144
36.3097
36.3054
36.3026
36.3012
36.3005
36.3002
36.3006
36.303
36.316
36.3119
36.3074
36.3032
36.3004
36.2992
36.2987
36.2985
36.2993
36.3017
36.3117
36.3084
36.3047
36.3009
36.2983
36.2975
36.2974
36.2977
36.2988
36.3011
36.3072
36.3048
36.3021
36.2993
36.2969
36.2961
36.2965
36.2974
36.2991
36.301
36.3037
36.3015
36.3001
36.2983
36.2968
36.296
36.2965
36.2979
36.2999
36.3007
36.3015
36.299
36.2985
36.2978
36.2971
36.2969
36.2977
36.2992
36.3012
36.3008
36.3023
36.2969
36.2971
36.2974
36.2977
36.2983
36.2995
36.3012
36.3033
36.2996
36.2979
36.2902
36.2933
36.2957
36.2981
36.3002
36.3032
36.3063
36.312
36.309
36.1295
36.1376
36.1368
36.1374
36.139
36.1418
36.1444
36.1463
36.146
36.1523
36.1109
36.1207
36.1244
36.1276
36.1311
36.1349
36.1387
36.1419
36.1448
36.1528
36.1045
36.1115
36.1156
36.1193
36.123
36.1271
36.1313
36.1353
36.1391
36.1457
36.0976
36.1027
36.1065
36.1103
36.1144
36.1187
36.1236
36.1286
36.1335
36.1398
36.0905
36.0934
36.0969
36.1009
36.1052
36.1104
36.1164
36.1224
36.1281
36.1343
36.0832
36.0841
36.0873
36.0916
36.0965
36.1027
36.1097
36.1165
36.1231
36.1294
36.0769
36.0755
36.0784
36.0831
36.089
36.0958
36.1035
36.1111
36.1186
36.1245
36.071
36.0677
36.0704
36.0756
36.0822
36.0898
36.098
36.1063
36.1145
36.1201
36.0678
36.0608
36.0636
36.0692
36.0765
36.0848
36.0935
36.1022
36.1107
36.1145
36.0538
36.0468
36.0536
36.0615
36.0711
36.0811
36.0915
36.1014
36.1127
36.1174
35.8978
35.9125
35.914
35.917
35.9199
35.924
35.9283
35.933
35.9364
35.9485
35.87
35.8852
35.8917
35.898
35.9043
35.9109
35.9177
35.9244
35.9309
35.9431
35.8585
35.8687
35.8753
35.8823
35.8896
35.8968
35.9044
35.9123
35.9197
35.9295
35.8475
35.8541
35.86
35.8672
35.8749
35.8825
35.8908
35.8997
35.9082
35.9174
35.838
35.8408
35.8456
35.8525
35.8604
35.8688
35.8783
35.8879
35.8969
35.9056
35.8293
35.829
35.8325
35.8389
35.8469
35.8565
35.8668
35.8768
35.8862
35.8946
35.8214
35.8187
35.8211
35.827
35.8353
35.8452
35.8559
35.8664
35.8763
35.8843
35.8131
35.8095
35.8113
35.8169
35.8252
35.8353
35.8462
35.857
35.8672
35.8748
35.8061
35.8014
35.8032
35.8086
35.8169
35.8271
35.838
35.8488
35.8591
35.8654
35.7923
35.7891
35.7933
35.7998
35.8095
35.8207
35.8326
35.8441
35.8559
35.8626
35.6635
35.6845
35.6938
35.7025
35.7087
35.7148
35.721
35.7278
35.7338
35.7465
35.6408
35.6594
35.6706
35.6808
35.6901
35.6991
35.7082
35.7174
35.7257
35.7372
35.6296
35.6428
35.653
35.6631
35.6732
35.6829
35.693
35.7034
35.7129
35.7229
35.6196
35.6295
35.6382
35.6479
35.658
35.6679
35.6783
35.6894
35.6994
35.709
35.6128
35.6191
35.626
35.6348
35.6447
35.655
35.6658
35.6766
35.6865
35.6952
35.6076
35.6111
35.6163
35.624
35.6335
35.6442
35.6551
35.6652
35.6745
35.6824
35.6032
35.6051
35.6091
35.6159
35.6248
35.635
35.6454
35.6551
35.6637
35.6708
35.5987
35.6004
35.6039
35.6101
35.6183
35.6278
35.6375
35.6466
35.6546
35.6609
35.5947
35.5972
35.6005
35.6062
35.6139
35.6227
35.6317
35.64
35.6473
35.6529
35.5915
35.5948
35.5979
35.6031
35.6108
35.6197
35.6284
35.6362
35.6428
35.6476
35.3624
35.3777
35.3939
35.407
35.4155
35.4211
35.4258
35.4306
35.436
35.4417
35.3553
35.368
35.3816
35.3934
35.4029
35.4108
35.4178
35.4246
35.4303
35.434
35.3467
35.3581
35.37
35.381
35.3908
35.3993
35.4076
35.416
35.4232
35.428
35.3404
35.3507
35.361
35.3708
35.3802
35.3885
35.3973
35.4065
35.4144
35.4204
35.3381
35.3467
35.355
35.3634
35.3722
35.3806
35.3891
35.3978
35.4054
35.4116
35.3383
35.3452
35.3516
35.3587
35.3667
35.3752
35.3831
35.3905
35.3971
35.4028
35.3394
35.3453
35.3503
35.3563
35.3634
35.3711
35.3781
35.3843
35.3898
35.3951
35.3409
35.3464
35.3507
35.3558
35.3619
35.3685
35.3745
35.3796
35.384
35.389
35.3418
35.3486
35.3522
35.3566
35.3619
35.3675
35.3725
35.3767
35.38
35.3865
35.3485
35.3549
35.3559
35.3588
35.3629
35.3676
35.3713
35.3736
35.3734
35.3791
35.1575
35.1501
35.1601
35.1696
35.1768
35.1812
35.1847
35.1879
35.1935
35.1897
35.1678
35.1605
35.1658
35.1724
35.1779
35.1817
35.1845
35.1869
35.1886
35.1821
35.1655
35.163
35.1678
35.1735
35.1785
35.1823
35.1854
35.1884
35.1906
35.188
35.1664
35.1666
35.1707
35.1751
35.1794
35.1829
35.1861
35.1894
35.1922
35.1922
35.1703
35.1723
35.1754
35.1784
35.182
35.185
35.1876
35.1903
35.1931
35.1951
35.1769
35.1795
35.1815
35.1836
35.186
35.1883
35.1899
35.1918
35.1939
35.1968
35.1842
35.187
35.1883
35.1893
35.1906
35.192
35.1928
35.1937
35.1951
35.1988
35.1919
35.1945
35.195
35.1952
35.1956
35.196
35.196
35.1959
35.1963
35.2009
35.1972
35.2015
35.2014
35.2011
35.2008
35.2004
35.1996
35.1987
35.1983
35.2062
35.2093
35.2135
35.2103
35.2084
35.2065
35.2045
35.2016
35.198
35.1924
35.1995
34.9046
34.8793
34.8742
34.871
34.8694
34.8681
34.8673
34.866
34.8663
34.8536
34.9225
34.8983
34.8885
34.8821
34.8771
34.8726
34.8684
34.8641
34.8597
34.8456
34.9245
34.9068
34.8977
34.891
34.8852
34.8796
34.8741
34.8689
34.8638
34.8536
34.9283
34.9151
34.9068
34.8999
34.8938
34.8877
34.8815
34.8758
34.8705
34.8626
34.9327
34.9234
34.9158
34.9087
34.9023
34.8959
34.8895
34.8833
34.8781
34.8729
34.9385
34.932
34.9249
34.9178
34.911
34.904
34.8971
34.8909
34.886
34.8827
34.9445
34.9398
34.9333
34.9261
34.9186
34.9113
34.9043
34.8981
34.8935
34.8921
34.9502
34.9464
34.94
34.9329
34.9253
34.9179
34.9108
34.9047
34.9001
34.8999
34.953
34.9516
34.9453
34.9383
34.9309
34.9235
34.9165
34.9105
34.9059
34.9089
34.9615
34.9609
34.9525
34.9447
34.9362
34.9277
34.9192
34.9118
34.9039
34.907
34.8012
34.7785
34.7664
34.756
34.7482
34.7415
34.7346
34.7256
34.7154
34.7013
34.8146
34.7911
34.7751
34.7615
34.7499
34.7396
34.73
34.72
34.7094
34.6957
34.8174
34.7963
34.7797
34.765
34.752
34.7402
34.7291
34.7185
34.7082
34.6961
34.8189
34.7999
34.7837
34.7688
34.7554
34.743
34.7313
34.7205
34.7105
34.6998
34.8186
34.8026
34.7873
34.7727
34.7596
34.7475
34.7358
34.7251
34.7158
34.7072
34.8183
34.8051
34.7911
34.7775
34.7651
34.7529
34.7412
34.7309
34.7225
34.7159
34.818
34.8074
34.7951
34.7827
34.7701
34.7577
34.7465
34.737
34.7294
34.7245
34.8179
34.809
34.7977
34.7859
34.7738
34.7622
34.7517
34.7428
34.7359
34.732
34.8159
34.8095
34.7992
34.7883
34.777
34.7662
34.7563
34.7482
34.7418
34.7393
34.8181
34.8132
34.8023
34.7917
34.7804
34.7696
34.7597
34.752
34.7455
34.7441
34.5303
34.5251
34.5132
34.5029
34.4935
34.4836
34.4714
34.4565
34.4395
34.4332
34.536
34.5302
34.5199
34.5094
34.4991
34.4881
34.4752
34.4604
34.4447
34.4352
34.5474
34.538
34.5262
34.5141
34.5022
34.4897
34.4757
34.4603
34.4443
34.4309
34.5543
34.5429
34.5298
34.5164
34.5032
34.4898
34.4755
34.4603
34.4446
34.4303
34.5563
34.5446
34.5311
34.5167
34.5026
34.489
34.475
34.4605
34.446
34.4324
34.5545
34.5437
34.5307
34.5162
34.5017
34.4882
34.4745
34.4606
34.4475
34.4357
34.5506
34.5409
34.5289
34.5156
34.5016
34.4875
34.4736
34.4603
34.4484
34.4386
34.5455
34.5365
34.5253
34.5129
34.4993
34.4852
34.4715
34.459
34.4486
34.4405
34.5397
34.5308
34.5199
34.5079
34.4947
34.4812
34.4683
34.4572
34.4484
34.4412
34.534
34.5251
34.5143
34.5024
34.4895
34.4766
34.4649
34.4559
34.4501
34.4452
34.3874
34.4099
34.4105
34.4158
34.4207
34.4237
34.4216
34.4136
34.3977
34.3907
34.3696
34.3967
34.4106
34.4242
34.4353
34.441
34.4389
34.428
34.4077
34.3869
34.3827
34.4035
34.4175
34.4308
34.4418
34.4467
34.4425
34.429
34.406
34.3777
34.3941
34.4108
34.4222
34.4328
34.4411
34.4436
34.4375
34.4231
34.4003
34.3703
34.4026
34.4154
34.4241
34.4311
34.4356
34.4348
34.4269
34.4123
34.3912
34.3634
34.4066
34.4168
34.4231
34.4264
34.4267
34.4226
34.4129
34.3983
34.3794
34.3564
34.4065
34.4142
34.4183
34.4186
34.4153
34.4083
34.3968
34.3822
34.366
34.3489
34.403
34.4072
34.409
34.407
34.4012
34.3917
34.3793
34.3655
34.3525
34.3413
34.3969
34.3964
34.3953
34.3908
34.3829