/*--------------------------------*- C++ -*----------------------------------*\
| =========                 |                                                 |
| \\      /  F ield         | OpenFOAM: The Open Source CFD Toolbox           |
|  \\    /   O peration     | Version:  2406                                  |
|   \\  /    A nd           | Website:  www.openfoam.com                      |
|    \\/     M anipulation  |                                                 |
\*---------------------------------------------------------------------------*/
FoamFile
{
    version     2.0;
    format      ascii;
    arch        "LSB;label=32;scalar=64";
    class       surfaceScalarField;
    location    "0.6";
    object      phi;
}
// * * * * * * * * * * * * * * * * * * * * * * * * * * * * * * * * * * * * * //

dimensions      [0 3 -1 0 0 0 0];

oriented        oriented;

internalField   nonuniform List<scalar> 
73500
(
4.68045e-05
4.67568e-05
5.71347e-05
-5.17422e-05
-5.17163e-05
3.80292e-05
4.7451e-05
6.50371e-05
-5.25389e-05
2.67935e-05
4.78263e-05
7.08651e-05
-5.32606e-05
1.38807e-05
4.79376e-05
7.4722e-05
-5.35193e-05
1.54776e-07
4.79613e-05
7.66425e-05
-5.36298e-05
-1.35808e-05
4.79541e-05
7.66482e-05
-5.36247e-05
-2.65205e-05
4.79153e-05
7.4739e-05
-5.35039e-05
-3.77948e-05
4.77919e-05
7.08931e-05
-5.32393e-05
-4.66144e-05
4.74117e-05
6.50754e-05
-5.25131e-05
4.67198e-05
5.71815e-05
-5.16664e-05
-5.16829e-05
4.74909e-05
3.79683e-05
6.50366e-05
-5.25739e-05
3.83678e-05
3.83209e-05
7.30526e-05
2.68286e-05
3.8424e-05
7.85378e-05
1.38408e-05
3.83972e-05
8.20108e-05
1.73451e-07
3.83544e-05
8.37014e-05
-1.35066e-05
3.8346e-05
8.37058e-05
-2.65244e-05
3.83737e-05
8.20238e-05
-3.81041e-05
3.83874e-05
7.85592e-05
-4.72779e-05
3.82751e-05
7.30826e-05
3.79229e-05
6.50752e-05
-5.24767e-05
4.78692e-05
2.67184e-05
7.08621e-05
-5.33092e-05
3.84677e-05
2.67727e-05
7.85358e-05
2.67639e-05
2.67164e-05
8.36308e-05
1.37665e-05
2.66205e-05
8.67693e-05
1.83075e-07
2.65512e-05
8.82683e-05
-1.34128e-05
2.65437e-05
8.82718e-05
-2.6443e-05
2.65977e-05
8.67798e-05
-3.819e-05
2.66816e-05
8.36483e-05
-4.76422e-05
2.67315e-05
7.85603e-05
2.66761e-05
7.08938e-05
-5.31994e-05
4.79928e-05
1.3796e-05
7.47146e-05
-5.35845e-05
3.84458e-05
1.37769e-05
8.20054e-05
2.66672e-05
1.3714e-05
8.67663e-05
1.3689e-05
1.36411e-05
8.96445e-05
1.86325e-07
1.3592e-05
9.09987e-05
-1.33299e-05
1.35844e-05
9.10016e-05
-2.63396e-05
1.36214e-05
8.96533e-05
-3.8158e-05
1.36857e-05
8.67813e-05
-4.77533e-05
1.37438e-05
8.20265e-05
1.37631e-05
7.47416e-05
-5.34609e-05
4.8031e-05
6.50475e-08
7.66294e-05
-5.37127e-05
3.84116e-05
1.07796e-07
8.36914e-05
2.66016e-05
1.32611e-07
8.82614e-05
1.36399e-05
1.42472e-07
9.09951e-05
1.8427e-07
1.42179e-07
9.22708e-05
-1.32823e-05
1.36211e-07
9.22734e-05
-2.62721e-05
1.25531e-07
9.1003e-05
-3.81174e-05
1.09538e-07
8.8275e-05
-4.77785e-05
8.45696e-08
8.37109e-05
4.51571e-08
7.6654e-05
-5.35732e-05
4.80377e-05
-1.36691e-05
7.66281e-05
-5.37234e-05
3.84133e-05
-1.35648e-05
8.369e-05
2.6599e-05
-1.34537e-05
8.82598e-05
1.36348e-05
-1.33629e-05
9.09934e-05
1.79459e-07
-1.33145e-05
9.2269e-05
-1.3286e-05
-1.33214e-05
9.22716e-05
-2.62733e-05
-1.33799e-05
9.10013e-05
-3.81152e-05
-1.3474e-05
8.82734e-05
-4.77748e-05
-1.35814e-05
8.37092e-05
-1.3677e-05
7.66523e-05
-5.35693e-05
4.80104e-05
-2.66005e-05
7.47113e-05
-5.36155e-05
3.84481e-05
-2.65716e-05
8.20016e-05
2.66577e-05
-2.6472e-05
8.67621e-05
1.36736e-05
-2.63622e-05
8.96397e-05
1.69497e-07
-2.62984e-05
9.09937e-05
-1.33415e-05
-2.63066e-05
9.09965e-05
-2.63424e-05
-2.63819e-05
8.96483e-05
-3.81533e-05
-2.64955e-05
8.67764e-05
-4.77432e-05
-2.65884e-05
8.20216e-05
-2.66002e-05
7.47366e-05
-5.345e-05
4.78904e-05
-3.78632e-05
7.08579e-05
-5.3357e-05
3.8464e-05
-3.81387e-05
7.85305e-05
2.67436e-05
-3.8208e-05
8.36247e-05
1.37373e-05
-3.81762e-05
8.67622e-05
1.53761e-07
-3.81433e-05
8.82605e-05
-1.34328e-05
-3.81521e-05
8.82637e-05
-2.64512e-05
-3.82022e-05
8.67717e-05
-3.81847e-05
-3.82409e-05
8.36402e-05
-4.76286e-05
-3.81622e-05
7.8552e-05
-3.78616e-05
7.08853e-05
-5.3186e-05
4.75045e-05
-4.66621e-05
6.50334e-05
-5.26348e-05
3.8349e-05
-4.7298e-05
7.30473e-05
2.67921e-05
-4.76559e-05
7.85308e-05
1.3798e-05
-4.77713e-05
8.2002e-05
1.33392e-07
-4.78088e-05
8.36913e-05
-1.35362e-05
-4.78205e-05
8.36949e-05
-2.65391e-05
-4.78025e-05
8.20125e-05
-3.81027e-05
-4.76989e-05
7.85477e-05
-4.72659e-05
-4.7342e-05
7.30707e-05
-4.66832e-05
6.50631e-05
-5.24618e-05
4.67964e-05
5.71349e-05
-5.16621e-05
-5.18054e-05
3.79882e-05
6.50338e-05
-5.24784e-05
2.67415e-05
7.08583e-05
-5.32082e-05
1.3829e-05
7.47119e-05
-5.34784e-05
1.08982e-07
7.66299e-05
-5.36034e-05
-1.36159e-05
7.6634e-05
-5.36136e-05
-2.65416e-05
7.47238e-05
-5.35081e-05
-3.78033e-05
7.08775e-05
-5.3256e-05
-4.66143e-05
6.50595e-05
-5.2546e-05
5.71662e-05
-5.16486e-05
-5.17376e-05
1.81117e-05
1.78227e-05
5.59577e-05
-1.734e-05
-1.71953e-05
1.63389e-05
1.99404e-05
6.59683e-05
-1.88765e-05
1.23774e-05
2.13475e-05
7.38639e-05
-2.01515e-05
6.91022e-06
2.22397e-05
7.92441e-05
-2.10625e-05
6.44191e-07
2.26513e-05
8.19724e-05
-2.14863e-05
-5.65318e-06
2.26222e-05
8.20119e-05
-2.14643e-05
-1.12124e-05
2.21552e-05
7.93632e-05
-2.10005e-05
-1.53261e-05
2.122e-05
7.40608e-05
-2.00601e-05
-1.7299e-05
1.97992e-05
6.62342e-05
-1.87786e-05
1.7704e-05
5.62746e-05
-1.68387e-05
-1.70974e-05
2.01607e-05
1.59399e-05
6.59689e-05
-1.90001e-05
1.82131e-05
1.78981e-05
7.72369e-05
1.37364e-05
1.91343e-05
8.54281e-05
7.58864e-06
1.98733e-05
9.07283e-05
5.93397e-07
2.02091e-05
9.33402e-05
-6.43307e-06
2.01783e-05
9.33697e-05
-1.26671e-05
1.97863e-05
9.08184e-05
-1.72827e-05
1.90015e-05
8.55814e-05
-1.94189e-05
1.77417e-05
7.74542e-05
1.57978e-05
6.62455e-05
-1.8544e-05
2.15442e-05
1.18922e-05
7.38556e-05
-2.028e-05
1.94096e-05
1.334e-05
8.54204e-05
1.4588e-05
1.42421e-05
9.35484e-05
8.00895e-06
1.47651e-05
9.8666e-05
5.4949e-07
1.5e-05
0.000101142
-6.93843e-06
1.49731e-05
0.000101165
-1.36007e-05
1.46859e-05
9.87363e-05
-1.85527e-05
1.41201e-05
9.36702e-05
-2.08598e-05
1.31934e-05
8.55978e-05
1.17433e-05
7.40886e-05
-1.98567e-05
2.24497e-05
6.36833e-06
7.92148e-05
-2.12154e-05
2.0146e-05
7.13401e-06
9.07052e-05
1.50945e-05
7.60909e-06
9.86532e-05
8.25104e-06
7.87757e-06
0.000103586
5.16137e-07
7.9939e-06
0.000105948
-7.24726e-06
7.97074e-06
0.000105967
-1.41682e-05
7.81207e-06
0.000103644
-1.93373e-05
7.50761e-06
9.87541e-05
-2.17974e-05
7.00542e-06
9.08542e-05
6.22449e-06
7.94129e-05
-2.08045e-05
2.28911e-05
7.22636e-08
8.19118e-05
-2.16692e-05
2.04999e-05
1.07011e-07
9.32947e-05
1.5336e-05
1.22618e-07
0.000101112
8.36358e-06
1.21387e-07
0.000105933
4.93614e-07
1.09794e-07
0.000108231
-7.40108e-06
9.23222e-08
0.000108247
-1.44446e-05
6.96936e-08
0.000105984
-1.97163e-05
4.11895e-08
0.000101201
-2.22486e-05
1.43303e-09
9.34265e-05
-5.65275e-08
8.20876e-05
-2.12574e-05
2.28993e-05
-6.22527e-06
8.19125e-05
-2.16812e-05
2.05011e-05
-6.91995e-06
9.32962e-05
1.53303e-05
-7.36583e-06
0.000101113
8.35313e-06
-7.63918e-06
0.000105934
4.82248e-07
-7.77968e-06
0.000108231
-7.41192e-06
-7.79442e-06
0.000108246
-1.44529e-05
-7.68095e-06
0.000105982
-1.97206e-05
-7.4306e-06
0.000101198
-2.22504e-05
-7.00592e-06
9.3421e-05
-6.33567e-06
8.20788e-05
-2.12578e-05
2.24721e-05
-1.17516e-05
7.92183e-05
-2.12514e-05
2.01453e-05
-1.31287e-05
9.07109e-05
1.50742e-05
-1.40057e-05
9.86583e-05
8.21845e-06
-1.45401e-05
0.00010359
4.78238e-07
-1.4806e-05
0.000105949
-7.28181e-06
-1.48194e-05
0.000105965
-1.4194e-05
-1.45767e-05
0.000103638
-1.93538e-05
-1.40624e-05
9.87437e-05
-2.18048e-05
-1.3203e-05
9.0837e-05
-1.18469e-05
7.9386e-05
-2.08074e-05
2.15707e-05
-1.58007e-05
7.38661e-05
-2.03391e-05
1.93971e-05
-1.76915e-05
8.54332e-05
1.45453e-05
-1.89139e-05
9.35594e-05
7.94726e-06
-1.96756e-05
9.8673e-05
4.80932e-07
-2.00491e-05
0.000101144
-7.00134e-06
-2.00613e-05
0.000101161
-1.36517e-05
-1.97132e-05
9.87258e-05
-1.85871e-05
-1.89719e-05
9.36511e-05
-2.08791e-05
-1.77634e-05
8.55674e-05
-1.58865e-05
7.40427e-05
-1.98703e-05
2.01754e-05
-1.7675e-05
6.59916e-05
-1.90817e-05
1.81721e-05
-1.97471e-05
7.72604e-05
1.36599e-05
-2.11601e-05
8.54473e-05
7.49296e-06
-2.20857e-05
9.07403e-05
4.91036e-07
-2.25397e-05
9.33433e-05
-6.52948e-06
-2.25536e-05
9.33629e-05
-1.27491e-05
-2.21264e-05
9.08005e-05
-1.73434e-05
-2.12246e-05
8.55504e-05
-1.94602e-05
-1.98373e-05
7.74076e-05
-1.77786e-05
6.61801e-05
-1.85737e-05
1.809e-05
5.59939e-05
-1.70656e-05
-1.74226e-05
1.62554e-05
6.60037e-05
-1.87662e-05
1.22625e-05
7.38917e-05
-2.00764e-05
6.7801e-06
7.92597e-05
-2.10246e-05
5.08342e-07
8.19735e-05
-2.14854e-05
-5.78523e-06
8.19973e-05
-2.14977e-05
-1.13317e-05
7.93317e-05
-2.10637e-05
-1.54268e-05
7.40114e-05
-2.01442e-05
-1.73802e-05
6.61668e-05
-1.88811e-05
5.61909e-05
-1.689e-05
-1.72153e-05
1.09239e-05
9.9477e-06
5.42412e-05
-9.7348e-06
-9.08095e-06
1.03306e-05
1.18525e-05
6.55675e-05
-1.05266e-05
8.32581e-06
1.31902e-05
7.47342e-05
-1.17128e-05
5.21448e-06
1.40465e-05
8.11563e-05
-1.25169e-05
1.46684e-06
1.44535e-05
8.44926e-05
-1.29116e-05
-2.35064e-06
1.44325e-05
8.46006e-05
-1.29047e-05
-5.66588e-06
1.39916e-05
8.14772e-05
-1.25074e-05
-8.00545e-06
1.3131e-05
7.52564e-05
-1.17199e-05
-9.0278e-06
1.18579e-05
6.62635e-05
-1.06074e-05
1.00877e-05
5.50622e-05
-8.47462e-06
-9.23586e-06
1.25785e-05
9.13528e-06
6.55563e-05
-1.10409e-05
1.19311e-05
1.10293e-05
7.89883e-05
9.49752e-06
1.22743e-05
8.90527e-05
5.75254e-06
1.30302e-05
9.5758e-05
1.28751e-06
1.3376e-05
9.91374e-05
-3.2402e-06
1.33447e-05
9.92208e-05
-7.15914e-06
1.29506e-05
9.601e-05
-9.87189e-06
1.21757e-05
8.94763e-05
-1.09005e-05
1.09677e-05
7.95815e-05
9.21248e-06
6.63027e-05
-9.92009e-06
1.37589e-05
6.95736e-06
7.46868e-05
-1.21207e-05
1.30017e-05
8.44327e-06
8.90193e-05
1.02604e-05
9.39269e-06
9.94306e-05
6.0852e-06
9.9412e-06
0.00010618
1.14026e-06
1.01798e-05
0.000109517
-3.85598e-06
1.01481e-05
0.000109582
-8.18643e-06
9.85135e-06
0.00010638
-1.11809e-05
9.27258e-06
9.97763e-05
-1.22794e-05
8.35104e-06
8.95223e-05
6.98007e-06
7.53444e-05
-1.11413e-05
1.45541e-05
3.74236e-06
8.104e-05
-1.28889e-05
1.36807e-05
4.58902e-06
9.56697e-05
1.07187e-05
5.10865e-06
0.000106133
6.26966e-06
5.39302e-06
0.000112813
1.03574e-06
5.50418e-06
0.000116077
-4.24769e-06
5.47157e-06
0.000116129
-8.83547e-06
5.30647e-06
0.000112978
-1.20205e-05
4.99012e-06
0.000106424
-1.32044e-05
4.4769e-06
9.61055e-05
3.71275e-06
8.1623e-05
-1.19868e-05
1.49524e-05
-4.42514e-08
8.42773e-05
-1.32771e-05
1.40094e-05
6.62433e-08
9.89743e-05
1.09327e-05
1.05242e-07
0.000109411
6.34514e-06
1.02302e-07
0.000116025
9.70403e-07
8.1085e-08
0.00011923
-4.44529e-06
5.41053e-08
0.000119275
-9.15891e-06
2.37936e-08
0.000116169
-1.24428e-05
-8.84309e-09
0.000109672
-1.36685e-05
-5.05183e-08
9.93702e-05
-1.13818e-07
8.48132e-05
-1.24126e-05
1.49557e-05
-3.82209e-06
8.42606e-05
-1.32861e-05
1.40059e-05
-4.44861e-06
9.89637e-05
1.09196e-05
-4.89555e-06
0.000109403
6.32456e-06
-5.18687e-06
0.000116019
9.4632e-07
-5.3403e-06
0.000119224
-4.47249e-06
-5.36625e-06
0.000119267
-9.18454e-06
-5.25946e-06
0.000116158
-1.24627e-05
-5.00385e-06
0.000109656
-1.36841e-05
-4.57414e-06
9.93472e-05
-3.92883e-06
8.4781e-05
-1.24219e-05
1.45592e-05
-7.01603e-06
8.09938e-05
-1.29142e-05
1.36611e-05
-8.29096e-06
9.56403e-05
1.06752e-05
-9.1705e-06
0.000106112
6.20556e-06
-9.73129e-06
0.000112795
9.56215e-07
-1.00174e-05
0.000116056
-4.33048e-06
-1.00429e-05
0.000116103
-8.91284e-06
-9.80425e-06
0.000112942
-1.20872e-05
-9.28423e-06
0.000106375
-1.32532e-05
-8.43163e-06
9.60362e-05
-7.16128e-06
8.15276e-05
-1.20183e-05
1.37483e-05
-9.15802e-06
7.46217e-05
-1.21532e-05
1.29526e-05
-1.08597e-05
8.89778e-05
1.01728e-05
-1.20488e-05
9.94004e-05
5.96534e-06
-1.2823e-05
0.000106151
9.99357e-07
-1.32178e-05
0.000109483
-4.00357e-06
-1.32448e-05
0.000109538
-8.32712e-06
-1.29054e-05
0.000106319
-1.13001e-05
-1.21796e-05
9.96921e-05
-1.23721e-05
-1.10266e-05
8.94069e-05
-9.34069e-06
7.51896e-05
-1.12052e-05
1.25254e-05
-9.92305e-06
6.54873e-05
-1.10663e-05
1.18267e-05
-1.168e-05
7.89445e-05
9.35032e-06
-1.29784e-05
8.90211e-05
5.5682e-06
-1.38584e-05
9.57258e-05
1.07653e-06
-1.43129e-05
9.90949e-05
-3.4599e-06
-1.43449e-05
9.91598e-05
-7.37093e-06
-1.39536e-05
9.59232e-05
-1.00581e-05
-1.31325e-05
8.93563e-05
-1.10484e-05
-1.18932e-05
7.94212e-05
-1.01621e-05
6.60972e-05
-1.00248e-05
1.0802e-05
5.41796e-05
-9.04474e-06
-9.72397e-06
1.01596e-05
6.55297e-05
-1.04406e-05
8.11568e-06
7.47093e-05
-1.16208e-05
4.96906e-06
8.1128e-05
-1.24464e-05
1.19142e-06
8.44467e-05
-1.28756e-05
-2.6419e-06
8.45259e-05
-1.29068e-05
-5.95237e-06
8.1365e-05
-1.25437e-05
-8.26546e-06
7.51005e-05
-1.17798e-05
-9.24642e-06
6.60617e-05
-1.06878e-05
5.48213e-05
-8.62147e-06
-9.33373e-06
4.03671e-06
1.42608e-06
5.31234e-05
-2.99362e-06
-1.15881e-06
4.4683e-06
2.62496e-06
6.45772e-05
-1.8627e-06
4.2736e-06
3.57333e-06
7.41264e-05
-2.54623e-06
3.52408e-06
4.20195e-06
8.09519e-05
-3.01942e-06
2.42129e-06
4.53463e-06
8.45806e-05
-3.28562e-06
1.21553e-06
4.58859e-06
8.47902e-05
-3.33481e-06
1.6416e-07
4.38069e-06
8.15709e-05
-3.18755e-06
-5.44513e-07
3.92807e-06
7.51227e-05
-2.86028e-06
-7.87966e-07
3.27218e-06
6.58866e-05
-2.43333e-06
2.44978e-06
5.46406e-05
-6.99969e-07
-1.95547e-06
4.57398e-06
1.37383e-06
6.4508e-05
-3.28491e-06
5.0786e-06
2.76264e-06
7.85281e-05
4.70737e-06
3.76387e-06
8.94183e-05
3.61909e-06
4.39634e-06
9.68451e-05
2.10021e-06
4.71273e-06
0.000100674
4.91266e-07
4.75704e-06
0.000100849
-8.51215e-07
4.55775e-06
9.73712e-05
-1.64418e-06
4.10221e-06
9.02914e-05
-1.72466e-06
3.38492e-06
7.9728e-05
2.4378e-06
6.59793e-05
-1.24965e-06
5.04558e-06
8.60235e-07
7.39411e-05
-3.60253e-06
5.56608e-06
2.12052e-06
8.93087e-05
5.04652e-06
2.99042e-06
0.000100907
3.6905e-06
3.50647e-06
0.000108608
1.85445e-06
3.74918e-06
0.000112494
-5.38329e-08
3.78918e-06
0.00011264
-1.63539e-06
3.64414e-06
0.000109054
-2.53811e-06
3.29055e-06
0.000101671
-2.54888e-06
2.70424e-06
9.03982e-05
1.88915e-06
7.5328e-05
-1.84365e-06
5.41017e-06
-3.1894e-08
8.05901e-05
-3.88354e-06
5.91089e-06
8.68985e-07
9.65872e-05
5.26382e-06
1.45925e-06
0.000108476
3.72521e-06
1.79621e-06
0.000116231
1.69413e-06
1.94737e-06
0.000120075
-4.0716e-07
1.97895e-06
0.000120198
-2.15028e-06
1.91736e-06
0.000116616
-3.14417e-06
1.72848e-06
0.000109158
-3.14024e-06
1.38497e-06
9.75898e-05
8.9096e-07
8.19005e-05
-2.27834e-06
5.60442e-06
-1.1407e-06
8.39843e-05
-4.02469e-06
6.08496e-06
-7.14745e-07
0.00010023
5.36704e-06
-4.60706e-07
0.00011221
3.73074e-06
-3.27355e-07
0.000119943
1.60929e-06
-2.59574e-07
0.000123708
-5.70991e-07
-2.26417e-07
0.000123815
-2.40113e-06
-2.17605e-07
0.000120292
-3.45726e-06
-2.27263e-07
0.000112847
-3.45062e-06
-2.6562e-07
0.000101185
-3.50558e-07
8.52535e-05
-2.5129e-06
5.60888e-06
-2.20343e-06
8.3908e-05
-4.0184e-06
6.09565e-06
-2.26419e-06
0.00010018
5.37285e-06
-2.35884e-06
0.000112178
3.72814e-06
-2.43093e-06
0.000119921
1.5983e-06
-2.44778e-06
0.000123691
-5.92867e-07
-2.41966e-06
0.000123797
-2.42857e-06
-2.33679e-06
0.000120267
-3.4837e-06
-2.16302e-06
0.000112811
-3.47562e-06
-1.89993e-06
0.000101134
-1.56744e-06
8.51851e-05
-2.52971e-06
5.41224e-06
-2.95991e-06
8.03653e-05
-3.85579e-06
5.9245e-06
-3.42796e-06
9.64377e-05
5.27257e-06
-3.81797e-06
0.000108376
3.71214e-06
-4.08189e-06
0.00011616
1.65152e-06
-4.19917e-06
0.000120015
-4.72525e-07
-4.17973e-06
0.000120135
-2.23119e-06
-4.01656e-06
0.000116535
-3.23024e-06
-3.67959e-06
0.000109047
-3.21329e-06
-3.16091e-06
9.74386e-05
-2.49409e-06
8.16988e-05
-2.33013e-06
5.00509e-06
-3.22243e-06
7.35797e-05
-3.53799e-06
5.54833e-06
-3.90907e-06
8.90605e-05
5.02387e-06
-4.47814e-06
0.000100735
3.6419e-06
-4.87761e-06
0.00010848
1.769e-06
-5.07719e-06
0.000112383
-1.74432e-07
-5.0708e-06
0.000112522
-1.77761e-06
-4.85441e-06
0.000108909
-2.67953e-06
-4.4116e-06
0.000101482
-2.6729e-06
-3.75615e-06
9.01487e-05
-2.9287e-06
7.50049e-05
-1.93459e-06
4.40677e-06
-2.90678e-06
6.4032e-05
-3.11642e-06
4.94573e-06
-3.55168e-06
7.81827e-05
4.59266e-06
-4.13228e-06
8.917e-05
3.49443e-06
-4.56369e-06
9.66559e-05
1.94508e-06
-4.79522e-06
0.000100508
3.07889e-07
-4.8045e-06
0.000100674
-1.05159e-06
-4.58624e-06
9.71608e-05
-1.83803e-06
-4.14565e-06
9.00238e-05
-1.88795e-06
-3.53396e-06
7.93873e-05
-2.80052e-06
6.55579e-05
-1.37391e-06
3.63492e-06
5.25543e-05
-2.14398e-06
-2.65803e-06
4.11359e-06
6.41298e-05
-2.52737e-06
3.9757e-06
7.37928e-05
-2.96405e-06
3.26456e-06
8.06952e-05
-3.30114e-06
2.16981e-06
8.43568e-05
-3.49088e-06
9.6172e-07
8.45576e-05
-3.50792e-06
-8.30457e-08
8.12952e-05
-3.35323e-06
-7.64499e-07
7.47798e-05
-3.03031e-06
-9.6983e-07
6.54661e-05
-2.63079e-06
5.41534e-05
-8.30117e-07
-2.20125e-06
4.52771e-06
-3.47957e-07
5.29535e-05
-3.54735e-06
-8.65098e-08
4.87417e-06
7.083e-07
6.46171e-05
-7.26069e-07
4.80639e-06
1.57046e-06
7.43986e-05
-1.3901e-06
4.34653e-06
2.15037e-06
8.14612e-05
-1.83201e-06
3.61022e-06
2.49865e-06
8.52836e-05
-2.11969e-06
2.7129e-06
2.64115e-06
8.56093e-05
-2.24047e-06
1.77682e-06
2.59885e-06
8.2422e-05
-2.21905e-06
9.03696e-07
2.38039e-06
7.59414e-05
-2.05989e-06
2.01952e-07
1.99868e-06
6.66384e-05
-1.79349e-06
1.4403e-06
5.52839e-05
-2.89145e-07
-1.40904e-06
4.60192e-06
-8.90676e-07
6.44139e-05
-3.62426e-06
4.93628e-06
3.75423e-07
7.88342e-05
4.76159e-06
1.31301e-06
9.01455e-05
4.15538e-06
1.93124e-06
9.79578e-05
3.25513e-06
2.28348e-06
0.000102058
2.21318e-06
2.42452e-06
0.000102347
1.20009e-06
2.39524e-06
9.88214e-05
3.50948e-07
2.1749e-06
9.1571e-05
-2.49672e-07
1.74593e-06
8.07765e-05
1.1164e-06
6.67705e-05
-5.6357e-07
4.62252e-06
-1.54144e-06
7.39103e-05
-3.63878e-06
4.95106e-06
-2.58669e-07
8.98775e-05
4.70371e-06
6.55656e-07
0.000102082
3.97115e-06
1.22849e-06
0.000110296
2.92957e-06
1.53884e-06
0.000114508
1.77369e-06
1.67736e-06
0.000114762
6.81156e-07
1.67602e-06
0.000111067
-1.80302e-07
1.50362e-06
0.000103397
-7.06764e-07
1.13576e-06
9.17335e-05
5.49227e-07
7.62436e-05
-9.084e-07
4.65074e-06
-2.24114e-06
8.0601e-05
-3.68635e-06
4.96011e-06
-1.10908e-06
9.7366e-05
4.64346e-06
-3.27553e-07
0.000110001
3.81993e-06
1.57457e-07
0.000118341
2.69178e-06
4.17476e-07
0.000122519
1.45379e-06
5.43584e-07
0.000122742
3.04983e-07
5.84239e-07
0.000119037
-5.68933e-07
4.90192e-07
0.000111231
-1.05757e-06
2.27401e-07
9.91566e-05
-2.20093e-07
8.29101e-05
-1.15357e-06
4.63933e-06
-2.94733e-06
8.39662e-05
-3.67331e-06
4.93584e-06
-2.06241e-06
0.000101086
4.58432e-06
-1.45621e-06
0.000113893
3.70966e-06
-1.07993e-06
0.000122239
2.54508e-06
-8.56161e-07
0.000126306
1.29033e-06
-7.27314e-07
0.000126497
1.07923e-07
-6.73972e-07
0.00012289
-7.87634e-07
-6.93747e-07
0.000115087
-1.24922e-06
-8.14745e-07
0.000102858
-1.08422e-06
8.62882e-05
-1.2858e-06
4.57169e-06
-3.54034e-06
8.37565e-05
-3.60502e-06
4.88334e-06
-2.938e-06
0.00010093
4.53746e-06
-2.53555e-06
0.00011378
3.66353e-06
-2.27401e-06
0.000122156
2.49652e-06
-2.09045e-06
0.000126245
1.23456e-06
-1.97096e-06
0.000126441
5.50674e-08
-1.90044e-06
0.00012282
-8.26103e-07
-1.84274e-06
0.000115
-1.27287e-06
-1.82991e-06
0.000102747
-1.90697e-06
8.61491e-05
-1.28613e-06
4.4197e-06
-3.91078e-06
7.9975e-05
-3.45596e-06
4.76621e-06
-3.5764e-06
9.68951e-05
4.48293e-06
-3.35912e-06
0.000109651
3.66936e-06
-3.21669e-06
0.000118076
2.53417e-06
-3.10021e-06
0.000122305
1.29655e-06
-2.9977e-06
0.000122541
1.5968e-07
-2.8982e-06
0.000118814
-6.82993e-07
-2.77151e-06
0.000110963
-1.11206e-06
-2.63721e-06
9.88235e-05
-2.55326e-06
8.24979e-05
-1.14511e-06
4.14995e-06
-3.96565e-06
7.28812e-05
-3.21344e-06
4.54226e-06
-3.82949e-06
8.90775e-05
4.35808e-06
-3.74965e-06
0.000101465
3.66721e-06
-3.70481e-06
0.000109809
2.64759e-06
-3.65282e-06
0.000114097
1.51004e-06
-3.57486e-06
0.000114375
4.56726e-07
-3.45891e-06
0.00011066
-3.31694e-07
-3.28751e-06
0.000102929
-7.66226e-07
-3.08868e-06
9.11746e-05
-2.90123e-06
7.55738e-05
-8.76753e-07
3.72865e-06
-3.66446e-06
6.30157e-05
-2.85079e-06
4.15616e-06
-3.62353e-06
7.76897e-05
4.10545e-06
-3.61297e-06
8.92246e-05
3.61203e-06
-3.62162e-06
9.72062e-05
2.80135e-06
-3.61156e-06
0.000101412
1.84915e-06
-3.55945e-06
0.000101741
9.37674e-07
-3.45394e-06
9.81995e-05
2.13269e-07
-3.29107e-06
9.08845e-05
-2.40849e-07
-3.11244e-06
7.9992e-05
-2.91802e-06
6.58748e-05
-4.45314e-07
3.1179e-06
5.12537e-05
-2.94757e-06
-2.41379e-06
3.5439e-06
6.31189e-05
-2.9354e-06
3.6673e-06
7.3135e-05
-2.96877e-06
3.44995e-06
8.04008e-05
-2.99952e-06
2.94503e-06
8.43625e-05
-3.00355e-06
2.26791e-06
8.47531e-05
-2.96969e-06
1.55071e-06
8.15612e-05
-2.8961e-06
8.88923e-07
7.5023e-05
-2.76896e-06
3.62169e-07
6.56363e-05
-2.66078e-06
5.42152e-05
-3.59947e-08
-2.51459e-06
3.48931e-06
-2.56611e-06
5.27444e-05
-2.37796e-06
1.7536e-06
4.19667e-06
-2.02231e-06
6.44998e-05
1.53811e-06
4.56396e-06
-1.42235e-06
7.44553e-05
1.12489e-06
4.57549e-06
-9.5569e-07
8.17075e-05
8.31133e-07
4.31024e-06
-6.24726e-07
8.57198e-05
5.98456e-07
3.82353e-06
-4.51413e-07
8.62242e-05
4.76104e-07
3.1815e-06
-4.43736e-07
8.31993e-05
4.64683e-07
2.45774e-06
-6.14207e-07
7.68621e-05
5.69322e-07
1.75777e-06
-9.7728e-07
6.76746e-05
7.89978e-07
-1.50355e-06
5.6426e-05
1.11486e-06
1.1138e-06
3.30602e-06
-3.13601e-06
6.4057e-05
-2.28296e-06
3.98294e-06
-2.40047e-06
7.86372e-05
4.30905e-06
-1.69185e-06
9.01954e-05
4.31003e-06
-1.13575e-06
9.82562e-05
4.05423e-06
-7.58652e-07
0.000102576
3.60713e-06
-5.68179e-07
0.000103035
3.04696e-06
-5.57496e-07
9.96315e-05
2.4348e-06
-7.56882e-07
9.24639e-05
1.82865e-06
-1.19643e-06
8.1727e-05
-1.85477e-06
6.78054e-05
1.244e-06
3.08714e-06
-3.5675e-06
7.34458e-05
-2.09242e-06
3.75123e-06
-2.75629e-06
8.96637e-05
4.05504e-06
-1.99989e-06
0.0001022
4.02699e-06
-1.42164e-06
0.000110725
3.74781e-06
-1.03985e-06
0.000115185
3.30909e-06
-8.43994e-07
0.000115602
2.78735e-06
-8.31725e-07
0.000111989
2.24734e-06
-1.03107e-06
0.00010434
1.73506e-06
-1.4814e-06
9.26645e-05
-2.19837e-06
7.71961e-05
1.22693e-06
2.90339e-06
-3.82764e-06
8.00349e-05
-1.96885e-06
3.54661e-06
-3.06084e-06
9.71303e-05
3.82566e-06
-2.34845e-06
0.000110172
3.77441e-06
-1.79727e-06
0.000118878
3.47425e-06
-1.43282e-06
0.000123323
3.02323e-06
-1.24615e-06
0.000123702
2.52698e-06
-1.22242e-06
0.000120044
2.04349e-06
-1.40058e-06
0.000112214
1.60609e-06
-1.83031e-06
0.000100065
-2.53788e-06
8.37726e-05
1.18652e-06
2.71551e-06
-3.94718e-06
8.32938e-05
-1.81384e-06
3.34624e-06
-3.30341e-06
0.000100792
3.62531e-06
-2.6842e-06
0.000114056
3.56942e-06
-2.20253e-06
0.000122805
3.26302e-06
-1.87299e-06
0.00012715
2.82386e-06
-1.68822e-06
0.000127483
2.34689e-06
-1.65844e-06
0.000123915
1.89883e-06
-1.8043e-06
0.000116057
1.52326e-06
-2.18223e-06
0.000103712
-2.8446e-06
8.70469e-05
1.1709e-06
2.51687e-06
-3.90233e-06
8.29617e-05
-1.65364e-06
3.14876e-06
-3.4206e-06
0.000100518
3.44338e-06
-2.93101e-06
0.000113835
3.41003e-06
-2.53459e-06
0.000122626
3.12784e-06
-2.25038e-06
0.000127006
2.71094e-06
-2.08054e-06
0.00012735
2.26505e-06
-2.04031e-06
0.000123759
1.85747e-06
-2.14991e-06
0.000115875
1.52194e-06
-2.47322e-06
0.000103491
-3.06133e-06
8.67803e-05
1.20552e-06
2.29092e-06
-3.67375e-06
7.90421e-05
-1.47161e-06
2.92665e-06
-3.35971e-06
9.62968e-05
3.26298e-06
-2.99679e-06
0.000109487
3.28741e-06
-2.68762e-06
0.000118312
3.0651e-06
-2.45668e-06
0.000122838
2.70383e-06
-2.31141e-06
0.00012324
2.30809e-06
-2.26925e-06
0.000119552
1.94237e-06
-2.35421e-06
0.000111647
1.63708e-06
-2.62019e-06
9.93929e-05
-3.12793e-06
8.2974e-05
1.32036e-06
2.0225e-06
-3.24134e-06
7.18103e-05
-1.27178e-06
2.65961e-06
-3.06437e-06
8.82461e-05
3.05401e-06
-2.81106e-06
0.000100991
3.17686e-06
-2.58118e-06
0.000109687
3.06807e-06
-2.40307e-06
0.00011426
2.81172e-06
-2.28881e-06
0.000114718
2.49249e-06
-2.25573e-06
0.000111074
2.17436e-06
-2.32479e-06
0.000103332
1.87454e-06
-2.54971e-06
9.1514e-05
-2.96249e-06
7.58719e-05
1.49707e-06
1.69337e-06
-2.61268e-06
6.18331e-05
-1.03373e-06
2.31106e-06
-2.51271e-06
7.66155e-05
2.77539e-06
-2.34124e-06
8.83921e-05
3.03924e-06
-2.18016e-06
9.66476e-05
3.10053e-06
-2.05104e-06
0.000101104
3.00212e-06
-1.96893e-06
0.000101625
2.80267e-06
-1.9521e-06
9.82016e-05
2.54295e-06
-2.01894e-06
9.09436e-05
2.24965e-06
-2.23232e-06
8.00668e-05
-2.56416e-06
6.59847e-05
1.81354e-06
1.31936e-06
5.00632e-05
-1.79844e-06
-8.61861e-07
1.86096e-06
6.18896e-05
-1.75087e-06
2.39411e-06
7.20016e-05
-1.65758e-06
2.83271e-06
7.94354e-05
-1.56569e-06
3.11724e-06
8.35966e-05
-1.48084e-06
3.23274e-06
8.41819e-05
-1.42503e-06
3.19085e-06
8.11592e-05
-1.42269e-06
2.98234e-06
7.47609e-05
-1.46744e-06
2.63857e-06
6.54871e-05
-1.66815e-06
5.41865e-05
2.03849e-06
-1.886e-06
3.55231e-06
-5.56134e-07
5.21318e-05
-2.33787e-06
2.77152e-07
4.34188e-06
-8.78855e-07
6.42668e-05
6.35121e-07
4.75073e-06
-9.5992e-07
7.46311e-05
6.99126e-07
4.7259e-06
-9.48174e-07
8.22617e-05
7.28277e-07
4.32396e-06
-9.11958e-07
8.66026e-05
7.19504e-07
3.62079e-06
-9.41001e-07
8.73812e-05
7.54051e-07
2.71294e-06
-1.109e-06
8.45738e-05
8.84237e-07
1.7417e-06
-1.46867e-06
7.83873e-05
1.13219e-06
8.68019e-07
-2.07129e-06
6.92657e-05
1.56233e-06
-2.86259e-06
5.7979e-05
2.41183e-07
2.08657e-06
3.69217e-06
-8.15244e-07
6.34642e-05
-2.54257e-06
4.45027e-06
-1.18173e-06
7.84477e-05
4.82845e-06
-1.27517e-06
9.03865e-05
4.83769e-06
-1.23979e-06
9.87832e-05
4.52551e-06
-1.1895e-06
0.00010339
3.94839e-06
-1.22199e-06
0.000104092
3.17928e-06
-1.40684e-06
0.000100889
2.3027e-06
-1.82193e-06
9.38759e-05
1.41681e-06
-2.53047e-06
8.32302e-05
-3.50507e-06
6.93144e-05
6.74108e-07
3.58817e-06
-1.03009e-06
7.28472e-05
-2.50989e-06
4.29654e-06
-1.46566e-06
8.9469e-05
4.6551e-06
-1.56991e-06
0.000102368
4.68366e-06
-1.5311e-06
0.000111202
4.43353e-06
-1.48168e-06
0.000115918
3.96147e-06
-1.51816e-06
0.000116549
3.31112e-06
-1.72123e-06
0.000113117
2.53646e-06
-2.1703e-06
0.000105618
1.72004e-06
-2.93256e-06
9.40421e-05
-4.03146e-06
7.85969e-05
9.63572e-07
3.39463e-06
-1.13589e-06
7.94217e-05
-2.43738e-06
4.03612e-06
-1.67323e-06
9.69004e-05
4.3671e-06
-1.82389e-06
0.000110289
4.40965e-06
-1.80111e-06
0.000119287
4.21047e-06
-1.76122e-06
0.000123962
3.81461e-06
-1.81221e-06
0.000124531
3.26911e-06
-2.02421e-06
0.000121036
2.60119e-06
-2.48928e-06
0.000113349
1.86066e-06
-3.2852e-06
0.000101294
-4.43684e-06
8.50238e-05
1.12987e-06
3.15949e-06
-1.14003e-06
8.26614e-05
-2.31728e-06
3.73809e-06
-1.79402e-06
0.000100505
4.05769e-06
-2.00969e-06
0.000114094
4.12065e-06
-2.02847e-06
0.000123123
3.96404e-06
-2.01163e-06
0.000127687
3.64512e-06
-2.0663e-06
0.00012818
3.18427e-06
-2.29061e-06
0.000124766
2.60195e-06
-2.76209e-06
0.000117039
1.94549e-06
-3.55758e-06
0.000104774
-4.71885e-06
8.81201e-05
1.2611e-06
2.92566e-06
-1.03845e-06
8.231e-05
-2.19021e-06
3.45352e-06
-1.80187e-06
0.000100153
3.76864e-06
-2.10221e-06
0.000113761
3.86374e-06
-2.17531e-06
0.000122816
3.75993e-06
-2.18977e-06
0.000127411
3.49937e-06
-2.25979e-06
0.000127914
3.11319e-06
-2.4858e-06
0.000124457
2.6141e-06
-2.95009e-06
0.000116686
2.02807e-06
-3.72603e-06
0.000104366
-4.84173e-06
8.76514e-05
1.38142e-06
2.72293e-06
-8.47599e-07
7.83768e-05
-2.0823e-06
3.20011e-06
-1.68801e-06
9.58422e-05
3.51658e-06
-2.0633e-06
0.000109269
3.65183e-06
-2.19585e-06
0.000118328
3.60941e-06
-2.25149e-06
0.000123058
3.4207e-06
-2.3441e-06
0.000123625
3.11106e-06
-2.5756e-06
0.000120066
2.68957e-06
-3.02397e-06
0.000112258
2.16962e-06
-3.74812e-06
0.000100053
-4.76793e-06
8.36196e-05
1.54627e-06
2.57944e-06
-6.10424e-07
7.11474e-05
-2.00676e-06
3.00981e-06
-1.4471e-06
8.77009e-05
3.32721e-06
-1.87174e-06
0.000100608
3.51031e-06
-2.05865e-06
0.000109487
3.54876e-06
-2.15659e-06
0.00011424
3.45104e-06
-2.2753e-06
0.000114857
3.22551e-06
-2.51057e-06
0.000111344
2.87629e-06
-2.92456e-06
0.000103696
2.39951e-06
-3.57013e-06
9.1926e-05
-4.42254e-06
7.62722e-05
1.74268e-06
2.54871e-06
-3.60317e-07
6.12e-05
-2.0363e-06
2.91991e-06
-1.09244e-06
7.60011e-05
3.2362e-06
-1.53139e-06
8.78475e-05
3.47727e-06
-1.75489e-06
9.62134e-05
3.61421e-06
-1.88748e-06
0.000100806
3.62326e-06
-2.02288e-06
0.000101467
3.49464e-06
-2.24586e-06
9.81722e-05
3.20938e-06
-2.60577e-06
9.10179e-05
2.77323e-06
-3.16844e-06
8.02048e-05
-3.82607e-06
6.61323e-05
2.1084e-06
2.64034e-06
4.95037e-05
-1.71658e-07
-2.17501e-06
2.969e-06
6.12597e-05
-7.10003e-07
3.29642e-06
7.13385e-05
-1.10992e-06
3.59988e-06
7.87914e-05
-1.32779e-06
3.8439e-06
8.30219e-05
-1.47167e-06
3.97159e-06
8.37121e-05
-1.59474e-06
3.93741e-06
8.08103e-05
-1.77665e-06
3.66861e-06
7.45296e-05
-2.02097e-06
3.17872e-06
6.53519e-05
-2.46354e-06
5.41081e-05
2.35419e-06
-2.86713e-06
1.48655e-06
2.81862e-06
5.07957e-05
-7.15598e-07
-2.25059e-06
2.16361e-06
1.62587e-06
6.33119e-05
-1.32883e-06
2.5511e-06
6.42943e-07
7.41852e-05
-5.51545e-07
2.56996e-06
-1.04228e-07
8.23227e-05
6.33782e-08
2.22992e-06
-6.87206e-07
8.71111e-05
5.70547e-07
1.61717e-06
-1.21141e-06
8.82488e-05
1.01951e-06
8.62982e-07
-1.78961e-06
8.56968e-05
1.49234e-06
1.66023e-07
-2.48607e-06
7.96491e-05
1.9952e-06
-3.12551e-07
-3.35662e-06
7.05412e-05
2.63389e-06
-4.24995e-06
5.91753e-05
-4.08915e-07
3.20567e-06
2.12867e-06
3.23157e-06
6.21403e-05
-1.2078e-06
2.93069e-06
1.74406e-06
7.75509e-05
3.40689e-06
6.11558e-07
8.99715e-05
3.51926e-06
-2.05361e-07
9.88145e-05
3.29246e-06
-8.21966e-07
0.000103806
2.7892e-06
-1.3839e-06
0.000104825
2.10908e-06
-2.02014e-06
0.000101868
1.37483e-06
-2.82264e-06
9.50189e-05
7.15876e-07
-3.83383e-06
8.44337e-05
-4.95347e-06
7.04895e-05
2.98296e-07
2.51013e-06
3.57826e-06
7.15847e-05
-1.58041e-06
3.30112e-06
1.81541e-06
8.86292e-05
3.7936e-06
5.62079e-07
0.000101965
3.95464e-06
-3.03987e-07
0.000111186
3.81259e-06
-9.37133e-07
0.000116228
3.42097e-06
-1.51297e-06
0.000117132
2.84379e-06
-2.18874e-06
0.000113929
2.1589e-06
-3.05471e-06
0.000106606
1.47306e-06
-4.15562e-06
9.51245e-05
-5.43457e-06
7.96907e-05
9.17687e-07
2.6774e-06
3.88479e-06
7.82441e-05
-1.77948e-06
3.41714e-06
1.91369e-06
9.60974e-05
3.88552e-06
5.52213e-07
0.000109868
4.07196e-06
-3.54623e-07
0.0001192
3.99885e-06
-1.00154e-06
0.000124154
3.70349e-06
-1.59192e-06
0.00012496
3.24255e-06
-2.28848e-06
0.000121663
2.64443e-06
-3.18643e-06
0.000114153
1.97784e-06
-4.33289e-06
0.000102209
-5.68245e-06
8.59752e-05