/*--------------------------------*- C++ -*----------------------------------*\
| =========                 |                                                 |
| \\      /  F ield         | OpenFOAM: The Open Source CFD Toolbox           |
|  \\    /   O peration     | Version:  2406                                  |
|   \\  /    A nd           | Website:  www.openfoam.com                      |
|    \\/     M anipulation  |                                                 |
\*---------------------------------------------------------------------------*/
FoamFile
{
    version     2.0;
    format      ascii;
    arch        "LSB;label=32;scalar=64";
    class       volSymmTensorField;
    location    "0.6";
    object      turbulenceProperties:R;
}
// * * * * * * * * * * * * * * * * * * * * * * * * * * * * * * * * * * * * * //

dimensions      [0 2 -2 0 0 0 0];

internalField   uniform (0 -0 -0 0 -0 0);

boundaryField
{
    walls
    {
        type            calculated;
        value           nonuniform List<symmTensor> 
2000
(
(-8.59585e-08 7.16581e-08 2.98276e-07 -5.48316e-08 -2.51916e-07 1.4079e-07)
(-1.48302e-07 9.09931e-08 4.71751e-07 -5.09462e-08 -2.90912e-07 1.99248e-07)
(-2.25226e-07 9.47986e-08 6.77473e-07 -3.36545e-08 -2.83251e-07 2.5888e-07)
(-2.96043e-07 7.34567e-08 8.58876e-07 -1.07859e-08 -2.08325e-07 3.06829e-07)
(-3.39272e-07 2.78033e-08 9.65458e-07 5.83081e-09 -7.67947e-08 3.33441e-07)
(-3.39339e-07 -2.72827e-08 9.65409e-07 5.91248e-09 7.67857e-08 3.33426e-07)
(-2.96202e-07 -7.30536e-08 8.58752e-07 -1.05877e-08 2.08291e-07 3.0679e-07)
(-2.25405e-07 -9.45477e-08 6.7732e-07 -3.34204e-08 2.83183e-07 2.58825e-07)
(-1.48387e-07 -9.09157e-08 4.71619e-07 -5.08017e-08 2.90829e-07 1.99188e-07)
(-8.58194e-08 -7.16776e-08 2.9819e-07 -5.49406e-08 2.51848e-07 1.4076e-07)
(-2.53395e-09 1.21328e-09 1.30435e-07 -3.16113e-10 -1.09739e-07 2.85007e-09)
(-4.84133e-09 1.02396e-09 1.99828e-07 9.5948e-11 -1.22754e-07 4.74538e-09)
(-6.62425e-09 1.18502e-09 2.86043e-07 -4.03211e-10 -1.19334e-07 7.02746e-09)
(-8.54665e-09 9.02228e-10 3.64603e-07 -4.77296e-10 -8.83048e-08 9.02395e-09)
(-9.69733e-09 3.83572e-10 4.11638e-07 -5.30527e-10 -3.27009e-08 1.02279e-08)
(-9.69459e-09 -3.70573e-10 4.11581e-07 -5.32776e-10 3.27072e-08 1.02274e-08)
(-8.53653e-09 -8.92567e-10 3.64447e-07 -4.872e-10 8.82766e-08 9.02373e-09)
(-6.61656e-09 -1.16545e-09 2.85829e-07 -4.08799e-10 1.19252e-07 7.02536e-09)
(-4.82164e-09 -1.01871e-09 1.99602e-07 8.19425e-11 1.2262e-07 4.7397e-09)
(-2.44955e-09 -1.22306e-09 1.30237e-07 -4.03873e-10 1.09574e-07 2.85343e-09)
(-5.00719e-11 4.06131e-11 4.82707e-08 -3.42596e-10 -4.04767e-08 3.92668e-10)
(-1.12487e-10 8.11519e-11 7.19556e-08 -5.04799e-10 -4.40442e-08 6.17286e-10)
(-2.15148e-10 1.71018e-10 1.01897e-07 -6.71394e-10 -4.2408e-08 8.86542e-10)
(-4.01701e-10 1.88098e-10 1.29878e-07 -7.27776e-10 -3.14073e-08 1.12948e-09)
(-5.50908e-10 9.01428e-11 1.46746e-07 -7.26089e-10 -1.16343e-08 1.277e-09)
(-5.54566e-10 -6.71261e-11 1.46524e-07 -7.25887e-10 1.16465e-08 1.28045e-09)
(-4.17215e-10 -1.55388e-10 1.29276e-07 -7.21532e-10 3.12894e-08 1.13875e-09)
(-2.54943e-10 -1.26035e-10 1.01084e-07 -6.41846e-10 4.20924e-08 8.96788e-10)
(-1.6485e-10 -5.22136e-11 7.11386e-08 -4.58869e-10 4.35589e-08 6.23719e-10)
(-6.41366e-11 -3.90373e-11 4.76036e-08 -3.37157e-10 3.99205e-08 4.01293e-10)
(3.40454e-10 1.65435e-10 6.58048e-08 -2.97468e-10 -5.52236e-08 -4.29865e-11)
(2.01183e-10 2.80901e-10 9.83147e-08 -1.65664e-10 -6.01866e-08 -3.55191e-11)
(-7.26023e-11 2.52349e-10 1.38403e-07 9.47763e-11 -5.75669e-08 -2.2174e-11)
(-2.87215e-10 1.07115e-10 1.75015e-07 2.77192e-10 -4.22702e-08 1.00237e-11)
(-3.77071e-10 -1.07564e-10 1.9668e-07 3.39383e-10 -1.55525e-08 3.76873e-11)
(-3.13685e-10 -2.93116e-10 1.96049e-07 2.67237e-10 1.56019e-08 4.64489e-11)
(-1.32625e-10 -4.06214e-10 1.73338e-07 9.8377e-11 4.19558e-08 3.4248e-11)
(7.94336e-11 -3.91652e-10 1.36188e-07 -8.72796e-11 5.67178e-08 7.84598e-12)
(2.85514e-10 -3.09695e-10 9.61856e-08 -2.74048e-10 5.89309e-08 -1.14657e-11)
(3.83242e-10 -1.61784e-10 6.41458e-08 -3.62507e-10 5.38446e-08 -2.07353e-11)
(2.04977e-10 4.18771e-11 5.61045e-08 -1.90114e-10 -4.7022e-08 -1.48628e-11)
(1.37633e-10 7.60557e-11 8.25861e-08 -1.35122e-10 -5.04519e-08 -2.51056e-12)
(-6.83372e-11 -6.75934e-11 1.14947e-07 5.86547e-11 -4.771e-08 9.68248e-12)
(-1.74498e-10 -3.39772e-10 1.44208e-07 1.38094e-10 -3.47439e-08 3.64048e-11)
(-1.15136e-10 -6.82943e-10 1.61224e-07 5.6416e-11 -1.26863e-08 5.87197e-11)
(1.34691e-10 -9.20953e-10 1.60197e-07 -2.0411e-10 1.27846e-08 6.94191e-11)
(4.82412e-10 -9.68645e-10 1.41474e-07 -5.51253e-10 3.42494e-08 6.88405e-11)
(7.37504e-10 -7.43892e-10 1.11305e-07 -7.89839e-10 4.63316e-08 5.23355e-11)
(8.73085e-10 -4.5023e-10 7.90249e-08 -9.15146e-10 4.83713e-08 4.20602e-11)
(7.24651e-10 -1.21242e-10 5.31815e-08 -7.56585e-10 4.46137e-08 3.19346e-11)
(-3.38639e-10 -1.37776e-11 6.59228e-08 4.64989e-10 -5.5225e-08 -1.2635e-10)
(-6.88043e-10 -3.10263e-10 9.61701e-08 8.41268e-10 -5.86888e-08 -1.53225e-10)
(-9.52374e-10 -9.14702e-10 1.32467e-07 1.13009e-09 -5.49056e-08 -1.77719e-10)
(-8.64035e-10 -1.63663e-09 1.64693e-07 1.04318e-09 -3.96075e-08 -1.7915e-10)
(-3.89137e-10 -2.22452e-09 1.82992e-07 5.55372e-10 -1.43463e-08 -1.66234e-10)
(3.40152e-10 -2.43869e-09 1.81185e-07 -1.93851e-10 1.44911e-08 -1.463e-10)
(1.07931e-09 -2.2246e-09 1.59771e-07 -9.65384e-10 3.86971e-08 -1.13931e-10)
(1.50989e-09 -1.56851e-09 1.25596e-07 -1.42221e-09 5.23001e-08 -8.76805e-11)
(1.646e-09 -8.80059e-10 8.89298e-08 -1.59968e-09 5.44707e-08 -4.63235e-11)
(1.27736e-09 -2.31739e-10 5.93334e-08 -1.2584e-09 4.98265e-08 -1.89544e-11)
(-1.07904e-09 -1.77725e-10 6.91916e-08 1.19203e-09 -5.78928e-08 -1.12992e-10)
(-1.50792e-09 -7.94824e-10 9.91553e-08 1.64325e-09 -6.0407e-08 -1.35331e-10)
(-1.6314e-09 -1.70552e-09 1.34536e-07 1.78563e-09 -5.56656e-08 -1.54232e-10)
(-1.3005e-09 -2.70993e-09 1.65318e-07 1.4581e-09 -3.96764e-08 -1.57603e-10)
(-4.69956e-10 -3.40325e-09 1.82023e-07 6.08869e-10 -1.42095e-08 -1.38913e-10)
(6.10799e-10 -3.54643e-09 1.78853e-07 -4.98612e-10 1.43496e-08 -1.12187e-10)
(1.60416e-09 -3.09762e-09 1.56552e-07 -1.53561e-09 3.79537e-08 -6.85471e-11)
(2.10721e-09 -2.09888e-09 1.22042e-07 -2.06709e-09 5.08559e-08 -4.01226e-11)
(2.19119e-09 -1.12676e-09 8.54933e-08 -2.19295e-09 5.24021e-08 1.75925e-12)
(1.6061e-09 -2.62941e-10 5.62773e-08 -1.62427e-09 4.7304e-08 1.81701e-11)
(-1.72078e-09 -2.75497e-10 7.68247e-08 1.80418e-09 -6.42379e-08 -8.33931e-11)
(-2.26474e-09 -1.16705e-09 1.08939e-07 2.37502e-09 -6.63214e-08 -1.10285e-10)
(-2.21829e-09 -2.26199e-09 1.46367e-07 2.34263e-09 -6.05132e-08 -1.24334e-10)
(-1.66323e-09 -3.34709e-09 1.78283e-07 1.79352e-09 -4.27419e-08 -1.30293e-10)
(-5.93488e-10 -3.90092e-09 1.94703e-07 7.02494e-10 -1.51574e-08 -1.09006e-10)
(6.07524e-10 -3.81217e-09 1.89847e-07 -5.22344e-10 1.52679e-08 -8.51796e-11)
(1.58269e-09 -3.13445e-09 1.64903e-07 -1.53612e-09 4.00066e-08 -4.6578e-11)
(1.98943e-09 -2.01047e-09 1.27574e-07 -1.9589e-09 5.31844e-08 -3.05249e-11)
(2.00896e-09 -1.04388e-09 8.86141e-08 -2.00728e-09 5.43297e-08 -1.68188e-12)
(1.42604e-09 -2.3796e-10 5.78673e-08 -1.42659e-09 4.86554e-08 5.48529e-13)
(-1.78925e-09 -3.12011e-10 7.80645e-08 1.77194e-09 -6.52682e-08 1.73072e-11)
(-2.15483e-09 -1.1302e-09 1.10682e-07 2.15424e-09 -6.73894e-08 5.89962e-13)
(-1.92798e-09 -1.98339e-09 1.48601e-07 1.93224e-09 -6.14331e-08 -4.25907e-12)
(-1.37833e-09 -2.80547e-09 1.80564e-07 1.38999e-09 -4.32666e-08 -1.16537e-11)
(-4.53893e-10 -3.08394e-09 1.96303e-07 4.42834e-10 -1.52411e-08 1.10588e-11)
(4.65162e-10 -2.83521e-09 1.90265e-07 -5.00691e-10 1.53507e-08 3.55292e-11)
(1.08669e-09 -2.13132e-09 1.64122e-07 -1.15611e-09 3.98597e-08 6.94227e-11)
(1.20692e-09 -1.20729e-09 1.2614e-07 -1.285e-09 5.26117e-08 7.80791e-11)
(1.0364e-09 -5.27429e-10 8.71808e-08 -1.11907e-09 5.34439e-08 8.26708e-11)
(5.49166e-10 -7.36057e-11 5.70322e-08 -6.10099e-10 4.79213e-08 6.09324e-11)
(-1.64663e-09 -2.64079e-10 7.59694e-08 1.57269e-09 -6.35632e-08 7.3938e-11)
(-2.07206e-09 -1.05041e-09 1.08904e-07 1.99759e-09 -6.63701e-08 7.44705e-11)
(-1.85666e-09 -1.83029e-09 1.47316e-07 1.75449e-09 -6.09408e-08 1.02174e-10)
(-1.33721e-09 -2.53416e-09 1.79471e-07 1.211e-09 -4.30002e-08 1.26212e-10)
(-4.86548e-10 -2.63116e-09 1.94608e-07 3.13305e-10 -1.50525e-08 1.73243e-10)
(2.64849e-10 -2.20085e-09 1.87227e-07 -4.76202e-10 1.52083e-08 2.11353e-10)
(6.11884e-10 -1.36393e-09 1.59557e-07 -8.49776e-10 3.88812e-08 2.37893e-10)
(4.78795e-10 -5.38379e-10 1.20642e-07 -7.11956e-10 5.04468e-08 2.33161e-10)
(6.48978e-11 -4.05177e-11 8.18761e-08 -2.62373e-10 5.02806e-08 1.97475e-10)
(-3.07331e-10 7.23048e-11 5.29738e-08 1.60918e-10 4.45142e-08 1.46413e-10)
(-1.20165e-09 -1.86991e-10 7.15418e-08 1.11968e-09 -5.99018e-08 8.19632e-11)
(-1.56122e-09 -7.81806e-10 1.03361e-07 1.45497e-09 -6.30335e-08 1.06252e-10)
(-1.42966e-09 -1.37256e-09 1.40322e-07 1.26759e-09 -5.80612e-08 1.62074e-10)
(-1.07486e-09 -1.93511e-09 1.70754e-07 8.58519e-10 -4.08798e-08 2.16343e-10)
(-4.3849e-10 -2.00828e-09 1.83912e-07 1.5712e-10 -1.41333e-08 2.81371e-10)
(1.26329e-10 -1.6566e-09 1.74692e-07 -4.48172e-10 1.43377e-08 3.21843e-10)
(3.61413e-10 -9.6523e-10 1.46036e-07 -6.90119e-10 3.57714e-08 3.28707e-10)
(2.35973e-10 -3.36717e-10 1.07574e-07 -5.34521e-10 4.51654e-08 2.98547e-10)
(-1.34778e-10 4.28969e-11 7.08686e-08 -9.66997e-11 4.36607e-08 2.31478e-10)
(-3.58604e-10 6.5317e-11 4.4768e-08 1.89923e-10 3.76553e-08 1.68681e-10)
(-4.81049e-10 -4.45361e-11 6.7734e-08 4.29055e-10 -5.67117e-08 5.19935e-11)
(-8.60566e-10 -3.97348e-10 9.74577e-08 7.69103e-10 -5.94126e-08 9.14626e-11)
(-9.21814e-10 -8.05811e-10 1.31421e-07 7.49877e-10 -5.43369e-08 1.71936e-10)
(-7.91764e-10 -1.22233e-09 1.58622e-07 5.37749e-10 -3.79127e-08 2.54015e-10)
(-4.24274e-10 -1.36371e-09 1.69096e-07 1.03785e-10 -1.29061e-08 3.20489e-10)
(-2.10049e-11 -1.2278e-09 1.58575e-07 -3.17289e-10 1.31232e-08 3.38294e-10)
(2.42747e-10 -8.49487e-10 1.30523e-07 -5.49085e-10 3.20879e-08 3.06337e-10)
(3.0037e-10 -4.40332e-10 9.44025e-08 -5.3993e-10 3.97383e-08 2.3956e-10)
(1.76869e-10 -1.3329e-10 6.10301e-08 -3.34921e-10 3.76754e-08 1.58051e-10)
(9.6626e-11 -3.1163e-11 3.79605e-08 -1.96994e-10 3.19511e-08 1.00368e-10)
(5.14273e-10 1.0979e-10 6.50272e-08 -5.39159e-10 -5.44068e-08 2.48857e-11)
(4.17322e-10 2.4615e-10 9.2412e-08 -4.71022e-10 -5.62664e-08 5.36995e-11)
(1.92065e-10 2.84361e-10 1.23015e-07 -2.94375e-10 -5.07852e-08 1.0231e-10)
(-4.70973e-11 1.76764e-10 1.46857e-07 -1.11066e-10 -3.50341e-08 1.58163e-10)
(-1.79742e-10 -9.25156e-11 1.55206e-07 -8.88987e-12 -1.17985e-08 1.88631e-10)
(-1.02755e-10 -3.89063e-10 1.44672e-07 -7.63551e-11 1.19955e-08 1.7911e-10)
(1.52678e-10 -5.72843e-10 1.18708e-07 -2.91094e-10 2.9183e-08 1.38416e-10)
(4.16561e-10 -5.15514e-10 8.58574e-08 -4.96606e-10 3.61251e-08 8.00442e-11)
(5.92029e-10 -3.38367e-10 5.5678e-08 -6.26238e-10 3.43525e-08 3.42098e-11)
(5.94935e-10 -1.22014e-10 3.47608e-08 -6.0536e-10 2.92494e-08 1.04255e-11)
(1.23788e-09 2.17152e-10 6.34357e-08 -1.26066e-09 -5.30566e-08 2.27826e-11)
(1.39816e-09 7.36874e-10 8.9593e-08 -1.42209e-09 -5.44991e-08 2.39383e-11)
(1.0857e-09 1.14951e-09 1.18438e-07 -1.10956e-09 -4.88525e-08 2.38673e-11)
(5.95023e-10 1.36388e-09 1.40707e-07 -6.29668e-10 -3.35538e-08 3.46449e-11)
(5.63422e-11 1.07145e-09 1.48591e-07 -7.4197e-11 -1.133e-08 1.78548e-11)
(-1.81974e-10 4.95868e-10 1.3911e-07 1.98097e-10 1.14521e-08 -1.61236e-11)
(-1.90011e-11 -1.18e-10 1.15293e-07 7.253e-11 2.82274e-08 -5.35289e-11)
(3.37872e-10 -3.86328e-10 8.47228e-08 -2.48307e-10 3.5527e-08 -8.95644e-11)
(7.33236e-10 -3.9506e-10 5.60013e-08 -6.40063e-10 3.44545e-08 -9.31726e-11)
(8.28108e-10 -1.60854e-10 3.55384e-08 -7.44887e-10 2.9871e-08 -8.32214e-11)
(1.45036e-09 2.06483e-10 6.09051e-08 -1.57023e-09 -5.09831e-08 1.19865e-10)
(2.20751e-09 1.11757e-09 8.73214e-08 -2.32002e-09 -5.31637e-08 1.12515e-10)
(2.20096e-09 2.19845e-09 1.17145e-07 -2.25909e-09 -4.83865e-08 5.81296e-11)
(1.62441e-09 3.20425e-09 1.41013e-07 -1.62458e-09 -3.37171e-08 1.67085e-13)
(5.48318e-10 3.43243e-09 1.51012e-07 -4.6134e-10 -1.16423e-08 -8.69779e-11)
(-4.31001e-10 2.89215e-09 1.43755e-07 5.94882e-10 1.1669e-08 -1.6388e-10)
(-8.89332e-10 1.83581e-09 1.21663e-07 1.10241e-09 2.95935e-08 -2.13074e-10)
(-7.96164e-10 8.52339e-10 9.18025e-08 1.03167e-09 3.83071e-08 -2.35502e-10)
(-2.83997e-10 1.60481e-10 6.24678e-08 4.95902e-10 3.8279e-08 -2.11905e-10)
(1.38789e-10 -4.02973e-11 4.06662e-08 3.51821e-11 3.41277e-08 -1.73971e-10)
(7.92049e-10 7.71988e-11 5.22649e-08 -1.02995e-09 -4.38346e-08 2.37899e-10)
(1.77367e-09 8.90204e-10 7.81977e-08 -2.04743e-09 -4.77728e-08 2.7376e-10)
(2.25172e-09 2.2652e-09 1.10015e-07 -2.50607e-09 -4.56471e-08 2.54352e-10)
(1.99731e-09 3.9689e-09 1.38067e-07 -2.18956e-09 -3.32208e-08 1.92251e-10)
(8.14905e-10 5.11386e-09 1.53365e-07 -8.85625e-10 -1.20265e-08 7.07198e-11)
(-7.78517e-10 5.23628e-09 1.5099e-07 8.33441e-10 1.2057e-08 -5.49238e-11)
(-2.10459e-09 4.31067e-09 1.32206e-07 2.26365e-09 3.19547e-08 -1.59062e-10)
(-2.65054e-09 2.76559e-09 1.0358e-07 2.86683e-09 4.30208e-08 -2.16291e-10)
(-2.39357e-09 1.27716e-09 7.35231e-08 2.62534e-09 4.48731e-08 -2.31768e-10)
(-1.56622e-09 2.59193e-10 4.99327e-08 1.77551e-09 4.18168e-08 -2.09285e-10)
(-3.2348e-10 -9.00479e-11 3.9824e-08 1.0424e-10 -3.3466e-08 2.19239e-10)
(1.77168e-10 8.67754e-11 6.25545e-08 -4.73347e-10 -3.83991e-08 2.96179e-10)
(7.31823e-10 7.68544e-10 9.3574e-08 -1.08519e-09 -3.90816e-08 3.5337e-10)
(9.55132e-10 1.97219e-09 1.24372e-07 -1.31186e-09 -3.02021e-08 3.56727e-10)
(4.96291e-10 3.26641e-09 1.45365e-07 -7.83763e-10 -1.16595e-08 2.87472e-10)
(-6.04392e-10 4.01803e-09 1.49684e-07 4.24013e-10 1.17287e-08 1.80379e-10)
(-1.9195e-09 3.93979e-09 1.36572e-07 1.85368e-09 3.28261e-08 6.58259e-11)
(-2.80736e-09 2.93776e-09 1.11295e-07 2.81279e-09 4.60707e-08 -5.42934e-12)
(-3.13378e-09 1.68685e-09 8.22622e-08 3.19629e-09 5.00828e-08 -6.25117e-11)
(-2.495e-09 4.48651e-10 5.80527e-08 2.56347e-09 4.85366e-08 -6.84719e-11)
(-8.77668e-10 -1.51321e-10 3.16378e-08 7.73581e-10 -2.66077e-08 1.04087e-10)
(-1.102e-09 -5.5987e-10 5.02412e-08 9.33442e-10 -3.09461e-08 1.68559e-10)
(-9.293e-10 -8.73815e-10 7.71983e-08 6.61203e-10 -3.24248e-08 2.68098e-10)
(-5.82225e-10 -9.62221e-10 1.06174e-07 2.42266e-10 -2.60246e-08 3.39959e-10)
(-1.92774e-10 -5.92053e-10 1.2835e-07 -1.7929e-10 -1.05472e-08 3.72064e-10)
(-7.99322e-11 1.68893e-11 1.36148e-07 -2.76652e-10 1.04541e-08 3.56585e-10)
(-3.74492e-10 6.6084e-10 1.27063e-07 6.74301e-11 3.04061e-08 3.07062e-10)
(-8.57536e-10 8.69033e-10 1.04901e-07 5.93583e-10 4.33719e-08 2.63954e-10)
(-1.47919e-09 8.06143e-10 7.78565e-08 1.28408e-09 4.74042e-08 1.95109e-10)
(-1.49728e-09 2.95616e-10 5.49211e-08 1.34444e-09 4.59013e-08 1.52837e-10)
(3.26465e-10 6.43064e-11 2.82776e-08 -3.53087e-10 -2.37765e-08 2.66224e-11)
(2.1013e-10 1.13415e-10 4.40451e-08 -2.66302e-10 -2.71647e-08 5.61729e-11)
(1.35952e-10 1.79355e-10 6.6905e-08 -2.58235e-10 -2.81796e-08 1.22283e-10)
(3.19407e-11 2.24711e-10 9.19291e-08 -2.27545e-10 -2.26608e-08 1.95605e-10)
(-6.21005e-11 2.99058e-10 1.11324e-07 -1.9882e-10 -9.29063e-09 2.60921e-10)
(-1.80082e-10 4.05131e-10 1.1816e-07 -1.21287e-10 8.95503e-09 3.01369e-10)
(-3.88906e-10 5.63913e-10 1.09655e-07 8.48079e-11 2.61854e-08 3.04098e-10)
(-6.33909e-10 5.69298e-10 8.91339e-08 3.49352e-10 3.68682e-08 2.84556e-10)
(-9.89822e-10 5.08814e-10 6.4414e-08 7.66931e-10 3.92712e-08 2.2289e-10)
(-9.63153e-10 1.7644e-10 4.41766e-08 7.9079e-10 3.6937e-08 1.72362e-10)
(2.32437e-09 3.9098e-10 2.69553e-08 -2.31493e-09 -2.26382e-08 -9.44119e-12)
(2.834e-09 1.45291e-09 4.14289e-08 -2.8299e-09 -2.55173e-08 -4.10386e-12)
(2.64886e-09 2.68912e-09 6.19495e-08 -2.66107e-09 -2.60535e-08 1.22137e-11)
(1.89735e-09 3.88453e-09 8.39324e-08 -1.95899e-09 -2.0655e-08 6.16312e-11)
(5.77372e-10 4.34403e-09 1.00294e-07 -6.80562e-10 -8.34179e-09 1.0319e-10)
(-7.70036e-10 4.06496e-09 1.05134e-07 6.2282e-10 7.98925e-09 1.47216e-10)
(-1.74772e-09 3.1863e-09 9.63556e-08 1.59154e-09 2.30265e-08 1.56174e-10)
(-2.09509e-09 1.99102e-09 7.73189e-08 1.94852e-09 3.19971e-08 1.46571e-10)
(-2.03971e-09 1.00873e-09 5.51133e-08 1.94314e-09 3.36107e-08 9.65719e-11)
(-1.4539e-09 2.18755e-10 3.73747e-08 1.39423e-09 3.1255e-08 5.96773e-11)
(3.14719e-09 5.11415e-10 2.68495e-08 -3.12549e-09 -2.25093e-08 -2.16995e-11)
(4.12079e-09 2.09665e-09 4.115e-08 -4.09497e-09 -2.52565e-08 -2.58204e-11)
(3.97301e-09 3.9608e-09 6.10677e-08 -3.92194e-09 -2.55631e-08 -5.10766e-11)
(3.01433e-09 5.94254e-09 8.17365e-08 -2.98651e-09 -1.99702e-08 -2.78213e-11)
(1.05772e-09 6.84311e-09 9.65214e-08 -1.03132e-09 -7.88972e-09 -2.63971e-11)
(-1.06843e-09 6.53089e-09 1.0021e-07 1.07272e-09 7.72324e-09 -4.29405e-12)
(-2.64992e-09 5.13291e-09 9.13983e-08 2.65363e-09 2.19011e-08 -3.70437e-12)
(-3.20166e-09 3.17198e-09 7.3459e-08 3.20128e-09 3.041e-08 3.76365e-13)
(-3.00253e-09 1.52511e-09 5.28567e-08 3.03028e-09 3.22118e-08 -2.77485e-11)
(-2.03821e-09 3.12648e-10 3.6358e-08 2.07496e-09 3.03885e-08 -3.67533e-11)
(2.17786e-09 3.30078e-10 2.70715e-08 -2.17034e-09 -2.26815e-08 -7.51589e-12)
(3.08739e-09 1.54631e-09 4.15901e-08 -3.08474e-09 -2.54677e-08 -2.6551e-12)
(3.13033e-09 3.078e-09 6.17725e-08 -3.10878e-09 -2.57732e-08 -2.15554e-11)
(2.54022e-09 4.91658e-09 8.22905e-08 -2.5353e-09 -1.99952e-08 -4.92389e-12)
(9.81911e-10 5.99606e-09 9.67654e-08 -9.642e-10 -7.80221e-09 -1.77111e-11)
(-9.29744e-10 6.04767e-09 1.00207e-07 9.42825e-10 7.80598e-09 -1.30812e-11)
(-2.53268e-09 5.01899e-09 9.15592e-08 2.55918e-09 2.19804e-08 -2.65007e-11)
(-3.22848e-09 3.24606e-09 7.41654e-08 3.25266e-09 3.06983e-08 -2.418e-11)
(-3.19953e-09 1.64642e-09 5.42117e-08 3.24988e-09 3.30034e-08 -5.03544e-11)
(-2.29298e-09 3.6707e-10 3.80837e-08 2.34779e-09 3.17969e-08 -5.48114e-11)
(8.33364e-10 1.08629e-10 2.62126e-08 -8.35485e-10 -2.1981e-08 2.12118e-12)
(1.33841e-09 6.45668e-10 4.03656e-08 -1.35513e-09 -2.47291e-08 1.67254e-11)
(1.511e-09 1.43672e-09 6.01361e-08 -1.53855e-09 -2.50986e-08 2.75551e-11)
(1.42465e-09 2.66767e-09 8.0284e-08 -1.48271e-09 -1.95107e-08 5.80623e-11)
(6.58829e-10 3.73149e-09 9.46922e-08 -7.17335e-10 -7.63813e-09 5.85059e-11)
(-6.01229e-10 4.24492e-09 9.84989e-08 5.45038e-10 7.66218e-09 5.61911e-11)
(-1.93193e-09 3.94102e-09 9.06629e-08 1.90312e-09 2.17391e-08 2.88088e-11)
(-2.72357e-09 2.80246e-09 7.43136e-08 2.7103e-09 3.07147e-08 1.32697e-11)
(-2.97348e-09 1.57067e-09 5.53038e-08 3.00186e-09 3.36109e-08 -2.83805e-11)
(-2.30601e-09 3.98371e-10 3.97635e-08 2.34585e-09 3.31458e-08 -3.98429e-11)
(4.03897e-10 4.77634e-11 2.61537e-08 -3.82757e-10 -2.19523e-08 -2.114e-11)
(6.08432e-10 2.76717e-10 3.97453e-08 -5.98826e-10 -2.43611e-08 -9.6058e-12)
(7.16088e-10 6.56257e-10 5.83394e-08 -7.35134e-10 -2.43596e-08 1.90458e-11)
(7.4641e-10 1.35681e-09 7.7281e-08 -8.08466e-10 -1.88034e-08 6.20565e-11)
(3.9439e-10 2.13653e-09 9.09011e-08 -4.85351e-10 -7.36204e-09 9.09607e-11)
(-3.76449e-10 2.72928e-09 9.47657e-08 2.63994e-10 7.33417e-09 1.12455e-10)
(-1.38977e-09 2.84063e-09 8.78237e-08 1.28871e-09 2.10153e-08 1.01066e-10)
(-2.15484e-09 2.21272e-09 7.28411e-08 2.06252e-09 3.00571e-08 9.23226e-11)
(-2.6233e-09 1.38601e-09 5.51883e-08 2.57706e-09 3.34914e-08 4.62487e-11)
(-2.25194e-09 4.01283e-10 4.05743e-08 2.22527e-09 3.37781e-08 2.66655e-11)
(1.25059e-09 2.1694e-10 2.74288e-08 -1.14958e-09 -2.30217e-08 -1.01007e-10)
(1.30256e-09 6.48557e-10 4.08303e-08 -1.19317e-09 -2.4977e-08 -1.09391e-10)
(1.05561e-09 1.00351e-09 5.8137e-08 -9.57081e-10 -2.41928e-08 -9.85261e-11)
(7.79309e-10 1.42467e-09 7.51096e-08 -7.23083e-10 -1.81823e-08 -5.6226e-11)
(3.23564e-10 1.69635e-09 8.6692e-08 -3.03065e-10 -6.92239e-09 -2.04982e-11)
(-2.37995e-10 1.8397e-09 8.92113e-08 2.22763e-10 7.00237e-09 1.52318e-11)
(-8.33315e-10 1.73959e-09 8.20241e-08 8.11661e-10 1.97261e-08 2.16548e-11)
(-1.2183e-09 1.26846e-09 6.77006e-08 1.18962e-09 2.80219e-08 2.86807e-11)
(-1.46e-09 7.82848e-10 5.13488e-08 1.45829e-09 3.12398e-08 1.71086e-12)
(-1.14824e-09 2.05566e-10 3.78227e-08 1.14673e-09 3.1528e-08 1.50987e-12)
(1.82211e-09 3.42408e-10 3.37425e-08 -1.53957e-09 -2.82123e-08 -2.82535e-10)
(1.48866e-09 7.62906e-10 4.78891e-08 -1.16095e-09 -2.90857e-08 -3.27716e-10)
(6.12279e-10 5.58067e-10 6.4847e-08 -2.34836e-10 -2.67425e-08 -3.77443e-10)
(2.93328e-11 -1.01715e-10 8.0419e-08 3.5759e-10 -1.92309e-08 -3.86922e-10)
(-1.06617e-10 -1.28098e-09 9.03844e-08 4.9693e-10 -7.01874e-09 -3.90313e-10)
(4.50839e-10 -2.27419e-09 9.17629e-08 -8.60995e-11 7.34829e-09 -3.6474e-10)
(1.48671e-09 -2.78545e-09 8.42967e-08 -1.16672e-09 2.03673e-08 -3.19984e-10)
(2.47846e-09 -2.45045e-09 7.0152e-08 -2.21773e-09 2.90849e-08 -2.60722e-10)
(3.12517e-09 -1.60474e-09 5.40651e-08 -2.94112e-09 3.29399e-08 -1.84054e-10)
(2.95698e-09 -5.15697e-10 3.99406e-08 -2.84283e-09 3.33657e-08 -1.14146e-10)
(-2.87297e-11 3.21526e-11 5.22089e-08 6.13865e-10 -4.34387e-08 -5.85135e-10)
(-1.30226e-09 -7.26184e-10 6.97659e-08 2.00064e-09 -4.20648e-08 -6.98379e-10)
(-2.55708e-09 -2.78961e-09 8.98106e-08 3.38398e-09 -3.676e-08 -8.26896e-10)
(-2.598e-09 -5.6591e-09 1.07219e-07 3.50058e-09 -2.54328e-08 -9.02578e-10)
(-1.08429e-09 -8.76291e-09 1.17872e-07 2.00969e-09 -9.04996e-09 -9.25398e-10)
(1.95919e-09 -1.06422e-08 1.18385e-07 -1.094e-09 9.49559e-09 -8.65191e-10)
(5.62965e-09 -1.06533e-08 1.08261e-07 -4.93353e-09 2.61182e-08 -6.96124e-10)
(8.22126e-09 -8.10148e-09 8.95559e-08 -7.70304e-09 3.70994e-08 -5.18214e-10)
(9.42057e-09 -4.79632e-09 6.7738e-08 -9.15269e-09 4.12946e-08 -2.67885e-10)
(7.59994e-09 -1.24243e-09 4.77071e-08 -7.47123e-09 3.99918e-08 -1.28708e-10)
(-5.22906e-09 -9.09994e-10 8.64703e-08 6.03155e-09 -7.17809e-08 -8.0249e-10)
(-7.22153e-09 -3.88918e-09 1.10792e-07 8.19008e-09 -6.66199e-08 -9.68553e-10)
(-7.60916e-09 -8.09281e-09 1.37243e-07 8.71459e-09 -5.60316e-08 -1.10543e-09)
(-5.99938e-09 -1.28181e-08 1.58074e-07 7.18525e-09 -3.73829e-08 -1.18588e-09)
(-2.09517e-09 -1.63836e-08 1.67539e-07 3.20236e-09 -1.27653e-08 -1.10719e-09)
(3.13054e-09 -1.73008e-08 1.6147e-07 -2.22585e-09 1.30696e-08 -9.04694e-10)
(7.99685e-09 -1.5238e-08 1.40321e-07 -7.43194e-09 3.40023e-08 -5.64905e-10)
(1.03655e-08 -1.02684e-08 1.09017e-07 -1.0067e-08 4.53598e-08 -2.98513e-10)
(1.06008e-08 -5.42541e-09 7.61039e-08 -1.059e-08 4.65752e-08 -1.07569e-11)
(7.41956e-09 -1.18348e-09 4.93782e-08 -7.47293e-09 4.15577e-08 5.33717e-11)
(-9.64894e-09 -1.75617e-09 1.26346e-07 1.02374e-08 -1.0487e-07 -5.88424e-10)
(-1.15802e-08 -6.26531e-09 1.58435e-07 1.23474e-08 -9.52726e-08 -7.6719e-10)
(-1.01248e-08 -1.07718e-08 1.89907e-07 1.09296e-08 -7.74376e-08 -8.0477e-10)
(-6.99852e-09 -1.49291e-08 2.09794e-07 7.81559e-09 -4.93987e-08 -8.17065e-10)
(-2.13939e-09 -1.65418e-08 2.10637e-07 2.76088e-09 -1.56979e-08 -6.21489e-10)
(2.74468e-09 -1.54271e-08 1.90095e-07 -2.37747e-09 1.58299e-08 -3.67206e-10)
(6.25593e-09 -1.20492e-08 1.52934e-07 -6.19352e-09 3.75127e-08 -6.24072e-11)
(7.278e-09 -7.28291e-09 1.09338e-07 -7.37718e-09 4.58801e-08 9.91839e-11)
(6.76275e-09 -3.49534e-09 7.01695e-08 -6.98595e-09 4.31787e-08 2.232e-10)
(4.3107e-09 -6.80108e-10 4.30636e-08 -4.493e-09 3.63169e-08 1.82294e-10)
(-8.04237e-09 -1.47783e-09 1.40903e-07 7.74387e-09 -1.17194e-07 2.98492e-10)
(-8.39184e-09 -4.44701e-09 1.78981e-07 8.20891e-09 -1.07879e-07 1.82931e-10)
(-5.87467e-09 -6.03463e-09 2.12728e-07 5.71776e-09 -8.67783e-08 1.56909e-10)
(-3.64169e-09 -7.38925e-09 2.29028e-07 3.61054e-09 -5.37584e-08 3.11478e-11)
(-1.10448e-09 -7.21018e-09 2.20454e-07 1.04234e-09 -1.6094e-08 6.21333e-11)
(9.42083e-10 -6.33045e-09 1.88558e-07 -1.03665e-09 1.61021e-08 9.45646e-11)
(2.34499e-09 -4.88495e-09 1.42483e-07 -2.50257e-09 3.5326e-08 1.57582e-10)
(2.83324e-09 -3.02188e-09 9.51807e-08 -2.99049e-09 4.02403e-08 1.57254e-10)
(2.79153e-09 -1.53938e-09 5.68046e-08 -2.95934e-09 3.51499e-08 1.67808e-10)
(1.8225e-09 -3.29663e-10 3.27914e-08 -1.94623e-09 2.77299e-08 1.23727e-10)
(-2.05789e-09 -4.27693e-10 1.10656e-07 9.8998e-10 -9.25141e-08 1.06791e-09)
(-3.70576e-10 -1.3406e-10 1.51065e-07 -8.11187e-10 -9.17906e-08 1.18176e-09)
(2.10787e-09 2.46409e-09 1.904e-07 -3.32918e-09 -7.83015e-08 1.22131e-09)
(2.17871e-09 5.00678e-09 2.13175e-07 -3.16622e-09 -5.04786e-08 9.87504e-10)
(7.36315e-10 6.74686e-09 2.09277e-07 -1.46894e-09 -1.55213e-08 7.32624e-10)
(-1.27765e-09 6.38335e-09 1.80414e-07 8.22116e-10 1.52784e-08 4.55534e-10)
(-2.54924e-09 4.60046e-09 1.36497e-07 2.30207e-09 3.37588e-08 2.47163e-10)
(-2.63389e-09 2.46876e-09 9.11802e-08 2.51749e-09 3.84893e-08 1.16406e-10)
(-1.97602e-09 9.31298e-10 5.41711e-08 1.92295e-09 3.34793e-08 5.30724e-11)
(-1.22746e-09 1.68835e-10 3.10088e-08 1.20738e-09 2.62151e-08 2.00798e-11)
(4.34502e-09 7.79506e-10 5.8499e-08 -5.18589e-09 -4.92015e-08 8.40869e-10)
(6.98399e-09 3.83157e-09 8.76583e-08 -8.0866e-09 -5.38755e-08 1.10261e-09)
(8.35112e-09 9.04778e-09 1.22227e-07 -9.62803e-09 -5.09771e-08 1.27691e-09)
(6.67086e-09 1.4497e-08 1.50424e-07 -7.90495e-09 -3.63157e-08 1.23409e-09)
(2.17944e-09 1.77094e-08 1.5971e-07 -3.19075e-09 -1.2406e-08 1.01132e-09)
(-3.19281e-09 1.71943e-08 1.46914e-07 2.48362e-09 1.20395e-08 7.09191e-10)
(-7.23404e-09 1.36018e-08 1.17317e-07 6.84066e-09 2.87551e-08 3.9338e-10)
(-8.50039e-09 8.30942e-09 8.20022e-08 8.29439e-09 3.44571e-08 2.05999e-10)
(-7.83239e-09 3.93907e-09 5.07987e-08 7.77828e-09 3.12901e-08 5.41019e-11)
(-5.4652e-09 8.69586e-10 3.02888e-08 5.45966e-09 2.55175e-08 5.54193e-12)
(7.99999e-09 1.40043e-09 3.3536e-08 -8.37799e-09 -2.82679e-08 3.78002e-10)
(1.12089e-08 5.96167e-09 5.41438e-08 -1.17592e-08 -3.34307e-08 5.50267e-10)
(1.14619e-08 1.20056e-08 8.15391e-08 -1.21206e-08 -3.42113e-08 6.5873e-10)
(8.8269e-09 1.84705e-08 1.08694e-07 -9.5924e-09 -2.64649e-08 7.65502e-10)
(2.95344e-09 2.198e-08 1.24658e-07 -3.65342e-09 -9.88387e-09 6.99984e-10)
(-3.81467e-09 2.15685e-08 1.23381e-07 3.23609e-09 9.97048e-09 5.78576e-10)
(-9.21435e-09 1.76279e-08 1.05616e-07 8.86787e-09 2.5826e-08 3.46486e-10)
(-1.13158e-08 1.1213e-08 7.85741e-08 1.11108e-08 3.29985e-08 2.04921e-10)
(-1.11477e-08 5.69941e-09 5.21141e-08 1.1137e-08 3.21045e-08 1.07161e-11)
(-7.95381e-09 1.29504e-09 3.30844e-08 7.98609e-09 2.78061e-08 -3.22813e-11)
(4.9887e-09 9.01053e-10 2.12972e-08 -5.04582e-09 -1.79068e-08 5.71143e-11)
(6.88049e-09 3.70489e-09 3.60078e-08 -7.01011e-09 -2.21017e-08 1.29622e-10)
(6.49629e-09 6.86234e-09 5.64842e-08 -6.64103e-09 -2.3534e-08 1.44746e-10)
(4.78522e-09 1.01817e-08 7.75918e-08 -5.03885e-09 -1.87033e-08 2.53635e-10)
(1.44328e-09 1.16325e-08 9.22535e-08 -1.72343e-09 -7.16471e-09 2.80146e-10)
(-2.1272e-09 1.12059e-08 9.51929e-08 1.82342e-09 7.78315e-09 3.03784e-10)
(-4.95061e-09 9.20725e-09 8.58746e-08 4.72272e-09 2.10251e-08 2.27891e-10)
(-6.13085e-09 5.96416e-09 6.81472e-08 5.94691e-09 2.85687e-08 1.83934e-10)
(-6.48599e-09 3.27947e-09 4.93189e-08 6.43011e-09 3.03054e-08 5.58802e-11)
(-4.75307e-09 7.44714e-10 3.44664e-08 4.72372e-09 2.88639e-08 2.93512e-11)
(-6.86992e-10 -8.65953e-11 2.5098e-08 7.04554e-10 -2.09941e-08 -1.75616e-11)
(-7.02556e-10 -2.8587e-10 4.00566e-08 6.5418e-10 -2.43811e-08 4.83755e-11)
(-1.04773e-09 -9.25651e-10 6.05943e-08 9.53748e-10 -2.5035e-08 9.39851e-11)
(-8.07649e-10 -1.27332e-09 8.00886e-08 6.11285e-10 -1.91076e-08 1.96364e-10)
(-4.43126e-10 -1.58384e-09 9.28925e-08 1.90711e-10 -7.07867e-09 2.52415e-10)
(3.87793e-11 -1.55363e-09 9.41378e-08 -3.269e-10 7.77833e-09 2.88121e-10)
(4.37148e-10 -1.22283e-09 8.37885e-08 -6.99722e-10 2.0567e-08 2.62573e-10)
(6.69125e-10 -8.16685e-10 6.55299e-08 -9.01387e-10 2.75202e-08 2.32263e-10)
(4.17552e-10 -2.55365e-10 4.64441e-08 -5.80399e-10 2.85966e-08 1.62847e-10)
(4.10179e-10 -8.96048e-11 3.18229e-08 -5.44526e-10 2.66579e-08 1.34346e-10)
(-5.8512e-09 -9.94226e-10 2.28742e-08 5.74302e-09 -1.91095e-08 1.08173e-10)
(-6.76766e-09 -3.42603e-09 3.42368e-08 6.56621e-09 -2.08735e-08 2.01449e-10)
(-6.13284e-09 -6.01582e-09 4.91162e-08 5.78269e-09 -2.0391e-08 3.50149e-10)
(-4.20621e-09 -7.86721e-09 6.31534e-08 3.74731e-09 -1.5246e-08 4.589e-10)
(-1.57614e-09 -8.19707e-09 7.2007e-08 1.05503e-09 -5.71392e-09 5.21107e-10)
(8.34172e-10 -7.31304e-09 7.23434e-08 -1.32284e-09 5.73419e-09 4.88669e-10)
(2.56474e-09 -5.66719e-09 6.40842e-08 -2.96317e-09 1.55095e-08 3.98424e-10)
(3.37786e-09 -3.66759e-09 4.99572e-08 -3.64798e-09 2.08151e-08 2.70125e-10)
(3.45352e-09 -1.89656e-09 3.52057e-08 -3.62199e-09 2.15728e-08 1.68476e-10)
(2.8247e-09 -5.2506e-10 2.39072e-08 -2.92174e-09 1.99895e-08 9.70402e-11)
(-5.17801e-09 -1.06955e-09 2.21162e-08 5.33449e-09 -1.85271e-08 -1.56482e-10)
(-4.74029e-09 -2.61687e-09 3.09966e-08 4.97645e-09 -1.90324e-08 -2.36169e-10)
(-3.38125e-09 -3.7474e-09 4.16665e-08 3.67397e-09 -1.74867e-08 -2.9272e-10)
(-1.51316e-09 -3.73261e-09 5.24981e-08 1.92828e-09 -1.29743e-08 -4.1512e-10)
(-4.33686e-11 -2.8071e-09 5.94886e-08 6.31125e-10 -5.07091e-09 -5.87757e-10)
(6.93223e-10 -1.91384e-09 6.03215e-08 7.66532e-11 4.39783e-09 -7.69876e-10)
(1.20049e-09 -1.67326e-09 5.45213e-08 -3.23858e-10 1.28092e-08 -8.76635e-10)
(1.87628e-09 -1.61968e-09 4.40892e-08 -9.85336e-10 1.8015e-08 -8.90948e-10)
(2.95548e-09 -1.44755e-09 3.27655e-08 -2.17723e-09 1.97525e-08 -7.78255e-10)
(3.3263e-09 -5.48406e-10 2.41886e-08 -2.69791e-09 2.00187e-08 -6.28388e-10)
(4.64285e-10 -9.35718e-10 6.96938e-08 1.08097e-09 -5.89105e-08 -1.54525e-09)
(7.55471e-09 2.88597e-09 9.38721e-08 -5.23794e-09 -5.80894e-08 -2.31677e-09)
(9.31698e-09 7.22119e-09 1.23106e-07 -6.03816e-09 -5.25004e-08 -3.27882e-09)
(1.04087e-08 1.55756e-08 1.60404e-07 -6.18784e-09 -4.09636e-08 -4.22083e-09)
(6.3985e-09 2.2097e-08 1.94549e-07 -9.87954e-10 -1.82264e-08 -5.41054e-09)
(-8.1548e-10 2.47003e-08 2.16826e-07 7.07281e-09 1.40002e-08 -6.25733e-09)
(-7.52405e-09 2.06348e-08 2.19633e-07 1.41634e-08 4.97589e-08 -6.63936e-09)
(-9.75067e-09 1.22366e-08 2.02615e-07 1.61389e-08 8.1053e-08 -6.38822e-09)
(-6.02467e-09 3.91942e-09 1.72321e-07 1.16038e-08 1.025e-07 -5.5791e-09)
(-3.21231e-10 2.0592e-10 1.4078e-07 4.76235e-09 1.16265e-07 -4.44111e-09)
(9.41346e-08 8.50321e-09 3.53214e-07 -8.63855e-08 -2.9856e-07 -7.7491e-09)
(1.61061e-07 7.45479e-08 4.87586e-07 -1.48767e-07 -2.99201e-07 -1.22942e-08)