/*--------------------------------*- C++ -*----------------------------------*\
| =========                 |                                                 |
| \\      /  F ield         | OpenFOAM: The Open Source CFD Toolbox           |
|  \\    /   O peration     | Version:  2406                                  |
|   \\  /    A nd           | Website:  www.openfoam.com                      |
|    \\/     M anipulation  |                                                 |
\*---------------------------------------------------------------------------*/
FoamFile
{
    version     2.0;
    format      ascii;
    arch        "LSB;label=32;scalar=64";
    class       volSymmTensorField;
    location    "0.6";
    object      turbulenceProperties:devReff;
}
// * * * * * * * * * * * * * * * * * * * * * * * * * * * * * * * * * * * * * //

dimensions      [0 2 -2 0 0 0 0];

internalField   nonuniform List<symmTensor> 
25000
(
(0.0300705 -0.022861 -0.0719746 0.0301171 -0.0718994 -0.0601876)
(0.0521841 -0.0120747 -0.0459515 0.0324524 -0.0654061 -0.0846365)
(0.059963 -0.00667476 -0.0281511 0.0383272 -0.0562887 -0.0982902)
(0.0637755 -0.00310535 -0.0152464 0.0420494 -0.0498786 -0.105825)
(0.0654465 -0.000967525 -0.00496205 0.0438459 -0.0467235 -0.109292)
(0.0654939 0.000839718 0.00447637 0.0438486 -0.0467182 -0.109343)
(0.063912 0.00297657 0.014782 0.0420613 -0.0498649 -0.105973)
(0.0601931 0.00654465 0.0277312 0.0383498 -0.0562709 -0.0985429)
(0.0526136 0.01192 0.0455981 0.0324226 -0.0653886 -0.0850362)
(0.0306244 0.0227254 0.0717492 0.0300263 -0.0718955 -0.0606507)
(0.0324504 -0.0121554 -0.0654613 0.0522089 -0.045831 -0.0846593)
(0.053846 -0.00577668 -0.0370814 0.0538491 -0.0369927 -0.107695)
(0.0607619 -0.00316554 -0.0204645 0.0567101 -0.030837 -0.117472)
(0.063755 -0.00144416 -0.010404 0.0583049 -0.0269791 -0.12206)
(0.0649592 -0.000427645 -0.00332939 0.0590125 -0.0251334 -0.123972)
(0.0650071 0.000361976 0.00286983 0.0590043 -0.0251276 -0.124011)
(0.0638892 0.00137811 0.00996289 0.0582852 -0.0269636 -0.122174)
(0.0609838 0.00309162 0.0200626 0.0566793 -0.030817 -0.117663)
(0.0542499 0.00566223 0.0367428 0.053754 -0.0369756 -0.108004)
(0.0329626 0.0119849 0.0652399 0.0520946 -0.0458314 -0.0850571)
(0.0383548 -0.00680045 -0.0563436 0.0599633 -0.0279966 -0.0983181)
(0.0567276 -0.00321769 -0.0309146 0.0607583 -0.0203485 -0.117486)
(0.0625542 -0.001699 -0.0162832 0.0625466 -0.0161865 -0.125101)
(0.0647237 -0.00072083 -0.00791166 0.0635566 -0.0138782 -0.12828)
(0.0654583 -0.000189867 -0.00249462 0.0639795 -0.0128339 -0.129438)
(0.0655039 0.000175079 0.00206051 0.0639679 -0.0128274 -0.129472)
(0.0648495 0.0006998 0.00749339 0.0635274 -0.0138602 -0.128377)
(0.0627559 0.00166181 0.015898 0.0625011 -0.0161617 -0.125257)
(0.0570844 0.00313667 0.0305851 0.0606545 -0.0203256 -0.117739)
(0.0388089 0.0066585 0.0561153 0.0598477 -0.027988 -0.0986566)
(0.0420969 -0.00325411 -0.0499466 0.0637486 -0.0150629 -0.105845)
(0.0583471 -0.00152764 -0.027062 0.0637298 -0.0102629 -0.122077)
(0.0635798 -0.000753582 -0.0139716 0.0647057 -0.00779625 -0.128285)
(0.0652908 -0.000276213 -0.00663903 0.0652706 -0.00653411 -0.130561)
(0.0657472 -5.22182e-05 -0.00208144 0.0654941 -0.00599631 -0.131241)
(0.0657878 7.08831e-05 0.00166676 0.0654836 -0.00599024 -0.131271)
(0.0653998 0.000281306 0.00623794 0.0652459 -0.00651709 -0.130646)
(0.0637498 0.000733008 0.0135973 0.0646699 -0.00777205 -0.12842)
(0.0586555 0.00146238 0.0267333 0.0636403 -0.0102387 -0.122296)
(0.0425013 0.00313177 0.0497042 0.0636381 -0.0150482 -0.106139)
(0.0439109 -0.00112387 -0.0468085 0.0653786 -0.00476085 -0.109289)
(0.0590856 -0.000527074 -0.0252301 0.0648911 -0.00317104 -0.123977)
(0.0640283 -0.00024135 -0.0129344 0.0654062 -0.00236508 -0.129434)
(0.0655288 -7.09412e-05 -0.00610151 0.0657053 -0.00196693 -0.131234)
(0.0658547 5.88524e-06 -0.00191145 0.0658115 -0.00180137 -0.131666)
(0.0658874 4.10863e-05 0.00150916 0.0658056 -0.0017958 -0.131693)
(0.0656157 9.88013e-05 0.00571002 0.0656937 -0.0019515 -0.131309)
(0.0641621 0.000235805 0.0125638 0.0653919 -0.00234328 -0.129554)
(0.0593448 0.000475488 0.0248961 0.0648291 -0.00314811 -0.124174)
(0.0442686 0.00101706 0.0465499 0.0652878 -0.00474258 -0.109556)
(0.0439254 0.000682085 -0.0468211 0.0653804 0.00468326 -0.109306)
(0.0591055 0.000255437 -0.0252421 0.0648894 0.00303539 -0.123995)
(0.0640422 0.000117386 -0.012941 0.0654106 0.00219666 -0.129453)
(0.0655339 4.76726e-05 -0.00610267 0.0657179 0.001786 -0.131252)
(0.06585 3.81911e-05 -0.00190876 0.0658327 0.00162184 -0.131683)
(0.0658736 4.46726e-05 0.0015139 0.0658344 0.00162754 -0.131708)
(0.0655944 1.06673e-05 0.00571543 0.0657276 0.00180159 -0.131322)
(0.064135 -0.000100329 0.0125686 0.0654295 0.00221844 -0.129565)
(0.0593159 -0.00028664 0.0248983 0.0648668 0.00305888 -0.124183)
(0.0442412 -0.00076774 0.0465459 0.065322 0.00470535 -0.109563)
(0.0421391 0.00282741 -0.0499828 0.0637609 0.0149811 -0.1059)
(0.0584018 0.00127823 -0.0270956 0.0637344 0.0101249 -0.122136)
(0.063614 0.000650876 -0.0139891 0.0647301 0.00762896 -0.128344)
(0.0652986 0.00026953 -0.00664083 0.0653195 0.00635789 -0.130618)
(0.0657273 0.000108803 -0.00207217 0.0655668 0.00582414 -0.131294)
(0.0657407 2.23325e-05 0.00168192 0.0655768 0.00583091 -0.131318)
(0.0653308 -0.000168212 0.00625456 0.0653546 0.00637629 -0.130685)
(0.0636658 -0.000597014 0.0136118 0.0647877 0.00765525 -0.128454)
(0.0585658 -0.00127828 0.0267401 0.0637573 0.0101547 -0.122323)
(0.0424182 -0.00288671 0.0496923 0.0637413 0.0150113 -0.106159)
(0.0384211 0.00640825 -0.0563982 0.0600075 0.0279075 -0.0984286)
(0.0567982 0.00301288 -0.030962 0.0608019 0.0202085 -0.1176)
(0.0625841 0.00163651 -0.0163046 0.0626269 0.0160246 -0.125211)
(0.0647112 0.000742956 -0.00790907 0.0636752 0.0137141 -0.128386)
(0.0654027 0.000262607 -0.00247564 0.0641326 0.0126786 -0.129535)
(0.065407 -7.28769e-05 0.00208764 0.0641505 0.0126872 -0.129558)
(0.0647185 -0.000580661 0.00752217 0.0637339 0.0137385 -0.128452)
(0.0625983 -0.00152725 0.0159225 0.0627232 0.0160615 -0.125321)
(0.0569165 -0.00296519 0.0305956 0.0608775 0.020252 -0.117794)
(0.0386632 -0.00643444 0.056095 0.0600401 0.0279515 -0.0987033)
(0.0325168 0.0118245 -0.0655217 0.0523476 0.0457316 -0.0848644)
(0.0538765 0.00562719 -0.0371274 0.054029 0.0368538 -0.107905)
(0.0607212 0.00314452 -0.0204787 0.056948 0.0306884 -0.117669)
(0.0636606 0.00148917 -0.0103901 0.0585843 0.0268369 -0.122245)
(0.064816 0.000510077 -0.00329769 0.0593254 0.0250049 -0.124141)
(0.0648172 -0.000253334 0.00290985 0.0593474 0.0250161 -0.124165)
(0.0636567 -0.00125274 0.0100034 0.0586554 0.0268702 -0.122312)
(0.0607127 -0.00294866 0.0200954 0.0570725 0.0307414 -0.117785)
(0.0539504 -0.0054849 0.0367544 0.0541666 0.0369198 -0.108117)
(0.0326949 -0.0117702 0.0652065 0.0524741 0.0457999 -0.0851689)
(0.030133 0.0227167 -0.072024 0.0303122 0.0717983 -0.0604452)
(0.0521756 0.0120158 -0.0459797 0.0327445 0.065286 -0.0849202)
(0.0598598 0.00669843 -0.0281486 0.0386837 0.0561729 -0.0985435)
(0.0636232 0.0031635 -0.0152178 0.0424283 0.0497746 -0.106051)
(0.065254 0.0010473 -0.00491753 0.0442396 0.046635 -0.109494)
(0.0652616 -0.000741612 0.00452765 0.0442579 0.0466471 -0.109519)
(0.0636419 -0.00286331 0.0148321 0.0424878 0.0498113 -0.10613)
(0.0598859 -0.00640332 0.0277727 0.0387943 0.056233 -0.0986802)
(0.0522559 -0.0117485 0.045618 0.0328978 0.0653687 -0.0851537)
(0.0302621 -0.0225915 0.0717186 0.0304817 0.0718938 -0.0607438)
(-0.000535039 -0.0181018 -0.111508 -0.000164444 -0.111287 0.000699483)
(0.0132102 -0.0161868 -0.0771684 0.00103629 -0.109537 -0.0142465)
(0.0230343 -0.0122817 -0.0490086 0.00312934 -0.0975108 -0.0261637)
(0.030484 -0.00756265 -0.0269542 0.00471835 -0.0874526 -0.0352024)
(0.0343388 -0.00239586 -0.00890137 0.00560635 -0.082055 -0.0399451)
(0.0344808 0.0027964 0.00776031 0.00568263 -0.0820015 -0.0401634)
(0.03091 0.00792076 0.0258253 0.00494562 -0.087296 -0.0358556)
(0.0237506 0.0125352 0.0479183 0.00348836 -0.0972566 -0.027239)
(0.0143645 0.0162482 0.0761556 0.00143225 -0.109219 -0.0157968)
(0.000882879 0.0179157 0.110686 0.000255208 -0.110987 -0.00113809)
(0.000706544 -0.0163483 -0.109671 0.0136111 -0.0768469 -0.0143177)
(0.0170562 -0.014555 -0.0655372 0.0174815 -0.0652993 -0.0345377)
(0.0293568 -0.0107453 -0.035899 0.0207651 -0.054167 -0.050122)
(0.0374091 -0.00641136 -0.0176544 0.0228434 -0.0458752 -0.0602525)
(0.0411772 -0.00200127 -0.00555649 0.0238529 -0.0415272 -0.0650301)
(0.0413146 0.00238023 0.00461264 0.02387 -0.0414836 -0.0651846)
(0.0378222 0.00676399 0.016714 0.0229048 -0.0457475 -0.060727)
(0.0300641 0.0110282 0.0349778 0.0208827 -0.0539649 -0.0509468)
(0.0181844 0.0146884 0.064678 0.0175986 -0.0650449 -0.035783)
(0.00202216 0.0162498 0.108982 0.0138287 -0.0765667 -0.0158508)
(0.00284077 -0.0125971 -0.0976111 0.0233446 -0.0486026 -0.0261854)
(0.020389 -0.0109054 -0.0543588 0.0297109 -0.0355877 -0.0500999)
(0.0333136 -0.00766347 -0.0267332 0.0336385 -0.0264808 -0.0669521)
(0.040786 -0.00440538 -0.0117168 0.0356474 -0.020591 -0.0764334)
(0.0440909 -0.00133429 -0.00346998 0.0365606 -0.0176945 -0.0806515)
(0.0442141 0.00166463 0.0026938 0.0365493 -0.0176637 -0.0807634)
(0.0411533 0.00471105 0.0109395 0.0356259 -0.0205003 -0.0767792)
(0.033946 0.00790821 0.0259625 0.0336317 -0.0263334 -0.0675777)
(0.0214114 0.0110279 0.053641 0.0297041 -0.035396 -0.0511154)
(0.00404694 0.0125226 0.0970657 0.0234477 -0.0483816 -0.0274946)
(0.00443869 -0.00796288 -0.0875699 0.0306942 -0.0264676 -0.0351329)
(0.0225285 -0.00667956 -0.0460617 0.037651 -0.0172782 -0.0601795)
(0.0353795 -0.00452374 -0.0208197 0.0410139 -0.0114137 -0.0763935)
(0.0424645 -0.0025397 -0.00817648 0.0426547 -0.00791107 -0.0851192)
(0.04557 -0.000742582 -0.0022477 0.0434362 -0.00623453 -0.0890063)
(0.0456806 0.00100259 0.00158742 0.0434154 -0.00621298 -0.089096)
(0.0427887 0.0027737 0.00751359 0.0426039 -0.00784872 -0.0853926)
(0.0359291 0.00470131 0.0201613 0.0409568 -0.0113143 -0.0768859)
(0.0234265 0.00676095 0.0454461 0.0375828 -0.0171478 -0.0610093)
(0.00554036 0.0079035 0.0871173 0.03071 -0.026321 -0.0362504)
(0.00530148 -0.00282103 -0.0822129 0.034414 -0.00835355 -0.0397155)
(0.0235914 -0.00232703 -0.0417367 0.0412729 -0.00512636 -0.0648643)
(0.0363564 -0.00152804 -0.0179278 0.0441915 -0.00312181 -0.0805479)
(0.0432954 -0.000824287 -0.00649203 0.0456571 -0.00194669 -0.0889526)
(0.0463308 -0.000200028 -0.00166725 0.0463922 -0.00138477 -0.0927229)
(0.0464269 0.000398487 0.00107111 0.0463744 -0.00137136 -0.0928013)
(0.0435756 0.000995081 0.00589138 0.0456135 -0.00190765 -0.0891891)
(0.0368292 0.00164679 0.017332 0.0441407 -0.00305976 -0.0809698)
(0.0243794 0.00237298 0.0411809 0.0412032 -0.00504662 -0.0655826)
(0.00631104 0.00278098 0.0818105 0.0343987 -0.00826991 -0.0407098)
(0.00532538 0.00237714 -0.0822147 0.0344004 0.0083522 -0.0397257)
(0.0236398 0.00202938 -0.0417358 0.0412505 0.00508666 -0.0648902)
(0.0363963 0.00142966 -0.017923 0.0441786 0.00308168 -0.0805749)
(0.0433174 0.000871442 -0.00648521 0.0456603 0.00192259 -0.0889777)
(0.0463339 0.000346981 -0.001659 0.0464106 0.0013804 -0.0927445)
(0.0464138 -0.000186149 0.00108097 0.0464045 0.00138673 -0.0928183)
(0.0435505 -0.000741059 0.00590296 0.0456491 0.00194251 -0.0891996)
(0.0367945 -0.00135021 0.0173454 0.0441763 0.00311511 -0.0809709)
(0.0243367 -0.00200714 0.0411976 0.0412316 0.00512778 -0.0655683)
(0.0062567 -0.00239879 0.0818279 0.0344122 0.00838797 -0.0406689)
(0.00451456 0.00754552 -0.0875698 0.0306611 0.0264413 -0.0351757)
(0.0226723 0.00642313 -0.0460544 0.0375947 0.0172197 -0.0602669)
(0.0354932 0.0044679 -0.0208013 0.0409877 0.011359 -0.0764809)
(0.0425236 0.00262252 -0.00815263 0.0426756 0.00787751 -0.0851992)
(0.0455751 0.000916746 -0.00221963 0.0434999 0.00622556 -0.089075)
(0.0456382 -0.000772462 0.00161969 0.0435099 0.00622748 -0.0891481)
(0.0427099 -0.00251075 0.0075504 0.0427134 0.00788517 -0.0854233)
(0.0358234 -0.00440467 0.0202045 0.0410637 0.0113734 -0.0768871)
(0.0232969 -0.00640813 0.0454993 0.0376651 0.0172349 -0.060962)
(0.00538111 -0.00754231 0.0871711 0.0307441 0.0264457 -0.0361252)
(0.00297892 0.0122382 -0.0975924 0.0233185 0.0485323 -0.0262975)
(0.0206138 0.0107329 -0.0543326 0.0296646 0.0354989 -0.0502784)
(0.0334758 0.00768886 -0.0266904 0.033648 0.0264043 -0.0671238)
(0.0408586 0.0045522 -0.0116657 0.0357271 0.0205455 -0.0765857)
(0.0440782 0.00155075 -0.00341345 0.0367005 0.0176827 -0.0807787)
(0.0441282 -0.00140943 0.00275633 0.0367297 0.0176826 -0.0808579)
(0.0410096 -0.00443581 0.0110095 0.0358246 0.020547 -0.0768342)
(0.0337549 -0.00761753 0.0260432 0.0338224 0.0264075 -0.0675774)
(0.0211807 -0.0107067 0.0537359 0.0298549 0.0355001 -0.0510355)
(0.00379049 -0.0122138 0.0971598 0.0235114 0.0485202 -0.0273018)
(0.000888643 0.0160941 -0.109609 0.013679 0.0767328 -0.0145676)
(0.0172879 0.0144906 -0.0654717 0.0175884 0.0651894 -0.0348763)
(0.0294828 0.0108603 -0.0358162 0.0209632 0.0540857 -0.050446)
(0.0374222 0.00661952 -0.0175625 0.0231126 0.0458376 -0.0605349)
(0.041089 0.00225431 -0.00545902 0.0241719 0.0415358 -0.0652609)
(0.0411394 -0.00210393 0.00471718 0.0242173 0.0415336 -0.0653567)
(0.0375718 -0.0064797 0.0168285 0.0232594 0.0458333 -0.0608312)
(0.0297469 -0.0107392 0.0351055 0.0212188 0.0540818 -0.0509657)
(0.0178056 -0.0143867 0.0648194 0.0178954 0.0651882 -0.0357009)
(0.00162759 -0.0159842 0.109118 0.014011 0.0767299 -0.0156386)
(-0.000318835 0.0180825 -0.111381 -4.79318e-05 0.111142 0.000366767)
(0.0134406 0.0162638 -0.0770399 0.0012348 0.109426 -0.0146754)
(0.0231391 0.0124722 -0.0488687 0.00342177 0.0974594 -0.0265609)
(0.0304866 0.00780117 -0.0268096 0.00505118 0.0874631 -0.0355378)
(0.0342475 0.00265568 -0.00875334 0.00595235 0.0821202 -0.0401998)
(0.0343028 -0.0025284 0.00791549 0.00602274 0.0821126 -0.0403255)
(0.0306538 -0.00765689 0.025991 0.00526371 0.0874432 -0.0359175)
(0.0234216 -0.0122721 0.0480943 0.00376897 0.0974295 -0.0271905)
(0.0139422 -0.0160036 0.0763358 0.0016772 0.109406 -0.0156194)
(0.000398169 -0.0178115 0.110839 0.00040754 0.111159 -0.000805709)
(-0.00851443 -0.0164291 -0.152934 -0.00833174 -0.152382 0.0168462)
(0.00165262 -0.0123521 -0.119337 -0.0094488 -0.163538 0.00779618)
(0.00772784 -0.00915467 -0.0829928 -0.00841728 -0.157905 0.000689445)
(0.0124839 -0.00552163 -0.0489364 -0.00750229 -0.150893 -0.00498156)
(0.0151906 -0.00159122 -0.0170053 -0.00690539 -0.146708 -0.00828525)
(0.0154055 0.0023899 0.0140851 -0.00669771 -0.14647 -0.00870778)
(0.0131191 0.0062196 0.0459854 -0.00688576 -0.150184 -0.00623331)
(0.00876263 0.00961498 0.0800135 -0.00743607 -0.156737 -0.00132656)
(0.0033393 0.0124486 0.116382 -0.00826641 -0.162032 0.00492711)
(-0.00634479 0.0160451 0.150278 -0.00711542 -0.150885 0.0134602)
(-0.00958441 -0.0126851 -0.163828 0.00186902 -0.118527 0.00771539)
(0.00223484 -0.0100602 -0.114806 0.00261668 -0.114212 -0.00485152)
(0.0102803 -0.00755875 -0.0733404 0.00459291 -0.106388 -0.0148732)
(0.0163966 -0.00454089 -0.0410113 0.00612911 -0.0996894 -0.0225258)
(0.0197588 -0.00124713 -0.0138653 0.00701884 -0.0959538 -0.0267776)
(0.0199823 0.00210159 0.0115926 0.00714246 -0.0957859 -0.0271248)
(0.017045 0.00530539 0.0386946 0.00650477 -0.0991829 -0.0235498)
(0.0113239 0.00813072 0.0709471 0.00521075 -0.10554 -0.0165347)
(0.00386134 0.0103099 0.112332 0.00337214 -0.11306 -0.00723348)
(-0.00767131 0.0124231 0.161474 0.00286231 -0.117166 0.004809)
(-0.00869101 -0.00979158 -0.158091 0.00788894 -0.0819115 0.000802069)
(0.00409602 -0.00785487 -0.106865 0.0106547 -0.0725249 -0.0147507)
(0.0135261 -0.00573528 -0.0660151 0.0140162 -0.0653434 -0.0275424)
(0.0205654 -0.00334825 -0.0358293 0.0164707 -0.0603691 -0.0370361)
(0.0243335 -0.000856082 -0.0118734 0.0177865 -0.0577391 -0.0421201)
(0.0245495 0.00164556 0.0100231 0.0178666 -0.0576344 -0.0424161)
(0.0211996 0.00405052 0.0339393 0.0167208 -0.0600517 -0.0379204)
(0.0145532 0.00625742 0.0640623 0.0144428 -0.0648009 -0.028996)
(0.00564702 0.00807929 0.104851 0.011192 -0.0717444 -0.016839)
(-0.00686998 0.00952915 0.156199 0.00869064 -0.0808979 -0.00182066)
(-0.00797729 -0.00634773 -0.151145 0.0126224 -0.0475666 -0.00464511)
(0.00552125 -0.00505239 -0.100169 0.0167179 -0.039982 -0.0222392)
(0.0159007 -0.0035801 -0.0609966 0.0209763 -0.0349887 -0.036877)
(0.0234873 -0.00202258 -0.0325538 0.0239484 -0.0318019 -0.0474357)
(0.027409 -0.000460226 -0.0106373 0.0253942 -0.0301538 -0.0528032)
(0.0276125 0.00108058 0.00905416 0.0254368 -0.0300961 -0.0530493)
(0.0240907 0.002565 0.0309371 0.0240993 -0.0316259 -0.0481899)
(0.016892 0.00396251 0.0593383 0.0212581 -0.0346855 -0.0381502)
(0.00699773 0.0051785 0.0984885 0.0170829 -0.0395345 -0.0240806)
(-0.0062112 0.00606637 0.149602 0.0132039 -0.046969 -0.00699271)
(-0.00760759 -0.0024695 -0.147123 0.0151851 -0.0153733 -0.00757755)
(0.00631282 -0.00188081 -0.0965259 0.0198991 -0.0126358 -0.0262119)
(0.0171685 -0.00124803 -0.058398 0.0245552 -0.0108817 -0.0417237)
(0.0249201 -0.000636819 -0.0308889 0.0276801 -0.00977769 -0.0526003)
(0.0287933 -6.21909e-05 -0.0100147 0.0290784 -0.00921308 -0.0578717)
(0.0289748 0.000480465 0.00857954 0.0291054 -0.00919187 -0.0580803)
(0.0254731 0.000991238 0.0294254 0.0277888 -0.009712 -0.0532618)
(0.0181008 0.00147506 0.0569078 0.0247768 -0.0107698 -0.0428775)
(0.00771078 0.0019107 0.0950417 0.0201889 -0.012475 -0.0278997)
(-0.0058827 0.00221159 0.145794 0.0156406 -0.0151685 -0.00975792)
(-0.00763312 0.00153215 -0.147132 0.0151549 0.0159521 -0.00752176)
(0.00633564 0.00141635 -0.0965241 0.0198501 0.0130083 -0.0261858)
(0.0172092 0.00116212 -0.0583886 0.0245054 0.0111543 -0.0417147)
(0.0249575 0.000787379 -0.0308746 0.0276406 0.0100114 -0.0525981)
(0.0288161 0.000351087 -0.00999642 0.029053 0.00944157 -0.0578692)
(0.0289801 -0.000118733 0.00860362 0.0290897 0.00943581 -0.0580698)
(0.0254583 -0.000603577 0.02946 0.0277747 0.00999056 -0.053233)
(0.0180661 -0.00107592 0.0569575 0.0247585 0.0111108 -0.0428246)
(0.00765803 -0.00147126 0.0951129 0.0201616 0.0129272 -0.0278196)
(-0.00594868 -0.00176062 0.145887 0.0155946 0.0158141 -0.00964596)
(-0.00805412 0.0054567 -0.151158 0.0125478 0.0480512 -0.00449368)
(0.005583 0.00463812 -0.100155 0.0165932 0.0402812 -0.0221762)
(0.0160097 0.00354136 -0.0609619 0.0208503 0.0352 -0.03686)
(0.0235899 0.00221277 -0.032506 0.0238475 0.0319847 -0.0474374)
(0.0274727 0.000780332 -0.0105764 0.025326 0.0303427 -0.0527987)
(0.0276216 -0.000699787 0.00913463 0.0253928 0.0303138 -0.0530144)
(0.0240437 -0.00216917 0.0310489 0.0240599 0.0318926 -0.0481035)
(0.0167913 -0.00356336 0.0594951 0.0212062 0.0350287 -0.0379975)
(0.00684051 -0.0047503 0.0987085 0.0170066 0.0400011 -0.0238471)
(-0.00640411 -0.00563413 0.149884 0.0130693 0.0476358 -0.00666517)
(-0.008817 0.00900038 -0.15807 0.00781608 0.0822249 0.00100092)
(0.00416319 0.00753362 -0.106809 0.0105255 0.072692 -0.0146887)
(0.0136657 0.00577329 -0.0659338 0.013885 0.0654463 -0.0275507)
(0.0207032 0.00359486 -0.0357281 0.0163676 0.0604662 -0.0370707)
(0.0244158 0.00121168 -0.0117493 0.0177189 0.0578663 -0.0421347)
(0.024551 -0.00124507 0.0101826 0.0178233 0.0578161 -0.0423743)
(0.0211124 -0.00364568 0.034151 0.0166828 0.0603086 -0.0377952)
(0.0143771 -0.00586348 0.0643452 0.0143887 0.0651601 -0.0287658)
(0.00537709 -0.00767753 0.105234 0.011105 0.072247 -0.0164821)
(-0.00718044 -0.00914405 0.156679 0.00850228 0.081602 -0.00132184)
(-0.00977219 0.0120469 -0.163698 0.0018675 0.118652 0.00790469)
(0.00222903 0.00983934 -0.114658 0.00262936 0.114228 -0.00485838)
(0.0103525 0.00765559 -0.0731693 0.00462162 0.106369 -0.0149741)
(0.0164852 0.00481101 -0.0408155 0.00617404 0.0996994 -0.0226592)
(0.0197972 0.00160425 -0.0136369 0.00708065 0.0960299 -0.0268779)
(0.0199292 -0.00170714 0.01187 0.00721223 0.0959532 -0.0271415)
(0.0168813 -0.00490829 0.0390408 0.00656826 0.0994626 -0.0234495)
(0.0110387 -0.00774321 0.0713842 0.00525268 0.105956 -0.0162914)
(0.00342856 -0.00992357 0.112887 0.00339276 0.113638 -0.00682132)
(-0.00814813 -0.0120705 0.162132 0.00275627 0.117914 0.00539186)
(-0.00879353 0.0160458 -0.152636 -0.00821945 0.152326 0.017013)
(0.00151078 0.0122377 -0.119049 -0.00922898 0.163373 0.0077182)
(0.0076973 0.00926968 -0.0826736 -0.0082001 0.157741 0.000502802)
(0.0125199 0.00575446 -0.048582 -0.00731763 0.150806 -0.00520226)
(0.0152105 0.00188829 -0.0166115 -0.00675372 0.146732 -0.00845681)
(0.0153491 -0.00205713 0.0145356 -0.00658275 0.146627 -0.00876631)
(0.0129494 -0.00587689 0.0465118 -0.00681473 0.150489 -0.00613472)
(0.00845465 -0.00926807 0.0806295 -0.00741353 0.157206 -0.00104112)
(0.00282898 -0.0121213 0.117084 -0.00826601 0.162666 0.00543704)
(-0.00697736 -0.0158389 0.150983 -0.00720634 0.151603 0.0141837)
(-0.00211616 -0.00507386 -0.159016 -0.00202715 -0.157793 0.00414331)
(0.000379936 -0.00520262 -0.129012 -0.00292966 -0.174708 0.00254972)
(0.00309951 -0.0041911 -0.0929008 -0.0031447 -0.17373 4.51904e-05)
(0.00535768 -0.00250979 -0.056516 -0.00308189 -0.169791 -0.0022758)
(0.00675561 -0.000518367 -0.0205919 -0.00285895 -0.167029 -0.00389666)
(0.00700508 0.00154536 0.0150854 -0.0025666 -0.166613 -0.00443848)
(0.00610878 0.00340399 0.0510177 -0.00221984 -0.168553 -0.00388893)
(0.00434157 0.00473017 0.0874509 -0.00179644 -0.171724 -0.00254512)
(0.0024751 0.00525676 0.123732 -0.00131352 -0.172168 -0.00116158)
(0.000662711 0.00450824 0.154466 -0.000539611 -0.155329 -0.0001231)
(-0.0028504 -0.00582401 -0.175584 0.000287161 -0.12726 0.00256324)
(0.000335903 -0.00572707 -0.129888 0.000679088 -0.128448 -0.00101499)
(0.00440145 -0.00446025 -0.0873599 0.00115349 -0.124441 -0.00555494)
(0.00766851 -0.00265888 -0.0509953 0.00174923 -0.120003 -0.00941774)
(0.00958253 -0.000614686 -0.0181077 0.00225207 -0.117255 -0.0118346)
(0.00985137 0.00145391 0.0136637 0.00247878 -0.116941 -0.0123302)
(0.00845906 0.00335882 0.0465031 0.00242051 -0.119062 -0.0108796)
(0.00569146 0.00487583 0.082771 0.00222186 -0.122896 -0.00791332)
(0.0023739 0.00572494 0.125215 0.00199439 -0.126401 -0.0043683)
(-0.000541741 0.00524035 0.17122 0.0019069 -0.124914 -0.00136516)
(-0.00345473 -0.00546492 -0.174475 0.00275532 -0.090589 0.000699412)
(0.000458407 -0.00505179 -0.125706 0.00462346 -0.0854859 -0.00508187)
(0.00553168 -0.00373196 -0.0826242 0.00609022 -0.0810061 -0.0116219)
(0.00956376 -0.00212805 -0.0473077 0.00741269 -0.0775987 -0.0169764)
(0.0118789 -0.000465822 -0.0165353 0.0083195 -0.0757069 -0.0201984)
(0.012149 0.00113415 0.0128174 0.00852932 -0.0755137 -0.0206783)
(0.010365 0.00263997 0.0435386 0.00802312 -0.0770037 -0.0183881)
(0.00685172 0.00395822 0.0787259 0.00707124 -0.0799928 -0.013923)
(0.00248266 0.00486698 0.121676 0.00587002 -0.0840689 -0.00835268)
(-0.0011724 0.0046876 0.170675 0.0044586 -0.0888118 -0.00328619)
(-0.00396266 -0.00419334 -0.170703 0.00505373 -0.0535728 -0.00109107)
(0.000653015 -0.00368079 -0.121312 0.00787168 -0.04868 -0.00852469)
(0.00651555 -0.00259251 -0.0791497 0.0100239 -0.0453719 -0.0165394)
(0.0111957 -0.00139397 -0.0450705 0.0118864 -0.0433149 -0.0230821)
(0.0139506 -0.000284278 -0.0156961 0.0131361 -0.0423546 -0.0270867)
(0.0142485 0.000689354 0.0124186 0.0133138 -0.0422669 -0.0275623)
(0.0120521 0.00163748 0.0417797 0.0123874 -0.043015 -0.0244395)
(0.00792009 0.00256619 0.0757311 0.0108211 -0.0448304 -0.0187412)
(0.00274152 0.00327815 0.117764 0.00891 -0.047896 -0.0116515)
(-0.00154841 0.0032572 0.167356 0.00654401 -0.0525654 -0.0049956)
(-0.00437258 -0.00230161 -0.168308 0.00635297 -0.0170413 -0.00198039)
(0.000762264 -0.00188076 -0.118788 0.00960289 -0.0153543 -0.0103652)
(0.0071267 -0.00125533 -0.0773469 0.0121032 -0.014287 -0.0192299)
(0.0122526 -0.000654641 -0.0440783 0.0143305 -0.0137217 -0.0265831)
(0.0154629 -0.000160481 -0.0154827 0.0159797 -0.013614 -0.0314425)
(0.0157888 0.000234889 0.0124212 0.0161577 -0.0136116 -0.0319465)
(0.0131508 0.000604037 0.041056 0.0147793 -0.0136597 -0.0279301)
(0.0086002 0.000988985 0.0741977 0.0127913 -0.0141602 -0.0213915)
(0.00293563 0.00131496 0.115521 0.0105089 -0.0151792 -0.0134446)
(-0.00175638 0.00136328 0.165227 0.00766685 -0.0168451 -0.00591048)
(-0.00468596 -0.000202649 -0.168435 0.00633286 0.0191917 -0.00164691)
(0.000628615 8.00894e-05 -0.118853 0.00952693 0.016832 -0.0101555)
(0.00708761 0.000158402 -0.0773688 0.0120013 0.0153547 -0.0190889)
(0.0122713 7.37035e-05 -0.04407 0.0142118 0.0145629 -0.0264831)
(0.0155027 -6.05102e-05 -0.0154461 0.0158526 0.0143535 -0.0313553)
(0.0158238 -0.000199882 0.0124727 0.0160342 0.0143313 -0.031858)
(0.013165 -0.000393009 0.041132 0.0146691 0.0144419 -0.0278341)
(0.00858261 -0.000625656 0.0743032 0.0126919 0.0151117 -0.0212745)
(0.00288029 -0.000765878 0.115666 0.0104148 0.0164378 -0.0132951)
(-0.00186682 -0.000693202 0.165412 0.00757761 0.0186045 -0.00571079)
(-0.00489258 0.00183565 -0.17107 0.00497733 0.0555979 -8.47512e-05)
(0.000243429 0.00200233 -0.121502 0.00765167 0.0500578 -0.0078951)
(0.00637907 0.00159982 -0.0792133 0.00973567 0.0463477 -0.0161147)
(0.0112343 0.000899031 -0.0450468 0.0115553 0.0440697 -0.0227896)
(0.0140633 0.000125275 -0.015596 0.0127909 0.0430146 -0.0268542)
(0.0143505 -0.000628245 0.0125877 0.0129796 0.0429218 -0.0273301)
(0.0120937 -0.0014248 0.0420193 0.012076 0.0437531 -0.0241697)
(0.00787092 -0.00221213 0.0760557 0.010532 0.0457567 -0.0184029)
(0.00257469 -0.00275115 0.118202 0.00863841 0.0491416 -0.0112131)
(-0.00187438 -0.00262043 0.167908 0.00628437 0.054307 -0.00440999)
(-0.00494453 0.0034742 -0.175048 0.00258869 0.0923958 0.00235584)
(-0.000260637 0.00363571 -0.126 0.004294 0.086701 -0.00403336)
(0.00523683 0.00293952 -0.082716 0.00566594 0.0818309 -0.0109028)
(0.00955784 0.00177626 -0.0472516 0.00692501 0.0782164 -0.0164828)
(0.0120046 0.000395935 -0.0163522 0.00780916 0.0762536 -0.0198138)
(0.012278 -0.00102949 0.0131219 0.00802999 0.0760849 -0.020308)
(0.0104056 -0.00241627 0.0439637 0.00755525 0.0776857 -0.0179609)
(0.0067461 -0.00362338 0.0792857 0.00663898 0.0808889 -0.0133851)
(0.00218732 -0.00439233 0.122407 0.00547346 0.0852997 -0.00766079)
(-0.00170284 -0.00413968 0.171577 0.0040763 0.0905126 -0.00237345)
(-0.004786 0.00446185 -0.176238 -0.000216188 0.128872 0.00500219)
(-0.00074325 0.00472391 -0.130241 0.000183558 0.129524 0.000559691)
(0.00384105 0.00395449 -0.0874569 0.000628309 0.12511 -0.00446936)
(0.00749641 0.00249052 -0.0508769 0.00119217 0.120459 -0.00868858)
(0.00960624 0.000645732 -0.0178022 0.00168564 0.117654 -0.0112919)
(0.00990314 -0.00130248 0.0141422 0.00193352 0.117401 -0.0118367)
(0.00841326 -0.00313028 0.0471475 0.0019163 0.119683 -0.0103296)
(0.0054561 -0.004571 0.083587 0.00176677 0.123776 -0.00722287)
(0.00187402 -0.00532048 0.12622 0.00160554 0.127638 -0.00347957)
(-0.00131987 -0.00482491 0.172382 0.00152705 0.126549 -0.000207184)
(-0.00435105 0.00461083 -0.159575 -0.00285727 0.159211 0.00720832)
(-0.00126379 0.00487287 -0.129415 -0.00340539 0.175604 0.00466918)
(0.00207031 0.00418747 -0.0930044 -0.00365646 0.174187 0.00158614)
(0.00486994 0.00267328 -0.0563099 -0.00366469 0.170034 -0.00120525)
(0.00658118 0.000727921 -0.0201206 -0.00347924 0.167231 -0.00310194)
(0.00692691 -0.0013181 0.0157893 -0.0031755 0.166909 -0.00375142)
(0.0059478 -0.00318181 0.0519257 -0.00278408 0.169053 -0.00316372)
(0.00396447 -0.00449411 0.0885399 -0.00229781 0.172522 -0.00166667)
(0.00176373 -0.00499356 0.124947 -0.00171828 0.17333 -4.54497e-05)
(-0.000360908 -0.00436847 0.155621 -0.000934194 0.156751 0.0012951)
(-0.00216511 -0.00449294 -0.163886 -0.00104058 -0.161788 0.00320569)
(0.000149314 -0.00351774 -0.135649 -0.00219584 -0.182239 0.00204653)
(0.00157417 -0.00258669 -0.0994437 -0.00217242 -0.184058 0.000598253)
(0.00257213 -0.00146189 -0.0616742 -0.00191933 -0.182011 -0.0006528)
(0.00331105 -0.000378548 -0.0234552 -0.00157824 -0.180141 -0.0017328)
(0.00367882 0.000669844 0.0148883 -0.00125998 -0.179596 -0.00241885)
(0.00370717 0.0015796 0.05322 -0.00100605 -0.180394 -0.00270111)
(0.00351714 0.00227829 0.0912556 -0.000831397 -0.181472 -0.00268574)
(0.00347469 0.00279425 0.128044 -0.000795745 -0.179009 -0.00267894)
(0.00251488 0.00321164 0.15787 -0.000285317 -0.158751 -0.00222956)
(-0.00258481 -0.00420587 -0.18419 0.000343145 -0.132563 0.00224166)
(-0.00034403 -0.00346461 -0.139951 0.000120839 -0.137086 0.000223191)
(0.00156769 -0.00256892 -0.0965763 0.00045654 -0.135543 -0.00202423)
(0.00307548 -0.00145202 -0.0577978 0.000923887 -0.132663 -0.00399937)
(0.00409232 -0.000303918 -0.0214585 0.00136296 -0.130592 -0.00545528)
(0.00446739 0.000771476 0.0141525 0.00163009 -0.130142 -0.00609748)
(0.00420475 0.00172814 0.0504777 0.00169312 -0.131318 -0.00589786)
(0.00346798 0.00250478 0.089233 0.00162257 -0.133369 -0.00509055)
(0.00272874 0.00300045 0.132731 0.00140297 -0.134266 -0.00413171)
(0.00134596 0.00316848 0.177838 0.00153729 -0.129459 -0.00288325)
(-0.00292886 -0.00402195 -0.186121 0.000911857 -0.0954034 0.002017)
(-0.000450296 -0.00329101 -0.138365 0.00155614 -0.0930003 -0.00110585)
(0.00195391 -0.00234184 -0.0937676 0.00244277 -0.0904362 -0.00439667)
(0.00390858 -0.0012511 -0.055233 0.00333473 -0.0881229 -0.00724331)
(0.00514401 -0.000220444 -0.0202017 0.00404185 -0.0866194 -0.00918586)
(0.00550603 0.000658847 0.0138037 0.00433315 -0.0863236 -0.00983918)
(0.00502102 0.00146665 0.0487748 0.00414771 -0.0872176 -0.00916873)
(0.00384998 0.00221423 0.0871354 0.00369595 -0.0889438 -0.00754594)
(0.00253496 0.00275904 0.131653 0.00302723 -0.09097 -0.00556219)
(0.000815321 0.00294145 0.180002 0.00261806 -0.0929565 -0.00343338)
(-0.00343624 -0.00351604 -0.184553 0.00173767 -0.0565505 0.00169858)
(-0.000623524 -0.00280558 -0.135742 0.00293318 -0.0534896 -0.00230966)
(0.00222819 -0.0019239 -0.0914639 0.00420102 -0.051437 -0.0064292)
(0.00461666 -0.000973507 -0.0535801 0.00536807 -0.050034 -0.00998473)
(0.00615331 -0.000185566 -0.0195633 0.00626636 -0.0492163 -0.0124197)
(0.00656421 0.000358471 0.0137317 0.00653332 -0.0490655 -0.0130975)
(0.00582554 0.000902482 0.0477222 0.00608995 -0.0495678 -0.0119155)
(0.00427289 0.00153373 0.0853222 0.00531362 -0.0506375 -0.0095865)
(0.00245735 0.00204253 0.129405 0.00430897 -0.0523661 -0.00676632)