/*--------------------------------*- C++ -*----------------------------------*\
| =========                 |                                                 |
| \\      /  F ield         | OpenFOAM: The Open Source CFD Toolbox           |
|  \\    /   O peration     | Version:  2406                                  |
|   \\  /    A nd           | Website:  www.openfoam.com                      |
|    \\/     M anipulation  |                                                 |
\*---------------------------------------------------------------------------*/
FoamFile
{
    version     2.0;
    format      ascii;
    arch        "LSB;label=32;scalar=64";
    class       volVectorField;
    location    "0.6";
    object      U;
}
// * * * * * * * * * * * * * * * * * * * * * * * * * * * * * * * * * * * * * //

dimensions      [0 1 -1 0 0 0 0];

internalField   nonuniform List<vector> 
25000
(
(0.149333 0.14919 1.1275)
(0.122972 0.160887 1.15995)
(0.0908022 0.16992 1.17803)
(0.0558826 0.175617 1.18757)
(0.0192135 0.178471 1.19163)
(-0.018004 0.178474 1.19164)
(-0.0547374 0.175621 1.1876)
(-0.0897718 0.169924 1.17806)
(-0.122121 0.160873 1.15999)
(-0.148861 0.149165 1.12754)
(0.161022 0.122784 1.15995)
(0.131349 0.131215 1.18969)
(0.0962588 0.137662 1.20194)
(0.0588427 0.141822 1.2064)
(0.0201887 0.143858 1.20766)
(-0.0188545 0.143852 1.20767)
(-0.0575813 0.141804 1.20642)
(-0.0951213 0.13763 1.20198)
(-0.130401 0.131173 1.18974)
(-0.160452 0.122762 1.15999)
(0.170087 0.0905788 1.17802)
(0.13779 0.0961118 1.20193)
(0.100458 0.100341 1.20937)
(0.061125 0.103073 1.2102)
(0.0209218 0.104389 1.20954)
(-0.0195311 0.10438 1.20955)
(-0.0598095 0.103045 1.21023)
(-0.0992679 0.1003 1.20941)
(-0.13678 0.0960649 1.20199)
(-0.169432 0.0905519 1.17808)
(0.175841 0.0556262 1.18754)
(0.141979 0.0586753 1.20637)
(0.103191 0.061003 1.21019)
(0.0626021 0.062496 1.20859)
(0.0213864 0.063205 1.20671)
(-0.0199797 0.063191 1.20672)
(-0.0612668 0.0624583 1.20861)
(-0.101969 0.0609516 1.21023)
(-0.140915 0.0586234 1.20644)
(-0.175105 0.0555942 1.18762)
(0.178761 0.0189427 1.19157)
(0.144057 0.0200135 1.20762)
(0.104527 0.0208018 1.20951)
(0.0633135 0.021292 1.2067)
(0.0216015 0.0215138 1.20422)
(-0.0202057 0.021495 1.20423)
(-0.061978 0.0212421 1.20672)
(-0.103285 0.0207364 1.20956)
(-0.142944 0.0199516 1.20769)
(-0.177943 0.0189043 1.19167)
(0.178827 -0.01826 1.19154)
(0.144098 -0.019006 1.20759)
(0.104544 -0.0196215 1.2095)
(0.0633111 -0.0200417 1.20668)
(0.0215859 -0.0202608 1.20421)
(-0.0202272 -0.0202873 1.20422)
(-0.0619991 -0.0201119 1.20671)
(-0.1033 -0.0197135 1.20955)
(-0.142949 -0.0190922 1.20768)
(-0.177939 -0.0183168 1.19166)
(0.176028 -0.0549499 1.18746)
(0.14209 -0.0576826 1.20631)
(0.103233 -0.0598513 1.21014)
(0.0625887 -0.0612865 1.20855)
(0.0213351 -0.062003 1.20667)
(-0.0200477 -0.0620414 1.20668)
(-0.0613297 -0.0613882 1.20858)
(-0.102013 -0.0599877 1.2102)
(-0.14093 -0.0578153 1.20641)
(-0.175092 -0.055044 1.1876)
(0.170359 -0.089926 1.17789)
(0.137936 -0.0951644 1.20183)
(0.100498 -0.0992635 1.20929)
(0.0610828 -0.101963 1.21013)
(0.0208249 -0.103305 1.20948)
(-0.0196483 -0.103356 1.2095)
(-0.0599169 -0.102106 1.21018)
(-0.0993429 -0.0994629 1.20937)
(-0.136803 -0.0953658 1.20195)
(-0.169409 -0.0900767 1.17804)
(0.16132 -0.122195 1.15978)
(0.131472 -0.130378 1.18955)
(0.0962564 -0.136742 1.20183)
(0.0587509 -0.140906 1.2063)
(0.0200418 -0.142988 1.20758)
(-0.0190201 -0.143055 1.2076)
(-0.0577304 -0.141096 1.20635)
(-0.0952241 -0.137019 1.20192)
(-0.13043 -0.13068 1.18968)
(-0.160402 -0.122442 1.15995)
(0.149576 -0.148783 1.12732)
(0.123019 -0.160346 1.15979)
(0.090734 -0.169366 1.1779)
(0.0557401 -0.1751 1.18746)
(0.0190275 -0.178016 1.19154)
(-0.0182026 -0.178096 1.19156)
(-0.0549172 -0.17533 1.18753)
(-0.0899075 -0.16972 1.178)
(-0.122182 -0.160779 1.15993)
(-0.148808 -0.149196 1.1275)
(0.0528798 0.0520452 1.27194)
(0.0478546 0.0619153 1.35763)
(0.0388669 0.0699533 1.41323)
(0.0258243 0.0758287 1.44623)
(0.010392 0.078845 1.46158)
(-0.0058943 0.0788349 1.4618)
(-0.021512 0.0758001 1.4469)
(-0.0349231 0.0699104 1.41438)
(-0.0444649 0.061886 1.35928)
(-0.0504712 0.0520828 1.27408)
(0.0625347 0.0466566 1.35765)
(0.0577327 0.0568299 1.44868)
(0.0466546 0.0648 1.49875)
(0.0306528 0.0703108 1.52514)
(0.0118988 0.0731159 1.53657)
(-0.00778274 0.0730771 1.53673)
(-0.0267163 0.0701991 1.52563)
(-0.0430617 0.064629 1.4996)
(-0.0546597 0.0566419 1.44991)
(-0.0603731 0.0465498 1.35932)
(0.0705169 0.0374022 1.4132)
(0.0655751 0.0455104 1.49872)
(0.0526895 0.0517163 1.54301)
(0.0343435 0.0559225 1.56465)
(0.0130368 0.0580483 1.57338)
(-0.0092384 0.0579971 1.57351)
(-0.0307173 0.0557742 1.56505)
(-0.0493854 0.0514891 1.54368)
(-0.0627486 0.0452431 1.49969)
(-0.0685041 0.0371668 1.41451)
(0.0764448 0.0241404 1.44609)
(0.0710816 0.0293052 1.52504)
(0.0568415 0.0331989 1.5646)
(0.036847 0.0357958 1.58278)
(0.0138005 0.037094 1.58958)
(-0.0102348 0.0370377 1.58969)
(-0.0334413 0.0356332 1.58311)
(-0.0537268 0.0329489 1.56517)
(-0.0683919 0.0290001 1.52586)
(-0.0744744 0.0238236 1.44716)
(0.0795497 0.00857738 1.46128)
(0.0739493 0.0104217 1.53637)
(0.0589907 0.0117806 1.57325)
(0.0381326 0.0126628 1.58951)
(0.0141823 0.0130823 1.59525)
(-0.0107662 0.0130235 1.59535)
(-0.0348579 0.0124935 1.5898)
(-0.0559711 0.0115194 1.57376)
(-0.0713014 0.010093 1.5371)
(-0.0775487 0.00820327 1.46223)
(0.0796459 -0.00773984 1.4613)
(0.0740124 -0.00929382 1.53639)
(0.059014 -0.0105235 1.57327)
(0.038121 -0.011392 1.58953)
(0.0141461 -0.0118765 1.59527)
(-0.0108153 -0.0119413 1.59536)
(-0.0349096 -0.0115774 1.58981)
(-0.0560167 -0.0108091 1.57376)
(-0.071334 -0.00965789 1.53709)
(-0.0775619 -0.0081717 1.46221)
(0.076723 -0.0232812 1.44616)
(0.0712546 -0.0281672 1.52512)
(0.0568956 -0.0319553 1.56466)
(0.0368006 -0.0345624 1.58283)
(0.0136827 -0.0359435 1.58962)
(-0.0103902 -0.0360209 1.58971)
(-0.0336013 -0.034782 1.58312)
(-0.0538677 -0.032294 1.56516)
(-0.068494 -0.0286001 1.52583)
(-0.0745178 -0.0237972 1.44709)
(0.0709398 -0.0365135 1.41335)
(0.0658057 -0.0443702 1.49887)
(0.0527299 -0.0505179 1.54313)
(0.034229 -0.0547796 1.56475)
(0.012814 -0.0570196 1.57345)
(-0.0095151 -0.0571144 1.57355)
(-0.0309992 -0.0550544 1.56505)
(-0.0496344 -0.0509458 1.54365)
(-0.0629297 -0.0449138 1.49962)
(-0.0685905 -0.0371482 1.41436)
(0.0630228 -0.0457662 1.35793)
(0.0579335 -0.0557445 1.44892)
(0.0466133 -0.063727 1.49894)
(0.0304266 -0.06935 1.52527)
(0.0115482 -0.0723026 1.53664)
(-0.0081954 -0.0724209 1.53675)
(-0.0271327 -0.0696985 1.5256)
(-0.04343 -0.0642781 1.49951)
(-0.0549308 -0.0564592 1.44975)
(-0.0605012 -0.0465912 1.35905)
(0.0532879 -0.0512975 1.27238)
(0.0479263 -0.0611172 1.35798)
(0.0386877 -0.0692595 1.41345)
(0.0254596 -0.0752879 1.44634)
(0.0099026 -0.0784637 1.46158)
(-0.00644866 -0.0786026 1.46171)
(-0.0220724 -0.0757028 1.44673)
(-0.0354369 -0.0699299 1.41412)
(-0.0448736 -0.0620342 1.35894)
(-0.0506911 -0.0523591 1.27363)
(0.0332153 0.0297842 1.14419)
(0.0317368 0.0372864 1.27291)
(0.0270184 0.0433919 1.36602)
(0.0194903 0.0478143 1.42598)
(0.0100222 0.0501865 1.4556)
(-0.000244807 0.0503352 1.45677)
(-0.0100606 0.0482762 1.42955)
(-0.0182757 0.0441873 1.37211)
(-0.0239648 0.038518 1.28161)
(-0.0271829 0.0315121 1.15542)
(0.039807 0.0277497 1.27295)
(0.0384055 0.0354928 1.42466)
(0.0324598 0.0415664 1.52136)
(0.0227984 0.0457935 1.57851)
(0.0107427 0.047984 1.60533)
(-0.00222395 0.0480336 1.60615)
(-0.0145887 0.0459654 1.58104)
(-0.0248448 0.0419187 1.5258)
(-0.0316669 0.0361642 1.43129)
(-0.0346158 0.0289912 1.28202)
(0.0452826 0.022722 1.36581)
(0.0438183 0.0292452 1.52115)
(0.036757 0.0341853 1.61605)
(0.025357 0.0374912 1.66983)
(0.011279 0.0391498 1.69434)
(-0.00377803 0.0391317 1.69494)
(-0.018129 0.0374607 1.6717)
(-0.0300637 0.0342112 1.61938)
(-0.0379344 0.0294694 1.52627)
(-0.0407894 0.0234122 1.37303)
(0.0493726 0.014886 1.42516)
(0.047707 0.0192706 1.57787)
(0.0397327 0.0224742 1.66949)
(0.0270889 0.0245497 1.72047)
(0.0116309 0.0255543 1.74341)
(-0.00484613 0.0254961 1.74388)
(-0.0205488 0.0243982 1.72195)
(-0.0336651 0.0222959 1.67215)
(-0.0423739 0.0191961 1.58202)
(-0.0452802 0.0151552 1.43107)
(0.0515508 0.00523544 1.45387)
(0.0497505 0.00699095 1.60409)
(0.041265 0.00816729 1.69354)
(0.0279599 0.00887176 1.743)
(0.0117828 0.00917143 1.76521)
(-0.00542533 0.00908922 1.76562)
(-0.0218159 0.00864483 1.74429)
(-0.0355441 0.00785242 1.69584)
(-0.0446989 0.00669562 1.60768)
(-0.0476387 0.00515634 1.45902)
(0.0516027 -0.00503605 1.45386)
(0.0497856 -0.0060408 1.60409)
(0.0412651 -0.00698108 1.69354)
(0.0279206 -0.00770567 1.743)
(0.0117108 -0.00813916 1.76518)
(-0.00551974 -0.00824254 1.76558)
(-0.02192 -0.00800128 1.74422)
(-0.0356419 -0.00742244 1.69572)
(-0.0447772 -0.00653804 1.60749)
(-0.0476808 -0.00543108 1.45872)
(0.0495128 -0.0146255 1.42516)
(0.0477891 -0.018272 1.57793)
(0.0397113 -0.0212578 1.66953)
(0.0269553 -0.0233719 1.72046)
(0.0113993 -0.024525 1.74334)
(-0.00514255 -0.024659 1.74375)
(-0.0208681 -0.0237593 1.72172)
(-0.0339695 -0.0218589 1.67179)
(-0.0426218 -0.0190099 1.58144)
(-0.0454185 -0.015366 1.43015)
(0.0454555 -0.0223649 1.36595)
(0.0438851 -0.0281828 1.52133)
(0.0366613 -0.0329368 1.61618)
(0.0250824 -0.0363102 1.66988)
(0.0108509 -0.0381368 1.69427)
(-0.00430696 -0.0383152 1.69472)
(-0.0186967 -0.0368353 1.6713)
(-0.0306049 -0.0337675 1.61872)
(-0.0383799 -0.029235 1.52523)
(-0.0410566 -0.0235035 1.37143)
(0.039909 -0.0273208 1.27344)
(0.0383517 -0.0344243 1.42514)
(0.0322095 -0.0403534 1.5217)
(0.0223279 -0.0446739 1.57866)
(0.0100777 -0.0470431 1.60526)
(-0.00302128 -0.0472876 1.60582)
(-0.0154386 -0.0453986 1.58039)
(-0.0256599 -0.0415078 1.52473)
(-0.0323482 -0.0359189 1.42968)
(-0.0350368 -0.0289804 1.27967)
(0.0331144 -0.0293796 1.14517)
(0.0314724 -0.0364402 1.27381)
(0.0265677 -0.0424766 1.36669)
(0.0188076 -0.0470045 1.42631)
(0.00912063 -0.0495405 1.45553)
(-0.00130934 -0.0498577 1.45625)
(-0.0112022 -0.0479483 1.42851)
(-0.0193931 -0.0439821 1.37047)
(-0.0249408 -0.0384479 1.27925)
(-0.0278313 -0.0315887 1.15227)
(0.0121825 0.00255526 1.15828)
(0.0136324 0.00655883 1.2954)
(0.0134725 0.0102009 1.39901)
(0.0119801 0.0129594 1.46837)
(0.0094623 0.0146709 1.50401)
(0.00644555 0.0152048 1.50666)
(0.00350627 0.0146011 1.47638)
(0.00115212 0.0129937 1.41247)
(-0.000215878 0.010744 1.31428)
(-0.00106253 0.00812254 1.18224)
(0.0136344 0.00289395 1.29498)
(0.0158258 0.00798132 1.46359)
(0.0154713 0.0121139 1.57792)
(0.0130072 0.0150723 1.64907)
(0.009109 0.0167707 1.68393)
(0.0045952 0.017186 1.68592)
(0.000317288 0.0163756 1.65518)
(-0.00289731 0.0144405 1.58847)
(-0.00435174 0.0116159 1.47898)
(-0.0041501 0.00820736 1.31552)
(0.0152522 0.00244904 1.39761)
(0.0179572 0.00731143 1.57704)
(0.0173055 0.0110029 1.69464)
(0.0139562 0.0134872 1.76509)
(0.00888868 0.0148171 1.79851)
(0.00314517 0.0151006 1.80003)
(-0.00226281 0.0144037 1.76982)
(-0.00631549 0.0127281 1.70304)
(-0.00805463 0.0101632 1.58973)
(-0.00722567 0.00691531 1.41506)
(0.0167097 0.000710449 1.46525)
(0.0196685 0.00452364 1.64687)
(0.0186818 0.00724617 1.76397)
(0.0146296 0.00895606 1.83247)
(0.00874481 0.00979383 1.86413)
(0.00218293 0.00997698 1.86532)
(-0.00401323 0.00957913 1.83628)
(-0.00872772 0.00849423 1.77095)
(-0.0107877 0.0067254 1.65768)
(-0.00959412 0.00437469 1.48044)
(0.0174817 -0.00184635 1.49846)
(0.0206049 0.000424401 1.67996)
(0.0194121 0.00189706 1.79605)
(0.0149453 0.00274488 1.863)
(0.00864296 0.00314145 1.89326)
(0.0017076 0.00325835 1.89426)
(-0.00487452 0.00315099 1.8663)
(-0.00998725 0.00276094 1.80225)
(-0.0122614 0.00205262 1.68974)
(-0.0108934 0.00101668 1.51236)
(0.0173894 -0.0046551 1.49798)
(0.0206116 -0.00407758 1.6797)
(0.0194474 -0.00393702 1.7959)
(0.0149609 -0.00396045 1.8629)
(0.00861768 -0.00396411 1.89317)
(0.00163811 -0.00390628 1.89414)
(-0.0049802 -0.00375004 1.86609)
(-0.0101056 -0.00343235 1.80191)
(-0.0123688 -0.00299877 1.68922)
(-0.0109579 -0.00258201 1.51158)
(0.0163947 -0.00703434 1.46388)
(0.0196411 -0.00804265 1.64612)
(0.0187458 -0.00917678 1.76354)
(0.0146461 -0.0100764 1.83216)
(0.00864562 -0.0105324 1.86382)
(0.00195923 -0.0105486 1.8649)
(-0.00433147 -0.010099 1.83561)
(-0.00908792 -0.00907932 1.76991)
(-0.0111156 -0.0075697 1.65611)
(-0.0097919 -0.00581173 1.4781)
(0.0146242 -0.00839873 1.39549)
(0.0177616 -0.0105729 1.57589)
(0.0172809 -0.0127271 1.69397)
(0.0138795 -0.0144234 1.76458)
(0.00865135 -0.0153815 1.79795)
(0.00272625 -0.0155041 1.79924)
(-0.00282279 -0.0147594 1.76862)
(-0.00693073 -0.0131435 1.70123)
(-0.00860716 -0.0108132 1.58704)
(-0.00756873 -0.00810632 1.41117)
(0.012418 -0.00832524 1.29236)
(0.0151858 -0.0109219 1.46215)
(0.0151324 -0.0135829 1.57712)
(0.0126754 -0.0157782 1.64846)
(0.00862616 -0.0171071 1.68319)
(0.00391823 -0.0173663 1.68479)
(-0.000510605 -0.0165164 1.65342)
(-0.00377089 -0.0146436 1.58581)
(-0.00510987 -0.0120431 1.47513)
(-0.00459886 -0.00911903 1.31013)
(0.0100547 -0.00693265 1.15526)
(0.0121575 -0.00893595 1.29371)
(0.0124915 -0.0113342 1.39815)
(0.0111576 -0.0134542 1.46776)
(0.00859904 -0.014843 1.50319)
(0.00545174 -0.015244 1.50524)
(0.00240808 -0.014618 1.47403)
(5.84632e-05 -0.0130775 1.40888)
(-0.00112629 -0.011052 1.30918)
(-0.00155567 -0.00884474 1.17549)
(0.0157541 -0.00260322 1.1259)
(0.0164826 0.00130139 1.26906)
(0.0158669 0.00480743 1.37948)
(0.0146512 0.00739523 1.455)
(0.0128261 0.00918651 1.49504)
(0.010598 0.0101385 1.49967)
(0.0081522 0.0103033 1.46892)
(0.00564885 0.00969372 1.40267)
(0.00320915 0.00837105 1.30124)
(0.000485961 0.00622448 1.16617)
(0.015907 -0.00400748 1.26682)
(0.0166325 0.000702822 1.44682)
(0.0159193 0.00447374 1.57246)
(0.0142714 0.00719161 1.65284)
(0.0118649 0.00893024 1.69349)
(0.00902188 0.00976743 1.69724)
(0.00607111 0.00978767 1.66425)
(0.00332694 0.00899213 1.59199)
(0.000983043 0.00741401 1.47493)
(-0.00123751 0.00507265 1.30361)
(0.0157934 -0.00506916 1.37411)
(0.0167442 -0.00036636 1.56959)
(0.0159971 0.00316996 1.70214)
(0.0139634 0.00558331 1.78397)
(0.0110156 0.00701911 1.82397)
(0.00762544 0.00768557 1.82702)
(0.00420034 0.00769541 1.79342)
(0.00114711 0.00697376 1.71881)
(-0.00119937 0.00548651 1.59442)
(-0.00302371 0.00323964 1.40763)
(0.0157428 -0.006536 1.44535)
(0.0168492 -0.00230852 1.64647)
(0.0160496 0.000707443 1.7809)
(0.0137011 0.0026413 1.86172)
(0.0103729 0.00369663 1.89979)
(0.00662763 0.00421406 1.90229)
(0.00286404 0.00434494 1.86973)
(-0.000459014 0.00387885 1.7956)
(-0.00285572 0.00274708 1.66903)
(-0.0043546 0.00090838 1.47654)
(0.0154426 -0.00818014 1.47985)
(0.0167509 -0.00477576 1.68289)
(0.015973 -0.00245894 1.81755)
(0.0134459 -0.00103081 1.89696)
(0.00993665 -0.000251509 1.93266)
(0.00608727 0.000171607 1.9347)
(0.00219132 0.000351843 1.90414)
(-0.00132617 0.000157749 1.83127)
(-0.00375657 -0.000505179 1.70441)
(-0.00503674 -0.00174947 1.51008)
(0.014835 -0.00979558 1.47759)
(0.0163633 -0.00734106 1.68143)
(0.0157463 -0.00578258 1.81661)
(0.0132887 -0.00484357 1.89634)
(0.00978613 -0.00426288 1.93224)
(0.00591729 -0.00392198 1.9343)
(0.00200847 -0.00376091 1.90356)
(-0.00147468 -0.00371008 1.83044)
(-0.00382186 -0.00387626 1.70323)
(-0.00496417 -0.00446274 1.50844)
(0.013833 -0.0110649 1.43854)
(0.0155842 -0.00954462 1.64202)
(0.0152793 -0.00874243 1.77797)
(0.0131607 -0.0083271 1.85969)
(0.00987984 -0.00802892 1.89821)
(0.00611242 -0.00779833 1.90074)
(0.00235117 -0.00760106 1.86781)
(-0.000874529 -0.00729084 1.79301)
(-0.00301762 -0.00698704 1.66546)
(-0.00409865 -0.00696428 1.47162)
(0.0124299 -0.0117252 1.36263)
(0.0143501 -0.010961 1.56187)
(0.0144414 -0.0107894 1.69688)
(0.0128426 -0.0108839 1.78016)
(0.0100634 -0.0109632 1.82084)
(0.00672323 -0.0108971 1.82394)
(0.00337204 -0.0106222 1.78986)
(0.000536707 -0.0100925 1.71425)
(-0.00135859 -0.00944404 1.58833)
(-0.00251274 -0.0089714 1.39948)
(0.0106139 -0.0116603 1.2505)
(0.0126228 -0.0113231 1.43532)
(0.0131403 -0.011505 1.56435)
(0.0122286 -0.0119379 1.64682)
(0.0102334 -0.0123121 1.68851)
(0.00764615 -0.0124373 1.6924)
(0.00496821 -0.0122337 1.65879)
(0.00264923 -0.0116999 1.58522)
(0.00102444 -0.011021 1.46621)
(-0.000229171 -0.0104053 1.29238)
(0.00837666 -0.0105832 1.10448)
(0.0103046 -0.0104054 1.25293)
(0.0112802 -0.0107275 1.36772)
(0.0112187 -0.011308 1.44619)
(0.0102574 -0.0118561 1.48778)
(0.00869637 -0.0121817 1.49274)
(0.00690713 -0.0122042 1.46127)
(0.00517762 -0.0118976 1.39343)
(0.00376987 -0.0114985 1.28973)
(0.00221544 -0.0109033 1.15211)
(0.0125325 -0.0100086 1.13973)
(0.0146316 -0.00802244 1.28351)
(0.0152166 -0.00546561 1.39538)
(0.0151913 -0.00331562 1.47284)
(0.0145409 -0.00157432 1.51505)
(0.0134027 -0.000433041 1.52188)
(0.0118113 4.33526e-05 1.49338)
(0.00979752 -0.000236108 1.42958)
(0.007401 -0.00137039 1.33092)
(0.00453928 -0.0034173 1.19885)
(0.0116673 -0.0114383 1.27782)
(0.0136582 -0.00859714 1.45998)
(0.0142959 -0.00573364 1.58888)
(0.0142266 -0.0033392 1.67268)
(0.0135535 -0.0015509 1.71627)
(0.0124289 -0.000466833 1.72214)
(0.0109586 -0.000124868 1.6905)
(0.00921602 -0.000627441 1.61921)
(0.00722769 -0.00208464 1.50327)
(0.00488774 -0.0045261 1.33383)
(0.0104787 -0.0118703 1.38275)
(0.0126275 -0.00884503 1.58248)
(0.0133906 -0.0060036 1.72021)
(0.0132816 -0.00371845 1.80682)
(0.0125067 -0.00211547 1.85032)
(0.0113014 -0.00120162 1.85537)
(0.00983624 -0.000969773 1.82241)
(0.00822606 -0.00154321 1.7475)
(0.00653972 -0.00306487 1.62257)
(0.00467543 -0.00563184 1.43602)
(0.00946997 -0.0121609 1.45193)
(0.0117047 -0.00925951 1.65922)
(0.0125804 -0.00662356 1.80045)
(0.0124495 -0.00458728 1.88695)
(0.0115923 -0.00324083 1.92867)
(0.0103139 -0.00250578 1.93301)
(0.00882985 -0.00231575 1.90081)
(0.00730014 -0.00287215 1.82566)
(0.00585398 -0.0043364 1.69728)
(0.00443411 -0.00684842 1.50351)
(0.00838235 -0.0121998 1.48424)
(0.0107794 -0.00970238 1.69482)
(0.0118211 -0.0074437 1.83735)
(0.0117384 -0.00573163 1.92297)
(0.0108717 -0.0046194 1.96212)
(0.00962294 -0.00401201 1.9657)
(0.00818254 -0.00388221 1.93583)
(0.00671431 -0.00439563 1.86171)
(0.00547882 -0.00573525 1.73232)
(0.00444332 -0.00807982 1.53572)
(0.00725467 -0.0120119 1.47923)
(0.00980555 -0.0100407 1.69123)
(0.011064 -0.00824274 1.83481)
(0.0111516 -0.00688449 1.92117)
(0.0104003 -0.00597799 1.96084)
(0.00923765 -0.00548929 1.96458)
(0.00788787 -0.00544368 1.93439)
(0.00657533 -0.00591233 1.85987)
(0.0055736 -0.0070993 1.72991)
(0.00483646 -0.0092264 1.53255)
(0.00604958 -0.0114991 1.43667)
(0.00871544 -0.0100777 1.64814)
(0.0102316 -0.00875717 1.79243)
(0.0106198 -0.00777093 1.88103)
(0.010142 -0.00711701 1.924)
(0.00917393 -0.00677374 1.92871)
(0.00802698 -0.00679343 1.89606)
(0.00697154 -0.00722346 1.81985)
(0.00624076 -0.00827114 1.68986)
(0.00571803 -0.0101883 1.49389)
(0.00480857 -0.0105734 1.35657)
(0.00748178 -0.00961826 1.5629)
(0.00925648 -0.00870674 1.70553)
(0.0100362 -0.00806357 1.79548)
(0.00999876 -0.00768866 1.84093)
(0.00944085 -0.00754113 1.84667)
(0.00866688 -0.00764411 1.81328)
(0.007945 -0.00808435 1.73692)
(0.00749363 -0.00905704 1.60958)
(0.00703437 -0.0107896 1.41965)
(0.0035371 -0.00922392 1.23986)
(0.00607556 -0.00854179 1.43031)
(0.00805778 -0.00789391 1.56569)
(0.00930045 -0.00750648 1.65412)
(0.00986598 -0.00736567 1.70055)
(0.00992324 -0.00743014 1.7076)
(0.00970237 -0.00771421 1.67564)
(0.00941498 -0.00828686 1.60265)
(0.0092819 -0.00935856 1.48377)
(0.00888827 -0.0110251 1.3103)
(0.00246527 -0.007193 1.08942)
(0.00448793 -0.00664993 1.24161)
(0.00656323 -0.00617953 1.36115)
(0.00830671 -0.00598979 1.44463)
(0.00961249 -0.0060351 1.49081)
(0.0104638 -0.00629237 1.49954)
(0.010968 -0.00677549 1.47097)
(0.0111833 -0.00747636 1.4054)
(0.0112923 -0.00869972 1.30364)
(0.0105925 -0.0101724 1.16785)
(0.0114132 -0.00354758 1.12888)
(0.0145794 -0.00455563 1.2788)
(0.0157725 -0.00416523 1.3964)
(0.0158159 -0.00335626 1.47874)
(0.0148007 -0.00245104 1.5252)
(0.0129464 -0.00187827 1.53589)
(0.0103652 -0.00195576 1.51104)
(0.00719419 -0.00291196 1.45071)
(0.00354292 -0.00506202 1.35517)
(-7.36812e-05 -0.00831424 1.2256)
(0.0119449 -0.00380011 1.26715)
(0.0147601 -0.00468237 1.45572)
(0.015863 -0.00448295 1.59014)
(0.0159146 -0.00377922 1.67852)
(0.015096 -0.00301986 1.72597)
(0.0135804 -0.00260665 1.73516)
(0.0114495 -0.00285197 1.70652)
(0.00874228 -0.00405316 1.63801)
(0.0054515 -0.00647938 1.52457)
(0.00187724 -0.010157 1.35725)
(0.0114676 -0.0038683 1.37165)
(0.0140647 -0.00494614 1.57805)
(0.0151314 -0.0049024 1.72143)
(0.0152165 -0.00435496 1.81264)
(0.0145399 -0.00379296 1.85979)
(0.0132887 -0.00356769 1.86776)
(0.0115288 -0.0039426 1.83727)
(0.009244 -0.00523727 1.76453)
(0.00641143 -0.00773427 1.64145)
(0.00318033 -0.0115686 1.45633)
(0.0107615 -0.0038187 1.43998)
(0.0130524 -0.00518387 1.6541)
(0.0140658 -0.00534772 1.80124)
(0.0141863 -0.00500193 1.89249)
(0.01363 -0.00465867 1.93769)
(0.0126004 -0.00463468 1.9446)
(0.0111604 -0.00512841 1.91449)
(0.00926454 -0.00650617 1.8411)
(0.00689624 -0.00905847 1.71397)
(0.00409708 -0.0129601 1.52086)
(0.00991697 -0.00354067 1.47104)
(0.0119288 -0.00529699 1.68843)
(0.0129278 -0.0057482 1.83707)
(0.0131318 -0.00564082 1.92763)
(0.0127059 -0.005495 1.97022)
(0.0119094 -0.00561179 1.97592)
(0.0107612 -0.0062414 1.94807)
(0.00919887 -0.00771608 1.87544)
(0.00728643 -0.0103093 1.74679)
(0.00499015 -0.0141974 1.55018)
(0.00910489 -0.00305584 1.46432)
(0.0108501 -0.00523508 1.68283)
(0.011855 -0.00602246 1.8325)
(0.0121983 -0.00617594 1.92393)
(0.0119688 -0.00621062 1.96728)
(0.0113796 -0.00646238 1.97326)
(0.010463 -0.00723987 1.94479)
(0.00925659 -0.0088048 1.87146)
(0.00780796 -0.0114121 1.74183)
(0.00599308 -0.0152315 1.54396)
(0.00845637 -0.00231685 1.41955)
(0.00991711 -0.00490488 1.63684)
(0.0109012 -0.00605079 1.78689)
(0.0114028 -0.00649624 1.88051)
(0.0114201 -0.00675892 1.92734)
(0.0110719 -0.00718045 1.93468)
(0.0104464 -0.008086 1.90372)
(0.00962385 -0.00972151 1.82846)
(0.00865439 -0.0123116 1.69859)
(0.00728602 -0.0159999 1.50182)
(0.0080851 -0.00134136 1.33683)
(0.00926146 -0.00421113 1.54785)
(0.0101729 -0.00568065 1.69549)
(0.010819 -0.00642618 1.79009)
(0.0111207 -0.00694897 1.83942)
(0.0111102 -0.00758742 1.84805)
(0.0108616 -0.00864433 1.81659)
(0.010448 -0.0103551 1.7413)
(0.00993536 -0.0129039 1.61412)
(0.00885783 -0.016348 1.42339)
(0.00826077 -0.00013087 1.21729)
(0.00907549 -0.00307634 1.41081)
(0.0098199 -0.00480638 1.54996)
(0.0105832 -0.00583526 1.64229)
(0.0112 -0.00662765 1.69234)
(0.0116007 -0.00751133 1.7024)
(0.011797 -0.00877594 1.67271)
(0.0118149 -0.010606 1.60119)
(0.0117499 -0.0131861 1.4829)
(0.0109839 -0.0163518 1.30899)
(0.009068 0.000793392 1.06454)
(0.00952641 -0.00187563 1.21762)
(0.0100552 -0.00366826 1.33903)
(0.0108936 -0.00482969 1.42512)
(0.0118107 -0.00580332 1.47429)
(0.0126503 -0.00684284 1.48595)
(0.0133307 -0.00821551 1.45998)
(0.0137254 -0.00997925 1.39649)
(0.0139122 -0.0124532 1.29613)
(0.0128943 -0.0149665 1.16097)
(0.00195 0.0086429 1.11043)
(0.00550745 0.0044033 1.27065)
(0.00780861 0.0014411 1.3982)
(0.00862652 -0.000486576 1.48905)
(0.00809871 -0.00186443 1.54256)
(0.00647734 -0.00315491 1.55916)
(0.00403351 -0.00483857 1.5393)
(0.00112393 -0.00714043 1.48308)
(-0.00198305 -0.0103993 1.3905)
(-0.00406639 -0.0140286 1.26259)
(0.00425249 0.0101601 1.25085)
(0.0081044 0.00526734 1.44912)
(0.0105081 0.00180464 1.59186)
(0.0114414 -0.000449962 1.68702)
(0.011146 -0.00200905 1.74006)
(0.00987566 -0.00344066 1.75409)
(0.00783382 -0.00526548 1.72986)
(0.00520438 -0.00784701 1.66537)
(0.0021375 -0.011404 1.55529)
(-0.000470544 -0.0156672 1.39039)
(0.00586738 0.0109754 1.35694)
(0.00948681 0.00547075 1.57204)
(0.0117158 0.00172437 1.7225)
(0.0126345 -0.000687016 1.81928)
(0.0124963 -0.00235306 1.87094)
(0.0115438 -0.0038758 1.8829)
(0.00992737 -0.00576589 1.85627)
(0.00771946 -0.00841756 1.78739)
(0.00501338 -0.0120429 1.66777)
(0.00243836 -0.0165315 1.48532)
(0.00691959 0.0119254 1.42655)
(0.0101141 0.00585352 1.6481)
(0.0120374 0.00179574 1.80129)
(0.0128675 -0.000809412 1.8973)
(0.0128337 -0.00262676 1.94626)
(0.012161 -0.00429527 1.95644)
(0.0109725 -0.006294 1.92972)
(0.00923485 -0.0090287 1.85997)
(0.0069994 -0.0127214 1.73618)
(0.00462679 -0.0173174 1.5457)
(0.00774877 0.0129847 1.45875)
(0.0103855 0.00643988 1.68217)
(0.0119691 0.00205788 1.83593)
(0.0127202 -0.000784252 1.93072)
(0.0127829 -0.00278334 1.97672)
(0.0123915 -0.00456906 1.98499)
(0.0115744 -0.00668684 1.96019)
(0.0102649 -0.0095124 1.89088)
(0.00853373 -0.0132372 1.76526)
(0.00653499 -0.0178083 1.57099)
(0.00857631 0.0140956 1.45323)
(0.0106267 0.00720521 1.67622)
(0.0118523 0.0025192 1.83004)
(0.0125288 -0.000585859 1.92515)
(0.0127194 -0.00279398 1.97172)
(0.0125515 -0.00472457 1.98024)
(0.0120004 -0.00694858 1.95429)
(0.0111085 -0.00981644 1.8838)
(0.00987539 -0.0135163 1.75678)
(0.00825989 -0.0179678 1.56085)
(0.00970982 0.0152125 1.40991)
(0.0111457 0.00815 1.63)
(0.0119426 0.00321875 1.78303)
(0.012481 -0.000151999 1.8796)
(0.0127534 -0.00260639 1.92923)
(0.01277 -0.00471748 1.9391)
(0.012516 -0.00702753 1.91054)
(0.0120185 -0.00990758 1.83772)
(0.0112615 -0.0135167 1.71)
(0.0099955 -0.017739 1.51479)
(0.0112601 0.0161497 1.32916)
(0.0122128 0.00924963 1.54115)
(0.0125517 0.00419748 1.6904)
(0.0128891 0.000601825 1.78699)
(0.0131776 -0.00209494 1.83852)
(0.0133577 -0.00441075 1.84943)
(0.0133829 -0.00684263 1.82023)
(0.0132157 -0.00972464 1.74713)
(0.0128344 -0.0131742 1.62182)
(0.0117182 -0.0169997 1.43241)
(0.0137337 0.0169107 1.21234)
(0.0141772 0.0105083 1.40507)
(0.0140222 0.00543119 1.54427)
(0.0141238 0.00166636 1.63731)
(0.0143636 -0.00126117 1.68866)
(0.0146355 -0.00378594 1.70046)
(0.0148345 -0.00635675 1.67273)
(0.0148621 -0.00922794 1.60323)
(0.014721 -0.0125285 1.48669)
(0.0137085 -0.0158933 1.3141)
(0.0166 0.0158776 1.06344)
(0.0171336 0.0107039 1.21443)
(0.016673 0.00601032 1.33424)
(0.0165416 0.00250797 1.41944)
(0.0166041 -0.000366711 1.46861)
(0.0168042 -0.00284676 1.4811)
(0.0169885 -0.00531924 1.45657)
(0.0169332 -0.0078778 1.3949)
(0.0166437 -0.0108391 1.29641)
(0.0150382 -0.0133702 1.16285)
(-0.00877134 0.0228502 1.07831)
(-0.00728599 0.0176646 1.24894)
(-0.00540496 0.0123954 1.38774)
(-0.00454075 0.00804863 1.48882)
(-0.00468266 0.0042231 1.55081)
(-0.00576947 0.000762956 1.57391)
(-0.00748129 -0.00271576 1.55851)
(-0.00932942 -0.00625534 1.50458)
(-0.0109446 -0.0100792 1.41198)
(-0.0107519 -0.0132372 1.28202)
(-0.0041859 0.0262518 1.22274)
(-0.00162425 0.0199722 1.43148)
(0.000640802 0.0140039 1.58418)
(0.00166784 0.00896881 1.68786)
(0.00154458 0.00472473 1.74779)
(0.000437255 0.000947479 1.76728)
(-0.00138498 -0.00279328 1.74719)
(-0.00357969 -0.00671616 1.68542)
(-0.00582949 -0.0108508 1.57618)
(-0.00686621 -0.0147376 1.40999)
(0.000148025 0.0274235 1.33257)
(0.0027122 0.0204505 1.55725)
(0.00479646 0.0141392 1.71624)
(0.00572974 0.00888006 1.81996)
(0.00559579 0.00453973 1.8771)
(0.00458151 0.000716237 1.89351)
(0.00290282 -0.00305606 1.87064)
(0.00076403 -0.00705575 1.80469)
(-0.00154972 -0.0112828 1.68657)
(-0.00307026 -0.0154364 1.50366)
(0.00363119 0.0282481 1.40561)
(0.00597168 0.0207531 1.63526)
(0.00763383 0.014143 1.79549)
(0.00831325 0.00871485 1.89712)
(0.00811454 0.00428005 1.95042)
(0.00722345 0.000376149 1.96416)
(0.00583359 -0.00346112 1.94074)
(0.00396099 -0.0075195 1.87398)
(0.0018243 -0.0118026 1.75205)
(3.73569e-05 -0.0160663 1.56167)
(0.00674888 0.0286895 1.44119)
(0.00859027 0.0209777 1.67093)
(0.00971781 0.0141919 1.83024)
(0.0101067 0.00862569 1.92954)
(0.00982549 0.00407699 1.97916)
(0.00910084 0.00011212 1.99016)
(0.0079862 -0.00379208 1.96827)
(0.00639513 -0.0078874 1.90168)
(0.00454208 -0.0121443 1.77789)
(0.00275619 -0.0163194 1.58397)
(0.00954311 0.0287772 1.43929)
(0.0108655 0.0211249 1.66668)
(0.0114518 0.0143033 1.82449)
(0.0115535 0.00864693 1.92302)
(0.011231 0.00398616 1.97258)
(0.0105985 -7.0178e-05 1.9836)
(0.00959497 -0.00401135 1.95989)
(0.00827444 -0.00804987 1.89163)
(0.0067127 -0.0121789 1.76616)
(0.00500699 -0.016125 1.57052)
(0.0122063 0.0284002 1.40011)
(0.0130285 0.0211112 1.62265)
(0.0130645 0.0144293 1.77809)
(0.0128274 0.00876369 1.87687)
(0.0123741 0.00401882 1.92862)
(0.0117239 -0.000109152 1.94052)
(0.0108272 -0.0040163 1.91388)
(0.00971868 -0.00793005 1.84282)
(0.0084178 -0.0118201 1.71626)
(0.00682938 -0.0153739 1.52116)
(0.0145995 0.0272746 1.32423)
(0.0151576 0.0207644 1.53686)
(0.0147178 0.0144656 1.68699)
(0.0141176 0.00894093 1.78451)
(0.0134369 0.00421563 1.83716)
(0.0126819 8.78638e-05 1.84938)
(0.011814 -0.00374752 1.82161)
(0.0108043 -0.00746182 1.7498)
(0.00964864 -0.0109831 1.62525)
(0.00808723 -0.013949 1.43575)
(0.0169659 0.0253936 1.21305)
(0.0172666 0.0199641 1.40501)
(0.0164458 0.0142138 1.54378)
(0.0155279 0.00902038 1.63649)
(0.014565 0.00446118 1.68784)
(0.0135934 0.000461165 1.70002)
(0.0125817 -0.00319683 1.67296)
(0.0114818 -0.00659453 1.60415)
(0.0103259 -0.00967093 1.48794)
(0.00884079 -0.0119621 1.3151)
(0.0180141 0.0210309 1.07029)
(0.0188477 0.0173261 1.22013)
(0.0179689 0.01253 1.3387)
(0.0168643 0.00824783 1.4225)
(0.015556 0.00434537 1.47048)
(0.014217 0.000930941 1.48223)
(0.0128512 -0.00214383 1.4574)
(0.011411 -0.00484782 1.39563)
(0.0100089 -0.00727089 1.29695)
(0.00823376 -0.00868519 1.1629)
(-0.0199275 0.0268159 1.05625)
(-0.021892 0.0239473 1.22978)
(-0.0215996 0.0190269 1.3739)
(-0.0211325 0.0139165 1.48122)
(-0.020621 0.00863386 1.54903)
(-0.0202933 0.0035764 1.5766)
(-0.0199868 -0.00123996 1.56369)
(-0.0193148 -0.00555873 1.50997)
(-0.0180249 -0.00937014 1.41529)
(-0.0147264 -0.0114831 1.28165)
(-0.0164925 0.0308308 1.20468)
(-0.0166809 0.0268489 1.41683)
(-0.0155558 0.0214117 1.57493)
(-0.0146694 0.0155975 1.68442)
(-0.014185 0.00983516 1.74957)
(-0.0141661 0.00435975 1.7731)
(-0.0144202 -0.000859792 1.75553)
(-0.0145752 -0.00572347 1.69438)
(-0.0142471 -0.00999737 1.5835)
(-0.0122469 -0.0130236 1.41361)
(-0.0115787 0.0321131 1.31887)
(-0.0112194 0.0275848 1.54657)
(-0.00995455 0.0218462 1.71029)
(-0.00905318 0.0157982 1.81893)
(-0.00870691 0.00995493 1.8804)
(-0.00892261 0.00446215 1.90023)
(-0.00948751 -0.000802715 1.87971)
(-0.0100815 -0.00580859 1.81472)
(-0.0102779 -0.0102727 1.69553)