/*--------------------------------*- C++ -*----------------------------------*\
| =========                 |                                                 |
| \\      /  F ield         | OpenFOAM: The Open Source CFD Toolbox           |
|  \\    /   O peration     | Version:  2406                                  |
|   \\  /    A nd           | Website:  www.openfoam.com                      |
|    \\/     M anipulation  |                                                 |
\*---------------------------------------------------------------------------*/
FoamFile
{
    version     2.0;
    format      ascii;
    arch        "LSB;label=32;scalar=64";
    class       surfaceScalarField;
    location    "1.1";
    object      phi;
}
// * * * * * * * * * * * * * * * * * * * * * * * * * * * * * * * * * * * * * //

dimensions      [0 3 -1 0 0 0 0];

oriented        oriented;

internalField   nonuniform List<scalar> 
46880
(
5.70227e-05
5.70227e-05
9.25627e-05
-6.58089e-05
-6.58089e-05
4.14847e-05
5.85524e-05
0.000107332
-6.81955e-05
2.17749e-05
5.89973e-05
0.000116854
-6.9121e-05
2.02601e-13
5.91027e-05
0.000121561
-6.94051e-05
-2.17749e-05
5.91027e-05
0.000121561
-6.94051e-05
-4.14847e-05
5.89973e-05
0.000116854
-6.9121e-05
-5.70227e-05
5.85524e-05
0.000107332
-6.81955e-05
5.70227e-05
9.25627e-05
-6.58089e-05
-6.58089e-05
5.85524e-05
4.14847e-05
0.000107332
-6.81955e-05
4.20291e-05
4.20291e-05
0.000121733
2.18254e-05
4.20503e-05
0.000130284
2.10178e-13
4.1986e-05
0.000134326
-2.18254e-05
4.1986e-05
0.000134326
-4.20291e-05
4.20503e-05
0.000130284
-5.85524e-05
4.20291e-05
0.000121733
4.14847e-05
0.000107332
-6.81955e-05
5.89973e-05
2.17749e-05
0.000116854
-6.9121e-05
4.20503e-05
2.18254e-05
0.000130284
2.17158e-05
2.17158e-05
0.000137965
1.75995e-13
2.16254e-05
0.00014148
-2.17158e-05
2.16254e-05
0.00014148
-4.20503e-05
2.17158e-05
0.000137965
-5.89973e-05
2.18254e-05
0.000130284
2.17749e-05
0.000116854
-6.9121e-05
5.91027e-05
9.57474e-13
0.000121561
-6.94051e-05
4.1986e-05
1.16126e-12
0.000134326
2.16254e-05
1.13868e-12
0.00014148
1.47376e-13
1.11545e-12
0.000144691
-2.16254e-05
1.08228e-12
0.000144691
-4.1986e-05
1.04593e-12
0.00014148
-5.91027e-05
1.04602e-12
0.000134326
8.70689e-13
0.000121561
-6.94051e-05
5.91027e-05
-2.17749e-05
0.000121561
-6.94051e-05
4.1986e-05
-2.18254e-05
0.000134326
2.16254e-05
-2.17158e-05
0.00014148
1.14605e-13
-2.16254e-05
0.000144691
-2.16254e-05
-2.16254e-05
0.000144691
-4.1986e-05
-2.17158e-05
0.00014148
-5.91027e-05
-2.18254e-05
0.000134326
-2.17749e-05
0.000121561
-6.94051e-05
5.89973e-05
-4.14846e-05
0.000116854
-6.9121e-05
4.20503e-05
-4.20291e-05
0.000130284
2.17158e-05
-4.20503e-05
0.000137965
7.18069e-14
-4.1986e-05
0.00014148
-2.17158e-05
-4.1986e-05
0.00014148
-4.20503e-05
-4.20503e-05
0.000137965
-5.89973e-05
-4.20291e-05
0.000130284
-4.14846e-05
0.000116854
-6.9121e-05
5.85524e-05
-5.70227e-05
0.000107332
-6.81955e-05
4.20291e-05
-5.85524e-05
0.000121733
2.18254e-05
-5.89973e-05
0.000130284
2.97511e-14
-5.91027e-05
0.000134326
-2.18254e-05
-5.91027e-05
0.000134326
-4.20291e-05
-5.89973e-05
0.000130284
-5.85524e-05
-5.85524e-05
0.000121733
-5.70227e-05
0.000107332
-6.81955e-05
5.70227e-05
9.25627e-05
-6.58089e-05
-6.58089e-05
4.14847e-05
0.000107332
-6.81955e-05
2.17749e-05
0.000116854
-6.9121e-05
-4.13608e-15
0.000121561
-6.94051e-05
-2.17749e-05
0.000121561
-6.94051e-05
-4.14847e-05
0.000116854
-6.9121e-05
-5.70227e-05
0.000107332
-6.81955e-05
9.25627e-05
-6.58089e-05
-6.58089e-05
2.12981e-05
2.12981e-05
9.11553e-05
-2.05944e-05
-2.05944e-05
1.7387e-05
2.43165e-05
0.000110076
-2.31488e-05
9.64834e-06
2.60548e-05
0.000123205
-2.46671e-05
1.27993e-13
2.68715e-05
0.000129837
-2.54995e-05
-9.64834e-06
2.68715e-05
0.000129837
-2.54995e-05
-1.7387e-05
2.60548e-05
0.000123205
-2.46671e-05
-2.12981e-05
2.43165e-05
0.000110076
-2.31488e-05
2.12981e-05
9.11553e-05
-2.05944e-05
-2.05944e-05
2.43165e-05
1.7387e-05
0.000110076
-2.31488e-05
1.97648e-05
1.97648e-05
0.000130836
1.0936e-05
2.11179e-05
0.00014405
1.14894e-13
2.17195e-05
0.000150414
-1.0936e-05
2.17195e-05
0.000150414
-1.97648e-05
2.11179e-05
0.00014405
-2.43165e-05
1.97648e-05
0.000130836
1.7387e-05
0.000110076
-2.31488e-05
2.60548e-05
9.64834e-06
0.000123205
-2.46671e-05
2.11179e-05
1.0936e-05
0.00014405
1.1672e-05
1.1672e-05
0.000156857
7.83747e-14
1.19938e-05
0.000162878
-1.1672e-05
1.19938e-05
0.000162878
-2.11179e-05
1.1672e-05
0.000156857
-2.60548e-05
1.0936e-05
0.00014405
9.64834e-06
0.000123205
-2.46671e-05
2.68715e-05
8.21049e-13
0.000129837
-2.54995e-05
2.17195e-05
9.38209e-13
0.000150414
1.19938e-05
8.95259e-13
0.000162878
5.13643e-14
8.74518e-13
0.000168678
-1.19938e-05
8.46647e-13
0.000168678
-2.17195e-05
8.21693e-13
0.000162878
-2.68715e-05
8.51517e-13
0.000150414
7.62075e-13
0.000129837
-2.54995e-05
2.68715e-05
-9.64834e-06
0.000129837
-2.54995e-05
2.17195e-05
-1.0936e-05
0.000150414
1.19938e-05
-1.1672e-05
0.000162878
2.50198e-14
-1.19938e-05
0.000168678
-1.19938e-05
-1.19938e-05
0.000168678
-2.17195e-05
-1.1672e-05
0.000162878
-2.68715e-05
-1.0936e-05
0.000150414
-9.64834e-06
0.000129837
-2.54995e-05
2.60548e-05
-1.7387e-05
0.000123205
-2.46671e-05
2.11179e-05
-1.97648e-05
0.00014405
1.1672e-05
-2.11179e-05
0.000156857
-1.05744e-14
-2.17195e-05
0.000162878
-1.1672e-05
-2.17195e-05
0.000162878
-2.11179e-05
-2.11179e-05
0.000156857
-2.60548e-05
-1.97648e-05
0.00014405
-1.7387e-05
0.000123205
-2.46671e-05
2.43165e-05
-2.12981e-05
0.000110076
-2.31488e-05
1.97648e-05
-2.43165e-05
0.000130836
1.0936e-05
-2.60548e-05
0.00014405
-4.83187e-14
-2.68715e-05
0.000150414
-1.0936e-05
-2.68715e-05
0.000150414
-1.97648e-05
-2.60548e-05
0.00014405
-2.43165e-05
-2.43165e-05
0.000130836
-2.12981e-05
0.000110076
-2.31488e-05
2.12981e-05
9.11553e-05
-2.05944e-05
-2.05944e-05
1.7387e-05
0.000110076
-2.31488e-05
9.64834e-06
0.000123205
-2.46671e-05
-7.49398e-14
0.000129837
-2.54995e-05
-9.64834e-06
0.000129837
-2.54995e-05
-1.7387e-05
0.000123205
-2.46671e-05
-2.12981e-05
0.000110076
-2.31488e-05
9.11553e-05
-2.05944e-05
-2.05944e-05
1.18127e-05
1.18127e-05
8.91259e-05
-1.0798e-05
-1.0798e-05
9.90265e-06
1.43956e-05
0.000110627
-1.30364e-05
5.62154e-06
1.59718e-05
0.000125963
-1.44489e-05
2.31826e-13
1.67467e-05
0.000133897
-1.51853e-05
-5.62154e-06
1.67467e-05
0.000133897
-1.51853e-05
-9.90265e-06
1.59718e-05
0.000125963
-1.44489e-05
-1.18127e-05
1.43956e-05
0.000110627
-1.30364e-05
1.18127e-05
8.91259e-05
-1.0798e-05
-1.0798e-05
1.43956e-05
9.90265e-06
0.000110627
-1.30364e-05
1.20477e-05
1.20477e-05
0.000135532
6.80902e-06
1.33212e-05
0.000151939
1.83073e-13
1.39201e-05
0.00016005
-6.80902e-06
1.39201e-05
0.00016005
-1.20477e-05
1.33212e-05
0.000151939
-1.43956e-05
1.20477e-05
0.000135532
9.90265e-06
0.000110627
-1.30364e-05
1.59718e-05
5.62155e-06
0.000125963
-1.44489e-05
1.33212e-05
6.80902e-06
0.000151939
7.49972e-06
7.49972e-06
0.0001685
1.09766e-13
7.81056e-06
0.000176487
-7.49972e-06
7.81056e-06
0.000176487
-1.33212e-05
7.49972e-06
0.0001685
-1.59718e-05
6.80902e-06
0.000151939
5.62155e-06
0.000125963
-1.44489e-05
1.67467e-05
9.84097e-13
0.000133897
-1.51853e-05
1.39201e-05
1.05058e-12
0.00016005
7.81056e-06
9.19328e-13
0.000176487
6.08272e-14
8.37716e-13
0.000184299
-7.81056e-06
7.97541e-13
0.000184299
-1.39201e-05
8.0256e-13
0.000176487
-1.67467e-05
8.81158e-13
0.00016005
8.12533e-13
0.000133897
-1.51853e-05
1.67467e-05
-5.62154e-06
0.000133897
-1.51853e-05
1.39201e-05
-6.80902e-06
0.00016005
7.81056e-06
-7.49972e-06
0.000176487
2.28318e-14
-7.81055e-06
0.000184299
-7.81056e-06
-7.81055e-06
0.000184299
-1.39201e-05
-7.49972e-06
0.000176487
-1.67467e-05
-6.80902e-06
0.00016005
-5.62154e-06
0.000133897
-1.51853e-05
1.59718e-05
-9.90265e-06
0.000125963
-1.44489e-05
1.33212e-05
-1.20476e-05
0.000151939
7.49972e-06
-1.33212e-05
0.0001685
-2.11017e-14
-1.39201e-05
0.000176487
-7.49972e-06
-1.39201e-05
0.000176487
-1.33212e-05
-1.33212e-05
0.0001685
-1.59718e-05
-1.20476e-05
0.000151939
-9.90265e-06
0.000125963
-1.44489e-05
1.43956e-05
-1.18127e-05
0.000110627
-1.30364e-05
1.20477e-05
-1.43956e-05
0.000135532
6.80902e-06
-1.59718e-05
0.000151939
-6.42087e-14
-1.67467e-05
0.00016005
-6.80902e-06
-1.67467e-05
0.00016005
-1.20477e-05
-1.59718e-05
0.000151939
-1.43956e-05
-1.43956e-05
0.000135532
-1.18127e-05
0.000110627
-1.30364e-05
1.18127e-05
8.91259e-05
-1.0798e-05
-1.0798e-05
9.90265e-06
0.000110627
-1.30364e-05
5.62154e-06
0.000125963
-1.44489e-05
-9.18794e-14
0.000133897
-1.51853e-05
-5.62154e-06
0.000133897
-1.51853e-05
-9.90265e-06
0.000125963
-1.44489e-05
-1.18127e-05
0.000110627
-1.30364e-05
8.91259e-05
-1.0798e-05
-1.0798e-05
2.98521e-06
2.98521e-06
8.73785e-05
-2.11152e-06
-2.11152e-06
2.93654e-06
4.20871e-06
0.000109321
-2.85467e-06
1.80601e-06
5.10333e-06
0.000125443
-3.45295e-06
3.8772e-14
5.56796e-06
0.000133927
-3.79171e-06
-1.80601e-06
5.56796e-06
0.000133927
-3.79171e-06
-2.93654e-06
5.10333e-06
0.000125443
-3.45295e-06
-2.98521e-06
4.20871e-06
0.000109321
-2.85467e-06
2.98521e-06
8.73785e-05
-2.11152e-06
-2.11152e-06
4.20871e-06
2.93654e-06
0.000109321
-2.85467e-06
4.13753e-06
4.13753e-06
0.000135674
2.52404e-06
4.95623e-06
0.000153699
1.68578e-14
5.34154e-06
0.0001628
-2.52404e-06
5.34154e-06
0.0001628
-4.13753e-06
4.95623e-06
0.000153699
-4.20871e-06
4.13753e-06
0.000135674
2.93654e-06
0.000109321
-2.85467e-06
5.10333e-06
1.80601e-06
0.000125443
-3.45295e-06
4.95623e-06
2.52404e-06
0.000153699
2.98743e-06
2.98743e-06
0.000172437
-1.87796e-14
3.17437e-06
0.000181642
-2.98743e-06
3.17437e-06
0.000181642
-4.95623e-06
2.98743e-06
0.000172437
-5.10333e-06
2.52404e-06
0.000153699
1.80601e-06
0.000125443
-3.45295e-06
5.56796e-06
9.19509e-13
0.000133927
-3.79171e-06
5.34154e-06
1.02865e-12
0.0001628
3.17437e-06
9.08649e-13
0.000181642
-5.01373e-14
8.06329e-13
0.000190648
-3.17437e-06
7.83584e-13
0.000190648
-5.34154e-06
8.4426e-13
0.000181642
-5.56796e-06
9.56328e-13
0.0001628
8.88361e-13
0.000133927
-3.79171e-06
5.56796e-06
-1.80601e-06
0.000133927
-3.79171e-06
5.34154e-06
-2.52404e-06
0.0001628
3.17437e-06
-2.98743e-06
0.000181642
-7.34159e-14
-3.17437e-06
0.000190648
-3.17437e-06
-3.17437e-06
0.000190648
-5.34154e-06
-2.98743e-06
0.000181642
-5.56796e-06
-2.52404e-06
0.0001628
-1.80601e-06
0.000133927
-3.79171e-06
5.10333e-06
-2.93654e-06
0.000125443
-3.45295e-06
4.95623e-06
-4.13753e-06
0.000153699
2.98743e-06
-4.95623e-06
0.000172437
-9.94011e-14
-5.34154e-06
0.000181642
-2.98743e-06
-5.34154e-06
0.000181642
-4.95623e-06
-4.95623e-06
0.000172437
-5.10333e-06
-4.13753e-06
0.000153699
-2.93654e-06
0.000125443
-3.45295e-06
4.20871e-06
-2.98521e-06
0.000109321
-2.85467e-06
4.13753e-06
-4.20871e-06
0.000135674
2.52404e-06
-5.10333e-06
0.000153699
-1.35781e-13
-5.56796e-06
0.0001628
-2.52404e-06
-5.56796e-06
0.0001628
-4.13753e-06
-5.10333e-06
0.000153699
-4.20871e-06
-4.20871e-06
0.000135674
-2.98521e-06
0.000109321
-2.85467e-06
2.98521e-06
8.73785e-05
-2.11152e-06
-2.11152e-06
2.93654e-06
0.000109321
-2.85467e-06
1.80601e-06
0.000125443
-3.45295e-06
-1.56356e-13
0.000133927
-3.79171e-06
-1.80601e-06
0.000133927
-3.79171e-06
-2.93654e-06
0.000125443
-3.45295e-06
-2.98521e-06
0.000109321
-2.85467e-06
8.73785e-05
-2.11152e-06
-2.11152e-06
1.75855e-06
1.75855e-06
8.68359e-05
-1.48727e-06
-1.48727e-06
1.58507e-06
2.31764e-06
0.000109058
-1.88066e-06
9.44341e-07
2.7317e-06
0.000125519
-2.1672e-06
3.32261e-13
2.94525e-06
0.000134245
-2.31887e-06
-9.44341e-07
2.94525e-06
0.000134245
-2.31887e-06
-1.58507e-06
2.7317e-06
0.000125519
-2.1672e-06
-1.75855e-06
2.31764e-06
0.000109058
-1.88066e-06
1.75855e-06
8.68359e-05
-1.48727e-06
-1.48727e-06
2.31764e-06
1.58508e-06
0.000109058
-1.88066e-06
2.13339e-06
2.13339e-06
0.000136043
1.27625e-06
2.52942e-06
0.000154759
2.78916e-13
2.71285e-06
0.000164309
-1.27625e-06
2.71285e-06
0.000164309
-2.13338e-06
2.52942e-06
0.000154759
-2.31764e-06
2.13339e-06
0.000136043
1.58507e-06
0.000109058
-1.88066e-06
2.7317e-06
9.44342e-07
0.000125519
-2.1672e-06
2.52941e-06
1.27625e-06
0.000154759
1.50567e-06
1.50567e-06
0.000174485
1.80388e-13
1.58998e-06
0.00018427
-1.50567e-06
1.58998e-06
0.00018427
-2.52941e-06
1.50567e-06
0.000174485
-2.7317e-06
1.27625e-06
0.000154759
9.44342e-07
0.000125519
-2.1672e-06
2.94525e-06
1.23254e-12
0.000134245
-2.31887e-06
2.71285e-06
1.33842e-12
0.000164309
1.58997e-06
1.15613e-12
0.00018427
1.06783e-13
9.86085e-13
0.000193828
-1.58997e-06
9.42534e-13
0.000193828
-2.71285e-06
1.02259e-12
0.00018427
-2.94525e-06
1.14086e-12
0.000164309
1.03413e-12
0.000134245
-2.31887e-06
2.94525e-06
-9.4434e-07
0.000134245
-2.31887e-06
2.71285e-06
-1.27624e-06
0.000164309
1.58997e-06
-1.50567e-06
0.00018427
6.38425e-14
-1.58997e-06
0.000193828
-1.58997e-06
-1.58997e-06
0.000193828
-2.71285e-06
-1.50567e-06
0.00018427
-2.94525e-06
-1.27624e-06
0.000164309
-9.4434e-07
0.000134245
-2.31887e-06
2.7317e-06
-1.58507e-06
0.000125519
-2.1672e-06
2.52941e-06
-2.13338e-06
0.000154759
1.50567e-06
-2.52941e-06
0.000174485
3.23724e-14
-2.71285e-06
0.00018427
-1.50567e-06
-2.71285e-06
0.00018427
-2.52941e-06
-2.52941e-06
0.000174485
-2.7317e-06
-2.13338e-06
0.000154759
-1.58507e-06
0.000125519
-2.1672e-06
2.31764e-06
-1.75855e-06
0.000109058
-1.88066e-06
2.13338e-06
-2.31763e-06
0.000136043
1.27625e-06
-2.7317e-06
0.000154759
1.02143e-15
-2.94525e-06
0.000164309
-1.27625e-06
-2.94525e-06
0.000164309
-2.13338e-06
-2.7317e-06
0.000154759
-2.31764e-06
-2.31763e-06
0.000136043
-1.75855e-06
0.000109058
-1.88066e-06
1.75855e-06
8.68359e-05
-1.48727e-06
-1.48727e-06
1.58507e-06
0.000109058
-1.88066e-06
9.44341e-07
0.000125519
-2.1672e-06
-2.94422e-14
0.000134245
-2.31887e-06
-9.44341e-07
0.000134245
-2.31887e-06
-1.58507e-06
0.000125519
-2.1672e-06
-1.75855e-06
0.000109058
-1.88066e-06
8.68359e-05
-1.48727e-06
-1.48727e-06
6.09094e-07
6.09095e-07
8.65409e-05
-4.61558e-07
-4.61558e-07
5.88221e-07
8.41815e-07
0.000108839
-6.01562e-07
3.62056e-07
1.02624e-06
0.000125434
-7.14691e-07
-1.61669e-14
1.12581e-06
0.00013426
-7.78511e-07
-3.62056e-07
1.12581e-06
0.00013426
-7.78511e-07
-5.88221e-07
1.02624e-06
0.000125434
-7.14691e-07
-6.09094e-07
8.41815e-07
0.000108839
-6.01562e-07
6.09094e-07
8.65409e-05
-4.61559e-07
-4.61558e-07
8.41814e-07
5.88222e-07
0.000108839
-6.01562e-07
8.30744e-07
8.30745e-07
0.000136065
5.13706e-07
1.01887e-06
0.000155083
-2.96891e-14
1.11174e-06
0.000164837
-5.13707e-07
1.11174e-06
0.000164837
-8.30744e-07
1.01887e-06
0.000155083
-8.41814e-07
8.30745e-07
0.000136065
5.88222e-07
0.000108839
-6.01563e-07
1.02624e-06
3.62058e-07
0.000125434
-7.1469e-07
1.01887e-06
5.13708e-07
0.000155083
6.28552e-07
6.28553e-07
0.000175266
-5.86765e-14
6.77036e-07
0.000185334
-6.28552e-07
6.77036e-07
0.000185334
-1.01887e-06
6.28553e-07
0.000175266
-1.02624e-06
5.13708e-07
0.000155083
3.62058e-07
0.000125434
-7.14692e-07
1.12581e-06
1.23577e-12
0.00013426
-7.7851e-07
1.11173e-06
1.40856e-12
0.000164837
6.77035e-07
1.27098e-12
0.000185334
-7.67207e-14
1.13191e-12
0.000195182
-6.77035e-07
1.1183e-12
0.000195182
-1.11173e-06
1.24107e-12
0.000185334
-1.12581e-06
1.39575e-12
0.000164837
1.28105e-12
0.00013426
-7.78511e-07
1.12581e-06
-3.62055e-07
0.00013426
-7.7851e-07
1.11173e-06
-5.13705e-07
0.000164837
6.77035e-07
-6.28551e-07
0.000185334
-9.02787e-14
-6.77034e-07
0.000195182
-6.77035e-07
-6.77034e-07
0.000195182
-1.11173e-06
-6.28551e-07
0.000185334
-1.12581e-06
-5.13705e-07
0.000164837
-3.62055e-07
0.00013426
-7.78511e-07
1.02624e-06
-5.8822e-07
0.000125434
-7.1469e-07
1.01887e-06
-8.30743e-07
0.000155083
6.28552e-07
-1.01887e-06
0.000175266
-1.03714e-13
-1.11173e-06
0.000185334
-6.28552e-07
-1.11173e-06
0.000185334
-1.01887e-06
-1.01887e-06
0.000175266
-1.02624e-06
-8.30743e-07
0.000155083
-5.8822e-07
0.000125434
-7.14691e-07
8.41814e-07
-6.09093e-07
0.000108839
-6.01562e-07
8.30744e-07
-8.41813e-07
0.000136065
5.13706e-07
-1.02624e-06
0.000155083
-1.24043e-13
-1.12581e-06
0.000164837
-5.13707e-07
-1.12581e-06
0.000164837
-8.30744e-07
-1.02624e-06
0.000155083
-8.41814e-07
-8.41813e-07
0.000136065
-6.09093e-07
0.000108839
-6.01563e-07
6.09094e-07
8.65409e-05
-4.61558e-07
-4.61558e-07
5.88221e-07
0.000108839
-6.01562e-07
3.62056e-07
0.000125434
-7.1469e-07
-1.35713e-13
0.00013426
-7.7851e-07
-3.62057e-07
0.00013426
-7.7851e-07
-5.88221e-07
0.000125434
-7.1469e-07
-6.09094e-07
0.000108839
-6.01562e-07
8.65409e-05
-4.61558e-07
-4.61558e-07
3.37042e-07
3.37043e-07
8.64326e-05
-2.8288e-07
-2.8288e-07
3.05727e-07
4.42556e-07
0.000108783
-3.55841e-07
1.82771e-07
5.24016e-07
0.000125443
-4.10568e-07
2.70714e-13
5.67997e-07
0.000134315
-4.40394e-07
-1.8277e-07
5.67997e-07
0.000134315
-4.40394e-07
-3.05727e-07
5.24016e-07
0.000125443
-4.10568e-07
-3.37042e-07
4.42555e-07
0.000108783
-3.5584e-07
3.37043e-07
8.64326e-05
-2.82881e-07
-2.8288e-07
4.42554e-07
3.05729e-07
0.000108783
-3.5584e-07
4.11361e-07
4.11363e-07
0.000136127
2.48164e-07
4.93895e-07
0.000155277
2.26738e-13
5.35806e-07
0.000165117
-2.48163e-07
5.35806e-07
0.000165117
-4.11361e-07
4.93894e-07
0.000155277
-4.42554e-07
4.11362e-07
0.000136127
3.05728e-07
0.000108783
-3.55841e-07
5.24015e-07
1.82772e-07
0.000125443
-4.10567e-07
4.93893e-07
2.48166e-07
0.000155277
2.99349e-07
2.9935e-07
0.000175655
1.37924e-13
3.22832e-07
0.000185846
-2.99349e-07
3.22832e-07
0.000185846
-4.93893e-07
2.9935e-07
0.000175655
-5.24015e-07
2.48165e-07
0.000155277
1.82772e-07
0.000125443
-4.10568e-07
5.67996e-07
1.7927e-12
0.000134315
-4.40393e-07
5.35805e-07
1.95892e-12
0.000165117
3.22831e-07
1.72049e-12
0.000185846
7.32126e-14
1.49574e-12
0.000195828
-3.22831e-07
1.44931e-12
0.000195828
-5.35805e-07
1.58872e-12
0.000185846
-5.67996e-07
1.75154e-12
0.000165117
1.57792e-12
0.000134315
-4.40394e-07
5.67996e-07
-1.82769e-07
0.000134315
-4.40393e-07
5.35805e-07
-2.48162e-07
0.000165117
3.22831e-07
-2.99347e-07
0.000185846
2.91055e-14
-3.22829e-07
0.000195828
-3.22831e-07
-3.22829e-07
0.000195828
-5.35805e-07
-2.99347e-07
0.000185846
-5.67996e-07
-2.48162e-07
0.000165117
-1.82769e-07
0.000134315
-4.40394e-07
5.24015e-07
-3.05726e-07
0.000125443
-4.10567e-07
4.93893e-07
-4.11359e-07
0.000155277
2.99349e-07
-4.93891e-07
0.000175655
-5.17143e-15
-5.35803e-07
0.000185846
-2.99349e-07
-5.35803e-07
0.000185846
-4.93893e-07
-4.93892e-07
0.000175655
-5.24015e-07
-4.11359e-07
0.000155277
-3.05726e-07
0.000125443
-4.10568e-07
4.42554e-07
-3.3704e-07
0.000108783
-3.55839e-07
4.11361e-07
-4.42552e-07
0.000136127
2.48164e-07
-5.24013e-07
0.000155277
-4.89724e-14
-5.67994e-07
0.000165117
-2.48164e-07
-5.67994e-07
0.000165117
-4.11361e-07
-5.24013e-07
0.000155277
-4.42554e-07
-4.42553e-07
0.000136127
-3.3704e-07
0.000108783
-3.5584e-07
3.37042e-07
8.64326e-05
-2.8288e-07
-2.82879e-07
3.05727e-07
0.000108783
-3.55839e-07
1.8277e-07
0.000125443
-4.10566e-07
-7.27474e-14
0.000134315
-4.40393e-07
-1.8277e-07
0.000134315
-4.40393e-07
-3.05727e-07
0.000125443
-4.10567e-07
-3.37042e-07
0.000108783
-3.5584e-07
8.64326e-05
-2.8288e-07
-2.8288e-07
1.51348e-07
1.5135e-07
8.63735e-05
-1.21836e-07
-1.21836e-07
1.40339e-07
2.02145e-07
0.000108747
-1.55427e-07
8.45678e-08
2.41371e-07
0.000125439
-1.81513e-07
-9.00786e-14
2.62704e-07
0.000134333
-1.96085e-07
-8.45679e-08
2.62704e-07
0.000134333
-1.96085e-07
-1.4034e-07
2.41371e-07
0.000125439
-1.81513e-07
-1.51349e-07
2.02145e-07
0.000108747
-1.55427e-07
1.5135e-07
8.63735e-05
-1.21837e-07
-1.21836e-07
2.02143e-07
1.40341e-07
0.000108747
-1.55425e-07
1.91011e-07
1.91013e-07
0.00013615
1.15755e-07
2.30229e-07
0.000155363
-7.5217e-14
2.50411e-07
0.000165245
-1.15755e-07
2.5041e-07
0.000165245
-1.91011e-07
2.30229e-07
0.000155363
-2.02144e-07
1.91013e-07
0.00013615
1.40341e-07
0.000108747
-1.55427e-07
2.41369e-07
8.45697e-08
0.000125439
-1.81511e-07
2.30227e-07
1.15757e-07
0.000155363
1.40054e-07
1.40056e-07
0.000175835
-7.66337e-14
1.51654e-07
0.000186085
-1.40054e-07
1.51654e-07
0.000186085
-2.30228e-07
1.40056e-07
0.000175835
-2.4137e-07
1.15757e-07
0.000155363
8.45698e-08
0.000125439
-1.81512e-07
2.62702e-07
1.70367e-12
0.000134333
-1.96083e-07
2.50409e-07
1.93086e-12
0.000165245
1.51653e-07
1.75e-12
0.000186085
-7.59026e-14
1.5717e-12
0.000196131
-1.51653e-07
1.56005e-12
0.000196131
-2.50409e-07
1.73984e-12
0.000186085
-2.62702e-07
1.94005e-12
0.000165245
1.77073e-12
0.000134333
-1.96084e-07
2.62702e-07
-8.45664e-08
0.000134333
-1.96083e-07
2.50409e-07
-1.15754e-07
0.000165245
1.51653e-07
-1.40052e-07
0.000186085
-8.69164e-14
-1.51651e-07
0.000196131
-1.51653e-07
-1.51651e-07
0.000196131
-2.50409e-07
-1.40052e-07
0.000186085
-2.62702e-07
-1.15754e-07
0.000165245
-8.45663e-08
0.000134333
-1.96084e-07
2.41369e-07
-1.40338e-07
0.000125439
-1.81511e-07
2.30228e-07
-1.9101e-07
0.000155363
1.40054e-07
-2.30226e-07
0.000175835
-9.87073e-14
-2.50407e-07
0.000186085
-1.40054e-07
-2.50407e-07
0.000186085
-2.30228e-07
-2.30226e-07
0.000175835
-2.4137e-07
-1.9101e-07
0.000155363
-1.40338e-07
0.000125439
-1.81512e-07
2.02144e-07
-1.51347e-07
0.000108747
-1.55425e-07
1.91011e-07
-2.02142e-07
0.00013615
1.15755e-07
-2.41368e-07
0.000155363
-1.29696e-13
-2.62701e-07
0.000165245
-1.15756e-07
-2.62701e-07
0.000165245
-1.91011e-07
-2.41368e-07
0.000155363
-2.02144e-07
-2.02142e-07
0.00013615
-1.51347e-07
0.000108747
-1.55426e-07
1.51348e-07
8.63735e-05
-1.21836e-07
-1.21835e-07
1.4034e-07
0.000108747
-1.55425e-07
8.45679e-08
0.000125439
-1.81511e-07
-1.44557e-13
0.000134333
-1.96083e-07
-8.45682e-08
0.000134333
-1.96083e-07
-1.4034e-07
0.000125439
-1.81511e-07
-1.51348e-07
0.000108747
-1.55425e-07
8.63735e-05
-1.21836e-07
-1.21836e-07
7.90331e-08
7.90344e-08
8.63467e-05
-6.56223e-08
-6.56224e-08
7.18496e-08
1.04054e-07
0.000108733
-8.28794e-08
4.28782e-08
1.23074e-07
0.000125441
-9.59203e-08
6.55779e-13
1.3333e-07
0.000134345
-1.03102e-07
-4.2877e-08
1.3333e-07
0.000134345
-1.03101e-07
-7.18486e-08
1.23073e-07
0.000125441
-9.59199e-08
-7.90324e-08
1.04053e-07
0.000108733
-8.28786e-08
7.90337e-08
8.63467e-05
-6.56222e-08
-6.56221e-08
1.04052e-07
7.18513e-08
0.000108733
-8.2878e-08
9.6421e-08
9.64231e-08
0.000136165
5.78784e-08
1.15181e-07
0.000155409
6.12485e-13
1.24754e-07
0.000165311
-5.78773e-08
1.24754e-07
0.000165311
-9.64202e-08
1.15181e-07
0.000155409
-1.04051e-07
9.64225e-08
0.000136165
7.18507e-08
0.000108733
-8.28788e-08
1.23072e-07
4.28799e-08
0.000125441
-9.59188e-08
1.15179e-07
5.78804e-08
0.000155409
6.94189e-08
6.94208e-08
0.000175927
4.62208e-13
7.49052e-08
0.000186204
-6.94181e-08
7.49052e-08
0.000186204
-1.15179e-07
6.94205e-08
0.000175927
-1.23072e-07
5.788e-08
0.000155409
4.28794e-08
0.000125441
-9.59197e-08
1.33328e-07
2.28207e-12
0.000134345
-1.031e-07
1.24752e-07
2.47927e-12
0.000165311
7.49036e-08
2.16918e-12
0.000186204
3.41261e-13
1.87738e-12
0.000196281
-7.4903e-08
1.80409e-12
0.000196281
-1.24752e-07
1.94516e-12
0.000186204
-1.33328e-07
2.12123e-12
0.000165311
1.88636e-12
0.000134345
-1.03101e-07
1.33328e-07
-4.28755e-08
0.000134345
-1.031e-07
1.24752e-07
-5.78756e-08
0.000165311
7.49036e-08
-6.94165e-08
0.000186204
2.68965e-13
-7.49015e-08
0.000196281
-7.49031e-08
-7.49015e-08
0.000196281
-1.24752e-07
-6.94167e-08
0.000186204
-1.33328e-07
-5.78758e-08
0.000165311
-4.28757e-08
0.000134345
-1.03101e-07
1.23072e-07
-7.18472e-08
0.000125441
-9.59188e-08
1.15179e-07
-9.64185e-08
0.000155409
6.94188e-08
-1.15177e-07
0.000175927
2.25341e-13
-1.2475e-07
0.000186204
-6.94184e-08
-1.2475e-07
0.000186204
-1.15179e-07
-1.15177e-07
0.000175927
-1.23072e-07
-9.64187e-08
0.000155409
-7.18473e-08
0.000125441
-9.59198e-08
1.04051e-07
-7.90311e-08
0.000108733
-8.28776e-08
9.64209e-08
-1.0405e-07
0.000136165
5.78781e-08
-1.2307e-07
0.000155409
1.85808e-13
-1.33327e-07
0.000165311
-5.78778e-08
-1.33327e-07
0.000165311
-9.64206e-08
-1.2307e-07
0.000155409
-1.04051e-07
-1.0405e-07
0.000136165
-7.90312e-08
0.000108733
-8.28784e-08
7.90325e-08
8.63467e-05
-6.56214e-08
-6.5621e-08
7.18493e-08
0.000108733
-8.28772e-08
4.28778e-08
0.000125441
-9.59182e-08
1.30045e-13
0.000134345
-1.031e-07
-4.28776e-08
0.000134345
-1.031e-07
-7.18491e-08
0.000125441
-9.59184e-08
-7.90323e-08
0.000108733
-8.28776e-08
8.63467e-05
-6.56213e-08
-6.56216e-08
3.80807e-08
3.80824e-08
8.63326e-05
-3.10248e-08
-3.10245e-08
3.50233e-08
5.06166e-08
0.000108725
-3.94624e-08
2.1008e-08
6.01987e-08
0.000125441
-4.59522e-08
4.02811e-13
6.5371e-08
0.00013435
-4.95575e-08
-2.10072e-08
6.53709e-08
0.00013435
-4.95574e-08
-3.50227e-08
6.01984e-08
0.000125441
-4.59518e-08
-3.80804e-08
5.06162e-08
0.000108725
-3.94618e-08
3.8082e-08
8.63326e-05
-3.10249e-08
-3.10244e-08
5.06143e-08
3.50254e-08
0.000108725
-3.94606e-08
4.73937e-08
4.73961e-08
0.000136171
2.85616e-08
5.68265e-08
0.000155432
3.88897e-13
6.16252e-08
0.000165344
-2.85609e-08
6.16251e-08
0.000165344
-4.73932e-08
5.68264e-08
0.000155432
-5.06142e-08
4.73958e-08
0.000136171
3.50252e-08
0.000108725
-3.94614e-08
6.01962e-08
2.101e-08
0.000125441
-4.59499e-08
5.68242e-08
2.85639e-08
0.000155432
3.43453e-08
3.43474e-08
0.000175971
2.82344e-13
3.70869e-08
0.000186263
-3.43448e-08
3.70869e-08
0.000186263
-5.68239e-08
3.43473e-08
0.000175971
-6.01962e-08
2.85637e-08
0.000155432
2.10099e-08
0.000125441
-4.59507e-08
6.53687e-08
2.12554e-12
0.00013435
-4.95553e-08
6.16231e-08
2.37026e-12
0.000165344
3.7085e-08
2.12048e-12
0.000186263
2.05441e-13
1.87766e-12
0.000196355
-3.70847e-08
1.83018e-12
0.000196355
-6.16228e-08
1.99445e-12
0.000186263
-6.53687e-08
2.18525e-12
0.000165344
1.97082e-12
0.00013435
-4.9556e-08
6.53688e-08
-2.10059e-08
0.00013435
-4.95554e-08
6.16231e-08
-2.85592e-08
0.000165344
3.7085e-08
-3.43432e-08
0.000186263
1.57669e-13
-3.70831e-08
0.000196355
-3.70848e-08
-3.70832e-08
0.000196355
-6.16229e-08
-3.43434e-08
0.000186263
-6.53687e-08
-2.85594e-08
0.000165344
-2.1006e-08
0.00013435
-4.9556e-08
6.01965e-08
-3.50216e-08
0.000125441
-4.59502e-08
5.68244e-08
-4.73917e-08
0.000155432
3.43454e-08
-5.68225e-08
0.000175971
1.35042e-13
-6.16214e-08
0.000186263
-3.43451e-08
-6.16214e-08
0.000186263
-5.68242e-08
-5.68226e-08
0.000175971
-6.01963e-08
-4.73919e-08
0.000155432
-3.50217e-08
0.000125441
-4.59506e-08
5.06144e-08
-3.80792e-08
0.000108725
-3.94605e-08
4.73938e-08
-5.06128e-08
0.000136171
2.85616e-08
-6.01949e-08
0.000155432
1.12328e-13
-6.53674e-08
0.000165344
-2.85614e-08
-6.53675e-08
0.000165344
-4.73936e-08
-6.01951e-08
0.000155432
-5.06143e-08
-5.06131e-08
0.000136171
-3.80795e-08
0.000108725
-3.94608e-08
3.80805e-08
8.63326e-05
-3.10236e-08
-3.10235e-08
3.50233e-08
0.000108725
-3.94599e-08
2.10079e-08
0.000125441
-4.59496e-08
6.58831e-14
0.00013435
-4.9555e-08
-2.10078e-08
0.00013435
-4.95551e-08
-3.50232e-08
0.000125441
-4.59499e-08
-3.80804e-08
0.000108725
-3.94604e-08
8.63326e-05
-3.10239e-08
-3.10238e-08
1.96296e-08
1.96312e-08
8.63257e-05
-1.6166e-08
-1.61661e-08
1.7943e-08
2.59692e-08
0.000108722
-2.04876e-08
1.07364e-08
3.08014e-08
0.000125441
-2.3779e-08
1.08669e-12
3.3404e-08
0.000134353
-2.55968e-08
-1.07343e-08
3.34038e-08
0.000134353
-2.55966e-08
-1.79413e-08
3.08007e-08
0.000125441
-2.37783e-08
-1.96284e-08
2.5968e-08
0.000108722
-2.04863e-08
1.963e-08
8.63257e-05
-1.61655e-08
-1.61654e-08
2.59669e-08
1.79448e-08
0.000108722
-2.04858e-08
2.41869e-08
2.41892e-08
0.000136175
1.45479e-08
2.89465e-08
0.000155443
9.84882e-13
3.13604e-08
0.00016536
-1.45461e-08
3.13603e-08
0.00016536
-2.41855e-08
2.8946e-08
0.000155443
-2.5966e-08
2.41883e-08
0.000136175
1.79438e-08
0.000108722
-2.04861e-08
3.07992e-08
1.07381e-08
0.000125441
-2.37771e-08
2.89445e-08
1.455e-08
0.000155443
1.74637e-08
1.74656e-08
0.000175994
7.26649e-13
1.88402e-08
0.000186293
-1.74624e-08
1.88401e-08
0.000186293
-2.89434e-08
1.74652e-08
0.000175994
-3.07986e-08
1.45493e-08
0.000155443
1.07373e-08
0.000125441
-2.37777e-08
3.3402e-08
2.63494e-12
0.000134353
-2.5595e-08
3.13586e-08
2.79539e-12
0.00016536
1.88385e-08
2.39769e-12
0.000186293
5.31513e-13
2.03718e-12
0.000196393
-1.88375e-08
1.92306e-12
0.000196393
-3.13578e-08
2.04529e-12
0.000186293
-3.34016e-08
2.19841e-12
0.00016536
1.94864e-12
0.000134353
-2.55957e-08
3.3402e-08
-1.0733e-08
0.000134353
-2.55949e-08
3.13586e-08
-1.45445e-08
0.00016536
1.88385e-08
-1.74609e-08
0.000186293
4.18174e-13
-1.88361e-08
0.000196393
-1.88377e-08
-1.88362e-08
0.000196393
-3.1358e-08
-1.74612e-08
0.000186293
-3.34017e-08
-1.4545e-08
0.00016536
-1.07335e-08
0.000134353
-2.55958e-08
3.07991e-08
-1.79401e-08
0.000125441
-2.37769e-08
2.89443e-08
-2.41839e-08
0.000155443
1.74635e-08
-2.89419e-08
0.000175994
3.56348e-13
-3.13564e-08
0.000186293
-1.74629e-08
-3.13564e-08
0.000186293
-2.89439e-08
-2.89422e-08
0.000175994
-3.07989e-08
-2.41843e-08
0.000155443
-1.79404e-08
0.000125441
-2.37777e-08
2.59665e-08
-1.96272e-08
0.000108722
-2.04851e-08
2.41865e-08
-2.59645e-08
0.000136175
1.45474e-08
-3.07972e-08
0.000155443
3.00238e-13
-3.34002e-08
0.00016536
-1.45469e-08
-3.34003e-08
0.00016536
-2.41861e-08
-3.07974e-08
0.000155443
-2.59663e-08
-2.59649e-08
0.000136175
-1.96274e-08
0.000108722
-2.04858e-08
1.96288e-08
8.63257e-05
-1.61646e-08
-1.61643e-08
1.79424e-08
0.000108722
-2.04846e-08
1.07357e-08
0.000125441
-2.37762e-08
2.26763e-13
0.000134353
-2.55943e-08
-1.07353e-08
0.000134353
-2.55943e-08
-1.7942e-08
0.000125441
-2.37765e-08
-1.96285e-08
0.000108722
-2.04851e-08
8.63257e-05
-1.61645e-08
-1.61649e-08
9.77405e-09
9.77537e-09
8.63221e-05
-7.98461e-09
-7.98437e-09
8.98199e-09
1.29827e-08
0.00010872
-1.01455e-08
5.38884e-09
1.54378e-08
0.000125441
-1.18031e-08
2.40764e-13
1.67632e-08
0.000134355
-1.27221e-08
-5.38837e-09
1.67632e-08
0.000134355
-1.27221e-08
-8.98167e-09
1.54378e-08
0.000125441
-1.18031e-08
-9.77393e-09
1.29826e-08
0.00010872
-1.01453e-08
9.77538e-09
8.63221e-05
-7.98482e-09
-7.98451e-09
1.29809e-08
8.98381e-09
0.00010872
-1.01442e-08
1.21563e-08
1.21584e-08
0.000136177
7.33113e-09
1.45847e-08
0.000155449
2.47183e-13
1.58188e-08
0.000165369
-7.33071e-09
1.58188e-08
0.000165369
-1.21561e-08
1.45847e-08
0.000155449
-1.29809e-08
1.21584e-08
0.000136177
8.98382e-09
0.00010872
-1.0145e-08
1.5436e-08
5.3907e-09
0.000125441
-1.18015e-08
1.45828e-08
7.33317e-09
0.000155449
8.82161e-09
8.82345e-09
0.000176006
2.01157e-13
9.5284e-09
0.000186308
-8.82125e-09
9.52839e-09
0.000186308
-1.45826e-08
8.82339e-09
0.000176006
-1.5436e-08