/*--------------------------------*- C++ -*----------------------------------*\
| =========                 |                                                 |
| \\      /  F ield         | OpenFOAM: The Open Source CFD Toolbox           |
|  \\    /   O peration     | Version:  2406                                  |
|   \\  /    A nd           | Website:  www.openfoam.com                      |
|    \\/     M anipulation  |                                                 |
\*---------------------------------------------------------------------------*/
FoamFile
{
    version     2.0;
    format      ascii;
    arch        "LSB;label=32;scalar=64";
    class       volVectorField;
    location    "1.1";
    object      U;
}
// * * * * * * * * * * * * * * * * * * * * * * * * * * * * * * * * * * * * * //

dimensions      [0 1 -1 0 0 0 0];

internalField   nonuniform List<vector> 
16000
(
(0.153132 0.153132 1.11474)
(0.117573 0.168169 1.1542)
(0.072459 0.17688 1.17285)
(0.0244946 0.180953 1.18018)
(-0.0244946 0.180953 1.18018)
(-0.072459 0.17688 1.17285)
(-0.117573 0.168169 1.1542)
(-0.153132 0.153132 1.11474)
(0.168169 0.117573 1.1542)
(0.126109 0.126109 1.18728)
(0.0766337 0.131081 1.19757)
(0.0257137 0.133402 1.19978)
(-0.0257137 0.133402 1.19978)
(-0.0766337 0.131081 1.19757)
(-0.126109 0.126109 1.18728)
(-0.168169 0.117573 1.1542)
(0.17688 0.072459 1.17285)
(0.131081 0.0766337 1.19757)
(0.0792027 0.0792027 1.20176)
(0.0264749 0.0803911 1.20065)
(-0.0264749 0.0803911 1.20065)
(-0.0792027 0.0792027 1.20176)
(-0.131081 0.0766337 1.19757)
(-0.17688 0.072459 1.17285)
(0.180953 0.0244946 1.18018)
(0.133402 0.0257137 1.19978)
(0.0803911 0.0264749 1.20065)
(0.0268183 0.0268183 1.1979)
(-0.0268183 0.0268183 1.1979)
(-0.0803911 0.0264749 1.20065)
(-0.133402 0.0257137 1.19978)
(-0.180953 0.0244946 1.18018)
(0.180953 -0.0244946 1.18018)
(0.133402 -0.0257137 1.19978)
(0.0803911 -0.0264749 1.20065)
(0.0268183 -0.0268183 1.1979)
(-0.0268183 -0.0268183 1.1979)
(-0.0803911 -0.0264749 1.20065)
(-0.133402 -0.0257137 1.19978)
(-0.180953 -0.0244946 1.18018)
(0.17688 -0.072459 1.17285)
(0.131081 -0.0766337 1.19757)
(0.0792027 -0.0792027 1.20176)
(0.0264749 -0.0803911 1.20065)
(-0.0264749 -0.0803911 1.20065)
(-0.0792027 -0.0792027 1.20176)
(-0.131081 -0.0766337 1.19757)
(-0.17688 -0.072459 1.17285)
(0.168169 -0.117573 1.1542)
(0.126109 -0.126109 1.18728)
(0.0766337 -0.131081 1.19757)
(0.0257137 -0.133402 1.19978)
(-0.0257137 -0.133402 1.19978)
(-0.0766337 -0.131081 1.19757)
(-0.126109 -0.126109 1.18728)
(-0.168169 -0.117573 1.1542)
(0.153132 -0.153132 1.11474)
(0.117573 -0.168169 1.1542)
(0.072459 -0.17688 1.17285)
(0.0244946 -0.180953 1.18018)
(-0.0244946 -0.180953 1.18018)
(-0.072459 -0.17688 1.17285)
(-0.117573 -0.168169 1.1542)
(-0.153132 -0.153132 1.11474)
(0.0494154 0.0494154 1.29062)
(0.0414003 0.0615755 1.3895)
(0.0279271 0.0703803 1.44408)
(0.00984083 0.075171 1.46809)
(-0.00984083 0.075171 1.46809)
(-0.0279271 0.0703803 1.44408)
(-0.0414003 0.0615755 1.3895)
(-0.0494154 0.0494154 1.29062)
(0.0615755 0.0414003 1.3895)
(0.0531611 0.0531611 1.48728)
(0.0357288 0.0616406 1.53241)
(0.0125458 0.0660227 1.54992)
(-0.0125458 0.0660227 1.54992)
(-0.0357288 0.0616406 1.53241)
(-0.0531611 0.0531611 1.48728)
(-0.0615755 0.0414003 1.3895)
(0.0703803 0.0279271 1.44408)
(0.0616406 0.0357288 1.53241)
(0.0413007 0.0413007 1.57006)
(0.0144349 0.0441146 1.5832)
(-0.0144349 0.0441146 1.5832)
(-0.0413007 0.0413007 1.57006)
(-0.0616406 0.0357288 1.53241)
(-0.0703803 0.0279271 1.44408)
(0.075171 0.00984083 1.46809)
(0.0660227 0.0125458 1.54992)
(0.0441146 0.0144349 1.5832)
(0.0153734 0.0153734 1.59386)
(-0.0153734 0.0153734 1.59386)
(-0.0441146 0.0144349 1.5832)
(-0.0660227 0.0125458 1.54992)
(-0.0751711 0.00984083 1.46809)
(0.075171 -0.00984083 1.46809)
(0.0660227 -0.0125458 1.54992)
(0.0441146 -0.0144349 1.5832)
(0.0153734 -0.0153734 1.59386)
(-0.0153734 -0.0153734 1.59386)
(-0.0441146 -0.0144349 1.5832)
(-0.0660227 -0.0125458 1.54992)
(-0.0751711 -0.00984083 1.46809)
(0.0703803 -0.027927 1.44408)
(0.0616406 -0.0357288 1.53241)
(0.0413007 -0.0413007 1.57006)
(0.0144349 -0.0441146 1.5832)
(-0.0144349 -0.0441146 1.5832)
(-0.0413007 -0.0413007 1.57006)
(-0.0616406 -0.0357288 1.53241)
(-0.0703803 -0.027927 1.44408)
(0.0615755 -0.0414003 1.3895)
(0.0531611 -0.0531611 1.48728)
(0.0357288 -0.0616406 1.53241)
(0.0125458 -0.0660227 1.54992)
(-0.0125458 -0.0660227 1.54992)
(-0.0357288 -0.0616406 1.53241)
(-0.0531611 -0.0531611 1.48728)
(-0.0615755 -0.0414003 1.3895)
(0.0494154 -0.0494154 1.29062)
(0.0414003 -0.0615755 1.3895)
(0.027927 -0.0703803 1.44408)
(0.00984083 -0.075171 1.46809)
(-0.00984083 -0.075171 1.46809)
(-0.0279271 -0.0703803 1.44408)
(-0.0414003 -0.0615755 1.3895)
(-0.0494154 -0.0494154 1.29062)
(0.0295334 0.0295334 1.18369)
(0.0263057 0.0381217 1.33605)
(0.0179588 0.0440247 1.43119)
(0.00638113 0.0472238 1.47636)
(-0.00638113 0.0472238 1.47636)
(-0.0179588 0.0440247 1.43119)
(-0.0263057 0.0381217 1.33605)
(-0.0295334 0.0295334 1.18369)
(0.0381217 0.0263057 1.33605)
(0.03387 0.03387 1.50686)
(0.0231033 0.0393329 1.60045)
(0.00819889 0.0422271 1.64149)
(-0.00819889 0.042227 1.64149)
(-0.0231033 0.0393329 1.60045)
(-0.03387 0.03387 1.50686)
(-0.0381217 0.0263057 1.33605)
(0.0440247 0.0179588 1.43119)
(0.0393329 0.0231033 1.60045)
(0.0268026 0.0268026 1.68906)
(0.00948465 0.028713 1.72654)
(-0.00948465 0.028713 1.72654)
(-0.0268026 0.0268026 1.68906)
(-0.0393329 0.0231033 1.60045)
(-0.0440247 0.0179588 1.43119)
(0.0472238 0.00638113 1.47636)
(0.042227 0.00819889 1.64149)
(0.028713 0.00948465 1.72654)
(0.0101528 0.0101528 1.76219)
(-0.0101528 0.0101528 1.76219)
(-0.028713 0.00948465 1.72654)
(-0.042227 0.00819889 1.64149)
(-0.0472238 0.00638113 1.47636)
(0.0472238 -0.00638113 1.47636)
(0.042227 -0.00819889 1.64149)
(0.028713 -0.00948464 1.72654)
(0.0101528 -0.0101528 1.76219)
(-0.0101528 -0.0101528 1.76219)
(-0.028713 -0.00948464 1.72654)
(-0.042227 -0.00819889 1.64149)
(-0.0472238 -0.00638113 1.47636)
(0.0440247 -0.0179588 1.43119)
(0.0393329 -0.0231033 1.60045)
(0.0268026 -0.0268026 1.68906)
(0.00948465 -0.028713 1.72654)
(-0.00948465 -0.028713 1.72654)
(-0.0268026 -0.0268026 1.68906)
(-0.0393329 -0.0231033 1.60045)
(-0.0440247 -0.0179588 1.43119)
(0.0381217 -0.0263057 1.33605)
(0.03387 -0.03387 1.50686)
(0.0231033 -0.0393329 1.60045)
(0.00819889 -0.042227 1.64149)
(-0.00819889 -0.042227 1.64149)
(-0.0231033 -0.0393329 1.60045)
(-0.03387 -0.03387 1.50686)
(-0.0381217 -0.0263057 1.33605)
(0.0295334 -0.0295334 1.18369)
(0.0263057 -0.0381217 1.33605)
(0.0179588 -0.0440247 1.43119)
(0.00638113 -0.0472238 1.47636)
(-0.00638113 -0.0472238 1.47636)
(-0.0179588 -0.0440247 1.43119)
(-0.0263057 -0.0381217 1.33605)
(-0.0295334 -0.0295334 1.18369)
(0.00607788 0.00607788 1.17735)
(0.00678721 0.00932593 1.34012)
(0.00531535 0.0121436 1.44756)
(0.00200434 0.0137879 1.50053)
(-0.00200434 0.0137879 1.50053)
(-0.00531535 0.0121436 1.44756)
(-0.00678721 0.00932593 1.34012)
(-0.00607788 0.00607788 1.17735)
(0.00932593 0.00678721 1.34012)
(0.010642 0.010642 1.53329)
(0.0082524 0.0137676 1.64786)
(0.00308277 0.0154575 1.70082)
(-0.00308277 0.0154575 1.70082)
(-0.0082524 0.0137676 1.64786)
(-0.010642 0.010642 1.53329)
(-0.00932593 0.00678721 1.34012)
(0.0121436 0.00531536 1.44756)
(0.0137676 0.0082524 1.64786)
(0.0104758 0.0104758 1.76219)
(0.00386311 0.0115575 1.81303)
(-0.00386311 0.0115575 1.81303)
(-0.0104758 0.0104758 1.76219)
(-0.0137676 0.0082524 1.64786)
(-0.0121436 0.00531536 1.44756)
(0.0137879 0.00200435 1.50053)
(0.0154575 0.00308277 1.70082)
(0.0115575 0.00386311 1.81303)
(0.00421153 0.00421154 1.8613)
(-0.00421153 0.00421154 1.8613)
(-0.0115575 0.00386311 1.81303)
(-0.0154575 0.00308277 1.70082)
(-0.0137879 0.00200435 1.50053)
(0.0137879 -0.00200434 1.50053)
(0.0154575 -0.00308276 1.70082)
(0.0115575 -0.0038631 1.81303)
(0.00421153 -0.00421153 1.8613)
(-0.00421153 -0.00421153 1.8613)
(-0.0115575 -0.0038631 1.81303)
(-0.0154575 -0.00308276 1.70082)
(-0.0137879 -0.00200434 1.50053)
(0.0121436 -0.00531535 1.44756)
(0.0137676 -0.00825239 1.64786)
(0.0104758 -0.0104758 1.76219)
(0.00386311 -0.0115575 1.81303)
(-0.00386311 -0.0115575 1.81303)
(-0.0104758 -0.0104758 1.76219)
(-0.0137676 -0.00825239 1.64786)
(-0.0121436 -0.00531535 1.44756)
(0.00932593 -0.00678721 1.34012)
(0.0106419 -0.0106419 1.53329)
(0.0082524 -0.0137676 1.64786)
(0.00308277 -0.0154575 1.70082)
(-0.00308277 -0.0154575 1.70082)
(-0.0082524 -0.0137676 1.64786)
(-0.010642 -0.0106419 1.53329)
(-0.00932593 -0.00678721 1.34012)
(0.00607788 -0.00607788 1.17735)
(0.00678721 -0.00932593 1.34012)
(0.00531535 -0.0121436 1.44756)
(0.00200434 -0.0137879 1.50053)
(-0.00200434 -0.0137879 1.50053)
(-0.00531535 -0.0121436 1.44756)
(-0.00678721 -0.00932593 1.34012)
(-0.00607788 -0.00607788 1.17735)
(0.00420929 0.00420929 1.15879)
(0.00417758 0.00573707 1.32761)
(0.00305281 0.00697193 1.44156)
(0.00112169 0.00767951 1.4987)
(-0.00112169 0.00767951 1.4987)
(-0.00305281 0.00697193 1.44156)
(-0.00417758 0.00573707 1.32761)
(-0.00420929 0.00420929 1.15879)
(0.00573707 0.00417758 1.32761)
(0.0058271 0.00582711 1.53244)
(0.00432306 0.00720708 1.65824)
(0.00159285 0.00796351 1.71788)
(-0.00159285 0.00796351 1.71788)
(-0.00432306 0.00720708 1.65824)
(-0.0058271 0.0058271 1.53244)
(-0.00573707 0.00417758 1.32761)
(0.00697193 0.00305281 1.44156)
(0.00720707 0.00432306 1.65824)
(0.00533722 0.00533722 1.7871)
(0.00194952 0.00580511 1.84585)
(-0.00194952 0.00580511 1.84585)
(-0.00533722 0.00533722 1.7871)
(-0.00720708 0.00432306 1.65824)
(-0.00697194 0.00305281 1.44156)
(0.00767951 0.00112169 1.4987)
(0.00796351 0.00159285 1.71788)
(0.00580511 0.00194952 1.84585)
(0.00208328 0.00208329 1.90127)
(-0.00208328 0.00208328 1.90127)
(-0.00580511 0.00194952 1.84585)
(-0.00796351 0.00159285 1.71788)
(-0.00767951 0.00112169 1.4987)
(0.00767951 -0.00112169 1.4987)
(0.00796351 -0.00159285 1.71788)
(0.00580511 -0.00194951 1.84585)
(0.00208328 -0.00208328 1.90127)
(-0.00208328 -0.00208328 1.90127)
(-0.00580511 -0.00194951 1.84585)
(-0.00796351 -0.00159285 1.71788)
(-0.00767951 -0.00112169 1.4987)
(0.00697193 -0.00305281 1.44156)
(0.00720707 -0.00432305 1.65824)
(0.00533722 -0.00533722 1.7871)
(0.00194952 -0.0058051 1.84585)
(-0.00194952 -0.0058051 1.84585)
(-0.00533722 -0.00533722 1.7871)
(-0.00720707 -0.00432305 1.65824)
(-0.00697193 -0.00305281 1.44156)
(0.00573707 -0.00417758 1.32761)
(0.0058271 -0.0058271 1.53244)
(0.00432306 -0.00720707 1.65824)
(0.00159285 -0.0079635 1.71788)
(-0.00159285 -0.0079635 1.71788)
(-0.00432306 -0.00720707 1.65824)
(-0.0058271 -0.0058271 1.53244)
(-0.00573707 -0.00417758 1.32761)
(0.00420928 -0.00420928 1.15879)
(0.00417758 -0.00573707 1.32761)
(0.00305281 -0.00697193 1.44156)
(0.00112169 -0.00767951 1.4987)
(-0.00112169 -0.00767951 1.4987)
(-0.00305281 -0.00697193 1.44156)
(-0.00417758 -0.00573707 1.32761)
(-0.00420929 -0.00420929 1.15879)
(0.00130174 0.00130174 1.15563)
(0.00140465 0.00190345 1.3259)
(0.00109256 0.00244352 1.44189)
(0.000412967 0.00276631 1.50046)
(-0.000412967 0.00276631 1.50046)
(-0.00109256 0.00244352 1.44189)
(-0.00140465 0.00190345 1.3259)
(-0.00130174 0.00130174 1.15563)
(0.00190345 0.00140465 1.3259)
(0.00214529 0.0021453 1.53424)
(0.0016872 0.00280356 1.66415)
(0.000637026 0.00317699 1.72646)
(-0.000637026 0.00317699 1.72646)
(-0.0016872 0.00280356 1.66415)
(-0.0021453 0.0021453 1.53424)
(-0.00190345 0.00140465 1.3259)
(0.00244352 0.00109257 1.44189)
(0.00280356 0.0016872 1.66415)
(0.00219038 0.00219038 1.7989)
(0.000816972 0.0024356 1.86114)
(-0.000816972 0.0024356 1.86114)
(-0.00219038 0.00219038 1.7989)
(-0.00280356 0.0016872 1.66415)
(-0.00244352 0.00109257 1.44189)
(0.00276631 0.00041297 1.50046)
(0.00317699 0.000637029 1.72646)
(0.0024356 0.000816975 1.86114)
(0.000886492 0.000886495 1.91993)
(-0.000886493 0.000886495 1.91993)
(-0.0024356 0.000816975 1.86114)
(-0.00317699 0.000637029 1.72646)
(-0.00276631 0.00041297 1.50046)
(0.00276631 -0.000412964 1.50046)
(0.00317699 -0.000637022 1.72646)
(0.0024356 -0.000816969 1.86114)
(0.000886492 -0.00088649 1.91993)
(-0.000886493 -0.00088649 1.91993)
(-0.0024356 -0.000816969 1.86114)
(-0.00317699 -0.000637022 1.72646)
(-0.00276631 -0.000412964 1.50046)
(0.00244352 -0.00109256 1.44189)
(0.00280355 -0.00168719 1.66415)
(0.00219038 -0.00219038 1.7989)
(0.000816972 -0.00243559 1.86114)
(-0.000816972 -0.00243559 1.86114)
(-0.00219038 -0.00219038 1.7989)
(-0.00280356 -0.00168719 1.66415)
(-0.00244352 -0.00109256 1.44189)
(0.00190345 -0.00140464 1.3259)
(0.00214529 -0.00214529 1.53424)
(0.0016872 -0.00280355 1.66415)
(0.000637026 -0.00317699 1.72646)
(-0.000637026 -0.00317699 1.72646)
(-0.0016872 -0.00280355 1.66415)
(-0.00214529 -0.00214529 1.53424)
(-0.00190345 -0.00140465 1.3259)
(0.00130174 -0.00130174 1.15563)
(0.00140465 -0.00190345 1.3259)
(0.00109256 -0.00244352 1.44189)
(0.000412967 -0.00276631 1.50046)
(-0.000412968 -0.00276631 1.50046)
(-0.00109256 -0.00244352 1.44189)
(-0.00140465 -0.00190345 1.3259)
(-0.00130174 -0.00130174 1.15563)
(0.000792204 0.000792206 1.15296)
(0.000788355 0.00108156 1.32433)
(0.000581398 0.00132234 1.44146)
(0.000214721 0.00146385 1.50077)
(-0.000214719 0.00146385 1.50077)
(-0.000581397 0.00132234 1.44146)
(-0.000788354 0.00108156 1.32433)
(-0.000792206 0.000792206 1.15296)
(0.00108156 0.000788357 1.32433)
(0.00110842 0.00110842 1.53467)
(0.000833461 0.00139004 1.66657)
(0.000309536 0.00155285 1.73013)
(-0.000309535 0.00155285 1.73013)
(-0.00083346 0.00139004 1.66657)
(-0.00110842 0.00110842 1.53467)
(-0.00108156 0.000788357 1.32433)
(0.00132233 0.000581402 1.44146)
(0.00139004 0.000833465 1.66657)
(0.00105205 0.00105206 1.80409)
(0.000388559 0.00116372 1.86797)
(-0.000388558 0.00116372 1.86797)
(-0.00105205 0.00105206 1.80409)
(-0.00139004 0.000833464 1.66657)
(-0.00132234 0.000581401 1.44146)
(0.00146384 0.000214725 1.50077)
(0.00155285 0.00030954 1.73013)
(0.00116372 0.000388563 1.86797)
(0.000420373 0.000420376 1.92846)
(-0.000420372 0.000420376 1.92846)
(-0.00116372 0.000388562 1.86797)
(-0.00155285 0.00030954 1.73013)
(-0.00146385 0.000214724 1.50077)
(0.00146384 -0.000214715 1.50077)
(0.00155285 -0.000309531 1.73013)
(0.00116372 -0.000388554 1.86797)
(0.000420373 -0.000420369 1.92846)
(-0.000420372 -0.000420369 1.92846)
(-0.00116372 -0.000388555 1.86797)
(-0.00155285 -0.000309531 1.73013)
(-0.00146385 -0.000214716 1.50077)
(0.00132233 -0.000581393 1.44146)
(0.00139004 -0.000833456 1.66657)
(0.00105205 -0.00105205 1.80409)
(0.000388559 -0.00116372 1.86797)
(-0.000388559 -0.00116372 1.86797)
(-0.00105205 -0.00105205 1.80409)
(-0.00139004 -0.000833456 1.66657)
(-0.00132233 -0.000581394 1.44146)
(0.00108156 -0.00078835 1.32433)
(0.00110842 -0.00110841 1.53467)
(0.00083346 -0.00139004 1.66657)
(0.000309535 -0.00155284 1.73013)
(-0.000309535 -0.00155284 1.73013)
(-0.00083346 -0.00139004 1.66657)
(-0.00110842 -0.00110841 1.53467)
(-0.00108156 -0.000788351 1.32433)
(0.000792201 -0.000792201 1.15296)
(0.000788353 -0.00108155 1.32433)
(0.000581397 -0.00132233 1.44146)
(0.00021472 -0.00146384 1.50077)
(-0.00021472 -0.00146384 1.50077)
(-0.000581398 -0.00132233 1.44146)
(-0.000788353 -0.00108156 1.32433)
(-0.000792204 -0.000792203 1.15296)
(0.000340736 0.000340737 1.1521)
(0.000347865 0.000479672 1.32392)
(0.000260863 0.000598211 1.44154)
(9.69833e-05 0.000668247 1.50117)
(-9.69837e-05 0.000668247 1.50117)
(-0.000260864 0.000598212 1.44154)
(-0.000347866 0.000479673 1.32392)
(-0.000340739 0.000340739 1.1521)
(0.000479667 0.000347868 1.32392)
(0.000505477 0.000505482 1.53513)
(0.000384179 0.00064285 1.6679)
(0.000143137 0.000722071 1.732)
(-0.000143138 0.000722071 1.732)
(-0.000384179 0.00064285 1.6679)
(-0.000505479 0.000505482 1.53513)
(-0.000479671 0.000347869 1.32392)
(0.000598205 0.000260867 1.44154)
(0.000642845 0.000384184 1.6679)
(0.000489664 0.000489669 1.80663)
(0.0001812 0.000544341 1.87124)
(-0.0001812 0.000544341 1.87124)
(-0.000489665 0.000489669 1.80663)
(-0.000642846 0.000384184 1.6679)
(-0.000598209 0.000260868 1.44154)
(0.00066824 9.69879e-05 1.50117)
(0.000722066 0.000143142 1.732)
(0.000544337 0.000181205 1.87124)
(0.000196974 0.000196978 1.93251)
(-0.000196975 0.000196978 1.93251)
(-0.000544338 0.000181205 1.87124)
(-0.000722067 0.000143142 1.732)
(-0.000668244 9.69881e-05 1.50117)
(0.000668241 -9.69793e-05 1.50117)
(0.000722066 -0.000143133 1.732)
(0.000544337 -0.000181196 1.87124)
(0.000196974 -0.000196971 1.93251)
(-0.000196975 -0.000196971 1.93251)
(-0.000544337 -0.000181196 1.87124)
(-0.000722067 -0.000143133 1.732)
(-0.000668243 -9.69792e-05 1.50117)
(0.000598205 -0.000260859 1.44154)
(0.000642845 -0.000384175 1.6679)
(0.000489664 -0.00048966 1.80663)
(0.0001812 -0.000544334 1.87124)
(-0.0001812 -0.000544334 1.87124)
(-0.000489664 -0.00048966 1.80663)
(-0.000642845 -0.000384175 1.6679)
(-0.000598207 -0.000260859 1.44154)
(0.000479667 -0.000347861 1.32392)
(0.000505477 -0.000505474 1.53513)
(0.000384179 -0.000642841 1.6679)
(0.000143137 -0.000722063 1.732)
(-0.000143138 -0.000722063 1.732)
(-0.000384179 -0.000642842 1.6679)
(-0.000505478 -0.000505474 1.53513)
(-0.000479668 -0.000347862 1.32392)
(0.000340734 -0.000340733 1.1521)
(0.000347864 -0.000479665 1.32392)
(0.000260863 -0.000598203 1.44154)
(9.69832e-05 -0.000668239 1.50117)
(-9.69839e-05 -0.000668239 1.50117)
(-0.000260864 -0.000598204 1.44154)
(-0.000347865 -0.000479666 1.32392)
(-0.000340736 -0.000340735 1.1521)
(0.000183378 0.00018338 1.15155)
(0.000182636 0.000252986 1.32363)
(0.0001345 0.000310879 1.44151)
(4.95863e-05 0.000344803 1.5013)
(-4.95831e-05 0.000344803 1.5013)
(-0.000134497 0.000310878 1.44151)
(-0.000182634 0.000252983 1.32363)
(-0.000183378 0.000183379 1.15155)
(0.000252981 0.00018264 1.32363)
(0.000258956 0.000258961 1.5353)
(0.000193546 0.000324769 1.66852)
(7.15912e-05 0.000362584 1.73289)
(-7.15883e-05 0.000362583 1.73289)
(-0.000193544 0.000324768 1.66852)
(-0.000258954 0.000258959 1.5353)
(-0.000252982 0.000182638 1.32363)
(0.000310874 0.000134504 1.44151)
(0.000324764 0.000193551 1.66852)
(0.000243696 0.000243701 1.80785)
(8.9618e-05 0.000269587 1.87281)
(-8.96158e-05 0.000269587 1.87281)
(-0.000243694 0.0002437 1.80785)
(-0.000324763 0.00019355 1.66852)
(-0.000310876 0.000134503 1.44151)
(0.000344798 4.95905e-05 1.5013)
(0.000362579 7.1596e-05 1.73289)
(0.000269583 8.96223e-05 1.87281)
(9.70177e-05 9.70215e-05 1.93446)
(-9.70161e-05 9.70213e-05 1.93446)
(-0.000269582 8.96217e-05 1.87281)
(-0.000362579 7.1595e-05 1.73289)
(-0.0003448 4.95895e-05 1.5013)
(0.000344798 -4.9579e-05 1.5013)
(0.000362579 -7.15837e-05 1.73289)
(0.000269583 -8.96117e-05 1.87281)
(9.70175e-05 -9.70124e-05 1.93446)
(-9.70163e-05 -9.70126e-05 1.93446)
(-0.000269582 -8.96122e-05 1.87281)
(-0.000362578 -7.15845e-05 1.73289)
(-0.0003448 -4.95799e-05 1.5013)
(0.000310873 -0.000134493 1.44151)
(0.000324763 -0.000193539 1.66852)
(0.000243696 -0.00024369 1.80785)
(8.96174e-05 -0.000269578 1.87281)
(-8.96164e-05 -0.000269578 1.87281)
(-0.000243695 -0.000243691 1.80785)
(-0.000324763 -0.00019354 1.66852)
(-0.000310876 -0.000134494 1.44151)
(0.000252978 -0.00018263 1.32363)
(0.000258954 -0.000258949 1.5353)
(0.000193545 -0.000324759 1.66852)
(7.15902e-05 -0.000362574 1.73289)
(-7.15893e-05 -0.000362574 1.73289)
(-0.000193544 -0.000324759 1.66852)
(-0.000258954 -0.00025895 1.5353)
(-0.000252981 -0.000182631 1.32363)
(0.000183375 -0.000183374 1.15155)
(0.000182633 -0.000252975 1.32363)
(0.000134499 -0.00031087 1.44151)
(4.9585e-05 -0.000344794 1.5013)
(-4.95844e-05 -0.000344795 1.5013)
(-0.000134498 -0.000310871 1.44151)
(-0.000182634 -0.000252977 1.32363)
(-0.000183376 -0.000183376 1.15155)
(8.67714e-05 8.67731e-05 1.15132)
(8.77096e-05 0.000121325 1.32351)
(6.52146e-05 0.000150478 1.44152)
(2.41384e-05 0.00016761 1.50139)
(-2.41363e-05 0.00016761 1.50139)
(-6.52129e-05 0.000150477 1.44152)
(-8.77086e-05 0.000121323 1.32351)
(-8.6772e-05 8.67729e-05 1.15132)
(0.000121318 8.77135e-05 1.32351)
(0.000126291 0.000126297 1.53541)
(9.51093e-05 0.000159577 1.66884)
(3.52686e-05 0.000178635 1.73335)
(-3.52667e-05 0.000178635 1.73335)
(-9.51078e-05 0.000159576 1.66884)
(-0.00012629 0.000126296 1.53541)
(-0.00012132 8.77131e-05 1.32351)
(0.00015047 6.52192e-05 1.44152)
(0.000159571 9.51147e-05 1.66884)
(0.000120352 0.000120357 1.80847)
(4.43136e-05 0.000133317 1.8736)
(-4.43123e-05 0.000133317 1.8736)
(-0.000120351 0.000120357 1.80847)
(-0.000159571 9.51141e-05 1.66884)
(-0.000150472 6.52188e-05 1.44152)
(0.000167603 2.41429e-05 1.50139)
(0.00017863 3.52738e-05 1.73335)
(0.000133312 4.43184e-05 1.8736)
(4.80031e-05 4.80073e-05 1.93544)
(-4.80021e-05 4.80072e-05 1.93544)
(-0.000133311 4.4318e-05 1.8736)
(-0.00017863 3.52733e-05 1.73335)
(-0.000167604 2.41425e-05 1.50139)
(0.000167602 -2.41322e-05 1.50139)
(0.00017863 -3.5262e-05 1.73335)
(0.000133312 -4.4308e-05 1.8736)
(4.8003e-05 -4.79983e-05 1.93544)
(-4.80023e-05 -4.79984e-05 1.93544)
(-0.000133311 -4.43083e-05 1.8736)
(-0.000178629 -3.52624e-05 1.73335)
(-0.000167603 -2.41326e-05 1.50139)
(0.00015047 -6.52092e-05 1.44152)
(0.000159571 -9.51036e-05 1.66884)
(0.000120352 -0.000120347 1.80847)
(4.43134e-05 -0.000133307 1.8736)
(-4.43127e-05 -0.000133308 1.8736)
(-0.000120351 -0.000120347 1.80847)
(-0.00015957 -9.5104e-05 1.66884)
(-0.00015047 -6.52096e-05 1.44152)
(0.000121317 -8.77044e-05 1.32351)
(0.000126291 -0.000126286 1.53541)
(9.51089e-05 -0.000159567 1.66884)
(3.5268e-05 -0.000178626 1.73335)
(-3.52675e-05 -0.000178626 1.73335)
(-9.51084e-05 -0.000159567 1.66884)
(-0.00012629 -0.000126287 1.53541)
(-0.000121318 -8.7705e-05 1.32351)
(8.67687e-05 -8.67673e-05 1.15132)
(8.7708e-05 -0.000121315 1.32351)
(6.5214e-05 -0.000150467 1.44152)
(2.41376e-05 -0.0001676 1.50139)
(-2.41373e-05 -0.0001676 1.50139)
(-6.52138e-05 -0.000150468 1.44152)
(-8.77079e-05 -0.000121316 1.32351)
(-8.67693e-05 -8.67684e-05 1.15132)
(4.52184e-05 4.52202e-05 1.15119)
(4.53638e-05 6.27491e-05 1.32345)
(3.35604e-05 7.74232e-05 1.44152)
(1.23978e-05 8.60288e-05 1.50143)
(-1.23924e-05 8.60277e-05 1.50143)
(-3.35555e-05 7.74201e-05 1.44152)
(-4.53593e-05 6.2744e-05 1.32345)
(-4.52159e-05 4.52171e-05 1.15119)
(6.2743e-05 4.53674e-05 1.32345)
(6.47565e-05 6.47617e-05 1.53546)
(4.85781e-05 8.14851e-05 1.669)
(1.79894e-05 9.10623e-05 1.73357)
(-1.79846e-05 9.10616e-05 1.73357)
(-4.85739e-05 8.14832e-05 1.669)
(-6.47532e-05 6.47586e-05 1.53546)
(-6.27424e-05 4.53644e-05 1.32345)
(7.74166e-05 3.35646e-05 1.44152)
(8.148e-05 4.8583e-05 1.669)
(6.12729e-05 6.12774e-05 1.80878)
(2.25359e-05 6.77831e-05 1.874)
(-2.25325e-05 6.77827e-05 1.874)
(-6.12698e-05 6.12762e-05 1.80878)
(-8.14778e-05 4.8581e-05 1.669)
(-7.74172e-05 3.35624e-05 1.44152)
(8.60223e-05 1.24018e-05 1.50143)
(9.10574e-05 1.79941e-05 1.73357)
(6.77789e-05 2.25401e-05 1.874)
(2.43789e-05 2.43827e-05 1.93593)
(-2.43764e-05 2.43824e-05 1.93593)
(-6.77767e-05 2.25392e-05 1.874)
(-9.10559e-05 1.79925e-05 1.73357)
(-8.60236e-05 1.24e-05 1.50143)
(8.60217e-05 -1.23885e-05 1.50143)
(9.1057e-05 -1.79802e-05 1.73357)
(6.77786e-05 -2.25284e-05 1.874)
(2.43786e-05 -2.43729e-05 1.93593)
(-2.43767e-05 -2.43731e-05 1.93593)
(-6.77769e-05 -2.25292e-05 1.874)
(-9.1056e-05 -1.79816e-05 1.73357)
(-8.60236e-05 -1.23901e-05 1.50143)
(7.74146e-05 -3.3552e-05 1.44152)
(8.14786e-05 -4.85698e-05 1.669)
(6.12719e-05 -6.12659e-05 1.80878)
(2.2535e-05 -6.7773e-05 1.874)
(-2.25333e-05 -6.77733e-05 1.874)
(-6.12705e-05 -6.12666e-05 1.80878)
(-8.14779e-05 -4.85708e-05 1.669)
(-7.74168e-05 -3.35533e-05 1.44152)
(6.27388e-05 -4.53551e-05 1.32345)
(6.47538e-05 -6.47485e-05 1.53546)
(4.85763e-05 -8.14735e-05 1.669)
(1.79877e-05 -9.10519e-05 1.73357)
(-1.79863e-05 -9.10521e-05 1.73357)
(-4.85752e-05 -8.14741e-05 1.669)
(-6.47533e-05 -6.47496e-05 1.53546)
(-6.27412e-05 -4.53567e-05 1.32345)
(4.52126e-05 -4.52114e-05 1.15119)
(4.53596e-05 -6.27356e-05 1.32345)
(3.35581e-05 -7.74109e-05 1.44152)
(1.23955e-05 -8.60178e-05 1.50143)
(-1.23945e-05 -8.60181e-05 1.50143)
(-3.35572e-05 -7.7412e-05 1.44152)
(-4.53594e-05 -6.27377e-05 1.32345)
(-4.52143e-05 -4.52138e-05 1.15119)
(2.23424e-05 2.23435e-05 1.15113)
(2.25628e-05 3.11684e-05 1.32341)
(1.67718e-05 3.86076e-05 1.44152)
(6.2093e-06 4.29817e-05 1.50145)
(-6.20805e-06 4.29817e-05 1.50145)
(-1.67708e-05 3.86074e-05 1.44152)
(-2.25625e-05 3.11682e-05 1.32341)
(-2.23432e-05 2.23444e-05 1.15113)
(3.11636e-05 2.25661e-05 1.32341)
(3.24204e-05 3.2425e-05 1.53548)
(2.4431e-05 4.09523e-05 1.66908)
(9.06462e-06 4.58422e-05 1.73369)
(-9.06344e-06 4.58422e-05 1.73369)
(-2.44301e-05 4.09523e-05 1.66908)
(-3.24203e-05 3.2425e-05 1.53548)
(-3.11655e-05 2.25667e-05 1.32341)
(3.86018e-05 1.6776e-05 1.44152)
(4.09479e-05 2.44357e-05 1.66908)
(3.09183e-05 3.09226e-05 1.80894)
(1.13903e-05 3.42535e-05 1.8742)
(-1.13894e-05 3.42535e-05 1.8742)
(-3.09175e-05 3.09225e-05 1.80894)
(-4.09478e-05 2.44357e-05 1.66908)
(-3.86033e-05 1.67762e-05 1.44152)
(4.29756e-05 6.21366e-06 1.50145)
(4.58378e-05 9.06939e-06 1.73369)
(3.42495e-05 1.13946e-05 1.8742)
(1.23361e-05 1.23399e-05 1.93618)
(-1.23353e-05 1.23398e-05 1.93618)
(-3.42488e-05 1.13945e-05 1.8742)
(-4.58375e-05 9.06925e-06 1.73369)
(-4.29767e-05 6.21361e-06 1.50145)
(4.29756e-05 -6.20392e-06 1.50145)
(4.58378e-05 -9.05893e-06 1.73369)
(3.42495e-05 -1.13853e-05 1.8742)
(1.23361e-05 -1.23317e-05 1.93618)
(-1.23353e-05 -1.23317e-05 1.93618)
(-3.42489e-05 -1.13855e-05 1.8742)
(-4.58374e-05 -9.0592e-06 1.73369)
(-4.29764e-05 -6.20418e-06 1.50145)
(3.86017e-05 -1.6767e-05 1.44152)
(4.09479e-05 -2.44259e-05 1.66908)
(3.09183e-05 -3.09137e-05 1.80894)
(1.13903e-05 -3.42453e-05 1.8742)
(-1.13896e-05 -3.42453e-05 1.8742)
(-3.09177e-05 -3.09139e-05 1.80894)
(-4.09474e-05 -2.44263e-05 1.66908)
(-3.86021e-05 -1.67675e-05 1.44152)
(3.11628e-05 -2.25582e-05 1.32341)
(3.24202e-05 -3.24159e-05 1.53548)
(2.4431e-05 -4.09438e-05 1.66908)
(9.0644e-06 -4.5834e-05 1.73369)
(-9.06387e-06 -4.58342e-05 1.73369)
(-2.44305e-05 -4.09443e-05 1.66908)
(-3.24198e-05 -3.24166e-05 1.53548)
(-3.1163e-05 -2.25591e-05 1.32341)
(2.23403e-05 -2.23385e-05 1.15113)
(2.2562e-05 -3.11598e-05 1.32341)
(1.67717e-05 -3.85988e-05 1.44152)
(6.209e-06 -4.29731e-05 1.50145)
(-6.20863e-06 -4.29734e-05 1.50145)
(-1.67714e-05 -3.85998e-05 1.44152)
(-2.25619e-05 -3.11614e-05 1.32341)
(-2.23408e-05 -2.23399e-05 1.15113)
(1.14914e-05 1.14926e-05 1.1511)
(1.15734e-05 1.59845e-05 1.3234)
(8.58743e-06 1.97579e-05 1.44152)
(3.17831e-06 2.19758e-05 1.50146)
(-3.17431e-06 2.19755e-05 1.50146)
(-8.5839e-06 1.97569e-05 1.44152)
(-1.15708e-05 1.5983e-05 1.3234)
(-1.1491e-05 1.14928e-05 1.1511)
(1.59813e-05 1.15759e-05 1.3234)
(1.65721e-05 1.65755e-05 1.5355)
(1.24732e-05 2.09013e-05 1.66912)
(4.62765e-06 2.33846e-05 1.73375)
(-4.62388e-06 2.33844e-05 1.73375)
(-1.247e-05 2.09007e-05 1.66912)
(-1.65701e-05 1.65744e-05 1.5355)
(-1.59827e-05 1.15755e-05 1.3234)
(1.97545e-05 8.59049e-06 1.44152)
(2.08982e-05 1.24767e-05 1.66912)
(1.57702e-05 1.57733e-05 1.80902)
(5.81056e-06 1.74688e-05 1.8743)
(-5.80731e-06 1.74686e-05 1.8743)
(-1.57674e-05 1.57729e-05 1.80902)
(-2.08965e-05 1.2476e-05 1.66912)
(-1.97563e-05 8.58988e-06 1.44152)
(2.19724e-05 3.18152e-06 1.50146)
(2.33817e-05 4.63124e-06 1.73375)
(1.74659e-05 5.81374e-06 1.8743)
(6.2922e-06 6.29498e-06 1.9363)
(-6.28937e-06 6.29485e-06 1.9363)
(-1.74634e-05 5.81333e-06 1.8743)
(-2.33802e-05 4.63057e-06 1.73375)
(-2.19746e-05 3.18083e-06 1.50146)
(2.19722e-05 -3.17103e-06 1.50146)
(2.33815e-05 -4.6202e-06 1.73375)
(1.74658e-05 -5.80405e-06 1.8743)
(6.29209e-06 -6.28649e-06 1.9363)
(-6.28951e-06 -6.28662e-06 1.9363)
(-1.74636e-05 -5.80444e-06 1.8743)
(-2.33803e-05 -4.62087e-06 1.73375)
(-2.19746e-05 -3.17185e-06 1.50146)
(1.97539e-05 -8.5807e-06 1.44152)
(2.08977e-05 -1.24663e-05 1.66912)
(1.57698e-05 -1.57639e-05 1.80902)
(5.81019e-06 -1.74602e-05 1.8743)
(-5.80775e-06 -1.74604e-05 1.8743)
(-1.57677e-05 -1.57643e-05 1.80902)
(-2.08966e-05 -1.24669e-05 1.66912)
(-1.97562e-05 -8.58155e-06 1.44152)
(1.59799e-05 -1.15671e-05 1.3234)
(1.65712e-05 -1.65657e-05 1.5355)
(1.24726e-05 -2.08924e-05 1.66912)
(4.6269e-06 -2.33764e-05 1.73375)
(-4.6247e-06 -2.33766e-05 1.73375)
(-1.24707e-05 -2.0893e-05 1.66912)
(-1.65701e-05 -1.65666e-05 1.5355)
(-1.5982e-05 -1.15685e-05 1.3234)
(1.14893e-05 -1.14871e-05 1.1511)
(1.15719e-05 -1.59761e-05 1.3234)
(8.58659e-06 -1.975e-05 1.44152)
(3.17733e-06 -2.19685e-05 1.50146)
(-3.17539e-06 -2.19688e-05 1.50146)
(-8.58489e-06 -1.97511e-05 1.44152)
(-1.1571e-05 -1.59782e-05 1.3234)
(-1.14902e-05 -1.14897e-05 1.1511)
(5.80295e-06 5.80354e-06 1.15108)
(5.85641e-06 8.08844e-06 1.32339)
(4.35136e-06 1.00116e-05 1.44152)
(1.61141e-06 1.11433e-05 1.50146)
(-1.61004e-06 1.11438e-05 1.50146)
(-4.35026e-06 1.00129e-05 1.44152)
(-5.85627e-06 8.0906e-06 1.32339)
(-5.80412e-06 5.80646e-06 1.15108)
(8.08557e-06 5.8585e-06 1.32339)
(8.40519e-06 8.408e-06 1.5355)
(6.3348e-06 1.06158e-05 1.66915)
(2.35163e-06 1.18839e-05 1.73378)
(-2.34989e-06 1.18842e-05 1.73378)
(-6.3334e-06 1.06167e-05 1.66915)
(-8.40479e-06 8.40956e-06 1.5355)
(-8.08782e-06 5.86092e-06 1.32339)
(1.00081e-05 4.35425e-06 1.44152)
(1.0613e-05 6.33797e-06 1.66915)
(8.0186e-06 8.02146e-06 1.80906)
(2.95623e-06 8.88814e-06 1.87436)
(-2.95402e-06 8.88833e-06 1.87436)
(-8.01673e-06 8.02206e-06 1.80906)
(-1.0612e-05 6.33901e-06 1.66915)
(-1.00095e-05 4.35566e-06 1.44152)
(1.11396e-05 1.61455e-06 1.50146)
(1.18812e-05 2.35499e-06 1.73378)
(8.88549e-06 2.95918e-06 1.87436)
(3.20293e-06 3.20551e-06 1.93637)
(-3.2004e-06 3.20562e-06 1.93637)
(-8.88328e-06 2.95953e-06 1.87436)
(-1.18797e-05 2.35567e-06 1.73378)
(-1.11401e-05 1.6155e-06 1.50146)
(1.114e-05 -1.60693e-06 1.50146)
(1.18815e-05 -2.34657e-06 1.73378)
(8.88569e-06 -2.9511e-06 1.87436)
(3.20305e-06 -3.19783e-06 1.93637)
(-3.20037e-06 -3.1978e-06 1.93637)
(-8.88328e-06 -2.95096e-06 1.87436)
(-1.18796e-05 -2.34626e-06 1.73378)
(-1.11398e-05 -1.60648e-06 1.50146)
(1.00093e-05 -4.34731e-06 1.44152)
(1.06138e-05 -6.33017e-06 1.66915)
(8.01919e-06 -8.01381e-06 1.80906)
(2.9566e-06 -8.88062e-06 1.87436)
(-2.95389e-06 -8.88065e-06 1.87436)
(-8.01671e-06 -8.01391e-06 1.80906)
(-1.06117e-05 -6.33025e-06 1.66915)