/*--------------------------------*- C++ -*----------------------------------*\
| =========                 |                                                 |
| \\      /  F ield         | OpenFOAM: The Open Source CFD Toolbox           |
|  \\    /   O peration     | Version:  2406                                  |
|   \\  /    A nd           | Website:  www.openfoam.com                      |
|    \\/     M anipulation  |                                                 |
\*---------------------------------------------------------------------------*/
FoamFile
{
    version     2.0;
    format      ascii;
    arch        "LSB;label=32;scalar=64";
    class       volVectorField;
    location    "6.8";
    object      U;
}
// * * * * * * * * * * * * * * * * * * * * * * * * * * * * * * * * * * * * * //

dimensions      [0 1 -1 0 0 0 0];

internalField   nonuniform List<vector> 
16000
(
(0.153132 0.153132 1.11474)
(0.117573 0.168169 1.1542)
(0.072459 0.17688 1.17285)
(0.0244946 0.180953 1.18018)
(-0.0244946 0.180953 1.18018)
(-0.072459 0.17688 1.17285)
(-0.117573 0.168169 1.1542)
(-0.153132 0.153132 1.11474)
(0.168169 0.117573 1.1542)
(0.126109 0.126109 1.18728)
(0.0766337 0.131081 1.19757)
(0.0257137 0.133402 1.19978)
(-0.0257137 0.133402 1.19978)
(-0.0766337 0.131081 1.19757)
(-0.126109 0.126109 1.18728)
(-0.168169 0.117573 1.1542)
(0.17688 0.072459 1.17285)
(0.131081 0.0766337 1.19757)
(0.0792027 0.0792027 1.20176)
(0.0264749 0.0803911 1.20065)
(-0.0264749 0.0803911 1.20065)
(-0.0792027 0.0792027 1.20176)
(-0.131081 0.0766337 1.19757)
(-0.17688 0.072459 1.17285)
(0.180953 0.0244946 1.18018)
(0.133402 0.0257137 1.19978)
(0.0803911 0.0264749 1.20065)
(0.0268183 0.0268183 1.1979)
(-0.0268183 0.0268183 1.1979)
(-0.0803911 0.0264749 1.20065)
(-0.133402 0.0257137 1.19978)
(-0.180953 0.0244946 1.18018)
(0.180953 -0.0244946 1.18018)
(0.133402 -0.0257137 1.19978)
(0.0803911 -0.0264749 1.20065)
(0.0268183 -0.0268183 1.1979)
(-0.0268183 -0.0268183 1.1979)
(-0.0803911 -0.0264749 1.20065)
(-0.133402 -0.0257137 1.19978)
(-0.180953 -0.0244946 1.18018)
(0.17688 -0.072459 1.17285)
(0.131081 -0.0766337 1.19757)
(0.0792027 -0.0792027 1.20176)
(0.0264749 -0.0803911 1.20065)
(-0.0264749 -0.0803911 1.20065)
(-0.0792027 -0.0792027 1.20176)
(-0.131081 -0.0766337 1.19757)
(-0.17688 -0.072459 1.17285)
(0.168169 -0.117573 1.1542)
(0.126109 -0.126109 1.18728)
(0.0766337 -0.131081 1.19757)
(0.0257137 -0.133402 1.19978)
(-0.0257137 -0.133402 1.19978)
(-0.0766337 -0.131081 1.19757)
(-0.126109 -0.126109 1.18728)
(-0.168169 -0.117573 1.1542)
(0.153132 -0.153132 1.11474)
(0.117573 -0.168169 1.1542)
(0.072459 -0.17688 1.17285)
(0.0244946 -0.180953 1.18018)
(-0.0244946 -0.180953 1.18018)
(-0.072459 -0.17688 1.17285)
(-0.117573 -0.168169 1.1542)
(-0.153132 -0.153132 1.11474)
(0.0494154 0.0494154 1.29062)
(0.0414003 0.0615755 1.3895)
(0.0279271 0.0703803 1.44408)
(0.00984083 0.075171 1.46809)
(-0.00984083 0.075171 1.46809)
(-0.0279271 0.0703803 1.44408)
(-0.0414003 0.0615755 1.3895)
(-0.0494154 0.0494154 1.29062)
(0.0615755 0.0414003 1.3895)
(0.0531611 0.0531611 1.48728)
(0.0357288 0.0616406 1.53241)
(0.0125458 0.0660227 1.54992)
(-0.0125458 0.0660227 1.54992)
(-0.0357288 0.0616406 1.53241)
(-0.0531611 0.0531611 1.48728)
(-0.0615755 0.0414003 1.3895)
(0.0703803 0.0279271 1.44408)
(0.0616406 0.0357288 1.53241)
(0.0413007 0.0413007 1.57006)
(0.0144349 0.0441146 1.5832)
(-0.0144349 0.0441146 1.5832)
(-0.0413007 0.0413007 1.57006)
(-0.0616406 0.0357288 1.53241)
(-0.0703803 0.0279271 1.44408)
(0.075171 0.00984083 1.46809)
(0.0660227 0.0125458 1.54992)
(0.0441146 0.0144349 1.5832)
(0.0153734 0.0153734 1.59386)
(-0.0153734 0.0153734 1.59386)
(-0.0441146 0.0144349 1.5832)
(-0.0660227 0.0125458 1.54992)
(-0.0751711 0.00984083 1.46809)
(0.075171 -0.00984083 1.46809)
(0.0660227 -0.0125458 1.54992)
(0.0441146 -0.0144349 1.5832)
(0.0153734 -0.0153734 1.59386)
(-0.0153734 -0.0153734 1.59386)
(-0.0441146 -0.0144349 1.5832)
(-0.0660227 -0.0125458 1.54992)
(-0.0751711 -0.00984083 1.46809)
(0.0703803 -0.027927 1.44408)
(0.0616406 -0.0357288 1.53241)
(0.0413007 -0.0413007 1.57006)
(0.0144349 -0.0441146 1.5832)
(-0.0144349 -0.0441146 1.5832)
(-0.0413007 -0.0413007 1.57006)
(-0.0616406 -0.0357288 1.53241)
(-0.0703803 -0.027927 1.44408)
(0.0615755 -0.0414003 1.3895)
(0.0531611 -0.0531611 1.48728)
(0.0357288 -0.0616406 1.53241)
(0.0125458 -0.0660227 1.54992)
(-0.0125458 -0.0660227 1.54992)
(-0.0357288 -0.0616406 1.53241)
(-0.0531611 -0.0531611 1.48728)
(-0.0615755 -0.0414003 1.3895)
(0.0494154 -0.0494154 1.29062)
(0.0414003 -0.0615755 1.3895)
(0.027927 -0.0703803 1.44408)
(0.00984083 -0.075171 1.46809)
(-0.00984083 -0.075171 1.46809)
(-0.0279271 -0.0703803 1.44408)
(-0.0414003 -0.0615755 1.3895)
(-0.0494154 -0.0494154 1.29062)
(0.0295334 0.0295334 1.18369)
(0.0263057 0.0381217 1.33605)
(0.0179588 0.0440247 1.43119)
(0.00638113 0.0472238 1.47636)
(-0.00638113 0.0472238 1.47636)
(-0.0179588 0.0440247 1.43119)
(-0.0263057 0.0381217 1.33605)
(-0.0295334 0.0295334 1.18369)
(0.0381217 0.0263057 1.33605)
(0.03387 0.03387 1.50686)
(0.0231033 0.0393329 1.60045)
(0.00819889 0.0422271 1.64149)
(-0.00819889 0.042227 1.64149)
(-0.0231033 0.0393329 1.60045)
(-0.03387 0.03387 1.50686)
(-0.0381217 0.0263057 1.33605)
(0.0440247 0.0179588 1.43119)
(0.0393329 0.0231033 1.60045)
(0.0268026 0.0268026 1.68906)
(0.00948465 0.028713 1.72654)
(-0.00948465 0.028713 1.72654)
(-0.0268026 0.0268026 1.68906)
(-0.0393329 0.0231033 1.60045)
(-0.0440247 0.0179588 1.43119)
(0.0472238 0.00638113 1.47636)
(0.042227 0.00819889 1.64149)
(0.028713 0.00948465 1.72654)
(0.0101528 0.0101528 1.76219)
(-0.0101528 0.0101528 1.76219)
(-0.028713 0.00948465 1.72654)
(-0.042227 0.00819889 1.64149)
(-0.0472238 0.00638113 1.47636)
(0.0472238 -0.00638113 1.47636)
(0.042227 -0.00819889 1.64149)
(0.028713 -0.00948464 1.72654)
(0.0101528 -0.0101528 1.76219)
(-0.0101528 -0.0101528 1.76219)
(-0.028713 -0.00948464 1.72654)
(-0.042227 -0.00819889 1.64149)
(-0.0472238 -0.00638113 1.47636)
(0.0440247 -0.0179588 1.43119)
(0.0393329 -0.0231033 1.60045)
(0.0268026 -0.0268026 1.68906)
(0.00948465 -0.028713 1.72654)
(-0.00948465 -0.028713 1.72654)
(-0.0268026 -0.0268026 1.68906)
(-0.0393329 -0.0231033 1.60045)
(-0.0440247 -0.0179588 1.43119)
(0.0381217 -0.0263057 1.33605)
(0.03387 -0.03387 1.50686)
(0.0231033 -0.0393329 1.60045)
(0.00819889 -0.042227 1.64149)
(-0.00819889 -0.042227 1.64149)
(-0.0231033 -0.0393329 1.60045)
(-0.03387 -0.03387 1.50686)
(-0.0381217 -0.0263057 1.33605)
(0.0295334 -0.0295334 1.18369)
(0.0263057 -0.0381217 1.33605)
(0.0179588 -0.0440247 1.43119)
(0.00638113 -0.0472238 1.47636)
(-0.00638113 -0.0472238 1.47636)
(-0.0179588 -0.0440247 1.43119)
(-0.0263057 -0.0381217 1.33605)
(-0.0295334 -0.0295334 1.18369)
(0.00607788 0.00607788 1.17735)
(0.00678721 0.00932593 1.34012)
(0.00531535 0.0121436 1.44756)
(0.00200434 0.0137879 1.50053)
(-0.00200434 0.0137879 1.50053)
(-0.00531535 0.0121436 1.44756)
(-0.00678721 0.00932593 1.34012)
(-0.00607788 0.00607788 1.17735)
(0.00932593 0.00678721 1.34012)
(0.010642 0.010642 1.53329)
(0.0082524 0.0137676 1.64786)
(0.00308277 0.0154575 1.70082)
(-0.00308277 0.0154575 1.70082)
(-0.0082524 0.0137676 1.64786)
(-0.010642 0.010642 1.53329)
(-0.00932593 0.00678721 1.34012)
(0.0121436 0.00531536 1.44756)
(0.0137676 0.0082524 1.64786)
(0.0104758 0.0104758 1.76219)
(0.00386311 0.0115575 1.81303)
(-0.00386311 0.0115575 1.81303)
(-0.0104758 0.0104758 1.76219)
(-0.0137676 0.0082524 1.64786)
(-0.0121436 0.00531536 1.44756)
(0.0137879 0.00200435 1.50053)
(0.0154575 0.00308277 1.70082)
(0.0115575 0.00386311 1.81303)
(0.00421153 0.00421154 1.8613)
(-0.00421153 0.00421154 1.8613)
(-0.0115575 0.00386311 1.81303)
(-0.0154575 0.00308277 1.70082)
(-0.0137879 0.00200435 1.50053)
(0.0137879 -0.00200434 1.50053)
(0.0154575 -0.00308276 1.70082)
(0.0115575 -0.0038631 1.81303)
(0.00421153 -0.00421153 1.8613)
(-0.00421153 -0.00421153 1.8613)
(-0.0115575 -0.0038631 1.81303)
(-0.0154575 -0.00308276 1.70082)
(-0.0137879 -0.00200434 1.50053)
(0.0121436 -0.00531535 1.44756)
(0.0137676 -0.00825239 1.64786)
(0.0104758 -0.0104758 1.76219)
(0.00386311 -0.0115575 1.81303)
(-0.00386311 -0.0115575 1.81303)
(-0.0104758 -0.0104758 1.76219)
(-0.0137676 -0.00825239 1.64786)
(-0.0121436 -0.00531535 1.44756)
(0.00932593 -0.00678721 1.34012)
(0.0106419 -0.0106419 1.53329)
(0.0082524 -0.0137676 1.64786)
(0.00308277 -0.0154575 1.70082)
(-0.00308277 -0.0154575 1.70082)
(-0.0082524 -0.0137676 1.64786)
(-0.010642 -0.0106419 1.53329)
(-0.00932593 -0.00678721 1.34012)
(0.00607788 -0.00607788 1.17735)
(0.00678721 -0.00932593 1.34012)
(0.00531535 -0.0121436 1.44756)
(0.00200434 -0.0137879 1.50053)
(-0.00200434 -0.0137879 1.50053)
(-0.00531535 -0.0121436 1.44756)
(-0.00678721 -0.00932593 1.34012)
(-0.00607788 -0.00607788 1.17735)
(0.00420929 0.00420929 1.15879)
(0.00417758 0.00573707 1.32761)
(0.00305281 0.00697193 1.44156)
(0.00112169 0.00767951 1.4987)
(-0.00112169 0.00767951 1.4987)
(-0.00305281 0.00697193 1.44156)
(-0.00417758 0.00573707 1.32761)
(-0.00420929 0.00420929 1.15879)
(0.00573707 0.00417758 1.32761)
(0.0058271 0.00582711 1.53244)
(0.00432306 0.00720708 1.65824)
(0.00159285 0.00796351 1.71788)
(-0.00159285 0.00796351 1.71788)
(-0.00432306 0.00720708 1.65824)
(-0.0058271 0.0058271 1.53244)
(-0.00573707 0.00417758 1.32761)
(0.00697193 0.00305281 1.44156)
(0.00720707 0.00432306 1.65824)
(0.00533722 0.00533723 1.7871)
(0.00194952 0.00580511 1.84585)
(-0.00194952 0.00580511 1.84585)
(-0.00533722 0.00533722 1.7871)
(-0.00720708 0.00432306 1.65824)
(-0.00697194 0.00305281 1.44156)
(0.00767951 0.00112169 1.4987)
(0.00796351 0.00159285 1.71788)
(0.00580511 0.00194952 1.84585)
(0.00208328 0.00208329 1.90127)
(-0.00208328 0.00208328 1.90127)
(-0.00580511 0.00194952 1.84585)
(-0.00796351 0.00159285 1.71788)
(-0.00767951 0.00112169 1.4987)
(0.00767951 -0.00112169 1.4987)
(0.00796351 -0.00159285 1.71788)
(0.00580511 -0.00194951 1.84585)
(0.00208328 -0.00208328 1.90127)
(-0.00208328 -0.00208328 1.90127)
(-0.00580511 -0.00194951 1.84585)
(-0.00796351 -0.00159285 1.71788)
(-0.00767951 -0.00112169 1.4987)
(0.00697193 -0.00305281 1.44156)
(0.00720707 -0.00432305 1.65824)
(0.00533722 -0.00533722 1.7871)
(0.00194952 -0.0058051 1.84585)
(-0.00194952 -0.0058051 1.84585)
(-0.00533722 -0.00533722 1.7871)
(-0.00720707 -0.00432305 1.65824)
(-0.00697193 -0.00305281 1.44156)
(0.00573707 -0.00417758 1.32761)
(0.0058271 -0.0058271 1.53244)
(0.00432306 -0.00720707 1.65824)
(0.00159285 -0.0079635 1.71788)
(-0.00159285 -0.0079635 1.71788)
(-0.00432306 -0.00720707 1.65824)
(-0.0058271 -0.0058271 1.53244)
(-0.00573707 -0.00417758 1.32761)
(0.00420928 -0.00420928 1.15879)
(0.00417758 -0.00573707 1.32761)
(0.00305281 -0.00697193 1.44156)
(0.00112169 -0.00767951 1.4987)
(-0.00112169 -0.00767951 1.4987)
(-0.00305281 -0.00697193 1.44156)
(-0.00417758 -0.00573707 1.32761)
(-0.00420929 -0.00420929 1.15879)
(0.00130174 0.00130174 1.15563)
(0.00140465 0.00190345 1.3259)
(0.00109256 0.00244352 1.44189)
(0.000412967 0.00276631 1.50046)
(-0.000412967 0.00276631 1.50046)
(-0.00109256 0.00244352 1.44189)
(-0.00140465 0.00190345 1.3259)
(-0.00130174 0.00130174 1.15563)
(0.00190345 0.00140465 1.3259)
(0.00214529 0.0021453 1.53424)
(0.0016872 0.00280356 1.66415)
(0.000637026 0.00317699 1.72646)
(-0.000637026 0.00317699 1.72646)
(-0.0016872 0.00280356 1.66415)
(-0.0021453 0.0021453 1.53424)
(-0.00190345 0.00140465 1.3259)
(0.00244352 0.00109257 1.44189)
(0.00280356 0.0016872 1.66415)
(0.00219038 0.00219038 1.7989)
(0.000816972 0.0024356 1.86114)
(-0.000816972 0.0024356 1.86114)
(-0.00219038 0.00219038 1.7989)
(-0.00280356 0.0016872 1.66415)
(-0.00244352 0.00109257 1.44189)
(0.00276631 0.00041297 1.50046)
(0.00317699 0.000637029 1.72646)
(0.0024356 0.000816975 1.86114)
(0.000886492 0.000886495 1.91993)
(-0.000886493 0.000886495 1.91993)
(-0.0024356 0.000816975 1.86114)
(-0.00317699 0.000637029 1.72646)
(-0.00276631 0.00041297 1.50046)
(0.00276631 -0.000412964 1.50046)
(0.00317699 -0.000637022 1.72646)
(0.0024356 -0.000816969 1.86114)
(0.000886492 -0.00088649 1.91993)
(-0.000886493 -0.00088649 1.91993)
(-0.0024356 -0.000816969 1.86114)
(-0.00317699 -0.000637022 1.72646)
(-0.00276631 -0.000412964 1.50046)
(0.00244352 -0.00109256 1.44189)
(0.00280356 -0.00168719 1.66415)
(0.00219038 -0.00219038 1.7989)
(0.000816972 -0.00243559 1.86114)
(-0.000816972 -0.00243559 1.86114)
(-0.00219038 -0.00219038 1.7989)
(-0.00280356 -0.00168719 1.66415)
(-0.00244352 -0.00109256 1.44189)
(0.00190345 -0.00140464 1.3259)
(0.00214529 -0.00214529 1.53424)
(0.0016872 -0.00280355 1.66415)
(0.000637026 -0.00317699 1.72646)
(-0.000637026 -0.00317699 1.72646)
(-0.0016872 -0.00280355 1.66415)
(-0.00214529 -0.00214529 1.53424)
(-0.00190345 -0.00140465 1.3259)
(0.00130174 -0.00130174 1.15563)
(0.00140465 -0.00190345 1.3259)
(0.00109256 -0.00244352 1.44189)
(0.000412967 -0.00276631 1.50046)
(-0.000412968 -0.00276631 1.50046)
(-0.00109256 -0.00244352 1.44189)
(-0.00140465 -0.00190345 1.3259)
(-0.00130174 -0.00130174 1.15563)
(0.000792205 0.000792206 1.15296)
(0.000788355 0.00108156 1.32433)
(0.000581398 0.00132234 1.44146)
(0.000214721 0.00146385 1.50077)
(-0.00021472 0.00146385 1.50077)
(-0.000581397 0.00132234 1.44146)
(-0.000788354 0.00108156 1.32433)
(-0.000792206 0.000792206 1.15296)
(0.00108156 0.000788358 1.32433)
(0.00110842 0.00110842 1.53467)
(0.000833461 0.00139004 1.66657)
(0.000309536 0.00155285 1.73013)
(-0.000309535 0.00155285 1.73013)
(-0.00083346 0.00139004 1.66657)
(-0.00110842 0.00110842 1.53467)
(-0.00108156 0.000788357 1.32433)
(0.00132233 0.000581402 1.44146)
(0.00139004 0.000833465 1.66657)
(0.00105205 0.00105206 1.80409)
(0.000388559 0.00116372 1.86797)
(-0.000388558 0.00116372 1.86797)
(-0.00105205 0.00105206 1.80409)
(-0.00139004 0.000833464 1.66657)
(-0.00132234 0.000581401 1.44146)
(0.00146385 0.000214725 1.50077)
(0.00155285 0.00030954 1.73013)
(0.00116372 0.000388563 1.86797)
(0.000420373 0.000420376 1.92846)
(-0.000420372 0.000420376 1.92846)
(-0.00116372 0.000388563 1.86797)
(-0.00155285 0.00030954 1.73013)
(-0.00146385 0.000214724 1.50077)
(0.00146384 -0.000214716 1.50077)
(0.00155285 -0.000309531 1.73013)
(0.00116372 -0.000388554 1.86797)
(0.000420373 -0.000420369 1.92846)
(-0.000420373 -0.000420369 1.92846)
(-0.00116372 -0.000388555 1.86797)
(-0.00155285 -0.000309531 1.73013)
(-0.00146385 -0.000214716 1.50077)
(0.00132233 -0.000581393 1.44146)
(0.00139004 -0.000833456 1.66657)
(0.00105205 -0.00105205 1.80409)
(0.000388559 -0.00116372 1.86797)
(-0.000388559 -0.00116372 1.86797)
(-0.00105205 -0.00105205 1.80409)
(-0.00139004 -0.000833456 1.66657)
(-0.00132234 -0.000581394 1.44146)
(0.00108156 -0.00078835 1.32433)
(0.00110842 -0.00110841 1.53467)
(0.00083346 -0.00139004 1.66657)
(0.000309535 -0.00155284 1.73013)
(-0.000309536 -0.00155284 1.73013)
(-0.000833461 -0.00139004 1.66657)
(-0.00110842 -0.00110841 1.53467)
(-0.00108156 -0.000788351 1.32433)
(0.000792202 -0.000792201 1.15296)
(0.000788353 -0.00108155 1.32433)
(0.000581397 -0.00132233 1.44146)
(0.00021472 -0.00146384 1.50077)
(-0.00021472 -0.00146384 1.50077)
(-0.000581398 -0.00132233 1.44146)
(-0.000788354 -0.00108156 1.32433)
(-0.000792204 -0.000792203 1.15296)
(0.000340736 0.000340737 1.1521)
(0.000347865 0.000479672 1.32392)
(0.000260863 0.000598212 1.44154)
(9.69833e-05 0.000668247 1.50117)
(-9.69838e-05 0.000668247 1.50117)
(-0.000260864 0.000598212 1.44154)
(-0.000347866 0.000479673 1.32392)
(-0.000340739 0.000340739 1.1521)
(0.000479667 0.000347868 1.32392)
(0.000505478 0.000505482 1.53513)
(0.000384179 0.00064285 1.6679)
(0.000143137 0.000722071 1.732)
(-0.000143138 0.000722072 1.732)
(-0.000384179 0.00064285 1.6679)
(-0.000505479 0.000505483 1.53513)
(-0.000479672 0.000347869 1.32392)
(0.000598205 0.000260867 1.44154)
(0.000642845 0.000384184 1.6679)
(0.000489664 0.000489669 1.80663)
(0.0001812 0.000544341 1.87124)
(-0.000181201 0.000544341 1.87124)
(-0.000489665 0.000489669 1.80663)
(-0.000642846 0.000384184 1.6679)
(-0.000598209 0.000260868 1.44154)
(0.000668241 9.69878e-05 1.50117)
(0.000722067 0.000143142 1.732)
(0.000544337 0.000181205 1.87124)
(0.000196974 0.000196978 1.93251)
(-0.000196975 0.000196978 1.93251)
(-0.000544338 0.000181205 1.87124)
(-0.000722068 0.000143142 1.732)
(-0.000668244 9.69881e-05 1.50117)
(0.000668241 -9.69794e-05 1.50117)
(0.000722067 -0.000143133 1.732)
(0.000544337 -0.000181196 1.87124)
(0.000196974 -0.000196971 1.93251)
(-0.000196975 -0.000196971 1.93251)
(-0.000544338 -0.000181196 1.87124)
(-0.000722068 -0.000143133 1.732)
(-0.000668243 -9.69793e-05 1.50117)
(0.000598206 -0.00026086 1.44154)
(0.000642845 -0.000384175 1.6679)
(0.000489664 -0.00048966 1.80663)
(0.0001812 -0.000544334 1.87124)
(-0.000181201 -0.000544334 1.87124)
(-0.000489665 -0.00048966 1.80663)
(-0.000642846 -0.000384175 1.6679)
(-0.000598208 -0.00026086 1.44154)
(0.000479667 -0.000347861 1.32392)
(0.000505477 -0.000505474 1.53513)
(0.000384179 -0.000642842 1.6679)
(0.000143137 -0.000722064 1.732)
(-0.000143138 -0.000722064 1.732)
(-0.000384179 -0.000642842 1.6679)
(-0.000505478 -0.000505474 1.53513)
(-0.000479669 -0.000347862 1.32392)
(0.000340734 -0.000340734 1.1521)
(0.000347864 -0.000479665 1.32392)
(0.000260863 -0.000598203 1.44154)
(9.69832e-05 -0.000668239 1.50117)
(-9.6984e-05 -0.000668239 1.50117)
(-0.000260864 -0.000598204 1.44154)
(-0.000347865 -0.000479666 1.32392)
(-0.000340736 -0.000340735 1.1521)
(0.000183379 0.00018338 1.15155)
(0.000182636 0.000252986 1.32363)
(0.0001345 0.00031088 1.44151)
(4.95863e-05 0.000344804 1.5013)
(-4.95833e-05 0.000344803 1.5013)
(-0.000134497 0.000310878 1.44151)
(-0.000182634 0.000252983 1.32363)
(-0.000183379 0.000183379 1.15155)
(0.000252981 0.00018264 1.32363)
(0.000258956 0.000258961 1.5353)
(0.000193546 0.000324769 1.66852)
(7.15912e-05 0.000362584 1.73289)
(-7.15885e-05 0.000362583 1.73289)
(-0.000193544 0.000324768 1.66852)
(-0.000258955 0.000258959 1.5353)
(-0.000252983 0.000182638 1.32363)
(0.000310874 0.000134504 1.44151)
(0.000324764 0.000193551 1.66852)
(0.000243696 0.000243701 1.80785)
(8.96179e-05 0.000269588 1.87281)
(-8.9616e-05 0.000269587 1.87281)
(-0.000243695 0.0002437 1.80785)
(-0.000324764 0.00019355 1.66852)
(-0.000310877 0.000134503 1.44151)
(0.000344798 4.95904e-05 1.5013)
(0.000362579 7.1596e-05 1.73289)
(0.000269583 8.96223e-05 1.87281)
(9.70176e-05 9.70215e-05 1.93446)
(-9.70163e-05 9.70213e-05 1.93446)
(-0.000269582 8.96217e-05 1.87281)
(-0.000362579 7.1595e-05 1.73289)
(-0.000344801 4.95894e-05 1.5013)
(0.000344798 -4.95792e-05 1.5013)
(0.000362579 -7.15838e-05 1.73289)
(0.000269583 -8.96118e-05 1.87281)
(9.70175e-05 -9.70125e-05 1.93446)
(-9.70165e-05 -9.70127e-05 1.93446)
(-0.000269582 -8.96123e-05 1.87281)
(-0.000362579 -7.15846e-05 1.73289)
(-0.000344801 -4.95801e-05 1.5013)
(0.000310873 -0.000134494 1.44151)
(0.000324763 -0.00019354 1.66852)
(0.000243696 -0.00024369 1.80785)
(8.96174e-05 -0.000269578 1.87281)
(-8.96166e-05 -0.000269578 1.87281)
(-0.000243695 -0.000243691 1.80785)
(-0.000324763 -0.00019354 1.66852)
(-0.000310876 -0.000134494 1.44151)
(0.000252978 -0.00018263 1.32363)
(0.000258954 -0.00025895 1.5353)
(0.000193545 -0.000324759 1.66852)
(7.15901e-05 -0.000362575 1.73289)
(-7.15895e-05 -0.000362575 1.73289)
(-0.000193545 -0.000324759 1.66852)
(-0.000258954 -0.00025895 1.5353)
(-0.000252981 -0.000182631 1.32363)
(0.000183375 -0.000183374 1.15155)
(0.000182633 -0.000252976 1.32363)
(0.000134499 -0.00031087 1.44151)
(4.95849e-05 -0.000344795 1.5013)
(-4.95845e-05 -0.000344795 1.5013)
(-0.000134498 -0.000310871 1.44151)
(-0.000182634 -0.000252977 1.32363)
(-0.000183377 -0.000183376 1.15155)
(8.67716e-05 8.67732e-05 1.15132)
(8.77098e-05 0.000121325 1.32351)
(6.52146e-05 0.000150478 1.44152)
(2.41382e-05 0.000167611 1.50139)
(-2.41366e-05 0.00016761 1.50139)
(-6.52133e-05 0.000150477 1.44152)
(-8.7709e-05 0.000121323 1.32351)
(-8.67725e-05 8.67729e-05 1.15132)
(0.000121318 8.77135e-05 1.32351)
(0.000126291 0.000126297 1.53541)
(9.51093e-05 0.000159577 1.66884)
(3.52684e-05 0.000178636 1.73335)
(-3.5267e-05 0.000178635 1.73335)
(-9.51082e-05 0.000159576 1.66884)
(-0.000126291 0.000126296 1.53541)
(-0.000121321 8.7713e-05 1.32351)
(0.00015047 6.52191e-05 1.44152)
(0.000159571 9.51148e-05 1.66884)
(0.000120352 0.000120357 1.80847)
(4.43135e-05 0.000133317 1.8736)
(-4.43126e-05 0.000133317 1.8736)
(-0.000120351 0.000120357 1.80847)
(-0.000159571 9.51141e-05 1.66884)
(-0.000150472 6.52187e-05 1.44152)
(0.000167603 2.41428e-05 1.50139)
(0.00017863 3.52737e-05 1.73335)
(0.000133312 4.43184e-05 1.8736)
(4.8003e-05 4.80073e-05 1.93544)
(-4.80024e-05 4.80072e-05 1.93544)
(-0.000133311 4.4318e-05 1.8736)
(-0.00017863 3.52732e-05 1.73335)
(-0.000167604 2.41424e-05 1.50139)
(0.000167603 -2.41324e-05 1.50139)
(0.00017863 -3.52622e-05 1.73335)
(0.000133312 -4.43082e-05 1.8736)
(4.80029e-05 -4.79984e-05 1.93544)
(-4.80025e-05 -4.79985e-05 1.93544)
(-0.000133312 -4.43085e-05 1.8736)
(-0.00017863 -3.52626e-05 1.73335)
(-0.000167604 -2.41328e-05 1.50139)
(0.00015047 -6.52095e-05 1.44152)
(0.000159571 -9.51039e-05 1.66884)
(0.000120352 -0.000120347 1.80847)
(4.43132e-05 -0.000133308 1.8736)
(-4.43129e-05 -0.000133308 1.8736)
(-0.000120351 -0.000120347 1.80847)
(-0.000159571 -9.51042e-05 1.66884)
(-0.000150471 -6.52099e-05 1.44152)
(0.000121317 -8.77047e-05 1.32351)
(0.00012629 -0.000126286 1.53541)
(9.51088e-05 -0.000159567 1.66884)
(3.52678e-05 -0.000178626 1.73335)
(-3.52677e-05 -0.000178626 1.73335)
(-9.51087e-05 -0.000159568 1.66884)
(-0.00012629 -0.000126287 1.53541)
(-0.000121318 -8.77053e-05 1.32351)
(8.67687e-05 -8.67677e-05 1.15132)
(8.7708e-05 -0.000121315 1.32351)
(6.52139e-05 -0.000150467 1.44152)
(2.41374e-05 -0.0001676 1.50139)
(-2.41375e-05 -0.000167601 1.50139)
(-6.5214e-05 -0.000150468 1.44152)
(-8.77081e-05 -0.000121316 1.32351)
(-8.67694e-05 -8.67687e-05 1.15132)
(4.52185e-05 4.52203e-05 1.15119)
(4.53638e-05 6.27493e-05 1.32345)
(3.35603e-05 7.74234e-05 1.44152)
(1.23975e-05 8.6029e-05 1.50143)
(-1.23928e-05 8.60279e-05 1.50143)
(-3.3556e-05 7.74201e-05 1.44152)
(-4.53599e-05 6.2744e-05 1.32345)
(-4.52164e-05 4.5217e-05 1.15119)
(6.27432e-05 4.53673e-05 1.32345)
(6.47565e-05 6.47618e-05 1.53546)
(4.8578e-05 8.14852e-05 1.669)
(1.79891e-05 9.10624e-05 1.73357)
(-1.79851e-05 9.10617e-05 1.73357)
(-4.85744e-05 8.14832e-05 1.669)
(-6.47537e-05 6.47585e-05 1.53546)
(-6.2743e-05 4.53642e-05 1.32345)
(7.74167e-05 3.35644e-05 1.44152)
(8.148e-05 4.8583e-05 1.669)
(6.12727e-05 6.12774e-05 1.80878)
(2.25356e-05 6.77831e-05 1.874)
(-2.25329e-05 6.77827e-05 1.874)
(-6.12703e-05 6.12761e-05 1.80878)
(-8.14784e-05 4.85808e-05 1.669)
(-7.74177e-05 3.35621e-05 1.44152)
(8.60224e-05 1.24015e-05 1.50143)
(9.10574e-05 1.79939e-05 1.73357)
(6.77787e-05 2.254e-05 1.874)
(2.43786e-05 2.43825e-05 1.93593)
(-2.43769e-05 2.43822e-05 1.93593)
(-6.77772e-05 2.2539e-05 1.874)
(-9.10565e-05 1.79922e-05 1.73357)
(-8.60241e-05 1.23997e-05 1.50143)
(8.60217e-05 -1.23889e-05 1.50143)
(9.10569e-05 -1.79806e-05 1.73357)
(6.77784e-05 -2.25287e-05 1.874)
(2.43783e-05 -2.43731e-05 1.93593)
(-2.43771e-05 -2.43734e-05 1.93593)
(-6.77774e-05 -2.25295e-05 1.874)
(-9.10565e-05 -1.79819e-05 1.73357)
(-8.6024e-05 -1.23905e-05 1.50143)
(7.74145e-05 -3.35525e-05 1.44152)
(8.14784e-05 -4.85702e-05 1.669)
(6.12717e-05 -6.12663e-05 1.80878)
(2.25347e-05 -6.77734e-05 1.874)
(-2.25337e-05 -6.77736e-05 1.874)
(-6.12709e-05 -6.12669e-05 1.80878)
(-8.14783e-05 -4.85711e-05 1.669)
(-7.74172e-05 -3.35537e-05 1.44152)
(6.27387e-05 -4.53556e-05 1.32345)
(6.47536e-05 -6.4749e-05 1.53546)
(4.8576e-05 -8.1474e-05 1.669)
(1.79873e-05 -9.10524e-05 1.73357)
(-1.79867e-05 -9.10525e-05 1.73357)
(-4.85756e-05 -8.14745e-05 1.669)
(-6.47537e-05 -6.47499e-05 1.53546)
(-6.27415e-05 -4.53571e-05 1.32345)
(4.52124e-05 -4.52118e-05 1.15119)
(4.53593e-05 -6.2736e-05 1.32345)
(3.35578e-05 -7.74114e-05 1.44152)
(1.23952e-05 -8.60182e-05 1.50143)
(-1.23948e-05 -8.60185e-05 1.50143)
(-3.35575e-05 -7.74124e-05 1.44152)
(-4.53598e-05 -6.2738e-05 1.32345)
(-4.52145e-05 -4.52141e-05 1.15119)
(2.23424e-05 2.23435e-05 1.15113)
(2.25626e-05 3.11684e-05 1.32341)
(1.67714e-05 3.86076e-05 1.44152)
(6.20874e-06 4.29817e-05 1.50145)
(-6.20874e-06 4.29816e-05 1.50145)
(-1.67716e-05 3.86073e-05 1.44152)
(-2.25633e-05 3.1168e-05 1.32341)
(-2.23439e-05 2.2344e-05 1.15113)
(3.11636e-05 2.25658e-05 1.32341)
(3.24202e-05 3.24248e-05 1.53548)
(2.44306e-05 4.09522e-05 1.66908)
(9.06404e-06 4.5842e-05 1.73369)
(-9.06415e-06 4.58419e-05 1.73369)
(-2.44309e-05 4.0952e-05 1.66908)
(-3.24211e-05 3.24246e-05 1.53548)
(-3.11662e-05 2.25662e-05 1.32341)
(3.86017e-05 1.67756e-05 1.44152)
(4.09477e-05 2.44354e-05 1.66908)
(3.09178e-05 3.09223e-05 1.80894)
(1.13897e-05 3.42532e-05 1.8742)
(-1.13901e-05 3.42531e-05 1.8742)
(-3.09183e-05 3.09221e-05 1.80894)
(-4.09485e-05 2.44352e-05 1.66908)
(-3.8604e-05 1.67756e-05 1.44152)
(4.29755e-05 6.21312e-06 1.50145)
(4.58375e-05 9.06891e-06 1.73369)
(3.4249e-05 1.13941e-05 1.8742)
(1.23355e-05 1.23394e-05 1.93618)
(-1.2336e-05 1.23393e-05 1.93618)
(-3.42495e-05 1.13939e-05 1.8742)
(-4.58383e-05 9.0687e-06 1.73369)
(-4.29774e-05 6.21302e-06 1.50145)
(4.29754e-05 -6.20457e-06 1.50145)
(4.58374e-05 -9.05954e-06 1.73369)
(3.4249e-05 -1.13859e-05 1.8742)
(1.23355e-05 -1.23322e-05 1.93618)
(-1.2336e-05 -1.23323e-05 1.93618)
(-3.42496e-05 -1.13861e-05 1.8742)
(-4.58381e-05 -9.05978e-06 1.73369)
(-4.29769e-05 -6.20477e-06 1.50145)
(3.86014e-05 -1.67677e-05 1.44152)
(4.09474e-05 -2.44266e-05 1.66908)
(3.09177e-05 -3.09143e-05 1.80894)
(1.13896e-05 -3.42459e-05 1.8742)
(-1.13903e-05 -3.4246e-05 1.8742)
(-3.09184e-05 -3.09145e-05 1.80894)
(-4.09481e-05 -2.44269e-05 1.66908)
(-3.86026e-05 -1.6768e-05 1.44152)
(3.11625e-05 -2.25589e-05 1.32341)
(3.24198e-05 -3.24166e-05 1.53548)
(2.44304e-05 -4.09445e-05 1.66908)
(9.06375e-06 -4.58346e-05 1.73369)
(-9.06454e-06 -4.58348e-05 1.73369)
(-2.44312e-05 -4.09449e-05 1.66908)
(-3.24204e-05 -3.24171e-05 1.53548)
(-3.11635e-05 -2.25595e-05 1.32341)
(2.234e-05 -2.23391e-05 1.15113)
(2.25615e-05 -3.11605e-05 1.32341)
(1.67711e-05 -3.85994e-05 1.44152)
(6.20837e-06 -4.29736e-05 1.50145)
(-6.20925e-06 -4.29739e-05 1.50145)
(-1.6772e-05 -3.86003e-05 1.44152)
(-2.25624e-05 -3.11619e-05 1.32341)
(-2.23411e-05 -2.23402e-05 1.15113)
(1.14912e-05 1.14923e-05 1.1511)
(1.15729e-05 1.59842e-05 1.3234)
(8.58664e-06 1.97576e-05 1.44152)
(3.1773e-06 2.19754e-05 1.50146)
(-3.17546e-06 2.1975e-05 1.50146)
(-8.58509e-06 1.97563e-05 1.44152)
(-1.15719e-05 1.59824e-05 1.3234)
(-1.1492e-05 1.14921e-05 1.1511)
(1.5981e-05 1.15754e-05 1.3234)
(1.65716e-05 1.6575e-05 1.5355)
(1.24724e-05 2.09008e-05 1.66912)
(4.62658e-06 2.3384e-05 1.73375)
(-4.62509e-06 2.33837e-05 1.73375)
(-1.24712e-05 2.08999e-05 1.66912)
(-1.65713e-05 1.65735e-05 1.5355)
(-1.59837e-05 1.15746e-05 1.3234)
(1.97541e-05 8.58973e-06 1.44152)
(2.08975e-05 1.24759e-05 1.66912)
(1.57693e-05 1.57725e-05 1.80902)
(5.80947e-06 1.74679e-05 1.8743)
(-5.80852e-06 1.74677e-05 1.8743)
(-1.57686e-05 1.57719e-05 1.80902)
(-2.08977e-05 1.2475e-05 1.66912)
(-1.97573e-05 8.58887e-06 1.44152)
(2.1972e-05 3.18056e-06 1.50146)
(2.33809e-05 4.63028e-06 1.73375)
(1.74649e-05 5.81277e-06 1.8743)
(6.29109e-06 6.294e-06 1.9363)
(-6.29056e-06 6.29385e-06 1.9363)
(-1.74646e-05 5.81231e-06 1.8743)
(-2.33813e-05 4.62952e-06 1.73375)
(-2.19755e-05 3.17979e-06 1.50146)
(2.19717e-05 -3.17212e-06 1.50146)
(2.33807e-05 -4.6213e-06 1.73375)
(1.74648e-05 -5.80513e-06 1.8743)
(6.29096e-06 -6.28755e-06 1.9363)
(-6.29068e-06 -6.28767e-06 1.9363)
(-1.74647e-05 -5.80549e-06 1.8743)
(-2.33813e-05 -4.6219e-06 1.73375)
(-2.19754e-05 -3.17284e-06 1.50146)
(1.97532e-05 -8.58183e-06 1.44152)
(2.08968e-05 -1.24674e-05 1.66912)
(1.57688e-05 -1.5765e-05 1.80902)
(5.80904e-06 -1.74613e-05 1.8743)
(-5.80892e-06 -1.74614e-05 1.8743)
(-1.57688e-05 -1.57653e-05 1.80902)
(-2.08975e-05 -1.24678e-05 1.66912)
(-1.97569e-05 -8.58243e-06 1.44152)
(1.59792e-05 -1.15681e-05 1.3234)
(1.65703e-05 -1.65668e-05 1.5355)
(1.24715e-05 -2.08935e-05 1.66912)
(4.62574e-06 -2.33774e-05 1.73375)
(-4.62583e-06 -2.33775e-05 1.73375)
(-1.24717e-05 -2.08938e-05 1.66912)
(-1.65709e-05 -1.65674e-05 1.5355)
(-1.59826e-05 -1.15692e-05 1.3234)
(1.14886e-05 -1.1488e-05 1.1511)
(1.15709e-05 -1.59771e-05 1.3234)
(8.58553e-06 -1.97509e-05 1.44152)
(3.17623e-06 -2.19693e-05 1.50146)
(-3.17644e-06 -2.19696e-05 1.50146)
(-8.5858e-06 -1.97517e-05 1.44152)
(-1.15717e-05 -1.59788e-05 1.3234)
(-1.14907e-05 -1.14902e-05 1.1511)
(5.80233e-06 5.80296e-06 1.15108)
(5.85541e-06 8.08783e-06 1.32339)
(4.34997e-06 1.00109e-05 1.44152)
(1.60973e-06 1.11425e-05 1.50146)
(-1.61189e-06 1.11428e-05 1.50146)
(-4.35213e-06 1.00118e-05 1.44152)
(-5.85803e-06 8.0894e-06 1.32339)
(-5.80553e-06 5.8053e-06 1.15108)
(8.08489e-06 5.85755e-06 1.32339)
(8.40406e-06 8.40695e-06 1.5355)
(6.33326e-06 1.06146e-05 1.66915)
(2.34981e-06 1.18826e-05 1.73378)
(-2.35188e-06 1.18829e-05 1.73378)
(-6.33539e-06 1.06152e-05 1.66915)
(-8.40664e-06 8.408e-06 1.5355)
(-8.08936e-06 5.85941e-06 1.32339)
(1.00074e-05 4.35293e-06 1.44152)
(1.06118e-05 6.33653e-06 1.66915)
(8.01696e-06 8.01993e-06 1.80906)
(2.95435e-06 8.88654e-06 1.87436)
(-2.95603e-06 8.88666e-06 1.87436)
(-8.01872e-06 8.02032e-06 1.80906)
(-1.06138e-05 6.33724e-06 1.66915)
(-1.00109e-05 4.35396e-06 1.44152)
(1.11387e-05 1.61295e-06 1.50146)
(1.18798e-05 2.35328e-06 1.73378)
(8.88378e-06 2.95741e-06 1.87436)
(3.20102e-06 3.20372e-06 1.93637)
(-3.20239e-06 3.20381e-06 1.93637)
(-8.88521e-06 2.9577e-06 1.87436)
(-1.18814e-05 2.35385e-06 1.73378)
(-1.11415e-05 1.61377e-06 1.50146)
(1.11389e-05 -1.6087e-06 1.50146)
(1.188e-05 -2.34845e-06 1.73378)
(8.88391e-06 -2.95299e-06 1.87436)
(3.20112e-06 -3.1997e-06 1.93637)
(-3.20233e-06 -3.19963e-06 1.93637)
(-8.88514e-06 -2.95277e-06 1.87436)
(-1.18812e-05 -2.34802e-06 1.73378)
(-1.1141e-05 -1.60811e-06 1.50146)
(1.00081e-05 -4.3491e-06 1.44152)
(1.06122e-05 -6.33206e-06 1.66915)
(8.01735e-06 -8.01569e-06 1.80906)
(2.95464e-06 -8.88244e-06 1.87436)
(-2.95582e-06 -8.88241e-06 1.87436)
(-8.01848e-06 -8.01558e-06 1.80906)
(-1.06132e-05 -6.3318e-06 1.66915)