/*--------------------------------*- C++ -*----------------------------------*\
| =========                 |                                                 |
| \\      /  F ield         | OpenFOAM: The Open Source CFD Toolbox           |
|  \\    /   O peration     | Version:  2406                                  |
|   \\  /    A nd           | Website:  www.openfoam.com                      |
|    \\/     M anipulation  |                                                 |
\*---------------------------------------------------------------------------*/
FoamFile
{
    version     2.0;
    format      ascii;
    arch        "LSB;label=32;scalar=64";
    class       volScalarField;
    location    "0.4";
    object      div(phi);
}
// * * * * * * * * * * * * * * * * * * * * * * * * * * * * * * * * * * * * * //

dimensions      [0 0 -1 0 0 0 0];

internalField   nonuniform List<scalar> 
25000
(
-2.57387
-2.37677
-2.4041
-2.37314
-2.33382
-2.28286
-2.25229
-2.23903
-2.22692
-1.85255
-2.28521
-2.02632
-2.05227
-2.03826
-1.97625
-1.91997
-1.89375
-1.88162
-1.82806
-1.46059
-2.22229
-1.98028
-2.00647
-2.01925
-1.95199
-1.87579
-1.85717
-1.84418
-1.79033
-1.44552
-2.15158
-1.87758
-1.95846
-1.95456
-1.89144
-1.82327
-1.80281
-1.8016
-1.75126
-1.41961
-2.09062
-1.81778
-1.86455
-1.89182
-1.82938
-1.76646
-1.75968
-1.75427
-1.70306
-1.38986
-2.01896
-1.72567
-1.80298
-1.80997
-1.76695
-1.70896
-1.69359
-1.7017
-1.66406
-1.33847
-1.96478
-1.66458
-1.7076
-1.74151
-1.67419
-1.62983
-1.65278
-1.64134
-1.58782
-1.29918
-1.8631
-1.58037
-1.63143
-1.61767
-1.58065
-1.58227
-1.5464
-1.56797
-1.55997
-1.23217
-1.7727
-1.46745
-1.47938
-1.48208
-1.46732
-1.42692
-1.4586
-1.48023
-1.42026
-1.13588
-1.43598
-1.13357
-1.15938
-1.16398
-1.15314
-1.1648
-1.17033
-1.15977
-1.12949
-0.869408
-2.32668
-2.1422
-2.08855
-1.96619
-1.87895
-1.84819
-1.87944
-1.93865
-1.99518
-1.67792
-2.00641
-1.73589
-1.68621
-1.63286
-1.57652
-1.54433
-1.57288
-1.61517
-1.61358
-1.32444
-1.87891
-1.62834
-1.63746
-1.64335
-1.60317
-1.56289
-1.55523
-1.55976
-1.54967
-1.28114
-1.78603
-1.53275
-1.60468
-1.64007
-1.60937
-1.55692
-1.5403
-1.52696
-1.47531
-1.23044
-1.72785
-1.48566
-1.56669
-1.62246
-1.58644
-1.54061
-1.52123
-1.48743
-1.42631
-1.1923
-1.71804
-1.4553
-1.53834
-1.57432
-1.55211
-1.5013
-1.47692
-1.45492
-1.40787
-1.16711
-1.76322
-1.45594
-1.48803
-1.52436
-1.47271
-1.43389
-1.44313
-1.42346
-1.38664
-1.17706
-1.76609
-1.45609
-1.45667
-1.42174
-1.37955
-1.38045
-1.35734
-1.39213
-1.42774
-1.15944
-1.76039
-1.42076
-1.37149
-1.32381
-1.2824
-1.24987
-1.30045
-1.36527
-1.34826
-1.09579
-1.45802
-1.1348
-1.12234
-1.0842
-1.04813
-1.05782
-1.08359
-1.09922
-1.08645
-0.837267
-3.02594
-2.85721
-2.85727
-2.71219
-2.53704
-2.38474
-2.29673
-2.23663
-2.17143
-1.75088
-2.64243
-2.38026
-2.33618
-2.21903
-2.04906
-1.93081
-1.89809
-1.88998
-1.78532
-1.38289
-2.46697
-2.20833
-2.17333
-2.07138
-1.89937
-1.78773
-1.78409
-1.79786
-1.74228
-1.36301
-2.27986
-1.99346
-1.99541
-1.8691
-1.69385
-1.59045
-1.63613
-1.69977
-1.65059
-1.32505
-2.14716
-1.85737
-1.83048
-1.71888
-1.53429
-1.4639
-1.53969
-1.6114
-1.58946
-1.2897
-2.06999
-1.76744
-1.76592
-1.6526
-1.51375
-1.44607
-1.50695
-1.58456
-1.56791
-1.25946
-2.05412
-1.74186
-1.71992
-1.66195
-1.52267
-1.47446
-1.53964
-1.57931
-1.54375
-1.25139
-1.98064
-1.69734
-1.69784
-1.60779
-1.51534
-1.50571
-1.50203
-1.56142
-1.55627
-1.20211
-1.887
-1.58679
-1.55945
-1.49934
-1.43491
-1.38368
-1.43926
-1.48361
-1.41308
-1.09837
-1.49563
-1.19865
-1.20548
-1.17171
-1.12728
-1.12985
-1.14425
-1.14069
-1.09668
-0.833955
-1.69821
-1.65334
-1.77489
-1.79114
-1.78727
-1.76031
-1.74071
-1.71886
-1.73275
-1.45279
-1.48961
-1.45154
-1.53818
-1.57114
-1.5393
-1.47869
-1.46439
-1.4188
-1.3372
-1.12302
-1.4385
-1.43308
-1.55637
-1.56403
-1.50981
-1.47477
-1.45853
-1.42634
-1.35501
-1.06753
-1.43726
-1.41008
-1.49325
-1.50225
-1.43668
-1.37305
-1.41154
-1.42755
-1.32403
-1.02965
-1.46372
-1.37562
-1.4611
-1.45029
-1.35361
-1.31241
-1.36471
-1.39543
-1.3201
-1.01481
-1.50215
-1.38469
-1.45308
-1.43052
-1.35264
-1.30109
-1.35535
-1.397
-1.31956
-1.00354
-1.54728
-1.39637
-1.45496
-1.45504
-1.36604
-1.33312
-1.38108
-1.3845
-1.28969
-0.999011
-1.52186
-1.38605
-1.44738
-1.41554
-1.35516
-1.34299
-1.32398
-1.32285
-1.26122
-0.959243
-1.45698
-1.29752
-1.33493
-1.3168
-1.26446
-1.20588
-1.2074
-1.19546
-1.1224
-0.88122
-1.15893
-0.983417
-1.02855
-1.015
-0.971265
-0.940664
-0.907037
-0.879579
-0.859353
-0.650903
-2.991
-2.701
-2.65644
-2.55623
-2.41643
-2.27357
-2.15705
-2.09928
-2.12215
-1.73899
-2.4633
-1.98639
-1.98648
-1.95452
-1.81837
-1.65853
-1.54387
-1.51897
-1.53374
-1.31952
-2.19943
-1.83154
-1.90835
-1.90204
-1.75609
-1.59893
-1.48109
-1.38993
-1.37879
-1.22004
-2.00391
-1.71182
-1.82294
-1.77781
-1.63478
-1.47874
-1.40532
-1.35262
-1.28478
-1.1493
-1.89967
-1.65322
-1.71103
-1.66834
-1.50713
-1.37396
-1.34194
-1.31658
-1.26961
-1.09329
-1.82993
-1.59698
-1.65573
-1.59099
-1.45264
-1.32736
-1.31108
-1.31032
-1.24775
-1.05048
-1.78857
-1.55909
-1.59369
-1.55589
-1.41538
-1.32549
-1.31628
-1.27127
-1.21268
-1.03032
-1.69313
-1.48098
-1.52983
-1.46498
-1.36508
-1.30526
-1.23629
-1.20852
-1.2031
-1.00103
-1.57282
-1.34994
-1.36548
-1.33157
-1.25196
-1.17045
-1.14834
-1.14634
-1.13819
-0.928829
-1.23394
-1.01479
-1.04217
-1.0176
-0.973015
-0.951782
-0.942241
-0.937691
-0.918854
-0.683502
-1.12452
-1.13834
-1.21794
-1.2534
-1.31186
-1.3652
-1.42215
-1.45446
-1.4928
-1.19239
-1.01188
-0.885286
-0.921272
-0.979971
-1.017
-1.01673
-1.05907
-1.11127
-1.14985
-0.967564
-0.996471
-0.855658
-0.963916
-1.02252
-1.02108
-1.00333
-0.972265
-0.991454
-1.07235
-0.931388
-1.04176
-0.896175
-0.989854
-1.04835
-1.02747
-0.965199
-0.951971
-0.983355
-1.00844
-0.903611
-1.08243
-0.937804
-1.0373
-1.07521
-1.02693
-0.975857
-0.97275
-0.994147
-1.00224
-0.882034
-1.13148
-0.993853
-1.08426
-1.11225
-1.07817
-1.03144
-1.02454
-1.02981
-1.01094
-0.865475
-1.18084
-1.02741
-1.11635
-1.15051
-1.10822
-1.0695
-1.07257
-1.04224
-1.00765
-0.865037
-1.17888
-1.01673
-1.10813
-1.12777
-1.09416
-1.08193
-1.04016
-1.01775
-1.03037
-0.83991
-1.13698
-0.957762
-1.02228
-1.04974
-1.02772
-0.991848
-0.980462
-0.990421
-0.965139
-0.771969
-0.917107
-0.772141
-0.818799
-0.827825
-0.820798
-0.816023
-0.809697
-0.79028
-0.752433
-0.552296
-2.61734
-2.42117
-2.42114
-2.34394
-2.22307
-2.10873
-2.00131
-1.93235
-1.8823
-1.49487
-2.15817
-1.8669
-1.85004
-1.74465
-1.59488
-1.49257
-1.43675
-1.43668
-1.43262
-1.16303
-1.96827
-1.723
-1.6899
-1.61219
-1.43768
-1.2948
-1.25607
-1.26506
-1.30153
-1.10233
-1.76744
-1.52238
-1.57872
-1.46586
-1.30308
-1.18136
-1.152
-1.18242
-1.20486
-1.04583
-1.62644
-1.41843
-1.43095
-1.38027
-1.24713
-1.15072
-1.14041
-1.13313
-1.14308
-0.997816
-1.53062
-1.29929
-1.37075
-1.32303
-1.23086
-1.15752
-1.12528
-1.12006
-1.11752
-0.957941
-1.48228
-1.23422
-1.27989
-1.2799
-1.192
-1.13114
-1.13242
-1.1034
-1.08995
-0.943546
-1.40207
-1.12358
-1.17719
-1.16545
-1.11323
-1.09743
-1.05692
-1.06552
-1.10062
-0.917124
-1.32249
-1.02134
-1.02634
-1.02211
-0.996892
-0.961947
-0.988465
-1.02838
-1.04337
-0.855899
-1.08137
-0.844053
-0.834648
-0.808202
-0.784881
-0.799568
-0.827252
-0.849337
-0.848984
-0.641443
-0.487651
-0.57209
-0.661181
-0.689719
-0.756514
-0.820443
-0.882048
-0.92766
-0.949907
-0.749968
-0.416544
-0.473854
-0.535953
-0.604535
-0.648601
-0.665653
-0.728007
-0.773266
-0.77828
-0.641195
-0.433579
-0.484356
-0.589688
-0.627559
-0.645617
-0.674691
-0.706983
-0.748818
-0.77555
-0.646048
-0.492712
-0.529555
-0.592985
-0.646887
-0.664859
-0.683579
-0.74037
-0.774067
-0.768092
-0.651446
-0.515006
-0.53428
-0.628201
-0.675806
-0.693023
-0.729294
-0.77234
-0.787423
-0.77877
-0.655073
-0.552467
-0.556017
-0.648025
-0.70461
-0.734482
-0.755901
-0.790617
-0.801525
-0.78848
-0.654962
-0.593259
-0.553778
-0.655786
-0.727646
-0.740797
-0.765486
-0.800749
-0.795284
-0.779227
-0.66298
-0.608716
-0.556744
-0.627813
-0.685943
-0.712774
-0.749063
-0.749228
-0.76193
-0.790842
-0.650342
-0.640546
-0.551988
-0.58968
-0.63214
-0.666207
-0.671872
-0.707621
-0.74005
-0.751286
-0.603175
-0.549407
-0.501906
-0.542528
-0.572417
-0.582658
-0.60629
-0.618097
-0.618144
-0.594283
-0.431556
-2.31506
-2.17817
-2.10124
-1.91948
-1.67317
-1.4426
-1.26008
-1.17214
-1.13604
-0.91488
-1.86799
-1.66604
-1.61597
-1.44243
-1.22175
-1.02753
-0.88721
-0.859801
-0.843884
-0.701262
-1.68632
-1.50852
-1.42697
-1.2991
-1.09494
-0.906588
-0.817873
-0.792247
-0.778536
-0.66222
-1.49029
-1.2853
-1.2813
-1.14322
-0.978132
-0.844798
-0.78146
-0.769804
-0.737919
-0.630109
-1.35017
-1.14397
-1.11411
-1.03249
-0.907312
-0.80932
-0.770256
-0.737712
-0.707913
-0.600793
-1.26159
-1.00079
-1.01259
-0.949042
-0.857627
-0.780223
-0.736503
-0.709519
-0.67919
-0.57369
-1.19672
-0.905659
-0.908959
-0.879839
-0.795833
-0.735066
-0.703613
-0.66467
-0.641815
-0.553956
-1.13178
-0.823158
-0.816869
-0.77172
-0.717718
-0.673362
-0.617928
-0.597054
-0.615157
-0.530497
-1.07907
-0.787322
-0.715194
-0.677962
-0.629017
-0.575007
-0.547904
-0.548532
-0.574916
-0.486194
-0.882366
-0.643606
-0.603643
-0.561239
-0.521696
-0.499357
-0.487696
-0.48747
-0.486011
-0.370184
0.414447
0.304539
0.231677
0.159744
0.0515317
-0.049231
-0.133232
-0.179856
-0.208856
-0.164824
0.238054
0.148194
0.0939653
0.0223887
-0.0652671
-0.113346
-0.174837
-0.209816
-0.211523
-0.177634
0.0983176
0.0447774
-0.0250084
-0.0714745
-0.125732
-0.176721
-0.210152
-0.242187
-0.250578
-0.198375
-0.0554473
-0.075811
-0.0969653
-0.151023
-0.187767
-0.21192
-0.250131
-0.279314
-0.272009
-0.21717
-0.15645
-0.141949
-0.182366
-0.213318
-0.236373
-0.260615
-0.284505
-0.305115
-0.295301
-0.231116
-0.239451
-0.207838
-0.233904
-0.264776
-0.280549
-0.294418
-0.311949
-0.32203
-0.31047
-0.237561
-0.303209
-0.24632
-0.279264
-0.298168
-0.308778
-0.308654
-0.323104
-0.330486
-0.307481
-0.24251
-0.351336
-0.280264
-0.300366
-0.313415
-0.30673
-0.30937
-0.315942
-0.312784
-0.308854
-0.228943
-0.376961
-0.3064
-0.306117
-0.31099
-0.293546
-0.290235
-0.285507
-0.295034
-0.265131
-0.200571
-0.332615
-0.268381
-0.281265
-0.273747
-0.263387
-0.246289
-0.235387
-0.215813
-0.189785
-0.133369
-1.48094
-1.33779
-1.31147
-1.22586
-1.06375
-0.897175
-0.763857
-0.68665
-0.648181
-0.541728
-1.29158
-1.0898
-1.06934
-0.949975
-0.795226
-0.675782
-0.567473
-0.514423
-0.491298
-0.404091
-1.17102
-1.00051
-0.921479
-0.841438
-0.705549
-0.575264
-0.514491
-0.480738
-0.452344
-0.377127
-0.990588
-0.815954
-0.814138
-0.710108
-0.589208
-0.489266
-0.442756
-0.441692
-0.432367
-0.356439
-0.860328
-0.710192
-0.668743
-0.607223
-0.505981
-0.425034
-0.410915
-0.417067
-0.408903
-0.342962
-0.753074
-0.590899
-0.589033
-0.530298
-0.452655
-0.400771
-0.387629
-0.396101
-0.397585
-0.32713
-0.679453
-0.5257
-0.510289
-0.468891
-0.408891
-0.370695
-0.37421
-0.38113
-0.379208
-0.316495
-0.615643
-0.465641
-0.44724
-0.400912
-0.35947
-0.349492
-0.346185
-0.365326
-0.37415
-0.299099
-0.564872
-0.424558
-0.37649
-0.338668
-0.311588
-0.304147
-0.323976
-0.344929
-0.340094
-0.27123
-0.447564
-0.330222
-0.300576
-0.264794
-0.245045
-0.24679
-0.261917
-0.274736
-0.276158
-0.209119
0.803027
0.692801
0.666811
0.615418
0.50188
0.388332
0.287216
0.221657
0.197879
0.158203
0.686688
0.560377
0.527643
0.442124
0.326548
0.242374
0.15617
0.116888
0.0954363
0.0775646
0.590462
0.483119
0.412227
0.34405
0.247705
0.15714
0.106598
0.0643629
0.0543401
0.0436123
0.447831
0.34479
0.321148
0.23834
0.157777
0.0934435
0.0465061
0.0290101
0.0175673
0.0194067
0.342596
0.260139
0.209923
0.15427
0.090952
0.041022
0.0148418
-0.00784006
-0.0061749
-0.0021741
0.258253
0.170981
0.141532
0.0907598
0.0459565
0.00951341
-0.0166054
-0.0270509
-0.0319075
-0.0161017
0.190863
0.117287
0.0801582
0.0473823
0.00994566
-0.015449
-0.0354102
-0.0496786
-0.0404799
-0.0282127
0.137834
0.0688135
0.0411427
0.00899806
-0.014972
-0.0374963
-0.053542
-0.0528721
-0.0522726
-0.0300978
0.0981247
0.0373878
0.0066576
-0.0192373
-0.0377043
-0.0541933
-0.0557013
-0.0591061
-0.0415105
-0.0255365
0.0587915
0.0110038
-0.0167744
-0.035124
-0.0490189
-0.0527491
-0.049994
-0.0383526
-0.0215945
-0.0113384
-0.832778
-0.682729
-0.613193
-0.536257
-0.407332
-0.282601
-0.185136
-0.128261
-0.0950954
-0.095947
-0.710413
-0.545653
-0.497261
-0.38574
-0.268264
-0.184045
-0.0973612
-0.0579877
-0.0584934
-0.0521507
-0.636874
-0.493402
-0.395453
-0.319028
-0.218489
-0.120343
-0.0724573
-0.0418527
-0.0265739
-0.0384096
-0.512991
-0.372105
-0.333002
-0.237224
-0.145251
-0.0797186
-0.031621
-0.0113921
-0.0144856
-0.023022
-0.424802
-0.303964
-0.235549
-0.163711
-0.0906601
-0.0338892
-0.00682256
0.00884549
0.00692621
-0.00908269
-0.346857
-0.219997
-0.171436
-0.107635
-0.0488288
-0.0102867
0.0199331
0.0286902
0.0252683
0.00151138
-0.277873
-0.163717
-0.112603
-0.060582
-0.0168457
0.0188299
0.0410253
0.0498633
0.0353927
0.0171243
-0.228392
-0.109948
-0.0696416
-0.0232003
0.0124589
0.0435466
0.0578203
0.0581982
0.0529394
0.0220152
-0.171769
-0.0788144
-0.0263848
0.00613749
0.041498
0.0557912
0.0687012
0.0664494
0.0504713
0.0311562
-0.122945
-0.0412927
-0.00443676
0.0281393
0.0459822
0.0578058
0.0562274
0.0463089
0.036616
0.0156753
1.09394
0.992282
0.992968
0.965118
0.88188
0.791256
0.703584
0.647598
0.630396
0.518638
0.975025
0.857003
0.842798
0.778566
0.668962
0.583383
0.502009
0.455015
0.426448
0.363917
0.876067
0.77819
0.73401
0.683759
0.584455
0.491466
0.437783
0.390048
0.374623
0.319514
0.728537
0.633189
0.637915
0.562857
0.468286
0.392435
0.367569
0.361574
0.344704
0.290993
0.624688
0.543656
0.511928
0.456009
0.37196
0.330318
0.335457
0.333025
0.326299
0.269979
0.529821
0.446188
0.438601
0.3831
0.337568
0.3166
0.316499
0.319141
0.314156
0.252327
0.468235
0.391812
0.37378
0.352995
0.317722
0.305721
0.312019
0.310395
0.299938
0.249173
0.408912
0.332665
0.332789
0.312864
0.295892
0.297553
0.289876
0.300751
0.301324
0.244172
0.374986
0.286374
0.277462
0.265433
0.264901
0.253217
0.277418
0.280982
0.285589
0.243402
0.298912
0.219881
0.203213
0.196101
0.189574
0.2019
0.212848
0.226656
0.247416
0.192488
-0.664711
-0.488165
-0.374392
-0.273306
-0.136123
-0.0138179
0.0777296
0.130288
0.16732
0.123973
-0.517098
-0.353192
-0.286307
-0.167467
-0.0570097
0.0219797
0.104479
0.144173
0.136007
0.115069
-0.422122
-0.30216
-0.197672
-0.115667
-0.0222258
0.0685545
0.114016
0.141432
0.158645
0.113216
-0.305654
-0.197864
-0.144719
-0.0529355
0.0264533
0.0783761
0.133579
0.16151
0.149151
0.117869
-0.214775
-0.135701
-0.0664314
0.00196513
0.0561794
0.112055
0.149259
0.166224
0.165015
0.122094
-0.145601
-0.0639677
-0.00867686
0.045558
0.0961904
0.135193
0.17079
0.184517
0.174659
0.125976
-0.0748984
-0.011104
0.0403286
0.0909907
0.127321
0.163242
0.190902
0.197702
0.178232
0.137036
-0.031875
0.0346478
0.0791663
0.120301
0.15157
0.182745
0.195268
0.195575
0.19026
0.135406
0.0165942
0.0602725
0.105217
0.133811
0.163877
0.175048
0.188897
0.190407
0.174476
0.131423
0.0273944
0.0654705
0.0944905
0.119312
0.133731
0.145896
0.146654
0.140057
0.129385
0.0826505
1.33858
1.17281
1.13147
1.07181
1.0014
0.926073
0.862724
0.818317
0.792951
0.649901
1.10677
0.95698
0.921067
0.862713
0.775269
0.715576
0.671661
0.649911
0.60681
0.479838
0.970439
0.853821
0.80777
0.761309
0.683578
0.623609
0.59055
0.569068
0.55229
0.427899
0.807134
0.715387
0.713299
0.641048
0.571716
0.519671
0.50514
0.507652
0.472352
0.379586
0.715985
0.641969
0.603523
0.550241
0.483974
0.459661
0.45785
0.446598
0.431384
0.336137
0.643524
0.56958
0.559183
0.498196
0.455554
0.432275
0.430421
0.431154
0.39829
0.315161
0.611799
0.544966
0.519792
0.487432
0.43943
0.420435
0.424329
0.408269
0.386066
0.312435
0.5675
0.498149
0.493115
0.452233
0.417606
0.404615
0.389048
0.393749
0.384428
0.307222
0.530266
0.442156
0.419202
0.389994
0.368434
0.351049
0.365438
0.373725
0.369422
0.297627
0.421259
0.326838
0.305457
0.284363
0.273595
0.282677
0.295776
0.306438
0.310834
0.229062
0.127632
0.200045
0.270889
0.313323
0.397164
0.475924
0.535059
0.562377
0.561299
0.434167
0.139475
0.201091
0.243128
0.312866
0.376521
0.424033
0.488615
0.513348
0.487933
0.37589
0.177148
0.217224
0.289897
0.330497
0.375538
0.43271
0.466721
0.49681
0.496535
0.37506
0.236222
0.265982
0.297279
0.341033
0.374205
0.401299
0.455918
0.484644
0.466445
0.367573
0.281978
0.288974
0.328943
0.352955
0.366024
0.402153
0.437659
0.461871
0.454941
0.34991
0.323804
0.330725
0.360852
0.373032
0.384804
0.398319
0.435007
0.460898
0.436314
0.333573
0.376687
0.370404
0.397155
0.412692
0.405206
0.417061
0.445502
0.453892
0.424001
0.329921
0.402038
0.398069
0.429818
0.431745
0.426422
0.434344
0.43559
0.440621
0.425033
0.324531
0.417668
0.396588
0.421937
0.426731
0.421836
0.411172
0.416974
0.416146
0.39268
0.313317
0.346029
0.31577
0.33945
0.347022
0.344169
0.344268
0.33801
0.327426
0.31399
0.235542
1.62086
1.43779
1.41731
1.38764
1.35086
1.30559
1.24775
1.1697
1.10992
0.885275
1.34948
1.15889
1.1312
1.09465
1.03983
1.01203
0.997106
0.974076
0.906484
0.696599
1.20629
1.04479
1.01237
0.975692
0.919462
0.887604
0.891162
0.893321
0.862804
0.66602
1.07078
0.918402
0.906479
0.850391
0.795064
0.761813
0.778819
0.80959
0.791729
0.62951
0.992496
0.846227
0.811801
0.761773
0.696088
0.670383
0.693033
0.728028
0.733765
0.588373
0.941759
0.795608
0.770731
0.705068
0.642398
0.606721
0.632257
0.679945
0.684921
0.548761
0.916721
0.779249
0.74235
0.694802
0.617592
0.588933
0.618498
0.649412
0.652155
0.527762
0.864647
0.7479
0.732437
0.671163
0.617305
0.603198
0.601856
0.642653
0.652848
0.511757
0.80043
0.685924
0.66497
0.621965
0.585642
0.559953
0.591203
0.62271
0.611651
0.484695
0.625256
0.51155
0.500107
0.473572
0.451461
0.460803
0.481436
0.499118
0.495613
0.381579
0.551135
0.574875
0.637266
0.677356
0.742224
0.802932
0.839365
0.832664
0.804767
0.6042
0.520077
0.523636
0.560032
0.608561
0.65763
0.68681
0.742239
0.757126
0.696907
0.523258
0.52293
0.513522
0.569437
0.590632
0.614279
0.661394
0.704945
0.730279
0.712992
0.528141
0.561469
0.52884
0.540074
0.562449
0.573407
0.591406
0.652618
0.699369
0.672866
0.517355
0.58497
0.525793
0.547746
0.544742
0.531762
0.554234
0.605972
0.656136
0.657109
0.502366
0.621331
0.55636
0.55796
0.543142
0.522501
0.526164
0.581078
0.638404
0.640413
0.489808
0.662264
0.58346
0.587515
0.574611
0.541625
0.544098
0.592505
0.632523
0.626958
0.489938
0.671827
0.608169
0.61778
0.597537
0.575763
0.585105
0.600509
0.632777
0.637916
0.47439
0.647088
0.587258
0.598206
0.590966
0.577883
0.572649
0.594223
0.618103
0.578666
0.428582
0.504949
0.444202
0.469306
0.47094
0.470103
0.477685
0.48258
0.469353
0.428738
0.303797
1.72643
1.58547
1.57215
1.51041
1.42896
1.35812
1.29787
1.24598
1.20784
0.94285
1.50272
1.31427
1.25709
1.18234
1.10523
1.04118
1.01225
1.00449
0.948295
0.739137
1.37378
1.19757
1.13872
1.07936
1.00612
0.960877
0.944278
0.926341
0.904687
0.703708
1.2453
1.06621
1.02985
0.959715
0.892414
0.857849
0.869965
0.883386
0.841407
0.668197
1.16061
0.982947
0.934236
0.861434
0.780905
0.765656
0.8058
0.831231
0.807961
0.632781
1.11151
0.928032
0.884717
0.802785
0.727984
0.708158
0.752657
0.802913
0.776225
0.600066
1.09049
0.905224
0.862561
0.80594
0.729721
0.708837
0.753438
0.784527
0.756861
0.584647
1.04889
0.877687
0.854933
0.795852
0.741877
0.734008
0.739142
0.775458
0.763746
0.562409
0.97551
0.811418
0.781632
0.750304
0.713822
0.690628
0.715563
0.741209
0.692958
0.51289
0.747983
0.593136
0.592586
0.572959
0.555952
0.557105
0.564637
0.55716
0.52125
0.377297
0.869666
0.914508
0.995317
1.0133
1.04604
1.07462
1.10197
1.11752
1.11549
0.872189
0.811009
0.786092
0.801415
0.823047
0.827085
0.827372
0.870604
0.906795
0.891961
0.709856
0.77916
0.733475
0.773689
0.774717
0.765121
0.779245
0.802341
0.836424
0.855031
0.685276
0.7639
0.704993
0.721421
0.720766
0.709886
0.714305
0.759892
0.803091
0.797624
0.658779
0.746422
0.676865
0.699646
0.685102
0.662625
0.691184
0.739828
0.775125
0.778368
0.633333
0.742367
0.681176
0.699808
0.682217
0.67221
0.690547
0.744888
0.783468
0.770377
0.612715
0.767087
0.694542
0.714222
0.720176
0.699236
0.721189
0.776756
0.792031
0.763001
0.604073
0.759696
0.710151
0.734861
0.729498
0.726261
0.755885
0.768508
0.79058
0.771388
0.576134
0.753758
0.681321
0.704902
0.70895
0.716022
0.71322
0.747254
0.76011
0.702012
0.522421
0.597877
0.523558
0.553564
0.56538
0.5669
0.581567
0.588831
0.574568
0.52797
0.379455
1.61547
1.59268
1.65396
1.63452
1.57582
1.50506
1.4443
1.39463
1.32796
1.022
1.46024
1.32592
1.30572
1.25274
1.16993
1.11408
1.10289
1.11195
1.08548
0.847353
1.34251
1.18368
1.15298
1.10047
1.02339
0.976625
0.974824
1.00052
1.01485
0.822202
1.20588
1.03302
1.01592
0.954645
0.882483
0.848074
0.872793
0.916191
0.929055
0.78106
1.10063
0.932567
0.907095
0.848291
0.77253
0.770063
0.809357
0.853822
0.877371
0.740121
1.02202
0.871237
0.863665
0.805492
0.753021
0.745352
0.785661
0.834828
0.848124
0.705041
0.990954
0.850787
0.846944
0.829576
0.774785
0.768114
0.805504
0.830195
0.829403
0.68531
0.941578
0.835077
0.848202
0.820753
0.791325
0.79629
0.793262
0.827782
0.831488
0.646879
0.902683
0.782526
0.791407
0.77572
0.759122
0.736581
0.767972
0.789611
0.753963
0.576879
0.714034
0.587742
0.601049
0.597179
0.587168
0.599707
0.61007
0.607007
0.574902
0.422432
1.07441
1.10362
1.18322
1.20538
1.22322
1.21782
1.20011
1.15519
1.08235
0.825017
1.01995
0.965007
0.990418
1.00979
1.00233
0.988916
0.996341
0.997622
0.949707
0.718021
0.977819
0.896698
0.923796
0.933602
0.917086
0.903412
0.915865
0.940885
0.932632
0.733802
0.92614
0.819076
0.839245
0.839688
0.818095
0.807512
0.836864
0.877114
0.885039
0.7227
0.875444
0.759679
0.769198
0.755885
0.724016
0.738453
0.77944
0.82586
0.841804
0.698388
0.836329
0.724943
0.732918
0.701096
0.679158
0.699594
0.749796
0.800377
0.81641
0.667437
0.828507
0.719055
0.726867
0.722313
0.690644
0.704547
0.755153
0.790459
0.788923
0.644795
0.803679
0.712528
0.73453
0.720412
0.705361
0.723593
0.736983
0.777665
0.784053
0.5989
0.78779
0.668929
0.679241
0.680345
0.680091
0.675782
0.712097
0.73912
0.698156
0.524632
0.635539
0.500553
0.515264
0.529277
0.536642
0.555368
0.566529
0.55914
0.520845
0.378362
1.33472
1.30768
1.33273
1.29926
1.24476
1.18385
1.13202
1.08134
1.06041
0.87799
1.24308
1.15105
1.13816
1.09621
1.03735
0.993687
0.965925
0.949065
0.902075
0.687072
1.19392
1.07651
1.04481
1.0192
0.972526
0.933171
0.929547
0.927421
0.893717
0.693324
1.07404
0.927203
0.925269
0.893397
0.860411
0.851265
0.865936
0.886067
0.874722
0.695136
0.972767
0.83141
0.812782
0.786875
0.758656
0.769058
0.813137
0.852186
0.847056
0.68932
0.894869
0.758059
0.753904
0.71359
0.696631
0.718428
0.766697
0.819992
0.835101
0.667915
0.868109
0.736347
0.730854
0.718028
0.687211
0.697331
0.752577
0.797237
0.798269
0.645424
0.842809
0.714396
0.728913
0.710516
0.690883
0.70845
0.723362
0.767691
0.776601
0.591006
0.82382
0.663775
0.663544
0.664854
0.661962
0.656491
0.692165
0.7206
0.680427
0.516439
0.664869
0.499992
0.506801
0.517302
0.521766
0.536265
0.546034
0.539872
0.512766
0.382299
1.07253
1.00596
1.03391
1.02778
1.0184
1.00043
0.981665
0.976012
0.998076
0.849511
0.939065
0.832433
0.845468
0.85006
0.840804
0.831161
0.818509
0.799161
0.76904
0.62314
0.899044
0.790193
0.802378
0.8136
0.805881
0.801304
0.808976
0.791991
0.755345
0.600722
0.855625
0.732396
0.753648
0.75013
0.750235
0.756752
0.777492
0.788058
0.756289
0.599618
0.823645
0.693819
0.687897
0.680664
0.696811
0.71749
0.756518
0.782807
0.758083
0.607194
0.793959
0.656924
0.652245
0.636911
0.671194
0.699278
0.737909
0.777218
0.771116
0.601809
0.796989
0.662281
0.664301
0.6757
0.677451
0.693209
0.743786
0.778336
0.759892
0.594548
0.792735
0.6695
0.690891
0.686918
0.683284
0.708781
0.726444
0.765232
0.757037
0.55693
0.808417
0.662123
0.665247
0.666784
0.665529
0.662174
0.696189
0.717518
0.664104
0.494933
0.691828
0.535808
0.542671
0.540717
0.535014
0.542417
0.544867
0.528511
0.491714
0.363956
1.07735
0.972753
0.959346
0.928317
0.914611
0.917188
0.935601
0.954861
0.978695
0.821833
0.922103
0.765583
0.73331
0.710661
0.691555
0.68727
0.708282
0.731433
0.729071
0.607749
0.863597
0.702374
0.678227
0.657444
0.638329
0.639141
0.659562
0.683117
0.694422
0.576849
0.821193
0.650539
0.627467
0.602242
0.586053
0.587691
0.61831
0.653983
0.65908
0.556815
0.797246
0.619767
0.589712
0.558167
0.536779
0.55327
0.586659
0.621974
0.639208
0.539387
0.789585
0.609469
0.578376
0.536927
0.519136
0.528647
0.563153
0.606015
0.622095
0.520171
0.806828
0.620754
0.5906
0.566784
0.532775
0.533422
0.566893
0.595189
0.604772
0.505465
0.808253
0.638058
0.617149
0.584562
0.559341
0.562812
0.565155
0.595174
0.604029
0.480222
0.812287
0.635465
0.609427
0.585402
0.565144
0.546766
0.563442
0.57653
0.552899
0.442762
0.683885
0.524124
0.51587
0.498253
0.477972
0.472185
0.466334
0.454324
0.436518
0.340926
1.16792
1.15469
1.15441
1.07502
1.01174
0.975679
0.961877
0.952503
0.947751
0.769318
1.09162
0.985605
0.898406
0.822381
0.753574
0.713242
0.71059
0.713564
0.686916
0.561118
1.03563
0.886251
0.810406
0.738577
0.673987
0.64549
0.639889
0.642686
0.640185
0.519939
0.974699
0.797293
0.726484
0.65735
0.598297
0.569689
0.582235
0.599562
0.583378
0.491138
0.920684
0.73587
0.668936
0.599807
0.536184
0.525547
0.536333
0.550068
0.555202
0.462454
0.882714
0.705557
0.643869
0.577642
0.526212
0.50133
0.513118
0.535024
0.530387
0.445892
0.858418
0.690817
0.634784
0.590237
0.533322
0.514898
0.525409
0.530418
0.530144
0.446873
0.811982
0.679855
0.634879
0.584146
0.546069
0.536363
0.526617
0.544665
0.547805
0.44736
0.764699
0.638106
0.601276
0.566074
0.538481
0.515745
0.527982
0.538741
0.523721
0.430384
0.606469
0.494046
0.487224
0.468245
0.447907
0.444187
0.443547
0.441015
0.43179
0.342158
0.882196
0.824726
0.837973
0.813439
0.787869
0.763513
0.741311
0.722758
0.729266
0.608208
0.774464
0.671095
0.659915
0.652558
0.633188
0.60883
0.605692
0.601846
0.570085
0.468977
0.737959
0.62836
0.639081
0.626298
0.6059
0.592373
0.570473
0.562459
0.555608
0.446433
0.71728
0.599227
0.599527
0.600065
0.586757
0.550441
0.544486
0.545026
0.516332
0.434098
0.673047
0.549706
0.569728
0.577701
0.566183
0.546484
0.526367
0.51877
0.513471
0.423928
0.650291
0.527797
0.538668
0.554181
0.561458
0.53812
0.527019
0.528657
0.50922
0.425613
0.634475
0.504435
0.519489
0.538332
0.538979
0.543559
0.543688
0.535337
0.523152
0.433924
0.610723
0.497091
0.502499
0.5093
0.523144
0.54771
0.536278
0.548902
0.540448
0.432437
0.590571
0.477038
0.47709
0.482449
0.498449
0.508751
0.520275
0.526058
0.503471
0.403401
0.490215
0.396221
0.403466
0.404963
0.409364
0.422343
0.419791
0.409489
0.390796
0.303393
1.13861
1.02347
0.974893
0.901026
0.831846
0.773836
0.731826
0.707042
0.711932
0.605362
0.978505
0.795303
0.730173
0.669291
0.606783
0.558053
0.546018
0.553054
0.536413
0.450171
0.885936
0.70491
0.657167
0.607221
0.551289
0.522921
0.527271
0.535884
0.527907
0.435479
0.803225
0.619003
0.593122
0.554713
0.515721
0.498178
0.521965
0.532349
0.502983
0.425989
0.735572
0.556305
0.541087
0.520575
0.491902
0.495963
0.517935
0.517865
0.500042
0.41441
0.700348
0.518461
0.504388
0.494146
0.484465
0.48683
0.51716
0.527048
0.495843
0.408989
0.688891
0.49598
0.47863
0.475398
0.464468
0.484665
0.529574
0.534459
0.50492
0.408673
0.676123
0.490179
0.463003
0.444751
0.446075
0.483594
0.520842
0.551713
0.520979
0.402056
0.672789
0.483463
0.441809
0.421859
0.418895
0.437376
0.495085
0.528907
0.486627
0.369013
0.563627
0.405524
0.377054
0.354661
0.345791
0.362085
0.390388
0.40241
0.370491
0.272951
0.525828
0.510294
0.515913
0.498296
0.492056
0.491506
0.503735
0.520717
0.542969
0.477722
0.483772
0.408677
0.39269
0.374948
0.363989
0.359572
0.371988
0.394497
0.416487
0.361305
0.490822
0.38662
0.364821
0.351823
0.339974
0.337321
0.355419
0.387652
0.4073
0.352264
0.495848
0.361358
0.342077
0.33432
0.328321
0.337594
0.371308
0.407213
0.413463
0.351689
0.487578
0.34073
0.328217
0.327915
0.330987
0.353697
0.395644
0.426452
0.418892
0.355651
0.468199
0.330923
0.324362
0.329324
0.343798
0.372178
0.416631
0.439592
0.427958
0.356675
0.463684
0.330215
0.327773
0.340985
0.35378
0.389258
0.443389
0.452369
0.432093
0.360021
0.456405
0.337854
0.339301
0.347376
0.368465
0.419477
0.458341
0.465223
0.44892
0.353936
0.455937
0.342175
0.342463
0.35771
0.384836
0.419841
0.462887
0.458921
0.421081
0.327279
0.396896
0.299743
0.308747
0.320761
0.334977
0.357172
0.368698
0.350403
0.322458
0.242549
0.880736
0.819439
0.764222
0.699581
0.641353
0.602016
0.588999
0.593845
0.59477
0.513585
0.814738
0.597938
0.521128
0.462446
0.417616
0.402442
0.397686
0.415493
0.440907
0.376923
0.706185
0.495696
0.429137
0.397805
0.366055
0.342771
0.357454
0.383515
0.399116
0.361133
0.594396
0.411186
0.386096
0.355156
0.331825
0.329061
0.339947
0.367592
0.395346
0.346675
0.530453
0.379687
0.349977
0.342989
0.334493
0.33387
0.359968
0.385703
0.391933
0.34486
0.488216
0.353388
0.349778
0.345337
0.347632
0.360446
0.37907
0.398539
0.413557
0.341317
0.472951
0.35578
0.349122
0.36242
0.363992
0.376954
0.401491
0.416005
0.417183
0.342476
0.455409
0.355637
0.363871
0.369431
0.38095
0.403377
0.402761
0.419538
0.431056
0.330644
0.448127
0.353184
0.359908
0.372851
0.388996
0.389124
0.39926
0.411733
0.396038
0.299095
0.38047
0.298413
0.309786
0.321973
0.3275
0.330711
0.328309
0.323107
0.305633
0.224687
0.278519
0.284215
0.313861
0.337472
0.361317
0.363948
0.373878
0.381366
0.36833
0.304509
0.266551
0.237261
0.250777
0.260971
0.271548
0.283814
0.303178
0.321677
0.327528
0.2572
0.261489
0.224877
0.229748
0.238545
0.243941
0.248974
0.274504
0.302207
0.304798
0.262868
0.263431
0.21626
0.225885
0.228993
0.229735
0.241896
0.261078
0.284644
0.300722
0.252647
0.270269
0.224064
0.228029
0.238257
0.240838
0.245548
0.270993
0.292343
0.289791
0.249878
0.27891
0.230433
0.245938
0.252032
0.25589
0.266543
0.282308
0.296372
0.298505
0.243199
0.295559
0.24781
0.256139
0.269438
0.268517
0.273749
0.29704
0.306006
0.291354
0.240314
0.300598
0.256762
0.269524
0.272858
0.273236
0.28677
0.294733
0.299005
0.293428
0.22981
0.303385
0.254101
0.263686
0.266857
0.268921
0.269901
0.281733
0.283494
0.264974
0.209939
0.256363
0.210492
0.220314
0.223571
0.222702
0.226681
0.227095
0.219915
0.208701
0.162203
0.594911
0.50975
0.490323
0.46777
0.449119
0.428318