/*--------------------------------*- C++ -*----------------------------------*\
| =========                 |                                                 |
| \\      /  F ield         | OpenFOAM: The Open Source CFD Toolbox           |
|  \\    /   O peration     | Version:  2406                                  |
|   \\  /    A nd           | Website:  www.openfoam.com                      |
|    \\/     M anipulation  |                                                 |
\*---------------------------------------------------------------------------*/
FoamFile
{
    version     2.0;
    format      ascii;
    arch        "LSB;label=32;scalar=64";
    class       volScalarField;
    location    "0.4";
    object      magR;
}
// * * * * * * * * * * * * * * * * * * * * * * * * * * * * * * * * * * * * * //

dimensions      [0 2 -2 0 0 0 0];

internalField   uniform 0;

boundaryField
{
    walls
    {
        type            calculated;
        value           nonuniform List<scalar> 
2000
(
5.20542e-07
7.25991e-07
9.48829e-07
1.13266e-06
1.23654e-06
1.23729e-06
1.13495e-06
9.52304e-07
7.2947e-07
5.23258e-07
1.50305e-07
1.80447e-07
2.14422e-07
2.42219e-07
2.57565e-07
2.57009e-07
2.4048e-07
2.11322e-07
1.76026e-07
1.4504e-07
3.64361e-08
2.94152e-08
2.39925e-08
2.02668e-08
1.80687e-08
1.71896e-08
1.75255e-08
1.90323e-08
2.20295e-08
2.67568e-08
5.30275e-08
3.72692e-08
2.51041e-08
1.71455e-08
1.28892e-08
1.13625e-08
1.22369e-08
1.56954e-08
2.28236e-08
3.37213e-08
4.54451e-08
2.44999e-08
1.1572e-08
5.20892e-09
2.78335e-09
2.17213e-09
2.79488e-09
5.19874e-09
1.16108e-08
2.24979e-08
5.76279e-08
2.9395e-08
1.31161e-08
6.14604e-09
3.78131e-09
3.2729e-09
3.79788e-09
5.67966e-09
1.11178e-08
1.88241e-08
4.97922e-08
2.21327e-08
8.0908e-09
3.38846e-09
2.21587e-09
1.94939e-09
1.69832e-09
1.77718e-09
3.89088e-09
8.43705e-09
2.23139e-08
5.65112e-09
5.41118e-10
2.31121e-10
1.072e-09
1.64698e-09
9.61941e-10
9.63274e-11
2.7401e-10
3.76704e-09
4.10512e-09
1.3222e-10
3.25989e-10
3.41589e-09
7.97331e-09
9.5445e-09
8.11215e-09
4.58761e-09
9.60513e-10
4.30964e-11
1.04752e-09
1.30695e-11
2.43874e-09
1.13041e-08
2.65651e-08
4.47037e-08
5.18701e-08
4.45948e-08
2.74465e-08
1.01534e-08
9.89876e-10
1.5211e-10
6.89685e-09
2.95522e-08
7.47738e-08
1.18393e-07
1.38034e-07
1.23352e-07
8.23074e-08
3.98495e-08
1.43318e-09
3.51079e-10
1.31273e-08
5.85334e-08
1.32721e-07
1.96624e-07
2.17373e-07
1.80198e-07
1.10719e-07
5.06697e-08
2.91245e-09
2.33588e-10
1.32247e-08
5.56468e-08
1.33667e-07
1.90878e-07
1.92478e-07
1.46678e-07
7.9811e-08
3.01108e-08
4.66051e-09
7.03516e-10
6.52445e-09
3.20378e-08
7.05269e-08
9.83235e-08
9.69154e-08
6.67406e-08
3.00059e-08
7.49922e-09
8.8514e-10
2.52595e-09
9.58711e-09
2.54307e-08
4.47422e-08
5.67755e-08
5.35139e-08
3.56503e-08
1.6243e-08
4.06648e-09
1.00762e-08
2.58347e-08
4.2608e-08
5.63615e-08
5.99991e-08
5.069e-08
3.28068e-08
1.45419e-08
6.08229e-09
7.34787e-09
4.53608e-08
9.20162e-08
1.40523e-07
1.62761e-07
1.42082e-07
9.42687e-08
4.30492e-08
9.695e-09
1.42266e-09
7.58064e-11
5.19606e-08
1.17636e-07
1.92407e-07
2.45313e-07
2.50841e-07
2.06739e-07
1.38375e-07
7.86962e-08
3.73077e-08
1.23102e-08
6.50878e-08
1.30886e-07
1.90584e-07
2.37471e-07
2.47903e-07
2.21981e-07
1.72618e-07
1.16329e-07
6.82672e-08
2.93555e-08
5.92825e-08
1.13093e-07
1.56355e-07
1.87271e-07
1.88488e-07
1.64318e-07
1.2612e-07
8.38419e-08
4.86639e-08
1.88269e-08
4.30729e-08
8.60997e-08
1.2683e-07
1.51917e-07
1.49306e-07
1.24872e-07
9.19476e-08
5.85851e-08
3.18795e-08
1.0503e-08
4.08301e-08
9.58369e-08
1.64539e-07
2.19053e-07
2.33103e-07
2.02922e-07
1.46189e-07
8.38629e-08
3.61074e-08
8.45587e-09
9.06523e-09
4.31091e-08
1.04519e-07
1.6618e-07
1.95792e-07
1.71172e-07
1.09265e-07
4.66371e-08
1.37467e-08
1.36854e-09
5.39788e-10
1.13502e-08
3.81114e-08
9.44523e-08
1.2767e-07
1.14228e-07
6.84246e-08
2.80154e-08
6.1256e-09
2.30977e-09
1.07676e-09
6.16969e-09
3.90067e-08
1.1044e-07
1.73591e-07
1.72423e-07
1.07855e-07
4.01026e-08
8.40907e-09
6.35051e-11
1.04991e-07
1.75876e-08
3.05641e-09
6.67789e-09
1.3595e-08
1.4757e-08
1.16959e-08
1.06624e-08
2.33449e-08
3.53378e-08
6.44713e-07
4.19493e-07
2.89573e-07
2.12222e-07
1.68739e-07
1.50099e-07
1.4738e-07
1.38169e-07
1.32413e-07
8.92024e-08
1.09509e-06
9.6132e-07
8.12909e-07
6.70181e-07
5.1501e-07
3.62709e-07
2.27642e-07
1.18334e-07
6.34619e-08
2.49931e-08
8.41575e-07
9.507e-07
8.7806e-07
6.57349e-07
3.84861e-07
1.64603e-07
5.03721e-08
2.06029e-08
4.15754e-08
4.85521e-08
7.17764e-08
1.41759e-07
2.02937e-07
2.01606e-07
1.39005e-07
6.51431e-08
1.7877e-08
1.87526e-09
7.34894e-11
2.02e-09
1.17105e-08
2.61476e-08
4.53747e-08
6.69921e-08
8.35008e-08
9.28429e-08
9.2143e-08
6.94221e-08
4.88969e-08
1.95997e-08
2.00825e-07
3.82367e-07
4.06897e-07
4.60614e-07
4.22468e-07
3.45994e-07
2.65023e-07
1.65099e-07
1.14424e-07
4.05617e-08
1.64749e-07
2.78053e-07
2.77073e-07
3.07606e-07
3.02058e-07
2.72749e-07
2.22293e-07
1.42284e-07
7.86996e-08
1.77734e-08
8.75484e-08
2.34312e-07
3.50106e-07
4.52377e-07
4.35091e-07
3.41193e-07
1.99753e-07
8.31548e-08
2.36411e-08
1.5567e-08
6.95142e-07
1.11123e-06
9.51485e-07
8.0674e-07
5.61096e-07
3.79762e-07
2.48168e-07
1.58457e-07
1.24792e-07
8.35844e-08
3.52176e-07
3.90278e-07
2.02592e-07
1.2246e-07
6.78835e-08
3.69806e-08
2.90594e-08
4.63548e-08
9.4463e-08
7.49322e-08
1.05628e-06
9.53006e-07
3.86413e-07
5.43842e-08
4.47778e-08
5.90515e-07
1.90167e-06
2.41379e-06
1.08491e-06
1.82443e-07
7.54119e-07
9.72566e-07
8.75428e-07
6.12164e-07
2.28056e-07
2.30644e-08
6.20117e-08
3.92861e-07
7.95392e-07
7.76071e-07
1.77126e-07
4.27602e-07
7.76292e-07
1.36302e-06
1.75701e-06
1.749e-06
1.41665e-06
1.00153e-06
7.33307e-07
6.03177e-07
2.92316e-06
4.22335e-06
3.90556e-06
3.54292e-06
3.05849e-06
3.29756e-06
3.78442e-06
3.76016e-06
2.91048e-06
1.31902e-06
1.60876e-05
1.95624e-05
2.07083e-05
2.87764e-05
4.26115e-05
6.09987e-05
7.50914e-05
7.61776e-05
6.14424e-05
2.80433e-05
0.000100043
0.000122707
0.000150898
0.000191082
0.000218222
0.000211566
0.000170965
0.000119
7.21271e-05
1.93594e-05
0.00029328
0.000378742
0.000481088
0.000579899
0.000619155
0.000569748
0.000455445
0.000323236
0.000211956
0.000153164
0.000252826
0.000328465
0.000422795
0.000508292
0.000533326
0.000474193
0.000361043
0.000239911
0.000139656
7.7394e-05
7.69778e-05
0.000106456
0.000159156
0.000216748
0.000243275
0.000213515
0.00014252
7.17861e-05
2.69122e-05
9.31159e-06
0.000184136
0.000286016
0.000457564
0.00069063
0.000918995
0.00104581
0.00101133
0.000833336
0.000600281
0.000409273
0.0019572
0.00302619
0.00444878
0.00597681
0.0072383
0.00782332
0.00749484
0.006295
0.00468548
0.00312522
0.00359141
0.0058971
0.00853194
0.0105044
0.0111885
0.0105445
0.00894262
0.00684337
0.00477954
0.00311564
0.00211637
0.00329156
0.00455023
0.00550788
0.00590931
0.00570215
0.00495801
0.00385762
0.00269056
0.00173606
0.00181439
0.0024981
0.00331048
0.00412084
0.00487377
0.00538834
0.00544118
0.00493488
0.00398735
0.00281434
5.26147e-07
7.36149e-07
9.62526e-07
1.14742e-06
1.24984e-06
1.24724e-06
1.14073e-06
9.54582e-07
7.28977e-07
5.21675e-07
1.2979e-07
1.61428e-07
2.00199e-07
2.34707e-07
2.5656e-07
2.61049e-07
2.47464e-07
2.19385e-07
1.83485e-07
1.5119e-07
1.69884e-08
1.36843e-08
1.24441e-08
1.28148e-08
1.42643e-08
1.66982e-08
2.00232e-08
2.42194e-08
2.95949e-08
3.60279e-08
2.17491e-08
1.3886e-08
9.34229e-09
7.59994e-09
7.73755e-09
9.77849e-09
1.42557e-08
2.21424e-08
3.46246e-08
5.06776e-08
1.46945e-08
5.73471e-09
1.80344e-09
6.28004e-10
4.21667e-10
8.14018e-10
2.63968e-09
8.31443e-09
2.17426e-08
4.34922e-08
7.6905e-09
2.70754e-09
6.64349e-10
1.55193e-10
1.65339e-10
6.75102e-10
3.15117e-09
1.12936e-08
3.06929e-08
5.97982e-08
6.77214e-11
3.3368e-11
2.55178e-11
5.27821e-11
1.7095e-10
7.74244e-10
3.56136e-09
1.21447e-08
3.11053e-08
5.80059e-08
3.28953e-09
3.66335e-09
2.87458e-09
1.92616e-09
1.05617e-09
6.90271e-10
1.4691e-09
5.12972e-09
1.42466e-08
2.94072e-08
2.17474e-08
3.35468e-08
3.45222e-08
2.46885e-08
1.23645e-08
5.19033e-09
1.02901e-09
5.88094e-12
6.5056e-10
5.12981e-09
3.16376e-08
6.62696e-08
9.02365e-08
8.93704e-08
6.81379e-08
3.75272e-08
1.38606e-08
3.33686e-09
8.57038e-11
8.56824e-10
2.76148e-08
7.00631e-08
1.13719e-07
1.31354e-07
1.14752e-07
7.43904e-08
3.21212e-08
7.98145e-09
3.75896e-10
8.98756e-10
2.71976e-08
7.06938e-08
1.19387e-07
1.44166e-07
1.29677e-07
8.37194e-08
3.37277e-08
7.41835e-09
1.27912e-10
1.90941e-09
2.26561e-08
6.56014e-08
1.20096e-07
1.54642e-07
1.4387e-07
9.26431e-08
3.86487e-08
8.52283e-09
1.93779e-10
3.20883e-09
2.24488e-08
7.28177e-08
1.44969e-07
1.99384e-07
1.97703e-07
1.3885e-07
6.42538e-08
1.82264e-08
6.41348e-10
1.89591e-09
3.01909e-08
9.08238e-08
1.76752e-07
2.4999e-07
2.65022e-07
2.09467e-07
1.17391e-07
5.02981e-08
8.94774e-09
9.77798e-11
2.55967e-08
7.63966e-08
1.52225e-07
2.37272e-07
2.8718e-07
2.69196e-07
1.96971e-07
1.21118e-07
5.83006e-08
1.61968e-08
1.00038e-08
5.27746e-08
1.34273e-07
2.3684e-07
3.23256e-07
3.50795e-07
3.06307e-07
2.16026e-07
1.21616e-07
5.06543e-08
9.14127e-10
1.56447e-08
7.11744e-08
1.73951e-07
2.83862e-07
3.43992e-07
3.23088e-07
2.3549e-07
1.33412e-07
5.30954e-08
1.38078e-09
4.47946e-09
3.19567e-08
1.03287e-07
2.01806e-07
2.79562e-07
2.9696e-07
2.43401e-07
1.59483e-07
7.09344e-08
1.73144e-09
1.23188e-08
4.6882e-08
1.07162e-07
1.78017e-07
2.31958e-07
2.44224e-07
2.06173e-07
1.40709e-07
6.84143e-08
2.527e-08
6.10889e-08
1.09699e-07
1.67953e-07
2.21346e-07
2.48154e-07
2.30757e-07
1.75812e-07
1.06957e-07
5.00405e-08
5.69699e-08
1.39433e-07
2.48672e-07
3.56673e-07
4.24164e-07
4.22618e-07
3.50833e-07
2.381e-07
1.27014e-07
4.87427e-08
3.06894e-08
9.73024e-08
1.91634e-07
2.77207e-07
3.23097e-07
3.05165e-07
2.31952e-07
1.34235e-07
5.44778e-08
1.19093e-08
1.19448e-07
2.33591e-07
3.11595e-07
3.3606e-07
2.93848e-07
2.06255e-07
1.06102e-07
2.86305e-08
8.90898e-09
3.45399e-10
3.3834e-07
5.6021e-07
6.04023e-07
5.9018e-07
4.72428e-07
3.09335e-07
1.49577e-07
4.2333e-08
4.20583e-09
2.5322e-09
1.12878e-08
1.82643e-08
1.77275e-08
1.82082e-08
1.23901e-08
3.72045e-09
2.48571e-10
1.33091e-08
7.58389e-08
1.60489e-07
1.96982e-08
3.29972e-08
3.38562e-08
3.93039e-08
5.79147e-08
1.18343e-07
2.57687e-07
4.8219e-07
7.45629e-07
8.5762e-07
4.10989e-08
6.80315e-08
6.7619e-08
6.05911e-08
5.83447e-08
1.0865e-07
2.68873e-07
5.49825e-07
8.97047e-07
1.15913e-06
1.50001e-08
3.25401e-08
4.69813e-08
5.01683e-08
3.71277e-08
2.6397e-08
4.69147e-08
1.32536e-07
3.14181e-07
5.97026e-07
1.00983e-08
1.21351e-08
2.02307e-08
2.71709e-08
2.93617e-08
2.32783e-08
1.48692e-08
8.65132e-09
1.123e-08
3.06086e-08
4.41074e-07
3.41094e-07
1.95276e-07
1.18192e-07
6.58083e-08
3.7388e-08
2.13519e-08
1.1503e-08
8.02018e-09
6.52465e-09
5.93219e-07
9.86748e-07
1.11006e-06
1.2642e-06
1.22354e-06
1.05828e-06
8.5265e-07
5.85257e-07
4.13633e-07
1.7775e-07
2.74277e-08
1.04633e-07
2.20071e-07
4.28111e-07
6.25157e-07
7.4556e-07
7.46684e-07
6.01346e-07
4.36026e-07
2.10865e-07
2.7202e-09
5.01814e-09
4.25296e-08
8.03894e-08
7.34598e-08
4.79771e-08
4.32159e-08
5.39283e-08
8.57737e-08
8.17608e-08
7.63235e-09
4.54298e-08
1.72706e-07
4.02653e-07
8.43751e-07
1.46411e-06
1.91891e-06
1.89309e-06
1.80036e-06
9.53524e-07
1.33141e-07
5.3649e-07
1.2331e-06
2.43855e-06
3.58928e-06
4.19704e-06
3.98686e-06
3.04781e-06
2.26752e-06
8.30882e-07
1.04397e-07
3.49646e-07
8.74e-07
1.8262e-06
3.01226e-06
4.08439e-06
4.53722e-06
4.1225e-06
3.51217e-06
1.94927e-06
8.67093e-08
4.81501e-08
1.56909e-07
3.68861e-07
6.01673e-07
8.26591e-07
1.01914e-06
1.07504e-06
1.14955e-06
8.94183e-07
1.14427e-06
5.98227e-07
2.33074e-07
1.1858e-07
8.63932e-08
9.42375e-08
1.33382e-07
1.68585e-07
2.2425e-07
1.4853e-07
4.90646e-06
6.66103e-06
6.94524e-06
6.63968e-06
6.32733e-06
6.05406e-06
5.9023e-06
5.4297e-06
4.99091e-06
3.13194e-06
1.99339e-05
3.26104e-05
4.27494e-05
4.46757e-05
4.05447e-05
3.84616e-05
3.77193e-05
3.52622e-05
3.1084e-05
2.23279e-05
0.00019929
0.000318535
0.000452032
0.000522422
0.000495038
0.00042563
0.000355999
0.000284089
0.000207655
0.000135841
0.000359563
0.000613852
0.000914723
0.00116173
0.00122825
0.00113563
0.000985872
0.000794931
0.000572114
0.000368803
4.1386e-05
0.000173724
0.000414069
0.000639247
0.000745116
0.000748478
0.000712667
0.000612772
0.00045575
0.000306849
9.63656e-06
3.98623e-06
4.02824e-05
0.000230369
0.000405545
0.000390108
0.000296974
0.000208678
0.000139628
9.54046e-05
0.000649346
0.000228654
0.0001109
0.000350161
0.000761158
0.000882242
0.000762934
0.000563297
0.000380219
0.000238611
0.00132698
0.0004394
0.00106211
0.0026647
0.00435099
0.00491974
0.00453958
0.00371747
0.0027891
0.00199089
0.000847182
0.00161279
0.00371165
0.00615943
0.00781249
0.00797573
0.0070459
0.0056641
0.00434362
0.00316886
0.000889961
0.0024856
0.00409056
0.00507282
0.00514245
0.00429565
0.00290157
0.00204969
0.00189777
0.00168547
0.00209733
0.0031419
0.00312507
0.0031402
0.00350632
0.00372323
0.00319293
0.00254073
0.00212422
0.00171968
5.23875e-07
7.28943e-07
9.50992e-07
1.13328e-06
1.23595e-06
1.23627e-06
1.13413e-06
9.52008e-07
7.29771e-07
5.24583e-07
1.39649e-07
1.71022e-07
2.07987e-07
2.39031e-07
2.56912e-07
2.57259e-07
2.39411e-07
2.07008e-07
1.67224e-07
1.32679e-07
1.71706e-08
1.42423e-08
1.30896e-08
1.30392e-08
1.35464e-08
1.43816e-08
1.53077e-08
1.6216e-08
1.72011e-08
1.87979e-08
1.06121e-08
6.87464e-09
5.16772e-09
4.881e-09
5.50357e-09
7.02139e-09
9.4852e-09
1.29956e-08
1.78809e-08
2.37516e-08
1.18567e-09
5.69334e-10
5.10225e-10
6.41126e-10
6.21247e-10
6.57928e-10
1.2176e-09
3.12989e-09
7.88686e-09
1.57084e-08
7.69384e-12
1.01921e-10
6.45295e-10
1.26275e-09
1.28428e-09
6.89523e-10
1.0068e-10
1.58091e-11
1.02823e-09
5.78847e-09
3.20449e-10
2.51271e-09
8.84174e-09
1.93692e-08
2.87316e-08
3.17925e-08
2.60282e-08
1.46367e-08
4.09498e-09
1.52427e-10
8.75483e-10
5.88731e-09
2.28655e-08
5.40408e-08
8.7019e-08
1.05554e-07
9.90993e-08
7.10444e-08
3.59644e-08
9.65026e-09
1.3161e-10
5.7982e-09
3.05399e-08
7.49957e-08
1.23592e-07
1.54622e-07
1.52676e-07
1.17263e-07
6.94746e-08
2.88863e-08
3.1033e-11
3.00742e-09
2.08621e-08
6.06004e-08
1.05039e-07
1.34033e-07
1.35816e-07
1.09019e-07
6.7875e-08
3.00175e-08
5.34889e-10
5.76491e-10
9.25621e-09
3.08202e-08
6.61275e-08
9.37797e-08
1.01029e-07
8.50462e-08
5.46469e-08
2.41575e-08
1.09377e-09
1.90732e-10
6.75576e-09
2.4587e-08
5.84056e-08
9.0482e-08
1.02342e-07
8.9075e-08
5.82779e-08
2.55582e-08
2.7683e-10
1.31611e-09
1.47206e-08
4.28608e-08
9.22471e-08
1.33694e-07
1.42924e-07
1.15378e-07
6.60964e-08
2.39763e-08
5.86364e-10
9.96561e-09
4.25653e-08
9.77973e-08
1.61748e-07
1.97187e-07
1.82849e-07
1.27962e-07
6.4151e-08
2.15594e-08
2.77964e-09
2.44784e-08
7.63586e-08
1.48942e-07
2.09865e-07
2.28019e-07
1.94238e-07
1.30069e-07
6.82786e-08
2.57291e-08
5.28694e-09
3.50676e-08
9.7177e-08
1.74511e-07
2.29464e-07
2.36524e-07
1.94745e-07
1.26929e-07
6.40463e-08
2.1672e-08
5.75336e-09
3.73412e-08
9.83636e-08
1.66712e-07
2.07954e-07
2.031e-07
1.56747e-07
9.2397e-08
3.768e-08
7.54137e-09
3.63835e-09
2.91742e-08
7.6206e-08
1.24311e-07
1.46792e-07
1.31238e-07
8.7124e-08
3.73219e-08
5.91122e-09
3.05554e-10
5.97186e-09
2.23334e-08
4.47084e-08
6.23195e-08
6.39208e-08
4.85163e-08
2.57204e-08
8.23368e-09
4.61066e-10
1.29093e-09
6.09983e-09
1.7441e-08
2.92548e-08
3.91908e-08
4.16893e-08
3.64407e-08
2.5627e-08
1.411e-08
5.49806e-09
1.11086e-09
2.94799e-09
1.22453e-08
2.46036e-08
3.74206e-08
4.66585e-08
5.11307e-08
5.06596e-08
4.52879e-08
3.61629e-08
2.13477e-08
1.03122e-10
5.84546e-09
2.22784e-08
5.16195e-08
8.64839e-08
1.15029e-07
1.28211e-07
1.17385e-07
8.71649e-08
4.59386e-08
2.05652e-08
2.99915e-09
2.5562e-09
1.19893e-08
2.49828e-08
3.35186e-08
3.64811e-08
3.78596e-08
3.06956e-08
1.51406e-08
1.45651e-07
9.43929e-08
5.34072e-08
4.58124e-08
5.64362e-08
7.62731e-08
9.68392e-08
1.04566e-07
1.07711e-07
7.59379e-08
1.20107e-07
8.23994e-08
7.11398e-08
9.58012e-08
1.62538e-07
2.67347e-07
3.88985e-07
4.50027e-07
4.55343e-07
3.01546e-07
7.17361e-09
1.47451e-08
3.00675e-08
5.82231e-08
9.84457e-08
1.35696e-07
1.47901e-07
1.20441e-07
7.24122e-08
2.45532e-08
2.15987e-07
2.68805e-07
2.80981e-07
2.98158e-07
2.86612e-07
2.53794e-07
2.00594e-07
1.34574e-07
7.50447e-08
2.65152e-08
6.21162e-07
8.62003e-07
1.01225e-06
1.06466e-06
9.53155e-07
7.24552e-07
4.68141e-07
2.57387e-07
1.33586e-07
5.06019e-08
9.11135e-07
1.34044e-06
1.57058e-06
1.54626e-06
1.2985e-06
8.75521e-07
4.63309e-07
1.76307e-07
5.40189e-08
1.44562e-08
9.49983e-07
2.15257e-06
3.40823e-06
4.27161e-06
4.28362e-06
3.47797e-06
2.24629e-06
1.08123e-06
3.50282e-07
5.90327e-08
6.94089e-08
3.81576e-07
1.03457e-06
2.22491e-06
3.67658e-06
4.79397e-06
4.88366e-06
3.73659e-06
2.18444e-06
8.24473e-07
8.45763e-08
5.25493e-08
4.67059e-08
1.40768e-07
4.14839e-07
9.16383e-07
1.47187e-06
1.6372e-06
1.40704e-06
6.85645e-07
2.93206e-07
3.28979e-07
2.54147e-07
1.64739e-07
9.95581e-08
8.08556e-08
9.09183e-08
9.21398e-08
8.15466e-08
3.51936e-08
4.70836e-07
7.55673e-07
7.70155e-07
5.3208e-07
2.03806e-07
4.05034e-08
9.22706e-09
2.23012e-08
3.94864e-08
2.47133e-08
3.69523e-07
6.30359e-07
8.82308e-07
9.01774e-07
7.03057e-07
5.675e-07
6.31746e-07
7.18513e-07
5.98299e-07
2.23712e-07
1.8236e-07
4.9663e-07
1.06674e-06
1.64388e-06
2.03514e-06
2.1795e-06
2.17641e-06
1.87035e-06
1.16234e-06
3.63054e-07
6.56589e-08
1.18624e-07
4.02732e-07
1.06227e-06
1.89482e-06
2.47736e-06
2.3894e-06
1.7292e-06
8.81802e-07
3.16253e-07
3.26842e-08
4.263e-08
3.31437e-08
8.53519e-09
3.0535e-08
1.80184e-07
4.34877e-07
5.61939e-07
4.38895e-07
2.75586e-07
1.3674e-06
1.69906e-06
8.0114e-07
4.07627e-07
1.62882e-07
1.1331e-07
3.60933e-07
8.87825e-07
1.33911e-06
1.4075e-06
3.31048e-06
8.36415e-06
1.14208e-05
1.29456e-05
1.11339e-05
6.57716e-06
2.52287e-06
1.21377e-06
1.79875e-06
3.1965e-06
1.16353e-06
3.67684e-06
8.732e-06
1.74442e-05
3.19872e-05
4.50058e-05
4.69895e-05
3.72568e-05
2.5788e-05
1.68924e-05
2.87159e-06
9.22291e-06
2.83221e-05
9.55475e-05
0.000240064
0.000404331
0.000483565
0.000426944
0.000301161
0.000186724
0.000357719
0.000245391
0.000120116
2.74225e-05
3.81795e-07
1.88942e-05
0.00014545
0.000316366
0.000349601
0.000288468
0.00356752
0.00304686
0.00264541
0.00226272
0.00163286
0.000869312
0.00028686
3.83786e-05
1.08386e-06
6.74147e-06
0.00360826
0.00153162
0.000911753
0.000970599
0.00140839
0.00184997
0.00173175
0.00112488
0.000508032
8.17075e-05
0.000858645
5.98589e-06
9.77984e-05
0.000148902
2.71201e-05
0.000159051
0.000581232
0.00136166
0.0020973
0.0013342
0.000390984
3.04528e-06
0.00187689
0.00455038
0.00503654
0.00371366
0.00329886
0.00359803
0.00455688
0.00357654
0.0040541
0.00234096
0.00020543
0.00413187
0.00652918
0.00771671
0.00768831
0.0081013
0.00691421
0.00283466
0.0124346
0.0192598
0.00342936
0.000417081
0.00414749
0.00684105
0.00822354
0.0087359
0.00478589
0.00139464
0.0120723
0.0363713
0.0228527
0.00123357
0.000286152
0.00404624
0.00748641
0.00771065
0.00375884
0.00177983
5.23076e-07
7.28971e-07
9.52866e-07
1.13772e-06
1.24272e-06
1.24391e-06
1.14106e-06
9.57089e-07
7.32681e-07
5.24983e-07
1.45506e-07
1.77175e-07
2.13165e-07
2.42231e-07
2.57947e-07
2.56729e-07
2.38822e-07
2.08103e-07
1.71528e-07
1.39987e-07
2.76671e-08
2.38324e-08
2.11441e-08
1.90873e-08
1.75671e-08
1.65383e-08
1.59887e-08
1.59496e-08
1.65649e-08
1.84251e-08
3.57409e-08
2.61481e-08
1.8539e-08
1.30362e-08
9.54138e-09
7.64577e-09
7.01919e-09
7.50037e-09
9.00336e-09
1.18868e-08
2.12613e-08
9.51729e-09
3.05886e-09
6.11262e-10
5.97222e-11
2.64641e-11
5.62081e-11
8.08733e-11
2.6197e-10
9.71241e-10
1.2775e-08
3.0708e-09
5.85844e-10
1.64639e-09
4.69262e-09
7.81158e-09
7.84242e-09
4.39081e-09
9.74241e-10
1.11093e-11
4.39558e-09
1.44299e-09
4.83831e-09
1.5237e-08
2.68249e-08
3.07327e-08
2.36234e-08
1.12331e-08
2.77554e-09
2.64856e-10
2.42173e-09
7.57074e-11
3.00649e-09
1.36258e-08
2.63565e-08
2.96368e-08
2.16789e-08
9.95052e-09
3.20876e-09
9.85057e-10
1.13185e-10
5.65033e-10
3.77288e-09
9.51835e-09
1.37435e-08
1.35171e-08
1.01646e-08
4.27244e-09
6.77206e-10
8.07131e-11
7.93476e-09
1.80394e-08
2.62482e-08
2.91677e-08
2.54961e-08
1.77937e-08
9.27119e-09
2.67501e-09
1.13943e-10
2.22456e-10
3.74382e-08
7.19732e-08
9.53991e-08
9.51771e-08
7.20521e-08
3.75481e-08
1.4732e-08
2.96483e-09
1.68077e-11
1.10175e-09
5.12649e-08
1.12527e-07
1.75615e-07
1.98222e-07
1.63495e-07
9.88572e-08
3.73207e-08
8.23113e-09
2.03057e-10
1.16618e-09
3.60089e-08
1.07881e-07
1.97687e-07
2.48432e-07
2.26533e-07
1.51769e-07
6.91293e-08
1.9187e-08
1.5616e-09
3.57744e-10
1.21036e-08
6.61797e-08
1.58731e-07
2.24177e-07
2.19948e-07
1.58075e-07
8.44013e-08
3.111e-08
6.26785e-09
6.91042e-10
2.156e-09
1.66409e-08
6.46783e-08
1.15595e-07
1.46129e-07
1.247e-07
7.7583e-08
3.4077e-08
1.02655e-08
1.76439e-09
7.95097e-09
3.38972e-09
1.22376e-08
4.2234e-08
7.2781e-08
7.61769e-08
5.5372e-08
2.85867e-08
1.09362e-08
2.6358e-09
3.0204e-10
2.42842e-09
1.30981e-08
3.57866e-08
5.82639e-08
6.39558e-08
5.0245e-08
2.8499e-08
1.10813e-08
2.47983e-09
1.28418e-08
3.73626e-08
6.59219e-08
8.84134e-08
9.47106e-08
8.20732e-08
5.75757e-08
3.15544e-08
1.16507e-08
2.23423e-09
3.07133e-08
7.11597e-08
1.1404e-07
1.41405e-07
1.41978e-07
1.20903e-07
8.71831e-08
5.1691e-08
2.29275e-08
5.88698e-09
1.8387e-08
4.87977e-08
8.29811e-08
1.08581e-07
1.13401e-07
9.9194e-08
7.32562e-08
4.41396e-08
2.08728e-08
6.17985e-09
9.35613e-09
2.70168e-08
4.49487e-08
5.62959e-08
5.25745e-08
3.99036e-08
2.4963e-08
1.35463e-08
7.04683e-09
1.91416e-09
6.89888e-09
2.49642e-08
4.87109e-08
6.89273e-08
7.00951e-08
5.64594e-08
3.66368e-08
1.78331e-08
4.7001e-09
1.84943e-10
1.48697e-09
7.77724e-09
1.99116e-08
3.2596e-08
3.51587e-08
2.72901e-08
1.5207e-08
6.58128e-09
6.44698e-09
2.15385e-08
6.12116e-09
4.96406e-09
8.92019e-09
1.79886e-08
2.25366e-08
1.89323e-08
1.12803e-08
7.67078e-09
2.32505e-08
8.58657e-08
2.5272e-10
4.18442e-09
1.61393e-08
2.89208e-08
3.18401e-08
2.39607e-08
1.27937e-08
9.54488e-09
2.34168e-08
7.87167e-08
3.33426e-08
3.25046e-08
3.63708e-08
5.31641e-08
6.40622e-08
6.89327e-08
6.37917e-08
5.07551e-08
3.28462e-08
1.40904e-08
3.40824e-08
1.79062e-08
1.64087e-08
3.94777e-08
7.72605e-08
1.34406e-07
2.0802e-07
2.77805e-07
3.29605e-07
2.69072e-07
1.79637e-08
5.78686e-08
1.20449e-07
2.37862e-07
3.67599e-07
4.92059e-07
5.87929e-07
6.40193e-07
6.82074e-07
5.80362e-07
8.53944e-08
1.81004e-07
2.16442e-07
2.24584e-07
1.82582e-07
1.52472e-07
1.81179e-07
2.85712e-07
4.26462e-07
5.45468e-07
3.87801e-08
1.41075e-07
1.9272e-07
1.73865e-07
1.16972e-07
6.4782e-08
4.58219e-08
1.09116e-07
2.26746e-07
3.7289e-07
1.79733e-08
3.15843e-08
5.18243e-08
8.54518e-08
9.49584e-08
7.05459e-08
3.7114e-08
2.00355e-08
1.46347e-08
1.20497e-08
5.84743e-08
1.34257e-07
1.17757e-07
1.02294e-07
6.34692e-08
3.37938e-08
1.24433e-08
3.19062e-09
1.63692e-08
6.51345e-08
2.85364e-08
8.92189e-08
1.27373e-07
1.56687e-07
1.30548e-07
8.16118e-08
4.23728e-08
2.32927e-08
4.08409e-08
1.29078e-07
2.74056e-08
2.33149e-08
3.56321e-08
5.30803e-08
6.64397e-08
6.82863e-08
6.18882e-08
3.97028e-08
4.98034e-08
1.35881e-07
7.95585e-08
9.37754e-08
3.78786e-08
9.63568e-09
2.78043e-09
9.26028e-09
2.63845e-08
5.07205e-08
9.41664e-08
1.56215e-07
9.37486e-08
1.35847e-07
1.22394e-07
1.80656e-07
2.32581e-07
2.56668e-07
2.30826e-07
1.62704e-07
9.51405e-08
7.38358e-08
1.56367e-08
1.34643e-08
1.2419e-07
4.50519e-07
6.18358e-07
4.39918e-07
2.00979e-07
9.46267e-08
1.09318e-07
1.04328e-07
1.48327e-06
2.85348e-06
3.36998e-06
3.38577e-06
2.34722e-06
9.95112e-07
2.42721e-07
1.95113e-08
2.12023e-09
8.91096e-09
7.88133e-07
9.56155e-07
1.35024e-06
1.9525e-06
3.10466e-06
4.841e-06
6.67314e-06
6.71883e-06
5.57206e-06
2.02355e-06
7.58259e-08
5.85488e-10
1.40653e-07
3.83445e-07
4.02313e-07
2.65323e-07
2.97423e-07
6.95341e-07
1.68258e-06
1.66799e-06
6.56987e-06
3.40964e-06
1.75193e-06
3.14835e-06
4.49497e-06
4.95632e-06
3.61359e-06
1.38813e-06
2.49908e-07
1.4478e-07
2.33504e-05
9.0445e-05
0.000189928
0.000296532
0.000373853
0.000352231
0.000217266
7.10483e-05
8.65806e-06
2.40488e-07
0.000236994
0.000576254
0.000887522
0.000922937
0.000686414
0.000299484
5.10728e-05
6.34449e-05
0.000286196
0.000479603
7.01075e-05
0.000133478
0.000161733
0.000115495
2.20395e-05
4.01433e-05
0.000669819
0.00263206
0.0052036
0.00542858
4.39359e-06
1.25229e-05
5.63501e-05
0.000100519
0.000137544
0.000427298
0.00156057
0.00452047
0.00784788
0.00723868
0.000409502
0.000488441
0.000508808
0.00042993
0.000291051
9.29441e-05
3.13624e-05
0.000602927
0.00154561
0.00197107
0.00335412
0.00455229
0.00546992
0.00570359
0.00560392
0.0030901
0.000666666
8.27969e-05
5.98411e-06
0.000290066
0.0033891
0.00488456
0.00656843
0.00734858
0.00660858
0.00312725
0.000891695
6.67774e-05
9.57449e-05
0.0017737
0.00185913
0.00251585
0.00337476
0.00337546
0.00191627
0.000362885
2.33451e-05
0.000122486
0.00123732
0.0050733
0.0033695
0.00445315
0.00587268
0.00625894
0.00476551
0.00184435
0.00015299
1.47539e-05
0.000667732
0.00353284
)
;
    }
    inlet
    {
        type            calculated;
        value           uniform 0;
    }
    outlet
    {
        type            calculated;
        value           uniform 0;
    }
}


// ************************************************************************* //
