/*--------------------------------*- C++ -*----------------------------------*\
| =========                 |                                                 |
| \\      /  F ield         | OpenFOAM: The Open Source CFD Toolbox           |
|  \\    /   O peration     | Version:  2406                                  |
|   \\  /    A nd           | Website:  www.openfoam.com                      |
|    \\/     M anipulation  |                                                 |
\*---------------------------------------------------------------------------*/
FoamFile
{
    version     2.0;
    format      ascii;
    arch        "LSB;label=32;scalar=64";
    class       volVectorField;
    location    "0.4";
    object      momentError;
}
// * * * * * * * * * * * * * * * * * * * * * * * * * * * * * * * * * * * * * //

dimensions      [0 1 -2 0 0 0 0];

internalField   nonuniform List<vector> 
25000
(
(-0.710386 -0.395564 1.93138)
(0.0860526 -0.687732 1.52571)
(0.260198 -0.537097 1.47533)
(0.174138 -0.392196 1.37928)
(0.0591025 -0.31678 1.25842)
(-0.0558033 -0.274557 1.20205)
(-0.155246 -0.240973 1.21443)
(-0.126115 -0.248232 1.20523)
(0.100447 -0.357427 1.12783)
(0.348665 -0.200687 1.52712)
(-0.813051 0.345212 1.4955)
(0.135561 0.355337 0.946705)
(0.379962 0.532109 0.843005)
(0.248667 0.627105 0.690674)
(0.0657686 0.67237 0.531554)
(-0.111172 0.713574 0.46994)
(-0.266094 0.751689 0.49946)
(-0.258362 0.718508 0.524946)
(0.100465 0.522047 0.486769)
(0.658316 0.532291 0.981441)
(-0.56216 0.467343 1.37956)
(0.341297 0.603414 0.771408)
(0.528464 0.761931 0.611949)
(0.356214 0.81856 0.420522)
(0.132989 0.836789 0.243313)
(-0.0855665 0.859738 0.177778)
(-0.288027 0.88029 0.223139)
(-0.340489 0.82976 0.286318)
(-0.0606637 0.621128 0.303448)
(0.430738 0.506245 0.85788)
(-0.366837 0.32573 1.21874)
(0.471462 0.440568 0.543299)
(0.60094 0.576905 0.340665)
(0.400609 0.623491 0.128172)
(0.161449 0.627991 -0.0614421)
(-0.0752066 0.630073 -0.127106)
(-0.302073 0.62566 -0.067922)
(-0.399146 0.564557 0.0231157)
(-0.209027 0.386779 0.0856849)
(0.183534 0.292117 0.712455)
(-0.246911 0.187978 1.04296)
(0.560037 0.256878 0.317713)
(0.646729 0.367299 0.0867218)
(0.41886 0.40751 -0.141949)
(0.161149 0.40361 -0.334338)
(-0.0868735 0.38839 -0.394742)
(-0.326945 0.365501 -0.323786)
(-0.44881 0.306605 -0.211385)
(-0.302773 0.182928 -0.117417)
(0.0629366 0.145678 0.563759)
(-0.154334 0.113916 0.938548)
(0.647548 0.134426 0.189706)
(0.697338 0.215918 -0.0621044)
(0.433567 0.245787 -0.297571)
(0.151748 0.230836 -0.486938)
(-0.112367 0.19988 -0.53922)
(-0.362861 0.164746 -0.45736)
(-0.496728 0.113123 -0.331541)
(-0.364329 0.041283 -0.217526)
(0.0100109 0.0505541 0.491755)
(-0.0798858 0.0920985 0.896739)
(0.720395 0.0643133 0.145106)
(0.740436 0.102812 -0.111883)
(0.437248 0.107978 -0.344493)
(0.124704 0.0732115 -0.524759)
(-0.150467 0.0260766 -0.565665)
(-0.406195 -0.0217412 -0.474412)
(-0.54389 -0.0622259 -0.342792)
(-0.402391 -0.0790066 -0.220648)
(-0.0157665 -0.0329714 0.489661)
(-0.0619111 0.168005 0.835953)
(0.707074 0.113963 0.0975197)
(0.703474 0.0814771 -0.136662)
(0.380841 0.0324927 -0.357686)
(0.0656815 -0.0320563 -0.520041)
(-0.200347 -0.0961829 -0.546663)
(-0.438043 -0.147313 -0.449139)
(-0.547343 -0.161369 -0.314946)
(-0.368933 -0.115078 -0.207306)
(0.0387292 -0.0609888 0.481297)
(-0.0314325 0.46964 0.735374)
(0.544639 0.432296 0.0106303)
(0.515629 0.264404 -0.17512)
(0.229481 0.125423 -0.350889)
(-0.033931 0.0255294 -0.490371)
(-0.237174 -0.0398193 -0.503676)
(-0.406234 -0.0643178 -0.40354)
(-0.453046 -0.0222666 -0.287414)
(-0.214391 0.0726845 -0.215905)
(0.211929 -0.0425249 0.452135)
(0.512987 1.08831 1.18371)
(0.591558 0.941817 0.545574)
(0.384846 0.585465 0.411851)
(0.130018 0.366795 0.298519)
(-0.0767888 0.266013 0.202087)
(-0.227441 0.229828 0.195559)
(-0.344913 0.253892 0.276374)
(-0.381157 0.354747 0.359353)
(-0.249702 0.413876 0.40892)
(0.109879 -0.0429242 1.02679)
(-0.812626 -0.101968 4.16901)
(0.231939 -0.579816 3.36083)
(0.499714 -0.496778 4.43409)
(0.445062 -0.365677 5.23714)
(0.31805 -0.294007 5.68072)
(0.157145 -0.260052 5.79728)
(0.0105216 -0.222268 5.5678)
(0.0147608 -0.199598 4.96267)
(0.24898 -0.275212 4.03401)
(0.467356 -0.159633 5.23063)
(-0.806113 0.354719 3.5304)
(0.233725 0.371832 3.11304)
(0.555597 0.621471 4.6254)
(0.441156 0.744175 5.55219)
(0.19618 0.777943 5.86433)
(-0.0842207 0.779724 5.83363)
(-0.307286 0.782552 5.5633)
(-0.315265 0.711654 4.77394)
(0.0877746 0.433727 3.31098)
(0.634155 0.393923 3.89323)
(-0.514408 0.248953 4.64603)
(0.472778 0.48305 4.64738)
(0.702909 0.736905 6.14809)
(0.50364 0.781789 6.66782)
(0.211004 0.745123 6.60449)
(-0.0796757 0.741735 6.524)
(-0.346243 0.772564 6.49287)
(-0.442239 0.713284 6.01911)
(-0.1316 0.406717 4.56696)
(0.393927 0.197103 4.65204)
(-0.339139 -0.0474719 5.39958)
(0.631571 0.148448 5.51343)
(0.74229 0.336314 6.59807)
(0.485406 0.363842 6.70526)
(0.215232 0.347463 6.505)
(-0.0395692 0.352077 6.44739)
(-0.303939 0.371148 6.54262)
(-0.47523 0.322363 6.3649)
(-0.312252 0.0763757 5.23772)
(0.164106 -0.102022 5.17003)
(-0.276344 -0.333984 5.70257)
(0.727273 -0.251598 5.69458)
(0.764 -0.0925486 6.45271)
(0.482647 -0.0141367 6.43116)
(0.223596 0.0107906 6.2317)
(-0.0216267 0.0189067 6.1937)
(-0.283436 0.00946811 6.31371)
(-0.488136 -0.0582368 6.25006)
(-0.417295 -0.242323 5.37726)
(0.0785644 -0.308419 5.36338)
(-0.233302 -0.53314 5.63742)
(0.808202 -0.560051 5.56712)
(0.847281 -0.399896 6.35018)
(0.5317 -0.271789 6.33561)
(0.242137 -0.222063 6.13147)
(-0.0195605 -0.221637 6.09845)
(-0.299953 -0.255424 6.23636)
(-0.528553 -0.350715 6.19212)
(-0.45888 -0.490845 5.31518)
(0.0669003 -0.438716 5.30893)
(-0.182858 -0.611273 5.2672)
(0.86694 -0.718052 5.1951)
(0.952664 -0.625783 6.27948)
(0.609999 -0.500377 6.40461)
(0.259666 -0.443444 6.19812)
(-0.0396559 -0.454536 6.15849)
(-0.350166 -0.517797 6.29887)
(-0.584055 -0.610257 6.15727)
(-0.450335 -0.647762 5.02018)
(0.0590531 -0.507806 5.00354)
(-0.164296 -0.505982 4.52644)
(0.820003 -0.644825 4.26342)
(0.933057 -0.676216 5.65607)
(0.62631 -0.667557 6.15707)
(0.250987 -0.654428 6.08326)
(-0.0802163 -0.675484 6.03091)
(-0.38924 -0.718884 6.05066)
(-0.556502 -0.719832 5.59397)
(-0.356524 -0.625246 4.16417)
(0.0965882 -0.476016 4.36252)
(-0.103852 -0.0896934 3.47186)
(0.603119 -0.187502 2.71568)
(0.682965 -0.358361 4.05545)
(0.480689 -0.494148 4.86234)
(0.205028 -0.583857 5.10717)
(-0.0769655 -0.6075 5.0736)
(-0.29471 -0.569489 4.83311)
(-0.356036 -0.471038 4.08316)
(-0.119806 -0.321474 2.70689)
(0.259906 -0.36539 3.43425)
(0.56925 0.60115 4.58355)
(0.703377 0.449646 3.32144)
(0.540318 0.13257 4.19329)
(0.36343 -0.0288395 4.81133)
(0.210868 -0.088563 5.09409)
(0.0575329 -0.106979 5.11037)
(-0.0725888 -0.0830893 4.86498)
(-0.130343 0.00318238 4.29165)
(-0.0492523 0.0641083 3.41739)
(0.199454 -0.360424 4.72817)
(-0.046735 -0.187556 4.52732)
(0.805058 -0.41187 2.06267)
(1.0159 -0.107615 3.49021)
(0.937575 0.191044 4.56491)
(0.745105 0.399051 5.1655)
(0.470588 0.539959 5.55034)
(0.186008 0.638998 5.65332)
(0.0671032 0.681338 5.18457)
(0.243473 0.626481 4.24719)
(0.33766 0.830317 7.62064)
(0.0200546 0.398232 2.55461)
(0.862164 0.602306 0.934348)
(1.09597 1.00212 3.31117)
(0.941121 1.24262 4.90162)
(0.619837 1.3756 5.65662)
(0.210756 1.44753 5.89269)
(-0.184648 1.46658 5.50125)
(-0.373358 1.38965 4.12821)
(-0.0900029 1.07864 1.85167)
(0.331292 1.06747 4.02193)
(0.421656 0.411325 4.21387)
(1.14211 0.789859 3.52281)
(1.30328 1.20281 6.33089)
(1.08451 1.40403 8.14166)
(0.687685 1.49076 9.0139)
(0.189501 1.50916 9.1792)
(-0.289625 1.45206 8.46906)
(-0.552874 1.28248 6.68931)
(-0.434473 0.927163 3.86518)
(-0.106792 0.729768 4.8253)
(0.746427 0.181757 5.3185)
(1.36265 0.539294 5.19656)
(1.43364 0.914783 8.2405)
(1.16093 1.10071 10.3007)
(0.730555 1.17521 11.4731)
(0.182494 1.17168 11.6695)
(-0.34457 1.0758 10.5422)
(-0.66298 0.88021 8.36507)
(-0.645424 0.55092 5.21049)
(-0.458466 0.374463 5.41148)
(0.936258 -0.110568 5.6902)
(1.51993 0.172659 5.86041)
(1.52094 0.484205 9.0634)
(1.19114 0.652208 11.3648)
(0.731184 0.720107 12.7975)
(0.156065 0.708933 13.0047)
(-0.398271 0.598638 11.6036)
(-0.742694 0.422817 9.07122)
(-0.761038 0.180815 5.69182)
(-0.610802 0.0768791 5.52369)
(1.04121 -0.36656 5.585)
(1.63088 -0.189209 5.81663)
(1.58117 0.0363338 9.05448)
(1.19308 0.161472 11.2951)
(0.696957 0.194433 12.6114)
(0.104314 0.157441 12.7653)
(-0.440819 0.0842513 11.413)
(-0.786599 -0.0314055 8.98335)
(-0.808398 -0.172765 5.60407)
(-0.64488 -0.197232 5.40844)
(1.07175 -0.532924 5.05869)
(1.66899 -0.481064 5.10409)
(1.59534 -0.364455 8.27393)
(1.16377 -0.298795 10.2858)
(0.631676 -0.300774 11.2718)
(0.0546798 -0.337357 11.3231)
(-0.46795 -0.386429 10.2691)
(-0.803942 -0.449197 8.16244)
(-0.814862 -0.492034 4.95685)
(-0.632919 -0.438768 5.05356)
(1.01158 -0.531881 3.91251)
(1.58537 -0.580277 3.41782)
(1.50932 -0.594878 6.41734)
(1.08113 -0.616894 8.242)
(0.560603 -0.655918 8.99718)
(0.0198113 -0.694593 9.00151)
(-0.467983 -0.717115 8.19492)
(-0.772356 -0.720246 6.35056)
(-0.755237 -0.663996 3.42721)
(-0.544716 -0.560585 4.18793)
(0.936628 -0.232204 2.22774)
(1.34221 -0.302225 0.731618)
(1.27171 -0.472852 3.30346)
(0.928066 -0.607647 4.94427)
(0.502561 -0.695723 5.61813)
(0.0533532 -0.739818 5.66355)
(-0.356304 -0.736042 5.03755)
(-0.601503 -0.676564 3.46668)
(-0.536629 -0.54907 1.00802)
(-0.299781 -0.558054 2.87335)
(1.39946 0.306602 4.58558)
(1.35483 0.18228 2.1759)
(1.14254 -0.178431 3.78316)
(0.856788 -0.413705 4.8944)
(0.530501 -0.525181 5.38289)
(0.172973 -0.560095 5.50985)
(-0.165779 -0.514341 5.25324)
(-0.382717 -0.370885 4.38708)
(-0.395376 -0.241305 3.01955)
(-0.254933 -0.725268 6.02057)
(-0.434302 -0.519261 5.84945)
(0.359134 -0.872712 0.756585)
(0.392576 -0.655805 1.88629)
(0.263561 -0.462672 3.12886)
(0.140457 -0.361834 3.93893)
(0.0440332 -0.270544 4.78809)
(-0.0829397 -0.107692 5.6286)
(-0.130771 0.0571761 5.88591)
(0.0800072 -0.0537764 4.48114)
(0.539694 -0.0701685 8.84653)
(-0.306231 -0.454708 1.51904)
(0.300997 -0.14382 -2.84232)
(0.394885 0.391872 0.0927205)
(0.125902 0.651999 2.11728)
(-0.118645 0.758666 3.05734)
(-0.312817 0.815038 3.58766)
(-0.463123 0.841775 3.6458)
(-0.420362 0.748555 2.58385)
(-0.265767 0.475455 0.684474)
(0.297671 0.270369 3.9973)
(0.13325 -0.804531 3.2725)
(0.535413 -0.175866 0.488687)
(0.472743 0.33419 3.86348)
(0.171609 0.60215 6.03708)
(-0.116313 0.730852 7.11228)
(-0.383353 0.777083 7.60611)
(-0.638767 0.727106 7.21142)
(-0.753322 0.520863 5.40622)
(-0.511029 0.0197367 2.30635)
(-0.0788463 -0.118349 5.36051)
(0.423175 -1.24759 4.46554)
(0.761466 -0.617734 2.69557)
(0.634259 -0.113696 6.30011)
(0.295953 0.176299 8.78499)
(-0.0470019 0.351969 10.3481)
(-0.401922 0.439189 11.1326)
(-0.746946 0.312967 10.0244)
(-0.930927 0.0681166 7.46421)
(-0.76351 -0.308919 3.7178)
(-0.350286 -0.522165 5.72305)
(0.518507 -1.59133 4.41455)
(0.933197 -1.00519 3.47978)
(0.801989 -0.55869 7.46073)
(0.432309 -0.280824 10.4496)
(0.0411958 -0.0809768 12.7303)
(-0.431139 0.0161269 13.7317)
(-0.87343 -0.113722 11.9308)
(-1.04815 -0.305346 8.41389)
(-0.891381 -0.544598 4.08477)
(-0.430478 -0.739097 5.42051)
(0.556706 -1.78587 3.91284)
(1.06321 -1.30152 3.44)
(0.93813 -0.967405 7.70134)
(0.540837 -0.756188 10.9125)
(0.0911627 -0.62384 13.3119)
(-0.461279 -0.604601 14.221)
(-0.917933 -0.584443 12.1949)
(-1.09208 -0.613271 8.38407)
(-0.93898 -0.701838 3.8666)
(-0.426427 -0.817067 4.99343)
(0.529846 -1.89549 3.04914)
(1.09824 -1.55211 2.57326)
(0.992101 -1.35806 6.88529)
(0.566318 -1.25692 9.79765)
(0.0786853 -1.20471 11.5406)
(-0.422522 -1.17229 12.1604)
(-0.824303 -1.03856 10.4271)
(-1.04786 -0.935701 7.31948)
(-0.921601 -0.879886 3.08024)
(-0.402419 -0.860096 4.44458)
(0.392364 -1.88891 1.40636)
(0.975806 -1.65131 0.26696)
(0.907273 -1.60542 4.43657)
(0.52295 -1.61564 7.11618)
(0.0974876 -1.60258 8.34966)
(-0.303327 -1.53177 8.5835)
(-0.655808 -1.38961 7.53728)
(-0.88242 -1.19956 5.03753)
(-0.760786 -0.951671 1.04769)
(-0.305677 -0.879151 3.42946)
(0.191473 -1.63338 -0.798497)
(0.67773 -1.38808 -3.39349)
(0.677616 -1.4639 0.222328)
(0.427167 -1.57226 2.71202)
(0.154617 -1.59662 3.83632)
(-0.0905859 -1.52132 4.12565)
(-0.320178 -1.35939 3.54055)
(-0.469414 -1.1056 1.47459)
(-0.39108 -0.871855 -1.49909)
(0.00220595 -0.977753 2.31495)
(0.351771 -1.27822 3.04432)
(0.549695 -0.977452 -0.631111)
(0.52801 -1.14899 1.5601)
(0.422975 -1.3327 3.36412)
(0.313499 -1.40729 4.39959)
(0.190931 -1.39992 5.07272)
(0.0196088 -1.3188 5.42404)
(-0.140393 -1.12879 4.99934)
(-0.140786 -0.948773 3.27237)
(0.189914 -1.3335 8.09745)
(1.46038 0.490231 10.6409)
(2.05501 0.205711 4.85353)
(1.95623 0.588635 6.56386)
(1.4876 0.829 7.55631)
(0.992258 0.894998 7.80254)
(0.516098 0.931483 8.15999)
(0.0745946 0.96361 8.37266)
(-0.307126 0.825742 7.47671)
(-0.580152 0.337051 5.75977)
(-0.881523 0.00139203 11.4697)
(1.64185 0.825638 5.5486)
(2.24324 1.32757 1.536)
(2.04705 1.73627 3.52214)
(1.4871 1.94945 5.2091)
(0.935429 2.00043 6.12982)
(0.454043 2.03441 6.94998)
(-0.0519171 2.03239 7.65799)
(-0.528753 1.74015 6.86026)
(-0.591451 1.06075 3.49453)
(-0.482795 0.34429 5.40559)
(2.2064 0.645066 8.75635)
(2.5085 1.13832 4.5878)
(2.01502 1.56499 7.36308)
(1.3904 1.77757 9.63508)
(0.785291 1.80986 10.6069)
(0.280321 1.79107 11.4354)
(-0.202229 1.74566 11.8519)
(-0.625338 1.50931 10.4135)
(-0.813444 0.950953 6.63979)
(-0.733533 0.0843813 6.76869)
(2.42034 0.180185 9.98254)
(2.56848 0.584801 6.60837)
(2.01813 1.12748 10.0851)
(1.3303 1.34829 12.6771)
(0.716121 1.43627 14.2309)
(0.187085 1.47944 15.606)
(-0.356037 1.38339 15.4143)
(-0.784865 1.101 12.5705)
(-1.02014 0.485006 7.87825)
(-0.941791 -0.14387 7.81541)
(2.23182 -0.347702 8.46738)
(2.47818 0.178893 6.43492)
(2.01091 0.702092 10.9971)
(1.31112 0.950581 14.296)
(0.693561 1.10645 16.8348)
(0.11503 1.21704 18.9241)
(-0.524972 1.05826 17.7669)
(-0.916869 0.827436 13.32)
(-1.09325 0.268979 7.68864)
(-0.924634 -0.239364 7.98582)
(1.97669 -0.648881 6.6972)
(2.35219 -0.0633154 5.75574)
(1.9794 0.362119 11.0598)
(1.29486 0.573296 14.8513)
(0.674013 0.722574 17.8956)
(0.0128422 0.757328 19.9797)
(-0.624922 0.674035 18.2264)
(-0.997542 0.591292 13.0737)
(-1.11331 0.252144 7.14205)
(-0.83517 -0.292236 7.81847)
(1.67984 -0.826187 5.00231)
(2.15459 -0.273306 4.40706)
(1.86902 0.0298654 10.0366)
(1.21073 0.139372 13.7615)
(0.550391 0.190469 16.0532)
(-0.066171 0.168921 17.4997)
(-0.606772 0.214601 15.8436)
(-0.992486 0.258026 11.6957)
(-1.0781 0.118868 6.26485)
(-0.728004 -0.419102 7.52343)
(1.28123 -0.897243 2.44489)
(1.80133 -0.394418 1.11706)
(1.60146 -0.229078 6.76385)
(1.01674 -0.238562 10.3162)
(0.424689 -0.260738 12.0275)
(-0.0914519 -0.257078 12.6659)
(-0.544825 -0.19031 11.7146)
(-0.847188 -0.0373837 8.71503)
(-0.881584 -0.130657 4.21351)
(-0.47823 -0.652554 6.24245)
(0.829002 -0.863736 -0.75476)
(1.19392 -0.319905 -4.03503)
(1.11573 -0.267866 0.809241)
(0.715012 -0.364689 4.13187)
(0.301042 -0.437652 5.69718)
(-0.0222067 -0.452007 6.30968)
(-0.253358 -0.406965 6.06781)
(-0.451326 -0.338932 4.40729)
(-0.415465 -0.449462 1.13216)
(0.0744204 -0.999264 3.87945)
(0.750922 -0.824449 3.17722)
(0.726773 -0.204332 -1.1701)
(0.610721 -0.256668 1.423)
(0.439232 -0.413937 3.62868)
(0.271292 -0.505074 4.92684)
(0.153388 -0.558739 5.87482)
(0.0653346 -0.606655 6.63897)
(-0.0286721 -0.706592 6.55321)
(0.0695175 -0.938183 5.17399)
(0.657109 -1.79185 10.104)
(1.43226 2.0027 12.7983)
(1.6458 1.26676 7.5747)
(1.4136 1.19589 10.2709)
(0.798579 1.1043 11.7654)
(0.134214 0.885134 11.7231)
(-0.474963 0.612137 11.4788)
(-1.02113 0.340201 11.3727)
(-1.48304 -0.0258544 10.7927)
(-1.82109 -0.645263 9.06027)
(-2.46949 -1.1872 16.1927)
(1.69586 1.50604 7.89457)
(1.79738 1.44549 5.26682)
(1.57856 1.47093 9.53083)
(0.946948 1.58433 11.5282)
(0.220205 1.493 12.1621)
(-0.410614 1.24869 12.5284)
(-0.93226 0.878162 12.8853)
(-1.30268 0.402996 11.2506)
(-1.38477 -0.363647 6.38112)
(-1.63527 -1.11538 8.93349)
(2.11077 0.758021 10.8188)
(1.94743 0.776783 9.91595)
(1.63419 0.833096 14.0051)
(0.846829 0.974718 16.8366)
(0.12027 0.999955 17.8888)
(-0.395516 0.892954 18.782)
(-0.890402 0.657458 19.6636)
(-1.25156 0.145691 17.554)
(-1.27877 -0.528809 11.026)
(-1.38545 -1.40241 10.1069)
(2.12136 0.0543918 12.6284)
(2.00264 -0.148236 12.1665)
(1.32308 0.105319 16.9479)
(0.538422 0.237391 20.4978)
(-0.0965153 0.369199 22.3428)
(-0.541958 0.420528 24.1517)
(-0.834679 0.335524 24.5805)
(-1.02092 -0.139558 20.398)
(-1.14605 -0.77381 12.9418)
(-1.15676 -1.57584 10.6759)
(1.88716 -0.44626 12.2055)
(1.86419 -0.778643 11.7543)
(1.09641 -0.529073 17.3575)
(0.350017 -0.307847 21.6522)
(-0.189918 -0.101782 24.5245)
(-0.539649 0.0185372 26.896)
(-0.730389 0.0752318 26.451)
(-0.823218 -0.127113 20.7679)
(-0.880416 -0.809967 12.9335)
(-0.837056 -1.60023 10.8337)
(1.56879 -0.71219 10.7251)
(1.57069 -1.01277 10.1411)
(0.895435 -0.820321 16.3885)
(0.209937 -0.540605 20.816)
(-0.230981 -0.307326 23.4137)
(-0.428916 -0.202612 25.3549)
(-0.519015 -0.137748 24.613)
(-0.622265 -0.167591 19.4705)
(-0.602761 -0.739934 12.5415)
(-0.470769 -1.58466 10.9763)
(1.20743 -0.749167 8.67053)
(1.22218 -1.01822 7.69764)
(0.652295 -0.856509 14.2087)
(0.0422886 -0.56754 18.5254)
(-0.312845 -0.336323 20.5473)
(-0.406079 -0.22185 21.5969)
(-0.404186 -0.182404 21.0064)
(-0.417854 -0.260106 17.4635)
(-0.335693 -0.730086 11.5134)
(-0.100248 -1.60874 10.6667)
(0.819151 -0.625786 5.72367)
(0.711918 -0.718581 3.11113)
(0.290741 -0.720097 9.80506)
(-0.231007 -0.474472 14.0632)
(-0.499949 -0.283919 15.8323)
(-0.517406 -0.196069 16.3717)
(-0.419515 -0.209844 15.9045)
(-0.286868 -0.362752 13.5293)
(-0.0478157 -0.841465 8.65192)
(0.322517 -1.71702 8.81916)
(0.652527 -0.506591 1.81574)
(0.211861 -0.366142 -1.96897)
(-0.266619 -0.419997 2.46508)
(-0.5769 -0.307801 6.6733)
(-0.749014 -0.199757 8.37747)
(-0.639124 -0.200422 8.97998)
(-0.335704 -0.338255 8.93244)
(-0.0127602 -0.620049 7.55965)
(0.333307 -1.07325 3.7424)
(0.880637 -1.95916 5.37251)
(0.987881 -0.430033 6.00515)
(0.315309 -0.373113 0.971181)
(-0.314236 -0.282461 3.58881)
(-0.619787 -0.256161 5.57975)
(-0.610054 -0.238638 6.6847)
(-0.356691 -0.333981 7.36155)
(0.0462802 -0.591505 7.86098)
(0.496853 -1.04532 7.56519)
(0.962876 -1.67807 5.88886)
(1.65298 -2.89466 10.7926)
(2.09948 3.51643 8.956)
(1.86609 2.86432 7.21816)
(1.54614 3.01008 12.7477)
(0.966734 3.1507 15.8613)
(0.183955 2.97661 16.803)
(-0.782958 2.60262 17.2247)
(-1.88365 2.11909 17.8717)
(-2.86781 1.44115 17.6087)
(-3.42342 0.576055 15.5198)
(-4.32224 0.250501 23.2225)
(2.23244 3.58735 6.32972)
(2.30869 3.04939 5.7717)
(2.27705 3.30251 13.0298)
(1.67707 3.58865 17.663)
(0.764829 3.59384 19.2654)
(-0.341166 3.28636 19.6862)
(-1.54092 2.78661 19.6243)
(-2.56288 2.07006 17.7948)
(-2.9643 1.08503 12.6367)
(-3.34474 0.317639 15.4296)
(2.67592 3.19037 11.0297)
(2.85966 2.56998 12.0235)
(2.87442 2.77487 20.5432)
(2.15643 3.12908 25.7535)
(1.19333 3.26975 27.8107)
(0.0129232 3.08311 28.2983)
(-1.27934 2.56534 27.2632)
(-2.37877 1.85982 23.967)
(-2.87923 0.920481 17.221)
(-3.14061 -0.0866356 16.5863)
(3.09191 2.57993 14.163)
(3.02354 1.88706 16.2686)
(2.86629 1.86329 25.2339)
(2.08041 2.20478 30.7068)
(1.18349 2.43054 32.9414)
(0.193658 2.35307 32.9825)
(-0.872975 1.92031 30.6104)
(-1.97022 1.26187 25.8016)
(-2.64118 0.430493 18.3966)
(-2.86332 -0.550442 16.6658)
(3.29451 2.04123 15.518)
(2.95392 1.28054 17.4651)
(2.6466 1.06336 26.1495)
(1.92642 1.36424 31.209)
(1.18054 1.57829 32.7583)
(0.338423 1.53004 32.1993)
(-0.571871 1.24414 29.647)
(-1.55915 0.713226 25.194)
(-2.21694 -0.0513533 18.1181)
(-2.41046 -0.961212 16.1451)
(3.3262 1.68805 15.9278)
(2.80088 0.941717 16.8508)
(2.33257 0.648755 24.8451)
(1.69186 0.890588 29.2623)
(1.09507 1.05104 30.1708)
(0.424574 0.979857 29.4063)
(-0.325704 0.717713 27.5352)
(-1.14132 0.235885 24.2382)
(-1.70983 -0.485371 17.8222)
(-1.84399 -1.33679 15.9345)
(3.269 1.55227 15.4843)
(2.59522 0.863727 14.8397)
(1.9814 0.531302 22.185)
(1.35281 0.713942 26.1569)
(0.873565 0.814759 26.8587)
(0.391252 0.677647 26.2347)
(-0.163751 0.352884 24.9386)
(-0.77582 -0.18011 22.4031)
(-1.1942 -0.88312 16.6315)
(-1.22248 -1.67005 15.2886)
(3.13517 1.49309 13.2981)
(2.1175 1.02343 11.0698)
(1.4128 0.718316 17.0685)
(0.823861 0.695769 21.0351)
(0.433396 0.72465 21.7263)
(0.122233 0.511143 21.2384)
(-0.231684 0.106759 20.132)
(-0.604096 -0.515106 18.0141)
(-0.702387 -1.21592 13.158)
(-0.529238 -1.92821 12.7323)
(3.09003 1.43318 7.95434)
(1.86779 1.13763 6.66745)
(0.861356 0.982308 9.87021)
(0.196851 0.744893 12.645)
(-0.101411 0.576324 13.4969)
(-0.190342 0.238274 13.312)
(-0.214828 -0.28929 12.8144)
(-0.292253 -0.870159 11.4718)
(-0.169521 -1.37427 7.2301)
(0.188553 -2.14047 8.26329)
(3.70479 1.94029 11.0328)
(2.2018 1.32539 6.67513)
(1.17481 0.869419 11.5504)
(0.55709 0.623574 13.28)
(0.271959 0.376623 13.0346)
(0.204506 0.000833193 12.5306)
(0.232767 -0.516446 12.1392)
(0.292489 -1.15592 11.2378)
(0.390593 -1.83573 8.91832)
(0.633097 -2.97646 13.5253)
(-1.18762 4.24505 5.1029)
(-1.01427 2.97415 4.61462)
(-1.00935 2.90434 11.5033)
(-1.18519 2.96145 16.5582)
(-1.61126 2.86104 19.8664)
(-2.30849 2.58314 22.4441)
(-3.06672 2.15873 24.057)
(-3.46514 1.57279 22.8039)
(-3.30063 1.03118 17.2807)
(-3.20736 1.40747 22.1184)
(-1.38353 3.77023 3.27101)
(-1.12103 3.18164 3.14644)
(-0.695286 3.26048 12.9818)
(-0.790133 3.31338 19.329)
(-1.26029 3.28062 23.3441)
(-2.10198 3.07887 26.4796)
(-3.01263 2.66001 27.6502)
(-3.57798 1.92937 24.3675)
(-3.46508 1.10345 16.4014)
(-3.20031 0.862185 16.7334)
(-1.07671 3.19981 9.17655)
(-0.67074 3.00152 11.6732)
(-0.14326 3.03371 23.1967)
(-0.271384 3.07148 29.6715)
(-0.724165 3.04074 33.4576)
(-1.53772 2.80391 36.0413)
(-2.50722 2.31235 36.0006)
(-3.33423 1.44892 31.2063)
(-3.59668 0.494351 22.2557)
(-3.38013 0.0338008 19.9689)
(-0.777933 2.4888 13.4868)
(-0.482665 2.16395 17.3111)
(-0.0519257 2.08142 29.0234)
(-0.20111 2.16427 35.443)
(-0.533244 2.16889 38.2948)
(-1.06225 1.89532 38.7758)
(-1.90784 1.30031 36.8291)
(-2.92096 0.435958 31.773)
(-3.42979 -0.422677 23.6539)
(-3.2678 -0.770411 21.1127)
(-0.721906 1.62797 15.7103)
(-0.563042 1.28086 19.0298)
(-0.175248 1.12347 30.1267)
(-0.281562 1.2341 35.7164)
(-0.44701 1.25265 37.2514)
(-0.840901 0.944101 36.2141)
(-1.5693 0.324455 33.6536)
(-2.49215 -0.481813 29.8534)
(-3.03885 -1.24571 22.974)
(-2.90735 -1.44235 20.8932)
(-0.714952 0.844748 17.0589)
(-0.712416 0.690856 18.7469)
(-0.35912 0.420025 28.7889)
(-0.403584 0.525628 33.3976)
(-0.444024 0.50655 34.1459)
(-0.720416 0.188496 33.0239)
(-1.28937 -0.398753 31.0654)
(-2.07032 -1.19635 28.2336)
(-2.5764 -1.90137 22.0167)
(-2.44557 -1.96566 20.4937)
(-0.540474 0.2156 18.0489)
(-0.869204 0.099361 17.6869)
(-0.569712 -0.0102061 26.0952)
(-0.495151 -0.00596842 30.0128)
(-0.423749 -0.0803911 30.5472)
(-0.546872 -0.411995 29.8169)
(-0.971866 -0.994896 28.4552)
(-1.6704 -1.8164 26.2362)
(-2.1291 -2.40514 20.2717)
(-1.98193 -2.30188 19.4177)
(-0.201191 -0.224005 17.1603)
(-0.98202 -0.52499 16.1779)
(-1.10161 -0.454699 21.1316)
(-0.696889 -0.509843 24.7451)
(-0.464163 -0.609355 25.1437)
(-0.453918 -0.989956 24.4269)
(-0.835788 -1.62002 23.3005)
(-1.46171 -2.38171 21.7718)
(-1.70343 -2.67491 16.6235)
(-1.53108 -2.36602 16.1653)
(0.110661 -0.041908 10.9966)
(-0.697636 -0.621374 9.71008)
(-1.16023 -0.856962 15.9259)
(-0.997133 -0.898477 17.5961)
(-0.638264 -1.18356 17.1669)
(-0.522275 -1.74452 16.6559)
(-0.787426 -2.31505 16.674)
(-1.17084 -2.58212 15.4935)
(-1.20665 -2.44126 10.103)
(-1.22152 -2.20823 11.2826)
(0.961283 0.707967 12.9875)
(-0.0607306 0.126267 8.69918)
(-0.473145 -0.302752 13.961)
(-0.419809 -0.834595 17.4744)
(-0.248464 -1.26482 17.7)
(-0.156557 -1.66727 16.8237)
(-0.260976 -2.07909 16.0302)
(-0.62143 -2.42683 14.5636)
(-1.14296 -2.43409 11.6652)
(-1.73847 -2.41211 17.9917)
(1.2212 2.98836 6.49233)
(0.717149 2.72668 4.25537)
(0.158546 3.33789 11.7044)
(-0.260098 3.86244 17.7861)
(-0.751838 4.22703 22.0254)
(-1.43103 4.41539 25.5073)
(-2.23636 4.54004 27.3505)
(-2.64726 4.42855 24.8131)
(-2.66669 4.1577 17.5732)
(-3.10854 4.94881 20.5183)
(0.218244 3.12642 4.89882)
(0.205199 3.61776 3.00862)
(0.151377 3.99804 14.9018)
(-0.0348635 4.28365 22.4537)
(-0.547673 4.53544 27.5629)
(-1.43687 4.56773 32.2143)
(-2.46458 4.4982 34.28)
(-3.03748 4.15557 28.8262)
(-3.27605 3.48352 17.5984)
(-3.44461 3.64045 16.8193)
(0.0305951 3.23754 11.5264)
(0.461538 4.18968 13.4097)
(0.817201 4.30677 26.6893)
(0.737033 4.3788 34.2635)
(0.199715 4.49446 39.5812)
(-0.853721 4.47123 44.7289)
(-2.14853 4.25135 46.5458)
(-3.10861 3.25394 38.581)
(-3.62362 2.41271 25.3429)
(-4.109 2.44689 21.5784)
(0.218888 3.06127 16.7897)
(0.690411 3.91267 20.081)
(1.12141 3.93521 32.7812)
(1.06821 3.90467 39.9637)
(0.59812 3.87461 44.931)
(-0.353593 3.69591 48.9526)
(-1.7164 3.24347 49.0981)
(-3.10329 2.0408 40.4888)
(-3.86906 1.23437 28.0708)
(-4.47591 1.31062 23.6444)
(0.316456 2.42426 19.5828)
(0.648307 3.36631 22.2393)
(1.10339 3.3114 34.0897)
(1.04161 3.18426 40.2044)
(0.668123 2.99063 43.7064)
(-0.153789 2.57105 45.7806)
(-1.47749 1.87048 44.9579)
(-2.95402 0.80468 38.5265)
(-3.91042 0.0738269 27.9445)
(-4.61412 0.316203 23.82)
(0.378541 1.63217 21.3552)
(0.580339 2.53469 22.2682)
(1.07162 2.55582 33.3812)
(0.942317 2.30485 38.2087)
(0.608768 1.96739 40.5118)
(-0.141478 1.40253 41.5225)
(-1.35927 0.639457 41.0473)
(-2.7992 -0.340013 36.9363)
(-3.81319 -0.971531 27.2561)
(-4.56624 -0.558132 23.5131)
(0.609581 0.941492 22.0858)
(0.818439 1.08424 21.8342)
(1.02958 1.67909 30.6382)
(1.0022 1.31636 34.9025)
(0.699911 0.882422 36.4845)
(0.0136807 0.270556 37.268)
(-1.15008 -0.516144 37.7109)
(-2.57748 -1.5243 34.7935)
(-3.61534 -1.90118 25.3599)
(-4.40817 -1.27022 22.4568)
(0.951854 0.467088 19.3379)
(1.13352 0.0289443 19.8627)
(0.953713 0.0316086 24.8078)
(1.11601 -0.103358 28.6983)
(0.856387 -0.544871 29.7404)
(0.193302 -1.15415 30.7441)
(-1.00625 -1.95446 31.9705)
(-2.47142 -2.69377 29.5996)
(-3.36002 -2.39094 21.309)
(-4.23975 -1.72775 19.2524)
(1.27889 0.200897 13.4405)
(1.14798 -0.149844 12.5167)
(1.17476 -0.945563 17.9824)
(1.13733 -1.31675 20.1887)
(0.850676 -1.91288 21.1821)
(0.0722232 -2.57301 23.0331)
(-1.20639 -3.05333 25.1212)
(-2.38403 -2.92623 23.4964)
(-3.26052 -2.53271 14.4446)
(-4.30493 -2.04545 13.5834)
(2.28902 0.36001 16.0615)
(1.31506 -0.0622875 10.9696)
(1.06871 -0.891238 15.5895)
(0.911129 -1.73882 18.5768)
(0.470998 -2.38326 20.0549)
(-0.373942 -2.88902 21.4511)
(-1.46025 -3.14009 22.4469)
(-2.64946 -3.21857 19.981)
(-3.80204 -2.7887 14.1792)
(-5.10841 -2.61445 17.5088)
(2.26139 1.98487 12.5445)
(1.64256 2.00292 8.37456)
(0.469363 2.53443 14.6875)
(-0.404239 2.78456 20.6988)
(-0.982487 2.93845 24.8419)
(-1.34033 2.99122 28.059)
(-1.44927 3.10557 29.759)
(-1.39225 3.34107 27.7345)
(-1.65396 3.43391 20.782)
(-2.40284 3.96495 23.8115)
(1.45231 0.985631 10.4653)
(0.640618 2.08978 6.31775)
(-0.737587 2.3362 19.3032)
(-1.24837 2.43247 27.2406)
(-1.75325 2.54569 32.2138)
(-2.21414 2.61986 35.8812)
(-2.36965 2.52662 37.1371)
(-2.00331 2.20798 31.6985)
(-1.88181 2.13278 21.1526)
(-2.5884 2.48198 20.2874)
(0.598993 0.72422 17.6278)
(-0.143839 2.27008 18.6407)
(-0.93622 2.14712 32.7531)
(-1.22407 2.06008 40.824)
(-1.66587 2.10206 46.2498)
(-2.30861 2.21089 51.1509)
(-2.9493 2.07486 52.8968)
(-2.89529 1.39181 43.8215)
(-2.2665 1.04218 29.5211)
(-2.79759 1.27749 26.0575)
(-0.137331 0.456606 23.6487)
(-0.55748 1.72205 26.7853)
(-1.02249 1.52214 39.7955)
(-1.19254 1.34457 47.3955)
(-1.52819 1.30138 53.3686)
(-2.13452 1.31284 59.7519)
(-2.94841 1.16012 61.3169)
(-3.32911 0.542725 49.8351)
(-2.84751 0.11472 33.2257)
(-3.18324 0.463848 27.7726)
(-0.705945 -0.0578938 27.1676)
(-0.986616 0.992056 30.1362)
(-1.33569 0.787796 41.9352)
(-1.42546 0.5458 48.5848)
(-1.63732 0.408421 53.7028)
(-2.05326 0.271298 58.6865)
(-2.7291 0.0642281 58.8219)
(-3.26959 -0.378496 48.9359)
(-3.11907 -0.66934 33.2701)
(-3.47927 -0.177964 27.0977)
(-0.986211 -0.648321 29.2233)
(-1.24688 0.0341516 31.4153)
(-1.59249 0.000213324 41.8887)
(-1.62685 -0.289264 47.5665)
(-1.75472 -0.497463 51.4084)
(-2.04908 -0.726103 54.6897)
(-2.59963 -0.957252 54.7544)
(-3.18313 -1.2952 47.2638)
(-3.18254 -1.35905 32.4285)
(-3.56989 -0.792534 25.7769)
(-0.953464 -1.15801 29.7488)
(-1.04264 -1.23161 30.9627)
(-1.46629 -0.909138 39.6962)
(-1.49983 -1.17146 44.8761)
(-1.61167 -1.4008 48.2437)
(-1.92967 -1.6811 51.2198)
(-2.4978 -1.99907 51.3911)
(-3.07658 -2.22877 44.5993)
(-3.11903 -2.00862 29.95)
(-3.47203 -1.35618 23.4392)
(-0.695509 -1.44765 26.9876)
(-0.385479 -2.1629 27.4706)
(-0.865656 -2.30768 33.8319)
(-1.1032 -2.42389 39.0526)
(-1.30715 -2.69525 42.7691)
(-1.76705 -2.95555 45.4872)
(-2.38726 -3.15365 44.7082)
(-2.94555 -3.1155 37.6533)
(-2.94756 -2.54026 23.239)
(-3.1881 -1.8513 18.6882)
(-0.199395 -1.52598 20.4669)
(-0.0708073 -2.16257 19.5342)
(-0.201742 -2.96509 25.6112)
(-0.497966 -3.40686 30.6638)
(-0.79207 -3.82085 34.2221)
(-1.49182 -4.04352 35.2549)
(-2.25465 -3.78154 32.6463)
(-2.73239 -3.32882 24.9515)
(-2.65463 -2.64434 11.9498)
(-3.03841 -2.41845 11.2589)
(0.727964 -1.79533 23.0285)
(0.185121 -2.08605 17.792)
(-0.14524 -2.86798 23.7609)
(-0.486258 -3.54035 28.5905)
(-0.873791 -4.00653 31.5138)
(-1.36342 -4.19908 31.9041)
(-1.99163 -4.02308 28.8131)
(-2.52822 -3.60777 22.4746)
(-2.89573 -3.26284 12.7746)
(-3.79146 -3.73538 12.6911)
(5.62829 1.66455 20.5097)
(5.13841 2.29472 15.78)
(4.08172 3.34811 19.956)
(2.99206 4.0055 25.0897)
(2.09232 4.46538 28.8369)
(1.39769 4.76121 31.9452)
(0.904198 5.03939 34.1485)
(0.302672 5.34714 33.6706)
(-1.13806 5.24132 27.6001)
(-3.00626 5.10758 30.4661)
(5.01359 1.2589 17.5729)
(4.48353 2.22678 10.1291)
(2.78584 3.07253 23.0726)
(1.99992 3.72677 31.0822)
(1.10565 4.0756 36.0231)
(0.30816 4.31642 39.4385)
(-0.132277 4.43282 40.9112)
(-0.117977 4.25868 37.1781)
(-0.709467 4.23639 28.5636)
(-2.55137 4.33669 26.9782)
(4.43467 1.07976 24.0398)
(3.58395 2.66448 23.5512)
(2.47374 3.25542 36.8509)
(1.6899 3.5354 45.442)
(0.693393 3.65826 51.108)
(-0.358379 3.81185 56.039)
(-1.27169 4.00331 57.9411)
(-1.56145 3.83763 50.2005)
(-1.06081 3.6615 36.3937)
(-2.42518 3.45319 32.2928)
(4.09747 1.02746 30.1721)