/*--------------------------------*- C++ -*----------------------------------*\
| =========                 |                                                 |
| \\      /  F ield         | OpenFOAM: The Open Source CFD Toolbox           |
|  \\    /   O peration     | Version:  2406                                  |
|   \\  /    A nd           | Website:  www.openfoam.com                      |
|    \\/     M anipulation  |                                                 |
\*---------------------------------------------------------------------------*/
FoamFile
{
    version     2.0;
    format      ascii;
    arch        "LSB;label=32;scalar=64";
    class       volScalarField;
    location    "0.4";
    object      nu;
}
// * * * * * * * * * * * * * * * * * * * * * * * * * * * * * * * * * * * * * //

dimensions      [0 2 -1 0 0 0 0];

internalField   nonuniform List<scalar> 
25000
(
0.00681989
0.00690854
0.00693189
0.00692568
0.00691681
0.00691598
0.00692316
0.00692658
0.00689939
0.00680446
0.00690271
0.00693261
0.00691615
0.00690075
0.00689547
0.00689791
0.00690766
0.0069259
0.00694363
0.00690171
0.00692883
0.00692019
0.00690023
0.00689236
0.00689487
0.00689909
0.00690404
0.00691756
0.00694351
0.00694469
0.00692893
0.00691148
0.00689853
0.0069012
0.00691086
0.00691569
0.00691474
0.00691911
0.00694033
0.00695637
0.00692687
0.00691212
0.00690616
0.00691572
0.00692929
0.00693392
0.00692873
0.00692623
0.00694103
0.00695736
0.00693272
0.00691983
0.00691449
0.00692464
0.00693818
0.00694211
0.00693575
0.00693183
0.00694524
0.00696074
0.00694624
0.00693461
0.00692405
0.00692862
0.00693842
0.00694128
0.00693699
0.00693762
0.00695538
0.00696922
0.00695484
0.00695779
0.0069422
0.00693814
0.00694123
0.00694293
0.00694356
0.00695155
0.00697284
0.00697062
0.00692991
0.00697787
0.00697015
0.00696111
0.00695793
0.0069591
0.00696437
0.00697636
0.00698892
0.00693794
0.00682548
0.00692927
0.00696909
0.00697547
0.00697277
0.00697296
0.00697615
0.00697106
0.00693526
0.00682851
0.006836
0.00708862
0.00743539
0.00788303
0.00830788
0.00842807
0.00816015
0.00775876
0.00739953
0.00712026
0.00713305
0.00756291
0.00802281
0.00851059
0.00874495
0.00871163
0.00855413
0.00823495
0.00784609
0.00742189
0.00755156
0.00810176
0.00848914
0.00851383
0.00837943
0.00833734
0.00841316
0.00847732
0.00828098
0.00780028
0.00806455
0.00864169
0.008556
0.00825279
0.00808787
0.00807113
0.00820061
0.00848437
0.00870108
0.00826366
0.00845367
0.00883194
0.00845407
0.00812918
0.00798541
0.00797839
0.00811017
0.00843698
0.00890241
0.00862488
0.00840374
0.00875689
0.00846422
0.00816508
0.00802558
0.00801862
0.0081513
0.00847897
0.00891085
0.00859192
0.00802789
0.00852852
0.00858703
0.00836531
0.00821497
0.00819889
0.00833141
0.00860946
0.00871496
0.00820626
0.00759945
0.00811419
0.00856782
0.00871111
0.00860733
0.00856427
0.00862712
0.00860295
0.00826746
0.00774729
0.00725399
0.00769076
0.0081808
0.00871687
0.0089746
0.00892267
0.00868385
0.00825586
0.0078143
0.00737567
0.00699096
0.00727876
0.00765459
0.00812119
0.00852428
0.00857201
0.00822619
0.0077692
0.00738935
0.00709154
0.00706825
0.00697996
0.0069619
0.0070815
0.0072751
0.00747298
0.00759662
0.00765297
0.0078147
0.00803227
0.00705397
0.00694637
0.00693838
0.00707731
0.0072716
0.00742163
0.00745006
0.00742416
0.00756232
0.00791229
0.00712284
0.0069985
0.00701707
0.00719365
0.00741753
0.00754902
0.00749451
0.00738385
0.0074538
0.00776204
0.00728666
0.0071539
0.00720273
0.00745363
0.0077962
0.0079682
0.00776071
0.00751874
0.0075204
0.00777681
0.00737914
0.00726285
0.0073438
0.00767982
0.00821973
0.00849416
0.00801653
0.00762909
0.00757224
0.00777076
0.00729162
0.00721733
0.00731414
0.0076394
0.00810938
0.00830552
0.00791598
0.00756646
0.00749986
0.0076568
0.00710936
0.00706185
0.00714823
0.00739638
0.00768162
0.00778078
0.00759632
0.00737693
0.00734255
0.00748971
0.00696273
0.0069206
0.00698428
0.00717483
0.00737613
0.00745104
0.00735498
0.00721943
0.00722487
0.00738031
0.00694328
0.00690631
0.00695119
0.00711977
0.00731059
0.0074021
0.00734505
0.00724883
0.00729049
0.00744964
0.00700253
0.00699121
0.00704528
0.0072244
0.0074498
0.00759736
0.00757629
0.00748727
0.00752577
0.00759859
0.00780083
0.00804439
0.00776414
0.00759214
0.00762389
0.00775807
0.00782607
0.00763239
0.00725001
0.00699406
0.00801686
0.0079974
0.00736776
0.00722281
0.00730938
0.00753017
0.00785323
0.00820222
0.00798939
0.00725445
0.00794358
0.00747545
0.00704895
0.00699099
0.00709661
0.00726693
0.00744916
0.00771068
0.00822962
0.0076361
0.00786942
0.00732662
0.00699549
0.00700252
0.00717059
0.00736354
0.00743287
0.00753059
0.00801703
0.00788555
0.00764287
0.00721931
0.00698279
0.0070624
0.00734529
0.00762851
0.0075339
0.00746509
0.00783012
0.00795034
0.00737147
0.00706583
0.00690739
0.00701758
0.00731251
0.00757063
0.00744051
0.00735273
0.00765806
0.00787898
0.00718556
0.00692721
0.00679866
0.00688696
0.00708737
0.00724869
0.00723643
0.00725301
0.00757581
0.00779861
0.0071551
0.00690045
0.00675944
0.00682135
0.00697929
0.0071293
0.00721121
0.00732902
0.0077307
0.00776831
0.00733829
0.00708331
0.00690553
0.0069515
0.00712526
0.00734506
0.00754865
0.00778784
0.00809622
0.00763601
0.00759794
0.00730678
0.00712727
0.00716479
0.00733368
0.00755782
0.00773106
0.00774826
0.00761181
0.00748707
0.00643142
0.00659032
0.00685395
0.00698666
0.00701025
0.00694627
0.00680112
0.00657433
0.00629137
0.00613537
0.00657235
0.00724351
0.00782107
0.00765778
0.00758985
0.00767497
0.00776738
0.00750269
0.00686143
0.0063053
0.00679776
0.00774233
0.00758709
0.00724254
0.00721836
0.00738971
0.00775378
0.00816789
0.00752352
0.00660833
0.0069724
0.00770383
0.00724384
0.00702906
0.00708154
0.007299
0.00760146
0.00793535
0.00785518
0.00685251
0.0070646
0.00743209
0.00703012
0.00693295
0.00708867
0.0074181
0.00761422
0.00770069
0.00785807
0.00700257
0.00706688
0.00714686
0.00683937
0.00680901
0.00699616
0.00731163
0.00741922
0.00747201
0.00771376
0.00703786
0.00703447
0.00697427
0.0067012
0.0066787
0.00681424
0.00701836
0.00716639
0.00734708
0.00758527
0.00695795
0.00705446
0.00698307
0.00668564
0.00664127
0.00674494
0.00692217
0.00714019
0.0074279
0.00747609
0.00679109
0.00710443
0.00715987
0.00685245
0.00677556
0.00686376
0.00704858
0.0072833
0.00741623
0.00705798
0.00655367
0.00712848
0.0070039
0.006848
0.00679122
0.00681711
0.00686582
0.00686994
0.00676654
0.00655145
0.00645654
0.00627802
0.00629557
0.0064217
0.00648269
0.00647704
0.00639847
0.00625492
0.00606425
0.00585355
0.0057755
0.00631287
0.00678913
0.00732035
0.00745943
0.00745666
0.0073883
0.00721023
0.00684162
0.00632085
0.00589027
0.00645258
0.00728217
0.00804302
0.00768485
0.00758504
0.00773226
0.00812791
0.00792592
0.00690565
0.00613737
0.00654992
0.00745436
0.0076435
0.00732236
0.0073313
0.00762305
0.00823612
0.00834115
0.00729598
0.00633945
0.00661324
0.00740992
0.00727279
0.00707203
0.00717039
0.00753206
0.00791676
0.00788108
0.00740148
0.00645806
0.00664808
0.0072681
0.00699582
0.00684578
0.00692014
0.00712781
0.00732142
0.00744903
0.00727904
0.0064713
0.00666854
0.00721454
0.00685927
0.00669854
0.00672743
0.00684374
0.00700783
0.00721477
0.00708697
0.00639024
0.00668522
0.00742813
0.00695012
0.00671907
0.00670889
0.00680015
0.00696855
0.00716105
0.0068894
0.00625487
0.00663236
0.00748339
0.0073263
0.00697561
0.00690107
0.00694474
0.00702779
0.00697619
0.00655353
0.00609398
0.00654928
0.00668955
0.00680647
0.00676688
0.00670484
0.00663373
0.00653286
0.00637128
0.00614624
0.00604242
0.00649601
0.0063584
0.0062773
0.00624112
0.00619403
0.00610741
0.00598853
0.0058533
0.0057152
0.00571514
0.00661343
0.00693987
0.00695433
0.00695075
0.00697211
0.00689858
0.00670941
0.00643871
0.00607282
0.00576077
0.00676248
0.00738074
0.00720901
0.00717469
0.00737837
0.00763346
0.00757705
0.00715252
0.00650952
0.005941
0.00680876
0.00745411
0.00714321
0.00710376
0.00737116
0.0077688
0.00777968
0.00743821
0.00678128
0.00608398
0.00680109
0.00748284
0.00709164
0.0070055
0.0071632
0.00733511
0.00734724
0.00728985
0.00687636
0.00616985
0.00672384
0.00743504
0.0070223
0.00686039
0.00689186
0.00695195
0.00700828
0.0070831
0.00683543
0.00618191
0.00659098
0.0074118
0.0070508
0.00680793
0.00676766
0.00679194
0.00686331
0.00696595
0.00673477
0.00612292
0.00643289
0.00747771
0.00746698
0.00703518
0.0069142
0.00690701
0.00697311
0.00702319
0.00662772
0.00602154
0.00622628
0.00697594
0.00804234
0.00785246
0.00755466
0.00738139
0.0072274
0.00692155
0.00636993
0.00589572
0.00604966
0.00619834
0.00643909
0.00660298
0.00666972
0.00660816
0.00644779
0.00622767
0.00597233
0.00585248
0.00652472
0.00621453
0.00604867
0.006023
0.00603217
0.00602567
0.00599154
0.005931
0.00585406
0.00590727
0.00682029
0.00672326
0.00643022
0.00642457
0.00652228
0.0065921
0.00656477
0.0064301
0.00616164
0.00589505
0.00708535
0.00697497
0.00655681
0.00659674
0.0068361
0.0070813
0.00709351
0.00692297
0.00651049
0.00602127
0.00713508
0.00711245
0.00665992
0.00672663
0.00701097
0.00718045
0.00707406
0.0069772
0.00665302
0.00610363
0.00708562
0.00746623
0.00683537
0.0068235
0.00695359
0.00695056
0.00688461
0.00690009
0.00668787
0.00614442
0.00687965
0.00798537
0.00701457
0.00682996
0.00680627
0.00677882
0.00679068
0.00687249
0.00668885
0.00613909
0.00659296
0.00801178
0.00727768
0.00691106
0.00680245
0.00677737
0.00683373
0.00694193
0.00667341
0.00608156
0.00631593
0.00742305
0.00813389
0.00740141
0.00718119
0.00713368
0.00720498
0.00721369
0.00661404
0.00597562
0.0060361
0.00666445
0.00752914
0.00811274
0.00828255
0.00794626
0.00744134
0.00689462
0.00626737
0.0058134
0.00583962
0.00594707
0.00615006
0.00630281
0.00638421
0.00635878
0.00622225
0.0060233
0.00580113
0.00572834
0.00648229
0.00622396
0.00597431
0.00593013
0.00599218
0.006096
0.00617698
0.00616792
0.00609944
0.00614917
0.00682521
0.0067564
0.00620017
0.00613938
0.00628029
0.00655461
0.00685014
0.0068035
0.00647777
0.00612454
0.0070461
0.00684712
0.00624563
0.0062258
0.00644203
0.00688446
0.00746841
0.00736606
0.00689384
0.00623827
0.00700724
0.00696529
0.00637355
0.00637868
0.00662092
0.00698692
0.00715824
0.00711859
0.00695809
0.00629389
0.00687563
0.00741649
0.00660168
0.00654827
0.00667239
0.00676708
0.00678698
0.00688802
0.00689465
0.0063117
0.00664541
0.0083642
0.00685676
0.00664967
0.00662713
0.00662942
0.00668598
0.00685896
0.0068886
0.00631041
0.00638329
0.00828025
0.0071679
0.00678152
0.00667676
0.00668044
0.00679815
0.0070347
0.00695989
0.00628466
0.0061246
0.00733022
0.00793722
0.00724897
0.00706404
0.00708999
0.00733013
0.00774508
0.00704706
0.00622738
0.00584664
0.00645967
0.00709846
0.00735772
0.00737157
0.00731805
0.00730738
0.00715621
0.00659314
0.00609427
0.00567007
0.00577757
0.00593505
0.00604434
0.00610383
0.00611924
0.00610772
0.0060676
0.00598465
0.00600124
0.00620597
0.00627998
0.0060603
0.00596663
0.0060137
0.00614794
0.00628348
0.00628397
0.00616409
0.00612868
0.00639971
0.00704029
0.00620177
0.0060524
0.0061609
0.00646512
0.00693716
0.00704569
0.00664078
0.00613945
0.00648734
0.00679438
0.00611577
0.00603951
0.0062067
0.00661709
0.00728242
0.00737039
0.00710121
0.00627665
0.00647438
0.00676382
0.00619872
0.00616464
0.0063879
0.00693885
0.00751806
0.00712513
0.00712035
0.00634806
0.00642809
0.00704062
0.00640219
0.00635061
0.0065433
0.00688691
0.00693548
0.00677159
0.0068756
0.00635402
0.00631784
0.00742718
0.00663043
0.00649225
0.00656969
0.00668314
0.00665029
0.00658871
0.00670121
0.0063376
0.00615511
0.00747885
0.00686555
0.00663093
0.00664008
0.00668407
0.00661563
0.00654375
0.00664179
0.0063286
0.00596024
0.00706073
0.00723516
0.00697065
0.0070199
0.00708431
0.00687672
0.00671325
0.00679135
0.00637028
0.00572549
0.00631735
0.00675786
0.00695055
0.00732563
0.00794852
0.00747332
0.00711461
0.00707824
0.0064553
0.00557636
0.00569218
0.0058409
0.00596624
0.00609519
0.00620882
0.00626349
0.00628647
0.00635604
0.00640583
0.0061007
0.0063096
0.00622796
0.00609987
0.00609336
0.00617773
0.00626675
0.00621506
0.00602185
0.00591333
0.00623561
0.00759791
0.00636316
0.00610119
0.00614595
0.00639712
0.00687874
0.00715455
0.00659368
0.0060051
0.00625894
0.00672125
0.00608167
0.00596158
0.00607218
0.0063808
0.0068853
0.00723989
0.00717409
0.00620897
0.00624521
0.00655944
0.00609964
0.00604931
0.0062454
0.00678174
0.00736627
0.00693496
0.00703903
0.0063211
0.006242
0.00675234
0.006291
0.0062647
0.0065496
0.00730363
0.00698235
0.00651186
0.00660324
0.00630804
0.00619536
0.00710977
0.00656014
0.00649578
0.00670873
0.00684065
0.00646417
0.0062375
0.00634242
0.00625402
0.00608482
0.00730282
0.00685999
0.00670938
0.00675316
0.00657034
0.00625295
0.00610304
0.00622984
0.00623565
0.005923
0.00696945
0.00726518
0.00716779
0.00705717
0.00660204
0.00624373
0.00612249
0.00632193
0.00633014
0.00571302
0.00628282
0.00677659
0.00729967
0.00770592
0.00691083
0.00647277
0.00640553
0.00685218
0.00656909
0.00558967
0.00570035
0.00587767
0.00604885
0.0061868
0.00623431
0.00621837
0.00627013
0.00650081
0.00654686
0.0061954
0.0064006
0.00637033
0.00622927
0.00617304
0.00618275
0.00618007
0.00606288
0.00584081
0.00570863
0.00631253
0.00835671
0.00658873
0.00623403
0.00622929
0.00644656
0.00695011
0.00719269
0.00644833
0.00584284
0.00624953
0.00667399
0.00612769
0.00597411
0.0060458
0.00631565
0.0068861
0.00769997
0.00722738
0.00608528
0.0062027
0.00644478
0.00607233
0.00600505
0.00617012
0.00667028
0.00729073
0.00691095
0.00696712
0.00622777
0.00620586
0.00657407
0.00624486
0.00623659
0.00659022
0.0080133
0.00684775
0.00634902
0.00644586
0.00623427
0.00619737
0.00691761
0.00658884
0.00661053
0.00695363
0.00680074
0.00625068
0.00605028
0.00619707
0.00620587
0.0061276
0.00728428
0.00712647
0.0069655
0.00675659
0.00632088
0.0060174
0.00592952
0.00613772
0.00622959
0.00598205
0.00700303
0.00799915
0.00737771
0.00667594
0.00623095
0.00600053
0.00598835
0.00634338
0.0063494
0.00577593
0.00631221
0.00697042
0.00736458
0.00685596
0.00643235
0.00625604
0.00639427
0.00753348
0.00642135
0.00568476
0.00575879
0.00595308
0.0061022
0.00617734
0.00619503
0.00622517
0.00635349
0.00646615
0.00620035
0.00611254
0.00635803
0.0064179
0.00631607
0.00624035
0.00619562
0.00612738
0.00596901
0.00572659
0.0055743
0.00632315
0.00847541
0.00669438
0.00634204
0.00632834
0.00652373
0.00698821
0.00708953
0.00632421
0.00570763
0.00629891
0.00660922
0.00615476
0.00602441
0.00608729
0.00633953
0.00699299
0.00852394
0.00710227
0.00595333
0.00624472
0.00639469
0.00608686
0.00602754
0.00617121
0.00666302
0.00726007
0.00693391
0.00691466
0.0061143
0.0062522
0.00650951
0.00624035
0.00624464
0.00664436
0.00908476
0.00667753
0.00629497
0.006425
0.00615892
0.00626583
0.00684366
0.00660507
0.00670836
0.00706851
0.00660521
0.00613231
0.00601398
0.00619813
0.00615763
0.00622107
0.00735899
0.00732333
0.00706926
0.00661204
0.00616176
0.00594242
0.00591307
0.00616865
0.00617435
0.00608148
0.00714338
0.00870648
0.00709754
0.00643788
0.0060993
0.0059528
0.00600696
0.00645082
0.0061987
0.00586643
0.00640376
0.00702921
0.0070374
0.00659798
0.00633017
0.00626808
0.00655218
0.00850494
0.00608568
0.0057543
0.00581493
0.00598204
0.00609306
0.00615014
0.00619343
0.00627489
0.0063733
0.00620288
0.00584526
0.00591404
0.00617915
0.00636383
0.00637219
0.00631679
0.00624069
0.00612605
0.0059433
0.0056935
0.00551546
0.00612103
0.00782843
0.00683283
0.00646017
0.00643564
0.00660055
0.00694677
0.00694946
0.00625548
0.00561891
0.00625769
0.00665512
0.00616911
0.00605506
0.00612148
0.0063598
0.00690606
0.00810309
0.00692485
0.00580895
0.00630035
0.0063942
0.00607096
0.00604207
0.00622188
0.00670066
0.0072185
0.00714482
0.00697543
0.00593601
0.00634708
0.0064782
0.00619499
0.00627698
0.0068554
0.00813859
0.00663441
0.00639104
0.00653738
0.00598725
0.00638863
0.00679261
0.00650344
0.00676332
0.00726753
0.00649816
0.0061254
0.00608932
0.00632291
0.00599431
0.00635722
0.0074117
0.00699658
0.00691967
0.00648573
0.0061005
0.00595434
0.00600199
0.00632137
0.00597428
0.00620392
0.00746131
0.0076973
0.00687458
0.00633198
0.00607
0.00600018
0.00615409
0.00667077
0.00591016
0.00596457
0.00657812
0.00727539
0.0071141
0.00658231
0.00636752
0.00641951
0.00694531
0.00711881
0.00575675
0.0057912
0.00586943
0.00601782
0.00610279
0.00613247
0.00617408
0.00623797
0.00619282
0.00589245
0.00555917
0.00587713
0.00617619
0.0064056
0.00650824
0.00651597
0.00644946
0.00632087
0.00611582
0.00584968
0.0056516
0.00604377
0.00766558
0.00705463
0.00667113
0.00664411
0.0067748
0.00698665
0.00692139
0.00633271
0.00570163
0.00617256
0.0069001
0.00631217
0.00618263
0.00623816
0.00641503
0.00668512
0.00697752
0.00667329
0.00579408
0.00629483
0.00666123
0.00619561
0.00615911
0.00634554
0.0067023
0.00695477
0.00709744
0.00691092
0.00585809
0.00641708
0.00674678
0.00628171
0.00640029
0.00708463
0.00740605
0.00671413
0.0066309
0.00667264
0.00585217
0.00647907
0.007047
0.00651095
0.00684505
0.00724424
0.00649202
0.00624187
0.00629732
0.00644034
0.00580345
0.0064175
0.00763829
0.00678179
0.00678585
0.00645953
0.00615888
0.00609303
0.00622567
0.00640076
0.00573626
0.00623348
0.00766463
0.00715519
0.0067899
0.00638787
0.00619252
0.00620348
0.00646023
0.0065258
0.00564395
0.005982
0.00669521
0.00752178
0.00760695
0.00684489
0.00661806
0.0067244
0.00701339
0.00627576
0.00549611
0.00577176
0.00586187
0.00600529
0.00610296
0.00611711
0.00610236
0.00603455
0.00584348
0.00555048
0.00532568
0.00583756
0.00614795
0.00643477
0.00674505
0.00704371
0.00708516
0.00685435
0.00656021
0.0062898
0.00602437
0.00604826
0.00736887
0.00701811
0.00682914
0.00676377
0.00669891
0.00660558
0.00654533
0.0065363
0.00603072
0.00619301
0.00688264
0.00637844
0.00628825
0.00629164
0.00631064
0.0062926
0.00627694
0.00638437
0.00604444
0.00633067
0.00681712
0.00633662
0.00633978
0.00646946
0.0065613
0.00652596
0.00648867
0.00664871
0.006132
0.00646802
0.00702454
0.00644723
0.00663894
0.0071336
0.00697415
0.00667504
0.00668246
0.00700407
0.00615267
0.00651261
0.00723238
0.00651845
0.00678503
0.00695674
0.0065484
0.00640148
0.00653346
0.00678689
0.00602978
0.00639245
0.00731898
0.00649773
0.00652028
0.00644414
0.00628744
0.00628131
0.0064513
0.00652671
0.00585475
0.00618087
0.00766131
0.00673845
0.00662271
0.00650151
0.00640463
0.00644378
0.00659235
0.00634547
0.005676
0.00594018
0.00683165
0.00741573
0.00791607
0.00737812
0.00694048
0.0066829
0.00639152
0.00595169
0.0054716
0.00573005
0.00583568
0.00595996
0.00604896
0.00604497
0.00594934
0.00577881
0.00557857
0.00539586
0.00530023
0.00569411
0.00598426
0.00624927
0.00649961
0.00665773
0.00666459
0.00656713
0.0064599
0.00634925
0.00606755
0.00594979
0.00691549
0.00700699
0.00690509
0.0066238
0.00638049
0.00623161
0.00622103
0.00658039
0.0061777
0.00614062
0.00683353
0.00647322
0.00636644
0.00622751
0.00607333
0.00595403
0.00589838
0.00607751
0.00609359
0.00629838
0.0068734
0.00645967
0.00645265
0.00639569
0.00623666
0.00608499
0.00599441
0.00612585
0.00611488
0.0064009
0.00691471
0.00648975
0.00666662
0.0068189
0.00658235
0.00633576
0.00624206
0.006429
0.00619633
0.0063864
0.00674155
0.00636288
0.00657863
0.00686237
0.00668735
0.00646071
0.00647331
0.00692329
0.00620862
0.0062724
0.00661915
0.00620556
0.00629296
0.0064495
0.00646626
0.00643615
0.00660273
0.00725205
0.00609666
0.00611226
0.00688792
0.00627792
0.00625918
0.00636439
0.00645083
0.0065432
0.00680549
0.00699394
0.00592989
0.00590499
0.00692236
0.00678094
0.00670543
0.0067745
0.0067937
0.00678867
0.00675431
0.00641012
0.00576567
0.00570961
0.00582247
0.0059109
0.00598543
0.00601818
0.00599543
0.00593873
0.0058605
0.00575279
0.00565251
0.00552499
0.00578643
0.00602104
0.00618449
0.0062516
0.00626024
0.0062404
0.00619053
0.00605322
0.00577865
0.00582026
0.00664073
0.00680166
0.00665867
0.00637013
0.00616253
0.00611373
0.00628056
0.00685422
0.0059534
0.00605923
0.00667447
0.00639855
0.00627102
0.00607788
0.0058829
0.00576558
0.00579209
0.00609797
0.00600136
0.00625804
0.00670613
0.00638004
0.00635306
0.0062147
0.00598488
0.00579988
0.00574687
0.00596773
0.00604918
0.00639184
0.00666891
0.00636436
0.00651006
0.00656448
0.00627837
0.00597759
0.00584767
0.00603799
0.00615287
0.00640131
0.00647702
0.00620997
0.0064275
0.00685405
0.00673984
0.00623388
0.00601518
0.00623214
0.00633803
0.00631676
0.00633533
0.00603106
0.00615032
0.00644301
0.00665487
0.00637099
0.00615218
0.00645198
0.00654323
0.0062014
0.00647452
0.00602069
0.00603645
0.00618696
0.00632582
0.00627499
0.00616537
0.00645824
0.00647766
0.00602732
0.00695965
0.00639765
0.00634014
0.00648716
0.00661997
0.00651416
0.00634563
0.00655936
0.00634337
0.00581193
0.00591524
0.00598874
0.00611959
0.00631849
0.00651434
0.00651504
0.00634891
0.00630812
0.00622357
0.00558255
0.00579388
0.00600669
0.00613764
0.00618084
0.0061858
0.00620747
0.00629777
0.0064435
0.00613693
0.00580076
0.00653841
0.00670235
0.00653512
0.00627941
0.00610115
0.00605394
0.00614671
0.00668202
0.00618044
0.00601796
0.00658829
0.00630128
0.00616655
0.00599211
0.00581335
0.00572146
0.00575783
0.00602565
0.00603546
0.00623137
0.006605
0.00626973
0.00623512
0.00611089
0.00588844
0.00571463
0.00568828
0.00591877
0.00604417
0.00639995
0.00656815
0.00627133
0.00641651
0.00650099
0.00619965
0.00587515
0.00575373
0.00598399
0.0061888
0.00643966
0.00637455
0.00614055
0.00640356
0.00711883
0.00683505
0.00610728
0.00585749
0.0060964
0.00646013
0.00636873
0.00619324
0.00595146
0.00610735
0.00644819
0.00652216
0.00610055
0.00587077
0.0061157
0.0066705
0.00630353
0.00622055
0.00588454
0.00592301
0.00603316
0.00603303
0.00588436
0.00577856
0.00603171
0.00653319
0.00629942
0.00681505
0.00620993
0.00617077
0.00621051
0.00612155
0.00595552
0.00588875
0.00624682
0.00652596
0.00613976
0.0062335
0.00629044
0.00652263
0.00682965
0.00674603
0.0064418
0.00631979
0.00652226
0.00638937
0.00630283
0.0066012
0.00688906
0.0069586
0.00661583
0.00631383
0.00613865
0.0061138
0.00638054
0.00642068
0.00623728
0.0063945
0.00623727
0.0061904
0.0060804
0.00593722
0.00581144
0.00575963
0.00597364
0.00654113
0.00626887
0.00623876
0.00605389
0.00604577
0.00597529
0.00585748
0.00574898
0.00568195
0.00580936
0.00626401
0.00644025
0.00634044
0.00612752
0.00618598
0.00615064
0.00598099
0.00583435
0.00576061
0.00589157
0.00631596
0.00657029
0.00641495
0.00618836
0.00639194
0.00660753
0.00629316
0.00596905
0.00585644
0.00604107
0.00649536
0.00653164
0.00632634
0.00611754
0.00639129
0.00717931
0.00674659
0.00610243
0.00592052
0.00617678
0.00668807
0.00637484
0.00616234
0.00596016
0.00609032
0.0063171
0.00627301
0.00599404
0.00588395
0.00619237
0.00661041
0.00627346
0.00611193
0.00587836
0.00590657
0.00595842
0.00592608
0.0058225
0.00580725
0.00614502
0.00635332
0.00637335
0.00654239
0.00615315
0.00614309
0.00614777
0.00607074
0.00597271
0.00601401
0.00655058
0.00625368
0.00634461
0.0065271
0.00652372
0.00671567
0.00687671
0.00672057
0.00649134
0.00640928
0.00643062
0.00610466
0.00622565
0.00595873
0.00585867
0.00587942
0.00588878
0.00586212
0.00583361
0.00586434
0.00610679
0.00641694
0.00577998
0.00556453
0.00554406
0.00561161
0.00564287
0.00561263
0.00554718
0.00550461
0.00563304
0.00614622
0.00582646
0.00562561
0.00565291
0.00576419
0.00580444
0.00575238
0.00564298
0.00553688
0.00557901
0.00601227
0.00618719
0.00588669
0.00591729
0.00609978
0.00618125
0.00606369
0.00587598
0.00571533
0.00573235
0.00621626
0.006813
0.00612904
0.00610447
0.00643281
0.00681396
0.00644855
0.00607604
0.00587368
0.00593043
0.00669507
0.00706669
0.0061594
0.00608203
0.00639195
0.00685713
0.00649198
0.00609814
0.00592952
0.00607204
0.00753099
0.00660268
0.00603899
0.00593564
0.00608096
0.00620451
0.00610822
0.00595027
0.00588745
0.00610638
0.0071958
0.00636169
0.00597627
0.00584438
0.00590913
0.00594985
0.00590961
0.00585335
0.00585369
0.00611735
0.00666094
0.00646326
0.00628417
0.006068
0.00612323
0.00615537
0.00610188
0.00604289
0.00607143
0.00648638
0.00653489
0.00651336
0.0066568
0.00656937
0.00671633
0.00671844
0.00654887
0.00641117
0.00639973
0.00655779
0.00632194
0.00700596
0.00635275
0.00592898
0.00580759
0.00578344
0.00582288
0.00591525
0.006081
0.00653469
0.00658382
0.00589134
0.00548471
0.00536422
0.00536194
0.00538651
0.00541137
0.00542592
0.00545192
0.00563047
0.00624687
0.00570104
0.00540808
0.00537884
0.00544557
0.00550285
0.00551898
0.00548034
0.00541994
0.00547696
0.0059378
0.00588109
0.0055912
0.00562287
0.00578259
0.00590331
0.00588469
0.0057457
0.00558431
0.00556329
0.00597542
0.0063298
0.00586495
0.0059199
0.00627418
0.00680689
0.00649488
0.00604004
0.00576407
0.00571085
0.00618836
0.00713818
0.00606513
0.00604768
0.00641235
0.00712013
0.00662679
0.00611011
0.00584408
0.00582866
0.00651524
0.00714609
0.00607871
0.00596658
0.00610099
0.00620511
0.00613128
0.00595985
0.00581792
0.00588049
0.00682355
0.00661216
0.00607733
0.00590388
0.00595199
0.00598132
0.00594831
0.00586734
0.00579763
0.00593666
0.00697005
0.00634893
0.00646174
0.00617989
0.00620112
0.00621327
0.00614157
0.00603417
0.00598303
0.00626442
0.0071808
0.00598896
0.00632466
0.00648773
0.00671183
0.00683947
0.0067262
0.00655311
0.00648893
0.00667493
0.00641348
0.00620376
0.00693857
0.00653513
0.00630948
0.00625215
0.00632656
0.00660289
0.00734973
0.00709116
0.00605297
0.00614355
0.00571832
0.00548785
0.00543193
0.00542502
0.00544855
0.0055085
0.00562823
0.00596955
0.00650071
0.00584105
0.0054627
0.00536245
0.00536949
0.00538675
0.00540298
0.00541249
0.00543362
0.00559005
0.00623626
0.0059059
0.00557004
0.00553573
0.00560307
0.00564385
0.00564026
0.00557923
0.00550016
0.00555241
0.00609447
0.00622608
0.00584919
0.00585845
0.00605733
0.00619073
0.0060666
0.00583318
0.00563128
0.00561089
0.00611343
0.00676743
0.0061966
0.00617261
0.00665257
0.00762023
0.00651381
0.00599758
0.0057239
0.00569179
0.00627021
0.00677748
0.00639299
0.00620164
0.00639103
0.00652829
0.00626889
0.00595559
0.00574389
0.00577097
0.00660698
0.00628775
0.00645277
0.00615692
0.0061558
0.00613309
0.00602828
0.00586671
0.00574772
0.00588697
0.00732342
0.00590979
0.00679197
0.00657207
0.00646301
0.0063213
0.00614686
0.00599028
0.00593436
0.00628385
0.00699827
0.00558272
0.00596505
0.00629605
0.0066145
0.00676445
0.00664119
0.00646108
0.0063742
0.00637438
0.00603875
0.00661357
0.00646283
0.00618148
0.0061937
0.00632079
0.00646612
0.00653866
0.00639089
0.00599884
0.00557816
0.00593111
0.0058488
0.00565525
0.00564373
0.00568701
0.00575924
0.00589111
0.00616787
0.00683313
0.00602484
0.00576917
0.00563864
0.00549353
0.00549559
0.00552033
0.00555147
0.00560342
0.00571384
0.00606514
0.00653282
0.00585367
0.00571793
0.00560777
0.00564114
0.00565911
0.00564981
0.00564026
0.0056614
0.00586747
0.00681887
0.00602885
0.00601974
0.00592181
0.00604423
0.0060571
0.00591234
0.00577252
0.005694
0.00581135
0.0067095
0.00613798
0.00650921
0.00633792
0.0068249
0.00694662
0.00624954
0.00589725
0.00572784
0.00581165
0.00670073
0.00600867
0.00681629
0.00640893
0.0065802
0.00664383
0.00625894
0.00593524
0.00575815
0.00587041
0.00692631
0.00577897
0.00672473
0.00634316
0.00623334
0.00618013
0.00606309
0.00590585
0.00581505
0.00604513
0.00706662
0.00556639
0.00664102
0.00691656
0.00655178
0.006328
0.00617794
0.00607092
0.00607693
0.00655689
0.00639631
0.00538265
0.0057926
0.00623782
0.0066588
0.00688231
0.00678677
0.00658908
0.00638895
0.006165
0.00584439
0.0058738
0.00585256
0.0059464
0.00619726
0.00646872
0.00642372
0.00607715
0.00576378
0.00546833
0.00517015
0.00547727
0.0054879
0.00557652
0.00571912
0.00586935
0.00607142
0.00639995
0.00678532
0.0065034
0.00556911
0.00555177
0.00559058
0.00566367
0.00575187
0.0057957
0.00583686
0.00595864
0.00621547
0.00676802
0.00601523
0.00578858
0.00586076
0.00591972
0.00598831
0.00597078
0.00591278
0.00591783
0.00604649
0.00648661
0.00648329
0.00607326
0.00626126
0.00631756
0.00647291
0.00631536
0.00610181
0.00597822
0.00598733
0.00629375
0.00685582
0.00625268
0.00688153
0.00691134
0.00813911
0.00672794
0.00625543
0.00602903
0.00595623
0.00621282
0.00694876
0.00613504
0.00716661
0.0067351
0.00666603
0.00643285
0.00619696
0.00601077
0.00594128
0.00625313
0.006774
0.00587689
0.0066555
0.0064382
0.00625508
0.00615663
0.00605636
0.00597161
0.00599095
0.00652079
0.00639867
0.0056417
0.00632389
0.0065841
0.00646769
0.00632662
0.00623206
0.00620817
0.00637058
0.00735234
0.00600053
0.0054533
0.00570654
0.00595382
0.00616859
0.00632825
0.00643239
0.00646811
0.00637062
0.00609879
0.00573545
0.00564647
0.00572518
0.00582515
0.00593954
0.00587445
0.00571584
0.00554038
0.00535664
0.00516365
0.00495014
0.00562563
0.00546883
0.00557943
0.00578108
0.00587709
0.00589348
0.00591919
0.00595993
0.00587381
0.00531736
0.00550752
0.00541513
0.00560918
0.00584877
0.00591217
0.00587909
0.00586775
0.00593235
0.00611295
0.00565841
0.00547557
0.00546944
0.00576455
0.00612177
0.00613952
0.0060031
0.00591153
0.00590559
0.00607795
0.00586659
0.00548323
0.00552497
0.00591875
0.006619
0.00660194
0.00621381
0.0060127
0.0059336
0.00606013
0.00595522
0.00548336
0.00551901
0.0059221
0.00692159
0.00740675
0.00647882
0.00615287
0.00600774
0.00610638
0.00598756
0.00543131
0.00541628
0.00569522
0.0061319
0.00638972
0.00634105
0.00619785
0.00608516
0.00621954
0.00599496
0.00534054
0.00526603
0.00542143
0.00566065
0.00584708
0.00596998
0.00604243
0.00610704
0.00637867
0.00594132
0.00529378
0.00519572
0.00528252
0.00547034
0.00567274
0.00587304
0.00608808
0.00636699
0.00673076
0.00581367
0.00530497
0.00526034
0.00533254
0.00551183
0.00574963
0.00601602
0.00625769
0.00630992
0.00603681
0.00561862
0.00635547
0.00586454
0.00576027
0.00579422
0.00574179
0.00558206
0.0054083
0.00525762
0.00513246
0.00500943
0.00611136
0.00568295
0.00560976
0.00576955
0.00593129
0.00595397
0.00589404
0.00582771
0.00573378
0.00532909
0.00591908
0.00550926
0.00551796
0.00574806
0.00595221
0.00599276
0.00594843
0.00593424
0.00598715
0.00559298
0.00583811
0.00547771
0.00557397
0.00594111
0.00627572
0.00623416
0.00608988
0.00602333
0.00608644
0.00575321
0.00572649
0.00542889
0.00558679
0.00613331
0.0071177
0.00674516
0.00634442
0.00619295
0.00623734
0.00588196
0.00559537
0.00533139
0.00548096
0.00597407
0.00678639
0.00681741
0.00648784
0.00633247
0.00637753
0.00597787
0.00550664
0.00522432
0.00530816
0.00561621
0.00593261
0.00606371
0.00609594
0.00611882
0.0062146
0.00594676
0.00550395
0.00516187
0.00515933