/*--------------------------------*- C++ -*----------------------------------*\
| =========                 |                                                 |
| \\      /  F ield         | OpenFOAM: The Open Source CFD Toolbox           |
|  \\    /   O peration     | Version:  2406                                  |
|   \\  /    A nd           | Website:  www.openfoam.com                      |
|    \\/     M anipulation  |                                                 |
\*---------------------------------------------------------------------------*/
FoamFile
{
    version     2.0;
    format      ascii;
    arch        "LSB;label=32;scalar=64";
    class       volScalarField;
    location    "0.4";
    object      p;
}
// * * * * * * * * * * * * * * * * * * * * * * * * * * * * * * * * * * * * * //

dimensions      [0 2 -2 0 0 0 0];

internalField   nonuniform List<scalar> 
25000
(
99.8253
99.7919
99.7727
99.7611
99.7564
99.7579
99.7657
99.7811
99.8055
99.8426
99.7961
99.7545
99.7307
99.7174
99.7124
99.7146
99.724
99.742
99.7716
99.8178
99.7812
99.7355
99.7086
99.6939
99.6886
99.6914
99.7019
99.722
99.7551
99.8066
99.7731
99.7267
99.6987
99.6834
99.678
99.6811
99.6922
99.7132
99.7477
99.8005
99.7713
99.7256
99.6979
99.6827
99.6773
99.6803
99.6915
99.7125
99.747
99.7999
99.7762
99.7321
99.7055
99.691
99.6856
99.6884
99.6991
99.7194
99.7531
99.8052
99.7886
99.7469
99.7223
99.7087
99.7035
99.7056
99.7153
99.7343
99.7665
99.8168
99.8099
99.7716
99.7496
99.7372
99.7318
99.733
99.7413
99.7583
99.7878
99.8359
99.8407
99.8083
99.7898
99.7784
99.7728
99.7729
99.7793
99.7936
99.8192
99.8623
99.8861
99.8619
99.8469
99.836
99.8299
99.8288
99.8334
99.8449
99.8647
99.8989
98.8686
98.9019
98.9272
98.9448
98.9534
98.9525
98.9426
98.9254
98.9029
98.8674
98.9111
98.9424
98.9671
98.9846
98.9934
98.9929
98.9829
98.9651
98.9418
98.9089
98.9394
98.9724
98.9982
99.0165
99.0259
99.0256
99.0153
98.9965
98.9715
98.9385
98.9564
98.9918
99.0193
99.0385
99.0484
99.0482
99.0375
99.0177
98.991
98.9564
98.9627
99
99.0289
99.049
99.0592
99.059
99.0482
99.0277
98.9998
98.964
98.9594
98.9979
99.028
99.0486
99.059
99.0588
99.0479
99.0272
98.9988
98.9625
98.948
98.9872
99.0177
99.0385
99.0489
99.0486
99.0377
99.0172
98.9892
98.953
98.9306
98.9699
98.9997
99.0199
99.0296
99.0289
99.0183
98.9986
98.9718
98.9369
98.9089
98.9479
98.976
98.9941
99.0024
99.0012
98.991
98.9727
98.9482
98.9145
98.8782
98.9181
98.9437
98.9591
98.9657
98.964
98.9544
98.9377
98.9144
98.8796
99.6298
99.639
99.651
99.6613
99.669
99.6725
99.6717
99.6682
99.6651
99.6562
99.6527
99.6589
99.6688
99.6789
99.6865
99.6897
99.6882
99.6843
99.6813
99.6766
99.6708
99.6783
99.6884
99.6984
99.7058
99.7086
99.7065
99.7017
99.6979
99.6947
99.686
99.6956
99.7062
99.7161
99.7228
99.7249
99.7219
99.7162
99.7111
99.7067
99.6966
99.708
99.7192
99.7286
99.7345
99.7357
99.7319
99.7253
99.7192
99.7136
99.7029
99.7153
99.7269
99.7359
99.7407
99.741
99.7364
99.7293
99.7224
99.7161
99.7058
99.7187
99.7305
99.739
99.7431
99.7422
99.7369
99.7292
99.7218
99.7152
99.7076
99.7202
99.7316
99.7396
99.7428
99.741
99.735
99.7265
99.7187
99.7122
99.7095
99.722
99.7327
99.7395
99.7416
99.7391
99.7322
99.7233
99.7152
99.7079
99.7111
99.7243
99.7336
99.7385
99.7395
99.7362
99.7293
99.7201
99.7106
99.6999
99.8561
99.8611
99.8687
99.8716
99.8712
99.8678
99.8618
99.8538
99.8449
99.8318
99.8854
99.8878
99.8931
99.8961
99.8957
99.8918
99.8844
99.8749
99.865
99.854
99.9004
99.9074
99.9146
99.9193
99.9195
99.9148
99.9058
99.8941
99.8822
99.8702
99.909
99.9206
99.9309
99.9372
99.9379
99.9325
99.9216
99.9074
99.8929
99.8779
99.9115
99.9266
99.9393
99.947
99.9481
99.9422
99.9298
99.9136
99.8968
99.8794
99.9092
99.9261
99.9402
99.9487
99.9498
99.9435
99.9304
99.9135
99.8957
99.8772
99.9027
99.9202
99.9344
99.9428
99.9439
99.9373
99.9247
99.9084
99.8907
99.872
99.8936
99.9105
99.9234
99.9311
99.9319
99.9259
99.9144
99.8992
99.8828
99.865
99.8831
99.8995
99.9101
99.9158
99.916
99.9108
99.9008
99.8874
99.8724
99.8546
99.8757
99.8897
99.8959
99.8982
99.8969
99.8921
99.8839
99.8727
99.8594
99.8408
100.441
100.451
100.466
100.477
100.485
100.489
100.49
100.487
100.482
100.475
100.472
100.478
100.489
100.499
100.506
100.51
100.51
100.506
100.501
100.499
100.49
100.5
100.512
100.522
100.529
100.531
100.53
100.525
100.518
100.513
100.503
100.517
100.531
100.542
100.549
100.551
100.547
100.539
100.53
100.522
100.511
100.528
100.545
100.557
100.564
100.566
100.56
100.549
100.538
100.526
100.515
100.535
100.553
100.567
100.575
100.575
100.568
100.556
100.543
100.529
100.517
100.539
100.558
100.572
100.579
100.579
100.571
100.559
100.546
100.531
100.519
100.541
100.559
100.572
100.579
100.578
100.571
100.56
100.547
100.532
100.52
100.543
100.559
100.57
100.574
100.573
100.567
100.557
100.545
100.528
100.527
100.548
100.559
100.565
100.568
100.566
100.561
100.552
100.544
100.527
101.369
101.36
101.355
101.349
101.341
101.332
101.321
101.31
101.299
101.298
101.377
101.365
101.357
101.35
101.342
101.333
101.323
101.313
101.306
101.312
101.374
101.365
101.358
101.351
101.344
101.335
101.325
101.314
101.307
101.309
101.363
101.357
101.353
101.348
101.342
101.334
101.324
101.313
101.305
101.303
101.344
101.342
101.341
101.338
101.334
101.329
101.319
101.309
101.3
101.295
101.322
101.323
101.325
101.325
101.323
101.319
101.311
101.302
101.293
101.287
101.299
101.304
101.307
101.309
101.308
101.306
101.3
101.293
101.285
101.278
101.28
101.287
101.291
101.293
101.293
101.291
101.288
101.282
101.277
101.269
101.264
101.274
101.278
101.279
101.278
101.276
101.274
101.271
101.268
101.258
101.252
101.263
101.265
101.263
101.261
101.259
101.26
101.261
101.267
101.259
102.26
102.271
102.275
102.277
102.276
102.273
102.267
102.258
102.247
102.25
102.268
102.277
102.282
102.285
102.287
102.285
102.279
102.272
102.267
102.275
102.278
102.286
102.292
102.298
102.301
102.3
102.294
102.286
102.279
102.281
102.282
102.291
102.299
102.306
102.312
102.313
102.307
102.298
102.288
102.285
102.28
102.29
102.299
102.309
102.316
102.319
102.315
102.306
102.294
102.286
102.272
102.283
102.294
102.305
102.314
102.318
102.316
102.307
102.295
102.284
102.263
102.275
102.286
102.297
102.307
102.311
102.31
102.303
102.292
102.28
102.254
102.267
102.279
102.289
102.297
102.301
102.301
102.295
102.286
102.275
102.251
102.262
102.274
102.282
102.287
102.29
102.289
102.285
102.279
102.265
102.237
102.25
102.263
102.27
102.274
102.278
102.28
102.28
102.281
102.266
103.567
103.566
103.561
103.556
103.549
103.542
103.534
103.528
103.525
103.536
103.571
103.566
103.559
103.553
103.548
103.542
103.537
103.534
103.536
103.549
103.578
103.57
103.562
103.557
103.551
103.545
103.541
103.538
103.541
103.549
103.58
103.572
103.565
103.56
103.554
103.549
103.544
103.542
103.542
103.547
103.577
103.57
103.563
103.558
103.553
103.549
103.545
103.542
103.539
103.54
103.569
103.563
103.557
103.552
103.549
103.546
103.542
103.538
103.534
103.533
103.559
103.553
103.548
103.544
103.541
103.539
103.535
103.531
103.527
103.524
103.547
103.541
103.537
103.533
103.531
103.529
103.526
103.523
103.52
103.517
103.538
103.53
103.526
103.522
103.519
103.518
103.517
103.516
103.516
103.511
103.52
103.511
103.511
103.507
103.506
103.508
103.512
103.516
103.519
103.513
104.661
104.693
104.719
104.741
104.758
104.769
104.774
104.773
104.771
104.765
104.67
104.697
104.723
104.747
104.768
104.784
104.793
104.798
104.8
104.795
104.678
104.704
104.73
104.756
104.78
104.798
104.812
104.82
104.824
104.821
104.686
104.714
104.741
104.768
104.793
104.814
104.83
104.84
104.845
104.841
104.695
104.725
104.754
104.782
104.807
104.829
104.846
104.856
104.86
104.856
104.705
104.737
104.766
104.794
104.819
104.841
104.857
104.867
104.87
104.867
104.716
104.747
104.776
104.803
104.828
104.849
104.864
104.873
104.876
104.874
104.727
104.755
104.783
104.809
104.833
104.853
104.867
104.876
104.879
104.879
104.74
104.762
104.789
104.813
104.836
104.855
104.869
104.877
104.881
104.883
104.739
104.764
104.791
104.815
104.838
104.857
104.871
104.878
104.879
104.881
106.453
106.462
106.477
106.486
106.487
106.482
106.472
106.461
106.453
106.439
106.457
106.466
106.478
106.487
106.489
106.487
106.48
106.472
106.467
106.456
106.45
106.46
106.473
106.482
106.487
106.487
106.483
106.48
106.478
106.473
106.44
106.453
106.466
106.475
106.481
106.484
106.484
106.485
106.487
106.485
106.431
106.446
106.459
106.468
106.474
106.48
106.485
106.49
106.493
106.493
106.423
106.438
106.45
106.46
106.468
106.476
106.484
106.491
106.496
106.498
106.417
106.429
106.441
106.451
106.46
106.47
106.48
106.489
106.496
106.499
106.413
106.42
106.431
106.441
106.452
106.463
106.474
106.484
106.492
106.496
106.409
106.413
106.423
106.433
106.444
106.456
106.468
106.478
106.486
106.491
106.398
106.406
106.416
106.426
106.438
106.45
106.459
106.467
106.473
106.48
108.113
108.133
108.161
108.185
108.201
108.208
108.207
108.201
108.19
108.163
108.141
108.162
108.191
108.215
108.232
108.238
108.235
108.228
108.217
108.195
108.155
108.183
108.215
108.241
108.257
108.262
108.258
108.25
108.241
108.225
108.168
108.201
108.235
108.26
108.275
108.28
108.277
108.271
108.263
108.25
108.178
108.216
108.25
108.274
108.288
108.294
108.293
108.288
108.281
108.269
108.187
108.226
108.259
108.282
108.297
108.304
108.304
108.299
108.292
108.282
108.196
108.231
108.263
108.286
108.301
108.309
108.309
108.304
108.297
108.287
108.203
108.232
108.261
108.285
108.301
108.308
108.307
108.302
108.296
108.286
108.206
108.23
108.256
108.28
108.296
108.302
108.3
108.295
108.289
108.279
108.198
108.222
108.248
108.272
108.286
108.291
108.288
108.282
108.277
108.267
110.356
110.351
110.357
110.362
110.363
110.36
110.356
110.35
110.342
110.324
110.384
110.38
110.384
110.388
110.387
110.381
110.372
110.364
110.355
110.339
110.395
110.397
110.404
110.408
110.405
110.396
110.384
110.374
110.365
110.353
110.398
110.407
110.417
110.421
110.416
110.405
110.392
110.382
110.374
110.364
110.396
110.41
110.423
110.426
110.42
110.41
110.398
110.388
110.379
110.37
110.39
110.407
110.42
110.424
110.42
110.411
110.4
110.389
110.381
110.372
110.381
110.398
110.412
110.418
110.416
110.408
110.397
110.387
110.379
110.37
110.372
110.385
110.399
110.407
110.406
110.399
110.39
110.381
110.375
110.366
110.361
110.369
110.381
110.389
110.39
110.385
110.378
110.373
110.368
110.357
110.343
110.35
110.361
110.369
110.369
110.366
110.362
110.36
110.359
110.348
112.642
112.659
112.674
112.688
112.698
112.704
112.706
112.704
112.697
112.674
112.677
112.695
112.712
112.726
112.736
112.74
112.738
112.732
112.72
112.697
112.705
112.725
112.744
112.759
112.768
112.77
112.766
112.757
112.743
112.722
112.727
112.751
112.772
112.788
112.795
112.795
112.791
112.78
112.765
112.744
112.743
112.771
112.794
112.81
112.817
112.817
112.813
112.801
112.785
112.764
112.755
112.786
112.811
112.827
112.835
112.836
112.83
112.817
112.801
112.78
112.763
112.795
112.822
112.839
112.848
112.848
112.84
112.828
112.814
112.793
112.771
112.801
112.827
112.845
112.853
112.851
112.844
112.835
112.823
112.804
112.777
112.803
112.826
112.842
112.849
112.848
112.843
112.836
112.826
112.807
112.773
112.795
112.817
112.831
112.836
112.837
112.834
112.83
112.823
112.804
115.747
115.747
115.74
115.738
115.738
115.74
115.745
115.752
115.76
115.762
115.775
115.776
115.771
115.769
115.769
115.77
115.772
115.772
115.771
115.764
115.803
115.802
115.798
115.796
115.796
115.797
115.796
115.792
115.783
115.771
115.824
115.824
115.821
115.82
115.821
115.821
115.816
115.807
115.794
115.776
115.839
115.841
115.84
115.84
115.84
115.838
115.831
115.818
115.802
115.781
115.848
115.852
115.853
115.854
115.854
115.85
115.842
115.828
115.81
115.787
115.852
115.858
115.861
115.862
115.861
115.857
115.848
115.836
115.819
115.796
115.852
115.86
115.865
115.865
115.863
115.858
115.851
115.841
115.826
115.806
115.854
115.858
115.862
115.861
115.857
115.852
115.848
115.842
115.831
115.814
115.846
115.846
115.85
115.846
115.842
115.839
115.838
115.836
115.83
115.813
119.101
119.127
119.142
119.161
119.186
119.212
119.237
119.258
119.278
119.286
119.124
119.153
119.173
119.196
119.224
119.252
119.276
119.293
119.303
119.298
119.159
119.185
119.205
119.229
119.259
119.289
119.311
119.324
119.325
119.315
119.196
119.221
119.241
119.267
119.297
119.325
119.342
119.346
119.338
119.321
119.231
119.257
119.28
119.307
119.336
119.358
119.366
119.361
119.346
119.322
119.262
119.291
119.317
119.343
119.367
119.382
119.385
119.374
119.352
119.325
119.287
119.319
119.348
119.372
119.39
119.4
119.398
119.383
119.358
119.331
119.305
119.339
119.369
119.39
119.405
119.411
119.407
119.391
119.364
119.341
119.322
119.351
119.38
119.399
119.411
119.416
119.412
119.396
119.37
119.353
119.319
119.343
119.374
119.393
119.406
119.414
119.412
119.395
119.362
119.337
123.299
123.297
123.297
123.306
123.325
123.349
123.373
123.396
123.42
123.433
123.302
123.306
123.31
123.323
123.345
123.372
123.398
123.42
123.437
123.442
123.312
123.315
123.32
123.335
123.361
123.392
123.42
123.442
123.457
123.461
123.324
123.328
123.336
123.354
123.382
123.413
123.439
123.456
123.467
123.47
123.34
123.347
123.358
123.379
123.406
123.433
123.452
123.464
123.47
123.471
123.358
123.369
123.384
123.406
123.429
123.449
123.462
123.469
123.47
123.469
123.376
123.391
123.41
123.431
123.449
123.463
123.471
123.473
123.47
123.471
123.392
123.41
123.432
123.452
123.467
123.477
123.481
123.477
123.471
123.474
123.41
123.425
123.449
123.468
123.482
123.491
123.491
123.483
123.473
123.485
123.408
123.421
123.452
123.474
123.491
123.5
123.496
123.48
123.456
123.463
127.691
127.697
127.714
127.739
127.771
127.806
127.84
127.866
127.885
127.881
127.714
127.731
127.754
127.781
127.813
127.846
127.877
127.901
127.915
127.911
127.739
127.762
127.787
127.817
127.85
127.884
127.915
127.938
127.952
127.948
127.767
127.795
127.822
127.852
127.886
127.919
127.949
127.972
127.985
127.982
127.799
127.828
127.857
127.888
127.92
127.95
127.976
127.998
128.011
128.01
127.831
127.86
127.891
127.922
127.951
127.975
127.997
128.017
128.031
128.031
127.863
127.89
127.922
127.953
127.979
127.999
128.015
128.032
128.047
128.049
127.891
127.917
127.951
127.982
128.007
128.024
128.036
128.047
128.059
128.062
127.918
127.942
127.978
128.01
128.035
128.05
128.058
128.063
128.068
128.074
127.921
127.949
127.994
128.031
128.057
128.07
128.07
128.066
128.06
128.066
132.73
132.705
132.697
132.695
132.705
132.724
132.752
132.785
132.817
132.822
132.76
132.749
132.748
132.748
132.754
132.766
132.786
132.811
132.835
132.84
132.78
132.784
132.788
132.792
132.798
132.81
132.829
132.851
132.871
132.877
132.801
132.813
132.822
132.828
132.836
132.848
132.866
132.887
132.905
132.911
132.823
132.838
132.85
132.858
132.867
132.879
132.896
132.916
132.932
132.937
132.846
132.861
132.876
132.886
132.895
132.905
132.921
132.939
132.954
132.956
132.869
132.883
132.899
132.913
132.923
132.932
132.944
132.96
132.972
132.971
132.89
132.903
132.921
132.938
132.951
132.962
132.971
132.982
132.989
132.984
132.906
132.919
132.94
132.96
132.976
132.987
132.996
133.003
133.004
132.995
132.906
132.923
132.949
132.972
132.988
132.999
133.004
133.007
133.005
133
138.133
138.118
138.107
138.092
138.078
138.072
138.079
138.094
138.112
138.09
138.154
138.156
138.153
138.137
138.116
138.097
138.088
138.089
138.095
138.075
138.169
138.187
138.19
138.177
138.155
138.133
138.117
138.11
138.109
138.099
138.182
138.207
138.216
138.207
138.188
138.168
138.152
138.141
138.135
138.127
138.191
138.219
138.231
138.226
138.212
138.196
138.183
138.171
138.162
138.152
138.2
138.225
138.238
138.238
138.229
138.217
138.207
138.194
138.182
138.171
138.21
138.229
138.243
138.248
138.244
138.235
138.224
138.211
138.197
138.184
138.22
138.234
138.247
138.255
138.256
138.249
138.237
138.224
138.209
138.195
138.227
138.235
138.248
138.258
138.261
138.257
138.247
138.235
138.218
138.206
138.216
138.226
138.243
138.257
138.262
138.258
138.248
138.234
138.214
138.2
143.802
143.777
143.751
143.72
143.69
143.666
143.653
143.647
143.645
143.616
143.796
143.781
143.755
143.717
143.676
143.637
143.61
143.597
143.592
143.569
143.786
143.775
143.751
143.714
143.668
143.623
143.587
143.567
143.562
143.553
143.768
143.76
143.741
143.707
143.663
143.62
143.584
143.559
143.552
143.55
143.746
143.74
143.725
143.697
143.661
143.624
143.591
143.565
143.554
143.556
143.727
143.72
143.709
143.689
143.662
143.633
143.603
143.577
143.563
143.565
143.714
143.703
143.695
143.682
143.664
143.641
143.615
143.59
143.575
143.579
143.709
143.693
143.685
143.676
143.664
143.646
143.624
143.603
143.589
143.593
143.707
143.686
143.678
143.671
143.662
143.648
143.632
143.615
143.602
143.612
143.685
143.669
143.667
143.664
143.658
143.648
143.634
143.618
143.6
143.605
149.221
149.239
149.25
149.257
149.258
149.255
149.249
149.24
149.229
149.209
149.219
149.246
149.259
149.262
149.257
149.247
149.237
149.229
149.219
149.2
149.228
149.25
149.26
149.257
149.245
149.229
149.216
149.21
149.207
149.198
149.23
149.247
149.253
149.246
149.23
149.212
149.198
149.194
149.197
149.197
149.23
149.241
149.243
149.234
149.219
149.203
149.191
149.187
149.193
149.202
149.229
149.235
149.236
149.23
149.219
149.207
149.196
149.191
149.199
149.213
149.232
149.235
149.236
149.233
149.227
149.217
149.207
149.202
149.21
149.229
149.238
149.239
149.24
149.24
149.236
149.23
149.221
149.218
149.225
149.246
149.244
149.245
149.247
149.248
149.246
149.242
149.237
149.234
149.239
149.263
149.229
149.236
149.247
149.252
149.253
149.251
149.246
149.241
149.235
149.253
154.61
154.641
154.664
154.682
154.693
154.699
154.699
154.698
154.697
154.702
154.588
154.631
154.667
154.698
154.719
154.73
154.733
154.73
154.724
154.719
154.58
154.625
154.666
154.703
154.729
154.743
154.749
154.748
154.744
154.736
154.575
154.617
154.659
154.697
154.724
154.741
154.749
154.754
154.754
154.749
154.574
154.61
154.647
154.682
154.708
154.727
154.74
154.75
154.757
154.758
154.577
154.604
154.634
154.665
154.69
154.71
154.726
154.742
154.755
154.764
154.583
154.604
154.628
154.654
154.677
154.697
154.715
154.734
154.752
154.769
154.592
154.609
154.629
154.65
154.67
154.689
154.707
154.728
154.749
154.773
154.6
154.616
154.634
154.651
154.669
154.686
154.704
154.725
154.745
154.777
154.599
154.619
154.637
154.653
154.669
154.685
154.701
154.716
154.728
154.759
160.891
160.915
160.945
160.96
160.963
160.954
160.938
160.92
160.903
160.894
160.86
160.892
160.929
160.954
160.967
160.969
160.96
160.943
160.923
160.904
160.83
160.87
160.912
160.945
160.968
160.978
160.975
160.962
160.941
160.919
160.812
160.851
160.894
160.931
160.961
160.979
160.983
160.975
160.959
160.938
160.803
160.837
160.876
160.914
160.947
160.97
160.981
160.981
160.971
160.955
160.806
160.832
160.862
160.896
160.929
160.954
160.969
160.977
160.975
160.965
160.815
160.833
160.855
160.882
160.909
160.934
160.953
160.966
160.971
160.969
160.828
160.841
160.856
160.875
160.897
160.918
160.937
160.953
160.961
160.966
160.837
160.85
160.862
160.877
160.894
160.912
160.929
160.942
160.95
160.962
160.858
160.873
160.879
160.89
160.902
160.914
160.923
160.93
160.931
160.946
166.803
166.77
166.821
166.889
166.957
167.017
167.06
167.083
167.095
167.095
166.777
166.749
166.788
166.851
166.919
166.984
167.036
167.069
167.084
167.082
166.739
166.733
166.778
166.843
166.914
166.982
167.037
167.073
167.09
167.091
166.74
166.749
166.8
166.867
166.938
167.004
167.057
167.093
167.11
167.113
166.768
166.79
166.842
166.91
166.98
167.041
167.089
167.122
167.139
167.143
166.822
166.849
166.897
166.96
167.027
167.083
167.126
167.154
167.167
167.172
166.888
166.918
166.961
167.014
167.072
167.122
167.159
167.182
167.191
167.197
166.959
166.991
167.028
167.072
167.116
167.156
167.186
167.204
167.209
167.215
167.022
167.059
167.091
167.125
167.157
167.186
167.209
167.222
167.223
167.235
167.106
167.138
167.156
167.177
167.195
167.211
167.224
167.229
167.223
167.239
173.477
173.34
173.315
173.341
173.398
173.475
173.554
173.616
173.654
173.643
173.492
173.336
173.267
173.262
173.299
173.365
173.444
173.518
173.571
173.581
173.488
173.338
173.258
173.237
173.258
173.311
173.383
173.457
173.519
173.549
173.547
173.408
173.323
173.287
173.287
173.318
173.371
173.434
173.493
173.531
173.647
173.527
173.44
173.391
173.371
173.376
173.403
173.446
173.492
173.532
173.774
173.674
173.585
173.523
173.486
173.466
173.467
173.486
173.513
173.547
173.91
173.829
173.742
173.669
173.614
173.573
173.551
173.546
173.552
173.575
174.037
173.972
173.89
173.812
173.744
173.688
173.647
173.621
173.606
173.612
174.138
174.086
174.011
173.934
173.861
173.796
173.744
173.703
173.671
173.66
174.229
174.168
174.094
174.021
173.948
173.88
173.822
173.773
173.729
173.703
181.416
181.361
181.298
181.244
181.221
181.233
181.263
181.287
181.294
181.303
181.45
181.378
181.287
181.199
181.141
181.124
181.141
181.175
181.207
181.24
181.481
181.392
181.276
181.161
181.076
181.035
181.038
181.072
181.116
181.163
181.52
181.414
181.283
181.149
181.042
180.98
180.967
180.995
181.043
181.097
181.555
181.443
181.31
181.171
181.047
180.966
180.936
180.952
180.998
181.057
181.589
181.483
181.355
181.218
181.088
180.991
180.943
180.945
180.983
181.042
181.624
181.529
181.411
181.28
181.153
181.05
180.989
180.974
180.999
181.048
181.658
181.577
181.472
181.351
181.233
181.133
181.065
181.036
181.044
181.072
181.695
181.62
181.531
181.426
181.321
181.228
181.16
181.122
181.115
181.108
181.737
181.651
181.582
181.497
181.408
181.324
181.261
181.221
181.216
181.192
188.235
188.349
188.423
188.489
188.552
188.613
188.662
188.688
188.697
188.768
188.107
188.226
188.322
188.407
188.482
188.549
188.604
188.646
188.682
188.763
188.037
188.136
188.242
188.339
188.421
188.491
188.548
188.597
188.643
188.718
187.995
188.07
188.175
188.28
188.368
188.439
188.497
188.551
188.606
188.68
187.972
188.015
188.115
188.23
188.328
188.402
188.46
188.517
188.579
188.653
187.971
187.978
188.063
188.184
188.296
188.382
188.444
188.503
188.569
188.644
188
187.97
188.032
188.147
188.267
188.366
188.441
188.505
188.577
188.649
188.058
188
188.037
188.136
188.249
188.353
188.436
188.507
188.583
188.649
188.156
188.071
188.09
188.169
188.266
188.362
188.443
188.512
188.588
188.632
188.233
188.14
188.168
188.241
188.329
188.417
188.494
188.555
188.636
188.677
194.422
194.485
194.518
194.563
194.615
194.672
194.728
194.777
194.822
194.938
194.261
194.299
194.324
194.373
194.442
194.524
194.612
194.694
194.771
194.894
194.13
194.119
194.134
194.192
194.28
194.387
194.498
194.599
194.688
194.799
194.01
193.945
193.942
194.007
194.117
194.249
194.383
194.502
194.605
194.718
193.902
193.777
193.749
193.818
193.949
194.106
194.264
194.404
194.526
194.644
193.814
193.633
193.574
193.638
193.783
193.962
194.145
194.311
194.456
194.586
193.754
193.533
193.441
193.49
193.635
193.827
194.031
194.221
194.391
194.533
193.719
193.487
193.372
193.398
193.527
193.715
193.924
194.125
194.31
194.459
193.717
193.493
193.372
193.378
193.48
193.645
193.837
194.033
194.225
194.366
193.707
193.513
193.417
193.419
193.505
193.649
193.827
194.018
194.23
194.379
200.444
200.489
200.499
200.499
200.495
200.5
200.521
200.556
200.6
200.693
200.346
200.357
200.33
200.296
200.276
200.285
200.327
200.396
200.476
200.582
200.221
200.176
200.11
200.058
200.04
200.066
200.136
200.231
200.328
200.431
200.051
199.957
199.866
199.814
199.815
199.869
199.967
200.078
200.183
200.289
199.85
199.731
199.634
199.594
199.618
199.698
199.814
199.931
200.04
200.152
199.644
199.529
199.441
199.418
199.46
199.554
199.676
199.795
199.911
200.029
199.466
199.38
199.312
199.3
199.35
199.445
199.562
199.679
199.799
199.918
199.346
199.303
199.26
199.254
199.299
199.381
199.484
199.587
199.701
199.81
199.302
199.299
199.282
199.281
199.313
199.371
199.449
199.535
199.644
199.731
199.363
199.381
199.37
199.362
199.384
199.429
199.498
199.589
199.726
199.815
206.222
206.338
206.444
206.479
206.486
206.49
206.506
206.535
206.571
206.65
205.957
206.057
206.156
206.198
206.229
206.267
206.321
206.392
206.471
206.563
205.619
205.719
205.826
205.895
205.962
206.035
206.125
206.229
206.332
206.43
205.284
205.408
205.546
205.656
205.76
205.866
205.981
206.099
206.206
206.301
205.045
205.206
205.376
205.522
205.655
205.78
205.899
206.008
206.105
206.188
204.968
205.156
205.344
205.508
205.65
205.768
205.866
205.954
206.036
206.103
205.061
205.261
205.447
205.605
205.73
205.817
205.881
205.943
206.007
206.054
205.283
205.482
205.652
205.788
205.878
205.924
205.95
205.981
206.022
206.045
205.569
205.757
205.91
206.018
206.073
206.083
206.077
206.078
206.093
206.081
205.912
206.059
206.173
206.245
206.277
206.271
206.253
206.241
206.233
206.18
211.196
211.256
211.561
211.874
212.12
212.289
212.398
212.472
212.528
212.564
211.006
211.096
211.393
211.698
211.959
212.161
212.306
212.413
212.483
212.512
210.891
211.01
211.289
211.573
211.832
212.046
212.211
212.335
212.42
212.471
210.963
211.084
211.321
211.565
211.795
211.991
212.145
212.258
212.337
212.397
211.213
211.324
211.504
211.689
211.863
212.009
212.123
212.203
212.26
212.317
211.576
211.667
211.785
211.9
212.001
212.08
212.138
212.176
212.205
212.249
211.954
212.023
212.085
212.132
212.16
212.173
212.178
212.177
212.179
212.208
212.273
212.319
212.34
212.335
212.31
212.275
212.239
212.206
212.184
212.198
212.498
212.53
212.528
212.495
212.441
212.38
212.319
212.264
212.222
212.231
212.67
212.673
212.649
212.604
212.543
212.473
212.399
212.321
212.241
212.234
217.327
216.863
216.692
216.637
216.645
216.694
216.775
216.878
217.031
217.116
217.522
217.106
216.923
216.845
216.828
216.837
216.855
216.879
216.94
216.965
217.722
217.394
217.229
217.143
217.105
217.084
217.055
217.023
217.024
217.04
217.975
217.709
217.549
217.444
217.375
217.318
217.25
217.178
217.138
217.149
218.208
217.994
217.838
217.714
217.609
217.51
217.404
217.3
217.234
217.252
218.39
218.214
218.065
217.928
217.795
217.661
217.526
217.403
217.327
217.366
218.499
218.351
218.211
218.071
217.923
217.771
217.626
217.502
217.432
217.499
218.541
218.412
218.285
218.15
218.003
217.854
217.718
217.607
217.553
217.639
218.53
218.428
218.318
218.197
218.065
217.934
217.822
217.734
217.703
217.811
218.536
218.451
218.356
218.257
218.139
218.019
217.914
217.827
217.778
217.891
223.64
223.385
223.128
222.859
222.614
222.424
222.314
222.284
222.339
222.332
223.752
223.473
223.179
222.867
222.559
222.284
222.074
221.964
221.98
222.009
223.805
223.526
223.228
222.904
222.573
222.257
221.988
221.815
221.787
221.851
223.814
223.545
223.255
222.937
222.606
222.28
221.986
221.776
221.721
221.805
223.763
223.519
223.246
222.946
222.629
222.31
222.012
221.79
221.721
221.823
223.674
223.456
223.204
222.925
222.629
222.329
222.048
221.839
221.777
221.892
223.567
223.373
223.14
222.884
222.613
222.343
222.098
221.923
221.878
221.997
223.457
223.282
223.068
222.839
222.601
222.371
222.173
222.039
222.007
222.109
223.347
223.203
223.014
222.816
222.615
222.429
222.279
222.178
222.151
222.238
223.317
223.2
223.031
222.86
222.679
222.514
222.382
222.288
222.237
222.304
228.296
228.317
228.21
228.052
227.895
227.734
227.528
227.252
226.965
226.876
228.266
228.298
228.169
227.958
227.75
227.553
227.344
227.122
226.906
226.809
228.216
228.211
228.064
227.825
227.582
227.357
227.147
226.964
226.81
226.722
228.149
228.076
227.91
227.666
227.41
227.173
226.97
226.819
226.726
226.688
228.028
227.904
227.728
227.497
227.251
227.025
226.845
226.728
226.685
226.689
227.852
227.712
227.536
227.328
227.112
226.918
226.775
226.697
226.693
226.729
227.673
227.536
227.362
227.179
226.999
226.847
226.747
226.71
226.737
226.791
227.517
227.394
227.227
227.066
226.922
226.812
226.753
226.75
226.797
226.858
227.389
227.295
227.141
227.004
226.888
226.811
226.784
226.805
226.859
226.922
227.404
227.312
227.146
227.018
226.912
226.846
226.827
226.856
226.91
226.983
232.502
232.197
231.542
230.797
230.213
229.917
229.825
229.846
230.012
230.547
232.488
232.189
231.522
230.842
230.401
230.198
230.136
230.165
230.308
230.706
232.557
232.337
231.786
231.218
230.853
230.66
230.559
230.538
230.608
230.849
232.515
232.377
232.002
231.576
231.273
231.083
230.956
230.9
230.926
231.075
232.359
232.263
232.03
231.753
231.536
231.379
231.261
231.198
231.207
231.3
232.135
232.072
231.936
231.777
231.648
231.549
231.474
231.434
231.448
231.512
231.931
231.895
231.816
231.731
231.667
231.626
231.605
231.607
231.637
231.685
231.795
231.776
231.727
231.684
231.661
231.661
231.682
231.721
231.769
231.802
231.732
231.729
231.691
231.67
231.669
231.689
231.733
231.791
231.847
231.862
231.815
231.801
231.743
231.715
231.709
231.731
231.781
231.846
231.924
231.955
236.347
235.755
234.843
234.121
233.809
233.814
234.003
234.282
234.631
235.26
236.09
235.404
234.476
233.853
233.669
233.762
234.01
234.326
234.684
235.211
236.146
235.508
234.632
234.028
233.844
233.935
234.171
234.461
234.772
235.168
236.157
235.719
235.022
234.458
234.236
234.278
234.457
234.696
234.952
235.251
236.065
235.841
235.39
234.956
234.74
234.728
234.829
234.991
235.177
235.389
235.927
235.866
235.641
235.378
235.22
235.185
235.225
235.311
235.427
235.561
235.819
235.842
235.764
235.642
235.555
235.528
235.543
235.589
235.661
235.731
235.791
235.827
235.813
235.765
235.727
235.719
235.738
235.775
235.83
235.858
235.84
235.856
235.86
235.832
235.807
235.806
235.831
235.882
235.963
235.968
235.964
235.938
235.935
235.903
235.867
235.859
235.901
236.003
236.174
236.202
240.171
239.895
239.306
238.683
238.282
238.181
238.324
238.618
238.991
239.647
239.97
239.581
238.959
238.368
238.052
238.033
238.244
238.593
238.993
239.564
239.914
239.523
238.957
238.419
238.141
238.142
238.346
238.673
239.032
239.48
239.846
239.555
239.137
238.72
238.488
238.477
238.624
238.861
239.116
239.415
239.845
239.656
239.383
239.11
238.945
238.913
238.974
239.082
239.19
239.312
239.909
239.788
239.625
239.469
239.365
239.321
239.307
239.298
239.25
239.171
240.004
239.91
239.817
239.739
239.681
239.638
239.583
239.5
239.31
239.031
240.091
240.007
239.957
239.922
239.896
239.871
239.817
239.711
239.408
238.972
240.165
240.089
240.072
240.065
240.066
240.083
240.096
240.063