/*--------------------------------*- C++ -*----------------------------------*\
| =========                 |                                                 |
| \\      /  F ield         | OpenFOAM: The Open Source CFD Toolbox           |
|  \\    /   O peration     | Version:  2406                                  |
|   \\  /    A nd           | Website:  www.openfoam.com                      |
|    \\/     M anipulation  |                                                 |
\*---------------------------------------------------------------------------*/
FoamFile
{
    version     2.0;
    format      ascii;
    arch        "LSB;label=32;scalar=64";
    class       surfaceScalarField;
    location    "0.4";
    object      phi;
}
// * * * * * * * * * * * * * * * * * * * * * * * * * * * * * * * * * * * * * //

dimensions      [0 3 -1 0 0 0 0];

oriented        oriented;

internalField   nonuniform List<scalar> 
73500
(
3.98025e-05
3.9762e-05
5.44926e-05
-4.59062e-05
-4.59882e-05
3.21107e-05
3.94126e-05
6.10163e-05
-4.66416e-05
2.25704e-05
3.94008e-05
6.60134e-05
-4.71182e-05
1.16681e-05
3.92996e-05
6.94157e-05
-4.71549e-05
1.53756e-07
3.91594e-05
7.11432e-05
-4.71159e-05
-1.12973e-05
3.90255e-05
7.12019e-05
-4.69877e-05
-2.21192e-05
3.88912e-05
6.95996e-05
-4.67403e-05
-3.16725e-05
3.87272e-05
6.63391e-05
-4.64011e-05
-3.93808e-05
3.84489e-05
6.14906e-05
-4.58302e-05
3.84249e-05
5.51235e-05
-4.44131e-05
-4.49973e-05
3.97089e-05
3.18287e-05
6.10718e-05
-4.65652e-05
3.13563e-05
3.07216e-05
6.72038e-05
2.15099e-05
3.02415e-05
7.16653e-05
1.06631e-05
2.99569e-05
7.46085e-05
-5.56455e-07
2.97493e-05
7.60683e-05
-1.16677e-05
2.96185e-05
7.60924e-05
-2.22761e-05
2.95766e-05
7.46845e-05
-3.18977e-05
2.95926e-05
7.18075e-05
-4.00136e-05
2.97206e-05
6.74372e-05
3.04449e-05
6.14449e-05
-4.55161e-05
3.9687e-05
2.20171e-05
6.60812e-05
-4.68086e-05
3.10086e-05
2.05563e-05
7.16685e-05
2.09605e-05
1.98024e-05
7.566e-05
1.00907e-05
1.93561e-05
7.82389e-05
-9.97726e-07
1.91053e-05
7.94887e-05
-1.19348e-05
1.90117e-05
7.94911e-05
-2.24947e-05
1.90535e-05
7.82514e-05
-3.22685e-05
1.92334e-05
7.56952e-05
-4.06905e-05
1.96593e-05
7.1744e-05
2.076e-05
6.62396e-05
-4.64213e-05
3.94451e-05
1.08739e-05
6.94559e-05
-4.66037e-05
3.07421e-05
9.47206e-06
7.4587e-05
2.06137e-05
8.63571e-06
7.82134e-05
9.76656e-06
8.18268e-06
8.05102e-05
-1.23422e-06
7.95126e-06
8.15939e-05
-1.20908e-05
7.89817e-06
8.15846e-05
-2.26448e-05
7.99353e-06
8.04888e-05
-3.25251e-05
8.22755e-06
7.81921e-05
-4.10608e-05
8.72048e-06
7.45737e-05
9.76772e-06
6.94776e-05
-4.67532e-05
3.91627e-05
-8.66004e-07
7.11396e-05
-4.63356e-05
3.04847e-05
-2.04245e-06
7.60127e-05
2.04114e-05
-2.74489e-06
7.94293e-05
9.60418e-06
-3.13181e-06
8.15599e-05
-1.33709e-06
-3.28573e-06
8.25509e-05
-1.21553e-05
-3.28657e-06
8.25395e-05
-2.27326e-05
-3.18067e-06
8.15295e-05
-3.26773e-05
-2.96223e-06
7.93862e-05
-4.12668e-05
-2.55358e-06
7.59601e-05
-1.79276e-06
7.10951e-05
-4.6977e-05
3.89078e-05
-1.25143e-05
7.11529e-05
-4.60223e-05
3.03362e-05
-1.34333e-05
7.60046e-05
2.0332e-05
-1.4013e-05
7.9402e-05
9.5974e-06
-1.42714e-05
8.15228e-05
-1.32053e-06
-1.43444e-05
8.25119e-05
-1.21522e-05
-1.42719e-05
8.25035e-05
-2.27564e-05
-1.41275e-05
8.1499e-05
-3.27432e-05
-1.39551e-05
7.93631e-05
-4.13711e-05
-1.36827e-05
7.59473e-05
-1.32313e-05
7.10938e-05
-4.70848e-05
3.87429e-05
-2.3464e-05
6.95042e-05
-4.5725e-05
3.02989e-05
-2.4256e-05
7.45713e-05
2.04347e-05
-2.47538e-05
7.8143e-05
9.74284e-06
-2.49577e-05
8.04085e-05
-1.16779e-06
-2.49188e-05
8.1483e-05
-1.20486e-05
-2.47585e-05
8.14794e-05
-2.27251e-05
-2.45936e-05
8.03981e-05
-3.27301e-05
-2.43718e-05
7.81234e-05
-4.1339e-05
-2.41231e-05
7.45359e-05
-2.39501e-05
6.94699e-05
-4.70276e-05
3.86739e-05
-3.29802e-05
6.61951e-05
-4.54298e-05
3.04375e-05
-3.39524e-05
7.16754e-05
2.07172e-05
-3.45395e-05
7.55788e-05
1.01093e-05
-3.46932e-05
7.81036e-05
-8.54622e-07
-3.45981e-05
7.933e-05
-1.18746e-05
-3.43884e-05
7.93326e-05
-2.25677e-05
-3.40756e-05
7.81113e-05
-3.25524e-05
-3.37502e-05
7.55882e-05
-4.11549e-05
-3.34131e-05
7.16818e-05
-3.32219e-05
6.62151e-05
-4.68137e-05
3.86595e-05
-4.07389e-05
6.12985e-05
-4.48728e-05
3.08336e-05
-4.2035e-05
6.72888e-05
2.13457e-05
-4.27097e-05
7.16324e-05
1.0733e-05
-4.28403e-05
7.44969e-05
-4.02142e-07
-4.27126e-05
7.59138e-05
-1.15437e-05
-4.24093e-05
7.59239e-05
-2.23195e-05
-4.20333e-05
7.45264e-05
-3.22068e-05
-4.15715e-05
7.16809e-05
-4.0581e-05
-4.09097e-05
6.73541e-05
-4.03923e-05
6.13926e-05
-4.61792e-05
3.92652e-05
5.48775e-05
-4.60468e-05
-4.45328e-05
3.19791e-05
6.1266e-05
-4.73862e-05
2.25681e-05
6.61263e-05
-4.79836e-05
1.17186e-05
6.94176e-05
-4.80432e-05
2.32801e-07
7.10692e-05
-4.79319e-05
-1.12839e-05
7.10868e-05
-4.7642e-05
-2.22206e-05
6.94727e-05
-4.72183e-05
-3.18855e-05
6.62233e-05
-4.66893e-05
-3.98072e-05
6.13996e-05
-4.57506e-05
5.50444e-05
-4.50922e-05
-4.47845e-05
9.84873e-06
7.2141e-06
5.11295e-05
-1.0334e-05
-7.74008e-06
9.79875e-06
8.00966e-06
5.79024e-05
-9.21061e-06
8.83856e-06
9.27108e-06
6.37593e-05
-1.05634e-05
6.92037e-06
1.0383e-05
6.81471e-05
-1.15982e-05
4.34378e-06
1.10403e-05
7.06255e-05
-1.22294e-05
1.52894e-06
1.11727e-05
7.10514e-05
-1.24207e-05
-1.1439e-06
1.07954e-05
6.94203e-05
-1.2151e-05
-3.35599e-06
9.96668e-06
6.58398e-05
-1.14384e-05
-4.79164e-06
8.91509e-06
6.065e-05
-1.07041e-05
7.95631e-06
5.43693e-05
-5.73639e-06
-9.41195e-06
1.10991e-05
6.82364e-06
5.82214e-05
-1.19463e-05
1.03691e-05
7.0907e-06
6.50626e-05
8.61963e-06
7.97165e-06
7.08448e-05
5.84045e-06
8.82972e-06
7.50711e-05
2.46932e-06
9.31732e-06
7.73663e-05
-9.67198e-07
9.34381e-06
7.76393e-05
-4.01756e-06
8.90728e-06
7.58953e-05
-6.26597e-06
8.08773e-06
7.22284e-05
-7.5539e-06
7.14507e-06
6.69721e-05
6.62789e-06
6.06384e-05
-8.11758e-06
1.20896e-05
5.14961e-06
6.42045e-05
-1.25929e-05
1.11613e-05
4.99834e-06
7.09525e-05
8.86144e-06
5.35842e-06
7.6644e-05
5.35958e-06
5.78169e-06
8.07292e-05
1.26983e-06
6.0049e-06
8.28735e-05
-2.78659e-06
5.94462e-06
8.30302e-05
-6.28296e-06
5.59833e-06
8.12149e-05
-8.73975e-06
5.00887e-06
7.74882e-05
-9.97849e-06
4.40854e-06
7.21632e-05
4.32836e-06
6.58123e-05
-1.0016e-05
1.26915e-05
2.47284e-06
6.84573e-05
-1.30147e-05
1.17387e-05
1.82982e-06
7.50757e-05
9.11239e-06
1.58472e-06
8.06495e-05
5.13072e-06
1.52911e-06
8.45819e-05
5.38058e-07
1.47663e-06
8.65753e-05
-3.9664e-06
1.38047e-06
8.66485e-05
-7.83873e-06
1.21113e-06
8.4839e-05
-1.05174e-05
9.79124e-07
8.11285e-05
-1.16974e-05
8.73615e-07
7.57922e-05
1.24204e-06
6.94505e-05
-1.13387e-05
1.28785e-05
-6.85701e-07
7.06016e-05
-1.31209e-05
1.19416e-05
-1.91957e-06
7.71216e-05
9.20017e-06
-2.76779e-06
8.25973e-05
4.99094e-06
-3.28183e-06
8.64068e-05
1.53476e-07
-3.548e-06
8.82794e-05
-4.59778e-06
-3.64426e-06
8.83014e-05
-8.70244e-06
-3.60845e-06
8.65409e-05
-1.15136e-05
-3.42808e-06
8.28772e-05
-1.26746e-05
-2.99683e-06
7.75571e-05
-2.15384e-06
7.12349e-05
-1.21366e-05
1.26676e-05
-3.76942e-06
7.05586e-05
-1.29063e-05
1.17969e-05
-5.60172e-06
7.70532e-05
9.10098e-06
-7.02168e-06
8.24969e-05
4.92441e-06
-7.9113e-06
8.62795e-05
6.53267e-08
-8.36374e-06
8.81426e-05
-4.73437e-06
-8.41547e-06
8.81626e-05
-8.88773e-06
-8.14121e-06
8.63862e-05
-1.17437e-05
-7.57184e-06
8.2717e-05
-1.29351e-05
-6.64684e-06
7.73987e-05
-5.34844e-06
7.10775e-05
-1.23849e-05
1.21215e-05
-6.3008e-06
6.83591e-05
-1.23926e-05
1.13585e-05
-8.62169e-06
7.49038e-05
8.87711e-06
-1.04633e-05
8.03902e-05
4.92246e-06
-1.16566e-05
8.42396e-05
2.82197e-07
-1.22031e-05
8.61745e-05
-4.36729e-06
-1.21916e-05
8.62168e-05
-8.42502e-06
-1.17317e-05
8.43837e-05
-1.12431e-05
-1.08084e-05
8.06618e-05
-1.2478e-05
-9.48341e-06
7.5321e-05
-7.932e-06
6.89728e-05
-1.20326e-05
1.13467e-05
-7.85487e-06
6.41578e-05
-1.1566e-05
1.07667e-05
-1.04975e-05
7.07898e-05
8.59285e-06
-1.25585e-05
7.63525e-05
5.06634e-06
-1.38429e-05
8.03044e-05
8.23048e-07
-1.44185e-05
8.23316e-05
-3.52616e-06
-1.43728e-05
8.24037e-05
-7.30228e-06
-1.37289e-05
8.05317e-05
-1.0016e-05
-1.26107e-05
7.67638e-05
-1.1369e-05
-1.11316e-05
7.14066e-05
-9.49367e-06
6.50208e-05
-1.11148e-05
1.05836e-05
-8.44699e-06
5.84025e-05
-1.06823e-05
1.02922e-05
-1.113e-05
6.51106e-05
8.52111e-06
-1.30408e-05
7.07385e-05
5.4657e-06
-1.42142e-05
7.47862e-05
1.69848e-06
-1.47253e-05
7.69e-05
-2.1622e-06
-1.46088e-05
7.7011e-05
-5.61687e-06
-1.39637e-05
7.51338e-05
-8.19974e-06
-1.28328e-05
7.13528e-05
-9.60586e-06
-1.13153e-05
6.60002e-05
-9.68711e-06
5.95818e-05
-9.83434e-06
1.03715e-05
5.17082e-05
-8.64238e-06
-9.74789e-06
1.05162e-05
5.84296e-05
-1.07506e-05
9.02172e-06
6.41612e-05
-1.20029e-05
6.322e-06
6.83332e-05
-1.28575e-05
2.9863e-06
7.05479e-05
-1.32577e-05
-4.995e-07
7.07055e-05
-1.31532e-05
-3.64733e-06
6.88236e-05
-1.25927e-05
-6.02878e-06
6.50107e-05
-1.16106e-05
-7.37749e-06
5.96185e-05
-1.03991e-05
5.31843e-05
-7.89428e-06
-8.88432e-06
2.36262e-06
-9.11828e-06
4.74136e-05
-2.23023e-06
7.01283e-06
4.26517e-06
-8.14038e-06
5.27962e-05
5.52241e-06
6.34688e-06
-6.29388e-06
5.80031e-05
3.80325e-06
8.03686e-06
-4.57488e-06
6.24505e-05
2.50932e-06
9.2827e-06
-3.30288e-06
6.53814e-05
1.51741e-06
1.00797e-05
-2.55552e-06
6.6444e-05
9.29332e-07
1.03646e-05
-2.31219e-06
6.55705e-05
7.35084e-07
1.00593e-05
-2.47364e-06
6.29282e-05
8.64633e-07
9.18711e-06
-2.6937e-06
5.89337e-05
8.5778e-07
-2.37151e-06
5.41729e-05
7.34942e-06
1.11379e-06
2.43787e-06
-9.122e-06
5.32877e-05
-2.88446e-06
3.62836e-06
-8.2977e-06
5.88324e-05
4.9183e-06
-6.55961e-06
6.44596e-05
5.76832e-06
-4.84898e-06
6.92361e-05
6.25451e-06
-3.59058e-06
7.2234e-05
6.49062e-06
-2.8779e-06
7.30764e-05
6.53972e-06
-2.66983e-06
7.17054e-05
6.45418e-06
-2.86198e-06
6.83652e-05
6.08645e-06
-3.06803e-06
6.38161e-05
-2.47308e-06
5.9181e-05
4.82775e-06
2.95851e-06
-8.75869e-06
5.86083e-05
-3.04872e-06
3.97272e-06
-8.0348e-06
6.46078e-05
4.67944e-06
-6.59886e-06
7.07616e-05
4.73761e-06
-5.17781e-06
7.58831e-05
4.4039e-06
-4.11896e-06
7.89759e-05
3.93508e-06
-3.50072e-06
7.9642e-05
3.4942e-06
-3.26076e-06
7.78396e-05
3.25914e-06
-3.33406e-06
7.38814e-05
3.08331e-06
-3.37293e-06
6.86458e-05
-2.6209e-06
6.35193e-05
2.58317e-06
3.54874e-06
-8.21874e-06
6.25965e-05
-3.33219e-06
4.58846e-06
-7.78894e-06
6.90657e-05
4.92983e-06
-6.88019e-06
7.56603e-05
4.42606e-06
-5.88603e-06
8.10501e-05
3.45308e-06
-5.11302e-06
8.41855e-05
2.40165e-06
-4.58142e-06
8.46897e-05
1.47599e-06
-4.24457e-06
8.25959e-05
9.84862e-07
-4.08929e-06
7.8176e-05
9.29016e-07
-3.80679e-06
7.237e-05
-2.90197e-06
6.663e-05
1.06397e-06
3.9695e-06
-7.55918e-06
6.46044e-05
-3.52681e-06
5.08719e-06
-7.62288e-06
7.13655e-05
5.30378e-06
-7.32738e-06
7.82409e-05
4.47663e-06
-6.85027e-06
8.37769e-05
3.12459e-06
-6.34245e-06
8.68632e-05
1.6866e-06
-5.87542e-06
8.72191e-05
3.97808e-07
-5.42051e-06
8.50453e-05
-2.96333e-07
-4.93895e-06
8.0383e-05
-3.49588e-07
-4.23925e-06
7.42156e-05
-3.09439e-06
6.80858e-05
5.17805e-08
4.16387e-06
-6.63929e-06
6.43475e-05
-3.59162e-06
5.40987e-06
-7.29876e-06
7.12273e-05
5.65142e-06
-7.6884e-06
7.81911e-05
4.77435e-06
-7.72096e-06
8.37765e-05
3.25867e-06
-7.50442e-06
8.68761e-05
1.62294e-06
-7.05671e-06
8.72118e-05
1.73835e-07
-6.42494e-06
8.49636e-05
-6.42193e-07
-5.57867e-06
8.0202e-05
-7.77339e-07
-4.43039e-06
7.39497e-05
-3.00489e-06
6.77188e-05
-3.79376e-07
4.1358e-06
-5.36339e-06
6.18427e-05
-3.49418e-06
5.5188e-06
-6.56106e-06
6.86549e-05
5.96261e-06
-7.50429e-06
7.55137e-05
5.24067e-06
-8.00989e-06
8.10324e-05
3.84628e-06
-8.01906e-06
8.4167e-05
2.22809e-06
-7.59214e-06
8.45779e-05
7.83036e-07
-6.79541e-06
8.22916e-05
-7.86022e-08
-5.58007e-06
7.76235e-05
-3.54943e-07
-4.06338e-06
7.15717e-05
-2.53915e-06
6.55211e-05
-1.70595e-07
3.9636e-06
-3.66437e-06
5.74293e-05
-3.20786e-06
5.5273e-06
-5.23409e-06
6.40042e-05
6.25187e-06
-6.52379e-06
7.05735e-05
5.93239e-06
-7.25167e-06
7.5894e-05
4.89294e-06
-7.4096e-06
7.89643e-05
3.51252e-06
-7.02486e-06
7.94437e-05
2.26816e-06
-6.06724e-06
7.73374e-05
1.3772e-06
-4.67816e-06
7.30062e-05
8.22517e-07
-3.04761e-06
6.73743e-05
-1.6015e-06
6.17303e-05
5.81462e-07
3.83968e-06
-2.01589e-06
5.19243e-05
-2.85481e-06
5.66056e-06
-3.64789e-06
5.8239e-05
6.77699e-06
-4.89039e-06
6.44101e-05
6.92858e-06
-5.60393e-06
6.94335e-05
6.36216e-06
-5.78413e-06
7.23858e-05
5.45084e-06
-5.38737e-06
7.29531e-05
4.43199e-06
-4.48566e-06
7.116e-05
3.52226e-06
-3.12984e-06
6.73097e-05
2.70023e-06
-1.5397e-06
6.2229e-05
-2.83181e-07
5.6951e-05
1.77476e-06
4.31275e-06
4.61265e-05
-1.0025e-06
-2.55639e-06
6.50063e-06
5.23851e-05
-2.23357e-06
7.87592e-06
5.83168e-05
-3.02237e-06
8.35654e-06
6.3096e-05
-3.47061e-06
8.17972e-06
6.59604e-05
-3.58969e-06
7.54718e-06
6.66376e-05
-3.26264e-06
6.69336e-06
6.51568e-05
-2.52681e-06
5.77802e-06
6.17815e-05
-1.44662e-06
4.75095e-06
5.71097e-05
-2.38393e-07
5.17266e-05
3.42679e-06
9.30787e-07
-8.30562e-07
-2.59971e-05
4.79922e-05
1.44735e-06
2.16089e-05
2.07324e-06
-2.55524e-05
5.10108e-05
2.10653e-05
5.96059e-06
-2.38296e-05
5.44002e-05
1.97153e-05
9.93051e-06
-2.19604e-05
5.78517e-05
1.85792e-05
1.35535e-05
-2.01958e-05
6.05806e-05
1.72991e-05
1.64097e-05
-1.86368e-05
6.21797e-05
1.6032e-05
1.81648e-05
-1.72718e-05
6.24179e-05
1.4772e-05
1.85992e-05
-1.60715e-05
6.13491e-05
1.35073e-05
1.73639e-05
-1.48536e-05
5.93906e-05
1.21016e-05
-1.31332e-05
5.68728e-05
1.38126e-05
1.12532e-05
-1.83569e-06
-2.7048e-05
5.14159e-05
1.72314e-06
5.90569e-07
-2.58869e-05
5.35713e-05
4.11725e-06
-2.3668e-05
5.72416e-05
7.77335e-06
-2.13649e-05
6.1261e-05
1.11253e-05
-1.93227e-05
6.43024e-05
1.38991e-05
-1.76368e-05
6.5742e-05
1.58579e-05
-1.63548e-05
6.53591e-05
1.68056e-05
-1.54074e-05
6.34976e-05
1.61555e-05
-1.45011e-05
6.11941e-05
-1.27635e-05
5.9715e-05
1.29636e-05
-2.68961e-06
-2.64944e-05
5.46416e-05
2.99897e-06
-1.40872e-07
-2.42406e-05
5.71242e-05
3.15185e-06
-2.16419e-05
6.17082e-05
6.46054e-06
-1.91499e-05
6.64958e-05
9.44071e-06
-1.70454e-05
6.99351e-05
1.18666e-05
-1.54356e-05
7.13192e-05
1.36688e-05
-1.42693e-05
7.03489e-05
1.47336e-05
-1.34592e-05
6.74459e-05
1.45137e-05
-1.27739e-05
6.40291e-05
-1.1434e-05
6.22356e-05
1.21645e-05
-3.16796e-06
-2.44659e-05
5.6881e-05
3.63718e-06
-4.31414e-07
-2.14685e-05
6.02151e-05
2.83679e-06
-1.86714e-05
6.57329e-05
5.89896e-06
-1.62358e-05
7.12611e-05
8.49329e-06
-1.42722e-05
7.51226e-05
1.05798e-05
-1.27974e-05
7.64333e-05
1.21185e-05
-1.17394e-05
7.49449e-05
1.31131e-05
-1.09708e-05
7.11665e-05
1.32538e-05
-1.03399e-05
6.66573e-05
-9.51647e-06
6.40689e-05
1.15922e-05
-3.4454e-06
-2.12144e-05
5.73958e-05
4.06562e-06
-4.86152e-07
-1.792e-05
6.15455e-05
2.85447e-06
-1.52302e-05
6.77977e-05
5.80234e-06
-1.30647e-05
7.39275e-05
8.15107e-06
-1.13679e-05
7.80832e-05
9.96392e-06
-1.00842e-05
7.92734e-05
1.1311e-05
-9.03272e-06
7.74813e-05
1.225e-05
-8.21267e-06
7.3189e-05
1.25231e-05
-7.58435e-06
6.80083e-05
-7.11376e-06
6.47356e-05
1.11571e-05
-3.62387e-06
-1.70247e-05
5.59854e-05
4.37179e-06
-4.82026e-07
-1.3821e-05
6.06522e-05
2.99662e-06
-1.14548e-05
6.72957e-05
5.98601e-06
-9.68523e-06
7.37281e-05
8.2658e-06
-8.33603e-06
7.804e-05
9.97941e-06
-7.21128e-06
7.92352e-05
1.12369e-05
-6.16489e-06
7.73522e-05
1.213e-05
-5.26677e-06
7.28621e-05
1.23748e-05
-4.59079e-06
6.7534e-05
-4.35412e-06
6.4031e-05
1.10153e-05
-3.88757e-06
-1.23225e-05
5.27959e-05
4.76804e-06
-5.44968e-07
-9.36131e-06
5.75433e-05
3.15072e-06
-7.36827e-06
6.41373e-05
6.32767e-06
-6.00609e-06
7.04834e-05
8.80527e-06
-4.94533e-06
7.4785e-05
1.06039e-05
-3.98928e-06
7.61283e-05
1.18911e-05
-3.01163e-06
7.43459e-05
1.27582e-05
-2.05571e-06
7.01253e-05
1.28601e-05
-1.39027e-06
6.52127e-05
-1.51265e-06
6.20165e-05
1.12866e-05
-4.2815e-06
-7.49653e-06
4.8313e-05
5.28812e-06
-7.12676e-07
-4.87753e-06
5.27709e-05
3.27198e-06
-3.17492e-06
5.89225e-05
6.83861e-06
-2.04317e-06
6.48677e-05
9.69871e-06
-1.18983e-06
6.89528e-05
1.17762e-05
-4.0017e-07
7.04116e-05
1.32588e-05
4.79922e-07
6.90928e-05
1.41047e-05
1.31748e-06
6.56131e-05
1.38897e-05
1.76407e-06
6.15407e-05
1.21886e-06
5.89711e-05
1.18477e-05
-4.83178e-06
-3.36771e-06
4.3552e-05
6.10663e-06
-9.53506e-07
-1.103e-06
4.77532e-05
3.41754e-06
5.10981e-07
5.32898e-05
7.45279e-06
1.55605e-06
5.86782e-05
1.08084e-05
2.30958e-06
6.24862e-05
1.33723e-05
2.98668e-06
6.40987e-05
1.51085e-05
3.62792e-06
6.34143e-05
1.59247e-05
4.17272e-06
6.0895e-05
1.53826e-05
4.27178e-06
5.78128e-05
3.4098e-06
5.55646e-05
1.27825e-05
-5.11446e-06
3.93416e-05
-5.80702e-07
6.93352e-06
-1.03961e-06
4.39782e-05
1.22533e-06
3.58807e-06
4.92109e-05
2.76984e-06
8.07018e-06
5.41485e-05
3.74901e-06
1.19525e-05
5.77648e-05
4.40865e-06
1.49214e-05
5.95982e-05
4.91274e-06
1.68431e-05
5.9568e-05
5.26425e-06
1.75436e-05
5.79192e-05
5.43675e-06
1.67102e-05
5.53085e-05
5.15531e-06
5.21558e-05
1.39468e-05
4.52034e-06
4.21371e-06
-2.82397e-05
4.87539e-05
-3.57984e-06
2.12209e-05
6.54361e-06
-2.87901e-05
5.07031e-05
2.12645e-05
9.17509e-06
-2.74815e-05
5.31034e-05
2.04151e-05
1.14187e-05
-2.57644e-05
5.5933e-05
1.97164e-05
1.32632e-05
-2.40454e-05
5.84975e-05
1.87752e-05
1.44668e-05
-2.25708e-05
6.05101e-05
1.78537e-05
1.47533e-05
-2.15307e-05
6.1694e-05
1.71388e-05
1.40175e-05
-2.1059e-05
6.19307e-05
1.66836e-05
1.20624e-05
-2.13327e-05
6.15954e-05
1.6759e-05
-2.20951e-05
6.08486e-05
8.97137e-06
1.79409e-05
3.02407e-06
-3.17018e-05
5.02924e-05
-3.45747e-06
5.02858e-06
-3.16046e-05
5.00443e-05
7.72591e-06
-2.95617e-05
5.20659e-05
1.03658e-05
-2.70621e-05
5.52867e-05
1.27737e-05
-2.47638e-05
5.82345e-05
1.46302e-05
-2.29314e-05
6.02526e-05
1.56355e-05
-2.18599e-05
6.1024e-05
1.55522e-05
-2.17114e-05
6.07477e-05
1.37979e-05
-2.23056e-05
6.05726e-05
-2.31663e-05
6.15704e-05
1.03252e-05
1.64196e-06
-3.33846e-05
5.16797e-05
-1.7431e-06
3.88749e-06
-3.1932e-05
5.10031e-05
6.6504e-06
-2.91469e-05
5.39516e-05
9.46246e-06
-2.61874e-05
5.81105e-05
1.21383e-05
-2.35526e-05
6.16474e-05
1.4275e-05
-2.15242e-05
6.37686e-05
1.55715e-05
-2.03669e-05
6.39008e-05
1.58616e-05
-2.0295e-05
6.24042e-05
1.45569e-05
-2.12894e-05
6.11536e-05
-2.27325e-05
6.22739e-05
1.14523e-05
1.89071e-07
-3.32099e-05
5.2254e-05
-2.23122e-07
2.6885e-06
-3.04099e-05
5.21366e-05
5.64858e-06
-2.70066e-05
5.61294e-05
8.72009e-06
-2.37424e-05
6.12325e-05
1.16109e-05
-2.09729e-05
6.5447e-05
1.39555e-05
-1.89026e-05
6.76635e-05
1.54504e-05
-1.77654e-05
6.72818e-05
1.59051e-05
-1.77497e-05
6.48253e-05
1.50279e-05
-1.90449e-05
6.22451e-05
-2.12589e-05
6.27836e-05
1.22664e-05
-1.49643e-06
-3.1328e-05
5.11543e-05
1.52534e-06
1.22663e-06
-2.74655e-05
5.18973e-05
4.59385e-06
-2.35751e-05
5.67113e-05
8.05334e-06
-2.01939e-05
6.26282e-05
1.12748e-05
-1.74387e-05
6.74007e-05
1.38902e-05
-1.54575e-05
6.96329e-05
1.56031e-05
-1.44097e-05
6.89611e-05
1.62158e-05
-1.4501e-05
6.60283e-05
1.55671e-05
-1.60541e-05
6.26091e-05
-1.90007e-05
6.25523e-05
1.29998e-05
-3.34395e-06
-2.78784e-05
4.8368e-05
3.33997e-06
-3.79072e-07
-2.33574e-05
4.97339e-05
3.44632e-06
-1.92578e-05
5.5004e-05
7.43499e-06
-1.59123e-05
6.13655e-05
1.11271e-05
-1.33437e-05
6.6468e-05
1.41215e-05
-1.15611e-05
6.88859e-05
1.61083e-05
-1.0642e-05
6.82254e-05
1.69483e-05
-1.08506e-05
6.50882e-05
1.64372e-05
-1.25885e-05
6.1575e-05
-1.61521e-05
6.13776e-05
1.38472e-05
-5.3762e-06
-2.32806e-05
4.42593e-05
5.31062e-06
-2.14238e-06
-1.85031e-05
4.57601e-05
2.21295e-06
-1.44032e-05
5.09906e-05
6.80079e-06
-1.12413e-05
5.72757e-05
1.11417e-05
-8.89251e-06
6.23523e-05
1.46869e-05
-7.34316e-06
6.49557e-05
1.70828e-05
-6.62779e-06
6.4595e-05
1.82469e-05
-6.94755e-06
6.19178e-05
1.78019e-05
-8.88104e-06
5.90762e-05
-1.29962e-05
5.9293e-05
1.50628e-05
-7.57709e-06
-1.78779e-05
3.94816e-05
7.35253e-06
-4.04746e-06
-1.3324e-05
4.06637e-05
8.57454e-07
-9.47664e-06
4.54202e-05
6.20373e-06
-6.5372e-06
5.11985e-05
1.13214e-05
-4.43933e-06
5.59612e-05
1.55678e-05
-3.11402e-06
5.86651e-05
1.86101e-05
-2.55851e-06
5.89273e-05
2.01618e-05
-3.05611e-06
5.727e-05
1.964e-05
-5.19631e-06
5.5617e-05
-9.53585e-06
5.64859e-05
1.65049e-05
-9.95847e-06
-1.25266e-05
3.51574e-05
9.79709e-06
-6.10265e-06
-8.57046e-06
3.61964e-05
-5.83534e-07
-5.06097e-06
4.02216e-05
5.57779e-06
-2.47654e-06
4.53004e-05
1.16063e-05
-6.4229e-07
4.9646e-05
1.68014e-05
5.00069e-07
5.24712e-05
2.05986e-05
8.47663e-07
5.34894e-05
2.25655e-05
1.65491e-07
5.30759e-05
2.21122e-05
-2.07644e-06
5.26612e-05
-6.05994e-06
5.3641e-05
1.86674e-05
-1.17646e-05
3.21478e-05
-7.70649e-06
1.18184e-05
-7.90872e-06
3.43877e-05
-4.90358e-06
-2.07973e-06
3.80244e-05
-1.95213e-06
4.85283e-06
4.2382e-05
7.91545e-08
1.18696e-05
4.63738e-05
1.51374e-06
1.80325e-05
4.93971e-05
2.36843e-06
2.26118e-05
5.11886e-05
2.53829e-06
2.49621e-05
5.17719e-05
1.93921e-06
2.46779e-05
5.16538e-05
-9.71995e-09
5.10894e-05
2.10521e-05
-2.65282e-06
1.49688e-05
-6.81688e-06
4.40647e-05
-1.15449e-05
5.96791e-06
1.69838e-05
-9.57644e-06
4.80435e-05
7.90162e-06
1.70564e-05
-1.09965e-05
5.26082e-05
8.79112e-06
1.52468e-05
-1.19581e-05
5.72047e-05
9.68971e-06
1.21572e-05
-1.29259e-05
6.10349e-05
1.04875e-05
8.35605e-06
-1.42629e-05
6.39586e-05
1.15033e-05
4.23784e-06
-1.62983e-05
6.58829e-05
1.30436e-05
4.60317e-07
-1.93524e-05
6.67636e-05
1.51586e-05
-2.60509e-06
-2.38577e-05
6.69637e-05
1.85131e-05
-2.91414e-05
6.66542e-05
-4.11398e-06
2.26029e-05
1.68753e-05
-6.56252e-06
4.46745e-05
-1.35735e-05
1.89618e-05
-9.64771e-06
4.60962e-05
1.93423e-05
-1.12036e-05
4.97784e-05
1.81647e-05
-1.21171e-05
5.43008e-05
1.5933e-05
-1.30807e-05
5.81721e-05
1.30842e-05
-1.46026e-05
6.09929e-05
9.80794e-06
-1.70884e-05
6.25804e-05
6.38703e-06
-2.08204e-05
6.30865e-05
2.82927e-06
-2.60122e-05
6.37744e-05
-3.26227e-05
6.60108e-05
-1.01204e-07
1.67424e-05
-6.20651e-06
4.55135e-05
-1.30824e-05
1.90629e-05
-9.08285e-06
4.61543e-05
1.96905e-05
-1.05147e-05
5.03221e-05
1.8989e-05
-1.12792e-05
5.54483e-05
1.74751e-05
-1.21085e-05
5.96304e-05
1.54844e-05
-1.35766e-05
6.22191e-05
1.30962e-05
-1.61927e-05
6.29915e-05
1.02844e-05
-2.04236e-05
6.24402e-05
6.91822e-06
-2.64198e-05
6.24665e-05
-3.4455e-05
6.5201e-05
3.8137e-06
1.51895e-05
-5.4756e-06
4.59971e-05
-1.19959e-05
1.74733e-05
-7.90508e-06
4.65511e-05
1.83473e-05
-8.98152e-06
5.12771e-05
1.81909e-05
-9.51133e-06
5.69603e-05
1.75524e-05
-1.01166e-05
6.14508e-05
1.66812e-05
-1.14163e-05
6.38918e-05
1.53082e-05
-1.40757e-05
6.41217e-05
1.31575e-05
-1.86025e-05
6.27258e-05
1.01779e-05
-2.53253e-05
6.17402e-05
-3.46154e-05
6.42067e-05
6.8922e-06
1.24808e-05
-4.31144e-06
4.51388e-05
-1.00971e-05
1.46186e-05
-6.03142e-06
4.56277e-05
1.58272e-05
-6.61661e-06
5.05384e-05
1.64449e-05
-6.79499e-06
5.65285e-05
1.69287e-05
-7.15017e-06
6.12747e-05
1.72433e-05
-8.36696e-06
6.37263e-05
1.69268e-05
-1.10427e-05
6.37424e-05
1.56238e-05
-1.56995e-05
6.19371e-05
1.31933e-05
-2.299e-05
6.0291e-05
-3.33261e-05
6.25761e-05
9.86945e-06
8.95297e-06
-2.71435e-06
4.27977e-05
-7.5592e-06
1.09378e-05
-3.56729e-06
4.28918e-05
1.26343e-05
-3.5619e-06
4.75357e-05
1.42345e-05
-3.33866e-06
5.34481e-05
1.59673e-05
-3.49277e-06
5.82685e-05
1.75372e-05
-4.64794e-06
6.09095e-05
1.83574e-05
-7.3314e-06
6.10586e-05
1.80209e-05
-1.21374e-05
5.92821e-05
1.61814e-05
-1.97906e-05
5.77809e-05
-3.07956e-05
6.02781e-05
1.27773e-05
4.9562e-06
-8.46355e-07
3.92935e-05
-4.50218e-06
6.89203e-06
-7.79115e-07
3.86012e-05
9.19049e-06
-1.76931e-07
4.25495e-05
1.18375e-05
4.34937e-07
4.79351e-05
1.48618e-05
4.8731e-07
5.24974e-05
1.77748e-05
-6.01936e-07
5.52458e-05
1.98389e-05
-3.37475e-06
5.58521e-05
2.05585e-05
-8.30683e-06
5.4793e-05
1.9345e-05
-1.60752e-05
5.41863e-05
-2.72842e-05
5.72974e-05
1.58924e-05
9.68547e-07
1.12175e-06
3.52418e-05
-1.2406e-06
2.98563e-06
1.97684e-06
3.35575e-05
5.95437e-06
3.08295e-06
3.65326e-05
9.68577e-06
4.0295e-06
4.10866e-05
1.40007e-05
4.2332e-06
4.51586e-05
1.82447e-05
3.16568e-06
4.79423e-05
2.16504e-05
3.92309e-07
4.91852e-05
2.34247e-05
-4.51991e-06
4.92666e-05
2.27415e-05
-1.21093e-05
4.99698e-05
-2.26536e-05
5.37967e-05
1.89878e-05
-2.32379e-06
2.76197e-06
3.17678e-05
1.7566e-06
-1.38684e-07
4.13336e-06
2.97636e-05
3.5192e-06
5.64059e-06
3.16602e-05
8.31948e-06
6.75744e-06
3.52843e-05
1.39051e-05
7.01966e-06
3.87994e-05
1.9525e-05
6.02115e-06
4.16075e-05
2.41957e-05
3.34989e-06
4.35374e-05
2.68846e-05
-1.26313e-06
4.48575e-05
2.68222e-05
-8.27178e-06
4.67788e-05
-1.72849e-05
5.06179e-05
2.29037e-05
-4.1184e-06
3.00758e-05
3.21455e-06
4.01355e-06
-1.77902e-06
2.99779e-05
4.63049e-06
2.35156e-06
3.15154e-05
6.25226e-06
8.11042e-06
3.41504e-05
7.37675e-06
1.49841e-05
3.70417e-05
7.60696e-06
2.1916e-05
3.98469e-05
6.77917e-06
2.77141e-05
4.23601e-05
4.56746e-06
3.10151e-05
4.44822e-05
1.02038e-06
3.10636e-05
4.64725e-05
-4.67207e-06
4.83521e-05
2.6417e-05
-1.09394e-05
1.22932e-05
1.94278e-05
3.12792e-05
-9.24485e-06
-1.46115e-05
1.38922e-05
1.60165e-05
3.79731e-05
-1.24782e-05
1.21258e-05
1.22864e-05
4.65591e-05
-9.69504e-06
7.38496e-06
8.14911e-06
5.50816e-05
-6.5328e-06
7.74949e-07
3.35169e-06
6.20641e-05
-2.83892e-06
-6.29522e-06
-2.27176e-06
6.7067e-05
1.42624e-06
-1.23979e-05
-8.8304e-06
6.99456e-05
6.38981e-06
-1.60355e-05
-1.62096e-05
7.07733e-05
1.1668e-05
-1.65316e-05
-2.42877e-05
7.02437e-05
1.76686e-05
-3.11856e-05
6.90753e-05
-1.31738e-05
2.25962e-05
1.59235e-05
2.49902e-05
3.07912e-05
-1.2e-05
1.8449e-05
2.01231e-05
3.53879e-05
1.78108e-05
1.5302e-05
4.31555e-05
1.42908e-05
1.03576e-05
5.14776e-05
8.86057e-06
4.81294e-06
5.83008e-05
2.6836e-06
-1.70926e-06
6.30134e-05
-3.08338e-06
-9.36255e-06
6.54745e-05
-7.43849e-06
-1.81391e-05
6.60743e-05
-9.76406e-06
-2.7695e-05
6.63792e-05
-3.65989e-05
6.84023e-05
-9.11201e-06
1.85791e-05
2.98804e-05
3.17299e-05
-1.39327e-05
2.14904e-05
2.36302e-05
3.57821e-05
2.14995e-05
1.79291e-05
4.36311e-05
1.88146e-05
1.24263e-05
5.2082e-05
1.44003e-05
6.5121e-06
5.87428e-05
9.28464e-06
-4.33524e-07
6.28143e-05
4.18178e-06
-8.77609e-06
6.44051e-05
-1.99527e-07
-1.85284e-05
6.41754e-05
-3.21206e-06
-2.93238e-05
6.41212e-05
-4.02522e-05
6.7137e-05
-3.87338e-06
1.96461e-05
3.38392e-05
3.31437e-05
-1.47086e-05
2.26653e-05
2.66532e-05
3.69009e-05
2.2964e-05
2.0325e-05
4.46826e-05
2.10521e-05
1.46175e-05
5.29606e-05
1.78594e-05
8.64717e-06
5.91567e-05
1.41062e-05
1.59392e-06
6.25788e-05
1.00506e-05
-7.03715e-06
6.35145e-05
6.13358e-06
-1.73655e-05
6.25591e-05
2.79442e-06
-2.91059e-05
6.20059e-05
-4.16508e-05
6.52735e-05
7.84697e-07
1.92e-05
3.67437e-05
3.38992e-05
-1.45727e-05
2.20847e-05
2.91717e-05
3.6809e-05
2.2683e-05
2.27511e-05
4.39283e-05
2.16093e-05
1.71103e-05
5.15591e-05
1.97617e-05
1.13281e-05
5.71918e-05
1.75026e-05
4.40417e-06
6.01769e-05
1.47792e-05
-4.22554e-06
6.07208e-05
1.17796e-05
-1.47658e-05
5.94974e-05
8.49541e-06
-2.71796e-05
5.88965e-05
-4.08551e-05
6.25088e-05
5.49226e-06
1.7561e-05
3.83409e-05
3.37898e-05
-1.36396e-05
2.02812e-05
3.10914e-05
3.51234e-05
2.11664e-05
2.50083e-05
4.09583e-05
2.10177e-05
1.97748e-05
4.75292e-05
2.05579e-05
1.43805e-05
5.2469e-05
1.99305e-05
7.79711e-06
5.51279e-05
1.88102e-05
-6.30453e-07
5.56894e-05
1.68871e-05
-1.12237e-05
5.48564e-05
1.38508e-05
-2.3893e-05
5.48396e-05
-3.79764e-05
5.90959e-05
9.97046e-06
1.53634e-05
3.83573e-05
3.29252e-05
-1.23301e-05
1.78883e-05
3.20715e-05
3.21711e-05
1.92063e-05
2.6722e-05
3.63562e-05
2.0043e-05
2.20586e-05
4.15663e-05
2.10266e-05
1.71617e-05
4.56666e-05
2.20574e-05
1.0996e-05
4.81066e-05
2.2485e-05
2.86767e-06
4.90523e-05
2.16644e-05
-7.39262e-06
4.90569e-05
1.89808e-05
-1.96779e-05
5.00716e-05
-3.33926e-05
5.52353e-05
1.43467e-05
1.33878e-05
3.65186e-05
3.15023e-05
-1.08348e-05
1.58742e-05
3.16986e-05
2.88658e-05
1.7823e-05
2.73028e-05
3.11783e-05
1.97453e-05
2.33351e-05
3.50087e-05
2.20965e-05
1.89495e-05
3.823e-05
2.45481e-05
1.32307e-05
4.05059e-05
2.63312e-05
5.69288e-06
4.19659e-05
2.64114e-05
-3.79016e-06
4.30273e-05
2.38801e-05
-1.5019e-05
4.53165e-05
-2.71863e-05
5.12678e-05
1.82238e-05
1.29911e-05
3.27512e-05
3.03664e-05
-1.05171e-05
1.57353e-05
2.93509e-05
2.71371e-05
1.8529e-05
2.60639e-05
2.77502e-05
2.14986e-05
2.29635e-05
3.0264e-05
2.49395e-05
1.91321e-05
3.27754e-05
2.84669e-05
1.40505e-05
3.4944e-05
3.10592e-05
7.33865e-06
3.69567e-05
3.15421e-05
-8.93786e-07
3.91183e-05
2.90026e-05
-1.04987e-05
4.252e-05
-2.00566e-05
4.83149e-05
2.2432e-05
1.48399e-05
3.09025e-05
2.56975e-05
-1.06459e-05
1.86963e-05
2.9877e-05
2.38757e-05
2.24651e-05
3.04251e-05
2.15845e-05
2.62378e-05
3.20226e-05
1.95091e-05
3.04152e-05
3.3781e-05
1.64261e-05
3.43545e-05
3.57932e-05
1.23421e-05
3.69784e-05
3.81747e-05
7.04803e-06
3.6906e-05
4.08114e-05
1.01683e-06
3.35124e-05
4.38866e-05
-6.24916e-06
4.71105e-05
2.55902e-05
-1.20987e-05
-1.47165e-06
3.22855e-05
2.0953e-05
5.2844e-07
-2.19329e-05
-2.4692e-06
3.18496e-05
2.83463e-05
-2.23909e-05
-5.36951e-06
2.96112e-05
3.93947e-05
-2.09731e-05
-1.03541e-05
2.56924e-05
5.13512e-05
-1.85216e-05
-1.6826e-05
1.99751e-05
6.15303e-05
-1.46941e-05
-2.31282e-05
1.27071e-05
6.8616e-05
-9.82427e-06
-2.73603e-05
4.41642e-06
7.19967e-05
-4.21027e-06
-2.79359e-05
-3.78152e-06
7.19102e-05
1.21866e-06
-2.47103e-05
-1.05343e-05
6.96324e-05
5.98456e-06
-1.34732e-05
6.65816e-05
-1.78643e-05
7.71097e-06
2.75756e-06
4.10994e-05
2.0277e-05
-1.90596e-06
3.0725e-06
3.99112e-05
2.59768e-05
1.23735e-06
3.66536e-05
3.67184e-05
-3.15997e-06
3.13115e-05
4.88231e-05
-9.55163e-06
2.39968e-05
5.91091e-05
-1.63643e-05
1.49209e-05
6.60094e-05
-2.16646e-05
4.59174e-06
6.88741e-05
-2.39515e-05
-5.77082e-06
6.8576e-05
-2.26247e-05
-1.43726e-05
6.71914e-05
-1.88682e-05
6.74668e-05
-1.76006e-05
6.33247e-06
4.78744e-05
2.18177e-05
-4.13074e-06
7.7976e-06
4.57579e-05
2.73587e-05
7.00175e-06
4.13504e-05
3.83152e-05
3.49307e-06
3.48833e-05
5.04686e-05
-2.24814e-06
2.64052e-05
6.04577e-05
-8.88573e-06
1.60137e-05
6.66685e-05
-1.46082e-05
4.2671e-06
6.87058e-05
-1.79895e-05
-7.65847e-06
6.76475e-05
-1.80318e-05
-1.78226e-05
6.58338e-05
-2.39716e-05
6.72987e-05
-1.44841e-05
8.63188e-06
5.21921e-05
2.44297e-05
-5.33865e-06
1.10408e-05
4.91607e-05
2.98342e-05
1.12354e-05
4.38615e-05
4.0512e-05
8.8131e-06
3.66187e-05
5.20057e-05
4.21727e-06
2.7416e-05
6.10316e-05
-1.55837e-06
1.6271e-05
6.63389e-05
-7.1378e-06
3.693e-06
6.7789e-05
-1.11267e-05
-9.14778e-06
6.61252e-05
-1.24358e-05
-2.03233e-05
6.39953e-05
-2.76628e-05
6.59362e-05
-1.08658e-05
9.85467e-06
5.44245e-05
2.67453e-05