/*--------------------------------*- C++ -*----------------------------------*\
| =========                 |                                                 |
| \\      /  F ield         | OpenFOAM: The Open Source CFD Toolbox           |
|  \\    /   O peration     | Version:  2406                                  |
|   \\  /    A nd           | Website:  www.openfoam.com                      |
|    \\/     M anipulation  |                                                 |
\*---------------------------------------------------------------------------*/
FoamFile
{
    version     2.0;
    format      ascii;
    arch        "LSB;label=32;scalar=64";
    class       volSymmTensorField;
    location    "0.4";
    object      turbulenceProperties:R;
}
// * * * * * * * * * * * * * * * * * * * * * * * * * * * * * * * * * * * * * //

dimensions      [0 2 -2 0 0 0 0];

internalField   uniform (0 -0 -0 0 -0 0);

boundaryField
{
    walls
    {
        type            calculated;
        value           nonuniform List<symmTensor> 
2000
(
(-8.10165e-08 6.61125e-08 2.62622e-07 -4.98238e-08 -2.21492e-07 1.3084e-07)
(-1.43307e-07 7.91301e-08 4.07934e-07 -4.03358e-08 -2.5083e-07 1.83643e-07)
(-2.14111e-07 7.68787e-08 5.78406e-07 -2.41024e-08 -2.41018e-07 2.38213e-07)
(-2.74955e-07 5.57255e-08 7.27802e-07 -7.52688e-09 -1.75876e-07 2.82482e-07)
(-3.10238e-07 1.62397e-08 8.15362e-07 3.15263e-09 -6.44756e-08 3.07085e-07)
(-3.08444e-07 -2.90096e-08 8.15847e-07 1.14772e-09 6.4911e-08 3.07296e-07)
(-2.70547e-07 -6.60703e-08 7.29211e-07 -1.2633e-08 1.76555e-07 2.8318e-07)
(-2.09099e-07 -8.34039e-08 5.80409e-07 -3.03796e-08 2.421e-07 2.39479e-07)
(-1.4149e-07 -8.05807e-08 4.09864e-07 -4.33933e-08 2.5207e-07 1.84883e-07)
(-8.35197e-08 -6.57117e-08 2.64079e-07 -4.79592e-08 2.22626e-07 1.31479e-07)
(-1.08239e-09 7.20055e-10 8.16056e-08 -8.5416e-10 -6.8066e-08 1.93655e-09)
(-4.8488e-09 -8.96031e-10 1.09082e-07 1.65305e-09 -6.60507e-08 3.19575e-09)
(-6.49759e-09 -2.71481e-09 1.40091e-07 1.50388e-09 -5.76259e-08 4.99371e-09)
(-6.50626e-09 -3.34003e-09 1.66432e-07 -1.43927e-10 -3.97636e-08 6.65019e-09)
(-5.86394e-09 -2.98218e-09 1.81415e-07 -1.746e-09 -1.42104e-08 7.60994e-09)
(-5.17651e-09 -1.74299e-09 1.8104e-07 -2.50401e-09 1.42202e-08 7.68052e-09)
(-4.85052e-09 -4.00501e-10 1.65271e-07 -2.02904e-09 3.95352e-08 6.87955e-09)
(-4.70421e-09 4.51579e-10 1.38088e-07 -7.31056e-10 5.68669e-08 5.43527e-09)
(-4.58221e-09 6.36485e-10 1.06382e-07 9.34529e-10 6.4479e-08 3.64768e-09)
(-2.92498e-09 -3.39946e-10 7.87202e-08 7.54402e-10 6.56836e-08 2.17057e-09)
(3.16247e-10 -5.31178e-11 1.99814e-08 -3.68792e-10 -1.62608e-08 5.25454e-11)
(-5.53988e-10 -4.74357e-10 1.8015e-08 3.86484e-10 -1.03739e-08 1.67503e-10)
(-6.90584e-10 -8.38174e-10 1.5791e-08 3.43482e-10 -6.11597e-09 3.47102e-10)
(-4.18187e-10 -7.88774e-10 1.39604e-08 -5.84696e-11 -3.10724e-09 4.76657e-10)
(-1.74832e-10 -6.2671e-10 1.27214e-08 -3.48093e-10 -8.94959e-10 5.22926e-10)
(-2.88859e-11 -3.41569e-10 1.21028e-08 -4.96802e-10 9.41066e-10 5.25688e-10)
(-2.84614e-11 -6.08843e-11 1.20687e-08 -4.66979e-10 2.77193e-09 4.95441e-10)
(-1.63363e-10 1.89206e-10 1.25173e-08 -2.61681e-10 4.92502e-09 4.25043e-10)
(-3.71629e-10 3.18686e-10 1.34676e-08 7.68158e-11 7.8138e-09 2.94814e-10)
(-3.56052e-10 1.79056e-10 1.46656e-08 2.04313e-10 1.19481e-08 1.51739e-10)
(-8.85074e-10 -3.31356e-10 2.91471e-08 1.17402e-09 -2.35621e-08 -2.88945e-10)
(-1.41206e-09 -1.00779e-09 2.29109e-08 1.58555e-09 -1.28959e-08 -1.7349e-10)
(-1.12101e-09 -1.39329e-09 1.6552e-08 1.13353e-09 -6.15839e-09 -1.25193e-11)
(-5.42817e-10 -1.27995e-09 1.1794e-08 4.60647e-10 -2.44746e-09 8.21701e-11)
(-1.16848e-10 -1.08543e-09 9.03265e-09 1.0831e-11 -5.35044e-10 1.06017e-10)
(1.74324e-10 -8.55468e-10 7.95831e-09 -2.82961e-10 6.52326e-10 1.08637e-10)
(3.88571e-10 -6.84713e-10 8.40171e-09 -4.92431e-10 1.90037e-09 1.03861e-10)
(5.6747e-10 -4.87366e-10 1.03347e-08 -6.44762e-10 3.9696e-09 7.72924e-11)
(8.16075e-10 -2.97596e-10 1.40041e-08 -8.24253e-10 7.97393e-09 8.17802e-12)
(1.07062e-09 -7.78869e-11 1.85125e-08 -9.89974e-10 1.49926e-08 -8.0642e-11)
(-3.67638e-09 -7.86313e-10 2.49665e-08 3.92806e-09 -1.9854e-08 -2.51681e-10)
(-3.28025e-09 -1.94189e-09 1.48834e-08 3.41589e-09 -7.97576e-09 -1.35636e-10)
(-1.8202e-09 -2.03855e-09 7.30887e-09 1.82917e-09 -2.45979e-09 -8.96573e-12)
(-7.10649e-10 -1.54502e-09 3.22724e-09 6.78508e-10 -5.30171e-10 3.21407e-11)
(-1.45567e-10 -1.12848e-09 1.60666e-09 1.12483e-10 -3.49055e-11 3.30834e-11)
(1.67359e-10 -9.31615e-10 1.20234e-09 -1.96819e-10 1.08402e-10 2.94604e-11)
(5.05776e-10 -9.58147e-10 1.61465e-09 -5.38047e-10 3.27638e-10 3.22704e-11)
(1.06959e-09 -1.03063e-09 3.16817e-09 -1.09962e-09 1.11218e-09 3.00392e-11)
(2.11387e-09 -1.00241e-09 6.91373e-09 -2.13175e-09 3.75416e-09 1.78842e-11)
(2.93617e-09 -3.90971e-10 1.21957e-08 -2.93372e-09 9.77638e-09 -2.44888e-12)
(-7.96934e-09 -1.52731e-09 3.12934e-08 8.19972e-09 -2.47685e-08 -2.30379e-10)
(-6.10086e-09 -3.39504e-09 1.72793e-08 6.23633e-09 -9.15791e-09 -1.35474e-10)
(-3.12182e-09 -3.34583e-09 7.66252e-09 3.14749e-09 -2.50612e-09 -2.56699e-11)
(-1.29266e-09 -2.71108e-09 3.10745e-09 1.28897e-09 -4.63127e-10 3.69707e-12)
(-3.09795e-10 -2.22488e-09 1.45151e-09 2.96658e-10 -1.04273e-11 1.31377e-11)
(3.42605e-10 -2.01733e-09 1.07533e-09 -3.58077e-10 8.39622e-11 1.54724e-11)
(1.01125e-09 -1.96562e-09 1.49434e-09 -1.03655e-09 2.57626e-10 2.53009e-11)
(1.86347e-09 -1.85539e-09 2.87555e-09 -1.89161e-09 9.44591e-10 2.81438e-11)
(3.36213e-09 -1.69377e-09 6.08529e-09 -3.41199e-09 3.22941e-09 4.98621e-11)
(4.06272e-09 -6.10929e-10 9.8619e-09 -4.12533e-09 7.92328e-09 6.26113e-11)
(-7.22801e-09 -1.34596e-09 2.70697e-08 7.2236e-09 -2.12801e-08 4.40516e-12)
(-5.29019e-09 -2.93397e-09 1.28001e-08 5.29653e-09 -6.66764e-09 -6.34435e-12)
(-2.3295e-09 -2.49857e-09 4.39469e-09 2.28883e-09 -1.35677e-09 4.06665e-11)
(-8.82422e-10 -1.85367e-09 1.23989e-09 8.49833e-10 -1.28148e-10 3.25888e-11)
(-2.11018e-10 -1.5332e-09 2.53861e-10 1.78754e-10 3.34319e-11 3.22647e-11)
(2.34658e-10 -1.35491e-09 1.72023e-12 -2.67606e-10 -1.97221e-11 3.29479e-11)
(5.44664e-10 -1.04527e-09 1.7596e-10 -5.8027e-10 -3.57948e-11 3.56066e-11)
(7.4829e-10 -7.32689e-10 6.62445e-10 -7.78869e-10 1.4058e-10 3.05782e-11)
(1.38722e-09 -6.80683e-10 2.04536e-09 -1.42725e-09 9.70109e-10 4.00297e-11)
(1.92886e-09 -2.74432e-10 4.42977e-09 -1.94635e-09 3.48414e-09 1.74883e-11)
(-1.93548e-09 -4.26657e-10 1.24006e-08 1.76461e-09 -9.56833e-09 1.70872e-10)
(-9.26753e-10 -5.55123e-10 3.47506e-09 8.65274e-10 -1.66665e-09 6.14782e-11)
(-1.53803e-10 -1.77849e-10 3.01674e-10 1.37539e-10 -4.84602e-11 1.62641e-11)
(-5.67838e-11 -1.29995e-10 -7.11117e-11 4.74676e-11 4.43926e-11 9.31618e-12)
(-3.6955e-11 -3.67207e-10 -6.57445e-10 1.18078e-11 8.02847e-11 2.51473e-11)
(9.59928e-11 -4.43433e-10 -1.06495e-09 -1.30955e-10 -1.08321e-10 3.49622e-11)
(1.38629e-10 -2.39132e-10 -5.83454e-10 -1.69004e-10 -2.0177e-10 3.03748e-11)
(3.27792e-11 -2.81758e-11 -3.33e-11 -4.0207e-11 -3.69268e-11 7.42786e-12)
(5.05424e-11 -1.85284e-11 1.77807e-10 -6.29986e-11 4.73565e-11 1.24562e-11)
(1.06371e-10 9.20869e-12 2.1383e-09 -1.47198e-10 1.58289e-09 4.08265e-11)
(1.30305e-10 1.76379e-11 2.33989e-09 -1.78257e-10 -1.71028e-09 4.79525e-11)
(1.80151e-13 -2.70828e-12 9.17339e-11 -4.09111e-12 -1.73935e-11 3.91096e-12)
(-8.98948e-12 -1.63805e-11 -1.88021e-10 5.4522e-13 1.32053e-10 8.44426e-12)
(-4.36538e-11 -1.23587e-10 -2.30199e-09 -5.50285e-12 7.19429e-10 4.91566e-11)
(-8.38222e-12 -2.73483e-10 -5.60158e-09 -9.61912e-11 5.69458e-10 1.04573e-10)
(6.95684e-11 -2.70754e-10 -6.71875e-09 -2.36824e-10 -5.37974e-10 1.67256e-10)
(5.20425e-11 -6.59588e-11 -5.54543e-09 -2.45449e-10 -1.44815e-09 1.93407e-10)
(-7.42925e-11 1.20767e-10 -2.92764e-09 -7.42434e-11 -1.38596e-09 1.48536e-10)
(-1.34202e-10 9.44939e-11 -5.13881e-10 8.39444e-11 -4.1773e-10 5.02579e-11)
(-2.8381e-11 8.09566e-12 1.40323e-11 2.20611e-11 -3.83417e-13 6.31993e-12)
(4.38697e-11 8.28049e-12 6.11016e-10 -4.55442e-11 -4.1622e-10 1.67445e-12)
(7.78741e-14 -1.81492e-13 -1.70508e-12 -1.74453e-13 9.07979e-12 9.65786e-14)
(-7.56033e-11 -9.38358e-11 -1.49956e-09 6.32549e-11 8.43397e-10 1.23484e-11)
(-2.40416e-10 -5.14587e-10 -7.62891e-09 1.5603e-10 2.31989e-09 8.43861e-11)
(-2.38543e-10 -1.26075e-09 -1.86161e-08 -5.26523e-11 2.15208e-09 2.91195e-10)
(1.76456e-10 -1.88844e-09 -3.14899e-08 -7.69571e-10 -1.88186e-09 5.93115e-10)
(6.49832e-10 -1.55029e-09 -3.56418e-08 -1.42434e-09 -8.42528e-09 7.74507e-10)
(5.77204e-10 -6.14208e-10 -2.89938e-08 -1.30756e-09 -1.23305e-08 7.30355e-10)
(-1.5541e-10 1.44023e-10 -1.6302e-08 -3.33409e-10 -1.0521e-08 4.88819e-10)
(-3.64603e-10 9.92654e-11 -5.34736e-09 1.24899e-10 -4.77899e-09 2.39704e-10)
(-1.19486e-11 2.62536e-12 5.85028e-10 2.61123e-11 -3.83601e-10 -1.41637e-11)
(-2.91915e-11 -1.72449e-11 -5.52835e-11 3.21716e-11 8.52473e-11 -2.98005e-12)
(-5.21945e-10 -5.77183e-10 -4.23508e-09 5.18953e-10 2.28984e-09 2.99168e-12)
(-1.07957e-09 -2.14936e-09 -1.98718e-08 8.88434e-10 6.01377e-09 1.91132e-10)
(-9.7647e-10 -4.71757e-09 -5.23199e-08 3.35009e-10 5.9327e-09 6.41462e-10)
(6.12784e-10 -6.44329e-09 -8.32974e-08 -1.62771e-09 -5.14797e-09 1.01493e-09)
(2.70115e-09 -6.16035e-09 -9.47552e-08 -3.84821e-09 -2.23267e-08 1.14706e-09)
(3.75362e-09 -3.96863e-09 -8.01759e-08 -4.66442e-09 -3.38467e-08 9.10797e-10)
(3.21899e-09 -1.584e-09 -4.90116e-08 -3.70851e-09 -3.11517e-08 4.89516e-10)
(1.93395e-09 -3.01511e-10 -2.11883e-08 -2.16263e-09 -1.84587e-08 2.28673e-10)
(-9.20463e-12 3.71595e-12 8.51246e-10 2.45957e-11 -5.49454e-10 -1.5391e-11)
(-2.76009e-11 -1.39816e-11 -1.50579e-10 3.1472e-11 1.94616e-10 -3.87106e-12)
(-5.75915e-10 -5.63185e-10 -8.16385e-09 5.78015e-10 4.34331e-09 -2.10036e-12)
(-1.41462e-09 -2.51415e-09 -3.96005e-08 1.26526e-09 1.1694e-08 1.49368e-10)
(-1.18215e-09 -5.62799e-09 -9.31398e-08 7.66159e-10 9.98235e-09 4.15991e-10)
(8.98298e-10 -7.72932e-09 -1.3851e-07 -1.4399e-09 -9.17831e-09 5.41603e-10)
(3.60225e-09 -7.50368e-09 -1.49224e-07 -4.02642e-09 -3.58726e-08 4.24169e-10)
(4.89879e-09 -4.92519e-09 -1.16959e-07 -5.01087e-09 -5.00746e-08 1.12079e-10)
(4.78725e-09 -2.42261e-09 -6.5722e-08 -4.69444e-09 -4.22087e-08 -9.28037e-11)
(3.18631e-09 -5.61205e-10 -2.68636e-08 -3.07394e-09 -2.34933e-08 -1.12366e-10)
(3.71977e-10 9.06368e-11 1.6762e-09 -3.58805e-10 -1.13564e-09 -1.31728e-11)
(4.90769e-11 3.27601e-11 -7.98606e-11 -4.53202e-11 1.32637e-10 -3.75671e-12)
(1.46925e-10 2.75841e-10 -8.263e-09 -8.63028e-11 4.36775e-09 -6.06223e-11)
(-3.00104e-10 6.1196e-11 -3.77579e-08 4.12398e-10 1.10674e-08 -1.12294e-10)
(-6.55902e-10 -9.319e-10 -9.39976e-08 8.77897e-10 9.81584e-09 -2.21995e-10)
(-1.54142e-10 -1.52447e-09 -1.34612e-07 5.86628e-10 -9.71049e-09 -4.32486e-10)
(5.55025e-10 -1.34038e-09 -1.32103e-07 1.06079e-10 -3.27193e-08 -6.61104e-10)
(8.29073e-10 -8.98677e-10 -9.50366e-08 -7.17155e-11 -4.15193e-08 -7.57358e-10)
(1.70535e-09 -1.01402e-09 -4.71597e-08 -1.15091e-09 -3.09446e-08 -5.54446e-10)
(1.60706e-09 -4.10051e-10 -1.58903e-08 -1.31207e-09 -1.40877e-08 -2.94993e-10)
(1.02495e-09 1.71218e-10 2.52341e-09 -1.09618e-09 -1.82611e-09 7.12325e-11)
(4.14733e-10 2.30161e-10 5.44797e-11 -4.26984e-10 1.19542e-10 1.22518e-11)
(1.36004e-09 1.49442e-09 -3.61382e-09 -1.36204e-09 2.0344e-09 2.0009e-12)
(2.3656e-09 5.37625e-09 -2.09978e-08 -2.32248e-09 6.15631e-09 -4.31181e-11)
(1.07249e-09 9.5742e-09 -4.86957e-08 -7.40082e-10 4.81396e-09 -3.32408e-10)
(-2.18953e-09 1.14494e-08 -6.83214e-08 2.79056e-09 -5.32658e-09 -6.01031e-10)
(-5.34945e-09 9.7803e-09 -6.54618e-08 6.0111e-09 -1.68168e-08 -6.61652e-10)
(-5.91007e-09 5.5002e-09 -4.23162e-08 6.50418e-09 -1.91689e-08 -5.9411e-10)
(-3.30573e-09 1.42896e-09 -1.72054e-08 3.67115e-09 -1.18254e-08 -3.65421e-10)
(-8.46726e-10 3.67126e-11 -3.82784e-09 1.01071e-09 -3.54722e-09 -1.63982e-10)
(4.72669e-10 6.42967e-11 3.0239e-10 -5.39741e-10 -1.91167e-10 6.70717e-11)
(1.41225e-09 7.26298e-10 -4.58365e-10 -1.53106e-09 5.25581e-10 1.18811e-10)
(3.25894e-09 3.33479e-09 -4.28085e-09 -3.47583e-09 2.26612e-09 2.16888e-10)
(4.5806e-09 9.40833e-09 -1.3997e-08 -4.89087e-09 4.05305e-09 3.10269e-10)
(2.29117e-09 1.66108e-08 -2.66872e-08 -2.54647e-09 2.62824e-09 2.55294e-10)
(-3.61365e-09 2.05447e-08 -3.41972e-08 3.52272e-09 -2.7303e-09 9.09345e-11)
(-9.62484e-09 1.834e-08 -3.06038e-08 9.75132e-09 -8.06519e-09 -1.26483e-10)
(-1.10551e-08 1.08663e-08 -1.79139e-08 1.12955e-08 -8.45897e-09 -2.40397e-10)
(-7.67064e-09 3.82181e-09 -5.97932e-09 7.91233e-09 -4.56148e-09 -2.41688e-10)
(-2.68848e-09 3.80642e-10 -4.0448e-10 2.81699e-09 -6.08015e-10 -1.28507e-10)
(1.57138e-09 2.06295e-10 -5.17435e-09 -1.87295e-09 4.57322e-09 3.01571e-10)
(4.50033e-09 2.26886e-09 -1.45698e-08 -5.12509e-09 9.63503e-09 6.24759e-10)
(6.3969e-09 6.40892e-09 -2.61782e-08 -7.22661e-09 1.15946e-08 8.2971e-10)
(6.04937e-09 1.20803e-08 -3.62348e-08 -6.96839e-09 9.29596e-09 9.19014e-10)
(2.39906e-09 1.59048e-08 -3.90933e-08 -3.11883e-09 3.26983e-09 7.19775e-10)
(-2.52457e-09 1.53322e-08 -3.21903e-08 2.09363e-09 -2.82446e-09 4.30939e-10)
(-5.57796e-09 1.09504e-08 -1.89998e-08 5.45437e-09 -5.17692e-09 1.23585e-10)
(-5.04176e-09 5.10047e-09 -6.56649e-09 5.04304e-09 -3.34276e-09 -1.27576e-12)
(-3.70378e-09 1.91373e-09 -5.37748e-10 3.72756e-09 -8.5961e-10 -2.37793e-11)
(-3.75203e-09 5.90174e-10 2.92605e-09 3.77337e-09 1.98173e-09 -2.13466e-11)
(7.83123e-10 2.8811e-10 -2.4194e-08 -1.02214e-09 2.10359e-08 2.39016e-10)
(2.5272e-10 4.50743e-10 -5.48006e-08 -8.52395e-10 3.50657e-08 5.99675e-10)
(-1.12377e-09 -5.48797e-10 -9.13572e-08 1.37789e-10 3.90607e-08 9.85985e-10)
(-1.55849e-09 -1.81329e-09 -1.11855e-07 2.4583e-10 2.69929e-08 1.31266e-09)
(-1.10489e-09 -2.74608e-09 -1.00188e-07 -2.0583e-10 6.85691e-09 1.31072e-09)
(3.70704e-11 -2.66398e-09 -6.62488e-08 -1.00063e-09 -6.807e-09 9.63555e-10)
(5.88633e-10 -1.32176e-09 -2.92076e-08 -1.11378e-09 -8.41756e-09 5.25145e-10)
(2.90466e-10 -2.54701e-10 -6.10574e-09 -4.98281e-10 -3.0763e-09 2.07815e-10)
(-2.97949e-11 4.17625e-11 -7.73842e-10 -3.08156e-11 -6.39257e-10 6.06106e-11)
(-2.10422e-11 7.36024e-12 4.65785e-11 9.51597e-12 1.779e-11 1.15262e-11)
(5.75255e-09 1.27457e-09 -2.73611e-08 -5.82996e-09 2.37941e-08 7.74086e-11)
(9.18868e-09 5.41981e-09 -6.95982e-08 -9.39517e-09 4.42653e-08 2.06494e-10)
(7.59482e-09 9.09472e-09 -1.24812e-07 -7.78979e-09 5.28231e-08 1.94964e-10)
(3.50595e-09 1.00364e-08 -1.68415e-07 -3.90792e-09 4.01372e-08 4.01971e-10)
(-5.63079e-10 6.40215e-09 -1.76854e-07 -6.40814e-11 1.19154e-08 6.2716e-10)
(-1.51159e-09 1.59729e-09 -1.45446e-07 7.16767e-10 -1.45557e-08 7.94827e-10)
(-4.14274e-10 -1.13529e-09 -9.44097e-08 -5.0838e-10 -2.56638e-08 9.22653e-10)
(5.49308e-10 -1.18284e-09 -5.05801e-08 -1.4271e-09 -2.31353e-08 8.77796e-10)
(2.93398e-10 -2.7101e-10 -2.18522e-08 -8.39168e-10 -1.47579e-08 5.45769e-10)
(-1.18445e-10 2.85813e-11 -6.41923e-09 -1.5157e-10 -5.87438e-09 2.70015e-10)
(1.97244e-08 3.44726e-09 -3.12883e-08 -1.98094e-08 2.7141e-08 8.49939e-11)
(3.36457e-08 1.76937e-08 -7.12005e-08 -3.37228e-08 4.52594e-08 7.71108e-11)
(3.40654e-08 3.48389e-08 -1.1571e-07 -3.36885e-08 4.91014e-08 -3.76871e-10)
(2.56163e-08 5.17587e-08 -1.53318e-07 -2.51754e-08 3.69539e-08 -4.40853e-10)
(8.24831e-09 5.7051e-08 -1.65136e-07 -7.67012e-09 1.18184e-08 -5.78194e-10)
(-8.7121e-09 4.99202e-08 -1.479e-07 9.1678e-09 -1.38334e-08 -4.55699e-10)
(-1.84311e-08 3.47281e-08 -1.11728e-07 1.87531e-08 -2.93894e-08 -3.21977e-10)
(-1.89925e-08 1.84015e-08 -7.11036e-08 1.91655e-08 -3.17473e-08 -1.7296e-10)
(-1.43686e-08 7.06023e-09 -3.79875e-08 1.44991e-08 -2.50791e-08 -1.30481e-10)
(-6.78719e-09 9.80578e-10 -1.46017e-08 6.85768e-09 -1.30443e-08 -7.04853e-11)
(1.5552e-08 2.61932e-09 -2.92144e-08 -1.55661e-08 2.55887e-08 1.40916e-11)
(2.62329e-08 1.36348e-08 -6.24659e-08 -2.62827e-08 4.02205e-08 4.97918e-11)
(2.63521e-08 2.65853e-08 -9.55428e-08 -2.61242e-08 4.12279e-08 -2.27915e-10)
(2.02959e-08 4.00323e-08 -1.20938e-07 -2.0057e-08 2.99935e-08 -2.38876e-10)
(7.23127e-09 4.5492e-08 -1.24699e-07 -6.83109e-09 9.73777e-09 -4.00188e-10)
(-6.5702e-09 4.19735e-08 -1.07723e-07 6.95813e-09 -9.39515e-09 -3.87927e-10)
(-1.60776e-08 3.16622e-08 -7.91873e-08 1.64606e-08 -2.03769e-08 -3.83024e-10)
(-1.81333e-08 1.80791e-08 -4.88525e-08 1.84082e-08 -2.16203e-08 -2.74912e-10)
(-1.48573e-08 7.47243e-09 -2.50717e-08 1.51232e-08 -1.658e-08 -2.6599e-10)
(-6.85784e-09 1.01138e-09 -8.40973e-09 7.00466e-09 -7.57773e-09 -1.4682e-10)
(2.92613e-09 4.3401e-10 -2.27554e-08 -2.94951e-09 2.00252e-08 2.33854e-11)
(6.16201e-09 3.12552e-09 -5.07764e-08 -6.2878e-09 3.28604e-08 1.25789e-10)
(7.2433e-09 7.05921e-09 -8.17673e-08 -7.50288e-09 3.53946e-08 2.59579e-10)
(6.90066e-09 1.31358e-08 -1.03249e-07 -7.45597e-09 2.55877e-08 5.55311e-10)
(3.14906e-09 1.81465e-08 -1.03638e-07 -3.77013e-09 7.98794e-09 6.21067e-10)
(-2.82631e-09 1.96978e-08 -8.56989e-08 2.22467e-09 -7.5882e-09 6.01637e-10)
(-8.52082e-09 1.73189e-08 -6.01296e-08 8.1096e-09 -1.55693e-08 4.11212e-10)
(-1.08619e-08 1.11339e-08 -3.50918e-08 1.06527e-08 -1.56511e-08 2.09178e-10)
(-9.67549e-09 5.02678e-09 -1.63765e-08 9.69479e-09 -1.09951e-08 -1.92988e-11)
(-4.35242e-09 6.96924e-10 -4.36541e-09 4.39372e-09 -4.06068e-09 -4.1293e-11)
(-1.76957e-09 -1.89073e-10 -2.16144e-08 1.70218e-09 1.90608e-08 6.73899e-11)
(-8.52867e-10 9.02026e-11 -5.67953e-08 5.61996e-10 3.69605e-08 2.9087e-10)
(7.84764e-10 1.76204e-09 -1.06674e-07 -1.47342e-09 4.63957e-08 6.88653e-10)
(2.61435e-09 6.98879e-09 -1.50127e-07 -3.88806e-09 3.73263e-08 1.27371e-09)
(1.42606e-09 1.47663e-08 -1.63658e-07 -3.07877e-09 1.26327e-08 1.65272e-09)
(-3.81159e-09 1.989e-08 -1.41496e-07 2.30938e-09 -1.26826e-08 1.50222e-09)
(-9.97015e-09 1.89784e-08 -9.78615e-08 9.09318e-09 -2.56337e-08 8.76968e-10)
(-1.18697e-08 1.17729e-08 -5.18604e-08 1.15515e-08 -2.34772e-08 3.18205e-10)
(-9.14351e-09 4.6261e-09 -1.9281e-08 9.15307e-09 -1.32295e-08 -9.55809e-12)
(-3.37455e-09 5.2508e-10 -3.51411e-09 3.40046e-09 -3.41328e-09 -2.5906e-11)
(-8.61393e-10 -6.50892e-11 -4.65175e-09 8.71681e-10 4.3238e-09 -1.02881e-11)
(-1.01874e-09 -1.11941e-10 -2.52004e-08 1.07216e-09 1.71181e-08 -5.34206e-11)
(-5.27998e-10 3.81032e-10 -6.74606e-08 6.18097e-10 3.01776e-08 -9.00988e-11)
(5.86143e-10 3.26908e-09 -1.13839e-07 -8.79668e-10 2.89334e-08 2.93525e-10)
(2.65661e-10 8.35774e-09 -1.37769e-07 -8.0462e-10 1.08063e-08 5.38959e-10)
(-2.60299e-09 1.17692e-08 -1.19916e-07 2.18161e-09 -1.12124e-08 4.21385e-10)
(-5.68395e-09 1.04603e-08 -7.3642e-08 5.6156e-09 -2.01222e-08 6.83476e-11)
(-5.46765e-09 5.30507e-09 -2.8977e-08 5.49426e-09 -1.37716e-08 -2.66109e-11)
(-3.49854e-09 1.75124e-09 -7.12288e-09 3.56099e-09 -5.31235e-09 -6.24544e-11)
(-8.11444e-10 1.2625e-10 -2.70679e-10 8.28448e-10 -4.17988e-10 -1.70039e-11)
(-9.39635e-11 -1.00909e-11 -2.32257e-10 1.01355e-10 2.86465e-10 -7.39102e-12)
(3.49326e-10 3.24797e-10 -6.49667e-09 -3.73306e-10 4.68731e-09 2.39806e-11)
(9.76012e-10 1.41439e-09 -2.43449e-08 -1.04767e-09 1.14252e-08 7.16593e-11)
(2.20264e-09 5.90266e-09 -6.42588e-08 -2.69303e-09 1.70417e-08 4.90387e-10)
(7.95224e-10 1.12465e-08 -8.92801e-08 -1.57766e-09 7.10456e-09 7.82434e-10)
(-2.93048e-09 1.33277e-08 -7.92437e-08 2.2116e-09 -7.7329e-09 7.18878e-10)
(-5.49263e-09 9.91381e-09 -4.53082e-08 5.13658e-09 -1.27085e-08 3.56051e-10)
(-4.84937e-09 4.63779e-09 -1.67324e-08 4.66028e-09 -8.26533e-09 1.89093e-10)
(-2.57035e-09 1.27951e-09 -2.44715e-09 2.52267e-09 -2.15624e-09 4.76794e-11)
(-1.36125e-09 2.16113e-10 8.12723e-10 1.335e-09 3.77257e-10 2.62506e-11)
(1.67667e-10 5.32236e-11 6.74751e-10 -1.16607e-10 -3.15318e-10 -5.10604e-11)
(1.2812e-09 8.86739e-10 -3.01913e-09 -1.26057e-09 2.74146e-09 -2.06317e-11)
(3.11048e-09 4.22437e-09 -2.41797e-08 -3.16731e-09 1.2182e-08 5.68323e-11)
(5.26134e-09 1.41374e-08 -7.37355e-08 -5.64493e-09 2.07825e-08 3.83585e-10)
(1.29189e-09 2.43703e-08 -1.19771e-07 -1.66098e-09 1.12148e-08 3.69093e-10)
(-6.61761e-09 2.51931e-08 -1.18684e-07 6.56153e-09 -1.00362e-08 5.60793e-11)
(-9.06012e-09 1.38935e-08 -7.1905e-08 9.40915e-09 -1.91734e-08 -3.49035e-10)
(-4.50285e-09 3.36177e-09 -2.51643e-08 4.81975e-09 -1.17372e-08 -3.16902e-10)
(-8.38387e-10 1.40984e-10 -4.75244e-09 9.68595e-10 -3.45277e-09 -1.30208e-10)
(1.94513e-11 -1.35461e-11 -1.72258e-11 -1.46761e-11 -3.50422e-11 -4.77514e-12)
(-2.39971e-08 -4.79037e-09 5.63427e-08 2.60226e-08 -4.10557e-08 -2.02541e-09)
(-6.05045e-09 -3.28425e-09 9.54361e-09 6.72189e-09 -3.41673e-09 -6.71438e-10)
(-1.3667e-09 -1.44468e-09 1.71633e-10 1.62125e-09 5.23155e-10 -2.54555e-10)
(-1.0673e-09 -2.2108e-09 -3.63192e-09 1.54512e-09 1.53011e-09 -4.77823e-10)
(-5.59401e-10 -3.42691e-09 -8.80532e-09 1.43573e-09 1.25043e-09 -8.76328e-10)
(5.30902e-10 -4.47013e-09 -9.36974e-09 4.80592e-10 -5.85023e-10 -1.01149e-09)
(2.42835e-09 -5.44029e-09 -5.63578e-09 -1.60007e-09 -1.57048e-09 -8.28285e-10)
(5.05588e-09 -5.59695e-09 -1.3294e-09 -4.38068e-09 -1.07073e-09 -6.752e-10)
(1.38111e-08 -7.71217e-09 5.22969e-09 -1.31077e-08 2.03455e-09 -7.03377e-10)
(1.82016e-08 -3.36091e-09 1.35634e-08 -1.76568e-08 1.03655e-08 -5.44833e-10)
(-1.44286e-07 -2.92836e-08 3.37437e-07 1.50823e-07 -2.67024e-07 -6.53712e-09)
(-1.03143e-07 -5.92002e-08 2.36486e-07 1.10326e-07 -1.30867e-07 -7.1836e-09)
(-5.78096e-08 -6.65587e-08 1.72209e-07 6.48215e-08 -6.35923e-08 -7.01183e-09)
(-2.663e-08 -6.48945e-08 1.29098e-07 3.35192e-08 -2.64883e-08 -6.88911e-09)
(-4.66957e-09 -6.02854e-08 1.02367e-07 1.09964e-08 -5.64318e-09 -6.32688e-09)
(1.30112e-08 -5.77428e-08 8.798e-08 -7.28779e-09 7.90817e-09 -5.72341e-09)
(3.11368e-08 -5.47383e-08 8.1485e-08 -2.65543e-08 1.94058e-08 -4.58254e-09)
(4.33835e-08 -4.05812e-08 7.27878e-08 -4.01092e-08 2.91478e-08 -3.2743e-09)
(5.26109e-08 -2.56349e-08 6.32984e-08 -5.14619e-08 3.73369e-08 -1.149e-09)
(3.28425e-08 -4.22796e-09 4.10341e-08 -3.28747e-08 3.46001e-08 3.22208e-11)
(-1.40432e-07 -2.5159e-08 5.88712e-07 1.41785e-07 -4.8216e-07 -1.35272e-09)
(-1.34664e-07 -7.35124e-08 5.71237e-07 1.39177e-07 -3.3405e-07 -4.51298e-09)
(-8.6551e-08 -9.26023e-08 5.21279e-07 9.11591e-08 -2.05408e-07 -4.60809e-09)
(-4.96898e-08 -1.05602e-07 4.47917e-07 5.49529e-08 -1.00157e-07 -5.26308e-09)
(-1.4148e-08 -1.02779e-07 3.48286e-07 1.79872e-08 -2.19442e-08 -3.83921e-09)
(1.48995e-08 -8.97324e-08 2.38754e-07 -1.27674e-08 2.29972e-08 -2.13211e-09)
(3.33271e-08 -6.56088e-08 1.38469e-07 -3.3173e-08 3.64231e-08 -1.54167e-10)
(3.36634e-08 -3.40643e-08 6.25182e-08 -3.41103e-08 2.80019e-08 4.46824e-10)
(3.02681e-08 -1.59419e-08 2.37595e-08 -3.1224e-08 1.57811e-08 9.55875e-10)
(1.51473e-08 -2.49598e-09 5.89541e-09 -1.5663e-08 5.81593e-09 5.15698e-10)
(-3.16183e-08 -6.33071e-09 4.55487e-07 2.19806e-08 -3.81874e-07 9.63771e-09)
(-1.9823e-08 -1.09844e-08 5.77372e-07 1.11783e-08 -3.43716e-07 8.64469e-09)
(2.11567e-09 4.98371e-09 5.77374e-07 -9.5123e-09 -2.28109e-07 7.39663e-09)
(-1.65499e-09 5.12683e-09 4.54124e-07 -2.48361e-09 -9.8921e-08 4.1386e-09)
(-5.38486e-09 -7.73104e-09 2.7164e-07 3.25737e-09 -1.37348e-08 2.12749e-09)
(-2.72228e-12 -1.85466e-08 1.14106e-07 -7.72911e-10 1.35071e-08 7.75633e-10)
(6.45921e-09 -1.58058e-08 2.98612e-08 -6.76535e-09 9.13039e-09 3.06141e-10)
(9.00614e-09 -1.00762e-08 4.67134e-09 -9.00118e-09 2.79692e-09 -4.96114e-12)
(2.50343e-08 -1.41621e-08 -5.22827e-09 -2.51378e-08 -2.65321e-09 1.03444e-10)
(3.17084e-08 -6.16803e-09 -8.99404e-09 -3.16596e-08 -7.47253e-09 -4.8779e-11)
(-4.66671e-09 -1.24425e-09 3.80823e-08 1.63851e-09 -3.32762e-08 3.02819e-09)
(3.4277e-09 1.31427e-09 8.48492e-08 -9.01009e-09 -5.27704e-08 5.58239e-09)
(1.87701e-08 2.02129e-08 1.29576e-07 -2.65135e-08 -5.32499e-08 7.74343e-09)
(1.74726e-08 3.94056e-08 1.3191e-07 -2.44469e-08 -2.98948e-08 6.97434e-09)
(3.76536e-09 4.0167e-08 8.92778e-08 -8.28139e-09 -5.07207e-09 4.51603e-09)
(-5.36731e-09 2.2783e-08 3.95356e-08 3.44482e-09 4.18321e-09 1.92249e-09)
(-4.08271e-09 6.39775e-09 9.85763e-09 3.60524e-09 2.59662e-09 4.77467e-10)
(-7.47149e-10 5.34964e-10 8.94305e-10 7.21368e-10 3.64289e-10 2.57806e-11)
(1.95802e-11 -2.75118e-11 -2.91168e-11 -1.57931e-11 -2.77865e-11 -3.78711e-12)
(9.3652e-10 -2.55781e-10 -8.43497e-10 -8.43982e-10 -6.81416e-10 -9.2538e-11)
(7.75732e-09 1.29284e-09 -1.00287e-09 -8.3734e-09 7.45944e-10 6.16082e-10)
(1.55003e-08 8.08803e-09 -3.21186e-09 -1.68814e-08 1.59411e-09 1.38117e-09)
(2.10335e-08 2.19035e-08 -6.94911e-09 -2.33068e-08 2.44625e-09 2.27328e-09)
(1.93977e-08 4.06076e-08 -1.21634e-08 -2.23024e-08 2.44664e-09 2.9047e-09)
(7.11712e-09 5.47923e-08 -2.00616e-08 -1.00438e-08 1.2161e-09 2.92664e-09)
(-1.09051e-08 5.84111e-08 -2.81579e-08 8.34512e-09 -2.76134e-09 2.55994e-09)
(-2.70565e-08 4.99678e-08 -3.13924e-08 2.52612e-08 -8.72929e-09 1.7953e-09)
(-3.05247e-08 2.91301e-08 -2.31519e-08 2.93775e-08 -1.1273e-08 1.14714e-09)
(-2.79353e-08 1.37136e-08 -1.21258e-08 2.7476e-08 -9.62275e-09 4.59283e-10)
(-1.35693e-08 2.05585e-09 -9.72242e-10 1.35041e-08 -1.91276e-09 6.5164e-11)
(1.26984e-07 1.98745e-08 -4.55933e-08 -1.27981e-07 3.79344e-08 9.96726e-10)
(2.21713e-07 1.13773e-07 -8.80184e-08 -2.23692e-07 5.30219e-08 1.97819e-09)
(1.85759e-07 1.87179e-07 -1.06391e-07 -1.86101e-07 4.30991e-08 3.41305e-10)
(1.33995e-07 2.66827e-07 -1.26279e-07 -1.34981e-07 2.91879e-08 9.85545e-10)
(4.00834e-08 2.68433e-07 -1.24516e-07 -4.00438e-08 8.59644e-09 -3.96015e-11)
(-3.62271e-08 2.1609e-07 -1.08378e-07 3.63708e-08 -9.88303e-09 -1.43657e-10)
(-7.66695e-08 1.47269e-07 -8.39089e-08 7.71046e-08 -2.18601e-08 -4.35034e-10)
(-7.34348e-08 7.2116e-08 -5.03637e-08 7.31824e-08 -2.27468e-08 2.52327e-10)
(-6.63297e-08 3.35163e-08 -2.59807e-08 6.64473e-08 -1.84552e-08 -1.17578e-10)
(-2.80228e-08 4.50747e-09 -2.70776e-09 2.77848e-08 -4.03888e-09 2.38041e-10)
(1.04055e-07 1.71548e-08 -3.6567e-08 -1.03757e-07 3.38119e-08 -2.97677e-10)
(1.5714e-07 8.25927e-08 -6.78263e-08 -1.57941e-07 4.91469e-08 8.01626e-10)
(1.21367e-07 1.24846e-07 -7.98509e-08 -1.2139e-07 4.11009e-08 2.32016e-11)
(8.3149e-08 1.68691e-07 -1.03483e-07 -8.37815e-08 3.43296e-08 6.32523e-10)
(2.54464e-08 1.75101e-07 -1.1825e-07 -2.5502e-08 1.80845e-08 5.56097e-11)
(-2.53893e-08 1.49168e-07 -1.19523e-07 2.56993e-08 -2.56528e-09 -3.09992e-10)
(-5.44231e-08 1.04204e-07 -1.02062e-07 5.54214e-08 -2.03677e-08 -9.98295e-10)
(-5.148e-08 5.05114e-08 -6.49479e-08 5.22601e-08 -2.57257e-08 -7.80111e-10)
(-3.86669e-08 1.9519e-08 -2.90012e-08 3.96141e-08 -1.84959e-08 -9.47199e-10)
(-1.14304e-08 1.86079e-09 -2.97371e-09 1.16492e-08 -3.5268e-09 -2.18861e-10)
(-5.39565e-08 -7.5942e-09 -2.06979e-08 5.31657e-08 2.18408e-08 7.90783e-10)
(-1.26011e-07 -6.03079e-08 -7.16576e-08 1.24303e-07 5.48884e-08 1.7072e-09)
(-1.45743e-07 -1.41039e-07 -1.27459e-07 1.43338e-07 6.52132e-08 2.40537e-09)
(-1.17245e-07 -2.26374e-07 -1.85176e-07 1.15188e-07 5.72505e-08 2.0563e-09)
(-3.74243e-08 -2.36157e-07 -1.92263e-07 3.56564e-08 2.40788e-08 1.76795e-09)
(3.0116e-08 -1.84427e-07 -1.52286e-07 -3.12143e-08 -7.79098e-09 1.09834e-09)
(5.21231e-08 -1.00436e-07 -8.203e-08 -5.29986e-08 -1.92624e-08 8.75498e-10)
(3.66204e-08 -3.61971e-08 -2.52928e-08 -3.74459e-08 -1.16379e-08 8.25431e-10)
(1.46864e-08 -7.34637e-09 -3.51127e-10 -1.52365e-08 -1.1344e-09 5.50186e-10)
(7.26077e-09 -9.35559e-10 6.42639e-09 -7.8766e-09 4.62838e-09 6.15832e-10)
(-4.08436e-07 -6.80085e-08 -2.03898e-07 4.03587e-07 1.74782e-07 4.84936e-09)
(-6.11157e-07 -3.11825e-07 -3.30013e-07 6.07484e-07 1.99972e-07 3.67351e-09)
(-4.20116e-07 -4.26626e-07 -2.90738e-07 4.13941e-07 1.10372e-07 6.17444e-09)
(-2.33045e-07 -4.7142e-07 -2.19116e-07 2.29676e-07 4.03726e-08 3.36914e-09)
(-5.26479e-08 -3.72427e-07 -1.26703e-07 5.04039e-08 3.8864e-10 2.24404e-09)
(4.55237e-08 -2.55272e-07 -6.87911e-08 -4.60396e-08 -1.08444e-08 5.15872e-10)
(8.04334e-08 -1.49915e-07 -4.15653e-08 -8.02448e-08 -1.17103e-08 -1.88567e-10)
(7.69345e-08 -7.37484e-08 -3.29768e-08 -7.61005e-08 -1.31346e-08 -8.33975e-10)
(7.10622e-08 -3.47125e-08 -3.42772e-08 -7.09312e-08 -1.91333e-08 -1.31042e-10)
(4.38074e-08 -6.05179e-09 -3.05403e-08 -4.43234e-08 -2.41224e-08 5.15994e-10)
(-2.18998e-07 -4.53836e-08 -8.05208e-08 2.20691e-07 7.1673e-08 -1.69349e-09)
(-2.06445e-07 -1.16256e-07 -1.18133e-07 2.09389e-07 7.38359e-08 -2.94453e-09)
(-6.78842e-08 -7.72933e-08 -9.25515e-08 6.80436e-08 3.69127e-08 -1.59373e-10)
(-2.00248e-08 -4.61096e-08 -6.91504e-08 2.06594e-08 1.32739e-08 -6.34598e-10)
(-3.12831e-09 -2.40006e-08 -4.14217e-08 3.68344e-09 -6.85313e-10 -5.55136e-10)
(2.39474e-09 -1.67379e-08 -1.92174e-08 -1.71286e-09 -5.45426e-09 -6.81881e-10)
(8.33094e-09 -1.73221e-08 -5.28889e-09 -7.66685e-09 -5.4667e-09 -6.64093e-10)
(2.22133e-08 -2.33179e-08 7.39515e-09 -2.11787e-08 -2.11038e-09 -1.03458e-09)
(5.71742e-08 -3.07688e-08 1.63401e-08 -5.63032e-08 5.29705e-09 -8.71069e-10)
(5.21809e-08 -8.95512e-09 5.53181e-09 -5.14048e-08 3.69782e-09 -7.76025e-10)
(-6.30989e-07 -1.27079e-07 2.93999e-07 6.34754e-07 -2.33973e-07 -3.76477e-09)
(-5.18236e-07 -2.92265e-07 2.73614e-07 5.22543e-07 -1.51681e-07 -4.30703e-09)
(-1.51082e-07 -1.79669e-07 1.33531e-07 1.4918e-07 -4.47647e-08 1.90212e-09)
(-5.37442e-09 -2.5229e-08 2.83625e-08 3.7931e-09 -3.87296e-09 1.58132e-09)
(1.0789e-08 2.55946e-08 1.41076e-08 -1.31675e-08 8.34144e-10 2.37851e-09)
(-3.2222e-08 4.16154e-07 1.85438e-08 1.75732e-08 6.74293e-09 1.46488e-08)
(-5.81684e-07 1.2171e-06 -5.93095e-08 5.54193e-07 -1.41031e-08 2.74917e-08)
(-1.21956e-06 1.18764e-06 -1.47464e-07 1.20994e-06 -7.25866e-08 9.62407e-09)
(-6.82982e-07 3.08249e-07 -1.16673e-07 6.9188e-07 -8.52033e-08 -8.89756e-09)
(-1.16313e-07 8.84507e-09 -3.46468e-08 1.21425e-07 -3.48524e-08 -5.112e-09)
(-3.86339e-07 -6.30725e-08 2.81149e-07 3.78258e-07 -2.34785e-07 8.08129e-09)
(-4.84034e-07 -2.43096e-07 3.68656e-07 4.75281e-07 -2.18656e-07 8.75264e-09)
(-3.43129e-07 -3.44903e-07 3.61413e-07 3.33888e-07 -1.37688e-07 9.24155e-09)
(-1.45913e-07 -3.02178e-07 2.70802e-07 1.393e-07 -4.85553e-08 6.61235e-09)
(-1.07393e-08 -1.13214e-07 1.1439e-07 6.04154e-09 3.90911e-09 4.69775e-09)
(2.5517e-09 -2.775e-09 1.48619e-08 -3.89592e-09 5.06545e-09 1.34423e-09)
(-1.5555e-08 4.04931e-08 1.6386e-09 1.35609e-08 8.08935e-09 1.99401e-09)
(-1.82218e-07 2.01975e-07 -5.99958e-08 1.79703e-07 -5.02958e-09 2.51494e-09)