/*--------------------------------*- C++ -*----------------------------------*\
| =========                 |                                                 |
| \\      /  F ield         | OpenFOAM: The Open Source CFD Toolbox           |
|  \\    /   O peration     | Version:  2406                                  |
|   \\  /    A nd           | Website:  www.openfoam.com                      |
|    \\/     M anipulation  |                                                 |
\*---------------------------------------------------------------------------*/
FoamFile
{
    version     2.0;
    format      ascii;
    arch        "LSB;label=32;scalar=64";
    class       volSymmTensorField;
    location    "0.4";
    object      turbulenceProperties:devReff;
}
// * * * * * * * * * * * * * * * * * * * * * * * * * * * * * * * * * * * * * //

dimensions      [0 2 -2 0 0 0 0];

internalField   nonuniform List<symmTensor> 
25000
(
(0.0253143 -0.00733498 -0.0528292 0.0274376 -0.0513565 -0.0527519)
(0.038171 -0.00236225 -0.0326475 0.0311705 -0.0414124 -0.0693415)
(0.0426295 0.000607608 -0.0197662 0.0366916 -0.0316136 -0.0793211)
(0.0448255 0.00267417 -0.010517 0.0401671 -0.0252603 -0.0849926)
(0.0454139 0.0031049 -0.00352728 0.0421648 -0.0223457 -0.0875787)
(0.0451675 0.00305202 0.00265794 0.0425235 -0.0225428 -0.0876911)
(0.0440726 0.00311897 0.00971784 0.0412492 -0.025824 -0.0853218)
(0.041134 0.00432406 0.0190229 0.0387613 -0.0324701 -0.0798953)
(0.0352663 0.006753 0.0316791 0.0351036 -0.0424937 -0.0703699)
(0.0232766 0.00893268 0.0515298 0.0323135 -0.0522072 -0.05559)
(0.0286387 -0.00091711 -0.0431225 0.0408527 -0.0308858 -0.0694914)
(0.0398866 0.000679223 -0.0226085 0.0425881 -0.020656 -0.0824747)
(0.0426558 0.00139175 -0.0118439 0.0457964 -0.0143404 -0.0884522)
(0.0435513 0.00222436 -0.00549061 0.0477511 -0.0105892 -0.0913024)
(0.0434008 0.00231139 -0.00143481 0.0488732 -0.00887495 -0.092274)
(0.0430545 0.00201099 0.00182565 0.0490743 -0.00896616 -0.0921289)
(0.042467 0.0019251 0.00586832 0.0484205 -0.0108658 -0.0908875)
(0.0405764 0.00258974 0.0121446 0.0472698 -0.0148023 -0.0878461)
(0.036258 0.00343155 0.0225793 0.0455431 -0.0212251 -0.0818011)
(0.025595 0.00439946 0.0426181 0.0441587 -0.031276 -0.0697537)
(0.0336624 0.00291122 -0.0331529 0.045493 -0.018061 -0.0791554)
(0.0427934 0.00228308 -0.0162257 0.0453051 -0.00993637 -0.0880985)
(0.0446052 0.00182341 -0.00760906 0.0471694 -0.00564908 -0.0917746)
(0.0444385 0.00182865 -0.0028857 0.0485752 -0.00331297 -0.0930137)
(0.0436468 0.00157541 -0.000332005 0.0493747 -0.00228947 -0.0930216)
(0.0432907 0.00117081 0.00144103 0.0494518 -0.00233344 -0.0927424)
(0.043366 0.000989481 0.00392793 0.048874 -0.00343808 -0.09224)
(0.0427322 0.00125049 0.0085019 0.0478956 -0.00583639 -0.0906278)
(0.0398217 0.00135323 0.0168105 0.0467714 -0.0101297 -0.0865932)
(0.0311338 0.000941346 0.0333996 0.0468848 -0.0181597 -0.0780186)
(0.0367603 0.00517899 -0.026488 0.0475878 -0.0088985 -0.0843481)
(0.044326 0.00353552 -0.0122329 0.0461325 -0.00369983 -0.0904586)
(0.0458747 0.0023167 -0.00518107 0.0466799 -0.00098217 -0.0925546)
(0.0452711 0.00164361 -0.00150328 0.047374 0.000417774 -0.0926451)
(0.044199 0.00104711 0.000225807 0.0478153 0.000994496 -0.0920143)
(0.0439259 0.000505694 0.00124272 0.0477722 0.000966314 -0.0916982)
(0.0444624 0.000164317 0.00290141 0.0472887 0.000350881 -0.0917511)
(0.0445243 -1.11518e-05 0.00643468 0.0466632 -0.00103925 -0.0911875)
(0.0420892 -0.000562051 0.0132128 0.0464819 -0.00368843 -0.0885711)
(0.0345583 -0.00182992 0.0271707 0.0478742 -0.00881839 -0.0824325)
(0.0383909 0.00564218 -0.0231924 0.0480716 -0.00195522 -0.0864625)
(0.0449395 0.00377347 -0.0102129 0.0460673 0.00027288 -0.0910068)
(0.0463677 0.00226962 -0.00399314 0.0458222 0.00150772 -0.09219)
(0.0456531 0.00125922 -0.000878297 0.0460046 0.00213955 -0.0916577)
(0.0445596 0.000505182 0.000450977 0.0461646 0.00238471 -0.0907242)
(0.0444176 -5.6122e-05 0.00113598 0.0460091 0.00235635 -0.0904266)
(0.0452351 -0.000431946 0.00242489 0.0455692 0.00208199 -0.0908043)
(0.0456251 -0.000775475 0.00544521 0.045219 0.00149062 -0.0908441)
(0.0433778 -0.00149395 0.0114414 0.0456943 0.000371174 -0.0890721)
(0.0364016 -0.00274011 0.0241378 0.0478865 -0.00174575 -0.0842881)
(0.0384563 0.00557568 -0.0229911 0.0476295 0.00419434 -0.0860859)
(0.0446845 0.00350571 -0.00999166 0.0457891 0.00351082 -0.0904736)
(0.0461627 0.00184829 -0.00384857 0.0454359 0.00327086 -0.0915987)
(0.0455438 0.000674158 -0.000829335 0.0454895 0.00316273 -0.0910333)
(0.044596 -0.000121812 0.000429725 0.0455152 0.00309734 -0.0901112)
(0.0446187 -0.000626266 0.00107589 0.0452399 0.00305319 -0.0898586)
(0.0455751 -0.000928653 0.00234262 0.0447246 0.00306577 -0.0902997)
(0.0460783 -0.00125426 0.00534728 0.0443349 0.00321312 -0.0904132)
(0.0438581 -0.00192504 0.0113432 0.0448644 0.00360291 -0.0887225)
(0.036726 -0.00308201 0.0240975 0.0472578 0.00447974 -0.0839838)
(0.0370738 0.00574834 -0.0258899 0.0461147 0.0111483 -0.0831885)
(0.0437886 0.00335795 -0.0115985 0.045038 0.00751529 -0.0888266)
(0.0454611 0.00143692 -0.00478562 0.0452564 0.00572949 -0.0907174)
(0.0451457 2.1124e-05 -0.00138381 0.0455501 0.00477617 -0.0906958)
(0.0444857 -0.000839126 0.000148397 0.0455982 0.00432007 -0.0900838)
(0.0446788 -0.00127416 0.00105701 0.0452195 0.00423923 -0.0898983)
(0.0456706 -0.0015411 0.00265944 0.0444632 0.00458006 -0.0901338)
(0.0460861 -0.00192471 0.00615375 0.043679 0.00553357 -0.0897652)
(0.0437177 -0.00254902 0.0129315 0.043634 0.00748718 -0.0873517)
(0.0356413 -0.00362194 0.0270433 0.0456761 0.0114277 -0.0813174)
(0.0343565 0.00716043 -0.0321816 0.0428227 0.0202325 -0.0771792)
(0.0424058 0.00374295 -0.0152967 0.0429491 0.0136527 -0.0853549)
(0.0444941 0.00119587 -0.00707922 0.0441999 0.0101485 -0.0886939)
(0.0447469 -0.000650374 -0.00277156 0.0449546 0.00810395 -0.0897015)
(0.0445603 -0.00161612 -0.000496859 0.0451452 0.00708896 -0.0897056)
(0.044915 -0.00205713 0.00113408 0.0446818 0.006963 -0.0895968)
(0.0457214 -0.00245499 0.00354413 0.0436147 0.0077657 -0.0893361)
(0.0458196 -0.00314558 0.00806689 0.0422013 0.00973088 -0.0880209)
(0.0432201 -0.00405587 0.016406 0.0410259 0.013387 -0.084246)
(0.0334631 -0.00561378 0.0332487 0.0422348 0.0203802 -0.075698)
(0.0299874 0.00872578 -0.0419235 0.0370574 0.0326884 -0.0670447)
(0.0404105 0.00384555 -0.0216283 0.0385271 0.0238953 -0.0789376)
(0.0436203 0.000609571 -0.0113778 0.0407413 0.0181619 -0.0843616)
(0.0449634 -0.00157082 -0.00547979 0.0418697 0.0145123 -0.0868331)
(0.0454307 -0.00250214 -0.00169292 0.0422743 0.0126734 -0.087705)
(0.0458423 -0.00291184 0.00143448 0.0418066 0.012512 -0.0876489)
(0.0461575 -0.0034494 0.00539086 0.040499 0.0140598 -0.0866564)
(0.0454131 -0.00466245 0.0116073 0.0385389 0.0175329 -0.083952)
(0.0420867 -0.00617013 0.0221316 0.0360486 0.0233417 -0.0781353)
(0.0301388 -0.00900483 0.0426029 0.0358895 0.0326039 -0.0660283)
(0.0280076 0.0106724 -0.0518955 0.0234676 0.0525253 -0.0514752)
(0.0405816 0.00475509 -0.0319259 0.0255849 0.0438519 -0.0661665)
(0.0453407 0.000102598 -0.0195506 0.0298934 0.0345087 -0.0752341)
(0.0475657 -0.00249199 -0.010659 0.0327891 0.0281809 -0.0803548)
(0.048352 -0.00326011 -0.0038135 0.0343724 0.0250603 -0.0827244)
(0.0484858 -0.00361588 0.00232134 0.0343347 0.0248974 -0.0828205)
(0.0479614 -0.00428703 0.00930518 0.03266 0.0277142 -0.0806213)
(0.0460178 -0.00638604 0.0184817 0.0294938 0.0337653 -0.0755116)
(0.0413435 -0.00910792 0.0311744 0.0248657 0.0430151 -0.0662092)
(0.0283621 -0.0116147 0.0515244 0.0234266 0.0521715 -0.0517887)
(-0.00800136 -0.000227098 -0.060436 -0.00718651 -0.0588823 0.0151879)
(-0.00817035 -0.00544439 -0.046103 -0.0052878 -0.0498557 0.0134581)
(-0.00441681 -0.00446131 -0.035086 -0.00368524 -0.0376196 0.00810206)
(0.000200491 -0.000605833 -0.0231735 -0.00181208 -0.0278207 0.00161159)
(0.00315355 0.00407497 -0.0116905 0.000543726 -0.0219072 -0.00369728)
(0.00389088 0.0085623 -0.000503196 0.00280909 -0.0203738 -0.00669997)
(0.00204254 0.0119168 0.0109777 0.00466339 -0.0233166 -0.00670593)
(-0.00249341 0.0133371 0.0226827 0.00666548 -0.0302745 -0.00417207)
(-0.00668171 0.0126739 0.0328507 0.00899573 -0.040085 -0.00231401)
(-0.00518532 0.0035371 0.0465304 0.00848792 -0.0484484 -0.00330261)
(-0.00532347 -0.00394878 -0.0500416 -0.00654926 -0.0426714 0.0118727)
(-0.00413821 -0.00752879 -0.0338896 -0.00440246 -0.0309915 0.00854067)
(0.00112631 -0.00618769 -0.0238768 -0.000953272 -0.0209776 -0.000173037)
(0.0065825 -0.00224002 -0.0145364 0.00265146 -0.0127528 -0.00923396)
(0.00955245 0.00254826 -0.0068273 0.0057468 -0.00754868 -0.0152992)
(0.00972939 0.00714692 -0.000425512 0.00749199 -0.00654272 -0.0172214)
(0.00700399 0.0110922 0.00674017 0.00800901 -0.00980942 -0.015013)
(0.000959943 0.013879 0.0155939 0.00812514 -0.0162815 -0.00908508)
(-0.00549155 0.014441 0.0244793 0.00836309 -0.0244621 -0.00287153)
(-0.00574646 0.0087765 0.0393531 0.00747475 -0.0341254 -0.0017283)
(-0.00499807 -0.0017046 -0.0368287 -0.00120321 -0.0296639 0.00620128)
(-0.00159457 -0.00477318 -0.023306 0.00216452 -0.019046 -0.000569959)
(0.00581014 -0.00415848 -0.0147094 0.00683615 -0.0103703 -0.0126463)
(0.01153 -0.0015418 -0.00719922 0.0111255 -0.00340394 -0.0226555)
(0.0140029 0.00165886 -0.00307076 0.013888 0.000429901 -0.0278908)
(0.0139274 0.0048224 -0.000901829 0.0149243 0.000776915 -0.0288517)
(0.0112313 0.00782827 0.00261693 0.0144705 -0.00217952 -0.0257018)
(0.00512867 0.0103322 0.00931938 0.0130508 -0.0079664 -0.0181795)
(-0.00279169 0.0110702 0.0171043 0.011034 -0.0153778 -0.00824229)
(-0.00500142 0.0069421 0.0299423 0.0083274 -0.0242449 -0.00332598)
(-0.00481763 0.00146506 -0.0268175 0.00440372 -0.0160389 0.000413904)
(0.000141249 -0.000638568 -0.0147555 0.00881592 -0.00837756 -0.00895716)
(0.00903051 -0.000946014 -0.00724355 0.0130503 -0.00199734 -0.0220808)
(0.0148372 -4.57859e-05 -0.00208555 0.0165215 0.00237025 -0.0313587)
(0.0173422 0.00131101 -0.000917572 0.0187187 0.00443934 -0.0360609)
(0.0172947 0.00281274 -0.00164371 0.0192636 0.00439551 -0.0365584)
(0.0146438 0.00436956 -0.000734722 0.0182792 0.00239549 -0.032923)
(0.00860697 0.00571206 0.00394612 0.0164115 -0.00152596 -0.0250185)
(-0.000564552 0.00588338 0.0107954 0.0141575 -0.00707433 -0.0135929)
(-0.00456089 0.00288779 0.0226227 0.0103536 -0.013612 -0.00579271)
(-0.00447671 0.00504281 -0.021101 0.00729198 -0.00344594 -0.00281527)
(0.000990034 0.00356762 -0.00946963 0.0122586 -0.000199266 -0.0132486)
(0.0103964 0.00213953 -0.00313631 0.0157453 0.00211608 -0.0261417)
(0.0164703 0.00137147 0.000357439 0.0186508 0.00345978 -0.0351211)
(0.0192129 0.00103843 -5.67323e-05 0.0204332 0.00394905 -0.0396461)
(0.0193082 0.000997653 -0.00218894 0.0206206 0.00374347 -0.0399288)
(0.0167071 0.00111088 -0.00259017 0.0193254 0.00292338 -0.0360325)
(0.0106241 0.00109195 0.000884443 0.0172465 0.00145112 -0.0278706)
(0.000879804 0.00036475 0.00697142 0.0151975 -0.000705453 -0.0160773)
(-0.00415409 -0.00151836 0.0185723 0.0111129 -0.00343802 -0.00695877)
(-0.00428818 0.00845096 -0.0201307 0.00669596 0.00793903 -0.00240778)
(0.000568482 0.00732338 -0.00875087 0.0120335 0.00606325 -0.012602)
(0.0100925 0.00475761 -0.0028365 0.015407 0.00405078 -0.0254995)
(0.0164338 0.00247489 0.000417318 0.0179893 0.00246036 -0.034423)
(0.0194304 0.000656735 -0.000134915 0.0194415 0.00155735 -0.0388718)
(0.0197233 -0.000808544 -0.00234227 0.0193713 0.00132034 -0.0390945)
(0.0172342 -0.00201919 -0.00276935 0.0179066 0.00174028 -0.0351408)
(0.0111868 -0.00325801 0.000717284 0.0157239 0.0028608 -0.0269108)
(0.00134374 -0.00486029 0.00680608 0.0135909 0.00455645 -0.0149346)
(-0.00381384 -0.00575703 0.0183724 0.00955183 0.00635395 -0.00573799)
(-0.00422426 0.0113055 -0.0240132 0.00265194 0.0189232 0.00157231)
(-0.000812051 0.0104075 -0.012523 0.00802563 0.0128841 -0.00721358)
(0.00845575 0.00691528 -0.00618185 0.011685 0.00740435 -0.0201408)
(0.0150976 0.00323521 -0.00178106 0.014181 0.00310036 -0.0292786)
(0.0183482 3.22191e-05 -0.00105989 0.0153942 0.000818857 -0.0337424)
(0.018862 -0.0026939 -0.00202671 0.0151643 0.000578292 -0.0340263)
(0.0165667 -0.0051248 -0.00119002 0.0136183 0.00230354 -0.030185)
(0.0106196 -0.00747791 0.00352886 0.0113209 0.00595352 -0.0219405)
(0.00109207 -0.00953589 0.0103661 0.00884048 0.0109311 -0.00993255)
(-0.00343258 -0.00928495 0.0221798 0.00539011 0.0164892 -0.00195753)
(-0.00391917 0.0129067 -0.032142 -0.00423567 0.0298907 0.00815484)
(-0.00230613 0.0123213 -0.019602 0.000267799 0.0209872 0.00203834)
(0.00598427 0.00818424 -0.0125755 0.00364559 0.0136467 -0.00962986)
(0.0130482 0.00347556 -0.0063083 0.00620635 0.00739205 -0.0192546)
(0.0166853 -0.000892064 -0.00294938 0.00740658 0.0037697 -0.0240918)
(0.0174047 -0.00475098 -0.0012133 0.00716955 0.00348721 -0.0245743)
(0.0151861 -0.00829537 0.00217861 0.00563469 0.00643665 -0.0208208)
(0.00926437 -0.0113861 0.00890635 0.00324702 0.012013 -0.0125114)
(0.00090678 -0.0134015 0.016652 0.000914952 0.0187822 -0.00182173)
(-0.00247816 -0.0118509 0.029629 -0.00102842 0.0269725 0.00350658)
(-0.00335262 0.0116634 -0.0432435 -0.0108237 0.0393112 0.0141763)
(-0.00321494 0.0119301 -0.0285838 -0.00834083 0.0289479 0.0115558)
(0.0037217 0.00764177 -0.0203871 -0.00683975 0.0202171 0.00311804)
(0.0107648 0.00268047 -0.0124237 -0.00558111 0.0131341 -0.0051837)
(0.0149822 -0.00221368 -0.00573433 -0.00461391 0.0088381 -0.0103683)
(0.0158126 -0.00678967 4.26413e-08 -0.00454181 0.00847974 -0.0112708)
(0.0133393 -0.0108648 0.00683803 -0.00537757 0.0120867 -0.0079617)
(0.00760059 -0.0141301 0.0155185 -0.00648394 0.0185526 -0.00111665)
(0.00112808 -0.0158976 0.024458 -0.00727562 0.026593 0.00614754)
(-0.000750783 -0.0129029 0.0396909 -0.00723263 0.0362169 0.00798342)
(-0.00419709 0.00270272 -0.0526092 -0.0119376 0.0520529 0.0161347)
(-0.00354519 0.00649565 -0.0392685 -0.0115687 0.0428321 0.0151139)
(0.00215016 0.00359604 -0.0298044 -0.0117236 0.0316917 0.00957347)
(0.00781094 3.2673e-05 -0.0191542 -0.0112919 0.023308 0.00348093)
(0.0112753 -0.00374309 -0.00870817 -0.0104779 0.018777 -0.000797394)
(0.0118804 -0.00749245 0.00159874 -0.00971905 0.0185296 -0.00216138)
(0.00951009 -0.0107357 0.0124299 -0.00909114 0.0225363 -0.000418953)
(0.00478613 -0.0129947 0.0237824 -0.00846836 0.0302743 0.00368223)
(0.000281072 -0.0131262 0.0340125 -0.00762553 0.0407023 0.00734446)
(-0.000275989 -0.00511512 0.048277 -0.00683103 0.0495523 0.00710702)
(-0.0138471 0.00752449 -0.0458647 -0.00984983 -0.0456884 0.023697)
(-0.0222211 0.00173844 -0.0499835 -0.0108349 -0.04563 0.033056)
(-0.024483 0.000886537 -0.0505678 -0.01161 -0.0448275 0.036093)
(-0.0245331 0.00288943 -0.0407099 -0.0118461 -0.0428286 0.0363792)
(-0.0239384 0.00554626 -0.0255803 -0.0107948 -0.0399411 0.0347331)
(-0.0230354 0.00840631 -0.00859524 -0.00867094 -0.0363472 0.0317063)
(-0.0219714 0.0104002 0.00793721 -0.00549481 -0.0319174 0.0274662)
(-0.0212375 0.0101568 0.0197221 -0.00111169 -0.0267284 0.0223492)
(-0.0189371 0.00729131 0.0206933 0.00410948 -0.0218704 0.0148276)
(-0.00921236 -0.00364909 0.0188665 0.00656331 -0.0212047 0.00264905)
(-0.0128963 0.00202001 -0.0428486 -0.0188682 -0.0463409 0.0317645)
(-0.0211491 -0.0035007 -0.0485202 -0.0195738 -0.0462117 0.0407229)
(-0.0222824 -0.00434605 -0.0487471 -0.0189882 -0.0462495 0.0412706)
(-0.0210949 -0.00195465 -0.0375062 -0.0179128 -0.0447936 0.0390077)
(-0.0197612 0.00177179 -0.0209855 -0.0163658 -0.0427154 0.036127)
(-0.0188718 0.00585379 -0.00276019 -0.0145949 -0.0401559 0.0334667)
(-0.0188085 0.00926076 0.0146801 -0.0124799 -0.036723 0.0312884)
(-0.019975 0.0109673 0.0265791 -0.00954288 -0.0323246 0.0295179)
(-0.0198501 0.00968834 0.0259017 -0.0059405 -0.0268036 0.0257906)
(-0.0130715 0.00264444 0.0199368 -0.00229778 -0.02261 0.0153693)
(-0.0148865 0.000355738 -0.0399439 -0.0219365 -0.0405668 0.0368229)
(-0.0207272 -0.00470056 -0.0472714 -0.0217267 -0.040962 0.0424539)
(-0.0197031 -0.0057321 -0.0470921 -0.0197801 -0.0409107 0.0394832)
(-0.0170719 -0.00389011 -0.0351144 -0.0173029 -0.0400506 0.0343749)
(-0.0148853 -0.00055563 -0.017938 -0.0150963 -0.0391029 0.0299816)
(-0.0139402 0.00333448 0.00112994 -0.0135731 -0.0376806 0.0275133)
(-0.0147126 0.00670642 0.0192998 -0.0126002 -0.0352218 0.0273128)
(-0.0171085 0.00855814 0.0317504 -0.0115921 -0.0320897 0.0287006)
(-0.0186344 0.00784905 0.0313879 -0.010186 -0.0279673 0.0288204)
(-0.0138224 0.00218109 0.0239931 -0.00761286 -0.0233216 0.0214352)
(-0.0175136 0.000187436 -0.0383325 -0.02224 -0.023897 0.0397536)
(-0.0212821 -0.00366854 -0.0459126 -0.0206708 -0.0247348 0.0419529)
(-0.0181486 -0.00493758 -0.0457537 -0.0177577 -0.0248871 0.0359064)
(-0.0138889 -0.00404381 -0.0339158 -0.0145269 -0.0247762 0.0284159)
(-0.0106592 -0.00180434 -0.0165727 -0.0120578 -0.0247876 0.022717)
(-0.00944245 0.00110578 0.00346923 -0.0109479 -0.0242417 0.0203904)
(-0.0108149 0.00367069 0.0222941 -0.0110911 -0.0225688 0.021906)
(-0.0143752 0.00493511 0.0348512 -0.0117743 -0.0204542 0.0261495)
(-0.0177332 0.00409575 0.0348089 -0.0119933 -0.0178648 0.0297265)
(-0.0145637 -0.000235458 0.0275472 -0.010991 -0.0143871 0.0255548)
(-0.0197849 0.00127105 -0.0376399 -0.022474 -0.00279472 0.0422589)
(-0.0222227 -0.00150384 -0.0450895 -0.0196718 -0.00429469 0.0418945)
(-0.0176364 -0.00297238 -0.0450789 -0.015995 -0.0049692 0.0336314)
(-0.0121614 -0.00313333 -0.0334841 -0.0122648 -0.00518112 0.0244262)
(-0.00812496 -0.00236175 -0.0161264 -0.00967691 -0.00527182 0.0178019)
(-0.00663264 -0.000976388 0.00477846 -0.00894922 -0.00513045 0.0155819)
(-0.00829128 0.000303423 0.0239902 -0.00986308 -0.00454405 0.0181544)
(-0.0126274 0.000725788 0.0365087 -0.0117508 -0.00377324 0.0243782)
(-0.0171029 -0.000161258 0.0365771 -0.0131429 -0.00255909 0.0302458)
(-0.0148364 -0.00273888 0.0295712 -0.0133297 -0.000566335 0.0281661)
(-0.0211807 0.00298808 -0.0376895 -0.0232281 0.0181707 0.0444087)
(-0.0232347 0.0011658 -0.0448085 -0.0198223 0.0161412 0.0430569)
(-0.0180909 -0.000524479 -0.0446045 -0.0159417 0.0149669 0.0340326)
(-0.012084 -0.00173336 -0.0328564 -0.0121899 0.0147186 0.0242739)
(-0.00758268 -0.0025356 -0.015501 -0.00969517 0.0151138 0.0172778)
(-0.00584375 -0.00301014 0.00500498 -0.00921839 0.0152053 0.0150621)
(-0.00754043 -0.00325732 0.0239579 -0.0106112 0.0144394 0.0181516)
(-0.0119244 -0.00365729 0.0365686 -0.0129955 0.0137982 0.0249199)
(-0.016466 -0.00446087 0.0368788 -0.0148061 0.0137951 0.0312721)
(-0.01434 -0.00536355 0.0300868 -0.01536 0.0143321 0.0297)
(-0.0215544 0.0047689 -0.0384868 -0.025128 0.0362653 0.0466824)
(-0.0239975 0.00364995 -0.0451967 -0.0219282 0.0342209 0.0459257)
(-0.0191674 0.0016498 -0.0445951 -0.0185301 0.0327336 0.0376976)
(-0.0133416 -0.00056528 -0.0323627 -0.0154069 0.031993 0.0287485)
(-0.00886881 -0.0028147 -0.0149731 -0.0134098 0.0319963 0.0222786)
(-0.0069545 -0.00489173 0.00451238 -0.0130925 0.0317477 0.020047)
(-0.00819025 -0.00652948 0.0228698 -0.0143942 0.0306643 0.0225844)
(-0.0118057 -0.00767563 0.0356508 -0.0163573 0.0295539 0.0281631)
(-0.0154313 -0.00827479 0.036179 -0.0177192 0.0286522 0.0331505)
(-0.0128452 -0.00750335 0.02951 -0.0176247 0.0278727 0.0304699)
(-0.0209832 0.00577215 -0.0399157 -0.0280584 0.0482322 0.0490415)
(-0.0242495 0.00514936 -0.0460253 -0.0258477 0.0463394 0.0500972)
(-0.020286 0.0028304 -0.0452856 -0.023471 0.0449295 0.043757)
(-0.0151256 -0.000155649 -0.0327398 -0.021365 0.0436004 0.0364906)
(-0.0109921 -0.00339728 -0.0152726 -0.0200307 0.0428636 0.0310227)
(-0.00890398 -0.00658185 0.00363762 -0.0197349 0.0421859 0.0286388)
(-0.00926627 -0.00921858 0.0215635 -0.0203592 0.0410581 0.0296254)
(-0.0115053 -0.0108832 0.0342828 -0.0212916 0.0397823 0.0327969)
(-0.0134284 -0.0112439 0.0346792 -0.0217032 0.0380599 0.0351316)
(-0.00994003 -0.00887203 0.0283168 -0.0201778 0.0365114 0.0301178)
(-0.0198603 0.00466589 -0.0416934 -0.0298499 0.0486993 0.0497101)
(-0.0238597 0.00450834 -0.046305 -0.0291197 0.0459061 0.0529794)
(-0.0208549 0.00229323 -0.0458569 -0.0282256 0.0443843 0.0490805)
(-0.0164658 -0.000789406 -0.0337411 -0.0273626 0.0426856 0.0438284)
(-0.0127562 -0.00421159 -0.0164994 -0.02662 0.0413698 0.0393762)
(-0.0104465 -0.00770426 0.00213345 -0.0261262 0.0402874 0.0365727)
(-0.00976868 -0.0106818 0.0196934 -0.0257262 0.0390049 0.0354949)
(-0.0104531 -0.0125508 0.0318993 -0.0252307 0.0374438 0.0356838)
(-0.0103722 -0.0124555 0.0319795 -0.0243638 0.0353557 0.0347359)
(-0.00570669 -0.00872622 0.0272179 -0.0215037 0.0348444 0.0272104)
(-0.0197332 -0.00100702 -0.044443 -0.0252187 0.0445255 0.0449519)
(-0.0225381 0.00091572 -0.0474922 -0.026374 0.0391708 0.0489121)
(-0.0198394 -0.000469642 -0.0464901 -0.0270582 0.035565 0.0468976)
(-0.0164177 -0.00257387 -0.0348639 -0.0269749 0.033274 0.0433927)
(-0.0134299 -0.00496925 -0.0182841 -0.02622 0.031713 0.0396499)
(-0.0111917 -0.00756849 -0.000124395 -0.0249553 0.030501 0.036147)
(-0.00972665 -0.00972033 0.0170723 -0.0230529 0.0292299 0.0327795)
(-0.00890213 -0.0106438 0.0291943 -0.0207446 0.0280316 0.0296468)
(-0.00726757 -0.00915048 0.0305732 -0.0182875 0.0278811 0.0255551)
(-0.00174368 -0.000855573 0.0292095 -0.0149176 0.0313 0.0166613)
(-0.00154703 0.0195361 0.0227454 0.00985012 0.0224393 -0.00830308)
(-0.0177172 0.0100462 -0.00127352 0.00512876 0.0255438 0.0125885)
(-0.0244973 0.00555642 -0.02639 0.00145154 0.0160227 0.0230458)
(-0.0279997 0.00365411 -0.0343305 -0.000838809 0.00862262 0.0288385)
(-0.0287112 0.00176693 -0.0323827 -0.00124813 0.00714377 0.0299594)
(-0.0269132 -4.10169e-05 -0.0263194 5.86847e-05 0.0120466 0.0268545)
(-0.0227168 -0.00231832 -0.0199144 0.00305738 0.022864 0.0196594)
(-0.0166182 -0.0051988 -0.0185214 0.00742612 0.0367141 0.00919208)
(-0.0072558 -0.00872059 -0.0321701 0.0117128 0.0492217 -0.00445702)
(0.0100598 -0.0183231 -0.0489718 0.0123555 0.0497893 -0.0224153)
(-0.000259683 0.0102888 0.0273528 -0.0113239 0.00264723 0.0115836)
(-0.0180822 0.00321261 -0.00928248 -0.0165896 -0.00650312 0.0346718)
(-0.0244007 -0.000319491 -0.0357456 -0.0180555 -0.018383 0.0424562)
(-0.0273419 -0.000952255 -0.0391165 -0.0189498 -0.0254337 0.0462917)
(-0.0276924 -0.000703669 -0.0302719 -0.0189422 -0.02721 0.0466346)
(-0.0261528 -0.00018545 -0.0168824 -0.0178794 -0.0234797 0.0440323)
(-0.0233508 8.49985e-05 -0.00450256 -0.0155146 -0.0135969 0.0388654)
(-0.0192971 -0.000487781 -0.00179511 -0.0117599 0.0019103 0.031057)
(-0.0108633 -0.00281704 -0.021856 -0.00681917 0.0194374 0.0176825)
(0.00617928 -0.00938563 -0.0506671 -0.00301708 0.0315114 -0.0031622)
(-0.00454518 0.00510717 0.0203416 -0.0226956 -0.0100763 0.0272408)
(-0.0193589 -0.000588356 -0.0196792 -0.0264203 -0.0237205 0.0457792)
(-0.0244564 -0.00330932 -0.0435601 -0.0269731 -0.0344971 0.0514296)
(-0.026504 -0.00361634 -0.0425908 -0.0265841 -0.0408438 0.0530881)
(-0.0261076 -0.0027359 -0.028317 -0.0258331 -0.0433892 0.0519407)
(-0.0240735 -0.00124486 -0.00867995 -0.0246596 -0.0413646 0.0487331)
(-0.0213534 0.000124843 0.00907707 -0.0226963 -0.0334056 0.0440496)
(-0.0181437 0.000375667 0.0143832 -0.0202569 -0.0207299 0.0384006)
(-0.0123812 -0.00176618 -0.00670628 -0.0177764 -0.00429917 0.0301576)
(0.00324402 -0.00663981 -0.0407707 -0.0127763 0.0131267 0.00953231)
(-0.00944505 -0.000214462 0.0111273 -0.0292411 -0.00301294 0.0386861)
(-0.0222653 -0.00340424 -0.0283601 -0.0311402 -0.016588 0.0534055)
(-0.0258061 -0.00514276 -0.0497343 -0.0308455 -0.0259168 0.0566516)
(-0.0263434 -0.00528968 -0.046143 -0.0297531 -0.0317766 0.0560966)
(-0.0248232 -0.00432947 -0.0283224 -0.0287059 -0.0350525 0.053529)
(-0.022212 -0.00251659 -0.00336268 -0.0277047 -0.0344142 0.0499168)
(-0.0195412 -0.00081953 0.0191781 -0.0263072 -0.0282347 0.0458484)
(-0.0170793 -0.000471121 0.026466 -0.0248732 -0.0180469 0.0419526)
(-0.0129952 -0.00214166 0.00665969 -0.0236468 -0.00501567 0.036642)
(0.000728812 -0.005253 -0.0296479 -0.0194151 0.0103487 0.0186863)
(-0.0141008 -0.00380688 0.00315672 -0.0333836 0.012587 0.0474844)
(-0.0255813 -0.00502268 -0.0347723 -0.0336257 0.00217608 0.059207)
(-0.0277434 -0.00578449 -0.054374 -0.0323052 -0.00488233 0.0600486)
(-0.0269729 -0.00577015 -0.0492763 -0.0305097 -0.00917245 0.0574826)
(-0.0245703 -0.00509116 -0.0291228 -0.029204 -0.0115465 0.0537743)
(-0.0215831 -0.00371477 -6.40881e-05 -0.0283976 -0.0113358 0.0499807)
(-0.0187967 -0.00242626 0.0259557 -0.0273709 -0.00779581 0.0461676)
(-0.0168281 -0.0021613 0.0343498 -0.026742 -0.00195987 0.0435701)
(-0.0135261 -0.00296931 0.0151401 -0.0263168 0.00570148 0.039843)
(-0.000721497 -0.00373243 -0.021642 -0.0233059 0.0144902 0.0240274)
(-0.0179178 -0.00591835 -0.00164448 -0.0353581 0.0283176 0.0532759)
(-0.028521 -0.0053551 -0.0379679 -0.0345829 0.023107 0.063104)
(-0.0297896 -0.00531865 -0.0562653 -0.0326247 0.019547 0.0624143)
(-0.0280492 -0.00518987 -0.0500156 -0.0303967 0.0181536 0.058446)
(-0.0248894 -0.00498662 -0.0288088 -0.0288303 0.0183646 0.0537197)
(-0.02148 -0.00480063 0.00123137 -0.0280256 0.0188487 0.0495056)
(-0.0186476 -0.0045708 0.0277557 -0.0273963 0.0184675 0.0460439)
(-0.0168213 -0.00428101 0.0363717 -0.0273525 0.0180472 0.0441738)
(-0.0135304 -0.0040011 0.0173158 -0.0272609 0.0188181 0.0407914)
(-0.000978199 -0.00240986 -0.0193139 -0.0248157 0.0195228 0.0257939)
(-0.0209964 -0.00705774 -0.00258456 -0.0358757 0.0397316 0.056872)
(-0.0310791 -0.00496187 -0.0377317 -0.0348541 0.0398055 0.0659333)
(-0.0318054 -0.00439212 -0.0551759 -0.0330212 0.0399572 0.0648266)
(-0.0294309 -0.00433332 -0.0481413 -0.0310356 0.0407846 0.0604666)
(-0.0257559 -0.00478039 -0.0273517 -0.0295568 0.0421625 0.0553127)
(-0.0219126 -0.00570744 0.000279447 -0.0287355 0.0420153 0.0506481)
(-0.0189606 -0.00641219 0.0243625 -0.0282858 0.0384083 0.0472464)
(-0.0166936 -0.00618158 0.032277 -0.0280825 0.0330441 0.0447762)
(-0.0127067 -0.00483261 0.0131125 -0.0275956 0.0276827 0.0403023)
(-4.24405e-05 -0.000813324 -0.0233499 -0.0244158 0.0211342 0.0244582)
(-0.023435 -0.00781787 -3.57159e-05 -0.0352358 0.0406788 0.0586708)
(-0.0333966 -0.00469719 -0.0341496 -0.0347012 0.0439408 0.0680978)
(-0.0339167 -0.00381225 -0.0520697 -0.0336687 0.0470585 0.0675854)
(-0.0312763 -0.00391929 -0.0457405 -0.0325414 0.048796 0.0638177)
(-0.0274504 -0.00481605 -0.0267756 -0.0315759 0.0494702 0.0590263)
(-0.0233629 -0.00625474 -0.0031441 -0.0308002 0.0477465 0.0541631)
(-0.0197763 -0.00739538 0.0172182 -0.029861 0.0418431 0.0496373)
(-0.0164192 -0.00722214 0.0236584 -0.0286709 0.0334277 0.0450901)
(-0.0110393 -0.00499192 0.00334481 -0.0271902 0.0236827 0.0382295)
(0.00227741 0.00105939 -0.0323937 -0.0221537 0.0132178 0.0198762)
(-0.025646 -0.00920558 0.00365098 -0.0332494 0.0232912 0.0588954)
(-0.0356716 -0.00548242 -0.0273499 -0.0331946 0.0240494 0.0688662)
(-0.0360486 -0.00408027 -0.0466428 -0.0332038 0.0281054 0.0692524)
(-0.0333399 -0.00393379 -0.0433151 -0.033033 0.0301343 0.0663729)
(-0.0295744 -0.00467663 -0.0284055 -0.0325074 0.0296649 0.0620818)
(-0.0253265 -0.00590463 -0.00982745 -0.0315526 0.0259499 0.0568791)
(-0.0208946 -0.00682266 0.00615278 -0.029774 0.0179882 0.0506686)
(-0.0161347 -0.00635419 0.0101157 -0.0272058 0.00671389 0.0433405)
(-0.00862517 -0.00342387 -0.0112729 -0.0238948 -0.00552362 0.0325199)
(0.00543508 0.0036718 -0.0413229 -0.0170689 -0.0111244 0.0116338)
(-0.0296631 -0.0147323 -0.00170765 -0.0204311 0.0014104 0.0500942)
(-0.0399435 -0.00849534 -0.0234965 -0.0190813 -0.00878555 0.0590248)
(-0.0398755 -0.00531513 -0.0402294 -0.0207986 -0.00909818 0.0606741)
(-0.0370619 -0.00380994 -0.0398283 -0.021722 -0.00821579 0.0587839)
(-0.0331304 -0.00340092 -0.0306159 -0.0213538 -0.00959947 0.0544842)
(-0.0283689 -0.00338567 -0.0188798 -0.019583 -0.014532 0.0479519)
(-0.0227927 -0.00309111 -0.00882842 -0.0160927 -0.0231905 0.0388854)
(-0.016265 -0.00141583 -0.0059937 -0.0110917 -0.033399 0.0273567)
(-0.00724113 0.00266912 -0.0200106 -0.00559988 -0.0398421 0.012841)
(0.0069312 0.0129189 -0.0366681 -0.00154635 -0.0320171 -0.00538485)
(-0.00581859 0.0230039 0.0851551 0.0195557 0.0805956 -0.0137371)
(-0.0137645 0.0109969 0.0510085 0.0160121 0.0900949 -0.00224766)
(-0.0150992 0.00490024 0.00990971 0.012359 0.0815196 0.00274017)
(-0.0165756 0.00121971 -0.0134999 0.00948516 0.0718772 0.00709046)
(-0.0166937 -0.00298063 -0.0258021 0.00774796 0.0668421 0.00894569)
(-0.0143645 -0.00664328 -0.0322985 0.00674704 0.0688459 0.0076175)
(-0.00928615 -0.00971917 -0.0368047 0.00638555 0.0785027 0.00290061)
(-0.00240229 -0.0117446 -0.0474166 0.00705698 0.0947248 -0.00465469)
(0.00564647 -0.0129449 -0.0761704 0.00855993 0.113198 -0.0142064)
(0.0214432 -0.0215835 -0.105724 0.00867828 0.113282 -0.0301214)
(-0.00256352 0.0143927 0.0930825 0.00108068 0.0499115 0.00148284)
(-0.0139617 0.00446558 0.0410732 -0.00443286 0.040978 0.0183945)
(-0.0185117 -0.000161098 -0.00814645 -0.00846131 0.0266068 0.026973)
(-0.0210711 -0.00264361 -0.0294365 -0.0101833 0.0132632 0.0312544)
(-0.0217131 -0.00465902 -0.0342121 -0.0108187 0.00671761 0.0325318)
(-0.0196478 -0.00602321 -0.0312337 -0.0110082 0.00836979 0.030656)
(-0.0146674 -0.00623416 -0.0258937 -0.0106687 0.019012 0.025336)
(-0.00762711 -0.00509215 -0.0286313 -0.00920678 0.036818 0.0168339)
(0.000582543 -0.00425154 -0.0589786 -0.00686214 0.0589136 0.0062796)
(0.0179833 -0.00855375 -0.108148 -0.00598225 0.08034 -0.0120011)
(-0.0042832 0.0111335 0.082745 -0.0115037 0.0243129 0.0157869)
(-0.0165479 0.00305826 0.0258116 -0.0185862 0.0061486 0.0351341)
(-0.0200509 -0.00145263 -0.0247177 -0.0216256 -0.0124387 0.0416765)
(-0.0225974 -0.00373756 -0.0399903 -0.0212312 -0.025158 0.0438286)
(-0.0233358 -0.00497693 -0.0370329 -0.0206196 -0.0318915 0.0439554)
(-0.0213216 -0.00536225 -0.0252299 -0.0200565 -0.0314774 0.0413781)
(-0.0168072 -0.0046592 -0.0118629 -0.019739 -0.0218191 0.0365462)
(-0.0105405 -0.00303882 -0.0102 -0.0197229 -0.00324281 0.0302634)
(-0.00226401 -0.00132105 -0.0404412 -0.0172296 0.0204302 0.0194937)
(0.0136365 -0.00240876 -0.0924328 -0.0147381 0.0455419 0.00110158)
(-0.00755468 0.00692933 0.0679586 -0.0195657 0.0234583 0.0271204)
(-0.0200448 0.00147197 0.00803608 -0.0271873 0.00421343 0.0472321)
(-0.0224545 -0.00250478 -0.038603 -0.0291404 -0.0141102 0.0515949)
(-0.024595 -0.00447585 -0.0496195 -0.0283961 -0.0266485 0.0529911)