/*--------------------------------*- C++ -*----------------------------------*\
| =========                 |                                                 |
| \\      /  F ield         | OpenFOAM: The Open Source CFD Toolbox           |
|  \\    /   O peration     | Version:  2406                                  |
|   \\  /    A nd           | Website:  www.openfoam.com                      |
|    \\/     M anipulation  |                                                 |
\*---------------------------------------------------------------------------*/
FoamFile
{
    version     2.0;
    format      ascii;
    arch        "LSB;label=32;scalar=64";
    class       volScalarField;
    location    "0.4";
    object      turbulenceProperties:nut;
}
// * * * * * * * * * * * * * * * * * * * * * * * * * * * * * * * * * * * * * //

dimensions      [0 2 -1 0 0 0 0];

internalField   uniform 0;

boundaryField
{
    walls
    {
        type            nutUSpaldingWallFunction;
        value           nonuniform List<scalar> 
2000
(
2.94767e-09
4.18195e-09
5.4727e-09
6.52789e-09
7.12174e-09
7.12438e-09
6.53586e-09
5.48466e-09
4.19417e-09
2.95739e-09
1.42376e-09
1.84407e-09
2.27598e-09
2.62384e-09
2.81624e-09
2.81252e-09
2.61226e-09
2.25571e-09
1.81623e-09
1.39301e-09
5.96342e-10
6.05418e-10
5.93238e-10
5.72256e-10
5.51322e-10
5.34738e-10
5.23531e-10
5.14784e-10
5.07175e-10
4.93606e-10
7.50256e-10
6.99553e-10
6.09639e-10
5.16343e-10
4.48182e-10
4.14934e-10
4.20096e-10
4.57357e-10
5.18139e-10
5.68606e-10
6.82419e-10
5.40577e-10
3.7875e-10
2.48209e-10
1.7462e-10
1.50028e-10
1.69514e-10
2.31972e-10
3.42141e-10
4.43623e-10
7.89008e-10
6.03929e-10
4.08266e-10
2.73826e-10
2.0975e-10
1.91919e-10
2.03623e-10
2.44103e-10
3.3267e-10
3.9752e-10
7.21363e-10
5.07347e-10
3.0325e-10
1.89587e-10
1.50735e-10
1.39377e-10
1.2388e-10
1.19226e-10
1.74534e-10
2.43128e-10
4.41261e-10
2.19709e-10
5.73509e-11
3.63698e-11
9.75019e-11
1.2698e-10
8.81724e-11
1.94681e-11
3.37779e-11
1.48441e-10
1.56407e-10
2.13005e-11
4.2122e-11
1.9215e-10
3.34063e-10
3.72978e-10
3.26583e-10
2.15193e-10
7.40378e-11
9.14765e-12
6.76858e-11
4.27341e-12
1.45741e-10
3.99851e-10
6.97799e-10
9.59986e-10
1.01742e-09
8.67042e-10
5.80152e-10
2.72652e-10
6.52953e-11
2.28614e-11
2.75663e-10
7.2019e-10
1.31518e-09
1.74324e-09
1.85303e-09
1.61697e-09
1.13681e-09
6.29926e-10
8.18385e-11
3.87527e-11
4.09031e-10
1.09489e-09
1.86952e-09
2.37897e-09
2.44764e-09
2.03965e-09
1.3632e-09
7.29738e-10
1.2649e-10
2.95018e-11
4.10948e-10
1.06162e-09
1.87785e-09
2.33633e-09
2.27195e-09
1.79799e-09
1.11542e-09
5.30546e-10
1.68865e-10
5.9758e-11
2.65737e-10
7.56382e-10
1.26874e-09
1.5555e-09
1.49166e-09
1.10937e-09
6.12174e-10
2.26348e-10
6.05913e-11
1.32929e-10
3.35787e-10
6.5443e-10
9.57095e-10
1.10783e-09
1.03347e-09
7.52672e-10
4.18089e-10
1.54128e-10
2.71187e-10
5.5844e-10
8.42065e-10
1.06881e-09
1.1475e-09
1.03435e-09
7.65812e-10
4.33718e-10
2.27873e-10
2.22161e-10
6.81984e-10
1.21722e-09
1.7515e-09
2.05008e-09
1.94958e-09
1.51604e-09
9.07129e-10
3.40012e-10
9.41624e-11
1.30029e-11
7.40934e-10
1.41469e-09
2.12318e-09
2.63586e-09
2.76185e-09
2.45307e-09
1.85553e-09
1.22743e-09
6.99881e-10
3.06724e-10
8.49079e-10
1.50809e-09
2.10778e-09
2.5803e-09
2.73834e-09
2.5592e-09
2.12236e-09
1.55793e-09
1.01249e-09
5.21798e-10
8.02224e-10
1.37928e-09
1.86729e-09
2.2309e-09
2.31476e-09
2.12766e-09
1.75001e-09
1.27358e-09
8.21963e-10
3.96866e-10
6.60628e-10
1.16848e-09
1.64459e-09
1.96482e-09
2.00911e-09
1.80022e-09
1.44328e-09
1.02309e-09
6.34407e-10
2.77357e-10
6.39439e-10
1.2479e-09
1.92927e-09
2.45934e-09
2.64053e-09
2.42501e-09
1.91851e-09
1.27534e-09
6.85023e-10
2.42833e-10
2.54337e-10
7.64659e-10
1.46074e-09
2.07626e-09
2.37289e-09
2.18504e-09
1.60516e-09
8.9015e-10
3.78729e-10
7.88816e-11
4.49038e-11
3.37491e-10
7.87196e-10
1.46865e-09
1.8259e-09
1.70522e-09
1.20462e-09
6.50831e-10
2.29685e-10
1.08669e-10
6.75674e-11
2.30371e-10
7.97295e-10
1.61529e-09
2.20332e-09
2.19427e-09
1.5923e-09
8.11734e-10
2.80628e-10
1.15668e-11
1.13758e-09
4.37139e-10
1.63128e-10
2.86787e-10
4.60701e-10
4.84049e-10
4.0442e-10
3.55228e-10
5.20342e-10
5.81865e-10
3.46191e-09
3.07724e-09
2.72038e-09
2.40409e-09
2.15802e-09
2.00775e-09
1.92074e-09
1.72633e-09
1.51637e-09
1.02908e-09
4.79463e-09
5.12348e-09
5.13162e-09
4.87582e-09
4.28704e-09
3.45621e-09
2.51131e-09
1.57021e-09
9.64443e-10
4.69621e-10
4.0815e-09
5.09139e-09
5.3834e-09
4.82194e-09
3.58916e-09
2.13144e-09
9.95572e-10
5.34391e-10
7.42053e-10
7.04826e-10
9.02409e-10
1.5849e-09
2.1914e-09
2.33355e-09
1.91902e-09
1.20497e-09
5.2731e-10
1.23496e-10
1.48975e-11
1.00774e-10
2.94649e-10
5.57358e-10
8.66435e-10
1.17654e-09
1.39208e-09
1.48673e-09
1.43336e-09
1.12678e-09
8.19248e-10
4.03412e-10
1.68226e-09
2.89082e-09
3.3279e-09
3.84077e-09
3.76377e-09
3.33037e-09
2.73776e-09
1.91481e-09
1.37951e-09
6.29187e-10
1.48989e-09
2.37784e-09
2.63029e-09
3.00048e-09
3.06823e-09
2.88464e-09
2.46472e-09
1.754e-09
1.09979e-09
3.7998e-10
1.01102e-09
2.14117e-09
3.03917e-09
3.80596e-09
3.84187e-09
3.31062e-09
2.30633e-09
1.25865e-09
5.23332e-10
3.52075e-10
3.60309e-09
5.56429e-09
5.60415e-09
5.41321e-09
4.47246e-09
3.51919e-09
2.62384e-09
1.86466e-09
1.4552e-09
9.85631e-10
2.37268e-09
2.93261e-09
2.17714e-09
1.71363e-09
1.23271e-09
8.43398e-10
6.97003e-10
8.72036e-10
1.22559e-09
9.18311e-10
4.65695e-09
5.06485e-09
3.22662e-09
1.03093e-09
9.31465e-10
4.5987e-09
9.14789e-09
9.91444e-09
5.46445e-09
1.58099e-09
3.79532e-09
5.13416e-09
5.3384e-09
4.58538e-09
2.58487e-09
6.23553e-10
1.10943e-09
3.25115e-09
4.5254e-09
3.84622e-09
1.55512e-09
3.09095e-09
4.94473e-09
7.47882e-09
9.03936e-09
9.02108e-09
7.67812e-09
5.81251e-09
4.33398e-09
3.32515e-09
8.73619e-09
1.26528e-08
1.33439e-08
1.33978e-08
1.2619e-08
1.32398e-08
1.39926e-08
1.30713e-08
1.00815e-08
5.36402e-09
2.48734e-08
3.23804e-08
3.70677e-08
4.84453e-08
6.3762e-08
7.96391e-08
8.77332e-08
8.28971e-08
6.55391e-08
3.49991e-08
7.6686e-08
1.00582e-07
1.26632e-07
1.56416e-07
1.75205e-07
1.71666e-07
1.45477e-07
1.08715e-07
7.1994e-08
2.76558e-08
1.48863e-07
2.01846e-07
2.59784e-07
3.11935e-07
3.35812e-07
3.19089e-07
2.68908e-07
2.03418e-07
1.41181e-07
9.97535e-08
1.35855e-07
1.84909e-07
2.39989e-07
2.8778e-07
3.06568e-07
2.85194e-07
2.33147e-07
1.69221e-07
1.09052e-07
6.53885e-08
6.52582e-08
9.22074e-08
1.31139e-07
1.69773e-07
1.88545e-07
1.74056e-07
1.31292e-07
8.04516e-08
3.96232e-08
1.78193e-08
1.11651e-07
1.69629e-07
2.51788e-07
3.47547e-07
4.28863e-07
4.64701e-07
4.40323e-07
3.65027e-07
2.68292e-07
1.82814e-07
4.81277e-07
7.30865e-07
1.03185e-06
1.32732e-06
1.54634e-06
1.6231e-06
1.52827e-06
1.28053e-06
9.5884e-07
6.43293e-07
7.01168e-07
1.10589e-06
1.54687e-06
1.88552e-06
2.02827e-06
1.95486e-06
1.70604e-06
1.34898e-06
9.70896e-07
6.42155e-07
5.04867e-07
7.69511e-07
1.0459e-06
1.2612e-06
1.36276e-06
1.33302e-06
1.18185e-06
9.4457e-07
6.79611e-07
4.46935e-07
4.59175e-07
6.48818e-07
8.58714e-07
1.05328e-06
1.20896e-06
1.28694e-06
1.25224e-06
1.10079e-06
8.67537e-07
6.02876e-07
2.96748e-09
4.21864e-09
5.52246e-09
6.58181e-09
7.1705e-09
7.16108e-09
6.55743e-09
5.49327e-09
4.19243e-09
2.95166e-09
1.30151e-09
1.72263e-09
2.18241e-09
2.57378e-09
2.80955e-09
2.83951e-09
2.65845e-09
2.308e-09
1.86294e-09
1.42886e-09
3.73752e-10
3.78967e-10
3.96918e-10
4.32225e-10
4.77001e-10
5.25286e-10
5.67994e-10
5.96616e-10
6.07641e-10
5.92224e-10
4.34588e-10
3.82124e-10
3.32834e-10
3.13817e-10
3.2798e-10
3.78508e-10
4.61242e-10
5.6461e-10
6.68784e-10
7.29727e-10
3.41757e-10
2.22119e-10
1.21375e-10
6.81229e-11
5.52926e-11
8.26423e-11
1.64125e-10
3.09702e-10
5.02726e-10
6.6439e-10
2.29928e-10
1.40222e-10
6.57894e-11
2.89472e-11
3.1131e-11
7.34346e-11
1.82516e-10
3.73156e-10
6.20587e-10
8.07252e-10
1.25451e-11
9.28863e-12
8.77627e-12
1.48019e-11
3.14708e-11
7.95177e-11
1.96406e-10
3.8991e-10
6.25554e-10
7.92333e-10
1.36726e-10
1.68985e-10
1.61562e-10
1.35033e-10
9.62006e-11
7.36399e-11
1.13581e-10
2.29625e-10
3.87587e-10
5.227e-10
4.3475e-10
6.56087e-10
7.41087e-10
6.45391e-10
4.36542e-10
2.56324e-10
9.15521e-11
2.47528e-12
5.79486e-11
1.79333e-10
5.46941e-10
9.95629e-10
1.33536e-09
1.41993e-09
1.24272e-09
8.6207e-10
4.52875e-10
1.76615e-10
1.59082e-11
5.97608e-11
5.03099e-10
1.02984e-09
1.53826e-09
1.79743e-09
1.71007e-09
1.31096e-09
7.57855e-10
3.01423e-10
4.07509e-11
6.14678e-11
4.98379e-10
1.03545e-09
1.58481e-09
1.90305e-09
1.84332e-09
1.40955e-09
7.80946e-10
2.88154e-10
2.00905e-11
9.77109e-11
4.45754e-10
9.89173e-10
1.59068e-09
1.98676e-09
1.96456e-09
1.49986e-09
8.48958e-10
3.13715e-10
2.60923e-11
1.34255e-10
4.43103e-10
1.05422e-09
1.78483e-09
2.32125e-09
2.38684e-09
1.92185e-09
1.15927e-09
5.00246e-10
5.63539e-11
9.68813e-11
5.31069e-10
1.20697e-09
2.01526e-09
2.66629e-09
2.85635e-09
2.47262e-09
1.67735e-09
9.32525e-10
2.90938e-10
1.45991e-11
4.80314e-10
1.08602e-09
1.83935e-09
2.58262e-09
3.0007e-09
2.88395e-09
2.30389e-09
1.59866e-09
9.19982e-10
3.62694e-10
2.70112e-10
8.65454e-10
1.70274e-09
2.57905e-09
3.22564e-09
3.39145e-09
3.01949e-09
2.27892e-09
1.44369e-09
7.29575e-10
6.15149e-11
4.09429e-10
1.15233e-09
2.13272e-09
2.97682e-09
3.34935e-09
3.11851e-09
2.40166e-09
1.52726e-09
7.50566e-10
7.93684e-11
1.88506e-10
7.03439e-10
1.54686e-09
2.41197e-09
2.94627e-09
2.95843e-09
2.44834e-09
1.70204e-09
8.94975e-10
9.18334e-11
3.54253e-10
8.92411e-10
1.58455e-09
2.23556e-09
2.62945e-09
2.62573e-09
2.21264e-09
1.57714e-09
8.75922e-10
4.7631e-10
9.46718e-10
1.50456e-09
2.08957e-09
2.55808e-09
2.74391e-09
2.53913e-09
2.00928e-09
1.33483e-09
7.24238e-10
7.83674e-10
1.56944e-09
2.48374e-09
3.31439e-09
3.80996e-09
3.80165e-09
3.28155e-09
2.41905e-09
1.48269e-09
7.12602e-10
5.3674e-10
1.25949e-09
2.11799e-09
2.8408e-09
3.22505e-09
3.11374e-09
2.54586e-09
1.70184e-09
8.8201e-10
3.0035e-10
1.23247e-09
2.15208e-09
2.85081e-09
3.1946e-09
3.04138e-09
2.44816e-09
1.57543e-09
6.59661e-10
2.90396e-10
3.38765e-11
2.32777e-09
3.6706e-09
4.26617e-09
4.49926e-09
4.05701e-09
3.12918e-09
1.93857e-09
8.34778e-10
1.80483e-10
1.1565e-10
2.88139e-10
4.47949e-10
4.87926e-10
5.31004e-10
4.33242e-10
2.05697e-10
3.40981e-11
4.10355e-10
1.07857e-09
1.47701e-09
4.05064e-10
6.43082e-10
7.23787e-10
8.48463e-10
1.11435e-09
1.73192e-09
2.70551e-09
3.71845e-09
4.37955e-09
4.12481e-09
6.37947e-10
1.00539e-09
1.10947e-09
1.10635e-09
1.11453e-09
1.63825e-09
2.77483e-09
4.03111e-09
4.90752e-09
4.96408e-09
3.45131e-10
6.41978e-10
8.91837e-10
9.91502e-10
8.48682e-10
6.84368e-10
9.4617e-10
1.68214e-09
2.5782e-09
3.30484e-09
2.70946e-10
3.51518e-10
5.33288e-10
6.8263e-10
7.38694e-10
6.38956e-10
4.67659e-10
3.12136e-10
3.31549e-10
5.33699e-10
2.7349e-09
2.70294e-09
2.12913e-09
1.67376e-09
1.2076e-09
8.53263e-10
5.84594e-10
3.73019e-10
2.69043e-10
2.05157e-10
3.2674e-09
5.16926e-09
6.1619e-09
7.13895e-09
7.23146e-09
6.61575e-09
5.60799e-09
4.16232e-09
3.03427e-09
1.5604e-09
4.97583e-10
1.30813e-09
2.2878e-09
3.67923e-09
4.79589e-09
5.3435e-09
5.17646e-09
4.2385e-09
3.13709e-09
1.73524e-09
1.1973e-10
2.01445e-10
8.39278e-10
1.32803e-09
1.29974e-09
1.00035e-09
9.05809e-10
9.68013e-10
1.15916e-09
9.71974e-10
2.2108e-10
7.83409e-10
1.97635e-09
3.54149e-09
5.75125e-09
8.06162e-09
9.20996e-09
8.5405e-09
7.47287e-09
4.37182e-09
1.30018e-09
3.55211e-09
6.5624e-09
1.06605e-08
1.39625e-08
1.53671e-08
1.44077e-08
1.1423e-08
8.59626e-09
4.00844e-09
1.12294e-09
2.72768e-09
5.30576e-09
8.91547e-09
1.25253e-08
1.51033e-08
1.5596e-08
1.37556e-08
1.12497e-08
6.77635e-09
1.01074e-09
8.08264e-10
1.85152e-09
3.34405e-09
4.66192e-09
5.66412e-09
6.23779e-09
6.03369e-09
5.67777e-09
4.21147e-09
4.92308e-09
3.82635e-09
2.37924e-09
1.67704e-09
1.42232e-09
1.49758e-09
1.79441e-09
1.93764e-09
2.0839e-09
1.39702e-09
1.20364e-08
1.68088e-08
1.9142e-08
1.9912e-08
1.99725e-08
1.94289e-08
1.84996e-08
1.64241e-08
1.40489e-08
9.11748e-09
2.84414e-08
4.45708e-08
5.84603e-08
6.42672e-08
6.25865e-08
6.05972e-08
5.79266e-08
5.19368e-08
4.32719e-08
3.04779e-08
1.1734e-07
1.81492e-07
2.50225e-07
2.92812e-07
2.92794e-07
2.66707e-07
2.31051e-07
1.87851e-07
1.39401e-07
9.26437e-08
1.68869e-07
2.72174e-07
3.86944e-07
4.80171e-07
5.13846e-07
4.89481e-07
4.33752e-07
3.54741e-07
2.60574e-07
1.71509e-07
4.44917e-08
1.24784e-07
2.3705e-07
3.31869e-07
3.77217e-07
3.78246e-07
3.54909e-07
3.02048e-07
2.26445e-07
1.53124e-07
1.79189e-08
1.19569e-08
5.61173e-08
1.76567e-07
2.58981e-07
2.52887e-07
2.06715e-07
1.55374e-07
1.0918e-07
7.45361e-08
2.40988e-07
1.46509e-07
1.04589e-07
2.28424e-07
3.81733e-07
4.18022e-07
3.69455e-07
2.86204e-07
2.02182e-07
1.30978e-07
3.76205e-07
2.20566e-07
4.23769e-07
8.02186e-07
1.1248e-06
1.21426e-06
1.11736e-06
9.22198e-07
6.94485e-07
4.86281e-07
2.86326e-07
4.9458e-07
9.21512e-07
1.35162e-06
1.62047e-06
1.64145e-06
1.46974e-06
1.19884e-06
9.14816e-07
6.48905e-07
2.95518e-07
6.46592e-07
9.78853e-07
1.1973e-06
1.24779e-06
1.11544e-06
8.45909e-07
6.37629e-07
5.47232e-07
4.38604e-07
5.02447e-07
7.481e-07
8.28169e-07
8.88251e-07
9.82646e-07
1.01999e-06
8.97492e-07
7.28459e-07
5.86927e-07
4.44243e-07
2.95959e-09
4.19277e-09
5.48083e-09
6.53064e-09
7.12021e-09
7.12124e-09
6.53329e-09
5.48379e-09
4.19511e-09
2.96185e-09
1.36109e-09
1.78448e-09
2.23388e-09
2.60262e-09
2.81187e-09
2.81419e-09
2.60515e-09
2.22742e-09
1.76011e-09
1.31913e-09
3.76182e-10
3.88293e-10
4.09302e-10
4.36741e-10
4.62046e-10
4.79265e-10
4.81756e-10
4.66575e-10
4.35798e-10
3.97617e-10
2.80098e-10
2.48444e-10
2.31505e-10
2.39032e-10
2.65816e-10
3.08528e-10
3.58915e-10
4.07005e-10
4.45925e-10
4.5864e-10
7.29413e-11
5.35447e-11
5.54501e-11
6.82966e-11
6.9183e-11
7.16116e-11
1.01397e-10
1.69682e-10
2.69823e-10
3.55974e-10
3.23415e-12
1.86133e-11
6.46905e-11
1.04523e-10
1.0919e-10
7.45534e-11
2.19833e-11
6.10867e-12
7.72551e-11
1.93112e-10
3.23562e-11
1.33334e-10
3.20892e-10
5.55508e-10
7.31379e-10
7.7837e-10
6.66286e-10
4.37749e-10
1.80526e-10
2.0413e-11
5.99981e-11
2.24925e-10
5.74802e-10
1.0423e-09
1.44298e-09
1.62451e-09
1.5122e-09
1.1529e-09
6.84332e-10
2.64152e-10
1.85524e-11
2.23253e-10
6.86996e-10
1.2748e-09
1.78976e-09
2.05323e-09
1.97116e-09
1.56758e-09
1.02466e-09
5.17256e-10
7.2303e-12
1.49119e-10
5.43932e-10
1.11883e-09
1.62012e-09
1.88115e-09
1.83476e-09
1.49907e-09
1.01008e-09
5.2956e-10
4.45569e-11
5.35524e-11
3.30517e-10
7.39319e-10
1.22008e-09
1.51134e-09
1.53038e-09
1.28731e-09
8.84325e-10
4.63521e-10
6.93465e-11
2.64406e-11
2.72334e-10
6.43605e-10
1.13058e-09
1.47853e-09
1.54261e-09
1.32444e-09
9.19935e-10
4.79784e-10
2.95155e-11
8.92369e-11
4.3908e-10
9.04664e-10
1.49596e-09
1.87819e-09
1.89314e-09
1.5522e-09
9.9389e-10
4.61539e-10
4.67202e-11
3.10914e-10
8.418e-10
1.49974e-09
2.11037e-09
2.38304e-09
2.20135e-09
1.65353e-09
9.75638e-10
4.32346e-10
1.22434e-10
5.39643e-10
1.20408e-09
1.9403e-09
2.4749e-09
2.6041e-09
2.28353e-09
1.66944e-09
1.01311e-09
4.81452e-10
1.81962e-10
6.72788e-10
1.39571e-09
2.13797e-09
2.61386e-09
2.66301e-09
2.28711e-09
1.64469e-09
9.74273e-10
4.33609e-10
1.92095e-10
6.9967e-10
1.40658e-09
2.07932e-09
2.46126e-09
2.42606e-09
2.00267e-09
1.35416e-09
7.03929e-10
2.27184e-10
1.45225e-10
6.01779e-10
1.20347e-09
1.73766e-09
1.98869e-09
1.85675e-09
1.39745e-09
7.76785e-10
2.25806e-10
3.14846e-11
1.96807e-10
5.10824e-10
8.67652e-10
1.13747e-09
1.19393e-09
1.00812e-09
6.60934e-10
3.07123e-10
4.61927e-11
7.67638e-11
1.98828e-10
4.3811e-10
6.67616e-10
8.54071e-10
9.16572e-10
8.43831e-10
6.57907e-10
4.26716e-10
2.15842e-10
7.00212e-11
1.27476e-10
3.53045e-10
6.00917e-10
8.31075e-10
9.83385e-10
1.0403e-09
1.00113e-09
8.74169e-10
6.86376e-10
4.29531e-10
1.58476e-11
2.24595e-10
5.66342e-10
1.01375e-09
1.43748e-09
1.71201e-09
1.77025e-09
1.56784e-09
1.17685e-09
6.86854e-10
4.18902e-10
1.47183e-10
1.4878e-10
4.14204e-10
6.71913e-10
8.04571e-10
8.19924e-10
7.84184e-10
6.21157e-10
3.48277e-10
1.39116e-09
1.23109e-09
9.59541e-10
9.31377e-10
1.09477e-09
1.31999e-09
1.48208e-09
1.45515e-09
1.33704e-09
9.33187e-10
1.23663e-09
1.13231e-09
1.14238e-09
1.46171e-09
2.0911e-09
2.84366e-09
3.47049e-09
3.55374e-09
3.2298e-09
2.16881e-09
2.19283e-10
3.94688e-10
6.77592e-10
1.08617e-09
1.54938e-09
1.88716e-09
1.92582e-09
1.58783e-09
1.04713e-09
4.65719e-10
1.77151e-09
2.34421e-09
2.67324e-09
2.96529e-09
2.99139e-09
2.77609e-09
2.32439e-09
1.70025e-09
1.06989e-09
4.87313e-10
3.38556e-09
4.78953e-09
5.86602e-09
6.47107e-09
6.24843e-09
5.28005e-09
3.90708e-09
2.53022e-09
1.52405e-09
7.25415e-10
4.28451e-09
6.28471e-09
7.68922e-09
8.14625e-09
7.56273e-09
5.93595e-09
3.88486e-09
2.00719e-09
8.75367e-10
3.37265e-10
4.38355e-09
8.38065e-09
1.23353e-08
1.51607e-08
1.57034e-08
1.38249e-08
1.02319e-08
6.10853e-09
2.75597e-09
7.99073e-10
8.77846e-10
2.89154e-09
5.91687e-09
1.01261e-08
1.42473e-08
1.67726e-08
1.6419e-08
1.30274e-08
8.44532e-09
4.01389e-09
9.97687e-10
8.58371e-10
8.77464e-10
1.84772e-09
3.71487e-09
6.05177e-09
7.84118e-09
7.8305e-09
6.43349e-09
3.57359e-09
2.13875e-09
2.65542e-09
2.51368e-09
2.05574e-09
1.55201e-09
1.3604e-09
1.41637e-09
1.33953e-09
1.12393e-09
5.81179e-10
2.85732e-09
4.41883e-09
4.95972e-09
4.22459e-09
2.41943e-09
8.95009e-10
3.47987e-10
5.63278e-10
7.22229e-10
4.69197e-10
2.46426e-09
3.95659e-09
5.39756e-09
5.85131e-09
5.1915e-09
4.55206e-09
4.70301e-09
4.75805e-09
3.83141e-09
1.8104e-09
1.59597e-09
3.41816e-09
6.06606e-09
8.46131e-09
9.96951e-09
1.03964e-08
1.00481e-08
8.55711e-09
5.75345e-09
2.42895e-09
8.46107e-10
1.41097e-09
3.3297e-09
6.46691e-09
9.53616e-09
1.12413e-08
1.06376e-08
8.15588e-09
4.86137e-09
2.2376e-09
5.54726e-10
7.52974e-10
7.12906e-10
3.22506e-10
7.48142e-10
2.24485e-09
3.73346e-09
4.08579e-09
3.16447e-09
2.05723e-09
5.44219e-09
7.21008e-09
5.03469e-09
3.557e-09
2.08118e-09
1.65983e-09
3.31448e-09
5.40579e-09
6.27266e-09
5.58982e-09
9.36684e-09
1.91632e-08
2.57216e-08
2.96917e-08
2.79536e-08
2.02119e-08
1.08473e-08
6.50705e-09
7.51347e-09
9.24941e-09
4.93357e-09
1.15698e-08
2.18643e-08
3.5816e-08
5.37959e-08
6.64002e-08
6.59924e-08
5.3517e-08
3.84935e-08
2.56728e-08
8.5556e-09
2.03543e-08
4.51651e-08
1.02375e-07
1.87037e-07
2.58221e-07
2.79063e-07
2.41494e-07
1.75292e-07
1.1272e-07
1.68225e-07
1.54338e-07
1.10148e-07
4.69985e-08
2.50843e-09
3.82788e-08
1.32581e-07
2.00623e-07
1.9222e-07
1.47395e-07
6.97975e-07
7.33558e-07
7.4676e-07
7.2525e-07
6.11929e-07
4.13437e-07
2.00988e-07
5.3894e-08
5.00842e-09
1.44611e-08
7.02803e-07
4.78692e-07
3.85845e-07
4.28562e-07
5.56625e-07
6.5796e-07
6.10096e-07
4.3607e-07
2.4017e-07
6.70155e-08
2.88422e-07
1.40054e-08
9.62884e-08
1.34107e-07
4.77618e-08
1.43191e-07
3.09063e-07
4.8977e-07
5.7728e-07
3.76359e-07
1.77585e-07
7.6553e-09
6.01282e-07
1.11648e-06
1.23097e-06
1.02017e-06
9.16928e-07
9.02049e-07
9.38337e-07
6.95996e-07
7.55792e-07
6.20779e-07
1.46654e-07
1.05174e-06
1.44776e-06
1.60844e-06
1.55285e-06
1.49785e-06
1.21989e-06
6.04331e-07
1.51811e-06
2.31302e-06
8.69919e-07
2.45816e-07
1.0918e-06
1.49311e-06
1.6198e-06
1.57047e-06
9.71005e-07
3.9003e-07
1.48996e-06
3.4456e-06
2.86039e-06
4.89032e-07
2.0303e-07
1.07578e-06
1.52759e-06
1.45329e-06
8.36223e-07
4.539e-07
2.9568e-09
4.19291e-09
5.48758e-09
6.54658e-09
7.14441e-09
7.14858e-09
6.55817e-09
5.50211e-09
4.20581e-09
2.96351e-09
1.39576e-09
1.82351e-09
2.26777e-09
2.62389e-09
2.81877e-09
2.81061e-09
2.6012e-09
2.23461e-09
1.78767e-09
1.3631e-09
5.03827e-10
5.32204e-10
5.49025e-10
5.51564e-10
5.41812e-10
5.22157e-10
4.94855e-10
4.61946e-10
4.25903e-10
3.92782e-10
5.89209e-10
5.63045e-10
5.06295e-10
4.36514e-10
3.72719e-10
3.25492e-10
2.98871e-10
2.90966e-10
2.9311e-10
3.0026e-10
4.28427e-10
3.02676e-10
1.6727e-10
6.62785e-11
1.59348e-11
9.56614e-12
1.50909e-11
1.7644e-11
3.31253e-11
6.45005e-11
3.13247e-10
1.50559e-10
5.95895e-11
1.22032e-10
2.40936e-10
3.29683e-10
3.19898e-10
2.09643e-10
7.50337e-11
4.05949e-12
1.62646e-10
9.40261e-11
2.20931e-10
4.79099e-10
7.01073e-10
7.62336e-10
6.27833e-10
3.72099e-10
1.42091e-10
2.88389e-11
1.13155e-10
1.47149e-11
1.65682e-10
4.48137e-10
6.93945e-10
7.45433e-10
5.951e-10
3.4472e-10
1.54665e-10
6.4621e-11
1.71358e-11
5.34362e-11
1.90892e-10
3.60219e-10
4.66306e-10
4.61522e-10
3.74848e-10
2.05817e-10
5.95534e-11
1.38558e-11
2.34435e-10
4.48565e-10
6.26524e-10
7.14894e-10
6.80479e-10
5.45915e-10
3.54198e-10
1.54432e-10
1.95356e-11
2.61359e-11
6.06288e-10
1.04712e-09
1.38147e-09
1.47562e-09
1.28598e-09
8.62493e-10
4.70292e-10
1.64323e-10
5.13067e-12
6.98346e-11
7.3495e-10
1.37673e-09
2.00764e-09
2.31306e-09
2.12451e-09
1.56062e-09
8.30943e-10
3.07268e-10
2.75091e-11
7.21807e-11
5.91886e-10
1.34139e-09
2.15844e-09
2.65604e-09
2.59426e-09
2.02935e-09
1.21228e-09
5.16275e-10
9.91817e-11
3.47102e-11
3.03464e-10
9.94193e-10
1.88669e-09
2.49376e-09
2.54744e-09
2.0802e-09
1.36965e-09
6.94066e-10
2.33616e-10
5.19406e-11
1.04304e-10
4.25998e-10
1.08824e-09
1.66195e-09
1.98294e-09
1.79881e-09
1.30058e-09
7.33813e-10
3.16398e-10
9.2661e-11
2.33315e-10
1.58437e-10
3.90804e-10
8.96211e-10
1.29377e-09
1.33041e-09
1.05831e-09
6.59426e-10
3.29316e-10
1.18792e-10
3.08694e-11
1.30008e-10
4.08192e-10
8.09556e-10
1.12869e-09
1.19531e-09
9.97534e-10
6.58775e-10
3.32547e-10
1.14849e-10
3.14795e-10
7.00574e-10
1.10128e-09
1.41015e-09
1.52032e-09
1.39262e-09
1.08431e-09
7.01246e-10
3.43042e-10
1.07875e-10
5.36771e-10
1.03963e-09
1.54096e-09
1.88069e-09
1.94874e-09
1.76602e-09
1.39839e-09
9.48999e-10
5.19497e-10
1.95239e-10
3.91479e-10
8.24627e-10
1.2679e-09
1.59955e-09
1.69805e-09
1.56435e-09
1.25683e-09
8.61205e-10
4.90075e-10
2.00655e-10
2.58469e-10
5.73639e-10
8.70448e-10
1.06917e-09
1.05989e-09
8.95197e-10
6.49828e-10
4.17793e-10
2.52121e-10
9.79274e-11
2.14213e-10
5.46023e-10
9.13681e-10
1.20941e-09
1.26293e-09
1.10589e-09
8.20603e-10
4.93182e-10
1.95642e-10
2.26446e-11
8.30287e-11
2.66327e-10
5.27376e-10
7.63637e-10
8.26593e-10
7.0697e-10
4.76652e-10
2.65015e-10
2.35816e-10
4.30803e-10
1.9884e-10
2.00705e-10
3.20085e-10
5.28349e-10
6.27717e-10
5.63841e-10
3.95976e-10
2.90987e-10
5.20627e-10
1.00579e-09
2.73274e-11
1.81403e-10
4.63251e-10
7.08804e-10
7.76438e-10
6.50885e-10
4.26946e-10
3.33343e-10
5.241e-10
9.54622e-10
5.61058e-10
6.37032e-10
7.55849e-10
1.02111e-09
1.18383e-09
1.23948e-09
1.14518e-09
9.32361e-10
6.44581e-10
3.31876e-10
5.68956e-10
4.41463e-10
4.63279e-10
8.53418e-10
1.33452e-09
1.87658e-09
2.37525e-09
2.65318e-09
2.65582e-09
2.02703e-09
3.81546e-10
9.08711e-10
1.58286e-09
2.57372e-09
3.47807e-09
4.1632e-09
4.49554e-09
4.42967e-09
4.14954e-09
3.24775e-09
9.96138e-10
1.82836e-09
2.26313e-09
2.47878e-09
2.26119e-09
2.03106e-09
2.18827e-09
2.70438e-09
3.11335e-09
3.12767e-09
6.17635e-10
1.57742e-09
2.11812e-09
2.12594e-09
1.72414e-09
1.20236e-09
9.4219e-10
1.49706e-09
2.1098e-09
2.47106e-09
3.83069e-10
6.2798e-10
9.46972e-10
1.37938e-09
1.52188e-09
1.2686e-09
8.28102e-10
5.30822e-10
3.94234e-10
3.01442e-10
7.88541e-10
1.52136e-09
1.55406e-09
1.52404e-09
1.17431e-09
7.98294e-10
4.17946e-10
1.68354e-10
4.20793e-10
8.50456e-10
5.08869e-10
1.18719e-09
1.63864e-09
1.99013e-09
1.83808e-09
1.37723e-09
8.91549e-10
5.78337e-10
7.37442e-10
1.29225e-09
5.00003e-10
5.22443e-10
7.50149e-10
1.02195e-09
1.21025e-09
1.22994e-09
1.12121e-09
7.98234e-10
8.29558e-10
1.33125e-09
9.58234e-10
1.22765e-09
7.80571e-10
3.59557e-10
1.73248e-10
3.65728e-10
6.72579e-10
9.3801e-10
1.2341e-09
1.45344e-09
1.05415e-09
1.53245e-09
1.59111e-09
2.15958e-09
2.60477e-09
2.76734e-09
2.51002e-09
1.89469e-09
1.22962e-09
9.12392e-10
3.48551e-10
3.61037e-10
1.60666e-09
3.81255e-09
4.79248e-09
3.88735e-09
2.31974e-09
1.35973e-09
1.34101e-09
1.12772e-09
5.71995e-09
9.89324e-09
1.21485e-08
1.303e-08
1.07491e-08
6.33904e-09
2.57242e-09
5.00981e-10
1.11151e-10
2.49078e-10
3.9123e-09
5.08086e-09
6.94741e-09
9.29366e-09
1.2756e-08
1.67571e-08
1.97613e-08
1.85579e-08
1.49261e-08
6.91364e-09
9.22721e-10
4.47131e-11
1.75378e-09
3.4692e-09
3.68723e-09
2.83946e-09
2.91976e-09
4.59964e-09
7.16092e-09
6.15089e-09
1.43547e-08
1.10531e-08
8.056e-09
1.23746e-08
1.59383e-08
1.69492e-08
1.35201e-08
7.02326e-09
2.20262e-09
1.36491e-09
3.1273e-08
8.33871e-08
1.46324e-07
2.06094e-07
2.4577e-07
2.36811e-07
1.69874e-07
7.95846e-08
1.95183e-08
1.74549e-09
1.30481e-07
2.61531e-07
3.79536e-07
4.16133e-07
3.57866e-07
2.13604e-07
6.82206e-08
7.34373e-08
1.69438e-07
2.0158e-07
6.13415e-08
1.05458e-07
1.31706e-07
1.14278e-07
4.17476e-08
6.08846e-08
3.4035e-07
7.43996e-07
1.0231e-06
9.06193e-07
1.11366e-08
2.43781e-08
6.85662e-08
1.05004e-07
1.32e-07
2.66456e-07
5.75423e-07
1.04153e-06
1.32147e-06
1.0839e-06
1.82886e-07
2.36109e-07
2.68681e-07
2.58814e-07
2.10048e-07
1.02805e-07
4.93325e-08
2.97965e-07
4.81515e-07
4.83396e-07
6.72138e-07
9.41875e-07
1.17344e-06
1.28931e-06
1.31848e-06
9.09516e-07
3.38794e-07
8.66252e-08
1.45173e-08
1.47608e-07
6.76563e-07
9.84209e-07
1.31535e-06
1.51014e-06
1.46122e-06
9.16513e-07
4.06446e-07
7.52076e-08
8.44556e-08
4.51854e-07
4.66294e-07
6.51898e-07
8.69298e-07
9.30685e-07
6.76787e-07
2.40818e-07
4.16002e-08
1.10215e-07
4.18296e-07
8.67803e-07
6.74127e-07
9.29224e-07
1.22672e-06
1.36651e-06
1.19232e-06
6.60454e-07
1.35879e-07
2.87385e-08
2.85422e-07
6.9278e-07
)
;
    }
    inlet
    {
        type            calculated;
        value           uniform 0;
    }
    outlet
    {
        type            calculated;
        value           uniform 0;
    }
}


// ************************************************************************* //
