/*--------------------------------*- C++ -*----------------------------------*\
| =========                 |                                                 |
| \\      /  F ield         | OpenFOAM: The Open Source CFD Toolbox           |
|  \\    /   O peration     | Version:  2406                                  |
|   \\  /    A nd           | Website:  www.openfoam.com                      |
|    \\/     M anipulation  |                                                 |
\*---------------------------------------------------------------------------*/
FoamFile
{
    version     2.0;
    format      ascii;
    arch        "LSB;label=32;scalar=64";
    class       volVectorField;
    location    "0.4";
    object      U;
}
// * * * * * * * * * * * * * * * * * * * * * * * * * * * * * * * * * * * * * //

dimensions      [0 1 -1 0 0 0 0];

internalField   nonuniform List<vector> 
25000
(
(0.125294 0.125603 1.10137)
(0.101605 0.132999 1.12284)
(0.0742781 0.139952 1.13505)
(0.0449588 0.144047 1.14121)
(0.0145943 0.1458 1.14335)
(-0.0159207 0.145271 1.14276)
(-0.0460862 0.142471 1.13944)
(-0.0748713 0.137561 1.13216)
(-0.100973 0.130274 1.11898)
(-0.122345 0.12171 1.09698)
(0.133485 0.10101 1.12207)
(0.105467 0.103609 1.13717)
(0.0751549 0.107332 1.14233)
(0.0438497 0.109774 1.14317)
(0.01247 0.110649 1.14257)
(-0.0186202 0.110089 1.14207)
(-0.0494638 0.108131 1.14166)
(-0.0795955 0.104685 1.13985)
(-0.107852 0.0998722 1.1338)
(-0.132553 0.0957635 1.11811)
(0.140021 0.0726275 1.13365)
(0.109477 0.0720451 1.14164)
(0.0768672 0.0730865 1.14149)
(0.0438631 0.0739217 1.13864)
(0.0114388 0.0740897 1.13618)
(-0.0203823 0.0736015 1.13576)
(-0.0521234 0.0724387 1.13738)
(-0.0837877 0.0705086 1.13943)
(-0.114342 0.0681448 1.13883)
(-0.141779 0.0671635 1.13029)
(0.143238 0.0423687 1.13949)
(0.111659 0.0397552 1.14207)
(0.0778793 0.0389109 1.13815)
(0.0439364 0.0385845 1.1329)
(0.0109108 0.0383049 1.12932)
(-0.0213939 0.037978 1.129)
(-0.053782 0.0375221 1.13192)
(-0.0865099 0.0368856 1.13653)
(-0.118525 0.0364596 1.13982)
(-0.147261 0.037625 1.1368)
(0.143997 0.0111478 1.14164)
(0.112057 0.00749329 1.14135)
(0.0779562 0.00554985 1.13548)
(0.0438016 0.00454379 1.12905)
(0.0106476 0.00407208 1.12497)
(-0.0217919 0.00396886 1.12473)
(-0.0544623 0.00410445 1.12832)
(-0.0877113 0.00443556 1.13423)
(-0.12045 0.00527511 1.13959)
(-0.14989 0.00753551 1.13954)
(0.142583 -0.0201589 1.14133)
(0.111043 -0.0245155 1.14098)
(0.0773216 -0.0271967 1.13505)
(0.0435166 -0.0286298 1.12862)
(0.0106468 -0.0291544 1.12458)
(-0.0216293 -0.0289797 1.1244)
(-0.0542496 -0.0282897 1.12806)
(-0.0875486 -0.0271608 1.13408)
(-0.12042 -0.0254088 1.13957)
(-0.149982 -0.0225231 1.13966)
(0.1393 -0.0509204 1.13852)
(0.108827 -0.0561753 1.14088)
(0.0761297 -0.0597066 1.13678)
(0.0431909 -0.061595 1.13152)
(0.010951 -0.0621448 1.12806)
(-0.0208754 -0.0616476 1.12793)
(-0.0531512 -0.0603555 1.13109)
(-0.0860823 -0.0583282 1.13601)
(-0.118511 -0.0555522 1.13972)
(-0.147578 -0.0520061 1.13716)
(0.134246 -0.0800427 1.13198)
(0.105492 -0.0868886 1.13953)
(0.0744719 -0.091744 1.13906)
(0.0429219 -0.0943227 1.13619)
(0.0116578 -0.0949925 1.13394)
(-0.0194979 -0.0941763 1.13385)
(-0.0510937 -0.0921122 1.13589)
(-0.0831282 -0.0888629 1.13848)
(-0.11455 -0.0845538 1.1386)
(-0.142695 -0.0797667 1.13086)
(0.127299 -0.106482 1.1197)
(0.10143 -0.115595 1.13412)
(0.0728239 -0.122244 1.13886)
(0.0430646 -0.125724 1.1397)
(0.0128924 -0.126668 1.13939)
(-0.017451 -0.125531 1.13935)
(-0.0480922 -0.122549 1.13954)
(-0.0787209 -0.117772 1.13852)
(-0.108294 -0.111304 1.13348)
(-0.134559 -0.10463 1.1189)
(0.12123 -0.128457 1.09851)
(0.0990533 -0.140703 1.11911)
(0.0727601 -0.14917 1.13084)
(0.044447 -0.153448 1.13702)
(0.0149394 -0.15477 1.13954)
(-0.0149506 -0.15337 1.13954)
(-0.044816 -0.149472 1.13699)
(-0.0738252 -0.143145 1.13074)
(-0.101056 -0.134013 1.11885)
(-0.124055 -0.124334 1.09814)
(0.0269913 0.0145242 1.1644)
(0.0261455 0.0185019 1.21071)
(0.0246927 0.0248818 1.24891)
(0.0208567 0.0304107 1.27523)
(0.0154077 0.0340022 1.2891)
(0.00905194 0.0353294 1.29163)
(0.00245284 0.03436 1.28325)
(-0.00328821 0.0313947 1.26337)
(-0.00639051 0.0276831 1.23247)
(-0.00904517 0.0236035 1.19463)
(0.0326049 0.0135621 1.21346)
(0.0300344 0.0163027 1.25519)
(0.0258691 0.0215742 1.28593)
(0.0189731 0.0261617 1.30509)
(0.0106088 0.0288783 1.31413)
(0.0016799 0.0293816 1.31508)
(-0.00703998 0.0276854 1.30834)
(-0.0142844 0.0240769 1.29239)
(-0.0180748 0.0194429 1.26607)
(-0.0197708 0.0161347 1.23083)
(0.0368974 0.011284 1.25226)
(0.0343314 0.0120899 1.28632)
(0.0282068 0.0149278 1.30986)
(0.0188774 0.0176335 1.32277)
(0.00798227 0.0191485 1.32774)
(-0.00332464 0.0191086 1.32778)
(-0.0141051 0.0175006 1.32324)
(-0.0230385 0.014574 1.31153)
(-0.0282064 0.0111732 1.29013)
(-0.0295194 0.00941884 1.25992)
(0.0394042 0.00597808 1.27732)
(0.0369757 0.00470539 1.30441)
(0.0298686 0.005095 1.32177)
(0.0190721 0.005845 1.32956)
(0.00649624 0.00621113 1.33146)
(-0.00645851 0.00592873 1.33111)
(-0.0187478 0.00492406 1.32874)
(-0.028958 0.00333049 1.32098)
(-0.0350554 0.00182988 1.30424)
(-0.036013 0.00201441 1.27893)
(0.0398727 -0.00105628 1.289)
(0.0376139 -0.00440386 1.3118)
(0.0302479 -0.00632827 1.3253)
(0.0189276 -0.00738692 1.33008)
(0.00568388 -0.00795722 1.33037)
(-0.00802418 -0.00825299 1.32997)
(-0.0210669 -0.00841426 1.32895)
(-0.0319313 -0.0084104 1.32364)
(-0.0384645 -0.00783612 1.30989)
(-0.0392599 -0.00574747 1.28762)
(0.0383812 -0.00860965 1.28903)
(0.0363695 -0.0140715 1.31101)
(0.0293399 -0.0180973 1.32395)
(0.018375 -0.020675 1.32844)
(0.00540266 -0.0219739 1.32866)
(-0.00815402 -0.0221416 1.32834)
(-0.0211527 -0.0213578 1.3275)
(-0.0320483 -0.019759 1.32241)
(-0.0386694 -0.0172214 1.3089)
(-0.0395454 -0.0133572 1.28689)
(0.0351629 -0.0155281 1.27787)
(0.0335446 -0.0230679 1.30246)
(0.0274272 -0.0288939 1.31806)
(0.0175812 -0.0326956 1.32487)
(0.00570365 -0.0345045 1.32644)
(-0.00688651 -0.0344512 1.32625)
(-0.0191302 -0.0327879 1.32433)
(-0.0295055 -0.0297367 1.31718)
(-0.0359056 -0.0254687 1.30116)
(-0.0370211 -0.0200893 1.27657)
(0.030666 -0.0203292 1.25485)
(0.0296799 -0.0297043 1.28456)
(0.0250201 -0.0369757 1.30505)
(0.0168992 -0.0416349 1.31606)
(0.00677237 -0.0437617 1.32016)
(-0.00425893 -0.0435159 1.32014)
(-0.015151 -0.0411263 1.3161)
(-0.0245069 -0.0369036 1.30522)
(-0.0304077 -0.031219 1.28483)
(-0.0320237 -0.0246849 1.25558)
(0.0264247 -0.021306 1.22065)
(0.0260274 -0.0318257 1.25628)
(0.023171 -0.0401029 1.28258)
(0.0170417 -0.0452738 1.29871)
(0.00887175 -0.0475948 1.30596)
(-0.000278392 -0.0472627 1.3062)
(-0.00946766 -0.0444664 1.29955)
(-0.0174702 -0.0394471 1.28422)
(-0.0225079 -0.0326966 1.25875)
(-0.0250932 -0.0256931 1.22428)
(0.0249967 -0.0202897 1.17956)
(0.0254546 -0.0301135 1.21914)
(0.023815 -0.0375564 1.25162)
(0.0191358 -0.042396 1.27339)
(0.0124678 -0.044734 1.28403)
(0.00487125 -0.0445157 1.2846)
(-0.00276992 -0.0418667 1.27528)
(-0.009388 -0.0369386 1.25513)
(-0.0136288 -0.0305646 1.2243)
(-0.0168492 -0.0243052 1.18644)
(0.011308 -0.0373116 0.952323)
(0.0143297 -0.0342637 0.988565)
(0.0186212 -0.027643 1.03609)
(0.0231108 -0.0213595 1.0794)
(0.0270788 -0.0159309 1.10956)
(0.0302046 -0.0118808 1.12374)
(0.0321558 -0.00929319 1.12167)
(0.0331124 -0.00777611 1.10544)
(0.0339031 -0.00599066 1.08228)
(0.0322769 -0.00367652 1.06611)
(0.0101633 -0.0382811 0.998553)
(0.0114579 -0.0356716 1.03908)
(0.0142186 -0.0289785 1.09095)
(0.0166278 -0.0221566 1.13577)
(0.0183629 -0.0167379 1.16416)
(0.0194149 -0.0132796 1.17377)
(0.0198868 -0.0117592 1.16463)
(0.0203998 -0.011656 1.13916)
(0.0219819 -0.0115449 1.10629)
(0.0219441 -0.00849911 1.08385)
(0.00970649 -0.035689 1.04969)
(0.0118267 -0.0334124 1.0944)
(0.0138668 -0.0277456 1.14965)
(0.0144834 -0.0218072 1.19528)
(0.0138651 -0.017175 1.22224)
(0.0124443 -0.0144545 1.22849)
(0.0108189 -0.0136311 1.21402)
(0.00998719 -0.0141242 1.18135)
(0.0110351 -0.0143808 1.13966)
(0.012191 -0.0114714 1.10877)
(0.00952321 -0.0326933 1.08869)
(0.0128737 -0.0311053 1.13636)
(0.0148838 -0.0269642 1.19332)
(0.0144214 -0.0224307 1.23922)
(0.0120704 -0.0187972 1.26532)
(0.00863539 -0.0166089 1.2695)
(0.00515775 -0.015886 1.2516)
(0.00299921 -0.0160849 1.2143)
(0.00351368 -0.0157923 1.16669)
(0.00583497 -0.0126613 1.12901)
(0.00897457 -0.0294643 1.10796)
(0.0134785 -0.0290923 1.15716)
(0.0158668 -0.0269036 1.21475)
(0.0150379 -0.0241275 1.26059)
(0.0117833 -0.0216337 1.286)
(0.00718305 -0.0198395 1.28897)
(0.00253322 -0.0187694 1.26957)
(-0.000515318 -0.0179961 1.2299)
(-0.000408983 -0.0165219 1.1792)
(0.00237626 -0.0128958 1.13771)
(0.0079498 -0.0259142 1.10622)
(0.0133494 -0.0272089 1.15582)
(0.0163213 -0.027237 1.2133)
(0.0157496 -0.0264148 1.25863)
(0.0124433 -0.0251451 1.28346)
(0.00758188 -0.0236481 1.28602)
(0.00262355 -0.0219164 1.26625)
(-0.000761936 -0.0197578 1.22632)
(-0.000993889 -0.0167708 1.17509)
(0.0015668 -0.0123967 1.1328)
(0.00656938 -0.0215689 1.08442)
(0.012533 -0.0246831 1.13317)
(0.0162554 -0.0268591 1.18993)
(0.0165358 -0.0278711 1.23455)
(0.0140272 -0.0277044 1.25894)
(0.00983586 -0.0263813 1.26159)
(0.00532874 -0.0239516 1.24249)
(0.00206647 -0.0204387 1.20387)
(0.00149655 -0.0160366 1.1543)
(0.00321853 -0.0110538 1.11403)
(0.00528592 -0.0157321 1.04575)
(0.0115999 -0.0202956 1.09201)
(0.0161941 -0.024123 1.14701)
(0.0177987 -0.0265014 1.19077)
(0.0167881 -0.0271698 1.21492)
(0.01399 -0.0260455 1.21814)
(0.0105313 -0.0231327 1.2007)
(0.00769569 -0.01869 1.16474)
(0.00664719 -0.0133796 1.119)
(0.00679091 -0.00830406 1.08334)
(0.00516575 -0.00795103 0.999549)
(0.0117979 -0.0130377 1.04214)
(0.0172962 -0.0176439 1.09387)
(0.0203438 -0.0206838 1.13617)
(0.0209874 -0.0218973 1.16032)
(0.0198405 -0.0210831 1.16475)
(0.0176534 -0.018223 1.1499)
(0.0153255 -0.0136165 1.11813)
(0.0138127 -0.00818263 1.07824)
(0.0119623 -0.0039178 1.04839)
(0.00803651 8.79225e-05 0.96311)
(0.0154978 -0.00447272 1.00349)
(0.0213446 -0.00856681 1.05201)
(0.025087 -0.0113815 1.09228)
(0.0266403 -0.0128839 1.11631)
(0.0264599 -0.0126028 1.12237)
(0.025041 -0.0104523 1.11095)
(0.0229751 -0.0066124 1.08442)
(0.0208598 -0.00209597 1.05038)
(0.0177895 0.00118256 1.02387)
(0.011437 -0.0945538 0.934492)
(0.0155761 -0.0938596 0.922187)
(0.0214044 -0.0888168 0.939464)
(0.0297449 -0.0834338 0.970526)
(0.0385882 -0.0770283 1.00274)
(0.0465011 -0.0698198 1.02987)
(0.0521584 -0.0619894 1.04942)
(0.0551431 -0.054026 1.06222)
(0.0556199 -0.046352 1.0753)
(0.0510509 -0.0393 1.10965)
(0.00514957 -0.0983964 0.933204)
(0.00706523 -0.0961992 0.918957)
(0.0127164 -0.0900325 0.944684)
(0.0211154 -0.0829135 0.984753)
(0.0302539 -0.0757128 1.02011)
(0.0386634 -0.0687428 1.04277)
(0.0452138 -0.0621418 1.05084)
(0.0494677 -0.0560049 1.04852)
(0.0512216 -0.0499872 1.04975)
(0.0484539 -0.0425546 1.08175)
(-0.00320433 -0.0952061 0.953095)
(0.000153589 -0.0907575 0.947688)
(0.00682439 -0.0836588 0.986353)
(0.0155916 -0.0759611 1.03616)
(0.0247942 -0.0687267 1.07491)
(0.0330454 -0.0624095 1.09327)
(0.0395354 -0.0571844 1.08933)
(0.0441662 -0.0527337 1.07054)
(0.0467559 -0.0480994 1.05645)
(0.0455227 -0.0414004 1.07815)
(-0.0105598 -0.088636 0.971395)
(-0.00520284 -0.0815267 0.978739)
(0.00315981 -0.0734455 1.02975)
(0.0127866 -0.0655273 1.08839)
(0.0220975 -0.0584936 1.1311)
(0.0299507 -0.0527902 1.14692)
(0.0360145 -0.0487062 1.13279)
(0.0406918 -0.0454935 1.09928)
(0.0440614 -0.0420202 1.06986)
(0.0445912 -0.0368692 1.07857)
(-0.0169529 -0.0788441 0.975321)
(-0.00928043 -0.0697491 0.993521)
(0.000993469 -0.0611794 1.05391)
(0.0117186 -0.0536053 1.1192)
(0.0213619 -0.0472282 1.1652)
(0.0289133 -0.0422999 1.17948)
(0.0346232 -0.0389185 1.15885)
(0.0394456 -0.0362845 1.11526)
(0.0434004 -0.0336318 1.07501)
(0.0449356 -0.0303513 1.07414)
(-0.0219855 -0.0665057 0.962016)
(-0.0122812 -0.0563749 0.985958)
(-0.00025193 -0.0480582 1.05083)
(0.011639 -0.0414387 1.11867)
(0.0218587 -0.0362525 1.16545)
(0.0295671 -0.0323062 1.17897)
(0.0354004 -0.0291049 1.15632)
(0.0403835 -0.0264282 1.10981)
(0.0445225 -0.0242564 1.06642)
(0.0461418 -0.0226666 1.06295)
(-0.0258924 -0.0525275 0.932873)
(-0.0145408 -0.0420455 0.956395)
(-0.000928327 -0.0343644 1.02008)
(0.0121605 -0.0289062 1.08575)
(0.0233295 -0.0249407 1.13046)
(0.0319048 -0.021793 1.14408)
(0.038355 -0.0187966 1.12417)
(0.0434309 -0.0161476 1.08282)
(0.0472723 -0.0145017 1.04475)
(0.0481219 -0.0146478 1.04618)
(-0.0285794 -0.0376686 0.89437)
(-0.0160575 -0.0270258 0.912353)
(-0.00102461 -0.0198173 0.969913)
(0.0134006 -0.0151498 1.03052)
(0.0258933 -0.0120261 1.07234)
(0.0357621 -0.00959577 1.08724)
(0.0430908 -0.00726348 1.07472)
(0.048271 -0.00524867 1.04417)
(0.0513898 -0.00459657 1.01743)
(0.0505974 -0.00678205 1.02867)
(-0.0302874 -0.0229527 0.862021)
(-0.0165947 -0.0118439 0.874399)
(-0.000224357 -0.00444275 0.923284)
(0.015534 6.34462e-05 0.977383)
(0.0293628 0.00264872 1.01711)
(0.0405312 0.00418541 1.03568)
(0.0487539 0.00519854 1.03323)
(0.0540502 0.00560209 1.01648)
(0.0565076 0.00437947 1.0031)
(0.0541898 4.96791e-05 1.02204)
(-0.0299763 -0.00844572 0.858359)
(-0.0153947 0.00288311 0.875085)
(0.00167786 0.0108155 0.918907)
(0.0182824 0.0153787 0.966996)
(0.0330376 0.017341 1.00503)
(0.0450183 0.017532 1.02815)
(0.0537309 0.016489 1.03642)
(0.059026 0.0146086 1.03338)
(0.0611225 0.0114056 1.02855)
(0.0580938 0.0059061 1.04398)
(0.0297698 -0.104347 0.938404)
(0.0339703 -0.105639 0.872501)
(0.0358496 -0.0998589 0.856443)
(0.0380963 -0.0937549 0.867436)
(0.0403301 -0.0871661 0.891813)
(0.0421621 -0.0806878 0.923477)
(0.0423367 -0.075092 0.958153)
(0.0400218 -0.0713019 0.995061)
(0.0348337 -0.0708962 1.04507)
(0.0272797 -0.0741143 1.13528)
(0.0237066 -0.115798 0.878678)
(0.0259304 -0.114559 0.8054)
(0.028227 -0.107532 0.796163)
(0.0320218 -0.099457 0.816988)
(0.0369643 -0.0913728 0.848774)
(0.0418227 -0.0839134 0.881285)
(0.0448975 -0.078077 0.908824)
(0.0451648 -0.0751969 0.931351)
(0.0423094 -0.0761634 0.964298)
(0.0360812 -0.0796149 1.05126)
(0.0136406 -0.11754 0.85759)
(0.0173695 -0.113913 0.792461)
(0.0208961 -0.106248 0.79575)
(0.0265166 -0.0973984 0.830512)
(0.0336609 -0.0887547 0.87109)
(0.0407783 -0.0811077 0.903793)
(0.0459043 -0.0754625 0.921898)
(0.0478495 -0.0730371 0.928569)
(0.0464473 -0.0742982 0.943832)
(0.0418476 -0.0786252 1.01307)
(0.00242671 -0.114913 0.839912)
(0.00784099 -0.108129 0.790723)
(0.0136155 -0.0987992 0.811735)
(0.0215932 -0.0891032 0.863061)
(0.031012 -0.0801289 0.914151)
(0.0400867 -0.0726227 0.94766)
(0.0467819 -0.0677346 0.954409)
(0.050233 -0.0662919 0.9426)
(0.0503964 -0.0685153 0.940232)
(0.0475546 -0.0742363 0.992906)
(-0.00982225 -0.108375 0.809369)
(-0.00241194 -0.0980557 0.777351)
(0.00634033 -0.0867923 0.816716)
(0.017143 -0.0763577 0.883552)
(0.0290369 -0.0673714 0.944682)
(0.0400388 -0.0604199 0.979585)
(0.0482324 -0.0565734 0.977197)
(0.0532729 -0.0561631 0.950401)
(0.0550082 -0.0598634 0.934501)
(0.0535496 -0.0677922 0.977218)
(-0.0216583 -0.0987097 0.767488)
(-0.0123695 -0.0849978 0.747404)
(-0.000525798 -0.0720481 0.799204)
(0.0131727 -0.0611939 0.875614)
(0.027585 -0.0526351 0.942407)
(0.0405884 -0.0467247 0.978246)
(0.0505696 -0.0438336 0.972552)
(0.0571497 -0.0443948 0.940586)
(0.0602649 -0.0497035 0.921039)
(0.059686 -0.0604814 0.962633)
(-0.0326316 -0.0867636 0.718442)
(-0.0216204 -0.0702546 0.701804)
(-0.00680251 -0.0560327 0.756733)
(0.00971316 -0.0450219 0.834209)
(0.026578 -0.0370993 0.90023)
(0.0418819 -0.0322593 0.936788)
(0.0539295 -0.0304143 0.935483)
(0.0620067 -0.0322369 0.911721)
(0.0663726 -0.0393875 0.900609)
(0.0664025 -0.0532059 0.950082)
(-0.0423398 -0.0731728 0.669714)
(-0.0300633 -0.0547907 0.649417)
(-0.0125318 -0.0397035 0.698778)
(0.00676611 -0.0285931 0.770791)
(0.026225 -0.0212039 0.833347)
(0.043935 -0.0173309 0.871773)
(0.0581814 -0.0169097 0.882066)
(0.0680292 -0.0204411 0.875738)
(0.0736835 -0.0296712 0.881044)
(0.0737259 -0.0460708 0.943622)
(-0.0514977 -0.0592191 0.638779)
(-0.0378336 -0.0398703 0.615724)
(-0.0178194 -0.0241195 0.655193)
(0.00415907 -0.012883 0.718166)
(0.0262697 -0.00599347 0.777157)
(0.0465694 -0.00322841 0.820388)
(0.0633316 -0.00453684 0.845549)
(0.0753081 -0.0101781 0.859595)
(0.0828924 -0.021363 0.882778)
(0.0835454 -0.0396486 0.956369)
(-0.0578908 -0.0428004 0.651458)
(-0.0438541 -0.0248966 0.640443)
(-0.0223739 -0.00942417 0.675305)
(0.00165437 0.00123178 0.729781)
(0.0262474 0.00735024 0.785218)
(0.0491254 0.00901158 0.833526)
(0.068614 0.00626674 0.87267)
(0.0832186 -0.000610631 0.905419)
(0.0930757 -0.0126568 0.943493)
(0.0942623 -0.0303027 1.01333)
(0.0526575 -0.0417544 0.93218)
(0.0640188 -0.0503135 0.862842)
(0.0634688 -0.0510416 0.844957)
(0.0562485 -0.0507333 0.854165)
(0.0448469 -0.0509114 0.877994)
(0.0311442 -0.0530659 0.914156)
(0.0155057 -0.0584755 0.96165)
(-0.00146611 -0.0679973 1.02038)
(-0.0194064 -0.0840746 1.1006)
(-0.0324882 -0.104791 1.23433)
(0.057393 -0.0363027 0.842658)
(0.0677158 -0.044939 0.753105)
(0.0677675 -0.0476409 0.737447)
(0.0624086 -0.0486405 0.754527)
(0.0540761 -0.0501626 0.785382)
(0.0441884 -0.053766 0.822637)
(0.0327339 -0.060804 0.861522)
(0.0193666 -0.0727573 0.900206)
(0.00374216 -0.0912899 0.958129)
(-0.0105912 -0.115043 1.09535)
(0.0538834 -0.0307291 0.795937)
(0.0647023 -0.0399136 0.710021)
(0.0654777 -0.0441322 0.703476)
(0.0617209 -0.0462172 0.732857)
(0.0562168 -0.0483457 0.774625)
(0.0500519 -0.0521745 0.816679)
(0.0425891 -0.0593021 0.850097)
(0.0331159 -0.0716593 0.87187)
(0.0208664 -0.0905398 0.905353)
(0.00831864 -0.116499 1.01902)
(0.046291 -0.0248648 0.758006)
(0.056311 -0.0337473 0.681121)
(0.0575768 -0.0382094 0.687714)
(0.0557257 -0.040653 0.733324)
(0.0535395 -0.042873 0.788528)
(0.0517241 -0.0466126 0.835646)
(0.0490555 -0.0538979 0.861069)
(0.0439483 -0.0668581 0.865322)
(0.035311 -0.086706 0.879477)
(0.02509 -0.115288 0.9714)
(0.0355735 -0.0182979 0.709878)
(0.0439655 -0.0257019 0.640932)
(0.0460156 -0.0292786 0.660797)
(0.0466904 -0.0312073 0.721707)
(0.048472 -0.0331383 0.788912)
(0.0514673 -0.036924 0.839848)
(0.0537847 -0.0446107 0.859028)
(0.0532053 -0.058249 0.851354)
(0.0486946 -0.0798901 0.855237)
(0.0413571 -0.111466 0.937142)
(0.0232545 -0.0115493 0.650136)
(0.029529 -0.0162089 0.584485)
(0.0328384 -0.017939 0.612214)
(0.0365466 -0.0185903 0.681233)
(0.0425353 -0.0198946 0.753412)
(0.0503718 -0.0238975 0.806262)
(0.0575785 -0.0323897 0.825612)
(0.0614458 -0.047263 0.81873)
(0.0612991 -0.0712512 0.825898)
(0.0569449 -0.106192 0.910714)
(0.0104578 -0.00496918 0.584428)
(0.014901 -0.00620389 0.516376)
(0.0198639 -0.00547118 0.543597)
(0.026792 -0.00437159 0.612214)
(0.0367906 -0.00478774 0.683308)
(0.0489822 -0.00888126 0.736695)
(0.060677 -0.0185324 0.762829)
(0.0690664 -0.0355064 0.769653)
(0.0735234 -0.0620488 0.791535)
(0.072495 -0.100113 0.889892)
(-0.00149394 0.00113278 0.523838)
(0.0018676 0.00345938 0.450061)
(0.00872988 0.0067543 0.469025)
(0.0188183 0.00969768 0.530019)
(0.0324556 0.0101102 0.596777)
(0.0483798 0.0057446 0.651751)
(0.0640975 -0.00532406 0.689432)
(0.0769257 -0.0244739 0.716525)
(0.0860401 -0.0532264 0.759541)
(0.0878854 -0.0931167 0.876925)
(-0.0110578 0.00644427 0.489843)
(-0.00760963 0.011561 0.415599)
(0.00110317 0.0173022 0.422744)
(0.0141333 0.0218787 0.471615)
(0.031018 0.0228043 0.532105)
(0.0503449 0.0178837 0.589983)
(0.0698341 0.00537958 0.641086)
(0.0868083 -0.0155447 0.689354)
(0.100552 -0.0458631 0.754098)
(0.105792 -0.0860158 0.88647)
(-0.016605 0.0110476 0.517279)
(-0.0122594 0.0176319 0.456943)
(-0.00175165 0.0249791 0.459272)
(0.0137089 0.0306259 0.496719)
(0.0336527 0.0318716 0.550109)
(0.0563684 0.0269874 0.610222)
(0.0796228 0.0144441 0.673686)
(0.100408 -0.0058116 0.74153)
(0.117736 -0.0353677 0.824443)
(0.123568 -0.0714908 0.950462)
(0.0225192 0.0488846 0.691648)
(0.0367314 0.0368146 0.706804)
(0.0400043 0.0265813 0.768949)
(0.0315619 0.0160739 0.840159)
(0.0142906 0.00311138 0.905924)
(-0.00825504 -0.013778 0.969139)
(-0.0329095 -0.0356143 1.03539)
(-0.0555573 -0.0616273 1.10767)
(-0.0724978 -0.0917849 1.19858)
(-0.0729347 -0.117829 1.34287)
(0.0319939 0.0683408 0.607157)
(0.0495136 0.0526431 0.59029)
(0.0557292 0.0392966 0.641586)
(0.0506098 0.0259602 0.713277)
(0.0371334 0.0101697 0.779439)
(0.0185076 -0.00982023 0.835751)
(-0.00274054 -0.0349235 0.885445)
(-0.0239071 -0.065116 0.935277)
(-0.0419613 -0.0992056 1.00987)
(-0.0483737 -0.131401 1.17307)
(0.0410042 0.0839988 0.574759)
(0.0593698 0.0642083 0.550916)
(0.0661645 0.0473417 0.603936)
(0.0625542 0.0314934 0.681244)
(0.0517611 0.014065 0.75093)
(0.0368303 -0.00703095 0.80302)
(0.0196585 -0.0329936 0.838103)
(0.0016805 -0.0639599 0.865974)
(-0.0149285 -0.0991008 0.916885)
(-0.0227108 -0.135054 1.0641)
(0.046913 0.0985125 0.560979)
(0.0641878 0.0754434 0.533796)
(0.0700598 0.0556414 0.588566)
(0.067173 0.0378359 0.669647)
(0.0592862 0.0193458 0.740367)
(0.0490796 -0.00229587 0.786923)
(0.037279 -0.0286 0.809176)
(0.0237801 -0.0600439 0.819888)
(0.0100243 -0.0964097 0.853311)
(0.00180333 -0.135984 0.983758)
(0.050013 0.111719 0.545207)
(0.0643379 0.0869222 0.50853)
(0.0685488 0.0656203 0.558163)
(0.0664779 0.0469377 0.636164)
(0.0619321 0.0281467 0.703398)
(0.0568459 0.00640416 0.745477)
(0.0508866 -0.0200562 0.762025)
(0.0428334 -0.0521717 0.767118)
(0.0333479 -0.090236 0.795393)
(0.0261793 -0.133028 0.919243)
(0.0510442 0.122596 0.521458)
(0.0614971 0.097807 0.467221)
(0.0638762 0.0767637 0.5035)
(0.0627387 0.0585194 0.571493)
(0.0615605 0.0402828 0.6321)
(0.0614822 0.0188493 0.671774)
(0.0614273 -0.00797184 0.690824)
(0.0592861 -0.0413474 0.70237)
(0.0547465 -0.0815238 0.737784)
(0.04927 -0.127118 0.866992)
(0.051617 0.130298 0.491401)
(0.057946 0.106948 0.41453)
(0.0587581 0.0874442 0.43144)
(0.0587045 0.0705612 0.484358)
(0.0606826 0.0533227 0.536493)
(0.0651391 0.0322684 0.57557)
(0.0704118 0.00496001 0.602403)
(0.073871 -0.029708 0.627932)
(0.0745047 -0.0714846 0.679315)
(0.0711742 -0.118733 0.823935)
(0.0527748 0.133664 0.462988)
(0.0563845 0.113014 0.36527)
(0.0564427 0.0957022 0.360875)
(0.0576799 0.0803974 0.395586)
(0.0623859 0.064061 0.437771)
(0.070509 0.0432237 0.476934)
(0.080056 0.0155995 0.513706)
(0.0881518 -0.0195468 0.556535)
(0.093306 -0.0614437 0.628116)
(0.0911869 -0.107994 0.79221)
(0.0583791 0.133593 0.456849)
(0.0609166 0.115643 0.349414)
(0.0612439 0.0999694 0.328994)
(0.0640101 0.0858632 0.346389)
(0.0708107 0.0699111 0.378106)
(0.0814451 0.049099 0.416931)
(0.0938033 0.0215158 0.463496)
(0.104777 -0.0128486 0.523201)
(0.112955 -0.0531184 0.613736)
(0.111639 -0.09629 0.790448)
(0.0681734 0.124158 0.519939)
(0.0738028 0.110287 0.422783)
(0.0757809 0.096035 0.394755)
(0.0805731 0.083788 0.399805)
(0.0888973 0.0689254 0.422012)
(0.100756 0.0496498 0.459632)
(0.114152 0.0244171 0.514645)
(0.125544 -0.00584832 0.590261)
(0.133346 -0.0415142 0.696303)
(0.128045 -0.0758028 0.859789)
(-0.0298384 0.0988979 0.398424)
(-0.0268932 0.0934155 0.473718)
(-0.0255413 0.0837569 0.621732)
(-0.0319473 0.0711084 0.780142)
(-0.0460941 0.0535274 0.918454)
(-0.065742 0.0306641 1.0305)
(-0.0859866 0.00301006 1.11655)
(-0.100225 -0.0257292 1.18003)
(-0.102957 -0.05053 1.24116)
(-0.0857486 -0.0597262 1.34843)
(-0.0180849 0.128942 0.320472)
(-0.0104526 0.121947 0.357673)
(-0.00583953 0.110295 0.489729)
(-0.00980013 0.0936444 0.64406)
(-0.0226429 0.0712036 0.779726)
(-0.0423202 0.0426702 0.884806)
(-0.0642993 0.00888382 0.956995)
(-0.082446 -0.0265441 1.00396)
(-0.0904538 -0.0570781 1.06103)
(-0.0806764 -0.0730704 1.1987)
(-0.00419618 0.147559 0.306973)
(0.00580968 0.138904 0.335476)
(0.0124581 0.124312 0.4644)
(0.0104748 0.104203 0.615291)
(-0.000489753 0.0783672 0.743094)
(-0.0186102 0.046564 0.834196)
(-0.0401699 0.00984808 0.887556)
(-0.059826 -0.0283926 0.915264)
(-0.0707841 -0.061843 0.958927)
(-0.0650591 -0.082172 1.0949)
(0.0079095 0.160383 0.321343)
(0.0191212 0.149265 0.344317)
(0.0265954 0.131729 0.465828)
(0.0261712 0.109019 0.605969)
(0.0177777 0.0808585 0.717485)
(0.00295727 0.0469062 0.788015)
(-0.0161384 0.00835761 0.821782)
(-0.0351581 -0.0313317 0.836398)
(-0.0472781 -0.0664194 0.873446)
(-0.0455276 -0.0898237 1.00674)
(0.0188089 0.168714 0.340521)
(0.0291762 0.155523 0.347746)
(0.0361315 0.135991 0.449489)
(0.0368331 0.111734 0.568844)
(0.0312953 0.0823531 0.659739)
(0.0202758 0.0473317 0.711987)
(0.00503507 0.00786902 0.734065)
(-0.0110509 -0.0326017 0.747447)
(-0.022428 -0.0687473 0.788179)
(-0.0236694 -0.0939774 0.926209)
(0.0288172 0.173651 0.357581)
(0.0371366 0.158652 0.337678)
(0.0425758 0.13809 0.408821)
(0.0439379 0.113258 0.500659)
(0.040947 0.0835891 0.57098)
(0.0337951 0.0484224 0.611719)
(0.023089 0.00879793 0.632743)
(0.0109224 -0.0320303 0.654102)
(0.00132418 -0.0686703 0.706081)
(-0.00222239 -0.0945761 0.856526)
(0.0393946 0.175636 0.374363)
(0.0452884 0.158715 0.320219)
(0.0487512 0.137644 0.355633)
(0.0503291 0.112791 0.416882)
(0.0493966 0.0833693 0.468055)
(0.0456627 0.0486106 0.502759)
(0.0389273 0.00942312 0.529498)
(0.0302686 -0.0308529 0.564378)
(0.0226069 -0.0665348 0.632347)
(0.0173194 -0.0913693 0.800743)
(0.0515694 0.174007 0.395392)
(0.056386 0.15576 0.307974)
(0.0581273 0.133966 0.310833)
(0.0596417 0.109189 0.343504)
(0.0598948 0.0801391 0.377378)
(0.0581872 0.0460926 0.408431)
(0.0537636 0.0081698 0.443618)
(0.0472336 -0.0299204 0.494082)
(0.0406036 -0.0625756 0.579517)
(0.0330907 -0.0840097 0.766289)
(0.0691521 0.170018 0.432867)
(0.0743058 0.151292 0.323323)
(0.0753137 0.128385 0.307717)
(0.0764435 0.103288 0.321626)
(0.0765264 0.0743174 0.343167)
(0.0745808 0.0412165 0.372167)
(0.0698568 0.0056112 0.415372)
(0.0627302 -0.0285425 0.47916)
(0.0548025 -0.0564954 0.580004)
(0.044266 -0.0726568 0.777777)
(0.0901574 0.155048 0.541672)
(0.100622 0.139369 0.439812)
(0.102668 0.117296 0.410358)
(0.103424 0.0936194 0.411695)
(0.101395 0.0661857 0.425579)
(0.0963905 0.0361647 0.454816)
(0.0878848 0.00536459 0.506804)
(0.0758378 -0.022501 0.586187)
(0.0621537 -0.0441935 0.701876)
(0.0451756 -0.0525085 0.881659)
(-0.0761428 0.0822631 0.207065)
(-0.0887945 0.0995513 0.261777)
(-0.0941716 0.103078 0.431325)
(-0.0966967 0.0960773 0.637367)
(-0.0984872 0.0798537 0.826244)
(-0.0998762 0.0575672 0.974014)
(-0.0985476 0.0330131 1.06937)
(-0.0901661 0.0109254 1.11413)
(-0.0715897 -0.00200688 1.13944)
(-0.0422926 0.00359744 1.20807)
(-0.0930663 0.10626 0.141582)
(-0.102321 0.12408 0.165447)
(-0.105443 0.128728 0.329103)
(-0.106086 0.120097 0.538754)
(-0.107686 0.10017 0.730862)
(-0.110846 0.0721802 0.877237)
(-0.112788 0.04087 0.961824)
(-0.108108 0.0116783 0.988679)
(-0.0922473 -0.00762357 1.00696)
(-0.0626369 -0.00710805 1.10268)
(-0.0990388 0.122209 0.151371)
(-0.105425 0.139235 0.173989)
(-0.105024 0.141774 0.339461)
(-0.10299 0.130047 0.546459)
(-0.103707 0.106601 0.731016)
(-0.108012 0.0746655 0.864889)
(-0.112731 0.0390801 0.931411)
(-0.11215 0.00514183 0.937393)
(-0.100161 -0.0179223 0.94155)
(-0.0724439 -0.0206769 1.03589)
(-0.100901 0.131276 0.19312)
(-0.103418 0.144543 0.215296)
(-0.0994142 0.143427 0.37195)
(-0.0947956 0.128514 0.562659)
(-0.0941293 0.102253 0.726501)
(-0.0984263 0.0678197 0.838142)
(-0.105015 0.0296285 0.885785)
(-0.107758 -0.00663779 0.878564)
(-0.0991255 -0.0307982 0.877928)
(-0.0741153 -0.0347799 0.971631)
(-0.0990186 0.133903 0.23872)
(-0.0986856 0.141892 0.247735)
(-0.0925224 0.1368 0.379455)
(-0.0862423 0.119075 0.540414)
(-0.0842268 0.0907326 0.674932)
(-0.0877928 0.0546836 0.762975)
(-0.0949158 0.0154667 0.798239)
(-0.0992187 -0.0203522 0.793325)
(-0.0930185 -0.0434376 0.800763)
(-0.0709518 -0.0468857 0.901691)
(-0.0928352 0.131949 0.279656)
(-0.0908569 0.133606 0.262656)
(-0.0843939 0.124333 0.357817)
(-0.0777974 0.104097 0.482055)
(-0.0751742 0.0744012 0.586687)
(-0.0780483 0.0380228 0.656294)
(-0.0847539 -0.000144304 0.689563)
(-0.0894837 -0.0333921 0.697744)
(-0.0850547 -0.0536538 0.719591)
(-0.0658812 -0.0552476 0.833048)
(-0.0805535 0.127109 0.317252)
(-0.0779946 0.12172 0.266328)
(-0.0728563 0.107754 0.32058)
(-0.0673363 0.0850589 0.406802)
(-0.0653567 0.0546894 0.485027)
(-0.0683721 0.0194451 0.54393)
(-0.0750236 -0.0156947 0.583307)
(-0.0802073 -0.0443471 0.60745)
(-0.0774548 -0.0598083 0.645181)
(-0.0609931 -0.0581912 0.772955)
(-0.0615877 0.120714 0.357534)
(-0.0585729 0.108629 0.272103)
(-0.0556447 0.08919 0.290166)
(-0.0526753 0.0639303 0.343284)
(-0.0531197 0.0335376 0.400822)
(-0.0581306 0.000958589 0.455354)
(-0.0662293 -0.0290429 0.503828)
(-0.0727488 -0.0507133 0.542571)
(-0.0720042 -0.0597139 0.593235)
(-0.0579961 -0.0541474 0.731051)
(-0.0347946 0.114494 0.424443)
(-0.0317194 0.0969418 0.311502)
(-0.0312658 0.0730457 0.306714)
(-0.032198 0.0457655 0.338725)
(-0.0372528 0.0162763 0.383637)
(-0.0468539 -0.0123114 0.436722)
(-0.0588148 -0.0355882 0.491311)
(-0.0683108 -0.0491196 0.538461)
(-0.0706622 -0.0510782 0.59429)
(-0.0592979 -0.041345 0.730627)
(1.00465e-05 0.102511 0.575694)
(0.0042458 0.0819966 0.471596)
(0.00131179 0.0573906 0.453051)
(-0.00529229 0.0320282 0.470633)
(-0.0177455 0.00668829 0.505807)
(-0.0348256 -0.0150409 0.554111)
(-0.053389 -0.0297992 0.607427)
(-0.0685396 -0.0353807 0.655437)
(-0.0754386 -0.0304195 0.710109)
(-0.0665487 -0.0187272 0.814291)
(-0.0378195 0.025498 0.172375)
(-0.0554315 0.0540979 0.161231)
(-0.0700846 0.0709716 0.284454)
(-0.0771767 0.0767396 0.47172)
(-0.0776214 0.0726557 0.662197)
(-0.0734602 0.0620931 0.819038)
(-0.0660391 0.0496655 0.922259)
(-0.0556132 0.0388405 0.971697)
(-0.0422767 0.0329092 1.00008)
(-0.0292576 0.0339181 1.07727)
(-0.0732322 0.0458154 0.117923)
(-0.0929087 0.0798871 0.0867002)
(-0.109421 0.099181 0.221009)
(-0.11741 0.103188 0.426981)
(-0.118814 0.0940714 0.628825)
(-0.115864 0.0762455 0.784355)
(-0.109249 0.055651 0.870186)
(-0.0977779 0.0372333 0.890204)
(-0.0807996 0.0254315 0.898894)
(-0.0598358 0.0230079 0.990318)
(-0.103668 0.0622436 0.155592)
(-0.124463 0.0977557 0.133596)
(-0.139379 0.115168 0.285463)
(-0.145636 0.114968 0.500575)
(-0.146729 0.100551 0.701494)
(-0.145082 0.0769759 0.84587)
(-0.140374 0.0506704 0.907138)
(-0.129472 0.0269529 0.891534)
(-0.110597 0.0111601 0.869756)
(-0.0846609 0.00655677 0.947172)
(-0.127779 0.071318 0.230019)
(-0.147949 0.103174 0.218137)