/*--------------------------------*- C++ -*----------------------------------*\
| =========                 |                                                 |
| \\      /  F ield         | OpenFOAM: The Open Source CFD Toolbox           |
|  \\    /   O peration     | Version:  2406                                  |
|   \\  /    A nd           | Website:  www.openfoam.com                      |
|    \\/     M anipulation  |                                                 |
\*---------------------------------------------------------------------------*/
FoamFile
{
    version     2.0;
    format      ascii;
    arch        "LSB;label=32;scalar=64";
    class       volScalarField;
    location    "0.1";
    object      nu;
}
// * * * * * * * * * * * * * * * * * * * * * * * * * * * * * * * * * * * * * //

dimensions      [0 2 -1 0 0 0 0];

internalField   nonuniform List<scalar> 
16000
(
0.00439871
0.0044024
0.00440712
0.00440828
0.00441196
0.0044167
0.00441652
0.00441477
0.00440236
0.00438318
0.00434878
0.00432694
0.00433123
0.0043608
0.00440168
0.00442235
0.00440803
0.00435044
0.00429334
0.00426512
0.00426971
0.00430701
0.00437164
0.00443232
0.00441156
0.00433192
0.00426885
0.00424062
0.00424531
0.00428348
0.00435478
0.00443745
0.00441757
0.00433933
0.00427757
0.00424956
0.00425464
0.00429286
0.00436306
0.00444382
0.0044229
0.00436995
0.00431771
0.00429174
0.00429699
0.0043327
0.00439304
0.00444786
0.00442228
0.0044096
0.00438145
0.0043638
0.00436891
0.00439527
0.00443018
0.00444287
0.00441963
0.00442865
0.00443968
0.00444439
0.00444838
0.00444998
0.00444359
0.00443697
0.00408823
0.00409187
0.00412546
0.00415144
0.0041535
0.00413313
0.00410712
0.00412107
0.00409089
0.00415914
0.00422415
0.00428626
0.00428576
0.00422635
0.0041665
0.0041149
0.00412981
0.00423116
0.00437412
0.00453007
0.00451934
0.00436422
0.00422792
0.00414175
0.00416288
0.00430146
0.00453375
0.0047879
0.00475379
0.004502
0.00428813
0.0041661
0.00416848
0.00430774
0.00452456
0.00473561
0.00470457
0.00449129
0.00429108
0.00417058
0.00414508
0.00425089
0.00438634
0.00450641
0.00449426
0.00436884
0.00424174
0.00415694
0.00411165
0.00418236
0.00425037
0.00430586
0.00430264
0.00424719
0.00418877
0.00414046
0.00411775
0.00411987
0.00415283
0.00417857
0.00418012
0.00416137
0.00414061
0.00416042
0.00412459
0.00404135
0.00401181
0.00401646
0.00401763
0.00402192
0.00406351
0.00416693
0.00403922
0.0040286
0.00406855
0.00416235
0.0041569
0.00406267
0.00403141
0.00406551
0.00401972
0.00407976
0.00425286
0.00452411
0.00449698
0.00423753
0.00407221
0.00402781
0.00403485
0.0041847
0.0045207
0.0053704
0.00508605
0.00445872
0.00416826
0.00403381
0.00404092
0.00419367
0.00449145
0.00495881
0.00483458
0.00443317
0.0041717
0.0040373
0.00403643
0.00410484
0.00427154
0.00445497
0.00443157
0.00424768
0.00408747
0.00404432
0.00405928
0.00405382
0.0041103
0.00419683
0.00418709
0.00409626
0.00405565
0.00409628
0.00415045
0.0040625
0.00404009
0.00405171
0.00405186
0.00405233
0.00409594
0.00421011
0.00432039
0.00410032
0.00401401
0.00403361
0.00402947
0.00401401
0.00411666
0.00436229
0.00410496
0.00399275
0.00401752
0.00414845
0.00414581
0.00401509
0.00399349
0.00411484
0.00403109
0.00402721
0.00419309
0.00448504
0.00445949
0.00419199
0.00403974
0.00403484
0.00406069
0.0041645
0.00446754
0.00525556
0.00498333
0.00441556
0.00417599
0.00406735
0.00406767
0.00418105
0.00443012
0.00483201
0.00472138
0.00438799
0.00419038
0.0040721
0.00404439
0.00406666
0.00421999
0.00439805
0.00438245
0.00421819
0.00407611
0.00404569
0.00411912
0.00402938
0.00408817
0.00420644
0.00420191
0.00408276
0.00403046
0.0041321
0.00434038
0.00411655
0.00405855
0.00409574
0.00409061
0.00406046
0.00413915
0.00439412
0.00458065
0.0041847
0.00407614
0.00413213
0.00413073
0.00406643
0.00417644
0.00459751
0.00420012
0.00400173
0.00403676
0.00419007
0.00419729
0.00405346
0.00401443
0.00420739
0.00409973
0.00404251
0.00420824
0.00449789
0.00446788
0.00421129
0.00407425
0.00412539
0.00416497
0.00419623
0.00446329
0.0052171
0.00493553
0.00439905
0.00421629
0.00419976
0.00418436
0.00421926
0.00440776
0.00476916
0.00465984
0.00436184
0.00424001
0.00421777
0.00412209
0.0041036
0.00421751
0.00436709
0.00435492
0.00422772
0.00413592
0.0041483
0.00421448
0.00407164
0.00412469
0.00424272
0.0042495
0.00413939
0.00408671
0.00422728
0.00460063
0.00424041
0.00417298
0.00424291
0.00423837
0.00416454
0.00424213
0.00462829
0.00473429
0.00424031
0.00416187
0.00424101
0.00424452
0.00416632
0.00423921
0.00473402
0.00425921
0.00404382
0.00410063
0.00424215
0.0042442
0.00412464
0.00408045
0.00429227
0.00418476
0.0041031
0.00426115
0.00452745
0.00448224
0.00424499
0.00414024
0.00424145
0.00427851
0.00423964
0.00447952
0.00524953
0.00494311
0.00439477
0.00425397
0.00434159
0.00430897
0.00425125
0.00439916
0.00476563
0.00464637
0.00434127
0.00427284
0.00437206
0.00423863
0.00416575
0.00422966
0.00435219
0.00433368
0.00423472
0.00420695
0.00429374
0.00431424
0.00414788
0.00418456
0.00427444
0.00428286
0.00420975
0.0041811
0.00435298
0.00481226
0.00436542
0.00431037
0.00439855
0.00439737
0.0043068
0.00436847
0.00483793
0.00480626
0.00431383
0.00425839
0.00433111
0.00433359
0.00428077
0.004357
0.00487327
0.0043314
0.00411648
0.00416997
0.00428663
0.00427498
0.00417766
0.00416738
0.00441159
0.00427733
0.00416887
0.0043065
0.00454449
0.00449038
0.00426209
0.00419109
0.00435759
0.00436657
0.00427333
0.00449432
0.00525126
0.00497656
0.00439662
0.00427027
0.00444434
0.00439806
0.00426253
0.00439713
0.00481054
0.0046814
0.00432367
0.00427269
0.00448246
0.00436175
0.00420384
0.00422492
0.00434553
0.004314
0.00421103
0.00424313
0.00444173
0.00445615
0.00423629
0.00422204
0.00427866
0.00427909
0.00424536
0.00428571
0.00452929
0.00502834
0.00451283
0.00443924
0.00450738
0.0045107
0.00445319
0.00454395
0.00511001
0.0049122
0.00440292
0.00432831
0.00437043
0.00437038
0.00435722
0.00448692
0.00508935
0.00441784
0.00418345
0.00421801
0.00430739
0.00429025
0.00420636
0.00422587
0.00453461
0.00434315
0.00421265
0.0043333
0.00454134
0.00450033
0.00427982
0.00420973
0.00442074
0.00439138
0.00428239
0.00450228
0.0051868
0.00502028
0.00441443
0.00425707
0.00444978
0.00440972
0.00425136
0.0044178
0.00491123
0.00479473
0.00433827
0.00423505
0.00447805
0.00442861
0.00419813
0.00422087
0.0043634
0.00432608
0.0041811
0.00421259
0.00451806
0.00460345
0.00427681
0.00420908
0.00424495
0.00423302
0.0042124
0.00432992
0.00471894
0.00532356
0.00465169
0.00449297
0.00449207
0.00449743
0.0045264
0.00473035
0.00553973
0.0049989
0.00446284
0.00435628
0.00436223
0.00436007
0.00437354
0.00454134
0.00522064
0.00447368
0.00422854
0.00424258
0.0043032
0.00429175
0.0042253
0.00424597
0.00457414
0.00436272
0.00423374
0.00434289
0.00452144
0.00450396
0.00430557
0.00421321
0.00440413
0.00435893
0.00427407
0.00450214
0.0050998
0.00504021
0.00444878
0.0042393
0.00437545
0.00435399
0.00424206
0.00445952
0.00502974
0.0049597
0.00440364
0.00420947
0.00437452
0.00439257
0.00418085
0.00425082
0.00441881
0.00439434
0.00420916
0.00416192
0.0044387
0.00462316
0.00424509
0.00418012
0.00421458
0.00420001
0.00415879
0.00426047
0.00472817
0.00546062
0.00465268
0.00442535
0.00437927
0.00437565
0.00443844
0.00473108
0.0057716
0.00502383
0.00449182
0.0043658
0.00434485
0.00434215
0.00437026
0.0045333
0.00516967
0.00449773
0.00425717
0.00425166
0.00428817
0.0042831
0.00423858
0.00425574
0.00454875
0.00436223
0.00424136
0.00433709
0.00449269
0.00449121
0.00432066
0.00421867
0.00436875
0.00432354
0.00426347
0.00449161
0.00502767
0.00502839
0.00447393
0.00423616
0.00431347
0.00430603
0.00424238
0.00448849
0.00510751
0.00508805
0.00446644
0.00421668
0.00429703
0.00433758
0.00418715
0.00429286
0.00447542
0.00446645
0.00427188
0.00416362
0.00433872
0.00453269
0.00421467
0.00417934
0.00421439
0.00420591
0.00415866
0.00420106
0.00456576
0.00525176
0.00454666
0.00434412
0.00429328
0.00428581
0.00433298
0.004565
0.00538429
0.00503401
0.00451808
0.00437705
0.00433668
0.00433328
0.00437174
0.00452643
0.00509166
0.00451647
0.00427624
0.00425032
0.00427154
0.00427007
0.00424085
0.00426344
0.0045253
0.00436306
0.00424149
0.0043217
0.00446458
0.00447184
0.0043201
0.00422308
0.00434871
0.00430603
0.00425637
0.00447663
0.00497731
0.00500746
0.00448289
0.0042414
0.00428704
0.00428591
0.00424508
0.00449816
0.00514424
0.00516337
0.00449911
0.00423223
0.0042698
0.00431361
0.0041993
0.00431752
0.00451091
0.0045105
0.00431162
0.00418504
0.00430002
0.00446915
0.00420944
0.00419157
0.00422909
0.00422539
0.00418012
0.00419267
0.00446219
0.00504656
0.00447099
0.00430418
0.00425814
0.00425238
0.00428954
0.00445822
0.0050655
0.00506559
0.00454533
0.00438798
0.00433507
0.00433128
0.00437584
0.00452951
0.00505722
0.00453601
0.00428537
0.00424363
0.00425892
0.00426014
0.00423815
0.00426689
0.00451545
0.00436688
0.00423751
0.00430706
0.00444674
0.00445922
0.00431658
0.00422578
0.00434213
0.0043021
0.00425306
0.00446627
0.00495153
0.00499525
0.00448765
0.00424935
0.00428214
0.00428354
0.00424987
0.00450232
0.00515913
0.00520134
0.00451695
0.00424744
0.00426841
0.00431071
0.00420961
0.00433135
0.00453236
0.00453659
0.00433369
0.0042033
0.00429556
0.00444698
0.00421464
0.00420472
0.00424671
0.00424576
0.00419958
0.00420201
0.00442868
0.00494479
0.0044408
0.00429378
0.00425273
0.00424917
0.0042823
0.00442202
0.00492467
0.00510813
0.0045643
0.00439198
0.00433383
0.0043309
0.00437879
0.00453492
0.00505501
0.00455009
0.00428577
0.00423639
0.00425305
0.00425687
0.00423654
0.00426832
0.00451349
0.00436929
0.00423278
0.00429912
0.00444194
0.00445725
0.00431654
0.00422942
0.00434314
0.00430421
0.0042537
0.00446401
0.00494725
0.00499546
0.00449323
0.0042588
0.00428792
0.00429
0.00425714
0.00450679
0.00516416
0.00521579
0.00452837
0.00426153
0.00427865
0.00431825
0.00421996
0.00434101
0.00454524
0.00455182
0.00434765
0.00421879
0.00430586
0.00444735
0.00422423
0.00421774
0.00426325
0.00426373
0.00421619
0.00421607
0.00442915
0.00491438
0.00443636
0.00429895
0.00426216
0.00426033
0.00429163
0.00442077
0.00488696
0.00514148
0.00457144
0.00439119
0.00433378
0.00433292
0.00438142
0.00454005
0.00506527
0.00455658
0.00428218
0.00423265
0.00425438
0.00426027
0.00423859
0.00427076
0.00451712
0.00437082
0.00423074
0.00429934
0.00444773
0.00446374
0.00432071
0.00423484
0.00434965
0.00431006
0.00425834
0.004469
0.004957
0.00500482
0.00450085
0.00426923
0.00429944
0.00430117
0.00426664
0.00451289
0.00516619
0.0052198
0.00453758
0.0042752
0.00429396
0.00433142
0.00423114
0.00434888
0.0045534
0.00456147
0.00435827
0.00423324
0.0043222
0.00445963
0.00423672
0.00423058
0.00427822
0.00427979
0.00423155
0.00423204
0.00444459
0.00492176
0.00444657
0.00431256
0.00427869
0.00427799
0.00430833
0.00443514
0.00489631
0.00516046
0.00457329
0.00439154
0.00433792
0.00433916
0.00438724
0.00454752
0.00508226
0.00456027
0.0042811
0.00423506
0.00426233
0.00426929
0.0042449
0.00427659
0.00452643
0.0043751
0.00423397
0.00430614
0.0044598
0.00447526
0.00432844
0.00424277
0.00436075
0.00432013
0.00426702
0.00447848
0.00497301
0.00501824
0.00451046
0.00428103
0.00431462
0.00431616
0.00427782
0.00452005
0.00516787
0.00522013
0.00454646
0.00428904
0.00431222
0.0043491
0.00424334
0.00435584
0.00455918
0.00456846
0.00436775
0.00424781
0.00434225
0.00448054
0.00425229
0.00424355
0.00429191
0.00429451
0.00424679
0.00425015
0.00446778
0.00495119
0.00446699
0.00433188
0.0042992
0.00429938
0.00432991
0.00445858
0.00492701
0.00517699
0.00457897
0.00439829
0.00434859
0.00435115
0.00439839
0.00456093
0.00510845
0.00456842
0.00428656
0.00424391
0.00427558
0.0042828
0.0042555
0.00428678
0.00454224
0.00438549
0.00424289
0.00431715
0.00447468
0.00448938
0.00433945
0.00425395
0.00437637
0.00433521
0.00427917
0.00449016
0.00499004
0.00503164
0.00452199
0.00429507
0.0043332
0.0043347
0.00429047
0.00452836
0.00517268
0.00522119
0.00455622
0.00430413
0.00433315
0.00437075
0.00425635
0.00436274
0.00456493
0.00457515
0.00437738
0.00426327
0.00436527
0.0045088
0.00427052
0.0042567
0.00430492
0.00430855
0.00426226
0.00427026
0.00449658
0.00499649
0.0044957
0.00435545
0.00432223
0.0043231
0.00435507
0.00448857
0.00497105
0.00520379
0.00459371
0.00441341
0.00436662
0.00436977
0.00441613
0.00458165
0.00514581
0.00458535
0.00429908
0.00425811
0.00429279
0.00430005
0.00427065
0.00430205
0.00456456
0.00440285
0.00425621
0.00433052
0.00449036
0.00450436
0.00435335
0.00426925
0.00439697
0.00435496
0.00429364
0.0045031
0.00500596
0.00504199
0.00453475
0.00431202
0.00435586
0.00435619
0.00430437
0.00453894
0.00518483
0.00522557
0.00456735
0.00432114
0.00435731
0.00439508
0.00426996
0.00437098
0.00457349
0.00458389
0.00438816
0.00428011
0.00439113
0.00454186
0.00428989
0.00427005
0.00431823
0.00432277
0.00427806
0.00429175
0.00452931
0.00505338
0.00452923
0.0043811
0.00434645
0.00434792
0.00438216
0.00452278
0.00502466
0.00524517
0.00461826
0.00443661
0.00439153
0.00439503
0.00444109
0.0046104
0.00519457
0.00461083
0.00431725
0.00427613
0.00431261
0.00432
0.00429002
0.00432305
0.00459391
0.00442547
0.00427232
0.00434527
0.0045058
0.00451864
0.0043687
0.00428863
0.00442339
0.00437767
0.00430973
0.00451774
0.00502099
0.00504786
0.00454726
0.00433134
0.00438311
0.00437919
0.00431971
0.00455356
0.00520726
0.00523419
0.00457954
0.00433985
0.00438493
0.00441996
0.0042841
0.0043824
0.00458736
0.00459648
0.00440071
0.00429835
0.00441967
0.00457547
0.00430857
0.00428384
0.00433307
0.0043383
0.00429448
0.00431394
0.00456445
0.0051139
0.00456283
0.00440633
0.00437057
0.00437279
0.00440944
0.00455828
0.00508345
0.00529914
0.00465092
0.00446616
0.00442171
0.00442572
0.00447281
0.00464785
0.00525626
0.00464201
0.00433908
0.00429639
0.0043336
0.00434106
0.00431203
0.00434937
0.00463125
0.00445081
0.00429023
0.00436114
0.0045207
0.00453123
0.00438352
0.00431048
0.0044556
0.00440169
0.0043277
0.00453496
0.005036
0.00505046
0.0045584
0.00435141
0.00441421
0.00440255
0.00433744
0.00457335
0.00523879
0.00524646
0.00459223
0.00435925
0.00441525
0.00444353
0.00429963
0.00439866
0.00460729
0.0046133
0.00441513
0.00431757
0.00445032
0.00460562
0.00432591
0.00429923
0.00435082
0.00435625
0.00431208
0.00433656
0.00460105
0.00516898
0.00459253
0.00442969
0.00439427
0.0043975
0.00443597
0.0045929
0.00514368
0.00536128
0.0046888
0.00449936
0.00445471
0.00445946
0.00450914
0.00469293
0.00533244
0.00467576
0.004363
0.00431779
0.00435466
0.00436172
0.00433443
0.00437881
0.0046758
0.00447727
0.00430994
0.00437833
0.00453541
0.00454259
0.00439675
0.0043324
0.00449155
0.00442683
0.0043484
0.00455486
0.00505168
0.0050539
0.00456868
0.00437067
0.00444694
0.00442683
0.00435879
0.00459743
0.00527324
0.00526175
0.00460558
0.00437845
0.00444659
0.0044663
0.00431842
0.00442002
0.00463143
0.00463309
0.00443116
0.00433732
0.00448199
0.00463146
0.0043437
0.00431803
0.00437223
0.00437701
0.00433137
0.00435974
0.00463844
0.00521371
0.00461801
0.00445233
0.00441873
0.00442294
0.00446228
0.00462628
0.00520339
0.00542832
0.00472944
0.00453375
0.00448785
0.00449314
0.00454646
0.00474199
0.00542097
0.004711
0.0043886
0.0043398
0.00437519
0.0043811
0.00435532
0.00440814
0.00472397
0.00450538
0.00433193
0.00439682
0.00455073
0.00455459
0.00440903
0.00435251
0.00452757
0.00445438
0.00437202
0.00457614
0.00506845
0.00506341
0.00458034
0.00438859
0.00447842
0.00445402
0.00438379
0.00462257
0.00530227
0.00528025
0.00462064
0.00439722
0.0044769
0.0044915
0.00434183
0.00444441
0.00465606
0.00465393
0.00444848
0.00435732
0.00451339
0.00465719
0.00436539
0.00434117
0.00439653
0.0043998
0.0043523
0.00438375
0.00467622
0.00525252
0.00464377
0.00447746
0.00444563
0.00445017
0.00448974
0.00465986
0.00526326
0.00550025
0.00477164
0.00456761
0.00451889
0.00452385
0.00458086
0.00478961
0.00551407
0.00474897
0.00441605
0.0043622
0.00439522
0.00439945
0.00437411
0.00443456
0.00477018
0.00453664
0.00435607
0.00441618
0.00456769
0.00456966
0.00442251
0.00437059
0.00456001
0.0044853
0.00439733
0.00459699
0.00508685
0.00508246
0.0045961
0.00440618
0.00450652
0.00448538
0.00441058
0.00464519
0.00532117
0.00530205
0.0046387
0.00441629
0.00450473
0.00452241
0.00436898
0.00446843
0.00467789
0.00467433
0.00446702
0.00437771
0.00454339
0.00468936
0.00439314
0.00436767
0.0044219
0.00442339
0.00437452
0.00440866
0.00471385
0.00529741
0.00467589
0.00450772
0.00447569
0.00447949
0.00451928
0.00469523
0.00532495
0.00557788
0.00481438
0.00459983
0.00454696
0.00455054
0.00461004
0.00483082
0.00559996
0.00479068
0.00444482
0.00438478
0.00441556
0.00441824
0.00439194
0.00445724
0.00480974
0.00457122
0.00438114
0.00443612
0.00458726
0.00458949
0.00443955
0.00438823
0.00458746
0.00451886
0.00442234
0.00461665
0.00510744
0.00511024
0.00461718
0.00442525
0.00453141
0.00451993
0.00443646
0.00466403
0.0053326
0.00532598
0.00465996
0.00443673
0.00453045
0.00455914
0.00439703
0.0044896
0.00469598
0.0046936
0.00448664
0.00439893
0.00457193
0.00473132
0.0044258
0.00439505
0.00444645
0.00444666
0.00439749
0.00443443
0.00475095
0.0053587
0.00471723
0.00454309
0.0045082
0.00451047
0.00455087
0.00473295
0.00538913
0.00565849
0.00485588
0.00463023
0.00457325
0.00457493
0.00463503
0.00486415
0.00566954
0.00483435
0.00447363
0.00440784
0.00443747
0.00443931
0.00441121
0.00447797
0.00484182
0.00460699
0.00440591
0.00445698
0.00460956
0.00461359
0.00446121
0.00440786
0.00461177
0.00455266
0.00444591
0.00463608
0.00512991
0.00514123
0.00464228
0.00444718
0.00455547
0.00455469
0.00445993
0.00468102
0.00534488
0.00535056
0.00468312
0.00445915
0.00455591
0.00459813
0.00442313
0.00450783
0.00471208
0.00471201
0.00450685
0.0044213
0.00460003
0.00478014
0.00445955
0.00442078
0.0044689
0.00446873
0.00442057
0.00446092
0.00478746
0.00543679
0.0047651
0.00458075
0.00454114
0.00454181
0.00458358
0.00477228
0.00545458
0.00573643
0.00489523
0.00466024
0.00460039
0.00460057
0.00465999
0.00489333
0.00572424
0.00487673
0.00450197
0.0044322
0.00446166
0.00446358
0.00443419
0.0045004
0.00487055
0.00464137
0.00443032
0.00447927
0.00463335
0.00463929
0.00448643
0.00443128
0.00463705
0.00458443
0.00446854
0.0046568
0.00515258
0.00516782
0.00466811
0.00447188
0.00458164
0.00458675
0.00448154
0.00469973
0.00536673
0.00537606
0.00470645
0.00448301
0.00458303
0.00463453
0.00444615
0.00452521
0.00472974
0.00473124
0.00452715
0.00444447
0.004629
0.00482846
0.00449031
0.00444344
0.00448921
0.00448936
0.00444291
0.00448756
0.00482385
0.00552115
0.00481288
0.00461643
0.00457179
0.0045715
0.00461561
0.00481164
0.00551976
0.00580867
0.00493401
0.00469243
0.00463097
0.0046306
0.00468969
0.00492542
0.0057766
0.0049163
0.00453082
0.00445863
0.004488
0.00449052
0.00446146
0.00452777
0.00490244
0.00467365
0.00445532
0.00450283
0.00465665
0.00466332
0.0045125
0.00445848
0.00466694
0.00461388
0.00449175
0.00467948
0.00517307
0.0051851
0.00469169
0.00449806
0.00461143
0.00461533
0.0045034
0.00472301
0.00540277
0.00540441
0.00472931
0.00450748
0.0046124
0.00466538
0.00446718
0.00454468
0.00475273
0.00475392
0.00454804
0.00446791
0.00465918
0.00486911
0.00451595
0.00446355
0.00450895
0.00450964
0.00446427
0.00451339
0.00485989
0.00559569
0.00485352
0.00464652
0.00459822
0.00459786
0.00464471
0.00484838
0.0055819
0.00587931
0.00497566
0.00472889
0.0046664
0.00466639
0.00472658
0.00496623
0.00584209
0.00495492
0.00456158
0.004487
0.00451568
0.00451882
0.00449169
0.00456087
0.00494232
0.00470529
0.00448154
0.00452667
0.00467795
0.00468381
0.00453691
0.00448788
0.00470254
0.00464278
0.00451674
0.00470364
0.00519009
0.00519387
0.00471209
0.00452449
0.00464463
0.00464235
0.00452756
0.0047514
0.0054511
0.00543654
0.0047522
0.00453226
0.00464363
0.00469145
0.00448847
0.0045684
0.00478285
0.00478183
0.00457055
0.00449151
0.00469003
0.00489965
0.00453732
0.00448339
0.00453086
0.00453181
0.00448561
0.00453793
0.00489461
0.00564849
0.00488347
0.00467026
0.00462104
0.00462131
0.00467003
0.0048802
0.00563698
0.00595743
0.00502248
0.00476963
0.00470609
0.00470693
0.00476978
0.00501732
0.00593136
0.00499521
0.00459422
0.00451616
0.00454346
0.00454683
0.00452245
0.00459766
0.00499072
0.00473796
0.00450878
0.00455011
0.00469734
0.0047013
0.0045587
0.00451729
0.00474222
0.00467322
0.00454377
0.0047286
0.00520504
0.00519979
0.0047306
0.0045506
0.00468009
0.00467056
0.00455486
0.0047833
0.00550422
0.0054715
0.00477604
0.0045577
0.00467626
0.0047161
0.00451209
0.00459668
0.00481874
0.00481442
0.00459533
0.00451574
0.00472109
0.00492348
0.00455763
0.00450575
0.0045572
0.00455784
0.00450852
0.00456192
0.00492766
0.00568074
0.00490525
0.00469093
0.00464379
0.00464487
0.00469337
0.00490754
0.00568379
0.00604765
0.00507338
0.00481257
0.00474751
0.0047492
0.00481563
0.0050749
0.00604441
0.005038
0.00462773
0.0045451
0.00457052
0.00457353
0.00455168
0.00463465
0.00504387
0.00477246
0.00453677
0.00457346
0.00471656
0.00471832
0.00457879
0.00454514
0.00478287
0.00470624
0.00457252
0.00475422
0.00522151
0.00521008
0.00474972
0.00457624
0.00471612
0.0047019
0.00458506
0.00481637
0.00555269
0.00550782
0.00480175
0.00458409
0.0047098
0.00474317
0.00453935
0.00462824
0.00485649
0.00484922
0.00462239
0.00454125
0.00475269
0.00494721
0.00458073
0.00453245
0.00458809
0.00458783
0.00453414
0.00458695
0.00496049
0.00570559
0.00492622
0.00471405
0.00467056
0.00467204
0.00471841
0.00493421
0.00572723
0.00614668
0.00512523
0.00485516
0.00478799
0.00478999
0.00485981
0.00513202
0.00616839
0.0050826
0.00466143
0.00457366
0.00459713
0.0045993
0.00457884
0.00466905
0.00509577
0.00480906
0.0045657
0.00459764
0.00473802
0.00473819
0.00459936
0.00457131
0.0048214
0.00474233
0.00460293
0.00478098
0.00524345
0.00523038
0.0047723
0.00460222
0.00475119
0.00473751
0.00461769
0.00484877
0.00558979
0.005544
0.00483044
0.0046122
0.00474378
0.00477575
0.00457071
0.00466111
0.00489217
0.00488381
0.00465189
0.00456898
0.00478537
0.00497729
0.00460962
0.00456381
0.0046222
0.00462093
0.00456318
0.00461462
0.00499487
0.00573889
0.00495405
0.00474403
0.00470361
0.00470474
0.0047482
0.00496443
0.00577399
0.00624736
0.00517529
0.00489575
0.00482634
0.00482786
0.00489957
0.00518273
0.00628408
0.00512825
0.00469516
0.00460221
0.00462458
0.0046258
0.00460491
0.00470017
0.005142
0.00484812
0.00459583
0.00462359
0.00476415
0.00476382
0.00462289
0.00459723
0.004857
0.00478207
0.00463514
0.00480988
0.00527417
0.00526329
0.00480051
0.00463043
0.00478591
0.00477811
0.00465231
0.00488009
0.00561534
0.00557783
0.00486259
0.00464337
0.00477925
0.00481539
0.00460551
0.00469354
0.00492385
0.00491655
0.0046837
0.00460011
0.00482048
0.00501777
0.00464523
0.00459897
0.00465823
0.00465645
0.0045962
0.00464658
0.00503271
0.00579195
0.00499329
0.00478271
0.00474371
0.00474406
0.00478479
0.00500134
0.00582887
0.00634515
0.00522208
0.00493409
0.00486356
0.00486407
0.00493516
0.00522547
0.00638016
0.00517426
0.00472882
0.00463172
0.00465502
0.00465563
0.00463216
0.00472962
0.00518265
0.00488945
0.00462746
0.00465276
0.0047969
0.004797
0.00465151
0.00462544
0.004892
0.00482575
0.0046698
0.00484258
0.00531497
0.0053073
0.00483489
0.00466305
0.00482342
0.00482386
0.0046891
0.00491176
0.00563501
0.00560689
0.00489745
0.00467895
0.00481918
0.00486161
0.0046427
0.00472513
0.00495211
0.00494677
0.00471691
0.00463543
0.00486055
0.00506883
0.00468648
0.00463664
0.00469537
0.00469372
0.00463302
0.00468422
0.0050769
0.00586944
0.0050447
0.00482999
0.00479102
0.00479066
0.0048296
0.00504774
0.00589781
0.00643992
0.00526638
0.00497227
0.00490306
0.00490267
0.00497054
0.00526427
0.00646298
0.0052205
0.00476325
0.00466427
0.00469098
0.00469147
0.00466373
0.004761
0.00522262
0.0049328
0.00466159
0.0046868
0.0048367
0.00483737
0.00468617
0.00465843
0.00493062
0.00487328
0.00470795
0.00488037
0.00536349
0.00535699
0.00487413
0.00470118
0.00486722
0.0048745
0.00472868
0.00494596
0.00565712
0.00563263
0.0049338
0.00471907
0.00486646
0.00491309
0.00468175
0.00475695
0.00497995
0.00497588
0.00475066
0.00467469
0.00490806
0.00512827
0.00473157
0.00467579
0.00473345
0.00473224
0.00467255
0.00472765
0.00513046
0.00597092
0.00510637
0.00488413
0.00484444
0.0048438
0.00488225
0.00510509
0.0059885
0.00653912
0.00531284
0.00501525
0.00494976
0.004949
0.00501209
0.00530752
0.00655472
0.00526879
0.00480124
0.00470265
0.00473402
0.00473461
0.00470217
0.00479841
0.0052689
0.00497906
0.00470022
0.00472658
0.00488157
0.00488222
0.00472625
0.00469748
0.00497632
0.00492503
0.00475083
0.00492314
0.00541427
0.00540589
0.00491623
0.0047443
0.00491862
0.00492954
0.00477181
0.00498452
0.00568897
0.00566145
0.00497158
0.00476259
0.0049212
0.00496819
0.00472265
0.00479094
0.00501154
0.00500744
0.00478538
0.00471669
0.00496294
0.00519288
0.00477851
0.00471572
0.00477277
0.00477198
0.00471342
0.00477507
0.00519384
0.0060924
0.00517426
0.00494163
0.00490095
0.00490047
0.00493967
0.00517138
0.00610565
0.00666155
0.0053703
0.00506881
0.0050069
0.00500601
0.00506515
0.00536426
0.00668236
0.00532497
0.00484683
0.00474835
0.00478296
0.00478347
0.00474788
0.00484451
0.00532706
0.00503154
0.00474502
0.00477106
0.00492801
0.00492803
0.00477015
0.00474258
0.00503056
0.00498201
0.00479837
0.00496912
0.00546278
0.00545072
0.00496003
0.00479125
0.0049765
0.00498818
0.00481827
0.00502802
0.00573436
0.00569969
0.00501226
0.00480838
0.00498069
0.00502552
0.0047655
0.00482915
0.00505066
0.00504554
0.00482298
0.0047602
0.00502229
0.00525961
0.00482566
0.00475669
0.00481457
0.00481397
0.00475519
0.0048238
0.00526365
0.00622632
0.00524272
0.00499831
0.00495723
0.00495725
0.00499744
0.00524106
0.00624486
0.00682933
0.00544504
0.00513436
0.00507241
0.00507118
0.00512999
0.00543869
0.00686588
0.00539442
0.00490143
0.00479994
0.00483462
0.00483479
0.00479896
0.00489916
0.00539884
0.00509239
0.00479551
0.00481853
0.00497428
0.00497334
0.00481668
0.00479288
0.00509288
0.0050435
0.00484906
0.00501717
0.00550962
0.00549286
0.00500567
0.00484129
0.00503891
0.00504857
0.00486714
0.00507619
0.00579233
0.00574771
0.0050571
0.00485637
0.00504201
0.00508383
0.00481081
0.004873
0.00509828
0.00509154
0.00486554
0.00480557
0.00508276
0.00532645
0.00487325
0.00480046
0.00486054
0.00485983
0.00479928
0.00487282
0.00533493
0.00636424
0.00530852
0.0050534
0.0050129
0.00501341
0.0050539
0.00530927
0.00639463
0.00704347
0.00553429
0.00520735
0.00514046
0.00513883
0.00520237
0.00552817
0.00711115
0.00547579
0.00496232
0.00485463
0.00488655
0.00488628
0.00485325
0.00496042
0.00548297
0.00515957
0.00484966
0.00486851
0.00502162
0.00501925
0.0048656
0.00484741
0.00516217
0.00510658
0.00490144
0.00506808
0.00555988
0.0055361
0.00505338
0.00489372
0.00510432
0.00510856
0.00491779
0.00512884
0.00585925
0.00580018
0.0051055
0.00490674
0.00510429
0.00514299
0.00485958
0.00492273
0.00515228
0.00514318
0.00491356
0.00485455
0.0051446
0.00539431
0.00492369
0.00484914
0.00491106
0.00490993
0.00484784
0.0049245
0.00540749
0.00650382
0.00537446
0.00511039
0.00507
0.00507072
0.00511184
0.00537761
0.0065499
0.00728309
0.00562863
0.00528129
0.00520615
0.00520452
0.00527714
0.00562616
0.00741414
0.00556192
0.00502528
0.00491051
0.00493834
0.00493757
0.00490921
0.0050256
0.00557617
0.00522856
0.00490573
0.00492151
0.00507219
0.00506753
0.00491676
0.00490464
0.00523619
0.00516841
0.00495519
0.00512335
0.00561788
0.0055837
0.00510323
0.00494754
0.00517089
0.00516733
0.0049705
0.00518595
0.00593164
0.0058526
0.0051562
0.00495927
0.00516771
0.00520399
0.00491262
0.00497768
0.00521001
0.00519752
0.00496592
0.00490826
0.00521045
0.00546588
0.00497927
0.00490338
0.0049653
0.00496343
0.0049017
0.00498185
0.00548584
0.00665095
0.00544566
0.00517257
0.00512991
0.00513063
0.00517477
0.0054519
0.00672123
0.00752086
0.00571874
0.00535154
0.0052679
0.00526668
0.00534983
0.00572447
0.00775771
0.00564521
0.00508722
0.0049667
0.00499081
0.0049893
0.00496539
0.00509119
0.00567222
0.00529574
0.00496269
0.00497758
0.00512698
0.00511923
0.00496957
0.00496246
0.00531093
0.00522856
0.00501078
0.00518324
0.00568418
0.00563748
0.00515526
0.00500191
0.00523706
0.00522603
0.00502584
0.00524705
0.00600726
0.00590559
0.00520866
0.00501339
0.00523234
0.00526749
0.00496943
0.00503627
0.0052698
0.00525309
0.00502064
0.00496547
0.00528094
0.00554199
0.00503969
0.00496171
0.00502214
0.00501918
0.00495925
0.00504469
0.00557223
0.00681269
0.00552338
0.00523968
0.00519269
0.00519333
0.00524294
0.00553455
0.00692239
0.00774641
0.00579886
0.0054158
0.00532571
0.00532478
0.00541649
0.00581413
0.00810542
0.00572038
0.00514582
0.00502191
0.00504365
0.0050411
0.00501971
0.00515273
0.00576173
0.00535886
0.00501906
0.00503504
0.00518469
0.00517374
0.00502276
0.00501813
0.00538089
0.0052875
0.00506755
0.00524585
0.00575627
0.00569796
0.00520933
0.00505558
0.00530024
0.00528498
0.00508294
0.00531058
0.00608529
0.00596345
0.00526291
0.00506747
0.00529564
0.00533118
0.00502732
0.00509614
0.00533062
0.00530973
0.00507572
0.00502249
0.00535113
0.00561801
0.00510078
0.00502064
0.00507959
0.00507523
0.00501667
0.00510776
0.00565992
0.0069846
0.0056019
0.00530722
0.00525595
0.00525635
0.0053115
0.00561905
0.00715065
0.00794499
0.00586138
0.00546941
0.00537576
0.0053746
0.00547086
0.00588295
0.00843584
0.00578059
0.00519679
0.00507258
0.00509351
0.00508976
0.00506854
0.00520428
0.00583164
0.00541334
0.00507123
0.00509067
0.00524226
0.00522882
0.00507432
0.005068
0.0054384
0.00534106
0.00512169
0.00530772
0.00583142
0.00576473
0.00526432
0.00510559
0.00535423
0.00533939
0.0051379
0.00537343
0.00616603
0.00602953
0.00531823
0.00511821
0.00535046
0.0053884
0.00508213
0.00515466
0.00539083
0.00536683
0.00512972
0.00507479
0.00541108
0.00568307
0.00515605
0.00507587
0.00513405
0.00512829
0.00506967
0.00516311
0.00573296
0.00713144
0.00566926
0.00536724
0.00531319
0.00531305
0.00537155
0.00569062
0.00735521
0.00803571
0.00588983
0.00550119
0.0054076
0.00540583
0.00550173
0.00591231
0.00874442
0.00581109
0.00523143
0.00511169
0.00513335
0.00512873
0.00510572
0.00523747
0.0058638
0.0054483
0.00511205
0.00513873
0.00529402
0.00527932
0.00511988
0.00510629
0.00547242
0.00537771
0.00516529
0.0053627
0.0059045
0.00583241
0.00531556
0.0051461
0.00538872
0.00537736
0.00518232
0.0054289
0.00624603
0.00609902
0.0053695
0.0051594
0.0053861
0.00542749
0.00512632
0.00520548
0.00544421
0.00541875
0.00517782
0.00511621
0.0054487
0.00572144