/*--------------------------------*- C++ -*----------------------------------*\
| =========                 |                                                 |
| \\      /  F ield         | OpenFOAM: The Open Source CFD Toolbox           |
|  \\    /   O peration     | Version:  2406                                  |
|   \\  /    A nd           | Website:  www.openfoam.com                      |
|    \\/     M anipulation  |                                                 |
\*---------------------------------------------------------------------------*/
FoamFile
{
    version     2.0;
    format      ascii;
    arch        "LSB;label=32;scalar=64";
    class       volScalarField;
    location    "0.1";
    object      p;
}
// * * * * * * * * * * * * * * * * * * * * * * * * * * * * * * * * * * * * * //

dimensions      [0 2 -2 0 0 0 0];

internalField   nonuniform List<scalar> 
16000
(
26.476
26.4
26.4296
26.4589
26.3991
26.2743
26.1936
26.2391
26.4118
26.6908
27.2888
27.7187
27.6072
27.0036
26.356
26.097
26.4515
27.2967
28.5783
29.3884
29.2249
28.1548
26.7993
26.0468
26.4861
27.7168
29.3608
30.3351
30.1412
28.8507
27.1168
26.0227
26.4239
27.5945
29.1633
30.0893
29.8919
28.6467
26.9887
25.9614
26.2954
26.9988
28.0981
28.7814
28.6115
27.6615
26.4907
25.8874
26.2057
26.3629
26.7834
27.0868
26.9706
26.4895
26.0275
25.8961
26.2422
26.1032
26.0535
26.0298
25.9716
25.8984
25.9021
26.009
7.41469
6.83373
6.64768
6.63627
6.5871
6.53166
6.71307
7.3155
6.89832
6.77224
7.10747
7.42369
7.33262
6.88188
6.51367
6.69739
6.7875
7.18353
8.06843
8.70579
8.56992
7.73288
6.80495
6.48256
6.83782
7.56549
8.75929
9.54223
9.37611
8.34479
7.09517
6.45671
6.83575
7.53731
8.67222
9.40932
9.23801
8.24603
7.04973
6.44285
6.80133
7.14267
7.90523
8.43223
8.28572
7.54176
6.72661
6.4808
6.97246
6.79183
7.04105
7.26161
7.15739
6.78451
6.50257
6.76805
7.54352
6.94304
6.71688
6.6554
6.59893
6.59048
6.8207
7.46922
3.02841
2.71265
2.64975
2.66751
2.67188
2.6555
2.7541
3.10644
2.7493
2.62036
2.77061
2.95798
2.95736
2.77279
2.62987
2.80149
2.71204
2.82528
3.22356
3.54828
3.53101
3.18913
2.80464
2.76553
2.75695
3.03865
3.57037
3.93787
3.91187
3.50011
2.98098
2.791
2.77694
3.06347
3.57361
3.92623
3.89158
3.4928
3.00505
2.81496
2.78172
2.9113
3.27309
3.54415
3.51322
3.21202
2.88
2.84835
2.88326
2.79085
2.92271
3.05704
3.04404
2.89339
2.78074
2.94184
3.19872
2.91866
2.86343
2.85903
2.86367
2.87389
2.96543
3.29787
7.47859
7.42224
7.47723
7.53137
7.5515
7.54055
7.50028
7.56593
7.37683
7.32071
7.40185
7.48473
7.51101
7.46981
7.41367
7.48708
7.37014
7.33519
7.43496
7.51923
7.5347
7.48067
7.41118
7.4835
7.37407
7.36528
7.45133
7.52805
7.54288
7.49416
7.43677
7.48699
7.37721
7.35309
7.41058
7.48391
7.50165
7.46261
7.43433
7.49322
7.35672
7.29112
7.32747
7.39631
7.41903
7.39181
7.38497
7.47276
7.33009
7.24493
7.25656
7.31235
7.34263
7.3362
7.35926
7.45598
7.40851
7.32685
7.32988
7.34664
7.37015
7.39028
7.42065
7.51189
10.9842
11.1162
11.2062
11.2308
11.2255
11.1806
11.0655
10.9239
11.0514
11.1604
11.218
11.2079
11.1868
11.1591
11.0807
10.9765
11.0725
11.1399
11.1476
11.1052
11.0715
11.0543
11.0191
10.969
11.0465
11.0582
11.0215
10.9688
10.9431
10.9423
10.9451
10.939
11.0061
10.9784
10.9189
10.8763
10.8604
10.867
10.894
10.9142
10.9477
10.9187
10.8629
10.8349
10.8266
10.8336
10.8627
10.8811
10.8496
10.8503
10.8209
10.8092
10.8124
10.8198
10.8267
10.8112
10.7409
10.7849
10.7943
10.7953
10.8004
10.796
10.766
10.7088
12.3965
12.5722
12.6507
12.6455
12.6085
12.5576
12.4414
12.2647
12.528
12.7213
12.7695
12.7219
12.6644
12.618
12.5256
12.3467
12.568
12.7236
12.7308
12.6646
12.6078
12.5748
12.5106
12.3643
12.5326
12.6286
12.6152
12.551
12.507
12.4886
12.4492
12.344
12.4726
12.5326
12.5192
12.4722
12.4396
12.4237
12.3899
12.3081
12.4039
12.4667
12.4661
12.4402
12.4116
12.3845
12.344
12.2603
12.2964
12.3778
12.3963
12.3856
12.3623
12.3294
12.2786
12.1819
12.1441
12.2267
12.2639
12.2703
12.257
12.222
12.1569
12.0606
12.8086
12.9418
12.9891
12.9836
12.9533
12.9115
12.8423
12.7151
12.9219
13.0821
13.1119
13.0819
13.0468
13.0197
12.9563
12.8005
12.9586
13.1023
13.1094
13.0723
13.0488
13.0468
13.002
12.8484
12.9367
13.0505
13.0608
13.0286
13.0152
13.028
12.9901
12.8529
12.8897
13.0008
13.0331
13.0143
13.0086
13.0152
12.9585
12.8234
12.8424
12.966
13.0315
13.0358
13.0279
13.0055
12.92
12.7808
12.7704
12.8967
12.9734
12.9924
12.976
12.9334
12.8417
12.709
12.6503
12.7466
12.8139
12.8385
12.8255
12.7816
12.7048
12.603
12.4666
12.5173
12.5221
12.5187
12.5204
12.5265
12.5253
12.4699
12.5228
12.5952
12.5846
12.5805
12.5922
12.6215
12.6291
12.5436
12.5425
12.6101
12.6003
12.5957
12.6179
12.6672
12.6871
12.5915
12.5398
12.6112
12.6147
12.6173
12.6445
12.6955
12.7073
12.6053
12.5338
12.6276
12.6598
12.6702
12.7011
12.7439
12.7219
12.602
12.5336
12.6571
12.725
12.7474
12.7738
12.7912
12.7287
12.5884
12.5201
12.6515
12.7275
12.7571
12.7677
12.7554
12.6801
12.547
12.4589
12.5491
12.6131
12.6373
12.6392
12.6183
12.5587
12.4701
11.4198
11.4045
11.379
11.3752
11.3927
11.4323
11.4815
11.4997
11.4251
11.4093
11.3814
11.381
11.4103
11.4658
11.5273
11.5336
11.4279
11.4154
11.3981
11.4092
11.4463
11.5028
11.5595
11.5578
11.4371
11.4426
11.4459
11.4711
11.5122
11.5605
11.5971
11.5737
11.4624
11.4978
11.5235
11.556
11.6002
11.6435
11.6502
11.5952
11.5049
11.568
11.6104
11.6449
11.6871
11.7207
11.7018
11.6237
11.5451
11.618
11.6608
11.6869
11.7171
11.7383
11.7143
11.6371
11.5578
11.6028
11.632
11.6454
11.6595
11.6715
11.6572
11.6216
10.1525
10.1018
10.0659
10.0553
10.0683
10.1046
10.1615
10.2213
10.1287
10.0707
10.0371
10.0336
10.0536
10.0936
10.1522
10.2186
10.1198
10.0695
10.0542
10.0666
10.0928
10.126
10.1679
10.2227
10.1286
10.0989
10.107
10.1358
10.166
10.1899
10.2089
10.2373
10.1573
10.1511
10.1768
10.2135
10.2463
10.2658
10.2668
10.2674
10.2047
10.2134
10.2426
10.2788
10.3114
10.3293
10.3249
10.3105
10.2629
10.2728
10.2881
10.3106
10.3374
10.3592
10.3655
10.3543
10.3137
10.3172
10.3203
10.3266
10.3415
10.3618
10.3773
10.3819
9.12516
9.07881
9.05171
9.0428
9.0488
9.07016
9.10976
9.16575
9.10228
9.04742
9.02255
9.01922
9.02952
9.05134
9.0905
9.1542
9.09488
9.04552
9.03579
9.04461
9.05929
9.07518
9.10038
9.15419
9.10123
9.06898
9.07651
9.09796
9.11551
9.124
9.13136
9.16602
9.1214
9.10592
9.12595
9.15356
9.17257
9.17728
9.17223
9.18862
9.15381
9.14672
9.16825
9.19546
9.21419
9.21746
9.2112
9.21999
9.19741
9.18929
9.19918
9.21659
9.23203
9.23916
9.24465
9.25727
9.24954
9.24121
9.23951
9.2438
9.2531
9.26493
9.27876
9.29674
8.40675
8.37952
8.36609
8.36277
8.36577
8.37574
8.39581
8.43007
8.3953
8.36105
8.34636
8.34653
8.35256
8.3644
8.38634
8.42601
8.39187
8.36073
8.35388
8.35917
8.36763
8.37676
8.3925
8.42669
8.39708
8.37499
8.37809
8.39027
8.40014
8.40507
8.41135
8.43471
8.4092
8.39757
8.40821
8.42362
8.43391
8.43633
8.43576
8.44827
8.42763
8.42238
8.43397
8.44956
8.45964
8.46019
8.45746
8.46623
8.45217
8.44833
8.4553
8.46636
8.47466
8.476
8.47749
8.48742
8.48658
8.48329
8.48333
8.48683
8.49196
8.49738
8.50402
8.51534
7.85876
7.84676
7.84369
7.84429
7.84615
7.84934
7.85631
7.8733
7.85449
7.83774
7.83319
7.83478
7.83848
7.84369
7.85343
7.87345
7.85265
7.83681
7.83417
7.83807
7.84275
7.84712
7.85508
7.87308
7.85556
7.84327
7.8444
7.85077
7.85604
7.85909
7.86353
7.87715
7.86173
7.85437
7.85795
7.86548
7.87096
7.87314
7.87522
7.88438
7.86973
7.86663
7.87079
7.87812
7.88334
7.88487
7.8861
7.89289
7.88136
7.88044
7.88286
7.88831
7.89287
7.89538
7.89673
7.90281
7.90041
7.90001
7.89961
7.90164
7.90486
7.90848
7.91232
7.91866
7.40317
7.39806
7.39897
7.40119
7.40236
7.40227
7.40252
7.41202
7.399
7.39133
7.39216
7.39506
7.39702
7.39793
7.40086
7.41043
7.39511
7.38798
7.38962
7.39364
7.39612
7.39668
7.39851
7.40726
7.39433
7.3878
7.39012
7.3947
7.39776
7.39872
7.40001
7.40766
7.39541
7.38961
7.39132
7.396
7.3995
7.40108
7.4031
7.41003
7.39758
7.3924
7.39277
7.39713
7.40081
7.40283
7.40615
7.41322
7.40167
7.39821
7.3971
7.39984
7.4031
7.40613
7.41093
7.41765
7.41353
7.41035
7.40771
7.40854
7.41119
7.41504
7.42083
7.42689
7.0314
7.02898
7.03164
7.03541
7.03698
7.03672
7.03622
7.04166
7.02468
7.02193
7.02603
7.03055
7.03268
7.0323
7.03172
7.0371
7.01925
7.01671
7.02163
7.02726
7.03018
7.02986
7.02865
7.03263
7.01539
7.01215
7.01658
7.02222
7.02596
7.02701
7.02675
7.03096
7.01292
7.00808
7.01026
7.01543
7.01984
7.02244
7.02461
7.03016
7.01152
7.00441
7.00437
7.00893
7.01366
7.01735
7.02205
7.0296
7.01295
7.00586
7.00349
7.00618
7.01045
7.0152
7.02186
7.03059
7.02155
7.01521
7.01135
7.01225
7.01561
7.02055
7.02775
7.03728
6.7541
6.75285
6.75625
6.76006
6.76229
6.76267
6.7622
6.76605
6.74591
6.74546
6.75089
6.75633
6.75956
6.75994
6.7587
6.76115
6.73914
6.7393
6.74571
6.75269
6.75721
6.75817
6.75668
6.7577
6.73425
6.73301
6.73867
6.74555
6.75106
6.75381
6.75387
6.75593
6.73043
6.72645
6.72972
6.73588
6.74204
6.74656
6.74938
6.75376
6.72777
6.7211
6.72159
6.72699
6.73323
6.73864
6.74414
6.75114
6.72807
6.72036
6.7187
6.72228
6.72771
6.73356
6.74073
6.7495
6.73549
6.72744
6.72431
6.72628
6.73016
6.73548
6.74298
6.75309
6.55993
6.55964
6.563
6.56644
6.56872
6.56957
6.5695
6.57226
6.55302
6.55419
6.55941
6.56441
6.56793
6.5691
6.5682
6.56876
6.54836
6.55028
6.55614
6.56234
6.56695
6.56874
6.56792
6.56723
6.54532
6.54604
6.55112
6.55694
6.56232
6.56565
6.56607
6.5663
6.5428
6.54112
6.54447
6.54951
6.5553
6.56004
6.56235
6.56472
6.54077
6.53696
6.53863
6.54343
6.54903
6.5539
6.55786
6.56229
6.54064
6.53573
6.53609
6.53988
6.54477
6.54937
6.55413
6.56009
6.54618
6.54011
6.53916
6.54158
6.54491
6.54856
6.55371
6.5615
6.43123
6.42984
6.43066
6.43151
6.43202
6.43214
6.43223
6.43462
6.42712
6.42756
6.42961
6.43127
6.43245
6.43259
6.43189
6.43224
6.42616
6.42789
6.43021
6.43218
6.43341
6.43345
6.43273
6.43208
6.4265
6.42807
6.43006
6.43138
6.43285
6.43359
6.43306
6.43264
6.42652
6.42728
6.42902
6.42982
6.43144
6.43288
6.43264
6.43296
6.42589
6.42606
6.42809
6.42975
6.43122
6.43204
6.43188
6.43278
6.42549
6.4248
6.42685
6.42907
6.43071
6.43116
6.43101
6.43262
6.42873
6.42582
6.4267
6.42858
6.42972
6.42982
6.43054
6.43422
6.34217
6.33893
6.33672
6.33479
6.3332
6.33209
6.33214
6.3348
6.34211
6.34076
6.33896
6.33646
6.33402
6.33198
6.33107
6.33238
6.34568
6.34627
6.34427
6.34071
6.33685
6.33365
6.33235
6.3327
6.34981
6.3515
6.34964
6.34511
6.34083
6.33739
6.33514
6.33463
6.35252
6.35532
6.35465
6.34998
6.34567
6.34223
6.33872
6.33708
6.35336
6.35717
6.35861
6.35594
6.35179
6.34729
6.34244
6.33971
6.35277
6.35589
6.3586
6.35816
6.35541
6.35091
6.34552
6.34262
6.35379
6.35363
6.35542
6.35604
6.35459
6.35099
6.34712
6.34636
6.27971
6.27433
6.26979
6.26605
6.26293
6.26061
6.26029
6.26308
6.28209
6.27856
6.27398
6.26872
6.26357
6.25962
6.25816
6.26029
6.28774
6.2865
6.28152
6.27449
6.26723
6.26169
6.25963
6.26073
6.29335
6.29409
6.28965
6.2815
6.27349
6.26739
6.26395
6.26344
6.2971
6.30031
6.29779
6.28975
6.28166
6.27522
6.26983
6.26699
6.29854
6.30375
6.30409
6.29858
6.29091
6.28322
6.27582
6.27092
6.29787
6.30251
6.3047
6.30211
6.2964
6.28907
6.281
6.27552
6.29765
6.29844
6.2999
6.29926
6.29615
6.2908
6.28463
6.28125
6.23267
6.22746
6.22396
6.22156
6.21922
6.21699
6.21635
6.21844
6.23556
6.23213
6.22884
6.22492
6.22043
6.21661
6.21466
6.21617
6.24051
6.23927
6.23556
6.22995
6.22386
6.21915
6.21681
6.21704
6.24526
6.24578
6.24236
6.23555
6.22891
6.22426
6.22113
6.21973
6.24839
6.25132
6.24928
6.24248
6.23578
6.23095
6.2264
6.22265
6.2497
6.25439
6.2546
6.24994
6.24361
6.23745
6.23104
6.22537
6.24934
6.25344
6.25514
6.25276
6.24774
6.24158
6.23454
6.22867
6.24925
6.24964
6.25066
6.25001
6.24736
6.24296
6.23772
6.23408
6.20309
6.19969
6.19908
6.19936
6.19876
6.19728
6.19628
6.19705
6.20374
6.20229
6.20281
6.20273
6.20128
6.19906
6.19662
6.19619
6.20509
6.20532
6.20565
6.20485
6.20337
6.20179
6.19949
6.19756
6.20632
6.20744
6.20739
6.20548
6.20407
6.20379
6.20211
6.19934
6.20709
6.2093
6.20932
6.20703
6.20561
6.20573
6.20405
6.20022
6.20727
6.21013
6.21094
6.20979
6.20839
6.20721
6.20455
6.20002
6.20725
6.20931
6.21072
6.21038
6.20887
6.20687
6.2037
6.19983
6.20836
6.20742
6.20802
6.20818
6.20744
6.20597
6.2041
6.20264
6.18578
6.18585
6.18906
6.19238
6.19381
6.19332
6.19202
6.19129
6.18406
6.18622
6.19143
6.19565
6.19777
6.19752
6.19461
6.19172
6.18192
6.18519
6.19027
6.19453
6.19795
6.19967
6.19744
6.193
6.17988
6.18266
6.18627
6.18934
6.19332
6.19742
6.19726
6.19311
6.1781
6.18012
6.1822
6.18436
6.18833
6.19341
6.19484
6.19144
6.17678
6.17799
6.1794
6.18165
6.18522
6.1892
6.19075
6.18821
6.17663
6.17669
6.17792
6.17972
6.18202
6.18444
6.18554
6.18451
6.17876
6.17665
6.17698
6.17809
6.17941
6.18098
6.18266
6.18405
6.179
6.18105
6.18555
6.18947
6.19136
6.19117
6.18968
6.18817
6.17532
6.17953
6.1864
6.19195
6.19546
6.19607
6.19293
6.18874
6.17086
6.17586
6.18261
6.18859
6.19383
6.19673
6.19453
6.18902
6.16667
6.1703
6.17502
6.17975
6.18568
6.1912
6.19167
6.18738
6.16299
6.16459
6.16696
6.17041
6.17633
6.18315
6.18605
6.18392
6.16023
6.16012
6.16111
6.16419
6.16953
6.17551
6.17933
6.17919
6.15932
6.15783
6.15834
6.1606
6.16438
6.16876
6.17233
6.17403
6.16152
6.1585
6.15812
6.15918
6.16125
6.16425
6.16802
6.17178
6.17315
6.17544
6.17899
6.18191
6.18343
6.1835
6.18257
6.18152
6.16966
6.17378
6.17932
6.18353
6.18636
6.18701
6.18459
6.18113
6.16581
6.17077
6.17615
6.18051
6.18438
6.18651
6.18471
6.18018
6.16223
6.16586
6.16937
6.17246
6.17672
6.18078
6.18104
6.17776
6.15883
6.1603
6.16173
6.16354
6.16778
6.17302
6.17528
6.17422
6.15598
6.15572
6.15612
6.15785
6.16162
6.16617
6.16929
6.1702
6.15459
6.15292
6.15301
6.15446
6.15728
6.16063
6.16365
6.16619
6.15602
6.15304
6.15229
6.15285
6.15439
6.15679
6.16013
6.1643
6.17004
6.16978
6.16988
6.17012
6.17024
6.17023
6.17049
6.17112
6.16728
6.1683
6.16973
6.1705
6.17106
6.1711
6.17018
6.16941
6.16514
6.16738
6.16883
6.16948
6.17015
6.17044
6.16953
6.16781
6.16351
6.16547
6.16611
6.16583
6.16654
6.1676
6.16736
6.16606
6.16178
6.16285
6.16275
6.16146
6.16211
6.16409
6.16452
6.16424
6.16014
6.16046
6.16053
6.16003
6.16053
6.16167
6.16213
6.16275
6.15915
6.15835
6.15861
6.15879
6.15926
6.15974
6.16009
6.16168
6.16002
6.15774
6.1571
6.15702
6.15727
6.15777
6.15897
6.16187
6.16662
6.1637
6.16093
6.15931
6.15858
6.15879
6.16055
6.1632
6.16549
6.16301
6.16083
6.15889
6.15767
6.15738
6.15825
6.1607
6.16582
6.16499
6.16295
6.16049
6.15856
6.15761
6.15797
6.15936
6.16698
6.1672
6.16539
6.16223
6.16001
6.15897
6.15865
6.15922
6.16787
6.16897
6.16795
6.16439
6.16213
6.16127
6.16006
6.15982
6.16841
6.17008
6.17058
6.1686
6.16636
6.16442
6.16205
6.16117
6.16876
6.16972
6.17099
6.17052
6.16893
6.16661
6.16385
6.16317
6.16979
6.16893
6.16922
6.16905
6.16818
6.16669
6.16528
6.16578
6.1681
6.16277
6.15789
6.15499
6.15356
6.15374
6.15648
6.16061
6.16763
6.16212
6.15746
6.15391
6.15164
6.15116
6.15325
6.15813
6.16906
6.16543
6.16105
6.15695
6.15377
6.1524
6.15381
6.1575
6.17171
6.17014
6.16674
6.16227
6.15873
6.15688
6.15691
6.15888
6.17429
6.17507
6.17351
6.16903
6.16544
6.16336
6.16152
6.1613
6.17648
6.17897
6.17984
6.17732
6.17383
6.17035
6.16648
6.16448
6.17818
6.18044
6.18246
6.18179
6.17915
6.17524
6.17073
6.16836
6.18004
6.18027
6.18125
6.18109
6.17956
6.17694
6.17401
6.17282
6.17127
6.1657
6.16101
6.15864
6.15767
6.15819
6.1614
6.16592
6.1712
6.16492
6.16042
6.15745
6.15568
6.15563
6.15825
6.16398
6.17279
6.16828
6.16408
6.16065
6.15819
6.15752
6.15953
6.16392
6.17578
6.17352
6.17039
6.16672
6.16401
6.16302
6.16368
6.16599
6.17911
6.17959
6.17836
6.17479
6.17204
6.17075
6.16939
6.169
6.18223
6.18478
6.18595
6.18415
6.18142
6.17862
6.17502
6.17246
6.18491
6.18753
6.18983
6.18957
6.18736
6.18394
6.17954
6.17653
6.18772
6.18842
6.1897
6.18981
6.18853
6.18617
6.18329
6.18149
6.18023
6.1751
6.17121
6.16965
6.16915
6.16979
6.17286
6.17702
6.17893
6.17294
6.16969
6.16809
6.16731
6.16764
6.17001
6.17542
6.17879
6.17434
6.17153
6.16993
6.16909
6.16935
6.17126
6.17524
6.18033
6.17767
6.1757
6.17392
6.17314
6.17363
6.1747
6.17697
6.18283
6.18239
6.18167
6.17989
6.17913
6.17962
6.17947
6.17944
6.18565
6.18687
6.18776
6.18715
6.18633
6.18554
6.1837
6.18203
6.18863
6.18998
6.19156
6.19176
6.19091
6.18937
6.18691
6.18508
6.19233
6.1922
6.19281
6.19292
6.19239
6.19138
6.19017
6.18957
6.19016
6.18681
6.18483
6.18475
6.18509
6.18588
6.18841
6.1917
6.18772
6.1835
6.1827
6.18317
6.18368
6.18423
6.18569
6.18992
6.18589
6.1829
6.18258
6.18328
6.18418
6.18508
6.18621
6.18899
6.18569
6.18368
6.18347
6.18369
6.18483
6.18661
6.18775
6.18941
6.18674
6.18568
6.18559
6.18546
6.18664
6.18884
6.18983
6.19044
6.18848
6.18802
6.18834
6.18877
6.18981
6.19114
6.19151
6.19147
6.19109
6.1904
6.19082
6.19132
6.19196
6.19262
6.19273
6.19305
6.19512
6.19358
6.19314
6.19318
6.19352
6.19419
6.19515
6.19648
6.20177
6.19975
6.19889
6.1993
6.19964
6.19993
6.20139
6.20361
6.19801
6.19541
6.19627
6.19769
6.19848
6.19848
6.19848
6.20124
6.19456
6.19304
6.19434
6.19602
6.19734
6.19788
6.1977
6.19917
6.19251
6.19119
6.19187
6.19267
6.19427
6.19616
6.1968
6.198
6.19161
6.19001
6.18975
6.18987
6.19154
6.19423
6.19586
6.19734
6.19156
6.18944
6.1887
6.18904
6.19058
6.1928
6.19482
6.19681
6.19299
6.19014
6.18907
6.18917
6.19028
6.19211
6.1943
6.19716
6.19654
6.1934
6.19163
6.19118
6.19181
6.19349
6.19622
6.19966
6.20584
6.20523
6.20531
6.20608
6.20648
6.20649
6.20712
6.2084
6.20208
6.20108
6.20298
6.20471
6.20543
6.20497
6.20393
6.20546
6.19858
6.19856
6.20065
6.2023
6.20328
6.20328
6.20215
6.20257
6.19605
6.19573
6.19664
6.19703
6.19816
6.19961
6.19971
6.20036
6.19422
6.1928
6.19222
6.19175
6.19293
6.1953
6.19689
6.1986
6.19297
6.19032
6.18895
6.18873
6.18981
6.19183
6.1942
6.1971
6.19323
6.18942
6.18766
6.18739
6.18825
6.18999
6.19269
6.19679
6.1956
6.19184
6.18953
6.18888
6.18943
6.19112
6.19427
6.19851
6.19943
6.19866
6.19818
6.1983
6.19836
6.1983
6.19875
6.1998
6.19556
6.19461
6.19583
6.19676
6.19699
6.1964
6.19533
6.19658
6.19237
6.19242
6.1937
6.1944
6.19473
6.19452
6.19343
6.19366
6.19002
6.18983
6.19001
6.18948
6.18992
6.19102
6.19104
6.1915
6.18808
6.18689
6.18591
6.18464
6.18514
6.18703
6.18824
6.18973
6.18654
6.18417
6.18286
6.18221
6.18264
6.18394
6.1856
6.18826
6.18628
6.1827
6.18125
6.18097
6.18135
6.18227
6.18413
6.18804
6.18768
6.18416
6.18212
6.18162
6.18194
6.18301
6.18546
6.1894
6.17238
6.17116
6.17007
6.16985
6.1701
6.17066
6.17182
6.17334
6.16905
6.16756
6.16787
6.16829
6.16859
6.16864
6.16855
6.17031
6.16679
6.16631
6.16664
6.16679
6.16714
6.16753
6.16739
6.16806
6.16535
6.16503
6.16464
6.16373
6.16419
6.16566
6.16618
6.16662
6.16421
6.16354
6.16273
6.1613
6.16181
6.16381
6.16473
6.1655
6.1634
6.16215
6.16173
6.1613
6.16171
6.16269
6.1633
6.16465
6.16351
6.16122
6.16103
6.16133
6.16167
6.16193
6.16239
6.16482
6.16455
6.16215
6.16123
6.16135
6.16169
6.16216
6.16337
6.16597
6.12274
6.12049
6.11837
6.11743
6.11749
6.11839
6.1202
6.12232
6.11948
6.11693
6.11609
6.11584
6.11599
6.11644
6.11722
6.1197
6.11743
6.11597
6.11527
6.11485
6.11514
6.11595
6.11665
6.11801
6.11621
6.11535
6.11433
6.11307
6.11353
6.11528
6.11631
6.11707
6.11543
6.11493
6.11404
6.11243
6.11297
6.11511
6.11601
6.11645
6.11512
6.11464
6.11468
6.1143
6.11472
6.11566
6.11572
6.11619
6.11567
6.1144
6.11496
6.11547
6.1158
6.11581
6.11547
6.11678
6.11692
6.11531
6.11502
6.11537
6.11569
6.11589
6.11638
6.11804
6.04378
6.04151
6.03928
6.0382
6.03824
6.03926
6.04123
6.04345
6.04115
6.0385
6.03746
6.03698
6.03699
6.03744
6.0384
6.04109
6.03935
6.03782
6.03691
6.03617
6.03619
6.03692
6.03777
6.03937
6.03816
6.03731
6.03608
6.03446
6.03463
6.03623
6.03732
6.03822
6.03742
6.03709
6.03601
6.03402
6.03429
6.03629
6.03717
6.03754
6.03723
6.0371
6.037
6.03623
6.03639
6.03727
6.03729
6.03744
6.03793
6.03709
6.03755
6.03774
6.03788
6.03789
6.03745
6.03827
6.03934
6.03801
6.03767
6.03782
6.03802
6.03819
6.03857
6.03976
5.9359
5.93362
5.93121
5.9297
5.92931
5.92994
5.9315
5.93341
5.93346
5.9309
5.92968
5.9287
5.92811
5.928
5.92852
5.93105
5.93138
5.93001
5.92885
5.92749
5.92678
5.92688
5.92732
5.92886
5.92973
5.92891
5.92727
5.92491
5.92434
5.92537
5.92618
5.92716
5.92855
5.92808
5.92639
5.92361
5.92317
5.92469
5.92553
5.92614
5.92804
5.92767
5.92682
5.92518
5.92467
5.92529
5.92549
5.92601
5.92854
5.92742
5.92709
5.92644
5.92605
5.926
5.92588
5.92701
5.92999
5.92825
5.92719
5.9267
5.92654
5.92675
5.92744
5.9289
5.7922
5.79056
5.78867
5.7873
5.78688
5.7873
5.78836
5.78971
5.79034
5.78848
5.78765
5.78669
5.78589
5.78543
5.78544
5.78749
5.78847
5.78772
5.78673
5.78516
5.78414
5.78393
5.78397
5.78507
5.78683
5.78639
5.78462
5.78186
5.78095
5.78179
5.78241
5.78308
5.7856
5.78525
5.7832
5.77991
5.77912
5.78052
5.78135
5.78183
5.78499
5.7846
5.78328
5.78108
5.7802
5.78073
5.78105
5.78158
5.78522
5.78408
5.7833
5.78215
5.78143
5.78133
5.78134
5.78246
5.78635
5.78452
5.78313
5.78231
5.78194
5.7821
5.78288
5.78427
5.61013
5.60888
5.60741
5.60615
5.60566
5.60578
5.60625
5.60697
5.60852
5.60739
5.60692
5.60604
5.60522
5.60458
5.60405
5.60525
5.60681
5.60667
5.60581
5.60421
5.60325
5.60312
5.60289
5.60318
5.60519
5.60515
5.60325
5.60033
5.59953
5.60068
5.60131
5.60133
5.60391
5.60383
5.60153
5.59803
5.59735
5.59911
5.60009
5.60005
5.60313
5.60307
5.60158
5.59921
5.59837
5.59916
5.59957
5.59963
5.60296
5.60228
5.60152
5.60027
5.59953
5.5995
5.59941
5.60003
5.60349
5.60201
5.6008
5.59998
5.59955
5.59964
5.60023
5.60128
5.38042
5.38019
5.37981
5.37918
5.379
5.37896
5.37874
5.37874
5.37976
5.38023
5.38073
5.38041
5.37999
5.37946
5.37829
5.37792
5.37884
5.38007
5.37984
5.37864
5.37821
5.37854
5.37803
5.37677
5.37762
5.3786
5.377
5.37431
5.37405
5.37592
5.37663
5.37535
5.37645
5.37725
5.37508
5.37167
5.37151
5.3741
5.37528
5.37406
5.37553
5.37648
5.37527
5.37316
5.37281
5.37407
5.37448
5.37328
5.37478
5.37536
5.37511
5.37414
5.37372
5.37393
5.37353
5.37277
5.37441
5.37392
5.37346
5.37302
5.37276
5.37275
5.3728
5.3729
5.09639
5.09718
5.09791
5.09778
5.09762
5.09703
5.09572
5.09465
5.09693
5.09952
5.10099
5.101
5.10072
5.10003
5.09792
5.09524
5.0969
5.10005
5.10051
5.09952
5.09932
5.09981
5.09869
5.09524
5.09603
5.09848
5.09734
5.09487
5.09486
5.09693
5.09738
5.09436
5.09475
5.09675
5.09501
5.09196
5.09201
5.09466
5.0958
5.0931
5.09333
5.09581
5.09478
5.0927
5.09265
5.09444
5.09464
5.09173
5.09159
5.09394
5.09424
5.09342
5.09322
5.09363
5.09276
5.09009
5.09001
5.09075
5.0912
5.09115
5.09094
5.09069
5.08997
5.08894
4.74213
4.74426
4.74578
4.74619
4.74579
4.74449
4.74254
4.74012
4.74438
4.7494
4.75126
4.75096
4.75059
4.74969
4.74741
4.74221
4.74554
4.75038
4.75146
4.75023
4.74981
4.74996
4.7483
4.7431
4.74538
4.74928
4.74871
4.74649
4.74605
4.74733
4.74729
4.74281
4.74432
4.74775
4.74657
4.74399
4.74356
4.7452
4.74591
4.74168
4.74248
4.74644
4.74604
4.74415
4.74374
4.74488
4.7445
4.73971
4.73962
4.74396
4.7449
4.74415
4.74378
4.7438
4.7422
4.73752
4.73662
4.73883
4.74037
4.74058
4.74027
4.73941
4.73754
4.73507
4.29917
4.30045
4.30192
4.30193
4.30099
4.29947
4.29707
4.2953
4.30201
4.306
4.30655
4.30545
4.30438
4.30361
4.30181
4.29746
4.30396
4.30768
4.30731
4.30546
4.30419
4.30387
4.30286
4.29877
4.30445
4.30746
4.30654
4.30449
4.30307
4.30282
4.30233
4.29895
4.30412
4.30711
4.30623
4.30432
4.3029
4.30255
4.30202
4.29861
4.30307
4.30691
4.30664
4.3049
4.30367
4.30331
4.30221
4.29787
4.30036
4.30523
4.30601
4.30499
4.30403
4.30329
4.30125
4.29579
4.29708
4.29996
4.30175
4.30172
4.30099
4.29968
4.29709
4.29386
3.74985
3.74725
3.74541
3.74345
3.74242
3.74255
3.74324
3.74552
3.75031
3.74849
3.74502
3.74207
3.74076
3.74138
3.74342
3.74483
3.75089
3.74869
3.74562
3.74267
3.741
3.74096
3.74272
3.74456
3.75143
3.74971
3.74752
3.74592
3.74405
3.74274
3.74333
3.74471
3.75249
3.75184
3.75069
3.74979
3.74789
3.74592
3.74542
3.74569
3.75386
3.7544
3.75363
3.75241
3.75076
3.74925
3.7484
3.74746
3.75418
3.75621
3.75569
3.75441
3.7531
3.75207
3.75105
3.74845
3.75371
3.75517
3.75554
3.75471
3.75375
3.75284
3.75135
3.74966
3.09969
3.09219
3.08715
3.08438
3.08407
3.08625
3.09091
3.09856
3.09544
3.08659
3.08016
3.07742
3.07721
3.07955
3.08545
3.09398
3.09327
3.08428
3.07902
3.07795
3.07783
3.07881
3.08332
3.09169
3.09353
3.0863
3.08366
3.08407
3.08378
3.083
3.08518
3.09179
3.09596
3.09053
3.08941
3.0905
3.09004
3.08844
3.08908
3.09392
3.09988
3.09564
3.09441
3.09464
3.09421
3.09319
3.09378
3.09751
3.10443
3.10162
3.09962
3.09881
3.0983
3.09819
3.09947
3.10192
3.1092
3.10745
3.1057
3.10441
3.10392
3.10432
3.10551
3.10752
2.401
2.39274
2.38844
2.38711
2.38766
2.39004
2.39509
2.40426
2.39309
2.38358
2.37931
2.37903
2.38035
2.38288
2.38823
2.39787
2.38847
2.37929
2.3767
2.37804
2.37996
2.38187
2.38583
2.39465
2.38755
2.37948
2.37856
2.38098
2.38296
2.38422
2.38669
2.39403
2.38894
2.38194
2.38147
2.3841
2.38593
2.38682
2.38882
2.39524
2.39237
2.38576
2.38435
2.38585
2.38751
2.38882
2.39144
2.39773
2.39779
2.39198
2.38927
2.38921
2.39028
2.39214
2.39575
2.40171
2.40537
2.40098
2.39803
2.39693
2.3974
2.39929
2.40286
2.40829
1.67729
1.67397
1.67346
1.67466
1.67606
1.67739
1.6796
1.68461
1.67092
1.66746
1.66803
1.67056
1.67311
1.67497
1.67688
1.68087
1.66726
1.6638
1.66496
1.66822
1.67151
1.67388
1.6757
1.67903
1.66582
1.66227
1.66341
1.66651
1.6698
1.6727
1.67495
1.67834
1.66605
1.66201
1.66249
1.66533
1.6684
1.67132
1.67426
1.67828
1.66751
1.66297
1.66242
1.66432
1.66714
1.67017
1.67378
1.6786
1.67048
1.66631
1.66467
1.66543
1.66754
1.67048
1.67451
1.67971
1.67571
1.67255
1.67067
1.67047
1.67166
1.67407
1.67767
1.68278
0.956348
0.960173
0.962919
0.964946
0.965427
0.964249
0.961965
0.959305
0.953915
0.958933
0.963576
0.966825
0.968077
0.967009
0.963744
0.959621
0.95153
0.956351
0.961027
0.964153
0.965787
0.965642
0.963138
0.958634
0.949035
0.952337
0.955568
0.957895
0.95967
0.96075
0.959904
0.957155
0.946444
0.94779
0.949252
0.951213
0.953098
0.954748
0.955712
0.95503
0.944051
0.943895
0.944131
0.94548
0.947421
0.949532
0.951569
0.952533
0.942265
0.941586
0.941329
0.942171
0.943795
0.945808
0.948041
0.949877
0.940333
0.940986
0.94078
0.941166
0.942124
0.943482
0.945068
0.94634
0.286372
0.293158
0.297637
0.301042
0.303136
0.303652
0.302176
0.297074
0.291962
0.299665
0.305313
0.308866
0.310812
0.310926
0.308426
0.302661
0.295635
0.303816
0.308798
0.311787
0.313622
0.314016
0.311807
0.305955
0.298654
0.305257
0.309614
0.312366
0.314105
0.314622
0.312966
0.307901
0.300565
0.305661
0.309607
0.312474
0.314082
0.314326
0.312954
0.308957
0.301735
0.305662
0.309015
0.311668
0.313173
0.313413
0.312422
0.309446
0.302051
0.305237
0.308028
0.310204
0.311493
0.311903
0.311265
0.308961
0.299379
0.303847
0.306166
0.307799
0.308923
0.3092
0.308267
0.304805
26.1907
26.3154
26.4267
26.494
26.5573
26.6477
26.7865
26.9643
26.1323
26.2612
26.3515
26.4076
26.4641
26.5478
26.692
26.8893
26.1172
26.2707
26.3578
26.4105
26.4668
26.5462
26.6923
26.9031
26.0613
26.2267
26.318
26.3731
26.4334
26.5144
26.6629
26.8811
26.017
26.185
26.2775
26.3343
26.396
26.478
26.6268
26.845
25.9923
26.1512
26.2416
26.2985
26.3581
26.4398
26.5868
26.7975
25.9547
26.0866
26.1797
26.2395
26.2989
26.3841
26.5284
26.725
25.9602
26.0834
26.196
26.2659
26.3311
26.4223
26.5604
26.7359
7.83305
8.23191
8.63266
8.96011
9.21944
9.40086
9.50041
9.54302
7.27813
7.75799
8.26573
8.70563
9.05888
9.31502
9.46208
9.52418
6.97505
7.48337
8.05582
8.5781
9.00874
9.32583
9.51219
9.59196
6.83931
7.33695
7.93194
8.4947
8.96877
9.32136
9.53112
9.62218
6.85067
7.35636
7.95344
8.51601
8.98928
9.34082
9.54961
9.64012
7.02526
7.54809
8.12324
8.64379
9.07159
9.38532
9.56877
9.64714
7.38485
7.8711
8.37788
8.81348
9.16232
9.41352
9.5564
9.61661
7.98915
8.38013
8.77388
9.09536
9.34867
9.52427
9.62033
9.66164
3.4863
3.70473
3.9103
4.0681
4.17181
4.22776
4.229
4.18562
3.1966
3.46038
3.72617
3.95244
4.10604
4.19189
4.21018
4.16778
3.08204
3.35001
3.64129
3.90682
4.10369
4.21873
4.24783
4.20518
3.04093
3.29479
3.59319
3.87746
4.09682
4.22794
4.2642
4.22278
3.07267
3.32821
3.62532
3.90705
4.12398
4.25376
4.28952
4.24811
3.17896
3.4493
3.73663
3.9952
4.18542
4.29676
4.32459
4.28217
3.34535
3.60825
3.86776
4.08512
4.23402
4.31774
4.33463
4.29282
3.67333
3.88473
4.08053
4.22887
4.32722
4.38176
4.38365
4.34231
7.71292
7.74046
7.72503
7.69349
7.65981
7.62434
7.57845
7.52492
7.64495
7.70537
7.73332
7.72293
7.68875
7.64559
7.59199
7.52992
7.63017
7.69449
7.74111
7.75509
7.72403
7.67337
7.61244
7.54307
7.62707
7.69137
7.74294
7.76693
7.73929
7.68551
7.62027
7.54708
7.62991
7.6921
7.74132
7.76314
7.7343
7.68054
7.61602
7.54371
7.62663
7.68925
7.73111
7.74061
7.70838
7.65881
7.59977
7.53255
7.6248
7.68409
7.70725
7.69351
7.65948
7.61871
7.56767
7.50817
7.66429
7.69088
7.67293
7.64257
7.61162
7.57879
7.5356
7.48476
10.9049
10.8428
10.7576
10.6885
10.6367
10.5962
10.5614
10.5318
10.9375
10.8874
10.8131
10.7342
10.6656
10.6116
10.5673
10.5312
10.9351
10.8921
10.8345
10.7635
10.6881
10.623
10.5702
10.5275
10.927
10.8909
10.8432
10.7813
10.703
10.63
10.5714
10.5248
10.9034
10.8682
10.8203
10.7588
10.6818
10.6099
10.5523
10.5068
10.8589
10.8187
10.7628
10.6947
10.6228
10.5607
10.5104
10.47
10.801
10.7577
10.6885
10.6158
10.5525
10.5023
10.4609
10.4267
10.7131
10.6572
10.5789
10.5165
10.4695
10.4321
10.3992
10.3707
12.2051
12.1432
12.0737
12.0209
11.9838
11.9571
11.9372
11.9225
12.241
12.1711
12.0958
12.0312
11.9819
11.9464
11.9209
11.9029
12.2489
12.1777
12.1047
12.0359
11.9795
11.9373
11.9064
11.8841
12.2391
12.1754
12.1121
12.045
11.9834
11.9355
11.9005
11.8754
12.2059
12.1466
12.0882
12.0252
11.9657
11.9183
11.8834
11.8583
12.158
12.0973
12.035
11.974
11.9215
11.8808
11.8504
11.8282
12.1068
12.0482
11.982
11.9242
11.8789
11.8452
11.8201
11.8015
12.0222
11.9657
11.9024
11.855
11.821
11.7955
11.7756
11.7599
12.656
12.6086
12.5595
12.5212
12.4946
12.4764
12.4647
12.4579
12.6878
12.6249
12.5655
12.5174
12.4833
12.4611
12.4482
12.4416
12.7127
12.6399
12.5732
12.5175
12.4775
12.4518
12.4375
12.4313
12.714
12.6424
12.5776
12.5196
12.476
12.4478
12.4325
12.4263
12.6844
12.6171
12.5579
12.5033
12.4608
12.4326
12.4167
12.4098
12.6414
12.5754
12.5178
12.468
12.4301
12.4044
12.3891
12.381
12.6013
12.5429
12.4883
12.4433
12.4102
12.3875
12.3727
12.3638
12.5408
12.4908
12.4426
12.4058
12.3798
12.3615
12.3488
12.34
12.4206
12.3897
12.3618
12.3388
12.3226
12.3127
12.309
12.3102
12.4493
12.4065
12.372
12.3443
12.3255
12.3156
12.314
12.3187
12.4787
12.4267
12.3859