/*--------------------------------*- C++ -*----------------------------------*\
| =========                 |                                                 |
| \\      /  F ield         | OpenFOAM: The Open Source CFD Toolbox           |
|  \\    /   O peration     | Version:  2406                                  |
|   \\  /    A nd           | Website:  www.openfoam.com                      |
|    \\/     M anipulation  |                                                 |
\*---------------------------------------------------------------------------*/
FoamFile
{
    version     2.0;
    format      ascii;
    arch        "LSB;label=32;scalar=64";
    class       volVectorField;
    location    "0.1";
    object      U;
}
// * * * * * * * * * * * * * * * * * * * * * * * * * * * * * * * * * * * * * //

dimensions      [0 1 -1 0 0 0 0];

internalField   nonuniform List<vector> 
16000
(
(-1.02979 -1.03909 1.0478)
(-0.903911 -1.39526 0.213368)
(-0.595558 -1.65012 -0.406458)
(-0.153985 -1.76485 -0.723805)
(0.324954 -1.74816 -0.697899)
(0.747423 -1.60272 -0.340794)
(1.0209 -1.32273 0.298249)
(1.10042 -0.961394 1.11886)
(-1.3881 -0.911569 0.211691)
(-1.23432 -1.23683 -0.949573)
(-0.821476 -1.45552 -1.80527)
(-0.230385 -1.55112 -2.24512)
(0.415583 -1.53584 -2.20157)
(0.982442 -1.40997 -1.69422)
(1.35659 -1.16801 -0.806225)
(1.45392 -0.830226 0.341916)
(-1.64121 -0.596833 -0.404156)
(-1.45459 -0.814479 -1.7969)
(-0.960467 -0.948995 -2.82483)
(-0.271336 -1.00035 -3.33713)
(0.4695 -0.989007 -3.27967)
(1.13193 -0.915364 -2.67599)
(1.5772 -0.76245 -1.60356)
(1.71116 -0.539842 -0.226244)
(-1.75095 -0.151948 -0.709212)
(-1.5443 -0.219445 -2.21157)
(-1.0067 -0.254437 -3.30113)
(-0.281876 -0.266478 -3.82019)
(0.487372 -0.260431 -3.75459)
(1.18545 -0.237484 -3.12682)
(1.6696 -0.194566 -1.98414)
(1.81789 -0.124468 -0.497163)
(-1.72855 0.325094 -0.669291)
(-1.52038 0.420368 -2.14208)
(-0.98717 0.480051 -3.20122)
(-0.272606 0.501473 -3.70095)
(0.483453 0.501102 -3.63286)
(1.17038 0.476998 -3.02179)
(1.6485 0.413897 -1.90711)
(1.79645 0.31769 -0.450559)
(-1.58135 0.743875 -0.310442)
(-1.38937 0.977677 -1.63327)
(-0.906975 1.12949 -2.58788)
(-0.246018 1.18909 -3.04665)
(0.458123 1.182 -2.98432)
(1.09031 1.10644 -2.42493)
(1.5197 0.939592 -1.41903)
(1.65256 0.701985 -0.112492)
(-1.30585 1.01636 0.321726)
(-1.14841 1.34587 -0.759938)
(-0.750793 1.5646 -1.53602)
(-0.196657 1.66118 -1.91597)
(0.40152 1.64806 -1.86581)
(0.927877 1.52483 -1.40517)
(1.28071 1.28496 -0.589413)
(1.37391 0.942217 0.477837)
(-0.949821 1.09612 1.1343)
(-0.816675 1.44405 0.370819)
(-0.529877 1.69654 -0.184974)
(-0.122321 1.80446 -0.454725)
(0.313657 1.78834 -0.422728)
(0.698111 1.64958 -0.100196)
(0.942669 1.37241 0.480877)
(1.02305 1.01999 1.22958)
(-0.392036 -0.427607 2.0461)
(-0.337447 -0.588666 0.303338)
(-0.254076 -0.694496 -0.964583)
(-0.0680918 -0.756957 -1.63926)
(0.168888 -0.742382 -1.57441)
(0.344279 -0.650757 -0.792608)
(0.422405 -0.517848 0.542114)
(0.468466 -0.33019 2.28062)
(-0.577573 -0.368495 0.274262)
(-0.561962 -0.551226 -2.12126)
(-0.418602 -0.648611 -3.88629)
(-0.132064 -0.687379 -4.83209)
(0.202069 -0.675006 -4.73364)
(0.472126 -0.619054 -3.62051)
(0.595839 -0.501671 -1.75446)
(0.61056 -0.287782 0.66811)
(-0.702846 -0.26836 -1.01331)
(-0.679523 -0.384328 -3.88092)
(-0.483415 -0.442207 -5.99293)
(-0.154375 -0.472685 -7.03945)
(0.216309 -0.459341 -6.90898)
(0.529303 -0.411715 -5.6438)
(0.69757 -0.351512 -3.40976)
(0.695042 -0.208084 -0.486848)
(-0.767473 -0.0706469 -1.68201)
(-0.705039 -0.0973502 -4.77702)
(-0.488504 -0.124217 -6.95609)
(-0.160513 -0.151334 -7.94804)
(0.204766 -0.144059 -7.80034)
(0.522649 -0.106882 -6.54311)
(0.717541 -0.0817729 -4.22383)
(0.746854 -0.0450983 -1.06794)
(-0.748777 0.16797 -1.60886)
(-0.674688 0.221636 -4.64552)
(-0.457683 0.228093 -6.73689)
(-0.148054 0.205614 -7.6829)
(0.193097 0.20397 -7.52352)
(0.491865 0.223367 -6.30534)
(0.68901 0.212144 -4.06256)
(0.72727 0.154098 -0.966175)
(-0.658206 0.346752 -0.839773)
(-0.613731 0.477367 -3.56702)
(-0.411198 0.525595 -5.47163)
(-0.123661 0.518633 -6.36485)
(0.187998 0.509503 -6.21622)
(0.459485 0.502947 -5.07478)
(0.635766 0.446318 -3.01695)
(0.648987 0.29321 -0.241552)
(-0.525391 0.433136 0.479572)
(-0.498167 0.603026 -1.7613)
(-0.350858 0.694315 -3.33375)
(-0.099931 0.715589 -4.10791)
(0.177071 0.70486 -3.98316)
(0.412714 0.664172 -2.99466)
(0.536237 0.547229 -1.29242)
(0.555555 0.350187 0.962802)
(-0.334605 0.485931 2.22015)
(-0.282417 0.627758 0.627169)
(-0.196956 0.705705 -0.489152)
(-0.0376194 0.753304 -1.04584)
(0.157032 0.736389 -0.9564)
(0.302338 0.656461 -0.24984)
(0.37247 0.548323 0.952662)
(0.405903 0.380476 2.53571)
(0.200508 0.162073 3.01448)
(0.109199 0.186365 1.30123)
(-0.0052913 0.211155 -0.115892)
(-0.0266843 0.200686 -1.00267)
(0.000138208 0.19855 -0.909188)
(-0.0156254 0.21105 0.115242)
(-0.102403 0.212586 1.57506)
(-0.151905 0.238991 3.29186)
(0.177149 0.0969691 1.24538)
(0.0380576 0.113604 -1.34977)
(-0.0537068 0.122253 -3.56023)
(-0.0334818 0.100319 -4.85904)
(0.0147091 0.108575 -4.74461)
(0.012818 0.124175 -3.24493)
(-0.0991022 0.09646 -0.927385)
(-0.197818 0.124853 1.70399)
(0.165688 0.0250846 -0.214249)
(0.0197282 0.0694082 -3.52716)
(-0.0491548 0.0517102 -6.15797)
(-0.0334283 0.0100646 -7.48709)
(0.00554807 0.0271819 -7.32213)
(0.0156927 0.085495 -5.73481)
(-0.0833133 0.0687992 -3.00224)
(-0.225559 0.0249327 0.407048)
(0.154911 0.0222993 -1.10469)
(0.0403732 0.0798155 -4.75252)
(-0.0262049 0.0326907 -7.34951)
(-0.0407659 -0.0269675 -8.50754)
(-0.0322838 -0.019489 -8.32313)
(-0.0383459 0.0530829 -6.83123)
(-0.10768 0.0806971 -4.12311)
(-0.225745 0.0138212 -0.383096)
(0.163645 0.0374372 -1.03659)
(0.0868322 0.0902937 -4.61844)
(0.0208154 0.037062 -7.04889)
(-0.0268013 -0.0355494 -8.14714)
(-0.0542275 -0.0395314 -7.93999)
(-0.0957148 0.028499 -6.50762)
(-0.15729 0.0734991 -3.94619)
(-0.23575 0.0213224 -0.257796)
(0.174551 0.00612053 -0.052412)
(0.10436 0.0471131 -3.22344)
(0.0604116 0.0188739 -5.47555)
(0.00397961 -0.0456277 -6.55276)
(-0.0504281 -0.0597458 -6.36465)
(-0.113562 -0.00850024 -4.99786)
(-0.172908 0.0315663 -2.5877)
(-0.239013 -0.0100263 0.698926)
(0.175667 -0.0749732 1.41556)
(0.0697111 -0.0719032 -1.04029)
(0.0242968 -0.0805176 -2.95467)
(-0.00445248 -0.103814 -3.96797)
(-0.0415593 -0.110673 -3.81731)
(-0.0818572 -0.0861306 -2.54304)
(-0.134341 -0.0734797 -0.474743)
(-0.204242 -0.115349 2.00118)
(0.21777 -0.117795 3.18325)
(0.112698 -0.157494 1.58556)
(0.0149821 -0.19493 0.326253)
(-0.0154765 -0.201349 -0.406499)
(-0.0173729 -0.20361 -0.274524)
(-0.0331276 -0.208038 0.65551)
(-0.105386 -0.198948 1.9706)
(-0.177129 -0.205894 3.55514)
(0.346407 0.350915 3.42417)
(0.190599 0.463805 2.05793)
(0.0344033 0.502936 0.535113)
(-0.00577231 0.474204 -0.581963)
(-0.0237721 0.466073 -0.50116)
(-0.0741124 0.476111 0.759029)
(-0.212864 0.445403 2.32235)
(-0.32347 0.375217 3.68199)
(0.415667 0.254762 2.03907)
(0.226943 0.373721 -0.282577)
(0.088439 0.371625 -2.7141)
(0.0421903 0.322522 -4.21097)
(-0.00694191 0.34037 -4.11221)
(-0.088066 0.396675 -2.44707)
(-0.275547 0.35178 0.0597148)
(-0.441202 0.238308 2.40826)
(0.439938 0.155848 0.546243)
(0.243377 0.275377 -2.59585)
(0.111609 0.218724 -5.3854)
(0.0320494 0.143244 -6.81082)
(-0.0426832 0.165692 -6.63201)
(-0.119921 0.27444 -4.94882)
(-0.281232 0.297161 -2.14151)
(-0.480544 0.136382 0.981942)
(0.437424 0.113735 -0.531781)
(0.273089 0.192386 -3.96754)
(0.128043 0.0874268 -6.60653)
(0.011364 -0.0027198 -7.82312)
(-0.0923883 0.00366063 -7.6151)
(-0.195152 0.113831 -6.04066)
(-0.326597 0.207623 -3.37649)
(-0.483248 0.10081 -0.0137795)
(0.455161 0.0576889 -0.497867)
(0.344706 0.0888707 -3.81939)
(0.186501 -0.0230265 -6.22736)
(0.0251706 -0.123269 -7.37827)
(-0.116896 -0.130526 -7.14509)
(-0.266197 -0.036173 -5.64683)
(-0.403239 0.0686699 -3.20233)
(-0.50114 0.041484 0.0615957)
(0.464795 -0.0406747 0.666883)
(0.393933 -0.0544798 -2.27321)
(0.263615 -0.133095 -4.52334)
(0.0783504 -0.227541 -5.64973)
(-0.107825 -0.248903 -5.45593)
(-0.294418 -0.178888 -4.06754)
(-0.435534 -0.0850685 -1.7584)
(-0.509055 -0.0457014 1.19308)
(0.424136 -0.199914 2.20163)
(0.321526 -0.273552 0.0173033)
(0.227463 -0.311114 -1.97688)
(0.088286 -0.350825 -3.10551)
(-0.0916185 -0.363416 -2.98537)
(-0.25665 -0.322781 -1.657)
(-0.374667 -0.25574 0.441539)
(-0.45478 -0.198588 2.66441)
(0.362314 -0.307843 3.61126)
(0.219913 -0.429252 2.33137)
(0.0904721 -0.482426 0.963052)
(0.0130349 -0.484084 0.0537267)
(-0.070921 -0.475142 0.159358)
(-0.145396 -0.459713 1.23989)
(-0.247923 -0.4176 2.65982)
(-0.343926 -0.33887 3.93127)
(0.243163 0.304005 3.63837)
(0.120458 0.394728 2.53739)
(0.0552211 0.369842 0.898137)
(0.0520586 0.323319 -0.309633)
(0.0278279 0.328034 -0.278851)
(-0.0143863 0.370824 1.02952)
(-0.118436 0.382344 2.76754)
(-0.237606 0.302975 3.88514)
(0.315656 0.248786 2.59025)
(0.1829 0.343339 0.527948)
(0.124773 0.278252 -1.96812)
(0.0838944 0.215607 -3.43393)
(0.0171413 0.24373 -3.33417)
(-0.0470529 0.344669 -1.72805)
(-0.167716 0.381772 0.815927)
(-0.333333 0.247621 2.89073)
(0.312857 0.219814 1.08364)
(0.190991 0.285288 -1.7618)
(0.116916 0.157079 -4.49091)
(0.0359225 0.0712886 -5.8559)
(-0.0547168 0.0879358 -5.65165)
(-0.117408 0.219486 -3.97562)
(-0.199951 0.35471 -1.23949)
(-0.347101 0.234342 1.47545)
(0.317121 0.200256 -0.0538514)
(0.221876 0.198189 -3.05169)
(0.113821 0.0289832 -5.59982)
(0.00512546 -0.0605093 -6.81158)
(-0.100692 -0.0594652 -6.58351)
(-0.193787 0.0530568 -4.94986)
(-0.277876 0.23276 -2.35221)
(-0.36225 0.20226 0.452945)
(0.36257 0.127086 -0.0599485)
(0.302845 0.0845318 -2.83847)
(0.1587 -0.0810899 -5.13662)
(0.0118211 -0.175793 -6.31165)
(-0.115716 -0.182031 -6.05507)
(-0.249648 -0.0891182 -4.47688)
(-0.365397 0.0661507 -2.13783)
(-0.40483 0.102559 0.474311)
(0.407254 0.0178255 1.13083)
(0.393283 -0.0401901 -1.28697)
(0.262885 -0.162982 -3.35779)
(0.0766393 -0.262004 -4.46913)
(-0.0974089 -0.282263 -4.25444)
(-0.278074 -0.214984 -2.85737)
(-0.407918 -0.0986989 -0.757675)
(-0.435355 -0.0123206 1.57571)
(0.394432 -0.131925 2.75468)
(0.376251 -0.212209 0.988859)
(0.309559 -0.273186 -0.858919)
(0.144425 -0.336851 -1.95294)
(-0.0632841 -0.360373 -1.85376)
(-0.256456 -0.317959 -0.609109)
(-0.370024 -0.234616 1.30991)
(-0.41144 -0.133044 3.10179)
(0.303055 -0.255604 3.85952)
(0.22702 -0.370267 2.89381)
(0.164961 -0.400515 1.55877)
(0.0801214 -0.400329 0.615501)
(-0.0470956 -0.396158 0.66972)
(-0.155351 -0.383476 1.73221)
(-0.234257 -0.347046 3.15039)
(-0.300136 -0.251596 4.13066)
(0.0986826 0.193668 3.73763)
(0.0454622 0.208557 2.67239)
(0.0626239 0.145632 1.03355)
(0.07887 0.112993 -0.0415495)
(0.0574744 0.136467 0.00665936)
(0.0321451 0.198414 1.16825)
(-0.0153725 0.25156 2.88807)
(-0.102663 0.218227 3.98269)
(0.123808 0.190848 2.79552)
(0.0730455 0.192504 0.762201)
(0.0786308 0.090479 -1.56545)
(0.0501244 0.0382691 -2.82034)
(-0.00359579 0.062772 -2.66741)
(-0.0255192 0.168292 -1.19667)
(-0.0544398 0.284027 1.1474)
(-0.150535 0.23762 3.10932)
(0.109679 0.215063 1.32448)
(0.0688247 0.162252 -1.32825)
(0.0509613 0.0127549 -3.84205)
(-0.00877571 -0.0499382 -5.08152)
(-0.0829317 -0.0473248 -4.8611)
(-0.111348 0.0503493 -3.22946)
(-0.112444 0.240818 -0.637244)
(-0.169066 0.260169 1.79693)
(0.133148 0.205304 0.316743)
(0.0917036 0.0908536 -2.37835)
(0.0343955 -0.0812116 -4.82628)
(-0.0336048 -0.136056 -6.01503)
(-0.105899 -0.140238 -5.79433)
(-0.157006 -0.0664064 -4.13721)
(-0.189728 0.131356 -1.5481)
(-0.213584 0.218819 0.90358)
(0.196071 0.140606 0.362658)
(0.153185 0.0148358 -2.05761)
(0.0481752 -0.153902 -4.32722)
(-0.0372374 -0.20954 -5.53599)
(-0.108665 -0.211158 -5.28169)
(-0.180328 -0.145216 -3.62227)
(-0.257251 0.0183931 -1.25822)
(-0.271094 0.118014 0.947726)
(0.261586 0.0555528 1.45282)
(0.251015 -0.0405212 -0.570493)
(0.132388 -0.175512 -2.51968)
(0.00909057 -0.24417 -3.63977)
(-0.0884378 -0.252082 -3.3989)
(-0.198109 -0.200609 -1.94109)
(-0.298079 -0.0889122 0.0474048)
(-0.306297 0.00817959 1.93175)
(0.284957 -0.0448474 3.02001)
(0.306464 -0.117737 1.53919)
(0.241989 -0.193344 -0.0969864)
(0.106608 -0.25843 -1.07625)
(-0.040533 -0.281366 -0.952195)
(-0.189752 -0.249991 0.199961)
(-0.287974 -0.17647 1.89321)
(-0.300933 -0.0788526 3.34668)
(0.223697 -0.144568 4.00323)
(0.215142 -0.216877 3.20766)
(0.192643 -0.243807 1.98358)
(0.110527 -0.264485 1.13063)
(-0.0145146 -0.274878 1.17954)
(-0.129912 -0.262191 2.1314)
(-0.19533 -0.227744 3.43774)
(-0.226929 -0.152422 4.25293)
(-0.00479925 0.0876745 3.65132)
(-0.000676445 0.044205 2.56608)
(0.0356874 -0.0225939 1.07652)
(0.0377499 -0.0433828 0.187863)
(0.0171222 -0.0195413 0.28804)
(0.012525 0.0431065 1.31779)
(0.0163021 0.122408 2.82875)
(-0.00985323 0.145482 3.87495)
(-0.0192671 0.117844 2.72218)
(-0.00979832 0.0426183 0.753588)
(0.0137074 -0.0561725 -1.31413)
(-0.0197929 -0.0933364 -2.38578)
(-0.0668681 -0.0867352 -2.19903)
(-0.0583018 -0.0136714 -0.821076)
(-0.015073 0.130437 1.30096)
(-0.0217028 0.191187 3.09011)
(-0.0321639 0.142223 1.38722)
(-0.0213316 0.00918347 -1.09707)
(-0.0098266 -0.103583 -3.40574)
(-0.054063 -0.133199 -4.56138)
(-0.109423 -0.14337 -4.36956)
(-0.112626 -0.103409 -2.8148)
(-0.0590777 0.0634391 -0.311046)
(-0.0398324 0.199398 1.93932)
(-0.00783507 0.120941 0.571294)
(-0.0223222 -0.0545028 -1.97072)
(-0.0338867 -0.166672 -4.36538)
(-0.0659875 -0.179658 -5.54093)
(-0.104759 -0.187047 -5.36741)
(-0.112478 -0.16509 -3.76572)
(-0.0919439 -0.0145199 -1.12656)
(-0.0812307 0.152597 1.20208)
(0.043061 0.0727875 0.702959)
(-0.00359123 -0.0954594 -1.58833)
(-0.05142 -0.205504 -3.93605)
(-0.0773881 -0.213709 -5.18078)
(-0.0988328 -0.212153 -4.97352)
(-0.103245 -0.186669 -3.29529)
(-0.121125 -0.0611487 -0.771539)
(-0.130814 0.0772169 1.30173)
(0.107365 0.0295421 1.69928)
(0.0680082 -0.0832538 -0.135129)
(-0.0179969 -0.179081 -2.15819)
(-0.0646815 -0.198516 -3.35235)
(-0.0891226 -0.193491 -3.11135)
(-0.110832 -0.167266 -1.53536)
(-0.161965 -0.0880435 0.544948)
(-0.170476 0.000558029 2.19322)
(0.159226 -0.00978041 3.07311)
(0.167105 -0.0673664 1.80353)
(0.0961553 -0.121503 0.280517)
(0.0138891 -0.15218 -0.65848)
(-0.0523656 -0.162779 -0.484529)
(-0.123282 -0.155673 0.68285)
(-0.187823 -0.118431 2.23752)
(-0.186347 -0.0545633 3.41525)
(0.149724 -0.0531924 3.95324)
(0.170369 -0.0842237 3.26935)
(0.149187 -0.102582 2.19137)
(0.0779727 -0.123252 1.45988)
(-0.0152287 -0.139729 1.53852)
(-0.104742 -0.14103 2.38987)
(-0.155026 -0.123938 3.51837)
(-0.157252 -0.0827959 4.19003)
(-0.0562676 0.00347177 3.41334)
(-0.0190851 -0.0658458 2.4016)
(0.00564679 -0.12365 1.12562)
(-0.0201025 -0.144126 0.386866)
(-0.0539803 -0.139297 0.498813)
(-0.0457518 -0.0999723 1.39208)
(0.00253702 -0.0179473 2.65917)
(0.0386527 0.0523574 3.55581)
(-0.0897302 0.0407524 2.53444)
(-0.0426776 -0.0656294 0.68028)
(-0.0199001 -0.135397 -1.1596)
(-0.0630487 -0.157644 -2.12386)
(-0.110451 -0.170943 -1.97922)
(-0.0987577 -0.150498 -0.741244)
(-0.0128763 -0.0372715 1.21347)
(0.0552209 0.0927142 2.88361)
(-0.1083 0.0404033 1.38617)
(-0.0617425 -0.103723 -1.00957)
(-0.0386263 -0.15821 -3.17509)
(-0.0698514 -0.162385 -4.29015)
(-0.106 -0.178022 -4.17291)
(-0.100526 -0.187237 -2.7739)
(-0.0189863 -0.0980972 -0.360492)
(0.0588877 0.0832339 1.91665)
(-0.10766 3.4728e-05 0.741984)
(-0.0879058 -0.158422 -1.82865)
(-0.0651074 -0.191625 -4.19271)
(-0.0730077 -0.177738 -5.36152)
(-0.0846847 -0.18569 -5.26133)
(-0.0684028 -0.203262 -3.81135)
(-0.0022949 -0.141053 -1.15936)
(0.0487477 0.0405832 1.33453)
(-0.0927135 -0.03642 0.93224)
(-0.113838 -0.179647 -1.5052)
(-0.0984406 -0.205543 -3.94149)
(-0.0865009 -0.183093 -5.18144)
(-0.0756727 -0.181153 -5.05967)
(-0.0400284 -0.191546 -3.5132)
(0.0137899 -0.140852 -0.816036)
(0.0282725 -0.00139125 1.49587)
(-0.052629 -0.0361484 1.82866)
(-0.0959195 -0.132103 -0.125284)
(-0.111505 -0.160153 -2.3376)
(-0.0989954 -0.142951 -3.58012)
(-0.0778449 -0.131473 -3.40858)
(-0.0344749 -0.126916 -1.82843)
(-0.00570148 -0.093116 0.543019)
(-0.00623258 -0.0232289 2.30672)
(0.011543 -0.0109836 2.97803)
(-0.00198758 -0.0415643 1.75236)
(-0.0474768 -0.0530203 0.169468)
(-0.0692045 -0.0456033 -0.79736)
(-0.0705422 -0.0377274 -0.608561)
(-0.0578527 -0.0406879 0.641009)
(-0.0614624 -0.0458688 2.24421)
(-0.0482223 -0.0279275 3.31704)
(0.0534457 0.00882849 3.69902)
(0.0769854 0.0163852 3.12657)
(0.0581269 0.0242133 2.20667)
(0.012317 0.0244138 1.59602)
(-0.0377242 0.0172337 1.70537)
(-0.0748284 0.00309768 2.46326)
(-0.0894558 -0.0121398 3.39999)
(-0.0684904 -0.0158592 3.9119)
(-0.0593293 -0.0462673 3.16492)
(-0.0116933 -0.109358 2.27469)
(-0.00100476 -0.143201 1.20827)
(-0.0418132 -0.153872 0.588547)
(-0.0864387 -0.165316 0.656866)
(-0.0860294 -0.164607 1.37596)
(-0.025811 -0.11781 2.43411)
(0.0466001 -0.0395407 3.21213)
(-0.0912401 -0.0226342 2.35503)
(-0.0308993 -0.110557 0.602408)
(-0.0193481 -0.139495 -1.06608)
(-0.0594593 -0.144124 -1.96589)
(-0.10142 -0.164251 -1.90204)
(-0.104994 -0.185602 -0.854517)
(-0.0310437 -0.144894 0.931074)
(0.0721005 -0.0204648 2.60019)
(-0.108954 -0.0446521 1.37388)
(-0.0498395 -0.141996 -0.999858)
(-0.0359435 -0.14781 -3.08094)
(-0.0555185 -0.137819 -4.1865)
(-0.0750628 -0.152017 -4.14509)
(-0.0754241 -0.184481 -2.91046)
(-0.0151333 -0.175996 -0.638109)
(0.0879492 -0.0413896 1.76555)
(-0.125111 -0.0924425 0.843838)
(-0.0835061 -0.1789 -1.84788)
(-0.059956 -0.15959 -4.18896)
(-0.0564043 -0.136619 -5.36632)
(-0.0527343 -0.143218 -5.32999)
(-0.0359451 -0.175527 -4.03356)
(0.0234117 -0.188774 -1.48473)
(0.103742 -0.0744167 1.28858)
(-0.145312 -0.120058 1.00672)
(-0.128891 -0.189233 -1.69219)
(-0.091622 -0.158947 -4.12964)
(-0.0678292 -0.128101 -5.34584)
(-0.044646 -0.127118 -5.2993)
(-0.00682278 -0.152843 -3.94813)
(0.0650359 -0.168348 -1.30026)
(0.118657 -0.085418 1.45126)
(-0.146668 -0.0961222 1.77542)
(-0.157231 -0.145107 -0.50313)
(-0.122771 -0.124325 -2.7867)
(-0.086826 -0.0940703 -4.00798)
(-0.0500259 -0.0842053 -3.93428)
(0.00567671 -0.0936807 -2.53762)
(0.0814837 -0.0983411 -0.0576376)
(0.112364 -0.0570415 2.18328)
(-0.104179 -0.0303204 2.7752)
(-0.11959 -0.038524 1.35657)
(-0.115561 -0.0274126 -0.351874)
(-0.0948483 -0.00644707 -1.33675)
(-0.0634517 0.010713 -1.2236)
(-0.0110249 0.0158976 -0.0223818)
(0.044068 0.00458559 1.79217)
(0.0714561 -0.00696951 3.088)
(-0.0419973 0.0340002 3.40541)
(-0.0248276 0.0619716 2.86228)
(-0.031149 0.083733 2.02046)
(-0.046404 0.0970282 1.48235)
(-0.054757 0.104775 1.58607)
(-0.0418799 0.0991601 2.27447)
(-0.0154027 0.0729864 3.13551)
(0.0212822 0.0394072 3.59637)
(-0.0266232 -0.05524 3.01911)
(0.0126443 -0.0898558 2.22631)
(0.00918222 -0.0950421 1.3244)
(-0.0333798 -0.093384 0.791698)
(-0.0789227 -0.107899 0.813623)
(-0.0939052 -0.129862 1.3821)
(-0.0563949 -0.126062 2.28081)
(0.0121072 -0.0798218 3.0126)
(-0.0430678 -0.0531328 2.25803)
(0.00515613 -0.0953377 0.585526)
(-0.00241301 -0.0907011 -0.960487)
(-0.037957 -0.0836132 -1.82545)
(-0.0721798 -0.100401 -1.81978)
(-0.0903653 -0.135087 -0.912227)
(-0.0610218 -0.148289 0.710353)
(0.0264415 -0.088 2.38693)
(-0.0532358 -0.084852 1.39231)
(-0.0100022 -0.120933 -0.969343)
(-0.0158591 -0.0978572 -3.01509)
(-0.0320856 -0.0818073 -4.13594)
(-0.0446181 -0.0921889 -4.14386)
(-0.0533753 -0.127586 -3.00229)
(-0.0369518 -0.161004 -0.849235)
(0.0420797 -0.113292 1.60856)
(-0.0738811 -0.126155 0.9051)
(-0.0402393 -0.143193 -1.87023)
(-0.0343412 -0.101945 -4.21415)
(-0.0321537 -0.0788024 -5.41773)
(-0.02717 -0.0832923 -5.42163)
(-0.019182 -0.114163 -4.20468)
(0.00337746 -0.158717 -1.76076)
(0.068984 -0.133549 1.14909)
(-0.10825 -0.145696 0.988645)
(-0.0818331 -0.148917 -1.86551)
(-0.0583619 -0.0990316 -4.28639)
(-0.0401661 -0.0710429 -5.5018)
(-0.0209422 -0.0704141 -5.49728)
(0.00322914 -0.0954572 -4.25721)
(0.043509 -0.138721 -1.74045)
(0.101838 -0.127636 1.23867)
(-0.1366 -0.123641 1.61791)
(-0.122494 -0.127864 -0.879357)
(-0.0880405 -0.084946 -3.13162)
(-0.0561935 -0.0544459 -4.33141)
(-0.0241889 -0.048054 -4.3153)
(0.0150577 -0.0638232 -3.06736)
(0.0715846 -0.0921941 -0.710525)
(0.121185 -0.0851055 1.86745)
(-0.130564 -0.0588898 2.5299)
(-0.132309 -0.0594494 0.869966)
(-0.106791 -0.0390632 -0.852421)
(-0.0757898 -0.0151192 -1.82469)
(-0.0397417 -0.00114945 -1.7872)
(0.0071018 0.000815674 -0.725951)
(0.0687557 -0.00510772 1.10281)
(0.106493 -0.0150634 2.75458)
(-0.0857927 0.0134861 3.19465)
(-0.0812095 0.0377432 2.56716)
(-0.0766144 0.0562776 1.72669)
(-0.068852 0.0719405 1.20609)
(-0.0513801 0.0860432 1.26817)
(-0.0176272 0.0913497 1.89238)
(0.0266152 0.0770365 2.77188)
(0.061838 0.0440068 3.3508)
(0.0124412 -0.0419356 2.97925)
(0.0340814 -0.0453255 2.2598)
(0.0168788 -0.0312822 1.46977)
(-0.0235745 -0.0231241 0.990249)
(-0.0646138 -0.0352234 0.983736)
(-0.089111 -0.0625045 1.45911)
(-0.079906 -0.0842959 2.2509)
(-0.0346234 -0.0767612 2.95537)
(0.0122816 -0.0571319 2.25296)
(0.035226 -0.0573526 0.665696)
(0.0114448 -0.0332712 -0.809298)
(-0.0214589 -0.0210965 -1.66967)
(-0.0504271 -0.0334719 -1.69814)
(-0.0763111 -0.0676784 -0.859115)
(-0.0815506 -0.104523 0.66019)
(-0.0329396 -0.102856 2.291)
(0.00771093 -0.0901346 1.44689)
(0.023928 -0.0795658 -0.879307)
(0.00377576 -0.0420274 -2.92094)
(-0.0135148 -0.0247175 -4.06926)
(-0.0261847 -0.0316956 -4.10698)
(-0.0420018 -0.0626309 -3.00408)
(-0.0540773 -0.110689 -0.916662)
(-0.018358 -0.126047 1.51112)
(-0.0120831 -0.121306 0.958002)
(0.000204469 -0.0942308 -1.83523)
(-0.00783757 -0.0468627 -4.19632)
(-0.0122443 -0.0271964 -5.42771)
(-0.013702 -0.0300388 -5.45509)
(-0.0165323 -0.054388 -4.27107)
(-0.0195848 -0.103933 -1.88477)
(0.0090532 -0.134885 1.02183)
(-0.0457372 -0.134962 0.969134)
(-0.0315259 -0.100353 -1.92391)
(-0.023852 -0.0497395 -4.34657)
(-0.017118 -0.028136 -5.57261)
(-0.00961255 -0.0277236 -5.59026)
(-0.001354 -0.0465577 -4.39808)
(0.0106258 -0.0909578 -1.95749)
(0.0421507 -0.124081 1.03456)
(-0.0803402 -0.123945 1.49605)
(-0.0678522 -0.099382 -1.0606)
(-0.0477116 -0.0528509 -3.29171)
(-0.0288953 -0.0280545 -4.49012)
(-0.01088 -0.0239473 -4.50137)
(0.00882021 -0.0379161 -3.31713)
(0.0344481 -0.0716504 -1.05848)
(0.0687818 -0.0921199 1.57805)
(-0.0973803 -0.0842673 2.34747)
(-0.0952288 -0.0768402 0.575042)
(-0.075159 -0.0474318 -1.13116)
(-0.0489727 -0.0238485 -2.10027)
(-0.020532 -0.0146034 -2.09889)
(0.00944364 -0.0191888 -1.11625)
(0.0441787 -0.0330879 0.634062)
(0.0749093 -0.0405247 2.4514)
(-0.0828805 -0.0273076 3.07254)
(-0.0889433 -0.0142193 2.3354)
(-0.0812166 0.0013387 1.46643)
(-0.0631403 0.0162027 0.935034)
(-0.0368199 0.0283563 0.95952)
(-0.00434205 0.0339858 1.53956)
(0.0305217 0.0284418 2.44374)
(0.0538838 0.010511 3.17375)
(0.0358344 -0.0269091 3.00475)
(0.040062 -0.0106313 2.34496)
(0.0148993 0.0118604 1.6154)
(-0.0205037 0.020957 1.15562)
(-0.0536508 0.0109439 1.13149)
(-0.0790143 -0.0152255 1.56089)
(-0.0865127 -0.0468165 2.29312)
(-0.0638279 -0.0627859 2.96628)
(0.043922 -0.0497761 2.30965)
(0.0444131 -0.0252375 0.795078)
(0.0154656 0.00690662 -0.65463)
(-0.0118802 0.0200321 -1.53022)
(-0.0343175 0.011102 -1.58031)
(-0.059729 -0.0188524 -0.769984)
(-0.0803548 -0.0631389 0.697722)
(-0.0655291 -0.0916971 2.27357)
(0.0412683 -0.0784697 1.52296)
(0.0374513 -0.0406632 -0.762011)
(0.0143464 -4.08355e-05 -2.81473)
(-0.00193932 0.0151609 -3.98779)
(-0.01452 0.0105949 -4.04155)
(-0.0322285 -0.0136077 -2.95477)
(-0.054316 -0.0622558 -0.904928)
(-0.0505421 -0.107058 1.47014)
(0.0243938 -0.100481 1.0102)
(0.0220879 -0.0500217 -1.76579)
(0.00930237 -0.00639437 -4.13681)
(0.00028077 0.00768957 -5.38427)
(-0.00702597 0.00559641 -5.42298)
(-0.0167786 -0.0117377 -4.25618)
(-0.0295185 -0.0555432 -1.91238)
(-0.0265878 -0.108501 0.941691)
(-0.00332175 -0.110603 0.969044)
(0.000862558 -0.0581041 -1.90889)
(0.000410712 -0.0151232 -4.325)
(-0.00234325 -0.00102729 -5.55523)
(-0.00547779 -0.00132984 -5.58309)
(-0.00884414 -0.0141671 -4.41619)
(-0.00999663 -0.0506055 -2.03023)
(-0.000243206 -0.0992555 0.903628)
(-0.0346596 -0.108743 1.4371)
(-0.0276776 -0.0684891 -1.10904)
(-0.0165984 -0.0283181 -3.32044)
(-0.0104657 -0.0115939 -4.51653)
(-0.00666417 -0.00959632 -4.54025)
(-0.00200141 -0.0196299 -3.38781)
(0.00725243 -0.0480531 -1.19276)
(0.0227053 -0.0815483 1.39835)
(-0.0603849 -0.0915961 2.24982)
(-0.0595861 -0.0724263 0.455395)
(-0.0443688 -0.0419509 -1.24065)
(-0.0278312 -0.0231247 -2.21118)
(-0.0124071 -0.0174709 -2.2259)
(0.00312422 -0.0234009 -1.2769)
(0.0202195 -0.0400814 0.424155)
(0.0364868 -0.0542189 2.25478)
(-0.0664643 -0.0556104 2.99874)
(-0.0755956 -0.0469442 2.19299)
(-0.0670716 -0.0310493 1.29794)
(-0.0487155 -0.0167248 0.749359)
(-0.0255556 -0.00818341 0.751889)
(-0.00130542 -0.00678178 1.31163)
(0.0208453 -0.0115121 2.22578)
(0.0337085 -0.0199848 3.04127)
(0.0414624 -0.0157548 3.06188)
(0.0341388 0.00830867 2.4422)
(0.00822751 0.0309636 1.72997)
(-0.0185646 0.0386373 1.26328)
(-0.0417627 0.0302551 1.2252)
(-0.0629938 0.00782531 1.64027)
(-0.0774465 -0.0240454 2.3496)
(-0.0701578 -0.0490549 2.99695)
(0.0514227 -0.037404 2.39088)
(0.0396773 -0.00232446 0.918501)
(0.0139398 0.0292727 -0.538554)
(-0.00497876 0.0405473 -1.43725)
(-0.0202248 0.0344662 -1.4996)
(-0.0408027 0.0109473 -0.694666)
(-0.0651521 -0.030839 0.752558)
(-0.0699465 -0.0708658 2.28969)
(0.0497544 -0.0579088 1.59905)
(0.0376039 -0.00973377 -0.658864)
(0.0177372 0.0257355 -2.72452)
(0.00454941 0.0364403 -3.91116)
(-0.00671427 0.0332706 -3.97032)
(-0.0227417 0.0161995 -2.88966)
(-0.0451861 -0.0245158 -0.864728)
(-0.0559685 -0.0772502 1.46142)
(0.0371322 -0.0717924 1.05415)
(0.0304336 -0.0153723 -1.6935)
(0.0179546 0.0181802 -4.06034)
(0.0069889 0.0260532 -5.30927)
(-0.00360663 0.0241662 -5.35095)
(-0.0162723 0.013102 -4.19588)
(-0.0310787 -0.0202937 -1.88881)
(-0.0377263 -0.0750862 0.901403)
(0.0166347 -0.0796182 0.976441)
(0.0188124 -0.0246415 -1.86118)
(0.0144913 0.00594715 -4.25618)
(0.00574229 0.0129379 -5.48195)
(-0.00399996 0.0119842 -5.51308)
(-0.0141121 0.00424871 -4.36297)
(-0.0210944 -0.0219533 -2.02407)
(-0.0191817 -0.0694081 0.834367)
(-0.00834577 -0.0840914 1.41531)
(-0.00130939 -0.0402788 -1.09072)
(0.00359159 -0.011498 -3.27254)
(0.000361236 -0.00262954 -4.46068)
(-0.00580093 -0.00217757 -4.48951)
(-0.0110469 -0.00832079 -3.35808)
(-0.0100009 -0.0286061 -1.21459)
(-0.00217943 -0.0625853 1.30601)
(-0.0344889 -0.0817846 2.20595)
(-0.0310273 -0.0564413 0.427294)
(-0.0197937 -0.03179 -1.24974)
(-0.0133389 -0.019766 -2.2162)
(-0.00994349 -0.0167521 -2.23795)
(-0.00554705 -0.0210452 -1.30888)
(0.00289435 -0.034591 0.351649)
(0.0120994 -0.0521186 2.14584)
(-0.0494715 -0.0629649 2.95066)
(-0.0559157 -0.0540167 2.12028)
(-0.0476478 -0.0389802 1.21237)
(-0.0342542 -0.027109 0.65155)
(-0.0192777 -0.0212518 0.643185)
(-0.00417644 -0.0217467 1.19372)
(0.00947717 -0.0268584 2.10378)
(0.0173179 -0.0326974 2.9406)
(0.0381012 -0.00504127 3.12378)
(0.0258383 0.0197983 2.52223)
(0.00385835 0.0389414 1.80085)
(-0.0143868 0.0446618 1.31402)
(-0.0293126 0.0381435 1.26549)
(-0.0456192 0.0204484 1.68206)
(-0.062024 -0.00720208 2.39113)
(-0.0636669 -0.0335232 3.02358)
(0.0481778 -0.0208447 2.46662)
(0.032651 0.0154118 1.00835)
(0.012537 0.041361 -0.468419)
(-0.000151344 0.0496353 -1.38546)
(-0.0108403 0.0455675 -1.45087)
(-0.026937 0.0287556 -0.641529)
(-0.0494768 -0.00546073 0.801271)
(-0.0623828 -0.045984 2.31195)
(0.0483168 -0.033205 1.66026)
(0.0349167 0.0129886 -0.582702)
(0.0192684 0.038892 -2.65214)
(0.00799281 0.0448795 -3.83922)
(-0.00324182 0.0424398 -3.89682)
(-0.0179668 0.0313352 -2.82012)
(-0.0376898 0.00146602 -0.814665)
(-0.0521655 -0.0467482 1.46713)
(0.0410077 -0.0416729 1.08737)
(0.0345447 0.00797864 -1.62684)
(0.0230704 0.0291675 -3.97492)
(0.0105719 0.0319309 -5.21402)
(-0.0027305 0.0301859 -5.2545)
(-0.0174218 0.0239102 -4.1111)
(-0.0323462 0.00168943 -1.83907)
(-0.0407373 -0.0445621 0.887007)
(0.027891 -0.0491132 0.985684)
(0.0303461 -0.00306503 -1.79772)
(0.0230264 0.0144111 -4.16071)
(0.0101138 0.0160546 -5.37564)
(-0.00402761 0.0148185 -5.40706)
(-0.0185443 0.0112024 -4.27153)
(-0.0291047 -0.00467652 -1.97705)
(-0.0291932 -0.0431764 0.803405)
(0.00961748 -0.0581535 1.40965)
(0.017743 -0.0212482 -1.03745)
(0.0164948 -0.00482016 -3.18249)
(0.00637217 -0.00202388 -4.35945)
(-0.00629243 -0.00221162 -4.3906)
(-0.0182916 -0.00439391 -3.27725)
(-0.0230888 -0.0162359 -1.18172)
(-0.0172818 -0.0438689 1.26164)
(-0.0132846 -0.0652734 2.18762)
(-0.00689832 -0.0423568 0.447733)
(-0.00172323 -0.0267283 -1.20057)
(-0.00431781 -0.0208652 -2.15851)
(-0.0100293 -0.0191192 -2.18482)
(-0.0143629 -0.020505 -1.27407)
(-0.0120978 -0.028739 0.345855)
(-0.00454115 -0.0435405 2.08599)
(-0.0312957 -0.0583638 2.91664)
(-0.0338506 -0.0508337 2.09093)
(-0.0283478 -0.0398117 1.18333)
(-0.0222933 -0.0318749 0.616565)
(-0.0163553 -0.0277717 0.600878)
(-0.00985118 -0.0274857 1.14304)
(-0.00214479 -0.030563 2.03975)
(0.00402025 -0.0343026 2.86358)
(0.0331474 0.00683926 3.17034)
(0.0204938 0.0295483 2.57255)
(0.00322979 0.0446949 1.83293)
(-0.00926419 0.0488797 1.32661)
(-0.0194371 0.0440994 1.27279)
(-0.032461 0.0308154 1.69679)
(-0.047965 0.00844229 2.41192)
(-0.0534849 -0.0159141 3.03566)
(0.0437297 -0.00250171 2.52049)
(0.0289576 0.02976 1.06729)
(0.0132963 0.0490524 -0.422608)
(0.00306479 0.0543819 -1.34638)
(-0.00672814 0.0513169 -1.40926)
(-0.0206255 0.0396343 -0.595006)
(-0.040051 0.0142025 0.843719)
(-0.054283 -0.0212614 2.32936)
(0.0469056 -0.00950737 1.70241)
(0.0354888 0.027896 -0.520435)
(0.0227046 0.043853 -2.57841)
(0.0109414 0.0462818 -3.75508)
(-0.00257482 0.0443658 -3.80846)
(-0.0181459 0.0373143 -2.73899)
(-0.0357463 0.0172412 -0.756629)
(-0.049354 -0.0207885 1.47898)
(0.0451782 -0.0158818 1.11358)
(0.0401573 0.0200999 -1.55558)
(0.028801 0.0300598 -3.87324)
(0.0138427 0.0299091 -5.09601)
(-0.0028617 0.0285896 -5.13368)
(-0.0203081 0.0254143 -4.00415)
(-0.0360038 0.0128262 -1.77053)
(-0.0440971 -0.0207487 0.88942)
(0.0386834 -0.024757 1.00115)
(0.0406197 0.00638582 -1.71669)
(0.0302265 0.0126572 -4.04211)
(0.0137307 0.0114153 -5.24324)
(-0.00404942 0.0102831 -5.27369)
(-0.0223488 0.00943346 -4.15294)
(-0.0365434 0.00293135 -1.90392)
(-0.0381103 -0.0232693 0.797399)
(0.0263752 -0.0376437 1.41712)
(0.0331507 -0.0132341 -0.957493)