/*--------------------------------*- C++ -*----------------------------------*\
| =========                 |                                                 |
| \\      /  F ield         | OpenFOAM: The Open Source CFD Toolbox           |
|  \\    /   O peration     | Version:  2406                                  |
|   \\  /    A nd           | Website:  www.openfoam.com                      |
|    \\/     M anipulation  |                                                 |
\*---------------------------------------------------------------------------*/
FoamFile
{
    version     2.0;
    format      ascii;
    arch        "LSB;label=32;scalar=64";
    class       volScalarField;
    location    "0.5";
    object      nu;
}
// * * * * * * * * * * * * * * * * * * * * * * * * * * * * * * * * * * * * * //

dimensions      [0 2 -1 0 0 0 0];

internalField   nonuniform List<scalar> 
16000
(
0.00645757
0.00654634
0.00656668
0.00656817
0.00656817
0.00656668
0.00654634
0.00645757
0.00654634
0.00654978
0.0065324
0.0065244
0.0065244
0.0065324
0.00654978
0.00654634
0.00656668
0.0065324
0.00651205
0.00650635
0.00650635
0.00651205
0.0065324
0.00656668
0.00656817
0.0065244
0.00650635
0.00650341
0.00650341
0.00650635
0.0065244
0.00656817
0.00656817
0.0065244
0.00650635
0.00650341
0.00650341
0.00650635
0.0065244
0.00656817
0.00656668
0.0065324
0.00651205
0.00650635
0.00650635
0.00651205
0.0065324
0.00656668
0.00654634
0.00654978
0.0065324
0.0065244
0.0065244
0.0065324
0.00654978
0.00654634
0.00645757
0.00654634
0.00656668
0.00656817
0.00656817
0.00656668
0.00654634
0.00645757
0.00616699
0.00642798
0.00667096
0.00679986
0.00679986
0.00667096
0.00642798
0.00616699
0.00642798
0.00686819
0.00705264
0.00707256
0.00707256
0.00705264
0.00686819
0.00642798
0.00667096
0.00705264
0.00705019
0.00699294
0.00699294
0.00705019
0.00705264
0.00667096
0.00679986
0.00707256
0.00699294
0.00692276
0.00692276
0.00699294
0.00707256
0.00679986
0.00679986
0.00707256
0.00699294
0.00692276
0.00692276
0.00699294
0.00707256
0.00679986
0.00667096
0.00705264
0.00705019
0.00699294
0.00699294
0.00705019
0.00705264
0.00667096
0.00642798
0.00686819
0.00705264
0.00707256
0.00707256
0.00705264
0.00686819
0.00642799
0.00616699
0.00642798
0.00667096
0.00679986
0.00679986
0.00667096
0.00642799
0.00616699
0.0058248
0.00596623
0.00614476
0.00626259
0.00626259
0.00614476
0.00596624
0.0058248
0.00596623
0.00630939
0.00662975
0.00681979
0.00681979
0.00662976
0.0063094
0.00596624
0.00614476
0.00662975
0.00708107
0.00732181
0.00732182
0.00708108
0.00662976
0.00614477
0.00626259
0.00681979
0.00732181
0.00754555
0.00754555
0.00732183
0.0068198
0.00626259
0.00626259
0.00681979
0.00732182
0.00754555
0.00754556
0.00732183
0.00681981
0.0062626
0.00614476
0.00662976
0.00708108
0.00732183
0.00732183
0.00708109
0.00662977
0.00614477
0.00596624
0.0063094
0.00662976
0.0068198
0.00681981
0.00662977
0.00630941
0.00596624
0.0058248
0.00596624
0.00614477
0.00626259
0.0062626
0.00614477
0.00596624
0.0058248
0.0057955
0.00589044
0.00603163
0.00612975
0.00612975
0.00603164
0.00589045
0.0057955
0.00589044
0.00615775
0.00642847
0.00661071
0.00661071
0.00642849
0.00615776
0.00589045
0.00603163
0.00642847
0.00687703
0.00724569
0.00724571
0.00687707
0.0064285
0.00603165
0.00612975
0.00661071
0.00724569
0.0080108
0.00801088
0.00724575
0.00661074
0.00612976
0.00612975
0.00661071
0.00724571
0.00801087
0.00801095
0.00724577
0.00661075
0.00612976
0.00603164
0.00642849
0.00687707
0.00724575
0.00724577
0.0068771
0.00642852
0.00603165
0.00589045
0.00615776
0.0064285
0.00661074
0.00661075
0.00642852
0.00615778
0.00589045
0.0057955
0.00589045
0.00603164
0.00612976
0.00612976
0.00603165
0.00589045
0.0057955
0.00576751
0.00584489
0.00597045
0.0060595
0.00605951
0.00597047
0.0058449
0.00576751
0.00584489
0.00607981
0.00632285
0.0064928
0.00649282
0.00632289
0.00607984
0.0058449
0.00597045
0.00632285
0.00673826
0.00711549
0.00711555
0.00673835
0.00632291
0.00597047
0.0060595
0.0064928
0.00711549
0.00809849
0.00809878
0.00711565
0.00649288
0.00605953
0.00605951
0.00649282
0.00711555
0.00809876
0.00809905
0.00711571
0.0064929
0.00605954
0.00597047
0.00632289
0.00673834
0.00711565
0.00711571
0.00673843
0.00632295
0.00597049
0.0058449
0.00607984
0.00632291
0.00649288
0.0064929
0.00632295
0.00607987
0.00584491
0.00576751
0.0058449
0.00597047
0.00605953
0.00605954
0.00597049
0.00584491
0.00576751
0.00576386
0.00583477
0.00595429
0.00603979
0.00603981
0.00595433
0.0058348
0.00576386
0.00583477
0.00605693
0.00628789
0.00645164
0.00645169
0.00628798
0.006057
0.0058348
0.00595429
0.00628789
0.00668527
0.00705665
0.0070568
0.00668547
0.00628801
0.00595434
0.00603979
0.00645164
0.00705665
0.00806968
0.00807038
0.00705703
0.00645182
0.00603986
0.0060398
0.00645168
0.00705678
0.00807035
0.00807105
0.00705716
0.00645186
0.00603987
0.00595432
0.00628797
0.00668546
0.00705701
0.00705715
0.00668565
0.0062881
0.00595437
0.0058348
0.00605699
0.00628801
0.00645181
0.00645186
0.00628809
0.00605706
0.00583482
0.00576386
0.00583479
0.00595433
0.00603985
0.00603987
0.00595437
0.00583482
0.00576386
0.00575923
0.00582743
0.00594453
0.0060286
0.00602863
0.0059446
0.00582748
0.00575922
0.00582743
0.00604451
0.00627059
0.00643158
0.00643167
0.00627077
0.00604464
0.00582746
0.00594453
0.00627059
0.00666005
0.00702712
0.00702742
0.00666045
0.00627084
0.00594462
0.00602859
0.00643157
0.00702711
0.00803881
0.0080403
0.00702789
0.00643194
0.00602872
0.00602863
0.00643165
0.00702739
0.00804021
0.0080417
0.00702816
0.00643202
0.00602875
0.0059446
0.00627076
0.00666043
0.00702786
0.00702815
0.00666082
0.00627101
0.00594468
0.00582748
0.00604463
0.00627083
0.00643192
0.00643201
0.006271
0.00604477
0.00582751
0.00575922
0.00582746
0.00594461
0.00602871
0.00602875
0.00594468
0.00582751
0.0057592
0.00575781
0.0058247
0.00594068
0.0060241
0.00602416
0.0059408
0.00582477
0.00575776
0.0058247
0.00603944
0.00626334
0.00642308
0.00642325
0.00626366
0.00603967
0.00582473
0.00594068
0.00626334
0.0066492
0.00701403
0.00701458
0.00664994
0.00626378
0.00594081
0.00602409
0.00642306
0.007014
0.00802223
0.00802502
0.00701544
0.00642373
0.0060243
0.00602415
0.00642322
0.00701452
0.00802486
0.00802764
0.00701595
0.00642388
0.00602435
0.00594079
0.00626363
0.00664989
0.00701538
0.00701592
0.00665061
0.00626407
0.00594092
0.00582477
0.00603965
0.00626376
0.0064237
0.00642386
0.00626407
0.00603987
0.00582479
0.00575777
0.00582473
0.0059408
0.00602429
0.00602435
0.00594091
0.0058248
0.00575771
0.00575694
0.00582317
0.00593859
0.0060217
0.0060218
0.00593876
0.00582325
0.00575682
0.00582317
0.00603676
0.00625962
0.00641878
0.00641905
0.00626012
0.00603709
0.00582317
0.0059386
0.00625961
0.00664373
0.00700739
0.00700829
0.00664492
0.00626031
0.00593876
0.0060217
0.00641877
0.00700736
0.00801274
0.00801739
0.00700973
0.00641981
0.00602199
0.00602179
0.00641903
0.00700823
0.00801721
0.00802187
0.00701058
0.00642007
0.00602208
0.00593876
0.0062601
0.00664487
0.00700966
0.00701055
0.00664604
0.00626078
0.00593892
0.00582325
0.00603708
0.00626029
0.00641979
0.00642005
0.00626077
0.0060374
0.00582325
0.00575683
0.00582318
0.00593876
0.00602199
0.00602208
0.00593892
0.00582325
0.0057567
0.00575667
0.00582255
0.00593767
0.00602062
0.00602074
0.00593789
0.00582262
0.00575645
0.00582255
0.00603552
0.00625779
0.00641665
0.00641703
0.00625849
0.00603595
0.0058225
0.00593768
0.0062578
0.00664091
0.00700383
0.00700515
0.00664262
0.00625876
0.00593785
0.00602063
0.00641667
0.00700385
0.00800677
0.00801372
0.00700732
0.00641814
0.00602099
0.00602076
0.00641706
0.00700519
0.00801377
0.00802076
0.00700865
0.00641853
0.00602111
0.00593792
0.00625852
0.00664265
0.00700735
0.00700867
0.00664434
0.00625946
0.00593808
0.00582265
0.00603598
0.00625879
0.00641817
0.00641854
0.00625947
0.00603639
0.00582259
0.00575648
0.00582253
0.00593788
0.00602101
0.00602113
0.00593809
0.00582259
0.00575624
0.00575663
0.00582231
0.00593725
0.0060201
0.00602026
0.00593751
0.00582236
0.00575629
0.00582231
0.00603491
0.00625683
0.00641549
0.00641599
0.00625772
0.00603542
0.00582218
0.00593727
0.00625686
0.00663928
0.00700163
0.0070034
0.00664153
0.00625806
0.00593742
0.00602015
0.00641558
0.00700177
0.00800235
0.00801176
0.00700641
0.00641748
0.00602054
0.00602032
0.00641614
0.00700371
0.00801254
0.00802206
0.00700834
0.00641803
0.00602071
0.00593758
0.00625787
0.00664177
0.00700671
0.00700848
0.00664399
0.00625904
0.00593772
0.00582241
0.00603553
0.0062582
0.00641763
0.00641812
0.00625907
0.00603602
0.00582226
0.00575631
0.00582223
0.00593749
0.00602061
0.00602075
0.00593774
0.00582227
0.00575595
0.00575673
0.00582228
0.00593711
0.00601989
0.00602006
0.00593739
0.00582229
0.00575625
0.00582227
0.00603465
0.0062563
0.0064148
0.0064154
0.00625734
0.0060352
0.00582204
0.00593712
0.00625636
0.00663825
0.00700008
0.00700226
0.00664098
0.00625775
0.00593722
0.00601997
0.00641502
0.00700045
0.00799872
0.00801043
0.00700615
0.00641727
0.00602036
0.00602019
0.00641576
0.00700307
0.00801261
0.00802453
0.00700877
0.006418
0.00602058
0.00593751
0.00625768
0.00664158
0.00700695
0.00700913
0.00664428
0.00625904
0.0059376
0.00582236
0.00603541
0.00625809
0.00641763
0.00641821
0.0062591
0.00603594
0.00582211
0.00575623
0.00582211
0.00593735
0.00602049
0.00602066
0.00593762
0.0058221
0.00575575
0.00575686
0.00582234
0.00593708
0.00601981
0.00601999
0.00593736
0.0058223
0.00575627
0.00582231
0.00603453
0.00625599
0.00641435
0.00641502
0.00625713
0.00603508
0.00582198
0.00593708
0.00625608
0.00663755
0.00699888
0.00700136
0.00664061
0.00625758
0.00593712
0.00601991
0.00641472
0.00699955
0.00799569
0.00800918
0.00700605
0.0064172
0.00602027
0.00602017
0.00641563
0.00700285
0.00801338
0.0080272
0.00700936
0.00641811
0.00602053
0.00593752
0.00625768
0.00664169
0.00700753
0.00701003
0.00664473
0.00625915
0.00593755
0.00582234
0.0060354
0.00625813
0.00641781
0.00641847
0.00625924
0.00603593
0.005822
0.00575616
0.00582202
0.00593728
0.00602045
0.00602063
0.00593755
0.00582197
0.00575558
0.00575698
0.00582244
0.00593713
0.00601981
0.00601999
0.00593739
0.00582234
0.00575633
0.00582238
0.00603452
0.00625584
0.00641407
0.00641476
0.00625698
0.00603502
0.00582196
0.00593709
0.00625595
0.00663711
0.00699802
0.00700065
0.00664031
0.00625745
0.00593705
0.0060199
0.00641457
0.006999
0.00799349
0.00800795
0.0070059
0.00641713
0.00602019
0.00602019
0.00641561
0.00700286
0.00801439
0.00802928
0.00700978
0.00641816
0.00602047
0.00593754
0.00625773
0.00664187
0.00700811
0.00701077
0.00664506
0.00625921
0.00593749
0.00582232
0.00603539
0.00625819
0.00641797
0.00641865
0.00625932
0.00603588
0.0058219
0.00575608
0.00582194
0.00593721
0.0060204
0.00602057
0.00593746
0.00582184
0.00575543
0.00575707
0.00582254
0.00593722
0.00601987
0.00602003
0.00593743
0.00582239
0.00575638
0.00582245
0.00603459
0.00625585
0.00641401
0.00641466
0.00625692
0.006035
0.00582197
0.00593714
0.00625597
0.006637
0.00699764
0.00700024
0.00664009
0.00625734
0.00593701
0.00601993
0.00641458
0.00699886
0.00799255
0.00800696
0.00700564
0.006417
0.00602012
0.0060202
0.00641565
0.00700299
0.00801522
0.00803012
0.0070098
0.00641807
0.00602039
0.00593753
0.00625774
0.00664198
0.00700841
0.00701104
0.00664509
0.00625912
0.00593739
0.00582227
0.00603535
0.00625817
0.00641798
0.00641864
0.00625923
0.00603576
0.00582179
0.00575601
0.00582185
0.00593711
0.0060203
0.00602045
0.00593732
0.0058217
0.00575532
0.00575708
0.00582261
0.00593733
0.00601999
0.00602011
0.00593747
0.00582242
0.00575642
0.0058225
0.00603473
0.00625605
0.00641419
0.00641476
0.00625695
0.00603502
0.005822
0.00593721
0.00625615
0.00663727
0.00699791
0.00700026
0.00664001
0.00625729
0.00593701
0.00601999
0.00641474
0.0069992
0.00799324
0.0080065
0.00700534
0.00641683
0.00602006
0.00602021
0.00641573
0.00700318
0.00801555
0.00802929
0.00700936
0.00641783
0.00602029
0.00593749
0.00625772
0.00664196
0.00700828
0.00701068
0.00664473
0.00625887
0.00593728
0.00582221
0.00603528
0.00625806
0.00641781
0.00641838
0.00625897
0.00603557
0.00582171
0.00575596
0.00582179
0.00593702
0.00602017
0.0060203
0.00593717
0.0058216
0.00575529
0.00575699
0.00582263
0.00593744
0.00602012
0.00602021
0.00593751
0.00582242
0.00575642
0.00582252
0.00603493
0.00625641
0.00641461
0.00641506
0.00625709
0.00603507
0.00582205
0.0059373
0.00625647
0.00663793
0.00699886
0.00700079
0.00664012
0.0062573
0.00593704
0.00602007
0.00641506
0.00700001
0.00799568
0.0080068
0.00700504
0.00641667
0.00602003
0.00602022
0.00641585
0.00700341
0.00801521
0.00802669
0.00700848
0.00641747
0.00602019
0.00593743
0.00625767
0.00664179
0.00700768
0.00700966
0.00664402
0.00625852
0.00593718
0.00582215
0.00603519
0.00625789
0.00641746
0.00641792
0.00625858
0.00603535
0.00582168
0.00575595
0.00582178
0.00593697
0.00602005
0.00602014
0.00593705
0.00582157
0.00575537
0.00575682
0.00582258
0.00593751
0.00602025
0.0060203
0.00593751
0.00582238
0.00575638
0.00582249
0.00603513
0.00625687
0.0064152
0.0064155
0.00625729
0.00603515
0.0058221
0.00593738
0.00625688
0.00663887
0.00700036
0.00700175
0.00664039
0.00625738
0.00593711
0.00602015
0.00641547
0.00700118
0.00799958
0.00800784
0.00700481
0.00641653
0.00602004
0.00602022
0.00641599
0.00700364
0.0080142
0.00802269
0.0070073
0.00641706
0.00602011
0.00593736
0.00625759
0.00664152
0.0070067
0.00700813
0.00664307
0.00625811
0.00593711
0.0058221
0.00603512
0.00625769
0.00641701
0.00641732
0.00625812
0.00603516
0.00582171
0.005756
0.00582182
0.00593697
0.00601997
0.00602002
0.00593699
0.00582163
0.00575556
0.00575658
0.00582247
0.00593752
0.00602034
0.00602035
0.00593748
0.00582231
0.00575631
0.00582242
0.00603529
0.00625732
0.00641585
0.006416
0.0062575
0.00603522
0.00582214
0.00593743
0.0062573
0.00663992
0.00700214
0.00700296
0.00664075
0.00625749
0.0059372
0.00602022
0.0064159
0.00700252
0.00800429
0.00800939
0.00700465
0.00641643
0.00602007
0.00602021
0.00641612
0.00700385
0.00801274
0.00801794
0.007006
0.00641666
0.00602006
0.0059373
0.00625751
0.00664119
0.00700553
0.00700637
0.00664205
0.00625772
0.00593708
0.00582208
0.00603507
0.0062575
0.00641655
0.00641671
0.00625769
0.00603501
0.00582181
0.00575608
0.00582192
0.00593702
0.00601994
0.00601995
0.00593699
0.00582176
0.0057558
0.00575634
0.00582232
0.00593749
0.00602038
0.00602036
0.00593742
0.00582221
0.00575622
0.00582231
0.0060354
0.00625771
0.00641643
0.00641646
0.0062577
0.00603528
0.00582216
0.00593744
0.00625766
0.00664091
0.00700389
0.00700419
0.00664113
0.0062576
0.00593727
0.00602027
0.00641629
0.00700381
0.00800903
0.00801111
0.00700455
0.00641635
0.00602011
0.0060202
0.00641624
0.00700401
0.00801112
0.00801324
0.00700476
0.0064163
0.00602004
0.00593725
0.00625744
0.00664086
0.00700436
0.00700466
0.00664111
0.00625739
0.00593709
0.00582208
0.00603504
0.00625734
0.00641613
0.00641616
0.00625734
0.00603493
0.00582193
0.00575617
0.00582203
0.00593711
0.00601996
0.00601994
0.00593705
0.00582192
0.00575606
0.00575612
0.00582217
0.00593743
0.00602037
0.00602033
0.00593734
0.00582211
0.00575614
0.00582221
0.00603545
0.006258
0.00641688
0.00641681
0.00625783
0.0060353
0.00582216
0.00593743
0.00625792
0.00664171
0.00700537
0.00700523
0.00664144
0.00625769
0.00593732
0.00602029
0.00641659
0.00700487
0.00801311
0.00801265
0.00700448
0.0064163
0.00602014
0.00602018
0.00641632
0.00700412
0.00800964
0.00800921
0.00700374
0.00641603
0.00602004
0.00593721
0.00625738
0.00664059
0.00700336
0.00700323
0.00664034
0.00625715
0.00593711
0.00582208
0.00603504
0.00625723
0.00641581
0.00641574
0.00625708
0.0060349
0.00582204
0.00575626
0.00582214
0.0059372
0.00601999
0.00601996
0.00593712
0.00582208
0.00575628
0.00575597
0.00582205
0.00593736
0.00602034
0.0060203
0.00593727
0.00582203
0.00575607
0.00582212
0.00603546
0.00625817
0.00641718
0.00641704
0.00625791
0.0060353
0.00582215
0.00593741
0.00625809
0.00664226
0.00700644
0.00700598
0.00664165
0.00625774
0.00593735
0.00602029
0.00641679
0.00700564
0.00801616
0.00801379
0.00700443
0.00641625
0.00602016
0.00602016
0.00641637
0.00700419
0.00800852
0.0080062
0.00700299
0.00641584
0.00602004
0.00593718
0.00625734
0.0066404
0.00700264
0.00700218
0.0066398
0.00625699
0.00593714
0.00582209
0.00603504
0.00625717
0.00641559
0.00641545
0.00625691
0.00603489
0.00582213
0.00575632
0.00582222
0.00593727
0.00602003
0.00601999
0.00593718
0.0058222
0.00575643
0.00575587
0.00582197
0.00593731
0.00602031
0.00602026
0.00593722
0.00582198
0.00575604
0.00582205
0.00603545
0.00625825
0.00641734
0.00641715
0.00625793
0.00603528
0.00582214
0.00593738
0.00625817
0.00664259
0.00700709
0.00700642
0.00664175
0.00625775
0.00593736
0.00602028
0.0064169
0.00700611
0.00801809
0.00801447
0.00700437
0.00641621
0.00602017
0.00602014
0.0064164
0.00700423
0.00800782
0.00800427
0.0070025
0.00641571
0.00602003
0.00593717
0.00625731
0.00664028
0.00700218
0.00700153
0.00663946
0.0062569
0.00593715
0.0058221
0.00603504
0.00625713
0.00641546
0.00641528
0.00625682
0.00603489
0.00582219
0.00575635
0.00582226
0.00593731
0.00602006
0.00602001
0.00593723
0.00582227
0.00575652
0.00575583
0.00582193
0.00593727
0.00602028
0.00602022
0.00593718
0.00582195
0.00575602
0.00582201
0.00603542
0.00625827
0.00641739
0.00641719
0.00625792
0.00603526
0.00582213
0.00593735
0.00625819
0.00664272
0.00700739
0.0070066
0.00664177
0.00625773
0.00593735
0.00602026
0.00641694
0.00700633
0.00801907
0.00801475
0.0070043
0.00641617
0.00602016
0.00602012
0.0064164
0.00700424
0.00800747
0.00800325
0.00700223
0.00641564
0.00602003
0.00593715
0.00625729
0.00664021
0.00700195
0.00700118
0.00663928
0.00625685
0.00593716
0.00582209
0.00603504
0.0062571
0.00641539
0.00641519
0.00625677
0.00603489
0.00582221
0.00575636
0.00582227
0.00593732
0.00602006
0.00602001
0.00593724
0.0058223
0.00575655
0.00575581
0.0058219
0.00593724
0.00602026
0.0060202
0.00593717
0.00582194
0.00575602
0.00582198
0.00603539
0.00625825
0.00641738
0.00641717
0.0062579
0.00603525
0.00582212
0.00593732
0.00625816
0.00664274
0.00700745
0.00700663
0.00664175
0.00625771
0.00593734
0.00602023
0.00641692
0.00700637
0.00801938
0.0080148
0.00700425
0.00641615
0.00602016
0.0060201
0.00641637
0.00700422
0.00800733
0.00800286
0.00700212
0.00641561
0.00602002
0.00593713
0.00625726
0.00664017
0.00700185
0.00700105
0.0066392
0.00625682
0.00593716
0.00582207
0.00603502
0.00625708
0.00641536
0.00641515
0.00625674
0.00603488
0.00582222
0.00575634
0.00582225
0.00593731
0.00602005
0.00602
0.00593724
0.00582229
0.00575655
0.00575581
0.00582189
0.00593722
0.00602024
0.00602019
0.00593716
0.00582194
0.00575602
0.00582197
0.00603536
0.0062582
0.00641734
0.00641714
0.00625788
0.00603524
0.00582211
0.0059373
0.00625811
0.00664267
0.00700739
0.00700659
0.00664173
0.0062577
0.00593733
0.0060202
0.00641687
0.00700629
0.00801926
0.00801479
0.00700424
0.00641614
0.00602015
0.00602007
0.00641632
0.00700415
0.00800724
0.00800287
0.00700211
0.0064156
0.00602002
0.0059371
0.00625722
0.00664011
0.00700181
0.00700103
0.0066392
0.00625682
0.00593715
0.00582206
0.00603498
0.00625704
0.00641533
0.00641513
0.00625673
0.00603487
0.0058222
0.00575633
0.00582223
0.00593728
0.00602003
0.00601999
0.00593722
0.00582228
0.00575654
0.00575582
0.00582189
0.00593721
0.00602022
0.00602018
0.00593716
0.00582194
0.00575601
0.00582196
0.00603533
0.00625815
0.00641728
0.00641711
0.00625787
0.00603523
0.0058221
0.00593727
0.00625805
0.00664256
0.00700726
0.00700655
0.00664173
0.0062577
0.00593732
0.00602017
0.00641678
0.00700613
0.00801891
0.00801484
0.00700428
0.00641615
0.00602014
0.00602004
0.00641625
0.00700401
0.00800707
0.0080031
0.00700219
0.00641562
0.00602001
0.00593708
0.00625716
0.00664004
0.00700176
0.00700107
0.00663922
0.00625682
0.00593714
0.00582204
0.00603494
0.00625699
0.00641529
0.00641512
0.00625673
0.00603486
0.00582218
0.00575632
0.0058222
0.00593725
0.00602
0.00601997
0.0059372
0.00582226
0.00575651
0.00575583
0.00582188
0.00593719
0.0060202
0.00602017
0.00593715
0.00582193
0.005756
0.00582196
0.00603529
0.00625809
0.00641723
0.00641708
0.00625787
0.00603522
0.00582208
0.00593725
0.00625798
0.00664243
0.00700712
0.00700652
0.00664175
0.0062577
0.00593731
0.00602014
0.00641668
0.00700591
0.00801845
0.00801501
0.00700438
0.00641618
0.00602013
0.00602001
0.00641615
0.00700382
0.00800679
0.00800344
0.0070023
0.00641565
0.00602
0.00593706
0.0062571
0.00663994
0.00700169
0.00700111
0.00663927
0.00625684
0.00593712
0.00582203
0.0060349
0.00625694
0.00641525
0.00641512
0.00625673
0.00603485
0.00582216
0.00575632
0.00582219
0.00593722
0.00601997
0.00601995
0.00593719
0.00582224
0.00575648
0.00575585
0.00582187
0.00593716
0.00602017
0.00602015
0.00593714
0.00582191
0.00575597
0.00582196
0.00603525
0.00625802
0.00641716
0.00641706
0.00625786
0.00603521
0.00582206
0.00593724
0.0062579
0.00664229
0.00700697
0.00700651
0.00664178
0.00625771
0.00593729
0.00602011
0.00641658
0.00700568
0.00801793
0.00801526
0.0070045
0.00641621
0.00602012
0.00601998
0.00641605
0.00700361
0.00800643
0.00800382
0.00700245
0.00641569
0.00601999
0.00593704
0.00625703
0.00663983
0.00700161
0.00700117
0.00663933
0.00625685
0.0059371
0.00582203
0.00603487
0.00625688
0.00641521
0.00641511
0.00625673
0.00603484
0.00582214
0.00575633
0.00582217
0.00593719
0.00601995
0.00601993
0.00593718
0.00582222
0.00575646
0.00575586
0.00582186
0.00593714
0.00602014
0.00602013
0.00593713
0.00582189
0.00575594
0.00582196
0.00603521
0.00625795
0.0064171
0.00641703
0.00625785
0.00603519
0.00582203
0.00593722
0.00625783
0.00664216
0.00700682
0.0070065
0.0066418
0.0062577
0.00593726
0.00602009
0.00641648
0.00700544
0.00801741
0.0080155
0.00700461
0.00641623
0.0060201
0.00601996
0.00641597
0.00700341
0.00800608
0.00800422
0.00700259
0.00641572
0.00601997
0.00593704
0.00625698
0.00663973
0.00700154
0.00700123
0.00663939
0.00625686
0.00593708
0.00582203
0.00603485
0.00625684
0.00641518
0.00641511
0.00625674
0.00603484
0.00582211
0.00575634
0.00582217
0.00593717
0.00601993
0.00601992
0.00593717
0.0058222
0.00575643
0.00575587
0.00582185
0.00593711
0.00602011
0.0060201
0.00593711
0.00582187
0.00575592
0.00582196
0.00603518
0.00625789
0.00641703
0.00641698
0.00625782
0.00603517
0.005822
0.00593721
0.00625777
0.00664202
0.00700666
0.00700645
0.00664179
0.00625769
0.00593723
0.00602007
0.0064164
0.00700522
0.00801689
0.00801566
0.00700469
0.00641624
0.00602008
0.00601995
0.0064159
0.00700324
0.00800581
0.00800462
0.00700272
0.00641574
0.00601996
0.00593703
0.00625694
0.00663966
0.0070015
0.0070013
0.00663944
0.00625687
0.00593706
0.00582204
0.00603483
0.00625681
0.00641517
0.00641512
0.00625675
0.00603483
0.00582208
0.00575635
0.00582216
0.00593716
0.00601992
0.00601992
0.00593716
0.00582219
0.0057564
0.00575588
0.00582185
0.00593709
0.00602009
0.00602008
0.00593709
0.00582186
0.00575591
0.00582195
0.00603515
0.00625782
0.00641695
0.00641692
0.00625779
0.00603514
0.00582197
0.0059372
0.00625771
0.0066419
0.00700648
0.00700636
0.00664176
0.00625766
0.00593721
0.00602005
0.00641633
0.00700503
0.0080164
0.0080157
0.00700473
0.00641624
0.00602006
0.00601993
0.00641584
0.00700312
0.00800568
0.00800499
0.00700282
0.00641576
0.00601994
0.00593703
0.00625692
0.00663962
0.0070015
0.00700139
0.0066395
0.00625688
0.00593704
0.00582204
0.00603482
0.00625679
0.00641516
0.00641514
0.00625676
0.00603482
0.00582206
0.00575635
0.00582215
0.00593715
0.00601991
0.00601991
0.00593715
0.00582217
0.00575637
0.0057559
0.00582185
0.00593708
0.00602007
0.00602006
0.00593708
0.00582185
0.00575591
0.00582195
0.00603512
0.00625777
0.00641688
0.00641687
0.00625775
0.00603512
0.00582196
0.00593718
0.00625766
0.00664178
0.00700632
0.00700626
0.00664172
0.00625763
0.00593718
0.00602003
0.00641626
0.00700488
0.00801597
0.00801563
0.00700474
0.00641622
0.00602004
0.00601992
0.0064158
0.00700304
0.00800564
0.00800532
0.0070029
0.00641576
0.00601992
0.00593702
0.00625689
0.00663959
0.00700153
0.00700147
0.00663954
0.00625688
0.00593703
0.00582203
0.0060348
0.00625678
0.00641516
0.00641515
0.00625677
0.00603481
0.00582204
0.00575633
0.00582214
0.00593713
0.0060199
0.00601989
0.00593713
0.00582214
0.00575635
0.00575591
0.00582185
0.00593707
0.00602005
0.00602005
0.00593707
0.00582185
0.00575591
0.00582195
0.0060351
0.00625773
0.00641683
0.00641682
0.00625772
0.0060351
0.00582195
0.00593717
0.00625761
0.00664169
0.00700618
0.00700617
0.00664168
0.00625761
0.00593717
0.00602002
0.00641621
0.00700475
0.00801562
0.00801554
0.00700473
0.00641621
0.00602002
0.0060199
0.00641576
0.00700297
0.00800564
0.00800558
0.00700295
0.00641576
0.00601991
0.00593701
0.00625687
0.00663957
0.00700154
0.00700154
0.00663957
0.00625688
0.00593701
0.00582201
0.00603478
0.00625676
0.00641515
0.00641515
0.00625676
0.00603479
0.00582202
0.00575632
0.00582212
0.00593711
0.00601987
0.00601988
0.00593711
0.00582212
0.00575632
0.00575591
0.00582185
0.00593706
0.00602004
0.00602005
0.00593707
0.00582185
0.00575591
0.00582195
0.00603508
0.00625769
0.00641679
0.0064168
0.00625771
0.0060351
0.00582195
0.00593715
0.00625757
0.00664162
0.00700608
0.00700611
0.00664166
0.0062576
0.00593716
0.00602
0.00641616
0.00700465
0.00801535
0.00801551
0.00700473
0.00641621
0.00602001
0.00601988
0.00641571
0.00700289
0.00800558
0.00800575
0.00700299
0.00641576
0.0060199
0.00593699
0.00625683
0.00663952
0.00700153
0.00700156
0.00663958
0.00625687
0.005937
0.005822
0.00603475
0.00625672
0.00641513
0.00641514
0.00625675
0.00603478
0.005822
0.00575631
0.0058221
0.00593708
0.00601985
0.00601985
0.00593709
0.0058221
0.00575631
0.00575591
0.00582184
0.00593706
0.00602004
0.00602004
0.00593707
0.00582185
0.0057559
0.00582194
0.00603507
0.00625767
0.00641677
0.00641679
0.00625771
0.00603509
0.00582194
0.00593714
0.00625754
0.00664157
0.00700603
0.00700611
0.00664167
0.0062576
0.00593716
0.00601998
0.00641611
0.00700455
0.00801516
0.00801558
0.00700476
0.00641621
0.00602
0.00601986
0.00641566
0.0070028
0.00800543
0.00800585
0.00700301
0.00641576
0.00601989
0.00593697
0.00625679
0.00663946
0.00700147
0.00700155
0.00663957
0.00625686
0.00593699
0.00582199
0.00603473
0.00625668
0.00641509
0.00641511
0.00625673
0.00603476
0.00582199
0.00575631
0.00582208
0.00593706
0.00601983
0.00601983
0.00593707
0.00582209
0.00575629
0.00575591
0.00582183
0.00593704
0.00602003
0.00602004
0.00593706
0.00582183
0.00575588
0.00582194
0.00603505
0.00625765
0.00641676
0.00641679
0.00625771
0.00603509
0.00582193
0.00593713
0.00625751
0.00664153
0.00700601
0.00700613
0.00664169
0.0062576
0.00593715
0.00601996
0.00641607
0.00700446
0.00801504
0.00801574
0.00700481
0.00641621
0.00601999
0.00601984
0.00641561
0.00700268
0.00800519
0.00800588
0.00700303
0.00641576
0.00601988
0.00593696
0.00625675
0.00663938
0.00700137
0.00700151
0.00663955
0.00625684
0.00593697
0.00582198
0.0060347
0.00625664
0.00641504
0.00641508
0.00625671
0.00603474
0.00582198
0.00575631
0.00582207
0.00593704
0.00601981
0.00601982
0.00593706
0.00582208
0.00575629
0.0057559
0.00582182
0.00593702
0.00602001
0.00602002
0.00593704
0.00582181
0.00575586
0.00582193
0.00603503
0.00625762
0.00641674
0.00641679
0.00625771
0.00603507
0.00582191
0.00593712
0.00625749
0.00664148
0.00700598
0.00700616
0.0066417
0.0062576
0.00593713
0.00601995
0.00641603
0.00700438
0.00801494
0.00801591
0.00700485
0.00641621
0.00601998
0.00601983
0.00641556
0.00700258
0.00800493
0.00800589
0.00700305
0.00641575
0.00601986
0.00593695
0.00625671
0.00663931
0.00700128
0.00700146
0.00663954
0.00625683
0.00593696
0.00582198
0.00603468
0.00625661
0.006415
0.00641505
0.00625669
0.00603473
0.00582196
0.00575632
0.00582207
0.00593703
0.0060198
0.00601981
0.00593706
0.00582208
0.00575628
0.0057559
0.0058218
0.005937
0.00601998
0.00602
0.00593702
0.00582179
0.00575584
0.00582192
0.00603501
0.00625759
0.0064167
0.00641676
0.00625768
0.00603505
0.00582189
0.00593711
0.00625745
0.00664143
0.00700594
0.00700615
0.00664169
0.00625758
0.00593711
0.00601994
0.00641599
0.0070043
0.00801481
0.008016
0.00700487
0.0064162
0.00601996
0.00601982
0.00641553
0.00700249
0.00800476
0.00800593
0.00700306
0.00641574
0.00601985
0.00593694
0.00625669
0.00663926
0.00700123
0.00700145
0.00663953
0.00625682
0.00593694
0.00582199
0.00603468
0.00625659
0.00641498
0.00641504
0.00625669
0.00603472
0.00582196
0.00575633
0.00582208
0.00593703
0.00601979
0.00601981
0.00593706
0.00582207
0.00575628
0.00575589
0.00582179
0.00593697
0.00601995
0.00601997
0.00593699
0.00582177
0.00575583
0.00582191
0.00603497
0.00625754
0.00641664
0.0064167
0.00625764
0.00603502
0.00582187
0.00593709
0.00625741
0.00664136
0.00700583
0.00700607
0.00664164
0.00625754
0.00593708
0.00601992
0.00641595
0.00700422
0.0080146
0.00801594
0.00700484
0.00641618
0.00601994
0.00601981
0.0064155
0.00700245
0.00800474
0.00800605
0.00700307
0.00641573
0.00601984
0.00593694
0.00625668
0.00663926
0.00700124
0.00700148
0.00663955
0.00625682
0.00593694
0.00582199
0.00603468
0.00625659
0.00641499
0.00641505
0.00625669
0.00603472
0.00582195
0.00575633
0.00582208
0.00593703
0.0060198
0.00601981
0.00593706
0.00582207
0.00575627
0.0057559
0.00582178
0.00593695
0.00601992
0.00601993
0.00593697
0.00582176
0.00575583
0.00582189
0.00603494
0.00625748
0.00641656
0.00641662
0.00625758
0.00603498
0.00582185
0.00593707
0.00625736
0.00664126
0.00700567
0.00700591
0.00664155
0.00625749
0.00593706
0.0060199
0.00641591
0.00700412
0.00801429
0.00801568
0.00700477
0.00641614
0.00601992
0.0060198
0.00641549
0.00700245
0.0080049
0.00800628
0.0070031
0.00641573
0.00601982
0.00593694
0.00625669
0.00663929
0.00700133
0.00700157
0.00663958
0.00625682
0.00593693
0.00582198
0.00603468
0.00625661
0.00641502
0.00641509
0.00625671
0.00603472
0.00582194
0.00575632
0.00582207
0.00593703
0.0060198
0.00601981
0.00593705
0.00582206
0.00575626
0.00575591
0.00582177
0.00593694
0.00601989
0.00601991
0.00593696
0.00582176
0.00575584
0.00582188
0.0060349
0.00625741
0.00641646
0.00641652
0.00625751
0.00603494
0.00582184
0.00593705
0.0062573
0.00664114
0.00700545
0.0070057
0.00664143
0.00625743
0.00593704
0.00601988
0.00641586
0.00700402
0.00801387
0.00801527
0.00700467
0.0064161
0.0060199
0.00601979
0.00641549
0.00700249
0.00800521
0.0080066
0.00700313
0.00641572
0.00601982
0.00593694
0.0062567
0.00663934
0.00700147
0.00700172
0.00663964
0.00625683
0.00593693