/*--------------------------------*- C++ -*----------------------------------*\
| =========                 |                                                 |
| \\      /  F ield         | OpenFOAM: The Open Source CFD Toolbox           |
|  \\    /   O peration     | Version:  2406                                  |
|   \\  /    A nd           | Website:  www.openfoam.com                      |
|    \\/     M anipulation  |                                                 |
\*---------------------------------------------------------------------------*/
FoamFile
{
    version     2.0;
    format      ascii;
    arch        "LSB;label=32;scalar=64";
    class       surfaceScalarField;
    location    "0.5";
    object      phi;
}
// * * * * * * * * * * * * * * * * * * * * * * * * * * * * * * * * * * * * * //

dimensions      [0 3 -1 0 0 0 0];

oriented        oriented;

internalField   nonuniform List<scalar> 
46880
(
5.70227e-05
5.70227e-05
9.25627e-05
-6.5809e-05
-6.5809e-05
4.14847e-05
5.85524e-05
0.000107332
-6.81955e-05
2.17749e-05
5.89973e-05
0.000116854
-6.91211e-05
6.32615e-11
5.91027e-05
0.00012156
-6.94051e-05
-2.17748e-05
5.91027e-05
0.00012156
-6.94051e-05
-4.14846e-05
5.89973e-05
0.000116854
-6.91211e-05
-5.70226e-05
5.85524e-05
0.000107332
-6.81955e-05
5.70227e-05
9.25627e-05
-6.58089e-05
-6.5809e-05
5.85524e-05
4.14847e-05
0.000107332
-6.81955e-05
4.20292e-05
4.20292e-05
0.000121733
2.18255e-05
4.20504e-05
0.000130284
6.37819e-11
4.1986e-05
0.000134326
-2.18253e-05
4.1986e-05
0.000134326
-4.2029e-05
4.20504e-05
0.000130284
-5.85524e-05
4.20292e-05
0.000121733
4.14847e-05
0.000107332
-6.81954e-05
5.89973e-05
2.17749e-05
0.000116854
-6.91211e-05
4.20504e-05
2.18255e-05
0.000130284
2.17158e-05
2.17158e-05
0.000137965
6.44124e-11
2.16254e-05
0.00014148
-2.17157e-05
2.16254e-05
0.00014148
-4.20503e-05
2.17158e-05
0.000137965
-5.89972e-05
2.18255e-05
0.000130284
2.17749e-05
0.000116854
-6.9121e-05
5.91027e-05
5.80711e-11
0.00012156
-6.94051e-05
4.1986e-05
5.87916e-11
0.000134326
2.16255e-05
5.98033e-11
0.00014148
6.47611e-11
6.04727e-11
0.000144691
-2.16253e-05
6.0768e-11
0.000144691
-4.19859e-05
6.05714e-11
0.00014148
-5.91026e-05
5.99039e-11
0.000134326
5.91215e-11
0.000121561
-6.94051e-05
5.91027e-05
-2.17748e-05
0.00012156
-6.94051e-05
4.1986e-05
-2.18254e-05
0.000134326
2.16255e-05
-2.17157e-05
0.00014148
6.48131e-11
-2.16253e-05
0.000144691
-2.16253e-05
-2.16253e-05
0.000144691
-4.19859e-05
-2.17157e-05
0.00014148
-5.91026e-05
-2.18254e-05
0.000134326
-2.17748e-05
0.000121561
-6.94051e-05
5.89973e-05
-4.14846e-05
0.000116854
-6.91211e-05
4.20504e-05
-4.20291e-05
0.000130284
2.17158e-05
-4.20503e-05
0.000137965
6.45184e-11
-4.19859e-05
0.00014148
-2.17157e-05
-4.19859e-05
0.00014148
-4.20503e-05
-4.20503e-05
0.000137965
-5.89972e-05
-4.20291e-05
0.000130284
-4.14846e-05
0.000116854
-6.9121e-05
5.85524e-05
-5.70226e-05
0.000107332
-6.81955e-05
4.20292e-05
-5.85524e-05
0.000121733
2.18255e-05
-5.89972e-05
0.000130284
6.3994e-11
-5.91026e-05
0.000134326
-2.18253e-05
-5.91026e-05
0.000134326
-4.2029e-05
-5.89972e-05
0.000130284
-5.85524e-05
-5.85524e-05
0.000121733
-5.70226e-05
0.000107332
-6.81954e-05
5.70227e-05
9.25627e-05
-6.58089e-05
-6.5809e-05
4.14847e-05
0.000107332
-6.81954e-05
2.17749e-05
0.000116854
-6.9121e-05
6.33449e-11
0.000121561
-6.94051e-05
-2.17748e-05
0.000121561
-6.94051e-05
-4.14846e-05
0.000116854
-6.9121e-05
-5.70226e-05
0.000107332
-6.81954e-05
9.25628e-05
-6.58089e-05
-6.58089e-05
2.12983e-05
2.12983e-05
9.11551e-05
-2.05945e-05
-2.05945e-05
1.73872e-05
2.43167e-05
0.000110076
-2.31489e-05
9.64863e-06
2.6055e-05
0.000123205
-2.46672e-05
3.15154e-10
2.68717e-05
0.000129837
-2.54996e-05
-9.64802e-06
2.68717e-05
0.000129837
-2.54996e-05
-1.73867e-05
2.6055e-05
0.000123205
-2.46672e-05
-2.12979e-05
2.43167e-05
0.000110076
-2.3149e-05
2.12983e-05
9.11553e-05
-2.05942e-05
-2.05945e-05
2.43167e-05
1.73872e-05
0.000110076
-2.31489e-05
1.97651e-05
1.97651e-05
0.000130836
1.09363e-05
2.11181e-05
0.000144049
3.19414e-10
2.17197e-05
0.000150414
-1.09357e-05
2.17197e-05
0.000150414
-1.97645e-05
2.11181e-05
0.00014405
-2.43163e-05
1.97651e-05
0.000130836
1.73873e-05
0.000110076
-2.31486e-05
2.6055e-05
9.64861e-06
0.000123205
-2.46672e-05
2.11181e-05
1.09363e-05
0.000144049
1.16723e-05
1.16722e-05
0.000156857
3.20771e-10
1.19941e-05
0.000162878
-1.16716e-05
1.19941e-05
0.000162878
-2.11176e-05
1.16722e-05
0.000156857
-2.60546e-05
1.09363e-05
0.00014405
9.64863e-06
0.000123205
-2.46669e-05
2.68717e-05
2.94095e-10
0.000129837
-2.54996e-05
2.17197e-05
2.97873e-10
0.000150414
1.19941e-05
2.99316e-10
0.000162878
3.2121e-10
2.99887e-10
0.000168678
-1.19935e-05
2.99795e-10
0.000168678
-2.17192e-05
2.98783e-10
0.000162878
-2.68712e-05
2.96429e-10
0.000150414
2.91106e-10
0.000129837
-2.54993e-05
2.68717e-05
-9.64804e-06
0.000129837
-2.54996e-05
2.17197e-05
-1.09357e-05
0.000150414
1.19941e-05
-1.16717e-05
0.000162878
3.21181e-10
-1.19935e-05
0.000168678
-1.19935e-05
-1.19935e-05
0.000168678
-2.17192e-05
-1.16717e-05
0.000162878
-2.68712e-05
-1.09357e-05
0.000150414
-9.64807e-06
0.000129837
-2.54993e-05
2.6055e-05
-1.73867e-05
0.000123205
-2.46672e-05
2.11181e-05
-1.97645e-05
0.00014405
1.16723e-05
-2.11176e-05
0.000156857
3.20647e-10
-2.17192e-05
0.000162878
-1.16716e-05
-2.17192e-05
0.000162878
-2.11176e-05
-2.11176e-05
0.000156857
-2.60546e-05
-1.97646e-05
0.00014405
-1.73868e-05
0.000123205
-2.46669e-05
2.43167e-05
-2.12979e-05
0.000110076
-2.3149e-05
1.97651e-05
-2.43163e-05
0.000130836
1.09363e-05
-2.60546e-05
0.00014405
3.1926e-10
-2.68713e-05
0.000150414
-1.09357e-05
-2.68713e-05
0.000150414
-1.97645e-05
-2.60546e-05
0.00014405
-2.43163e-05
-2.43163e-05
0.000130836
-2.12979e-05
0.000110076
-2.31487e-05
2.12983e-05
9.11553e-05
-2.05942e-05
-2.05945e-05
1.73873e-05
0.000110076
-2.31487e-05
9.64865e-06
0.000123205
-2.46669e-05
3.14947e-10
0.000129837
-2.54993e-05
-9.64804e-06
0.000129837
-2.54993e-05
-1.73867e-05
0.000123205
-2.46669e-05
-2.12979e-05
0.000110076
-2.31487e-05
9.11555e-05
-2.05943e-05
-2.05943e-05
1.18132e-05
1.18131e-05
8.91253e-05
-1.07983e-05
-1.07982e-05
9.90327e-06
1.43961e-05
0.000110626
-1.30367e-05
5.62231e-06
1.59723e-05
0.000125962
-1.44492e-05
8.41449e-10
1.67472e-05
0.000133897
-1.51856e-05
-5.6207e-06
1.67472e-05
0.000133897
-1.51856e-05
-9.90188e-06
1.59724e-05
0.000125963
-1.44492e-05
-1.18121e-05
1.43962e-05
0.000110627
-1.30368e-05
1.18133e-05
8.91259e-05
-1.07976e-05
-1.07984e-05
1.43961e-05
9.90324e-06
0.000110626
-1.30367e-05
1.20483e-05
1.20483e-05
0.000135532
6.80981e-06
1.33219e-05
0.000151938
8.49108e-10
1.39208e-05
0.000160049
-6.80818e-06
1.39208e-05
0.000160049
-1.20469e-05
1.33219e-05
0.000151939
-1.4395e-05
1.20484e-05
0.000135532
9.90336e-06
0.000110627
-1.3036e-05
1.59724e-05
5.62227e-06
0.000125962
-1.44492e-05
1.33219e-05
6.80978e-06
0.000151938
7.50053e-06
7.50049e-06
0.000168499
8.46503e-10
7.81132e-06
0.000176487
-7.4989e-06
7.81132e-06
0.000176487
-1.33205e-05
7.5005e-06
0.0001685
-1.59712e-05
6.80981e-06
0.000151939
5.62233e-06
0.000125963
-1.44485e-05
1.67472e-05
8.06189e-10
0.000133897
-1.51856e-05
1.39208e-05
8.08254e-10
0.000160049
7.81137e-06
8.00467e-10
0.000176487
8.42599e-10
7.91828e-10
0.000184299
-7.80974e-06
7.89069e-10
0.000184299
-1.39194e-05
7.91986e-10
0.000176487
-1.67461e-05
7.93871e-10
0.00016005
7.86428e-10
0.000133897
-1.51849e-05
1.67472e-05
-5.62073e-06
0.000133897
-1.51857e-05
1.39208e-05
-6.80822e-06
0.000160049
7.81137e-06
-7.49894e-06
0.000176487
8.44113e-10
-7.80979e-06
0.000184299
-7.80974e-06
-7.8098e-06
0.0001843
-1.39194e-05
-7.49897e-06
0.000176487
-1.67461e-05
-6.80828e-06
0.00016005
-5.62083e-06
0.000133897
-1.51849e-05
1.59724e-05
-9.90191e-06
0.000125963
-1.44493e-05
1.33219e-05
-1.20469e-05
0.000151939
7.50055e-06
-1.33205e-05
0.0001685
8.50658e-10
-1.39194e-05
0.000176487
-7.49891e-06
-1.39194e-05
0.000176487
-1.33205e-05
-1.33205e-05
0.0001685
-1.59713e-05
-1.2047e-05
0.000151939
-9.90206e-06
0.000125963
-1.44485e-05
1.43962e-05
-1.18121e-05
0.000110627
-1.30368e-05
1.20484e-05
-1.4395e-05
0.000135532
6.80986e-06
-1.59713e-05
0.000151939
8.54983e-10
-1.67461e-05
0.00016005
-6.80822e-06
-1.67461e-05
0.00016005
-1.2047e-05
-1.59713e-05
0.000151939
-1.43951e-05
-1.43951e-05
0.000135533
-1.18123e-05
0.000110627
-1.30361e-05
1.18133e-05
8.91258e-05
-1.07976e-05
-1.07984e-05
9.90341e-06
0.000110627
-1.3036e-05
5.62239e-06
0.000125963
-1.44485e-05
8.47352e-10
0.000133897
-1.51849e-05
-5.62077e-06
0.000133897
-1.5185e-05
-9.90201e-06
0.000125963
-1.44486e-05
-1.18122e-05
0.000110627
-1.30361e-05
8.91264e-05
-1.07977e-05
-1.07977e-05
2.9863e-06
2.98625e-06
8.73771e-05
-2.11216e-06
-2.11212e-06
2.93807e-06
4.20983e-06
0.00010932
-2.85532e-06
1.80791e-06
5.10452e-06
0.000125442
-3.45366e-06
2.08838e-09
5.56922e-06
0.000133926
-3.7925e-06
-1.80392e-06
5.5693e-06
0.000133926
-3.79257e-06
-2.93465e-06
5.10476e-06
0.000125442
-3.45389e-06
-2.98369e-06
4.21024e-06
0.000109321
-2.8557e-06
2.98677e-06
8.73785e-05
-2.11055e-06
-2.11253e-06
4.20987e-06
2.93802e-06
0.00010932
-2.85535e-06
4.13913e-06
4.13909e-06
0.000135673
2.52594e-06
4.95783e-06
0.000153698
2.03435e-09
5.34318e-06
0.000162799
-2.52204e-06
5.34323e-06
0.0001628
-4.13573e-06
4.95799e-06
0.000153699
-4.20726e-06
4.13939e-06
0.000135674
2.93845e-06
0.000109322
-2.85369e-06
5.10456e-06
1.80785e-06
0.000125442
-3.45369e-06
4.95787e-06
2.52589e-06
0.000153698
2.98932e-06
2.98927e-06
0.000172437
1.97054e-09
3.17621e-06
0.000181641
-2.98553e-06
3.17622e-06
0.000181642
-4.95455e-06
2.98933e-06
0.000172437
-5.102e-06
2.52603e-06
0.0001537
1.80807e-06
0.000125443
-3.45208e-06
5.56926e-06
2.02792e-09
0.000133926
-3.79252e-06
5.34323e-06
1.9797e-09
0.000162799
3.17627e-06
1.9129e-09
0.000181641
1.92523e-09
1.86e-09
0.000190648
-3.17254e-06
1.85231e-09
0.000190648
-5.33994e-06
1.89025e-09
0.000181642
-5.56673e-06
1.94472e-09
0.000162801
1.98758e-09
0.000133928
-3.79093e-06
5.56934e-06
-1.80398e-06
0.000133926
-3.79259e-06
5.34329e-06
-2.5221e-06
0.0001628
3.17629e-06
-2.98559e-06
0.000181642
1.927e-09
-3.1726e-06
0.000190648
-3.17256e-06
-3.17263e-06
0.000190648
-5.34e-06
-2.9857e-06
0.000181642
-5.56681e-06
-2.5223e-06
0.000162801
-1.80428e-06
0.000133928
-3.791e-06
5.10481e-06
-2.93469e-06
0.000125442
-3.45392e-06
4.95806e-06
-4.13578e-06
0.000153699
2.98941e-06
-4.9546e-06
0.000172437
1.97377e-09
-5.34e-06
0.000181642
-2.98561e-06
-5.34006e-06
0.000181642
-4.95472e-06
-4.95479e-06
0.000172438
-5.10225e-06
-4.13613e-06
0.000153701
-2.93518e-06
0.000125444
-3.45231e-06
4.21029e-06
-2.98373e-06
0.000109321
-2.85573e-06
4.13945e-06
-4.2073e-06
0.000135674
2.52611e-06
-5.10204e-06
0.0001537
2.03334e-09
-5.56678e-06
0.000162801
-2.52222e-06
-5.56686e-06
0.000162801
-4.13606e-06
-5.1023e-06
0.000153701
-4.20768e-06
-4.20774e-06
0.000135676
-2.98429e-06
0.000109323
-2.85407e-06
2.98682e-06
8.73784e-05
-2.11057e-06
-2.11255e-06
2.93851e-06
0.000109322
-2.85371e-06
1.80815e-06
0.000125443
-3.45211e-06
2.07574e-09
0.000133928
-3.79096e-06
-1.80419e-06
0.000133928
-3.79103e-06
-2.9351e-06
0.000125444
-3.45234e-06
-2.98423e-06
0.000109323
-2.85411e-06
8.73798e-05
-2.11096e-06
-2.111e-06
1.76126e-06
1.761e-06
8.68324e-05
-1.48889e-06
-1.4887e-06
1.58888e-06
2.32031e-06
0.000109054
-1.88224e-06
9.49022e-07
2.73455e-06
0.000125516
-2.16894e-06
5.16906e-09
2.9483e-06
0.000134242
-2.32081e-06
-9.39174e-07
2.94853e-06
0.000134243
-2.32102e-06
-1.58044e-06
2.73525e-06
0.000125518
-2.16956e-06
-1.75488e-06
2.32145e-06
0.000109057
-1.88324e-06
1.76242e-06
8.68359e-05
-1.48495e-06
-1.4898e-06
2.3205e-06
1.58858e-06
0.000109054
-1.88238e-06
2.1373e-06
2.13709e-06
0.000136039
1.28089e-06
2.53323e-06
0.000154756
4.98335e-09
2.71679e-06
0.000164307
-1.27135e-06
2.71695e-06
0.000164308
-2.129e-06
2.53376e-06
0.000154758
-2.31415e-06
2.138e-06
0.000136043
1.58982e-06
0.000109058
-1.87839e-06
2.73467e-06
9.4871e-07
0.000125516
-2.16903e-06
2.53337e-06
1.28068e-06
0.000154756
1.51023e-06
1.51008e-06
0.000174483
4.73922e-09
1.59438e-06
0.000184269
-1.50111e-06
1.59445e-06
0.00018427
-2.52538e-06
1.51034e-06
0.000174485
-2.72855e-06
1.28117e-06
0.00015476
9.49431e-07
0.00012552
-2.1652e-06
2.94838e-06
4.87187e-09
0.000134242
-2.32086e-06
2.71689e-06
4.77874e-09
0.000164307
1.59449e-06
4.59494e-09
0.000184269
4.55943e-09
4.44617e-09
0.000193828
-1.58565e-06
4.44187e-09
0.000193828
-2.7091e-06
4.58362e-09
0.000184271
-2.9424e-06
4.77003e-09
0.00016431
4.88522e-09
0.000134247
-2.3171e-06
2.94859e-06
-9.39438e-07
0.000134243
-2.32104e-06
2.71704e-06
-1.27153e-06
0.000164307
1.59454e-06
-1.50124e-06
0.00018427
4.5461e-09
-1.58576e-06
0.000193828
-1.58573e-06
-1.58584e-06
0.000193829
-2.70927e-06
-1.50152e-06
0.000184272
-2.94263e-06
-1.27203e-06
0.000164311
-9.40124e-07
0.000134248
-2.3173e-06
2.73528e-06
-1.58065e-06
0.000125518
-2.16956e-06
2.53383e-06
-2.12915e-06
0.000154758
1.51044e-06
-2.5255e-06
0.000174485
4.69353e-09
-2.7092e-06
0.000184271
-1.50141e-06
-2.70937e-06
0.000184272
-2.52593e-06
-2.52603e-06
0.000174487
-2.72924e-06
-2.13005e-06
0.000154762
-1.58184e-06
0.000125522
-2.16578e-06
2.32147e-06
-1.75504e-06
0.000109057
-1.88323e-06
2.13806e-06
-2.31426e-06
0.000136043
1.28127e-06
-2.72863e-06
0.00015476
4.8913e-09
-2.94247e-06
0.00016431
-1.2719e-06
-2.9427e-06
0.000164311
-2.12993e-06
-2.72932e-06
0.000154762
-2.31526e-06
-2.31537e-06
0.000136046
-1.75639e-06
0.000109061
-1.87934e-06
1.76244e-06
8.68358e-05
-1.48504e-06
-1.48979e-06
1.58987e-06
0.000109058
-1.87845e-06
9.4953e-07
0.00012552
-2.16525e-06
5.01777e-09
0.000134247
-2.31714e-06
-9.39974e-07
0.000134247
-2.31734e-06
-1.58169e-06
0.000125522
-2.16583e-06
-1.75627e-06
0.000109061
-1.87941e-06
8.68392e-05
-1.486e-06
-1.48608e-06
6.1509e-07
6.14144e-07
8.65329e-05
-4.65185e-07
-4.64564e-07
5.96605e-07
8.47407e-07
0.00010883
-6.04881e-07
3.72424e-07
1.03227e-06
0.000125426
-7.18396e-07
1.15039e-08
1.13232e-06
0.000134253
-7.82627e-07
-3.50523e-07
1.13284e-06
0.000134255
-7.83075e-07
-5.77904e-07
1.03383e-06
0.000125431
-7.19644e-07
-6.01014e-07
8.49865e-07
0.000108838
-6.06913e-07
6.17088e-07
8.6541e-05
-4.56576e-07
-4.66633e-07
8.48178e-07
5.95469e-07
0.00010883
-6.05417e-07
8.39469e-07
8.38571e-07
0.000136057
5.24186e-07
1.02704e-06
0.000155077
1.13692e-08
1.12024e-06
0.000164832
-5.02441e-07
1.12066e-06
0.000164833
-8.20633e-07
1.02832e-06
0.000155082
-8.33838e-07
8.40677e-07
0.000136065
5.98188e-07
0.00010884
-5.96443e-07
1.03282e-06
3.71213e-07
0.000125426
-7.18773e-07
1.02769e-06
5.23249e-07
0.000155076
6.3886e-07
6.38176e-07
0.000175261
1.09163e-08
6.86735e-07
0.000185331
-6.17889e-07
6.86951e-07
0.000185332
-1.00938e-06
6.38901e-07
0.000175266
-1.01883e-06
5.24505e-07
0.000155085
3.72944e-07
0.000125437
-7.10037e-07
1.13269e-06
1.03345e-08
0.000134253
-7.82872e-07
1.1207e-06
1.04627e-08
0.000164831
6.8723e-07
1.02476e-08
0.000185331
1.05115e-08
1.00163e-08
0.000195181
-6.66888e-07
1.00476e-08
0.000195183
-1.10283e-06
1.0343e-08
0.000185336
-1.11899e-06
1.06349e-08
0.00016484
1.06048e-08
0.000134264
-7.74264e-07
1.13307e-06
-3.5156e-07
0.000134255
-7.83204e-07
1.12098e-06
-5.03258e-07
0.000164833
6.87325e-07
-6.18505e-07
0.000185332
1.044e-08
-6.67362e-07
0.000195183
-6.67123e-07
-6.67515e-07
0.000195184
-1.10324e-06
-6.19037e-07
0.000185337
-1.11949e-06
-5.04169e-07
0.000164842
-3.5276e-07
0.000134266
-7.74671e-07
1.03395e-06
-5.7874e-07
0.000125431
-7.19688e-07
1.02855e-06
-8.21311e-07
0.000155082
6.39206e-07
-1.0099e-06
0.000175266
1.0694e-08
-1.10324e-06
0.000185336
-6.18668e-07
-1.10359e-06
0.000185337
-1.01064e-06
-1.01099e-06
0.000175271
-1.0203e-06
-8.23072e-07
0.00015509
-5.80961e-07
0.000125442
-7.1118e-07
8.49927e-07
-6.01619e-07
0.000108837
-6.06894e-07
8.40847e-07
-8.34334e-07
0.000136065
5.24778e-07
-1.01922e-06
0.000155085
1.09823e-08
-1.11931e-06
0.00016484
-5.03783e-07
-1.11977e-06
0.000164842
-8.22692e-07
-1.02059e-06
0.00015509
-8.36148e-07
-8.36472e-07
0.000136073
-6.04144e-07
0.000108847
-5.98291e-07
6.17118e-07
8.65406e-05
-4.56933e-07
-4.66612e-07
5.98318e-07
0.000108839
-5.9673e-07
3.73194e-07
0.000125436
-7.10262e-07
1.09574e-08
0.000134264
-7.74452e-07
-3.52346e-07
0.000134266
-7.7485e-07
-5.80547e-07
0.000125441
-7.1137e-07
-6.0379e-07
0.000108847
-5.98511e-07
8.65485e-05
-4.5849e-07
-4.58722e-07
3.48071e-07
3.46085e-07
8.64167e-05
-2.89576e-07
-2.8835e-07
3.21242e-07
4.52756e-07
0.000108766
-3.61936e-07
2.02131e-07
5.35097e-07
0.000125428
-4.17327e-07
2.16658e-08
5.79938e-07
0.000134302
-4.47816e-07
-1.60971e-07
5.80791e-07
0.000134305
-4.48454e-07
-2.86255e-07
5.37562e-07
0.000125438
-4.19102e-07
-3.21911e-07
4.56526e-07
0.000108781
-3.64772e-07
3.5041e-07
8.64334e-05
-2.73592e-07
-2.9105e-07
4.54589e-07
3.18718e-07
0.000108766
-3.63121e-07
4.2807e-07
4.25792e-07
0.00013611
2.68565e-07
5.09192e-07
0.000155262
2.24693e-08
5.51836e-07
0.000165106
-2.2567e-07
5.52578e-07
0.00016511
-3.91114e-07
5.11402e-07
0.000155274
-4.26674e-07
4.29296e-07
0.000136128
3.23042e-07
0.000108786
-3.4576e-07
5.366e-07
1.99329e-07
0.000125427
-4.18293e-07
5.11057e-07
2.66076e-07
0.000155262
3.19874e-07
3.17837e-07
0.000175643
2.22223e-08
3.41677e-07
0.000185838
-2.77265e-07
3.42114e-07
0.000185842
-4.74029e-07
3.19232e-07
0.000175655
-5.08465e-07
2.68384e-07
0.000155281
2.02337e-07
0.00012545
-4.00789e-07
5.81082e-07
1.88799e-08
0.000134301
-4.48554e-07
5.5328e-07
1.99932e-08
0.000165105
3.43278e-07
2.01813e-08
0.000185838
2.16801e-08
2.00526e-08
0.000195825
-3.0142e-07
2.0177e-08
0.000195828
-5.16661e-07
2.05493e-08
0.00018585
-5.53128e-07
2.05953e-08
0.000165125
1.96942e-08
0.000134325
-4.31033e-07
5.81607e-07
-1.63491e-07
0.000134304
-4.48964e-07
5.5366e-07
-2.2794e-07
0.000165109
3.43364e-07
-2.79164e-07
0.000185842
2.14858e-08
-3.02972e-07
0.000195828
-3.01883e-07
-3.03166e-07
0.000195831
-5.17381e-07
-2.79839e-07
0.000185853
-5.53931e-07
-2.29075e-07
0.000165128
-1.64929e-07
0.000134328
-4.31622e-07
5.38108e-07
-2.8832e-07
0.000125437
-4.19423e-07
5.12196e-07
-3.93015e-07
0.000155273
3.20217e-07
-4.75648e-07
0.000175654
2.16402e-08
-5.18012e-07
0.000185849
-2.78735e-07
-5.18527e-07
0.000185853
-4.76182e-07
-4.77191e-07
0.000175666
-5.10793e-07
-3.95443e-07
0.000155291
-2.91255e-07
0.00012546
-4.02446e-07
4.56864e-07
-3.23432e-07
0.00010878
-3.64931e-07
4.29861e-07
-4.28092e-07
0.000136127
2.69161e-07
-5.09685e-07
0.00015528
2.152e-08
-5.54162e-07
0.000165124
-2.28098e-07
-5.54823e-07
0.000165128
-3.94535e-07
-5.11588e-07
0.000155291
-4.30251e-07
-4.30968e-07
0.000136144
-3.26681e-07
0.0001088
-3.48391e-07
3.50595e-07
8.64322e-05
-2.74529e-07
-2.91144e-07
3.23395e-07
0.000108785
-3.46628e-07
2.02896e-07
0.000125449
-4.01544e-07
2.043e-08
0.000134324
-4.31684e-07
-1.64108e-07
0.000134328
-4.32189e-07
-2.90476e-07
0.000125459
-4.02948e-07
-3.26066e-07
0.0001088
-3.48842e-07
8.64485e-05
-2.7619e-07
-2.76558e-07
1.68027e-07
1.6576e-07
8.63455e-05
-1.31948e-07
-1.30706e-07
1.64055e-07
2.1858e-07
0.000108717
-1.65299e-07
1.14539e-07
2.59227e-07
0.00012541
-1.92291e-07
3.38873e-08
2.81747e-07
0.000134308
-2.07625e-07
-5.02717e-08
2.82688e-07
0.000134315
-2.08202e-07
-1.09667e-07
2.61898e-07
0.000125429
-1.93852e-07
-1.27611e-07
2.22496e-07
0.000108745
-1.67747e-07
1.70001e-07
8.63756e-05
-1.07296e-07
-1.3257e-07
2.21069e-07
1.60898e-07
0.000108717
-1.66755e-07
2.17772e-07
2.14402e-07
0.000136118
1.49055e-07
2.55342e-07
0.000155335
3.72514e-08
2.76754e-07
0.000165223
-7.81006e-08
2.77677e-07
0.00016523
-1.57004e-07
2.58035e-07
0.000155356
-1.75562e-07
2.18515e-07
0.000136151
1.65719e-07
0.000108754
-1.38604e-07
2.6159e-07
1.10789e-07
0.000125409
-1.93703e-07
2.58475e-07
1.4514e-07
0.000155334
1.7467e-07
1.71075e-07
0.000175811
3.82748e-08
1.83573e-07
0.000186068
-1.01449e-07
1.84195e-07
0.000186076
-1.95213e-07
1.73e-07
0.000175834
-2.13882e-07
1.48197e-07
0.00015537
1.1456e-07
0.000125451
-1.64187e-07
2.83773e-07
2.99627e-08
0.000134307
-2.08885e-07
2.79405e-07
3.31912e-08
0.000165222
1.86602e-07
3.45602e-08
0.000186067
3.80427e-08
3.49093e-08
0.000196122
-1.13337e-07
3.51757e-08
0.000196128
-2.15653e-07
3.53343e-08
0.00018609
-2.35418e-07
3.43951e-08
0.000165258
3.14626e-08
0.000134351
-1.78753e-07
2.84276e-07
-5.39702e-08
0.000134313
-2.09224e-07
2.79753e-07
-8.19311e-08
0.000165229
1.86586e-07
-1.04965e-07
0.000186075
3.76746e-08
-1.16327e-07
0.000196128
-1.14031e-07
-1.16433e-07
0.000196134
-2.16628e-07
-1.05394e-07
0.000186097
-2.36414e-07
-8.2672e-08
0.000165265
-5.48778e-08
0.000134358
-1.79399e-07
2.63021e-07
-1.12822e-07
0.000125427
-1.94608e-07
2.59518e-07
-1.60296e-07
0.000155354
1.74748e-07
-1.9825e-07
0.000175832
3.71992e-08
-2.18248e-07
0.000186089
-1.03596e-07
-2.18711e-07
0.000186096
-1.9808e-07
-1.99612e-07
0.000175855
-2.16736e-07
-1.62368e-07
0.00015539
-1.15186e-07
0.000125469
-1.65967e-07
2.23162e-07
-1.30045e-07
0.000108743
-1.68219e-07
2.19401e-07
-1.78096e-07
0.000136149
1.49276e-07
-2.16217e-07
0.000155368
3.55762e-08
-2.37407e-07
0.000165257
-8.1534e-08
-2.37981e-07
0.000165264
-1.61443e-07
-2.17836e-07
0.000155389
-1.79833e-07
-1.80417e-07
0.000136181
-1.32442e-07
0.000108779
-1.41419e-07
1.70241e-07
8.63737e-05
-1.08893e-07
-1.32839e-07
1.65979e-07
0.000108752
-1.40242e-07
1.14884e-07
0.000125449
-1.65684e-07
3.18417e-08
0.00013435
-1.80018e-07
-5.45206e-08
0.000134356
-1.80365e-07
-1.14952e-07
0.000125468
-1.66595e-07
-1.32389e-07
0.000108779
-1.41684e-07
8.64031e-05
-1.09742e-07
-1.09667e-07
1.00007e-07
1.00236e-07
8.63025e-05
-7.83447e-08
-7.88678e-08
1.02047e-07
1.28399e-07
0.000108684
-9.76288e-08
8.15736e-08
1.49378e-07
0.000125393
-1.11693e-07
4.42399e-08
1.60895e-07
0.000134304
-1.19454e-07
2.17129e-09
1.61427e-07
0.000134315
-1.19529e-07
-3.15014e-08
1.50808e-07
0.000125424
-1.11793e-07
-4.78766e-08
1.30246e-07
0.000108729
-9.78198e-08
1.01788e-07
8.63503e-05
-4.64962e-08
-7.7837e-08
1.29083e-07
1.01632e-07
0.000108684
-9.76801e-08
1.32498e-07
1.30927e-07
0.000136112
1.03589e-07
1.52504e-07
0.00015536
5.18375e-08
1.63736e-07
0.000165272
-5.0794e-09
1.64447e-07
0.000165284
-4.86356e-08
1.54486e-07
0.000155396
-6.68034e-08
1.33771e-07
0.000136165
1.04628e-07
0.000108743
-5.93459e-08
1.50639e-07
8.04448e-08
0.000125392
-1.12216e-07
1.54608e-07
1.01233e-07
0.00015536
1.18797e-07
1.16014e-07
0.000175883
5.55278e-08
1.23114e-07
0.000186172
-1.28158e-08
1.2371e-07
0.000186185
-6.35922e-08
1.17801e-07
0.000175921
-8.25466e-08
1.03938e-07
0.000155418
8.35284e-08
0.00012546
-7.03451e-08
1.62282e-07
4.25434e-08
0.000134303
-1.20212e-07
1.65754e-07
4.90024e-08
0.00016527
1.2561e-07
5.24009e-08
0.000186171
5.63478e-08
5.36463e-08
0.000196261
-1.73568e-08
5.40394e-08
0.000196272
-7.20948e-08
5.35319e-08
0.000186209
-9.17591e-08
5.06804e-08
0.000165331
4.44848e-08
0.000134375
-7.6574e-08
1.62566e-07
1.61404e-10
0.000134313
-1.20293e-07
1.65918e-07
-8.03083e-09
0.000165282
1.25422e-07
-1.59262e-08
0.000186183
5.58222e-08
-1.99474e-08
0.000196271
-1.81742e-08
-1.97872e-08
0.000196282
-7.31283e-08
-1.55501e-08
0.000186221
-9.26991e-08
-7.54243e-09
0.000165343
7.51184e-10
0.000134386
-7.70418e-08
1.51429e-07
-3.35558e-08
0.000125422
-1.12375e-07
1.55112e-07
-5.14011e-08
0.000155394
1.18396e-07
-6.63817e-08
0.000175919
5.40295e-08
-7.43268e-08
0.000186207
-1.52802e-08
-7.43775e-08
0.00018622
-6.65631e-08
-6.65017e-08
0.000175957
-8.51934e-08
-5.15081e-08
0.000155452
-3.34767e-08
0.00012549
-7.15937e-08
1.3018e-07
-4.97543e-08
0.000108727
-9.80614e-08
1.33334e-07
-6.91353e-08
0.000136163
1.03159e-07
-8.47975e-08
0.000155416
4.95995e-08
-9.34675e-08
0.00016533
-8.90335e-09
-9.3507e-08
0.000165342
-5.31161e-08
-8.48205e-08
0.000155452
-7.0626e-08
-6.89446e-08
0.000136216
-4.9089e-08
0.000108785
-6.1349e-08
1.01006e-07
8.63486e-05
-4.79383e-08
-7.77363e-08
1.0306e-07
0.000108741
-6.1016e-08
8.12452e-08
0.000125458
-7.18766e-08
4.16638e-08
0.000134373
-7.76707e-08
-2.39425e-09
0.000134384
-7.74517e-08
-3.66333e-08
0.000125489
-7.1176e-08
-5.19128e-08
0.000108785
-6.00065e-08
8.63954e-05
-4.76667e-08
-4.56698e-08
6.06373e-08
6.75711e-08
8.62689e-05
-4.49095e-08
-4.96679e-08
6.76773e-08
8.47887e-08
0.000108653
-6.04048e-08
6.32588e-08
9.6971e-08
0.000125368
-6.80334e-08
4.87084e-08
1.03237e-07
0.000134287
-7.18365e-08
2.87819e-08
1.02818e-07
0.000134303
-7.10168e-08
9.52003e-09
9.56323e-08
0.000125413
-6.55808e-08
-3.89645e-09
8.23712e-08
0.000108716
-5.67181e-08
6.40094e-08
8.63366e-05
-1.00794e-08
-4.41843e-08
7.91421e-08
7.5571e-08
0.000108653
-5.62442e-08
8.90449e-08
9.51348e-08
0.000136092
8.20146e-08
1.08728e-07
0.000155356
6.1172e-08
1.15473e-07
0.00016528
3.39831e-08
1.15458e-07
0.000165299
9.11253e-09
1.08559e-07
0.000155408
-6.81024e-09
9.45434e-08
0.000136169
7.42646e-08
0.000108738
-1.19168e-08
9.27465e-08
7.10799e-08
0.000125369
-6.4933e-08
1.04184e-07
8.77798e-08
0.000155356
9.45643e-08
9.88617e-08
0.000175903
6.84456e-08
1.03988e-07
0.000186209
3.57754e-08
1.04215e-07
0.000186229
7.07359e-09
9.953e-08
0.000175959
-1.01816e-08
8.8607e-08
0.000155442
7.16486e-08
0.000125467
-1.44786e-08
9.994e-08
5.55955e-08
0.000134288
-6.95257e-08
1.11664e-07
6.61481e-08
0.00016528
1.00116e-07
7.22428e-08
0.000186209
7.09753e-08
7.4674e-08
0.000196319
3.59112e-08
7.50836e-08
0.000196336
5.35398e-09
7.33894e-08
0.000186265
-1.25064e-08
6.77598e-08
0.00016537
5.72872e-08
0.000134393
-1.58379e-08
9.98424e-08
3.41974e-08
0.000134304
-6.91956e-08
1.11542e-07
3.79147e-08
0.000165299
9.97489e-08
3.89701e-08
0.000186228
7.04091e-08
3.94128e-08
0.000196336
3.52062e-08
3.99669e-08
0.000196352
4.5722e-09
4.04725e-08
0.000186284
-1.30646e-08
4.01242e-08
0.000165388
3.6793e-08
0.000134409
-1.5872e-08
9.24427e-08
1.32294e-08
0.000125415
-6.39095e-08
1.03873e-07
1.18522e-08
0.000155409
9.37034e-08
9.52324e-09
0.000175959
6.68602e-08
8.42785e-09
0.000186265
3.3635e-08
9.09995e-09
0.000186284
4.86837e-09
1.14998e-08
0.000176015
-1.16836e-08
1.49519e-08
0.000155494
1.70987e-08
0.000125512
-1.44595e-08
7.85876e-08
-1.79334e-09
0.000108718
-5.49006e-08
8.86843e-08
-5.2952e-09
0.00013617
8.09657e-08
-8.60486e-09
0.000155442
5.89067e-08
-1.01523e-08
0.00016537
3.0758e-08
-9.26653e-09
0.000165388
5.92676e-09
-6.00137e-09
0.000155494
-8.79839e-09
-1.11074e-09
0.000136247
3.50525e-09
0.000108802
-1.20056e-08
5.96932e-08
8.63384e-05
-9.235e-09
-4.20976e-08
6.73288e-08
0.00010874
-1.1328e-08
6.23264e-08
0.000125468
-1.36799e-08
4.62945e-08
0.000134394
-1.43542e-08
2.51843e-08
0.00013441
-1.32895e-08
6.15586e-09
0.000125513
-1.05702e-08
-5.51492e-09
0.000108802
-6.73052e-09
8.64049e-05
-8.69781e-09
-2.85362e-09
4.12168e-08
5.79301e-08
8.62405e-05
-3.01132e-08
-4.06117e-08
4.86215e-08
7.13064e-08
0.000108623
-4.86075e-08
5.01782e-08
7.99069e-08
0.00012534
-5.35148e-08
4.5344e-08
8.354e-08
0.000134264
-5.52687e-08
3.53587e-08
8.18693e-08
0.000134285
-5.34184e-08
2.28534e-08
7.4996e-08
0.000125399
-4.81795e-08
1.1198e-08
6.3548e-08
0.000108705
-4.06424e-08
4.84209e-08
8.63276e-05
2.26911e-09
-3.04441e-08
5.4907e-08
6.94989e-08
0.000108624
-3.78072e-08
6.6236e-08
8.63563e-08
0.000136065
6.85043e-08
9.72164e-08
0.000155336
6.17056e-08
1.01963e-07
0.000165268
4.82516e-08
1.0087e-07
0.000165293
3.19795e-08
9.39127e-08
0.000155406
1.68747e-08
8.10014e-08
0.000136167
6.26282e-08
0.000108735
6.04682e-09
6.49455e-08
7.28428e-08
0.000125344
-4.37532e-08
7.87748e-08
9.01037e-08
0.000155338
8.10702e-08
1.00999e-07
0.000175897
7.24013e-08
1.05684e-07
0.000186214
5.65009e-08
1.05253e-07
0.00018624
3.79442e-08
9.97076e-08
0.000175972
2.09603e-08
8.78671e-08
0.000155452
6.969e-08
0.000125473
8.41179e-09
6.99919e-08
6.7217e-08
0.00013427
-4.65028e-08
8.48705e-08
8.26876e-08
0.000165273
8.67897e-08
9.21001e-08
0.000186216
7.68485e-08
9.59666e-08
0.000196339
6.01728e-08
9.62175e-08
0.000196362
4.08172e-08
9.27753e-08
0.000186292
2.31588e-08
8.35259e-08
0.000165392
6.79012e-08
0.000134408
1.02297e-08
6.9319e-08
5.43584e-08
0.000134293
-4.55563e-08
8.43677e-08
6.68778e-08
0.0001653
8.62939e-08
7.45426e-08
0.000186244
7.64214e-08
7.83927e-08
0.000196363
5.98725e-08
7.92981e-08
0.000196386
4.0677e-08
7.70846e-08
0.000186319
2.33999e-08
7.06467e-08
0.000165418
5.87391e-08
0.000134431
1.09606e-08
6.29763e-08
3.76335e-08
0.000125409
-4.09719e-08
7.73493e-08
4.69337e-08
0.000155414
7.98502e-08
5.29841e-08
0.000175978
7.12462e-08
5.66442e-08
0.000186296
5.55647e-08
5.8111e-08
0.000186321
3.76388e-08
5.7248e-08
0.000176052
2.1783e-08
5.34339e-08
0.000155527
4.53668e-08
0.000125537
1.06243e-08
5.17874e-08
2.13436e-08
0.000108716
-3.38554e-08
6.41677e-08
2.74062e-08
0.000136177
6.69372e-08
3.19492e-08
0.00015546
6.01737e-08
3.52123e-08
0.000165398
4.69739e-08
3.71078e-08
0.000165423
3.17997e-08
3.7426e-08
0.000155529
1.85308e-08
3.58015e-08
0.000136278
3.12684e-08
0.000108826
9.26907e-09
3.7262e-08
8.63384e-05
8.2106e-09
-2.4056e-08
4.62399e-08
0.000108746
1.22517e-08
4.86647e-08
0.000125483
1.51256e-08
4.39275e-08
0.000134416
1.78367e-08
3.42625e-08
0.000134437
1.97717e-08
2.32128e-08
0.00012554
2.06637e-08
1.38668e-08
0.000108827
2.04218e-08
8.6424e-05
7.69301e-09
1.84279e-08
2.90735e-08
5.43401e-08
8.62155e-05
-2.17287e-08
-3.67177e-08
3.45193e-08
6.78778e-08
0.000108594
-4.45485e-08
3.66623e-08
7.6185e-08
0.000125311
-4.8943e-08
3.47e-08
7.90101e-08
0.000134237
-4.99722e-08
2.8657e-08
7.61625e-08
0.000134262
-4.72548e-08
1.98109e-08
6.79749e-08
0.000125381
-4.12181e-08
1.06444e-08
5.53705e-08
0.000108692
-3.30831e-08
3.97287e-08
8.63184e-05
3.14273e-09
-2.30615e-08
3.99638e-08
6.78708e-08
0.000108598
-2.71932e-08
4.98532e-08
8.61918e-08
0.000136037
5.44597e-08
9.76634e-08
0.00015531
5.27886e-08
1.02134e-07
0.000165247
4.51771e-08
9.9931e-08
0.000165277
3.34056e-08
9.1201e-08
0.000155394
2.03472e-08
7.62112e-08
0.000136159
5.58573e-08
0.00010873
9.52433e-09
4.78838e-08
7.46748e-08
0.000125321
-3.13463e-08
6.09979e-08
9.54647e-08
0.000155316
6.72577e-08
1.08576e-07
0.00017588
6.56845e-08
1.13976e-07
0.000186204
5.72559e-08
1.1279e-07
0.000186236
4.39516e-08
1.05089e-07
0.000175971
2.86576e-08
8.99546e-08
0.000155453
6.77979e-08
0.000125475
1.47839e-08
5.13895e-08
7.30186e-08
0.000134253
-3.26196e-08
6.62281e-08
9.42644e-08
0.000165259
7.32786e-08
1.07791e-07
0.00018621