/*--------------------------------*- C++ -*----------------------------------*\
| =========                 |                                                 |
| \\      /  F ield         | OpenFOAM: The Open Source CFD Toolbox           |
|  \\    /   O peration     | Version:  2406                                  |
|   \\  /    A nd           | Website:  www.openfoam.com                      |
|    \\/     M anipulation  |                                                 |
\*---------------------------------------------------------------------------*/
FoamFile
{
    version     2.0;
    format      ascii;
    arch        "LSB;label=32;scalar=64";
    class       volVectorField;
    location    "0.5";
    object      U;
}
// * * * * * * * * * * * * * * * * * * * * * * * * * * * * * * * * * * * * * //

dimensions      [0 1 -1 0 0 0 0];

internalField   nonuniform List<vector> 
16000
(
(0.153132 0.153132 1.11474)
(0.117573 0.168169 1.1542)
(0.0724591 0.17688 1.17285)
(0.0244948 0.180953 1.18018)
(-0.0244945 0.180953 1.18018)
(-0.0724588 0.17688 1.17285)
(-0.117573 0.168169 1.1542)
(-0.153131 0.153132 1.11474)
(0.168169 0.117573 1.1542)
(0.126109 0.126109 1.18728)
(0.0766338 0.131081 1.19757)
(0.0257138 0.133402 1.19978)
(-0.0257135 0.133402 1.19978)
(-0.0766335 0.131081 1.19757)
(-0.126109 0.126109 1.18728)
(-0.168169 0.117573 1.1542)
(0.17688 0.0724591 1.17285)
(0.131081 0.0766338 1.19757)
(0.0792028 0.0792028 1.20176)
(0.0264751 0.0803912 1.20065)
(-0.0264748 0.0803912 1.20065)
(-0.0792025 0.0792028 1.20176)
(-0.131081 0.0766338 1.19757)
(-0.17688 0.0724591 1.17285)
(0.180953 0.0244948 1.18018)
(0.133402 0.0257138 1.19978)
(0.0803912 0.0264751 1.20065)
(0.0268184 0.0268184 1.1979)
(-0.0268181 0.0268184 1.1979)
(-0.0803909 0.0264751 1.20065)
(-0.133402 0.0257138 1.19978)
(-0.180953 0.0244948 1.18018)
(0.180953 -0.0244945 1.18018)
(0.133402 -0.0257135 1.19978)
(0.0803912 -0.0264748 1.20065)
(0.0268184 -0.0268181 1.1979)
(-0.0268181 -0.0268181 1.1979)
(-0.0803909 -0.0264748 1.20065)
(-0.133402 -0.0257135 1.19978)
(-0.180953 -0.0244945 1.18018)
(0.17688 -0.0724588 1.17285)
(0.131081 -0.0766335 1.19757)
(0.0792028 -0.0792025 1.20176)
(0.0264751 -0.0803909 1.20065)
(-0.0264748 -0.0803909 1.20065)
(-0.0792025 -0.0792025 1.20176)
(-0.131081 -0.0766335 1.19757)
(-0.17688 -0.0724588 1.17285)
(0.168169 -0.117573 1.1542)
(0.126109 -0.126109 1.18728)
(0.0766338 -0.131081 1.19757)
(0.0257138 -0.133402 1.19978)
(-0.0257135 -0.133402 1.19978)
(-0.0766335 -0.131081 1.19757)
(-0.126109 -0.126109 1.18728)
(-0.168169 -0.117573 1.1542)
(0.153132 -0.153131 1.11474)
(0.117573 -0.168169 1.1542)
(0.0724591 -0.17688 1.17285)
(0.0244948 -0.180953 1.18018)
(-0.0244945 -0.180953 1.18018)
(-0.0724588 -0.17688 1.17285)
(-0.117573 -0.168169 1.1542)
(-0.153132 -0.153132 1.11474)
(0.0494157 0.0494156 1.29062)
(0.0414008 0.0615758 1.3895)
(0.0279277 0.0703806 1.44408)
(0.00984159 0.0751714 1.46808)
(-0.00983999 0.0751715 1.46808)
(-0.0279262 0.0703808 1.44408)
(-0.0413994 0.0615761 1.3895)
(-0.0494147 0.0494159 1.29062)
(0.0615759 0.0414007 1.3895)
(0.0531616 0.0531616 1.48728)
(0.0357295 0.0616411 1.53241)
(0.0125466 0.0660232 1.54992)
(-0.012545 0.0660233 1.54992)
(-0.035728 0.0616412 1.53241)
(-0.0531603 0.0531618 1.48728)
(-0.0615748 0.041401 1.3895)
(0.0703806 0.0279277 1.44408)
(0.0616411 0.0357294 1.53241)
(0.0413014 0.0413013 1.57006)
(0.0144356 0.0441153 1.5832)
(-0.014434 0.0441153 1.5832)
(-0.0412998 0.0413014 1.57006)
(-0.0616398 0.0357295 1.53241)
(-0.0703796 0.0279278 1.44408)
(0.0751715 0.00984154 1.46808)
(0.0660233 0.0125465 1.54992)
(0.0441153 0.0144356 1.5832)
(0.0153742 0.0153741 1.59386)
(-0.0153726 0.0153741 1.59386)
(-0.0441138 0.0144356 1.5832)
(-0.066022 0.0125466 1.54992)
(-0.0751704 0.00984159 1.46809)
(0.0751715 -0.00984005 1.46808)
(0.0660233 -0.012545 1.54992)
(0.0441153 -0.0144341 1.5832)
(0.0153742 -0.0153726 1.59386)
(-0.0153726 -0.0153726 1.59386)
(-0.0441138 -0.0144341 1.5832)
(-0.066022 -0.0125451 1.54992)
(-0.0751705 -0.00984011 1.46809)
(0.0703808 -0.0279262 1.44408)
(0.0616413 -0.035728 1.53241)
(0.0413014 -0.0412999 1.57006)
(0.0144357 -0.0441139 1.5832)
(-0.0144341 -0.0441139 1.5832)
(-0.0412999 -0.0413 1.57006)
(-0.0616399 -0.0357281 1.53241)
(-0.0703797 -0.0279264 1.44408)
(0.0615761 -0.0413995 1.3895)
(0.0531618 -0.0531603 1.48728)
(0.0357296 -0.0616399 1.53241)
(0.0125466 -0.066022 1.54992)
(-0.012545 -0.066022 1.54992)
(-0.0357281 -0.06164 1.53241)
(-0.0531605 -0.0531605 1.48728)
(-0.0615751 -0.0413997 1.3895)
(0.049416 -0.0494147 1.29062)
(0.041401 -0.0615749 1.3895)
(0.0279279 -0.0703796 1.44408)
(0.00984165 -0.0751705 1.46809)
(-0.00984005 -0.0751705 1.46809)
(-0.0279263 -0.0703798 1.44408)
(-0.0413997 -0.0615751 1.3895)
(-0.0494149 -0.049415 1.29062)
(0.0295342 0.0295342 1.18369)
(0.026307 0.0381226 1.33604)
(0.0179605 0.0440256 1.43119)
(0.00638318 0.0472248 1.47636)
(-0.00637891 0.047225 1.47636)
(-0.0179565 0.0440261 1.43119)
(-0.0263035 0.0381233 1.33605)
(-0.0295316 0.0295351 1.18369)
(0.0381226 0.0263069 1.33604)
(0.0338715 0.0338714 1.50685)
(0.0231051 0.0393344 1.60045)
(0.00820096 0.0422286 1.64148)
(-0.0081967 0.0422287 1.64148)
(-0.0231011 0.0393347 1.60045)
(-0.033868 0.0338719 1.50686)
(-0.03812 0.0263076 1.33605)
(0.0440257 0.0179604 1.43119)
(0.0393345 0.023105 1.60045)
(0.0268044 0.0268043 1.68905)
(0.00948672 0.0287148 1.72654)
(-0.00948251 0.0287148 1.72654)
(-0.0268005 0.0268045 1.68906)
(-0.039331 0.0231053 1.60045)
(-0.0440231 0.0179609 1.43119)
(0.0472249 0.00638309 1.47636)
(0.0422287 0.00820085 1.64148)
(0.0287149 0.0094866 1.72654)
(0.0101549 0.0101548 1.76219)
(-0.0101507 0.0101548 1.76219)
(-0.028711 0.00948665 1.72654)
(-0.0422253 0.00820093 1.64149)
(-0.0472223 0.00638321 1.47636)
(0.0472251 -0.006379 1.47636)
(0.0422288 -0.0081968 1.64148)
(0.028715 -0.00948262 1.72654)
(0.0101549 -0.0101509 1.76219)
(-0.0101507 -0.0101509 1.76219)
(-0.028711 -0.00948271 1.72654)
(-0.0422254 -0.00819696 1.64149)
(-0.0472225 -0.00637922 1.47636)
(0.0440262 -0.0179566 1.43119)
(0.0393348 -0.0231012 1.60045)
(0.0268046 -0.0268006 1.68906)
(0.00948679 -0.0287111 1.72654)
(-0.00948256 -0.0287112 1.72654)
(-0.0268007 -0.0268008 1.68906)
(-0.0393314 -0.0231016 1.60045)
(-0.0440236 -0.0179572 1.43119)
(0.0381234 -0.0263036 1.33605)
(0.0338721 -0.0338681 1.50686)
(0.0231055 -0.0393311 1.60045)
(0.00820108 -0.0422254 1.64149)
(-0.0081968 -0.0422255 1.64149)
(-0.0231014 -0.0393315 1.60045)
(-0.0338686 -0.0338687 1.50686)
(-0.0381207 -0.0263044 1.33605)
(0.0295351 -0.0295316 1.18369)
(0.0263078 -0.03812 1.33605)
(0.017961 -0.0440232 1.43119)
(0.00638336 -0.0472224 1.47636)
(-0.00637906 -0.0472226 1.47636)
(-0.017957 -0.0440237 1.43119)
(-0.0263043 -0.0381208 1.33605)
(-0.0295325 -0.0295326 1.18369)
(0.00607989 0.00607974 1.17734)
(0.00679047 0.00932794 1.34011)
(0.00531967 0.0121459 1.44755)
(0.00200943 0.0137906 1.50052)
(-0.00199884 0.0137911 1.50052)
(-0.00530979 0.0121473 1.44755)
(-0.00678191 0.00933024 1.34012)
(-0.00607344 0.0060824 1.17735)
(0.00932805 0.00679031 1.34011)
(0.0106453 0.0106452 1.53328)
(0.00825675 0.0137711 1.64785)
(0.00308773 0.0154613 1.70081)
(-0.00307754 0.0154616 1.70081)
(-0.00824721 0.0137722 1.64786)
(-0.0106371 0.010647 1.53329)
(-0.00932179 0.00679255 1.34012)
(0.012146 0.00531951 1.44755)
(0.0137712 0.00825662 1.64785)
(0.0104802 0.0104801 1.76218)
(0.00386795 0.0115619 1.81303)
(-0.00385817 0.0115621 1.81303)
(-0.010471 0.0104807 1.76219)
(-0.0137633 0.00825764 1.64786)
(-0.0121401 0.00532088 1.44756)
(0.0137907 0.00200927 1.50052)
(0.0154614 0.00308759 1.70081)
(0.0115621 0.00386781 1.81303)
(0.00421633 0.00421617 1.8613)
(-0.00420679 0.00421622 1.8613)
(-0.011553 0.00386796 1.81303)
(-0.0154536 0.00308786 1.70082)
(-0.0137849 0.00200967 1.50053)
(0.0137912 -0.00199899 1.50052)
(0.0154617 -0.00307768 1.70081)
(0.0115623 -0.00385831 1.81303)
(0.0042164 -0.00420696 1.8613)
(-0.00420685 -0.00420704 1.8613)
(-0.0115532 -0.00385857 1.81303)
(-0.015454 -0.00307813 1.70082)
(-0.0137854 -0.00199959 1.50053)
(0.0121474 -0.00530992 1.44755)
(0.0137723 -0.00824733 1.64786)
(0.0104809 -0.0104712 1.76219)
(0.00386816 -0.0115532 1.81303)
(-0.00385836 -0.0115534 1.81303)
(-0.0104717 -0.0104719 1.76219)
(-0.0137644 -0.00824851 1.64787)
(-0.0121415 -0.00531148 1.44756)
(0.00933033 -0.00678202 1.34012)
(0.0106471 -0.0106372 1.53329)
(0.00825783 -0.0137634 1.64786)
(0.00308808 -0.0154538 1.70082)
(-0.0030779 -0.0154542 1.70082)
(-0.00824829 -0.0137646 1.64787)
(-0.0106389 -0.0106391 1.53329)
(-0.00932405 -0.0067844 1.34013)
(0.00608248 -0.00607352 1.17735)
(0.00679269 -0.00932185 1.34012)
(0.00532107 -0.0121401 1.44756)
(0.00200989 -0.013785 1.50053)
(-0.00199936 -0.0137855 1.50053)
(-0.00531124 -0.0121416 1.44756)
(-0.00678418 -0.00932422 1.34013)
(-0.00607607 -0.00607625 1.17736)
(0.00421441 0.00421361 1.15876)
(0.00418571 0.00574183 1.32759)
(0.00306351 0.00697743 1.44154)
(0.00113428 0.00768611 1.49868)
(-0.00110805 0.00768746 1.49868)
(-0.00303903 0.00698134 1.44155)
(-0.0041646 0.00574785 1.32761)
(-0.00419855 0.00422055 1.15879)
(0.00574242 0.00418485 1.32759)
(0.00583543 0.00583483 1.53242)
(0.0043337 0.00721535 1.65822)
(0.00160499 0.00797259 1.71787)
(-0.00158004 0.0079736 1.71788)
(-0.00431033 0.00721838 1.65823)
(-0.00581527 0.00583964 1.53244)
(-0.00572717 0.00419086 1.32762)
(0.0069778 0.00306267 1.44154)
(0.00721574 0.00433314 1.65822)
(0.00534786 0.00534748 1.78709)
(0.00196116 0.00581571 1.84585)
(-0.00193763 0.00581626 1.84585)
(-0.00532575 0.00534924 1.7871)
(-0.00719677 0.00433607 1.65824)
(-0.00696366 0.00306655 1.44157)
(0.00768631 0.00113349 1.49868)
(0.00797284 0.00160445 1.71787)
(0.00581598 0.00196079 1.84585)
(0.00209465 0.00209437 1.90127)
(-0.00207206 0.00209455 1.90127)
(-0.00579462 0.00196134 1.84586)
(-0.00795454 0.00160541 1.71789)
(-0.00767278 0.00113484 1.49871)
(0.00768755 -0.00110876 1.49868)
(0.00797377 -0.00158053 1.71788)
(0.00581649 -0.00193798 1.84585)
(0.0020948 -0.00207234 1.90127)
(-0.00207227 -0.00207254 1.90127)
(-0.00579519 -0.00193858 1.84586)
(-0.00795554 -0.00158153 1.7179)
(-0.00767407 -0.00111005 1.49871)
(0.00698133 -0.00303965 1.44155)
(0.00721849 -0.00431077 1.65823)
(0.00534945 -0.00532607 1.7871)
(0.0019616 -0.00579489 1.84586)
(-0.0019383 -0.00579545 1.84586)
(-0.00532757 -0.00532786 1.78712)
(-0.00719973 -0.0043137 1.65826)
(-0.00696738 -0.00304341 1.44158)
(0.0057478 -0.00416512 1.32761)
(0.00583973 -0.00581563 1.53244)
(0.00433628 -0.00719702 1.65824)
(0.00160569 -0.00795476 1.71789)
(-0.0015812 -0.00795576 1.7179)
(-0.00431336 -0.00720001 1.65826)
(-0.00581999 -0.00582034 1.53246)
(-0.00573291 -0.00417092 1.32764)
(0.00422047 -0.00419891 1.15879)
(0.00419093 -0.00572741 1.32761)
(0.00306674 -0.00696383 1.44157)
(0.00113514 -0.00767293 1.49871)
(-0.00110967 -0.00767424 1.49871)
(-0.003043 -0.00696761 1.44158)
(-0.0041705 -0.00573322 1.32764)
(-0.00420518 -0.00420555 1.15881)
(0.00131329 0.00131051 1.15556)
(0.00142261 0.00191326 1.32584)
(0.00111618 0.00245502 1.44183)
(0.000440922 0.00278027 1.50041)
(-0.000382549 0.00278329 1.50043)
(-0.00106191 0.00246359 1.44187)
(-0.00137609 0.00192628 1.3259)
(-0.00127863 0.00132495 1.15563)
(0.00191554 0.00141941 1.32584)
(0.00216385 0.00216135 1.53418)
(0.00171107 0.00282103 1.6641)
(0.000664567 0.0031964 1.72643)
(-0.000607659 0.00319879 1.72644)
(-0.00165792 0.00282805 1.66414)
(-0.00211823 0.00217225 1.53424)
(-0.00188122 0.00143255 1.32591)
(0.00245659 0.00111294 1.44183)
(0.00282279 0.00170859 1.6641)
(0.00221426 0.00221249 1.79887)
(0.000843568 0.00245869 1.86112)
(-0.000789375 0.00246011 1.86113)
(-0.00216348 0.00221685 1.7989)
(-0.00277934 0.00171562 1.66416)
(-0.00242431 0.00112184 1.44191)
(0.00278121 0.000437819 1.50041)
(0.00319754 0.000662205 1.72643)
(0.00245992 0.000841853 1.86112)
(0.000912446 0.000911199 1.91993)
(-0.000860378 0.000911741 1.91993)
(-0.00241083 0.000843452 1.86115)
(-0.00315558 0.00066485 1.72649)
(-0.00275022 0.000441357 1.50049)
(0.0027837 -0.000385381 1.50042)
(0.00319947 -0.000609834 1.72644)
(0.00246098 -0.000790982 1.86113)
(0.000912699 -0.000861589 1.91993)
(-0.000860984 -0.000861976 1.91994)
(-0.00241224 -0.000792105 1.86116)
(-0.00315785 -0.000611617 1.7265)
(-0.002753 -0.000387548 1.5005)
(0.00246362 -0.00106435 1.44186)
(0.00282841 -0.00165984 1.66414)
(0.00221749 -0.00216492 1.7989)
(0.000844271 -0.00241196 1.86115)
(-0.000791182 -0.00241321 1.86116)
(-0.00216779 -0.00216875 1.79894)
(-0.00278599 -0.00166592 1.66419)
(-0.00243223 -0.00107183 1.44194)
(0.00192604 -0.00137807 1.32589)
(0.0021724 -0.00211979 1.53424)
(0.00171613 -0.00278051 1.66416)
(0.000665629 -0.00315653 1.72649)
(-0.000610658 -0.00315872 1.7265)
(-0.00166487 -0.0027869 1.66419)
(-0.00212856 -0.00212962 1.5343)
(-0.00189323 -0.00138973 1.32596)
(0.00132464 -0.00128001 1.15562)
(0.00143259 -0.00188229 1.32591)
(0.00112226 -0.00242511 1.4419)
(0.000442122 -0.00275089 1.50049)
(-0.000386525 -0.00275367 1.5005)
(-0.00107066 -0.002433 1.44194)
(-0.00138853 -0.00189416 1.32596)
(-0.001292 -0.00129305 1.15569)
(0.000813568 0.000807875 1.15281)
(0.000821495 0.00109932 1.32419)
(0.000625329 0.00134316 1.44134)
(0.000267222 0.00148905 1.50067)
(-0.000157254 0.0014943 1.5007)
(-0.000523528 0.00135792 1.44142)
(-0.000734963 0.00112116 1.32432)
(-0.000749717 0.000831269 1.15296)
(0.00110454 0.000814515 1.32419)
(0.00114374 0.00113756 1.53455)
(0.000879594 0.00142219 1.66647)
(0.000363631 0.00158878 1.73006)
(-0.000251144 0.0015932 1.73008)
(-0.000774997 0.00143494 1.66655)
(-0.00105469 0.00115682 1.53468)
(-0.00103824 0.000836809 1.32436)
(0.00134723 0.000617913 1.44134)
(0.0014271 0.000873093 1.66647)
(0.00109907 0.00109385 1.80402)
(0.000442165 0.00120786 1.86793)
(-0.000331847 0.00121066 1.86795)
(-0.000996075 0.00110223 1.80409)
(-0.00133948 0.000886155 1.6666)
(-0.00128255 0.000633721 1.44151)
(0.00149188 0.000259889 1.50067)
(0.00159235 0.000357225 1.73005)
(0.00121182 0.000436969 1.86793)
(0.00047321 0.000469134 1.92845)
(-0.000365857 0.000470328 1.92847)
(-0.00111095 0.000440395 1.868)
(-0.00150651 0.000362685 1.73019)
(-0.0014287 0.000266809 1.50085)
(0.00149594 -0.000164068 1.5007)
(0.0015956 -0.00025714 1.73008)
(0.0012136 -0.000336784 1.86795)
(0.000473531 -0.000369839 1.92847)
(-0.000367138 -0.000370416 1.92849)
(-0.00111367 -0.000338379 1.86802)
(-0.00151063 -0.000259581 1.73021)
(-0.00143351 -0.000166853 1.50087)
(0.00135862 -0.000529476 1.44142)
(0.0014364 -0.000780302 1.66655)
(0.00110436 -0.00100052 1.80409)
(0.000442984 -0.00111465 1.868)
(-0.000335554 -0.00111682 1.86802)
(-0.00100418 -0.00100702 1.80417)
(-0.00135141 -0.000790307 1.66668)
(-0.00129612 -0.0005412 1.44159)
(0.00112116 -0.000739815 1.32431)
(0.00115757 -0.00105905 1.53467)
(0.000887669 -0.00134316 1.6666)
(0.000364808 -0.00150963 1.73018)
(-0.000257078 -0.0015134 1.73021)
(-0.000787676 -0.001354 1.66668)
(-0.00107278 -0.00107524 1.5348)
(-0.00105835 -0.000758211 1.32447)
(0.000830919 -0.000753193 1.15295)
(0.000837032 -0.00104137 1.32435)
(0.000634667 -0.00128519 1.44151)
(0.000268431 -0.00143098 1.50084)
(-0.000164744 -0.0014356 1.50087)
(-0.000538875 -0.00129815 1.44158)
(-0.000755978 -0.00106034 1.32447)
(-0.000771472 -0.000773243 1.1531)
(0.000372597 0.000366407 1.15182)
(0.000397806 0.000508637 1.32365)
(0.00032824 0.000631574 1.4413)
(0.00017873 0.000707735 1.50097)
(-6.73157e-06 0.000714866 1.50103)
(-0.000169879 0.000651374 1.44146)
(-0.000264539 0.000537045 1.3239)
(-0.000275289 0.000395272 1.15212)
(0.000515387 0.00038935 1.32365)
(0.000561282 0.000552422 1.53487)
(0.000458703 0.000694927 1.66768)
(0.000232235 0.000780039 1.73184)
(-4.5729e-05 0.000786403 1.73189)
(-0.000286219 0.000713006 1.66785)
(-0.00041591 0.000578899 1.53514)
(-0.000408385 0.000418517 1.32398)
(0.00063768 0.000318529 1.44129)
(0.000702921 0.000448689 1.66768)
(0.000567974 0.00055894 1.80646)
(0.000272682 0.000617937 1.87113)
(-8.26736e-05 0.000622205 1.87118)
(-0.000391399 0.00057142 1.80663)
(-0.000553925 0.00046753 1.66795)
(-0.000528663 0.000340196 1.44164)
(0.000712594 0.000168589 1.50096)
(0.000786484 0.000221881 1.73183)
(0.000625362 0.000263326 1.87113)
(0.000288593 0.000280796 1.93246)
(-0.000100283 0.000282774 1.9325)
(-0.00044912 0.000268876 1.87128)
(-0.000637471 0.000230423 1.7321)
(-0.000603689 0.000178835 1.50132)
(0.000718205 -1.65255e-05 1.50101)
(0.000791054 -5.57168e-05 1.73188)
(0.000627842 -9.17577e-05 1.87118)
(0.00028891 -0.00010797 1.9325)
(-0.000102418 -0.000108627 1.93255)
(-0.000453359 -9.34585e-05 1.87133)
(-0.000643654 -5.82222e-05 1.73216)
(-0.000610607 -1.91476e-05 1.50137)
(0.000653226 -0.00017871 1.44144)
(0.000715887 -0.000295253 1.66784)
(0.000575279 -0.000399681 1.80662)
(0.000273385 -0.00045624 1.87128)
(-8.87163e-05 -0.000459199 1.87133)
(-0.000403851 -0.000408357 1.80678)
(-0.000571584 -0.00030817 1.66811)
(-0.000547981 -0.00019303 1.44179)
(0.000537588 -0.000272032 1.32388)
(0.000580144 -0.000423539 1.53512)
(0.000469629 -0.000560911 1.66794)
(0.000233214 -0.000643488 1.73209)
(-5.51014e-05 -0.000648585 1.73215)
(-0.000305187 -0.000575331 1.6681)
(-0.00044205 -0.000444405 1.53538)
(-0.000436401 -0.000294476 1.3242)
(0.000394871 -0.000281032 1.1521)
(0.000418283 -0.000414196 1.32396)
(0.000340459 -0.000533914 1.44162)
(0.000179637 -0.000608152 1.5013)
(-1.80276e-05 -0.000614172 1.50136)
(-0.00019196 -0.000550539 1.44178)
(-0.00029383 -0.000437773 1.3242)
(-0.000304424 -0.000304446 1.15239)
(0.000221867 0.000223266 1.15108)
(0.000244488 0.000297627 1.32316)
(0.000220205 0.000360707 1.44108)
(0.000155667 0.000401429 1.50095)
(6.89082e-05 0.000408898 1.50105)
(-1.46361e-05 0.00038105 1.44136)
(-7.32594e-05 0.000325636 1.32359)
(-9.80851e-05 0.000249426 1.15159)
(0.000298775 0.000244072 1.32315)
(0.000332513 0.000329008 1.53484)
(0.000294494 0.000402131 1.66812)
(0.000194786 0.000447397 1.73258)
(6.47926e-05 0.000454524 1.73268)
(-5.57967e-05 0.000421979 1.66842)
(-0.000133424 0.000356965 1.53531)
(-0.000153943 0.000272788 1.32373)
(0.000363422 0.000217874 1.44107)
(0.000407046 0.000288967 1.66811)
(0.000353993 0.000347349 1.80752)
(0.000221338 0.00037969 1.87258)
(5.4318e-05 0.000384738 1.87268)
(-9.90717e-05 0.000361758 1.80782)
(-0.00019381 0.000309915 1.6686)
(-0.000208927 0.000240405 1.44169)
(0.000404507 0.000151818 1.50093)
(0.000452093 0.000187945 1.73256)
(0.000385656 0.000213706 1.87257)
(0.000231488 0.000224874 1.93432)
(4.73358e-05 0.000227392 1.93441)
(-0.000125758 0.000220588 1.87286)
(-0.000233945 0.00019814 1.73306)
(-0.000246375 0.000163275 1.50156)
(0.000411372 6.41132e-05 1.50102)
(0.000457809 5.73981e-05 1.73266)
(0.000388768 4.64318e-05 1.87267)
(0.000231813 4.06533e-05 1.9344)
(4.44256e-05 4.00917e-05 1.93448)
(-0.000131335 4.51733e-05 1.87295)
(-0.000241859 5.56283e-05 1.73315)
(-0.000254934 6.25352e-05 1.50166)
(0.000382273 -1.98964e-05 1.44133)
(0.000423115 -6.31387e-05 1.66839)
(0.000363049 -0.000106604 1.8078)
(0.000221951 -0.000131959 1.87285)
(4.6273e-05 -0.000135098 1.87295)
(-0.000115189 -0.000115577 1.8081)
(-0.000216138 -7.59856e-05 1.66888)
(-0.000232583 -3.30666e-05 1.44195)
(0.00032521 -7.87216e-05 1.32355)
(0.000355512 -0.000140344 1.53528)
(0.000307888 -0.000200572 1.66858)
(0.000195705 -0.000239194 1.73304)
(5.26616e-05 -0.000244562 1.73314)
(-7.97741e-05 -0.00021542 1.66887)
(-0.000165735 -0.000160944 1.53575)
(-0.000187509 -9.91617e-05 1.32412)
(0.000247395 -0.000103347 1.15156)
(0.000268706 -0.000160118 1.3237)
(0.000234817 -0.00021459 1.44166)
(0.000156576 -0.0002504 1.50154)
(5.49513e-05 -0.000256422 1.50164)
(-4.14539e-05 -0.000230877 1.44194)
(-0.000108127 -0.000182175 1.32412)
(-0.000131587 -0.000123129 1.15206)
(0.000125181 0.000145993 1.15061)
(0.000151466 0.000187725 1.32278)
(0.000156648 0.000222548 1.44084)
(0.000140087 0.000245818 1.50082)
(0.000107186 0.00025147 1.50097)
(6.82629e-05 0.000237378 1.44128)
(3.39541e-05 0.000206497 1.32344)
(7.59244e-06 0.000160084 1.15138)
(0.0001708 0.00017437 1.32278)
(0.000208435 0.000225947 1.53468)
(0.000211183 0.000268829 1.66819)
(0.000179806 0.000295894 1.73282)
(0.000126547 0.000301829 1.73298)
(6.88601e-05 0.000284896 1.66866)
(2.26734e-05 0.000247123 1.53541)
(-4.60613e-06 0.000193192 1.32366)
(0.000210498 0.000178498 1.44083)
(0.000256223 0.000227245 1.66818)
(0.000253187 0.000264865 1.80791)
(0.000205805 0.00028603 1.87319)
(0.000134024 0.000290501 1.87334)
(5.95219e-05 0.000277297 1.80839)
(2.96924e-06 0.000244281 1.66895)
(-2.45977e-05 0.000194752 1.44179)
(0.000237446 0.000159341 1.50081)
(0.000286198 0.000193575 1.73281)
(0.000276175 0.000216031 1.87318)
(0.000216399 0.000225894 1.93517)
(0.000134805 0.000228295 1.9353)
(4.98707e-05 0.000222353 1.87364)
(-1.46945e-05 0.000202441 1.73359)
(-4.23724e-05 0.000168313 1.50179)
(0.000245213 0.000122849 1.50096)
(0.000292857 0.000137638 1.73296)
(0.000279908 0.000142636 1.87333)
(0.000216919 0.000143719 1.9353)
(0.00013149 0.000143349 1.93543)
(4.35232e-05 0.000142017 1.8738)
(-2.35914e-05 0.000136857 1.73374)
(-5.17594e-05 0.000122481 1.50194)
(0.000231631 7.96358e-05 1.44126)
(0.00027482 7.68732e-05 1.66864)
(0.000263995 6.62855e-05 1.80837)
(0.000206891 5.80479e-05 1.87363)
(0.000125065 5.5524e-05 1.87379)
(4.13795e-05 5.92532e-05 1.80884)
(-2.18644e-05 6.74448e-05 1.6694)
(-5.02232e-05 7.13529e-05 1.4422)
(0.000199872 4.05043e-05 1.32342)
(0.00023465 2.71095e-05 1.53539)
(0.000227004 7.32783e-06 1.66893)
(0.000181553 -7.87548e-06 1.73357)
(0.000113447 -1.20895e-05 1.73373)
(4.25527e-05 -3.98581e-06 1.6694)
(-1.24055e-05 1.25373e-05 1.53611)
(-4.00681e-05 2.83531e-05 1.32429)
(0.000152041 9.536e-06 1.15136)
(0.000178213 -3.90838e-06 1.32364)
(0.000173543 -2.30589e-05 1.44177)
(0.000142132 -3.76997e-05 1.50178)
(9.28862e-05 -4.20394e-05 1.50193)
(4.01356e-05 -3.43058e-05 1.44219)
(-2.30181e-06 -1.77397e-05 1.32429)
(-2.58997e-05 3.19696e-07 1.15212)
(7.81588e-05 0.000126474 1.1502)
(0.000101033 0.000155938 1.32241)
(0.000116092 0.000177782 1.44053)
(0.000119598 0.000191401 1.50058)
(0.000110636 0.000193467 1.50079)
(9.1859e-05 0.000182329 1.44113)
(6.817e-05 0.000159063 1.3233)
(4.18481e-05 0.000122559 1.15124)
(0.000109499 0.000159571 1.32241)
(0.000144099 0.000198957 1.5344)
(0.000163374 0.00022883 1.66803)
(0.000163226 0.000246592 1.73277)
(0.000145858 0.000249521 1.73299)
(0.00011743 0.00023608 1.66869)
(8.49576e-05 0.000206386 1.53541)
(5.32347e-05 0.000161744 1.32362)
(0.000138076 0.000177321 1.44055)
(0.000180738 0.000220587 1.66803)
(0.000199946 0.000251201 1.80793)
(0.000192959 0.000267571 1.87334)
(0.000166554 0.000270076 1.87357)
(0.00012922 0.000257711 1.8086)
(8.95086e-05 0.000228115 1.66911)
(5.37143e-05 0.000181565 1.44186)
(0.00015869 0.000178433 1.50061)
(0.000204746 0.000218446 1.73278)
(0.000220848 0.000243595 1.87335)
(0.000206337 0.000254355 1.93548)
(0.000173911 0.000255849 1.93568)
(0.000130745 0.000247157 1.87401)
(8.56594e-05 0.000222805 1.73388)
(4.80111e-05 0.000181536 1.50197)
(0.00016662 0.000162783 1.50083)
(0.000211926 0.00019563 1.73302)
(0.000225157 0.000213686 1.87358)
(0.000207338 0.000220607 1.93568)
(0.000170803 0.000220362 1.93588)
(0.000124531 0.000213487 1.87424)
(7.69698e-05 0.000195478 1.73411)
(3.91276e-05 0.000163163 1.50219)
(0.000159343 0.000134042 1.44117)
(0.000200559 0.00015873 1.66872)
(0.000212273 0.000170127 1.80862)
(0.00019532 0.000173752 1.87402)
(0.000158458 0.000172418 1.87424)
(0.000111726 0.000166679 1.80929)
(6.56335e-05 0.000154965 1.66979)
(2.99207e-05 0.000132816 1.44248)
(0.00013784 9.84424e-05 1.32336)
(0.000171345 0.000115327 1.53545)
(0.000181071 0.000121251 1.66914)
(0.000166922 0.000121545 1.7339)
(0.000134483 0.000119565 1.73412)
(9.29047e-05 0.000116448 1.66979)
(5.24476e-05 0.000110818 1.53646)
(2.167e-05 9.84668e-05 1.32454)
(0.000102229 5.97479e-05 1.1513)
(0.000127446 7.14579e-05 1.32367)
(0.00013429 7.42299e-05 1.4419)
(0.000123887 7.36951e-05 1.50201)
(9.91519e-05 7.22459e-05 1.50221)
(6.7366e-05 7.12436e-05 1.44249)
(3.70369e-05 7.0121e-05 1.32455)
(1.50418e-05 6.48025e-05 1.15233)
(4.90639e-05 0.000120481 1.14985)
(6.47959e-05 0.000148909 1.32204)
(7.93795e-05 0.000167338 1.44019)
(8.82008e-05 0.000176409 1.50029)
(8.8024e-05 0.000174115 1.50055)
(7.82226e-05 0.000159673 1.44094)
(6.12176e-05 0.000134266 1.32316)
(3.92096e-05 9.76328e-05 1.15113)
(7.22226e-05 0.000156614 1.32207)
(0.000100181 0.000196921 1.53407)
(0.000122505 0.000224772 1.66776)
(0.000133493 0.000238889 1.73257)
(0.000130986 0.000237852 1.73286)
(0.000116016 0.000220732 1.66859)
(9.17203e-05 0.000187698 1.53535)
(6.21336e-05 0.000140058 1.32357)
(9.46546e-05 0.00018048 1.44026)
(0.000131374 0.000229131 1.6678)
(0.00015712 0.000261624 1.80778)
(0.000166381 0.000277333 1.87328)
(0.000159828 0.00027704 1.87357)
(0.000139909 0.000260001 1.80864)
(0.000109915 0.000224431 1.66916)
(7.44957e-05 0.000170606 1.4419)
(0.000111091 0.00018956 1.5004)
(0.00015224 0.000240945 1.73264)
(0.000177588 0.000273343 1.87332)
(0.000182434 0.000286901 1.93555)
(0.00017221 0.000286951 1.9358)
(0.000148933 0.000272776 1.87417)
(0.000115069 0.00023909 1.73404)
(7.70835e-05 0.000185447 1.50212)
(0.000117253 0.00018115 1.5007)
(0.000158553 0.000231169 1.73297)
(0.000181837 0.000261877 1.87364)
(0.000183957 0.000274753 1.93583)
(0.000170045 0.000274541 1.93609)
(0.000144193 0.00026181 1.87449)
(0.000108511 0.000231331 1.73437)
(7.09418e-05 0.000182099 1.50241)
(0.000110497 0.000156408 1.44113)
(0.000148305 0.000201888 1.66875)
(0.000168942 0.000230214 1.80876)
(0.000170084 0.000243411 1.87424)
(0.000154652 0.000243525 1.87453)
(0.000126988 0.000231065 1.80961)
(9.25479e-05 0.000204728 1.67011)
(5.88783e-05 0.000163037 1.44276)
(9.12811e-05 0.000120518 1.32337)
(0.000121882 0.000157954 1.53554)
(0.00013858 0.000181899 1.66932)
(0.000138947 0.000193664 1.73416)
(0.000124352 0.000194419 1.73444)
(9.92607e-05 0.000184917 1.67014)
(7.01537e-05 0.000165061 1.5368)
(4.39198e-05 0.000133787 1.32485)
(6.05037e-05 7.82629e-05 1.15135)
(8.25206e-05 0.000106067 1.32378)
(9.39841e-05 0.000123798 1.44209)
(9.39428e-05 0.000133561 1.50226)
(8.27269e-05 0.00013548 1.50252)
(6.44571e-05 0.000130249 1.44283)
(4.49294e-05 0.000118491 1.32488)
(2.95116e-05 9.80497e-05 1.15262)
(3.45048e-05 0.000108972 1.14954)
(3.945e-05 0.000141923 1.32171)
(4.5031e-05 0.000162607 1.43986)
(4.81494e-05 0.000170535 1.49998)
(4.59228e-05 0.000164073 1.50028)
(3.7061e-05 0.000143495 1.44072)
(2.33083e-05 0.000111235 1.32298)
(8.1426e-06 7.01729e-05 1.151)
(5.12111e-05 0.000141617 1.32177)
(6.74606e-05 0.000189064 1.53376)
(8.20222e-05 0.000221213 1.66747)
(9.02691e-05 0.000235411 1.73232)
(8.90889e-05 0.000230436 1.73265)
(7.77027e-05 0.000206184 1.66844)
(5.79546e-05 0.000164296 1.53523)
(3.43766e-05 0.000108709 1.32349)
(6.7331e-05 0.000163664 1.44001)
(9.27355e-05 0.000222659 1.66755)
(0.000113006 0.000262319 1.80758)
(0.000122965 0.00028033 1.87314)
(0.00012106 0.000277219 1.87348)
(0.000107393 0.000252696 1.80859)
(8.34945e-05 0.000206486 1.66914)
(5.39763e-05 0.000141554 1.4419)
(7.77982e-05 0.000172076 1.50023)
(0.000108852 0.00023709 1.73249)
(0.000131265 0.000279855 1.87322)
(0.00013982 0.000298105 1.93552)
(0.000136665 0.000296728 1.93583)
(0.000121787 0.0002754 1.87423)
(9.57196e-05 0.00022978 1.73413)
(6.39607e-05 0.000162325 1.50221)
(7.87861e-05 0.000163516 1.50062)
(0.000111467 0.00022953 1.73292)
(0.000133747 0.000273341 1.87365)
(0.000141313 0.000293053 1.9359)
(0.000136137 0.000293041 1.9362)
(0.000120298 0.000273887 1.87466)
(9.40648e-05 0.000230943 1.73456)
(6.37747e-05 0.000166438 1.5026)
(6.8159e-05 0.000138823 1.44113)
(9.85874e-05 0.000200744 1.6688)
(0.000119225 0.000243763 1.80886)
(0.000126398 0.000265879 1.8744)
(0.000120673 0.000267674 1.87474)
(0.000104196 0.000249588 1.80987)
(8.0516e-05 0.000211204 1.67038)
(5.5494e-05 0.000154384 1.44301)
(4.68513e-05 0.000103585 1.32344)
(7.11985e-05 0.000155523 1.53566)
(8.84098e-05 0.000193693 1.6695)
(9.47165e-05 0.000215134 1.7344)
(8.98309e-05 0.000218871 1.73473)
(7.63699e-05 0.000205176 1.67046)
(5.88776e-05 0.000175024 1.53712)
(4.24293e-05 0.000130543 1.32513)
(1.81278e-05 6.45352e-05 1.15146)
(3.40152e-05 0.000102409 1.32394)
(4.61081e-05 0.000131479 1.44231)
(5.15163e-05 0.000149642 1.50254)
(4.95157e-05 0.000155062 1.50284)
(4.26043e-05 0.000147637 1.44316)
(3.45837e-05 0.000128735 1.3252)
(2.88841e-05 9.8585e-05 1.1529)
(2.65184e-05 7.49973e-05 1.14932)
(1.91877e-05 0.000111465 1.32145)
(1.0968e-05 0.000135621 1.43959)
(1.91728e-06 0.000143783 1.49971)
(-8.65593e-06 0.000133958 1.50004)
(-2.08501e-05 0.00010747 1.44051)
(-3.25219e-05 6.86894e-05 1.32281)
(-3.83505e-05 2.54413e-05 1.15086)
(3.64912e-05 9.45675e-05 1.32156)
(3.79269e-05 0.000147517 1.53352)
(3.8156e-05 0.000184983 1.66722)
(3.54957e-05 0.000200691 1.73209)
(2.80676e-05 0.000192533 1.73245)
(1.52989e-05 0.000161261 1.66827)
(-7.78226e-07 0.000111005 1.5351)
(-1.45855e-05 5.02453e-05 1.32338)
(4.40252e-05 0.000106813 1.43984)
(5.4219e-05 0.000173184 1.66737)
(6.16779e-05 0.000220304 1.8074)
(6.3627e-05 0.000241683 1.87299)
(5.85113e-05 0.000236411 1.87337)
(4.61062e-05 0.000204704 1.80851)
(2.79027e-05 0.000148906 1.66908)
(9.40423e-06 7.69138e-05 1.44186)
(4.51623e-05 0.000108669 1.50012)
(6.19292e-05 0.00018276 1.73239)
(7.42703e-05 0.00023514 1.87314)
(7.85031e-05 0.000258814 1.93548)
(7.5342e-05 0.000256583 1.93582)
(6.4455e-05 0.000228569 1.87424)
(4.65959e-05 0.000172867 1.73416)
(2.69591e-05 9.70652e-05 1.50224)
(3.72141e-05 9.75247e-05 1.50059)
(5.72575e-05 0.000173273 1.73291)
(7.24908e-05 0.000228027 1.87367)
(7.88025e-05 0.000254679 1.93595)
(7.68284e-05 0.000255421 1.93628)
(6.78986e-05 0.000230743 1.87477)
(5.26227e-05 0.000178336 1.73468)
(3.57452e-05 0.000105304 1.50271)
(1.956e-05 7.47943e-05 1.44117)
(3.89118e-05 0.000145653 1.66887)
(5.50941e-05 0.00019968 1.80897)
(6.35203e-05 0.000229695 1.87454)
(6.37968e-05 0.000233621 1.87491)
(5.73713e-05 0.000211741 1.81007)
(4.69834e-05 0.000165452 1.67058)
(3.61915e-05 0.000101106 1.44318)
(-5.48838e-06 4.63889e-05 1.32354)
(9.33558e-06 0.00010537 1.5358)
(2.41566e-05 0.00015357 1.66968)
(3.39119e-05 0.000182945 1.73462)
(3.7261e-05 0.000189944 1.73498)