/*--------------------------------*- C++ -*----------------------------------*\
| =========                 |                                                 |
| \\      /  F ield         | OpenFOAM: The Open Source CFD Toolbox           |
|  \\    /   O peration     | Version:  2406                                  |
|   \\  /    A nd           | Website:  www.openfoam.com                      |
|    \\/     M anipulation  |                                                 |
\*---------------------------------------------------------------------------*/
FoamFile
{
    version     2.0;
    format      ascii;
    arch        "LSB;label=32;scalar=64";
    class       volScalarField;
    location    "50";
    object      div(phi);
}
// * * * * * * * * * * * * * * * * * * * * * * * * * * * * * * * * * * * * * //

dimensions      [0 0 -1 0 0 0 0];

internalField   nonuniform List<scalar> 
25000
(
-1.24406
-0.268972
-0.132895
-0.0806312
-0.0340706
-0.0218307
-0.014994
-0.00679246
-0.00887182
-0.0114351
-0.0325385
-0.00918848
-0.0535896
-0.0410121
-0.0371309
-0.0183052
-0.0114888
-0.0102805
-0.00519817
-0.0108238
0.0857634
0.00124169
-0.0400888
-0.0387706
-0.0301464
-0.0216303
-0.0146194
-0.00834968
-0.00777343
-0.0103704
0.00530803
0.00316271
-0.0129816
-0.0310177
-0.0278566
-0.020569
-0.0129091
-0.0102145
-0.00776161
-0.0100318
0.039565
0.01415
-0.0192242
-0.0208046
-0.0227181
-0.0175427
-0.0138525
-0.0100926
-0.0080538
-0.0103547
0.000556812
0.00053084
-0.00092392
-0.0194264
-0.0155601
-0.0165176
-0.0111617
-0.00899123
-0.00866622
-0.0106088
0.013057
0.0125808
-0.00920652
-0.00377551
-0.0131284
-0.00725689
-0.00678935
-0.00738083
-0.0062849
-0.0100409
-0.00391174
0.00549356
0.00518087
-0.00440838
-0.00318709
-0.00318284
-0.00524849
-0.00206127
-0.00587154
-0.00968799
0.011985
0.00566777
0.00667493
-0.00404378
0.000524972
-0.0057985
0.00160376
-0.00462238
-0.00244702
-0.00777847
-0.00718445
-0.00629473
-0.0120293
-0.00885459
-0.0119093
-0.00713447
-0.00854533
-0.00674433
-0.00537943
-0.0114316
0.0645649
0.0138306
-0.0083023
-0.0183088
-0.00924491
-0.0113716
-0.00935314
-0.00396551
-0.00869547
-0.0113357
0.0387986
0.0199339
-0.00452208
-0.0020419
-0.0141721
-0.00323844
-0.00516884
-0.00681662
-0.00211492
-0.0101207
0.0557357
0.0208891
-0.00457685
-0.00636827
-0.00720499
-0.00962011
-0.00585783
-0.00380892
-0.00734993
-0.00876781
0.0179363
0.0128031
0.0124834
-0.00535205
-0.00924791
-0.00647483
-0.00668817
-0.00677106
-0.00385463
-0.00884478
0.0366011
0.0248905
-0.00017307
-0.000546068
-0.00558744
-0.00777869
-0.00558194
-0.00463059
-0.00616615
-0.00788541
0.0124419
0.0097202
0.0148964
-0.002305
-0.00238352
-0.00491863
-0.00449064
-0.00464392
-0.00422684
-0.00816758
0.021365
0.0226276
0.00406588
0.00930495
-0.000924878
0.00078142
0.000168076
-0.00186948
-0.00312633
-0.00709645
0.00820846
0.0137574
0.0155435
0.00598569
0.0053402
0.00409917
0.000327122
0.00183154
-0.00216416
-0.00669598
0.0193065
0.012805
0.0130342
0.0029149
0.00587
-0.00111622
0.00513566
-0.00122033
0.000126654
-0.0052293
0.00295307
0.000968571
-0.00553668
-0.00366365
-0.00748528
-0.00356195
-0.0052684
-0.00380123
-0.0026289
-0.00824002
-0.039915
-0.0259949
-0.0248055
-0.0213221
-0.0167931
-0.0146244
-0.0132114
-0.00923833
-0.0125078
-0.0128717
-0.0270359
-0.0167961
-0.0169226
-0.0140621
-0.0145309
-0.00951434
-0.00857236
-0.00908181
-0.0043319
-0.00846158
-0.0177841
-0.0119399
-0.0144938
-0.0130312
-0.0105989
-0.0099863
-0.00741367
-0.0045355
-0.00653448
-0.00643194
-0.0145803
-0.0108588
-0.00913793
-0.0105186
-0.00990494
-0.00703374
-0.00578486
-0.00567189
-0.00326128
-0.0057684
-0.00941038
-0.00584156
-0.0094444
-0.00838512
-0.00750854
-0.00682395
-0.00498485
-0.00345912
-0.0040185
-0.00490421
-0.00875748
-0.00729068
-0.00540958
-0.00746714
-0.00627152
-0.00521777
-0.00405801
-0.003445
-0.00316835
-0.00459931
-0.00613189
-0.00320247
-0.0061059
-0.00413571
-0.00488462
-0.00355532
-0.00254394
-0.00289493
-0.0024749
-0.00477035
-0.00600512
-0.00356853
-0.00264744
-0.00356952
-0.00287645
-0.0021652
-0.00267379
-0.00142893
-0.00322166
-0.00459303
-0.00251936
-0.00261146
-0.00181415
-0.0033567
-0.00209473
-0.00321538
-0.00115983
-0.00322699
-0.00223352
-0.00537483
-0.00527105
-0.00430726
-0.00524329
-0.00444903
-0.00485947
-0.00374707
-0.00416799
-0.00373896
-0.00376351
-0.00705743
0.00106071
-0.000995986
-0.00304863
-0.00327532
-0.0045172
-0.0047293
-0.00661048
-0.0016099
-0.00451918
-0.00335327
0.000678522
-0.00404058
-0.00512887
-0.00509833
-0.00702135
-0.00475482
-0.00426166
-0.00505847
0.000247558
-0.00387654
0.00146128
-0.00198697
-0.00368161
-0.00451558
-0.00396442
-0.00458132
-0.00299586
-0.000282313
-0.00219057
-0.00270864
0.000488483
-0.00194835
-0.00245359
-0.0032101
-0.00366139
-0.0022431
-0.00128251
-0.00154329
-4.17311e-05
-0.00237286
0.000899599
-0.00153053
-0.00266426
-0.00296948
-0.00268156
-0.00237231
-0.00121884
-0.000332829
-0.000622749
-0.00231544
-0.000564349
-0.00216825
-0.0023172
-0.00326013
-0.00257415
-0.00201895
-0.00100939
-0.000305674
-0.000969288
-0.00209776
0.000290167
-0.00193783
-0.00305773
-0.00215408
-0.00267857
-0.00151759
-0.000193492
-0.00121156
8.08596e-05
-0.0027632
-0.00163732
-0.00170598
-0.00229284
-0.00236839
-0.00201778
-0.000576665
-0.00167243
0.000886622
-0.0015809
-0.0023721
0.00081972
-0.00300393
-0.00118822
-0.00298968
-0.000963935
-0.00275139
0.000640263
-0.00211308
0.000152397
-0.00323629
-0.0019403
-0.00248094
-0.00339206
-0.00251821
-0.00337515
-0.00189156
-0.00247329
-0.00131761
-0.000718483
-0.00393328
-0.0437303
-0.0260571
-0.0262141
-0.0216768
-0.0186217
-0.0160201
-0.0147158
-0.00955322
-0.0141274
-0.0129493
-0.0253473
-0.0165694
-0.0142976
-0.0128952
-0.0134905
-0.00854687
-0.00815695
-0.00894432
-0.00265342
-0.0075907
-0.0143549
-0.00825145
-0.0109469
-0.00972434
-0.00743122
-0.00797996
-0.00521847
-0.00204928
-0.0052908
-0.00436029
-0.00981179
-0.00738122
-0.00502141
-0.00600951
-0.00609849
-0.00320692
-0.00293728
-0.00344473
-0.000652018
-0.00368305
-0.00569018
-0.00240891
-0.0050166
-0.00402546
-0.00300517
-0.00342983
-0.00162733
-0.000374865
-0.00200977
-0.00243444
-0.00498142
-0.00400464
-0.00174314
-0.00294876
-0.0025396
-0.00112415
-0.000996518
-0.000825886
-0.000547504
-0.00216568
-0.00321113
-0.000639038
-0.00241344
-0.00093011
-0.000952161
-0.000689321
0.000359944
-0.000169916
-0.000259429
-0.00239587
-0.00291162
-0.00123971
-0.00023062
-0.000424651
-0.000109251
0.000541018
-0.000134873
0.000702504
-0.00114298
-0.00193062
-0.00119759
-0.00109254
9.90359e-05
-0.000820281
5.23623e-05
-0.000710198
0.000502915
-0.00119244
-0.00046759
-0.00367339
-0.00269949
-0.00166893
-0.00215672
-0.00169217
-0.00187032
-0.00133413
-0.00165172
-0.00136659
-0.00178657
-0.00424508
0.013668
0.00949653
0.00563983
0.00615197
0.00333807
0.00358539
0.00165299
0.00435731
0.00469939
0.00482533
0.00841582
0.00253885
0.00176566
0.00049051
-0.000956261
-0.000313368
-7.95077e-05
0.000416116
0.00179952
0.00029678
0.00770598
0.00383478
0.00225009
0.000856492
0.000195815
-0.000337711
0.000290516
0.000781052
0.000776936
-0.00062482
0.00604899
0.00321822
0.00201113
0.00116804
0.000272412
0.000188256
0.000401151
0.000502343
0.000160778
-0.000786546
0.00388254
0.00211023
0.001856
0.000628073
0.000130943
-3.93588e-05
0.000265476
-4.83108e-05
0.000114269
-0.00132781
0.00356119
0.00163325
0.00046688
8.74184e-05
-0.000271671
-0.00039031
-0.000157224
0.000111359
-0.00058253
-0.00144352
0.00124609
0.000236495
-0.000111943
-0.000696797
-0.00100314
-0.000736295
0.000212405
-0.00061998
-0.000143164
-0.00142973
0.00130377
-0.000327383
-0.00126336
-0.00116848
-0.0015856
3.04122e-05
-0.00106562
0.000719806
-0.000305442
-0.00134505
-0.00102883
-0.00181057
-0.00138664
-0.00246136
-0.000512455
-0.00216606
0.00106044
-0.000625811
0.000889396
-0.000170758
-0.000225142
-0.000178045
-0.0012926
-0.000887964
-0.00176975
-0.000404514
-0.000833165
9.68512e-05
0.00112121
-0.000378334
-0.0312321
-0.0202341
-0.0168028
-0.0145854
-0.0112774
-0.0104569
-0.00875171
-0.00870682
-0.0119847
-0.0124416
-0.0192959
-0.0109723
-0.00903739
-0.00717707
-0.00641228
-0.00432983
-0.00467566
-0.00551554
-0.00354361
-0.00552598
-0.0139611
-0.00803661
-0.00776678
-0.00606035
-0.00436008
-0.00435283
-0.00331961
-0.00244821
-0.00426739
-0.00326726
-0.0106576
-0.00686612
-0.00489077
-0.00453847
-0.00381178
-0.00224908
-0.00251025
-0.0028967
-0.00155635
-0.00276543
-0.00656371
-0.00378358
-0.0045392
-0.0031714
-0.00227442
-0.00237469
-0.00168448
-0.00116395
-0.00213117
-0.00182126
-0.0063232
-0.00370827
-0.00210813
-0.00240522
-0.00182798
-0.00105962
-0.00128591
-0.00140311
-0.00116106
-0.00159364
-0.00341878
-0.00157215
-0.00203695
-0.000964517
-0.000765779
-0.000770126
-0.000931652
-0.000944895
-0.00119794
-0.00196191
-0.00417117
-0.00112003
-0.000560498
-0.000492246
-5.76743e-05
-0.000797393
-0.000565532
-0.00130164
-0.00201493
-0.00181838
-0.00176434
-0.0010657
5.5638e-06
-4.34884e-05
-0.000549138
-2.39467e-05
-0.00158669
-0.00175581
-0.00229498
-0.00399537
-0.00436134
-0.00202241
-0.0016025
-0.0013286
-0.000917135
-0.00158215
-0.00172079
-0.0023498
-0.0035531
-0.00470556
0.024659
0.0163816
0.0131637
0.0128139
0.0100117
0.00928689
0.00779186
0.00547783
0.00840864
0.00717551
0.0130114
0.00810288
0.00766981
0.00556111
0.00572746
0.00339688
0.00332732
0.00415717
0.000574878
0.00285901
0.0104184
0.0066585
0.00610606
0.00503063
0.0033335
0.00343179
0.00196023
7.18951e-05
0.00194073
0.000629433
0.00685326
0.00579209
0.00422655
0.00369026
0.00304779
0.00108788
0.000777808
0.000919686
-0.00104673
0.000108354
0.00453014
0.00359646
0.00403751
0.00266052
0.00152238
0.00127098
7.92528e-05
-0.00101678
-0.000293577
-0.000693081
0.00433385
0.0037581
0.00203707
0.00223475
0.00098989
6.56695e-05
-0.000465366
-0.000771498
-0.00117307
-0.000975247
0.00173308
0.0022962
0.0023574
0.000274004
0.000347912
-0.000684123
-0.00110492
-0.00116693
-0.00141847
-0.000714087
0.00392166
0.00133408
0.000770637
0.000110954
-0.000932679
-0.0011316
-0.00113685
-0.00162386
-0.000684058
-0.00102182
-0.000378762
0.00271486
-0.000950105
-0.000154375
-0.00126779
-0.000932277
-0.00134719
-0.000522349
-0.000857292
0.000439928
0.00391572
0.00192868
0.00126607
-0.000111777
-0.000114661
-0.000616591
-0.000436967
-0.000651965
-0.000180724
0.000362974
-0.0212872
-0.0170025
-0.0103441
-0.00902014
-0.00383635
-0.00354706
-0.00163844
-0.0040336
-0.00545397
-0.00557843
-0.00919506
-0.00737405
-0.00720695
-0.00299778
-0.00166663
-0.000666318
-0.000989945
-0.00184392
-0.00269044
-0.00198598
-0.00826317
-0.0087312
-0.00661163
-0.00445833
-0.00252584
-0.00152964
-0.00176541
-0.00182549
-0.00278587
-0.00105315
-0.00654408
-0.00747228
-0.00625648
-0.0046431
-0.00286601
-0.00200463
-0.00187975
-0.00253345
-0.0013834
-0.0014301
-0.00332209
-0.00655321
-0.00595252
-0.00388963
-0.00274846
-0.00196332
-0.00214586
-0.00115249
-0.00247843
-0.000421154
-0.00550958
-0.0051182
-0.00431231
-0.00401289
-0.00205884
-0.00178556
-0.00130069
-0.00233128
-0.000432015
-0.000883327
-2.8064e-06
-0.00544805
-0.00435795
-0.00218417
-0.00198936
-0.000926971
-0.00168217
9.13052e-06
-0.00178615
0.000105041
-0.00619254
-0.00256236
-0.0035678
-0.00177775
-0.000729332
-0.000608844
0.000302713
-0.00137835
0.000241538
-0.000105302
0.00199406
-0.00554156
0.000307116
-0.00105327
0.000788668
0.00071561
-0.000305827
0.000837259
-0.000829378
0.000508529
-0.00514042
-0.00390149
-0.00227546
-0.00023319
-9.76034e-05
4.30599e-05
0.000174722
-0.000429554
-0.000748653
0.000482598
0.0324458
0.016675
0.0165165
0.0131653
0.0122169
0.0102233
0.00869749
0.00579338
0.00717826
0.00750482
0.0199581
0.0093368
0.00692023
0.00742621
0.00743529
0.00475624
0.00467913
0.00406247
0.00100147
0.00349951
0.0102397
0.00308115
0.00478569
0.00424809
0.00350319
0.00410903
0.00196845
0.000848545
0.0015679
0.00201881
0.0062509
0.00201024
0.000605015
0.00173009
0.00225213
0.000745673
0.00101011
0.00046095
-7.84157e-05
0.000924442
0.00335116
-0.00168318
0.000198467
0.000293037
0.000195552
0.00081487
-0.000425592
-0.000235327
-0.000534176
0.000817022
0.000641976
-0.000509184
-0.00178596
-0.000841432
-8.94833e-05
-0.000676426
-0.00026593
-0.00108407
0.00015698
0.000129442
0.00205698
-0.00374788
-0.0017633
-0.00145046
-0.00117383
-0.000666848
-0.00119898
0.000122192
-0.000913674
0.00110094
-0.00267583
-0.00166335
-0.00310293
-0.00162925
-0.0012506
-0.000762965
-0.00012982
-0.00080622
0.00107527
0.000879346
0.00173728
-0.00390422
-0.000669277
-0.00118874
5.79123e-05
-7.175e-05
-1.36348e-06
0.00119705
0.000600257
0.00264
-0.00143083
-0.00216165
-0.000869883
0.000256347
0.000169359
0.000513754
0.000789899
0.000864861
0.00166515
0.00335286
0.00702402
0.00399586
0.00544158
0.00374542
0.00407772
0.00334968
0.00315648
-0.000531145
0.000659979
7.34646e-06
0.00485977
0.00299048
0.00253006
0.00301238
0.00411884
0.00178864
0.00176798
0.00148171
-0.00221561
0.000614559
-1.15715e-05
-0.000567872
0.00135997
0.00142551
0.00120483
0.00202003
6.13945e-05
-0.00127918
-0.000480713
3.28205e-05
9.71449e-05
-0.000594077
-0.0012305
0.000126388
0.000766746
-0.000440771
-0.000437403
-0.000880933
-0.00168491
-0.000418791
-0.000981526
-0.00254833
-0.000774597
-0.000548929
-0.000393208
3.72644e-06
-0.00126481
-0.00121551
-0.00159252
-0.000161518
-0.00140533
-0.00109946
-0.00190163
-0.000717671
-0.000493312
-0.000874807
-0.000883177
-0.00174218
-0.00082685
-0.00045261
-2.2532e-05
-0.00299811
-0.00119062
-0.00146573
-0.000843402
-0.000950157
-0.00197868
-0.000683345
-0.00175248
0.000161577
-0.00207755
-0.00138793
-0.00216456
-0.00120608
-0.000966792
-0.00165709
-0.000637067
-0.00214821
-0.000524176
-1.04543e-05
0.000267463
-0.00210226
-0.000905698
-0.000239656
-0.000890076
9.27093e-05
-0.00198182
-0.000282383
-0.00154541
-5.79371e-06
-0.000607574
-0.00117858
0.000204336
0.000260961
0.000667812
-0.000254441
-5.40984e-05
-0.000681344
-0.00116796
0.00054712
0.0108604
0.00662959
0.00623185
0.00485805
0.0045311
0.00374288
0.00300846
0.00270102
0.00249392
0.00379466
0.00731101
0.003697
0.00307399
0.00316635
0.00341663
0.00190088
0.00250256
0.00152612
0.00144519
0.00202088
0.00435635
0.00169075
0.00247819
0.00213383
0.00173583
0.00210782
0.000959828
0.00138553
0.00116232
0.0019249
0.00324225
0.00152992
0.000819598
0.0012681
0.00134056
0.000640625
0.00113084
0.000824591
0.00116542
0.00142556
0.0024334
0.000127521
0.000967453
0.000748356
0.00062565
0.00084794
0.000438517
0.000988549
0.000915054
0.00150662
0.00169008
0.000961998
0.000113009
0.000502924
0.000408805
0.000244359
0.00064444
0.000813024
0.00109182
0.00149108
0.00235817
-0.000429105
0.000299399
-0.000177019
-8.69621e-05
2.84261e-05
0.000164508
0.00047962
0.00134878
0.00124528
0.000962833
0.000293755
-0.000547199
-0.00038862
-0.000317305
-0.000357392
-0.000192883
0.000915342
0.000536741
0.00172566
0.00174309
-0.000509169
-0.000189788
-9.79386e-06
-0.000285354
-0.000174689
9.12636e-05
-8.203e-05
0.00120422
0.000220155
0.00155159
0.000427743
0.000731809
0.000645985
0.000651204
0.000521758
0.000583592
0.00118924
0.00154228
0.00141732
0.00308531
0.00340642
0.00202977
0.00146076
0.000194388
0.00136091
0.000645657
0.00173221
0.00346087
0.00216587
0.000413344
0.00205769
0.00153358
0.00107944
0.001218
0.000537801
0.00165912
0.00208373
0.000819924
0.000541568
0.000281037
0.001545
0.00199411
0.00140308
0.000822107
0.00145697
0.0010678
0.000809472
0.00153168
-7.07385e-05
0.000262874
0.00188373
0.00144914
0.00132424
0.00116495
0.000644112
0.00107018
0.00150469
0.000439653
0.000176357
-0.000988508
0.0015137
0.00183723
0.00125243
0.000913815
0.00105812
0.00121978
0.000769373
0.00127832
-4.17712e-05
0.000619794
0.00157089
0.00137099
0.00145348
0.00100949
0.000929558
0.00104857
0.00174691
0.000575365
0.000422916
-0.00161844
0.0016476
0.00151534
0.00089589
0.000816316
0.000832106
0.00160563
0.000630727
0.00176194
0.000120254
0.00108927
0.000667644
0.00105682
0.000633991
0.000444604
0.000990011
0.000262026
0.00214057
0.000442968
0.000687106
-0.00265275
0.00126172
-0.000301476
0.000175685
0.000215182
-0.000237478
0.00144911
2.01798e-05
0.00167008
-0.000433808
0.000239986
0.00160609
0.00100505
0.000615072
0.000432097
0.000831584
0.00054788
0.00129046
0.00148155
8.78158e-05
-0.00251843
-0.000168708
-0.00235192
-0.00200755
-0.00254317
-0.00108469
-0.00110711
0.00501116
0.00385054
0.00544516
-0.00231356
0.000762832
0.000164269
-0.000415407
-0.00191043
0.000185806
0.00110159
0.00082963
0.00554132
0.00136421
0.00148416
0.00300519
0.0010003
0.000799416
0.000531303
-8.74199e-05
0.00189227
0.00389368
0.00261932
0.00181079
0.00240064
0.00254989
0.00344644
0.00159276
0.000864615
0.00203781
0.00235144
0.00306948
0.00422167
0.0020866
0.0029506
0.00486251
0.00278843
0.00249925
0.00203738
0.00157755
0.00350455
0.00359324
0.00425237
0.00188365
0.00492267
0.00334543
0.00420034
0.00266189
0.00224357
0.00264435
0.0030503
0.00499792
0.00316026
0.00284262
0.00291556
0.00539271
0.00315082
0.00323899
0.00203143
0.00257575
0.00475792
0.00230632
0.00590809
0.00144297
0.00593299
0.00319607
0.00383408
0.0022077
0.0021019
0.00332085
0.00125997
0.00641569
0.00194086
0.00298133
0.00209823
0.00362232
0.00182323
0.00110147
0.00195975
-3.23482e-05
0.00482031
0.000500893
0.00545663
2.50138e-05
0.00461883
0.0039852
0.00188416
0.00169349
0.00076156
0.00244243
0.00177469
0.00414171
0.00532888
0.0015645
-0.0219971
-0.0100655
-0.0116419
-0.00918176
-0.0089418
-0.00653006
-0.00363534
-0.00230141
-0.000233749
-0.00109206
-0.0150802
-0.00437864
-0.00277855
-0.00406879
-0.00387888
-0.00158292
-0.00208197
0.000342342
0.000419239
-9.19681e-05
-0.00722537
0.000344104
-0.00159181
-0.000857736
-0.00102127
-0.00159654
0.000838647
6.54709e-05
0.000840201
0.000171132
-0.00343217
0.000565005
0.00245755
0.000671609
0.000221652
0.00133392
0.00014114
0.00165011
0.00114875
0.00125819
-0.00225475
0.00444194
0.00230437
0.00238751
0.00198043
0.00102405
0.00249263
0.00141763
0.00233766
0.00124737
0.00226967
0.0026539
0.00445444
0.00336579
0.00239272
0.00273174
0.00188343
0.00313549
0.00147642
0.00231762
-0.00135367
0.00612959
0.00399518
0.00361986
0.00301669
0.00243566
0.00308888
0.00140684
0.00309414
0.00137126
0.00525603
0.00281033
0.00498394
0.00306536
0.00274988
0.0022072
0.00129714
0.002873
0.000622608
0.00196926
-0.00207288
0.00546951
0.0011473
0.002369
0.000851545
0.000972559
0.00149556
1.47044e-05
0.00143599
-0.000399889
0.00331948
0.00411309
0.00257506
0.00124326
0.001308
0.00118337
0.000899215
0.00141826
0.000816612
8.96898e-05
0.0180349
0.0129904
0.0081296
0.00805466
0.00459822
0.0050924
0.00589906
0.00797348
0.0107284
0.0107831
0.00727569
0.00679522
0.0066022
0.00343122
0.00224931
0.00315367
0.00243712
0.00497652
0.0054578
0.00501501
0.00874465
0.00846534
0.00585668
0.0052246
0.00344005
0.00221921
0.00441707
0.00349114
0.00501928
0.00357873
0.00814538
0.00725844
0.00759779
0.00510583
0.00387951
0.00399686
0.00292732
0.00485028
0.00372554
0.004225
0.0065599
0.00870743
0.00680484
0.00571503
0.0043334
0.00333482
0.00469434
0.00324276
0.00531005
0.00315669
0.00990973
0.00694071
0.00704664
0.00567492
0.00426705
0.0039236
0.00348715
0.00546008
0.00295294
0.00427256
0.0047502
0.00848712
0.00624507
0.00488382
0.00363939
0.00330697
0.00459071
0.0022154
0.00554427
0.00287288
0.0108614
0.00501251
0.00599391
0.00366944
0.00289845
0.00317502
0.00159186
0.00529658
0.00218405
0.00386682
0.00237891
0.00702404
0.00197926
0.00250313
0.00170447
0.000769858
0.00371219
0.00111204
0.00454961
0.00216703
0.00877794
0.00673623
0.00432587
0.00282757
0.00220284
0.00295174
0.00261847
0.00418333
0.00495244
0.00336612
-0.0333727
-0.0194566
-0.0162457
-0.0128498
-0.00998083
-0.00713182
-0.00375188
-0.000169981
-0.00176027
-0.00147035
-0.0215541
-0.00717217
-0.00473077
-0.00397659
-0.00374815
-0.000140115
-0.000358161
0.000100242
0.00351218
-0.000297882
-0.0104011
-0.00244413
-0.00399706
-0.0015699
-0.000630558
-0.00125819
0.00196218
0.00273896
0.000864945
0.00124204
-0.00609093
-0.00213857
0.0015713
-0.000274346
-0.000160689
0.00243397
0.00129975
0.00232749
0.00407699
0.00179595
-0.00109666
0.00388792
0.000506117
0.00194277
0.0022526
0.00104723
0.00403974
0.00384777
0.00337648
0.0025387
0.00201468
0.00156873
0.00488957
0.00300924
0.00276363
0.00434332
0.00339355
0.00487442
0.0041256
0.00328298
0.00172752
0.00707307
0.00406388
0.00528131
0.00471298
0.00425742
0.00625703
0.00436956
0.0055993
0.00270584
0.00621305
0.00459851
0.00692495
0.00535489
0.00525323
0.00586707
0.0043164
0.00659585
0.00365808
0.0038553
0.00341529
0.00664619
0.00466925
0.00442669
0.0042889
0.00344446
0.00560138
0.00314017
0.00515905
0.00132893
0.00524029
0.00492902
0.0031663
0.00270709
0.00248368
0.00330216
0.00314934
0.0042088
0.00452431
0.00192517
0.0456877
0.0300493
0.025896
0.0228625
0.0171092
0.0166009
0.0140708
0.0134182
0.0170709
0.0146267
0.0258921
0.0185897
0.016348
0.0126336
0.0124956
0.00845995
0.00944306
0.0102881
0.00645888
0.00758041
0.0195698
0.0137382
0.013805
0.0116502
0.00818791
0.00855195
0.00703846
0.00490224
0.00724896
0.00474118
0.015571
0.012463
0.00988048
0.00854374
0.00742757
0.00503965
0.004761
0.00613229
0.0036175
0.00438832
0.0101745
0.00905346
0.0092317
0.00683111
0.00505641
0.00450997
0.00489519
0.00306848
0.00482615
0.00301271
0.012299
0.00839098
0.00637396
0.00623223
0.00442812
0.00420908
0.00329759
0.00483319
0.00312052
0.00305338
0.00549534
0.00719193
0.00682732
0.00447772
0.00450443
0.0033063
0.00525507
0.00336193
0.00450631
0.00312611
0.010893
0.00526413
0.00534245
0.00453987
0.00307438
0.00482942
0.0031701
0.0055146
0.00430181
0.00348554
0.00233852
0.00668203
0.00251012
0.00284255
0.00302192
0.00201005
0.00535452
0.00406492
0.00580324
0.00488739
0.00831557
0.00676108
0.0044841
0.0030804
0.00231997
0.0033372
0.00338401
0.00438351
0.00606779
0.00432659
-0.0230565
-0.0132597
-0.00852778
-0.00639412
-0.00409366
-0.000908148
-0.000104602
0.00325357
0.000879618
0.000524708
-0.0163943
-0.000303028
0.0023371
0.00265267
0.00409764
0.00395343
0.0059506
0.00356395
0.00510162
0.00138276
-0.00779477
0.000980985
0.00129037
0.00327606
0.00345113
0.00427044
0.00402451
0.00492641
0.00258493
0.00245276
-0.00494856
0.00115607
0.00386109
0.0028913
0.00302641
0.00375659
0.0036167
0.00362865
0.00486017
0.00199124
-0.000448307
0.00517685
0.00277085
0.00346263
0.00370067
0.00262841
0.00482127
0.00453378
0.00364884
0.00254389
0.00240171
0.00315105
0.00574058
0.00489253
0.00365835
0.00562482
0.00393573
0.00527038
0.00471678
0.00256986
0.00145655
0.00858739
0.00651441
0.00645798
0.00716788
0.00513957
0.00766184
0.00546809
0.00574045
0.00244467
0.007831
0.00665934
0.00943527
0.00804198
0.0070816
0.00764233
0.00589209
0.00721023
0.00481658
0.00345412
0.00435223
0.0111639
0.00671372
0.00738698
0.00547514
0.00538815
0.00649638
0.00472583
0.00597172
0.0014105
0.00775838
0.00667587
0.00504031
0.00328854
0.00332805
0.00344654
0.00360324
0.00435107
0.00497769
0.00145043
0.0543681
0.0379885
0.0358169
0.0315918
0.0257423
0.0238507
0.0189026
0.0163502
0.0180644
0.0153418
0.0288423
0.0225361
0.0214454
0.0179517
0.0188223
0.0123106
0.0140182
0.0120882
0.00667478
0.00856583
0.0194713
0.0148411
0.0168954
0.0148692
0.0118468
0.012865
0.00825946
0.00610373
0.00744093
0.00545776
0.0119735
0.0129902
0.0102073
0.0107302
0.00988435
0.00615215
0.00659723
0.00585744
0.00318471
0.00386959
0.00661336
0.00748102
0.00936659
0.00731238
0.00619079
0.00603453
0.00445765
0.00283922
0.00336098
0.0025033
0.00660042
0.00713093
0.00548911
0.00696003
0.00498465
0.00457998
0.00322396
0.00308405
0.00247466
0.00157875
0.00158721
0.0065756
0.00726817
0.00472262
0.00596402
0.00352728
0.00423022
0.00317454
0.00220036
0.00261368
0.00813236
0.00520353
0.00679256
0.00595363
0.00420181
0.00454987
0.00374977
0.00305767
0.00435386
0.00232604
0.00215173
0.0112965
0.00389261
0.00595786
0.00331693
0.00403655
0.00401316
0.00509675
0.00438717
0.00567276
0.00978078
0.00662282
0.00613278
0.00353418
0.00372007
0.00328357
0.0039194
0.00377321
0.0052652
0.00524386
0.00695921
-0.00252859
0.00918585
0.00799085
0.0166269
0.0137138
0.017948
0.00528178
0.00878547
0.0103407
0.0176942
0.00452848
0.00193352
0.00958953
0.0118998
0.0106289
0.00773729
0.00877833
-0.000855701
0.0112096
0.0134175
-0.0035825
0.00139206
0.00373146
0.00617717
0.00789446
0.00482461
0.000925477
0.00381171
0.00948476
0.0105615
-0.00159916
-0.00307779
0.00123333
0.00423392
0.00279302
0.0027394
0.00170622
8.32076e-05
0.00801738
0.0151021
-0.00539386
-0.00231148
0.00022765
0.00144227
0.00382522
-0.000498573
0.000417869
5.40552e-05
0.00784208
0.00652933
-0.00103321
-0.00288464
-0.00144572
0.0023295
-0.000202746
0.00108808
-0.0024266
0.00161832
0.00603368
0.0189919
-0.00562075
-0.00263926
0.000358014
-0.000257998
0.00196053
-0.00361921
0.00209465
-0.00288217
0.00852849
0.00333175
0.00166004
-0.00264081
0.000276687
0.00216022
-0.000793262
0.00339412
-0.00451341
0.00406659
0.00613303
0.0226852
-0.00469294
0.00555923
0.00312547
0.00424206
0.00607129
-0.00154965
0.0060492
-0.00188479
0.0111583
0.00974166
-0.00131784
0.00264065
0.00526524
0.00594377
0.00404432
0.00498647
0.00188572
8.73761e-05
0.0110218
0.0312708
0.0158226
0.0257982
0.0219245
0.0291365
0.0220859
0.0242
0.0101075
0.0110295
0.0135682
0.033766
0.0100014
0.00612468
0.0144231
0.0142572
0.0133338
0.00798147
0.00829918
9.95459e-06
0.0117405
0.0191292
-0.000729102
0.00533915
0.00635115
0.00932536
0.00903622
0.0057308
0.00185858
0.00382207
0.00970903
0.0125532
-0.000338422
-0.00218673
0.0038416
0.00640013
0.0045868
0.00430561
0.00139712
-0.000198945
0.00769664
0.0129536
-0.00742141
-0.00136279
0.00167787
0.00314615
0.00587118
-0.000788421
0.000446141
-0.00067361
0.00722741
0.00155401
-0.00194864
-0.00395425
-0.00141518
0.00352015
-0.000988186
0.00156174
-0.00397126
0.000304517
0.0052873
0.0162439
-0.00985871
-0.00507765
-0.000834424
-0.00261954
0.00123436
-0.00696971
-0.000129535
-0.00489483
0.00751719
-0.0039468
-0.00151322
-0.00672469
-0.00332419
-0.000111737
-0.00461032
0.000790568
-0.00782383
0.00170854
0.00495794
0.0197558
-0.0104106
0.00296498
0.00072706
0.00256617
0.00442551
-0.00425665
0.00360629
-0.00416215
0.0105166
0.00450338
-0.00391331
0.00168689
0.00620828
0.00701799
0.00497538
0.00537187
0.00178962
-0.000575356
0.0116232
0.0520024
0.0389024
0.0446832
0.0404336
0.0440461
0.0316165
0.0371824
0.00585429
0.016028
0.0200699
0.0495219
0.0183447
0.0160304
0.0190653
0.0209801
0.0146753
0.0042072
0.0112826
-0.00846143
0.0214115
0.0278059
0.00760371
0.0140934
0.0124215
0.0124514
0.0107467
0.00492927
-0.00494192
0.00546488
0.0168386
0.0232864
0.0082689
0.00205704
0.00950693
0.0108833
0.00429974
0.00169566
0.000177955
-0.00585065
0.0157116
0.01665
-0.00472358
0.00628408
0.00620944
0.00542205
0.0079392
-0.00499718
-0.00430988
-0.00264193
0.0141957
0.00824872
0.00502276
-0.00283084
0.00263172
0.00502713
-0.00392996
-0.00156041
-0.0100138
-0.0029087
0.0118363
0.0173849
-0.0115745
-0.0022906
-0.00393285
-0.00525026
-0.00294366
-0.0183958
-0.00471959
-0.0122132
0.0150638
-0.00114166
-0.00275285
-0.0115614
-0.00732243
-0.00537126
-0.0152805
-0.00378252
-0.0209269
-0.000832686
0.00980045
0.011862
-0.0141486
-0.00407647
-0.0017634
-0.00463376
0.00328138
-0.0177871
0.00182397
-0.0139322
0.0176686
0.00420837
-0.00152757
0.0062139
0.00878866
0.0118019
0.00435187
0.00628372
-0.00118366
-0.00713173
0.0198002
-0.0219651
-0.0151086
-0.00552252
-0.00368942
0.00801457
0.00146186
0.0114423
-0.00888121
-0.00443092
0.00379693
0.000432096
-0.0105581
-0.0079054
-0.000496582
0.00187878
0.00300268
-0.0053474
-0.000450108
-0.00924265
0.0114953
-0.00139222
-0.00967476
-0.00477077
-0.00252613
0.0018054
8.7168e-05
-0.00115953
-0.00531866
-0.000581208
0.0119267
0.000141604
-0.00599171
-0.00622228
-8.93559e-05
0.00197715
0.000729949
-0.00124745
-0.00287257
-0.00349401
0.0117499
0.00617559
-0.00819725
-0.00190625
0.000872517
0.0019461
0.00357219
-0.00505586
-0.002055
-0.00263011
0.0124771
-0.00123803
-0.000248103
-0.00281024
-6.95568e-05
0.00264215
-0.00333318
-0.000893122
-0.0076387
-0.000721576
0.0111649
0.0130489
-0.00800273
-0.00314596
-0.00240861
-0.00424586
-0.00178061
-0.0145607
-0.00276404
-0.00811053
0.0125404
-0.00265433
-0.00103764
-0.00741201
-0.00514473
-0.00267348
-0.0122652
-0.00229603
-0.0158779
-0.00144536
0.00922698
0.0107225
-0.0109618
-0.00161474
-0.000222027
-0.00326072
0.00364693
-0.0151639
-0.000168975
-0.0120071
0.00993719
0.00200983
2.08006e-05
0.00531327
0.00771267
0.0106314
0.0038031
0.00505133
-0.00075004
-0.00731441
0.0137812
0.0591356
0.0484111
0.0433268
0.0384948
0.0304171
0.0244352
0.0189922
0.0126912
0.0164315
0.0134083
0.0406747
0.021818
0.0188999
0.0158703
0.0135338
0.00792642
0.00701635
0.00816215
0.00231167
0.0081417
0.0259905
0.0162029
0.0188482
0.0128546
0.00977827
0.00879513
0.0046419
0.00231449
0.00695005
0.00418334
0.0186942
0.0155843
0.00931724
0.0111593
0.00880144
0.00368842
0.00473526
0.00398277
-0.000839932
0.0040939
0.00767948
0.00585694
0.0115384
0.00729629
0.00495204
0.00581179
0.000360925
-0.000491512
0.00209087
0.0015116
0.00659547
0.00929018
0.00360312
0.00556611
0.0037428
-0.000925656
0.00082149
-0.000797941
-0.00221431
0.00144842
0.000714018
0.00107541
0.00387934
-0.000346672
-0.00172515
-0.00121003
-0.00513295
-0.00335819
-0.00239788
0.000948798
0.00274986
0.000965324
-0.00227032
-0.00254225
-0.00343637
-0.00569253
-0.00357008
-0.00490329
-0.0023739
0.000203108
-0.00593262
-0.0019165
-0.0042168
-0.00277123
-0.00350962
-0.00241237
-0.00480809
-0.00216438
-0.00311003
0.00249906
0.00084927
0.00468478
0.00427221
0.00381437
0.0037301
0.00216963
0.00194199
0.00067111
-0.000245916
0.00372741
-0.0493293
-0.0334163
-0.0360264
-0.0332044
-0.0312269
-0.0245296
-0.0217628
-0.0112823
-0.0119896
-0.00947247
-0.0353046
-0.0159522
-0.0121845
-0.0135606
-0.0129632
-0.010021
-0.0059185
-0.00673559
1.02863e-05
-0.00454698
-0.0223777
-0.00702163
-0.00920086
-0.00863135
-0.00730118
-0.00649247
-0.00424448
0.000492958
-0.0014901
-0.00148297
-0.016339
-0.00554725
-0.00260619
-0.00464238
-0.00552025
-0.00288509
-0.00127673
3.3009e-05
0.0025893
-0.00014899
-0.0094539
0.00166922
-0.00215246
-0.0024339
-0.00187602
-0.00273121
0.000794749
0.00228375
0.00275534
0.000619513
-0.00484433
-0.00048099
0.00258193
0.000979063
-0.00147667
0.00131061