/*--------------------------------*- C++ -*----------------------------------*\
| =========                 |                                                 |
| \\      /  F ield         | OpenFOAM: The Open Source CFD Toolbox           |
|  \\    /   O peration     | Version:  2406                                  |
|   \\  /    A nd           | Website:  www.openfoam.com                      |
|    \\/     M anipulation  |                                                 |
\*---------------------------------------------------------------------------*/
FoamFile
{
    version     2.0;
    format      ascii;
    arch        "LSB;label=32;scalar=64";
    class       volScalarField;
    location    "50";
    object      magR;
}
// * * * * * * * * * * * * * * * * * * * * * * * * * * * * * * * * * * * * * //

dimensions      [0 2 -2 0 0 0 0];

internalField   nonuniform List<scalar> 
25000
(
0.000130993
6.61538e-05
3.90682e-05
3.58148e-05
3.492e-05
3.49435e-05
3.54072e-05
3.61755e-05
3.98147e-05
4.2427e-05
6.57963e-05
4.11673e-05
3.36677e-05
3.21935e-05
3.19431e-05
3.23879e-05
3.35769e-05
3.55973e-05
3.91647e-05
4.09586e-05
3.80353e-05
3.31441e-05
3.09162e-05
3.0071e-05
2.98393e-05
3.01819e-05
3.11937e-05
3.2938e-05
3.56821e-05
3.71626e-05
3.51145e-05
3.17711e-05
2.99022e-05
2.8883e-05
2.8482e-05
2.87227e-05
2.9666e-05
3.13589e-05
3.38881e-05
3.63869e-05
3.45265e-05
3.15964e-05
2.96864e-05
2.84385e-05
2.78837e-05
2.80406e-05
2.894e-05
3.06089e-05
3.30248e-05
3.59648e-05
3.47453e-05
3.21641e-05
3.004e-05
2.86708e-05
2.80271e-05
2.81233e-05
2.89796e-05
3.06268e-05
3.30369e-05
3.59059e-05
3.5252e-05
3.33563e-05
3.10667e-05
2.95982e-05
2.89046e-05
2.89536e-05
2.9786e-05
3.14177e-05
3.39129e-05
3.621e-05
3.60869e-05
3.53799e-05
3.27885e-05
3.12735e-05
3.05396e-05
3.05709e-05
3.13871e-05
3.30185e-05
3.57167e-05
3.68547e-05
3.97802e-05
3.89924e-05
3.55709e-05
3.38009e-05
3.29541e-05
3.29711e-05
3.38571e-05
3.57044e-05
3.91754e-05
4.04223e-05
4.22964e-05
4.08216e-05
3.70557e-05
3.63107e-05
3.59259e-05
3.58866e-05
3.62241e-05
3.69005e-05
4.05129e-05
4.26231e-05
0.000157805
8.09475e-05
4.91966e-05
4.93945e-05
5.0571e-05
5.12328e-05
5.19303e-05
5.29966e-05
5.69591e-05
5.91233e-05
8.11199e-05
5.94542e-05
5.0199e-05
4.88017e-05
4.86007e-05
4.90878e-05
5.0037e-05
5.13051e-05
5.36305e-05
5.7377e-05
4.92564e-05
5.02683e-05
4.9185e-05
4.79112e-05
4.72923e-05
4.74861e-05
4.81554e-05
4.91224e-05
5.10799e-05
5.29877e-05
4.94832e-05
4.88425e-05
4.79428e-05
4.70465e-05
4.65129e-05
4.66212e-05
4.72348e-05
4.82789e-05
5.00784e-05
5.19473e-05
5.03954e-05
4.8522e-05
4.72777e-05
4.65138e-05
4.61337e-05
4.62272e-05
4.67916e-05
4.7852e-05
4.94543e-05
5.13902e-05
5.09008e-05
4.88909e-05
4.73783e-05
4.65657e-05
4.62064e-05
4.62924e-05
4.68287e-05
4.78722e-05
4.94775e-05
5.1348e-05
5.15193e-05
4.97489e-05
4.79642e-05
4.71246e-05
4.6731e-05
4.6803e-05
4.73535e-05
4.83461e-05
5.0135e-05
5.18228e-05
5.2548e-05
5.09145e-05
4.88785e-05
4.81252e-05
4.7746e-05
4.7818e-05
4.83303e-05
4.91949e-05
5.11522e-05
5.27603e-05
5.65497e-05
5.33146e-05
5.08907e-05
4.98915e-05
4.93293e-05
4.94056e-05
5.0111e-05
5.12043e-05
5.34858e-05
5.67603e-05
5.86672e-05
5.70205e-05
5.2636e-05
5.16745e-05
5.12414e-05
5.1323e-05
5.1899e-05
5.291e-05
5.69964e-05
5.89107e-05
9.94139e-05
4.81619e-05
4.09608e-05
4.43623e-05
4.64316e-05
4.65129e-05
4.71359e-05
4.85062e-05
5.06618e-05
5.50333e-05
4.83013e-05
4.60849e-05
4.30077e-05
4.4661e-05
4.43198e-05
4.43212e-05
4.48356e-05
4.5687e-05
4.64865e-05
5.05828e-05
4.05868e-05
4.29049e-05
4.43785e-05
4.30808e-05
4.25294e-05
4.25917e-05
4.30912e-05
4.38554e-05
4.51114e-05
4.7621e-05
4.40722e-05
4.43507e-05
4.29667e-05
4.18751e-05
4.14459e-05
4.158e-05
4.212e-05
4.29581e-05
4.43018e-05
4.61095e-05
4.5852e-05
4.38746e-05
4.2266e-05
4.13365e-05
4.0945e-05
4.10465e-05
4.15505e-05
4.24239e-05
4.37621e-05
4.54251e-05
4.5919e-05
4.38435e-05
4.2255e-05
4.13755e-05
4.09683e-05
4.10436e-05
4.15303e-05
4.24086e-05
4.37878e-05
4.54127e-05
4.6613e-05
4.44104e-05
4.27395e-05
4.18974e-05
4.14319e-05
4.14931e-05
4.20569e-05
4.29252e-05
4.43545e-05
4.60615e-05
4.80207e-05
4.52279e-05
4.3526e-05
4.27398e-05
4.22849e-05
4.23528e-05
4.29147e-05
4.37404e-05
4.51599e-05
4.74733e-05
5.01637e-05
4.61225e-05
4.48684e-05
4.4075e-05
4.36274e-05
4.37133e-05
4.43246e-05
4.52045e-05
4.61537e-05
4.98575e-05
5.41687e-05
4.99246e-05
4.70226e-05
4.57338e-05
4.52399e-05
4.53705e-05
4.61044e-05
4.75749e-05
5.00919e-05
5.42755e-05
4.39138e-05
3.71841e-05
3.05259e-05
3.41159e-05
3.51502e-05
3.44931e-05
3.51168e-05
3.63735e-05
3.6861e-05
4.22918e-05
3.6617e-05
2.90847e-05
3.20573e-05
3.44062e-05
3.25986e-05
3.19972e-05
3.21937e-05
3.29064e-05
3.29509e-05
3.62115e-05
3.00812e-05
3.1557e-05
3.36862e-05
3.10506e-05
3.02883e-05
3.00368e-05
3.03579e-05
3.11395e-05
3.20452e-05
3.46163e-05
3.3165e-05
3.35525e-05
3.06414e-05
2.92009e-05
2.87631e-05
2.87545e-05
2.91975e-05
3.00049e-05
3.11747e-05
3.31188e-05
3.41165e-05
3.17505e-05
2.96958e-05
2.84994e-05
2.79952e-05
2.80231e-05
2.84996e-05
2.93711e-05
3.07549e-05
3.26473e-05
3.36793e-05
3.13237e-05
2.9475e-05
2.83902e-05
2.78754e-05
2.79149e-05
2.84164e-05
2.93237e-05
3.07991e-05
3.27196e-05
3.44836e-05
3.16516e-05
2.98785e-05
2.88666e-05
2.83099e-05
2.83476e-05
2.89456e-05
2.98787e-05
3.12704e-05
3.32958e-05
3.60089e-05
3.24042e-05
3.0744e-05
2.97414e-05
2.91956e-05
2.92385e-05
2.98487e-05
3.08464e-05
3.21223e-05
3.4735e-05
3.65303e-05
3.2534e-05
3.17741e-05
3.0978e-05
3.0629e-05
3.06889e-05
3.11726e-05
3.20891e-05
3.25372e-05
3.56623e-05
4.11928e-05
3.51946e-05
3.38565e-05
3.27439e-05
3.24616e-05
3.26013e-05
3.31853e-05
3.4631e-05
3.57546e-05
4.11434e-05
3.84264e-05
3.98008e-05
2.4564e-05
2.87077e-05
2.69502e-05
2.57507e-05
2.64487e-05
2.74644e-05
2.73382e-05
3.26607e-05
4.05651e-05
2.10793e-05
2.78141e-05
2.69979e-05
2.39025e-05
2.31506e-05
2.32691e-05
2.39624e-05
2.39001e-05
2.64804e-05
2.48325e-05
2.72064e-05
2.62385e-05
2.2193e-05
2.14447e-05
2.10485e-05
2.13283e-05
2.22037e-05
2.29488e-05
2.53091e-05
2.75424e-05
2.6072e-05
2.17776e-05
2.01801e-05
1.96428e-05
1.94895e-05
1.99387e-05
2.087e-05
2.20482e-05
2.41184e-05
2.60544e-05
2.3153e-05
2.09144e-05
1.94332e-05
1.87115e-05
1.86254e-05
1.91562e-05
2.02009e-05
2.17597e-05
2.39222e-05
2.50581e-05
2.26397e-05
2.06368e-05
1.92622e-05
1.85532e-05
1.84996e-05
1.90646e-05
2.01639e-05
2.18599e-05
2.41089e-05
2.58466e-05
2.28686e-05
2.10288e-05
1.97874e-05
1.90888e-05
1.90496e-05
1.96615e-05
2.07689e-05
2.2313e-05
2.46254e-05
2.72643e-05
2.37084e-05
2.20585e-05
2.08323e-05
2.01911e-05
2.0164e-05
2.07594e-05
2.19548e-05
2.32987e-05
2.58959e-05
2.73854e-05
2.38852e-05
2.30764e-05
2.21984e-05
2.18543e-05
2.18417e-05
2.22128e-05
2.32128e-05
2.37999e-05
2.64175e-05
3.14042e-05
2.58297e-05
2.50158e-05
2.41348e-05
2.39406e-05
2.40178e-05
2.44156e-05
2.56486e-05
2.63591e-05
3.13628e-05
3.82432e-05
3.07529e-05
2.24772e-05
2.67417e-05
2.22113e-05
2.07898e-05
2.168e-05
2.26387e-05
2.24681e-05
2.61468e-05
3.25718e-05
2.16628e-05
2.71673e-05
2.2294e-05
1.93153e-05
1.88696e-05
1.9238e-05
2.00283e-05
2.00049e-05
2.15129e-05
2.22794e-05
2.68179e-05
2.16105e-05
1.74311e-05
1.72282e-05
1.7195e-05
1.7661e-05
1.85656e-05
1.90924e-05
2.05218e-05
2.61781e-05
2.19799e-05
1.73417e-05
1.59757e-05
1.56831e-05
1.57557e-05
1.63303e-05
1.73034e-05
1.83589e-05
1.98958e-05
2.2063e-05
1.91744e-05
1.71001e-05
1.56763e-05
1.50489e-05
1.50223e-05
1.56089e-05
1.66828e-05
1.81259e-05
1.99699e-05
2.06259e-05
1.87009e-05
1.70963e-05
1.57837e-05
1.50781e-05
1.49862e-05
1.55364e-05
1.66429e-05
1.82249e-05
2.0244e-05
2.13442e-05
1.89973e-05
1.75603e-05
1.63949e-05
1.57005e-05
1.55889e-05
1.6127e-05
1.72117e-05
1.8648e-05
2.06958e-05
2.26372e-05
1.98965e-05
1.85882e-05
1.74398e-05
1.6811e-05
1.67257e-05
1.72377e-05
1.83847e-05
1.96194e-05
2.16513e-05
2.29159e-05
2.02714e-05
1.94981e-05
1.86849e-05
1.83244e-05
1.82602e-05
1.85688e-05
1.95281e-05
2.02416e-05
2.20631e-05
2.5683e-05
2.15375e-05
2.09088e-05
2.03246e-05
2.01525e-05
2.0134e-05
2.03922e-05
2.12972e-05
2.19405e-05
2.55709e-05
2.97365e-05
2.5837e-05
3.02874e-05
2.7541e-05
2.02131e-05
1.85352e-05
1.94285e-05
2.06554e-05
2.07237e-05
2.30491e-05
2.5161e-05
2.90451e-05
2.65483e-05
1.97853e-05
1.7852e-05
1.73181e-05
1.79314e-05
1.8884e-05
1.88769e-05
1.97446e-05
2.89119e-05
2.63789e-05
1.86725e-05
1.59328e-05
1.60052e-05
1.63106e-05
1.69953e-05
1.7914e-05
1.82403e-05
1.89039e-05
2.75441e-05
2.02029e-05
1.62281e-05
1.4882e-05
1.49441e-05
1.53235e-05
1.60135e-05
1.69482e-05
1.77884e-05
1.87104e-05
2.06438e-05
1.83767e-05
1.6418e-05
1.51572e-05
1.48229e-05
1.49324e-05
1.55003e-05
1.64463e-05
1.75824e-05
1.89418e-05
1.89153e-05
1.75776e-05
1.6585e-05
1.55968e-05
1.50839e-05
1.50212e-05
1.54977e-05
1.64254e-05
1.76444e-05
1.92081e-05
1.94856e-05
1.79999e-05
1.71649e-05
1.62855e-05
1.57043e-05
1.55949e-05
1.603e-05
1.69176e-05
1.80253e-05
1.96055e-05
2.07322e-05
1.89616e-05
1.81465e-05
1.72359e-05
1.66779e-05
1.65753e-05
1.69819e-05
1.79307e-05
1.88913e-05
2.03642e-05
2.12863e-05
1.95647e-05
1.89535e-05
1.82618e-05
1.78607e-05
1.77458e-05
1.80031e-05
1.8813e-05
1.94776e-05
2.06893e-05
2.30577e-05
2.03038e-05
1.98836e-05
1.94879e-05
1.92445e-05
1.9137e-05
1.93046e-05
2.00083e-05
2.05924e-05
2.30376e-05
3.27801e-05
3.96983e-05
3.8494e-05
2.80307e-05
2.03387e-05
1.84321e-05
1.91473e-05
2.05936e-05
2.08986e-05
2.20109e-05
3.66909e-05
3.51858e-05
2.50738e-05
2.03676e-05
1.90528e-05
1.79154e-05
1.85694e-05
1.96657e-05
1.9769e-05
1.99868e-05
3.73657e-05
2.55833e-05
1.91335e-05
1.75181e-05
1.71083e-05
1.73603e-05
1.81289e-05
1.91235e-05
1.94549e-05
1.93727e-05
2.86519e-05
2.13427e-05
1.81315e-05
1.61546e-05
1.62642e-05
1.66917e-05
1.74097e-05
1.8373e-05
1.91756e-05
1.95651e-05
2.09951e-05
1.98764e-05
1.79674e-05
1.66798e-05
1.64217e-05
1.65209e-05
1.70537e-05
1.794e-05
1.88828e-05
1.98242e-05
1.93542e-05
1.84864e-05
1.7905e-05
1.71206e-05
1.67233e-05
1.6682e-05
1.71023e-05
1.78948e-05
1.88182e-05
1.99636e-05
1.98348e-05
1.89336e-05
1.84546e-05
1.77857e-05
1.72985e-05
1.72153e-05
1.75856e-05
1.829e-05
1.90912e-05
2.02582e-05
2.10128e-05
1.98947e-05
1.94037e-05
1.86684e-05
1.81671e-05
1.80626e-05
1.83819e-05
1.91091e-05
1.98096e-05
2.0869e-05
2.18517e-05
2.07542e-05
2.02284e-05
1.95569e-05
1.90776e-05
1.89104e-05
1.91079e-05
1.97487e-05
2.03053e-05
2.10282e-05
2.28344e-05
2.11473e-05
2.089e-05
2.0495e-05
2.00685e-05
1.9825e-05
1.99069e-05
2.0407e-05
2.08618e-05
2.23077e-05
4.34226e-05
4.94681e-05
3.96381e-05
2.71992e-05
2.13608e-05
1.92074e-05
1.95291e-05
2.10361e-05
2.17504e-05
2.23248e-05
4.63916e-05
3.48482e-05
2.35669e-05
2.21047e-05
2.03391e-05
1.87632e-05
1.92781e-05
2.04171e-05
2.0824e-05
2.07674e-05
3.92653e-05
2.45706e-05
2.1493e-05
1.9347e-05
1.83502e-05
1.84142e-05
1.9091e-05
2.01013e-05
2.06513e-05
2.03959e-05
2.74754e-05
2.3041e-05
2.01946e-05
1.77739e-05
1.77703e-05
1.8011e-05
1.86524e-05
1.96004e-05
2.0432e-05
2.07343e-05
2.13186e-05
2.09127e-05
1.94483e-05
1.83157e-05
1.80131e-05
1.80162e-05
1.84794e-05
1.92896e-05
2.0068e-05
2.074e-05
2.00031e-05
1.92448e-05
1.89768e-05
1.84491e-05
1.81893e-05
1.81927e-05
1.85771e-05
1.92273e-05
1.98675e-05
2.06312e-05
2.04493e-05
1.96671e-05
1.93634e-05
1.89123e-05
1.86185e-05
1.86334e-05
1.89643e-05
1.94825e-05
2.0023e-05
2.08773e-05
2.15048e-05
2.05467e-05
2.01785e-05
1.96454e-05
1.93046e-05
1.92848e-05
1.95591e-05
2.01064e-05
2.06374e-05
2.15163e-05
2.25792e-05
2.16411e-05
2.10836e-05
2.04228e-05
1.99674e-05
1.98463e-05
2.0074e-05
2.06433e-05
2.11512e-05
2.17614e-05
2.36277e-05
2.24888e-05
2.20532e-05
2.13591e-05
2.0693e-05
2.04068e-05
2.05793e-05
2.10906e-05
2.1538e-05
2.24956e-05
4.37961e-05
4.55221e-05
3.31651e-05
2.48804e-05
2.15646e-05
1.9711e-05
1.99548e-05
2.13871e-05
2.24406e-05
2.26745e-05
4.4177e-05
3.06823e-05
2.30511e-05
2.25229e-05
2.06962e-05
1.9523e-05
1.99135e-05
2.10546e-05
2.19015e-05
2.14251e-05
3.45193e-05
2.42084e-05
2.24843e-05
1.99257e-05
1.93356e-05
1.93752e-05
1.99597e-05
2.10032e-05
2.18909e-05
2.15777e-05
2.46225e-05
2.32453e-05
2.09443e-05
1.91211e-05
1.90798e-05
1.91544e-05
1.97504e-05
2.0691e-05
2.15934e-05
2.19386e-05
2.07062e-05
2.07648e-05
2.03003e-05
1.95636e-05
1.92886e-05
1.92743e-05
1.97135e-05
2.04244e-05
2.10189e-05
2.14662e-05
1.99982e-05
1.94968e-05
1.95293e-05
1.92856e-05
1.9279e-05
1.94319e-05
1.97962e-05
2.02713e-05
2.06193e-05
2.10401e-05
2.05599e-05
1.98997e-05
1.97576e-05
1.9563e-05
1.95477e-05
1.97186e-05
2.00442e-05
2.03955e-05
2.06944e-05
2.12702e-05
2.14479e-05
2.06393e-05
2.04824e-05
2.01677e-05
2.00078e-05
2.01076e-05
2.04287e-05
2.08803e-05
2.12831e-05
2.20055e-05
2.2693e-05
2.17775e-05
2.13746e-05
2.08022e-05
2.04019e-05
2.03882e-05
2.07549e-05
2.13718e-05
2.18507e-05
2.23583e-05
2.39406e-05
2.2985e-05
2.25071e-05
2.16691e-05
2.09241e-05
2.07039e-05
2.10559e-05
2.16266e-05
2.20362e-05
2.27328e-05
3.77024e-05
3.6126e-05
2.67217e-05
2.31183e-05
2.11592e-05
2.00272e-05
2.01067e-05
2.12976e-05
2.27551e-05
2.27883e-05
3.70844e-05
2.70058e-05
2.23912e-05
2.1329e-05
2.06113e-05
1.99835e-05
2.00122e-05
2.10361e-05
2.24399e-05
2.20271e-05
2.92915e-05
2.3677e-05
2.16397e-05
1.98897e-05
1.99222e-05
1.97226e-05
2.01154e-05
2.1191e-05
2.25197e-05
2.26843e-05
2.25689e-05
2.23483e-05
2.10294e-05
1.99346e-05
1.95416e-05
1.93739e-05
1.99459e-05
2.09396e-05
2.19929e-05
2.26851e-05
1.9948e-05
2.03121e-05
2.0514e-05
1.97919e-05
1.93895e-05
1.93626e-05
1.98329e-05
2.05342e-05
2.10891e-05
2.1523e-05
1.97145e-05
1.94168e-05
1.93491e-05
1.90581e-05
1.91316e-05
1.9399e-05
1.98149e-05
2.02501e-05
2.04843e-05
2.07551e-05
2.01172e-05
1.96223e-05
1.94866e-05
1.92924e-05
1.93328e-05
1.96033e-05
2.00206e-05
2.03818e-05
2.05649e-05
2.09532e-05
2.07253e-05
2.01714e-05
2.02087e-05
1.994e-05
1.97648e-05
1.99296e-05
2.04039e-05
2.0929e-05
2.12325e-05
2.17801e-05
2.20003e-05
2.12476e-05
2.1087e-05
2.05671e-05
2.0145e-05
2.01991e-05
2.07423e-05
2.14796e-05
2.19019e-05
2.23361e-05
2.34457e-05
2.25085e-05
2.21546e-05
2.13696e-05
2.06618e-05
2.05497e-05
2.10605e-05
2.17223e-05
2.20947e-05
2.27582e-05
2.75894e-05
2.6449e-05
2.2259e-05
2.11969e-05
2.07097e-05
2.0051e-05
1.98273e-05
2.07673e-05
2.25562e-05
2.26894e-05
2.9294e-05
2.46578e-05
2.09606e-05
2.00895e-05
2.06379e-05
2.00215e-05
1.96494e-05
2.05165e-05
2.26795e-05
2.28335e-05
2.53063e-05
2.28358e-05
2.06162e-05
2.00888e-05
2.0177e-05
1.95887e-05
1.9737e-05
2.07888e-05
2.27236e-05
2.39586e-05
2.13298e-05
2.15366e-05
2.10763e-05
2.0153e-05
1.9278e-05
1.89198e-05
1.94138e-05
2.04592e-05
2.18295e-05
2.32064e-05
1.95786e-05
2.00544e-05
2.02125e-05
1.91712e-05
1.86018e-05
1.8543e-05
1.90474e-05
1.98546e-05
2.06105e-05
2.12726e-05
1.95658e-05
1.91852e-05
1.87367e-05
1.81458e-05
1.80809e-05
1.8356e-05
1.8876e-05
1.94827e-05
1.98848e-05
2.02053e-05
1.96143e-05
1.92359e-05
1.89234e-05
1.84701e-05
1.8322e-05
1.8567e-05
1.91355e-05
1.97049e-05
1.99947e-05
2.03519e-05
1.99953e-05
1.96814e-05
1.97577e-05
1.93084e-05
1.8942e-05
1.90725e-05
1.96976e-05
2.04119e-05
2.0789e-05
2.12308e-05
2.12648e-05
2.07304e-05
2.0715e-05
2.00918e-05
1.95404e-05
1.95832e-05
2.0241e-05
2.11694e-05
2.168e-05
2.19315e-05
2.26627e-05
2.17282e-05
2.16023e-05
2.09397e-05
2.02471e-05
2.01739e-05
2.07648e-05
2.14863e-05
2.1787e-05
2.24434e-05
2.12474e-05
2.23754e-05
2.07611e-05
2.02395e-05
2.1172e-05
2.01352e-05
1.94572e-05
2.03355e-05
2.26546e-05
2.34658e-05
2.47687e-05
2.34609e-05
2.0518e-05
2.07339e-05
2.11298e-05
1.95301e-05
1.8827e-05
1.96838e-05
2.26337e-05
2.47292e-05
2.33192e-05
2.27888e-05
2.13769e-05
2.11245e-05
2.02546e-05
1.89573e-05
1.87406e-05
1.96834e-05
2.21269e-05
2.5351e-05
2.0886e-05
2.17471e-05
2.16346e-05
2.02046e-05
1.87524e-05
1.81498e-05
1.83351e-05
1.91989e-05
2.07945e-05
2.31312e-05
1.96705e-05
2.00349e-05
1.97044e-05
1.83001e-05
1.76335e-05
1.74648e-05
1.77662e-05
1.84797e-05
1.9417e-05
2.0472e-05
1.95697e-05
1.87376e-05
1.78141e-05
1.70198e-05
1.68228e-05
1.69765e-05
1.74306e-05
1.80949e-05
1.87109e-05
1.93204e-05
1.92366e-05
1.86003e-05
1.79807e-05
1.72834e-05
1.69356e-05
1.70703e-05
1.76549e-05
1.83688e-05
1.8918e-05
1.9579e-05
1.95363e-05
1.90959e-05
1.88821e-05
1.81696e-05
1.7616e-05
1.76681e-05
1.83226e-05
1.92157e-05
1.99254e-05
2.07062e-05
2.08312e-05
2.03291e-05
2.00829e-05
1.91683e-05
1.84593e-05
1.84523e-05
1.9161e-05
2.03626e-05
2.13537e-05
2.18097e-05
2.23867e-05
2.13903e-05
2.12089e-05
2.03356e-05
1.95289e-05
1.94692e-05
2.02071e-05
2.12828e-05
2.18544e-05
2.26219e-05
1.87473e-05
2.18275e-05
2.07891e-05
2.006e-05
2.16726e-05
2.00264e-05
1.89212e-05
1.98002e-05
2.29157e-05
2.53338e-05
2.23909e-05
2.26074e-05
2.06592e-05
2.19684e-05
2.16648e-05
1.87295e-05
1.7721e-05
1.87113e-05
2.21912e-05
2.71615e-05
2.20411e-05
2.2668e-05
2.24505e-05
2.23579e-05
2.05616e-05
1.81706e-05
1.74264e-05
1.83867e-05
2.09298e-05
2.61325e-05
2.0056e-05
2.16805e-05
2.22146e-05
2.06695e-05
1.87915e-05
1.76575e-05
1.72227e-05
1.77362e-05
1.92874e-05
2.21828e-05
1.92109e-05
1.98085e-05
1.94313e-05
1.80359e-05
1.73972e-05
1.69846e-05
1.67408e-05
1.69756e-05
1.78483e-05
1.92067e-05
1.93906e-05
1.82884e-05
1.7069e-05
1.63632e-05
1.6232e-05
1.62096e-05
1.63067e-05
1.66471e-05
1.7289e-05
1.83322e-05
1.91599e-05
1.79589e-05
1.70197e-05
1.6331e-05
1.59749e-05
1.59831e-05
1.6359e-05
1.69451e-05
1.77137e-05
1.88882e-05
1.95549e-05
1.86144e-05
1.7907e-05
1.70084e-05
1.63936e-05
1.63716e-05
1.69235e-05
1.786e-05
1.8952e-05
2.04025e-05
2.09499e-05
2.01785e-05
1.93329e-05
1.80491e-05
1.72322e-05
1.71924e-05
1.79068e-05
1.93357e-05
2.10201e-05
2.22231e-05
2.28134e-05
2.15608e-05
2.09696e-05
1.95781e-05
1.85944e-05
1.85705e-05
1.9505e-05
2.11502e-05
2.24761e-05
2.36492e-05
1.76349e-05
2.14927e-05
2.05705e-05
1.98221e-05
2.16568e-05
1.97536e-05
1.82128e-05
1.88629e-05
2.24975e-05
2.74138e-05
2.08175e-05
2.15735e-05
2.03709e-05
2.24572e-05
2.18338e-05
1.81753e-05
1.67933e-05
1.75789e-05
2.0825e-05
2.81198e-05
2.07367e-05
2.16834e-05
2.24778e-05
2.29838e-05
2.09537e-05
1.7599e-05
1.63289e-05
1.72568e-05
1.92265e-05
2.51486e-05
1.86929e-05
2.05443e-05
2.2078e-05
2.12589e-05
1.94212e-05
1.75182e-05
1.62375e-05
1.64139e-05
1.76403e-05
2.03179e-05
1.81616e-05
1.91371e-05
1.92169e-05
1.83583e-05
1.78949e-05
1.7009e-05
1.59356e-05
1.55603e-05
1.6293e-05
1.78759e-05
1.90084e-05
1.80496e-05
1.67898e-05
1.62617e-05
1.62331e-05
1.59656e-05
1.55523e-05
1.54436e-05
1.60663e-05
1.75116e-05
1.92639e-05
1.76406e-05
1.64846e-05
1.57858e-05
1.54268e-05
1.53522e-05
1.55138e-05
1.59326e-05
1.67704e-05
1.82409e-05
1.96707e-05
1.82266e-05
1.72014e-05
1.61506e-05
1.54729e-05
1.54431e-05
1.59626e-05
1.6868e-05
1.79677e-05
1.98682e-05
2.10753e-05
1.9851e-05
1.85035e-05
1.70367e-05
1.62042e-05
1.61889e-05
1.68812e-05
1.82164e-05
2.01376e-05
2.23247e-05
2.35886e-05
2.17163e-05
2.04648e-05
1.86853e-05
1.76875e-05
1.77088e-05
1.86235e-05
2.05334e-05
2.2733e-05
2.4996e-05
1.63272e-05
2.11664e-05
1.97626e-05
1.95705e-05
2.1651e-05
1.97477e-05
1.76534e-05
1.76374e-05
2.0782e-05
2.67846e-05
1.96468e-05
2.0609e-05
2.03215e-05
2.30489e-05
2.23038e-05
1.84774e-05
1.64156e-05
1.65644e-05
1.91238e-05
2.59572e-05
1.96732e-05
2.07412e-05
2.25408e-05
2.3601e-05
2.15877e-05
1.78112e-05
1.6018e-05
1.63247e-05
1.76196e-05
2.24417e-05
1.77657e-05
1.96815e-05
2.19432e-05
2.18235e-05
2.01287e-05
1.76209e-05
1.57141e-05
1.54807e-05
1.62365e-05
1.83913e-05
1.7507e-05
1.90559e-05
1.93923e-05
1.88324e-05
1.8363e-05
1.69831e-05
1.53597e-05
1.47679e-05
1.54389e-05
1.7025e-05
1.90271e-05
1.84967e-05
1.72884e-05
1.65682e-05
1.63014e-05
1.57857e-05
1.51559e-05
1.50104e-05
1.57072e-05
1.70925e-05
1.96682e-05
1.80149e-05
1.67587e-05
1.58246e-05
1.52325e-05
1.50894e-05
1.52594e-05
1.56667e-05
1.6431e-05
1.77991e-05
1.95987e-05
1.82763e-05
1.71436e-05
1.59834e-05
1.5225e-05
1.51851e-05
1.56763e-05
1.64155e-05
1.73113e-05
1.90864e-05
2.06015e-05
1.94835e-05
1.81161e-05
1.66835e-05
1.59567e-05
1.59193e-05
1.63923e-05
1.73999e-05
1.90709e-05
2.14418e-05
2.32412e-05
2.10884e-05
1.96771e-05
1.8121e-05
1.73112e-05
1.72825e-05
1.78858e-05
1.9416e-05
2.17915e-05
2.4747e-05
1.26833e-05
1.94356e-05
1.77344e-05
1.94806e-05
2.18092e-05
2.02761e-05
1.79793e-05
1.67258e-05
1.87432e-05
2.22023e-05
1.88332e-05
1.99642e-05
2.09316e-05
2.37364e-05
2.26306e-05
1.91003e-05
1.6991e-05
1.64884e-05
1.75446e-05
2.20373e-05
1.87286e-05
2.0162e-05
2.26658e-05
2.36985e-05
2.16151e-05
1.80604e-05
1.62101e-05
1.59727e-05
1.65358e-05
1.92364e-05
1.70884e-05
1.93048e-05
2.16199e-05
2.1523e-05
1.97636e-05
1.71696e-05
1.53743e-05
1.50274e-05
1.54309e-05
1.69876e-05
1.72838e-05
1.92332e-05
1.94301e-05
1.85448e-05
1.76709e-05
1.61361e-05
1.48286e-05
1.4674e-05
1.53946e-05
1.66842e-05
1.96214e-05
1.89655e-05
1.76543e-05
1.64928e-05
1.57001e-05
1.51084e-05
1.48311e-05
1.51335e-05
1.60611e-05
1.72938e-05
2.03994e-05
1.88394e-05
1.71459e-05
1.58444e-05
1.50083e-05
1.48575e-05
1.51912e-05
1.58218e-05
1.67975e-05
1.7974e-05
1.93826e-05
1.89905e-05
1.77072e-05
1.62392e-05
1.54323e-05
1.53684e-05
1.58219e-05
1.65924e-05
1.7398e-05
1.85154e-05
1.98107e-05
1.92957e-05
1.85045e-05
1.72085e-05
1.6504e-05
1.63694e-05
1.66245e-05
1.72923e-05
1.82994e-05
2.02252e-05
2.01835e-05
2.02539e-05
1.90456e-05
1.82148e-05
1.77695e-05
1.76264e-05
1.76931e-05
1.84192e-05
2.03976e-05
2.12473e-05
1.28583e-05
1.84078e-05
1.79488e-05
2.08856e-05
2.2379e-05
2.1615e-05
1.98609e-05
1.71702e-05
1.83999e-05
1.26378e-05
1.84804e-05
2.03611e-05
2.25292e-05
2.44325e-05
2.29774e-05
2.04529e-05
1.94436e-05
1.84462e-05
1.74228e-05
1.97757e-05
1.83396e-05
2.04364e-05
2.28965e-05
2.33894e-05
2.14341e-05
1.86201e-05
1.75132e-05
1.76452e-05
1.70822e-05
1.77026e-05
1.70494e-05
1.95718e-05
2.13764e-05
2.09032e-05
1.91039e-05
1.68829e-05
1.57825e-05
1.61092e-05
1.64258e-05
1.67056e-05
1.77779e-05
1.9613e-05
1.95107e-05
1.82004e-05
1.69149e-05
1.55609e-05
1.49954e-05
1.55698e-05
1.66124e-05
1.73275e-05
2.0898e-05
1.97422e-05
1.79906e-05
1.64754e-05
1.53807e-05
1.48552e-05
1.49716e-05
1.58259e-05
1.73794e-05
1.88603e-05
2.17418e-05
2.05169e-05
1.80832e-05
1.62083e-05
1.52451e-05
1.50814e-05
1.55854e-05
1.6784e-05
1.84604e-05
1.95186e-05
2.00158e-05
2.06446e-05
1.93946e-05
1.74347e-05
1.63403e-05
1.62249e-05
1.6916e-05
1.81416e-05
1.89206e-05
1.91558e-05
2.01393e-05
2.00188e-05
1.991e-05
1.89067e-05
1.81082e-05
1.79111e-05
1.82147e-05
1.85892e-05
1.88505e-05
2.02741e-05
1.33638e-05
2.04025e-05
1.92995e-05
1.92037e-05
1.93845e-05
1.92182e-05
1.86133e-05
1.85486e-05
2.02306e-05
1.33728e-05
3.76011e-05
2.07438e-05
2.25919e-05
2.35429e-05
2.24465e-05
2.22591e-05
2.19472e-05
1.91363e-05
1.92625e-05
2.70629e-05
1.87375e-05
2.22944e-05
2.37704e-05
2.36294e-05
2.20042e-05
2.10133e-05
2.14693e-05
2.04055e-05
1.82668e-05
1.99946e-05
1.87215e-05
2.06012e-05
2.15048e-05
2.1308e-05
2.01421e-05
1.86461e-05
1.86205e-05
1.92471e-05
1.78347e-05
1.80312e-05
1.76001e-05
1.89647e-05
1.96493e-05
1.92362e-05
1.80991e-05
1.66721e-05
1.64294e-05
1.75516e-05
1.77282e-05
1.71137e-05
1.82663e-05
1.88658e-05
1.85348e-05
1.74806e-05
1.64563e-05
1.55709e-05
1.55563e-05
1.66838e-05
1.80183e-05
1.82496e-05
2.12655e-05
1.97496e-05
1.78323e-05
1.64004e-05
1.55293e-05
1.51879e-05
1.54695e-05
1.66647e-05
1.87347e-05
2.05178e-05
2.23167e-05
2.11671e-05
1.87236e-05
1.67588e-05
1.58399e-05
1.5701e-05
1.62911e-05
1.77938e-05
1.98742e-05
2.13019e-05
2.12755e-05
2.13505e-05
2.01459e-05
1.84599e-05
1.74041e-05
1.72757e-05
1.80412e-05
1.93593e-05
2.02338e-05
2.07292e-05
2.13789e-05
2.11203e-05
2.05247e-05
1.98619e-05
1.94262e-05
1.93224e-05
1.95428e-05
1.97508e-05
2.0084e-05
2.11933e-05
2.74512e-05
2.15231e-05
2.03388e-05
2.0088e-05
2.05653e-05
2.05677e-05
1.98128e-05
1.96794e-05
2.10117e-05
2.68897e-05
9.96084e-05
2.73303e-05
2.81755e-05
2.45705e-05
2.07437e-05
2.09679e-05
2.30023e-05
2.23106e-05
2.04514e-05
8.97817e-05
2.06787e-05
2.44306e-05
2.36731e-05
2.16676e-05
1.98954e-05
2.00931e-05
2.16949e-05
2.1317e-05
1.97537e-05
1.96235e-05
2.00379e-05
2.04014e-05
1.97223e-05
1.89803e-05
1.87157e-05
1.84906e-05
1.89981e-05
1.95032e-05
1.82776e-05
1.9256e-05
1.84893e-05
1.82628e-05
1.77889e-05
1.77914e-05
1.7871e-05
1.73198e-05
1.73114e-05
1.82832e-05
1.8212e-05
1.79984e-05
1.8442e-05
1.78179e-05
1.74912e-05
1.73482e-05
1.72089e-05
1.67231e-05
1.67108e-05
1.7735e-05
1.87741e-05
1.87648e-05
2.04477e-05
1.90727e-05
1.79197e-05
1.7176e-05
1.68127e-05
1.65853e-05
1.67426e-05
1.7793e-05
1.95621e-05
2.11004e-05
2.21064e-05
2.0454e-05
1.88808e-05
1.77977e-05
1.73094e-05
1.71926e-05
1.75126e-05
1.85488e-05
2.03137e-05
2.23795e-05
2.31117e-05
2.1013e-05
1.95853e-05
1.88044e-05
1.85378e-05
1.84983e-05
1.87392e-05
1.95201e-05
2.072e-05
2.27606e-05
2.32049e-05
2.23849e-05
2.0366e-05
1.95995e-05
1.97094e-05
1.9814e-05
1.981e-05
2.02212e-05
2.15625e-05
2.20612e-05
8.96975e-05
2.28705e-05
2.19601e-05
2.05937e-05
2.04931e-05
2.061e-05
2.05597e-05
2.13389e-05
2.16261e-05
9.02205e-05
0.00022173
3.54909e-05
3.16184e-05
2.37475e-05
1.92785e-05
1.91856e-05
2.24885e-05
2.48486e-05
2.16958e-05
0.000213394
2.33004e-05
2.47002e-05
2.22899e-05
2.03314e-05
1.7903e-05
1.77317e-05
2.00537e-05
2.09281e-05
2.06878e-05
1.62585e-05
2.02562e-05
1.97223e-05
1.96061e-05
1.83232e-05
1.72164e-05
1.74222e-05
1.82926e-05
1.86604e-05
1.84668e-05
2.00456e-05
1.89368e-05
1.85522e-05
1.7453e-05
1.70492e-05
1.76776e-05
1.77609e-05
1.76687e-05
1.79241e-05
1.79292e-05
1.90648e-05
1.87113e-05
1.742e-05
1.68196e-05
1.73928e-05
1.82273e-05
1.81477e-05
1.78162e-05
1.80758e-05
1.84557e-05
1.88186e-05
1.92578e-05
1.80436e-05
1.77827e-05
1.80667e-05
1.84761e-05
1.84258e-05
1.82101e-05
1.85223e-05
1.93369e-05
2.02605e-05
2.08638e-05
1.90924e-05
1.84753e-05
1.84368e-05
1.87436e-05
1.87269e-05
1.84712e-05
1.86997e-05
1.97484e-05
2.18566e-05
2.35048e-05
2.01049e-05
1.88614e-05
1.84241e-05
1.88115e-05
1.88946e-05
1.85998e-05
1.89743e-05
2.02508e-05
2.35933e-05
2.36021e-05
2.2297e-05
1.99769e-05
1.89392e-05
1.88065e-05
1.8929e-05
1.90616e-05
1.98723e-05
2.19404e-05
2.20307e-05
0.00021396
2.28038e-05
2.25954e-05
2.04676e-05
1.95625e-05
1.95154e-05
2.0272e-05
2.20263e-05
2.08976e-05
0.000215665
0.000425383
3.95614e-05
2.7952e-05
2.0359e-05
1.98964e-05
1.91082e-05
2.0924e-05
2.4802e-05
2.83634e-05
0.000422817
2.83075e-05
2.2051e-05
2.03104e-05
2.05664e-05
1.81455e-05
1.68941e-05
1.91059e-05
2.05664e-05
2.05422e-05
2.01571e-05
1.79572e-05
1.8915e-05
2.09036e-05
1.96209e-05
1.67772e-05
1.68889e-05
1.85229e-05
1.89984e-05
1.89996e-05
1.92301e-05
1.87091e-05
1.94038e-05
1.87314e-05
1.75003e-05
1.76315e-05
1.81099e-05
1.82232e-05
1.80894e-05
1.82014e-05
1.95924e-05
1.90619e-05
1.82012e-05
1.73137e-05
1.79336e-05
1.92824e-05
1.9514e-05
1.88711e-05
1.832e-05
1.82399e-05
1.89453e-05
1.86917e-05
1.81271e-05
1.81816e-05
1.91081e-05
2.01806e-05
2.02847e-05
1.955e-05
1.89747e-05
1.89647e-05
1.92857e-05
1.91411e-05
1.87663e-05
1.87705e-05
1.91532e-05
1.99887e-05
2.00035e-05
1.92376e-05
1.8925e-05
1.92457e-05
2.03173e-05
2.12706e-05
1.93927e-05
1.9317e-05
1.86734e-05
1.89231e-05
1.89386e-05
1.8587e-05
1.89185e-05
1.9524e-05
2.20804e-05
2.89717e-05
2.05222e-05
1.9742e-05
1.90784e-05
1.83296e-05
1.82084e-05
1.86015e-05
1.93356e-05
2.08511e-05
2.78161e-05
0.000425246
2.67374e-05
2.0592e-05
1.96533e-05
1.90161e-05
1.8783e-05
1.93437e-05
2.04746e-05
2.57565e-05
0.000427474
0.000729776
6.14854e-05
2.01327e-05
1.79134e-05
2.17515e-05
2.00566e-05
1.87853e-05
2.15612e-05
5.85719e-05
0.000732953
5.84008e-05
1.83957e-05
1.85698e-05
2.05674e-05
1.94843e-05
1.79449e-05
1.88476e-05
1.98285e-05
1.88923e-05
5.4921e-05
1.52732e-05
1.78729e-05
2.06172e-05
1.99106e-05
1.68607e-05
1.70628e-05
1.9035e-05
1.93513e-05
1.87049e-05
1.61034e-05
1.75617e-05
1.88024e-05
1.89613e-05
1.76958e-05
1.71056e-05
1.7782e-05
1.84943e-05
1.8398e-05
1.81305e-05
1.82607e-05
1.79748e-05
1.82391e-05
1.78068e-05
1.81213e-05
1.91644e-05
1.95099e-05
1.90041e-05
1.82456e-05
1.7881e-05
1.80499e-05
1.74267e-05
1.79719e-05
1.83251e-05
1.93445e-05
2.04835e-05
2.05963e-05
1.96452e-05
1.85775e-05
1.80759e-05
1.78604e-05
1.67571e-05
1.77483e-05
1.83482e-05
1.91273e-05
2.00601e-05
2.00006e-05
1.90146e-05
1.83018e-05
1.79754e-05
1.77918e-05
1.6852e-05
1.7474e-05
1.82565e-05
1.81771e-05
1.84509e-05
1.83614e-05
1.79894e-05
1.79868e-05
1.78607e-05
1.78953e-05
6.05009e-05
1.71607e-05
1.78516e-05
1.79231e-05
1.75243e-05
1.73915e-05
1.75949e-05
1.78347e-05
1.8086e-05
5.94352e-05
0.000737481
5.84326e-05
1.57805e-05
1.722e-05
1.75216e-05
1.74088e-05
1.72907e-05
1.64518e-05
5.79584e-05
0.000738751
0.00113097
0.00012594
1.67701e-05
1.70943e-05
2.10421e-05
1.85341e-05
1.56519e-05
1.91288e-05
0.000127849
0.00114299
0.000126797
1.47556e-05
1.6337e-05
1.82827e-05
1.88837e-05
1.78195e-05
1.73211e-05
1.78188e-05
1.60506e-05
0.000127232
1.70129e-05
1.54979e-05
1.71193e-05
1.72403e-05
1.61754e-05
1.68592e-05
1.79865e-05
1.78051e-05
1.68455e-05
1.52832e-05
1.42546e-05
1.56871e-05
1.66063e-05
1.63585e-05
1.59572e-05
1.6776e-05
1.77169e-05
1.75294e-05
1.67056e-05
1.467e-05
1.52306e-05
1.6467e-05
1.71049e-05
1.7341e-05
1.76534e-05
1.79431e-05
1.79675e-05
1.74955e-05
1.67629e-05
1.5533e-05
1.5433e-05
1.68413e-05
1.77654e-05
1.84958e-05
1.90318e-05
1.9019e-05
1.83824e-05
1.74282e-05
1.65593e-05
1.54923e-05
1.44573e-05
1.57847e-05
1.7038e-05
1.82047e-05
1.88434e-05
1.86397e-05
1.77676e-05
1.67501e-05
1.58946e-05
1.47556e-05
1.81978e-05
1.46736e-05
1.55506e-05
1.66347e-05
1.7308e-05
1.71678e-05
1.65465e-05
1.5847e-05
1.54502e-05
1.75686e-05
0.000131837
1.39946e-05
1.47225e-05
1.5303e-05
1.58573e-05
1.59356e-05
1.5624e-05
1.54352e-05
1.47237e-05
0.000130389
0.00114952
0.000130908
1.62017e-05
1.35905e-05
1.45613e-05
1.47102e-05
1.41208e-05
1.6354e-05
0.000129597
0.00114807
0.00161554
0.000242028
3.51629e-05
1.77223e-05
1.66856e-05
1.40956e-05
1.36639e-05
3.33149e-05
0.000247005
0.00163641
0.000242033
1.42434e-05
1.43233e-05
1.49671e-05
1.6055e-05
1.54175e-05
1.49565e-05
1.59897e-05
1.59602e-05
0.000247022
3.31046e-05
1.33646e-05
1.35614e-05
1.38851e-05
1.48269e-05
1.54733e-05
1.54385e-05
1.57937e-05
1.59695e-05
3.3142e-05
1.50154e-05
1.45299e-05
1.47127e-05
1.46587e-05
1.47401e-05
1.53649e-05
1.58109e-05
1.59319e-05
1.61276e-05
1.58183e-05
1.8514e-05
1.71627e-05
1.65972e-05
1.59517e-05
1.54638e-05
1.55956e-05
1.6107e-05
1.63466e-05
1.63325e-05
1.59209e-05
1.84837e-05