/*--------------------------------*- C++ -*----------------------------------*\
| =========                 |                                                 |
| \\      /  F ield         | OpenFOAM: The Open Source CFD Toolbox           |
|  \\    /   O peration     | Version:  2406                                  |
|   \\  /    A nd           | Website:  www.openfoam.com                      |
|    \\/     M anipulation  |                                                 |
\*---------------------------------------------------------------------------*/
FoamFile
{
    version     2.0;
    format      ascii;
    arch        "LSB;label=32;scalar=64";
    class       volVectorField;
    location    "50";
    object      momentError;
}
// * * * * * * * * * * * * * * * * * * * * * * * * * * * * * * * * * * * * * //

dimensions      [0 1 -2 0 0 0 0];

internalField   nonuniform List<vector> 
25000
(
(0.0111073 0.0210748 0.000283383)
(0.00652266 0.0118121 -0.000619969)
(0.00994801 0.00655908 -2.80286e-05)
(0.00805659 0.00335058 -0.000109541)
(0.00613315 0.00159093 -0.00024484)
(0.00463969 0.000810729 -0.000335145)
(0.00359678 0.000431797 -0.000376693)
(0.00279108 0.000275525 -0.000400301)
(0.00220292 4.07714e-05 -0.000416141)
(0.0015129 0.000365281 -0.000420313)
(0.00475612 0.00922024 -0.00116496)
(0.0051661 0.010825 -0.000802634)
(0.00622266 0.00678596 -0.000444028)
(0.00560841 0.00398529 -0.000314415)
(0.00468244 0.00223159 -0.000312604)
(0.00380522 0.00126137 -0.000335192)
(0.00306969 0.000729544 -0.000355646)
(0.00245346 0.000464381 -0.000381097)
(0.00197553 0.000349436 -0.000410252)
(0.00146303 0.000399767 -0.000443166)
(0.00360242 0.00913808 -0.000205936)
(0.0032302 0.00786238 -0.000503218)
(0.00355415 0.00565433 -0.000440066)
(0.0036792 0.00373894 -0.000354065)
(0.00340595 0.00238871 -0.000322571)
(0.00297512 0.00151458 -0.000323357)
(0.00252576 0.00100382 -0.000332508)
(0.0021059 0.000712221 -0.000358865)
(0.00173546 0.000567881 -0.000398589)
(0.00146131 0.000539655 -0.000443944)
(0.00224205 0.0065909 -0.00015114)
(0.00191579 0.00568826 -0.0003252)
(0.00204395 0.00451204 -0.000337788)
(0.00232671 0.00330244 -0.00030836)
(0.00240747 0.00231439 -0.000293995)
(0.00228938 0.00160653 -0.000294914)
(0.0020649 0.00114498 -0.000306911)
(0.00178432 0.000852899 -0.000336235)
(0.0015266 0.000686092 -0.000379213)
(0.00136065 0.000602766 -0.000433598)
(0.00155338 0.0047487 -0.000139437)
(0.00111528 0.00413048 -0.000232483)
(0.0011924 0.00348251 -0.000255475)
(0.00149801 0.0027692 -0.000249296)
(0.00170203 0.00210873 -0.000254418)
(0.00174207 0.00157176 -0.000266961)
(0.00165809 0.00118828 -0.000283818)
(0.00151308 0.000919902 -0.000317596)
(0.00133526 0.000742174 -0.000365026)
(0.00121999 0.00062228 -0.000422117)
(0.000948217 0.00345617 -0.000147632)
(0.000729922 0.00307967 -0.000171283)
(0.000760678 0.00271437 -0.000181927)
(0.000993358 0.00230348 -0.000193958)
(0.00122118 0.0018655 -0.000212098)
(0.00133674 0.00148748 -0.000234132)
(0.00134846 0.00118803 -0.00025859)
(0.00126429 0.000951459 -0.000295912)
(0.00115657 0.000772586 -0.000343457)
(0.0010768 0.000636299 -0.000400483)
(0.000766676 0.00261806 -0.000115213)
(0.000503498 0.00235921 -0.000118979)
(0.000532238 0.00213625 -0.000129861)
(0.000721969 0.0018972 -0.000144652)
(0.000918787 0.00162621 -0.000174799)
(0.00105562 0.0013686 -0.000204475)
(0.00108914 0.00113785 -0.000233735)
(0.00106344 0.000945116 -0.000273719)
(0.00100041 0.00078219 -0.00032108)
(0.000925809 0.000632914 -0.000372045)
(0.000564555 0.00195366 -0.000101845)
(0.000434142 0.00174233 -9.29111e-05)
(0.000447209 0.00163347 -0.000102616)
(0.000579869 0.0014922 -0.000124384)
(0.000741754 0.00135398 -0.000160035)
(0.000852198 0.0011765 -0.000195022)
(0.000906737 0.00102994 -0.000228862)
(0.000887612 0.000876285 -0.000268634)
(0.000846837 0.000738603 -0.000311035)
(0.000761865 0.000591754 -0.00035395)
(0.000368495 0.00140139 -7.64751e-05)
(0.00039057 0.00119105 -8.2314e-05)
(0.000447284 0.00112664 -9.96995e-05)
(0.000547707 0.00110292 -0.000129627)
(0.000658876 0.00104086 -0.000170239)
(0.000740002 0.0009606 -0.000210676)
(0.000775284 0.000870859 -0.000243497)
(0.000753907 0.000772882 -0.000280086)
(0.000732439 0.00069199 -0.000313057)
(0.000641182 0.000567136 -0.000339743)
(0.000280485 0.000794289 -6.31852e-05)
(0.000410192 0.000701256 -8.22366e-05)
(0.000532124 0.000793436 -0.00011703)
(0.000596383 0.000828103 -0.000155663)
(0.000647356 0.000837834 -0.000205924)
(0.000684308 0.000793487 -0.000247908)
(0.000693877 0.000735071 -0.000279449)
(0.000663151 0.000654265 -0.000308515)
(0.000631989 0.000611435 -0.000326284)
(0.000434584 0.00042921 -0.000328711)
(0.0113347 0.0223083 0.0263511)
(-0.0143809 0.0187095 0.0240028)
(-0.00650195 0.0149224 0.017042)
(0.000776829 0.0122148 0.0133267)
(0.00518624 0.00886029 0.0107392)
(0.00638594 0.00677104 0.00894577)
(0.00642725 0.00457007 0.00770412)
(0.00569169 0.00307481 0.00689654)
(0.00439513 0.00144944 0.00641109)
(0.00242305 0.000691852 0.00612718)
(0.00169571 -0.00420046 0.0224577)
(-0.010995 0.00165204 0.0200682)
(-0.00460235 0.00674927 0.015784)
(0.000517627 0.00866042 0.0124309)
(0.00359575 0.00775547 0.010023)
(0.00487982 0.00635898 0.00833048)
(0.00483662 0.004929 0.00717113)
(0.00437601 0.00362477 0.00641997)
(0.00344586 0.00261228 0.00598733)
(0.0025851 0.00216958 0.00576874)
(0.00428354 -0.00312303 0.015503)
(-0.00482468 0.00295822 0.0151293)
(-0.00210799 0.00688541 0.0131346)
(0.000758951 0.00768407 0.0108546)
(0.00268257 0.00719799 0.00895674)
(0.00366508 0.00605849 0.00753948)
(0.00382121 0.00494861 0.00653819)
(0.00340553 0.00398039 0.00587836)
(0.00279428 0.00321288 0.00550481)
(0.00253889 0.00280715 0.00533581)
(0.00494978 0.000566588 0.0121316)
(-7.33448e-05 0.00434954 0.0116256)
(-0.00040583 0.00648669 0.0105096)
(0.000608562 0.0069948 0.00910771)
(0.00198324 0.00658021 0.00778464)
(0.00278224 0.00575615 0.00671309)
(0.00293645 0.00486526 0.00591325)
(0.00275304 0.00407264 0.00537671)
(0.00237272 0.00348761 0.00507875)
(0.00240164 0.00308462 0.00495193)
(0.00566895 0.00322099 0.00981983)
(0.00135578 0.00461597 0.0092335)
(0.000288832 0.00577832 0.00849173)
(0.000723003 0.00614705 0.00759637)
(0.00145194 0.00594361 0.00671011)
(0.00208402 0.00532872 0.00594441)
(0.0023118 0.00465159 0.0053526)
(0.00218392 0.00402928 0.00494743)
(0.00198445 0.00350795 0.00472573)
(0.00220428 0.00313302 0.00464708)
(0.00486136 0.00341075 0.00823997)
(0.00233516 0.00410467 0.00763888)
(0.000908074 0.00486171 0.00703538)
(0.000657305 0.0052301 0.0064304)
(0.00114499 0.00510485 0.00582892)
(0.00156833 0.00478424 0.00530232)
(0.00175469 0.00428349 0.00488275)
(0.00172679 0.00378597 0.00460072)
(0.00162262 0.0033762 0.00446549)
(0.00192412 0.00304228 0.00443648)
(0.00476866 0.00301465 0.00710722)
(0.00246114 0.0032664 0.00653054)
(0.00118139 0.00364544 0.00603065)
(0.000826483 0.0039577 0.00556704)
(0.000934401 0.00400802 0.00515432)
(0.00126066 0.00385683 0.00479132)
(0.00134292 0.00355279 0.00451811)
(0.00131142 0.00327897 0.00435024)
(0.00128914 0.00299973 0.00429474)
(0.00160988 0.0027957 0.00432094)
(0.00388495 0.00228602 0.00634279)
(0.00259698 0.00194118 0.00582005)
(0.00139769 0.0022374 0.00535582)
(0.000907612 0.00229284 0.00498776)
(0.000963941 0.00252153 0.00467982)
(0.00106898 0.00247182 0.00444093)
(0.00114284 0.00249715 0.00427973)
(0.00113137 0.00243056 0.00420436)
(0.00109539 0.00244441 0.00422641)
(0.00138778 0.00241592 0.00430046)
(0.00308154 0.0012466 0.0058278)
(0.00217493 0.00054728 0.00539202)
(0.00140851 0.000428831 0.00497422)
(0.0010562 0.00063597 0.00465598)
(0.00106526 0.000825895 0.00441665)
(0.00118247 0.00104976 0.00426338)
(0.00122808 0.00128821 0.00418103)
(0.00115713 0.00151531 0.00418786)
(0.00115818 0.00181086 0.00426303)
(0.00124115 0.00191005 0.00436888)
(0.00140605 -0.000135908 0.00546088)
(0.00164593 -0.000873824 0.00516239)
(0.00141518 -0.000732833 0.00479322)
(0.00127418 -0.000529986 0.00450873)
(0.00134372 -0.000171233 0.00432048)
(0.00148063 0.00013345 0.00422136)
(0.00152909 0.000518391 0.00420664)
(0.00153974 0.000946718 0.0042607)
(0.00136902 0.00141212 0.00436274)
(0.00109695 0.00143178 0.00444759)
(-0.00792358 -0.00850193 0.0211526)
(-0.0439502 -0.0126294 0.0144624)
(-0.0482774 -0.00734171 0.00998286)
(-0.0273736 -0.00192863 0.00892375)
(-0.0165918 -0.000251579 0.00809238)
(-0.0101237 0.00020234 0.00735286)
(-0.00579279 -5.71446e-05 0.00677967)
(-0.00294503 -0.000492068 0.0064421)
(-0.00117522 -0.00106886 0.00630424)
(-0.000653509 -0.00121884 0.00634955)
(-0.0109534 -0.0425413 0.0137141)
(-0.0383125 -0.0385472 0.0122187)
(-0.0334015 -0.0161025 0.0100763)
(-0.0229375 -0.00664226 0.00860729)
(-0.0149441 -0.00281614 0.00751842)
(-0.00943906 -0.00121149 0.00668134)
(-0.00573782 -0.000698637 0.00612082)
(-0.00310801 -0.00080593 0.00583784)
(-0.0013152 -0.0011547 0.00576757)
(-0.000382504 -0.00129651 0.00590286)
(-0.00871884 -0.0446938 0.00864704)
(-0.0168092 -0.0315754 0.00938039)
(-0.0188228 -0.0172311 0.00874614)
(-0.0159914 -0.00879579 0.00764987)
(-0.0117516 -0.00435388 0.00668032)
(-0.00796914 -0.00220444 0.00594409)
(-0.00509589 -0.00125704 0.00544682)
(-0.00302519 -0.000977642 0.00521943)
(-0.00138881 -0.00104963 0.00521244)
(-0.000261909 -0.00116138 0.00539744)
(-0.00426069 -0.0245941 0.00731722)
(-0.00824018 -0.0207986 0.0074555)
(-0.0105224 -0.0141315 0.00706729)
(-0.0103467 -0.00842651 0.00639133)
(-0.00845903 -0.00469529 0.00572051)
(-0.00624966 -0.00256335 0.00517447)
(-0.00430741 -0.00145263 0.0048099)
(-0.00265842 -0.000948914 0.00466215)
(-0.00130704 -0.000792636 0.00470279)
(-0.000176186 -0.00080187 0.00492446)
(-0.00239296 -0.0152657 0.00633862)
(-0.00460692 -0.0134959 0.00601728)
(-0.00617897 -0.0102256 0.00567988)
(-0.00656569 -0.00681499 0.00523185)
(-0.00591761 -0.00417434 0.00481213)
(-0.00469873 -0.00243938 0.00447299)
(-0.00340418 -0.00137833 0.00424584)
(-0.00226117 -0.000785903 0.00418921)
(-0.00115208 -0.000506818 0.00429274)
(-5.46411e-05 -0.000372307 0.00453916)
(-0.0015311 -0.00987608 0.00559277)
(-0.00274732 -0.00881745 0.00502257)
(-0.00379308 -0.00706187 0.00460715)
(-0.00430521 -0.00510013 0.00429798)
(-0.0040932 -0.00338856 0.00404759)
(-0.00345294 -0.00207317 0.0038655)
(-0.00264175 -0.00117924 0.00377106)
(-0.0017653 -0.000578959 0.00380731)
(-0.000877866 -0.000171601 0.00396548)
(9.06473e-05 8.37659e-05 0.00424617)
(-0.00113849 -0.00631584 0.00500146)
(-0.00187312 -0.0057264 0.00431522)
(-0.0025684 -0.00485191 0.00388938)
(-0.00292772 -0.00376655 0.00361158)
(-0.00288954 -0.00268708 0.003473)
(-0.00248436 -0.00174772 0.00340346)
(-0.0019155 -0.000978877 0.00341308)
(-0.00127149 -0.00035603 0.00353183)
(-0.000528288 0.000128028 0.00375106)
(0.000294525 0.000543341 0.0040539)
(-0.00113746 -0.00385776 0.00463411)
(-0.00155824 -0.00368441 0.00393707)
(-0.00200761 -0.00331476 0.00347918)
(-0.00218768 -0.00283723 0.00324193)
(-0.0020651 -0.00217902 0.00315294)
(-0.00173034 -0.00149328 0.00316033)
(-0.00125615 -0.000794878 0.00324814)
(-0.000692024 -0.000149792 0.00342845)
(-4.27907e-05 0.000468246 0.00368127)
(0.000601175 0.000963553 0.00399632)
(-0.00128707 -0.00214462 0.00438136)
(-0.00167912 -0.00218143 0.00377781)
(-0.0019241 -0.0022319 0.00336172)
(-0.00184308 -0.0020869 0.00315797)
(-0.00152812 -0.00172393 0.00310653)
(-0.00107304 -0.00117844 0.00316588)
(-0.000565137 -0.000514448 0.00329016)
(-3.53811e-05 0.000181746 0.00350358)
(0.000532638 0.00084539 0.00376242)
(0.000891641 0.00123332 0.00405539)
(-0.00130109 -0.00150056 0.0043108)
(-0.00192962 -0.0015926 0.00385223)
(-0.00206864 -0.00158106 0.0035179)
(-0.00170448 -0.00146871 0.00335091)
(-0.00111631 -0.00116854 0.00333885)
(-0.000468966 -0.000731095 0.00341713)
(0.000134533 -0.000170478 0.00356088)
(0.000651885 0.000440009 0.00376538)
(0.000966485 0.000964348 0.00399023)
(0.000820224 0.000976385 0.00422595)
(-0.00113422 -0.00234628 -0.00277683)
(-0.0214374 -0.00721871 -0.00708502)
(-0.0182329 -0.00416761 -0.00618487)
(-0.0066477 -0.00253006 -0.00379097)
(-0.00523281 -0.00265753 -0.00235439)
(-0.00396409 -0.00272309 -0.00157062)
(-0.00217963 -0.00275853 -0.00113877)
(-0.000503164 -0.00277047 -0.000892395)
(0.000774857 -0.00280535 -0.000713707)
(0.000698752 -0.00244188 -0.00034281)
(-0.00553836 -0.021393 -0.00734366)
(-0.0142534 -0.0146603 -0.0069642)
(-0.0115252 -0.00310274 -0.00528273)
(-0.00840337 -0.00260939 -0.00367185)
(-0.0064031 -0.0030171 -0.00269914)
(-0.00433496 -0.00306344 -0.00213385)
(-0.00227963 -0.0030732 -0.0017684)
(-0.000442857 -0.00317618 -0.00149332)
(0.00102463 -0.00333853 -0.00124613)
(0.00152258 -0.00320535 -0.000882003)
(-0.00307351 -0.0182574 -0.00699464)
(-0.00272237 -0.0118974 -0.00579624)
(-0.00671057 -0.0071092 -0.00451806)
(-0.00734446 -0.00515743 -0.00358609)
(-0.00596073 -0.00404408 -0.00297699)
(-0.00405387 -0.00335811 -0.00258522)
(-0.00214882 -0.00302467 -0.00229271)
(-0.000484827 -0.00298266 -0.00201101)
(0.000957852 -0.00312477 -0.00172783)
(0.00174619 -0.0032156 -0.00133828)
(-0.00233786 -0.00669322 -0.00514193)
(-0.00239342 -0.00880949 -0.00470179)
(-0.00478636 -0.00784524 -0.00413806)
(-0.00544959 -0.00595968 -0.00365838)
(-0.00463866 -0.00440097 -0.00328761)
(-0.00327314 -0.0033447 -0.00300085)
(-0.00180268 -0.00274626 -0.00273992)
(-0.000391191 -0.0025071 -0.00245755)
(0.000880313 -0.00249066 -0.00215423)
(0.00173794 -0.00259028 -0.00175001)
(-0.00308778 -0.0052639 -0.00402156)
(-0.00304102 -0.00684916 -0.00412171)
(-0.00374615 -0.00657775 -0.00398743)
(-0.00389619 -0.00530923 -0.00380203)
(-0.00334152 -0.00400879 -0.00358536)
(-0.00238181 -0.00300177 -0.0033542)
(-0.00127798 -0.00231367 -0.00310761)
(-0.000174518 -0.0019217 -0.0028188)
(0.00088598 -0.0017702 -0.00249473)
(0.0017076 -0.00174557 -0.0020871)
(-0.00361716 -0.00408177 -0.00339882)
(-0.00340533 -0.00484512 -0.00380154)
(-0.00320628 -0.00478038 -0.00394955)
(-0.00287589 -0.00406908 -0.00393834)
(-0.00232801 -0.00317931 -0.00381704)
(-0.0015798 -0.00236094 -0.0036225)
(-0.000726653 -0.00171316 -0.00337514)
(0.00015733 -0.00125421 -0.00307457)
(0.00103987 -0.000939333 -0.0027438)
(0.00174202 -0.000803856 -0.00232995)
(-0.00398846 -0.00260372 -0.00305567)
(-0.0036504 -0.00294959 -0.00362047)
(-0.00299612 -0.00300396 -0.00391216)
(-0.00230685 -0.00268427 -0.00400802)
(-0.00163127 -0.00214511 -0.00394169)
(-0.000919049 -0.00154261 -0.00376747)
(-0.000184225 -0.000969812 -0.00352066)
(0.000584716 -0.000456422 -0.00321728)
(0.00131007 -7.64425e-05 -0.00287797)
(0.00182998 0.000166646 -0.00247732)
(-0.00416707 -0.00126527 -0.00288923)
(-0.00384476 -0.00132883 -0.00349351)
(-0.00299958 -0.00141199 -0.00383554)
(-0.00203719 -0.00132107 -0.00396284)
(-0.00118359 -0.00101172 -0.00392218)
(-0.000397699 -0.000579737 -0.00376106)
(0.000359988 -6.48429e-05 -0.00352122)
(0.00104777 0.000421616 -0.00322149)
(0.00166641 0.000844947 -0.00290846)
(0.00199475 0.00108767 -0.00252962)
(-0.00413115 -0.000191741 -0.0028357)
(-0.00392482 4.49464e-05 -0.00340176)
(-0.00306564 7.16832e-07 -0.00370509)
(-0.00193096 1.00684e-05 -0.00380177)
(-0.000884917 0.000201843 -0.00375075)
(5.3203e-05 0.000545717 -0.00359309)
(0.000853069 0.000976646 -0.00336829)
(0.00153657 0.00140579 -0.00310438)
(0.00204962 0.00177093 -0.00282621)
(0.00206701 0.00178589 -0.00248733)
(-0.00341172 -1.39225e-06 -0.00259759)
(-0.00373888 0.000703769 -0.00317376)
(-0.00306657 0.00103044 -0.00339878)
(-0.00182941 0.00117832 -0.00343662)
(-0.000622267 0.00135268 -0.00335485)
(0.000425974 0.00157677 -0.00319798)
(0.00127374 0.00182378 -0.00300087)
(0.00188817 0.00204435 -0.00278089)
(0.00212847 0.00210181 -0.00255212)
(0.0015788 0.00161462 -0.00218172)
(-0.0091483 -0.0117102 -0.0114649)
(-0.00242728 -0.00868144 -0.0152926)
(0.00615295 -0.00260707 -0.0154414)
(0.0105434 -0.00205457 -0.0140428)
(0.00490639 -0.00330954 -0.0129414)
(0.00197245 -0.00381169 -0.012165)
(0.00113475 -0.00401628 -0.0116582)
(0.00111699 -0.00382728 -0.0114336)
(0.00164944 -0.00364827 -0.011369)
(0.00118691 -0.00291661 -0.0110005)
(-0.00616661 -0.00454002 -0.0156236)
(0.00564588 0.00312988 -0.0159301)
(0.0080048 0.00671968 -0.0151459)
(0.00496255 0.00101959 -0.0140962)
(0.00166927 -0.00243754 -0.0133086)
(0.000564219 -0.00397326 -0.0127139)
(0.000688978 -0.00460302 -0.0123106)
(0.00136376 -0.00474164 -0.012096)
(0.00223208 -0.00467817 -0.0119863)
(0.00248365 -0.00434957 -0.0117007)
(-0.000940667 0.00429777 -0.0160941)
(0.00895893 0.00555467 -0.0155773)
(0.00480896 0.00222641 -0.0148152)
(0.00135961 -0.00137123 -0.0141147)
(-0.000214179 -0.0030988 -0.0135521)
(-0.00035994 -0.00385277 -0.0131285)
(0.000339537 -0.00417485 -0.0128092)
(0.00122391 -0.00430108 -0.0125925)
(0.00220973 -0.00438882 -0.0124462)
(0.00274045 -0.00440764 -0.012153)
(-0.00099198 0.00924903 -0.0151098)
(0.00291555 0.00318139 -0.0149083)
(0.00107476 -0.000904828 -0.0145247)
(-0.00037621 -0.0027871 -0.0141308)
(-0.000848759 -0.0034486 -0.0137793)
(-0.000562074 -0.0035257 -0.0134775)
(0.000214578 -0.00347324 -0.0132185)
(0.0011767 -0.00345124 -0.0129987)
(0.0021056 -0.00343585 -0.0128112)
(0.00261352 -0.00352387 -0.0125101)
(-0.00257117 0.00431589 -0.0143793)
(-0.00109094 0.000514661 -0.014414)
(-0.00111839 -0.00195573 -0.014296)
(-0.0011708 -0.00298174 -0.0141365)
(-0.000960379 -0.00316985 -0.0139499)
(-0.000408226 -0.00297967 -0.0137471)
(0.000388421 -0.00270773 -0.0135251)
(0.00124387 -0.0025074 -0.0133041)
(0.00205416 -0.00241929 -0.0130947)
(0.00245432 -0.00242458 -0.0127746)
(-0.00359706 0.00156297 -0.0138996)
(-0.00312988 -0.000372337 -0.0140759)
(-0.00234051 -0.00180424 -0.0141206)
(-0.00156158 -0.0023819 -0.0141181)
(-0.000841604 -0.00241287 -0.0140446)
(-0.0001133 -0.0021343 -0.0139028)
(0.000666485 -0.00179848 -0.0137137)
(0.00144619 -0.00152584 -0.0134959)
(0.00213386 -0.00131044 -0.0132701)
(0.00236712 -0.00128999 -0.0129431)
(-0.00404403 0.000484655 -0.0135864)
(-0.00418733 -0.00033721 -0.013854)
(-0.00302581 -0.0010749 -0.0139988)
(-0.00173763 -0.00137558 -0.0140662)
(-0.000697749 -0.0013294 -0.0140489)
(0.000203536 -0.00107526 -0.0139471)
(0.000987238 -0.000751481 -0.0137776)
(0.00172514 -0.000423072 -0.0135706)
(0.00227932 -0.000230191 -0.0133491)
(0.00232591 -0.00018951 -0.0130253)
(-0.00421669 6.09814e-05 -0.0134623)
(-0.0045211 -3.3438e-05 -0.0137854)
(-0.00328038 -0.000203062 -0.0139369)
(-0.00176865 -0.000252987 -0.0140051)
(-0.000523334 -9.83121e-05 -0.0139933)
(0.000473363 0.000140128 -0.0139023)
(0.00133006 0.000457829 -0.0137517)
(0.00199268 0.000708156 -0.0135677)
(0.00243399 0.000872251 -0.0133698)
(0.0023699 0.000838313 -0.013057)
(-0.0041853 0.000122298 -0.0134707)
(-0.00441181 0.000517757 -0.013815)
(-0.00315359 0.000709136 -0.0139228)
(-0.00157474 0.000935112 -0.0139325)
(-0.000278797 0.00120291 -0.0138863)
(0.000786316 0.00149522 -0.0137857)
(0.00160363 0.00175769 -0.0136455)
(0.00222383 0.0019187 -0.0134936)
(0.00257984 0.00200219 -0.0133349)
(0.00230946 0.00174832 -0.0130289)
(-0.00365935 0.000239371 -0.0131871)
(-0.00393392 0.00120594 -0.0136753)
(-0.00273197 0.00179263 -0.0137438)
(-0.00116168 0.00208762 -0.013697)
(9.93318e-05 0.00230972 -0.0136061)
(0.0010745 0.00249278 -0.0134872)
(0.00180024 0.00260968 -0.0133532)
(0.00231087 0.00264356 -0.0132181)
(0.00244199 0.00249653 -0.0130682)
(0.00165109 0.00178599 -0.0126405)
(-0.00830154 -0.0126197 -0.0158546)
(0.0159766 -0.00395727 -0.0200752)
(0.0259067 0.00177101 -0.0225202)
(0.0248635 -0.000539424 -0.0232815)
(0.0146231 -0.00372469 -0.0234752)
(0.00834549 -0.00518762 -0.0234221)
(0.00464932 -0.00584305 -0.0233219)
(0.0024001 -0.00566376 -0.023361)
(0.00201395 -0.00528033 -0.0235277)
(0.00157755 -0.00421545 -0.0232894)
(-0.000752719 0.0115354 -0.0206102)
(0.0215337 0.0167958 -0.0220931)
(0.0228392 0.0138539 -0.0234261)
(0.0161398 0.00377923 -0.0240573)
(0.00960678 -0.00197576 -0.0242265)
(0.00585385 -0.0048548 -0.024153)
(0.00369052 -0.00616722 -0.0240733)
(0.00260827 -0.00637231 -0.0241248)
(0.00267846 -0.00609823 -0.0242863)
(0.00301434 -0.00574242 -0.0241627)
(0.00451961 0.021817 -0.0233954)
(0.0181499 0.0182898 -0.0238918)
(0.0141113 0.00934566 -0.0244933)
(0.00932517 0.00199105 -0.0248215)
(0.00586016 -0.00200379 -0.0248341)
(0.00380172 -0.00415926 -0.0247129)
(0.00282731 -0.00519039 -0.024619)
(0.00239696 -0.00546074 -0.024637)
(0.00267561 -0.005393 -0.02473)
(0.00308584 -0.00539112 -0.0246121)
(0.00279293 0.0214172 -0.0245757)
(0.00785388 0.0127451 -0.0248841)
(0.00655255 0.0053724 -0.0251974)
(0.00484409 0.00071727 -0.0253409)
(0.0034078 -0.00195094 -0.0253081)
(0.00252721 -0.00330255 -0.0251892)
(0.00221227 -0.00392735 -0.025086)
(0.0022693 -0.00410271 -0.025054)
(0.00260442 -0.00400594 -0.0250759)
(0.00277605 -0.00402125 -0.0249268)
(0.000239405 0.0121144 -0.0252913)
(0.00190948 0.0071324 -0.0254318)
(0.00210886 0.00291444 -0.0255358)
(0.00202923 5.23969e-05 -0.0256134)
(0.00182386 -0.001617 -0.0256055)
(0.00176449 -0.00243526 -0.0255301)
(0.00193545 -0.00275873 -0.0254383)
(0.00221357 -0.0028052 -0.025377)
(0.00257685 -0.00271548 -0.0253408)
(0.00252565 -0.00268772 -0.0251377)
(-0.00130447 0.00661412 -0.0256755)
(-0.00115516 0.00395662 -0.0257079)
(-0.000423744 0.00154249 -0.0257032)
(0.000355965 -9.38656e-05 -0.0257479)
(0.000923817 -0.00104922 -0.0257685)
(0.00136554 -0.00147711 -0.0257339)
(0.00181008 -0.00161938 -0.0256634)
(0.00227076 -0.00160702 -0.02559)
(0.00263061 -0.00149807 -0.0255159)
(0.00236695 -0.00152645 -0.0252831)
(-0.00215849 0.003501 -0.0258352)
(-0.00279667 0.00215821 -0.0258705)
(-0.00178309 0.000951409 -0.0258233)
(-0.000499598 0.000189007 -0.0258375)
(0.000457627 -0.00022909 -0.025858)
(0.00119597 -0.000403168 -0.0258401)
(0.00180926 -0.000435945 -0.0257815)
(0.00234461 -0.000403983 -0.0257073)
(0.00266553 -0.000410442 -0.0256267)
(0.00228308 -0.000520424 -0.025382)
(-0.00264148 0.00143988 -0.0259433)
(-0.00338456 0.0010599 -0.0260427)
(-0.00221359 0.00080722 -0.0259759)
(-0.000748347 0.000735069 -0.0259398)
(0.000351866 0.000762766 -0.0259292)
(0.00117023 0.000806091 -0.025898)
(0.00183717 0.000833242 -0.0258434)
(0.0023524 0.000779007 -0.0257848)
(0.00262871 0.000644325 -0.0257104)
(0.00229835 0.000412702 -0.0254591)
(-0.00294116 0.000581683 -0.0260786)
(-0.00324808 0.000811481 -0.0262513)
(-0.00193014 0.0011277 -0.0261435)
(-0.000450722 0.00153031 -0.026047)
(0.000557647 0.00187421 -0.0259852)
(0.00129178 0.00208717 -0.0259307)
(0.00183929 0.00214301 -0.0258701)
(0.00226705 0.00202057 -0.0258237)
(0.00251978 0.00180209 -0.0257825)
(0.00228565 0.00145656 -0.025505)
(-0.00284625 0.000825371 -0.0258074)
(-0.00278168 0.00172436 -0.026171)
(-0.00129613 0.00217354 -0.0260847)
(0.00015905 0.00243888 -0.0259667)
(0.000989734 0.00266068 -0.0258687)
(0.00148728 0.00281375 -0.0257898)
(0.00182313 0.00286101 -0.0257191)
(0.00211569 0.00278051 -0.0256559)
(0.00229272 0.00254236 -0.0255799)
(0.00171994 0.00180454 -0.025142)
(-0.00534038 -0.0104338 -0.0180172)
(0.0237079 0.000501046 -0.0228342)
(0.0311669 0.00344328 -0.0279633)
(0.0269323 -0.00165923 -0.0315554)
(0.0160313 -0.00592469 -0.033787)
(0.00969063 -0.00756591 -0.0350598)
(0.00549374 -0.00830409 -0.0357418)
(0.00235967 -0.00816075 -0.0362114)
(0.00174033 -0.00788276 -0.0366714)
(0.00254625 -0.00699495 -0.0366276)
(0.00413224 0.016789 -0.0233449)
(0.0248299 0.0180509 -0.0261991)
(0.0244417 0.0112385 -0.0301062)
(0.0177249 0.000509995 -0.0329962)
(0.0115281 -0.00467415 -0.0347203)
(0.00752746 -0.00702886 -0.0356634)
(0.00453252 -0.00817264 -0.0362283)
(0.0024347 -0.0082361 -0.0366963)
(0.00214256 -0.00780841 -0.0371951)
(0.00368274 -0.00770462 -0.0373125)
(0.00804655 0.0243773 -0.0285703)
(0.0176646 0.0178495 -0.0303592)
(0.0143454 0.00760704 -0.0327595)
(0.0111149 0.000154866 -0.0345676)
(0.00829133 -0.00368845 -0.0355924)
(0.00573857 -0.00577484 -0.0361507)
(0.00375766 -0.00675259 -0.0365336)
(0.00237066 -0.00685062 -0.036906)
(0.00220002 -0.00646761 -0.0373095)
(0.00330129 -0.00639753 -0.0374404)
(0.00518972 0.0205665 -0.0323003)
(0.00721321 0.0123007 -0.0333867)
(0.00677587 0.00546918 -0.0347024)
(0.00648806 0.000762443 -0.0357048)
(0.0055378 -0.00239317 -0.0362899)
(0.0042581 -0.00418761 -0.0366149)
(0.0031441 -0.00501532 -0.0368574)
(0.00241202 -0.00511144 -0.0371131)
(0.00236109 -0.00473731 -0.0373947)
(0.0028267 -0.00449218 -0.0374541)
(0.0025748 0.0107545 -0.0348628)
(0.00256709 0.0070561 -0.0353439)
(0.00287949 0.00381868 -0.0358816)
(0.00330348 0.000913815 -0.036393)
(0.00331518 -0.00134042 -0.0367514)
(0.00300809 -0.00275424 -0.0369745)
(0.00266238 -0.00342295 -0.0371416)
(0.00244588 -0.00353319 -0.037313)
(0.00256187 -0.00327768 -0.0374938)
(0.00259209 -0.00305412 -0.0374486)
(0.00121028 0.00603243 -0.0364337)
(0.00048461 0.00406584 -0.0365192)
(0.000753908 0.00224537 -0.036602)
(0.00140059 0.000647668 -0.0368207)
(0.0018799 -0.000682501 -0.0370458)
(0.00213882 -0.00155821 -0.0372168)
(0.00230405 -0.00201752 -0.0373488)
(0.00247762 -0.00213042 -0.0374741)
(0.00270215 -0.00201513 -0.0375906)
(0.0024369 -0.00198672 -0.0374872)
(0.000268385 0.00336959 -0.0372411)
(-0.00087084 0.00205507 -0.0371974)
(-0.000376598 0.00108125 -0.0370725)
(0.000463172 0.000427865 -0.0371219)
(0.00114 -0.000108151 -0.0372541)
(0.00167603 -0.000493145 -0.0373823)
(0.00209423 -0.000746917 -0.0374919)
(0.00245447 -0.000875917 -0.0375944)
(0.00269556 -0.000977421 -0.0376954)
(0.00232968 -0.00117165 -0.0375686)
(-0.000468357 0.0011123 -0.0376787)
(-0.00143957 0.000470404 -0.0376576)
(-0.000673506 0.000358829 -0.0374589)
(0.000308581 0.000466702 -0.0374082)
(0.000990668 0.000590633 -0.0374624)
(0.00151408 0.000564751 -0.0375466)
(0.00195376 0.000472719 -0.0376357)
(0.00230667 0.000243322 -0.0377432)
(0.00250718 -6.35904e-05 -0.0378416)
(0.00233423 -0.000386385 -0.037689)
(-0.00118377 6.69853e-05 -0.0379784)
(-0.00135475 -8.74212e-05 -0.0380607)
(-0.000170899 0.000315523 -0.0378248)
(0.00080554 0.000937858 -0.0377098)
(0.00127708 0.00142704 -0.0377009)
(0.00158508 0.00166173 -0.0377417)
(0.00183074 0.00165121 -0.0378203)
(0.00203153 0.00140923 -0.0379236)
(0.00226779 0.00110552 -0.038044)
(0.00247542 0.000878611 -0.0378365)
(-0.00170748 0.000659524 -0.0377766)
(-0.00106877 0.00119373 -0.0380826)
(0.000573969 0.00138333 -0.0379278)
(0.00159434 0.00159532 -0.0378188)
(0.00181092 0.00191558 -0.0377711)
(0.00179814 0.00215855 -0.0377843)
(0.00177517 0.0023207 -0.0378397)
(0.00191374 0.00239595 -0.0379004)
(0.00225078 0.00246334 -0.037947)
(0.00231683 0.00207521 -0.0375675)
(0.0017556 -0.00280978 -0.0211291)
(0.0227906 0.00647519 -0.026251)
(0.0233219 0.00486693 -0.0333768)
(0.0175979 -0.0021102 -0.0391324)
(0.00961475 -0.00593573 -0.0429314)
(0.00625952 -0.00680457 -0.0452113)
(0.00352708 -0.00712845 -0.0464962)
(0.000345115 -0.00688771 -0.0472821)
(-0.000304807 -0.0067264 -0.0479208)
(0.00189163 -0.00665046 -0.047963)
(0.00942858 0.0157448 -0.0263994)
(0.0185437 0.0117464 -0.0303655)
(0.0150066 0.0037458 -0.0361783)
(0.0107281 -0.00405967 -0.0407657)
(0.00772297 -0.00608938 -0.0437002)
(0.00558421 -0.00646021 -0.0454815)
(0.00305773 -0.00678782 -0.0465925)
(0.000455741 -0.00643447 -0.0473992)
(-0.000257393 -0.00571417 -0.048166)
(0.00252999 -0.00589288 -0.0484481)
(0.00980867 0.0167384 -0.0331204)
(0.0102112 0.00874615 -0.035967)
(0.00743924 0.00108299 -0.0396412)
(0.00750588 -0.00308378 -0.0425534)
(0.00702271 -0.00458295 -0.044445)
(0.0052003 -0.00534125 -0.0456631)
(0.00299527 -0.00564015 -0.046519)
(0.00091181 -0.00521573 -0.0472123)
(0.000171174 -0.00419097 -0.0478768)
(0.00193461 -0.00371876 -0.048213)
(0.00589528 0.0109755 -0.0385042)
(0.00292328 0.00540769 -0.04026)
(0.00325226 0.00226184 -0.0422627)
(0.00508789 -9.33568e-05 -0.0439263)
(0.00543053 -0.00224134 -0.0451068)
(0.00436544 -0.00360369 -0.0459406)
(0.00287041 -0.00414426 -0.0465725)
(0.00154614 -0.00386085 -0.0471062)
(0.00103434 -0.00288496 -0.0476305)
(0.00173489 -0.00198088 -0.0478855)
(0.00406106 0.00379287 -0.0421717)
(0.00189183 0.00308206 -0.0430599)
(0.00207367 0.00280244 -0.0439511)
(0.00306237 0.00134905 -0.0448474)
(0.00348863 -0.00055989 -0.0455981)
(0.00318965 -0.00199875 -0.0461866)
(0.00255784 -0.00267628 -0.0466597)
(0.00194465 -0.00265052 -0.0470686)
(0.00180084 -0.00205297 -0.0474622)
(0.00189139 -0.00135455 -0.0475953)
(0.00356279 0.00252317 -0.0444164)
(0.00209341 0.00225081 -0.0447862)
(0.00159485 0.00207992 -0.0450581)
(0.00179109 0.00132076 -0.0454953)
(0.00209086 0.000150204 -0.0459676)
(0.00220665 -0.000845657 -0.0463899)
(0.00215071 -0.00144076 -0.0467576)
(0.00207572 -0.00161015 -0.0470885)
(0.0021743 -0.00145542 -0.0474066)
(0.00194114 -0.00128065 -0.0474598)
(0.00305089 0.00201498 -0.045672)
(0.00163311 0.00125571 -0.0458231)
(0.00121901 0.000983538 -0.0457998)
(0.00120016 0.000794936 -0.0459821)
(0.00135026 0.000378622 -0.0462684)
(0.00159881 -0.000109659 -0.0465786)
(0.00179347 -0.000530371 -0.0468801)
(0.00192122 -0.000870203 -0.0471728)
(0.00208196 -0.00114666 -0.0474698)
(0.00184716 -0.00141243 -0.0474717)
(0.00234799 0.0003816 -0.0463601)
(0.00132857 -0.000332979 -0.0464924)
(0.00125983 -0.000168934 -0.046352)
(0.00125757 0.000246739 -0.0463909)
(0.00121171 0.000493579 -0.0465631)
(0.0013039 0.000416112 -0.0467959)
(0.0014065 9.9318e-05 -0.0470589)
(0.00148229 -0.000406524 -0.0473458)
(0.00165053 -0.000980548 -0.0476219)
(0.00178949 -0.00139266 -0.0475534)
(0.00138468 -0.000635516 -0.0467997)
(0.00136028 -0.0012491 -0.0470092)
(0.00196242 -0.00080268 -0.0468398)
(0.00194696 5.72937e-05 -0.0468085)
(0.00154946 0.000702962 -0.046914)
(0.00121546 0.000901316 -0.0470957)
(0.000995391 0.000688259 -0.047343)
(0.000891176 0.0002151 -0.0476037)
(0.00116876 -0.000252196 -0.0478753)
(0.00201991 -0.000330154 -0.0476894)
(9.74998e-05 0.000232079 -0.0466303)
(0.00130088 6.36582e-05 -0.0470579)
(0.00273875 -6.12564e-05 -0.0469982)
(0.00289926 0.000178574 -0.0470054)
(0.00213724 0.00062859 -0.0470822)
(0.00133443 0.000910404 -0.0472399)
(0.000774795 0.00104472 -0.0474453)
(0.000661827 0.00113901 -0.0476245)
(0.0012768 0.00137567 -0.0477666)
(0.00209418 0.00128201 -0.0473831)
(0.00530932 0.00365772 -0.0261708)
(0.0109709 0.00758942 -0.0312267)
(0.00452261 0.00200507 -0.0389405)
(0.000361824 -0.00442647 -0.0453365)