/*--------------------------------*- C++ -*----------------------------------*\
| =========                 |                                                 |
| \\      /  F ield         | OpenFOAM: The Open Source CFD Toolbox           |
|  \\    /   O peration     | Version:  2406                                  |
|   \\  /    A nd           | Website:  www.openfoam.com                      |
|    \\/     M anipulation  |                                                 |
\*---------------------------------------------------------------------------*/
FoamFile
{
    version     2.0;
    format      ascii;
    arch        "LSB;label=32;scalar=64";
    class       volScalarField;
    location    "50";
    object      nut;
}
// * * * * * * * * * * * * * * * * * * * * * * * * * * * * * * * * * * * * * //

dimensions      [0 2 -1 0 0 0 0];

internalField   nonuniform List<scalar> 
25000
(
5.88801e-06
5.92779e-06
5.95404e-06
5.96706e-06
5.97277e-06
5.97281e-06
5.96718e-06
5.95447e-06
5.93051e-06
5.88712e-06
5.92966e-06
5.96621e-06
5.98758e-06
5.99951e-06
6.00532e-06
6.0054e-06
5.99995e-06
5.99336e-06
5.96737e-06
5.92838e-06
5.95404e-06
5.99272e-06
6.01027e-06
6.01812e-06
6.02358e-06
6.02373e-06
6.01918e-06
6.01084e-06
5.98824e-06
5.95425e-06
5.96699e-06
5.99958e-06
6.01879e-06
6.02964e-06
6.03426e-06
6.03484e-06
6.02997e-06
6.01851e-06
5.99981e-06
5.9671e-06
5.97274e-06
6.00531e-06
6.02361e-06
6.0347e-06
6.04136e-06
6.04157e-06
6.03449e-06
6.02379e-06
6.00543e-06
5.97274e-06
5.9728e-06
6.00541e-06
6.02372e-06
6.03444e-06
6.04159e-06
6.04165e-06
6.03452e-06
6.02379e-06
6.00544e-06
5.97275e-06
5.9672e-06
5.99983e-06
6.01853e-06
6.03001e-06
6.03496e-06
6.03497e-06
6.03002e-06
6.01854e-06
5.99983e-06
5.96713e-06
5.95435e-06
5.98828e-06
6.01089e-06
6.01921e-06
6.02383e-06
6.02383e-06
6.01921e-06
6.01087e-06
5.98826e-06
5.95428e-06
5.92849e-06
5.96742e-06
5.99339e-06
5.99996e-06
6.00546e-06
6.00545e-06
5.99995e-06
5.99337e-06
5.96739e-06
5.92842e-06
5.88718e-06
5.93053e-06
5.95445e-06
5.96716e-06
5.97278e-06
5.97277e-06
5.96713e-06
5.95442e-06
5.93048e-06
5.88712e-06
5.52277e-06
5.64896e-06
5.72681e-06
5.76678e-06
5.78427e-06
5.78445e-06
5.76745e-06
5.72925e-06
5.65713e-06
5.52529e-06
5.65395e-06
5.76404e-06
5.82815e-06
5.86396e-06
5.88134e-06
5.88172e-06
5.86604e-06
5.84414e-06
5.76871e-06
5.65198e-06
5.7274e-06
5.84137e-06
5.89518e-06
5.91982e-06
5.93592e-06
5.93649e-06
5.92305e-06
5.8974e-06
5.83089e-06
5.72836e-06
5.76659e-06
5.86464e-06
5.92163e-06
5.95379e-06
5.96794e-06
5.9696e-06
5.95499e-06
5.92124e-06
5.86523e-06
5.76731e-06
5.78415e-06
5.88128e-06
5.93599e-06
5.96904e-06
5.98863e-06
5.9893e-06
5.96871e-06
5.93663e-06
5.88183e-06
5.78434e-06
5.78439e-06
5.88167e-06
5.93635e-06
5.96846e-06
5.98931e-06
5.98955e-06
5.96877e-06
5.93665e-06
5.88184e-06
5.78435e-06
5.76748e-06
5.86527e-06
5.92123e-06
5.95502e-06
5.96995e-06
5.97e-06
5.9551e-06
5.92129e-06
5.86526e-06
5.76733e-06
5.72854e-06
5.83099e-06
5.89748e-06
5.92314e-06
5.9368e-06
5.9368e-06
5.92313e-06
5.89744e-06
5.83091e-06
5.72838e-06
5.65213e-06
5.76882e-06
5.8442e-06
5.8661e-06
5.88192e-06
5.8819e-06
5.86605e-06
5.84412e-06
5.76871e-06
5.65199e-06
5.52533e-06
5.6572e-06
5.72927e-06
5.76744e-06
5.78446e-06
5.78443e-06
5.76737e-06
5.72917e-06
5.65709e-06
5.52527e-06
5.16977e-06
5.37904e-06
5.5047e-06
5.57058e-06
5.59953e-06
5.59985e-06
5.57175e-06
5.50885e-06
5.39012e-06
5.17381e-06
5.38637e-06
5.56764e-06
5.6723e-06
5.73085e-06
5.75922e-06
5.75988e-06
5.73466e-06
5.69604e-06
5.57439e-06
5.38284e-06
5.50632e-06
5.69173e-06
5.78147e-06
5.82325e-06
5.84935e-06
5.85035e-06
5.8283e-06
5.78499e-06
5.67661e-06
5.50707e-06
5.57047e-06
5.73241e-06
5.82602e-06
5.87879e-06
5.90241e-06
5.90495e-06
5.88072e-06
5.82554e-06
5.73296e-06
5.57155e-06
5.5994e-06
5.75916e-06
5.84951e-06
5.90401e-06
5.93593e-06
5.93703e-06
5.90367e-06
5.85056e-06
5.76009e-06
5.59977e-06
5.59975e-06
5.75974e-06
5.85e-06
5.90319e-06
5.93699e-06
5.93745e-06
5.90379e-06
5.85058e-06
5.7601e-06
5.59977e-06
5.57166e-06
5.73291e-06
5.82542e-06
5.88069e-06
5.90553e-06
5.90565e-06
5.88093e-06
5.82562e-06
5.73299e-06
5.57154e-06
5.50713e-06
5.67664e-06
5.78501e-06
5.82838e-06
5.85086e-06
5.8509e-06
5.82846e-06
5.78505e-06
5.67661e-06
5.50701e-06
5.38277e-06
5.57437e-06
5.69598e-06
5.73466e-06
5.7602e-06
5.7602e-06
5.73469e-06
5.69599e-06
5.57435e-06
5.38273e-06
5.17342e-06
5.3899e-06
5.50866e-06
5.57162e-06
5.59984e-06
5.59984e-06
5.57164e-06
5.5087e-06
5.38999e-06
5.17365e-06
4.83706e-06
5.12039e-06
5.28965e-06
5.37981e-06
5.41963e-06
5.42002e-06
5.38126e-06
5.29472e-06
5.13186e-06
4.83939e-06
5.12913e-06
5.37809e-06
5.52077e-06
5.6007e-06
5.63935e-06
5.64024e-06
5.60595e-06
5.5499e-06
5.38509e-06
5.12293e-06
5.29217e-06
5.54493e-06
5.66972e-06
5.72865e-06
5.7641e-06
5.76543e-06
5.73497e-06
5.67385e-06
5.52571e-06
5.29178e-06
5.37967e-06
5.60318e-06
5.73222e-06
5.80489e-06
5.83777e-06
5.8409e-06
5.80718e-06
5.73135e-06
5.60319e-06
5.38072e-06
5.41933e-06
5.63926e-06
5.76433e-06
5.83972e-06
5.8834e-06
5.88469e-06
5.83923e-06
5.76554e-06
5.64036e-06
5.41971e-06
5.41969e-06
5.63987e-06
5.76477e-06
5.83858e-06
5.88455e-06
5.88517e-06
5.83937e-06
5.76555e-06
5.64036e-06
5.41969e-06
5.3808e-06
5.60304e-06
5.7311e-06
5.80704e-06
5.84155e-06
5.84176e-06
5.80741e-06
5.73142e-06
5.60318e-06
5.38064e-06
5.29173e-06
5.52561e-06
5.67375e-06
5.73493e-06
5.76597e-06
5.76605e-06
5.73511e-06
5.67387e-06
5.52564e-06
5.29159e-06
5.12266e-06
5.38486e-06
5.54962e-06
5.60576e-06
5.6405e-06
5.64054e-06
5.60589e-06
5.54974e-06
5.38492e-06
5.12265e-06
4.83864e-06
5.13127e-06
5.29415e-06
5.3808e-06
5.41975e-06
5.41979e-06
5.3809e-06
5.29431e-06
5.13147e-06
4.83891e-06
4.52931e-06
4.87485e-06
5.08329e-06
5.19564e-06
5.24548e-06
5.24581e-06
5.19692e-06
5.08815e-06
4.88446e-06
4.52683e-06
4.88454e-06
5.1963e-06
5.37417e-06
5.4739e-06
5.52202e-06
5.52301e-06
5.48002e-06
5.40636e-06
5.20134e-06
4.87405e-06
5.08655e-06
5.40197e-06
5.56032e-06
5.63608e-06
5.68024e-06
5.68172e-06
5.64302e-06
5.56414e-06
5.37838e-06
5.08374e-06
5.19536e-06
5.47722e-06
5.64029e-06
5.73214e-06
5.77397e-06
5.7774e-06
5.73434e-06
5.63856e-06
5.47603e-06
5.19562e-06
5.24481e-06
5.52186e-06
5.68051e-06
5.77616e-06
5.831e-06
5.83225e-06
5.77527e-06
5.6815e-06
5.52273e-06
5.24478e-06
5.24502e-06
5.52226e-06
5.68067e-06
5.77457e-06
5.83198e-06
5.83267e-06
5.77538e-06
5.68147e-06
5.52268e-06
5.24471e-06
5.19579e-06
5.47578e-06
5.63819e-06
5.734e-06
5.77792e-06
5.77818e-06
5.73446e-06
5.63855e-06
5.47588e-06
5.19537e-06
5.08356e-06
5.37804e-06
5.56379e-06
5.64265e-06
5.68201e-06
5.68212e-06
5.64293e-06
5.56398e-06
5.37807e-06
5.08323e-06
4.87342e-06
5.20066e-06
5.40557e-06
5.47932e-06
5.52284e-06
5.52292e-06
5.47956e-06
5.4058e-06
5.20078e-06
4.87329e-06
4.52511e-06
4.88291e-06
5.08662e-06
5.19553e-06
5.24464e-06
5.24472e-06
5.19576e-06
5.08695e-06
4.88327e-06
4.52537e-06
4.24329e-06
4.64114e-06
4.88496e-06
5.01755e-06
5.07645e-06
5.07648e-06
5.01786e-06
4.88802e-06
4.6466e-06
4.23383e-06
4.6512e-06
5.02139e-06
5.23205e-06
5.35011e-06
5.40688e-06
5.40778e-06
5.35634e-06
5.26496e-06
5.02229e-06
4.63515e-06
4.88865e-06
5.26257e-06
5.45307e-06
5.54525e-06
5.59752e-06
5.59897e-06
5.55212e-06
5.45557e-06
5.23404e-06
4.88224e-06
5.01706e-06
5.35424e-06
5.55003e-06
5.66038e-06
5.71081e-06
5.71429e-06
5.662e-06
5.5469e-06
5.35112e-06
5.01579e-06
5.0755e-06
5.4067e-06
5.59788e-06
5.71321e-06
5.77866e-06
5.77966e-06
5.71164e-06
5.59826e-06
5.40696e-06
5.07467e-06
5.07542e-06
5.40671e-06
5.59758e-06
5.71107e-06
5.7793e-06
5.77991e-06
5.71168e-06
5.59819e-06
5.40687e-06
5.07457e-06
5.0163e-06
5.35092e-06
5.54648e-06
5.66152e-06
5.71457e-06
5.71483e-06
5.66196e-06
5.54678e-06
5.35086e-06
5.01544e-06
4.88233e-06
5.23366e-06
5.45507e-06
5.55145e-06
5.59889e-06
5.59903e-06
5.55176e-06
5.45521e-06
5.23353e-06
4.88155e-06
4.63472e-06
5.02148e-06
5.26387e-06
5.3552e-06
5.40712e-06
5.40721e-06
5.35547e-06
5.26404e-06
5.02141e-06
4.63409e-06
4.23224e-06
4.64483e-06
4.88601e-06
5.01582e-06
5.07448e-06
5.07456e-06
5.016e-06
4.88619e-06
4.64481e-06
4.23167e-06
3.97401e-06
4.41722e-06
4.69337e-06
4.84465e-06
4.91192e-06
4.91157e-06
4.84374e-06
4.69425e-06
4.41868e-06
3.96007e-06
4.42797e-06
4.85265e-06
5.09413e-06
5.22921e-06
5.29384e-06
5.29444e-06
5.23472e-06
5.12571e-06
4.84789e-06
4.40642e-06
4.69788e-06
5.12671e-06
5.34805e-06
5.45615e-06
5.51594e-06
5.51712e-06
5.46214e-06
5.34806e-06
5.09251e-06
4.68715e-06
4.84435e-06
5.23415e-06
5.46143e-06
5.58962e-06
5.64831e-06
5.65154e-06
5.59009e-06
5.45617e-06
5.22824e-06
4.84087e-06
4.91099e-06
5.29371e-06
5.51641e-06
5.65087e-06
5.72641e-06
5.72693e-06
5.64822e-06
5.51568e-06
5.29283e-06
4.90894e-06
4.91047e-06
5.29307e-06
5.5154e-06
5.64798e-06
5.72648e-06
5.72685e-06
5.64814e-06
5.51554e-06
5.29268e-06
4.90877e-06
4.84185e-06
5.22819e-06
5.45577e-06
5.58945e-06
5.65137e-06
5.65158e-06
5.58976e-06
5.45587e-06
5.22781e-06
4.84032e-06
4.68745e-06
5.09205e-06
5.34734e-06
5.46107e-06
5.51641e-06
5.51654e-06
5.46138e-06
5.34739e-06
5.0917e-06
4.68611e-06
4.40589e-06
4.84675e-06
5.12416e-06
5.23299e-06
5.29302e-06
5.29312e-06
5.2333e-06
5.12429e-06
4.84651e-06
4.40479e-06
3.95771e-06
4.41621e-06
4.69144e-06
4.84085e-06
4.90859e-06
4.90868e-06
4.84107e-06
4.69163e-06
4.4161e-06
3.95695e-06
3.71846e-06
4.20128e-06
4.50715e-06
4.6758e-06
4.75079e-06
4.74989e-06
4.67317e-06
4.50509e-06
4.19864e-06
3.70207e-06
4.21209e-06
4.68809e-06
4.95923e-06
5.11046e-06
5.18231e-06
5.1824e-06
5.11449e-06
4.98784e-06
4.67701e-06
4.18622e-06
4.51187e-06
4.99315e-06
5.24462e-06
5.36835e-06
5.4352e-06
5.43587e-06
5.37276e-06
5.24124e-06
4.95308e-06
4.49721e-06
4.67538e-06
5.11608e-06
5.37404e-06
5.51962e-06
5.58629e-06
5.58903e-06
5.51846e-06
5.36614e-06
5.10697e-06
4.66993e-06
4.7497e-06
5.18221e-06
5.43575e-06
5.58896e-06
5.67419e-06
5.67407e-06
5.58497e-06
5.43361e-06
5.18006e-06
4.74685e-06
4.74866e-06
5.18075e-06
5.43385e-06
5.5852e-06
5.67356e-06
5.67357e-06
5.58473e-06
5.43342e-06
5.17989e-06
4.74667e-06
4.67092e-06
5.10698e-06
5.36577e-06
5.5177e-06
5.58831e-06
5.58844e-06
5.51784e-06
5.36571e-06
5.10647e-06
4.66938e-06
4.49743e-06
4.95252e-06
5.24034e-06
5.37137e-06
5.43449e-06
5.43462e-06
5.37167e-06
5.24041e-06
4.9522e-06
4.49623e-06
4.18542e-06
4.67566e-06
4.98605e-06
5.11243e-06
5.18034e-06
5.18045e-06
5.11276e-06
4.98627e-06
4.67554e-06
4.18463e-06
3.69928e-06
4.19606e-06
4.50212e-06
4.67001e-06
4.74643e-06
4.74653e-06
4.6703e-06
4.50246e-06
4.19623e-06
3.69923e-06
3.47922e-06
3.99412e-06
4.32647e-06
4.51116e-06
4.59333e-06
4.59192e-06
4.5069e-06
4.32176e-06
3.98838e-06
3.46264e-06
4.00506e-06
4.52779e-06
4.82733e-06
4.99394e-06
5.07247e-06
5.07187e-06
4.99591e-06
4.85189e-06
4.51034e-06
3.97598e-06
4.33159e-06
4.86215e-06
5.14287e-06
5.28189e-06
5.35539e-06
5.35534e-06
5.28409e-06
5.1353e-06
4.81604e-06
4.31325e-06
4.51083e-06
5.00017e-06
5.28794e-06
5.45044e-06
5.52479e-06
5.52681e-06
5.44717e-06
5.27684e-06
4.98739e-06
4.50333e-06
4.59226e-06
5.07243e-06
5.35603e-06
5.52754e-06
5.62205e-06
5.62112e-06
5.52188e-06
5.35207e-06
5.06866e-06
4.58852e-06
4.59069e-06
5.06999e-06
5.35308e-06
5.5228e-06
5.6206e-06
5.6201e-06
5.52145e-06
5.3518e-06
5.06844e-06
4.58831e-06
4.50441e-06
4.98755e-06
5.27659e-06
5.44634e-06
5.52542e-06
5.52538e-06
5.44617e-06
5.27622e-06
4.98679e-06
4.50271e-06
4.31341e-06
4.8154e-06
5.13427e-06
5.28237e-06
5.35311e-06
5.35321e-06
5.28258e-06
5.13426e-06
4.81503e-06
4.31219e-06
3.9749e-06
4.50876e-06
4.84986e-06
4.99347e-06
5.06903e-06
5.06915e-06
4.99381e-06
4.85011e-06
4.50873e-06
3.97425e-06
3.45942e-06
3.98566e-06
4.31859e-06
4.50347e-06
4.58798e-06
4.58809e-06
4.5038e-06
4.31904e-06
3.98604e-06
3.4599e-06
3.25762e-06
3.79488e-06
4.15037e-06
4.35002e-06
4.43906e-06
4.43726e-06
4.34455e-06
4.14381e-06
3.78744e-06
3.24213e-06
3.80582e-06
4.37011e-06
4.69712e-06
4.8788e-06
4.9638e-06
4.9625e-06
4.87867e-06
4.71759e-06
4.34751e-06
3.77537e-06
4.15594e-06
4.73251e-06
5.04194e-06
5.19618e-06
5.27615e-06
5.27531e-06
5.19598e-06
5.03015e-06
4.68114e-06
4.135e-06
4.35004e-06
4.88575e-06
5.20262e-06
5.38169e-06
5.46354e-06
5.46476e-06
5.37618e-06
5.1882e-06
4.86938e-06
4.34096e-06
4.43831e-06
4.96405e-06
5.27702e-06
5.46644e-06
5.56988e-06
5.5681e-06
5.45899e-06
5.27106e-06
4.95859e-06
4.4339e-06
4.43641e-06
4.9607e-06
5.27302e-06
5.46074e-06
5.56766e-06
5.56656e-06
5.45836e-06
5.27075e-06
4.95836e-06
4.4337e-06
4.34235e-06
4.86991e-06
5.18828e-06
5.37546e-06
5.4628e-06
5.46254e-06
5.37485e-06
5.18746e-06
4.86876e-06
4.3404e-06
4.1357e-06
4.68082e-06
5.02928e-06
5.19419e-06
5.27241e-06
5.27242e-06
5.1942e-06
5.02903e-06
4.68018e-06
4.13413e-06
3.77505e-06
4.3464e-06
4.71586e-06
4.87627e-06
4.95923e-06
4.95929e-06
4.87647e-06
4.71588e-06
4.34607e-06
3.77392e-06
3.24033e-06
3.78575e-06
4.14131e-06
4.34155e-06
4.43352e-06
4.43357e-06
4.34173e-06
4.14147e-06
3.78569e-06
3.2401e-06
3.05775e-06
3.60486e-06
3.97932e-06
4.19274e-06
4.28842e-06
4.28651e-06
4.18695e-06
3.97254e-06
3.59788e-06
3.045e-06
3.61616e-06
4.21518e-06
4.5683e-06
4.76486e-06
4.85632e-06
4.85446e-06
4.76305e-06
4.58554e-06
4.18944e-06
3.58636e-06
3.98586e-06
4.60418e-06
4.94151e-06
5.11096e-06
5.19738e-06
5.19583e-06
5.1086e-06
4.92609e-06
4.5489e-06
3.96376e-06
4.19356e-06
4.77268e-06
5.11786e-06
5.3132e-06
5.40245e-06
5.4029e-06
5.30559e-06
5.10041e-06
4.75326e-06
4.1837e-06
4.28826e-06
4.85704e-06
5.19861e-06
5.40555e-06
5.51764e-06
5.51505e-06
5.39638e-06
5.19076e-06
4.85012e-06
4.28371e-06
4.28616e-06
4.85288e-06
5.19366e-06
5.39901e-06
5.51477e-06
5.51308e-06
5.39561e-06
5.19042e-06
4.84989e-06
4.28353e-06
4.18513e-06
4.75412e-06
5.10086e-06
5.30508e-06
5.40052e-06
5.40004e-06
5.30403e-06
5.09962e-06
4.75269e-06
4.18325e-06
3.96482e-06
4.54892e-06
4.92549e-06
5.1069e-06
5.19247e-06
5.19239e-06
5.10671e-06
4.92502e-06
4.5481e-06
3.96316e-06
3.58675e-06
4.18893e-06
4.58431e-06
4.76095e-06
4.85108e-06
4.85109e-06
4.76102e-06
4.58415e-06
4.18839e-06
3.58534e-06
3.04478e-06
3.59742e-06
3.97093e-06
4.18473e-06
4.28347e-06
4.2835e-06
4.18482e-06
3.97093e-06
3.59707e-06
3.04403e-06
2.88563e-06
3.42609e-06
3.81427e-06
4.03995e-06
4.14192e-06
4.14013e-06
4.03459e-06
3.80858e-06
3.42111e-06
2.87643e-06
3.43742e-06
4.06298e-06
4.44057e-06
4.65191e-06
4.74997e-06
4.74776e-06
4.64915e-06
4.45596e-06
4.03644e-06
3.41013e-06
3.8216e-06
4.47676e-06
4.8412e-06
5.02594e-06
5.11896e-06
5.11687e-06
5.02199e-06
4.82325e-06
4.41943e-06
3.79993e-06
4.04142e-06
4.66059e-06
5.0333e-06
5.24472e-06
5.34138e-06
5.34121e-06
5.23545e-06
5.01354e-06
4.63912e-06
4.03178e-06
4.14211e-06
4.75118e-06
5.12059e-06
5.34469e-06
5.46526e-06
5.46201e-06
5.33415e-06
5.11125e-06
4.74332e-06
4.13812e-06
4.13996e-06
4.74638e-06
5.11487e-06
5.33752e-06
5.46192e-06
5.45975e-06
5.33329e-06
5.11091e-06
4.74312e-06
4.138e-06
4.03278e-06
4.64007e-06
5.01427e-06
5.23522e-06
5.33864e-06
5.33797e-06
5.23383e-06
5.0128e-06
4.63869e-06
4.03158e-06
3.80092e-06
4.41964e-06
4.82291e-06
5.02054e-06
5.11336e-06
5.11322e-06
5.02022e-06
4.82241e-06
4.41897e-06
3.79982e-06
3.41091e-06
4.0365e-06
4.45532e-06
4.6476e-06
4.74467e-06
4.74466e-06
4.64761e-06
4.45516e-06
4.03606e-06
3.40987e-06
2.87749e-06
3.42186e-06
3.80797e-06
4.03339e-06
4.1382e-06
4.13823e-06
4.0335e-06
3.80801e-06
3.42153e-06
2.87684e-06
2.74979e-06
3.26121e-06
3.65628e-06
3.89218e-06
3.99993e-06
3.99847e-06
3.88791e-06
3.65279e-06
3.25936e-06
2.74447e-06
3.27248e-06
3.91424e-06
4.31401e-06
4.53988e-06
4.64471e-06
4.64244e-06
4.53704e-06
4.32908e-06
3.88909e-06
3.24891e-06
3.66454e-06
4.35046e-06
4.74084e-06
4.94094e-06
5.04076e-06
5.0384e-06
4.93617e-06
4.72173e-06
4.29297e-06
3.64451e-06
3.89454e-06
4.54955e-06
4.94882e-06
5.17612e-06
5.28023e-06
5.27966e-06
5.16581e-06
4.92766e-06
4.52711e-06
3.88584e-06
4.00069e-06
4.64656e-06
5.04291e-06
5.28381e-06
5.41269e-06
5.40898e-06
5.27232e-06
5.03261e-06
4.63833e-06
3.99766e-06
3.99862e-06
4.64139e-06
5.0367e-06
5.27628e-06
5.40915e-06
5.40662e-06
5.27147e-06
5.03231e-06
4.6382e-06
3.99763e-06
3.88625e-06
4.52799e-06
4.92861e-06
5.16591e-06
5.27721e-06
5.2764e-06
5.16431e-06
4.92707e-06
4.52689e-06
3.88597e-06
3.6453e-06
4.29332e-06
4.72172e-06
4.93517e-06
5.03515e-06
5.03496e-06
4.93478e-06
4.7213e-06
4.29299e-06
3.64503e-06
3.25002e-06
3.88978e-06
4.3292e-06
4.53631e-06
4.64007e-06
4.64005e-06
4.5363e-06
4.32913e-06
3.88958e-06
3.2496e-06
2.74652e-06
3.26129e-06
3.65331e-06
3.88797e-06
3.998e-06
3.99804e-06
3.88814e-06
3.65347e-06
3.26111e-06
2.74614e-06
2.6671e-06
3.11496e-06
3.50726e-06
3.75044e-06
3.86312e-06
3.8621e-06
3.74758e-06
3.50643e-06
3.11637e-06
2.6651e-06
3.12594e-06
3.77023e-06
4.18908e-06
4.429e-06
4.5407e-06
4.53862e-06
4.42688e-06
4.20513e-06
3.74796e-06
3.10614e-06
3.51635e-06
4.22572e-06
4.64058e-06
4.85599e-06
4.96283e-06
4.96047e-06
4.8512e-06
4.62156e-06
4.16954e-06
3.49832e-06
3.7537e-06
4.43966e-06
4.8644e-06
5.10738e-06
5.219e-06
5.21827e-06
5.09665e-06
4.84272e-06
4.41711e-06
3.74606e-06
3.86449e-06
4.54324e-06
4.96555e-06
5.22289e-06
5.35994e-06
5.35597e-06
5.21088e-06
4.95477e-06
4.53501e-06
3.86232e-06
3.86259e-06
4.53793e-06
4.95912e-06
5.21528e-06
5.35644e-06
5.3537e-06
5.21011e-06
4.95454e-06
4.53495e-06
3.86239e-06
3.74606e-06
4.41791e-06
4.84388e-06
5.09716e-06
5.2162e-06
5.2153e-06
5.09541e-06
4.84234e-06
4.41714e-06
3.74652e-06
3.49903e-06
4.17006e-06
4.62192e-06
4.85077e-06
4.95779e-06
4.95756e-06
4.85032e-06
4.62158e-06
4.17003e-06
3.49943e-06
3.10763e-06
3.74926e-06
4.20602e-06
4.42706e-06
4.53723e-06
4.53718e-06
4.427e-06
4.20597e-06
3.7492e-06
3.10767e-06
2.6675e-06
3.11918e-06
3.50795e-06
3.74886e-06
3.86309e-06
3.8631e-06
3.74898e-06
3.50806e-06
3.11894e-06
2.6674e-06
2.66186e-06
2.99439e-06
3.36983e-06
3.61606e-06
3.73242e-06
3.73186e-06
3.61467e-06
3.37161e-06
2.99854e-06
2.66254e-06
3.00486e-06
3.63314e-06
4.06669e-06
4.31968e-06
4.43817e-06
4.4365e-06
4.31891e-06
4.08465e-06
3.61451e-06
2.98828e-06
3.3797e-06
4.10346e-06
4.54079e-06
4.77125e-06
4.88523e-06
4.88313e-06
4.76717e-06
4.52294e-06
4.04964e-06
3.36366e-06
3.62034e-06
4.33136e-06
4.7802e-06
5.03855e-06
5.15771e-06
5.15706e-06
5.02803e-06
4.7588e-06
4.30938e-06
3.61371e-06
3.73459e-06
4.44148e-06
4.88858e-06
5.16194e-06
5.30702e-06
5.303e-06
5.14987e-06
4.8778e-06
4.43355e-06
3.7331e-06
3.73286e-06
4.43622e-06
4.88221e-06
5.15451e-06
5.3038e-06
5.301e-06
5.14924e-06
4.87765e-06
4.43356e-06
3.73324e-06
3.6134e-06
4.31007e-06
4.76012e-06
5.02897e-06
5.15561e-06
5.15467e-06
5.02717e-06
4.75868e-06
4.30963e-06
3.6144e-06
3.36422e-06
4.05026e-06
4.52364e-06
4.76733e-06
4.88126e-06
4.88102e-06
4.76689e-06
4.52341e-06
4.05052e-06
3.36518e-06
2.98988e-06
3.61615e-06
4.08612e-06
4.31992e-06
4.43617e-06
4.43612e-06
4.31987e-06
4.08616e-06
3.61629e-06
2.9904e-06
2.6649e-06
3.00165e-06
3.37379e-06
3.61697e-06
3.73414e-06
3.73414e-06
3.61709e-06
3.37397e-06
3.00145e-06
2.66484e-06
2.7788e-06
2.90849e-06
3.24691e-06
3.49019e-06
3.60854e-06
3.60841e-06
3.49022e-06
3.25108e-06
2.91497e-06
2.78117e-06
2.91809e-06
3.50418e-06
3.94701e-06
4.21186e-06
4.33699e-06
4.33595e-06
4.21301e-06
3.96768e-06
3.48985e-06
2.90424e-06
3.25713e-06
3.98376e-06
4.44143e-06
4.68664e-06
4.80788e-06
4.80632e-06
4.684e-06
4.4258e-06
3.93331e-06
3.24318e-06
3.49532e-06
4.2245e-06
4.69612e-06
4.96958e-06
5.09634e-06
5.096e-06
4.95988e-06
4.67583e-06
4.20382e-06
3.48977e-06
3.61148e-06
4.34107e-06
4.81189e-06
5.10091e-06
5.25392e-06
5.25007e-06
5.08925e-06
4.80162e-06
4.33384e-06
3.61063e-06
3.60996e-06
4.3361e-06
4.80586e-06
5.09395e-06
5.25124e-06
5.24853e-06
5.08885e-06
4.8016e-06
4.33394e-06
3.61085e-06
3.48924e-06
4.20439e-06
4.67729e-06
4.96131e-06
5.09546e-06
5.09453e-06
4.95959e-06
4.67604e-06
4.20434e-06
3.4907e-06
3.24372e-06
3.93407e-06
4.42689e-06
4.68489e-06
4.80559e-06
4.80534e-06
4.68447e-06
4.42677e-06
3.93463e-06
3.24511e-06
2.90613e-06
3.49183e-06
3.9698e-06
4.21501e-06
4.33696e-06
4.3369e-06
4.21495e-06
3.96989e-06
3.49218e-06
2.90695e-06
2.78313e-06
2.91793e-06
3.2539e-06
3.49363e-06
3.61208e-06
3.61204e-06
3.49366e-06
3.25401e-06
2.91774e-06
2.78303e-06
3.09114e-06
2.87524e-06
3.14476e-06
3.37617e-06
3.49379e-06
3.49407e-06
3.37747e-06
3.1508e-06
2.88295e-06
3.09374e-06
2.88351e-06
3.3884e-06
3.8322e-06
4.10678e-06
4.23803e-06
4.23771e-06
4.11003e-06
3.85566e-06
3.37784e-06
2.87169e-06
3.15508e-06
3.8689e-06
4.34366e-06
4.60288e-06
4.73127e-06
4.73037e-06
4.60201e-06
4.3306e-06
3.82177e-06
3.14268e-06
3.38206e-06
4.12027e-06
4.61282e-06
4.9009e-06
5.03514e-06
5.03526e-06
4.89235e-06
4.59398e-06
4.10095e-06
3.37712e-06
3.49744e-06
4.24281e-06
4.73586e-06
5.04004e-06
5.20079e-06
5.19725e-06
5.02903e-06
4.7263e-06
4.23617e-06
3.49674e-06
3.49604e-06
4.23819e-06
4.7303e-06
5.03368e-06
5.19875e-06
5.19623e-06
5.02888e-06
4.72638e-06
4.23632e-06
3.49696e-06
3.37657e-06
4.10146e-06
4.59554e-06
4.89418e-06
5.03564e-06
5.03476e-06
4.89256e-06
4.59444e-06
4.10157e-06
3.37803e-06
3.14308e-06
3.82251e-06
4.33187e-06
4.60341e-06
4.73067e-06
4.73044e-06
4.60304e-06
4.33183e-06
3.82317e-06
3.14459e-06
2.87351e-06
3.37959e-06
3.85787e-06
4.1125e-06
4.23965e-06
4.23958e-06
4.11246e-06
3.85801e-06
3.38006e-06
2.87455e-06
3.09834e-06
2.88558e-06
3.15362e-06
3.38127e-06
3.49839e-06
3.49831e-06
3.38121e-06
3.15358e-06
2.8851e-06
3.09702e-06
3.72063e-06
2.91488e-06
3.06985e-06
3.277e-06
3.39007e-06
3.39066e-06
3.27933e-06
3.07746e-06
2.92269e-06
3.71018e-06
2.922e-06
3.28776e-06
3.72206e-06
4.00401e-06
4.14082e-06
4.14131e-06
4.00954e-06
3.74852e-06
3.28104e-06
2.91039e-06
3.07965e-06
3.75845e-06
4.24704e-06
4.51967e-06
4.65513e-06
4.65504e-06
4.52092e-06
4.2371e-06
3.71531e-06
3.06879e-06
3.28306e-06
4.01812e-06
4.52997e-06
4.83233e-06
4.97403e-06
4.97476e-06
4.82533e-06
4.51313e-06
4.00077e-06
3.27891e-06
3.39399e-06
4.14616e-06
4.66024e-06
4.97923e-06
5.14759e-06
5.14451e-06
4.96921e-06
4.65179e-06
4.14056e-06
3.39359e-06
3.39281e-06
4.1421e-06
4.65536e-06
4.97364e-06
5.14636e-06
5.14413e-06
4.96933e-06
4.652e-06
4.14076e-06
3.39381e-06
3.2784e-06
4.00116e-06
4.51475e-06
4.82758e-06
4.9762e-06
4.97541e-06
4.82612e-06
4.51386e-06
4.00148e-06
3.2798e-06
3.06945e-06
3.71607e-06
4.23863e-06
4.52296e-06
4.65657e-06
4.65634e-06
4.52258e-06
4.23858e-06
3.71674e-06
3.07073e-06
2.91259e-06
3.28287e-06
3.75108e-06
4.0127e-06
4.14437e-06
4.14427e-06
4.01253e-06
3.75103e-06
3.28318e-06
2.91347e-06
3.71916e-06
2.92468e-06
3.07995e-06
3.2833e-06
3.39535e-06
3.3952e-06
3.28301e-06
3.07964e-06
2.92401e-06
3.71804e-06
4.86701e-06
3.06741e-06
3.03534e-06
3.19874e-06
3.30165e-06
3.30242e-06
3.2017e-06
3.04335e-06
3.0714e-06
4.82428e-06
3.07159e-06
3.21147e-06
3.62024e-06
3.90563e-06
4.04686e-06
4.04803e-06
3.91301e-06
3.6488e-06
3.20696e-06
3.05847e-06
3.04388e-06
3.6563e-06
4.1534e-06
4.43814e-06
4.58024e-06
4.58088e-06
4.44123e-06
4.14598e-06
3.61603e-06
3.03392e-06
3.20445e-06
3.92004e-06
4.44861e-06
4.76457e-06
4.91345e-06
4.91475e-06
4.75896e-06
4.43347e-06
3.90405e-06
3.2006e-06
3.30533e-06
4.0524e-06
4.58564e-06
4.91884e-06
5.09457e-06
5.09195e-06
4.90975e-06
4.57812e-06
4.04738e-06
3.30478e-06
3.30422e-06
4.04875e-06
4.58134e-06
4.91394e-06
5.09404e-06
5.09212e-06
4.9101e-06
4.57841e-06
4.04757e-06
3.30494e-06
3.2002e-06
3.90441e-06
4.43509e-06
4.76144e-06
4.917e-06
4.9163e-06
4.76014e-06
4.43431e-06
3.90466e-06
3.20134e-06
3.03453e-06
3.61656e-06
4.14742e-06
4.44343e-06
4.58313e-06
4.58292e-06
4.44307e-06
4.14733e-06
3.61708e-06
3.03582e-06
3.06109e-06
3.20832e-06
3.65096e-06
3.91597e-06
4.05127e-06
4.05115e-06
3.91573e-06
3.65078e-06
3.20852e-06
3.0627e-06
4.84861e-06
3.07478e-06
3.04527e-06
3.20499e-06
3.30648e-06
3.30627e-06
3.20458e-06
3.04465e-06
3.07329e-06
4.84372e-06
6.90146e-06
3.39663e-06
3.05831e-06
3.1494e-06
3.23323e-06
3.23418e-06
3.15273e-06
3.06543e-06
3.38893e-06
6.77194e-06
3.39529e-06
3.16665e-06
3.52693e-06
3.81072e-06
3.95514e-06
3.95698e-06
3.81989e-06
3.55745e-06
3.16341e-06
3.37142e-06
3.06446e-06
3.56263e-06
4.06194e-06
4.35765e-06
4.50609e-06
4.50744e-06
4.36254e-06
4.05711e-06
3.52554e-06
3.0536e-06
3.15403e-06
3.82547e-06
4.36825e-06
4.6973e-06
4.85321e-06
4.85509e-06
4.69315e-06
4.35498e-06
3.81131e-06
3.15024e-06
3.23629e-06
3.96099e-06
4.51171e-06
4.85873e-06
5.04164e-06
5.03956e-06
4.8507e-06
4.50534e-06
3.957e-06
3.23574e-06
3.23535e-06
3.95782e-06
4.50803e-06
4.85451e-06
5.04184e-06
5.04027e-06
4.85128e-06
4.50573e-06
3.95719e-06
3.23589e-06
3.15031e-06
3.8113e-06
4.35643e-06
4.69577e-06
4.85812e-06
4.85754e-06
4.69474e-06
4.35596e-06
3.81183e-06
3.151e-06
3.05523e-06
3.5256e-06
4.05839e-06
4.36493e-06
4.51046e-06
4.51028e-06
4.36466e-06
4.05844e-06
3.52633e-06
3.05593e-06
3.37733e-06
3.16468e-06
3.55943e-06
3.82291e-06
3.96068e-06
3.96056e-06
3.82266e-06
3.55928e-06
3.16478e-06
3.3779e-06
6.82609e-06
3.39317e-06
3.06603e-06
3.15476e-06
3.2373e-06
3.2371e-06
3.15434e-06
3.06515e-06
3.38992e-06
6.80855e-06
1.02216e-05
3.99575e-06
3.16452e-06
3.14042e-06
3.19378e-06
3.1946e-06
3.14321e-06
3.16845e-06
3.97041e-06
1.00253e-05
3.98819e-06
3.17036e-06
3.44767e-06
3.72221e-06
3.86754e-06
3.86976e-06
3.73215e-06
3.4785e-06
3.16515e-06
3.94635e-06
3.16757e-06
3.48256e-06
3.97465e-06
4.27934e-06
4.43341e-06
4.43522e-06
4.28528e-06
3.97124e-06
3.44717e-06
3.15359e-06
3.1434e-06
3.73645e-06
4.28977e-06
4.63116e-06
4.79372e-06
4.79599e-06
4.62796e-06
4.27771e-06
3.72352e-06
3.13876e-06
3.19564e-06
3.87294e-06
4.43892e-06
4.79923e-06
4.98906e-06
4.98737e-06
4.79197e-06
4.43333e-06
3.86974e-06
3.19456e-06
3.19478e-06
3.87003e-06
4.43559e-06
4.79546e-06
4.98975e-06
4.98847e-06
4.7927e-06
4.43377e-06
3.8699e-06
3.19474e-06
3.13998e-06
3.72292e-06
4.2789e-06
4.63053e-06
4.79944e-06
4.79898e-06
4.62974e-06
4.27869e-06
3.72382e-06
3.13984e-06
3.15805e-06
3.44656e-06
3.97206e-06
4.28746e-06
4.43844e-06
4.43831e-06
4.28732e-06
3.97231e-06
3.44752e-06
3.15759e-06
3.96155e-06
3.1668e-06
3.48004e-06
3.73466e-06
3.87313e-06
3.87304e-06
3.73445e-06
3.47992e-06
3.1663e-06
3.95859e-06
1.01095e-05
3.97818e-06
3.1688e-06
3.14408e-06
3.1964e-06
3.19619e-06
3.14351e-06
3.16696e-06
3.97066e-06
1.00718e-05
1.51434e-05
5.0124e-06
3.39776e-06
3.19059e-06
3.19563e-06
3.19619e-06
3.19215e-06
3.3963e-06
4.97448e-06
1.49303e-05
4.99436e-06
3.24308e-06
3.38668e-06
3.6409e-06
3.78432e-06
3.7867e-06
3.65091e-06
3.41664e-06
3.23429e-06
4.9373e-06
3.39483e-06
3.42115e-06
3.89196e-06
4.2031e-06
4.36205e-06
4.36405e-06
4.2094e-06
3.8889e-06
3.38585e-06
3.37521e-06
3.19084e-06
3.65503e-06
4.21339e-06
4.56615e-06
4.73494e-06
4.7374e-06
4.56333e-06
4.20174e-06
3.64229e-06
3.18422e-06
3.19566e-06
3.78982e-06
4.36753e-06
4.74044e-06
4.93684e-06
4.93537e-06
4.73351e-06
4.36211e-06
3.78658e-06
3.19364e-06
3.1948e-06
3.7871e-06
4.3644e-06
4.73693e-06
4.93785e-06
4.93672e-06
4.73432e-06
4.36257e-06
3.78669e-06
3.19399e-06
3.18699e-06
3.64187e-06
4.20302e-06
4.56595e-06
4.74105e-06
4.74062e-06
4.56514e-06
4.20266e-06
3.64237e-06
3.18614e-06
3.38286e-06
3.38558e-06
3.88969e-06
4.21141e-06
4.36722e-06
4.36708e-06
4.21117e-06
3.88966e-06
3.38588e-06
3.38196e-06
4.9614e-06
3.23717e-06
3.41832e-06
3.653e-06
3.78956e-06
3.78945e-06
3.65264e-06
3.41772e-06
3.23556e-06
4.9591e-06
1.50153e-05
4.98075e-06
3.39509e-06
3.19151e-06
3.1965e-06
3.19629e-06
3.19078e-06
3.39236e-06
4.97232e-06
1.49806e-05
2.17744e-05
6.63155e-06
3.82679e-06
3.33114e-06
3.25759e-06
3.25774e-06
3.33041e-06
3.81808e-06
6.57538e-06
2.15839e-05
6.59184e-06
3.41116e-06
3.3508e-06
3.56892e-06
3.70641e-06
3.70872e-06
3.57834e-06
3.37895e-06
3.39653e-06
6.51478e-06
3.81208e-06
3.38463e-06
3.81445e-06
4.1288e-06
4.29183e-06
4.29383e-06
4.13493e-06
3.81103e-06
3.34814e-06
3.78539e-06
3.3257e-06
3.58301e-06
4.13897e-06
4.50209e-06
4.67679e-06
4.67925e-06
4.49925e-06
4.1272e-06
3.56974e-06
3.31651e-06
3.25423e-06
3.71227e-06
4.29732e-06
4.68223e-06
4.88494e-06
4.88358e-06
4.67535e-06
4.29169e-06
3.70848e-06
3.25172e-06
3.25325e-06
3.70968e-06
4.2943e-06
4.67886e-06
4.88615e-06
4.88506e-06
4.67618e-06
4.29216e-06
3.70857e-06
3.25252e-06
3.3208e-06
3.57004e-06
4.12886e-06
4.50202e-06
4.68302e-06
4.68255e-06
4.50102e-06
4.12804e-06
3.56972e-06
3.32023e-06
3.79608e-06
3.34893e-06
3.81234e-06
4.13708e-06
4.297e-06
4.29678e-06
4.13655e-06
3.81165e-06
3.34822e-06
3.79743e-06
6.54356e-06
3.39989e-06
3.38112e-06
3.58066e-06
3.7115e-06
3.71131e-06
3.57991e-06
3.37992e-06
3.39799e-06
6.54739e-06
2.16284e-05
6.56338e-06
3.81068e-06
3.32667e-06
3.25635e-06
3.25623e-06
3.32621e-06
3.80852e-06
6.55885e-06
2.16122e-05
2.99164e-05
9.36194e-06
4.54198e-06
3.59753e-06
3.40639e-06
3.40513e-06
3.59235e-06
4.52518e-06
9.31363e-06
2.98349e-05
9.29072e-06
3.72817e-06
3.3528e-06
3.51272e-06
3.63836e-06
3.64022e-06
3.52047e-06
3.37759e-06
3.70911e-06
9.22451e-06
4.5104e-06
3.38502e-06
3.7453e-06
4.05787e-06
4.22375e-06
4.22542e-06
4.06293e-06
3.73996e-06
3.34532e-06
4.48337e-06
3.5854e-06
3.52545e-06
4.06761e-06
4.43955e-06
4.61967e-06
4.62185e-06
4.43593e-06
4.05458e-06
3.50998e-06
3.57544e-06
3.39976e-06
3.64335e-06
4.22885e-06
4.62488e-06
4.83357e-06
4.83205e-06
4.61747e-06
4.22219e-06
3.63786e-06
3.39768e-06
3.39814e-06
3.64053e-06
4.22558e-06
4.62129e-06
4.83459e-06
4.8334e-06
4.61821e-06
4.2226e-06
3.638e-06
3.39877e-06
3.57915e-06
3.51156e-06
4.05675e-06
4.43866e-06
4.62518e-06
4.62462e-06
4.43733e-06
4.05522e-06
3.51012e-06
3.58137e-06
4.49663e-06
3.34701e-06
3.74141e-06
4.06459e-06
4.22772e-06
4.22742e-06
4.06379e-06
3.74016e-06
3.34577e-06
4.50232e-06
9.26956e-06
3.71207e-06
3.37895e-06
3.52138e-06
3.64125e-06
3.64106e-06
3.52051e-06
3.37762e-06
3.71039e-06
9.2685e-06
2.98723e-05
9.28426e-06
4.51578e-06
3.58868e-06
3.40394e-06
3.40363e-06
3.58749e-06
4.51102e-06
9.27109e-06
2.9815e-05
3.92816e-05
1.3468e-05
5.70916e-06
4.06275e-06
3.68996e-06
3.68785e-06
4.05453e-06
5.68905e-06
1.34857e-05
3.93764e-05
1.33836e-05
4.26892e-06
3.40526e-06
3.47464e-06
3.58091e-06
3.58205e-06
3.48033e-06
3.42662e-06
4.24851e-06
1.33623e-05
5.66611e-06
3.43523e-06
3.68413e-06
3.9891e-06
4.15675e-06
4.158e-06
3.99292e-06
3.67702e-06
3.39252e-06
5.63057e-06
4.04581e-06
3.48537e-06
3.99834e-06
4.37771e-06
4.56302e-06
4.56486e-06
4.37323e-06
3.98424e-06
3.46837e-06
4.03002e-06
3.6811e-06
3.58472e-06
4.16143e-06
4.56796e-06
4.7825e-06
4.78078e-06
4.55998e-06
4.15395e-06