/*--------------------------------*- C++ -*----------------------------------*\
| =========                 |                                                 |
| \\      /  F ield         | OpenFOAM: The Open Source CFD Toolbox           |
|  \\    /   O peration     | Version:  2406                                  |
|   \\  /    A nd           | Website:  www.openfoam.com                      |
|    \\/     M anipulation  |                                                 |
\*---------------------------------------------------------------------------*/
FoamFile
{
    version     2.0;
    format      ascii;
    arch        "LSB;label=32;scalar=64";
    class       volScalarField;
    location    "50";
    object      nuTilda;
}
// * * * * * * * * * * * * * * * * * * * * * * * * * * * * * * * * * * * * * //

dimensions      [0 2 -1 0 0 0 0];

internalField   nonuniform List<scalar> 
25000
(
3.96628e-05
3.9738e-05
3.97875e-05
3.9812e-05
3.98227e-05
3.98228e-05
3.98122e-05
3.97883e-05
3.97432e-05
3.96611e-05
3.97416e-05
3.98104e-05
3.98505e-05
3.98729e-05
3.98837e-05
3.98839e-05
3.98737e-05
3.98614e-05
3.98126e-05
3.97392e-05
3.97875e-05
3.98601e-05
3.9893e-05
3.99077e-05
3.99179e-05
3.99182e-05
3.99097e-05
3.98941e-05
3.98517e-05
3.97879e-05
3.98119e-05
3.9873e-05
3.99089e-05
3.99292e-05
3.99378e-05
3.99389e-05
3.99298e-05
3.99084e-05
3.98734e-05
3.98121e-05
3.98227e-05
3.98837e-05
3.9918e-05
3.99387e-05
3.99511e-05
3.99515e-05
3.99383e-05
3.99183e-05
3.9884e-05
3.98227e-05
3.98228e-05
3.98839e-05
3.99182e-05
3.99382e-05
3.99515e-05
3.99516e-05
3.99383e-05
3.99183e-05
3.9884e-05
3.98227e-05
3.98123e-05
3.98735e-05
3.99085e-05
3.99299e-05
3.99391e-05
3.99392e-05
3.99299e-05
3.99085e-05
3.98735e-05
3.98121e-05
3.97881e-05
3.98518e-05
3.98942e-05
3.99097e-05
3.99184e-05
3.99184e-05
3.99097e-05
3.98941e-05
3.98518e-05
3.9788e-05
3.97394e-05
3.98127e-05
3.98614e-05
3.98737e-05
3.9884e-05
3.9884e-05
3.98737e-05
3.98614e-05
3.98126e-05
3.97392e-05
3.96613e-05
3.97432e-05
3.97883e-05
3.98122e-05
3.98227e-05
3.98227e-05
3.98121e-05
3.97882e-05
3.97431e-05
3.96611e-05
3.89567e-05
3.92039e-05
3.93547e-05
3.94316e-05
3.94651e-05
3.94655e-05
3.94329e-05
3.93594e-05
3.92198e-05
3.89616e-05
3.92136e-05
3.94263e-05
3.9549e-05
3.96172e-05
3.96502e-05
3.96509e-05
3.96211e-05
3.95795e-05
3.94353e-05
3.92098e-05
3.93558e-05
3.95742e-05
3.96764e-05
3.9723e-05
3.97534e-05
3.97545e-05
3.97291e-05
3.96806e-05
3.95542e-05
3.93576e-05
3.94312e-05
3.96185e-05
3.97264e-05
3.9787e-05
3.98137e-05
3.98168e-05
3.97893e-05
3.97257e-05
3.96196e-05
3.94326e-05
3.94649e-05
3.96501e-05
3.97535e-05
3.98157e-05
3.98525e-05
3.98537e-05
3.98151e-05
3.97547e-05
3.96511e-05
3.94653e-05
3.94654e-05
3.96508e-05
3.97542e-05
3.98146e-05
3.98538e-05
3.98542e-05
3.98152e-05
3.97547e-05
3.96511e-05
3.94653e-05
3.94329e-05
3.96197e-05
3.97257e-05
3.97893e-05
3.98174e-05
3.98175e-05
3.97895e-05
3.97258e-05
3.96197e-05
3.94326e-05
3.9358e-05
3.95544e-05
3.96808e-05
3.97293e-05
3.9755e-05
3.9755e-05
3.97293e-05
3.96807e-05
3.95543e-05
3.93577e-05
3.92101e-05
3.94355e-05
3.95796e-05
3.96212e-05
3.96513e-05
3.96512e-05
3.96212e-05
3.95795e-05
3.94353e-05
3.92098e-05
3.89617e-05
3.92199e-05
3.93594e-05
3.94328e-05
3.94655e-05
3.94654e-05
3.94327e-05
3.93592e-05
3.92197e-05
3.89616e-05
3.82454e-05
3.86707e-05
3.8921e-05
3.90507e-05
3.91075e-05
3.91081e-05
3.9053e-05
3.89292e-05
3.86929e-05
3.82537e-05
3.86854e-05
3.9045e-05
3.92492e-05
3.93624e-05
3.94171e-05
3.94183e-05
3.93698e-05
3.92952e-05
3.90582e-05
3.86783e-05
3.89242e-05
3.92869e-05
3.94598e-05
3.95397e-05
3.95894e-05
3.95913e-05
3.95493e-05
3.94665e-05
3.92576e-05
3.89257e-05
3.90505e-05
3.93655e-05
3.9545e-05
3.96453e-05
3.96901e-05
3.96949e-05
3.9649e-05
3.9544e-05
3.93665e-05
3.90527e-05
3.91072e-05
3.94169e-05
3.95897e-05
3.96931e-05
3.97534e-05
3.97555e-05
3.96925e-05
3.95917e-05
3.94187e-05
3.91079e-05
3.91079e-05
3.94181e-05
3.95906e-05
3.96916e-05
3.97554e-05
3.97563e-05
3.96927e-05
3.95917e-05
3.94187e-05
3.91079e-05
3.90529e-05
3.93664e-05
3.95438e-05
3.96489e-05
3.9696e-05
3.96962e-05
3.96494e-05
3.95442e-05
3.93666e-05
3.90526e-05
3.89258e-05
3.92576e-05
3.94665e-05
3.95495e-05
3.95923e-05
3.95923e-05
3.95496e-05
3.94666e-05
3.92576e-05
3.89255e-05
3.86782e-05
3.90582e-05
3.92951e-05
3.93698e-05
3.94189e-05
3.94189e-05
3.93699e-05
3.92951e-05
3.90581e-05
3.86781e-05
3.82529e-05
3.86924e-05
3.89288e-05
3.90528e-05
3.91081e-05
3.91081e-05
3.90528e-05
3.89289e-05
3.86926e-05
3.82534e-05
3.7546e-05
3.81435e-05
3.84903e-05
3.86722e-05
3.87519e-05
3.87527e-05
3.86751e-05
3.85006e-05
3.81672e-05
3.7551e-05
3.81615e-05
3.86688e-05
3.89527e-05
3.91097e-05
3.91852e-05
3.91869e-05
3.912e-05
3.90101e-05
3.86828e-05
3.81487e-05
3.84954e-05
3.90003e-05
3.92442e-05
3.93582e-05
3.94264e-05
3.9429e-05
3.93704e-05
3.92522e-05
3.89625e-05
3.84947e-05
3.86719e-05
3.91146e-05
3.93651e-05
3.95046e-05
3.95674e-05
3.95733e-05
3.9509e-05
3.93634e-05
3.91146e-05
3.8674e-05
3.87513e-05
3.9185e-05
3.94269e-05
3.95711e-05
3.96541e-05
3.96565e-05
3.95701e-05
3.94292e-05
3.91872e-05
3.87521e-05
3.8752e-05
3.91862e-05
3.94277e-05
3.95689e-05
3.96563e-05
3.96574e-05
3.95704e-05
3.94292e-05
3.91871e-05
3.8752e-05
3.86742e-05
3.91143e-05
3.93629e-05
3.95087e-05
3.95746e-05
3.95749e-05
3.95094e-05
3.93636e-05
3.91146e-05
3.86739e-05
3.84946e-05
3.89623e-05
3.9252e-05
3.93703e-05
3.943e-05
3.94302e-05
3.93707e-05
3.92523e-05
3.89623e-05
3.84943e-05
3.81482e-05
3.86823e-05
3.90096e-05
3.91197e-05
3.91874e-05
3.91875e-05
3.91199e-05
3.90098e-05
3.86825e-05
3.81482e-05
3.75494e-05
3.8166e-05
3.84995e-05
3.86742e-05
3.87522e-05
3.87522e-05
3.86744e-05
3.84998e-05
3.81664e-05
3.755e-05
3.68708e-05
3.7627e-05
3.80665e-05
3.82986e-05
3.84005e-05
3.84012e-05
3.83012e-05
3.80766e-05
3.76475e-05
3.68652e-05
3.76477e-05
3.82999e-05
3.86609e-05
3.886e-05
3.89552e-05
3.89571e-05
3.88721e-05
3.87254e-05
3.83102e-05
3.76252e-05
3.80733e-05
3.87166e-05
3.90306e-05
3.91788e-05
3.92646e-05
3.92675e-05
3.91923e-05
3.90381e-05
3.86693e-05
3.80674e-05
3.8298e-05
3.88665e-05
3.9187e-05
3.93649e-05
3.94454e-05
3.9452e-05
3.93692e-05
3.91836e-05
3.88642e-05
3.82985e-05
3.83991e-05
3.89549e-05
3.92651e-05
3.94496e-05
3.95545e-05
3.95568e-05
3.94479e-05
3.92671e-05
3.89566e-05
3.83991e-05
3.83996e-05
3.89556e-05
3.92655e-05
3.94465e-05
3.95563e-05
3.95576e-05
3.94481e-05
3.9267e-05
3.89565e-05
3.83989e-05
3.82989e-05
3.88637e-05
3.91829e-05
3.93685e-05
3.9453e-05
3.94534e-05
3.93694e-05
3.91836e-05
3.88639e-05
3.8298e-05
3.8067e-05
3.86687e-05
3.90374e-05
3.91916e-05
3.92681e-05
3.92683e-05
3.91922e-05
3.90378e-05
3.86687e-05
3.80663e-05
3.76239e-05
3.83089e-05
3.87238e-05
3.88707e-05
3.89568e-05
3.8957e-05
3.88712e-05
3.87243e-05
3.83091e-05
3.76236e-05
3.68614e-05
3.76442e-05
3.80734e-05
3.82983e-05
3.83988e-05
3.8399e-05
3.82988e-05
3.80741e-05
3.76449e-05
3.6862e-05
3.62159e-05
3.71195e-05
3.76485e-05
3.79291e-05
3.80522e-05
3.80523e-05
3.79298e-05
3.76551e-05
3.71315e-05
3.61938e-05
3.71417e-05
3.79372e-05
3.83731e-05
3.86125e-05
3.87264e-05
3.87282e-05
3.8625e-05
3.84402e-05
3.79391e-05
3.71063e-05
3.76564e-05
3.84353e-05
3.88186e-05
3.9001e-05
3.91035e-05
3.91064e-05
3.90145e-05
3.88235e-05
3.83772e-05
3.76427e-05
3.79281e-05
3.86208e-05
3.90104e-05
3.92261e-05
3.93238e-05
3.93305e-05
3.92292e-05
3.90042e-05
3.86145e-05
3.79254e-05
3.80502e-05
3.87261e-05
3.91042e-05
3.93284e-05
3.94544e-05
3.94563e-05
3.93254e-05
3.9105e-05
3.87266e-05
3.80485e-05
3.80501e-05
3.87261e-05
3.91037e-05
3.93243e-05
3.94556e-05
3.94568e-05
3.93255e-05
3.91048e-05
3.87264e-05
3.80483e-05
3.79265e-05
3.86141e-05
3.90034e-05
3.92283e-05
3.9331e-05
3.93316e-05
3.92292e-05
3.9004e-05
3.8614e-05
3.79247e-05
3.76429e-05
3.83764e-05
3.88225e-05
3.90132e-05
3.91062e-05
3.91065e-05
3.90138e-05
3.88228e-05
3.83761e-05
3.76413e-05
3.71053e-05
3.79374e-05
3.8438e-05
3.86228e-05
3.87269e-05
3.87271e-05
3.86233e-05
3.84383e-05
3.79372e-05
3.71039e-05
3.61901e-05
3.71276e-05
3.76508e-05
3.79255e-05
3.80481e-05
3.80483e-05
3.79259e-05
3.76512e-05
3.71276e-05
3.61887e-05
3.55724e-05
3.66175e-05
3.72343e-05
3.75623e-05
3.7706e-05
3.77053e-05
3.75603e-05
3.72362e-05
3.66208e-05
3.55383e-05
3.66419e-05
3.75794e-05
3.8089e-05
3.83673e-05
3.84988e-05
3.85e-05
3.83785e-05
3.81545e-05
3.75692e-05
3.65928e-05
3.72442e-05
3.81565e-05
3.86084e-05
3.88247e-05
3.89432e-05
3.89455e-05
3.88366e-05
3.86084e-05
3.80856e-05
3.72207e-05
3.75616e-05
3.83774e-05
3.88352e-05
3.90881e-05
3.92026e-05
3.92089e-05
3.9089e-05
3.88247e-05
3.83653e-05
3.75542e-05
3.7704e-05
3.84986e-05
3.89441e-05
3.92076e-05
3.93539e-05
3.93549e-05
3.92025e-05
3.89427e-05
3.84968e-05
3.76996e-05
3.77029e-05
3.84973e-05
3.89421e-05
3.9202e-05
3.9354e-05
3.93547e-05
3.92023e-05
3.89424e-05
3.84965e-05
3.76993e-05
3.75563e-05
3.83652e-05
3.88239e-05
3.90877e-05
3.92086e-05
3.9209e-05
3.90883e-05
3.88241e-05
3.83644e-05
3.7553e-05
3.72213e-05
3.80847e-05
3.86069e-05
3.88345e-05
3.89441e-05
3.89444e-05
3.88351e-05
3.8607e-05
3.80839e-05
3.72184e-05
3.65916e-05
3.75668e-05
3.81513e-05
3.8375e-05
3.84972e-05
3.84974e-05
3.83756e-05
3.81515e-05
3.75663e-05
3.65891e-05
3.55325e-05
3.66152e-05
3.72301e-05
3.75541e-05
3.76989e-05
3.76991e-05
3.75546e-05
3.72305e-05
3.66149e-05
3.55307e-05
3.49344e-05
3.61173e-05
3.6821e-05
3.71958e-05
3.73596e-05
3.73576e-05
3.719e-05
3.68164e-05
3.61111e-05
3.48926e-05
3.61428e-05
3.72227e-05
3.78063e-05
3.81229e-05
3.82712e-05
3.82714e-05
3.81312e-05
3.78667e-05
3.71984e-05
3.60818e-05
3.68316e-05
3.78779e-05
3.83988e-05
3.86492e-05
3.8783e-05
3.87843e-05
3.86581e-05
3.83919e-05
3.77933e-05
3.67987e-05
3.71949e-05
3.81345e-05
3.86606e-05
3.89504e-05
3.90816e-05
3.90869e-05
3.89482e-05
3.86448e-05
3.81157e-05
3.71829e-05
3.73572e-05
3.8271e-05
3.87841e-05
3.90868e-05
3.92529e-05
3.92527e-05
3.9079e-05
3.87798e-05
3.82666e-05
3.7351e-05
3.7355e-05
3.8268e-05
3.87803e-05
3.90794e-05
3.92517e-05
3.92517e-05
3.90785e-05
3.87794e-05
3.82662e-05
3.73506e-05
3.71851e-05
3.81157e-05
3.8644e-05
3.89467e-05
3.90855e-05
3.90858e-05
3.89469e-05
3.86439e-05
3.81146e-05
3.71817e-05
3.67992e-05
3.77921e-05
3.839e-05
3.86553e-05
3.87816e-05
3.87818e-05
3.86559e-05
3.83902e-05
3.77914e-05
3.67965e-05
3.608e-05
3.71955e-05
3.78629e-05
3.8127e-05
3.82671e-05
3.82674e-05
3.81277e-05
3.78634e-05
3.71952e-05
3.60781e-05
3.48854e-05
3.6105e-05
3.68097e-05
3.71831e-05
3.73501e-05
3.73503e-05
3.71837e-05
3.68105e-05
3.61055e-05
3.48853e-05
3.43102e-05
3.56214e-05
3.64093e-05
3.683e-05
3.70136e-05
3.70105e-05
3.68205e-05
3.63984e-05
3.56074e-05
3.42659e-05
3.5648e-05
3.68674e-05
3.75251e-05
3.78795e-05
3.80439e-05
3.80427e-05
3.78837e-05
3.75778e-05
3.68282e-05
3.55772e-05
3.64211e-05
3.75998e-05
3.819e-05
3.84746e-05
3.86231e-05
3.8623e-05
3.8479e-05
3.81743e-05
3.75008e-05
3.63787e-05
3.68293e-05
3.78926e-05
3.84869e-05
3.88133e-05
3.89606e-05
3.89646e-05
3.88068e-05
3.84643e-05
3.78657e-05
3.68124e-05
3.70113e-05
3.80439e-05
3.86244e-05
3.89661e-05
3.91515e-05
3.91496e-05
3.89549e-05
3.86165e-05
3.8036e-05
3.7003e-05
3.70078e-05
3.80388e-05
3.86185e-05
3.89567e-05
3.91486e-05
3.91476e-05
3.8954e-05
3.86159e-05
3.80355e-05
3.70025e-05
3.68149e-05
3.78661e-05
3.84638e-05
3.88052e-05
3.89619e-05
3.89618e-05
3.88048e-05
3.84631e-05
3.78644e-05
3.68111e-05
3.63791e-05
3.74994e-05
3.81722e-05
3.84756e-05
3.86186e-05
3.86187e-05
3.8476e-05
3.81722e-05
3.74986e-05
3.63763e-05
3.55746e-05
3.68247e-05
3.75735e-05
3.78785e-05
3.80368e-05
3.8037e-05
3.78792e-05
3.7574e-05
3.68246e-05
3.5573e-05
3.42573e-05
3.56008e-05
3.63911e-05
3.68128e-05
3.70018e-05
3.7002e-05
3.68135e-05
3.63921e-05
3.56017e-05
3.42586e-05
3.37058e-05
3.51282e-05
3.5997e-05
3.64636e-05
3.66671e-05
3.66631e-05
3.6451e-05
3.59814e-05
3.51094e-05
3.36625e-05
3.51557e-05
3.65097e-05
3.72425e-05
3.76354e-05
3.7816e-05
3.78132e-05
3.76351e-05
3.72873e-05
3.64578e-05
3.5079e-05
3.60102e-05
3.73198e-05
3.79802e-05
3.82997e-05
3.84629e-05
3.84612e-05
3.82993e-05
3.79555e-05
3.72075e-05
3.59605e-05
3.64636e-05
3.76502e-05
3.83129e-05
3.8676e-05
3.88394e-05
3.88418e-05
3.86649e-05
3.82833e-05
3.76153e-05
3.64427e-05
3.66654e-05
3.78165e-05
3.84647e-05
3.88451e-05
3.90494e-05
3.90459e-05
3.88303e-05
3.84526e-05
3.7805e-05
3.66554e-05
3.66611e-05
3.78094e-05
3.84566e-05
3.88338e-05
3.9045e-05
3.90429e-05
3.88291e-05
3.84519e-05
3.78045e-05
3.6655e-05
3.64459e-05
3.76164e-05
3.82835e-05
3.86635e-05
3.88379e-05
3.88374e-05
3.86623e-05
3.82818e-05
3.76139e-05
3.64414e-05
3.59621e-05
3.72068e-05
3.79537e-05
3.82956e-05
3.84553e-05
3.84554e-05
3.82956e-05
3.79532e-05
3.72054e-05
3.59584e-05
3.50782e-05
3.64552e-05
3.72835e-05
3.763e-05
3.78063e-05
3.78064e-05
3.76304e-05
3.72835e-05
3.64545e-05
3.50753e-05
3.36575e-05
3.51052e-05
3.59755e-05
3.64441e-05
3.66546e-05
3.66547e-05
3.64445e-05
3.59759e-05
3.5105e-05
3.36569e-05
3.31365e-05
3.46415e-05
3.55854e-05
3.60972e-05
3.63211e-05
3.63167e-05
3.60836e-05
3.55688e-05
3.46233e-05
3.30993e-05
3.46709e-05
3.615e-05
3.69579e-05
3.73901e-05
3.75873e-05
3.75833e-05
3.73862e-05
3.69963e-05
3.60894e-05
3.45932e-05
3.56013e-05
3.70377e-05
3.77688e-05
3.81239e-05
3.83021e-05
3.8299e-05
3.8119e-05
3.77361e-05
3.69146e-05
3.55473e-05
3.60991e-05
3.74071e-05
3.81382e-05
3.8538e-05
3.87176e-05
3.87185e-05
3.85226e-05
3.8102e-05
3.7365e-05
3.60759e-05
3.63208e-05
3.75888e-05
3.83047e-05
3.87238e-05
3.89465e-05
3.89414e-05
3.87054e-05
3.82886e-05
3.7574e-05
3.63102e-05
3.63159e-05
3.75799e-05
3.82945e-05
3.87107e-05
3.89409e-05
3.89375e-05
3.87039e-05
3.82879e-05
3.75735e-05
3.63098e-05
3.60793e-05
3.73668e-05
3.8103e-05
3.85216e-05
3.87137e-05
3.87128e-05
3.85195e-05
3.81004e-05
3.73637e-05
3.60748e-05
3.55499e-05
3.69147e-05
3.77348e-05
3.81155e-05
3.82921e-05
3.82919e-05
3.81151e-05
3.77338e-05
3.69129e-05
3.55459e-05
3.45942e-05
3.60882e-05
3.69936e-05
3.73817e-05
3.75761e-05
3.75761e-05
3.73818e-05
3.69932e-05
3.6087e-05
3.45905e-05
3.30986e-05
3.46221e-05
3.55649e-05
3.60783e-05
3.63096e-05
3.63097e-05
3.60785e-05
3.55649e-05
3.46212e-05
3.30964e-05
3.26256e-05
3.41677e-05
3.51769e-05
3.57326e-05
3.59769e-05
3.59727e-05
3.57196e-05
3.51626e-05
3.41543e-05
3.25977e-05
3.41982e-05
3.57881e-05
3.66706e-05
3.71432e-05
3.73578e-05
3.7353e-05
3.71372e-05
3.67055e-05
3.57241e-05
3.41246e-05
3.51953e-05
3.67525e-05
3.75549e-05
3.79467e-05
3.81405e-05
3.81362e-05
3.79384e-05
3.75163e-05
3.66225e-05
3.51409e-05
3.57361e-05
3.71623e-05
3.79621e-05
3.8399e-05
3.85949e-05
3.85946e-05
3.83801e-05
3.79207e-05
3.7115e-05
3.57128e-05
3.59774e-05
3.73604e-05
3.81439e-05
3.86016e-05
3.88428e-05
3.88363e-05
3.85803e-05
3.81245e-05
3.73433e-05
3.59679e-05
3.59723e-05
3.735e-05
3.8132e-05
3.85871e-05
3.88362e-05
3.88318e-05
3.85786e-05
3.81238e-05
3.73429e-05
3.59676e-05
3.57153e-05
3.71171e-05
3.79222e-05
3.83796e-05
3.85894e-05
3.85881e-05
3.83767e-05
3.79191e-05
3.71141e-05
3.57123e-05
3.51434e-05
3.6623e-05
3.75155e-05
3.79354e-05
3.81289e-05
3.81286e-05
3.79347e-05
3.75145e-05
3.66215e-05
3.51406e-05
3.41267e-05
3.57242e-05
3.6704e-05
3.71337e-05
3.73463e-05
3.73462e-05
3.71338e-05
3.67037e-05
3.57232e-05
3.41239e-05
3.26009e-05
3.41563e-05
3.51611e-05
3.57167e-05
3.59681e-05
3.59681e-05
3.5717e-05
3.51612e-05
3.41554e-05
3.2599e-05
3.22076e-05
3.37158e-05
3.47748e-05
3.53711e-05
3.56356e-05
3.5632e-05
3.53606e-05
3.47658e-05
3.37107e-05
3.21909e-05
3.37472e-05
3.54257e-05
3.63805e-05
3.68945e-05
3.71274e-05
3.71223e-05
3.68881e-05
3.64153e-05
3.53635e-05
3.36815e-05
3.47961e-05
3.64646e-05
3.7338e-05
3.77676e-05
3.79777e-05
3.79728e-05
3.77575e-05
3.72963e-05
3.63317e-05
3.47444e-05
3.5377e-05
3.69161e-05
3.77843e-05
3.82585e-05
3.84712e-05
3.84701e-05
3.82373e-05
3.77394e-05
3.68658e-05
3.53554e-05
3.56374e-05
3.71314e-05
3.79822e-05
3.84785e-05
3.8738e-05
3.87306e-05
3.84552e-05
3.79607e-05
3.71133e-05
3.563e-05
3.56324e-05
3.712e-05
3.79692e-05
3.84632e-05
3.8731e-05
3.87259e-05
3.84534e-05
3.79601e-05
3.7113e-05
3.563e-05
3.53565e-05
3.68678e-05
3.77415e-05
3.82375e-05
3.84651e-05
3.84634e-05
3.82342e-05
3.77382e-05
3.68654e-05
3.53558e-05
3.47465e-05
3.63325e-05
3.72963e-05
3.77554e-05
3.7966e-05
3.79656e-05
3.77545e-05
3.72954e-05
3.63318e-05
3.47458e-05
3.36846e-05
3.53652e-05
3.64156e-05
3.68865e-05
3.71171e-05
3.71171e-05
3.68865e-05
3.64154e-05
3.53647e-05
3.36834e-05
3.21973e-05
3.3716e-05
3.47672e-05
3.53607e-05
3.56309e-05
3.5631e-05
3.53611e-05
3.47676e-05
3.37155e-05
3.21962e-05
3.19462e-05
3.33019e-05
3.43848e-05
3.50158e-05
3.5299e-05
3.52965e-05
3.50086e-05
3.43826e-05
3.3306e-05
3.19398e-05
3.33334e-05
3.5066e-05
3.60886e-05
3.66443e-05
3.68963e-05
3.68916e-05
3.66395e-05
3.61264e-05
3.50095e-05
3.32765e-05
3.44089e-05
3.61748e-05
3.71183e-05
3.75866e-05
3.78139e-05
3.78089e-05
3.75763e-05
3.70762e-05
3.60424e-05
3.43611e-05
3.50241e-05
3.66685e-05
3.76046e-05
3.81165e-05
3.83464e-05
3.83449e-05
3.80942e-05
3.75581e-05
3.66172e-05
3.50047e-05
3.53024e-05
3.6902e-05
3.78197e-05
3.83544e-05
3.86323e-05
3.86243e-05
3.83298e-05
3.77969e-05
3.68836e-05
3.5297e-05
3.52977e-05
3.68901e-05
3.78061e-05
3.83388e-05
3.86252e-05
3.86197e-05
3.83282e-05
3.77964e-05
3.68834e-05
3.52972e-05
3.50047e-05
3.6619e-05
3.75606e-05
3.80953e-05
3.83407e-05
3.83388e-05
3.80917e-05
3.75573e-05
3.66173e-05
3.50059e-05
3.4363e-05
3.60437e-05
3.7077e-05
3.75754e-05
3.78033e-05
3.78028e-05
3.75744e-05
3.70763e-05
3.60436e-05
3.4364e-05
3.32809e-05
3.50128e-05
3.61285e-05
3.66399e-05
3.68885e-05
3.68884e-05
3.66397e-05
3.61284e-05
3.50127e-05
3.3281e-05
3.19475e-05
3.33141e-05
3.43866e-05
3.50118e-05
3.52989e-05
3.5299e-05
3.50121e-05
3.43869e-05
3.33134e-05
3.19471e-05
3.19294e-05
3.29507e-05
3.40152e-05
3.46706e-05
3.497e-05
3.49686e-05
3.4667e-05
3.402e-05
3.2963e-05
3.19316e-05
3.29816e-05
3.4715e-05
3.5797e-05
3.63936e-05
3.66651e-05
3.66613e-05
3.63918e-05
3.58402e-05
3.46666e-05
3.29327e-05
3.4042e-05
3.58852e-05
3.68965e-05
3.7404e-05
3.76491e-05
3.76446e-05
3.73952e-05
3.68565e-05
3.5756e-05
3.39984e-05
3.46818e-05
3.64206e-05
3.74234e-05
3.79731e-05
3.82206e-05
3.82192e-05
3.79511e-05
3.7377e-05
3.63698e-05
3.46645e-05
3.49755e-05
3.66726e-05
3.76563e-05
3.82293e-05
3.85255e-05
3.85174e-05
3.82044e-05
3.76332e-05
3.66546e-05
3.49718e-05
3.49711e-05
3.66607e-05
3.76427e-05
3.8214e-05
3.8519e-05
3.85133e-05
3.82031e-05
3.76329e-05
3.66547e-05
3.49721e-05
3.46637e-05
3.63714e-05
3.73798e-05
3.79531e-05
3.82163e-05
3.82143e-05
3.79493e-05
3.73767e-05
3.63703e-05
3.46663e-05
3.39999e-05
3.57575e-05
3.68581e-05
3.73955e-05
3.76407e-05
3.76401e-05
3.73945e-05
3.68575e-05
3.57581e-05
3.40025e-05
3.29374e-05
3.46709e-05
3.58437e-05
3.63941e-05
3.66606e-05
3.66605e-05
3.6394e-05
3.58438e-05
3.46712e-05
3.29389e-05
3.19392e-05
3.29721e-05
3.4026e-05
3.4673e-05
3.49744e-05
3.49744e-05
3.46733e-05
3.40265e-05
3.29716e-05
3.1939e-05
3.2298e-05
3.26946e-05
3.36759e-05
3.43394e-05
3.4651e-05
3.46507e-05
3.43395e-05
3.36876e-05
3.27141e-05
3.23054e-05
3.27235e-05
3.43766e-05
3.55063e-05
3.61422e-05
3.64335e-05
3.64312e-05
3.61449e-05
3.55569e-05
3.43385e-05
3.26818e-05
3.37044e-05
3.55962e-05
3.66725e-05
3.72196e-05
3.74832e-05
3.74798e-05
3.72138e-05
3.6637e-05
3.54726e-05
3.36655e-05
3.43531e-05
3.61719e-05
3.72403e-05
3.78282e-05
3.80936e-05
3.80929e-05
3.78077e-05
3.71958e-05
3.61233e-05
3.43383e-05
3.46587e-05
3.6443e-05
3.74918e-05
3.81031e-05
3.84177e-05
3.84099e-05
3.80789e-05
3.74697e-05
3.64263e-05
3.46565e-05
3.46548e-05
3.64315e-05
3.74788e-05
3.80886e-05
3.84122e-05
3.84067e-05
3.8078e-05
3.74696e-05
3.64265e-05
3.46571e-05
3.43369e-05
3.61247e-05
3.7199e-05
3.78107e-05
3.80918e-05
3.80898e-05
3.78071e-05
3.71963e-05
3.61245e-05
3.43408e-05
3.3667e-05
3.54745e-05
3.66395e-05
3.72157e-05
3.74782e-05
3.74777e-05
3.72148e-05
3.66392e-05
3.54759e-05
3.36709e-05
3.26875e-05
3.43438e-05
3.55621e-05
3.61496e-05
3.64335e-05
3.64334e-05
3.61495e-05
3.55623e-05
3.43447e-05
3.269e-05
3.23115e-05
3.2723e-05
3.36954e-05
3.43486e-05
3.46603e-05
3.46602e-05
3.43487e-05
3.36957e-05
3.27224e-05
3.23112e-05
3.32333e-05
3.25941e-05
3.33873e-05
3.40325e-05
3.4349e-05
3.43498e-05
3.4036e-05
3.34046e-05
3.26175e-05
3.32408e-05
3.26192e-05
3.40657e-05
3.52218e-05
3.58932e-05
3.62036e-05
3.62029e-05
3.59009e-05
3.52804e-05
3.4037e-05
3.25833e-05
3.34167e-05
3.53134e-05
3.64489e-05
3.70349e-05
3.73171e-05
3.73151e-05
3.70329e-05
3.64188e-05
3.51957e-05
3.33814e-05
3.40485e-05
3.59254e-05
3.70569e-05
3.76825e-05
3.7966e-05
3.79662e-05
3.76643e-05
3.70151e-05
3.58792e-05
3.40351e-05
3.43587e-05
3.62148e-05
3.73271e-05
3.79762e-05
3.83091e-05
3.83019e-05
3.79532e-05
3.73063e-05
3.61993e-05
3.43569e-05
3.4355e-05
3.6204e-05
3.7315e-05
3.79629e-05
3.8305e-05
3.82998e-05
3.79529e-05
3.73065e-05
3.61996e-05
3.43574e-05
3.40335e-05
3.58805e-05
3.70185e-05
3.76682e-05
3.7967e-05
3.79652e-05
3.76648e-05
3.70161e-05
3.58807e-05
3.40375e-05
3.33825e-05
3.51976e-05
3.64218e-05
3.7036e-05
3.73158e-05
3.73153e-05
3.70352e-05
3.64217e-05
3.51993e-05
3.33868e-05
3.25889e-05
3.40418e-05
3.52859e-05
3.59068e-05
3.62074e-05
3.62073e-05
3.59067e-05
3.52863e-05
3.4043e-05
3.2592e-05
3.32541e-05
3.26254e-05
3.34126e-05
3.40463e-05
3.43612e-05
3.4361e-05
3.40462e-05
3.34125e-05
3.2624e-05
3.32503e-05
3.494e-05
3.27139e-05
3.31716e-05
3.37597e-05
3.40703e-05
3.40718e-05
3.37662e-05
3.31937e-05
3.27373e-05
3.49133e-05
3.27352e-05
3.37896e-05
3.49436e-05
3.56455e-05
3.59743e-05
3.59755e-05
3.56589e-05
3.5011e-05
3.3771e-05
3.27003e-05
3.32e-05
3.50361e-05
3.62247e-05
3.68492e-05
3.71503e-05
3.71501e-05
3.6852e-05
3.62015e-05
3.49264e-05
3.31685e-05
3.37766e-05
3.56797e-05
3.68723e-05
3.75358e-05
3.78375e-05
3.78391e-05
3.75208e-05
3.68345e-05
3.56376e-05
3.3765e-05
3.40809e-05
3.5987e-05
3.71616e-05
3.78485e-05
3.81997e-05
3.81933e-05
3.78274e-05
3.7143e-05
3.59737e-05
3.40798e-05
3.40777e-05
3.59773e-05
3.71508e-05
3.78367e-05
3.81972e-05
3.81926e-05
3.78276e-05
3.71434e-05
3.59742e-05
3.40804e-05
3.37636e-05
3.56386e-05
3.68381e-05
3.75256e-05
3.78421e-05
3.78405e-05
3.75225e-05
3.68361e-05
3.56393e-05
3.37675e-05
3.31705e-05
3.49283e-05
3.6205e-05
3.68565e-05
3.71535e-05
3.7153e-05
3.68557e-05
3.62049e-05
3.493e-05
3.31742e-05
3.2707e-05
3.3776e-05
3.50175e-05
3.56666e-05
3.59827e-05
3.59825e-05
3.56662e-05
3.50173e-05
3.37769e-05
3.27096e-05
3.49362e-05
3.27433e-05
3.32009e-05
3.37772e-05
3.40846e-05
3.40842e-05
3.37764e-05
3.32e-05
3.27413e-05
3.49334e-05
3.76102e-05
3.31645e-05
3.30711e-05
3.35406e-05
3.3828e-05
3.38302e-05
3.35489e-05
3.30945e-05
3.31761e-05
3.75185e-05
3.31767e-05
3.35765e-05
3.46815e-05
3.54044e-05
3.57492e-05
3.57521e-05
3.54226e-05
3.47555e-05
3.35638e-05
3.31385e-05
3.3096e-05
3.47749e-05
3.60042e-05
3.66651e-05
3.69845e-05
3.6986e-05
3.66721e-05
3.59866e-05
3.46705e-05
3.30669e-05
3.35567e-05
3.544e-05
3.66888e-05
3.73895e-05
3.77093e-05
3.7712e-05
3.73773e-05
3.66545e-05
3.54005e-05
3.35458e-05
3.38382e-05
3.57626e-05
3.69965e-05
3.77207e-05
3.80899e-05
3.80845e-05
3.77014e-05
3.69798e-05
3.57505e-05
3.38367e-05
3.38351e-05
3.57538e-05
3.6987e-05
3.77103e-05
3.80888e-05
3.80848e-05
3.77021e-05
3.69805e-05
3.5751e-05
3.38371e-05
3.35447e-05
3.54014e-05
3.66581e-05
3.73827e-05
3.77168e-05
3.77153e-05
3.73799e-05
3.66564e-05
3.5402e-05
3.35479e-05
3.30687e-05
3.46719e-05
3.599e-05
3.66771e-05
3.6991e-05
3.69905e-05
3.66763e-05
3.59898e-05
3.46733e-05
3.30725e-05
3.31462e-05
3.35676e-05
3.47611e-05
3.54299e-05
3.57599e-05
3.57596e-05
3.54294e-05
3.47606e-05
3.35682e-05
3.31509e-05
3.75708e-05
3.31859e-05
3.31001e-05
3.35582e-05
3.38414e-05
3.38408e-05
3.35571e-05
3.30983e-05
3.31816e-05
3.75603e-05
4.14889e-05
3.4088e-05
3.31381e-05
3.34005e-05
3.36376e-05
3.36403e-05
3.34101e-05
3.31588e-05
3.40672e-05
4.12652e-05
3.40844e-05
3.34497e-05
3.44369e-05
3.5168e-05
3.55262e-05
3.55307e-05
3.5191e-05
3.45174e-05
3.34405e-05
3.40195e-05
3.3156e-05
3.4531e-05
3.57856e-05
3.64811e-05
3.68186e-05
3.68217e-05
3.64924e-05
3.5774e-05
3.44332e-05
3.31244e-05
3.34138e-05
3.5205e-05
3.65055e-05
3.72429e-05
3.75806e-05
3.75847e-05
3.72338e-05
3.6475e-05
3.51695e-05
3.3403e-05
3.36462e-05
3.55406e-05
3.68313e-05
3.75925e-05
3.79796e-05
3.79752e-05
3.75753e-05
3.6817e-05
3.55308e-05
3.36446e-05
3.36435e-05
3.55328e-05
3.6823e-05
3.75834e-05
3.798e-05
3.79767e-05
3.75765e-05
3.68178e-05
3.55313e-05
3.36451e-05
3.34032e-05
3.51695e-05
3.64783e-05
3.72396e-05
3.75911e-05
3.75899e-05
3.72373e-05
3.64772e-05
3.51708e-05
3.34051e-05
3.31291e-05
3.44334e-05
3.57771e-05
3.64978e-05
3.68285e-05
3.68281e-05
3.64972e-05
3.57772e-05
3.44353e-05
3.31311e-05
3.40356e-05
3.34441e-05
3.45226e-05
3.51986e-05
3.55398e-05
3.55395e-05
3.5198e-05
3.45222e-05
3.34444e-05
3.40372e-05
4.13591e-05
3.40787e-05
3.31605e-05
3.34158e-05
3.3649e-05
3.36485e-05
3.34147e-05
3.3158e-05
3.40698e-05
4.13287e-05
4.65322e-05
3.56254e-05
3.34436e-05
3.33749e-05
3.35266e-05
3.35289e-05
3.33829e-05
3.34548e-05
3.55636e-05
4.62632e-05
3.5607e-05
3.34602e-05
3.42257e-05
3.4944e-05
3.531e-05
3.53155e-05
3.49693e-05
3.43083e-05
3.34454e-05
3.55047e-05
3.34523e-05
3.43191e-05
3.5574e-05
3.63e-05
3.66543e-05
3.66584e-05
3.63139e-05
3.55656e-05
3.42244e-05
3.34125e-05
3.33834e-05
3.49803e-05
3.63243e-05
3.70975e-05
3.74526e-05
3.74575e-05
3.70904e-05
3.62962e-05
3.49474e-05
3.33702e-05
3.35318e-05
3.53234e-05
3.66668e-05
3.74645e-05
3.78692e-05
3.78657e-05
3.74488e-05
3.66541e-05
3.53155e-05
3.35288e-05
3.35294e-05
3.53162e-05
3.66593e-05
3.74564e-05
3.78707e-05
3.7868e-05
3.74504e-05
3.66551e-05
3.53159e-05
3.35293e-05
3.33737e-05
3.49458e-05
3.6299e-05
3.70961e-05
3.7465e-05
3.7464e-05
3.70943e-05
3.62985e-05
3.49481e-05
3.33732e-05
3.34252e-05
3.42228e-05
3.55676e-05
3.63189e-05
3.66657e-05
3.66654e-05
3.63186e-05
3.55682e-05
3.42254e-05
3.34239e-05
3.55419e-05
3.34501e-05
3.43124e-05
3.49757e-05
3.53239e-05
3.53237e-05
3.49752e-05
3.43121e-05
3.34487e-05
3.55347e-05
4.6379e-05
3.55826e-05
3.34558e-05
3.33854e-05
3.3534e-05
3.35334e-05
3.33837e-05
3.34506e-05
3.55642e-05
4.63273e-05
5.25317e-05
3.79183e-05
3.40911e-05
3.35176e-05
3.35318e-05
3.35334e-05
3.3522e-05
3.40871e-05
3.78385e-05
5.22951e-05
3.78804e-05
3.36652e-05
3.4061e-05
3.47351e-05
3.51016e-05
3.51076e-05
3.4761e-05
3.41422e-05
3.36406e-05
3.77599e-05
3.40832e-05
3.41544e-05
3.53706e-05
3.61216e-05
3.64912e-05
3.64958e-05
3.61364e-05
3.5363e-05
3.40588e-05
3.40298e-05
3.35183e-05
3.47716e-05
3.61458e-05
3.69531e-05
3.73251e-05
3.73305e-05
3.69469e-05
3.61184e-05
3.47387e-05
3.34995e-05
3.35319e-05
3.51154e-05
3.65038e-05
3.73371e-05
3.77589e-05
3.77558e-05
3.7322e-05
3.64914e-05
3.51073e-05
3.35262e-05
3.35295e-05
3.51086e-05
3.64966e-05
3.73294e-05
3.77611e-05
3.77586e-05
3.73237e-05
3.64924e-05
3.51075e-05
3.35272e-05
3.35074e-05
3.47376e-05
3.61214e-05
3.69527e-05
3.73384e-05
3.73375e-05
3.69509e-05
3.61206e-05
3.47389e-05
3.3505e-05
3.40506e-05
3.40581e-05
3.5365e-05
3.61412e-05
3.65031e-05
3.65028e-05
3.61406e-05
3.53649e-05
3.40589e-05
3.40482e-05
3.78109e-05
3.36486e-05
3.41467e-05
3.47664e-05
3.51148e-05
3.51145e-05
3.47654e-05
3.41451e-05
3.36441e-05
3.7806e-05
5.23896e-05
3.78517e-05
3.40839e-05
3.35201e-05
3.35343e-05
3.35337e-05
3.35181e-05
3.40765e-05
3.7834e-05
5.2351e-05
5.92472e-05
4.10198e-05
3.52083e-05
3.39093e-05
3.37057e-05
3.37061e-05
3.39073e-05
3.51865e-05
4.09207e-05
5.9068e-05
4.09498e-05
3.41274e-05
3.39632e-05
3.45475e-05
3.49036e-05
3.49096e-05
3.45722e-05
3.404e-05
3.40878e-05
4.08132e-05
3.51714e-05
3.40555e-05
3.51774e-05
3.59457e-05
3.63291e-05
3.63337e-05
3.59603e-05
3.51688e-05
3.39559e-05
3.51043e-05
3.38944e-05
3.45844e-05
3.59699e-05
3.68096e-05
3.71979e-05
3.72033e-05
3.68033e-05
3.59419e-05
3.45496e-05
3.3869e-05
3.36963e-05
3.49186e-05
3.63418e-05
3.72099e-05
3.76485e-05
3.76456e-05
3.71948e-05
3.63287e-05
3.49089e-05
3.36893e-05
3.36936e-05
3.4912e-05
3.63348e-05
3.72025e-05
3.76511e-05
3.76488e-05
3.71966e-05
3.63298e-05
3.49092e-05
3.36916e-05
3.38809e-05
3.45504e-05
3.59459e-05
3.68095e-05
3.72116e-05
3.72106e-05
3.68073e-05
3.59439e-05
3.45496e-05
3.38793e-05
3.51312e-05
3.39581e-05
3.51721e-05
3.59654e-05
3.63411e-05
3.63405e-05
3.59641e-05
3.51704e-05
3.39561e-05
3.51346e-05
4.08643e-05
3.40969e-05
3.40459e-05
3.45783e-05
3.49167e-05
3.49162e-05
3.45763e-05
3.40426e-05
3.40917e-05
4.08711e-05
5.911e-05
4.08994e-05
3.51679e-05
3.3897e-05
3.37023e-05
3.37019e-05
3.38958e-05
3.51625e-05
4.08914e-05
5.90947e-05
6.64343e-05
4.53316e-05
3.68992e-05
3.46224e-05
3.41145e-05
3.41111e-05
3.46088e-05
3.68615e-05
4.52623e-05
6.6366e-05
4.52294e-05
3.49592e-05
3.39687e-05
3.43993e-05
3.47285e-05
3.47333e-05
3.44198e-05
3.40363e-05
3.49106e-05
4.51339e-05
3.68283e-05
3.40565e-05
3.50028e-05
3.57758e-05
3.61702e-05
3.61741e-05
3.5788e-05
3.49892e-05
3.39482e-05
3.67675e-05
3.45907e-05
3.4433e-05
3.57993e-05
3.66683e-05
3.7072e-05
3.70769e-05
3.666e-05
3.57679e-05
3.4392e-05
3.45646e-05
3.40965e-05
3.47414e-05
3.61821e-05
3.70836e-05
3.75385e-05
3.75352e-05
3.70672e-05
3.61665e-05
3.47272e-05
3.40909e-05
3.40921e-05
3.47341e-05
3.61744e-05
3.70756e-05
3.75407e-05
3.75381e-05
3.70688e-05
3.61675e-05
3.47276e-05
3.40939e-05
3.45743e-05
3.43962e-05
3.57731e-05
3.66662e-05
3.70842e-05
3.7083e-05
3.66632e-05
3.57694e-05
3.43924e-05
3.45801e-05
3.67974e-05
3.39528e-05
3.49929e-05
3.5792e-05
3.61795e-05
3.61788e-05
3.57901e-05
3.49897e-05
3.39494e-05
3.68102e-05
4.51989e-05
3.49181e-05
3.404e-05
3.44222e-05
3.4736e-05
3.47355e-05
3.44199e-05
3.40364e-05
3.49138e-05
4.51974e-05
6.63974e-05
4.52201e-05
3.68404e-05
3.45992e-05
3.41079e-05
3.4107e-05
3.45961e-05
3.68297e-05
4.52011e-05
6.63493e-05
7.39904e-05
5.06234e-05
3.93206e-05
3.57876e-05
3.48615e-05
3.48561e-05
3.57678e-05
3.92817e-05
5.06443e-05
7.40645e-05
5.05242e-05
3.62758e-05
3.41114e-05
3.4298e-05
3.45789e-05
3.45819e-05
3.43132e-05
3.41691e-05
3.62281e-05
5.04991e-05
3.92372e-05
3.41923e-05
3.48465e-05
3.56092e-05
3.60121e-05
3.60151e-05
3.56185e-05
3.48283e-05
3.40769e-05
3.91681e-05
3.57467e-05
3.43266e-05
3.56317e-05
3.65272e-05
3.69462e-05
3.69503e-05
3.65169e-05
3.55974e-05
3.42812e-05
3.57086e-05
3.48388e-05
3.45889e-05
3.60232e-05
3.69572e-05
3.74283e-05
3.74246e-05
3.69394e-05
3.60055e-05
3.45722e-05