/*--------------------------------*- C++ -*----------------------------------*\
| =========                 |                                                 |
| \\      /  F ield         | OpenFOAM: The Open Source CFD Toolbox           |
|  \\    /   O peration     | Version:  2406                                  |
|   \\  /    A nd           | Website:  www.openfoam.com                      |
|    \\/     M anipulation  |                                                 |
\*---------------------------------------------------------------------------*/
FoamFile
{
    version     2.0;
    format      ascii;
    arch        "LSB;label=32;scalar=64";
    class       volScalarField;
    location    "50";
    object      p;
}
// * * * * * * * * * * * * * * * * * * * * * * * * * * * * * * * * * * * * * //

dimensions      [0 2 -2 0 0 0 0];

internalField   nonuniform List<scalar> 
25000
(
0.000767584
0.000962926
0.000894885
0.000838495
0.000876718
0.00105996
0.00141806
0.00196645
0.0027132
0.0036565
0.00108594
0.000399472
-8.14923e-06
-0.000225313
-0.000259203
-9.45763e-05
0.000283325
0.000886181
0.0017207
0.0027874
0.0010325
5.17278e-05
-0.00058608
-0.000944496
-0.00105246
-0.000917655
-0.000537422
9.59188e-05
0.000986663
0.00214262
0.000957603
-0.000147372
-0.000910811
-0.00136576
-0.0015345
-0.00143105
-0.00105784
-0.000412811
0.000510364
0.00172387
0.000979576
-0.000178521
-0.00100428
-0.00151404
-0.00172483
-0.0016476
-0.00128809
-0.000643814
0.000291443
0.00152955
0.00114778
-1.78388e-05
-0.000862161
-0.00139811
-0.00163297
-0.00157698
-0.00123283
-0.000600389
0.000326041
0.00155864
0.00149833
0.000358187
-0.000477926
-0.00101526
-0.00126157
-0.00121992
-0.000894838
-0.000284764
0.000613913
0.00181033
0.0020411
0.000959763
0.000159689
-0.00036311
-0.000607364
-0.000577178
-0.000273835
0.000303569
0.00115431
0.00228355
0.00278763
0.00179395
0.00105257
0.000564775
0.000334007
0.0003563
0.000632688
0.00116225
0.00194521
0.00297711
0.00373135
0.00285942
0.00220809
0.00177968
0.00157422
0.00159181
0.00183217
0.00229546
0.00298154
0.00388424
-0.0123532
-0.0124259
-0.012633
-0.0128004
-0.0128881
-0.0129434
-0.0130048
-0.0130912
-0.0132056
-0.0133403
-0.0123926
-0.0124866
-0.0126294
-0.0127153
-0.0127709
-0.0128081
-0.0128488
-0.012906
-0.0129903
-0.0131702
-0.0125575
-0.0125908
-0.0126536
-0.0126874
-0.0127144
-0.0127371
-0.0127626
-0.0128026
-0.0128737
-0.0130232
-0.0126863
-0.0126378
-0.0126469
-0.012664
-0.012681
-0.012695
-0.0127102
-0.0127367
-0.0127923
-0.0129129
-0.0127465
-0.0126573
-0.0126389
-0.0126436
-0.012655
-0.0126652
-0.0126748
-0.012694
-0.012742
-0.0128466
-0.0127916
-0.0126753
-0.0126325
-0.0126269
-0.0126325
-0.0126406
-0.0126504
-0.0126708
-0.0127201
-0.0128262
-0.0128504
-0.0127028
-0.0126406
-0.0126181
-0.0126165
-0.0126233
-0.0126382
-0.0126676
-0.0127278
-0.0128524
-0.0129396
-0.0127561
-0.0126697
-0.0126306
-0.0126183
-0.0126248
-0.0126478
-0.0126915
-0.0127689
-0.0129251
-0.0130552
-0.0128412
-0.0127389
-0.0126825
-0.0126595
-0.0126654
-0.0126967
-0.0127567
-0.0128491
-0.013038
-0.0131919
-0.0130274
-0.0128965
-0.0128094
-0.0127691
-0.012773
-0.01282
-0.0129086
-0.013032
-0.0131786
-0.0290317
-0.0291867
-0.0297287
-0.03009
-0.0302656
-0.030408
-0.0305691
-0.0307622
-0.0310073
-0.0312926
-0.0291503
-0.0292013
-0.029488
-0.029703
-0.0298507
-0.029988
-0.0301577
-0.0303801
-0.0306544
-0.0309916
-0.0296306
-0.0294375
-0.0294135
-0.0294681
-0.0295552
-0.029674
-0.0298467
-0.0300861
-0.0303836
-0.0307484
-0.0299415
-0.0296039
-0.0294192
-0.0293548
-0.0293754
-0.0294658
-0.0296315
-0.0298758
-0.0301914
-0.0305851
-0.0300954
-0.0297211
-0.0294702
-0.0293351
-0.0293046
-0.0293681
-0.0295225
-0.0297658
-0.0300914
-0.030497
-0.0302352
-0.0298472
-0.0295684
-0.0293985
-0.0293372
-0.0293801
-0.0295229
-0.0297606
-0.0300841
-0.03049
-0.0304031
-0.030016
-0.0297332
-0.0295491
-0.0294719
-0.0295007
-0.029632
-0.0298594
-0.0301693
-0.0305637
-0.030609
-0.0302442
-0.0299728
-0.0297886
-0.029706
-0.0297255
-0.0298448
-0.030058
-0.030346
-0.0307111
-0.030867
-0.0305271
-0.030276
-0.0301083
-0.0300319
-0.0300456
-0.0301477
-0.030337
-0.0305995
-0.0309364
-0.0311613
-0.0308737
-0.030653
-0.0305144
-0.0304476
-0.0304572
-0.0305432
-0.0306995
-0.0309313
-0.0312172
-0.039938
-0.0401871
-0.0406115
-0.0408133
-0.0409064
-0.0410149
-0.0411241
-0.0412237
-0.0413427
-0.0414773
-0.0401162
-0.0402418
-0.0404419
-0.0405823
-0.0406926
-0.0408026
-0.0409171
-0.0410408
-0.0411813
-0.041326
-0.0404773
-0.0403732
-0.0403712
-0.0404546
-0.040552
-0.040654
-0.0407683
-0.0409017
-0.0410516
-0.0412185
-0.0406465
-0.0404726
-0.0404044
-0.0404245
-0.0404839
-0.0405658
-0.0406731
-0.0408095
-0.0409704
-0.0411641
-0.0407297
-0.0405672
-0.0404771
-0.0404528
-0.0404772
-0.0405385
-0.0406356
-0.0407696
-0.0409362
-0.0411399
-0.0408379
-0.0406768
-0.0405725
-0.040522
-0.0405219
-0.0405655
-0.0406512
-0.0407791
-0.0409436
-0.0411484
-0.040957
-0.0407999
-0.0406926
-0.0406295
-0.040615
-0.0406446
-0.0407178
-0.0408357
-0.040991
-0.0411878
-0.0410799
-0.040942
-0.0408409
-0.0407761
-0.0407547
-0.0407741
-0.040835
-0.0409395
-0.04108
-0.0412508
-0.0412297
-0.041108
-0.0410114
-0.0409547
-0.0409332
-0.0409457
-0.0409928
-0.0410801
-0.0412086
-0.0413563
-0.0413927
-0.0412769
-0.0412021
-0.0411683
-0.0411518
-0.0411592
-0.0411931
-0.0412507
-0.0413541
-0.0414913
-0.0467193
-0.0468135
-0.046842
-0.0467108
-0.0466136
-0.0466077
-0.0466312
-0.0466604
-0.0467115
-0.0467723
-0.0468047
-0.0467501
-0.046622
-0.0465088
-0.0464629
-0.0464738
-0.0465092
-0.0465571
-0.0466274
-0.0466978
-0.046831
-0.0466192
-0.0464424
-0.0463757
-0.0463613
-0.0463843
-0.0464274
-0.0464857
-0.0465651
-0.0466599
-0.0467021
-0.0465118
-0.0463808
-0.0463263
-0.046316
-0.0463376
-0.0463828
-0.0464493
-0.0465388
-0.0466582
-0.0465979
-0.0464664
-0.0463737
-0.0463261
-0.0463143
-0.0463311
-0.0463728
-0.0464405
-0.0465348
-0.0466644
-0.0465806
-0.0464753
-0.0464018
-0.0463588
-0.0463442
-0.0463544
-0.0463904
-0.0464551
-0.0465487
-0.0466802
-0.0466006
-0.0465122
-0.0464527
-0.0464148
-0.0463991
-0.0464041
-0.0464325
-0.0464903
-0.0465794
-0.0467048
-0.04664
-0.0465722
-0.046524
-0.0464936
-0.0464789
-0.0464803
-0.0465013
-0.0465482
-0.0466272
-0.046732
-0.0467126
-0.0466636
-0.0466198
-0.046596
-0.0465815
-0.0465799
-0.0465946
-0.0466305
-0.0467007
-0.0467818
-0.046796
-0.0467537
-0.0467297
-0.046722
-0.0467111
-0.046707
-0.0467136
-0.0467283
-0.0467744
-0.0468435
-0.0517365
-0.0517064
-0.0514501
-0.0510882
-0.0508386
-0.0507181
-0.0506574
-0.0506285
-0.0506222
-0.050607
-0.0517682
-0.0515859
-0.051244
-0.0509639
-0.0507982
-0.0507166
-0.0506776
-0.0506604
-0.0506613
-0.0506459
-0.0515823
-0.0513219
-0.0510378
-0.0508665
-0.0507666
-0.0507218
-0.0507025
-0.0506957
-0.0507027
-0.0507044
-0.0512744
-0.0511036
-0.0509376
-0.0508286
-0.0507655
-0.0507393
-0.0507321
-0.0507362
-0.0507509
-0.0507708
-0.0510541
-0.0509721
-0.0508869
-0.0508239
-0.0507851
-0.0507678
-0.0507645
-0.0507722
-0.0507897
-0.0508188
-0.0509506
-0.0509123
-0.0508743
-0.0508411
-0.0508162
-0.0508019
-0.0507981
-0.0508047
-0.0508213
-0.0508518
-0.0509034
-0.0508926
-0.0508819
-0.0508673
-0.0508512
-0.0508381
-0.0508311
-0.0508331
-0.0508463
-0.0508719
-0.050889
-0.0508977
-0.0509014
-0.0508987
-0.0508875
-0.0508742
-0.0508634
-0.0508563
-0.0508628
-0.0508754
-0.0509061
-0.0509287
-0.0509348
-0.0509354
-0.050923
-0.0509082
-0.0508936
-0.0508803
-0.0508807
-0.0508778
-0.0509216
-0.0509474
-0.0509631
-0.0509697
-0.050958
-0.0509398
-0.0509191
-0.050893
-0.0508783
-0.050868
-0.0572122
-0.0570643
-0.056645
-0.05618
-0.0558669
-0.0556972
-0.0556062
-0.0555719
-0.0555692
-0.0555475
-0.0571723
-0.0569074
-0.0564864
-0.0561485
-0.0559294
-0.0557988
-0.0557254
-0.0556891
-0.0556746
-0.055638
-0.0568635
-0.0566068
-0.0563187
-0.0561188
-0.0559743
-0.0558838
-0.0558269
-0.0557915
-0.0557707
-0.0557326
-0.0564827
-0.0563565
-0.056218
-0.0561042
-0.0560137
-0.0559514
-0.0559083
-0.0558771
-0.0558519
-0.055816
-0.0562275
-0.0561904
-0.0561393
-0.0560879
-0.0560391
-0.0559993
-0.055966
-0.0559365
-0.0559072
-0.0558712
-0.056094
-0.0560955
-0.0560903
-0.0560765
-0.0560543
-0.0560296
-0.0560038
-0.0559752
-0.0559427
-0.0559054
-0.0560132
-0.0560406
-0.0560609
-0.0560672
-0.0560595
-0.0560442
-0.0560229
-0.0559945
-0.0559617
-0.0559235
-0.0559677
-0.0560107
-0.0560408
-0.0560558
-0.0560534
-0.0560418
-0.0560224
-0.0559934
-0.0559627
-0.0559247
-0.055953
-0.0560015
-0.0560284
-0.0560392
-0.0560332
-0.0560207
-0.0560042
-0.0559789
-0.0559544
-0.0559186
-0.0559334
-0.0559793
-0.0560005
-0.0560053
-0.0559948
-0.0559802
-0.0559637
-0.0559411
-0.0559206
-0.0558899
-0.0631638
-0.062955
-0.0625539
-0.0621741
-0.0619408
-0.0618112
-0.0617321
-0.0617035
-0.0617084
-0.0616899
-0.0630593
-0.0627974
-0.0624696
-0.0622293
-0.062069
-0.0619611
-0.061892
-0.0618583
-0.0618492
-0.0618151
-0.0627803
-0.062599
-0.0624272
-0.0623007
-0.0621823
-0.0620919
-0.0620291
-0.0619906
-0.0619686
-0.0619256
-0.0625102
-0.0624597
-0.0624106
-0.0623458
-0.0622655
-0.0621946
-0.0621393
-0.0620977
-0.0620624
-0.0620093
-0.0623733
-0.0623759
-0.0623717
-0.0623494
-0.0623072
-0.0622606
-0.0622158
-0.0621725
-0.0621252
-0.0620628
-0.0623159
-0.0623279
-0.0623391
-0.0623395
-0.0623236
-0.0622972
-0.0622625
-0.062219
-0.0621659
-0.0620987
-0.0622707
-0.0622948
-0.0623158
-0.0623277
-0.0623251
-0.0623101
-0.0622822
-0.0622405
-0.0621881
-0.0621232
-0.0622416
-0.0622759
-0.0622999
-0.0623136
-0.0623129
-0.062301
-0.062277
-0.0622385
-0.0621935
-0.0621365
-0.0622395
-0.062276
-0.062293
-0.0622951
-0.0622859
-0.0622718
-0.0622515
-0.0622219
-0.0621878
-0.0621408
-0.0622316
-0.0622687
-0.0622737
-0.0622613
-0.0622409
-0.0622215
-0.0622029
-0.06218
-0.0621549
-0.0621153
-0.0701647
-0.0699423
-0.0696905
-0.0695247
-0.0694593
-0.0694255
-0.069396
-0.0694074
-0.069459
-0.0694863
-0.0700549
-0.0698467
-0.0696998
-0.0696293
-0.0695793
-0.0695317
-0.0694992
-0.0695024
-0.0695412
-0.0695629
-0.0699223
-0.0698266
-0.0697929
-0.0697618
-0.0696945
-0.069632
-0.0695914
-0.0695809
-0.0695999
-0.0696086
-0.069855
-0.0698483
-0.0698628
-0.0698368
-0.0697736
-0.0697118
-0.0696672
-0.0696426
-0.0696344
-0.0696214
-0.0698831
-0.0698705
-0.0698675
-0.0698466
-0.0698043
-0.0697584
-0.0697167
-0.0696816
-0.069652
-0.0696173
-0.0699211
-0.06988
-0.0698542
-0.0698342
-0.0698078
-0.0697768
-0.0697415
-0.0697031
-0.0696628
-0.0696182
-0.0699194
-0.0698732
-0.0698402
-0.0698177
-0.0697975
-0.0697744
-0.0697456
-0.0697106
-0.0696734
-0.0696307
-0.0699148
-0.069871
-0.0698327
-0.0698033
-0.069779
-0.0697579
-0.069736
-0.0697107
-0.0696848
-0.0696515
-0.0699288
-0.0698899
-0.0698411
-0.0697952
-0.0697586
-0.0697357
-0.0697218
-0.0697101
-0.0696984
-0.0696741
-0.0699436
-0.0699125
-0.0698527
-0.0697888
-0.0697383
-0.0697101
-0.0696999
-0.0696972
-0.0696941
-0.0696734
-0.0771381
-0.0770731
-0.0771185
-0.0772545
-0.0773976
-0.077473
-0.0774943
-0.0775329
-0.0776071
-0.0776568
-0.0771473
-0.0771516
-0.0772807
-0.0774304
-0.0775174
-0.0775473
-0.0775604
-0.0775992
-0.0776737
-0.0777285
-0.0772586
-0.0773547
-0.0775077
-0.077605
-0.0776211
-0.0776159
-0.0776195
-0.0776473
-0.0777031
-0.0777485
-0.0774371
-0.0775462
-0.0776557
-0.0776969
-0.0776876
-0.0776725
-0.0776671
-0.0776768
-0.0777028
-0.077724
-0.0776359
-0.0776759
-0.077709
-0.0777218
-0.0777158
-0.0777059
-0.0776966
-0.0776912
-0.0776913
-0.077688
-0.0777668
-0.0777502
-0.0777373
-0.0777323
-0.077728
-0.0777222
-0.0777123
-0.0777002
-0.0776874
-0.0776698
-0.0778172
-0.0777882
-0.0777606
-0.0777438
-0.0777344
-0.077728
-0.0777206
-0.0777109
-0.0776975
-0.0776751
-0.077847
-0.0778193
-0.0777866
-0.0777585
-0.0777395
-0.0777304
-0.0777281
-0.0777257
-0.0777185
-0.0776971
-0.0778847
-0.0778597
-0.0778211
-0.07778
-0.0777498
-0.077738
-0.0777395
-0.0777452
-0.0777439
-0.0777241
-0.0779198
-0.0778979
-0.0778536
-0.0778039
-0.0777669
-0.0777502
-0.0777498
-0.077754
-0.077752
-0.0777311
-0.0850482
-0.0851241
-0.0853867
-0.085715
-0.0859668
-0.0860858
-0.0861198
-0.086162
-0.0862443
-0.0863133
-0.0851342
-0.0853039
-0.0856037
-0.0858666
-0.0860074
-0.0860588
-0.0860833
-0.0861359
-0.0862329
-0.0863219
-0.0853524
-0.0855738
-0.0858189
-0.0859649
-0.086007
-0.0860198
-0.0860418
-0.086094
-0.0861819
-0.086269
-0.0856043
-0.0857767
-0.0859136
-0.0859675
-0.0859725
-0.085977
-0.0859974
-0.0860408
-0.0861078
-0.0861761
-0.0858194
-0.0858866
-0.0859175
-0.0859254
-0.0859251
-0.0859334
-0.0859542
-0.0859902
-0.0860399
-0.0860881
-0.0859311
-0.0859343
-0.0859147
-0.0858997
-0.0858951
-0.0859042
-0.0859262
-0.0859597
-0.0859991
-0.086032
-0.0859538
-0.0859489
-0.085923
-0.0859
-0.0858901
-0.0858982
-0.0859226
-0.0859566
-0.0859899
-0.0860095
-0.0859581
-0.085961
-0.0859425
-0.08592
-0.0859082
-0.0859165
-0.0859428
-0.0859779
-0.0860058
-0.0860143
-0.0859707
-0.0859794
-0.0859698
-0.0859523
-0.0859445
-0.0859539
-0.0859807
-0.086013
-0.0860374
-0.0860379
-0.0859888
-0.0859952
-0.0859902
-0.0859833
-0.0859846
-0.0859977
-0.0860197
-0.0860445
-0.0860622
-0.0860574
-0.0927289
-0.0929361
-0.0933267
-0.0937386
-0.0940256
-0.0941548
-0.0941816
-0.0941928
-0.0942343
-0.0942766
-0.0928581
-0.0931518
-0.0935437
-0.0938584
-0.0940209
-0.0940745
-0.0940845
-0.0941103
-0.0941806
-0.0942572
-0.093098
-0.0934078
-0.093713
-0.0938994
-0.0939653
-0.0939795
-0.0939854
-0.0940148
-0.0940829
-0.0941635
-0.0933481
-0.0935823
-0.0937618
-0.0938496
-0.0938756
-0.0938816
-0.0938892
-0.0939177
-0.0939741
-0.0940387
-0.0935466
-0.0936718
-0.0937389
-0.093771
-0.093782
-0.0937886
-0.0938031
-0.0938353
-0.0938848
-0.0939342
-0.0936414
-0.0937036
-0.0937181
-0.0937191
-0.0937177
-0.0937236
-0.0937432
-0.0937797
-0.0938265
-0.0938654
-0.0936549
-0.0937024
-0.0937067
-0.0936986
-0.0936922
-0.0936974
-0.0937195
-0.0937561
-0.0937966
-0.0938244
-0.0936496
-0.093697
-0.093707
-0.0937031
-0.0937007
-0.0937082
-0.0937291
-0.0937608
-0.0937924
-0.0938078
-0.0936468
-0.0936961
-0.0937152
-0.0937223
-0.0937311
-0.0937434
-0.0937614
-0.0937862
-0.0938096
-0.0938119
-0.0936459
-0.0936882
-0.0937146
-0.0937366
-0.0937602
-0.0937809
-0.0937973
-0.0938134
-0.093825
-0.0938141
-0.100286
-0.100499
-0.100857
-0.101219
-0.101472
-0.101607
-0.101651
-0.101657
-0.101673
-0.101697
-0.100373
-0.100641
-0.100989
-0.101268
-0.101418
-0.101474
-0.101482
-0.101488
-0.101529
-0.101597
-0.100515
-0.100786
-0.10107
-0.101261
-0.101339
-0.10135
-0.10133
-0.101321
-0.101354
-0.101423
-0.100666
-0.10088
-0.101072
-0.101192
-0.101239
-0.101232
-0.1012
-0.10118
-0.101196
-0.101245
-0.100799
-0.100932
-0.101033
-0.101102
-0.101126
-0.101114
-0.101086
-0.101071
-0.101084
-0.101119
-0.100873
-0.10095
-0.100994
-0.101021
-0.101026
-0.101012
-0.100994
-0.100992
-0.101013
-0.101047
-0.100892
-0.100936
-0.100948
-0.100952
-0.100948
-0.100937
-0.10093
-0.100939
-0.10097
-0.101009
-0.100893
-0.100916
-0.10091
-0.100904
-0.100901
-0.100897
-0.100899
-0.100918
-0.100956
-0.100998
-0.100882
-0.100903
-0.100891
-0.100881
-0.100884
-0.100891
-0.100902
-0.100931
-0.100976
-0.10101
-0.100864
-0.100884
-0.100875
-0.100871
-0.100882
-0.100902
-0.100928
-0.100965
-0.101005
-0.101019
-0.106923
-0.107091
-0.107359
-0.10762
-0.107821
-0.107966
-0.108041
-0.108041
-0.108016
-0.108007
-0.106923
-0.10712
-0.107389
-0.10761
-0.107749
-0.107831
-0.107862
-0.107854
-0.107844
-0.10787
-0.106949
-0.107151
-0.107397
-0.107589
-0.107693
-0.107727
-0.107709
-0.107673
-0.107655
-0.107681
-0.107011
-0.107186
-0.107387
-0.10755
-0.107636
-0.107641
-0.107592
-0.107534
-0.107502
-0.107516
-0.10711
-0.107238
-0.107377
-0.1075
-0.107561
-0.107552
-0.107497
-0.10744
-0.107412
-0.107423
-0.107204
-0.107288
-0.107368
-0.10744
-0.107473
-0.107459
-0.107415
-0.107376
-0.107367
-0.107392
-0.107269
-0.107311
-0.107338
-0.107366
-0.107381
-0.107371
-0.107345
-0.10733
-0.107347
-0.10739
-0.107305
-0.107315
-0.107302
-0.1073
-0.107306
-0.107303
-0.107297
-0.107307
-0.107348
-0.107404
-0.107308
-0.10731
-0.10728
-0.107261
-0.107262
-0.107271
-0.107284
-0.107318
-0.107375
-0.107432
-0.107284
-0.10729
-0.107262
-0.107242
-0.107246
-0.107269
-0.107304
-0.107355
-0.107414
-0.107451
-0.113138
-0.113222
-0.113366
-0.113502
-0.113624
-0.113753
-0.113831
-0.113807
-0.11373
-0.113691
-0.113064
-0.11316
-0.113314
-0.113441
-0.113538
-0.113629
-0.113682
-0.113657
-0.113583
-0.113554
-0.113001
-0.113098
-0.113251
-0.113385
-0.113475
-0.113527
-0.113536
-0.113501
-0.113441
-0.113415
-0.113001
-0.113082
-0.113216
-0.113348
-0.113431
-0.113453
-0.113427
-0.113383
-0.113341
-0.113329
-0.113077
-0.113132
-0.113224
-0.113327
-0.113388
-0.113391
-0.113356
-0.113318
-0.113301
-0.113315
-0.113181
-0.113211
-0.113256
-0.11331
-0.113341
-0.113337
-0.11331
-0.113292
-0.113304
-0.113342
-0.113264
-0.113271
-0.11327
-0.113281
-0.113292
-0.11329
-0.113281
-0.113286
-0.11332
-0.113372
-0.1133
-0.113293
-0.113267
-0.113253
-0.113255
-0.11326
-0.113267
-0.113291
-0.113336
-0.113391
-0.11329
-0.113282
-0.113254
-0.113237
-0.113241
-0.113254
-0.113275
-0.113307
-0.113355
-0.11341
-0.113258
-0.113252
-0.113233
-0.113227
-0.113241
-0.113267
-0.113297
-0.113336
-0.113387
-0.113435
-0.118842
-0.118903
-0.118979
-0.11902
-0.119066
-0.119148
-0.119183
-0.119093
-0.11893
-0.118828
-0.11879
-0.118856
-0.118936
-0.118983
-0.119032
-0.119111
-0.119156
-0.119084
-0.118913
-0.118783
-0.118749
-0.118792
-0.118863
-0.118925
-0.118981
-0.119042
-0.119075
-0.119035
-0.118914
-0.118795
-0.118774
-0.118789
-0.118836
-0.118898
-0.118951
-0.118987
-0.119006
-0.118995
-0.118942
-0.118874
-0.11887
-0.118865
-0.11888
-0.118917
-0.118949
-0.118967
-0.118981
-0.118995
-0.119001
-0.118991
-0.118977
-0.118975
-0.118967
-0.11897
-0.118977
-0.118985
-0.119001
-0.119031
-0.119068
-0.11909
-0.119042
-0.119055
-0.119041
-0.119027
-0.119023
-0.119028
-0.119046
-0.119078
-0.119113
-0.119128
-0.119038
-0.11907
-0.119075
-0.119072
-0.119075
-0.119082
-0.119094
-0.119107
-0.119113
-0.119107
-0.118983
-0.119024
-0.119059
-0.119091
-0.119115
-0.119127
-0.119122
-0.119102
-0.119076
-0.119063
-0.118925
-0.118959
-0.119009
-0.119069
-0.119119
-0.119136
-0.119115
-0.119074
-0.119042
-0.119041
-0.125323
-0.125328
-0.125282
-0.125176
-0.125094
-0.125084
-0.12506
-0.12493
-0.124733
-0.124601
-0.125298
-0.12529
-0.125243
-0.125159
-0.125114
-0.125138
-0.125148
-0.125041
-0.124823
-0.124638
-0.125256
-0.125209
-0.12515
-0.125094
-0.125076
-0.125109
-0.12514
-0.125093
-0.124939
-0.124766
-0.125267
-0.12519
-0.125114
-0.125066
-0.125053
-0.125078
-0.125122
-0.125135
-0.125078
-0.12497
-0.125326
-0.125248
-0.125164
-0.125106
-0.125081
-0.125096
-0.125144
-0.125199
-0.125219
-0.125183
-0.125376
-0.125333
-0.125265
-0.125203
-0.125168
-0.125174
-0.125219
-0.125282
-0.12533
-0.125324
-0.125375
-0.125379
-0.12535
-0.125311
-0.125286
-0.125289
-0.125318
-0.125358
-0.125382
-0.125359
-0.125317
-0.125358
-0.125382
-0.125392
-0.125397
-0.125401
-0.125402
-0.125393
-0.125361
-0.125306
-0.125227
-0.125282
-0.12535
-0.125417
-0.125462
-0.125468
-0.125434
-0.125367
-0.125286
-0.125222
-0.125149
-0.125196
-0.125278
-0.125375
-0.125446
-0.125453
-0.125392
-0.125294
-0.125207
-0.125163
-0.132181
-0.132163
-0.132012
-0.131769
-0.131577
-0.131509
-0.131488
-0.131411
-0.131278
-0.13117
-0.132191
-0.132134
-0.131976
-0.131788
-0.131676
-0.131669
-0.13168
-0.131605
-0.131437
-0.131279
-0.132156
-0.132049
-0.1319
-0.131775
-0.131723
-0.131748
-0.131785
-0.131751
-0.131621
-0.131469
-0.132153
-0.132034
-0.131903
-0.131816
-0.131789
-0.13182
-0.131876
-0.131896
-0.131842
-0.131734
-0.132181
-0.132092
-0.131994
-0.131926
-0.131901
-0.131929
-0.13199
-0.132046
-0.132053
-0.131996
-0.132197
-0.132168
-0.13212
-0.132076
-0.132058
-0.132077
-0.132127
-0.132181
-0.132205
-0.132172
-0.132195
-0.13221
-0.132214
-0.132215
-0.132219
-0.132233
-0.132255
-0.132276
-0.132277
-0.132238
-0.13218
-0.132212
-0.132255
-0.132304
-0.132341
-0.132354
-0.132344
-0.132316
-0.132277
-0.132225
-0.132164
-0.132195
-0.132254
-0.132334
-0.132398
-0.132411
-0.132372
-0.132302
-0.132231
-0.132178
-0.132141
-0.132176
-0.132232
-0.132312
-0.132376
-0.132384
-0.132329
-0.132244
-0.13217
-0.132127
-0.140387
-0.140253
-0.139941
-0.139549
-0.139263
-0.139181
-0.139245
-0.139338
-0.139395
-0.139418
-0.140364
-0.140154
-0.139835
-0.139527
-0.139352
-0.139339
-0.139406
-0.139461
-0.139472
-0.139475
-0.140261
-0.14001
-0.139742
-0.139544
-0.139465
-0.139491
-0.139556
-0.139591
-0.139586
-0.139579
-0.140175
-0.139949
-0.139755
-0.139645
-0.13962
-0.139662
-0.139727
-0.139767
-0.139767
-0.139759
-0.140121
-0.139964
-0.139854
-0.139805
-0.139807
-0.13985
-0.139909
-0.13995
-0.139963
-0.13996
-0.140093
-0.140006
-0.13997
-0.13997
-0.139993
-0.14003
-0.14007
-0.140098
-0.140111
-0.140118
-0.140118
-0.140051
-0.140049
-0.140088
-0.140134
-0.140166
-0.140182
-0.140189
-0.140204
-0.14023
-0.140208
-0.14012
-0.140104
-0.140152
-0.140211
-0.140243
-0.140245
-0.140244
-0.14027
-0.140321
-0.140331
-0.140228
-0.140176
-0.140196
-0.140243
-0.140274
-0.140281
-0.140293
-0.140338
-0.140401
-0.140421
-0.14035
-0.14028
-0.140253
-0.140263
-0.140285
-0.140307
-0.140343
-0.140397
-0.140444
-0.148831
-0.148619
-0.148244
-0.147824
-0.147554
-0.147537
-0.147731
-0.148018
-0.148281
-0.148456
-0.148793
-0.148494
-0.148115
-0.147788
-0.147629
-0.147667
-0.147836
-0.148058
-0.148278
-0.148463
-0.148715
-0.148387
-0.148081
-0.147882
-0.147827
-0.147895
-0.148024
-0.148167
-0.148319
-0.148487
-0.14866
-0.148372
-0.148171
-0.148087
-0.148101
-0.14818
-0.148275
-0.148359
-0.148447
-0.148571
-0.148632
-0.148423
-0.148328
-0.148329
-0.148384
-0.14846
-0.148525
-0.148565
-0.148605
-0.148691
-0.148652
-0.148501
-0.14848
-0.148535
-0.148613
-0.148678
-0.148713
-0.148723
-0.148743
-0.14882
-0.148773
-0.148614
-0.148595
-0.148664
-0.148748
-0.148802
-0.148817
-0.148823
-0.148863
-0.14897
-0.149002
-0.148798
-0.148714
-0.14874
-0.148803
-0.148848
-0.148871
-0.148907
-0.149003
-0.149156
-0.149283
-0.149055
-0.148897
-0.148839
-0.148848
-0.148883
-0.148936
-0.149031
-0.14918
-0.14935
-0.149511
-0.149333
-0.149148
-0.149014
-0.148958
-0.148974
-0.149058
-0.149195
-0.149354
-0.149488
-0.158442
-0.158159
-0.157805
-0.157472
-0.157297
-0.15736
-0.157634
-0.158029
-0.158418
-0.158715
-0.158402
-0.158051
-0.157691
-0.157406
-0.157289
-0.157372
-0.157613
-0.157951
-0.158317
-0.158646
-0.1584
-0.158039
-0.157732
-0.157533
-0.157478
-0.157564
-0.157748
-0.157989
-0.158279
-0.158594
-0.158433
-0.158102
-0.157874
-0.157766
-0.157766
-0.157848
-0.157974
-0.158123
-0.158318
-0.15858
-0.158467
-0.158186
-0.158047
-0.158017
-0.158055
-0.158127
-0.158204
-0.158279
-0.158391
-0.158592
-0.158525
-0.158281
-0.158199
-0.158217
-0.158275
-0.158332
-0.15837
-0.1584
-0.158469
-0.158639
-0.158669
-0.158415
-0.158326
-0.158342
-0.158394
-0.158436
-0.158458
-0.158488
-0.158572
-0.158753
-0.158916
-0.158628
-0.158475
-0.158434
-0.158449
-0.158478
-0.158517
-0.158589
-0.158728
-0.15894
-0.15921
-0.158915
-0.1587
-0.158578
-0.158532
-0.158548
-0.158621
-0.158753
-0.158942
-0.15916
-0.159483
-0.159238
-0.159008
-0.158829
-0.15873
-0.158728
-0.158824
-0.158988
-0.159179
-0.159358
-0.167693
-0.167538
-0.167428
-0.167393
-0.167464
-0.167653
-0.167948
-0.168315
-0.168676
-0.168977
-0.167762
-0.167596
-0.167479
-0.167416
-0.167455
-0.167623
-0.167902
-0.168256
-0.16863
-0.168957
-0.167978
-0.167823
-0.1677
-0.167622
-0.167636
-0.167772
-0.168007
-0.168306
-0.168639
-0.168964
-0.168233
-0.168075
-0.167954
-0.167886
-0.167901
-0.168009
-0.168187
-0.168408
-0.16867
-0.168962
-0.168417
-0.168264
-0.168171
-0.168137
-0.168165
-0.168249
-0.16837
-0.168512
-0.168691
-0.16893
-0.168527
-0.168394
-0.16834
-0.16834
-0.168377
-0.168439
-0.168512
-0.168596
-0.168712
-0.168897
-0.168631
-0.168516
-0.168479
-0.168486
-0.168517
-0.168559
-0.16861
-0.168671
-0.168761
-0.168912
-0.168766
-0.168661
-0.16862
-0.168608
-0.168615
-0.168643
-0.168693
-0.168762
-0.168852
-0.168987
-0.168922
-0.168829
-0.168783
-0.168752
-0.168735
-0.168754
-0.16881
-0.168889
-0.168982
-0.169101
-0.169109
-0.169027
-0.168985
-0.168954
-0.168934
-0.168946
-0.168996
-0.169067
-0.169146
-0.169248
-0.177616
-0.1776
-0.177739
-0.177993
-0.178271
-0.178504
-0.178685
-0.178861
-0.179035
-0.179202
-0.177764
-0.1778
-0.177927
-0.178082
-0.178246
-0.178428
-0.178632
-0.178858
-0.179083
-0.179263
-0.178105
-0.178183
-0.178243
-0.178272
-0.178322
-0.178449
-0.178657
-0.178908
-0.179156
-0.17935
-0.178458
-0.178517
-0.178498
-0.178442
-0.178429
-0.178517
-0.1787
-0.178932
-0.179173
-0.179369
-0.178658
-0.178695
-0.178643
-0.178569
-0.178541
-0.178602
-0.178744
-0.178927
-0.179118
-0.179283
-0.178684
-0.178736
-0.178717
-0.178669
-0.17865
-0.178693
-0.178792
-0.178916
-0.179035
-0.179135
-0.178597
-0.178706
-0.178755
-0.178753
-0.178748
-0.17878
-0.178848
-0.17892
-0.178963
-0.178983
-0.178461
-0.178631
-0.178764
-0.178819
-0.178836
-0.178864
-0.178907
-0.178932
-0.178902
-0.178855
-0.178328
-0.178523
-0.178725
-0.178853
-0.178913
-0.178945
-0.178962
-0.17893
-0.178847
-0.17877
-0.178284
-0.178441
-0.178659
-0.17885
-0.178967
-0.179016
-0.179003
-0.178929
-0.178829
-0.178772
-0.186794
-0.186923
-0.18726
-0.187727
-0.188132
-0.188335
-0.188332
-0.188243
-0.188159
-0.188126
-0.186983
-0.187218
-0.187555
-0.187891
-0.188144
-0.188289
-0.188343
-0.18835
-0.188336
-0.188285
-0.187341
-0.187659
-0.187899
-0.188039
-0.188122
-0.188209
-0.188318
-0.188424
-0.188481
-0.188439
-0.187667
-0.187982
-0.188096
-0.188081
-0.188053
-0.1881
-0.188227
-0.188381
-0.18849
-0.188465
-0.187786
-0.188076
-0.188121
-0.188045
-0.187977
-0.187999
-0.188115
-0.188262
-0.18836
-0.188324
-0.187669
-0.187974
-0.188047
-0.187993
-0.187933
-0.187946
-0.18803
-0.18813
-0.188162
-0.188063
-0.187376
-0.187749
-0.187924
-0.187949
-0.187928
-0.187939
-0.18799
-0.188015
-0.187943
-0.18775
-0.186991
-0.187431
-0.187742
-0.187883
-0.187926
-0.187948
-0.187954
-0.18789
-0.187699
-0.187427
-0.186604
-0.187049
-0.18746
-0.18773
-0.187865
-0.187906
-0.187865
-0.187704
-0.187432
-0.187141
-0.186343
-0.186692
-0.187097
-0.187448
-0.18767
-0.187744
-0.187667
-0.187461
-0.187193
-0.186968
-0.194364
-0.194593
-0.195014
-0.195539
-0.195936
-0.196031
-0.195832
-0.195506
-0.1952
-0.194988
-0.194484
-0.194842
-0.195282
-0.195696
-0.195959
-0.196011
-0.195877
-0.195649
-0.195402
-0.195146
-0.194682
-0.195153
-0.195509
-0.195729
-0.195824
-0.195835
-0.19579
-0.195692
-0.195526
-0.195254
-0.194797
-0.195302
-0.195542
-0.195595
-0.195571
-0.195558
-0.19557
-0.195565
-0.195475
-0.195209
-0.194714
-0.195211
-0.195379
-0.195357
-0.195286
-0.195263
-0.195299
-0.195329
-0.19526
-0.194992
-0.194428
-0.194925
-0.19511
-0.195102
-0.195043
-0.195026
-0.195054
-0.195064
-0.194959
-0.194654
-0.194002
-0.194527
-0.194796
-0.194869
-0.194862
-0.194858
-0.194865
-0.194813
-0.194622
-0.194259
-0.193515
-0.194053
-0.194435
-0.194626
-0.194696
-0.194715
-0.194683
-0.194548
-0.194256
-0.193856
-0.193054
-0.193541
-0.193986
-0.194291
-0.194455
-0.194501
-0.194431
-0.194214
-0.193869
-0.193493
-0.192732
-0.193076
-0.193463
-0.193805
-0.194033
-0.194112
-0.19403
-0.193806
-0.193509
-0.193239
-0.199884
-0.200065
-0.200393
-0.200786
-0.201033
-0.200977
-0.20064
-0.200195
-0.199802
-0.199539
-0.199801
-0.200098
-0.200469
-0.200821
-0.201005
-0.200934
-0.200642
-0.200255
-0.199884
-0.19956
-0.199677
-0.200105
-0.200449
-0.200679
-0.200757
-0.200681
-0.200479
-0.200198
-0.199874
-0.199498
-0.19945
-0.199954
-0.200243
-0.200358
-0.200354
-0.200282
-0.200159
-0.199976
-0.199709
-0.199307
-0.199106
-0.199625
-0.199872
-0.199929
-0.199893
-0.199834
-0.199764
-0.199643
-0.199412
-0.199008
-0.198692
-0.199185
-0.199423
-0.199481
-0.199458
-0.199421
-0.199374
-0.199273
-0.199051
-0.198653
-0.198268
-0.198714
-0.198965
-0.199063
-0.199081
-0.199069
-0.199029
-0.198915
-0.198676
-0.198296
-0.197879
-0.198248
-0.198519
-0.19867
-0.198738
-0.198752
-0.198705
-0.198564
-0.198305
-0.197969
-0.197558
-0.197818
-0.198066
-0.198248
-0.198357
-0.198394
-0.198346
-0.198192
-0.197951
-0.197695
-0.197352
-0.197468
-0.197609
-0.197748
-0.197858
-0.197914
-0.197892
-0.197791
-0.197644
-0.197507
-0.202774
-0.20289
-0.203063
-0.203231
-0.203265
-0.203072
-0.202694
-0.20227
-0.20192
-0.201699
-0.202478
-0.202654
-0.20288
-0.20309
-0.203149
-0.202974
-0.202603
-0.202174
-0.201804
-0.201533
-0.202049
-0.202322
-0.202582
-0.202779
-0.202829
-0.202687
-0.202381
-0.201996
-0.201618
-0.201278
-0.201528
-0.201885
-0.202162
-0.20233
-0.202366
-0.202262
-0.202031
-0.201713
-0.201348
-0.20096
-0.201018
-0.20139
-0.201659
-0.201804
-0.201836
-0.201767
-0.201605
-0.201355
-0.201028
-0.200643
-0.200619
-0.200925
-0.201145
-0.201266
-0.201303
-0.201267
-0.201157
-0.200971
-0.200705
-0.200375
-0.20038
-0.200558
-0.200689
-0.200773
-0.200814
-0.200804
-0.200736
-0.200606
-0.200416
-0.200185
-0.200278
-0.200308
-0.200334
-0.20036
-0.200386
-0.200392
-0.200361
-0.200289
-0.200184
-0.200072
-0.200262
-0.200164
-0.200081
-0.200026
-0.200007
-0.200016
-0.200026
-0.200025
-0.200011
-0.200011
-0.200301
-0.200114
-0.199915
-0.19975
-0.199662
-0.19966
-0.199722
-0.199813
-0.199904
-0.199989
-0.204489
-0.204496
-0.20448
-0.204389
-0.204199
-0.203909
-0.203577
-0.203277
-0.203054
-0.202934
-0.204056
-0.204043
-0.204057
-0.20406
-0.203964
-0.203712
-0.203351
-0.202996
-0.202735
-0.202601
-0.203436
-0.203444
-0.203522
-0.203606
-0.203592
-0.203406
-0.203069
-0.202689
-0.20238
-0.202201
-0.202756
-0.202803
-0.202945
-0.203087
-0.20313
-0.203009
-0.20273
-0.202371
-0.202036
-0.20182
-0.202206
-0.202241
-0.202396
-0.202551
-0.20262
-0.202552
-0.202345
-0.202049
-0.201752
-0.201557
-0.201929
-0.201863
-0.201929
-0.202034
-0.202099
-0.202068
-0.201935
-0.201738
-0.201547
-0.201449
-0.201943
-0.201712
-0.201605
-0.201595
-0.201617
-0.201608
-0.201549
-0.201474
-0.201437
-0.201488
-0.202144
-0.201765
-0.20147
-0.201301
-0.201239
-0.20123
-0.201248
-0.201307
-0.201433
-0.201626
-0.202394
-0.201948
-0.201519
-0.201193
-0.201017
-0.200986
-0.201075
-0.201262
-0.201511
-0.201789
-0.202609
-0.202187
-0.20171
-0.201273
-0.200994
-0.200931
-0.201068
-0.20134
-0.20165
-0.201935
-0.205799
-0.205769
-0.205642
-0.205372
-0.205036
-0.204719
-0.20449
-0.204348
-0.204254
-0.204212
-0.205391
-0.205273
-0.205132