/*--------------------------------*- C++ -*----------------------------------*\
| =========                 |                                                 |
| \\      /  F ield         | OpenFOAM: The Open Source CFD Toolbox           |
|  \\    /   O peration     | Version:  2406                                  |
|   \\  /    A nd           | Website:  www.openfoam.com                      |
|    \\/     M anipulation  |                                                 |
\*---------------------------------------------------------------------------*/
FoamFile
{
    version     2.0;
    format      ascii;
    arch        "LSB;label=32;scalar=64";
    class       surfaceScalarField;
    location    "50";
    object      phi;
}
// * * * * * * * * * * * * * * * * * * * * * * * * * * * * * * * * * * * * * //

dimensions      [0 3 -1 0 0 0 0];

oriented        oriented;

internalField   nonuniform List<scalar> 
73500
(
6.87181e-07
8.57771e-08
4.7366e-05
-1.90927e-06
-1.56674e-06
3.6536e-07
3.16625e-07
5.13578e-05
-9.62246e-07
1.13647e-07
6.58742e-07
5.44223e-05
-1.17305e-06
-1.69501e-07
8.15923e-07
5.64924e-05
-1.23452e-06
-4.35822e-07
9.18446e-07
5.75436e-05
-1.28055e-06
-7.29031e-07
9.82761e-07
5.75651e-05
-1.31153e-06
-1.03199e-06
1.05613e-06
5.65592e-05
-1.3747e-06
-1.34006e-06
1.1489e-06
5.45416e-05
-1.45401e-06
-1.63472e-06
1.26986e-06
5.15412e-05
-1.59604e-06
1.43057e-06
4.7599e-05
-1.87953e-06
-1.80446e-06
9.00901e-07
2.21379e-07
5.13678e-05
-1.53222e-06
5.33731e-07
2.19142e-07
5.50289e-05
2.17309e-07
3.77796e-07
5.78434e-05
-7.03918e-08
5.0591e-07
5.97502e-05
-3.59753e-07
5.95548e-07
6.07201e-05
-6.3686e-07
6.7299e-07
6.074e-05
-9.16269e-07
7.46748e-07
5.98112e-05
-1.19912e-06
8.29132e-07
5.79481e-05
-1.46567e-06
9.30732e-07
5.51786e-05
1.0499e-06
5.15454e-05
-1.71408e-06
1.03795e-06
1.67608e-07
5.44314e-05
-1.28746e-06
6.79846e-07
1.01878e-07
5.78473e-05
3.31651e-07
1.47577e-07
6.04695e-05
1.78144e-08
2.32092e-07
6.22481e-05
-2.75601e-07
3.08028e-07
6.31532e-05
-5.54331e-07
3.75388e-07
6.31699e-05
-8.25589e-07
4.40271e-07
6.22979e-05
-1.09017e-06
5.1024e-07
6.05508e-05
-1.34808e-06
5.84134e-07
5.79557e-05
6.68613e-07
5.45533e-05
-1.59939e-06
1.0272e-06
-8.76246e-08
5.64972e-05
-1.28603e-06
7.2884e-07
-9.59745e-08
5.97534e-05
4.11975e-07
-6.04056e-08
6.2249e-05
9.19837e-08
-1.77904e-08
6.39414e-05
-2.06392e-07
3.7361e-08
6.48016e-05
-4.86071e-07
9.17502e-08
6.48146e-05
-7.52104e-07
1.44249e-07
6.39796e-05
-1.01325e-06
1.93169e-07
6.23092e-05
-1.26977e-06
2.41645e-07
5.98303e-05
2.92467e-07
5.6582e-05
-1.52688e-06
1.03266e-06
-3.31792e-07
5.75446e-05
-1.25007e-06
7.6475e-07
-3.1772e-07
6.0721e-05
4.53574e-07
-3.02743e-07
6.31531e-05
1.46355e-07
-2.60997e-07
6.48011e-05
-1.51814e-07
-2.21626e-07
6.56372e-05
-4.33057e-07
-1.80475e-07
6.5647e-05
-7.02519e-07
-1.46966e-07
6.48293e-05
-9.64486e-07
-1.19017e-07
6.31967e-05
-1.22299e-06
-9.75041e-08
6.07755e-05
-8.24008e-08
5.76042e-05
-1.4831e-06
1.04381e-06
-6.4557e-07
5.75634e-05
-1.29934e-06
7.78036e-07
-5.9226e-07
6.07388e-05
4.94014e-07
-5.41616e-07
6.31684e-05
1.85488e-07
-5.11398e-07
6.48132e-05
-1.10602e-07
-4.72965e-07
6.56461e-05
-3.99532e-07
-4.48553e-07
6.56532e-05
-6.7455e-07
-4.29981e-07
6.48335e-05
-9.43147e-07
-4.24717e-07
6.31996e-05
-1.20836e-06
-4.33366e-07
6.07774e-05
-4.54753e-07
5.76056e-05
-1.47296e-06
1.08503e-06
-9.51298e-07
5.65563e-05
-1.33512e-06
8.23658e-07
-8.59974e-07
5.98086e-05
5.23048e-07
-8.0283e-07
6.22953e-05
2.24234e-07
-7.49184e-07
6.39773e-05
-8.5773e-08
-7.20237e-07
6.48277e-05
-3.80865e-07
-7.00758e-07
6.48328e-05
-6.69161e-07
-7.00507e-07
6.39919e-05
-9.51311e-07
-7.22081e-07
6.23175e-05
-1.22587e-06
-7.60028e-07
5.9836e-05
-8.21181e-07
5.6586e-05
-1.49672e-06
1.15756e-06
-1.28364e-06
5.45384e-05
-1.42906e-06
8.76437e-07
-1.14223e-06
5.7945e-05
5.7551e-07
-1.05001e-06
6.05479e-05
2.53608e-07
-9.88643e-07
6.23067e-05
-6.56815e-08
-9.56014e-07
6.31949e-05
-3.80592e-07
-9.44554e-07
6.31985e-05
-6.90706e-07
-9.64259e-07
6.23172e-05
-9.89165e-07
-1.00498e-06
6.05637e-05
-1.27837e-06
-1.07978e-06
5.79645e-05
-1.18346e-06
5.45594e-05
-1.5534e-06
1.28107e-06
-1.58353e-06
5.15383e-05
-1.55668e-06
9.64488e-07
-1.40476e-06
5.51758e-05
6.36405e-07
-1.29062e-06
5.79531e-05
2.87101e-07
-1.22738e-06
5.98281e-05
-5.36611e-08
-1.19069e-06
6.07739e-05
-4.01283e-07
-1.19019e-06
6.07765e-05
-7.31816e-07
-1.2158e-06
5.98355e-05
-1.06404e-06
-1.27869e-06
5.79644e-05
-1.37417e-06
-1.38039e-06
5.51897e-05
-1.5299e-06
5.15531e-05
-1.65834e-06
1.45416e-06
4.75966e-05
-1.84849e-06
-1.79751e-06
1.08504e-06
5.15431e-05
-1.65316e-06
7.08617e-07
5.45513e-05
-1.54843e-06
3.2894e-07
5.65806e-05
-1.47688e-06
-5.37554e-08
5.76033e-05
-1.44559e-06
-4.32152e-07
5.76051e-05
-1.44031e-06
-8.05148e-07
5.65858e-05
-1.47647e-06
-1.17416e-06
5.45593e-05
-1.54048e-06
-1.52302e-06
5.1553e-05
-1.65714e-06
4.76072e-05
-1.83842e-06
-1.84137e-06
2.68009e-06
2.43074e-06
4.81975e-05
-3.01363e-06
-2.80734e-06
1.72628e-06
1.8353e-06
5.22142e-05
-1.70977e-06
1.10906e-06
1.65987e-06
5.5282e-05
-1.92028e-06
5.10152e-07
1.61336e-06
5.73526e-05
-1.91561e-06
-4.94965e-08
1.60805e-06
5.83965e-05
-1.92239e-06
-5.96528e-07
1.61679e-06
5.8403e-05
-1.93361e-06
-1.11413e-06
1.6539e-06
5.73732e-05
-1.97127e-06
-1.60663e-06
1.71398e-06
5.53214e-05
-2.00988e-06
-2.18316e-06
1.811e-06
5.22761e-05
-1.98715e-06
2.09206e-06
4.82788e-05
-2.50685e-06
-2.46948e-06
2.0538e-06
1.56706e-06
5.22196e-05
-1.96289e-06
1.61141e-06
1.43726e-06
5.59129e-05
1.05766e-06
1.30948e-06
5.87372e-05
5.11523e-07
1.25921e-06
6.06456e-05
-4.2311e-08
1.23817e-06
6.16097e-05
-5.60734e-07
1.25112e-06
6.16163e-05
-1.05295e-06
1.279e-06
6.06661e-05
-1.50803e-06
1.32835e-06
5.87731e-05
-1.89109e-06
1.40432e-06
5.59638e-05
1.4846e-06
5.22776e-05
-2.0364e-06
1.82734e-06
1.04157e-06
5.52889e-05
-2.03912e-06
1.46789e-06
9.51472e-07
5.87404e-05
9.92641e-07
8.65106e-07
6.13782e-05
4.87526e-07
8.34433e-07
6.31623e-05
-2.78583e-08
8.24016e-07
6.40647e-05
-5.30317e-07
8.28767e-07
6.40706e-05
-1.00084e-06
8.52638e-07
6.31803e-05
-1.42817e-06
8.90157e-07
6.14072e-05
-1.79562e-06
9.34459e-07
5.87762e-05
9.77116e-07
5.53259e-05
-2.07969e-06
1.73564e-06
4.82253e-07
5.73587e-05
-1.99769e-06
1.38348e-06
4.37598e-07
6.06497e-05
9.57266e-07
4.06922e-07
6.31643e-05
4.75106e-07
3.79925e-07
6.48645e-05
-2.07698e-08
3.73459e-07
6.57242e-05
-5.03615e-07
3.80647e-07
6.57289e-05
-9.60877e-07
3.94331e-07
6.48782e-05
-1.3795e-06
4.1641e-07
6.31849e-05
-1.74197e-06
4.4436e-07
6.06737e-05
4.64115e-07
5.73823e-05
-2.04908e-06
1.6902e-06
-3.66719e-08
5.84018e-05
-1.94501e-06
1.3522e-06
-5.77188e-08
6.16142e-05
9.28668e-07
-8.43769e-08
6.40675e-05
4.68118e-07
-8.53915e-08
6.57256e-05
-1.22888e-08
-8.6574e-08
6.65631e-05
-4.8837e-07
-8.28795e-08
6.65664e-05
-9.38355e-07
-7.56851e-08
6.57349e-05
-1.3503e-06
-6.79395e-08
6.40814e-05
-1.71369e-06
-6.17789e-08
6.16302e-05
-5.52324e-08
5.84183e-05
-2.02637e-06
1.675e-06
-5.736e-07
5.84071e-05
-1.95338e-06
1.32831e-06
-5.69269e-07
6.16205e-05
9.26096e-07
-5.50541e-07
6.40741e-05
4.6591e-07
-5.49093e-07
6.57311e-05
-8.32364e-09
-5.3983e-07
6.65674e-05
-4.81182e-07
-5.39143e-07
6.65695e-05
-9.30811e-07
-5.41274e-07
6.57372e-05
-1.34449e-06
-5.49358e-07
6.4083e-05
-1.70825e-06
-5.62172e-07
6.16314e-05
-5.72584e-07
5.84193e-05
-2.02317e-06
1.68811e-06
-1.07647e-06
5.73763e-05
-1.95743e-06
1.34759e-06
-1.03647e-06
6.06699e-05
9.26648e-07
-1.008e-06
6.31838e-05
4.75007e-07
-9.77535e-07
6.4881e-05
-7.72484e-09
-9.68505e-07
6.57367e-05
-4.83164e-07
-9.66983e-07
6.57381e-05
-9.38878e-07
-9.78084e-07
6.48848e-05
-1.35952e-06
-1.00552e-06
6.31897e-05
-1.72827e-06
-1.04217e-06
6.06773e-05
-1.07775e-06
5.73852e-05
-2.03815e-06
1.73324e-06
-1.57846e-06
5.53234e-05
-1.99853e-06
1.37875e-06
-1.48168e-06
5.87763e-05
9.57798e-07
-1.41244e-06
6.14106e-05
4.84826e-07
-1.37089e-06
6.31878e-05
-5.67384e-09
-1.35343e-06
6.40837e-05
-4.95076e-07
-1.35333e-06
6.40846e-05
-9.66602e-07
-1.37899e-06
6.31904e-05
-1.39844e-06
-1.4201e-06
6.14145e-05
-1.77306e-06
-1.48969e-06
5.87817e-05
-1.57054e-06
5.53302e-05
-2.0655e-06
1.83677e-06
-2.15534e-06
5.22775e-05
-1.9597e-06
1.44914e-06
-1.85645e-06
5.59662e-05
9.98995e-07
-1.75829e-06
5.8779e-05
5.01464e-07
-1.71468e-06
6.06763e-05
-5.23926e-09
-1.69112e-06
6.16325e-05
-5.20052e-07
-1.69773e-06
6.16331e-05
-1.0058e-06
-1.72385e-06
6.06783e-05
-1.46799e-06
-1.77839e-06
5.87821e-05
-1.86353e-06
-1.87461e-06
5.59705e-05
-2.15536e-06
5.22828e-05
-2.01899e-06
2.13363e-06
4.82794e-05
-2.49859e-06
-2.46755e-06
1.53915e-06
5.22789e-05
-1.99586e-06
1.0349e-06
5.53277e-05
-2.04243e-06
5.16947e-07
5.73843e-05
-2.00863e-06
-1.29708e-08
5.84201e-05
-1.99501e-06
-5.39106e-07
5.84206e-05
-1.99523e-06
-1.05276e-06
5.7386e-05
-2.02224e-06
-1.55357e-06
5.53306e-05
-2.05714e-06
-2.14174e-06
5.22829e-05
-2.02165e-06
4.82839e-05
-2.49196e-06
-2.49734e-06
1.76473e-06
1.72336e-06
4.8741e-05
-2.06645e-06
-2.04015e-06
1.04997e-06
1.37957e-06
5.27944e-05
-1.29799e-06
6.57876e-07
1.28926e-06
5.58884e-05
-1.55709e-06
2.95937e-07
1.24533e-06
5.79754e-05
-1.55387e-06
-7.68538e-08
1.24764e-06
5.90264e-05
-1.54296e-06
-4.57565e-07
1.26001e-06
5.9032e-05
-1.54167e-06
-8.37914e-07
1.28138e-06
5.79923e-05
-1.54974e-06
-1.20007e-06
1.32117e-06
5.5921e-05
-1.57856e-06
-1.65761e-06
1.34985e-06
5.28471e-05
-1.48875e-06
1.55909e-06
4.88138e-05
-1.91222e-06
-1.86362e-06
1.42179e-06
9.89714e-07
5.27944e-05
-1.31799e-06
1.10271e-06
1.04937e-06
5.65255e-05
7.14184e-07
1.00218e-06
5.9374e-05
3.17927e-07
9.57596e-07
6.12963e-05
-7.29438e-08
9.46765e-07
6.22664e-05
-4.49161e-07
9.57798e-07
6.22719e-05
-8.09317e-07
9.74756e-07
6.13125e-05
-1.13658e-06
9.98735e-07
5.9402e-05
-1.43103e-06
1.03142e-06
5.65672e-05
1.0811e-06
5.28483e-05
-1.54102e-06
1.31995e-06
6.04821e-07
5.5887e-05
-1.57153e-06
1.04683e-06
6.62377e-07
5.93731e-05
7.03276e-07
6.53743e-07
6.20354e-05
3.23643e-07
6.33118e-07
6.38342e-05
-5.74251e-08
6.23136e-07
6.47428e-05
-4.28006e-07
6.26342e-07
6.47476e-05
-7.79649e-07
6.39761e-07
6.38486e-05
-1.10389e-06
6.60236e-07
6.2059e-05
-1.40346e-06
6.87538e-07
5.94046e-05
7.07949e-07
5.59249e-05
-1.64317e-06
1.27992e-06
2.54362e-07
5.79729e-05
-1.57633e-06
1.00021e-06
2.71441e-07
6.12946e-05
6.81986e-07
2.80233e-07
6.38334e-05
3.24255e-07
2.79032e-07
6.55496e-05
-4.67898e-08
2.7641e-07
6.64165e-05
-4.10708e-07
2.80539e-07
6.64206e-05
-7.57954e-07
2.88856e-07
6.55616e-05
-1.08112e-06
3.01577e-07
6.38527e-05
-1.36768e-06
3.2083e-07
6.13192e-05
3.26969e-07
5.80002e-05
-1.61752e-06
1.28102e-06
-1.07567e-07
5.90235e-05
-1.56228e-06
9.92903e-07
-1.04693e-07
6.22644e-05
6.70613e-07
-9.52402e-08
6.47416e-05
3.22237e-07
-8.46508e-08
6.64161e-05
-3.98066e-08
-7.96481e-08
6.72616e-05
-4.00316e-07
-7.53083e-08
6.72649e-05
-7.45814e-07
-6.93247e-08
6.64258e-05
-1.06572e-06
-6.28585e-08
6.4757e-05
-1.35112e-06
-5.73596e-08
6.22841e-05
-5.16144e-08
5.90454e-05
-1.61086e-06
1.29458e-06
-4.79833e-07
5.90293e-05
-1.56443e-06
9.99633e-07
-4.76745e-07
6.22699e-05
6.75019e-07
-4.56594e-07
6.47465e-05
3.25316e-07
-4.43115e-07
6.64201e-05
-3.51208e-08
-4.32987e-07
6.72649e-05
-3.94521e-07
-4.27401e-07
6.72674e-05
-7.40102e-07
-4.24689e-07
6.64277e-05
-1.06156e-06
-4.25555e-07
6.47585e-05
-1.34818e-06
-4.32242e-07
6.22853e-05
-4.28583e-07
5.90465e-05
-1.60891e-06
1.31521e-06
-8.50582e-07
5.799e-05
-1.57189e-06
1.01813e-06
-8.28394e-07
6.1311e-05
6.85266e-07
-8.02955e-07
6.38479e-05
3.33831e-07
-7.82707e-07
6.55615e-05
-3.02041e-08
-7.70763e-07
6.6426e-05
-3.91956e-07
-7.64622e-07
6.6428e-05
-7.40912e-07
-7.64653e-07
6.55673e-05
-1.06767e-06
-7.73295e-07
6.38571e-05
-1.35948e-06
-7.91766e-07
6.13228e-05
-8.05604e-07
5.80033e-05
-1.61121e-06
1.35496e-06
-1.20913e-06
5.59195e-05
-1.60545e-06
1.04254e-06
-1.14918e-06
5.94013e-05
7.0588e-07
-1.12116e-06
6.20591e-05
3.46014e-07
-1.09704e-06
6.38532e-05
-2.45594e-08
-1.08149e-06
6.47578e-05
-3.93631e-07
-1.07561e-06
6.47592e-05
-7.5007e-07
-1.08186e-06
6.38574e-05
-1.08195e-06
-1.09608e-06
6.20658e-05
-1.38963e-06
-1.11984e-06
5.94101e-05
-1.16931e-06
5.59295e-05
-1.63507e-06
1.39126e-06
-1.66432e-06
5.28466e-05
-1.51031e-06
1.07667e-06
-1.44166e-06
5.65675e-05
7.36696e-07
-1.41187e-06
5.94055e-05
3.63423e-07
-1.37587e-06
6.13205e-05
-1.92331e-08
-1.35678e-06
6.22854e-05
-4.0234e-07
-1.35358e-06
6.22864e-05
-7.68179e-07
-1.3639e-06
6.13234e-05
-1.10466e-06
-1.39528e-06
5.94103e-05
-1.41233e-06
-1.42044e-06
5.65739e-05
-1.6316e-06
5.28538e-05
-1.53207e-06
1.60986e-06
4.88139e-05
-1.9359e-06
-1.88277e-06
1.13402e-06
5.28494e-05
-1.545e-06
7.56949e-07
5.59265e-05
-1.64484e-06
3.69037e-07
5.80021e-05
-1.6157e-06
-1.66519e-08
5.90472e-05
-1.60929e-06
-3.99871e-07
5.90478e-05
-1.6061e-06
-7.81937e-07
5.80041e-05
-1.60927e-06
-1.15103e-06
5.59299e-05
-1.63348e-06
-1.61796e-06
5.28539e-05
-1.53217e-06
4.88192e-05
-1.89815e-06
-1.89995e-06
1.08069e-06
1.03715e-06
4.91511e-05
-1.29813e-06
-1.22784e-06
6.17013e-07
9.53434e-07
5.32246e-05
-9.21916e-07
3.97071e-07
9.31085e-07
5.63397e-05
-1.16904e-06
1.83987e-07
8.92223e-07
5.84422e-05
-1.15333e-06
-6.92276e-08
9.11676e-07
5.95005e-05
-1.14286e-06
-3.35268e-07
9.23023e-07
5.9505e-05
-1.14075e-06
-6.09172e-07
9.3342e-07
5.84561e-05
-1.13808e-06
-8.60412e-07
9.67375e-07
5.63682e-05
-1.16679e-06
-1.15901e-06
9.60059e-07
5.32702e-05
-1.09382e-06
1.06452e-06
4.92057e-05
-1.33941e-06
-1.28236e-06
1.0063e-06
5.7721e-07
5.32255e-05
-9.76141e-07
7.7058e-07
7.25453e-07
5.69804e-05
4.98773e-07
7.16503e-07
5.98486e-05
2.1316e-07
6.77611e-07
6.17844e-05
-6.49365e-08
6.78684e-07
6.27606e-05
-3.35216e-07
6.88731e-07
6.2765e-05
-5.95573e-07
6.98348e-07
6.17979e-05
-8.24192e-07
7.13393e-07
5.9873e-05
-1.03804e-06
7.24205e-07
5.70175e-05
7.53288e-07
5.32709e-05
-1.15729e-06
9.79053e-07
3.66055e-07
5.63392e-05
-1.21697e-06
7.65483e-07
4.59575e-07
5.9848e-05
5.13273e-07
4.67485e-07
6.25278e-05
2.29907e-07
4.46189e-07
6.43379e-05
-4.87601e-08
4.38969e-07
6.52513e-05
-3.21042e-07
4.42047e-07
6.52551e-05
-5.81888e-07
4.51085e-07
6.43493e-05
-8.22272e-07
4.64919e-07
6.25472e-05
-1.05631e-06
4.83174e-07
5.98746e-05
4.9637e-07
5.63706e-05
-1.251e-06
9.4527e-07
1.57859e-07
5.844e-05
-1.2031e-06
7.32565e-07
1.7959e-07
6.17827e-05
4.98221e-07
1.92382e-07
6.43368e-05
2.32926e-07
1.90299e-07
6.60627e-05
-4.15198e-08
1.86765e-07
6.69338e-05
-3.11755e-07
1.90136e-07
6.69369e-05
-5.70764e-07
1.96388e-07
6.60721e-05
-8.13686e-07
2.04715e-07
6.4352e-05
-1.03297e-06
2.19434e-07
6.18022e-05
2.24647e-07
5.84612e-05
-1.2275e-06
9.65095e-07
-8.87747e-08
5.94972e-05
-1.19007e-06
7.36475e-07
-8.86957e-08
6.27576e-05
4.92523e-07
-7.78652e-08
6.52491e-05
2.31542e-07
-7.29347e-08
6.69326e-05
-3.7869e-08
-7.15005e-08
6.77823e-05
-3.05793e-07
-6.82046e-08
6.7785e-05
-5.64081e-07
-6.30927e-08
6.69404e-05
-8.07301e-07
-5.71628e-08
6.52613e-05
-1.02764e-06
-5.05873e-08
6.27729e-05
-4.30394e-08
5.95135e-05
-1.23334e-06
9.76871e-07
-3.47713e-07
5.95011e-05
-1.19108e-06
7.4371e-07
-3.52071e-07
6.27612e-05
4.95272e-07
-3.40736e-07
6.5252e-05
2.33612e-07
-3.34423e-07
6.69348e-05
-3.47739e-08
-3.2896e-07
6.7784e-05
-3.02045e-07
-3.24908e-07
6.77861e-05
-5.59851e-07
-3.21373e-07
6.69412e-05
-8.0334e-07
-3.17753e-07
6.52619e-05
-1.02509e-06
-3.19149e-07
6.27733e-05
-3.09705e-07
5.95138e-05
-1.2305e-06
9.86564e-07
-6.09565e-07
5.84519e-05
-1.18601e-06
7.51831e-07
-6.04484e-07
6.17936e-05
5.00245e-07
-5.94444e-07
6.43457e-05
2.38024e-07
-5.8543e-07
6.60693e-05
-3.17898e-08
-5.78686e-07
6.69386e-05
-2.99318e-07
-5.73758e-07
6.69404e-05
-5.5772e-07
-5.70602e-07
6.60744e-05
-8.02878e-07
-5.72091e-07
6.43536e-05
-1.02507e-06
-5.77269e-07
6.18033e-05
-5.80376e-07
5.84619e-05
-1.21922e-06
1.01469e-06
-8.55853e-07
5.63639e-05
-1.2163e-06
7.63596e-07
-8.24655e-07
5.98687e-05
5.09529e-07
-8.30167e-07
6.25434e-05
2.43043e-07
-8.20486e-07
6.43489e-05
-2.83124e-08
-8.13759e-07
6.52591e-05
-2.97023e-07
-8.07887e-07
6.52606e-05
-5.59708e-07
-8.07667e-07
6.43531e-05
-8.04315e-07
-8.09306e-07
6.25497e-05
-1.04468e-06
-8.06836e-07
5.98764e-05
-8.32809e-07
5.63718e-05
-1.23966e-06
1.0076e-06
-1.14984e-06
5.32659e-05
-1.13129e-06
7.67575e-07
-1.03699e-06
5.70133e-05
5.25059e-07
-1.05583e-06
5.98709e-05
2.51875e-07
-1.03302e-06
6.17991e-05
-2.39911e-08
-1.0255e-06
6.27707e-05
-3.0104e-07
-1.02286e-06
6.27718e-05
-5.6401e-07
-1.02217e-06
6.18024e-05
-7.99763e-07
-1.04407e-06
5.9876e-05
-1.02394e-06
-1.02795e-06
5.70195e-05
-1.13588e-06
5.32722e-05
-1.14578e-06
1.11269e-06
4.92015e-05
-1.34109e-06
-1.3126e-06
7.95053e-07
5.3267e-05
-1.14202e-06
5.30152e-07
5.63672e-05
-1.23895e-06
2.50874e-07
5.84583e-05
-1.21559e-06
-2.2743e-08
5.95113e-05
-1.22368e-06
-2.93462e-07
5.95122e-05
-1.22079e-06
-5.66254e-07
5.84609e-05
-1.21168e-06
-8.20593e-07
5.63712e-05
-1.23393e-06
-1.12289e-06
5.32719e-05
-1.14515e-06
4.92065e-05
-1.32507e-06
-1.32843e-06
6.01086e-07
5.38032e-07
4.9405e-05
-7.73694e-07
-7.01558e-07
3.33619e-07
5.93737e-07
5.34922e-05
-6.47013e-07
2.07792e-07
5.95628e-07
5.66204e-05
-8.0702e-07
7.61281e-08
5.66647e-07
5.87347e-05
-7.75995e-07
-9.56846e-08
6.02078e-07
5.98005e-05
-7.72745e-07
-2.68901e-07
6.12117e-07
5.98061e-05
-7.76518e-07
-4.4607e-07
6.18479e-07
5.87515e-05
-7.69622e-07
-6.05642e-07
6.49395e-07
5.66513e-05
-7.93512e-07
-7.75563e-07
6.33396e-07
5.35346e-05
-7.56678e-07
6.67087e-07
4.94464e-05
-8.88103e-07
-8.19622e-07
6.53611e-07
2.72543e-07
5.34944e-05
-7.08632e-07
4.91934e-07
4.30384e-07
5.72692e-05
3.06663e-07
4.425e-07
6.01542e-05
1.05431e-07
4.1864e-07
6.21031e-05
-8.57237e-08
4.34682e-07
6.30867e-05
-2.67212e-07
4.45929e-07
6.30921e-05
-4.42393e-07
4.52946e-07
6.21193e-05
-5.90933e-07
4.68293e-07
6.01821e-05
-7.27042e-07
4.72933e-07
5.73082e-05
4.8866e-07
5.35378e-05
-8.30991e-07
6.62902e-07
1.68369e-07
5.66234e-05
-8.73888e-07
5.14191e-07
2.52673e-07
6.01555e-05
3.36051e-07
2.68075e-07
6.28541e-05
1.32809e-07
2.58177e-07
6.46775e-05
-6.27928e-08
2.64766e-07
6.55982e-05
-2.5622e-07
2.71626e-07
6.56029e-05
-4.40285e-07
2.82044e-07
6.46914e-05
-6.03127e-07
2.96219e-07
6.28772e-05
-7.61252e-07
3.07013e-07
6.01866e-05
3.17542e-07
5.6659e-05
-8.87904e-07
6.44388e-07
4.8146e-08
5.87381e-05
-8.44209e-07
4.98245e-07
5.89821e-08
6.21051e-05
3.34652e-07
7.77463e-08
6.46783e-05
1.43266e-07
7.96153e-08
6.64174e-05
-5.41407e-08
8.47499e-08
6.72955e-05
-2.47817e-07
9.44891e-08
6.72995e-05
-4.32627e-07
1.02523e-07
6.6429e-05
-6.00656e-07
1.10827e-07
6.46969e-05
-7.45799e-07
1.23504e-07
6.21293e-05
1.2948e-07
5.87648e-05
-8.69575e-07
6.78378e-07
-1.18419e-07
5.98044e-05
-8.31981e-07
5.18458e-07
-1.18226e-07
6.3089e-05
3.41423e-07
-1.07901e-07
6.55993e-05
1.50292e-07
-1.02826e-07
6.72959e-05
-4.58416e-08
-9.71549e-08
6.81525e-05
-2.41235e-07
-8.9919e-08
6.81559e-05
-4.26918e-07
-8.11722e-08
6.73056e-05
-5.97634e-07
-7.26852e-08
6.56146e-05
-7.49306e-07
-6.50671e-08
6.31084e-05
-5.54261e-08
5.98256e-05
-8.82e-07
6.87524e-07
-2.92601e-07
5.98105e-05
-8.34088e-07
5.23791e-07
-2.9756e-07
6.30947e-05
3.48061e-07
-2.88784e-07
6.56042e-05
1.57486e-07
-2.85052e-07
6.73001e-05
-3.96109e-08
-2.78754e-07
6.81561e-05
-2.34181e-07
-2.70939e-07
6.81588e-05
-4.20455e-07
-2.64269e-07
6.7308e-05
-5.93514e-07
-2.56427e-07
6.56166e-05
-7.46584e-07
-2.50091e-07
6.31101e-05
-2.39439e-07
5.9827e-05
-8.8077e-07
6.89088e-07
-4.70607e-07
5.87563e-05
-8.2264e-07
5.28823e-07
-4.67555e-07
6.21223e-05
3.52231e-07
-4.65703e-07
6.46932e-05
1.62946e-07
-4.58754e-07
6.64299e-05
-3.35156e-08
-4.52187e-07
6.73061e-05
-2.28674e-07
-4.4538e-07
6.73083e-05
-4.15094e-07
-4.38699e-07
6.64362e-05
-5.86766e-07
-4.34564e-07
6.4703e-05
-7.39533e-07
-4.29e-07
6.21343e-05
-4.26209e-07
5.87691e-05
-8.65337e-07
7.13978e-07
-6.32442e-07
5.66563e-05
-8.50859e-07
5.37667e-07
-6.11116e-07
6.01857e-05
3.59331e-07
-6.24107e-07
6.28795e-05
1.6694e-07
-6.16869e-07
6.46984e-05
-2.85442e-08
-6.13283e-07
6.56155e-05
-2.22286e-07
-6.06809e-07
6.56171e-05
-4.11697e-07
-5.99773e-07
6.47032e-05
-5.84603e-07
-5.97214e-07
6.2887e-05
-7.53097e-07
-5.81593e-07
6.01948e-05
-5.93347e-07
5.6666e-05
-8.84408e-07
6.99039e-07
-7.96803e-07
5.35398e-05
-8.11035e-07
5.32979e-07
-7.4633e-07
5.73122e-05
3.65327e-07
-7.74747e-07
6.01895e-05
1.71495e-07
-7.57068e-07
6.21312e-05
-2.37454e-08
-7.56896e-07
6.31096e-05
-2.18711e-07
-7.52677e-07
6.31109e-05
-4.06006e-07
-7.43644e-07
6.21348e-05
-5.6809e-07
-7.56872e-07
6.0195e-05
-7.21955e-07
-7.28269e-07
5.7319e-05
-7.6692e-07
5.3547e-05
-8.30667e-07
7.36166e-07
4.94515e-05
-9.10721e-07
-8.77328e-07
5.47873e-07
5.3542e-05
-8.36497e-07
3.66952e-07
5.66623e-05
-8.93584e-07
1.70656e-07
5.87672e-05
-8.7344e-07
-2.0648e-08
5.98273e-05
-8.85865e-07
-2.10022e-07
5.98282e-05
-8.82355e-07
-4.01088e-07
5.87698e-05
-8.65192e-07
-5.74314e-07
5.66663e-05
-8.81734e-07
-7.52437e-07
5.3547e-05
-8.28868e-07
4.94566e-05
-8.87519e-07
-8.89878e-07
4.76537e-07
4.38599e-07
4.96511e-05
-5.87543e-07
-5.48033e-07
3.12483e-07
5.0934e-07
5.37467e-05
-5.80374e-07
1.99368e-07
5.00478e-07
5.68793e-05
-6.34127e-07
7.87876e-08
4.71802e-07
5.89988e-05
-6.01557e-07
-7.54353e-08
5.07512e-07
6.00679e-05
-6.13096e-07
-2.18218e-07
5.13888e-07
6.00727e-05
-6.29506e-07
-3.62459e-07
5.20778e-07
5.90125e-05
-6.33889e-07
-4.95096e-07
5.57069e-07
5.69024e-05
-6.6611e-07
-6.0823e-07
5.65343e-07
5.37711e-05
-6.79092e-07
5.77915e-07
4.96639e-05
-7.14228e-07
-6.80327e-07
5.30936e-07
2.96219e-07
5.37493e-05
-6.26313e-07
4.01153e-07
3.77902e-07
5.7536e-05
2.51952e-07
3.78756e-07
6.04292e-05
8.71639e-08
3.56609e-07
6.23842e-05
-6.59583e-08
3.74359e-07
6.33707e-05
-2.14295e-07
3.78831e-07
6.33747e-05
-3.57662e-07
3.86967e-07
6.23962e-05
-4.79204e-07
4.12632e-07
6.0449e-05
-5.90447e-07
4.28052e-07
5.75607e-05
4.57214e-07
5.37723e-05
-7.03657e-07
5.35701e-07
2.13008e-07
5.68827e-05
-6.9512e-07
4.13674e-07
2.33911e-07
6.04303e-05
2.72235e-07
2.39086e-07
6.31406e-05
1.10241e-07
2.2708e-07
6.49712e-05
-4.66236e-08
2.35359e-07
6.58945e-05
-2.03825e-07
2.40339e-07
6.58977e-05
-3.54982e-07
2.49866e-07
6.49804e-05
-4.87828e-07
2.6855e-07
6.3156e-05
-6.08636e-07
2.85927e-07
6.04513e-05
3.07593e-07
5.69059e-05
-7.07285e-07
5.15739e-07
9.69511e-08
5.90012e-05
-6.49267e-07
4.00334e-07
7.67924e-08
6.23852e-05
2.67201e-07
8.42694e-08
6.49713e-05
1.14496e-07
8.18981e-08
6.67182e-05
-4.12946e-08
8.79269e-08
6.75994e-05
-1.9759e-07
9.46795e-08
6.76019e-05
-3.45804e-07
1.02476e-07
6.67256e-05
-4.76192e-07
1.13669e-07
6.49834e-05
-5.88519e-07
1.26311e-07
6.24016e-05
1.42008e-07
5.90193e-05
-6.79196e-07
5.48059e-07
-6.5076e-08
6.00689e-05
-6.41725e-07
4.19717e-07
-7.12402e-08
6.33704e-05
2.77448e-07
-6.3328e-08
6.58938e-05
1.22079e-07
-6.39583e-08
6.75987e-05
-3.58158e-08
-6.01752e-08
6.84589e-05
-1.91893e-07
-5.45781e-08
6.84611e-05
-3.39547e-07
-4.87655e-08
6.76052e-05
-4.73482e-07
-4.20369e-08
6.59041e-05
-5.88863e-07
-3.34791e-08
6.33838e-05
-2.28355e-08
6.00832e-05
-6.84639e-07
5.48908e-07
-2.18635e-07
6.00722e-05
-6.48948e-07
4.21845e-07
-2.1875e-07
6.33732e-05
2.81199e-07
-2.12956e-07
6.58957e-05
1.27544e-07
-2.10146e-07
6.76001e-05
-3.09719e-08
-2.06338e-07
6.846e-05
-1.87528e-07
-2.02265e-07
6.8462e-05
-3.35314e-07
-1.993e-07
6.76059e-05
-4.69421e-07
-1.95717e-07
6.59047e-05
-5.86869e-07
-1.91445e-07
6.33841e-05
-1.86593e-07
6.00832e-05
-6.82594e-07
5.49193e-07
-3.72336e-07
5.90104e-05
-6.46759e-07
4.23455e-07
-3.63324e-07
6.23932e-05
2.85149e-07
-3.5892e-07
6.49772e-05
1.31311e-07
-3.50864e-07
6.67227e-05
-2.81156e-08
-3.46533e-07
6.76031e-05
-1.85264e-07
-3.43737e-07
6.7605e-05
-3.33623e-07
-3.42162e-07
6.67279e-05
-4.66743e-07
-3.4625e-07
6.49851e-05
-5.82657e-07
-3.4409e-07
6.24026e-05
-3.49223e-07
5.90195e-05
-6.73662e-07
5.75661e-07
-5.09411e-07
5.68984e-05
-6.77813e-07
4.37556e-07
-4.84873e-07
6.04446e-05
2.9298e-07
-4.89521e-07
6.31517e-05
1.34622e-07
-4.76656e-07
6.49796e-05
-2.63186e-08
-4.75403e-07
6.59013e-05
-1.83888e-07
-4.71983e-07
6.5903e-05
-3.38531e-07
-4.71352e-07
6.49844e-05
-4.7533e-07
-4.79571e-07
6.31588e-05
-6.02845e-07
-4.75388e-07
6.04529e-05
-4.96088e-07
5.69065e-05
-6.99369e-07
5.74142e-07
-6.22679e-07
5.37655e-05
-6.88626e-07
4.37947e-07
-5.95488e-07
5.75551e-05
2.97138e-07
-6.08465e-07
6.0446e-05
1.36141e-07
-5.87417e-07
6.23971e-05
-2.38913e-08
-5.87441e-07
6.33805e-05
-1.85314e-07
-5.8685e-07
6.3382e-05
-3.38335e-07
-5.82583e-07
6.24016e-05
-4.72389e-07
-6.04544e-07
6.04526e-05
-5.92977e-07
-5.9671e-07
5.75628e-05
-6.17599e-07
5.37733e-05
-6.98112e-07
5.8805e-07
4.96576e-05
-7.13785e-07
-7.03497e-07
4.59465e-07
5.37661e-05
-6.9131e-07
3.06607e-07
5.69002e-05
-6.96323e-07
1.40879e-07
5.90145e-05
-6.71005e-07
-2.39065e-08
6.00796e-05
-6.79053e-07
-1.86384e-07
6.0081e-05
-6.78156e-07
-3.47398e-07
5.90185e-05
-6.72104e-07
-4.92636e-07
5.69062e-05
-6.9896e-07
-6.0926e-07
5.37733e-05
-7.0406e-07
4.96648e-05
-7.12762e-07
-7.23036e-07
4.98749e-07
4.96106e-07
4.98658e-05
-6.16453e-07
-6.51749e-07
3.8034e-07
5.05917e-07
5.39699e-05
-6.51975e-07
2.49093e-07
4.82712e-07
5.71063e-05
-6.14681e-07
1.06934e-07
4.53095e-07
5.92297e-05
-5.74483e-07
-5.45362e-08
4.81344e-07
6.03013e-05
-5.79023e-07
-1.95493e-07
4.75058e-07
6.03047e-05
-5.89997e-07
-3.28749e-07
4.75205e-07
5.9239e-05
-5.88054e-07
-4.54811e-07
5.03424e-07
5.71192e-05
-6.13033e-07
-5.57453e-07
5.1884e-07
5.39743e-05
-6.438e-07
5.23638e-07
4.98506e-05
-6.55468e-07
-6.35677e-07
4.79342e-07
3.7724e-07
5.3971e-05
-6.21473e-07
3.64957e-07
3.6321e-07
5.77691e-05
2.30002e-07
3.56532e-07
6.06696e-05
8.12318e-08
3.38971e-07
6.26301e-05
-5.73651e-08
3.55811e-07
6.36193e-05
-1.93486e-07
3.52989e-07
6.36225e-05
-3.26695e-07
3.54723e-07
6.26389e-05
-4.4562e-07
3.76314e-07
6.06824e-05
-5.48619e-07
3.93776e-07
5.7781e-05
4.21093e-07
5.39768e-05
-6.61814e-07
4.78274e-07
2.5862e-07
5.71082e-05
-6.15316e-07
3.64311e-07
2.18494e-07
6.06706e-05
2.34799e-07
2.16511e-07
6.33915e-05
9.26587e-08
2.08442e-07
6.52289e-05
-4.46866e-08
2.2126e-07
6.61555e-05
-1.8659e-07
2.2365e-07
6.6158e-05
-3.2589e-07
2.30173e-07
6.5236e-05
-4.49012e-07
2.46622e-07
6.34029e-05
-5.57604e-07
2.58216e-07
6.06856e-05
2.80309e-07
5.71249e-05
-6.42807e-07
4.66055e-07
1.10496e-07
5.92317e-05
-5.72239e-07
3.5528e-07
6.67707e-08
6.26314e-05
2.29468e-07
7.20482e-08
6.52295e-05
9.1848e-08
6.86994e-08
6.69841e-05
-4.45426e-08
7.83507e-08
6.78689e-05
-1.81829e-07
8.59444e-08
6.78711e-05
-3.15436e-07
9.26529e-08
6.69903e-05
-4.3467e-07
1.02409e-07
6.52397e-05
-5.36519e-07
1.12212e-07
6.26457e-05
1.26788e-07
5.92481e-05
-6.18044e-07
4.96989e-07
-6.78094e-08
6.03032e-05
-5.67887e-07
3.80037e-07
-7.5376e-08
6.36204e-05
2.46066e-07
-6.74838e-08
6.61559e-05
1.03203e-07
-6.68045e-08
6.78689e-05
-3.78317e-08
-6.06743e-08
6.8733e-05
-1.77498e-07
-5.45304e-08
6.87351e-05
-3.1074e-07
-4.81449e-08
6.78749e-05
-4.30727e-07
-4.19549e-08
6.61655e-05
-5.36663e-07
-3.63407e-08
6.36332e-05
-2.78056e-08
6.03174e-05
-6.20477e-07
4.91789e-07
-2.29205e-07
6.03066e-05
-5.79149e-07
3.79133e-07
-2.21761e-07
6.36233e-05
2.52971e-07
-2.09115e-07
6.61582e-05
1.11997e-07
-2.02725e-07
6.78708e-05
-3.1397e-08
-1.96813e-07
6.87348e-05
-1.72312e-07
-1.91078e-07
6.87367e-05
-3.06781e-07
-1.87399e-07
6.78763e-05
-4.28609e-07
-1.85717e-07
6.61667e-05
-5.36251e-07
-1.81529e-07
6.36341e-05
-1.80865e-07
6.03181e-05
-6.21708e-07
4.93637e-07
-3.79538e-07
5.92409e-05
-5.81456e-07
3.83124e-07
-3.61303e-07
6.26395e-05
2.58874e-07
-3.48703e-07
6.5236e-05
1.19151e-07
-3.32685e-07
6.69899e-05
-2.5323e-08
-3.25661e-07
6.78745e-05
-1.68609e-07
-3.20985e-07
6.78762e-05
-3.05697e-07
-3.19483e-07
6.69948e-05
-4.27541e-07
-3.24518e-07
6.52434e-05
-5.3576e-07
-3.22168e-07
6.26486e-05
-3.3073e-07
5.92502e-05
-6.20957e-07
5.22787e-07
-5.16846e-07
5.71208e-05
-6.16891e-07
4.0236e-07
-4.81771e-07
6.06829e-05
2.72165e-07
-4.70898e-07
6.34027e-05
1.27107e-07
-4.48401e-07
6.52392e-05
-2.02144e-08
-4.42217e-07
6.6165e-05
-1.67878e-07
-4.38779e-07
6.61665e-05
-3.1189e-07
-4.35752e-07
6.52433e-05
-4.41623e-07
-4.47985e-07
6.34089e-05
-5.58933e-07
-4.46933e-07
6.06904e-05
-4.6731e-07
5.71284e-05
-6.48163e-07
5.40699e-07
-6.13312e-07
5.39757e-05
-6.57992e-07
4.13011e-07
-5.82539e-07
5.77812e-05
2.7965e-07
-5.76796e-07
6.06853e-05
1.32844e-07
-5.49625e-07
6.26451e-05
-1.70322e-08
-5.45778e-07
6.36326e-05
-1.65623e-07
-5.4205e-07
6.36338e-05
-3.13087e-07
-5.38914e-07
6.26484e-05
-4.44828e-07
-5.58009e-07
6.06903e-05
-5.62606e-07
-5.58654e-07
5.77873e-05
-5.73189e-07
5.39817e-05
-6.73307e-07
5.62328e-07
4.98519e-05
-6.95134e-07
-6.82978e-07
4.45701e-07
5.3977e-05
-6.81006e-07
2.99812e-07
5.71245e-05
-6.58647e-07
1.43825e-07
5.92475e-05
-6.29626e-07
-1.32015e-08
6.03169e-05
-6.28126e-07
-1.70148e-07
6.03178e-05
-6.25505e-07
-3.24495e-07
5.92501e-05
-6.20034e-07
-4.67164e-07
5.71283e-05
-6.42518e-07
-5.75823e-07
5.39816e-05
-6.65589e-07
4.98563e-05
-6.73857e-07
-6.75458e-07
6.36603e-07
6.30446e-07
5.01293e-05
-7.11892e-07
-7.72367e-07
5.20672e-07
5.78539e-07
5.42457e-05
-7.05036e-07
3.48598e-07
5.52781e-07
5.73858e-05
-6.31858e-07
1.70052e-07
5.37832e-07
5.95117e-05
-6.1265e-07
-2.46892e-08
5.66684e-07
6.05838e-05
-6.31598e-07
-1.92117e-07
5.59652e-07
6.05843e-05
-6.50563e-07
-3.47533e-07
5.60572e-07
5.95119e-05
-6.6057e-07
-4.93752e-07
5.89464e-07
5.73818e-05
-6.9401e-07
-6.04803e-07
6.23431e-07
5.42226e-05
-7.43575e-07
6.38238e-07
5.00808e-05
-7.11104e-07
-7.48638e-07
5.59889e-07
5.24861e-07
5.42474e-05
-7.04229e-07
4.34393e-07
4.33265e-07
5.80576e-05
2.86756e-07
4.24389e-07
6.09632e-05
1.25437e-07
4.16519e-07
6.29259e-05
-2.78481e-08
4.38268e-07
6.39148e-05
-1.85327e-07
4.3327e-07
6.39145e-05
-3.38088e-07
4.35719e-07
6.29244e-05
-4.74079e-07
4.59333e-07
6.09581e-05
-5.91199e-07
4.798e-07
5.8043e-05
5.17036e-07
5.42225e-05
-7.09864e-07
5.57098e-07
3.76129e-07
5.73893e-05
-6.66984e-07
4.25515e-07
2.85922e-07
6.09648e-05
2.8269e-07
2.80284e-07
6.36931e-05
1.32119e-07
2.74947e-07
6.55335e-05
-1.74851e-08
2.91857e-07
6.64599e-05
-1.7276e-07
2.95969e-07
6.64592e-05
-3.27507e-07
3.00449e-07
6.55309e-05
-4.68074e-07
3.14739e-07
6.36883e-05
-5.84271e-07
3.27887e-07
6.09582e-05
3.53641e-07
5.73818e-05
-6.76482e-07
5.46171e-07
1.92953e-07
5.9515e-05
-6.30966e-07
4.19014e-07
1.30293e-07
6.2928e-05
2.7509e-07
1.29848e-07
6.55343e-05
1.26227e-07
1.24423e-07
6.72928e-05
-1.86416e-08
1.35446e-07
6.8178e-05