/*--------------------------------*- C++ -*----------------------------------*\
| =========                 |                                                 |
| \\      /  F ield         | OpenFOAM: The Open Source CFD Toolbox           |
|  \\    /   O peration     | Version:  2406                                  |
|   \\  /    A nd           | Website:  www.openfoam.com                      |
|    \\/     M anipulation  |                                                 |
\*---------------------------------------------------------------------------*/
FoamFile
{
    version     2.0;
    format      ascii;
    arch        "LSB;label=32;scalar=64";
    class       volScalarField;
    location    "50";
    object      turbulenceProperties:I;
}
// * * * * * * * * * * * * * * * * * * * * * * * * * * * * * * * * * * * * * //

dimensions      [0 0 0 0 0 0 0];

internalField   nonuniform List<scalar> 
25000
(
0.00866525
0.00615388
0.00472591
0.00452471
0.00446766
0.00446889
0.00449798
0.00454585
0.00476812
0.00492097
0.00613697
0.0048523
0.004388
0.00429089
0.00427411
0.00430356
0.00438145
0.00451071
0.00473052
0.00483612
0.00466288
0.00435367
0.00420528
0.00414766
0.00413169
0.00415518
0.00422388
0.00433974
0.00451601
0.00460734
0.00448019
0.00426261
0.00413599
0.00406525
0.00403704
0.00405394
0.00411963
0.00423494
0.00440151
0.00455957
0.00444241
0.00425085
0.0041211
0.00403396
0.00399456
0.0040057
0.00406912
0.00418422
0.00434532
0.00453332
0.00445623
0.00428869
0.00414543
0.0040503
0.00400475
0.00401155
0.00407187
0.00418542
0.0043461
0.00452959
0.00448816
0.00436706
0.00421531
0.00411495
0.00406665
0.00407005
0.00412785
0.00423883
0.00440307
0.00454842
0.00454032
0.00449696
0.00432992
0.0042292
0.00417951
0.00418161
0.00423677
0.00434492
0.00451811
0.00458814
0.0047661
0.00472013
0.00450899
0.00439587
0.00434068
0.00434178
0.00439944
0.00451732
0.00473104
0.00480425
0.00491343
0.00482806
0.00460073
0.00455481
0.00453088
0.00452838
0.00454931
0.00459099
0.00480963
0.00493222
0.00938533
0.00671756
0.00523475
0.00524471
0.00530645
0.00534018
0.00537466
0.0054268
0.00562212
0.00572291
0.00672451
0.00575796
0.00529191
0.00521841
0.00520771
0.00523297
0.00528154
0.00534509
0.00546077
0.00564262
0.00523784
0.00529553
0.00524089
0.00517413
0.00514106
0.00515098
0.00518539
0.00523419
0.00533317
0.00542604
0.00524955
0.00522069
0.0051759
0.00512936
0.00510096
0.00510644
0.00513823
0.00519171
0.00528317
0.00537486
0.00529749
0.0052037
0.00514042
0.00510108
0.00508118
0.00508599
0.00511533
0.00516998
0.00525139
0.00534714
0.00532316
0.00522273
0.00514534
0.00510355
0.00508492
0.00508942
0.00511726
0.00517101
0.00525257
0.00534491
0.00535367
0.00526661
0.00517533
0.00513242
0.00511213
0.0051159
0.00514438
0.00519513
0.00528603
0.00536833
0.00540409
0.00532503
0.00522143
0.00518363
0.00516438
0.00516815
0.0051943
0.00523773
0.00533674
0.00541423
0.00560219
0.00544495
0.0053235
0.00527348
0.00524487
0.00524883
0.00528479
0.00533944
0.00545314
0.00561203
0.00570109
0.00562531
0.0054082
0.00536088
0.00533949
0.00534367
0.0053723
0.00542191
0.00562368
0.00571242
0.00733839
0.00510584
0.00471015
0.00489958
0.00501217
0.00501561
0.00504718
0.00511703
0.00522533
0.00544063
0.00511328
0.00499812
0.00482942
0.00492211
0.00490337
0.0049026
0.00492896
0.00497224
0.0050111
0.0052212
0.00468876
0.00482378
0.00490902
0.00483847
0.00480793
0.00481075
0.00483686
0.00487614
0.00494067
0.00506984
0.00488407
0.00490537
0.00483224
0.00477283
0.00474919
0.00475633
0.00478513
0.00482903
0.00489897
0.00499127
0.00498146
0.00487919
0.00479335
0.00474307
0.00472167
0.00472712
0.00475415
0.00480039
0.00487043
0.00495533
0.00498418
0.00487666
0.00479211
0.00474487
0.00472273
0.00472677
0.00475288
0.00479944
0.0048718
0.00495462
0.00501976
0.00490609
0.00481752
0.00477277
0.00474753
0.00475082
0.00478121
0.00482697
0.00490173
0.00498855
0.00509197
0.00494776
0.0048582
0.00481705
0.00479271
0.00479639
0.00482641
0.0048694
0.00494309
0.00506179
0.00520015
0.00499191
0.00492768
0.00488668
0.0048631
0.00486776
0.00490012
0.0049455
0.00499285
0.0051834
0.00539823
0.00518752
0.0050382
0.0049711
0.00494534
0.00495237
0.00499089
0.0050672
0.00519556
0.0054028
0.00482551
0.00444613
0.00402799
0.00425521
0.00431931
0.00427798
0.00431497
0.00438918
0.0044152
0.00472493
0.00441227
0.00393313
0.00412896
0.00427858
0.00416479
0.0041255
0.00413656
0.00417948
0.00417881
0.00437607
0.00399906
0.00409678
0.0042356
0.00406794
0.00401814
0.00400087
0.0040206
0.00406932
0.00412431
0.00428155
0.00419607
0.00422552
0.00404123
0.00394694
0.00391793
0.00391692
0.00394543
0.00399688
0.00407012
0.00418983
0.00425598
0.00411074
0.00397895
0.00390007
0.00386626
0.00386786
0.00389913
0.00395558
0.00404369
0.00416085
0.00422792
0.00408241
0.00396367
0.00389226
0.00385776
0.00386026
0.00389335
0.00395232
0.00404654
0.00416542
0.00427662
0.00410216
0.00398916
0.00392329
0.00388629
0.00388869
0.00392811
0.0039883
0.00407623
0.00420091
0.00436784
0.00414806
0.00404382
0.00397957
0.00394392
0.00394667
0.00398633
0.00404986
0.00412908
0.00428874
0.00439602
0.0041528
0.00410717
0.00405751
0.00403556
0.00403939
0.0040699
0.00412692
0.00415228
0.00434257
0.00466371
0.00431462
0.00423462
0.00416626
0.00414913
0.00415796
0.00419398
0.00428233
0.00434818
0.00466013
0.00448885
0.00457334
0.00359171
0.00388197
0.00376168
0.00367652
0.00372495
0.003794
0.0037826
0.00413098
0.00461714
0.00332902
0.00382412
0.00376903
0.00354669
0.00349002
0.00349775
0.00354745
0.00354009
0.0037227
0.00361173
0.00378202
0.00371692
0.00341979
0.00336223
0.00333068
0.00335155
0.00341756
0.00347148
0.00364169
0.00380245
0.0037038
0.00338764
0.00326263
0.00321959
0.00320675
0.00324234
0.00331513
0.00340435
0.00355643
0.00369879
0.00349074
0.00332045
0.0032024
0.00314308
0.00313565
0.00317893
0.00326239
0.00338281
0.00354267
0.00362698
0.00345147
0.00329806
0.00318806
0.00312959
0.00312492
0.00317124
0.00325934
0.00339054
0.00355643
0.00368257
0.00346774
0.00332809
0.00323011
0.00317337
0.00317
0.00321949
0.00330691
0.00342459
0.00359351
0.00378046
0.00352886
0.00340651
0.00331221
0.00326165
0.00325937
0.00330615
0.00339806
0.00349762
0.00368347
0.00378617
0.00353918
0.0034812
0.003416
0.0033902
0.00338915
0.0034169
0.00349113
0.00353237
0.003718
0.00405092
0.00367682
0.0036206
0.00355769
0.00354406
0.00354973
0.00357818
0.00366585
0.00371389
0.00404772
0.00445833
0.00400179
0.00342039
0.00373265
0.00340216
0.00329127
0.00336026
0.00343227
0.00341709
0.00368326
0.00411849
0.00335894
0.00376425
0.00341148
0.00317595
0.00313895
0.00316855
0.00323132
0.00322714
0.00334362
0.00340522
0.00373969
0.00335951
0.00301872
0.00300182
0.00299881
0.00303826
0.00311338
0.00315477
0.00326746
0.00369282
0.00338715
0.00301092
0.0028914
0.00286551
0.00287204
0.00292303
0.00300715
0.00309493
0.00321841
0.00339059
0.00316422
0.00299057
0.00286487
0.00280763
0.00280505
0.00285844
0.00295342
0.0030759
0.003225
0.00327812
0.00312479
0.00299014
0.00287456
0.00281025
0.00280159
0.0028517
0.00294981
0.00308423
0.00324701
0.003334
0.00314862
0.00302956
0.0029288
0.0028668
0.00285651
0.00290454
0.00299898
0.00311904
0.00328234
0.0034321
0.00322067
0.00311524
0.00301896
0.00296473
0.00295714
0.00300122
0.00309783
0.00319773
0.00335592
0.00345098
0.00324852
0.00318803
0.00312227
0.00309268
0.00308721
0.0031124
0.00319024
0.00324579
0.00338569
0.00365042
0.00334546
0.00329806
0.00325289
0.00323971
0.00323819
0.00325818
0.00332835
0.00337627
0.00364205
0.00391218
0.00364995
0.0039557
0.00377431
0.00323365
0.00309655
0.00316971
0.00326698
0.00327048
0.00344647
0.00360184
0.00387387
0.00370683
0.00320155
0.00304192
0.00299612
0.00304802
0.00312647
0.00312388
0.00319241
0.00386433
0.00369468
0.00311092
0.00287544
0.00288244
0.00290981
0.00296951
0.00304718
0.00307258
0.00312513
0.00377407
0.00323492
0.00290184
0.00278026
0.00278664
0.00282174
0.0028838
0.00296523
0.00303551
0.00311008
0.00326754
0.00308608
0.00291925
0.00280637
0.00277593
0.00278613
0.00283786
0.00292162
0.00301847
0.00312976
0.00312783
0.00301828
0.00293406
0.00284674
0.0028002
0.00279433
0.00283754
0.00291969
0.00302372
0.00315163
0.00317403
0.00305363
0.00298417
0.00290813
0.00285643
0.00284641
0.00288506
0.00296233
0.00305545
0.0031834
0.00327275
0.00313274
0.00306677
0.00299022
0.00294208
0.00293297
0.00296794
0.00304821
0.00312658
0.00324316
0.00331435
0.00318009
0.00313191
0.00307556
0.00304224
0.00303238
0.00305355
0.00312005
0.00317269
0.00326718
0.00344685
0.00323693
0.00320486
0.00317397
0.00315466
0.00314578
0.00315888
0.0032147
0.00325952
0.003445
0.00408722
0.00450483
0.00444088
0.00379138
0.0032301
0.00307529
0.00313374
0.0032487
0.00327092
0.00335449
0.00433035
0.00424554
0.0035867
0.00323456
0.00312944
0.00303464
0.00308889
0.00317736
0.00318377
0.0031991
0.00437476
0.00362271
0.00313605
0.00300265
0.00296755
0.00298934
0.00305412
0.0031353
0.00316018
0.0031508
0.00383263
0.00331068
0.00305442
0.00288446
0.00289477
0.00293259
0.00299429
0.00307452
0.00313865
0.00316734
0.00328124
0.00319597
0.00304089
0.00293141
0.0029094
0.00291819
0.00296417
0.0030387
0.00311521
0.00318877
0.00315073
0.00308227
0.00303565
0.00296991
0.00293597
0.00293235
0.00296833
0.00303482
0.00310983
0.00319992
0.00318895
0.00311868
0.0030812
0.00302632
0.0029853
0.00297809
0.0030092
0.00306738
0.00313158
0.00322281
0.00328105
0.00319549
0.00315795
0.00309899
0.00305781
0.00304898
0.00307505
0.0031338
0.00318857
0.00326979
0.00334415
0.00326175
0.00322211
0.00316957
0.00313116
0.00311739
0.00313291
0.0031836
0.00322621
0.00328051
0.00341597
0.00328985
0.00327144
0.00324158
0.00320828
0.00318874
0.0031947
0.00323337
0.00326751
0.00337634
0.00468172
0.00500478
0.00448476
0.00371654
0.00329471
0.00312463
0.00314992
0.00326789
0.00332115
0.00336236
0.00484622
0.00420468
0.00346044
0.00335393
0.00321811
0.00309091
0.00313236
0.00322216
0.00325218
0.00324552
0.00446308
0.00353305
0.00330824
0.00314049
0.00305869
0.00306405
0.00311919
0.00319919
0.0032405
0.00321765
0.00373477
0.00342351
0.00320801
0.00301096
0.00301133
0.00303173
0.00308456
0.00316048
0.00322455
0.00324525
0.00329078
0.00326263
0.00314853
0.00305705
0.00303252
0.00303285
0.00307091
0.00313601
0.00319635
0.00324629
0.00318795
0.00312988
0.00311022
0.00306823
0.00304734
0.00304767
0.003079
0.00313092
0.00318033
0.00323776
0.00322256
0.00316336
0.00314108
0.00310581
0.00308237
0.00308363
0.00311016
0.00315088
0.00319206
0.0032564
0.00330341
0.00323197
0.00320504
0.00316394
0.00313715
0.00313556
0.00315704
0.00319943
0.00323928
0.00330462
0.00338314
0.0033149
0.00327392
0.00322366
0.00318824
0.00317858
0.00319607
0.00323967
0.00327736
0.00332166
0.00345817
0.00337642
0.00334538
0.00329361
0.00324251
0.00322003
0.00323301
0.00327173
0.00330456
0.00337473
0.00467756
0.00477601
0.00408065
0.0035361
0.00329348
0.00314906
0.00316775
0.0032781
0.00335605
0.00337109
0.00470467
0.00392462
0.00340499
0.00336829
0.00322949
0.00313662
0.00316719
0.00325526
0.00331809
0.00327936
0.00416291
0.00348892
0.00336618
0.00317044
0.00312349
0.0031268
0.00317296
0.00325336
0.0033192
0.00329245
0.00351731
0.00342109
0.00324994
0.00310672
0.00310422
0.00311041
0.00315775
0.00323057
0.00329795
0.00332107
0.00322683
0.00323444
0.00320023
0.00314326
0.00312196
0.00312089
0.00315557
0.00321044
0.0032545
0.00328578
0.00317136
0.00313426
0.00313906
0.00312099
0.00312127
0.00313367
0.0031622
0.0031984
0.00322344
0.00325306
0.00321488
0.00316586
0.00315673
0.00314269
0.00314226
0.003156
0.00318119
0.00320745
0.00322863
0.00327021
0.00328236
0.00322285
0.00321267
0.00318941
0.00317753
0.00318546
0.00321004
0.00324382
0.00327285
0.00332502
0.00337451
0.00330852
0.00327973
0.00323696
0.00320639
0.00320532
0.00323331
0.00327959
0.00331421
0.00334982
0.00346335
0.00339619
0.00336252
0.00330061
0.00324403
0.00322695
0.00325364
0.00329621
0.00332558
0.00337522
0.00431643
0.00423107
0.00364256
0.00339014
0.00324449
0.00315686
0.00316269
0.0032537
0.00336135
0.00336126
0.00428688
0.00366171
0.00333788
0.00325988
0.00320524
0.00315625
0.00315803
0.00323644
0.00334069
0.00330714
0.00381388
0.00343184
0.00328409
0.00315009
0.00315341
0.00313781
0.0031683
0.00325045
0.00334863
0.00335781
0.00334954
0.00333637
0.00323881
0.00315506
0.0031248
0.00311154
0.00315648
0.00323267
0.00331068
0.00335921
0.00315039
0.00318191
0.00319993
0.00314478
0.00311355
0.00311149
0.00314838
0.00320205
0.00324272
0.00327275
0.00313211
0.00311133
0.00310809
0.00308619
0.00309294
0.00311454
0.00314704
0.0031799
0.00319597
0.00321396
0.0031635
0.00312729
0.00311858
0.00310451
0.00310854
0.00313024
0.00316263
0.00318953
0.00320164
0.00322873
0.00320991
0.00316954
0.00317446
0.00315477
0.00314164
0.00315472
0.00319128
0.00323059
0.00325185
0.00329063
0.00330546
0.00325111
0.00324064
0.00320183
0.0031695
0.00317375
0.00321543
0.00327066
0.00330076
0.00333065
0.00340967
0.00334344
0.00331878
0.00326066
0.00320683
0.00319812
0.00323699
0.00328623
0.00331257
0.0033594
0.00367259
0.0036005
0.00330679
0.00322892
0.00319252
0.00314176
0.00312407
0.0031961
0.0033291
0.00333629
0.00378946
0.00348016
0.00321208
0.00314642
0.00319006
0.00314248
0.00311285
0.00317953
0.00334101
0.00334953
0.00352608
0.00335237
0.00318787
0.00314865
0.00315666
0.00311066
0.00312192
0.00320268
0.00334636
0.00343307
0.00323928
0.00325787
0.0032252
0.00315554
0.00308733
0.00305875
0.00309785
0.00317878
0.00328134
0.00338014
0.00310462
0.00314502
0.0031597
0.00307888
0.00303372
0.00302907
0.00306938
0.00313234
0.0031892
0.00323693
0.00310396
0.00307658
0.00304261
0.00299578
0.0029912
0.00301395
0.0030557
0.00310299
0.00313268
0.00315483
0.00310758
0.00308033
0.00305729
0.00302191
0.00301055
0.00303067
0.00307602
0.00312002
0.00314076
0.00316578
0.00313674
0.00311472
0.0031227
0.00308842
0.00305973
0.00307028
0.00311949
0.00317411
0.00320129
0.0032323
0.00323317
0.0031949
0.0031955
0.00314841
0.00310559
0.003109
0.00316011
0.00323042
0.0032673
0.00328352
0.00333514
0.00326825
0.00326046
0.00321123
0.00315827
0.00315256
0.00319779
0.00325168
0.00327266
0.00331901
0.00320677
0.00329516
0.00317782
0.00313932
0.00321185
0.00313256
0.00307934
0.003147
0.00331981
0.003376
0.00346681
0.00337754
0.00316175
0.00318037
0.00321183
0.00308822
0.00303196
0.00309901
0.00332129
0.00346885
0.00336787
0.00333222
0.00322983
0.00321271
0.003147
0.00304488
0.00302707
0.00310107
0.00328605
0.00351444
0.00318961
0.00325766
0.00325155
0.00314388
0.00302975
0.00298096
0.0029957
0.00306424
0.00318704
0.00335839
0.00309656
0.00312804
0.00310432
0.00299316
0.002939
0.00292511
0.00294976
0.00300717
0.00308047
0.00316009
0.00308905
0.00302552
0.00295209
0.00288699
0.00287099
0.00288419
0.00292197
0.00297586
0.0030241
0.00307009
0.00306244
0.00301417
0.00296554
0.00290886
0.00288019
0.0028917
0.0029402
0.00299777
0.00304028
0.0030901
0.00308535
0.00305308
0.00303784
0.00298135
0.00293631
0.00294071
0.00299405
0.00306483
0.003119
0.0031767
0.00318442
0.00314846
0.00313114
0.00306032
0.00300386
0.00300333
0.00305984
0.00315302
0.00322703
0.00325856
0.00329854
0.00322699
0.00321503
0.00314933
0.00308682
0.00308211
0.00313938
0.00322068
0.00326189
0.00331594
0.00299877
0.00324025
0.00316577
0.0031112
0.00323501
0.00310995
0.00302278
0.00309118
0.00332377
0.00349186
0.00328116
0.0033004
0.0031581
0.00325903
0.00323773
0.00301057
0.00292826
0.00300788
0.00327393
0.00361938
0.00325937
0.00330835
0.00329515
0.0032905
0.00315659
0.00296752
0.00290577
0.00298367
0.00318158
0.00355242
0.0031115
0.00323812
0.00328022
0.00316565
0.00301921
0.00292688
0.00289022
0.00293192
0.0030556
0.00327412
0.00304644
0.00309639
0.0030689
0.002958
0.00290593
0.00287146
0.00285037
0.00286919
0.00294018
0.00304718
0.00306108
0.00297556
0.00287658
0.00281781
0.00280722
0.00280544
0.00281338
0.00284145
0.00289389
0.00297717
0.00304251
0.00294835
0.00287213
0.00281473
0.00278458
0.0027854
0.00281743
0.00286628
0.00292872
0.00302147
0.0030728
0.00300072
0.00294501
0.00287148
0.0028198
0.00281798
0.0028645
0.00294144
0.00302819
0.00313911
0.00317898
0.00312265
0.0030583
0.00295629
0.00288928
0.00288598
0.00294473
0.0030587
0.00318737
0.00327446
0.00331457
0.00322519
0.00318248
0.00307625
0.00299857
0.00299666
0.00307053
0.00319621
0.00329306
0.00337487
0.00289686
0.00320256
0.00313638
0.00308009
0.00322066
0.00307608
0.00295342
0.00300474
0.00327986
0.00361746
0.00315091
0.00321087
0.00312312
0.00328171
0.00323713
0.00295352
0.00283887
0.0029035
0.00315862
0.00366786
0.00314846
0.00322235
0.00328373
0.00332279
0.00317367
0.00290847
0.00280117
0.00287868
0.00303682
0.0034707
0.00299155
0.00313909
0.00325677
0.0031975
0.00305697
0.00290336
0.00279471
0.00280886
0.00291017
0.0031205
0.00294983
0.00303086
0.00303937
0.00297212
0.00293516
0.0028617
0.00276943
0.00273557
0.00279759
0.0029276
0.00301818
0.0029438
0.00284109
0.00279737
0.00279566
0.00277266
0.00273607
0.00272542
0.00277815
0.00289775
0.00303805
0.00290991
0.0028148
0.00275576
0.00272494
0.00271844
0.0027322
0.00276773
0.00283782
0.00295686
0.00306902
0.00295689
0.0028743
0.00278642
0.00272801
0.00272544
0.00277036
0.00284664
0.00293619
0.00308478
0.00317515
0.00308431
0.00297946
0.00286016
0.00279007
0.00278881
0.00284722
0.00295643
0.00310674
0.00326821
0.00335609
0.0032233
0.0031308
0.00299269
0.00291231
0.00291409
0.00298779
0.00313609
0.00329801
0.00345489
0.00277707
0.00316617
0.00306229
0.00304861
0.00320779
0.00306376
0.00289638
0.0028943
0.00314021
0.00356163
0.00304933
0.0031261
0.00310713
0.00331176
0.00325908
0.00296638
0.00279566
0.00280745
0.0030152
0.00351036
0.00305473
0.00313908
0.0032754
0.003354
0.00320882
0.00291453
0.00276344
0.00278885
0.00289582
0.00326576
0.00290497
0.00306016
0.00323393
0.00322703
0.00310011
0.00290049
0.00273845
0.00271708
0.00278102
0.00295716
0.0028846
0.00301229
0.00304103
0.00299843
0.00296171
0.00284829
0.00270814
0.00265446
0.00271254
0.00284581
0.00300755
0.00296807
0.00287143
0.00281238
0.00279043
0.00274604
0.0026902
0.00267622
0.00273598
0.00285141
0.00305752
0.00292881
0.00282668
0.00274807
0.00269688
0.00268428
0.00269885
0.00273353
0.00279769
0.00290913
0.00305118
0.00294907
0.00285791
0.00276077
0.00269517
0.00269171
0.00273435
0.00279691
0.00287054
0.00301143
0.0031267
0.00304347
0.00293628
0.00281893
0.0027575
0.00275433
0.00279439
0.00287785
0.00301131
0.00319017
0.00331763
0.00316364
0.00305766
0.00293528
0.00286951
0.00286716
0.00291625
0.00303739
0.00321611
0.00342362
0.00243873
0.00302225
0.00288947
0.00303003
0.00320741
0.0030929
0.00291199
0.00280784
0.00297092
0.00322979
0.00297419
0.00306495
0.0031413
0.00334794
0.00327032
0.00300447
0.00283326
0.0027902
0.00287698
0.00322179
0.002969
0.00308283
0.00327161
0.0033478
0.00319835
0.00292346
0.00276912
0.00274783
0.0027945
0.0030117
0.00283792
0.0030187
0.00319721
0.00319202
0.00305973
0.00285181
0.00269804
0.00266647
0.00270053
0.00283101
0.00285475
0.0030142
0.0030318
0.00296354
0.00289374
0.00276526
0.00265039
0.00263557
0.00269787
0.00280602
0.00304209
0.00299348
0.00289006
0.00279475
0.00272752
0.00267576
0.00265065
0.00267647
0.00275551
0.00285665
0.00310158
0.00298321
0.00284768
0.00273876
0.00266625
0.00265293
0.00268204
0.00273598
0.00281735
0.00291173
0.00302227
0.00299424
0.00289288
0.00277153
0.0027025
0.00269699
0.00273592
0.00280062
0.00286624
0.00295426
0.00305382
0.00301673
0.00295576
0.0028514
0.00279299
0.00278163
0.00280274
0.00285747
0.00293805
0.00308594
0.00307887
0.00308794
0.00299614
0.00293106
0.0028955
0.00288385
0.00288888
0.0029466
0.00309908
0.00315915
0.00244543
0.00292886
0.00289481
0.0031251
0.00323637
0.00318104
0.00304866
0.0028335
0.00293172
0.00242657
0.00293421
0.0030827
0.00324598
0.00338317
0.00328222
0.00309683
0.00301895
0.00293944
0.0028554
0.00303932
0.00292599
0.00309111
0.00327482
0.00331232
0.00317198
0.00295643
0.00286666
0.00287644
0.00282877
0.00287731
0.00282299
0.00302703
0.00316598
0.00313263
0.00299571
0.00281621
0.00272239
0.00274939
0.00277475
0.00279596
0.00288333
0.00303128
0.00302549
0.00292363
0.00281929
0.00270424
0.00265427
0.00270352
0.00279084
0.00284775
0.0031267
0.00304164
0.00290537
0.00278167
0.00268842
0.00264228
0.00265216
0.00272555
0.0028544
0.00297089
0.00318892
0.00310051
0.0029124
0.00275846
0.002676
0.0026617
0.00270522
0.00280613
0.00294125
0.00302171
0.0030585
0.00310912
0.00301513
0.00285976
0.00276917
0.00275944
0.00281705
0.00291624
0.00297662
0.00299234
0.00306602
0.00305996
0.00305328
0.0029764
0.00291339
0.00289752
0.00292149
0.00295034
0.00296948
0.00307655
0.00249442
0.00308609
0.00300341
0.00299706
0.0030117
0.00299878
0.00295069
0.00294452
0.00307325
0.00249527
0.00416022
0.00309545
0.00323432
0.00330441
0.00322786
0.0032147
0.00319144
0.00297849
0.00298626
0.0035339
0.00294152
0.00321223
0.00332037
0.00331318
0.00319849
0.00312587
0.00315907
0.00307848
0.00291102
0.00304258
0.00294344
0.00309044
0.00316021
0.00314793
0.0030617
0.00294588
0.0029433
0.00299128
0.00287788
0.00289132
0.00285585
0.00296705
0.00302231
0.00299205
0.00290314
0.00278643
0.00276559
0.00285739
0.00287013
0.00281761
0.00291014
0.00296023
0.00293612
0.00285277
0.00276865
0.00269333
0.00269168
0.00278629
0.00289384
0.00290975
0.00314046
0.00302912
0.00288002
0.00276324
0.0026896
0.00266004
0.00268405
0.00278452
0.00295066
0.00308518
0.00321671
0.00313561
0.00295065
0.00279263
0.00271568
0.00270383
0.00275356
0.00287659
0.00303844
0.00314286
0.00313934
0.00314798
0.00305955
0.00292979
0.00284533
0.00283484
0.00289642
0.00299926
0.00306457
0.00309888
0.00314455
0.00312906
0.00308641
0.00303733
0.0030044
0.00299637
0.00301284
0.00302767
0.00305137
0.003131
0.00355722
0.00315517
0.00306947
0.00305178
0.00308851
0.00308871
0.00303082
0.00301935
0.00311756
0.00352073
0.00673738
0.00353732
0.00359606
0.00336058
0.0030888
0.0031057
0.00325223
0.0032011
0.00306186
0.00640201
0.0030758
0.00334773
0.00329877
0.00315823
0.00302744
0.0030427
0.0031611
0.00313195
0.00301295
0.00299962
0.00303116
0.00306166
0.00301274
0.0029574
0.00293773
0.00292015
0.00295936
0.0029972
0.00289986
0.00297392
0.00291379
0.00289868
0.0028627
0.0028643
0.00287149
0.00282695
0.00282575
0.00290284
0.00289555
0.00287612
0.00291072
0.00286379
0.00283924
0.00282885
0.00281811
0.00277816
0.00277668
0.00285934
0.00294018
0.00293674
0.00306499
0.00296293
0.00287374
0.00281466
0.00278535
0.00276653
0.00277911
0.00286379
0.00300106
0.00311397
0.00318629
0.00306783
0.0029492
0.00286447
0.00282549
0.00281597
0.00284153
0.00292326
0.00305745
0.00320616
0.00325631
0.00310817
0.00300249
0.00294319
0.00292283
0.00291974
0.00293812
0.00299755
0.00308653
0.00323165
0.00325979
0.00320593
0.00305989
0.003003
0.00301206
0.00302006
0.00301913
0.00304904
0.00314659
0.0031786
0.00639531
0.00323619
0.0031741
0.00307527
0.00306848
0.00307726
0.00307279
0.00312898
0.00314707
0.00641438
0.0099985
0.00401191
0.0037912
0.00328755
0.00296314
0.00295598
0.00319941
0.00336109
0.00313694
0.00981353
0.00324895
0.00335013
0.00318551
0.00304446
0.00285792
0.00284418
0.0030239
0.0030876
0.00306766
0.00271602
0.00303267
0.00299604
0.00298978
0.00289188
0.00280383
0.00282054
0.00288946
0.0029171
0.00290036
0.00301886
0.00293466
0.00290807
0.00282237
0.00279035
0.00284181
0.00284853
0.00284059
0.00285992
0.0028588
0.00294539
0.0029178
0.0028183
0.00277077
0.00281847
0.00288582
0.00287955
0.00285265
0.00287225
0.00290059
0.00292624
0.00295963
0.00286771
0.00284856
0.00287227
0.00290517
0.00290124
0.00288373
0.00290726
0.00296874
0.00303584
0.00307961
0.00294909
0.00290279
0.00290083
0.00292542
0.00292413
0.0029036
0.00292043
0.00299941
0.00315228
0.00326686
0.0030249
0.00293179
0.00289868
0.00292953
0.00293601
0.00291249
0.00294055
0.00303596
0.00327332
0.00327014
0.00318316
0.00301527
0.00293721
0.00292743
0.00293695
0.00294667
0.0030074
0.00315782
0.00315967
0.00982097
0.00321423
0.00320297
0.00305022
0.00298281
0.00297922
0.00303569
0.00316258
0.00307715
0.0098612
0.0137738
0.00421351
0.00354617
0.00302825
0.00299569
0.00293528
0.00306952
0.0033397
0.00356669
0.0137336
0.00356199
0.00314945
0.00302554
0.00304706
0.00286354
0.0027625
0.00293609
0.00304453
0.00304039
0.00300683
0.00284116
0.00291984
0.00307208
0.00297789
0.00275409
0.00276284
0.00289247
0.00292802
0.00292647
0.00294106
0.00290273
0.00295959
0.00290949
0.00281272
0.00282331
0.00286127
0.00286963
0.00285802
0.00286541
0.0029701
0.00293043
0.0028666
0.00279692
0.00284696
0.00295247
0.00297014
0.00292026
0.00287627
0.00286846
0.00292067
0.00290111
0.00285989
0.00286538
0.00293825
0.00302011
0.00302789
0.00297201
0.00292691
0.00292452
0.00294618
0.00293441
0.0029089
0.00291068
0.00294098
0.00300494
0.00300605
0.00294745
0.00292245
0.00294539
0.00302294
0.00309114
0.00295552
0.00295171
0.00290293
0.00292259
0.00292379
0.00289613
0.00292085
0.00296525
0.00314947
0.00360328
0.00303768
0.00298196
0.00293273
0.00287497
0.0028654
0.00289567
0.00295092
0.00306193
0.00353062
0.0137675
0.00346112
0.00304123
0.00297319
0.00292552
0.00290751
0.00294965
0.00303262
0.00339703
0.0138042
0.0179421
0.00522079
0.00299233
0.00282575
0.00311584
0.00299124
0.00289208
0.00309588
0.00509452
0.0179798
0.0050868
0.00286098
0.00287774
0.00303131
0.00295201
0.00283227
0.00290025
0.00297277
0.00289932
0.00493267
0.00260714
0.00282339
0.00303468
0.00298386
0.00274657
0.00276226
0.00291614
0.00293876
0.00288753
0.00267673
0.00279752
0.00289761
0.00291132
0.00281304
0.00276572
0.00281965
0.00287494
0.00286636
0.00284397
0.00285144
0.00283023
0.00285381
0.00282083
0.00284602
0.00292711
0.00295336
0.00291428
0.00285455
0.00282448
0.0028351
0.00278614
0.00283212
0.00286082
0.00294
0.00302585
0.00303418
0.00296273
0.00288013
0.00283957
0.00281975
0.00273096
0.00281372
0.00286198
0.00292276
0.00299365
0.00298922
0.00291414
0.00285816
0.00283107
0.00281336
0.00273641
0.00279059
0.002854
0.00284841
0.00287003
0.00286306
0.00283359
0.00283254
0.00282079
0.00281955
0.00517712
0.00276287
0.00282044
0.00282719
0.00279588
0.00278521
0.002801
0.00281877
0.00283609
0.00513076
0.0180342
0.00508736
0.00264793
0.00276815
0.0027931
0.00278403
0.00277364
0.00270345
0.00506628
0.0180487
0.0222282
0.00742745
0.00271674
0.00274712
0.00304844
0.00286008
0.00262556
0.00289957
0.00748208
0.0223448
0.00745194
0.00254903
0.00268536
0.00284326
0.0028907
0.00280713
0.00276533
0.00280281
0.00265772
0.00746337
0.00273721
0.0026152
0.00275051
0.00276186
0.00267603
0.00273114
0.00281934
0.0028035
0.00272518
0.00259258
0.00250663
0.00263193
0.00270939
0.00268999
0.00265709
0.00272415
0.00279871
0.00278262
0.00271484
0.00254143
0.00259045
0.00269621
0.00274928
0.002769
0.00279426
0.00281709
0.00281848
0.00278017
0.00271984
0.00261549
0.00260738
0.00272633
0.00280139
0.00285932
0.00290102
0.00290007
0.00285061
0.00277468
0.00270326
0.00261208
0.00252314
0.00263911
0.00274292
0.00283611
0.00288598
0.00287037
0.00280195
0.0027197
0.00264806
0.00254864
0.00282866
0.00254375
0.00261978
0.00271018
0.00276489
0.0027537
0.00270306
0.00264455
0.00260981
0.00277886
0.00759954
0.00248205
0.00254781
0.00259833
0.00264526
0.00265177
0.00262537
0.00260849
0.0025455
0.00755647
0.0224142
0.00757218
0.00266899
0.00244622
0.0025325
0.00254533
0.00249318
0.00268106
0.00753312
0.0223977
0.0264667
0.0102382
0.00391349
0.00278355
0.00270101
0.0024812
0.00244039
0.00380655
0.0103423
0.0266424
0.0102375
0.00249236
0.002502
0.00255952
0.00265143
0.00259733
0.00255648
0.00264183
0.00263675
0.0103423
0.00379567
0.0024158
0.00243512
0.00246558
0.00254869
0.00260313
0.00259878
0.00262716
0.00264014
0.00379668
0.00255828
0.0025194
0.00253659
0.00253322
0.0025411
0.00259435
0.00263082
0.0026396
0.00265428
0.00262555
0.00284203
0.0027387
0.00269446
0.00264263
0.00260257
0.00261373
0.00265569
0.00267427
0.00267167
0.00263509
0.00283988
0.00283671
0.00281273
0.00274145
0.00268506
0.00267138
0.00268583
0.00269024
0.00266289
0.00254562
0.00265374
0.0027254
0.00281787
0.00278959
0.00272879
0.00269374
0.00268456
0.00267114
0.00260478
0.00247901
0.00395998
0.00250549
0.00267374
0.00273709
0.00270353
0.00266261
0.00264729
0.00260526
0.00252369
0.00387878
0.0104285
0.00256173
0.00251058
0.00262176
0.0026513
0.00263467
0.00259842
0.00254519
0.00255956
0.0103899
0.0267053
0.0104339
0.00390212
0.00250286
0.00258506
0.0026153
0.00256943
0.0038626
0.0103881
0.0266626
0.0305225
0.0133427
0.00550455
0.00297131
0.00224647
0.00227759
0.00286576
0.00547173
0.0135048
0.0307288
0.0133203
0.00295592
0.00237225
0.0024592
0.00245068
0.00238587
0.00249835
0.00261501
0.00322964
0.0135043
0.00542285
0.00245078
0.00253814
0.00251397
0.0024843
0.00242172
0.00243955
0.00265233
0.00279637
0.00556833
0.0034388
0.00288635
0.00274167
0.00254235
0.00245116
0.00242888
0.00242914
0.00259679
0.00284523
0.00348624
0.00354103
0.00314358
0.00283449
0.00254431
0.00239567
0.00238176
0.00245321
0.00260884
0.00282117
0.0031444
0.00337929
0.00319435
0.00298578
0.00266655
0.00243567
0.00239618
0.00251512
0.00269257
0.00281088
0.00286087
0.00319411
0.00302035
0.0031003
0.00286747
0.00259175
0.0025056
0.00262279
0.00278408
0.00275512
0.00297378
0.00555387
0.00261373
0.00298509
0.00297847
0.00277047
0.00266181
0.00274366
0.00277954
0.0025729
0.00552106
0.0135416
0.00315303
0.00267647
0.00291358
0.0029027
0.00284295
0.00280693
0.00266072
0.00316443
0.013501
0.0307715
0.0135563
0.00555775
0.0031828
0.00308749
0.00314375
0.00329001
0.00554505
0.0135104
0.0307082
0.0343073
0.0166529
0.00742141
0.00380365
0.00277697
0.00300521
0.00394238
0.00750643
0.0168813
0.0345246
0.016646
0.00405066
0.00229369
0.00260977
0.00257858
0.00252388
0.0026858
0.00268267
0.00436993
0.0168842
0.00741108
0.00264181
0.00284622
0.00284357
0.00261447
0.00241807
0.00257555
0.00286184
0.00302351
0.00760622
0.00444082
0.0032677
0.00309779
0.00276679
0.0024714
0.00232997
0.00239147
0.00273735
0.00310355
0.00451199
0.00407931
0.00349788
0.00309819
0.00260522
0.00229078
0.00221995
0.00233552
0.00266234
0.00303142
0.00373306
0.00379206
0.00343657
0.00318039
0.00270591
0.00230357
0.00221396
0.00243029
0.00275767
0.00296625
0.00336829
0.00403893
0.00313299
0.00326907
0.00297251
0.0025655
0.00241984
0.00263249
0.00289429
0.00285188
0.00396192
0.00749821
0.0025318
0.003102
0.00312798