/*--------------------------------*- C++ -*----------------------------------*\
| =========                 |                                                 |
| \\      /  F ield         | OpenFOAM: The Open Source CFD Toolbox           |
|  \\    /   O peration     | Version:  2406                                  |
|   \\  /    A nd           | Website:  www.openfoam.com                      |
|    \\/     M anipulation  |                                                 |
\*---------------------------------------------------------------------------*/
FoamFile
{
    version     2.0;
    format      ascii;
    arch        "LSB;label=32;scalar=64";
    class       volSymmTensorField;
    location    "50";
    object      turbulenceProperties:devReff;
}
// * * * * * * * * * * * * * * * * * * * * * * * * * * * * * * * * * * * * * //

dimensions      [0 2 -2 0 0 0 0];

internalField   nonuniform List<symmTensor> 
25000
(
(1.08319e-05 3.0502e-06 -1.5458e-06 1.04381e-05 -1.5377e-06 -2.12699e-05)
(4.69478e-06 3.68261e-06 -4.0378e-07 7.46021e-06 -1.26167e-06 -1.2155e-05)
(1.08619e-07 2.71398e-07 -5.67908e-07 7.39697e-06 -1.40603e-06 -7.50559e-06)
(1.99523e-06 2.55737e-07 -3.63597e-07 5.58992e-06 -1.39824e-06 -7.58515e-06)
(2.76362e-06 1.21727e-08 -8.86745e-08 4.82285e-06 -1.38682e-06 -7.58647e-06)
(3.28914e-06 -3.39063e-07 2.0543e-07 4.36084e-06 -1.38381e-06 -7.64998e-06)
(3.77264e-06 -7.22676e-07 4.98613e-07 3.96409e-06 -1.38528e-06 -7.73673e-06)
(4.33803e-06 -1.10648e-06 7.98574e-07 3.48281e-06 -1.38273e-06 -7.82084e-06)
(5.8088e-06 -1.83918e-06 1.11523e-06 2.44947e-06 -1.34343e-06 -8.25827e-06)
(3.92591e-06 3.99571e-06 1.5581e-06 4.04933e-06 -1.51696e-06 -7.97524e-06)
(7.53006e-06 3.88148e-06 -1.28265e-06 4.5214e-06 -3.97488e-07 -1.20515e-05)
(4.17141e-06 -3.74115e-06 -9.36e-07 3.73666e-06 -9.28592e-07 -7.90807e-06)
(2.5799e-06 -1.48441e-06 -6.57782e-07 4.54614e-06 -1.06373e-06 -7.12604e-06)
(2.65483e-06 -6.83944e-07 -3.671e-07 4.33905e-06 -1.09157e-06 -6.99388e-06)
(2.88198e-06 -4.22371e-07 -7.80391e-08 4.12224e-06 -1.092e-06 -7.00421e-06)
(3.10177e-06 -4.59456e-07 2.21921e-07 4.01217e-06 -1.08777e-06 -7.11394e-06)
(3.30867e-06 -6.53468e-07 5.26213e-07 4.04167e-06 -1.077e-06 -7.35034e-06)
(3.54855e-06 -9.35666e-07 8.30007e-07 4.18856e-06 -1.05867e-06 -7.73711e-06)
(4.02536e-06 -1.3171e-06 1.09913e-06 4.39702e-06 -1.03933e-06 -8.42238e-06)
(2.33929e-06 -1.90863e-06 1.37942e-06 6.11166e-06 -1.05186e-06 -8.45095e-06)
(7.22423e-06 6.9456e-07 -1.41538e-06 1.45756e-08 -5.54322e-07 -7.23881e-06)
(4.68485e-06 -1.27652e-06 -1.07208e-06 2.34232e-06 -6.41701e-07 -7.02717e-06)
(3.48856e-06 -9.68148e-07 -7.19611e-07 3.26357e-06 -7.04364e-07 -6.75212e-06)
(3.11076e-06 -6.04429e-07 -3.90624e-07 3.52615e-06 -7.44915e-07 -6.63691e-06)
(3.02947e-06 -4.36961e-07 -8.43147e-08 3.57828e-06 -7.63151e-07 -6.60774e-06)
(3.08358e-06 -4.30602e-07 2.22536e-07 3.59742e-06 -7.70499e-07 -6.681e-06)
(3.22625e-06 -5.25143e-07 5.3239e-07 3.65448e-06 -7.7072e-07 -6.88073e-06)
(3.45135e-06 -6.78024e-07 8.37061e-07 3.77212e-06 -7.66661e-07 -7.22346e-06)
(3.85e-06 -8.90273e-07 1.11679e-06 3.92069e-06 -7.59342e-07 -7.77069e-06)
(3.37622e-06 -1.1601e-06 1.42063e-06 4.64045e-06 -7.26927e-07 -8.01667e-06)
(5.39744e-06 4.42561e-07 -1.4116e-06 2.05852e-06 -3.36456e-07 -7.45596e-06)
(4.36839e-06 -4.73342e-07 -1.10374e-06 2.54484e-06 -3.42483e-07 -6.91323e-06)
(3.64187e-06 -5.185e-07 -7.61156e-07 2.96077e-06 -3.69108e-07 -6.60264e-06)
(3.27007e-06 -4.22293e-07 -4.25873e-07 3.15449e-06 -4.04768e-07 -6.42456e-06)
(3.10815e-06 -3.58378e-07 -1.03849e-07 3.24508e-06 -4.29161e-07 -6.35323e-06)
(3.0876e-06 -3.45808e-07 2.13973e-07 3.3151e-06 -4.42391e-07 -6.4027e-06)
(3.18096e-06 -3.8313e-07 5.30358e-07 3.40764e-06 -4.48311e-07 -6.5886e-06)
(3.38055e-06 -4.47906e-07 8.40062e-07 3.54522e-06 -4.49339e-07 -6.92577e-06)
(3.71027e-06 -5.43138e-07 1.1339e-06 3.72829e-06 -4.43988e-07 -7.43855e-06)
(3.75329e-06 -7.35298e-07 1.42707e-06 4.19016e-06 -4.18265e-07 -7.94344e-06)
(4.65975e-06 1.12838e-07 -1.39692e-06 2.85846e-06 -6.27589e-08 -7.51822e-06)
(4.06841e-06 -2.79852e-07 -1.10734e-06 2.86981e-06 -5.09613e-08 -6.93822e-06)
(3.61942e-06 -3.46073e-07 -7.82286e-07 2.9565e-06 -5.86796e-08 -6.57592e-06)
(3.31349e-06 -3.22645e-07 -4.50885e-07 3.02955e-06 -7.95635e-08 -6.34304e-06)
(3.14846e-06 -2.80338e-07 -1.22498e-07 3.09309e-06 -9.84342e-08 -6.24155e-06)
(3.10702e-06 -2.45089e-07 2.02862e-07 3.16884e-06 -1.11684e-07 -6.27586e-06)
(3.18024e-06 -2.23538e-07 5.24979e-07 3.27456e-06 -1.19882e-07 -6.4548e-06)
(3.36223e-06 -2.16002e-07 8.39822e-07 3.42642e-06 -1.24291e-07 -6.78865e-06)
(3.64728e-06 -2.24093e-07 1.14181e-06 3.63341e-06 -1.24846e-07 -7.28069e-06)
(3.9193e-06 -2.92875e-07 1.42828e-06 3.97348e-06 -1.17178e-07 -7.89279e-06)
(4.25561e-06 -2.94121e-07 -1.39099e-06 3.35689e-06 2.26541e-07 -7.6125e-06)
(3.94966e-06 -3.6425e-07 -1.10149e-06 3.12166e-06 2.47245e-07 -7.07131e-06)
(3.58943e-06 -3.54737e-07 -7.90064e-07 3.06161e-06 2.48795e-07 -6.65104e-06)
(3.34282e-06 -3.0474e-07 -4.6543e-07 3.0466e-06 2.39671e-07 -6.38942e-06)
(3.20049e-06 -2.30159e-07 -1.36068e-07 3.07074e-06 2.27725e-07 -6.27124e-06)
(3.16e-06 -1.44725e-07 1.92408e-07 3.13538e-06 2.17029e-07 -6.29538e-06)
(3.22492e-06 -6.26035e-08 5.17771e-07 3.24164e-06 2.07855e-07 -6.46656e-06)
(3.39778e-06 1.37922e-08 8.3497e-07 3.39805e-06 2.00347e-07 -6.79583e-06)
(3.6765e-06 8.90867e-08 1.13914e-06 3.60928e-06 1.93204e-07 -7.28577e-06)
(3.91889e-06 1.77471e-07 1.42826e-06 3.96481e-06 1.81409e-07 -7.88371e-06)
(3.8773e-06 -6.84942e-07 -1.38495e-06 3.82753e-06 5.16518e-07 -7.70484e-06)
(3.96846e-06 -5.87826e-07 -1.08827e-06 3.33905e-06 5.49273e-07 -7.30751e-06)
(3.63081e-06 -4.70511e-07 -7.89818e-07 3.22167e-06 5.56934e-07 -6.85247e-06)
(3.41468e-06 -3.47024e-07 -4.71563e-07 3.15595e-06 5.54796e-07 -6.57063e-06)
(3.29046e-06 -2.06281e-07 -1.44982e-07 3.15346e-06 5.48578e-07 -6.44391e-06)
(3.25901e-06 -5.71493e-08 1.83101e-07 3.2004e-06 5.40378e-07 -6.45941e-06)
(3.32284e-06 9.81732e-08 5.08726e-07 3.30211e-06 5.31105e-07 -6.62495e-06)
(3.49421e-06 2.51758e-07 8.26108e-07 3.45425e-06 5.21748e-07 -6.94846e-06)
(3.79715e-06 4.13891e-07 1.12582e-06 3.65407e-06 5.09448e-07 -7.45123e-06)
(3.75423e-06 6.18113e-07 1.42677e-06 4.16134e-06 4.80055e-07 -7.91557e-06)
(3.41503e-06 -1.09232e-06 -1.37902e-06 4.38175e-06 8.15774e-07 -7.79678e-06)
(4.12384e-06 -8.91789e-07 -1.06668e-06 3.57058e-06 8.49592e-07 -7.69442e-06)
(3.74005e-06 -6.3948e-07 -7.85052e-07 3.44931e-06 8.58487e-07 -7.18936e-06)
(3.54275e-06 -4.23505e-07 -4.73242e-07 3.36023e-06 8.60724e-07 -6.90298e-06)
(3.43598e-06 -2.02515e-07 -1.5029e-07 3.33397e-06 8.59461e-07 -6.76995e-06)
(3.41245e-06 2.00863e-08 1.7471e-07 3.3693e-06 8.53204e-07 -6.78175e-06)
(3.47748e-06 2.54859e-07 4.99132e-07 3.46371e-06 8.43767e-07 -6.94119e-06)
(3.64546e-06 4.94051e-07 8.1472e-07 3.61263e-06 8.32264e-07 -7.25809e-06)
(4.00213e-06 7.73193e-07 1.10337e-06 3.7875e-06 8.19529e-07 -7.78962e-06)
(3.38963e-06 1.04057e-06 1.41994e-06 4.57747e-06 7.84337e-07 -7.9671e-06)
(2.36588e-06 -1.84286e-06 -1.33872e-06 5.86247e-06 1.13206e-06 -8.22835e-06)
(4.3345e-06 -1.30204e-06 -1.04802e-06 4.04985e-06 1.11578e-06 -8.38435e-06)
(3.88892e-06 -8.69726e-07 -7.78218e-07 3.85355e-06 1.13337e-06 -7.74248e-06)
(3.71884e-06 -5.293e-07 -4.68727e-07 3.69653e-06 1.14916e-06 -7.41537e-06)
(3.63783e-06 -2.17776e-07 -1.52036e-07 3.62418e-06 1.15524e-06 -7.26202e-06)
(3.62147e-06 9.2863e-08 1.6641e-07 3.64867e-06 1.15113e-06 -7.27014e-06)
(3.67552e-06 4.15748e-07 4.85794e-07 3.76396e-06 1.13683e-06 -7.43948e-06)
(3.82247e-06 7.74821e-07 8.0145e-07 3.96454e-06 1.11448e-06 -7.78701e-06)
(4.24349e-06 1.21168e-06 1.08041e-06 4.20116e-06 1.09166e-06 -8.44465e-06)
(2.39332e-06 1.79763e-06 1.37675e-06 5.98421e-06 1.10258e-06 -8.37753e-06)
(3.94917e-06 3.97537e-06 -1.51884e-06 3.99847e-06 1.57733e-06 -7.94764e-06)
(6.06383e-06 -1.90532e-06 -1.06325e-06 2.35956e-06 1.39317e-06 -8.42338e-06)
(4.61012e-06 -1.14687e-06 -7.46899e-07 3.38094e-06 1.43245e-06 -7.99106e-06)
(4.17759e-06 -7.29964e-07 -4.44399e-07 3.74562e-06 1.43594e-06 -7.92321e-06)
(3.96884e-06 -2.92591e-07 -1.45971e-07 3.91305e-06 1.43484e-06 -7.88189e-06)
(3.96656e-06 1.76075e-07 1.53203e-07 3.91247e-06 1.43269e-06 -7.87903e-06)
(4.17002e-06 6.20807e-07 4.55088e-07 3.74891e-06 1.43019e-06 -7.91893e-06)
(4.59738e-06 1.04768e-06 7.64698e-07 3.37896e-06 1.4229e-06 -7.97634e-06)
(6.01706e-06 1.8057e-06 1.09005e-06 2.37279e-06 1.38027e-06 -8.38986e-06)
(4.01262e-06 -4.03071e-06 1.55142e-06 3.98448e-06 1.55552e-06 -7.99711e-06)
(1.3643e-05 2.8572e-06 3.56241e-06 1.35004e-05 3.50056e-06 -2.71434e-05)
(8.60234e-06 4.43758e-06 3.10958e-07 7.32035e-06 2.66441e-06 -1.59227e-05)
(1.4344e-06 1.33678e-07 -2.39216e-08 8.41429e-06 2.52084e-06 -9.84869e-06)
(4.05508e-06 6.48406e-07 -1.14269e-07 6.58816e-06 2.57568e-06 -1.06432e-05)
(4.98682e-06 3.2326e-07 -2.89929e-07 6.03525e-06 2.59403e-06 -1.10221e-05)
(5.36463e-06 -1.1356e-07 -6.86715e-07 5.80005e-06 2.62241e-06 -1.11647e-05)
(5.66398e-06 -4.62691e-07 -1.20372e-06 5.58022e-06 2.69689e-06 -1.12442e-05)
(6.10948e-06 -5.33774e-07 -1.77939e-06 5.24772e-06 2.81418e-06 -1.13572e-05)
(7.9569e-06 -1.94332e-06 -2.39366e-06 3.704e-06 3.09818e-06 -1.16609e-05)
(5.77791e-06 3.37576e-06 -3.38002e-06 5.89442e-06 3.36914e-06 -1.16723e-05)
(7.24716e-06 4.49915e-06 2.75721e-06 8.66873e-06 2.91676e-07 -1.59159e-05)
(5.86074e-06 -5.40601e-06 7.97098e-07 5.92431e-06 7.42137e-07 -1.1785e-05)
(4.1827e-06 -1.66026e-06 3.45387e-07 6.792e-06 1.27795e-06 -1.09747e-05)
(4.5215e-06 -2.51471e-07 1.2753e-07 6.28164e-06 1.65849e-06 -1.08031e-05)
(4.88417e-06 3.5388e-09 -1.8287e-07 5.86942e-06 1.81939e-06 -1.07536e-05)
(5.1687e-06 -7.22817e-08 -5.94468e-07 5.66782e-06 1.90572e-06 -1.08365e-05)
(5.32757e-06 -2.00448e-07 -1.08438e-06 5.66241e-06 1.99059e-06 -1.099e-05)
(5.31655e-06 -4.26873e-07 -1.62364e-06 5.85245e-06 2.09435e-06 -1.1169e-05)
(5.58643e-06 -1.02824e-06 -2.26248e-06 5.92776e-06 2.22642e-06 -1.15142e-05)
(3.47688e-06 -2.01454e-06 -3.12315e-06 8.21466e-06 2.35521e-06 -1.16915e-05)
(8.35986e-06 1.47865e-07 2.53521e-06 1.56716e-06 5.75707e-08 -9.92702e-06)
(6.64988e-06 -1.70124e-06 1.31451e-06 4.34304e-06 3.66924e-07 -1.09929e-05)
(5.39831e-06 -1.08868e-06 7.8853e-07 5.54073e-06 7.91542e-07 -1.0939e-05)
(4.99865e-06 -5.55422e-07 3.70748e-07 5.69751e-06 1.05227e-06 -1.06962e-05)
(4.9607e-06 -2.83001e-07 -5.80768e-08 5.59898e-06 1.19095e-06 -1.05597e-05)
(5.091e-06 -2.28826e-07 -5.07325e-07 5.49013e-06 1.27429e-06 -1.05811e-05)
(5.22063e-06 -2.82622e-07 -9.94927e-07 5.4602e-06 1.34714e-06 -1.06808e-05)
(5.26538e-06 -3.93942e-07 -1.5206e-06 5.546e-06 1.42907e-06 -1.08114e-05)
(5.51653e-06 -4.35677e-07 -2.12714e-06 5.61922e-06 1.52112e-06 -1.11357e-05)
(4.99557e-06 -5.47242e-07 -2.83483e-06 6.35844e-06 1.6668e-06 -1.1354e-05)
(6.55989e-06 5.6082e-07 2.55692e-06 4.13275e-06 -1.32527e-08 -1.06926e-05)
(6.18646e-06 -3.39526e-07 1.65589e-06 4.63115e-06 1.90921e-07 -1.08176e-05)
(5.5855e-06 -6.00151e-07 1.03762e-06 5.11715e-06 4.0971e-07 -1.07026e-05)
(5.2184e-06 -5.37249e-07 5.19718e-07 5.32168e-06 5.5398e-07 -1.05401e-05)
(5.07016e-06 -3.69288e-07 3.70999e-08 5.36572e-06 6.51032e-07 -1.04359e-05)
(5.08052e-06 -2.73969e-07 -4.34884e-07 5.36673e-06 7.18131e-07 -1.04472e-05)
(5.1327e-06 -2.58739e-07 -9.22198e-07 5.41212e-06 7.76658e-07 -1.05448e-05)
(5.16561e-06 -2.71868e-07 -1.44244e-06 5.54419e-06 8.38095e-07 -1.07098e-05)
(5.30699e-06 -2.23625e-07 -2.03527e-06 5.703e-06 9.0073e-07 -1.101e-05)
(5.27258e-06 -4.81841e-07 -2.71131e-06 5.9898e-06 9.94076e-07 -1.12624e-05)
(5.98791e-06 2.96905e-07 2.56695e-06 5.00678e-06 -2.19793e-07 -1.09947e-05)
(5.79724e-06 -6.58808e-08 1.7999e-06 4.94677e-06 -1.21491e-07 -1.0744e-05)
(5.52012e-06 -3.42144e-07 1.16423e-06 5.03985e-06 -8.39362e-09 -1.056e-05)
(5.28748e-06 -3.99938e-07 6.13403e-07 5.14994e-06 8.09623e-08 -1.04374e-05)
(5.15286e-06 -3.21402e-07 1.061e-07 5.21934e-06 1.49309e-07 -1.03722e-05)
(5.11621e-06 -2.36592e-07 -3.81415e-07 5.27054e-06 1.98435e-07 -1.03867e-05)
(5.12978e-06 -1.8214e-07 -8.73888e-07 5.35199e-06 2.35825e-07 -1.04818e-05)
(5.15718e-06 -1.47667e-07 -1.39767e-06 5.50021e-06 2.67574e-07 -1.06574e-05)
(5.23838e-06 -1.01559e-07 -1.98367e-06 5.68066e-06 2.94609e-07 -1.0919e-05)
(5.39669e-06 -1.8183e-07 -2.63732e-06 5.82095e-06 3.31044e-07 -1.12176e-05)
(5.72171e-06 -9.58633e-08 2.60122e-06 5.37625e-06 -6.44891e-07 -1.1098e-05)
(5.6017e-06 -1.02942e-07 1.88331e-06 5.19861e-06 -5.49634e-07 -1.08003e-05)
(5.42596e-06 -2.76885e-07 1.24347e-06 5.13736e-06 -4.64581e-07 -1.05633e-05)
(5.31021e-06 -3.13926e-07 6.78173e-07 5.1292e-06 -3.94242e-07 -1.04394e-05)
(5.22412e-06 -2.5764e-07 1.54725e-07 5.16013e-06 -3.41543e-07 -1.03842e-05)
(5.18707e-06 -1.72411e-07 -3.48772e-07 5.21414e-06 -3.09022e-07 -1.04012e-05)
(5.18248e-06 -9.05021e-08 -8.537e-07 5.30983e-06 -2.94966e-07 -1.04923e-05)
(5.19533e-06 -2.49176e-08 -1.38542e-06 5.46968e-06 -2.95054e-07 -1.0665e-05)
(5.27233e-06 5.02802e-09 -1.97673e-06 5.65467e-06 -3.03698e-07 -1.0927e-05)
(5.39967e-06 1.54251e-07 -2.62962e-06 5.81126e-06 -3.29629e-07 -1.12109e-05)
(5.45923e-06 -4.25926e-07 2.67908e-06 5.69821e-06 -1.17739e-06 -1.11574e-05)
(5.58376e-06 -2.10166e-07 1.97121e-06 5.34918e-06 -1.05353e-06 -1.09329e-05)
(5.40296e-06 -3.16487e-07 1.31601e-06 5.24286e-06 -9.63119e-07 -1.06458e-05)
(5.37085e-06 -2.98566e-07 7.362e-07 5.15532e-06 -8.90843e-07 -1.05262e-05)
(5.32462e-06 -2.15754e-07 1.91839e-07 5.14697e-06 -8.43279e-07 -1.04716e-05)
(5.30046e-06 -1.09428e-07 -3.34917e-07 5.18716e-06 -8.23275e-07 -1.04876e-05)
(5.29644e-06 8.49201e-09 -8.60563e-07 5.28176e-06 -8.29955e-07 -1.05782e-05)
(5.28382e-06 1.12374e-07 -1.40617e-06 5.45066e-06 -8.60758e-07 -1.07345e-05)
(5.40193e-06 1.30295e-07 -2.01503e-06 5.62882e-06 -9.06222e-07 -1.10308e-05)
(5.28346e-06 4.43128e-07 -2.68835e-06 5.9603e-06 -9.89098e-07 -1.12438e-05)
(5.08923e-06 -5.10273e-07 2.79823e-06 6.16487e-06 -1.75867e-06 -1.12541e-05)
(5.76058e-06 -4.35962e-07 2.0747e-06 5.33216e-06 -1.59961e-06 -1.10927e-05)
(5.48842e-06 -4.22069e-07 1.39823e-06 5.27527e-06 -1.49809e-06 -1.07637e-05)
(5.51128e-06 -3.13057e-07 7.97128e-07 5.16977e-06 -1.42143e-06 -1.06811e-05)
(5.48777e-06 -1.90484e-07 2.23017e-07 5.14953e-06 -1.37785e-06 -1.06373e-05)
(5.4791e-06 -5.95787e-08 -3.35253e-07 5.17498e-06 -1.36571e-06 -1.06541e-05)
(5.48552e-06 9.30458e-08 -8.91882e-07 5.24463e-06 -1.38675e-06 -1.07302e-05)
(5.45111e-06 2.64063e-07 -1.46014e-06 5.3925e-06 -1.43978e-06 -1.08436e-05)
(5.67117e-06 3.50942e-07 -2.09348e-06 5.49417e-06 -1.51685e-06 -1.11653e-05)
(5.01852e-06 4.82274e-07 -2.79762e-06 6.30234e-06 -1.65359e-06 -1.13209e-05)
(3.5026e-06 -1.93657e-06 3.08068e-06 8.03567e-06 -2.37128e-06 -1.15383e-05)
(5.83896e-06 -1.04789e-06 2.20785e-06 5.6088e-06 -2.2447e-06 -1.14478e-05)
(5.56602e-06 -4.66038e-07 1.48891e-06 5.52882e-06 -2.11483e-06 -1.10948e-05)
(5.67375e-06 -2.68646e-07 8.57557e-07 5.29886e-06 -2.02575e-06 -1.09726e-05)
(5.67652e-06 -1.54188e-07 2.49223e-07 5.21617e-06 -1.97619e-06 -1.08927e-05)
(5.67729e-06 -4.42316e-08 -3.44467e-07 5.23252e-06 -1.96964e-06 -1.09098e-05)
(5.67942e-06 9.1742e-08 -9.3792e-07 5.34359e-06 -2.00723e-06 -1.1023e-05)
(5.57667e-06 3.30309e-07 -1.53913e-06 5.5957e-06 -2.08603e-06 -1.11724e-05)
(5.80448e-06 9.41562e-07 -2.21736e-06 5.70408e-06 -2.20646e-06 -1.15086e-05)
(3.53635e-06 1.89252e-06 -3.07702e-06 8.07707e-06 -2.32761e-06 -1.16134e-05)
(5.66752e-06 3.42657e-06 3.34198e-06 5.88709e-06 -3.33958e-06 -1.15546e-05)
(8.15356e-06 -2.03066e-06 2.32758e-06 3.46271e-06 -3.10427e-06 -1.16163e-05)
(6.32408e-06 -5.7741e-07 1.62609e-06 4.95227e-06 -2.82792e-06 -1.12764e-05)
(5.97875e-06 -5.30406e-07 9.46483e-07 5.22002e-06 -2.71269e-06 -1.11988e-05)
(5.82814e-06 -2.3827e-07 2.84476e-07 5.35226e-06 -2.6434e-06 -1.11804e-05)
(5.83558e-06 9.96606e-08 -3.69858e-07 5.36537e-06 -2.63755e-06 -1.1201e-05)
(6.00186e-06 4.00957e-07 -1.02037e-06 5.25428e-06 -2.69637e-06 -1.12561e-05)
(6.36608e-06 4.55591e-07 -1.67543e-06 4.98174e-06 -2.80442e-06 -1.13478e-05)
(8.17382e-06 1.8838e-06 -2.34104e-06 3.47253e-06 -3.08136e-06 -1.16464e-05)
(5.85136e-06 -3.47437e-06 -3.33667e-06 5.75321e-06 -3.33498e-06 -1.16046e-05)
(9.04846e-06 2.16568e-06 5.20143e-06 8.7781e-06 5.28191e-06 -1.78266e-05)
(6.66848e-06 6.59757e-07 7.63113e-07 3.07056e-06 3.99448e-06 -9.73904e-06)
(2.01299e-06 -1.23282e-06 1.20272e-07 4.96384e-06 3.79963e-06 -6.97682e-06)
(4.46281e-06 3.93214e-07 9.60627e-09 4.55007e-06 3.85083e-06 -9.01288e-06)
(4.80848e-06 2.23783e-07 -2.71562e-07 4.77652e-06 3.83554e-06 -9.585e-06)
(4.48414e-06 -3.24345e-08 -8.87793e-07 5.06137e-06 3.84788e-06 -9.54551e-06)
(4.44655e-06 -2.9009e-07 -1.60747e-06 5.10229e-06 3.9074e-06 -9.54883e-06)
(4.61861e-06 -7.31574e-08 -2.39475e-06 5.06217e-06 3.97859e-06 -9.68078e-06)
(5.80497e-06 -1.25598e-06 -3.25507e-06 3.8958e-06 4.16425e-06 -9.70078e-06)
(4.94186e-06 5.30622e-07 -4.63023e-06 5.2072e-06 4.633e-06 -1.01491e-05)
(3.04112e-06 7.40478e-07 3.91495e-06 6.73682e-06 9.06582e-07 -9.77794e-06)
(4.20466e-06 -4.78329e-06 1.30674e-06 4.27024e-06 1.4312e-06 -8.47489e-06)
(4.10729e-06 -4.47791e-07 6.2719e-07 5.24251e-06 2.21602e-06 -9.3498e-06)
(4.65223e-06 6.27409e-07 2.81513e-07 4.943e-06 2.71074e-06 -9.59522e-06)
(4.61231e-06 2.68142e-07 -1.95514e-07 4.85452e-06 2.86501e-06 -9.46683e-06)
(4.54096e-06 9.68645e-08 -8.29597e-07 4.84871e-06 2.93982e-06 -9.38967e-06)
(4.53223e-06 1.3105e-08 -1.55828e-06 4.84253e-06 2.99554e-06 -9.37476e-06)
(4.40011e-06 -8.26465e-08 -2.32783e-06 4.96067e-06 3.03866e-06 -9.36078e-06)
(4.44735e-06 -5.55546e-07 -3.12419e-06 4.79238e-06 3.10583e-06 -9.23973e-06)
(3.56232e-06 -1.30834e-06 -4.16195e-06 6.07614e-06 3.23324e-06 -9.63846e-06)
(4.94213e-06 -1.18168e-06 3.67963e-06 2.13328e-06 2.82656e-07 -7.07541e-06)
(5.07999e-06 -4.95298e-07 2.08202e-06 4.27584e-06 7.70858e-07 -9.35583e-06)
(4.82477e-06 2.89932e-07 1.26245e-06 4.97494e-06 1.40664e-06 -9.79971e-06)
(4.63441e-06 1.82252e-07 5.82215e-07 4.85975e-06 1.78087e-06 -9.49416e-06)
(4.53787e-06 2.06606e-08 -6.78416e-08 4.79213e-06 1.95708e-06 -9.33e-06)
(4.53783e-06 -6.76118e-08 -7.55358e-07 4.73489e-06 2.04849e-06 -9.27272e-06)
(4.57908e-06 -1.14288e-07 -1.49863e-06 4.67585e-06 2.10959e-06 -9.25493e-06)
(4.54462e-06 -1.72373e-07 -2.26122e-06 4.67653e-06 2.16308e-06 -9.22114e-06)
(4.67515e-06 -1.02304e-07 -3.04606e-06 4.57804e-06 2.21488e-06 -9.25319e-06)
(4.74016e-06 -1.11344e-08 -3.95806e-06 4.76177e-06 2.27372e-06 -9.50194e-06)
(4.5299e-06 3.24262e-07 3.72734e-06 4.48863e-06 1.11782e-07 -9.01853e-06)
(4.8312e-06 5.46573e-07 2.57181e-06 4.74345e-06 3.92267e-07 -9.57465e-06)
(4.75394e-06 1.36818e-07 1.6373e-06 4.73883e-06 7.03218e-07 -9.49277e-06)
(4.62782e-06 -5.72114e-08 8.18205e-07 4.70852e-06 9.45851e-07 -9.33633e-06)
(4.55476e-06 -1.0092e-07 6.62028e-08 4.696e-06 1.10019e-06 -9.25076e-06)
(4.55122e-06 -1.20828e-07 -6.74926e-07 4.67964e-06 1.18901e-06 -9.23086e-06)
(4.56247e-06 -1.23373e-07 -1.43663e-06 4.67147e-06 1.24793e-06 -9.23394e-06)
(4.53112e-06 -1.41606e-07 -2.20845e-06 4.69988e-06 1.29526e-06 -9.231e-06)
(4.58163e-06 -6.67462e-08 -3.01165e-06 4.69724e-06 1.32563e-06 -9.27887e-06)
(4.78766e-06 -2.60279e-07 -3.87266e-06 4.57018e-06 1.34892e-06 -9.35784e-06)
(4.72285e-06 2.36834e-07 3.72625e-06 4.77464e-06 -2.35238e-07 -9.49749e-06)
(4.77444e-06 2.4564e-07 2.74281e-06 4.63599e-06 -1.38429e-07 -9.41043e-06)
(4.72018e-06 -1.02824e-08 1.82632e-06 4.58495e-06 9.95071e-09 -9.30513e-06)
(4.64028e-06 -1.18877e-07 9.77966e-07 4.602e-06 1.59168e-07 -9.24228e-06)
(4.58773e-06 -1.32017e-07 1.74512e-07 4.61786e-06 2.72652e-07 -9.2056e-06)
(4.57772e-06 -1.30223e-07 -6.0689e-07 4.62154e-06 3.44375e-07 -9.19926e-06)
(4.58758e-06 -1.15977e-07 -1.38855e-06 4.61925e-06 3.89342e-07 -9.20683e-06)
(4.57718e-06 -1.05029e-07 -2.17706e-06 4.63966e-06 4.19205e-07 -9.21684e-06)
(4.60717e-06 -5.44348e-08 -2.98832e-06 4.65361e-06 4.33927e-07 -9.26078e-06)
(4.86135e-06 -6.86469e-08 -3.80536e-06 4.46513e-06 4.45623e-07 -9.32648e-06)
(4.96509e-06 8.37376e-09 3.75008e-06 4.4829e-06 -8.89187e-07 -9.44799e-06)
(4.76292e-06 1.1742e-07 2.83771e-06 4.55344e-06 -8.13251e-07 -9.31636e-06)
(4.66646e-06 -7.73639e-08 1.93796e-06 4.56198e-06 -7.18468e-07 -9.22844e-06)
(4.63856e-06 -1.37098e-07 1.08021e-06 4.56792e-06 -6.20352e-07 -9.20648e-06)
(4.60715e-06 -1.42154e-07 2.51161e-07 4.58336e-06 -5.41629e-07 -9.19051e-06)
(4.6051e-06 -1.29277e-07 -5.58173e-07 4.588e-06 -4.89936e-07 -9.19311e-06)
(4.61192e-06 -1.02868e-07 -1.3609e-06 4.59101e-06 -4.62022e-07 -9.20293e-06)
(4.60039e-06 -6.35501e-08 -2.16281e-06 4.61564e-06 -4.51911e-07 -9.21603e-06)
(4.64225e-06 -6.21019e-08 -2.9832e-06 4.62655e-06 -4.49699e-07 -9.2688e-06)
(4.87149e-06 6.49427e-08 -3.79882e-06 4.4542e-06 -4.5762e-07 -9.32569e-06)
(4.9741e-06 -2.44189e-07 3.81966e-06 4.48719e-06 -1.63006e-06 -9.46128e-06)
(4.742e-06 3.80877e-08 2.9098e-06 4.56209e-06 -1.56557e-06 -9.3041e-06)
(4.59845e-06 -1.17795e-07 2.01596e-06 4.60054e-06 -1.49119e-06 -9.19899e-06)
(4.63279e-06 -1.45472e-07 1.15408e-06 4.56834e-06 -1.41477e-06 -9.20113e-06)
(4.61808e-06 -1.41248e-07 3.05229e-07 4.57012e-06 -1.35612e-06 -9.1882e-06)
(4.62269e-06 -1.20513e-07 -5.27372e-07 4.57346e-06 -1.32117e-06 -9.19615e-06)
(4.64456e-06 -8.25448e-08 -1.35189e-06 4.57992e-06 -1.30969e-06 -9.22448e-06)
(4.60881e-06 -1.72962e-08 -2.16639e-06 4.62507e-06 -1.31932e-06 -9.23388e-06)
(4.67495e-06 -4.41698e-08 -2.99619e-06 4.62376e-06 -1.33373e-06 -9.29871e-06)
(4.81754e-06 2.44677e-07 -3.85246e-06 4.53831e-06 -1.35113e-06 -9.35585e-06)
(4.90709e-06 -2.19655e-08 3.89897e-06 4.6831e-06 -2.42692e-06 -9.59018e-06)
(4.83924e-06 -7.51871e-08 2.96336e-06 4.43846e-06 -2.34646e-06 -9.2777e-06)
(4.59126e-06 -1.92639e-07 2.0827e-06 4.56581e-06 -2.27306e-06 -9.15708e-06)
(4.66402e-06 -1.81006e-07 1.21361e-06 4.5238e-06 -2.21324e-06 -9.18782e-06)
(4.65047e-06 -1.49442e-07 3.44959e-07 4.53594e-06 -2.1725e-06 -9.18641e-06)
(4.66774e-06 -1.00139e-07 -5.10947e-07 4.5332e-06 -2.14976e-06 -9.20094e-06)
(4.71219e-06 -3.92729e-08 -1.3603e-06 4.51508e-06 -2.14707e-06 -9.22727e-06)
(4.66627e-06 4.02421e-08 -2.19044e-06 4.54943e-06 -2.16772e-06 -9.2157e-06)
(4.82965e-06 1.81834e-09 -3.01753e-06 4.45167e-06 -2.20577e-06 -9.28132e-06)
(4.78524e-06 -4.01811e-08 -3.92279e-06 4.70221e-06 -2.25666e-06 -9.48745e-06)
(3.69161e-06 -1.2008e-06 4.09557e-06 5.89329e-06 -3.27868e-06 -9.5849e-06)
(4.66939e-06 -5.76801e-07 3.04268e-06 4.48666e-06 -3.14823e-06 -9.15605e-06)
(4.49964e-06 -1.49973e-07 2.14282e-06 4.68912e-06 -3.07463e-06 -9.18876e-06)
(4.67355e-06 -1.30571e-07 1.25078e-06 4.54645e-06 -3.03708e-06 -9.22e-06)
(4.68042e-06 -1.18291e-07 3.68839e-07 4.5384e-06 -3.00798e-06 -9.21882e-06)
(4.69949e-06 -1.18584e-07 -5.00258e-07 4.53935e-06 -2.99426e-06 -9.23884e-06)
(4.73622e-06 -8.81985e-08 -1.36892e-06 4.54454e-06 -2.99815e-06 -9.28076e-06)
(4.6038e-06 -2.15333e-08 -2.23027e-06 4.67683e-06 -3.01567e-06 -9.28063e-06)
(4.68796e-06 4.39919e-07 -3.08239e-06 4.50332e-06 -3.07252e-06 -9.19128e-06)
(3.65973e-06 1.13957e-06 -4.11398e-06 5.87811e-06 -3.1904e-06 -9.53784e-06)
(4.95558e-06 6.55275e-07 4.56238e-06 5.00193e-06 -4.6162e-06 -9.95751e-06)
(6.00645e-06 -1.32705e-06 3.16217e-06 3.46266e-06 -4.1757e-06 -9.46911e-06)
(4.74695e-06 -6.11774e-08 2.19307e-06 4.60059e-06 -3.98522e-06 -9.34753e-06)
(4.59992e-06 -3.31539e-07 1.27526e-06 4.6458e-06 -3.90709e-06 -9.24572e-06)
(4.52649e-06 -1.45084e-07 3.88238e-07 4.73273e-06 -3.84099e-06 -9.25921e-06)
(4.53959e-06 -7.18248e-09 -4.9825e-07 4.75524e-06 -3.83133e-06 -9.29483e-06)
(4.64649e-06 1.88807e-07 -1.37809e-06 4.70306e-06 -3.87929e-06 -9.34956e-06)
(4.83772e-06 -7.27753e-08 -2.27388e-06 4.65896e-06 -3.9424e-06 -9.49668e-06)
(6.05841e-06 1.13905e-06 -3.20183e-06 3.50149e-06 -4.12481e-06 -9.5599e-06)
(5.09843e-06 -7.03302e-07 -4.57567e-06 4.90048e-06 -4.57659e-06 -9.9989e-06)
(3.51904e-06 -5.09935e-07 4.80831e-06 2.95011e-06 4.91358e-06 -6.46915e-06)
(4.03046e-06 -2.68669e-06 1.09562e-06 -1.46275e-06 3.67607e-06 -2.56771e-06)
(2.57971e-06 -1.63887e-06 4.01883e-07 8.80286e-07 3.60569e-06 -3.46e-06)
(4.6184e-06 4.46081e-07 2.23375e-07 1.68647e-06 3.68626e-06 -6.30487e-06)
(4.1042e-06 1.97208e-07 -1.7288e-07 2.615e-06 3.67275e-06 -6.7192e-06)
(3.21235e-06 9.09492e-08 -8.19278e-07 3.3324e-06 3.68725e-06 -6.54475e-06)
(3.01057e-06 -1.51892e-07 -1.48102e-06 3.51574e-06 3.73767e-06 -6.52631e-06)
(2.98151e-06 1.22494e-07 -2.20192e-06 3.6016e-06 3.79047e-06 -6.58311e-06)
(3.30268e-06 -4.3081e-07 -3.02426e-06 3.00268e-06 3.86838e-06 -6.30536e-06)
(3.21439e-06 -7.05236e-07 -4.32757e-06 3.49417e-06 4.33979e-06 -6.70856e-06)
(-1.36453e-06 -2.47711e-06 3.60197e-06 3.96916e-06 1.29186e-06 -2.60463e-06)
(2.17734e-06 -2.87158e-06 1.46962e-06 2.20587e-06 1.64366e-06 -4.38321e-06)
(3.6152e-06 1.33878e-06 8.42028e-07 2.92397e-06 2.31056e-06 -6.53917e-06)
(4.18659e-06 1.38773e-06 4.097e-07 2.7068e-06 2.66423e-06 -6.89339e-06)
(3.7173e-06 4.54287e-07 -1.34723e-07 2.91479e-06 2.75007e-06 -6.63209e-06)
(3.34975e-06 2.66292e-07 -7.76365e-07 3.07953e-06 2.81128e-06 -6.42928e-06)
(3.22407e-06 1.14507e-07 -1.45884e-06 3.09175e-06 2.85438e-06 -6.31581e-06)
(3.05747e-06 4.76331e-08 -2.17792e-06 3.17848e-06 2.87236e-06 -6.23595e-06)
(2.86562e-06 -2.10639e-07 -2.90259e-06 3.00366e-06 2.89939e-06 -5.86928e-06)
(2.72692e-06 -4.10247e-07 -3.84542e-06 3.41375e-06 3.01417e-06 -6.14067e-06)
(9.88997e-07 -1.50816e-06 3.48162e-06 2.45647e-06 5.90248e-07 -3.44547e-06)
(2.87089e-06 1.37751e-06 2.13158e-06 3.57722e-06 1.02021e-06 -6.44811e-06)
(3.50962e-06 1.79197e-06 1.30938e-06 3.43432e-06 1.4963e-06 -6.94394e-06)
(3.58989e-06 9.06175e-07 5.95781e-07 3.01487e-06 1.75199e-06 -6.60477e-06)
(3.48358e-06 3.51966e-07 -5.08353e-08 3.00242e-06 1.87421e-06 -6.486e-06)
(3.34253e-06 1.33452e-07 -7.14094e-07 3.01801e-06 1.95179e-06 -6.36053e-06)
(3.29324e-06 2.53897e-08 -1.41155e-06 2.97718e-06 2.00396e-06 -6.27042e-06)
(3.2248e-06 -4.1045e-08 -2.12998e-06 2.97112e-06 2.03964e-06 -6.19592e-06)
(3.1913e-06 1.55694e-08 -2.86369e-06 2.86962e-06 2.0717e-06 -6.06092e-06)
(3.40289e-06 2.86929e-07 -3.74706e-06 2.79701e-06 2.08261e-06 -6.1999e-06)
(1.76451e-06 4.68414e-07 3.53827e-06 4.42145e-06 3.36472e-07 -6.18595e-06)
(2.72124e-06 1.46623e-06 2.48809e-06 4.04214e-06 5.32184e-07 -6.76338e-06)
(3.11321e-06 9.67107e-07 1.57191e-06 3.43328e-06 7.37684e-07 -6.54649e-06)
(3.29466e-06 5.84223e-07 7.73023e-07 3.12713e-06 9.24416e-07 -6.42179e-06)
(3.33366e-06 2.76e-07 5.70859e-08 3.04443e-06 1.04729e-06 -6.37809e-06)
(3.29641e-06 8.77786e-08 -6.45031e-07 3.02598e-06 1.1245e-06 -6.3224e-06)
(3.26598e-06 7.96616e-09 -1.36407e-06 3.00252e-06 1.17502e-06 -6.2685e-06)
(3.21152e-06 -6.65371e-08 -2.09428e-06 2.99027e-06 1.20823e-06 -6.20179e-06)
(3.17159e-06 -5.72134e-08 -2.85659e-06 2.94591e-06 1.22571e-06 -6.1175e-06)
(3.39147e-06 -8.95682e-08 -3.68395e-06 2.71902e-06 1.21885e-06 -6.11049e-06)
(2.63217e-06 2.84209e-07 3.52245e-06 3.94883e-06 -1.17084e-07 -6.581e-06)
(2.93999e-06 5.85787e-07 2.58732e-06 3.57352e-06 -6.82672e-08 -6.51351e-06)
(3.08501e-06 4.66807e-07 1.70864e-06 3.32009e-06 3.584e-08 -6.40509e-06)
(3.19035e-06 3.35349e-07 9.02881e-07 3.15258e-06 1.60177e-07 -6.34294e-06)
(3.2425e-06 1.70723e-07 1.47268e-07 3.06511e-06 2.55959e-07 -6.30761e-06)
(3.252e-06 4.05234e-08 -5.86061e-07 3.02576e-06 3.19727e-07 -6.27776e-06)
(3.25828e-06 -2.16937e-08 -1.32353e-06 2.9837e-06 3.60736e-07 -6.24199e-06)
(3.24292e-06 -6.66639e-08 -2.07157e-06 2.94557e-06 3.85299e-07 -6.18849e-06)
(3.24222e-06 -5.43194e-08 -2.84666e-06 2.9077e-06 3.95276e-07 -6.14992e-06)
(3.49066e-06 2.41346e-08 -3.62962e-06 2.65736e-06 3.95809e-07 -6.14802e-06)
(3.3115e-06 1.97901e-07 3.53709e-06 3.13533e-06 -7.99826e-07 -6.44683e-06)
(3.08532e-06 3.99553e-07 2.66012e-06 3.25979e-06 -7.49447e-07 -6.34512e-06)
(3.06354e-06 2.49943e-07 1.80368e-06 3.22496e-06 -6.71901e-07 -6.28851e-06)
(3.13673e-06 1.6882e-07 9.92246e-07 3.13816e-06 -5.86732e-07 -6.27489e-06)
(3.18127e-06 7.50221e-08 2.16065e-07 3.07694e-06 -5.17504e-07 -6.25821e-06)
(3.21225e-06 -1.41194e-09 -5.40292e-07 3.0337e-06 -4.68624e-07 -6.24595e-06)
(3.23479e-06 -4.52059e-08 -1.29733e-06 2.98825e-06 -4.38449e-07 -6.22303e-06)
(3.23163e-06 -5.4705e-08 -2.05858e-06 2.94777e-06 -4.2499e-07 -6.1794e-06)
(3.26115e-06 -8.80095e-08 -2.84363e-06 2.89859e-06 -4.22915e-07 -6.15974e-06)
(3.51358e-06 -2.90406e-08 -3.62386e-06 2.65472e-06 -4.24616e-07 -6.1683e-06)
(3.49247e-06 -2.27111e-08 3.59573e-06 2.97099e-06 -1.49516e-06 -6.46347e-06)
(3.07002e-06 2.3625e-07 2.71365e-06 3.18465e-06 -1.46177e-06 -6.25467e-06)
(2.99046e-06 1.16638e-07 1.86918e-06 3.21969e-06 -1.40421e-06 -6.21015e-06)
(3.08308e-06 7.14217e-08 1.05712e-06 3.1414e-06 -1.34274e-06 -6.22449e-06)
(3.11883e-06 1.43832e-08 2.65913e-07 3.0948e-06 -1.29182e-06 -6.21363e-06)
(3.15583e-06 -3.2024e-08 -5.06954e-07 3.05578e-06 -1.25711e-06 -6.21161e-06)
(3.20056e-06 -6.12303e-08 -1.28113e-06 3.01485e-06 -1.23807e-06 -6.21541e-06)
(3.18259e-06 -4.17645e-08 -2.05711e-06 2.99772e-06 -1.23523e-06 -6.18031e-06)
(3.21533e-06 -6.79385e-08 -2.84789e-06 2.92777e-06 -1.24118e-06 -6.1431e-06)
(3.45186e-06 8.54163e-08 -3.66529e-06 2.71602e-06 -1.2325e-06 -6.16787e-06)
(3.59023e-06 2.73811e-07 3.65554e-06 2.97262e-06 -2.23933e-06 -6.56285e-06)
(3.11339e-06 1.43649e-07 2.74152e-06 3.05949e-06 -2.20269e-06 -6.17288e-06)
(2.95486e-06 5.27678e-09 1.91926e-06 3.18201e-06 -2.14791e-06 -6.13687e-06)
(3.05462e-06 -4.19575e-08 1.10416e-06 3.10291e-06 -2.10427e-06 -6.15753e-06)
(3.0713e-06 -4.78662e-08 3.02418e-07 3.08309e-06 -2.06899e-06 -6.15439e-06)
(3.11352e-06 -4.03818e-08 -4.85365e-07 3.04652e-06 -2.04522e-06 -6.16004e-06)
(3.18487e-06 -3.52245e-08 -1.27644e-06 2.98533e-06 -2.0353e-06 -6.1702e-06)
(3.17563e-06 -4.12466e-08 -2.06522e-06 2.97428e-06 -2.0395e-06 -6.14991e-06)
(3.26633e-06 -1.1348e-07 -2.8441e-06 2.82965e-06 -2.06012e-06 -6.09598e-06)
(3.47654e-06 -3.10137e-07 -3.71218e-06 2.78573e-06 -2.06389e-06 -6.26227e-06)
(2.93852e-06 -2.87139e-07 3.74523e-06 3.35716e-06 -3.05667e-06 -6.29568e-06)
(2.89089e-06 -1.811e-07 2.78401e-06 2.90667e-06 -2.93344e-06 -5.79755e-06)