/*--------------------------------*- C++ -*----------------------------------*\
| =========                 |                                                 |
| \\      /  F ield         | OpenFOAM: The Open Source CFD Toolbox           |
|  \\    /   O peration     | Version:  2406                                  |
|   \\  /    A nd           | Website:  www.openfoam.com                      |
|    \\/     M anipulation  |                                                 |
\*---------------------------------------------------------------------------*/
FoamFile
{
    version     2.0;
    format      ascii;
    arch        "LSB;label=32;scalar=64";
    class       volScalarField;
    location    "50";
    object      turbulenceProperties:epsilon;
}
// * * * * * * * * * * * * * * * * * * * * * * * * * * * * * * * * * * * * * //

dimensions      [0 2 -3 0 0 0 0];

internalField   nonuniform List<scalar> 
25000
(
9.74164e-06
2.47817e-06
8.62102e-07
7.2447e-07
6.88702e-07
6.89624e-07
7.08048e-07
7.39133e-07
8.95422e-07
1.01702e-06
2.45122e-06
9.5743e-07
6.40155e-07
5.85282e-07
5.76199e-07
5.92363e-07
6.36681e-07
7.15645e-07
8.66456e-07
9.47645e-07
8.17085e-07
6.20367e-07
5.39729e-07
5.10609e-07
5.02762e-07
5.14374e-07
5.49455e-07
6.1265e-07
7.19079e-07
7.80037e-07
6.96398e-07
5.70014e-07
5.04887e-07
4.7104e-07
4.58041e-07
4.65815e-07
4.96926e-07
5.55291e-07
6.48541e-07
7.47795e-07
6.73257e-07
5.63752e-07
4.9762e-07
4.56643e-07
4.38984e-07
4.43939e-07
4.7289e-07
5.29033e-07
6.159e-07
7.30543e-07
6.8182e-07
5.84202e-07
5.09548e-07
4.64135e-07
4.43513e-07
4.46561e-07
4.74185e-07
5.29652e-07
6.16349e-07
7.2815e-07
7.01855e-07
6.28338e-07
5.44988e-07
4.94657e-07
4.71732e-07
4.73335e-07
5.00955e-07
5.57375e-07
6.4949e-07
7.40535e-07
7.35519e-07
7.06947e-07
6.07098e-07
5.52269e-07
5.2664e-07
5.27721e-07
5.56287e-07
6.15646e-07
7.20474e-07
7.67155e-07
8.9388e-07
8.58844e-07
7.14585e-07
6.45206e-07
6.13261e-07
6.13895e-07
6.47352e-07
7.19961e-07
8.66927e-07
9.22977e-07
1.01077e-06
9.4131e-07
7.75552e-07
7.44668e-07
7.28963e-07
7.27369e-07
7.41114e-07
7.69063e-07
9.27113e-07
1.02644e-06
1.41443e-05
3.7108e-06
1.36857e-06
1.37911e-06
1.44545e-06
1.48353e-06
1.52431e-06
1.58778e-06
1.83459e-06
1.97759e-06
3.72654e-06
1.99825e-06
1.42403e-06
1.34564e-06
1.33449e-06
1.36137e-06
1.41462e-06
1.48736e-06
1.62575e-06
1.86165e-06
1.37184e-06
1.42789e-06
1.36672e-06
1.29669e-06
1.26331e-06
1.27368e-06
1.30991e-06
1.3632e-06
1.47442e-06
1.58726e-06
1.38406e-06
1.34789e-06
1.2984e-06
1.25013e-06
1.22185e-06
1.22754e-06
1.26013e-06
1.31665e-06
1.41696e-06
1.5253e-06
1.43543e-06
1.33017e-06
1.26253e-06
1.22189e-06
1.2019e-06
1.20677e-06
1.23653e-06
1.29338e-06
1.38177e-06
1.49266e-06
1.46437e-06
1.35047e-06
1.26791e-06
1.22462e-06
1.20569e-06
1.21018e-06
1.23849e-06
1.29448e-06
1.38307e-06
1.49021e-06
1.50028e-06
1.39838e-06
1.29954e-06
1.25426e-06
1.23332e-06
1.23713e-06
1.26648e-06
1.32032e-06
1.42017e-06
1.518e-06
1.56102e-06
1.46488e-06
1.34969e-06
1.30827e-06
1.28766e-06
1.29155e-06
1.31944e-06
1.36722e-06
1.47859e-06
1.57366e-06
1.80835e-06
1.60666e-06
1.46343e-06
1.4064e-06
1.37479e-06
1.37905e-06
1.4188e-06
1.48152e-06
1.61699e-06
1.82185e-06
1.94719e-06
1.83855e-06
1.56625e-06
1.50933e-06
1.48403e-06
1.48876e-06
1.52247e-06
1.5826e-06
1.837e-06
1.96339e-06
5.60983e-06
1.31288e-06
9.50823e-07
1.11331e-06
1.21936e-06
1.22364e-06
1.25676e-06
1.33117e-06
1.45266e-06
1.71523e-06
1.32046e-06
1.20167e-06
1.0459e-06
1.12759e-06
1.11031e-06
1.11039e-06
1.13643e-06
1.18018e-06
1.2224e-06
1.44817e-06
9.3341e-07
1.04083e-06
1.11315e-06
1.04882e-06
1.02205e-06
1.02506e-06
1.04934e-06
1.08709e-06
1.15072e-06
1.28304e-06
1.09878e-06
1.11197e-06
1.04326e-06
9.90725e-07
9.70433e-07
9.76721e-07
1.00236e-06
1.04289e-06
1.10955e-06
1.20264e-06
1.18911e-06
1.08812e-06
1.00943e-06
9.65313e-07
9.46992e-07
9.51689e-07
9.75346e-07
1.01701e-06
1.08257e-06
1.16709e-06
1.19259e-06
1.08659e-06
1.00892e-06
9.67146e-07
9.48071e-07
9.51555e-07
9.74399e-07
1.01628e-06
1.08384e-06
1.16646e-06
1.22903e-06
1.11498e-06
1.0323e-06
9.91794e-07
9.6978e-07
9.72644e-07
9.99361e-07
1.04129e-06
1.11219e-06
1.20014e-06
1.30467e-06
1.15667e-06
1.07083e-06
1.03231e-06
1.01036e-06
1.0136e-06
1.04077e-06
1.0814e-06
1.1532e-06
1.2751e-06
1.42427e-06
1.20334e-06
1.13829e-06
1.09822e-06
1.07592e-06
1.08016e-06
1.11069e-06
1.15539e-06
1.20497e-06
1.40694e-06
1.66174e-06
1.4107e-06
1.25101e-06
1.18314e-06
1.15761e-06
1.1643e-06
1.20238e-06
1.28055e-06
1.42017e-06
1.6683e-06
1.09276e-06
7.85866e-07
5.29107e-07
6.5877e-07
6.99307e-07
6.73378e-07
6.98035e-07
7.49095e-07
7.69577e-07
1.0137e-06
7.62116e-07
4.79603e-07
5.81412e-07
6.69628e-07
6.00989e-07
5.78995e-07
5.86194e-07
6.12553e-07
6.14534e-07
7.42692e-07
5.13884e-07
5.63356e-07
6.41734e-07
5.4507e-07
5.18554e-07
5.09969e-07
5.20991e-07
5.48288e-07
5.80953e-07
6.7841e-07
6.22552e-07
6.36773e-07
5.30785e-07
4.81904e-07
4.67495e-07
4.6721e-07
4.81785e-07
5.0895e-07
5.49673e-07
6.20818e-07
6.58751e-07
5.70105e-07
4.98457e-07
4.58959e-07
4.42785e-07
4.43664e-07
4.58967e-07
4.87612e-07
5.34898e-07
6.03197e-07
6.41958e-07
5.5487e-07
4.91071e-07
4.55451e-07
4.39001e-07
4.40247e-07
4.56294e-07
4.86039e-07
5.36433e-07
6.05873e-07
6.73074e-07
5.66619e-07
5.04674e-07
4.70928e-07
4.52876e-07
4.54081e-07
4.73508e-07
5.04679e-07
5.53053e-07
6.27476e-07
7.34153e-07
5.94043e-07
5.34453e-07
5.00045e-07
4.81804e-07
4.83219e-07
5.03659e-07
5.38016e-07
5.83752e-07
6.8308e-07
7.55845e-07
5.99089e-07
5.71123e-07
5.42755e-07
5.30527e-07
5.32601e-07
5.49593e-07
5.82499e-07
5.99206e-07
7.20327e-07
9.61642e-07
7.01536e-07
6.48943e-07
6.06842e-07
5.96352e-07
6.01499e-07
6.23317e-07
6.78988e-07
7.24044e-07
9.5934e-07
8.39197e-07
9.01537e-07
3.42441e-07
4.66812e-07
4.11385e-07
3.7554e-07
3.96238e-07
4.27362e-07
4.23513e-07
6.04704e-07
9.36612e-07
2.52182e-07
4.37973e-07
4.12592e-07
3.23304e-07
3.03254e-07
3.06395e-07
3.24991e-07
3.23463e-07
3.97334e-07
3.50113e-07
4.1896e-07
3.89534e-07
2.78568e-07
2.60066e-07
2.50531e-07
2.57264e-07
2.78888e-07
2.98085e-07
3.62832e-07
4.29635e-07
3.8471e-07
2.68218e-07
2.3023e-07
2.18103e-07
2.14705e-07
2.24751e-07
2.46322e-07
2.75067e-07
3.29408e-07
3.84445e-07
3.03314e-07
2.47345e-07
2.13468e-07
1.9786e-07
1.96042e-07
2.07421e-07
2.30742e-07
2.67876e-07
3.24038e-07
3.55578e-07
2.89999e-07
2.40817e-07
2.09723e-07
1.94523e-07
1.93398e-07
2.0544e-07
2.29898e-07
2.70349e-07
3.29121e-07
3.7837e-07
2.95932e-07
2.50087e-07
2.2135e-07
2.0596e-07
2.05113e-07
2.1854e-07
2.43938e-07
2.81716e-07
3.43417e-07
4.21145e-07
3.18158e-07
2.75249e-07
2.45427e-07
2.30517e-07
2.29898e-07
2.43711e-07
2.72664e-07
3.07247e-07
3.7987e-07
4.24986e-07
3.23062e-07
3.01384e-07
2.78824e-07
2.7021e-07
2.69899e-07
2.79186e-07
3.04958e-07
3.2076e-07
3.95448e-07
5.59025e-07
3.7804e-07
3.54464e-07
3.29857e-07
3.24538e-07
3.26637e-07
3.37585e-07
3.72641e-07
3.93696e-07
5.57558e-07
8.31482e-07
5.37836e-07
2.86303e-07
4.05371e-07
2.79525e-07
2.44858e-07
2.66328e-07
2.90464e-07
2.86112e-07
3.87417e-07
6.03497e-07
2.6592e-07
4.18057e-07
2.81421e-07
2.11177e-07
2.01539e-07
2.09513e-07
2.27132e-07
2.26709e-07
2.62309e-07
2.81329e-07
4.07287e-07
2.64279e-07
1.71885e-07
1.67888e-07
1.67245e-07
1.76461e-07
1.95058e-07
2.06402e-07
2.38631e-07
3.88429e-07
2.73515e-07
1.70124e-07
1.4432e-07
1.3906e-07
1.40353e-07
1.50806e-07
1.69382e-07
1.90787e-07
2.24246e-07
2.75783e-07
2.08094e-07
1.65395e-07
1.38938e-07
1.28007e-07
1.27555e-07
1.37749e-07
1.5742e-07
1.85947e-07
2.259e-07
2.40993e-07
1.9794e-07
1.65326e-07
1.40853e-07
1.28505e-07
1.26942e-07
1.3647e-07
1.56666e-07
1.87985e-07
2.32148e-07
2.58115e-07
2.04297e-07
1.74453e-07
1.52002e-07
1.39369e-07
1.37392e-07
1.4707e-07
1.67589e-07
1.96845e-07
2.42652e-07
2.90415e-07
2.24165e-07
1.95532e-07
1.7206e-07
1.59848e-07
1.58229e-07
1.68091e-07
1.91268e-07
2.17956e-07
2.65637e-07
2.9764e-07
2.3279e-07
2.15252e-07
1.97624e-07
1.90044e-07
1.88713e-07
1.95173e-07
2.15914e-07
2.32108e-07
2.75887e-07
3.73795e-07
2.6291e-07
2.47715e-07
2.34022e-07
2.30054e-07
2.29633e-07
2.35581e-07
2.57008e-07
2.72829e-07
3.70537e-07
5.01346e-07
3.78358e-07
5.20216e-07
4.302e-07
2.31514e-07
1.94657e-07
2.13901e-07
2.41813e-07
2.43411e-07
3.00895e-07
3.58897e-07
4.78153e-07
3.99355e-07
2.21664e-07
1.80425e-07
1.69795e-07
1.82066e-07
2.01976e-07
2.01926e-07
2.21018e-07
4.73981e-07
3.9422e-07
1.97391e-07
1.43709e-07
1.44929e-07
1.50513e-07
1.63448e-07
1.8166e-07
1.88452e-07
2.02552e-07
4.30284e-07
2.31117e-07
1.49079e-07
1.253e-07
1.26293e-07
1.32782e-07
1.45043e-07
1.62544e-07
1.79173e-07
1.98378e-07
2.41477e-07
1.91187e-07
1.52501e-07
1.29916e-07
1.24213e-07
1.26054e-07
1.35866e-07
1.53029e-07
1.75017e-07
2.03295e-07
2.02727e-07
1.74922e-07
1.5562e-07
1.37564e-07
1.28625e-07
1.27558e-07
1.3582e-07
1.52639e-07
1.76254e-07
2.09053e-07
2.15154e-07
1.83459e-07
1.66728e-07
1.50015e-07
1.39465e-07
1.37528e-07
1.45341e-07
1.61955e-07
1.83978e-07
2.17812e-07
2.43605e-07
2.03653e-07
1.86405e-07
1.68108e-07
1.5737e-07
1.55439e-07
1.63186e-07
1.81994e-07
2.02143e-07
2.35031e-07
2.56804e-07
2.16904e-07
2.03463e-07
1.88836e-07
1.80604e-07
1.78286e-07
1.83521e-07
2.00458e-07
2.14979e-07
2.42606e-07
3.01111e-07
2.33667e-07
2.24066e-07
2.15207e-07
2.09848e-07
2.07508e-07
2.11175e-07
2.26885e-07
2.40343e-07
3.00587e-07
6.08156e-07
8.93819e-07
8.40832e-07
4.45584e-07
2.34435e-07
1.92575e-07
2.07785e-07
2.40367e-07
2.47495e-07
2.74211e-07
7.6338e-07
7.02201e-07
3.56245e-07
2.34988e-07
2.05605e-07
1.81767e-07
1.95305e-07
2.19101e-07
2.21501e-07
2.2649e-07
7.92247e-07
3.70862e-07
2.07459e-07
1.73884e-07
1.65658e-07
1.70552e-07
1.86026e-07
2.07075e-07
2.14442e-07
2.12754e-07
4.65579e-07
2.58003e-07
1.86222e-07
1.47716e-07
1.49632e-07
1.57589e-07
1.71479e-07
1.91074e-07
2.08266e-07
2.16951e-07
2.49811e-07
2.23757e-07
1.82699e-07
1.57368e-07
1.52485e-07
1.54331e-07
1.64499e-07
1.82134e-07
2.01923e-07
2.22719e-07
2.12335e-07
1.93545e-07
1.81423e-07
1.65792e-07
1.58136e-07
1.57355e-07
1.65439e-07
1.81218e-07
2.00544e-07
2.25863e-07
2.22985e-07
2.03046e-07
1.92773e-07
1.78967e-07
1.69256e-07
1.6763e-07
1.74962e-07
1.8935e-07
2.06437e-07
2.32593e-07
2.50254e-07
2.24247e-07
2.13187e-07
1.97265e-07
1.86777e-07
1.84634e-07
1.91255e-07
2.06761e-07
2.22332e-07
2.4684e-07
2.7057e-07
2.4412e-07
2.3182e-07
2.16631e-07
2.06111e-07
2.02513e-07
2.06796e-07
2.20953e-07
2.33677e-07
2.50567e-07
2.95049e-07
2.53431e-07
2.47336e-07
2.38063e-07
2.28245e-07
2.22738e-07
2.24594e-07
2.36032e-07
2.4663e-07
2.81595e-07
1.06685e-06
1.38804e-06
8.91431e-07
4.19381e-07
2.58686e-07
2.09209e-07
2.16196e-07
2.50793e-07
2.67972e-07
2.81746e-07
1.22066e-06
6.88827e-07
3.1473e-07
2.76976e-07
2.34428e-07
1.99452e-07
2.10554e-07
2.36214e-07
2.45789e-07
2.44412e-07
8.74792e-07
3.42092e-07
2.61995e-07
2.12188e-07
1.90643e-07
1.9194e-07
2.06345e-07
2.28846e-07
2.41674e-07
2.35794e-07
4.27976e-07
3.00826e-07
2.31078e-07
1.78844e-07
1.78667e-07
1.83526e-07
1.96878e-07
2.17508e-07
2.36508e-07
2.43666e-07
2.57669e-07
2.47806e-07
2.14115e-07
1.89791e-07
1.83507e-07
1.83568e-07
1.93194e-07
2.1062e-07
2.2812e-07
2.43796e-07
2.269e-07
2.09832e-07
2.03848e-07
1.92563e-07
1.87112e-07
1.87184e-07
1.95244e-07
2.09262e-07
2.23586e-07
2.41243e-07
2.37063e-07
2.19152e-07
2.1228e-07
2.02403e-07
1.96113e-07
1.96426e-07
2.03519e-07
2.14899e-07
2.27134e-07
2.47037e-07
2.62107e-07
2.39243e-07
2.30607e-07
2.18504e-07
2.10947e-07
2.10515e-07
2.16587e-07
2.28963e-07
2.41349e-07
2.62365e-07
2.88765e-07
2.6545e-07
2.51886e-07
2.36291e-07
2.25838e-07
2.23109e-07
2.28291e-07
2.41478e-07
2.53566e-07
2.68226e-07
3.15503e-07
2.86465e-07
2.75625e-07
2.58571e-07
2.42692e-07
2.36025e-07
2.40036e-07
2.52094e-07
2.62766e-07
2.86007e-07
1.08364e-06
1.17442e-06
6.23581e-07
3.50834e-07
2.63718e-07
2.20355e-07
2.25743e-07
2.59182e-07
2.85059e-07
2.90188e-07
1.10605e-06
5.33736e-07
3.01249e-07
2.87713e-07
2.42798e-07
2.15988e-07
2.24714e-07
2.51235e-07
2.71856e-07
2.59909e-07
6.75682e-07
3.32146e-07
2.86783e-07
2.25067e-07
2.11705e-07
2.12548e-07
2.25603e-07
2.49897e-07
2.71591e-07
2.63813e-07
3.43604e-07
3.06273e-07
2.48534e-07
2.06978e-07
2.06e-07
2.07607e-07
2.20786e-07
2.4244e-07
2.64209e-07
2.72773e-07
2.43146e-07
2.44371e-07
2.33329e-07
2.16571e-07
2.10451e-07
2.1014e-07
2.19907e-07
2.36185e-07
2.50302e-07
2.61166e-07
2.26802e-07
2.15416e-07
2.15941e-07
2.10463e-07
2.10244e-07
2.13593e-07
2.21758e-07
2.32657e-07
2.40876e-07
2.50903e-07
2.39631e-07
2.24419e-07
2.21065e-07
2.16618e-07
2.1622e-07
2.2002e-07
2.27406e-07
2.35566e-07
2.42668e-07
2.56406e-07
2.6067e-07
2.41444e-07
2.3766e-07
2.30327e-07
2.26646e-07
2.28913e-07
2.36329e-07
2.4698e-07
2.56719e-07
2.74365e-07
2.91493e-07
2.68793e-07
2.58927e-07
2.45201e-07
2.35825e-07
2.35507e-07
2.44086e-07
2.58858e-07
2.70594e-07
2.82951e-07
3.23409e-07
2.99046e-07
2.87019e-07
2.66111e-07
2.48145e-07
2.42955e-07
2.5127e-07
2.65007e-07
2.74881e-07
2.91617e-07
8.01423e-07
7.38619e-07
4.04464e-07
3.02874e-07
2.53823e-07
2.27412e-07
2.29169e-07
2.56934e-07
2.92852e-07
2.92549e-07
7.78456e-07
4.13295e-07
2.84345e-07
2.58017e-07
2.40799e-07
2.26327e-07
2.26993e-07
2.5082e-07
2.85332e-07
2.74417e-07
4.86149e-07
3.17763e-07
2.65559e-07
2.24187e-07
2.24775e-07
2.20286e-07
2.29187e-07
2.54432e-07
2.87436e-07
2.91442e-07
2.88625e-07
2.83089e-07
2.50521e-07
2.2498e-07
2.16133e-07
2.12437e-07
2.25225e-07
2.48351e-07
2.74115e-07
2.91604e-07
2.25617e-07
2.33838e-07
2.38309e-07
2.21698e-07
2.12699e-07
2.12109e-07
2.22622e-07
2.38779e-07
2.52019e-07
2.62521e-07
2.20346e-07
2.13682e-07
2.12025e-07
2.0557e-07
2.07079e-07
2.12909e-07
2.22219e-07
2.32217e-07
2.37772e-07
2.44129e-07
2.29377e-07
2.18241e-07
2.15092e-07
2.10713e-07
2.11534e-07
2.17496e-07
2.26916e-07
2.35296e-07
2.39675e-07
2.48778e-07
2.43322e-07
2.3064e-07
2.31395e-07
2.25204e-07
2.21219e-07
2.24924e-07
2.35802e-07
2.4818e-07
2.55514e-07
2.6867e-07
2.73742e-07
2.55828e-07
2.52024e-07
2.39723e-07
2.29963e-07
2.312e-07
2.43824e-07
2.61493e-07
2.71813e-07
2.82145e-07
3.09638e-07
2.86538e-07
2.77994e-07
2.58762e-07
2.41942e-07
2.39328e-07
2.51334e-07
2.67254e-07
2.76104e-07
2.91752e-07
4.28121e-07
3.95267e-07
2.80508e-07
2.54547e-07
2.43023e-07
2.27835e-07
2.22779e-07
2.44183e-07
2.8746e-07
2.89459e-07
4.8502e-07
3.4444e-07
2.49121e-07
2.28783e-07
2.41381e-07
2.27188e-07
2.18859e-07
2.38585e-07
2.91375e-07
2.94549e-07
3.62594e-07
2.95561e-07
2.40888e-07
2.28626e-07
2.30583e-07
2.1734e-07
2.20684e-07
2.449e-07
2.92677e-07
3.24976e-07
2.57727e-07
2.62875e-07
2.51636e-07
2.29965e-07
2.10378e-07
2.02634e-07
2.1341e-07
2.37128e-07
2.70088e-07
3.051e-07
2.17214e-07
2.27923e-07
2.31393e-07
2.08049e-07
1.95805e-07
1.94569e-07
2.05374e-07
2.23277e-07
2.40739e-07
2.56399e-07
2.16924e-07
2.08608e-07
1.98851e-07
1.86403e-07
1.84995e-07
1.90664e-07
2.01694e-07
2.1499e-07
2.24084e-07
2.31317e-07
2.1796e-07
2.09732e-07
2.02871e-07
1.9317e-07
1.9003e-07
1.95144e-07
2.07335e-07
2.19965e-07
2.26583e-07
2.34634e-07
2.26357e-07
2.19554e-07
2.2121e-07
2.11199e-07
2.03221e-07
2.06031e-07
2.198e-07
2.36101e-07
2.44946e-07
2.55155e-07
2.55482e-07
2.43446e-07
2.43207e-07
2.28788e-07
2.1639e-07
2.1734e-07
2.32199e-07
2.53997e-07
2.66257e-07
2.71737e-07
2.88782e-07
2.66747e-07
2.64171e-07
2.4838e-07
2.32274e-07
2.306e-07
2.44249e-07
2.61341e-07
2.68191e-07
2.8322e-07
2.53424e-07
2.82613e-07
2.43956e-07
2.31961e-07
2.53907e-07
2.29645e-07
2.14441e-07
2.33985e-07
2.8964e-07
3.09089e-07
3.46263e-07
3.11699e-07
2.38609e-07
2.43658e-07
2.53059e-07
2.16178e-07
2.0094e-07
2.19606e-07
2.90094e-07
3.45156e-07
3.07662e-07
2.94337e-07
2.58982e-07
2.52852e-07
2.32408e-07
2.03581e-07
1.98996e-07
2.19572e-07
2.77493e-07
3.63701e-07
2.47018e-07
2.68083e-07
2.65231e-07
2.31196e-07
1.99092e-07
1.86503e-07
1.90385e-07
2.08844e-07
2.45092e-07
3.03033e-07
2.19165e-07
2.27504e-07
2.19951e-07
1.89602e-07
1.75978e-07
1.72627e-07
1.78705e-07
1.93455e-07
2.13681e-07
2.3739e-07
2.16924e-07
1.98989e-07
1.79772e-07
1.64014e-07
1.60175e-07
1.63112e-07
1.72018e-07
1.85481e-07
1.98423e-07
2.11436e-07
2.09542e-07
1.96095e-07
1.83185e-07
1.69176e-07
1.62388e-07
1.64979e-07
1.76521e-07
1.91174e-07
2.02845e-07
2.17065e-07
2.15926e-07
2.0666e-07
2.02059e-07
1.87047e-07
1.75794e-07
1.76836e-07
1.90212e-07
2.09261e-07
2.24998e-07
2.42542e-07
2.44878e-07
2.34013e-07
2.28578e-07
2.08247e-07
1.93122e-07
1.92976e-07
2.08089e-07
2.34989e-07
2.58202e-07
2.68418e-07
2.81323e-07
2.58217e-07
2.54476e-07
2.34163e-07
2.16022e-07
2.14704e-07
2.31211e-07
2.56251e-07
2.69543e-07
2.8726e-07
1.9711e-07
2.68781e-07
2.44514e-07
2.27746e-07
2.65976e-07
2.27077e-07
2.02668e-07
2.21651e-07
2.96006e-07
3.59899e-07
2.82616e-07
2.89294e-07
2.41845e-07
2.73588e-07
2.66107e-07
1.98823e-07
1.78029e-07
1.98426e-07
2.78739e-07
4.16026e-07
2.7464e-07
2.91208e-07
2.85741e-07
2.83382e-07
2.39608e-07
1.87065e-07
1.72086e-07
1.91612e-07
2.48236e-07
3.86256e-07
2.27657e-07
2.66481e-07
2.79774e-07
2.42073e-07
1.99987e-07
1.76555e-07
1.68008e-07
1.78255e-07
2.10841e-07
2.78551e-07
2.08962e-07
2.22422e-07
2.13964e-07
1.84213e-07
1.71324e-07
1.63293e-07
1.58698e-07
1.63267e-07
1.80553e-07
2.08867e-07
2.12892e-07
1.89568e-07
1.65067e-07
1.51617e-07
1.49139e-07
1.48729e-07
1.50575e-07
1.57009e-07
1.69418e-07
1.90293e-07
2.07762e-07
1.82794e-07
1.64144e-07
1.51064e-07
1.44507e-07
1.44656e-07
1.51582e-07
1.62708e-07
1.77841e-07
2.0192e-07
2.16154e-07
1.96334e-07
1.81739e-07
1.63925e-07
1.52263e-07
1.51856e-07
1.62291e-07
1.80786e-07
2.03518e-07
2.35298e-07
2.47369e-07
2.30445e-07
2.11795e-07
1.84635e-07
1.68306e-07
1.6753e-07
1.81737e-07
2.11854e-07
2.50077e-07
2.78362e-07
2.91823e-07
2.62038e-07
2.48585e-07
2.16934e-07
1.95765e-07
1.95264e-07
2.15316e-07
2.52881e-07
2.84769e-07
3.13601e-07
1.74439e-07
2.60397e-07
2.39243e-07
2.22243e-07
2.6546e-07
2.20826e-07
1.87643e-07
2.00982e-07
2.84976e-07
4.21463e-07
2.44022e-07
2.63297e-07
2.35088e-07
2.85916e-07
2.70303e-07
1.87229e-07
1.59871e-07
1.75107e-07
2.45326e-07
4.45465e-07
2.42892e-07
2.66393e-07
2.86486e-07
2.99588e-07
2.48935e-07
1.75513e-07
1.5111e-07
1.68804e-07
2.09414e-07
3.57419e-07
1.97653e-07
2.3925e-07
2.76414e-07
2.56201e-07
2.13725e-07
1.73835e-07
1.49359e-07
1.52688e-07
1.76356e-07
2.33517e-07
1.86668e-07
2.07592e-07
2.09316e-07
1.90932e-07
1.81345e-07
1.63814e-07
1.43824e-07
1.37196e-07
1.50473e-07
1.80853e-07
2.04486e-07
1.8465e-07
1.59732e-07
1.49768e-07
1.49192e-07
1.44314e-07
1.36985e-07
1.35147e-07
1.46318e-07
1.73579e-07
2.09904e-07
1.7636e-07
1.54e-07
1.41164e-07
1.3478e-07
1.3348e-07
1.36343e-07
1.43864e-07
1.59405e-07
1.88212e-07
2.18538e-07
1.88194e-07
1.67702e-07
1.47824e-07
1.3566e-07
1.35139e-07
1.44407e-07
1.61271e-07
1.82887e-07
2.22945e-07
2.50058e-07
2.229e-07
1.93971e-07
1.64496e-07
1.48833e-07
1.48555e-07
1.61514e-07
1.87997e-07
2.29383e-07
2.80598e-07
3.11986e-07
2.65545e-07
2.36564e-07
1.97481e-07
1.77059e-07
1.77488e-07
1.9618e-07
2.38146e-07
2.91e-07
3.5034e-07
1.49865e-07
2.52388e-07
2.20629e-07
2.16487e-07
2.65178e-07
2.20583e-07
1.76151e-07
1.75554e-07
2.42941e-07
4.0297e-07
2.17195e-07
2.40138e-07
2.33881e-07
3.01173e-07
2.82069e-07
1.93504e-07
1.52712e-07
1.55418e-07
2.06735e-07
3.79179e-07
2.18466e-07
2.43665e-07
2.88096e-07
3.15955e-07
2.64292e-07
1.79804e-07
1.45416e-07
1.51055e-07
1.75816e-07
2.84306e-07
1.78452e-07
2.19522e-07
2.73055e-07
2.70058e-07
2.29663e-07
1.75921e-07
1.39902e-07
1.35834e-07
1.49397e-07
1.91184e-07
1.73362e-07
2.05807e-07
2.13166e-07
2.0097e-07
1.91018e-07
1.63351e-07
1.33632e-07
1.236e-07
1.35122e-07
1.6397e-07
2.04779e-07
1.93901e-07
1.69378e-07
1.55492e-07
1.50476e-07
1.411e-07
1.30108e-07
1.27692e-07
1.39851e-07
1.65273e-07
2.18683e-07
1.83904e-07
1.59174e-07
1.41877e-07
1.31425e-07
1.28968e-07
1.31927e-07
1.39116e-07
1.52997e-07
1.79078e-07
2.1676e-07
1.89174e-07
1.66575e-07
1.44789e-07
1.31366e-07
1.30679e-07
1.39286e-07
1.52732e-07
1.69718e-07
2.05561e-07
2.38723e-07
2.14591e-07
1.85888e-07
1.57727e-07
1.44315e-07
1.43644e-07
1.52278e-07
1.71475e-07
2.05584e-07
2.586e-07
3.03352e-07
2.5018e-07
2.18511e-07
1.85609e-07
1.69508e-07
1.68949e-07
1.80824e-07
2.12742e-07
2.67144e-07
3.43949e-07
9.08378e-08
2.12671e-07
1.7743e-07
2.14356e-07
2.68951e-07
2.32459e-07
1.82599e-07
1.57738e-07
1.97546e-07
2.77803e-07
1.99537e-07
2.25179e-07
2.48059e-07
3.19394e-07
2.904e-07
2.06782e-07
1.63567e-07
1.53926e-07
1.73865e-07
2.7309e-07
1.97864e-07
2.30167e-07
2.91271e-07
3.18566e-07
2.64972e-07
1.84891e-07
1.48928e-07
1.4459e-07
1.54794e-07
2.08646e-07
1.65016e-07
2.11151e-07
2.65024e-07
2.62649e-07
2.21398e-07
1.67027e-07
1.33932e-07
1.28e-07
1.34916e-07
1.63001e-07
1.68863e-07
2.09629e-07
2.13983e-07
1.94862e-07
1.76872e-07
1.47454e-07
1.24567e-07
1.22054e-07
1.34328e-07
1.57364e-07
2.17662e-07
2.03842e-07
1.76635e-07
1.5409e-07
1.39584e-07
1.29262e-07
1.24616e-07
1.29813e-07
1.46194e-07
1.69059e-07
2.35114e-07
2.01116e-07
1.66622e-07
1.42249e-07
1.27607e-07
1.2506e-07
1.30773e-07
1.41887e-07
1.59858e-07
1.82477e-07
2.1183e-07
2.042e-07
1.77708e-07
1.49464e-07
1.34979e-07
1.33867e-07
1.41887e-07
1.56027e-07
1.71359e-07
1.93284e-07
2.20654e-07
2.10327e-07
1.93889e-07
1.6778e-07
1.54355e-07
1.51849e-07
1.56585e-07
1.69304e-07
1.89149e-07
2.29988e-07
2.29586e-07
2.30673e-07
2.04533e-07
1.87406e-07
1.78484e-07
1.7562e-07
1.76823e-07
1.91296e-07
2.33954e-07
2.54415e-07
9.37947e-08
1.90721e-07
1.81515e-07
2.46278e-07
2.83074e-07
2.64089e-07
2.22727e-07
1.66115e-07
1.90499e-07
9.04297e-08
1.92219e-07
2.3402e-07
2.87288e-07
3.38367e-07
2.99369e-07
2.37143e-07
2.14218e-07
1.92597e-07
1.71337e-07
2.19973e-07
1.89603e-07
2.3638e-07
2.97181e-07
3.10274e-07
2.60547e-07
1.96552e-07
1.73854e-07
1.76449e-07
1.65125e-07
1.76567e-07
1.6414e-07
2.16982e-07
2.59044e-07
2.47694e-07
2.06833e-07
1.61493e-07
1.41151e-07
1.47084e-07
1.52827e-07
1.57532e-07
1.78537e-07
2.17959e-07
2.15756e-07
1.87679e-07
1.62045e-07
1.37139e-07
1.27415e-07
1.37409e-07
1.56369e-07
1.69606e-07
2.4679e-07
2.20874e-07
1.8344e-07
1.53785e-07
1.33989e-07
1.25004e-07
1.27023e-07
1.41961e-07
1.71137e-07
2.00949e-07
2.66925e-07
2.38525e-07
1.85355e-07
1.48871e-07
1.31691e-07
1.28884e-07
1.3766e-07
1.59662e-07
1.93041e-07
2.15054e-07
2.25744e-07
2.41255e-07
2.13202e-07
1.72285e-07
1.51329e-07
1.492e-07
1.62183e-07
1.86513e-07
2.02595e-07
2.06743e-07
2.28142e-07
2.26229e-07
2.24392e-07
2.02503e-07
1.85801e-07
1.81775e-07
1.87939e-07
1.95581e-07
2.00574e-07
2.31212e-07
1.01121e-07
2.34174e-07
2.09876e-07
2.0817e-07
2.1229e-07
2.08662e-07
1.9556e-07
1.9386e-07
2.30248e-07
1.01237e-07
8.01144e-07
2.42444e-07
2.87547e-07
3.12828e-07
2.84615e-07
2.799e-07
2.71855e-07
2.06275e-07
2.09095e-07
4.15259e-07
1.97822e-07
2.80402e-07
3.19696e-07
3.16373e-07
2.74463e-07
2.5028e-07
2.61156e-07
2.35606e-07
1.88229e-07
2.25294e-07
1.97454e-07
2.40101e-07
2.62064e-07
2.57425e-07
2.30037e-07
1.97097e-07
1.9654e-07
2.09918e-07
1.79911e-07
1.83177e-07
1.74784e-07
2.03683e-07
2.18833e-07
2.0972e-07
1.85622e-07
1.57492e-07
1.52971e-07
1.74598e-07
1.77974e-07
1.65241e-07
1.88364e-07
2.01625e-07
1.94708e-07
1.73135e-07
1.53392e-07
1.37349e-07
1.37154e-07
1.57773e-07
1.83915e-07
1.88018e-07
2.55368e-07
2.20993e-07
1.80229e-07
1.5241e-07
1.36628e-07
1.30708e-07
1.35635e-07
1.57407e-07
1.98839e-07
2.37697e-07
2.81024e-07
2.538e-07
1.98712e-07
1.59165e-07
1.42182e-07
1.39707e-07
1.50417e-07
1.79451e-07
2.23695e-07
2.56008e-07
2.54961e-07
2.57894e-07
2.29996e-07
1.93143e-07
1.71677e-07
1.69153e-07
1.84476e-07
2.12365e-07
2.31588e-07
2.42023e-07
2.57491e-07
2.51648e-07
2.38339e-07
2.23424e-07
2.13806e-07
2.11526e-07
2.16296e-07
2.2069e-07
2.27546e-07
2.53047e-07
4.27094e-07
2.6101e-07
2.33009e-07
2.2764e-07
2.38806e-07
2.38863e-07
2.21445e-07
2.18144e-07
2.48758e-07
4.09805e-07
5.57598e-06
4.22284e-07
4.47517e-07
3.40544e-07
2.42833e-07
2.48128e-07
2.98458e-07
2.80476e-07
2.36266e-07
4.53383e-06
2.41573e-07
3.36628e-07
3.16895e-07
2.65825e-07
2.24218e-07
2.28715e-07
2.66551e-07
2.56991e-07
2.20041e-07
2.17645e-07
2.26223e-07
2.35372e-07
2.20356e-07
2.04175e-07
1.98547e-07
1.93798e-07
2.04571e-07
2.1549e-07
1.88879e-07
2.09022e-07
1.92837e-07
1.88897e-07
1.79371e-07
1.79393e-07
1.80973e-07
1.69981e-07
1.69848e-07
1.89451e-07
1.87773e-07
1.82742e-07
1.91927e-07
1.79834e-07
1.73417e-07
1.70544e-07
1.67763e-07
1.58438e-07
1.58262e-07
1.78275e-07
1.99623e-07
1.98683e-07
2.35919e-07
2.06024e-07
1.82002e-07
1.67178e-07
1.60142e-07
1.5585e-07
1.58864e-07
1.79438e-07
2.16738e-07
2.51236e-07
2.75569e-07
2.3685e-07
2.02037e-07
1.79521e-07
1.69782e-07
1.67501e-07
1.73821e-07
1.94993e-07
2.33612e-07
2.82435e-07
3.00926e-07
2.49635e-07
2.17303e-07
2.00406e-07
1.94773e-07
1.93945e-07
1.99018e-07
2.15858e-07
2.42722e-07
2.91855e-07
3.04162e-07
2.82568e-07
2.34535e-07
2.17469e-07
2.20021e-07
2.22366e-07
2.2217e-07
2.31212e-07
2.62183e-07
2.74907e-07
4.52351e-06
2.95479e-07
2.71694e-07
2.39131e-07
2.36971e-07
2.39688e-07
2.38342e-07
2.56538e-07
2.64188e-07
4.57691e-06
2.6926e-05
7.14708e-07
5.64223e-07
3.17983e-07
2.09659e-07
2.0763e-07
2.85161e-07
3.48267e-07
2.66647e-07
2.49813e-05
3.07653e-07
3.4412e-07
2.8076e-07
2.33939e-07
1.81517e-07
1.78032e-07
2.2759e-07
2.47549e-07
2.41358e-07
1.49885e-07
2.31402e-07
2.19951e-07
2.17863e-07
1.90346e-07
1.68013e-07
1.7204e-07
1.89636e-07
1.97234e-07
1.92794e-07
2.2682e-07
2.02378e-07
1.95092e-07
1.72837e-07
1.64808e-07
1.77097e-07
1.78767e-07
1.76953e-07
1.82099e-07
1.82e-07
2.05138e-07
1.97659e-07
1.72023e-07
1.60448e-07
1.71457e-07
1.88225e-07
1.86587e-07
1.79894e-07
1.85203e-07
1.92891e-07
1.99823e-07
2.09237e-07
1.84407e-07
1.79265e-07
1.84984e-07
1.93398e-07
1.92347e-07
1.87929e-07
1.94456e-07
2.11721e-07
2.31537e-07
2.45418e-07
2.06313e-07
1.93467e-07
1.92662e-07
1.99092e-07
1.98736e-07
1.93381e-07
1.98179e-07
2.20705e-07
2.69329e-07
3.11532e-07
2.28437e-07
2.0155e-07
1.92393e-07
2.00568e-07
2.02341e-07
1.96069e-07
2.03938e-07
2.31744e-07
3.13897e-07
3.15619e-07
2.80354e-07
2.25609e-07
2.0304e-07
2.00275e-07
2.02887e-07
2.05644e-07
2.23224e-07
2.71456e-07
2.74966e-07
2.50957e-05
2.94604e-07
2.87913e-07
2.36216e-07
2.15888e-07
2.1484e-07
2.31708e-07
2.73588e-07
2.47375e-07
2.55054e-05
9.4476e-05
8.88207e-07
4.41642e-07
2.33812e-07
2.23686e-07
2.06222e-07
2.46948e-07
3.4756e-07
4.56e-07
9.35397e-05
4.54035e-07
2.7439e-07
2.33058e-07
2.39547e-07
1.86764e-07
1.61783e-07
2.06557e-07
2.38988e-07
2.38133e-07
2.30442e-07
1.82272e-07
2.02408e-07
2.47856e-07
2.1851e-07
1.59723e-07
1.6177e-07
1.94505e-07
2.04485e-07
2.04096e-07
2.09233e-07
1.97848e-07
2.13592e-07
1.99295e-07
1.73777e-07
1.76225e-07
1.85896e-07
1.88273e-07
1.85528e-07
1.87618e-07
2.16864e-07
2.05361e-07
1.87973e-07
1.70137e-07
1.82322e-07
2.10663e-07
2.15752e-07
2.01835e-07
1.90266e-07
1.88438e-07
2.02645e-07
1.97294e-07
1.86247e-07
1.87468e-07
2.06938e-07
2.30743e-07
2.33129e-07
2.16609e-07
2.04084e-07
2.0365e-07
2.0985e-07
2.06725e-07
1.99407e-07
1.99771e-07
2.07946e-07
2.26432e-07
2.26766e-07
2.09773e-07
2.03011e-07
2.09595e-07
2.32826e-07
2.5556e-07
2.12565e-07
2.11496e-07
1.97691e-07
2.02968e-07
2.03296e-07
1.95834e-07
2.02778e-07
2.15369e-07
2.75396e-07
4.75839e-07
2.37658e-07
2.20368e-07
2.06098e-07
1.90288e-07
1.87761e-07
1.95864e-07
2.11319e-07
2.45318e-07
4.38572e-07
9.45382e-05
4.05138e-07
2.39549e-07
2.17979e-07
2.04137e-07
1.99148e-07
2.11139e-07
2.36819e-07
3.7591e-07
9.55636e-05
0.000259749
2.12866e-06
2.29481e-07
1.81504e-07
2.67953e-07
2.27672e-07
1.99335e-07
2.63206e-07
1.93198e-06
0.000262529
1.92022e-06
1.91188e-07
1.94921e-07
2.39833e-07
2.15679e-07
1.82796e-07
2.01083e-07
2.22138e-07
2.01682e-07
1.69926e-06
1.32413e-07
1.80816e-07
2.41218e-07
2.25224e-07
1.61572e-07
1.65313e-07
2.05512e-07
2.12174e-07
1.97801e-07
1.47214e-07
1.74668e-07
2.00556e-07
2.0427e-07
1.77791e-07
1.6596e-07
1.79297e-07
1.93977e-07
1.91948e-07
1.86134e-07
1.88642e-07
1.8275e-07
1.8872e-07
1.7999e-07
1.86197e-07
2.08117e-07
2.15685e-07
2.04713e-07
1.88747e-07
1.81097e-07
1.84094e-07
1.71646e-07
1.83069e-07
1.90456e-07
2.12107e-07
2.3774e-07
2.40366e-07
2.18734e-07
1.95643e-07
1.85014e-07
1.80139e-07
1.58687e-07
1.78375e-07
1.90894e-07
2.07393e-07
2.28063e-07
2.26712e-07
2.04948e-07
1.89874e-07
1.82834e-07
1.78776e-07
1.60769e-07
1.7261e-07
1.8891e-07
1.87329e-07
1.92975e-07
1.91104e-07
1.83458e-07
1.83297e-07
1.80234e-07
1.81279e-07
2.06158e-06
1.66403e-07
1.80199e-07
1.81885e-07
1.73947e-07
1.71307e-07
1.75242e-07
1.79792e-07
1.84804e-07
1.98947e-06
0.000265663
1.92261e-06
1.41031e-07
1.67608e-07
1.73484e-07
1.71246e-07
1.68956e-07
1.53266e-07
1.89157e-06
0.000266623
0.000574565
8.75157e-06
1.59635e-07
1.66046e-07
2.51329e-07
1.94804e-07
1.38683e-07
2.07393e-07
9.02269e-06
0.000587309
8.87743e-06
1.23316e-07
1.51018e-07
1.89681e-07
2.02683e-07
1.80285e-07
1.69836e-07
1.79394e-07
1.45816e-07
8.94273e-06
1.64643e-07
1.35968e-07
1.66297e-07
1.68949e-07
1.48835e-07
1.61496e-07
1.83511e-07
1.79542e-07
1.60353e-07
1.32636e-07
1.15211e-07
1.39424e-07
1.56562e-07
1.51943e-07
1.44513e-07
1.59669e-07
1.78045e-07
1.74195e-07
1.57874e-07
1.21846e-07
1.31152e-07
1.53566e-07
1.65949e-07
1.70509e-07
1.76627e-07
1.82466e-07
1.83014e-07
1.73521e-07
1.59038e-07
1.36381e-07
1.34609e-07
1.6054e-07
1.78904e-07
1.93901e-07
2.05251e-07
2.04975e-07
1.91528e-07
1.72162e-07
1.55184e-07
1.35648e-07
1.18269e-07
1.40939e-07
1.64496e-07
1.87841e-07
2.01242e-07
1.96916e-07
1.78938e-07
1.58988e-07
1.4288e-07
1.23181e-07
1.87742e-07
1.21673e-07
1.36927e-07
1.56793e-07
1.6977e-07
1.67038e-07
1.55149e-07
1.42191e-07
1.34849e-07
1.74964e-07
9.59761e-06
1.10855e-07
1.22503e-07
1.32463e-07
1.42305e-07
1.43714e-07
1.38076e-07
1.3463e-07
1.2269e-07
9.38811e-06
0.000593816
9.46183e-06
1.48869e-07
1.04544e-07
1.19861e-07
1.22316e-07
1.12833e-07
1.51641e-07
9.27418e-06
0.000592653
0.00107112
3.11084e-05
7.00601e-07
1.79025e-07
1.58382e-07
1.1281e-07
1.05835e-07
6.27538e-07
3.2389e-05
0.00109795
3.11339e-05
1.15215e-07
1.16154e-07
1.27068e-07
1.46345e-07
1.3478e-07
1.26516e-07
1.44462e-07
1.44351e-07
3.24332e-05
6.20167e-07
1.01008e-07
1.0418e-07
1.09454e-07
1.24931e-07
1.35955e-07
1.35101e-07
1.41139e-07
1.4406e-07
6.21173e-07
1.27723e-07
1.19332e-07
1.22645e-07
1.21884e-07
1.23304e-07
1.33963e-07
1.41759e-07
1.4378e-07
1.46997e-07
1.41758e-07
1.94022e-07
1.66593e-07
1.56084e-07
1.44238e-07
1.35551e-07