/*--------------------------------*- C++ -*----------------------------------*\
| =========                 |                                                 |
| \\      /  F ield         | OpenFOAM: The Open Source CFD Toolbox           |
|  \\    /   O peration     | Version:  2406                                  |
|   \\  /    A nd           | Website:  www.openfoam.com                      |
|    \\/     M anipulation  |                                                 |
\*---------------------------------------------------------------------------*/
FoamFile
{
    version     2.0;
    format      ascii;
    arch        "LSB;label=32;scalar=64";
    class       volSymmTensorField;
    location    "50";
    object      turbulenceProperties:R;
}
// * * * * * * * * * * * * * * * * * * * * * * * * * * * * * * * * * * * * * //

dimensions      [0 2 -2 0 0 0 0];

internalField   nonuniform List<symmTensor> 
25000
(
(7.94288e-05 1.13039e-06 -5.72865e-07 7.92829e-05 -5.69862e-07 6.75321e-05)
(3.97861e-05 1.37054e-06 -1.50273e-07 4.08153e-05 -4.69549e-07 3.35151e-05)
(2.24771e-05 1.01286e-07 -2.11943e-07 2.51971e-05 -5.24729e-07 1.96355e-05)
(2.13138e-05 9.55716e-08 -1.3588e-07 2.26571e-05 -5.22537e-07 1.77335e-05)
(2.10875e-05 4.55178e-09 -3.31585e-08 2.18575e-05 -5.18581e-07 1.72173e-05)
(2.12975e-05 -1.26788e-07 7.68177e-08 2.16982e-05 -5.17455e-07 1.72069e-05)
(2.17436e-05 -2.70075e-07 1.86339e-07 2.18151e-05 -5.17702e-07 1.74423e-05)
(2.23939e-05 -4.12956e-07 2.98041e-07 2.20747e-05 -5.16059e-07 1.7856e-05)
(2.50278e-05 -6.8468e-07 4.15173e-07 2.37772e-05 -5.00123e-07 1.9791e-05)
(2.58218e-05 1.48065e-06 5.77369e-07 2.58676e-05 -5.62123e-07 2.14118e-05)
(4.06345e-05 1.44484e-06 -4.77455e-07 3.95145e-05 -1.47961e-07 3.33455e-05)
(2.52036e-05 -1.39798e-06 -3.49762e-07 2.50412e-05 -3.46994e-07 2.06898e-05)
(2.0301e-05 -5.55932e-07 -2.46349e-07 2.10374e-05 -3.98381e-07 1.6666e-05)
(1.94834e-05 -2.56466e-07 -1.37655e-07 2.01149e-05 -4.09319e-07 1.58653e-05)
(1.94253e-05 -1.58477e-07 -2.92809e-08 1.98907e-05 -4.09725e-07 1.57159e-05)
(1.97633e-05 -1.72393e-07 8.32671e-08 2.01049e-05 -4.08143e-07 1.59303e-05)
(2.05233e-05 -2.45049e-07 1.97329e-07 2.07982e-05 -4.03873e-07 1.65262e-05)
(2.1773e-05 -3.50632e-07 3.11037e-07 2.20128e-05 -3.96726e-07 1.75438e-05)
(2.39979e-05 -4.9223e-07 4.1077e-07 2.41368e-05 -3.88422e-07 1.93459e-05)
(2.43932e-05 -7.10371e-07 5.13406e-07 2.57973e-05 -3.91492e-07 2.03772e-05)
(2.4539e-05 2.59209e-07 -5.28219e-07 2.18483e-05 -2.06873e-07 1.91414e-05)
(2.07892e-05 -4.7833e-07 -4.01723e-07 1.99114e-05 -2.40455e-07 1.64005e-05)
(1.90637e-05 -3.63444e-07 -2.70143e-07 1.89792e-05 -2.64419e-07 1.52193e-05)
(1.84374e-05 -2.27088e-07 -1.4676e-07 1.85935e-05 -2.7987e-07 1.47752e-05)
(1.82744e-05 -1.64262e-07 -3.16956e-08 1.84807e-05 -2.86884e-07 1.46516e-05)
(1.84916e-05 -1.61874e-07 8.36569e-08 1.86847e-05 -2.8965e-07 1.48208e-05)
(1.91258e-05 -1.97321e-07 2.00045e-07 1.92867e-05 -2.89597e-07 1.53281e-05)
(2.02112e-05 -2.54546e-07 3.14252e-07 2.03316e-05 -2.87822e-07 1.62036e-05)
(2.1934e-05 -3.33443e-07 4.18283e-07 2.19605e-05 -2.84404e-07 1.75816e-05)
(2.2602e-05 -4.32958e-07 5.30191e-07 2.30738e-05 -2.71295e-07 1.83501e-05)
(2.21827e-05 1.65388e-07 -5.27525e-07 2.0935e-05 -1.25736e-07 1.73793e-05)
(1.98832e-05 -1.77495e-07 -4.13886e-07 1.91994e-05 -1.28426e-07 1.56528e-05)
(1.854e-05 -1.94818e-07 -2.85992e-07 1.82841e-05 -1.38686e-07 1.46908e-05)
(1.78164e-05 -1.58848e-07 -1.60194e-07 1.77729e-05 -1.52256e-07 1.41697e-05)
(1.75257e-05 -1.3487e-07 -3.90821e-08 1.75772e-05 -1.61509e-07 1.39651e-05)
(1.76563e-05 -1.30148e-07 8.05306e-08 1.77419e-05 -1.66498e-07 1.40845e-05)
(1.82326e-05 -1.44121e-07 1.99504e-07 1.83179e-05 -1.68641e-07 1.45576e-05)
(1.92786e-05 -1.68288e-07 3.1563e-07 1.93404e-05 -1.68827e-07 1.54062e-05)
(2.08527e-05 -2.03673e-07 4.25204e-07 2.08594e-05 -1.66492e-07 1.66719e-05)
(2.22992e-05 -2.7479e-07 5.33314e-07 2.24625e-05 -1.56311e-07 1.7928e-05)
(2.15704e-05 4.21939e-08 -5.22355e-07 2.08968e-05 -2.34677e-08 1.70166e-05)
(1.96712e-05 -1.05002e-07 -4.15481e-07 1.92215e-05 -1.91211e-08 1.55415e-05)
(1.84084e-05 -1.30096e-07 -2.94078e-07 1.81592e-05 -2.20589e-08 1.45757e-05)
(1.75781e-05 -1.21428e-07 -1.69692e-07 1.74712e-05 -2.99439e-08 1.39438e-05)
(1.7198e-05 -1.05578e-07 -4.61342e-08 1.71772e-05 -3.70714e-08 1.36617e-05)
(1.72726e-05 -9.23052e-08 7.64019e-08 1.72959e-05 -4.20624e-08 1.37388e-05)
(1.78159e-05 -8.41274e-08 1.97573e-07 1.78514e-05 -4.5117e-08 1.41898e-05)
(1.88416e-05 -8.12013e-08 3.15712e-07 1.88657e-05 -4.67244e-08 1.50256e-05)
(2.03339e-05 -8.40826e-08 4.28423e-07 2.03287e-05 -4.68437e-08 1.62336e-05)
(2.21199e-05 -1.09516e-07 5.3408e-07 2.21401e-05 -4.38169e-08 1.77029e-05)
(2.1545e-05 -1.09983e-07 -5.20141e-07 2.12089e-05 8.47117e-08 1.71071e-05)
(1.99529e-05 -1.36671e-07 -4.1329e-07 1.96422e-05 9.27691e-08 1.58177e-05)
(1.86002e-05 -1.33355e-07 -2.97005e-07 1.84018e-05 9.35282e-08 1.47506e-05)
(1.77225e-05 -1.14687e-07 -1.75161e-07 1.7611e-05 9.01984e-08 1.40598e-05)
(1.73e-05 -8.66827e-08 -5.12459e-08 1.72512e-05 8.5766e-08 1.37328e-05)
(1.734e-05 -5.45066e-08 7.24653e-08 1.73307e-05 8.17382e-08 1.37789e-05)
(1.78554e-05 -2.35606e-08 1.94861e-07 1.78617e-05 7.82254e-08 1.42081e-05)
(1.88652e-05 5.18487e-09 3.13889e-07 1.88653e-05 7.53159e-08 1.50331e-05)
(2.03518e-05 3.34264e-08 4.2742e-07 2.03266e-05 7.24925e-08 1.62386e-05)
(2.20858e-05 6.63622e-08 5.34074e-07 2.2103e-05 6.78349e-08 1.76725e-05)
(2.16936e-05 -2.55974e-07 -5.1758e-07 2.1675e-05 1.93031e-07 1.73651e-05)
(2.06439e-05 -2.20431e-07 -4.08095e-07 2.04079e-05 2.05974e-07 1.64155e-05)
(1.92047e-05 -1.76782e-07 -2.96753e-07 1.9051e-05 2.09253e-07 1.52659e-05)
(1.82816e-05 -1.3054e-07 -1.77388e-07 1.81843e-05 2.08698e-07 1.45254e-05)
(1.78371e-05 -7.76364e-08 -5.45659e-08 1.77855e-05 2.06464e-07 1.41734e-05)
(1.78534e-05 -2.15089e-08 6.89124e-08 1.78313e-05 2.03378e-07 1.41957e-05)
(1.83549e-05 3.69299e-08 1.91368e-07 1.83471e-05 1.99786e-07 1.46128e-05)
(1.9355e-05 9.45913e-08 3.10388e-07 1.934e-05 1.96033e-07 1.54315e-05)
(2.08995e-05 1.55206e-07 4.22173e-07 2.08458e-05 1.9104e-07 1.66814e-05)
(2.21979e-05 2.30997e-07 5.33203e-07 2.23501e-05 1.79403e-07 1.78368e-05)
(2.19985e-05 -4.07666e-07 -5.14668e-07 2.23593e-05 3.04456e-07 1.78142e-05)
(2.1863e-05 -3.34012e-07 -3.99518e-07 2.16558e-05 3.18208e-07 1.74366e-05)
(2.02337e-05 -2.40077e-07 -2.94728e-07 2.01245e-05 3.22298e-07 1.61305e-05)
(1.92905e-05 -1.59132e-07 -1.77821e-07 1.9222e-05 3.23417e-07 1.53656e-05)
(1.88295e-05 -7.61315e-08 -5.64983e-08 1.87912e-05 3.23097e-07 1.49928e-05)
(1.88386e-05 7.55105e-09 6.56784e-08 1.88224e-05 3.20744e-07 1.50063e-05)
(1.93312e-05 9.57632e-08 1.87549e-07 1.93261e-05 3.17045e-07 1.54164e-05)
(2.03302e-05 1.85479e-07 3.05866e-07 2.03179e-05 3.12452e-07 1.62368e-05)
(2.20109e-05 2.89592e-07 4.13256e-07 2.19305e-05 3.06947e-07 1.75944e-05)
(2.243e-05 3.88352e-07 5.29936e-07 2.28734e-05 2.92722e-07 1.81916e-05)
(2.37261e-05 -6.85903e-07 -4.98263e-07 2.50275e-05 4.21347e-07 1.9783e-05)
(2.40144e-05 -4.86605e-07 -3.91673e-07 2.3908e-05 4.16993e-07 1.92611e-05)
(2.18854e-05 -3.25923e-07 -2.91631e-07 2.18721e-05 4.24722e-07 1.75266e-05)
(2.08058e-05 -1.98487e-07 -1.75772e-07 2.07974e-05 4.30934e-07 1.66305e-05)
(2.02897e-05 -8.17123e-08 -5.70459e-08 2.02846e-05 4.33461e-07 1.61999e-05)
(2.02933e-05 3.48434e-08 6.24393e-08 2.03035e-05 4.3192e-07 1.62067e-05)
(2.08218e-05 1.55905e-07 1.82172e-07 2.0855e-05 4.26309e-07 1.66537e-05)
(2.19372e-05 2.90357e-07 3.00336e-07 2.19904e-05 4.17642e-07 1.75866e-05)
(2.40855e-05 4.52833e-07 4.03776e-07 2.40697e-05 4.0798e-07 1.93437e-05)
(2.41052e-05 6.69061e-07 5.12415e-07 2.54417e-05 4.10369e-07 2.00964e-05)
(2.57555e-05 1.47312e-06 -5.62823e-07 2.57738e-05 5.84499e-07 2.1347e-05)
(2.57013e-05 -7.09301e-07 -3.9582e-07 2.43223e-05 5.18643e-07 2.03081e-05)
(2.30011e-05 -4.28031e-07 -2.78754e-07 2.25423e-05 5.34613e-07 1.82981e-05)
(2.24141e-05 -2.72798e-07 -1.66078e-07 2.22527e-05 5.36633e-07 1.78918e-05)
(2.2116e-05 -1.0941e-07 -5.45837e-08 2.20952e-05 5.36536e-07 1.76846e-05)
(2.20926e-05 6.58406e-08 5.72881e-08 2.20724e-05 5.35734e-07 1.76631e-05)
(2.23614e-05 2.32004e-07 1.70073e-07 2.22041e-05 5.34482e-07 1.78436e-05)
(2.29071e-05 3.91009e-07 2.85396e-07 2.24524e-05 5.31047e-07 1.82144e-05)
(2.55064e-05 6.72211e-07 4.05796e-07 2.41497e-05 5.13837e-07 2.01431e-05)
(2.59666e-05 -1.49362e-06 5.74894e-07 2.59562e-05 5.76412e-07 2.15163e-05)
(9.56912e-05 1.01655e-06 1.26745e-06 9.56404e-05 1.24545e-06 8.118e-05)
(4.96378e-05 1.60188e-06 1.12249e-07 4.9175e-05 9.61798e-07 4.07848e-05)
(2.87836e-05 4.86779e-08 -8.7109e-09 3.13252e-05 9.17947e-07 2.46749e-05)
(2.98543e-05 2.37158e-07 -4.17946e-08 3.07808e-05 9.42069e-07 2.44783e-05)
(3.08735e-05 1.18461e-07 -1.06247e-07 3.12577e-05 9.50601e-07 2.50069e-05)
(3.13921e-05 -4.16158e-08 -2.51657e-07 3.15517e-05 9.61024e-07 2.53347e-05)
(3.1899e-05 -1.69244e-07 -4.40299e-07 3.18684e-05 9.86473e-07 2.57143e-05)
(3.2666e-05 -1.94423e-07 -6.48129e-07 3.23521e-05 1.02504e-06 2.63039e-05)
(3.55936e-05 -7.02148e-07 -8.6486e-07 3.4057e-05 1.11941e-06 2.85055e-05)
(3.60221e-05 1.2014e-06 -1.20291e-06 3.60636e-05 1.19904e-06 2.98117e-05)
(4.92489e-05 1.62502e-06 9.95859e-07 4.97623e-05 1.05349e-07 4.08828e-05)
(3.62937e-05 -1.97668e-06 2.91455e-07 3.63169e-05 2.71358e-07 2.98416e-05)
(3.03716e-05 -6.11333e-07 1.27176e-07 3.13324e-05 4.70558e-07 2.47904e-05)
(2.96993e-05 -9.29539e-08 4.71403e-08 3.03499e-05 6.13043e-07 2.40347e-05)
(2.97209e-05 1.31052e-09 -6.77223e-08 3.00857e-05 6.73775e-07 2.39297e-05)
(3.01061e-05 -2.67692e-08 -2.20159e-07 3.02909e-05 7.05773e-07 2.41786e-05)
(3.07071e-05 -7.41102e-08 -4.00921e-07 3.08309e-05 7.35969e-07 2.46742e-05)
(3.14272e-05 -1.57453e-07 -5.98883e-07 3.16249e-05 7.72503e-07 2.53465e-05)
(3.28475e-05 -3.76165e-07 -8.2769e-07 3.29724e-05 8.14496e-07 2.65916e-05)
(3.42144e-05 -7.27455e-07 -1.12778e-06 3.59252e-05 8.50473e-07 2.87371e-05)
(3.13393e-05 5.38477e-08 9.2324e-07 2.88657e-05 2.09653e-08 2.46799e-05)
(3.13231e-05 -6.27316e-07 4.84715e-07 3.04724e-05 1.353e-07 2.48174e-05)
(3.02498e-05 -4.03768e-07 2.92449e-07 3.03026e-05 2.93566e-07 2.41907e-05)
(2.93741e-05 -2.06535e-07 1.37863e-07 2.9634e-05 3.91289e-07 2.3538e-05)
(2.90073e-05 -1.05414e-07 -2.16328e-08 2.9245e-05 4.43611e-07 2.32261e-05)
(2.91672e-05 -8.52398e-08 -1.88983e-07 2.93159e-05 4.74683e-07 2.33292e-05)
(2.95974e-05 -1.05129e-07 -3.70093e-07 2.96865e-05 5.0111e-07 2.36824e-05)
(3.01646e-05 -1.46139e-07 -5.6409e-07 3.02687e-05 5.30138e-07 2.42007e-05)
(3.13691e-05 -1.6047e-07 -7.83476e-07 3.14069e-05 5.60266e-07 2.52357e-05)
(3.2255e-05 -1.99309e-07 -1.03246e-06 3.27514e-05 6.07057e-07 2.63004e-05)
(3.08212e-05 2.05118e-07 9.35188e-07 2.99335e-05 -4.84714e-09 2.45111e-05)
(3.03383e-05 -1.25512e-07 6.12129e-07 2.97634e-05 7.05771e-08 2.40525e-05)
(2.96109e-05 -2.2321e-07 3.85917e-07 2.94367e-05 1.52381e-07 2.3553e-05)
(2.89655e-05 -2.00496e-07 1.93953e-07 2.90041e-05 2.0674e-07 2.30846e-05)
(2.86062e-05 -1.3802e-07 1.38659e-08 2.87166e-05 2.4332e-07 2.28109e-05)
(2.86725e-05 -1.02412e-07 -1.62564e-07 2.87795e-05 2.68445e-07 2.28681e-05)
(2.90417e-05 -9.6571e-08 -3.44198e-07 2.9146e-05 2.89877e-07 2.31903e-05)
(2.96475e-05 -1.0111e-07 -5.36454e-07 2.97883e-05 3.11695e-07 2.37433e-05)
(3.07231e-05 -8.26722e-08 -7.52422e-07 3.08695e-05 3.32992e-07 2.46909e-05)
(3.17656e-05 -1.76246e-07 -9.91734e-07 3.20279e-05 3.6361e-07 2.57175e-05)
(3.11395e-05 1.08802e-07 9.40665e-07 3.078e-05 -8.05438e-08 2.49162e-05)
(3.00138e-05 -2.43975e-08 6.66551e-07 2.96988e-05 -4.49915e-08 2.38881e-05)
(2.92073e-05 -1.27445e-07 4.33665e-07 2.90284e-05 -3.12654e-09 2.32176e-05)
(2.86881e-05 -1.49492e-07 2.29283e-07 2.86367e-05 3.02628e-08 2.28103e-05)
(2.8423e-05 -1.20383e-07 3.97402e-08 2.84479e-05 5.59243e-08 2.2608e-05)
(2.84631e-05 -8.86231e-08 -1.42871e-07 2.85209e-05 7.43303e-08 2.2656e-05)
(2.87886e-05 -6.80796e-08 -3.26638e-07 2.88717e-05 8.81458e-08 2.29534e-05)
(2.9402e-05 -5.50082e-08 -5.20651e-07 2.95298e-05 9.96752e-08 2.35108e-05)
(3.03424e-05 -3.76124e-08 -7.3465e-07 3.05062e-05 1.09108e-07 2.43585e-05)
(3.14943e-05 -6.66337e-08 -9.66475e-07 3.16497e-05 1.21315e-07 2.54058e-05)
(3.13323e-05 -3.51303e-08 9.53251e-07 3.12057e-05 -2.36329e-07 2.51685e-05)
(3.01533e-05 -3.81238e-08 6.97472e-07 3.0004e-05 -2.03553e-07 2.40789e-05)
(2.923e-05 -1.03141e-07 4.63197e-07 2.91225e-05 -1.73058e-07 2.3274e-05)
(2.87263e-05 -1.17335e-07 2.53478e-07 2.86586e-05 -1.47354e-07 2.28396e-05)
(2.84916e-05 -9.65074e-08 5.79572e-08 2.84676e-05 -1.27936e-07 2.2645e-05)
(2.85272e-05 -6.45838e-08 -1.30647e-07 2.85373e-05 -1.15757e-07 2.26879e-05)
(2.88296e-05 -3.38277e-08 -3.19094e-07 2.88772e-05 -1.10252e-07 2.29707e-05)
(2.94278e-05 -9.2822e-09 -5.1609e-07 2.953e-05 -1.09912e-07 2.35196e-05)
(3.03683e-05 1.86213e-09 -7.32084e-07 3.05099e-05 -1.12475e-07 2.43689e-05)
(3.14711e-05 5.6527e-08 -9.63654e-07 3.16219e-05 -1.20796e-07 2.5384e-05)
(3.15881e-05 -1.55796e-07 9.79962e-07 3.16755e-05 -4.30669e-07 2.551e-05)
(3.06362e-05 -7.76969e-08 7.28741e-07 3.05495e-05 -3.89483e-07 2.45301e-05)
(2.9555e-05 -1.17704e-07 4.89435e-07 2.94955e-05 -3.58192e-07 2.35864e-05)
(2.90673e-05 -1.11436e-07 2.74778e-07 2.89869e-05 -3.32496e-07 2.3134e-05)
(2.88269e-05 -8.0654e-08 7.1714e-08 2.87605e-05 -3.15238e-07 2.29219e-05)
(2.88592e-05 -4.09069e-08 -1.25201e-07 2.88169e-05 -3.07762e-07 2.29572e-05)
(2.9171e-05 3.16957e-09 -3.21198e-07 2.91656e-05 -3.09773e-07 2.3246e-05)
(2.97301e-05 4.17932e-08 -5.22968e-07 2.97921e-05 -3.20125e-07 2.37727e-05)
(3.07907e-05 4.81691e-08 -7.44942e-07 3.08746e-05 -3.35023e-07 2.47157e-05)
(3.16981e-05 1.62086e-07 -9.83337e-07 3.19456e-05 -3.6179e-07 2.56528e-05)
(3.20366e-05 -1.85848e-07 1.01915e-06 3.24283e-05 -6.40529e-07 2.60841e-05)
(3.1364e-05 -1.60577e-07 7.6417e-07 3.12062e-05 -5.89181e-07 2.51564e-05)
(3.01073e-05 -1.56575e-07 5.187e-07 3.00282e-05 -5.55747e-07 2.40782e-05)
(2.96882e-05 -1.16452e-07 2.96518e-07 2.95611e-05 -5.28749e-07 2.36649e-05)
(2.94643e-05 -7.09595e-08 8.30787e-08 2.93383e-05 -5.1328e-07 2.34574e-05)
(2.95024e-05 -2.21944e-08 -1.24889e-07 2.93891e-05 -5.08757e-07 2.34925e-05)
(2.97964e-05 3.46114e-08 -3.31765e-07 2.97068e-05 -5.15848e-07 2.37644e-05)
(3.02751e-05 9.79589e-08 -5.41667e-07 3.02534e-05 -5.34111e-07 2.42303e-05)
(3.14676e-05 1.2926e-07 -7.71081e-07 3.14024e-05 -5.58693e-07 2.52663e-05)
(3.21328e-05 1.75647e-07 -1.01891e-06 3.26003e-05 -6.0225e-07 2.61819e-05)
(3.37485e-05 -6.99313e-07 1.11246e-06 3.53854e-05 -8.56292e-07 2.83171e-05)
(3.27585e-05 -3.83355e-07 8.07714e-07 3.26743e-05 -8.21195e-07 2.64344e-05)
(3.12813e-05 -1.719e-07 5.49191e-07 3.12676e-05 -7.80065e-07 2.51358e-05)
(3.07515e-05 -9.93253e-08 3.1706e-07 3.06129e-05 -7.4897e-07 2.45969e-05)
(3.04328e-05 -5.71038e-08 9.23005e-08 3.02623e-05 -7.31887e-07 2.42964e-05)
(3.0477e-05 -1.63813e-08 -1.27574e-07 3.03123e-05 -7.2946e-07 2.43339e-05)
(3.08797e-05 3.39192e-08 -3.46771e-07 3.07555e-05 -7.4212e-07 2.47044e-05)
(3.14653e-05 1.21835e-07 -5.67708e-07 3.14723e-05 -7.69434e-07 2.52874e-05)
(3.28442e-05 3.44454e-07 -8.11182e-07 3.28074e-05 -8.07195e-07 2.65105e-05)
(3.38816e-05 6.83396e-07 -1.11112e-06 3.55213e-05 -8.40507e-07 2.8411e-05)
(3.57208e-05 1.21949e-06 1.18938e-06 3.5799e-05 -1.18853e-06 2.95916e-05)
(3.57e-05 -7.33711e-07 8.40991e-07 3.40051e-05 -1.12162e-06 2.85568e-05)
(3.2537e-05 -2.10318e-07 5.92291e-07 3.20374e-05 -1.03005e-06 2.61262e-05)
(3.18672e-05 -1.94013e-07 3.46206e-07 3.15897e-05 -9.92253e-07 2.5584e-05)
(3.15669e-05 -8.73178e-08 1.04251e-07 3.13925e-05 -9.68716e-07 2.53339e-05)
(3.16165e-05 3.65221e-08 -1.3554e-07 3.14442e-05 -9.66567e-07 2.53733e-05)
(3.20046e-05 1.46662e-07 -3.73231e-07 3.17311e-05 -9.86277e-07 2.5692e-05)
(3.27097e-05 1.65944e-07 -6.10258e-07 3.22055e-05 -1.02148e-06 2.62576e-05)
(3.56935e-05 6.80639e-07 -8.45846e-07 3.39948e-05 -1.11333e-06 2.85322e-05)
(3.59261e-05 -1.23649e-06 -1.18748e-06 3.58912e-05 -1.18688e-06 2.97138e-05)
(6.02789e-05 7.38052e-07 1.77262e-06 6.01868e-05 1.80004e-06 5.11201e-05)
(3.00044e-05 2.30759e-07 2.6691e-07 2.8746e-05 1.39713e-06 2.42656e-05)
(2.42661e-05 -4.37695e-07 4.27007e-08 2.53137e-05 1.349e-06 2.10744e-05)
(2.70825e-05 1.40678e-07 3.43677e-09 2.71137e-05 1.37768e-06 2.22614e-05)
(2.83988e-05 8.03282e-08 -9.74785e-08 2.83873e-05 1.37679e-06 2.32322e-05)
(2.83292e-05 -1.16429e-08 -3.18689e-07 2.85364e-05 1.38127e-06 2.3293e-05)
(2.86691e-05 -1.03798e-07 -5.75172e-07 2.89037e-05 1.39811e-06 2.36614e-05)
(2.95072e-05 -2.5986e-08 -8.50633e-07 2.96648e-05 1.41322e-06 2.4428e-05)
(3.11412e-05 -4.39887e-07 -1.14003e-06 3.04725e-05 1.45846e-06 2.57105e-05)
(3.33113e-05 1.80926e-07 -1.57877e-06 3.34017e-05 1.57971e-06 2.81657e-05)
(2.88165e-05 2.59222e-07 1.37052e-06 3.01103e-05 3.17371e-07 2.43289e-05)
(2.79816e-05 -1.7107e-06 4.67345e-07 2.8005e-05 5.11857e-07 2.34468e-05)
(2.61912e-05 -1.6207e-07 2.27e-07 2.66021e-05 8.02046e-07 2.13207e-05)
(2.73476e-05 2.28569e-07 1.02557e-07 2.74535e-05 9.87538e-07 2.21572e-05)
(2.71419e-05 9.79927e-08 -7.14509e-08 2.72304e-05 1.04702e-06 2.19966e-05)
(2.71168e-05 3.54018e-08 -3.03199e-07 2.72293e-05 1.07444e-06 2.20255e-05)
(2.74051e-05 4.77625e-09 -5.67931e-07 2.75181e-05 1.09176e-06 2.23365e-05)
(2.784e-05 -2.99921e-08 -8.44762e-07 2.80434e-05 1.10272e-06 2.28462e-05)
(2.82972e-05 -1.98841e-07 -1.11821e-06 2.84207e-05 1.11164e-06 2.33983e-05)
(3.03094e-05 -4.57819e-07 -1.45637e-06 3.11891e-05 1.13139e-06 2.56901e-05)
(2.50897e-05 -4.19617e-07 1.30664e-06 2.40923e-05 1.00372e-07 2.08223e-05)
(2.64878e-05 -1.79655e-07 7.55195e-07 2.61961e-05 2.79607e-07 2.12516e-05)
(2.7257e-05 1.06215e-07 4.62491e-07 2.7312e-05 5.15317e-07 2.18994e-05)
(2.64488e-05 6.7072e-08 2.14266e-07 2.65317e-05 6.55392e-07 2.12492e-05)
(2.61009e-05 7.62498e-09 -2.50376e-08 2.61947e-05 7.22279e-07 2.09828e-05)
(2.6137e-05 -2.49555e-08 -2.78802e-07 2.62097e-05 7.56097e-07 2.10395e-05)
(2.64356e-05 -4.20831e-08 -5.51828e-07 2.64712e-05 7.76794e-07 2.13416e-05)
(2.6855e-05 -6.31725e-08 -8.28705e-07 2.69033e-05 7.92741e-07 2.181e-05)
(2.7606e-05 -3.7045e-08 -1.103e-06 2.75709e-05 8.02024e-07 2.25625e-05)
(2.90416e-05 -3.95419e-09 -1.40564e-06 2.90493e-05 8.07474e-07 2.39838e-05)
(2.69396e-05 1.16007e-07 1.33349e-06 2.69249e-05 3.9991e-08 2.20926e-05)
(2.72348e-05 1.99155e-07 9.3709e-07 2.72029e-05 1.4293e-07 2.19858e-05)
(2.64277e-05 5.03668e-08 6.02738e-07 2.64221e-05 2.58875e-07 2.11831e-05)
(2.57631e-05 -2.11813e-08 3.02923e-07 2.5793e-05 3.50181e-07 2.05932e-05)
(2.54935e-05 -3.74578e-08 2.45721e-08 2.55459e-05 4.08351e-07 2.03694e-05)
(2.55697e-05 -4.4859e-08 -2.50576e-07 2.56174e-05 4.41436e-07 2.04529e-05)
(2.58801e-05 -4.56858e-08 -5.31993e-07 2.59205e-05 4.62117e-07 2.07712e-05)
(2.63411e-05 -5.21267e-08 -8.12953e-07 2.64032e-05 4.76798e-07 2.12751e-05)
(2.71163e-05 -2.43218e-08 -1.09742e-06 2.71584e-05 4.83048e-07 2.20657e-05)
(2.82017e-05 -9.31287e-08 -1.38565e-06 2.81239e-05 4.82646e-07 2.31404e-05)
(2.80351e-05 8.50114e-08 1.33754e-06 2.80537e-05 -8.44387e-08 2.29307e-05)
(2.69454e-05 8.97689e-08 1.00235e-06 2.68948e-05 -5.05885e-08 2.17615e-05)
(2.60169e-05 -3.79488e-09 6.74031e-07 2.5967e-05 3.67246e-09 2.08407e-05)
(2.54627e-05 -4.41306e-08 3.63048e-07 2.54485e-05 5.90874e-08 2.03091e-05)
(2.52236e-05 -4.91747e-08 6.50036e-08 2.52348e-05 1.01559e-07 2.00857e-05)
(2.52783e-05 -4.85121e-08 -2.26085e-07 2.52946e-05 1.2829e-07 2.0146e-05)
(2.55661e-05 -4.30524e-08 -5.15451e-07 2.55779e-05 1.44529e-07 2.04454e-05)
(2.60554e-05 -3.87671e-08 -8.03569e-07 2.60784e-05 1.54732e-07 2.09639e-05)
(2.68202e-05 -1.98951e-08 -1.09219e-06 2.68371e-05 1.58594e-07 2.17516e-05)
(2.78399e-05 -2.46418e-08 -1.36599e-06 2.76977e-05 1.59963e-07 2.2747e-05)
(2.81607e-05 3.00588e-09 1.34614e-06 2.79876e-05 -3.19186e-07 2.29869e-05)
(2.69236e-05 4.29138e-08 1.0371e-06 2.6847e-05 -2.9722e-07 2.1778e-05)
(2.59911e-05 -2.85539e-08 7.15273e-07 2.59525e-05 -2.65176e-07 2.08627e-05)
(2.54844e-05 -5.089e-08 4.00968e-07 2.54582e-05 -2.30272e-07 2.03452e-05)
(2.52444e-05 -5.29564e-08 9.35649e-08 2.52356e-05 -2.01772e-07 2.01044e-05)
(2.5287e-05 -4.81616e-08 -2.07946e-07 2.52806e-05 -1.82524e-07 2.01465e-05)
(2.55636e-05 -3.81864e-08 -5.05193e-07 2.55558e-05 -1.71511e-07 2.04352e-05)
(2.60551e-05 -2.34569e-08 -7.9831e-07 2.60607e-05 -1.66804e-07 2.09553e-05)
(2.68477e-05 -2.26974e-08 -1.09032e-06 2.6842e-05 -1.64359e-07 2.17634e-05)
(2.78365e-05 2.33121e-08 -1.36364e-06 2.76867e-05 -1.6427e-07 2.27402e-05)
(2.85574e-05 -8.73727e-08 1.3667e-06 2.83832e-05 -5.83247e-07 2.33924e-05)
(2.7237e-05 1.38788e-08 1.0603e-06 2.71715e-05 -5.70478e-07 2.21188e-05)
(2.62403e-05 -4.33612e-08 7.42088e-07 2.62411e-05 -5.48915e-07 2.11614e-05)
(2.57783e-05 -5.38691e-08 4.27362e-07 2.57545e-05 -5.23897e-07 2.06556e-05)
(2.55096e-05 -5.24437e-08 1.13328e-07 2.54918e-05 -5.03511e-07 2.03835e-05)
(2.55465e-05 -4.47454e-08 -1.95809e-07 2.55282e-05 -4.90539e-07 2.04157e-05)
(2.58744e-05 -3.05675e-08 -5.00623e-07 2.58504e-05 -4.84997e-07 2.07385e-05)
(2.63508e-05 -6.36696e-09 -7.97478e-07 2.63568e-05 -4.85659e-07 2.12551e-05)
(2.71806e-05 -1.60952e-08 -1.09179e-06 2.71619e-05 -4.86003e-07 2.20887e-05)
(2.81848e-05 8.75462e-08 -1.37842e-06 2.80849e-05 -4.83437e-07 2.31135e-05)
(2.93305e-05 -7.80071e-09 1.38466e-06 2.9251e-05 -8.61885e-07 2.4182e-05)
(2.77323e-05 -2.72259e-08 1.07306e-06 2.75872e-05 -8.49671e-07 2.26204e-05)
(2.6683e-05 -7.05997e-08 7.63285e-07 2.66737e-05 -8.3305e-07 2.16444e-05)
(2.62652e-05 -6.66506e-08 4.46881e-07 2.62136e-05 -8.14967e-07 2.11647e-05)
(2.60027e-05 -5.51621e-08 1.27331e-07 2.59604e-05 -8.01911e-07 2.08952e-05)
(2.6048e-05 -3.69635e-08 -1.88601e-07 2.59983e-05 -7.9352e-07 2.09288e-05)
(2.63833e-05 -1.44613e-08 -5.009e-07 2.63108e-05 -7.9061e-07 2.12505e-05)
(2.68336e-05 1.47483e-08 -8.02773e-07 2.67907e-05 -7.94447e-07 2.1746e-05)
(2.76898e-05 6.58432e-10 -1.09267e-06 2.7553e-05 -7.98726e-07 2.25801e-05)
(2.89728e-05 -1.42695e-08 -1.3931e-06 2.89433e-05 -8.01408e-07 2.39041e-05)
(3.01138e-05 -4.20186e-07 1.43313e-06 3.08843e-05 -1.14728e-06 2.54681e-05)
(2.81677e-05 -2.06448e-07 1.08903e-06 2.81023e-05 -1.12681e-06 2.32193e-05)
(2.74062e-05 -5.44245e-08 7.77618e-07 2.74749e-05 -1.11577e-06 2.24387e-05)
(2.702e-05 -4.7588e-08 4.55859e-07 2.69736e-05 -1.1069e-06 2.19563e-05)
(2.67697e-05 -4.32341e-08 1.34807e-07 2.67178e-05 -1.09939e-06 2.16896e-05)
(2.68259e-05 -4.33413e-08 -1.82839e-07 2.67674e-05 -1.09437e-06 2.17316e-05)
(2.71861e-05 -3.2145e-08 -4.98918e-07 2.71162e-05 -1.09271e-06 2.20774e-05)
(2.76369e-05 -7.81432e-09 -8.09352e-07 2.76634e-05 -1.09437e-06 2.25983e-05)
(2.81922e-05 1.57455e-07 -1.10325e-06 2.81261e-05 -1.09971e-06 2.32246e-05)
(2.99268e-05 3.98758e-07 -1.43957e-06 3.0703e-05 -1.11639e-06 2.53087e-05)
(3.28188e-05 2.23418e-07 1.55556e-06 3.28346e-05 -1.57391e-06 2.77341e-05)
(3.07881e-05 -4.64763e-07 1.10747e-06 2.98973e-05 -1.46243e-06 2.53682e-05)
(2.87007e-05 -2.17301e-08 7.78975e-07 2.86487e-05 -1.41554e-06 2.36943e-05)
(2.79189e-05 -1.18627e-07 4.56296e-07 2.79353e-05 -1.39798e-06 2.29648e-05)
(2.76135e-05 -5.20804e-08 1.39365e-07 2.76875e-05 -1.37879e-06 2.26649e-05)
(2.76931e-05 -2.57828e-09 -1.78856e-07 2.77706e-05 -1.37532e-06 2.2727e-05)
(2.81483e-05 6.75565e-08 -4.93089e-07 2.81685e-05 -1.38804e-06 2.31404e-05)
(2.90501e-05 -2.58498e-08 -8.07684e-07 2.89866e-05 -1.40034e-06 2.39585e-05)
(3.09025e-05 3.98925e-07 -1.12137e-06 3.0007e-05 -1.44462e-06 2.54325e-05)
(3.29289e-05 -2.398e-07 -1.56013e-06 3.28614e-05 -1.56045e-06 2.77813e-05)
(2.63903e-05 -1.66245e-07 1.56757e-06 2.62048e-05 1.60189e-06 2.3134e-05)
(2.27718e-05 -9.09825e-07 3.71022e-07 2.09115e-05 1.24487e-06 2.05374e-05)
(1.84587e-05 -5.66989e-07 1.39037e-07 1.78708e-05 1.24743e-06 1.63692e-05)
(2.12173e-05 1.56038e-07 7.81358e-08 2.01917e-05 1.28944e-06 1.73963e-05)
(2.16389e-05 6.9314e-08 -6.07633e-08 2.11155e-05 1.29088e-06 1.78347e-05)
(2.09476e-05 3.1968e-08 -2.8797e-07 2.09897e-05 1.29604e-06 1.7518e-05)
(2.12308e-05 -5.31405e-08 -5.18148e-07 2.14075e-05 1.30765e-06 1.78942e-05)
(2.19336e-05 4.24051e-08 -7.62259e-07 2.21482e-05 1.31218e-06 1.86225e-05)
(2.2304e-05 -1.46106e-07 -1.02565e-06 2.22023e-05 1.31193e-06 1.90455e-05)
(2.5361e-05 -2.2999e-07 -1.4113e-06 2.54522e-05 1.41529e-06 2.21249e-05)
(2.06184e-05 -8.39798e-07 1.22115e-06 2.24266e-05 4.3797e-07 2.01979e-05)
(1.74866e-05 -1.00426e-06 5.13961e-07 1.74966e-05 5.74829e-07 1.51922e-05)
(1.97028e-05 4.76207e-07 2.99511e-07 1.94569e-05 8.21873e-07 1.60908e-05)
(2.1269e-05 4.98201e-07 1.47083e-07 2.07378e-05 9.56465e-07 1.72913e-05)
(2.00667e-05 1.6381e-07 -4.85794e-08 1.97773e-05 9.91639e-07 1.63348e-05)
(1.95885e-05 9.60312e-08 -2.79975e-07 1.9491e-05 1.01381e-06 1.60619e-05)
(1.96519e-05 4.11329e-08 -5.24041e-07 1.96044e-05 1.02535e-06 1.6225e-05)
(1.99953e-05 1.70007e-08 -7.77318e-07 2.00385e-05 1.02517e-06 1.66784e-05)
(1.99353e-05 -7.37279e-08 -1.01596e-06 1.99836e-05 1.01484e-06 1.68779e-05)
(2.17343e-05 -1.38972e-07 -1.30264e-06 2.1967e-05 1.02106e-06 1.87304e-05)
(1.7654e-05 -5.2193e-07 1.20489e-06 1.81618e-05 2.04267e-07 1.61193e-05)
(1.9153e-05 4.91363e-07 7.60341e-07 1.9405e-05 3.63913e-07 1.58289e-05)
(2.06211e-05 6.48381e-07 4.73767e-07 2.05939e-05 5.41401e-07 1.68387e-05)
(1.9143e-05 3.30045e-07 2.16994e-07 1.89335e-05 6.38107e-07 1.54299e-05)
(1.86707e-05 1.28695e-07 -1.85878e-08 1.84947e-05 6.85299e-07 1.50253e-05)
(1.84747e-05 4.88036e-08 -2.61145e-07 1.8356e-05 7.13771e-07 1.49263e-05)
(1.86375e-05 9.25386e-09 -5.14473e-07 1.85223e-05 7.30389e-07 1.51518e-05)
(1.90544e-05 -1.48581e-08 -7.71041e-07 1.89625e-05 7.38339e-07 1.56441e-05)
(1.95454e-05 5.54126e-09 -1.01921e-06 1.94309e-05 7.37331e-07 1.62525e-05)
(2.10684e-05 9.9293e-08 -1.29668e-06 2.08588e-05 7.20696e-07 1.77453e-05)
(1.96725e-05 1.63847e-07 1.23765e-06 2.06019e-05 1.17695e-07 1.68915e-05)
(2.02523e-05 5.26529e-07 8.93485e-07 2.07266e-05 1.9111e-07 1.68463e-05)
(1.87346e-05 3.52377e-07 5.72743e-07 1.88512e-05 2.68784e-07 1.5215e-05)
(1.79817e-05 2.14576e-07 2.83919e-07 1.79202e-05 3.39524e-07 1.4413e-05)
(1.77484e-05 1.01733e-07 2.10418e-08 1.76418e-05 3.86027e-07 1.41687e-05)
(1.77301e-05 3.23659e-08 -2.37838e-07 1.76304e-05 4.14628e-07 1.41835e-05)
(1.79695e-05 2.92658e-09 -5.01128e-07 1.78727e-05 4.31675e-07 1.44667e-05)
(1.84045e-05 -2.42412e-08 -7.63001e-07 1.83239e-05 4.4019e-07 1.4975e-05)
(1.90473e-05 -2.05457e-08 -1.02582e-06 1.89663e-05 4.4016e-07 1.57115e-05)
(2.02152e-05 -3.13341e-08 -1.28878e-06 1.998e-05 4.26396e-07 1.68911e-05)
(2.05271e-05 9.9889e-08 1.23801e-06 2.09899e-05 -4.11506e-08 1.7289e-05)
(1.92989e-05 2.11225e-07 9.32945e-07 1.95273e-05 -2.4616e-08 1.58901e-05)
(1.81845e-05 1.70691e-07 6.24775e-07 1.82705e-05 1.31051e-08 1.47144e-05)
(1.75444e-05 1.23635e-07 3.3287e-07 1.75305e-05 5.90532e-08 1.40297e-05)
(1.72791e-05 6.32378e-08 5.45499e-08 1.72134e-05 9.48103e-08 1.37416e-05)
(1.72988e-05 1.50124e-08 -2.17114e-07 1.7215e-05 1.18447e-07 1.37683e-05)
(1.75695e-05 -7.99752e-09 -4.87928e-07 1.74683e-05 1.32987e-07 1.40672e-05)
(1.80559e-05 -2.43793e-08 -7.57583e-07 1.79471e-05 1.40906e-07 1.46068e-05)
(1.88359e-05 -1.95891e-08 -1.02659e-06 1.87153e-05 1.42548e-07 1.54488e-05)
(1.99841e-05 8.4828e-09 -1.27574e-06 1.96913e-05 1.39119e-07 1.65963e-05)
(2.05145e-05 6.95582e-08 1.24321e-06 2.04525e-05 -2.81122e-07 1.70846e-05)
(1.9106e-05 1.44082e-07 9.59261e-07 1.9169e-05 -2.70257e-07 1.57053e-05)
(1.80499e-05 9.13978e-08 6.59561e-07 1.81089e-05 -2.45697e-07 1.46301e-05)
(1.74618e-05 6.22322e-08 3.65772e-07 1.74623e-05 -2.16287e-07 1.39924e-05)
(1.71877e-05 2.77925e-08 8.00429e-08 1.71491e-05 -1.91713e-07 1.36908e-05)
(1.7222e-05 -5.231e-10 -2.00169e-07 1.71559e-05 -1.73617e-07 1.37179e-05)
(1.75131e-05 -1.66657e-08 -4.78277e-07 1.74222e-05 -1.61639e-07 1.40264e-05)
(1.80245e-05 -2.00059e-08 -7.52833e-07 1.79207e-05 -1.55421e-07 1.45828e-05)
(1.88681e-05 -3.17388e-08 -1.02549e-06 1.87373e-05 -1.52515e-07 1.54706e-05)
(2.00338e-05 -1.02071e-08 -1.27371e-06 1.97319e-05 -1.49243e-07 1.66308e-05)
(2.10352e-05 -7.94523e-09 1.25793e-06 2.08528e-05 -5.23066e-07 1.75523e-05)
(1.92848e-05 8.4837e-08 9.7447e-07 1.93259e-05 -5.24919e-07 1.59363e-05)
(1.82514e-05 4.24931e-08 6.80972e-07 1.83349e-05 -5.11579e-07 1.48994e-05)
(1.77122e-05 2.62382e-08 3.88353e-07 1.77336e-05 -4.93284e-07 1.42929e-05)
(1.74094e-05 5.3038e-09 9.8055e-08 1.74006e-05 -4.76358e-07 1.39681e-05)
(1.74447e-05 -1.18091e-08 -1.86943e-07 1.74078e-05 -4.63567e-07 1.39904e-05)
(1.78008e-05 -2.24951e-08 -4.7067e-07 1.77326e-05 -4.5485e-07 1.43415e-05)
(1.83215e-05 -1.5216e-08 -7.49468e-07 1.82541e-05 -4.50032e-07 1.49103e-05)
(1.9118e-05 -2.43971e-08 -1.02269e-06 1.90147e-05 -4.45715e-07 1.57573e-05)
(2.03381e-05 2.98814e-08 -1.28223e-06 2.00807e-05 -4.31167e-07 1.69728e-05)
(2.19343e-05 9.47528e-08 1.26501e-06 2.17206e-05 -7.74923e-07 1.84208e-05)
(1.97239e-05 5.11252e-08 9.75715e-07 1.97047e-05 -7.83943e-07 1.64189e-05)
(1.87295e-05 1.91014e-09 6.94754e-07 1.88118e-05 -7.77524e-07 1.54384e-05)
(1.81964e-05 -1.52923e-08 4.02436e-07 1.8214e-05 -7.66945e-07 1.48388e-05)
(1.78924e-05 -1.75058e-08 1.10601e-07 1.78967e-05 -7.56677e-07 1.45184e-05)
(1.79325e-05 -1.47686e-08 -1.7751e-07 1.7908e-05 -7.47988e-07 1.45409e-05)
(1.83055e-05 -1.28386e-08 -4.65235e-07 1.82328e-05 -7.41823e-07 1.48958e-05)
(1.88682e-05 -1.49311e-08 -7.476e-07 1.87953e-05 -7.3829e-07 1.54924e-05)
(1.96164e-05 -4.0388e-08 -1.01223e-06 1.9461e-05 -7.33204e-07 1.62843e-05)
(2.11622e-05 -1.07322e-07 -1.28459e-06 2.09232e-05 -7.142e-07 1.77922e-05)
(2.19894e-05 -9.72656e-08 1.26866e-06 2.21312e-05 -1.03542e-06 1.88614e-05)
(1.97047e-05 -6.33867e-08 9.74432e-07 1.97102e-05 -1.02673e-06 1.66637e-05)
(1.92684e-05 -2.09228e-09 7.00933e-07 1.93816e-05 -1.03456e-06 1.61108e-05)
(1.88785e-05 -2.90307e-08 4.07083e-07 1.8893e-05 -1.03612e-06 1.56145e-05)
(1.86913e-05 -2.13552e-08 1.17606e-07 1.87024e-05 -1.03284e-06 1.53893e-05)
(1.87372e-05 -2.98892e-08 -1.69928e-07 1.87296e-05 -1.02754e-06 1.54193e-05)
(1.90306e-05 -2.27208e-08 -4.57437e-07 1.89795e-05 -1.02097e-06 1.57113e-05)