/*--------------------------------*- C++ -*----------------------------------*\
| =========                 |                                                 |
| \\      /  F ield         | OpenFOAM: The Open Source CFD Toolbox           |
|  \\    /   O peration     | Version:  2406                                  |
|   \\  /    A nd           | Website:  www.openfoam.com                      |
|    \\/     M anipulation  |                                                 |
\*---------------------------------------------------------------------------*/
FoamFile
{
    version     2.0;
    format      ascii;
    arch        "LSB;label=32;scalar=64";
    class       volScalarField;
    location    "50";
    object      turbulenceProperties:nuEff;
}
// * * * * * * * * * * * * * * * * * * * * * * * * * * * * * * * * * * * * * //

dimensions      [0 2 -1 0 0 0 0];

internalField   nonuniform List<scalar> 
25000
(
1.5888e-05
1.59278e-05
1.5954e-05
1.59671e-05
1.59728e-05
1.59728e-05
1.59672e-05
1.59545e-05
1.59305e-05
1.58871e-05
1.59297e-05
1.59662e-05
1.59876e-05
1.59995e-05
1.60053e-05
1.60054e-05
1.59999e-05
1.59934e-05
1.59674e-05
1.59284e-05
1.5954e-05
1.59927e-05
1.60103e-05
1.60181e-05
1.60236e-05
1.60237e-05
1.60192e-05
1.60108e-05
1.59882e-05
1.59542e-05
1.5967e-05
1.59996e-05
1.60188e-05
1.60296e-05
1.60343e-05
1.60348e-05
1.603e-05
1.60185e-05
1.59998e-05
1.59671e-05
1.59727e-05
1.60053e-05
1.60236e-05
1.60347e-05
1.60414e-05
1.60416e-05
1.60345e-05
1.60238e-05
1.60054e-05
1.59727e-05
1.59728e-05
1.60054e-05
1.60237e-05
1.60344e-05
1.60416e-05
1.60417e-05
1.60345e-05
1.60238e-05
1.60054e-05
1.59727e-05
1.59672e-05
1.59998e-05
1.60185e-05
1.603e-05
1.6035e-05
1.6035e-05
1.603e-05
1.60185e-05
1.59998e-05
1.59671e-05
1.59544e-05
1.59883e-05
1.60109e-05
1.60192e-05
1.60238e-05
1.60238e-05
1.60192e-05
1.60109e-05
1.59883e-05
1.59543e-05
1.59285e-05
1.59674e-05
1.59934e-05
1.6e-05
1.60055e-05
1.60055e-05
1.59999e-05
1.59934e-05
1.59674e-05
1.59284e-05
1.58872e-05
1.59305e-05
1.59545e-05
1.59672e-05
1.59728e-05
1.59728e-05
1.59671e-05
1.59544e-05
1.59305e-05
1.58871e-05
1.55228e-05
1.5649e-05
1.57268e-05
1.57668e-05
1.57843e-05
1.57845e-05
1.57674e-05
1.57293e-05
1.56571e-05
1.55253e-05
1.5654e-05
1.5764e-05
1.58281e-05
1.5864e-05
1.58813e-05
1.58817e-05
1.5866e-05
1.58441e-05
1.57687e-05
1.5652e-05
1.57274e-05
1.58414e-05
1.58952e-05
1.59198e-05
1.59359e-05
1.59365e-05
1.5923e-05
1.58974e-05
1.58309e-05
1.57284e-05
1.57666e-05
1.58646e-05
1.59216e-05
1.59538e-05
1.59679e-05
1.59696e-05
1.5955e-05
1.59212e-05
1.58652e-05
1.57673e-05
1.57841e-05
1.58813e-05
1.5936e-05
1.5969e-05
1.59886e-05
1.59893e-05
1.59687e-05
1.59366e-05
1.58818e-05
1.57843e-05
1.57844e-05
1.58817e-05
1.59364e-05
1.59685e-05
1.59893e-05
1.59896e-05
1.59688e-05
1.59366e-05
1.58818e-05
1.57843e-05
1.57675e-05
1.58653e-05
1.59212e-05
1.5955e-05
1.597e-05
1.597e-05
1.59551e-05
1.59213e-05
1.58653e-05
1.57673e-05
1.57285e-05
1.5831e-05
1.58975e-05
1.59231e-05
1.59368e-05
1.59368e-05
1.59231e-05
1.58974e-05
1.58309e-05
1.57284e-05
1.56521e-05
1.57688e-05
1.58442e-05
1.58661e-05
1.58819e-05
1.58819e-05
1.58661e-05
1.58441e-05
1.57687e-05
1.5652e-05
1.55253e-05
1.56572e-05
1.57293e-05
1.57674e-05
1.57845e-05
1.57844e-05
1.57674e-05
1.57292e-05
1.56571e-05
1.55253e-05
1.51698e-05
1.5379e-05
1.55047e-05
1.55706e-05
1.55995e-05
1.55998e-05
1.55718e-05
1.55088e-05
1.53901e-05
1.51738e-05
1.53864e-05
1.55676e-05
1.56723e-05
1.57308e-05
1.57592e-05
1.57599e-05
1.57347e-05
1.5696e-05
1.55744e-05
1.53828e-05
1.55063e-05
1.56917e-05
1.57815e-05
1.58232e-05
1.58494e-05
1.58504e-05
1.58283e-05
1.5785e-05
1.56766e-05
1.55071e-05
1.55705e-05
1.57324e-05
1.5826e-05
1.58788e-05
1.59024e-05
1.59049e-05
1.58807e-05
1.58255e-05
1.5733e-05
1.55716e-05
1.55994e-05
1.57592e-05
1.58495e-05
1.5904e-05
1.59359e-05
1.5937e-05
1.59037e-05
1.58506e-05
1.57601e-05
1.55998e-05
1.55997e-05
1.57597e-05
1.585e-05
1.59032e-05
1.5937e-05
1.59374e-05
1.59038e-05
1.58506e-05
1.57601e-05
1.55998e-05
1.55717e-05
1.57329e-05
1.58254e-05
1.58807e-05
1.59055e-05
1.59057e-05
1.58809e-05
1.58256e-05
1.5733e-05
1.55715e-05
1.55071e-05
1.56766e-05
1.5785e-05
1.58284e-05
1.58509e-05
1.58509e-05
1.58285e-05
1.5785e-05
1.56766e-05
1.5507e-05
1.53828e-05
1.55744e-05
1.5696e-05
1.57347e-05
1.57602e-05
1.57602e-05
1.57347e-05
1.5696e-05
1.55743e-05
1.53827e-05
1.51734e-05
1.53899e-05
1.55087e-05
1.55716e-05
1.55998e-05
1.55998e-05
1.55716e-05
1.55087e-05
1.539e-05
1.51736e-05
1.48371e-05
1.51204e-05
1.52896e-05
1.53798e-05
1.54196e-05
1.542e-05
1.53813e-05
1.52947e-05
1.51319e-05
1.48394e-05
1.51291e-05
1.53781e-05
1.55208e-05
1.56007e-05
1.56394e-05
1.56402e-05
1.5606e-05
1.55499e-05
1.53851e-05
1.51229e-05
1.52922e-05
1.55449e-05
1.56697e-05
1.57287e-05
1.57641e-05
1.57654e-05
1.5735e-05
1.56738e-05
1.55257e-05
1.52918e-05
1.53797e-05
1.56032e-05
1.57322e-05
1.58049e-05
1.58378e-05
1.58409e-05
1.58072e-05
1.57313e-05
1.56032e-05
1.53807e-05
1.54193e-05
1.56393e-05
1.57643e-05
1.58397e-05
1.58834e-05
1.58847e-05
1.58392e-05
1.57655e-05
1.56404e-05
1.54197e-05
1.54197e-05
1.56399e-05
1.57648e-05
1.58386e-05
1.58845e-05
1.58852e-05
1.58394e-05
1.57656e-05
1.56404e-05
1.54197e-05
1.53808e-05
1.5603e-05
1.57311e-05
1.5807e-05
1.58416e-05
1.58418e-05
1.58074e-05
1.57314e-05
1.56032e-05
1.53806e-05
1.52917e-05
1.55256e-05
1.56737e-05
1.57349e-05
1.5766e-05
1.5766e-05
1.57351e-05
1.56739e-05
1.55256e-05
1.52916e-05
1.51227e-05
1.53849e-05
1.55496e-05
1.56058e-05
1.56405e-05
1.56405e-05
1.56059e-05
1.55497e-05
1.53849e-05
1.51227e-05
1.48386e-05
1.51313e-05
1.52942e-05
1.53808e-05
1.54198e-05
1.54198e-05
1.53809e-05
1.52943e-05
1.51315e-05
1.48389e-05
1.45293e-05
1.48749e-05
1.50833e-05
1.51956e-05
1.52455e-05
1.52458e-05
1.51969e-05
1.50882e-05
1.48845e-05
1.45268e-05
1.48845e-05
1.51963e-05
1.53742e-05
1.54739e-05
1.5522e-05
1.5523e-05
1.548e-05
1.54064e-05
1.52013e-05
1.4874e-05
1.50866e-05
1.5402e-05
1.55603e-05
1.56361e-05
1.56802e-05
1.56817e-05
1.5643e-05
1.55641e-05
1.53784e-05
1.50837e-05
1.51954e-05
1.54772e-05
1.56403e-05
1.57321e-05
1.5774e-05
1.57774e-05
1.57343e-05
1.56386e-05
1.5476e-05
1.51956e-05
1.52448e-05
1.55219e-05
1.56805e-05
1.57762e-05
1.5831e-05
1.58322e-05
1.57753e-05
1.56815e-05
1.55227e-05
1.52448e-05
1.5245e-05
1.55223e-05
1.56807e-05
1.57746e-05
1.5832e-05
1.58327e-05
1.57754e-05
1.56815e-05
1.55227e-05
1.52447e-05
1.51958e-05
1.54758e-05
1.56382e-05
1.5734e-05
1.57779e-05
1.57782e-05
1.57345e-05
1.56386e-05
1.54759e-05
1.51954e-05
1.50836e-05
1.5378e-05
1.55638e-05
1.56427e-05
1.5682e-05
1.56821e-05
1.56429e-05
1.5564e-05
1.53781e-05
1.50832e-05
1.48734e-05
1.52007e-05
1.54056e-05
1.54793e-05
1.55228e-05
1.55229e-05
1.54796e-05
1.54058e-05
1.52008e-05
1.48733e-05
1.45251e-05
1.48829e-05
1.50866e-05
1.51955e-05
1.52446e-05
1.52447e-05
1.51958e-05
1.50869e-05
1.48833e-05
1.45254e-05
1.42433e-05
1.46411e-05
1.4885e-05
1.50175e-05
1.50765e-05
1.50765e-05
1.50179e-05
1.4888e-05
1.46466e-05
1.42338e-05
1.46512e-05
1.50214e-05
1.52321e-05
1.53501e-05
1.54069e-05
1.54078e-05
1.53563e-05
1.5265e-05
1.50223e-05
1.46351e-05
1.48887e-05
1.52626e-05
1.54531e-05
1.55452e-05
1.55975e-05
1.5599e-05
1.55521e-05
1.54556e-05
1.5234e-05
1.48822e-05
1.50171e-05
1.53542e-05
1.555e-05
1.56604e-05
1.57108e-05
1.57143e-05
1.5662e-05
1.55469e-05
1.53511e-05
1.50158e-05
1.50755e-05
1.54067e-05
1.55979e-05
1.57132e-05
1.57787e-05
1.57797e-05
1.57116e-05
1.55983e-05
1.5407e-05
1.50747e-05
1.50754e-05
1.54067e-05
1.55976e-05
1.57111e-05
1.57793e-05
1.57799e-05
1.57117e-05
1.55982e-05
1.54069e-05
1.50746e-05
1.50163e-05
1.53509e-05
1.55465e-05
1.56615e-05
1.57146e-05
1.57148e-05
1.5662e-05
1.55468e-05
1.53509e-05
1.50154e-05
1.48823e-05
1.52337e-05
1.54551e-05
1.55515e-05
1.55989e-05
1.5599e-05
1.55518e-05
1.54552e-05
1.52335e-05
1.48815e-05
1.46347e-05
1.50215e-05
1.52639e-05
1.53552e-05
1.54071e-05
1.54072e-05
1.53555e-05
1.5264e-05
1.50214e-05
1.46341e-05
1.42322e-05
1.46448e-05
1.4886e-05
1.50158e-05
1.50745e-05
1.50746e-05
1.5016e-05
1.48862e-05
1.46448e-05
1.42317e-05
1.3974e-05
1.44172e-05
1.46934e-05
1.48446e-05
1.49119e-05
1.49116e-05
1.48437e-05
1.46942e-05
1.44187e-05
1.39601e-05
1.4428e-05
1.48526e-05
1.50941e-05
1.52292e-05
1.52938e-05
1.52944e-05
1.52347e-05
1.51257e-05
1.48479e-05
1.44064e-05
1.46979e-05
1.51267e-05
1.5348e-05
1.54561e-05
1.55159e-05
1.55171e-05
1.54621e-05
1.53481e-05
1.50925e-05
1.46871e-05
1.48444e-05
1.52341e-05
1.54614e-05
1.55896e-05
1.56483e-05
1.56515e-05
1.55901e-05
1.54562e-05
1.52282e-05
1.48409e-05
1.4911e-05
1.52937e-05
1.55164e-05
1.56509e-05
1.57264e-05
1.57269e-05
1.56482e-05
1.55157e-05
1.52928e-05
1.49089e-05
1.49105e-05
1.52931e-05
1.55154e-05
1.5648e-05
1.57265e-05
1.57269e-05
1.56481e-05
1.55155e-05
1.52927e-05
1.49088e-05
1.48419e-05
1.52282e-05
1.54558e-05
1.55894e-05
1.56514e-05
1.56516e-05
1.55898e-05
1.54559e-05
1.52278e-05
1.48403e-05
1.46875e-05
1.5092e-05
1.53473e-05
1.54611e-05
1.55164e-05
1.55165e-05
1.54614e-05
1.53474e-05
1.50917e-05
1.46861e-05
1.44059e-05
1.48467e-05
1.51242e-05
1.5233e-05
1.5293e-05
1.52931e-05
1.52333e-05
1.51243e-05
1.48465e-05
1.44048e-05
1.39577e-05
1.44162e-05
1.46914e-05
1.48409e-05
1.49086e-05
1.49087e-05
1.48411e-05
1.46916e-05
1.44161e-05
1.39569e-05
1.37185e-05
1.42013e-05
1.45071e-05
1.46758e-05
1.47508e-05
1.47499e-05
1.46732e-05
1.45051e-05
1.41986e-05
1.37021e-05
1.42121e-05
1.46881e-05
1.49592e-05
1.51105e-05
1.51823e-05
1.51824e-05
1.51145e-05
1.49878e-05
1.4677e-05
1.41862e-05
1.45119e-05
1.49932e-05
1.52446e-05
1.53683e-05
1.54352e-05
1.54359e-05
1.53728e-05
1.52412e-05
1.49531e-05
1.44972e-05
1.46754e-05
1.51161e-05
1.5374e-05
1.55196e-05
1.55863e-05
1.5589e-05
1.55185e-05
1.53661e-05
1.5107e-05
1.46699e-05
1.47497e-05
1.51822e-05
1.54358e-05
1.5589e-05
1.56742e-05
1.56741e-05
1.5585e-05
1.54336e-05
1.51801e-05
1.47468e-05
1.47487e-05
1.51807e-05
1.54339e-05
1.55852e-05
1.56736e-05
1.56736e-05
1.55847e-05
1.54334e-05
1.51799e-05
1.47467e-05
1.46709e-05
1.5107e-05
1.53658e-05
1.55177e-05
1.55883e-05
1.55884e-05
1.55178e-05
1.53657e-05
1.51065e-05
1.46694e-05
1.44974e-05
1.49525e-05
1.52403e-05
1.53714e-05
1.54345e-05
1.54346e-05
1.53717e-05
1.52404e-05
1.49522e-05
1.44962e-05
1.41854e-05
1.46757e-05
1.49861e-05
1.51124e-05
1.51803e-05
1.51805e-05
1.51128e-05
1.49863e-05
1.46755e-05
1.41846e-05
1.36993e-05
1.41961e-05
1.45021e-05
1.467e-05
1.47464e-05
1.47465e-05
1.46703e-05
1.45025e-05
1.41962e-05
1.36992e-05
1.34792e-05
1.39941e-05
1.43265e-05
1.45112e-05
1.45933e-05
1.45919e-05
1.45069e-05
1.43218e-05
1.39884e-05
1.34626e-05
1.40051e-05
1.45278e-05
1.48273e-05
1.49939e-05
1.50725e-05
1.50719e-05
1.49959e-05
1.48519e-05
1.45103e-05
1.3976e-05
1.43316e-05
1.48622e-05
1.51429e-05
1.52819e-05
1.53554e-05
1.53553e-05
1.52841e-05
1.51353e-05
1.4816e-05
1.43132e-05
1.45108e-05
1.50002e-05
1.52879e-05
1.54504e-05
1.55248e-05
1.55268e-05
1.54472e-05
1.52768e-05
1.49874e-05
1.45033e-05
1.45923e-05
1.50724e-05
1.5356e-05
1.55275e-05
1.5622e-05
1.56211e-05
1.55219e-05
1.53521e-05
1.50687e-05
1.45885e-05
1.45907e-05
1.507e-05
1.53531e-05
1.55228e-05
1.56206e-05
1.56201e-05
1.55214e-05
1.53518e-05
1.50684e-05
1.45883e-05
1.45044e-05
1.49875e-05
1.52766e-05
1.54463e-05
1.55254e-05
1.55254e-05
1.54462e-05
1.52762e-05
1.49868e-05
1.45027e-05
1.43134e-05
1.48154e-05
1.51343e-05
1.52824e-05
1.53531e-05
1.53532e-05
1.52826e-05
1.51343e-05
1.4815e-05
1.43122e-05
1.39749e-05
1.45088e-05
1.48499e-05
1.49935e-05
1.5069e-05
1.50691e-05
1.49938e-05
1.48501e-05
1.45087e-05
1.39743e-05
1.34594e-05
1.39857e-05
1.43186e-05
1.45035e-05
1.4588e-05
1.45881e-05
1.45038e-05
1.4319e-05
1.3986e-05
1.34599e-05
1.32576e-05
1.37949e-05
1.41504e-05
1.435e-05
1.44391e-05
1.44373e-05
1.43445e-05
1.41438e-05
1.37874e-05
1.32421e-05
1.38058e-05
1.43701e-05
1.46971e-05
1.48788e-05
1.49638e-05
1.49625e-05
1.48787e-05
1.47176e-05
1.43475e-05
1.37754e-05
1.41559e-05
1.47325e-05
1.50419e-05
1.51962e-05
1.52761e-05
1.52753e-05
1.5196e-05
1.50301e-05
1.46811e-05
1.4135e-05
1.435e-05
1.48857e-05
1.52026e-05
1.53817e-05
1.54635e-05
1.54648e-05
1.53762e-05
1.51882e-05
1.48694e-05
1.4341e-05
1.44383e-05
1.4964e-05
1.5277e-05
1.54664e-05
1.55699e-05
1.55681e-05
1.5459e-05
1.52711e-05
1.49586e-05
1.44339e-05
1.44364e-05
1.49607e-05
1.5273e-05
1.54607e-05
1.55677e-05
1.55666e-05
1.54584e-05
1.52707e-05
1.49584e-05
1.44337e-05
1.43423e-05
1.48699e-05
1.51883e-05
1.53755e-05
1.54628e-05
1.54625e-05
1.53749e-05
1.51875e-05
1.48688e-05
1.43404e-05
1.41357e-05
1.46808e-05
1.50293e-05
1.51942e-05
1.52724e-05
1.52724e-05
1.51942e-05
1.5029e-05
1.46802e-05
1.41341e-05
1.37751e-05
1.43464e-05
1.47159e-05
1.48763e-05
1.49592e-05
1.49593e-05
1.48765e-05
1.47159e-05
1.43461e-05
1.37739e-05
1.32403e-05
1.37858e-05
1.41413e-05
1.43415e-05
1.44335e-05
1.44336e-05
1.43417e-05
1.41415e-05
1.37857e-05
1.32401e-05
1.30578e-05
1.36049e-05
1.39793e-05
1.41927e-05
1.42884e-05
1.42865e-05
1.41869e-05
1.39725e-05
1.35979e-05
1.3045e-05
1.36162e-05
1.42152e-05
1.45683e-05
1.47649e-05
1.48563e-05
1.48545e-05
1.47631e-05
1.45855e-05
1.41894e-05
1.35864e-05
1.39859e-05
1.46042e-05
1.49415e-05
1.5111e-05
1.51974e-05
1.51958e-05
1.51086e-05
1.49261e-05
1.45489e-05
1.39638e-05
1.41936e-05
1.47727e-05
1.51179e-05
1.53132e-05
1.54024e-05
1.54029e-05
1.53056e-05
1.51004e-05
1.47533e-05
1.41837e-05
1.42883e-05
1.4857e-05
1.51986e-05
1.54055e-05
1.55176e-05
1.55151e-05
1.53964e-05
1.51908e-05
1.48501e-05
1.42837e-05
1.42862e-05
1.48529e-05
1.51937e-05
1.5399e-05
1.55148e-05
1.55131e-05
1.53956e-05
1.51904e-05
1.48499e-05
1.42835e-05
1.41851e-05
1.47541e-05
1.51009e-05
1.53051e-05
1.54005e-05
1.54e-05
1.5304e-05
1.50996e-05
1.47527e-05
1.41833e-05
1.39648e-05
1.45489e-05
1.49255e-05
1.51069e-05
1.51925e-05
1.51924e-05
1.51067e-05
1.4925e-05
1.45481e-05
1.39632e-05
1.35868e-05
1.41889e-05
1.45843e-05
1.4761e-05
1.48511e-05
1.48511e-05
1.4761e-05
1.45841e-05
1.41884e-05
1.35853e-05
1.30448e-05
1.35974e-05
1.39709e-05
1.41847e-05
1.42835e-05
1.42835e-05
1.41848e-05
1.39709e-05
1.35971e-05
1.3044e-05
1.28856e-05
1.34261e-05
1.38143e-05
1.40399e-05
1.41419e-05
1.41401e-05
1.40346e-05
1.38086e-05
1.34211e-05
1.28764e-05
1.34374e-05
1.4063e-05
1.44406e-05
1.46519e-05
1.475e-05
1.47478e-05
1.46492e-05
1.4456e-05
1.40364e-05
1.34101e-05
1.38216e-05
1.44768e-05
1.48412e-05
1.50259e-05
1.5119e-05
1.51169e-05
1.5022e-05
1.48233e-05
1.44194e-05
1.37999e-05
1.40414e-05
1.46606e-05
1.50333e-05
1.52447e-05
1.53414e-05
1.53412e-05
1.52355e-05
1.50135e-05
1.46391e-05
1.40318e-05
1.41421e-05
1.47512e-05
1.51206e-05
1.53447e-05
1.54653e-05
1.5462e-05
1.53341e-05
1.51113e-05
1.47433e-05
1.41381e-05
1.414e-05
1.47464e-05
1.51149e-05
1.53375e-05
1.54619e-05
1.54597e-05
1.53333e-05
1.51109e-05
1.47431e-05
1.4138e-05
1.40328e-05
1.46401e-05
1.50143e-05
1.52352e-05
1.53386e-05
1.5338e-05
1.52338e-05
1.50128e-05
1.46387e-05
1.40316e-05
1.38009e-05
1.44196e-05
1.48229e-05
1.50205e-05
1.51134e-05
1.51132e-05
1.50202e-05
1.48224e-05
1.4419e-05
1.37998e-05
1.34109e-05
1.40365e-05
1.44553e-05
1.46476e-05
1.47447e-05
1.47447e-05
1.46476e-05
1.44552e-05
1.40361e-05
1.34099e-05
1.28775e-05
1.34219e-05
1.3808e-05
1.40334e-05
1.41382e-05
1.41382e-05
1.40335e-05
1.3808e-05
1.34215e-05
1.28768e-05
1.27498e-05
1.32612e-05
1.36563e-05
1.38922e-05
1.39999e-05
1.39985e-05
1.38879e-05
1.36528e-05
1.32594e-05
1.27445e-05
1.32725e-05
1.39142e-05
1.4314e-05
1.45399e-05
1.46447e-05
1.46424e-05
1.4537e-05
1.43291e-05
1.38891e-05
1.32489e-05
1.36645e-05
1.43505e-05
1.47408e-05
1.49409e-05
1.50408e-05
1.50384e-05
1.49362e-05
1.47217e-05
1.4293e-05
1.36445e-05
1.38945e-05
1.45495e-05
1.49488e-05
1.51761e-05
1.52802e-05
1.52797e-05
1.51658e-05
1.49277e-05
1.45271e-05
1.38858e-05
1.40007e-05
1.46466e-05
1.50429e-05
1.52838e-05
1.54127e-05
1.5409e-05
1.52723e-05
1.50326e-05
1.46383e-05
1.39977e-05
1.39986e-05
1.46414e-05
1.50367e-05
1.52763e-05
1.54091e-05
1.54066e-05
1.52715e-05
1.50323e-05
1.46382e-05
1.39976e-05
1.38863e-05
1.4528e-05
1.49286e-05
1.51659e-05
1.52772e-05
1.52764e-05
1.51643e-05
1.49271e-05
1.45269e-05
1.3886e-05
1.36453e-05
1.42933e-05
1.47217e-05
1.49352e-05
1.50352e-05
1.5035e-05
1.49348e-05
1.47213e-05
1.4293e-05
1.3645e-05
1.325e-05
1.38898e-05
1.43292e-05
1.45363e-05
1.46401e-05
1.464e-05
1.45363e-05
1.43291e-05
1.38896e-05
1.32496e-05
1.27465e-05
1.32613e-05
1.36533e-05
1.3888e-05
1.3998e-05
1.3998e-05
1.38881e-05
1.36535e-05
1.32611e-05
1.27461e-05
1.26671e-05
1.3115e-05
1.35073e-05
1.37504e-05
1.38631e-05
1.38621e-05
1.37476e-05
1.35064e-05
1.31164e-05
1.26651e-05
1.31259e-05
1.37702e-05
1.41891e-05
1.4429e-05
1.45407e-05
1.45386e-05
1.44269e-05
1.42051e-05
1.3748e-05
1.31061e-05
1.35163e-05
1.42257e-05
1.46406e-05
1.4856e-05
1.49628e-05
1.49605e-05
1.48512e-05
1.46216e-05
1.41695e-05
1.34983e-05
1.37537e-05
1.44397e-05
1.48644e-05
1.51074e-05
1.5219e-05
1.52183e-05
1.50966e-05
1.48427e-05
1.44171e-05
1.37461e-05
1.38645e-05
1.45432e-05
1.49656e-05
1.52229e-05
1.53599e-05
1.5356e-05
1.52109e-05
1.49548e-05
1.4535e-05
1.38623e-05
1.38626e-05
1.45379e-05
1.49591e-05
1.52153e-05
1.53564e-05
1.53537e-05
1.52101e-05
1.49545e-05
1.4535e-05
1.38624e-05
1.37461e-05
1.44179e-05
1.48439e-05
1.50972e-05
1.52162e-05
1.52153e-05
1.50954e-05
1.48423e-05
1.44171e-05
1.37465e-05
1.3499e-05
1.41701e-05
1.46219e-05
1.48508e-05
1.49578e-05
1.49576e-05
1.48503e-05
1.46216e-05
1.417e-05
1.34994e-05
1.31076e-05
1.37493e-05
1.4206e-05
1.44271e-05
1.45372e-05
1.45372e-05
1.4427e-05
1.4206e-05
1.37492e-05
1.31077e-05
1.26675e-05
1.31192e-05
1.35079e-05
1.37489e-05
1.38631e-05
1.38631e-05
1.3749e-05
1.35081e-05
1.31189e-05
1.26674e-05
1.26619e-05
1.29944e-05
1.33698e-05
1.36161e-05
1.37324e-05
1.37319e-05
1.36147e-05
1.33716e-05
1.29985e-05
1.26625e-05
1.30049e-05
1.36331e-05
1.40667e-05
1.43197e-05
1.44382e-05
1.44365e-05
1.43189e-05
1.40847e-05
1.36145e-05
1.29883e-05
1.33797e-05
1.41035e-05
1.45408e-05
1.47712e-05
1.48852e-05
1.48831e-05
1.47672e-05
1.45229e-05
1.40496e-05
1.33637e-05
1.36203e-05
1.43314e-05
1.47802e-05
1.50385e-05
1.51577e-05
1.51571e-05
1.5028e-05
1.47588e-05
1.43094e-05
1.36137e-05
1.37346e-05
1.44415e-05
1.48886e-05
1.51619e-05
1.5307e-05
1.5303e-05
1.51499e-05
1.48778e-05
1.44335e-05
1.37331e-05
1.37329e-05
1.44362e-05
1.48822e-05
1.51545e-05
1.53038e-05
1.5301e-05
1.51492e-05
1.48776e-05
1.44336e-05
1.37332e-05
1.36134e-05
1.43101e-05
1.47601e-05
1.5029e-05
1.51556e-05
1.51547e-05
1.50272e-05
1.47587e-05
1.43096e-05
1.36144e-05
1.33642e-05
1.40503e-05
1.45236e-05
1.47673e-05
1.48813e-05
1.4881e-05
1.47669e-05
1.45234e-05
1.40505e-05
1.33652e-05
1.29899e-05
1.36161e-05
1.40861e-05
1.43199e-05
1.44362e-05
1.44361e-05
1.43199e-05
1.40862e-05
1.36163e-05
1.29904e-05
1.26649e-05
1.30017e-05
1.33738e-05
1.3617e-05
1.37341e-05
1.37341e-05
1.36171e-05
1.3374e-05
1.30015e-05
1.26648e-05
1.27788e-05
1.29085e-05
1.32469e-05
1.34902e-05
1.36085e-05
1.36084e-05
1.34902e-05
1.32511e-05
1.2915e-05
1.27812e-05
1.29181e-05
1.35042e-05
1.3947e-05
1.42119e-05
1.4337e-05
1.43359e-05
1.4213e-05
1.39677e-05
1.34898e-05
1.29042e-05
1.32571e-05
1.39838e-05
1.44414e-05
1.46866e-05
1.48079e-05
1.48063e-05
1.4684e-05
1.44258e-05
1.39333e-05
1.32432e-05
1.34953e-05
1.42245e-05
1.46961e-05
1.49696e-05
1.50963e-05
1.5096e-05
1.49599e-05
1.46758e-05
1.42038e-05
1.34898e-05
1.36115e-05
1.43411e-05
1.48119e-05
1.51009e-05
1.52539e-05
1.52501e-05
1.50893e-05
1.48016e-05
1.43338e-05
1.36106e-05
1.361e-05
1.43361e-05
1.48059e-05
1.5094e-05
1.52512e-05
1.52485e-05
1.50889e-05
1.48016e-05
1.43339e-05
1.36109e-05
1.34892e-05
1.42044e-05
1.46773e-05
1.49613e-05
1.50955e-05
1.50945e-05
1.49596e-05
1.4676e-05
1.42043e-05
1.34907e-05
1.32437e-05
1.39341e-05
1.44269e-05
1.46849e-05
1.48056e-05
1.48053e-05
1.46845e-05
1.44268e-05
1.39346e-05
1.32451e-05
1.29061e-05
1.34918e-05
1.39698e-05
1.4215e-05
1.4337e-05
1.43369e-05
1.42149e-05
1.39699e-05
1.34922e-05
1.29069e-05
1.27831e-05
1.29179e-05
1.32539e-05
1.34936e-05
1.36121e-05
1.3612e-05
1.34937e-05
1.3254e-05
1.29177e-05
1.2783e-05
1.30911e-05
1.28752e-05
1.31448e-05
1.33762e-05
1.34938e-05
1.34941e-05
1.33775e-05
1.31508e-05
1.2883e-05
1.30937e-05
1.28835e-05
1.33884e-05
1.38322e-05
1.41068e-05
1.4238e-05
1.42377e-05
1.411e-05
1.38557e-05
1.33778e-05
1.28717e-05
1.31551e-05
1.38689e-05
1.43437e-05
1.46029e-05
1.47313e-05
1.47304e-05
1.4602e-05
1.43306e-05
1.38218e-05
1.31427e-05
1.33821e-05
1.41203e-05
1.46128e-05
1.49009e-05
1.50351e-05
1.50353e-05
1.48924e-05
1.4594e-05
1.41009e-05
1.33771e-05
1.34974e-05
1.42428e-05
1.47359e-05
1.504e-05
1.52008e-05
1.51972e-05
1.5029e-05
1.47263e-05
1.42362e-05
1.34967e-05
1.3496e-05
1.42382e-05
1.47303e-05
1.50337e-05
1.51988e-05
1.51962e-05
1.50289e-05
1.47264e-05
1.42363e-05
1.3497e-05
1.33766e-05
1.41015e-05
1.45955e-05
1.48942e-05
1.50356e-05
1.50348e-05
1.48926e-05
1.45944e-05
1.41016e-05
1.3378e-05
1.31431e-05
1.38225e-05
1.43319e-05
1.46034e-05
1.47307e-05
1.47304e-05
1.4603e-05
1.43318e-05
1.38232e-05
1.31446e-05
1.28735e-05
1.33796e-05
1.38579e-05
1.41125e-05
1.42396e-05
1.42396e-05
1.41125e-05
1.3858e-05
1.33801e-05
1.28746e-05
1.30983e-05
1.28856e-05
1.31536e-05
1.33813e-05
1.34984e-05
1.34983e-05
1.33812e-05
1.31536e-05
1.28851e-05
1.3097e-05
1.37206e-05
1.29149e-05
1.30698e-05
1.3277e-05
1.33901e-05
1.33907e-05
1.32793e-05
1.30775e-05
1.29227e-05
1.37102e-05
1.2922e-05
1.32878e-05
1.37221e-05
1.4004e-05
1.41408e-05
1.41413e-05
1.40095e-05
1.37485e-05
1.3281e-05
1.29104e-05
1.30797e-05
1.37584e-05
1.4247e-05
1.45197e-05
1.46551e-05
1.4655e-05
1.45209e-05
1.42371e-05
1.37153e-05
1.30688e-05
1.32831e-05
1.40181e-05
1.453e-05
1.48323e-05
1.4974e-05
1.49748e-05
1.48253e-05
1.45131e-05
1.40008e-05
1.32789e-05
1.3394e-05
1.41462e-05
1.46602e-05
1.49792e-05
1.51476e-05
1.51445e-05
1.49692e-05
1.46518e-05
1.41406e-05
1.33936e-05
1.33928e-05
1.41421e-05
1.46554e-05
1.49736e-05
1.51464e-05
1.51441e-05
1.49693e-05
1.4652e-05
1.41408e-05
1.33938e-05
1.32784e-05
1.40012e-05
1.45148e-05
1.48276e-05
1.49762e-05
1.49754e-05
1.48261e-05
1.45139e-05
1.40015e-05
1.32798e-05
1.30694e-05
1.37161e-05
1.42386e-05
1.4523e-05
1.46566e-05
1.46563e-05
1.45226e-05
1.42386e-05
1.37167e-05
1.30707e-05
1.29126e-05
1.32829e-05
1.37511e-05
1.40127e-05
1.41444e-05
1.41443e-05
1.40125e-05
1.3751e-05
1.32832e-05
1.29135e-05
1.37192e-05
1.29247e-05
1.308e-05
1.32833e-05
1.33954e-05
1.33952e-05
1.3283e-05
1.30796e-05
1.2924e-05
1.3718e-05
1.4867e-05
1.30674e-05
1.30353e-05
1.31987e-05
1.33016e-05
1.33024e-05
1.32017e-05
1.30434e-05
1.30714e-05
1.48243e-05
1.30716e-05
1.32115e-05
1.36202e-05
1.39056e-05
1.40469e-05
1.4048e-05
1.3913e-05
1.36488e-05
1.3207e-05
1.30585e-05
1.30439e-05
1.36563e-05
1.41534e-05
1.44381e-05
1.45802e-05
1.45809e-05
1.44412e-05
1.4146e-05
1.3616e-05
1.30339e-05
1.32045e-05
1.392e-05
1.44486e-05
1.47646e-05
1.49135e-05
1.49148e-05
1.4759e-05
1.44335e-05
1.3904e-05
1.32006e-05
1.33053e-05
1.40524e-05
1.45856e-05
1.49188e-05
1.50946e-05
1.5092e-05
1.49098e-05
1.45781e-05
1.40474e-05
1.33048e-05
1.33042e-05
1.40488e-05
1.45813e-05
1.49139e-05
1.5094e-05
1.50921e-05
1.49101e-05
1.45784e-05
1.40476e-05
1.33049e-05
1.32002e-05
1.39044e-05
1.44351e-05
1.47614e-05
1.4917e-05
1.49163e-05
1.47601e-05
1.44343e-05
1.39047e-05
1.32013e-05
1.30345e-05
1.36166e-05
1.41474e-05
1.44434e-05
1.45831e-05
1.45829e-05
1.44431e-05
1.41473e-05
1.36171e-05
1.30358e-05
1.30611e-05
1.32083e-05
1.3651e-05
1.3916e-05
1.40513e-05
1.40512e-05
1.39157e-05
1.36508e-05
1.32085e-05
1.30627e-05
1.48486e-05
1.30748e-05
1.30453e-05
1.3205e-05
1.33065e-05
1.33063e-05
1.32046e-05
1.30447e-05
1.30733e-05
1.48437e-05
1.69015e-05
1.33966e-05
1.30583e-05
1.31494e-05
1.32332e-05
1.32342e-05
1.31527e-05
1.30654e-05
1.33889e-05
1.67719e-05
1.33953e-05
1.31667e-05
1.35269e-05
1.38107e-05
1.39551e-05
1.3957e-05
1.38199e-05
1.35574e-05
1.31634e-05
1.33714e-05
1.30645e-05
1.35626e-05
1.40619e-05
1.43577e-05
1.45061e-05
1.45074e-05
1.43625e-05
1.40571e-05
1.35255e-05
1.30536e-05
1.3154e-05
1.38255e-05
1.43682e-05
1.46973e-05
1.48532e-05
1.48551e-05
1.46932e-05
1.4355e-05
1.38113e-05
1.31502e-05
1.32363e-05
1.3961e-05
1.45117e-05
1.48587e-05
1.50416e-05
1.50396e-05
1.48507e-05
1.45053e-05
1.3957e-05
1.32357e-05
1.32353e-05
1.39578e-05
1.4508e-05
1.48545e-05
1.50418e-05
1.50403e-05
1.48513e-05
1.45057e-05
1.39572e-05
1.32359e-05
1.31503e-05
1.38113e-05
1.43564e-05
1.46958e-05
1.48581e-05
1.48575e-05
1.46947e-05
1.4356e-05
1.38118e-05
1.3151e-05
1.30552e-05
1.35256e-05
1.40584e-05
1.43649e-05
1.45105e-05
1.45103e-05
1.43647e-05
1.40584e-05
1.35263e-05
1.30559e-05
1.33773e-05
1.31647e-05
1.35594e-05
1.38229e-05
1.39607e-05
1.39606e-05
1.38227e-05
1.35593e-05
1.31648e-05
1.33779e-05
1.68261e-05
1.33932e-05
1.3066e-05
1.31548e-05
1.32373e-05
1.32371e-05
1.31543e-05
1.30652e-05
1.33899e-05
1.68085e-05
2.02216e-05
1.39957e-05
1.31645e-05
1.31404e-05
1.31938e-05
1.31946e-05
1.31432e-05
1.31684e-05
1.39704e-05
2.00253e-05
1.39882e-05
1.31704e-05
1.34477e-05
1.37222e-05
1.38675e-05
1.38698e-05
1.37321e-05
1.34785e-05
1.31652e-05
1.39464e-05
1.31676e-05
1.34826e-05
1.39746e-05
1.42793e-05
1.44334e-05
1.44352e-05
1.42853e-05
1.39712e-05
1.34472e-05
1.31536e-05
1.31434e-05
1.37364e-05
1.42898e-05
1.46312e-05
1.47937e-05
1.4796e-05
1.4628e-05
1.42777e-05
1.37235e-05
1.31388e-05
1.31956e-05
1.38729e-05
1.44389e-05
1.47992e-05
1.49891e-05
1.49874e-05
1.4792e-05
1.44333e-05
1.38697e-05
1.31946e-05
1.31948e-05
1.387e-05
1.44356e-05
1.47955e-05
1.49898e-05
1.49885e-05
1.47927e-05
1.44338e-05
1.38699e-05
1.31947e-05
1.314e-05
1.37229e-05
1.42789e-05
1.46305e-05
1.47994e-05
1.4799e-05
1.46297e-05
1.42787e-05
1.37238e-05
1.31398e-05
1.3158e-05
1.34466e-05
1.39721e-05
1.42875e-05
1.44384e-05
1.44383e-05
1.42873e-05
1.39723e-05
1.34475e-05
1.31576e-05
1.39616e-05
1.31668e-05
1.348e-05
1.37347e-05
1.38731e-05
1.3873e-05
1.37345e-05
1.34799e-05
1.31663e-05
1.39586e-05
2.01095e-05
1.39782e-05
1.31688e-05
1.31441e-05
1.31964e-05
1.31962e-05
1.31435e-05
1.3167e-05
1.39707e-05
2.00718e-05
2.51434e-05
1.50124e-05
1.33978e-05
1.31906e-05
1.31956e-05
1.31962e-05
1.31921e-05
1.33963e-05
1.49745e-05
2.49303e-05
1.49944e-05
1.32431e-05
1.33867e-05
1.36409e-05
1.37843e-05
1.37867e-05
1.36509e-05
1.34166e-05
1.32343e-05
1.49373e-05
1.33948e-05
1.34211e-05
1.3892e-05
1.42031e-05
1.43621e-05
1.43641e-05
1.42094e-05
1.38889e-05
1.33858e-05
1.33752e-05
1.31908e-05
1.3655e-05
1.42134e-05
1.45661e-05
1.47349e-05
1.47374e-05
1.45633e-05
1.42017e-05
1.36423e-05
1.31842e-05
1.31957e-05
1.37898e-05
1.43675e-05
1.47404e-05
1.49368e-05
1.49354e-05
1.47335e-05
1.43621e-05
1.37866e-05
1.31936e-05
1.31948e-05
1.37871e-05
1.43644e-05
1.47369e-05
1.49379e-05
1.49367e-05
1.47343e-05
1.43626e-05
1.37867e-05
1.3194e-05
1.3187e-05
1.36419e-05
1.4203e-05
1.45659e-05
1.4741e-05
1.47406e-05
1.45651e-05
1.42027e-05
1.36424e-05
1.31861e-05
1.33829e-05
1.33856e-05
1.38897e-05
1.42114e-05
1.43672e-05
1.43671e-05
1.42112e-05
1.38897e-05
1.33859e-05
1.3382e-05
1.49614e-05
1.32372e-05
1.34183e-05
1.3653e-05
1.37896e-05
1.37894e-05
1.36526e-05
1.34177e-05
1.32356e-05
1.49591e-05
2.50153e-05
1.49807e-05
1.33951e-05
1.31915e-05
1.31965e-05
1.31963e-05
1.31908e-05
1.33924e-05
1.49723e-05
2.49806e-05
3.17744e-05
1.66315e-05
1.38268e-05
1.33311e-05
1.32576e-05
1.32577e-05
1.33304e-05
1.38181e-05
1.65754e-05
3.15839e-05
1.65918e-05
1.34112e-05
1.33508e-05
1.35689e-05
1.37064e-05
1.37087e-05
1.35783e-05
1.33789e-05
1.33965e-05
1.65148e-05
1.38121e-05
1.33846e-05
1.38144e-05
1.41288e-05
1.42918e-05
1.42938e-05
1.41349e-05
1.3811e-05
1.33481e-05
1.37854e-05
1.33257e-05
1.3583e-05
1.4139e-05
1.45021e-05
1.46768e-05
1.46793e-05
1.44992e-05
1.41272e-05
1.35697e-05
1.33165e-05
1.32542e-05
1.37123e-05
1.42973e-05
1.46822e-05
1.48849e-05
1.48836e-05
1.46753e-05
1.42917e-05
1.37085e-05
1.32517e-05
1.32532e-05
1.37097e-05
1.42943e-05
1.46789e-05
1.48861e-05
1.48851e-05
1.46762e-05
1.42922e-05
1.37086e-05
1.32525e-05
1.33208e-05
1.357e-05
1.41289e-05
1.4502e-05
1.4683e-05
1.46826e-05
1.4501e-05
1.4128e-05
1.35697e-05
1.33202e-05
1.37961e-05
1.33489e-05
1.38123e-05
1.41371e-05
1.4297e-05
1.42968e-05
1.41365e-05
1.38117e-05
1.33482e-05
1.37974e-05
1.65436e-05
1.33999e-05
1.33811e-05
1.35807e-05
1.37115e-05
1.37113e-05
1.35799e-05
1.33799e-05
1.3398e-05
1.65474e-05
3.16284e-05
1.65634e-05
1.38107e-05
1.33267e-05
1.32564e-05
1.32562e-05
1.33262e-05
1.38085e-05
1.65588e-05
3.16122e-05
3.99164e-05
1.93619e-05
1.4542e-05
1.35975e-05
1.34064e-05
1.34051e-05
1.35923e-05
1.45252e-05
1.93136e-05
3.98349e-05
1.92907e-05
1.37282e-05
1.33528e-05
1.35127e-05
1.36384e-05
1.36402e-05
1.35205e-05
1.33776e-05
1.37091e-05
1.92245e-05
1.45104e-05
1.3385e-05
1.37453e-05
1.40579e-05
1.42238e-05
1.42254e-05
1.40629e-05
1.374e-05
1.33453e-05
1.44834e-05
1.35854e-05
1.35254e-05
1.40676e-05
1.44395e-05
1.46197e-05
1.46219e-05
1.44359e-05
1.40546e-05
1.351e-05
1.35754e-05
1.33998e-05
1.36434e-05
1.42289e-05
1.46249e-05
1.48336e-05
1.48321e-05
1.46175e-05
1.42222e-05
1.36379e-05
1.33977e-05
1.33981e-05
1.36405e-05
1.42256e-05
1.46213e-05
1.48346e-05
1.48334e-05
1.46182e-05
1.42226e-05
1.3638e-05
1.33988e-05
1.35791e-05
1.35116e-05
1.40567e-05
1.44387e-05
1.46252e-05
1.46246e-05
1.44373e-05
1.40552e-05
1.35101e-05
1.35814e-05
1.44966e-05
1.3347e-05
1.37414e-05
1.40646e-05
1.42277e-05
1.42274e-05
1.40638e-05
1.37402e-05
1.33458e-05
1.45023e-05
1.92696e-05
1.37121e-05
1.33789e-05
1.35214e-05
1.36413e-05
1.36411e-05
1.35205e-05
1.33776e-05
1.37104e-05
1.92685e-05
3.98723e-05
1.92843e-05
1.45158e-05
1.35887e-05
1.34039e-05
1.34036e-05
1.35875e-05
1.4511e-05
1.92711e-05
3.9815e-05
4.92816e-05
2.3468e-05
1.57092e-05
1.40628e-05
1.369e-05
1.36879e-05
1.40545e-05
1.56891e-05
2.34857e-05
4.93764e-05
2.33836e-05
1.42689e-05
1.34053e-05
1.34746e-05
1.35809e-05
1.35821e-05
1.34803e-05
1.34266e-05
1.42485e-05
2.33623e-05
1.56661e-05
1.34352e-05
1.36841e-05
1.39891e-05
1.41568e-05
1.4158e-05
1.39929e-05
1.3677e-05
1.33925e-05
1.56306e-05
1.40458e-05
1.34854e-05
1.39983e-05
1.43777e-05
1.4563e-05
1.45649e-05
1.43732e-05
1.39842e-05
1.34684e-05
1.403e-05
1.36811e-05
1.35847e-05
1.41614e-05
1.4568e-05
1.47825e-05
1.47808e-05
1.456e-05
1.4154e-05
1.35783e-05