/*--------------------------------*- C++ -*----------------------------------*\
| =========                 |                                                 |
| \\      /  F ield         | OpenFOAM: The Open Source CFD Toolbox           |
|  \\    /   O peration     | Version:  2406                                  |
|   \\  /    A nd           | Website:  www.openfoam.com                      |
|    \\/     M anipulation  |                                                 |
\*---------------------------------------------------------------------------*/
FoamFile
{
    version     2.0;
    format      ascii;
    arch        "LSB;label=32;scalar=64";
    class       volScalarField;
    location    "50";
    object      turbulenceProperties:k;
}
// * * * * * * * * * * * * * * * * * * * * * * * * * * * * * * * * * * * * * //

dimensions      [0 2 -2 0 0 0 0];

internalField   nonuniform List<scalar> 
25000
(
0.000113122
5.70582e-05
3.36548e-05
3.08522e-05
3.00811e-05
3.01013e-05
3.05005e-05
3.11623e-05
3.4298e-05
3.65506e-05
5.67472e-05
3.54673e-05
2.90021e-05
2.77318e-05
2.7516e-05
2.78992e-05
2.89239e-05
3.06648e-05
3.37403e-05
3.52839e-05
3.27643e-05
2.85506e-05
2.66311e-05
2.5903e-05
2.57034e-05
2.59986e-05
2.68703e-05
2.83732e-05
3.07381e-05
3.2013e-05
3.02485e-05
2.73676e-05
2.57575e-05
2.48795e-05
2.4534e-05
2.47413e-05
2.5554e-05
2.70126e-05
2.9192e-05
3.13449e-05
2.97419e-05
2.72171e-05
2.55716e-05
2.44965e-05
2.40184e-05
2.41536e-05
2.49285e-05
2.63664e-05
2.84481e-05
3.09815e-05
2.99305e-05
2.77064e-05
2.58763e-05
2.46967e-05
2.4142e-05
2.42248e-05
2.49626e-05
2.63818e-05
2.84585e-05
3.09307e-05
3.03668e-05
2.87337e-05
2.67609e-05
2.54956e-05
2.4898e-05
2.49402e-05
2.56574e-05
2.70632e-05
2.92133e-05
3.11924e-05
3.1086e-05
3.04777e-05
2.82443e-05
2.6939e-05
2.63067e-05
2.63337e-05
2.70369e-05
2.84425e-05
3.07679e-05
3.17475e-05
3.42683e-05
3.35918e-05
3.06421e-05
2.91168e-05
2.83871e-05
2.84018e-05
2.91652e-05
3.07571e-05
3.37495e-05
3.48216e-05
3.64381e-05
3.51658e-05
3.19208e-05
3.12793e-05
3.09479e-05
3.09141e-05
3.12046e-05
3.1787e-05
3.48996e-05
3.67195e-05
0.000136256
6.97988e-05
4.23919e-05
4.25567e-05
4.35691e-05
4.41393e-05
4.47408e-05
4.5661e-05
4.9078e-05
5.09487e-05
6.9947e-05
5.12261e-05
4.32472e-05
4.20419e-05
4.18682e-05
4.22878e-05
4.31061e-05
4.41993e-05
4.62057e-05
4.94384e-05
4.24424e-05
4.33065e-05
4.23716e-05
4.12731e-05
4.07392e-05
4.09061e-05
4.14831e-05
4.2317e-05
4.40058e-05
4.56534e-05
4.26329e-05
4.20771e-05
4.13003e-05
4.05271e-05
4.00668e-05
4.01601e-05
4.0689e-05
4.15895e-05
4.31417e-05
4.47555e-05
4.34178e-05
4.18004e-05
4.07267e-05
4.00676e-05
3.97395e-05
3.982e-05
4.03069e-05
4.12213e-05
4.26035e-05
4.42749e-05
4.38532e-05
4.21181e-05
4.08133e-05
4.01123e-05
3.98021e-05
3.98762e-05
4.03388e-05
4.12387e-05
4.26235e-05
4.42385e-05
4.43868e-05
4.28579e-05
4.13184e-05
4.05941e-05
4.02546e-05
4.03167e-05
4.07913e-05
4.16475e-05
4.31905e-05
4.46482e-05
4.52745e-05
4.38633e-05
4.21068e-05
4.14571e-05
4.113e-05
4.1192e-05
4.16338e-05
4.23794e-05
4.40681e-05
4.54575e-05
4.87255e-05
4.59336e-05
4.38423e-05
4.29807e-05
4.24958e-05
4.25616e-05
4.31698e-05
4.41125e-05
4.60811e-05
4.8907e-05
5.05557e-05
4.9131e-05
4.53503e-05
4.45205e-05
4.41467e-05
4.4217e-05
4.47139e-05
4.55864e-05
4.91102e-05
5.07655e-05
8.57929e-05
4.1508e-05
3.53271e-05
3.82288e-05
4.00092e-05
4.00793e-05
4.06171e-05
4.18e-05
4.36621e-05
4.74394e-05
4.16279e-05
3.97167e-05
3.7057e-05
3.84792e-05
3.81844e-05
3.81858e-05
3.86299e-05
3.93648e-05
4.00581e-05
4.35943e-05
3.50022e-05
3.69677e-05
3.82342e-05
3.71148e-05
3.66393e-05
3.66931e-05
3.71242e-05
3.77842e-05
3.88697e-05
4.10374e-05
3.79786e-05
3.82118e-05
3.70164e-05
3.60746e-05
3.57044e-05
3.582e-05
3.62859e-05
3.70097e-05
3.81702e-05
3.9733e-05
3.95098e-05
3.78009e-05
3.64123e-05
3.56101e-05
3.5272e-05
3.53595e-05
3.57947e-05
3.65488e-05
3.77045e-05
3.91423e-05
3.95676e-05
3.77743e-05
3.64032e-05
3.56439e-05
3.52922e-05
3.5357e-05
3.57773e-05
3.65356e-05
3.77266e-05
3.91317e-05
4.01665e-05
3.82636e-05
3.68214e-05
3.60942e-05
3.56925e-05
3.57452e-05
3.62316e-05
3.69814e-05
3.82156e-05
3.96916e-05
4.13818e-05
3.897e-05
3.75005e-05
3.68217e-05
3.64291e-05
3.64875e-05
3.69723e-05
3.76851e-05
3.89115e-05
4.09101e-05
4.32331e-05
3.97446e-05
3.86599e-05
3.79749e-05
3.75885e-05
3.76625e-05
3.81899e-05
3.89493e-05
3.97715e-05
4.29692e-05
4.66937e-05
4.30268e-05
4.05219e-05
3.94095e-05
3.8983e-05
3.90954e-05
3.97286e-05
4.09976e-05
4.3171e-05
4.67858e-05
3.78646e-05
3.21103e-05
2.63493e-05
2.94026e-05
3.02946e-05
2.97277e-05
3.02663e-05
3.13521e-05
3.17759e-05
3.6469e-05
3.16215e-05
2.50877e-05
2.76252e-05
2.96491e-05
2.80894e-05
2.75707e-05
2.77407e-05
2.83561e-05
2.83984e-05
3.12159e-05
2.59675e-05
2.71934e-05
2.90269e-05
2.67532e-05
2.60954e-05
2.58785e-05
2.61558e-05
2.68305e-05
2.76144e-05
2.98363e-05
2.8583e-05
2.89126e-05
2.64004e-05
2.51575e-05
2.47795e-05
2.4772e-05
2.51544e-05
2.58517e-05
2.68626e-05
2.85432e-05
2.9403e-05
2.73582e-05
2.55847e-05
2.45523e-05
2.41171e-05
2.4141e-05
2.45525e-05
2.53049e-05
2.65e-05
2.81359e-05
2.90258e-05
2.69902e-05
2.53944e-05
2.44582e-05
2.40138e-05
2.40479e-05
2.44809e-05
2.5264e-05
2.6538e-05
2.81982e-05
2.97202e-05
2.72735e-05
2.57428e-05
2.48694e-05
2.43891e-05
2.44215e-05
2.49374e-05
2.5743e-05
2.6945e-05
2.86958e-05
3.10378e-05
2.79238e-05
2.64898e-05
2.56246e-05
2.51537e-05
2.51907e-05
2.5717e-05
2.6578e-05
2.76809e-05
2.99388e-05
3.1491e-05
2.80393e-05
2.73804e-05
2.6693e-05
2.63915e-05
2.6443e-05
2.68607e-05
2.76517e-05
2.8042e-05
3.07423e-05
3.55203e-05
3.03387e-05
2.91811e-05
2.822e-05
2.79758e-05
2.80963e-05
2.86005e-05
2.9849e-05
3.08215e-05
3.54778e-05
3.31875e-05
3.43921e-05
2.11963e-05
2.47486e-05
2.32334e-05
2.21982e-05
2.28012e-05
2.36791e-05
2.35722e-05
2.81718e-05
3.50547e-05
1.81902e-05
2.39741e-05
2.32706e-05
2.06001e-05
1.99512e-05
2.00535e-05
2.0652e-05
2.06013e-05
2.2832e-05
2.14324e-05
2.34483e-05
2.26126e-05
1.91238e-05
1.84786e-05
1.81367e-05
1.83781e-05
1.91335e-05
1.97783e-05
2.18183e-05
2.37427e-05
2.24707e-05
1.87653e-05
1.73873e-05
1.6924e-05
1.67917e-05
1.71792e-05
1.79829e-05
1.90006e-05
2.07897e-05
2.24598e-05
1.99531e-05
1.8021e-05
1.67432e-05
1.61205e-05
1.60463e-05
1.65043e-05
1.74057e-05
1.87513e-05
2.06199e-05
2.16001e-05
1.95103e-05
1.77816e-05
1.65957e-05
1.5984e-05
1.59377e-05
1.64254e-05
1.73738e-05
1.88377e-05
2.0781e-05
2.22812e-05
1.97081e-05
1.81199e-05
1.70487e-05
1.64462e-05
1.64123e-05
1.69402e-05
1.78957e-05
1.92289e-05
2.12271e-05
2.35062e-05
2.04334e-05
1.90083e-05
1.79503e-05
1.73972e-05
1.73738e-05
1.78875e-05
1.89188e-05
2.008e-05
2.23247e-05
2.36132e-05
2.05885e-05
1.98878e-05
1.913e-05
1.88328e-05
1.8822e-05
1.91424e-05
2.00054e-05
2.0515e-05
2.27778e-05
2.70869e-05
2.22708e-05
2.15652e-05
2.08038e-05
2.06358e-05
2.07024e-05
2.10461e-05
2.21112e-05
2.27272e-05
2.70513e-05
3.30456e-05
2.65663e-05
1.93811e-05
2.30616e-05
1.91504e-05
1.79235e-05
1.86927e-05
1.95215e-05
1.93764e-05
2.25571e-05
2.81411e-05
1.86784e-05
2.34209e-05
1.92172e-05
1.66475e-05
1.62632e-05
1.65813e-05
1.72636e-05
1.72464e-05
1.8553e-05
1.9212e-05
2.31176e-05
1.8624e-05
1.50207e-05
1.48458e-05
1.48173e-05
1.52195e-05
1.60002e-05
1.64568e-05
1.76942e-05
2.25746e-05
1.89454e-05
1.49437e-05
1.37652e-05
1.35127e-05
1.35754e-05
1.40711e-05
1.4911e-05
1.58229e-05
1.71525e-05
1.90218e-05
1.65256e-05
1.47351e-05
1.35068e-05
1.29655e-05
1.29426e-05
1.34489e-05
1.43755e-05
1.56215e-05
1.72157e-05
1.77815e-05
1.61173e-05
1.4732e-05
1.35995e-05
1.29908e-05
1.29115e-05
1.33863e-05
1.4341e-05
1.57068e-05
1.74521e-05
1.84022e-05
1.63736e-05
1.51326e-05
1.41268e-05
1.35278e-05
1.34315e-05
1.38957e-05
1.48319e-05
1.60722e-05
1.78425e-05
1.95198e-05
1.71502e-05
1.60195e-05
1.50285e-05
1.4486e-05
1.44124e-05
1.48542e-05
1.58439e-05
1.69111e-05
1.86685e-05
1.9763e-05
1.74762e-05
1.68061e-05
1.6104e-05
1.57926e-05
1.57372e-05
1.60038e-05
1.68319e-05
1.74505e-05
1.90272e-05
2.2157e-05
1.85742e-05
1.80278e-05
1.75223e-05
1.73733e-05
1.73574e-05
1.75806e-05
1.83628e-05
1.89213e-05
2.20602e-05
2.56727e-05
2.22864e-05
2.61268e-05
2.37577e-05
1.74282e-05
1.59808e-05
1.67524e-05
1.78129e-05
1.78755e-05
1.98895e-05
2.17054e-05
2.50468e-05
2.28901e-05
1.70543e-05
1.53868e-05
1.49266e-05
1.54561e-05
1.62787e-05
1.62766e-05
1.70337e-05
2.49387e-05
2.27426e-05
1.60944e-05
1.37336e-05
1.37924e-05
1.40556e-05
1.46465e-05
1.54398e-05
1.57242e-05
1.63028e-05
2.376e-05
1.74142e-05
1.39879e-05
1.28252e-05
1.28766e-05
1.32034e-05
1.37987e-05
1.46059e-05
1.53328e-05
1.61331e-05
1.77993e-05
1.5839e-05
1.41481e-05
1.30601e-05
1.27712e-05
1.28655e-05
1.33558e-05
1.41726e-05
1.51544e-05
1.63316e-05
1.63087e-05
1.51503e-05
1.42921e-05
1.34389e-05
1.29961e-05
1.2942e-05
1.33535e-05
1.41545e-05
1.52078e-05
1.65612e-05
1.68013e-05
1.55151e-05
1.47926e-05
1.40332e-05
1.35316e-05
1.34372e-05
1.38129e-05
1.45794e-05
1.5537e-05
1.69048e-05
1.78788e-05
1.63461e-05
1.56401e-05
1.48538e-05
1.43722e-05
1.42837e-05
1.46347e-05
1.5454e-05
1.62854e-05
1.75613e-05
1.8361e-05
1.68695e-05
1.63385e-05
1.57409e-05
1.53944e-05
1.52953e-05
1.55178e-05
1.62175e-05
1.67945e-05
1.78462e-05
1.98968e-05
1.75141e-05
1.71468e-05
1.68034e-05
1.65927e-05
1.64999e-05
1.66453e-05
1.72543e-05
1.77626e-05
1.98795e-05
2.82944e-05
3.42641e-05
3.32204e-05
2.41803e-05
1.75386e-05
1.58958e-05
1.65122e-05
1.77619e-05
1.80302e-05
1.90001e-05
3.16649e-05
3.03547e-05
2.16191e-05
1.75587e-05
1.64246e-05
1.54431e-05
1.60076e-05
1.69545e-05
1.70485e-05
1.72485e-05
3.22462e-05
2.20582e-05
1.64989e-05
1.51059e-05
1.47449e-05
1.49611e-05
1.56244e-05
1.64836e-05
1.67733e-05
1.67107e-05
2.47169e-05
1.83985e-05
1.56327e-05
1.39244e-05
1.40152e-05
1.43831e-05
1.50027e-05
1.5835e-05
1.65302e-05
1.68725e-05
1.81046e-05
1.71343e-05
1.54848e-05
1.4373e-05
1.41494e-05
1.42348e-05
1.4695e-05
1.54608e-05
1.62769e-05
1.70947e-05
1.66914e-05
1.59356e-05
1.54305e-05
1.47527e-05
1.44092e-05
1.43736e-05
1.47369e-05
1.54218e-05
1.62212e-05
1.72149e-05
1.71055e-05
1.63218e-05
1.59052e-05
1.53267e-05
1.4906e-05
1.48342e-05
1.51543e-05
1.57634e-05
1.64575e-05
1.74702e-05
1.81236e-05
1.71525e-05
1.67251e-05
1.60895e-05
1.56566e-05
1.55665e-05
1.58425e-05
1.64711e-05
1.70791e-05
1.79996e-05
1.88524e-05
1.78978e-05
1.74397e-05
1.68589e-05
1.64448e-05
1.63007e-05
1.64718e-05
1.7026e-05
1.75108e-05
1.81421e-05
1.9709e-05
1.82452e-05
1.80176e-05
1.76744e-05
1.73055e-05
1.70954e-05
1.71671e-05
1.7601e-05
1.79987e-05
1.92544e-05
3.7506e-05
4.27155e-05
3.42121e-05
2.34614e-05
1.8425e-05
1.65696e-05
1.68451e-05
1.81467e-05
1.87687e-05
1.92755e-05
4.00563e-05
3.00675e-05
2.03208e-05
1.90627e-05
1.75376e-05
1.61766e-05
1.66206e-05
1.76044e-05
1.7961e-05
1.79251e-05
3.38911e-05
2.11855e-05
1.85404e-05
1.66862e-05
1.5817e-05
1.58707e-05
1.64548e-05
1.73278e-05
1.78069e-05
1.75958e-05
2.37006e-05
1.98665e-05
1.74131e-05
1.53207e-05
1.5314e-05
1.55208e-05
1.60745e-05
1.6894e-05
1.76152e-05
1.78834e-05
1.83887e-05
1.80311e-05
1.67624e-05
1.57835e-05
1.55213e-05
1.55239e-05
1.59243e-05
1.6625e-05
1.73001e-05
1.78869e-05
1.72559e-05
1.65921e-05
1.63556e-05
1.58983e-05
1.5673e-05
1.5676e-05
1.60086e-05
1.65713e-05
1.71273e-05
1.7793e-05
1.76394e-05
1.69565e-05
1.66897e-05
1.62985e-05
1.60442e-05
1.6057e-05
1.63433e-05
1.67924e-05
1.72625e-05
1.80067e-05
1.85517e-05
1.77171e-05
1.73944e-05
1.69327e-05
1.66379e-05
1.66209e-05
1.68583e-05
1.73322e-05
1.77949e-05
1.85608e-05
1.94839e-05
1.86656e-05
1.8179e-05
1.76071e-05
1.72133e-05
1.7109e-05
1.73064e-05
1.77995e-05
1.8243e-05
1.87782e-05
2.03979e-05
1.94057e-05
1.90239e-05
1.84222e-05
1.78464e-05
1.75995e-05
1.77497e-05
1.81937e-05
1.85856e-05
1.94209e-05
3.78363e-05
3.93105e-05
2.86219e-05
2.14622e-05
1.86058e-05
1.70075e-05
1.72161e-05
1.84527e-05
1.93675e-05
1.95812e-05
3.81479e-05
2.64713e-05
1.98818e-05
1.94288e-05
1.78478e-05
1.68336e-05
1.71705e-05
1.81564e-05
1.88927e-05
1.8494e-05
2.97933e-05
2.08762e-05
1.93973e-05
1.71845e-05
1.66671e-05
1.67003e-05
1.72049e-05
1.81069e-05
1.88779e-05
1.86171e-05
2.12399e-05
2.00456e-05
1.80582e-05
1.64809e-05
1.64429e-05
1.65069e-05
1.70218e-05
1.78353e-05
1.86183e-05
1.89247e-05
1.78654e-05
1.79056e-05
1.74976e-05
1.68595e-05
1.6621e-05
1.66087e-05
1.69888e-05
1.76044e-05
1.81216e-05
1.85157e-05
1.72546e-05
1.68113e-05
1.6833e-05
1.662e-05
1.66128e-05
1.67446e-05
1.70601e-05
1.74724e-05
1.77771e-05
1.81482e-05
1.77378e-05
1.71592e-05
1.7031e-05
1.68603e-05
1.68458e-05
1.69932e-05
1.7275e-05
1.75807e-05
1.78432e-05
1.83482e-05
1.85058e-05
1.77994e-05
1.7658e-05
1.73841e-05
1.72452e-05
1.73312e-05
1.76091e-05
1.80009e-05
1.83538e-05
1.89858e-05
1.95855e-05
1.8786e-05
1.84322e-05
1.79361e-05
1.75897e-05
1.75778e-05
1.78953e-05
1.84298e-05
1.88488e-05
1.92965e-05
2.06718e-05
1.9837e-05
1.94184e-05
1.86922e-05
1.80482e-05
1.78585e-05
1.81634e-05
1.8659e-05
1.90187e-05
1.96295e-05
3.25728e-05
3.11933e-05
2.30589e-05
1.99458e-05
1.82568e-05
1.72809e-05
1.73501e-05
1.83787e-05
1.9642e-05
1.96814e-05
3.20222e-05
2.32989e-05
1.93175e-05
1.83994e-05
1.77744e-05
1.7232e-05
1.72578e-05
1.81428e-05
1.93597e-05
1.90144e-05
2.528e-05
2.04206e-05
1.86657e-05
1.71504e-05
1.71733e-05
1.7001e-05
1.73406e-05
1.82705e-05
1.94225e-05
1.95744e-05
1.9471e-05
1.92726e-05
1.81298e-05
1.7182e-05
1.68417e-05
1.66971e-05
1.71913e-05
1.8051e-05
1.89648e-05
1.95715e-05
1.72125e-05
1.75156e-05
1.76828e-05
1.70572e-05
1.67088e-05
1.66856e-05
1.70926e-05
1.77002e-05
1.81838e-05
1.85671e-05
1.70103e-05
1.67437e-05
1.66791e-05
1.6425e-05
1.64865e-05
1.6717e-05
1.70771e-05
1.74553e-05
1.76624e-05
1.79049e-05
1.73581e-05
1.69219e-05
1.67989e-05
1.66282e-05
1.66615e-05
1.68947e-05
1.72557e-05
1.75702e-05
1.77334e-05
1.80773e-05
1.78856e-05
1.73981e-05
1.74237e-05
1.71893e-05
1.70369e-05
1.7179e-05
1.75891e-05
1.80446e-05
1.83123e-05
1.87942e-05
1.8991e-05
1.83315e-05
1.81863e-05
1.77352e-05
1.73699e-05
1.74166e-05
1.78862e-05
1.85248e-05
1.88955e-05
1.92804e-05
2.02481e-05
1.94291e-05
1.91172e-05
1.84364e-05
1.78245e-05
1.77279e-05
1.81699e-05
1.87443e-05
1.90721e-05
1.96547e-05
2.38328e-05
2.28342e-05
1.92108e-05
1.82905e-05
1.78682e-05
1.73009e-05
1.71113e-05
1.79241e-05
1.94733e-05
1.9598e-05
2.5293e-05
2.12755e-05
1.80835e-05
1.73267e-05
1.77965e-05
1.72653e-05
1.69468e-05
1.76967e-05
1.95691e-05
1.97128e-05
2.18411e-05
1.96964e-05
1.77778e-05
1.73192e-05
1.73934e-05
1.68865e-05
1.70157e-05
1.79253e-05
1.96012e-05
2.06784e-05
1.84044e-05
1.85727e-05
1.81698e-05
1.73708e-05
1.66153e-05
1.63067e-05
1.67338e-05
1.76382e-05
1.88261e-05
2.00249e-05
1.68928e-05
1.72932e-05
1.74239e-05
1.65232e-05
1.60308e-05
1.59801e-05
1.64165e-05
1.71156e-05
1.77728e-05
1.83535e-05
1.68816e-05
1.65443e-05
1.61523e-05
1.56399e-05
1.5582e-05
1.5819e-05
1.62688e-05
1.67949e-05
1.7147e-05
1.74327e-05
1.69253e-05
1.65897e-05
1.63145e-05
1.59205e-05
1.57914e-05
1.60025e-05
1.64939e-05
1.69879e-05
1.72433e-05
1.75608e-05
1.72579e-05
1.69769e-05
1.70363e-05
1.6646e-05
1.63288e-05
1.64413e-05
1.69816e-05
1.76003e-05
1.79318e-05
1.83229e-05
1.8359e-05
1.78874e-05
1.78674e-05
1.73269e-05
1.68501e-05
1.6887e-05
1.74556e-05
1.82594e-05
1.87067e-05
1.89341e-05
1.95749e-05
1.87585e-05
1.86433e-05
1.80678e-05
1.74687e-05
1.74057e-05
1.7917e-05
1.85432e-05
1.88093e-05
1.93856e-05
1.83542e-05
1.93221e-05
1.79239e-05
1.7466e-05
1.82691e-05
1.73744e-05
1.67936e-05
1.7554e-05
1.9561e-05
2.02708e-05
2.13864e-05
2.02456e-05
1.77005e-05
1.78825e-05
1.82229e-05
1.68427e-05
1.62395e-05
1.69807e-05
1.95326e-05
2.13546e-05
2.01281e-05
1.96583e-05
1.8434e-05
1.82136e-05
1.74619e-05
1.63431e-05
1.61579e-05
1.69737e-05
1.90889e-05
2.1886e-05
1.80239e-05
1.87573e-05
1.86542e-05
1.74168e-05
1.6163e-05
1.56437e-05
1.58049e-05
1.65529e-05
1.79352e-05
1.99636e-05
1.69732e-05
1.72782e-05
1.69874e-05
1.57731e-05
1.5197e-05
1.50516e-05
1.53131e-05
1.59314e-05
1.67452e-05
1.76649e-05
1.68863e-05
1.61592e-05
1.53577e-05
1.46702e-05
1.44986e-05
1.46309e-05
1.50238e-05
1.55996e-05
1.61363e-05
1.66713e-05
1.66008e-05
1.60426e-05
1.55027e-05
1.48986e-05
1.45973e-05
1.47133e-05
1.52186e-05
1.58372e-05
1.63164e-05
1.68961e-05
1.68634e-05
1.64734e-05
1.62827e-05
1.56653e-05
1.51868e-05
1.52317e-05
1.57973e-05
1.65704e-05
1.71888e-05
1.78725e-05
1.79869e-05
1.75432e-05
1.73242e-05
1.65321e-05
1.59193e-05
1.59132e-05
1.65259e-05
1.75654e-05
1.84276e-05
1.88316e-05
1.93387e-05
1.84693e-05
1.83065e-05
1.75489e-05
1.68511e-05
1.67996e-05
1.74379e-05
1.83702e-05
1.887e-05
1.95417e-05
1.61975e-05
1.88575e-05
1.79537e-05
1.73132e-05
1.87042e-05
1.72825e-05
1.63323e-05
1.70938e-05
1.97893e-05
2.18873e-05
1.93356e-05
1.95118e-05
1.78235e-05
1.8951e-05
1.86882e-05
1.61537e-05
1.52873e-05
1.6144e-05
1.91537e-05
2.3462e-05
1.9027e-05
1.95569e-05
1.93639e-05
1.92821e-05
1.77302e-05
1.56661e-05
1.50259e-05
1.58571e-05
1.8058e-05
2.2566e-05
1.73096e-05
1.8703e-05
1.91589e-05
1.78214e-05
1.61989e-05
1.52203e-05
1.48468e-05
1.52929e-05
1.66367e-05
1.91474e-05
1.65787e-05
1.70854e-05
1.67546e-05
1.55469e-05
1.49942e-05
1.46385e-05
1.44301e-05
1.46357e-05
1.53937e-05
1.6575e-05
1.67339e-05
1.57733e-05
1.47161e-05
1.41045e-05
1.39897e-05
1.39704e-05
1.40559e-05
1.43524e-05
1.49115e-05
1.58209e-05
1.65364e-05
1.54907e-05
1.46752e-05
1.40783e-05
1.37698e-05
1.37769e-05
1.41024e-05
1.46108e-05
1.52793e-05
1.63022e-05
1.6881e-05
1.60596e-05
1.54432e-05
1.46653e-05
1.41339e-05
1.41149e-05
1.45921e-05
1.54026e-05
1.63508e-05
1.76126e-05
1.80915e-05
1.74155e-05
1.6679e-05
1.55683e-05
1.48624e-05
1.48281e-05
1.54457e-05
1.66813e-05
1.81422e-05
1.91914e-05
1.97085e-05
1.8619e-05
1.81025e-05
1.68973e-05
1.60467e-05
1.60261e-05
1.68341e-05
1.82583e-05
1.94098e-05
2.04307e-05
1.52383e-05
1.8574e-05
1.7769e-05
1.71099e-05
1.86928e-05
1.7049e-05
1.57218e-05
1.62862e-05
1.94304e-05
2.36859e-05
1.79794e-05
1.86223e-05
1.75766e-05
1.93758e-05
1.88367e-05
1.56771e-05
1.44886e-05
1.51689e-05
1.79766e-05
2.42947e-05
1.79032e-05
1.8709e-05
1.93905e-05
1.98263e-05
1.80721e-05
1.51747e-05
1.40808e-05
1.48846e-05
1.65896e-05
2.17192e-05
1.61354e-05
1.77239e-05
1.9044e-05
1.83339e-05
1.67457e-05
1.51023e-05
1.39985e-05
1.41541e-05
1.52174e-05
1.75387e-05
1.5675e-05
1.65076e-05
1.65717e-05
1.58276e-05
1.5426e-05
1.46614e-05
1.37369e-05
1.34164e-05
1.40543e-05
1.54289e-05
1.64061e-05
1.55688e-05
1.44765e-05
1.40179e-05
1.39918e-05
1.37612e-05
1.34064e-05
1.33159e-05
1.38589e-05
1.51155e-05
1.66283e-05
1.52176e-05
1.42148e-05
1.3609e-05
1.32981e-05
1.32338e-05
1.33746e-05
1.37391e-05
1.44676e-05
1.57456e-05
1.69831e-05
1.57267e-05
1.48359e-05
1.39268e-05
1.33411e-05
1.33155e-05
1.37649e-05
1.45486e-05
1.55033e-05
1.71534e-05
1.8202e-05
1.71352e-05
1.59651e-05
1.46966e-05
1.39775e-05
1.39645e-05
1.45628e-05
1.57173e-05
1.73826e-05
1.92815e-05
2.03784e-05
1.87559e-05
1.7669e-05
1.61285e-05
1.52662e-05
1.52847e-05
1.60753e-05
1.77279e-05
1.96343e-05
2.15947e-05
1.41113e-05
1.82961e-05
1.70734e-05
1.68946e-05
1.86902e-05
1.70463e-05
1.52396e-05
1.52295e-05
1.79497e-05
2.31391e-05
1.69716e-05
1.77926e-05
1.75359e-05
1.98891e-05
1.92446e-05
1.59395e-05
1.41626e-05
1.42942e-05
1.65097e-05
2.24264e-05
1.69887e-05
1.78974e-05
1.94467e-05
2.03614e-05
1.86216e-05
1.53594e-05
1.38134e-05
1.40816e-05
1.52045e-05
1.93816e-05
1.53385e-05
1.698e-05
1.89286e-05
1.88231e-05
1.73586e-05
1.51924e-05
1.3548e-05
1.33507e-05
1.40082e-05
1.58766e-05
1.51119e-05
1.64384e-05
1.67237e-05
1.62381e-05
1.58317e-05
1.46403e-05
1.3241e-05
1.27346e-05
1.33197e-05
1.46969e-05
1.64242e-05
1.59559e-05
1.49074e-05
1.42831e-05
1.40515e-05
1.36067e-05
1.30653e-05
1.29436e-05
1.35508e-05
1.47551e-05
1.69801e-05
1.55421e-05
1.44522e-05
1.36433e-05
1.31313e-05
1.30079e-05
1.31562e-05
1.3511e-05
1.4176e-05
1.53656e-05
1.69233e-05
1.57715e-05
1.47873e-05
1.37836e-05
1.31285e-05
1.30942e-05
1.35191e-05
1.41596e-05
1.49385e-05
1.64802e-05
1.77942e-05
1.68203e-05
1.56326e-05
1.43932e-05
1.37653e-05
1.37333e-05
1.41424e-05
1.50144e-05
1.64635e-05
1.85201e-05
2.0076e-05
1.82148e-05
1.69906e-05
1.56432e-05
1.49429e-05
1.49182e-05
1.54402e-05
1.67648e-05
1.88222e-05
2.13773e-05
1.09642e-05
1.67987e-05
1.53189e-05
1.6819e-05
1.88305e-05
1.75064e-05
1.55231e-05
1.44434e-05
1.61895e-05
1.91736e-05
1.62708e-05
1.72375e-05
1.80647e-05
2.04856e-05
1.95294e-05
1.64796e-05
1.46599e-05
1.42292e-05
1.51473e-05
1.90364e-05
1.61761e-05
1.73993e-05
1.95558e-05
2.04464e-05
1.8646e-05
1.55756e-05
1.398e-05
1.37785e-05
1.42706e-05
1.66121e-05
1.47565e-05
1.6656e-05
1.86491e-05
1.85632e-05
1.70432e-05
1.48033e-05
1.32559e-05
1.29606e-05
1.33144e-05
1.46664e-05
1.49206e-05
1.65925e-05
1.67562e-05
1.59893e-05
1.52339e-05
1.39094e-05
1.2784e-05
1.2655e-05
1.32823e-05
1.44036e-05
1.694e-05
1.6362e-05
1.52239e-05
1.42184e-05
1.35331e-05
1.30231e-05
1.27865e-05
1.30511e-05
1.38566e-05
1.49293e-05
1.76145e-05
1.6256e-05
1.47872e-05
1.36613e-05
1.29391e-05
1.28092e-05
1.30986e-05
1.36455e-05
1.4493e-05
1.55179e-05
1.67383e-05
1.63905e-05
1.52752e-05
1.40051e-05
1.33082e-05
1.32532e-05
1.36455e-05
1.43131e-05
1.50147e-05
1.59887e-05
1.71113e-05
1.66599e-05
1.59699e-05
1.48474e-05
1.4238e-05
1.4122e-05
1.43436e-05
1.49231e-05
1.57989e-05
1.74693e-05
1.743e-05
1.7494e-05
1.64466e-05
1.57258e-05
1.53397e-05
1.52161e-05
1.52754e-05
1.59055e-05
1.7618e-05
1.83484e-05
1.11117e-05
1.5904e-05
1.55006e-05
1.80359e-05
1.93266e-05
1.86673e-05
1.71517e-05
1.48279e-05
1.58939e-05
1.09109e-05
1.59656e-05
1.75805e-05
1.94467e-05
2.10896e-05
1.98318e-05
1.76508e-05
1.67802e-05
1.59213e-05
1.50433e-05
1.70806e-05
1.58413e-05
1.76379e-05
1.97558e-05
2.01799e-05
1.84904e-05
1.60598e-05
1.51056e-05
1.5223e-05
1.47436e-05
1.5288e-05
1.47238e-05
1.68878e-05
1.84386e-05
1.80272e-05
1.6473e-05
1.45559e-05
1.36086e-05
1.38941e-05
1.41735e-05
1.44247e-05
1.53484e-05
1.69217e-05
1.68261e-05
1.56917e-05
1.45812e-05
1.34138e-05
1.29293e-05
1.3428e-05
1.43329e-05
1.49596e-05
1.80453e-05
1.70346e-05
1.55149e-05
1.42043e-05
1.32589e-05
1.28066e-05
1.29093e-05
1.36486e-05
1.49945e-05
1.62833e-05
1.87766e-05
1.7707e-05
1.55973e-05
1.39758e-05
1.31444e-05
1.30036e-05
1.34393e-05
1.4476e-05
1.59295e-05
1.68536e-05
1.72863e-05
1.78211e-05
1.67334e-05
1.50372e-05
1.40917e-05
1.39922e-05
1.45897e-05
1.56511e-05
1.63309e-05
1.65427e-05
1.73946e-05
1.72857e-05
1.71852e-05
1.63148e-05
1.56236e-05
1.54534e-05
1.57172e-05
1.60441e-05
1.62761e-05
1.75112e-05
1.15375e-05
1.76217e-05
1.66667e-05
1.65814e-05
1.67364e-05
1.65927e-05
1.60714e-05
1.60182e-05
1.74734e-05
1.15441e-05
3.24207e-05
1.79146e-05
1.95135e-05
2.0335e-05
1.93868e-05
1.92254e-05
1.89563e-05
1.65266e-05
1.66365e-05
2.33416e-05
1.61818e-05
1.92511e-05
2.05209e-05
2.03973e-05
1.89923e-05
1.81363e-05
1.85317e-05
1.76149e-05
1.57731e-05
1.72702e-05
1.61693e-05
1.77817e-05
1.85547e-05
1.83825e-05
1.73749e-05
1.60829e-05
1.60621e-05
1.66066e-05
1.53944e-05
1.55747e-05
1.51995e-05
1.63657e-05
1.69485e-05
1.65882e-05
1.56056e-05
1.43745e-05
1.41673e-05
1.51391e-05
1.52986e-05
1.47791e-05
1.57713e-05
1.62781e-05
1.59851e-05
1.50715e-05
1.41863e-05
1.34239e-05
1.34143e-05
1.43894e-05
1.55469e-05
1.57568e-05
1.83634e-05
1.70421e-05
1.53793e-05
1.41407e-05
1.33887e-05
1.30954e-05
1.33398e-05
1.43727e-05
1.61654e-05
1.77166e-05
1.92735e-05
1.82692e-05
1.61508e-05
1.44512e-05
1.3658e-05
1.35386e-05
1.40485e-05
1.53481e-05
1.71515e-05
1.83956e-05
1.83747e-05
1.84312e-05
1.73826e-05
1.59227e-05
1.50099e-05
1.48992e-05
1.55613e-05
1.6703e-05
1.74659e-05
1.79023e-05
1.84628e-05
1.82376e-05
1.77167e-05
1.71406e-05
1.67627e-05
1.6673e-05
1.6865e-05
1.70481e-05
1.73422e-05
1.83026e-05
2.36718e-05
1.8587e-05
1.75648e-05
1.73461e-05
1.77578e-05
1.77599e-05
1.71085e-05
1.69953e-05
1.81457e-05
2.31877e-05
8.57367e-05
2.36046e-05
2.43404e-05
2.12222e-05
1.79131e-05
1.81073e-05
1.98672e-05
1.92687e-05
1.76567e-05
7.7289e-05
1.78534e-05
2.10979e-05
2.04375e-05
1.87015e-05
1.71695e-05
1.73407e-05
1.87265e-05
1.84027e-05
1.70578e-05
1.69479e-05
1.73052e-05
1.76113e-05
1.70171e-05
1.63727e-05
1.61429e-05
1.59487e-05
1.63885e-05
1.68283e-05
1.57785e-05
1.66353e-05
1.59694e-05
1.57643e-05
1.53458e-05
1.53425e-05
1.5409e-05
1.49337e-05
1.49288e-05
1.57713e-05
1.57179e-05
1.55461e-05
1.5925e-05
1.53763e-05
1.50867e-05
1.49584e-05
1.48359e-05
1.44176e-05
1.44098e-05
1.52967e-05
1.62004e-05
1.62029e-05
1.76561e-05
1.6458e-05
1.54557e-05
1.48101e-05
1.4495e-05
1.42994e-05
1.44371e-05
1.53465e-05
1.68806e-05
1.82202e-05
1.90905e-05
1.76528e-05
1.62868e-05
1.5348e-05
1.4925e-05
1.48244e-05
1.51023e-05
1.60004e-05
1.75317e-05
1.93268e-05
1.996e-05
1.81395e-05
1.68989e-05
1.62207e-05
1.59887e-05
1.59547e-05
1.61645e-05
1.68426e-05
1.78865e-05
1.96568e-05
2.00347e-05
1.93299e-05
1.75802e-05
1.69146e-05
1.70078e-05
1.70982e-05
1.70965e-05
1.74552e-05
1.86196e-05
1.90468e-05
7.72099e-05
1.97453e-05
1.89646e-05
1.77832e-05
1.76952e-05
1.77964e-05
1.77539e-05
1.84281e-05
1.86708e-05
7.76614e-05
0.000190336
3.06512e-05
2.73146e-05
2.05081e-05
1.66479e-05
1.65671e-05
1.94206e-05
2.14593e-05
1.8723e-05
0.000183202
2.01104e-05
2.1331e-05
1.92429e-05
1.75485e-05
1.54515e-05
1.53024e-05
1.73082e-05
1.80668e-05
1.78648e-05
1.40381e-05
1.74922e-05
1.70297e-05
1.69237e-05
1.58102e-05
1.48509e-05
1.50278e-05
1.57805e-05
1.61026e-05
1.5946e-05
1.73195e-05
1.63606e-05
1.60246e-05
1.50652e-05
1.47061e-05
1.52434e-05
1.53151e-05
1.52384e-05
1.54639e-05
1.54782e-05
1.64722e-05
1.61643e-05
1.50418e-05
1.45126e-05
1.49986e-05
1.57146e-05
1.5646e-05
1.53633e-05
1.55921e-05
1.59282e-05
1.62527e-05
1.66311e-05
1.55739e-05
1.53401e-05
1.55791e-05
1.5929e-05
1.58857e-05
1.57027e-05
1.59769e-05
1.66875e-05
1.74949e-05
1.80168e-05
1.64797e-05
1.59392e-05
1.59004e-05
1.61623e-05
1.61478e-05
1.593e-05
1.61322e-05
1.70448e-05
1.88741e-05
2.02972e-05
1.73576e-05
1.62778e-05
1.58947e-05
1.62259e-05
1.62975e-05
1.60459e-05
1.6374e-05
1.74827e-05
2.03741e-05
2.03703e-05
1.92538e-05
1.72475e-05
1.63479e-05
1.62301e-05
1.63356e-05
1.64524e-05
1.71561e-05
1.89459e-05
1.90133e-05
0.000183677
1.96797e-05
1.95115e-05
1.76755e-05
1.68932e-05
1.68521e-05
1.7506e-05
1.90201e-05
1.80337e-05
0.000185145
0.00036375
3.41366e-05
2.41394e-05
1.7581e-05
1.71956e-05
1.65107e-05
1.8068e-05
2.14146e-05
2.44594e-05
0.000361611
2.44066e-05
1.90406e-05
1.75365e-05
1.77621e-05
1.56767e-05
1.45906e-05
1.64932e-05
1.7756e-05
1.77388e-05
1.73878e-05
1.55081e-05
1.63404e-05
1.80545e-05
1.69414e-05
1.4481e-05
1.45735e-05
1.59836e-05
1.63991e-05
1.64109e-05
1.66169e-05
1.61724e-05
1.67715e-05
1.61791e-05
1.51017e-05
1.52061e-05
1.56178e-05
1.5719e-05
1.56106e-05
1.57193e-05
1.69324e-05
1.64762e-05
1.57272e-05
1.49456e-05
1.54669e-05
1.66248e-05
1.68245e-05
1.62736e-05
1.58051e-05
1.57468e-05
1.63671e-05
1.61495e-05
1.56549e-05
1.56884e-05
1.6478e-05
1.73992e-05
1.74889e-05
1.68587e-05
1.6369e-05
1.637e-05
1.66555e-05
1.65316e-05
1.62057e-05
1.61987e-05
1.65198e-05
1.72367e-05
1.72494e-05
1.65922e-05
1.63295e-05
1.66145e-05
1.75443e-05
1.83639e-05
1.67479e-05
1.66779e-05
1.61139e-05
1.6324e-05
1.63372e-05
1.60381e-05
1.63305e-05
1.6858e-05
1.90634e-05
2.49858e-05
1.77209e-05
1.70502e-05
1.64747e-05
1.58237e-05
1.57183e-05
1.60605e-05
1.66965e-05
1.80043e-05
2.39874e-05
0.000363669
2.3055e-05
1.77785e-05
1.69752e-05
1.6427e-05
1.6225e-05
1.67068e-05
1.76771e-05
2.22078e-05
0.000365581
0.000621065
5.29437e-05
1.73753e-05
1.54796e-05
1.88146e-05
1.73428e-05
1.62222e-05
1.86087e-05
5.04329e-05
0.000623851
5.02808e-05
1.58817e-05
1.60402e-05
1.7777e-05
1.68505e-05
1.55128e-05
1.62771e-05
1.71213e-05
1.63128e-05
4.72926e-05
1.3199e-05
1.54466e-05
1.78147e-05
1.72019e-05
1.45659e-05
1.47336e-05
1.64317e-05
1.6708e-05
1.61584e-05
1.39182e-05
1.51857e-05
1.62555e-05
1.63818e-05
1.52759e-05
1.47571e-05
1.53385e-05
1.59562e-05
1.58804e-05
1.56609e-05
1.57821e-05
1.55383e-05
1.57619e-05
1.53737e-05
1.56308e-05
1.65242e-05
1.68219e-05
1.63897e-05
1.57433e-05
1.54405e-05
1.55954e-05
1.50588e-05
1.55243e-05
1.58144e-05
1.6683e-05
1.76611e-05
1.77583e-05
1.69417e-05
1.60283e-05
1.56066e-05
1.5427e-05
1.44747e-05
1.5331e-05
1.58367e-05
1.64987e-05
1.72991e-05
1.72478e-05
1.64012e-05
1.57943e-05
1.55214e-05
1.53636e-05
1.45444e-05
1.50944e-05
1.57654e-05
1.56879e-05
1.59186e-05
1.58412e-05
1.5525e-05
1.55294e-05
1.54242e-05
1.54443e-05
5.20938e-05
1.48173e-05
1.54205e-05
1.54805e-05
1.51325e-05
1.50172e-05
1.51952e-05
1.54032e-05
1.56152e-05
5.11751e-05
0.000627688
5.03093e-05
1.36218e-05
1.48756e-05
1.5139e-05
1.50411e-05
1.49353e-05
1.42005e-05
4.99011e-05
0.000628775
0.000957407
0.00010818
1.44744e-05
1.47903e-05
1.82095e-05
1.60316e-05
1.3517e-05
1.64983e-05
0.000109825
0.000967625
0.000108929
1.27406e-05
1.41186e-05
1.58127e-05
1.63384e-05
1.54092e-05
1.49622e-05
1.53863e-05
1.3855e-05
0.000109304
1.47001e-05
1.33947e-05
1.47945e-05
1.49006e-05
1.39815e-05
1.4564e-05
1.55294e-05
1.53726e-05
1.45488e-05
1.31944e-05
1.23205e-05
1.35563e-05
1.43437e-05
1.41228e-05
1.3771e-05
1.44751e-05
1.52878e-05
1.51303e-05
1.44263e-05
1.26707e-05
1.31545e-05
1.42214e-05
1.47633e-05
1.49584e-05
1.5223e-05
1.54726e-05
1.54973e-05
1.50965e-05
1.44728e-05
1.34143e-05
1.33269e-05
1.45409e-05
1.53288e-05
1.59515e-05
1.64102e-05
1.63991e-05
1.58536e-05
1.50373e-05
1.42964e-05
1.33782e-05
1.24832e-05
1.36305e-05
1.4703e-05
1.57027e-05
1.62506e-05
1.6075e-05
1.53261e-05
1.44548e-05
1.37241e-05
1.27397e-05
1.56977e-05
1.26731e-05
1.34248e-05
1.43544e-05
1.49323e-05
1.48117e-05
1.4279e-05
1.36805e-05
1.33418e-05
1.5154e-05
0.000113253
1.20803e-05
1.27145e-05
1.32138e-05
1.36901e-05
1.37578e-05
1.34909e-05
1.33291e-05
1.27089e-05
0.00011201
0.000973128
0.000112455
1.39781e-05
1.17361e-05
1.25753e-05
1.27035e-05
1.21926e-05
1.41077e-05
0.000111329
0.000971933
0.00136021
0.000207243
3.03302e-05
1.53384e-05
1.44405e-05
1.21873e-05
1.17935e-05
2.87046e-05
0.000211481
0.00137768
0.000207254
1.23005e-05
1.23793e-05
1.29442e-05
1.38859e-05
1.33259e-05
1.29158e-05
1.38044e-05
1.37687e-05
0.000211516
2.85349e-05
1.15426e-05
1.1712e-05
1.19951e-05
1.2811e-05
1.33642e-05
1.33265e-05
1.36324e-05
1.37871e-05
2.8557e-05
1.2956e-05
1.25435e-05
1.26971e-05
1.26498e-05
1.27209e-05
1.32593e-05
1.36423e-05
1.37481e-05
1.39227e-05
1.36498e-05
1.59834e-05
1.48153e-05
1.43193e-05
1.37584e-05
1.33361e-05