/*--------------------------------*- C++ -*----------------------------------*\
| =========                 |                                                 |
| \\      /  F ield         | OpenFOAM: The Open Source CFD Toolbox           |
|  \\    /   O peration     | Version:  2406                                  |
|   \\  /    A nd           | Website:  www.openfoam.com                      |
|    \\/     M anipulation  |                                                 |
\*---------------------------------------------------------------------------*/
FoamFile
{
    version     2.0;
    format      ascii;
    arch        "LSB;label=32;scalar=64";
    class       volScalarField;
    location    "50";
    object      turbulenceProperties:L;
}
// * * * * * * * * * * * * * * * * * * * * * * * * * * * * * * * * * * * * * //

dimensions      [0 1 0 0 0 0 0];

internalField   nonuniform List<scalar> 
25000
(
0.0202941
0.0285778
0.0372129
0.0388678
0.0393634
0.0393502
0.0390913
0.0386726
0.0368601
0.0357022
0.0286561
0.0362508
0.0400906
0.0409999
0.041161
0.0408773
0.0401462
0.0389892
0.0371671
0.0363413
0.0377153
0.0404069
0.0418398
0.0424247
0.0425898
0.0423474
0.0416542
0.0405351
0.0389421
0.0381553
0.0392537
0.0412717
0.0425445
0.04329
0.0435943
0.0434113
0.0427149
0.0415443
0.0399613
0.0385611
0.0395872
0.0413864
0.0426994
0.0436277
0.0440606
0.0439371
0.043248
0.0420509
0.0404811
0.0387872
0.0394623
0.0410193
0.0424473
0.0434505
0.0439477
0.0438725
0.0432185
0.0420386
0.0404737
0.0388191
0.0391772
0.0402788
0.0417392
0.0427638
0.0432746
0.0432379
0.0426287
0.0415054
0.0399467
0.0386553
0.03872
0.0391082
0.0406275
0.0416011
0.0420986
0.042077
0.0415257
0.0404857
0.0389233
0.0383145
0.0368758
0.0372492
0.0390036
0.0400129
0.0405245
0.0405141
0.0399797
0.0389306
0.0371621
0.0365817
0.0357573
0.0364024
0.0382104
0.0386015
0.0388082
0.0388295
0.0386477
0.0382907
0.036541
0.03562
0.0184771
0.0258218
0.0331389
0.0330776
0.0326923
0.0324805
0.0322601
0.0319307
0.0307945
0.0302166
0.0257946
0.0301487
0.0328171
0.0332871
0.0333575
0.0331917
0.0328738
0.032463
0.0317447
0.0306818
0.0331192
0.0327957
0.0331599
0.0336005
0.0338213
0.0337523
0.0335156
0.0331815
0.0325332
0.0319333
0.033048
0.0332732
0.0335895
0.0339113
0.0341068
0.0340674
0.0338439
0.0334725
0.0328602
0.0322548
0.0327492
0.0333846
0.0338265
0.0341066
0.034249
0.0342144
0.0340052
0.033623
0.0330684
0.0324307
0.0325862
0.0332584
0.0337907
0.0340876
0.0342221
0.0341903
0.0339917
0.0336159
0.0330607
0.032444
0.0323885
0.0329688
0.0335821
0.0338834
0.0340274
0.0340012
0.0338014
0.0334492
0.0328416
0.0322935
0.0320667
0.032586
0.0332642
0.0335261
0.0336604
0.033635
0.0334549
0.0331571
0.0325102
0.0320021
0.0309054
0.0318386
0.0325949
0.0329217
0.0331103
0.0330847
0.0328495
0.0324949
0.0317876
0.030848
0.0303339
0.0307779
0.0320399
0.0323399
0.0324777
0.0324519
0.0322698
0.0319568
0.0307844
0.0302711
0.0232761
0.0334699
0.0362864
0.034886
0.0341027
0.0340729
0.0338449
0.033359
0.0326343
0.0313016
0.033422
0.0342261
0.0354401
0.0347832
0.0349194
0.0349189
0.0347156
0.0343872
0.0340804
0.0326594
0.0364546
0.0354843
0.0348984
0.0354242
0.0356556
0.0356296
0.0354202
0.0351059
0.0346041
0.0336674
0.0350007
0.0349049
0.0354715
0.0359362
0.0361242
0.0360661
0.0358316
0.0354747
0.0349239
0.0342193
0.0343176
0.0350961
0.0357666
0.0361721
0.0363481
0.0363032
0.0360787
0.0356998
0.035141
0.0344783
0.0342925
0.0351085
0.0357711
0.0361549
0.0363378
0.0363045
0.0360875
0.0357063
0.0351307
0.034483
0.0340342
0.0348812
0.0355653
0.0359266
0.0361305
0.0361039
0.0358584
0.0354883
0.0349032
0.0342371
0.0335271
0.0345596
0.0352384
0.0355654
0.0357585
0.0357298
0.0354929
0.035152
0.0345856
0.0337198
0.0327955
0.0342145
0.0346993
0.0350137
0.0351952
0.0351606
0.034915
0.0345701
0.0342029
0.0328961
0.0315505
0.0328743
0.033881
0.0343595
0.0345487
0.034499
0.0342212
0.0336839
0.0328194
0.0315195
0.0350353
0.0380453
0.0420042
0.0397675
0.0391797
0.0395516
0.0391961
0.0385075
0.0382452
0.0356993
0.0383384
0.0430517
0.0410352
0.0396154
0.0407033
0.0410845
0.0409558
0.0405049
0.0404648
0.0385866
0.0423119
0.0413614
0.0400431
0.0417151
0.0422409
0.0424177
0.0421894
0.0416502
0.0410436
0.0394735
0.0403336
0.040117
0.0419932
0.0430251
0.0433554
0.0433622
0.0430279
0.0424365
0.0416196
0.0403618
0.0397693
0.0412437
0.0426604
0.0435558
0.0439517
0.04393
0.0435555
0.0428957
0.0419063
0.040655
0.0400269
0.041524
0.0428199
0.0436393
0.0440462
0.0440151
0.0436192
0.0429304
0.0418763
0.04061
0.0395545
0.0413049
0.0425261
0.0432738
0.0437014
0.0436724
0.0432147
0.042526
0.0415559
0.0402543
0.0387019
0.0408156
0.0419171
0.0426244
0.0430245
0.0429929
0.0425478
0.0418476
0.0409943
0.0394059
0.0384176
0.0407231
0.0412203
0.0417518
0.0419924
0.0419514
0.0416213
0.0410175
0.0407211
0.0388826
0.0361729
0.0391406
0.0399143
0.0405922
0.0407711
0.0406836
0.0403213
0.0394652
0.0388328
0.0361946
0.0374351
0.0367609
0.0468259
0.0433378
0.0447304
0.0457616
0.0451506
0.0443031
0.0444032
0.0406313
0.0364117
0.0505503
0.04404
0.0447068
0.0475199
0.0482867
0.04816
0.047452
0.0475004
0.0451173
0.0465673
0.0445325
0.045359
0.0493301
0.0501883
0.0506592
0.0503216
0.049311
0.0484871
0.0461537
0.0442463
0.0454959
0.0497995
0.051745
0.0524534
0.05266
0.0520577
0.050871
0.0494761
0.0472845
0.0454942
0.0482842
0.0508215
0.052736
0.0537517
0.0538761
0.0531162
0.0517121
0.0498076
0.0474806
0.0463907
0.0488291
0.0511625
0.0529697
0.0539809
0.0540593
0.0532437
0.0517595
0.0496933
0.0472962
0.0456744
0.0485799
0.0506784
0.0522565
0.0532104
0.0532652
0.0524237
0.0509948
0.0491815
0.0467947
0.0444657
0.0477035
0.0494732
0.0509176
0.0517248
0.0517596
0.051007
0.04959
0.0481214
0.0456272
0.0443648
0.0475151
0.0483551
0.0493087
0.0496997
0.049714
0.0492927
0.0482128
0.0476002
0.045171
0.0414371
0.0456822
0.0464238
0.0472684
0.0474623
0.0473858
0.0469955
0.045847
0.0452211
0.0414643
0.0375404
0.041834
0.0489694
0.0448915
0.0492637
0.0509218
0.0498624
0.048793
0.0489842
0.0454388
0.0406461
0.0498816
0.0445505
0.0491882
0.052852
0.0534728
0.052954
0.0518921
0.0519111
0.05006
0.0491843
0.044843
0.0499721
0.0556521
0.0559842
0.0560381
0.0552882
0.0539143
0.0531476
0.0512507
0.0453732
0.04954
0.0557958
0.0581472
0.0586939
0.0585586
0.0575117
0.0558567
0.054208
0.052053
0.0494299
0.0530466
0.056194
0.058707
0.0599285
0.0599817
0.0588331
0.0568927
0.0545602
0.0519581
0.0511247
0.0537142
0.0561999
0.0585063
0.0598704
0.060054
0.0589706
0.056961
0.0544117
0.0516049
0.0502544
0.0532886
0.0554462
0.0573983
0.0586617
0.0588716
0.0578736
0.0560055
0.0537859
0.0510366
0.0487951
0.0520619
0.0538816
0.0556383
0.0566754
0.0568199
0.0559639
0.0541794
0.0524288
0.0498953
0.0485033
0.0515687
0.0525937
0.0537331
0.0542637
0.0543591
0.053901
0.0525533
0.0516066
0.0494324
0.0458474
0.0500309
0.0507742
0.0515007
0.0517219
0.0517456
0.0514153
0.0503088
0.0495699
0.0459479
0.0426336
0.045692
0.0421819
0.0442302
0.0516398
0.0539276
0.0526724
0.051086
0.0510187
0.0484399
0.0462984
0.0430768
0.0450603
0.052208
0.0549674
0.0558083
0.054841
0.0534335
0.0534365
0.0522657
0.0431749
0.0452068
0.0537486
0.0581934
0.0580746
0.0575284
0.0563512
0.0548762
0.0543668
0.0533999
0.044228
0.0516659
0.0576625
0.0602321
0.0601184
0.0593703
0.0580687
0.056429
0.0550608
0.0536739
0.0510987
0.054177
0.0573399
0.059695
0.0603758
0.0601541
0.0590302
0.0572904
0.0553872
0.0533455
0.0533828
0.0553948
0.0570503
0.0588473
0.0598512
0.0599761
0.0590353
0.0573269
0.0552898
0.0529743
0.0525956
0.0547363
0.0560716
0.0575815
0.0586459
0.0588514
0.0580389
0.0564803
0.0546977
0.0524344
0.0509921
0.0533226
0.0545236
0.0559565
0.0568912
0.0570671
0.0563738
0.054851
0.0534219
0.051451
0.0503411
0.0524891
0.0533356
0.0543426
0.0549538
0.0551315
0.0547319
0.0535344
0.0526062
0.0510621
0.0484316
0.0515426
0.052069
0.0525924
0.052924
0.0530726
0.0528416
0.0519065
0.051181
0.0484528
0.0406646
0.0368716
0.037418
0.0438476
0.0514813
0.0540762
0.0530611
0.0511729
0.0508295
0.0496286
0.0383538
0.0391344
0.0463649
0.0514488
0.0531975
0.0548619
0.0538839
0.0523559
0.0522197
0.0519707
0.0379787
0.0459012
0.0530801
0.0554807
0.0561607
0.0557534
0.0545526
0.0531046
0.052638
0.0527587
0.0433691
0.050261
0.0545382
0.057799
0.057618
0.0568767
0.0556831
0.0541883
0.0530251
0.0524917
0.0506702
0.0520841
0.0548026
0.0568966
0.0573538
0.0571815
0.0562694
0.0548449
0.0534383
0.0521456
0.0527717
0.0540075
0.0548986
0.0561594
0.0568343
0.0569047
0.0561893
0.0549141
0.0535299
0.0519631
0.0521329
0.0533626
0.0540685
0.0550913
0.0558701
0.0560051
0.0554039
0.0543112
0.0531421
0.051586
0.0506603
0.0520529
0.0527198
0.0537583
0.054501
0.0546584
0.0541758
0.0531247
0.0521647
0.0508347
0.0497109
0.0509657
0.0516225
0.0525057
0.0531647
0.0533993
0.0531191
0.0522458
0.0515258
0.0506747
0.0487287
0.0505295
0.0508088
0.0512871
0.051827
0.0521445
0.0520393
0.0514064
0.0508743
0.0493006
0.0353777
0.0330489
0.0368862
0.0445249
0.0502365
0.0529746
0.0525468
0.0506479
0.049859
0.0493552
0.0341267
0.0393295
0.0478249
0.049376
0.0514789
0.0536009
0.0528793
0.0513817
0.0508879
0.0510215
0.03706
0.046838
0.0500689
0.0527832
0.0542184
0.0541265
0.0531531
0.051791
0.0510897
0.0514357
0.0442997
0.0483669
0.05167
0.0550965
0.0551148
0.0547465
0.0537887
0.0524573
0.0513647
0.0509989
0.0502861
0.0507696
0.0526672
0.0542891
0.0547548
0.0547502
0.054048
0.0528841
0.0518311
0.0509869
0.0519105
0.0529253
0.0533181
0.0540923
0.0544891
0.0544838
0.0539055
0.0529697
0.0520919
0.0511212
0.0513503
0.0523528
0.0527773
0.0534178
0.053846
0.0538245
0.0533445
0.0526157
0.0518867
0.0508241
0.0500931
0.051219
0.0516918
0.0523976
0.0528637
0.0528908
0.0525131
0.0517844
0.0511069
0.0500809
0.0489383
0.0499184
0.0505632
0.0513765
0.0519615
0.0521197
0.0518209
0.0510994
0.0504933
0.0498496
0.0479795
0.0490345
0.0494667
0.0502475
0.0510447
0.0514015
0.0511906
0.0505827
0.0501046
0.0491712
0.0352906
0.0344843
0.0403494
0.0465684
0.0500052
0.0523023
0.0519957
0.0502535
0.0491311
0.0490636
0.0350037
0.0419294
0.0483548
0.0489094
0.0510288
0.0525435
0.0520264
0.0505993
0.0496345
0.0502813
0.0395474
0.0471876
0.0489486
0.0520085
0.0528131
0.0527606
0.0519776
0.0506626
0.0496247
0.0500326
0.0468114
0.0481509
0.050735
0.0531167
0.0531841
0.0530809
0.0522657
0.0510505
0.0499627
0.0495934
0.051031
0.0509465
0.0515445
0.052523
0.0529075
0.0529269
0.0523223
0.0513877
0.0506419
0.0501274
0.0519266
0.0525784
0.052552
0.0528997
0.0529203
0.0527116
0.0522127
0.0515815
0.0511303
0.0506323
0.0512256
0.0520436
0.0522421
0.0525153
0.0525441
0.0523158
0.0518811
0.0514189
0.0510364
0.0503666
0.0501827
0.0511061
0.0513025
0.051709
0.0519201
0.0517911
0.0513775
0.0508116
0.0503283
0.0495446
0.0488603
0.0497754
0.0502193
0.050904
0.0514019
0.0514192
0.050962
0.0502227
0.0496924
0.0492252
0.0477526
0.0485466
0.0489883
0.0499008
0.0507724
0.0510414
0.0506219
0.0499753
0.0495801
0.0490042
0.0381156
0.0387572
0.0449841
0.0483279
0.0504995
0.051906
0.051818
0.0503888
0.048844
0.0490418
0.0382494
0.0447121
0.049064
0.050262
0.0511353
0.0519339
0.0518978
0.0506262
0.0490546
0.0496474
0.0429613
0.0477179
0.0498984
0.0520576
0.0520254
0.0522884
0.0517713
0.0504353
0.0489327
0.0488274
0.0489136
0.0491099
0.0506321
0.0520176
0.0525461
0.0527732
0.0520031
0.0507421
0.0495076
0.0487893
0.0520088
0.0515117
0.0512706
0.0522134
0.0527636
0.0528001
0.0521586
0.0512451
0.0505565
0.0500764
0.0523173
0.0526857
0.0527904
0.0532083
0.0531179
0.0527503
0.0521822
0.0516033
0.0512974
0.050994
0.0518065
0.0524108
0.0525992
0.0528763
0.0528293
0.0524635
0.0519059
0.0514317
0.0511976
0.0507657
0.0510805
0.0517012
0.0516463
0.0519986
0.0522331
0.0520167
0.0514042
0.05075
0.0503943
0.0498308
0.0496779
0.0504116
0.0505657
0.0511947
0.0517274
0.0516581
0.0509781
0.0501016
0.0496536
0.0493041
0.0483508
0.049111
0.0494063
0.0502686
0.0511089
0.0512479
0.050636
0.0498954
0.0495686
0.0490757
0.0446557
0.0453598
0.0493237
0.0504956
0.0510691
0.0518999
0.0522077
0.051065
0.0491205
0.0492507
0.0430947
0.0468152
0.0507221
0.0518002
0.0511069
0.0518872
0.0523778
0.0512718
0.0488188
0.0488255
0.0462567
0.0485975
0.0511308
0.051802
0.0516929
0.0524629
0.0522619
0.0509205
0.0487211
0.047545
0.0503389
0.0500319
0.0505749
0.0517308
0.0528989
0.0533972
0.0527059
0.0513312
0.0496954
0.0482609
0.0525227
0.0518452
0.0516476
0.0530464
0.0538634
0.0539485
0.0532179
0.0521105
0.0511412
0.0503901
0.0525406
0.0530058
0.053642
0.0545233
0.0546333
0.0542225
0.0534589
0.0526056
0.0520661
0.0517038
0.0524941
0.0529391
0.0533731
0.0540353
0.0542613
0.0539022
0.0530877
0.0523045
0.0519261
0.0515358
0.0520436
0.0523514
0.0522322
0.052839
0.0533513
0.0531684
0.0523144
0.0513884
0.0509385
0.0505088
0.0505934
0.0510622
0.0510264
0.0518001
0.0525228
0.0524653
0.0516088
0.0504757
0.0499316
0.0498195
0.049279
0.0500472
0.0500705
0.0508072
0.0516504
0.0517439
0.0510206
0.0502055
0.0499798
0.0495195
0.0509846
0.0493823
0.0511116
0.051708
0.0505337
0.0518188
0.0527341
0.0516484
0.0490807
0.0485184
0.0469335
0.0480223
0.0512832
0.050997
0.0505109
0.0525398
0.0535148
0.0523568
0.0488969
0.0469791
0.0482293
0.0486581
0.0502158
0.0505139
0.0515901
0.0533266
0.0536311
0.0523322
0.0493859
0.0462578
0.0509009
0.0497928
0.0499138
0.0516598
0.0536305
0.0545135
0.0542298
0.0529873
0.050923
0.048367
0.0524271
0.0518731
0.0523055
0.0542895
0.0553173
0.0555835
0.0550984
0.0540112
0.0526928
0.051391
0.0525624
0.0536394
0.0550108
0.0562929
0.0566337
0.0563769
0.0556262
0.0545825
0.0536779
0.0529003
0.05304
0.053843
0.0547527
0.0558549
0.0564333
0.0562104
0.0552646
0.0541715
0.0533894
0.0525744
0.052698
0.053162
0.0534311
0.0544678
0.0553194
0.0552378
0.0542398
0.0529653
0.052044
0.0511887
0.0511879
0.0515947
0.0518353
0.0530391
0.0540424
0.0540526
0.0530492
0.051478
0.0503415
0.0500268
0.0496725
0.0505095
0.0505756
0.0515868
0.0526173
0.0526978
0.0517506
0.0504878
0.0499704
0.049414
0.0543435
0.0500621
0.0511222
0.0519752
0.0499745
0.0519897
0.053514
0.0523927
0.0488684
0.0467509
0.0494334
0.0489539
0.051125
0.0495488
0.0498855
0.0536566
0.0551679
0.0537157
0.0494156
0.0448859
0.0496561
0.048801
0.0490003
0.0490955
0.0511978
0.0544664
0.0556159
0.0541495
0.0507952
0.0456026
0.0519795
0.0498751
0.0492529
0.051068
0.0535683
0.0552634
0.0559502
0.0551285
0.0528843
0.0494243
0.0530811
0.0521727
0.0526674
0.0546801
0.0556863
0.0563586
0.0567561
0.056351
0.0549655
0.0530875
0.0528348
0.0542999
0.0561968
0.0574077
0.0576506
0.0576902
0.0575066
0.0569044
0.0558472
0.0543381
0.0531833
0.0548056
0.0562768
0.0574572
0.0581012
0.0580862
0.057408
0.0564007
0.0551833
0.0535638
0.0527248
0.0538628
0.0548703
0.0562956
0.0573427
0.0573811
0.0564367
0.0549425
0.0533811
0.051618
0.051115
0.0518226
0.0528471
0.0546676
0.0559391
0.0560038
0.0548842
0.0528433
0.0507741
0.0496286
0.0492655
0.0503793
0.0509115
0.0526114
0.0539542
0.0539888
0.05271
0.0506938
0.0493425
0.048387
0.0560327
0.0505132
0.0514443
0.0523271
0.0500257
0.052382
0.0545887
0.0537345
0.049385
0.0449427
0.0513352
0.0501516
0.0515054
0.0490154
0.0496979
0.0544764
0.0566827
0.0554386
0.0510506
0.0441707
0.0512468
0.0499154
0.0489737
0.0484194
0.0507119
0.0553419
0.057455
0.0558988
0.0530189
0.046534
0.0538826
0.0512471
0.0494035
0.0503481
0.0526842
0.0554766
0.0576196
0.0573063
0.0553099
0.0516843
0.0546288
0.053088
0.0529578
0.0541908
0.0548982
0.0563112
0.0581681
0.0588568
0.057536
0.0550631
0.0533982
0.0546657
0.0566609
0.0575823
0.057643
0.0581239
0.0588809
0.0590786
0.0579402
0.0556311
0.0530803
0.0553096
0.0571838
0.0584382
0.0591204
0.0592638
0.0589481
0.0581655
0.0567251
0.0545475
0.0526237
0.054454
0.0559904
0.0577717
0.0590226
0.0590794
0.0581105
0.0565404
0.0548449
0.0523614
0.0510295
0.0522884
0.0540383
0.0562798
0.0576936
0.0577205
0.0565378
0.0544626
0.0519149
0.0495802
0.048451
0.0502632
0.051588
0.0538952
0.0553554
0.055322
0.0539843
0.0515021
0.0491261
0.0470667
0.0581212
0.0509509
0.0525411
0.0527072
0.0500686
0.0524273
0.0554953
0.0556287
0.0514359
0.0453869
0.0528951
0.0513545
0.0515915
0.0483938
0.04918
0.0540388
0.0573488
0.0571374
0.0533182
0.0460232
0.0526667
0.0510592
0.0489119
0.0477824
0.0499599
0.0550101
0.0580127
0.0574812
0.0554093
0.0493151
0.055314
0.0523734
0.0495575
0.0496892
0.0517442
0.0553102
0.0585694
0.0590101
0.0576656
0.0543708
0.0556807
0.0532119
0.0527184
0.0534998
0.0541875
0.056349
0.0592456
0.0604142
0.0591151
0.0564617
0.0534103
0.0540111
0.0558378
0.0570436
0.0575175
0.0584499
0.0596428
0.0599243
0.0586089
0.05635
0.0525747
0.0547461
0.0567166
0.0583645
0.0594929
0.0597742
0.0594352
0.0586589
0.0573232
0.0552671
0.0527752
0.054404
0.0560927
0.0580753
0.0595008
0.0595787
0.0586407
0.0573226
0.0559002
0.0534792
0.0516661
0.0528228
0.0546362
0.0568872
0.05815
0.0582178
0.0573893
0.0557497
0.053392
0.0506429
0.048725
0.0510582
0.0526653
0.0547734
0.0559944
0.0560407
0.0551322
0.0530187
0.0502277
0.0472189
0.0656716
0.053197
0.055526
0.0528744
0.049923
0.0517764
0.0550366
0.0571806
0.054183
0.0496593
0.0540471
0.0522232
0.0508595
0.0477012
0.0488335
0.0531605
0.0563875
0.0572985
0.055715
0.0499751
0.0540289
0.051813
0.0487863
0.0476879
0.0499299
0.0546301
0.0576719
0.058123
0.0572257
0.0533222
0.0564458
0.0528989
0.0499324
0.0500364
0.0522198
0.0560314
0.0592119
0.0598976
0.0591701
0.0566213
0.0560824
0.0529785
0.0526702
0.0539134
0.0552381
0.0578081
0.0602944
0.0606072
0.0592144
0.0570802
0.0526342
0.0533511
0.0552576
0.0571722
0.0586063
0.0597427
0.0602886
0.0596805
0.0579744
0.0560663
0.0516665
0.0535496
0.0560762
0.0583267
0.0599321
0.060235
0.0595663
0.058375
0.0567131
0.0550456
0.0531205
0.0533967
0.055202
0.05762
0.059101
0.0592234
0.0583744
0.0570272
0.0557892
0.0543507
0.0527101
0.0531247
0.0540853
0.0560298
0.057192
0.0574265
0.0570055
0.05595
0.0545529
0.0521664
0.0520813
0.0521218
0.0535836
0.0546789
0.0553106
0.0555347
0.0554793
0.0544875
0.0519383
0.0507618
0.0648891
0.0546439
0.0552453
0.0511051
0.0493192
0.0501824
0.0524047
0.0564797
0.0546557
0.0654876
0.0545334
0.0517576
0.0490494
0.0470324
0.0484751
0.0513828
0.0527257
0.0542001
0.0559558
0.0527313
0.0546419
0.0514921
0.0485516
0.048008
0.0501435
0.0538043
0.0554886
0.0553112
0.0563344
0.0556288
0.0565586
0.0525556
0.0502228
0.0507761
0.0531155
0.0565052
0.058441
0.0578579
0.0573718
0.0571442
0.0553412
0.0524772
0.0525646
0.0544218
0.056459
0.0588643
0.0599544
0.0588415
0.0570208
0.0560558
0.0510389
0.0523038
0.054741
0.0572003
0.0592073
0.0602436
0.0600007
0.058364
0.0557487
0.053729
0.0500863
0.0513292
0.0546075
0.0576682
0.0594617
0.0597828
0.0588081
0.0566831
0.0541172
0.0528659
0.0523143
0.0512397
0.0527557
0.0556143
0.0574388
0.0576426
0.0564608
0.0545493
0.0535262
0.0534764
0.0522517
0.0521994
0.0521682
0.0534718
0.0546141
0.054914
0.0544789
0.0539916
0.0537939
0.0520769
0.0636809
0.0519057
0.0532715
0.0532963
0.0529961
0.0532251
0.0541355
0.0543394
0.052126
0.063663
0.0378622
0.0513901
0.0492579
0.0481664
0.0492812
0.0494872
0.0498857
0.0535194
0.0533251
0.0446231
0.0540689
0.0494975
0.0477793
0.0478454
0.0495525
0.0507082
0.0501942
0.0515604
0.0546854
0.0523454
0.0541071
0.0513154
0.0501135
0.0503082
0.0517332
0.053771
0.0538191
0.0529727
0.0551657
0.0551367
0.0557091
0.0534108
0.0523921
0.0529349
0.0545721
0.0568609
0.0572797
0.0554363
0.0552463
0.0564982
0.0546368
0.0535233
0.0539349
0.0555305
0.0572379
0.0588407
0.0588609
0.0568475
0.0547686
0.0546621
0.0506345
0.0523105
0.0549873
0.0573291
0.0589182
0.0595742
0.059025
0.0568805
0.0537106
0.0515501
0.0494743
0.0505556
0.0536719
0.056714
0.0583334
0.05859
0.0575213
0.0550576
0.0521768
0.0506405
0.0507619
0.0504164
0.0517766
0.054054
0.0556595
0.055866
0.054678
0.0528193
0.0517907
0.0514265
0.050625
0.0508558
0.0514114
0.0521905
0.0527443
0.0528859
0.0526153
0.0524098
0.052152
0.0508451
0.0443103
0.0504476
0.0519125
0.052148
0.0514897
0.0514867
0.0525091
0.0527754
0.0510582
0.0447705
0.0233943
0.0446244
0.0440924
0.0471731
0.0513016
0.0510253
0.0487534
0.0495525
0.0515993
0.024626
0.0513115
0.0473032
0.0479081
0.0499919
0.0521371
0.0518786
0.049956
0.0504761
0.0526094
0.0526752
0.0522888
0.0515959
0.0523462
0.0533163
0.0536775
0.0540033
0.05329
0.0526401
0.054525
0.0533379
0.0543781
0.054446
0.0550698
0.0550452
0.0549201
0.0557872
0.055803
0.0543236
0.0545305
0.0551156
0.0544082
0.0550919
0.0555241
0.0557411
0.0559699
0.0567759
0.0567925
0.0551424
0.0536734
0.0539399
0.0516726
0.0532514
0.0548578
0.0560196
0.0566243
0.0570102
0.0567386
0.0550528
0.0525808
0.0508662
0.0497366
0.0514552
0.0534569
0.0550355
0.0558035
0.0559925
0.0554813
0.0539333
0.0516325
0.0494313
0.0486926
0.0508528
0.0525297
0.0535645
0.0539353
0.0539928
0.0536577
0.0526174
0.0512109
0.0490663
0.0484451
0.0494202
0.0516427
0.0525627
0.052383
0.0522444
0.0522825
0.0518273
0.0503539
0.0496854
0.0246443
0.0487922
0.0499479
0.05153
0.0516144
0.0514676
0.0515727
0.0506702
0.050178
0.0245707
0.0160248
0.0390143
0.0415741
0.0479919
0.0532363
0.0533656
0.0493158
0.0469023
0.0499238
0.0163104
0.0481672
0.0470422
0.0494029
0.0516342
0.0549822
0.0552488
0.0519883
0.0509732
0.0514065
0.0576618
0.0519497
0.0525008
0.0525097
0.0542677
0.0559717
0.0556411
0.0543178
0.0538326
0.0542706
0.0522159
0.0537301
0.0540289
0.0555916
0.0562278
0.0552195
0.05509
0.0552373
0.0548722
0.0549785
0.0535504
0.0540258
0.0557245
0.0566196
0.055668
0.0543822
0.0545013
0.0550036
0.0546251
0.0541526
0.0538794
0.0532628
0.054765
0.0550717
0.0546212
0.0540149
0.0540885
0.054406
0.0539633
0.0529062
0.0519312
0.0512028
0.0532819
0.0540476
0.054075
0.0536266
0.0536506
0.0540248
0.0537235
0.052391
0.0500265
0.0482316
0.0520173
0.0535419
0.0541219
0.0535471
0.0534293
0.0538665
0.0533845
0.0518304
0.0481407
0.0478646
0.0495166
0.0521692
0.0534926
0.0536458
0.0534723
0.0533225
0.0523081
0.0499177
0.0495438
0.0162992
0.0486935
0.0491876
0.0516926
0.0528471
0.0529115
0.0519425
0.0498199
0.050869
0.01623
0.0120661
0.0368977
0.0441268
0.0518061
0.0523807
0.0534558
0.0511024
0.0468507
0.0435898
0.0120795
0.0436369
0.0497547
0.0517767
0.0513489
0.0546101
0.0566054
0.0532841
0.0514428
0.0515525
0.0516996
0.0550552
0.0536228
0.0508583
0.0524366
0.0566912
0.0565108
0.0539838
0.0533644
0.0535234
0.0531955
0.0540149
0.0528388
0.053656
0.0554916
0.0552896
0.0545559
0.0543914
0.0546263
0.054583
0.0527924
0.053512
0.0545208
0.0558025
0.0548212
0.0528726
0.052558
0.0534455
0.0542646
0.0544878
0.0536912
0.0540511
0.0546473
0.0544657
0.0531128
0.0516827
0.0515499
0.0525099
0.0533217
0.0534405
0.0532241
0.053427
0.0537579
0.0536253
0.0530564
0.0519306
0.0519115
0.0529405
0.0534101
0.0530923
0.0518626
0.0505985
0.0529823
0.0529163
0.0537647
0.0533945
0.0533729
0.0538918
0.0534762
0.0528088
0.049662
0.0431282
0.0515772
0.0524961
0.0533132
0.0543543
0.0545362
0.0539965
0.0530495
0.0511703
0.0440166
0.0120541
0.0448979
0.0514196
0.0527219
0.0535917
0.0539243
0.053144
0.051568
0.0457463
0.0120189
0.00979113
0.0297369
0.0518601
0.0551362
0.0500456
0.0521258
0.0538598
0.0501143
0.0304615
0.00975271
0.0305095
0.0543962
0.0541548
0.0513525
0.0526978
0.0549222
0.0536629
0.0524042
0.0536793
0.0314493
0.0595064
0.0551693
0.05122
0.0520512
0.056536
0.0562131
0.053256
0.0528902
0.0539576
0.0579571
0.0556699
0.0536967
0.0533362
0.0551802
0.0561277
0.0550534
0.0539914
0.054174
0.0547118
0.0546124
0.0550715
0.0544852
0.05503
0.054536
0.053034
0.0525625
0.0532589
0.0543809
0.0550506
0.0549718
0.0559418
0.0549015
0.0542582
0.0527884
0.0512986
0.0511579
0.0523841
0.0538952
0.0547569
0.0552707
0.0570234
0.0552972
0.0542483
0.053096
0.0518397
0.0519168
0.0532537
0.0543212
0.054957
0.0553494
0.0566923
0.0558265
0.054448
0.0545034
0.05408
0.0542119
0.0547888
0.0548603
0.0552268
0.0550155
0.0299683
0.0563214
0.0552176
0.0550254
0.0556071
0.0558201
0.0555398
0.0552493
0.0548645
0.0302365
0.0097267
0.0304975
0.0585761
0.0562468
0.0557918
0.0559732
0.0561345
0.0573708
0.0306214
0.00971689
0.00847204
0.0211261
0.0566834
0.0562882
0.0508026
0.054144
0.0588816
0.0530944
0.0209604
0.00842123
0.0210431
0.0605963
0.0577216
0.0544711
0.0535403
0.0551303
0.0559946
0.0552807
0.0581149
0.0209975
0.0562497
0.0592442
0.0562274
0.0559413
0.0577172
0.0565509
0.0547961
0.0551616
0.0568654
0.0593754
0.0616777
0.0588244
0.0570148
0.0573957
0.0581063
0.0566754
0.0551658
0.0555159
0.0570297
0.0608235
0.0597752
0.0573853
0.0561672
0.0557522
0.0552552
0.0548078
0.0547748
0.055545
0.0568867
0.0591946
0.0593882
0.0567524
0.0551219
0.053989
0.053219
0.0532369
0.0541556
0.0556542
0.0572366
0.059274
0.061277
0.0586702
0.0563164
0.0544318
0.0534895
0.0537809
0.0550967
0.0567981
0.0584704
0.0606561
0.0544344
0.0609276
0.0590274
0.0569944
0.0558486
0.0560756
0.0571448
0.0584737
0.0593819
0.0554017
0.0206345
0.0622364
0.0608114
0.0595838
0.058489
0.0583451
0.058969
0.0593937
0.0606784
0.0207486
0.00840011
0.0207097
0.0576835
0.063193
0.0611341
0.0608251
0.0619994
0.0574184
0.0208123
0.0084011
0.00769576
0.0157588
0.0391764
0.0551363
0.0569312
0.0619718
0.0628809
0.0402688
0.0156024
0.00765282
0.0157473
0.0615263
0.0616156
0.0602225
0.0580988
0.0593065
0.0602859
0.0583383
0.058157
0.015585
0.0403865
0.063794
0.0632184
0.0623673
0.0603094
0.0590477
0.0591691
0.0585992
0.0583914
0.0403681
0.0599957
0.0611717
0.0606163
0.0606538
0.060462
0.0592216
0.0584064
0.0582569
0.0580705
0.058455
0.0541168
0.0562456
0.0570437
0.0581373
0.0590367
0.058786
0.0578555
0.0574799
0.0576609
0.0583633
0.054162
0.054307
0.0546484
0.0560437
0.0572243
0.0575185
0.0572077
0.057141
0.0578546
0.0604193
0.0578507
0.0565648
0.0545759
0.0550848
0.0563066
0.05704
0.057242
0.0575761
0.0591845
0.0619235
0.0387232
0.0615485
0.0575897
0.056187
0.0568612
0.0577352
0.0580932
0.0591031
0.0611016
0.0395289
0.0154737
0.0598862
0.0614073
0.058799
0.0581103
0.0584765
0.059325
0.0605686
0.0599305
0.0155234
0.00764101
0.015465
0.0392975
0.0613363
0.0595016
0.0588121
0.0597429
0.0396943
0.0155262
0.00764326
0.00724491
0.0126731
0.0279427
0.0513569
0.0680173
0.0670879
0.0532478
0.0281158
0.0125391
0.00721508
0.0126854
0.0516195
0.0646538
0.0624244
0.0626164
0.0643173
0.0614456
0.0586468
0.0472516
0.0125244
0.0283598
0.0625715
0.060425
0.0609352
0.0616341
0.0632277
0.0627974
0.0578334
0.0548624
0.0276224
0.0443876
0.0531898
0.0558753
0.0602023
0.0624334
0.0630078
0.0630144
0.0590044
0.0539721
0.0437853
0.0431708
0.0488268
0.0540262
0.0601509
0.0638834
0.0642586
0.0623912
0.0587081
0.0544153
0.048618
0.0452424
0.0480577
0.0512953
0.0573998
0.0628402
0.0638775
0.0608606
0.0568873
0.0546193
0.0534417
0.0478042
0.050854
0.0494315
0.0533932
0.059063
0.0610948
0.0583768
0.0550492
0.0557522
0.0513459
0.0277143
0.0587205
0.0514071
0.0514561
0.0552929
0.0575502
0.0558604
0.055209
0.0596523
0.0278739
0.0125112
0.048428
0.0573328
0.0527203
0.0528986
0.0540099
0.0547222
0.0576704
0.0482506
0.012532
0.00721472
0.0124955
0.0276977
0.04798
0.0495282
0.0486411
0.0464141
0.0277552
0.0125242
0.00721337
0.00699781
0.0108288
0.0210619
0.0400513
0.0547812
0.0506228
0.038647
0.0208425
0.010716
0.00698094
0.0108339
0.0376683
0.0665511
0.058623
0.0593311
0.06062
0.0569707
0.056909
0.0349319
0.0107035
0.0210943
0.0577798
0.0537283
0.0537206
0.058398
0.0631441
0.0593194
0.0534516
0.0505131
0.0205635
0.0343212
0.0468314
0.0493172
0.0551591
0.0617388
0.0654892
0.0638255
0.0558269
0.049327
0.0337837
0.0373159
0.0437581
0.0492938
0.0585748
0.0666097
0.068738
0.0653471
0.0573748
0.0505029
0.0407827
0.0401477
0.0445467
0.0480283
0.0564044
0.06625
0.0689333
0.0628065
0.0553973
0.0516172
0.0452034
0.0377506
0.0488723
0.0467583
0.051366
0.0595003
0.0630829
0.0580033
0.0528169
0.0536949
0.038484
0.020878
0.060346
0.049337
0.0488712
0.0531041
0.0558126
0.053501
0.0528432
0.060113
0.0208729
0.0107392
0.0360923
0.0572802
0.0503459
0.0497211
0.0505047
0.0514945
0.0561671
0.03575
0.0107377
0.00698757
0.010728
0.0208527
0.0372351
0.0429028
0.0418499
0.0360149
0.020792
0.0107294
0.006982
0.0068666
0.00968508
0.0166514
0.0294659
0.0388902
0.0374815
0.0284805
0.0163852
0.00960576
0.00686809
0.00968371
0.0274902
0.0720114
0.0558659
0.0540135
0.0544439
0.0538707
0.0578654
0.0260458
0.0095966
0.0166136
0.0553295
0.0509778
0.0498621
0.0541418
0.058244
0.0548596
0.0514073
0.0495972
0.016291
0.0275942
0.0453268
0.0466599
0.0513783
0.0589537
0.0638967
0.0606435
0.053616
0.0485053
0.0270435
0.0344338
0.0433486
0.047273
0.0557606
0.0654884
0.069556
0.0650998
0.0564152
0.0503987
0.0354441
0.0366881
0.0458165
0.0480353
0.0557191
0.0660112
0.0701783
0.0638596
0.0560546
0.0529426
0.0377725
0.0288905
0.0525795
0.0488261
0.052543
0.0599296
0.0637899
0.0592841
0.0545565
0.0566841
0.0287552
0.0164983
0.0675037
0.0528865
0.0513152
0.0542824
0.0563631
0.0548245
0.0549377
0.0664127
0.016476
0.00964143
0.0266032
0.0627552
0.0540339
0.0520425
0.0519375
0.0530248
0.059295
0.0265099
0.00963303
0.00687414
0.00963475
0.0165032
0.0287308
0.0377021
0.036929
0.0282052
0.0164558
0.00962986
0.0068703
0.00681633
0.00896297
0.013751
0.0221874
0.0287905
0.0284001
0.0217251
0.0135511
0.0089152
0.00682995
0.00895612
0.0207454
0.0774672
0.0559543
0.0516003
0.051612
0.0538887
0.0591612
0.0200023
0.00890774
0.0137226
0.0544922
0.0513196
0.0493835
0.051605
0.0541177
0.053059
0.052074
0.0502894
0.0135335
0.0220107
0.0479783
0.0474797
0.0502076
0.0557772
0.0594589
0.0576429
0.0540387
0.0516321
0.0215842
0.0293212
0.0475995
0.0486238
0.0542318
0.0613915
0.0650008
0.0624617
0.0574239
0.0548872
0.0288278
0.0296216
0.0521358
0.0517836
0.0569067
0.06357
0.066615
0.0637235
0.0591398
0.0588272
0.0292509
0.0220717
0.05893
0.0552912
0.057693
0.0618191
0.0638958
0.0618964
0.0591564
0.0624523
0.0219689
0.01365
0.0606018
0.0576689
0.0583889
0.0596572
0.0599485
0.058817
0.0581989
0.0656529
0.0136385
0.00893984
0.0203151
0.0604848
0.0613653
0.0604913
0.0588548
0.0582306
0.0602763
0.0202974
0.00893574
0.00682706
0.00893756
0.0136655
0.022133
0.0296777
0.0295101
0.0219959
0.0136425
0.00893741
0.00682793
0.00681012
0.0085001
0.0118486
0.0175034
0.0221109
0.0220039
0.0172942
0.0117287
0.00848258
0.00683608
0.00849325
0.0164529
0.0571361
0.0562742
0.0513008
0.0515315
0.0556626
0.0495259
0.0160748
0.00847928
0.0118288
0.0489081
0.0523802
0.0506131
0.0508853
0.0523923
0.0535459
0.0543587
0.0461692
0.0117306
0.0176049
0.0544799
0.0508047
0.0512462
0.0537755
0.0559538
0.0566814