/*--------------------------------*- C++ -*----------------------------------*\
| =========                 |                                                 |
| \\      /  F ield         | OpenFOAM: The Open Source CFD Toolbox           |
|  \\    /   O peration     | Version:  2406                                  |
|   \\  /    A nd           | Website:  www.openfoam.com                      |
|    \\/     M anipulation  |                                                 |
\*---------------------------------------------------------------------------*/
FoamFile
{
    version     2.0;
    format      ascii;
    arch        "LSB;label=32;scalar=64";
    class       volVectorField;
    location    "50";
    object      U;
}
// * * * * * * * * * * * * * * * * * * * * * * * * * * * * * * * * * * * * * //

dimensions      [0 1 -1 0 0 0 0];

internalField   nonuniform List<vector> 
25000
(
(0.00493406 0.00478552 1.00216)
(0.00063723 0.00377142 1.00222)
(0.000887781 0.00408238 1.00228)
(0.000450992 0.00416986 1.00231)
(-0.000202059 0.00421332 1.00235)
(-0.000989176 0.00426368 1.0024)
(-0.00186858 0.00436012 1.0025)
(-0.00281465 0.00450474 1.00265)
(-0.00382529 0.00473654 1.00284)
(-0.00537733 0.00525375 1.00309)
(0.00406591 0.000498614 1.00223)
(0.00213237 0.00193747 1.00212)
(0.00134774 0.0025667 1.00208)
(0.000648078 0.00286982 1.00206)
(-9.7378e-05 0.00301945 1.00207)
(-0.000899082 0.00311236 1.00212)
(-0.0017556 0.00320093 1.00222)
(-0.00266634 0.00330481 1.00237)
(-0.00365032 0.00343344 1.00257)
(-0.00486856 0.00359323 1.00285)
(0.00420823 0.000901638 1.0023)
(0.00273761 0.00125816 1.00208)
(0.00172855 0.0016109 1.00197)
(0.000861566 0.00183917 1.0019)
(3.16575e-05 0.00197896 1.00189)
(-0.000797074 0.00207769 1.00193)
(-0.00165291 0.00216496 1.00202)
(-0.00255211 0.0022579 1.00217)
(-0.00352076 0.0023618 1.00238)
(-0.00464535 0.00248764 1.00268)
(0.00424315 0.000503798 1.00232)
(0.00298191 0.000625748 1.00206)
(0.00194064 0.000800433 1.0019)
(0.00101276 0.000941544 1.00181)
(0.000141588 0.00104918 1.00179)
(-0.000707509 0.00113335 1.00182)
(-0.00156674 0.00120794 1.0019)
(-0.00246347 0.00128179 1.00205)
(-0.00343028 0.00135587 1.00226)
(-0.00451249 0.0014372 1.00256)
(0.00424065 -0.000156576 1.00234)
(0.00309394 -9.3623e-05 1.00207)
(0.00205885 3.49871e-06 1.00189)
(0.00111335 9.76499e-05 1.00178)
(0.000224696 0.000177273 1.00175)
(-0.000637392 0.000242635 1.00177)
(-0.00150434 0.000296359 1.00185)
(-0.00240763 0.000341699 1.00199)
(-0.00337719 0.000380831 1.0022)
(-0.00443871 0.000417222 1.0025)
(0.00428225 -0.000957038 1.0024)
(0.00315797 -0.000891132 1.00211)
(0.00213634 -0.00081264 1.00192)
(0.00118793 -0.000737754 1.00181)
(0.000287087 -0.000673722 1.00176)
(-0.000589129 -0.000626839 1.00178)
(-0.00146975 -0.000596538 1.00186)
(-0.00238279 -0.000581543 1.002)
(-0.00336131 -0.000579303 1.00221)
(-0.00442954 -0.000589161 1.0025)
(0.00436119 -0.00184923 1.00249)
(0.00323152 -0.00175292 1.00221)
(0.0022084 -0.00166569 1.00201)
(0.00125185 -0.00159061 1.00189)
(0.000336221 -0.00153452 1.00184)
(-0.000560436 -0.00150184 1.00185)
(-0.00146007 -0.0014927 1.00193)
(-0.00239075 -0.00150879 1.00207)
(-0.00338354 -0.00154417 1.00227)
(-0.00448453 -0.00160123 1.00257)
(0.00450176 -0.00280598 1.00264)
(0.0033216 -0.00266665 1.00236)
(0.00229036 -0.00256398 1.00216)
(0.00131819 -0.00248146 1.00204)
(0.000377167 -0.00243047 1.00199)
(-0.000546886 -0.0024068 1.00199)
(-0.00147682 -0.00241657 1.00206)
(-0.00243134 -0.00245726 1.0022)
(-0.0034436 -0.00252759 1.0024)
(-0.00460027 -0.00263458 1.00269)
(0.00472782 -0.00382662 1.00283)
(0.00344632 -0.00365374 1.00256)
(0.00238757 -0.00352858 1.00237)
(0.00138747 -0.00344229 1.00226)
(0.0004136 -0.00339032 1.0022)
(-0.000546582 -0.00337559 1.00221)
(-0.00151296 -0.00339852 1.00227)
(-0.00250088 -0.00345966 1.0024)
(-0.00354487 -0.00356222 1.0026)
(-0.00480708 -0.00370836 1.00287)
(0.00525373 -0.00538973 1.00308)
(0.0036067 -0.0048747 1.00285)
(0.00251109 -0.00465496 1.00267)
(0.00146657 -0.00452112 1.00255)
(0.000449126 -0.00444677 1.0025)
(-0.000556563 -0.00443539 1.0025)
(-0.00156997 -0.00448982 1.00257)
(-0.0026081 -0.00460551 1.00269)
(-0.00368993 -0.00481412 1.00287)
(-0.00530603 -0.00531394 1.00311)
(0.00765094 0.00766146 1.01545)
(0.00138035 0.00604886 1.01545)
(0.00187935 0.00637893 1.01552)
(0.00127891 0.00631195 1.01557)
(0.000228329 0.00622405 1.01562)
(-0.000988477 0.00619102 1.01579)
(-0.00225412 0.00619479 1.01612)
(-0.00357484 0.00621561 1.01665)
(-0.00500219 0.00617713 1.01738)
(-0.00708318 0.006929 1.01832)
(0.00602412 0.00141303 1.01548)
(0.00351635 0.00355427 1.01491)
(0.00241944 0.00443204 1.01465)
(0.00134014 0.00467736 1.0145)
(0.000204035 0.00472446 1.01448)
(-0.00102541 0.00472734 1.01463)
(-0.0023118 0.00470772 1.01498)
(-0.00362274 0.00467023 1.01555)
(-0.00486706 0.00464829 1.01634)
(-0.00629048 0.00476574 1.0174)
(0.00631786 0.00186353 1.01553)
(0.00439463 0.00241416 1.01465)
(0.0028669 0.00287163 1.01411)
(0.00152319 0.00313596 1.01379)
(0.000269197 0.00325693 1.01369)
(-0.00100064 0.00331002 1.01381)
(-0.00230377 0.00333184 1.01416)
(-0.00361323 0.00334147 1.01475)
(-0.00487673 0.00334696 1.01559)
(-0.00630933 0.00329137 1.01671)
(0.00629208 0.00120161 1.01554)
(0.0046595 0.00128965 1.01448)
(0.00313717 0.00149101 1.01378)
(0.00171828 0.00169178 1.01336)
(0.000379316 0.00182321 1.0132)
(-0.000942678 0.00189649 1.01329)
(-0.00227158 0.00193715 1.01362)
(-0.00359631 0.00196042 1.01422)
(-0.00490103 0.00196343 1.01509)
(-0.00627773 0.00190987 1.01625)
(0.00622153 0.000129954 1.01557)
(0.0047306 0.000121663 1.01444)
(0.00327331 0.000204626 1.01366)
(0.0018547 0.000326546 1.01318)
(0.000476507 0.000427353 1.01298)
(-0.00088119 0.000495474 1.01305)
(-0.00223376 0.000538739 1.01337)
(-0.00357907 0.000565096 1.01397)
(-0.0049096 0.000576118 1.01484)
(-0.00625365 0.000561805 1.01602)
(0.00619235 -0.0010872 1.01573)
(0.00474415 -0.00112183 1.01458)
(0.00334081 -0.0010855 1.01377)
(0.00193846 -0.00101566 1.01326)
(0.000548278 -0.000946206 1.01303)
(-0.000829357 -0.000891662 1.01308)
(-0.00220003 -0.000852313 1.01339)
(-0.00355684 -0.00082532 1.01398)
(-0.00489789 -0.000804202 1.01485)
(-0.00625183 -0.000774839 1.01603)
(0.00618935 -0.00235207 1.01606)
(0.00473018 -0.00241177 1.01492)
(0.00337252 -0.00239789 1.01411)
(0.0019889 -0.00235502 1.01359)
(0.000598448 -0.00230809 1.01335)
(-0.000787607 -0.00226645 1.01338)
(-0.00216805 -0.00223263 1.01369)
(-0.00353304 -0.00220849 1.01426)
(-0.0048659 -0.00218241 1.01511)
(-0.00627028 -0.00211465 1.01627)
(0.00620742 -0.003674 1.01659)
(0.00469496 -0.00372261 1.01549)
(0.00338997 -0.00370813 1.0147)
(0.00202253 -0.00368209 1.01418)
(0.000634661 -0.00365343 1.01394)
(-0.000753793 -0.00362124 1.01396)
(-0.00214203 -0.00359038 1.01425)
(-0.00350959 -0.00356531 1.01481)
(-0.00481682 -0.00354815 1.01562)
(-0.00629332 -0.00348077 1.01674)
(0.00617526 -0.00510103 1.01733)
(0.00468122 -0.00496273 1.01629)
(0.00340376 -0.00496642 1.01554)
(0.00203623 -0.00498154 1.01505)
(0.000657205 -0.00497667 1.01482)
(-0.000722177 -0.00495248 1.01483)
(-0.00210761 -0.00490958 1.0151)
(-0.00348878 -0.00485461 1.01562)
(-0.00478251 -0.00481989 1.01639)
(-0.00625656 -0.00492933 1.01744)
(0.00694351 -0.00718439 1.01827)
(0.00480819 -0.00638447 1.01735)
(0.00335788 -0.00639534 1.01667)
(0.00199521 -0.00634882 1.01622)
(0.00065743 -0.00630933 1.016)
(-0.000678822 -0.00629157 1.01602)
(-0.00202794 -0.00629712 1.01626)
(-0.0034114 -0.00631041 1.01674)
(-0.00488505 -0.00626837 1.01743)
(-0.00701225 -0.00702512 1.01835)
(0.00519128 0.00514078 1.03055)
(0.00130355 0.00420928 1.03027)
(0.0021514 0.00488482 1.03031)
(0.00155488 0.00484223 1.03035)
(0.000400885 0.00477766 1.03039)
(-0.000634792 0.00474598 1.03059)
(-0.00161676 0.00470496 1.03099)
(-0.002621 0.00468163 1.03162)
(-0.00375431 0.00443348 1.03249)
(-0.00524443 0.00500358 1.03363)
(0.00426598 0.00126558 1.03025)
(0.00323345 0.0031911 1.02951)
(0.0025005 0.00375731 1.02918)
(0.00140273 0.00364534 1.02899)
(0.00032349 0.00358859 1.02896)
(-0.000711924 0.00355481 1.02914)
(-0.00171989 0.00350066 1.02957)
(-0.00273656 0.00342913 1.03027)
(-0.00365549 0.00333857 1.03124)
(-0.00460509 0.00341179 1.03251)
(0.00488269 0.00204917 1.03024)
(0.00379337 0.00241319 1.02914)
(0.0025147 0.00244346 1.02845)
(0.00136159 0.00243588 1.02806)
(0.000309065 0.002444 1.02794)
(-0.000720857 0.00245316 1.02809)
(-0.0017402 0.0024477 1.02853)
(-0.00276876 0.00242719 1.02927)
(-0.00373292 0.00239724 1.03031)
(-0.00483772 0.00227748 1.03168)
(0.00487568 0.00139999 1.03023)
(0.00370317 0.00127246 1.02891)
(0.00251761 0.00125142 1.02802)
(0.00139794 0.00129365 1.02749)
(0.000340947 0.00133128 1.02729)
(-0.000702149 0.00136027 1.02741)
(-0.00174098 0.00137383 1.02785)
(-0.0027784 0.00137152 1.02861)
(-0.00378236 0.00136068 1.02969)
(-0.00485471 0.00128077 1.03113)
(0.00481896 0.000260931 1.03026)
(0.00365982 0.000185045 1.02886)
(0.00253511 0.00017983 1.02787)
(0.00143998 0.000218678 1.02726)
(0.000376576 0.000257073 1.02701)
(-0.000673815 0.000290966 1.0271)
(-0.00172384 0.000316728 1.02752)
(-0.00277415 0.000332449 1.02828)
(-0.00380497 0.000341706 1.02939)
(-0.00487434 0.000318504 1.03086)
(0.00478132 -0.000755246 1.03045)
(0.00362334 -0.000844186 1.02903)
(0.0025496 -0.00085307 1.02801)
(0.00147296 -0.000829947 1.02736)
(0.000412858 -0.000797774 1.02707)
(-0.000640713 -0.000762333 1.02713)
(-0.00169751 -0.000727159 1.02754)
(-0.00275158 -0.000694919 1.0283)
(-0.00379045 -0.000668798 1.0294)
(-0.00487394 -0.000623757 1.03087)
(0.00473603 -0.00173424 1.03086)
(0.00356457 -0.00184725 1.02946)
(0.00254463 -0.0018719 1.02844)
(0.00149092 -0.00186698 1.02778)
(0.000442183 -0.00184454 1.02748)
(-0.000603178 -0.00181074 1.02753)
(-0.00165608 -0.00176825 1.02792)
(-0.00271647 -0.00172224 1.02865)
(-0.0037396 -0.00167905 1.02973)
(-0.00485076 -0.00157968 1.03116)
(0.00470726 -0.00274415 1.03149)
(0.00349082 -0.00286827 1.03016)
(0.00252801 -0.00289748 1.02919)
(0.00149623 -0.00290005 1.02854)
(0.000467276 -0.00288294 1.02824)
(-0.000564067 -0.00285106 1.02828)
(-0.00160786 -0.00280801 1.02865)
(-0.00266476 -0.00275587 1.02934)
(-0.00366038 -0.00269977 1.03036)
(-0.00482632 -0.00256503 1.03172)
(0.00445853 -0.00388493 1.03238)
(0.00340753 -0.00378617 1.03115)
(0.00250895 -0.00385413 1.03024)
(0.00149922 -0.00388826 1.02964)
(0.000489992 -0.0038931 1.02936)
(-0.000525661 -0.00386433 1.02938)
(-0.00155382 -0.00380147 1.02972)
(-0.0026037 -0.00371724 1.03036)
(-0.00355305 -0.00361208 1.0313)
(-0.00457184 -0.00367607 1.03255)
(0.00503196 -0.00538248 1.03353)
(0.0034967 -0.00472847 1.03242)
(0.00240848 -0.00494073 1.03162)
(0.00143949 -0.00493278 1.03109)
(0.000485431 -0.00493017 1.03084)
(-0.000464154 -0.00490897 1.03086)
(-0.00144055 -0.00486981 1.03115)
(-0.00245569 -0.0048352 1.03171)
(-0.00360584 -0.00457927 1.03255)
(-0.00514435 -0.00516299 1.03367)
(0.00332922 0.00297843 1.04117)
(0.00208481 0.00292061 1.04062)
(0.00297662 0.00363601 1.04051)
(0.00205867 0.00348279 1.04046)
(0.000737905 0.00341937 1.04045)
(-0.000160613 0.00337125 1.04062)
(-0.00099403 0.0032894 1.04101)
(-0.00179819 0.00325763 1.0416)
(-0.00268809 0.00294642 1.04244)
(-0.00352671 0.00317995 1.04356)
(0.00324153 0.00175443 1.04059)
(0.00352506 0.00317869 1.03978)
(0.00293432 0.00314742 1.03935)
(0.0017205 0.00268173 1.0391)
(0.000636478 0.00256196 1.03904)
(-0.000274573 0.00248375 1.0392)
(-0.00110211 0.00240188 1.03961)
(-0.0019164 0.00234277 1.04029)
(-0.00264631 0.00223688 1.04123)
(-0.00321778 0.00225285 1.04245)
(0.00388915 0.0026605 1.04042)
(0.00347892 0.00260049 1.0393)
(0.00246472 0.00212624 1.03857)
(0.00149606 0.00184533 1.03816)
(0.00055616 0.00173979 1.03803)
(-0.000325474 0.00168908 1.03817)
(-0.00114663 0.00165154 1.03859)
(-0.00197505 0.00161826 1.03931)
(-0.0027472 0.00157423 1.04032)
(-0.00353988 0.00146369 1.04165)
(0.00374761 0.00181048 1.04031)
(0.00300001 0.00144996 1.039)
(0.00217982 0.00120161 1.03811)
(0.00134004 0.00103533 1.03759)
(0.000484434 0.000944273 1.0374)
(-0.000361081 0.000907503 1.03751)
(-0.00117811 0.000886803 1.03793)
(-0.00199693 0.000867517 1.03867)
(-0.00277866 0.000860204 1.03973)
(-0.00357519 0.000808361 1.04113)
(0.00366925 0.000583424 1.04027)
(0.00285105 0.000446739 1.03891)
(0.00204802 0.000330767 1.03795)
(0.00124044 0.000234335 1.03736)
(0.000429629 0.000173318 1.03711)
(-0.000380728 0.000151628 1.0372)
(-0.00118635 0.000148322 1.03761)
(-0.00200004 0.000150693 1.03835)
(-0.00279638 0.000162626 1.03944)
(-0.00363074 0.000149102 1.04088)
(0.00360157 -0.000258424 1.04044)
(0.00273855 -0.000407429 1.03906)
(0.0019668 -0.000491038 1.03807)
(0.00118262 -0.000552569 1.03744)
(0.000401749 -0.00058687 1.03717)
(-0.000384998 -0.000593636 1.03723)
(-0.00117861 -0.000582351 1.03763)
(-0.00198304 -0.000559803 1.03837)
(-0.00277851 -0.0005361 1.03945)
(-0.00362876 -0.000486276 1.04089)
(0.00349565 -0.00105884 1.04082)
(0.00262877 -0.00120043 1.03947)
(0.00190294 -0.00127154 1.03848)
(0.00114216 -0.00132026 1.03785)
(0.000386892 -0.00134148 1.03757)
(-0.0003761 -0.00133816 1.03762)
(-0.00115133 -0.00131383 1.038)
(-0.00195298 -0.00127347 1.03871)
(-0.00272715 -0.00123444 1.03976)
(-0.00356709 -0.00115243 1.04116)
(0.00343287 -0.00184587 1.04143)
(0.00254275 -0.00199762 1.04015)
(0.00185267 -0.00206997 1.0392)
(0.00111089 -0.0020982 1.03859)
(0.000382261 -0.00210425 1.03831)
(-0.000357214 -0.00209248 1.03835)
(-0.00111164 -0.00206578 1.0387)
(-0.00190399 -0.002021 1.03938)
(-0.00266553 -0.00195201 1.04037)
(-0.00352424 -0.00182221 1.04169)
(0.00308396 -0.00274361 1.04228)
(0.00242506 -0.0027202 1.0411)
(0.00180684 -0.00281615 1.04023)
(0.00110377 -0.00283695 1.03966)
(0.000391541 -0.00284847 1.03939)
(-0.000335918 -0.00283151 1.03942)
(-0.00107164 -0.00278319 1.03975)
(-0.00183213 -0.00272777 1.04037)
(-0.00253846 -0.00260862 1.04128)
(-0.00318254 -0.00261539 1.04249)
(0.0032922 -0.0036055 1.04341)
(0.00245349 -0.00327986 1.04233)
(0.00171464 -0.00357626 1.04157)
(0.00106324 -0.00358722 1.04108)
(0.000381634 -0.0036264 1.04084)
(-0.000285728 -0.00361293 1.04087)
(-0.000988735 -0.00354713 1.04115)
(-0.00169709 -0.00350773 1.04168)
(-0.00253481 -0.00317984 1.04249)
(-0.00341384 -0.00342991 1.04359)
(0.00215699 0.00166022 1.04786)
(0.0024828 0.00218635 1.047)
(0.00312901 0.00267655 1.0466)
(0.00203124 0.00236898 1.04635)
(0.000787769 0.00229594 1.04623)
(0.000103827 0.00223138 1.04634)
(-0.000613007 0.00212221 1.04667)
(-0.00126898 0.00208746 1.04722)
(-0.00196625 0.00181928 1.048)
(-0.00226553 0.00181221 1.04908)
(0.00258372 0.0019412 1.04701)
(0.00335534 0.00280489 1.04605)
(0.00278426 0.00236499 1.04542)
(0.0016474 0.00179615 1.04503)
(0.00071803 0.00171573 1.04488)
(-2.20693e-05 0.00162357 1.04498)
(-0.000709642 0.00153363 1.04535)
(-0.00136244 0.00150136 1.04597)
(-0.0019442 0.00141559 1.04685)
(-0.00219789 0.00141485 1.04801)
(0.00304433 0.00266714 1.04658)
(0.00288968 0.00228894 1.0454)
(0.00213848 0.00162352 1.04459)
(0.00142692 0.00128933 1.0441)
(0.000641291 0.0011673 1.0439)
(-9.14216e-05 0.0010886 1.044)
(-0.000761866 0.00103674 1.04438)
(-0.00142742 0.00101159 1.04504)
(-0.00202869 0.000971401 1.046)
(-0.00249387 0.000905762 1.04727)
(0.00279256 0.00169114 1.0463)
(0.00229153 0.0012782 1.04499)
(0.00179005 0.00101327 1.04408)
(0.00120459 0.000773946 1.04352)
(0.000524965 0.000632314 1.04329)
(-0.000156061 0.000560308 1.04337)
(-0.000801286 0.000522078 1.04375)
(-0.00144112 0.000505151 1.04444)
(-0.00202284 0.00051054 1.04545)
(-0.00252635 0.000502081 1.0468)
(0.00273331 0.000559164 1.04616)
(0.00217913 0.000463007 1.04482)
(0.0016322 0.000343356 1.04387)
(0.00105021 0.000194294 1.04327)
(0.000429512 9.0488e-05 1.04301)
(-0.000202037 3.83029e-05 1.04307)
(-0.000821415 1.72856e-05 1.04345)
(-0.0014419 1.61257e-05 1.04415)
(-0.00202562 3.44348e-05 1.04518)
(-0.00259571 3.788e-05 1.04656)
(0.00266407 -5.03948e-05 1.04625)
(0.00206027 -0.000200361 1.04491)
(0.00152043 -0.000301205 1.04395)
(0.0009535 -0.000395842 1.04334)
(0.000369512 -0.000460243 1.04306)
(-0.000229065 -0.000490774 1.04311)
(-0.000824731 -0.00049686 1.04348)
(-0.00142587 -0.00048173 1.04417)
(-0.00200128 -0.000453891 1.0452)
(-0.00259186 -0.00040012 1.04658)
(0.002533 -0.000697537 1.04658)
(0.00194474 -0.000826897 1.04527)
(0.00144071 -0.000905904 1.04433)
(0.000890798 -0.000968043 1.04372)
(0.000333544 -0.0010058 1.04343)
(-0.000238677 -0.00101822 1.04347)
(-0.000811365 -0.00100962 1.04382)
(-0.00139908 -0.000980549 1.0445)
(-0.00195141 -0.000943998 1.04549)
(-0.00251372 -0.000887485 1.04684)
(0.0024624 -0.00130201 1.04713)
(0.00187838 -0.00143639 1.0459)
(0.00138997 -0.00152086 1.045)
(0.000853545 -0.00154771 1.04441)
(0.000318074 -0.00156029 1.04413)
(-0.000233033 -0.00155797 1.04416)
(-0.000784929 -0.00154088 1.04449)
(-0.00136193 -0.00151045 1.04513)
(-0.0019195 -0.00143841 1.04607)
(-0.00247471 -0.00134554 1.04734)
(0.00214231 -0.00200594 1.04792)
(0.00176946 -0.00201138 1.0468)
(0.00133836 -0.00209236 1.04597)
(0.000847499 -0.00208204 1.04543)
(0.000321542 -0.00208975 1.04517)
(-0.000217558 -0.00207575 1.04519)
(-0.000755157 -0.00203672 1.04549)
(-0.00129019 -0.00201555 1.04607)
(-0.00181064 -0.00191524 1.04694)
(-0.00217028 -0.00190993 1.04809)
(0.00209429 -0.0023744 1.04901)
(0.00178395 -0.00229799 1.04797)
(0.00128973 -0.00256127 1.04725)
(0.000839687 -0.00256948 1.04678)
(0.000316237 -0.00262312 1.04655)
(-0.000173451 -0.00260711 1.04657)
(-0.000704611 -0.00252222 1.04683)
(-0.00119561 -0.00248376 1.04733)
(-0.00179509 -0.00219313 1.04809)
(-0.00216076 -0.00220368 1.04915)
(0.00188558 0.00143501 1.05278)
(0.00257854 0.0021115 1.05163)
(0.00270581 0.00221102 1.05091)
(0.00156245 0.00177873 1.05046)
(0.000528671 0.00173465 1.05024)
(7.38969e-05 0.00169789 1.05027)
(-0.000553424 0.00161147 1.05055)
(-0.00113923 0.00160087 1.05106)
(-0.00177302 0.00143969 1.0518)
(-0.00181626 0.00132268 1.05284)
(0.00243613 0.00207215 1.05168)
(0.00283729 0.00232382 1.05056)
(0.00218217 0.0016845 1.04973)
(0.00126439 0.00121301 1.04919)
(0.000574061 0.00127204 1.04895)
(2.44728e-06 0.00123918 1.04899)
(-0.000604231 0.0011896 1.04931)
(-0.00118332 0.00120531 1.04988)
(-0.00172629 0.00117632 1.05072)
(-0.00184999 0.00121781 1.05183)
(0.00256987 0.00231597 1.05098)
(0.00217211 0.00175545 1.04976)
(0.00160436 0.00115853 1.04885)
(0.00118757 0.000934821 1.04828)
(0.000584589 0.000884108 1.04802)
(-2.37173e-05 0.000835215 1.04807)
(-0.000621224 0.000808685 1.0484)
(-0.00121486 0.000822056 1.04902)
(-0.00174811 0.000822659 1.04993)
(-0.00203659 0.000842151 1.05114)
(0.00223363 0.00125962 1.05052)
(0.00168371 0.000946119 1.04923)
(0.00137143 0.000841524 1.0483)
(0.00100401 0.000650362 1.0477)
(0.000484636 0.000525306 1.04743)
(-7.81426e-05 0.000450408 1.04747)
(-0.000635633 0.000417697 1.04782)
(-0.00118846 0.000426337 1.04846)
(-0.00167698 0.000464666 1.04941)
(-0.00202284 0.000524927 1.05069)
(0.00221748 0.000304189 1.05028)
(0.00173444 0.000340149 1.04898)
(0.00130844 0.000335473 1.04804)
(0.000876019 0.000223073 1.04743)
(0.000386479 0.000121931 1.04715)
(-0.000133405 5.42092e-05 1.04719)
(-0.000652037 2.33225e-05 1.04754)
(-0.00117321 2.67266e-05 1.04819)
(-0.00164608 5.79001e-05 1.04916)
(-0.0020607 9.26844e-05 1.05048)
(0.00217717 -6.75775e-05 1.0503)
(0.00169541 -0.000150609 1.04901)
(0.00125014 -0.000189454 1.04808)
(0.000792311 -0.000257585 1.04748)
(0.000316418 -0.000322596 1.04719)
(-0.000177228 -0.000369099 1.04722)
(-0.000665331 -0.000392716 1.04756)
(-0.00115614 -0.000388401 1.04821)
(-0.0016121 -0.000359688 1.04918)
(-0.00204686 -0.000306206 1.05049)
(0.0020689 -0.000587368 1.05056)
(0.00162741 -0.000666103 1.04931)
(0.00120467 -0.000706318 1.04841)
(0.000743293 -0.000741164 1.04782)
(0.000274457 -0.000774543 1.04754)
(-0.000203705 -0.000798129 1.04756)
(-0.000670786 -0.000809229 1.04789)
(-0.00114198 -0.000807157 1.04853)
(-0.0015755 -0.000787274 1.04947)
(-0.00197953 -0.000767165 1.05075)
(0.00201674 -0.00107597 1.05107)
(0.00160313 -0.00116578 1.04989)
(0.00118482 -0.00122782 1.04903)
(0.000724302 -0.00122888 1.04847)
(0.00025841 -0.0012381 1.0482)
(-0.000212544 -0.00124258 1.04822)
(-0.0006734 -0.00124419 1.04853)
(-0.00113865 -0.00124815 1.04913)
(-0.00158907 -0.00120409 1.05002)
(-0.0019718 -0.00117373 1.05123)
(0.00179275 -0.00169402 1.05181)
(0.0015317 -0.00168211 1.05073)
(0.0011496 -0.00172041 1.04994)
(0.000728126 -0.0016731 1.04942)
(0.000257905 -0.00167192 1.04917)
(-0.000208516 -0.00166501 1.04918)
(-0.000669573 -0.00164947 1.04947)
(-0.00109981 -0.00167837 1.05002)
(-0.00154102 -0.001637 1.05084)
(-0.00178115 -0.00167456 1.05194)
(0.00164498 -0.00184056 1.05285)
(0.00157617 -0.00187554 1.05184)
(0.0011565 -0.00204725 1.05115)
(0.000754602 -0.00203455 1.0507)
(0.00025595 -0.00207853 1.05048)
(-0.000183741 -0.00206783 1.05049)
(-0.00066893 -0.00200327 1.05074)
(-0.00107879 -0.00199988 1.05122)
(-0.00157597 -0.00182406 1.05194)
(-0.00169409 -0.00175102 1.05296)
(0.00208277 0.00186214 1.05748)
(0.00221038 0.00235308 1.05605)
(0.00172538 0.00208326 1.05505)
(0.00068325 0.0016341 1.05443)
(-2.19318e-05 0.00167626 1.05411)
(-0.000180919 0.00169158 1.05409)
(-0.000651812 0.00162378 1.05432)
(-0.00114838 0.00159889 1.05481)
(-0.00176324 0.0014748 1.05553)
(-0.00172095 0.00128675 1.05655)
(0.00242976 0.0019 1.05612)
(0.00194472 0.00164365 1.05483)
(0.001197 0.00106501 1.05384)
(0.000593636 0.000874247 1.0532)
(0.000198534 0.00116295 1.05288)
(-0.000168999 0.0012419 1.05287)
(-0.000672549 0.00124162 1.05314)
(-0.00119414 0.0012711 1.05368)
(-0.00173958 0.00125428 1.05449)
(-0.00182645 0.00129856 1.05557)
(0.00225417 0.00148824 1.05515)
(0.00134743 0.000952318 1.05389)
(0.00091132 0.000664251 1.05294)
(0.000782922 0.000701859 1.05231)
(0.000370316 0.000812548 1.05199)
(-0.000114842 0.000846201 1.052)
(-0.000655397 0.000860231 1.05229)
(-0.00121039 0.000897284 1.05287)
(-0.00173626 0.000915852 1.05374)
(-0.00196179 0.000977777 1.05491)
(0.00193176 0.000433637 1.05455)
(0.00117394 0.000363847 1.05328)
(0.000954228 0.000569999 1.05234)
(0.000749978 0.000546356 1.05172)
(0.000354249 0.000515085 1.05142)
(-0.000124937 0.000482345 1.05143)
(-0.000637478 0.000473407 1.05174)
(-0.00115877 0.000502938 1.05235)
(-0.00163116 0.000556145 1.05326)
(-0.00193061 0.000656591 1.05449)
(0.00200966 -0.000251264 1.05423)
(0.00149119 -1.67411e-05 1.05296)
(0.00109363 0.000183206 1.05204)
(0.000730813 0.00018819 1.05144)
(0.000307611 0.000146075 1.05114)
(-0.000159161 9.97183e-05 1.05116)
(-0.000641305 7.89691e-05 1.05147)
(-0.00113289 8.92554e-05 1.05209)
(-0.0015807 0.000124517 1.05302)
(-0.00194285 0.000178143 1.05428)
(0.00203532 -0.000351028 1.05419)
(0.00158863 -0.000327159 1.05294)
(0.00114975 -0.000255681 1.05204)
(0.000713679 -0.000252285 1.05145)
(0.000266359 -0.000282059 1.05116)
(-0.000193029 -0.000315909 1.05118)
(-0.000650499 -0.000335759 1.0515)
(-0.00111502 -0.000333584 1.05212)
(-0.0015437 -0.000304883 1.05304)
(-0.00192362 -0.000252872 1.0543)
(0.00198037 -0.000734094 1.05442)
(0.00159738 -0.00074802 1.05321)
(0.00116859 -0.000729853 1.05233)
(0.000705177 -0.000718015 1.05176)
(0.000244232 -0.000728273 1.05149)
(-0.0002132 -0.000742575 1.05151)
(-0.000659235 -0.000755245 1.05182)
(-0.00110552 -0.000765127 1.05242)
(-0.00151527 -0.000750862 1.05332)
(-0.00186976 -0.000747655 1.05455)
(0.0019614 -0.00113281 1.05489)
(0.00161636 -0.00118432 1.05374)
(0.00118635 -0.00121854 1.05291)
(0.000715672 -0.00119263 1.05237)
(0.000241494 -0.00118995 1.05211)
(-0.000220888 -0.00119118 1.05213)
(-0.00067355 -0.00119295 1.05243)
(-0.00111778 -0.00121034 1.053)
(-0.00154808 -0.00117413 1.05386)
(-0.00187227 -0.0011674 1.05503)
(0.00182593 -0.00171413 1.05561)
(0.00157379 -0.00168998 1.05455)
(0.0011664 -0.00170399 1.05378)
(0.000728928 -0.00163834 1.05328)
(0.000242786 -0.00162945 1.05303)
(-0.000214966 -0.00162181 1.05305)
(-0.000673898 -0.00161049 1.05333)
(-0.00108879 -0.00165154 1.05386)
(-0.00152241 -0.00162521 1.05465)
(-0.00175077 -0.00167264 1.05573)
(0.00167605 -0.00182832 1.05663)
(0.00163731 -0.00190739 1.05564)
(0.00120059 -0.00202178 1.05496)
(0.000774083 -0.00200105 1.05451)
(0.000247675 -0.00202656 1.05429)
(-0.000195069 -0.00201062 1.0543)
(-0.00068773 -0.00195088 1.05455)
(-0.00108536 -0.00194025 1.05502)
(-0.00156455 -0.00181099 1.05573)
(-0.00162815 -0.00169926 1.05674)
(0.00229628 0.00227009 1.06261)
(0.00156514 0.00241397 1.06095)
(0.000570975 0.00195527 1.05971)
(-0.000248142 0.00169181 1.05898)
(-0.000604135 0.00193977 1.05861)
(-0.000509474 0.0020684 1.05854)
(-0.000852157 0.00205376 1.05875)
(-0.00129361 0.00203331 1.05923)
(-0.00192994 0.00193499 1.05994)
(-0.00194599 0.00170696 1.06098)
(0.00238361 0.0015112 1.06101)
(0.00104596 0.000982152 1.05958)
(0.000264679 0.000685535 1.05847)
(-2.92655e-05 0.000874125 1.05775)
(-0.000186002 0.00140662 1.05739)
(-0.000404647 0.00160209 1.05734)
(-0.000841723 0.00165357 1.05758)
(-0.00134301 0.00169578 1.05811)
(-0.00193551 0.00168579 1.0589)
(-0.00210235 0.00173071 1.05999)
(0.00204842 0.000607746 1.05984)
(0.000739704 0.000276329 1.05853)
(0.000392743 0.000412256 1.05755)
(0.000450579 0.000747158 1.05687)
(0.000143175 0.00102477 1.05652)
(-0.000273388 0.00114267 1.05648)
(-0.000788248 0.00119837 1.05674)
(-0.0013428 0.00125627 1.05731)
(-0.00191528 0.00128912 1.05816)
(-0.00220277 0.00138018 1.05932)
(0.00184801 -0.000294381 1.05914)
(0.000955624 -7.90984e-05 1.05786)
(0.000746253 0.00044488 1.05692)
(0.000587527 0.000605519 1.05628)
(0.000222293 0.000683698 1.05594)
(-0.000231886 0.000709658 1.05592)
(-0.000738783 0.000733281 1.0562)
(-0.00127012 0.000781424 1.05678)
(-0.00178879 0.0008419 1.05767)
(-0.00214804 0.000967412 1.05889)
(0.00205898 -0.000679491 1.05879)
(0.00151348 -0.000278949 1.05751)
(0.00107768 9.62434e-05 1.05659)
(0.000690483 0.000218649 1.05597)
(0.000248433 0.00025505 1.05565)
(-0.000225981 0.00025398 1.05564)
(-0.000720755 0.000257776 1.05593)
(-0.00123722 0.000275581 1.05653)
(-0.0017279 0.000308998 1.05743)
(-0.0021291 0.000375386 1.05867)
(0.00215806 -0.000564324 1.05874)
(0.00171674 -0.000463419 1.05747)
(0.00122998 -0.000308299 1.05656)
(0.000745489 -0.000238875 1.05596)
(0.000257932 -0.000221104 1.05566)
(-0.00023038 -0.000224395 1.05565)
(-0.000719395 -0.000230038 1.05595)
(-0.0012195 -0.000228916 1.05655)
(-0.00168997 -0.000203011 1.05745)
(-0.00209677 -0.000147876 1.05869)
(0.0021618 -0.000869108 1.05895)
(0.00178101 -0.000836261 1.05771)
(0.00129973 -0.000776957 1.05683)
(0.000778175 -0.000727597 1.05624)
(0.000263609 -0.0007142 1.05596)
(-0.000235464 -0.000715909 1.05596)
(-0.000726345 -0.000725624 1.05626)
(-0.00121516 -0.000744955 1.05684)
(-0.00166518 -0.000732262 1.05772)
(-0.00204355 -0.000724892 1.05893)
(0.00217153 -0.00122011 1.05941)
(0.0018305 -0.00125418 1.05823)
(0.00134169 -0.00127031 1.05738)
(0.000808271 -0.0012355 1.05683)
(0.000269755 -0.00123005 1.05655)
(-0.000242962 -0.00123332 1.05656)
(-0.000750547 -0.00123836 1.05685)
(-0.00123605 -0.00126295 1.05741)
(-0.00169717 -0.00122522 1.05825)
(-0.00203968 -0.00121245 1.05941)
(0.00209463 -0.00179409 1.06011)
(0.00179506 -0.00177534 1.05901)
(0.00132129 -0.0017894 1.05823)
(0.000812913 -0.00173305 1.05771)
(0.000262571 -0.00173423 1.05746)
(-0.000242931 -0.0017365 1.05746)
(-0.000754285 -0.00173275 1.05773)
(-0.00120928 -0.00177418 1.05826)
(-0.00167397 -0.00174633 1.05904)
(-0.00194912 -0.00178166 1.06012)
(0.00197139 -0.00200094 1.06114)
(0.00186039 -0.00209162 1.06011)
(0.00134829 -0.00217265 1.05941)
(0.00084746 -0.00215707 1.05893)
(0.000255391 -0.00217843 1.0587)
(-0.000234851 -0.002172 1.0587)
(-0.000775579 -0.00212777 1.05894)
(-0.00120846 -0.00211616 1.05942)
(-0.00171041 -0.00201122 1.06012)
(-0.00181901 -0.00189006 1.06114)
(0.00194732 0.00219131 1.06807)
(0.000577768 0.00203183 1.06626)
(-0.000563215 0.00164169 1.06489)
(-0.00101301 0.00168651 1.06412)
(-0.00104592 0.00215375 1.06375)
(-0.000762942 0.00236779 1.06368)
(-0.000980752 0.00237562 1.06388)
(-0.00132177 0.00232996 1.06435)
(-0.0019384 0.0022102 1.06508)
(-0.0020244 0.00195612 1.06613)
(0.00181327 0.000895895 1.06632)
(8.46352e-05 0.000368714 1.0648)
(-0.000537775 0.000464566 1.06364)
(-0.000528753 0.000976253 1.0629)
(-0.00051294 0.00165302 1.06252)
(-0.000622429 0.00189707 1.06246)
(-0.000976045 0.00196011 1.06269)
(-0.00141284 0.00197613 1.06321)
(-0.00199831 0.00192938 1.064)
(-0.00224043 0.00194723 1.06512)
(0.00153087 -0.000179589 1.06503)
(0.000177893 -0.000188301 1.06371)
(-3.40599e-05 0.000337721 1.06272)
(0.000135362 0.000879913 1.06202)
(-0.00011647 0.001242 1.06165)
(-0.000469827 0.0013928 1.06159)
(-0.000928887 0.00145673 1.06184)
(-0.00143447 0.0014972 1.06239)
(-0.00200494 0.00149719 1.06325)
(-0.00235729 0.00156646 1.06444)
(0.001549 -0.000807821 1.06431)
(0.000731091 -0.000348976 1.06302)
(0.000540646 0.000391921 1.06208)
(0.000376107 0.000669421 1.06142)
(1.1917e-05 0.000820559 1.06106)
(-0.000407541 0.000886801 1.06101)
(-0.000877053 0.000924868 1.06128)
(-0.00138529 0.000961888 1.06186)
(-0.00191175 0.000986184 1.06274)
(-0.00231771 0.001083 1.06397)
(0.00188572 -0.000926346 1.06397)
(0.00142489 -0.000453707 1.06267)
(0.000981173 8.17974e-07 1.06173)
(0.000562234 0.000195371 1.06109)
(0.00010133 0.000299647 1.06076)
(-0.000367274 0.000346275 1.06073)
(-0.000855274 0.000369544 1.06101)
(-0.00137202 0.000379414 1.06159)
(-0.00188004 0.000387565 1.06249)
(-0.00230386 0.000432622 1.06373)
(0.00202526 -0.000691625 1.06393)
(0.00165278 -0.000581673 1.06262)
(0.00117286 -0.000405543 1.06168)
(0.00067224 -0.000300342 1.06106)
(0.000162708 -0.000237113 1.06074)
(-0.000339028 -0.000204993 1.06073)
(-0.000845466 -0.000192391 1.06101)
(-0.00136578 -0.000191444 1.0616)
(-0.00185723 -0.000171308 1.06249)
(-0.00227143 -0.000115677 1.06373)
(0.00205191 -0.000966097 1.06413)
(0.0017326 -0.000931139 1.06285)
(0.00126147 -0.000867473 1.06194)
(0.000732021 -0.000806433 1.06134)
(0.000198042 -0.000776149 1.06103)
(-0.000323314 -0.000760721 1.06102)
(-0.000843659 -0.000756858 1.06131)
(-0.0013569 -0.000767848 1.06189)
(-0.00182413 -0.000737669 1.06276)
(-0.00220938 -0.000706506 1.06398)
(0.00207795 -0.00127067 1.06459)