/*--------------------------------*- C++ -*----------------------------------*\
| =========                 |                                                 |
| \\      /  F ield         | OpenFOAM: The Open Source CFD Toolbox           |
|  \\    /   O peration     | Version:  2406                                  |
|   \\  /    A nd           | Website:  www.openfoam.com                      |
|    \\/     M anipulation  |                                                 |
\*---------------------------------------------------------------------------*/
FoamFile
{
    version     2.0;
    format      ascii;
    arch        "LSB;label=32;scalar=64";
    class       volScalarField;
    location    "500";
    object      div(phi);
}
// * * * * * * * * * * * * * * * * * * * * * * * * * * * * * * * * * * * * * //

dimensions      [0 0 -1 0 0 0 0];

internalField   nonuniform List<scalar> 
25000
(
-0.680439
0.0203055
0.0101171
0.00605378
0.00254535
0.00160361
0.000837596
0.000421707
0.000383308
0.000352818
0.00305668
0.000757886
0.00363933
0.00285006
0.0024786
0.00110398
0.000729962
0.000527677
0.000222461
0.000389177
-0.00586625
-0.000219066
0.00284843
0.00257288
0.00198267
0.00143797
0.000845223
0.00049382
0.000411947
0.000455699
-0.000494421
-0.000311538
0.000632147
0.00200783
0.00178752
0.00123542
0.000839205
0.000580485
0.000342028
0.000422399
-0.00319724
-0.00139192
0.00108304
0.00115701
0.00132249
0.00106698
0.000757802
0.000516856
0.000353853
0.000402437
-0.000714693
-0.000442968
-0.000352247
0.000985811
0.000808238
0.000873009
0.000573541
0.000413434
0.000338517
0.000375937
-0.00157999
-0.00134847
0.000220507
-4.80897e-05
0.000622905
0.000287918
0.000284911
0.000279644
0.000170626
0.000333046
-0.000552009
-0.000813847
-0.000701076
1.11268e-05
-2.96047e-05
4.2474e-05
0.00013061
-3.72226e-05
0.000135008
0.000285745
-0.00149862
-0.000731586
-0.000724005
-2.02895e-05
-0.000237273
0.000125476
-0.000242197
6.01998e-05
-7.80102e-05
0.000130535
-0.000484712
-0.000134908
0.000390111
0.000223674
0.000419379
0.000167646
0.000231863
0.000143221
1.07074e-05
0.000150084
-0.00965459
-0.00343802
-0.00119175
0.000125
-1.06196e-05
0.000252956
0.000233585
7.38008e-05
-2.82986e-06
0.000305598
-0.00527247
-0.00251328
-0.000519892
-0.000443082
0.000422092
-1.39158e-05
0.000120951
0.000127049
5.69824e-05
0.000369417
-0.00498866
-0.00196731
-0.000438441
-6.09524e-05
0.000170074
0.000342151
0.000197278
0.000196922
0.000259154
0.000482758
-0.0019593
-0.00141332
-0.00109651
3.01325e-05
0.000320162
0.000280807
0.000323206
0.000305278
0.000223863
0.000485286
-0.00286058
-0.00177009
-0.000303539
-0.000187487
0.000207865
0.000351449
0.000277628
0.000269568
0.0003455
0.00042341
-0.00110087
-0.000922807
-0.00110352
-7.82311e-06
6.39169e-06
0.000235232
0.000216466
0.000267103
0.000210396
0.0004592
-0.00171188
-0.00160193
-0.000429584
-0.000724955
-2.21505e-05
-0.000134031
-4.91193e-05
3.39018e-05
0.000187262
0.000312765
-0.000819203
-0.0010961
-0.00113031
-0.000468769
-0.000419558
-0.000330992
-0.000112397
-0.000156346
-2.87844e-05
0.000337675
-0.00170715
-0.00104
-0.000971034
-0.00030271
-0.000479181
-2.54409e-05
-0.000417886
-9.95354e-05
-0.000145671
4.43535e-06
-0.000679816
-0.000347511
0.000200073
5.01817e-05
0.000314416
6.59987e-05
0.000178874
0.000123944
-0.000106447
0.00021834
-0.000909465
-0.000355941
4.05227e-05
0.000245702
0.000288393
0.000281673
0.000269726
0.000250185
-7.61243e-05
8.40439e-05
-0.000199727
3.20589e-05
0.000255321
0.000235663
0.000309179
0.000273821
0.00024349
0.00021315
0.000176996
3.97935e-05
0.000433752
0.000288908
0.000263964
0.000338903
0.000330454
0.000299669
0.000278074
0.000240166
0.00021647
0.000221166
0.000456797
0.00032398
0.000394357
0.0003875
0.000361013
0.000334365
0.000283335
0.000267022
0.000245104
0.000224795
0.000531664
0.000438604
0.000421387
0.000415741
0.000397426
0.000332096
0.000320311
0.00027986
0.00026896
0.000214079
0.000599326
0.000431146
0.000434488
0.000456621
0.000376735
0.000373867
0.000305843
0.000291895
0.000265021
0.000229208
0.00052184
0.000428189
0.000462483
0.000385964
0.000411854
0.000317771
0.000296882
0.000270417
0.000273312
0.00019299
0.000602809
0.000379294
0.000390984
0.00040035
0.000350186
0.000285015
0.000283836
0.000222533
0.000176334
0.000261409
0.000199957
0.000377956
0.000325127
0.000385821
0.000276774
0.000316072
0.000182507
0.000173036
0.000156991
-5.66361e-05
0.000471482
0.000236111
0.00044836
0.000310392
0.000306512
0.000212791
0.000199153
0.000154882
-0.000103081
7.70004e-05
0.00180788
0.00132676
0.00118132
0.0011515
0.00103812
0.00100914
0.00103273
0.00115122
0.00123196
0.00126781
0.00118892
0.000896048
0.000883792
0.00076346
0.000669207
0.000704241
0.000692534
0.00073724
0.000876561
0.000654708
0.0011408
0.000883518
0.000685694
0.000694887
0.000629664
0.000539439
0.000636765
0.000657146
0.000668328
0.000571269
0.000854425
0.000663397
0.000761889
0.000608269
0.000534984
0.000569789
0.000505903
0.000547634
0.000697182
0.000499025
0.000901402
0.00078159
0.000573722
0.00061097
0.000563433
0.000439989
0.000564246
0.000589171
0.000559959
0.000523109
0.000815771
0.000607311
0.00072522
0.000610602
0.000531132
0.000589134
0.000524479
0.000540725
0.000690643
0.000485543
0.000891272
0.000853606
0.000701927
0.000707358
0.00067152
0.00056621
0.000659927
0.000702996
0.000640568
0.000577864
0.00100945
0.000800908
0.000856548
0.000757118
0.000678497
0.000707127
0.000703015
0.000676042
0.000812122
0.000589317
0.00108573
0.00100011
0.000810981
0.0007512
0.00068295
0.000668254
0.000719989
0.000813691
0.000815315
0.000736962
0.00120136
0.000680898
0.000606747
0.000524821
0.000505968
0.000536719
0.000625886
0.000628489
0.000811934
0.000733279
0.0019361
0.0016046
0.00130676
0.0012459
0.00114507
0.00119256
0.00122063
0.00127244
0.00166237
0.00117032
0.00125223
0.000953692
0.000915139
0.000792013
0.000692492
0.000756974
0.000753355
0.00084983
0.000952373
0.000714497
0.00093274
0.000869252
0.000688163
0.000697823
0.00064263
0.00055932
0.000702366
0.000698797
0.000715007
0.000519188
0.00072242
0.000623907
0.000743999
0.000596554
0.000541038
0.000605188
0.000529465
0.000580186
0.000748251
0.000424243
0.000793668
0.000750721
0.000537906
0.000617151
0.000582128
0.000449907
0.000618946
0.000644562
0.000561238
0.000490837
0.000708382
0.000580558
0.000750428
0.000625347
0.000566808
0.000655746
0.00058614
0.00056772
0.000787291
0.000432686
0.000934758
0.000931657
0.000747448
0.000801547
0.000756046
0.000652215
0.000770839
0.000845285
0.000668048
0.000616189
0.00109047
0.000917992
0.00100675
0.000872724
0.000793165
0.000858851
0.000847578
0.000773969
0.00103335
0.000544573
0.00153323
0.00123402
0.000977123
0.000888934
0.000832247
0.000781657
0.00089026
0.00103462
0.000920533
0.001076
0.00137908
0.00094257
0.000668168
0.000614159
0.000576735
0.000638183
0.000726095
0.000700692
0.00112112
0.00067123
0.00134673
0.00117943
0.000940228
0.000958518
0.000870382
0.00092536
0.0009209
0.00099214
0.0012188
0.000842846
0.000811046
0.000667904
0.000693152
0.000559505
0.000489459
0.000562876
0.000556109
0.000636515
0.000745739
0.00050036
0.000652687
0.000701613
0.00052011
0.000533965
0.000496544
0.000419301
0.000557136
0.000564956
0.000548496
0.000394617
0.000550948
0.000505568
0.000617081
0.000492695
0.000439814
0.000507687
0.000435701
0.000466373
0.000619601
0.00031882
0.000613169
0.000645348
0.000469664
0.000530241
0.00050467
0.000380367
0.000531593
0.000554429
0.000446079
0.000393346
0.000588945
0.000504246
0.000650064
0.000555107
0.000494117
0.000582337
0.000510632
0.000474587
0.000670011
0.000339984
0.000752344
0.00080258
0.000661352
0.000698856
0.000670056
0.000566252
0.00066804
0.000731869
0.00054471
0.000500765
0.000933321
0.000782096
0.000874852
0.000760841
0.000687506
0.00074449
0.000726195
0.000646575
0.000854262
0.000442211
0.00124068
0.00106898
0.000829562
0.000769885
0.000706493
0.000656196
0.000740742
0.000841437
0.000739279
0.000823501
0.0011998
0.00079532
0.000606889
0.000535683
0.000491458
0.000527318
0.000574194
0.000543543
0.000835787
0.000491736
0.00125377
0.00098688
0.000798882
0.000879352
0.000850987
0.000839875
0.00085395
0.000974914
0.00105343
0.00103507
0.000869407
0.000675326
0.000743191
0.00059278
0.000501741
0.000571083
0.000530109
0.000547476
0.000767701
0.000613774
0.000830573
0.000782661
0.000546516
0.0005847
0.000543733
0.000427255
0.000544619
0.000607608
0.000535614
0.000561823
0.000689351
0.000549846
0.000693484
0.000549694
0.000474573
0.000535905
0.000465539
0.000480595
0.000649866
0.000486394
0.000754668
0.000703794
0.000522154
0.000566126
0.000537492
0.000412193
0.000529835
0.000572539
0.00049886
0.000531384
0.000688151
0.000532069
0.000658087
0.0005756
0.000494859
0.000565562
0.000500188
0.000505275
0.000640527
0.000500007
0.000772387
0.000733894
0.00063627
0.000636484
0.000623665
0.000517556
0.00060201
0.000646457
0.000571731
0.000571079
0.000841004
0.000686562
0.000749501
0.000672783
0.000602141
0.000622767
0.000621888
0.000594204
0.000725176
0.000554598
0.00101918
0.000847371
0.000680961
0.000652914
0.00057079
0.000575311
0.000597477
0.00070526
0.000662849
0.000751332
0.000964939
0.000627968
0.000524066
0.000460935
0.000462775
0.000477789
0.000555184
0.000573567
0.000783857
0.000651956
-0.000487672
-9.73005e-05
-0.000133251
6.80015e-05
0.000118982
0.000217144
0.000248601
0.00028645
0.000386638
0.00024359
-0.000454645
-0.000165499
-8.36018e-06
-2.38555e-05
4.4389e-05
0.00011467
0.000159134
0.000222017
0.000238916
0.000169677
-0.000149793
4.35547e-05
-3.55353e-05
5.67435e-05
9.28984e-05
0.00011423
0.000187161
0.000194164
0.000215039
0.0001516
-0.000105655
3.65705e-05
0.000142787
0.000114767
0.000128018
0.000174891
0.000169894
0.000200537
0.000228144
0.000145321
8.64842e-05
0.000195902
0.000138293
0.000185594
0.000198663
0.000167327
0.00023035
0.000229928
0.000202602
0.000180366
8.45247e-05
0.000174579
0.000252015
0.000253635
0.00021205
0.000266439
0.000229383
0.00023043
0.000270158
0.000182083
0.000179566
0.000317362
0.000309204
0.000288405
0.00031885
0.000246747
0.000292054
0.000301489
0.000244788
0.000231171
0.000284979
0.000308025
0.00038364
0.000346578
0.000301264
0.000307627
0.000302747
0.000269936
0.000327464
0.000219239
0.000352082
0.000494712
0.000322834
0.00036356
0.000271743
0.000290661
0.000271007
0.000322256
0.00027995
0.000313454
0.000421062
0.000314333
0.000312483
0.000254903
0.000265337
0.00024185
0.000254139
0.000229044
0.000304479
0.000204804
0.000553091
0.000430296
0.000304006
0.000401267
0.000415965
0.000370668
0.000392147
0.000396954
0.000413001
0.00049092
0.000404812
0.000283498
0.000342583
0.000284005
0.000231702
0.000280022
0.00022235
0.000226197
0.000312756
0.000288464
0.000653445
0.00044664
0.000245215
0.000296645
0.000270368
0.000188039
0.000238167
0.000246691
0.000197465
0.000275559
0.000565343
0.000327903
0.00042211
0.00029392
0.000232852
0.000255707
0.000184468
0.000180339
0.000265096
0.000229352
0.000713265
0.000490314
0.000316462
0.000320433
0.000282633
0.00018386
0.000222339
0.000235399
0.000174261
0.000256469
0.000658181
0.000379624
0.000420791
0.000330036
0.000252936
0.000270898
0.000203715
0.000184449
0.000259615
0.000231075
0.000719681
0.000483934
0.000384077
0.000346332
0.000318466
0.000228854
0.000239416
0.000266521
0.000200244
0.000260744
0.00070251
0.000438521
0.000415222
0.0003548
0.000286884
0.000267952
0.000258042
0.000207477
0.000276768
0.000249746
0.000756879
0.000444679
0.000360922
0.000307923
0.000244145
0.000237806
0.000198158
0.000266128
0.000222213
0.000295634
0.000740125
0.000362442
0.000278869
0.000212466
0.00019239
0.000167001
0.000193936
0.000191423
0.000256408
0.000276078
-0.000428373
-0.000232215
-0.000206923
-0.000124005
-9.3711e-05
-3.84876e-05
-2.30562e-05
-3.11206e-05
2.02252e-05
-7.40706e-05
-0.000291914
-0.000182503
-0.000127255
-0.000110599
-5.88563e-05
-3.4311e-05
-1.49982e-05
1.75202e-05
-1.70203e-05
-5.41613e-05
-7.41637e-05
-8.67215e-05
-0.000111308
-6.42806e-05
-4.46446e-05
-2.70345e-05
-2.09339e-07
-1.87284e-05
-1.37719e-05
-5.36538e-05
-3.1359e-05
-5.02227e-05
-1.91588e-05
-3.36849e-05
-2.12859e-05
2.62647e-06
-1.09188e-05
-8.44174e-06
1.12354e-06
-5.64536e-05
8.82628e-05
4.23496e-05
-1.56499e-07
1.52278e-05
2.36903e-05
3.11066e-06
2.76796e-05
2.20792e-05
-2.43334e-05
-2.2919e-05
0.000114108
5.78529e-05
7.04771e-05
5.94129e-05
3.77256e-05
6.52816e-05
3.58346e-05
8.37542e-06
4.23922e-05
-2.99293e-05
0.000176009
0.000126584
0.000103423
8.43044e-05
9.53408e-05
5.44931e-05
6.67563e-05
7.5484e-05
4.69744e-06
1.37794e-05
0.000227187
0.000136285
0.000135478
0.000117646
8.62009e-05
9.86345e-05
8.05707e-05
4.54471e-05
7.79796e-05
4.6237e-06
0.000255452
0.000181364
0.000122889
0.000111284
8.82207e-05
6.77356e-05
6.79136e-05
7.67751e-05
4.55211e-05
5.36874e-05
0.000308145
0.00015548
0.000127783
9.72541e-05
7.45554e-05
6.10584e-05
4.08432e-05
1.77643e-05
3.73424e-05
-6.67189e-06
0.000391982
0.000276231
0.000318316
0.000321157
0.000272996
0.000208101
0.000217987
0.000192182
0.000203957
0.000315665
0.000290282
0.000187656
0.000252979
0.00019327
0.000186774
0.000173444
0.000120413
0.000122252
0.00018606
0.000200667
0.000310263
0.000199833
0.000144366
0.00018934
0.000170256
0.000111395
0.000140195
0.000148307
0.000114995
0.000209973
0.000193499
0.000117993
0.000192335
0.000148624
0.000132346
0.000155999
0.000107586
0.00010512
0.00018138
0.000184675
0.000250594
0.000178408
0.000121478
0.000154833
0.000156502
0.000104132
0.000132438
0.000156991
0.000122404
0.000210016
0.000193908
0.000134002
0.000179507
0.000163087
0.000127254
0.000160841
0.000122454
0.000118083
0.000183043
0.000200016
0.000254177
0.000198674
0.000178375
0.000157483
0.000177266
0.000117523
0.000127646
0.000165324
0.00014122
0.000212478
0.000260055
0.000190551
0.000196771
0.000180524
0.000147237
0.000127987
0.000148208
0.000111449
0.000181264
0.000212357
0.00029304
0.000225691
0.000162468
0.000171629
0.000105499
0.000145859
8.00269e-05
0.000165091
0.000140939
0.000214207
0.000324065
0.000170993
0.000161199
0.000116421
0.000131947
0.0001013
0.000141991
0.000146927
0.000184524
0.000257211
2.75829e-05
-1.75498e-05
-3.83261e-06
-8.63011e-05
-0.000178313
-0.000163593
-0.000159916
-0.00016876
-0.000131491
-0.000177548
-9.90693e-05
-0.000136213
-9.66389e-05
-0.000140852
-8.03418e-05
-0.000102879
-9.20841e-05
-6.40814e-05
-7.16099e-05
-9.5332e-05
-0.00019641
-0.000166523
-0.000118227
-0.000100528
-9.04376e-05
-7.80277e-05
-5.52272e-05
-5.78579e-05
-5.85192e-05
-6.59583e-05
-0.000216009
-0.000143511
-0.000133611
-0.000100051
-6.86198e-05
-3.90373e-05
-4.27294e-05
-4.17546e-05
-1.68664e-05
-5.1663e-05
-0.000223167
-0.000141159
-0.000104187
-7.08149e-05
-3.64715e-05
-3.17018e-05
-7.95037e-06
4.42724e-06
-2.47688e-05
-1.5637e-05
-0.000203665
-9.38209e-05
-7.48314e-05
-3.22378e-05
-2.78643e-05
1.60717e-05
8.48351e-06
-3.70457e-06
2.7602e-05
-7.37593e-06
-0.000153152
-5.28552e-05
-1.82557e-05
-2.78452e-05
2.2088e-05
-7.5519e-07
1.62204e-05
3.65177e-05
6.09176e-06
1.76168e-05
-7.37056e-05
-2.20361e-05
4.5643e-06
1.75113e-05
9.90529e-06
2.07522e-05
3.13219e-05
9.58825e-06
4.49738e-05
1.75828e-05
-6.2593e-05
6.16562e-05
-3.34482e-07
4.23078e-05
7.20828e-06
3.23557e-05
6.1225e-06
3.77339e-05
2.18654e-05
3.31455e-05
2.39751e-05
3.3007e-05
6.53877e-05
4.44183e-05
5.74633e-05
3.61928e-05
3.73103e-05
2.09742e-05
2.87462e-05
1.88574e-05
0.000897903
0.000495318
0.000479525
0.00031976
0.000188528
8.91446e-05
6.94541e-05
4.71233e-05
1.64838e-05
0.000111752
0.00064403
0.000298945
0.000273092
0.000181041
0.000130268
0.000101718
2.26469e-05
6.47009e-06
8.8027e-05
6.16892e-05
0.000393741
0.000201071
0.000162066
0.000148945
0.000111396
3.04176e-05
5.73091e-05
6.67882e-05
-4.70273e-06
9.23034e-05
0.000278813
0.000101486
0.000122952
8.68514e-05
6.39998e-05
8.98563e-05
3.0657e-05
7.61044e-06
9.95011e-05
6.84309e-05
0.0002162
9.02889e-05
5.20595e-05
7.4456e-05
7.67504e-05
2.73365e-05
5.37006e-05
8.59061e-05
2.20751e-05
0.000103781
0.000171089
5.51121e-05
7.60805e-05
5.39727e-05
4.76229e-05
7.62601e-05
5.22845e-05
2.85802e-05
0.000103119
8.66263e-05
0.000219811
7.96953e-05
5.26792e-05
6.12933e-05
6.66249e-05
4.21312e-05
4.77755e-05
8.95548e-05
4.79817e-05
0.000100877
0.000183576
8.89858e-05
6.38053e-05
6.1988e-05
5.07305e-05
5.3974e-05
6.61318e-05
3.79067e-05
9.25508e-05
9.37271e-05
0.000249263
5.88428e-05
7.36855e-05
4.58368e-05
4.18505e-05
4.6433e-05
2.43409e-05
7.07405e-05
5.38802e-05
9.4461e-05
0.000214125
6.84628e-05
4.2902e-05
3.02178e-05
2.61244e-05
1.76126e-05
3.79093e-05
4.26311e-05
7.11687e-05
0.000108838
4.66228e-05
-3.76642e-05
-4.55705e-05
-0.00018011
-0.000265478
-0.000242939
-0.000236559
-0.000219588
-0.000195217
-0.000244581
-3.19755e-05
-0.000137997
-0.000158993
-0.000169914
-0.000144703
-0.000140343
-0.000134313
-0.000114061
-0.000116429
-0.000158385
-0.000216247
-0.000208962
-0.000149864
-0.000155175
-0.000140151
-0.0001262
-0.000100673
-0.000101505
-0.000120261
-0.000130375
-0.000202494
-0.000185767
-0.000194077
-0.000154654
-0.000121524
-8.87973e-05
-9.02846e-05
-9.65173e-05
-7.29448e-05
-0.000121074
-0.000261417
-0.000209433
-0.000164143
-0.000133435
-0.000100875
-8.448e-05
-6.29447e-05
-4.9221e-05
-8.93354e-05
-8.94207e-05
-0.000240644
-0.000164626
-0.000150649
-0.000122813
-8.38289e-05
-5.54763e-05
-4.34172e-05
-6.35326e-05
-3.6681e-05
-8.97466e-05
-0.000200799
-0.000153012
-0.000131639
-9.65663e-05
-7.61708e-05
-5.22159e-05
-3.86517e-05
-2.35978e-05
-5.87832e-05
-6.58743e-05
-0.00018447
-0.000120914
-0.000111728
-8.82528e-05
-6.63218e-05
-3.0931e-05
-3.4195e-05
-3.13888e-05
-2.3387e-05
-7.08371e-05
-0.000143824
-0.000112866
-7.82261e-05
-7.81843e-05
-3.51296e-05
-5.51414e-05
-1.58516e-05
-3.5451e-05
-3.30078e-05
-5.13714e-05
-0.000149365
-8.32511e-05
-6.73023e-05
-3.78816e-05
-4.34529e-05
-2.53094e-05
-4.35524e-05
-4.87576e-05
-4.31434e-05
-8.23895e-05
0.000860693
0.000465603
0.000378438
0.000234321
0.000139431
8.25348e-05
7.87053e-05
6.88732e-05
7.70423e-05
0.000144528
0.000600244
0.000280722
0.000224304
0.000180462
0.000122813
0.00011597
7.00352e-05
6.56895e-05
9.29006e-05
0.000104014
0.000381111
0.000196434
0.000164795
0.000145211
0.000116504
7.36333e-05
8.18649e-05
8.0228e-05
5.52031e-05
0.000114333
0.000285426
0.000121119
0.000130957
0.000104999
8.83949e-05
8.95012e-05
6.3042e-05
5.87234e-05
8.84206e-05
0.000106685
0.000211125
9.94598e-05
8.29709e-05
8.97994e-05
7.94851e-05
6.37975e-05
6.56592e-05
7.95216e-05
7.329e-05
0.000110803
0.000174039
7.32198e-05
7.88806e-05
5.83439e-05
6.7681e-05
5.71892e-05
6.41779e-05
6.80575e-05
7.94166e-05
0.000112887
0.000180041
5.63372e-05
3.81579e-05
5.52682e-05
3.23637e-05
5.03836e-05
4.52861e-05
5.73182e-05
8.23327e-05
9.83544e-05
0.000120035
5.106e-05
2.38833e-05
2.05928e-05
3.31268e-05
2.865e-05
3.79619e-05
6.14014e-05
5.95112e-05
0.0001047
0.000149332
-1.23471e-05
3.3824e-05
8.97105e-06
2.86271e-05
2.5279e-05
3.54656e-05
3.74766e-05
6.36797e-05
7.63196e-05
9.54282e-05
3.31609e-05
1.76271e-05
3.2068e-05
3.19552e-05
4.26613e-05
5.52693e-05
7.7852e-05
9.00512e-05
0.0001228
-0.000179486
-0.000171981
-0.000145253
-0.000204671
-0.000210694
-0.000147895
-0.000128427
-0.00011415
-4.26219e-05
-0.000104184
-0.000101885
-0.000109883
-0.000147559
-0.000101995
-7.31233e-05
-7.12891e-05
-2.88049e-05
-2.75453e-06
-6.98753e-05
-5.17121e-05
-0.000203167
-0.000180149
-9.58097e-05
-0.000103015
-8.41576e-05
-2.99965e-05
-3.97356e-05
-5.4593e-05
-1.1323e-05
-6.09258e-05
-0.000156974
-0.000123047
-0.000149165
-9.47147e-05
-5.71659e-05
-6.30817e-05
-2.70143e-05
-1.2434e-05
-5.96834e-05
-4.10105e-05
-0.000195566
-0.000165198
-9.52823e-05
-8.74073e-05
-7.20518e-05
-2.15348e-05
-3.4149e-05
-4.06897e-05
-8.77784e-06
-5.16027e-05
-0.000160747
-0.000102569
-0.000119432
-8.74351e-05
-4.41361e-05
-6.00301e-05
-1.93966e-05
-8.05592e-06
-4.66849e-05
-3.38265e-05
-0.00015677
-0.000139845
-0.000107714
-8.34542e-05
-8.81707e-05
-3.32994e-05
-3.5358e-05
-4.78371e-05
-8.68014e-06
-4.38496e-05
-0.000160699
-0.00011653
-0.000121446
-0.000103352
-6.85417e-05
-5.21085e-05
-5.13776e-05
-5.96502e-06
-4.42376e-05
-3.49298e-05
-0.000160525
-0.000139089
-9.38116e-05
-8.73617e-05
-4.26068e-05
-5.69547e-05
-9.26463e-06
-5.38967e-05
-1.39442e-05
-4.56352e-05
-0.000175766
-8.3844e-05
-6.13308e-05
-2.12826e-05
-1.96408e-05
4.20092e-06
-1.38015e-05
-5.13178e-06
-1.49373e-05
-4.22493e-05
0.000436149
0.000205017
0.000177753
0.000118528
0.000103018
8.94868e-05
9.44183e-05
9.07235e-05
0.000122406
0.000159937
0.000358836
0.000180367
0.000126056
0.000135742
9.78357e-05
9.64697e-05
8.43866e-05
8.55018e-05
7.30346e-05
0.000109135
0.000240741
0.000111297
0.000108157
9.4536e-05
8.10944e-05
7.46234e-05
6.50824e-05
5.76035e-05
6.94909e-05
9.1762e-05
0.00019313
7.94729e-05
7.45562e-05
6.76716e-05
6.18634e-05
4.72682e-05
4.61386e-05
5.20148e-05
4.63799e-05
8.07469e-05
0.000154815
5.28282e-05
5.38931e-05
4.87793e-05
3.56006e-05
4.09111e-05
2.93436e-05
3.22503e-05
5.14525e-05
6.39941e-05
0.000133679
4.61246e-05
3.29767e-05
1.75221e-05
3.24088e-05
7.00002e-06
2.49467e-05
3.3685e-05
2.6797e-05
6.20392e-05
0.000125268
8.70206e-06
-3.51261e-06
1.19964e-05
-1.79879e-05
1.33252e-05
4.63993e-06
6.37519e-06
4.10177e-05
4.39704e-05
5.95544e-05
3.99722e-06
-2.72927e-05
-2.90351e-05
-1.19808e-05
-1.10619e-05
-6.77595e-06
2.52213e-05
1.12333e-05
5.01817e-05
7.26041e-05
-6.7785e-05
-1.23509e-05
-4.01371e-05
-5.35676e-06
-1.87064e-05
9.00752e-06
-7.00432e-06
2.65899e-05
2.55256e-05
6.20535e-06
-1.65946e-05
-3.12202e-05
-7.72253e-06
-1.27757e-05
5.81403e-06
8.94119e-06
3.03277e-05
3.57078e-05
5.41796e-05
-0.000220824
-0.000170212
-0.000167637
-0.000196832
-0.000183848
-0.0001219
-0.000110413
-9.42429e-05
-1.88135e-05
-8.67438e-05
-0.000158089
-0.00013154
-0.000171206
-0.000111663
-8.51037e-05
-8.03116e-05
-3.03203e-05
-2.72622e-06
-7.67169e-05
-5.50985e-05
-0.000187805
-0.000170738
-0.000101925
-0.000113004
-9.49336e-05
-3.69664e-05
-5.10898e-05
-6.81348e-05
-1.55878e-05
-7.8051e-05
-0.000132155
-0.000104452
-0.000140966
-9.6966e-05
-6.73681e-05
-8.03132e-05
-4.53859e-05
-2.99701e-05
-7.78281e-05
-7.11134e-05
-0.000157057
-0.000138456
-8.47689e-05
-9.06774e-05
-8.47876e-05
-4.29764e-05
-5.55967e-05
-6.59327e-05
-4.14676e-05
-8.33996e-05
-0.000116694
-8.32302e-05
-0.000110089
-9.17273e-05
-5.80628e-05
-7.64833e-05
-4.43232e-05
-4.29774e-05
-6.53785e-05
-7.79712e-05
-0.000127459
-0.000120457
-0.000102981
-8.32266e-05
-9.60888e-05
-4.88992e-05
-4.99114e-05
-5.88883e-05
-4.25324e-05
-7.26104e-05
-0.000127242
-0.000104683
-0.000115619
-0.000104617
-7.71902e-05
-5.22624e-05
-5.84119e-05
-2.31681e-05
-4.80915e-05
-6.35725e-05
-0.000134162
-0.000133724
-8.9206e-05
-9.68207e-05
-4.19374e-05
-6.9552e-05
-8.03215e-06
-5.38521e-05
-2.16539e-05
-5.26577e-05
-0.000154756
-8.17619e-05
-7.62339e-05
-3.78473e-05
-4.7037e-05
-1.57802e-05
-3.57964e-05
-2.76128e-05
-2.95085e-05
-5.99097e-05
0.000439803
0.000257845
0.000232838
0.000191711
0.000163081
0.000141727
0.000127902
0.000121643
0.000157842
0.000174249
0.000329207
0.000195224
0.000157441
0.00015523
0.000120828
0.000109374
9.75846e-05
0.000104747
8.39982e-05
0.000117792
0.000232954
0.000138873
0.000128841
0.000117744
9.86047e-05
8.89505e-05
8.0358e-05
6.69251e-05
8.51547e-05
9.51892e-05
0.000157559
9.77684e-05
0.000100158
8.73638e-05
7.78686e-05
6.1385e-05
5.33912e-05
6.26599e-05
5.62051e-05
7.75081e-05
0.000117885
7.42924e-05
7.14362e-05
6.83253e-05
5.30985e-05
4.76229e-05
4.28498e-05
4.10514e-05
5.44514e-05
6.51743e-05
8.91829e-05
5.68456e-05
5.5643e-05
4.17988e-05
4.51145e-05
2.80366e-05
3.50398e-05
4.0682e-05
4.43113e-05
6.28665e-05
7.3014e-05
3.70816e-05
2.56996e-05
3.60688e-05
1.2844e-05
2.92307e-05
2.64242e-05
3.05337e-05
5.48067e-05
5.78356e-05
4.00661e-05
2.23747e-05
1.19247e-05
2.8343e-06
1.45662e-05
1.56204e-05
2.20446e-05
4.72328e-05
4.47114e-05
7.64628e-05
3.79317e-05
-1.07225e-05
8.80333e-06
-2.64357e-06
1.45324e-05
1.26339e-05
3.58869e-05
3.20353e-05
6.13037e-05
6.1429e-05
-5.79809e-06
-1.27249e-06
-8.9786e-06
6.06237e-06
1.00213e-05
3.10925e-05
4.67617e-05
7.47619e-05
8.58081e-05
0.000108604
-0.000234529
-0.000175999
-0.000158013
-0.000194065
-0.000197632
-0.000136869
-0.000133129
-0.000108726
-2.16774e-05
-9.56438e-05
-0.000250601
-0.000169592
-0.000193755
-0.000142511
-0.000104849
-0.000102389
-4.90307e-05
-1.4067e-05
-8.33662e-05
-7.22142e-05
-0.000293787
-0.000218249
-0.000144033
-0.000143108
-0.000122226
-6.31421e-05
-6.55797e-05
-8.24835e-05
-3.10705e-05
-9.57914e-05
-0.000287539
-0.000164712
-0.000181943
-0.000136922
-9.90324e-05
-9.82247e-05
-6.98988e-05
-4.93319e-05
-8.30291e-05
-9.6221e-05
-0.000302446
-0.000194821
-0.000141675
-0.000125554
-0.000109006
-7.37146e-05
-6.67022e-05
-7.44013e-05
-6.15449e-05
-9.70214e-05
-0.00029598
-0.000151398
-0.000144365
-0.000119769
-8.42919e-05
-8.03324e-05
-5.67073e-05
-5.6118e-05
-5.79896e-05
-9.17976e-05
-0.0002882
-0.000149228
-0.000130051
-9.75669e-05
-9.31923e-05
-5.61715e-05
-4.18322e-05
-4.3378e-05
-4.16823e-05
-6.97052e-05
-0.000262374
-0.00014206
-0.000114031
-0.000103542
-7.47282e-05
-3.81612e-05
-3.99126e-05
-1.02259e-05
-2.03429e-05
-4.8875e-05
-0.000264176
-0.000109349
-0.000101498
-8.74351e-05
-4.11331e-05
-5.37407e-05
1.03394e-05
-2.03052e-05
6.41096e-06
-2.35753e-05
-0.000248803
-0.000122861
-0.000101172
-6.34199e-05
-5.38488e-05
-1.38557e-05
-1.47098e-05
1.56478e-07
1.11385e-05
-1.61434e-05
0.000572809
0.000226038
0.000239902
0.00012914
0.000114976
8.62154e-05
6.47631e-05
6.76448e-05
0.000106044
8.09728e-05
0.000553357
0.000221446
9.38433e-05
0.000142831
6.77268e-05
8.23432e-05
5.73224e-05
6.09721e-05
3.20291e-05
2.68858e-05
0.000445697
0.000124105
9.61292e-05
6.76599e-05
4.65618e-05
2.92864e-05
2.90729e-05
2.95074e-06
4.01155e-06
-8.65958e-07
0.000325333
9.0112e-05
6.67755e-05
2.2882e-05
7.84636e-06
1.38057e-06
-2.39173e-05
-2.10262e-05
-1.18349e-05
-3.4048e-05
0.000313162
7.7046e-05
1.48274e-05
1.03273e-05
-1.57088e-05
-3.41826e-05
-2.66364e-05
-2.91092e-05
-4.58369e-05
-3.32402e-05
0.000244406
4.67207e-05
3.7279e-05
-3.64182e-05
-1.36685e-05
-3.92683e-05
-3.11912e-05
-4.51115e-05
-1.58346e-05
-4.74375e-05
0.0002842
5.12862e-05
-3.84053e-05
9.78823e-06
-5.89225e-05
-1.48689e-05
-1.69589e-05
-1.02178e-05
-1.89269e-05
-2.81794e-05
0.000183629
3.46048e-05
-1.80488e-05
-4.82565e-05
-2.69823e-05
2.78651e-06
-1.33438e-05
2.26528e-05
9.82387e-06
-4.45511e-06
0.000244566
-6.81966e-05
1.26261e-05
-7.72388e-05
1.64601e-05
-4.6147e-05
5.17224e-05
2.99294e-06
4.2608e-05
1.36617e-05
0.000130169
4.8489e-06
-7.46918e-05
-4.118e-05
-7.152e-05
-1.32225e-05
-1.1848e-05
2.50963e-05
5.23878e-05
3.67078e-05
-0.000510875
-0.000533432
-0.000359019
-0.000429634
-0.00035187
-0.000255434
-0.00023484
-0.00022264
-8.54969e-05
-0.000201734
-0.000205362
-0.000240497
-0.000362853
-0.00019816
-0.000169649
-0.000156477
-8.95693e-05
-4.9296e-05
-0.000189182
-0.000155804
-0.000260554
-0.000366257
-0.000220444
-0.000240579
-0.000208948
-0.000115982
-0.000139485
-0.000186568
-0.000104311
-0.000205868
-0.000245836
-0.000232543
-0.000307182
-0.000242249
-0.000186983
-0.000200806
-0.000160375
-0.00013365
-0.000205658
-0.000207034
-0.000240618
-0.000299705
-0.000231661
-0.000232064
-0.000223811
-0.000161129
-0.000171978
-0.000194224
-0.000165755
-0.000219093
-0.000232185
-0.000206786
-0.00024944
-0.000252778
-0.000176971
-0.000211984
-0.000159492
-0.000164817
-0.000183197
-0.000217978
-0.000225677
-0.000264966
-0.000280826
-0.000215041
-0.000260324
-0.000155167
-0.000156539
-0.000166907
-0.000156982
-0.00019612
-0.000270704
-0.00025293
-0.000287526
-0.000269376
-0.000209579
-0.000141368
-0.000164718
-9.60708e-05
-0.000147577
-0.000176426
-0.000318786
-0.000377994
-0.000237429
-0.000289917
-0.000114426
-0.00019847
-4.0059e-05
-0.000147569
-9.14256e-05
-0.00013519
-0.000335743
-0.000109395
-0.000193051
-0.000125955
-0.00016172
-8.44293e-05
-0.000127191
-0.000106069
-0.000106261
-0.000136114
-3.64568e-05
-8.89272e-07
2.60308e-05
-7.9865e-05
-6.17819e-05
-3.17798e-05
-5.38131e-05
-5.88126e-05
0.000111312
2.15932e-05
0.000234876
6.49019e-05
-6.33665e-05
4.71343e-05
1.77043e-05
-5.13669e-07
2.85508e-05
3.56398e-05
-7.85997e-05
9.37135e-05
0.000100434
-7.32952e-05
5.89764e-06
-3.21865e-05
-3.59822e-05
2.02757e-05
-3.95176e-05
-7.0683e-05
1.16462e-05
1.91617e-05
5.06184e-05
-3.57972e-05
-9.88928e-05
-6.84817e-05
-4.61441e-05
-9.55943e-05
-5.29348e-05
-2.06428e-05
-0.000119645
1.42492e-05
-1.71643e-05
-0.000136235
-8.22537e-05
-0.000105047
-0.000119496
-5.69616e-05
-0.000103963
-0.000136587
-2.78617e-05
-5.57643e-05
-5.7865e-05
-0.000105621
-0.000156788
-0.000157309
-0.00010508
-0.000173148
-0.000119038
-7.98837e-05
-0.000165247
-4.05231e-05
-0.000123209
-0.000236661
-0.000225435
-0.000189478
-0.000235024
-0.000137328
-0.000166989
-0.00020871
-0.000105653
-0.000105878
-0.000256623
-0.000262959
-0.000293063
-0.000265017
-0.000206202
-0.000196866
-0.000211434
-0.000132069
-0.000207091
-8.73327e-05
-0.000315881
-0.000453801
-0.000293356
-0.000295662
-0.000166581
-0.000204853
-0.000131128
-0.000213887
-0.000222178
-5.95142e-05
-0.000480436
-9.22541e-05
-0.000163817
-0.000116681
-0.000118067
-7.17643e-05
-9.53857e-05
-3.89917e-05
-7.33024e-05
-0.000108495
-0.000730276
-0.000399258
-0.00040019
-0.000481706
-0.000444351
-0.00039756
-0.00041863
-0.000487506
-0.000296601
-0.000510673
-0.000296096
-0.000294308
-0.000363278
-0.000253848
-0.00019669
-0.000256918
-0.000197946
-0.000211762
-0.000418201
-0.000139994
-0.000357915
-0.000364197
-0.000227113
-0.000260443
-0.000243712
-0.000137828
-0.000240281
-0.000283865
-0.000199382
-0.000150417
-0.000278799
-0.000232325
-0.000331341
-0.000246651
-0.000195444
-0.000261363
-0.000188943
-0.000162852
-0.000339524
-0.000121443
-0.000350964
-0.00034547
-0.000233179
-0.000266368
-0.000258574
-0.000158425
-0.000241027
-0.000296678
-0.000166607
-0.000201465
-0.000317725
-0.000259404
-0.000336189
-0.000274581
-0.000226087
-0.000286855
-0.000242916
-0.000204527
-0.000348492
-0.000169706
-0.0004016
-0.000415516
-0.000332035
-0.000331121
-0.000319692
-0.000250046
-0.000308362
-0.000371512
-0.000283784
-0.000259031
-0.000475677
-0.000410766
-0.000416683
-0.000355094
-0.000302739
-0.000336612
-0.000341149
-0.000338655