/*--------------------------------*- C++ -*----------------------------------*\
| =========                 |                                                 |
| \\      /  F ield         | OpenFOAM: The Open Source CFD Toolbox           |
|  \\    /   O peration     | Version:  2406                                  |
|   \\  /    A nd           | Website:  www.openfoam.com                      |
|    \\/     M anipulation  |                                                 |
\*---------------------------------------------------------------------------*/
FoamFile
{
    version     2.0;
    format      ascii;
    arch        "LSB;label=32;scalar=64";
    class       volScalarField;
    location    "500";
    object      magR;
}
// * * * * * * * * * * * * * * * * * * * * * * * * * * * * * * * * * * * * * //

dimensions      [0 2 -2 0 0 0 0];

internalField   nonuniform List<scalar> 
25000
(
5.29526e-05
4.54222e-05
3.70368e-05
3.70705e-05
3.69442e-05
3.701e-05
3.73878e-05
3.80758e-05
4.15923e-05
4.35838e-05
4.56211e-05
3.99759e-05
3.6518e-05
3.48548e-05
3.40952e-05
3.41752e-05
3.50981e-05
3.6953e-05
4.03933e-05
4.16206e-05
3.72726e-05
3.66613e-05
3.40721e-05
3.25039e-05
3.17831e-05
3.18348e-05
3.26557e-05
3.42853e-05
3.69484e-05
3.81144e-05
3.7213e-05
3.4939e-05
3.2538e-05
3.09732e-05
3.02244e-05
3.02629e-05
3.10744e-05
3.26757e-05
3.5135e-05
3.74472e-05
3.70279e-05
3.41676e-05
3.18089e-05
3.02319e-05
2.94669e-05
2.94895e-05
3.02943e-05
3.18939e-05
3.42557e-05
3.71023e-05
3.70495e-05
3.42165e-05
3.18588e-05
3.02681e-05
2.94902e-05
2.95039e-05
3.03023e-05
3.1898e-05
3.42578e-05
3.71027e-05
3.74079e-05
3.51368e-05
3.2673e-05
3.10834e-05
3.02983e-05
3.03056e-05
3.10981e-05
3.26885e-05
3.51413e-05
3.74484e-05
3.80751e-05
3.69699e-05
3.43084e-05
3.26896e-05
3.19009e-05
3.19031e-05
3.26926e-05
3.43053e-05
3.69588e-05
3.8116e-05
4.15739e-05
4.04217e-05
3.69846e-05
3.51462e-05
3.42626e-05
3.42624e-05
3.51452e-05
3.69768e-05
4.04062e-05
4.16206e-05
4.3619e-05
4.16541e-05
3.81291e-05
3.74556e-05
3.71049e-05
3.71034e-05
3.74464e-05
3.8112e-05
4.16212e-05
4.35995e-05
6.49539e-05
5.86e-05
5.33871e-05
5.34912e-05
5.30092e-05
5.30044e-05
5.34577e-05
5.43191e-05
5.81719e-05
5.99432e-05
5.88091e-05
5.42625e-05
5.27065e-05
5.18911e-05
5.1296e-05
5.13191e-05
5.19465e-05
5.29736e-05
5.51842e-05
5.81967e-05
5.35561e-05
5.2839e-05
5.0841e-05
5.01244e-05
4.97526e-05
4.97762e-05
5.02287e-05
5.10331e-05
5.29125e-05
5.43492e-05
5.35606e-05
5.1924e-05
5.01459e-05
4.92309e-05
4.87881e-05
4.88184e-05
4.93033e-05
5.02308e-05
5.1959e-05
5.34965e-05
5.30863e-05
5.13513e-05
4.97627e-05
4.87963e-05
4.83568e-05
4.83697e-05
4.88324e-05
4.98046e-05
5.13482e-05
5.30489e-05
5.30613e-05
5.13508e-05
4.97965e-05
4.8819e-05
4.83717e-05
4.83806e-05
4.88383e-05
4.98077e-05
5.13505e-05
5.30482e-05
5.35073e-05
5.19887e-05
5.02386e-05
4.93162e-05
4.88434e-05
4.88486e-05
4.93217e-05
5.02418e-05
5.19651e-05
5.34952e-05
5.43467e-05
5.29535e-05
5.10609e-05
5.02553e-05
4.98168e-05
4.98175e-05
5.02539e-05
5.10492e-05
5.29235e-05
5.43482e-05
5.81606e-05
5.52221e-05
5.29966e-05
5.19737e-05
5.13575e-05
5.13582e-05
5.19758e-05
5.29902e-05
5.51934e-05
5.81862e-05
5.99988e-05
5.82553e-05
5.43638e-05
5.35032e-05
5.30513e-05
5.30517e-05
5.34973e-05
5.43529e-05
5.82084e-05
5.99676e-05
5.7687e-05
5.12176e-05
4.88044e-05
4.8048e-05
4.73833e-05
4.74071e-05
4.79979e-05
4.93087e-05
5.15957e-05
5.51665e-05
5.13635e-05
4.76495e-05
4.71867e-05
4.65522e-05
4.60606e-05
4.60797e-05
4.65844e-05
4.73706e-05
4.82293e-05
5.15709e-05
4.88622e-05
4.72764e-05
4.58453e-05
4.52229e-05
4.48037e-05
4.48184e-05
4.529e-05
4.60043e-05
4.72813e-05
4.92993e-05
4.80414e-05
4.65313e-05
4.52224e-05
4.44839e-05
4.40349e-05
4.40553e-05
4.45233e-05
4.52804e-05
4.65754e-05
4.79952e-05
4.74069e-05
4.60605e-05
4.47854e-05
4.40343e-05
4.36553e-05
4.3663e-05
4.4057e-05
4.48293e-05
4.60798e-05
4.74051e-05
4.74268e-05
4.60701e-05
4.48066e-05
4.40371e-05
4.36584e-05
4.36661e-05
4.4058e-05
4.48294e-05
4.608e-05
4.7404e-05
4.80291e-05
4.65857e-05
4.52673e-05
4.45165e-05
4.40594e-05
4.40658e-05
4.45284e-05
4.52828e-05
4.65761e-05
4.79922e-05
4.93328e-05
4.72998e-05
4.60061e-05
4.5291e-05
4.48317e-05
4.48347e-05
4.52971e-05
4.60086e-05
4.72848e-05
4.9297e-05
5.15909e-05
4.82464e-05
4.73718e-05
4.65851e-05
4.60855e-05
4.60871e-05
4.65912e-05
4.73745e-05
4.82306e-05
5.15643e-05
5.52022e-05
5.16159e-05
4.93076e-05
4.79991e-05
4.74104e-05
4.74138e-05
4.80028e-05
4.93147e-05
5.16048e-05
5.51722e-05
4.30611e-05
3.68093e-05
3.60381e-05
3.50204e-05
3.44771e-05
3.44968e-05
3.49793e-05
3.6372e-05
3.73372e-05
4.18714e-05
3.69221e-05
3.41227e-05
3.40715e-05
3.34152e-05
3.30398e-05
3.30478e-05
3.34304e-05
3.42448e-05
3.45533e-05
3.72942e-05
3.60411e-05
3.41284e-05
3.29874e-05
3.22538e-05
3.17857e-05
3.17978e-05
3.22963e-05
3.31278e-05
3.4159e-05
3.63467e-05
3.49762e-05
3.33682e-05
3.2241e-05
3.14948e-05
3.1024e-05
3.10419e-05
3.15219e-05
3.22805e-05
3.341e-05
3.49612e-05
3.44675e-05
3.30114e-05
3.17531e-05
3.10175e-05
3.06175e-05
3.06242e-05
3.1036e-05
3.1793e-05
3.30246e-05
3.44665e-05
3.44933e-05
3.30166e-05
3.17711e-05
3.10169e-05
3.06172e-05
3.06236e-05
3.10338e-05
3.17914e-05
3.30242e-05
3.44652e-05
3.49908e-05
3.34117e-05
3.22622e-05
3.15085e-05
3.10345e-05
3.10398e-05
3.15189e-05
3.22785e-05
3.3408e-05
3.49578e-05
3.63779e-05
3.41639e-05
3.31192e-05
3.2285e-05
3.17925e-05
3.17956e-05
3.22915e-05
3.31257e-05
3.41585e-05
3.63436e-05
3.73255e-05
3.45575e-05
3.42355e-05
3.34171e-05
3.30285e-05
3.30301e-05
3.34243e-05
3.4242e-05
3.45512e-05
3.72913e-05
4.18911e-05
3.73215e-05
3.63498e-05
3.49614e-05
3.44702e-05
3.44747e-05
3.49698e-05
3.6366e-05
3.73335e-05
4.18683e-05
3.25305e-05
2.73577e-05
2.70018e-05
2.59697e-05
2.54896e-05
2.54864e-05
2.58939e-05
2.72118e-05
2.7856e-05
3.19611e-05
2.74136e-05
2.51712e-05
2.49413e-05
2.4129e-05
2.37752e-05
2.37705e-05
2.41164e-05
2.50928e-05
2.55513e-05
2.78099e-05
2.69412e-05
2.49549e-05
2.38107e-05
2.28595e-05
2.23492e-05
2.23624e-05
2.28966e-05
2.39447e-05
2.50142e-05
2.71779e-05
2.58845e-05
2.40501e-05
2.283e-05
2.19291e-05
2.14225e-05
2.14423e-05
2.19643e-05
2.28796e-05
2.40926e-05
2.58712e-05
2.54511e-05
2.37219e-05
2.23005e-05
2.14081e-05
2.09255e-05
2.09338e-05
2.14323e-05
2.235e-05
2.37387e-05
2.54458e-05
2.54646e-05
2.37255e-05
2.23255e-05
2.14118e-05
2.09248e-05
2.09322e-05
2.14285e-05
2.23476e-05
2.37388e-05
2.54446e-05
2.58884e-05
2.40881e-05
2.28588e-05
2.19482e-05
2.14282e-05
2.1433e-05
2.19586e-05
2.28769e-05
2.40905e-05
2.58689e-05
2.71989e-05
2.50146e-05
2.39341e-05
2.2883e-05
2.23495e-05
2.23524e-05
2.2888e-05
2.39411e-05
2.50138e-05
2.71764e-05
2.7834e-05
2.55521e-05
2.50829e-05
2.41036e-05
2.37459e-05
2.37459e-05
2.41076e-05
2.50869e-05
2.55483e-05
2.78085e-05
3.19618e-05
2.78295e-05
2.71855e-05
2.58764e-05
2.54538e-05
2.54573e-05
2.58824e-05
2.72004e-05
2.78475e-05
3.19539e-05
2.65841e-05
2.27382e-05
2.24055e-05
2.14913e-05
2.10426e-05
2.10295e-05
2.13806e-05
2.24832e-05
2.31012e-05
2.62567e-05
2.27639e-05
2.1129e-05
2.0674e-05
1.98045e-05
1.94563e-05
1.94507e-05
1.97817e-05
2.07728e-05
2.14271e-05
2.30612e-05
2.23177e-05
2.06683e-05
1.95707e-05
1.85753e-05
1.81033e-05
1.8117e-05
1.86141e-05
1.96898e-05
2.07037e-05
2.24579e-05
2.14082e-05
1.97244e-05
1.85422e-05
1.76129e-05
1.71422e-05
1.71598e-05
1.76516e-05
1.8604e-05
1.97706e-05
2.13765e-05
2.10127e-05
1.94082e-05
1.80559e-05
1.71274e-05
1.66406e-05
1.66479e-05
1.71508e-05
1.81121e-05
1.94393e-05
2.10163e-05
2.10142e-05
1.9415e-05
1.80859e-05
1.71326e-05
1.66401e-05
1.66471e-05
1.71474e-05
1.81099e-05
1.94402e-05
2.10157e-05
2.13763e-05
1.97576e-05
1.85824e-05
1.76388e-05
1.7147e-05
1.71509e-05
1.76486e-05
1.86031e-05
1.97694e-05
2.13761e-05
2.24674e-05
2.06993e-05
1.96817e-05
1.8608e-05
1.81103e-05
1.81129e-05
1.86109e-05
1.96896e-05
2.07058e-05
2.24596e-05
2.30758e-05
2.14253e-05
2.0769e-05
1.97813e-05
1.94439e-05
1.94423e-05
1.97824e-05
2.07717e-05
2.14275e-05
2.30635e-05
2.62469e-05
2.30768e-05
2.24682e-05
2.13814e-05
2.10215e-05
2.10236e-05
2.13835e-05
2.24784e-05
2.3098e-05
2.62515e-05
2.38476e-05
2.12415e-05
2.08452e-05
1.9978e-05
1.95404e-05
1.95354e-05
1.98626e-05
2.08116e-05
2.14284e-05
2.35549e-05
2.12484e-05
2.01174e-05
1.94702e-05
1.86199e-05
1.82861e-05
1.82895e-05
1.86118e-05
1.95364e-05
2.02968e-05
2.13844e-05
2.07545e-05
1.94661e-05
1.84752e-05
1.75724e-05
1.7182e-05
1.71941e-05
1.76146e-05
1.85874e-05
1.94712e-05
2.07915e-05
1.99148e-05
1.85547e-05
1.75452e-05
1.67265e-05
1.63429e-05
1.63543e-05
1.67565e-05
1.761e-05
1.86107e-05
1.9872e-05
1.95299e-05
1.82546e-05
1.71453e-05
1.63336e-05
1.59303e-05
1.59329e-05
1.63457e-05
1.71963e-05
1.82967e-05
1.95496e-05
1.95276e-05
1.8267e-05
1.71752e-05
1.63357e-05
1.59292e-05
1.59334e-05
1.63429e-05
1.71941e-05
1.82978e-05
1.95491e-05
1.98556e-05
1.85932e-05
1.75923e-05
1.67513e-05
1.63464e-05
1.63473e-05
1.67558e-05
1.76097e-05
1.86092e-05
1.98716e-05
2.07872e-05
1.94635e-05
1.85844e-05
1.76188e-05
1.71957e-05
1.71963e-05
1.76159e-05
1.85882e-05
1.94739e-05
2.0794e-05
2.13881e-05
2.02932e-05
1.95399e-05
1.86227e-05
1.82994e-05
1.82963e-05
1.86194e-05
1.95393e-05
2.02997e-05
2.1389e-05
2.35304e-05
2.13992e-05
2.08029e-05
1.98745e-05
1.95506e-05
1.95524e-05
1.98764e-05
2.08133e-05
2.14289e-05
2.35529e-05
2.29963e-05
2.12802e-05
2.07678e-05
1.99416e-05
1.95334e-05
1.95512e-05
1.98691e-05
2.06879e-05
2.13104e-05
2.26578e-05
2.12685e-05
2.04018e-05
1.96493e-05
1.88753e-05
1.85645e-05
1.85824e-05
1.89046e-05
1.9736e-05
2.05011e-05
2.1258e-05
2.06897e-05
1.96588e-05
1.87788e-05
1.79839e-05
1.7654e-05
1.76641e-05
1.80316e-05
1.89001e-05
1.96671e-05
2.06643e-05
1.99091e-05
1.88343e-05
1.79681e-05
1.72462e-05
1.69171e-05
1.69217e-05
1.72628e-05
1.80285e-05
1.8903e-05
1.98764e-05
1.95456e-05
1.85546e-05
1.76333e-05
1.69154e-05
1.65775e-05
1.65753e-05
1.69136e-05
1.76699e-05
1.85961e-05
1.95749e-05
1.95528e-05
1.85753e-05
1.76591e-05
1.69121e-05
1.65753e-05
1.65765e-05
1.69111e-05
1.76673e-05
1.85964e-05
1.95737e-05
1.98632e-05
1.88941e-05
1.80188e-05
1.72642e-05
1.69184e-05
1.69164e-05
1.72624e-05
1.80262e-05
1.88987e-05
1.98734e-05
2.06619e-05
1.96655e-05
1.89036e-05
1.80424e-05
1.76707e-05
1.76693e-05
1.80329e-05
1.88973e-05
1.96655e-05
2.06637e-05
2.12653e-05
2.05062e-05
1.97475e-05
1.89199e-05
1.85998e-05
1.85948e-05
1.89101e-05
1.97357e-05
2.05003e-05
2.12614e-05
2.26331e-05
2.12839e-05
2.06847e-05
1.98819e-05
1.95775e-05
1.95783e-05
1.98811e-05
2.06876e-05
2.13074e-05
2.26571e-05
2.26513e-05
2.14376e-05
2.08602e-05
2.01293e-05
1.9785e-05
1.98313e-05
2.01337e-05
2.08173e-05
2.13978e-05
2.22738e-05
2.14226e-05
2.06976e-05
1.99703e-05
1.9312e-05
1.90359e-05
1.90676e-05
1.93851e-05
2.01172e-05
2.07978e-05
2.13472e-05
2.08139e-05
2.00032e-05
1.92409e-05
1.85431e-05
1.82465e-05
1.82528e-05
1.85907e-05
1.93741e-05
2.00446e-05
2.07957e-05
2.01281e-05
1.92951e-05
1.85369e-05
1.78809e-05
1.75706e-05
1.75688e-05
1.78811e-05
1.8586e-05
1.93784e-05
2.01341e-05
1.98098e-05
1.90378e-05
1.82345e-05
1.75729e-05
1.72702e-05
1.72646e-05
1.75606e-05
1.82581e-05
1.90776e-05
1.985e-05
1.9834e-05
1.90628e-05
1.82501e-05
1.7561e-05
1.72654e-05
1.72656e-05
1.75579e-05
1.82548e-05
1.90771e-05
1.98473e-05
2.01271e-05
1.93721e-05
1.85749e-05
1.7881e-05
1.75649e-05
1.75628e-05
1.78792e-05
1.85813e-05
1.93707e-05
2.01258e-05
2.07935e-05
2.00423e-05
1.93737e-05
1.85968e-05
1.8256e-05
1.8255e-05
1.85881e-05
1.93665e-05
2.00376e-05
2.07872e-05
2.13549e-05
2.08044e-05
2.0125e-05
1.93912e-05
1.9077e-05
1.90732e-05
1.93825e-05
2.01117e-05
2.0792e-05
2.13433e-05
2.22595e-05
2.13806e-05
2.08144e-05
2.01337e-05
1.98481e-05
1.98495e-05
2.01336e-05
2.0812e-05
2.13909e-05
2.22682e-05
2.21623e-05
2.12183e-05
2.06719e-05
2.00771e-05
1.98155e-05
1.98882e-05
2.01678e-05
2.07279e-05
2.12173e-05
2.18138e-05
2.12138e-05
2.06315e-05
2.00187e-05
1.94832e-05
1.92466e-05
1.92866e-05
1.95908e-05
2.02359e-05
2.07977e-05
2.11739e-05
2.06595e-05
2.00715e-05
1.94357e-05
1.88202e-05
1.85395e-05
1.85409e-05
1.88599e-05
1.95734e-05
2.01606e-05
2.07107e-05
2.00942e-05
1.9481e-05
1.88198e-05
1.82135e-05
1.79057e-05
1.78994e-05
1.81981e-05
1.88521e-05
1.95762e-05
2.016e-05
1.98351e-05
1.92457e-05
1.85289e-05
1.79088e-05
1.76265e-05
1.76201e-05
1.78916e-05
1.85432e-05
1.9286e-05
1.98935e-05
1.98767e-05
1.92694e-05
1.85304e-05
1.78873e-05
1.76187e-05
1.76199e-05
1.78883e-05
1.85393e-05
1.92854e-05
1.989e-05
2.01494e-05
1.95618e-05
1.88305e-05
1.81886e-05
1.78901e-05
1.78907e-05
1.81931e-05
1.88454e-05
1.95676e-05
2.01483e-05
2.06966e-05
2.01462e-05
1.95591e-05
1.88517e-05
1.85331e-05
1.85353e-05
1.88515e-05
1.95624e-05
2.01515e-05
2.06966e-05
2.11694e-05
2.07942e-05
2.02309e-05
1.95785e-05
1.92778e-05
1.92779e-05
1.95794e-05
2.02283e-05
2.07913e-05
2.11656e-05
2.1799e-05
2.1202e-05
2.07195e-05
2.0149e-05
1.98848e-05
1.98899e-05
2.01564e-05
2.07218e-05
2.12113e-05
2.18065e-05
2.15171e-05
2.07026e-05
2.02589e-05
1.98105e-05
1.9627e-05
1.97123e-05
1.99613e-05
2.04145e-05
2.07937e-05
2.1244e-05
2.07209e-05
2.03085e-05
1.98377e-05
1.94098e-05
1.92054e-05
1.92433e-05
1.95257e-05
2.00982e-05
2.05466e-05
2.0759e-05
2.02751e-05
1.99055e-05
1.93851e-05
1.88302e-05
1.85529e-05
1.85474e-05
1.88504e-05
1.95038e-05
2.00196e-05
2.04005e-05
1.9833e-05
1.94143e-05
1.88326e-05
1.82592e-05
1.79465e-05
1.79371e-05
1.82276e-05
1.88359e-05
1.94981e-05
1.99407e-05
1.96321e-05
1.91948e-05
1.85396e-05
1.79487e-05
1.76774e-05
1.76711e-05
1.79275e-05
1.85396e-05
1.92217e-05
1.96922e-05
1.9685e-05
1.92117e-05
1.85266e-05
1.79194e-05
1.76672e-05
1.76691e-05
1.79227e-05
1.8535e-05
1.92215e-05
1.96893e-05
1.99352e-05
1.94836e-05
1.88093e-05
1.82094e-05
1.79212e-05
1.79234e-05
1.82171e-05
1.88267e-05
1.949e-05
1.99289e-05
2.03833e-05
2.00005e-05
1.94799e-05
1.88275e-05
1.85242e-05
1.85286e-05
1.88329e-05
1.94888e-05
2.00098e-05
2.03839e-05
2.07497e-05
2.05377e-05
2.00828e-05
1.94937e-05
1.92092e-05
1.92124e-05
1.95019e-05
2.00873e-05
2.05395e-05
2.07475e-05
2.12278e-05
2.07788e-05
2.03998e-05
1.99216e-05
1.96795e-05
1.96875e-05
1.99361e-05
2.04072e-05
2.07883e-05
2.12349e-05
2.08648e-05
2.00536e-05
1.97347e-05
1.94151e-05
1.92882e-05
1.93693e-05
1.95861e-05
1.99554e-05
2.0237e-05
2.06956e-05
2.00909e-05
1.98628e-05
1.95239e-05
1.91774e-05
1.89912e-05
1.90187e-05
1.92767e-05
1.979e-05
2.01416e-05
2.02056e-05
1.97699e-05
1.96019e-05
1.91736e-05
1.86576e-05
1.83767e-05
1.83656e-05
1.86554e-05
1.92557e-05
1.97062e-05
1.99384e-05
1.94397e-05
1.91869e-05
1.86625e-05
1.8108e-05
1.77901e-05
1.77811e-05
1.80663e-05
1.86333e-05
1.92348e-05
1.9552e-05
1.92848e-05
1.89749e-05
1.83625e-05
1.77914e-05
1.75271e-05
1.7523e-05
1.77697e-05
1.83465e-05
1.89746e-05
1.93231e-05
1.93404e-05
1.89823e-05
1.83387e-05
1.77593e-05
1.75168e-05
1.7519e-05
1.77635e-05
1.83417e-05
1.89752e-05
1.93221e-05
1.95669e-05
1.92331e-05
1.86097e-05
1.80428e-05
1.77604e-05
1.77634e-05
1.80501e-05
1.8622e-05
1.92293e-05
1.95441e-05
1.99354e-05
1.96953e-05
1.92305e-05
1.86225e-05
1.83301e-05
1.83351e-05
1.86294e-05
1.92382e-05
1.96981e-05
1.99247e-05
2.02056e-05
2.01379e-05
1.97717e-05
1.92327e-05
1.89639e-05
1.8968e-05
1.92427e-05
1.9776e-05
2.01349e-05
2.01946e-05
2.06856e-05
2.02276e-05
1.99401e-05
1.95357e-05
1.93136e-05
1.93218e-05
1.95509e-05
1.99459e-05
2.02305e-05
2.0685e-05
2.0415e-05
1.94142e-05
1.91927e-05
1.89676e-05
1.88679e-05
1.89285e-05
1.91136e-05
1.94202e-05
1.96383e-05
2.03181e-05
1.94564e-05
1.93839e-05
1.91484e-05
1.88564e-05
1.86739e-05
1.86867e-05
1.89222e-05
1.93867e-05
1.96594e-05
1.9608e-05
1.923e-05
1.92286e-05
1.88658e-05
1.83735e-05
1.80887e-05
1.80751e-05
1.83544e-05
1.89076e-05
1.92974e-05
1.93977e-05
1.89817e-05
1.88606e-05
1.83758e-05
1.78354e-05
1.75192e-05
1.7515e-05
1.7796e-05
1.83258e-05
1.8869e-05
1.90696e-05
1.88526e-05
1.8647e-05
1.80679e-05
1.7517e-05
1.72624e-05
1.72629e-05
1.7503e-05
1.80476e-05
1.86256e-05
1.88617e-05
1.89e-05
1.86438e-05
1.80395e-05
1.74877e-05
1.72544e-05
1.72579e-05
1.74957e-05
1.80431e-05
1.86276e-05
1.88637e-05
1.91022e-05
1.88768e-05
1.83039e-05
1.77686e-05
1.74924e-05
1.74961e-05
1.77762e-05
1.83144e-05
1.88679e-05
1.90692e-05
1.94094e-05
1.92945e-05
1.88829e-05
1.83158e-05
1.80335e-05
1.80388e-05
1.83239e-05
1.88904e-05
1.92936e-05
1.93916e-05
1.96173e-05
1.966e-05
1.9367e-05
1.88731e-05
1.86198e-05
1.86241e-05
1.88836e-05
1.93718e-05
1.96548e-05
1.96015e-05
2.03192e-05
1.96383e-05
1.94083e-05
1.9063e-05
1.88585e-05
1.88648e-05
1.9074e-05
1.94092e-05
1.96315e-05
2.03084e-05
2.0297e-05
1.88613e-05
1.86756e-05
1.85059e-05
1.84082e-05
1.84422e-05
1.86039e-05
1.8873e-05
1.90887e-05
2.02537e-05
1.88948e-05
1.89113e-05
1.87509e-05
1.84908e-05
1.83038e-05
1.83041e-05
1.85242e-05
1.89501e-05
1.9159e-05
1.9056e-05
1.86989e-05
1.88246e-05
1.85082e-05
1.80319e-05
1.77481e-05
1.77377e-05
1.80106e-05
1.85239e-05
1.8857e-05
1.88441e-05
1.85007e-05
1.84836e-05
1.80298e-05
1.75055e-05
1.71996e-05
1.72047e-05
1.74826e-05
1.79799e-05
1.84679e-05
1.85592e-05
1.83806e-05
1.82661e-05
1.77207e-05
1.71936e-05
1.69525e-05
1.69599e-05
1.7195e-05
1.77105e-05
1.8241e-05
1.8372e-05
1.84139e-05
1.8256e-05
1.76951e-05
1.71725e-05
1.69492e-05
1.69548e-05
1.71877e-05
1.77069e-05
1.82446e-05
1.83771e-05
1.85954e-05
1.84757e-05
1.79568e-05
1.74525e-05
1.71833e-05
1.71884e-05
1.74622e-05
1.79703e-05
1.84717e-05
1.85675e-05
1.8862e-05
1.88559e-05
1.84993e-05
1.79713e-05
1.76987e-05
1.77045e-05
1.79815e-05
1.851e-05
1.88587e-05
1.88483e-05
1.90692e-05
1.91597e-05
1.89301e-05
1.84785e-05
1.824e-05
1.82441e-05
1.84897e-05
1.89376e-05
1.91581e-05
1.90575e-05
2.02618e-05
1.90942e-05
1.88664e-05
1.85647e-05
1.83759e-05
1.83798e-05
1.85707e-05
1.88639e-05
1.90837e-05
2.0249e-05
2.04902e-05
1.84636e-05
1.82094e-05
1.80551e-05
1.79437e-05
1.79527e-05
1.81009e-05
1.83566e-05
1.86609e-05
2.04628e-05
1.84869e-05
1.84677e-05
1.83519e-05
1.81091e-05
1.79163e-05
1.79087e-05
1.81186e-05
1.85121e-05
1.86711e-05
1.86239e-05
1.82168e-05
1.84179e-05
1.81337e-05
1.76714e-05
1.73942e-05
1.73896e-05
1.76576e-05
1.81363e-05
1.8417e-05
1.83215e-05
1.80319e-05
1.80918e-05
1.76655e-05
1.7161e-05
1.68707e-05
1.68849e-05
1.71583e-05
1.76268e-05
1.80643e-05
1.80597e-05
1.79086e-05
1.78729e-05
1.73625e-05
1.68624e-05
1.66356e-05
1.66483e-05
1.68776e-05
1.73663e-05
1.78528e-05
1.78898e-05
1.79273e-05
1.78606e-05
1.73451e-05
1.68516e-05
1.66373e-05
1.66438e-05
1.6871e-05
1.7364e-05
1.78574e-05
1.78968e-05
1.8094e-05
1.80709e-05
1.76056e-05
1.71306e-05
1.68681e-05
1.68732e-05
1.71398e-05
1.762e-05
1.80714e-05
1.8074e-05
1.83434e-05
1.84179e-05
1.81152e-05
1.76235e-05
1.73594e-05
1.73645e-05
1.7633e-05
1.8126e-05
1.8422e-05
1.83335e-05
1.86416e-05
1.86727e-05
1.84947e-05
1.80823e-05
1.78567e-05
1.78597e-05
1.80913e-05
1.85015e-05
1.86713e-05
1.86315e-05
2.04759e-05
1.8669e-05
1.83544e-05
1.80757e-05
1.78989e-05
1.79002e-05
1.80761e-05
1.83483e-05
1.86559e-05
2.04621e-05
2.04609e-05
1.82669e-05
1.7803e-05
1.76213e-05
1.74902e-05
1.74838e-05
1.76315e-05
1.79079e-05
1.84288e-05
2.04359e-05
1.82795e-05
1.80512e-05
1.79537e-05
1.7723e-05
1.75296e-05
1.75205e-05
1.77254e-05
1.80921e-05
1.82192e-05
1.83877e-05
1.77957e-05
1.8012e-05
1.77566e-05
1.73125e-05
1.70475e-05
1.70507e-05
1.73149e-05
1.77642e-05
1.7997e-05
1.78677e-05
1.75864e-05
1.77002e-05
1.7305e-05
1.68257e-05
1.65536e-05
1.65753e-05
1.68435e-05
1.72869e-05
1.76778e-05
1.75974e-05
1.74547e-05
1.74871e-05
1.70163e-05
1.65448e-05
1.63315e-05
1.63474e-05
1.65706e-05
1.70353e-05
1.74802e-05
1.74372e-05
1.74634e-05
1.74775e-05
1.7009e-05
1.65436e-05
1.6337e-05
1.63435e-05
1.65651e-05
1.70342e-05
1.74847e-05
1.74444e-05
1.76246e-05
1.76796e-05
1.72673e-05
1.68194e-05
1.65634e-05
1.65684e-05
1.6828e-05
1.72824e-05
1.76853e-05
1.76132e-05
1.78897e-05
1.79964e-05
1.77457e-05
1.72873e-05
1.70311e-05
1.70358e-05
1.72961e-05
1.77566e-05
1.80016e-05
1.78822e-05
1.8407e-05
1.82194e-05
1.80765e-05
1.76995e-05
1.74854e-05
1.74872e-05
1.77057e-05
1.80814e-05
1.82169e-05
1.83968e-05
2.04525e-05
1.8437e-05
1.79081e-05
1.76196e-05
1.7448e-05
1.74468e-05
1.76143e-05
1.78974e-05
1.8421e-05
2.0437e-05
1.85512e-05
1.83034e-05
1.74817e-05
1.72235e-05
1.70685e-05
1.70557e-05
1.72167e-05
1.75585e-05
1.84323e-05
1.85204e-05
1.831e-05
1.76734e-05
1.75623e-05
1.73437e-05
1.7156e-05
1.7149e-05
1.73494e-05
1.76928e-05
1.78172e-05
1.83894e-05
1.74647e-05
1.76154e-05
1.73888e-05
1.69686e-05
1.67185e-05
1.67274e-05
1.6986e-05
1.74084e-05
1.75996e-05
1.75162e-05
1.71825e-05
1.73198e-05
1.69614e-05
1.65109e-05
1.62556e-05
1.62804e-05
1.65405e-05
1.6961e-05
1.73099e-05
1.71902e-05
1.70356e-05
1.71182e-05
1.66906e-05
1.62479e-05
1.60451e-05
1.60604e-05
1.62761e-05
1.67186e-05
1.71247e-05
1.70266e-05
1.70399e-05
1.71133e-05
1.66917e-05
1.62527e-05
1.6052e-05
1.6057e-05
1.6272e-05
1.67186e-05
1.71285e-05
1.70322e-05
1.72089e-05
1.73073e-05
1.69447e-05
1.65223e-05
1.62728e-05
1.62769e-05
1.65292e-05
1.69593e-05
1.73162e-05
1.72032e-05
1.75362e-05
1.75978e-05
1.73937e-05
1.6966e-05
1.67177e-05
1.67217e-05
1.69736e-05
1.74035e-05
1.76027e-05
1.75281e-05
1.8409e-05
1.78172e-05
1.76803e-05
1.73335e-05
1.713e-05
1.71306e-05
1.73368e-05
1.76825e-05
1.78121e-05
1.83955e-05
1.85415e-05
1.84412e-05
1.75598e-05
1.72137e-05
1.70356e-05
1.70323e-05
1.72036e-05
1.75448e-05
1.84218e-05
1.85205e-05
1.33783e-05
1.84704e-05
1.72686e-05
1.68755e-05
1.66903e-05
1.66801e-05
1.6873e-05
1.73408e-05
1.85856e-05
1.33934e-05
1.84751e-05
1.73456e-05
1.71796e-05
1.69738e-05
1.67981e-05
1.67962e-05
1.69927e-05
1.73193e-05
1.74872e-05
1.85432e-05
1.7249e-05
1.72311e-05
1.70337e-05
1.66426e-05
1.64089e-05
1.64218e-05
1.66733e-05
1.7071e-05
1.72294e-05
1.72999e-05
1.68379e-05
1.69549e-05
1.66381e-05
1.62184e-05
1.59772e-05
1.60017e-05
1.62527e-05
1.66518e-05
1.69618e-05
1.68557e-05
1.66658e-05
1.67693e-05
1.63872e-05
1.59719e-05
1.57763e-05
1.5789e-05
1.5997e-05
1.64188e-05
1.67876e-05
1.66701e-05
1.66708e-05
1.67694e-05
1.63932e-05
1.59784e-05
1.57823e-05
1.57854e-05
1.59943e-05
1.64197e-05
1.67906e-05
1.66737e-05
1.68656e-05
1.69541e-05
1.66373e-05
1.62386e-05
1.59958e-05
1.59998e-05
1.62453e-05
1.66527e-05
1.69669e-05
1.68649e-05
1.73161e-05
1.7225e-05
1.7058e-05
1.66584e-05
1.64186e-05
1.64228e-05
1.6667e-05
1.70694e-05
1.72319e-05
1.73088e-05
1.85617e-05
1.74868e-05
1.73097e-05
1.69849e-05
1.67912e-05
1.67915e-05
1.69874e-05
1.73117e-05
1.74822e-05
1.85478e-05
1.34264e-05
1.8597e-05
1.73454e-05
1.68786e-05
1.66765e-05
1.6672e-05
1.68657e-05
1.73282e-05
1.85767e-05
1.33961e-05
2.91367e-05
1.83635e-05
1.71953e-05
1.66152e-05
1.63842e-05
1.63792e-05
1.66237e-05
1.72726e-05
1.84734e-05
2.92199e-05
1.83678e-05
1.70989e-05
1.68238e-05
1.66248e-05
1.64622e-05
1.64645e-05
1.66551e-05
1.69745e-05
1.72463e-05
1.84331e-05
1.71759e-05
1.68751e-05
1.66984e-05
1.63377e-05
1.6119e-05
1.61322e-05
1.63735e-05
1.6747e-05
1.68874e-05
1.72336e-05
1.65817e-05
1.66112e-05
1.63363e-05
1.59462e-05
1.57152e-05
1.57355e-05
1.59755e-05
1.63533e-05
1.66287e-05
1.66111e-05
1.63655e-05
1.6441e-05
1.6103e-05
1.57122e-05
1.55206e-05
1.55282e-05
1.57279e-05
1.61295e-05
1.64628e-05
1.63789e-05
1.63731e-05
1.64439e-05
1.61097e-05
1.57164e-05
1.55233e-05
1.55239e-05
1.5726e-05
1.61307e-05
1.64648e-05
1.63807e-05
1.66158e-05
1.66193e-05
1.6342e-05
1.59652e-05
1.57289e-05
1.5732e-05
1.59701e-05
1.63552e-05
1.66321e-05
1.66167e-05
1.72467e-05
1.68824e-05
1.67361e-05
1.63616e-05
1.61299e-05
1.61336e-05
1.63692e-05
1.67464e-05
1.6889e-05
1.72396e-05
1.84505e-05
1.72469e-05
1.69679e-05
1.66512e-05
1.64648e-05
1.64645e-05
1.66517e-05
1.69679e-05
1.72414e-05
1.84361e-05
2.92364e-05
1.84879e-05
1.72796e-05
1.6632e-05
1.63823e-05
1.6377e-05
1.66171e-05
1.72606e-05
1.84658e-05
2.92151e-05
9.17997e-05
1.69835e-05
1.72183e-05
1.64614e-05
1.61654e-05
1.61656e-05
1.6481e-05
1.73038e-05
1.70911e-05
9.19172e-05
1.69873e-05
1.69462e-05
1.65115e-05
1.63011e-05
1.61486e-05
1.61532e-05
1.63387e-05
1.66692e-05
1.70994e-05
1.70562e-05
1.72035e-05
1.6566e-05
1.63868e-05
1.60531e-05
1.5847e-05
1.58587e-05
1.60882e-05
1.64384e-05
1.65843e-05
1.72673e-05
1.64395e-05
1.62986e-05
1.60574e-05
1.56926e-05
1.54684e-05
1.54831e-05
1.57121e-05
1.60682e-05
1.63138e-05
1.64707e-05
1.61595e-05
1.61404e-05
1.584e-05
1.54687e-05
1.52786e-05
1.52812e-05
1.54725e-05
1.58535e-05
1.61526e-05
1.61689e-05
1.61697e-05
1.61442e-05
1.58447e-05
1.5469e-05
1.52778e-05
1.52759e-05
1.5471e-05
1.58545e-05
1.61537e-05
1.61699e-05
1.64807e-05
1.63117e-05
1.60638e-05
1.57055e-05
1.54753e-05
1.54774e-05
1.57071e-05
1.60696e-05
1.63156e-05
1.64746e-05
1.72849e-05
1.65855e-05
1.64331e-05
1.6079e-05
1.58548e-05
1.58575e-05
1.60836e-05
1.64377e-05
1.65854e-05
1.72721e-05
1.70808e-05
1.71069e-05
1.66689e-05
1.63382e-05
1.61553e-05
1.61537e-05
1.63348e-05
1.66629e-05
1.70953e-05
1.70594e-05
9.19124e-05
1.71165e-05
1.73175e-05
1.64932e-05
1.6173e-05
1.61663e-05
1.64745e-05
1.72932e-05
1.70851e-05
9.19068e-05
0.000216801
1.38143e-05
1.71317e-05
1.64018e-05
1.60384e-05
1.60398e-05
1.64238e-05
1.72172e-05
1.38957e-05
0.000216962
1.38167e-05
1.68358e-05
1.62539e-05
1.60043e-05
1.58548e-05
1.58599e-05
1.60432e-05
1.64125e-05
1.69869e-05
1.38705e-05
1.71233e-05
1.63135e-05
1.60915e-05
1.57799e-05
1.55845e-05
1.55939e-05
1.58115e-05
1.61414e-05
1.63291e-05
1.71849e-05
1.63901e-05
1.60099e-05
1.5787e-05
1.54446e-05
1.52268e-05
1.52372e-05
1.54562e-05
1.57912e-05
1.60175e-05
1.64136e-05
1.60421e-05
1.58543e-05
1.5581e-05
1.52282e-05
1.50408e-05
1.50403e-05
1.52247e-05
1.55857e-05
1.58558e-05
1.60406e-05
1.60523e-05
1.58567e-05
1.5583e-05
1.52247e-05
1.50375e-05
1.5035e-05
1.52238e-05
1.55863e-05
1.58565e-05
1.60418e-05
1.64325e-05
1.60225e-05
1.57898e-05
1.5451e-05
1.52284e-05
1.52306e-05
1.54518e-05
1.57922e-05
1.60191e-05
1.64181e-05
1.72089e-05
1.63368e-05
1.61399e-05
1.5804e-05
1.55888e-05
1.55907e-05
1.58068e-05
1.6141e-05
1.63311e-05
1.71902e-05
1.39039e-05
1.70006e-05
1.64168e-05
1.6045e-05
1.58612e-05
1.58588e-05
1.60387e-05
1.64074e-05
1.69847e-05
1.38752e-05
0.00021694
1.3939e-05
1.72382e-05
1.64393e-05
1.60475e-05
1.60395e-05
1.64171e-05
1.72093e-05
1.38925e-05
0.000216942
0.000425892
2.00583e-05
1.64019e-05
1.63264e-05
1.59586e-05
1.59602e-05
1.63485e-05
1.64883e-05
2.01027e-05
0.000426157
2.00917e-05
1.65845e-05
1.60585e-05
1.57356e-05
1.55799e-05
1.55858e-05
1.57761e-05
1.622e-05
1.67376e-05
2.00574e-05
1.63944e-05
1.6119e-05
1.58103e-05
1.5514e-05
1.53291e-05
1.53383e-05
1.55466e-05
1.58635e-05
1.61389e-05
1.64629e-05
1.63165e-05
1.57419e-05
1.5521e-05
1.52001e-05
1.49907e-05
1.50003e-05
1.52121e-05
1.55283e-05
1.57523e-05
1.63417e-05
1.59625e-05
1.55786e-05
1.53248e-05
1.49915e-05
1.48101e-05
1.48104e-05
1.499e-05
1.53322e-05
1.55828e-05
1.59623e-05
1.59718e-05
1.55805e-05
1.53258e-05
1.49868e-05
1.48068e-05
1.48063e-05
1.49901e-05
1.53331e-05
1.5584e-05
1.59652e-05
1.63588e-05
1.57545e-05
1.55236e-05
1.52057e-05
1.49924e-05
1.49964e-05
1.52101e-05
1.55305e-05
1.57562e-05
1.63505e-05
1.64865e-05
1.61462e-05
1.58625e-05
1.55407e-05
1.53351e-05
1.53375e-05
1.5545e-05
1.58665e-05
1.61453e-05
1.6474e-05
2.00741e-05
1.67519e-05
1.62268e-05
1.57811e-05
1.559e-05
1.5588e-05
1.57761e-05
1.62206e-05
1.67417e-05
2.00619e-05
0.00042612
2.01125e-05
1.65156e-05
1.63698e-05
1.59721e-05
1.59648e-05
1.63485e-05
1.64888e-05
2.00991e-05
0.000426127
0.000731312
5.37499e-05
1.4436e-05
1.59703e-05
1.57999e-05
1.58e-05
1.59892e-05
1.45163e-05
5.38228e-05
0.00073173
5.38245e-05
1.58396e-05
1.59231e-05
1.5502e-05
1.53275e-05
1.53328e-05
1.55414e-05
1.60835e-05
1.59835e-05
5.37099e-05
1.44371e-05
1.59846e-05
1.55506e-05
1.52556e-05
1.50784e-05
1.50878e-05
1.52892e-05
1.5605e-05
1.60054e-05
1.44985e-05
1.59611e-05
1.5508e-05
1.52621e-05
1.49581e-05
1.4757e-05
1.47671e-05
1.49726e-05
1.52729e-05
1.55194e-05
1.5985e-05
1.58016e-05
1.53244e-05
1.50733e-05
1.47578e-05
1.4583e-05
1.4585e-05
1.47597e-05
1.5084e-05
1.53308e-05
1.58023e-05
1.58088e-05
1.53257e-05
1.50745e-05
1.47537e-05
1.45814e-05
1.45826e-05
1.47607e-05
1.50851e-05
1.53324e-05
1.58071e-05
1.59992e-05
1.55184e-05
1.52662e-05
1.4966e-05
1.47618e-05
1.47666e-05
1.4972e-05
1.52755e-05
1.55248e-05
1.59981e-05
1.45226e-05
1.60091e-05
1.56035e-05
1.52851e-05
1.50867e-05
1.50889e-05
1.52894e-05
1.56095e-05
1.60137e-05
1.45155e-05
5.37063e-05
1.59932e-05
1.6089e-05
1.55468e-05
1.5338e-05
1.53367e-05
1.55437e-05
1.60875e-05
1.59911e-05
5.36929e-05
0.00073165
5.37917e-05
1.45401e-05
1.6008e-05
1.58109e-05
1.58059e-05
1.59935e-05
1.45219e-05
5.3793e-05
0.000731658
0.00113024
0.000122127
1.38804e-05
1.49013e-05
1.52712e-05
1.52691e-05
1.49142e-05
1.39236e-05
0.000122302
0.00113092
0.000122248
1.43096e-05
1.58018e-05
1.52991e-05
1.50943e-05
1.50989e-05
1.53371e-05
1.59593e-05
1.44153e-05
0.000122089
1.39097e-05
1.58646e-05
1.53135e-05
1.50009e-05
1.48279e-05
1.48385e-05
1.50371e-05
1.53697e-05
1.58839e-05
1.38972e-05
1.48975e-05
1.53063e-05
1.50077e-05
1.47154e-05
1.4523e-05
1.45346e-05
1.47347e-05
1.50228e-05
1.53161e-05
1.49116e-05
1.52755e-05
1.50918e-05
1.48242e-05
1.45244e-05
1.43571e-05
1.43618e-05
1.45308e-05
1.48372e-05
1.50972e-05
1.527e-05
1.52796e-05
1.50928e-05
1.48267e-05
1.4523e-05
1.43588e-05
1.43615e-05
1.45325e-05
1.4838e-05
1.50978e-05
1.52749e-05
1.49271e-05
1.53137e-05
1.50161e-05
1.47297e-05
1.45343e-05
1.45392e-05
1.4735e-05
1.50236e-05
1.53192e-05
1.4924e-05
1.39265e-05
1.5883e-05
1.53679e-05
1.5036e-05
1.48419e-05
1.48428e-05
1.50379e-05
1.53719e-05
1.58872e-05
1.3915e-05
0.00012208
1.44207e-05
1.5962e-05
1.5343e-05
1.5106e-05
1.51044e-05
1.53385e-05
1.596e-05
1.44176e-05
0.000122064
0.00113078
0.00012226
1.39409e-05
1.49298e-05
1.5279e-05
1.52753e-05
1.49193e-05
1.39202e-05
0.000122258
0.00113083
0.00160616
0.000237304
2.74759e-05
1.33007e-05
1.40654e-05
1.40588e-05
1.32983e-05
2.74789e-05
0.000237614
0.00160714
0.000237457
1.32806e-05
1.55975e-05
1.51244e-05
1.48878e-05
1.48911e-05
1.51585e-05
1.57454e-05
1.32647e-05
0.000237275
2.7527e-05
1.56607e-05
1.51161e-05
1.47619e-05
1.45882e-05
1.45993e-05
1.47991e-05
1.51719e-05
1.56741e-05
2.7409e-05
1.33062e-05
1.51321e-05
1.47689e-05
1.44828e-05
1.42987e-05
1.43118e-05
1.45058e-05
1.47866e-05
1.51392e-05
1.32984e-05
1.40755e-05
1.48869e-05
1.45867e-05
1.43018e-05
1.41428e-05
1.41495e-05
1.43115e-05
1.4601e-05
1.48904e-05