/*--------------------------------*- C++ -*----------------------------------*\
| =========                 |                                                 |
| \\      /  F ield         | OpenFOAM: The Open Source CFD Toolbox           |
|  \\    /   O peration     | Version:  2406                                  |
|   \\  /    A nd           | Website:  www.openfoam.com                      |
|    \\/     M anipulation  |                                                 |
\*---------------------------------------------------------------------------*/
FoamFile
{
    version     2.0;
    format      ascii;
    arch        "LSB;label=32;scalar=64";
    class       volVectorField;
    location    "500";
    object      momentError;
}
// * * * * * * * * * * * * * * * * * * * * * * * * * * * * * * * * * * * * * //

dimensions      [0 1 -2 0 0 0 0];

internalField   nonuniform List<vector> 
25000
(
(-0.000230524 -0.0004117 -0.000167)
(0.000304618 -0.000163442 -9.66379e-05)
(0.000209343 -9.12846e-05 -5.37925e-05)
(5.1464e-05 -5.96871e-05 -3.11e-05)
(5.84982e-06 -3.68419e-05 -1.6329e-05)
(-5.27903e-06 -2.58714e-05 -6.34971e-06)
(-8.73658e-06 -1.83147e-05 8.3023e-07)
(-1.03953e-05 -9.84336e-06 6.77026e-06)
(-1.04382e-05 6.95897e-07 1.21733e-05)
(-1.09023e-05 1.00222e-05 1.66203e-05)
(-2.11267e-05 0.000207599 -0.000100965)
(0.000249847 0.000117378 -7.90119e-05)
(0.000151027 -1.98789e-05 -5.07851e-05)
(6.24392e-05 -3.85341e-05 -3.04591e-05)
(1.89235e-05 -3.14059e-05 -1.62211e-05)
(2.4098e-06 -2.4434e-05 -6.77393e-06)
(-1.93168e-06 -1.84156e-05 -1.05194e-08)
(-2.52971e-06 -1.26189e-05 5.51967e-06)
(-1.65469e-06 -5.42395e-06 1.06545e-05)
(-4.47351e-06 2.91693e-06 1.58156e-05)
(-1.76913e-05 0.000192573 -6.46676e-05)
(8.15121e-05 8.67889e-05 -5.65183e-05)
(8.05097e-05 5.02657e-06 -4.03179e-05)
(4.75783e-05 -2.16991e-05 -2.5547e-05)
(2.08644e-05 -2.47173e-05 -1.39963e-05)
(7.30061e-06 -2.10025e-05 -5.72562e-06)
(2.7825e-06 -1.6448e-05 2.21143e-07)
(2.5771e-06 -1.19769e-05 5.24071e-06)
(4.7236e-06 -6.76209e-06 9.97357e-06)
(5.10682e-06 -2.01748e-07 1.48962e-05)
(-2.39879e-05 5.62116e-05 -4.24812e-05)
(3.0387e-05 3.39754e-05 -3.91982e-05)
(4.36978e-05 7.22374e-07 -2.9934e-05)
(3.37893e-05 -1.64813e-05 -1.96361e-05)
(1.91683e-05 -2.06124e-05 -1.07706e-05)
(9.67985e-06 -1.88832e-05 -4.02831e-06)
(6.0806e-06 -1.55737e-05 1.12885e-06)
(6.31943e-06 -1.20169e-05 5.60267e-06)
(8.68994e-06 -8.62108e-06 9.92042e-06)
(1.07054e-05 -4.49182e-06 1.45383e-05)
(-1.98853e-05 1.00351e-05 -2.77712e-05)
(1.55099e-05 5.54876e-06 -2.64007e-05)
(2.85987e-05 -7.27331e-06 -2.07862e-05)
(2.5608e-05 -1.60744e-05 -1.3977e-05)
(1.76328e-05 -1.86969e-05 -7.409e-06)
(1.13774e-05 -1.7413e-05 -1.97112e-06)
(8.73438e-06 -1.49134e-05 2.34854e-06)
(8.74944e-06 -1.23556e-05 6.37451e-06)
(1.10221e-05 -9.88759e-06 1.04493e-05)
(1.34539e-05 -7.87737e-06 1.47875e-05)
(-9.83181e-06 -5.40587e-06 -1.64624e-05)
(1.12522e-05 -5.67601e-06 -1.67193e-05)
(2.19607e-05 -1.11889e-05 -1.38112e-05)
(2.22267e-05 -1.55054e-05 -9.22346e-06)
(1.74817e-05 -1.65276e-05 -4.42136e-06)
(1.30087e-05 -1.56816e-05 -1.66232e-07)
(1.07016e-05 -1.38522e-05 3.53386e-06)
(1.09845e-05 -1.20195e-05 7.19138e-06)
(1.25673e-05 -1.10428e-05 1.09881e-05)
(1.41885e-05 -1.07622e-05 1.52509e-05)
(-2.48379e-06 -1.23192e-05 -8.34588e-06)
(1.18501e-05 -9.72669e-06 -9.63443e-06)
(2.04409e-05 -1.09874e-05 -8.14353e-06)
(2.12231e-05 -1.25803e-05 -5.32797e-06)
(1.80219e-05 -1.29789e-05 -1.76744e-06)
(1.44594e-05 -1.23223e-05 1.57785e-06)
(1.2793e-05 -1.12248e-05 4.68145e-06)
(1.20322e-05 -1.0775e-05 8.02181e-06)
(1.29108e-05 -1.14718e-05 1.17679e-05)
(1.32652e-05 -1.37344e-05 1.59024e-05)
(8.69102e-06 -1.69912e-05 -1.51811e-06)
(1.58861e-05 -9.62383e-06 -3.51389e-06)
(2.14146e-05 -8.00182e-06 -3.16316e-06)
(2.16596e-05 -7.08394e-06 -1.31219e-06)
(1.87735e-05 -7.03927e-06 1.2725e-06)
(1.56577e-05 -6.49037e-06 3.889e-06)
(1.32164e-05 -6.70078e-06 6.5655e-06)
(1.1868e-05 -7.9534e-06 9.63209e-06)
(1.12086e-05 -1.09906e-05 1.3176e-05)
(8.28617e-06 -1.66988e-05 1.73555e-05)
(2.27342e-05 -1.81842e-05 4.28594e-06)
(2.45405e-05 -8.26487e-06 2.22723e-06)
(2.52233e-05 -2.59947e-06 2.05414e-06)
(2.36619e-05 1.72668e-07 3.26094e-06)
(1.97296e-05 1.12648e-06 5.10958e-06)
(1.58714e-05 1.02525e-06 7.25184e-06)
(1.25791e-05 -3.1097e-07 9.39092e-06)
(9.27584e-06 -3.62708e-06 1.22074e-05)
(6.51094e-06 -9.99245e-06 1.55976e-05)
(-1.26724e-06 -1.79861e-05 1.95319e-05)
(3.38783e-05 -1.05187e-05 9.12493e-06)
(3.43203e-05 -7.82076e-06 8.17419e-06)
(3.16274e-05 2.65826e-06 7.8942e-06)
(2.67906e-05 7.98299e-06 8.43664e-06)
(2.06574e-05 8.94864e-06 9.85623e-06)
(1.49754e-05 8.18625e-06 1.14813e-05)
(9.51956e-06 4.85635e-06 1.33554e-05)
(3.55806e-06 -1.89447e-06 1.59144e-05)
(-5.3598e-07 -1.0995e-05 1.90088e-05)
(-5.20551e-06 -2.00962e-05 2.18177e-05)
(-0.000258737 -0.000647226 0.00130999)
(0.00281167 0.000128566 0.000623164)
(0.000900632 -9.02541e-05 0.000205135)
(0.000448393 -0.000107933 5.41388e-05)
(0.000298812 -8.13422e-05 -1.01485e-05)
(0.000225766 -8.65282e-05 -4.02696e-05)
(0.000185075 -8.54775e-05 -5.33377e-05)
(0.000164155 -8.82747e-05 -5.77083e-05)
(0.000160822 -7.55256e-05 -5.69827e-05)
(0.00015814 -5.83276e-05 -5.13784e-05)
(0.000593808 0.00256251 0.00072391)
(0.000905309 0.000540344 0.00047272)
(0.000688704 0.000110985 0.000213088)
(0.000457187 1.45852e-05 6.83886e-05)
(0.000308137 -1.33756e-05 -4.0025e-06)
(0.000219552 -2.8148e-05 -3.78334e-05)
(0.000177941 -3.67243e-05 -5.33041e-05)
(0.000159906 -4.17134e-05 -5.92423e-05)
(0.000159816 -4.12706e-05 -5.9832e-05)
(0.000163061 -3.81371e-05 -5.62005e-05)
(7.77534e-05 0.000877 0.000327327)
(0.000410923 0.000505666 0.000270986)
(0.000463087 0.000233401 0.000148478)
(0.00036555 0.000105568 5.09135e-05)
(0.000268074 4.19051e-05 -8.21361e-06)
(0.00019936 1.39499e-05 -3.89774e-05)
(0.000162956 -2.49036e-06 -5.37891e-05)
(0.000150364 -1.27944e-05 -5.98536e-05)
(0.00015513 -1.88331e-05 -6.15093e-05)
(0.000167417 -2.20036e-05 -5.92849e-05)
(-7.26263e-06 0.000480271 0.000161122)
(0.000216335 0.00037679 0.000142807)
(0.000305835 0.000225736 8.34404e-05)
(0.000280298 0.000122472 2.35281e-05)
(0.000220415 6.32262e-05 -1.84751e-05)
(0.000172578 3.16067e-05 -4.26419e-05)
(0.00014645 1.36266e-05 -5.51048e-05)
(0.000139499 2.3988e-06 -6.07475e-05)
(0.000147012 -5.76983e-06 -6.27499e-05)
(0.000162462 -1.32516e-05 -6.16824e-05)
(-4.84366e-05 0.00032189 7.8236e-05)
(0.000134681 0.000276032 6.96038e-05)
(0.00021118 0.00018623 3.66369e-05)
(0.000208231 0.000112336 1.05628e-07)
(0.000179091 6.32842e-05 -2.83857e-05)
(0.00014869 3.63609e-05 -4.62497e-05)
(0.000132085 2.00816e-05 -5.62425e-05)
(0.00013002 1.03954e-05 -6.10627e-05)
(0.000139441 3.97012e-06 -6.28914e-05)
(0.000155999 -1.90348e-06 -6.25707e-05)
(-4.18493e-05 0.000239275 3.28074e-05)
(7.66848e-05 0.000205222 2.7528e-05)
(0.000145863 0.000148102 8.10637e-06)
(0.000160496 9.53715e-05 -1.56209e-05)
(0.000145539 6.0609e-05 -3.532e-05)
(0.000129061 3.67855e-05 -4.86468e-05)
(0.000119987 2.40961e-05 -5.64163e-05)
(0.000123236 1.71374e-05 -6.03876e-05)
(0.000134957 1.2717e-05 -6.23692e-05)
(0.000152701 1.00193e-05 -6.17197e-05)
(-5.78582e-05 0.000183709 8.34999e-06)
(5.15497e-05 0.000159691 4.4079e-06)
(0.000106073 0.000125396 -9.08543e-06)
(0.000122239 8.98552e-05 -2.53766e-05)
(0.000120392 6.31963e-05 -3.9698e-05)
(0.000111475 4.48566e-05 -4.95994e-05)
(0.00011183 3.53033e-05 -5.59468e-05)
(0.000117996 2.83243e-05 -5.93549e-05)
(0.000131636 2.45523e-05 -6.04037e-05)
(0.000151943 2.2642e-05 -5.94351e-05)
(-4.5777e-05 0.000149375 -3.35437e-06)
(3.15663e-05 0.000143288 -8.54509e-06)
(8.04895e-05 0.00011866 -1.92107e-05)
(9.80443e-05 0.000101368 -3.1801e-05)
(9.92077e-05 7.88782e-05 -4.2574e-05)
(9.99768e-05 6.79995e-05 -5.04302e-05)
(0.000102733 5.61792e-05 -5.52023e-05)
(0.000111771 4.98296e-05 -5.74128e-05)
(0.000128118 4.2472e-05 -5.79578e-05)
(0.000146343 3.51282e-05 -5.52075e-05)
(-3.17998e-05 0.000139327 -7.28004e-06)
(3.3388e-05 0.000141453 -1.55245e-05)
(6.73448e-05 0.000135236 -2.59633e-05)
(8.06651e-05 0.000120293 -3.69843e-05)
(8.46466e-05 0.00010819 -4.57539e-05)
(8.76348e-05 9.72182e-05 -5.16566e-05)
(9.37091e-05 8.85541e-05 -5.49965e-05)
(0.00010473 8.16185e-05 -5.58356e-05)
(0.000117799 6.93571e-05 -5.44623e-05)
(0.000132094 5.7802e-05 -5.04486e-05)
(-7.97525e-07 0.000137145 -6.20816e-06)
(4.12861e-05 0.00014258 -1.8323e-05)
(6.19875e-05 0.000141766 -3.00169e-05)
(6.79773e-05 0.000139819 -4.09334e-05)
(7.30093e-05 0.000131017 -4.87072e-05)
(7.90185e-05 0.000126266 -5.32631e-05)
(8.7577e-05 0.000121471 -5.46701e-05)
(9.32293e-05 0.000114061 -5.31669e-05)
(0.00010579 9.71035e-05 -4.98214e-05)
(0.000111276 7.92321e-05 -4.37518e-05)
(0.000599137 0.000915536 0.00122062)
(-0.000823163 0.000367489 0.000610891)
(-0.000863189 0.000149302 0.000246923)
(-0.000229143 0.00010309 0.000101262)
(-1.1372e-05 6.0861e-05 1.63465e-05)
(6.30053e-05 2.6733e-05 -4.20474e-05)
(9.34352e-05 2.61819e-06 -8.4523e-05)
(0.000107501 -2.33072e-05 -0.000118208)
(0.000122313 -4.30739e-05 -0.000146781)
(0.00013956 -6.43605e-05 -0.00016879)
(2.32292e-05 -0.000604338 0.000710631)
(-0.000856846 -0.000568491 0.000483725)
(-0.00061436 -4.60881e-05 0.000252215)
(-0.000246809 7.22874e-05 0.000111729)
(-4.94873e-05 7.00847e-05 2.2425e-05)
(3.64057e-05 5.19057e-05 -3.52731e-05)
(7.14036e-05 3.33985e-05 -7.74603e-05)
(8.60416e-05 1.655e-05 -0.000111504)
(9.7219e-05 1.00852e-06 -0.000142101)
(0.000112767 -2.11093e-05 -0.000170632)
(-2.8372e-05 -0.000820609 0.000370568)
(-0.000295355 -0.000458105 0.000313703)
(-0.000295501 -0.00010352 0.000193036)
(-0.00016537 3.58535e-05 8.94664e-05)
(-4.74397e-05 6.50594e-05 1.37917e-05)
(2.13486e-05 5.98398e-05 -3.87508e-05)
(5.42706e-05 4.56357e-05 -7.73654e-05)
(6.92864e-05 3.03541e-05 -0.000109775)
(7.88045e-05 1.36045e-05 -0.000140567)
(8.9963e-05 -7.4117e-06 -0.000170904)
(4.19517e-05 -0.000286464 0.000213281)
(-9.37093e-05 -0.000204719 0.000192677)
(-0.000130418 -5.93616e-05 0.000127014)
(-9.02275e-05 2.91451e-05 5.49024e-05)
(-3.04419e-05 5.99989e-05 -4.17371e-06)
(1.54467e-05 6.09891e-05 -4.81216e-05)
(4.15488e-05 5.07827e-05 -8.24966e-05)
(5.42751e-05 3.74804e-05 -0.000112472)
(6.17312e-05 2.34776e-05 -0.000141967)
(6.68888e-05 5.20535e-06 -0.000172738)
(5.03365e-05 -7.73378e-05 0.000117193)
(-2.65975e-05 -5.71163e-05 0.000108944)
(-5.9567e-05 -2.79055e-06 6.8465e-05)
(-4.8296e-05 4.12944e-05 2.02365e-05)
(-1.67981e-05 5.94457e-05 -2.40407e-05)
(1.17616e-05 6.01529e-05 -6.01504e-05)
(3.12116e-05 5.2116e-05 -8.96914e-05)
(4.31975e-05 4.19878e-05 -0.000117221)
(4.88874e-05 3.11917e-05 -0.000145759)
(5.13153e-05 2.06642e-05 -0.000175911)
(3.74199e-05 1.19242e-05 4.71847e-05)
(-7.59823e-06 1.37796e-05 4.61688e-05)
(-3.06229e-05 3.39584e-05 2.36729e-05)
(-2.79892e-05 5.1532e-05 -9.89123e-06)
(-1.15951e-05 5.9208e-05 -4.28795e-05)
(8.05805e-06 5.72345e-05 -7.18201e-05)
(2.37372e-05 5.08995e-05 -9.7598e-05)
(3.41976e-05 4.35259e-05 -0.00012297)
(4.19878e-05 3.82601e-05 -0.000150039)
(4.89417e-05 3.6544e-05 -0.000179688)
(8.48636e-06 5.9206e-05 -3.44131e-06)
(-4.02687e-06 4.82813e-05 4.61077e-07)
(-2.20691e-05 5.11417e-05 -1.39705e-05)
(-2.26584e-05 5.51182e-05 -3.59965e-05)
(-1.09186e-05 5.56951e-05 -6.10789e-05)
(3.09223e-06 5.24022e-05 -8.41786e-05)
(1.70415e-05 4.79707e-05 -0.000106314)
(3.00179e-05 4.38961e-05 -0.000129587)
(4.12419e-05 4.37967e-05 -0.000155672)
(5.72778e-05 5.0923e-05 -0.000183877)
(-2.47541e-05 8.81256e-05 -4.36484e-05)
(-1.70204e-05 6.55402e-05 -3.89458e-05)
(-2.50648e-05 5.64977e-05 -4.70676e-05)
(-2.34737e-05 5.33038e-05 -6.35165e-05)
(-1.45012e-05 4.86777e-05 -8.2104e-05)
(-4.99311e-07 4.64121e-05 -0.00010054)
(1.38844e-05 4.35669e-05 -0.000119457)
(2.81027e-05 4.46335e-05 -0.000140049)
(4.59565e-05 4.89348e-05 -0.000163773)
(7.38014e-05 6.18585e-05 -0.000189699)
(-6.57893e-05 0.000111173 -7.5846e-05)
(-3.51951e-05 7.71729e-05 -7.50512e-05)
(-3.60337e-05 6.14159e-05 -8.24153e-05)
(-3.11053e-05 4.81161e-05 -9.55654e-05)
(-1.84142e-05 4.08386e-05 -0.000109582)
(-3.08731e-06 3.79318e-05 -0.000124418)
(1.35916e-05 3.98004e-05 -0.000138931)
(3.27461e-05 4.69532e-05 -0.000156301)
(5.26745e-05 5.61477e-05 -0.000176122)
(8.89092e-05 7.3576e-05 -0.000197393)
(-9.20206e-05 0.000122192 -0.000102233)
(-6.13058e-05 8.50954e-05 -0.000110823)
(-5.57533e-05 6.35367e-05 -0.000120141)
(-4.45782e-05 4.37227e-05 -0.000131312)
(-2.49986e-05 3.15311e-05 -0.000143015)
(-1.84304e-06 3.00224e-05 -0.000154025)
(2.22063e-05 3.97956e-05 -0.000165196)
(4.37236e-05 5.82913e-05 -0.000177844)
(6.77334e-05 7.47959e-05 -0.000191762)
(0.000102078 9.62601e-05 -0.000204012)
(-1.9759e-05 0.000335138 0.000250042)
(-0.000618458 9.00848e-05 9.71357e-05)
(-0.000640446 6.3106e-05 4.85042e-05)
(-0.000215828 0.000121352 3.93299e-05)
(-0.000140965 0.000136449 1.78408e-05)
(-0.000123101 0.000149879 -1.19604e-05)
(-0.000119656 0.000151909 -4.45436e-05)
(-0.000128058 0.000149816 -7.85934e-05)
(-0.000142742 0.000136025 -0.000113261)
(-0.000159935 0.000107061 -0.000146345)
(-0.000210651 -0.000380291 0.000122316)
(-0.00062837 -0.000314575 8.21253e-05)
(-0.000452399 5.1101e-05 5.54683e-05)
(-0.000243347 9.29632e-05 4.03303e-05)
(-0.000152615 9.04044e-05 1.73299e-05)
(-0.000116294 9.36465e-05 -9.71565e-06)
(-0.000113545 9.89655e-05 -4.04015e-05)
(-0.000128562 9.9697e-05 -7.38661e-05)
(-0.000156851 9.5054e-05 -0.000110317)
(-0.000199822 7.85505e-05 -0.000150123)
(-6.03167e-05 -0.000593856 5.90199e-05)
(-0.00020783 -0.000276336 6.2459e-05)
(-0.000265932 -4.27062e-05 4.73471e-05)
(-0.000209664 2.94613e-05 3.03044e-05)
(-0.000149205 5.06238e-05 8.9695e-06)
(-0.00011448 5.64091e-05 -1.56735e-05)
(-0.00011015 5.92e-05 -4.30013e-05)
(-0.000129366 6.0043e-05 -7.45428e-05)
(-0.00016461 5.74453e-05 -0.000111218)
(-0.00021887 4.81916e-05 -0.000152658)
(9.20482e-05 -0.000257138 3.25451e-05)
(-6.88242e-05 -0.000185614 4.07408e-05)
(-0.000157424 -7.84357e-05 3.1503e-05)
(-0.000160994 -1.14932e-05 1.47586e-05)
(-0.000130409 1.97945e-05 -4.7028e-06)
(-0.000108579 3.02888e-05 -2.60739e-05)
(-0.000109162 3.36093e-05 -5.09655e-05)
(-0.000129876 3.32033e-05 -8.0377e-05)
(-0.000170393 3.00148e-05 -0.00011515)
(-0.000232035 2.41477e-05 -0.000156943)
(0.000147274 -0.000180365 5.75942e-06)
(-7.90008e-06 -0.000142318 1.48968e-05)
(-9.34387e-05 -8.03856e-05 8.30685e-06)
(-0.000115025 -2.93176e-05 -4.14407e-06)
(-0.000109575 -3.02776e-07 -2.05778e-05)
(-0.000101522 1.15588e-05 -3.97631e-05)
(-0.000107692 1.40231e-05 -6.14809e-05)
(-0.00013386 1.21518e-05 -8.87173e-05)
(-0.000176613 8.16466e-06 -0.000122855)
(-0.000240516 2.55255e-06 -0.000163334)
(0.000162939 -0.000153638 -2.61165e-05)
(3.55528e-05 -0.000121961 -1.54442e-05)
(-4.53918e-05 -7.97697e-05 -1.56831e-05)
(-8.2016e-05 -4.3027e-05 -2.48438e-05)
(-9.01471e-05 -2.07224e-05 -3.79438e-05)
(-9.47053e-05 -9.56768e-06 -5.37798e-05)
(-0.000108986 -7.35888e-06 -7.36635e-05)
(-0.000136211 -9.54194e-06 -9.92253e-05)
(-0.000180816 -1.37069e-05 -0.000131194)
(-0.000243147 -1.69842e-05 -0.000171246)
(0.000174272 -0.000140209 -5.67368e-05)
(6.12153e-05 -0.000119585 -4.39326e-05)
(-1.62837e-05 -9.51292e-05 -4.2373e-05)
(-5.5679e-05 -7.1343e-05 -4.66842e-05)
(-7.54389e-05 -5.43648e-05 -5.67231e-05)
(-8.7927e-05 -4.45832e-05 -6.99616e-05)
(-0.000107566 -4.07784e-05 -8.70964e-05)
(-0.000139754 -4.06645e-05 -0.000110614)
(-0.000182645 -4.1244e-05 -0.000141975)
(-0.000237916 -3.93669e-05 -0.000180048)
(0.000162403 -0.000140166 -8.87181e-05)
(7.19452e-05 -0.000142109 -7.59152e-05)
(1.01229e-06 -0.000131929 -7.11613e-05)
(-3.96904e-05 -0.000121505 -7.36951e-05)
(-6.18512e-05 -0.000108916 -8.05557e-05)
(-8.08218e-05 -9.95969e-05 -9.07411e-05)
(-0.000105359 -9.18174e-05 -0.00010573)
(-0.00013658 -8.56158e-05 -0.000126938)
(-0.000177416 -7.74647e-05 -0.000155208)
(-0.000224991 -6.58547e-05 -0.000191182)
(0.000137208 -0.000153015 -0.000120073)
(6.24294e-05 -0.000179182 -0.000110764)
(3.39506e-06 -0.000185707 -0.000106823)
(-2.99056e-05 -0.000183738 -0.000107793)
(-5.12096e-05 -0.000177715 -0.000111976)
(-7.07087e-05 -0.000168726 -0.000119893)
(-9.49929e-05 -0.00015649 -0.000131056)
(-0.000127021 -0.000142217 -0.000148964)
(-0.000163495 -0.000124093 -0.000173542)
(-0.000203868 -9.72387e-05 -0.000203301)
(8.79919e-05 -0.000189237 -0.000150625)
(3.69238e-05 -0.000233283 -0.000150533)
(-2.02042e-06 -0.000241457 -0.000148684)
(-2.63164e-05 -0.00024845 -0.000148391)
(-4.32174e-05 -0.000249452 -0.000150873)
(-5.92559e-05 -0.00024301 -0.000155616)
(-8.12515e-05 -0.000227068 -0.000163933)
(-0.00010636 -0.000203159 -0.000177607)
(-0.00013427 -0.000173299 -0.000195283)
(-0.000155691 -0.000125639 -0.000214751)
(-1.53357e-05 8.49232e-05 0.000109612)
(-0.00020354 -1.84751e-05 3.93658e-05)
(-8.8135e-05 7.46793e-05 4.24349e-05)
(8.48885e-05 0.000136341 6.49984e-05)
(-3.92475e-05 0.000156021 7.28984e-05)
(-0.000137199 0.000182433 6.97599e-05)
(-0.000206235 0.000204752 6.02456e-05)
(-0.000262585 0.000225642 4.66025e-05)
(-0.00031835 0.000220508 2.97366e-05)
(-0.00036488 0.000186705 1.08606e-05)
(-1.44414e-05 -0.000165259 3.99692e-05)
(-0.000107491 -1.04074e-05 4.09192e-05)
(3.83319e-06 0.000169504 4.65439e-05)
(2.17341e-05 0.000107223 5.95258e-05)
(-4.66745e-05 8.05597e-05 6.4873e-05)
(-0.000114907 8.73671e-05 6.26325e-05)
(-0.000182504 0.000106959 5.43537e-05)
(-0.000248544 0.00012082 4.14833e-05)
(-0.000326655 0.000121885 2.51083e-05)
(-0.000429163 0.000106844 5.12612e-06)
(0.000198303 -0.000185708 1.22993e-05)
(0.000134721 1.25561e-05 3.23503e-05)
(2.82478e-05 7.31263e-05 3.98025e-05)
(-1.37906e-05 4.43131e-05 4.93763e-05)
(-5.80649e-05 3.06362e-05 5.54929e-05)
(-0.000107601 3.26968e-05 5.48954e-05)
(-0.000167892 4.28897e-05 4.84846e-05)
(-0.00024346 5.33588e-05 3.68331e-05)
(-0.000334313 5.86121e-05 2.03535e-05)
(-0.000454652 5.54315e-05 4.13634e-07)
(0.000291396 -5.19428e-06 1.24707e-05)
(0.000147434 -1.70431e-05 2.82451e-05)
(3.21875e-05 -5.65931e-06 3.53054e-05)
(-2.45716e-05 -5.74714e-06 4.22193e-05)
(-5.96429e-05 -6.50387e-06 4.7317e-05)
(-0.00010314 -4.77555e-06 4.77017e-05)
(-0.000162653 2.12161e-06 4.2243e-05)
(-0.000235986 8.44699e-06 3.13345e-05)
(-0.000334 1.25927e-05 1.6005e-05)
(-0.000460449 1.54927e-05 -4.07255e-06)
(0.000299554 -6.67274e-05 1.37692e-05)
(0.000144522 -7.16752e-05 2.56464e-05)
(4.0132e-05 -5.55928e-05 3.15633e-05)
(-1.53842e-05 -4.2181e-05 3.71504e-05)
(-5.78207e-05 -3.54508e-05 4.07957e-05)
(-9.98674e-05 -3.14056e-05 4.05431e-05)
(-0.000156547 -2.83526e-05 3.59692e-05)
(-0.000236971 -2.62209e-05 2.59444e-05)
(-0.000335865 -2.57654e-05 1.07345e-05)
(-0.000460687 -2.67508e-05 -8.46149e-06)
(0.000297844 -0.000129699 1.21964e-05)
(0.000160367 -0.000115771 2.15753e-05)
(6.18122e-05 -9.56444e-05 2.81409e-05)
(-4.46705e-06 -7.80848e-05 3.2425e-05)
(-4.89885e-05 -6.80623e-05 3.48805e-05)
(-9.65166e-05 -6.18679e-05 3.45069e-05)
(-0.000158547 -5.98863e-05 2.98072e-05)
(-0.000235246 -6.02788e-05 2.01635e-05)
(-0.000337494 -6.27979e-05 6.13018e-06)
(-0.000463571 -6.68295e-05 -1.26836e-05)
(0.000317289 -0.000178256 1.05617e-05)
(0.0001743 -0.000160059 1.84115e-05)
(7.67398e-05 -0.00014657 2.3633e-05)
(1.24223e-05 -0.000132015 2.77913e-05)
(-4.11862e-05 -0.000120656 2.9448e-05)
(-9.15693e-05 -0.000113038 2.84795e-05)
(-0.000154765 -0.000108482 2.41224e-05)
(-0.000238882 -0.000106918 1.49838e-05)
(-0.00033953 -0.000106696 1.0871e-06)
(-0.000463514 -0.000107846 -1.66224e-05)
(0.000320954 -0.000225991 7.34441e-06)
(0.000183904 -0.000226693 1.34261e-05)
(8.91938e-05 -0.00022215 1.85625e-05)
(2.30074e-05 -0.000215475 2.17074e-05)
(-2.88075e-05 -0.000204126 2.29185e-05)
(-8.40725e-05 -0.000193242 2.18403e-05)
(-0.000151932 -0.000183518 1.71689e-05)
(-0.000230909 -0.000173926 8.59521e-06)
(-0.000330948 -0.000161644 -4.12803e-06)
(-0.000451082 -0.000145947 -2.09018e-05)
(0.000303835 -0.000285846 2.99346e-06)
(0.000171334 -0.000313466 7.09825e-06)
(8.99475e-05 -0.000324742 1.10324e-05)
(3.44686e-05 -0.000320104 1.37561e-05)
(-1.65215e-05 -0.000309453 1.46732e-05)
(-7.07202e-05 -0.000296304 1.28905e-05)
(-0.000135956 -0.000279572 8.91206e-06)
(-0.000215373 -0.000260878 7.36117e-07)
(-0.000303661 -0.000232797 -1.07689e-05)
(-0.000411351 -0.000192114 -2.5085e-05)
(0.000229315 -0.000357756 -3.5979e-06)
(0.000142484 -0.000418321 -2.17473e-06)
(9.00371e-05 -0.000432728 1.20894e-06)
(4.69515e-05 -0.00043278 3.91006e-06)
(-4.76186e-07 -0.000423748 4.46107e-06)
(-5.38293e-05 -0.000408978 2.79102e-06)
(-0.000118485 -0.000389421 -1.56054e-06)
(-0.000183992 -0.000360811 -8.92008e-06)
(-0.000255269 -0.000314584 -1.82661e-05)
(-0.000316369 -0.000240024 -2.94455e-05)
(-4.86043e-05 -0.000191788 0.000290358)
(0.000135341 -0.000149997 0.000233304)
(0.000239695 -1.15719e-05 0.000204495)
(0.000231491 4.19221e-05 0.000194041)
(7.6333e-06 6.35584e-05 0.000186976)
(-0.000130093 0.000102234 0.000185442)
(-0.000222589 0.000140078 0.00018933)
(-0.000297443 0.000184547 0.000196536)
(-0.000364799 0.000191495 0.000204374)
(-0.000404624 0.000152979 0.000211503)
(0.000127999 -1.58647e-06 0.000254179)
(0.000206767 0.000100066 0.000236148)
(0.000262166 0.000138268 0.000204501)
(0.000171828 3.35652e-05 0.000187277)
(2.46372e-05 2.01031e-05 0.000178829)
(-8.95491e-05 4.26281e-05 0.000176783)
(-0.000187482 7.49716e-05 0.000179359)
(-0.00027483 9.77811e-05 0.000185647)
(-0.000370736 0.000105713 0.000195277)
(-0.000482532 9.25138e-05 0.000206324)
(0.000320233 5.95471e-05 0.000214914)
(0.000301773 0.000142989 0.000206811)
(0.000194555 9.28105e-05 0.000183896)
(0.000121638 1.93068e-05 0.000172792)
(2.63886e-05 1.55435e-06 0.00016993)
(-7.10275e-05 9.52106e-06 0.000170048)
(-0.000166264 2.57561e-05 0.00017291)
(-0.000267596 4.0546e-05 0.000179048)
(-0.000377556 4.86976e-05 0.000188443)
(-0.000506413 4.82097e-05 0.00020188)
(0.00034847 0.000152273 0.000194945)
(0.000236838 8.91685e-05 0.000185991)
(0.000143664 4.93391e-05 0.000171352)
(8.37362e-05 1.08284e-05 0.000164961)
(1.70229e-05 -9.70194e-06 0.000164572)
(-6.57806e-05 -1.3807e-05 0.000166284)
(-0.000159612 -6.43271e-06 0.000169502)
(-0.000258876 1.06869e-06 0.000175231)
(-0.000375961 7.33745e-06 0.000184881)
(-0.000509772 1.28533e-05 0.000199006)
(0.000322976 4.40168e-05 0.000184685)
(0.000204792 1.8084e-05 0.000177002)
(0.000119729 7.94079e-06 0.000167363)
(6.44218e-05 -8.87862e-06 0.000163113)
(2.18469e-06 -2.42142e-05 0.00016302)
(-6.87984e-05 -3.11999e-05 0.000164751)
(-0.000154441 -3.21046e-05 0.000168056)
(-0.000259778 -3.03318e-05 0.000173855)
(-0.000376064 -2.84431e-05 0.00018338)
(-0.000505199 -2.62736e-05 0.00019784)
(0.000307339 -3.04689e-05 0.000182095)
(0.000200851 -3.47851e-05 0.000174809)
(0.000117632 -3.61291e-05 0.000168109)
(5.22559e-05 -4.11522e-05 0.000164409)
(-5.18463e-06 -5.01253e-05 0.000163913)
(-7.41189e-05 -5.57164e-05 0.00016529)
(-0.000160005 -5.96321e-05 0.000168457)
(-0.000257576 -6.22503e-05 0.000174204)
(-0.000375352 -6.37213e-05 0.000183898)
(-0.000503822 -6.4843e-05 0.000198623)
(0.00031222 -8.22692e-05 0.000185699)
(0.00019569 -8.35015e-05 0.000177928)
(0.000112679 -8.89488e-05 0.000171671)
(5.04101e-05 -9.29315e-05 0.000168404)
(-1.22883e-05 -9.77264e-05 0.000167267)
(-7.80334e-05 -0.000101896 0.00016822)
(-0.000160299 -0.000105677 0.000171111)
(-0.000262261 -0.000107058 0.000176793)
(-0.000375473 -0.000107573 0.000186607)
(-0.000500267 -0.000105602 0.000201083)
(0.00030167 -0.000132821 0.000192553)
(0.000188202 -0.000150643 0.000184445)
(0.000107774 -0.000161807 0.000178845)
(4.41951e-05 -0.000171214 0.000175418)
(-1.36747e-05 -0.000174449 0.000173995)
(-8.15925e-05 -0.000178086 0.000174314)
(-0.000163657 -0.000177716 0.000176712)
(-0.000255614 -0.000175199 0.000182415)
(-0.000365966 -0.000163888 0.000191575)
(-0.000484078 -0.000145988 0.00020526)
(0.000271406 -0.000194254 0.00020113)
(0.000162119 -0.000235053 0.000194069)
(9.39621e-05 -0.000257497 0.000189449)
(4.03222e-05 -0.000265798 0.000186277)
(-1.79777e-05 -0.00027074 0.000184628)
(-8.10129e-05 -0.000274022 0.000184142)
(-0.000156912 -0.000271878 0.000186341)
(-0.000245618 -0.000264845 0.000191058)
(-0.000338371 -0.000240565 0.000199647)
(-0.000443083 -0.000196144 0.000210122)
(0.000170173 -0.000248423 0.000208409)
(0.000120783 -0.000315685 0.00020511)
(8.14767e-05 -0.000341383 0.000202911)
(3.57463e-05 -0.000357237 0.000200848)
(-1.99554e-05 -0.00036596 0.000199043)
(-8.29843e-05 -0.000372141 0.000198268)
(-0.000155884 -0.000376275 0.000199381)
(-0.000224442 -0.000368358 0.0002032)
(-0.000292517 -0.000330845 0.000209103)
(-0.000336075 -0.000239521 0.000215058)
(-2.8453e-05 -0.000204669 0.000396579)
(0.000241485 -8.25792e-05 0.000336818)
(0.000271679 1.86175e-05 0.000271906)
(0.000169776 2.2577e-05 0.000225974)
(-2.78209e-05 1.9036e-05 0.000199843)
(-9.27057e-05 3.57144e-05 0.000192945)
(-0.000120099 4.62857e-05 0.000200084)
(-0.000148216 6.28512e-05 0.000214807)
(-0.000179425 5.19944e-05 0.000232917)
(-0.000197823 2.00153e-05 0.000249217)
(0.000173283 6.72053e-05 0.000371752)
(0.000230211 7.87849e-05 0.00033916)
(0.000229728 3.20349e-05 0.000273255)
(0.000124056 -5.5671e-05 0.000225214)
(6.80224e-06 -3.25693e-05 0.000199117)
(-5.8798e-05 -7.26881e-07 0.000190408)
(-0.000106702 1.98399e-05 0.000194233)
(-0.000144831 2.38488e-05 0.000207396)
(-0.000192862 1.66199e-05 0.000227341)
(-0.000238282 -1.70553e-06 0.000250659)
(0.00028008 8.54091e-05 0.000313252)
(0.000222783 7.80921e-05 0.000289107)
(0.000147319 2.09843e-06 0.000243086)
(0.000111767 -4.69348e-05 0.000211417)
(3.81434e-05 -3.60348e-05 0.000194587)
(-3.49604e-05 -1.67346e-05 0.000188063)
(-9.36888e-05 -3.9916e-06 0.000191029)
(-0.000151541 -1.89963e-07 0.000203235)
(-0.000207667 -5.14921e-06 0.000223702)
(-0.000257295 -1.42658e-05 0.000251267)
(0.000241044 0.000111503 0.000267077)
(0.000146542 4.21879e-05 0.000248256)
(0.000109635 1.59124e-05 0.00022069)
(9.01318e-05 -1.32098e-05 0.000201762)
(4.08624e-05 -2.65399e-05 0.000191467)
(-2.56554e-05 -2.58068e-05 0.000187595)
(-9.16021e-05 -1.96575e-05 0.000190796)
(-0.000150038 -1.79952e-05 0.000202508)
(-0.000212094 -1.85946e-05 0.000223203)
(-0.000266874 -2.15895e-05 0.000252973)
(0.000200023 2.29195e-05 0.000237131)
(0.000131862 1.07071e-05 0.000225287)
(9.53476e-05 1.19525e-05 0.000209085)
(7.1564e-05 -5.75997e-06 0.000197316)
(2.65344e-05 -2.348e-05 0.000190754)
(-2.82665e-05 -3.06971e-05 0.000188775)
(-8.73823e-05 -3.14132e-05 0.000192385)
(-0.000153483 -3.02679e-05 0.000204121)
(-0.000215508 -3.07878e-05 0.000225159)
(-0.000266951 -3.0984e-05 0.000255529)
(0.000180544 -6.97729e-06 0.000221651)
(0.000133804 -9.33847e-06 0.000213954)
(9.34106e-05 -9.85751e-06 0.000204051)
(5.53509e-05 -1.96159e-05 0.000196197)
(1.61185e-05 -3.3124e-05 0.000191779)
(-3.37059e-05 -3.99707e-05 0.000190959)
(-9.17195e-05 -4.24655e-05 0.000195379)
(-0.000150551 -4.25665e-05 0.000207419)
(-0.000213944 -4.02749e-05 0.000228297)
(-0.000265814 -3.91313e-05 0.000259022)
(0.00017839 -2.35451e-05 0.00021581)
(0.000126072 -3.07279e-05 0.000210286)
(8.43637e-05 -4.05063e-05 0.000203648)
(4.81026e-05 -4.94291e-05 0.000198209)
(6.04936e-06 -5.83983e-05 0.000195236)
(-3.74336e-05 -6.37103e-05 0.000195432)
(-8.94718e-05 -6.46631e-05 0.000200298)
(-0.000150314 -6.04786e-05 0.00021262)
(-0.000210502 -5.508e-05 0.000233749)
(-0.000260314 -4.7389e-05 0.000263225)
(0.000163846 -4.762e-05 0.000215638)
(0.000114319 -7.06981e-05 0.000212185)
(7.47635e-05 -8.46472e-05 0.000208182)
(3.76204e-05 -9.73839e-05 0.000204819)
(1.78954e-06 -0.000103782 0.000203118)
(-3.97019e-05 -0.00010709 0.000203926)
(-8.74047e-05 -0.000102754 0.000209654)
(-0.000138669 -9.32623e-05 0.000222088)
(-0.000197227 -7.54358e-05 0.000241924)
(-0.00024317 -5.67219e-05 0.000269084)
(0.000135888 -8.30046e-05 0.000218558)
(8.90225e-05 -0.000122894 0.000218687)
(5.94754e-05 -0.000143231 0.000217483)
(3.014e-05 -0.000153249 0.000216532)
(-3.32113e-06 -0.000158973 0.000216204)
(-3.60933e-05 -0.000159964 0.00021855)
(-7.48219e-05 -0.00015187 0.000224464)
(-0.000120854 -0.000136627 0.000236674)
(-0.00017048 -0.000108193 0.000254695)
(-0.000215938 -7.18473e-05 0.000275706)
(5.53464e-05 -0.000107526 0.000220935)
(5.22775e-05 -0.000152987 0.000226603)
(4.63786e-05 -0.00017677 0.000229944)
(2.3459e-05 -0.000196222 0.000232143)
(-4.3702e-06 -0.000203967 0.000234585)
(-3.24152e-05 -0.000204447 0.000238317)
(-6.37278e-05 -0.000199138 0.00024506)
(-9.29779e-05 -0.000180968 0.000255952)
(-0.000128556 -0.000143404 0.000269302)
(-0.00015147 -7.55109e-05 0.000281381)
(0.000142688 -7.98686e-05 0.000352929)
(0.000248747 3.92473e-05 0.000287673)
(0.000122001 6.11363e-05 0.000195462)
(-2.7937e-05 1.5377e-05 0.000126537)
(-0.00014323 3.26894e-07 8.8125e-05)
(-0.000111008 5.39024e-06 7.33754e-05)
(-7.67565e-05 4.84361e-06 7.20004e-05)
(-7.02798e-05 1.30633e-05 7.63344e-05)
(-8.23438e-05 3.6776e-06 8.34249e-05)
(-0.000105863 -8.62865e-06 8.79427e-05)
(0.000282245 5.29802e-05 0.000330801)
(0.000147099 -4.01406e-05 0.000284022)
(5.38175e-05 -0.000109987 0.000195803)
(-3.3226e-05 -0.000132045 0.000129458)
(-8.2379e-05 -5.4046e-05 9.17189e-05)
(-7.95603e-05 -8.90272e-06 7.48896e-05)
(-7.35432e-05 4.19411e-06 7.11508e-05)
(-7.4171e-05 -2.19078e-07 7.56597e-05)
(-8.99113e-05 -1.02181e-05 8.4557e-05)
(-9.90313e-05 -1.66363e-05 9.53517e-05)
(0.000274406 -3.66459e-05 0.000259328)
(9.69111e-05 -0.000100099 0.00022455)
(2.62794e-05 -0.000133499 0.000166035)
(2.90074e-05 -0.00010962 0.00012094)
(-1.00265e-05 -5.05171e-05 9.21785e-05)
(-4.69326e-05 -1.42119e-05 7.62846e-05)
(-6.53463e-05 -1.99886e-06 7.13096e-05)
(-8.31156e-05 -3.38993e-06 7.52496e-05)
(-9.77113e-05 -9.66949e-06 8.61219e-05)
(-9.72961e-05 -1.13548e-05 0.000100976)
(0.000188181 -5.05991e-05 0.000200468)
(6.33556e-05 -8.94096e-05 0.000176958)
(5.08687e-05 -5.84843e-05 0.00014237)
(5.47415e-05 -4.49641e-05 0.00011345)
(1.83206e-05 -3.17271e-05 9.21612e-05)
(-2.83109e-05 -1.73899e-05 7.8497e-05)
(-6.2154e-05 -8.58456e-06 7.35271e-05)
(-8.26309e-05 -8.15813e-06 7.73851e-05)
(-9.78088e-05 -8.83778e-06 8.86346e-05)
(-9.67404e-05 -8.08281e-06 0.000106148)
(0.000159263 -8.50655e-05 0.000162776)
(9.92845e-05 -5.73637e-05 0.000148988)
(7.57515e-05 -1.96562e-05 0.000127942)
(5.87854e-05 -1.66479e-05 0.000108169)