/*--------------------------------*- C++ -*----------------------------------*\
| =========                 |                                                 |
| \\      /  F ield         | OpenFOAM: The Open Source CFD Toolbox           |
|  \\    /   O peration     | Version:  2406                                  |
|   \\  /    A nd           | Website:  www.openfoam.com                      |
|    \\/     M anipulation  |                                                 |
\*---------------------------------------------------------------------------*/
FoamFile
{
    version     2.0;
    format      ascii;
    arch        "LSB;label=32;scalar=64";
    class       volScalarField;
    location    "500";
    object      nut;
}
// * * * * * * * * * * * * * * * * * * * * * * * * * * * * * * * * * * * * * //

dimensions      [0 2 -1 0 0 0 0];

internalField   nonuniform List<scalar> 
25000
(
5.88722e-06
5.92833e-06
5.95431e-06
5.96718e-06
5.97281e-06
5.97282e-06
5.96719e-06
5.9545e-06
5.93058e-06
5.88721e-06
5.93039e-06
5.96734e-06
5.98824e-06
5.99984e-06
6.00547e-06
6.00547e-06
5.99998e-06
5.99343e-06
5.96747e-06
5.92851e-06
5.95443e-06
5.99334e-06
6.01083e-06
6.01851e-06
6.02378e-06
6.02381e-06
6.01921e-06
6.0109e-06
5.98831e-06
5.95436e-06
5.96716e-06
5.99994e-06
6.01917e-06
6.02996e-06
6.03447e-06
6.03491e-06
6.03e-06
6.01855e-06
5.99987e-06
5.9672e-06
5.97281e-06
6.00545e-06
6.02378e-06
6.03489e-06
6.04154e-06
6.04156e-06
6.03448e-06
6.0238e-06
6.00548e-06
5.97281e-06
5.97282e-06
6.00547e-06
6.02378e-06
6.03447e-06
6.04156e-06
6.04157e-06
6.03448e-06
6.0238e-06
6.00548e-06
5.97281e-06
5.9672e-06
5.99987e-06
6.01854e-06
6.02999e-06
6.03492e-06
6.03492e-06
6.03e-06
6.01855e-06
5.99987e-06
5.9672e-06
5.95437e-06
5.98832e-06
6.0109e-06
6.01921e-06
6.02381e-06
6.02381e-06
6.01921e-06
6.0109e-06
5.98831e-06
5.95436e-06
5.92852e-06
5.96747e-06
5.99343e-06
5.99999e-06
6.00548e-06
6.00548e-06
5.99999e-06
5.99343e-06
5.96747e-06
5.92851e-06
5.88722e-06
5.93058e-06
5.9545e-06
5.96719e-06
5.97282e-06
5.97282e-06
5.96719e-06
5.9545e-06
5.93058e-06
5.88721e-06
5.52554e-06
5.65195e-06
5.7285e-06
5.7675e-06
5.78452e-06
5.78452e-06
5.76751e-06
5.72937e-06
5.65736e-06
5.52554e-06
5.65702e-06
5.76855e-06
5.83086e-06
5.86527e-06
5.88188e-06
5.8819e-06
5.86611e-06
5.84425e-06
5.76893e-06
5.65225e-06
5.72923e-06
5.84403e-06
5.89731e-06
5.92117e-06
5.93657e-06
5.93671e-06
5.9231e-06
5.89748e-06
5.83105e-06
5.72859e-06
5.76746e-06
5.86599e-06
5.92298e-06
5.9549e-06
5.96861e-06
5.96977e-06
5.95499e-06
5.92127e-06
5.86534e-06
5.76751e-06
5.78451e-06
5.88185e-06
5.93664e-06
5.96971e-06
5.98922e-06
5.98927e-06
5.96862e-06
5.9366e-06
5.8819e-06
5.78452e-06
5.78452e-06
5.88188e-06
5.93657e-06
5.96862e-06
5.98925e-06
5.98928e-06
5.96862e-06
5.9366e-06
5.8819e-06
5.78452e-06
5.76753e-06
5.86534e-06
5.92126e-06
5.95498e-06
5.96981e-06
5.96982e-06
5.95499e-06
5.92127e-06
5.86534e-06
5.76751e-06
5.72861e-06
5.83105e-06
5.89748e-06
5.9231e-06
5.93672e-06
5.93672e-06
5.9231e-06
5.89748e-06
5.83105e-06
5.7286e-06
5.65226e-06
5.76893e-06
5.84425e-06
5.86611e-06
5.88191e-06
5.88191e-06
5.86611e-06
5.84425e-06
5.76893e-06
5.65226e-06
5.52553e-06
5.65735e-06
5.72937e-06
5.76751e-06
5.78452e-06
5.78452e-06
5.76751e-06
5.72937e-06
5.65736e-06
5.52554e-06
5.17404e-06
5.38284e-06
5.50725e-06
5.57182e-06
5.60004e-06
5.60004e-06
5.57187e-06
5.509e-06
5.39035e-06
5.17399e-06
5.39001e-06
5.57411e-06
5.67653e-06
5.73299e-06
5.76013e-06
5.7602e-06
5.73475e-06
5.69615e-06
5.57463e-06
5.38312e-06
5.50882e-06
5.69583e-06
5.78482e-06
5.82541e-06
5.85042e-06
5.85071e-06
5.82836e-06
5.78506e-06
5.67679e-06
5.50735e-06
5.57181e-06
5.73458e-06
5.82819e-06
5.88057e-06
5.90351e-06
5.90523e-06
5.8807e-06
5.82554e-06
5.73308e-06
5.57183e-06
5.60003e-06
5.76013e-06
5.85062e-06
5.90514e-06
5.93692e-06
5.93698e-06
5.90348e-06
5.85046e-06
5.76016e-06
5.60003e-06
5.60005e-06
5.76013e-06
5.85042e-06
5.90351e-06
5.93696e-06
5.937e-06
5.90348e-06
5.85046e-06
5.76016e-06
5.60003e-06
5.57185e-06
5.73308e-06
5.82552e-06
5.88068e-06
5.90532e-06
5.90534e-06
5.8807e-06
5.82554e-06
5.73308e-06
5.57183e-06
5.50737e-06
5.67679e-06
5.78506e-06
5.82836e-06
5.85074e-06
5.85074e-06
5.82837e-06
5.78506e-06
5.67679e-06
5.50735e-06
5.38313e-06
5.57463e-06
5.69615e-06
5.73475e-06
5.76021e-06
5.76021e-06
5.73475e-06
5.69615e-06
5.57463e-06
5.38312e-06
5.17397e-06
5.39034e-06
5.509e-06
5.57187e-06
5.60004e-06
5.60004e-06
5.57187e-06
5.509e-06
5.39035e-06
5.17399e-06
4.83948e-06
5.12297e-06
5.29202e-06
5.3811e-06
5.42013e-06
5.42013e-06
5.38126e-06
5.29473e-06
5.13195e-06
4.83938e-06
5.13164e-06
5.38468e-06
5.52559e-06
5.60322e-06
5.64044e-06
5.64059e-06
5.60598e-06
5.54994e-06
5.38528e-06
5.12321e-06
5.29453e-06
5.54957e-06
5.67362e-06
5.73118e-06
5.76538e-06
5.76585e-06
5.735e-06
5.6739e-06
5.52589e-06
5.29213e-06
5.38119e-06
5.60579e-06
5.73479e-06
5.80699e-06
5.83908e-06
5.84123e-06
5.80714e-06
5.73133e-06
5.60333e-06
5.38112e-06
5.42012e-06
5.6405e-06
5.76573e-06
5.84113e-06
5.88459e-06
5.88466e-06
5.839e-06
5.76541e-06
5.64046e-06
5.42012e-06
5.42014e-06
5.64043e-06
5.76537e-06
5.83909e-06
5.88464e-06
5.88468e-06
5.839e-06
5.76541e-06
5.64046e-06
5.42012e-06
5.38114e-06
5.60332e-06
5.73131e-06
5.80712e-06
5.8414e-06
5.84141e-06
5.80715e-06
5.73134e-06
5.60333e-06
5.38112e-06
5.29215e-06
5.52589e-06
5.6739e-06
5.735e-06
5.76589e-06
5.76589e-06
5.73501e-06
5.67391e-06
5.52589e-06
5.29214e-06
5.12322e-06
5.38529e-06
5.54995e-06
5.60599e-06
5.6406e-06
5.6406e-06
5.60599e-06
5.54994e-06
5.38528e-06
5.12321e-06
4.83938e-06
5.13196e-06
5.29474e-06
5.38126e-06
5.42013e-06
5.42013e-06
5.38126e-06
5.29473e-06
5.13195e-06
4.83938e-06
4.5255e-06
4.87355e-06
5.08368e-06
5.19591e-06
5.24522e-06
5.24523e-06
5.19623e-06
5.08739e-06
4.88363e-06
4.52546e-06
4.88334e-06
5.20049e-06
5.37804e-06
5.47598e-06
5.52282e-06
5.52309e-06
5.47975e-06
5.40605e-06
5.20114e-06
4.8738e-06
5.08716e-06
5.40563e-06
5.56374e-06
5.63834e-06
5.68136e-06
5.68202e-06
5.64291e-06
5.56407e-06
5.37838e-06
5.08384e-06
5.19616e-06
5.47952e-06
5.64267e-06
5.73408e-06
5.77519e-06
5.77769e-06
5.73424e-06
5.63852e-06
5.47611e-06
5.19595e-06
5.24522e-06
5.52299e-06
5.68188e-06
5.77757e-06
5.83218e-06
5.83225e-06
5.77505e-06
5.68138e-06
5.52284e-06
5.24523e-06
5.24524e-06
5.52282e-06
5.68136e-06
5.7752e-06
5.83224e-06
5.83228e-06
5.77505e-06
5.68138e-06
5.52284e-06
5.24523e-06
5.19597e-06
5.4761e-06
5.63849e-06
5.73423e-06
5.77792e-06
5.77794e-06
5.73426e-06
5.63852e-06
5.47611e-06
5.19595e-06
5.08385e-06
5.37839e-06
5.56406e-06
5.6429e-06
5.68208e-06
5.68209e-06
5.64291e-06
5.56407e-06
5.37839e-06
5.08384e-06
4.8738e-06
5.20115e-06
5.40606e-06
5.47975e-06
5.52311e-06
5.52311e-06
5.47975e-06
5.40606e-06
5.20115e-06
4.8738e-06
4.52545e-06
4.88364e-06
5.08741e-06
5.19624e-06
5.24525e-06
5.24524e-06
5.19624e-06
5.0874e-06
4.88363e-06
4.52546e-06
4.23172e-06
4.63449e-06
4.88218e-06
5.01614e-06
5.07523e-06
5.07527e-06
5.01667e-06
4.88684e-06
4.64534e-06
4.23172e-06
4.64506e-06
5.02126e-06
5.23366e-06
5.35111e-06
5.40718e-06
5.40759e-06
5.35585e-06
5.26449e-06
5.02195e-06
4.63473e-06
4.88659e-06
5.26402e-06
5.45513e-06
5.54671e-06
5.59826e-06
5.5991e-06
5.55192e-06
5.45549e-06
5.23404e-06
4.88236e-06
5.01658e-06
5.3556e-06
5.55166e-06
5.66174e-06
5.71172e-06
5.71449e-06
5.66191e-06
5.54691e-06
5.35126e-06
5.0162e-06
5.07525e-06
5.40748e-06
5.59896e-06
5.71436e-06
5.77965e-06
5.77972e-06
5.71152e-06
5.59825e-06
5.40719e-06
5.07524e-06
5.07525e-06
5.40718e-06
5.59826e-06
5.71173e-06
5.77972e-06
5.77976e-06
5.71152e-06
5.59825e-06
5.40719e-06
5.07524e-06
5.01621e-06
5.35125e-06
5.54688e-06
5.66192e-06
5.7148e-06
5.71482e-06
5.66193e-06
5.54691e-06
5.35126e-06
5.0162e-06
4.88237e-06
5.23405e-06
5.45548e-06
5.55192e-06
5.59921e-06
5.59922e-06
5.55193e-06
5.45549e-06
5.23404e-06
4.88236e-06
4.63473e-06
5.02195e-06
5.2645e-06
5.35585e-06
5.40763e-06
5.40763e-06
5.35585e-06
5.26449e-06
5.02195e-06
4.63473e-06
4.23172e-06
4.64535e-06
4.88685e-06
5.01669e-06
5.07529e-06
5.07528e-06
5.01668e-06
4.88684e-06
4.64534e-06
4.23172e-06
3.95564e-06
4.40473e-06
4.68657e-06
4.84096e-06
4.90939e-06
4.90945e-06
4.84173e-06
4.6921e-06
4.4161e-06
3.95568e-06
4.41581e-06
4.84629e-06
5.09193e-06
5.22824e-06
5.29319e-06
5.29376e-06
5.2339e-06
5.12488e-06
4.847e-06
4.40496e-06
4.69182e-06
5.12437e-06
5.34753e-06
5.45606e-06
5.5159e-06
5.51694e-06
5.46183e-06
5.34793e-06
5.09235e-06
4.68675e-06
4.84161e-06
5.23362e-06
5.46154e-06
5.58985e-06
5.64856e-06
5.65154e-06
5.59003e-06
5.45628e-06
5.22841e-06
4.84101e-06
4.90942e-06
5.29364e-06
5.51678e-06
5.6514e-06
5.72696e-06
5.72703e-06
5.64829e-06
5.51586e-06
5.29319e-06
4.90938e-06
4.90939e-06
5.29319e-06
5.5159e-06
5.64858e-06
5.72705e-06
5.72708e-06
5.64829e-06
5.51586e-06
5.29319e-06
4.90938e-06
4.84103e-06
5.2284e-06
5.45625e-06
5.59005e-06
5.65194e-06
5.65195e-06
5.59006e-06
5.45628e-06
5.2284e-06
4.84101e-06
4.68677e-06
5.09235e-06
5.34792e-06
5.46183e-06
5.51708e-06
5.51709e-06
5.46184e-06
5.34793e-06
5.09235e-06
4.68675e-06
4.40496e-06
4.847e-06
5.12488e-06
5.2339e-06
5.29382e-06
5.29382e-06
5.2339e-06
5.12487e-06
4.84699e-06
4.40495e-06
3.95568e-06
4.4161e-06
4.69211e-06
4.84173e-06
4.90946e-06
4.90946e-06
4.84172e-06
4.69209e-06
4.41608e-06
3.95567e-06
3.69645e-06
4.18387e-06
4.49629e-06
4.66975e-06
4.74707e-06
4.74718e-06
4.67078e-06
4.50261e-06
4.19556e-06
3.69655e-06
4.19526e-06
4.67518e-06
4.95252e-06
5.10707e-06
5.18062e-06
5.18135e-06
5.1136e-06
4.98698e-06
4.6759e-06
4.18411e-06
4.50231e-06
4.98644e-06
5.24081e-06
5.36623e-06
5.43417e-06
5.43539e-06
5.37249e-06
5.24124e-06
4.95296e-06
4.4965e-06
4.67064e-06
5.11329e-06
5.37218e-06
5.51833e-06
5.58565e-06
5.5888e-06
5.51852e-06
5.36646e-06
5.10726e-06
4.66982e-06
4.74712e-06
5.18122e-06
5.43522e-06
5.58865e-06
5.67414e-06
5.6742e-06
5.58532e-06
5.4341e-06
5.1806e-06
4.74706e-06
4.74707e-06
5.18061e-06
5.43417e-06
5.58568e-06
5.67424e-06
5.67427e-06
5.58532e-06
5.4341e-06
5.1806e-06
4.74706e-06
4.66982e-06
5.10724e-06
5.36643e-06
5.51856e-06
5.58927e-06
5.58929e-06
5.51857e-06
5.36646e-06
5.10725e-06
4.66981e-06
4.4965e-06
4.95296e-06
5.24122e-06
5.3725e-06
5.43559e-06
5.43559e-06
5.37251e-06
5.24123e-06
4.95296e-06
4.4965e-06
4.18408e-06
4.67589e-06
4.98697e-06
5.11359e-06
5.18144e-06
5.18144e-06
5.11359e-06
4.98697e-06
4.67589e-06
4.1841e-06
3.69652e-06
4.19554e-06
4.5026e-06
4.67077e-06
4.74718e-06
4.74718e-06
4.67077e-06
4.50259e-06
4.19554e-06
3.69654e-06
3.45522e-06
3.97239e-06
4.31156e-06
4.50256e-06
4.58826e-06
4.5884e-06
4.50386e-06
4.31853e-06
3.9842e-06
3.45534e-06
3.98391e-06
4.50803e-06
4.81537e-06
4.98754e-06
5.0694e-06
5.0703e-06
4.99486e-06
4.85086e-06
4.50874e-06
3.97262e-06
4.31821e-06
4.85031e-06
5.13499e-06
5.27717e-06
5.35305e-06
5.35445e-06
5.28387e-06
5.13543e-06
4.81583e-06
4.31176e-06
4.50368e-06
4.99453e-06
5.28354e-06
5.44719e-06
5.52298e-06
5.52626e-06
5.44739e-06
5.27741e-06
4.98774e-06
4.50263e-06
4.58832e-06
5.07015e-06
5.35427e-06
5.52611e-06
5.62121e-06
5.62127e-06
5.52258e-06
5.35294e-06
5.06935e-06
4.58823e-06
4.58822e-06
5.06939e-06
5.35305e-06
5.52302e-06
5.62133e-06
5.62135e-06
5.5226e-06
5.35294e-06
5.06935e-06
4.58823e-06
4.50261e-06
4.98772e-06
5.27739e-06
5.44745e-06
5.52682e-06
5.52684e-06
5.44745e-06
5.27741e-06
4.98774e-06
4.50262e-06
4.31174e-06
4.81581e-06
5.13541e-06
5.28387e-06
5.3547e-06
5.3547e-06
5.28389e-06
5.13543e-06
4.81582e-06
4.31176e-06
3.97256e-06
4.50871e-06
4.85084e-06
4.99485e-06
5.07042e-06
5.07042e-06
4.99486e-06
4.85085e-06
4.50873e-06
3.97261e-06
3.45528e-06
3.98417e-06
4.3185e-06
4.50383e-06
4.58841e-06
4.58841e-06
4.50383e-06
4.31851e-06
3.98418e-06
3.45533e-06
3.23438e-06
3.77122e-06
4.1329e-06
4.33975e-06
4.4332e-06
4.43339e-06
4.3413e-06
4.14041e-06
3.78302e-06
3.23449e-06
3.78277e-06
4.34515e-06
4.6806e-06
4.86971e-06
4.95958e-06
4.96065e-06
4.87773e-06
4.71674e-06
4.34584e-06
3.77144e-06
4.14011e-06
4.71619e-06
5.03015e-06
5.18891e-06
5.27256e-06
5.27412e-06
5.19598e-06
5.03061e-06
4.68107e-06
4.1331e-06
4.34112e-06
4.87739e-06
5.19564e-06
5.37646e-06
5.46057e-06
5.46394e-06
5.37665e-06
5.18915e-06
4.86991e-06
4.33981e-06
4.4333e-06
4.96049e-06
5.27394e-06
5.4638e-06
5.56822e-06
5.56827e-06
5.46011e-06
5.2724e-06
4.9595e-06
4.43316e-06
4.43316e-06
4.95956e-06
5.27257e-06
5.46061e-06
5.56836e-06
5.56836e-06
5.46012e-06
5.2724e-06
4.9595e-06
4.43316e-06
4.3398e-06
4.86989e-06
5.18914e-06
5.37674e-06
5.46458e-06
5.4646e-06
5.37672e-06
5.18915e-06
4.8699e-06
4.33981e-06
4.13308e-06
4.68104e-06
5.03058e-06
5.19599e-06
5.27443e-06
5.27444e-06
5.19601e-06
5.0306e-06
4.68106e-06
4.1331e-06
3.77139e-06
4.3458e-06
4.71672e-06
4.87772e-06
4.96079e-06
4.9608e-06
4.87773e-06
4.71673e-06
4.34582e-06
3.77143e-06
3.23444e-06
3.78299e-06
4.14038e-06
4.34126e-06
4.4334e-06
4.4334e-06
4.34127e-06
4.14039e-06
3.783e-06
3.23448e-06
3.03698e-06
3.5815e-06
3.96099e-06
4.18177e-06
4.28228e-06
4.28252e-06
4.18357e-06
3.96893e-06
3.59319e-06
3.03704e-06
3.59298e-06
4.18696e-06
4.54839e-06
4.75365e-06
4.85122e-06
4.85246e-06
4.76229e-06
4.58487e-06
4.1876e-06
3.58167e-06
3.96866e-06
4.58433e-06
4.92641e-06
5.10146e-06
5.19273e-06
5.19444e-06
5.10886e-06
4.92686e-06
4.54884e-06
3.96117e-06
4.1834e-06
4.76196e-06
5.10852e-06
5.30614e-06
5.39842e-06
5.40188e-06
5.30632e-06
5.1017e-06
4.75385e-06
4.18183e-06
4.28244e-06
4.85231e-06
5.19427e-06
5.40173e-06
5.5152e-06
5.51524e-06
5.3979e-06
5.19252e-06
4.8511e-06
4.28222e-06
4.28225e-06
4.85122e-06
5.19274e-06
5.39848e-06
5.51536e-06
5.51535e-06
5.39792e-06
5.19252e-06
4.8511e-06
4.28222e-06
4.18184e-06
4.75384e-06
5.1017e-06
5.30644e-06
5.40259e-06
5.4026e-06
5.30641e-06
5.10171e-06
4.75384e-06
4.18182e-06
3.96118e-06
4.54883e-06
4.92684e-06
5.10889e-06
5.19481e-06
5.19482e-06
5.1089e-06
4.92686e-06
4.54883e-06
3.96117e-06
3.58165e-06
4.18758e-06
4.58485e-06
4.76229e-06
4.85264e-06
4.85265e-06
4.76229e-06
4.58485e-06
4.18758e-06
3.58166e-06
3.03702e-06
3.59316e-06
3.9689e-06
4.18353e-06
4.28254e-06
4.28254e-06
4.18354e-06
3.96891e-06
3.59316e-06
3.03703e-06
2.86868e-06
3.40484e-06
3.79659e-06
4.02915e-06
4.13592e-06
4.13623e-06
4.03119e-06
3.80488e-06
3.41638e-06
2.86868e-06
3.41619e-06
4.03394e-06
4.41893e-06
4.63949e-06
4.74443e-06
4.74582e-06
4.64866e-06
4.45552e-06
4.03455e-06
3.405e-06
3.80462e-06
4.45499e-06
4.82386e-06
5.01488e-06
5.11358e-06
5.11544e-06
5.02255e-06
4.82431e-06
4.41937e-06
3.79677e-06
4.03103e-06
4.64833e-06
5.02221e-06
5.23628e-06
5.33657e-06
5.34007e-06
5.23645e-06
5.01511e-06
4.63969e-06
4.02922e-06
4.13615e-06
4.74568e-06
5.11527e-06
5.33994e-06
5.46219e-06
5.4622e-06
5.33598e-06
5.11332e-06
4.74427e-06
4.13587e-06
4.13591e-06
4.74443e-06
5.1136e-06
5.33663e-06
5.46236e-06
5.46233e-06
5.336e-06
5.11332e-06
4.74427e-06
4.13586e-06
4.02923e-06
4.63969e-06
5.01512e-06
5.2366e-06
5.34086e-06
5.34087e-06
5.23655e-06
5.01512e-06
4.63968e-06
4.02921e-06
3.79678e-06
4.41936e-06
4.8243e-06
5.02259e-06
5.11587e-06
5.11588e-06
5.0226e-06
4.82431e-06
4.41936e-06
3.79676e-06
3.40498e-06
4.03452e-06
4.4555e-06
4.64866e-06
4.74605e-06
4.74606e-06
4.64867e-06
4.4555e-06
4.03453e-06
3.40499e-06
2.86867e-06
3.41636e-06
3.80485e-06
4.03116e-06
4.13626e-06
4.13626e-06
4.03117e-06
3.80486e-06
3.41636e-06
2.86867e-06
2.73719e-06
3.24342e-06
3.6406e-06
3.88245e-06
3.99459e-06
3.99495e-06
3.8847e-06
3.64916e-06
3.25475e-06
2.73711e-06
3.25458e-06
3.88664e-06
4.29242e-06
4.52734e-06
4.63929e-06
4.64083e-06
4.53695e-06
4.32894e-06
3.88722e-06
3.24354e-06
3.64891e-06
4.32843e-06
4.72261e-06
4.92918e-06
5.03515e-06
5.03714e-06
4.93709e-06
4.72306e-06
4.29286e-06
3.64077e-06
3.88454e-06
4.53663e-06
4.93675e-06
5.16687e-06
5.275e-06
5.27855e-06
5.16703e-06
4.9294e-06
4.52752e-06
3.88251e-06
3.99487e-06
4.64068e-06
5.03697e-06
5.27842e-06
5.4092e-06
5.4092e-06
5.27436e-06
5.03483e-06
4.63909e-06
3.99452e-06
3.99458e-06
4.63929e-06
5.03518e-06
5.27507e-06
5.40938e-06
5.40934e-06
5.27439e-06
5.03483e-06
4.63909e-06
3.99452e-06
3.88252e-06
4.52754e-06
4.92943e-06
5.16722e-06
5.27941e-06
5.27941e-06
5.16715e-06
4.92941e-06
4.52752e-06
3.8825e-06
3.64078e-06
4.29285e-06
4.72305e-06
4.93715e-06
5.03764e-06
5.03764e-06
4.93716e-06
4.72306e-06
4.29285e-06
3.64077e-06
3.24353e-06
3.8872e-06
4.32893e-06
4.53697e-06
4.64111e-06
4.64111e-06
4.53698e-06
4.32893e-06
3.8872e-06
3.24353e-06
2.73711e-06
3.25474e-06
3.64915e-06
3.88469e-06
3.99501e-06
3.99501e-06
3.88469e-06
3.64915e-06
3.25474e-06
2.73711e-06
2.65838e-06
3.101e-06
3.49429e-06
3.74231e-06
3.85877e-06
3.85918e-06
3.74477e-06
3.50305e-06
3.11211e-06
2.65823e-06
3.11196e-06
3.74583e-06
4.1691e-06
4.41729e-06
4.53587e-06
4.53755e-06
4.42728e-06
4.20541e-06
3.74638e-06
3.10108e-06
3.50282e-06
4.20491e-06
4.62273e-06
4.8444e-06
4.95746e-06
4.95956e-06
4.8525e-06
4.62318e-06
4.16953e-06
3.49445e-06
3.74462e-06
4.42697e-06
4.85217e-06
5.09795e-06
5.21375e-06
5.21733e-06
5.09809e-06
4.84461e-06
4.41747e-06
3.74237e-06
3.85913e-06
4.53742e-06
4.9594e-06
5.2172e-06
5.35625e-06
5.35624e-06
5.21305e-06
4.95707e-06
4.53563e-06
3.85869e-06
3.85878e-06
4.53589e-06
4.95749e-06
5.21383e-06
5.35646e-06
5.3564e-06
5.21308e-06
4.95708e-06
4.53563e-06
3.85869e-06
3.74241e-06
4.4175e-06
4.84466e-06
5.09831e-06
5.21825e-06
5.21825e-06
5.09823e-06
4.84462e-06
4.41747e-06
3.74237e-06
3.49447e-06
4.16953e-06
4.62318e-06
4.85258e-06
4.96012e-06
4.96013e-06
4.85259e-06
4.62318e-06
4.16952e-06
3.49445e-06
3.10109e-06
3.74637e-06
4.20541e-06
4.42731e-06
4.53789e-06
4.53789e-06
4.42732e-06
4.20541e-06
3.74637e-06
3.10107e-06
2.65824e-06
3.11211e-06
3.50305e-06
3.74477e-06
3.85927e-06
3.85927e-06
3.74477e-06
3.50304e-06
3.1121e-06
2.65823e-06
2.65455e-06
2.98314e-06
3.35949e-06
3.60968e-06
3.72915e-06
3.72961e-06
3.61232e-06
3.36838e-06
2.99403e-06
2.65431e-06
2.9939e-06
3.61255e-06
4.04925e-06
4.30947e-06
4.43427e-06
4.43608e-06
4.31977e-06
4.08524e-06
3.61306e-06
2.98317e-06
3.36816e-06
4.08475e-06
4.52433e-06
4.76056e-06
4.88051e-06
4.88272e-06
4.76882e-06
4.52477e-06
4.04966e-06
3.35961e-06
3.61218e-06
4.31946e-06
4.7685e-06
5.02952e-06
5.15281e-06
5.15641e-06
5.02965e-06
4.76075e-06
4.30964e-06
3.60973e-06
3.72956e-06
4.43595e-06
4.88255e-06
5.15629e-06
5.30338e-06
5.30335e-06
5.15206e-06
4.88006e-06
4.43397e-06
3.72904e-06
3.72915e-06
4.43429e-06
4.88054e-06
5.1529e-06
5.3036e-06
5.30353e-06
5.15209e-06
4.88006e-06
4.43397e-06
3.72904e-06
3.60978e-06
4.30968e-06
4.76083e-06
5.0299e-06
5.15739e-06
5.15739e-06
5.0298e-06
4.76077e-06
4.30963e-06
3.60973e-06
3.35965e-06
4.04968e-06
4.52478e-06
4.76893e-06
4.88335e-06
4.88335e-06
4.76893e-06
4.52478e-06
4.04966e-06
3.35962e-06
2.98319e-06
3.61307e-06
4.08524e-06
4.31982e-06
4.43646e-06
4.43646e-06
4.31982e-06
4.08524e-06
3.61306e-06
2.98315e-06
2.65433e-06
2.99405e-06
3.36839e-06
3.61232e-06
3.72971e-06
3.72971e-06
3.61232e-06
3.36837e-06
2.99404e-06
2.65431e-06
2.77259e-06
2.89952e-06
3.23934e-06
3.48592e-06
3.60664e-06
3.60715e-06
3.48872e-06
3.24833e-06
2.91027e-06
2.77235e-06
2.91012e-06
3.48847e-06
3.93325e-06
4.20402e-06
4.33456e-06
4.33648e-06
4.21457e-06
3.96883e-06
3.48895e-06
2.89951e-06
3.24813e-06
3.96835e-06
4.42748e-06
4.67768e-06
4.80432e-06
4.80663e-06
4.68608e-06
4.42792e-06
3.93365e-06
3.23943e-06
3.48859e-06
4.21426e-06
4.68576e-06
4.96158e-06
5.09219e-06
5.0958e-06
4.9617e-06
4.67786e-06
4.20417e-06
3.48595e-06
3.60711e-06
4.33636e-06
4.80647e-06
5.09569e-06
5.25059e-06
5.25055e-06
5.09139e-06
4.80381e-06
4.33421e-06
3.60651e-06
3.60666e-06
4.33459e-06
4.80436e-06
5.09229e-06
5.25083e-06
5.25074e-06
5.09143e-06
4.80382e-06
4.33421e-06
3.60651e-06
3.48602e-06
4.20424e-06
4.67796e-06
4.96199e-06
5.09685e-06
5.09684e-06
4.96187e-06
4.67788e-06
4.20417e-06
3.48596e-06
3.23949e-06
3.93368e-06
4.42795e-06
4.68621e-06
4.80732e-06
4.80732e-06
4.6862e-06
4.42794e-06
3.93365e-06
3.23945e-06
2.89955e-06
3.48897e-06
3.96885e-06
4.21463e-06
4.33692e-06
4.33692e-06
4.21463e-06
3.96883e-06
3.48895e-06
2.8995e-06
2.77235e-06
2.91029e-06
3.24835e-06
3.48873e-06
3.60728e-06
3.60727e-06
3.48872e-06
3.24832e-06
2.91028e-06
2.77234e-06
3.07866e-06
2.86573e-06
3.13865e-06
3.3733e-06
3.49276e-06
3.49332e-06
3.37625e-06
3.14774e-06
2.87646e-06
3.07832e-06
2.87625e-06
3.37609e-06
3.82167e-06
4.1011e-06
4.23685e-06
4.23887e-06
4.11185e-06
3.85679e-06
3.37657e-06
2.86568e-06
3.14753e-06
3.85631e-06
4.3323e-06
4.59579e-06
4.7289e-06
4.7313e-06
4.60431e-06
4.33275e-06
3.82207e-06
3.13873e-06
3.37613e-06
4.11155e-06
4.60398e-06
4.89415e-06
5.0319e-06
5.03552e-06
4.89426e-06
4.59597e-06
4.10124e-06
3.37333e-06
3.49329e-06
4.23875e-06
4.73113e-06
5.03541e-06
5.1979e-06
5.19785e-06
5.03106e-06
4.72834e-06
4.23645e-06
3.49261e-06
3.49278e-06
4.23688e-06
4.72895e-06
5.03201e-06
5.19816e-06
5.19806e-06
5.03111e-06
4.72835e-06
4.23645e-06
3.49261e-06
3.3734e-06
4.10133e-06
4.59609e-06
4.89459e-06
5.03663e-06
5.03661e-06
4.89445e-06
4.596e-06
4.10125e-06
3.37334e-06
3.1388e-06
3.82211e-06
4.33279e-06
4.60446e-06
4.73206e-06
4.73206e-06
4.60445e-06
4.33278e-06
3.82208e-06
3.13876e-06
2.86574e-06
3.3766e-06
3.85682e-06
4.11194e-06
4.23937e-06
4.23937e-06
4.11193e-06
3.85681e-06
3.37657e-06
2.86568e-06
3.07829e-06
2.87648e-06
3.14778e-06
3.37628e-06
3.49347e-06
3.49347e-06
3.37626e-06
3.14774e-06
2.87647e-06
3.07826e-06
3.70755e-06
2.90456e-06
3.06487e-06
3.27523e-06
3.3898e-06
3.39041e-06
3.27833e-06
3.07408e-06
2.91549e-06
3.7073e-06
2.91514e-06
3.27966e-06
3.71539e-06
4.001e-06
4.14127e-06
4.14339e-06
4.01192e-06
3.75004e-06
3.28016e-06
2.90451e-06
3.07384e-06
3.74953e-06
4.23894e-06
4.51493e-06
4.65428e-06
4.65675e-06
4.52355e-06
4.23942e-06
3.71582e-06
3.06495e-06
3.2782e-06
4.0116e-06
4.5232e-06
4.82724e-06
4.97195e-06
4.97557e-06
4.82734e-06
4.51511e-06
4.00115e-06
3.27526e-06
3.39038e-06
4.14327e-06
4.65658e-06
4.97546e-06
5.14533e-06
5.14526e-06
4.97107e-06
4.65367e-06
4.14084e-06
3.38964e-06
3.38983e-06
4.14131e-06
4.65433e-06
4.97207e-06
5.1456e-06
5.14549e-06
4.97113e-06
4.65368e-06
4.14084e-06
3.38965e-06
3.27534e-06
4.00125e-06
4.51525e-06
4.8277e-06
4.97673e-06
4.97671e-06
4.82756e-06
4.51514e-06
4.00116e-06
3.27527e-06
3.06501e-06
3.71586e-06
4.23947e-06
4.52372e-06
4.65758e-06
4.65758e-06
4.52371e-06
4.23945e-06
3.71583e-06
3.06499e-06
2.90458e-06
3.2802e-06
3.75008e-06
4.01203e-06
4.14395e-06
4.14395e-06
4.01202e-06
3.75006e-06
3.28016e-06
2.90451e-06
3.70721e-06
2.91548e-06
3.07412e-06
3.27837e-06
3.39059e-06
3.39058e-06
3.27834e-06
3.07406e-06
2.91549e-06
3.70721e-06
4.84011e-06
3.0549e-06
3.02964e-06
3.19689e-06
3.30122e-06
3.30187e-06
3.20013e-06
3.039e-06
3.06631e-06
4.83985e-06
3.06576e-06
3.20527e-06
3.61583e-06
3.90415e-06
4.04805e-06
4.05026e-06
3.9152e-06
3.64999e-06
3.20579e-06
3.05483e-06
3.0387e-06
3.64945e-06
4.14762e-06
4.43514e-06
4.58046e-06
4.58301e-06
4.44384e-06
4.14813e-06
3.61628e-06
3.02969e-06
3.19999e-06
3.91486e-06
4.44347e-06
4.76085e-06
4.91235e-06
4.91596e-06
4.76097e-06
4.43533e-06
3.90431e-06
3.19691e-06
3.30185e-06
4.05013e-06
4.58283e-06
4.91585e-06
5.09289e-06
5.09281e-06
4.91143e-06
4.5798e-06
4.04758e-06
3.30104e-06
3.30124e-06
4.04809e-06
4.58052e-06
4.91248e-06
5.09318e-06
5.09305e-06
4.9115e-06
4.57982e-06
4.04758e-06
3.30104e-06
3.197e-06
3.90442e-06
4.43549e-06
4.76136e-06
4.91718e-06
4.91716e-06
4.7612e-06
4.43537e-06
3.90431e-06
3.19694e-06
3.02976e-06
3.61634e-06
4.14819e-06
4.44404e-06
4.58391e-06
4.58391e-06
4.44403e-06
4.14817e-06
3.61629e-06
3.02976e-06
3.05491e-06
3.20584e-06
3.65005e-06
3.91533e-06
4.05088e-06
4.05087e-06
3.91531e-06
3.65002e-06
3.2058e-06
3.05484e-06
4.83964e-06
3.06627e-06
3.03904e-06
3.20019e-06
3.30208e-06
3.30207e-06
3.20014e-06
3.03895e-06
3.06629e-06
4.83971e-06
6.87403e-06
3.37427e-06
3.05037e-06
3.14678e-06
3.23287e-06
3.23358e-06
3.15017e-06
3.05997e-06
3.38663e-06
6.87471e-06
3.3858e-06
3.16265e-06
3.52509e-06
3.81119e-06
3.9575e-06
3.95979e-06
3.82235e-06
3.55879e-06
3.16322e-06
3.37418e-06
3.05961e-06
3.55819e-06
4.05866e-06
4.35649e-06
4.50747e-06
4.51008e-06
4.36526e-06
4.05922e-06
3.52558e-06
3.05039e-06
3.15002e-06
3.82197e-06
4.36486e-06
4.69501e-06
4.85309e-06
4.85671e-06
4.69514e-06
4.3567e-06
3.81137e-06
3.1468e-06
3.23355e-06
3.95965e-06
4.50989e-06
4.85659e-06
5.04059e-06
5.04051e-06
4.85216e-06
4.50678e-06
3.957e-06
3.23268e-06
3.2329e-06
3.95755e-06
4.50753e-06
4.85323e-06
5.0409e-06
5.04077e-06
4.85223e-06
4.50679e-06
3.95701e-06
3.23269e-06
3.14689e-06
3.81148e-06
4.35687e-06
4.69556e-06
4.85798e-06
4.85795e-06
4.69539e-06
4.35675e-06
3.81138e-06
3.14684e-06
3.05047e-06
3.52563e-06
4.05928e-06
4.36549e-06
4.51105e-06
4.51105e-06
4.36547e-06
4.05926e-06
3.52559e-06
3.0505e-06
3.37432e-06
3.16327e-06
3.55884e-06
3.82249e-06
3.96047e-06
3.96047e-06
3.82248e-06
3.55882e-06
3.16323e-06
3.3742e-06
6.87442e-06
3.38653e-06
3.06e-06
3.15024e-06
3.23382e-06
3.2338e-06
3.15018e-06
3.05989e-06
3.38655e-06
6.87438e-06
1.02548e-05
3.96784e-06
3.15677e-06
3.13683e-06
3.19278e-06
3.19354e-06
3.14039e-06
3.16678e-06
3.98186e-06
1.0256e-05
3.98065e-06
3.16583e-06
3.44648e-06
3.72322e-06
3.87021e-06
3.87256e-06
3.73445e-06
3.47976e-06
3.16647e-06
3.96774e-06
3.16635e-06
3.47909e-06
3.97254e-06
4.27909e-06
4.43535e-06
4.43802e-06
4.28791e-06
3.97315e-06
3.44701e-06
3.15675e-06
3.14021e-06
3.73402e-06
4.28746e-06
4.62974e-06
4.79421e-06
4.79782e-06
4.62989e-06
4.27932e-06
3.72341e-06
3.13681e-06
3.1935e-06
3.87239e-06
4.4378e-06
4.79769e-06
4.98845e-06
4.98836e-06
4.79326e-06
4.43462e-06
3.86968e-06
3.19255e-06
3.19279e-06
3.87023e-06
4.43541e-06
4.79436e-06
4.98877e-06
4.98864e-06
4.79333e-06
4.43464e-06
3.86968e-06
3.19257e-06
3.13693e-06
3.7235e-06
4.27949e-06
4.63033e-06
4.79913e-06
4.79911e-06
4.63016e-06
4.27936e-06
3.72342e-06
3.13689e-06
3.1569e-06
3.44703e-06
3.97321e-06
4.28815e-06
4.43905e-06
4.43905e-06
4.28814e-06
3.9732e-06
3.44703e-06
3.1569e-06
3.96808e-06
3.1665e-06
3.47981e-06
3.73461e-06
3.8733e-06
3.8733e-06
3.73461e-06
3.4798e-06
3.16648e-06
3.96777e-06
1.0256e-05
3.98173e-06
3.16679e-06
3.14045e-06
3.19379e-06
3.19377e-06
3.14037e-06
3.16662e-06
3.98166e-06
1.02554e-05
1.52526e-05
4.99448e-06
3.3878e-06
3.18599e-06
3.19359e-06
3.19441e-06
3.18976e-06
3.39847e-06
5.01133e-06
1.52557e-05
5.0092e-06
3.23819e-06
3.3853e-06
3.64188e-06
3.78701e-06
3.78943e-06
3.65318e-06
3.41824e-06
3.23891e-06
4.99456e-06
3.39785e-06
3.41754e-06
3.89006e-06
4.20307e-06
4.36414e-06
4.36686e-06
4.21192e-06
3.8907e-06
3.38584e-06
3.38775e-06
3.18955e-06
3.65272e-06
4.21145e-06
4.56507e-06
4.7357e-06
4.73931e-06
4.56523e-06
4.20331e-06
3.64207e-06
3.18595e-06
3.19437e-06
3.78925e-06
4.36663e-06
4.73917e-06
4.93648e-06
4.93639e-06
4.73473e-06
4.36337e-06
3.78644e-06
3.19334e-06
3.19361e-06
3.78703e-06
4.3642e-06
4.73586e-06
4.93682e-06
4.93668e-06
4.73481e-06
4.36339e-06
3.78644e-06
3.19336e-06
3.18608e-06
3.64218e-06
4.2035e-06
4.5657e-06
4.74066e-06
4.74063e-06
4.56552e-06
4.20336e-06
3.64209e-06
3.18606e-06
3.38794e-06
3.38587e-06
3.89077e-06
4.21219e-06
4.36795e-06
4.36795e-06
4.21217e-06
3.89076e-06
3.38586e-06
3.38798e-06
4.99503e-06
3.23894e-06
3.41828e-06
3.65334e-06
3.7902e-06
3.7902e-06
3.65333e-06
3.41827e-06
3.23891e-06
4.99469e-06
1.52559e-05
5.01118e-06
3.39848e-06
3.18983e-06
3.1947e-06
3.19467e-06
3.1897e-06
3.39823e-06
5.01104e-06
1.52552e-05
2.19401e-05
6.60877e-06
3.80973e-06
3.32263e-06
3.25568e-06
3.25657e-06
3.32669e-06
3.82153e-06
6.63036e-06
2.1947e-05
6.62654e-06
3.40396e-06
3.34819e-06
3.56976e-06
3.70937e-06
3.71184e-06
3.5811e-06
3.38094e-06
3.40481e-06
6.60958e-06
3.8205e-06
3.38021e-06
3.8123e-06
4.12867e-06
4.29391e-06
4.29668e-06
4.13754e-06
3.81296e-06
3.34872e-06
3.80977e-06
3.32641e-06
3.58064e-06
4.13704e-06
4.50103e-06
4.67758e-06
4.68118e-06
4.5012e-06
4.12891e-06
3.56993e-06
3.32258e-06
3.25651e-06
3.71166e-06
4.29644e-06
4.68103e-06
4.88469e-06
4.8846e-06
4.67659e-06
4.2931e-06
3.70874e-06
3.2554e-06
3.25569e-06
3.7094e-06
4.29399e-06
4.67776e-06
4.88506e-06
4.8849e-06
4.67668e-06
4.29312e-06
3.70874e-06
3.25544e-06
3.32271e-06
3.57008e-06
4.12914e-06
4.50169e-06
4.68258e-06
4.68254e-06
4.5015e-06
4.12897e-06
3.56994e-06
3.32276e-06
3.80992e-06
3.34879e-06
3.81305e-06
4.13783e-06
4.29783e-06
4.29782e-06
4.1378e-06
3.81301e-06
3.34875e-06
3.81014e-06
6.60985e-06
3.40484e-06
3.381e-06
3.58129e-06
3.71266e-06
3.71265e-06
3.58126e-06
3.38095e-06
3.4048e-06
6.6099e-06
2.19461e-05
6.62981e-06
3.82147e-06
3.32678e-06
3.25689e-06
3.25684e-06
3.3266e-06
3.82118e-06
6.62995e-06
2.19466e-05
3.01178e-05
9.35438e-06
4.52805e-06
3.58816e-06
3.40381e-06
3.4048e-06
3.59266e-06
4.54158e-06
9.38233e-06
3.01296e-05
9.37559e-06
3.71993e-06
3.34655e-06
3.51083e-06
3.63957e-06
3.64209e-06
3.52223e-06
3.37936e-06
3.72108e-06
9.35636e-06
4.53976e-06
3.37858e-06
3.74099e-06
4.05626e-06
4.22481e-06
4.22761e-06
4.06513e-06
3.74165e-06
3.34709e-06
4.52819e-06
3.59214e-06
3.52177e-06
4.06462e-06
4.43766e-06
4.61987e-06
4.62345e-06
4.43784e-06
4.0565e-06
3.51098e-06
3.58808e-06
3.40466e-06
3.64192e-06
4.22737e-06
4.6233e-06
4.8331e-06
4.83301e-06
4.61886e-06
4.22396e-06
3.63889e-06
3.40347e-06
3.40376e-06
3.63962e-06
4.2249e-06
4.62006e-06
4.83348e-06
4.83333e-06
4.61896e-06
4.22399e-06
3.6389e-06
3.40353e-06
3.58812e-06
3.51119e-06
4.05676e-06
4.43837e-06
4.6249e-06
4.62486e-06
4.43816e-06
4.05657e-06
3.51102e-06
3.58833e-06
4.5281e-06
3.3472e-06
3.74178e-06
4.06546e-06
4.22882e-06
4.22882e-06
4.06542e-06
3.74172e-06
3.34714e-06
4.52864e-06
9.35569e-06
3.72102e-06
3.37945e-06
3.52245e-06
3.64297e-06
3.64296e-06
3.52241e-06
3.37937e-06
3.72102e-06
9.35635e-06
3.01259e-05
9.38051e-06
4.54121e-06
3.59266e-06
3.4051e-06
3.40504e-06
3.59239e-06
4.54084e-06
9.38098e-06
3.01278e-05
3.93543e-05
1.34632e-05
5.66902e-06
4.04722e-06
3.68391e-06
3.68503e-06
4.05234e-06
5.68488e-06
1.34971e-05
3.93701e-05
1.34868e-05
4.25758e-06
3.39471e-06
3.47052e-06
3.58096e-06
3.58353e-06
3.48202e-06
3.42799e-06
4.25908e-06
1.34666e-05
5.68192e-06
3.4271e-06
3.6786e-06
3.98638e-06
4.15705e-06
4.15987e-06
3.99524e-06
3.67928e-06
3.3953e-06
5.66928e-06
4.05141e-06
3.48154e-06
3.99472e-06
4.37504e-06
4.56258e-06
4.56614e-06
4.37523e-06
3.98663e-06
3.47067e-06
4.04705e-06
3.68473e-06
3.58338e-06
4.15964e-06
4.56599e-06
4.78172e-06
4.78162e-06
4.56156e-06
4.15617e-06