/*--------------------------------*- C++ -*----------------------------------*\
| =========                 |                                                 |
| \\      /  F ield         | OpenFOAM: The Open Source CFD Toolbox           |
|  \\    /   O peration     | Version:  2406                                  |
|   \\  /    A nd           | Website:  www.openfoam.com                      |
|    \\/     M anipulation  |                                                 |
\*---------------------------------------------------------------------------*/
FoamFile
{
    version     2.0;
    format      ascii;
    arch        "LSB;label=32;scalar=64";
    class       volScalarField;
    location    "500";
    object      nuTilda;
}
// * * * * * * * * * * * * * * * * * * * * * * * * * * * * * * * * * * * * * //

dimensions      [0 2 -1 0 0 0 0];

internalField   nonuniform List<scalar> 
25000
(
3.96613e-05
3.97391e-05
3.9788e-05
3.98122e-05
3.98228e-05
3.98228e-05
3.98122e-05
3.97884e-05
3.97433e-05
3.96613e-05
3.97429e-05
3.98125e-05
3.98518e-05
3.98735e-05
3.9884e-05
3.9884e-05
3.98738e-05
3.98615e-05
3.98128e-05
3.97394e-05
3.97882e-05
3.98613e-05
3.98941e-05
3.99084e-05
3.99183e-05
3.99183e-05
3.99097e-05
3.98942e-05
3.98519e-05
3.97881e-05
3.98122e-05
3.98737e-05
3.99096e-05
3.99298e-05
3.99382e-05
3.9939e-05
3.99299e-05
3.99085e-05
3.98735e-05
3.98123e-05
3.98228e-05
3.9884e-05
3.99183e-05
3.9939e-05
3.99514e-05
3.99515e-05
3.99382e-05
3.99183e-05
3.9884e-05
3.98228e-05
3.98228e-05
3.9884e-05
3.99183e-05
3.99382e-05
3.99514e-05
3.99515e-05
3.99383e-05
3.99183e-05
3.9884e-05
3.98228e-05
3.98123e-05
3.98735e-05
3.99085e-05
3.99299e-05
3.99391e-05
3.99391e-05
3.99299e-05
3.99085e-05
3.98735e-05
3.98123e-05
3.97881e-05
3.98519e-05
3.98942e-05
3.99097e-05
3.99183e-05
3.99183e-05
3.99097e-05
3.98942e-05
3.98519e-05
3.97881e-05
3.97394e-05
3.98128e-05
3.98615e-05
3.98738e-05
3.9884e-05
3.9884e-05
3.98738e-05
3.98615e-05
3.98128e-05
3.97394e-05
3.96613e-05
3.97433e-05
3.97884e-05
3.98122e-05
3.98228e-05
3.98228e-05
3.98122e-05
3.97884e-05
3.97433e-05
3.96613e-05
3.89621e-05
3.92097e-05
3.93579e-05
3.94329e-05
3.94656e-05
3.94656e-05
3.9433e-05
3.93596e-05
3.92202e-05
3.89621e-05
3.92196e-05
3.9435e-05
3.95542e-05
3.96197e-05
3.96512e-05
3.96512e-05
3.96213e-05
3.95797e-05
3.94357e-05
3.92103e-05
3.93593e-05
3.95793e-05
3.96804e-05
3.97256e-05
3.97546e-05
3.97549e-05
3.97292e-05
3.96808e-05
3.95545e-05
3.93581e-05
3.94329e-05
3.9621e-05
3.9729e-05
3.97891e-05
3.98149e-05
3.98171e-05
3.97893e-05
3.97257e-05
3.96198e-05
3.9433e-05
3.94656e-05
3.96511e-05
3.97547e-05
3.9817e-05
3.98536e-05
3.98537e-05
3.98149e-05
3.97547e-05
3.96512e-05
3.94656e-05
3.94656e-05
3.96512e-05
3.97546e-05
3.98149e-05
3.98537e-05
3.98537e-05
3.98149e-05
3.97547e-05
3.96512e-05
3.94656e-05
3.9433e-05
3.96198e-05
3.97257e-05
3.97893e-05
3.98172e-05
3.98172e-05
3.97893e-05
3.97257e-05
3.96198e-05
3.9433e-05
3.93581e-05
3.95545e-05
3.96808e-05
3.97292e-05
3.97549e-05
3.97549e-05
3.97292e-05
3.96808e-05
3.95545e-05
3.93581e-05
3.92103e-05
3.94357e-05
3.95797e-05
3.96213e-05
3.96513e-05
3.96513e-05
3.96213e-05
3.95797e-05
3.94357e-05
3.92103e-05
3.89621e-05
3.92202e-05
3.93596e-05
3.9433e-05
3.94656e-05
3.94656e-05
3.9433e-05
3.93596e-05
3.92202e-05
3.89621e-05
3.82542e-05
3.86783e-05
3.8926e-05
3.90532e-05
3.91085e-05
3.91085e-05
3.90533e-05
3.89295e-05
3.86933e-05
3.82541e-05
3.86927e-05
3.90577e-05
3.92574e-05
3.93666e-05
3.94188e-05
3.94189e-05
3.937e-05
3.92954e-05
3.90587e-05
3.86788e-05
3.89291e-05
3.92948e-05
3.94662e-05
3.95438e-05
3.95914e-05
3.9592e-05
3.95494e-05
3.94666e-05
3.92579e-05
3.89262e-05
3.90532e-05
3.93697e-05
3.95491e-05
3.96487e-05
3.96922e-05
3.96954e-05
3.9649e-05
3.9544e-05
3.93668e-05
3.90532e-05
3.91084e-05
3.94188e-05
3.95918e-05
3.96952e-05
3.97553e-05
3.97554e-05
3.96921e-05
3.95915e-05
3.94189e-05
3.91085e-05
3.91085e-05
3.94188e-05
3.95914e-05
3.96922e-05
3.97553e-05
3.97554e-05
3.96921e-05
3.95915e-05
3.94189e-05
3.91085e-05
3.90532e-05
3.93667e-05
3.9544e-05
3.96489e-05
3.96956e-05
3.96956e-05
3.9649e-05
3.9544e-05
3.93668e-05
3.90532e-05
3.89262e-05
3.92579e-05
3.94666e-05
3.95494e-05
3.9592e-05
3.95921e-05
3.95494e-05
3.94666e-05
3.92579e-05
3.89262e-05
3.86789e-05
3.90587e-05
3.92954e-05
3.937e-05
3.9419e-05
3.9419e-05
3.937e-05
3.92954e-05
3.90587e-05
3.86789e-05
3.82541e-05
3.86933e-05
3.89295e-05
3.90533e-05
3.91085e-05
3.91085e-05
3.90533e-05
3.89295e-05
3.86933e-05
3.82541e-05
3.75512e-05
3.81488e-05
3.84951e-05
3.86748e-05
3.87529e-05
3.87529e-05
3.86751e-05
3.85006e-05
3.81674e-05
3.7551e-05
3.81668e-05
3.8682e-05
3.89622e-05
3.91147e-05
3.91873e-05
3.91876e-05
3.91201e-05
3.90102e-05
3.86832e-05
3.81493e-05
3.85002e-05
3.90095e-05
3.92518e-05
3.93631e-05
3.94289e-05
3.94298e-05
3.93705e-05
3.92523e-05
3.89628e-05
3.84954e-05
3.8675e-05
3.91197e-05
3.93701e-05
3.95086e-05
3.95698e-05
3.9574e-05
3.95089e-05
3.93634e-05
3.91149e-05
3.86748e-05
3.87529e-05
3.91874e-05
3.94296e-05
3.95738e-05
3.96563e-05
3.96565e-05
3.95697e-05
3.94289e-05
3.91873e-05
3.87529e-05
3.87529e-05
3.91873e-05
3.94289e-05
3.95699e-05
3.96564e-05
3.96565e-05
3.95697e-05
3.94289e-05
3.91873e-05
3.87529e-05
3.86749e-05
3.91149e-05
3.93633e-05
3.95089e-05
3.95743e-05
3.95743e-05
3.95089e-05
3.93634e-05
3.91149e-05
3.86748e-05
3.84954e-05
3.89628e-05
3.92523e-05
3.93704e-05
3.94299e-05
3.94299e-05
3.93705e-05
3.92523e-05
3.89628e-05
3.84954e-05
3.81493e-05
3.86832e-05
3.90102e-05
3.91201e-05
3.91876e-05
3.91876e-05
3.91201e-05
3.90102e-05
3.86832e-05
3.81493e-05
3.7551e-05
3.81674e-05
3.85007e-05
3.86751e-05
3.87529e-05
3.87529e-05
3.86751e-05
3.85006e-05
3.81674e-05
3.7551e-05
3.68622e-05
3.76242e-05
3.80673e-05
3.82991e-05
3.84e-05
3.84e-05
3.82998e-05
3.8075e-05
3.76457e-05
3.68621e-05
3.76451e-05
3.83085e-05
3.86686e-05
3.88641e-05
3.89568e-05
3.89573e-05
3.88715e-05
3.87248e-05
3.83099e-05
3.76247e-05
3.80745e-05
3.87239e-05
3.90373e-05
3.91832e-05
3.92668e-05
3.92681e-05
3.91921e-05
3.9038e-05
3.86693e-05
3.80676e-05
3.82996e-05
3.88711e-05
3.91916e-05
3.93687e-05
3.94477e-05
3.94525e-05
3.9369e-05
3.91836e-05
3.88643e-05
3.82992e-05
3.84e-05
3.89571e-05
3.92678e-05
3.94523e-05
3.95567e-05
3.95568e-05
3.94474e-05
3.92668e-05
3.89568e-05
3.84e-05
3.84e-05
3.89568e-05
3.92668e-05
3.94477e-05
3.95568e-05
3.95569e-05
3.94475e-05
3.92668e-05
3.89568e-05
3.84e-05
3.82992e-05
3.88643e-05
3.91835e-05
3.9369e-05
3.9453e-05
3.9453e-05
3.9369e-05
3.91836e-05
3.88643e-05
3.82992e-05
3.80676e-05
3.86694e-05
3.9038e-05
3.91921e-05
3.92682e-05
3.92682e-05
3.91921e-05
3.9038e-05
3.86693e-05
3.80676e-05
3.76247e-05
3.83099e-05
3.87248e-05
3.88716e-05
3.89573e-05
3.89573e-05
3.88716e-05
3.87248e-05
3.83099e-05
3.76247e-05
3.68621e-05
3.76457e-05
3.8075e-05
3.82998e-05
3.84e-05
3.84e-05
3.82998e-05
3.8075e-05
3.76457e-05
3.68621e-05
3.61888e-05
3.71048e-05
3.76426e-05
3.79262e-05
3.80497e-05
3.80498e-05
3.79273e-05
3.76526e-05
3.71288e-05
3.61889e-05
3.71281e-05
3.79369e-05
3.83764e-05
3.86145e-05
3.8727e-05
3.87278e-05
3.86241e-05
3.84392e-05
3.79383e-05
3.71053e-05
3.7652e-05
3.84383e-05
3.88227e-05
3.90038e-05
3.9105e-05
3.91066e-05
3.90141e-05
3.88234e-05
3.83772e-05
3.7643e-05
3.79271e-05
3.86236e-05
3.90136e-05
3.92287e-05
3.93255e-05
3.93309e-05
3.92291e-05
3.90042e-05
3.86148e-05
3.79263e-05
3.80497e-05
3.87276e-05
3.91063e-05
3.93306e-05
3.94563e-05
3.94564e-05
3.93251e-05
3.9105e-05
3.87271e-05
3.80497e-05
3.80497e-05
3.8727e-05
3.9105e-05
3.93256e-05
3.94564e-05
3.94565e-05
3.93251e-05
3.9105e-05
3.87271e-05
3.80497e-05
3.79263e-05
3.86148e-05
3.90042e-05
3.92291e-05
3.93315e-05
3.93315e-05
3.92291e-05
3.90042e-05
3.86148e-05
3.79263e-05
3.7643e-05
3.83772e-05
3.88234e-05
3.90141e-05
3.91068e-05
3.91068e-05
3.90141e-05
3.88234e-05
3.83772e-05
3.7643e-05
3.71053e-05
3.79384e-05
3.84392e-05
3.86241e-05
3.87279e-05
3.87279e-05
3.86241e-05
3.84392e-05
3.79383e-05
3.71053e-05
3.61888e-05
3.71288e-05
3.76526e-05
3.79273e-05
3.80498e-05
3.80498e-05
3.79273e-05
3.76526e-05
3.71287e-05
3.61888e-05
3.55274e-05
3.6589e-05
3.72194e-05
3.75543e-05
3.77006e-05
3.77007e-05
3.7556e-05
3.72315e-05
3.66149e-05
3.55276e-05
3.66143e-05
3.75658e-05
3.80844e-05
3.83653e-05
3.84975e-05
3.84987e-05
3.83769e-05
3.81528e-05
3.75673e-05
3.65895e-05
3.72309e-05
3.81517e-05
3.86073e-05
3.88245e-05
3.89431e-05
3.89451e-05
3.8836e-05
3.86081e-05
3.80853e-05
3.72198e-05
3.75558e-05
3.83763e-05
3.88354e-05
3.90885e-05
3.92031e-05
3.92089e-05
3.90889e-05
3.88249e-05
3.83657e-05
3.75545e-05
3.77007e-05
3.84984e-05
3.89448e-05
3.92086e-05
3.9355e-05
3.93551e-05
3.92026e-05
3.8943e-05
3.84975e-05
3.77006e-05
3.77006e-05
3.84975e-05
3.89431e-05
3.92031e-05
3.93551e-05
3.93552e-05
3.92026e-05
3.8943e-05
3.84975e-05
3.77006e-05
3.75545e-05
3.83656e-05
3.88249e-05
3.90889e-05
3.92097e-05
3.92097e-05
3.90889e-05
3.88249e-05
3.83657e-05
3.75545e-05
3.72198e-05
3.80853e-05
3.86081e-05
3.8836e-05
3.89454e-05
3.89454e-05
3.8836e-05
3.86081e-05
3.80853e-05
3.72198e-05
3.65895e-05
3.75673e-05
3.81528e-05
3.83769e-05
3.84988e-05
3.84988e-05
3.83769e-05
3.81527e-05
3.75673e-05
3.65895e-05
3.55276e-05
3.66149e-05
3.72315e-05
3.7556e-05
3.77008e-05
3.77007e-05
3.7556e-05
3.72315e-05
3.66149e-05
3.55275e-05
3.48782e-05
3.60763e-05
3.67966e-05
3.71825e-05
3.73515e-05
3.73517e-05
3.71848e-05
3.68108e-05
3.61039e-05
3.48784e-05
3.61032e-05
3.71944e-05
3.77921e-05
3.81159e-05
3.82677e-05
3.82692e-05
3.81294e-05
3.78649e-05
3.7196e-05
3.60769e-05
3.68101e-05
3.78637e-05
3.8391e-05
3.86449e-05
3.87809e-05
3.87834e-05
3.86575e-05
3.83919e-05
3.77931e-05
3.67971e-05
3.71844e-05
3.81288e-05
3.86569e-05
3.89479e-05
3.90803e-05
3.90865e-05
3.89483e-05
3.86454e-05
3.81162e-05
3.71826e-05
3.73516e-05
3.8269e-05
3.8783e-05
3.90862e-05
3.92528e-05
3.92529e-05
3.90796e-05
3.87808e-05
3.82677e-05
3.73515e-05
3.73515e-05
3.82677e-05
3.87809e-05
3.90803e-05
3.9253e-05
3.9253e-05
3.90797e-05
3.87808e-05
3.82677e-05
3.73515e-05
3.71826e-05
3.81162e-05
3.86454e-05
3.89484e-05
3.90874e-05
3.90874e-05
3.89484e-05
3.86454e-05
3.81162e-05
3.71826e-05
3.67971e-05
3.7793e-05
3.83918e-05
3.86575e-05
3.87838e-05
3.87838e-05
3.86576e-05
3.83918e-05
3.7793e-05
3.67971e-05
3.60768e-05
3.7196e-05
3.78648e-05
3.81294e-05
3.82694e-05
3.82694e-05
3.81294e-05
3.78648e-05
3.7196e-05
3.60768e-05
3.48783e-05
3.61038e-05
3.68108e-05
3.71847e-05
3.73517e-05
3.73517e-05
3.71847e-05
3.68108e-05
3.61038e-05
3.48784e-05
3.4246e-05
3.55684e-05
3.63748e-05
3.68107e-05
3.70024e-05
3.70027e-05
3.68136e-05
3.63909e-05
3.55973e-05
3.42463e-05
3.55966e-05
3.6823e-05
3.74993e-05
3.7866e-05
3.80375e-05
3.80394e-05
3.78814e-05
3.75756e-05
3.68246e-05
3.5569e-05
3.63902e-05
3.75744e-05
3.81737e-05
3.8465e-05
3.86184e-05
3.86212e-05
3.84786e-05
3.81746e-05
3.75003e-05
3.63753e-05
3.68132e-05
3.78808e-05
3.84779e-05
3.88069e-05
3.89571e-05
3.89635e-05
3.88073e-05
3.84655e-05
3.78665e-05
3.68109e-05
3.70025e-05
3.80391e-05
3.86209e-05
3.89632e-05
3.91498e-05
3.91499e-05
3.89563e-05
3.86182e-05
3.80374e-05
3.70023e-05
3.70023e-05
3.80375e-05
3.86184e-05
3.89571e-05
3.91501e-05
3.91501e-05
3.89563e-05
3.86182e-05
3.80374e-05
3.70023e-05
3.68108e-05
3.78664e-05
3.84654e-05
3.88074e-05
3.89646e-05
3.89647e-05
3.88074e-05
3.84655e-05
3.78664e-05
3.68108e-05
3.63752e-05
3.75003e-05
3.81745e-05
3.84786e-05
3.86217e-05
3.86218e-05
3.84786e-05
3.81746e-05
3.75003e-05
3.63753e-05
3.55689e-05
3.68245e-05
3.75756e-05
3.78814e-05
3.80397e-05
3.80397e-05
3.78814e-05
3.75756e-05
3.68246e-05
3.5569e-05
3.42462e-05
3.55972e-05
3.63909e-05
3.68136e-05
3.70027e-05
3.70027e-05
3.68136e-05
3.63909e-05
3.55972e-05
3.42463e-05
3.36408e-05
3.50685e-05
3.59555e-05
3.64399e-05
3.66538e-05
3.66543e-05
3.64435e-05
3.59733e-05
3.50983e-05
3.36411e-05
3.50977e-05
3.64524e-05
3.72063e-05
3.7616e-05
3.7807e-05
3.78093e-05
3.76331e-05
3.72854e-05
3.64539e-05
3.5069e-05
3.59726e-05
3.72842e-05
3.79555e-05
3.82848e-05
3.84556e-05
3.84588e-05
3.82993e-05
3.79565e-05
3.72073e-05
3.59559e-05
3.64431e-05
3.76324e-05
3.82986e-05
3.86655e-05
3.88335e-05
3.88402e-05
3.86659e-05
3.82853e-05
3.76164e-05
3.64401e-05
3.66541e-05
3.7809e-05
3.84584e-05
3.88399e-05
3.90461e-05
3.90462e-05
3.88326e-05
3.84553e-05
3.78069e-05
3.66537e-05
3.66537e-05
3.7807e-05
3.84556e-05
3.88336e-05
3.90464e-05
3.90464e-05
3.88326e-05
3.84553e-05
3.78069e-05
3.66537e-05
3.644e-05
3.76163e-05
3.82852e-05
3.8666e-05
3.88415e-05
3.88415e-05
3.8666e-05
3.82853e-05
3.76164e-05
3.64401e-05
3.59559e-05
3.72073e-05
3.79564e-05
3.82993e-05
3.84594e-05
3.84594e-05
3.82993e-05
3.79565e-05
3.72073e-05
3.59559e-05
3.50689e-05
3.64539e-05
3.72854e-05
3.76331e-05
3.78096e-05
3.78096e-05
3.76331e-05
3.72854e-05
3.64539e-05
3.5069e-05
3.3641e-05
3.50982e-05
3.59733e-05
3.64434e-05
3.66543e-05
3.66543e-05
3.64434e-05
3.59733e-05
3.50982e-05
3.36411e-05
3.30759e-05
3.45805e-05
3.55406e-05
3.60713e-05
3.63069e-05
3.63074e-05
3.60756e-05
3.556e-05
3.4611e-05
3.3076e-05
3.46105e-05
3.60836e-05
3.69135e-05
3.73658e-05
3.75764e-05
3.7579e-05
3.73846e-05
3.69948e-05
3.60851e-05
3.45809e-05
3.55593e-05
3.69936e-05
3.77368e-05
3.81042e-05
3.82926e-05
3.82961e-05
3.81196e-05
3.77377e-05
3.69145e-05
3.5541e-05
3.60752e-05
3.73838e-05
3.81189e-05
3.85237e-05
3.87095e-05
3.87164e-05
3.85241e-05
3.81047e-05
3.73662e-05
3.60715e-05
3.63073e-05
3.75787e-05
3.82958e-05
3.87161e-05
3.89417e-05
3.89418e-05
3.87085e-05
3.82922e-05
3.75761e-05
3.63067e-05
3.63068e-05
3.75764e-05
3.82926e-05
3.87096e-05
3.8942e-05
3.8942e-05
3.87085e-05
3.82922e-05
3.75761e-05
3.63067e-05
3.60715e-05
3.73662e-05
3.81047e-05
3.85244e-05
3.87179e-05
3.87179e-05
3.85243e-05
3.81047e-05
3.73662e-05
3.60715e-05
3.5541e-05
3.69145e-05
3.77377e-05
3.81196e-05
3.82969e-05
3.82969e-05
3.81197e-05
3.77377e-05
3.69145e-05
3.5541e-05
3.45809e-05
3.6085e-05
3.69948e-05
3.73845e-05
3.75794e-05
3.75794e-05
3.73846e-05
3.69948e-05
3.60851e-05
3.45809e-05
3.3076e-05
3.4611e-05
3.55599e-05
3.60755e-05
3.63075e-05
3.63075e-05
3.60755e-05
3.55599e-05
3.4611e-05
3.3076e-05
3.25742e-05
3.41103e-05
3.51325e-05
3.57065e-05
3.59627e-05
3.59634e-05
3.57114e-05
3.51533e-05
3.41415e-05
3.25742e-05
3.4141e-05
3.5718e-05
3.66214e-05
3.71159e-05
3.73458e-05
3.73488e-05
3.71361e-05
3.67045e-05
3.57195e-05
3.41107e-05
3.51527e-05
3.67033e-05
3.75176e-05
3.79235e-05
3.81294e-05
3.81332e-05
3.79396e-05
3.75186e-05
3.66224e-05
3.51329e-05
3.5711e-05
3.71353e-05
3.79389e-05
3.83817e-05
3.85852e-05
3.85923e-05
3.83821e-05
3.7924e-05
3.71163e-05
3.57066e-05
3.59632e-05
3.73485e-05
3.81329e-05
3.8592e-05
3.88367e-05
3.88367e-05
3.8584e-05
3.81288e-05
3.73454e-05
3.59625e-05
3.59626e-05
3.73458e-05
3.81294e-05
3.85853e-05
3.8837e-05
3.8837e-05
3.85841e-05
3.81288e-05
3.73454e-05
3.59625e-05
3.57066e-05
3.71163e-05
3.7924e-05
3.83824e-05
3.85939e-05
3.85939e-05
3.83823e-05
3.7924e-05
3.71163e-05
3.57066e-05
3.5133e-05
3.66223e-05
3.75185e-05
3.79397e-05
3.81341e-05
3.81341e-05
3.79397e-05
3.75186e-05
3.66223e-05
3.51329e-05
3.41107e-05
3.57195e-05
3.67044e-05
3.71361e-05
3.73493e-05
3.73493e-05
3.71361e-05
3.67044e-05
3.57195e-05
3.41107e-05
3.25742e-05
3.41414e-05
3.51533e-05
3.57113e-05
3.59635e-05
3.59635e-05
3.57113e-05
3.51533e-05
3.41414e-05
3.25742e-05
3.21681e-05
3.36661e-05
3.47343e-05
3.5347e-05
3.56226e-05
3.56234e-05
3.53526e-05
3.47564e-05
3.36978e-05
3.21679e-05
3.36973e-05
3.53574e-05
3.63304e-05
3.68664e-05
3.71154e-05
3.71188e-05
3.68879e-05
3.6415e-05
3.53589e-05
3.36665e-05
3.47558e-05
3.64138e-05
3.72982e-05
3.77427e-05
3.7966e-05
3.79702e-05
3.77594e-05
3.72992e-05
3.63314e-05
3.47347e-05
3.53522e-05
3.68872e-05
3.77587e-05
3.82395e-05
3.84606e-05
3.84678e-05
3.82398e-05
3.77431e-05
3.68668e-05
3.53472e-05
3.56233e-05
3.71185e-05
3.79698e-05
3.84675e-05
3.87311e-05
3.87311e-05
3.84593e-05
3.79653e-05
3.7115e-05
3.56224e-05
3.56225e-05
3.71154e-05
3.79661e-05
3.84607e-05
3.87314e-05
3.87314e-05
3.84593e-05
3.79653e-05
3.7115e-05
3.56224e-05
3.53472e-05
3.68668e-05
3.77432e-05
3.82402e-05
3.84695e-05
3.84696e-05
3.824e-05
3.77432e-05
3.68668e-05
3.53472e-05
3.47348e-05
3.63314e-05
3.72992e-05
3.77596e-05
3.79712e-05
3.79712e-05
3.77596e-05
3.72992e-05
3.63314e-05
3.47347e-05
3.36665e-05
3.53588e-05
3.6415e-05
3.68879e-05
3.71194e-05
3.71194e-05
3.6888e-05
3.6415e-05
3.53588e-05
3.36665e-05
3.21679e-05
3.36978e-05
3.47564e-05
3.53526e-05
3.56236e-05
3.56236e-05
3.53526e-05
3.47564e-05
3.36978e-05
3.21678e-05
3.19183e-05
3.32617e-05
3.43503e-05
3.49952e-05
3.52882e-05
3.52892e-05
3.50014e-05
3.43736e-05
3.32937e-05
3.19178e-05
3.32933e-05
3.50041e-05
3.60414e-05
3.66176e-05
3.68855e-05
3.68893e-05
3.66404e-05
3.61271e-05
3.50055e-05
3.3262e-05
3.4373e-05
3.61259e-05
3.70788e-05
3.75617e-05
3.78026e-05
3.7807e-05
3.75791e-05
3.70798e-05
3.60424e-05
3.43508e-05
3.50011e-05
3.66397e-05
3.75784e-05
3.80969e-05
3.83357e-05
3.8343e-05
3.80972e-05
3.75622e-05
3.6618e-05
3.49953e-05
3.52891e-05
3.6889e-05
3.78067e-05
3.83428e-05
3.86249e-05
3.86248e-05
3.83342e-05
3.78017e-05
3.68849e-05
3.5288e-05
3.52882e-05
3.68855e-05
3.78026e-05
3.83358e-05
3.86253e-05
3.86252e-05
3.83343e-05
3.78017e-05
3.68849e-05
3.5288e-05
3.49954e-05
3.66181e-05
3.75623e-05
3.80977e-05
3.83449e-05
3.83449e-05
3.80975e-05
3.75622e-05
3.6618e-05
3.49953e-05
3.43508e-05
3.60424e-05
3.70798e-05
3.75793e-05
3.78082e-05
3.78082e-05
3.75793e-05
3.70798e-05
3.60424e-05
3.43508e-05
3.3262e-05
3.50055e-05
3.61271e-05
3.66405e-05
3.689e-05
3.689e-05
3.66405e-05
3.61271e-05
3.50055e-05
3.32619e-05
3.19179e-05
3.32937e-05
3.43736e-05
3.50014e-05
3.52894e-05
3.52894e-05
3.50014e-05
3.43736e-05
3.32937e-05
3.19178e-05
3.1906e-05
3.29175e-05
3.3987e-05
3.4654e-05
3.49617e-05
3.49629e-05
3.46609e-05
3.40112e-05
3.29497e-05
3.19053e-05
3.29493e-05
3.46615e-05
3.5755e-05
3.637e-05
3.66563e-05
3.66604e-05
3.63938e-05
3.58416e-05
3.46628e-05
3.29175e-05
3.40106e-05
3.58404e-05
3.68596e-05
3.73808e-05
3.7639e-05
3.76438e-05
3.73987e-05
3.68606e-05
3.5756e-05
3.39873e-05
3.46605e-05
3.63931e-05
3.7398e-05
3.79542e-05
3.82105e-05
3.82179e-05
3.79545e-05
3.73812e-05
3.63704e-05
3.46542e-05
3.49627e-05
3.66601e-05
3.76434e-05
3.82176e-05
3.85182e-05
3.85181e-05
3.82089e-05
3.76381e-05
3.66556e-05
3.49614e-05
3.49617e-05
3.66563e-05
3.76391e-05
3.82106e-05
3.85186e-05
3.85185e-05
3.8209e-05
3.76381e-05
3.66556e-05
3.49614e-05
3.46543e-05
3.63705e-05
3.73814e-05
3.7955e-05
3.82199e-05
3.82199e-05
3.79548e-05
3.73813e-05
3.63703e-05
3.46542e-05
3.39874e-05
3.57561e-05
3.68606e-05
3.7399e-05
3.76451e-05
3.76451e-05
3.7399e-05
3.68606e-05
3.5756e-05
3.39873e-05
3.29176e-05
3.46629e-05
3.58416e-05
3.63939e-05
3.66612e-05
3.66612e-05
3.63939e-05
3.58416e-05
3.46628e-05
3.29175e-05
3.19053e-05
3.29497e-05
3.40113e-05
3.46609e-05
3.49631e-05
3.49631e-05
3.46609e-05
3.40112e-05
3.29497e-05
3.19053e-05
3.22787e-05
3.26676e-05
3.36547e-05
3.43281e-05
3.46461e-05
3.46474e-05
3.43355e-05
3.36799e-05
3.27e-05
3.2278e-05
3.26995e-05
3.43348e-05
3.54725e-05
3.61238e-05
3.6428e-05
3.64324e-05
3.61486e-05
3.55597e-05
3.43361e-05
3.26675e-05
3.36793e-05
3.55586e-05
3.66408e-05
3.71999e-05
3.74755e-05
3.74805e-05
3.72183e-05
3.66418e-05
3.54735e-05
3.3655e-05
3.43352e-05
3.61479e-05
3.72176e-05
3.78113e-05
3.8085e-05
3.80925e-05
3.78115e-05
3.72003e-05
3.61241e-05
3.43282e-05
3.46473e-05
3.64321e-05
3.74801e-05
3.80922e-05
3.84109e-05
3.84108e-05
3.80833e-05
3.74744e-05
3.64272e-05
3.46458e-05
3.46462e-05
3.6428e-05
3.74756e-05
3.80852e-05
3.84114e-05
3.84112e-05
3.80834e-05
3.74744e-05
3.64272e-05
3.46458e-05
3.43283e-05
3.61243e-05
3.72005e-05
3.78121e-05
3.80946e-05
3.80946e-05
3.78119e-05
3.72003e-05
3.61241e-05
3.43282e-05
3.36551e-05
3.54736e-05
3.66419e-05
3.72186e-05
3.7482e-05
3.7482e-05
3.72186e-05
3.66419e-05
3.54735e-05
3.3655e-05
3.26677e-05
3.43362e-05
3.55598e-05
3.61487e-05
3.64334e-05
3.64334e-05
3.61487e-05
3.55597e-05
3.43361e-05
3.26675e-05
3.2278e-05
3.27e-05
3.36799e-05
3.43356e-05
3.46478e-05
3.46478e-05
3.43355e-05
3.36799e-05
3.27e-05
3.22779e-05
3.31972e-05
3.25652e-05
3.33699e-05
3.40246e-05
3.43463e-05
3.43478e-05
3.40327e-05
3.33958e-05
3.25978e-05
3.31962e-05
3.25972e-05
3.40322e-05
3.51955e-05
3.58796e-05
3.62009e-05
3.62056e-05
3.59053e-05
3.52832e-05
3.40335e-05
3.25651e-05
3.33952e-05
3.5282e-05
3.64227e-05
3.70191e-05
3.73119e-05
3.73172e-05
3.7038e-05
3.64238e-05
3.51965e-05
3.33701e-05
3.40323e-05
3.59046e-05
3.70373e-05
3.76682e-05
3.79592e-05
3.79668e-05
3.76684e-05
3.70195e-05
3.58799e-05
3.40247e-05
3.43477e-05
3.62053e-05
3.73168e-05
3.79665e-05
3.83032e-05
3.83031e-05
3.79574e-05
3.73107e-05
3.61999e-05
3.43459e-05
3.43463e-05
3.62009e-05
3.73121e-05
3.79594e-05
3.83037e-05
3.83035e-05
3.79575e-05
3.73107e-05
3.61999e-05
3.43459e-05
3.40249e-05
3.58801e-05
3.70198e-05
3.76691e-05
3.79691e-05
3.79691e-05
3.76688e-05
3.70196e-05
3.58799e-05
3.40247e-05
3.33703e-05
3.51966e-05
3.64239e-05
3.70384e-05
3.73188e-05
3.73188e-05
3.70383e-05
3.64238e-05
3.51965e-05
3.33702e-05
3.25652e-05
3.40336e-05
3.52833e-05
3.59055e-05
3.62068e-05
3.62068e-05
3.59055e-05
3.52833e-05
3.40335e-05
3.25651e-05
3.31961e-05
3.25979e-05
3.33959e-05
3.40328e-05
3.43482e-05
3.43482e-05
3.40327e-05
3.33958e-05
3.25978e-05
3.3196e-05
3.49066e-05
3.26828e-05
3.31572e-05
3.37548e-05
3.40695e-05
3.40712e-05
3.37634e-05
3.31839e-05
3.27157e-05
3.49059e-05
3.27146e-05
3.37671e-05
3.49266e-05
3.56382e-05
3.59754e-05
3.59804e-05
3.56647e-05
3.50148e-05
3.37685e-05
3.26826e-05
3.31832e-05
3.50135e-05
3.62058e-05
3.68385e-05
3.71484e-05
3.71539e-05
3.68579e-05
3.62069e-05
3.49277e-05
3.31574e-05
3.37631e-05
3.56639e-05
3.68571e-05
3.75249e-05
3.78332e-05
3.78408e-05
3.75251e-05
3.68389e-05
3.56385e-05
3.37549e-05
3.40711e-05
3.59801e-05
3.71535e-05
3.78406e-05
3.8195e-05
3.81949e-05
3.78313e-05
3.71471e-05
3.59743e-05
3.40691e-05
3.40696e-05
3.59755e-05
3.71486e-05
3.78334e-05
3.81956e-05
3.81954e-05
3.78314e-05
3.71471e-05
3.59743e-05
3.40691e-05
3.37551e-05
3.56388e-05
3.68392e-05
3.75259e-05
3.78433e-05
3.78432e-05
3.75256e-05
3.6839e-05
3.56385e-05
3.37549e-05
3.31576e-05
3.49278e-05
3.6207e-05
3.68583e-05
3.71557e-05
3.71557e-05
3.68582e-05
3.62069e-05
3.49277e-05
3.31575e-05
3.26828e-05
3.37686e-05
3.50149e-05
3.5665e-05
3.59817e-05
3.59817e-05
3.56649e-05
3.50149e-05
3.37685e-05
3.26826e-05
3.49057e-05
3.27157e-05
3.3184e-05
3.37635e-05
3.40717e-05
3.40716e-05
3.37635e-05
3.31838e-05
3.27157e-05
3.49057e-05
3.75525e-05
3.31282e-05
3.30544e-05
3.35354e-05
3.38268e-05
3.38287e-05
3.35445e-05
3.30818e-05
3.31613e-05
3.7552e-05
3.31598e-05
3.3559e-05
3.467e-05
3.54008e-05
3.57521e-05
3.57575e-05
3.5428e-05
3.47586e-05
3.35605e-05
3.31279e-05
3.30809e-05
3.47572e-05
3.59905e-05
3.66582e-05
3.6985e-05
3.69907e-05
3.6678e-05
3.59917e-05
3.46712e-05
3.30545e-05
3.35441e-05
3.54272e-05
3.66772e-05
3.73814e-05
3.77069e-05
3.77146e-05
3.73817e-05
3.66587e-05
3.54011e-05
3.35354e-05
3.38286e-05
3.57572e-05
3.69903e-05
3.77144e-05
3.80864e-05
3.80863e-05
3.7705e-05
3.69836e-05
3.5751e-05
3.38264e-05
3.38269e-05
3.57522e-05
3.69852e-05
3.77072e-05
3.8087e-05
3.80868e-05
3.77051e-05
3.69836e-05
3.5751e-05
3.38264e-05
3.35357e-05
3.54014e-05
3.6659e-05
3.73825e-05
3.77172e-05
3.77171e-05
3.73822e-05
3.66588e-05
3.54012e-05
3.35355e-05
3.30547e-05
3.46714e-05
3.59918e-05
3.66785e-05
3.69927e-05
3.69927e-05
3.66784e-05
3.59918e-05
3.46712e-05
3.30547e-05
3.31282e-05
3.35606e-05
3.47587e-05
3.54284e-05
3.57589e-05
3.57589e-05
3.54283e-05
3.47587e-05
3.35605e-05
3.3128e-05
3.75515e-05
3.31612e-05
3.30819e-05
3.35447e-05
3.38292e-05
3.38292e-05
3.35446e-05
3.30816e-05
3.31613e-05
3.75517e-05
4.14418e-05
3.40273e-05
3.31149e-05
3.33931e-05
3.36366e-05
3.36386e-05
3.34028e-05
3.31429e-05
3.40609e-05
4.14429e-05
3.40586e-05
3.34383e-05
3.44321e-05
3.51692e-05
3.5532e-05
3.55376e-05
3.51972e-05
3.45209e-05
3.34399e-05
3.4027e-05
3.31419e-05
3.45193e-05
3.57777e-05
3.64785e-05
3.68218e-05
3.68276e-05
3.64986e-05
3.57791e-05
3.44334e-05
3.3115e-05
3.34023e-05
3.51962e-05
3.64977e-05
3.72379e-05
3.75804e-05
3.75881e-05
3.72382e-05
3.6479e-05
3.51696e-05
3.33931e-05
3.36385e-05
3.55373e-05
3.68272e-05
3.75879e-05
3.79774e-05
3.79772e-05
3.75784e-05
3.68202e-05
3.55308e-05
3.36361e-05
3.36367e-05
3.55321e-05
3.68219e-05
3.75807e-05
3.7978e-05
3.79778e-05
3.75785e-05
3.68202e-05
3.55308e-05
3.36361e-05
3.33934e-05
3.51699e-05
3.64793e-05
3.72391e-05
3.75908e-05
3.75908e-05
3.72387e-05
3.64791e-05
3.51697e-05
3.33933e-05
3.31153e-05
3.44335e-05
3.57792e-05
3.64991e-05
3.68298e-05
3.68298e-05
3.64991e-05
3.57792e-05
3.44334e-05
3.31153e-05
3.40274e-05
3.34401e-05
3.4521e-05
3.51975e-05
3.55393e-05
3.55393e-05
3.51975e-05
3.4521e-05
3.344e-05
3.40271e-05
4.14425e-05
3.40606e-05
3.3143e-05
3.34029e-05
3.36393e-05
3.36392e-05
3.34028e-05
3.31427e-05
3.40607e-05
4.14424e-05
4.65774e-05
3.55573e-05
3.34216e-05
3.33646e-05
3.35237e-05
3.35259e-05
3.33748e-05
3.345e-05
3.55915e-05
4.6579e-05
3.55886e-05
3.34473e-05
3.42226e-05
3.49466e-05
3.53166e-05
3.53225e-05
3.49752e-05
3.43116e-05
3.34492e-05
3.55571e-05
3.34488e-05
3.43099e-05
3.55688e-05
3.62994e-05
3.66587e-05
3.66648e-05
3.632e-05
3.55703e-05
3.4224e-05
3.34215e-05
3.33743e-05
3.49741e-05
3.63189e-05
3.70943e-05
3.74537e-05
3.74615e-05
3.70946e-05
3.63e-05
3.49471e-05
3.33646e-05
3.35258e-05
3.53221e-05
3.66643e-05
3.74612e-05
3.78679e-05
3.78678e-05
3.74516e-05
3.66571e-05
3.53153e-05
3.35231e-05
3.35238e-05
3.53167e-05
3.66589e-05
3.7454e-05
3.78686e-05
3.78683e-05
3.74518e-05
3.66571e-05
3.53153e-05
3.35232e-05
3.33649e-05
3.49473e-05
3.63004e-05
3.70956e-05
3.74643e-05
3.74642e-05
3.70952e-05
3.63001e-05
3.49471e-05
3.33648e-05
3.34219e-05
3.4224e-05
3.55704e-05
3.63205e-05
3.66671e-05
3.66671e-05
3.63205e-05
3.55704e-05
3.4224e-05
3.34219e-05
3.55579e-05
3.34493e-05
3.43118e-05
3.49756e-05
3.53243e-05
3.53243e-05
3.49756e-05
3.43117e-05
3.34492e-05
3.55571e-05
4.65791e-05
3.55912e-05
3.34501e-05
3.3375e-05
3.35266e-05
3.35266e-05
3.33748e-05
3.34496e-05
3.55911e-05
4.65782e-05
5.26523e-05
3.78806e-05
3.40641e-05
3.35045e-05
3.35261e-05
3.35284e-05
3.35152e-05
3.4093e-05
3.79161e-05
5.26556e-05
3.79116e-05
3.36515e-05
3.40573e-05
3.47376e-05
3.51084e-05
3.51144e-05
3.47668e-05
3.41465e-05
3.36535e-05
3.78808e-05
3.40914e-05
3.41446e-05
3.53659e-05
3.61216e-05
3.6496e-05
3.65023e-05
3.61424e-05
3.53675e-05
3.40588e-05
3.40639e-05
3.35146e-05
3.47657e-05
3.61413e-05
3.69507e-05
3.73268e-05
3.73346e-05
3.69511e-05
3.61221e-05
3.47381e-05
3.35044e-05
3.35282e-05
3.5114e-05
3.65018e-05
3.73343e-05
3.77581e-05
3.7758e-05
3.73246e-05
3.64943e-05
3.51069e-05
3.35253e-05
3.35261e-05
3.51084e-05
3.64962e-05
3.73271e-05
3.77589e-05
3.77586e-05
3.73248e-05
3.64943e-05
3.51069e-05
3.35254e-05
3.35048e-05
3.47384e-05
3.61226e-05
3.69521e-05
3.73376e-05
3.73375e-05
3.69517e-05
3.61222e-05
3.47381e-05
3.35047e-05
3.40645e-05
3.40588e-05
3.53677e-05
3.6143e-05
3.65048e-05
3.65048e-05
3.6143e-05
3.53676e-05
3.40588e-05
3.40646e-05
3.78818e-05
3.36536e-05
3.41466e-05
3.47672e-05
3.51164e-05
3.51164e-05
3.47672e-05
3.41466e-05
3.36535e-05
3.78811e-05
5.26559e-05
3.79157e-05
3.40931e-05
3.35154e-05
3.35292e-05
3.35291e-05
3.35151e-05
3.40924e-05
3.79155e-05
5.26551e-05
5.94026e-05
4.09797e-05
3.51655e-05
3.38859e-05
3.37004e-05
3.37029e-05
3.38971e-05
3.51951e-05
4.10177e-05
5.94091e-05
4.1011e-05
3.41079e-05
3.39561e-05
3.45497e-05
3.49112e-05
3.49175e-05
3.45794e-05
3.40454e-05
3.41102e-05
4.09811e-05
3.51925e-05
3.40434e-05
3.5172e-05
3.59454e-05
3.63339e-05
3.63403e-05
3.59665e-05
3.51736e-05
3.39575e-05
3.51656e-05
3.38963e-05
3.45782e-05
3.59653e-05
3.68073e-05
3.71997e-05
3.72076e-05
3.68076e-05
3.5946e-05
3.45502e-05
3.38858e-05
3.37027e-05
3.49171e-05
3.63398e-05
3.72073e-05
3.7648e-05
3.76478e-05
3.71975e-05
3.6332e-05
3.49096e-05
3.36996e-05
3.37004e-05
3.49113e-05
3.63341e-05
3.72001e-05
3.76487e-05
3.76484e-05
3.71977e-05
3.63321e-05
3.49096e-05
3.36997e-05
3.38861e-05
3.45505e-05
3.59465e-05
3.68088e-05
3.72106e-05
3.72106e-05
3.68083e-05
3.59461e-05
3.45502e-05
3.38863e-05
3.5166e-05
3.39577e-05
3.51739e-05
3.59672e-05
3.6343e-05
3.6343e-05
3.59671e-05
3.51738e-05
3.39576e-05
3.51666e-05
4.09816e-05
3.41103e-05
3.40456e-05
3.45799e-05
3.49196e-05
3.49196e-05
3.45798e-05
3.40455e-05
3.41102e-05
4.09816e-05
5.94082e-05
4.10167e-05
3.5195e-05
3.38973e-05
3.37038e-05
3.37036e-05
3.38968e-05
3.51943e-05
4.1017e-05
5.94087e-05
6.6603e-05
4.53208e-05
3.6868e-05
3.45979e-05
3.41075e-05
3.41102e-05
3.46096e-05
3.68983e-05
4.53608e-05
6.66129e-05
4.53512e-05
3.49382e-05
3.39516e-05
3.43943e-05
3.47316e-05
3.47381e-05
3.44245e-05
3.40411e-05
3.49411e-05
4.53236e-05
3.68942e-05
3.4039e-05
3.49918e-05
3.57719e-05
3.61726e-05
3.61792e-05
3.57933e-05
3.49935e-05
3.3953e-05
3.68683e-05
3.46083e-05
3.44233e-05
3.5792e-05
3.6664e-05
3.70725e-05
3.70804e-05
3.66644e-05
3.57725e-05
3.43947e-05
3.45977e-05
3.41098e-05
3.47377e-05
3.61786e-05
3.70801e-05
3.75375e-05
3.75373e-05
3.70703e-05
3.61707e-05
3.47299e-05
3.41066e-05
3.41074e-05
3.47318e-05
3.61729e-05
3.70729e-05
3.75383e-05
3.7538e-05
3.70705e-05
3.61707e-05
3.47299e-05
3.41067e-05
3.45978e-05
3.43952e-05
3.57731e-05
3.66656e-05
3.70836e-05
3.70835e-05
3.66651e-05
3.57727e-05
3.43948e-05
3.45983e-05
3.68681e-05
3.39533e-05
3.49938e-05
3.57941e-05
3.61821e-05
3.6182e-05
3.5794e-05
3.49937e-05
3.39532e-05
3.68693e-05
4.53227e-05
3.4941e-05
3.40414e-05
3.44251e-05
3.47404e-05
3.47404e-05
3.4425e-05
3.40412e-05
3.4941e-05
4.53236e-05
6.66098e-05
4.53582e-05
3.68974e-05
3.46096e-05
3.4111e-05
3.41108e-05
3.46089e-05
3.68966e-05
4.53589e-05
6.66113e-05
7.40472e-05
5.06179e-05
3.92429e-05
3.57501e-05
3.4846e-05
3.48489e-05
3.57625e-05
3.92736e-05
5.06576e-05
7.40596e-05
5.06456e-05
3.62493e-05
3.40829e-05
3.4287e-05
3.45791e-05
3.45858e-05
3.43177e-05
3.41728e-05
3.62528e-05
5.06218e-05
3.92679e-05
3.41704e-05
3.48323e-05
3.56026e-05
3.60128e-05
3.60195e-05
3.56242e-05
3.48341e-05
3.40844e-05
3.92434e-05
3.57602e-05
3.43164e-05
3.56229e-05
3.65211e-05
3.69452e-05
3.69531e-05
3.65215e-05
3.56032e-05
3.42874e-05
3.57497e-05
3.48481e-05
3.45854e-05
3.6019e-05
3.69528e-05
3.74267e-05
3.74265e-05
3.69429e-05
3.60107e-05