/*--------------------------------*- C++ -*----------------------------------*\
| =========                 |                                                 |
| \\      /  F ield         | OpenFOAM: The Open Source CFD Toolbox           |
|  \\    /   O peration     | Version:  2406                                  |
|   \\  /    A nd           | Website:  www.openfoam.com                      |
|    \\/     M anipulation  |                                                 |
\*---------------------------------------------------------------------------*/
FoamFile
{
    version     2.0;
    format      ascii;
    arch        "LSB;label=32;scalar=64";
    class       volScalarField;
    location    "500";
    object      p;
}
// * * * * * * * * * * * * * * * * * * * * * * * * * * * * * * * * * * * * * //

dimensions      [0 2 -2 0 0 0 0];

internalField   nonuniform List<scalar> 
25000
(
0.000211614
-0.000471323
-0.00108763
-0.00151641
-0.00173086
-0.0017222
-0.00148765
-0.00102586
-0.000337645
0.000570808
-0.000498686
-0.0014851
-0.00221763
-0.00270922
-0.002952
-0.00294245
-0.00267692
-0.00215276
-0.00137097
-0.000335016
-0.00111925
-0.00223158
-0.00304729
-0.0035874
-0.00385305
-0.00384415
-0.00355886
-0.00299419
-0.00214939
-0.00102004
-0.00154414
-0.00272757
-0.00359555
-0.00416619
-0.00444673
-0.00443935
-0.00414297
-0.00355428
-0.00266906
-0.00147775
-0.00175472
-0.00297107
-0.00386443
-0.0044516
-0.00474037
-0.00473439
-0.00443324
-0.00383322
-0.00292806
-0.00170664
-0.00174174
-0.0029595
-0.00385667
-0.00444658
-0.00473748
-0.00473271
-0.00443225
-0.00383257
-0.00292763
-0.00170631
-0.00150398
-0.0026922
-0.00357074
-0.00415127
-0.00443803
-0.00443436
-0.00413998
-0.00355237
-0.00266769
-0.00147674
-0.00103932
-0.00216575
-0.0030051
-0.00356237
-0.0038387
-0.00383579
-0.00355371
-0.00299083
-0.00214704
-0.00101829
-0.000349057
-0.00138167
-0.00215851
-0.00267598
-0.00293312
-0.0029309
-0.00266963
-0.0021478
-0.00136742
-0.000332412
0.000561584
-0.000343072
-0.00102664
-0.00148283
-0.00171035
-0.00170891
-0.00147842
-0.00101925
-0.000332827
0.000574399
-0.0170057
-0.0169269
-0.0168732
-0.0168049
-0.0167668
-0.0167672
-0.0168082
-0.0168903
-0.0170077
-0.0171479
-0.0169178
-0.0167684
-0.0167204
-0.0166871
-0.0166695
-0.0166711
-0.0166943
-0.0167437
-0.0168261
-0.0170058
-0.0168621
-0.0167148
-0.0166615
-0.0166391
-0.0166303
-0.0166317
-0.0166452
-0.016677
-0.0167418
-0.0168865
-0.016797
-0.0166811
-0.0166369
-0.0166231
-0.0166201
-0.0166209
-0.016626
-0.0166435
-0.0166907
-0.0168026
-0.0167625
-0.0166653
-0.0166278
-0.0166193
-0.0166193
-0.0166194
-0.0166198
-0.0166292
-0.0166664
-0.0167602
-0.0167652
-0.0166685
-0.0166301
-0.01662
-0.0166192
-0.0166189
-0.0166192
-0.0166287
-0.016666
-0.0167598
-0.0168082
-0.0166935
-0.0166443
-0.0166258
-0.0166198
-0.0166193
-0.0166242
-0.0166419
-0.0166893
-0.0168015
-0.0168914
-0.016744
-0.0166772
-0.0166437
-0.0166296
-0.016629
-0.0166421
-0.0166743
-0.0167396
-0.0168848
-0.0170098
-0.0168273
-0.0167428
-0.0166915
-0.0166673
-0.0166667
-0.0166899
-0.0167398
-0.016823
-0.0170034
-0.0171504
-0.0170077
-0.0168881
-0.016804
-0.0167614
-0.0167609
-0.0168024
-0.0168854
-0.0170037
-0.0171448
-0.036089
-0.0358375
-0.0356275
-0.0354774
-0.0354029
-0.0354076
-0.0354924
-0.0356511
-0.0358874
-0.0361757
-0.0358241
-0.0355085
-0.0352644
-0.0350914
-0.035007
-0.0350119
-0.0351067
-0.0352908
-0.0355512
-0.0358882
-0.0356094
-0.0352559
-0.0349898
-0.034799
-0.0347035
-0.034708
-0.0348126
-0.0350134
-0.0352923
-0.0356534
-0.0354592
-0.0350793
-0.0347936
-0.0345944
-0.0344941
-0.0344982
-0.0346067
-0.0348149
-0.0351105
-0.0354968
-0.0353853
-0.0349931
-0.0346949
-0.0344903
-0.0343874
-0.0343911
-0.0345013
-0.0347136
-0.035019
-0.0354151
-0.0353916
-0.0349981
-0.0346978
-0.0344919
-0.0343883
-0.0343915
-0.0345016
-0.0347136
-0.035019
-0.0354151
-0.0354782
-0.0350936
-0.0348022
-0.0345993
-0.0344969
-0.0344997
-0.0346074
-0.0348152
-0.0351106
-0.0354968
-0.0356388
-0.0352791
-0.0350036
-0.0348075
-0.0347086
-0.0347108
-0.0348141
-0.0350142
-0.0352926
-0.0356535
-0.0358769
-0.0355413
-0.035284
-0.0351041
-0.0350145
-0.0350162
-0.0351091
-0.0352921
-0.0355519
-0.0358886
-0.0361668
-0.0358805
-0.0356471
-0.0354921
-0.0354118
-0.035413
-0.0354957
-0.035653
-0.0358885
-0.0361762
-0.0474969
-0.0473625
-0.047253
-0.0471856
-0.0471509
-0.0471527
-0.0471929
-0.0472653
-0.0473869
-0.0475381
-0.0473565
-0.0472033
-0.0470695
-0.0469805
-0.0469382
-0.0469403
-0.0469878
-0.047083
-0.047225
-0.0473878
-0.0472452
-0.0470655
-0.0469253
-0.0468256
-0.0467778
-0.04678
-0.0468325
-0.0469372
-0.0470842
-0.0472675
-0.0471778
-0.0469748
-0.0468229
-0.0467178
-0.0466668
-0.0466689
-0.0467243
-0.0468339
-0.0469904
-0.0471967
-0.0471434
-0.0469317
-0.0467736
-0.0466649
-0.0466113
-0.0466132
-0.0466705
-0.0467829
-0.0469445
-0.0471583
-0.0471458
-0.0469339
-0.0467751
-0.0466658
-0.0466118
-0.0466135
-0.0466707
-0.0467831
-0.0469447
-0.0471584
-0.0471865
-0.0469817
-0.0468275
-0.0467206
-0.0466683
-0.0466697
-0.0467248
-0.0468343
-0.0469909
-0.0471972
-0.0472592
-0.0470772
-0.0469323
-0.0468301
-0.0467803
-0.0467815
-0.0468336
-0.046938
-0.047085
-0.0472683
-0.0473812
-0.0472199
-0.0470799
-0.046987
-0.046942
-0.0469429
-0.0469898
-0.0470845
-0.0472263
-0.0473889
-0.0475331
-0.0473834
-0.0472639
-0.0471938
-0.047156
-0.0471568
-0.0471961
-0.0472677
-0.0473887
-0.0475396
-0.0535946
-0.0535222
-0.0534613
-0.0534276
-0.0534083
-0.0534086
-0.0534295
-0.0534645
-0.053532
-0.0536154
-0.0535179
-0.0534231
-0.053334
-0.0532803
-0.0532538
-0.0532543
-0.0532827
-0.0533386
-0.0534319
-0.0535329
-0.0534566
-0.0533315
-0.053234
-0.0531712
-0.0531422
-0.053143
-0.0531742
-0.0532391
-0.0533398
-0.0534667
-0.0534239
-0.0532773
-0.0531698
-0.0531005
-0.0530687
-0.0530696
-0.0531037
-0.0531753
-0.0532851
-0.0534333
-0.0534052
-0.053251
-0.0531404
-0.0530679
-0.0530339
-0.0530347
-0.0530706
-0.0531452
-0.0532579
-0.0534137
-0.0534059
-0.053252
-0.0531412
-0.0530685
-0.0530342
-0.053035
-0.0530709
-0.0531454
-0.0532582
-0.053414
-0.0534268
-0.0532803
-0.0531724
-0.0531024
-0.0530699
-0.0530705
-0.0531045
-0.0531761
-0.0532859
-0.0534341
-0.0534615
-0.0533363
-0.0532374
-0.0531741
-0.0531442
-0.0531448
-0.0531758
-0.0532406
-0.0533412
-0.0534681
-0.0535288
-0.0534296
-0.0533382
-0.0532839
-0.0532571
-0.0532575
-0.0532854
-0.0533409
-0.053434
-0.0535348
-0.0536125
-0.053531
-0.0534654
-0.0534323
-0.0534129
-0.0534133
-0.0534335
-0.0534676
-0.0535346
-0.0536177
-0.0577913
-0.0577814
-0.0577641
-0.057757
-0.0577511
-0.0577505
-0.0577548
-0.0577582
-0.0577755
-0.0577919
-0.0577792
-0.0577509
-0.0577128
-0.0576923
-0.0576803
-0.0576797
-0.0576905
-0.0577088
-0.057746
-0.0577775
-0.0577633
-0.0577121
-0.0576667
-0.0576392
-0.0576256
-0.0576251
-0.0576382
-0.0576649
-0.0577106
-0.0577621
-0.0577579
-0.0576924
-0.0576392
-0.057605
-0.0575887
-0.0575885
-0.0576048
-0.0576395
-0.0576937
-0.0577602
-0.0577525
-0.0576809
-0.0576259
-0.0575889
-0.0575712
-0.0575711
-0.0575891
-0.0576271
-0.0576838
-0.0577571
-0.0577515
-0.0576804
-0.0576255
-0.0575887
-0.0575712
-0.0575713
-0.0575894
-0.0576273
-0.0576841
-0.0577574
-0.0577552
-0.0576907
-0.0576383
-0.0576048
-0.0575889
-0.0575891
-0.0576057
-0.0576404
-0.0576946
-0.0577611
-0.0577577
-0.0577084
-0.0576645
-0.057639
-0.0576264
-0.0576266
-0.0576399
-0.0576665
-0.0577122
-0.0577636
-0.057774
-0.0577448
-0.0577095
-0.0576925
-0.0576825
-0.0576827
-0.0576934
-0.0577114
-0.0577484
-0.0577796
-0.0577897
-0.0577757
-0.0577602
-0.0577583
-0.057755
-0.0577552
-0.0577591
-0.057762
-0.0577787
-0.0577946
-0.0619588
-0.0619792
-0.0619841
-0.061991
-0.0619936
-0.0619937
-0.0619902
-0.0619789
-0.0619707
-0.061953
-0.0619805
-0.0619964
-0.0619978
-0.0620028
-0.0620036
-0.0620033
-0.0620015
-0.0619935
-0.0619892
-0.0619737
-0.0619886
-0.0619996
-0.0620023
-0.0620073
-0.0620088
-0.0620081
-0.0620056
-0.0619992
-0.061996
-0.0619843
-0.0619971
-0.0620064
-0.0620088
-0.0620117
-0.0620125
-0.0620119
-0.0620103
-0.0620073
-0.0620057
-0.0619974
-0.0619994
-0.0620074
-0.062011
-0.0620134
-0.0620145
-0.0620142
-0.0620127
-0.0620106
-0.0620086
-0.0620024
-0.0619981
-0.0620064
-0.0620101
-0.0620128
-0.0620144
-0.0620143
-0.0620129
-0.0620109
-0.0620089
-0.0620026
-0.0619929
-0.0620033
-0.0620066
-0.0620105
-0.0620124
-0.0620125
-0.062011
-0.0620081
-0.0620065
-0.0619982
-0.0619799
-0.0619938
-0.0619989
-0.0620063
-0.0620093
-0.0620095
-0.0620072
-0.0620008
-0.0619974
-0.0619856
-0.06197
-0.0619879
-0.061994
-0.0620033
-0.0620059
-0.0620063
-0.0620043
-0.0619962
-0.0619916
-0.0619757
-0.0619505
-0.0619707
-0.0619807
-0.0619933
-0.0619981
-0.0619985
-0.0619946
-0.0619829
-0.0619742
-0.0619559
-0.0667092
-0.0667245
-0.0667283
-0.0667349
-0.0667389
-0.0667404
-0.0667384
-0.06673
-0.0667229
-0.0667075
-0.0667268
-0.0667442
-0.066753
-0.0667627
-0.0667668
-0.0667677
-0.0667651
-0.0667548
-0.0667439
-0.066725
-0.0667341
-0.0667558
-0.0667692
-0.0667812
-0.0667862
-0.0667864
-0.0667818
-0.0667698
-0.0667567
-0.0667338
-0.0667418
-0.0667672
-0.0667831
-0.0667951
-0.0668002
-0.0668001
-0.0667951
-0.0667833
-0.0667685
-0.0667435
-0.0667449
-0.066771
-0.0667886
-0.0668011
-0.0668071
-0.0668071
-0.0668012
-0.0667891
-0.0667725
-0.0667471
-0.0667449
-0.066771
-0.0667882
-0.066801
-0.0668072
-0.0668073
-0.0668016
-0.0667894
-0.0667727
-0.0667473
-0.0667415
-0.066767
-0.0667827
-0.0667951
-0.0668009
-0.0668012
-0.0667961
-0.0667842
-0.0667692
-0.0667441
-0.0667318
-0.0667555
-0.0667695
-0.0667825
-0.066788
-0.0667883
-0.0667836
-0.0667713
-0.0667579
-0.0667347
-0.0667235
-0.0667436
-0.0667555
-0.0667668
-0.0667707
-0.0667711
-0.0667679
-0.0667572
-0.0667458
-0.0667265
-0.0667071
-0.066724
-0.066732
-0.0667413
-0.0667448
-0.0667452
-0.0667423
-0.0667334
-0.0667257
-0.0667097
-0.0719562
-0.0719597
-0.0719601
-0.0719652
-0.0719696
-0.0719725
-0.0719735
-0.0719706
-0.0719694
-0.0719642
-0.0719634
-0.0719706
-0.0719764
-0.071984
-0.071988
-0.0719901
-0.0719902
-0.0719853
-0.07198
-0.0719709
-0.0719664
-0.0719794
-0.0719882
-0.0719966
-0.072
-0.0720011
-0.0719998
-0.0719932
-0.0719865
-0.071973
-0.0719717
-0.071988
-0.0719981
-0.072006
-0.072009
-0.0720095
-0.0720076
-0.0720008
-0.0719923
-0.0719765
-0.0719746
-0.0719911
-0.0720016
-0.0720093
-0.0720128
-0.0720132
-0.0720105
-0.0720032
-0.0719935
-0.0719769
-0.0719762
-0.071992
-0.0720017
-0.0720094
-0.0720129
-0.0720133
-0.0720105
-0.0720032
-0.0719934
-0.0719767
-0.0719762
-0.071991
-0.0719993
-0.0720065
-0.0720094
-0.0720098
-0.0720076
-0.0720006
-0.0719919
-0.071976
-0.0719725
-0.0719852
-0.0719918
-0.0719988
-0.0720013
-0.0720017
-0.0719999
-0.071993
-0.0719859
-0.0719721
-0.0719705
-0.0719791
-0.0719843
-0.0719896
-0.071991
-0.0719914
-0.0719905
-0.0719852
-0.0719795
-0.07197
-0.0719641
-0.0719692
-0.0719703
-0.0719736
-0.0719741
-0.0719744
-0.0719742
-0.0719709
-0.0719693
-0.0719636
-0.0774435
-0.0774425
-0.0774434
-0.0774491
-0.0774541
-0.0774576
-0.07746
-0.0774599
-0.0774615
-0.0774619
-0.0774434
-0.0774468
-0.0774521
-0.077459
-0.0774633
-0.0774661
-0.0774677
-0.0774663
-0.077465
-0.0774619
-0.0774445
-0.0774528
-0.0774592
-0.0774655
-0.0774684
-0.0774703
-0.0774712
-0.0774686
-0.0774666
-0.0774603
-0.077449
-0.0774591
-0.0774654
-0.0774705
-0.0774726
-0.0774741
-0.0774745
-0.0774716
-0.0774683
-0.0774605
-0.0774523
-0.0774618
-0.0774673
-0.077472
-0.0774741
-0.0774753
-0.0774751
-0.0774719
-0.0774678
-0.0774593
-0.077455
-0.0774635
-0.0774681
-0.0774724
-0.0774743
-0.0774752
-0.077475
-0.0774717
-0.0774677
-0.0774591
-0.0774572
-0.0774646
-0.0774682
-0.077472
-0.0774734
-0.0774741
-0.0774741
-0.0774711
-0.0774678
-0.0774599
-0.0774572
-0.0774633
-0.0774654
-0.0774687
-0.0774697
-0.0774704
-0.0774706
-0.0774678
-0.0774658
-0.0774594
-0.0774591
-0.0774622
-0.0774636
-0.0774656
-0.0774659
-0.0774665
-0.0774672
-0.0774656
-0.0774641
-0.0774608
-0.0774596
-0.0774596
-0.0774581
-0.0774587
-0.0774581
-0.0774585
-0.0774598
-0.0774594
-0.0774608
-0.0774609
-0.0830237
-0.0830209
-0.0830224
-0.0830278
-0.0830321
-0.083035
-0.0830375
-0.083039
-0.0830421
-0.0830458
-0.0830208
-0.0830219
-0.0830259
-0.0830311
-0.0830344
-0.0830368
-0.0830388
-0.0830395
-0.0830412
-0.0830423
-0.0830214
-0.0830254
-0.0830288
-0.0830325
-0.0830343
-0.0830362
-0.083038
-0.0830379
-0.0830394
-0.0830388
-0.0830252
-0.0830295
-0.0830316
-0.083034
-0.0830351
-0.0830367
-0.0830383
-0.083038
-0.0830384
-0.0830371
-0.0830283
-0.0830313
-0.0830323
-0.083034
-0.083035
-0.0830362
-0.0830374
-0.0830369
-0.0830372
-0.0830353
-0.0830311
-0.0830332
-0.0830333
-0.0830347
-0.0830352
-0.0830362
-0.0830372
-0.0830368
-0.083037
-0.0830352
-0.0830341
-0.0830353
-0.0830349
-0.0830358
-0.0830359
-0.0830366
-0.0830377
-0.0830374
-0.083038
-0.0830367
-0.0830362
-0.0830366
-0.083035
-0.0830355
-0.0830353
-0.0830358
-0.0830371
-0.083037
-0.0830386
-0.0830381
-0.0830398
-0.0830386
-0.0830369
-0.0830365
-0.0830359
-0.0830363
-0.0830377
-0.0830385
-0.0830401
-0.0830412
-0.0830435
-0.0830403
-0.0830371
-0.0830358
-0.0830346
-0.0830349
-0.0830367
-0.0830381
-0.0830412
-0.0830447
-0.0886152
-0.0886124
-0.0886135
-0.0886169
-0.0886191
-0.0886202
-0.0886219
-0.088624
-0.0886275
-0.088632
-0.0886115
-0.0886112
-0.0886128
-0.0886151
-0.0886163
-0.0886173
-0.088619
-0.0886207
-0.0886237
-0.0886269
-0.0886118
-0.088612
-0.0886117
-0.0886123
-0.0886124
-0.0886136
-0.0886155
-0.0886167
-0.08862
-0.0886227
-0.0886146
-0.0886136
-0.0886116
-0.088611
-0.0886108
-0.088612
-0.088614
-0.0886151
-0.0886178
-0.0886203
-0.088617
-0.0886145
-0.0886113
-0.0886103
-0.0886099
-0.0886108
-0.0886125
-0.0886136
-0.0886164
-0.0886187
-0.0886194
-0.0886162
-0.0886126
-0.0886115
-0.0886106
-0.0886111
-0.0886127
-0.0886138
-0.0886166
-0.0886189
-0.0886225
-0.088619
-0.0886154
-0.0886139
-0.0886127
-0.088613
-0.0886144
-0.0886155
-0.0886184
-0.0886209
-0.0886257
-0.088622
-0.0886178
-0.0886161
-0.0886147
-0.0886147
-0.0886161
-0.0886173
-0.0886206
-0.0886234
-0.0886302
-0.0886262
-0.0886224
-0.0886202
-0.0886187
-0.0886185
-0.0886198
-0.0886213
-0.0886243
-0.0886274
-0.0886355
-0.0886306
-0.0886264
-0.088624
-0.0886221
-0.0886217
-0.088623
-0.0886247
-0.0886281
-0.0886324
-0.0941838
-0.0941805
-0.0941798
-0.0941798
-0.0941789
-0.0941777
-0.0941783
-0.0941803
-0.0941838
-0.0941885
-0.0941811
-0.0941786
-0.0941768
-0.0941753
-0.0941735
-0.0941726
-0.0941734
-0.0941753
-0.0941789
-0.0941832
-0.0941807
-0.0941771
-0.0941728
-0.0941699
-0.0941678
-0.0941676
-0.0941689
-0.0941705
-0.0941746
-0.0941792
-0.0941815
-0.0941762
-0.0941703
-0.0941669
-0.0941651
-0.0941652
-0.0941666
-0.0941683
-0.0941722
-0.094177
-0.0941822
-0.0941755
-0.0941691
-0.0941657
-0.0941638
-0.0941638
-0.0941652
-0.0941669
-0.0941711
-0.0941759
-0.0941832
-0.0941764
-0.0941702
-0.094167
-0.0941648
-0.0941644
-0.0941657
-0.0941674
-0.0941716
-0.0941765
-0.0941854
-0.0941789
-0.0941732
-0.0941699
-0.0941675
-0.0941669
-0.094168
-0.0941697
-0.0941737
-0.0941785
-0.0941884
-0.0941822
-0.0941763
-0.0941731
-0.0941707
-0.09417
-0.094171
-0.0941725
-0.0941767
-0.0941813
-0.0941926
-0.0941868
-0.0941817
-0.0941784
-0.0941761
-0.0941752
-0.094176
-0.0941777
-0.0941812
-0.0941855
-0.0941976
-0.0941917
-0.094187
-0.0941838
-0.0941815
-0.0941806
-0.0941812
-0.0941829
-0.0941861
-0.0941908
-0.0996962
-0.0996936
-0.0996914
-0.0996888
-0.0996854
-0.0996828
-0.0996827
-0.0996848
-0.0996881
-0.0996923
-0.0996933
-0.0996904
-0.0996866
-0.0996826
-0.099679
-0.099677
-0.0996775
-0.0996795
-0.0996832
-0.0996875
-0.0996917
-0.0996868
-0.0996806
-0.099676
-0.0996729
-0.0996721
-0.0996731
-0.0996749
-0.0996793
-0.0996841
-0.0996906
-0.099684
-0.0996769
-0.0996726
-0.0996702
-0.0996699
-0.0996711
-0.099673
-0.0996773
-0.0996825
-0.0996897
-0.0996823
-0.0996754
-0.0996715
-0.0996693
-0.0996689
-0.0996701
-0.0996721
-0.0996767
-0.0996821
-0.0996896
-0.0996828
-0.0996766
-0.099673
-0.0996706
-0.09967
-0.0996711
-0.0996731
-0.0996776
-0.099683
-0.0996912
-0.099685
-0.0996796
-0.0996762
-0.0996737
-0.0996729
-0.0996739
-0.0996757
-0.0996799
-0.099685
-0.0996941
-0.0996884
-0.0996831
-0.09968
-0.0996775
-0.0996766
-0.0996774
-0.099679
-0.0996831
-0.099688
-0.0996982
-0.0996931
-0.0996887
-0.0996857
-0.0996834
-0.0996824
-0.0996829
-0.0996845
-0.0996878
-0.0996921
-0.0997033
-0.0996984
-0.0996945
-0.0996917
-0.0996896
-0.0996886
-0.0996888
-0.0996903
-0.0996931
-0.0996972
-0.105157
-0.105153
-0.10515
-0.105145
-0.105141
-0.105138
-0.105138
-0.10514
-0.105143
-0.105147
-0.105154
-0.10515
-0.105144
-0.105139
-0.105134
-0.105132
-0.105132
-0.105135
-0.105138
-0.105143
-0.105152
-0.105145
-0.105138
-0.105132
-0.105128
-0.105127
-0.105128
-0.10513
-0.105135
-0.10514
-0.105149
-0.105141
-0.105134
-0.105129
-0.105126
-0.105125
-0.105126
-0.105129
-0.105133
-0.105139
-0.105147
-0.105139
-0.105132
-0.105128
-0.105125
-0.105125
-0.105126
-0.105128
-0.105133
-0.105139
-0.105146
-0.105139
-0.105133
-0.105129
-0.105127
-0.105126
-0.105127
-0.105129
-0.105134
-0.10514
-0.105147
-0.105141
-0.105136
-0.105132
-0.10513
-0.105129
-0.10513
-0.105132
-0.105136
-0.105141
-0.105149
-0.105144
-0.105139
-0.105136
-0.105133
-0.105132
-0.105133
-0.105135
-0.105139
-0.105144
-0.105153
-0.105148
-0.105144
-0.105141
-0.105139
-0.105138
-0.105138
-0.10514
-0.105143
-0.105148
-0.105157
-0.105153
-0.105149
-0.105147
-0.105145
-0.105144
-0.105144
-0.105146
-0.105148
-0.105152
-0.11056
-0.110557
-0.110552
-0.110548
-0.110544
-0.110541
-0.110541
-0.110544
-0.110547
-0.11055
-0.110557
-0.110552
-0.110547
-0.110541
-0.110537
-0.110535
-0.110536
-0.110539
-0.110542
-0.110546
-0.110553
-0.110547
-0.11054
-0.110535
-0.110532
-0.110531
-0.110532
-0.110535
-0.110539
-0.110544
-0.11055
-0.110544
-0.110537
-0.110532
-0.11053
-0.110529
-0.110531
-0.110533
-0.110538
-0.110542
-0.110548
-0.110542
-0.110536
-0.110532
-0.11053
-0.110529
-0.11053
-0.110533
-0.110537
-0.110542
-0.110547
-0.110542
-0.110536
-0.110533
-0.110531
-0.11053
-0.110531
-0.110533
-0.110538
-0.110543
-0.110548
-0.110543
-0.110539
-0.110536
-0.110534
-0.110533
-0.110534
-0.110536
-0.11054
-0.110544
-0.110551
-0.110546
-0.110542
-0.110539
-0.110537
-0.110536
-0.110537
-0.110539
-0.110542
-0.110547
-0.110554
-0.11055
-0.110547
-0.110544
-0.110542
-0.110542
-0.110542
-0.110543
-0.110546
-0.11055
-0.110558
-0.110555
-0.110552
-0.110549
-0.110548
-0.110547
-0.110547
-0.110548
-0.110551
-0.110554
-0.11592
-0.115916
-0.115912
-0.115908
-0.115905
-0.115904
-0.115905
-0.115907
-0.11591
-0.115913
-0.115917
-0.115912
-0.115907
-0.115902
-0.115899
-0.115898
-0.115899
-0.115902
-0.115906
-0.11591
-0.115913
-0.115907
-0.115901
-0.115897
-0.115894
-0.115894
-0.115895
-0.115898
-0.115903
-0.115907
-0.11591
-0.115904
-0.115898
-0.115895
-0.115893
-0.115892
-0.115893
-0.115896
-0.115901
-0.115906
-0.115909
-0.115903
-0.115897
-0.115894
-0.115892
-0.115891
-0.115893
-0.115895
-0.1159
-0.115906
-0.115908
-0.115903
-0.115898
-0.115895
-0.115893
-0.115892
-0.115893
-0.115896
-0.115901
-0.115906
-0.115909
-0.115904
-0.1159
-0.115897
-0.115895
-0.115895
-0.115896
-0.115898
-0.115902
-0.115907
-0.115911
-0.115907
-0.115903
-0.1159
-0.115898
-0.115898
-0.115898
-0.1159
-0.115904
-0.115908
-0.115914
-0.11591
-0.115907
-0.115904
-0.115903
-0.115902
-0.115903
-0.115904
-0.115907
-0.115911
-0.115918
-0.115914
-0.115911
-0.115909
-0.115908
-0.115907
-0.115907
-0.115909
-0.115911
-0.115915
-0.121234
-0.121231
-0.121227
-0.121224
-0.121223
-0.121222
-0.121224
-0.121226
-0.121228
-0.121232
-0.12123
-0.121226
-0.121222
-0.121219
-0.121217
-0.121217
-0.121219
-0.121221
-0.121224
-0.121228
-0.121227
-0.121222
-0.121218
-0.121215
-0.121213
-0.121213
-0.121215
-0.121217
-0.121221
-0.121225
-0.121225
-0.12122
-0.121216
-0.121213
-0.121212
-0.121211
-0.121213
-0.121215
-0.12122
-0.121224
-0.121224
-0.12122
-0.121215
-0.121213
-0.121211
-0.121211
-0.121212
-0.121215
-0.121219
-0.121224
-0.121224
-0.12122
-0.121216
-0.121214
-0.121212
-0.121211
-0.121212
-0.121215
-0.121219
-0.121224
-0.121225
-0.121221
-0.121218
-0.121215
-0.121214
-0.121213
-0.121214
-0.121216
-0.12122
-0.121224
-0.121227
-0.121224
-0.12122
-0.121218
-0.121216
-0.121216
-0.121217
-0.121219
-0.121222
-0.121226
-0.12123
-0.121227
-0.121224
-0.121222
-0.121221
-0.12122
-0.121221
-0.121222
-0.121225
-0.121228
-0.121234
-0.121231
-0.121228
-0.121226
-0.121225
-0.121225
-0.121225
-0.121226
-0.121228
-0.121232
-0.126515
-0.12651
-0.126507
-0.126505
-0.126504
-0.126505
-0.126506
-0.126508
-0.12651
-0.126515
-0.12651
-0.126506
-0.126503
-0.1265
-0.126499
-0.1265
-0.126501
-0.126503
-0.126506
-0.12651
-0.126507
-0.126503
-0.126499
-0.126497
-0.126496
-0.126496
-0.126497
-0.1265
-0.126504
-0.126508
-0.126506
-0.126502
-0.126498
-0.126496
-0.126494
-0.126494
-0.126495
-0.126498
-0.126502
-0.126506
-0.126506
-0.126501
-0.126497
-0.126495
-0.126493
-0.126493
-0.126494
-0.126496
-0.126501
-0.126505
-0.126506
-0.126502
-0.126498
-0.126495
-0.126493
-0.126493
-0.126494
-0.126496
-0.126501
-0.126505
-0.126507
-0.126503
-0.126499
-0.126497
-0.126495
-0.126494
-0.126495
-0.126498
-0.126501
-0.126506
-0.126509
-0.126505
-0.126501
-0.126499
-0.126497
-0.126497
-0.126498
-0.1265
-0.126503
-0.126507
-0.126511
-0.126508
-0.126505
-0.126503
-0.126501
-0.126501
-0.126501
-0.126503
-0.126506
-0.12651
-0.126516
-0.126511
-0.126508
-0.126507
-0.126505
-0.126505
-0.126505
-0.126507
-0.126509
-0.126514
-0.131757
-0.131751
-0.131748
-0.131746
-0.131745
-0.131746
-0.131747
-0.131748
-0.131751
-0.131758
-0.131751
-0.131747
-0.131744
-0.131742
-0.131741
-0.131741
-0.131742
-0.131744
-0.131747
-0.13175
-0.131749
-0.131745
-0.131741
-0.131739
-0.131737
-0.131737
-0.131739
-0.131741
-0.131744
-0.131748
-0.131748
-0.131744
-0.13174
-0.131737
-0.131736
-0.131735
-0.131736
-0.131739
-0.131742
-0.131746
-0.131747
-0.131743
-0.131739
-0.131737
-0.131735
-0.131734
-0.131735
-0.131738
-0.131741
-0.131746
-0.131748
-0.131744
-0.13174
-0.131737
-0.131735
-0.131735
-0.131736
-0.131738
-0.131741
-0.131746
-0.131749
-0.131745
-0.131741
-0.131738
-0.131737
-0.131736
-0.131737
-0.131739
-0.131742
-0.131746
-0.131751
-0.131747
-0.131743
-0.131741
-0.131739
-0.131738
-0.131739
-0.131741
-0.131744
-0.131748
-0.131753
-0.13175
-0.131746
-0.131744
-0.131743
-0.131742
-0.131743
-0.131744
-0.131747
-0.131751
-0.13176
-0.131753
-0.13175
-0.131748
-0.131747
-0.131746
-0.131747
-0.131748
-0.131751
-0.131757
-0.136972
-0.136963
-0.13696
-0.136957
-0.136956
-0.136956
-0.136956
-0.136958
-0.136961
-0.13697
-0.136964
-0.13696
-0.136956
-0.136953
-0.136952
-0.136951
-0.136952
-0.136954
-0.136957
-0.136961
-0.136962
-0.136958
-0.136953
-0.13695
-0.136948
-0.136947
-0.136948
-0.13695
-0.136954
-0.136958
-0.136961
-0.136956
-0.136951
-0.136948
-0.136946
-0.136945
-0.136946
-0.136948
-0.136952
-0.136956
-0.13696
-0.136955
-0.13695
-0.136947
-0.136945
-0.136944
-0.136945
-0.136947
-0.136951
-0.136955
-0.13696
-0.136955
-0.136951
-0.136947
-0.136945
-0.136944
-0.136945
-0.136947
-0.136951
-0.136955
-0.136961
-0.136956
-0.136952
-0.136949
-0.136947
-0.136946
-0.136947
-0.136948
-0.136952
-0.136956
-0.136962
-0.136958
-0.136953
-0.136951
-0.136949
-0.136948
-0.136949
-0.136951
-0.136954
-0.136958
-0.136964
-0.13696
-0.136957
-0.136954
-0.136952
-0.136952
-0.136952
-0.136954
-0.136957
-0.136961
-0.136973
-0.136963
-0.13696
-0.136958
-0.136957
-0.136956
-0.136957
-0.136958
-0.136961
-0.13697
-0.142147
-0.142137
-0.142135
-0.142132
-0.142131
-0.14213
-0.142131
-0.142133
-0.142136
-0.142147
-0.142137
-0.142134
-0.142131
-0.142128
-0.142126
-0.142126
-0.142127
-0.142129
-0.142132
-0.142136
-0.142134
-0.142131
-0.142127
-0.142124
-0.142122
-0.142122
-0.142123
-0.142125
-0.142129
-0.142134
-0.142131
-0.142128
-0.142124
-0.142122
-0.14212
-0.14212
-0.142121
-0.142123
-0.142127
-0.142132
-0.14213
-0.142127
-0.142123
-0.142121
-0.142119
-0.142119
-0.142121
-0.142123
-0.142126
-0.142131
-0.14213
-0.142127
-0.142123
-0.142121
-0.14212
-0.14212
-0.142121
-0.142123
-0.142127
-0.142131
-0.14213
-0.142127
-0.142125
-0.142123
-0.142122
-0.142122
-0.142123
-0.142125
-0.142128
-0.142133
-0.142132
-0.142129
-0.142127
-0.142125
-0.142124
-0.142124
-0.142125
-0.142127
-0.142131
-0.142135
-0.142135
-0.142132
-0.14213
-0.142129
-0.142128
-0.142128
-0.142129
-0.142131
-0.142134
-0.142138
-0.142146
-0.142136
-0.142134
-0.142133
-0.142132
-0.142132
-0.142133
-0.142135
-0.142138
-0.142149
-0.147296
-0.147285
-0.147283
-0.14728
-0.147278
-0.147278
-0.147279
-0.147282
-0.147285
-0.147298
-0.147284
-0.147281
-0.147278
-0.147275
-0.147273
-0.147273
-0.147274
-0.147277
-0.14728
-0.147286
-0.147281
-0.147277
-0.147273
-0.147271
-0.147269
-0.147269
-0.14727
-0.147273
-0.147278
-0.147283
-0.147277
-0.147274
-0.14727
-0.147268
-0.147267
-0.147267
-0.147269
-0.147271
-0.147276
-0.147281
-0.147275
-0.147272
-0.147269
-0.147267
-0.147266
-0.147266
-0.147268
-0.147271
-0.147275
-0.14728
-0.147274
-0.147272
-0.147269
-0.147267
-0.147267
-0.147267
-0.147269
-0.147271
-0.147275
-0.147281
-0.147275
-0.147273
-0.14727
-0.147269
-0.147268
-0.147269
-0.14727
-0.147273
-0.147277
-0.147282
-0.147278
-0.147275
-0.147272
-0.147271
-0.147271
-0.147271
-0.147273
-0.147275
-0.14728
-0.147285
-0.147281
-0.147277
-0.147276
-0.147275
-0.147274
-0.147275
-0.147277
-0.147279
-0.147283
-0.147288
-0.147293
-0.147282
-0.14728
-0.147278
-0.147278
-0.147279
-0.147281
-0.147284
-0.147288
-0.1473
-0.152411
-0.152401
-0.152399
-0.152396
-0.152394
-0.152394
-0.152395
-0.152399
-0.152403
-0.152415
-0.152399
-0.152396
-0.152393
-0.15239
-0.152389
-0.152389
-0.15239
-0.152393
-0.152397
-0.152403
-0.152396
-0.152392
-0.152388
-0.152386
-0.152384
-0.152385
-0.152387
-0.15239
-0.152394
-0.1524
-0.152392
-0.152388
-0.152385
-0.152383
-0.152382
-0.152383
-0.152385
-0.152388
-0.152392
-0.152397
-0.152389
-0.152386
-0.152384
-0.152382
-0.152382
-0.152382
-0.152384
-0.152387
-0.152391
-0.152396
-0.152389
-0.152386
-0.152384
-0.152383
-0.152383
-0.152383
-0.152385
-0.152388
-0.152392
-0.152396
-0.152389
-0.152387
-0.152385
-0.152385
-0.152384
-0.152385
-0.152387
-0.152389
-0.152393
-0.152397
-0.152393
-0.152389
-0.152388
-0.152387
-0.152387
-0.152388
-0.152389
-0.152392
-0.152395
-0.152401
-0.152396
-0.152392
-0.152391
-0.15239
-0.15239
-0.152391
-0.152392
-0.152395
-0.152398
-0.152404
-0.152408
-0.152397
-0.152395
-0.152393
-0.152393
-0.152394
-0.152396
-0.1524
-0.152403
-0.152415
-0.1575
-0.15749
-0.157489
-0.157485
-0.157484
-0.157484
-0.157485
-0.15749
-0.157492
-0.157504
-0.157489
-0.157484
-0.157482
-0.157479
-0.157478
-0.157478
-0.15748
-0.157483
-0.157486
-0.157492
-0.157486
-0.15748
-0.157477
-0.157475
-0.157474
-0.157475
-0.157477
-0.15748
-0.157483
-0.15749
-0.157481
-0.157477
-0.157474
-0.157472
-0.157472
-0.157473
-0.157474
-0.157477
-0.157481
-0.157486
-0.157478
-0.157475
-0.157473
-0.157471
-0.157471
-0.157472
-0.157474
-0.157476
-0.15748
-0.157484
-0.157477
-0.157475
-0.157473
-0.157472
-0.157471
-0.157472
-0.157474
-0.157476
-0.15748
-0.157484
-0.157478
-0.157475
-0.157474
-0.157473
-0.157473
-0.157474
-0.157475
-0.157477
-0.15748
-0.157484
-0.157481
-0.157477
-0.157476
-0.157475
-0.157475
-0.157476
-0.157477
-0.157479
-0.157482
-0.157488
-0.157483
-0.157479
-0.157478
-0.157477
-0.157477
-0.157478
-0.15748
-0.157482
-0.157484
-0.157489
-0.157494
-0.157484
-0.157483
-0.15748
-0.15748
-0.157481
-0.157483
-0.157487
-0.157489
-0.1575
-0.162561
-0.162551
-0.162551
-0.162547
-0.162546
-0.162546
-0.162548
-0.162552
-0.162552
-0.162562
-0.16255
-0.162545
-0.162543
-0.162541
-0.16254
-0.162541
-0.162542
-0.162545
-0.162546
-0.162552
-0.162548
-0.162542
-0.162539
-0.162537
-0.162537
-0.162537
-0.162539
-0.162542
-0.162544
-0.162551
-0.162543
-0.162539
-0.162536
-0.162535
-0.162535
-0.162535
-0.162537
-0.162539
-0.162542
-0.162547
-0.162541
-0.162538
-0.162535
-0.162534
-0.162534
-0.162535
-0.162536
-0.162538
-0.162541
-0.162545
-0.162541
-0.162537
-0.162535
-0.162534
-0.162534
-0.162535
-0.162536
-0.162538
-0.162541
-0.162544
-0.162541
-0.162538
-0.162536
-0.162536
-0.162535
-0.162536
-0.162537
-0.162539
-0.162541
-0.162545
-0.162545
-0.162539
-0.162538
-0.162537
-0.162537
-0.162537
-0.162539
-0.16254
-0.162542
-0.162548
-0.162545
-0.162541
-0.16254
-0.162539
-0.162539
-0.16254
-0.16254
-0.162542
-0.162543
-0.162548
-0.162556
-0.162546
-0.162546
-0.162543
-0.162542
-0.162543
-0.162544
-0.162548
-0.162548
-0.162558
-0.167606
-0.167595
-0.167595
-0.167592
-0.167591
-0.167591
-0.167592
-0.167595
-0.167594
-0.167605
-0.167594
-0.167588
-0.167587
-0.167585
-0.167584
-0.167585
-0.167586
-0.167588
-0.167588
-0.167593
-0.167594
-0.167586
-0.167584
-0.167582
-0.167581
-0.167582
-0.167583
-0.167585
-0.167587
-0.167594
-0.16759
-0.167584
-0.167581
-0.16758
-0.167579
-0.16758
-0.167581
-0.167583
-0.167585
-0.16759
-0.167588
-0.167583
-0.16758
-0.167579
-0.167578
-0.167578
-0.16758
-0.167582
-0.167584
-0.167589
-0.167588
-0.167583
-0.16758
-0.167579
-0.167578
-0.167578
-0.16758
-0.167581
-0.167584
-0.167588
-0.167588
-0.167583
-0.167581
-0.16758
-0.167579
-0.167579
-0.16758
-0.167582
-0.167584
-0.167589
-0.167592
-0.167585
-0.167583
-0.167581
-0.167581
-0.167581
-0.167582
-0.167584
-0.167585
-0.167592
-0.167591
-0.167586
-0.167585
-0.167583
-0.167583
-0.167583
-0.167584
-0.167585
-0.167586
-0.167591
-0.167603
-0.167591
-0.167592
-0.167588
-0.167587
-0.167587
-0.167589
-0.167592
-0.167592
-0.167603
-0.172634
-0.172621
-0.172622
-0.172618
-0.172618
-0.172618
-0.172619
-0.172622
-0.17262
-0.172633
-0.17262
-0.172614
-0.172613
-0.172611
-0.172611
-0.172611
-0.172612
-0.172614
-0.172614
-0.172619
-0.172621
-0.172613
-0.172611
-0.172609
-0.172608
-0.172608
-0.17261
-0.172612
-0.172613
-0.172621
-0.172618
-0.172611
-0.172609
-0.172607
-0.172606
-0.172606
-0.172607
-0.172609
-0.172611
-0.172617
-0.172617
-0.17261
-0.172608
-0.172606
-0.172605
-0.172605
-0.172606
-0.172608
-0.17261
-0.172616
-0.172617
-0.17261
-0.172608
-0.172606
-0.172605
-0.172605
-0.172606
-0.172608
-0.17261
-0.172616
-0.172617
-0.17261
-0.172609
-0.172607
-0.172606
-0.172606
-0.172607
-0.172608
-0.17261
-0.172617
-0.17262
-0.172612
-0.172611
-0.172608
-0.172607
-0.172607
-0.172608
-0.172611
-0.172612
-0.17262
-0.172619
-0.172613
-0.172612
-0.17261
-0.172609
-0.172609
-0.17261
-0.172612
-0.172613