/*--------------------------------*- C++ -*----------------------------------*\
| =========                 |                                                 |
| \\      /  F ield         | OpenFOAM: The Open Source CFD Toolbox           |
|  \\    /   O peration     | Version:  2406                                  |
|   \\  /    A nd           | Website:  www.openfoam.com                      |
|    \\/     M anipulation  |                                                 |
\*---------------------------------------------------------------------------*/
FoamFile
{
    version     2.0;
    format      ascii;
    arch        "LSB;label=32;scalar=64";
    class       surfaceScalarField;
    location    "500";
    object      phi;
}
// * * * * * * * * * * * * * * * * * * * * * * * * * * * * * * * * * * * * * //

dimensions      [0 3 -1 0 0 0 0];

oriented        oriented;

internalField   nonuniform List<scalar> 
73500
(
1.20879e-06
1.24265e-06
4.76179e-05
-2.16016e-06
-2.1866e-06
1.04014e-06
1.29811e-06
5.158e-05
-1.72967e-06
7.19438e-07
1.24339e-06
5.45955e-05
-1.55326e-06
3.61991e-07
1.18488e-06
5.66266e-05
-1.46922e-06
-1.28764e-08
1.1511e-06
5.76491e-05
-1.42666e-06
-3.91953e-07
1.15042e-06
5.76496e-05
-1.42439e-06
-7.71094e-07
1.18243e-06
5.66283e-05
-1.45845e-06
-1.14815e-06
1.2474e-06
5.45996e-05
-1.52597e-06
-1.51223e-06
1.35307e-06
5.15908e-05
-1.64058e-06
1.50904e-06
4.76417e-05
-1.83147e-06
-1.82895e-06
1.26228e-06
1.04293e-06
5.15781e-05
-1.69599e-06
9.53547e-07
9.71688e-07
5.52211e-05
6.45381e-07
9.2585e-07
5.80031e-05
3.2084e-07
8.86018e-07
5.98798e-05
-1.41443e-08
8.64191e-07
6.08251e-05
-3.5503e-07
8.65449e-07
6.08257e-05
-6.96129e-07
8.9281e-07
5.98821e-05
-1.03387e-06
9.47272e-07
5.80081e-05
-1.35612e-06
1.02961e-06
5.52305e-05
1.14399e-06
5.15908e-05
-1.64266e-06
1.21887e-06
7.12893e-07
5.45931e-05
-1.55152e-06
9.06235e-07
6.50946e-07
5.80019e-05
6.03818e-07
6.15607e-07
6.06068e-05
2.97707e-07
5.88834e-07
6.23659e-05
-1.30537e-08
5.75302e-07
6.32524e-05
-3.26907e-07
5.77653e-07
6.32531e-05
-6.41107e-07
5.9733e-07
6.2368e-05
-9.5139e-07
6.35133e-07
6.06109e-05
-1.25007e-06
6.90109e-07
5.80082e-05
7.65482e-07
5.45996e-05
-1.52717e-06
1.17161e-06
3.56396e-07
5.66245e-05
-1.4695e-06
8.71233e-07
3.21936e-07
5.98783e-05
5.76703e-07
3.02722e-07
6.23652e-05
2.83895e-07
2.91442e-07
6.40456e-05
-1.07225e-08
2.86079e-07
6.48926e-05
-3.07004e-07
2.88159e-07
6.48932e-05
-6.0324e-07
2.98754e-07
6.40472e-05
-8.96787e-07
3.18192e-07
6.23682e-05
-1.18449e-06
3.45978e-07
5.98823e-05
3.83896e-07
5.66284e-05
-1.45915e-06
1.14412e-06
-1.86653e-08
5.76474e-05
-1.4309e-06
8.52878e-07
-1.65726e-08
6.08236e-05
5.65406e-07
-1.07968e-08
6.32515e-05
2.78458e-07
-6.69129e-09
6.48923e-05
-8.66174e-09
-3.58526e-09
6.57195e-05
-2.96419e-07
-1.92328e-09
6.57199e-05
-5.83985e-07
-9.92356e-10
6.48935e-05
-8.69691e-07
-5.46537e-10
6.32535e-05
-1.15155e-06
-3.34955e-10
6.08263e-05
-1.85131e-10
5.765e-05
-1.42364e-06
1.14661e-06
-3.95943e-07
5.76483e-05
-1.42638e-06
8.58495e-07
-3.56805e-07
6.08245e-05
5.69467e-07
-3.26983e-07
6.32521e-05
2.81575e-07
-3.04681e-07
6.48926e-05
-7.00008e-09
-2.93306e-07
6.57197e-05
-2.95505e-07
-2.91832e-07
6.57199e-05
-5.8357e-07
-3.0073e-07
6.48935e-05
-8.69516e-07
-3.19301e-07
6.32535e-05
-1.15144e-06
-3.46613e-07
6.08263e-05
-3.84268e-07
5.76499e-05
-1.42358e-06
1.18048e-06
-7.74694e-07
5.66273e-05
-1.46135e-06
8.87492e-07
-6.98478e-07
5.98811e-05
5.9157e-07
-6.4148e-07
6.23672e-05
2.93002e-07
-6.02626e-07
6.40467e-05
-5.47745e-09
-5.82179e-07
6.48932e-05
-3.04413e-07
-5.81311e-07
6.48934e-05
-6.01995e-07
-5.99421e-07
6.40473e-05
-8.96196e-07
-6.3633e-07
6.23682e-05
-1.18419e-06
-6.90842e-07
5.98823e-05
-7.6589e-07
5.66284e-05
-1.45899e-06
1.24631e-06
-1.15059e-06
5.45989e-05
-1.52746e-06
9.43794e-07
-1.03616e-06
5.80074e-05
6.30432e-07
-9.52762e-07
6.06103e-05
3.13741e-07
-8.97351e-07
6.23677e-05
-4.55841e-09
-8.69385e-07
6.32532e-05
-3.22692e-07
-8.68646e-07
6.32534e-05
-6.38959e-07
-8.9469e-07
6.23681e-05
-9.50368e-07
-9.48622e-07
6.06109e-05
-1.24951e-06
-1.0305e-06
5.80082e-05
-1.14454e-06
5.45996e-05
-1.52681e-06
1.3517e-06
-1.51493e-06
5.15903e-05
-1.64229e-06
1.02701e-06
-1.35876e-06
5.523e-05
6.86307e-07
-1.25239e-06
5.80077e-05
3.42537e-07
-1.18593e-06
5.98819e-05
-3.74918e-09
-1.15246e-06
6.0826e-05
-3.49398e-07
-1.15158e-06
6.08261e-05
-6.93374e-07
-1.18385e-06
5.98822e-05
-1.03234e-06
-1.2486e-06
5.80081e-05
-1.35523e-06
-1.35397e-06
5.52305e-05
-1.50974e-06
5.15907e-05
-1.64212e-06
1.50738e-06
4.76414e-05
-1.83386e-06
-1.82886e-06
1.14163e-06
5.15905e-05
-1.64534e-06
7.62653e-07
5.45994e-05
-1.52891e-06
3.81074e-07
5.66282e-05
-1.46085e-06
-2.7508e-09
5.76498e-05
-1.42465e-06
-3.86612e-07
5.76499e-05
-1.42436e-06
-7.67975e-07
5.66284e-05
-1.45912e-06
-1.14623e-06
5.45996e-05
-1.5266e-06
-1.5111e-06
5.15907e-05
-1.64143e-06
4.76416e-05
-1.83051e-06
-1.82984e-06
2.15999e-06
2.16708e-06
4.83238e-05
-2.51496e-06
-2.53616e-06
1.51503e-06
1.86668e-06
5.2332e-05
-1.9808e-06
1.01483e-06
1.75669e-06
5.53855e-05
-2.04907e-06
5.06811e-07
1.71043e-06
5.74441e-05
-2.01972e-06
-1.42219e-08
1.68707e-06
5.84811e-05
-1.99802e-06
-5.3603e-07
1.68874e-06
5.84817e-05
-1.99846e-06
-1.04948e-06
1.71492e-06
5.7446e-05
-2.01871e-06
-1.55256e-06
1.7654e-06
5.53886e-05
-2.05122e-06
-2.15028e-06
1.86039e-06
5.23379e-05
-2.00979e-06
2.14363e-06
4.83347e-05
-2.49583e-06
-2.49058e-06
1.85247e-06
1.51848e-06
5.23306e-05
-1.96721e-06
1.45086e-06
1.46006e-06
5.60239e-05
9.82693e-07
1.38654e-06
5.88402e-05
4.91076e-07
1.34096e-06
6.07399e-05
-1.33901e-08
1.32058e-06
6.16971e-05
-5.18432e-07
1.32176e-06
6.16977e-05
-1.00786e-06
1.34479e-06
6.07419e-05
-1.468e-06
1.39014e-06
5.88438e-05
-1.86658e-06
1.46017e-06
5.60294e-05
1.54468e-06
5.23381e-05
-2.0142e-06
1.74816e-06
1.01631e-06
5.53836e-05
-2.04732e-06
1.37735e-06
9.8898e-07
5.88393e-05
9.42719e-07
9.50503e-07
6.14764e-05
4.73463e-07
9.20233e-07
6.32557e-05
-1.17883e-08
9.06218e-07
6.41525e-05
-4.96626e-07
9.074e-07
6.41531e-05
-9.64542e-07
9.23515e-07
6.32577e-05
-1.39778e-06
9.55006e-07
6.14798e-05
-1.77107e-06
9.98088e-07
5.88441e-05
1.03984e-06
5.53892e-05
-2.05472e-06
1.70337e-06
5.07113e-07
5.74423e-05
-2.01636e-06
1.33351e-06
4.95257e-07
6.07385e-05
9.12697e-07
4.78726e-07
6.32551e-05
4.59249e-07
4.65417e-07
6.49539e-05
-1.0313e-08
4.59071e-07
6.58102e-05
-4.79943e-07
4.60145e-07
6.58108e-05
-9.3296e-07
4.68864e-07
6.49557e-05
-1.35237e-06
4.85214e-07
6.32581e-05
-1.7204e-06
5.06267e-07
6.07427e-05
5.24116e-07
5.74469e-05
-2.02211e-06
1.6824e-06
-1.55598e-08
5.84793e-05
-1.99808e-06
1.31358e-06
-1.21003e-08
6.16956e-05
8.99598e-07
-8.02162e-09
6.41515e-05
4.53077e-07
-6.00739e-09
6.58097e-05
-9.13797e-09
-4.3322e-09
6.66456e-05
-4.71162e-07
-3.21562e-09
6.66462e-05
-9.17024e-07
-2.406e-09
6.58113e-05
-1.32986e-06
-1.82127e-09
6.41541e-05
-1.69419e-06
-1.34462e-09
6.1699e-05
-1.0682e-09
5.84831e-05
-2.00115e-06
1.68526e-06
-5.37535e-07
5.848e-05
-1.99753e-06
1.31704e-06
-5.17825e-07
6.16962e-05
9.01454e-07
-4.95006e-07
6.41519e-05
4.54803e-07
-4.76793e-07
6.581e-05
-7.9192e-09
-4.67779e-07
6.66458e-05
-4.70322e-07
-4.66556e-07
6.66463e-05
-9.16459e-07
-4.7362e-07
6.58114e-05
-1.32944e-06
-4.88779e-07
6.41541e-05
-1.69399e-06
-5.09091e-07
6.16991e-05
-5.26166e-07
5.84831e-05
-2.00099e-06
1.71315e-06
-1.05173e-06
5.74445e-05
-2.02004e-06
1.34076e-06
-1.00862e-06
6.07405e-05
9.19116e-07
-9.63714e-07
6.32565e-05
4.63983e-07
-9.31656e-07
6.49548e-05
-6.62395e-09
-9.14841e-07
6.58108e-05
-4.77339e-07
-9.1397e-07
6.58111e-05
-9.3125e-07
-9.28508e-07
6.49559e-05
-1.35133e-06
-9.5873e-07
6.32583e-05
-1.71963e-06
-1.00086e-06
6.07428e-05
-1.042e-06
5.7447e-05
-2.0217e-06
1.7645e-06
-1.55452e-06
5.53874e-05
-2.05194e-06
1.38766e-06
-1.46945e-06
5.88425e-05
9.51239e-07
-1.39836e-06
6.14786e-05
4.81319e-07
-1.35243e-06
6.32572e-05
-5.60596e-09
-1.32919e-06
6.41534e-05
-4.92317e-07
-1.32847e-06
6.41538e-05
-9.61519e-07
-1.3496e-06
6.32581e-05
-1.39582e-06
-1.39393e-06
6.14801e-05
-1.76981e-06
-1.46311e-06
5.88443e-05
-1.5469e-06
5.53893e-05
-2.05386e-06
1.85985e-06
-2.15274e-06
5.23368e-05
-2.01161e-06
1.45838e-06
-1.86857e-06
5.60283e-05
9.95019e-07
-1.77266e-06
5.88431e-05
5.03245e-07
-1.7213e-06
6.07419e-05
-4.71403e-09
-1.69477e-06
6.16984e-05
-5.11905e-07
-1.69387e-06
6.16987e-05
-1.00365e-06
-1.71918e-06
6.07425e-05
-1.46515e-06
-1.76875e-06
5.88442e-05
-1.86461e-06
-1.86318e-06
5.60297e-05
-2.14605e-06
5.23383e-05
-2.01298e-06
2.14286e-06
4.83338e-05
-2.49853e-06
-2.49082e-06
1.54306e-06
5.23372e-05
-2.01622e-06
1.03761e-06
5.53884e-05
-2.05577e-06
5.21573e-07
5.74463e-05
-2.0232e-06
-3.56274e-09
5.84826e-05
-2.00164e-06
-5.28696e-07
5.84827e-05
-2.00143e-06
-1.04433e-06
5.74468e-05
-2.02155e-06
-1.54885e-06
5.53892e-05
-2.05353e-06
-2.14759e-06
5.23382e-05
-2.01215e-06
4.8335e-05
-2.49359e-06
-2.49297e-06
1.64075e-06
1.63728e-06
4.88761e-05
-1.91535e-06
-1.91665e-06
1.13964e-06
1.41096e-06
5.29213e-05
-1.49985e-06
7.70332e-07
1.36952e-06
5.60044e-05
-1.61906e-06
3.83872e-07
1.33724e-06
5.80826e-05
-1.58869e-06
-3.51944e-09
1.32189e-06
5.91286e-05
-1.58139e-06
-3.91127e-07
1.3226e-06
5.9129e-05
-1.58163e-06
-7.79316e-07
1.33893e-06
5.80838e-05
-1.58794e-06
-1.15518e-06
1.37542e-06
5.6007e-05
-1.61734e-06
-1.63029e-06
1.40776e-06
5.29271e-05
-1.52205e-06
1.62773e-06
4.88871e-05
-1.90652e-06
-1.90373e-06
1.40974e-06
1.13909e-06
5.29203e-05
-1.50157e-06
1.09867e-06
1.09895e-06
5.6647e-05
7.54707e-07
1.06469e-06
5.94896e-05
3.81975e-07
1.04345e-06
6.14069e-05
-3.25537e-09
1.03244e-06
6.23725e-05
-3.88016e-07
1.03281e-06
6.23729e-05
-7.59566e-07
1.04453e-06
6.14085e-05
-1.09898e-06
1.06651e-06
5.94926e-05
-1.41e-06
1.09628e-06
5.66523e-05
1.15253e-06
5.29273e-05
-1.52394e-06
1.37092e-06
7.70716e-07
5.60032e-05
-1.62118e-06
1.06494e-06
7.55908e-07
5.9489e-05
7.2821e-07
7.28525e-07
6.215e-05
3.68898e-07
7.13637e-07
6.39457e-05
-2.82475e-09
7.07059e-07
6.48504e-05
-3.74337e-07
7.07339e-07
6.48508e-05
-7.33398e-07
7.14848e-07
6.39471e-05
-1.06925e-06
7.30158e-07
6.21526e-05
-1.3775e-06
7.56286e-07
5.94929e-05
7.76318e-07
5.60074e-05
-1.61905e-06
1.337e-06
3.83617e-07
5.80816e-05
-1.58816e-06
1.04355e-06
3.82496e-07
6.14062e-05
7.13472e-07
3.69346e-07
6.39454e-05
3.60938e-07
3.61319e-07
6.56598e-05
-2.61021e-09
3.58065e-07
6.65236e-05
-3.66121e-07
3.58436e-07
6.6524e-05
-7.18182e-07
3.62366e-07
6.5661e-05
-1.04733e-06
3.70667e-07
6.39474e-05
-1.34107e-06
3.84287e-07
6.1409e-05
3.87645e-07
5.80845e-05
-1.58949e-06
1.32206e-06
-3.91963e-09
5.91278e-05
-1.58184e-06
1.03228e-06
-2.84734e-09
6.23717e-05
7.06798e-07
-2.53821e-09
6.48499e-05
3.57825e-07
-2.34222e-09
6.65234e-05
-2.25023e-09
-1.98242e-09
6.73668e-05
-3.62215e-07
-1.68755e-09
6.73671e-05
-7.10758e-07
-1.36266e-09
6.65244e-05
-1.03571e-06
-1.09749e-09
6.48515e-05
-1.32472e-06
-8.69144e-10
6.23738e-05
-6.73538e-10
5.913e-05
-1.58282e-06
1.32248e-06
-3.91836e-07
5.91283e-05
-1.58152e-06
1.03282e-06
-3.88215e-07
6.23723e-05
7.07211e-07
-3.74229e-07
6.48503e-05
3.5824e-07
-3.65883e-07
6.65237e-05
-1.88569e-09
-3.62021e-07
6.7367e-05
-3.61893e-07
-3.61652e-07
6.73672e-05
-7.10525e-07
-3.65041e-07
6.65245e-05
-1.03552e-06
-3.72796e-07
6.48516e-05
-1.32461e-06
-3.85981e-07
6.23739e-05
-3.88919e-07
5.913e-05
-1.58276e-06
1.33934e-06
-7.80175e-07
5.80834e-05
-1.58866e-06
1.04461e-06
-7.59895e-07
6.14079e-05
7.14818e-07
-7.33461e-07
6.39467e-05
3.6229e-07
-7.18168e-07
6.56606e-05
-1.51374e-09
-7.10579e-07
6.65242e-05
-3.65231e-07
-7.10361e-07
6.65244e-05
-7.17516e-07
-7.17264e-07
6.56612e-05
-1.04687e-06
-7.32095e-07
6.39476e-05
-1.34073e-06
-7.57832e-07
6.14091e-05
-7.77546e-07
5.80847e-05
-1.58933e-06
1.37596e-06
-1.15613e-06
5.60067e-05
-1.618e-06
1.06689e-06
-1.09966e-06
5.94922e-05
7.30289e-07
-1.06945e-06
6.21522e-05
3.70706e-07
-1.04747e-06
6.39471e-05
-1.16453e-09
-1.03565e-06
6.48513e-05
-3.72989e-07
-1.03548e-06
6.48514e-05
-7.32326e-07
-1.04664e-06
6.39476e-05
-1.06847e-06
-1.06823e-06
6.21529e-05
-1.377e-06
-1.09769e-06
5.94931e-05
-1.15362e-06
5.60076e-05
-1.61869e-06
1.40879e-06
-1.6313e-06
5.29269e-05
-1.52336e-06
1.09688e-06
-1.41065e-06
5.66521e-05
7.56588e-07
-1.37788e-06
5.94926e-05
3.84475e-07
-1.34133e-06
6.14088e-05
-8.53246e-10
-1.32488e-06
6.23736e-05
-3.86014e-07
-1.32465e-06
6.23737e-05
-7.5806e-07
-1.34066e-06
6.1409e-05
-1.09798e-06
-1.37674e-06
5.94931e-05
-1.40934e-06
-1.40893e-06
5.66527e-05
-1.62884e-06
5.29276e-05
-1.52355e-06
1.62853e-06
4.8887e-05
-1.9077e-06
-1.90443e-06
1.15311e-06
5.29272e-05
-1.52475e-06
7.768e-07
5.60073e-05
-1.61951e-06
3.88032e-07
5.80844e-05
-1.59e-06
-3.80862e-10
5.91298e-05
-1.58305e-06
-3.8879e-07
5.91299e-05
-1.58291e-06
-7.77574e-07
5.80845e-05
-1.58919e-06
-1.15388e-06
5.60075e-05
-1.61846e-06
-1.6293e-06
5.29275e-05
-1.52303e-06
4.88874e-05
-1.9054e-06
-1.90506e-06
1.13763e-06
1.13825e-06
4.92766e-05
-1.33707e-06
-1.33595e-06
8.0865e-07
1.02012e-06
5.33529e-05
-1.12e-06
5.53202e-07
1.02394e-06
5.64603e-05
-1.2218e-06
2.75032e-07
1.00148e-06
5.85549e-05
-1.19302e-06
-1.95394e-10
9.96082e-07
5.96091e-05
-1.19899e-06
-2.76064e-07
9.96483e-07
5.96094e-05
-1.19877e-06
-5.55947e-07
1.00158e-06
5.85559e-05
-1.1915e-06
-8.18487e-07
1.02741e-06
5.64625e-05
-1.21791e-06
-1.13142e-06
1.01779e-06
5.33579e-05
-1.13311e-06
1.13414e-06
4.92857e-05
-1.33091e-06
-1.33088e-06
1.01709e-06
8.1089e-07
5.33518e-05
-1.1189e-06
7.88545e-07
7.90453e-07
5.71072e-05
5.47903e-07
7.85185e-07
5.9971e-05
2.78211e-07
7.77325e-07
6.19026e-05
-2.09143e-10
7.73464e-07
6.28751e-05
-2.78323e-07
7.73694e-07
6.28755e-05
-5.48027e-07
7.7746e-07
6.19039e-05
-7.86489e-07
7.86511e-07
5.99737e-05
-1.01508e-06
7.88764e-07
5.71119e-05
8.21111e-07
5.3358e-05
-1.13144e-06
1.02279e-06
5.54635e-07
5.6459e-05
-1.21993e-06
7.84068e-07
5.49772e-07
5.99704e-05
5.34887e-07
5.35742e-07
6.26502e-05
2.70953e-07
5.30131e-07
6.44586e-05
-1.62421e-10
5.27131e-07
6.53694e-05
-2.71275e-07
5.27185e-07
6.53698e-05
-5.35601e-07
5.30672e-07
6.44598e-05
-7.84534e-07
5.37035e-07
6.26525e-05
-1.02489e-06
5.49635e-07
5.99739e-05
5.58125e-07
5.64629e-05
-1.21613e-06
9.9919e-07
2.75043e-07
5.85538e-05
-1.18994e-06
7.76107e-07
2.78795e-07
6.19018e-05
5.29421e-07
2.71476e-07
6.44582e-05
2.68254e-07
2.68629e-07
6.6184e-05
-8.61136e-11
2.67046e-07
6.70534e-05
-2.68386e-07
2.67192e-07
6.70538e-05
-5.2947e-07
2.68949e-07
6.61851e-05
-7.7569e-07
2.71966e-07
6.44601e-05
-9.99158e-07
2.79365e-07
6.19044e-05
2.77518e-07
5.85565e-05
-1.18945e-06
9.94412e-07
-4.48632e-10
5.96082e-05
-1.19733e-06
7.7231e-07
1.61914e-10
6.28744e-05
5.26374e-07
-1.49295e-10
6.53689e-05
2.66809e-07
-2.2618e-11
6.70532e-05
1.25999e-10
1.05678e-10
6.79019e-05
-2.66667e-07
7.17967e-11
6.79022e-05
-5.2619e-07
2.19012e-10
6.70541e-05
-7.71938e-07
3.14504e-10
6.53704e-05
-9.94046e-07
3.51163e-10
6.28763e-05
5.60644e-10
5.96103e-05
-1.1962e-06
9.94725e-07
-2.76549e-07
5.96087e-05
-1.19716e-06
7.72467e-07
-2.78655e-07
6.28748e-05
5.26544e-07
-2.71335e-07
6.53692e-05
2.66881e-07
-2.68512e-07
6.70534e-05
1.39277e-10
-2.66811e-07
6.7902e-05
-2.66556e-07
-2.66723e-07
6.79023e-05
-5.26153e-07
-2.6851e-07
6.70542e-05
-7.71961e-07
-2.71373e-07
6.53704e-05
-9.93954e-07
-2.78441e-07
6.28763e-05
-2.76424e-07
5.96103e-05
-1.19615e-06
1.00018e-06
-5.56274e-07
5.85554e-05
-1.19048e-06
7.76331e-07
-5.48164e-07
6.19033e-05
5.29854e-07
-5.3573e-07
6.44593e-05
2.68674e-07
-5.29569e-07
6.61847e-05
1.87976e-10
-5.26262e-07
6.70539e-05
-2.68301e-07
-5.26433e-07
6.7054e-05
-5.29446e-07
-5.297e-07
6.61852e-05
-7.75623e-07
-5.36028e-07
6.44602e-05
-9.99146e-07
-5.48719e-07
6.19045e-05
-5.56992e-07
5.85566e-05
-1.18923e-06
1.02599e-06
-8.18679e-07
5.6462e-05
-1.21679e-06
7.85379e-07
-7.86634e-07
5.99732e-05
5.36206e-07
-7.84374e-07
6.2652e-05
2.71549e-07
-7.75594e-07
6.44597e-05
1.0197e-10
-7.71926e-07
6.53701e-05
-2.71244e-07
-7.72129e-07
6.53702e-05
-5.35722e-07
-7.7604e-07
6.44601e-05
-7.84705e-07
-7.85294e-07
6.26527e-05
-1.02488e-06
-7.87592e-07
5.9974e-05
-8.20116e-07
5.6463e-05
-1.21584e-06
1.01667e-06
-1.1314e-06
5.33575e-05
-1.13231e-06
7.87641e-07
-1.01478e-06
5.71114e-05
5.48729e-07
-1.02446e-06
5.99735e-05
2.78622e-07
-9.98974e-07
6.1904e-05
-3.80154e-11
-9.94003e-07
6.2876e-05
-2.78629e-07
-9.9432e-07
6.28761e-05
-5.48483e-07
-9.99778e-07
6.19043e-05
-7.86959e-07
-1.02586e-06
5.9974e-05
-1.01553e-06
-1.01665e-06
5.71121e-05
-1.13337e-06
5.33582e-05
-1.13137e-06
1.1328e-06
4.92854e-05
-1.33019e-06
-1.33014e-06
8.19775e-07
5.33577e-05
-1.13088e-06
5.56913e-07
5.64625e-05
-1.21556e-06
2.7654e-07
5.85563e-05
-1.18928e-06
-2.35262e-10
5.961e-05
-1.19626e-06
-2.7688e-07
5.96101e-05
-1.19666e-06
-5.56946e-07
5.85565e-05
-1.19023e-06
-8.19396e-07
5.64629e-05
-1.21741e-06
-1.13197e-06
5.33582e-05
-1.13304e-06
4.92859e-05
-1.33058e-06
-1.33186e-06
7.79779e-07
7.85648e-07
4.95468e-05
-9.15209e-07
-9.16729e-07
5.79627e-07
7.33936e-07
5.36487e-05
-8.26302e-07
4.00838e-07
7.48331e-07
5.67765e-05
-8.82958e-07
1.99639e-07
7.30554e-07
5.88852e-05
-8.56902e-07
8.97421e-10
7.31773e-07
5.99467e-05
-8.67981e-07
-1.98479e-07
7.32027e-07
5.99469e-05
-8.67425e-07
-4.00941e-07
7.29705e-07
5.88861e-05
-8.54631e-07
-5.85791e-07
7.49743e-07
5.67784e-05
-8.78019e-07
-7.74711e-07
7.30877e-07
5.36529e-05
-8.3365e-07
7.81651e-07
4.95543e-05
-9.10429e-07
-9.12308e-07
7.2722e-07
5.85567e-07
5.36477e-05
-8.2045e-07
5.68422e-07
5.73269e-07
5.74287e-05
3.99138e-07
5.78108e-07
6.03126e-05
2.02997e-07
5.73168e-07
6.2258e-05
7.7561e-10
5.73285e-07
6.32375e-05
-2.01141e-07
5.73466e-07
6.32378e-05
-3.97528e-07
5.72716e-07
6.22591e-05
-5.65515e-07
5.78489e-07
6.03149e-05
-7.245e-07
5.71026e-07
5.74328e-05
5.92294e-07
5.3653e-05
-8.2865e-07
7.43604e-07
4.04281e-07
5.67753e-05
-8.7657e-07
5.74538e-07
4.02714e-07
6.0312e-05
3.95406e-07
3.97762e-07
6.30113e-05
2.006e-07
3.95119e-07
6.48331e-05
5.23026e-10
3.93596e-07
6.57508e-05
-1.99519e-07
3.93612e-07
6.57511e-05
-3.94652e-07
3.95234e-07
6.48342e-05
-5.73628e-07
3.98395e-07
6.30133e-05
-7.43782e-07
4.01759e-07
6.0315e-05
4.06363e-07
5.67785e-05
-8.72353e-07
7.25268e-07
2.00353e-07
5.88841e-05
-8.50011e-07
5.69846e-07
2.04238e-07
6.22572e-05
3.93102e-07
2.01777e-07
6.48328e-05
2.0054e-07
2.01512e-07
6.65716e-05
5.15326e-10
2.00699e-07
6.74478e-05
-1.99377e-07
2.00818e-07
6.7448e-05
-3.91819e-07
2.01547e-07
6.65725e-05
-5.68113e-07
2.01901e-07
6.48343e-05
-7.23687e-07
2.04203e-07
6.22593e-05
2.022e-07
5.88863e-05
-8.48306e-07
7.27346e-07
1.80719e-10
5.99457e-05
-8.62822e-07
5.70256e-07
8.13849e-10
6.32367e-05
3.9166e-07
3.76537e-10
6.57502e-05
1.99893e-07
5.62203e-10
6.74475e-05
6.1508e-10
6.22358e-10
6.83028e-05
-1.98754e-07
5.50852e-10
6.8303e-05
-3.9046e-07
7.1907e-10
6.74482e-05
-5.68779e-07
7.83548e-10
6.57514e-05
-7.25856e-07
7.10608e-10
6.32382e-05
8.8426e-10
5.99473e-05
-8.60411e-07
7.27849e-07
-2.00639e-07
5.99461e-05
-8.62774e-07
5.70507e-07
-2.02667e-07
6.32371e-05
3.91896e-07
-2.00394e-07
6.57505e-05
1.9995e-07
-2.00115e-07
6.74477e-05
5.72316e-10
-1.99334e-07
6.83028e-05
-1.98705e-07
-1.99225e-07
6.8303e-05
-3.90496e-07
-2.00067e-07
6.74482e-05
-5.68916e-07
-2.0039e-07
6.57514e-05
-7.2583e-07
-2.02374e-07
6.32382e-05
-2.00452e-07
5.99473e-05
-8.60474e-07
7.26225e-07
-4.03841e-07
5.88854e-05
-8.50927e-07
5.70156e-07
-3.99485e-07
6.22584e-05
3.93451e-07
-3.96161e-07
6.48336e-05
2.00827e-07
-3.92931e-07
6.65721e-05
6.49068e-10
-3.9135e-07
6.7448e-05
-1.99505e-07
-3.9149e-07
6.74481e-05
-3.92041e-07
-3.92928e-07
6.65726e-05
-5.68289e-07
-3.96175e-07
6.48343e-05
-7.24043e-07
-3.99856e-07
6.22593e-05
-4.0433e-07
5.88863e-05
-8.48449e-07
7.46726e-07
-5.89038e-07
5.67778e-05
-8.74956e-07
5.7614e-07
-5.67934e-07
6.03143e-05
3.96798e-07
-5.75141e-07
6.30128e-05
2.01146e-07
-5.69359e-07
6.48339e-05
5.90473e-10
-5.69886e-07
6.57512e-05
-1.99812e-07
-5.69985e-07
6.57513e-05
-3.95189e-07
-5.69599e-07
6.48343e-05
-5.74309e-07
-5.75777e-07
6.30133e-05
-7.44266e-07
-5.68454e-07
6.0315e-05
-5.90237e-07
5.67785e-05
-8.72696e-07
7.28494e-07
-7.77718e-07
5.36525e-05
-8.3171e-07
5.68887e-07
-7.26522e-07
5.74323e-05
4.00182e-07
-7.45257e-07
6.03145e-05
2.03173e-07
-7.25172e-07
6.2259e-05
5.32157e-10
-7.27207e-07
6.3238e-05
-2.02069e-07
-7.27445e-07
6.32381e-05
-3.98731e-07
-7.25694e-07
6.22592e-05
-5.66828e-07
-7.46258e-07
6.03149e-05
-7.25968e-07
-7.28031e-07
5.74328e-05
-7.79335e-07
5.3653e-05
-8.29498e-07
7.79049e-07
4.9554e-05
-9.11041e-07
-9.11676e-07
5.89869e-07
5.36527e-05
-8.30367e-07
4.04456e-07
5.67782e-05
-8.74029e-07
2.01069e-07
5.8886e-05
-8.50175e-07
4.02447e-10
5.99471e-05
-8.62275e-07
-2.00095e-07
5.99471e-05
-8.62535e-07
-4.031e-07
5.88862e-05
-8.50805e-07
-5.88054e-07
5.67785e-05
-8.75366e-07
-7.76698e-07
5.3653e-05
-8.31954e-07
4.95543e-05
-9.10961e-07
-9.12221e-07
6.17885e-07
6.24187e-07
4.97624e-05
-7.27418e-07
-7.27766e-07
4.80053e-07
5.91559e-07
5.38838e-05
-6.86505e-07
3.3179e-07
5.91884e-07
5.7027e-05
-6.92102e-07
1.6582e-07
5.70272e-07
5.91462e-05
-6.63095e-07
4.61128e-10
5.70559e-07
6.02129e-05
-6.69486e-07
-1.65416e-07
5.70852e-07
6.02131e-05
-6.69103e-07
-3.32377e-07
5.69406e-07
5.91469e-05
-6.61208e-07
-4.85682e-07
5.93098e-07
5.70287e-05
-6.87969e-07
-6.15289e-07
5.89504e-07
5.38877e-05
-6.92192e-07
6.20948e-07
4.9769e-05
-7.24437e-07
-7.24896e-07
5.85542e-07
4.86381e-07
5.38829e-05
-6.81306e-07
4.59758e-07
4.64272e-07
5.76833e-05
3.21879e-07
4.61514e-07
6.05825e-05
1.63279e-07
4.49868e-07
6.25383e-05
5.16414e-10
4.48856e-07
6.35232e-05
-1.62004e-07
4.49114e-07
6.35235e-05
-3.2111e-07
4.49603e-07
6.25393e-05
-4.58434e-07
4.62234e-07
6.05845e-05
-5.84342e-07
4.6284e-07
5.7687e-05
4.91126e-07
5.38877e-05
-6.88209e-07
5.87741e-07
3.35464e-07
5.70258e-05
-6.85932e-07
4.58629e-07
3.25136e-07
6.05819e-05
3.17305e-07
3.19091e-07
6.32963e-05
1.6066e-07
3.1234e-07
6.51286e-05
2.56631e-10
3.09695e-07
6.60516e-05
-1.60202e-07
3.09845e-07
6.60519e-05
-3.17288e-07
3.1267e-07
6.51296e-05
-4.58565e-07
3.20047e-07
6.32981e-05
-5.88412e-07
3.24377e-07
6.05845e-05
3.36822e-07
5.70286e-05
-6.83408e-07
5.65697e-07
1.66746e-07
5.9145e-05
-6.56652e-07
4.47344e-07
1.64339e-07
6.25375e-05
3.10989e-07
1.6146e-07
6.51283e-05
1.59014e-07
1.59552e-07
6.68777e-05
3.01682e-10
1.58198e-07
6.77591e-05
-1.58301e-07
1.58446e-07
6.77593e-05
-3.10215e-07
1.59781e-07
6.68784e-05
-4.46202e-07
1.61859e-07
6.51296e-05
-5.64783e-07
1.64355e-07
6.25394e-05
1.68295e-07
5.91468e-05
-6.5611e-07
5.66818e-07
-1.45902e-10
6.02119e-05
-6.64757e-07
4.4657e-07
4.74195e-10
6.35223e-05
3.08395e-07
-3.30046e-11
6.60511e-05
1.57793e-07
1.55299e-10
6.77589e-05
3.7201e-10
2.16241e-10
6.86195e-05
-1.57104e-07
2.29801e-10
6.86197e-05
-3.07666e-07
4.54208e-10
6.77595e-05
-4.45616e-07
5.41602e-10
6.60521e-05
-5.66061e-07
4.75305e-10
6.35236e-05
6.47137e-10
6.02132e-05
-6.63428e-07
5.6738e-07
-1.6758e-07
6.02123e-05
-6.64822e-07
4.46897e-07
-1.63482e-07
6.35227e-05
3.08711e-07
-1.61051e-07
6.60513e-05
1.57941e-07
-1.59001e-07
6.7759e-05
3.83914e-10
-1.57649e-07
6.86196e-05
-1.57057e-07
-1.57486e-07
6.86197e-05
-3.07682e-07
-1.58852e-07
6.77595e-05
-4.4573e-07
-1.60868e-07
6.60521e-05
-5.66043e-07
-1.62988e-07
6.35236e-05
-1.67002e-07
6.02132e-05
-6.63522e-07
5.66551e-07
-3.35425e-07
5.91463e-05
-6.57882e-07
4.47698e-07
-3.2303e-07
6.25387e-05
3.11449e-07
-3.18651e-07
6.51291e-05
1.59403e-07
-3.11169e-07
6.68781e-05
5.09503e-10
-3.08348e-07
6.77593e-05
-1.58361e-07
-3.08438e-07
6.77594e-05
-3.10393e-07
-3.10999e-07
6.68784e-05
-4.46367e-07
-3.18377e-07
6.51296e-05
-5.65182e-07
-3.22922e-07
6.25393e-05
-3.35184e-07
5.91468e-05
-6.56422e-07
5.90602e-07
-4.89216e-07
5.70282e-05
-6.85222e-07
4.60488e-07
-4.60899e-07
6.05841e-05
3.18951e-07
-4.59969e-07
6.32977e-05
1.61476e-07
-4.47261e-07
6.51294e-05
5.1634e-10
-4.46422e-07
6.60519e-05
-1.60334e-07
-4.46439e-07
6.6052e-05
-3.17653e-07
-4.47213e-07
6.51296e-05
-4.59111e-07
-4.60121e-07
6.32981e-05
-5.88888e-07
-4.60691e-07
6.05845e-05
-4.89313e-07
5.70286e-05
-6.83908e-07
5.87671e-07
-6.18508e-07
5.38875e-05
-6.90815e-07
4.61197e-07
-5.86484e-07
5.76867e-05
3.23272e-07
-5.89895e-07
6.05843e-05
1.63725e-07
-5.66132e-07
6.25392e-05
5.56859e-10
-5.67098e-07
6.35235e-05
-1.62619e-07
-5.67183e-07
6.35236e-05
-3.22014e-07
-5.66171e-07
6.25393e-05
-4.59586e-07
-5.90154e-07
6.05845e-05
-5.85734e-07
-5.8703e-07
5.76869e-05
-6.18835e-07
5.38876e-05
-6.89163e-07
6.187e-07
4.97689e-05
-7.24499e-07
-7.25373e-07
4.89055e-07
5.38876e-05
-6.90177e-07
3.35402e-07
5.70286e-05
-6.85335e-07
1.67685e-07
5.91468e-05
-6.58018e-07
6.18861e-10
6.02132e-05
-6.65024e-07
-1.66365e-07
6.02132e-05
-6.65055e-07
-3.34025e-07
5.91468e-05
-6.57867e-07
-4.87724e-07
5.70286e-05
-6.85431e-07
-6.1717e-07
5.38876e-05
-6.90518e-07
4.97689e-05
-7.24668e-07
-7.24983e-07
6.08545e-07
6.10688e-07
4.99751e-05
-7.16091e-07
-7.13484e-07
4.81154e-07
5.76947e-07
5.41144e-05
-6.78135e-07
3.30102e-07
5.6335e-07
5.72714e-05
-6.5497e-07
1.65251e-07
5.39256e-07
5.93999e-05
-6.26158e-07
-1.32619e-09
5.37119e-07
6.04714e-05
-6.27104e-07
-1.68141e-07
5.37657e-07
6.04717e-05
-6.2749e-07
-3.33068e-07
5.39261e-07
5.94008e-05
-6.26306e-07
-4.87344e-07
5.65708e-07
5.72733e-05
-6.5395e-07
-6.07554e-07
5.77013e-07
5.41185e-05
-6.8538e-07
6.08768e-07
4.99814e-05
-7.1397e-07
-7.12842e-07
5.7433e-07
4.84737e-07
5.41138e-05
-6.77434e-07
4.5128e-07
4.53665e-07
5.79311e-05
3.12532e-07
4.42729e-07
6.08435e-05
1.57918e-07
4.25259e-07
6.28083e-05
-7.18867e-10
4.22412e-07
6.37977e-05
-1.59082e-07
4.2281e-07
6.3798e-05
-3.14135e-07
4.25478e-07
6.28094e-05
-4.52609e-07
4.44268e-07
6.08457e-05
-5.75363e-07
4.53582e-07
5.79348e-05
4.88335e-07
5.41185e-05
-6.84469e-07
5.61891e-07
3.32681e-07
5.72705e-05
-6.52749e-07
4.41553e-07
3.14603e-07
6.08431e-05
3.05463e-07
3.06239e-07
6.35702e-05
1.54211e-07
2.95448e-07
6.54111e-05
-6.92745e-10
2.91833e-07
6.63384e-05
-1.55777e-07
2.92104e-07
6.63387e-05
-3.07604e-07
2.96098e-07
6.54121e-05
-4.43643e-07
3.07812e-07
6.35721e-05
-5.64466e-07
3.144e-07
6.08458e-05
3.33568e-07
5.72734e-05
-6.53246e-07
5.3721e-07
1.665e-07
5.9399e-05
-6.23496e-07
4.24219e-07
1.58734e-07
6.28077e-05
2.94954e-07
1.54655e-07
6.54108e-05
1.5031e-07
1.50501e-07
6.71686e-05
-5.01928e-10
1.48652e-07
6.80543e-05
-1.5127e-07
1.49022e-07
6.80546e-05
-2.95978e-07
1.50971e-07
6.71695e-05
-4.25004e-07
1.55421e-07
6.54122e-05
-5.38303e-07
1.59025e-07
6.28096e-05
1.67837e-07
5.94009e-05
-6.25573e-07
5.35558e-07
-6.7155e-10
6.04707e-05
-6.25398e-07
4.21468e-07
-1.64523e-10
6.3797e-05
2.91263e-07
-7.27945e-10
6.6338e-05
1.48522e-07
-5.27967e-10
6.80541e-05
-4.05045e-10
-4.39758e-10
6.89189e-05
-1.49388e-07
-3.51993e-10
6.89191e-05
-2.92192e-07
-1.23677e-10
6.80548e-05
-4.22251e-07
-3.64414e-11
6.6339e-05
-5.36715e-07
-5.74965e-11
6.37984e-05
1.09025e-10
6.0472e-05
-6.26607e-07
5.36026e-07
-1.68317e-07
6.0471e-05
-6.25526e-07
4.21782e-07
-1.59298e-07
6.37974e-05
2.91637e-07
-1.55816e-07
6.63382e-05
1.48751e-07
-1.5138e-07
6.80543e-05
-3.36517e-10
-1.49478e-07
6.8919e-05
-1.49337e-07
-1.49309e-07
6.89191e-05
-2.9218e-07
-1.51257e-07
6.80548e-05
-4.22282e-07
-1.55618e-07
6.6339e-05
-5.36675e-07
-1.58868e-07
6.37984e-05
-1.67633e-07
6.0472e-05
-6.26619e-07
5.37779e-07
-3.33623e-07
5.94002e-05
-6.24683e-07
4.24517e-07
-3.14393e-07
6.28088e-05
2.9546e-07
-3.07704e-07
6.54116e-05
1.50745e-07
-2.96015e-07
6.71691e-05
-2.4517e-10
-2.92096e-07
6.80545e-05
-1.51242e-07
-2.92212e-07
6.80547e-05
-2.96051e-07
-2.95941e-07
6.71695e-05
-4.25093e-07
-3.07585e-07
6.54122e-05
-5.38538e-07
-3.1428e-07
6.28095e-05
-3.33257e-07
5.94009e-05
-6.25713e-07
5.64072e-07
-4.88255e-07
5.72728e-05
-6.52198e-07
4.43274e-07
-4.53108e-07
6.08452e-05
3.07103e-07
-4.43582e-07
6.35716e-05
1.55126e-07
-4.24868e-07
6.54119e-05
-3.03196e-10
-4.22008e-07
6.63388e-05
-1.55695e-07
-4.22135e-07
6.63389e-05
-3.07668e-07
-4.25e-07
6.54121e-05
-4.43849e-07
-4.43942e-07
6.3572e-05
-5.64629e-07
-4.53073e-07
6.08457e-05
-4.88055e-07
5.72733e-05
-6.5338e-07
5.75877e-07
-6.0824e-07
5.4118e-05
-6.84391e-07
4.52476e-07
-5.7554e-07
5.79344e-05
3.13621e-07
-5.64211e-07
6.08453e-05
1.5837e-07
-5.38101e-07
6.28092e-05
-4.46205e-10
-5.36403e-07
6.37981e-05
-1.59225e-07
-5.36592e-07
6.37982e-05
-3.14466e-07
-5.3847e-07
6.28094e-05
-4.53089e-07
-5.64904e-07
6.08457e-05
-5.76083e-07
-5.76509e-07
5.79348e-05
-6.08528e-07
5.41184e-05
-6.84865e-07
6.07471e-07
4.99811e-05
-7.12656e-07
-7.13445e-07
4.87e-07
5.41181e-05
-6.84313e-07
3.32472e-07
5.72731e-05
-6.53032e-07
1.67003e-07
5.94006e-05
-6.25423e-07
-6.0566e-10
6.04718e-05
-6.26335e-07
-1.68165e-07
6.04718e-05
-6.26583e-07
-3.33575e-07
5.94008e-05
-6.25769e-07
-4.88119e-07
5.72733e-05
-6.53804e-07
-6.08099e-07
5.41184e-05
-6.85699e-07
4.99814e-05
-7.13589e-07
-7.14269e-07
6.43577e-07
6.47009e-07
5.0199e-05
-7.57658e-07
-7.57775e-07
5.08573e-07
6.08947e-07
5.43569e-05
-7.16632e-07
3.47952e-07
5.89053e-07
5.75281e-05
-6.85452e-07
1.75286e-07
5.6513e-07
5.96662e-05
-6.5864e-07
-1.11675e-09
5.6106e-07
6.07426e-05
-6.55588e-07
-1.77546e-07
5.61236e-07
6.07429e-05
-6.55532e-07
-3.49886e-07
5.64221e-07
5.96671e-05
-6.5769e-07
-5.13078e-07
5.89562e-07
5.75301e-05
-6.82514e-07
-6.42429e-07
6.07221e-07
5.43609e-05
-7.19503e-07
6.42611e-07
5.0205e-05
-7.54102e-07
-7.54045e-07
6.04943e-07
5.11546e-07
5.43562e-05
-7.12863e-07
4.75701e-07
4.77959e-07
5.8191e-05
3.27542e-07
4.63854e-07
6.11169e-05
1.65775e-07
4.44451e-07
6.30907e-05
-6.76819e-10
4.40627e-07
6.40847e-05
-1.66923e-07
4.40744e-07
6.40851e-05
-3.28932e-07
4.44158e-07
6.30919e-05
-4.76974e-07
4.64703e-07
6.11191e-05
-6.06244e-07
4.77115e-07
5.81947e-05
5.12837e-07
5.43609e-05
-7.18558e-07
5.86424e-07
3.49327e-07
5.75271e-05
-6.81129e-07
4.62508e-07
3.28682e-07
6.11164e-05
3.19932e-07
3.20244e-07
6.38563e-05
1.61814e-07
3.07984e-07
6.57059e-05
-7.45253e-10
3.04339e-07
6.66375e-05
-1.63424e-07
3.04596e-07
6.66379e-05
-3.22054e-07
3.08443e-07
6.57069e-05
-4.64706e-07
3.21604e-07
6.38583e-05
-5.88974e-07
3.28445e-07
6.11192e-05
3.49448e-07
5.75302e-05
-6.82054e-07
5.626e-07
1.75402e-07
5.96652e-05
-6.5503e-07
4.43382e-07
1.65694e-07
6.309e-05
3.07787e-07
1.61504e-07
6.57055e-05
1.56681e-07
1.56316e-07
6.74717e-05
-4.77763e-10
1.54542e-07
6.83616e-05
-1.57671e-07
1.5492e-07
6.83619e-05
-3.08845e-07
1.56884e-07
6.74726e-05