/*--------------------------------*- C++ -*----------------------------------*\
| =========                 |                                                 |
| \\      /  F ield         | OpenFOAM: The Open Source CFD Toolbox           |
|  \\    /   O peration     | Version:  2406                                  |
|   \\  /    A nd           | Website:  www.openfoam.com                      |
|    \\/     M anipulation  |                                                 |
\*---------------------------------------------------------------------------*/
FoamFile
{
    version     2.0;
    format      ascii;
    arch        "LSB;label=32;scalar=64";
    class       volScalarField;
    location    "500";
    object      turbulenceProperties:I;
}
// * * * * * * * * * * * * * * * * * * * * * * * * * * * * * * * * * * * * * //

dimensions      [0 0 0 0 0 0 0];

internalField   nonuniform List<scalar> 
25000
(
0.00549826
0.00509256
0.0045989
0.00460151
0.00459394
0.00459803
0.00462114
0.00466287
0.00487259
0.00498684
0.00510378
0.0047787
0.00456794
0.00446316
0.0044145
0.00441966
0.00447868
0.00459496
0.00480331
0.00487425
0.00461356
0.00457692
0.00441311
0.00431086
0.00426303
0.00426648
0.00432087
0.00442682
0.00459468
0.00466523
0.0046104
0.00446859
0.00431313
0.00420865
0.0041577
0.00416034
0.00421549
0.0043222
0.00448103
0.00462481
0.00459919
0.00441922
0.00426478
0.00415822
0.00410552
0.00410708
0.0041625
0.00427044
0.00442486
0.00460376
0.00460051
0.00442236
0.00426811
0.00416071
0.00410714
0.00410808
0.00416304
0.00427072
0.004425
0.00460378
0.0046224
0.00448117
0.00432203
0.00421611
0.00416277
0.00416327
0.0042171
0.00432304
0.00448144
0.00462488
0.00466284
0.00459603
0.00442832
0.00432313
0.00427092
0.00427106
0.00432332
0.00442811
0.00459533
0.00466533
0.00487153
0.00480501
0.00459693
0.00448175
0.00442531
0.0044253
0.00448168
0.00459643
0.00480408
0.00487425
0.00498885
0.00487621
0.00466614
0.00462532
0.00460392
0.00460383
0.00462476
0.00466509
0.00487428
0.00498773
0.00599659
0.00569956
0.00544322
0.00545075
0.00542728
0.00542699
0.00544889
0.00549016
0.00567778
0.00575866
0.00570987
0.00548979
0.0054141
0.0053745
0.00534479
0.00534594
0.00537719
0.00542739
0.0055355
0.005679
0.005452
0.00542096
0.00532144
0.00528642
0.00526806
0.00526926
0.00529176
0.00533118
0.00542428
0.00549166
0.00545445
0.00537631
0.0052876
0.00524183
0.00521953
0.00522111
0.00524557
0.00529186
0.0053778
0.00545083
0.00543136
0.00534778
0.00526866
0.00521999
0.00519777
0.00519843
0.00522183
0.00527071
0.0053474
0.0054292
0.00543001
0.00534769
0.0052704
0.00522119
0.00519855
0.00519901
0.00522215
0.00527087
0.00534751
0.00542917
0.00545151
0.00537946
0.00529235
0.0052463
0.00522245
0.0052227
0.00524654
0.00529243
0.00537812
0.00545076
0.00549163
0.00542647
0.00533269
0.00529318
0.00527139
0.00527141
0.00529307
0.00533201
0.00542484
0.00549161
0.0056773
0.00553746
0.00542861
0.0053786
0.00534791
0.00534793
0.00537868
0.00542823
0.00553595
0.00567848
0.00576138
0.00568188
0.00549243
0.0054512
0.00542934
0.00542935
0.00545088
0.00549185
0.00567955
0.00575982
0.00556423
0.00524742
0.00512582
0.00508841
0.00505435
0.00505557
0.00508562
0.00515191
0.00526603
0.00543977
0.00525501
0.00506698
0.00504639
0.00501514
0.00498997
0.00499095
0.0050167
0.00505584
0.00509712
0.00526476
0.00512902
0.00505122
0.00497872
0.00494785
0.00492636
0.00492712
0.00495136
0.00498707
0.0050511
0.00515139
0.00508822
0.00501411
0.00494786
0.00491045
0.00488717
0.00488826
0.0049125
0.00495082
0.00501618
0.00508542
0.00505574
0.00499008
0.00492542
0.00488717
0.00486767
0.00486806
0.00488833
0.00492766
0.00499089
0.00505538
0.00505673
0.00499054
0.00492654
0.0048873
0.00486783
0.00486823
0.00488838
0.00492766
0.0049909
0.00505532
0.00508736
0.00501687
0.0049502
0.00491218
0.00488848
0.00488882
0.00491277
0.00495094
0.00501622
0.00508526
0.00515326
0.00505219
0.00498723
0.00495144
0.00492783
0.00492797
0.00495173
0.00498728
0.00505128
0.00515127
0.00526587
0.00509809
0.00505595
0.00501675
0.00499122
0.0049913
0.00501704
0.00505603
0.00509717
0.00526441
0.00544158
0.00526709
0.00515187
0.00508566
0.00505569
0.00505586
0.00508583
0.00515219
0.00526646
0.00544003
0.00475822
0.0044028
0.0043592
0.00429912
0.00426661
0.0042678
0.0042965
0.00437914
0.00443378
0.004691
0.00440963
0.00424345
0.00424348
0.00420461
0.00418202
0.0041825
0.00420546
0.004254
0.00426973
0.00443123
0.00435949
0.00424703
0.00417903
0.00413472
0.00410579
0.00410654
0.00413734
0.00418774
0.0042487
0.0043776
0.00429651
0.00420172
0.00413393
0.00408831
0.00405887
0.00406001
0.00408999
0.00413632
0.00420416
0.00429536
0.00426611
0.0041803
0.00410372
0.00405846
0.00403345
0.00403386
0.00405961
0.0041062
0.00418099
0.00426588
0.00426766
0.00418059
0.00410487
0.00405841
0.00403341
0.00403382
0.00405946
0.00410609
0.00418096
0.0042658
0.00429728
0.00420435
0.00413521
0.00408915
0.00405952
0.00405986
0.00408978
0.0041362
0.00420403
0.00429515
0.00437955
0.00424907
0.00418724
0.00413664
0.00410618
0.00410637
0.00413703
0.0041876
0.00424866
0.00437742
0.00443314
0.00427003
0.00425345
0.00420463
0.00418125
0.00418134
0.00420506
0.00425381
0.00426959
0.00443105
0.00469214
0.00443286
0.00437781
0.00429539
0.00426612
0.0042664
0.00429589
0.00437876
0.00443354
0.00469081
0.0041106
0.00377243
0.00374997
0.00367909
0.00364568
0.00364543
0.00367365
0.00376439
0.00380629
0.00407376
0.00377634
0.00362192
0.0036079
0.00355037
0.0035251
0.00352473
0.00354937
0.00361864
0.00364888
0.00380314
0.00374585
0.00360888
0.003528
0.0034587
0.00342079
0.00342178
0.00346143
0.0035378
0.00361301
0.00376205
0.00367312
0.00354461
0.00345648
0.00338954
0.0033511
0.00335263
0.0033922
0.00346015
0.00354761
0.00367203
0.00364299
0.0035212
0.00341709
0.00334998
0.00331295
0.0033136
0.00335184
0.00342081
0.00352235
0.0036425
0.00364393
0.00352144
0.00341899
0.00335027
0.00331289
0.00331347
0.00335154
0.00342063
0.00352236
0.00364242
0.00367332
0.00354733
0.00345861
0.00339098
0.00335153
0.00335189
0.00339176
0.00345994
0.00354745
0.00367187
0.00376355
0.00361308
0.00353705
0.00346042
0.00342078
0.003421
0.00346078
0.00353752
0.00361298
0.00376194
0.00380483
0.00364897
0.00361795
0.00354843
0.00352289
0.00352289
0.00354871
0.00361821
0.00364866
0.00380305
0.00407384
0.00380449
0.00376258
0.00367241
0.00364308
0.00364333
0.00367283
0.00376359
0.0038057
0.0040733
0.0037003
0.00342454
0.00340118
0.0033323
0.00329796
0.00329692
0.00332366
0.00340696
0.0034515
0.00367692
0.00342652
0.00330394
0.00327029
0.0032022
0.00317464
0.00317417
0.0032003
0.00327794
0.00332694
0.00344852
0.00339457
0.00326982
0.00318418
0.0031037
0.00306477
0.00306592
0.00310689
0.00319376
0.00327251
0.00340504
0.00332591
0.00319575
0.00310095
0.00302384
0.00298394
0.00298546
0.00302712
0.00310605
0.00319939
0.00332333
0.00329567
0.00317075
0.00306078
0.00298266
0.00294074
0.00294137
0.00298467
0.00306549
0.00317322
0.00329586
0.00329577
0.00317129
0.00306331
0.00298311
0.00294069
0.00294131
0.00298437
0.00306531
0.00317328
0.00329582
0.00332337
0.00319839
0.00310428
0.00302604
0.00298434
0.00298468
0.00302686
0.00310597
0.0031993
0.00332329
0.0034058
0.00327221
0.00319313
0.0031064
0.00306535
0.00306556
0.00310662
0.00319374
0.00327268
0.00340517
0.00344964
0.00332683
0.00327765
0.00320027
0.0031736
0.00317346
0.00320035
0.00327785
0.00332697
0.00344869
0.00367626
0.00344969
0.00340583
0.00332372
0.00329628
0.00329644
0.00332388
0.00340659
0.00345125
0.00367656
0.00349104
0.00329691
0.00326762
0.00320005
0.00316537
0.00316495
0.00319074
0.00326487
0.00331114
0.0034691
0.00329748
0.00321101
0.00316085
0.00309234
0.00306515
0.00306542
0.00309162
0.00316606
0.0032251
0.00330774
0.00326053
0.00316049
0.00308113
0.00300632
0.00297343
0.00297446
0.00300988
0.00309038
0.00316082
0.00326329
0.00319502
0.00308695
0.003004
0.00293451
0.00290139
0.00290238
0.00293711
0.00300948
0.00309151
0.00319148
0.00316456
0.00306254
0.00297027
0.00290056
0.00286523
0.00286545
0.00290161
0.00297463
0.003066
0.00316608
0.00316436
0.00306356
0.00297285
0.00290074
0.00286513
0.00286549
0.00290136
0.00297444
0.00306608
0.00316604
0.00319021
0.00309011
0.003008
0.00293667
0.00290168
0.00290175
0.00293705
0.00300945
0.00309139
0.00319145
0.003263
0.00316022
0.00309016
0.00301024
0.00297459
0.00297464
0.00300998
0.00309044
0.00316103
0.00326348
0.00330807
0.00322483
0.00316637
0.00309252
0.00306623
0.00306597
0.00309224
0.00316629
0.00322532
0.0033081
0.00346732
0.0033089
0.00326419
0.00319169
0.00316617
0.00316631
0.00319184
0.00326499
0.00331117
0.00346895
0.00341383
0.00328608
0.00324781
0.00318364
0.00315145
0.00315287
0.00317781
0.00324145
0.00328816
0.00338821
0.00328519
0.00321997
0.00316187
0.00310022
0.00307521
0.00307668
0.00310256
0.00316868
0.0032276
0.00328413
0.00324173
0.0031626
0.00309306
0.00302826
0.00300104
0.00300188
0.00303223
0.00310295
0.00316318
0.00323959
0.00318108
0.00309686
0.00302694
0.00296691
0.00293917
0.00293955
0.00296831
0.00303197
0.00310242
0.00317837
0.00315245
0.00307441
0.00299929
0.00293902
0.0029102
0.00291001
0.00293884
0.00300236
0.00307779
0.00315474
0.00315302
0.00307611
0.00300148
0.00293873
0.00291001
0.00291011
0.00293863
0.00300213
0.00307781
0.00315464
0.00317736
0.00310173
0.00303118
0.00296844
0.00293926
0.00293909
0.00296826
0.00303178
0.00310206
0.00317813
0.00323944
0.00316309
0.00310326
0.00303314
0.00300244
0.00300231
0.00303233
0.00310272
0.00316305
0.00323954
0.00328472
0.00322802
0.00316962
0.00310382
0.0030781
0.00307769
0.003103
0.00316865
0.00322753
0.00328439
0.00338639
0.00328613
0.0032412
0.00317882
0.00315497
0.00315503
0.00317875
0.00324141
0.00328793
0.00338816
0.0033729
0.00328336
0.00324035
0.00318415
0.00315734
0.00316102
0.00318444
0.0032369
0.00328007
0.00334431
0.00328223
0.00322857
0.00317314
0.00312164
0.00309986
0.00310242
0.00312748
0.00318463
0.00323618
0.0032762
0.00323678
0.00317572
0.00311665
0.00306099
0.00303707
0.00303758
0.00306485
0.00312733
0.00317892
0.00323522
0.00318408
0.00312028
0.00306047
0.00300723
0.00298171
0.00298154
0.00300721
0.00306447
0.00312693
0.00318445
0.00315934
0.00310004
0.00303608
0.00298192
0.0029568
0.00295632
0.00298085
0.00303801
0.00310322
0.00316248
0.00316125
0.00310206
0.00303738
0.0029809
0.00295639
0.0029564
0.00298062
0.00303773
0.00310317
0.00316226
0.00318394
0.00312646
0.00306358
0.00300722
0.00298122
0.00298103
0.00300705
0.00306408
0.00312631
0.0031838
0.00323507
0.00317876
0.00312731
0.00306536
0.00303784
0.00303775
0.00306464
0.00312671
0.00317837
0.00323456
0.00327681
0.00323671
0.00318526
0.00312797
0.00310318
0.00310286
0.00312726
0.00318419
0.00323573
0.0032759
0.00334325
0.00327875
0.00323668
0.00318444
0.00316233
0.00316245
0.00318442
0.00323648
0.00327953
0.00334389
0.00332073
0.00325127
0.0032106
0.00316512
0.00314496
0.00315071
0.0031722
0.00321482
0.00325095
0.00329418
0.00325093
0.00320831
0.00316207
0.0031207
0.0031023
0.0031055
0.00312924
0.00317901
0.00322101
0.00324764
0.00320966
0.0031662
0.00311763
0.00306922
0.00304691
0.00304701
0.0030724
0.00312857
0.00317313
0.00321349
0.00316649
0.00312053
0.00306919
0.00302073
0.00299579
0.00299525
0.00301942
0.00307177
0.00312807
0.00317158
0.00314654
0.00310225
0.00304606
0.00299605
0.00297302
0.00297247
0.00299459
0.00304719
0.00310544
0.0031511
0.00314982
0.00310414
0.00304617
0.00299425
0.00297235
0.00297245
0.00299431
0.00304687
0.00310539
0.00315082
0.00317078
0.00312695
0.00307004
0.00301865
0.00299447
0.00299451
0.00301901
0.00307123
0.00312738
0.00317066
0.00321243
0.00317202
0.00312744
0.00307174
0.00304636
0.00304654
0.00307172
0.00312769
0.00317242
0.0032124
0.00324732
0.00322076
0.00317863
0.00312826
0.00310479
0.00310479
0.00312832
0.00317841
0.00322051
0.003247
0.00329307
0.00324979
0.00321418
0.00317072
0.00315042
0.00315082
0.0031713
0.00321435
0.00325049
0.00329363
0.00325661
0.00319637
0.00316335
0.00312916
0.00311515
0.00312189
0.00314099
0.00317536
0.00320316
0.00323556
0.00319779
0.00316804
0.00313281
0.00310002
0.00308425
0.00308727
0.00310919
0.00315315
0.00318636
0.0032005
0.00316464
0.00313813
0.00309876
0.00305542
0.00303349
0.00303303
0.00305701
0.00310815
0.00314703
0.00317427
0.00313097
0.00310039
0.00305562
0.0030101
0.00298488
0.00298409
0.00300745
0.00305583
0.003107
0.00313936
0.00311558
0.00308342
0.00303242
0.00298507
0.00296309
0.00296255
0.00298328
0.00303237
0.00308552
0.00312028
0.00311976
0.00308476
0.00303135
0.00298263
0.00296223
0.00296238
0.00298289
0.003032
0.0030855
0.00312005
0.00313897
0.00310588
0.0030537
0.00300597
0.00298276
0.00298294
0.00300659
0.00305508
0.00310635
0.00313843
0.00317296
0.00314555
0.00310626
0.00305515
0.00303113
0.00303148
0.00305558
0.00310696
0.00314625
0.00317298
0.0031998
0.00318569
0.00315196
0.00310665
0.00308452
0.00308478
0.00310729
0.00315229
0.00318581
0.00319961
0.00323434
0.00320203
0.00317422
0.00313786
0.00311928
0.00311991
0.003139
0.00317478
0.00320274
0.00323486
0.0031918
0.00313109
0.00310748
0.00308319
0.00307359
0.00308004
0.00309669
0.0031247
0.00314516
0.00317854
0.00313401
0.00311833
0.00309326
0.00306684
0.00305249
0.00305469
0.00307471
0.00311412
0.00313996
0.00314273
0.00311027
0.0030994
0.00306723
0.00302697
0.00300474
0.00300381
0.00302675
0.00307371
0.00310756
0.00312337
0.00308517
0.00306761
0.00302737
0.00298338
0.00295774
0.00295697
0.00297991
0.00302496
0.00307137
0.00309398
0.00307335
0.00305121
0.00300359
0.00295785
0.00293644
0.00293608
0.00295602
0.00300224
0.00305113
0.00307634
0.00307776
0.00305179
0.00300163
0.00295517
0.00293557
0.00293574
0.0029555
0.00300184
0.00305118
0.00307626
0.00309519
0.00307126
0.00302306
0.00297798
0.00295525
0.00295549
0.00297857
0.00302404
0.00307093
0.00309336
0.00312316
0.00310672
0.00307171
0.00302407
0.0030009
0.00300131
0.00302463
0.00307231
0.00310692
0.00312229
0.00314275
0.00313969
0.00311269
0.0030712
0.00305027
0.0030506
0.00307199
0.00311301
0.00313943
0.00314188
0.00317778
0.00314444
0.0031235
0.0030927
0.00307559
0.00307624
0.0030939
0.00312394
0.00314465
0.00317773
0.00314252
0.00306648
0.00305028
0.00303329
0.00302579
0.00303063
0.0030449
0.00306821
0.00308393
0.0031348
0.00306981
0.00306618
0.0030491
0.00302688
0.00301276
0.00301378
0.00303211
0.00306789
0.00308775
0.00308157
0.00305326
0.00305545
0.0030283
0.00298978
0.00296714
0.00296601
0.00298819
0.00303159
0.00306086
0.00306644
0.00303443
0.00302723
0.00298997
0.00294696
0.00292136
0.002921
0.00294368
0.00298586
0.00302785
0.00304139
0.00302458
0.0030106
0.00296545
0.00292117
0.00290049
0.00290053
0.00291999
0.00296375
0.00300883
0.00302527
0.00302837
0.00301033
0.0029631
0.00291873
0.00289982
0.0029001
0.00291939
0.00296337
0.003009
0.00302543
0.00304401
0.00302849
0.00298409
0.00294142
0.00291911
0.00291941
0.00294204
0.00298493
0.00302775
0.00304136
0.00306737
0.00306063
0.00302961
0.00298504
0.00296259
0.00296302
0.0029857
0.0030302
0.00306055
0.00306596
0.0030823
0.0030878
0.00306632
0.00302817
0.00300836
0.00300871
0.003029
0.0030667
0.00308738
0.00308106
0.00313489
0.00308394
0.00306727
0.00304086
0.00302501
0.00302551
0.00304173
0.00306733
0.0030834
0.00313405
0.00311903
0.00300869
0.00299517
0.00298246
0.00297505
0.00297779
0.00299032
0.00301088
0.00302661
0.00311549
0.00301137
0.00301473
0.00300347
0.00298365
0.00296907
0.00296909
0.0029863
0.00301927
0.00303428
0.00302403
0.00299705
0.00300933
0.00298569
0.00294824
0.00292555
0.00292468
0.00294647
0.0029869
0.00301189
0.00300859
0.00298206
0.00298308
0.00294807
0.00290613
0.00288124
0.00288166
0.0029042
0.00294395
0.00298176
0.00298672
0.00297283
0.00296602
0.00292329
0.00288074
0.00286108
0.00286169
0.00288085
0.00292243
0.00296396
0.0029721
0.00297552
0.00296519
0.00292118
0.00287897
0.00286079
0.00286126
0.00288023
0.00292213
0.00296425
0.00297251
0.00298964
0.00298241
0.00294208
0.00290171
0.00287986
0.00288029
0.00290251
0.00294316
0.00298207
0.00298738
0.00301002
0.00301181
0.00298492
0.00294324
0.00292145
0.00292193
0.00294407
0.00298577
0.00301202
0.00300892
0.00302509
0.00303434
0.00301767
0.00298261
0.00296386
0.0029642
0.00298351
0.00301827
0.00303421
0.00302415
0.00311611
0.00302705
0.00301035
0.00298716
0.00297241
0.00297273
0.00298763
0.00301015
0.00302622
0.00311512
0.00311961
0.00296345
0.00294429
0.0029327
0.0029241
0.00292483
0.00293639
0.00295611
0.00297908
0.00311732
0.00296532
0.0029658
0.00295799
0.00293941
0.00292425
0.00292362
0.00294014
0.00297077
0.00298197
0.00297615
0.0029449
0.00296327
0.00294201
0.00290545
0.00288315
0.00288276
0.00290427
0.00294217
0.00296317
0.00295328
0.00293083
0.002938
0.00290496
0.00286438
0.00284065
0.00284183
0.00286413
0.00290175
0.00293573
0.00293304
0.00292125
0.00292072
0.00288053
0.00283994
0.00282136
0.00282243
0.00284122
0.00288082
0.00291904
0.00291968
0.00292276
0.0029197
0.00287908
0.00283903
0.0028215
0.00282205
0.00284065
0.00288063
0.00291941
0.00292025
0.00293584
0.00293628
0.00290002
0.00286182
0.00284041
0.00284084
0.00286258
0.00290118
0.00293631
0.0029342
0.00295506
0.00296324
0.00294046
0.00290146
0.00288024
0.00288067
0.00290224
0.00294132
0.00296356
0.00295424
0.00297757
0.0029821
0.00296937
0.00293718
0.00291935
0.0029196
0.00293791
0.00296991
0.00298198
0.00297674
0.00311831
0.00297973
0.00295592
0.00293434
0.00292042
0.00292053
0.00293437
0.00295542
0.00297868
0.00311725
0.00310328
0.00293459
0.00289843
0.0028845
0.00287419
0.00287366
0.0028853
0.00290689
0.00294741
0.0031012
0.0029356
0.00291925
0.00291281
0.00289506
0.00287973
0.00287897
0.00289521
0.00292392
0.00293268
0.00294414
0.00289785
0.00291751
0.00289838
0.00286305
0.00284161
0.00284186
0.00286321
0.00289895
0.00291626
0.00290363
0.00288165
0.00289319
0.00286242
0.00282366
0.00280131
0.00280314
0.00282513
0.00286089
0.00289133
0.00288251
0.00287128
0.00287624
0.00283901
0.00280056
0.00278301
0.00278436
0.00280274
0.00284057
0.00287564
0.00286981
0.00287199
0.00287544
0.0028384
0.00280046
0.00278348
0.00278403
0.00280227
0.00284048
0.00287601
0.0028704
0.00288475
0.00289149
0.00285928
0.00282311
0.00280212
0.00280254
0.00282382
0.00286052
0.00289193
0.00288379
0.00290543
0.00291622
0.00289744
0.00286092
0.00284022
0.0028406
0.00286164
0.00289832
0.00291663
0.0029048
0.00294569
0.0029327
0.00292265
0.00289308
0.00287606
0.00287621
0.00289359
0.00292304
0.00293249
0.00294486
0.00310245
0.00294807
0.0029069
0.00288431
0.00287069
0.00287059
0.00288388
0.00290603
0.00294679
0.00310127
0.00294154
0.00292468
0.0028597
0.00283939
0.00282703
0.00282595
0.0028388
0.0028659
0.00293482
0.00293891
0.00292521
0.00287602
0.0028684
0.00285147
0.00283649
0.0028359
0.00285189
0.00287893
0.00288758
0.00293141
0.00285832
0.0028727
0.00285574
0.00282212
0.00280179
0.00280252
0.00282353
0.00285729
0.00287137
0.00286245
0.00283602
0.00284951
0.00282152
0.00278492
0.00276385
0.00276595
0.00278739
0.00282145
0.00284865
0.00283661
0.00282431
0.00283338
0.00279945
0.0027632
0.00274643
0.00274775
0.00276559
0.00280177
0.00283387
0.00282353
0.00282466
0.00283296
0.00279954
0.00276361
0.00274703
0.00274744
0.00276523
0.00280177
0.00283419
0.00282399
0.00283817
0.00284845
0.00282011
0.00278585
0.0027653
0.00276565
0.00278643
0.00282131
0.00284917
0.00283768
0.0028641
0.00287124
0.00285609
0.00282186
0.0028017
0.00280203
0.00282249
0.00285689
0.00287162
0.00286342
0.00293298
0.00288759
0.00287791
0.00285058
0.00283431
0.00283437
0.00285085
0.00287808
0.00288716
0.0029319
0.0029406
0.00293553
0.002866
0.00283854
0.00282428
0.002824
0.00283771
0.00286478
0.00293398
0.00293892
0.00248657
0.00292527
0.00283006
0.00279856
0.0027836
0.00278274
0.00279832
0.0028359
0.00293423
0.00248781
0.00292565
0.00283706
0.00282487
0.00280885
0.00279475
0.00279458
0.00281037
0.00283622
0.0028485
0.00293089
0.00282847
0.00282906
0.00281434
0.0027829
0.00276381
0.00276489
0.00278543
0.00281737
0.00282889
0.00283255
0.00279546
0.00280728
0.00278252
0.00274828
0.00272831
0.00273039
0.00275116
0.00278363
0.00280782
0.00279688
0.00278157
0.00279236
0.002762
0.00272785
0.00271162
0.0027127
0.00272998
0.00276463
0.00279385
0.00278189
0.00278198
0.00279236
0.0027625
0.00272841
0.00271213
0.00271239
0.00272975
0.00276471
0.0027941
0.00278219
0.00279773
0.0028072
0.00278244
0.00274998
0.00272988
0.00273021
0.00275054
0.00278371
0.00280824
0.00279764
0.0028339
0.00282854
0.0028163
0.00278419
0.00276461
0.00276496
0.00278489
0.00281723
0.00282909
0.00283328
0.00293237
0.00284847
0.00283543
0.00280971
0.00279415
0.00279417
0.00280992
0.00283559
0.00284809
0.00293125
0.00249088
0.00293513
0.00283627
0.00279878
0.00278243
0.00278205
0.00279771
0.00283486
0.00293352
0.00248805
0.00365262
0.0029042
0.00281211
0.00276521
0.00274635
0.00274593
0.00276588
0.00281835
0.00291272
0.0036576
0.00290454
0.00280496
0.00278372
0.00276813
0.00275502
0.0027552
0.00277061
0.00279604
0.0028169
0.00290956
0.00281053
0.00278793
0.00277477
0.00274567
0.00272773
0.00272884
0.00274864
0.00277875
0.0027889
0.00281517
0.00276244
0.002767
0.00274554
0.0027136
0.0026944
0.00269613
0.00271608
0.00274694
0.00276842
0.00276483
0.00274481
0.00275326
0.00272639
0.00269414
0.00267817
0.00267882
0.00269548
0.0027286
0.00275504
0.00274588
0.00274543
0.00275349
0.00272695
0.0026945
0.0026784
0.00267844
0.00269531
0.0027287
0.00275521
0.00274604
0.00276524
0.00276765
0.00274601
0.00271521
0.00269556
0.00269582
0.00271561
0.0027471
0.0027687
0.00276529
0.00281625
0.0027885
0.00277786
0.00274764
0.00272863
0.00272895
0.00274827
0.0027787
0.00278903
0.00281566
0.00291095
0.00281696
0.0027955
0.00277028
0.00275522
0.00275519
0.00277032
0.00279549
0.0028165
0.00290979
0.00365864
0.00291388
0.00281892
0.00276657
0.00274618
0.00274573
0.00276532
0.00281736
0.00291212
0.00365729
0.00645287
0.00278085
0.00280219
0.00274093
0.00271663
0.00271664
0.00274254
0.00280906
0.00278951
0.00645659
0.00278117
0.00278078
0.00274634
0.00272969
0.00271734
0.00271772
0.0027328
0.00275931
0.0027932
0.00278667
0.002801
0.00275083
0.00273737
0.00271035
0.00269338
0.00269436
0.00271327
0.00274162
0.00275231
0.00280611
0.00273913
0.00272949
0.0027107
0.00268074
0.00266203
0.00266329
0.00268239
0.00271159
0.00273072
0.00274167
0.00271615
0.00271666
0.00269278
0.00266206
0.00264613
0.00264635
0.00266237
0.00269392
0.00271765
0.00271691
0.002717
0.00271697
0.00269319
0.00266208
0.00264606
0.00264589
0.00266224
0.00269399
0.00271775
0.00271699
0.00274253
0.00273056
0.00271123
0.00268183
0.00266261
0.00266278
0.00268196
0.00271171
0.00273087
0.002742
0.00280755
0.00275242
0.00274118
0.0027125
0.00269403
0.00269425
0.00271288
0.00274156
0.0027524
0.0028065
0.00278869
0.00279382
0.00275929
0.00273275
0.00271788
0.00271775
0.00273247
0.00275879
0.00279286
0.00278694
0.00645644
0.00279159
0.00281018
0.00274354
0.00271726
0.00271669
0.00274199
0.0028082
0.00278902
0.00645622
0.00986949
0.00249706
0.00278348
0.0027247
0.00269484
0.00269495
0.00272651
0.00279035
0.00250428
0.00987254
0.00249728
0.00276028
0.00271369
0.00269368
0.00268151
0.00268193
0.00269691
0.0027268
0.00277252
0.00250202
0.0027828
0.00271864
0.00270151
0.00267618
0.00266004
0.00266084
0.00267883
0.00270564
0.0027199
0.00278773
0.00272374
0.00269415
0.00267679
0.00264858
0.00263032
0.00263121
0.00264955
0.00267711
0.00269476
0.00272566
0.00269516
0.00268148
0.00265975
0.00263044
0.00261467
0.00261463
0.00263013
0.00266012
0.00268158
0.00269501
0.00269601
0.00268167
0.00265991
0.00263013
0.00261438
0.00261417
0.00263005
0.00266018
0.00268164
0.00269511
0.00272723
0.00269519
0.00267701
0.00264911
0.00263045
0.00263063
0.00264917
0.0026772
0.0026949
0.00272602
0.00278968
0.00272055
0.00270552
0.0026782
0.00266038
0.00266055
0.00267843
0.0027056
0.00272006
0.00278816
0.00250503
0.00277363
0.00272715
0.00269706
0.00268203
0.00268183
0.00269653
0.00272637
0.00277234
0.00250245
0.00987205
0.00250818
0.00279204
0.00272778
0.00269558
0.00269491
0.00272594
0.0027897
0.00250399
0.00987208
0.0137692
0.0029956
0.00271219
0.00270732
0.0026772
0.00267734
0.00270913
0.00271926
0.00299876
0.0137727
0.0029981
0.00272837
0.00268645
0.00266022
0.00264746
0.00264795
0.0026636
0.00269982
0.00274081
0.00299539
0.00271159
0.00269148
0.00266701
0.00264284
0.00262751
0.00262828
0.00264558
0.00267145
0.0026931
0.00271717
0.00270652
0.00266075
0.00264343
0.00261691
0.00259929
0.00260012
0.00261792
0.00264403
0.00266159
0.00270857
0.00267755
0.00264736
0.00262714
0.00259936
0.00258404
0.00258406
0.00259923
0.00262775
0.00264768
0.0026775
0.00267832
0.00264751
0.00262722
0.00259895
0.00258375
0.00258371
0.00259923
0.00262783
0.00264779
0.00267774
0.00271
0.0026618
0.00264364
0.00261738
0.00259943
0.00259977
0.00261774
0.00264422
0.00266192
0.00270929
0.00271913
0.00269371
0.00267136
0.00264508
0.002628
0.0026282
0.00264544
0.00267169
0.00269363
0.00271808
0.00299665
0.00274198
0.00270038
0.00266401
0.00264829
0.00264812
0.00266359
0.00269986
0.00274114
0.00299572
0.0137721
0.00299948
0.0027215
0.00271088
0.00267832
0.00267771
0.00270912
0.00271929
0.00299848
0.0137721
0.0179674
0.00488178
0.00253381
0.00266675
0.00265311
0.00265311
0.00266829
0.00254078
0.00488481
0.0179714
0.00488517
0.00265548
0.00266442
0.0026299
0.00261549
0.00261593
0.0026332
0.0026777
0.00266739
0.00487972
0.00253393
0.00266953
0.0026345
0.00261032
0.00259556
0.00259636
0.00261315
0.00263905
0.00267123
0.00253923
0.00266599
0.00263041
0.00261087
0.00258565
0.00256867
0.00256954
0.00258689
0.00261176
0.00263134
0.00266794
0.00265327
0.00261524
0.00259513
0.00256873
0.00255391
0.00255409
0.00256889
0.00259602
0.00261574
0.00265328
0.00265387
0.00261534
0.00259522
0.00256838
0.00255377
0.00255387
0.00256898
0.00259611
0.00261588
0.00265369
0.00266914
0.00263127
0.0026112
0.00258632
0.00256907
0.00256949
0.00258683
0.00261198
0.00263179
0.00266903
0.00254135
0.00267155
0.00263893
0.0026128
0.00259625
0.00259644
0.00261316
0.00263943
0.00267191
0.00254071
0.00487958
0.00266821
0.00267816
0.00263365
0.00261636
0.00261625
0.00263338
0.00267802
0.00266802
0.00487893
0.0179704
0.0048834
0.00254286
0.00266985
0.002654
0.00265359
0.00266864
0.00254126
0.00488344
0.0179704
0.0222582
0.00732469
0.00247406
0.00256546
0.00259786
0.00259767
0.00256654
0.00247784
0.00732947
0.0222634
0.00732829
0.00251363
0.00264375
0.00260237
0.00258533
0.00258572
0.00260555
0.00265679
0.00252277
0.00732313
0.0024767
0.00264899
0.0026041
0.00257828
0.0025638
0.00256471
0.00258135
0.00260881
0.00265053
0.0024755
0.00256516
0.00260299
0.00257887
0.00255451
0.0025382
0.0025392
0.00255617
0.00258012
0.00260378
0.00256631
0.00259824
0.00258514
0.00256349
0.00253833
0.00252408
0.00252449
0.00253887
0.00256459
0.00258556
0.00259773
0.00259858
0.00258521
0.0025637
0.0025382
0.00252423
0.00252446
0.00253902
0.00256466
0.00258561
0.00259815
0.00256767
0.0026036
0.00257956
0.00255574
0.00253917
0.00253959
0.00255618
0.00258019
0.00260403
0.00256738
0.00247813
0.00265048
0.00260867
0.00258126
0.00256499
0.00256507
0.00258141
0.00260899
0.00265081
0.00247707
0.00732292
0.00252325
0.00265702
0.00260606
0.00258631
0.00258617
0.00260566
0.00265684
0.00252296
0.00732239
0.0222621
0.00732823
0.00247938
0.00256788
0.0025985
0.00259818
0.00256696
0.00247753
0.00732814
0.0222624
0.026464
0.0101627
0.00346594
0.00241385
0.00248315
0.00248257
0.00241361
0.00346601
0.0101687
0.0264703
0.010166
0.00241156
0.0026163
0.00257742
0.00255764
0.00255791
0.00258028
0.00262855
0.00240998
0.0101615
0.00346919
0.00262157
0.00257724
0.00254776
0.00253314
0.0025341
0.00255093
0.00258192
0.00262263
0.00346162
0.00241438
0.00257809
0.00254837
0.00252442
0.00250875
0.00250989
0.0025264
0.00254985
0.00257864
0.00241361
0.00248407
0.00255758
0.00253303
0.00250902
0.00249544
0.00249603
0.00250986
0.00253424
0.00255783
0.00248271
0.00248417
0.00255771
0.00253347
0.00250925
0.00249599
0.00249628
0.00251013
0.00253433
0.00255783
0.0024831
0.00241587
0.00257869
0.00254969
0.00252651
0.00251064
0.00251096
0.00252672
0.00254993
0.00257874
0.0024148
0.00346364
0.00262273
0.00258224
0.00255158
0.00253524
0.00253515
0.00255136
0.00258209
0.0026226
0.00346352
0.0101615
0.00241184
0.00262922
0.00258135
0.0025591
0.00255886
0.00258063
0.0026286
0.00241062
0.0101614
0.0264688
0.0101677
0.00346702
0.00241585
0.00248405
0.00248369
0.00241473
0.00346545
0.0101677
0.0264694
0.0304586
0.0133083
0.00520727
0.00263193
0.00236435
0.00236337
0.00263124
0.00520878
0.0133157
0.0304663
0.0133113
0.0029276
0.00256875
0.00255263
0.00253188
0.0025321
0.00255529
0.00257999
0.00291559
0.0133082
0.00521012
0.00257396
0.00255525
0.00251967
0.00250437
0.0025054
0.002523
0.00256
0.00257444
0.00520312
0.00263361
0.00255338
0.00252034
0.00249611
0.00248106
0.00248233
0.00249842
0.00252207
0.0025538
0.00263044
0.00236625
0.00253211
0.00250457
0.00248153
0.00246865
0.00246939
0.00248265
0.00250592
0.00253229
0.00236413
0.00236611
0.00253241
0.00250533
0.00248218
0.00246963
0.00246997
0.00248311
0.00250614
0.00253236
0.00236469
0.00263262
0.00255437
0.00252255
0.00249926
0.00248401
0.00248423
0.00249927
0.00252248
0.00255411
0.00263218
0.0052038
0.00257531
0.0025611
0.00252466
0.00250766
0.00250743
0.00252415
0.00256057
0.00257474
0.00520475
0.0133078
0.00291744
0.00258167
0.0025573
0.00253426
0.00253395
0.00255635
0.00258069
0.00291677
0.0133082
0.0304641
0.0133144
0.00520865
0.00263377
0.00236651
0.00236606
0.00263261
0.00520747
0.0133144
0.0304652
0.034168
0.0166483
0.00732389
0.00370491
0.0027112
0.00271076
0.0037056
0.00732695
0.0166566
0.0341765
0.0166509
0.0041624
0.00248744
0.00252157
0.00250498
0.0025053
0.00252447
0.0024977
0.0041526
0.0166492
0.00732641
0.00249278
0.00253827
0.00249429
0.00247758
0.00247875
0.002498
0.00254341
0.00249255
0.00732035
0.00370625
0.00252255
0.00249507
0.00246951
0.00245492
0.00245634
0.00247218
0.00249718
0.00252312
0.00370324
0.0027126
0.00250554
0.00247808
0.00245556
0.00244332
0.00244418
0.00245694
0.00247964
0.0025058
0.0027111
0.00271206
0.00250601
0.00247913
0.00245657
0.00244463
0.00244501
0.00245754
0.00247995
0.00250593
0.00271161
0.00370367
0.00252404
0.00249809
0.00247356
0.00245871
0.00245886
0.00247346
0.00249788
0.00252363
0.00370446
0.00732024
0.00249406
0.00254505
0.00250034
0.00248185
0.00248157