/*--------------------------------*- C++ -*----------------------------------*\
| =========                 |                                                 |
| \\      /  F ield         | OpenFOAM: The Open Source CFD Toolbox           |
|  \\    /   O peration     | Version:  2406                                  |
|   \\  /    A nd           | Website:  www.openfoam.com                      |
|    \\/     M anipulation  |                                                 |
\*---------------------------------------------------------------------------*/
FoamFile
{
    version     2.0;
    format      ascii;
    arch        "LSB;label=32;scalar=64";
    class       volScalarField;
    location    "500";
    object      turbulenceProperties:epsilon;
}
// * * * * * * * * * * * * * * * * * * * * * * * * * * * * * * * * * * * * * //

dimensions      [0 2 -3 0 0 0 0];

internalField   nonuniform List<scalar> 
25000
(
1.5852e-06
1.16566e-06
7.74745e-07
7.76132e-07
7.70851e-07
7.73603e-07
7.89482e-07
8.1883e-07
9.77168e-07
1.07326e-06
1.17591e-06
9.02726e-07
7.53141e-07
6.86047e-07
6.56452e-07
6.59537e-07
6.95668e-07
7.71181e-07
9.21641e-07
9.78503e-07
7.84641e-07
7.59059e-07
6.55552e-07
5.96569e-07
5.70389e-07
5.72244e-07
6.02151e-07
6.63781e-07
7.71004e-07
8.20492e-07
7.82117e-07
6.89373e-07
5.9782e-07
5.41672e-07
5.15786e-07
5.171e-07
5.45218e-07
6.02893e-07
6.9713e-07
7.91997e-07
7.74355e-07
6.59248e-07
5.71315e-07
5.1604e-07
4.90239e-07
4.9099e-07
5.18175e-07
5.74374e-07
6.6265e-07
7.7747e-07
7.75259e-07
6.61136e-07
5.73111e-07
5.17279e-07
4.91014e-07
4.9147e-07
5.18448e-07
5.74523e-07
6.62733e-07
7.77485e-07
7.90334e-07
6.97204e-07
6.02793e-07
5.45536e-07
5.1831e-07
5.18561e-07
5.46049e-07
6.03366e-07
6.97382e-07
7.92047e-07
8.18801e-07
7.71907e-07
6.64677e-07
6.03406e-07
5.74627e-07
5.74705e-07
6.03515e-07
6.64558e-07
7.7144e-07
8.2056e-07
9.76312e-07
9.22943e-07
7.72502e-07
6.97574e-07
6.62919e-07
6.62912e-07
6.97534e-07
7.72174e-07
9.22231e-07
9.78505e-07
1.07499e-06
9.80072e-07
8.21123e-07
7.92349e-07
7.77577e-07
7.77517e-07
7.91961e-07
8.20389e-07
9.78523e-07
1.07403e-06
2.38704e-06
1.94186e-06
1.6113e-06
1.61732e-06
1.58819e-06
1.58791e-06
1.61529e-06
1.66802e-06
1.91355e-06
2.03286e-06
1.95571e-06
1.66429e-06
1.56981e-06
1.5214e-06
1.4866e-06
1.48794e-06
1.52465e-06
1.58567e-06
1.7213e-06
1.91522e-06
1.6215e-06
1.57763e-06
1.46025e-06
1.41923e-06
1.39816e-06
1.39949e-06
1.42513e-06
1.4713e-06
1.58211e-06
1.66988e-06
1.62151e-06
1.52333e-06
1.42044e-06
1.36889e-06
1.3443e-06
1.34596e-06
1.37292e-06
1.42526e-06
1.52538e-06
1.61764e-06
1.59282e-06
1.48981e-06
1.39873e-06
1.34474e-06
1.32052e-06
1.32122e-06
1.34674e-06
1.40109e-06
1.48963e-06
1.59057e-06
1.59132e-06
1.48978e-06
1.40063e-06
1.346e-06
1.32133e-06
1.32182e-06
1.34707e-06
1.40126e-06
1.48976e-06
1.59053e-06
1.61829e-06
1.52713e-06
1.4257e-06
1.37363e-06
1.34734e-06
1.34762e-06
1.37394e-06
1.42589e-06
1.52574e-06
1.61756e-06
1.66973e-06
1.58456e-06
1.47291e-06
1.42664e-06
1.40178e-06
1.40181e-06
1.42656e-06
1.47223e-06
1.58277e-06
1.66982e-06
1.91285e-06
1.72368e-06
1.58705e-06
1.52625e-06
1.49017e-06
1.49021e-06
1.52637e-06
1.58667e-06
1.72188e-06
1.91453e-06
2.03663e-06
1.91905e-06
1.67077e-06
1.61805e-06
1.59072e-06
1.59074e-06
1.61768e-06
1.6701e-06
1.91596e-06
2.03451e-06
1.88465e-06
1.48476e-06
1.34764e-06
1.30591e-06
1.26991e-06
1.27118e-06
1.30319e-06
1.3756e-06
1.50673e-06
1.72348e-06
1.49319e-06
1.28437e-06
1.25904e-06
1.22514e-06
1.19928e-06
1.20028e-06
1.22683e-06
1.26878e-06
1.3158e-06
1.50531e-06
1.35082e-06
1.26374e-06
1.188e-06
1.15576e-06
1.13432e-06
1.13506e-06
1.15918e-06
1.19625e-06
1.2641e-06
1.37509e-06
1.30554e-06
1.22403e-06
1.15572e-06
1.11804e-06
1.09548e-06
1.09648e-06
1.12002e-06
1.1587e-06
1.22636e-06
1.30304e-06
1.27117e-06
1.19928e-06
1.13339e-06
1.09544e-06
1.07652e-06
1.0769e-06
1.09658e-06
1.13561e-06
1.20028e-06
1.27108e-06
1.27224e-06
1.19978e-06
1.13446e-06
1.09559e-06
1.07667e-06
1.07705e-06
1.09663e-06
1.13562e-06
1.20029e-06
1.27102e-06
1.30488e-06
1.2269e-06
1.15803e-06
1.11968e-06
1.09669e-06
1.09701e-06
1.12028e-06
1.15882e-06
1.2264e-06
1.30288e-06
1.37696e-06
1.26508e-06
1.19634e-06
1.15923e-06
1.13574e-06
1.13588e-06
1.15954e-06
1.19647e-06
1.26428e-06
1.37496e-06
1.50648e-06
1.31673e-06
1.26885e-06
1.22687e-06
1.20058e-06
1.20066e-06
1.22719e-06
1.26899e-06
1.31587e-06
1.50492e-06
1.72572e-06
1.5079e-06
1.37555e-06
1.30325e-06
1.27136e-06
1.27154e-06
1.30345e-06
1.37594e-06
1.50726e-06
1.72384e-06
1.05082e-06
7.67399e-07
7.35273e-07
6.94156e-07
6.72707e-07
6.73476e-07
6.92526e-07
7.48958e-07
7.89554e-07
9.9352e-07
7.72093e-07
6.59047e-07
6.56749e-07
6.31522e-07
6.17331e-07
6.1763e-07
6.32092e-07
6.63394e-07
6.75776e-07
7.8775e-07
7.3539e-07
6.58892e-07
6.153e-07
5.88106e-07
5.71088e-07
5.71519e-07
5.8965e-07
6.20548e-07
6.60127e-07
7.4792e-07
6.92404e-07
6.2974e-07
5.87633e-07
5.60587e-07
5.43883e-07
5.44507e-07
5.61551e-07
5.89082e-07
6.31327e-07
6.91812e-07
6.72333e-07
6.1627e-07
5.69914e-07
5.4365e-07
5.29624e-07
5.29854e-07
5.44305e-07
5.71349e-07
6.16763e-07
6.72294e-07
6.73337e-07
6.16462e-07
5.70562e-07
5.43634e-07
5.29612e-07
5.29835e-07
5.44226e-07
5.71289e-07
6.16747e-07
6.72244e-07
6.92984e-07
6.31389e-07
5.88414e-07
5.61076e-07
5.44244e-07
5.44431e-07
5.61443e-07
5.8901e-07
6.31249e-07
6.91678e-07
7.49204e-07
6.60316e-07
6.20227e-07
5.89238e-07
5.71328e-07
5.7144e-07
5.89476e-07
6.20468e-07
6.60106e-07
7.47795e-07
7.89073e-07
6.7594e-07
6.63034e-07
6.31589e-07
6.16906e-07
6.16967e-07
6.3186e-07
6.63285e-07
6.75694e-07
7.87629e-07
9.94455e-07
7.88887e-07
7.48043e-07
6.91818e-07
6.72437e-07
6.72614e-07
6.92151e-07
7.48708e-07
7.89396e-07
9.93369e-07
5.99821e-07
4.24093e-07
4.12984e-07
3.81918e-07
3.67881e-07
3.67787e-07
3.79688e-07
4.19434e-07
4.39678e-07
5.78998e-07
4.25821e-07
3.58792e-07
3.52094e-07
3.29431e-07
3.19795e-07
3.19666e-07
3.29085e-07
3.56354e-07
3.69708e-07
4.38228e-07
4.11131e-07
3.52449e-07
3.20705e-07
2.95514e-07
2.82425e-07
2.82757e-07
2.96469e-07
3.24326e-07
3.54155e-07
4.18392e-07
3.79413e-07
3.27276e-07
2.94748e-07
2.71852e-07
2.59395e-07
2.59871e-07
2.72725e-07
2.96034e-07
3.28438e-07
3.79024e-07
3.66769e-07
3.1836e-07
2.81194e-07
2.59043e-07
2.4744e-07
2.47638e-07
2.59632e-07
2.82443e-07
3.18813e-07
3.66616e-07
3.67158e-07
3.18458e-07
2.81826e-07
2.59136e-07
2.47424e-07
2.47599e-07
2.59539e-07
2.82383e-07
3.18815e-07
3.66584e-07
3.79529e-07
3.28315e-07
2.95496e-07
2.72325e-07
2.59529e-07
2.59645e-07
2.72583e-07
2.95966e-07
3.2838e-07
3.78957e-07
4.19039e-07
3.54166e-07
3.24039e-07
2.96118e-07
2.8243e-07
2.82505e-07
2.96248e-07
3.24227e-07
3.54143e-07
4.18345e-07
4.38988e-07
3.69729e-07
3.56073e-07
3.28735e-07
3.19004e-07
3.19007e-07
3.28843e-07
3.56187e-07
3.6962e-07
4.38184e-07
5.79026e-07
4.38842e-07
4.18621e-07
3.79176e-07
3.66847e-07
3.66948e-07
3.79353e-07
4.19082e-07
4.39409e-07
5.78739e-07
4.00486e-07
2.9303e-07
2.84454e-07
2.61655e-07
2.50815e-07
2.50502e-07
2.58965e-07
2.86428e-07
3.0246e-07
3.90682e-07
2.9369e-07
2.52904e-07
2.42016e-07
2.22015e-07
2.14242e-07
2.14118e-07
2.21499e-07
2.44313e-07
2.60091e-07
3.01414e-07
2.82226e-07
2.41861e-07
2.16736e-07
1.95189e-07
1.85363e-07
1.85644e-07
1.96002e-07
2.19382e-07
2.42709e-07
2.85786e-07
2.59634e-07
2.2022e-07
1.94491e-07
1.75416e-07
1.66135e-07
1.66475e-07
1.76188e-07
1.95794e-07
2.21255e-07
2.58867e-07
2.50102e-07
2.13183e-07
1.84393e-07
1.65845e-07
1.56513e-07
1.56649e-07
1.66301e-07
1.85544e-07
2.13867e-07
2.50186e-07
2.50137e-07
2.13333e-07
1.85006e-07
1.65948e-07
1.56503e-07
1.56635e-07
1.66235e-07
1.85499e-07
2.13885e-07
2.50173e-07
2.58862e-07
2.20964e-07
1.9534e-07
1.75932e-07
1.66225e-07
1.66302e-07
1.76128e-07
1.95775e-07
2.21229e-07
2.58855e-07
2.86027e-07
2.42608e-07
2.19203e-07
1.95875e-07
1.85507e-07
1.85559e-07
1.95935e-07
2.19377e-07
2.42759e-07
2.85828e-07
3.01797e-07
2.60047e-07
2.44224e-07
2.21492e-07
2.13967e-07
2.13931e-07
2.21515e-07
2.44288e-07
2.601e-07
3.01474e-07
3.90388e-07
3.0182e-07
2.86046e-07
2.58985e-07
2.50311e-07
2.5036e-07
2.59036e-07
2.86305e-07
3.02375e-07
3.90527e-07
3.22093e-07
2.55722e-07
2.46266e-07
2.26166e-07
2.16345e-07
2.16233e-07
2.23559e-07
2.45469e-07
2.60244e-07
3.14235e-07
2.55892e-07
2.29331e-07
2.14723e-07
1.96314e-07
1.89308e-07
1.89378e-07
1.96141e-07
2.16168e-07
2.33439e-07
2.59175e-07
2.44123e-07
2.14616e-07
1.93213e-07
1.74734e-07
1.67024e-07
1.67258e-07
1.75571e-07
1.95567e-07
2.14744e-07
2.44997e-07
2.24735e-07
1.9494e-07
1.74191e-07
1.58244e-07
1.51039e-07
1.51247e-07
1.58814e-07
1.75482e-07
1.9612e-07
2.23771e-07
2.16111e-07
1.88655e-07
1.6631e-07
1.50864e-07
1.43466e-07
1.43512e-07
1.51089e-07
1.67301e-07
1.89527e-07
2.16549e-07
2.16062e-07
1.88912e-07
1.66891e-07
1.50905e-07
1.43446e-07
1.43521e-07
1.51038e-07
1.67259e-07
1.89548e-07
2.16538e-07
2.23402e-07
1.95752e-07
1.75129e-07
1.58715e-07
1.51101e-07
1.51117e-07
1.588e-07
1.75476e-07
1.96088e-07
2.23762e-07
2.44896e-07
2.14573e-07
1.95504e-07
1.75654e-07
1.67289e-07
1.673e-07
1.75597e-07
1.95583e-07
2.14802e-07
2.45054e-07
2.59266e-07
2.33355e-07
2.16247e-07
1.9637e-07
1.89582e-07
1.89518e-07
1.96301e-07
2.16233e-07
2.33506e-07
2.59287e-07
3.1358e-07
2.59537e-07
2.45263e-07
2.23827e-07
2.16571e-07
2.16611e-07
2.2387e-07
2.45509e-07
2.60257e-07
3.14181e-07
2.99229e-07
2.56599e-07
2.44452e-07
2.25378e-07
2.16233e-07
2.16628e-07
2.23742e-07
2.42574e-07
2.57332e-07
2.90484e-07
2.5632e-07
2.35899e-07
2.18749e-07
2.01795e-07
1.95172e-07
1.95548e-07
2.02418e-07
2.2067e-07
2.382e-07
2.56064e-07
2.42616e-07
2.18947e-07
1.99674e-07
1.83063e-07
1.76373e-07
1.76574e-07
1.84033e-07
2.02261e-07
2.19143e-07
2.4202e-07
2.24643e-07
2.00915e-07
1.82739e-07
1.68272e-07
1.61875e-07
1.61961e-07
1.68597e-07
1.83972e-07
2.02387e-07
2.23906e-07
2.16502e-07
1.94962e-07
1.75958e-07
1.6184e-07
1.5539e-07
1.5535e-07
1.61807e-07
1.76691e-07
1.95836e-07
2.17152e-07
2.16662e-07
1.95398e-07
1.76474e-07
1.61778e-07
1.5535e-07
1.55372e-07
1.6176e-07
1.76638e-07
1.95842e-07
2.17125e-07
2.23609e-07
2.02196e-07
1.83775e-07
1.68623e-07
1.61896e-07
1.61859e-07
1.68588e-07
1.83926e-07
2.02294e-07
2.23838e-07
2.41966e-07
2.1911e-07
2.02336e-07
1.84252e-07
1.76706e-07
1.76678e-07
1.84059e-07
2.02202e-07
2.19108e-07
2.42006e-07
2.56239e-07
2.38319e-07
2.20927e-07
2.02747e-07
1.95913e-07
1.95809e-07
2.02537e-07
2.20662e-07
2.38182e-07
2.56146e-07
2.89852e-07
2.56693e-07
2.42499e-07
2.24029e-07
2.1721e-07
2.17228e-07
2.24012e-07
2.42566e-07
2.57261e-07
2.90467e-07
2.89951e-07
2.60294e-07
2.46608e-07
2.29652e-07
2.2186e-07
2.22901e-07
2.29752e-07
2.45597e-07
2.59336e-07
2.80366e-07
2.59938e-07
2.42802e-07
2.25997e-07
2.11289e-07
2.0526e-07
2.05942e-07
2.1289e-07
2.29325e-07
2.45159e-07
2.58102e-07
2.45518e-07
2.26732e-07
2.09675e-07
1.94674e-07
1.88455e-07
1.88585e-07
1.9567e-07
2.12587e-07
2.27682e-07
2.45086e-07
2.29625e-07
2.10917e-07
1.94541e-07
1.80929e-07
1.74659e-07
1.74621e-07
1.80933e-07
1.95575e-07
2.12745e-07
2.2976e-07
2.22418e-07
2.053e-07
1.88206e-07
1.74704e-07
1.68681e-07
1.68572e-07
1.74461e-07
1.88696e-07
2.06159e-07
2.23321e-07
2.2296e-07
2.0584e-07
1.88531e-07
1.74469e-07
1.68587e-07
1.6859e-07
1.74408e-07
1.88627e-07
2.06148e-07
2.23259e-07
2.29601e-07
2.12608e-07
1.95342e-07
1.8093e-07
1.74545e-07
1.74503e-07
1.80893e-07
1.95476e-07
2.12575e-07
2.2957e-07
2.45033e-07
2.2763e-07
2.12578e-07
1.95798e-07
1.88651e-07
1.8863e-07
1.95617e-07
2.1242e-07
2.27523e-07
2.44886e-07
2.58288e-07
2.45314e-07
2.29503e-07
2.13023e-07
2.06147e-07
2.06063e-07
2.12832e-07
2.292e-07
2.45021e-07
2.58008e-07
2.80006e-07
2.58917e-07
2.4553e-07
2.29752e-07
2.23277e-07
2.23309e-07
2.29749e-07
2.45472e-07
2.59167e-07
2.80226e-07
2.77133e-07
2.54826e-07
2.42117e-07
2.28446e-07
2.22543e-07
2.2418e-07
2.30515e-07
2.43434e-07
2.54813e-07
2.68485e-07
2.54729e-07
2.41238e-07
2.27123e-07
2.15093e-07
2.09871e-07
2.10743e-07
2.17472e-07
2.3207e-07
2.4514e-07
2.53761e-07
2.4183e-07
2.28316e-07
2.13989e-07
2.0058e-07
1.946e-07
1.94629e-07
2.01423e-07
2.17031e-07
2.30353e-07
2.43027e-07
2.28835e-07
2.1504e-07
2.00568e-07
1.87762e-07
1.81422e-07
1.81293e-07
1.87444e-07
2.01261e-07
2.17151e-07
2.30337e-07
2.22985e-07
2.09851e-07
1.94377e-07
1.81484e-07
1.75746e-07
1.75617e-07
1.81137e-07
1.94679e-07
2.10732e-07
2.24299e-07
2.2392e-07
2.10368e-07
1.94409e-07
1.81049e-07
1.75589e-07
1.75614e-07
1.8107e-07
1.94596e-07
2.10718e-07
2.24219e-07
2.30095e-07
2.16831e-07
2.008e-07
1.87249e-07
1.81104e-07
1.81117e-07
1.87342e-07
2.01117e-07
2.16959e-07
2.3007e-07
2.42698e-07
2.30023e-07
2.16713e-07
2.01248e-07
1.94464e-07
1.94511e-07
2.01245e-07
2.16788e-07
2.30146e-07
2.42696e-07
2.53654e-07
2.45059e-07
2.31958e-07
2.172e-07
2.10552e-07
2.10554e-07
2.1722e-07
2.31897e-07
2.44988e-07
2.53562e-07
2.6812e-07
2.54447e-07
2.43237e-07
2.30086e-07
2.24104e-07
2.24217e-07
2.30254e-07
2.43291e-07
2.5467e-07
2.68306e-07
2.60768e-07
2.4238e-07
2.32449e-07
2.22379e-07
2.18307e-07
2.20208e-07
2.25777e-07
2.3604e-07
2.44534e-07
2.54191e-07
2.42823e-07
2.33702e-07
2.23045e-07
2.13502e-07
2.09007e-07
2.09834e-07
2.16058e-07
2.2894e-07
2.39213e-07
2.43702e-07
2.32826e-07
2.24571e-07
2.12913e-07
2.00834e-07
1.94921e-07
1.94805e-07
2.01262e-07
2.1553e-07
2.27155e-07
2.3571e-07
2.22885e-07
2.13601e-07
2.00881e-07
1.88744e-07
1.82285e-07
1.82093e-07
1.8809e-07
2.00956e-07
2.1545e-07
2.25312e-07
2.18419e-07
2.08775e-07
1.94642e-07
1.82328e-07
1.76795e-07
1.76668e-07
1.81899e-07
1.94642e-07
2.09363e-07
2.1976e-07
2.19599e-07
2.09144e-07
1.9437e-07
1.81735e-07
1.7659e-07
1.76627e-07
1.81803e-07
1.94546e-07
2.09358e-07
2.19694e-07
2.25188e-07
2.15129e-07
2.00388e-07
1.87716e-07
1.81769e-07
1.81815e-07
1.87874e-07
2.00758e-07
2.1527e-07
2.25044e-07
2.35313e-07
2.26721e-07
2.15001e-07
2.00772e-07
1.94319e-07
1.94411e-07
2.00887e-07
2.15198e-07
2.26932e-07
2.35327e-07
2.43484e-07
2.39007e-07
2.2859e-07
2.15352e-07
2.09089e-07
2.09159e-07
2.15533e-07
2.28692e-07
2.39048e-07
2.43432e-07
2.53802e-07
2.44184e-07
2.35699e-07
2.24879e-07
2.19475e-07
2.19656e-07
2.25208e-07
2.3587e-07
2.44407e-07
2.53972e-07
2.44747e-07
2.27186e-07
2.20459e-07
2.13525e-07
2.10791e-07
2.12568e-07
2.17304e-07
2.25424e-07
2.31377e-07
2.40793e-07
2.28049e-07
2.23491e-07
2.16041e-07
2.08438e-07
2.04394e-07
2.04988e-07
2.10602e-07
2.21973e-07
2.29808e-07
2.30642e-07
2.21253e-07
2.17774e-07
2.08324e-07
1.97204e-07
1.91272e-07
1.91039e-07
1.97154e-07
2.10112e-07
2.20093e-07
2.25033e-07
2.14068e-07
2.08644e-07
1.97304e-07
1.85665e-07
1.79155e-07
1.78971e-07
1.8481e-07
1.9669e-07
2.09687e-07
2.16548e-07
2.10716e-07
2.04045e-07
1.90975e-07
1.7918e-07
1.73831e-07
1.73748e-07
1.78743e-07
1.90644e-07
2.04038e-07
2.11554e-07
2.11934e-07
2.04205e-07
1.90482e-07
1.78535e-07
1.73627e-07
1.73669e-07
1.78619e-07
1.90543e-07
2.04051e-07
2.11532e-07
2.16877e-07
2.0965e-07
1.96191e-07
1.8433e-07
1.78555e-07
1.78614e-07
1.8448e-07
1.96451e-07
2.09568e-07
2.16374e-07
2.24966e-07
2.1985e-07
2.09562e-07
1.96458e-07
1.90302e-07
1.90406e-07
1.96605e-07
2.09729e-07
2.19912e-07
2.24723e-07
2.30643e-07
2.29724e-07
2.21564e-07
2.09642e-07
2.03807e-07
2.03896e-07
2.0986e-07
2.21658e-07
2.29654e-07
2.30391e-07
2.40561e-07
2.31163e-07
2.25078e-07
2.16189e-07
2.11347e-07
2.11526e-07
2.16525e-07
2.25209e-07
2.31229e-07
2.40548e-07
2.33918e-07
2.12681e-07
2.08376e-07
2.03714e-07
2.01642e-07
2.02939e-07
2.06862e-07
2.13354e-07
2.17637e-07
2.31701e-07
2.13625e-07
2.12756e-07
2.07792e-07
2.01526e-07
1.97638e-07
1.97908e-07
2.02934e-07
2.13004e-07
2.18847e-07
2.16948e-07
2.09196e-07
2.09543e-07
2.01709e-07
1.91271e-07
1.85353e-07
1.85074e-07
1.90871e-07
2.02604e-07
2.11038e-07
2.12852e-07
2.04017e-07
2.01616e-07
1.91317e-07
1.80148e-07
1.73769e-07
1.73685e-07
1.79352e-07
1.90279e-07
2.01794e-07
2.0591e-07
2.01316e-07
1.97068e-07
1.84927e-07
1.73723e-07
1.68647e-07
1.68658e-07
1.73448e-07
1.84511e-07
1.96616e-07
2.01511e-07
2.02329e-07
1.97001e-07
1.84346e-07
1.73145e-07
1.68492e-07
1.68559e-07
1.73305e-07
1.84419e-07
1.96659e-07
2.01552e-07
2.06614e-07
2.01962e-07
1.89825e-07
1.78801e-07
1.73235e-07
1.7331e-07
1.78953e-07
1.90042e-07
2.0177e-07
2.05902e-07
2.13108e-07
2.10974e-07
2.02074e-07
1.90069e-07
1.84223e-07
1.84331e-07
1.90238e-07
2.02234e-07
2.10956e-07
2.12719e-07
2.17152e-07
2.18862e-07
2.12569e-07
2.01882e-07
1.96493e-07
1.96583e-07
2.02107e-07
2.12676e-07
2.18745e-07
2.16803e-07
2.31727e-07
2.17638e-07
2.13093e-07
2.05768e-07
2.01443e-07
2.01576e-07
2.06006e-07
2.13112e-07
2.17487e-07
2.3148e-07
2.30964e-07
2.00491e-07
1.97146e-07
1.93817e-07
1.91859e-07
1.92568e-07
1.95878e-07
2.01345e-07
2.05376e-07
2.29981e-07
2.01226e-07
2.02405e-07
1.99221e-07
1.93782e-07
1.89887e-07
1.89894e-07
1.94483e-07
2.03489e-07
2.07742e-07
2.04652e-07
1.97648e-07
2.00802e-07
1.94147e-07
1.84247e-07
1.78464e-07
1.78254e-07
1.83811e-07
1.94477e-07
2.01483e-07
2.0072e-07
1.93711e-07
1.93633e-07
1.84203e-07
1.73571e-07
1.67513e-07
1.67611e-07
1.73117e-07
1.83185e-07
1.93302e-07
1.94936e-07
1.91285e-07
1.89105e-07
1.77912e-07
1.67396e-07
1.62673e-07
1.62814e-07
1.67425e-07
1.77707e-07
1.88587e-07
1.91106e-07
1.91979e-07
1.88895e-07
1.774e-07
1.66985e-07
1.62609e-07
1.62716e-07
1.67282e-07
1.77636e-07
1.88661e-07
1.91211e-07
1.95696e-07
1.93467e-07
1.82717e-07
1.72522e-07
1.67194e-07
1.67294e-07
1.72714e-07
1.8299e-07
1.93382e-07
1.95109e-07
2.01101e-07
2.0146e-07
1.9396e-07
1.83008e-07
1.77471e-07
1.77587e-07
1.83217e-07
1.94184e-07
2.0152e-07
2.0081e-07
2.04937e-07
2.07759e-07
2.03059e-07
1.93526e-07
1.88565e-07
1.8865e-07
1.93759e-07
2.03221e-07
2.07723e-07
2.04686e-07
2.30164e-07
2.05496e-07
2.01204e-07
1.95053e-07
1.91186e-07
1.91269e-07
1.95179e-07
2.01152e-07
2.0527e-07
2.29874e-07
2.3537e-07
1.91903e-07
1.87264e-07
1.84378e-07
1.8221e-07
1.82394e-07
1.85317e-07
1.90316e-07
1.96046e-07
2.3474e-07
1.92408e-07
1.92904e-07
1.9079e-07
1.85852e-07
1.8193e-07
1.81775e-07
1.86047e-07
1.9415e-07
1.97178e-07
1.95249e-07
1.87428e-07
1.92179e-07
1.86373e-07
1.76972e-07
1.71438e-07
1.71347e-07
1.76692e-07
1.86426e-07
1.92146e-07
1.89577e-07
1.83907e-07
1.85497e-07
1.76851e-07
1.66831e-07
1.61192e-07
1.61463e-07
1.66779e-07
1.76078e-07
1.84932e-07
1.84472e-07
1.81498e-07
1.8105e-07
1.70814e-07
1.61031e-07
1.56671e-07
1.56909e-07
1.61325e-07
1.70888e-07
1.80642e-07
1.81116e-07
1.81876e-07
1.808e-07
1.70472e-07
1.60827e-07
1.56703e-07
1.56825e-07
1.61197e-07
1.70844e-07
1.80735e-07
1.81259e-07
1.85173e-07
1.85067e-07
1.75656e-07
1.6624e-07
1.6114e-07
1.61239e-07
1.66419e-07
1.75942e-07
1.85077e-07
1.84765e-07
1.90031e-07
1.92164e-07
1.85994e-07
1.76011e-07
1.70751e-07
1.70853e-07
1.762e-07
1.86215e-07
1.9225e-07
1.89826e-07
1.95621e-07
1.97212e-07
1.93785e-07
1.85303e-07
1.8072e-07
1.80782e-07
1.85486e-07
1.93928e-07
1.97181e-07
1.95407e-07
2.3504e-07
1.96217e-07
1.9027e-07
1.84802e-07
1.81301e-07
1.81329e-07
1.84811e-07
1.90144e-07
1.95941e-07
2.34722e-07
2.35081e-07
1.87662e-07
1.78837e-07
1.75507e-07
1.73018e-07
1.72893e-07
1.75713e-07
1.80966e-07
1.91025e-07
2.34507e-07
1.87944e-07
1.84178e-07
1.82544e-07
1.77988e-07
1.74151e-07
1.73969e-07
1.78039e-07
1.85389e-07
1.87622e-07
1.90151e-07
1.78704e-07
1.83751e-07
1.78699e-07
1.69868e-07
1.64688e-07
1.64748e-07
1.69913e-07
1.78852e-07
1.83427e-07
1.80141e-07
1.74815e-07
1.77532e-07
1.69719e-07
1.60394e-07
1.55209e-07
1.55617e-07
1.60733e-07
1.69364e-07
1.77082e-07
1.75031e-07
1.72317e-07
1.73306e-07
1.64085e-07
1.55044e-07
1.51016e-07
1.51311e-07
1.5553e-07
1.64452e-07
1.73171e-07
1.71972e-07
1.72489e-07
1.73116e-07
1.63945e-07
1.55023e-07
1.51119e-07
1.51238e-07
1.55426e-07
1.64431e-07
1.73258e-07
1.72113e-07
1.75572e-07
1.77118e-07
1.6898e-07
1.60273e-07
1.55392e-07
1.55486e-07
1.60438e-07
1.69277e-07
1.77231e-07
1.75345e-07
1.80584e-07
1.83414e-07
1.78481e-07
1.69371e-07
1.6437e-07
1.6446e-07
1.69544e-07
1.78699e-07
1.8352e-07
1.80433e-07
1.9055e-07
1.87626e-07
1.8507e-07
1.77518e-07
1.73273e-07
1.73309e-07
1.77644e-07
1.8517e-07
1.87573e-07
1.90339e-07
2.34887e-07
1.91197e-07
1.80968e-07
1.75475e-07
1.72185e-07
1.72161e-07
1.75369e-07
1.80753e-07
1.90865e-07
2.34532e-07
1.93913e-07
1.88338e-07
1.72294e-07
1.67551e-07
1.64675e-07
1.64427e-07
1.67422e-07
1.73825e-07
1.91023e-07
1.93269e-07
1.88497e-07
1.76423e-07
1.74609e-07
1.70421e-07
1.6679e-07
1.66653e-07
1.70536e-07
1.77236e-07
1.79306e-07
1.90111e-07
1.71973e-07
1.75689e-07
1.71363e-07
1.63193e-07
1.58405e-07
1.58572e-07
1.63526e-07
1.7175e-07
1.75353e-07
1.72975e-07
1.66758e-07
1.69955e-07
1.63053e-07
1.54466e-07
1.4969e-07
1.50147e-07
1.5502e-07
1.63045e-07
1.69757e-07
1.66904e-07
1.6404e-07
1.66056e-07
1.57876e-07
1.49548e-07
1.45785e-07
1.46065e-07
1.50069e-07
1.58406e-07
1.6618e-07
1.63867e-07
1.64122e-07
1.6596e-07
1.57897e-07
1.49638e-07
1.45912e-07
1.46001e-07
1.49993e-07
1.58406e-07
1.66254e-07
1.63975e-07
1.67268e-07
1.69706e-07
1.62732e-07
1.54678e-07
1.50006e-07
1.50082e-07
1.54807e-07
1.63013e-07
1.69881e-07
1.67156e-07
1.7337e-07
1.75317e-07
1.71459e-07
1.63141e-07
1.58389e-07
1.58464e-07
1.63288e-07
1.71654e-07
1.75414e-07
1.7321e-07
1.90516e-07
1.79306e-07
1.76985e-07
1.70223e-07
1.66284e-07
1.66297e-07
1.70289e-07
1.7703e-07
1.79203e-07
1.90238e-07
1.9371e-07
1.91207e-07
1.7385e-07
1.67364e-07
1.64041e-07
1.63977e-07
1.67168e-07
1.73554e-07
1.90806e-07
1.93272e-07
1.01277e-07
1.91877e-07
1.68004e-07
1.60734e-07
1.57356e-07
1.57165e-07
1.6069e-07
1.69428e-07
1.94302e-07
1.01506e-07
1.91998e-07
1.6982e-07
1.67014e-07
1.63192e-07
1.5988e-07
1.59844e-07
1.63561e-07
1.69765e-07
1.72605e-07
1.93391e-07
1.67638e-07
1.68039e-07
1.6442e-07
1.56983e-07
1.52599e-07
1.52839e-07
1.57564e-07
1.65142e-07
1.67983e-07
1.68613e-07
1.60022e-07
1.62833e-07
1.56898e-07
1.49054e-07
1.44623e-07
1.45066e-07
1.49684e-07
1.57156e-07
1.62963e-07
1.60358e-07
1.56894e-07
1.59332e-07
1.52197e-07
1.44526e-07
1.4096e-07
1.41186e-07
1.44981e-07
1.52785e-07
1.59679e-07
1.56974e-07
1.56989e-07
1.59333e-07
1.52309e-07
1.44645e-07
1.41066e-07
1.41122e-07
1.44932e-07
1.52802e-07
1.59737e-07
1.57042e-07
1.60547e-07
1.62814e-07
1.56883e-07
1.49426e-07
1.44959e-07
1.4503e-07
1.49549e-07
1.57175e-07
1.6306e-07
1.60532e-07
1.6893e-07
1.67896e-07
1.6489e-07
1.57283e-07
1.5278e-07
1.52857e-07
1.57444e-07
1.6511e-07
1.68032e-07
1.68787e-07
1.93779e-07
1.72597e-07
1.69576e-07
1.6341e-07
1.59749e-07
1.59754e-07
1.63458e-07
1.69615e-07
1.72506e-07
1.93487e-07
1.02006e-07
1.9454e-07
1.69516e-07
1.60797e-07
1.57096e-07
1.57012e-07
1.60552e-07
1.69181e-07
1.94116e-07
1.01546e-07
4.81064e-07
1.89964e-07
1.66523e-07
1.55716e-07
1.51541e-07
1.5145e-07
1.55879e-07
1.68039e-07
1.92266e-07
4.83815e-07
1.90073e-07
1.64927e-07
1.60093e-07
1.56507e-07
1.53521e-07
1.53564e-07
1.57085e-07
1.63e-07
1.67783e-07
1.91407e-07
1.66162e-07
1.61097e-07
1.57988e-07
1.51283e-07
1.4726e-07
1.47502e-07
1.51947e-07
1.5891e-07
1.61306e-07
1.67266e-07
1.55094e-07
1.56257e-07
1.51256e-07
1.44103e-07
1.39931e-07
1.40293e-07
1.44634e-07
1.5157e-07
1.56583e-07
1.55639e-07
1.51196e-07
1.53127e-07
1.46968e-07
1.39878e-07
1.36443e-07
1.36578e-07
1.40158e-07
1.47452e-07
1.53531e-07
1.51442e-07
1.51336e-07
1.5318e-07
1.4709e-07
1.39953e-07
1.3649e-07
1.36501e-07
1.40124e-07
1.47473e-07
1.53569e-07
1.51477e-07
1.55727e-07
1.56405e-07
1.51361e-07
1.44446e-07
1.40174e-07
1.4023e-07
1.44535e-07
1.51606e-07
1.56646e-07
1.55744e-07
1.67519e-07
1.6121e-07
1.58704e-07
1.51725e-07
1.47458e-07
1.47527e-07
1.51867e-07
1.58899e-07
1.61337e-07
1.67382e-07
1.9177e-07
1.67795e-07
1.62874e-07
1.5701e-07
1.53571e-07
1.53565e-07
1.57021e-07
1.62873e-07
1.67688e-07
1.9147e-07
4.84361e-07
1.92569e-07
1.68176e-07
1.56036e-07
1.51508e-07
1.51409e-07
1.55756e-07
1.67805e-07
1.92108e-07
4.83654e-07
4.73667e-06
1.62915e-07
1.67002e-07
1.5278e-07
1.47442e-07
1.47447e-07
1.5315e-07
1.68681e-07
1.65e-07
4.74879e-06
1.63e-07
1.61935e-07
1.54131e-07
1.50426e-07
1.47693e-07
1.47779e-07
1.51127e-07
1.57118e-07
1.64877e-07
1.64312e-07
1.66732e-07
1.55177e-07
1.52122e-07
1.46052e-07
1.42333e-07
1.42543e-07
1.46691e-07
1.53082e-07
1.55493e-07
1.67956e-07
1.5238e-07
1.50386e-07
1.4613e-07
1.39563e-07
1.35582e-07
1.35841e-07
1.39912e-07
1.46326e-07
1.5066e-07
1.52954e-07
1.47336e-07
1.47545e-07
1.42207e-07
1.35588e-07
1.32235e-07
1.3228e-07
1.35654e-07
1.4245e-07
1.47766e-07
1.47507e-07
1.47522e-07
1.47613e-07
1.42292e-07
1.35593e-07
1.32221e-07
1.32189e-07
1.35629e-07
1.42467e-07
1.47786e-07
1.47525e-07
1.5314e-07
1.50622e-07
1.46246e-07
1.39794e-07
1.35703e-07
1.35739e-07
1.39823e-07
1.46352e-07
1.50694e-07
1.53026e-07
1.68297e-07
1.55515e-07
1.52982e-07
1.46525e-07
1.42474e-07
1.42522e-07
1.46608e-07
1.53067e-07
1.55514e-07
1.68048e-07
1.64787e-07
1.65021e-07
1.57113e-07
1.51118e-07
1.47817e-07
1.47789e-07
1.51055e-07
1.56999e-07
1.64797e-07
1.64376e-07
4.7483e-06
1.65491e-07
1.68949e-07
1.53376e-07
1.47583e-07
1.4746e-07
1.53029e-07
1.68476e-07
1.64884e-07
4.74771e-06
2.57327e-05
1.08084e-07
1.65491e-07
1.51663e-07
1.45087e-07
1.45114e-07
1.52075e-07
1.67162e-07
1.09366e-07
2.57705e-05
1.08125e-07
1.59836e-07
1.49289e-07
1.44947e-07
1.4233e-07
1.42423e-07
1.4566e-07
1.52247e-07
1.6272e-07
1.08965e-07
1.65342e-07
1.50416e-07
1.46658e-07
1.41112e-07
1.37655e-07
1.37822e-07
1.41679e-07
1.47568e-07
1.50674e-07
1.6652e-07
1.51451e-07
1.45056e-07
1.41242e-07
1.35194e-07
1.3139e-07
1.3157e-07
1.35396e-07
1.41314e-07
1.45187e-07
1.51882e-07
1.45155e-07
1.42323e-07
1.37593e-07
1.31413e-07
1.28164e-07
1.28156e-07
1.31354e-07
1.37675e-07
1.42349e-07
1.45127e-07
1.45339e-07
1.42365e-07
1.37628e-07
1.31353e-07
1.28107e-07
1.28065e-07
1.31338e-07
1.37687e-07
1.42362e-07
1.45149e-07
1.52231e-07
1.45277e-07
1.4129e-07
1.35306e-07
1.31417e-07
1.31455e-07
1.3532e-07
1.41333e-07
1.45216e-07
1.51964e-07
1.66985e-07
1.50816e-07
1.47542e-07
1.41546e-07
1.3773e-07
1.37764e-07
1.41596e-07
1.4756e-07
1.50711e-07
1.66624e-07
1.0949e-07
1.62981e-07
1.52327e-07
1.45692e-07
1.42447e-07
1.42404e-07
1.45579e-07
1.52152e-07
1.62677e-07
1.0904e-07
2.57653e-05
1.10049e-07
1.67569e-07
1.52362e-07
1.45253e-07
1.45108e-07
1.51952e-07
1.67008e-07
1.09316e-07
2.5766e-05
9.45955e-05
2.27933e-07
1.51962e-07
1.50335e-07
1.43648e-07
1.43679e-07
1.50748e-07
1.53578e-07
2.28936e-07
9.47102e-05
2.28685e-07
1.55194e-07
1.45663e-07
1.40071e-07
1.37398e-07
1.37502e-07
1.408e-07
1.4864e-07
1.58073e-07
2.27913e-07
1.51834e-07
1.46794e-07
1.41542e-07
1.36384e-07
1.33175e-07
1.33335e-07
1.36959e-07
1.42497e-07
1.47127e-07
1.53095e-07
1.50158e-07
1.40189e-07
1.36508e-07
1.30949e-07
1.27354e-07
1.27518e-07
1.31156e-07
1.36635e-07
1.40367e-07
1.50619e-07
1.4372e-07
1.37376e-07
1.331e-07
1.27368e-07
1.24273e-07
1.24278e-07
1.27343e-07
1.33228e-07
1.37447e-07
1.43715e-07
1.43887e-07
1.37408e-07
1.33117e-07
1.27288e-07
1.24218e-07
1.2421e-07
1.27345e-07
1.33245e-07
1.3747e-07
1.43767e-07
1.50934e-07
1.40407e-07
1.36552e-07
1.31046e-07
1.27383e-07
1.27451e-07
1.31121e-07
1.36675e-07
1.40437e-07
1.50781e-07
1.53534e-07
1.47259e-07
1.42478e-07
1.36856e-07
1.33279e-07
1.33321e-07
1.36931e-07
1.42551e-07
1.47242e-07
1.53302e-07
2.28293e-07
1.58343e-07
1.48764e-07
1.40888e-07
1.37577e-07
1.37541e-07
1.40799e-07
1.4865e-07
1.58152e-07
2.28014e-07
9.46937e-05
2.29159e-07
1.54087e-07
1.51141e-07
1.43894e-07
1.43761e-07
1.50749e-07
1.53588e-07
2.28853e-07
9.46973e-05
0.000260401
1.62636e-06
1.17972e-07
1.44005e-07
1.40877e-07
1.4088e-07
1.44349e-07
1.19294e-07
1.63058e-06
0.00026068
1.63072e-06
1.41736e-07
1.43181e-07
1.35893e-07
1.3294e-07
1.33033e-07
1.36593e-07
1.46113e-07
1.44325e-07
1.62393e-06
1.17995e-07
1.4432e-07
1.36893e-07
1.31863e-07
1.28847e-07
1.29008e-07
1.32445e-07
1.37853e-07
1.44666e-07
1.18997e-07
1.43842e-07
1.36005e-07
1.31976e-07
1.26813e-07
1.23421e-07
1.23589e-07
1.2706e-07
1.32162e-07
1.36198e-07
1.4427e-07
1.40908e-07
1.32887e-07
1.28761e-07
1.23432e-07
1.205e-07
1.20534e-07
1.23465e-07
1.28942e-07
1.32996e-07
1.40919e-07
1.41036e-07
1.32909e-07
1.2878e-07
1.23364e-07
1.20473e-07
1.20494e-07
1.23482e-07
1.28961e-07
1.33024e-07
1.41006e-07
1.44527e-07
1.36181e-07
1.32046e-07
1.26948e-07
1.23499e-07
1.23581e-07
1.27049e-07
1.32207e-07
1.36293e-07
1.44507e-07
1.19391e-07
1.44733e-07
1.37827e-07
1.32375e-07
1.2899e-07
1.29027e-07
1.32449e-07
1.37933e-07
1.44815e-07
1.19275e-07
1.62371e-06
1.445e-07
1.46212e-07
1.36687e-07
1.33123e-07
1.33102e-07
1.36634e-07
1.46185e-07
1.44463e-07
1.6229e-06
0.000260625
1.6287e-06
1.19685e-07
1.4469e-07
1.41073e-07
1.40985e-07
1.44428e-07
1.19386e-07
1.62878e-06
0.000260629
0.000572665
8.23011e-06
1.09198e-07
1.25577e-07
1.31747e-07
1.31712e-07
1.25797e-07
1.09879e-07
8.2517e-06
0.000573292
8.24483e-06
1.15875e-07
1.41005e-07
1.32315e-07
1.28884e-07
1.28965e-07
1.32982e-07
1.43863e-07
1.17594e-07
8.22473e-06
1.09661e-07
1.42161e-07
1.32715e-07
1.27478e-07
1.24592e-07
1.2477e-07
1.28096e-07
1.3369e-07
1.42475e-07
1.09463e-07
1.25516e-07
1.32448e-07
1.27596e-07
1.2273e-07
1.1954e-07
1.19731e-07
1.23053e-07
1.27849e-07
1.3261e-07
1.25751e-07
1.31822e-07
1.28843e-07
1.24529e-07
1.19564e-07
1.16804e-07
1.1688e-07
1.19669e-07
1.24748e-07
1.28933e-07
1.31726e-07
1.31891e-07
1.28859e-07
1.24572e-07
1.1954e-07
1.16832e-07
1.16875e-07
1.19698e-07
1.24762e-07
1.28944e-07
1.31811e-07
1.26013e-07
1.32569e-07
1.27736e-07
1.22969e-07
1.19727e-07
1.19807e-07
1.23057e-07
1.27863e-07
1.32663e-07
1.25961e-07
1.09925e-07
1.42459e-07
1.3366e-07
1.28078e-07
1.24828e-07
1.24843e-07
1.2811e-07
1.3373e-07
1.42535e-07
1.09744e-07
8.2236e-06
1.17681e-07
1.43912e-07
1.33085e-07
1.29086e-07
1.29059e-07
1.33006e-07
1.43876e-07
1.1763e-07
8.22147e-06
0.000573172
8.24615e-06
1.10153e-07
1.26062e-07
1.31883e-07
1.31819e-07
1.25883e-07
1.09826e-07
8.24591e-06
0.000573205
0.00105796
2.99014e-05
4.26874e-07
1.00216e-07
1.11935e-07
1.11831e-07
1.00182e-07
4.2694e-07
2.99696e-05
0.0010591
2.99331e-05
9.995e-08
1.37428e-07
1.2928e-07
1.25345e-07
1.25402e-07
1.29873e-07
1.40078e-07
9.97106e-08
2.98931e-05
4.28443e-07
1.38574e-07
1.29281e-07
1.23427e-07
1.20583e-07
1.20768e-07
1.24053e-07
1.30237e-07
1.38783e-07
4.24798e-07
1.003e-07
1.29421e-07
1.23547e-07
1.18877e-07
1.15879e-07
1.1609e-07
1.19255e-07
1.2384e-07
1.29533e-07
1.00181e-07
1.12097e-07
1.25332e-07
1.20559e-07
1.15928e-07
1.1335e-07
1.13457e-07
1.16087e-07