/*--------------------------------*- C++ -*----------------------------------*\
| =========                 |                                                 |
| \\      /  F ield         | OpenFOAM: The Open Source CFD Toolbox           |
|  \\    /   O peration     | Version:  2406                                  |
|   \\  /    A nd           | Website:  www.openfoam.com                      |
|    \\/     M anipulation  |                                                 |
\*---------------------------------------------------------------------------*/
FoamFile
{
    version     2.0;
    format      ascii;
    arch        "LSB;label=32;scalar=64";
    class       volSymmTensorField;
    location    "500";
    object      turbulenceProperties:R;
}
// * * * * * * * * * * * * * * * * * * * * * * * * * * * * * * * * * * * * * //

dimensions      [0 2 -2 0 0 0 0];

internalField   nonuniform List<symmTensor> 
25000
(
(3.23806e-05 -1.06121e-06 -5.82389e-07 3.24584e-05 -5.8813e-07 2.64255e-05)
(2.839e-05 9.24265e-07 -3.91951e-07 2.72674e-05 -5.20858e-07 2.2608e-05)
(2.27387e-05 4.35518e-07 -2.91661e-07 2.27915e-05 -5.40407e-07 1.82781e-05)
(2.27954e-05 2.78873e-07 -1.7021e-07 2.28126e-05 -5.43386e-07 1.82585e-05)
(2.27105e-05 1.03166e-07 -5.42389e-08 2.27596e-05 -5.43914e-07 1.81793e-05)
(2.27691e-05 -8.36204e-08 6.10598e-08 2.27826e-05 -5.44196e-07 1.82112e-05)
(2.30709e-05 -2.54361e-07 1.76579e-07 2.29288e-05 -5.43623e-07 1.84138e-05)
(2.36281e-05 -4.13913e-07 2.93921e-07 2.31779e-05 -5.41177e-07 1.87926e-05)
(2.61713e-05 -6.87027e-07 4.16077e-07 2.48163e-05 -5.25322e-07 2.06711e-05)
(2.65561e-05 1.49644e-06 5.92259e-07 2.65525e-05 -5.90866e-07 2.19865e-05)
(2.73694e-05 8.87049e-07 -5.14667e-07 2.85387e-05 -3.94455e-07 2.27009e-05)
(2.45675e-05 1.1671e-07 -4.07635e-07 2.46129e-05 -4.11677e-07 1.96981e-05)
(2.23586e-05 2.18528e-07 -3.03096e-07 2.25812e-05 -4.17223e-07 1.79755e-05)
(2.13725e-05 1.61745e-07 -1.81542e-07 2.15373e-05 -4.25372e-07 1.71387e-05)
(2.09433e-05 5.62248e-08 -5.83811e-08 2.10431e-05 -4.30021e-07 1.67531e-05)
(2.10065e-05 -6.04104e-08 6.45784e-08 2.10781e-05 -4.30355e-07 1.67927e-05)
(2.15691e-05 -1.83003e-07 1.87126e-07 2.1639e-05 -4.26415e-07 1.72599e-05)
(2.26945e-05 -3.16758e-07 3.07218e-07 2.27725e-05 -4.19105e-07 1.81978e-05)
(2.48261e-05 -4.76835e-07 4.12154e-07 2.48308e-05 -4.10356e-07 1.99394e-05)
(2.48317e-05 -6.89259e-07 5.26323e-07 2.61894e-05 -4.1407e-07 2.06864e-05)
(2.29503e-05 3.87491e-07 -5.37974e-07 2.28803e-05 -2.91753e-07 1.8384e-05)
(2.26499e-05 1.93385e-07 -4.14314e-07 2.24698e-05 -3.05164e-07 1.80428e-05)
(2.09645e-05 1.39698e-07 -3.05783e-07 2.09902e-05 -3.0799e-07 1.67448e-05)
(1.99867e-05 9.53927e-08 -1.85206e-07 2.00519e-05 -3.10495e-07 1.59586e-05)
(1.95516e-05 2.92509e-08 -6.01118e-08 1.96084e-05 -3.12549e-07 1.55952e-05)
(1.95903e-05 -4.74642e-08 6.55626e-08 1.96328e-05 -3.12856e-07 1.56211e-05)
(2.00976e-05 -1.30707e-07 1.90349e-07 2.01257e-05 -3.11479e-07 1.60354e-05)
(2.11018e-05 -2.17094e-07 3.11103e-07 2.11089e-05 -3.08894e-07 1.68562e-05)
(2.27626e-05 -3.17196e-07 4.20493e-07 2.26975e-05 -3.04713e-07 1.81969e-05)
(2.31978e-05 -4.16532e-07 5.42214e-07 2.36551e-05 -2.91633e-07 1.88123e-05)
(2.29189e-05 2.58543e-07 -5.41278e-07 2.28666e-05 -1.70119e-07 1.83268e-05)
(2.15834e-05 1.37512e-07 -4.2305e-07 2.14315e-05 -1.82667e-07 1.71789e-05)
(2.0058e-05 8.5385e-08 -3.08552e-07 2.00232e-05 -1.86671e-07 1.59748e-05)
(1.90781e-05 5.23891e-08 -1.86728e-07 1.90918e-05 -1.88359e-07 1.51896e-05)
(1.86159e-05 1.30646e-08 -6.09456e-08 1.86402e-05 -1.89434e-07 1.48132e-05)
(1.86418e-05 -3.20599e-08 6.5877e-08 1.86613e-05 -1.89732e-07 1.48324e-05)
(1.91421e-05 -8.09056e-08 1.91735e-07 1.91509e-05 -1.89121e-07 1.52408e-05)
(2.01289e-05 -1.2998e-07 3.13645e-07 2.01189e-05 -1.87695e-07 1.60454e-05)
(2.16522e-05 -1.84076e-07 4.28123e-07 2.16012e-05 -1.84352e-07 1.72782e-05)
(2.29582e-05 -2.58418e-07 5.44671e-07 2.3114e-05 -1.73848e-07 1.84438e-05)
(2.28277e-05 9.2161e-08 -5.43141e-07 2.27452e-05 -5.39073e-08 1.8221e-05)
(2.10906e-05 3.99034e-08 -4.28169e-07 2.09849e-05 -5.88127e-08 1.67889e-05)
(1.96172e-05 1.84189e-08 -3.10733e-07 1.95746e-05 -6.09895e-08 1.56078e-05)
(1.86353e-05 8.6805e-09 -1.87975e-07 1.86301e-05 -6.20252e-08 1.48167e-05)
(1.8162e-05 -1.3482e-09 -6.15367e-08 1.81699e-05 -6.27121e-08 1.4432e-05)
(1.81758e-05 -1.39821e-08 6.59554e-08 1.81836e-05 -6.29767e-08 1.44433e-05)
(1.86708e-05 -2.87069e-08 1.92343e-07 1.86708e-05 -6.28859e-08 1.48481e-05)
(1.96558e-05 -4.37758e-08 3.15174e-07 1.96399e-05 -6.24749e-08 1.56504e-05)
(2.11109e-05 -6.07988e-08 4.32125e-07 2.10726e-05 -6.12984e-08 1.68326e-05)
(2.28251e-05 -9.03472e-08 5.45099e-07 2.28397e-05 -5.76778e-08 1.82572e-05)
(2.2818e-05 -8.82052e-08 -5.43448e-07 2.27818e-05 6.17012e-08 1.82313e-05)
(2.11079e-05 -7.1281e-08 -4.29182e-07 2.1027e-05 6.46492e-08 1.68138e-05)
(1.96456e-05 -5.66487e-08 -3.11472e-07 1.96068e-05 6.51715e-08 1.56333e-05)
(1.86592e-05 -3.72344e-08 -1.88358e-07 1.86502e-05 6.52017e-08 1.48351e-05)
(1.81783e-05 -1.60092e-08 -6.18974e-08 1.8182e-05 6.51677e-08 1.44437e-05)
(1.81862e-05 4.40169e-09 6.57021e-08 1.81909e-05 6.4848e-08 1.44504e-05)
(1.86765e-05 2.37368e-08 1.92162e-07 1.86749e-05 6.43181e-08 1.4852e-05)
(1.96588e-05 4.12765e-08 3.15032e-07 1.96421e-05 6.35865e-08 1.56524e-05)
(2.11124e-05 5.95227e-08 4.32025e-07 2.10738e-05 6.21805e-08 1.68336e-05)
(2.28254e-05 8.96217e-08 5.45035e-07 2.28399e-05 5.83848e-08 1.82574e-05)
(2.29495e-05 -2.57665e-07 -5.43636e-07 2.30746e-05 1.7733e-07 1.84242e-05)
(2.16678e-05 -1.89761e-07 -4.25536e-07 2.1587e-05 1.87409e-07 1.728e-05)
(2.01361e-05 -1.37169e-07 -3.10349e-07 2.01079e-05 1.90343e-07 1.60446e-05)
(1.91532e-05 -8.57098e-08 -1.88045e-07 1.91507e-05 1.91452e-07 1.52455e-05)
(1.86692e-05 -3.13668e-08 -6.19018e-08 1.86772e-05 1.91915e-07 1.485e-05)
(1.8673e-05 2.26111e-08 6.51105e-08 1.86826e-05 1.91625e-07 1.48536e-05)
(1.91594e-05 7.60892e-08 1.91168e-07 1.91628e-05 1.9058e-07 1.52524e-05)
(2.01381e-05 1.27472e-07 3.13253e-07 2.01256e-05 1.88812e-07 1.60517e-05)
(2.16566e-05 1.82751e-07 4.27843e-07 2.16046e-05 1.85234e-07 1.72813e-05)
(2.2959e-05 2.57621e-07 5.44476e-07 2.31148e-05 1.74552e-07 1.84443e-05)
(2.31831e-05 -4.14177e-07 -5.4117e-07 2.36224e-05 2.94678e-07 1.8792e-05)
(2.27857e-05 -3.20479e-07 -4.18251e-07 2.27001e-05 3.07575e-07 1.82085e-05)
(2.11234e-05 -2.21669e-07 -3.08082e-07 2.11151e-05 3.11379e-07 1.68683e-05)
(2.01253e-05 -1.33773e-07 -1.86834e-07 2.01394e-05 3.13847e-07 1.60525e-05)
(1.96411e-05 -4.66341e-08 -6.16736e-08 1.96631e-05 3.15091e-07 1.5654e-05)
(1.9642e-05 3.95083e-08 6.42975e-08 1.9665e-05 3.14855e-07 1.56549e-05)
(2.01251e-05 1.26532e-07 1.89392e-07 2.01437e-05 3.12964e-07 1.60535e-05)
(2.11163e-05 2.14823e-07 3.10392e-07 2.11191e-05 3.1004e-07 1.6866e-05)
(2.27701e-05 3.1576e-07 4.19997e-07 2.27031e-05 3.05602e-07 1.82019e-05)
(2.31989e-05 4.15604e-07 5.41885e-07 2.36561e-05 2.92342e-07 1.88129e-05)
(2.48094e-05 -6.85046e-07 -5.25349e-07 2.61563e-05 4.1678e-07 2.06614e-05)
(2.48512e-05 -4.78233e-07 -4.09934e-07 2.48401e-05 4.12959e-07 1.99543e-05)
(2.27205e-05 -3.2051e-07 -3.04342e-07 2.27847e-05 4.21535e-07 1.82141e-05)
(2.16066e-05 -1.87322e-07 -1.83672e-07 2.16601e-05 4.28613e-07 1.72842e-05)
(2.10746e-05 -6.35696e-08 -6.06787e-08 2.11173e-05 4.32439e-07 1.68362e-05)
(2.10742e-05 5.72286e-08 6.27294e-08 2.11176e-05 4.32163e-07 1.68359e-05)
(2.16046e-05 1.81111e-07 1.85678e-07 2.16614e-05 4.27826e-07 1.72831e-05)
(2.27124e-05 3.15154e-07 3.0621e-07 2.27839e-05 4.20215e-07 1.82094e-05)
(2.48356e-05 4.75503e-07 4.11425e-07 2.48374e-05 4.1123e-07 1.99456e-05)
(2.48319e-05 6.87939e-07 5.25862e-07 2.61895e-05 4.14773e-07 2.06861e-05)
(2.65734e-05 1.49998e-06 -5.90625e-07 2.65771e-05 5.93039e-07 2.20052e-05)
(2.62106e-05 -6.91008e-07 -4.13777e-07 2.48516e-05 5.27313e-07 2.07029e-05)
(2.36637e-05 -4.1933e-07 -2.91152e-07 2.32067e-05 5.42875e-07 1.88201e-05)
(2.3118e-05 -2.61168e-07 -1.73366e-07 2.2964e-05 5.45249e-07 1.84483e-05)
(2.284e-05 -9.29366e-08 -5.72521e-08 2.28277e-05 5.45542e-07 1.82587e-05)
(2.2839e-05 8.73013e-08 5.87465e-08 2.28272e-05 5.45373e-07 1.82578e-05)
(2.31122e-05 2.5553e-07 1.74853e-07 2.29592e-05 5.44664e-07 1.84431e-05)
(2.36525e-05 4.13893e-07 2.9258e-07 2.31981e-05 5.41957e-07 1.88105e-05)
(2.61894e-05 6.87248e-07 4.15084e-07 2.48337e-05 5.25965e-07 2.06853e-05)
(2.65637e-05 -1.4969e-06 5.91517e-07 2.65645e-05 5.91425e-07 2.1994e-05)
(3.96355e-05 -1.08118e-06 1.20277e-06 3.96994e-05 1.22337e-06 3.26155e-05)
(3.66826e-05 7.49457e-07 7.0102e-07 3.50195e-05 1.10151e-06 2.92822e-05)
(3.28827e-05 1.72233e-07 5.31852e-07 3.2645e-05 1.00763e-06 2.64681e-05)
(3.29741e-05 1.76678e-07 3.34749e-07 3.27376e-05 9.66577e-07 2.64596e-05)
(3.26499e-05 6.63037e-08 1.07991e-07 3.25012e-05 9.40633e-07 2.61882e-05)
(3.26538e-05 -6.17874e-08 -1.24848e-07 3.24913e-05 9.38885e-07 2.61861e-05)
(3.29739e-05 -1.70445e-07 -3.60022e-07 3.26949e-05 9.60659e-07 2.64449e-05)
(3.35921e-05 -1.85564e-07 -5.96977e-07 3.30719e-05 9.98535e-07 2.69371e-05)
(3.64347e-05 -6.80446e-07 -8.32583e-07 3.47191e-05 1.09221e-06 2.90923e-05)
(3.6546e-05 1.30093e-06 -1.16261e-06 3.65427e-05 1.16186e-06 3.02229e-05)
(3.51331e-05 7.18243e-07 1.08054e-06 3.68356e-05 7.14509e-07 2.93756e-05)
(3.33083e-05 1.33694e-07 7.32764e-07 3.3352e-05 7.5117e-07 2.684e-05)
(3.23549e-05 1.38153e-07 5.02098e-07 3.24498e-05 7.44814e-07 2.60097e-05)
(3.1952e-05 6.00211e-08 3.02119e-07 3.18899e-05 7.21656e-07 2.55648e-05)
(3.16213e-05 1.51635e-08 9.53138e-08 3.15079e-05 7.06933e-07 2.5251e-05)
(3.1638e-05 -2.56188e-08 -1.15064e-07 3.15188e-05 7.06952e-07 2.5263e-05)
(3.19955e-05 -7.44105e-08 -3.30418e-07 3.19116e-05 7.2269e-07 2.5595e-05)
(3.25394e-05 -1.57464e-07 -5.51417e-07 3.25883e-05 7.53857e-07 2.61457e-05)
(3.38732e-05 -3.7036e-07 -7.96797e-07 3.38815e-05 7.9569e-07 2.73337e-05)
(3.47301e-05 -6.83672e-07 -1.09196e-06 3.64516e-05 8.3079e-07 2.91076e-05)
(3.27594e-05 1.3219e-07 9.98244e-07 3.29837e-05 5.31674e-07 2.65436e-05)
(3.25174e-05 1.18319e-07 7.31366e-07 3.24574e-05 5.1159e-07 2.60667e-05)
(3.12762e-05 1.172e-07 4.93201e-07 3.12966e-05 5.0412e-07 2.50223e-05)
(3.08874e-05 6.54034e-08 2.89699e-07 3.0837e-05 4.91356e-07 2.46342e-05)
(3.06795e-05 1.58915e-08 9.10689e-08 3.06043e-05 4.84092e-07 2.44332e-05)
(3.06948e-05 -3.01717e-08 -1.08277e-07 3.06173e-05 4.85423e-07 2.44455e-05)
(3.09553e-05 -8.13805e-08 -3.11536e-07 3.08948e-05 4.9698e-07 2.4688e-05)
(3.13969e-05 -1.36835e-07 -5.21351e-07 3.14051e-05 5.19355e-07 2.5124e-05)
(3.25399e-05 -1.57266e-07 -7.53093e-07 3.2509e-05 5.4815e-07 2.61203e-05)
(3.3085e-05 -1.87843e-07 -9.98711e-07 3.36158e-05 5.95107e-07 2.69523e-05)
(3.27936e-05 1.59861e-07 9.62887e-07 3.30068e-05 3.29839e-07 2.64904e-05)
(3.19043e-05 4.25484e-08 7.12229e-07 3.19805e-05 3.03701e-07 2.55786e-05)
(3.08392e-05 5.92134e-08 4.82303e-07 3.09131e-05 2.95239e-07 2.46432e-05)
(3.03241e-05 3.94684e-08 2.8075e-07 3.03345e-05 2.87083e-07 2.41582e-05)
(3.00738e-05 8.73918e-09 8.85923e-08 3.00546e-05 2.82525e-07 2.39247e-05)
(3.00932e-05 -2.17671e-08 -1.01981e-07 3.00721e-05 2.84132e-07 2.39398e-05)
(3.03689e-05 -5.39995e-08 -2.96077e-07 3.03769e-05 2.92701e-07 2.41959e-05)
(3.08872e-05 -8.02137e-08 -4.98728e-07 3.09651e-05 3.07838e-07 2.46897e-05)
(3.19091e-05 -7.42631e-08 -7.23243e-07 3.20132e-05 3.26727e-07 2.56013e-05)
(3.27106e-05 -1.73318e-07 -9.60398e-07 3.3006e-05 3.56874e-07 2.64638e-05)
(3.25605e-05 5.39034e-08 9.40344e-07 3.26867e-05 1.03162e-07 2.62251e-05)
(3.1543e-05 2.11652e-09 7.01281e-07 3.16556e-05 9.40899e-08 2.52768e-05)
(3.0604e-05 8.29071e-09 4.77179e-07 3.06932e-05 9.30292e-08 2.44372e-05)
(3.00516e-05 5.47562e-09 2.76911e-07 3.00875e-05 9.21661e-08 2.3928e-05)
(2.98033e-05 -1.94238e-09 8.80263e-08 2.98103e-05 9.19081e-08 2.3695e-05)
(2.98111e-05 -1.0324e-08 -9.81918e-08 2.98181e-05 9.32014e-08 2.37017e-05)
(3.00727e-05 -1.99053e-08 -2.87632e-07 3.01094e-05 9.65328e-08 2.39472e-05)
(3.06247e-05 -2.70341e-08 -4.8752e-07 3.07221e-05 1.01939e-07 2.44597e-05)
(3.15234e-05 -2.37111e-08 -7.07269e-07 3.16692e-05 1.08267e-07 2.52774e-05)
(3.25054e-05 -6.42043e-08 -9.37645e-07 3.26948e-05 1.19012e-07 2.62076e-05)
(3.25338e-05 -6.89933e-08 9.39686e-07 3.26812e-05 -1.29179e-07 2.62142e-05)
(3.15399e-05 -3.59317e-08 7.039e-07 3.16566e-05 -1.17302e-07 2.52781e-05)
(3.06271e-05 -3.80041e-08 4.80683e-07 3.07105e-05 -1.08168e-07 2.4455e-05)
(3.00673e-05 -2.60361e-08 2.79505e-07 3.00989e-05 -1.00339e-07 2.39402e-05)
(2.98136e-05 -1.21715e-08 8.96147e-08 2.98183e-05 -9.58697e-08 2.37025e-05)
(2.98188e-05 6.90746e-10 -9.73451e-08 2.98238e-05 -9.48745e-08 2.3707e-05)
(3.0077e-05 1.351e-08 -2.87242e-07 3.01126e-05 -9.71043e-08 2.39501e-05)
(3.0627e-05 2.27924e-08 -4.8737e-07 3.07236e-05 -1.02045e-07 2.44612e-05)
(3.15252e-05 2.0825e-08 -7.07231e-07 3.16703e-05 -1.08216e-07 2.52784e-05)
(3.2505e-05 6.20097e-08 -9.37647e-07 3.26944e-05 -1.18944e-07 2.62073e-05)
(3.27323e-05 -1.77453e-07 9.62222e-07 3.29968e-05 -3.6369e-07 2.64699e-05)
(3.19411e-05 -8.16956e-08 7.2111e-07 3.20178e-05 -3.32781e-07 2.56161e-05)
(3.08993e-05 -8.73429e-08 4.93644e-07 3.09627e-05 -3.12336e-07 2.46933e-05)
(3.03808e-05 -5.86627e-08 2.89231e-07 3.0381e-05 -2.95775e-07 2.4202e-05)
(3.0112e-05 -2.25486e-08 9.35306e-08 3.00843e-05 -2.86634e-07 2.39521e-05)
(3.01143e-05 1.22197e-08 -9.94383e-08 3.00883e-05 -2.85878e-07 2.39547e-05)
(3.03822e-05 4.75063e-08 -2.94903e-07 3.03864e-05 -2.93375e-07 2.42048e-05)
(3.08953e-05 7.57921e-08 -4.98261e-07 3.09707e-05 -3.08052e-07 2.46949e-05)
(3.19137e-05 7.12865e-08 -7.23106e-07 3.20163e-05 -3.26766e-07 2.56042e-05)
(3.27098e-05 1.71058e-07 -9.6038e-07 3.30053e-05 -3.56858e-07 2.64631e-05)
(3.30935e-05 -1.87806e-07 1.00007e-06 3.36038e-05 -6.00011e-07 2.69515e-05)
(3.25761e-05 -1.62011e-07 7.51573e-07 3.25226e-05 -5.52698e-07 2.61411e-05)
(3.14214e-05 -1.41652e-07 5.17271e-07 3.14147e-05 -5.22972e-07 2.51377e-05)
(3.09773e-05 -8.40796e-08 3.05367e-07 3.09057e-05 -4.99625e-07 2.4701e-05)
(3.07257e-05 -3.03273e-08 9.95318e-08 3.06364e-05 -4.87602e-07 2.44656e-05)
(3.07256e-05 2.06569e-08 -1.04035e-07 3.06372e-05 -4.86975e-07 2.44659e-05)
(3.09745e-05 7.44858e-08 -3.09587e-07 3.0907e-05 -4.97716e-07 2.47001e-05)
(3.14092e-05 1.32262e-07 -5.2055e-07 3.14129e-05 -5.19734e-07 2.51315e-05)
(3.25484e-05 1.54035e-07 -7.52819e-07 3.25143e-05 -5.48334e-07 2.61255e-05)
(3.30845e-05 1.85493e-07 -9.98642e-07 3.36152e-05 -5.95188e-07 2.69517e-05)
(3.4717e-05 -6.78787e-07 1.09269e-06 3.64221e-05 -8.34467e-07 2.90881e-05)
(3.39078e-05 -3.72141e-07 7.95393e-07 3.3893e-05 -7.99441e-07 2.73531e-05)
(3.25622e-05 -1.61044e-07 5.47955e-07 3.25937e-05 -7.57014e-07 2.61572e-05)
(3.20205e-05 -7.79929e-08 3.24947e-07 3.192e-05 -7.24926e-07 2.56085e-05)
(3.1672e-05 -2.70444e-08 1.06481e-07 3.1532e-05 -7.08276e-07 2.52821e-05)
(3.1672e-05 1.78001e-08 -1.09741e-07 3.15329e-05 -7.07722e-07 2.52823e-05)
(3.20199e-05 6.90146e-08 -3.27986e-07 3.19235e-05 -7.23275e-07 2.56092e-05)
(3.25543e-05 1.53163e-07 -5.50333e-07 3.25943e-05 -7.54313e-07 2.61535e-05)
(3.38821e-05 3.6708e-07 -7.96337e-07 3.38844e-05 -7.9601e-07 2.73378e-05)
(3.47248e-05 6.8039e-07 -1.09174e-06 3.64449e-05 -8.30966e-07 2.91016e-05)
(3.65765e-05 1.30407e-06 1.16275e-06 3.6579e-05 -1.1654e-06 3.0252e-05)
(3.64888e-05 -6.86341e-07 8.3115e-07 3.47654e-05 -1.09599e-06 2.91357e-05)
(3.36245e-05 -1.90548e-07 5.94188e-07 3.30937e-05 -1.00156e-06 2.69599e-05)
(3.3009e-05 -1.75826e-07 3.55654e-07 3.27154e-05 -9.62585e-07 2.64678e-05)
(3.26949e-05 -6.67654e-08 1.17824e-07 3.25078e-05 -9.39291e-07 2.62092e-05)
(3.26948e-05 5.9531e-08 -1.19952e-07 3.25086e-05 -9.38758e-07 2.62092e-05)
(3.30047e-05 1.68561e-07 -3.57641e-07 3.27129e-05 -9.61008e-07 2.64642e-05)
(3.36164e-05 1.83354e-07 -5.95798e-07 3.30894e-05 -9.98999e-07 2.69536e-05)
(3.64587e-05 6.79882e-07 -8.31992e-07 3.47402e-05 -1.09271e-06 2.91102e-05)
(3.65587e-05 -1.30215e-06 -1.16231e-06 3.65598e-05 -1.16221e-06 3.0235e-05)
(3.50089e-05 -2.74747e-07 1.56506e-06 3.5006e-05 1.58597e-06 2.94392e-05)
(3.16587e-05 4.07885e-07 1.01482e-06 3.06873e-05 1.43564e-06 2.59373e-05)
(2.97665e-05 -1.76785e-08 7.54592e-07 2.98135e-05 1.38782e-06 2.45354e-05)
(2.93705e-05 9.05549e-08 4.61372e-07 2.93693e-05 1.36821e-06 2.40675e-05)
(2.89471e-05 2.42266e-08 1.49206e-07 2.9024e-05 1.34858e-06 2.3689e-05)
(2.89656e-05 -2.47803e-08 -1.68951e-07 2.90345e-05 1.34758e-06 2.3701e-05)
(2.93342e-05 -8.98805e-08 -4.85551e-07 2.93408e-05 1.36425e-06 2.40461e-05)
(3.01384e-05 9.37836e-09 -8.02719e-07 3.00592e-05 1.38191e-06 2.47863e-05)
(3.18486e-05 -3.92561e-07 -1.11604e-06 3.09408e-05 1.43053e-06 2.6145e-05)
(3.34575e-05 3.35382e-07 -1.5466e-06 3.34563e-05 1.54478e-06 2.81928e-05)
(3.07862e-05 3.96522e-07 1.41536e-06 3.17525e-05 1.02906e-06 2.59953e-05)
(2.90965e-05 5.38982e-08 1.04358e-06 2.91184e-05 1.06225e-06 2.39069e-05)
(2.88426e-05 3.09086e-08 7.55552e-07 2.89324e-05 1.0681e-06 2.3541e-05)
(2.85501e-05 -3.71029e-09 4.57391e-07 2.85263e-05 1.06589e-06 2.31422e-05)
(2.82666e-05 -3.97015e-09 1.46285e-07 2.82451e-05 1.06244e-06 2.28581e-05)
(2.82782e-05 -1.0224e-09 -1.67845e-07 2.82559e-05 1.0627e-06 2.28686e-05)
(2.85671e-05 -7.38641e-09 -4.84114e-07 2.8544e-05 1.06787e-06 2.31629e-05)
(2.89534e-05 -2.39952e-08 -7.96728e-07 2.90395e-05 1.07749e-06 2.36386e-05)
(2.94475e-05 -1.79921e-07 -1.09351e-06 2.94516e-05 1.09079e-06 2.42215e-05)
(3.0923e-05 -3.94063e-07 -1.4303e-06 3.18342e-05 1.11182e-06 2.61349e-05)
(2.98606e-05 -3.41463e-08 1.37811e-06 2.9797e-05 7.55601e-07 2.45573e-05)
(2.89868e-05 2.24109e-08 1.05619e-06 2.89071e-05 7.67229e-07 2.35752e-05)
(2.81203e-05 4.88505e-08 7.55442e-07 2.81274e-05 7.67011e-07 2.27501e-05)
(2.77988e-05 2.39777e-08 4.55842e-07 2.77621e-05 7.61333e-07 2.23613e-05)
(2.75545e-05 6.25519e-09 1.46402e-07 2.75305e-05 7.59445e-07 2.21133e-05)
(2.75629e-05 -1.1672e-08 -1.65603e-07 2.75389e-05 7.60647e-07 2.21219e-05)
(2.78386e-05 -3.0096e-08 -4.77868e-07 2.78007e-05 7.66402e-07 2.23982e-05)
(2.82157e-05 -5.04937e-08 -7.82167e-07 2.82184e-05 7.78233e-07 2.28375e-05)
(2.89786e-05 -2.36397e-08 -1.07641e-06 2.89003e-05 7.90061e-07 2.36002e-05)
(3.00511e-05 9.26877e-09 -1.38278e-06 3.0135e-05 7.98663e-07 2.47817e-05)
(2.93728e-05 8.817e-08 1.36311e-06 2.93622e-05 4.58201e-07 2.40608e-05)
(2.8513e-05 -8.92502e-09 1.05584e-06 2.85414e-05 4.60576e-07 2.3128e-05)
(2.77598e-05 2.28338e-08 7.5169e-07 2.78029e-05 4.62603e-07 2.23585e-05)
(2.73649e-05 9.22077e-09 4.51412e-07 2.73677e-05 4.58853e-07 2.19125e-05)
(2.71092e-05 5.16108e-10 1.45626e-07 2.71091e-05 4.56925e-07 2.16519e-05)
(2.71218e-05 -6.31012e-09 -1.61886e-07 2.71209e-05 4.58397e-07 2.16625e-05)
(2.73875e-05 -1.51479e-08 -4.68938e-07 2.739e-05 4.63439e-07 2.19355e-05)
(2.77917e-05 -2.94528e-08 -7.69912e-07 2.78351e-05 4.71995e-07 2.23945e-05)
(2.85348e-05 -6.99384e-09 -1.06995e-06 2.85649e-05 4.78219e-07 2.31589e-05)
(2.93364e-05 -9.06065e-08 -1.36515e-06 2.93358e-05 4.80265e-07 2.40443e-05)
(2.90432e-05 2.11151e-08 1.34746e-06 2.8958e-05 1.45496e-07 2.36994e-05)
(2.82469e-05 -7.52221e-09 1.05571e-06 2.82676e-05 1.46288e-07 2.28551e-05)
(2.75179e-05 4.50295e-09 7.51443e-07 2.75466e-05 1.49484e-07 2.21022e-05)
(2.71069e-05 -5.02017e-10 4.5027e-07 2.71119e-05 1.50275e-07 2.16502e-05)
(2.68955e-05 -2.57598e-09 1.46133e-07 2.68972e-05 1.51126e-07 2.14213e-05)
(2.68996e-05 -3.38865e-09 -1.59635e-07 2.69017e-05 1.52336e-07 2.14259e-05)
(2.71191e-05 -5.82039e-09 -4.63899e-07 2.71247e-05 1.54259e-07 2.16644e-05)
(2.75422e-05 -1.07591e-08 -7.64736e-07 2.75723e-05 1.57359e-07 2.21279e-05)
(2.82512e-05 -1.50943e-10 -1.06486e-06 2.82825e-05 1.59202e-07 2.2869e-05)
(2.90287e-05 -2.49255e-08 -1.34767e-06 2.89694e-05 1.6111e-07 2.36995e-05)
(2.90494e-05 -2.5645e-08 1.34755e-06 2.8975e-05 -1.72897e-07 2.37106e-05)
(2.82507e-05 -3.58483e-09 1.05878e-06 2.82729e-05 -1.69468e-07 2.28625e-05)
(2.75317e-05 -1.37294e-08 7.54873e-07 2.7557e-05 -1.64767e-07 2.21145e-05)
(2.71088e-05 -7.41929e-09 4.52545e-07 2.71121e-05 -1.59421e-07 2.1653e-05)
(2.68977e-05 -3.96545e-09 1.47687e-07 2.68984e-05 -1.56465e-07 2.14233e-05)
(2.69022e-05 -1.41569e-09 -1.58738e-07 2.69028e-05 -1.55362e-07 2.14275e-05)
(2.71201e-05 2.35194e-09 -4.6343e-07 2.7125e-05 -1.56035e-07 2.16648e-05)
(2.75425e-05 8.2138e-09 -7.64504e-07 2.75721e-05 -1.58485e-07 2.21279e-05)
(2.82516e-05 -1.81953e-09 -1.06475e-06 2.82825e-05 -1.59994e-07 2.28692e-05)
(2.90281e-05 2.30922e-08 -1.34761e-06 2.89688e-05 -1.61718e-07 2.36989e-05)
(2.93627e-05 -9.20028e-08 1.36561e-06 2.93495e-05 -4.89278e-07 2.40625e-05)
(2.85463e-05 -8.86983e-09 1.06534e-06 2.85666e-05 -4.86205e-07 2.31633e-05)
(2.77866e-05 -3.12864e-08 7.61925e-07 2.78252e-05 -4.78291e-07 2.2387e-05)
(2.73853e-05 -1.64795e-08 4.58981e-07 2.73848e-05 -4.68246e-07 2.19313e-05)
(2.71259e-05 -6.4689e-09 1.50289e-07 2.71217e-05 -4.62484e-07 2.16644e-05)
(2.71293e-05 1.97041e-09 -1.59241e-07 2.7126e-05 -4.61563e-07 2.16679e-05)
(2.73918e-05 1.18716e-08 -4.67544e-07 2.73921e-05 -4.65382e-07 2.1938e-05)
(2.7794e-05 2.69189e-08 -7.69205e-07 2.78358e-05 -4.73252e-07 2.23956e-05)
(2.85357e-05 5.11063e-09 -1.0696e-06 2.85648e-05 -4.79107e-07 2.31593e-05)
(2.93345e-05 8.88943e-08 -1.36496e-06 2.9334e-05 -4.80931e-07 2.40428e-05)
(3.00751e-05 9.30504e-09 1.383e-06 3.01505e-05 -8.05942e-07 2.48001e-05)
(2.89937e-05 -2.50635e-08 1.07275e-06 2.89076e-05 -7.96889e-07 2.36096e-05)
(2.82193e-05 -5.16241e-08 7.75401e-07 2.82173e-05 -7.83939e-07 2.28381e-05)
(2.78412e-05 -3.02326e-08 4.68813e-07 2.77997e-05 -7.71119e-07 2.23984e-05)
(2.75731e-05 -1.16591e-08 1.54128e-07 2.75446e-05 -7.64735e-07 2.21288e-05)
(2.75748e-05 7.74625e-09 -1.61241e-07 2.75464e-05 -7.63923e-07 2.21303e-05)
(2.78443e-05 2.64774e-08 -4.75513e-07 2.78037e-05 -7.68543e-07 2.24018e-05)
(2.82194e-05 4.79659e-08 -7.80911e-07 2.822e-05 -7.79722e-07 2.28396e-05)
(2.89817e-05 2.17423e-08 -1.07576e-06 2.89015e-05 -7.91109e-07 2.36019e-05)
(3.00496e-05 -1.0655e-08 -1.38244e-06 3.01336e-05 -7.99417e-07 2.47807e-05)
(3.09392e-05 -3.91393e-07 1.43006e-06 3.18417e-05 -1.11778e-06 2.61457e-05)
(2.94629e-05 -1.80284e-07 1.09005e-06 2.94565e-05 -1.09677e-06 2.42307e-05)
(2.89576e-05 -2.46631e-08 7.90728e-07 2.90365e-05 -1.08287e-06 2.36395e-05)
(2.85707e-05 -7.9603e-09 4.75882e-07 2.8541e-05 -1.07226e-06 2.31635e-05)
(2.82854e-05 -9.30951e-10 1.5678e-07 2.82551e-05 -1.06615e-06 2.28721e-05)
(2.82863e-05 -2.6283e-09 -1.62112e-07 2.82562e-05 -1.06535e-06 2.28729e-05)
(2.85737e-05 4.4471e-09 -4.80903e-07 2.85456e-05 -1.06994e-06 2.31664e-05)
(2.89582e-05 2.14417e-08 -7.94915e-07 2.90396e-05 -1.07906e-06 2.36405e-05)
(2.94502e-05 1.77982e-07 -1.09245e-06 2.94506e-05 -1.09195e-06 2.42219e-05)
(3.09196e-05 3.9194e-07 -1.42965e-06 3.18298e-05 -1.11261e-06 2.61313e-05)
(3.3479e-05 3.35853e-07 1.54535e-06 3.3477e-05 -1.54988e-06 2.82122e-05)
(3.18629e-05 -3.95323e-07 1.1125e-06 3.09493e-05 -1.43579e-06 2.61569e-05)
(3.01408e-05 9.10225e-09 7.97457e-07 3.00546e-05 -1.38639e-06 2.47867e-05)
(2.93383e-05 -9.03332e-08 4.78589e-07 2.93375e-05 -1.36778e-06 2.40473e-05)
(2.89728e-05 -2.47029e-08 1.59475e-07 2.9031e-05 -1.34965e-06 2.3703e-05)
(2.89745e-05 2.33179e-08 -1.63128e-07 2.90337e-05 -1.34898e-06 2.37044e-05)
(2.93399e-05 8.88099e-08 -4.82049e-07 2.9341e-05 -1.36572e-06 2.40485e-05)
(3.01439e-05 -1.104e-08 -8.00455e-07 3.00611e-05 -1.38308e-06 2.47891e-05)
(3.18554e-05 3.92222e-07 -1.11456e-06 3.09452e-05 -1.43151e-06 2.61493e-05)
(3.34601e-05 -3.36196e-07 -1.54557e-06 3.34609e-05 -1.54543e-06 2.81954e-05)
(2.5929e-05 6.28659e-08 1.3929e-06 2.59097e-05 1.40744e-06 2.24228e-05)
(2.24457e-05 7.84025e-08 9.31059e-07 2.2075e-05 1.28487e-06 1.8941e-05)
(2.17882e-05 -1.15317e-07 6.82495e-07 2.19456e-05 1.28217e-06 1.83892e-05)
(2.12425e-05 2.35803e-08 4.14774e-07 2.13408e-05 1.27551e-06 1.77808e-05)
(2.08991e-05 -1.10911e-08 1.36616e-07 2.10689e-05 1.26347e-06 1.74576e-05)
(2.09144e-05 1.15988e-08 -1.49227e-07 2.10778e-05 1.26275e-06 1.74674e-05)
(2.12062e-05 -2.36216e-08 -4.32357e-07 2.13233e-05 1.27272e-06 1.77637e-05)
(2.20225e-05 1.11592e-07 -7.17466e-07 2.21189e-05 1.27766e-06 1.85571e-05)
(2.27205e-05 -7.65343e-08 -1.0011e-06 2.24324e-05 1.27853e-06 1.92185e-05)
(2.51966e-05 -5.98892e-08 -1.37622e-06 2.51958e-05 1.37544e-06 2.18161e-05)
(2.21555e-05 7.36254e-08 1.2718e-06 2.25138e-05 9.42152e-07 1.89863e-05)
(2.07135e-05 -3.87777e-08 9.58154e-07 2.07275e-05 9.72112e-07 1.73768e-05)
(2.07309e-05 -2.94869e-08 7.01802e-07 2.07999e-05 9.9025e-07 1.71905e-05)
(2.04004e-05 -2.15586e-08 4.23866e-07 2.04158e-05 9.99058e-07 1.67701e-05)
(2.01779e-05 -1.12362e-08 1.37512e-07 2.02247e-05 9.99788e-07 1.65351e-05)
(2.01819e-05 9.16469e-09 -1.52166e-07 2.02295e-05 9.99636e-07 1.65399e-05)
(2.04047e-05 1.4138e-08 -4.43424e-07 2.04258e-05 1.0001e-06 1.67819e-05)
(2.08294e-05 4.08685e-08 -7.33845e-07 2.09048e-05 9.9893e-07 1.72846e-05)
(2.09727e-05 -3.26855e-08 -9.94006e-07 2.09746e-05 9.92543e-07 1.76123e-05)
(2.24043e-05 -7.80494e-08 -1.27708e-06 2.26948e-05 9.97891e-07 1.91986e-05)
(2.19548e-05 -1.22238e-07 1.27643e-06 2.17866e-05 6.8338e-07 1.83866e-05)
(2.08367e-05 -3.30641e-08 9.83011e-07 2.07707e-05 7.11718e-07 1.72107e-05)
(2.01714e-05 -3.12961e-09 7.08586e-07 2.01738e-05 7.1735e-07 1.65005e-05)
(1.97722e-05 2.41864e-10 4.26157e-07 1.97634e-05 7.17012e-07 1.60432e-05)
(1.94911e-05 3.47989e-10 1.37839e-07 1.95158e-05 7.16801e-07 1.57638e-05)
(1.94977e-05 -2.4291e-09 -1.51377e-07 1.95229e-05 7.1746e-07 1.57709e-05)
(1.97957e-05 -1.1936e-09 -4.42132e-07 1.97882e-05 7.20502e-07 1.6068e-05)
(2.0254e-05 7.46197e-09 -7.28065e-07 2.02546e-05 7.2574e-07 1.6579e-05)
(2.08487e-05 4.06263e-08 -9.96015e-07 2.07768e-05 7.28292e-07 1.72466e-05)
(2.21018e-05 1.1122e-07 -1.27763e-06 2.20085e-05 7.14758e-07 1.85447e-05)
(2.13162e-05 2.64362e-08 1.27246e-06 2.12147e-05 4.12342e-07 1.77569e-05)
(2.03872e-05 -2.16314e-08 9.91863e-07 2.03746e-05 4.26237e-07 1.67434e-05)
(1.97564e-05 1.04894e-09 7.09864e-07 1.97656e-05 4.31315e-07 1.60345e-05)
(1.935e-05 -7.65897e-09 4.25758e-07 1.93497e-05 4.31387e-07 1.55677e-05)
(1.90753e-05 -3.22318e-09 1.38022e-07 1.90918e-05 4.31451e-07 1.52878e-05)
(1.90863e-05 4.25895e-10 -1.49633e-07 1.91022e-05 4.32533e-07 1.52971e-05)
(1.93648e-05 5.17509e-09 -4.38242e-07 1.93648e-05 4.34779e-07 1.55845e-05)
(1.97777e-05 -7.84085e-10 -7.22373e-07 1.9786e-05 4.38317e-07 1.6061e-05)
(2.04119e-05 1.42453e-08 -1.001e-06 2.03932e-05 4.39601e-07 1.67724e-05)
(2.13104e-05 -2.47581e-08 -1.27316e-06 2.11971e-05 4.29063e-07 1.77546e-05)
(2.10634e-05 -1.06023e-08 1.26304e-06 2.08932e-05 1.337e-07 1.74525e-05)
(2.02081e-05 -1.05679e-08 9.9492e-07 2.01619e-05 1.37229e-07 1.65187e-05)
(1.94962e-05 1.2296e-09 7.10833e-07 1.94724e-05 1.3993e-07 1.57458e-05)
(1.90886e-05 -3.12004e-09 4.26509e-07 1.90717e-05 1.41399e-07 1.52833e-05)
(1.88591e-05 -1.88555e-09 1.39237e-07 1.88581e-05 1.42888e-07 1.50352e-05)
(1.88627e-05 -6.74037e-10 -1.48686e-07 1.88619e-05 1.43792e-07 1.50393e-05)
(1.90988e-05 5.80416e-10 -4.35909e-07 1.90817e-05 1.44466e-07 1.52951e-05)
(1.95195e-05 -1.97811e-09 -7.19867e-07 1.94946e-05 1.45884e-07 1.57692e-05)
(2.0214e-05 9.99375e-09 -1.0008e-06 2.01685e-05 1.4658e-07 1.6529e-05)
(2.10575e-05 1.1099e-08 -1.26273e-06 2.08975e-05 1.44501e-07 1.74524e-05)
(2.10753e-05 1.26737e-08 1.26275e-06 2.09123e-05 -1.52083e-07 1.7466e-05)
(2.02098e-05 9.92258e-09 9.9673e-07 2.01642e-05 -1.5356e-07 1.65235e-05)
(1.95073e-05 -1.74547e-09 7.13143e-07 1.94818e-05 -1.51005e-07 1.57564e-05)
(1.90878e-05 9.92587e-10 4.28143e-07 1.90705e-05 -1.47985e-07 1.52843e-05)
(1.88587e-05 -4.80901e-10 1.40428e-07 1.88577e-05 -1.46495e-07 1.50354e-05)
(1.88627e-05 -1.5787e-09 -1.4803e-07 1.88611e-05 -1.45673e-07 1.50391e-05)
(1.90975e-05 -2.69988e-09 -4.35575e-07 1.90801e-05 -1.45504e-07 1.5294e-05)
(1.95187e-05 2.02544e-10 -7.19746e-07 1.94934e-05 -1.46519e-07 1.57684e-05)
(2.02139e-05 -1.14671e-08 -1.00074e-06 2.0168e-05 -1.47033e-07 1.65288e-05)
(2.10568e-05 -1.2546e-08 -1.26268e-06 2.08966e-05 -1.44844e-07 1.74518e-05)
(2.13307e-05 -2.43842e-08 1.27343e-06 2.1212e-05 -4.34812e-07 1.77704e-05)
(2.04142e-05 1.47688e-08 9.97825e-07 2.03932e-05 -4.44867e-07 1.67728e-05)
(1.97673e-05 -2.64409e-10 7.16939e-07 1.97749e-05 -4.42473e-07 1.60511e-05)
(1.93573e-05 5.63765e-09 4.31501e-07 1.93566e-05 -4.37905e-07 1.55772e-05)
(1.90823e-05 1.08217e-09 1.41652e-07 1.90971e-05 -4.35084e-07 1.52934e-05)
(1.90852e-05 -2.55353e-09 -1.47742e-07 1.91004e-05 -4.34437e-07 1.52963e-05)
(1.93637e-05 -7.1664e-09 -4.37358e-07 1.93621e-05 -4.3592e-07 1.55831e-05)
(1.97772e-05 -8.85561e-10 -7.21941e-07 1.97842e-05 -4.39043e-07 1.60601e-05)
(2.0411e-05 -1.55995e-08 -1.00081e-06 2.03914e-05 -4.40122e-07 1.67715e-05)
(2.13084e-05 2.33243e-08 -1.27302e-06 2.11949e-05 -4.29472e-07 1.77529e-05)
(2.21221e-05 1.11582e-07 1.2776e-06 2.20251e-05 -7.19282e-07 1.85615e-05)
(2.08521e-05 4.09013e-08 9.93438e-07 2.07791e-05 -7.32669e-07 1.72493e-05)
(2.02492e-05 8.11044e-09 7.23484e-07 2.02491e-05 -7.29388e-07 1.65746e-05)
(1.97892e-05 9.59413e-11 4.36081e-07 1.97809e-05 -7.23517e-07 1.60623e-05)
(1.94949e-05 -1.54504e-09 1.4359e-07 1.95187e-05 -7.19989e-07 1.57687e-05)
(1.9497e-05 5.9869e-10 -1.48426e-07 1.95203e-05 -7.19467e-07 1.57703e-05)
(1.97934e-05 -8.9839e-10 -4.40653e-07 1.97844e-05 -7.21802e-07 1.60658e-05)
(2.02534e-05 -8.89585e-09 -7.27353e-07 2.02525e-05 -7.26636e-07 1.65781e-05)
(2.08489e-05 -4.17801e-08 -9.95684e-07 2.07758e-05 -7.28939e-07 1.72464e-05)
(2.20997e-05 -1.12066e-07 -1.27744e-06 2.20067e-05 -7.15237e-07 1.85434e-05)
(2.24255e-05 -7.621e-08 1.27669e-06 2.27112e-05 -1.00153e-06 1.92149e-05)
(2.09769e-05 -3.23243e-08 9.91523e-07 2.09749e-05 -9.96265e-07 1.76152e-05)
(2.0825e-05 4.12544e-08 7.29769e-07 2.08974e-05 -1.00231e-06 1.72804e-05)
(2.03979e-05 1.48097e-08 4.37948e-07 2.04159e-05 -1.00289e-06 1.67758e-05)
(2.01711e-05 1.05312e-08 1.44856e-07 2.02157e-05 -1.00177e-06 1.65312e-05)
(2.01722e-05 -1.1213e-08 -1.48509e-07 2.02167e-05 -1.00126e-06 1.6532e-05)
(2.04022e-05 -1.55591e-08 -4.41434e-07 2.04204e-05 -1.00144e-06 1.67792e-05)
(2.08293e-05 -4.20296e-08 -7.32769e-07 2.09013e-05 -9.99925e-07 1.72833e-05)