/*--------------------------------*- C++ -*----------------------------------*\
| =========                 |                                                 |
| \\      /  F ield         | OpenFOAM: The Open Source CFD Toolbox           |
|  \\    /   O peration     | Version:  2406                                  |
|   \\  /    A nd           | Website:  www.openfoam.com                      |
|    \\/     M anipulation  |                                                 |
\*---------------------------------------------------------------------------*/
FoamFile
{
    version     2.0;
    format      ascii;
    arch        "LSB;label=32;scalar=64";
    class       volScalarField;
    location    "500";
    object      turbulenceProperties:L;
}
// * * * * * * * * * * * * * * * * * * * * * * * * * * * * * * * * * * * * * //

dimensions      [0 1 0 0 0 0 0];

internalField   nonuniform List<scalar> 
25000
(
0.0319526
0.0345079
0.0382203
0.0382042
0.0382699
0.0382358
0.0380417
0.0376952
0.0360638
0.035225
0.0344326
0.036788
0.0384942
0.0394036
0.0398409
0.0397942
0.0392667
0.0382675
0.0365978
0.0360513
0.0380992
0.0384193
0.039855
0.0408062
0.0412671
0.0412336
0.0407114
0.0397309
0.0382692
0.0376761
0.0381309
0.039356
0.0407849
0.041804
0.0423193
0.0422925
0.0417359
0.0406988
0.039246
0.0380115
0.0382266
0.0397986
0.0412503
0.0423142
0.0428608
0.0428444
0.0422705
0.0411953
0.0397474
0.0381882
0.0382154
0.0397701
0.041218
0.0422888
0.0428439
0.042834
0.0422649
0.0411926
0.0397461
0.038188
0.0380314
0.039245
0.0407005
0.0417298
0.0422678
0.0422626
0.04172
0.0406908
0.0392425
0.0380109
0.0376955
0.038258
0.0397175
0.0406902
0.0411908
0.0411894
0.0406883
0.0397193
0.0382638
0.0376753
0.0360715
0.0365849
0.0382511
0.0392398
0.0397433
0.0397435
0.0392404
0.0382551
0.036592
0.0360513
0.0352108
0.036037
0.0376688
0.0380072
0.0381869
0.0381876
0.0380119
0.0376773
0.0360513
0.0352187
0.028828
0.0303599
0.0318135
0.031786
0.0319316
0.0319331
0.0317959
0.0315396
0.0304718
0.0300091
0.0303062
0.0315593
0.0320273
0.0322811
0.0324694
0.0324621
0.032264
0.0319477
0.0312947
0.0304649
0.0317634
0.0319883
0.0326158
0.0328505
0.0329746
0.0329668
0.0328166
0.0325544
0.0319649
0.0315308
0.0317654
0.0322709
0.0328437
0.0331507
0.0333022
0.033292
0.0331263
0.0328157
0.03226
0.0317844
0.0319084
0.0324519
0.0329712
0.0332995
0.0334525
0.0334481
0.0332871
0.0329574
0.0324529
0.0319197
0.0319159
0.0324521
0.03296
0.0332916
0.0334474
0.0334443
0.0332851
0.0329563
0.0324522
0.0319199
0.0317812
0.0322508
0.0328132
0.033122
0.0332834
0.0332817
0.0331202
0.0328121
0.0322581
0.0317848
0.0315315
0.0319525
0.0325456
0.0328079
0.0329533
0.0329531
0.0328084
0.0325493
0.0319616
0.0315311
0.0304744
0.0312839
0.0319407
0.0322555
0.0324499
0.0324497
0.0322549
0.0319426
0.0312921
0.0304677
0.0299952
0.03045
0.0315266
0.0317824
0.0319189
0.0319188
0.0317841
0.0315298
0.0304622
0.030003
0.0305731
0.0324563
0.0332565
0.0335218
0.0337582
0.0337497
0.0335393
0.0330863
0.0323375
0.0312641
0.0324106
0.0336616
0.0338346
0.0340693
0.034253
0.0342459
0.0340576
0.0337705
0.0334588
0.0323449
0.033237
0.0338041
0.0343354
0.0345749
0.0347387
0.034733
0.0345496
0.0342761
0.0338007
0.0330893
0.0335242
0.0340771
0.0345753
0.0348664
0.0350461
0.0350382
0.034851
0.0345529
0.0340608
0.0335403
0.0337498
0.034253
0.0347458
0.0350465
0.0352017
0.0351986
0.0350373
0.0347288
0.0342459
0.0337504
0.0337427
0.0342495
0.0347376
0.0350452
0.0352004
0.0351974
0.0350369
0.0347288
0.0342458
0.0337508
0.0335284
0.034057
0.0345579
0.0348537
0.0350366
0.035034
0.034849
0.034552
0.0340605
0.0335413
0.0330781
0.0337941
0.0342754
0.0345492
0.0347279
0.0347267
0.0345469
0.0342745
0.0337995
0.0330901
0.0323387
0.0334529
0.03377
0.0340574
0.0342437
0.0342431
0.0340551
0.0337691
0.0334583
0.032347
0.031254
0.0323312
0.0330866
0.0335389
0.0337486
0.0337474
0.0335376
0.0330843
0.0323347
0.0312625
0.0353798
0.0382722
0.0386872
0.0392507
0.0395614
0.0395501
0.0392738
0.0385093
0.0380009
0.0358792
0.038214
0.0397635
0.0398043
0.0402001
0.0404313
0.0404264
0.0401912
0.0397055
0.0395151
0.0380225
0.0386857
0.0397731
0.0404666
0.0409302
0.0412341
0.0412264
0.0409037
0.0403808
0.0397533
0.0385226
0.0392755
0.0402287
0.0409387
0.0414288
0.0417457
0.0417339
0.0414111
0.0409133
0.0402032
0.0392839
0.0395669
0.0404487
0.0412554
0.0417504
0.0420275
0.0420229
0.0417376
0.0412294
0.0404406
0.0395675
0.0395522
0.0404455
0.0412436
0.0417505
0.0420277
0.0420233
0.0417391
0.0412305
0.0404409
0.0395682
0.0392673
0.0402022
0.0409249
0.0414198
0.041739
0.0417354
0.041413
0.0409145
0.0402045
0.0392858
0.0385061
0.0397505
0.040386
0.0409108
0.0412298
0.0412278
0.0409067
0.0403821
0.0397536
0.0385242
0.0380066
0.0395127
0.0397109
0.0401992
0.0404383
0.0404373
0.0401949
0.0397071
0.0395163
0.038024
0.0358708
0.038009
0.0385211
0.0392838
0.0395654
0.0395628
0.0392791
0.0385125
0.0380028
0.0358806
0.0407138
0.0443882
0.0446837
0.045568
0.0459979
0.0460009
0.0456348
0.044511
0.0439893
0.041075
0.0443429
0.0462853
0.04651
0.0472948
0.0476498
0.0476546
0.0473074
0.0463716
0.0459398
0.0440258
0.0447341
0.0464995
0.0476184
0.0486073
0.0491641
0.0491497
0.0485684
0.047485
0.0464422
0.0445386
0.045643
0.0473727
0.0486391
0.0496394
0.0502284
0.0502056
0.0495997
0.0485859
0.0473305
0.0456547
0.0460327
0.0477034
0.0492179
0.0502456
0.0508295
0.0508193
0.0502169
0.0491633
0.0476864
0.0460375
0.0460206
0.0476997
0.0491902
0.050241
0.0508303
0.0508213
0.0502214
0.0491659
0.0476863
0.0460386
0.0456395
0.047335
0.0486081
0.0496179
0.0502221
0.0502165
0.0496061
0.0485888
0.0473326
0.0456567
0.0445215
0.0464418
0.0474955
0.0485828
0.0491639
0.0491607
0.0485775
0.0474886
0.0464426
0.0445399
0.0440067
0.0459391
0.0463807
0.04732
0.0476793
0.0476792
0.0473162
0.046377
0.0459425
0.0440269
0.0410745
0.0440103
0.0445326
0.0456502
0.0460303
0.0460271
0.0456448
0.0445204
0.0439961
0.0410796
0.0450637
0.048693
0.0490488
0.0500836
0.0506167
0.0506325
0.0502131
0.048964
0.0483085
0.0453438
0.0486651
0.0505113
0.0510741
0.0521921
0.0526619
0.0526696
0.0522226
0.0509547
0.0501587
0.0483508
0.0491453
0.0510833
0.0525124
0.053911
0.0546155
0.0545949
0.0538554
0.0523533
0.0510376
0.0489916
0.0501807
0.0522983
0.0539597
0.0553788
0.0561409
0.0561124
0.0553181
0.0538694
0.0522369
0.0502179
0.0506527
0.0527272
0.0546872
0.0561656
0.0569909
0.0569785
0.0561268
0.0546022
0.052685
0.0506484
0.0506509
0.0527179
0.0546418
0.0561567
0.0569918
0.0569798
0.0561324
0.0546054
0.0526839
0.0506491
0.0502181
0.052254
0.0539007
0.0553382
0.0561335
0.056127
0.0553228
0.0538707
0.0522384
0.0502184
0.0489812
0.0510429
0.0523641
0.0538641
0.0546049
0.0546011
0.05386
0.0523537
0.051035
0.0489897
0.0483354
0.0501608
0.0509593
0.0522231
0.0526789
0.0526811
0.0522217
0.050956
0.0501583
0.0483484
0.0453523
0.048334
0.0489804
0.0502121
0.0506421
0.0506397
0.0502097
0.0489693
0.0483119
0.0453483
0.0476232
0.0503944
0.0508539
0.0519433
0.0525221
0.0525289
0.0520941
0.0508948
0.0501731
0.0479182
0.0503852
0.0517631
0.0526216
0.0538174
0.054311
0.054306
0.0538294
0.052534
0.0515338
0.0502257
0.0509648
0.0526288
0.0540368
0.0554179
0.0560506
0.0560311
0.0553522
0.0538735
0.0526203
0.0509195
0.0520258
0.0539122
0.0554614
0.0568178
0.0574884
0.0574689
0.0567668
0.0553588
0.0538307
0.0520818
0.0525363
0.0543579
0.0561107
0.0575053
0.0582395
0.0582348
0.0574836
0.0560273
0.0542952
0.0525097
0.0525393
0.0543394
0.0560618
0.0575012
0.0582416
0.058234
0.0574884
0.0560309
0.0542937
0.0525104
0.0521033
0.053856
0.0553867
0.0567757
0.0574828
0.0574813
0.0567681
0.0553593
0.0538329
0.0520823
0.0509248
0.0526308
0.0538778
0.0553456
0.0560285
0.0560275
0.0553501
0.0538724
0.0526168
0.0509166
0.0502213
0.0515385
0.0525292
0.0538137
0.0542913
0.0542959
0.0538184
0.0525301
0.0515302
0.0502203
0.0479431
0.0502073
0.0509055
0.0520785
0.0525084
0.052506
0.052076
0.0508928
0.0501725
0.0479202
0.0485583
0.0503743
0.0509583
0.051994
0.0525322
0.0525083
0.0520887
0.0510563
0.050337
0.0489197
0.0503866
0.051404
0.052377
0.0534451
0.0538945
0.0538686
0.0534041
0.0522625
0.0512794
0.0504006
0.0510541
0.0523651
0.05359
0.0547717
0.0552875
0.0552718
0.0546996
0.0534178
0.0523534
0.0510859
0.0520364
0.0535037
0.0547962
0.0559466
0.0564962
0.0564889
0.0559196
0.0547039
0.053406
0.0520792
0.0525159
0.053909
0.0553201
0.0564995
0.0570838
0.0570875
0.0565021
0.0552626
0.0538488
0.0524766
0.0525062
0.053879
0.0552796
0.0565046
0.0570876
0.0570855
0.0565061
0.0552667
0.0538484
0.0524782
0.0520965
0.0534186
0.0547185
0.0559174
0.0564946
0.0564978
0.0559204
0.0547073
0.0534122
0.0520831
0.0510887
0.0523554
0.0534128
0.0546834
0.0552615
0.0552637
0.0546977
0.0534217
0.0523555
0.0510866
0.050392
0.051273
0.0522473
0.0533824
0.0538435
0.0538507
0.0533963
0.052263
0.0512804
0.0503965
0.0489463
0.0503683
0.0510602
0.052072
0.0524731
0.052472
0.052073
0.0510567
0.0503405
0.0489204
0.0490045
0.0502254
0.0508624
0.0517598
0.052203
0.0521419
0.0517541
0.050914
0.0502697
0.049418
0.0502407
0.0510439
0.0519536
0.0528333
0.0532176
0.0531735
0.0527337
0.0517634
0.0509207
0.0503316
0.0509181
0.0519107
0.0529363
0.0539321
0.0543749
0.0543656
0.0538636
0.0527541
0.0518572
0.0509412
0.0517613
0.0528566
0.0539416
0.0549369
0.0554282
0.0554315
0.0549366
0.0538699
0.0527426
0.0517537
0.0521702
0.053215
0.054393
0.0554249
0.0559202
0.0559292
0.0554439
0.0543575
0.0531595
0.0521173
0.0521384
0.0531801
0.0543695
0.0554433
0.055928
0.0559277
0.0554481
0.0543626
0.0531602
0.052121
0.0517627
0.0527511
0.053886
0.0549368
0.0554376
0.0554409
0.0549396
0.0538767
0.0527531
0.0517644
0.0509439
0.0518602
0.0527547
0.0538548
0.0543609
0.0543624
0.0538673
0.0527645
0.0518662
0.0509516
0.0503226
0.0509127
0.0517533
0.0527254
0.0531603
0.0531657
0.0527373
0.0517704
0.0509279
0.0503362
0.0494339
0.05029
0.0509175
0.0517541
0.0521199
0.052118
0.0517542
0.0509205
0.0502779
0.0494242
0.0496344
0.0505311
0.051118
0.0518417
0.0521736
0.0520781
0.0517248
0.0510477
0.0505293
0.0500292
0.0505335
0.0511398
0.0518934
0.0525988
0.0529223
0.0528674
0.0524543
0.0516131
0.050935
0.050584
0.0511321
0.051824
0.052666
0.0535278
0.0539371
0.0539352
0.0534718
0.0524805
0.0517105
0.0510701
0.0518195
0.052602
0.0535288
0.0544262
0.0549003
0.0549103
0.0544493
0.0534824
0.0524738
0.0517349
0.0521478
0.0529235
0.0539526
0.0548958
0.0553455
0.0553556
0.0549218
0.0539316
0.0528682
0.0520712
0.0520932
0.052891
0.0539503
0.0549286
0.0553579
0.055356
0.0549269
0.0539373
0.052869
0.0520758
0.0517486
0.0524931
0.0535131
0.0544635
0.0549246
0.0549237
0.0544567
0.053492
0.0524854
0.05175
0.0510874
0.051729
0.0524997
0.0534835
0.0539466
0.0539433
0.0534837
0.0524952
0.0517221
0.0510874
0.0505894
0.0509393
0.0516194
0.0524707
0.0528794
0.0528793
0.0524695
0.0516228
0.0509429
0.0505939
0.0500463
0.0505474
0.051058
0.0517489
0.0520825
0.0520759
0.0517395
0.0510552
0.0505364
0.0500376
0.0504758
0.0512137
0.0516682
0.0522098
0.0524395
0.0523259
0.052012
0.0514693
0.0510974
0.0507992
0.0511873
0.0515649
0.0521359
0.0526992
0.0529779
0.0529257
0.0525424
0.0517948
0.0512652
0.051144
0.051646
0.0520449
0.0527324
0.0535089
0.0539122
0.0539203
0.0534805
0.0525716
0.0518984
0.0514886
0.0521799
0.0526929
0.0535059
0.054352
0.0548317
0.0548463
0.0543992
0.0535008
0.0525797
0.052039
0.0524327
0.0529926
0.0539315
0.0548286
0.0552595
0.0552694
0.0548607
0.0539315
0.0529554
0.0523526
0.0523622
0.0529693
0.0539504
0.0548731
0.0552756
0.0552727
0.0548679
0.0539381
0.0529557
0.0523565
0.0520462
0.0525993
0.0535386
0.0544263
0.0548707
0.0548673
0.0544148
0.0535139
0.0525907
0.0520545
0.0515103
0.0519232
0.0526039
0.0535131
0.053954
0.0539476
0.0535055
0.0525918
0.0519111
0.0515095
0.0511555
0.0512763
0.0518146
0.0525854
0.0529727
0.0529683
0.0525744
0.0518088
0.0512741
0.0511582
0.0508186
0.0511158
0.0514879
0.0520638
0.0523695
0.0523588
0.0520448
0.0514785
0.0511041
0.0508102
0.0513646
0.0521021
0.0523892
0.0527652
0.0529193
0.0528082
0.052534
0.0520965
0.0518608
0.0515742
0.052049
0.0521661
0.052563
0.053021
0.053277
0.0532383
0.0528839
0.0522053
0.0518038
0.0519058
0.0523404
0.0524552
0.0530219
0.0537525
0.0541656
0.0541822
0.0537559
0.0529087
0.0523194
0.0521209
0.0527314
0.0530075
0.0537457
0.0545733
0.0550665
0.0550808
0.0546363
0.0537875
0.0529419
0.0525801
0.0529239
0.0532998
0.0541867
0.0550648
0.0554902
0.0554968
0.0550981
0.0542102
0.0533003
0.0528715
0.0528477
0.0532894
0.0542217
0.0551142
0.0555065
0.0555031
0.0551078
0.0542174
0.0532994
0.0528728
0.0525601
0.0529442
0.0538217
0.0546718
0.0551129
0.0551083
0.0546607
0.0538039
0.0529494
0.0525906
0.0521248
0.0523338
0.0529434
0.0538035
0.0542346
0.0542271
0.0537934
0.0529328
0.0523301
0.0521389
0.0519057
0.0518085
0.0522294
0.0529443
0.0533153
0.0533095
0.0529305
0.0522238
0.0518124
0.0519199
0.0515866
0.0518728
0.0521166
0.0526016
0.0528844
0.0528732
0.0525811
0.052109
0.0518691
0.0515873
0.0520233
0.0530265
0.0531702
0.0534161
0.0535318
0.053446
0.0532112
0.052855
0.0527177
0.0521473
0.0529636
0.0528384
0.0530895
0.0534766
0.053731
0.0537125
0.0533829
0.0527579
0.0524667
0.0527638
0.0531158
0.0529744
0.0534542
0.0541646
0.054592
0.0546126
0.0541929
0.0533951
0.0528841
0.0528884
0.0533958
0.05347
0.0541613
0.0549843
0.0554857
0.0554925
0.0550452
0.054235
0.0534587
0.053273
0.0535534
0.0537697
0.0546234
0.0554895
0.0559087
0.0559078
0.0555113
0.0546541
0.0538007
0.0535406
0.0534863
0.0537744
0.0546663
0.0555356
0.0559215
0.055916
0.0555228
0.0546609
0.0537978
0.0535378
0.0532276
0.0534476
0.0542674
0.0550876
0.0555285
0.0555226
0.0550759
0.0542519
0.0534603
0.0532736
0.0528725
0.0528881
0.05343
0.05425
0.0546755
0.0546675
0.0542379
0.0534195
0.0528893
0.0528967
0.0527514
0.0524659
0.0527848
0.0534523
0.053809
0.0538028
0.0534374
0.0527782
0.0524729
0.0527726
0.0521459
0.0527177
0.0528712
0.0532818
0.053545
0.0535361
0.0532664
0.0528701
0.0527268
0.0521598
0.0522378
0.0538747
0.0539537
0.0541161
0.0542276
0.0541775
0.0539726
0.0536675
0.0535465
0.0522936
0.0538205
0.0535319
0.0536667
0.0540116
0.0542772
0.0542766
0.053962
0.0533783
0.0531845
0.0535987
0.0539167
0.0535561
0.0539718
0.0546747
0.0551111
0.0551273
0.0547069
0.0539488
0.0535154
0.0537118
0.054123
0.0540212
0.0546778
0.0554965
0.0559944
0.0559864
0.0555328
0.0547537
0.0540451
0.0540382
0.0542682
0.0543332
0.0551538
0.0560043
0.0564123
0.0564
0.0560018
0.0551697
0.0543705
0.0542809
0.0542191
0.0543483
0.0551936
0.0560386
0.0564178
0.0564085
0.0560137
0.0551752
0.0543652
0.0542735
0.0539857
0.0540336
0.0547888
0.0555806
0.0560212
0.0560129
0.0555652
0.0547683
0.0540395
0.0540263
0.0536863
0.053517
0.0539847
0.0547668
0.055188
0.055179
0.0547512
0.0539692
0.053513
0.0537058
0.0535801
0.0531835
0.0534066
0.0540286
0.054372
0.0543658
0.0540123
0.0533959
0.0531858
0.0535965
0.0522832
0.0535387
0.0536768
0.0540296
0.0542751
0.0542693
0.0540209
0.0536803
0.0535534
0.0522997
0.0519941
0.0545241
0.054697
0.0548302
0.0549612
0.0549473
0.0547599
0.0544732
0.0542282
0.052029
0.0544828
0.0542133
0.0542681
0.0545895
0.0548691
0.0548806
0.054574
0.054026
0.0539169
0.0542889
0.0546819
0.0541641
0.054532
0.0552302
0.0556679
0.0556753
0.0552518
0.0545281
0.054172
0.0545293
0.0548646
0.0546145
0.0552394
0.0560479
0.0565337
0.0565101
0.0560522
0.0553002
0.0546572
0.0548232
0.055015
0.0549355
0.0557187
0.0565479
0.0569424
0.0569208
0.0565221
0.0557126
0.0549666
0.0550441
0.0549864
0.0549546
0.0557466
0.0565658
0.0569395
0.0569284
0.0565332
0.0557162
0.0549596
0.0550332
0.0547712
0.0546472
0.0553334
0.0560976
0.0565384
0.0565297
0.0560825
0.0553108
0.0546465
0.0548014
0.0544967
0.0541708
0.0545598
0.0553052
0.0557238
0.0557155
0.0552903
0.0545436
0.0541647
0.0545114
0.0542631
0.0539146
0.0540514
0.0546287
0.0549605
0.0549558
0.0546152
0.0540415
0.0539167
0.054278
0.0520125
0.0542164
0.0544765
0.054798
0.0550298
0.0550277
0.0547973
0.0544855
0.0542355
0.05203
0.051938
0.0548736
0.0553763
0.0555476
0.0557097
0.0557197
0.0555304
0.0552091
0.0546247
0.0519699
0.0548473
0.0548812
0.0548915
0.0551955
0.0554815
0.0554957
0.0551902
0.054673
0.0546274
0.0546932
0.055383
0.0547946
0.055116
0.0558021
0.0562313
0.056226
0.055798
0.0551042
0.0548253
0.0552758
0.0556016
0.0552296
0.0558139
0.0566017
0.0570695
0.0570322
0.0565718
0.0558435
0.055266
0.0555853
0.0557662
0.0555488
0.0562828
0.0570848
0.057466
0.057438
0.0570401
0.0562514
0.0555598
0.0557943
0.0557524
0.0555642
0.0562948
0.0570867
0.0574562
0.0574449
0.0570496
0.0562532
0.0555528
0.0557828
0.0555424
0.0552632
0.0558752
0.0566124
0.0570529
0.0570442
0.0565978
0.0558506
0.0552544
0.0555604
0.0552418
0.0548262
0.0551328
0.0558425
0.0562583
0.0562506
0.0558283
0.055116
0.0548183
0.0552535
0.0546645
0.0546271
0.0546966
0.0552306
0.0555514
0.0555485
0.0552209
0.0546892
0.0546309
0.0546797
0.0519488
0.0546124
0.0552089
0.0555492
0.0557768
0.0557787
0.0555576
0.0552254
0.0546361
0.0519685
0.0543361
0.0548431
0.055938
0.0562343
0.0564371
0.0564582
0.056244
0.0558104
0.0546434
0.0543815
0.0548256
0.0555126
0.0555281
0.0558132
0.0560953
0.0561065
0.0558021
0.0553136
0.0552879
0.0547148
0.0559601
0.055435
0.055706
0.0563685
0.0567832
0.0567681
0.0563392
0.0556745
0.055469
0.0558829
0.0563
0.0558498
0.0563801
0.0571376
0.0575878
0.0575439
0.0570865
0.0563812
0.0558677
0.0562886
0.0564914
0.0561569
0.0568306
0.0576014
0.0579729
0.0579451
0.0575513
0.0567831
0.0561466
0.0565066
0.0564845
0.0561653
0.0568287
0.0575928
0.0579603
0.0579514
0.0575587
0.056783
0.0561404
0.0564973
0.056258
0.0558719
0.0564083
0.057118
0.0575575
0.0575502
0.0571061
0.0563839
0.0558575
0.0562674
0.0558509
0.0554718
0.0556981
0.0563724
0.0567845
0.0567777
0.0563597
0.0556823
0.0554642
0.0558639
0.0546857
0.0552879
0.0553331
0.0558277
0.0561375
0.0561365
0.0558223
0.0553296
0.0552958
0.0547056
0.0543505
0.0546302
0.0558083
0.0562489
0.0564913
0.0564968
0.0562653
0.0558322
0.0546589
0.0543813
0.0636596
0.0545671
0.0563263
0.056859
0.0571178
0.0571349
0.0568616
0.0562032
0.0543901
0.0636239
0.0545527
0.0560809
0.0561744
0.0564382
0.0567051
0.0567079
0.0564045
0.0559368
0.0558531
0.0544599
0.0563528
0.05608
0.0562961
0.0569233
0.057319
0.0572963
0.0568701
0.0562343
0.0560931
0.0562754
0.0569209
0.0564675
0.0569303
0.0576505
0.0580854
0.0580411
0.0575897
0.0569076
0.0564581
0.0568923
0.0571595
0.0567534
0.0573567
0.0580952
0.0584613
0.0584378
0.0580495
0.0573016
0.0567229
0.0571525
0.0571511
0.0567537
0.0573463
0.0580832
0.0584503
0.0584445
0.0580545
0.0573
0.0567179
0.0571463
0.0568755
0.056471
0.0569323
0.0576146
0.0580517
0.0580446
0.0576027
0.0569059
0.0564496
0.0568768
0.0562489
0.0561003
0.0562558
0.0568955
0.0573019
0.0572946
0.0568809
0.056237
0.056089
0.0562609
0.0544326
0.0558538
0.0559524
0.0564175
0.0567163
0.0567158
0.0564133
0.0559491
0.0558611
0.0544532
0.0635457
0.0543734
0.0561959
0.0568521
0.057141
0.0571487
0.0568739
0.0562237
0.0544031
0.0636176
0.0430116
0.0546275
0.0564686
0.0573447
0.0576919
0.0577003
0.0573283
0.0563361
0.0544578
0.0429504
0.0546145
0.0565231
0.056799
0.0570504
0.0572984
0.0572941
0.0569956
0.0565344
0.0562808
0.0545243
0.0564947
0.0567008
0.0568731
0.0574587
0.0578359
0.057812
0.057395
0.0567904
0.0566917
0.0564057
0.0574008
0.057071
0.0574605
0.0581413
0.0585666
0.0585288
0.0580879
0.0574314
0.0570435
0.0573518
0.0577245
0.0573349
0.0578644
0.0585722
0.0589382
0.0589236
0.0585429
0.0578171
0.0572976
0.0577013
0.0577113
0.0573303
0.0578525
0.0585643
0.058933
0.0589319
0.0585465
0.057815
0.057294
0.057698
0.0573436
0.0570597
0.0574512
0.0581067
0.0585411
0.0585353
0.0580978
0.057428
0.0570378
0.0573421
0.0563844
0.0567002
0.0568088
0.0574159
0.0578162
0.0578095
0.0574026
0.0567914
0.056689
0.0563959
0.0544984
0.0562797
0.0565454
0.0570024
0.0572933
0.0572938
0.0570014
0.0565454
0.0562888
0.0545198
0.0429383
0.0544364
0.0563247
0.0573138
0.0576947
0.0577041
0.0573396
0.0563558
0.0544691
0.0429539
0.024366
0.0566298
0.0564177
0.0576408
0.058117
0.0581163
0.0576044
0.0562722
0.0564455
0.0243505
0.0566182
0.0568011
0.0573681
0.0576391
0.0578723
0.0578635
0.0575695
0.0570829
0.0565457
0.056509
0.056436
0.0572607
0.0574279
0.0579742
0.0583353
0.0583135
0.05791
0.0573376
0.0572419
0.0563375
0.0576771
0.0576404
0.0579655
0.058611
0.0590315
0.0590034
0.0585745
0.057947
0.0576167
0.0576244
0.0581272
0.0578865
0.058348
0.0590308
0.0594008
0.0593958
0.0590237
0.0583233
0.0578653
0.0581108
0.0581092
0.0578802
0.0583394
0.0590303
0.0594023
0.0594059
0.0590265
0.0583215
0.0578633
0.058109
0.0576068
0.0576203
0.0579549
0.0585868
0.0590184
0.0590144
0.0585838
0.0579444
0.0576134
0.0576176
0.0563089
0.0572398
0.0573469
0.0579264
0.0583205
0.0583156
0.0579181
0.0573389
0.0572399
0.0563297
0.0564682
0.0565334
0.0570834
0.0575704
0.0578596
0.0578624
0.0575764
0.0570937
0.0565526
0.0565036
0.0243511
0.0564036
0.0562498
0.0575831
0.0581028
0.0581149
0.0576157
0.0562893
0.0564555
0.0243518
0.0162104
0.0625685
0.056496
0.0577513
0.0583691
0.058366
0.0577104
0.0563499
0.0623813
0.0162045
0.0625598
0.0569852
0.0578539
0.0581981
0.0584282
0.0584182
0.0581238
0.0575595
0.0567307
0.0624417
0.0565045
0.0577341
0.0579712
0.058484
0.0588308
0.0588128
0.0584243
0.0578815
0.0577203
0.0564086
0.0577699
0.0581844
0.0584695
0.0590823
0.0594983
0.0594779
0.0590602
0.058463
0.0581739
0.0577304
0.0583619
0.0584285
0.0588372
0.0594956
0.0598667
0.0598677
0.0595024
0.0588287
0.0584264
0.0583652
0.0583437
0.0584247
0.0588337
0.0595025
0.0598733
0.0598782
0.0595043
0.0588274
0.0584251
0.058363
0.0576972
0.0581649
0.0584655
0.05907
0.0594951
0.0594909
0.0590685
0.0584611
0.0581711
0.0577226
0.0563692
0.0577067
0.0578841
0.058438
0.0588225
0.0588188
0.0584329
0.0578823
0.0577167
0.0563997
0.0623665
0.056708
0.0575519
0.0581206
0.0584155
0.05842
0.0581319
0.0575685
0.0567344
0.0624309
0.0162053
0.0622844
0.0563156
0.0576831
0.058352
0.0583665
0.0577221
0.056363
0.0623886
0.0162052
0.0120708
0.0518412
0.0576187
0.0578559
0.0585144
0.0585109
0.0578145
0.0574626
0.0517844
0.0120674
0.0517985
0.0573751
0.0582327
0.0587206
0.0589652
0.0589534
0.0586412
0.057927
0.0571117
0.0518423
0.0576272
0.0581085
0.0585051
0.0589946
0.0593266
0.0593085
0.0589313
0.0584067
0.0580871
0.0575119
0.0578713
0.0587051
0.05898
0.0595594
0.0599662
0.0599468
0.0595359
0.0589674
0.0586895
0.0578286
0.0585067
0.058967
0.0593347
0.0599644
0.06033
0.0603294
0.0599675
0.0593208
0.0589601
0.0585077
0.0584901
0.0589642
0.0593331
0.059974
0.0603366
0.0603376
0.0599673
0.0593189
0.0589577
0.0585023
0.0577984
0.0586853
0.0589763
0.0595484
0.0599626
0.0599546
0.0595399
0.0589631
0.0586822
0.057813
0.0574706
0.0580741
0.0584086
0.0589423
0.0593146
0.05931
0.0589343
0.0584012
0.0580757
0.0574923
0.0518208
0.0570874
0.0579148
0.0586319
0.0589452
0.0589491
0.0586412
0.0579259
0.0571046
0.0518366
0.0120679
0.0517718
0.0574151
0.0577769
0.0584889
0.0585023
0.0578145
0.0574618
0.051789
0.0120677
0.00979583
0.0318046
0.0612499
0.0584237
0.0587728
0.0587721
0.0583872
0.0610767
0.031786
0.00979365
0.031785
0.058625
0.0584975
0.0591886
0.0594737
0.0594625
0.0591091
0.0581894
0.05836
0.0318165
0.0612443
0.0583696
0.0590133
0.0595051
0.0598269
0.0598078
0.0594382
0.0589102
0.0583467
0.0611176
0.0584387
0.059173
0.059491
0.0600441
0.0604409
0.0604202
0.0600149
0.0594714
0.0591553
0.0583968
0.0587693
0.059479
0.0598366
0.0604393
0.0607974
0.060793
0.0604355
0.0598159
0.0594676
0.0587686
0.0587563
0.0594772
0.0598346
0.0604478
0.0608007
0.060798
0.0604335
0.0598137
0.0594644
0.0587596
0.0583709
0.0591572
0.0594844
0.0600281
0.0604311
0.0604211
0.0600161
0.0594663
0.059145
0.0583728
0.061067
0.0583399
0.0589129
0.0594461
0.0598098
0.0598055
0.0594377
0.0589016
0.0583316
0.0610818
0.0318176
0.0583423
0.0581795
0.0590988
0.0594523
0.0594547
0.0591046
0.0581822
0.0583461
0.0318216
0.00979411
0.0317951
0.0610266
0.0583527
0.0587519
0.0587611
0.0583793
0.0610649
0.0317948
0.0097941
0.00849016
0.0214522
0.0623293
0.0603625
0.059706
0.0597096
0.0603347
0.0622314
0.0214413
0.0084885
0.021445
0.0615489
0.0587225
0.0596039
0.059956
0.0599458
0.0595253
0.0584162
0.0613225
0.0214559
0.0622625
0.0585906
0.0594904
0.0600227
0.0603404
0.0603184
0.0599486
0.0593814
0.0585703
0.0622914
0.0603687
0.0595853
0.0600073
0.060543
0.0609288
0.0609042
0.0605032
0.059979
0.0595707
0.0603418
0.0596972
0.05996
0.0603476
0.0609255
0.0612736
0.0612636
0.0609124
0.0603216
0.0599504
0.0597086
0.0596898
0.0599589
0.0603428
0.0609287
0.0612699
0.0612643
0.0609087
0.0603199
0.0599492
0.0596989
0.0603103
0.0595753
0.0599923
0.0605135
0.0609047
0.0608945
0.0605026
0.0599774
0.0595647
0.0603164
0.0622259
0.0585719
0.0593848
0.0599507
0.0603112
0.0603095
0.0599469
0.059377
0.0585641
0.0622516
0.0214566
0.061311
0.0584112
0.0595136
0.0599315
0.0599346
0.0595225
0.0584149
0.0613177
0.0214581
0.00848874
0.0214447
0.0621927
0.0603031
0.0596902
0.0596974
0.0603246
0.062239
0.0214449
0.00848871
0.00772308
0.015915
0.0443395
0.0637458
0.0620938
0.0621079
0.0637502
0.0443388
0.0159094
0.00772175
0.0159132
0.0637533
0.0590825
0.0599645
0.0603928
0.0603851
0.059892
0.058789
0.0637913
0.0159165
0.0442997
0.0589482
0.0598986
0.0605225
0.0608459
0.0608221
0.0604442
0.0597883
0.0589377
0.0443936
0.0637316
0.0599444
0.0605061
0.0610341
0.0614082
0.0613799
0.0609857
0.0604719
0.0599352
0.0637514
0.0620711
0.0603935
0.0608484
0.0614014
0.0617366
0.061722
0.0613808
0.0608193
0.0603878
0.0621045
0.0620689
0.0603913
0.0608381
0.061396
0.061723
0.0617157
0.0613741
0.060817
0.0603879
0.0620947
0.0636924
0.0599346
0.060476
0.060983
0.0613613
0.0613534
0.0609778
0.0604699
0.0599328
0.0637199
0.0443681
0.0589358
0.0597812
0.0604287
0.0607943
0.0607965
0.0604338
0.0597842
0.0589383
0.0443693
0.0159164
0.0637427
0.0587744
0.059867
0.0603563
0.0603619
0.0598837
0.0587879
0.0637745
0.0159165
0.00772188
0.0159105
0.044326
0.063691
0.0620704
0.0620795
0.0637205
0.0443459
0.0159105
0.00772176
0.00727005
0.0127352
0.0296145
0.0581448
0.064817
0.0648433
0.0581591
0.029608
0.0127318
0.0072688
0.0127352
0.0522661
0.0598859
0.0603198
0.0607904
0.0607838
0.0602507
0.0596083
0.0524786
0.0127351
0.0296008
0.0597506
0.0602009
0.06098
0.0613225
0.0612964
0.060896
0.0600874
0.0597515
0.0296371
0.0581082
0.0602974
0.0609616
0.0614979
0.0618601
0.0618279
0.0614406
0.0609208
0.0602912
0.0581767
0.0647655
0.0607844
0.0613174
0.0618482
0.0621684
0.0621497
0.0618203
0.0612842
0.0607805
0.0648225
0.0647692
0.0607781
0.061299
0.0618321
0.0621436
0.062135
0.0618088
0.0612789
0.0607788
0.0648073
0.0581293
0.0602781
0.0609097
0.06142
0.0617859
0.0617804
0.0614196
0.0609108
0.0602837
0.0581384
0.0296334
0.0597316
0.0600618
0.0608561
0.0612407
0.0612461
0.0608682
0.0600738
0.0597445
0.029628
0.0127354
0.0524455
0.0595697
0.0602033
0.0607315
0.0607387
0.0602254
0.0595921
0.0524574
0.012735
0.00726903
0.0127326
0.0296085
0.0581033
0.064757
0.0647694
0.0581287
0.029615
0.0127326
0.00726884
0.00700791
0.0108307
0.0213816
0.0412068
0.0562388
0.0562479
0.0411995
0.0213756
0.0108287
0.00700681
0.0108314
0.0367326
0.0615149
0.0608184
0.0612177
0.0612083
0.0607421
0.0612476
0.0368176
0.01083
0.021377
0.0613714
0.0603859
0.0613846
0.0617651
0.0617349
0.0612899
0.0602621
0.0613867
0.021391
0.0411929
0.06079
0.061363
0.061934
0.0622873
0.0622506
0.0618666
0.0613124
0.06078
0.0412247
0.0562103
0.0612034
0.0617523
0.0622707
0.0625767
0.0625546
0.0622359
0.0617135
0.0611974
0.0562404
0.0562213
0.0611925
0.0617264
0.0622453
0.062543
0.0625332
0.0622205
0.0617057
0.0611941
0.05623
0.0412203
0.0607581
0.0612905
0.0618322
0.0621902
0.0621864
0.0618345
0.0612953
0.0607677
0.0412112
0.0213915
0.0613498
0.0602235
0.0612324
0.0616572
0.0616641
0.0612475
0.0602398
0.0613694
0.0213877
0.0108305
0.0368171
0.0611896
0.0606794
0.0611379
0.0611451
0.0607021
0.0612154
0.0368171
0.0108301
0.00700709
0.0108294
0.0213779
0.0411953
0.0562014
0.0562096
0.0412053
0.0213809
0.0108294
0.00700691
0.00686673
0.00966191
0.0165745
0.0291034
0.0401447
0.0401425
0.0290964
0.0165708
0.00966078
0.00686583
0.00966282
0.0265804
0.063508
0.0616676
0.0618314
0.0618162
0.0615742
0.0632775
0.0266109
0.00966104
0.0165733
0.0633444
0.0604771
0.061735
0.0621776
0.062142
0.0616244
0.0603356
0.0634147
0.016579
0.0290995
0.061629
0.0617095
0.0623526
0.0627025
0.0626612
0.0622736
0.0616455
0.0616085
0.0291131
0.0401433
0.0618081
0.062159
0.0626831
0.0629792
0.0629544
0.0626422
0.0621139
0.0617976
0.0401511
0.0401505
0.061793
0.0621276
0.0626515
0.0629406
0.0629303
0.0626262
0.0621061
0.0617948
0.0401479
0.0291142
0.0615838
0.0616207
0.0622343
0.0625921
0.0625897
0.0622382
0.0616273
0.061597
0.029108
0.0165797
0.0633691
0.0602943
0.0615609
0.0620539
0.0620614
0.061577
0.0603118
0.0633944
0.0165774
0.00966149
0.0266134
0.0632138
0.0615055
0.061736
0.0617422
0.0615263
0.0632402
0.026613
0.00966115
0.00686608
0.00966123
0.0165723
0.0290995
0.0401403
0.0401439
0.0291047
0.0165741
0.00966122
0.00686593
0.00680512
0.00893553
0.0136354
0.0218498
0.0290039
0.0290016
0.0218454
0.0136333
0.0089349
0.00680445
0.00893642
0.0203271
0.0609864
0.0630202
0.0628117
0.0627893
0.0629041
0.0608747
0.0203386
0.00893465
0.0136354
0.0607936
0.0605364
0.0620222
0.0625556
0.062515
0.0618965
0.0603779
0.0610219
0.0136375
0.0218486
0.0629609
0.0619929
0.0627553
0.0631117
0.0630671
0.0626678
0.061918
0.0629359
0.0218553
0.0290057
0.0627749
0.0625332
0.063091
0.0633853
0.0633599
0.0630483
0.0624855
0.0627648
0.0290093
0.0290095
0.062756
0.0624984
0.0630569
0.063346
0.0633365
0.0630342
0.0624794
0.0627634
0.0290078
0.0218561
0.0629049
0.0618939
0.0626291
0.062998
0.0629973
0.0626357
0.0619032
0.0629282
0.0218526
0.013638
0.0609822
0.0603387
0.0618351
0.0624268
0.0624346
0.0618516
0.060357
0.0610076
0.0136366
0.00893502
0.0203405
0.0608363
0.0628345
0.0627048
0.0627099
0.0628529
0.0608563
0.0203401
0.00893475
0.00680463
0.00893522
0.0136342
0.0218478
0.0290045
0.0290064
0.0218508
0.0136353
0.00893518
0.00680452
0.00679729
0.00848409
0.0117876
0.0173709
0.0221447
0.0221431
0.0173682
0.0117866
0.00848375
0.00679681
0.00848489
0.0163672
0.0493172
0.0644284
0.0642599
0.0642301
0.0642964
0.049303
0.0163716
0.00848326
0.0117881
0.0491894
0.0606915
0.062239
0.0628884
0.0628447
0.0621022
0.0605207
0.0494094
0.0117885
0.0173704
0.0643389
0.0622069
0.0631383
0.0635136