/*--------------------------------*- C++ -*----------------------------------*\
| =========                 |                                                 |
| \\      /  F ield         | OpenFOAM: The Open Source CFD Toolbox           |
|  \\    /   O peration     | Version:  2406                                  |
|   \\  /    A nd           | Website:  www.openfoam.com                      |
|    \\/     M anipulation  |                                                 |
\*---------------------------------------------------------------------------*/
FoamFile
{
    version     2.0;
    format      ascii;
    arch        "LSB;label=32;scalar=64";
    class       volScalarField;
    location    "500";
    object      turbulenceProperties:nuEff;
}
// * * * * * * * * * * * * * * * * * * * * * * * * * * * * * * * * * * * * * //

dimensions      [0 2 -1 0 0 0 0];

internalField   nonuniform List<scalar> 
25000
(
1.58872e-05
1.59283e-05
1.59543e-05
1.59672e-05
1.59728e-05
1.59728e-05
1.59672e-05
1.59545e-05
1.59306e-05
1.58872e-05
1.59304e-05
1.59673e-05
1.59882e-05
1.59998e-05
1.60055e-05
1.60055e-05
1.6e-05
1.59934e-05
1.59675e-05
1.59285e-05
1.59544e-05
1.59933e-05
1.60108e-05
1.60185e-05
1.60238e-05
1.60238e-05
1.60192e-05
1.60109e-05
1.59883e-05
1.59544e-05
1.59672e-05
1.59999e-05
1.60192e-05
1.603e-05
1.60345e-05
1.60349e-05
1.603e-05
1.60185e-05
1.59999e-05
1.59672e-05
1.59728e-05
1.60055e-05
1.60238e-05
1.60349e-05
1.60415e-05
1.60416e-05
1.60345e-05
1.60238e-05
1.60055e-05
1.59728e-05
1.59728e-05
1.60055e-05
1.60238e-05
1.60345e-05
1.60416e-05
1.60416e-05
1.60345e-05
1.60238e-05
1.60055e-05
1.59728e-05
1.59672e-05
1.59999e-05
1.60185e-05
1.603e-05
1.60349e-05
1.60349e-05
1.603e-05
1.60185e-05
1.59999e-05
1.59672e-05
1.59544e-05
1.59883e-05
1.60109e-05
1.60192e-05
1.60238e-05
1.60238e-05
1.60192e-05
1.60109e-05
1.59883e-05
1.59544e-05
1.59285e-05
1.59675e-05
1.59934e-05
1.6e-05
1.60055e-05
1.60055e-05
1.6e-05
1.59934e-05
1.59675e-05
1.59285e-05
1.58872e-05
1.59306e-05
1.59545e-05
1.59672e-05
1.59728e-05
1.59728e-05
1.59672e-05
1.59545e-05
1.59306e-05
1.58872e-05
1.55255e-05
1.56519e-05
1.57285e-05
1.57675e-05
1.57845e-05
1.57845e-05
1.57675e-05
1.57294e-05
1.56574e-05
1.55255e-05
1.5657e-05
1.57686e-05
1.58309e-05
1.58653e-05
1.58819e-05
1.58819e-05
1.58661e-05
1.58443e-05
1.57689e-05
1.56523e-05
1.57292e-05
1.5844e-05
1.58973e-05
1.59212e-05
1.59366e-05
1.59367e-05
1.59231e-05
1.58975e-05
1.5831e-05
1.57286e-05
1.57675e-05
1.5866e-05
1.5923e-05
1.59549e-05
1.59686e-05
1.59698e-05
1.5955e-05
1.59213e-05
1.58653e-05
1.57675e-05
1.57845e-05
1.58819e-05
1.59366e-05
1.59697e-05
1.59892e-05
1.59893e-05
1.59686e-05
1.59366e-05
1.58819e-05
1.57845e-05
1.57845e-05
1.58819e-05
1.59366e-05
1.59686e-05
1.59893e-05
1.59893e-05
1.59686e-05
1.59366e-05
1.58819e-05
1.57845e-05
1.57675e-05
1.58653e-05
1.59213e-05
1.5955e-05
1.59698e-05
1.59698e-05
1.5955e-05
1.59213e-05
1.58653e-05
1.57675e-05
1.57286e-05
1.5831e-05
1.58975e-05
1.59231e-05
1.59367e-05
1.59367e-05
1.59231e-05
1.58975e-05
1.5831e-05
1.57286e-05
1.56523e-05
1.57689e-05
1.58443e-05
1.58661e-05
1.58819e-05
1.58819e-05
1.58661e-05
1.58443e-05
1.57689e-05
1.56523e-05
1.55255e-05
1.56574e-05
1.57294e-05
1.57675e-05
1.57845e-05
1.57845e-05
1.57675e-05
1.57294e-05
1.56574e-05
1.55255e-05
1.5174e-05
1.53828e-05
1.55072e-05
1.55718e-05
1.56e-05
1.56e-05
1.55719e-05
1.5509e-05
1.53903e-05
1.5174e-05
1.539e-05
1.55741e-05
1.56765e-05
1.5733e-05
1.57601e-05
1.57602e-05
1.57348e-05
1.56961e-05
1.55746e-05
1.53831e-05
1.55088e-05
1.56958e-05
1.57848e-05
1.58254e-05
1.58504e-05
1.58507e-05
1.58284e-05
1.57851e-05
1.56768e-05
1.55074e-05
1.55718e-05
1.57346e-05
1.58282e-05
1.58806e-05
1.59035e-05
1.59052e-05
1.58807e-05
1.58255e-05
1.57331e-05
1.55718e-05
1.56e-05
1.57601e-05
1.58506e-05
1.59051e-05
1.59369e-05
1.5937e-05
1.59035e-05
1.58505e-05
1.57602e-05
1.56e-05
1.56e-05
1.57601e-05
1.58504e-05
1.59035e-05
1.5937e-05
1.5937e-05
1.59035e-05
1.58505e-05
1.57602e-05
1.56e-05
1.55718e-05
1.57331e-05
1.58255e-05
1.58807e-05
1.59053e-05
1.59053e-05
1.58807e-05
1.58255e-05
1.57331e-05
1.55718e-05
1.55074e-05
1.56768e-05
1.57851e-05
1.58284e-05
1.58507e-05
1.58507e-05
1.58284e-05
1.57851e-05
1.56768e-05
1.55074e-05
1.53831e-05
1.55746e-05
1.56961e-05
1.57347e-05
1.57602e-05
1.57602e-05
1.57348e-05
1.56961e-05
1.55746e-05
1.53831e-05
1.5174e-05
1.53903e-05
1.5509e-05
1.55719e-05
1.56e-05
1.56e-05
1.55719e-05
1.5509e-05
1.53903e-05
1.5174e-05
1.48395e-05
1.5123e-05
1.5292e-05
1.53811e-05
1.54201e-05
1.54201e-05
1.53813e-05
1.52947e-05
1.51319e-05
1.48394e-05
1.51316e-05
1.53847e-05
1.55256e-05
1.56032e-05
1.56404e-05
1.56406e-05
1.5606e-05
1.55499e-05
1.53853e-05
1.51232e-05
1.52945e-05
1.55496e-05
1.56736e-05
1.57312e-05
1.57654e-05
1.57658e-05
1.5735e-05
1.56739e-05
1.55259e-05
1.52921e-05
1.53812e-05
1.56058e-05
1.57348e-05
1.5807e-05
1.58391e-05
1.58412e-05
1.58071e-05
1.57313e-05
1.56033e-05
1.53811e-05
1.54201e-05
1.56405e-05
1.57657e-05
1.58411e-05
1.58846e-05
1.58847e-05
1.5839e-05
1.57654e-05
1.56405e-05
1.54201e-05
1.54201e-05
1.56404e-05
1.57654e-05
1.58391e-05
1.58846e-05
1.58847e-05
1.5839e-05
1.57654e-05
1.56405e-05
1.54201e-05
1.53811e-05
1.56033e-05
1.57313e-05
1.58071e-05
1.58414e-05
1.58414e-05
1.58071e-05
1.57313e-05
1.56033e-05
1.53811e-05
1.52922e-05
1.55259e-05
1.56739e-05
1.5735e-05
1.57659e-05
1.57659e-05
1.5735e-05
1.56739e-05
1.55259e-05
1.52921e-05
1.51232e-05
1.53853e-05
1.55499e-05
1.5606e-05
1.56406e-05
1.56406e-05
1.5606e-05
1.55499e-05
1.53853e-05
1.51232e-05
1.48394e-05
1.5132e-05
1.52947e-05
1.53813e-05
1.54201e-05
1.54201e-05
1.53813e-05
1.52947e-05
1.51319e-05
1.48394e-05
1.45255e-05
1.48736e-05
1.50837e-05
1.51959e-05
1.52452e-05
1.52452e-05
1.51962e-05
1.50874e-05
1.48836e-05
1.45255e-05
1.48833e-05
1.52005e-05
1.5378e-05
1.5476e-05
1.55228e-05
1.55231e-05
1.54797e-05
1.54061e-05
1.52011e-05
1.48738e-05
1.50872e-05
1.54056e-05
1.55637e-05
1.56383e-05
1.56814e-05
1.5682e-05
1.56429e-05
1.55641e-05
1.53784e-05
1.50838e-05
1.51962e-05
1.54795e-05
1.56427e-05
1.57341e-05
1.57752e-05
1.57777e-05
1.57342e-05
1.56385e-05
1.54761e-05
1.5196e-05
1.52452e-05
1.5523e-05
1.56819e-05
1.57776e-05
1.58322e-05
1.58323e-05
1.57751e-05
1.56814e-05
1.55228e-05
1.52452e-05
1.52452e-05
1.55228e-05
1.56814e-05
1.57752e-05
1.58322e-05
1.58323e-05
1.57751e-05
1.56814e-05
1.55228e-05
1.52452e-05
1.5196e-05
1.54761e-05
1.56385e-05
1.57342e-05
1.57779e-05
1.57779e-05
1.57343e-05
1.56385e-05
1.54761e-05
1.5196e-05
1.50839e-05
1.53784e-05
1.55641e-05
1.56429e-05
1.56821e-05
1.56821e-05
1.56429e-05
1.55641e-05
1.53784e-05
1.50838e-05
1.48738e-05
1.52012e-05
1.54061e-05
1.54797e-05
1.55231e-05
1.55231e-05
1.54798e-05
1.54061e-05
1.52011e-05
1.48738e-05
1.45255e-05
1.48836e-05
1.50874e-05
1.51962e-05
1.52452e-05
1.52452e-05
1.51962e-05
1.50874e-05
1.48836e-05
1.45255e-05
1.42317e-05
1.46345e-05
1.48822e-05
1.50161e-05
1.50752e-05
1.50753e-05
1.50167e-05
1.48868e-05
1.46453e-05
1.42317e-05
1.46451e-05
1.50213e-05
1.52337e-05
1.53511e-05
1.54072e-05
1.54076e-05
1.53558e-05
1.52645e-05
1.50219e-05
1.46347e-05
1.48866e-05
1.5264e-05
1.54551e-05
1.55467e-05
1.55983e-05
1.55991e-05
1.55519e-05
1.54555e-05
1.5234e-05
1.48824e-05
1.50166e-05
1.53556e-05
1.55517e-05
1.56617e-05
1.57117e-05
1.57145e-05
1.56619e-05
1.55469e-05
1.53513e-05
1.50162e-05
1.50753e-05
1.54075e-05
1.5599e-05
1.57144e-05
1.57796e-05
1.57797e-05
1.57115e-05
1.55983e-05
1.54072e-05
1.50752e-05
1.50753e-05
1.54072e-05
1.55983e-05
1.57117e-05
1.57797e-05
1.57798e-05
1.57115e-05
1.55983e-05
1.54072e-05
1.50752e-05
1.50162e-05
1.53513e-05
1.55469e-05
1.56619e-05
1.57148e-05
1.57148e-05
1.56619e-05
1.55469e-05
1.53513e-05
1.50162e-05
1.48824e-05
1.5234e-05
1.54555e-05
1.55519e-05
1.55992e-05
1.55992e-05
1.55519e-05
1.54555e-05
1.5234e-05
1.48824e-05
1.46347e-05
1.5022e-05
1.52645e-05
1.53559e-05
1.54076e-05
1.54076e-05
1.53559e-05
1.52645e-05
1.50219e-05
1.46347e-05
1.42317e-05
1.46454e-05
1.48869e-05
1.50167e-05
1.50753e-05
1.50753e-05
1.50167e-05
1.48868e-05
1.46453e-05
1.42317e-05
1.39556e-05
1.44047e-05
1.46866e-05
1.4841e-05
1.49094e-05
1.49095e-05
1.48417e-05
1.46921e-05
1.44161e-05
1.39557e-05
1.44158e-05
1.48463e-05
1.50919e-05
1.52282e-05
1.52932e-05
1.52938e-05
1.52339e-05
1.51249e-05
1.4847e-05
1.4405e-05
1.46918e-05
1.51244e-05
1.53475e-05
1.54561e-05
1.55159e-05
1.55169e-05
1.54618e-05
1.53479e-05
1.50924e-05
1.46868e-05
1.48416e-05
1.52336e-05
1.54615e-05
1.55898e-05
1.56486e-05
1.56515e-05
1.559e-05
1.54563e-05
1.52284e-05
1.4841e-05
1.49094e-05
1.52936e-05
1.55168e-05
1.56514e-05
1.5727e-05
1.5727e-05
1.56483e-05
1.55159e-05
1.52932e-05
1.49094e-05
1.49094e-05
1.52932e-05
1.55159e-05
1.56486e-05
1.5727e-05
1.57271e-05
1.56483e-05
1.55159e-05
1.52932e-05
1.49094e-05
1.4841e-05
1.52284e-05
1.54563e-05
1.55901e-05
1.56519e-05
1.5652e-05
1.55901e-05
1.54563e-05
1.52284e-05
1.4841e-05
1.46868e-05
1.50924e-05
1.53479e-05
1.54618e-05
1.55171e-05
1.55171e-05
1.54618e-05
1.53479e-05
1.50923e-05
1.46868e-05
1.4405e-05
1.4847e-05
1.51249e-05
1.52339e-05
1.52938e-05
1.52938e-05
1.52339e-05
1.51249e-05
1.4847e-05
1.4405e-05
1.39557e-05
1.44161e-05
1.46921e-05
1.48417e-05
1.49095e-05
1.49095e-05
1.48417e-05
1.46921e-05
1.44161e-05
1.39557e-05
1.36965e-05
1.41839e-05
1.44963e-05
1.46697e-05
1.47471e-05
1.47472e-05
1.46708e-05
1.45026e-05
1.41956e-05
1.36966e-05
1.41953e-05
1.46752e-05
1.49525e-05
1.51071e-05
1.51806e-05
1.51814e-05
1.51136e-05
1.4987e-05
1.46759e-05
1.41841e-05
1.45023e-05
1.49864e-05
1.52408e-05
1.53662e-05
1.54342e-05
1.54354e-05
1.53725e-05
1.52412e-05
1.4953e-05
1.44965e-05
1.46706e-05
1.51133e-05
1.53722e-05
1.55183e-05
1.55857e-05
1.55888e-05
1.55185e-05
1.53665e-05
1.51073e-05
1.46698e-05
1.47471e-05
1.51812e-05
1.54352e-05
1.55887e-05
1.56741e-05
1.56742e-05
1.55853e-05
1.54341e-05
1.51806e-05
1.47471e-05
1.47471e-05
1.51806e-05
1.54342e-05
1.55857e-05
1.56742e-05
1.56743e-05
1.55853e-05
1.54341e-05
1.51806e-05
1.47471e-05
1.46698e-05
1.51072e-05
1.53664e-05
1.55186e-05
1.55893e-05
1.55893e-05
1.55186e-05
1.53665e-05
1.51073e-05
1.46698e-05
1.44965e-05
1.4953e-05
1.52412e-05
1.53725e-05
1.54356e-05
1.54356e-05
1.53725e-05
1.52412e-05
1.4953e-05
1.44965e-05
1.41841e-05
1.46759e-05
1.4987e-05
1.51136e-05
1.51814e-05
1.51814e-05
1.51136e-05
1.4987e-05
1.46759e-05
1.41841e-05
1.36965e-05
1.41955e-05
1.45026e-05
1.46708e-05
1.47472e-05
1.47472e-05
1.46708e-05
1.45026e-05
1.41955e-05
1.36965e-05
1.34552e-05
1.39724e-05
1.43116e-05
1.45026e-05
1.45883e-05
1.45884e-05
1.45039e-05
1.43185e-05
1.39842e-05
1.34553e-05
1.39839e-05
1.4508e-05
1.48154e-05
1.49875e-05
1.50694e-05
1.50703e-05
1.49949e-05
1.48509e-05
1.45087e-05
1.39726e-05
1.43182e-05
1.48503e-05
1.5135e-05
1.52772e-05
1.53531e-05
1.53544e-05
1.52839e-05
1.51354e-05
1.48158e-05
1.43118e-05
1.45037e-05
1.49945e-05
1.52835e-05
1.54472e-05
1.5523e-05
1.55263e-05
1.54474e-05
1.52774e-05
1.49877e-05
1.45026e-05
1.45883e-05
1.50702e-05
1.53543e-05
1.55261e-05
1.56212e-05
1.56213e-05
1.55226e-05
1.53529e-05
1.50694e-05
1.45882e-05
1.45882e-05
1.50694e-05
1.53531e-05
1.5523e-05
1.56213e-05
1.56213e-05
1.55226e-05
1.53529e-05
1.50694e-05
1.45882e-05
1.45026e-05
1.49877e-05
1.52774e-05
1.54475e-05
1.55268e-05
1.55268e-05
1.54474e-05
1.52774e-05
1.49877e-05
1.45026e-05
1.43117e-05
1.48158e-05
1.51354e-05
1.52839e-05
1.53547e-05
1.53547e-05
1.52839e-05
1.51354e-05
1.48158e-05
1.43118e-05
1.39726e-05
1.45087e-05
1.48508e-05
1.49949e-05
1.50704e-05
1.50704e-05
1.49949e-05
1.48509e-05
1.45087e-05
1.39726e-05
1.34553e-05
1.39842e-05
1.43185e-05
1.45038e-05
1.45884e-05
1.45884e-05
1.45038e-05
1.43185e-05
1.39842e-05
1.34553e-05
1.32344e-05
1.37712e-05
1.41329e-05
1.43397e-05
1.44332e-05
1.44334e-05
1.43413e-05
1.41404e-05
1.3783e-05
1.32345e-05
1.37828e-05
1.43452e-05
1.46806e-05
1.48697e-05
1.49596e-05
1.49606e-05
1.48777e-05
1.47167e-05
1.43458e-05
1.37714e-05
1.41401e-05
1.47162e-05
1.50302e-05
1.51889e-05
1.52726e-05
1.52741e-05
1.5196e-05
1.50306e-05
1.46811e-05
1.41331e-05
1.43411e-05
1.48774e-05
1.51956e-05
1.53765e-05
1.54606e-05
1.54639e-05
1.53766e-05
1.51892e-05
1.48699e-05
1.43398e-05
1.44333e-05
1.49605e-05
1.52739e-05
1.54638e-05
1.55682e-05
1.55683e-05
1.54601e-05
1.52724e-05
1.49595e-05
1.44332e-05
1.44332e-05
1.49596e-05
1.52726e-05
1.54606e-05
1.55684e-05
1.55684e-05
1.54601e-05
1.52724e-05
1.49595e-05
1.44332e-05
1.43398e-05
1.48699e-05
1.51891e-05
1.53767e-05
1.54646e-05
1.54646e-05
1.53767e-05
1.51892e-05
1.48699e-05
1.43398e-05
1.41331e-05
1.4681e-05
1.50306e-05
1.5196e-05
1.52744e-05
1.52744e-05
1.5196e-05
1.50306e-05
1.46811e-05
1.41331e-05
1.37714e-05
1.43458e-05
1.47167e-05
1.48777e-05
1.49608e-05
1.49608e-05
1.48777e-05
1.47167e-05
1.43458e-05
1.37714e-05
1.32344e-05
1.3783e-05
1.41404e-05
1.43413e-05
1.44334e-05
1.44334e-05
1.43413e-05
1.41404e-05
1.3783e-05
1.32345e-05
1.3037e-05
1.35815e-05
1.3961e-05
1.41818e-05
1.42823e-05
1.42825e-05
1.41836e-05
1.39689e-05
1.35932e-05
1.3037e-05
1.3593e-05
1.4187e-05
1.45484e-05
1.47537e-05
1.48512e-05
1.48525e-05
1.47623e-05
1.45849e-05
1.41876e-05
1.35817e-05
1.39687e-05
1.45843e-05
1.49264e-05
1.51015e-05
1.51927e-05
1.51944e-05
1.51089e-05
1.49269e-05
1.45488e-05
1.39612e-05
1.41834e-05
1.4762e-05
1.51085e-05
1.53061e-05
1.53984e-05
1.54019e-05
1.53063e-05
1.51017e-05
1.47539e-05
1.41818e-05
1.42824e-05
1.48523e-05
1.51943e-05
1.54017e-05
1.55152e-05
1.55152e-05
1.53979e-05
1.51925e-05
1.48511e-05
1.42822e-05
1.42823e-05
1.48512e-05
1.51927e-05
1.53985e-05
1.55154e-05
1.55153e-05
1.53979e-05
1.51925e-05
1.48511e-05
1.42822e-05
1.41818e-05
1.47538e-05
1.51017e-05
1.53064e-05
1.54026e-05
1.54026e-05
1.53064e-05
1.51017e-05
1.47538e-05
1.41818e-05
1.39612e-05
1.45488e-05
1.49268e-05
1.51089e-05
1.51948e-05
1.51948e-05
1.51089e-05
1.49269e-05
1.45488e-05
1.39612e-05
1.35816e-05
1.41876e-05
1.45848e-05
1.47623e-05
1.48526e-05
1.48526e-05
1.47623e-05
1.45848e-05
1.41876e-05
1.35817e-05
1.3037e-05
1.35932e-05
1.39689e-05
1.41835e-05
1.42825e-05
1.42825e-05
1.41835e-05
1.39689e-05
1.35932e-05
1.3037e-05
1.28687e-05
1.34048e-05
1.37966e-05
1.40292e-05
1.41359e-05
1.41362e-05
1.40312e-05
1.38049e-05
1.34164e-05
1.28687e-05
1.34162e-05
1.40339e-05
1.44189e-05
1.46395e-05
1.47444e-05
1.47458e-05
1.46487e-05
1.44555e-05
1.40345e-05
1.3405e-05
1.38046e-05
1.4455e-05
1.48239e-05
1.50149e-05
1.51136e-05
1.51154e-05
1.50225e-05
1.48243e-05
1.44194e-05
1.37968e-05
1.4031e-05
1.46483e-05
1.50222e-05
1.52363e-05
1.53366e-05
1.53401e-05
1.52364e-05
1.50151e-05
1.46397e-05
1.40292e-05
1.41362e-05
1.47457e-05
1.51153e-05
1.53399e-05
1.54622e-05
1.54622e-05
1.5336e-05
1.51133e-05
1.47443e-05
1.41359e-05
1.41359e-05
1.47444e-05
1.51136e-05
1.53366e-05
1.54624e-05
1.54623e-05
1.5336e-05
1.51133e-05
1.47443e-05
1.41359e-05
1.40292e-05
1.46397e-05
1.50151e-05
1.52366e-05
1.53409e-05
1.53409e-05
1.52366e-05
1.50151e-05
1.46397e-05
1.40292e-05
1.37968e-05
1.44194e-05
1.48243e-05
1.50226e-05
1.51159e-05
1.51159e-05
1.50226e-05
1.48243e-05
1.44194e-05
1.37968e-05
1.3405e-05
1.40345e-05
1.44555e-05
1.46487e-05
1.47461e-05
1.47461e-05
1.46487e-05
1.44555e-05
1.40345e-05
1.3405e-05
1.28687e-05
1.34164e-05
1.38049e-05
1.40312e-05
1.41363e-05
1.41363e-05
1.40312e-05
1.38049e-05
1.34164e-05
1.28687e-05
1.27372e-05
1.32434e-05
1.36406e-05
1.38824e-05
1.39946e-05
1.39949e-05
1.38847e-05
1.36492e-05
1.32547e-05
1.27371e-05
1.32546e-05
1.38866e-05
1.42924e-05
1.45273e-05
1.46393e-05
1.46408e-05
1.4537e-05
1.43289e-05
1.38872e-05
1.32435e-05
1.36489e-05
1.43284e-05
1.47226e-05
1.49292e-05
1.50352e-05
1.50371e-05
1.49371e-05
1.47231e-05
1.42929e-05
1.36408e-05
1.38845e-05
1.45366e-05
1.49368e-05
1.51669e-05
1.5275e-05
1.52786e-05
1.5167e-05
1.49294e-05
1.45275e-05
1.38825e-05
1.39949e-05
1.46407e-05
1.5037e-05
1.52784e-05
1.54092e-05
1.54092e-05
1.52744e-05
1.50348e-05
1.46391e-05
1.39945e-05
1.39946e-05
1.46393e-05
1.50352e-05
1.52751e-05
1.54094e-05
1.54093e-05
1.52744e-05
1.50348e-05
1.46391e-05
1.39945e-05
1.38825e-05
1.45275e-05
1.49294e-05
1.51672e-05
1.52794e-05
1.52794e-05
1.51672e-05
1.49294e-05
1.45275e-05
1.38825e-05
1.36408e-05
1.42928e-05
1.4723e-05
1.49371e-05
1.50376e-05
1.50376e-05
1.49372e-05
1.47231e-05
1.42928e-05
1.36408e-05
1.32435e-05
1.38872e-05
1.43289e-05
1.4537e-05
1.46411e-05
1.46411e-05
1.4537e-05
1.43289e-05
1.38872e-05
1.32435e-05
1.27371e-05
1.32547e-05
1.36491e-05
1.38847e-05
1.3995e-05
1.3995e-05
1.38847e-05
1.36491e-05
1.32547e-05
1.27371e-05
1.26584e-05
1.3101e-05
1.34943e-05
1.37423e-05
1.38588e-05
1.38592e-05
1.37448e-05
1.3503e-05
1.31121e-05
1.26582e-05
1.3112e-05
1.37458e-05
1.41691e-05
1.44173e-05
1.45359e-05
1.45376e-05
1.44273e-05
1.42054e-05
1.37464e-05
1.31011e-05
1.35028e-05
1.42049e-05
1.46227e-05
1.48444e-05
1.49575e-05
1.49596e-05
1.48525e-05
1.46232e-05
1.41695e-05
1.34944e-05
1.37446e-05
1.4427e-05
1.48522e-05
1.5098e-05
1.52137e-05
1.52173e-05
1.50981e-05
1.48446e-05
1.44175e-05
1.37424e-05
1.38591e-05
1.45374e-05
1.49594e-05
1.52172e-05
1.53563e-05
1.53562e-05
1.5213e-05
1.49571e-05
1.45356e-05
1.38587e-05
1.38588e-05
1.45359e-05
1.49575e-05
1.52138e-05
1.53565e-05
1.53564e-05
1.52131e-05
1.49571e-05
1.45356e-05
1.38587e-05
1.37424e-05
1.44175e-05
1.48447e-05
1.50983e-05
1.52182e-05
1.52182e-05
1.50982e-05
1.48446e-05
1.44175e-05
1.37424e-05
1.34945e-05
1.41695e-05
1.46232e-05
1.48526e-05
1.49601e-05
1.49601e-05
1.48526e-05
1.46232e-05
1.41695e-05
1.34944e-05
1.31011e-05
1.37464e-05
1.42054e-05
1.44273e-05
1.45379e-05
1.45379e-05
1.44273e-05
1.42054e-05
1.37464e-05
1.31011e-05
1.26582e-05
1.31121e-05
1.3503e-05
1.37448e-05
1.38593e-05
1.38593e-05
1.37448e-05
1.3503e-05
1.31121e-05
1.26582e-05
1.26545e-05
1.29831e-05
1.33595e-05
1.36097e-05
1.37291e-05
1.37296e-05
1.36123e-05
1.33684e-05
1.2994e-05
1.26543e-05
1.29939e-05
1.36126e-05
1.40493e-05
1.43095e-05
1.44343e-05
1.44361e-05
1.43198e-05
1.40852e-05
1.36131e-05
1.29832e-05
1.33682e-05
1.40848e-05
1.45243e-05
1.47606e-05
1.48805e-05
1.48827e-05
1.47688e-05
1.45248e-05
1.40497e-05
1.33596e-05
1.36122e-05
1.43195e-05
1.47685e-05
1.50295e-05
1.51528e-05
1.51564e-05
1.50296e-05
1.47608e-05
1.43096e-05
1.36097e-05
1.37296e-05
1.44359e-05
1.48826e-05
1.51563e-05
1.53034e-05
1.53033e-05
1.51521e-05
1.48801e-05
1.4434e-05
1.3729e-05
1.37292e-05
1.44343e-05
1.48805e-05
1.51529e-05
1.53036e-05
1.53035e-05
1.51521e-05
1.48801e-05
1.4434e-05
1.3729e-05
1.36098e-05
1.43097e-05
1.47608e-05
1.50299e-05
1.51574e-05
1.51574e-05
1.50298e-05
1.47608e-05
1.43096e-05
1.36097e-05
1.33597e-05
1.40497e-05
1.45248e-05
1.47689e-05
1.48833e-05
1.48833e-05
1.47689e-05
1.45248e-05
1.40497e-05
1.33596e-05
1.29832e-05
1.36131e-05
1.40852e-05
1.43198e-05
1.44365e-05
1.44365e-05
1.43198e-05
1.40852e-05
1.36131e-05
1.29832e-05
1.26543e-05
1.2994e-05
1.33684e-05
1.36123e-05
1.37297e-05
1.37297e-05
1.36123e-05
1.33684e-05
1.2994e-05
1.26543e-05
1.27726e-05
1.28995e-05
1.32393e-05
1.34859e-05
1.36066e-05
1.36071e-05
1.34887e-05
1.32483e-05
1.29103e-05
1.27724e-05
1.29101e-05
1.34885e-05
1.39332e-05
1.4204e-05
1.43346e-05
1.43365e-05
1.42146e-05
1.39688e-05
1.34889e-05
1.28995e-05
1.32481e-05
1.39683e-05
1.44275e-05
1.46777e-05
1.48043e-05
1.48066e-05
1.46861e-05
1.44279e-05
1.39336e-05
1.32394e-05
1.34886e-05
1.42143e-05
1.46858e-05
1.49616e-05
1.50922e-05
1.50958e-05
1.49617e-05
1.46779e-05
1.42042e-05
1.3486e-05
1.36071e-05
1.43364e-05
1.48065e-05
1.50957e-05
1.52506e-05
1.52505e-05
1.50914e-05
1.48038e-05
1.43342e-05
1.36065e-05
1.36067e-05
1.43346e-05
1.48044e-05
1.50923e-05
1.52508e-05
1.52507e-05
1.50914e-05
1.48038e-05
1.43342e-05
1.36065e-05
1.3486e-05
1.42042e-05
1.4678e-05
1.4962e-05
1.50968e-05
1.50968e-05
1.49619e-05
1.46779e-05
1.42042e-05
1.3486e-05
1.32395e-05
1.39337e-05
1.44279e-05
1.46862e-05
1.48073e-05
1.48073e-05
1.46862e-05
1.44279e-05
1.39336e-05
1.32395e-05
1.28996e-05
1.3489e-05
1.39688e-05
1.42146e-05
1.43369e-05
1.43369e-05
1.42146e-05
1.39688e-05
1.34889e-05
1.28995e-05
1.27724e-05
1.29103e-05
1.32484e-05
1.34887e-05
1.36073e-05
1.36073e-05
1.34887e-05
1.32483e-05
1.29103e-05
1.27723e-05
1.30787e-05
1.28657e-05
1.31387e-05
1.33733e-05
1.34928e-05
1.34933e-05
1.33763e-05
1.31477e-05
1.28765e-05
1.30783e-05
1.28762e-05
1.33761e-05
1.38217e-05
1.41011e-05
1.42368e-05
1.42389e-05
1.41119e-05
1.38568e-05
1.33766e-05
1.28657e-05
1.31475e-05
1.38563e-05
1.43323e-05
1.45958e-05
1.47289e-05
1.47313e-05
1.46043e-05
1.43328e-05
1.38221e-05
1.31387e-05
1.33761e-05
1.41115e-05
1.4604e-05
1.48942e-05
1.50319e-05
1.50355e-05
1.48943e-05
1.4596e-05
1.41012e-05
1.33733e-05
1.34933e-05
1.42387e-05
1.47311e-05
1.50354e-05
1.51979e-05
1.51978e-05
1.50311e-05
1.47283e-05
1.42365e-05
1.34926e-05
1.34928e-05
1.42369e-05
1.47289e-05
1.5032e-05
1.51982e-05
1.51981e-05
1.50311e-05
1.47283e-05
1.42365e-05
1.34926e-05
1.33734e-05
1.41013e-05
1.45961e-05
1.48946e-05
1.50366e-05
1.50366e-05
1.48945e-05
1.4596e-05
1.41012e-05
1.33733e-05
1.31388e-05
1.38221e-05
1.43328e-05
1.46045e-05
1.47321e-05
1.47321e-05
1.46045e-05
1.43328e-05
1.38221e-05
1.31388e-05
1.28657e-05
1.33766e-05
1.38568e-05
1.41119e-05
1.42394e-05
1.42394e-05
1.41119e-05
1.38568e-05
1.33766e-05
1.28657e-05
1.30783e-05
1.28765e-05
1.31478e-05
1.33763e-05
1.34935e-05
1.34935e-05
1.33763e-05
1.31477e-05
1.28765e-05
1.30783e-05
1.37075e-05
1.29046e-05
1.30649e-05
1.32752e-05
1.33898e-05
1.33904e-05
1.32783e-05
1.30741e-05
1.29155e-05
1.37073e-05
1.29151e-05
1.32797e-05
1.37154e-05
1.4001e-05
1.41413e-05
1.41434e-05
1.40119e-05
1.375e-05
1.32802e-05
1.29045e-05
1.30738e-05
1.37495e-05
1.42389e-05
1.45149e-05
1.46543e-05
1.46568e-05
1.45235e-05
1.42394e-05
1.37158e-05
1.30649e-05
1.32782e-05
1.40116e-05
1.45232e-05
1.48272e-05
1.4972e-05
1.49756e-05
1.48273e-05
1.45151e-05
1.40012e-05
1.32753e-05
1.33904e-05
1.41433e-05
1.46566e-05
1.49755e-05
1.51453e-05
1.51453e-05
1.49711e-05
1.46537e-05
1.41408e-05
1.33896e-05
1.33898e-05
1.41413e-05
1.46543e-05
1.49721e-05
1.51456e-05
1.51455e-05
1.49711e-05
1.46537e-05
1.41408e-05
1.33896e-05
1.32753e-05
1.40013e-05
1.45153e-05
1.48277e-05
1.49767e-05
1.49767e-05
1.48276e-05
1.45151e-05
1.40012e-05
1.32753e-05
1.3065e-05
1.37159e-05
1.42395e-05
1.45237e-05
1.46576e-05
1.46576e-05
1.45237e-05
1.42394e-05
1.37158e-05
1.3065e-05
1.29046e-05
1.32802e-05
1.37501e-05
1.4012e-05
1.4144e-05
1.41439e-05
1.4012e-05
1.37501e-05
1.32802e-05
1.29045e-05
1.37072e-05
1.29155e-05
1.30741e-05
1.32784e-05
1.33906e-05
1.33906e-05
1.32783e-05
1.30741e-05
1.29155e-05
1.37072e-05
1.48401e-05
1.30549e-05
1.30296e-05
1.31969e-05
1.33012e-05
1.33019e-05
1.32001e-05
1.3039e-05
1.30663e-05
1.48399e-05
1.30658e-05
1.32053e-05
1.36158e-05
1.39041e-05
1.4048e-05
1.40503e-05
1.39152e-05
1.365e-05
1.32058e-05
1.30548e-05
1.30387e-05
1.36495e-05
1.41476e-05
1.44351e-05
1.45805e-05
1.4583e-05
1.44438e-05
1.41481e-05
1.36163e-05
1.30297e-05
1.32e-05
1.39149e-05
1.44435e-05
1.47609e-05
1.49123e-05
1.4916e-05
1.4761e-05
1.44353e-05
1.39043e-05
1.31969e-05
1.33018e-05
1.40501e-05
1.45828e-05
1.49159e-05
1.50929e-05
1.50928e-05
1.49114e-05
1.45798e-05
1.40476e-05
1.3301e-05
1.33012e-05
1.40481e-05
1.45805e-05
1.49125e-05
1.50932e-05
1.50931e-05
1.49115e-05
1.45798e-05
1.40476e-05
1.3301e-05
1.3197e-05
1.39044e-05
1.44355e-05
1.47614e-05
1.49172e-05
1.49172e-05
1.47612e-05
1.44354e-05
1.39043e-05
1.31969e-05
1.30298e-05
1.36163e-05
1.41482e-05
1.4444e-05
1.45839e-05
1.45839e-05
1.4444e-05
1.41482e-05
1.36163e-05
1.30298e-05
1.30549e-05
1.32058e-05
1.365e-05
1.39153e-05
1.40509e-05
1.40509e-05
1.39153e-05
1.365e-05
1.32058e-05
1.30548e-05
1.48396e-05
1.30663e-05
1.3039e-05
1.32002e-05
1.33021e-05
1.33021e-05
1.32001e-05
1.3039e-05
1.30663e-05
1.48397e-05
1.6874e-05
1.33743e-05
1.30504e-05
1.31468e-05
1.32329e-05
1.32336e-05
1.31502e-05
1.306e-05
1.33866e-05
1.68747e-05
1.33858e-05
1.31626e-05
1.35251e-05
1.38112e-05
1.39575e-05
1.39598e-05
1.38223e-05
1.35588e-05
1.31632e-05
1.33742e-05
1.30596e-05
1.35582e-05
1.40587e-05
1.43565e-05
1.45075e-05
1.45101e-05
1.43653e-05
1.40592e-05
1.35256e-05
1.30504e-05
1.315e-05
1.3822e-05
1.43649e-05
1.4695e-05
1.48531e-05
1.48567e-05
1.46951e-05
1.43567e-05
1.38114e-05
1.31468e-05
1.32336e-05
1.39597e-05
1.45099e-05
1.48566e-05
1.50406e-05
1.50405e-05
1.48522e-05
1.45068e-05
1.3957e-05
1.32327e-05
1.32329e-05
1.39575e-05
1.45075e-05
1.48532e-05
1.50409e-05
1.50408e-05
1.48522e-05
1.45068e-05
1.3957e-05
1.32327e-05
1.31469e-05
1.38115e-05
1.43569e-05
1.46956e-05
1.4858e-05
1.4858e-05
1.46954e-05
1.43567e-05
1.38114e-05
1.31468e-05
1.30505e-05
1.35256e-05
1.40593e-05
1.43655e-05
1.45111e-05
1.45111e-05
1.43655e-05
1.40593e-05
1.35256e-05
1.30505e-05
1.33743e-05
1.31633e-05
1.35588e-05
1.38225e-05
1.39605e-05
1.39605e-05
1.38225e-05
1.35588e-05
1.31632e-05
1.33742e-05
1.68744e-05
1.33865e-05
1.306e-05
1.31502e-05
1.32338e-05
1.32338e-05
1.31502e-05
1.30599e-05
1.33865e-05
1.68744e-05
2.02548e-05
1.39678e-05
1.31568e-05
1.31368e-05
1.31928e-05
1.31935e-05
1.31404e-05
1.31668e-05
1.39819e-05
2.0256e-05
1.39806e-05
1.31658e-05
1.34465e-05
1.37232e-05
1.38702e-05
1.38726e-05
1.37345e-05
1.34798e-05
1.31665e-05
1.39677e-05
1.31663e-05
1.34791e-05
1.39725e-05
1.42791e-05
1.44353e-05
1.4438e-05
1.42879e-05
1.39731e-05
1.3447e-05
1.31567e-05
1.31402e-05
1.3734e-05
1.42875e-05
1.46297e-05
1.47942e-05
1.47978e-05
1.46299e-05
1.42793e-05
1.37234e-05
1.31368e-05
1.31935e-05
1.38724e-05
1.44378e-05
1.47977e-05
1.49884e-05
1.49884e-05
1.47933e-05
1.44346e-05
1.38697e-05
1.31926e-05
1.31928e-05
1.38702e-05
1.44354e-05
1.47944e-05
1.49888e-05
1.49886e-05
1.47933e-05
1.44346e-05
1.38697e-05
1.31926e-05
1.31369e-05
1.37235e-05
1.42795e-05
1.46303e-05
1.47991e-05
1.47991e-05
1.46302e-05
1.42794e-05
1.37234e-05
1.31369e-05
1.31569e-05
1.3447e-05
1.39732e-05
1.42882e-05
1.44391e-05
1.44391e-05
1.42881e-05
1.39732e-05
1.3447e-05
1.31569e-05
1.39681e-05
1.31665e-05
1.34798e-05
1.37346e-05
1.38733e-05
1.38733e-05
1.37346e-05
1.34798e-05
1.31665e-05
1.39678e-05
2.0256e-05
1.39817e-05
1.31668e-05
1.31404e-05
1.31938e-05
1.31938e-05
1.31404e-05
1.31666e-05
1.39817e-05
2.02554e-05
2.52526e-05
1.49945e-05
1.33878e-05
1.3186e-05
1.31936e-05
1.31944e-05
1.31898e-05
1.33985e-05
1.50113e-05
2.52557e-05
1.50092e-05
1.32382e-05
1.33853e-05
1.36419e-05
1.3787e-05
1.37894e-05
1.36532e-05
1.34182e-05
1.32389e-05
1.49946e-05
1.33979e-05
1.34175e-05
1.38901e-05
1.42031e-05
1.43641e-05
1.43669e-05
1.42119e-05
1.38907e-05
1.33858e-05
1.33877e-05
1.31896e-05
1.36527e-05
1.42114e-05
1.45651e-05
1.47357e-05
1.47393e-05
1.45652e-05
1.42033e-05
1.36421e-05
1.31859e-05
1.31944e-05
1.37892e-05
1.43666e-05
1.47392e-05
1.49365e-05
1.49364e-05
1.47347e-05
1.43634e-05
1.37864e-05
1.31933e-05
1.31936e-05
1.3787e-05
1.43642e-05
1.47359e-05
1.49368e-05
1.49367e-05
1.47348e-05
1.43634e-05
1.37864e-05
1.31934e-05
1.31861e-05
1.36422e-05
1.42035e-05
1.45657e-05
1.47407e-05
1.47406e-05
1.45655e-05
1.42034e-05
1.36421e-05
1.31861e-05
1.33879e-05
1.33859e-05
1.38908e-05
1.42122e-05
1.43679e-05
1.43679e-05
1.42122e-05
1.38908e-05
1.33859e-05
1.3388e-05
1.4995e-05
1.32389e-05
1.34183e-05
1.36533e-05
1.37902e-05
1.37902e-05
1.36533e-05
1.34183e-05
1.32389e-05
1.49947e-05
2.52559e-05
1.50112e-05
1.33985e-05
1.31898e-05
1.31947e-05
1.31947e-05
1.31897e-05
1.33982e-05
1.5011e-05
2.52552e-05
3.19401e-05
1.66088e-05
1.38097e-05
1.33226e-05
1.32557e-05
1.32566e-05
1.33267e-05
1.38215e-05
1.66304e-05
3.1947e-05
1.66265e-05
1.3404e-05
1.33482e-05
1.35698e-05
1.37094e-05
1.37118e-05
1.35811e-05
1.33809e-05
1.34048e-05
1.66096e-05
1.38205e-05
1.33802e-05
1.38123e-05
1.41287e-05
1.42939e-05
1.42967e-05
1.41375e-05
1.3813e-05
1.33487e-05
1.38098e-05
1.33264e-05
1.35806e-05
1.4137e-05
1.4501e-05
1.46776e-05
1.46812e-05
1.45012e-05
1.41289e-05
1.35699e-05
1.33226e-05
1.32565e-05
1.37117e-05
1.42964e-05
1.4681e-05
1.48847e-05
1.48846e-05
1.46766e-05
1.42931e-05
1.37087e-05
1.32554e-05
1.32557e-05
1.37094e-05
1.4294e-05
1.46778e-05
1.48851e-05
1.48849e-05
1.46767e-05
1.42931e-05
1.37087e-05
1.32554e-05
1.33227e-05
1.35701e-05
1.41291e-05
1.45017e-05
1.46826e-05
1.46825e-05
1.45015e-05
1.4129e-05
1.35699e-05
1.33228e-05
1.38099e-05
1.33488e-05
1.3813e-05
1.41378e-05
1.42978e-05
1.42978e-05
1.41378e-05
1.3813e-05
1.33487e-05
1.38101e-05
1.66099e-05
1.34048e-05
1.3381e-05
1.35813e-05
1.37127e-05
1.37127e-05
1.35813e-05
1.33809e-05
1.34048e-05
1.66099e-05
3.19461e-05
1.66298e-05
1.38215e-05
1.33268e-05
1.32569e-05
1.32568e-05
1.33266e-05
1.38212e-05
1.663e-05
3.19466e-05
4.01178e-05
1.93544e-05
1.4528e-05
1.35882e-05
1.34038e-05
1.34048e-05
1.35927e-05
1.45416e-05
1.93823e-05
4.01296e-05
1.93756e-05
1.37199e-05
1.33465e-05
1.35108e-05
1.36396e-05
1.36421e-05
1.35222e-05
1.33794e-05
1.37211e-05
1.93564e-05
1.45398e-05
1.33786e-05
1.3741e-05
1.40563e-05
1.42248e-05
1.42276e-05
1.40651e-05
1.37416e-05
1.33471e-05
1.45282e-05
1.35921e-05
1.35218e-05
1.40646e-05
1.44377e-05
1.46199e-05
1.46234e-05
1.44378e-05
1.40565e-05
1.3511e-05
1.35881e-05
1.34047e-05
1.36419e-05
1.42274e-05
1.46233e-05
1.48331e-05
1.4833e-05
1.46189e-05
1.4224e-05
1.36389e-05
1.34035e-05
1.34038e-05
1.36396e-05
1.42249e-05
1.46201e-05
1.48335e-05
1.48333e-05
1.4619e-05
1.4224e-05
1.36389e-05
1.34035e-05
1.35881e-05
1.35112e-05
1.40568e-05
1.44384e-05
1.46249e-05
1.46249e-05
1.44382e-05
1.40566e-05
1.3511e-05
1.35883e-05
1.45281e-05
1.33472e-05
1.37418e-05
1.40655e-05
1.42288e-05
1.42288e-05
1.40654e-05
1.37417e-05
1.33471e-05
1.45286e-05
1.93557e-05
1.3721e-05
1.33794e-05
1.35225e-05
1.3643e-05
1.3643e-05
1.35224e-05
1.33794e-05
1.3721e-05
1.93563e-05
4.01259e-05
1.93805e-05
1.45412e-05
1.35927e-05
1.34051e-05
1.3405e-05
1.35924e-05
1.45408e-05
1.9381e-05
4.01278e-05
4.93543e-05
2.34632e-05
1.5669e-05
1.40472e-05
1.36839e-05
1.3685e-05
1.40523e-05
1.56849e-05
2.34971e-05
4.93701e-05
2.34868e-05
1.42576e-05
1.33947e-05
1.34705e-05
1.3581e-05
1.35835e-05
1.3482e-05
1.3428e-05
1.42591e-05
2.34666e-05
1.56819e-05
1.34271e-05
1.36786e-05
1.39864e-05
1.4157e-05
1.41599e-05
1.39952e-05
1.36793e-05
1.33953e-05
1.56693e-05
1.40514e-05
1.34815e-05
1.39947e-05
1.4375e-05
1.45626e-05
1.45661e-05
1.43752e-05
1.39866e-05
1.34707e-05
1.4047e-05
1.36847e-05
1.35834e-05
1.41596e-05
1.4566e-05
1.47817e-05