/*--------------------------------*- C++ -*----------------------------------*\
| =========                 |                                                 |
| \\      /  F ield         | OpenFOAM: The Open Source CFD Toolbox           |
|  \\    /   O peration     | Version:  2406                                  |
|   \\  /    A nd           | Website:  www.openfoam.com                      |
|    \\/     M anipulation  |                                                 |
\*---------------------------------------------------------------------------*/
FoamFile
{
    version     2.0;
    format      ascii;
    arch        "LSB;label=32;scalar=64";
    class       volSymmTensorField;
    location    "500";
    object      turbulenceProperties:devReff;
}
// * * * * * * * * * * * * * * * * * * * * * * * * * * * * * * * * * * * * * //

dimensions      [0 2 -2 0 0 0 0];

internalField   nonuniform List<symmTensor> 
25000
(
(5.28683e-06 -2.86376e-06 -1.57163e-06 5.49681e-06 -1.58713e-06 -1.07836e-05)
(6.18387e-06 2.48333e-06 -1.0531e-06 3.1675e-06 -1.39945e-06 -9.35138e-06)
(3.93689e-06 1.16695e-06 -7.81493e-07 4.07823e-06 -1.448e-06 -8.01511e-06)
(4.03124e-06 7.46217e-07 -4.55454e-07 4.07735e-06 -1.45401e-06 -8.10858e-06)
(3.99548e-06 2.75893e-07 -1.45048e-07 4.12664e-06 -1.45456e-06 -8.12211e-06)
(4.05082e-06 -2.23622e-07 1.63289e-07 4.08713e-06 -1.45532e-06 -8.13796e-06)
(4.2806e-06 -6.80627e-07 4.72496e-07 3.90039e-06 -1.45464e-06 -8.18099e-06)
(4.72085e-06 -1.10904e-06 7.87533e-07 3.51461e-06 -1.45003e-06 -8.23547e-06)
(6.13818e-06 -1.84548e-06 1.11766e-06 2.49818e-06 -1.41111e-06 -8.63636e-06)
(4.11377e-06 4.03828e-06 1.59827e-06 4.10407e-06 -1.59451e-06 -8.21783e-06)
(3.13332e-06 2.38282e-06 -1.38251e-06 6.27416e-06 -1.0596e-06 -9.40747e-06)
(4.30273e-06 3.12291e-07 -1.09075e-06 4.42413e-06 -1.10156e-06 -8.72686e-06)
(3.70272e-06 5.83457e-07 -8.09247e-07 4.29712e-06 -1.11396e-06 -7.99985e-06)
(3.61704e-06 4.31328e-07 -4.84119e-07 4.05636e-06 -1.13434e-06 -7.6734e-06)
(3.63381e-06 1.49847e-07 -1.55594e-07 3.89983e-06 -1.14607e-06 -7.53364e-06)
(3.67994e-06 -1.61003e-07 1.72111e-07 3.87059e-06 -1.14696e-06 -7.55053e-06)
(3.76823e-06 -4.88008e-07 4.99003e-07 3.95472e-06 -1.13711e-06 -7.72294e-06)
(3.93043e-06 -8.45267e-07 8.19809e-07 4.13847e-06 -1.11838e-06 -8.0689e-06)
(4.35439e-06 -1.27589e-06 1.10282e-06 4.36694e-06 -1.09801e-06 -8.72134e-06)
(2.49646e-06 -1.85188e-06 1.41411e-06 6.14438e-06 -1.11251e-06 -8.64084e-06)
(4.14099e-06 1.03825e-06 -1.44146e-06 3.9532e-06 -7.8173e-07 -8.09419e-06)
(4.25829e-06 5.16051e-07 -1.1056e-06 3.77765e-06 -8.14335e-07 -8.03594e-06)
(3.72381e-06 3.72108e-07 -8.14503e-07 3.79227e-06 -8.20381e-07 -7.51608e-06)
(3.51582e-06 2.53892e-07 -4.92933e-07 3.68935e-06 -8.26396e-07 -7.20516e-06)
(3.4578e-06 7.78098e-08 -1.59903e-07 3.60883e-06 -8.31407e-07 -7.06663e-06)
(3.48179e-06 -1.26258e-07 1.74402e-07 3.5948e-06 -8.32221e-07 -7.07659e-06)
(3.57865e-06 -3.47855e-07 5.06583e-07 3.65361e-06 -8.28954e-07 -7.23227e-06)
(3.76329e-06 -5.7826e-07 8.28668e-07 3.78216e-06 -8.22784e-07 -7.54545e-06)
(4.12133e-06 -8.46887e-07 1.12268e-06 3.94751e-06 -8.13558e-07 -8.06884e-06)
(3.50849e-06 -1.11607e-06 1.45283e-06 4.73377e-06 -7.81414e-07 -8.24226e-06)
(4.14246e-06 6.91819e-07 -1.44837e-06 4.00259e-06 -4.55212e-07 -8.14506e-06)
(4.05008e-06 3.667e-07 -1.12814e-06 3.64515e-06 -4.87115e-07 -7.69523e-06)
(3.65303e-06 2.2724e-07 -8.21169e-07 3.56065e-06 -4.96799e-07 -7.21369e-06)
(3.43353e-06 1.3927e-07 -4.96395e-07 3.47005e-06 -5.0073e-07 -6.90358e-06)
(3.34661e-06 3.47145e-08 -1.61941e-07 3.41111e-06 -5.03354e-07 -6.75773e-06)
(3.35659e-06 -8.5184e-08 1.75037e-07 3.40841e-06 -5.04122e-07 -6.765e-06)
(3.44933e-06 -2.15078e-07 5.09704e-07 3.4726e-06 -5.02755e-07 -6.92192e-06)
(3.63171e-06 -3.45946e-07 8.34776e-07 3.60497e-06 -4.99556e-07 -7.23667e-06)
(3.93336e-06 -4.90876e-07 1.14168e-06 3.79734e-06 -4.91611e-07 -7.7307e-06)
(3.88764e-06 -6.91483e-07 1.45745e-06 4.30453e-06 -4.65188e-07 -8.19217e-06)
(4.1801e-06 2.46462e-07 -1.4525e-06 3.95936e-06 -1.44162e-07 -8.13946e-06)
(3.91549e-06 1.06349e-07 -1.14114e-06 3.63376e-06 -1.56745e-07 -7.54925e-06)
(3.59291e-06 4.89959e-08 -8.26577e-07 3.47967e-06 -1.62237e-07 -7.07258e-06)
(3.38668e-06 2.30644e-08 -4.99456e-07 3.37275e-06 -1.64803e-07 -6.75943e-06)
(3.29431e-06 -3.57974e-09 -1.63393e-07 3.31526e-06 -1.66514e-07 -6.60957e-06)
(3.29655e-06 -3.71252e-08 1.75125e-07 3.31742e-06 -1.67216e-07 -6.61397e-06)
(3.38584e-06 -7.62784e-08 5.11082e-07 3.38575e-06 -1.67097e-07 -6.77159e-06)
(3.56567e-06 -1.16447e-07 8.38388e-07 3.52341e-06 -1.66188e-07 -7.08908e-06)
(3.83483e-06 -1.62038e-07 1.15168e-06 3.73277e-06 -1.63369e-07 -7.56761e-06)
(4.05896e-06 -2.41611e-07 1.45773e-06 4.09786e-06 -1.54245e-07 -8.15682e-06)
(4.12095e-06 -2.35883e-07 -1.45332e-06 4.02413e-06 1.65005e-07 -8.14508e-06)
(3.88665e-06 -1.89974e-07 -1.14384e-06 3.67111e-06 1.723e-07 -7.55776e-06)
(3.5921e-06 -1.5069e-07 -8.28544e-07 3.48893e-06 1.73362e-07 -7.08103e-06)
(3.39496e-06 -9.89372e-08 -5.00496e-07 3.37107e-06 1.7325e-07 -6.76602e-06)
(3.3022e-06 -4.25077e-08 -1.6435e-07 3.31192e-06 1.73033e-07 -6.61412e-06)
(3.30221e-06 1.16874e-08 1.74452e-07 3.31479e-06 1.72184e-07 -6.617e-06)
(3.38892e-06 6.30721e-08 5.10601e-07 3.38445e-06 1.70902e-07 -6.77337e-06)
(3.56722e-06 1.09799e-07 8.38011e-07 3.52282e-06 1.69145e-07 -7.09004e-06)
(3.83556e-06 1.58637e-07 1.15141e-06 3.73256e-06 1.6572e-07 -7.56812e-06)
(4.05904e-06 2.39671e-07 1.45756e-06 4.09792e-06 1.56136e-07 -8.15696e-06)
(3.92472e-06 -6.89467e-07 -1.45468e-06 4.25949e-06 4.74505e-07 -8.18422e-06)
(3.97225e-06 -5.06037e-07 -1.13478e-06 3.75661e-06 4.99764e-07 -7.72887e-06)
(3.65503e-06 -3.65079e-07 -8.26005e-07 3.57973e-06 5.06605e-07 -7.23476e-06)
(3.46499e-06 -2.27849e-07 -4.99895e-07 3.45828e-06 5.08951e-07 -6.92328e-06)
(3.37553e-06 -8.33422e-08 -1.64474e-07 3.3967e-06 5.09923e-07 -6.77224e-06)
(3.37425e-06 6.00781e-08 1.73e-07 3.39976e-06 5.09153e-07 -6.77401e-06)
(3.45908e-06 2.02274e-07 5.08195e-07 3.46811e-06 5.06632e-07 -6.92719e-06)
(3.63645e-06 3.39272e-07 8.33732e-07 3.60319e-06 5.02529e-07 -7.23963e-06)
(3.93546e-06 4.87343e-07 1.14093e-06 3.79678e-06 4.93963e-07 -7.73224e-06)
(3.8879e-06 6.89351e-07 1.45692e-06 4.30474e-06 4.67071e-07 -8.19264e-06)
(3.52953e-06 -1.10976e-06 -1.45003e-06 4.70653e-06 7.89571e-07 -8.23606e-06)
(4.14988e-06 -8.55653e-07 -1.1167e-06 3.92108e-06 8.21201e-07 -8.07096e-06)
(3.78533e-06 -5.90448e-07 -8.20621e-07 3.76343e-06 8.29404e-07 -7.54876e-06)
(3.60051e-06 -3.56017e-07 -4.97229e-07 3.63812e-06 8.35255e-07 -7.23863e-06)
(3.51575e-06 -1.2405e-07 -1.64057e-07 3.57444e-06 8.38166e-07 -7.09019e-06)
(3.51479e-06 1.05095e-07 1.71036e-07 3.57622e-06 8.37538e-07 -7.09101e-06)
(3.5954e-06 3.36746e-07 5.04037e-07 3.64504e-06 8.32904e-07 -7.24044e-06)
(3.77135e-06 5.72211e-07 8.26774e-07 3.77875e-06 8.25837e-07 -7.55009e-06)
(4.12513e-06 8.43055e-07 1.12136e-06 3.94628e-06 8.15933e-07 -8.0714e-06)
(3.50897e-06 1.11359e-06 1.45195e-06 4.73406e-06 7.83313e-07 -8.24303e-06)
(2.50855e-06 -1.84056e-06 -1.41149e-06 6.12744e-06 1.11979e-06 -8.63599e-06)
(4.37752e-06 -1.27963e-06 -1.09688e-06 4.3479e-06 1.10498e-06 -8.72542e-06)
(3.95124e-06 -8.55278e-07 -8.12134e-07 4.12262e-06 1.12486e-06 -8.07386e-06)
(3.79455e-06 -4.99527e-07 -4.89794e-07 3.93732e-06 1.14297e-06 -7.73187e-06)
(3.72735e-06 -1.69422e-07 -1.61718e-07 3.84111e-06 1.15251e-06 -7.56846e-06)
(3.72658e-06 1.52523e-07 1.67183e-07 3.84234e-06 1.15178e-06 -7.56893e-06)
(3.79083e-06 4.82962e-07 4.95142e-07 3.94228e-06 1.14087e-06 -7.73311e-06)
(3.9418e-06 8.40988e-07 8.17121e-07 4.13259e-06 1.12134e-06 -8.07439e-06)
(4.35983e-06 1.27233e-06 1.10087e-06 4.3647e-06 1.10035e-06 -8.72454e-06)
(2.49716e-06 1.84833e-06 1.41287e-06 6.14468e-06 1.1144e-06 -8.64184e-06)
(4.10602e-06 4.04784e-06 -1.59386e-06 4.11579e-06 1.60037e-06 -8.22182e-06)
(6.1483e-06 -1.85617e-06 -1.11148e-06 2.49786e-06 1.41645e-06 -8.64616e-06)
(4.7343e-06 -1.12355e-06 -7.80114e-07 3.50961e-06 1.45458e-06 -8.24391e-06)
(4.30252e-06 -6.98842e-07 -4.63899e-07 3.89032e-06 1.45899e-06 -8.19284e-06)
(4.09489e-06 -2.48536e-07 -1.53106e-07 4.06185e-06 1.45892e-06 -8.15674e-06)
(4.09435e-06 2.33466e-07 1.57103e-07 4.06268e-06 1.45846e-06 -8.15704e-06)
(4.30104e-06 6.83755e-07 4.67876e-07 3.89165e-06 1.45743e-06 -8.19269e-06)
(4.73033e-06 1.10898e-06 7.83939e-07 3.51281e-06 1.45212e-06 -8.24314e-06)
(6.14218e-06 1.84607e-06 1.11499e-06 2.50065e-06 1.41283e-06 -8.64282e-06)
(4.10992e-06 -4.03952e-06 1.59627e-06 4.11196e-06 1.59602e-06 -8.22188e-06)
(6.51496e-06 -3.03788e-06 3.37951e-06 6.69452e-06 3.43741e-06 -1.32095e-05)
(8.36649e-06 2.07547e-06 1.94134e-06 3.76086e-06 3.05042e-06 -1.21274e-05)
(6.08833e-06 4.72892e-07 1.46028e-06 5.43566e-06 2.7666e-06 -1.1524e-05)
(6.1521e-06 4.83012e-07 9.15154e-07 5.5055e-06 2.64248e-06 -1.16576e-05)
(6.01276e-06 1.80926e-07 2.9468e-07 5.60697e-06 2.56676e-06 -1.16197e-05)
(6.03084e-06 -1.68602e-07 -3.4068e-07 5.58724e-06 2.56198e-06 -1.16181e-05)
(6.20406e-06 -4.65971e-07 -9.84245e-07 5.44126e-06 2.6263e-06 -1.16453e-05)
(6.5663e-06 -5.09446e-07 -1.63894e-06 5.13814e-06 2.74137e-06 -1.17044e-05)
(8.35634e-06 -1.88321e-06 -2.30427e-06 3.60822e-06 3.0228e-06 -1.19646e-05)
(5.92526e-06 3.65532e-06 -3.26668e-06 5.91589e-06 3.26457e-06 -1.18412e-05)
(3.7409e-06 1.98789e-06 2.99063e-06 8.45315e-06 1.97756e-06 -1.21941e-05)
(5.85391e-06 3.65458e-07 2.00304e-06 5.97345e-06 2.05335e-06 -1.18274e-05)
(5.65652e-06 3.75088e-07 1.3632e-06 5.91419e-06 2.02218e-06 -1.15707e-05)
(5.81495e-06 1.62354e-07 8.17218e-07 5.64704e-06 1.95204e-06 -1.1462e-05)
(5.83567e-06 4.09435e-08 2.5736e-07 5.52942e-06 1.90882e-06 -1.13651e-05)
(5.84507e-06 -6.9174e-08 -3.10689e-07 5.52322e-06 1.90886e-06 -1.13683e-05)
(5.84615e-06 -2.01259e-07 -8.93684e-07 5.61911e-06 1.95466e-06 -1.14653e-05)
(5.7337e-06 -4.26897e-07 -1.49494e-06 5.8664e-06 2.04377e-06 -1.16001e-05)
(5.95091e-06 -1.01235e-06 -2.17798e-06 5.97342e-06 2.17496e-06 -1.19243e-05)
(3.60086e-06 -1.89323e-06 -3.02386e-06 8.36816e-06 2.30063e-06 -1.1969e-05)
(5.48302e-06 3.6292e-07 2.74061e-06 6.09894e-06 1.45968e-06 -1.1582e-05)
(5.88385e-06 3.20781e-07 1.98284e-06 5.72116e-06 1.38699e-06 -1.1605e-05)
(5.60122e-06 3.15933e-07 1.32952e-06 5.65611e-06 1.35895e-06 -1.12573e-05)
(5.64982e-06 1.7586e-07 7.78959e-07 5.51424e-06 1.32118e-06 -1.11641e-05)
(5.65659e-06 4.26605e-08 2.44472e-07 5.45486e-06 1.29953e-06 -1.11115e-05)
(5.66128e-06 -8.09941e-08 -2.90662e-07 5.45314e-06 1.30309e-06 -1.11144e-05)
(5.6703e-06 -2.18776e-07 -8.37505e-07 5.50781e-06 1.33603e-06 -1.11781e-05)
(5.62926e-06 -3.68859e-07 -1.40537e-06 5.65118e-06 1.39999e-06 -1.12804e-05)
(5.83773e-06 -4.26971e-07 -2.04461e-06 5.75363e-06 1.4882e-06 -1.15914e-05)
(5.12691e-06 -5.15748e-07 -2.74209e-06 6.58429e-06 1.63394e-06 -1.17112e-05)
(5.54981e-06 4.37039e-07 2.6324e-06 6.13249e-06 9.01735e-07 -1.16823e-05)
(5.63454e-06 1.15082e-07 1.92639e-06 5.84042e-06 8.21432e-07 -1.1475e-05)
(5.48613e-06 1.59186e-07 1.2966e-06 5.68463e-06 7.93704e-07 -1.11708e-05)
(5.49748e-06 1.05747e-07 7.52209e-07 5.52527e-06 7.69177e-07 -1.10228e-05)
(5.501e-06 2.33811e-08 2.37023e-07 5.44949e-06 7.55878e-07 -1.09505e-05)
(5.50585e-06 -5.82294e-08 -2.72809e-07 5.44942e-06 7.60082e-07 -1.09553e-05)
(5.50593e-06 -1.44679e-07 -7.93267e-07 5.52733e-06 7.84222e-07 -1.10333e-05)
(5.4848e-06 -2.15681e-07 -1.34099e-06 5.69434e-06 8.27724e-07 -1.11791e-05)
(5.59345e-06 -2.00877e-07 -1.95632e-06 5.87517e-06 8.83773e-07 -1.14686e-05)
(5.42334e-06 -4.73826e-07 -2.62558e-06 6.23095e-06 9.75639e-07 -1.16543e-05)
(5.64771e-06 1.47089e-07 2.56597e-06 5.99222e-06 2.81504e-07 -1.16399e-05)
(5.53846e-06 5.71492e-09 1.89356e-06 5.84262e-06 2.54056e-07 -1.13811e-05)
(5.43842e-06 2.2256e-08 1.28097e-06 5.67766e-06 2.49733e-07 -1.11161e-05)
(5.42851e-06 1.4648e-08 7.40772e-07 5.52442e-06 2.46556e-07 -1.09529e-05)
(5.42949e-06 -5.18549e-09 2.35001e-07 5.44819e-06 2.45364e-07 -1.08777e-05)
(5.43044e-06 -2.75616e-08 -2.62138e-07 5.44918e-06 2.48815e-07 -1.08796e-05)
(5.43002e-06 -5.32552e-08 -7.69539e-07 5.52822e-06 2.58267e-07 -1.09582e-05)
(5.42949e-06 -7.25721e-08 -1.30873e-06 5.69078e-06 2.73652e-07 -1.11203e-05)
(5.49053e-06 -6.4023e-08 -1.90972e-06 5.88418e-06 2.92335e-07 -1.13747e-05)
(5.55605e-06 -1.75198e-07 -2.5586e-06 6.07294e-06 3.24755e-07 -1.1629e-05)
(5.61422e-06 -1.88266e-07 2.56417e-06 6.01633e-06 -3.52497e-07 -1.16305e-05)
(5.53081e-06 -9.70206e-08 1.90063e-06 5.84597e-06 -3.16731e-07 -1.13768e-05)
(5.44824e-06 -1.02021e-07 1.29038e-06 5.67224e-06 -2.90375e-07 -1.11205e-05)
(5.43604e-06 -6.96578e-08 7.47796e-07 5.52065e-06 -2.68449e-07 -1.09567e-05)
(5.43389e-06 -3.24937e-08 2.3924e-07 5.44657e-06 -2.55939e-07 -1.08805e-05)
(5.43434e-06 1.84405e-09 -2.59877e-07 5.44764e-06 -2.53282e-07 -1.0882e-05)
(5.43222e-06 3.61451e-08 -7.68496e-07 5.52748e-06 -2.59796e-07 -1.09597e-05)
(5.43092e-06 6.11855e-08 -1.30833e-06 5.6902e-06 -2.73937e-07 -1.11211e-05)
(5.49167e-06 5.62301e-08 -1.90962e-06 5.88366e-06 -2.92197e-07 -1.13753e-05)
(5.55606e-06 1.69209e-07 -2.55861e-06 6.07292e-06 -3.24568e-07 -1.1629e-05)
(5.46587e-06 -4.85128e-07 2.63057e-06 6.18877e-06 -9.94273e-07 -1.16546e-05)
(5.6337e-06 -2.20981e-07 1.95055e-06 5.8412e-06 -9.00149e-07 -1.14749e-05)
(5.50548e-06 -2.3485e-07 1.32732e-06 5.67596e-06 -8.39818e-07 -1.11814e-05)
(5.51812e-06 -1.57173e-07 7.74928e-07 5.51859e-06 -7.92459e-07 -1.10367e-05)
(5.51741e-06 -6.03197e-08 2.50203e-07 5.44338e-06 -7.66773e-07 -1.09608e-05)
(5.51576e-06 3.26888e-08 -2.66007e-07 5.44607e-06 -7.6475e-07 -1.09618e-05)
(5.51333e-06 1.27282e-07 -7.90124e-07 5.52443e-06 -7.86029e-07 -1.10378e-05)
(5.48958e-06 2.03792e-07 -1.33974e-06 5.69252e-06 -8.28297e-07 -1.11821e-05)
(5.59636e-06 1.92825e-07 -1.95595e-06 5.87395e-06 -8.8388e-07 -1.14703e-05)
(5.42332e-06 4.67648e-07 -2.62554e-06 6.231e-06 -9.75597e-07 -1.16543e-05)
(5.15422e-06 -5.15644e-07 2.74582e-06 6.55519e-06 -1.64741e-06 -1.17094e-05)
(5.87206e-06 -4.39854e-07 2.04049e-06 5.72677e-06 -1.50055e-06 -1.15988e-05)
(5.65221e-06 -3.81842e-07 1.39438e-06 5.63426e-06 -1.40974e-06 -1.12865e-05)
(5.68834e-06 -2.26032e-07 8.20919e-07 5.49586e-06 -1.34315e-06 -1.11842e-05)
(5.68144e-06 -8.14117e-08 2.67186e-07 5.44171e-06 -1.30893e-06 -1.11232e-05)
(5.68043e-06 5.54521e-08 -2.79275e-07 5.44299e-06 -1.30725e-06 -1.11234e-05)
(5.68288e-06 2.0024e-07 -8.32264e-07 5.5015e-06 -1.33801e-06 -1.11844e-05)
(5.63751e-06 3.56531e-07 -1.40321e-06 5.64735e-06 -1.40101e-06 -1.12849e-05)
(5.84356e-06 4.182e-07 -2.04387e-06 5.75085e-06 -1.4887e-06 -1.15944e-05)
(5.12724e-06 5.09294e-07 -2.7419e-06 6.58413e-06 -1.63416e-06 -1.17114e-05)
(3.62197e-06 -1.8797e-06 3.02589e-06 8.34362e-06 -2.31081e-06 -1.19656e-05)
(5.98566e-06 -1.01722e-06 2.17415e-06 5.94531e-06 -2.18521e-06 -1.1931e-05)
(5.75965e-06 -4.36603e-07 1.48555e-06 5.84504e-06 -2.05233e-06 -1.16047e-05)
(5.8715e-06 -2.10948e-07 8.78886e-07 5.59955e-06 -1.96071e-06 -1.14711e-05)
(5.87733e-06 -7.30232e-08 2.87512e-07 5.49913e-06 -1.91244e-06 -1.13765e-05)
(5.87621e-06 4.80626e-08 -2.96314e-07 5.50065e-06 -1.91094e-06 -1.13769e-05)
(5.86655e-06 1.86664e-07 -8.87105e-07 5.60582e-06 -1.95625e-06 -1.14724e-05)
(5.74822e-06 4.15237e-07 -1.492e-06 5.85661e-06 -2.04501e-06 -1.16048e-05)
(5.9606e-06 1.00339e-06 -2.17673e-06 5.96698e-06 -2.17583e-06 -1.19276e-05)
(3.60279e-06 1.88414e-06 -3.02326e-06 8.3661e-06 -2.30112e-06 -1.19689e-05)
(5.92113e-06 3.66415e-06 3.26707e-06 5.9282e-06 -3.27451e-06 -1.18493e-05)
(8.37338e-06 -1.89952e-06 2.3003e-06 3.60362e-06 -3.03326e-06 -1.1977e-05)
(6.58473e-06 -5.23129e-07 1.63128e-06 5.12745e-06 -2.74967e-06 -1.17122e-05)
(6.22845e-06 -4.80682e-07 9.72305e-07 5.42579e-06 -2.63156e-06 -1.16542e-05)
(6.06951e-06 -1.82186e-07 3.21514e-07 5.5588e-06 -2.56309e-06 -1.16283e-05)
(6.06853e-06 1.62445e-07 -3.27319e-07 5.56052e-06 -2.56164e-06 -1.1629e-05)
(6.22622e-06 4.60821e-07 -9.77736e-07 5.42846e-06 -2.62725e-06 -1.16547e-05)
(6.57953e-06 5.03378e-07 -1.6357e-06 5.13295e-06 -2.74264e-06 -1.17125e-05)
(8.36464e-06 1.88165e-06 -2.30263e-06 3.60844e-06 -3.02418e-06 -1.19731e-05)
(5.92178e-06 -3.65876e-06 -3.26583e-06 5.92465e-06 -3.26554e-06 -1.18464e-05)
(5.44753e-06 -8.05757e-07 4.58989e-06 5.4393e-06 4.65121e-06 -1.08868e-05)
(6.37553e-06 1.16564e-06 2.90011e-06 3.59953e-06 4.10272e-06 -9.97506e-06)
(4.86579e-06 -4.97789e-08 2.12477e-06 4.99804e-06 3.9078e-06 -9.86383e-06)
(4.94132e-06 2.53078e-07 1.28942e-06 4.93797e-06 3.82381e-06 -9.87929e-06)
(4.81106e-06 6.74882e-08 4.15644e-07 5.02531e-06 3.75675e-06 -9.83638e-06)
(4.82446e-06 -6.90304e-08 -4.70648e-07 5.01665e-06 3.75394e-06 -9.84111e-06)
(4.9201e-06 -2.51192e-07 -1.35698e-06 4.9386e-06 3.81271e-06 -9.8587e-06)
(5.09674e-06 2.64021e-08 -2.25982e-06 4.87377e-06 3.89036e-06 -9.97051e-06)
(6.29234e-06 -1.12083e-06 -3.18647e-06 3.70027e-06 4.0844e-06 -9.9926e-06)
(5.14781e-06 9.83589e-07 -4.5358e-06 5.14432e-06 4.53045e-06 -1.02921e-05)
(3.64022e-06 1.13218e-06 4.04126e-06 6.39916e-06 2.93825e-06 -1.00394e-05)
(4.8129e-06 1.50592e-07 2.91577e-06 4.87411e-06 2.96793e-06 -9.68701e-06)
(4.79781e-06 8.53584e-08 2.08656e-06 5.04567e-06 2.9497e-06 -9.84347e-06)
(4.96865e-06 -1.01821e-08 1.25521e-06 4.9035e-06 2.92512e-06 -9.87215e-06)
(4.9523e-06 -1.08626e-08 4.00245e-07 4.89351e-06 2.90692e-06 -9.84582e-06)
(4.95396e-06 -2.79734e-09 -4.59231e-07 4.89291e-06 2.90759e-06 -9.84687e-06)
(4.96378e-06 -2.02665e-08 -1.32829e-06 4.90036e-06 2.92997e-06 -9.86414e-06)
(4.80274e-06 -6.61204e-08 -2.19544e-06 5.03992e-06 2.9691e-06 -9.84266e-06)
(4.86316e-06 -5.02672e-07 -3.0551e-06 4.87453e-06 3.04749e-06 -9.73769e-06)
(3.69295e-06 -1.1261e-06 -4.0873e-06 6.29683e-06 3.17721e-06 -9.98978e-06)
(5.03637e-06 -9.6131e-08 3.87975e-06 4.85734e-06 2.12722e-06 -9.89371e-06)
(5.04396e-06 6.1757e-08 2.9105e-06 4.82448e-06 2.11423e-06 -9.86844e-06)
(4.87794e-06 1.33296e-07 2.06135e-06 4.89751e-06 2.09291e-06 -9.77545e-06)
(4.95713e-06 6.51384e-08 1.23835e-06 4.85746e-06 2.06825e-06 -9.81459e-06)
(4.93552e-06 1.69471e-08 3.96644e-07 4.87055e-06 2.05755e-06 -9.80607e-06)
(4.93519e-06 -3.16217e-08 -4.4865e-07 4.87029e-06 2.06074e-06 -9.80548e-06)
(4.95917e-06 -8.17331e-08 -1.29777e-06 4.8564e-06 2.08135e-06 -9.81557e-06)
(4.88921e-06 -1.37776e-07 -2.13421e-06 4.89642e-06 2.12348e-06 -9.78563e-06)
(5.02315e-06 -6.52825e-08 -2.97258e-06 4.80669e-06 2.1818e-06 -9.82983e-06)
(4.86711e-06 2.60986e-08 -3.89356e-06 5.10324e-06 2.24884e-06 -9.97035e-06)
(4.95839e-06 2.46413e-07 3.80956e-06 4.92888e-06 1.28056e-06 -9.88727e-06)
(4.89908e-06 -2.44885e-08 2.89701e-06 4.97723e-06 1.26373e-06 -9.87631e-06)
(4.85051e-06 6.20121e-08 2.04144e-06 4.96771e-06 1.25634e-06 -9.81822e-06)
(4.90563e-06 2.49008e-08 1.21905e-06 4.9131e-06 1.23914e-06 -9.81873e-06)
(4.90053e-06 1.39035e-09 3.92302e-07 4.90023e-06 1.23091e-06 -9.80076e-06)
(4.90216e-06 -1.69958e-08 -4.36027e-07 4.89974e-06 1.23465e-06 -9.8019e-06)
(4.90545e-06 -4.09066e-08 -1.26636e-06 4.91222e-06 1.25151e-06 -9.81767e-06)
(4.84809e-06 -8.00108e-08 -2.09153e-06 4.96588e-06 1.28221e-06 -9.81398e-06)
(4.89007e-06 -1.91929e-08 -2.93623e-06 4.9727e-06 1.31236e-06 -9.86277e-06)
(4.93052e-06 -2.53222e-07 -3.81524e-06 4.92891e-06 1.34222e-06 -9.85943e-06)
(5.04127e-06 5.88205e-08 3.75363e-06 4.8038e-06 4.05309e-07 -9.84508e-06)
(4.89849e-06 -2.05813e-08 2.88849e-06 4.95522e-06 4.00253e-07 -9.85371e-06)
(4.86492e-06 1.21995e-08 2.03582e-06 4.94247e-06 4.04985e-07 -9.8074e-06)
(4.89453e-06 -1.35215e-09 1.21278e-06 4.90806e-06 4.04757e-07 -9.8026e-06)
(4.89667e-06 -6.91489e-09 3.92275e-07 4.90127e-06 4.05678e-07 -9.79794e-06)
(4.896e-06 -9.09635e-09 -4.28517e-07 4.90142e-06 4.08924e-07 -9.79743e-06)
(4.89326e-06 -1.56796e-08 -1.24971e-06 4.90823e-06 4.15561e-07 -9.8015e-06)
(4.86243e-06 -2.91493e-08 -2.07187e-06 4.94399e-06 4.26328e-07 -9.80642e-06)
(4.88012e-06 -4.12991e-10 -2.91353e-06 4.96576e-06 4.35588e-07 -9.84589e-06)
(5.00362e-06 -6.94349e-08 -3.75422e-06 4.8385e-06 4.48805e-07 -9.84212e-06)
(5.02647e-06 -7.14394e-08 3.75386e-06 4.81916e-06 -4.81639e-07 -9.84563e-06)
(4.89385e-06 -9.80834e-09 2.8969e-06 4.95478e-06 -4.63678e-07 -9.84864e-06)
(4.86941e-06 -3.71967e-08 2.04516e-06 4.93802e-06 -4.464e-07 -9.80743e-06)
(4.89621e-06 -1.99869e-08 1.21911e-06 4.90498e-06 -4.29464e-07 -9.80119e-06)
(4.89784e-06 -1.06447e-08 3.96447e-07 4.89974e-06 -4.20009e-07 -9.79758e-06)
(4.89808e-06 -3.80021e-09 -4.26108e-07 4.89978e-06 -4.17045e-07 -9.79786e-06)
(4.89429e-06 6.33593e-09 -1.24844e-06 4.90741e-06 -4.20346e-07 -9.8017e-06)
(4.86317e-06 2.22534e-08 -2.07124e-06 4.9433e-06 -4.29378e-07 -9.80646e-06)
(4.8808e-06 -4.97834e-09 -2.91322e-06 4.96514e-06 -4.37754e-07 -9.84595e-06)
(5.0035e-06 6.4328e-08 -3.75405e-06 4.83834e-06 -4.50498e-07 -9.84185e-06)
(4.94987e-06 -2.57124e-07 3.81651e-06 4.91298e-06 -1.3674e-06 -9.86285e-06)
(4.9056e-06 -2.43412e-08 2.92358e-06 4.96115e-06 -1.33427e-06 -9.86675e-06)
(4.85455e-06 -8.49922e-08 2.06984e-06 4.95945e-06 -1.29932e-06 -9.814e-06)
(4.90988e-06 -4.45026e-08 1.23947e-06 4.90864e-06 -1.26449e-06 -9.81852e-06)
(4.90707e-06 -1.74232e-08 4.04787e-07 4.89577e-06 -1.24565e-06 -9.80284e-06)
(4.90617e-06 5.30708e-09 -4.28897e-07 4.89728e-06 -1.24317e-06 -9.80346e-06)
(4.90899e-06 3.2059e-08 -1.26259e-06 4.90978e-06 -1.25675e-06 -9.81877e-06)
(4.85055e-06 7.31272e-08 -2.08961e-06 4.9641e-06 -1.28563e-06 -9.81465e-06)
(4.89156e-06 1.40249e-08 -2.93526e-06 4.97138e-06 -1.3148e-06 -9.86294e-06)
(4.92999e-06 2.48436e-07 -3.8147e-06 4.92872e-06 -1.34408e-06 -9.85871e-06)
(4.88025e-06 2.62007e-08 3.89419e-06 5.09255e-06 -2.26933e-06 -9.97281e-06)
(5.03537e-06 -6.92144e-08 2.96246e-06 4.79764e-06 -2.20066e-06 -9.83301e-06)
(4.89615e-06 -1.40861e-07 2.11575e-06 4.89082e-06 -2.13905e-06 -9.78697e-06)
(4.96469e-06 -8.21041e-08 1.27318e-06 4.85186e-06 -2.09417e-06 -9.81654e-06)
(4.94236e-06 -3.15868e-08 4.17561e-07 4.86516e-06 -2.07181e-06 -9.80752e-06)
(4.94238e-06 2.0986e-08 -4.36831e-07 4.86539e-06 -2.06961e-06 -9.80777e-06)
(4.96371e-06 7.19058e-08 -1.29137e-06 4.85324e-06 -2.08717e-06 -9.81695e-06)
(4.89265e-06 1.30879e-07 -2.13078e-06 4.89407e-06 -2.12754e-06 -9.78672e-06)
(5.02602e-06 6.00426e-08 -2.97077e-06 4.80462e-06 -2.1847e-06 -9.83064e-06)
(4.86642e-06 -3.00019e-08 -3.8926e-06 5.10312e-06 -2.25096e-06 -9.96954e-06)
(3.70639e-06 -1.11847e-06 4.08662e-06 6.28537e-06 -3.19422e-06 -9.99176e-06)
(4.87856e-06 -5.03685e-07 3.04541e-06 4.86069e-06 -3.06421e-06 -9.73925e-06)
(4.81235e-06 -6.79609e-08 2.17891e-06 5.02961e-06 -2.98391e-06 -9.84195e-06)
(4.97249e-06 -2.18411e-08 1.3057e-06 4.89096e-06 -2.94202e-06 -9.86345e-06)
(4.96469e-06 -2.54713e-09 4.28957e-07 4.88159e-06 -2.91703e-06 -9.84628e-06)
(4.96454e-06 -7.19116e-09 -4.43545e-07 4.88218e-06 -2.91485e-06 -9.84672e-06)
(4.97126e-06 1.22017e-08 -1.31948e-06 4.89395e-06 -2.93565e-06 -9.8652e-06)
(4.8097e-06 5.90841e-08 -2.19045e-06 5.03394e-06 -2.97344e-06 -9.84363e-06)
(4.86851e-06 4.97253e-07 -3.05215e-06 4.8698e-06 -3.05073e-06 -9.73831e-06)
(3.69402e-06 1.12003e-06 -4.08546e-06 6.29513e-06 -3.17947e-06 -9.98914e-06)
(5.15069e-06 9.84973e-07 4.53213e-06 5.14474e-06 -4.5454e-06 -1.02954e-05)
(6.29993e-06 -1.12872e-06 3.17639e-06 3.69156e-06 -4.09942e-06 -9.99149e-06)
(5.1052e-06 2.56247e-08 2.24501e-06 4.86261e-06 -3.90297e-06 -9.96781e-06)
(4.9297e-06 -2.52457e-07 1.33753e-06 4.92758e-06 -3.82258e-06 -9.85728e-06)
(4.83933e-06 -6.8815e-08 4.44249e-07 5.00149e-06 -3.75974e-06 -9.84081e-06)
(4.83862e-06 6.49568e-08 -4.54426e-07 5.00351e-06 -3.75786e-06 -9.84213e-06)
(4.9284e-06 2.482e-07 -1.3472e-06 4.93139e-06 -3.81683e-06 -9.85979e-06)
(5.10269e-06 -3.108e-08 -2.25345e-06 4.86957e-06 -3.89366e-06 -9.97227e-06)
(6.29692e-06 1.11986e-06 -3.18227e-06 3.69807e-06 -4.08719e-06 -9.995e-06)
(5.14582e-06 -9.85977e-07 -4.53277e-06 5.14823e-06 -4.53236e-06 -1.0294e-05)
(3.60354e-06 1.92768e-07 4.27109e-06 3.54431e-06 4.31569e-06 -7.14785e-06)
(3.81342e-06 2.31443e-07 2.74848e-06 2.71915e-06 3.79292e-06 -6.53257e-06)
(3.12245e-06 -3.33223e-07 1.97216e-06 3.57715e-06 3.705e-06 -6.6996e-06)
(3.20455e-06 6.74008e-08 1.18557e-06 3.4856e-06 3.64587e-06 -6.69015e-06)
(3.10255e-06 -3.15539e-08 3.88669e-07 3.58579e-06 3.59453e-06 -6.68835e-06)
(3.114e-06 3.29982e-08 -4.24546e-07 3.57879e-06 3.59248e-06 -6.69279e-06)
(3.1683e-06 -6.75177e-08 -1.23581e-06 3.50314e-06 3.63782e-06 -6.67144e-06)
(3.24398e-06 3.22353e-07 -2.07252e-06 3.52242e-06 3.69073e-06 -6.76641e-06)
(3.72508e-06 -2.25667e-07 -2.95183e-06 2.87574e-06 3.76985e-06 -6.60082e-06)
(3.45606e-06 -1.83643e-07 -4.22003e-06 3.45371e-06 4.21761e-06 -6.90977e-06)
(2.76273e-06 2.17099e-07 3.75014e-06 3.8195e-06 2.77812e-06 -6.58223e-06)
(3.16447e-06 -1.10793e-07 2.73756e-06 3.20439e-06 2.77744e-06 -6.36887e-06)
(3.25122e-06 -8.28511e-08 1.9719e-06 3.44518e-06 2.78237e-06 -6.6964e-06)
(3.35542e-06 -6.0034e-08 1.18034e-06 3.39843e-06 2.78206e-06 -6.75385e-06)
(3.3238e-06 -3.1157e-08 3.8131e-07 3.45361e-06 2.77232e-06 -6.77741e-06)
(3.32223e-06 2.54124e-08 -4.21935e-07 3.45424e-06 2.77185e-06 -6.77647e-06)
(3.34205e-06 3.93574e-08 -1.23441e-06 3.40093e-06 2.78408e-06 -6.74298e-06)
(3.2403e-06 1.14506e-07 -2.0561e-06 3.45143e-06 2.79882e-06 -6.69173e-06)
(3.19832e-06 -9.33797e-08 -2.83979e-06 3.20368e-06 2.83561e-06 -6.40201e-06)
(2.86858e-06 -2.30394e-07 -3.76983e-06 3.72591e-06 2.94568e-06 -6.59449e-06)
(3.59778e-06 -3.53113e-07 3.68729e-06 3.11194e-06 1.97411e-06 -6.70973e-06)
(3.44827e-06 -9.26438e-08 2.75434e-06 3.26327e-06 1.99419e-06 -6.71154e-06)
(3.378e-06 -8.64569e-09 1.9575e-06 3.38481e-06 1.98171e-06 -6.76281e-06)
(3.41996e-06 6.63878e-10 1.16973e-06 3.39567e-06 1.96808e-06 -6.81563e-06)
(3.37494e-06 9.51574e-10 3.76919e-07 3.44233e-06 1.96009e-06 -6.81727e-06)
(3.37383e-06 -6.64201e-09 -4.13919e-07 3.44273e-06 1.96179e-06 -6.81656e-06)
(3.416e-06 -3.27487e-09 -1.21307e-06 3.39562e-06 1.97683e-06 -6.81162e-06)
(3.38344e-06 2.06134e-08 -2.01125e-06 3.38509e-06 2.00482e-06 -6.76853e-06)
(3.44087e-06 1.14146e-07 -2.79847e-06 3.239e-06 2.04626e-06 -6.67986e-06)
(3.51599e-06 3.21381e-07 -3.69183e-06 3.24646e-06 2.06536e-06 -6.76245e-06)
(3.48776e-06 7.55631e-08 3.63709e-06 3.19786e-06 1.17861e-06 -6.68562e-06)
(3.3931e-06 -6.02191e-08 2.76122e-06 3.35782e-06 1.18659e-06 -6.75091e-06)
(3.39548e-06 2.87801e-09 1.94768e-06 3.42084e-06 1.18342e-06 -6.81632e-06)
(3.43217e-06 -2.08482e-08 1.15894e-06 3.43141e-06 1.17426e-06 -6.86359e-06)
(3.40982e-06 -8.74319e-09 3.74398e-07 3.45449e-06 1.17035e-06 -6.86431e-06)
(3.41097e-06 1.15501e-09 -4.058e-07 3.45414e-06 1.17301e-06 -6.86511e-06)
(3.43012e-06 1.40867e-08 -1.1929e-06 3.42996e-06 1.18348e-06 -6.86008e-06)
(3.3929e-06 -2.15215e-09 -1.98277e-06 3.41572e-06 1.20309e-06 -6.80862e-06)
(3.39554e-06 3.96683e-08 -2.78745e-06 3.34349e-06 1.22414e-06 -6.73904e-06)
(3.49589e-06 -7.07672e-08 -3.63915e-06 3.1721e-06 1.22641e-06 -6.66799e-06)
(3.58573e-06 -3.01632e-08 3.59332e-06 3.10142e-06 3.80373e-07 -6.68715e-06)
(3.45297e-06 -2.93036e-08 2.75881e-06 3.32462e-06 3.8052e-07 -6.77759e-06)
(3.43996e-06 3.3622e-09 1.94369e-06 3.37508e-06 3.82623e-07 -6.81504e-06)
(3.45532e-06 -8.46154e-09 1.15669e-06 3.40946e-06 3.83474e-07 -6.86478e-06)
(3.44144e-06 -5.08977e-09 3.7585e-07 3.43895e-06 3.85706e-07 -6.8804e-06)
(3.441e-06 -1.81945e-09 -4.01353e-07 3.43881e-06 3.88141e-07 -6.87982e-06)
(3.45472e-06 1.57445e-09 -1.18246e-06 3.40838e-06 3.91881e-07 -6.8631e-06)
(3.44119e-06 -5.40912e-09 -1.96846e-06 3.37296e-06 3.98916e-07 -6.81414e-06)
(3.44812e-06 2.77117e-08 -2.77513e-06 3.32192e-06 4.06452e-07 -6.77004e-06)
(3.5706e-06 3.15765e-08 -3.59244e-06 3.11532e-06 4.11102e-07 -6.68592e-06)
(3.57734e-06 3.60563e-08 3.5925e-06 3.1137e-06 -4.32671e-07 -6.69103e-06)
(3.44948e-06 2.75145e-08 2.76385e-06 3.32299e-06 -4.25808e-07 -6.77248e-06)
(3.44214e-06 -4.77297e-09 1.95008e-06 3.37252e-06 -4.12921e-07 -6.81466e-06)
(3.45483e-06 2.69249e-09 1.16138e-06 3.40775e-06 -4.01423e-07 -6.86258e-06)
(3.44104e-06 -1.29812e-09 3.79062e-07 3.43826e-06 -3.9544e-07 -6.8793e-06)
(3.44186e-06 -4.26143e-09 -3.99581e-07 3.43757e-06 -3.9322e-07 -6.87943e-06)
(3.4549e-06 -7.32374e-09 -1.18155e-06 3.40765e-06 -3.94698e-07 -6.86255e-06)
(3.44149e-06 5.53854e-10 -1.96813e-06 3.37223e-06 -4.00654e-07 -6.81372e-06)
(3.4487e-06 -3.17971e-08 -2.77496e-06 3.32118e-06 -4.0771e-07 -6.76989e-06)
(3.57065e-06 -3.5693e-08 -3.59229e-06 3.11491e-06 -4.12077e-07 -6.68556e-06)
(3.5053e-06 -6.96984e-08 3.63989e-06 3.16598e-06 -1.24284e-06 -6.67127e-06)
(3.39957e-06 4.11261e-08 2.7786e-06 3.34107e-06 -1.2388e-06 -6.74064e-06)
(3.39307e-06 -7.25751e-10 1.96786e-06 3.41398e-06 -1.2145e-06 -6.80705e-06)
(3.43039e-06 1.53458e-08 1.17456e-06 3.4287e-06 -1.19199e-06 -6.85909e-06)
(3.41162e-06 2.93475e-09 3.84149e-07 3.45175e-06 -1.17991e-06 -6.86337e-06)
(3.41136e-06 -6.92497e-09 -4.00664e-07 3.45244e-06 -1.17816e-06 -6.86379e-06)
(3.43167e-06 -1.9507e-08 -1.1905e-06 3.42751e-06 -1.18658e-06 -6.85918e-06)
(3.39449e-06 -2.43068e-09 -1.98158e-06 3.41365e-06 -1.20508e-06 -6.80814e-06)
(3.39641e-06 -4.34391e-08 -2.78691e-06 3.342e-06 -1.22559e-06 -6.73841e-06)
(3.49569e-06 6.66691e-08 -3.63873e-06 3.17142e-06 -1.22758e-06 -6.66711e-06)
(3.52302e-06 3.22425e-07 3.69175e-06 3.24278e-06 -2.07843e-06 -6.7658e-06)
(3.44252e-06 1.14919e-07 2.79122e-06 3.2375e-06 -2.05855e-06 -6.68002e-06)
(3.38373e-06 2.24047e-08 1.99859e-06 3.38351e-06 -2.0149e-06 -6.76724e-06)
(3.41616e-06 2.63232e-10 1.19647e-06 3.39331e-06 -1.9851e-06 -6.80947e-06)
(3.37468e-06 -4.22465e-09 3.92625e-07 3.43959e-06 -1.96869e-06 -6.81426e-06)
(3.37537e-06 1.63702e-09 -4.05846e-07 3.4392e-06 -1.96727e-06 -6.81457e-06)
(3.41736e-06 -2.46489e-09 -1.20901e-06 3.39266e-06 -1.98039e-06 -6.81002e-06)
(3.38512e-06 -2.45744e-08 -2.00928e-06 3.38266e-06 -2.0073e-06 -6.76778e-06)
(3.44236e-06 -1.17388e-07 -2.79754e-06 3.23703e-06 -2.04807e-06 -6.67939e-06)
(3.51491e-06 -3.23825e-07 -3.69128e-06 3.24639e-06 -2.06674e-06 -6.7613e-06)
(2.87805e-06 -2.24964e-07 3.76864e-06 3.72122e-06 -2.95642e-06 -6.59927e-06)
(3.20327e-06 -9.23476e-08 2.83269e-06 3.19756e-06 -2.84624e-06 -6.40084e-06)
(3.24288e-06 1.15587e-07 2.04468e-06 3.44566e-06 -2.80829e-06 -6.68855e-06)