/*--------------------------------*- C++ -*----------------------------------*\
| =========                 |                                                 |
| \\      /  F ield         | OpenFOAM: The Open Source CFD Toolbox           |
|  \\    /   O peration     | Version:  2406                                  |
|   \\  /    A nd           | Website:  www.openfoam.com                      |
|    \\/     M anipulation  |                                                 |
\*---------------------------------------------------------------------------*/
FoamFile
{
    version     2.0;
    format      ascii;
    arch        "LSB;label=32;scalar=64";
    class       volScalarField;
    location    "500";
    object      turbulenceProperties:k;
}
// * * * * * * * * * * * * * * * * * * * * * * * * * * * * * * * * * * * * * //

dimensions      [0 2 -2 0 0 0 0];

internalField   nonuniform List<scalar> 
25000
(
4.56323e-05
3.91327e-05
3.19042e-05
3.19333e-05
3.18247e-05
3.18815e-05
3.22067e-05
3.27993e-05
3.58294e-05
3.75476e-05
3.93045e-05
3.44393e-05
3.14576e-05
3.00242e-05
2.93697e-05
2.94387e-05
3.0234e-05
3.18324e-05
3.47982e-05
3.58537e-05
3.21073e-05
3.15812e-05
2.93498e-05
2.79986e-05
2.73776e-05
2.74221e-05
2.81293e-05
2.95335e-05
3.18285e-05
3.28326e-05
3.20562e-05
3.00969e-05
2.8028e-05
2.66797e-05
2.60346e-05
2.60678e-05
2.67669e-05
2.81466e-05
3.02658e-05
3.2258e-05
3.18969e-05
2.94322e-05
2.73998e-05
2.6041e-05
2.53819e-05
2.54014e-05
2.60948e-05
2.74731e-05
2.95081e-05
3.1961e-05
3.19156e-05
2.94743e-05
2.74428e-05
2.60722e-05
2.5402e-05
2.54138e-05
2.61017e-05
2.74766e-05
2.95099e-05
3.19613e-05
3.22241e-05
3.02674e-05
2.81443e-05
2.67747e-05
2.60982e-05
2.61046e-05
2.67873e-05
2.81577e-05
3.02713e-05
3.2259e-05
3.27987e-05
3.18472e-05
2.95534e-05
2.81586e-05
2.74791e-05
2.7481e-05
2.81612e-05
2.95507e-05
3.18375e-05
3.2834e-05
3.58136e-05
3.48228e-05
3.18596e-05
3.02754e-05
2.9514e-05
2.95139e-05
3.02746e-05
3.18529e-05
3.48093e-05
3.58538e-05
3.75779e-05
3.58826e-05
3.28452e-05
3.22652e-05
3.19632e-05
3.1962e-05
3.22573e-05
3.28305e-05
3.58542e-05
3.75611e-05
5.59752e-05
5.04922e-05
4.59979e-05
4.60856e-05
4.56697e-05
4.56656e-05
4.60568e-05
4.68006e-05
5.01231e-05
5.16558e-05
5.06722e-05
4.67501e-05
4.54071e-05
4.47034e-05
4.41901e-05
4.42099e-05
4.47511e-05
4.56367e-05
4.75442e-05
5.01446e-05
4.61433e-05
4.55208e-05
4.37975e-05
4.31793e-05
4.28585e-05
4.28788e-05
4.32691e-05
4.3963e-05
4.55846e-05
4.68265e-05
4.61454e-05
4.47317e-05
4.31978e-05
4.24084e-05
4.20266e-05
4.20526e-05
4.24708e-05
4.3271e-05
4.47618e-05
4.60902e-05
4.57361e-05
4.42377e-05
4.28672e-05
4.20336e-05
4.16544e-05
4.16655e-05
4.20647e-05
4.29033e-05
4.4235e-05
4.57039e-05
4.57146e-05
4.42373e-05
4.28963e-05
4.20532e-05
4.16672e-05
4.16749e-05
4.20698e-05
4.29059e-05
4.4237e-05
4.57034e-05
4.60995e-05
4.47875e-05
4.32777e-05
4.24819e-05
4.20742e-05
4.20786e-05
4.24867e-05
4.32805e-05
4.47671e-05
4.60891e-05
4.68244e-05
4.56199e-05
4.39869e-05
4.3292e-05
4.29138e-05
4.29144e-05
4.32908e-05
4.39768e-05
4.55941e-05
4.68257e-05
5.01136e-05
4.75769e-05
4.56565e-05
4.47745e-05
4.4243e-05
4.42436e-05
4.47763e-05
4.5651e-05
4.75521e-05
5.01356e-05
5.17037e-05
5.0195e-05
4.6839e-05
4.6096e-05
4.57059e-05
4.57063e-05
4.60909e-05
4.68297e-05
5.01545e-05
5.16768e-05
4.9727e-05
4.41417e-05
4.20577e-05
4.14037e-05
4.08301e-05
4.08505e-05
4.13605e-05
4.24919e-05
4.44672e-05
4.75533e-05
4.4267e-05
4.10609e-05
4.0658e-05
4.01093e-05
3.96849e-05
3.97013e-05
4.0137e-05
4.08158e-05
4.15603e-05
4.44461e-05
4.21074e-05
4.07345e-05
3.94989e-05
3.89611e-05
3.85992e-05
3.86118e-05
3.90188e-05
3.96358e-05
4.07395e-05
4.24839e-05
4.13979e-05
4.00912e-05
3.89606e-05
3.83226e-05
3.79351e-05
3.79526e-05
3.83565e-05
3.90106e-05
4.01293e-05
4.13582e-05
4.08503e-05
3.96848e-05
3.85834e-05
3.79345e-05
3.7607e-05
3.76136e-05
3.79541e-05
3.86212e-05
3.97014e-05
4.08488e-05
4.08675e-05
3.96931e-05
3.86016e-05
3.7937e-05
3.76097e-05
3.76163e-05
3.7955e-05
3.86212e-05
3.97016e-05
4.08479e-05
4.13874e-05
4.01381e-05
3.89994e-05
3.83507e-05
3.79561e-05
3.79616e-05
3.83609e-05
3.90127e-05
4.01299e-05
4.13556e-05
4.25128e-05
4.07555e-05
3.96374e-05
3.90196e-05
3.86233e-05
3.86258e-05
3.90249e-05
3.96395e-05
4.07425e-05
4.24819e-05
4.44633e-05
4.1575e-05
4.08168e-05
4.01376e-05
3.97063e-05
3.97077e-05
4.01429e-05
4.08192e-05
4.15614e-05
4.44404e-05
4.75841e-05
4.44845e-05
4.2491e-05
4.13616e-05
4.08534e-05
4.08563e-05
4.13647e-05
4.24971e-05
4.4475e-05
4.75582e-05
3.71308e-05
3.17308e-05
3.10615e-05
3.0182e-05
2.97128e-05
2.97298e-05
3.01466e-05
3.13493e-05
3.21857e-05
3.61043e-05
3.18278e-05
2.94089e-05
2.93606e-05
2.87931e-05
2.84688e-05
2.84757e-05
2.88062e-05
2.95094e-05
2.97798e-05
3.21488e-05
3.1064e-05
2.94091e-05
2.84229e-05
2.77894e-05
2.73854e-05
2.73957e-05
2.78259e-05
2.85438e-05
2.9436e-05
3.13275e-05
3.01439e-05
2.87526e-05
2.77783e-05
2.71337e-05
2.67274e-05
2.67428e-05
2.7157e-05
2.78124e-05
2.87887e-05
3.0131e-05
2.97046e-05
2.84443e-05
2.73572e-05
2.67218e-05
2.63762e-05
2.6382e-05
2.67378e-05
2.73916e-05
2.84557e-05
2.97037e-05
2.97267e-05
2.84488e-05
2.73728e-05
2.67213e-05
2.63759e-05
2.63815e-05
2.67359e-05
2.73902e-05
2.84553e-05
2.97026e-05
3.01565e-05
2.87901e-05
2.77966e-05
2.71455e-05
2.67364e-05
2.6741e-05
2.71544e-05
2.78107e-05
2.87869e-05
3.01281e-05
3.13544e-05
2.94403e-05
2.85364e-05
2.78162e-05
2.73911e-05
2.73938e-05
2.78218e-05
2.8542e-05
2.94356e-05
3.13249e-05
3.21758e-05
2.97835e-05
2.95014e-05
2.87948e-05
2.8459e-05
2.84604e-05
2.88009e-05
2.9507e-05
2.9778e-05
3.21463e-05
3.61212e-05
3.21721e-05
3.13301e-05
3.01312e-05
2.97069e-05
2.97108e-05
3.01384e-05
3.13441e-05
3.21825e-05
3.61015e-05
2.80578e-05
2.35883e-05
2.32774e-05
2.23854e-05
2.19706e-05
2.19678e-05
2.232e-05
2.34584e-05
2.40178e-05
2.75665e-05
2.36363e-05
2.16971e-05
2.14956e-05
2.07937e-05
2.0488e-05
2.04839e-05
2.07828e-05
2.16256e-05
2.20247e-05
2.39782e-05
2.32251e-05
2.15068e-05
2.05179e-05
1.96969e-05
1.92566e-05
1.92679e-05
1.97288e-05
2.06334e-05
2.15584e-05
2.34293e-05
2.23119e-05
2.07256e-05
1.96715e-05
1.88938e-05
1.84566e-05
1.84736e-05
1.89241e-05
1.97143e-05
2.07623e-05
2.23005e-05
2.19374e-05
2.0442e-05
1.92146e-05
1.84442e-05
1.80275e-05
1.80347e-05
1.84651e-05
1.92572e-05
2.04566e-05
2.19328e-05
2.1949e-05
2.04452e-05
1.92362e-05
1.84474e-05
1.80269e-05
1.80333e-05
1.84618e-05
1.92552e-05
2.04566e-05
2.19319e-05
2.23153e-05
2.07584e-05
1.96963e-05
1.89102e-05
1.84615e-05
1.84656e-05
1.89192e-05
1.9712e-05
2.07605e-05
2.22985e-05
2.34474e-05
2.15587e-05
2.06243e-05
1.97171e-05
1.92568e-05
1.92593e-05
1.97215e-05
2.06302e-05
2.1558e-05
2.3428e-05
2.3999e-05
2.20254e-05
2.16171e-05
2.07717e-05
2.04627e-05
2.04628e-05
2.07751e-05
2.16205e-05
2.20221e-05
2.3977e-05
2.75672e-05
2.3995e-05
2.34357e-05
2.23049e-05
2.19397e-05
2.19427e-05
2.23101e-05
2.34486e-05
2.40105e-05
2.75604e-05
2.29344e-05
1.96094e-05
1.93185e-05
1.8528e-05
1.81402e-05
1.81289e-05
1.84325e-05
1.93854e-05
1.99223e-05
2.2652e-05
1.96313e-05
1.82155e-05
1.782e-05
1.70688e-05
1.67679e-05
1.67631e-05
1.7049e-05
1.79047e-05
1.84725e-05
1.98879e-05
1.92426e-05
1.78146e-05
1.68658e-05
1.60067e-05
1.55993e-05
1.56111e-05
1.60401e-05
1.69685e-05
1.78455e-05
1.93636e-05
1.84563e-05
1.69997e-05
1.59781e-05
1.51759e-05
1.47697e-05
1.47849e-05
1.52092e-05
1.60314e-05
1.70396e-05
1.8429e-05
1.81144e-05
1.67264e-05
1.55584e-05
1.47569e-05
1.43367e-05
1.43429e-05
1.47771e-05
1.56069e-05
1.67533e-05
1.81175e-05
1.81157e-05
1.67323e-05
1.55843e-05
1.47614e-05
1.43362e-05
1.43423e-05
1.47742e-05
1.5605e-05
1.6754e-05
1.8117e-05
1.84288e-05
1.70284e-05
1.60128e-05
1.51982e-05
1.47738e-05
1.47772e-05
1.52066e-05
1.60307e-05
1.70386e-05
1.84286e-05
1.93718e-05
1.78418e-05
1.69615e-05
1.60349e-05
1.56053e-05
1.56075e-05
1.60373e-05
1.69683e-05
1.78474e-05
1.93651e-05
1.99006e-05
1.8471e-05
1.79014e-05
1.70487e-05
1.67572e-05
1.67558e-05
1.70496e-05
1.79037e-05
1.84729e-05
1.98899e-05
2.26435e-05
1.99012e-05
1.93724e-05
1.84332e-05
1.8122e-05
1.81238e-05
1.8435e-05
1.93812e-05
1.99195e-05
2.26475e-05
2.05784e-05
1.83223e-05
1.79762e-05
1.7226e-05
1.68476e-05
1.68432e-05
1.71264e-05
1.7947e-05
1.84833e-05
2.03258e-05
1.83281e-05
1.73461e-05
1.67844e-05
1.60495e-05
1.5761e-05
1.57639e-05
1.60425e-05
1.6841e-05
1.75007e-05
1.84456e-05
1.78978e-05
1.67804e-05
1.59232e-05
1.51437e-05
1.48065e-05
1.48168e-05
1.51799e-05
1.60199e-05
1.67853e-05
1.79298e-05
1.71714e-05
1.59933e-05
1.51202e-05
1.4413e-05
1.40818e-05
1.40915e-05
1.44389e-05
1.5176e-05
1.60415e-05
1.71345e-05
1.68385e-05
1.57338e-05
1.47748e-05
1.40737e-05
1.37253e-05
1.37276e-05
1.40841e-05
1.48188e-05
1.57701e-05
1.68555e-05
1.68366e-05
1.57445e-05
1.48006e-05
1.40755e-05
1.37244e-05
1.3728e-05
1.40818e-05
1.48169e-05
1.5771e-05
1.68551e-05
1.71204e-05
1.60265e-05
1.51608e-05
1.44344e-05
1.40848e-05
1.40855e-05
1.44382e-05
1.51758e-05
1.60403e-05
1.71342e-05
1.79261e-05
1.67786e-05
1.60173e-05
1.51835e-05
1.48182e-05
1.48187e-05
1.51811e-05
1.60205e-05
1.67876e-05
1.79319e-05
1.84488e-05
1.74976e-05
1.6844e-05
1.60518e-05
1.57724e-05
1.57697e-05
1.6049e-05
1.68435e-05
1.75032e-05
1.84495e-05
2.03046e-05
1.84582e-05
1.79395e-05
1.71366e-05
1.68564e-05
1.68579e-05
1.71383e-05
1.79485e-05
1.84838e-05
2.03241e-05
1.98483e-05
1.83593e-05
1.79123e-05
1.71971e-05
1.68439e-05
1.68593e-05
1.71346e-05
1.78432e-05
1.83851e-05
1.95561e-05
1.83489e-05
1.75939e-05
1.69409e-05
1.62714e-05
1.60025e-05
1.60179e-05
1.62965e-05
1.70151e-05
1.76795e-05
1.83401e-05
1.78448e-05
1.69486e-05
1.61863e-05
1.54994e-05
1.52143e-05
1.5223e-05
1.55405e-05
1.62908e-05
1.69561e-05
1.7823e-05
1.7169e-05
1.62359e-05
1.54858e-05
1.48617e-05
1.45773e-05
1.45812e-05
1.4876e-05
1.55379e-05
1.62952e-05
1.71408e-05
1.68544e-05
1.59939e-05
1.51964e-05
1.45758e-05
1.42836e-05
1.42817e-05
1.45743e-05
1.5228e-05
1.60297e-05
1.68797e-05
1.68606e-05
1.60117e-05
1.52186e-05
1.4573e-05
1.42817e-05
1.42827e-05
1.45722e-05
1.52257e-05
1.60299e-05
1.68786e-05
1.71295e-05
1.62875e-05
1.55296e-05
1.48772e-05
1.45783e-05
1.45767e-05
1.48757e-05
1.5536e-05
1.62915e-05
1.71382e-05
1.7821e-05
1.69549e-05
1.62939e-05
1.55498e-05
1.52287e-05
1.52274e-05
1.55416e-05
1.62885e-05
1.69548e-05
1.78225e-05
1.83464e-05
1.76839e-05
1.7025e-05
1.63097e-05
1.60328e-05
1.60286e-05
1.63013e-05
1.70148e-05
1.76788e-05
1.8343e-05
1.95348e-05
1.83623e-05
1.78405e-05
1.71455e-05
1.6882e-05
1.68827e-05
1.71449e-05
1.7843e-05
1.83826e-05
1.95555e-05
1.95547e-05
1.84985e-05
1.79949e-05
1.73615e-05
1.70632e-05
1.71032e-05
1.73653e-05
1.79578e-05
1.84639e-05
1.92288e-05
1.84854e-05
1.78515e-05
1.72196e-05
1.66495e-05
1.64104e-05
1.64376e-05
1.67125e-05
1.73458e-05
1.7938e-05
1.84204e-05
1.79549e-05
1.72475e-05
1.65861e-05
1.59827e-05
1.57259e-05
1.57314e-05
1.60235e-05
1.67009e-05
1.72837e-05
1.79392e-05
1.73604e-05
1.66348e-05
1.59772e-05
1.54097e-05
1.51412e-05
1.51396e-05
1.54098e-05
1.60196e-05
1.67068e-05
1.73656e-05
1.70847e-05
1.6412e-05
1.57156e-05
1.51432e-05
1.48811e-05
1.48763e-05
1.51326e-05
1.5736e-05
1.64463e-05
1.71193e-05
1.71055e-05
1.64335e-05
1.57291e-05
1.5133e-05
1.4877e-05
1.48771e-05
1.51303e-05
1.57331e-05
1.64458e-05
1.71169e-05
1.73596e-05
1.67014e-05
1.601e-05
1.54097e-05
1.51363e-05
1.51345e-05
1.54081e-05
1.60155e-05
1.67001e-05
1.73584e-05
1.79373e-05
1.72817e-05
1.67006e-05
1.60288e-05
1.57341e-05
1.57333e-05
1.60214e-05
1.66944e-05
1.72777e-05
1.79319e-05
1.84271e-05
1.79437e-05
1.73525e-05
1.67177e-05
1.64458e-05
1.64424e-05
1.67102e-05
1.73411e-05
1.79329e-05
1.84171e-05
1.92165e-05
1.84491e-05
1.79553e-05
1.73653e-05
1.71176e-05
1.71189e-05
1.73651e-05
1.79532e-05
1.84579e-05
1.9224e-05
1.91363e-05
1.83125e-05
1.78352e-05
1.73189e-05
1.70918e-05
1.71546e-05
1.73971e-05
1.78834e-05
1.83114e-05
1.88354e-05
1.83084e-05
1.77971e-05
1.72634e-05
1.67989e-05
1.65936e-05
1.6628e-05
1.68915e-05
1.74501e-05
1.79404e-05
1.82742e-05
1.78244e-05
1.73084e-05
1.67556e-05
1.62227e-05
1.59796e-05
1.59808e-05
1.62568e-05
1.68743e-05
1.73857e-05
1.78687e-05
1.73336e-05
1.67968e-05
1.62222e-05
1.56972e-05
1.54308e-05
1.54253e-05
1.56839e-05
1.62502e-05
1.68791e-05
1.73905e-05
1.71088e-05
1.65928e-05
1.59705e-05
1.54335e-05
1.51888e-05
1.51833e-05
1.54187e-05
1.59828e-05
1.66275e-05
1.71591e-05
1.71446e-05
1.66132e-05
1.59717e-05
1.54149e-05
1.5182e-05
1.51831e-05
1.54158e-05
1.59794e-05
1.6627e-05
1.71561e-05
1.73813e-05
1.68666e-05
1.62316e-05
1.56758e-05
1.54173e-05
1.54179e-05
1.56796e-05
1.62444e-05
1.68716e-05
1.73804e-05
1.78566e-05
1.73733e-05
1.68619e-05
1.62497e-05
1.5974e-05
1.59759e-05
1.62496e-05
1.68648e-05
1.73779e-05
1.78565e-05
1.82703e-05
1.79374e-05
1.74459e-05
1.68809e-05
1.66205e-05
1.66205e-05
1.68817e-05
1.74436e-05
1.79349e-05
1.8267e-05
1.88226e-05
1.82983e-05
1.78762e-05
1.73809e-05
1.71517e-05
1.7156e-05
1.73873e-05
1.78782e-05
1.83063e-05
1.88291e-05
1.85825e-05
1.78704e-05
1.74815e-05
1.70913e-05
1.69315e-05
1.70051e-05
1.72214e-05
1.76157e-05
1.79489e-05
1.83466e-05
1.7886e-05
1.75209e-05
1.71093e-05
1.67372e-05
1.65596e-05
1.65923e-05
1.6837e-05
1.73334e-05
1.77263e-05
1.79191e-05
1.74954e-05
1.71672e-05
1.67134e-05
1.62326e-05
1.59922e-05
1.59875e-05
1.62499e-05
1.68158e-05
1.72662e-05
1.76037e-05
1.71107e-05
1.6741e-05
1.62345e-05
1.57376e-05
1.54668e-05
1.54587e-05
1.57103e-05
1.62375e-05
1.68134e-05
1.72037e-05
1.69359e-05
1.65504e-05
1.59808e-05
1.54686e-05
1.52334e-05
1.52279e-05
1.54504e-05
1.59808e-05
1.65737e-05
1.69878e-05
1.69815e-05
1.6565e-05
1.59696e-05
1.54434e-05
1.52246e-05
1.52262e-05
1.54463e-05
1.59769e-05
1.65735e-05
1.69852e-05
1.71989e-05
1.68009e-05
1.62145e-05
1.56947e-05
1.54449e-05
1.54469e-05
1.57013e-05
1.62295e-05
1.68064e-05
1.71934e-05
1.75889e-05
1.72497e-05
1.67951e-05
1.62301e-05
1.59675e-05
1.59713e-05
1.62347e-05
1.68029e-05
1.72577e-05
1.75894e-05
1.7911e-05
1.77186e-05
1.73202e-05
1.68095e-05
1.65628e-05
1.65656e-05
1.68165e-05
1.7324e-05
1.77201e-05
1.79091e-05
1.83326e-05
1.7936e-05
1.7603e-05
1.71871e-05
1.69768e-05
1.69837e-05
1.71997e-05
1.76094e-05
1.79442e-05
1.83387e-05
1.80219e-05
1.73129e-05
1.70317e-05
1.67524e-05
1.66414e-05
1.67114e-05
1.68999e-05
1.72221e-05
1.7471e-05
1.78757e-05
1.7345e-05
1.71387e-05
1.68405e-05
1.65385e-05
1.63764e-05
1.64001e-05
1.6624e-05
1.70695e-05
1.73792e-05
1.74441e-05
1.7062e-05
1.69073e-05
1.65326e-05
1.6085e-05
1.58415e-05
1.58318e-05
1.6083e-05
1.66034e-05
1.69978e-05
1.72075e-05
1.67736e-05
1.65465e-05
1.60891e-05
1.56082e-05
1.53329e-05
1.5325e-05
1.55722e-05
1.6064e-05
1.65879e-05
1.68705e-05
1.66384e-05
1.63624e-05
1.58292e-05
1.53339e-05
1.51046e-05
1.51009e-05
1.53152e-05
1.58154e-05
1.63621e-05
1.66715e-05
1.66864e-05
1.63688e-05
1.58087e-05
1.53063e-05
1.50957e-05
1.50975e-05
1.53099e-05
1.58113e-05
1.63626e-05
1.66706e-05
1.68834e-05
1.65865e-05
1.60436e-05
1.5552e-05
1.53072e-05
1.53097e-05
1.55583e-05
1.60543e-05
1.65832e-05
1.68638e-05
1.72049e-05
1.69884e-05
1.65816e-05
1.60546e-05
1.58013e-05
1.58056e-05
1.60606e-05
1.65883e-05
1.69908e-05
1.71956e-05
1.74441e-05
1.7376e-05
1.70538e-05
1.65861e-05
1.63528e-05
1.63564e-05
1.65947e-05
1.70574e-05
1.73734e-05
1.74346e-05
1.78671e-05
1.7463e-05
1.72088e-05
1.68565e-05
1.66633e-05
1.66703e-05
1.68696e-05
1.72138e-05
1.74654e-05
1.78666e-05
1.76354e-05
1.67633e-05
1.65662e-05
1.63684e-05
1.62807e-05
1.6333e-05
1.64943e-05
1.67624e-05
1.69566e-05
1.75517e-05
1.67996e-05
1.67276e-05
1.65185e-05
1.62633e-05
1.61043e-05
1.61153e-05
1.63199e-05
1.67235e-05
1.69653e-05
1.69306e-05
1.65983e-05
1.65872e-05
1.62686e-05
1.58412e-05
1.55942e-05
1.55825e-05
1.58246e-05
1.63046e-05
1.6647e-05
1.67432e-05
1.63805e-05
1.62668e-05
1.58431e-05
1.53741e-05
1.51001e-05
1.50965e-05
1.53402e-05
1.58001e-05
1.62741e-05
1.64564e-05
1.62676e-05
1.60811e-05
1.55763e-05
1.50982e-05
1.4877e-05
1.48775e-05
1.50862e-05
1.55588e-05
1.60626e-05
1.62755e-05
1.63085e-05
1.60783e-05
1.55518e-05
1.5073e-05
1.48702e-05
1.48732e-05
1.50799e-05
1.55549e-05
1.60644e-05
1.62771e-05
1.64845e-05
1.62809e-05
1.57812e-05
1.53165e-05
1.5077e-05
1.50802e-05
1.53231e-05
1.57902e-05
1.62731e-05
1.64561e-05
1.67532e-05
1.66445e-05
1.62833e-05
1.57914e-05
1.55466e-05
1.55512e-05
1.57984e-05
1.62898e-05
1.66438e-05
1.67379e-05
1.69386e-05
1.69659e-05
1.67065e-05
1.62775e-05
1.60576e-05
1.60613e-05
1.62866e-05
1.67107e-05
1.69614e-05
1.6925e-05
1.75527e-05
1.69566e-05
1.67522e-05
1.64507e-05
1.62727e-05
1.62781e-05
1.64602e-05
1.67529e-05
1.69507e-05
1.75433e-05
1.75347e-05
1.62879e-05
1.6122e-05
1.5972e-05
1.5886e-05
1.59153e-05
1.60565e-05
1.62922e-05
1.64841e-05
1.74974e-05
1.63168e-05
1.63218e-05
1.61773e-05
1.59495e-05
1.57865e-05
1.57868e-05
1.59781e-05
1.63487e-05
1.65356e-05
1.64561e-05
1.6142e-05
1.62404e-05
1.59616e-05
1.55478e-05
1.53017e-05
1.52927e-05
1.55294e-05
1.59752e-05
1.62689e-05
1.62674e-05
1.59674e-05
1.59431e-05
1.55459e-05
1.50906e-05
1.48255e-05
1.48298e-05
1.50709e-05
1.5503e-05
1.59297e-05
1.6018e-05
1.58622e-05
1.5754e-05
1.5278e-05
1.48203e-05
1.46107e-05
1.4617e-05
1.48215e-05
1.52692e-05
1.57324e-05
1.58548e-05
1.5891e-05
1.57453e-05
1.5256e-05
1.48021e-05
1.46078e-05
1.46127e-05
1.48152e-05
1.52661e-05
1.57355e-05
1.58591e-05
1.60492e-05
1.59365e-05
1.54831e-05
1.5045e-05
1.48113e-05
1.48158e-05
1.50533e-05
1.54947e-05
1.5933e-05
1.60251e-05
1.62829e-05
1.62679e-05
1.59539e-05
1.54954e-05
1.5259e-05
1.5264e-05
1.55043e-05
1.59631e-05
1.62704e-05
1.62711e-05
1.64675e-05
1.65362e-05
1.63314e-05
1.59388e-05
1.57315e-05
1.5735e-05
1.59483e-05
1.63379e-05
1.65348e-05
1.64574e-05
1.75043e-05
1.64889e-05
1.62865e-05
1.60227e-05
1.58581e-05
1.58615e-05
1.60278e-05
1.62844e-05
1.64799e-05
1.74933e-05
1.77017e-05
1.59462e-05
1.57214e-05
1.55847e-05
1.54869e-05
1.54947e-05
1.56242e-05
1.58483e-05
1.61164e-05
1.76781e-05
1.59662e-05
1.59408e-05
1.58348e-05
1.56217e-05
1.54537e-05
1.54471e-05
1.56297e-05
1.59725e-05
1.61164e-05
1.60847e-05
1.57276e-05
1.58912e-05
1.564e-05
1.52382e-05
1.49975e-05
1.49935e-05
1.52261e-05
1.56422e-05
1.58909e-05
1.58182e-05
1.55646e-05
1.56066e-05
1.52329e-05
1.47946e-05
1.45427e-05
1.4555e-05
1.47923e-05
1.51996e-05
1.5583e-05
1.55887e-05
1.54566e-05
1.54163e-05
1.49702e-05
1.45355e-05
1.43382e-05
1.43491e-05
1.45487e-05
1.49735e-05
1.5399e-05
1.54404e-05
1.54727e-05
1.54057e-05
1.49552e-05
1.45262e-05
1.43397e-05
1.43453e-05
1.4543e-05
1.49715e-05
1.54029e-05
1.54464e-05
1.56183e-05
1.55887e-05
1.51814e-05
1.47684e-05
1.45404e-05
1.45449e-05
1.47763e-05
1.51938e-05
1.55892e-05
1.5601e-05
1.58371e-05
1.58917e-05
1.56241e-05
1.51967e-05
1.49674e-05
1.49719e-05
1.52049e-05
1.56333e-05
1.58952e-05
1.58285e-05
1.61e-05
1.61178e-05
1.59575e-05
1.55985e-05
1.54022e-05
1.54048e-05
1.56062e-05
1.59633e-05
1.61165e-05
1.60912e-05
1.76893e-05
1.61234e-05
1.58464e-05
1.56024e-05
1.54482e-05
1.54494e-05
1.56028e-05
1.58412e-05
1.61121e-05
1.76774e-05
1.76745e-05
1.57775e-05
1.53721e-05
1.5212e-05
1.50971e-05
1.50916e-05
1.52207e-05
1.54626e-05
1.59171e-05
1.76529e-05
1.57882e-05
1.5583e-05
1.54927e-05
1.52901e-05
1.51215e-05
1.51136e-05
1.5292e-05
1.56117e-05
1.5728e-05
1.58818e-05
1.53657e-05
1.55426e-05
1.5316e-05
1.49298e-05
1.46996e-05
1.47023e-05
1.49317e-05
1.53226e-05
1.55301e-05
1.5428e-05
1.51818e-05
1.52702e-05
1.49232e-05
1.45063e-05
1.42701e-05
1.42888e-05
1.45216e-05
1.49076e-05
1.52511e-05
1.51913e-05
1.50665e-05
1.50847e-05
1.46726e-05
1.42625e-05
1.40767e-05
1.40904e-05
1.42848e-05
1.46891e-05
1.50789e-05
1.50514e-05
1.5074e-05
1.50765e-05
1.46664e-05
1.42615e-05
1.40815e-05
1.40871e-05
1.42801e-05
1.46881e-05
1.50827e-05
1.50576e-05
1.52148e-05
1.52526e-05
1.48907e-05
1.45009e-05
1.42785e-05
1.42828e-05
1.45083e-05
1.49038e-05
1.52575e-05
1.52049e-05
1.5447e-05
1.55296e-05
1.53066e-05
1.49079e-05
1.46854e-05
1.46894e-05
1.49155e-05
1.5316e-05
1.55341e-05
1.54405e-05
1.58985e-05
1.57282e-05
1.55983e-05
1.52696e-05
1.50833e-05
1.50848e-05
1.5275e-05
1.56025e-05
1.5726e-05
1.58897e-05
1.76673e-05
1.59243e-05
1.54627e-05
1.52104e-05
1.50607e-05
1.50596e-05
1.52058e-05
1.54535e-05
1.59105e-05
1.76539e-05
1.60205e-05
1.58095e-05
1.50961e-05
1.487e-05
1.47347e-05
1.47235e-05
1.48641e-05
1.51622e-05
1.59206e-05
1.59939e-05
1.58151e-05
1.52584e-05
1.51565e-05
1.49642e-05
1.48005e-05
1.47943e-05
1.49689e-05
1.52686e-05
1.53826e-05
1.58838e-05
1.50813e-05
1.52019e-05
1.5e-05
1.46342e-05
1.44168e-05
1.44245e-05
1.46491e-05
1.50169e-05
1.51887e-05
1.51259e-05
1.48346e-05
1.49434e-05
1.46279e-05
1.42358e-05
1.40139e-05
1.40353e-05
1.42613e-05
1.46276e-05
1.4935e-05
1.48413e-05
1.47062e-05
1.47678e-05
1.43928e-05
1.40073e-05
1.38305e-05
1.38437e-05
1.40317e-05
1.44169e-05
1.47734e-05
1.46985e-05
1.47099e-05
1.47636e-05
1.43937e-05
1.40115e-05
1.38365e-05
1.38407e-05
1.40281e-05
1.44169e-05
1.47767e-05
1.47033e-05
1.48574e-05
1.49327e-05
1.46135e-05
1.42456e-05
1.40287e-05
1.40323e-05
1.42515e-05
1.46262e-05
1.49404e-05
1.48524e-05
1.51431e-05
1.51872e-05
1.50042e-05
1.46318e-05
1.44161e-05
1.44195e-05
1.46384e-05
1.50127e-05
1.51913e-05
1.51361e-05
1.59007e-05
1.53825e-05
1.52578e-05
1.49552e-05
1.4778e-05
1.47785e-05
1.49581e-05
1.52598e-05
1.53781e-05
1.58891e-05
1.60121e-05
1.59283e-05
1.51634e-05
1.48615e-05
1.47062e-05
1.47034e-05
1.48528e-05
1.51504e-05
1.59116e-05
1.5994e-05
1.15468e-05
1.59532e-05
1.49131e-05
1.45708e-05
1.44095e-05
1.44007e-05
1.45686e-05
1.49753e-05
1.60525e-05
1.15598e-05
1.59571e-05
1.49767e-05
1.48277e-05
1.46463e-05
1.44929e-05
1.44913e-05
1.46625e-05
1.49478e-05
1.50989e-05
1.6016e-05
1.4896e-05
1.48716e-05
1.46949e-05
1.4354e-05
1.41507e-05
1.41618e-05
1.43804e-05
1.47271e-05
1.48706e-05
1.494e-05
1.45383e-05
1.46298e-05
1.43501e-05
1.39844e-05
1.37747e-05
1.37957e-05
1.40139e-05
1.43619e-05
1.4636e-05
1.45537e-05
1.43883e-05
1.4468e-05
1.41321e-05
1.37701e-05
1.35994e-05
1.36103e-05
1.37917e-05
1.41593e-05
1.44838e-05
1.4392e-05
1.43927e-05
1.44681e-05
1.41373e-05
1.37757e-05
1.36046e-05
1.36073e-05
1.37894e-05
1.41601e-05
1.44864e-05
1.43951e-05
1.45623e-05
1.46293e-05
1.43495e-05
1.40018e-05
1.37907e-05
1.37941e-05
1.40076e-05
1.43628e-05
1.46404e-05
1.45616e-05
1.49541e-05
1.48668e-05
1.47159e-05
1.43676e-05
1.41591e-05
1.41627e-05
1.4375e-05
1.47257e-05
1.48728e-05
1.49477e-05
1.60321e-05
1.50986e-05
1.49394e-05
1.46557e-05
1.44869e-05
1.44871e-05
1.46579e-05
1.49412e-05
1.50946e-05
1.602e-05
1.15883e-05
1.60624e-05
1.49792e-05
1.45735e-05
1.43975e-05
1.43937e-05
1.45623e-05
1.49644e-05
1.60448e-05
1.15621e-05
2.5123e-05
1.58587e-05
1.48502e-05
1.43471e-05
1.41463e-05
1.4142e-05
1.43543e-05
1.49168e-05
1.59534e-05
2.51947e-05
1.58622e-05
1.47647e-05
1.45218e-05
1.43463e-05
1.42043e-05
1.42062e-05
1.43724e-05
1.46514e-05
1.48919e-05
1.59188e-05
1.48333e-05
1.45657e-05
1.44068e-05
1.40921e-05
1.39016e-05
1.3913e-05
1.41229e-05
1.44487e-05
1.45767e-05
1.48833e-05
1.43181e-05
1.43345e-05
1.40907e-05
1.37504e-05
1.35495e-05
1.3567e-05
1.37758e-05
1.41055e-05
1.43498e-05
1.43435e-05
1.41301e-05
1.4186e-05
1.38879e-05
1.35469e-05
1.33796e-05
1.33862e-05
1.35604e-05
1.39107e-05
1.42047e-05
1.41417e-05
1.41367e-05
1.41885e-05
1.38937e-05
1.35505e-05
1.33819e-05
1.33824e-05
1.35588e-05
1.39117e-05
1.42065e-05
1.41433e-05
1.43476e-05
1.43416e-05
1.40957e-05
1.37668e-05
1.35612e-05
1.35639e-05
1.3771e-05
1.41071e-05
1.43527e-05
1.43483e-05
1.48946e-05
1.45723e-05
1.44394e-05
1.41126e-05
1.3911e-05
1.39142e-05
1.41191e-05
1.44482e-05
1.45781e-05
1.48885e-05
1.59339e-05
1.48925e-05
1.46457e-05
1.4369e-05
1.42065e-05
1.42063e-05
1.43695e-05
1.46457e-05
1.48877e-05
1.59214e-05
2.52089e-05
1.5966e-05
1.49229e-05
1.43616e-05
1.41447e-05
1.414e-05
1.43486e-05
1.49064e-05
1.59469e-05
2.51905e-05
7.90163e-05
1.46627e-05
1.48697e-05
1.42149e-05
1.39582e-05
1.39584e-05
1.42318e-05
1.49435e-05
1.47555e-05
7.91174e-05
1.46659e-05
1.46333e-05
1.42534e-05
1.40682e-05
1.39348e-05
1.39387e-05
1.41005e-05
1.43891e-05
1.47656e-05
1.47255e-05
1.48569e-05
1.43e-05
1.41391e-05
1.38476e-05
1.36679e-05
1.3678e-05
1.38777e-05
1.41836e-05
1.43162e-05
1.49121e-05
1.4196e-05
1.40659e-05
1.38511e-05
1.35325e-05
1.33374e-05
1.33501e-05
1.35494e-05
1.38605e-05
1.40791e-05
1.42229e-05
1.39531e-05
1.39277e-05
1.36618e-05
1.33376e-05
1.31716e-05
1.31738e-05
1.33409e-05
1.36736e-05
1.39382e-05
1.39613e-05
1.3962e-05
1.3931e-05
1.3666e-05
1.33379e-05
1.31709e-05
1.31693e-05
1.33397e-05
1.36744e-05
1.39392e-05
1.39621e-05
1.42316e-05
1.40773e-05
1.38568e-05
1.35437e-05
1.33433e-05
1.33451e-05
1.35451e-05
1.38618e-05
1.40807e-05
1.42263e-05
1.49273e-05
1.43172e-05
1.4179e-05
1.38698e-05
1.36747e-05
1.3677e-05
1.38738e-05
1.4183e-05
1.43172e-05
1.49162e-05
1.47468e-05
1.47721e-05
1.43888e-05
1.41001e-05
1.39405e-05
1.39392e-05
1.40972e-05
1.43836e-05
1.47621e-05
1.47284e-05
7.91133e-05
1.47775e-05
1.49553e-05
1.42423e-05
1.39648e-05
1.3959e-05
1.42262e-05
1.49344e-05
1.47503e-05
7.91084e-05
0.000186093
1.19204e-05
1.47936e-05
1.41635e-05
1.3849e-05
1.38503e-05
1.41825e-05
1.48673e-05
1.19905e-05
0.000186231
1.19223e-05
1.4538e-05
1.4032e-05
1.38131e-05
1.36823e-05
1.36867e-05
1.38466e-05
1.41685e-05
1.46685e-05
1.19688e-05
1.47862e-05
1.4083e-05
1.38854e-05
1.36128e-05
1.34424e-05
1.34505e-05
1.36399e-05
1.39284e-05
1.40969e-05
1.48395e-05
1.41534e-05
1.38178e-05
1.36189e-05
1.33195e-05
1.31298e-05
1.31387e-05
1.33295e-05
1.36225e-05
1.38245e-05
1.41738e-05
1.38523e-05
1.36819e-05
1.34393e-05
1.31309e-05
1.29672e-05
1.29668e-05
1.3128e-05
1.34434e-05
1.36832e-05
1.3851e-05
1.38611e-05
1.3684e-05
1.34411e-05
1.31279e-05
1.29643e-05
1.29622e-05
1.31271e-05
1.3444e-05
1.36838e-05
1.3852e-05
1.41901e-05
1.38288e-05
1.36213e-05
1.3325e-05
1.31311e-05
1.3133e-05
1.33257e-05
1.36234e-05
1.38259e-05
1.41776e-05
1.48602e-05
1.41035e-05
1.39271e-05
1.36335e-05
1.3446e-05
1.34477e-05
1.36359e-05
1.3928e-05
1.40986e-05
1.48441e-05
1.19977e-05
1.46802e-05
1.41722e-05
1.38481e-05
1.36878e-05
1.36857e-05
1.38427e-05
1.4164e-05
1.46666e-05
1.1973e-05
0.000186212
1.20279e-05
1.48854e-05
1.41959e-05
1.38569e-05
1.385e-05
1.41768e-05
1.48605e-05
1.19877e-05
0.000186214
0.000364152
1.72929e-05
1.41605e-05
1.40978e-05
1.37801e-05
1.37815e-05
1.41169e-05
1.42349e-05
1.73309e-05
0.000364378
1.73214e-05
1.432e-05
1.3864e-05
1.35822e-05
1.34461e-05
1.34511e-05
1.3617e-05
1.4003e-05
1.44522e-05
1.72921e-05
1.41539e-05
1.39159e-05
1.36437e-05
1.33843e-05
1.32229e-05
1.32308e-05
1.34123e-05
1.36896e-05
1.39335e-05
1.42132e-05
1.40892e-05
1.35875e-05
1.33902e-05
1.31093e-05
1.29268e-05
1.29351e-05
1.31197e-05
1.33966e-05
1.35966e-05
1.41111e-05
1.37835e-05
1.3445e-05
1.32191e-05
1.29275e-05
1.27689e-05
1.27691e-05
1.29263e-05
1.32256e-05
1.34485e-05
1.37833e-05
1.37916e-05
1.34466e-05
1.322e-05
1.29234e-05
1.2766e-05
1.27656e-05
1.29263e-05
1.32264e-05
1.34496e-05
1.37859e-05
1.41258e-05
1.35985e-05
1.33925e-05
1.31142e-05
1.29282e-05
1.29317e-05
1.31179e-05
1.33986e-05
1.35999e-05
1.41187e-05
1.42335e-05
1.39397e-05
1.36887e-05
1.34072e-05
1.3228e-05
1.32301e-05
1.34109e-05
1.36922e-05
1.39389e-05
1.42228e-05
1.73065e-05
1.44646e-05
1.40089e-05
1.36213e-05
1.34548e-05
1.3453e-05
1.3617e-05
1.40036e-05
1.44558e-05
1.72959e-05
0.000364346
1.73393e-05
1.42585e-05
1.41352e-05
1.37918e-05
1.37855e-05
1.41169e-05
1.42354e-05
1.73278e-05
0.000364352
0.000622302
4.62754e-05
1.24586e-05
1.37887e-05
1.36424e-05
1.36425e-05
1.38049e-05
1.25278e-05
4.63373e-05
0.000622654
4.63389e-05
1.36748e-05
1.37476e-05
1.33814e-05
1.32291e-05
1.32337e-05
1.34153e-05
1.38857e-05
1.37991e-05
4.62409e-05
1.24594e-05
1.38003e-05
1.34205e-05
1.31623e-05
1.30074e-05
1.30155e-05
1.31911e-05
1.34674e-05
1.38187e-05
1.25126e-05
1.37807e-05
1.33864e-05
1.31677e-05
1.29013e-05
1.2726e-05
1.27346e-05
1.29139e-05
1.31772e-05
1.33964e-05
1.38014e-05
1.36438e-05
1.32264e-05
1.3003e-05
1.27265e-05
1.25736e-05
1.25754e-05
1.27283e-05
1.30123e-05
1.3232e-05
1.36444e-05
1.36501e-05
1.32276e-05
1.30041e-05
1.27231e-05
1.25722e-05
1.25733e-05
1.27291e-05
1.30132e-05
1.32334e-05
1.36486e-05
1.38136e-05
1.33956e-05
1.31713e-05
1.29082e-05
1.273e-05
1.27342e-05
1.29133e-05
1.31794e-05
1.34011e-05
1.38127e-05
1.25333e-05
1.38219e-05
1.34661e-05
1.31875e-05
1.30146e-05
1.30164e-05
1.31913e-05
1.34713e-05
1.38258e-05
1.25272e-05
4.62378e-05
1.38074e-05
1.38904e-05
1.34199e-05
1.32381e-05
1.32371e-05
1.34173e-05
1.38891e-05
1.38057e-05
4.62263e-05
0.000622586
4.63106e-05
1.25483e-05
1.38212e-05
1.36518e-05
1.36475e-05
1.38087e-05
1.25326e-05
4.63117e-05
0.000622593
0.000956658
0.000104905
1.19715e-05
1.28627e-05
1.31841e-05
1.31823e-05
1.28737e-05
1.20087e-05
0.000105053
0.00095723
0.000105007
1.23505e-05
1.36429e-05
1.32069e-05
1.30286e-05
1.30326e-05
1.32396e-05
1.37784e-05
1.24417e-05
0.000104872
1.19967e-05
1.36967e-05
1.32167e-05
1.29433e-05
1.27921e-05
1.28012e-05
1.29744e-05
1.32652e-05
1.37137e-05
1.19861e-05
1.28593e-05
1.3213e-05
1.29491e-05
1.26927e-05
1.25247e-05
1.25347e-05
1.27094e-05
1.29622e-05
1.32216e-05
1.28715e-05
1.31878e-05
1.30265e-05
1.27889e-05
1.2526e-05
1.23794e-05
1.23834e-05
1.25315e-05
1.28002e-05
1.30312e-05
1.31831e-05
1.31913e-05
1.30274e-05
1.27911e-05
1.25248e-05
1.23809e-05
1.23832e-05
1.2533e-05
1.28009e-05
1.30317e-05
1.31873e-05
1.28849e-05
1.32196e-05
1.29564e-05
1.27051e-05
1.25345e-05
1.25387e-05
1.27096e-05
1.29629e-05
1.32243e-05
1.28823e-05
1.20113e-05
1.3713e-05
1.32636e-05
1.29735e-05
1.28042e-05
1.2805e-05
1.29751e-05
1.32671e-05
1.37167e-05
1.20014e-05
0.000104864
1.24464e-05
1.37808e-05
1.32447e-05
1.30387e-05
1.30374e-05
1.32408e-05
1.37791e-05
1.24437e-05
0.000104851
0.000957115
0.000105017
1.20236e-05
1.28872e-05
1.31908e-05
1.31877e-05
1.28781e-05
1.20058e-05
0.000105016
0.000957151
0.00135223
0.000203179
2.3674e-05
1.14764e-05
1.21401e-05
1.21344e-05
1.14743e-05
2.36763e-05
0.000203439
0.00135305
0.000203306
1.1457e-05
1.34659e-05
1.30566e-05
1.28511e-05
1.28539e-05
1.30859e-05
1.35932e-05
1.14432e-05
0.000203153
2.37178e-05
1.35201e-05
1.30471e-05
1.27378e-05
1.25861e-05
1.25956e-05
1.27699e-05
1.30952e-05
1.35321e-05
2.36164e-05
1.14811e-05
1.30631e-05
1.27438e-05
1.24927e-05
1.2332e-05
1.23432e-05
1.25126e-05
1.27591e-05
1.30694e-05
1.14744e-05
1.21488e-05
1.28503e-05
1.25848e-05
1.23345e-05