/*--------------------------------*- C++ -*----------------------------------*\
| =========                 |                                                 |
| \\      /  F ield         | OpenFOAM: The Open Source CFD Toolbox           |
|  \\    /   O peration     | Version:  2406                                  |
|   \\  /    A nd           | Website:  www.openfoam.com                      |
|    \\/     M anipulation  |                                                 |
\*---------------------------------------------------------------------------*/
FoamFile
{
    version     2.0;
    format      ascii;
    arch        "LSB;label=32;scalar=64";
    class       volVectorField;
    location    "500";
    object      U;
}
// * * * * * * * * * * * * * * * * * * * * * * * * * * * * * * * * * * * * * //

dimensions      [0 1 -1 0 0 0 0];

internalField   nonuniform List<vector> 
25000
(
(0.00543646 0.00551265 1.00312)
(0.00316346 0.00482923 1.00295)
(0.00240256 0.0046286 1.00281)
(0.0014623 0.00449329 1.0027)
(0.000469788 0.0044167 1.00264)
(-0.000535975 0.00441259 1.00265)
(-0.00155962 0.00447648 1.00271)
(-0.00261106 0.00460355 1.00283)
(-0.00370704 0.00482151 1.00301)
(-0.00533083 0.00532437 1.00325)
(0.00474562 0.00320489 1.00294)
(0.00334189 0.00340486 1.00269)
(0.00233294 0.00339689 1.00252)
(0.00138861 0.00334617 1.00241)
(0.000441353 0.00331267 1.00235)
(-0.00051394 0.00331344 1.00236)
(-0.00148863 0.00335171 1.00242)
(-0.0024909 0.0034279 1.00254)
(-0.00355085 0.00354275 1.00274)
(-0.00482721 0.00369886 1.00301)
(0.00459806 0.00239854 1.0028)
(0.00334667 0.00235917 1.00252)
(0.00230688 0.00234125 1.00233)
(0.00135608 0.00231236 1.00221)
(0.000430335 0.0022949 1.00215)
(-0.000493042 0.00229957 1.00215)
(-0.00143279 0.00233168 1.00222)
(-0.00240391 0.00239262 1.00234)
(-0.00343543 0.00247938 1.00255)
(-0.00460789 0.00259995 1.00283)
(0.00447915 0.00144542 1.00269)
(0.0033151 0.00139391 1.0024)
(0.00228351 0.00137297 1.0022)
(0.00133569 0.0013556 1.00208)
(0.000426068 0.0013469 1.00202)
(-0.00047517 0.00135242 1.00202)
(-0.00139118 0.00137526 1.00209)
(-0.00234269 0.00141615 1.00222)
(-0.00335838 0.00147133 1.00242)
(-0.00447949 0.00154373 1.00271)
(0.00441587 0.000453598 1.00264)
(0.00329362 0.000437223 1.00235)
(0.00227288 0.00043613 1.00214)
(0.00132945 0.000436763 1.00202)
(0.000426627 0.000438493 1.00196)
(-0.00046421 0.000443112 1.00196)
(-0.00136884 0.000452605 1.00202)
(-0.00231149 0.000467398 1.00215)
(-0.00331933 0.000486356 1.00236)
(-0.00441251 0.000510777 1.00265)
(0.00441354 -0.000550332 1.00264)
(0.00330328 -0.000521343 1.00235)
(0.00228461 -0.000493009 1.00215)
(0.00133816 -0.000470362 1.00202)
(0.000432356 -0.000457289 1.00196)
(-0.000461033 -0.000453534 1.00196)
(-0.00136719 -0.000458636 1.00202)
(-0.00231065 -0.000471221 1.00215)
(-0.00331892 -0.000489088 1.00236)
(-0.00441229 -0.000512926 1.00265)
(0.00448114 -0.00157135 1.0027)
(0.003346 -0.00149604 1.00242)
(0.00232141 -0.00143573 1.00221)
(0.00136464 -0.0013902 1.00208)
(0.000443456 -0.00136557 1.00202)
(-0.000465553 -0.00136275 1.00202)
(-0.00138622 -0.00138144 1.00209)
(-0.00234025 -0.00142013 1.00222)
(-0.00335717 -0.00147421 1.00242)
(-0.00447883 -0.00154598 1.00271)
(0.00460766 -0.00262065 1.00283)
(0.00342535 -0.00249884 1.00254)
(0.00238576 -0.0024085 1.00234)
(0.0014082 -0.00234496 1.00221)
(0.000460208 -0.00231139 1.00215)
(-0.000477227 -0.00230929 1.00215)
(-0.00142464 -0.00233781 1.00222)
(-0.00239969 -0.00239695 1.00234)
(-0.00343325 -0.00248257 1.00254)
(-0.0046067 -0.00260241 1.00283)
(0.00482558 -0.00371545 1.00301)
(0.00354096 -0.00355916 1.00273)
(0.00247454 -0.00344225 1.00254)
(0.0014656 -0.0033631 1.00242)
(0.000481021 -0.00332225 1.00236)
(-0.000493672 -0.00332022 1.00236)
(-0.00147783 -0.00335714 1.00242)
(-0.0024852 -0.00343232 1.00254)
(-0.00354758 -0.00354622 1.00274)
(-0.00482542 -0.00370159 1.00301)
(0.00532525 -0.0053389 1.00325)
(0.00369676 -0.00483609 1.00301)
(0.0025965 -0.0046153 1.00283)
(0.00153993 -0.00448556 1.00271)
(0.00050726 -0.00441699 1.00265)
(-0.000515917 -0.00441544 1.00265)
(-0.00154841 -0.00448059 1.00271)
(-0.0026042 -0.00460732 1.00283)
(-0.00370274 -0.00482502 1.00301)
(-0.00532803 -0.00532749 1.00325)
(0.00709134 0.00716828 1.01865)
(0.004608 0.00632271 1.01792)
(0.00340793 0.00638119 1.01732)
(0.0020125 0.00635448 1.01688)
(0.000643006 0.00632898 1.01667)
(-0.000723516 0.00632989 1.01667)
(-0.00209957 0.00635058 1.01691)
(-0.00350364 0.00637928 1.01738)
(-0.00498863 0.00634914 1.01808)
(-0.00711549 0.00710137 1.01899)
(0.00624114 0.00464295 1.01789)
(0.00475839 0.00481448 1.0169)
(0.00347409 0.00485146 1.01621)
(0.00207651 0.0048974 1.01574)
(0.000666429 0.00492281 1.0155)
(-0.00074344 0.00492596 1.01551)
(-0.00215788 0.00490818 1.01577)
(-0.00356161 0.00487471 1.01628)
(-0.0048733 0.00485561 1.01704)
(-0.00636122 0.00497033 1.01808)
(0.00635051 0.00340725 1.01728)
(0.00480674 0.00349832 1.01619)
(0.00348184 0.00351214 1.01542)
(0.00209384 0.00352176 1.01491)
(0.000676634 0.00353174 1.01466)
(-0.000743704 0.00353592 1.01467)
(-0.00216298 0.00353641 1.01494)
(-0.00355976 0.00353754 1.01547)
(-0.00489172 0.00353893 1.01628)
(-0.00638977 0.00348069 1.01739)
(0.00633256 0.00200577 1.01685)
(0.00486726 0.00208759 1.01571)
(0.00349541 0.00211164 1.0149)
(0.00209754 0.00211786 1.01437)
(0.0006816 0.00212313 1.01411)
(-0.000739474 0.00212741 1.01411)
(-0.00215825 0.00213101 1.01439)
(-0.00355845 0.00213529 1.01494)
(-0.00492467 0.00212869 1.01577)
(-0.00636055 0.00207109 1.01692)
(0.00632282 0.000634256 1.01664)
(0.00490103 0.000668369 1.01548)
(0.00350916 0.00068577 1.01465)
(0.00210501 0.000694066 1.0141)
(0.000686305 0.000699983 1.01384)
(-0.000735897 0.000703791 1.01384)
(-0.00215489 0.000706765 1.01412)
(-0.00355926 0.000709031 1.01468)
(-0.00494264 0.000706361 1.01552)
(-0.00633756 0.000686208 1.01669)
(0.0063247 -0.000734417 1.01665)
(0.00491299 -0.000746987 1.01549)
(0.00351949 -0.000740738 1.01465)
(0.00211136 -0.000732501 1.01411)
(0.000691301 -0.00072721 1.01384)
(-0.000732676 -0.000723233 1.01384)
(-0.00215281 -0.000721026 1.01412)
(-0.00355779 -0.000719854 1.01468)
(-0.00494166 -0.000714911 1.01552)
(-0.00633694 -0.000693126 1.01669)
(0.00635318 -0.00211065 1.0169)
(0.00489942 -0.00216337 1.01575)
(0.00352402 -0.00216457 1.01493)
(0.00211859 -0.00215594 1.01438)
(0.000695586 -0.00215044 1.01411)
(-0.000729734 -0.00214702 1.01412)
(-0.00215178 -0.00214553 1.01439)
(-0.00355433 -0.00214621 1.01494)
(-0.00492193 -0.00213728 1.01578)
(-0.00635868 -0.002078 1.01692)
(0.00638177 -0.00351416 1.01737)
(0.00487018 -0.00357021 1.01626)
(0.00352873 -0.00356427 1.01546)
(0.00212544 -0.00356114 1.01493)
(0.000700098 -0.003559 1.01467)
(-0.000727601 -0.00355624 1.01467)
(-0.00215213 -0.00355116 1.01494)
(-0.00355235 -0.00354881 1.01548)
(-0.00488684 -0.00354768 1.01628)
(-0.00638663 -0.00348771 1.01739)
(0.00635333 -0.00499952 1.01807)
(0.00485198 -0.00488373 1.01703)
(0.00353236 -0.0049005 1.01627)
(0.00212132 -0.00493097 1.01577)
(0.000699623 -0.00494683 1.01552)
(-0.000720794 -0.00494375 1.01552)
(-0.00214192 -0.00492212 1.01577)
(-0.00355116 -0.0048857 1.01628)
(-0.00486609 -0.0048643 1.01704)
(-0.00635679 -0.00497735 1.01808)
(0.00710044 -0.00712603 1.01899)
(0.0049664 -0.00637209 1.01807)
(0.00347582 -0.00639865 1.01738)
(0.0020661 -0.00636822 1.01691)
(0.000681762 -0.00634342 1.01668)
(-0.000696854 -0.00634138 1.01668)
(-0.00208102 -0.00636132 1.01692)
(-0.00348993 -0.00638769 1.01739)
(-0.00497885 -0.00635629 1.01808)
(-0.0071085 -0.00710774 1.01899)
(0.00529334 0.00532552 1.03475)
(0.00354667 0.00469926 1.03377)
(0.0025625 0.00495463 1.03302)
(0.0014912 0.00497618 1.03249)
(0.000482766 0.00499617 1.03222)
(-0.000518216 0.00499812 1.03223)
(-0.0015355 0.00497605 1.03252)
(-0.00257984 0.00495621 1.03308)
(-0.00374887 0.00471103 1.03391)
(-0.00529305 0.00528252 1.03503)
(0.00466447 0.00355393 1.03375)
(0.00365244 0.00367229 1.03256)
(0.00268498 0.00375019 1.03167)
(0.00159458 0.00382694 1.03108)
(0.000520306 0.0038677 1.03078)
(-0.000552907 0.00386928 1.03079)
(-0.00162876 0.00383229 1.03111)
(-0.00271113 0.0037668 1.03174)
(-0.00368434 0.00367252 1.03267)
(-0.00471937 0.00373654 1.03392)
(0.00495098 0.00255622 1.03298)
(0.00373695 0.00268986 1.03166)
(0.00272233 0.00272914 1.03069)
(0.00162517 0.00276111 1.03003)
(0.000530708 0.00277869 1.02971)
(-0.000559744 0.00278015 1.02972)
(-0.00165386 0.0027669 1.03006)
(-0.00275229 0.00273877 1.03074)
(-0.00377848 0.00269736 1.03174)
(-0.00496424 0.00256563 1.03308)
(0.00496962 0.00148779 1.03246)
(0.00381913 0.00159758 1.03105)
(0.00275541 0.00162874 1.03002)
(0.00164785 0.00165261 1.02934)
(0.000540166 0.00166672 1.029)
(-0.000565371 0.00166863 1.02901)
(-0.0016738 0.00165853 1.02937)
(-0.00278045 0.00163863 1.03007)
(-0.003844 0.00161252 1.03112)
(-0.00498465 0.00151962 1.03253)
(0.00499706 0.000479111 1.0322)
(0.00386172 0.000519836 1.03076)
(0.00277333 0.000531912 1.0297)
(0.00166316 0.000542121 1.029)
(0.000546803 0.000549411 1.02865)
(-0.000567966 0.000551192 1.02866)
(-0.0016838 0.000548429 1.02902)
(-0.00279439 0.000542309 1.02973)
(-0.00388132 0.000534693 1.03081)
(-0.00500569 0.000499696 1.03225)
(0.00499593 -0.000521998 1.03221)
(0.00386642 -0.000554866 1.03077)
(0.00277678 -0.000560027 1.02971)
(0.00166525 -0.000564513 1.029)
(0.000549256 -0.000566737 1.02865)
(-0.000566356 -0.000564716 1.02866)
(-0.00168266 -0.00055922 1.02902)
(-0.00279345 -0.000551093 1.02973)
(-0.00388061 -0.000542002 1.03081)
(-0.00500515 -0.000505739 1.03225)
(0.00497792 -0.00153858 1.0325)
(0.00382969 -0.00163024 1.03109)
(0.00276426 -0.00165498 1.03005)
(0.00165648 -0.00167362 1.02936)
(0.000546609 -0.00168315 1.02901)
(-0.000560476 -0.00168158 1.02902)
(-0.00167027 -0.00166906 1.02937)
(-0.00277801 -0.00164714 1.03007)
(-0.00384216 -0.00161959 1.03112)
(-0.00498313 -0.00152553 1.03253)
(0.00495636 -0.00258204 1.03306)
(0.00376562 -0.00271365 1.03172)
(0.002737 -0.00275309 1.03073)
(0.00163706 -0.00278153 1.03006)
(0.000541233 -0.00279421 1.02973)
(-0.000552249 -0.00279333 1.02973)
(-0.00164827 -0.00277714 1.03007)
(-0.00274794 -0.00274712 1.03074)
(-0.00377531 -0.00270423 1.03175)
(-0.00496187 -0.00257141 1.03309)
(0.00471252 -0.00375193 1.0339)
(0.00367125 -0.00368729 1.03266)
(0.00269616 -0.0037809 1.03173)
(0.00161149 -0.00384561 1.03111)
(0.000534099 -0.00388242 1.0308)
(-0.000542653 -0.00388118 1.0308)
(-0.00162025 -0.00384214 1.03112)
(-0.00270519 -0.00377487 1.03174)
(-0.00367988 -0.00367918 1.03268)
(-0.00471655 -0.00374225 1.03392)
(0.00528056 -0.00529547 1.03502)
(0.00373535 -0.00472143 1.03391)
(0.00256506 -0.00496503 1.03308)
(0.00151935 -0.00498563 1.03252)
(0.000499683 -0.00500638 1.03225)
(-0.000505821 -0.0050061 1.03225)
(-0.00152578 -0.00498384 1.03253)
(-0.0025718 -0.00496235 1.03308)
(-0.00374282 -0.00471621 1.03392)
(-0.00528808 -0.0052877 1.03503)
(0.00358598 0.00359953 1.04561)
(0.00256166 0.00333047 1.04463)
(0.0018249 0.00366501 1.04389)
(0.00106548 0.00370944 1.04339)
(0.000345972 0.00376849 1.04313)
(-0.000357886 0.00376995 1.04314)
(-0.00108575 0.00370828 1.04341)
(-0.00181351 0.00366628 1.04394)
(-0.00267339 0.00333248 1.04474)
(-0.00357242 0.00356445 1.04583)
(0.0033149 0.00255681 1.04461)
(0.00267827 0.00268182 1.04345)
(0.00195455 0.00279061 1.04259)
(0.00115912 0.00285976 1.04201)
(0.000384081 0.00290107 1.04172)
(-0.000394271 0.00290248 1.04173)
(-0.00116882 0.00286151 1.04203)
(-0.00195402 0.0028022 1.04264)
(-0.00267915 0.00267157 1.04355)
(-0.00333801 0.00266567 1.04474)
(0.00367002 0.00181585 1.04386)
(0.0027909 0.00195028 1.04257)
(0.0020206 0.00201668 1.04162)
(0.00119192 0.00205774 1.04099)
(0.000393317 0.00207708 1.04068)
(-0.00040271 0.0020779 1.04068)
(-0.00120097 0.0020598 1.04101)
(-0.00202694 0.00201882 1.04167)
(-0.00280972 0.00194591 1.04264)
(-0.00367144 0.00180548 1.04394)
(0.00370727 0.00106232 1.04336)
(0.00286138 0.00115719 1.04199)
(0.00206157 0.00118823 1.04098)
(0.00122361 0.00122052 1.04031)
(0.000404407 0.00123656 1.03999)
(-0.000411779 0.00123755 1.03999)
(-0.00123186 0.00122338 1.04033)
(-0.0020679 0.00119263 1.04102)
(-0.00286882 0.00115982 1.04204)
(-0.00371344 0.00107736 1.04342)
(0.00376972 0.000344092 1.04311)
(0.00290157 0.000381905 1.0417)
(0.00207984 0.000390326 1.04067)
(0.00124033 0.000400952 1.03998)
(0.000410123 0.00040698 1.03964)
(-0.000415713 0.000407674 1.03965)
(-0.00124592 0.000403768 1.04)
(-0.00208656 0.000394515 1.04069)
(-0.00291013 0.000385686 1.04174)
(-0.00377382 0.000348705 1.04315)
(0.00376699 -0.000358548 1.04312)
(0.00290336 -0.000395444 1.04171)
(0.00208053 -0.00040446 1.04067)
(0.0012405 -0.000413876 1.03998)
(0.00041115 -0.000418225 1.03965)
(-0.000415023 -0.000417381 1.03965)
(-0.0012453 -0.000411906 1.04)
(-0.00208582 -0.000401283 1.04069)
(-0.00290956 -0.000391358 1.04174)
(-0.00377339 -0.00035337 1.04315)
(0.00370804 -0.00108551 1.0434)
(0.00286118 -0.00116832 1.04202)
(0.00206167 -0.00120158 1.041)
(0.00122639 -0.00123251 1.04033)
(0.00040665 -0.00124713 1.03999)
(-0.000409409 -0.0012466 1.04)
(-0.00122961 -0.00123102 1.04034)
(-0.00206624 -0.00119895 1.04102)
(-0.00286746 -0.00116514 1.04204)
(-0.00371218 -0.00108176 1.04342)
(0.00366438 -0.00181196 1.04393)
(0.00280236 -0.00195335 1.04263)
(0.00202032 -0.00202568 1.04166)
(0.00119499 -0.00206804 1.04101)
(0.000397284 -0.00208644 1.04069)
(-0.000399139 -0.00208654 1.04069)
(-0.00119764 -0.00206665 1.04102)
(-0.00202394 -0.00202465 1.04167)
(-0.00280738 -0.00195083 1.04264)
(-0.00366937 -0.0018097 1.04395)
(0.00333212 -0.00267229 1.04473)
(0.00267132 -0.00267815 1.04354)
(0.00194705 -0.00280884 1.04263)
(0.00116165 -0.00286819 1.04203)
(0.00038798 -0.00290987 1.04173)
(-0.000389415 -0.00290962 1.04174)
(-0.00116372 -0.00286753 1.04204)
(-0.00195039 -0.00280748 1.04264)
(-0.00267623 -0.00267616 1.04355)
(-0.00333607 -0.00266989 1.04474)
(0.00356146 -0.00357049 1.04583)
(0.00266547 -0.00333567 1.04473)
(0.00180654 -0.00366833 1.04394)
(0.001079 -0.00371145 1.04341)
(0.000350733 -0.00377238 1.04315)
(-0.000351591 -0.00377291 1.04315)
(-0.00108047 -0.0037122 1.04342)
(-0.00180884 -0.0036698 1.04395)
(-0.00266975 -0.00333571 1.04474)
(-0.0035688 -0.00356829 1.04584)
(0.00238857 0.00238877 1.05214)
(0.00188305 0.00235305 1.05119)
(0.00133116 0.00263931 1.05049)
(0.000788106 0.0026764 1.05001)
(0.000250696 0.00274851 1.04977)
(-0.000255452 0.00274933 1.04978)
(-0.000796293 0.00267267 1.05003)
(-0.00130497 0.00263718 1.05053)
(-0.00194352 0.00234843 1.05128)
(-0.00236702 0.00235606 1.05232)
(0.00235027 0.00186877 1.05117)
(0.00197445 0.00196589 1.05006)
(0.00142543 0.00206148 1.04924)
(0.00085395 0.00210355 1.04869)
(0.000285263 0.0021414 1.04841)
(-0.000287427 0.00214365 1.04842)
(-0.000852429 0.00210537 1.04871)
(-0.0014107 0.00207046 1.04928)
(-0.00195987 0.00195095 1.05014)
(-0.00235603 0.00193482 1.05128)
(0.00265 0.00131928 1.05046)
(0.00207204 0.00141425 1.04922)
(0.00150028 0.00148835 1.04831)
(0.000886138 0.00152494 1.04771)
(0.0002969 0.00154547 1.04741)
(-0.000297975 0.00154663 1.04742)
(-0.000886335 0.0015266 1.04773)
(-0.00149575 0.00148752 1.04835)
(-0.00207928 0.00140287 1.04928)
(-0.00264385 0.00129792 1.05053)
(0.00267801 0.00078528 1.04999)
(0.00211274 0.000849173 1.04867)
(0.00153601 0.000877673 1.0477)
(0.000916363 0.000907945 1.04706)
(0.000307655 0.000921823 1.04675)
(-0.000307065 0.000922509 1.04675)
(-0.000916592 0.000909157 1.04708)
(-0.0015346 0.000879106 1.04773)
(-0.00211342 0.000844984 1.04871)
(-0.00267877 0.000790034 1.05003)
(0.00275215 0.000250278 1.04975)
(0.00214743 0.000282916 1.0484)
(0.00155409 0.000292041 1.0474)
(0.000930457 0.000301272 1.04675)
(0.000311172 0.000304846 1.04642)
(-0.000310431 0.000304975 1.04643)
(-0.00092984 0.000301783 1.04676)
(-0.00155512 0.000292439 1.04742)
(-0.00215185 0.000281424 1.04842)
(-0.00275358 0.000248227 1.04978)
(0.00274914 -0.000254859 1.04976)
(0.00214898 -0.000287858 1.0484)
(0.00155391 -0.000299881 1.04741)
(0.00092954 -0.000310206 1.04675)
(0.000311385 -0.000314468 1.04642)
(-0.000310181 -0.0003142 1.04643)
(-0.000929511 -0.00030985 1.04676)
(-0.00155433 -0.000299326 1.04742)
(-0.00215129 -0.000287254 1.04843)
(-0.00275329 -0.000253128 1.04979)
(0.00267541 -0.000795528 1.05002)
(0.00210931 -0.000851168 1.04869)
(0.0015326 -0.000886411 1.04772)
(0.000915661 -0.000917094 1.04707)
(0.000307225 -0.000931425 1.04675)
(-0.000305821 -0.000931265 1.04676)
(-0.000914675 -0.000916699 1.04708)
(-0.00153325 -0.00088551 1.04773)
(-0.00211218 -0.000850434 1.04871)
(-0.00267784 -0.0007945 1.05003)
(0.00263902 -0.00130302 1.05052)
(0.00207517 -0.00140903 1.04927)
(0.00149303 -0.0014934 1.04834)
(0.000884593 -0.00153393 1.04772)
(0.000297518 -0.0015544 1.04742)
(-0.00029574 -0.0015547 1.04742)
(-0.000883701 -0.00153326 1.04773)
(-0.00149295 -0.00149343 1.04835)
(-0.00207694 -0.00140787 1.04928)
(-0.00264192 -0.00130218 1.05053)
(0.00235296 -0.00194122 1.05127)
(0.00195564 -0.00195736 1.05013)
(0.00140786 -0.00207687 1.04927)
(0.00084973 -0.00211156 1.04871)
(0.000285778 -0.00215041 1.04842)
(-0.000283939 -0.00215027 1.04842)
(-0.000848377 -0.00211103 1.04871)
(-0.00140771 -0.00207583 1.04928)
(-0.00195707 -0.00195571 1.05014)
(-0.00235425 -0.00193929 1.05128)
(0.00235843 -0.00236285 1.05231)
(0.0019394 -0.00235225 1.05127)
(0.00130258 -0.00263978 1.05052)
(0.000794396 -0.00267602 1.05003)
(0.000252391 -0.00275124 1.04978)
(-0.00024981 -0.00275146 1.04978)
(-0.000792409 -0.00267613 1.05003)
(-0.00130113 -0.00264044 1.05053)
(-0.00194005 -0.00235161 1.05128)
(-0.00236295 -0.00235986 1.05232)
(0.00187699 0.00186144 1.05672)
(0.00160098 0.00189694 1.0558)
(0.00111277 0.00206777 1.05514)
(0.000666296 0.00207452 1.05469)
(0.000202403 0.00213251 1.05446)
(-0.000214912 0.0021338 1.05446)
(-0.000680899 0.00207125 1.0547)
(-0.00109202 0.00206584 1.05517)
(-0.00163678 0.00189161 1.05588)
(-0.00185023 0.00183518 1.05687)
(0.00190845 0.00157743 1.05578)
(0.00162154 0.00160044 1.05473)
(0.00114619 0.00164727 1.05395)
(0.000693354 0.00165081 1.05343)
(0.00022799 0.00167769 1.05317)
(-0.000234671 0.00168129 1.05318)
(-0.000696131 0.00165696 1.05345)
(-0.00113449 0.00166245 1.05399)
(-0.00160526 0.0015935 1.0548)
(-0.00190215 0.00162524 1.05588)
(0.00208613 0.00109985 1.05512)
(0.00166836 0.00112926 1.05394)
(0.00120221 0.00118317 1.05308)
(0.000714543 0.00119874 1.05251)
(0.00024016 0.0012147 1.05222)
(-0.00024295 0.0012169 1.05223)
(-0.000716142 0.00120372 1.05252)
(-0.00119865 0.0011884 1.05311)
(-0.00167427 0.00112482 1.05399)
(-0.00207576 0.00108321 1.05517)
(0.00208276 0.000665432 1.05467)
(0.00166774 0.000687541 1.05342)
(0.00121607 0.000702955 1.0525)
(0.000730594 0.00071845 1.0519)
(0.00024752 0.00072596 1.0516)
(-0.000246945 0.000727247 1.0516)
(-0.000729908 0.000720995 1.05191)
(-0.00121371 0.000707366 1.05252)
(-0.00166793 0.000687335 1.05345)
(-0.00208125 0.000673326 1.05471)
(0.00214249 0.000204245 1.05444)
(0.00168981 0.000226896 1.05316)
(0.00122823 0.000235116 1.05221)
(0.00073784 0.000239985 1.05159)
(0.000248694 0.000241006 1.05129)
(-0.000247685 0.00024142 1.05129)
(-0.000736159 0.000240681 1.0516)
(-0.00122743 0.000235865 1.05223)
(-0.00169245 0.000226753 1.05318)
(-0.00214213 0.000204779 1.05447)
(0.00214017 -0.0002123 1.05445)
(0.00169216 -0.000233439 1.05316)
(0.00122825 -0.000243761 1.05222)
(0.000736914 -0.000249697 1.0516)
(0.000248993 -0.000251694 1.05129)
(-0.000247326 -0.000251419 1.05129)
(-0.000735871 -0.000249361 1.05161)
(-0.00122648 -0.000243318 1.05223)
(-0.00169179 -0.000232995 1.05318)
(-0.00214184 -0.000209952 1.05447)
(0.00207989 -0.000677994 1.05469)
(0.00166605 -0.000693061 1.05344)
(0.00121337 -0.000714672 1.05251)
(0.000729664 -0.00072919 1.0519)
(0.000247014 -0.000736933 1.0516)
(-0.000245354 -0.000736854 1.0516)
(-0.000727754 -0.000729216 1.05191)
(-0.00121235 -0.000714401 1.05252)
(-0.00166651 -0.000693298 1.05345)
(-0.00208031 -0.000678115 1.05471)
(0.00207262 -0.0010877 1.05516)
(0.00167197 -0.00113067 1.05398)
(0.00119724 -0.0011943 1.0531)
(0.000714668 -0.00121136 1.05252)
(0.000241625 -0.0012252 1.05223)
(-0.000239889 -0.00122572 1.05223)
(-0.000713332 -0.00121121 1.05252)
(-0.00119555 -0.00119519 1.05311)
(-0.00167157 -0.00113053 1.05399)
(-0.00207364 -0.00108795 1.05517)
(0.00190073 -0.00163132 1.05587)
(0.00160276 -0.00159995 1.05479)
(0.00113272 -0.0016694 1.05398)
(0.000693605 -0.00166399 1.05345)
(0.000231394 -0.0016891 1.05318)
(-0.00023005 -0.00168917 1.05318)
(-0.000692035 -0.00166387 1.05345)
(-0.00113147 -0.00166925 1.05399)
(-0.00160201 -0.00159957 1.0548)
(-0.00190003 -0.00163087 1.05588)
(0.00184214 -0.00184162 1.05686)
(0.00163365 -0.00189557 1.05588)
(0.00109016 -0.00206974 1.05517)
(0.000678769 -0.00207671 1.0547)
(0.000209071 -0.00213799 1.05447)
(-0.000207174 -0.00213815 1.05447)
(-0.000677093 -0.00207691 1.0547)
(-0.0010881 -0.00207096 1.05517)
(-0.00163288 -0.00189669 1.05588)
(-0.00184511 -0.00184099 1.05687)
(0.00186953 0.00185242 1.06097)
(0.00160806 0.00188833 1.06007)
(0.00109993 0.00197353 1.05943)
(0.000664752 0.00196399 1.05898)
(0.0001962 0.00200515 1.05876)
(-0.000216684 0.0020062 1.05876)
(-0.000690279 0.0019602 1.059)
(-0.00109321 0.00196905 1.05946)
(-0.00163284 0.00187756 1.06015)
(-0.00183438 0.00182401 1.06111)
(0.00189914 0.00158433 1.06006)
(0.00158017 0.0015572 1.05904)
(0.00109997 0.0015768 1.05829)
(0.000669384 0.00156186 1.05778)
(0.000214657 0.00158227 1.05753)
(-0.000228382 0.00158589 1.05754)
(-0.000681427 0.00157022 1.0578)
(-0.00109896 0.00159794 1.05832)
(-0.00156915 0.00156115 1.0591)
(-0.00188278 0.00162455 1.06015)
(0.00198745 0.00108924 1.05941)
(0.00159804 0.00108317 1.05828)
(0.00114493 0.00112555 1.05745)
(0.000686048 0.00112821 1.0569)
(0.000227967 0.00114209 1.05663)
(-0.000236477 0.00114475 1.05663)
(-0.000692774 0.00113574 1.05692)
(-0.0011464 0.00113836 1.05748)
(-0.00160606 0.00109142 1.05832)
(-0.00197429 0.00108603 1.05946)
(0.00196993 0.000664535 1.05897)
(0.00157786 0.000664139 1.05777)
(0.00114544 0.000674608 1.0569)
(0.00069132 0.000679219 1.05632)
(0.000233093 0.00068341 1.05603)
(-0.000236479 0.000685541 1.05604)
(-0.000692684 0.000684087 1.05633)
(-0.00114341 0.000684274 1.05692)
(-0.00157743 0.000673069 1.05781)
(-0.00196563 0.000683283 1.059)
(0.00201444 0.000196475 1.05875)
(0.00159388 0.000213288 1.05752)
(0.00115542 0.000223012 1.05662)
(0.000695131 0.000225622 1.05603)
(0.0002341 0.000226498 1.05574)
(-0.000235567 0.000227765 1.05574)
(-0.000694081 0.000228389 1.05604)
(-0.0011527 0.000227168 1.05664)
(-0.00159274 0.000218554 1.05755)
(-0.00200964 0.000204872 1.05877)
(0.00201346 -0.000216895 1.05875)
(0.00159735 -0.000228762 1.05753)
(0.00115631 -0.000238185 1.05663)
(0.000695159 -0.000239973 1.05603)
(0.000235272 -0.000240174 1.05574)
(-0.000234621 -0.000239332 1.05574)
(-0.000693592 -0.00023801 1.05604)
(-0.00115152 -0.000235252 1.05664)
(-0.00159198 -0.000225252 1.05755)
(-0.00200933 -0.000210437 1.05877)
(0.00197003 -0.000690254 1.05899)
(0.00158061 -0.000680831 1.05779)
(0.00114605 -0.00069342 1.05691)
(0.000692907 -0.000693833 1.05633)
(0.000234765 -0.00069665 1.05604)
(-0.000233408 -0.000696212 1.05604)
(-0.000689778 -0.000692896 1.05633)
(-0.00114178 -0.000691734 1.05692)
(-0.00157588 -0.000679369 1.05781)
(-0.00196472 -0.000688444 1.059)
(0.00197695 -0.00109196 1.05945)
(0.00160883 -0.00109836 1.05831)
(0.00114803 -0.00114521 1.05747)
(0.000691876 -0.0011441 1.05691)
(0.000233102 -0.00115333 1.05663)
(-0.000231091 -0.00115347 1.05664)
(-0.000689062 -0.00114323 1.05692)
(-0.00114276 -0.001145 1.05748)
(-0.00160312 -0.00109704 1.05832)
(-0.00197233 -0.00109087 1.05946)
(0.00188736 -0.00163086 1.06014)
(0.00157174 -0.00156776 1.0591)
(0.0011002 -0.00160523 1.05832)
(0.000679832 -0.00157754 1.0578)
(0.000223582 -0.00159307 1.05754)
(-0.000221461 -0.00159281 1.05754)
(-0.000676454 -0.00157643 1.0578)
(-0.00109548 -0.001604 1.05832)
(-0.00156584 -0.00156668 1.0591)
(-0.001881 -0.00162996 1.06015)
(0.0018318 -0.00182952 1.0611)
(0.00163405 -0.0018811 1.06014)
(0.00109383 -0.00197345 1.05946)
(0.000689476 -0.00196581 1.059)
(0.000209958 -0.00200973 1.05877)
(-0.000206466 -0.00200938 1.05877)
(-0.000685655 -0.00196473 1.059)
(-0.0010887 -0.00197297 1.05946)
(-0.00162897 -0.00188154 1.06015)
(-0.00182967 -0.00182917 1.06111)
(0.00200938 0.00199193 1.06555)
(0.00168323 0.00201468 1.06464)
(0.00114196 0.00206602 1.06399)
(0.000696548 0.00205974 1.06355)
(0.00020568 0.00209292 1.06332)
(-0.00022622 0.00209404 1.06333)
(-0.000727834 0.00205746 1.06356)
(-0.00114893 0.00206298 1.06402)
(-0.0017052 0.00200304 1.06471)
(-0.00196875 0.00196288 1.06567)
(0.00202258 0.00166285 1.06463)
(0.00164458 0.00162367 1.06361)
(0.00114178 0.0016452 1.06286)
(0.000697814 0.00163238 1.06237)
(0.000221371 0.00165264 1.06212)
(-0.000235687 0.00165518 1.06212)
(-0.000714003 0.00164036 1.06238)
(-0.00114952 0.00166966 1.0629)
(-0.00164106 0.00163808 1.06367)
(-0.00200343 0.0017017 1.06472)
(0.00207508 0.00113475 1.06398)
(0.00166321 0.00112774 1.06286)
(0.0011897 0.00117315 1.06204)
(0.000718025 0.00117503 1.0615)
(0.000236366 0.00119017 1.06123)
(-0.000246553 0.00119233 1.06123)
(-0.000726258 0.00118236 1.06151)
(-0.00119357 0.0011898 1.06207)
(-0.00167285 0.00114613 1.0629)
(-0.00206363 0.00114553 1.06403)
(0.00206397 0.000695651 1.06354)
(0.0016454 0.000693133 1.06236)
(0.00118943 0.000708048 1.06149)
(0.000719833 0.000709447 1.06092)
(0.000241007 0.000714126 1.06064)
(-0.000245726 0.000716661 1.06064)
(-0.000721023 0.000715473 1.06094)
(-0.00118574 0.000720854 1.06151)
(-0.00164276 0.000708936 1.06239)
(-0.00205829 0.000724157 1.06357)
(0.00210196 0.000202063 1.06331)
(0.00166284 0.000218039 1.06211)
(0.00120164 0.000230959 1.06122)
(0.000724321 0.000233879 1.06064)
(0.000243519 0.00023646 1.06035)
(-0.000245055 0.000238504 1.06035)
(-0.000722029 0.000238666 1.06065)
(-0.00119558 0.000238298 1.06124)
(-0.00165669 0.00022781 1.06213)
(-0.00209277 0.000217062 1.06334)
(0.00210268 -0.000231583 1.06332)
(0.00166683 -0.000239703 1.06211)
(0.00120325 -0.000250529 1.06122)
(0.000725516 -0.000250616 1.06064)
(0.000245663 -0.000250454 1.06035)
(-0.000243529 -0.000248956 1.06035)
(-0.000721374 -0.000246756 1.06065)
(-0.00119432 -0.000244741 1.06124)
(-0.00165594 -0.00023292 1.06213)
(-0.00209243 -0.000221119 1.06334)
(0.00206909 -0.000732523 1.06355)
(0.00165205 -0.000717497 1.06237)
(0.00119297 -0.000730134 1.0615)
(0.000724238 -0.000724705 1.06093)
(0.000245181 -0.000726566 1.06065)
(-0.000241369 -0.000725628 1.06065)
(-0.000717739 -0.000722433 1.06094)
(-0.0011841 -0.000726477 1.06151)
(-0.0016413 -0.000713501 1.06239)
(-0.00205734 -0.00072773 1.06357)
(0.00207315 -0.00115196 1.06402)
(0.00168211 -0.00115272 1.06289)
(0.00120033 -0.00119589 1.06206)
(0.000728961 -0.00118932 1.06151)
(0.000244789 -0.00119868 1.06123)
(-0.000239495 -0.00119832 1.06123)
(-0.000722189 -0.00118746 1.06151)
(-0.00118989 -0.00119403 1.06207)
(-0.0016701 -0.00114953 1.0629)
(-0.00206173 -0.00114833 1.06403)
(0.00201525 -0.00170698 1.06471)
(0.00165055 -0.00164302 1.06367)
(0.00115603 -0.00167511 1.0629)
(0.000716668 -0.00164562 1.06238)
(0.000233826 -0.00165926 1.06213)
(-0.000227797 -0.0016587 1.06213)
(-0.000708883 -0.0016436 1.06239)
(-0.00114606 -0.00167271 1.0629)
(-0.00163809 -0.0016408 1.06368)
(-0.00200176 -0.00170456 1.06472)
(0.00197427 -0.00196678 1.06567)
(0.00171323 -0.00200506 1.06471)
(0.00115466 -0.00206588 1.06402)
(0.000731667 -0.00206078 1.06356)
(0.000223534 -0.00209472 1.06334)
(-0.000215567 -0.00209397 1.06334)
(-0.000723143 -0.00205869 1.06357)
(-0.00114436 -0.0020636 1.06403)
(-0.00170182 -0.0020039 1.06472)
(-0.0019643 -0.00196533 1.06567)
(0.00210725 0.00209973 1.07047)
(0.00172479 0.00211339 1.06955)
(0.0011706 0.00215956 1.0689)
(0.000721211 0.00216356 1.06845)
(0.000216118 0.002195 1.06823)
(-0.000229761 0.0021961 1.06823)
(-0.00075146 0.00216312 1.06847)
(-0.00118732 0.00216024 1.06893)
(-0.00175045 0.00210448 1.06963)
(-0.00207266 0.0020713 1.07059)
(0.00211185 0.00171337 1.06954)
(0.00169515 0.00168343 1.06852)
(0.00118181 0.00171644 1.06777)
(0.000724964 0.00171058 1.06726)
(0.000229875 0.00173081 1.06701)
(-0.000240173 0.00173109 1.06702)
(-0.000740253 0.0017143 1.06728)
(-0.00119447 0.00173802 1.0678)
(-0.00170087 0.00170189 1.06858)
(-0.00210126 0.0017506 1.06963)
(0.00216039 0.00116791 1.06889)
(0.00172532 0.00117375 1.06776)
(0.00123459 0.00122483 1.06694)
(0.00074809 0.00122851 1.06639)
(0.00024432 0.00124369 1.06612)
(-0.000254461 0.00124425 1.06613)
(-0.000756084 0.00123201 1.06641)
(-0.00123932 0.00123847 1.06697)
(-0.00173744 0.00119376 1.06781)
(-0.00215788 0.00118582 1.06894)
(0.00216248 0.000719579 1.06844)
(0.00171588 0.000721568 1.06726)
(0.00123659 0.000741268 1.06639)
(0.000748317 0.000741563 1.06582)
(0.000248226 0.000747031 1.06554)
(-0.000254497 0.000749241 1.06554)
(-0.000750197 0.000746531 1.06583)
(-0.00123256 0.000752739 1.06641)
(-0.00171342 0.000737253 1.06729)
(-0.00216119 0.00074959 1.06847)
(0.00219909 0.00020919 1.06822)
(0.00173521 0.000224793 1.06701)
(0.00125025 0.000238973 1.06612)
(0.00075394 0.000242169 1.06553)
(0.000252064 0.000246347 1.06525)
(-0.000254947 0.000248677 1.06525)
(-0.000752493 0.000247694 1.06554)
(-0.00124427 0.000246973 1.06613)
(-0.00172896 0.000234483 1.06703)
(-0.00219216 0.000223945 1.06824)
(0.00220029 -0.000238606 1.06822)
(0.00173812 -0.000247095 1.06701)
(0.00125147 -0.000260389 1.06612)
(0.000755662 -0.000260475 1.06554)
(0.000254755 -0.000260846 1.06525)
(-0.000253137 -0.000258955 1.06525)
(-0.000751855 -0.000255685 1.06554)
(-0.00124307 -0.000253464 1.06613)
(-0.00172834 -0.000239952 1.06703)
(-0.00219189 -0.000228693 1.06824)
(0.00216996 -0.000758793 1.06846)
(0.00172165 -0.000746589 1.06728)
(0.0012395 -0.000762638 1.0664)
(0.000753464 -0.000756121 1.06583)
(0.000253571 -0.000758799 1.06554)
(-0.000249802 -0.000757568 1.06554)
(-0.000747098 -0.000753203 1.06583)
(-0.00123128 -0.000758273 1.06641)
(-0.00171242 -0.000742058 1.06729)
(-0.00216037 -0.000753747 1.06847)
(0.00216544 -0.00119273 1.06893)
(0.00174588 -0.00120042 1.0678)
(0.00124598 -0.0012445 1.06696)
(0.000759388 -0.00123876 1.06641)