/*--------------------------------*- C++ -*----------------------------------*\
| =========                 |                                                 |
| \\      /  F ield         | OpenFOAM: The Open Source CFD Toolbox           |
|  \\    /   O peration     | Version:  2406                                  |
|   \\  /    A nd           | Website:  www.openfoam.com                      |
|    \\/     M anipulation  |                                                 |
\*---------------------------------------------------------------------------*/
FoamFile
{
    version     2.0;
    format      ascii;
    arch        "LSB;label=32;scalar=64";
    class       volVectorField;
    location    "7.1";
    object      U;
}
// * * * * * * * * * * * * * * * * * * * * * * * * * * * * * * * * * * * * * //

dimensions      [0 1 -1 0 0 0 0];

internalField   nonuniform List<vector> 
16000
(
(0.153132 0.153132 1.11474)
(0.117573 0.168169 1.1542)
(0.072459 0.17688 1.17285)
(0.0244946 0.180953 1.18018)
(-0.0244946 0.180953 1.18018)
(-0.072459 0.17688 1.17285)
(-0.117573 0.168169 1.1542)
(-0.153132 0.153132 1.11474)
(0.168169 0.117573 1.1542)
(0.126109 0.126109 1.18728)
(0.0766337 0.131081 1.19757)
(0.0257137 0.133402 1.19978)
(-0.0257137 0.133402 1.19978)
(-0.0766337 0.131081 1.19757)
(-0.126109 0.126109 1.18728)
(-0.168169 0.117573 1.1542)
(0.17688 0.072459 1.17285)
(0.131081 0.0766337 1.19757)
(0.0792027 0.0792027 1.20176)
(0.0264749 0.0803911 1.20065)
(-0.0264749 0.0803911 1.20065)
(-0.0792027 0.0792027 1.20176)
(-0.131081 0.0766337 1.19757)
(-0.17688 0.072459 1.17285)
(0.180953 0.0244946 1.18018)
(0.133402 0.0257137 1.19978)
(0.0803911 0.0264749 1.20065)
(0.0268183 0.0268183 1.1979)
(-0.0268183 0.0268183 1.1979)
(-0.0803911 0.0264749 1.20065)
(-0.133402 0.0257137 1.19978)
(-0.180953 0.0244946 1.18018)
(0.180953 -0.0244946 1.18018)
(0.133402 -0.0257137 1.19978)
(0.0803911 -0.0264749 1.20065)
(0.0268183 -0.0268183 1.1979)
(-0.0268183 -0.0268183 1.1979)
(-0.0803911 -0.0264749 1.20065)
(-0.133402 -0.0257137 1.19978)
(-0.180953 -0.0244946 1.18018)
(0.17688 -0.072459 1.17285)
(0.131081 -0.0766337 1.19757)
(0.0792027 -0.0792027 1.20176)
(0.0264749 -0.0803911 1.20065)
(-0.0264749 -0.0803911 1.20065)
(-0.0792027 -0.0792027 1.20176)
(-0.131081 -0.0766337 1.19757)
(-0.17688 -0.072459 1.17285)
(0.168169 -0.117573 1.1542)
(0.126109 -0.126109 1.18728)
(0.0766337 -0.131081 1.19757)
(0.0257137 -0.133402 1.19978)
(-0.0257137 -0.133402 1.19978)
(-0.0766337 -0.131081 1.19757)
(-0.126109 -0.126109 1.18728)
(-0.168169 -0.117573 1.1542)
(0.153132 -0.153132 1.11474)
(0.117573 -0.168169 1.1542)
(0.072459 -0.17688 1.17285)
(0.0244946 -0.180953 1.18018)
(-0.0244946 -0.180953 1.18018)
(-0.072459 -0.17688 1.17285)
(-0.117573 -0.168169 1.1542)
(-0.153132 -0.153132 1.11474)
(0.0494154 0.0494154 1.29062)
(0.0414003 0.0615755 1.3895)
(0.027927 0.0703803 1.44408)
(0.00984083 0.075171 1.46809)
(-0.00984083 0.075171 1.46809)
(-0.027927 0.0703803 1.44408)
(-0.0414003 0.0615755 1.3895)
(-0.0494154 0.0494154 1.29062)
(0.0615755 0.0414003 1.3895)
(0.0531611 0.0531611 1.48728)
(0.0357288 0.0616406 1.53241)
(0.0125458 0.0660227 1.54992)
(-0.0125458 0.0660227 1.54992)
(-0.0357288 0.0616406 1.53241)
(-0.0531611 0.0531611 1.48728)
(-0.0615755 0.0414003 1.3895)
(0.0703803 0.0279271 1.44408)
(0.0616406 0.0357288 1.53241)
(0.0413007 0.0413007 1.57006)
(0.0144349 0.0441146 1.5832)
(-0.0144349 0.0441146 1.5832)
(-0.0413007 0.0413007 1.57006)
(-0.0616406 0.0357288 1.53241)
(-0.0703803 0.0279271 1.44408)
(0.075171 0.00984083 1.46809)
(0.0660227 0.0125458 1.54992)
(0.0441146 0.0144349 1.5832)
(0.0153734 0.0153734 1.59386)
(-0.0153734 0.0153734 1.59386)
(-0.0441146 0.0144349 1.5832)
(-0.0660227 0.0125458 1.54992)
(-0.075171 0.00984083 1.46809)
(0.075171 -0.00984083 1.46809)
(0.0660227 -0.0125458 1.54992)
(0.0441146 -0.0144349 1.5832)
(0.0153734 -0.0153734 1.59386)
(-0.0153734 -0.0153734 1.59386)
(-0.0441146 -0.0144349 1.5832)
(-0.0660227 -0.0125458 1.54992)
(-0.075171 -0.00984083 1.46809)
(0.0703803 -0.027927 1.44408)
(0.0616406 -0.0357288 1.53241)
(0.0413007 -0.0413007 1.57006)
(0.0144349 -0.0441146 1.5832)
(-0.0144349 -0.0441146 1.5832)
(-0.0413007 -0.0413007 1.57006)
(-0.0616406 -0.0357288 1.53241)
(-0.0703803 -0.027927 1.44408)
(0.0615755 -0.0414002 1.3895)
(0.0531611 -0.0531611 1.48728)
(0.0357288 -0.0616406 1.53241)
(0.0125458 -0.0660227 1.54992)
(-0.0125458 -0.0660227 1.54992)
(-0.0357288 -0.0616406 1.53241)
(-0.0531611 -0.0531611 1.48728)
(-0.0615755 -0.0414003 1.3895)
(0.0494154 -0.0494154 1.29062)
(0.0414003 -0.0615755 1.3895)
(0.027927 -0.0703803 1.44408)
(0.00984083 -0.075171 1.46809)
(-0.00984083 -0.075171 1.46809)
(-0.027927 -0.0703803 1.44408)
(-0.0414003 -0.0615755 1.3895)
(-0.0494154 -0.0494154 1.29062)
(0.0295334 0.0295334 1.18369)
(0.0263057 0.0381217 1.33605)
(0.0179588 0.0440247 1.43119)
(0.00638113 0.0472238 1.47636)
(-0.00638113 0.0472238 1.47636)
(-0.0179588 0.0440247 1.43119)
(-0.0263057 0.0381217 1.33605)
(-0.0295334 0.0295334 1.18369)
(0.0381217 0.0263057 1.33605)
(0.03387 0.03387 1.50686)
(0.0231033 0.0393329 1.60045)
(0.00819889 0.042227 1.64149)
(-0.00819889 0.042227 1.64149)
(-0.0231033 0.0393329 1.60045)
(-0.03387 0.03387 1.50686)
(-0.0381217 0.0263057 1.33605)
(0.0440247 0.0179588 1.43119)
(0.0393329 0.0231033 1.60045)
(0.0268026 0.0268026 1.68906)
(0.00948465 0.028713 1.72654)
(-0.00948465 0.028713 1.72654)
(-0.0268026 0.0268026 1.68906)
(-0.0393329 0.0231033 1.60045)
(-0.0440247 0.0179588 1.43119)
(0.0472238 0.00638113 1.47636)
(0.042227 0.00819889 1.64149)
(0.028713 0.00948465 1.72654)
(0.0101528 0.0101528 1.76219)
(-0.0101528 0.0101528 1.76219)
(-0.028713 0.00948465 1.72654)
(-0.042227 0.00819889 1.64149)
(-0.0472238 0.00638113 1.47636)
(0.0472238 -0.00638113 1.47636)
(0.042227 -0.00819889 1.64149)
(0.028713 -0.00948464 1.72654)
(0.0101528 -0.0101528 1.76219)
(-0.0101528 -0.0101528 1.76219)
(-0.028713 -0.00948464 1.72654)
(-0.042227 -0.00819889 1.64149)
(-0.0472238 -0.00638113 1.47636)
(0.0440247 -0.0179588 1.43119)
(0.0393329 -0.0231033 1.60045)
(0.0268026 -0.0268026 1.68906)
(0.00948465 -0.028713 1.72654)
(-0.00948465 -0.028713 1.72654)
(-0.0268026 -0.0268026 1.68906)
(-0.0393329 -0.0231033 1.60045)
(-0.0440247 -0.0179588 1.43119)
(0.0381217 -0.0263057 1.33605)
(0.03387 -0.03387 1.50686)
(0.0231033 -0.0393329 1.60045)
(0.00819889 -0.042227 1.64149)
(-0.00819889 -0.042227 1.64149)
(-0.0231033 -0.0393329 1.60045)
(-0.03387 -0.03387 1.50686)
(-0.0381217 -0.0263057 1.33605)
(0.0295334 -0.0295334 1.18369)
(0.0263057 -0.0381217 1.33605)
(0.0179588 -0.0440247 1.43119)
(0.00638113 -0.0472238 1.47636)
(-0.00638113 -0.0472238 1.47636)
(-0.0179588 -0.0440247 1.43119)
(-0.0263057 -0.0381217 1.33605)
(-0.0295334 -0.0295334 1.18369)
(0.00607788 0.00607788 1.17735)
(0.00678721 0.00932593 1.34012)
(0.00531535 0.0121436 1.44756)
(0.00200434 0.0137879 1.50053)
(-0.00200434 0.0137879 1.50053)
(-0.00531535 0.0121436 1.44756)
(-0.00678721 0.00932593 1.34012)
(-0.00607788 0.00607788 1.17735)
(0.00932593 0.00678721 1.34012)
(0.0106419 0.010642 1.53329)
(0.0082524 0.0137676 1.64786)
(0.00308277 0.0154575 1.70082)
(-0.00308277 0.0154575 1.70082)
(-0.0082524 0.0137676 1.64786)
(-0.010642 0.010642 1.53329)
(-0.00932593 0.00678721 1.34012)
(0.0121436 0.00531535 1.44756)
(0.0137676 0.0082524 1.64786)
(0.0104758 0.0104758 1.76219)
(0.00386311 0.0115575 1.81303)
(-0.00386311 0.0115575 1.81303)
(-0.0104758 0.0104758 1.76219)
(-0.0137676 0.0082524 1.64786)
(-0.0121436 0.00531535 1.44756)
(0.0137879 0.00200435 1.50053)
(0.0154575 0.00308277 1.70082)
(0.0115575 0.00386311 1.81303)
(0.00421153 0.00421154 1.8613)
(-0.00421153 0.00421154 1.8613)
(-0.0115575 0.00386311 1.81303)
(-0.0154575 0.00308277 1.70082)
(-0.0137879 0.00200435 1.50053)
(0.0137879 -0.00200434 1.50053)
(0.0154575 -0.00308276 1.70082)
(0.0115575 -0.0038631 1.81303)
(0.00421153 -0.00421153 1.8613)
(-0.00421153 -0.00421153 1.8613)
(-0.0115575 -0.0038631 1.81303)
(-0.0154575 -0.00308276 1.70082)
(-0.0137879 -0.00200434 1.50053)
(0.0121436 -0.00531535 1.44756)
(0.0137676 -0.00825239 1.64786)
(0.0104758 -0.0104758 1.76219)
(0.00386311 -0.0115575 1.81303)
(-0.00386311 -0.0115575 1.81303)
(-0.0104758 -0.0104758 1.76219)
(-0.0137676 -0.00825239 1.64786)
(-0.0121436 -0.00531535 1.44756)
(0.00932593 -0.00678721 1.34012)
(0.0106419 -0.0106419 1.53329)
(0.0082524 -0.0137676 1.64786)
(0.00308277 -0.0154575 1.70082)
(-0.00308277 -0.0154575 1.70082)
(-0.0082524 -0.0137676 1.64786)
(-0.0106419 -0.0106419 1.53329)
(-0.00932593 -0.00678721 1.34012)
(0.00607788 -0.00607788 1.17735)
(0.00678721 -0.00932592 1.34012)
(0.00531535 -0.0121436 1.44756)
(0.00200434 -0.0137879 1.50053)
(-0.00200434 -0.0137879 1.50053)
(-0.00531535 -0.0121436 1.44756)
(-0.00678721 -0.00932593 1.34012)
(-0.00607788 -0.00607788 1.17735)
(0.00420928 0.00420928 1.15879)
(0.00417758 0.00573707 1.32761)
(0.00305281 0.00697193 1.44156)
(0.00112169 0.00767951 1.4987)
(-0.00112169 0.00767951 1.4987)
(-0.00305281 0.00697193 1.44156)
(-0.00417758 0.00573707 1.32761)
(-0.00420928 0.00420928 1.15879)
(0.00573707 0.00417758 1.32761)
(0.0058271 0.0058271 1.53244)
(0.00432306 0.00720708 1.65824)
(0.00159285 0.00796351 1.71788)
(-0.00159285 0.00796351 1.71788)
(-0.00432306 0.00720707 1.65824)
(-0.0058271 0.0058271 1.53244)
(-0.00573707 0.00417758 1.32761)
(0.00697193 0.00305281 1.44156)
(0.00720707 0.00432306 1.65824)
(0.00533722 0.00533722 1.7871)
(0.00194952 0.00580511 1.84585)
(-0.00194952 0.00580511 1.84585)
(-0.00533722 0.00533722 1.7871)
(-0.00720707 0.00432306 1.65824)
(-0.00697193 0.00305281 1.44156)
(0.00767951 0.00112169 1.4987)
(0.00796351 0.00159285 1.71788)
(0.00580511 0.00194952 1.84585)
(0.00208328 0.00208328 1.90127)
(-0.00208328 0.00208328 1.90127)
(-0.00580511 0.00194952 1.84585)
(-0.00796351 0.00159285 1.71788)
(-0.00767951 0.00112169 1.4987)
(0.00767951 -0.00112169 1.4987)
(0.00796351 -0.00159285 1.71788)
(0.00580511 -0.00194951 1.84585)
(0.00208328 -0.00208328 1.90127)
(-0.00208328 -0.00208328 1.90127)
(-0.00580511 -0.00194951 1.84585)
(-0.00796351 -0.00159285 1.71788)
(-0.00767951 -0.00112169 1.4987)
(0.00697193 -0.00305281 1.44156)
(0.00720707 -0.00432305 1.65824)
(0.00533722 -0.00533722 1.7871)
(0.00194952 -0.0058051 1.84585)
(-0.00194952 -0.0058051 1.84585)
(-0.00533722 -0.00533722 1.7871)
(-0.00720707 -0.00432305 1.65824)
(-0.00697193 -0.00305281 1.44156)
(0.00573707 -0.00417758 1.32761)
(0.0058271 -0.0058271 1.53244)
(0.00432306 -0.00720707 1.65824)
(0.00159285 -0.0079635 1.71788)
(-0.00159285 -0.0079635 1.71788)
(-0.00432306 -0.00720707 1.65824)
(-0.0058271 -0.0058271 1.53244)
(-0.00573707 -0.00417758 1.32761)
(0.00420928 -0.00420928 1.15879)
(0.00417758 -0.00573707 1.32761)
(0.00305281 -0.00697193 1.44156)
(0.00112169 -0.00767951 1.4987)
(-0.00112169 -0.00767951 1.4987)
(-0.00305281 -0.00697193 1.44156)
(-0.00417758 -0.00573707 1.32761)
(-0.00420928 -0.00420928 1.15879)
(0.00130174 0.00130174 1.15563)
(0.00140465 0.00190345 1.3259)
(0.00109256 0.00244352 1.44189)
(0.000412967 0.00276631 1.50046)
(-0.000412967 0.00276631 1.50046)
(-0.00109256 0.00244352 1.44189)
(-0.00140465 0.00190345 1.3259)
(-0.00130174 0.00130174 1.15563)
(0.00190345 0.00140465 1.3259)
(0.00214529 0.0021453 1.53424)
(0.0016872 0.00280356 1.66415)
(0.000637026 0.00317699 1.72646)
(-0.000637026 0.00317699 1.72646)
(-0.0016872 0.00280356 1.66415)
(-0.00214529 0.0021453 1.53424)
(-0.00190345 0.00140465 1.3259)
(0.00244352 0.00109257 1.44189)
(0.00280355 0.0016872 1.66415)
(0.00219038 0.00219038 1.7989)
(0.000816972 0.0024356 1.86114)
(-0.000816972 0.0024356 1.86114)
(-0.00219038 0.00219038 1.7989)
(-0.00280356 0.0016872 1.66415)
(-0.00244352 0.00109257 1.44189)
(0.00276631 0.00041297 1.50046)
(0.00317699 0.000637029 1.72646)
(0.0024356 0.000816975 1.86114)
(0.000886492 0.000886495 1.91993)
(-0.000886492 0.000886495 1.91993)
(-0.0024356 0.000816974 1.86114)
(-0.00317699 0.000637029 1.72646)
(-0.00276631 0.00041297 1.50046)
(0.00276631 -0.000412964 1.50046)
(0.00317699 -0.000637022 1.72646)
(0.0024356 -0.000816969 1.86114)
(0.000886492 -0.00088649 1.91993)
(-0.000886492 -0.00088649 1.91993)
(-0.0024356 -0.000816969 1.86114)
(-0.00317699 -0.000637022 1.72646)
(-0.00276631 -0.000412964 1.50046)
(0.00244352 -0.00109256 1.44189)
(0.00280355 -0.00168719 1.66415)
(0.00219038 -0.00219038 1.7989)
(0.000816971 -0.00243559 1.86114)
(-0.000816972 -0.00243559 1.86114)
(-0.00219038 -0.00219038 1.7989)
(-0.00280356 -0.00168719 1.66415)
(-0.00244352 -0.00109256 1.44189)
(0.00190345 -0.00140464 1.3259)
(0.00214529 -0.00214529 1.53424)
(0.0016872 -0.00280355 1.66415)
(0.000637025 -0.00317699 1.72646)
(-0.000637026 -0.00317699 1.72646)
(-0.0016872 -0.00280355 1.66415)
(-0.00214529 -0.00214529 1.53424)
(-0.00190345 -0.00140464 1.3259)
(0.00130174 -0.00130174 1.15563)
(0.00140465 -0.00190345 1.3259)
(0.00109256 -0.00244351 1.44189)
(0.000412967 -0.00276631 1.50046)
(-0.000412967 -0.00276631 1.50046)
(-0.00109256 -0.00244352 1.44189)
(-0.00140465 -0.00190345 1.3259)
(-0.00130174 -0.00130174 1.15563)
(0.000792203 0.000792204 1.15296)
(0.000788354 0.00108156 1.32433)
(0.000581398 0.00132233 1.44146)
(0.000214721 0.00146385 1.50077)
(-0.000214719 0.00146385 1.50077)
(-0.000581397 0.00132233 1.44146)
(-0.000788354 0.00108156 1.32433)
(-0.000792204 0.000792204 1.15296)
(0.00108156 0.000788357 1.32433)
(0.00110842 0.00110842 1.53467)
(0.000833461 0.00139004 1.66657)
(0.000309536 0.00155285 1.73013)
(-0.000309535 0.00155285 1.73013)
(-0.00083346 0.00139004 1.66657)
(-0.00110842 0.00110842 1.53467)
(-0.00108156 0.000788356 1.32433)
(0.00132233 0.000581401 1.44146)
(0.00139004 0.000833464 1.66657)
(0.00105205 0.00105206 1.80409)
(0.000388559 0.00116372 1.86797)
(-0.000388558 0.00116372 1.86797)
(-0.00105205 0.00105206 1.80409)
(-0.00139004 0.000833464 1.66657)
(-0.00132233 0.000581401 1.44146)
(0.00146384 0.000214724 1.50077)
(0.00155285 0.00030954 1.73013)
(0.00116372 0.000388563 1.86797)
(0.000420373 0.000420376 1.92846)
(-0.000420372 0.000420376 1.92846)
(-0.00116372 0.000388562 1.86797)
(-0.00155285 0.000309539 1.73013)
(-0.00146385 0.000214724 1.50077)
(0.00146384 -0.000214716 1.50077)
(0.00155285 -0.000309531 1.73013)
(0.00116372 -0.000388555 1.86797)
(0.000420372 -0.000420369 1.92846)
(-0.000420372 -0.000420369 1.92846)
(-0.00116372 -0.000388555 1.86797)
(-0.00155285 -0.000309531 1.73013)
(-0.00146385 -0.000214716 1.50077)
(0.00132233 -0.000581393 1.44146)
(0.00139004 -0.000833456 1.66657)
(0.00105205 -0.00105205 1.80409)
(0.000388558 -0.00116372 1.86797)
(-0.000388559 -0.00116372 1.86797)
(-0.00105205 -0.00105205 1.80409)
(-0.00139004 -0.000833456 1.66657)
(-0.00132233 -0.000581394 1.44146)
(0.00108155 -0.000788349 1.32433)
(0.00110841 -0.00110841 1.53467)
(0.00083346 -0.00139004 1.66657)
(0.000309535 -0.00155284 1.73013)
(-0.000309535 -0.00155284 1.73013)
(-0.00083346 -0.00139004 1.66657)
(-0.00110842 -0.00110841 1.53467)
(-0.00108156 -0.00078835 1.32433)
(0.0007922 -0.0007922 1.15296)
(0.000788352 -0.00108155 1.32433)
(0.000581397 -0.00132233 1.44146)
(0.00021472 -0.00146384 1.50077)
(-0.00021472 -0.00146384 1.50077)
(-0.000581397 -0.00132233 1.44146)
(-0.000788353 -0.00108155 1.32433)
(-0.000792202 -0.000792202 1.15296)
(0.000340735 0.000340736 1.1521)
(0.000347864 0.000479671 1.32392)
(0.000260863 0.00059821 1.44154)
(9.69832e-05 0.000668246 1.50117)
(-9.69836e-05 0.000668246 1.50117)
(-0.000260863 0.00059821 1.44154)
(-0.000347865 0.000479671 1.32392)
(-0.000340737 0.000340738 1.1521)
(0.000479666 0.000347867 1.32392)
(0.000505477 0.000505481 1.53513)
(0.000384178 0.000642849 1.6679)
(0.000143137 0.00072207 1.732)
(-0.000143138 0.00072207 1.732)
(-0.000384179 0.000642849 1.6679)
(-0.000505478 0.000505482 1.53513)
(-0.00047967 0.000347868 1.32392)
(0.000598204 0.000260867 1.44154)
(0.000642844 0.000384183 1.6679)
(0.000489664 0.000489668 1.80663)
(0.0001812 0.000544341 1.87124)
(-0.0001812 0.000544341 1.87124)
(-0.000489664 0.000489668 1.80663)
(-0.000642846 0.000384183 1.6679)
(-0.000598208 0.000260867 1.44154)
(0.00066824 9.69876e-05 1.50117)
(0.000722066 0.000143142 1.732)
(0.000544337 0.000181204 1.87124)
(0.000196974 0.000196978 1.93251)
(-0.000196975 0.000196978 1.93251)
(-0.000544337 0.000181204 1.87124)
(-0.000722067 0.000143142 1.732)
(-0.000668242 9.69878e-05 1.50117)
(0.00066824 -9.69793e-05 1.50117)
(0.000722066 -0.000143133 1.732)
(0.000544337 -0.000181196 1.87124)
(0.000196974 -0.000196971 1.93251)
(-0.000196975 -0.000196971 1.93251)
(-0.000544337 -0.000181196 1.87124)
(-0.000722067 -0.000143133 1.732)
(-0.000668242 -9.69792e-05 1.50117)
(0.000598204 -0.000260859 1.44154)
(0.000642844 -0.000384174 1.6679)
(0.000489664 -0.00048966 1.80663)
(0.0001812 -0.000544333 1.87124)
(-0.0001812 -0.000544333 1.87124)
(-0.000489664 -0.00048966 1.80663)
(-0.000642845 -0.000384174 1.6679)
(-0.000598206 -0.000260859 1.44154)
(0.000479666 -0.000347861 1.32392)
(0.000505477 -0.000505473 1.53513)
(0.000384178 -0.000642841 1.6679)
(0.000143137 -0.000722063 1.732)
(-0.000143138 -0.000722063 1.732)
(-0.000384179 -0.000642841 1.6679)
(-0.000505477 -0.000505474 1.53513)
(-0.000479667 -0.000347861 1.32392)
(0.000340733 -0.000340732 1.1521)
(0.000347863 -0.000479664 1.32392)
(0.000260863 -0.000598202 1.44154)
(9.69831e-05 -0.000668238 1.50117)
(-9.69838e-05 -0.000668238 1.50117)
(-0.000260863 -0.000598203 1.44154)
(-0.000347864 -0.000479665 1.32392)
(-0.000340734 -0.000340734 1.1521)
(0.000183377 0.000183379 1.15155)
(0.000182636 0.000252985 1.32363)
(0.0001345 0.000310878 1.44151)
(4.95861e-05 0.000344802 1.5013)
(-4.95831e-05 0.000344802 1.5013)
(-0.000134497 0.000310876 1.44151)
(-0.000182633 0.000252982 1.32363)
(-0.000183377 0.000183378 1.15155)
(0.00025298 0.000182639 1.32363)
(0.000258955 0.00025896 1.5353)
(0.000193546 0.000324768 1.66852)
(7.1591e-05 0.000362583 1.73289)
(-7.15884e-05 0.000362582 1.73289)
(-0.000193544 0.000324767 1.66852)
(-0.000258954 0.000258958 1.5353)
(-0.000252981 0.000182637 1.32363)
(0.000310873 0.000134504 1.44151)
(0.000324764 0.000193551 1.66852)
(0.000243696 0.0002437 1.80785)
(8.96177e-05 0.000269587 1.87281)
(-8.96159e-05 0.000269587 1.87281)
(-0.000243694 0.000243699 1.80785)
(-0.000324763 0.000193549 1.66852)
(-0.000310875 0.000134502 1.44151)
(0.000344797 4.95902e-05 1.5013)
(0.000362578 7.15957e-05 1.73289)
(0.000269583 8.9622e-05 1.87281)
(9.70174e-05 9.70212e-05 1.93446)
(-9.70162e-05 9.7021e-05 1.93446)
(-0.000269582 8.96214e-05 1.87281)
(-0.000362578 7.15947e-05 1.73289)
(-0.000344799 4.95892e-05 1.5013)
(0.000344797 -4.95791e-05 1.5013)
(0.000362578 -7.15839e-05 1.73289)
(0.000269583 -8.96118e-05 1.87281)
(9.70173e-05 -9.70125e-05 1.93446)
(-9.70163e-05 -9.70127e-05 1.93446)
(-0.000269582 -8.96123e-05 1.87281)
(-0.000362578 -7.15846e-05 1.73289)
(-0.000344799 -4.958e-05 1.5013)
(0.000310872 -0.000134493 1.44151)
(0.000324763 -0.000193539 1.66852)
(0.000243695 -0.00024369 1.80785)
(8.96172e-05 -0.000269578 1.87281)
(-8.96164e-05 -0.000269578 1.87281)
(-0.000243695 -0.000243691 1.80785)
(-0.000324763 -0.00019354 1.66852)
(-0.000310874 -0.000134494 1.44151)
(0.000252977 -0.000182629 1.32363)
(0.000258954 -0.000258949 1.5353)
(0.000193545 -0.000324758 1.66852)
(7.15899e-05 -0.000362574 1.73289)
(-7.15893e-05 -0.000362574 1.73289)
(-0.000193544 -0.000324759 1.66852)
(-0.000258954 -0.00025895 1.5353)
(-0.00025298 -0.00018263 1.32363)
(0.000183373 -0.000183373 1.15155)
(0.000182633 -0.000252975 1.32363)
(0.000134498 -0.000310869 1.44151)
(4.95847e-05 -0.000344793 1.5013)
(-4.95844e-05 -0.000344794 1.5013)
(-0.000134498 -0.00031087 1.44151)
(-0.000182633 -0.000252976 1.32363)
(-0.000183375 -0.000183375 1.15155)
(8.67704e-05 8.6772e-05 1.15132)
(8.7709e-05 0.000121324 1.32351)
(6.52141e-05 0.000150476 1.44152)
(2.41381e-05 0.000167609 1.50139)
(-2.41364e-05 0.000167609 1.50139)
(-6.52128e-05 0.000150475 1.44152)
(-8.77083e-05 0.000121322 1.32351)
(-8.67711e-05 8.67716e-05 1.15132)
(0.000121317 8.77128e-05 1.32351)
(0.00012629 0.000126296 1.53541)
(9.51088e-05 0.000159576 1.66884)
(3.52683e-05 0.000178635 1.73335)
(-3.52668e-05 0.000178634 1.73335)
(-9.51077e-05 0.000159575 1.66884)
(-0.00012629 0.000126295 1.53541)
(-0.000121319 8.77123e-05 1.32351)
(0.000150469 6.52186e-05 1.44152)
(0.000159571 9.51141e-05 1.66884)
(0.000120351 0.000120356 1.80847)
(4.43133e-05 0.000133316 1.8736)
(-4.43124e-05 0.000133316 1.8736)
(-0.000120351 0.000120356 1.80847)
(-0.00015957 9.51135e-05 1.66884)
(-0.000150471 6.52182e-05 1.44152)
(0.000167602 2.41425e-05 1.50139)
(0.000178629 3.52733e-05 1.73335)
(0.000133311 4.4318e-05 1.8736)
(4.80028e-05 4.8007e-05 1.93544)
(-4.80022e-05 4.80068e-05 1.93544)
(-0.000133311 4.43176e-05 1.8736)
(-0.000178629 3.52728e-05 1.73335)
(-0.000167603 2.41421e-05 1.50139)
(0.000167601 -2.41324e-05 1.50139)
(0.000178629 -3.52623e-05 1.73335)
(0.000133311 -4.43082e-05 1.8736)
(4.80027e-05 -4.79985e-05 1.93544)
(-4.80024e-05 -4.79986e-05 1.93544)
(-0.000133311 -4.43085e-05 1.8736)
(-0.000178629 -3.52627e-05 1.73335)
(-0.000167602 -2.41327e-05 1.50139)
(0.000150469 -6.52092e-05 1.44152)
(0.00015957 -9.51036e-05 1.66884)
(0.000120351 -0.000120347 1.80847)
(4.43131e-05 -0.000133307 1.8736)
(-4.43128e-05 -0.000133308 1.8736)
(-0.000120351 -0.000120347 1.80847)
(-0.00015957 -9.51039e-05 1.66884)
(-0.000150469 -6.52095e-05 1.44152)
(0.000121316 -8.77042e-05 1.32351)
(0.00012629 -0.000126286 1.53541)
(9.51084e-05 -0.000159567 1.66884)
(3.52677e-05 -0.000178626 1.73335)
(-3.52675e-05 -0.000178626 1.73335)
(-9.51083e-05 -0.000159567 1.66884)
(-0.00012629 -0.000126286 1.53541)
(-0.000121317 -8.77047e-05 1.32351)
(8.67676e-05 -8.67666e-05 1.15132)
(8.77074e-05 -0.000121314 1.32351)
(6.52135e-05 -0.000150466 1.44152)
(2.41373e-05 -0.000167599 1.50139)
(-2.41373e-05 -0.0001676 1.50139)
(-6.52135e-05 -0.000150467 1.44152)
(-8.77075e-05 -0.000121315 1.32351)
(-8.67682e-05 -8.67674e-05 1.15132)
(4.52173e-05 4.52192e-05 1.15119)
(4.53631e-05 6.2748e-05 1.32345)
(3.35598e-05 7.7422e-05 1.44152)
(1.23974e-05 8.60276e-05 1.50143)
(-1.23926e-05 8.60265e-05 1.50143)
(-3.35556e-05 7.74188e-05 1.44152)
(-4.53591e-05 6.27427e-05 1.32345)
(-4.5215e-05 4.52158e-05 1.15119)
(6.2742e-05 4.53667e-05 1.32345)
(6.47557e-05 6.47609e-05 1.53546)
(4.85775e-05 8.14842e-05 1.669)
(1.79889e-05 9.10614e-05 1.73357)
(-1.7985e-05 9.10608e-05 1.73357)
(-4.8574e-05 8.14822e-05 1.669)
(-6.4753e-05 6.47576e-05 1.53546)
(-6.27416e-05 4.53635e-05 1.32345)
(7.74155e-05 3.3564e-05 1.44152)
(8.14792e-05 4.85824e-05 1.669)
(6.12722e-05 6.12768e-05 1.80878)
(2.25354e-05 6.77825e-05 1.874)
(-2.25327e-05 6.77821e-05 1.874)
(-6.12699e-05 6.12755e-05 1.80878)
(-8.14776e-05 4.85802e-05 1.669)
(-7.74163e-05 3.35617e-05 1.44152)
(8.60212e-05 1.24014e-05 1.50143)
(9.10566e-05 1.79935e-05 1.73357)
(6.77783e-05 2.25396e-05 1.874)
(2.43784e-05 2.43822e-05 1.93593)
(-2.43767e-05 2.43819e-05 1.93593)
(-6.77768e-05 2.25386e-05 1.874)
(-9.10557e-05 1.79919e-05 1.73357)
(-8.60227e-05 1.23995e-05 1.50143)
(8.60206e-05 -1.23889e-05 1.50143)
(9.10561e-05 -1.79806e-05 1.73357)
(6.7778e-05 -2.25288e-05 1.874)
(2.43782e-05 -2.43732e-05 1.93593)
(-2.4377e-05 -2.43734e-05 1.93593)
(-6.7777e-05 -2.25296e-05 1.874)
(-9.10557e-05 -1.79819e-05 1.73357)
(-8.60227e-05 -1.23904e-05 1.50143)
(7.74134e-05 -3.35521e-05 1.44152)
(8.14777e-05 -4.857e-05 1.669)
(6.12712e-05 -6.12661e-05 1.80878)
(2.25345e-05 -6.77732e-05 1.874)
(-2.25336e-05 -6.77734e-05 1.874)
(-6.12705e-05 -6.12667e-05 1.80878)
(-8.14776e-05 -4.85709e-05 1.669)
(-7.74159e-05 -3.35533e-05 1.44152)
(6.27376e-05 -4.53551e-05 1.32345)
(6.4753e-05 -6.47485e-05 1.53546)
(4.85756e-05 -8.14735e-05 1.669)
(1.79872e-05 -9.10519e-05 1.73357)
(-1.79865e-05 -9.1052e-05 1.73357)
(-4.85751e-05 -8.1474e-05 1.669)
(-6.4753e-05 -6.47494e-05 1.53546)
(-6.27402e-05 -4.53565e-05 1.32345)
(4.52113e-05 -4.52107e-05 1.15119)
(4.53587e-05 -6.2735e-05 1.32345)
(3.35573e-05 -7.74104e-05 1.44152)
(1.2395e-05 -8.60172e-05 1.50143)
(-1.23947e-05 -8.60175e-05 1.50143)
(-3.35571e-05 -7.74113e-05 1.44152)
(-4.53591e-05 -6.27369e-05 1.32345)
(-4.52132e-05 -4.52128e-05 1.15119)
(2.23411e-05 2.23421e-05 1.15113)
(2.25619e-05 3.11669e-05 1.32341)
(1.67709e-05 3.8606e-05 1.44152)
(6.20855e-06 4.29801e-05 1.50145)
(-6.20864e-06 4.29801e-05 1.50145)
(-1.67712e-05 3.86057e-05 1.44152)
(-2.25626e-05 3.11666e-05 1.32341)
(-2.23425e-05 2.23427e-05 1.15113)
(3.11624e-05 2.25649e-05 1.32341)
(3.24195e-05 3.24237e-05 1.53548)
(2.44301e-05 4.09511e-05 1.66908)
(9.06386e-06 4.58409e-05 1.73369)
(-9.06406e-06 4.58409e-05 1.73369)
(-2.44305e-05 4.0951e-05 1.66908)
(-3.24204e-05 3.24236e-05 1.53548)
(-3.11649e-05 2.25654e-05 1.32341)
(3.86006e-05 1.67749e-05 1.44152)
(4.09469e-05 2.44346e-05 1.66908)
(3.09174e-05 3.09215e-05 1.80894)
(1.13896e-05 3.42524e-05 1.8742)
(-1.13899e-05 3.42524e-05 1.8742)
(-3.09179e-05 3.09214e-05 1.80894)
(-4.09478e-05 2.44345e-05 1.66908)
(-3.86027e-05 1.6775e-05 1.44152)
(4.29744e-05 6.21272e-06 1.50145)
(4.58368e-05 9.06842e-06 1.73369)
(3.42486e-05 1.13936e-05 1.8742)
(1.23353e-05 1.23389e-05 1.93618)
(-1.23358e-05 1.23389e-05 1.93618)
(-3.42491e-05 1.13935e-05 1.8742)
(-4.58375e-05 9.06827e-06 1.73369)
(-4.29761e-05 6.21267e-06 1.50145)
(4.29743e-05 -6.20469e-06 1.50145)
(4.58367e-05 -9.05975e-06 1.73369)
(3.42486e-05 -1.13861e-05 1.8742)
(1.23353e-05 -1.23324e-05 1.93618)
(-1.23359e-05 -1.23325e-05 1.93618)
(-3.42492e-05 -1.13862e-05 1.8742)
(-4.58374e-05 -9.05993e-06 1.73369)
(-4.29757e-05 -6.20483e-06 1.50145)
(3.86003e-05 -1.67676e-05 1.44152)
(4.09468e-05 -2.44265e-05 1.66908)
(3.09173e-05 -3.09142e-05 1.80894)
(1.13895e-05 -3.42458e-05 1.8742)
(-1.13901e-05 -3.42458e-05 1.8742)
(-3.0918e-05 -3.09144e-05 1.80894)
(-4.09474e-05 -2.44267e-05 1.66908)
(-3.86014e-05 -1.67678e-05 1.44152)
(3.11615e-05 -2.25585e-05 1.32341)
(3.24191e-05 -3.24162e-05 1.53548)
(2.443e-05 -4.09441e-05 1.66908)
(9.06364e-06 -4.58342e-05 1.73369)
(-9.0644e-06 -4.58343e-05 1.73369)
(-2.44308e-05 -4.09444e-05 1.66908)
(-3.24198e-05 -3.24167e-05 1.53548)
(-3.11623e-05 -2.25591e-05 1.32341)
(2.2339e-05 -2.23382e-05 1.15113)
(2.25609e-05 -3.11596e-05 1.32341)
(1.67708e-05 -3.85985e-05 1.44152)
(6.20827e-06 -4.29727e-05 1.50145)
(-6.20909e-06 -4.2973e-05 1.50145)
(-1.67716e-05 -3.85993e-05 1.44152)
(-2.25617e-05 -3.11608e-05 1.32341)
(-2.23399e-05 -2.23391e-05 1.15113)
(1.14901e-05 1.14913e-05 1.1511)
(1.15722e-05 1.5983e-05 1.3234)
(8.58626e-06 1.97563e-05 1.44152)
(3.17719e-06 2.19742e-05 1.50146)
(-3.17531e-06 2.19738e-05 1.50146)
(-8.58465e-06 1.97551e-05 1.44152)
(-1.15712e-05 1.59811e-05 1.3234)
(-1.14906e-05 1.14909e-05 1.1511)
(1.59799e-05 1.15747e-05 1.3234)
(1.65709e-05 1.65741e-05 1.5355)
(1.2472e-05 2.08999e-05 1.66912)
(4.62644e-06 2.33831e-05 1.73375)
(-4.62496e-06 2.33829e-05 1.73375)
(-1.24708e-05 2.0899e-05 1.66912)
(-1.65705e-05 1.65727e-05 1.5355)
(-1.59824e-05 1.15738e-05 1.3234)
(1.97531e-05 8.58923e-06 1.44152)
(2.08968e-05 1.24753e-05 1.66912)
(1.57688e-05 1.57719e-05 1.80902)
(5.80932e-06 1.74673e-05 1.8743)
(-5.80839e-06 1.74671e-05 1.8743)
(-1.57682e-05 1.57713e-05 1.80902)
(-2.08969e-05 1.24744e-05 1.66912)
(-1.97559e-05 8.5883e-06 1.44152)
(2.19709e-05 3.18028e-06 1.50146)
(2.33803e-05 4.6299e-06 1.73375)
(1.74645e-05 5.81239e-06 1.8743)
(6.29095e-06 6.29364e-06 1.9363)
(-6.29044e-06 6.2935e-06 1.9363)
(-1.74642e-05 5.81193e-06 1.8743)
(-2.33806e-05 4.62915e-06 1.73375)
(-2.19741e-05 3.17947e-06 1.50146)
(2.19706e-05 -3.17217e-06 1.50146)
(2.338e-05 -4.62144e-06 1.73375)
(1.74644e-05 -5.80527e-06 1.8743)
(6.29083e-06 -6.28767e-06 1.9363)
(-6.29056e-06 -6.28779e-06 1.9363)
(-1.74643e-05 -5.80562e-06 1.8743)
(-2.33806e-05 -4.62203e-06 1.73375)
(-2.19741e-05 -3.17291e-06 1.50146)
(1.97522e-05 -8.58163e-06 1.44152)
(2.08962e-05 -1.24673e-05 1.66912)
(1.57684e-05 -1.57649e-05 1.80902)
(5.8089e-06 -1.74612e-05 1.8743)
(-5.80879e-06 -1.74613e-05 1.8743)
(-1.57684e-05 -1.57652e-05 1.80902)
(-2.08968e-05 -1.24677e-05 1.66912)
(-1.97556e-05 -8.58221e-06 1.44152)
(1.59782e-05 -1.15677e-05 1.3234)
(1.65697e-05 -1.65664e-05 1.5355)
(1.24711e-05 -2.08931e-05 1.66912)
(4.62562e-06 -2.3377e-05 1.73375)
(-4.6257e-06 -2.33771e-05 1.73375)
(-1.24713e-05 -2.08934e-05 1.66912)
(-1.65703e-05 -1.65669e-05 1.5355)
(-1.59813e-05 -1.15687e-05 1.3234)
(1.14875e-05 -1.1487e-05 1.1511)
(1.15703e-05 -1.59762e-05 1.3234)
(8.58514e-06 -1.975e-05 1.44152)
(3.1761e-06 -2.19684e-05 1.50146)
(-3.1763e-06 -2.19687e-05 1.50146)
(-8.58539e-06 -1.97508e-05 1.44152)
(-1.15711e-05 -1.59778e-05 1.3234)
(-1.14895e-05 -1.1489e-05 1.1511)
(5.80121e-06 5.80154e-06 1.15108)
(5.85479e-06 8.08634e-06 1.32339)
(4.34954e-06 1.00094e-05 1.44152)
(1.60956e-06 1.1141e-05 1.50146)
(-1.6118e-06 1.11413e-05 1.50146)
(-4.35177e-06 1.00103e-05 1.44152)
(-5.85743e-06 8.08795e-06 1.32339)
(-5.80425e-06 5.80389e-06 1.15108)
(8.08385e-06 5.85659e-06 1.32339)
(8.40343e-06 8.40592e-06 1.5355)
(6.33288e-06 1.06135e-05 1.66915)
(2.34968e-06 1.18816e-05 1.73378)
(-2.35176e-06 1.18818e-05 1.73378)
(-6.33501e-06 1.06142e-05 1.66915)
(-8.40599e-06 8.40699e-06 1.5355)
(-8.08809e-06 5.85847e-06 1.32339)
(1.00063e-05 4.35214e-06 1.44152)
(1.06111e-05 6.33574e-06 1.66915)
(8.01659e-06 8.01914e-06 1.80906)
(2.95423e-06 8.88577e-06 1.87436)
(-2.9559e-06 8.8859e-06 1.87436)
(-8.01832e-06 8.01955e-06 1.80906)
(-1.06131e-05 6.33649e-06 1.66915)
(-1.00097e-05 4.35323e-06 1.44152)
(1.11377e-05 1.61243e-06 1.50146)
(1.18792e-05 2.35274e-06 1.73378)
(8.88342e-06 2.95689e-06 1.87436)
(3.20092e-06 3.20324e-06 1.93637)
(-3.20225e-06 3.20333e-06 1.93637)
(-8.88481e-06 2.95721e-06 1.87436)
(-1.18808e-05 2.35336e-06 1.73378)
(-1.11403e-05 1.6133e-06 1.50146)
(1.1138e-05 -1.60896e-06 1.50146)
(1.18794e-05 -2.34872e-06 1.73378)
(8.88356e-06 -2.95324e-06 1.87436)
(3.20102e-06 -3.19992e-06 1.93637)
(-3.20218e-06 -3.19985e-06 1.93637)
(-8.88474e-06 -2.953e-06 1.87436)
(-1.18806e-05 -2.34825e-06 1.73378)
(-1.11399e-05 -1.6083e-06 1.50146)
(1.00071e-05 -4.34908e-06 1.44152)
(1.06116e-05 -6.33205e-06 1.66915)
(8.01701e-06 -8.01566e-06 1.80906)
(2.95455e-06 -8.8824e-06 1.87436)
(-2.95567e-06 -8.88235e-06 1.87436)
(-8.01807e-06 -8.01552e-06 1.80906)
(-1.06126e-05 -6.33175e-06 1.66915)