/*--------------------------------*- C++ -*----------------------------------*\
| =========                 |                                                 |
| \\      /  F ield         | OpenFOAM: The Open Source CFD Toolbox           |
|  \\    /   O peration     | Version:  2406                                  |
|   \\  /    A nd           | Website:  www.openfoam.com                      |
|    \\/     M anipulation  |                                                 |
\*---------------------------------------------------------------------------*/
FoamFile
{
    version     2.0;
    format      ascii;
    arch        "LSB;label=32;scalar=64";
    class       surfaceScalarField;
    location    "8.6";
    object      phi;
}
// * * * * * * * * * * * * * * * * * * * * * * * * * * * * * * * * * * * * * //

dimensions      [0 3 -1 0 0 0 0];

oriented        oriented;

internalField   nonuniform List<scalar> 
46880
(
5.70227e-05
5.70227e-05
9.25627e-05
-6.58089e-05
-6.58089e-05
4.14847e-05
5.85524e-05
0.000107332
-6.81955e-05
2.17749e-05
5.89973e-05
0.000116854
-6.9121e-05
1.75823e-13
5.91027e-05
0.000121561
-6.94051e-05
-2.17749e-05
5.91027e-05
0.000121561
-6.94051e-05
-4.14847e-05
5.89973e-05
0.000116854
-6.9121e-05
-5.70227e-05
5.85524e-05
0.000107332
-6.81955e-05
5.70227e-05
9.25627e-05
-6.58089e-05
-6.58089e-05
5.85524e-05
4.14847e-05
0.000107332
-6.81955e-05
4.20291e-05
4.20291e-05
0.000121733
2.18254e-05
4.20503e-05
0.000130284
1.79125e-13
4.1986e-05
0.000134326
-2.18254e-05
4.1986e-05
0.000134326
-4.20291e-05
4.20503e-05
0.000130284
-5.85524e-05
4.20291e-05
0.000121733
4.14847e-05
0.000107332
-6.81955e-05
5.89973e-05
2.17749e-05
0.000116854
-6.9121e-05
4.20503e-05
2.18254e-05
0.000130284
2.17158e-05
2.17158e-05
0.000137965
1.45895e-13
2.16254e-05
0.00014148
-2.17158e-05
2.16254e-05
0.00014148
-4.20503e-05
2.17158e-05
0.000137965
-5.89973e-05
2.18254e-05
0.000130284
2.17749e-05
0.000116854
-6.9121e-05
5.91027e-05
9.08712e-13
0.000121561
-6.94051e-05
4.1986e-05
1.11708e-12
0.000134326
2.16254e-05
1.09769e-12
0.00014148
1.18879e-13
1.07629e-12
0.000144691
-2.16254e-05
1.04626e-12
0.000144691
-4.1986e-05
1.01315e-12
0.00014148
-5.91027e-05
1.01524e-12
0.000134326
8.33964e-13
0.000121561
-6.94051e-05
5.91027e-05
-2.17749e-05
0.000121561
-6.94051e-05
4.1986e-05
-2.18254e-05
0.000134326
2.16254e-05
-2.17158e-05
0.00014148
8.94106e-14
-2.16254e-05
0.000144691
-2.16254e-05
-2.16254e-05
0.000144691
-4.1986e-05
-2.17158e-05
0.00014148
-5.91027e-05
-2.18254e-05
0.000134326
-2.17749e-05
0.000121561
-6.94051e-05
5.89973e-05
-4.14846e-05
0.000116854
-6.9121e-05
4.20503e-05
-4.20291e-05
0.000130284
2.17158e-05
-4.20503e-05
0.000137965
5.03178e-14
-4.1986e-05
0.00014148
-2.17158e-05
-4.1986e-05
0.00014148
-4.20503e-05
-4.20503e-05
0.000137965
-5.89973e-05
-4.20291e-05
0.000130284
-4.14846e-05
0.000116854
-6.9121e-05
5.85524e-05
-5.70227e-05
0.000107332
-6.81955e-05
4.20291e-05
-5.85524e-05
0.000121733
2.18254e-05
-5.89973e-05
0.000130284
1.34528e-14
-5.91027e-05
0.000134326
-2.18254e-05
-5.91027e-05
0.000134326
-4.20291e-05
-5.89973e-05
0.000130284
-5.85524e-05
-5.85524e-05
0.000121733
-5.70227e-05
0.000107332
-6.81955e-05
5.70227e-05
9.25627e-05
-6.58089e-05
-6.58089e-05
4.14847e-05
0.000107332
-6.81955e-05
2.17749e-05
0.000116854
-6.9121e-05
-1.1096e-14
0.000121561
-6.94051e-05
-2.17749e-05
0.000121561
-6.94051e-05
-4.14847e-05
0.000116854
-6.9121e-05
-5.70227e-05
0.000107332
-6.81955e-05
9.25627e-05
-6.58089e-05
-6.58089e-05
2.12981e-05
2.12981e-05
9.11553e-05
-2.05944e-05
-2.05944e-05
1.7387e-05
2.43165e-05
0.000110076
-2.31488e-05
9.64834e-06
2.60548e-05
0.000123205
-2.46671e-05
1.10865e-13
2.68715e-05
0.000129837
-2.54995e-05
-9.64834e-06
2.68715e-05
0.000129837
-2.54995e-05
-1.7387e-05
2.60548e-05
0.000123205
-2.46671e-05
-2.12981e-05
2.43165e-05
0.000110076
-2.31488e-05
2.12981e-05
9.11553e-05
-2.05944e-05
-2.05944e-05
2.43165e-05
1.7387e-05
0.000110076
-2.31488e-05
1.97648e-05
1.97648e-05
0.000130836
1.0936e-05
2.11179e-05
0.00014405
9.48364e-14
2.17195e-05
0.000150414
-1.0936e-05
2.17195e-05
0.000150414
-1.97648e-05
2.11179e-05
0.00014405
-2.43165e-05
1.97648e-05
0.000130836
1.7387e-05
0.000110076
-2.31488e-05
2.60548e-05
9.64834e-06
0.000123205
-2.46671e-05
2.11179e-05
1.0936e-05
0.00014405
1.1672e-05
1.1672e-05
0.000156857
5.86326e-14
1.19938e-05
0.000162878
-1.1672e-05
1.19938e-05
0.000162878
-2.11179e-05
1.1672e-05
0.000156857
-2.60548e-05
1.0936e-05
0.00014405
9.64834e-06
0.000123205
-2.46671e-05
2.68715e-05
7.84381e-13
0.000129837
-2.54995e-05
2.17195e-05
9.08875e-13
0.000150414
1.19938e-05
8.6755e-13
0.000162878
3.22134e-14
8.47197e-13
0.000168678
-1.19938e-05
8.20716e-13
0.000168678
-2.17195e-05
7.97645e-13
0.000162878
-2.68715e-05
8.28396e-13
0.000150414
7.29688e-13
0.000129837
-2.54995e-05
2.68715e-05
-9.64834e-06
0.000129837
-2.54995e-05
2.17195e-05
-1.0936e-05
0.000150414
1.19938e-05
-1.1672e-05
0.000162878
7.94847e-15
-1.19938e-05
0.000168678
-1.19938e-05
-1.19938e-05
0.000168678
-2.17195e-05
-1.1672e-05
0.000162878
-2.68715e-05
-1.0936e-05
0.000150414
-9.64834e-06
0.000129837
-2.54995e-05
2.60548e-05
-1.7387e-05
0.000123205
-2.46671e-05
2.11179e-05
-1.97648e-05
0.00014405
1.1672e-05
-2.11179e-05
0.000156857
-2.59953e-14
-2.17195e-05
0.000162878
-1.1672e-05
-2.17195e-05
0.000162878
-2.11179e-05
-2.11179e-05
0.000156857
-2.60548e-05
-1.97648e-05
0.00014405
-1.7387e-05
0.000123205
-2.46671e-05
2.43165e-05
-2.12981e-05
0.000110076
-2.31488e-05
1.97648e-05
-2.43165e-05
0.000130836
1.0936e-05
-2.60548e-05
0.00014405
-6.04423e-14
-2.68715e-05
0.000150414
-1.0936e-05
-2.68715e-05
0.000150414
-1.97648e-05
-2.60548e-05
0.00014405
-2.43165e-05
-2.43165e-05
0.000130836
-2.12981e-05
0.000110076
-2.31488e-05
2.12981e-05
9.11553e-05
-2.05944e-05
-2.05944e-05
1.7387e-05
0.000110076
-2.31488e-05
9.64834e-06
0.000123205
-2.46671e-05
-7.81391e-14
0.000129837
-2.54995e-05
-9.64834e-06
0.000129837
-2.54995e-05
-1.7387e-05
0.000123205
-2.46671e-05
-2.12981e-05
0.000110076
-2.31488e-05
9.11553e-05
-2.05944e-05
-2.05944e-05
1.18127e-05
1.18127e-05
8.91259e-05
-1.0798e-05
-1.0798e-05
9.90265e-06
1.43956e-05
0.000110627
-1.30364e-05
5.62154e-06
1.59718e-05
0.000125963
-1.44489e-05
1.90354e-13
1.67467e-05
0.000133897
-1.51853e-05
-5.62154e-06
1.67467e-05
0.000133897
-1.51853e-05
-9.90265e-06
1.59718e-05
0.000125963
-1.44489e-05
-1.18127e-05
1.43956e-05
0.000110627
-1.30364e-05
1.18127e-05
8.91259e-05
-1.0798e-05
-1.0798e-05
1.43956e-05
9.90265e-06
0.000110627
-1.30364e-05
1.20477e-05
1.20477e-05
0.000135532
6.80902e-06
1.33212e-05
0.000151939
1.44133e-13
1.39201e-05
0.00016005
-6.80902e-06
1.39201e-05
0.00016005
-1.20477e-05
1.33212e-05
0.000151939
-1.43956e-05
1.20477e-05
0.000135532
9.90265e-06
0.000110627
-1.30364e-05
1.59718e-05
5.62155e-06
0.000125963
-1.44489e-05
1.33212e-05
6.80902e-06
0.000151939
7.49972e-06
7.49972e-06
0.0001685
7.67921e-14
7.81056e-06
0.000176487
-7.49972e-06
7.81056e-06
0.000176487
-1.33212e-05
7.49972e-06
0.0001685
-1.59718e-05
6.80902e-06
0.000151939
5.62155e-06
0.000125963
-1.44489e-05
1.67467e-05
9.30987e-13
0.000133897
-1.51853e-05
1.39201e-05
1.00993e-12
0.00016005
7.81056e-06
8.86603e-13
0.000176487
3.29739e-14
8.09814e-13
0.000184299
-7.81056e-06
7.74476e-13
0.000184299
-1.39201e-05
7.83311e-13
0.000176487
-1.67467e-05
8.64041e-13
0.00016005
7.88702e-13
0.000133897
-1.51853e-05
1.67467e-05
-5.62154e-06
0.000133897
-1.51853e-05
1.39201e-05
-6.80902e-06
0.00016005
7.81056e-06
-7.49972e-06
0.000176487
-2.65778e-16
-7.81055e-06
0.000184299
-7.81056e-06
-7.81055e-06
0.000184299
-1.39201e-05
-7.49972e-06
0.000176487
-1.67467e-05
-6.80902e-06
0.00016005
-5.62154e-06
0.000133897
-1.51853e-05
1.59718e-05
-9.90265e-06
0.000125963
-1.44489e-05
1.33212e-05
-1.20476e-05
0.000151939
7.49972e-06
-1.33212e-05
0.0001685
-3.95604e-14
-1.39201e-05
0.000176487
-7.49972e-06
-1.39201e-05
0.000176487
-1.33212e-05
-1.33212e-05
0.0001685
-1.59718e-05
-1.20476e-05
0.000151939
-9.90265e-06
0.000125963
-1.44489e-05
1.43956e-05
-1.18127e-05
0.000110627
-1.30364e-05
1.20477e-05
-1.43956e-05
0.000135532
6.80902e-06
-1.59718e-05
0.000151939
-7.75887e-14
-1.67467e-05
0.00016005
-6.80902e-06
-1.67467e-05
0.00016005
-1.20477e-05
-1.59718e-05
0.000151939
-1.43956e-05
-1.43956e-05
0.000135532
-1.18127e-05
0.000110627
-1.30364e-05
1.18127e-05
8.91259e-05
-1.0798e-05
-1.0798e-05
9.90265e-06
0.000110627
-1.30364e-05
5.62154e-06
0.000125963
-1.44489e-05
-9.52089e-14
0.000133897
-1.51853e-05
-5.62154e-06
0.000133897
-1.51853e-05
-9.90265e-06
0.000125963
-1.44489e-05
-1.18127e-05
0.000110627
-1.30364e-05
8.91259e-05
-1.0798e-05
-1.0798e-05
2.98521e-06
2.98521e-06
8.73785e-05
-2.11152e-06
-2.11152e-06
2.93654e-06
4.20871e-06
0.000109321
-2.85467e-06
1.80601e-06
5.10333e-06
0.000125443
-3.45295e-06
3.55584e-14
5.56796e-06
0.000133927
-3.79171e-06
-1.80601e-06
5.56796e-06
0.000133927
-3.79171e-06
-2.93654e-06
5.10333e-06
0.000125443
-3.45295e-06
-2.98521e-06
4.20871e-06
0.000109321
-2.85467e-06
2.98521e-06
8.73785e-05
-2.11152e-06
-2.11152e-06
4.20871e-06
2.93654e-06
0.000109321
-2.85467e-06
4.13753e-06
4.13753e-06
0.000135674
2.52404e-06
4.95623e-06
0.000153699
8.3985e-15
5.34154e-06
0.0001628
-2.52404e-06
5.34154e-06
0.0001628
-4.13753e-06
4.95623e-06
0.000153699
-4.20871e-06
4.13753e-06
0.000135674
2.93654e-06
0.000109321
-2.85467e-06
5.10333e-06
1.80601e-06
0.000125443
-3.45295e-06
4.95623e-06
2.52404e-06
0.000153699
2.98743e-06
2.98743e-06
0.000172437
-3.02543e-14
3.17437e-06
0.000181642
-2.98743e-06
3.17437e-06
0.000181642
-4.95623e-06
2.98743e-06
0.000172437
-5.10333e-06
2.52404e-06
0.000153699
1.80601e-06
0.000125443
-3.45295e-06
5.56796e-06
9.01057e-13
0.000133927
-3.79171e-06
5.34154e-06
1.01492e-12
0.0001628
3.17437e-06
8.96362e-13
0.000181642
-6.13689e-14
7.94322e-13
0.000190648
-3.17437e-06
7.71393e-13
0.000190648
-5.34154e-06
8.31064e-13
0.000181642
-5.56796e-06
9.41183e-13
0.0001628
8.6355e-13
0.000133927
-3.79171e-06
5.56796e-06
-1.80601e-06
0.000133927
-3.79171e-06
5.34154e-06
-2.52404e-06
0.0001628
3.17437e-06
-2.98743e-06
0.000181642
-8.43413e-14
-3.17437e-06
0.000190648
-3.17437e-06
-3.17437e-06
0.000190648
-5.34154e-06
-2.98743e-06
0.000181642
-5.56796e-06
-2.52404e-06
0.0001628
-1.80601e-06
0.000133927
-3.79171e-06
5.10333e-06
-2.93654e-06
0.000125443
-3.45295e-06
4.95623e-06
-4.13753e-06
0.000153699
2.98743e-06
-4.95623e-06
0.000172437
-1.10234e-13
-5.34154e-06
0.000181642
-2.98743e-06
-5.34154e-06
0.000181642
-4.95623e-06
-4.95623e-06
0.000172437
-5.10333e-06
-4.13753e-06
0.000153699
-2.93654e-06
0.000125443
-3.45295e-06
4.20871e-06
-2.98521e-06
0.000109321
-2.85467e-06
4.13753e-06
-4.20871e-06
0.000135674
2.52404e-06
-5.10333e-06
0.000153699
-1.44638e-13
-5.56796e-06
0.0001628
-2.52404e-06
-5.56796e-06
0.0001628
-4.13753e-06
-5.10333e-06
0.000153699
-4.20871e-06
-4.20871e-06
0.000135674
-2.98521e-06
0.000109321
-2.85467e-06
2.98521e-06
8.73785e-05
-2.11152e-06
-2.11152e-06
2.93654e-06
0.000109321
-2.85467e-06
1.80601e-06
0.000125443
-3.45295e-06
-1.57066e-13
0.000133927
-3.79171e-06
-1.80601e-06
0.000133927
-3.79171e-06
-2.93654e-06
0.000125443
-3.45295e-06
-2.98521e-06
0.000109321
-2.85467e-06
8.73785e-05
-2.11152e-06
-2.11152e-06
1.75855e-06
1.75855e-06
8.68359e-05
-1.48727e-06
-1.48727e-06
1.58507e-06
2.31764e-06
0.000109058
-1.88066e-06
9.44341e-07
2.7317e-06
0.000125519
-2.1672e-06
2.81684e-13
2.94525e-06
0.000134245
-2.31887e-06
-9.44341e-07
2.94525e-06
0.000134245
-2.31887e-06
-1.58507e-06
2.7317e-06
0.000125519
-2.1672e-06
-1.75855e-06
2.31764e-06
0.000109058
-1.88066e-06
1.75855e-06
8.68359e-05
-1.48727e-06
-1.48727e-06
2.31764e-06
1.58508e-06
0.000109058
-1.88066e-06
2.13339e-06
2.13339e-06
0.000136043
1.27625e-06
2.52942e-06
0.000154759
2.30204e-13
2.71285e-06
0.000164309
-1.27625e-06
2.71285e-06
0.000164309
-2.13338e-06
2.52942e-06
0.000154759
-2.31764e-06
2.13339e-06
0.000136043
1.58507e-06
0.000109058
-1.88066e-06
2.7317e-06
9.44342e-07
0.000125519
-2.1672e-06
2.52941e-06
1.27625e-06
0.000154759
1.50567e-06
1.50567e-06
0.000174485
1.39574e-13
1.58998e-06
0.00018427
-1.50567e-06
1.58998e-06
0.00018427
-2.52941e-06
1.50567e-06
0.000174485
-2.7317e-06
1.27625e-06
0.000154759
9.44342e-07
0.000125519
-2.1672e-06
2.94525e-06
1.1746e-12
0.000134245
-2.31887e-06
2.71285e-06
1.28957e-12
0.000164309
1.58997e-06
1.11722e-12
0.00018427
7.26172e-14
9.54401e-13
0.000193828
-1.58997e-06
9.15205e-13
0.000193828
-2.71285e-06
9.9664e-13
0.00018427
-2.94525e-06
1.1152e-12
0.000164309
1.00417e-12
0.000134245
-2.31887e-06
2.94525e-06
-9.4434e-07
0.000134245
-2.31887e-06
2.71285e-06
-1.27624e-06
0.000164309
1.58997e-06
-1.50567e-06
0.00018427
3.44656e-14
-1.58997e-06
0.000193828
-1.58997e-06
-1.58997e-06
0.000193828
-2.71285e-06
-1.50567e-06
0.00018427
-2.94525e-06
-1.27624e-06
0.000164309
-9.4434e-07
0.000134245
-2.31887e-06
2.7317e-06
-1.58507e-06
0.000125519
-2.1672e-06
2.52941e-06
-2.13338e-06
0.000154759
1.50567e-06
-2.52941e-06
0.000174485
6.06511e-15
-2.71285e-06
0.00018427
-1.50567e-06
-2.71285e-06
0.00018427
-2.52941e-06
-2.52941e-06
0.000174485
-2.7317e-06
-2.13338e-06
0.000154759
-1.58507e-06
0.000125519
-2.1672e-06
2.31764e-06
-1.75855e-06
0.000109058
-1.88066e-06
2.13338e-06
-2.31763e-06
0.000136043
1.27625e-06
-2.7317e-06
0.000154759
-2.31024e-14
-2.94525e-06
0.000164309
-1.27625e-06
-2.94525e-06
0.000164309
-2.13339e-06
-2.7317e-06
0.000154759
-2.31764e-06
-2.31763e-06
0.000136043
-1.75855e-06
0.000109058
-1.88066e-06
1.75855e-06
8.68359e-05
-1.48727e-06
-1.48727e-06
1.58507e-06
0.000109058
-1.88066e-06
9.44341e-07
0.000125519
-2.1672e-06
-4.37828e-14
0.000134245
-2.31887e-06
-9.44341e-07
0.000134245
-2.31887e-06
-1.58507e-06
0.000125519
-2.1672e-06
-1.75855e-06
0.000109058
-1.88066e-06
8.68359e-05
-1.48727e-06
-1.48727e-06
6.09094e-07
6.09095e-07
8.65409e-05
-4.61558e-07
-4.61558e-07
5.88221e-07
8.41815e-07
0.000108839
-6.01562e-07
3.62056e-07
1.02624e-06
0.000125434
-7.14691e-07
-1.66088e-14
1.12581e-06
0.00013426
-7.78511e-07
-3.62056e-07
1.12581e-06
0.00013426
-7.78511e-07
-5.88221e-07
1.02624e-06
0.000125434
-7.14691e-07
-6.09094e-07
8.41815e-07
0.000108839
-6.01562e-07
6.09094e-07
8.65409e-05
-4.61559e-07
-4.61558e-07
8.41814e-07
5.88222e-07
0.000108839
-6.01562e-07
8.30744e-07
8.30745e-07
0.000136065
5.13706e-07
1.01887e-06
0.000155083
-3.69019e-14
1.11174e-06
0.000164837
-5.13707e-07
1.11174e-06
0.000164837
-8.30744e-07
1.01887e-06
0.000155083
-8.41815e-07
8.30745e-07
0.000136065
5.88222e-07
0.000108839
-6.01563e-07
1.02624e-06
3.62058e-07
0.000125434
-7.1469e-07
1.01887e-06
5.13708e-07
0.000155083
6.28552e-07
6.28553e-07
0.000175266
-6.88852e-14
6.77036e-07
0.000185334
-6.28552e-07
6.77036e-07
0.000185334
-1.01887e-06
6.28553e-07
0.000175266
-1.02624e-06
5.13708e-07
0.000155083
3.62058e-07
0.000125434
-7.14692e-07
1.12581e-06
1.2101e-12
0.00013426
-7.7851e-07
1.11173e-06
1.3836e-12
0.000164837
6.77035e-07
1.24783e-12
0.000185334
-8.91768e-14
1.10866e-12
0.000195182
-6.77035e-07
1.0931e-12
0.000195182
-1.11173e-06
1.21109e-12
0.000185334
-1.12581e-06
1.35944e-12
0.000164837
1.2366e-12
0.00013426
-7.78511e-07
1.12581e-06
-3.62055e-07
0.00013426
-7.7851e-07
1.11173e-06
-5.13705e-07
0.000164837
6.77035e-07
-6.28551e-07
0.000185334
-1.04417e-13
-6.77034e-07
0.000195182
-6.77035e-07
-6.77034e-07
0.000195182
-1.11173e-06
-6.28551e-07
0.000185334
-1.12581e-06
-5.13705e-07
0.000164837
-3.62055e-07
0.00013426
-7.78511e-07
1.02624e-06
-5.8822e-07
0.000125434
-7.1469e-07
1.01887e-06
-8.30743e-07
0.000155083
6.28552e-07
-1.01887e-06
0.000175266
-1.19985e-13
-1.11173e-06
0.000185334
-6.28552e-07
-1.11173e-06
0.000185334
-1.01887e-06
-1.01887e-06
0.000175266
-1.02624e-06
-8.30743e-07
0.000155083
-5.8822e-07
0.000125434
-7.14691e-07
8.41814e-07
-6.09093e-07
0.000108839
-6.01562e-07
8.30744e-07
-8.41813e-07
0.000136065
5.13706e-07
-1.02624e-06
0.000155083
-1.41269e-13
-1.12581e-06
0.000164837
-5.13707e-07
-1.12581e-06
0.000164837
-8.30745e-07
-1.02624e-06
0.000155083
-8.41814e-07
-8.41813e-07
0.000136065
-6.09093e-07
0.000108839
-6.01563e-07
6.09094e-07
8.65409e-05
-4.61558e-07
-4.61558e-07
5.88221e-07
0.000108839
-6.01562e-07
3.62056e-07
0.000125434
-7.1469e-07
-1.46906e-13
0.00013426
-7.7851e-07
-3.62057e-07
0.00013426
-7.7851e-07
-5.88221e-07
0.000125434
-7.1469e-07
-6.09094e-07
0.000108839
-6.01562e-07
8.65409e-05
-4.61558e-07
-4.61558e-07
3.37042e-07
3.37043e-07
8.64326e-05
-2.8288e-07
-2.8288e-07
3.05727e-07
4.42556e-07
0.000108783
-3.55841e-07
1.82771e-07
5.24016e-07
0.000125443
-4.10568e-07
2.36037e-13
5.67997e-07
0.000134315
-4.40394e-07
-1.8277e-07
5.67997e-07
0.000134315
-4.40394e-07
-3.05727e-07
5.24016e-07
0.000125443
-4.10568e-07
-3.37042e-07
4.42555e-07
0.000108783
-3.5584e-07
3.37043e-07
8.64326e-05
-2.82881e-07
-2.8288e-07
4.42554e-07
3.05729e-07
0.000108783
-3.5584e-07
4.11361e-07
4.11363e-07
0.000136127
2.48164e-07
4.93895e-07
0.000155277
1.91264e-13
5.35806e-07
0.000165117
-2.48164e-07
5.35806e-07
0.000165117
-4.11361e-07
4.93894e-07
0.000155277
-4.42554e-07
4.11362e-07
0.000136127
3.05729e-07
0.000108783
-3.55841e-07
5.24015e-07
1.82772e-07
0.000125443
-4.10567e-07
4.93893e-07
2.48166e-07
0.000155277
2.99349e-07
2.9935e-07
0.000175655
1.07569e-13
3.22832e-07
0.000185846
-2.99349e-07
3.22832e-07
0.000185846
-4.93893e-07
2.9935e-07
0.000175655
-5.24015e-07
2.48165e-07
0.000155277
1.82772e-07
0.000125443
-4.10568e-07
5.67996e-07
1.71961e-12
0.000134315
-4.40393e-07
5.35805e-07
1.8923e-12
0.000165117
3.22831e-07
1.66705e-12
0.000185846
4.60946e-14
1.45043e-12
0.000195828
-3.22831e-07
1.40673e-12
0.000195828
-5.35805e-07
1.54211e-12
0.000185846
-5.67996e-07
1.69945e-12
0.000165117
1.5215e-12
0.000134315
-4.40394e-07
5.67996e-07
-1.82769e-07
0.000134315
-4.40393e-07
5.35805e-07
-2.48162e-07
0.000165117
3.22831e-07
-2.99347e-07
0.000185846
5.44768e-15
-3.22829e-07
0.000195828
-3.22831e-07
-3.22829e-07
0.000195828
-5.35805e-07
-2.99347e-07
0.000185846
-5.67996e-07
-2.48162e-07
0.000165117
-1.82769e-07
0.000134315
-4.40394e-07
5.24015e-07
-3.05726e-07
0.000125443
-4.10567e-07
4.93893e-07
-4.11359e-07
0.000155277
2.99349e-07
-4.93891e-07
0.000175655
-2.75332e-14
-5.35803e-07
0.000185846
-2.99349e-07
-5.35803e-07
0.000185846
-4.93893e-07
-4.93892e-07
0.000175655
-5.24015e-07
-4.11359e-07
0.000155277
-3.05726e-07
0.000125443
-4.10568e-07
4.42554e-07
-3.3704e-07
0.000108783
-3.5584e-07
4.11361e-07
-4.42552e-07
0.000136127
2.48164e-07
-5.24013e-07
0.000155277
-6.86627e-14
-5.67994e-07
0.000165117
-2.48164e-07
-5.67994e-07
0.000165117
-4.11361e-07
-5.24014e-07
0.000155277
-4.42554e-07
-4.42553e-07
0.000136127
-3.37041e-07
0.000108783
-3.5584e-07
3.37042e-07
8.64326e-05
-2.8288e-07
-2.82879e-07
3.05727e-07
0.000108783
-3.55839e-07
1.8277e-07
0.000125443
-4.10567e-07
-8.58509e-14
0.000134315
-4.40393e-07
-1.8277e-07
0.000134315
-4.40393e-07
-3.05727e-07
0.000125443
-4.10567e-07
-3.37042e-07
0.000108783
-3.5584e-07
8.64326e-05
-2.8288e-07
-2.8288e-07
1.51348e-07
1.5135e-07
8.63735e-05
-1.21836e-07
-1.21836e-07
1.40339e-07
2.02145e-07
0.000108747
-1.55427e-07
8.45678e-08
2.41371e-07
0.000125439
-1.81513e-07
-9.68864e-14
2.62704e-07
0.000134333
-1.96085e-07
-8.4568e-08
2.62704e-07
0.000134333
-1.96085e-07
-1.4034e-07
2.41371e-07
0.000125439
-1.81513e-07
-1.51349e-07
2.02145e-07
0.000108747
-1.55427e-07
1.5135e-07
8.63735e-05
-1.21837e-07
-1.21836e-07
2.02143e-07
1.40341e-07
0.000108747
-1.55425e-07
1.91011e-07
1.91013e-07
0.00013615
1.15755e-07
2.30229e-07
0.000155363
-9.01398e-14
2.50411e-07
0.000165245
-1.15755e-07
2.50411e-07
0.000165245
-1.91011e-07
2.30229e-07
0.000155363
-2.02144e-07
1.91013e-07
0.00013615
1.40341e-07
0.000108747
-1.55427e-07
2.41369e-07
8.45697e-08
0.000125439
-1.81511e-07
2.30227e-07
1.15757e-07
0.000155363
1.40054e-07
1.40056e-07
0.000175835
-9.63307e-14
1.51654e-07
0.000186085
-1.40054e-07
1.51654e-07
0.000186085
-2.30228e-07
1.40056e-07
0.000175835
-2.4137e-07
1.15757e-07
0.000155363
8.45698e-08
0.000125439
-1.81513e-07
2.62702e-07
1.65302e-12
0.000134333
-1.96083e-07
2.50409e-07
1.88306e-12
0.000165245
1.51653e-07
1.70864e-12
0.000186085
-9.93186e-14
1.53253e-12
0.000196131
-1.51653e-07
1.51908e-12
0.000196131
-2.50409e-07
1.69029e-12
0.000186085
-2.62703e-07
1.87981e-12
0.000165245
1.70169e-12
0.000134333
-1.96084e-07
2.62702e-07
-8.45665e-08
0.000134333
-1.96083e-07
2.50409e-07
-1.15754e-07
0.000165245
1.51653e-07
-1.40052e-07
0.000186085
-1.11966e-13
-1.51651e-07
0.000196131
-1.51653e-07
-1.51651e-07
0.000196131
-2.50409e-07
-1.40052e-07
0.000186085
-2.62703e-07
-1.15754e-07
0.000165245
-8.45664e-08
0.000134333
-1.96084e-07
2.41369e-07
-1.40338e-07
0.000125439
-1.81511e-07
2.30228e-07
-1.9101e-07
0.000155363
1.40054e-07
-2.30226e-07
0.000175835
-1.26198e-13
-2.50407e-07
0.000186085
-1.40054e-07
-2.50407e-07
0.000186085
-2.30228e-07
-2.30226e-07
0.000175835
-2.4137e-07
-1.9101e-07
0.000155363
-1.40338e-07
0.000125439
-1.81512e-07
2.02144e-07
-1.51347e-07
0.000108747
-1.55426e-07
1.91011e-07
-2.02142e-07
0.00013615
1.15755e-07
-2.41368e-07
0.000155363
-1.56328e-13
-2.62701e-07
0.000165245
-1.15756e-07
-2.62701e-07
0.000165245
-1.91012e-07
-2.41368e-07
0.000155363
-2.02144e-07
-2.02143e-07
0.00013615
-1.51348e-07
0.000108747
-1.55426e-07
1.51348e-07
8.63735e-05
-1.21836e-07
-1.21836e-07
1.4034e-07
0.000108747
-1.55425e-07
8.45679e-08
0.000125439
-1.81511e-07
-1.64917e-13
0.000134333
-1.96083e-07
-8.45683e-08
0.000134333
-1.96083e-07
-1.4034e-07
0.000125439
-1.81511e-07
-1.51349e-07
0.000108747
-1.55426e-07
8.63735e-05
-1.21836e-07
-1.21836e-07
7.90331e-08
7.90344e-08
8.63467e-05
-6.56223e-08
-6.56224e-08
7.18496e-08
1.04054e-07
0.000108733
-8.28794e-08
4.28782e-08
1.23074e-07
0.000125441
-9.59203e-08
5.67693e-13
1.3333e-07
0.000134345
-1.03102e-07
-4.28771e-08
1.3333e-07
0.000134345
-1.03101e-07
-7.18488e-08
1.23073e-07
0.000125441
-9.59199e-08
-7.90326e-08
1.04053e-07
0.000108733
-8.28787e-08
7.90338e-08
8.63467e-05
-6.56223e-08
-6.56222e-08
1.04052e-07
7.18513e-08
0.000108733
-8.2878e-08
9.6421e-08
9.64231e-08
0.000136165
5.78784e-08
1.15181e-07
0.000155409
5.22483e-13
1.24754e-07
0.000165311
-5.78774e-08
1.24754e-07
0.000165311
-9.64204e-08
1.15181e-07
0.000155409
-1.04051e-07
9.64225e-08
0.000136165
7.18507e-08
0.000108733
-8.28789e-08
1.23072e-07
4.28799e-08
0.000125441
-9.59188e-08
1.15179e-07
5.78804e-08
0.000155409
6.94189e-08
6.94207e-08
0.000175927
3.81414e-13
7.49052e-08
0.000186204
-6.94182e-08
7.49051e-08
0.000186204
-1.15179e-07
6.94205e-08
0.000175927
-1.23072e-07
5.788e-08
0.000155409
4.28794e-08
0.000125441
-9.59198e-08
1.33328e-07
2.18064e-12
0.000134345
-1.031e-07
1.24752e-07
2.38428e-12
0.000165311
7.49036e-08
2.09253e-12
0.000186204
2.68015e-13
1.81246e-12
0.000196281
-7.49031e-08
1.7435e-12
0.000196281
-1.24752e-07
1.88106e-12
0.000186204
-1.33328e-07
2.04816e-12
0.000165311
1.81055e-12
0.000134345
-1.03101e-07
1.33328e-07
-4.28756e-08
0.000134345
-1.031e-07
1.24752e-07
-5.78757e-08
0.000165311
7.49035e-08
-6.94166e-08
0.000186204
2.00196e-13
-7.49016e-08
0.000196281
-7.49032e-08
-7.49016e-08
0.000196281
-1.24752e-07
-6.94168e-08
0.000186204
-1.33329e-07
-5.7876e-08
0.000165311
-4.28758e-08
0.000134345
-1.03101e-07
1.23072e-07
-7.18474e-08
0.000125441
-9.59188e-08
1.15179e-07
-9.64187e-08
0.000155409
6.94188e-08
-1.15177e-07
0.000175927
1.58264e-13
-1.2475e-07
0.000186204
-6.94185e-08
-1.2475e-07
0.000186204
-1.15179e-07
-1.15177e-07
0.000175927
-1.23072e-07
-9.64189e-08
0.000155409
-7.18475e-08
0.000125441
-9.59198e-08
1.04051e-07
-7.90313e-08
0.000108733
-8.28777e-08
9.64209e-08
-1.0405e-07
0.000136165
5.78781e-08
-1.2307e-07
0.000155409
1.19892e-13
-1.33327e-07
0.000165311
-5.78779e-08
-1.33327e-07
0.000165311
-9.64207e-08
-1.2307e-07
0.000155409
-1.04051e-07
-1.0405e-07
0.000136165
-7.90313e-08
0.000108733
-8.28785e-08
7.90326e-08
8.63467e-05
-6.56214e-08
-6.5621e-08
7.18493e-08
0.000108733
-8.28772e-08
4.28778e-08
0.000125441
-9.59183e-08
7.3005e-14
0.000134345
-1.031e-07
-4.28777e-08
0.000134345
-1.031e-07
-7.18492e-08
0.000125441
-9.59185e-08
-7.90324e-08
0.000108733
-8.28777e-08
8.63467e-05
-6.56214e-08
-6.56217e-08
3.80807e-08
3.80824e-08
8.63326e-05
-3.10248e-08
-3.10246e-08
3.50233e-08
5.06166e-08
0.000108725
-3.94624e-08
2.1008e-08
6.01986e-08
0.000125441
-4.59522e-08
2.98123e-13
6.5371e-08
0.00013435
-4.95575e-08
-2.10074e-08
6.53709e-08
0.00013435
-4.95574e-08
-3.50229e-08
6.01984e-08
0.000125441
-4.59518e-08
-3.80806e-08
5.06162e-08
0.000108725
-3.94618e-08
3.8082e-08
8.63326e-05
-3.1025e-08
-3.10244e-08
5.06143e-08
3.50254e-08
0.000108725
-3.94606e-08
4.73937e-08
4.73961e-08
0.000136171
2.85616e-08
5.68265e-08
0.000155432
2.75236e-13
6.16251e-08
0.000165344
-2.85611e-08
6.16251e-08
0.000165344
-4.73934e-08
5.68263e-08
0.000155432
-5.06144e-08
4.73958e-08
0.000136171
3.50251e-08
0.000108725
-3.94615e-08
6.01963e-08
2.10099e-08
0.000125441
-4.595e-08
5.68242e-08
2.85638e-08
0.000155432
3.43453e-08
3.43474e-08
0.000175971
1.73165e-13
3.70868e-08
0.000186263
-3.4345e-08
3.70868e-08
0.000186263
-5.68241e-08
3.43472e-08
0.000175971
-6.01964e-08
2.85636e-08
0.000155432
2.10098e-08
0.000125441
-4.59508e-08
6.53687e-08
2.00146e-12
0.00013435
-4.95554e-08
6.16231e-08
2.24775e-12
0.000165344
3.7085e-08
2.01205e-12
0.000186263
9.94953e-14
1.77841e-12
0.000196355
-3.70848e-08
1.73234e-12
0.000196355
-6.1623e-08
1.88967e-12
0.000186263
-6.53688e-08
2.06937e-12
0.000165344
1.8509e-12
0.00013435
-4.95561e-08
6.53688e-08
-2.1006e-08
0.00013435
-4.95555e-08
6.16231e-08
-2.85594e-08
0.000165344
3.7085e-08
-3.43434e-08
0.000186263
5.37893e-14
-3.70833e-08
0.000196355
-3.70849e-08
-3.70833e-08
0.000196355
-6.16231e-08
-3.43435e-08
0.000186263
-6.53689e-08
-2.85596e-08
0.000165344
-2.10062e-08
0.00013435
-4.95561e-08
6.01965e-08
-3.50217e-08
0.000125441
-4.59502e-08
5.68244e-08
-4.73919e-08
0.000155432
3.43453e-08
-5.68226e-08
0.000175971
3.08547e-14
-6.16215e-08
0.000186263
-3.43453e-08
-6.16216e-08
0.000186263
-5.68244e-08
-5.68228e-08
0.000175971
-6.01965e-08
-4.73921e-08
0.000155432
-3.50219e-08
0.000125441
-4.59507e-08
5.06145e-08
-3.80794e-08
0.000108725
-3.94606e-08
4.73938e-08
-5.06129e-08
0.000136171
2.85615e-08
-6.01951e-08
0.000155432
8.6878e-15
-6.53676e-08
0.000165344
-2.85615e-08
-6.53676e-08
0.000165344
-4.73938e-08
-6.01953e-08
0.000155432
-5.06144e-08
-5.06132e-08
0.000136171
-3.80797e-08
0.000108725
-3.9461e-08
3.80806e-08
8.63326e-05
-3.10237e-08
-3.10236e-08
3.50233e-08
0.000108725
-3.94601e-08
2.10079e-08
0.000125441
-4.59497e-08
-2.56791e-14
0.00013435
-4.95551e-08
-2.10079e-08
0.00013435
-4.95552e-08
-3.50234e-08
0.000125441
-4.595e-08
-3.80805e-08
0.000108725
-3.94605e-08
8.63326e-05
-3.10241e-08
-3.10239e-08
1.96296e-08
1.96311e-08
8.63257e-05
-1.6166e-08
-1.61661e-08
1.79429e-08
2.59691e-08
0.000108722
-2.04875e-08
1.07363e-08
3.08014e-08
0.000125441
-2.3779e-08
8.87631e-13
3.3404e-08
0.000134353
-2.55968e-08
-1.07346e-08
3.34038e-08
0.000134353
-2.55966e-08
-1.79416e-08
3.08007e-08
0.000125441
-2.37783e-08
-1.96286e-08
2.5968e-08
0.000108722
-2.04863e-08
1.963e-08
8.63257e-05
-1.61656e-08
-1.61654e-08
2.59669e-08
1.79447e-08
0.000108722
-2.04858e-08
2.41868e-08
2.4189e-08
0.000136175
1.45478e-08
2.89464e-08
0.000155443
7.78879e-13
3.13604e-08
0.00016536
-1.45464e-08
3.13602e-08
0.00016536
-2.41857e-08
2.89459e-08
0.000155443
-2.59663e-08
2.41882e-08
0.000136175
1.79438e-08
0.000108722
-2.04863e-08
3.07992e-08
1.0738e-08
0.000125441
-2.37771e-08
2.89444e-08
1.45498e-08
0.000155443
1.74636e-08
1.74655e-08
0.000175994
5.3486e-13
1.88401e-08
0.000186293
-1.74626e-08
1.884e-08
0.000186293
-2.89437e-08
1.74651e-08
0.000175994
-3.07989e-08
1.45491e-08
0.000155443
1.07372e-08
0.000125441
-2.37778e-08
3.3402e-08
2.42341e-12
0.000134353
-2.5595e-08
3.13585e-08
2.58743e-12
0.00016536
1.88384e-08
2.21384e-12
0.000186293
3.515e-13
1.87009e-12
0.000196393
-1.88378e-08
1.76264e-12
0.000196393
-3.13581e-08
1.88017e-12
0.000186293
-3.34019e-08
2.02521e-12
0.00016536
1.77705e-12
0.000134353
-2.55958e-08
3.3402e-08
-1.07332e-08
0.000134353
-2.55949e-08
3.13585e-08
-1.45447e-08
0.00016536
1.88383e-08
-1.74611e-08
0.000186293
2.44472e-13
-1.88363e-08
0.000196393
-1.88379e-08
-1.88364e-08
0.000196393
-3.13582e-08
-1.74614e-08
0.000186293
-3.34019e-08
-1.45452e-08
0.00016536
-1.07337e-08
0.000134353
-2.55959e-08
3.07991e-08
-1.79403e-08
0.000125441
-2.37769e-08
2.89443e-08
-2.41842e-08
0.000155443
1.74634e-08
-2.89422e-08
0.000175994
1.8369e-13
-3.13566e-08
0.000186293
-1.74631e-08
-3.13566e-08
0.000186293
-2.89441e-08
-2.89424e-08
0.000175994
-3.07991e-08
-2.41845e-08
0.000155443
-1.79406e-08
0.000125441
-2.37779e-08
2.59665e-08
-1.96275e-08
0.000108722
-2.04852e-08
2.41865e-08
-2.59647e-08
0.000136175
1.45473e-08
-3.07974e-08
0.000155443
1.29968e-13
-3.34004e-08
0.00016536
-1.45471e-08
-3.34005e-08
0.00016536
-2.41863e-08
-3.07976e-08
0.000155443
-2.59665e-08
-2.59651e-08
0.000136175
-1.96276e-08
0.000108722
-2.04859e-08
1.96288e-08
8.63257e-05
-1.61648e-08
-1.61643e-08
1.79423e-08
0.000108722
-2.04847e-08
1.07356e-08
0.000125441
-2.37764e-08
7.38884e-14
0.000134353
-2.55944e-08
-1.07354e-08
0.000134353
-2.55945e-08
-1.79422e-08
0.000125441
-2.37766e-08
-1.96286e-08
0.000108722
-2.04852e-08
8.63257e-05
-1.61647e-08
-1.6165e-08
9.77404e-09
9.7753e-09
8.63221e-05
-7.98462e-09
-7.98436e-09
8.98189e-09
1.29826e-08
0.00010872
-1.01455e-08
5.38866e-09
1.54378e-08
0.000125441
-1.18031e-08
-2.23472e-14
1.67631e-08
0.000134355
-1.27221e-08
-5.38869e-09
1.67631e-08
0.000134355
-1.2722e-08
-8.982e-09
1.54377e-08
0.000125441
-1.1803e-08
-9.77423e-09
1.29825e-08
0.00010872
-1.01453e-08
9.77528e-09
8.63221e-05
-7.98501e-09
-7.98448e-09
1.29808e-08
8.98366e-09
0.00010872
-1.01442e-08
1.21562e-08
1.21583e-08
0.000136177
7.33093e-09
1.45846e-08
0.000155449
-3.25057e-14
1.58187e-08
0.000165369
-7.33104e-09
1.58186e-08
0.000165369
-1.21565e-08
1.45845e-08
0.000155449
-1.29812e-08
1.21582e-08
0.000136177
8.98364e-09
0.00010872
-1.01452e-08
1.54359e-08
5.39047e-09
0.000125441
-1.18015e-08
1.45827e-08
7.33294e-09
0.000155449
8.82139e-09
8.82322e-09
0.000176006
-8.09627e-14
9.52817e-09
0.000186308
-8.82157e-09
9.52816e-09
0.000186308
-1.4583e-08
8.82315e-09
0.000176006
-1.54363e-08