/*--------------------------------*- C++ -*----------------------------------*\
| =========                 |                                                 |
| \\      /  F ield         | OpenFOAM: The Open Source CFD Toolbox           |
|  \\    /   O peration     | Version:  2406                                  |
|   \\  /    A nd           | Website:  www.openfoam.com                      |
|    \\/     M anipulation  |                                                 |
\*---------------------------------------------------------------------------*/
FoamFile
{
    version     2.0;
    format      ascii;
    arch        "LSB;label=32;scalar=64";
    class       surfaceScalarField;
    location    "0.2";
    object      phi;
}
// * * * * * * * * * * * * * * * * * * * * * * * * * * * * * * * * * * * * * //

dimensions      [0 3 -1 0 0 0 0];

oriented        oriented;

internalField   nonuniform List<scalar> 
73500
(
6.10425e-05
6.10425e-05
5.55894e-05
-6.53363e-05
-6.53363e-05
5.08706e-05
6.37478e-05
6.50943e-05
-6.77316e-05
3.64436e-05
6.55623e-05
7.25541e-05
-6.97464e-05
1.90033e-05
6.66901e-05
7.76908e-05
-7.09694e-05
-6.39741e-13
6.72291e-05
8.03014e-05
-7.15344e-05
-1.90033e-05
6.72291e-05
8.03014e-05
-7.15344e-05
-3.64436e-05
6.66901e-05
7.76908e-05
-7.09694e-05
-5.08706e-05
6.55623e-05
7.25541e-05
-6.97464e-05
-6.10425e-05
6.37478e-05
6.50943e-05
-6.77316e-05
6.10425e-05
5.55894e-05
-6.53363e-05
-6.53363e-05
6.37478e-05
5.08706e-05
6.50943e-05
-6.77316e-05
5.31831e-05
5.31831e-05
7.57136e-05
3.79691e-05
5.46094e-05
8.3536e-05
1.97316e-05
5.54751e-05
8.87022e-05
-6.12211e-13
5.58888e-05
9.12691e-05
-1.97316e-05
5.58888e-05
9.12691e-05
-3.79691e-05
5.54751e-05
8.87022e-05
-5.31831e-05
5.46094e-05
8.3536e-05
-6.37478e-05
5.31831e-05
7.57136e-05
5.08706e-05
6.50943e-05
-6.77316e-05
6.55623e-05
3.64436e-05
7.25541e-05
-6.97464e-05
5.46094e-05
3.79691e-05
8.3536e-05
3.88895e-05
3.88895e-05
9.14271e-05
2.0168e-05
3.94393e-05
9.65135e-05
-5.4338e-13
3.97042e-05
9.90004e-05
-2.0168e-05
3.97042e-05
9.90004e-05
-3.88895e-05
3.94393e-05
9.65135e-05
-5.46094e-05
3.88895e-05
9.14271e-05
-6.55623e-05
3.79691e-05
8.3536e-05
3.64436e-05
7.25541e-05
-6.97464e-05
6.66901e-05
1.90033e-05
7.76908e-05
-7.09694e-05
5.54751e-05
1.97316e-05
8.87022e-05
3.94393e-05
2.0168e-05
9.65135e-05
2.04244e-05
2.04244e-05
0.00010148
-4.61776e-13
2.05487e-05
0.000103884
-2.04244e-05
2.05487e-05
0.000103884
-3.94393e-05
2.04244e-05
0.00010148
-5.54751e-05
2.0168e-05
9.65135e-05
-6.66901e-05
1.97316e-05
8.87022e-05
1.90033e-05
7.76908e-05
-7.09694e-05
6.72291e-05
-6.49783e-13
8.03014e-05
-7.15344e-05
5.58888e-05
-6.2142e-13
9.12691e-05
3.97042e-05
-5.46373e-13
9.90004e-05
2.05487e-05
-4.63079e-13
0.000103884
-3.80317e-13
-3.86322e-13
0.000106237
-2.05487e-05
-3.08873e-13
0.000106237
-3.97042e-05
-2.37782e-13
0.000103884
-5.58888e-05
-1.764e-13
9.90004e-05
-6.72291e-05
-1.2421e-13
9.12691e-05
-8.78487e-14
8.03014e-05
-7.15344e-05
6.72291e-05
-1.90033e-05
8.03014e-05
-7.15344e-05
5.58888e-05
-1.97316e-05
9.12691e-05
3.97042e-05
-2.0168e-05
9.90004e-05
2.05487e-05
-2.04244e-05
0.000103884
-3.04886e-13
-2.05487e-05
0.000106237
-2.05487e-05
-2.05487e-05
0.000106237
-3.97042e-05
-2.04244e-05
0.000103884
-5.58888e-05
-2.0168e-05
9.90004e-05
-6.72291e-05
-1.97316e-05
9.12691e-05
-1.90033e-05
8.03014e-05
-7.15344e-05
6.66901e-05
-3.64436e-05
7.76908e-05
-7.09694e-05
5.54751e-05
-3.79691e-05
8.87022e-05
3.94393e-05
-3.88895e-05
9.65135e-05
2.04244e-05
-3.94393e-05
0.00010148
-2.32932e-13
-3.97042e-05
0.000103884
-2.04244e-05
-3.97042e-05
0.000103884
-3.94393e-05
-3.94393e-05
0.00010148
-5.54751e-05
-3.88895e-05
9.65135e-05
-6.66901e-05
-3.79691e-05
8.87022e-05
-3.64436e-05
7.76908e-05
-7.09694e-05
6.55623e-05
-5.08706e-05
7.25541e-05
-6.97464e-05
5.46094e-05
-5.31831e-05
8.3536e-05
3.88895e-05
-5.46094e-05
9.14271e-05
2.0168e-05
-5.54751e-05
9.65135e-05
-1.70134e-13
-5.58888e-05
9.90004e-05
-2.0168e-05
-5.58888e-05
9.90004e-05
-3.88895e-05
-5.54751e-05
9.65135e-05
-5.46094e-05
-5.46094e-05
9.14271e-05
-6.55623e-05
-5.31831e-05
8.3536e-05
-5.08706e-05
7.25541e-05
-6.97464e-05
6.37478e-05
-6.10425e-05
6.50943e-05
-6.77316e-05
5.31831e-05
-6.37478e-05
7.57136e-05
3.79691e-05
-6.55623e-05
8.3536e-05
1.97316e-05
-6.66901e-05
8.87022e-05
-1.18465e-13
-6.72291e-05
9.12691e-05
-1.97316e-05
-6.72291e-05
9.12691e-05
-3.79691e-05
-6.66901e-05
8.87022e-05
-5.31831e-05
-6.55623e-05
8.3536e-05
-6.37478e-05
-6.37478e-05
7.57136e-05
-6.10425e-05
6.50943e-05
-6.77316e-05
6.10425e-05
5.55894e-05
-6.53363e-05
-6.53363e-05
5.08706e-05
6.50943e-05
-6.77316e-05
3.64436e-05
7.25541e-05
-6.97464e-05
1.90033e-05
7.76908e-05
-7.09694e-05
-9.01632e-14
8.03014e-05
-7.15344e-05
-1.90033e-05
8.03014e-05
-7.15344e-05
-3.64436e-05
7.76908e-05
-7.09694e-05
-5.08706e-05
7.25541e-05
-6.97464e-05
-6.10425e-05
6.50943e-05
-6.77316e-05
5.55894e-05
-6.53363e-05
-6.53363e-05
1.23627e-05
1.23627e-05
5.38145e-05
-1.14753e-05
-1.14753e-05
1.14118e-05
1.45383e-05
6.46956e-05
-1.31887e-05
8.72003e-06
1.61483e-05
7.36081e-05
-1.45105e-05
4.72344e-06
1.72651e-05
7.9911e-05
-1.54887e-05
-3.27895e-13
1.7822e-05
8.31662e-05
-1.59633e-05
-4.72344e-06
1.7822e-05
8.31662e-05
-1.59633e-05
-8.72004e-06
1.72651e-05
7.9911e-05
-1.54887e-05
-1.14118e-05
1.61483e-05
7.36081e-05
-1.45105e-05
-1.23627e-05
1.45383e-05
6.46956e-05
-1.31887e-05
1.23627e-05
5.38145e-05
-1.14753e-05
-1.14753e-05
1.45383e-05
1.14118e-05
6.46956e-05
-1.31887e-05
1.35497e-05
1.35497e-05
7.7691e-05
1.03936e-05
1.51152e-05
8.77251e-05
5.62761e-06
1.61694e-05
9.45638e-05
-3.56955e-13
1.66911e-05
9.80277e-05
-5.62761e-06
1.66911e-05
9.80277e-05
-1.03936e-05
1.61694e-05
9.45638e-05
-1.35497e-05
1.51152e-05
8.77251e-05
-1.45383e-05
1.35497e-05
7.7691e-05
1.14118e-05
6.46956e-05
-1.31887e-05
1.61483e-05
8.72003e-06
7.36081e-05
-1.45105e-05
1.51152e-05
1.03936e-05
8.77251e-05
1.16188e-05
1.16188e-05
9.84199e-05
6.29551e-06
1.24317e-05
0.000105575
-3.79169e-13
1.28327e-05
0.000109154
-6.29551e-06
1.28327e-05
0.000109154
-1.16188e-05
1.24317e-05
0.000105575
-1.51152e-05
1.16188e-05
9.84199e-05
-1.61483e-05
1.03936e-05
8.77251e-05
8.72003e-06
7.36081e-05
-1.45105e-05
1.72651e-05
4.72344e-06
7.9911e-05
-1.54887e-05
1.61694e-05
5.62761e-06
9.45638e-05
1.24317e-05
6.29551e-06
0.000105575
6.7352e-06
6.7352e-06
0.000112873
-3.84122e-13
6.95173e-06
0.0001165
-6.7352e-06
6.95173e-06
0.0001165
-1.24317e-05
6.7352e-06
0.000112873
-1.61694e-05
6.29551e-06
0.000105575
-1.72651e-05
5.62761e-06
9.45638e-05
4.72344e-06
7.9911e-05
-1.54887e-05
1.7822e-05
-3.31105e-13
8.31662e-05
-1.59633e-05
1.66911e-05
-3.59576e-13
9.80277e-05
1.28327e-05
-3.81543e-13
0.000109154
6.95173e-06
-3.86125e-13
0.0001165
-3.59913e-13
-3.61498e-13
0.00012014
-6.95173e-06
-3.05779e-13
0.00012014
-1.28327e-05
-2.28581e-13
0.0001165
-1.66911e-05
-1.46064e-13
0.000109154
-1.7822e-05
-7.1265e-14
9.80277e-05
-1.49837e-14
8.31662e-05
-1.59633e-05
1.7822e-05
-4.72344e-06
8.31662e-05
-1.59633e-05
1.66911e-05
-5.62761e-06
9.80277e-05
1.28327e-05
-6.29551e-06
0.000109154
6.95173e-06
-6.7352e-06
0.0001165
-3.04991e-13
-6.95173e-06
0.00012014
-6.95173e-06
-6.95173e-06
0.00012014
-1.28327e-05
-6.7352e-06
0.0001165
-1.66911e-05
-6.29551e-06
0.000109154
-1.7822e-05
-5.62761e-06
9.80277e-05
-4.72344e-06
8.31662e-05
-1.59633e-05
1.72651e-05
-8.72004e-06
7.9911e-05
-1.54887e-05
1.61694e-05
-1.03936e-05
9.45638e-05
1.24317e-05
-1.16188e-05
0.000105575
6.7352e-06
-1.24317e-05
0.000112873
-2.28061e-13
-1.28327e-05
0.0001165
-6.7352e-06
-1.28327e-05
0.0001165
-1.24317e-05
-1.24317e-05
0.000112873
-1.61694e-05
-1.16188e-05
0.000105575
-1.72651e-05
-1.03936e-05
9.45638e-05
-8.72004e-06
7.9911e-05
-1.54887e-05
1.61483e-05
-1.14118e-05
7.36081e-05
-1.45105e-05
1.51152e-05
-1.35497e-05
8.77251e-05
1.16188e-05
-1.51152e-05
9.84199e-05
6.29551e-06
-1.61694e-05
0.000105575
-1.45159e-13
-1.66911e-05
0.000109154
-6.29551e-06
-1.66911e-05
0.000109154
-1.16188e-05
-1.61694e-05
0.000105575
-1.51152e-05
-1.51152e-05
9.84199e-05
-1.61483e-05
-1.35497e-05
8.77251e-05
-1.14118e-05
7.36081e-05
-1.45105e-05
1.45383e-05
-1.23627e-05
6.46956e-05
-1.31887e-05
1.35497e-05
-1.45383e-05
7.7691e-05
1.03936e-05
-1.61483e-05
8.77251e-05
5.62761e-06
-1.72651e-05
9.45638e-05
-6.652e-14
-1.7822e-05
9.80277e-05
-5.62761e-06
-1.7822e-05
9.80277e-05
-1.03936e-05
-1.72651e-05
9.45638e-05
-1.35497e-05
-1.61483e-05
8.77251e-05
-1.45383e-05
-1.45383e-05
7.7691e-05
-1.23627e-05
6.46956e-05
-1.31887e-05
1.23627e-05
5.38145e-05
-1.14753e-05
-1.14753e-05
1.14118e-05
6.46956e-05
-1.31887e-05
8.72003e-06
7.36081e-05
-1.45105e-05
4.72344e-06
7.9911e-05
-1.54887e-05
-1.09785e-14
8.31662e-05
-1.59633e-05
-4.72344e-06
8.31662e-05
-1.59633e-05
-8.72003e-06
7.9911e-05
-1.54887e-05
-1.14118e-05
7.36081e-05
-1.45105e-05
-1.23627e-05
6.46956e-05
-1.31887e-05
5.38145e-05
-1.14753e-05
-1.14753e-05
5.64195e-06
5.64195e-06
5.26925e-05
-5.08098e-06
-5.08098e-06
5.27964e-06
6.7524e-06
6.41565e-05
-5.85101e-06
4.09766e-06
7.63728e-06
7.37021e-05
-6.54929e-06
2.24322e-06
8.28071e-06
8.05551e-05
-7.07039e-06
-9.97222e-14
8.61385e-06
8.41278e-05
-7.33219e-06
-2.24322e-06
8.61385e-06
8.41278e-05
-7.33219e-06
-4.09766e-06
8.28071e-06
8.05551e-05
-7.07039e-06
-5.27964e-06
7.63728e-06
7.37021e-05
-6.54929e-06
-5.64195e-06
6.7524e-06
6.41565e-05
-5.85101e-06
5.64195e-06
5.26925e-05
-5.08098e-06
-5.08098e-06
6.7524e-06
5.27964e-06
6.41565e-05
-5.85101e-06
6.48094e-06
6.48094e-06
7.82339e-05
5.08486e-06
7.40646e-06
8.9352e-05
2.79255e-06
8.05828e-06
9.70786e-05
-1.50328e-13
8.39412e-06
0.00010104
-2.79255e-06
8.39412e-06
0.00010104
-5.08486e-06
8.05828e-06
9.70786e-05
-6.48094e-06
7.40646e-06
8.9352e-05
-6.7524e-06
6.48094e-06
7.82339e-05
5.27964e-06
6.41565e-05
-5.85101e-06
7.63728e-06
4.09766e-06
7.37021e-05
-6.54929e-06
7.40646e-06
5.08486e-06
8.9352e-05
5.84792e-06
5.84792e-06
0.000101537
3.22102e-06
6.37776e-06
0.000109882
-2.07313e-13
6.64952e-06
0.00011412
-3.22102e-06
6.64952e-06
0.00011412
-5.84792e-06
6.37776e-06
0.000109882
-7.40646e-06
5.84792e-06
0.000101537
-7.63728e-06
5.08486e-06
8.9352e-05
4.09766e-06
7.37021e-05
-6.54929e-06
8.28071e-06
2.24322e-06
8.05551e-05
-7.07039e-06
8.05828e-06
2.79255e-06
9.70786e-05
6.37776e-06
3.22102e-06
0.000109882
3.517e-06
3.517e-06
0.000118595
-2.50091e-13
3.66846e-06
0.000122998
-3.517e-06
3.66846e-06
0.000122998
-6.37776e-06
3.517e-06
0.000118595
-8.05828e-06
3.22102e-06
0.000109882
-8.28071e-06
2.79255e-06
9.70786e-05
2.24322e-06
8.05551e-05
-7.07039e-06
8.61385e-06
-1.0199e-13
8.41278e-05
-7.33219e-06
8.39412e-06
-1.55227e-13
0.00010104
6.64952e-06
-2.12417e-13
0.00011412
3.66846e-06
-2.54502e-13
0.000122998
-2.63544e-13
-2.66434e-13
0.000127477
-3.66846e-06
-2.43997e-13
0.000127477
-6.64952e-06
-1.93388e-13
0.000122998
-8.39412e-06
-1.28576e-13
0.00011412
-8.61385e-06
-6.55847e-14
0.00010104
-1.53519e-14
8.41278e-05
-7.33219e-06
8.61385e-06
-2.24322e-06
8.41278e-05
-7.33219e-06
8.39412e-06
-2.79255e-06
0.00010104
6.64952e-06
-3.22102e-06
0.00011412
3.66846e-06
-3.517e-06
0.000122998
-2.42725e-13
-3.66846e-06
0.000127477
-3.66846e-06
-3.66846e-06
0.000127477
-6.64952e-06
-3.517e-06
0.000122998
-8.39412e-06
-3.22102e-06
0.00011412
-8.61385e-06
-2.79255e-06
0.00010104
-2.24322e-06
8.41278e-05
-7.33219e-06
8.28071e-06
-4.09766e-06
8.05551e-05
-7.07039e-06
8.05828e-06
-5.08486e-06
9.70786e-05
6.37776e-06
-5.84792e-06
0.000109882
3.517e-06
-6.37776e-06
0.000118595
-1.93711e-13
-6.64952e-06
0.000122998
-3.517e-06
-6.64952e-06
0.000122998
-6.37776e-06
-6.37776e-06
0.000118595
-8.05828e-06
-5.84792e-06
0.000109882
-8.28071e-06
-5.08486e-06
9.70786e-05
-4.09766e-06
8.05551e-05
-7.07039e-06
7.63728e-06
-5.27964e-06
7.37021e-05
-6.54929e-06
7.40646e-06
-6.48094e-06
8.9352e-05
5.84792e-06
-7.40646e-06
0.000101537
3.22102e-06
-8.05828e-06
0.000109882
-1.30497e-13
-8.39412e-06
0.00011412
-3.22102e-06
-8.39412e-06
0.00011412
-5.84792e-06
-8.05828e-06
0.000109882
-7.40646e-06
-7.40646e-06
0.000101537
-7.63728e-06
-6.48094e-06
8.9352e-05
-5.27964e-06
7.37021e-05
-6.54929e-06
6.7524e-06
-5.64195e-06
6.41565e-05
-5.85101e-06
6.48094e-06
-6.7524e-06
7.82339e-05
5.08486e-06
-7.63728e-06
8.9352e-05
2.79255e-06
-8.28071e-06
9.70786e-05
-6.93987e-14
-8.61385e-06
0.00010104
-2.79255e-06
-8.61385e-06
0.00010104
-5.08486e-06
-8.28071e-06
9.70786e-05
-6.48094e-06
-7.63728e-06
8.9352e-05
-6.7524e-06
-6.7524e-06
7.82339e-05
-5.64195e-06
6.41565e-05
-5.85101e-06
5.64195e-06
5.26925e-05
-5.08098e-06
-5.08098e-06
5.27964e-06
6.41565e-05
-5.85101e-06
4.09766e-06
7.37021e-05
-6.54929e-06
2.24322e-06
8.05551e-05
-7.07039e-06
-2.29709e-14
8.41278e-05
-7.33219e-06
-2.24322e-06
8.41278e-05
-7.33219e-06
-4.09766e-06
8.05551e-05
-7.07039e-06
-5.27964e-06
7.37021e-05
-6.54929e-06
-5.64195e-06
6.41565e-05
-5.85101e-06
5.26925e-05
-5.08098e-06
-5.08098e-06
1.04969e-06
1.04969e-06
5.22046e-05
-8.05698e-07
-8.05698e-07
1.11579e-06
1.44362e-06
6.37206e-05
-1.07385e-06
9.31515e-07
1.76881e-06
7.34165e-05
-1.29898e-06
5.30309e-07
2.00984e-06
8.04187e-05
-1.47228e-06
-2.43191e-13
2.13769e-06
8.40833e-05
-1.56293e-06
-5.3031e-07
2.13769e-06
8.40833e-05
-1.56293e-06
-9.31515e-07
2.00984e-06
8.04187e-05
-1.47228e-06
-1.11579e-06
1.76881e-06
7.34165e-05
-1.29898e-06
-1.04969e-06
1.44362e-06
6.37206e-05
-1.07385e-06
1.04969e-06
5.22046e-05
-8.05698e-07
-8.05698e-07
1.44362e-06
1.11579e-06
6.37206e-05
-1.07385e-06
1.55177e-06
1.55177e-06
7.80176e-05
1.30319e-06
1.91175e-06
8.94576e-05
7.43065e-07
2.1741e-06
9.74744e-05
-3.49004e-13
2.31388e-06
0.000101607
-7.43065e-07
2.31388e-06
0.000101607
-1.30319e-06
2.1741e-06
9.74744e-05
-1.55177e-06
1.91175e-06
8.94576e-05
-1.44362e-06
1.55177e-06
7.80176e-05
1.11579e-06
6.37206e-05
-1.07385e-06
1.76881e-06
9.31515e-07
7.34165e-05
-1.29898e-06
1.91175e-06
1.30319e-06
8.94576e-05
1.61173e-06
1.61173e-06
0.000102137
9.19793e-07
1.83552e-06
0.000110912
-4.45391e-13
1.95376e-06
0.0001154
-9.19794e-07
1.95376e-06
0.0001154
-1.61173e-06
1.83552e-06
0.000110912
-1.91175e-06
1.61173e-06
0.000102137
-1.76881e-06
1.30319e-06
8.94576e-05
9.31515e-07
7.34165e-05
-1.29898e-06
2.00984e-06
5.30309e-07
8.04187e-05
-1.47228e-06
2.1741e-06
7.43065e-07
9.74744e-05
1.83552e-06
9.19793e-07
0.000110912
1.04859e-06
1.04859e-06
0.000120168
-5.19681e-13
1.1164e-06
0.000124884
-1.0486e-06
1.1164e-06
0.000124884
-1.83552e-06
1.04859e-06
0.000120168
-2.1741e-06
9.19793e-07
0.000110912
-2.00984e-06
7.43065e-07
9.74744e-05
5.30309e-07
8.04187e-05
-1.47228e-06
2.13769e-06
-2.4984e-13
8.40833e-05
-1.56293e-06
2.31388e-06
-3.54862e-13
0.000101607
1.95376e-06
-4.5276e-13
0.0001154
1.1164e-06
-5.27751e-13
0.000124884
-5.58736e-13
-5.66781e-13
0.00012971
-1.1164e-06
-5.6409e-13
0.00012971
-1.95376e-06
-5.22273e-13
0.000124884
-2.31388e-06
-4.50383e-13
0.0001154
-2.13769e-06
-3.59973e-13
0.000101607
-2.62251e-13
8.40833e-05
-1.56293e-06
2.13769e-06
-5.3031e-07
8.40833e-05
-1.56293e-06
2.31388e-06
-7.43065e-07
0.000101607
1.95376e-06
-9.19794e-07
0.0001154
1.1164e-06
-1.0486e-06
0.000124884
-5.56561e-13
-1.1164e-06
0.00012971
-1.1164e-06
-1.1164e-06
0.00012971
-1.95376e-06
-1.0486e-06
0.000124884
-2.31388e-06
-9.19794e-07
0.0001154
-2.13769e-06
-7.43065e-07
0.000101607
-5.3031e-07
8.40833e-05
-1.56293e-06
2.00984e-06
-9.31515e-07
8.04187e-05
-1.47228e-06
2.1741e-06
-1.30319e-06
9.74744e-05
1.83552e-06
-1.61173e-06
0.000110912
1.04859e-06
-1.83552e-06
0.000120168
-5.15879e-13
-1.95376e-06
0.000124884
-1.0486e-06
-1.95376e-06
0.000124884
-1.83552e-06
-1.83552e-06
0.000120168
-2.1741e-06
-1.61173e-06
0.000110912
-2.00984e-06
-1.30319e-06
9.74744e-05
-9.31515e-07
8.04187e-05
-1.47228e-06
1.76881e-06
-1.11579e-06
7.34165e-05
-1.29898e-06
1.91175e-06
-1.55177e-06
8.94576e-05
1.61173e-06
-1.91175e-06
0.000102137
9.19793e-07
-2.1741e-06
0.000110912
-4.45733e-13
-2.31388e-06
0.0001154
-9.19794e-07
-2.31388e-06
0.0001154
-1.61173e-06
-2.1741e-06
0.000110912
-1.91175e-06
-1.91175e-06
0.000102137
-1.76881e-06
-1.55177e-06
8.94576e-05
-1.11579e-06
7.34165e-05
-1.29898e-06
1.44362e-06
-1.04969e-06
6.37206e-05
-1.07385e-06
1.55177e-06
-1.44362e-06
7.80176e-05
1.30319e-06
-1.76881e-06
8.94576e-05
7.43065e-07
-2.00984e-06
9.74744e-05
-3.57782e-13
-2.13769e-06
0.000101607
-7.43065e-07
-2.13769e-06
0.000101607
-1.30319e-06
-2.00984e-06
9.74744e-05
-1.55177e-06
-1.76881e-06
8.94576e-05
-1.44362e-06
-1.44362e-06
7.80176e-05
-1.04969e-06
6.37206e-05
-1.07385e-06
1.04969e-06
5.22046e-05
-8.05698e-07
-8.05698e-07
1.11579e-06
6.37206e-05
-1.07385e-06
9.31515e-07
7.34165e-05
-1.29898e-06
5.30309e-07
8.04187e-05
-1.47228e-06
-2.61718e-13
8.40833e-05
-1.56293e-06
-5.3031e-07
8.40833e-05
-1.56293e-06
-9.31515e-07
8.04187e-05
-1.47228e-06
-1.11579e-06
7.34165e-05
-1.29898e-06
-1.04969e-06
6.37206e-05
-1.07385e-06
5.22046e-05
-8.05698e-07
-8.05698e-07
9.27079e-07
9.27079e-07
5.20502e-05
-8.49918e-07
-8.49918e-07
8.45419e-07
1.0713e-06
6.36605e-05
-9.29488e-07
6.52299e-07
1.20539e-06
7.34355e-05
-1.03124e-06
3.5677e-07
1.30767e-06
8.05144e-05
-1.10783e-06
-3.1429e-13
1.36127e-06
8.42254e-05
-1.14652e-06
-3.5677e-07
1.36127e-06
8.42254e-05
-1.14652e-06
-6.523e-07
1.30767e-06
8.05144e-05
-1.10783e-06
-8.45419e-07
1.20539e-06
7.34355e-05
-1.03124e-06
-9.2708e-07
1.0713e-06
6.36605e-05
-9.29488e-07
9.27079e-07
5.20502e-05
-8.49919e-07
-8.49919e-07
1.0713e-06
8.45419e-07
6.36605e-05
-9.29488e-07
1.0226e-06
1.0226e-06
7.8115e-05
8.08676e-07
1.17437e-06
8.97026e-05
4.47692e-07
1.28785e-06
9.78552e-05
-4.82856e-13
1.34781e-06
0.000102068
-4.47693e-07
1.34781e-06
0.000102068
-8.08677e-07
1.28785e-06
9.78552e-05
-1.02261e-06
1.17437e-06
8.97026e-05
-1.0713e-06
1.0226e-06
7.8115e-05
8.45419e-07
6.36605e-05
-9.29488e-07
1.20539e-06
6.52299e-07
7.34355e-05
-1.03124e-06
1.17437e-06
8.08676e-07
8.97026e-05
9.41202e-07
9.41202e-07
0.000102603
5.24719e-07
1.0396e-06
0.000111577
-6.41372e-13
1.09167e-06
0.000116181
-5.2472e-07
1.09167e-06
0.000116181
-9.41203e-07
1.0396e-06
0.000111577
-1.17437e-06
9.41202e-07
0.000102603
-1.20539e-06
8.08676e-07
8.97026e-05
6.523e-07
7.34355e-05
-1.03124e-06
1.30767e-06
3.5677e-07
8.05144e-05
-1.10783e-06
1.28785e-06
4.47692e-07
9.78552e-05
1.0396e-06
5.24719e-07
0.000111577
5.81868e-07
5.81868e-07
0.000121084
-7.65608e-13
6.12126e-07
0.000125946
-5.8187e-07
6.12126e-07
0.000125946
-1.03961e-06
5.81868e-07
0.000121084
-1.28785e-06
5.24719e-07
0.000111577
-1.30767e-06
4.47692e-07
9.78552e-05
3.5677e-07
8.05144e-05
-1.10783e-06
1.36127e-06
-3.22435e-13
8.42254e-05
-1.14652e-06
1.34781e-06
-4.91884e-13
0.000102068
1.09167e-06
-6.50775e-13
0.000116181
6.12126e-07
-7.75062e-13
0.000125946
-8.35906e-13
-8.44584e-13
0.000130934
-6.12128e-07
-8.48848e-13
0.000130934
-1.09167e-06
-7.88241e-13
0.000125946
-1.34781e-06
-6.73407e-13
0.000116181
-1.36127e-06
-5.23056e-13
0.000102068
-3.6002e-13
8.42254e-05
-1.14652e-06
1.36127e-06
-3.5677e-07
8.42254e-05
-1.14652e-06
1.34781e-06
-4.47693e-07
0.000102068
1.09167e-06
-5.2472e-07
0.000116181
6.12126e-07
-5.8187e-07
0.000125946
-8.41843e-13
-6.12128e-07
0.000130934
-6.12128e-07
-6.12128e-07
0.000130934
-1.09167e-06
-5.8187e-07
0.000125946
-1.34781e-06
-5.2472e-07
0.000116181
-1.36127e-06
-4.47693e-07
0.000102068
-3.5677e-07
8.42254e-05
-1.14652e-06
1.30767e-06
-6.523e-07
8.05144e-05
-1.10783e-06
1.28785e-06
-8.08677e-07
9.78552e-05
1.0396e-06
-9.41203e-07
0.000111577
5.81868e-07
-1.03961e-06
0.000121084
-7.83723e-13
-1.09167e-06
0.000125946
-5.8187e-07
-1.09167e-06
0.000125946
-1.03961e-06
-1.03961e-06
0.000121084
-1.28785e-06
-9.41203e-07
0.000111577
-1.30767e-06
-8.08677e-07
9.78552e-05
-6.523e-07
8.05144e-05
-1.10783e-06
1.20539e-06
-8.45419e-07
7.34355e-05
-1.03124e-06
1.17437e-06
-1.02261e-06
8.97026e-05
9.41202e-07
-1.17437e-06
0.000102603
5.24719e-07
-1.28785e-06
0.000111577
-6.71936e-13
-1.34781e-06
0.000116181
-5.2472e-07
-1.34781e-06
0.000116181
-9.41203e-07
-1.28785e-06
0.000111577
-1.17437e-06
-1.17437e-06
0.000102603
-1.20539e-06
-1.02261e-06
8.97026e-05
-8.4542e-07
7.34355e-05
-1.03124e-06
1.0713e-06
-9.2708e-07
6.36605e-05
-9.29488e-07
1.0226e-06
-1.0713e-06
7.8115e-05
8.08676e-07
-1.20539e-06
8.97026e-05
4.47692e-07
-1.30767e-06
9.78552e-05
-5.24384e-13
-1.36127e-06
0.000102068
-4.47693e-07
-1.36127e-06
0.000102068
-8.08677e-07
-1.30767e-06
9.78552e-05
-1.02261e-06
-1.20539e-06
8.97026e-05
-1.0713e-06
-1.0713e-06
7.8115e-05
-9.2708e-07
6.36605e-05
-9.29488e-07
9.27079e-07
5.20502e-05
-8.49919e-07
-8.49919e-07
8.45419e-07
6.36605e-05
-9.29488e-07
6.523e-07
7.34355e-05
-1.03124e-06
3.5677e-07
8.05144e-05
-1.10783e-06
-3.63062e-13
8.42254e-05
-1.14652e-06
-3.5677e-07
8.42254e-05
-1.14652e-06
-6.523e-07
8.05144e-05
-1.10783e-06
-8.4542e-07
7.34355e-05
-1.03124e-06
-9.2708e-07
6.36605e-05
-9.29488e-07
5.20502e-05
-8.49919e-07
-8.49919e-07
-1.6163e-07
-1.6163e-07
5.19765e-05
1.98505e-07
1.98505e-07
-9.86348e-08
-8.74781e-08
6.35474e-05
1.37608e-07
-5.13889e-08
-6.88816e-08
7.33266e-05
1.30558e-07
-2.06261e-08
-3.50189e-08
8.04115e-05
1.07167e-07
-5.65173e-14
-2.25497e-08
8.41282e-05
9.91007e-08
2.0626e-08
-2.25497e-08
8.41282e-05
9.91006e-08
5.13888e-08
-3.50188e-08
8.04115e-05
1.07167e-07
9.86347e-08
-6.88814e-08
7.33266e-05
1.30558e-07
1.6163e-07
-8.74779e-08
6.35474e-05
1.37608e-07
-1.6163e-07
5.19765e-05
1.98505e-07
1.98505e-07
-8.74781e-08
-9.86348e-08
6.35474e-05
1.37608e-07
-1.90083e-08
-1.90083e-08
7.79781e-05
1.26715e-08
1.13303e-08
8.95907e-05
1.6905e-08
4.91906e-08
9.77668e-05
-1.93052e-13
6.64162e-08
0.000101996
-1.69053e-08
6.64162e-08
0.000101996
-1.26718e-08
4.91907e-08
9.77668e-05
1.9008e-08
1.13305e-08
8.95907e-05
8.74779e-08
-1.90081e-08
7.79781e-05
-9.86346e-08
6.35474e-05
1.37608e-07
-6.88816e-08
-5.13889e-08
7.33266e-05
1.30558e-07
1.13303e-08
1.26715e-08
8.95907e-05
4.2747e-08
4.2747e-08
0.000102541
3.52457e-08
7.5566e-08
0.000111558
-3.4984e-13
9.19449e-08
0.00011619
-3.52463e-08
9.19449e-08
0.00011619
-4.27476e-08
7.55661e-08
0.000111558
-1.13308e-08
4.27472e-08
0.000102541
6.88812e-08
1.26716e-08
8.95907e-05
-5.13888e-08
7.33266e-05
1.30558e-07
-3.50189e-08
-2.06262e-08
8.04115e-05
1.07167e-07
4.91906e-08
1.69049e-08
9.77668e-05
7.5566e-08
3.52457e-08
0.000111558
5.40556e-08
5.40556e-08
0.000121127
-4.82578e-13
6.38071e-08
0.000126028
-5.40565e-08
6.38071e-08
0.000126028
-7.55669e-08
5.40556e-08
0.000121127
-4.91913e-08
3.52457e-08
0.000111558
3.50185e-08
1.6905e-08
9.77668e-05
-2.06261e-08
8.04115e-05
1.07167e-07
-2.25497e-08
-6.28886e-14
8.41282e-05
9.91007e-08
6.64162e-08
-1.97081e-13
0.000101996
9.19449e-08
-3.4986e-13
0.00011619
6.38071e-08
-4.77269e-13
0.000126028
-5.59235e-13
-5.49191e-13
0.000131062
-6.38081e-08
-5.52431e-13
0.000131062
-9.19458e-08
-4.87885e-13
0.000126028
-6.64169e-08
-3.65977e-13
0.00011619
2.25492e-08
-2.18532e-13
0.000101996
-9.17847e-14
8.41282e-05
9.91003e-08
-2.25497e-08
2.0626e-08
8.41282e-05
9.91006e-08
6.64162e-08
-1.69053e-08
0.000101996
9.19449e-08
-3.52463e-08
0.00011619
6.38071e-08
-5.40565e-08
0.000126028
-5.67534e-13
-6.38081e-08
0.000131062
-6.38082e-08
-6.38081e-08
0.000131062
-9.19458e-08
-5.40565e-08
0.000126028
-6.6417e-08
-3.52464e-08
0.00011619
2.25492e-08
-1.69055e-08
0.000101996
2.06259e-08
8.41282e-05
9.91003e-08
-3.50188e-08
5.13888e-08
8.04115e-05
1.07167e-07
4.91907e-08
-1.26718e-08
9.77668e-05
7.55661e-08
-4.27476e-08
0.000111558
5.40556e-08
-7.55669e-08
0.000121127
-5.07599e-13
-9.19458e-08
0.000126028
-5.40566e-08
-9.19458e-08
0.000126028
-7.5567e-08
-7.5567e-08
0.000121127
-4.91914e-08
-4.27478e-08
0.000111558
3.50183e-08
-1.2672e-08
9.77668e-05
5.13886e-08
8.04115e-05
1.07167e-07
-6.88814e-08
9.86347e-08
7.33266e-05
1.30558e-07
1.13305e-08
1.9008e-08
8.95907e-05
4.27471e-08
-1.13308e-08
0.000102541
3.52457e-08
-4.91913e-08
0.000111558
-3.89032e-13
-6.64169e-08
0.00011619
-3.52464e-08
-6.6417e-08
0.00011619
-4.27478e-08
-4.91914e-08
0.000111558
-1.1331e-08
-1.1331e-08
0.000102541
6.8881e-08
1.90077e-08
8.95907e-05
9.86345e-08
7.33266e-05
1.30558e-07
-8.74779e-08
1.6163e-07
6.35474e-05
1.37608e-07
-1.90081e-08
8.74779e-08
7.79781e-05
1.26716e-08
6.88812e-08
8.95907e-05
1.6905e-08
3.50185e-08
9.77668e-05
-2.4405e-13
2.25492e-08
0.000101996
-1.69055e-08
2.25492e-08
0.000101996
-1.2672e-08
3.50184e-08
9.77668e-05
1.90077e-08
6.8881e-08
8.95907e-05
8.74777e-08
8.74777e-08
7.79781e-05
1.6163e-07
6.35474e-05
1.37608e-07
-1.6163e-07
5.19765e-05
1.98505e-07
1.98505e-07
-9.86347e-08
6.35474e-05
1.37608e-07
-5.13888e-08
7.33266e-05
1.30558e-07
-2.06261e-08
8.04115e-05
1.07167e-07
-1.14405e-13
8.41282e-05
9.91003e-08
2.06259e-08
8.41282e-05
9.91003e-08
5.13886e-08
8.04115e-05
1.07167e-07
9.86345e-08
7.33266e-05
1.30558e-07
1.6163e-07
6.35474e-05
1.37608e-07
5.19765e-05
1.98505e-07
1.98505e-07
3.42386e-07
3.42386e-07
5.196e-05
-3.3415e-07
-3.3415e-07
2.89596e-07
3.63798e-07
6.3578e-05
-3.41634e-07
2.1336e-07
3.91372e-07
7.33786e-05
-3.67196e-07
1.13262e-07
4.12245e-07
8.04841e-05
-3.8469e-07
4.26266e-13
4.22168e-07
8.42123e-05
-3.92974e-07
-1.13261e-07
4.22168e-07
8.42123e-05
-3.92974e-07
-2.1336e-07
4.12245e-07
8.04841e-05
-3.8469e-07
-2.89595e-07
3.91372e-07
7.33786e-05
-3.67196e-07
-3.42385e-07
3.63798e-07
6.3578e-05
-3.41634e-07
3.42386e-07
5.196e-05
-3.3415e-07
-3.3415e-07
3.63798e-07
2.89596e-07
6.3578e-05
-3.41634e-07
3.18844e-07
3.18844e-07
7.8068e-05
2.39412e-07
3.48423e-07
8.97131e-05
1.2882e-07
3.69923e-07
9.79197e-05
4.12244e-13
3.8075e-07
0.000102166
-1.28819e-07
3.8075e-07
0.000102166
-2.39411e-07
3.69923e-07
9.79197e-05
-3.18844e-07
3.48423e-07
8.97131e-05
-3.63797e-07
3.18844e-07
7.8068e-05
2.89596e-07
6.3578e-05
-3.41633e-07
3.91372e-07
2.1336e-07
7.33786e-05
-3.67196e-07
3.48423e-07
2.39412e-07
8.97131e-05
2.65015e-07
2.65015e-07
0.000102707
1.43511e-07
2.83375e-07
0.000111766
3.55005e-13
2.92723e-07
0.000116422
-1.4351e-07
2.92723e-07
0.000116422
-2.65014e-07
2.83375e-07
0.000111766
-3.48422e-07
2.65015e-07
0.000102707
-3.91372e-07
2.39412e-07
8.97131e-05
2.1336e-07
7.33786e-05
-3.67196e-07
4.12245e-07
1.13262e-07
8.04841e-05
-3.8469e-07
3.69923e-07
1.2882e-07
9.79197e-05
2.83375e-07
1.43511e-07
0.000111766
1.54135e-07
1.54135e-07
0.000121385
2.92472e-13
1.59571e-07
0.000126315
-1.54134e-07
1.59571e-07
0.000126315
-2.83375e-07
1.54135e-07
0.000121385
-3.69923e-07
1.43511e-07
0.000111766
-4.12244e-07
1.2882e-07
9.79197e-05
1.13262e-07
8.04841e-05
-3.8469e-07
4.22168e-07
3.9719e-13
8.42123e-05
-3.92974e-07
3.8075e-07
3.8944e-13
0.000102166
2.92723e-07
3.43375e-13
0.000116422
1.59571e-07
2.93866e-13
0.000126315
2.47143e-13
2.61943e-13
0.000131381
-1.5957e-07
2.62343e-13
0.000131381
-2.92722e-07
2.94642e-13
0.000126315
-3.80749e-07
3.43564e-13
0.000116422
-4.22168e-07
3.87344e-13
0.000102166
3.9001e-13
8.42123e-05
-3.92973e-07
4.22168e-07
-1.13261e-07
8.42123e-05
-3.92974e-07
3.8075e-07
-1.2882e-07
0.000102166
2.92723e-07
-1.4351e-07
0.000116422
1.59571e-07
-1.54134e-07
0.000126315
2.35342e-13
-1.5957e-07
0.000131381
-1.5957e-07
-1.5957e-07
0.000131381
-2.92722e-07
-1.54134e-07
0.000126315
-3.80749e-07
-1.4351e-07
0.000116422
-4.22168e-07
-1.2882e-07
0.000102166
-1.13262e-07
8.42123e-05
-3.92973e-07
4.12245e-07
-2.1336e-07
8.04841e-05
-3.8469e-07
3.69923e-07
-2.39411e-07
9.79197e-05
2.83375e-07
-2.65014e-07
0.000111766
1.54135e-07
-2.83375e-07
0.000121385
2.58143e-13
-2.92722e-07
0.000126315
-1.54134e-07
-2.92722e-07
0.000126315
-2.83375e-07
-2.83375e-07
0.000121385
-3.69923e-07
-2.65014e-07
0.000111766
-4.12244e-07
-2.39411e-07
9.79197e-05
-2.1336e-07
8.04841e-05
-3.8469e-07
3.91372e-07
-2.89595e-07
7.33786e-05
-3.67196e-07
3.48423e-07
-3.18844e-07
8.97131e-05
2.65015e-07
-3.48422e-07
0.000102707
1.43511e-07
-3.69923e-07
0.000111766
3.01221e-13
-3.80749e-07
0.000116422
-1.4351e-07
-3.80749e-07
0.000116422
-2.65014e-07
-3.69923e-07
0.000111766
-3.48422e-07
-3.48422e-07
0.000102707
-3.91372e-07
-3.18844e-07
8.97131e-05
-2.89596e-07
7.33786e-05
-3.67196e-07
3.63798e-07
-3.42385e-07
6.3578e-05
-3.41634e-07
3.18844e-07
-3.63797e-07
7.8068e-05
2.39412e-07
-3.91372e-07
8.97131e-05
1.2882e-07
-4.12244e-07
9.79197e-05
3.42933e-13
-4.22168e-07
0.000102166
-1.2882e-07
-4.22168e-07
0.000102166
-2.39411e-07
-4.12244e-07
9.79197e-05
-3.18844e-07
-3.91372e-07
8.97131e-05
-3.63798e-07
-3.63798e-07
7.8068e-05
-3.42385e-07
6.3578e-05
-3.41633e-07
3.42386e-07
5.196e-05
-3.3415e-07
-3.3415e-07
2.89596e-07
6.3578e-05
-3.41633e-07
2.1336e-07
7.33786e-05
-3.67196e-07
1.13262e-07
8.04841e-05
-3.8469e-07
3.49057e-13
8.42123e-05
-3.92973e-07
-1.13262e-07
8.42123e-05
-3.92973e-07
-2.1336e-07
8.04841e-05
-3.8469e-07
-2.89596e-07
7.33786e-05
-3.67196e-07
-3.42385e-07
6.3578e-05
-3.41633e-07
5.196e-05
-3.3415e-07
-3.3415e-07
-1.89096e-07
-1.89096e-07
5.19472e-05
1.95509e-07
1.95509e-07
-1.48671e-07
-1.8215e-07
6.35325e-05
1.87272e-07
-1.03146e-07
-1.8666e-07
7.33243e-05
1.95431e-07
-5.26646e-08
-1.87634e-07
8.04227e-05
1.98532e-07
6.85876e-13
-1.87553e-07
8.41474e-05
1.99795e-07
5.26659e-08
-1.87553e-07
8.41474e-05
1.99795e-07
1.03147e-07
-1.87634e-07
8.04227e-05
1.98532e-07
1.48672e-07
-1.8666e-07
7.33243e-05
1.95431e-07
1.89096e-07
-1.8215e-07
6.35325e-05
1.87272e-07
-1.89096e-07
5.19472e-05
1.95509e-07
1.95509e-07
-1.8215e-07
-1.48671e-07
6.35325e-05
1.87272e-07
-1.42678e-07
-1.42678e-07
7.7989e-05
-9.79774e-08
-1.4516e-07
8.96269e-05
-4.99791e-08
-1.43974e-07
9.7828e-05
8.44994e-13
-1.43188e-07
0.000102072
4.99807e-08
-1.43188e-07
0.000102072
9.79789e-08
-1.43974e-07
9.7828e-05
1.42679e-07
-1.4516e-07
8.96269e-05
1.82151e-07
-1.42678e-07
7.7989e-05
-1.48671e-07
6.35325e-05
1.87272e-07
-1.8666e-07
-1.03146e-07
7.33243e-05
1.95431e-07
-1.4516e-07
-9.79775e-08
8.96269e-05
-9.94121e-08
-9.94121e-08
0.000102616
-5.03886e-08
-9.78242e-08
0.000111671
9.45185e-13
-9.68676e-08
0.000116325
5.03904e-08
-9.68676e-08
0.000116325
9.94137e-08
-9.78242e-08
0.000111671
1.45162e-07
-9.94121e-08
0.000102616
1.86661e-07
-9.79775e-08
8.96269e-05
-1.03146e-07
7.33243e-05
1.95432e-07
-1.87634e-07
-5.26646e-08
8.04227e-05
1.98532e-07
-1.43974e-07
-4.99791e-08
9.7828e-05
-9.78242e-08
-5.03887e-08
0.000111671
-4.92805e-08
-4.92805e-08
0.000121288
1.00728e-12
-4.86262e-08
0.000126218
4.92824e-08
-4.86262e-08
0.000126218
9.78259e-08
-4.92805e-08
0.000121288
1.43976e-07
-5.03886e-08
0.000111671
1.87635e-07
-4.99791e-08