/*--------------------------------*- C++ -*----------------------------------*\
| =========                 |                                                 |
| \\      /  F ield         | OpenFOAM: The Open Source CFD Toolbox           |
|  \\    /   O peration     | Version:  2406                                  |
|   \\  /    A nd           | Website:  www.openfoam.com                      |
|    \\/     M anipulation  |                                                 |
\*---------------------------------------------------------------------------*/
FoamFile
{
    version     2.0;
    format      ascii;
    arch        "LSB;label=32;scalar=64";
    class       volVectorField;
    location    "0.2";
    object      U;
}
// * * * * * * * * * * * * * * * * * * * * * * * * * * * * * * * * * * * * * //

dimensions      [0 1 -1 0 0 0 0];

internalField   nonuniform List<vector> 
25000
(
(0.190583 0.190583 1.08823)
(0.158705 0.210916 1.15542)
(0.120413 0.227428 1.20061)
(0.0749073 0.238691 1.22845)
(0.0254186 0.244373 1.24164)
(-0.0254186 0.244373 1.24164)
(-0.0749073 0.238691 1.22845)
(-0.120413 0.227428 1.20061)
(-0.158705 0.210916 1.15542)
(-0.190583 0.190583 1.08823)
(0.210916 0.158705 1.15542)
(0.177282 0.177282 1.22847)
(0.133812 0.191552 1.2712)
(0.0828729 0.201254 1.29483)
(0.028032 0.206125 1.3053)
(-0.028032 0.206125 1.3053)
(-0.0828729 0.201254 1.29483)
(-0.133812 0.191552 1.2712)
(-0.177282 0.177282 1.22847)
(-0.210916 0.158705 1.15542)
(0.227428 0.120413 1.20061)
(0.191552 0.133812 1.2712)
(0.144016 0.144016 1.31018)
(0.0889603 0.150949 1.33012)
(0.0300423 0.154445 1.3384)
(-0.0300423 0.154445 1.3384)
(-0.0889603 0.150949 1.33012)
(-0.144016 0.144016 1.31018)
(-0.191552 0.133812 1.2712)
(-0.227428 0.120413 1.20061)
(0.238691 0.0749073 1.22845)
(0.201254 0.0828729 1.29483)
(0.150949 0.0889603 1.33012)
(0.0930814 0.0930814 1.34718)
(0.0314033 0.0951603 1.35386)
(-0.0314033 0.0951603 1.35386)
(-0.0930814 0.0930814 1.34718)
(-0.150949 0.0889603 1.33012)
(-0.201254 0.0828729 1.29483)
(-0.238691 0.0749073 1.22845)
(0.244373 0.0254186 1.24164)
(0.206125 0.028032 1.3053)
(0.154445 0.0300423 1.3384)
(0.0951603 0.0314033 1.35386)
(0.0320911 0.0320911 1.35968)
(-0.0320911 0.0320911 1.35968)
(-0.0951603 0.0314033 1.35386)
(-0.154445 0.0300423 1.3384)
(-0.206125 0.028032 1.3053)
(-0.244373 0.0254186 1.24164)
(0.244373 -0.0254186 1.24164)
(0.206125 -0.028032 1.3053)
(0.154445 -0.0300423 1.3384)
(0.0951603 -0.0314033 1.35386)
(0.0320911 -0.0320911 1.35968)
(-0.0320911 -0.0320911 1.35968)
(-0.0951603 -0.0314033 1.35386)
(-0.154445 -0.0300423 1.3384)
(-0.206125 -0.028032 1.3053)
(-0.244373 -0.0254186 1.24164)
(0.238691 -0.0749073 1.22845)
(0.201254 -0.0828729 1.29483)
(0.150949 -0.0889603 1.33012)
(0.0930814 -0.0930814 1.34718)
(0.0314033 -0.0951603 1.35386)
(-0.0314033 -0.0951603 1.35386)
(-0.0930814 -0.0930814 1.34718)
(-0.150949 -0.0889603 1.33012)
(-0.201254 -0.0828729 1.29483)
(-0.238691 -0.0749073 1.22845)
(0.227428 -0.120413 1.20061)
(0.191552 -0.133812 1.2712)
(0.144016 -0.144016 1.31018)
(0.0889603 -0.150949 1.33012)
(0.0300423 -0.154445 1.3384)
(-0.0300423 -0.154445 1.3384)
(-0.0889603 -0.150949 1.33012)
(-0.144016 -0.144016 1.31018)
(-0.191552 -0.133812 1.2712)
(-0.227428 -0.120413 1.20061)
(0.210916 -0.158705 1.15542)
(0.177282 -0.177282 1.22847)
(0.133812 -0.191552 1.2712)
(0.0828729 -0.201254 1.29483)
(0.028032 -0.206125 1.3053)
(-0.028032 -0.206125 1.3053)
(-0.0828729 -0.201254 1.29483)
(-0.133812 -0.191552 1.2712)
(-0.177282 -0.177282 1.22847)
(-0.210916 -0.158705 1.15542)
(0.190583 -0.190583 1.08823)
(0.158705 -0.210916 1.15542)
(0.120413 -0.227428 1.20061)
(0.0749073 -0.238691 1.22845)
(0.0254186 -0.244373 1.24164)
(-0.0254186 -0.244373 1.24164)
(-0.0749073 -0.238691 1.22845)
(-0.120413 -0.227428 1.20061)
(-0.158705 -0.210916 1.15542)
(-0.190583 -0.190583 1.08823)
(0.0361154 0.0361154 1.25172)
(0.0336561 0.0447021 1.37272)
(0.0277157 0.051839 1.46105)
(0.0181365 0.0573125 1.51886)
(0.00632068 0.0601635 1.54733)
(-0.00632068 0.0601635 1.54733)
(-0.0181365 0.0573125 1.51886)
(-0.0277157 0.051839 1.46105)
(-0.0336561 0.0447021 1.37272)
(-0.0361154 0.0361154 1.25172)
(0.0447021 0.0336561 1.37272)
(0.0427353 0.0427353 1.51634)
(0.0353661 0.0503583 1.61126)
(0.0231558 0.0559693 1.66939)
(0.00804882 0.0589227 1.697)
(-0.00804882 0.0589227 1.697)
(-0.0231558 0.0559693 1.66939)
(-0.0353661 0.0503583 1.61126)
(-0.0427353 0.0427353 1.51634)
(-0.0447021 0.0336561 1.37272)
(0.051839 0.0277157 1.46105)
(0.0503583 0.0353661 1.61126)
(0.0416965 0.0416965 1.70804)
(0.0273297 0.0463065 1.76543)
(0.00950046 0.0487397 1.79204)
(-0.00950047 0.0487397 1.79204)
(-0.0273297 0.0463065 1.76543)
(-0.0416965 0.0416965 1.70804)
(-0.0503583 0.0353661 1.61126)
(-0.051839 0.0277157 1.46105)
(0.0573125 0.0181365 1.51886)
(0.0559693 0.0231558 1.66939)
(0.0463065 0.0273297 1.76543)
(0.0303425 0.0303425 1.82147)
(0.0105449 0.0319248 1.84711)
(-0.0105449 0.0319248 1.84711)
(-0.0303425 0.0303425 1.82147)
(-0.0463065 0.0273297 1.76543)
(-0.0559693 0.0231558 1.66939)
(-0.0573125 0.0181365 1.51886)
(0.0601635 0.00632068 1.54733)
(0.0589227 0.00804882 1.697)
(0.0487397 0.00950046 1.79204)
(0.0319248 0.0105449 1.84711)
(0.0110924 0.0110924 1.87214)
(-0.0110924 0.0110924 1.87214)
(-0.0319248 0.0105449 1.84711)
(-0.0487397 0.00950046 1.79204)
(-0.0589227 0.00804882 1.697)
(-0.0601635 0.00632068 1.54733)
(0.0601635 -0.00632068 1.54733)
(0.0589227 -0.00804882 1.697)
(0.0487397 -0.00950047 1.79204)
(0.0319248 -0.0105449 1.84711)
(0.0110924 -0.0110924 1.87214)
(-0.0110924 -0.0110924 1.87214)
(-0.0319248 -0.0105449 1.84711)
(-0.0487397 -0.00950047 1.79204)
(-0.0589227 -0.00804882 1.697)
(-0.0601635 -0.00632068 1.54733)
(0.0573125 -0.0181365 1.51886)
(0.0559693 -0.0231558 1.66939)
(0.0463065 -0.0273297 1.76543)
(0.0303425 -0.0303425 1.82147)
(0.0105449 -0.0319248 1.84711)
(-0.0105449 -0.0319248 1.84711)
(-0.0303425 -0.0303425 1.82147)
(-0.0463065 -0.0273297 1.76543)
(-0.0559693 -0.0231558 1.66939)
(-0.0573125 -0.0181365 1.51886)
(0.051839 -0.0277157 1.46105)
(0.0503583 -0.0353661 1.61126)
(0.0416965 -0.0416965 1.70804)
(0.0273297 -0.0463065 1.76543)
(0.00950046 -0.0487397 1.79204)
(-0.00950047 -0.0487397 1.79204)
(-0.0273297 -0.0463065 1.76543)
(-0.0416965 -0.0416965 1.70804)
(-0.0503583 -0.0353661 1.61126)
(-0.051839 -0.0277157 1.46105)
(0.0447021 -0.0336561 1.37272)
(0.0427353 -0.0427353 1.51634)
(0.0353661 -0.0503583 1.61126)
(0.0231558 -0.0559693 1.66939)
(0.00804882 -0.0589227 1.697)
(-0.00804882 -0.0589227 1.697)
(-0.0231558 -0.0559693 1.66939)
(-0.0353661 -0.0503583 1.61126)
(-0.0427353 -0.0427353 1.51634)
(-0.0447021 -0.0336561 1.37272)
(0.0361154 -0.0361154 1.25172)
(0.0336561 -0.0447021 1.37272)
(0.0277157 -0.051839 1.46105)
(0.0181365 -0.0573125 1.51886)
(0.00632068 -0.0601635 1.54733)
(-0.00632068 -0.0601635 1.54733)
(-0.0181365 -0.0573125 1.51886)
(-0.0277157 -0.051839 1.46105)
(-0.0336561 -0.0447021 1.37272)
(-0.0361154 -0.0361154 1.25172)
(0.0167691 0.0167691 1.06119)
(0.0155789 0.0208666 1.19282)
(0.0131439 0.024495 1.29436)
(0.00873156 0.0273223 1.36347)
(0.00306094 0.0288345 1.39834)
(-0.00306094 0.0288345 1.39834)
(-0.00873157 0.0273223 1.36347)
(-0.0131439 0.024495 1.29436)
(-0.0155789 0.0208666 1.19282)
(-0.0167691 0.0167691 1.06119)
(0.0208666 0.0155789 1.19282)
(0.0202761 0.0202761 1.35777)
(0.0172632 0.0243525 1.47522)
(0.0115521 0.0274499 1.55129)
(0.00405636 0.0291174 1.58872)
(-0.00405636 0.0291174 1.58872)
(-0.0115521 0.0274499 1.55129)
(-0.0172632 0.0243525 1.47522)
(-0.0202761 0.0202761 1.35777)
(-0.0208666 0.0155789 1.19282)
(0.024495 0.0131439 1.29436)
(0.0243525 0.0172632 1.47522)
(0.0208535 0.0208535 1.60216)
(0.0140071 0.0235389 1.68284)
(0.00492594 0.0249798 1.72201)
(-0.00492594 0.0249798 1.72201)
(-0.0140071 0.0235389 1.68284)
(-0.0208535 0.0208535 1.60216)
(-0.0243525 0.0172632 1.47522)
(-0.024495 0.0131439 1.29436)
(0.0273223 0.00873156 1.36347)
(0.0274499 0.0115521 1.55129)
(0.0235389 0.0140071 1.68284)
(0.0158279 0.0158279 1.76586)
(0.00556959 0.0168009 1.80592)
(-0.00556959 0.0168009 1.80592)
(-0.0158279 0.0158279 1.76586)
(-0.0235389 0.0140071 1.68284)
(-0.0274499 0.0115521 1.55129)
(-0.0273223 0.00873157 1.36347)
(0.0288345 0.00306094 1.39834)
(0.0291174 0.00405636 1.58872)
(0.0249798 0.00492594 1.72201)
(0.0168009 0.00556959 1.80592)
(0.00591299 0.00591299 1.84631)
(-0.00591299 0.00591299 1.84631)
(-0.0168009 0.00556959 1.80592)
(-0.0249798 0.00492594 1.72201)
(-0.0291174 0.00405636 1.58872)
(-0.0288345 0.00306094 1.39834)
(0.0288345 -0.00306094 1.39834)
(0.0291174 -0.00405636 1.58872)
(0.0249798 -0.00492594 1.72201)
(0.0168009 -0.00556959 1.80592)
(0.00591299 -0.00591299 1.84631)
(-0.00591299 -0.00591299 1.84631)
(-0.0168009 -0.00556959 1.80592)
(-0.0249798 -0.00492594 1.72201)
(-0.0291174 -0.00405636 1.58872)
(-0.0288345 -0.00306094 1.39834)
(0.0273223 -0.00873157 1.36347)
(0.0274499 -0.0115521 1.55129)
(0.0235389 -0.0140071 1.68284)
(0.0158279 -0.0158279 1.76586)
(0.00556959 -0.0168009 1.80592)
(-0.00556959 -0.0168009 1.80592)
(-0.0158279 -0.0158279 1.76586)
(-0.0235389 -0.0140071 1.68284)
(-0.0274499 -0.0115521 1.55129)
(-0.0273223 -0.00873157 1.36347)
(0.024495 -0.0131439 1.29436)
(0.0243525 -0.0172632 1.47522)
(0.0208535 -0.0208535 1.60216)
(0.0140071 -0.0235389 1.68284)
(0.00492594 -0.0249798 1.72201)
(-0.00492594 -0.0249798 1.72201)
(-0.0140071 -0.0235389 1.68284)
(-0.0208535 -0.0208535 1.60216)
(-0.0243525 -0.0172632 1.47522)
(-0.024495 -0.0131439 1.29436)
(0.0208666 -0.0155789 1.19282)
(0.0202761 -0.0202761 1.35777)
(0.0172632 -0.0243525 1.47522)
(0.0115521 -0.0274499 1.55129)
(0.00405636 -0.0291174 1.58872)
(-0.00405636 -0.0291174 1.58872)
(-0.0115521 -0.0274499 1.55129)
(-0.0172632 -0.0243525 1.47522)
(-0.0202761 -0.0202761 1.35777)
(-0.0208666 -0.0155789 1.19282)
(0.0167691 -0.0167691 1.06119)
(0.0155789 -0.0208666 1.19282)
(0.0131439 -0.024495 1.29436)
(0.00873157 -0.0273223 1.36347)
(0.00306094 -0.0288345 1.39834)
(-0.00306094 -0.0288345 1.39834)
(-0.00873157 -0.0273223 1.36347)
(-0.0131439 -0.024495 1.29436)
(-0.0155789 -0.0208666 1.19282)
(-0.0167691 -0.0167691 1.06119)
(0.0026538 0.0026538 1.16316)
(0.00317621 0.00386078 1.3061)
(0.00290862 0.00496819 1.41718)
(0.00204428 0.00586427 1.49329)
(0.000736391 0.00635846 1.53187)
(-0.000736393 0.00635846 1.53187)
(-0.00204428 0.00586427 1.49329)
(-0.00290862 0.00496819 1.41718)
(-0.00317622 0.00386078 1.3061)
(-0.0026538 0.0026538 1.16316)
(0.00386078 0.00317621 1.3061)
(0.00468005 0.00468005 1.48651)
(0.00432057 0.00607477 1.61661)
(0.00304083 0.00717443 1.7019)
(0.00109527 0.00778208 1.74422)
(-0.00109527 0.00778208 1.74422)
(-0.00304084 0.00717443 1.7019)
(-0.00432057 0.00607477 1.61661)
(-0.00468005 0.00468005 1.48651)
(-0.00386078 0.00317621 1.3061)
(0.00496819 0.00290862 1.41718)
(0.00607477 0.00432057 1.61661)
(0.00562333 0.00562333 1.75906)
(0.00396046 0.00664586 1.85111)
(0.00142647 0.00720973 1.89633)
(-0.00142647 0.00720973 1.89633)
(-0.00396046 0.00664586 1.85111)
(-0.00562333 0.00562333 1.75906)
(-0.00607478 0.00432057 1.61661)
(-0.0049682 0.00290862 1.41718)
(0.00586427 0.00204428 1.49329)
(0.00717443 0.00304083 1.7019)
(0.00664586 0.00396046 1.85111)
(0.00468365 0.00468365 1.94716)
(0.00168742 0.00508271 1.99417)
(-0.00168742 0.00508271 1.99417)
(-0.00468365 0.00468365 1.94716)
(-0.00664586 0.00396046 1.85111)
(-0.00717443 0.00304083 1.7019)
(-0.00586427 0.00204428 1.49329)
(0.00635846 0.000736391 1.53187)
(0.00778208 0.00109527 1.74422)
(0.00720973 0.00142647 1.89633)
(0.00508271 0.00168742 1.99417)
(0.00183138 0.00183138 2.04199)
(-0.00183138 0.00183138 2.04199)
(-0.00508271 0.00168742 1.99417)
(-0.00720973 0.00142647 1.89633)
(-0.00778209 0.00109527 1.74422)
(-0.00635846 0.000736391 1.53187)
(0.00635846 -0.000736393 1.53187)
(0.00778208 -0.00109527 1.74422)
(0.00720973 -0.00142647 1.89633)
(0.00508271 -0.00168742 1.99417)
(0.00183138 -0.00183138 2.04199)
(-0.00183138 -0.00183138 2.04199)
(-0.00508271 -0.00168742 1.99417)
(-0.00720973 -0.00142647 1.89633)
(-0.00778209 -0.00109527 1.74422)
(-0.00635846 -0.000736393 1.53187)
(0.00586427 -0.00204428 1.49329)
(0.00717443 -0.00304084 1.7019)
(0.00664586 -0.00396046 1.85111)
(0.00468365 -0.00468365 1.94716)
(0.00168742 -0.00508271 1.99417)
(-0.00168742 -0.00508271 1.99417)
(-0.00468365 -0.00468365 1.94716)
(-0.00664586 -0.00396046 1.85111)
(-0.00717443 -0.00304084 1.7019)
(-0.00586427 -0.00204428 1.49329)
(0.00496819 -0.00290862 1.41718)
(0.00607477 -0.00432057 1.61661)
(0.00562333 -0.00562333 1.75906)
(0.00396046 -0.00664586 1.85111)
(0.00142647 -0.00720973 1.89633)
(-0.00142647 -0.00720973 1.89633)
(-0.00396046 -0.00664586 1.85111)
(-0.00562333 -0.00562333 1.75906)
(-0.00607478 -0.00432057 1.61661)
(-0.0049682 -0.00290862 1.41718)
(0.00386078 -0.00317622 1.3061)
(0.00468005 -0.00468005 1.48651)
(0.00432057 -0.00607478 1.61661)
(0.00304083 -0.00717443 1.7019)
(0.00109527 -0.00778209 1.74422)
(-0.00109527 -0.00778209 1.74422)
(-0.00304084 -0.00717443 1.7019)
(-0.00432057 -0.00607478 1.61661)
(-0.00468005 -0.00468005 1.48651)
(-0.00386078 -0.00317622 1.3061)
(0.0026538 -0.0026538 1.16316)
(0.00317621 -0.00386078 1.3061)
(0.00290862 -0.0049682 1.41718)
(0.00204428 -0.00586427 1.49329)
(0.000736391 -0.00635846 1.53187)
(-0.000736393 -0.00635846 1.53187)
(-0.00204428 -0.00586427 1.49329)
(-0.00290862 -0.0049682 1.41718)
(-0.00317622 -0.00386078 1.3061)
(-0.0026538 -0.0026538 1.16316)
(0.00290029 0.00290029 1.07225)
(0.00246214 0.00345461 1.2118)
(0.00210688 0.00400447 1.32169)
(0.00139121 0.00444341 1.39774)
(0.000489276 0.00467914 1.43652)
(-0.000489278 0.00467914 1.43652)
(-0.00139121 0.00444341 1.39774)
(-0.00210688 0.00400447 1.32169)
(-0.00246214 0.00345461 1.2118)
(-0.00290029 0.00290029 1.07225)
(0.00345461 0.00246214 1.2118)
(0.00315286 0.00315286 1.39007)
(0.00274389 0.00378711 1.52084)
(0.00185109 0.00429602 1.60769)
(0.000654242 0.00457523 1.65113)
(-0.000654245 0.00457523 1.65113)
(-0.0018511 0.00429602 1.60769)
(-0.00274389 0.00378711 1.52084)
(-0.00315286 0.00315286 1.39007)
(-0.00345461 0.00246214 1.2118)
(0.00400447 0.00210688 1.32169)
(0.00378711 0.00274389 1.52084)
(0.00334185 0.00334185 1.66581)
(0.00228046 0.00380983 1.76093)
(0.000809266 0.00406702 1.80811)
(-0.00080927 0.00406702 1.80811)
(-0.00228047 0.00380983 1.76093)
(-0.00334185 0.00334185 1.66581)
(-0.00378711 0.00274389 1.52084)
(-0.00400448 0.00210688 1.32169)
(0.00444341 0.00139121 1.39774)
(0.00429602 0.00185109 1.60769)
(0.00380983 0.00228046 1.76093)
(0.00261325 0.00261325 1.86125)
(0.000929745 0.00279631 1.91087)
(-0.00092975 0.00279631 1.91087)
(-0.00261326 0.00261325 1.86125)
(-0.00380984 0.00228046 1.76093)
(-0.00429603 0.00185109 1.60769)
(-0.00444341 0.00139121 1.39774)
(0.00467914 0.000489276 1.43652)
(0.00457523 0.000654242 1.65113)
(0.00406702 0.000809266 1.80811)
(0.00279631 0.000929745 1.91087)
(0.000996098 0.000996098 1.96166)
(-0.000996103 0.000996098 1.96166)
(-0.00279631 0.000929745 1.91087)
(-0.00406702 0.000809266 1.80811)
(-0.00457524 0.000654242 1.65113)
(-0.00467914 0.000489276 1.43652)
(0.00467914 -0.000489278 1.43652)
(0.00457523 -0.000654245 1.65113)
(0.00406702 -0.00080927 1.80811)
(0.00279631 -0.00092975 1.91087)
(0.000996098 -0.000996103 1.96166)
(-0.000996103 -0.000996103 1.96166)
(-0.00279631 -0.00092975 1.91087)
(-0.00406702 -0.00080927 1.80811)
(-0.00457524 -0.000654245 1.65113)
(-0.00467914 -0.000489278 1.43652)
(0.00444341 -0.00139121 1.39774)
(0.00429602 -0.0018511 1.60769)
(0.00380983 -0.00228047 1.76093)
(0.00261325 -0.00261326 1.86125)
(0.000929745 -0.00279631 1.91087)
(-0.00092975 -0.00279631 1.91087)
(-0.00261326 -0.00261326 1.86125)
(-0.00380984 -0.00228047 1.76093)
(-0.00429603 -0.0018511 1.60769)
(-0.00444341 -0.00139121 1.39774)
(0.00400447 -0.00210688 1.32169)
(0.00378711 -0.00274389 1.52084)
(0.00334185 -0.00334185 1.66581)
(0.00228046 -0.00380984 1.76093)
(0.000809266 -0.00406702 1.80811)
(-0.00080927 -0.00406702 1.80811)
(-0.00228047 -0.00380984 1.76093)
(-0.00334185 -0.00334185 1.66581)
(-0.00378711 -0.00274389 1.52084)
(-0.00400448 -0.00210688 1.32169)
(0.00345461 -0.00246214 1.2118)
(0.00315286 -0.00315286 1.39007)
(0.00274389 -0.00378711 1.52084)
(0.00185109 -0.00429603 1.60769)
(0.000654242 -0.00457524 1.65113)
(-0.000654245 -0.00457524 1.65113)
(-0.0018511 -0.00429603 1.60769)
(-0.00274389 -0.00378711 1.52084)
(-0.00315286 -0.00315286 1.39007)
(-0.00345461 -0.00246214 1.2118)
(0.00290029 -0.00290029 1.07225)
(0.00246214 -0.00345461 1.2118)
(0.00210688 -0.00400448 1.32169)
(0.00139121 -0.00444341 1.39774)
(0.000489276 -0.00467914 1.43652)
(-0.000489278 -0.00467914 1.43652)
(-0.00139121 -0.00444341 1.39774)
(-0.00210688 -0.00400448 1.32169)
(-0.00246214 -0.00345461 1.2118)
(-0.00290029 -0.00290029 1.07225)
(-0.000678443 -0.000678443 1.13196)
(-0.000279823 -0.000517078 1.27545)
(-0.000207636 -0.000503855 1.38809)
(-6.24991e-05 -0.000424988 1.46588)
(-3.30842e-05 -0.000396324 1.50553)
(3.30838e-05 -0.000396324 1.50553)
(6.24989e-05 -0.000424988 1.46588)
(0.000207636 -0.000503854 1.38809)
(0.000279823 -0.000517078 1.27545)
(0.000678443 -0.000678442 1.13196)
(-0.000517078 -0.000279823 1.27545)
(-7.33458e-05 -7.33458e-05 1.4582)
(-2.64519e-05 1.83242e-05 1.59186)
(8.5972e-05 0.000157638 1.68052)
(1.49512e-05 0.000222395 1.72485)
(-1.49525e-05 0.000222395 1.72485)
(-8.59731e-05 0.000157639 1.68052)
(2.64511e-05 1.83249e-05 1.59186)
(7.3345e-05 -7.33452e-05 1.4582)
(0.000517078 -0.000279823 1.27545)
(-0.000503855 -0.000207636 1.38809)
(1.83242e-05 -2.64519e-05 1.59186)
(6.7016e-05 6.7016e-05 1.73991)
(0.000172672 0.00018039 1.837)
(4.67432e-05 0.000242065 1.88517)
(-4.67455e-05 0.000242065 1.88517)
(-0.000172674 0.000180391 1.837)
(-6.70177e-05 6.70165e-05 1.73991)
(-1.83258e-05 -2.64515e-05 1.59186)
(0.000503854 -0.000207636 1.38809)
(-0.000424988 -6.24992e-05 1.46588)
(0.000157638 8.5972e-05 1.68052)
(0.00018039 0.000172672 1.837)
(0.000260254 0.000260254 1.93945)
(7.99117e-05 0.000309808 1.99017)
(-7.99147e-05 0.000309808 1.99017)
(-0.000260257 0.000260254 1.93945)
(-0.000180393 0.000172672 1.837)
(-0.000157641 8.59724e-05 1.68052)
(0.000424987 -6.2499e-05 1.46588)
(-0.000396324 -3.30842e-05 1.50553)
(0.000222395 1.49512e-05 1.72485)
(0.000242065 4.67432e-05 1.88517)
(0.000309808 7.99117e-05 1.99017)
(9.85042e-05 9.85042e-05 2.04213)
(-9.85077e-05 9.85043e-05 2.04213)
(-0.000309811 7.99117e-05 1.99017)
(-0.000242068 4.67433e-05 1.88517)
(-0.000222397 1.49513e-05 1.72485)
(0.000396322 -3.30842e-05 1.50553)
(-0.000396324 3.30838e-05 1.50553)
(0.000222395 -1.49525e-05 1.72485)
(0.000242065 -4.67455e-05 1.88517)
(0.000309808 -7.99147e-05 1.99017)
(9.85042e-05 -9.85077e-05 2.04213)
(-9.85078e-05 -9.85077e-05 2.04213)
(-0.000309812 -7.99148e-05 1.99017)
(-0.000242068 -4.67456e-05 1.88517)
(-0.000222398 -1.49527e-05 1.72485)
(0.000396322 3.30837e-05 1.50553)
(-0.000424988 6.24988e-05 1.46588)
(0.000157639 -8.59732e-05 1.68052)
(0.000180391 -0.000172674 1.837)
(0.000260254 -0.000260257 1.93945)
(7.99116e-05 -0.000309811 1.99017)
(-7.99148e-05 -0.000309811 1.99017)
(-0.000260257 -0.000260257 1.93945)
(-0.000180393 -0.000172674 1.837)
(-0.000157641 -8.59737e-05 1.68052)
(0.000424987 6.24985e-05 1.46588)
(-0.000503854 0.000207636 1.38809)
(1.83248e-05 2.6451e-05 1.59186)
(6.70164e-05 -6.70177e-05 1.73991)
(0.000172672 -0.000180393 1.837)
(4.67432e-05 -0.000242068 1.88517)
(-4.67457e-05 -0.000242068 1.88517)
(-0.000172674 -0.000180393 1.837)
(-6.70183e-05 -6.70183e-05 1.73991)
(-1.83266e-05 2.64505e-05 1.59186)
(0.000503853 0.000207635 1.38809)
(-0.000517078 0.000279823 1.27545)
(-7.33453e-05 7.3345e-05 1.4582)
(-2.64515e-05 -1.83258e-05 1.59186)
(8.59723e-05 -0.000157641 1.68052)
(1.49512e-05 -0.000222397 1.72485)
(-1.49528e-05 -0.000222398 1.72485)
(-8.59737e-05 -0.000157641 1.68052)
(2.64505e-05 -1.83265e-05 1.59186)
(7.33443e-05 7.33443e-05 1.4582)
(0.000517077 0.000279822 1.27545)
(-0.000678442 0.000678443 1.13196)
(-0.000279823 0.000517078 1.27545)
(-0.000207636 0.000503854 1.38809)
(-6.24991e-05 0.000424987 1.46588)
(-3.30843e-05 0.000396322 1.50553)
(3.30836e-05 0.000396322 1.50553)
(6.24984e-05 0.000424987 1.46588)
(0.000207635 0.000503853 1.38809)
(0.000279822 0.000517077 1.27545)
(0.000678442 0.000678442 1.13196)
(0.00114018 0.00114018 1.08761)
(0.000846832 0.00127533 1.22887)
(0.000699122 0.0014226 1.34033)
(0.000439213 0.00153432 1.41756)
(0.000151895 0.00158983 1.457)
(-0.000151893 0.00158983 1.457)
(-0.00043921 0.00153432 1.41756)
(-0.00069912 0.0014226 1.34033)
(-0.00084683 0.00127533 1.22887)
(-0.00114017 0.00114018 1.08761)
(0.00127533 0.000846832 1.22887)
(0.00099771 0.00099771 1.40956)
(0.000831723 0.00113785 1.54251)
(0.000536612 0.00125092 1.63104)
(0.000184778 0.00130926 1.67542)
(-0.000184775 0.00130926 1.67542)
(-0.00053661 0.00125092 1.63104)
(-0.00083172 0.00113785 1.54251)
(-0.000997708 0.000997711 1.40956)
(-0.00127533 0.000846832 1.22887)
(0.0014226 0.000699122 1.34033)
(0.00113785 0.000831723 1.54251)
(0.000962876 0.000962876 1.69034)
(0.000629218 0.00106055 1.78769)
(0.000217524 0.0011126 1.83613)
(-0.000217522 0.0011126 1.83613)
(-0.000629216 0.00106055 1.78769)
(-0.000962874 0.000962876 1.69034)
(-0.00113785 0.000831723 1.54251)
(-0.0014226 0.000699123 1.34033)
(0.00153432 0.000439213 1.41756)
(0.00125092 0.000536612 1.63104)
(0.00106055 0.000629218 1.78769)
(0.000697358 0.000697358 1.89072)
(0.000241692 0.00073369 1.94187)
(-0.00024169 0.00073369 1.94187)
(-0.000697356 0.000697358 1.89072)
(-0.00106055 0.000629218 1.78769)
(-0.00125091 0.000536613 1.63104)
(-0.00153432 0.000439213 1.41756)
(0.00158983 0.000151895 1.457)
(0.00130926 0.000184777 1.67542)
(0.0011126 0.000217524 1.83613)
(0.00073369 0.000241692 1.94187)
(0.000254613 0.000254613 1.99436)
(-0.000254612 0.000254613 1.99436)
(-0.000733689 0.000241692 1.94187)
(-0.0011126 0.000217524 1.83613)
(-0.00130926 0.000184778 1.67542)
(-0.00158983 0.000151895 1.457)
(0.00158983 -0.000151893 1.457)
(0.00130926 -0.000184775 1.67542)
(0.0011126 -0.000217522 1.83613)
(0.00073369 -0.00024169 1.94187)
(0.000254613 -0.000254612 1.99436)
(-0.000254612 -0.000254612 1.99436)
(-0.000733689 -0.00024169 1.94187)
(-0.0011126 -0.000217522 1.83613)
(-0.00130926 -0.000184775 1.67542)
(-0.00158983 -0.000151893 1.457)
(0.00153432 -0.00043921 1.41756)
(0.00125092 -0.00053661 1.63104)
(0.00106055 -0.000629216 1.78769)
(0.000697358 -0.000697356 1.89072)
(0.000241691 -0.000733689 1.94187)
(-0.00024169 -0.000733689 1.94187)
(-0.000697356 -0.000697356 1.89072)
(-0.00106055 -0.000629216 1.78769)
(-0.00125091 -0.00053661 1.63104)
(-0.00153432 -0.000439211 1.41756)
(0.0014226 -0.00069912 1.34033)
(0.00113785 -0.000831721 1.54251)
(0.000962876 -0.000962874 1.69034)
(0.000629218 -0.00106055 1.78769)
(0.000217524 -0.0011126 1.83613)
(-0.000217522 -0.0011126 1.83613)
(-0.000629216 -0.00106055 1.78769)
(-0.000962874 -0.000962874 1.69034)
(-0.00113785 -0.000831721 1.54251)
(-0.0014226 -0.000699121 1.34033)
(0.00127533 -0.00084683 1.22887)
(0.000997711 -0.000997708 1.40956)
(0.000831723 -0.00113785 1.54251)
(0.000536612 -0.00125091 1.63104)
(0.000184777 -0.00130926 1.67542)
(-0.000184775 -0.00130926 1.67542)
(-0.00053661 -0.00125091 1.63104)
(-0.000831721 -0.00113785 1.54251)
(-0.000997709 -0.000997709 1.40956)
(-0.00127533 -0.000846831 1.22887)
(0.00114018 -0.00114017 1.08761)
(0.000846832 -0.00127533 1.22887)
(0.000699123 -0.0014226 1.34033)
(0.000439213 -0.00153432 1.41756)
(0.000151895 -0.00158983 1.457)
(-0.000151893 -0.00158983 1.457)
(-0.000439211 -0.00153432 1.41756)
(-0.000699121 -0.0014226 1.34033)
(-0.000846831 -0.00127533 1.22887)
(-0.00114018 -0.00114018 1.08761)
(-0.0006651 -0.0006651 1.11765)
(-0.000434913 -0.000698046 1.26062)
(-0.000345177 -0.000752335 1.3731)
(-0.000200847 -0.000783992 1.45092)
(-6.9568e-05 -0.000797318 1.49062)
(6.95724e-05 -0.000797318 1.49062)
(0.000200851 -0.000783992 1.45092)
(0.000345181 -0.000752335 1.3731)
(0.000434916 -0.000698046 1.26062)
(0.000665102 -0.0006651 1.11765)
(-0.000698046 -0.000434913 1.26062)
(-0.000454794 -0.000454794 1.44306)
(-0.000357528 -0.000483901 1.57689)
(-0.000207271 -0.00049925 1.66587)
(-7.00382e-05 -0.000504974 1.71043)
(7.00435e-05 -0.000504973 1.71043)
(0.000207276 -0.000499249 1.66587)
(0.000357533 -0.0004839 1.57689)
(0.000454797 -0.000454794 1.44306)
(0.000698049 -0.000434912 1.26062)
(-0.000752335 -0.000345178 1.3731)
(-0.000483901 -0.000357528 1.57689)
(-0.000382468 -0.000382469 1.72546)
(-0.00022026 -0.000390699 1.82316)
(-7.43301e-05 -0.000394248 1.87173)
(7.4336e-05 -0.000394248 1.87173)
(0.000220266 -0.000390699 1.82316)
(0.000382473 -0.000382468 1.72546)
(0.000483905 -0.000357528 1.57689)
(0.000752338 -0.000345177 1.3731)
(-0.000783992 -0.000200847 1.45092)
(-0.00049925 -0.000207272 1.66587)
(-0.000390699 -0.00022026 1.82316)
(-0.000222589 -0.000222589 1.92647)
(-7.46612e-05 -0.000223066 1.97773)
(7.46674e-05 -0.000223066 1.97773)
(0.000222595 -0.000222589 1.92647)
(0.000390704 -0.00022026 1.82316)
(0.000499254 -0.000207271 1.66587)
(0.000783995 -0.000200847 1.45092)
(-0.000797318 -6.95682e-05 1.49062)
(-0.000504973 -7.00385e-05 1.71043)
(-0.000394248 -7.43303e-05 1.87173)
(-0.000223066 -7.46614e-05 1.97773)
(-7.47246e-05 -7.47247e-05 2.0303)
(7.47309e-05 -7.47246e-05 2.0303)
(0.000223072 -7.46613e-05 1.97773)
(0.000394253 -7.43301e-05 1.87173)
(0.000504978 -7.00382e-05 1.71043)
(0.000797321 -6.9568e-05 1.49062)
(-0.000797318 6.95721e-05 1.49062)
(-0.000504973 7.00433e-05 1.71043)
(-0.000394248 7.43358e-05 1.87173)
(-0.000223066 7.46673e-05 1.97773)
(-7.47246e-05 7.47308e-05 2.0303)
(7.47309e-05 7.47308e-05 2.0303)
(0.000223072 7.46673e-05 1.97773)
(0.000394253 7.43358e-05 1.87173)
(0.000504978 7.00433e-05 1.71043)
(0.000797321 6.95722e-05 1.49062)
(-0.000783992 0.000200851 1.45092)
(-0.000499249 0.000207276 1.66587)
(-0.000390699 0.000220266 1.82316)
(-0.000222589 0.000222595 1.92647)
(-7.46613e-05 0.000223072 1.97773)
(7.46673e-05 0.000223071 1.97773)
(0.000222594 0.000222595 1.92647)
(0.000390704 0.000220265 1.82316)
(0.000499253 0.000207276 1.66587)
(0.000783995 0.000200851 1.45092)
(-0.000752335 0.000345181 1.3731)
(-0.0004839 0.000357532 1.57689)
(-0.000382468 0.000382473 1.72546)
(-0.00022026 0.000390704 1.82316)
(-7.43302e-05 0.000394253 1.87173)
(7.43357e-05 0.000394253 1.87173)
(0.000220265 0.000390704 1.82316)
(0.000382473 0.000382473 1.72546)
(0.000483904 0.000357532 1.57689)
(0.000752338 0.000345181 1.3731)
(-0.000698046 0.000434916 1.26062)
(-0.000454794 0.000454797 1.44306)
(-0.000357528 0.000483905 1.57689)
(-0.000207271 0.000499254 1.66587)
(-7.00383e-05 0.000504978 1.71043)
(7.00432e-05 0.000504978 1.71043)
(0.000207276 0.000499253 1.66587)
(0.000357532 0.000483904 1.57689)
(0.000454797 0.000454797 1.44306)
(0.000698048 0.000434915 1.26062)
(-0.0006651 0.000665102 1.11765)
(-0.000434913 0.000698048 1.26062)
(-0.000345177 0.000752338 1.3731)
(-0.000200847 0.000783995 1.45092)
(-6.95681e-05 0.000797321 1.49062)
(6.95721e-05 0.000797321 1.49062)
(0.000200851 0.000783995 1.45092)
(0.000345181 0.000752338 1.3731)
(0.000434915 0.000698048 1.26062)
(0.000665102 0.000665102 1.11765)
(0.000577585 0.000577584 1.09682)
(0.000413573 0.000638804 1.23872)
(0.000333423 0.000704789 1.35062)
(0.000203832 0.00075147 1.42814)
(7.04857e-05 0.00077387 1.46773)
(-7.04826e-05 0.00077387 1.46773)
(-0.000203829 0.000751469 1.42814)
(-0.000333421 0.000704789 1.35062)
(-0.000413571 0.000638804 1.23872)
(-0.000577583 0.000577584 1.09682)
(0.000638804 0.000413573 1.23872)
(0.000469649 0.000469649 1.42016)
(0.000378735 0.000522329 1.55359)
(0.000236208 0.000562669 1.64244)
(8.07933e-05 0.000582465 1.68698)
(-8.07889e-05 0.000582465 1.68698)
(-0.000236204 0.000562669 1.64244)
(-0.000378731 0.000522329 1.55359)
(-0.000469646 0.000469648 1.42016)
(-0.000638802 0.000413572 1.23872)
(0.00070479 0.000333423 1.35062)
(0.000522329 0.000378735 1.55359)
(0.000426611 0.000426611 1.70194)
(0.000268087 0.000459038 1.79966)
(9.18726e-05 0.000475682 1.84829)
(-9.18671e-05 0.000475682 1.84829)
(-0.000268082 0.000459038 1.79966)
(-0.000426607 0.000426611 1.70194)
(-0.000522326 0.000378735 1.55359)
(-0.000704787 0.000333423 1.35062)
(0.00075147 0.000203832 1.42814)
(0.000562669 0.000236207 1.64244)
(0.000459038 0.000268087 1.79966)
(0.000289312 0.000289312 1.9031)
(9.91228e-05 0.000299962 1.95447)
(-9.91165e-05 0.000299962 1.95447)
(-0.000289307 0.000289312 1.9031)
(-0.000459033 0.000268087 1.79966)
(-0.000562665 0.000236207 1.64244)
(-0.000751467 0.000203832 1.42814)
(0.00077387 7.04854e-05 1.46773)
(0.000582465 8.0793e-05 1.68698)
(0.000475683 9.18723e-05 1.84829)
(0.000299962 9.91225e-05 1.95447)
(0.000102737 0.000102737 2.00718)
(-0.000102731 0.000102737 2.00718)
(-0.000299956 9.91227e-05 1.95447)
(-0.000475677 9.18725e-05 1.84829)
(-0.000582461 8.07932e-05 1.68698)
(-0.000773867 7.04856e-05 1.46773)
(0.00077387 -7.04829e-05 1.46773)
(0.000582465 -8.07892e-05 1.68698)
(0.000475683 -9.18674e-05 1.84829)
(0.000299962 -9.91168e-05 1.95447)
(0.000102737 -0.000102731 2.00718)
(-0.000102731 -0.000102731 2.00718)
(-0.000299956 -9.91166e-05 1.95447)
(-0.000475677 -9.18672e-05 1.84829)
(-0.000582461 -8.0789e-05 1.68698)
(-0.000773867 -7.04827e-05 1.46773)
(0.000751469 -0.00020383 1.42814)
(0.000562669 -0.000236204 1.64244)
(0.000459038 -0.000268082 1.79966)
(0.000289312 -0.000289307 1.9031)
(9.91227e-05 -0.000299956 1.95447)
(-9.91166e-05 -0.000299956 1.95447)
(-0.000289307 -0.000289307 1.9031)
(-0.000459033 -0.000268082 1.79966)
(-0.000562665 -0.000236203 1.64244)
(-0.000751467 -0.000203829 1.42814)
(0.000704789 -0.000333421 1.35062)
(0.000522329 -0.000378732 1.55359)
(0.000426611 -0.000426607 1.70194)
(0.000268087 -0.000459033 1.79966)
(9.18725e-05 -0.000475677 1.84829)
(-9.18673e-05 -0.000475677 1.84829)
(-0.000268082 -0.000459033 1.79966)
(-0.000426607 -0.000426607 1.70194)
(-0.000522326 -0.000378731 1.55359)
(-0.000704787 -0.00033342 1.35062)
(0.000638804 -0.000413571 1.23872)
(0.000469648 -0.000469646 1.42016)
(0.000378735 -0.000522326 1.55359)
(0.000236207 -0.000562665 1.64244)
(8.07931e-05 -0.000582461 1.68698)
(-8.07891e-05 -0.000582461 1.68698)