/*--------------------------------*- C++ -*----------------------------------*\
| =========                 |                                                 |
| \\      /  F ield         | OpenFOAM: The Open Source CFD Toolbox           |
|  \\    /   O peration     | Version:  2406                                  |
|   \\  /    A nd           | Website:  www.openfoam.com                      |
|    \\/     M anipulation  |                                                 |
\*---------------------------------------------------------------------------*/
FoamFile
{
    version     2.0;
    format      ascii;
    arch        "LSB;label=32;scalar=64";
    class       volScalarField;
    location    "0.3";
    object      nu;
}
// * * * * * * * * * * * * * * * * * * * * * * * * * * * * * * * * * * * * * //

dimensions      [0 2 -1 0 0 0 0];

internalField   nonuniform List<scalar> 
16000
(
0.00645724
0.00654597
0.00656614
0.0065675
0.00656753
0.00656621
0.00654605
0.00645732
0.00654597
0.00654909
0.00653128
0.00652302
0.00652305
0.00653136
0.0065492
0.00654608
0.00656614
0.00653128
0.0065103
0.00650417
0.00650419
0.00651037
0.0065314
0.00656627
0.00656749
0.00652301
0.00650417
0.00650069
0.00650072
0.00650424
0.00652314
0.00656764
0.00656752
0.00652304
0.00650419
0.00650072
0.00650075
0.00650427
0.00652316
0.00656766
0.0065662
0.00653135
0.00651037
0.00650425
0.00650427
0.00651044
0.00653147
0.00656633
0.00654606
0.0065492
0.0065314
0.00652314
0.00652316
0.00653147
0.0065493
0.00654616
0.00645734
0.00654609
0.00656628
0.00656765
0.00656767
0.00656634
0.00654617
0.0064574
0.00616657
0.00642687
0.00666956
0.00679875
0.00679881
0.0066698
0.00642726
0.00616696
0.00642688
0.00686717
0.00705438
0.00707634
0.00707622
0.0070542
0.00686744
0.00642741
0.00666958
0.00705436
0.00705626
0.00700049
0.00700032
0.00705581
0.00705417
0.00667009
0.00679876
0.00707627
0.00700044
0.00693133
0.00693115
0.00699996
0.00707584
0.00679917
0.00679881
0.00707611
0.00700021
0.0069311
0.00693093
0.00699976
0.00707571
0.00679921
0.00666979
0.00705408
0.00705566
0.00699985
0.0069997
0.00705528
0.00705395
0.00667029
0.00642726
0.00686737
0.00705402
0.0070757
0.00707561
0.00705391
0.00686765
0.00642775
0.00616695
0.00642739
0.00667004
0.00679909
0.00679915
0.00667025
0.00642773
0.0061673
0.00582881
0.00597224
0.00615196
0.00627045
0.00627093
0.00615307
0.00597331
0.0058294
0.00597224
0.00631988
0.00664508
0.00683985
0.00684077
0.00664727
0.00632208
0.00597346
0.00615194
0.00664504
0.00711292
0.00737415
0.00737545
0.00711635
0.00664848
0.00615384
0.00627037
0.00683974
0.00737405
0.00763577
0.00763723
0.00737803
0.00684391
0.00627272
0.00627079
0.00684057
0.00737523
0.00763707
0.0076385
0.00737911
0.00684466
0.00627311
0.00615291
0.00664705
0.00711607
0.00737776
0.00737895
0.00711924
0.00665026
0.00615471
0.00597318
0.00632189
0.00664824
0.00684368
0.00684448
0.00665018
0.00632385
0.00597428
0.0058293
0.00597333
0.00615371
0.0062726
0.00627299
0.00615462
0.00597425
0.00582981
0.00580891
0.00591127
0.00605714
0.00615752
0.00615852
0.00605924
0.00591286
0.00580893
0.00591129
0.0061915
0.00647188
0.00666034
0.00666296
0.00647719
0.00619578
0.0059127
0.00605706
0.00647171
0.00694017
0.00733374
0.00734149
0.00695191
0.00647961
0.00606007
0.00615724
0.00665981
0.0073331
0.00821961
0.00824816
0.00735462
0.00667096
0.00616147
0.00615806
0.00666214
0.00734019
0.00824609
0.00827508
0.00736146
0.00667312
0.00616226
0.00605879
0.00647638
0.0069508
0.00735344
0.00736089
0.00696198
0.00648392
0.00606169
0.00591257
0.00619521
0.00647891
0.0066703
0.00667268
0.00648374
0.00619914
0.00591384
0.0058088
0.00591241
0.00605975
0.00616118
0.00616203
0.00606156
0.00591381
0.00580873
0.00579275
0.00588368
0.00601814
0.00611169
0.00611332
0.0060214
0.00588562
0.00579153
0.00588378
0.00614079
0.00639909
0.00657717
0.00658193
0.00640827
0.00614739
0.00588487
0.00601813
0.00639884
0.00683698
0.00723025
0.00724614
0.00685875
0.00641209
0.00602206
0.00611134
0.00657623
0.00722876
0.00825507
0.00833522
0.00727204
0.00659591
0.00611756
0.0061127
0.0065804
0.00724297
0.00832717
0.00841518
0.00728663
0.0066
0.00611892
0.00602084
0.00640687
0.00685641
0.00726914
0.00728534
0.0068779
0.00641986
0.00602474
0.0058854
0.00614657
0.00641088
0.00659471
0.00659926
0.00641963
0.00615289
0.00588644
0.00579168
0.00588465
0.00602167
0.00611718
0.00611867
0.00602468
0.00588647
0.00579044
0.00579714
0.00588541
0.00601685
0.00610876
0.00611103
0.00602114
0.0058873
0.00579398
0.00588566
0.00613581
0.00638618
0.00656022
0.00656732
0.00639946
0.00614451
0.00588574
0.00601714
0.00638613
0.00680889
0.00719222
0.00721674
0.00684175
0.00640494
0.00602143
0.00610883
0.00655957
0.00719066
0.0081848
0.00831063
0.00725792
0.00658856
0.00611665
0.00611089
0.00656606
0.00721313
0.0082998
0.0084498
0.00728255
0.00659526
0.00611879
0.00602112
0.00639845
0.00683934
0.00725445
0.00728106
0.00687311
0.00641743
0.00602555
0.00588768
0.00614423
0.00640408
0.00658754
0.00659472
0.00641737
0.00615293
0.00588786
0.00579475
0.0058861
0.00602153
0.00611666
0.00611888
0.00602575
0.00588803
0.00579168
0.005795
0.00588017
0.00600912
0.00609991
0.00610276
0.00601425
0.00588177
0.00578971
0.0058805
0.00612497
0.00636983
0.00654117
0.00655049
0.00638692
0.0061354
0.00587921
0.00600988
0.00637044
0.00678188
0.00715565
0.00718835
0.00682548
0.0063944
0.00601404
0.00610099
0.00654222
0.00715609
0.00810851
0.0082752
0.0072472
0.00658023
0.00610987
0.00610398
0.00655169
0.00718869
0.00827294
0.00849221
0.00728508
0.00659036
0.00611302
0.00601557
0.00638831
0.00682636
0.00724738
0.00728534
0.00687289
0.00641304
0.00601999
0.00588314
0.00613692
0.00639573
0.00658127
0.00659114
0.00641345
0.00614762
0.005882
0.00579094
0.00588053
0.00601532
0.00611098
0.00611386
0.00602054
0.00588225
0.00578574
0.005794
0.005875
0.0060004
0.00608936
0.00609267
0.00600613
0.00587607
0.00578648
0.00587514
0.00611232
0.00635018
0.00651772
0.00652898
0.00637051
0.00612397
0.00587228
0.00600142
0.00635172
0.00675001
0.0071121
0.00715185
0.00680309
0.00637998
0.0060051
0.00609159
0.00652185
0.00711724
0.00802549
0.00822472
0.00722999
0.00656781
0.00610105
0.0060957
0.00653506
0.00716253
0.00825009
0.00854594
0.00728516
0.0065822
0.00610534
0.00600902
0.00637638
0.00681197
0.00724093
0.00729058
0.00687063
0.00640599
0.00601299
0.00587809
0.00612819
0.00638561
0.00657339
0.00658577
0.00640717
0.00614023
0.00587534
0.0057872
0.0058743
0.00600787
0.00610374
0.00610714
0.00601372
0.00587544
0.00577978
0.00579488
0.00587249
0.00599453
0.00608142
0.00608503
0.00600047
0.0058727
0.00578506
0.00587207
0.00610288
0.00633374
0.00649678
0.0065095
0.00635638
0.00611501
0.00586736
0.00599522
0.00633609
0.00672107
0.0070701
0.00711515
0.00678148
0.00636731
0.00599789
0.00608426
0.00650447
0.0070818
0.00794662
0.00816817
0.00721215
0.00655652
0.00609359
0.0060894
0.00652171
0.00714156
0.00824064
0.00862089
0.00728791
0.00657561
0.00609896
0.0060043
0.00636766
0.00680229
0.00724137
0.00730252
0.00687162
0.00640091
0.00600732
0.00587432
0.00612179
0.00637842
0.00656868
0.0065832
0.006403
0.00613446
0.00586977
0.00578382
0.00586909
0.00600173
0.00609776
0.0061015
0.00600785
0.00586942
0.00577428
0.00579822
0.00587444
0.00599453
0.00607989
0.00608348
0.00600005
0.00587333
0.00578617
0.00587325
0.00610071
0.00632669
0.00648583
0.00649923
0.00635009
0.00611208
0.00586632
0.00599426
0.00632936
0.00670412
0.00704128
0.00708922
0.0067685
0.00636134
0.00599509
0.00608235
0.00649624
0.00705939
0.00788589
0.00811792
0.00720086
0.00655129
0.00609039
0.00608805
0.00651678
0.00713243
0.00824533
0.00870571
0.00729671
0.00657452
0.00609648
0.00600363
0.00636593
0.00680202
0.00725206
0.00732308
0.00687924
0.00640097
0.00600511
0.00587337
0.00612029
0.00637748
0.00657039
0.00658645
0.00640387
0.00613273
0.00586694
0.00578192
0.0058666
0.00599902
0.00609538
0.00609925
0.00600502
0.00586593
0.00577055
0.00580196
0.00587883
0.00599874
0.00608346
0.00608667
0.00600315
0.00587611
0.00578832
0.00587693
0.00610446
0.00632875
0.00648559
0.00649866
0.00635094
0.00611374
0.00586783
0.00599727
0.00633119
0.0067011
0.00703055
0.00707851
0.00676498
0.00636115
0.00599561
0.00608476
0.00649711
0.00705308
0.00785496
0.00808616
0.00719664
0.00655093
0.00609035
0.00609031
0.00651912
0.00713447
0.00825947
0.00876936
0.00730592
0.00657644
0.00609653
0.00600543
0.006369
0.00680793
0.00726644
0.0073428
0.00688799
0.00640325
0.00600494
0.00587398
0.00612175
0.00638016
0.00657498
0.00659155
0.00640658
0.00613297
0.00586589
0.0057811
0.00586598
0.00599856
0.0060951
0.00609884
0.00600398
0.00586423
0.00576851
0.00580404
0.00588296
0.00600416
0.00608914
0.00609168
0.00600706
0.0058789
0.00579023
0.00588065
0.00611095
0.00633665
0.00649318
0.00650489
0.0063558
0.00611731
0.00587028
0.00600171
0.00633856
0.0067097
0.00703751
0.00708252
0.00676835
0.00636401
0.00599773
0.00608903
0.00650422
0.00706167
0.00785981
0.00808024
0.007197
0.00655243
0.00609172
0.00609372
0.00652528
0.00714382
0.0082778
0.00877971
0.00730764
0.00657738
0.00609724
0.00600753
0.00637322
0.00681434
0.0072749
0.007349
0.00689019
0.00640381
0.0060052
0.00587478
0.00612365
0.00638268
0.00657741
0.00659302
0.0064069
0.00613274
0.00586581
0.00578114
0.00586643
0.00599902
0.00609523
0.00609852
0.00600341
0.00586374
0.00576838
0.00580343
0.00588499
0.0060084
0.00609429
0.00609606
0.00600981
0.00588031
0.00579102
0.00588274
0.00611738
0.00634697
0.00650506
0.00651468
0.00636193
0.00612084
0.00587249
0.00600557
0.00634824
0.00672621
0.00705891
0.00709836
0.00677574
0.00636777
0.00600022
0.00609313
0.00651435
0.0070817
0.00789984
0.00810013
0.00719931
0.00655368
0.00609329
0.00609649
0.0065322
0.00715619
0.00829359
0.00872416
0.0072977
0.00657513
0.00609756
0.00600863
0.0063761
0.00681726
0.00727142
0.00733516
0.00688194
0.00640071
0.00600508
0.00587509
0.00612459
0.00638294
0.00657502
0.00658821
0.00640291
0.00613105
0.00586631
0.00578179
0.00586747
0.0059997
0.00609494
0.00609754
0.00600279
0.00586424
0.00577017
0.00580043
0.00588456
0.0060105
0.00609772
0.00609874
0.00601075
0.00588007
0.00579057
0.00588277
0.00612227
0.00635724
0.00651835
0.00652547
0.00636765
0.00612339
0.00587393
0.00600793
0.00635787
0.00674676
0.00709
0.00712181
0.00678472
0.00637119
0.00600237
0.006096
0.0065249
0.00710845
0.00796843
0.00813906
0.00720146
0.00655375
0.0060945
0.00609787
0.00653793
0.00716779
0.00829856
0.00861814
0.00727705
0.00656959
0.0060972
0.00600844
0.00637677
0.00681546
0.00725583
0.00730401
0.00686453
0.00639434
0.00600451
0.00587485
0.00612433
0.00638073
0.00656809
0.00657796
0.00639532
0.00612816
0.00586725
0.00578286
0.00586881
0.0060004
0.00609422
0.00609599
0.00600216
0.00586555
0.00577341
0.00579607
0.00588229
0.00601062
0.00609924
0.00609966
0.00601008
0.00587851
0.00578916
0.00588119
0.0061252
0.00636597
0.00653087
0.00653545
0.00637208
0.00612466
0.00587444
0.00600871
0.00636598
0.00676769
0.0071251
0.00714799
0.00679327
0.00637354
0.00600375
0.00609737
0.00653401
0.00713663
0.00805406
0.00818589
0.00720179
0.00655233
0.00609501
0.00609784
0.00654149
0.00717583
0.0082872
0.0084919
0.00724985
0.00656172
0.00609613
0.00600721
0.00637539
0.00680966
0.00723211
0.00726382
0.00684212
0.00638606
0.00600354
0.00587419
0.00612309
0.00637676
0.00655842
0.00656482
0.00638587
0.00612465
0.00586835
0.00578408
0.00587017
0.00600097
0.00609321
0.0060942
0.00600158
0.00586728
0.0057773
0.00579142
0.00587909
0.00600934
0.00609922
0.00609916
0.00600828
0.00587617
0.00578723
0.00587872
0.00612633
0.00637243
0.00654116
0.0065434
0.00637477
0.00612464
0.0058741
0.00600824
0.00637183
0.00678606
0.00715871
0.00717235
0.00679982
0.00637443
0.00600419
0.00609741
0.00654063
0.00716171
0.00814302
0.00822932
0.00719945
0.00654945
0.00609466
0.00609671
0.00654275
0.00717928
0.00826154
0.00837173
0.0072209
0.00655274
0.00609443
0.00600532
0.00637255
0.00680144
0.00720552
0.00722296
0.00681898
0.00637723
0.0060022
0.00587325
0.00612121
0.00637189
0.00654794
0.00655127
0.0063762
0.00612099
0.00586925
0.00578516
0.00587122
0.00600121
0.00609199
0.00609231
0.00600095
0.00586889
0.00578097
0.00578719
0.00587568
0.00600727
0.00609811
0.00609767
0.00600584
0.0058735
0.00578519
0.00587595
0.00612608
0.00637642
0.00654842
0.00654864
0.00637562
0.0061235
0.0058731
0.00600694
0.00637529
0.00680013
0.00718669
0.00719163
0.00680351
0.00637376
0.00600371
0.00609647
0.00654453
0.00718105
0.0082233
0.00826185
0.0071945
0.00654536
0.00609348
0.00609489
0.00654208
0.00717881
0.00822943
0.0082716
0.00719384
0.00654366
0.00609225
0.00600312
0.00636893
0.00679245
0.0071804
0.00718686
0.00679796
0.00636879
0.00600056
0.00587212
0.00611894
0.00636682
0.00653803
0.0065389
0.0063673
0.00611738
0.00586971
0.00578587
0.00587176
0.00600101
0.00609055
0.00609035
0.0060001
0.00587
0.00578388
0.00578365
0.00587246
0.00600485
0.00609629
0.00609554
0.00600311
0.00587084
0.00578331
0.00587322
0.00612481
0.00637811
0.00655252
0.00655107
0.00637475
0.00612149
0.0058717
0.00600513
0.00637659
0.00680937
0.00720701
0.00720437
0.00680418
0.00637172
0.0060025
0.00609487
0.00654603
0.00719409
0.00828756
0.00828103
0.00718755
0.00654047
0.00609168
0.00609268
0.00654011
0.00717589
0.00819876
0.00819483
0.00717056
0.00653513
0.00608977
0.0060008
0.00636501
0.00678387
0.00715915
0.00715766
0.0067803
0.00636122
0.00599871
0.0058708
0.00611646
0.00636196
0.00652936
0.0065284
0.00635955
0.00611393
0.00586967
0.00578609
0.00587171
0.0060003
0.00608888
0.0060883
0.00599894
0.00587044
0.00578584
0.00578081
0.00586959
0.00600232
0.00609405
0.00609306
0.00600033
0.00586838
0.00578174
0.00587063
0.00612283
0.00637792
0.00655382
0.00655105
0.00637254
0.00611893
0.00587014
0.00600301
0.00637615
0.00681421
0.0072196
0.00721074
0.00680225
0.0063687
0.00600083
0.00609283
0.00654564
0.00720155
0.00833364
0.00828832
0.00717942
0.00653523
0.00608952
0.00609026
0.00653731
0.00717181
0.00817385
0.00813905
0.00715152
0.00652748
0.00608721
0.00599842
0.00636107
0.00677624
0.00714237
0.00713529
0.00676609
0.00635465
0.00599676
0.00586929
0.00611382
0.00635742
0.00652205
0.00651977
0.00635296
0.00611066
0.00586919
0.00578583
0.00587109
0.00599912
0.00608698
0.00608615
0.00599748
0.00587024
0.00578692
0.00577855
0.00586705
0.00599981
0.00609162
0.00609046
0.00599768
0.00586622
0.00578048
0.00586822
0.00612039
0.00637631
0.00655297
0.00654923
0.00636951
0.00611616
0.00586857
0.00600069
0.0063744
0.00681548
0.00722564
0.00721207
0.00679861
0.00636519
0.00599898
0.00609049
0.00654383
0.00720452
0.00836295
0.00828732
0.00717107
0.00653007
0.00608725
0.00608771
0.00653397
0.00716718
0.00815526
0.00809998
0.0071365
0.00652088
0.00608474
0.00599599
0.00635714
0.00676952
0.00712948
0.00711862
0.00675493
0.00634907
0.00599482
0.0058676
0.00611104
0.00635316
0.00651586
0.00651271
0.00634738
0.0061076
0.00586838
0.00578518
0.00586999
0.00599753
0.00608488
0.0060839
0.00599578
0.00586955
0.00578732
0.00577676
0.0058648
0.00599739
0.00608916
0.00608794
0.00599528
0.00586436
0.00577944
0.00586601
0.00611767
0.00637374
0.0065507
0.00654638
0.00636619
0.00611346
0.00586708
0.00599829
0.00637169
0.0068141
0.00722685
0.00721021
0.00679424
0.00636166
0.00599713
0.00608797
0.00654092
0.00720394
0.0083784
0.00828235
0.00716342
0.00652538
0.00608507
0.00608505
0.00653013
0.00716197
0.00814116
0.00807345
0.00712503
0.00651538
0.00608244
0.00599353
0.00635313
0.00676335
0.00711936
0.00710626
0.00674626
0.00634439
0.00599295
0.00586581
0.00610811
0.00634902
0.00651046
0.00650684
0.00634265
0.00610478
0.00586734
0.0057843
0.00586856
0.00599563
0.00608263
0.0060816
0.00599395
0.00586856
0.00578723
0.00577536
0.00586279
0.00599505
0.00608676
0.00608559
0.00599315
0.00586274
0.00577849
0.00586402
0.00611479
0.00637056
0.00654763
0.00654317
0.00636299
0.00611098
0.00586565
0.00599592
0.00636832
0.00681082
0.00722487
0.00720694
0.00679002
0.00635845
0.00599536
0.00608536
0.00653714
0.00720048
0.00838304
0.00827734
0.00715725
0.00652142
0.00608305
0.00608235
0.0065258
0.00715582
0.00812888
0.0080561
0.00711665
0.00651094
0.00608035
0.00599109
0.00634896
0.00675725
0.00711081
0.00709692
0.00673955
0.0063405
0.00599114
0.00586403
0.00610507
0.00634488
0.00650551
0.00650183
0.00633859
0.0061022
0.00586615
0.00578341
0.00586698
0.00599355
0.00608028
0.00607932
0.00599211
0.00586739
0.0057868
0.00577426
0.00586095
0.00599279
0.00608442
0.00608339
0.00599122
0.00586122
0.00577747
0.00586226
0.00611188
0.00636704
0.00654417
0.00653996
0.00636009
0.00610872
0.0058642
0.00599364
0.00636455
0.00680625
0.00722096
0.00720348
0.00678644
0.00635566
0.00599363
0.00608276
0.00653272
0.00719469
0.00837952
0.00827487
0.0071529
0.00651821
0.00608115
0.00607969
0.00652103
0.00714849
0.00811626
0.00804537
0.00711087
0.00650741
0.00607839
0.00598875
0.00634468
0.00675098
0.00710299
0.00708965
0.00673435
0.00633722
0.00598935
0.00586239
0.00610201
0.00634072
0.00650084
0.00649744
0.0063351
0.00609982
0.00586483
0.00578265
0.00586541
0.00599142
0.00607794
0.00607713
0.00599033
0.00586616
0.00578612
0.00577339
0.00585925
0.00599059
0.00608213
0.00608129
0.00598939
0.0058597
0.00577633
0.00586071
0.00610899
0.00636332
0.0065405
0.00653685
0.00635743
0.00610656
0.00586266
0.00599153
0.00636058
0.00680084
0.00721589
0.00720028
0.00678349
0.00635316
0.00599186
0.00608028
0.00652792
0.0071872
0.00837009
0.0082756
0.0071502
0.00651559
0.0060793
0.00607718
0.00651603
0.00714018
0.00810262
0.00803939
0.00710707
0.00650455
0.00607649
0.00598662
0.00634041
0.00674458
0.00709556
0.00708384
0.00673027
0.00633439
0.00598756
0.00586098
0.0060991
0.00633666
0.00649645
0.00649358
0.00633205
0.00609761
0.0058634
0.0057821
0.00586399
0.00598939
0.00607572
0.00607509
0.00598866
0.00586489
0.00578527
0.0057727
0.00585769
0.00598844
0.00607986
0.00607921
0.00598756
0.00585815
0.0057751
0.00585934
0.00610618
0.00635949
0.00653667
0.00653373
0.00635482
0.00610437
0.00586101
0.00598957
0.00635656
0.00679495
0.00721
0.00719714
0.00678085
0.00635075
0.00599001
0.00607798
0.00652304
0.00717877
0.00835673
0.00827829
0.00714848
0.00651326
0.0060774
0.00607489
0.0065111
0.00713152
0.00808877
0.00803677
0.00710461
0.00650209
0.0060746
0.00598476
0.0063364
0.00673842
0.00708871
0.00707922
0.00672701
0.00633185
0.00598575
0.00585981
0.00609647
0.00633289
0.00649247
0.00649021
0.00632939
0.00609552
0.00586191
0.0057817
0.00586274
0.00598754
0.00607369
0.00607323
0.00598708
0.0058636
0.0057843
0.00577214
0.00585626
0.00598639
0.00607761
0.00607713
0.00598573
0.0058566
0.00577391
0.0058581
0.00610347
0.00635565
0.00653267
0.00653042
0.00635209
0.00610209
0.00585933
0.00598776
0.00635264
0.00678885
0.00720343
0.00719351
0.00677804
0.00634823
0.00598808
0.00607586
0.00651833
0.00717016
0.0083412
0.00828063
0.00714692
0.00651093
0.00607546
0.00607285
0.00650655
0.00712337
0.00807643
0.0080365
0.00710286
0.0064998
0.0060727
0.00598315
0.00633284
0.00673291
0.00708288
0.00707567
0.00672434
0.00632952
0.00598397
0.00585882
0.00609416
0.00632959
0.00648903
0.00648736
0.00632703
0.00609355
0.00586042
0.00578134
0.00586161
0.00598587
0.00607186
0.00607154
0.00598558
0.0058623
0.00578327
0.00577168
0.00585498
0.00598448
0.00607545
0.00607507
0.00598394
0.00585515
0.00577289
0.00585693
0.00610089
0.00635187
0.00652855
0.00652686
0.00634918
0.00609978
0.00585773
0.00598605
0.0063489
0.00678279
0.0071963
0.00718897
0.00677475
0.00634554
0.00598618
0.00607391
0.00651398
0.00716198
0.00832493
0.00828051
0.00714486
0.00650847
0.00607352
0.00607104
0.00650254
0.00711636
0.00806708
0.0080378
0.00710134
0.00649757
0.00607086
0.00598173
0.00632978
0.00672834
0.00707839
0.00707314
0.0067221
0.00632735
0.00598228
0.00585787
0.00609214
0.00632678
0.00648618
0.00648497
0.00632493
0.00609168
0.005859
0.00578088
0.00586052
0.00598434
0.0060702
0.00606997
0.00598412
0.00586099
0.00578222
0.0057713
0.00585387
0.00598276
0.00607344
0.00607315
0.0059823
0.00585391
0.00577213
0.00585584
0.00609849
0.00634827
0.00652444
0.00652317
0.0063462
0.00609755
0.00585633
0.00598442
0.00634537
0.00677696
0.00718887
0.00718353
0.00677101
0.00634279
0.0059844
0.00607207
0.00651001
0.00715454
0.00830897
0.00827715
0.0071421
0.00650589
0.00607169
0.00606935
0.00649905
0.00711065
0.00806109
0.00804003
0.00709981
0.00649539
0.00606916
0.00598037
0.00632712
0.00672463
0.00707516
0.00707139
0.00672014
0.00632533
0.00598073
0.00585688
0.00609028
0.00632433
0.00648379
0.00648292
0.00632299
0.00608992
0.00585767
0.00578025
0.00585936
0.00598284
0.00606861
0.00606844
0.00598266
0.00585968
0.0057812
0.00577097
0.00585289
0.00598124
0.00607165
0.00607142
0.00598087
0.00585289
0.00577157
0.0058548
0.00609626
0.00634493
0.00652053
0.00651959
0.00634337
0.00609553
0.00585515
0.00598285
0.00634207
0.00677149
0.00718158
0.00717772
0.00676714
0.00634015
0.00598281
0.0060703
0.00650634
0.00714781
0.00829401
0.00827151
0.0071389
0.00650336
0.00607002
0.0060677
0.00649586
0.00710586
0.0080574
0.00804247
0.00709819
0.00649328
0.00606759
0.00597898
0.00632462
0.00672142
0.00707264
0.00707
0.00671829
0.00632341
0.0059793
0.00585579
0.00608841
0.00632202
0.00648158
0.00648097
0.00632109
0.0060882
0.00585641
0.00577949
0.00585811
0.00598128
0.006067
0.00606688
0.00598118
0.00585836
0.00578021
0.00577064
0.00585198
0.00597986
0.00607006
0.00606991
0.00597963
0.00585201
0.0057711
0.00585383
0.00609421
0.00634189
0.00651701
0.00651637
0.00634085
0.00609376
0.00585413
0.00598136
0.00633899
0.00676645
0.0071749
0.00717231
0.00676356
0.00633777
0.00598141
0.00606857
0.00650285
0.00714158
0.00828048
0.00826562
0.00713576
0.006501
0.0060685
0.00606602
0.00649272
0.00710129
0.00805403
0.00804428
0.00709643
0.00649123
0.00606613
0.00597752
0.00632205
0.00671818
0.00707004
0.00706839
0.00671632
0.00632149
0.00597792
0.00585463
0.00608643
0.00631957
0.00647923
0.00647889
0.00631912
0.00608648
0.00585519
0.00577869
0.00585679
0.00597964
0.00606529
0.00606525
0.00597966
0.00585707
0.00577926
0.00577027
0.00585107
0.00597854
0.00606859
0.00606854
0.00597848
0.00585114
0.00577054
0.0058529
0.00609228
0.00633912
0.00651392
0.00651362
0.00633867
0.00609218
0.00585314
0.00597993
0.00633608
0.00676187
0.00716917
0.00716788
0.00676054
0.00633567
0.00598011
0.00606686
0.00649942
0.00713564
0.00826867
0.00826149
0.00713304
0.00649884
0.00606707
0.0060643
0.00648944
0.00709633
0.00804901
0.00804469
0.00709447
0.00648919
0.00606467
0.00597599
0.00631926
0.00671447
0.00706662
0.00706605
0.00671404
0.00631947
0.00597651
0.00585345
0.00608431
0.00631686
0.00647651
0.00647647
0.00631696
0.00608469
0.00585395
0.005778
0.0058555
0.00597796
0.00606351
0.00606355
0.00597814
0.00585582
0.00577838
0.00576981
0.00585006
0.00597717
0.00606712
0.00606716
0.00597727
0.00585014
0.00576981
0.00585196
0.0060904
0.00633651
0.00651116
0.00651123
0.0063367
0.00609062
0.00585207
0.00597855
0.00633329
0.00675766
0.00716442
0.00716458
0.00675805
0.00633373
0.00597879
0.00606518
0.006496
0.00712984
0.00825864
0.00825996
0.00713083
0.00649679
0.00606562
0.00606255
0.00648597
0.00709074
0.00804145
0.00804324
0.00709221
0.00648704
0.00606315
0.00597445
0.00631627
0.00671019
0.00706212
0.00706275
0.00671132
0.00631728
0.00597502
0.00585235
0.00608214
0.00631391
0.0064734
0.0064737
0.0063146
0.00608282
0.0058527
0.00577748
0.00585432
0.00597632
0.0060617
0.00606184
0.00597665
0.00585463
0.00577758
0.00576922
0.00584892
0.00597567
0.00606552
0.00606565
0.00597589
0.00584894
0.00576889
0.00585095
0.00608846
0.00633391
0.00650851
0.00650894
0.00633469
0.00608893
0.00585084
0.00597715
0.00633055
0.00675367
0.0071603
0.00716197
0.00675576
0.00633174
0.00597736
0.0060635
0.00649261
0.00712417
0.00825003
0.00826032
0.00712881
0.00649467
0.00606406
0.00606082
0.00648241
0.00708471
0.00803191
0.00804009
0.00708955
0.00648472
0.00606152
0.00597295
0.00631322
0.00670558
0.00705685
0.00705869
0.00670823
0.00631491
0.00597345
0.00585134
0.00608002
0.00631091
0.00647011
0.00647073
0.00631212
0.00608091
0.00585145
0.00577711
0.00585329
0.00597479
0.00605996
0.00606018
0.00597522
0.00585352
0.00577685
0.00576854
0.00584765
0.005974
0.00606373
0.00606392
0.0059743
0.00584758
0.00576788
0.00584984
0.00608639
0.00633115
0.00650566
0.00650639
0.0063324
0.006087
0.00584948
0.00597569
0.00632773
0.00674964
0.00715621
0.00715923
0.0067532
0.00632949
0.00597577
0.00606181
0.00648923
0.00711863
0.00824212
0.00826064
0.00712649
0.00649231
0.00606237
0.00605912
0.00647894
0.00707877
0.00802215
0.00803608
0.00708653
0.0064822
0.00605981
0.00597153
0.00631029
0.00670107
0.00705152
0.00705442
0.00670497
0.00631246
0.00597187
0.00585042
0.00607805
0.00630806
0.00646693
0.00646779
0.00630965
0.006079
0.00585023
0.00577679
0.00585237
0.0059734
0.00605836
0.00605862
0.00597386
0.00585247
0.00577618
0.00576783
0.00584632
0.00597222
0.00606175
0.00606198
0.00597254
0.00584615
0.00576693
0.00584862
0.00608415
0.00632812
0.00650237
0.00650333
0.00632967
0.00608481
0.00584804
0.00597411
0.00632477
0.00674534
0.00715144
0.00715548
0.00674996
0.00632688
0.00597406
0.00606008
0.00648589
0.00711319
0.00823385
0.00825871
0.00712343
0.00648963
0.00606057
0.00605747
0.00647569
0.00707344
0.00801417
0.00803244
0.00708332
0.00647955
0.00605806
0.00597017
0.00630763
0.0066971
0.00704697
0.00705062
0.00670183
0.00631003
0.00597032
0.0058495
0.00607624
0.00630553
0.00646413
0.00646515
0.00630732
0.00607717
0.00584907
0.00577638
0.00585145
0.0059721
0.00605688
0.00605716
0.00597254
0.00585141
0.00577551
0.00576718
0.00584502
0.0059704
0.00605966
0.00605991
0.00597072
0.00584478
0.00576614
0.00584734
0.00608177
0.00632479
0.00649858
0.00649965
0.00632652
0.00608245
0.00584664
0.00597242
0.00632162
0.0067406
0.00714554
0.00715019
0.00674584
0.00632391
0.00597228
0.00605829
0.00648255
0.00710777
0.00822428
0.00825298
0.00711942
0.00648664
0.00605872
0.00605584
0.00647272
0.00706904
0.0080094
0.00803036
0.00708014
0.00647688
0.00605635
0.00596884
0.00630527
0.00669391
0.00704373
0.00704781
0.00669907
0.00630776
0.00596885
0.00584854
0.00607457
0.00630337
0.00646185
0.00646294
0.00630523
0.00607544
0.00584794
0.00577578
0.00585044
0.00597081
0.00605549
0.00605576
0.00597121
0.0058503
0.00577477
0.00576665
0.00584383
0.00596864
0.00605757
0.00605783
0.00596897
0.00584358
0.00576558
0.00584607
0.00607934
0.00632127
0.00649434
0.00649548
0.00632308
0.00608004
0.00584534
0.00597068
0.00631833
0.00673543
0.0071384
0.00714335
0.00674096
0.00632072
0.00597052
0.00605647
0.00647921
0.00710229
0.00821288
0.00824324
0.0071146
0.00648346
0.00605688
0.00605423
0.00647001
0.00706558
0.00800818
0.00803051
0.00707724
0.00647428
0.0060547
0.00596752
0.00630317
0.00669147
0.00704193
0.00704619
0.00669681
0.00630567
0.00596747
0.00584748
0.00607296
0.00630149
0.00646004
0.00646115
0.00630336
0.00607379
0.00584682
0.00577498
0.00584929
0.00596947
0.00605411
0.00605438
0.00596985
0.00584911
0.00577392
0.00576625
0.00584277
0.005967
0.00605557
0.00605584
0.00596736
0.00584254
0.00576519
0.00584487
0.00607695
0.00631767
0.00648988
0.00649106
0.00631956
0.0060777
0.00584416
0.00596895
0.00631499
0.00672995
0.00713034
0.0071354
0.00673565
0.00631746
0.00596882
0.00605465
0.00647588
0.00709671
0.00819974
0.00823053
0.0071093
0.00648025
0.0060551
0.00605265
0.00646747
0.00706279
0.00800978
0.00803281
0.0070747
0.00647183
0.00605314
0.00596619
0.00630122
0.00668957
0.00704124
0.00704559
0.00669499
0.00630375
0.00596615
0.00584633
0.00607135
0.00629977
0.00645855
0.00645967
0.00630165
0.00607218
0.00584569
0.00577401
0.00584799
0.00596804
0.00605268
0.00605295
0.00596841
0.00584781
0.00577296
0.00576595
0.00584184
0.00596548
0.00605369
0.00605399
0.00596589
0.00584165
0.00576491
0.00584375
0.00607464
0.00631413
0.00648542
0.00648665
0.00631612
0.00607548
0.00584309
0.00596727
0.00631167
0.00672439
0.00712188
0.00712705
0.00673027
0.00631429
0.00596722
0.00605286
0.00647259
0.00709105
0.00818549
0.00821653
0.00710394
0.00647713
0.00605339
0.00605107
0.006465
0.00706031
0.00801284
0.00803658
0.00707252
0.00646951
0.00605164
0.00596484
0.00629932
0.0066879
0.00704112
0.00704558
0.00669346
0.00630195
0.00596485
0.00584514
0.00606969
0.00629807
0.00645717
0.00645833
0.00630002
0.00607058
0.00584452
0.00577297
0.00584661
0.00596652
0.00605119
0.00605147
0.00596692
0.00584646
0.00577194
0.00576569
0.00584097
0.00596407
0.00605194
0.00605227
0.00596455
0.00584084
0.00576464
0.00584271
0.00607245
0.00631074
0.00648114
0.00648245
0.00631289
0.00607342
0.00584209
0.00596568
0.00630846
0.00671893
0.00711356
0.00711894
0.00672514
0.00631131
0.00596571
0.00605112
0.00646933
0.00708538
0.008171
0.00820287
0.00709885
0.00647418
0.00605177
0.00604952
0.00646253
0.00705778
0.00801592
0.0080409
0.00707058
0.00646733
0.00605019
0.00596349
0.00629738
0.00668619
0.00704102
0.00704571
0.00669205
0.00630021
0.00596357
0.00584394
0.00606801
0.00629632
0.00645576
0.00645698
0.0062984
0.006069
0.00584335
0.00577196
0.00584522
0.00596496
0.00604966
0.00604997
0.00596543
0.0058451
0.00577091
0.00576545
0.00584014
0.00596272
0.00605029
0.00605066
0.00596328
0.00584005
0.00576434
0.00584174
0.00607038
0.00630754
0.00647714
0.00647857
0.00630992
0.00607151
0.00584112
0.00596417
0.00630539
0.00671372
0.00710575
0.00711151
0.00672045
0.00630855
0.00596427
0.00604945
0.00646614
0.00707979
0.00815705
0.00819067
0.00709425
0.00647145
0.00605022
0.006048
0.00646002
0.00705501
0.00801803
0.008045
0.0070688
0.00646527
0.00604879
0.00596217
0.0062954
0.00668429
0.00704059
0.00704564
0.00669064
0.00629851
0.00596231
0.0058428
0.00606631
0.0062945
0.00645424
0.00645557
0.00629678
0.00606744
0.0058422
0.00577103
0.00584389
0.00596344
0.00604814
0.00604848
0.00596397
0.0058438
0.00576992
0.00576519
0.00583933
0.00596143
0.00604873
0.00604915
0.00596207
0.00583925
0.00576398
0.00584083
0.00606843
0.00630455
0.00647347
0.00647505
0.00630721
0.00606972
0.00584017
0.00596275
0.0063025
0.00670887
0.00709866
0.00710494
0.00671627
0.00630602
0.00596291
0.00604786
0.00646308
0.00707439
0.00814414
0.00818042
0.0070902
0.00646894
0.00604875
0.00604653
0.00645752
0.00705199
0.00801877
0.00804847
0.00706712
0.00646331
0.00604743
0.0059609
0.00629339
0.00668219
0.00703969
0.00704525
0.00668918
0.00629684