/*--------------------------------*- C++ -*----------------------------------*\
| =========                 |                                                 |
| \\      /  F ield         | OpenFOAM: The Open Source CFD Toolbox           |
|  \\    /   O peration     | Version:  2406                                  |
|   \\  /    A nd           | Website:  www.openfoam.com                      |
|    \\/     M anipulation  |                                                 |
\*---------------------------------------------------------------------------*/
FoamFile
{
    version     2.0;
    format      ascii;
    arch        "LSB;label=32;scalar=64";
    class       volScalarField;
    location    "0.3";
    object      p;
}
// * * * * * * * * * * * * * * * * * * * * * * * * * * * * * * * * * * * * * //

dimensions      [0 2 -2 0 0 0 0];

internalField   nonuniform List<scalar> 
16000
(
19.2436
19.1874
19.1551
19.1387
19.1387
19.1551
19.1874
19.2435
19.1874
19.1222
19.0828
19.0627
19.0627
19.0828
19.1221
19.1873
19.1551
19.0828
19.0375
19.0145
19.0145
19.0374
19.0828
19.1551
19.1387
19.0627
19.0145
18.9902
18.9902
19.0144
19.0627
19.1386
19.1387
19.0627
19.0145
18.9902
18.9902
19.0144
19.0626
19.1386
19.1551
19.0828
19.0374
19.0144
19.0144
19.0374
19.0827
19.155
19.1874
19.1222
19.0828
19.0627
19.0627
19.0827
19.1221
19.1873
19.2435
19.1874
19.1551
19.1386
19.1386
19.155
19.1873
19.2434
17.8975
17.9351
17.9597
17.9721
17.9721
17.9596
17.935
17.8973
17.9351
17.9772
18.0049
18.0191
18.019
18.0049
17.9771
17.9349
17.9597
18.0049
18.0356
18.0516
18.0515
18.0356
18.0048
17.9595
17.9721
18.0191
18.0516
18.0684
18.0684
18.0515
18.0189
17.9719
17.9721
18.0191
18.0515
18.0684
18.0684
18.0515
18.0189
17.9719
17.9596
18.0049
18.0356
18.0515
18.0515
18.0355
18.0047
17.9594
17.935
17.9771
18.0048
18.019
18.0189
18.0047
17.9769
17.9348
17.8973
17.935
17.9595
17.9719
17.9719
17.9594
17.9348
17.8971
17.7934
17.7879
17.7851
17.7837
17.7837
17.785
17.7877
17.7932
17.7879
17.7823
17.7796
17.7783
17.7782
17.7795
17.7821
17.7876
17.7851
17.7796
17.7772
17.7763
17.7763
17.7771
17.7794
17.7848
17.7838
17.7783
17.7763
17.7759
17.7759
17.7762
17.778
17.7835
17.7837
17.7782
17.7763
17.7759
17.7759
17.7761
17.778
17.7834
17.785
17.7795
17.7771
17.7762
17.7761
17.7769
17.7793
17.7848
17.7877
17.7822
17.7794
17.7781
17.778
17.7793
17.7819
17.7875
17.7932
17.7876
17.7849
17.7835
17.7835
17.7848
17.7875
17.793
17.2818
17.2856
17.2883
17.2897
17.2897
17.2882
17.2855
17.2817
17.2856
17.2906
17.2938
17.2955
17.2955
17.2937
17.2904
17.2854
17.2883
17.2938
17.2975
17.2994
17.2993
17.2973
17.2936
17.2881
17.2897
17.2955
17.2994
17.3015
17.3015
17.2992
17.2953
17.2895
17.2897
17.2955
17.2993
17.3015
17.3015
17.2992
17.2952
17.2895
17.2882
17.2937
17.2973
17.2992
17.2992
17.2972
17.2935
17.2881
17.2855
17.2904
17.2936
17.2953
17.2952
17.2935
17.2903
17.2854
17.2817
17.2854
17.2881
17.2895
17.2895
17.2881
17.2854
17.2816
16.9384
16.9371
16.9365
16.9362
16.9362
16.9366
16.9374
16.9387
16.9371
16.9357
16.9349
16.9345
16.9345
16.9349
16.9358
16.9374
16.9364
16.9348
16.9339
16.9335
16.9335
16.9339
16.9349
16.9367
16.936
16.9344
16.9334
16.933
16.933
16.9334
16.9345
16.9363
16.9361
16.9344
16.9334
16.933
16.933
16.9334
16.9345
16.9363
16.9364
16.9348
16.9338
16.9334
16.9334
16.9338
16.9349
16.9367
16.9371
16.9356
16.9348
16.9344
16.9344
16.9348
16.9358
16.9374
16.9385
16.9372
16.9365
16.9362
16.9362
16.9366
16.9375
16.9388
16.5535
16.554
16.5545
16.5548
16.5549
16.5549
16.5547
16.5544
16.5539
16.5547
16.5552
16.5555
16.5556
16.5555
16.5553
16.5549
16.5543
16.5551
16.5555
16.5558
16.5559
16.5559
16.5557
16.5553
16.5545
16.5553
16.5556
16.5558
16.5559
16.556
16.5558
16.5555
16.5545
16.5553
16.5556
16.5558
16.5559
16.556
16.5559
16.5555
16.5544
16.5551
16.5555
16.5558
16.5559
16.5559
16.5557
16.5554
16.5542
16.5549
16.5553
16.5555
16.5556
16.5556
16.5555
16.5552
16.5539
16.5544
16.5548
16.5551
16.5552
16.5552
16.5551
16.5548
16.1795
16.1795
16.1797
16.1798
16.18
16.1802
16.1804
16.1807
16.1794
16.1795
16.1796
16.1798
16.1799
16.1802
16.1804
16.1807
16.1795
16.1795
16.1795
16.1796
16.1798
16.18
16.1804
16.1808
16.1795
16.1795
16.1794
16.1794
16.1796
16.18
16.1804
16.1808
16.1796
16.1795
16.1795
16.1794
16.1796
16.18
16.1804
16.1809
16.1797
16.1797
16.1796
16.1797
16.1798
16.1802
16.1806
16.1811
16.18
16.1799
16.1799
16.18
16.1802
16.1805
16.1808
16.1813
16.1802
16.1802
16.1803
16.1804
16.1806
16.1809
16.1812
16.1814
15.801
15.8012
15.8014
15.8017
15.8019
15.802
15.8022
15.8023
15.8012
15.8015
15.8017
15.802
15.8021
15.8023
15.8025
15.8025
15.8014
15.8017
15.8019
15.802
15.8022
15.8025
15.8027
15.8028
15.8016
15.8019
15.802
15.802
15.8022
15.8026
15.8029
15.8031
15.8018
15.802
15.8021
15.8021
15.8024
15.8027
15.803
15.8033
15.802
15.8022
15.8023
15.8024
15.8026
15.8029
15.8032
15.8034
15.8022
15.8024
15.8025
15.8027
15.8029
15.8031
15.8034
15.8036
15.8023
15.8025
15.8028
15.803
15.8032
15.8034
15.8036
15.8036
15.4248
15.4248
15.425
15.4252
15.4254
15.4256
15.4258
15.426
15.425
15.4252
15.4254
15.4256
15.4258
15.426
15.4262
15.4264
15.4253
15.4255
15.4257
15.4259
15.4261
15.4264
15.4266
15.4268
15.4256
15.4258
15.426
15.4261
15.4263
15.4266
15.4269
15.4271
15.426
15.4261
15.4263
15.4264
15.4267
15.4269
15.4272
15.4275
15.4263
15.4265
15.4266
15.4268
15.427
15.4273
15.4275
15.4278
15.4267
15.4268
15.427
15.4272
15.4274
15.4277
15.4279
15.4281
15.427
15.4272
15.4274
15.4277
15.4279
15.4281
15.4282
15.4283
15.0501
15.0501
15.0502
15.0504
15.0506
15.0509
15.0511
15.0514
15.0504
15.0505
15.0507
15.0509
15.0511
15.0514
15.0516
15.0518
15.0508
15.051
15.0512
15.0514
15.0516
15.0519
15.0521
15.0523
15.0512
15.0514
15.0517
15.0519
15.0521
15.0524
15.0526
15.0528
15.0517
15.0519
15.0522
15.0524
15.0527
15.0529
15.0531
15.0533
15.0522
15.0524
15.0527
15.0529
15.0531
15.0534
15.0535
15.0537
15.0527
15.0529
15.0532
15.0534
15.0536
15.0538
15.054
15.0541
15.0531
15.0534
15.0536
15.0539
15.0541
15.0543
15.0544
15.0544
14.6772
14.6771
14.6771
14.6773
14.6774
14.6777
14.678
14.6782
14.6774
14.6774
14.6775
14.6777
14.6779
14.6781
14.6784
14.6786
14.6778
14.6778
14.678
14.6782
14.6784
14.6787
14.6789
14.6791
14.6782
14.6784
14.6786
14.6788
14.679
14.6793
14.6795
14.6796
14.6787
14.6789
14.6791
14.6794
14.6797
14.6799
14.68
14.6801
14.6793
14.6795
14.6797
14.68
14.6802
14.6804
14.6805
14.6806
14.6798
14.68
14.6803
14.6805
14.6807
14.6809
14.6809
14.6809
14.6802
14.6805
14.6807
14.6809
14.6811
14.6812
14.6813
14.6812
14.3052
14.305
14.305
14.305
14.3051
14.3052
14.3054
14.3056
14.3053
14.3051
14.3051
14.3052
14.3053
14.3055
14.3057
14.3058
14.3055
14.3054
14.3054
14.3055
14.3057
14.3059
14.306
14.3062
14.3058
14.3058
14.3059
14.3061
14.3062
14.3064
14.3065
14.3065
14.3062
14.3062
14.3064
14.3066
14.3068
14.3069
14.3069
14.3069
14.3065
14.3067
14.3069
14.3071
14.3072
14.3073
14.3073
14.3072
14.3069
14.3071
14.3073
14.3074
14.3076
14.3076
14.3076
14.3075
14.3071
14.3074
14.3075
14.3077
14.3078
14.3078
14.3077
14.3076
13.9334
13.9332
13.933
13.9329
13.9329
13.9329
13.9329
13.933
13.9334
13.9331
13.9329
13.9328
13.9328
13.9329
13.9329
13.933
13.9333
13.9331
13.933
13.9329
13.933
13.933
13.933
13.933
13.9333
13.9332
13.9331
13.9332
13.9332
13.9332
13.9332
13.9331
13.9334
13.9334
13.9334
13.9335
13.9335
13.9335
13.9334
13.9333
13.9335
13.9335
13.9336
13.9337
13.9337
13.9337
13.9336
13.9333
13.9336
13.9337
13.9337
13.9338
13.9338
13.9338
13.9336
13.9334
13.9336
13.9337
13.9337
13.9338
13.9337
13.9336
13.9335
13.9334
13.5611
13.561
13.5608
13.5606
13.5604
13.5603
13.5602
13.56
13.561
13.5607
13.5604
13.5602
13.5601
13.56
13.5599
13.5598
13.5607
13.5604
13.5602
13.56
13.5599
13.5598
13.5597
13.5596
13.5605
13.5602
13.5601
13.56
13.5599
13.5598
13.5596
13.5594
13.5603
13.5601
13.56
13.5599
13.5598
13.5597
13.5595
13.5593
13.5601
13.56
13.5599
13.5598
13.5597
13.5596
13.5594
13.5591
13.5599
13.5598
13.5597
13.5597
13.5595
13.5594
13.5591
13.5588
13.5597
13.5596
13.5595
13.5593
13.5592
13.559
13.5588
13.5587
13.1882
13.1881
13.1878
13.1876
13.1874
13.1872
13.1869
13.1866
13.1879
13.1876
13.1873
13.1871
13.1869
13.1867
13.1865
13.1863
13.1875
13.1872
13.1869
13.1867
13.1865
13.1863
13.1861
13.1858
13.1871
13.1868
13.1865
13.1863
13.1861
13.1859
13.1857
13.1855
13.1867
13.1864
13.1862
13.186
13.1858
13.1856
13.1854
13.1851
13.1863
13.1861
13.1859
13.1857
13.1855
13.1853
13.185
13.1847
13.1858
13.1856
13.1855
13.1853
13.1851
13.1848
13.1846
13.1843
13.1855
13.1852
13.185
13.1848
13.1846
13.1843
13.1841
13.184
12.8144
12.8144
12.8142
12.8139
12.8137
12.8134
12.8131
12.8128
12.8141
12.8139
12.8136
12.8134
12.8131
12.8129
12.8126
12.8124
12.8136
12.8134
12.8131
12.8128
12.8126
12.8124
12.8121
12.8119
12.8131
12.8129
12.8126
12.8124
12.8121
12.8119
12.8116
12.8114
12.8126
12.8124
12.8121
12.8118
12.8116
12.8114
12.8112
12.8109
12.8121
12.8119
12.8116
12.8114
12.8111
12.8109
12.8107
12.8104
12.8116
12.8114
12.8111
12.8109
12.8107
12.8104
12.8102
12.81
12.8112
12.8109
12.8106
12.8104
12.8101
12.8099
12.8097
12.8096
12.4401
12.4401
12.44
12.4398
12.4395
12.4393
12.439
12.4387
12.4398
12.4397
12.4395
12.4392
12.439
12.4388
12.4385
12.4383
12.4394
12.4392
12.4389
12.4387
12.4385
12.4383
12.438
12.4378
12.4389
12.4387
12.4384
12.4382
12.4379
12.4377
12.4375
12.4373
12.4384
12.4382
12.4379
12.4376
12.4374
12.4372
12.437
12.4368
12.4379
12.4377
12.4374
12.4372
12.4369
12.4367
12.4366
12.4364
12.4374
12.4372
12.4369
12.4367
12.4365
12.4363
12.4361
12.4359
12.437
12.4367
12.4364
12.4362
12.436
12.4358
12.4356
12.4356
12.0656
12.0656
12.0655
12.0654
12.0652
12.065
12.0647
12.0645
12.0654
12.0653
12.0651
12.0649
12.0647
12.0646
12.0643
12.0641
12.065
12.0648
12.0647
12.0645
12.0643
12.0641
12.0639
12.0637
12.0646
12.0644
12.0642
12.064
12.0638
12.0636
12.0635
12.0633
12.0642
12.064
12.0637
12.0635
12.0633
12.0632
12.063
12.0629
12.0638
12.0636
12.0633
12.0631
12.0629
12.0628
12.0626
12.0625
12.0634
12.0631
12.0629
12.0627
12.0625
12.0624
12.0622
12.0621
12.063
12.0628
12.0625
12.0623
12.0621
12.062
12.0619
12.0618
11.6912
11.6912
11.6911
11.691
11.6908
11.6907
11.6905
11.6903
11.691
11.6909
11.6908
11.6907
11.6905
11.6903
11.6902
11.69
11.6907
11.6906
11.6905
11.6903
11.6901
11.69
11.6898
11.6897
11.6904
11.6903
11.6901
11.6899
11.6897
11.6896
11.6895
11.6894
11.6901
11.69
11.6897
11.6895
11.6894
11.6893
11.6892
11.689
11.6898
11.6896
11.6894
11.6892
11.6891
11.689
11.6889
11.6887
11.6895
11.6893
11.6891
11.689
11.6888
11.6887
11.6886
11.6885
11.6892
11.689
11.6888
11.6887
11.6885
11.6884
11.6883
11.6883
11.317
11.3169
11.3169
11.3168
11.3167
11.3165
11.3164
11.3162
11.3169
11.3168
11.3167
11.3166
11.3164
11.3163
11.3162
11.316
11.3167
11.3166
11.3164
11.3163
11.3162
11.316
11.3159
11.3158
11.3165
11.3164
11.3162
11.316
11.3159
11.3158
11.3157
11.3156
11.3163
11.3161
11.3159
11.3158
11.3156
11.3155
11.3155
11.3154
11.3161
11.3159
11.3157
11.3156
11.3154
11.3153
11.3153
11.3152
11.3159
11.3157
11.3155
11.3154
11.3153
11.3152
11.3151
11.315
11.3157
11.3155
11.3154
11.3152
11.3151
11.315
11.3149
11.3149
10.943
10.943
10.943
10.9429
10.9428
10.9427
10.9425
10.9424
10.943
10.9429
10.9428
10.9427
10.9426
10.9425
10.9424
10.9423
10.9429
10.9428
10.9427
10.9425
10.9424
10.9423
10.9423
10.9422
10.9428
10.9427
10.9425
10.9424
10.9422
10.9422
10.9421
10.942
10.9426
10.9425
10.9424
10.9422
10.9421
10.942
10.942
10.9419
10.9425
10.9424
10.9422
10.9421
10.942
10.9419
10.9418
10.9418
10.9424
10.9423
10.9421
10.942
10.9419
10.9418
10.9417
10.9417
10.9422
10.9421
10.942
10.9419
10.9418
10.9417
10.9417
10.9416
10.5694
10.5694
10.5694
10.5693
10.5692
10.5691
10.5691
10.569
10.5694
10.5694
10.5693
10.5692
10.5691
10.569
10.569
10.5689
10.5693
10.5693
10.5692
10.5691
10.569
10.5689
10.5689
10.5688
10.5693
10.5692
10.5691
10.569
10.5689
10.5688
10.5688
10.5687
10.5692
10.5691
10.569
10.5689
10.5688
10.5687
10.5687
10.5687
10.5691
10.5691
10.5689
10.5688
10.5687
10.5687
10.5686
10.5686
10.569
10.569
10.5689
10.5688
10.5687
10.5686
10.5686
10.5685
10.5689
10.5689
10.5688
10.5687
10.5687
10.5686
10.5686
10.5685
10.1961
10.1961
10.1961
10.196
10.196
10.196
10.1959
10.1959
10.1961
10.1961
10.196
10.196
10.1959
10.1959
10.1959
10.1958
10.1961
10.196
10.196
10.1959
10.1958
10.1958
10.1958
10.1958
10.196
10.196
10.1959
10.1958
10.1957
10.1957
10.1957
10.1957
10.196
10.1959
10.1959
10.1958
10.1957
10.1957
10.1957
10.1957
10.1959
10.1959
10.1958
10.1957
10.1957
10.1957
10.1957
10.1957
10.1959
10.1958
10.1958
10.1957
10.1957
10.1957
10.1956
10.1956
10.1958
10.1958
10.1957
10.1957
10.1957
10.1956
10.1956
10.1956
9.82306
9.82308
9.8231
9.82311
9.82311
9.82311
9.82311
9.8231
9.82304
9.82306
9.82306
9.82306
9.82305
9.82305
9.82306
9.82307
9.82301
9.82303
9.82301
9.82297
9.82296
9.82297
9.823
9.82303
9.82298
9.82299
9.82295
9.82289
9.82288
9.82291
9.82295
9.82299
9.82295
9.82295
9.82291
9.82285
9.82284
9.82287
9.82291
9.82295
9.8229
9.82291
9.82288
9.82285
9.82284
9.82285
9.82288
9.82292
9.82285
9.82286
9.82286
9.82285
9.82284
9.82285
9.82286
9.82288
9.82281
9.82281
9.82282
9.82282
9.82283
9.82283
9.82285
9.82286
9.45028
9.45032
9.45038
9.45042
9.45046
9.45049
9.45051
9.45053
9.45025
9.4503
9.45034
9.45037
9.4504
9.45044
9.45048
9.45051
9.45022
9.45026
9.45028
9.45029
9.45032
9.45037
9.45043
9.45049
9.45019
9.45022
9.45022
9.45021
9.45024
9.45031
9.45038
9.45045
9.45015
9.45018
9.45018
9.45017
9.4502
9.45026
9.45034
9.45041
9.45011
9.45015
9.45016
9.45017
9.45019
9.45025
9.45031
9.45037
9.45007
9.45011
9.45014
9.45016
9.45019
9.45023
9.45029
9.45034
9.45005
9.45007
9.45011
9.45014
9.45018
9.45022
9.45027
9.45031
9.07774
9.0778
9.07787
9.07793
9.07799
9.07804
9.07808
9.0781
9.07771
9.07778
9.07784
9.07789
9.07795
9.078
9.07806
9.0781
9.07768
9.07774
9.07779
9.07782
9.07788
9.07795
9.07802
9.07809
9.07766
9.07771
9.07773
9.07774
9.0778
9.07789
9.07798
9.07806
9.07763
9.07767
9.07769
9.07771
9.07776
9.07785
9.07795
9.07803
9.0776
9.07764
9.07767
9.0777
9.07776
9.07783
9.07792
9.078
9.07757
9.07762
9.07766
9.07771
9.07776
9.07782
9.0779
9.07796
9.07756
9.0776
9.07765
9.0777
9.07776
9.07782
9.07788
9.07793
8.70543
8.70549
8.70556
8.70562
8.70568
8.70573
8.70577
8.7058
8.70541
8.70548
8.70555
8.7056
8.70566
8.70572
8.70577
8.70581
8.70541
8.70546
8.70551
8.70555
8.70561
8.70569
8.70576
8.70582
8.70539
8.70544
8.70547
8.70549
8.70555
8.70565
8.70574
8.70581
8.70538
8.70542
8.70544
8.70547
8.70553
8.70562
8.70572
8.7058
8.70537
8.70541
8.70544
8.70548
8.70554
8.70562
8.7057
8.70578
8.70537
8.70541
8.70545
8.7055
8.70556
8.70562
8.70569
8.70576
8.70538
8.70541
8.70546
8.70552
8.70557
8.70563
8.70569
8.70574
8.33334
8.33338
8.33343
8.33348
8.33352
8.33356
8.33359
8.33362
8.33335
8.3334
8.33344
8.33349
8.33353
8.33358
8.33362
8.33365
8.33336
8.3334
8.33343
8.33346
8.33351
8.33357
8.33363
8.33368
8.33338
8.33341
8.33342
8.33343
8.33348
8.33356
8.33364
8.3337
8.33339
8.33341
8.33342
8.33344
8.33349
8.33357
8.33365
8.33371
8.3334
8.33343
8.33345
8.33348
8.33353
8.33359
8.33366
8.33372
8.33342
8.33345
8.33349
8.33352
8.33357
8.33362
8.33368
8.33372
8.33345
8.33348
8.33353
8.33357
8.33361
8.33365
8.33369
8.33372
7.96145
7.96146
7.96149
7.96152
7.96155
7.96157
7.96159
7.96162
7.96148
7.9615
7.96153
7.96155
7.96158
7.96161
7.96164
7.96166
7.96152
7.96154
7.96155
7.96156
7.96159
7.96163
7.96167
7.96171
7.96156
7.96157
7.96157
7.96156
7.96159
7.96165
7.96171
7.96175
7.96159
7.96161
7.9616
7.9616
7.96163
7.96169
7.96174
7.96179
7.96163
7.96165
7.96166
7.96167
7.96169
7.96174
7.96178
7.96182
7.96167
7.96169
7.96172
7.96174
7.96176
7.96179
7.96183
7.96185
7.96171
7.96174
7.96177
7.9618
7.96182
7.96185
7.96187
7.96187
7.58974
7.58974
7.58975
7.58977
7.58978
7.5898
7.58982
7.58984
7.58978
7.58979
7.58979
7.5898
7.58981
7.58983
7.58986
7.58989
7.58983
7.58984
7.58983
7.58983
7.58984
7.58987
7.58991
7.58994
7.58988
7.58989
7.58987
7.58985
7.58986
7.58991
7.58996
7.58999
7.58994
7.58994
7.58993
7.58991
7.58992
7.58997
7.59001
7.59004
7.58998
7.59
7.59
7.59
7.59001
7.59004
7.59007
7.59009
7.59003
7.59005
7.59007
7.59008
7.59009
7.59011
7.59013
7.59013
7.59007
7.5901
7.59013
7.59015
7.59016
7.59017
7.59018
7.59017
7.2182
7.2182
7.21821
7.21822
7.21823
7.21825
7.21827
7.2183
7.21823
7.21824
7.21824
7.21824
7.21825
7.21827
7.2183
7.21834
7.21828
7.21828
7.21827
7.21826
7.21827
7.2183
7.21834
7.21838
7.21833
7.21833
7.21831
7.21829
7.2183
7.21834
7.21839
7.21843
7.21837
7.21838
7.21837
7.21835
7.21836
7.2184
7.21844
7.21847
7.21841
7.21844
7.21844
7.21844
7.21845
7.21847
7.2185
7.21852
7.21845
7.21848
7.2185
7.21851
7.21852
7.21854
7.21855
7.21855
7.21848
7.21851
7.21854
7.21857
7.21858
7.21859
7.21859
7.21858
6.84682
6.84683
6.84685
6.84687
6.84689
6.84691
6.84694
6.84696
6.84683
6.84684
6.84685
6.84686
6.84688
6.84691
6.84695
6.84699
6.84685
6.84686
6.84686
6.84686
6.84687
6.84691
6.84696
6.84701
6.84688
6.84689
6.84687
6.84686
6.84687
6.84693
6.84698
6.84703
6.8469
6.84692
6.84691
6.8469
6.84691
6.84696
6.84701
6.84705
6.84692
6.84695
6.84696
6.84696
6.84698
6.84701
6.84705
6.84707
6.84693
6.84697
6.847
6.84702
6.84704
6.84706
6.84708
6.84709
6.84695
6.84698
6.84702
6.84704
6.84707
6.84708
6.8471
6.8471
6.47558
6.4756
6.47564
6.47567
6.4757
6.47573
6.47575
6.47578
6.47557
6.47559
6.47561
6.47563
6.47566
6.4757
6.47574
6.47578
6.47556
6.47558
6.47558
6.47559
6.47562
6.47567
6.47573
6.47578
6.47555
6.47557
6.47556
6.47556
6.47559
6.47565
6.47572
6.47577
6.47554
6.47556
6.47556
6.47556
6.47559
6.47565
6.47571
6.47576
6.47553
6.47556
6.47558
6.47559
6.47562
6.47567
6.47571
6.47575
6.47552
6.47556
6.47559
6.47562
6.47564
6.47568
6.47571
6.47573
6.47552
6.47555
6.47558
6.47562
6.47565
6.47567
6.4757
6.47572
6.10446
6.1045
6.10454
6.10458
6.10461
6.10464
6.10467
6.10468
6.10443
6.10446
6.1045
6.10453
6.10456
6.1046
6.10464
6.10467
6.1044
6.10442
6.10444
6.10446
6.10449
6.10455
6.1046
6.10465
6.10437
6.10438
6.10439
6.10438
6.10442
6.10449
6.10456
6.10462
6.10433
6.10435
6.10435
6.10435
6.10439
6.10446
6.10453
6.10458
6.1043
6.10432
6.10433
6.10435
6.10439
6.10444
6.1045
6.10455
6.10427
6.10429
6.10432
6.10435
6.10439
6.10443
6.10447
6.10451
6.10425
6.10427
6.1043
6.10434
6.10437
6.10441
6.10444
6.10448
5.73345
5.73349
5.73353
5.73357
5.7336
5.73362
5.73364
5.73364
5.73341
5.73345
5.73349
5.73352
5.73355
5.73359
5.73361
5.73363
5.73338
5.7334
5.73342
5.73344
5.73347
5.73352
5.73357
5.7336
5.73334
5.73335
5.73335
5.73335
5.73338
5.73345
5.73352
5.73356
5.73329
5.7333
5.7333
5.7333
5.73333
5.7334
5.73347
5.73352
5.73325
5.73326
5.73327
5.73328
5.73331
5.73337
5.73343
5.73348
5.73322
5.73323
5.73325
5.73327
5.7333
5.73334
5.73339
5.73343
5.7332
5.73321
5.73323
5.73326
5.73329
5.73332
5.73336
5.7334
5.36253
5.36257
5.3626
5.36263
5.36265
5.36267
5.36267
5.36266
5.36251
5.36255
5.36258
5.3626
5.36263
5.36265
5.36266
5.36266
5.36249
5.36251
5.36252
5.36253
5.36256
5.3626
5.36263
5.36265
5.36246
5.36247
5.36246
5.36245
5.36247
5.36254
5.36259
5.36262
5.36243
5.36243
5.36241
5.36241
5.36243
5.36249
5.36255
5.36259
5.36241
5.3624
5.36239
5.36239
5.36242
5.36247
5.36252
5.36256
5.36239
5.36238
5.36238
5.3624
5.36242
5.36245
5.36249
5.36253
5.36238
5.36238
5.36239
5.36241
5.36243
5.36245
5.36248
5.36251
4.99173
4.99175
4.99177
4.99179
4.9918
4.9918
4.9918
4.99179
4.99173
4.99176
4.99178
4.99179
4.99181
4.99181
4.99181
4.9918
4.99174
4.99176
4.99176
4.99175
4.99176
4.99179
4.99181
4.99182
4.99174
4.99174
4.99172
4.9917
4.99171
4.99176
4.9918
4.99182
4.99174
4.99173
4.9917
4.99168
4.9917
4.99174
4.99179
4.99182
4.99174
4.99172
4.99171
4.9917
4.99171
4.99174
4.99178
4.99182
4.99175
4.99174
4.99173
4.99173
4.99174
4.99176
4.99179
4.99182
4.99176
4.99176
4.99176
4.99177
4.99178
4.99179
4.99181
4.99182
4.62106
4.62107
4.62108
4.62109
4.62109
4.62108
4.62107
4.62108
4.62109
4.62111
4.62112
4.62112
4.62112
4.62112
4.62112
4.62111
4.62113
4.62114
4.62113
4.62112
4.62112
4.62114
4.62115
4.62115
4.62117
4.62116
4.62113
4.6211
4.6211
4.62114
4.62117
4.62118
4.6212
4.62118
4.62115
4.62112
4.62112
4.62115
4.62119
4.62121
4.62123
4.62121
4.62118
4.62117
4.62117
4.62119
4.62122
4.62124
4.62127
4.62125
4.62124
4.62123
4.62123
4.62124
4.62126
4.62128
4.62129
4.6213
4.6213
4.6213
4.6213
4.6213
4.62131
4.62131
4.25056
4.25055
4.25055
4.25056
4.25055
4.25055
4.25054
4.25055
4.25061
4.25062
4.25062
4.25061
4.25061
4.25061
4.2506
4.2506
4.25068
4.25067
4.25066
4.25064
4.25063
4.25065
4.25066
4.25066
4.25073
4.25072
4.25069
4.25065
4.25065
4.25068
4.25071
4.25072
4.25079
4.25077
4.25074
4.2507
4.2507
4.25073
4.25076
4.25077
4.25084
4.25083
4.2508
4.25078
4.25078
4.25079
4.25081
4.25083
4.2509
4.25089
4.25088
4.25087
4.25086
4.25087
4.25088
4.25088
4.25094
4.25095
4.25096
4.25096
4.25095
4.25095
4.25095
4.25093
3.88024
3.88022
3.88022
3.88022
3.88022
3.88021
3.88021
3.88023
3.88029
3.88029
3.88029
3.88028
3.88028
3.88028
3.88028
3.88028
3.88037
3.88036
3.88034
3.88032
3.88032
3.88033
3.88034
3.88035
3.88044
3.88043
3.88039
3.88035
3.88035
3.88038
3.88041
3.88042
3.88051
3.88049
3.88046
3.88042
3.88042
3.88044
3.88047
3.88049
3.88057
3.88056
3.88054
3.88052
3.88051
3.88053
3.88054
3.88055
3.88064
3.88064
3.88063
3.88062
3.88061
3.88062
3.88062
3.88062
3.88069
3.8807
3.88071
3.88071
3.88071
3.88071
3.8807
3.88068
3.51008
3.51006
3.51006
3.51007
3.51007
3.51006
3.51007
3.51009
3.51013
3.51013
3.51013
3.51012
3.51012
3.51013
3.51013
3.51015
3.51021
3.5102
3.51018
3.51017
3.51016
3.51018
3.5102
3.51022
3.51028
3.51027
3.51024
3.5102
3.5102
3.51023
3.51026
3.51028
3.51035
3.51034
3.51031
3.51028
3.51028
3.5103
3.51033
3.51035
3.51041
3.51041
3.51039
3.51037
3.51037
3.51039
3.5104
3.51041
3.51047
3.51048
3.51048
3.51047
3.51047
3.51048
3.51048
3.51048
3.51052
3.51054
3.51056
3.51056
3.51056
3.51056
3.51056
3.51054
3.14007
3.14006
3.14007
3.14007
3.14008
3.14008
3.14009
3.14012
3.14012
3.14013
3.14013
3.14013
3.14013
3.14014
3.14015
3.14017
3.14019
3.14019
3.14017
3.14016
3.14016
3.14018
3.14021
3.14023
3.14025
3.14024
3.14022
3.14019
3.1402
3.14023
3.14026
3.14029
3.14031
3.14031
3.14028
3.14026
3.14026
3.14029
3.14032
3.14035
3.14037
3.14037
3.14036
3.14035
3.14035
3.14037
3.14039
3.14041
3.14042
3.14043
3.14044
3.14044
3.14044
3.14045
3.14046
3.14046
3.14047
3.14049
3.14051
3.14052
3.14052
3.14053
3.14053
3.14051
2.77021
2.7702
2.77021
2.77023
2.77024
2.77025
2.77026
2.77028
2.77025
2.77025
2.77026
2.77027
2.77028
2.77029
2.77031
2.77033
2.7703
2.7703
2.7703
2.77029
2.7703
2.77033
2.77035
2.77038
2.77035
2.77035
2.77034
2.77032
2.77033
2.77036
2.7704
2.77043
2.7704
2.7704
2.77039
2.77037
2.77038
2.77042
2.77045
2.77048
2.77045
2.77046
2.77045
2.77045
2.77046
2.77048
2.77051
2.77053
2.77049
2.77051
2.77052
2.77053
2.77054
2.77055
2.77057
2.77057
2.77054
2.77056
2.77058
2.77059
2.7706
2.77061
2.77062
2.77061
2.40047
2.40047
2.40048
2.4005
2.40051
2.40053
2.40054
2.40057
2.4005
2.40051
2.40052
2.40053
2.40054
2.40056
2.40058
2.40061
2.40054
2.40055
2.40055
2.40055
2.40057
2.40059
2.40062
2.40065
2.40058
2.40058
2.40058
2.40057
2.40058
2.40062
2.40066
2.40069
2.40062
2.40063
2.40062
2.40061
2.40063
2.40067
2.4007
2.40073
2.40066
2.40067
2.40068
2.40068
2.40069
2.40072
2.40075
2.40077
2.4007
2.40072
2.40073
2.40074
2.40076
2.40078
2.40079
2.40081
2.40073
2.40076
2.40078
2.4008
2.40081
2.40083
2.40084
2.40084
2.03085
2.03086
2.03087
2.03089
2.0309
2.03092
2.03093
2.03096
2.03088
2.03089
2.0309
2.03092
2.03093
2.03095
2.03097
2.031
2.03091
2.03092
2.03093
2.03094
2.03095
2.03098
2.03101
2.03103
2.03095
2.03095
2.03096
2.03095
2.03097
2.03101
2.03104
2.03107
2.03098
2.03099
2.03099
2.03099
2.03101
2.03105
2.03108
2.0311
2.03101
2.03103
2.03104
2.03105
2.03106
2.03109
2.03112
2.03113
2.03105
2.03107
2.03108
2.0311
2.03112
2.03114
2.03115
2.03116
2.03108
2.03111
2.03113
2.03114
2.03116
2.03118
2.03119
2.03119
1.66136
1.66136
1.66137
1.66139
1.6614
1.66141
1.66143
1.66145
1.66138
1.66139
1.6614
1.66142
1.66143
1.66145
1.66146
1.66149
1.66141
1.66142
1.66143
1.66144
1.66146
1.66148
1.6615
1.66152
1.66144
1.66145
1.66146
1.66147
1.66149
1.66151
1.66153
1.66155
1.66148
1.66149
1.6615
1.6615
1.66152
1.66155
1.66157
1.66158
1.66151
1.66152
1.66153
1.66155
1.66156
1.66158
1.6616
1.66161
1.66154
1.66156
1.66157
1.66159
1.66161
1.66162
1.66163
1.66164
1.66157
1.66159
1.66161
1.66163
1.66164
1.66165
1.66166
1.66166
1.29202
1.29202
1.29203
1.29204
1.29205
1.29206
1.29208
1.2921
1.29204
1.29204
1.29205
1.29207
1.29208
1.29209
1.29211
1.29213
1.29206
1.29207
1.29208
1.2921
1.29212
1.29213
1.29214
1.29216
1.29209
1.2921
1.29212
1.29214
1.29215
1.29217
1.29218
1.29219
1.29212
1.29213
1.29215
1.29217
1.29219
1.2922
1.29221
1.29222
1.29215
1.29217
1.29219
1.2922
1.29222
1.29223
1.29224
1.29224
1.29218
1.2922
1.29221
1.29223
1.29225
1.29226
1.29227
1.29227
1.29221
1.29223
1.29224
1.29226
1.29227
1.29228
1.29229
1.29229
0.922808
0.9228
0.922799
0.922803
0.92281
0.922818
0.922829
0.922849
0.92282
0.922813
0.922817
0.922826
0.922835
0.922842
0.922852
0.92287
0.922837
0.922837
0.92285
0.922865
0.922875
0.922878
0.922881
0.92289
0.922858
0.922866
0.922886
0.922907
0.922917
0.922915
0.922912
0.922913
0.922881
0.922895
0.922917
0.922938
0.922947
0.922946
0.92294
0.922936
0.922905
0.92292
0.92294
0.922957
0.922966
0.922968
0.922964
0.922957
0.922929
0.922943
0.922958
0.922971
0.92298
0.922984
0.922983
0.922976
0.922955
0.922966
0.922974
0.922983
0.922991
0.922996
0.922999
0.922996
0.553695
0.553715
0.553738
0.553765
0.553792
0.553818
0.553839
0.553861
0.553683
0.553704
0.553739
0.553778
0.553813
0.553839
0.553856
0.553872
0.553671
0.553702
0.553752
0.553805
0.553844
0.553864
0.553872
0.553876
0.553663
0.553703
0.553765
0.553832
0.553871
0.553882
0.553881
0.553877
0.553659
0.553701
0.553765
0.553831
0.55387
0.553882
0.55388
0.553873
0.553658
0.553695
0.553748
0.553803
0.553841
0.553861
0.553866
0.553863
0.553661
0.553689
0.553728
0.553769
0.553804
0.553829
0.553843
0.553849
0.553667
0.55369
0.553714
0.553743
0.553772
0.553797
0.553818
0.553835
0.184763
0.18473
0.184686
0.184643
0.184605
0.184574
0.184548
0.184531
0.184768
0.184725
0.184677
0.184631
0.184591
0.184561
0.184537
0.184518
0.184769
0.18472
0.184669
0.184621
0.18458
0.184547
0.184524
0.184506
0.18477
0.184717
0.184665
0.18462
0.184576
0.18454
0.184516
0.184499
0.184773
0.18472
0.184666
0.18462
0.184577
0.184541
0.184518
0.184502
0.184781
0.184729
0.184676
0.184627
0.184585
0.184554
0.184532
0.184515
0.184788
0.184743
0.184693
0.184645
0.184606
0.184576
0.184554
0.184536
0.184793
0.184758
0.184713
0.184669
0.184631
0.184601
0.184576
0.184558
19.3059
19.3392
19.3752
19.412
19.4487
19.4849
19.5215
19.556
19.2629
19.3021
19.343
19.3858
19.4292
19.4724
19.5158
19.5561
19.236
19.2786
19.3223
19.3684
19.4155
19.4626
19.51
19.5539
19.2217
19.2655
19.3105
19.3582
19.4072
19.4564
19.506
19.5518
19.2217
19.2655
19.3105
19.3582
19.4072
19.4564
19.506
19.5518
19.236
19.2786
19.3223
19.3684
19.4155
19.4626
19.51
19.5539
19.2629
19.302
19.343
19.3858
19.4292
19.4723
19.5157
19.556
19.3059
19.3391
19.3751
19.412
19.4486
19.4848
19.5215
19.556
17.8767
17.8615
17.8447
17.83
17.8178
17.8074
17.7972
17.7858
17.9021
17.8834
17.8648
17.8478
17.8331
17.8208
17.8091
17.7965
17.9167
17.8946
17.8745
17.8561
17.8399
17.8262
17.8135
17.7997
17.9251
17.9017
17.8809
17.8617
17.8445
17.83
17.8165
17.8021
17.9251
17.9016
17.8809
17.8617
17.8445
17.83
17.8165
17.8021
17.9166
17.8945
17.8744
17.856
17.8398
17.8261
17.8134
17.7997
17.902
17.8833
17.8647
17.8477
17.833
17.8207
17.8091
17.7964
17.8765
17.8613
17.8446
17.8299
17.8176
17.8073
17.7971
17.7857
17.8036
17.8046
17.8039
17.8032
17.8022
17.8005
17.7975
17.794
17.7992
17.8022
17.803
17.8032
17.8027
17.8011
17.798
17.7941
17.7957
17.7994
17.801
17.8016
17.8014
17.7999
17.7967
17.7926
17.794
17.798
17.7999
17.8008
17.8007
17.7993
17.7961
17.7918
17.794
17.798
17.7999
17.8008
17.8007
17.7993
17.7961
17.7918
17.7956
17.7993
17.8009
17.8015
17.8013
17.7999
17.7967
17.7926
17.799
17.8021
17.8029
17.8031
17.8026
17.801
17.798
17.7941
17.8033
17.8044
17.8037
17.803
17.8021
17.8004
17.7975
17.794
17.2796
17.2783
17.2771
17.2762
17.2756
17.2753
17.2752
17.2752
17.2813
17.2796
17.2784
17.2774
17.2768
17.2764
17.2762
17.2762
17.2826
17.2806
17.2793
17.2783
17.2776
17.2771
17.277
17.2769
17.2834
17.2811
17.2798
17.2789
17.2781
17.2777
17.2775
17.2774
17.2833
17.2811
17.2798
17.2789
17.2781
17.2777
17.2775
17.2774
17.2826
17.2805
17.2792
17.2783
17.2776
17.2772
17.277
17.277
17.2812
17.2795
17.2783
17.2774
17.2768
17.2765
17.2764
17.2764
17.2793
17.278
17.2769
17.2761
17.2756
17.2753
17.2753
17.2753
16.9404
16.9408
16.941
16.9411
16.9412
16.9411
16.9409
16.9407
16.9393
16.94
16.9404
16.9407
16.9409
16.9409
16.9407
16.9405
16.9388
16.9396
16.9402
16.9405
16.9407
16.9408
16.9407
16.9404
16.9385
16.9394
16.9399
16.9404
16.9406
16.9407
16.9406
16.9404
16.9385
16.9394
16.94
16.9404
16.9407
16.9408
16.9407
16.9405
16.9388
16.9396
16.9402
16.9406
16.9409
16.941
16.9409
16.9407
16.9394
16.9401
16.9406
16.9409
16.9411
16.9412
16.9411
16.941
16.9402
16.9407
16.9411
16.9413
16.9414
16.9415
16.9414
16.9412
16.5543
16.5542
16.554
16.5539
16.5538
16.5538
16.5538
16.5538
16.5544
16.5542
16.5541
16.554
16.5539
16.5539
16.554
16.554
16.5548
16.5545
16.5544
16.5543
16.5542
16.5542
16.5543
16.5544
16.5549
16.5547
16.5545
16.5544
16.5544
16.5544
16.5545
16.5546
16.555
16.5547
16.5546
16.5545
16.5545
16.5546
16.5547
16.5548
16.5549
16.5547
16.5546
16.5545
16.5546
16.5546
16.5547
16.5549
16.5547
16.5546
16.5545
16.5545
16.5545
16.5546
16.5547
16.5549
16.5544
16.5543
16.5544
16.5544
16.5545
16.5545
16.5547
16.5548
16.1811
16.1812
16.1811
16.1809
16.1808
16.1807
16.1806
16.1805
16.181
16.181
16.181
16.181
16.1809
16.1809
16.1808
16.1807
16.1811
16.1812
16.1812
16.1812
16.1812
16.1812
16.1811
16.1811
16.1812
16.1813
16.1813
16.1814
16.1814
16.1814
16.1814
16.1814
16.1813
16.1814
16.1815
16.1815
16.1816
16.1816
16.1816
16.1816
16.1814
16.1815
16.1816
16.1816
16.1817
16.1818
16.1818
16.1818
16.1815
16.1816
16.1817
16.1817
16.1818
16.1819
16.1819
16.1819
16.1815
16.1816
16.1817
16.1818
16.1819
16.1819
16.182
16.182
15.8027
15.8027
15.8025
15.8023
15.8022
15.802
15.8019
15.8018
15.8027
15.8026
15.8026
15.8025
15.8024
15.8023