/*--------------------------------*- C++ -*----------------------------------*\
| =========                 |                                                 |
| \\      /  F ield         | OpenFOAM: The Open Source CFD Toolbox           |
|  \\    /   O peration     | Version:  2406                                  |
|   \\  /    A nd           | Website:  www.openfoam.com                      |
|    \\/     M anipulation  |                                                 |
\*---------------------------------------------------------------------------*/
FoamFile
{
    version     2.0;
    format      ascii;
    arch        "LSB;label=32;scalar=64";
    class       volVectorField;
    location    "0.3";
    object      U;
}
// * * * * * * * * * * * * * * * * * * * * * * * * * * * * * * * * * * * * * //

dimensions      [0 1 -1 0 0 0 0];

internalField   nonuniform List<vector> 
16000
(
(0.153254 0.15326 1.11477)
(0.117691 0.16834 1.15428)
(0.0725441 0.177085 1.17296)
(0.0245276 0.181177 1.18031)
(-0.0245214 0.181177 1.18031)
(-0.072537 0.177083 1.17297)
(-0.117683 0.168339 1.15429)
(-0.153245 0.153261 1.11479)
(0.168332 0.117698 1.15428)
(0.126271 0.126278 1.18741)
(0.0767512 0.131287 1.19776)
(0.0257561 0.13363 1.19999)
(-0.0257581 0.133629 1.2)
(-0.0767515 0.131285 1.19776)
(-0.126268 0.126275 1.18743)
(-0.168328 0.117697 1.1543)
(0.177077 0.07255 1.17296)
(0.13128 0.0767578 1.19776)
(0.0793486 0.0793556 1.202)
(0.0265268 0.0805612 1.20092)
(-0.0265335 0.0805603 1.20092)
(-0.0793533 0.0793533 1.20201)
(-0.131281 0.0767549 1.19777)
(-0.177075 0.0725478 1.17297)
(0.18117 0.0245324 1.18031)
(0.133622 0.0257617 1.19999)
(0.0805544 0.0265326 1.20092)
(0.0268763 0.0268818 1.1982)
(-0.0268848 0.0268811 1.1982)
(-0.0805607 0.0265308 1.20092)
(-0.133624 0.0257592 1.2)
(-0.181168 0.02453 1.18032)
(0.18117 -0.0245177 1.18031)
(0.133621 -0.0257536 1.19999)
(0.0805541 -0.0265289 1.20092)
(0.0268764 -0.0268807 1.1982)
(-0.0268843 -0.0268811 1.1982)
(-0.0805598 -0.0265301 1.20092)
(-0.133623 -0.0257554 1.2)
(-0.181167 -0.0245201 1.18032)
(0.177077 -0.0725343 1.17296)
(0.131279 -0.076748 1.19776)
(0.0793481 -0.0793497 1.202)
(0.0265271 -0.0805578 1.20092)
(-0.0265321 -0.080558 1.20092)
(-0.0793511 -0.0793505 1.202)
(-0.131278 -0.0767494 1.19777)
(-0.177073 -0.0725368 1.17298)
(0.168334 -0.117681 1.15429)
(0.12627 -0.126266 1.18741)
(0.0767507 -0.131278 1.19776)
(0.0257566 -0.133622 1.19999)
(-0.0257564 -0.133623 1.19999)
(-0.076749 -0.131279 1.19776)
(-0.126266 -0.126267 1.18743)
(-0.168327 -0.117684 1.1543)
(0.153257 -0.153244 1.11478)
(0.117692 -0.168326 1.15429)
(0.0725446 -0.177073 1.17296)
(0.0245283 -0.181167 1.18031)
(-0.0245203 -0.181168 1.18032)
(-0.0725358 -0.177075 1.17297)
(-0.117683 -0.168329 1.1543)
(-0.153247 -0.153249 1.11479)
(0.0493187 0.0493045 1.29016)
(0.041317 0.0614285 1.38925)
(0.0279289 0.0702101 1.44403)
(0.00997374 0.0749976 1.46815)
(-0.00956913 0.0750163 1.46815)
(-0.0275442 0.0702645 1.44401)
(-0.0409732 0.06152 1.38924)
(-0.0490485 0.0494194 1.29017)
(0.0614326 0.041303 1.38926)
(0.0530289 0.0530283 1.4874)
(0.0356903 0.0614831 1.53285)
(0.0126533 0.0658586 1.55056)
(-0.0122813 0.0658717 1.55055)
(-0.0353341 0.0615228 1.53282)
(-0.052708 0.0530966 1.48737)
(-0.0611758 0.0413987 1.38925)
(0.0702036 0.0279157 1.44404)
(0.0614718 0.0356922 1.53286)
(0.0412309 0.0412451 1.57095)
(0.0145226 0.0440537 1.58438)
(-0.0141786 0.0440616 1.58436)
(-0.0409011 0.0412695 1.57092)
(-0.0611755 0.0357355 1.53281)
(-0.0699683 0.0279806 1.44401)
(0.0749822 0.00996102 1.46817)
(0.0658378 0.0126557 1.55057)
(0.0440301 0.0145369 1.58438)
(0.0154495 0.015473 1.5954)
(-0.0151256 0.0154763 1.59538)
(-0.0437198 0.0145474 1.58434)
(-0.0655601 0.0126754 1.55052)
(-0.0747619 0.00999298 1.46813)
(0.0749937 -0.00958199 1.46817)
(0.0658437 -0.0122807 1.55056)
(0.0440309 -0.0141671 1.58437)
(0.0154459 -0.0151052 1.59539)
(-0.0151334 -0.0151057 1.59537)
(-0.043732 -0.0141685 1.58433)
(-0.0655768 -0.0122826 1.55051)
(-0.074783 -0.00958302 1.46813)
(0.0702364 -0.0275578 1.44404)
(0.0614898 -0.035337 1.53284)
(0.0412341 -0.0408945 1.57093)
(0.0145118 -0.0437046 1.58435)
(-0.0142022 -0.0437088 1.58433)
(-0.0409381 -0.0409077 1.57089)
(-0.0612256 -0.03536 1.53279)
(-0.0700282 -0.0275907 1.44401)
(0.0614882 -0.0409881 1.38926)
(0.0530608 -0.052715 1.48738)
(0.0356972 -0.0611743 1.53282)
(0.0126361 -0.0655505 1.55052)
(-0.0123213 -0.0655587 1.55051)
(-0.0353966 -0.0611994 1.53279)
(-0.052792 -0.0527589 1.48735)
(-0.0612754 -0.0410502 1.38925)
(0.0493873 -0.0490637 1.2902)
(0.0413623 -0.0611853 1.38926)
(0.0279407 -0.0699706 1.44402)
(0.00995063 -0.0747567 1.46814)
(-0.00962576 -0.0747694 1.46813)
(-0.0276316 -0.0700071 1.444)
(-0.0410873 -0.0612478 1.38924)
(-0.0491735 -0.0491438 1.2902)
(0.0286612 0.0285198 1.1842)
(0.0255363 0.0367508 1.33601)
(0.0176491 0.0423825 1.43064)
(0.00677955 0.0454556 1.47559)
(-0.00521654 0.0455238 1.47573)
(-0.0161879 0.0425791 1.43107)
(-0.024268 0.0370578 1.33671)
(-0.0276979 0.0288755 1.18512)
(0.0368689 0.0253746 1.33602)
(0.0327016 0.0325726 1.50607)
(0.0225046 0.0377486 1.59909)
(0.00849879 0.0405 1.63989)
(-0.00691081 0.0405532 1.64001)
(-0.0210128 0.0379069 1.59945)
(-0.0314038 0.0328279 1.50673)
(-0.0358756 0.0256977 1.33697)
(0.0424664 0.0174839 1.43068)
(0.0378408 0.0223751 1.5991)
(0.0259549 0.0258612 1.6871)
(0.00968345 0.0276522 1.72431)
(-0.00811545 0.0276861 1.72441)
(-0.0244781 0.0259647 1.68742)
(-0.0365584 0.0225495 1.59971)
(-0.041495 0.017719 1.4316)
(0.0455053 0.00661855 1.47564)
(0.0405568 0.00837206 1.63993)
(0.0277123 0.0095898 1.72433)
(0.0102792 0.0102169 1.75966)
(-0.00874891 0.0102342 1.75976)
(-0.0262691 0.00964174 1.72462)
(-0.0393046 0.00846128 1.64048)
(-0.0445617 0.00674538 1.47653)
(0.0455408 -0.00536717 1.47579)
(0.0405776 -0.00703313 1.64006)
(0.0277154 -0.00820895 1.72445)
(0.0102668 -0.00881309 1.75977)
(-0.00877676 -0.00881158 1.75987)
(-0.0263115 -0.00820408 1.72473)
(-0.0393624 -0.00702622 1.6406)
(-0.0446288 -0.00535481 1.47666)
(0.0425682 -0.0163228 1.43113)
(0.0379031 -0.0211281 1.59951)
(0.0259665 -0.0245697 1.68747)
(0.00964677 -0.0263336 1.72466)
(-0.00819755 -0.0263469 1.72475)
(-0.0246053 -0.024612 1.68776)
(-0.0367287 -0.0212017 1.60007)
(-0.0416881 -0.0164189 1.43199)
(0.0370255 -0.0243836 1.33677)
(0.0328022 -0.0315077 1.50679)
(0.0225284 -0.0366433 1.59976)
(0.00844202 -0.0393651 1.64052)
(-0.00704509 -0.0393951 1.64062)
(-0.0212205 -0.0367337 1.60008)
(-0.031674 -0.0316554 1.50737)
(-0.0361738 -0.0245696 1.33762)
(0.0288333 -0.0277884 1.18516)
(0.0256587 -0.0359588 1.33702)
(0.0176806 -0.041563 1.43165)
(0.00670611 -0.0446095 1.47657)
(-0.00539434 -0.0446534 1.47668)
(-0.0164566 -0.0416898 1.432)
(-0.024603 -0.0361571 1.33762)
(-0.0280421 -0.0280169 1.18596)
(0.00453169 0.00418207 1.18001)
(0.00552229 0.00673419 1.33998)
(0.00492415 0.00902388 1.44482)
(0.00290432 0.0104243 1.49653)
(0.000257354 0.0105496 1.49712)
(-0.00200152 0.00937473 1.44654)
(-0.0030296 0.00725177 1.34268)
(-0.00267366 0.00473292 1.18334)
(0.00707026 0.0050977 1.33995)
(0.00864423 0.00824967 1.5287)
(0.00736899 0.0108303 1.63966)
(0.00388973 0.0122694 1.6909)
(-0.0004581 0.0123743 1.69146)
(-0.00417838 0.0111414 1.64135)
(-0.00592011 0.00872441 1.53149)
(-0.00502237 0.0056487 1.34358)
(0.00930264 0.00447381 1.44475)
(0.0111653 0.00695183 1.63963)
(0.00917673 0.00881565 1.74972)
(0.00455091 0.00973871 1.79849)
(-0.00102706 0.00980811 1.79899)
(-0.00588403 0.00903205 1.7513)
(-0.00835523 0.0072969 1.64238)
(-0.00720936 0.00489693 1.44851)
(0.0106363 0.00245751 1.49641)
(0.0125353 0.0034743 1.69084)
(0.0100356 0.00418527 1.79847)
(0.00481354 0.00450593 1.84426)
(-0.001308 0.00454342 1.84468)
(-0.00673917 0.00429973 1.79993)
(-0.00972134 0.00366055 1.69352)
(-0.00854771 0.00269751 1.5002)
(0.0106928 -0.000154987 1.49695)
(0.0125708 -0.000849676 1.69137)
(0.0100402 -0.00137934 1.79896)
(0.00479193 -0.00161063 1.84467)
(-0.00135442 -0.00160429 1.84508)
(-0.00680889 -0.00136348 1.80039)
(-0.00981679 -0.000827144 1.69401)
(-0.00865448 -0.000120138 1.50069)
(0.00945838 -0.00235856 1.44634)
(0.0112727 -0.0045269 1.64123)
(0.00920215 -0.00620495 1.75123)
(0.00449195 -0.00702074 1.7999)
(-0.00116493 -0.00704468 1.80038)
(-0.0060983 -0.00628812 1.75273)
(-0.00863568 -0.00466213 1.64386)
(-0.0075091 -0.00251469 1.44996)
(0.00729032 -0.00332095 1.34244)
(0.00880447 -0.00620983 1.53132)
(0.00741396 -0.00862544 1.64227)
(0.00380182 -0.00996119 1.69345)
(-0.000675798 -0.0100199 1.69396)
(-0.00451395 -0.00880164 1.64383)
(-0.00634392 -0.00647771 1.53391)
(-0.00546025 -0.00361996 1.34585)
(0.0047468 -0.00288578 1.18308)
(0.00569403 -0.00523531 1.34336)
(0.00497176 -0.00740816 1.44835)
(0.00279459 -0.00872598 1.50007)
(-1.04482e-05 -0.00880808 1.50059)
(-0.00240218 -0.00763736 1.44989)
(-0.00351232 -0.00556953 1.34581)
(-0.00312853 -0.00322147 1.18613)
(0.00291872 0.00250647 1.16358)
(0.00331309 0.0033372 1.32651)
(0.00318212 0.004048 1.43509)
(0.00261985 0.00452815 1.48965)
(0.00176344 0.00466993 1.49105)
(0.000849546 0.00443627 1.43913)
(0.000100562 0.00388125 1.33275)
(-0.000423052 0.00304236 1.1711)
(0.00376195 0.00278066 1.32634)
(0.0042868 0.00375208 1.52152)
(0.00406686 0.00460253 1.63941)
(0.00317277 0.00513795 1.69529)
(0.00189175 0.00527282 1.6967)
(0.00061267 0.00498601 1.64358)
(-0.000332557 0.00430427 1.52822)
(-0.000846172 0.00335469 1.33474)
(0.00442006 0.00259498 1.43471)
(0.00507761 0.00347943 1.63921)
(0.00472053 0.00419108 1.75856)
(0.00351181 0.004574 1.81284)
(0.0018854 0.00467025 1.81416)
(0.000293606 0.00447786 1.76262)
(-0.000840844 0.0039079 1.64603)
(-0.0013086 0.00306383 1.44361)
(0.00482141 0.00202723 1.48905)
(0.00552417 0.00258021 1.69489)
(0.00501853 0.00297134 1.81266)
(0.00361818 0.0031538 1.86336)
(0.00184962 0.00320802 1.86445)
(0.000102111 0.00313092 1.81651)
(-0.00118985 0.00282425 1.70168)
(-0.00163855 0.00230916 1.49815)
(0.00487741 0.00121447 1.49024)
(0.00556594 0.00133809 1.69611)
(0.00502695 0.00137252 1.8138)
(0.00359603 0.00139746 1.8643)
(0.00179668 0.0014057 1.86537)
(2.51208e-05 0.00139904 1.81761)
(-0.00129172 0.00137877 1.70283)
(-0.00174102 0.00127172 1.49927)
(0.00456976 0.000395463 1.43816)
(0.00519706 0.00014211 1.64281)
(0.00475585 -0.00015629 1.76208)
(0.00345227 -0.000308039 1.81617)
(0.00173692 -0.000340096 1.81744)
(6.32452e-05 -0.000259434 1.76601)
(-0.00112993 -9.36675e-06 1.64945)
(-0.00158857 0.000244172 1.44687)
(0.00397043 -0.000264998 1.33167)
(0.00444487 -0.000707864 1.52729)
(0.00411613 -0.00120164 1.64531)
(0.00308764 -0.00152569 1.70115)
(0.00167258 -0.00160083 1.70249)
(0.000279982 -0.00141567 1.64928)
(-0.000740311 -0.00100965 1.53371)
(-0.00124454 -0.000560446 1.33978)
(0.00310247 -0.000685334 1.17)
(0.00346557 -0.00111316 1.33372)
(0.00322857 -0.00156208 1.44275)
(0.00252213 -0.00187892 1.49746)
(0.00151566 -0.00197211 1.49876)
(0.000485506 -0.00181497 1.44654)
(-0.000325077 -0.00146138 1.33962)
(-0.000811866 -0.0010098 1.17716)
(0.00112865 0.00107849 1.15983)
(0.00171265 0.00140198 1.32211)
(0.00214983 0.00173719 1.43098)
(0.00235846 0.00200839 1.48639)
(0.00233385 0.00213472 1.48878)
(0.00213411 0.00207465 1.43788)
(0.00184294 0.00184842 1.33263)
(0.00143674 0.00145489 1.17233)
(0.00147035 0.00159636 1.32183)
(0.00224943 0.00211733 1.51677)
(0.00275615 0.00259454 1.63574)
(0.00291155 0.00293277 1.69305)
(0.00277137 0.00306024 1.69556)
(0.00245424 0.00294429 1.6431)
(0.00207629 0.00259242 1.52835)
(0.00166298 0.00204818 1.336)
(0.00177716 0.00199145 1.43032)
(0.00268214 0.00258708 1.63536)
(0.00318953 0.00307249 1.75666)
(0.00324903 0.00337313 1.81284)
(0.00298928 0.00346798 1.81527)
(0.00256377 0.00334124 1.76401)
(0.00210876 0.00296367 1.6474)
(0.0016806 0.00236514 1.44555)
(0.00199592 0.00218729 1.48532)
(0.00294636 0.00273688 1.69226)
(0.00341184 0.00312761 1.81244)
(0.00337634 0.00332735 1.86514)
(0.00304914 0.0033781 1.86722)
(0.00256478 0.00327202 1.81953)
(0.00205078 0.00294237 1.70439)
(0.00161654 0.00239318 1.50104)
(0.0020714 0.00218081 1.48734)
(0.0030046 0.0026218 1.69438)
(0.00343732 0.0028885 1.81448)
(0.00336942 0.00300687 1.86685)
(0.00300752 0.003006 1.86888)
(0.00250042 0.00289529 1.82151)
(0.00196281 0.00262782 1.70645)
(0.00152388 0.00217704 1.50301)
(0.00198291 0.00202175 1.43617)
(0.00284818 0.0023511 1.64159)
(0.00327009 0.00250136 1.76285)
(0.00323365 0.00254349 1.81878)
(0.00288336 0.00250117 1.82114)
(0.00237708 0.00237594 1.77005)
(0.0018626 0.00216914 1.65344)
(0.00142968 0.00182892 1.45124)
(0.00175665 0.00177379 1.33078)
(0.00248993 0.00202316 1.52662)
(0.00288499 0.00208935 1.64595)
(0.00290152 0.00205801 1.70331)
(0.00262261 0.00197548 1.70573)
(0.00218639 0.00186033 1.6531)
(0.00173195 0.00170664 1.53792)
(0.00132089 0.00146312 1.3447)
(0.00138514 0.00140246 1.17049)
(0.00196562 0.00164512 1.33421)
(0.00230072 0.00168864 1.44397)
(0.00236335 0.00164082 1.49975)
(0.00218237 0.00154566 1.50206)
(0.00185689 0.00143356 1.45064)
(0.00149883 0.00130391 1.34444)
(0.00113679 0.00111256 1.1827)
(0.0015783 0.00231064 1.15294)
(0.00203975 0.00283396 1.31575)
(0.00229389 0.00325437 1.42561)
(0.00230583 0.0035524 1.48217)
(0.00208449 0.00365661 1.48561)
(0.00169353 0.0035271 1.43548)
(0.00123567 0.00317845 1.33067)
(0.000753784 0.00256843 1.17049)
(0.00204707 0.00291115 1.31562)
(0.00265122 0.00358292 1.51155)
(0.00294092 0.00411987 1.63196)
(0.00288503 0.00447049 1.69073)
(0.00253632 0.00457247 1.69441)
(0.0020014 0.00439374 1.64269)
(0.00140319 0.00393469 1.52823)
(0.000840875 0.00320955 1.33572)
(0.00245533 0.00321937 1.42522)
(0.00314322 0.003946 1.63167)
(0.00341396 0.00448897 1.75481)
(0.0032561 0.00480228 1.81271)
(0.00278478 0.00486862 1.81634)
(0.00212719 0.00467518 1.7657)
(0.00141623 0.00418784 1.64923)
(0.000779546 0.0034207 1.44703)
(0.00275886 0.00323142 1.48146)
(0.00346902 0.00390838 1.69008)
(0.00368336 0.00436547 1.81232)
(0.00341788 0.00457649 1.86688)
(0.00287162 0.00459472 1.87005)
(0.0021409 0.0044219 1.82295)
(0.00134728 0.00397288 1.70792)
(0.000667331 0.00325595 1.5041)
(0.00290237 0.00296196 1.48461)
(0.00358996 0.00352894 1.69341)
(0.00375654 0.00387527 1.81557)
(0.00344215 0.00401379 1.86965)
(0.00284647 0.00398186 1.87272)
(0.00207989 0.00379289 1.82611)
(0.00124586 0.00339387 1.71118)
(0.000549668 0.00277869 1.5072)
(0.00285234 0.00247803 1.4343)
(0.00348882 0.00291086 1.64144)
(0.0036355 0.00314133 1.76462)
(0.00333555 0.00321223 1.82218)
(0.00272761 0.0031427 1.82573)
(0.00194291 0.00293115 1.77533)
(0.00112852 0.00259612 1.65881)
(0.000457532 0.00212003 1.45598)
(0.00261344 0.00188471 1.32948)
(0.00316062 0.00217179 1.52691)
(0.00328488 0.00228461 1.648)
(0.0030199 0.00227186 1.70693)
(0.00245785 0.00216441 1.71053)
(0.0017301 0.00198201 1.65851)
(0.000991086 0.00174176 1.54333)
(0.000393899 0.00143572 1.34937)
(0.00212888 0.00122971 1.16941)
(0.00259923 0.00140946 1.33453)
(0.00269808 0.00142577 1.44587)
(0.00248218 0.00136401 1.5031)
(0.00201058 0.00125108 1.50646)
(0.00140413 0.00111883 1.45553)
(0.000808105 0.000987701 1.34919)
(0.000346374 0.000843463 1.18671)
(0.00136698 0.00289955 1.14505)
(0.00177587 0.00358311 1.30845)
(0.00202156 0.00410024 1.41946)
(0.00204433 0.00444361 1.47728)
(0.00184984 0.00453967 1.48173)
(0.00150029 0.00435033 1.43218)
(0.00109517 0.00389537 1.32754)
(0.000657837 0.00312989 1.16731)
(0.00184226 0.00373329 1.30888)
(0.00241278 0.0046131 1.50631)
(0.00267044 0.00527458 1.62867)
(0.00257569 0.00567455 1.68919)
(0.00219617 0.00575927 1.69403)
(0.0016586 0.00550008 1.64268)
(0.00110493 0.00489442 1.52789)
(0.000633819 0.00395865 1.33457)
(0.00231943 0.00419726 1.42031)
(0.00297944 0.00513506 1.62902)
(0.00318466 0.00578942 1.7547)
(0.00293331 0.00613361 1.81469)
(0.00237073 0.00617151 1.81951)
(0.00165665 0.00589819 1.76908)
(0.000961602 0.00526476 1.65193)
(0.000436967 0.00427947 1.44834)
(0.00271562 0.00426873 1.47845)
(0.00340065 0.00511736 1.68978)
(0.00351656 0.00564623 1.81486)
(0.00311096 0.00585563 1.87163)
(0.00242538 0.00583356 1.87589)
(0.00158924 0.00559898 1.82894)
(0.000776409 0.00503255 1.71313)
(0.000212183 0.00413275 1.50761)
(0.00294948 0.00395529 1.48319)
(0.00361376 0.00463603 1.69484)
(0.00365876 0.00501061 1.81982)
(0.00317206 0.00512517 1.87593)
(0.00240459 0.00504989 1.88)
(0.00150333 0.00480878 1.83377)
(0.000622163 0.00432776 1.71807)
(3.37584e-05 0.00358534 1.51225)
(0.00296056 0.00334492 1.43393)
(0.00357924 0.00383169 1.64379)
(0.00360262 0.00404982 1.76964)
(0.00312084 0.00408402 1.82919)
(0.00232531 0.00397372 1.83387)
(0.00139258 0.00371702 1.78372)
(0.000524338 0.00333865 1.66638)
(-5.09158e-05 0.00279554 1.4617)
(0.00273789 0.00257821 1.32959)
(0.00327101 0.00287165 1.52941)
(0.00328937 0.00293729 1.65292)
(0.00286153 0.00287114 1.71376)
(0.00212781 0.00272447 1.71846)
(0.00126723 0.00252207 1.6666)
(0.00048116 0.00227935 1.55057)
(-4.20021e-05 0.00195619 1.35488)
(0.00221822 0.00171466 1.16954)
(0.00267938 0.00189293 1.33649)
(0.00270494 0.00185627 1.44984)
(0.00237353 0.0017437 1.50873)
(0.0017779 0.001601 1.51306)
(0.00107852 0.0014652 1.46223)
(0.000451144 0.00134957 1.35514)
(3.86706e-05 0.00119744 1.19135)
(0.000885513 0.0027034 1.13675)
(0.00117261 0.00336447 1.30024)
(0.00143144 0.00383849 1.41196)
(0.00157848 0.00414768 1.47075)
(0.00156873 0.00423994 1.47612)
(0.00140059 0.00407853 1.42726)
(0.0011164 0.00366471 1.32308)
(0.000709703 0.00293348 1.16317)
(0.00117742 0.00361399 1.3016)
(0.00160747 0.00450276 1.49997)
(0.00190483 0.00514204 1.62388)
(0.00198415 0.00551856 1.68594)
(0.00184745 0.0056008 1.69184)
(0.00155192 0.00536086 1.64093)
(0.00117409 0.00477827 1.52601)
(0.000758199 0.00384506 1.33225)
(0.001534 0.00423971 1.41489)
(0.00205205 0.0052455 1.62541)
(0.00231652 0.00591381 1.75337)
(0.00226308 0.00625198 1.81532)
(0.00196369 0.00628538 1.82127)
(0.00151818 0.00601035 1.77101)
(0.00103404 0.00536598 1.65323)
(0.000595166 0.00433236 1.44848)
(0.00188535 0.00450724 1.47521)
(0.00244249 0.00548095 1.68893)
(0.00262726 0.00605561 1.81668)
(0.00241926 0.00626765 1.8756)
(0.00198033 0.00623414 1.88088)
(0.00140593 0.00598507 1.834)
(0.000816555 0.00537859 1.71734)
(0.000363379 0.00438392 1.5102)
(0.00214957 0.00435793 1.48194)
(0.00270466 0.00520958 1.69621)
(0.00281202 0.00565619 1.82391)
(0.00249999 0.00577561 1.88195)
(0.00194975 0.00568506 1.88691)
(0.00128731 0.00542465 1.841)
(0.000616959 0.00488078 1.72441)
(0.000149404 0.00400746 1.51675)
(0.00224194 0.00383192 1.4342)
(0.002772 0.00451915 1.64661)
(0.00284187 0.00483661 1.77502)
(0.00250092 0.00489606 1.83645)
(0.00189407 0.00477506 1.84216)
(0.00116614 0.00448043 1.79214)
(0.000479515 0.00401679 1.67386)
(2.03499e-05 0.00331811 1.46729)
(0.00211804 0.00304999 1.33077)
(0.00258656 0.00354731 1.53282)
(0.00264041 0.00373026 1.65864)
(0.00232267 0.0037107 1.72127)
(0.00174242 0.00356019 1.72696)
(0.00104933 0.00331089 1.67511)
(0.000412581 0.00297203 1.55812)
(-7.33489e-06 0.00248788 1.36069)
(0.00169749 0.00207995 1.171)
(0.00211481 0.0024264 1.33969)
(0.0021705 0.00250152 1.45492)
(0.00192633 0.0024456 1.51534)
(0.0014532 0.00230914 1.5205)
(0.000888148 0.0021329 1.46965)
(0.000380005 0.0019326 1.36175)
(5.9291e-05 0.00164035 1.19658)
(0.000286004 0.00164333 1.13045)
(0.000392055 0.00212 1.2933)
(0.000588584 0.00245181 1.4049)
(0.000796045 0.00266841 1.46405)
(0.000934142 0.00274682 1.4701)
(0.000941981 0.00265497 1.42208)
(0.000807511 0.00237264 1.31877)
(0.00051794 0.00184157 1.15967)
(0.000331687 0.00234382 1.29561)
(0.000532098 0.00304332 1.49372)
(0.000799328 0.0035364 1.61804)
(0.001029 0.00383075 1.68089)
(0.00115271 0.00391739 1.68764)
(0.00113662 0.00376758 1.63744)
(0.000977667 0.00334192 1.52307)
(0.000676926 0.00261177 1.32976)
(0.000462318 0.00294065 1.41011)
(0.000733736 0.00381221 1.62095)
(0.00101207 0.0043853 1.74992)
(0.00118878 0.00468461 1.81309)
(0.00123384 0.00474218 1.81996)
(0.00114826 0.00454708 1.77018)
(0.000947111 0.00403536 1.65255)
(0.000644577 0.00316424 1.44775)
(0.000647798 0.00331932 1.4722)
(0.000969872 0.00425365 1.68678)
(0.00121236 0.00481224 1.81596)
(0.00128801 0.00503873 1.87633)
(0.00122757 0.00504375 1.8825)
(0.00105326 0.00485126 1.83592)
(0.000794969 0.00432862 1.71915)
(0.000506053 0.00342427 1.51152)
(0.000831211 0.00336573 1.4809)
(0.00117967 0.00427688 1.69636)
(0.00136977 0.00478353 1.82561)
(0.00135423 0.00495027 1.88492)
(0.00118566 0.00490641 1.89061)
(0.000930216 0.00469737 1.84525)
(0.000611084 0.00418984 1.72846)
(0.000333262 0.0033307 1.51999)
(0.000929071 0.00305904 1.43495)
(0.00128604 0.00388236 1.64866)
(0.00143904 0.00432648 1.77859)
(0.0013725 0.00447195 1.84126)
(0.00113676 0.00440801 1.8478)
(0.000803233 0.00415063 1.79814)
(0.000453708 0.00367657 1.67952)
(0.000197723 0.0029258 1.47195)
(0.000878974 0.00247637 1.33283)
(0.00121332 0.00314609 1.53619)
(0.00134423 0.00349939 1.66344)
(0.00126414 0.0036042 1.72729)
(0.00101374 0.00352408 1.73376)
(0.000674146 0.00329016 1.68209)
(0.000344922 0.0029049 1.56461)
(0.000129994 0.00232615 1.36609)
(0.00061896 0.00169543 1.17369)
(0.00091686 0.0021839 1.34354)
(0.00103502 0.00242548 1.46003)
(0.000982533 0.00249777 1.52152)
(0.000782929 0.00243515 1.52732)
(0.000516063 0.00227023 1.47652)
(0.00027285 0.00201884 1.36809)
(0.000140703 0.00162935 1.20195)
(-0.000248177 0.000108051 1.12798)
(-0.000369076 0.000291165 1.28988)
(-0.000364421 0.000421987 1.40077)
(-0.000267538 0.000513287 1.45966)
(-0.00014292 0.000566556 1.46592)
(-6.08069e-05 0.000560444 1.41847)
(-5.61553e-05 0.000463305 1.31592)
(-0.000122239 0.000255074 1.15757)
(-0.000402371 0.000314396 1.29283)
(-0.000509678 0.000646173 1.48986)
(-0.000443734 0.000891394 1.61356)
(-0.000271441 0.00105592 1.67634)
(-7.73871e-05 0.00114182 1.68345)
(5.88656e-05 0.00112241 1.63387)
(9.17231e-05 0.000953107 1.52028)
(1.43107e-05 0.000607132 1.32777)
(-0.000502215 0.000593949 1.4076)
(-0.000578397 0.00108491 1.61755)
(-0.000474071 0.00143039 1.74622)
(-0.000276744 0.00164076 1.8096)
(-7.06018e-05 0.00173291 1.81692)
(7.89468e-05 0.00168632 1.76768)
(0.000130699 0.00144935 1.65065)
(7.05956e-05 0.000982594 1.44644)
(-0.000534504 0.000844292 1.47057)
(-0.000565968 0.00145103 1.6846)
(-0.00044878 0.00185292 1.81379)
(-0.000273145 0.00206235 1.87462)
(-0.000104727 0.00213829 1.88126)
(1.91801e-05 0.00208323 1.83508)
(7.3032e-05 0.00181026 1.71871)
(4.86003e-05 0.00127391 1.51136)
(-0.000515261 0.000959041 1.48053)
(-0.000500993 0.00162157 1.69578)
(-0.000390144 0.00204723 1.82522)
(-0.000255678 0.00224574 1.88492)
(-0.0001501 0.00229868 1.891)
(-6.83784e-05 0.00223277 1.84617)
(-2.88678e-05 0.0019435 1.72965)
(-1.58167e-05 0.00139206 1.52116)
(-0.000493643 0.000890805 1.43589)
(-0.000441091 0.00154057 1.6497)
(-0.000340353 0.00196712 1.77994)
(-0.000244578 0.00217675 1.84302)
(-0.000182322 0.00222406 1.84999)
(-0.000146202 0.00212305 1.8007)
(-0.000121377 0.00183236 1.68216)
(-7.21082e-05 0.00131984 1.4743)
(-0.000517759 0.000671578 1.3348)
(-0.000446291 0.00123036 1.5385)
(-0.000350306 0.00161671 1.66619)
(-0.000273689 0.00181977 1.73052)
(-0.000233489 0.00186547 1.73737)
(-0.000212011 0.00176892 1.68586)
(-0.000178457 0.00152102 1.56823)
(-9.47432e-05 0.00110523 1.36919)
(-0.000591316 0.000384774 1.17615)
(-0.000540505 0.000782735 1.34647)
(-0.00045282 0.00107976 1.46347)
(-0.000373542 0.00125363 1.5254)
(-0.000317584 0.00130898 1.53148)
(-0.000265463 0.00125525 1.48068)
(-0.000192053 0.00109557 1.37194)
(-6.7616e-05 0.000808595 1.20522)
(-0.000691194 -0.00144663 1.13027)
(-0.00101626 -0.00160911 1.2914)
(-0.00124724 -0.00170587 1.4014)
(-0.00135389 -0.00175094 1.45957)
(-0.00134404 -0.00172552 1.46541)
(-0.00125091 -0.00163603 1.41785)
(-0.00110797 -0.00151105 1.3154)
(-0.000896767 -0.00132351 1.15723)
(-0.000975901 -0.00183911 1.29449)
(-0.00138307 -0.0019903 1.49031)
(-0.00161056 -0.00206407 1.61287)
(-0.00165239 -0.00206622 1.67486)
(-0.00155125 -0.00199228 1.68163)
(-0.00137102 -0.00186175 1.63211)
(-0.00116061 -0.00170957 1.51883)
(-0.000936621 -0.00154547 1.32674)
(-0.00125536 -0.00203665 1.4087)
(-0.0016909 -0.00212278 1.61727)
(-0.00188883 -0.002129 1.74477)
(-0.00186573 -0.00207026 1.80745)
(-0.00169443 -0.00195659 1.81454)
(-0.00144738 -0.00181356 1.7654)
(-0.00117347 -0.00167156 1.64871)
(-0.000901271 -0.00154903 1.44497)
(-0.00148448 -0.00208168 1.4714)
(-0.00190471 -0.00207353 1.68413)
(-0.00206097 -0.00199677 1.81229)
(-0.00198841 -0.00187977 1.87259)
(-0.00178511 -0.00174101 1.87908)
(-0.00150706 -0.00160242 1.83296)
(-0.00118364 -0.00148627 1.71682)
(-0.00085684 -0.00141683 1.50981)
(-0.00163626 -0.00201312 1.48138)
(-0.00201315 -0.00192348 1.69558)
(-0.00213241 -0.00178035 1.82418)
(-0.00203766 -0.00163084 1.88342)
(-0.0018286 -0.00148053 1.88936)
(-0.00154128 -0.00134004 1.84458)
(-0.00118347 -0.00124461 1.72817)
(-0.000804263 -0.00121448 1.51981)
(-0.00170634 -0.00186441 1.4369)
(-0.00203079 -0.00173309 1.64997)
(-0.00212204 -0.00154902 1.77958)
(-0.00202962 -0.00137507 1.84227)
(-0.00181811 -0.0012178 1.84908)
(-0.00151487 -0.00107743 1.79976)
(-0.00114351 -0.000999788 1.68119)
(-0.000731625 -0.000990836 1.47325)
(-0.00170587 -0.00164443 1.3359)
(-0.00197586 -0.00151549 1.53915)
(-0.00203869 -0.00131884 1.66641)
(-0.0019422 -0.00112836 1.73044)
(-0.00172902 -0.000963167 1.73709)
(-0.00142296 -0.000834017 1.68543)
(-0.00104996 -0.000768042 1.56761)
(-0.000636495 -0.000764999 1.36836)
(-0.00157074 -0.00129058 1.17715)
(-0.00183398 -0.00122643 1.34719)
(-0.00187877 -0.00105364 1.46388)
(-0.00177676 -0.000877269 1.52556)
(-0.00155813 -0.000718379 1.5314)
(-0.00125168 -0.000597483 1.48037)
(-0.000893961 -0.000535893 1.37138)
(-0.000516418 -0.000529296 1.20445)
(-0.000989014 -0.00259092 1.13673)
(-0.00143196 -0.00306972 1.29762)
(-0.00183723 -0.00337722 1.40687)
(-0.00211996 -0.00354435 1.46408)
(-0.0022258 -0.00353922 1.46895)
(-0.00213894 -0.0033539 1.42052)
(-0.00188221 -0.00301227 1.31733)
(-0.00143584 -0.00245754 1.15859)
(-0.00134 -0.0034742 1.30032)
(-0.00194998 -0.00410196 1.49536)
(-0.00242959 -0.0045001 1.61671)
(-0.00269884 -0.00467651 1.67749)
(-0.0027365 -0.0046241 1.68327)
(-0.00256323 -0.00435109 1.63302)
(-0.00221217 -0.00387862 1.51926)
(-0.00170752 -0.00320688 1.32689)
(-0.00172507 -0.00410688 1.41339)
(-0.00242811 -0.00480641 1.62076)
(-0.00291412 -0.00520894 1.74677)
(-0.00311858 -0.00534018 1.80813)
(-0.00306758 -0.00523179 1.81427)
(-0.00280487 -0.00490701 1.76454)
(-0.00236197 -0.00437179 1.64753)
(-0.00177428 -0.00362857 1.4437)
(-0.00208003 -0.00445357 1.47479)
(-0.00281243 -0.00513299 1.68615)
(-0.00325515 -0.00547087 1.81275)
(-0.00336825 -0.00551409 1.87172)
(-0.0032387 -0.00535295 1.8774)
(-0.00290868 -0.00502476 1.83075)
(-0.00238525 -0.00448634 1.71429)
(-0.00173073 -0.00374457 1.50722)
(-0.00234286 -0.00446591 1.48349)
(-0.00305401 -0.00508174 1.69636)
(-0.00343695 -0.00534765 1.82352)
(-0.0034799 -0.00533482 1.88161)
(-0.00328275 -0.00513377 1.88687)
(-0.00290059 -0.004792 1.84141)
(-0.00230855 -0.00426464 1.72459)
(-0.00160256 -0.00356202 1.51614)
(-0.00245861 -0.00414574 1.43782)
(-0.0031197 -0.00468501 1.64972)
(-0.00344653 -0.00489253 1.77808)
(-0.0034568 -0.00485914 1.83975)
(-0.00321501 -0.00464386 1.84577)
(-0.00276001 -0.00426608 1.79581)
(-0.00213312 -0.00376409 1.6768)
(-0.00141706 -0.00313403 1.46877)
(-0.00240181 -0.00353991 1.33577)
(-0.00298315 -0.00398171 1.538)
(-0.00325136 -0.00412427 1.66416)
(-0.00322972 -0.0040588 1.7272)
(-0.0029582 -0.00383266 1.73305)
(-0.00248169 -0.00348064 1.68078)
(-0.00186774 -0.0030482 1.56259)
(-0.00120193 -0.0025378 1.36335)
(-0.00206624 -0.00263161 1.17624)
(-0.0026013 -0.00299642 1.34534)
(-0.00281728 -0.00306953 1.461)
(-0.00277679 -0.00298875 1.52172)
(-0.00250352 -0.00278416 1.5268)
(-0.00205646 -0.00250011 1.47525)
(-0.00152 -0.00218452 1.36605)
(-0.000976444 -0.00182277 1.19931)
(-0.00109834 -0.00309475 1.14563)
(-0.00155492 -0.00378489 1.30684)
(-0.00202346 -0.00423973 1.41568)
(-0.00239043 -0.00449013 1.47194)
(-0.00255958 -0.0044953 1.47554)
(-0.00247726 -0.00423801 1.4257)
(-0.00215664 -0.00373958 1.32113)
(-0.00158735 -0.0029399 1.16122)
(-0.0014529 -0.00423143 1.30878)
(-0.00212747 -0.00520043 1.50365)
(-0.00273465 -0.00584464 1.62405)
(-0.00314614 -0.00615948 1.68352)
(-0.00328806 -0.00613135 1.6879)
(-0.00313795 -0.00575781 1.63634)
(-0.00271075 -0.00505032 1.52139)
(-0.00203994 -0.00401311 1.3281)
(-0.00186046 -0.00511753 1.42046)
(-0.00267725 -0.00628258 1.62714)
(-0.00333315 -0.00700958 1.75174)
(-0.00370457 -0.00731337 1.8115)
(-0.00376922 -0.00723218 1.81624)
(-0.00353259 -0.00678211 1.76536)
(-0.0030035 -0.00595131 1.64737)
(-0.00222377 -0.00474007 1.44288)
(-0.00224926 -0.00565415 1.4799)
(-0.00313759 -0.00688363 1.69019)
(-0.00376839 -0.00758863 1.81514)
(-0.00403968 -0.00780383 1.87238)
(-0.00401113 -0.00766361 1.87678)
(-0.003696 -0.00720711 1.82909)
(-0.00307619 -0.0063429 1.71174)
(-0.00222602 -0.00507522 1.50418)
(-0.00253768 -0.00572419 1.48638)
(-0.00343344 -0.00692702 1.69802)
(-0.00400507 -0.0075797 1.82354)
(-0.00418854 -0.00773851 1.88013)
(-0.00405791 -0.00754628 1.88429)
(-0.00366869 -0.00706959 1.83753)
(-0.00296884 -0.00620378 1.71979)
(-0.00208004 -0.0049629 1.51101)
(-0.00264017 -0.00530215 1.43851)
(-0.0034975 -0.00641065 1.64913)
(-0.00400399 -0.00700399 1.77596)
(-0.00413691 -0.00715578 1.83622)
(-0.00393932 -0.00694741 1.84099)
(-0.00344772 -0.00641247 1.78986)
(-0.00270807 -0.00557643 1.67005)
(-0.00183941 -0.00444447 1.46191)
(-0.00251076 -0.00446466 1.33457)
(-0.00327551 -0.00539227 1.53547)
(-0.00370725 -0.00587823 1.66012)
(-0.00379205 -0.00598751 1.72172)
(-0.00354996 -0.00576983 1.72631)
(-0.00303106 -0.00527314 1.67308)
(-0.00232508 -0.00455495 1.55438)
(-0.00155512 -0.00363523 1.35536)
(-0.00203938 -0.00324901 1.17377)
(-0.00271879 -0.00396571 1.34152)
(-0.00307054 -0.00429367 1.45566)
(-0.0031255 -0.00435282 1.51496)
(-0.00288773 -0.00416467 1.51889)
(-0.00242627 -0.00378354 1.46662)
(-0.00184883 -0.00327607 1.35726)
(-0.00126487 -0.00263175 1.19104)
(-0.00103768 -0.00297964 1.15498)
(-0.00143318 -0.0037409 1.31692)
(-0.00187086 -0.00425441 1.42571)
(-0.0022355 -0.0045378 1.48119)
(-0.00241614 -0.00454638 1.4835)
(-0.00234015 -0.00425985 1.43205)