/*--------------------------------*- C++ -*----------------------------------*\
| =========                 |                                                 |
| \\      /  F ield         | OpenFOAM: The Open Source CFD Toolbox           |
|  \\    /   O peration     | Version:  2406                                  |
|   \\  /    A nd           | Website:  www.openfoam.com                      |
|    \\/     M anipulation  |                                                 |
\*---------------------------------------------------------------------------*/
FoamFile
{
    version     2.0;
    format      ascii;
    arch        "LSB;label=32;scalar=64";
    class       volScalarField;
    location    "0.4";
    object      nu;
}
// * * * * * * * * * * * * * * * * * * * * * * * * * * * * * * * * * * * * * //

dimensions      [0 2 -1 0 0 0 0];

internalField   nonuniform List<scalar> 
16000
(
0.00645757
0.00654634
0.00656668
0.00656817
0.00656817
0.00656668
0.00654633
0.00645757
0.00654634
0.00654978
0.0065324
0.0065244
0.0065244
0.0065324
0.00654977
0.00654633
0.00656668
0.0065324
0.00651206
0.00650635
0.00650635
0.00651205
0.00653239
0.00656668
0.00656817
0.0065244
0.00650635
0.00650342
0.00650342
0.00650635
0.0065244
0.00656817
0.00656817
0.0065244
0.00650635
0.00650342
0.00650342
0.00650635
0.0065244
0.00656816
0.00656668
0.0065324
0.00651205
0.00650635
0.00650635
0.00651205
0.00653239
0.00656668
0.00654633
0.00654977
0.00653239
0.0065244
0.0065244
0.00653239
0.00654977
0.00654633
0.00645757
0.00654633
0.00656668
0.00656817
0.00656816
0.00656668
0.00654633
0.00645757
0.00616696
0.00642795
0.00667092
0.00679983
0.00679983
0.00667093
0.00642796
0.00616698
0.00642795
0.00686814
0.0070526
0.00707251
0.00707251
0.00705259
0.00686815
0.00642797
0.00667092
0.0070526
0.00705014
0.00699287
0.00699286
0.00705012
0.00705259
0.00667094
0.00679983
0.00707251
0.00699287
0.00692268
0.00692267
0.00699285
0.00707249
0.00679984
0.00679983
0.00707251
0.00699286
0.00692267
0.00692266
0.00699284
0.00707249
0.00679984
0.00667093
0.00705259
0.00705012
0.00699285
0.00699284
0.0070501
0.00705258
0.00667095
0.00642796
0.00686816
0.00705259
0.00707249
0.00707249
0.00705258
0.00686817
0.00642798
0.00616698
0.00642797
0.00667094
0.00679984
0.00679984
0.00667095
0.00642798
0.00616699
0.00582474
0.00596613
0.00614464
0.00626246
0.00626248
0.00614469
0.00596618
0.00582477
0.00596613
0.00630922
0.00662953
0.00681956
0.0068196
0.00662963
0.00630932
0.00596619
0.00614464
0.00662953
0.00708075
0.00732146
0.00732152
0.00708091
0.00662968
0.00614472
0.00626246
0.00681956
0.00732146
0.00754514
0.00754522
0.00732165
0.00681974
0.00626256
0.00626248
0.0068196
0.00732152
0.00754522
0.00754529
0.00732171
0.00681978
0.00626258
0.00614469
0.00662963
0.0070809
0.00732164
0.00732171
0.00708106
0.00662977
0.00614477
0.00596618
0.00630932
0.00662968
0.00681974
0.00681978
0.00662977
0.00630941
0.00596624
0.00582477
0.00596619
0.00614472
0.00626256
0.00626258
0.00614477
0.00596624
0.00582479
0.00579542
0.00589027
0.00603141
0.00612951
0.00612957
0.00603154
0.00589038
0.00579546
0.00589027
0.00615744
0.00642807
0.0066103
0.00661043
0.00642835
0.00615769
0.00589038
0.00603141
0.00642807
0.00687645
0.00724508
0.00724544
0.00687701
0.00642848
0.00603159
0.00612951
0.00661029
0.00724507
0.00801023
0.00801134
0.00724606
0.00661085
0.00612975
0.00612957
0.00661042
0.00724541
0.00801128
0.00801238
0.00724639
0.00661097
0.0061298
0.00603153
0.00642833
0.00687699
0.00724603
0.00724637
0.00687754
0.00642873
0.00603171
0.00589038
0.00615768
0.00642846
0.00661083
0.00661096
0.00642872
0.0061579
0.00589048
0.00579545
0.00589038
0.00603159
0.00612975
0.0061298
0.0060317
0.00589048
0.00579549
0.00576755
0.00584482
0.00597029
0.00605934
0.00605947
0.00597057
0.00584503
0.00576757
0.00584482
0.00607956
0.00632246
0.00649243
0.00649275
0.0063231
0.00608009
0.005845
0.00597029
0.00632245
0.00673753
0.0071147
0.00711566
0.00673891
0.00632337
0.00597066
0.00605932
0.00649239
0.00711464
0.00809703
0.00810145
0.00711722
0.00649369
0.00605984
0.00605944
0.00649269
0.00711553
0.00810114
0.00810553
0.00711809
0.00649397
0.00605995
0.00597053
0.00632304
0.00673881
0.0071171
0.00711803
0.00674015
0.00632393
0.00597089
0.00584501
0.00608004
0.00632331
0.00649363
0.00649393
0.00632392
0.00608053
0.00584518
0.00576756
0.00584498
0.00597063
0.00605981
0.00605993
0.00597088
0.00584518
0.00576757
0.00576439
0.00583525
0.00595469
0.00604023
0.00604047
0.00595518
0.00583557
0.00576427
0.00583526
0.00605731
0.0062881
0.00645192
0.00645255
0.00628933
0.00605824
0.00583547
0.00595468
0.00628807
0.00668492
0.00705599
0.007058
0.00668768
0.00628983
0.00595527
0.00604019
0.00645182
0.00705585
0.00806555
0.00807553
0.00706118
0.00645436
0.00604106
0.0060404
0.0064524
0.00705769
0.00807473
0.00808476
0.00706298
0.00645491
0.00604126
0.00595511
0.00628919
0.00668744
0.00706087
0.00706284
0.00669013
0.00629089
0.00595567
0.00583553
0.00605814
0.00628968
0.00645421
0.00645482
0.00629086
0.00605903
0.00583572
0.00576427
0.00583543
0.00595521
0.006041
0.00604122
0.00595566
0.00583572
0.00576414
0.00576066
0.00582898
0.0059461
0.00603027
0.00603065
0.00594682
0.00582936
0.00576025
0.005829
0.00604621
0.00627216
0.00643328
0.00643435
0.00627418
0.0060476
0.00582911
0.0059461
0.00627213
0.0066608
0.00702715
0.00703066
0.00666549
0.00627494
0.00594684
0.00603024
0.00643316
0.00702694
0.00803089
0.00804878
0.00703622
0.00643735
0.00603147
0.00603058
0.00643414
0.00703019
0.00804753
0.00806573
0.00703944
0.00643831
0.0060318
0.00594676
0.00627398
0.00666513
0.00703576
0.00703924
0.00666974
0.00627674
0.00594747
0.00582935
0.00604749
0.00627476
0.00643715
0.00643819
0.00627671
0.00604883
0.00582943
0.0057603
0.00582909
0.00594679
0.00603141
0.00603177
0.00594747
0.00582944
0.00575987
0.00576034
0.00582758
0.00594368
0.0060273
0.00602781
0.00594462
0.00582792
0.00575948
0.00582761
0.00604275
0.00626657
0.00642651
0.00642808
0.00626945
0.00604457
0.00582747
0.00594373
0.00626658
0.00665132
0.00701483
0.00702016
0.00665827
0.00627052
0.0059445
0.00602734
0.00642649
0.00701474
0.00800969
0.00803728
0.00702879
0.00643254
0.00602886
0.00602784
0.00642802
0.00701992
0.00803653
0.00806511
0.00703401
0.00643405
0.00602935
0.00594467
0.00626941
0.00665812
0.00702855
0.00703391
0.00666502
0.00627329
0.00594542
0.00582802
0.00604459
0.00627049
0.00643248
0.00643402
0.00627329
0.00604635
0.00582784
0.00575961
0.00582756
0.00594456
0.00602889
0.00602938
0.00594545
0.00582787
0.00575874
0.00576045
0.00582714
0.00594273
0.00602609
0.00602672
0.00594385
0.00582739
0.00575907
0.00582717
0.00604128
0.00626397
0.00642329
0.00642536
0.00626767
0.00604344
0.00582668
0.00594283
0.00626409
0.00664652
0.00700795
0.00701518
0.00665579
0.00626909
0.00594353
0.00602628
0.00642361
0.00700836
0.00799418
0.00803206
0.00702744
0.0064315
0.00602797
0.00602699
0.00642583
0.00701603
0.0080341
0.00807419
0.00703525
0.0064337
0.00602867
0.00594413
0.00626816
0.00665648
0.00702826
0.00703563
0.00666575
0.00627309
0.00594479
0.00582764
0.00604382
0.00626956
0.00643194
0.00643398
0.00627319
0.0060459
0.00582711
0.00575923
0.00582693
0.00594381
0.00602822
0.00602884
0.00594488
0.00582714
0.00575783
0.00576091
0.00582717
0.00594235
0.00602547
0.00602621
0.00594358
0.00582728
0.00575901
0.00582715
0.00604045
0.00626222
0.006421
0.00642351
0.00626662
0.00604284
0.00582628
0.00594246
0.0062625
0.00664297
0.00700237
0.00701134
0.00665433
0.00626838
0.005943
0.00602584
0.0064219
0.00700378
0.00798026
0.00802759
0.0070275
0.00643139
0.00602759
0.00602679
0.00642494
0.00701439
0.00803572
0.00808712
0.00703843
0.00643443
0.00602852
0.00594414
0.00626799
0.00665668
0.00703053
0.00703982
0.0066681
0.00627381
0.00594463
0.00582762
0.00604375
0.00626973
0.00643277
0.00643526
0.00627405
0.00604605
0.0058267
0.00575902
0.00582662
0.00594356
0.00602815
0.00602886
0.00594474
0.00582669
0.0057571
0.00576138
0.00582725
0.00594202
0.0060249
0.00602569
0.00594329
0.00582717
0.00575901
0.00582712
0.00603966
0.00626053
0.00641871
0.00642154
0.00626541
0.00604213
0.00582585
0.00594206
0.00626096
0.00663956
0.00699678
0.0070071
0.0066525
0.00626743
0.00594236
0.00602537
0.0064203
0.00699956
0.00796685
0.00802157
0.00702694
0.00643096
0.00602705
0.00602653
0.00642417
0.00701326
0.00803883
0.00809992
0.00704119
0.00643485
0.00602819
0.00594403
0.00626783
0.00665708
0.00703317
0.00704403
0.0066702
0.00627426
0.0059443
0.00582743
0.00604355
0.00626982
0.00643355
0.00643639
0.00627465
0.00604593
0.00582613
0.00575861
0.00582613
0.00594313
0.00602789
0.00602866
0.00594434
0.00582602
0.00575625
0.00576187
0.00582748
0.00594193
0.00602457
0.00602536
0.00594312
0.00582717
0.00575913
0.00582721
0.00603919
0.0062593
0.00641687
0.00641983
0.00626432
0.00604151
0.00582556
0.0059418
0.00625981
0.00663682
0.00699202
0.00700308
0.00665054
0.00626641
0.00594178
0.00602501
0.00641906
0.0069962
0.00795577
0.00801479
0.00702566
0.0064302
0.00602645
0.00602627
0.00642354
0.00701253
0.00804238
0.00810999
0.00704278
0.00643475
0.00602772
0.00594384
0.00626761
0.00665738
0.00703536
0.00704721
0.00667145
0.00627423
0.00594382
0.00582713
0.00604321
0.0062697
0.00643393
0.00643695
0.00627474
0.00604551
0.00582549
0.00575813
0.00582554
0.00594254
0.00602739
0.00602818
0.00594371
0.00582523
0.00575543
0.00576228
0.00582788
0.00594221
0.00602468
0.0060254
0.00594319
0.00582731
0.00575934
0.00582747
0.0060393
0.00625903
0.00641616
0.00641902
0.00626376
0.00604124
0.0058255
0.00594188
0.00625954
0.00663568
0.00698953
0.00700056
0.00664916
0.00626569
0.00594145
0.00602495
0.00641864
0.00699472
0.00794988
0.00800939
0.00702418
0.00642939
0.00602597
0.00602618
0.00642334
0.00701246
0.00804551
0.00811491
0.00704291
0.00643421
0.00602722
0.00594367
0.00626745
0.00665754
0.00703656
0.00704858
0.00667155
0.00627374
0.00594329
0.00582684
0.00604285
0.00626941
0.00643383
0.0064368
0.00627427
0.00604485
0.0058249
0.00575774
0.00582504
0.00594197
0.0060268
0.00602753
0.00594299
0.00582451
0.00575483
0.00576244
0.0058283
0.00594278
0.00602524
0.00602581
0.00594346
0.00582752
0.00575955
0.00582781
0.00604
0.00625989
0.00641689
0.00641942
0.00626394
0.00604136
0.00582567
0.00594227
0.0062603
0.00663665
0.00699026
0.00700044
0.00664881
0.00626548
0.00594145
0.00602526
0.00641929
0.00699577
0.00795138
0.00800724
0.00702296
0.00642875
0.00602573
0.00602628
0.00642367
0.00701317
0.00804718
0.00811261
0.00704139
0.00643331
0.0060268
0.00594357
0.00626739
0.00665748
0.00703626
0.00704747
0.0066703
0.00627281
0.00594284
0.00582661
0.00604257
0.00626899
0.00643317
0.00643586
0.00627327
0.00604408
0.00582454
0.00575754
0.00582478
0.00594159
0.00602627
0.00602688
0.00594236
0.00582406
0.00575468
0.00576218
0.00582853
0.0059434
0.006026
0.00602639
0.00594376
0.00582763
0.00575961
0.00582805
0.00604102
0.0062616
0.00641885
0.00642087
0.00626469
0.00604176
0.00582597
0.00594281
0.00626187
0.00663955
0.00699425
0.00700283
0.0066495
0.00626575
0.00594173
0.00602577
0.0064208
0.00699924
0.00796074
0.00800905
0.00702213
0.00642831
0.00602573
0.00602648
0.00642438
0.0070144
0.00804655
0.00810245
0.00703819
0.00643208
0.0060265
0.00594347
0.00626736
0.00665706
0.00703417
0.00704365
0.00666768
0.00627153
0.0059425
0.00582646
0.00604237
0.00626845
0.00643195
0.00643415
0.00627182
0.0060433
0.00582447
0.00575758
0.00582482
0.00594147
0.00602588
0.00602633
0.00594194
0.005824
0.00575503
0.00576151
0.00582843
0.00594383
0.00602667
0.00602689
0.0059439
0.00582755
0.0057595
0.00582805
0.00604203
0.0062637
0.00642152
0.00642294
0.00626574
0.00604224
0.00582627
0.00594328
0.0062638
0.00664368
0.00700065
0.00700715
0.00665094
0.00626629
0.00594214
0.00602628
0.00642275
0.00700437
0.00797649
0.00801425
0.00702162
0.006428
0.00602589
0.00602664
0.00642522
0.00701577
0.00804333
0.00808588
0.00703367
0.00643062
0.0060263
0.00594333
0.00626726
0.00665623
0.00703048
0.00703763
0.00666403
0.00627002
0.00594231
0.00582637
0.00604222
0.00626782
0.00643032
0.0064319
0.00627012
0.00604262
0.00582467
0.00575782
0.00582511
0.00594159
0.00602568
0.00602595
0.00594178
0.00582431
0.00575581
0.00576057
0.00582801
0.00594396
0.00602711
0.00602719
0.00594384
0.00582728
0.00575923
0.00582779
0.0060428
0.00626571
0.0064243
0.00642513
0.00626678
0.00604264
0.00582648
0.00594355
0.00626566
0.00664819
0.00700815
0.00701239
0.00665266
0.00626689
0.00594255
0.00602666
0.00642472
0.00701011
0.00799573
0.00802142
0.00702128
0.00642773
0.00602609
0.0060267
0.00642595
0.00701692
0.00803801
0.00806596
0.00702847
0.00642908
0.00602617
0.00594314
0.00626706
0.00665507
0.00702584
0.00703045
0.00665991
0.0062685
0.00594223
0.00582632
0.0060421
0.00626715
0.00642852
0.00642947
0.00626842
0.00604209
0.00582507
0.00575818
0.00582554
0.00594187
0.00602562
0.00602574
0.00594184
0.00582486
0.00575683
0.00575958
0.00582742
0.00594385
0.00602729
0.00602725
0.00594361
0.00582689
0.00575887
0.00582738
0.00604327
0.00626736
0.00642675
0.00642706
0.00626761
0.00604287
0.00582656
0.00594363
0.00626717
0.00665233
0.00701545
0.00701753
0.00665427
0.00626738
0.00594286
0.00602687
0.00642637
0.0070155
0.00801517
0.00802886
0.00702095
0.00642745
0.00602625
0.00602665
0.00642647
0.0070177
0.00803167
0.00804606
0.00702335
0.00642763
0.00602607
0.00594293
0.00626677
0.00665377
0.00702103
0.00702331
0.00665595
0.00626711
0.00594223
0.0058263
0.006042
0.00626652
0.0064268
0.00642719
0.00626691
0.0060417
0.00582553
0.00575855
0.00582599
0.0059422
0.00602567
0.00602566
0.00594203
0.0058255
0.00575784
0.00575869
0.00582681
0.00594358
0.00602726
0.00602714
0.00594327
0.00582646
0.00575851
0.00582692
0.00604347
0.00626851
0.0064286
0.00642849
0.00626812
0.00604292
0.00582654
0.00594357
0.00626824
0.00665563
0.00702157
0.00702181
0.00665548
0.00626765
0.00594303
0.00602692
0.00642758
0.00701991
0.00803216
0.00803521
0.00702054
0.00642711
0.00602633
0.00602653
0.00642676
0.00701811
0.00802554
0.00802877
0.00701885
0.00642634
0.00602596
0.00594271
0.00626645
0.00665254
0.00701676
0.00701711
0.00665255
0.00626596
0.00594223
0.00582627
0.0060419
0.00626596
0.00642533
0.00642527
0.00626567
0.00604142
0.00582593
0.00575886
0.00582636
0.00594249
0.00602573
0.00602563
0.00594222
0.00582605
0.00575869
0.00575801
0.00582628
0.00594327
0.0060271
0.00602693
0.00594292
0.00582607
0.00575821
0.0058265
0.00604347
0.00626919
0.0064298
0.00642938
0.00626833
0.00604283
0.00582644
0.00594341
0.00626887
0.00665792
0.00702604
0.00702485
0.00665619
0.00626769
0.00594306
0.00602686
0.00642834
0.00702308
0.0080452
0.00803972
0.00701999
0.0064267
0.00602629
0.00602636
0.00642686
0.00701825
0.00802052
0.00801538
0.00701525
0.00642527
0.00602582
0.00594251
0.00626614
0.00665151
0.00701339
0.00701229
0.00664988
0.00626503
0.0059422
0.00582623
0.00604178
0.0062655
0.00642419
0.00642379
0.00626471
0.00604119
0.00582621
0.00575906
0.0058266
0.00594267
0.00602575
0.00602559
0.00594235
0.00582643
0.00575928
0.00575754
0.00582586
0.00594297
0.00602689
0.00602668
0.00594259
0.00582576
0.005758
0.00582614
0.00604334
0.00626948
0.00643043
0.00642977
0.00626829
0.00604263
0.00582631
0.00594321
0.00626914
0.00665929
0.00702887
0.00702664
0.00665641
0.00626755
0.00594298
0.00602673
0.00642871
0.00702509
0.00805405
0.00804228
0.00701931
0.00642625
0.00602618
0.00602617
0.00642682
0.00701822
0.00801699
0.00800597
0.00701256
0.0064244
0.00602565
0.00594231
0.00626584
0.00665071
0.00701099
0.00700888
0.00664794
0.00626431
0.00594212
0.00582614
0.00604162
0.00626511
0.00642333
0.00642271
0.00626398
0.00604097
0.00582635
0.00575914
0.0058267
0.00594272
0.0060257
0.0060255
0.00594237
0.00582663
0.00575963
0.00575723
0.00582555
0.0059427
0.00602666
0.00602643
0.00594232
0.00582553
0.00575787
0.00582586
0.00604314
0.0062695
0.00643062
0.00642982
0.0062681
0.00604241
0.00582618
0.00594299
0.00626915
0.00665992
0.00703035
0.00702742
0.00665629
0.0062673
0.00594286
0.00602653
0.00642878
0.00702613
0.00805927
0.00804329
0.00701859
0.00642581
0.00602603
0.00602595
0.00642664
0.00701805
0.00801476
0.00799992
0.00701068
0.00642372
0.00602547
0.00594209
0.00626553
0.00665008
0.00700939
0.00700662
0.0066466
0.00626376
0.00594201
0.00582601
0.00604142
0.00626475
0.00642269
0.00642193
0.00626343
0.00604075
0.00582638
0.00575912
0.00582666
0.00594266
0.00602558
0.00602536
0.0059423
0.00582669
0.00575979
0.00575702
0.00582531
0.00594247
0.00602643
0.0060262
0.0059421
0.00582537
0.00575779
0.00582562
0.00604289
0.00626933
0.00643053
0.00642966
0.00626785
0.00604219
0.00582606
0.00594275
0.00626896
0.00666001
0.00703086
0.00702756
0.00665601
0.00626703
0.00594273
0.0060263
0.0064286
0.00702642
0.00806174
0.00804342
0.00701796
0.00642542
0.00602587
0.00602571
0.00642635
0.00701771
0.00801332
0.0079964
0.00700945
0.00642322
0.0060253
0.00594186
0.00626518
0.00664952
0.00700831
0.0070052
0.0066457
0.00626335
0.00594189
0.00582585
0.00604117
0.00626438
0.00642217
0.00642135
0.00626299
0.00604053
0.00582633
0.00575904
0.00582654
0.0059425
0.0060254
0.00602518
0.00594218
0.00582664
0.00575983
0.0057569
0.00582512
0.00594225
0.00602622
0.006026
0.00594193
0.00582524
0.00575771
0.00582543
0.00604262
0.00626904
0.00643028
0.00642942
0.00626761
0.006042
0.00582595
0.00594252
0.00626864
0.00665974
0.00703078
0.00702741
0.00665574
0.0062668
0.00594259
0.00602604
0.00642824
0.00702613
0.00806231
0.00804338
0.00701754
0.00642513
0.00602572
0.00602544
0.00642593
0.00701712
0.00801205
0.00799464
0.00700874
0.00642287
0.00602514
0.00594162
0.00626477
0.00664893
0.00700746
0.00700431
0.00664512
0.00626304
0.00594175
0.00582567
0.00604087
0.00626398
0.00642171
0.0064209
0.00626265
0.00604033
0.00582624
0.00575895
0.00582638
0.0059423
0.00602518
0.00602498
0.00594202
0.00582654
0.00575979
0.00575682
0.00582496
0.00594203
0.00602601
0.00602582
0.00594178
0.00582512
0.00575761
0.00582527
0.00604232
0.00626868
0.00642995
0.00642917
0.00626741
0.00604184
0.00582583
0.00594229
0.00626823
0.00665923
0.00703037
0.00702721
0.00665554
0.00626663
0.00594245
0.00602577
0.00642775
0.00702542
0.0080616
0.00804364
0.00701739
0.00642495
0.00602557
0.00602516
0.0064254
0.00701626
0.00801052
0.00799404
0.00700845
0.00642266
0.00602499
0.00594139
0.00626431
0.00664825
0.00700667
0.00700373
0.00664476
0.00626281
0.0059416
0.00582551
0.00604054
0.00626355
0.00642125
0.00642052
0.00626238
0.00604014
0.00582611
0.00575888
0.00582622
0.00594207
0.00602494
0.00602477
0.00594186
0.00582642
0.0057597
0.00575678
0.0058248
0.00594181
0.00602579
0.00602564
0.00594164
0.00582499
0.00575748
0.00582515
0.00604203
0.00626828
0.00642958
0.00642893
0.00626724
0.00604168
0.00582567
0.00594209
0.00626778
0.00665858
0.00702977
0.00702704
0.00665544
0.00626649
0.0059423
0.00602551
0.00642717
0.00702441
0.00806007
0.00804436
0.00701749
0.00642485
0.00602543
0.0060249
0.0064248
0.00701518
0.00800861
0.00799423
0.00700846
0.00642254
0.00602484
0.00594118
0.00626383
0.0066475
0.00700587
0.00700334
0.00664456
0.00626264
0.00594144
0.00582539
0.00604023
0.0062631
0.00642081
0.0064202
0.00626216
0.00603997
0.00582596
0.00575886
0.00582607
0.00594185
0.00602471
0.00602459
0.00594172
0.0058263
0.00575958
0.00575676
0.00582466
0.00594159
0.00602556
0.00602545
0.00594148
0.00582483
0.00575732
0.00582505
0.00604173
0.00626785
0.00642918
0.00642867
0.00626706
0.0060415
0.00582548
0.00594191
0.00626732
0.00665784
0.00702906
0.00702687
0.00665538
0.00626635
0.00594211
0.00602528
0.00642656
0.00702324
0.00805803
0.00804534
0.00701773
0.00642479
0.00602526
0.00602467
0.00642419
0.00701399
0.00800653
0.00799494
0.00700866
0.00642247
0.00602468
0.00594101
0.00626337
0.00664676
0.00700511
0.0070031
0.00664447
0.0062625
0.00594126
0.00582532
0.00603996
0.00626269
0.00642041
0.00641994
0.00626199
0.0060398
0.00582579
0.00575887
0.00582596
0.00594166
0.00602451
0.00602442
0.00594159
0.00582617
0.00575944
0.00575676
0.00582454
0.00594138
0.00602532
0.00602525
0.0059413
0.00582466
0.00575715
0.00582496
0.00604144
0.0062674
0.00642873
0.00642836
0.00626684
0.00604129
0.00582528
0.00594175
0.00626686
0.00665706
0.00702823
0.00702661
0.00665525
0.00626617
0.00594191
0.00602508
0.00642598
0.00702203
0.0080557
0.0080462
0.00701795
0.0064247
0.00602508
0.00602448
0.00642364
0.00701287
0.00800462
0.00799597
0.00700893
0.0064224
0.00602451
0.00594089
0.00626298
0.00664611
0.00700449
0.00700301
0.00664444
0.00626237
0.00594108
0.00582526
0.00603974
0.00626235
0.00642008
0.00641975
0.00626186
0.00603965
0.00582561
0.00575888
0.00582588
0.00594151
0.00602435
0.00602429
0.00594146
0.00582604
0.00575929
0.00575677
0.00582443
0.00594118
0.00602509
0.00602504
0.00594113
0.00582451
0.00575702
0.00582488
0.00604117
0.00626696
0.00642825
0.00642799
0.00626657
0.00604106
0.00582508
0.0059416
0.00626643
0.00665629
0.00702731
0.00702617
0.00665502
0.00626594
0.00594169
0.00602489
0.00642545
0.00702089
0.00805326
0.00804661
0.00701804
0.00642455
0.00602488
0.00602432
0.00642318
0.00701193
0.00800322
0.00799717
0.00700919
0.00642232
0.00602433
0.00594078
0.00626267
0.00664561
0.00700408
0.00700305
0.00664446
0.00626226
0.00594091
0.00582522
0.00603956
0.00626208
0.00641985
0.00641962
0.00626175
0.0060395
0.00582544
0.00575887
0.00582579
0.00594137
0.0060242
0.00602416
0.00594134
0.00582589
0.00575914
0.00575678
0.00582435
0.00594101
0.00602488
0.00602484
0.00594097
0.00582439
0.00575694
0.00582481
0.00604092
0.00626654
0.00642776
0.00642758
0.00626626
0.00604083
0.00582492
0.00594145
0.00626602
0.00665555
0.00702634
0.00702557
0.00665468
0.00626567
0.00594149
0.00602471
0.00642498
0.00701987
0.00805088
0.00804643
0.00701795
0.00642436
0.00602469
0.00602417
0.00642279
0.00701121
0.00800242
0.00799839
0.00700938
0.00642221
0.00602416
0.00594068
0.00626242
0.00664524
0.00700387
0.00700318
0.00664448
0.00626214
0.00594075
0.00582515
0.0060394
0.00626187
0.00641968
0.00641953
0.00626165
0.00603936
0.00582529
0.00575882
0.00582568
0.00594122
0.00602406
0.00602403
0.0059412
0.00582574
0.00575899
0.0057568
0.00582429
0.00594088
0.0060247
0.00602468
0.00594084
0.0058243
0.00575689
0.00582473
0.0060407
0.00626616
0.0064273
0.00642718
0.00626597
0.00604063
0.0058248
0.0059413
0.00626565
0.00665486
0.00702539
0.00702489
0.0066543
0.00626542
0.00594132
0.00602454
0.00642455
0.00701898
0.00804868
0.00804586
0.00701775
0.00642416
0.00602452
0.00602402
0.00642245
0.00701065
0.00800206
0.00799952
0.00700949
0.00642209
0.00602401
0.00594056
0.00626219
0.00664496
0.00700377
0.00700334
0.00664448
0.00626202
0.00594061
0.00582505
0.00603923
0.00626167
0.00641953
0.00641944
0.00626153
0.00603921
0.00582514
0.00575874
0.00582555
0.00594106
0.0060239
0.00602389
0.00594105
0.00582559
0.00575885
0.00575681
0.00582423
0.00594076
0.00602456
0.00602455
0.00594075
0.00582424
0.00575687
0.00582466
0.0060405
0.00626584
0.00642691
0.00642685
0.00626574
0.00604047
0.00582471
0.00594116
0.00626531
0.00665426
0.00702456
0.00702429
0.00665397
0.0062652
0.00594119
0.00602437
0.00642416
0.00701819
0.00804677
0.00804525
0.00701754
0.00642397
0.00602438
0.00602385
0.00642212
0.00701013
0.00800176
0.00800043
0.00700955
0.00642196
0.00602388
0.00594042
0.00626194
0.00664466
0.00700363
0.00700342
0.00664444
0.00626189
0.00594048
0.00582493
0.00603903
0.00626144
0.00641934
0.0064193
0.00626139
0.00603905
0.00582501
0.00575864
0.00582539
0.00594088
0.00602372
0.00602372
0.00594089
0.00582544
0.00575872
0.00575681
0.00582417
0.00594066
0.00602444
0.00602445
0.00594067
0.00582419
0.00575683
0.00582459
0.00604032
0.00626557
0.00642661
0.00642661
0.00626558
0.00604036
0.00582463
0.00594103
0.00626501
0.00665376
0.00702392
0.00702388
0.00665374
0.00626505
0.00594108
0.0060242
0.00642379
0.00701747
0.00804523
0.00804497
0.00701742
0.00642383
0.00602426
0.00602368
0.00642176
0.00700955
0.00800117
0.00800101
0.00700955
0.00642184
0.00602376
0.00594027
0.00626165
0.00664427
0.00700334
0.00700334
0.00664433
0.00626174
0.00594035
0.00582481
0.00603881
0.00626116
0.00641909
0.00641911
0.00626122
0.00603889
0.00582488
0.00575857
0.00582525
0.0059407
0.00602353
0.00602355
0.00594074
0.0058253
0.00575861
0.00575678
0.00582409
0.00594054
0.00602433
0.00602435
0.00594059
0.00582411
0.00575675
0.00582453
0.00604016
0.00626534
0.00642638
0.00642645
0.00626546
0.00604026
0.00582454
0.00594092
0.00626475
0.00665334
0.00702348
0.00702369
0.00665363
0.00626494
0.00594098
0.00602404
0.00642342
0.00701681
0.00804406
0.00804518
0.00701741
0.00642373
0.00602415
0.00602351
0.00642138
0.00700888
0.00800011
0.00800124
0.00700952
0.00642171
0.00602363
0.00594012
0.00626132
0.00664378
0.00700284
0.00700309
0.00664415
0.00626157
0.00594021
0.00582471
0.00603858
0.00626083
0.00641876
0.00641885
0.00626101
0.00603872
0.00582475
0.00575853
0.00582513
0.00594052
0.00602334
0.00602338
0.00594059
0.00582518
0.00575852
0.00575674
0.00582399
0.00594041
0.00602419
0.00602423
0.00594048
0.005824
0.00575664
0.00582445
0.00603999
0.00626511
0.00642619
0.00642632
0.00626535
0.00604014
0.00582442
0.0059408
0.00626449
0.00665297
0.00702317
0.00702364
0.00665358
0.00626483
0.00594086
0.00602389
0.00642308
0.00701619
0.00804319
0.00804577
0.00701745
0.00642362
0.00602402
0.00602335
0.00642099
0.00700814
0.00799869
0.00800118
0.00700943
0.00642156
0.00602349
0.00593998
0.00626099
0.00664325
0.00700221
0.0070027
0.00664391
0.00626138
0.00594006
0.00582463
0.00603837
0.00626051
0.00641841
0.00641856
0.00626079
0.00603856
0.00582462
0.00575853
0.00582505
0.00594038
0.00602318
0.00602323
0.00594047
0.00582509
0.00575845
0.00575668
0.00582386
0.00594025
0.00602402
0.00602408
0.00594033
0.00582385
0.00575651
0.00582436
0.00603981
0.00626487
0.00642596
0.00642615
0.00626519
0.00603997
0.00582427
0.00594068
0.00626424
0.0066526
0.00702286
0.00702357
0.00665348
0.00626468
0.00594071
0.00602375
0.00642274
0.0070156
0.00804243
0.00804636
0.00701746
0.00642349
0.00602388
0.0060232
0.00642063
0.00700743
0.00799724
0.00800099
0.00700931
0.0064214
0.00602334
0.00593987
0.0062607
0.00664274
0.00700159
0.0070023
0.00664366
0.00626119
0.00593992
0.00582458
0.0060382
0.00626023
0.00641809
0.00641829
0.00626059
0.0060384
0.00582451
0.00575855
0.005825
0.00594027
0.00602305
0.00602311
0.00594037
0.00582501
0.00575839
0.00575661
0.00582373
0.00594006
0.00602382
0.00602388
0.00594015
0.00582369
0.00575639
0.00582425
0.00603959
0.00626457
0.00642564
0.00642587
0.00626495
0.00603976
0.00582411
0.00594055
0.00626395
0.00665218
0.00702242
0.00702331
0.00665324
0.00626446
0.00594054
0.0060236
0.00642242
0.00701502
0.00804154
0.00804653
0.00701733
0.00642329
0.00602371
0.00602307
0.00642032
0.00700684
0.00799619
0.00800091
0.00700916
0.00642121
0.00602319
0.00593977
0.00626047
0.00664236
0.00700114
0.00700202
0.00664346
0.00626101
0.00593978
0.00582454
0.00603807
0.00626002
0.00641786
0.0064181
0.00626043
0.00603826
0.00582441
0.00575855
0.00582495
0.00594019
0.00602294
0.00602301
0.00594029
0.00582494
0.00575833
0.00575657
0.0058236
0.00593987
0.0060236
0.00602366
0.00593995
0.00582355
0.00575631
0.00582413
0.00603934
0.0062642
0.00642522
0.00642547
0.00626461
0.00603951
0.00582396
0.00594038
0.00626362
0.00665165
0.00702174
0.00702273
0.00665283
0.00626416
0.00594035
0.00602344
0.00642209
0.00701442
0.00804031
0.00804597
0.007017
0.00642302
0.00602353
0.00602294
0.00642006
0.00700644
0.00799584
0.00800116
0.00700901
0.00642101
0.00602304
0.00593968
0.0062603
0.00664214
0.00700098
0.00700195
0.00664333
0.00626086
0.00593966
0.00582448
0.00603796
0.00625989
0.00641774
0.006418
0.00626032
0.00603815
0.00582432
0.00575851
0.00582489
0.00594011
0.00602286
0.00602293
0.0059402
0.00582485
0.00575826
0.00575654
0.0058235
0.00593969
0.00602337
0.00602343
0.00593977
0.00582344
0.00575628
0.00582401
0.00603908
0.00626379
0.00642469
0.00642495
0.00626421
0.00603924
0.00582383
0.00594021
0.00626326
0.00665102
0.00702079
0.00702183
0.00665224
0.0062638
0.00594016
0.00602326
0.00642174
0.00701378
0.00803862
0.00804458
0.00701647
0.0064227
0.00602334
0.00602281
0.00641985
0.00700622
0.00799625
0.00800186
0.00700889
0.00642082
0.0060229
0.00593959
0.00626018
0.00664207
0.00700112
0.00700214
0.0066433
0.00626074
0.00593956
0.00582439
0.00603787
0.00625982
0.00641772
0.00641798
0.00626025
0.00603804
0.00582422
0.00575842
0.00582478
0.00594001
0.00602278
0.00602284
0.00594009
0.00582474
0.00575816
0.00575655
0.00582343
0.00593954
0.00602315
0.00602322
0.00593962
0.00582337
0.00575629
0.0058239
0.00603882
0.00626335
0.00642411
0.00642437
0.00626377
0.00603899
0.00582373
0.00594002
0.00626287
0.00665031
0.00701962
0.00702068
0.00665155
0.00626342
0.00593998
0.00602308
0.00642139
0.00701309
0.00803651
0.00804257
0.00701583
0.00642236
0.00602317
0.00602267
0.00641967
0.00700612
0.00799728
0.00800298
0.00700883
0.00642064
0.00602277
0.00593949
0.00626009
0.00664211
0.0070015
0.00700253
0.00664335
0.00626065
0.00593946
0.00582428
0.00603776
0.00625977
0.00641776
0.00641803
0.0062602
0.00603794
0.00582412
0.00575828
0.00582464
0.00593988
0.00602268
0.00602274
0.00593997
0.00582459
0.00575803
0.00575657
0.00582337
0.0059394
0.00602296
0.00602303
0.0059395
0.00582333
0.00575632
0.0058238
0.00603856
0.00626291
0.00642351
0.00642378
0.00626335
0.00603875
0.00582364
0.00593984
0.00626247
0.00664956
0.00701834
0.00701942
0.00665083
0.00626305
0.00593982
0.00602289
0.00642102
0.00701236
0.00803413
0.00804025
0.00701515
0.00642203
0.006023
0.00602253
0.00641948
0.00700607
0.00799861
0.00800441
0.00700883
0.00642048
0.00602265
0.00593938
0.00625999
0.00664218
0.00700199
0.00700304
0.00664345
0.00626057
0.00593936
0.00582416
0.00603764
0.00625972
0.00641782
0.00641809
0.00626016
0.00603783
0.00582401
0.00575813
0.00582447
0.00593973
0.00602255
0.00602262
0.00593982
0.00582443
0.00575788
0.0057566
0.00582334
0.00593929
0.00602279
0.00602287
0.00593939
0.0058233
0.00575636
0.00582372
0.00603833
0.0062625
0.00642294
0.00642323
0.00626297
0.00603855
0.00582357
0.00593967
0.00626209
0.00664881
0.00701708
0.0070182
0.00665015
0.00626271
0.00593967
0.00602271
0.00642065
0.00701161
0.00803166
0.00803799
0.00701451
0.00642172
0.00602285
0.00602239
0.00641927
0.00700599
0.00799992
0.00800593
0.00700887
0.00642034
0.00602253
0.00593926
0.00625987
0.00664223