/*--------------------------------*- C++ -*----------------------------------*\
| =========                 |                                                 |
| \\      /  F ield         | OpenFOAM: The Open Source CFD Toolbox           |
|  \\    /   O peration     | Version:  2406                                  |
|   \\  /    A nd           | Website:  www.openfoam.com                      |
|    \\/     M anipulation  |                                                 |
\*---------------------------------------------------------------------------*/
FoamFile
{
    version     2.0;
    format      ascii;
    arch        "LSB;label=32;scalar=64";
    class       surfaceScalarField;
    location    "0.4";
    object      phi;
}
// * * * * * * * * * * * * * * * * * * * * * * * * * * * * * * * * * * * * * //

dimensions      [0 3 -1 0 0 0 0];

oriented        oriented;

internalField   nonuniform List<scalar> 
46880
(
5.70232e-05
5.70232e-05
9.25624e-05
-6.58093e-05
-6.58093e-05
4.14853e-05
5.8553e-05
0.000107332
-6.81958e-05
2.17756e-05
5.89978e-05
0.000116853
-6.91214e-05
8.27819e-10
5.91032e-05
0.00012156
-6.94055e-05
-2.17741e-05
5.91032e-05
0.00012156
-6.94055e-05
-4.14839e-05
5.89978e-05
0.000116854
-6.91214e-05
-5.70221e-05
5.85529e-05
0.000107332
-6.81958e-05
5.70232e-05
9.25628e-05
-6.58086e-05
-6.58093e-05
5.8553e-05
4.14853e-05
0.000107332
-6.81959e-05
4.20298e-05
4.20298e-05
0.000121733
2.18262e-05
4.20509e-05
0.000130284
8.6595e-10
4.19866e-05
0.000134326
-2.18246e-05
4.19866e-05
0.000134326
-4.20284e-05
4.20509e-05
0.000130284
-5.85518e-05
4.20297e-05
0.000121733
4.14853e-05
0.000107333
-6.8195e-05
5.89979e-05
2.17756e-05
0.000116853
-6.91215e-05
4.2051e-05
2.18261e-05
0.000130284
2.17166e-05
2.17165e-05
0.000137965
9.0303e-10
2.16261e-05
0.00014148
-2.17149e-05
2.16261e-05
0.00014148
-4.20495e-05
2.17165e-05
0.000137965
-5.89966e-05
2.18261e-05
0.000130284
2.17756e-05
0.000116854
-6.91206e-05
5.91032e-05
7.56248e-10
0.00012156
-6.94055e-05
4.19866e-05
7.83862e-10
0.000134326
2.16262e-05
8.10119e-10
0.00014148
9.26255e-10
8.24032e-10
0.000144691
-2.16244e-05
8.2031e-10
0.000144691
-4.19851e-05
7.98666e-10
0.00014148
-5.9102e-05
7.64186e-10
0.000134326
7.27722e-10
0.000121561
-6.94046e-05
5.91032e-05
-2.17741e-05
0.00012156
-6.94055e-05
4.19866e-05
-2.18246e-05
0.000134326
2.16262e-05
-2.1715e-05
0.00014148
9.29711e-10
-2.16245e-05
0.000144691
-2.16244e-05
-2.16245e-05
0.000144691
-4.19851e-05
-2.1715e-05
0.00014148
-5.9102e-05
-2.18247e-05
0.000134326
-2.17742e-05
0.000121561
-6.94046e-05
5.89979e-05
-4.1484e-05
0.000116854
-6.91215e-05
4.2051e-05
-4.20284e-05
0.000130284
2.17166e-05
-4.20496e-05
0.000137965
9.13472e-10
-4.19852e-05
0.00014148
-2.17149e-05
-4.19852e-05
0.00014148
-4.20495e-05
-4.20496e-05
0.000137965
-5.89966e-05
-4.20284e-05
0.000130284
-4.14841e-05
0.000116854
-6.91206e-05
5.8553e-05
-5.70221e-05
0.000107332
-6.81959e-05
4.20298e-05
-5.85519e-05
0.000121733
2.18262e-05
-5.89967e-05
0.000130284
8.83098e-10
-5.91021e-05
0.000134326
-2.18245e-05
-5.9102e-05
0.000134326
-4.20283e-05
-5.89967e-05
0.000130284
-5.85518e-05
-5.85519e-05
0.000121733
-5.70222e-05
0.000107333
-6.8195e-05
5.70233e-05
9.25627e-05
-6.58086e-05
-6.58094e-05
4.14854e-05
0.000107332
-6.81951e-05
2.17757e-05
0.000116854
-6.91206e-05
8.50781e-10
0.000121561
-6.94047e-05
-2.1774e-05
0.000121561
-6.94047e-05
-4.1484e-05
0.000116854
-6.91206e-05
-5.70221e-05
0.000107333
-6.81951e-05
9.25631e-05
-6.58086e-05
-6.58086e-05
2.13013e-05
2.13013e-05
9.1153e-05
-2.05966e-05
-2.05966e-05
1.73907e-05
2.43201e-05
0.000110074
-2.31513e-05
9.65215e-06
2.60586e-05
0.000123203
-2.46698e-05
3.49205e-09
2.68754e-05
0.000129836
-2.55023e-05
-9.64542e-06
2.68754e-05
0.000129836
-2.55024e-05
-1.73848e-05
2.60588e-05
0.000123204
-2.467e-05
-2.12966e-05
2.43204e-05
0.000110076
-2.31517e-05
2.13019e-05
9.1155e-05
-2.05936e-05
-2.05971e-05
2.43201e-05
1.73908e-05
0.000110074
-2.31513e-05
1.97689e-05
1.97689e-05
0.000130835
1.094e-05
2.11221e-05
0.000144049
3.4097e-09
2.17238e-05
0.000150414
-1.09334e-05
2.17238e-05
0.000150414
-1.9763e-05
2.11221e-05
0.00014405
-2.43154e-05
1.97691e-05
0.000130837
1.73911e-05
0.000110076
-2.31482e-05
2.60586e-05
9.65219e-06
0.000123203
-2.46698e-05
2.11221e-05
1.094e-05
0.000144049
1.1676e-05
1.16759e-05
0.000156857
3.36567e-09
1.19978e-05
0.000162879
-1.16695e-05
1.19978e-05
0.000162879
-2.11163e-05
1.16759e-05
0.000156858
-2.6054e-05
1.09399e-05
0.000144051
9.65229e-06
0.000123205
-2.46667e-05
2.68755e-05
3.51368e-09
0.000129836
-2.55023e-05
2.17238e-05
3.39838e-09
0.000150414
1.19979e-05
3.29313e-09
0.000162879
3.36356e-09
3.21752e-09
0.00016868
-1.19914e-05
3.17485e-09
0.00016868
-2.1718e-05
3.17078e-09
0.00016288
-2.68708e-05
3.21279e-09
0.000150416
3.29104e-09
0.000129838
-2.54992e-05
2.68755e-05
-9.64542e-06
0.000129836
-2.55024e-05
2.17239e-05
-1.09334e-05
0.000150414
1.1998e-05
-1.16696e-05
0.000162879
3.39041e-09
-1.19916e-05
0.00016868
-1.19914e-05
-1.19916e-05
0.00016868
-2.17181e-05
-1.16698e-05
0.00016288
-2.68708e-05
-1.09337e-05
0.000150416
-9.64594e-06
0.000129838
-2.54993e-05
2.60589e-05
-1.73848e-05
0.000123204
-2.46701e-05
2.11223e-05
-1.9763e-05
0.00014405
1.16761e-05
-2.11164e-05
0.000156858
3.43778e-09
-2.17182e-05
0.00016288
-1.16695e-05
-2.17182e-05
0.00016288
-2.11164e-05
-2.11166e-05
0.000156859
-2.60542e-05
-1.97635e-05
0.000144052
-1.73855e-05
0.000123206
-2.46669e-05
2.43206e-05
-2.12966e-05
0.000110075
-2.31518e-05
1.97693e-05
-2.43154e-05
0.000130836
1.09402e-05
-2.6054e-05
0.000144051
3.50449e-09
-2.68709e-05
0.000150416
-1.09334e-05
-2.6871e-05
0.000150416
-1.97633e-05
-2.60543e-05
0.000144052
-2.43158e-05
-2.4316e-05
0.000130838
-2.12975e-05
0.000110078
-2.31486e-05
2.1302e-05
9.11549e-05
-2.05936e-05
-2.05972e-05
1.73913e-05
0.000110076
-2.31482e-05
9.65254e-06
0.000123205
-2.46668e-05
3.58011e-09
0.000129838
-2.54993e-05
-9.64565e-06
0.000129838
-2.54994e-05
-1.73853e-05
0.000123206
-2.4667e-05
-2.12973e-05
0.000110078
-2.31488e-05
9.11567e-05
-2.05941e-05
-2.05943e-05
1.18216e-05
1.18213e-05
8.9118e-05
-1.0804e-05
-1.08038e-05
9.91364e-06
1.44053e-05
0.00011062
-1.30431e-05
5.63362e-06
1.59823e-05
0.000125957
-1.44563e-05
1.20185e-08
1.67577e-05
0.000133893
-1.51933e-05
-5.61062e-06
1.67582e-05
0.000133894
-1.51938e-05
-9.89368e-06
1.59838e-05
0.000125961
-1.44577e-05
-1.18062e-05
1.44079e-05
0.000110626
-1.30456e-05
1.18248e-05
8.91251e-05
-1.07944e-05
-1.08067e-05
1.44054e-05
9.91333e-06
0.00011062
-1.30432e-05
1.20593e-05
1.20593e-05
0.000135527
6.82102e-06
1.33333e-05
0.000151936
1.1162e-08
1.39325e-05
0.000160049
-6.79953e-06
1.39327e-05
0.000160051
-1.20403e-05
1.33342e-05
0.00015194
-1.43905e-05
1.20611e-05
0.000135534
9.91623e-06
0.000110628
-1.30337e-05
1.59822e-05
5.63333e-06
0.000125957
-1.44562e-05
1.33331e-05
6.82106e-06
0.000151936
7.5115e-06
7.51172e-06
0.0001685
1.0417e-08
7.82248e-06
0.00017649
-7.49135e-06
7.82258e-06
0.000176491
-1.33152e-05
7.51212e-06
0.000168504
-1.59681e-05
6.82196e-06
0.000151943
5.63492e-06
0.000125966
-1.44472e-05
1.67575e-05
1.17406e-08
0.000133893
-1.51931e-05
1.39322e-05
1.12089e-08
0.000160049
7.82218e-06
1.06365e-08
0.00017649
9.97127e-09
1.02578e-08
0.000184304
-7.80281e-06
1.02182e-08
0.000184305
-1.39149e-05
1.05344e-08
0.000176493
-1.67439e-05
1.1097e-08
0.000160056
1.1711e-08
0.000133902
-1.51844e-05
1.67579e-05
-5.61088e-06
0.000133894
-1.51935e-05
1.39324e-05
-6.7995e-06
0.000160051
7.82226e-06
-7.49117e-06
0.000176491
9.92362e-09
-7.80257e-06
0.000184305
-7.80299e-06
-7.80274e-06
0.000184306
-1.39152e-05
-7.49174e-06
0.000176494
-1.67443e-05
-6.80059e-06
0.000160057
-5.6125e-06
0.000133903
-1.51849e-05
1.59834e-05
-9.89393e-06
0.000125961
-1.44574e-05
1.33339e-05
-1.20403e-05
0.00015194
7.5118e-06
-1.3315e-05
0.000168504
1.02496e-08
-1.39147e-05
0.000176493
-7.49199e-06
-1.3915e-05
0.000176494
-1.33163e-05
-1.33161e-05
0.000168508
-1.59697e-05
-1.20422e-05
0.000151947
-9.89675e-06
0.00012597
-1.44487e-05
1.44075e-05
-1.18064e-05
0.000110626
-1.30453e-05
1.20608e-05
-1.43906e-05
0.000135534
6.82163e-06
-1.5968e-05
0.000151943
1.08112e-08
-1.67437e-05
0.000160055
-6.80083e-06
-1.67442e-05
0.000160057
-1.20424e-05
-1.59695e-05
0.000151947
-1.43932e-05
-1.43931e-05
0.00013554
-1.18098e-05
0.000110634
-1.30361e-05
1.18244e-05
8.9125e-05
-1.07945e-05
-1.08064e-05
9.91583e-06
0.000110628
-1.30337e-05
5.63456e-06
0.000125966
-1.44472e-05
1.14129e-08
0.000133902
-1.51843e-05
-5.61273e-06
0.000133903
-1.51848e-05
-9.89692e-06
0.00012597
-1.44485e-05
-1.18099e-05
0.000110633
-1.30361e-05
8.91317e-05
-1.07974e-05
-1.07973e-05
3.00315e-06
2.99951e-06
8.7358e-05
-2.1226e-06
-2.1201e-06
2.96182e-06
4.22439e-06
0.000109301
-2.86421e-06
1.83813e-06
5.12018e-06
0.000125424
-3.46377e-06
3.68788e-08
5.58621e-06
0.000133912
-3.8039e-06
-1.76766e-06
5.58804e-06
0.000133917
-3.80564e-06
-2.90119e-06
5.12571e-06
0.000125438
-3.46853e-06
-2.95702e-06
4.23353e-06
0.00010932
-2.87222e-06
3.01094e-06
8.738e-05
-2.09421e-06
-2.12868e-06
4.22696e-06
2.95759e-06
0.000109301
-2.86611e-06
4.16266e-06
4.15985e-06
0.000135656
2.55503e-06
4.97921e-06
0.000153685
3.49163e-08
5.36532e-06
0.00016279
-2.488e-06
5.3667e-06
0.000162795
-4.10404e-06
4.98356e-06
0.000153698
-4.18173e-06
4.16738e-06
0.000135677
2.96787e-06
0.000109327
-2.83751e-06
5.1216e-06
1.83373e-06
0.000125424
-3.46482e-06
4.98073e-06
2.55222e-06
0.000153685
3.01688e-06
3.0154e-06
0.000172428
3.26115e-08
3.2023e-06
0.000181637
-2.954e-06
3.20301e-06
0.000181641
-4.92529e-06
3.01788e-06
0.000172441
-5.07872e-06
2.55678e-06
0.000153707
1.8404e-06
0.000125452
-3.43782e-06
5.58669e-06
3.26654e-08
0.000133912
-3.80425e-06
5.36584e-06
3.22495e-08
0.00016279
3.2028e-06
3.12087e-08
0.000181637
3.09279e-08
3.04524e-08
0.000190648
-3.14277e-06
3.06405e-08
0.000190651
-5.31263e-06
3.17841e-08
0.000181649
-5.54546e-06
3.32809e-08
0.000162812
3.42841e-08
0.000133941
-3.77814e-06
5.58779e-06
-1.77141e-06
0.000133916
-3.80537e-06
5.36649e-06
-2.49042e-06
0.000162794
3.20283e-06
-2.9553e-06
0.000181641
3.04899e-08
-3.14326e-06
0.000190651
-3.14366e-06
-3.14359e-06
0.000190654
-5.31406e-06
-2.95662e-06
0.000181653
-5.54722e-06
-2.49291e-06
0.000162816
-1.77491e-06
0.000133945
-3.77971e-06
5.12493e-06
-2.90424e-06
0.000125437
-3.46784e-06
4.98285e-06
-4.10607e-06
0.000153698
3.01726e-06
-4.92642e-06
0.000172441
3.1264e-08
-5.31308e-06
0.000181649
-2.957e-06
-5.31407e-06
0.000181653
-4.92981e-06
-4.92959e-06
0.000172453
-5.08406e-06
-4.11155e-06
0.000153719
-2.91153e-06
0.000125464
-3.4422e-06
4.2324e-06
-2.95924e-06
0.000109319
-2.87119e-06
4.16635e-06
-4.18325e-06
0.000135677
2.5559e-06
-5.07956e-06
0.000153706
3.25965e-08
-5.5458e-06
0.000162811
-2.49337e-06
-5.54725e-06
0.000162816
-4.11179e-06
-5.08396e-06
0.000153719
-4.19052e-06
-4.19046e-06
0.000135697
-2.96812e-06
0.000109344
-2.84483e-06
3.00971e-06
8.73791e-05
-2.09548e-06
-2.12764e-06
2.96669e-06
0.000109326
-2.83836e-06
1.83943e-06
0.000125452
-3.43827e-06
3.36044e-08
0.00013394
-3.77831e-06
-1.77527e-06
0.000133944
-3.77972e-06
-2.91162e-06
0.000125464
-3.44217e-06
-2.96801e-06
0.000109344
-2.84487e-06
8.74e-05
-2.10214e-06
-2.1023e-06
1.78608e-06
1.77465e-06
8.67927e-05
-1.5014e-06
-1.49407e-06
1.63094e-06
2.33401e-06
0.000109009
-1.88719e-06
1.01106e-06
2.74875e-06
0.00012547
-2.1746e-06
8.48795e-08
2.9644e-06
0.000134202
-2.32812e-06
-8.4959e-07
2.96814e-06
0.000134214
-2.33105e-06
-1.4931e-06
2.75968e-06
0.000125504
-2.18293e-06
-1.68244e-06
2.35112e-06
0.000109059
-1.90055e-06
1.79489e-06
8.6848e-05
-1.43768e-06
-1.5077e-06
2.3439e-06
1.61678e-06
0.000109009
-1.89384e-06
2.17841e-06
2.16652e-06
0.000135989
1.34266e-06
2.56324e-06
0.000154706
8.56207e-08
2.74838e-06
0.000164263
-1.17884e-06
2.75152e-06
0.000164276
-2.03648e-06
2.57287e-06
0.000154743
-2.23586e-06
2.18221e-06
0.000136046
1.63678e-06
0.000109075
-1.82618e-06
2.75624e-06
9.95608e-07
0.000125469
-2.17961e-06
2.57223e-06
1.32994e-06
0.000154705
1.56947e-06
1.55988e-06
0.000174434
8.30647e-08
1.64494e-06
0.000184227
-1.40984e-06
1.64684e-06
0.000184239
-2.43271e-06
1.56619e-06
0.000174471
-2.64941e-06
1.34065e-06
0.000154765
1.01002e-06
0.000125542
-2.11269e-06
2.96951e-06
6.96728e-08
0.0001342
-2.33151e-06
2.75463e-06
7.31068e-08
0.000164262
1.65171e-06
7.35642e-08
0.000184226
8.00424e-08
7.32355e-08
0.000193791
-1.49683e-06
7.40448e-08
0.000193801
-2.61838e-06
7.59588e-08
0.000184261
-2.86477e-06
7.70274e-08
0.000164322
7.50192e-08
0.000134276
-2.26545e-06
2.97113e-06
-8.63251e-07
0.000134211
-2.33291e-06
2.75548e-06
-1.19028e-06
0.000164274
1.65137e-06
-1.41868e-06
0.000184237
7.87584e-08
-1.50334e-06
0.0001938
-1.49898e-06
-1.50365e-06
0.00019381
-2.62148e-06
-1.42029e-06
0.000184272
-2.86823e-06
-1.19334e-06
0.000164333
-8.67353e-07
0.000134287
-2.26805e-06
2.76101e-06
-1.50423e-06
0.0001255
-2.18355e-06
2.57507e-06
-2.04607e-06
0.00015474
1.56907e-06
-2.44028e-06
0.000174468
7.9241e-08
-2.6241e-06
0.00018426
-1.41683e-06
-2.62575e-06
0.000184271
-2.44221e-06
-2.44553e-06
0.000174504
-2.65957e-06
-2.05472e-06
0.000154798
-1.51509e-06
0.000125573
-2.12014e-06
2.35127e-06
-1.69054e-06
0.000109055
-1.90022e-06
2.18318e-06
-2.24299e-06
0.000136042
1.34242e-06
-2.65513e-06
0.000154762
7.94282e-08
-2.86918e-06
0.00016432
-1.19054e-06
-2.87164e-06
0.000164332
-2.05186e-06
-2.66233e-06
0.000154797
-2.25172e-06
-2.2542e-06
0.000136097
-1.70358e-06
0.000109119
-1.83808e-06
1.79444e-06
8.68438e-05
-1.44257e-06
-1.50709e-06
1.63693e-06
0.000109071
-1.83049e-06
1.01101e-06
0.000125539
-2.11617e-06
7.68455e-08
0.000134273
-2.26821e-06
-8.64917e-07
0.000134285
-2.27025e-06
-1.51245e-06
0.000125571
-2.12198e-06
-1.70122e-06
0.000109119
-1.83979e-06
8.68967e-05
-1.44999e-06
-1.45158e-06
6.42455e-07
6.24167e-07
8.64636e-05
-4.74118e-07
-4.63338e-07
6.54677e-07
8.54594e-07
0.000108742
-6.00118e-07
4.6937e-07
1.03788e-06
0.00012533
-7.12159e-07
1.45148e-07
1.13917e-06
0.000134164
-7.76774e-07
-1.93806e-07
1.14372e-06
0.000134189
-7.79761e-07
-4.20992e-07
1.05103e-06
0.000125401
-7.20277e-07
-4.68359e-07
8.74197e-07
0.000108845
-6.12872e-07
6.45887e-07
8.65756e-05
-3.67694e-07
-4.74097e-07
8.73044e-07
6.305e-07
0.000108741
-6.11613e-07
8.98557e-07
8.74735e-07
0.000135943
6.27309e-07
1.06362e-06
0.000154952
1.57282e-07
1.15904e-06
0.000164713
-3.2743e-07
1.16348e-06
0.000164741
-6.41002e-07
1.07682e-06
0.000155031
-6.79355e-07
8.95203e-07
0.000136063
6.54937e-07
0.000108878
-4.91316e-07
1.05431e-06
4.41664e-07
0.000125326
-7.22446e-07
1.0846e-06
6.00484e-07
0.000154949
7.4205e-07
7.18579e-07
0.000175122
1.59938e-07
7.69795e-07
0.000185198
-4.35774e-07
7.72932e-07
0.000185225
-8.19235e-07
7.28477e-07
0.000175202
-8.53325e-07
6.16356e-07
0.000155078
4.6154e-07
0.00012548
-5.97567e-07
1.15261e-06
1.16906e-07
0.000134157
-7.85376e-07
1.17617e-06
1.30012e-07
0.000164709
7.88986e-07
1.36038e-07
0.000185196
1.5781e-07
1.38158e-07
0.000195054
-4.84813e-07
1.3988e-07
0.000195077
-9.10766e-07
1.41068e-07
0.000185274
-9.5049e-07
1.37863e-07
0.00016484
1.26752e-07
0.000134319
-6.58861e-07
1.1539e-06
-2.19857e-07
0.00013418
-7.86337e-07
1.17664e-06
-3.528e-07
0.000164734
7.8793e-07
-4.58239e-07
0.00018522
1.55459e-07
-5.03555e-07
0.000195075
-4.88273e-07
-5.03338e-07
0.000195097
-9.15238e-07
-4.58403e-07
0.000185298
-9.54932e-07
-3.53546e-07
0.000164864
-2.20938e-07
0.000134342
-6.61801e-07
1.05814e-06
-4.42682e-07
0.00012539
-7.24929e-07
1.08635e-06
-6.62538e-07
0.000155021
7.39731e-07
-8.38558e-07
0.000175195
1.53117e-07
-9.27106e-07
0.00018527
-4.46565e-07
-9.28526e-07
0.000185296
-8.32533e-07
-8.43043e-07
0.000175275
-8.66197e-07
-6.69628e-07
0.000155148
-4.50976e-07
0.000125542
-6.05653e-07
8.78733e-07
-4.84566e-07
0.000108834
-6.15758e-07
9.01593e-07
-6.95652e-07
0.000136052
6.24307e-07
-8.68077e-07
0.000155069
1.4675e-07
-9.63077e-07
0.000164833
-3.44599e-07
-9.65205e-07
0.00016486
-6.61651e-07
-8.74277e-07
0.000155146
-6.98701e-07
-7.04733e-07
0.000136169
-4.94079e-07
0.000108968
-5.0405e-07
6.48387e-07
8.65648e-05
-3.77979e-07
-4.75941e-07
6.58467e-07
0.000108867
-5.0161e-07
4.6624e-07
0.00012547
-6.06902e-07
1.32391e-07
0.000134311
-6.6689e-07
-2.14993e-07
0.000134335
-6.68339e-07
-4.45604e-07
0.000125538
-6.10698e-07
-4.90065e-07
0.000108966
-5.07707e-07
8.66731e-05
-3.79134e-07
-3.81373e-07
3.74479e-07
3.63619e-07
8.63082e-05
-2.93784e-07
-2.88991e-07
3.88449e-07
4.65946e-07
0.000108619
-3.568e-07
3.22879e-07
5.44461e-07
0.000125259
-4.07882e-07
1.94017e-07
5.88361e-07
0.00013414
-4.35981e-07
4.4428e-08
5.91087e-07
0.000134184
-4.36529e-07
-7.90287e-08
5.51908e-07
0.000125381
-4.08932e-07
-1.45577e-07
4.75636e-07
0.000108795
-3.58741e-07
3.722e-07
8.64973e-05
-1.53674e-07
-2.85802e-07
4.81204e-07
3.71077e-07
0.000108617
-3.64735e-07
5.03795e-07
4.8117e-07
0.000135905
4.09019e-07
5.65477e-07
0.000155025
2.2635e-07
6.10164e-07
0.000164874
2.13252e-08
6.13741e-07
0.000164923
-1.37023e-07
5.75647e-07
0.000155165
-2.08355e-07
4.9576e-07
0.000136114
3.8658e-07
0.000108852
-1.96426e-07
5.6136e-07
3.00274e-07
0.000125253
-4.17351e-07
5.89191e-07
3.81084e-07
0.000155022
4.68871e-07
4.40529e-07
0.000175367
2.41562e-07
4.69227e-07
0.000185566
-7.64794e-09
4.72391e-07
0.000185616
-1.92601e-07
4.50102e-07
0.000175513
-2.64022e-07
3.95511e-07
0.00015525
3.16694e-07
0.00012552
-2.34022e-07
6.04414e-07
1.68839e-07
0.00013413
-4.45707e-07
6.31744e-07
1.96206e-07
0.000164866
4.94425e-07
2.11526e-07
0.000185562
2.44332e-07
2.17929e-07
0.000195555
-2.49232e-08
2.20325e-07
0.000195598
-2.25008e-07
2.18424e-07
0.000185706
-2.97459e-07
2.06443e-07
0.000165102
1.80568e-07
0.000134413
-2.55185e-07
6.04586e-07
1.96493e-08
0.00013417
-4.45376e-07
6.31254e-07
-7.85279e-09
0.000164911
4.92512e-07
-3.64599e-08
0.000185607
2.41273e-07
-5.01374e-08
0.000195594
-2.88119e-08
-4.86664e-08
0.000195636
-2.29515e-07
-3.28231e-08
0.00018575
-3.01387e-07
-2.77989e-09
0.000165145
2.53624e-08
0.000134452
-2.57028e-07
5.61906e-07
-1.00818e-07
0.000125365
-4.16202e-07
5.88106e-07
-1.62572e-07
0.00015515
4.64189e-07
-2.17701e-07
0.0001755
2.32931e-07
-2.46841e-07
0.000185698
-1.94175e-08
-2.46372e-07
0.000185746
-2.05627e-07
-2.16425e-07
0.000175644
-2.75112e-07
-1.60486e-07
0.000155375
-9.79532e-08
0.000125629
-2.38941e-07
4.81846e-07
-1.62973e-07
0.000108778
-3.63806e-07
5.02734e-07
-2.28361e-07
0.000136097
4.0291e-07
-2.83499e-07
0.000155234
2.13652e-07
-3.1418e-07
0.00016509
3.30512e-09
-3.1384e-07
0.000165138
-1.56481e-07
-2.82324e-07
0.000155371
-2.24149e-07
-2.25693e-07
0.000136302
-1.58326e-07
0.000109008
-2.04482e-07
3.74564e-07
8.64818e-05
-1.65665e-07
-2.88917e-07
3.87817e-07
0.000108835
-2.09767e-07
3.16847e-07
0.000125504
-2.46742e-07
1.79722e-07
0.0001344
-2.65894e-07
2.34418e-08
0.000134442
-2.64644e-07
-1.00915e-07
0.000125623
-2.42855e-07
-1.62104e-07
0.000109006
-2.04346e-07
8.6666e-05
-1.58375e-07
-1.55006e-07
1.96986e-07
2.18618e-07
8.61859e-05
-1.38568e-07
-1.54705e-07
2.3483e-07
2.71819e-07
0.000108496
-1.86055e-07
2.40036e-07
3.09685e-07
0.000125152
-2.08305e-07
2.11657e-07
3.29382e-07
0.000134058
-2.19026e-07
1.59938e-07
3.27672e-07
0.000134124
-2.15544e-07
1.00727e-07
3.0414e-07
0.000125334
-1.97874e-07
4.99564e-08
2.61517e-07
0.000108754
-1.70397e-07
2.03492e-07
8.64618e-05
1.2889e-08
-1.30985e-07
2.57499e-07
2.57022e-07
0.000108495
-1.73796e-07
3.08811e-07
3.21067e-07
0.000135805
3.10245e-07
3.66276e-07
0.000154967
2.65439e-07
3.89432e-07
0.000164859
1.93113e-07
3.89544e-07
0.000164934
1.17145e-07
3.66014e-07
0.000155179
5.63603e-08
3.18988e-07
0.000136118
2.5163e-07
0.000108841
1.87132e-08
3.01998e-07
2.59496e-07
0.000125149
-2.0103e-07
3.61086e-07
3.18573e-07
0.000154965
3.56785e-07
3.58486e-07
0.000175379
2.96742e-07
3.77724e-07
0.000185638
2.08299e-07
3.78973e-07
0.000185715
1.21294e-07
3.62111e-07
0.000175604
5.61055e-08
3.22956e-07
0.000155311
2.6238e-07
0.000125547
1.80013e-08
3.25377e-07
2.26518e-07
0.000134053
-2.15203e-07
3.86806e-07
2.69784e-07
0.000164854
3.77105e-07
2.95675e-07
0.000185635
3.07455e-07
3.06642e-07
0.000195696
2.12105e-07
3.08739e-07
0.000195763
1.20158e-07
3.0159e-07
0.000185859
5.36323e-08
2.77849e-07
0.000165213
2.34398e-07
0.000134477
1.78371e-08
3.24377e-07
1.69702e-07
0.000134116
-2.13597e-07
3.85517e-07
1.9428e-07
0.000164925
3.74863e-07
2.05767e-07
0.000185708
3.04643e-07
2.11194e-07
0.000195759
2.09121e-07
2.14008e-07
0.000195826
1.17155e-07
2.13314e-07
0.000185931
5.16619e-08
2.05025e-07
0.000165284
1.81465e-07
0.000134539
1.79053e-08
2.9924e-07
1.05669e-07
0.000125326
-1.9624e-07
3.57794e-07
1.15993e-07
0.000155169
3.51389e-07
1.18183e-07
0.000175594
2.8908e-07
1.19656e-07
0.000185852
1.99298e-07
1.2296e-07
0.000185927
1.12808e-07
1.27693e-07
0.000175817
5.07777e-08
1.30384e-07
0.000155512
1.22663e-07
0.00012572
1.86315e-08
2.53494e-07
5.09024e-08
0.000108747
-1.67745e-07
3.04918e-07
5.3595e-08
0.000136108
3.03698e-07
5.28275e-08
0.000155301
2.54823e-07
5.3444e-08
0.000165205
1.7979e-07
5.7542e-08
0.000165278
1.04936e-07
6.47628e-08
0.000155509
4.94259e-08
7.22559e-08
0.000136415
7.36183e-08
0.000109088
1.90532e-08
1.92129e-07
8.6456e-05
1.14656e-08
-1.26844e-07
2.31713e-07
0.000108833
1.54129e-08
2.34551e-07
0.000125539
1.51388e-08
2.00866e-07
0.000134469
1.77028e-08
1.45337e-07
0.000134533
2.2425e-08
8.78108e-08
0.000125717
2.88539e-08
4.407e-08
0.000109086
3.54233e-08
8.67258e-05
1.9105e-08
3.88303e-08
1.40406e-07
2.13849e-07
8.60766e-05
-9.90622e-08
-1.4584e-07
1.75677e-07
2.56757e-07
0.000108375
-1.70906e-07
1.96237e-07
2.82714e-07
0.000125034
-1.84876e-07
1.95878e-07
2.92678e-07
0.000133955
-1.88715e-07
1.73317e-07
2.85779e-07
0.000134042
-1.81158e-07
1.33205e-07
2.62406e-07
0.000125275
-1.63064e-07
8.61513e-08
2.24614e-07
0.000108715
-1.38397e-07
1.74361e-07
8.64369e-05
4.07291e-08
-1.04056e-07
1.85911e-07
2.6633e-07
0.00010838
-1.23416e-07
2.37559e-07
3.2308e-07
0.000135687
2.65419e-07
3.58241e-07
0.000154864
2.63726e-07
3.73067e-07
0.00016478
2.33614e-07
3.68384e-07
0.000164881
1.82279e-07
3.44069e-07
0.000155149
1.20968e-07
2.99999e-07
0.000136103
2.36608e-07
0.000108836
6.39773e-08
2.18988e-07
2.93818e-07
0.000125045
-1.4247e-07
2.81117e-07
3.56164e-07
0.00015487
3.12425e-07
3.9466e-07
0.000175311
3.08128e-07
4.11022e-07
0.000185605
2.7306e-07
4.08886e-07
0.000185709
2.15597e-07
3.88268e-07
0.000175617
1.46543e-07
3.45023e-07
0.000155335
2.78021e-07
0.000125573
7.94254e-08
2.35636e-07
2.89724e-07
0.000133972
-1.51104e-07
3.02392e-07
3.514e-07
0.000164792
3.33968e-07
3.88871e-07
0.000185609
3.26742e-07
4.04114e-07
0.00019571
2.90873e-07
4.04614e-07
0.000195804
2.32017e-07
3.90162e-07
0.000185915
1.60424e-07
3.52103e-07
0.000165278
2.88358e-07
0.000134537
9.01243e-08
2.33525e-07
2.54985e-07
0.000134065
-1.47936e-07
3.00761e-07
3.11556e-07
0.000164898
3.32229e-07
3.47037e-07
0.000185718
3.25277e-07
3.64511e-07
0.000195806
2.90068e-07
3.6768e-07
0.000195898
2.3183e-07
3.5569e-07
0.000186023
1.61596e-07
3.23686e-07
0.000165382
2.67829e-07
0.000134628
9.30571e-08
2.13001e-07
1.97141e-07
0.000125304
-1.33175e-07
2.76788e-07
2.45324e-07
0.000155172
3.08556e-07
2.7768e-07
0.000175632
3.04509e-07
2.96276e-07
0.000185924
2.704e-07
3.01688e-07
0.000186027
2.15311e-07
2.93203e-07
0.000175934
1.5025e-07
2.68336e-07
0.000155632
2.23457e-07
0.000125827
8.82242e-08
1.76908e-07
1.30387e-07
0.000108747
-1.10826e-07
2.32151e-07
1.65836e-07
0.000136132
2.61389e-07
1.92352e-07
0.000155357
2.59446e-07
2.09766e-07
0.000165293
2.30032e-07
2.16917e-07
0.000165392
1.82549e-07
2.12834e-07
0.000155637
1.27767e-07
1.96743e-07
0.000136542
1.66224e-07
0.000109196
7.64297e-08
1.2948e-07
8.64686e-05
6.67085e-08
-7.84796e-08
1.7078e-07
0.000108867
9.05577e-08
1.93961e-07
0.0001256
1.07549e-07
1.92899e-07
0.000134559
1.21455e-07
1.70493e-07
0.000134643
1.28903e-07
1.35121e-07
0.000125836
1.28789e-07
9.63842e-08
0.000109201
1.21428e-07
8.68211e-05
6.19294e-08
1.05405e-07
1.1766e-07
2.36894e-07
8.59657e-05
-8.63913e-08
-1.57329e-07
1.43527e-07
2.90459e-07
0.000108247
-1.88533e-07
1.57812e-07
3.222e-07
0.000124903
-2.0552e-07
1.55944e-07
3.32713e-07
0.000133833
-2.0958e-07
1.35964e-07
3.21782e-07
0.000133939
-1.99285e-07
1.01246e-07
2.90686e-07
0.000125195
-1.76209e-07
6.15439e-08
2.42489e-07
0.000108658
-1.45192e-07
1.80905e-07
8.63975e-05
2.52942e-08
-1.05178e-07
1.5834e-07
3.0081e-07
0.000108263
-1.06027e-07
2.01631e-07
3.73269e-07
0.000135561
2.26412e-07
4.16953e-07
0.000154744
2.27204e-07
4.33352e-07
0.000164679
2.02674e-07
4.24452e-07
0.000164803
1.57466e-07
3.90912e-07
0.000155094
1.02314e-07
3.33181e-07
0.000136068
2.5286e-07
0.000108814
5.26834e-08
1.8779e-07
3.3738e-07
0.000124942
-1.21438e-07
2.43499e-07
4.20166e-07
0.000154767
2.7537e-07
4.70558e-07
0.000175226
2.77764e-07
4.90403e-07
0.000185545
2.5138e-07
4.84821e-07
0.000185675
2.0091e-07
4.54341e-07
0.000175604
1.36698e-07
3.94784e-07
0.000155338
3.06115e-07
0.000125582
7.42454e-08
2.01413e-07
3.37747e-07
0.000133897
-1.26461e-07
2.6375e-07
4.23758e-07
0.000164726
2.98949e-07
4.76828e-07
0.000185567
3.01598e-07
4.97958e-07
0.0001957
2.76686e-07
4.96262e-07
0.000195817
2.2589e-07
4.72059e-07
0.000185949
1.58539e-07
4.15818e-07
0.000165324
3.27246e-07
0.000134584
9.07873e-08
1.96646e-07
3.01686e-07
0.000134025
-1.20057e-07
2.60935e-07
3.84158e-07
0.000164873
2.97689e-07
4.37966e-07
0.00018572
3.02097e-07
4.64139e-07
0.000195835
2.79191e-07
4.66642e-07
0.000195951
2.3013e-07
4.44972e-07
0.000186099
1.64711e-07
3.9423e-07
0.000165469
3.12874e-07
0.000134709
9.82195e-08
1.7385e-07
2.3734e-07
0.000125297
-1.02759e-07
2.35333e-07
3.09283e-07
0.000155185
2.72566e-07
3.59862e-07
0.000175673
2.79762e-07
3.8849e-07
0.000185992
2.58327e-07
3.94672e-07
0.000186121
2.13488e-07
3.77648e-07
0.000176046
1.54828e-07
3.35776e-07
0.000155749
2.67923e-07
0.000125931
9.58824e-08
1.36344e-07
1.6135e-07
0.000108766
-7.89946e-08
1.8933e-07
2.14695e-07
0.000136174
2.23103e-07
2.55982e-07
0.000155427
2.31013e-07
2.82345e-07
0.000165391
2.13674e-07
2.91037e-07
0.000165513
1.77414e-07
2.80783e-07
0.00015577
1.31159e-07
2.51844e-07
0.000136672
2.04004e-07
0.000109307
8.44809e-08
9.01697e-08
8.6499e-05
8.85133e-08
-4.77081e-08
1.2866e-07
0.000108921
1.22964e-07
1.5478e-07
0.000125681
1.49194e-07
1.61718e-07
0.000134665
1.68925e-07
1.5035e-07
0.000134768
1.77731e-07
1.26621e-07
0.000125966
1.74144e-07
9.77211e-08
0.000109322
1.59301e-07
8.69209e-05
6.95079e-08
1.3236e-07
1.07581e-07
2.35875e-07
8.58664e-05
-8.64303e-08
-1.57693e-07
1.17711e-07
3.05489e-07
0.00010813
-1.98408e-07
1.14678e-07
3.49982e-07
0.000124779
-2.22956e-07
9.83284e-08
3.66268e-07
0.000133714
-2.30596e-07
7.00589e-08
3.5332e-07
0.000133833
-2.19187e-07
3.53516e-08
3.13072e-07
0.000125108
-1.9076e-07
4.1669e-09
2.50501e-07
0.000108589
-1.51032e-07
1.73542e-07
8.63466e-05
-1.54253e-08
-1.03074e-07
1.42646e-07
2.97948e-07
0.000108161
-1.02411e-07
1.68961e-07
3.92807e-07
0.000135447
1.76755e-07
4.53381e-07
0.000154633
1.6428e-07
4.7731e-07
0.00016458
1.32627e-07
4.66121e-07
0.000164722
8.80053e-08
4.21178e-07
0.000155031
4.20657e-08
3.44638e-07
0.00013602
2.42594e-07
0.000108777
9.72086e-09
1.6615e-07
3.3146e-07
0.000124855
-1.12796e-07
2.05758e-07
4.40931e-07
0.000154679
2.22707e-07
5.10978e-07
0.000175151
2.14296e-07
5.39617e-07
0.000185491
1.82643e-07
5.32106e-07
0.000185641
1.33772e-07
4.89545e-07
0.000175585
7.92843e-08
4.08901e-07
0.000155328
2.94571e-07
0.000125575
3.40753e-08
1.7368e-07
3.27392e-07
0.000133839
-1.12001e-07
2.21734e-07
4.4132e-07
0.000164677
2.44925e-07
5.15152e-07
0.00018554
2.39921e-07
5.45944e-07
0.000195699
2.11827e-07
5.43004e-07
0.000195834
1.64082e-07
5.07324e-07
0.000185979
1.07065e-07
4.30136e-07
0.00016536
3.15434e-07
0.000134614
5.55746e-08
1.62829e-07
2.86547e-07
0.000134002
-9.95783e-08
2.14888e-07
3.94751e-07
0.000164868
2.42524e-07
4.68484e-07
0.000185739
2.42025e-07
5.04724e-07
0.000195877
2.1846e-07
5.06897e-07
0.000196011
1.74677e-07
4.75131e-07
0.000186175
1.20715e-07
4.05665e-07
0.000165548
3.00973e-07
0.000134775
6.95431e-08
1.34297e-07
2.19316e-07
0.000125307
-7.69085e-08
1.85261e-07
3.11648e-07
0.000155217
2.15849e-07
3.79193e-07
0.000175732
2.20684e-07
4.17237e-07
0.000186075
2.01725e-07
4.24028e-07
0.000186222
1.64857e-07
3.99052e-07
0.000176159
1.18945e-07
3.42229e-07
0.000155859
2.56223e-07
0.00012602
7.42162e-08
9.2315e-08
1.44127e-07
0.000108798
-4.88076e-08
1.36084e-07
2.10918e-07
0.000136231
1.65401e-07
2.64658e-07
0.000155512
1.7381e-07
2.98518e-07
0.000165502
1.62123e-07
3.08283e-07
0.000165641
1.36308e-07
2.92673e-07
0.000155902
1.03543e-07
2.53322e-07
0.000136794
1.93452e-07
0.000109404
6.949e-08
4.55188e-08
8.65377e-05
7.71471e-08
-1.71936e-08
7.55993e-08
0.000108984
1.17905e-07
9.89914e-08
0.000125771
1.51418e-07
1.09132e-07
0.000134778
1.75527e-07
1.06148e-07
0.000134894
1.85158e-07
9.43856e-08
0.000126092
1.78682e-07
7.81519e-08
0.000109433
1.58159e-07
8.70078e-05
6.01665e-08
1.24531e-07
8.32169e-08
1.68819e-07
8.58034e-05
-7.38407e-08
-1.15246e-07
7.59071e-08
2.44871e-07
0.000108051
-1.58803e-07
5.41606e-08
2.98555e-07
0.00012469
-1.88337e-07
2.28399e-08
3.206e-07
0.000133624
-1.99149e-07
-1.2285e-08
3.07862e-07
0.000133749
-1.88226e-07
-4.31735e-08
2.62568e-07
0.000125034
-1.57753e-07
-6.03393e-08
1.91959e-07
0.000108528
-1.13906e-07
1.10023e-07
8.62991e-05
-5.7093e-08
-6.57512e-08
1.07684e-07
2.10296e-07
0.000108096
-8.4169e-08
1.13425e-07
3.16331e-07
0.00013537
1.02092e-07
3.90446e-07
0.000154553
7.62228e-08
4.22676e-07
0.000164504
4.0009e-08
4.1172e-07
0.000164654
1.33171e-09
3.59289e-07
0.000154973
-2.86517e-08
2.70875e-07
0.000135971
1.58951e-07
0.000108736
-3.69911e-08
1.20276e-07
2.29668e-07
0.000124802
-8.65285e-08
1.38863e-07
3.54813e-07
0.000154622
1.38581e-07
4.42041e-07
0.0001751
1.20008e-07
4.81069e-07
0.000185451
8.6792e-08
4.74182e-07
0.000185612
4.61233e-08
4.22648e-07
0.000175562
9.95101e-09
3.26841e-07
0.000155308
1.99565e-07
0.000125556
-1.08296e-08
1.17428e-07
2.2021e-07
0.000133809
-7.7589e-08
1.45582e-07
3.51684e-07
0.000164652
1.5485e-07
4.4434e-07
0.000185529
1.43955e-07
4.86827e-07
0.000195704
1.17431e-07
4.84964e-07
0.00019585
8.02532e-08
4.4009e-07
0.000185998
4.23359e-08
3.47306e-07
0.000165377
2.18385e-07