/*--------------------------------*- C++ -*----------------------------------*\
| =========                 |                                                 |
| \\      /  F ield         | OpenFOAM: The Open Source CFD Toolbox           |
|  \\    /   O peration     | Version:  2406                                  |
|   \\  /    A nd           | Website:  www.openfoam.com                      |
|    \\/     M anipulation  |                                                 |
\*---------------------------------------------------------------------------*/
FoamFile
{
    version     2.0;
    format      ascii;
    arch        "LSB;label=32;scalar=64";
    class       volVectorField;
    location    "0.4";
    object      U;
}
// * * * * * * * * * * * * * * * * * * * * * * * * * * * * * * * * * * * * * //

dimensions      [0 1 -1 0 0 0 0];

internalField   nonuniform List<vector> 
16000
(
(0.153133 0.153133 1.11473)
(0.117575 0.16817 1.1542)
(0.0724608 0.176881 1.17285)
(0.0244967 0.180954 1.18018)
(-0.0244925 0.180954 1.18018)
(-0.0724568 0.176881 1.17285)
(-0.117571 0.16817 1.1542)
(-0.15313 0.153133 1.11474)
(0.16817 0.117574 1.1542)
(0.126111 0.12611 1.18728)
(0.0766356 0.131083 1.19757)
(0.0257158 0.133403 1.19978)
(-0.0257114 0.133403 1.19978)
(-0.0766315 0.131083 1.19757)
(-0.126107 0.126111 1.18728)
(-0.168167 0.117575 1.1542)
(0.176881 0.0724606 1.17285)
(0.131083 0.0766354 1.19757)
(0.0792045 0.0792043 1.20176)
(0.0264771 0.0803927 1.20065)
(-0.0264726 0.0803927 1.20065)
(-0.0792003 0.0792044 1.20176)
(-0.131079 0.0766355 1.19757)
(-0.176878 0.0724608 1.17285)
(0.180954 0.0244965 1.18018)
(0.133403 0.0257156 1.19978)
(0.080393 0.0264768 1.20065)
(0.0268205 0.0268202 1.1979)
(-0.0268159 0.0268202 1.1979)
(-0.0803887 0.0264768 1.20065)
(-0.1334 0.0257156 1.19978)
(-0.180951 0.0244965 1.18018)
(0.180954 -0.0244927 1.18018)
(0.133403 -0.0257116 1.19978)
(0.080393 -0.0264728 1.20065)
(0.0268205 -0.0268161 1.1979)
(-0.0268159 -0.0268162 1.1979)
(-0.0803887 -0.0264729 1.20065)
(-0.1334 -0.0257117 1.19978)
(-0.180951 -0.0244928 1.18018)
(0.176882 -0.072457 1.17285)
(0.131083 -0.0766317 1.19757)
(0.0792046 -0.0792005 1.20176)
(0.0264771 -0.0803889 1.20065)
(-0.0264726 -0.0803889 1.20065)
(-0.0792004 -0.0792007 1.20176)
(-0.131079 -0.0766319 1.19757)
(-0.176879 -0.0724573 1.17285)
(0.168171 -0.117571 1.1542)
(0.126111 -0.126107 1.18728)
(0.0766358 -0.131079 1.19757)
(0.0257158 -0.1334 1.19978)
(-0.0257114 -0.1334 1.19978)
(-0.0766316 -0.13108 1.19757)
(-0.126107 -0.126107 1.18728)
(-0.168168 -0.117572 1.15421)
(0.153133 -0.15313 1.11474)
(0.117575 -0.168167 1.1542)
(0.0724611 -0.176879 1.17285)
(0.0244968 -0.180951 1.18018)
(-0.0244925 -0.180951 1.18018)
(-0.072457 -0.176879 1.17285)
(-0.117571 -0.168168 1.15421)
(-0.15313 -0.153131 1.11474)
(0.0494217 0.0494219 1.29061)
(0.0414087 0.0615832 1.3895)
(0.0279363 0.0703889 1.44408)
(0.00985004 0.0751804 1.46808)
(-0.0098323 0.075181 1.46808)
(-0.0279195 0.0703906 1.44408)
(-0.0413938 0.0615861 1.3895)
(-0.0494102 0.0494256 1.29062)
(0.0615831 0.0414088 1.38949)
(0.0531706 0.0531707 1.48728)
(0.0357387 0.061651 1.53241)
(0.0125551 0.0660336 1.54992)
(-0.012538 0.066034 1.54992)
(-0.0357225 0.0616521 1.53241)
(-0.0531562 0.0531726 1.48728)
(-0.0615718 0.0414116 1.3895)
(0.0703889 0.0279364 1.44408)
(0.061651 0.0357388 1.53241)
(0.0413111 0.041311 1.57006)
(0.0144442 0.0441252 1.58319)
(-0.0144274 0.0441254 1.58319)
(-0.0412953 0.0413115 1.57006)
(-0.061637 0.0357397 1.53241)
(-0.0703779 0.0279379 1.44408)
(0.0751805 0.00985011 1.46808)
(0.0660338 0.012555 1.54992)
(0.0441255 0.014444 1.58319)
(0.0153828 0.0153825 1.59385)
(-0.0153662 0.0153825 1.59385)
(-0.0441097 0.0144439 1.5832)
(-0.0660199 0.012555 1.54993)
(-0.0751697 0.00985022 1.46809)
(0.0751813 -0.00983226 1.46808)
(0.0660343 -0.012538 1.54992)
(0.0441258 -0.0144276 1.58319)
(0.015383 -0.0153665 1.59385)
(-0.0153662 -0.0153667 1.59386)
(-0.0441099 -0.0144282 1.5832)
(-0.0660203 -0.0125389 1.54993)
(-0.0751703 -0.0098335 1.46809)
(0.0703909 -0.0279195 1.44408)
(0.0616525 -0.0357226 1.53241)
(0.0413121 -0.0412955 1.57006)
(0.0144446 -0.0441101 1.5832)
(-0.0144275 -0.0441105 1.5832)
(-0.0412959 -0.0412965 1.57006)
(-0.0616382 -0.0357244 1.53241)
(-0.0703797 -0.027922 1.44409)
(0.0615865 -0.0413938 1.3895)
(0.0531731 -0.0531563 1.48728)
(0.0357403 -0.0616372 1.53241)
(0.0125557 -0.0660202 1.54993)
(-0.0125382 -0.0660208 1.54993)
(-0.0357236 -0.0616388 1.53241)
(-0.0531583 -0.053159 1.48729)
(-0.0615747 -0.0413975 1.38951)
(0.0494259 -0.0494102 1.29062)
(0.0414121 -0.0615718 1.3895)
(0.0279385 -0.070378 1.44408)
(0.00985092 -0.0751699 1.46809)
(-0.00983274 -0.0751707 1.46809)
(-0.0279213 -0.0703801 1.44409)
(-0.0413968 -0.0615753 1.38951)
(-0.049414 -0.0494146 1.29063)
(0.0295513 0.0295503 1.18364)
(0.0263302 0.0381418 1.33601)
(0.0179874 0.0440478 1.43116)
(0.00641164 0.04725 1.47634)
(-0.00635065 0.047253 1.47635)
(-0.01793 0.0440565 1.43118)
(-0.0262798 0.0381559 1.33604)
(-0.0295128 0.0295675 1.18368)
(0.0381421 0.0263293 1.33601)
(0.0338966 0.0338966 1.50683)
(0.0231325 0.0393619 1.60044)
(0.00822791 0.0422581 1.64149)
(-0.00817201 0.0422601 1.64149)
(-0.0230796 0.039368 1.60046)
(-0.0338501 0.0339069 1.50686)
(-0.0381062 0.0263434 1.33605)
(0.0440476 0.0179866 1.43116)
(0.0393614 0.0231326 1.60044)
(0.0268323 0.0268329 1.68906)
(0.00951244 0.0287441 1.72656)
(-0.00946068 0.0287452 1.72657)
(-0.0267832 0.0268362 1.68908)
(-0.0393184 0.0231385 1.60047)
(-0.0440148 0.0179953 1.43121)
(0.0472494 0.00641095 1.47634)
(0.0422574 0.00822806 1.64149)
(0.0287433 0.00951303 1.72656)
(0.01018 0.0101808 1.76222)
(-0.0101306 0.010181 1.76223)
(-0.0286964 0.00951387 1.72658)
(-0.0422163 0.00822976 1.64152)
(-0.0472183 0.0064138 1.47638)
(0.0472522 -0.00635136 1.47635)
(0.0422593 -0.00817193 1.64149)
(0.0287443 -0.00946017 1.72657)
(0.0101803 -0.0101299 1.76223)
(-0.0101311 -0.0101304 1.76223)
(-0.0286976 -0.00946152 1.72658)
(-0.0422184 -0.00817419 1.64152)
(-0.0472213 -0.00635436 1.47639)
(0.0440556 -0.0179307 1.43118)
(0.0393671 -0.0230796 1.60046)
(0.0268353 -0.0267828 1.68908)
(0.00951313 -0.0286958 1.72658)
(-0.00946219 -0.028697 1.72658)
(-0.0267871 -0.0267865 1.68909)
(-0.0393249 -0.0230859 1.60049)
(-0.0440235 -0.0179393 1.43122)
(0.0381548 -0.0262806 1.33604)
(0.0339059 -0.0338502 1.50686)
(0.0231377 -0.0393181 1.60047)
(0.008229 -0.0422158 1.64151)
(-0.00817486 -0.0422179 1.64152)
(-0.0230865 -0.0393243 1.60049)
(-0.033861 -0.0338605 1.50689)
(-0.0381202 -0.0262942 1.33608)
(0.0295664 -0.0295135 1.18368)
(0.0263423 -0.0381064 1.33605)
(0.0179943 -0.0440147 1.4312)
(0.00641297 -0.047218 1.47638)
(-0.00635505 -0.0472209 1.47639)
(-0.0179399 -0.0440231 1.43122)
(-0.0262946 -0.0381198 1.33608)
(-0.0295301 -0.0295297 1.18372)
(0.00611308 0.00610222 1.17719)
(0.00684121 0.00935325 1.33998)
(0.00538746 0.0121758 1.44745)
(0.00209236 0.0138275 1.50045)
(-0.00190522 0.0138378 1.50048)
(-0.00521235 0.0122049 1.44753)
(-0.0066893 0.00939892 1.3401)
(-0.00599829 0.00615472 1.17734)
(0.00936109 0.00682929 1.33998)
(0.010695 0.010687 1.5332)
(0.00832186 0.0138162 1.64781)
(0.00316566 0.0155113 1.7008)
(-0.00299083 0.015519 1.70083)
(-0.00815736 0.013839 1.64788)
(-0.0105519 0.0107239 1.53331)
(-0.00925177 0.00687576 1.34014)
(0.0121802 0.00537574 1.44745)
(0.0138205 0.0083144 1.64781)
(0.0105427 0.0105388 1.76219)
(0.00394068 0.0116227 1.81306)
(-0.00377872 0.011627 1.81308)
(-0.0103898 0.0105527 1.76225)
(-0.013688 0.00833781 1.64792)
(-0.0120805 0.00540709 1.44761)
(0.013829 0.00208124 1.50046)
(0.0155128 0.00315873 1.7008)
(0.011624 0.00393708 1.81306)
(0.00428579 0.00428459 1.86136)
(-0.00413254 0.00428632 1.86138)
(-0.0114786 0.00394247 1.81312)
(-0.0153871 0.00316815 1.70091)
(-0.0137352 0.00209467 1.50061)
(0.0138367 -0.00191549 1.50048)
(0.0155183 -0.00299727 1.70083)
(0.0116265 -0.0037821 1.81308)
(0.00428589 -0.00413373 1.86138)
(-0.00413481 -0.00413452 1.86139)
(-0.0114833 -0.00378462 1.81313)
(-0.0153947 -0.00300151 1.70093)
(-0.0137448 -0.00192071 1.50063)
(0.0122021 -0.0052215 1.44753)
(0.0138367 -0.00816326 1.64788)
(0.0105509 -0.010393 1.76225)
(0.00394103 -0.0114798 1.81312)
(-0.00378576 -0.0114832 1.81313)
(-0.0104045 -0.0104037 1.76231)
(-0.0137105 -0.00818106 1.64799)
(-0.0121078 -0.00524434 1.44768)
(0.00939478 -0.00669702 1.3401)
(0.0107205 -0.0105571 1.53331)
(0.0083352 -0.0136909 1.64792)
(0.00316617 -0.0153883 1.70091)
(-0.00300297 -0.0153947 1.70093)
(-0.00818201 -0.01371 1.64799)
(-0.010588 -0.0105875 1.53342)
(-0.00929441 -0.00673461 1.34025)
(0.00615025 -0.00600394 1.17734)
(0.00687188 -0.00925556 1.34014)
(0.00540409 -0.0120826 1.44761)
(0.00209254 -0.013736 1.50061)
(-0.00192204 -0.0137448 1.50063)
(-0.00524493 -0.0121076 1.44768)
(-0.00673456 -0.00929435 1.34025)
(-0.00604744 -0.00604794 1.17747)
(0.00426018 0.00422692 1.1584)
(0.00427135 0.00575158 1.32724)
(0.00319677 0.00698947 1.44124)
(0.0013166 0.00770924 1.49844)
(-0.000885727 0.0077308 1.49851)
(-0.00279618 0.00705082 1.44147)
(-0.00392831 0.0058438 1.3276)
(-0.00400488 0.00432875 1.15884)
(0.00578022 0.00423191 1.32724)
(0.00591304 0.00588039 1.53211)
(0.00446147 0.00726227 1.65797)
(0.00178484 0.00802809 1.71769)
(-0.00135616 0.00804588 1.71776)
(-0.00406093 0.00731424 1.6582)
(-0.00556918 0.00596054 1.53248)
(-0.00552169 0.0043275 1.32772)
(0.00701032 0.00315576 1.44123)
(0.00728627 0.00442809 1.65797)
(0.00546813 0.0054434 1.78691)
(0.00213319 0.00591696 1.84572)
(-0.00172083 0.00592805 1.84579)
(-0.00508128 0.00547755 1.78711)
(-0.00695464 0.00448279 1.65833)
(-0.00676323 0.0032243 1.44172)
(0.00772217 0.00127652 1.49843)
(0.00804383 0.00175244 1.71768)
(0.00593389 0.00210897 1.84572)
(0.00226053 0.00224345 1.9012)
(-0.00186424 0.0022485 1.90125)
(-0.00555967 0.0021242 1.84591)
(-0.00772332 0.00177742 1.71804)
(-0.0074845 0.00130937 1.49892)
(0.00773653 -0.000922877 1.4985)
(0.00805454 -0.00138644 1.71776)
(0.00593869 -0.00174379 1.84579)
(0.00226003 -0.00188088 1.90125)
(-0.00187008 -0.00188191 1.9013)
(-0.00557067 -0.0017471 1.84597)
(-0.00773986 -0.00139174 1.71811)
(-0.00750379 -0.000928545 1.49899)
(0.00705078 -0.00282871 1.44145)
(0.00731734 -0.00408795 1.65819)
(0.00548339 -0.00510215 1.78711)
(0.00213182 -0.00557526 1.84591)
(-0.00173844 -0.00558223 1.84597)
(-0.00511502 -0.00512409 1.78731)
(-0.00700296 -0.00412268 1.65854)
(-0.00681818 -0.00287041 1.44193)
(0.00583974 -0.00395494 1.32758)
(0.00595976 -0.00559166 1.53246)
(0.00448532 -0.0069722 1.65832)
(0.00178252 -0.00773669 1.71803)
(-0.00138486 -0.0077502 1.7181)
(-0.00411477 -0.00701159 1.65854)
(-0.00564362 -0.00565168 1.53282)
(-0.0056042 -0.00402479 1.32804)
(0.00432312 -0.00402388 1.15882)
(0.00432451 -0.0055379 1.3277)
(0.00322461 -0.00677591 1.44171)
(0.00131276 -0.00749435 1.49891)
(-0.000922709 -0.00751178 1.49898)
(-0.00286296 -0.0068253 1.44193)
(-0.00401676 -0.0056113 1.32804)
(-0.00409616 -0.00410333 1.15924)
(0.00135613 0.00130475 1.15486)
(0.001533 0.00189006 1.32509)
(0.00131652 0.00242544 1.44109)
(0.000738952 0.00276151 1.49976)
(-2.45083e-06 0.00279343 1.49995)
(-0.000637206 0.0025145 1.44164)
(-0.000959047 0.00201901 1.32594)
(-0.00093508 0.0014381 1.1559)
(0.00194142 0.00146709 1.32507)
(0.00226218 0.00219848 1.53335)
(0.00191278 0.00285375 1.66328)
(0.000980176 0.00323938 1.7257)
(-0.000192751 0.00326768 1.72589)
(-0.00118288 0.00293486 1.66385)
(-0.00164421 0.00231861 1.53426)
(-0.00148386 0.00160161 1.32622)
(0.00246893 0.00124393 1.44106)
(0.00290811 0.00184345 1.66327)
(0.00240909 0.00234957 1.79805)
(0.00115953 0.002606 1.86039)
(-0.000365611 0.00262508 1.86057)
(-0.00166953 0.00240637 1.7986)
(-0.00228147 0.00193037 1.66419)
(-0.00200784 0.00134578 1.44226)
(0.00279427 0.000665247 1.49972)
(0.00328149 0.000910156 1.72568)
(0.00265337 0.00109905 1.86038)
(0.00122424 0.00117518 1.91927)
(-0.00044328 0.00118468 1.91941)
(-0.00192064 0.00112661 1.86089)
(-0.00265992 0.000953205 1.72659)
(-0.00233772 0.000717961 1.50094)
(0.00281474 -7.21098e-05 1.49989)
(0.00329731 -0.000259314 1.72585)
(0.00266058 -0.000423775 1.86055)
(0.00122296 -0.00049139 1.9194)
(-0.000453607 -0.000492339 1.91954)
(-0.00193904 -0.000426319 1.86105)
(-0.00268603 -0.000262983 1.72676)
(-0.00236662 -7.47593e-05 1.50111)
(0.00252565 -0.000698725 1.44157)
(0.0029533 -0.00124242 1.66379)
(0.00243125 -0.00172233 1.79856)
(0.00115563 -0.0019653 1.86087)
(-0.000395568 -0.00197586 1.86104)
(-0.0017243 -0.00175432 1.79909)
(-0.00235644 -0.00129064 1.66469)
(-0.00208869 -0.0007524 1.44275)
(0.00202224 -0.00100975 1.32586)
(0.002328 -0.00169368 1.53419)
(0.00194622 -0.00232571 1.66413)
(0.000974046 -0.00269784 1.72654)
(-0.000239376 -0.00271786 1.72673)
(-0.00126678 -0.0023829 1.66468)
(-0.00175572 -0.00177711 1.53507)
(-0.00160153 -0.00110018 1.32697)
(0.00143674 -0.000972202 1.15581)
(0.00160411 -0.00152029 1.32613)
(0.00135354 -0.0020404 1.44219)
(0.000730593 -0.00236588 1.50088)
(-5.88429e-05 -0.00239055 1.50107)
(-0.000735437 -0.00210877 1.44272)
(-0.00108463 -0.00161777 1.32696)
(-0.00105821 -0.0010697 1.1568)
(0.000841869 0.000814381 1.15166)
(0.000938605 0.0010773 1.32282)
(0.00086722 0.00130415 1.43988)
(0.000646617 0.00145497 1.49933)
(0.000338179 0.00148849 1.49971)
(3.54034e-05 0.00139564 1.44096)
(-0.00018528 0.00120397 1.32446)
(-0.000296715 0.000933925 1.15362)
(0.00111649 0.000894008 1.32279)
(0.00125863 0.00120104 1.53282)
(0.00114686 0.00147555 1.66462)
(0.000800476 0.00165046 1.72831)
(0.000332922 0.00168274 1.7287)
(-0.000103413 0.00156579 1.66575)
(-0.000386374 0.00132827 1.53461)
(-0.000480375 0.00102545 1.32499)
(0.00134597 0.000810266 1.43981)
(0.00153455 0.00107682 1.66458)
(0.00137415 0.00130397 1.80198)
(0.000904097 0.0014323 1.866)
(0.000295066 0.00145553 1.86636)
(-0.000264 0.00137089 1.8031)
(-0.000604057 0.0011743 1.66643)
(-0.000669744 0.000915689 1.44216)
(0.00149259 0.00058293 1.49923)
(0.0017022 0.000724625 1.72824)
(0.00149363 0.000829091 1.86596)
(0.00094177 0.000876353 1.9266)
(0.000267087 0.000888715 1.9269)
(-0.000365583 0.000863664 1.86703)
(-0.000753784 0.000776036 1.73009)
(-0.000802934 0.000640926 1.50164)
(0.00151755 0.000273986 1.49957)
(0.00172224 0.000257732 1.72859)
(0.00150314 0.000220956 1.86629)
(0.000940346 0.000202161 1.92687)
(0.000253422 0.000201698 1.92717)
(-0.000389373 0.000220693 1.86736)
(-0.000786503 0.000257636 1.73043)
(-0.000837618 0.000275558 1.50196)
(0.00141453 -2.45032e-05 1.44078)
(0.00159105 -0.000172706 1.6656)
(0.00140254 -0.000332205 1.80299)
(0.00089936 -0.000425679 1.86696)
(0.000256933 -0.000437233 1.86732)
(-0.000333016 -0.000365864 1.80409)
(-0.000696451 -0.000220841 1.66742)
(-0.000765657 -7.35358e-05 1.4431)
(0.00121261 -0.000237685 1.32427)
(0.00133939 -0.000445928 1.53444)
(0.00118919 -0.000662095 1.66628)
(0.000793882 -0.00080442 1.72998)
(0.000275907 -0.000825952 1.73036)
(-0.000205555 -0.000721911 1.66739)
(-0.000519566 -0.000528691 1.53619)
(-0.000616614 -0.000319843 1.32642)
(0.000934167 -0.000338454 1.15342)
(0.00102334 -0.00052701 1.3248)
(0.000913376 -0.000714207 1.44199)
(0.000639054 -0.000840736 1.5015)
(0.000273197 -0.000865561 1.50186)
(-7.83834e-05 -0.000781425 1.44304)
(-0.0003287 -0.000618268 1.32639)
(-0.000432769 -0.000420761 1.15532)
(0.0003909 0.000458167 1.15009)
(0.00050878 0.000579056 1.32146)
(0.000572706 0.000683578 1.43889)
(0.000569381 0.000758496 1.49871)
(0.000505161 0.000783314 1.49932)
(0.000404869 0.000748723 1.44063)
(0.0002967 0.000661608 1.32409)
(0.000186016 0.000520067 1.15318)
(0.0005328 0.000575774 1.32142)
(0.000696389 0.000735357 1.53198)
(0.000764844 0.00087168 1.66447)
(0.000725057 0.000962792 1.72874)
(0.000604304 0.000988957 1.72938)
(0.000450502 0.000942401 1.66634)
(0.000306627 0.000828204 1.5349)
(0.000188752 0.00065828 1.32495)
(0.000658022 0.000629697 1.43881)
(0.000853501 0.000791716 1.66442)
(0.000911148 0.000919344 1.80282)
(0.000825059 0.000995489 1.8676)
(0.000648243 0.00101544 1.86822)
(0.000444709 0.000974805 1.80471)
(0.000270529 0.000867248 1.66747)
(0.000148698 0.000701118 1.44261)
(0.000746089 0.000613516 1.49858)
(0.000953875 0.000740349 1.72864)
(0.000992106 0.000825005 1.86755)
(0.000865565 0.000864789 1.92901)
(0.000655685 0.000875851 1.92954)
(0.000420375 0.000854504 1.86937)
(0.000222675 0.000781214 1.73173)
(0.000100112 0.000653717 1.50251)
(0.000776438 0.000536187 1.49915)
(0.000979027 0.000610454 1.72923)
(0.00100529 0.000642902 1.86812)
(0.00086604 0.000652893 1.9295)
(0.000641369 0.000652274 1.93002)
(0.000394577 0.000642806 1.86994)
(0.000187052 0.000610024 1.73231)
(6.25916e-05 0.000536041 1.50306)
(0.000740983 0.000423059 1.44042)
(0.0009242 0.000449332 1.66615)
(0.00095001 0.000436435 1.80456)
(0.000825498 0.000417768 1.86927)
(0.000609747 0.000407958 1.86989)
(0.000370912 0.000408659 1.80642)
(0.000171046 0.000411378 1.66917)
(4.61801e-05 0.000388206 1.44419)
(0.000648159 0.000302037 1.32386)
(0.000797306 0.000298555 1.53468)
(0.000823072 0.000259889 1.66729)
(0.000727417 0.00022093 1.73158)
(0.000548724 0.000203561 1.73221)
(0.000343797 0.000212962 1.66912)
(0.000166168 0.000237439 1.53755)
(4.66486e-05 0.000249527 1.32733)
(0.000499258 0.000179415 1.15296)
(0.000614129 0.000173858 1.32472)
(0.000637103 0.000135331 1.44241)
(0.000574224 9.80243e-05 1.50234)
(0.000445474 7.96613e-05 1.50294)
(0.000291051 8.74869e-05 1.44411)
(0.000151662 0.000114201 1.32729)
(5.1601e-05 0.000138026 1.15598)
(0.000250909 0.00046431 1.14857)
(0.000350997 0.000552384 1.31997)
(0.000438643 0.000614588 1.43756)
(0.000493423 0.00065554 1.49762)
(0.000501174 0.000665557 1.49848)
(0.000460262 0.000637414 1.44001)
(0.000381151 0.000570983 1.32364)
(0.000268654 0.000453674 1.15284)
(0.000350397 0.000606111 1.31997)
(0.000494915 0.000729305 1.53067)
(0.000607668 0.000819666 1.66345)
(0.00066413 0.00087524 1.72806)
(0.000656915 0.000888109 1.72898)
(0.000592721 0.000851597 1.66614)
(0.000484479 0.000762381 1.53481)
(0.000345256 0.000617025 1.32489)
(0.000443942 0.000702816 1.43757)
(0.000617191 0.00084879 1.66345)
(0.000736833 0.000949184 1.80228)
(0.000779398 0.00100424 1.86747)
(0.0007507 0.00101453 1.86838)
(0.000664041 0.000975656 1.80502)
(0.000532703 0.000878435 1.66782)
(0.000371587 0.000717301 1.44292)
(0.000516353 0.000745794 1.49763)
(0.000700846 0.000894932 1.72804)
(0.000812793 0.000987137 1.86745)
(0.000832159 0.00102685 1.92938)
(0.00078463 0.00103209 1.93018)
(0.000682077 0.00099918 1.87013)
(0.0005338 0.000907785 1.73249)
(0.000362126 0.000750422 1.50318)
(0.000552691 0.000724871 1.49848)
(0.000732761 0.000864719 1.72895)
(0.000831898 0.00094359 1.86835)
(0.000837111 0.000973182 1.93015)
(0.000772537 0.000970524 1.93093)
(0.000657234 0.000937998 1.87101)
(0.00049817 0.000855427 1.73339)
(0.000324542 0.000713352 1.50402)
(0.000542621 0.000642498 1.44002)
(0.000706388 0.000766364 1.66611)
(0.000792255 0.000832326 1.80497)
(0.000792262 0.000856055 1.87009)
(0.000719865 0.000848397 1.87099)
(0.000593755 0.000811233 1.80768)
(0.000434239 0.000738697 1.67044)
(0.000270235 0.000620018 1.44532)
(0.00048566 0.000513851 1.32367)
(0.000620927 0.000614195 1.5348)
(0.000689761 0.000665003 1.6678)
(0.000685469 0.000680225 1.73246)
(0.00061413 0.000669096 1.73337)
(0.000493457 0.000636115 1.67043)
(0.000348766 0.000580263 1.53887)
(0.000208739 0.000493337 1.32851)
(0.000373536 0.000348577 1.15289)
(0.000479809 0.000424745 1.32492)
(0.000528111 0.00045846 1.44293)
(0.000520584 0.000468081 1.50317)
(0.000458886 0.00045862 1.50401)
(0.000359779 0.000435846 1.44532)
(0.000248172 0.000402554 1.32851)
(0.000148821 0.000348971 1.15707)
(0.000186462 0.000523825 1.1471)
(0.000260583 0.000634712 1.31843)
(0.00033487 0.00070444 1.4361)
(0.00038808 0.000740198 1.49633)
(0.000403881 0.000735217 1.49742)
(0.000375841 0.000685529 1.4392)
(0.00031124 0.000593461 1.32306)
(0.000215823 0.00045102 1.15244)
(0.00027143 0.000693576 1.31855)
(0.000393269 0.000850245 1.52925)
(0.000498999 0.000954511 1.66219)
(0.000563857 0.00100736 1.72703)
(0.000574477 0.00100555 1.72822)
(0.000529275 0.000945018 1.66563)
(0.000436489 0.00082334 1.53451)
(0.000310958 0.000639067 1.32474)
(0.000358639 0.000811881 1.43635)
(0.00051224 0.00100234 1.66232)
(0.000631085 0.00112471 1.80139)
(0.000691028 0.00118267 1.86688)
(0.0006885 0.00118133 1.86807)
(0.000625955 0.00111783 1.80493)
(0.000510129 0.000983016 1.66793)
(0.000358501 0.000772034 1.44314)
(0.000428491 0.000867631 1.49672)
(0.000596917 0.00107192 1.72729)
(0.000712742 0.0011961 1.86699)
(0.000754875 0.00124549 1.92926)
(0.000737534 0.001243 1.9303)
(0.000661931 0.00118645 1.87048)
(0.000529474 0.00105307 1.73303)
(0.000364741 0.000837299 1.50379)
(0.000464323 0.000847028 1.49794)
(0.0006318 0.00105034 1.7286)
(0.000736544 0.00117145 1.86829)
(0.000764935 0.00121862 1.93038)
(0.000730081 0.00121286 1.93141)
(0.000641834 0.00115743 1.87176)
(0.000499206 0.00102943 1.73432)
(0.00033388 0.000824038 1.50499)
(0.000453638 0.000751498 1.43985)
(0.000607807 0.000940659 1.66614)
(0.00069845 0.00105565 1.80529)
(0.000717721 0.00110565 1.87068)
(0.000671741 0.00109962 1.87186)
(0.000570213 0.00103973 1.80879)
(0.000428471 0.000921669 1.6717)
(0.000277969 0.000740681 1.44656)
(0.00039469 0.000600194 1.32381)
(0.000522477 0.000758111 1.53516)
(0.000594607 0.000856049 1.66843)
(0.000604114 0.000900292 1.73339)
(0.000553325 0.000895151 1.73455)
(0.000454608 0.000844314 1.67181)
(0.000330487 0.00074983 1.54033)
(0.000210575 0.000609425 1.3299)
(0.000283065 0.000409425 1.15323)
(0.000381107 0.000528149 1.32548)
(0.000431249 0.000598567 1.44376)
(0.000433363 0.000633134 1.50428)
(0.000387964 0.000632183 1.50534)
(0.000309701 0.000599729 1.44679)
(0.000221453 0.000540518 1.33)
(0.000146709 0.000446601 1.15845)
(0.000174807 0.000529061 1.14562)
(0.000207448 0.000679768 1.31687)
(0.000238624 0.000776517 1.43456)
(0.000254843 0.000819735 1.49492)
(0.000244735 0.000802064 1.49619)
(0.000203901 0.000723024 1.43818)
(0.000140575 0.000590857 1.32224)
(6.66365e-05 0.000410623 1.1518)
(0.000245408 0.000694344 1.31716)
(0.000322888 0.000905776 1.52784)
(0.000386184 0.00104821 1.66089)
(0.000417357 0.00111428 1.72594)
(0.000406009 0.00110028 1.72735)
(0.000351348 0.00100512 1.66496)
(0.000262924 0.000832589 1.53401)
(0.00015937 0.000593431 1.32436)
(0.00031765 0.000805812 1.43522)
(0.000429644 0.00106183 1.66125)
(0.00051064 0.00123007 1.80053)
(0.000542296 0.00130611 1.86628)
(0.000522242 0.00129553 1.8677)
(0.000453553 0.00119762 1.80475)
(0.00034546 0.0010075 1.66789)
(0.000219029 0.000731631 1.44314)
(0.000371438 0.000849904 1.49595)
(0.000504021 0.00112495 1.72666)
(0.000588375 0.00129934 1.86662)
(0.000608583 0.00137015 1.92918)
(0.000578582 0.00136216 1.93044)
(0.000500029 0.00127554 1.8708)
(0.000378933 0.00108812 1.73347)
(0.000242688 0.000804527 1.50423)
(0.000389684 0.000812546 1.49758)
(0.000528078 0.00108574 1.72844)
(0.000608362 0.00125872 1.86839)
(0.000620239 0.00133094 1.93073)
(0.000577454 0.00132451 1.93197)
(0.000490881 0.00124361 1.87255)
(0.000364798 0.00106649 1.73522)
(0.000232138 0.000797161 1.50584)
(0.000360313 0.000698659 1.43988)
(0.000491177 0.000950324 1.66641)
(0.000564253 0.00111545 1.80582)
(0.0005724 0.00119386 1.87147)
(0.000523831 0.00119173 1.87287)
(0.000430715 0.0011118 1.80999)
(0.000311819 0.000952533 1.67296)
(0.000197746 0.000716813 1.44772)
(0.000283411 0.000533955 1.32414)
(0.000392401 0.000741439 1.53575)
(0.000453524 0.000883278 1.66931)
(0.000458724 0.00095558 1.73453)
(0.000412397 0.000958599 1.73591)
(0.000329648 0.000895362 1.6733)
(0.000233984 0.000770069 1.54182)
(0.000152045 0.000587558 1.33122)
(0.000164075 0.00034517 1.15372)
(0.00024372 0.0004956 1.32623)
(0.000288397 0.000599641 1.44479)
(0.000293601 0.000658227 1.50556)
(0.000260871 0.000667678 1.50681)
(0.000205637 0.000630127 1.44833)
(0.000148847 0.000551496 1.33148)
(0.000109556 0.000429367 1.15975)
(0.000154732 0.000381076 1.14444)
(0.000138738 0.000550557 1.31557)
(0.000114501 0.000667014 1.43324)
(8.10168e-05 0.000716162 1.49366)
(3.54067e-05 0.000688217 1.49505)
(-2.1897e-05 0.000586134 1.43718)
(-8.04908e-05 0.000425359 1.32139)
(-0.000120867 0.000231631 1.15108)
(0.000199963 0.000491134 1.31605)
(0.000219437 0.000733035 1.52668)
(0.000225533 0.00090578 1.65979)
(0.00021115 0.00098516 1.72496)
(0.000171372 0.000962593 1.72652)
(0.00010716 0.000839741 1.66426)
(2.99224e-05 0.000630004 1.53342)
(-3.76366e-05 0.000362726 1.32384)
(0.000237811 0.000563748 1.43435)
(0.00029165 0.000860117 1.66043)
(0.000321459 0.00106829 1.79985)
(0.000317487 0.00116512 1.86579)
(0.000279056 0.00114996 1.86737)
(0.000210222 0.00102373 1.80453)
(0.000121611 0.000791495 1.66772)
(3.79857e-05 0.000479348 1.44298)
(0.000253242 0.000582885 1.49543)
(0.000332809 0.000905158 1.72627)
(0.000376846 0.00112671 1.86643)
(0.00037472 0.00122473 1.92923)
(0.000337527 0.00121663 1.93064)
(0.000268501 0.00110443 1.87108)
(0.00017721 0.000874293 1.73377)
(9.00459e-05 0.000550926 1.50447)
(0.000233511 0.000535924 1.49744)
(0.000326724 0.000857229 1.72848)
(0.000379272 0.00108019 1.86867)
(0.000380864 0.00118352 1.9312)
(0.000343075 0.00118244 1.93259)
(0.000277121 0.00108122 1.87329)
(0.000191908 0.000865956 1.73597)
(0.000114487 0.000558653 1.50645)
(0.000172133 0.000429929 1.44007)
(0.000264788 0.000723883 1.66683)
(0.000321731 0.000937195 1.80649)
(0.000330823 0.0010488 1.87234)
(0.000299244 0.00105669 1.87391)
(0.000239942 0.000963632 1.81111)
(0.000171535 0.000774234 1.67404)
(0.000115878 0.000507124 1.44862)
(7.44488e-05 0.000292097 1.32457)
(0.000151073 0.000532821 1.53644)
(0.000205943 0.00071725 1.67026)
(0.000222962 0.00082209 1.7357)
(0.000205184 0.000839267 1.73722)
(0.000166869 0.000770228 1.67465)
(0.000127127 0.000623483 1.54307)
(0.000102027 0.000417466 1.33225)
(-3.90561e-05 0.000158062 1.15425)
(8.01314e-06 0.000327287 1.32701)
(5.20373e-05 0.000465068 1.44582)
(7.70699e-05 0.000551627 1.5068)
(8.1651e-05 0.000576516 1.50815)
(7.63906e-05 0.000538912 1.44967)
(7.42595e-05 0.000446773 1.3327)
(8.29194e-05 0.000309579 1.16076)
(0.000100249 8.97768e-05 1.14395)
(3.57022e-05 0.000233023 1.31495)
(-4.55727e-05 0.000341171 1.43253)
(-0.000129755 0.000383718 1.49291)
(-0.000208691 0.000349057 1.49431)
(-0.000275291 0.000243339 1.43649)
(-0.000317715 8.86479e-05 1.32077)
(-0.000310094 -6.85197e-05 1.15053)
(0.000111049 9.45616e-05 1.31558)
(6.501e-05 0.000306349 1.5261)
(7.34449e-06 0.000471598 1.65917)
(-5.49441e-05 0.000548377 1.72434)
(-0.000119763 0.000521324 1.72593)
(-0.000183899 0.000394139 1.66372)
(-0.000235267 0.000190767 1.53291)
(-0.000250549 -3.88353e-05 1.32337)
(0.000101014 9.33046e-05 1.434)
(8.26297e-05 0.000359678 1.66003)
(5.30793e-05 0.00056684 1.79947)
(1.39237e-05 0.000669263 1.86548)
(-3.50436e-05 0.000654484 1.86712)
(-9.03736e-05 0.000524087 1.80429)
(-0.000140882 0.000296339 1.66746)
(-0.000164222 2.04613e-05 1.44269)
(6.42113e-05 7.1711e-05 1.49528)
(7.16443e-05 0.000369151 1.72614)
(6.82515e-05 0.000599125 1.86639)
(4.93399e-05 0.000713228 1.92929)
(1.79749e-05 0.000710759 1.93076)
(-2.2818e-05 0.000594163 1.8712)
(-6.30311e-05 0.000366221 1.73384)
(-8.33264e-05 7.45047e-05 1.50443)
(-2.872e-06 2.29599e-05 1.49751)
(2.28013e-05 0.00032397 1.72865)
(4.18888e-05 0.000561223 1.86895)
(4.26851e-05 0.000685987 1.93158)
(2.82951e-05 0.000696371 1.93302)
(5.95004e-06 0.000594729 1.87374)
(-1.46023e-05 0.00038284 1.73633)
(-1.9864e-05 0.000104967 1.50665)
(-9.59362e-05 -4.52953e-05 1.44034)
(-6.55021e-05 0.000230145 1.66724)
(-3.05339e-05 0.000458954 1.80705)
(-9.49623e-06 0.000593455 1.87301)
(-2.81128e-06 0.000617114 1.87463)
(-2.27949e-06 0.0005311 1.81182)
(3.98794e-06 0.000348762 1.67463)
(2.10864e-05 0.000109081 1.44899)
(-0.000201855 -0.000110586 1.32496)
(-0.000180464 0.000112351 1.53699)
(-0.000139276 0.000312431 1.67097)
(-0.000100634 0.000441102 1.73652)
(-6.95611e-05 0.000477446 1.73809)
(-3.92472e-05 0.000419718 1.67547)
(-2.21453e-06 0.000281431 1.54374)
(4.00657e-05 9.75031e-05 1.33269)
(-0.000284811 -0.000134641 1.15465)
(-0.000290188 1.51806e-05 1.32755)
(-0.00025388 0.000166135 1.44651)
(-0.000203996 0.000273169 1.50759)
(-0.000147947 0.000316569 1.50897)
(-8.61662e-05 0.000290939 1.45042)
(-2.01528e-05 0.000205667 1.3333)
(4.17677e-05 8.5032e-05 1.16117)
(4.77453e-06 -0.000262828 1.1444)
(-9.66845e-05 -0.000193907 1.31532)
(-0.000221237 -0.000128993 1.43276)
(-0.000342161 -0.000108226 1.49301)
(-0.000440166 -0.000142588 1.4943)
(-0.000500839 -0.000223657 1.4364)
(-0.00051202 -0.000327294 1.32062)
(-0.0004469 -0.000395288 1.15036)
(-2.1691e-05 -0.000383377 1.31599)
(-0.000128202 -0.000271967 1.52638)
(-0.00024306 -0.000165329 1.65929)
(-0.00034569 -0.00011494 1.72434)
(-0.000425565 -0.000140708 1.72583)
(-0.000476002 -0.000237511 1.66354)
(-0.000485428 -0.000374713 1.53268)
(-0.000434067 -0.000492568 1.32311)
(-7.9226e-05 -0.00047691 1.43436)
(-0.000172828 -0.000327438 1.66026)
(-0.000262249 -0.000182819 1.79957)
(-0.000333842 -0.00010344 1.86548)
(-0.000386098 -0.000113594 1.86703)
(-0.000415926 -0.000211837 1.80413)
(-0.000413263 -0.000368332 1.66722)
(-0.000360714 -0.000519379 1.44238)
(-0.000163759 -0.000547873 1.49561)
(-0.000239143 -0.000371069 1.72638)
(-0.000296326 -0.000198488 1.86653)
(-0.000332045 -9.69977e-05 1.92936)
(-0.000352273 -9.06667e-05 1.93077)
(-0.000354621 -0.000178047 1.87111)
(-0.000330167 -0.000336681 1.73363)
(-0.000269546 -0.00050287 1.5041)
(-0.00026766 -0.000592134 1.49782)
(-0.000326443 -0.000408287 1.72891)
(-0.000352053 -0.000223051 1.86916)
(-0.000354741 -0.000106209 1.93173)
(-0.000341595 -8.23067e-05 1.93312)
(-0.000312109 -0.000152834 1.87373)
(-0.00025747 -0.000297422 1.73616)
(-0.000180066 -0.000455985 1.50632)
(-0.000374448 -0.000601614 1.44061)
(-0.000426305 -0.00043476 1.66751)
(-0.000428493 -0.000254024 1.80729)
(-0.000401826 -0.000127971 1.87322)
(-0.000355466 -8.83469e-05 1.87477)
(-0.00028984 -0.000137489 1.81183)
(-0.000203428 -0.000254999 1.67446)
(-0.000107597 -0.000387653 1.44864)
(-0.000463603 -0.00056457 1.32515)
(-0.000516745 -0.000433118 1.5372)
(-0.000506392 -0.000274129 1.67117)
(-0.000456906 -0.000151839 1.73669)
(-0.000380526 -9.88455e-05 1.73818)
(-0.000282032 -0.000121826 1.67542)