/*--------------------------------*- C++ -*----------------------------------*\
| =========                 |                                                 |
| \\      /  F ield         | OpenFOAM: The Open Source CFD Toolbox           |
|  \\    /   O peration     | Version:  2406                                  |
|   \\  /    A nd           | Website:  www.openfoam.com                      |
|    \\/     M anipulation  |                                                 |
\*---------------------------------------------------------------------------*/
FoamFile
{
    version     2.0;
    format      ascii;
    arch        "LSB;label=32;scalar=64";
    class       surfaceScalarField;
    location    "9.6";
    object      phi;
}
// * * * * * * * * * * * * * * * * * * * * * * * * * * * * * * * * * * * * * //

dimensions      [0 3 -1 0 0 0 0];

oriented        oriented;

internalField   nonuniform List<scalar> 
46880
(
5.70227e-05
5.70227e-05
9.25627e-05
-6.58089e-05
-6.58089e-05
4.14847e-05
5.85524e-05
0.000107332
-6.81955e-05
2.17749e-05
5.89973e-05
0.000116854
-6.9121e-05
2.16992e-13
5.91027e-05
0.000121561
-6.94051e-05
-2.17749e-05
5.91027e-05
0.000121561
-6.94051e-05
-4.14847e-05
5.89973e-05
0.000116854
-6.9121e-05
-5.70227e-05
5.85524e-05
0.000107332
-6.81955e-05
5.70227e-05
9.25627e-05
-6.58089e-05
-6.58089e-05
5.85524e-05
4.14847e-05
0.000107332
-6.81955e-05
4.20291e-05
4.20291e-05
0.000121733
2.18254e-05
4.20503e-05
0.000130284
2.332e-13
4.1986e-05
0.000134326
-2.18254e-05
4.1986e-05
0.000134326
-4.20291e-05
4.20503e-05
0.000130284
-5.85524e-05
4.20291e-05
0.000121733
4.14847e-05
0.000107332
-6.81955e-05
5.89973e-05
2.17749e-05
0.000116854
-6.9121e-05
4.20503e-05
2.18254e-05
0.000130284
2.17158e-05
2.17158e-05
0.000137965
1.98715e-13
2.16254e-05
0.00014148
-2.17158e-05
2.16254e-05
0.00014148
-4.20503e-05
2.17158e-05
0.000137965
-5.89973e-05
2.18254e-05
0.000130284
2.17749e-05
0.000116854
-6.9121e-05
5.91027e-05
9.73311e-13
0.000121561
-6.94051e-05
4.1986e-05
1.17336e-12
0.000134326
2.16254e-05
1.14827e-12
0.00014148
1.68502e-13
1.12257e-12
0.000144691
-2.16254e-05
1.08685e-12
0.000144691
-4.1986e-05
1.04794e-12
0.00014148
-5.91027e-05
1.04649e-12
0.000134326
8.7951e-13
0.000121561
-6.94051e-05
5.91027e-05
-2.17749e-05
0.000121561
-6.94051e-05
4.1986e-05
-2.18254e-05
0.000134326
2.16254e-05
-2.17158e-05
0.00014148
1.32955e-13
-2.16254e-05
0.000144691
-2.16254e-05
-2.16254e-05
0.000144691
-4.1986e-05
-2.17158e-05
0.00014148
-5.91027e-05
-2.18254e-05
0.000134326
-2.17749e-05
0.000121561
-6.94051e-05
5.89973e-05
-4.14846e-05
0.000116854
-6.9121e-05
4.20503e-05
-4.20291e-05
0.000130284
2.17158e-05
-4.20503e-05
0.000137965
8.69719e-14
-4.1986e-05
0.00014148
-2.17158e-05
-4.1986e-05
0.00014148
-4.20503e-05
-4.20503e-05
0.000137965
-5.89973e-05
-4.20291e-05
0.000130284
-4.14846e-05
0.000116854
-6.9121e-05
5.85524e-05
-5.70227e-05
0.000107332
-6.81955e-05
4.20291e-05
-5.85524e-05
0.000121733
2.18254e-05
-5.89973e-05
0.000130284
4.08285e-14
-5.91027e-05
0.000134326
-2.18254e-05
-5.91027e-05
0.000134326
-4.20291e-05
-5.89973e-05
0.000130284
-5.85524e-05
-5.85524e-05
0.000121733
-5.70227e-05
0.000107332
-6.81955e-05
5.70227e-05
9.25627e-05
-6.58089e-05
-6.58089e-05
4.14847e-05
0.000107332
-6.81955e-05
2.17749e-05
0.000116854
-6.9121e-05
-1.36704e-15
0.000121561
-6.94051e-05
-2.17749e-05
0.000121561
-6.94051e-05
-4.14847e-05
0.000116854
-6.9121e-05
-5.70227e-05
0.000107332
-6.81955e-05
9.25627e-05
-6.58089e-05
-6.58089e-05
2.12981e-05
2.12981e-05
9.11553e-05
-2.05944e-05
-2.05944e-05
1.7387e-05
2.43165e-05
0.000110076
-2.31488e-05
9.64834e-06
2.60548e-05
0.000123205
-2.46671e-05
1.35206e-13
2.68715e-05
0.000129837
-2.54995e-05
-9.64834e-06
2.68715e-05
0.000129837
-2.54995e-05
-1.7387e-05
2.60548e-05
0.000123205
-2.46671e-05
-2.12981e-05
2.43165e-05
0.000110076
-2.31488e-05
2.12981e-05
9.11553e-05
-2.05944e-05
-2.05944e-05
2.43165e-05
1.7387e-05
0.000110076
-2.31488e-05
1.97648e-05
1.97648e-05
0.000130836
1.0936e-05
2.11179e-05
0.00014405
1.28767e-13
2.17195e-05
0.000150414
-1.0936e-05
2.17195e-05
0.000150414
-1.97648e-05
2.11179e-05
0.00014405
-2.43165e-05
1.97648e-05
0.000130836
1.7387e-05
0.000110076
-2.31488e-05
2.60548e-05
9.64834e-06
0.000123205
-2.46671e-05
2.11179e-05
1.0936e-05
0.00014405
1.1672e-05
1.1672e-05
0.000156857
9.24644e-14
1.19938e-05
0.000162878
-1.1672e-05
1.19938e-05
0.000162878
-2.11179e-05
1.1672e-05
0.000156857
-2.60548e-05
1.0936e-05
0.00014405
9.64834e-06
0.000123205
-2.46671e-05
2.68715e-05
8.35695e-13
0.000129837
-2.54995e-05
2.17195e-05
9.479e-13
0.000150414
1.19938e-05
9.04537e-13
0.000162878
6.47587e-14
8.82692e-13
0.000168678
-1.19938e-05
8.53719e-13
0.000168678
-2.17195e-05
8.26486e-13
0.000162878
-2.68715e-05
8.5445e-13
0.000150414
7.73937e-13
0.000129837
-2.54995e-05
2.68715e-05
-9.64834e-06
0.000129837
-2.54995e-05
2.17195e-05
-1.0936e-05
0.000150414
1.19938e-05
-1.1672e-05
0.000162878
3.56637e-14
-1.19938e-05
0.000168678
-1.19938e-05
-1.19938e-05
0.000168678
-2.17195e-05
-1.1672e-05
0.000162878
-2.68715e-05
-1.0936e-05
0.000150414
-9.64834e-06
0.000129837
-2.54995e-05
2.60548e-05
-1.7387e-05
0.000123205
-2.46671e-05
2.11179e-05
-1.97648e-05
0.00014405
1.1672e-05
-2.11179e-05
0.000156857
-5.53238e-16
-2.17195e-05
0.000162878
-1.1672e-05
-2.17195e-05
0.000162878
-2.11179e-05
-2.11179e-05
0.000156857
-2.60548e-05
-1.97648e-05
0.00014405
-1.7387e-05
0.000123205
-2.46671e-05
2.43165e-05
-2.12981e-05
0.000110076
-2.31488e-05
1.97648e-05
-2.43165e-05
0.000130836
1.0936e-05
-2.60548e-05
0.00014405
-4.11973e-14
-2.68715e-05
0.000150414
-1.0936e-05
-2.68715e-05
0.000150414
-1.97648e-05
-2.60548e-05
0.00014405
-2.43165e-05
-2.43165e-05
0.000130836
-2.12981e-05
0.000110076
-2.31488e-05
2.12981e-05
9.11553e-05
-2.05944e-05
-2.05944e-05
1.7387e-05
0.000110076
-2.31488e-05
9.64834e-06
0.000123205
-2.46671e-05
-7.61143e-14
0.000129837
-2.54995e-05
-9.64834e-06
0.000129837
-2.54995e-05
-1.7387e-05
0.000123205
-2.46671e-05
-2.12981e-05
0.000110076
-2.31488e-05
9.11553e-05
-2.05944e-05
-2.05944e-05
1.18127e-05
1.18127e-05
8.91259e-05
-1.0798e-05
-1.0798e-05
9.90265e-06
1.43956e-05
0.000110627
-1.30364e-05
5.62154e-06
1.59718e-05
0.000125963
-1.44489e-05
2.49766e-13
1.67467e-05
0.000133897
-1.51853e-05
-5.62154e-06
1.67467e-05
0.000133897
-1.51853e-05
-9.90265e-06
1.59718e-05
0.000125963
-1.44489e-05
-1.18127e-05
1.43956e-05
0.000110627
-1.30364e-05
1.18127e-05
8.91259e-05
-1.0798e-05
-1.0798e-05
1.43956e-05
9.90265e-06
0.000110627
-1.30364e-05
1.20477e-05
1.20477e-05
0.000135532
6.80902e-06
1.33212e-05
0.000151939
2.0756e-13
1.39201e-05
0.00016005
-6.80902e-06
1.39201e-05
0.00016005
-1.20477e-05
1.33212e-05
0.000151939
-1.43956e-05
1.20477e-05
0.000135532
9.90265e-06
0.000110627
-1.30364e-05
1.59718e-05
5.62155e-06
0.000125963
-1.44489e-05
1.33212e-05
6.80902e-06
0.000151939
7.49972e-06
7.49972e-06
0.0001685
1.30824e-13
7.81056e-06
0.000176487
-7.49972e-06
7.81056e-06
0.000176487
-1.33212e-05
7.49972e-06
0.0001685
-1.59718e-05
6.80902e-06
0.000151939
5.62155e-06
0.000125963
-1.44489e-05
1.67467e-05
1.00237e-12
0.000133897
-1.51853e-05
1.39201e-05
1.06525e-12
0.00016005
7.81056e-06
9.3262e-13
0.000176487
7.77698e-14
8.49201e-13
0.000184299
-7.81056e-06
8.0524e-13
0.000184299
-1.39201e-05
8.05297e-13
0.000176487
-1.67467e-05
8.78867e-13
0.00016005
8.1724e-13
0.000133897
-1.51853e-05
1.67467e-05
-5.62154e-06
0.000133897
-1.51853e-05
1.39201e-05
-6.80902e-06
0.00016005
7.81056e-06
-7.49972e-06
0.000176487
3.69042e-14
-7.81055e-06
0.000184299
-7.81056e-06
-7.81055e-06
0.000184299
-1.39201e-05
-7.49972e-06
0.000176487
-1.67467e-05
-6.80902e-06
0.00016005
-5.62154e-06
0.000133897
-1.51853e-05
1.59718e-05
-9.90265e-06
0.000125963
-1.44489e-05
1.33212e-05
-1.20476e-05
0.000151939
7.49972e-06
-1.33212e-05
0.0001685
-1.00578e-14
-1.39201e-05
0.000176487
-7.49972e-06
-1.39201e-05
0.000176487
-1.33212e-05
-1.33212e-05
0.0001685
-1.59718e-05
-1.20476e-05
0.000151939
-9.90265e-06
0.000125963
-1.44489e-05
1.43956e-05
-1.18127e-05
0.000110627
-1.30364e-05
1.20477e-05
-1.43956e-05
0.000135532
6.80902e-06
-1.59718e-05
0.000151939
-5.60785e-14
-1.67467e-05
0.00016005
-6.80902e-06
-1.67467e-05
0.00016005
-1.20477e-05
-1.59718e-05
0.000151939
-1.43956e-05
-1.43956e-05
0.000135532
-1.18127e-05
0.000110627
-1.30364e-05
1.18127e-05
8.91259e-05
-1.0798e-05
-1.0798e-05
9.90265e-06
0.000110627
-1.30364e-05
5.62154e-06
0.000125963
-1.44489e-05
-9.15478e-14
0.000133897
-1.51853e-05
-5.62154e-06
0.000133897
-1.51853e-05
-9.90265e-06
0.000125963
-1.44489e-05
-1.18127e-05
0.000110627
-1.30364e-05
8.91259e-05
-1.0798e-05
-1.0798e-05
2.98521e-06
2.98521e-06
8.73785e-05
-2.11152e-06
-2.11152e-06
2.93654e-06
4.20871e-06
0.000109321
-2.85467e-06
1.80601e-06
5.10333e-06
0.000125443
-3.45295e-06
4.55414e-14
5.56796e-06
0.000133927
-3.79171e-06
-1.80601e-06
5.56796e-06
0.000133927
-3.79171e-06
-2.93654e-06
5.10333e-06
0.000125443
-3.45295e-06
-2.98521e-06
4.20871e-06
0.000109321
-2.85467e-06
2.98521e-06
8.73785e-05
-2.11152e-06
-2.11152e-06
4.20871e-06
2.93654e-06
0.000109321
-2.85467e-06
4.13753e-06
4.13753e-06
0.000135674
2.52404e-06
4.95623e-06
0.000153699
3.03829e-14
5.34154e-06
0.0001628
-2.52404e-06
5.34154e-06
0.0001628
-4.13753e-06
4.95623e-06
0.000153699
-4.20871e-06
4.13753e-06
0.000135674
2.93654e-06
0.000109321
-2.85467e-06
5.10333e-06
1.80601e-06
0.000125443
-3.45295e-06
4.95623e-06
2.52404e-06
0.000153699
2.98743e-06
2.98743e-06
0.000172437
-4.60091e-15
3.17437e-06
0.000181642
-2.98743e-06
3.17437e-06
0.000181642
-4.95623e-06
2.98743e-06
0.000172437
-5.10333e-06
2.52404e-06
0.000153699
1.80601e-06
0.000125443
-3.45295e-06
5.56796e-06
9.26855e-13
0.000133927
-3.79171e-06
5.34154e-06
1.03456e-12
0.0001628
3.17437e-06
9.17283e-13
0.000181642
-3.72695e-14
8.16215e-13
0.000190648
-3.17437e-06
7.92076e-13
0.000190648
-5.34154e-06
8.48321e-13
0.000181642
-5.56796e-06
9.55376e-13
0.0001628
8.93097e-13
0.000133927
-3.79171e-06
5.56796e-06
-1.80601e-06
0.000133927
-3.79171e-06
5.34154e-06
-2.52404e-06
0.0001628
3.17437e-06
-2.98743e-06
0.000181642
-6.23618e-14
-3.17437e-06
0.000190648
-3.17437e-06
-3.17437e-06
0.000190648
-5.34154e-06
-2.98743e-06
0.000181642
-5.56796e-06
-2.52404e-06
0.0001628
-1.80601e-06
0.000133927
-3.79171e-06
5.10333e-06
-2.93654e-06
0.000125443
-3.45295e-06
4.95623e-06
-4.13753e-06
0.000153699
2.98743e-06
-4.95623e-06
0.000172437
-8.95648e-14
-5.34154e-06
0.000181642
-2.98743e-06
-5.34154e-06
0.000181642
-4.95623e-06
-4.95623e-06
0.000172437
-5.10333e-06
-4.13753e-06
0.000153699
-2.93654e-06
0.000125443
-3.45295e-06
4.20871e-06
-2.98521e-06
0.000109321
-2.85467e-06
4.13753e-06
-4.20871e-06
0.000135674
2.52404e-06
-5.10333e-06
0.000153699
-1.27636e-13
-5.56796e-06
0.0001628
-2.52404e-06
-5.56796e-06
0.0001628
-4.13753e-06
-5.10333e-06
0.000153699
-4.20871e-06
-4.20871e-06
0.000135674
-2.98521e-06
0.000109321
-2.85467e-06
2.98521e-06
8.73785e-05
-2.11152e-06
-2.11152e-06
2.93654e-06
0.000109321
-2.85467e-06
1.80601e-06
0.000125443
-3.45295e-06
-1.5646e-13
0.000133927
-3.79171e-06
-1.80601e-06
0.000133927
-3.79171e-06
-2.93654e-06
0.000125443
-3.45295e-06
-2.98521e-06
0.000109321
-2.85467e-06
8.73785e-05
-2.11152e-06
-2.11152e-06
1.75855e-06
1.75855e-06
8.68359e-05
-1.48727e-06
-1.48727e-06
1.58507e-06
2.31764e-06
0.000109058
-1.88066e-06
9.44341e-07
2.7317e-06
0.000125519
-2.1672e-06
3.58959e-13
2.94525e-06
0.000134245
-2.31887e-06
-9.4434e-07
2.94525e-06
0.000134245
-2.31887e-06
-1.58507e-06
2.7317e-06
0.000125519
-2.1672e-06
-1.75855e-06
2.31764e-06
0.000109058
-1.88066e-06
1.75855e-06
8.68359e-05
-1.48727e-06
-1.48727e-06
2.31763e-06
1.58508e-06
0.000109058
-1.88066e-06
2.13338e-06
2.13339e-06
0.000136043
1.27625e-06
2.52942e-06
0.000154759
3.13972e-13
2.71285e-06
0.000164309
-1.27625e-06
2.71285e-06
0.000164309
-2.13338e-06
2.52941e-06
0.000154759
-2.31764e-06
2.13339e-06
0.000136043
1.58507e-06
0.000109058
-1.88066e-06
2.7317e-06
9.44342e-07
0.000125519
-2.1672e-06
2.52941e-06
1.27625e-06
0.000154759
1.50567e-06
1.50567e-06
0.000174485
2.09402e-13
1.58998e-06
0.00018427
-1.50567e-06
1.58998e-06
0.00018427
-2.52941e-06
1.50567e-06
0.000174485
-2.7317e-06
1.27625e-06
0.000154759
9.44342e-07
0.000125519
-2.1672e-06
2.94525e-06
1.25751e-12
0.000134245
-2.31887e-06
2.71285e-06
1.36708e-12
0.000164309
1.58997e-06
1.1826e-12
0.00018427
1.29745e-13
1.00959e-12
0.000193828
-1.58997e-06
9.61921e-13
0.000193828
-2.71285e-06
1.03621e-12
0.00018427
-2.94525e-06
1.14841e-12
0.000164309
1.04199e-12
0.000134245
-2.31887e-06
2.94525e-06
-9.44339e-07
0.000134245
-2.31887e-06
2.71285e-06
-1.27624e-06
0.000164309
1.58997e-06
-1.50567e-06
0.00018427
8.22718e-14
-1.58997e-06
0.000193828
-1.58997e-06
-1.58997e-06
0.000193828
-2.71285e-06
-1.50567e-06
0.00018427
-2.94525e-06
-1.27624e-06
0.000164309
-9.4434e-07
0.000134245
-2.31887e-06
2.7317e-06
-1.58507e-06
0.000125519
-2.1672e-06
2.52941e-06
-2.13338e-06
0.000154759
1.50567e-06
-2.52941e-06
0.000174485
4.80168e-14
-2.71285e-06
0.00018427
-1.50567e-06
-2.71285e-06
0.00018427
-2.52941e-06
-2.52941e-06
0.000174485
-2.7317e-06
-2.13338e-06
0.000154759
-1.58507e-06
0.000125519
-2.1672e-06
2.31763e-06
-1.75855e-06
0.000109058
-1.88066e-06
2.13338e-06
-2.31763e-06
0.000136043
1.27625e-06
-2.73169e-06
0.000154759
1.60989e-14
-2.94525e-06
0.000164309
-1.27625e-06
-2.94525e-06
0.000164309
-2.13338e-06
-2.73169e-06
0.000154759
-2.31763e-06
-2.31763e-06
0.000136043
-1.75855e-06
0.000109058
-1.88066e-06
1.75855e-06
8.68359e-05
-1.48727e-06
-1.48727e-06
1.58507e-06
0.000109058
-1.88066e-06
9.44341e-07
0.000125519
-2.1672e-06
-2.32564e-14
0.000134245
-2.31887e-06
-9.44341e-07
0.000134245
-2.31887e-06
-1.58507e-06
0.000125519
-2.1672e-06
-1.75855e-06
0.000109058
-1.88066e-06
8.68359e-05
-1.48727e-06
-1.48727e-06
6.09094e-07
6.09094e-07
8.65409e-05
-4.61558e-07
-4.61558e-07
5.88221e-07
8.41815e-07
0.000108839
-6.01562e-07
3.62056e-07
1.02624e-06
0.000125434
-7.14691e-07
-1.83984e-14
1.12581e-06
0.00013426
-7.78511e-07
-3.62056e-07
1.12581e-06
0.00013426
-7.78511e-07
-5.88221e-07
1.02624e-06
0.000125434
-7.14691e-07
-6.09094e-07
8.41815e-07
0.000108839
-6.01562e-07
6.09094e-07
8.65409e-05
-4.61559e-07
-4.61558e-07
8.41814e-07
5.88222e-07
0.000108839
-6.01562e-07
8.30744e-07
8.30745e-07
0.000136065
5.13706e-07
1.01887e-06
0.000155083
-2.45934e-14
1.11174e-06
0.000164837
-5.13707e-07
1.11174e-06
0.000164837
-8.30744e-07
1.01887e-06
0.000155083
-8.41814e-07
8.30745e-07
0.000136065
5.88222e-07
0.000108839
-6.01563e-07
1.02624e-06
3.62057e-07
0.000125434
-7.1469e-07
1.01887e-06
5.13708e-07
0.000155083
6.28552e-07
6.28553e-07
0.000175266
-5.41968e-14
6.77036e-07
0.000185334
-6.28552e-07
6.77036e-07
0.000185334
-1.01887e-06
6.28553e-07
0.000175266
-1.02624e-06
5.13708e-07
0.000155083
3.62058e-07
0.000125434
-7.14691e-07
1.12581e-06
1.25367e-12
0.00013426
-7.7851e-07
1.11173e-06
1.43358e-12
0.000164837
6.77035e-07
1.29913e-12
0.000185334
-7.21975e-14
1.16182e-12
0.000195182
-6.77035e-07
1.14831e-12
0.000195182
-1.11173e-06
1.26971e-12
0.000185334
-1.12581e-06
1.42166e-12
0.000164837
1.30302e-12
0.00013426
-7.78511e-07
1.12581e-06
-3.62055e-07
0.00013426
-7.7851e-07
1.11173e-06
-5.13705e-07
0.000164837
6.77035e-07
-6.28551e-07
0.000185334
-8.59172e-14
-6.77034e-07
0.000195182
-6.77035e-07
-6.77034e-07
0.000195182
-1.11173e-06
-6.28551e-07
0.000185334
-1.12581e-06
-5.13705e-07
0.000164837
-3.62055e-07
0.00013426
-7.78511e-07
1.02624e-06
-5.8822e-07
0.000125434
-7.1469e-07
1.01887e-06
-8.30743e-07
0.000155083
6.28552e-07
-1.01887e-06
0.000175266
-9.87634e-14
-1.11173e-06
0.000185334
-6.28552e-07
-1.11173e-06
0.000185334
-1.01887e-06
-1.01887e-06
0.000175266
-1.02624e-06
-8.30743e-07
0.000155083
-5.8822e-07
0.000125434
-7.14691e-07
8.41814e-07
-6.09093e-07
0.000108839
-6.01562e-07
8.30744e-07
-8.41813e-07
0.000136065
5.13706e-07
-1.02624e-06
0.000155083
-1.18749e-13
-1.12581e-06
0.000164837
-5.13707e-07
-1.12581e-06
0.000164837
-8.30744e-07
-1.02624e-06
0.000155083
-8.41814e-07
-8.41813e-07
0.000136065
-6.09093e-07
0.000108839
-6.01563e-07
6.09094e-07
8.65409e-05
-4.61558e-07
-4.61557e-07
5.88221e-07
0.000108839
-6.01561e-07
3.62056e-07
0.000125434
-7.1469e-07
-1.38088e-13
0.00013426
-7.7851e-07
-3.62056e-07
0.00013426
-7.7851e-07
-5.88221e-07
0.000125434
-7.1469e-07
-6.09094e-07
0.000108839
-6.01562e-07
8.65409e-05
-4.61558e-07
-4.61558e-07
3.37042e-07
3.37043e-07
8.64326e-05
-2.8288e-07
-2.8288e-07
3.05727e-07
4.42555e-07
0.000108783
-3.55841e-07
1.8277e-07
5.24016e-07
0.000125443
-4.10568e-07
2.76316e-13
5.67997e-07
0.000134315
-4.40394e-07
-1.8277e-07
5.67997e-07
0.000134315
-4.40394e-07
-3.05727e-07
5.24016e-07
0.000125443
-4.10568e-07
-3.37042e-07
4.42555e-07
0.000108783
-3.5584e-07
3.37042e-07
8.64326e-05
-2.8288e-07
-2.8288e-07
4.42554e-07
3.05729e-07
0.000108783
-3.5584e-07
4.11361e-07
4.11363e-07
0.000136127
2.48164e-07
4.93895e-07
0.000155277
2.38114e-13
5.35806e-07
0.000165117
-2.48163e-07
5.35806e-07
0.000165117
-4.11361e-07
4.93894e-07
0.000155277
-4.42554e-07
4.11362e-07
0.000136127
3.05728e-07
0.000108783
-3.55841e-07
5.24015e-07
1.82772e-07
0.000125443
-4.10567e-07
4.93893e-07
2.48166e-07
0.000155277
2.99349e-07
2.9935e-07
0.000175655
1.449e-13
3.22832e-07
0.000185846
-2.99349e-07
3.22832e-07
0.000185846
-4.93893e-07
2.9935e-07
0.000175655
-5.24015e-07
2.48165e-07
0.000155277
1.82772e-07
0.000125443
-4.10568e-07
5.67995e-07
1.83014e-12
0.000134315
-4.40393e-07
5.35805e-07
2.01199e-12
0.000165117
3.22831e-07
1.77018e-12
0.000185846
7.59368e-14
1.54127e-12
0.000195828
-3.22831e-07
1.49159e-12
0.000195828
-5.35805e-07
1.62919e-12
0.000185846
-5.67996e-07
1.78799e-12
0.000165117
1.60235e-12
0.000134315
-4.40394e-07
5.67995e-07
-1.82768e-07
0.000134315
-4.40393e-07
5.35805e-07
-2.48162e-07
0.000165117
3.22831e-07
-2.99347e-07
0.000185846
2.69273e-14
-3.22829e-07
0.000195828
-3.22831e-07
-3.22829e-07
0.000195828
-5.35805e-07
-2.99347e-07
0.000185846
-5.67996e-07
-2.48162e-07
0.000165117
-1.82769e-07
0.000134315
-4.40394e-07
5.24015e-07
-3.05726e-07
0.000125443
-4.10567e-07
4.93893e-07
-4.11359e-07
0.000155277
2.99349e-07
-4.93891e-07
0.000175655
-5.32651e-15
-5.35803e-07
0.000185846
-2.99349e-07
-5.35803e-07
0.000185846
-4.93893e-07
-4.93891e-07
0.000175655
-5.24015e-07
-4.11359e-07
0.000155277
-3.05726e-07
0.000125443
-4.10568e-07
4.42554e-07
-3.3704e-07
0.000108783
-3.55839e-07
4.11361e-07
-4.42552e-07
0.000136127
2.48164e-07
-5.24013e-07
0.000155277
-5.35285e-14
-5.67994e-07
0.000165117
-2.48164e-07
-5.67994e-07
0.000165117
-4.11361e-07
-5.24013e-07
0.000155277
-4.42554e-07
-4.42552e-07
0.000136127
-3.3704e-07
0.000108783
-3.5584e-07
3.37041e-07
8.64326e-05
-2.82879e-07
-2.82879e-07
3.05727e-07
0.000108783
-3.55839e-07
1.8277e-07
0.000125443
-4.10566e-07
-8.1913e-14
0.000134315
-4.40393e-07
-1.8277e-07
0.000134315
-4.40393e-07
-3.05727e-07
0.000125443
-4.10567e-07
-3.37041e-07
0.000108783
-3.55839e-07
8.64326e-05
-2.8288e-07
-2.8288e-07
1.51348e-07
1.5135e-07
8.63735e-05
-1.21836e-07
-1.21836e-07
1.40339e-07
2.02145e-07
0.000108747
-1.55427e-07
8.45677e-08
2.41371e-07
0.000125439
-1.81513e-07
-1.2166e-13
2.62704e-07
0.000134333
-1.96085e-07
-8.45679e-08
2.62704e-07
0.000134333
-1.96085e-07
-1.40339e-07
2.41371e-07
0.000125439
-1.81513e-07
-1.51348e-07
2.02145e-07
0.000108747
-1.55427e-07
1.5135e-07
8.63735e-05
-1.21837e-07
-1.21836e-07
2.02143e-07
1.40341e-07
0.000108747
-1.55425e-07
1.91011e-07
1.91013e-07
0.00013615
1.15755e-07
2.30229e-07
0.000155363
-1.03012e-13
2.5041e-07
0.000165245
-1.15755e-07
2.5041e-07
0.000165245
-1.91011e-07
2.30229e-07
0.000155363
-2.02144e-07
1.91013e-07
0.00013615
1.40341e-07
0.000108747
-1.55427e-07
2.41369e-07
8.45697e-08
0.000125439
-1.81511e-07
2.30227e-07
1.15757e-07
0.000155363
1.40054e-07
1.40056e-07
0.000175835
-1.00165e-13
1.51654e-07
0.000186085
-1.40054e-07
1.51654e-07
0.000186085
-2.30228e-07
1.40056e-07
0.000175835
-2.41369e-07
1.15757e-07
0.000155363
8.45698e-08
0.000125439
-1.81512e-07
2.62702e-07
1.72022e-12
0.000134333
-1.96083e-07
2.50409e-07
1.96204e-12
0.000165245
1.51653e-07
1.78513e-12
0.000186085
-9.58679e-14
1.60924e-12
0.000196131
-1.51653e-07
1.59874e-12
0.000196131
-2.50409e-07
1.7806e-12
0.000186085
-2.62702e-07
1.97944e-12
0.000165245
1.79678e-12
0.000134333
-1.96084e-07
2.62702e-07
-8.45663e-08
0.000134333
-1.96083e-07
2.50409e-07
-1.15753e-07
0.000165245
1.51653e-07
-1.40052e-07
0.000186085
-1.05859e-13
-1.51651e-07
0.000196131
-1.51653e-07
-1.51651e-07
0.000196131
-2.50409e-07
-1.40052e-07
0.000186085
-2.62702e-07
-1.15753e-07
0.000165245
-8.45663e-08
0.000134333
-1.96084e-07
2.41369e-07
-1.40338e-07
0.000125439
-1.81511e-07
2.30227e-07
-1.91009e-07
0.000155363
1.40054e-07
-2.30226e-07
0.000175835
-1.16642e-13
-2.50407e-07
0.000186085
-1.40054e-07
-2.50407e-07
0.000186085
-2.30228e-07
-2.30226e-07
0.000175835
-2.41369e-07
-1.91009e-07
0.000155363
-1.40338e-07
0.000125439
-1.81512e-07
2.02143e-07
-1.51347e-07
0.000108747
-1.55425e-07
1.91011e-07
-2.02142e-07
0.00013615
1.15755e-07
-2.41368e-07
0.000155363
-1.48178e-13
-2.62701e-07
0.000165245
-1.15756e-07
-2.62701e-07
0.000165245
-1.91011e-07
-2.41368e-07
0.000155363
-2.02144e-07
-2.02142e-07
0.00013615
-1.51347e-07
0.000108747
-1.55426e-07
1.51348e-07
8.63735e-05
-1.21835e-07
-1.21835e-07
1.40339e-07
0.000108747
-1.55425e-07
8.45678e-08
0.000125439
-1.81511e-07
-1.68659e-13
0.000134333
-1.96083e-07
-8.45682e-08
0.000134333
-1.96083e-07
-1.4034e-07
0.000125439
-1.81511e-07
-1.51348e-07
0.000108747
-1.55425e-07
8.63735e-05
-1.21836e-07
-1.21836e-07
7.9033e-08
7.90343e-08
8.63467e-05
-6.56222e-08
-6.56223e-08
7.18495e-08
1.04053e-07
0.000108733
-8.28793e-08
4.28782e-08
1.23074e-07
0.000125441
-9.59202e-08
6.50867e-13
1.3333e-07
0.000134345
-1.03101e-07
-4.28769e-08
1.3333e-07
0.000134345
-1.03101e-07
-7.18486e-08
1.23073e-07
0.000125441
-9.59198e-08
-7.90323e-08
1.04053e-07
0.000108733
-8.28785e-08
7.90336e-08
8.63467e-05
-6.56221e-08
-6.5622e-08
1.04051e-07
7.18513e-08
0.000108733
-8.28778e-08
9.64209e-08
9.6423e-08
0.000136165
5.78784e-08
1.15181e-07
0.000155409
6.17731e-13
1.24754e-07
0.000165311
-5.78773e-08
1.24754e-07
0.000165311
-9.64201e-08
1.15181e-07
0.000155409
-1.04051e-07
9.64225e-08
0.000136165
7.18506e-08
0.000108733
-8.28787e-08
1.23072e-07
4.28799e-08
0.000125441
-9.59186e-08
1.15179e-07
5.78804e-08
0.000155409
6.94189e-08
6.94208e-08
0.000175927
4.58522e-13
7.49052e-08
0.000186204
-6.94181e-08
7.49052e-08
0.000186204
-1.15179e-07
6.94205e-08
0.000175927
-1.23072e-07
5.788e-08
0.000155409
4.28794e-08
0.000125441
-9.59196e-08
1.33328e-07
2.30527e-12
0.000134345
-1.031e-07
1.24752e-07
2.52678e-12
0.000165311
7.49035e-08
2.21064e-12
0.000186204
3.2967e-13
1.9114e-12
0.000196281
-7.4903e-08
1.83208e-12
0.000196281
-1.24752e-07
1.96911e-12
0.000186204
-1.33328e-07
2.14016e-12
0.000165311
1.88662e-12
0.000134345
-1.03101e-07
1.33328e-07
-4.28754e-08
0.000134345
-1.031e-07
1.24752e-07
-5.78755e-08
0.000165311
7.49035e-08
-6.94164e-08
0.000186204
2.51185e-13
-7.49014e-08
0.000196281
-7.49031e-08
-7.49015e-08
0.000196281
-1.24752e-07
-6.94166e-08
0.000186204
-1.33328e-07
-5.78758e-08
0.000165311
-4.28757e-08
0.000134345
-1.03101e-07
1.23072e-07
-7.18471e-08
0.000125441
-9.59186e-08
1.15179e-07
-9.64184e-08
0.000155409
6.94188e-08
-1.15177e-07
0.000175927
2.03738e-13
-1.2475e-07
0.000186204
-6.94184e-08
-1.2475e-07
0.000186204
-1.15179e-07
-1.15177e-07
0.000175927
-1.23072e-07
-9.64186e-08
0.000155409
-7.18472e-08
0.000125441
-9.59196e-08
1.04051e-07
-7.9031e-08
0.000108733
-8.28775e-08
9.64207e-08
-1.04049e-07
0.000136165
5.78781e-08
-1.2307e-07
0.000155409
1.62327e-13
-1.33327e-07
0.000165311
-5.78778e-08
-1.33327e-07
0.000165311
-9.64205e-08
-1.2307e-07
0.000155409
-1.04051e-07
-1.0405e-07
0.000136165
-7.9031e-08
0.000108733
-8.28783e-08
7.90324e-08
8.63467e-05
-6.56212e-08
-6.56208e-08
7.18491e-08
0.000108733
-8.2877e-08
4.28777e-08
0.000125441
-9.59181e-08
9.92641e-14
0.000134345
-1.03099e-07
-4.28776e-08
0.000134345
-1.031e-07
-7.1849e-08
0.000125441
-9.59183e-08
-7.90322e-08
0.000108733
-8.28774e-08
8.63467e-05
-6.56212e-08
-6.56215e-08
3.80805e-08
3.80823e-08
8.63326e-05
-3.10247e-08
-3.10244e-08
3.50232e-08
5.06166e-08
0.000108725
-3.94623e-08
2.10079e-08
6.01986e-08
0.000125441
-4.59521e-08
3.50672e-13
6.53709e-08
0.00013435
-4.95575e-08
-2.10072e-08
6.53708e-08
0.00013435
-4.95574e-08
-3.50227e-08
6.01983e-08
0.000125441
-4.59517e-08
-3.80803e-08
5.06161e-08
0.000108725
-3.94617e-08
3.80819e-08
8.63326e-05
-3.10248e-08
-3.10242e-08
5.06141e-08
3.50253e-08
0.000108725
-3.94604e-08
4.73935e-08
4.73961e-08
0.000136171
2.85615e-08
5.68265e-08
0.000155432
3.45108e-13
6.16251e-08
0.000165344
-2.85609e-08
6.1625e-08
0.000165344
-4.73931e-08
5.68263e-08
0.000155432
-5.06141e-08
4.73958e-08
0.000136171
3.50251e-08
0.000108725
-3.94613e-08
6.01961e-08
2.101e-08
0.000125441
-4.59498e-08
5.68241e-08
2.85639e-08
0.000155432
3.43452e-08
3.43474e-08
0.000175971
2.32803e-13
3.70869e-08
0.000186263
-3.43448e-08
3.70868e-08
0.000186263
-5.68239e-08
3.43473e-08
0.000175971
-6.01961e-08
2.85636e-08
0.000155432
2.10098e-08
0.000125441
-4.59506e-08
6.53685e-08
2.11729e-12
0.00013435
-4.95552e-08
6.16229e-08
2.38409e-12
0.000165344
3.70849e-08
2.1316e-12
0.000186263
1.50715e-13
1.88439e-12
0.000196355
-3.70847e-08
1.83287e-12
0.000196355
-6.16228e-08
1.99568e-12
0.000186263
-6.53685e-08
2.18374e-12
0.000165344
1.95259e-12
0.00013435
-4.95558e-08
6.53686e-08
-2.10058e-08
0.00013435
-4.95553e-08
6.1623e-08
-2.85592e-08
0.000165344
3.70849e-08
-3.43432e-08
0.000186263
9.91788e-14
-3.70831e-08
0.000196355
-3.70848e-08
-3.70831e-08
0.000196355
-6.16229e-08
-3.43433e-08
0.000186263
-6.53686e-08
-2.85594e-08
0.000165344
-2.1006e-08
0.00013435
-4.95558e-08
6.01963e-08
-3.50215e-08
0.000125441
-4.595e-08
5.68243e-08
-4.73916e-08
0.000155432
3.43453e-08
-5.68224e-08
0.000175971
7.49337e-14
-6.16213e-08
0.000186263
-3.43451e-08
-6.16214e-08
0.000186263
-5.68242e-08
-5.68226e-08
0.000175971
-6.01962e-08
-4.73918e-08
0.000155432
-3.50216e-08
0.000125441
-4.59504e-08
5.06142e-08
-3.80791e-08
0.000108725
-3.94604e-08
4.73937e-08
-5.06126e-08
0.000136171
2.85615e-08
-6.01948e-08
0.000155432
5.1896e-14
-6.53673e-08
0.000165344
-2.85614e-08
-6.53674e-08
0.000165344
-4.73936e-08
-6.0195e-08
0.000155432
-5.06141e-08
-5.06129e-08
0.000136171
-3.80794e-08
0.000108725
-3.94607e-08
3.80804e-08
8.63326e-05
-3.10235e-08
-3.10234e-08
3.50232e-08
0.000108725
-3.94598e-08
2.10078e-08
0.000125441
-4.59495e-08
-2.28967e-15
0.00013435
-4.95549e-08
-2.10078e-08
0.00013435
-4.9555e-08
-3.50232e-08
0.000125441
-4.59498e-08
-3.80803e-08
0.000108725
-3.94602e-08
8.63326e-05
-3.10238e-08
-3.10237e-08
1.96294e-08
1.96311e-08
8.63257e-05
-1.61659e-08
-1.6166e-08
1.79429e-08
2.59691e-08
0.000108722
-2.04875e-08
1.07363e-08
3.08013e-08
0.000125441
-2.37789e-08
1.00575e-12
3.34039e-08
0.000134353
-2.55967e-08
-1.07344e-08
3.34037e-08
0.000134353
-2.55964e-08
-1.79413e-08
3.08005e-08
0.000125441
-2.37781e-08
-1.96283e-08
2.59678e-08
0.000108722
-2.04861e-08
1.96298e-08
8.63257e-05
-1.61654e-08
-1.61652e-08
2.59668e-08
1.79447e-08
0.000108722
-2.04857e-08
2.41868e-08
2.41891e-08
0.000136175
1.45478e-08
2.89464e-08
0.000155443
9.12535e-13
3.13603e-08
0.00016536
-1.45461e-08
3.13602e-08
0.00016536
-2.41854e-08
2.89459e-08
0.000155443
-2.59659e-08
2.41881e-08
0.000136175
1.79437e-08
0.000108722
-2.0486e-08
3.0799e-08
1.0738e-08
0.000125441
-2.37769e-08
2.89443e-08
1.45499e-08
0.000155443
1.74636e-08
1.74656e-08
0.000175994
6.34122e-13
1.88401e-08
0.000186293
-1.74624e-08
1.884e-08
0.000186293
-2.89434e-08
1.74651e-08
0.000175994
-3.07986e-08
1.45491e-08
0.000155443
1.07372e-08
0.000125441
-2.37776e-08
3.34018e-08
2.5867e-12
0.000134353
-2.55948e-08
3.13584e-08
2.77062e-12
0.00016536
1.88384e-08
2.35577e-12
0.000186293
4.23331e-13
1.97956e-12
0.000196393
-1.88376e-08
1.85463e-12
0.000196393
-3.13578e-08
1.97064e-12
0.000186293
-3.34016e-08
2.11954e-12
0.00016536
1.85766e-12
0.000134353
-2.55956e-08
3.34018e-08
-1.0733e-08
0.000134353
-2.55947e-08
3.13584e-08
-1.45445e-08
0.00016536
1.88383e-08
-1.74609e-08
0.000186293
2.98437e-13
-1.88361e-08
0.000196393
-1.88378e-08
-1.88362e-08
0.000196393
-3.1358e-08
-1.74612e-08
0.000186293
-3.34017e-08
-1.4545e-08
0.00016536
-1.07335e-08
0.000134353
-2.55957e-08
3.07988e-08
-1.794e-08
0.000125441
-2.37767e-08
2.89441e-08
-2.41839e-08
0.000155443
1.74634e-08
-2.89419e-08
0.000175994
2.29134e-13
-3.13563e-08
0.000186293
-1.74629e-08
-3.13564e-08
0.000186293
-2.89439e-08
-2.89422e-08
0.000175994
-3.07988e-08
-2.41843e-08
0.000155443
-1.79403e-08
0.000125441
-2.37776e-08
2.59662e-08
-1.96271e-08
0.000108722
-2.04849e-08
2.41863e-08
-2.59644e-08
0.000136175
1.45472e-08
-3.07971e-08
0.000155443
1.69365e-13
-3.34001e-08
0.00016536
-1.4547e-08
-3.34002e-08
0.00016536
-2.41861e-08
-3.07973e-08
0.000155443
-2.59662e-08
-2.59648e-08
0.000136175
-1.96273e-08
0.000108722
-2.04857e-08
1.96285e-08
8.63257e-05
-1.61645e-08
-1.61641e-08
1.79421e-08
0.000108722
-2.04845e-08
1.07355e-08
0.000125441
-2.37761e-08
9.80384e-14
0.000134353
-2.55941e-08
-1.07353e-08
0.000134353
-2.55942e-08
-1.7942e-08
0.000125441
-2.37764e-08
-1.96284e-08
0.000108722
-2.04849e-08
8.63257e-05
-1.61644e-08
-1.61648e-08
9.77379e-09
9.77514e-09
8.63221e-05
-7.9844e-09
-7.98419e-09
8.98171e-09
1.29824e-08
0.00010872
-1.01453e-08
5.38857e-09
1.54376e-08
0.000125441
-1.18029e-08
4.39725e-16
1.67629e-08
0.000134355
-1.27219e-08
-5.38855e-09
1.67629e-08
0.000134355
-1.27219e-08
-8.98179e-09
1.54375e-08
0.000125441
-1.18029e-08
-9.77396e-09
1.29824e-08
0.00010872
-1.01451e-08
9.77512e-09
8.63221e-05
-7.9848e-09
-7.98429e-09
1.29806e-08
8.98359e-09
0.00010872
-1.0144e-08
1.2156e-08
1.21582e-08
0.000136177
7.33084e-09
1.45845e-08
0.000155449
-2.75074e-15
1.58186e-08
0.000165369
-7.33089e-09
1.58186e-08
0.000165369
-1.21562e-08
1.45844e-08
0.000155449
-1.29809e-08
1.21581e-08
0.000136177
8.98357e-09
0.00010872
-1.0145e-08
1.54357e-08
5.39049e-09
0.000125441
-1.18013e-08
1.45825e-08
7.33296e-09
0.000155449
8.82131e-09
8.82323e-09
0.000176006
-5.60901e-14
9.52818e-09
0.000186308
-8.82144e-09
9.52816e-09
0.000186308
-1.45827e-08
8.82316e-09
0.000176006