/*--------------------------------*- C++ -*----------------------------------*\
| =========                 |                                                 |
| \\      /  F ield         | OpenFOAM: The Open Source CFD Toolbox           |
|  \\    /   O peration     | Version:  2406                                  |
|   \\  /    A nd           | Website:  www.openfoam.com                      |
|    \\/     M anipulation  |                                                 |
\*---------------------------------------------------------------------------*/
FoamFile
{
    version     2.0;
    format      ascii;
    arch        "LSB;label=32;scalar=64";
    class       volVectorField;
    location    "9.6";
    object      U;
}
// * * * * * * * * * * * * * * * * * * * * * * * * * * * * * * * * * * * * * //

dimensions      [0 1 -1 0 0 0 0];

internalField   nonuniform List<vector> 
16000
(
(0.153132 0.153132 1.11474)
(0.117573 0.168169 1.1542)
(0.072459 0.17688 1.17285)
(0.0244946 0.180953 1.18018)
(-0.0244946 0.180953 1.18018)
(-0.072459 0.17688 1.17285)
(-0.117573 0.168169 1.1542)
(-0.153132 0.153132 1.11474)
(0.168169 0.117573 1.1542)
(0.126109 0.126109 1.18728)
(0.0766337 0.131081 1.19757)
(0.0257137 0.133402 1.19978)
(-0.0257137 0.133402 1.19978)
(-0.0766337 0.131081 1.19757)
(-0.126109 0.126109 1.18728)
(-0.168169 0.117573 1.1542)
(0.17688 0.072459 1.17285)
(0.131081 0.0766337 1.19757)
(0.0792027 0.0792027 1.20176)
(0.0264749 0.0803911 1.20065)
(-0.0264749 0.0803911 1.20065)
(-0.0792027 0.0792027 1.20176)
(-0.131081 0.0766337 1.19757)
(-0.17688 0.072459 1.17285)
(0.180953 0.0244946 1.18018)
(0.133402 0.0257137 1.19978)
(0.0803911 0.0264749 1.20065)
(0.0268183 0.0268183 1.1979)
(-0.0268183 0.0268183 1.1979)
(-0.0803911 0.0264749 1.20065)
(-0.133402 0.0257137 1.19978)
(-0.180953 0.0244946 1.18018)
(0.180953 -0.0244946 1.18018)
(0.133402 -0.0257137 1.19978)
(0.0803911 -0.0264749 1.20065)
(0.0268183 -0.0268183 1.1979)
(-0.0268183 -0.0268183 1.1979)
(-0.0803911 -0.0264749 1.20065)
(-0.133402 -0.0257137 1.19978)
(-0.180953 -0.0244946 1.18018)
(0.17688 -0.072459 1.17285)
(0.131081 -0.0766337 1.19757)
(0.0792027 -0.0792027 1.20176)
(0.0264749 -0.0803911 1.20065)
(-0.0264749 -0.0803911 1.20065)
(-0.0792027 -0.0792027 1.20176)
(-0.131081 -0.0766337 1.19757)
(-0.17688 -0.072459 1.17285)
(0.168169 -0.117573 1.1542)
(0.126109 -0.126109 1.18728)
(0.0766337 -0.131081 1.19757)
(0.0257137 -0.133402 1.19978)
(-0.0257137 -0.133402 1.19978)
(-0.0766337 -0.131081 1.19757)
(-0.126109 -0.126109 1.18728)
(-0.168169 -0.117573 1.1542)
(0.153132 -0.153132 1.11474)
(0.117573 -0.168169 1.1542)
(0.072459 -0.17688 1.17285)
(0.0244946 -0.180953 1.18018)
(-0.0244946 -0.180953 1.18018)
(-0.072459 -0.17688 1.17285)
(-0.117573 -0.168169 1.1542)
(-0.153132 -0.153132 1.11474)
(0.0494154 0.0494154 1.29062)
(0.0414003 0.0615755 1.3895)
(0.0279271 0.0703803 1.44408)
(0.00984083 0.075171 1.46809)
(-0.00984083 0.075171 1.46809)
(-0.027927 0.0703803 1.44408)
(-0.0414003 0.0615755 1.3895)
(-0.0494154 0.0494154 1.29062)
(0.0615755 0.0414003 1.3895)
(0.0531611 0.0531611 1.48728)
(0.0357288 0.0616406 1.53241)
(0.0125458 0.0660227 1.54992)
(-0.0125458 0.0660227 1.54992)
(-0.0357288 0.0616406 1.53241)
(-0.0531611 0.0531611 1.48728)
(-0.0615755 0.0414003 1.3895)
(0.0703803 0.0279271 1.44408)
(0.0616406 0.0357288 1.53241)
(0.0413007 0.0413007 1.57006)
(0.0144349 0.0441146 1.5832)
(-0.0144349 0.0441146 1.5832)
(-0.0413007 0.0413007 1.57006)
(-0.0616406 0.0357288 1.53241)
(-0.0703803 0.0279271 1.44408)
(0.075171 0.00984083 1.46809)
(0.0660227 0.0125458 1.54992)
(0.0441146 0.0144349 1.5832)
(0.0153734 0.0153734 1.59386)
(-0.0153734 0.0153734 1.59386)
(-0.0441146 0.0144349 1.5832)
(-0.0660227 0.0125458 1.54992)
(-0.0751711 0.00984083 1.46809)
(0.075171 -0.00984082 1.46809)
(0.0660227 -0.0125458 1.54992)
(0.0441146 -0.0144349 1.5832)
(0.0153734 -0.0153734 1.59386)
(-0.0153734 -0.0153734 1.59386)
(-0.0441146 -0.0144349 1.5832)
(-0.0660227 -0.0125458 1.54992)
(-0.0751711 -0.00984083 1.46809)
(0.0703803 -0.027927 1.44408)
(0.0616406 -0.0357288 1.53241)
(0.0413007 -0.0413007 1.57006)
(0.0144349 -0.0441146 1.5832)
(-0.0144349 -0.0441146 1.5832)
(-0.0413007 -0.0413007 1.57006)
(-0.0616406 -0.0357288 1.53241)
(-0.0703803 -0.027927 1.44408)
(0.0615755 -0.0414002 1.3895)
(0.0531611 -0.0531611 1.48728)
(0.0357288 -0.0616406 1.53241)
(0.0125458 -0.0660227 1.54992)
(-0.0125458 -0.0660227 1.54992)
(-0.0357288 -0.0616406 1.53241)
(-0.0531611 -0.0531611 1.48728)
(-0.0615755 -0.0414003 1.3895)
(0.0494154 -0.0494154 1.29062)
(0.0414003 -0.0615755 1.3895)
(0.027927 -0.0703803 1.44408)
(0.00984083 -0.075171 1.46809)
(-0.00984083 -0.075171 1.46809)
(-0.0279271 -0.0703803 1.44408)
(-0.0414003 -0.0615755 1.3895)
(-0.0494154 -0.0494154 1.29062)
(0.0295334 0.0295334 1.18369)
(0.0263057 0.0381217 1.33605)
(0.0179588 0.0440247 1.43119)
(0.00638113 0.0472238 1.47636)
(-0.00638113 0.0472238 1.47636)
(-0.0179588 0.0440247 1.43119)
(-0.0263057 0.0381217 1.33605)
(-0.0295334 0.0295334 1.18369)
(0.0381217 0.0263057 1.33605)
(0.03387 0.03387 1.50686)
(0.0231033 0.0393329 1.60045)
(0.00819889 0.042227 1.64149)
(-0.00819889 0.042227 1.64149)
(-0.0231033 0.0393329 1.60045)
(-0.03387 0.03387 1.50686)
(-0.0381217 0.0263057 1.33605)
(0.0440247 0.0179588 1.43119)
(0.0393329 0.0231033 1.60045)
(0.0268026 0.0268026 1.68906)
(0.00948465 0.028713 1.72654)
(-0.00948465 0.028713 1.72654)
(-0.0268026 0.0268026 1.68906)
(-0.0393329 0.0231033 1.60045)
(-0.0440247 0.0179588 1.43119)
(0.0472238 0.00638113 1.47636)
(0.042227 0.00819889 1.64149)
(0.028713 0.00948465 1.72654)
(0.0101528 0.0101528 1.76219)
(-0.0101528 0.0101528 1.76219)
(-0.028713 0.00948465 1.72654)
(-0.042227 0.00819889 1.64149)
(-0.0472238 0.00638113 1.47636)
(0.0472238 -0.00638113 1.47636)
(0.042227 -0.00819889 1.64149)
(0.028713 -0.00948464 1.72654)
(0.0101528 -0.0101528 1.76219)
(-0.0101528 -0.0101528 1.76219)
(-0.028713 -0.00948464 1.72654)
(-0.042227 -0.00819889 1.64149)
(-0.0472238 -0.00638113 1.47636)
(0.0440247 -0.0179588 1.43119)
(0.0393329 -0.0231033 1.60045)
(0.0268026 -0.0268026 1.68906)
(0.00948465 -0.028713 1.72654)
(-0.00948465 -0.028713 1.72654)
(-0.0268026 -0.0268026 1.68906)
(-0.0393329 -0.0231033 1.60045)
(-0.0440247 -0.0179588 1.43119)
(0.0381217 -0.0263057 1.33605)
(0.03387 -0.03387 1.50686)
(0.0231033 -0.0393329 1.60045)
(0.00819889 -0.042227 1.64149)
(-0.00819889 -0.042227 1.64149)
(-0.0231033 -0.0393329 1.60045)
(-0.03387 -0.03387 1.50686)
(-0.0381217 -0.0263057 1.33605)
(0.0295334 -0.0295334 1.18369)
(0.0263057 -0.0381217 1.33605)
(0.0179588 -0.0440247 1.43119)
(0.00638113 -0.0472238 1.47636)
(-0.00638113 -0.0472238 1.47636)
(-0.0179588 -0.0440247 1.43119)
(-0.0263057 -0.0381217 1.33605)
(-0.0295334 -0.0295334 1.18369)
(0.00607788 0.00607788 1.17735)
(0.00678721 0.00932593 1.34012)
(0.00531535 0.0121436 1.44756)
(0.00200434 0.0137879 1.50053)
(-0.00200434 0.0137879 1.50053)
(-0.00531535 0.0121436 1.44756)
(-0.00678721 0.00932593 1.34012)
(-0.00607788 0.00607788 1.17735)
(0.00932593 0.00678721 1.34012)
(0.0106419 0.010642 1.53329)
(0.0082524 0.0137676 1.64786)
(0.00308277 0.0154575 1.70082)
(-0.00308277 0.0154575 1.70082)
(-0.0082524 0.0137676 1.64786)
(-0.010642 0.010642 1.53329)
(-0.00932593 0.00678721 1.34012)
(0.0121436 0.00531535 1.44756)
(0.0137676 0.0082524 1.64786)
(0.0104758 0.0104758 1.76219)
(0.00386311 0.0115575 1.81303)
(-0.00386311 0.0115575 1.81303)
(-0.0104758 0.0104758 1.76219)
(-0.0137676 0.0082524 1.64786)
(-0.0121436 0.00531535 1.44756)
(0.0137879 0.00200435 1.50053)
(0.0154575 0.00308277 1.70082)
(0.0115575 0.00386311 1.81303)
(0.00421153 0.00421154 1.8613)
(-0.00421153 0.00421154 1.8613)
(-0.0115575 0.00386311 1.81303)
(-0.0154575 0.00308277 1.70082)
(-0.0137879 0.00200435 1.50053)
(0.0137879 -0.00200434 1.50053)
(0.0154575 -0.00308276 1.70082)
(0.0115575 -0.0038631 1.81303)
(0.00421153 -0.00421153 1.8613)
(-0.00421153 -0.00421153 1.8613)
(-0.0115575 -0.0038631 1.81303)
(-0.0154575 -0.00308276 1.70082)
(-0.0137879 -0.00200434 1.50053)
(0.0121436 -0.00531535 1.44756)
(0.0137676 -0.00825239 1.64786)
(0.0104758 -0.0104758 1.76219)
(0.00386311 -0.0115575 1.81303)
(-0.00386311 -0.0115575 1.81303)
(-0.0104758 -0.0104758 1.76219)
(-0.0137676 -0.00825239 1.64786)
(-0.0121436 -0.00531535 1.44756)
(0.00932593 -0.00678721 1.34012)
(0.0106419 -0.0106419 1.53329)
(0.0082524 -0.0137676 1.64786)
(0.00308277 -0.0154575 1.70082)
(-0.00308277 -0.0154575 1.70082)
(-0.0082524 -0.0137676 1.64786)
(-0.010642 -0.0106419 1.53329)
(-0.00932593 -0.00678721 1.34012)
(0.00607788 -0.00607788 1.17735)
(0.00678721 -0.00932592 1.34012)
(0.00531535 -0.0121436 1.44756)
(0.00200434 -0.0137879 1.50053)
(-0.00200434 -0.0137879 1.50053)
(-0.00531535 -0.0121436 1.44756)
(-0.00678721 -0.00932593 1.34012)
(-0.00607788 -0.00607788 1.17735)
(0.00420929 0.00420929 1.15879)
(0.00417758 0.00573707 1.32761)
(0.00305281 0.00697193 1.44156)
(0.00112169 0.00767951 1.4987)
(-0.00112169 0.00767951 1.4987)
(-0.00305281 0.00697193 1.44156)
(-0.00417758 0.00573707 1.32761)
(-0.00420929 0.00420929 1.15879)
(0.00573707 0.00417758 1.32761)
(0.0058271 0.00582711 1.53244)
(0.00432306 0.00720708 1.65824)
(0.00159285 0.00796351 1.71788)
(-0.00159285 0.00796351 1.71788)
(-0.00432306 0.00720708 1.65824)
(-0.0058271 0.0058271 1.53244)
(-0.00573707 0.00417758 1.32761)
(0.00697193 0.00305281 1.44156)
(0.00720707 0.00432306 1.65824)
(0.00533722 0.00533722 1.7871)
(0.00194952 0.00580511 1.84585)
(-0.00194952 0.00580511 1.84585)
(-0.00533722 0.00533722 1.7871)
(-0.00720707 0.00432306 1.65824)
(-0.00697193 0.00305281 1.44156)
(0.00767951 0.00112169 1.4987)
(0.00796351 0.00159285 1.71788)
(0.00580511 0.00194952 1.84585)
(0.00208328 0.00208329 1.90127)
(-0.00208328 0.00208328 1.90127)
(-0.00580511 0.00194952 1.84585)
(-0.00796351 0.00159285 1.71788)
(-0.00767951 0.00112169 1.4987)
(0.00767951 -0.00112169 1.4987)
(0.00796351 -0.00159285 1.71788)
(0.00580511 -0.00194951 1.84585)
(0.00208328 -0.00208328 1.90127)
(-0.00208328 -0.00208328 1.90127)
(-0.00580511 -0.00194951 1.84585)
(-0.00796351 -0.00159285 1.71788)
(-0.00767951 -0.00112169 1.4987)
(0.00697193 -0.00305281 1.44156)
(0.00720707 -0.00432305 1.65824)
(0.00533722 -0.00533722 1.7871)
(0.00194952 -0.0058051 1.84585)
(-0.00194952 -0.0058051 1.84585)
(-0.00533722 -0.00533722 1.7871)
(-0.00720707 -0.00432305 1.65824)
(-0.00697193 -0.00305281 1.44156)
(0.00573707 -0.00417758 1.32761)
(0.0058271 -0.0058271 1.53244)
(0.00432306 -0.00720707 1.65824)
(0.00159285 -0.0079635 1.71788)
(-0.00159285 -0.0079635 1.71788)
(-0.00432306 -0.00720707 1.65824)
(-0.0058271 -0.0058271 1.53244)
(-0.00573707 -0.00417758 1.32761)
(0.00420928 -0.00420928 1.15879)
(0.00417758 -0.00573707 1.32761)
(0.00305281 -0.00697193 1.44156)
(0.00112169 -0.00767951 1.4987)
(-0.00112169 -0.00767951 1.4987)
(-0.00305281 -0.00697193 1.44156)
(-0.00417758 -0.00573707 1.32761)
(-0.00420929 -0.00420928 1.15879)
(0.00130174 0.00130174 1.15563)
(0.00140465 0.00190345 1.3259)
(0.00109256 0.00244352 1.44189)
(0.000412967 0.00276631 1.50046)
(-0.000412967 0.00276631 1.50046)
(-0.00109256 0.00244352 1.44189)
(-0.00140465 0.00190345 1.3259)
(-0.00130174 0.00130174 1.15563)
(0.00190345 0.00140465 1.3259)
(0.00214529 0.0021453 1.53424)
(0.0016872 0.00280356 1.66415)
(0.000637026 0.00317699 1.72646)
(-0.000637026 0.00317699 1.72646)
(-0.0016872 0.00280356 1.66415)
(-0.0021453 0.0021453 1.53424)
(-0.00190345 0.00140465 1.3259)
(0.00244352 0.00109257 1.44189)
(0.00280355 0.0016872 1.66415)
(0.00219038 0.00219038 1.7989)
(0.000816972 0.0024356 1.86114)
(-0.000816972 0.0024356 1.86114)
(-0.00219038 0.00219038 1.7989)
(-0.00280356 0.0016872 1.66415)
(-0.00244352 0.00109257 1.44189)
(0.00276631 0.00041297 1.50046)
(0.00317699 0.000637029 1.72646)
(0.0024356 0.000816975 1.86114)
(0.000886492 0.000886495 1.91993)
(-0.000886493 0.000886495 1.91993)
(-0.0024356 0.000816975 1.86114)
(-0.00317699 0.000637029 1.72646)
(-0.00276631 0.00041297 1.50046)
(0.00276631 -0.000412964 1.50046)
(0.00317699 -0.000637022 1.72646)
(0.0024356 -0.000816969 1.86114)
(0.000886492 -0.000886489 1.91993)
(-0.000886493 -0.000886489 1.91993)
(-0.0024356 -0.000816969 1.86114)
(-0.00317699 -0.000637022 1.72646)
(-0.00276631 -0.000412964 1.50046)
(0.00244352 -0.00109256 1.44189)
(0.00280355 -0.00168719 1.66415)
(0.00219038 -0.00219038 1.7989)
(0.000816972 -0.00243559 1.86114)
(-0.000816972 -0.00243559 1.86114)
(-0.00219038 -0.00219038 1.7989)
(-0.00280356 -0.00168719 1.66415)
(-0.00244352 -0.00109256 1.44189)
(0.00190345 -0.00140464 1.3259)
(0.00214529 -0.00214529 1.53424)
(0.0016872 -0.00280355 1.66415)
(0.000637026 -0.00317699 1.72646)
(-0.000637026 -0.00317699 1.72646)
(-0.0016872 -0.00280355 1.66415)
(-0.00214529 -0.00214529 1.53424)
(-0.00190345 -0.00140464 1.3259)
(0.00130174 -0.00130174 1.15563)
(0.00140465 -0.00190345 1.3259)
(0.00109256 -0.00244351 1.44189)
(0.000412967 -0.00276631 1.50046)
(-0.000412968 -0.00276631 1.50046)
(-0.00109256 -0.00244352 1.44189)
(-0.00140465 -0.00190345 1.3259)
(-0.00130174 -0.00130174 1.15563)
(0.000792204 0.000792205 1.15296)
(0.000788354 0.00108156 1.32433)
(0.000581398 0.00132234 1.44146)
(0.000214721 0.00146385 1.50077)
(-0.000214719 0.00146385 1.50077)
(-0.000581397 0.00132233 1.44146)
(-0.000788354 0.00108156 1.32433)
(-0.000792205 0.000792205 1.15296)
(0.00108156 0.000788357 1.32433)
(0.00110842 0.00110842 1.53467)
(0.000833461 0.00139004 1.66657)
(0.000309536 0.00155285 1.73013)
(-0.000309535 0.00155285 1.73013)
(-0.00083346 0.00139004 1.66657)
(-0.00110842 0.00110842 1.53467)
(-0.00108156 0.000788357 1.32433)
(0.00132233 0.000581402 1.44146)
(0.00139004 0.000833465 1.66657)
(0.00105205 0.00105206 1.80409)
(0.000388559 0.00116372 1.86797)
(-0.000388558 0.00116372 1.86797)
(-0.00105205 0.00105206 1.80409)
(-0.00139004 0.000833464 1.66657)
(-0.00132234 0.000581401 1.44146)
(0.00146384 0.000214725 1.50077)
(0.00155285 0.00030954 1.73013)
(0.00116372 0.000388563 1.86797)
(0.000420373 0.000420376 1.92846)
(-0.000420372 0.000420376 1.92846)
(-0.00116372 0.000388563 1.86797)
(-0.00155285 0.00030954 1.73013)
(-0.00146385 0.000214724 1.50077)
(0.00146384 -0.000214715 1.50077)
(0.00155285 -0.00030953 1.73013)
(0.00116372 -0.000388554 1.86797)
(0.000420373 -0.000420369 1.92846)
(-0.000420372 -0.000420369 1.92846)
(-0.00116372 -0.000388555 1.86797)
(-0.00155285 -0.000309531 1.73013)
(-0.00146385 -0.000214716 1.50077)
(0.00132233 -0.000581393 1.44146)
(0.00139004 -0.000833456 1.66657)
(0.00105205 -0.00105205 1.80409)
(0.000388559 -0.00116372 1.86797)
(-0.000388559 -0.00116372 1.86797)
(-0.00105205 -0.00105205 1.80409)
(-0.00139004 -0.000833456 1.66657)
(-0.00132233 -0.000581394 1.44146)
(0.00108156 -0.000788349 1.32433)
(0.00110841 -0.00110841 1.53467)
(0.00083346 -0.00139004 1.66657)
(0.000309535 -0.00155284 1.73013)
(-0.000309535 -0.00155284 1.73013)
(-0.00083346 -0.00139004 1.66657)
(-0.00110842 -0.00110841 1.53467)
(-0.00108156 -0.00078835 1.32433)
(0.000792201 -0.0007922 1.15296)
(0.000788352 -0.00108155 1.32433)
(0.000581397 -0.00132233 1.44146)
(0.00021472 -0.00146384 1.50077)
(-0.00021472 -0.00146384 1.50077)
(-0.000581398 -0.00132233 1.44146)
(-0.000788353 -0.00108156 1.32433)
(-0.000792203 -0.000792203 1.15296)
(0.000340736 0.000340737 1.1521)
(0.000347864 0.000479672 1.32392)
(0.000260863 0.000598211 1.44154)
(9.69832e-05 0.000668247 1.50117)
(-9.69838e-05 0.000668247 1.50117)
(-0.000260864 0.000598211 1.44154)
(-0.000347866 0.000479672 1.32392)
(-0.000340738 0.000340739 1.1521)
(0.000479667 0.000347868 1.32392)
(0.000505477 0.000505482 1.53513)
(0.000384178 0.000642849 1.6679)
(0.000143137 0.000722071 1.732)
(-0.000143138 0.000722071 1.732)
(-0.000384179 0.00064285 1.6679)
(-0.000505479 0.000505482 1.53513)
(-0.000479671 0.000347869 1.32392)
(0.000598205 0.000260867 1.44154)
(0.000642844 0.000384183 1.6679)
(0.000489664 0.000489668 1.80663)
(0.0001812 0.000544341 1.87124)
(-0.0001812 0.000544341 1.87124)
(-0.000489664 0.000489669 1.80663)
(-0.000642846 0.000384184 1.6679)
(-0.000598208 0.000260868 1.44154)
(0.00066824 9.69879e-05 1.50117)
(0.000722066 0.000143142 1.732)
(0.000544337 0.000181205 1.87124)
(0.000196974 0.000196978 1.93251)
(-0.000196975 0.000196978 1.93251)
(-0.000544337 0.000181205 1.87124)
(-0.000722067 0.000143142 1.732)
(-0.000668243 9.69882e-05 1.50117)
(0.00066824 -9.69792e-05 1.50117)
(0.000722066 -0.000143133 1.732)
(0.000544337 -0.000181196 1.87124)
(0.000196974 -0.000196971 1.93251)
(-0.000196975 -0.000196971 1.93251)
(-0.000544337 -0.000181196 1.87124)
(-0.000722067 -0.000143133 1.732)
(-0.000668243 -9.69791e-05 1.50117)
(0.000598205 -0.000260859 1.44154)
(0.000642844 -0.000384174 1.6679)
(0.000489664 -0.00048966 1.80663)
(0.0001812 -0.000544333 1.87124)
(-0.0001812 -0.000544333 1.87124)
(-0.000489664 -0.00048966 1.80663)
(-0.000642845 -0.000384174 1.6679)
(-0.000598207 -0.000260859 1.44154)
(0.000479666 -0.000347861 1.32392)
(0.000505477 -0.000505473 1.53513)
(0.000384178 -0.000642841 1.6679)
(0.000143137 -0.000722063 1.732)
(-0.000143138 -0.000722063 1.732)
(-0.000384179 -0.000642841 1.6679)
(-0.000505478 -0.000505474 1.53513)
(-0.000479668 -0.000347861 1.32392)
(0.000340734 -0.000340733 1.1521)
(0.000347864 -0.000479664 1.32392)
(0.000260863 -0.000598203 1.44154)
(9.69831e-05 -0.000668238 1.50117)
(-9.6984e-05 -0.000668239 1.50117)
(-0.000260864 -0.000598204 1.44154)
(-0.000347864 -0.000479666 1.32392)
(-0.000340735 -0.000340734 1.1521)
(0.000183378 0.00018338 1.15155)
(0.000182636 0.000252985 1.32363)
(0.0001345 0.000310879 1.44151)
(4.95863e-05 0.000344803 1.5013)
(-4.95831e-05 0.000344802 1.5013)
(-0.000134497 0.000310877 1.44151)
(-0.000182634 0.000252982 1.32363)
(-0.000183378 0.000183379 1.15155)
(0.000252981 0.00018264 1.32363)
(0.000258956 0.000258961 1.5353)
(0.000193546 0.000324769 1.66852)
(7.15912e-05 0.000362583 1.73289)
(-7.15883e-05 0.000362583 1.73289)
(-0.000193544 0.000324768 1.66852)
(-0.000258954 0.000258959 1.5353)
(-0.000252982 0.000182638 1.32363)
(0.000310874 0.000134504 1.44151)
(0.000324764 0.000193551 1.66852)
(0.000243696 0.000243701 1.80785)
(8.96179e-05 0.000269587 1.87281)
(-8.96158e-05 0.000269587 1.87281)
(-0.000243694 0.0002437 1.80785)
(-0.000324763 0.00019355 1.66852)
(-0.000310876 0.000134503 1.44151)
(0.000344797 4.95906e-05 1.5013)
(0.000362579 7.15961e-05 1.73289)
(0.000269583 8.96223e-05 1.87281)
(9.70176e-05 9.70215e-05 1.93446)
(-9.70161e-05 9.70213e-05 1.93446)
(-0.000269582 8.96217e-05 1.87281)
(-0.000362578 7.1595e-05 1.73289)
(-0.0003448 4.95895e-05 1.5013)
(0.000344797 -4.95789e-05 1.5013)
(0.000362578 -7.15836e-05 1.73289)
(0.000269583 -8.96116e-05 1.87281)
(9.70174e-05 -9.70123e-05 1.93446)
(-9.70163e-05 -9.70125e-05 1.93446)
(-0.000269582 -8.96121e-05 1.87281)
(-0.000362578 -7.15844e-05 1.73289)
(-0.0003448 -4.95799e-05 1.5013)
(0.000310872 -0.000134493 1.44151)
(0.000324763 -0.000193539 1.66852)
(0.000243695 -0.00024369 1.80785)
(8.96173e-05 -0.000269578 1.87281)
(-8.96164e-05 -0.000269578 1.87281)
(-0.000243695 -0.00024369 1.80785)
(-0.000324763 -0.00019354 1.66852)
(-0.000310875 -0.000134494 1.44151)
(0.000252978 -0.000182629 1.32363)
(0.000258954 -0.000258949 1.5353)
(0.000193545 -0.000324758 1.66852)
(7.159e-05 -0.000362574 1.73289)
(-7.15893e-05 -0.000362574 1.73289)
(-0.000193544 -0.000324759 1.66852)
(-0.000258954 -0.00025895 1.5353)
(-0.00025298 -0.00018263 1.32363)
(0.000183374 -0.000183373 1.15155)
(0.000182633 -0.000252975 1.32363)
(0.000134498 -0.000310869 1.44151)
(4.95848e-05 -0.000344794 1.5013)
(-4.95844e-05 -0.000344794 1.5013)
(-0.000134498 -0.00031087 1.44151)
(-0.000182633 -0.000252977 1.32363)
(-0.000183376 -0.000183376 1.15155)
(8.67711e-05 8.67729e-05 1.15132)
(8.77093e-05 0.000121325 1.32351)
(6.52143e-05 0.000150478 1.44152)
(2.41382e-05 0.00016761 1.50139)
(-2.41364e-05 0.00016761 1.50139)
(-6.52129e-05 0.000150476 1.44152)
(-8.77085e-05 0.000121323 1.32351)
(-8.6772e-05 8.67725e-05 1.15132)
(0.000121318 8.77133e-05 1.32351)
(0.000126291 0.000126297 1.53541)
(9.5109e-05 0.000159577 1.66884)
(3.52684e-05 0.000178635 1.73335)
(-3.52668e-05 0.000178635 1.73335)
(-9.51078e-05 0.000159576 1.66884)
(-0.00012629 0.000126296 1.53541)
(-0.00012132 8.77128e-05 1.32351)
(0.000150469 6.52191e-05 1.44152)
(0.000159571 9.51147e-05 1.66884)
(0.000120352 0.000120357 1.80847)
(4.43135e-05 0.000133317 1.8736)
(-4.43124e-05 0.000133316 1.8736)
(-0.000120351 0.000120356 1.80847)
(-0.000159571 9.5114e-05 1.66884)
(-0.000150471 6.52187e-05 1.44152)
(0.000167602 2.41429e-05 1.50139)
(0.00017863 3.52738e-05 1.73335)
(0.000133312 4.43184e-05 1.8736)
(4.80029e-05 4.80073e-05 1.93544)
(-4.80022e-05 4.80072e-05 1.93544)
(-0.000133311 4.4318e-05 1.8736)
(-0.000178629 3.52732e-05 1.73335)
(-0.000167603 2.41425e-05 1.50139)
(0.000167602 -2.41322e-05 1.50139)
(0.000178629 -3.5262e-05 1.73335)
(0.000133312 -4.4308e-05 1.8736)
(4.80028e-05 -4.79982e-05 1.93544)
(-4.80024e-05 -4.79983e-05 1.93544)
(-0.000133311 -4.43083e-05 1.8736)
(-0.000178629 -3.52624e-05 1.73335)
(-0.000167603 -2.41326e-05 1.50139)
(0.000150469 -6.52092e-05 1.44152)
(0.000159571 -9.51035e-05 1.66884)
(0.000120351 -0.000120347 1.80847)
(4.43132e-05 -0.000133307 1.8736)
(-4.43128e-05 -0.000133307 1.8736)
(-0.000120351 -0.000120347 1.80847)
(-0.00015957 -9.51039e-05 1.66884)
(-0.00015047 -6.52095e-05 1.44152)
(0.000121317 -8.77042e-05 1.32351)
(0.00012629 -0.000126286 1.53541)
(9.51086e-05 -0.000159567 1.66884)
(3.52678e-05 -0.000178626 1.73335)
(-3.52675e-05 -0.000178626 1.73335)
(-9.51084e-05 -0.000159567 1.66884)
(-0.00012629 -0.000126286 1.53541)
(-0.000121317 -8.77047e-05 1.32351)
(8.67683e-05 -8.67672e-05 1.15132)
(8.77076e-05 -0.000121314 1.32351)
(6.52138e-05 -0.000150467 1.44152)
(2.41374e-05 -0.0001676 1.50139)
(-2.41374e-05 -0.0001676 1.50139)
(-6.52138e-05 -0.000150468 1.44152)
(-8.77077e-05 -0.000121315 1.32351)
(-8.67691e-05 -8.67682e-05 1.15132)
(4.52181e-05 4.522e-05 1.15119)
(4.53635e-05 6.27489e-05 1.32345)
(3.35602e-05 7.7423e-05 1.44152)
(1.23976e-05 8.60284e-05 1.50143)
(-1.23926e-05 8.60273e-05 1.50143)
(-3.35557e-05 7.74195e-05 1.44152)
(-4.53593e-05 6.27434e-05 1.32345)
(-4.52159e-05 4.52165e-05 1.15119)
(6.27426e-05 4.53672e-05 1.32345)
(6.47561e-05 6.47616e-05 1.53546)
(4.85778e-05 8.14849e-05 1.669)
(1.79892e-05 9.1062e-05 1.73357)
(-1.79848e-05 9.10613e-05 1.73357)
(-4.8574e-05 8.14827e-05 1.669)
(-6.47531e-05 6.47581e-05 1.53546)
(-6.27422e-05 4.53639e-05 1.32345)
(7.74161e-05 3.35644e-05 1.44152)
(8.14795e-05 4.85829e-05 1.669)
(6.12725e-05 6.12773e-05 1.80878)
(2.25356e-05 6.77829e-05 1.874)
(-2.25326e-05 6.77825e-05 1.874)
(-6.12699e-05 6.12759e-05 1.80878)
(-8.14777e-05 4.85806e-05 1.669)
(-7.74169e-05 3.35621e-05 1.44152)
(8.60217e-05 1.24017e-05 1.50143)
(9.10569e-05 1.7994e-05 1.73357)
(6.77785e-05 2.254e-05 1.874)
(2.43786e-05 2.43825e-05 1.93593)
(-2.43767e-05 2.43822e-05 1.93593)
(-6.77768e-05 2.25389e-05 1.874)
(-9.10559e-05 1.79922e-05 1.73357)
(-8.60234e-05 1.23997e-05 1.50143)
(8.6021e-05 -1.23887e-05 1.50143)
(9.10564e-05 -1.79803e-05 1.73357)
(6.77782e-05 -2.25285e-05 1.874)
(2.43783e-05 -2.4373e-05 1.93593)
(-2.4377e-05 -2.43732e-05 1.93593)
(-6.7777e-05 -2.25293e-05 1.874)
(-9.10559e-05 -1.79817e-05 1.73357)
(-8.60233e-05 -1.23903e-05 1.50143)
(7.74138e-05 -3.35521e-05 1.44152)
(8.14779e-05 -4.85698e-05 1.669)
(6.12714e-05 -6.12659e-05 1.80878)
(2.25346e-05 -6.77731e-05 1.874)
(-2.25336e-05 -6.77733e-05 1.874)
(-6.12706e-05 -6.12666e-05 1.80878)
(-8.14778e-05 -4.85708e-05 1.669)
(-7.74166e-05 -3.35534e-05 1.44152)
(6.27381e-05 -4.53551e-05 1.32345)
(6.47532e-05 -6.47484e-05 1.53546)
(4.85758e-05 -8.14734e-05 1.669)
(1.79873e-05 -9.10518e-05 1.73357)
(-1.79865e-05 -9.1052e-05 1.73357)
(-4.85753e-05 -8.1474e-05 1.669)
(-6.47532e-05 -6.47494e-05 1.53546)
(-6.27409e-05 -4.53566e-05 1.32345)
(4.5212e-05 -4.52113e-05 1.15119)
(4.53589e-05 -6.27353e-05 1.32345)
(3.35576e-05 -7.74107e-05 1.44152)
(1.23951e-05 -8.60175e-05 1.50143)
(-1.23947e-05 -8.60178e-05 1.50143)
(-3.35573e-05 -7.74117e-05 1.44152)
(-4.53594e-05 -6.27374e-05 1.32345)
(-4.52141e-05 -4.52136e-05 1.15119)
(2.23418e-05 2.23431e-05 1.15113)
(2.25621e-05 3.11679e-05 1.32341)
(1.67711e-05 3.8607e-05 1.44152)
(6.20867e-06 4.29811e-05 1.50145)
(-6.20863e-06 4.2981e-05 1.50145)
(-1.67713e-05 3.86067e-05 1.44152)
(-2.25628e-05 3.11675e-05 1.32341)
(-2.23434e-05 2.23437e-05 1.15113)
(3.11628e-05 2.25655e-05 1.32341)
(3.24197e-05 3.24244e-05 1.53548)
(2.44303e-05 4.09517e-05 1.66908)
(9.06394e-06 4.58416e-05 1.73369)
(-9.06402e-06 4.58415e-05 1.73369)
(-2.44306e-05 4.09516e-05 1.66908)
(-3.24205e-05 3.24242e-05 1.53548)
(-3.11655e-05 2.25659e-05 1.32341)
(3.8601e-05 1.67755e-05 1.44152)
(4.09471e-05 2.44352e-05 1.66908)
(3.09175e-05 3.0922e-05 1.80894)
(1.13896e-05 3.42529e-05 1.8742)
(-1.13899e-05 3.42529e-05 1.8742)
(-3.0918e-05 3.09219e-05 1.80894)
(-4.0948e-05 2.44351e-05 1.66908)
(-3.86033e-05 1.67756e-05 1.44152)
(4.29748e-05 6.21318e-06 1.50145)
(4.5837e-05 9.0689e-06 1.73369)
(3.42487e-05 1.13941e-05 1.8742)
(1.23354e-05 1.23393e-05 1.93618)
(-1.23358e-05 1.23393e-05 1.93618)
(-3.42493e-05 1.13939e-05 1.8742)
(-4.58377e-05 9.0687e-06 1.73369)
(-4.29766e-05 6.21308e-06 1.50145)
(4.29747e-05 -6.20436e-06 1.50145)
(4.58369e-05 -9.05936e-06 1.73369)
(3.42487e-05 -1.13858e-05 1.8742)
(1.23354e-05 -1.23321e-05 1.93618)
(-1.23359e-05 -1.23322e-05 1.93618)
(-3.42493e-05 -1.13859e-05 1.8742)
(-4.58376e-05 -9.05961e-06 1.73369)
(-4.29762e-05 -6.20458e-06 1.50145)
(3.86008e-05 -1.67674e-05 1.44152)
(4.0947e-05 -2.44263e-05 1.66908)
(3.09175e-05 -3.0914e-05 1.80894)
(1.13895e-05 -3.42456e-05 1.8742)
(-1.13902e-05 -3.42457e-05 1.8742)
(-3.09181e-05 -3.09142e-05 1.80894)
(-4.09476e-05 -2.44266e-05 1.66908)
(-3.86019e-05 -1.67677e-05 1.44152)
(3.11619e-05 -2.25584e-05 1.32341)
(3.24193e-05 -3.2416e-05 1.53548)
(2.44302e-05 -4.0944e-05 1.66908)
(9.06368e-06 -4.58341e-05 1.73369)
(-9.06444e-06 -4.58343e-05 1.73369)
(-2.44309e-05 -4.09444e-05 1.66908)
(-3.24199e-05 -3.24166e-05 1.53548)
(-3.11628e-05 -2.2559e-05 1.32341)
(2.23396e-05 -2.23386e-05 1.15113)
(2.25611e-05 -3.11598e-05 1.32341)
(1.6771e-05 -3.85988e-05 1.44152)
(6.20831e-06 -4.2973e-05 1.50145)
(-6.20919e-06 -4.29733e-05 1.50145)
(-1.67718e-05 -3.85997e-05 1.44152)
(-2.2562e-05 -3.11612e-05 1.32341)
(-2.23408e-05 -2.23397e-05 1.15113)
(1.14908e-05 1.1492e-05 1.1511)
(1.15725e-05 1.59838e-05 1.3234)
(8.58651e-06 1.97571e-05 1.44152)
(3.1773e-06 2.19749e-05 1.50146)
(-3.17532e-06 2.19744e-05 1.50146)
(-8.58484e-06 1.97557e-05 1.44152)
(-1.15715e-05 1.59818e-05 1.3234)
(-1.14916e-05 1.14918e-05 1.1511)
(1.59804e-05 1.15751e-05 1.3234)
(1.65712e-05 1.65746e-05 1.5355)
(1.24722e-05 2.09004e-05 1.66912)
(4.62657e-06 2.33836e-05 1.73375)
(-4.62493e-06 2.33833e-05 1.73375)
(-1.24709e-05 2.08995e-05 1.66912)
(-1.65708e-05 1.65732e-05 1.5355)
(-1.59832e-05 1.15743e-05 1.3234)
(1.97536e-05 8.58966e-06 1.44152)
(2.08971e-05 1.24758e-05 1.66912)
(1.57691e-05 1.57723e-05 1.80902)
(5.80944e-06 1.74677e-05 1.8743)
(-5.80838e-06 1.74675e-05 1.8743)
(-1.57683e-05 1.57717e-05 1.80902)
(-2.08972e-05 1.24748e-05 1.66912)
(-1.97567e-05 8.58877e-06 1.44152)
(2.19714e-05 3.18061e-06 1.50146)
(2.33805e-05 4.63027e-06 1.73375)
(1.74647e-05 5.81273e-06 1.8743)
(6.29105e-06 6.29393e-06 1.9363)
(-6.29044e-06 6.29378e-06 1.9363)
(-1.74644e-05 5.81224e-06 1.8743)
(-2.33809e-05 4.62947e-06 1.73375)
(-2.19749e-05 3.1798e-06 1.50146)
(2.19711e-05 -3.17195e-06 1.50146)
(2.33803e-05 -4.62114e-06 1.73375)
(1.74646e-05 -5.80501e-06 1.8743)
(6.29092e-06 -6.28745e-06 1.9363)
(-6.29057e-06 -6.28758e-06 1.9363)
(-1.74645e-05 -5.80539e-06 1.8743)
(-2.33809e-05 -4.62179e-06 1.73375)
(-2.19749e-05 -3.17272e-06 1.50146)
(1.97527e-05 -8.58156e-06 1.44152)
(2.08964e-05 -1.24671e-05 1.66912)
(1.57686e-05 -1.57647e-05 1.80902)
(5.80899e-06 -1.7461e-05 1.8743)
(-5.80881e-06 -1.74611e-05 1.8743)
(-1.57686e-05 -1.57651e-05 1.80902)
(-2.08971e-05 -1.24676e-05 1.66912)
(-1.97564e-05 -8.5822e-06 1.44152)
(1.59786e-05 -1.15677e-05 1.3234)
(1.65699e-05 -1.65664e-05 1.5355)
(1.24713e-05 -2.0893e-05 1.66912)
(4.6257e-06 -2.3377e-05 1.73375)
(-4.62573e-06 -2.33771e-05 1.73375)
(-1.24715e-05 -2.08934e-05 1.66912)
(-1.65706e-05 -1.65669e-05 1.5355)
(-1.59821e-05 -1.15688e-05 1.3234)
(1.14882e-05 -1.14876e-05 1.1511)
(1.15706e-05 -1.59765e-05 1.3234)
(8.5854e-06 -1.97503e-05 1.44152)
(3.17619e-06 -2.19687e-05 1.50146)
(-3.17637e-06 -2.1969e-05 1.50146)
(-8.58564e-06 -1.97512e-05 1.44152)
(-1.15714e-05 -1.59783e-05 1.3234)
(-1.14904e-05 -1.14899e-05 1.1511)
(5.80189e-06 5.80263e-06 1.15108)
(5.85493e-06 8.08725e-06 1.32339)
(4.34974e-06 1.00104e-05 1.44152)
(1.60961e-06 1.1142e-05 1.50146)
(-1.61187e-06 1.11424e-05 1.50146)
(-4.35199e-06 1.00114e-05 1.44152)
(-5.85768e-06 8.08899e-06 1.32339)
(-5.80521e-06 5.80505e-06 1.15108)
(8.08427e-06 5.85716e-06 1.32339)
(8.40357e-06 8.40649e-06 1.5355)
(6.33298e-06 1.06142e-05 1.66915)
(2.34968e-06 1.18823e-05 1.73378)
(-2.35183e-06 1.18825e-05 1.73378)
(-6.3352e-06 1.06149e-05 1.66915)
(-8.40624e-06 8.40769e-06 1.5355)
(-8.08882e-06 5.85915e-06 1.32339)
(1.00068e-05 4.35279e-06 1.44152)
(1.06113e-05 6.3363e-06 1.66915)
(8.0167e-06 8.0197e-06 1.80906)
(2.95424e-06 8.88632e-06 1.87436)
(-2.95597e-06 8.88646e-06 1.87436)
(-8.01851e-06 8.02014e-06 1.80906)
(-1.06134e-05 6.33709e-06 1.66915)
(-1.00104e-05 4.35389e-06 1.44152)
(1.11381e-05 1.61291e-06 1.50146)
(1.18794e-05 2.35318e-06 1.73378)
(8.88354e-06 2.95732e-06 1.87436)
(3.20093e-06 3.20365e-06 1.93637)
(-3.20232e-06 3.20374e-06 1.93637)
(-8.88499e-06 2.95764e-06 1.87436)
(-1.1881e-05 2.35381e-06 1.73378)
(-1.11409e-05 1.61378e-06 1.50146)
(1.11384e-05 -1.60862e-06 1.50146)
(1.18796e-05 -2.34839e-06 1.73378)
(8.88369e-06 -2.95293e-06 1.87436)
(3.20104e-06 -3.19963e-06 1.93637)
(-3.20225e-06 -3.19956e-06 1.93637)
(-8.88492e-06 -2.95269e-06 1.87436)
(-1.18808e-05 -2.34792e-06 1.73378)
(-1.11405e-05 -1.608e-06 1.50146)
(1.00076e-05 -4.34892e-06 1.44152)
(1.06119e-05 -6.33186e-06 1.66915)
(8.01714e-06 -8.01548e-06 1.80906)
(2.95457e-06 -8.88223e-06 1.87436)
(-2.95574e-06 -8.88219e-06 1.87436)
(-8.01827e-06 -8.01536e-06 1.80906)
(-1.06128e-05 -6.33159e-06 1.66915)