/*--------------------------------*- C++ -*----------------------------------*\
| =========                 |                                                 |
| \\      /  F ield         | OpenFOAM: The Open Source CFD Toolbox           |
|  \\    /   O peration     | Version:  2406                                  |
|   \\  /    A nd           | Website:  www.openfoam.com                      |
|    \\/     M anipulation  |                                                 |
\*---------------------------------------------------------------------------*/
FoamFile
{
    version     2.0;
    format      ascii;
    arch        "LSB;label=32;scalar=64";
    class       volScalarField;
    location    "1.9";
    object      div(phi);
}
// * * * * * * * * * * * * * * * * * * * * * * * * * * * * * * * * * * * * * //

dimensions      [0 0 -1 0 0 0 0];

internalField   nonuniform List<scalar> 
25000
(
-1.01681e-07
-8.18807e-08
-8.38487e-08
-6.9339e-08
-5.19381e-08
-4.78783e-08
-3.99511e-08
-1.60314e-08
-4.43997e-08
-2.71276e-08
-7.7683e-08
-7.35069e-08
-6.28433e-08
-5.65871e-08
-5.9448e-08
-3.10485e-08
-3.24633e-08
-3.68593e-08
-2.48827e-09
-2.37352e-08
-4.43618e-08
-3.8284e-08
-5.60347e-08
-4.56077e-08
-3.29525e-08
-3.80764e-08
-1.72299e-08
1.84853e-10
-2.28848e-08
-1.07896e-08
-3.10145e-08
-3.93973e-08
-2.33051e-08
-2.98633e-08
-2.93043e-08
-8.53806e-09
-8.11168e-09
-1.18158e-08
9.85962e-09
-1.1697e-08
-1.1219e-08
-9.08382e-09
-2.58396e-08
-1.72416e-08
-1.0189e-08
-1.31132e-08
2.37196e-09
1.28277e-08
-2.06617e-09
-3.85977e-09
-9.99388e-09
-1.76804e-08
-3.88997e-09
-1.15362e-08
-6.52219e-09
4.73556e-09
8.37548e-09
6.53676e-09
1.36539e-08
-4.25078e-09
6.18295e-09
2.6799e-09
-7.75173e-09
4.34519e-09
3.73085e-09
8.03331e-09
1.64509e-08
1.70251e-08
1.12235e-08
-3.10483e-09
-4.84713e-10
2.3041e-09
6.51322e-09
5.47268e-09
9.413e-09
1.6068e-08
1.48814e-08
1.76942e-08
1.17814e-08
-1.4266e-09
1.84196e-08
1.32547e-09
1.04105e-08
4.64984e-09
1.15333e-08
7.15854e-09
1.81349e-08
1.02263e-08
1.27263e-08
-4.61133e-09
2.82614e-09
-2.63306e-09
-5.6528e-09
-2.31373e-09
-3.32177e-09
2.73776e-09
3.98088e-09
5.22127e-09
8.38701e-09
-7.12663e-09
-1.01669e-08
-1.97786e-09
-1.22307e-08
-7.42588e-09
-4.26421e-09
3.40808e-09
1.29626e-10
2.7493e-08
1.24442e-08
4.3772e-09
-1.49954e-08
-1.85632e-08
-2.32959e-08
-1.55455e-08
-2.35191e-08
-3.28809e-09
4.24443e-09
4.09789e-10
2.18561e-08
-6.33357e-09
-2.30457e-09
-3.57777e-09
-1.6306e-08
-1.48894e-08
-8.90825e-09
-8.18247e-09
4.74744e-09
1.74885e-08
4.20814e-09
-3.43693e-09
6.56452e-10
-8.67709e-09
-1.83715e-09
-8.58241e-09
-9.29972e-09
3.14402e-09
9.39892e-09
8.02462e-09
1.92742e-08
-5.57553e-09
-1.99474e-10
4.48335e-09
-7.87936e-09
-4.38692e-09
-1.36788e-09
-1.19325e-10
1.36791e-08
1.9515e-08
1.1707e-08
-3.14813e-09
-2.21252e-11
-7.17687e-09
2.31727e-09
-5.08845e-09
9.69618e-10
8.2904e-09
1.62917e-08
1.78576e-08
1.84042e-08
-4.23914e-09
5.38371e-10
4.49009e-09
-5.5422e-09
6.41801e-09
2.77275e-09
1.24456e-08
2.58647e-08
2.03473e-08
2.05633e-08
-3.5878e-09
-1.58905e-09
-3.46674e-12
4.56095e-09
3.12621e-09
7.6624e-09
2.25348e-08
1.58488e-08
3.18195e-08
1.8827e-08
-7.90581e-10
7.2705e-09
-3.24241e-09
5.48327e-09
-3.67739e-09
1.32648e-08
8.16707e-10
3.35541e-08
1.46838e-08
2.7931e-08
9.90423e-10
-3.1987e-10
-1.20715e-09
-7.86005e-09
-1.08138e-09
-6.01155e-09
9.81212e-09
9.33436e-09
1.51101e-08
2.42185e-08
-6.48359e-09
-2.17174e-07
-1.62822e-07
-1.61518e-07
-1.19161e-07
-8.23207e-08
-6.62438e-08
-5.27666e-08
8.71229e-09
-5.19497e-08
-1.29011e-08
-1.70382e-07
-1.41404e-07
-1.13217e-07
-9.4747e-08
-1.02321e-07
-4.4468e-08
-4.43956e-08
-5.3568e-08
2.01233e-08
-2.10174e-08
-7.99582e-08
-5.61953e-08
-8.35047e-08
-6.42448e-08
-4.04966e-08
-4.95089e-08
-1.47219e-08
2.39086e-08
-1.65425e-08
4.75428e-09
-4.85132e-08
-4.71227e-08
-1.66774e-08
-2.78609e-08
-2.85653e-08
3.51607e-09
7.68409e-09
2.70714e-09
4.17158e-08
5.93632e-09
-2.56915e-09
1.13698e-08
-1.61037e-08
-3.94947e-09
4.15929e-09
1.1249e-10
2.18198e-08
4.18652e-08
2.54167e-08
1.71385e-08
4.61533e-09
-9.73018e-10
2.01353e-08
5.04263e-09
1.10073e-08
2.21881e-08
3.22963e-08
3.47229e-08
4.3039e-08
1.89843e-08
2.95946e-08
3.353e-08
1.10645e-08
2.76362e-08
1.87245e-08
2.9401e-08
4.13855e-08
4.09225e-08
4.55749e-08
1.44354e-08
2.64158e-08
2.72943e-08
3.30379e-08
2.38035e-08
2.97553e-08
3.7953e-08
3.39957e-08
5.24871e-08
3.46501e-08
2.01772e-08
4.71125e-08
2.67792e-08
3.36894e-08
2.11041e-08
3.29626e-08
2.13236e-08
4.87845e-08
2.7389e-08
4.39654e-08
5.99513e-09
2.41085e-08
1.81189e-08
8.92365e-09
1.58374e-08
1.13047e-08
2.5171e-08
2.35067e-08
3.13992e-08
3.24732e-08
6.49428e-09
9.83677e-08
9.76667e-08
6.13724e-08
7.15652e-08
5.12746e-08
4.17102e-08
2.20028e-08
8.80959e-08
1.5848e-08
3.16876e-08
5.59994e-08
1.73998e-08
3.15213e-08
3.06733e-09
-2.66325e-08
9.54089e-09
2.6748e-09
-1.12089e-08
7.2714e-08
3.30186e-09
9.19447e-08
8.23556e-08
3.16572e-08
2.77831e-08
2.88571e-08
2.39617e-09
3.5539e-08
7.40702e-08
2.98347e-08
2.82106e-08
9.0236e-08
6.26428e-08
7.76164e-08
5.11109e-08
3.25682e-08
5.54511e-08
5.64184e-08
4.80643e-08
8.81286e-08
2.81452e-08
9.66414e-08
9.66733e-08
6.49425e-08
6.10072e-08
5.74193e-08
4.40613e-08
6.81582e-08
8.65543e-08
6.58633e-08
3.8537e-08
9.22158e-08
7.19991e-08
8.26741e-08
6.37921e-08
5.50165e-08
6.5974e-08
7.38177e-08
7.48747e-08
8.4882e-08
3.66436e-08
9.15674e-08
9.45891e-08
7.23282e-08
7.38844e-08
6.48234e-08
6.46677e-08
8.45929e-08
8.25834e-08
8.04226e-08
3.56619e-08
9.46095e-08
7.9388e-08
8.51876e-08
7.06261e-08
6.54155e-08
7.90617e-08
7.15903e-08
9.00866e-08
7.76698e-08
3.58153e-08
9.12703e-08
8.75878e-08
7.25319e-08
6.02358e-08
6.54939e-08
4.9954e-08
8.61731e-08
6.69301e-08
8.12405e-08
3.37563e-08
7.53691e-08
5.68817e-08
4.66613e-08
4.44749e-08
3.63073e-08
5.06907e-08
5.11879e-08
5.60331e-08
6.74072e-08
1.44011e-08
-2.53174e-07
-1.83779e-07
-1.97124e-07
-1.28029e-07
-8.47186e-08
-6.16257e-08
-3.75466e-08
5.4204e-08
-3.65766e-08
1.99138e-08
-1.85965e-07
-1.79849e-07
-1.25878e-07
-1.15971e-07
-1.31816e-07
-3.85779e-08
-4.86887e-08
-5.26168e-08
6.76808e-08
1.16922e-09
-4.36431e-08
-2.62409e-08
-8.42781e-08
-5.51988e-08
-2.19954e-08
-4.78021e-08
1.45118e-08
7.27561e-08
8.84943e-09
4.5154e-08
7.1623e-09
-2.00896e-08
3.08454e-08
6.85422e-09
-1.33661e-09
4.83916e-08
4.59718e-08
3.91597e-08
1.06156e-07
4.59153e-08
7.67923e-08
7.607e-08
2.82039e-08
4.48795e-08
5.14984e-08
3.60735e-08
7.22051e-08
1.06202e-07
7.14881e-08
6.88958e-08
8.5066e-08
5.3023e-08
8.70421e-08
5.96619e-08
5.88842e-08
7.77993e-08
8.72482e-08
8.66675e-08
1.1399e-07
6.64909e-08
1.27326e-07
1.07773e-07
7.5052e-08
9.51563e-08
8.24445e-08
8.61996e-08
1.04717e-07
1.15741e-07
1.01296e-07
7.14386e-08
1.16054e-07
1.02641e-07
1.07749e-07
9.70986e-08
9.62472e-08
1.09074e-07
1.05404e-07
1.14341e-07
1.12721e-07
7.15898e-08
1.50387e-07
9.42608e-08
1.12066e-07
8.97089e-08
1.04989e-07
8.84001e-08
1.15645e-07
1.07255e-07
1.08233e-07
6.58469e-08
9.86339e-08
7.12318e-08
5.96348e-08
6.79724e-08
6.07855e-08
7.56062e-08
7.7786e-08
8.23289e-08
8.62999e-08
4.62259e-08
2.51951e-07
2.36887e-07
1.89186e-07
2.00891e-07
1.6498e-07
1.50984e-07
1.24533e-07
1.82391e-07
1.12367e-07
9.49287e-08
1.96499e-07
1.23868e-07
1.36073e-07
9.45963e-08
5.48569e-08
8.7914e-08
7.46209e-08
6.34285e-08
1.43365e-07
5.04379e-08
2.13388e-07
1.83835e-07
1.20908e-07
1.11619e-07
1.0287e-07
6.63417e-08
1.03796e-07
1.36696e-07
9.02869e-08
7.13181e-08
2.029e-07
1.45451e-07
1.61275e-07
1.2415e-07
9.43394e-08
1.15172e-07
1.12373e-07
1.04532e-07
1.46471e-07
6.68057e-08
1.93783e-07
1.75038e-07
1.36306e-07
1.25529e-07
1.11723e-07
9.16058e-08
1.23354e-07
1.42835e-07
1.1441e-07
7.87056e-08
1.85747e-07
1.40936e-07
1.51607e-07
1.24547e-07
1.05967e-07
1.18567e-07
1.25803e-07
1.24784e-07
1.42643e-07
7.04535e-08
1.80961e-07
1.61599e-07
1.38299e-07
1.36339e-07
1.23565e-07
1.16137e-07
1.42231e-07
1.43758e-07
1.25002e-07
7.8361e-08
1.77652e-07
1.47238e-07
1.49492e-07
1.35897e-07
1.21739e-07
1.41944e-07
1.30383e-07
1.41621e-07
1.43562e-07
6.99065e-08
1.74593e-07
1.44681e-07
1.37705e-07
1.17216e-07
1.27547e-07
1.03017e-07
1.45212e-07
1.33694e-07
1.34298e-07
8.4431e-08
1.4409e-07
1.08469e-07
9.58413e-08
9.49725e-08
8.09784e-08
9.75457e-08
9.88258e-08
9.80646e-08
1.17969e-07
4.05386e-08
-1.67652e-07
-1.05791e-07
-1.02585e-07
-3.90139e-08
-2.20632e-09
1.12267e-08
3.73234e-08
9.71511e-08
2.32552e-08
5.97376e-08
-1.1304e-07
-8.95763e-08
-2.60789e-08
-3.09724e-08
-3.80927e-08
2.97498e-08
1.29435e-08
1.1534e-08
1.10151e-07
5.05483e-08
1.92916e-09
3.51559e-08
-1.41507e-08
1.8636e-08
4.13994e-08
1.16733e-08
6.59112e-08
1.11254e-07
5.81225e-08
9.02791e-08
4.26858e-08
3.03804e-08
8.66845e-08
6.23191e-08
5.04821e-08
9.20179e-08
8.29817e-08
8.1934e-08
1.42603e-07
9.114e-08
1.12154e-07
1.23185e-07
7.83235e-08
9.30339e-08
9.37783e-08
7.27326e-08
1.08071e-07
1.3928e-07
1.11717e-07
1.11731e-07
1.28258e-07
1.01544e-07
1.35822e-07
1.11044e-07
9.6493e-08
1.15906e-07
1.17496e-07
1.22073e-07
1.49057e-07
1.09481e-07
1.68009e-07
1.59621e-07
1.33721e-07
1.38572e-07
1.3047e-07
1.17635e-07
1.32948e-07
1.45363e-07
1.3285e-07
1.09443e-07
1.75319e-07
1.56206e-07
1.6377e-07
1.50584e-07
1.38358e-07
1.37607e-07
1.3591e-07
1.33994e-07
1.43071e-07
1.07369e-07
1.93746e-07
1.61855e-07
1.5961e-07
1.47404e-07
1.36577e-07
1.30328e-07
1.27501e-07
1.35862e-07
1.26842e-07
8.90264e-08
1.55232e-07
1.18386e-07
1.13512e-07
1.09825e-07
1.06901e-07
1.0608e-07
1.10324e-07
1.12245e-07
1.0858e-07
7.79125e-08
3.6597e-07
3.52642e-07
3.13715e-07
3.28238e-07
2.72396e-07
2.52031e-07
2.21396e-07
2.38729e-07
2.0067e-07
1.39584e-07
2.73058e-07
2.16041e-07
2.42089e-07
1.83754e-07
1.62639e-07
1.60795e-07
1.52423e-07
1.47257e-07
1.90815e-07
1.05104e-07
2.80103e-07
2.51692e-07
2.02476e-07
1.94139e-07
1.71122e-07
1.401e-07
1.62911e-07
1.78592e-07
1.57384e-07
1.14097e-07
2.38396e-07
2.0925e-07
2.21064e-07
1.86122e-07
1.53952e-07
1.58914e-07
1.57624e-07
1.59136e-07
1.81706e-07
1.12436e-07
2.28718e-07
2.22414e-07
1.936e-07
1.76564e-07
1.54632e-07
1.3457e-07
1.62142e-07
1.74775e-07
1.63862e-07
1.16374e-07
2.17019e-07
1.93713e-07
1.99157e-07
1.79389e-07
1.44402e-07
1.55331e-07
1.57736e-07
1.65972e-07
1.75012e-07
1.09147e-07
2.05474e-07
2.15721e-07
2.02276e-07
1.76173e-07
1.72217e-07
1.45935e-07
1.71453e-07
1.70149e-07
1.58024e-07
1.10419e-07
2.35569e-07
1.98898e-07
2.0893e-07
1.89527e-07
1.59998e-07
1.67522e-07
1.57939e-07
1.61244e-07
1.72759e-07
9.79683e-08
2.01775e-07
2.35478e-07
1.79658e-07
1.77227e-07
1.52039e-07
1.41646e-07
1.54747e-07
1.6151e-07
1.528e-07
1.06211e-07
2.08054e-07
1.57715e-07
1.55102e-07
1.33683e-07
1.26919e-07
1.25632e-07
1.31776e-07
1.26916e-07
1.44861e-07
6.63576e-08
-9.99194e-08
-5.59648e-08
-3.61567e-08
3.07123e-08
9.10429e-08
1.10593e-07
1.43545e-07
1.92504e-07
1.27698e-07
1.13886e-07
1.12334e-08
-2.23574e-08
1.84619e-08
4.71092e-08
3.85012e-08
1.14517e-07
1.01039e-07
9.99585e-08
1.8583e-07
9.94885e-08
1.35911e-07
7.90387e-08
3.44759e-08
7.34834e-08
1.00597e-07
7.71345e-08
1.35534e-07
1.75726e-07
1.25885e-07
1.3218e-07
1.61989e-07
7.00942e-08
1.2583e-07
1.0116e-07
9.44623e-08
1.39684e-07
1.37044e-07
1.40185e-07
2.00325e-07
1.28816e-07
2.39757e-07
1.58419e-07
1.03599e-07
1.26575e-07
1.26756e-07
1.11698e-07
1.55502e-07
1.91555e-07
1.62291e-07
1.48345e-07
2.33206e-07
1.32544e-07
1.70562e-07
1.3507e-07
1.31962e-07
1.51883e-07
1.64215e-07
1.70839e-07
2.04726e-07
1.37689e-07
3.04637e-07
1.93035e-07
1.58727e-07
1.80595e-07
1.65047e-07
1.64037e-07
1.88251e-07
2.04774e-07
1.77062e-07
1.47607e-07
2.70065e-07
2.09003e-07
1.9737e-07
1.94867e-07
1.83207e-07
2.0071e-07
1.92387e-07
1.9285e-07
2.1291e-07
1.35835e-07
3.30218e-07
1.71538e-07
2.19979e-07
1.81845e-07
2.04954e-07
1.77716e-07
2.02777e-07
2.10659e-07
1.89687e-07
1.44723e-07
2.46099e-07
1.54708e-07
1.40649e-07
1.53199e-07
1.41025e-07
1.55758e-07
1.61597e-07
1.62047e-07
1.74998e-07
1.05317e-07
5.56983e-07
4.81714e-07
4.54231e-07
4.32172e-07
3.83536e-07
3.59116e-07
3.22757e-07
3.2966e-07
2.98243e-07
1.8216e-07
4.91032e-07
3.5381e-07
3.25392e-07
2.92709e-07
2.59428e-07
2.48542e-07
2.43399e-07
2.3139e-07
2.5954e-07
1.45297e-07
4.18268e-07
3.05583e-07
2.77172e-07
2.59899e-07
2.34047e-07
2.08851e-07
2.27631e-07
2.36492e-07
2.19184e-07
1.45679e-07
3.58827e-07
2.50977e-07
2.48914e-07
2.22219e-07
1.95602e-07
1.99575e-07
2.07144e-07
2.10261e-07
2.30145e-07
1.39548e-07
3.17787e-07
2.30296e-07
2.08673e-07
1.97397e-07
1.77128e-07
1.67048e-07
2.00642e-07
2.1757e-07
2.05992e-07
1.41534e-07
2.91038e-07
2.02443e-07
2.06616e-07
1.84525e-07
1.6778e-07
1.78e-07
1.9592e-07
2.05758e-07
2.20156e-07
1.25418e-07
2.97188e-07
2.07785e-07
1.97828e-07
1.95697e-07
1.84734e-07
1.79933e-07
2.15927e-07
2.16881e-07
1.92444e-07
1.37023e-07
2.80276e-07
2.16722e-07
2.0556e-07
2.05264e-07
1.84127e-07
2.17219e-07
1.98816e-07
2.13126e-07
2.31271e-07
1.15148e-07
2.94546e-07
1.9396e-07
2.1132e-07
1.81461e-07
2.0686e-07
1.68745e-07
2.26264e-07
2.22112e-07
2.09358e-07
1.53805e-07
2.64175e-07
1.74946e-07
1.62074e-07
1.68756e-07
1.49332e-07
1.7304e-07
1.76216e-07
1.73167e-07
2.09711e-07
8.70946e-08
7.06746e-08
1.03009e-07
1.28799e-07
1.70411e-07
2.02655e-07
2.06763e-07
2.29053e-07
2.42185e-07
1.96269e-07
1.46192e-07
1.46481e-07
1.36573e-07
1.69673e-07
1.72588e-07
1.66352e-07
1.99016e-07
1.81471e-07
1.76529e-07
2.35541e-07
1.53779e-07
2.08633e-07
1.77594e-07
1.50922e-07
1.79396e-07
1.84785e-07
1.57426e-07
1.96394e-07
2.20641e-07
1.88845e-07
1.78947e-07
2.06326e-07
1.5293e-07
2.00217e-07
1.76537e-07
1.61928e-07
1.88601e-07
1.8288e-07
1.91462e-07
2.38353e-07
1.7697e-07
2.58316e-07
2.09809e-07
1.69152e-07
1.82047e-07
1.72487e-07
1.54467e-07
1.91627e-07
2.23084e-07
2.09789e-07
1.89067e-07
2.53494e-07
1.84433e-07
2.15795e-07
1.87011e-07
1.68713e-07
1.8385e-07
1.92903e-07
2.08422e-07
2.35312e-07
1.78114e-07
3.04752e-07
2.34936e-07
2.11017e-07
2.13671e-07
2.01498e-07
1.88268e-07
2.0993e-07
2.23036e-07
2.07107e-07
1.78459e-07
2.97944e-07
2.44121e-07
2.40164e-07
2.31066e-07
2.10088e-07
2.15567e-07
2.06619e-07
2.08891e-07
2.33577e-07
1.647e-07
3.27285e-07
2.33454e-07
2.43448e-07
2.20896e-07
2.18008e-07
1.99695e-07
2.07738e-07
2.24954e-07
2.05729e-07
1.61552e-07
2.88504e-07
1.94522e-07
1.85863e-07
1.85895e-07
1.78213e-07
1.83299e-07
1.90594e-07
1.95806e-07
2.04696e-07
1.3796e-07
5.73154e-07
5.21371e-07
5.05286e-07
4.91163e-07
4.27609e-07
4.06981e-07
3.69653e-07
3.42194e-07
3.46094e-07
1.95578e-07
4.98338e-07
3.99441e-07
3.8449e-07
3.41084e-07
3.30213e-07
2.85548e-07
2.91266e-07
2.85652e-07
2.7607e-07
1.85772e-07
4.30135e-07
3.3829e-07
3.32975e-07
3.11559e-07
2.73686e-07
2.60231e-07
2.58211e-07
2.50722e-07
2.66498e-07
1.73415e-07
3.633e-07
2.98057e-07
2.81368e-07
2.63431e-07
2.35948e-07
2.1892e-07
2.3121e-07
2.43741e-07
2.37469e-07
1.72689e-07
3.13251e-07
2.53462e-07
2.52153e-07
2.28032e-07
1.99932e-07
1.94505e-07
2.14392e-07
2.22579e-07
2.36383e-07
1.63186e-07
2.95373e-07
2.39286e-07
2.27407e-07
2.18086e-07
1.87255e-07
1.88401e-07
2.05352e-07
2.25062e-07
2.22588e-07
1.50876e-07
2.74675e-07
2.28246e-07
2.33879e-07
2.05531e-07
2.0104e-07
1.8577e-07
2.14317e-07
2.09049e-07
2.03658e-07
1.50252e-07
2.93177e-07
2.30506e-07
2.25343e-07
2.19984e-07
1.90084e-07
2.07136e-07
1.90854e-07
2.07893e-07
2.23833e-07
1.29317e-07
2.61782e-07
2.39508e-07
2.10109e-07
2.03607e-07
1.96652e-07
1.73955e-07
2.0713e-07
2.11221e-07
2.02922e-07
1.53189e-07
2.84446e-07
1.95738e-07
1.95271e-07
1.85277e-07
1.74352e-07
1.82927e-07
1.86731e-07
1.87307e-07
2.15024e-07
1.07381e-07
2.17298e-07
2.09918e-07
2.3224e-07
2.50371e-07
2.86419e-07
2.89888e-07
3.08105e-07
3.05206e-07
2.78914e-07
1.94012e-07
2.93736e-07
2.35508e-07
2.26395e-07
2.49227e-07
2.33589e-07
2.58534e-07
2.46573e-07
2.4292e-07
2.72541e-07
1.98174e-07
3.29076e-07
2.36265e-07
2.16346e-07
2.29475e-07
2.28531e-07
2.10219e-07
2.35254e-07
2.4862e-07
2.34664e-07
2.07405e-07
3.1973e-07
2.11649e-07
2.33142e-07
2.10312e-07
1.94178e-07
2.0775e-07
2.08894e-07
2.20441e-07
2.5235e-07
1.99439e-07
3.45089e-07
2.36049e-07
1.97779e-07
2.00543e-07
1.83895e-07
1.74274e-07
2.01983e-07
2.31926e-07
2.24265e-07
2.04031e-07
3.2593e-07
2.10655e-07
2.25161e-07
1.90598e-07
1.81406e-07
1.84015e-07
2.02941e-07
2.16068e-07
2.43482e-07
1.85512e-07
3.70396e-07
2.34514e-07
2.08227e-07
2.1989e-07
1.96069e-07
1.99579e-07
2.16676e-07
2.33891e-07
2.10896e-07
1.93584e-07
3.23377e-07
2.49788e-07
2.26154e-07
2.24714e-07
2.10505e-07
2.25707e-07
2.14547e-07
2.21896e-07
2.49964e-07
1.7288e-07
3.69663e-07
1.95609e-07
2.45034e-07
2.05306e-07
2.32231e-07
2.00798e-07
2.3131e-07
2.44832e-07
2.23048e-07
1.89947e-07
2.93167e-07
1.8189e-07
1.66933e-07
1.82928e-07
1.69448e-07
1.87924e-07
1.93006e-07
2.01081e-07
2.16439e-07
1.4531e-07
5.38083e-07
4.74024e-07
4.77322e-07
4.43327e-07
4.2076e-07
4.22086e-07
3.99478e-07
3.78248e-07
4.11041e-07
2.46224e-07
4.72333e-07
3.72016e-07
3.08704e-07
3.3176e-07
3.20238e-07
2.9573e-07
3.23647e-07
3.28943e-07
2.87651e-07
2.23186e-07
3.97851e-07
2.74276e-07
3.03143e-07
2.7589e-07
2.5482e-07
2.72299e-07
2.61512e-07
2.51642e-07
2.93839e-07
1.91096e-07
3.50533e-07
2.64863e-07
2.24578e-07
2.27644e-07
2.17359e-07
1.96008e-07
2.28784e-07
2.5027e-07
2.24924e-07
1.84555e-07
2.92623e-07
1.93395e-07
2.09678e-07
1.88151e-07
1.65783e-07
1.8572e-07
1.94857e-07
2.04357e-07
2.32409e-07
1.64958e-07
2.64799e-07
1.95436e-07
1.73089e-07
1.64293e-07
1.66182e-07
1.51512e-07
1.91542e-07
2.12795e-07
2.04952e-07
1.50811e-07
2.53606e-07
1.61063e-07
1.63121e-07
1.69147e-07
1.46531e-07
1.74759e-07
1.95632e-07
1.94585e-07
1.99179e-07
1.54801e-07
2.20372e-07
1.71362e-07
1.52328e-07
1.56691e-07
1.568e-07
1.8703e-07
1.73952e-07
2.14267e-07
2.13302e-07
1.35616e-07
2.28554e-07
1.29841e-07
1.6243e-07
1.3864e-07
1.83401e-07
1.48169e-07
2.22161e-07
2.03378e-07
2.104e-07
1.67323e-07
1.95073e-07
1.30948e-07
1.23764e-07
1.48617e-07
1.35023e-07
1.70363e-07
1.66815e-07
1.76878e-07
2.00524e-07
1.04127e-07
3.11002e-07
2.57887e-07
2.86747e-07
2.60484e-07
3.24123e-07
3.41183e-07
3.68267e-07
3.58951e-07
3.86897e-07
2.8505e-07
3.36572e-07
2.8582e-07
2.07804e-07
2.93109e-07
2.68971e-07
2.98427e-07
3.1256e-07
3.28146e-07
2.93459e-07
2.69467e-07
3.55872e-07
2.25313e-07
2.42157e-07
2.34067e-07
2.38392e-07
2.57239e-07
2.57422e-07
2.56588e-07
2.96394e-07
2.43658e-07
3.40026e-07
2.32708e-07
2.10429e-07
2.04678e-07
2.01027e-07
1.92231e-07
2.19703e-07
2.49525e-07
2.33582e-07
2.34188e-07
3.46304e-07
2.08602e-07
1.92075e-07
1.81614e-07
1.59634e-07
1.82383e-07
1.85171e-07
2.04917e-07
2.4138e-07
2.13274e-07
3.10987e-07
2.04788e-07
1.89302e-07
1.52737e-07
1.71287e-07
1.40815e-07
1.87466e-07
2.13595e-07
2.07421e-07
2.0597e-07
3.39269e-07
1.86484e-07
1.52048e-07
1.84746e-07
1.30472e-07
1.84852e-07
1.80857e-07
1.90206e-07
2.21013e-07
1.95497e-07
2.48695e-07
1.91644e-07
1.54756e-07
1.45224e-07
1.67244e-07
1.73652e-07
1.71271e-07
2.23054e-07
1.99604e-07
1.8998e-07
2.96439e-07
9.69837e-08
1.75931e-07
1.32622e-07
1.8885e-07
1.57947e-07
2.17403e-07
1.88633e-07
2.12333e-07
1.7478e-07
1.6707e-07
1.13691e-07
9.62625e-08
1.3846e-07
1.26825e-07
1.62975e-07
1.53124e-07
1.77902e-07
1.66119e-07
1.36386e-07
5.618e-07
4.55246e-07
4.78788e-07
3.90123e-07
4.09016e-07
4.23474e-07
4.19414e-07
3.96801e-07
4.79015e-07
3.34871e-07
4.54334e-07
3.99808e-07
2.69445e-07
3.51435e-07
3.3332e-07
3.11149e-07
3.64061e-07
3.89853e-07
2.84598e-07
2.91416e-07
3.49182e-07
2.33995e-07
3.06102e-07
2.58984e-07
2.4587e-07
3.01792e-07
2.63245e-07
2.43165e-07
3.37714e-07
2.26974e-07
3.22463e-07
2.60991e-07
1.79667e-07
2.05497e-07
2.10895e-07
1.66797e-07
2.2581e-07
2.65976e-07
1.91329e-07
2.19991e-07
2.55306e-07
1.45533e-07
1.90346e-07
1.57831e-07
1.32769e-07
1.86692e-07
1.66611e-07
1.66044e-07
2.39997e-07
1.75056e-07
2.28445e-07
1.77759e-07
1.25447e-07
1.20475e-07
1.50718e-07
1.0173e-07
1.67101e-07
2.01868e-07
1.56676e-07
1.78256e-07
2.02501e-07
1.00568e-07
1.00961e-07
1.26675e-07
7.5312e-08
1.53595e-07
1.46659e-07
1.39378e-07
2.07201e-07
1.57988e-07
1.31839e-07
1.02464e-07
7.31061e-08
6.92924e-08
1.09059e-07
1.19978e-07
1.22315e-07
2.04804e-07
1.45065e-07
1.59988e-07
1.3692e-07
2.36212e-08
8.44316e-08
6.63426e-08
1.28227e-07
1.04713e-07
1.88447e-07
1.29286e-07
1.8528e-07
1.40923e-07
4.17974e-08
5.35457e-08
5.09008e-08
9.8413e-08
9.09148e-08
1.33742e-07
1.13259e-07
1.38243e-07
1.20583e-07
9.23028e-08
4.32187e-07
3.51214e-07
3.91783e-07
3.04649e-07
3.73373e-07
3.86868e-07
4.13609e-07
4.02778e-07
4.70511e-07
3.9954e-07
3.56641e-07
3.53821e-07
2.27856e-07
3.36619e-07
3.07581e-07
3.16886e-07
3.56017e-07
3.8872e-07
2.97719e-07
3.40179e-07
3.07328e-07
2.2165e-07
2.80256e-07
2.43847e-07
2.43422e-07
2.93634e-07
2.62004e-07
2.54426e-07
3.40258e-07
2.80725e-07
3.09075e-07
2.51641e-07
1.84928e-07
2.02186e-07
2.06913e-07
1.69907e-07
2.21711e-07
2.64885e-07
2.06093e-07
2.65232e-07
2.81376e-07
1.67339e-07
1.91631e-07
1.63513e-07
1.36626e-07
1.86879e-07
1.62787e-07
1.7256e-07
2.43154e-07
2.2183e-07
2.52362e-07
1.92491e-07
1.46258e-07
1.24373e-07
1.59876e-07
1.03521e-07
1.65837e-07
1.99112e-07
1.67896e-07
2.25218e-07
2.48239e-07
1.27585e-07
1.06677e-07
1.46274e-07
7.77117e-08
1.63256e-07
1.39979e-07
1.48593e-07
2.21644e-07
2.01752e-07
1.47139e-07
1.21535e-07
8.75907e-08
7.30148e-08
1.22994e-07
1.16997e-07
1.30903e-07
2.07368e-07
1.49346e-07
2.07689e-07
1.7358e-07
2.13912e-08
1.00067e-07
7.34527e-08
1.33646e-07
1.19578e-07
1.80968e-07
1.32474e-07
1.88635e-07
1.6312e-07
1.03443e-08
4.24057e-08
3.4557e-08
8.60606e-08
8.10402e-08
1.17738e-07
9.73328e-08
1.26665e-07
8.77336e-08
1.16105e-07
4.93463e-07
4.03288e-07
4.37609e-07
3.289e-07
3.75307e-07
3.84842e-07
3.98482e-07
3.82634e-07
4.73408e-07
4.0436e-07
3.39927e-07
3.38521e-07
2.04427e-07
3.10579e-07
2.95698e-07
2.81817e-07
3.44869e-07
3.85642e-07
2.62691e-07
3.28505e-07
2.51881e-07
1.80035e-07
2.66516e-07
2.15639e-07
2.11535e-07
2.84592e-07
2.36287e-07
2.22554e-07
3.34589e-07
2.52648e-07
2.57824e-07
2.32106e-07
1.37286e-07
1.74162e-07
1.87705e-07
1.35581e-07
2.04404e-07
2.52453e-07
1.63997e-07
2.40814e-07
2.0764e-07
1.12661e-07
1.70501e-07
1.33414e-07
1.08084e-07
1.74361e-07
1.39532e-07
1.36738e-07
2.2528e-07
1.87609e-07
1.90262e-07
1.65355e-07
1.00277e-07
9.88058e-08
1.38547e-07
7.6523e-08
1.42808e-07
1.7969e-07
1.27793e-07
1.99231e-07
1.65076e-07
7.64449e-08
7.73792e-08
1.08481e-07
4.71282e-08
1.36999e-07
1.12962e-07
1.12067e-07
2.01135e-07
1.72116e-07
8.80488e-08
7.39909e-08
4.62995e-08
3.46538e-08
8.95113e-08
8.32516e-08
1.00188e-07
1.83068e-07
1.11199e-07
1.82219e-07
9.05246e-08
-5.7402e-09
5.47424e-08
4.55892e-08
9.86705e-08
9.199e-08
1.52679e-07
9.43751e-08
1.60206e-07
1.362e-07
-5.05385e-08
1.87776e-08
2.17971e-08
6.94022e-08
6.65892e-08
9.85318e-08
7.23678e-08
9.44783e-08
5.16725e-08
8.64078e-08
4.48676e-07
3.81273e-07
4.22931e-07
3.29031e-07
3.9164e-07
3.83249e-07
4.12322e-07
3.89664e-07
4.61672e-07
4.44787e-07
3.20362e-07
3.45458e-07
2.43076e-07
3.38709e-07
3.14997e-07
3.12661e-07
3.48749e-07
3.90483e-07
2.85308e-07
3.60785e-07
2.75394e-07
2.24418e-07
2.82038e-07
2.48026e-07
2.43901e-07
2.94539e-07
2.56246e-07
2.45834e-07
3.4143e-07
2.96118e-07
2.75777e-07
2.51426e-07
1.88786e-07
2.06035e-07
2.10737e-07
1.66177e-07
2.15495e-07
2.64616e-07
1.93753e-07
2.81516e-07
2.64044e-07
1.71582e-07
2.00864e-07
1.7121e-07
1.40884e-07
1.89718e-07
1.60005e-07
1.60051e-07
2.43839e-07
2.32419e-07
2.3611e-07
2.04326e-07
1.56983e-07
1.40112e-07
1.66918e-07
1.08863e-07
1.56728e-07
1.95178e-07
1.55096e-07
2.44101e-07
2.34005e-07
1.43822e-07
1.29485e-07
1.55488e-07
9.1567e-08
1.60096e-07
1.28529e-07
1.36017e-07
2.21385e-07
2.12465e-07
1.53192e-07
1.33724e-07
1.10539e-07
8.74858e-08
1.3194e-07
1.04845e-07
1.28031e-07
1.87105e-07
1.33611e-07
2.21728e-07
1.58352e-07
6.26555e-08
1.09485e-07
1.0131e-07
1.24816e-07
1.32779e-07
1.47779e-07
1.18081e-07
1.66587e-07
1.57638e-07
-1.54673e-08
5.24912e-08
5.6199e-08
8.94791e-08
9.17607e-08
1.03888e-07
8.56243e-08
1.03991e-07
5.05231e-08
1.19622e-07
4.27354e-07
3.54775e-07
3.78852e-07
2.85155e-07
3.20723e-07
3.09194e-07
3.33766e-07
2.99378e-07
3.82185e-07
3.74743e-07
2.63086e-07
2.84763e-07
2.04331e-07
2.67098e-07
2.67366e-07
2.40279e-07
2.84848e-07
3.28496e-07
2.15542e-07
2.98104e-07
1.9794e-07
1.67877e-07
2.30621e-07
1.97494e-07
1.89033e-07
2.45102e-07
2.03187e-07
1.88087e-07
2.86797e-07
2.37881e-07
1.92549e-07
2.01188e-07
1.3636e-07
1.6155e-07
1.71929e-07
1.25311e-07
1.73933e-07
2.21639e-07
1.44178e-07
2.31663e-07
1.82605e-07
1.2066e-07
1.63563e-07
1.36712e-07
1.12094e-07
1.58902e-07
1.30968e-07
1.20952e-07
2.04072e-07
1.86725e-07
1.70051e-07
1.68201e-07
1.21796e-07
1.22759e-07
1.39325e-07
9.35461e-08
1.25483e-07
1.62509e-07
1.19698e-07
2.00672e-07
1.65857e-07
1.16199e-07
1.22654e-07
1.27764e-07
8.8898e-08
1.29726e-07
1.05415e-07
1.0772e-07
1.78439e-07
1.7488e-07
1.33416e-07
1.166e-07
1.02531e-07
8.8374e-08
1.14264e-07
8.76261e-08
1.08918e-07
1.42096e-07
1.09592e-07
1.7758e-07
1.14158e-07
8.33633e-08
1.00056e-07
1.08256e-07
1.06338e-07
1.2348e-07
1.09018e-07
1.00547e-07
1.23757e-07
1.30185e-07
-1.58539e-08
5.95519e-08
7.508e-08
9.09948e-08
9.65498e-08
8.99505e-08
7.57786e-08
7.54885e-08
3.19136e-08
9.18274e-08
4.71994e-07
4.2426e-07
4.42715e-07
3.66669e-07
3.78736e-07
3.43041e-07
3.60105e-07
3.06317e-07
3.72362e-07
3.73904e-07
3.36556e-07
3.49935e-07
3.047e-07
3.28817e-07
3.17844e-07
2.79563e-07
2.91035e-07
3.25793e-07
2.2858e-07
2.89401e-07
2.83336e-07
2.59211e-07
2.87127e-07
2.62273e-07
2.38655e-07
2.60554e-07
2.2567e-07
2.03352e-07
2.75675e-07
2.41923e-07
2.68724e-07
2.51263e-07
2.14058e-07
2.13216e-07
2.05688e-07
1.62635e-07
1.83541e-07
2.22809e-07
1.65016e-07
2.33382e-07
2.70706e-07
1.98063e-07
2.10337e-07
1.85462e-07
1.52302e-07
1.71236e-07
1.5304e-07
1.3993e-07
2.03899e-07
1.97086e-07
2.54201e-07
2.17882e-07
1.86613e-07
1.73166e-07
1.66051e-07
1.31777e-07
1.36424e-07
1.66514e-07
1.40932e-07
2.02547e-07
2.61145e-07
1.91971e-07
1.87426e-07
1.75285e-07
1.44494e-07
1.46669e-07
1.25508e-07
1.31209e-07
1.71657e-07
1.83078e-07
2.38876e-07
1.88592e-07
1.72679e-07
1.55343e-07
1.5359e-07
1.20178e-07
1.36831e-07
1.32161e-07
1.35678e-07
1.74232e-07
2.08476e-07
1.62553e-07
1.62734e-07
1.64425e-07
1.3753e-07
1.57047e-07
1.05861e-07
1.31885e-07
1.18661e-07
1.39798e-07
6.53676e-08
1.06426e-07
1.17789e-07
1.1548e-07
1.19774e-07
9.56736e-08
9.30705e-08
8.02558e-08
4.88819e-08
1.00937e-07
3.58304e-07
3.08522e-07
3.18746e-07
2.69004e-07
2.70023e-07
2.47181e-07
2.71033e-07
2.0888e-07
2.84118e-07
2.84503e-07
2.49141e-07
2.47915e-07
2.33377e-07
2.33023e-07
2.50951e-07
2.00996e-07
2.17068e-07
2.53987e-07
1.59843e-07
2.17369e-07
2.02187e-07
1.84105e-07
2.13585e-07
1.97633e-07
1.76301e-07
1.9983e-07
1.7098e-07
1.46181e-07
2.1142e-07
1.81882e-07
1.94588e-07
1.87932e-07
1.55952e-07
1.62328e-07
1.6089e-07
1.24739e-07
1.39385e-07
1.74194e-07
1.23887e-07
1.80401e-07
2.02053e-07
1.4871e-07
1.67525e-07
1.49321e-07
1.2494e-07
1.36786e-07
1.26118e-07
1.09672e-07
1.60168e-07
1.5597e-07
2.08576e-07
1.80407e-07
1.53802e-07
1.54631e-07
1.38362e-07
1.21348e-07
1.10254e-07
1.33808e-07
1.19035e-07
1.59146e-07
2.15647e-07
1.66957e-07
1.79464e-07
1.51231e-07
1.46477e-07
1.21464e-07
1.10604e-07
1.17889e-07
1.29976e-07
1.52759e-07
2.35834e-07
1.77487e-07
1.63267e-07
1.62421e-07
1.41254e-07
1.17135e-07
1.30596e-07
9.73184e-08
1.3152e-07
1.3796e-07
1.8868e-07
1.68889e-07
1.61251e-07
1.70769e-07
1.34375e-07
1.5715e-07
8.5681e-08
1.3672e-07
9.27709e-08
1.26127e-07
8.21223e-08
1.15001e-07
1.34847e-07
1.24846e-07
1.31801e-07
9.70806e-08
1.01568e-07
7.38075e-08
5.53856e-08
8.92445e-08
5.29388e-07
4.75922e-07
4.72785e-07
4.34434e-07
3.99496e-07
3.53667e-07
3.5952e-07
2.75994e-07
3.41716e-07
3.17509e-07
4.18785e-07
3.8818e-07
3.93401e-07
3.52986e-07
3.5425e-07
2.85873e-07
2.74336e-07
3.03223e-07
2.13873e-07
2.40578e-07
3.63483e-07
3.29502e-07
3.26702e-07
3.09883e-07
2.65784e-07
2.57563e-07
2.31183e-07
1.94673e-07
2.41344e-07
2.08733e-07
3.21652e-07
2.86729e-07
2.71075e-07
2.51122e-07
2.27116e-07
1.8787e-07
1.79041e-07
2.06166e-07
1.70738e-07
1.99549e-07
3.11244e-07
2.51562e-07
2.48327e-07
2.23207e-07
1.85415e-07
1.71875e-07
1.69817e-07
1.52258e-07
1.82035e-07
1.81867e-07
3.01582e-07
2.51924e-07
2.33213e-07
2.21452e-07
1.8197e-07
1.72687e-07
1.43809e-07
1.58826e-07
1.63526e-07
1.74332e-07
2.90851e-07
2.42963e-07
2.50434e-07
2.07697e-07
2.07487e-07
1.54892e-07
1.50846e-07
1.64132e-07
1.4757e-07
1.78668e-07
3.07903e-07
2.39565e-07
2.27958e-07
2.27229e-07
1.86098e-07
1.66216e-07
1.75809e-07
1.21137e-07
1.8563e-07
1.59537e-07
2.39744e-07
2.32097e-07
2.13442e-07
2.20559e-07
1.76028e-07
1.98091e-07
1.17715e-07
1.94057e-07
1.3006e-07
1.62138e-07
1.3447e-07
1.54734e-07
1.74187e-07
1.56441e-07
1.63852e-07
1.26945e-07
1.44049e-07
1.1486e-07
1.09379e-07
1.24821e-07
2.3774e-07
2.20351e-07
2.3398e-07
2.25486e-07
2.17854e-07
2.03137e-07
2.32706e-07
1.60648e-07
2.33186e-07
2.21842e-07
1.83111e-07
1.8757e-07
2.16629e-07
1.93031e-07
2.29071e-07
1.75125e-07
1.80449e-07
2.15949e-07
1.35684e-07
1.74656e-07
1.58059e-07
1.60726e-07
1.79055e-07
1.80649e-07
1.58499e-07
1.67661e-07
1.52418e-07
1.22353e-07
1.66309e-07
1.51326e-07
1.61471e-07
1.56114e-07
1.47283e-07
1.49432e-07
1.44694e-07
1.20931e-07
1.14225e-07
1.3961e-07
1.15269e-07
1.43669e-07
1.71169e-07
1.4341e-07
1.54922e-07
1.43631e-07
1.24464e-07
1.15153e-07
1.18676e-07
1.06073e-07
1.20715e-07
1.38461e-07
1.97127e-07
1.66768e-07
1.52689e-07
1.57749e-07
1.28009e-07
1.3236e-07
1.0222e-07
1.0885e-07
1.27823e-07
1.30333e-07
1.9305e-07
1.65494e-07
1.85964e-07
1.49601e-07
1.66303e-07
1.14649e-07
1.16348e-07
1.3719e-07
1.01128e-07
1.48716e-07
2.2951e-07
1.76555e-07
1.68422e-07
1.83898e-07
1.4695e-07
1.4143e-07
1.52045e-07
8.93959e-08
1.66619e-07
1.35986e-07
1.73929e-07
1.76312e-07
1.69495e-07
1.82744e-07
1.52503e-07
1.74592e-07
9.96809e-08
1.81283e-07
1.10936e-07
1.47304e-07
1.02748e-07
1.28894e-07
1.53573e-07
1.43231e-07
1.53435e-07
1.21342e-07
1.39119e-07
1.09188e-07
1.03509e-07
1.24401e-07
5.24485e-07
4.67516e-07
4.56007e-07
4.20813e-07
3.72585e-07
3.1867e-07
3.16458e-07
2.20957e-07
2.79288e-07
2.47914e-07
4.30608e-07
3.86743e-07
3.92748e-07
3.37131e-07
3.36928e-07
2.61503e-07
2.37091e-07
2.59146e-07
1.75766e-07
1.96957e-07
3.65208e-07
3.25903e-07
3.09438e-07
2.93556e-07
2.42825e-07
2.20748e-07
1.97753e-07
1.51509e-07
1.83491e-07
1.67706e-07
3.16369e-07