/*--------------------------------*- C++ -*----------------------------------*\
| =========                 |                                                 |
| \\      /  F ield         | OpenFOAM: The Open Source CFD Toolbox           |
|  \\    /   O peration     | Version:  2406                                  |
|   \\  /    A nd           | Website:  www.openfoam.com                      |
|    \\/     M anipulation  |                                                 |
\*---------------------------------------------------------------------------*/
FoamFile
{
    version     2.0;
    format      ascii;
    arch        "LSB;label=32;scalar=64";
    class       volScalarField;
    location    "1.9";
    object      magR;
}
// * * * * * * * * * * * * * * * * * * * * * * * * * * * * * * * * * * * * * //

dimensions      [0 2 -2 0 0 0 0];

internalField   uniform 0;

boundaryField
{
    walls
    {
        type            calculated;
        value           nonuniform List<scalar> 
2000
(
5.84368e-07
8.28589e-07
1.09509e-06
1.31565e-06
1.44047e-06
1.44047e-06
1.31565e-06
1.09509e-06
8.28589e-07
5.84368e-07
2.35124e-07
3.22818e-07
4.26153e-07
5.15488e-07
5.67298e-07
5.67298e-07
5.15488e-07
4.26153e-07
3.22818e-07
2.35124e-07
8.23358e-08
1.10261e-07
1.44695e-07
1.75724e-07
1.94052e-07
1.94052e-07
1.75724e-07
1.44695e-07
1.10261e-07
8.23358e-08
1.07665e-07
1.4522e-07
1.90604e-07
2.30858e-07
2.54462e-07
2.54462e-07
2.30858e-07
1.90604e-07
1.4522e-07
1.07665e-07
8.39473e-08
1.12613e-07
1.47885e-07
1.79516e-07
1.98184e-07
1.98184e-07
1.79516e-07
1.47885e-07
1.12613e-07
8.39472e-08
9.09276e-08
1.22294e-07
1.6067e-07
1.94964e-07
2.15168e-07
2.15168e-07
1.94963e-07
1.6067e-07
1.22294e-07
9.09275e-08
8.50842e-08
1.14263e-07
1.50136e-07
1.82291e-07
2.01269e-07
2.01269e-07
1.82291e-07
1.50136e-07
1.14263e-07
8.50841e-08
8.69435e-08
1.16838e-07
1.53531e-07
1.86388e-07
2.05769e-07
2.05769e-07
1.86387e-07
1.53531e-07
1.16838e-07
8.69432e-08
8.5448e-08
1.14782e-07
1.50832e-07
1.83137e-07
2.02202e-07
2.02202e-07
1.83137e-07
1.50831e-07
1.14781e-07
8.54474e-08
8.59405e-08
1.15464e-07
1.5173e-07
1.84221e-07
2.03392e-07
2.03392e-07
1.8422e-07
1.51729e-07
1.15463e-07
8.59396e-08
8.55527e-08
1.14931e-07
1.5103e-07
1.83378e-07
2.02467e-07
2.02467e-07
1.83377e-07
1.51029e-07
1.14929e-07
8.55514e-08
8.56831e-08
1.15111e-07
1.51268e-07
1.83664e-07
2.02781e-07
2.02781e-07
1.83663e-07
1.51266e-07
1.15109e-07
8.56812e-08
8.55826e-08
1.14973e-07
1.51086e-07
1.83445e-07
2.02541e-07
2.0254e-07
1.83443e-07
1.51083e-07
1.1497e-07
8.558e-08
8.56176e-08
1.15021e-07
1.51149e-07
1.83521e-07
2.02625e-07
2.02624e-07
1.83519e-07
1.51146e-07
1.15018e-07
8.56142e-08
8.5592e-08
1.14986e-07
1.51103e-07
1.83465e-07
2.02563e-07
2.02562e-07
1.83462e-07
1.51099e-07
1.14982e-07
8.55879e-08
8.56015e-08
1.14999e-07
1.5112e-07
1.83486e-07
2.02585e-07
2.02584e-07
1.83483e-07
1.51116e-07
1.14994e-07
8.55969e-08
8.55947e-08
1.1499e-07
1.51108e-07
1.83471e-07
2.02569e-07
2.02568e-07
1.83468e-07
1.51103e-07
1.14985e-07
8.559e-08
8.55966e-08
1.14992e-07
1.51112e-07
1.83476e-07
2.02575e-07
2.02573e-07
1.83473e-07
1.51107e-07
1.14988e-07
8.55922e-08
8.55939e-08
1.14989e-07
1.51107e-07
1.83471e-07
2.02569e-07
2.02568e-07
1.83468e-07
1.51104e-07
1.14985e-07
8.55901e-08
8.55931e-08
1.14988e-07
1.51107e-07
1.8347e-07
2.02569e-07
2.02568e-07
1.83468e-07
1.51104e-07
1.14985e-07
8.55904e-08
8.5591e-08
1.14985e-07
1.51104e-07
1.83467e-07
2.02566e-07
2.02565e-07
1.83466e-07
1.51102e-07
1.14984e-07
8.55896e-08
8.55895e-08
1.14984e-07
1.51101e-07
1.83465e-07
2.02564e-07
2.02564e-07
1.83465e-07
1.51101e-07
1.14984e-07
8.55895e-08
8.55877e-08
1.14981e-07
1.51099e-07
1.83462e-07
2.02561e-07
2.02561e-07
1.83463e-07
1.511e-07
1.14983e-07
8.55892e-08
8.55864e-08
1.1498e-07
1.51097e-07
1.8346e-07
2.02559e-07
2.0256e-07
1.83462e-07
1.511e-07
1.14983e-07
8.55891e-08
8.55851e-08
1.14978e-07
1.51095e-07
1.83458e-07
2.02557e-07
2.02558e-07
1.83461e-07
1.51099e-07
1.14982e-07
8.55889e-08
8.55841e-08
1.14977e-07
1.51094e-07
1.83457e-07
2.02556e-07
2.02557e-07
1.8346e-07
1.51098e-07
1.14982e-07
8.55887e-08
8.55832e-08
1.14976e-07
1.51093e-07
1.83456e-07
2.02555e-07
2.02556e-07
1.83459e-07
1.51097e-07
1.14981e-07
8.55883e-08
8.55825e-08
1.14975e-07
1.51091e-07
1.83454e-07
2.02553e-07
2.02555e-07
1.83458e-07
1.51097e-07
1.14981e-07
8.5588e-08
8.55821e-08
1.14975e-07
1.51091e-07
1.83454e-07
2.02553e-07
2.02554e-07
1.83457e-07
1.51096e-07
1.1498e-07
8.55878e-08
8.55822e-08
1.14975e-07
1.51091e-07
1.83453e-07
2.02552e-07
2.02554e-07
1.83457e-07
1.51096e-07
1.1498e-07
8.55879e-08
8.55829e-08
1.14975e-07
1.51092e-07
1.83454e-07
2.02553e-07
2.02554e-07
1.83458e-07
1.51097e-07
1.14981e-07
8.55883e-08
8.55846e-08
1.14977e-07
1.51094e-07
1.83456e-07
2.02555e-07
2.02556e-07
1.83459e-07
1.51098e-07
1.14982e-07
8.55889e-08
8.55873e-08
1.1498e-07
1.51097e-07
1.8346e-07
2.02558e-07
2.02559e-07
1.83462e-07
1.51099e-07
1.14983e-07
8.55896e-08
8.55911e-08
1.14985e-07
1.51102e-07
1.83465e-07
2.02563e-07
2.02563e-07
1.83465e-07
1.51101e-07
1.14984e-07
8.55902e-08
8.55956e-08
1.1499e-07
1.51108e-07
1.83471e-07
2.02569e-07
2.02568e-07
1.83468e-07
1.51104e-07
1.14985e-07
8.55906e-08
8.56e-08
1.14995e-07
1.51114e-07
1.83477e-07
2.02574e-07
2.02572e-07
1.83471e-07
1.51106e-07
1.14986e-07
8.55907e-08
8.56033e-08
1.15e-07
1.51119e-07
1.83482e-07
2.02579e-07
2.02576e-07
1.83474e-07
1.51107e-07
1.14987e-07
8.55905e-08
8.56047e-08
1.15001e-07
1.51121e-07
1.83485e-07
2.02582e-07
2.02578e-07
1.83475e-07
1.51108e-07
1.14987e-07
8.55902e-08
8.56038e-08
1.15001e-07
1.5112e-07
1.83484e-07
2.02582e-07
2.02578e-07
1.83475e-07
1.51107e-07
1.14986e-07
8.55898e-08
8.56007e-08
1.14997e-07
1.51117e-07
1.83481e-07
2.02579e-07
2.02576e-07
1.83473e-07
1.51106e-07
1.14985e-07
8.55895e-08
8.55965e-08
1.14992e-07
1.51112e-07
1.83476e-07
2.02574e-07
2.02572e-07
1.83471e-07
1.51105e-07
1.14985e-07
8.55895e-08
8.55931e-08
1.14988e-07
1.51107e-07
1.83471e-07
2.0257e-07
2.02569e-07
1.83469e-07
1.51104e-07
1.14985e-07
8.559e-08
8.55925e-08
1.14987e-07
1.51106e-07
1.8347e-07
2.02568e-07
2.02568e-07
1.83469e-07
1.51104e-07
1.14986e-07
8.55915e-08
8.55974e-08
1.14993e-07
1.51112e-07
1.83475e-07
2.02574e-07
2.02573e-07
1.83473e-07
1.51108e-07
1.1499e-07
8.55943e-08
8.56103e-08
1.15008e-07
1.51128e-07
1.83491e-07
2.02588e-07
2.02586e-07
1.83484e-07
1.51117e-07
1.14996e-07
8.55988e-08
8.5634e-08
1.15036e-07
1.51158e-07
1.83523e-07
2.02618e-07
2.02612e-07
1.83505e-07
1.51133e-07
1.15007e-07
8.56063e-08
8.56675e-08
1.15075e-07
1.51201e-07
1.83566e-07
2.02659e-07
2.02647e-07
1.83534e-07
1.51155e-07
1.15022e-07
8.56157e-08
8.5719e-08
1.15137e-07
1.51273e-07
1.83643e-07
2.02734e-07
2.02715e-07
1.8359e-07
1.51198e-07
1.15053e-07
8.56359e-08
8.57619e-08
1.15187e-07
1.51326e-07
1.83696e-07
2.02783e-07
2.02757e-07
1.83624e-07
1.51224e-07
1.15072e-07
8.56489e-08
8.58631e-08
1.15316e-07
1.51484e-07
1.83873e-07
2.02965e-07
2.02928e-07
1.83771e-07
1.51341e-07
1.15157e-07
8.57097e-08
5.84368e-07
8.28589e-07
1.09509e-06
1.31565e-06
1.44047e-06
1.44047e-06
1.31565e-06
1.09509e-06
8.28589e-07
5.84368e-07
2.35124e-07
3.22818e-07
4.26153e-07
5.15488e-07
5.67298e-07
5.67298e-07
5.15488e-07
4.26153e-07
3.22818e-07
2.35124e-07
8.23358e-08
1.10261e-07
1.44695e-07
1.75724e-07
1.94052e-07
1.94052e-07
1.75724e-07
1.44695e-07
1.10261e-07
8.23358e-08
1.07665e-07
1.4522e-07
1.90604e-07
2.30858e-07
2.54462e-07
2.54462e-07
2.30858e-07
1.90604e-07
1.4522e-07
1.07665e-07
8.39472e-08
1.12613e-07
1.47885e-07
1.79516e-07
1.98184e-07
1.98184e-07
1.79516e-07
1.47885e-07
1.12613e-07
8.39473e-08
9.09273e-08
1.22294e-07
1.6067e-07
1.94963e-07
2.15168e-07
2.15168e-07
1.94963e-07
1.6067e-07
1.22294e-07
9.09276e-08
8.50838e-08
1.14262e-07
1.50135e-07
1.82291e-07
2.01269e-07
2.01269e-07
1.82291e-07
1.50136e-07
1.14263e-07
8.50842e-08
8.69428e-08
1.16837e-07
1.5353e-07
1.86387e-07
2.05769e-07
2.05769e-07
1.86387e-07
1.53531e-07
1.16838e-07
8.69435e-08
8.54468e-08
1.14781e-07
1.5083e-07
1.83136e-07
2.02202e-07
2.02202e-07
1.83137e-07
1.50831e-07
1.14782e-07
8.54479e-08
8.59387e-08
1.15462e-07
1.51728e-07
1.84219e-07
2.03391e-07
2.03391e-07
1.8422e-07
1.5173e-07
1.15464e-07
8.59404e-08
8.555e-08
1.14928e-07
1.51027e-07
1.83375e-07
2.02465e-07
2.02466e-07
1.83377e-07
1.5103e-07
1.1493e-07
8.55526e-08
8.56794e-08
1.15107e-07
1.51264e-07
1.83661e-07
2.02779e-07
2.0278e-07
1.83663e-07
1.51267e-07
1.15111e-07
8.5683e-08
8.55776e-08
1.14967e-07
1.51081e-07
1.8344e-07
2.02538e-07
2.02539e-07
1.83444e-07
1.51085e-07
1.14972e-07
8.55825e-08
8.56114e-08
1.15014e-07
1.51143e-07
1.83516e-07
2.02621e-07
2.02622e-07
1.8352e-07
1.51148e-07
1.15021e-07
8.56175e-08
8.55846e-08
1.14978e-07
1.51095e-07
1.83458e-07
2.02558e-07
2.02559e-07
1.83463e-07
1.51101e-07
1.14985e-07
8.55918e-08
8.55933e-08
1.1499e-07
1.51111e-07
1.83478e-07
2.0258e-07
2.02582e-07
1.83483e-07
1.51118e-07
1.14998e-07
8.56013e-08
8.55862e-08
1.1498e-07
1.51098e-07
1.83463e-07
2.02563e-07
2.02565e-07
1.83468e-07
1.51106e-07
1.14989e-07
8.55944e-08
8.55886e-08
1.14983e-07
1.51103e-07
1.83468e-07
2.02569e-07
2.02571e-07
1.83473e-07
1.5111e-07
1.14992e-07
8.55964e-08
8.55869e-08
1.14981e-07
1.51099e-07
1.83464e-07
2.02564e-07
2.02566e-07
1.83468e-07
1.51106e-07
1.14988e-07
8.55937e-08
8.55878e-08
1.14982e-07
1.511e-07
1.83465e-07
2.02565e-07
2.02566e-07
1.83468e-07
1.51105e-07
1.14987e-07
8.5593e-08
8.55876e-08
1.14981e-07
1.51099e-07
1.83463e-07
2.02562e-07
2.02563e-07
1.83465e-07
1.51103e-07
1.14985e-07
8.55909e-08
8.55881e-08
1.14982e-07
1.51099e-07
1.83463e-07
2.02562e-07
2.02562e-07
1.83464e-07
1.51101e-07
1.14983e-07
8.55894e-08
8.55882e-08
1.14982e-07
1.51099e-07
1.83462e-07
2.0256e-07
2.0256e-07
1.83461e-07
1.51098e-07
1.14981e-07
8.55877e-08
8.55884e-08
1.14982e-07
1.51098e-07
1.83461e-07
2.02559e-07
2.02558e-07
1.8346e-07
1.51097e-07
1.1498e-07
8.55863e-08
8.55885e-08
1.14982e-07
1.51098e-07
1.8346e-07
2.02558e-07
2.02557e-07
1.83458e-07
1.51095e-07
1.14978e-07
8.55851e-08
8.55886e-08
1.14982e-07
1.51098e-07
1.8346e-07
2.02557e-07
2.02556e-07
1.83457e-07
1.51094e-07
1.14977e-07
8.55841e-08
8.55887e-08
1.14982e-07
1.51098e-07
1.83459e-07
2.02556e-07
2.02555e-07
1.83456e-07
1.51093e-07
1.14976e-07
8.55832e-08
8.55888e-08
1.14982e-07
1.51098e-07
1.83459e-07
2.02556e-07
2.02554e-07
1.83455e-07
1.51092e-07
1.14975e-07
8.55826e-08
8.55888e-08
1.14982e-07
1.51097e-07
1.83459e-07
2.02555e-07
2.02554e-07
1.83454e-07
1.51091e-07
1.14975e-07
8.55822e-08
8.55886e-08
1.14981e-07
1.51097e-07
1.83458e-07
2.02555e-07
2.02553e-07
1.83454e-07
1.51091e-07
1.14975e-07
8.55823e-08
8.55882e-08
1.14981e-07
1.51097e-07
1.83458e-07
2.02555e-07
2.02554e-07
1.83455e-07
1.51092e-07
1.14975e-07
8.55829e-08
8.55877e-08
1.1498e-07
1.51096e-07
1.83458e-07
2.02555e-07
2.02554e-07
1.83456e-07
1.51093e-07
1.14977e-07
8.55845e-08
8.55873e-08
1.1498e-07
1.51097e-07
1.83459e-07
2.02557e-07
2.02557e-07
1.83459e-07
1.51096e-07
1.1498e-07
8.55871e-08
8.55871e-08
1.1498e-07
1.51097e-07
1.83461e-07
2.02559e-07
2.0256e-07
1.83463e-07
1.51101e-07
1.14984e-07
8.55909e-08
8.55871e-08
1.14981e-07
1.51099e-07
1.83463e-07
2.02563e-07
2.02565e-07
1.83468e-07
1.51106e-07
1.14989e-07
8.55953e-08
8.55874e-08
1.14982e-07
1.51101e-07
1.83467e-07
2.02568e-07
2.02571e-07
1.83474e-07
1.51112e-07
1.14995e-07
8.55997e-08
8.5588e-08
1.14983e-07
1.51103e-07
1.8347e-07
2.02572e-07
2.02576e-07
1.8348e-07
1.51117e-07
1.14999e-07
8.56031e-08
8.55885e-08
1.14984e-07
1.51105e-07
1.83473e-07
2.02576e-07
2.02579e-07
1.83483e-07
1.5112e-07
1.15001e-07
8.56046e-08
8.5589e-08
1.14985e-07
1.51106e-07
1.83474e-07
2.02577e-07
2.0258e-07
1.83484e-07
1.5112e-07
1.15e-07
8.56037e-08
8.55892e-08
1.14985e-07
1.51106e-07
1.83473e-07
2.02575e-07
2.02578e-07
1.83481e-07
1.51117e-07
1.14997e-07
8.56007e-08
8.55892e-08
1.14984e-07
1.51104e-07
1.8347e-07
2.02572e-07
2.02574e-07
1.83476e-07
1.51112e-07
1.14992e-07
8.55966e-08
8.55889e-08
1.14983e-07
1.51102e-07
1.83467e-07
2.02568e-07
2.02569e-07
1.83471e-07
1.51107e-07
1.14988e-07
8.5593e-08
8.55885e-08
1.14983e-07
1.511e-07
1.83465e-07
2.02565e-07
2.02566e-07
1.83468e-07
1.51105e-07
1.14987e-07
8.55924e-08
8.55879e-08
1.14982e-07
1.511e-07
1.83465e-07
2.02566e-07
2.02568e-07
1.83471e-07
1.51109e-07
1.14992e-07
8.55971e-08
8.5587e-08
1.14982e-07
1.51102e-07
1.83469e-07
2.02572e-07
2.02578e-07
1.83484e-07
1.51123e-07
1.15005e-07
8.56096e-08
8.55841e-08
1.14982e-07
1.51105e-07
1.83477e-07
2.02587e-07
2.02598e-07
1.83509e-07
1.5115e-07
1.15032e-07
8.56329e-08
8.55794e-08
1.1498e-07
1.5111e-07
1.8349e-07
2.02609e-07
2.02629e-07
1.83546e-07
1.51189e-07
1.15069e-07
8.56656e-08
8.55628e-08
1.14969e-07
1.51107e-07
1.83502e-07
2.02638e-07
2.02673e-07
1.83601e-07
1.51248e-07
1.15125e-07
8.57156e-08
8.55511e-08
1.14962e-07
1.51109e-07
1.83516e-07
2.02665e-07
2.02712e-07
1.83647e-07
1.51297e-07
1.15172e-07
8.5757e-08
8.54902e-08
1.14906e-07
1.51071e-07
1.83508e-07
2.02695e-07
2.02779e-07
1.83741e-07
1.51403e-07
1.15275e-07
8.58494e-08
5.84368e-07
8.28589e-07
1.09509e-06
1.31565e-06
1.44047e-06
1.44047e-06
1.31565e-06
1.09509e-06
8.28589e-07
5.84368e-07
2.35124e-07
3.22818e-07
4.26153e-07
5.15487e-07
5.67298e-07
5.67298e-07
5.15487e-07
4.26153e-07
3.22818e-07
2.35124e-07
8.23358e-08
1.10261e-07
1.44695e-07
1.75724e-07
1.94052e-07
1.94052e-07
1.75724e-07
1.44695e-07
1.10261e-07
8.23358e-08
1.07665e-07
1.4522e-07
1.90604e-07
2.30858e-07
2.54462e-07
2.54462e-07
2.30858e-07
1.90604e-07
1.4522e-07
1.07665e-07
8.39471e-08
1.12613e-07
1.47885e-07
1.79516e-07
1.98184e-07
1.98184e-07
1.79516e-07
1.47885e-07
1.12613e-07
8.39471e-08
9.09272e-08
1.22293e-07
1.6067e-07
1.94963e-07
2.15167e-07
2.15167e-07
1.94963e-07
1.6067e-07
1.22294e-07
9.09273e-08
8.50836e-08
1.14262e-07
1.50135e-07
1.8229e-07
2.01269e-07
2.01269e-07
1.8229e-07
1.50135e-07
1.14262e-07
8.50838e-08
8.69424e-08
1.16837e-07
1.5353e-07
1.86386e-07
2.05768e-07
2.05768e-07
1.86386e-07
1.5353e-07
1.16837e-07
8.69427e-08
8.54462e-08
1.1478e-07
1.50829e-07
1.83135e-07
2.022e-07
2.022e-07
1.83135e-07
1.5083e-07
1.14781e-07
8.54467e-08
8.59377e-08
1.15461e-07
1.51726e-07
1.84217e-07
2.03389e-07
2.03389e-07
1.84217e-07
1.51727e-07
1.15461e-07
8.59386e-08
8.55486e-08
1.14926e-07
1.51025e-07
1.83372e-07
2.02461e-07
2.02462e-07
1.83373e-07
1.51026e-07
1.14927e-07
8.55498e-08
8.56774e-08
1.15104e-07
1.5126e-07
1.83656e-07
2.02774e-07
2.02774e-07
1.83657e-07
1.51261e-07
1.15106e-07
8.56791e-08
8.5575e-08
1.14964e-07
1.51075e-07
1.83434e-07
2.0253e-07
2.02531e-07
1.83436e-07
1.51078e-07
1.14966e-07
8.55772e-08
8.56081e-08
1.1501e-07
1.51136e-07
1.83508e-07
2.02611e-07
2.02612e-07
1.83509e-07
1.51139e-07
1.15012e-07
8.56108e-08
8.55807e-08
1.14972e-07
1.51087e-07
1.83448e-07
2.02546e-07
2.02547e-07
1.83451e-07
1.5109e-07
1.14975e-07
8.55839e-08
8.55891e-08
1.14984e-07
1.51102e-07
1.83467e-07
2.02567e-07
2.02568e-07
1.83469e-07
1.51106e-07
1.14987e-07
8.55925e-08
8.55821e-08
1.14974e-07
1.5109e-07
1.83452e-07
2.0255e-07
2.0255e-07
1.83454e-07
1.51093e-07
1.14977e-07
8.55854e-08
8.55849e-08
1.14978e-07
1.51094e-07
1.83457e-07
2.02556e-07
2.02556e-07
1.83459e-07
1.51097e-07
1.14981e-07
8.55878e-08
8.5584e-08
1.14976e-07
1.51092e-07
1.83454e-07
2.02552e-07
2.02553e-07
1.83456e-07
1.51094e-07
1.14979e-07
8.55862e-08
8.55859e-08
1.14979e-07
1.51095e-07
1.83457e-07
2.02556e-07
2.02556e-07
1.83458e-07
1.51096e-07
1.1498e-07
8.55873e-08
8.55868e-08
1.1498e-07
1.51096e-07
1.83459e-07
2.02557e-07
2.02557e-07
1.83459e-07
1.51097e-07
1.1498e-07
8.55873e-08
8.55884e-08
1.14982e-07
1.51099e-07
1.83461e-07
2.02559e-07
2.02559e-07
1.83461e-07
1.51098e-07
1.14981e-07
8.5588e-08
8.55897e-08
1.14983e-07
1.511e-07
1.83463e-07
2.02561e-07
2.02561e-07
1.83462e-07
1.51099e-07
1.14982e-07
8.55883e-08
8.5591e-08
1.14985e-07
1.51102e-07
1.83465e-07
2.02563e-07
2.02563e-07
1.83464e-07
1.511e-07
1.14983e-07
8.55887e-08
8.55921e-08
1.14986e-07
1.51104e-07
1.83467e-07
2.02565e-07
2.02564e-07
1.83465e-07
1.51101e-07
1.14983e-07
8.55889e-08
8.55931e-08
1.14988e-07
1.51105e-07
1.83468e-07
2.02566e-07
2.02565e-07
1.83466e-07
1.51102e-07
1.14983e-07
8.55892e-08
8.55941e-08
1.14989e-07
1.51107e-07
1.8347e-07
2.02568e-07
2.02567e-07
1.83467e-07
1.51102e-07
1.14984e-07
8.55894e-08
8.55949e-08
1.1499e-07
1.51108e-07
1.83471e-07
2.02569e-07
2.02568e-07
1.83468e-07
1.51103e-07
1.14984e-07
8.55896e-08
8.55954e-08
1.1499e-07
1.51109e-07
1.83472e-07
2.0257e-07
2.02568e-07
1.83468e-07
1.51103e-07
1.14984e-07
8.55896e-08
8.55955e-08
1.1499e-07
1.51109e-07
1.83472e-07
2.0257e-07
2.02569e-07
1.83468e-07
1.51103e-07
1.14984e-07
8.55894e-08
8.55948e-08
1.1499e-07
1.51108e-07
1.83471e-07
2.02569e-07
2.02568e-07
1.83468e-07
1.51103e-07
1.14984e-07
8.5589e-08
8.55932e-08
1.14988e-07
1.51106e-07
1.83469e-07
2.02567e-07
2.02566e-07
1.83466e-07
1.51101e-07
1.14983e-07
8.55884e-08
8.55904e-08
1.14985e-07
1.51102e-07
1.83466e-07
2.02564e-07
2.02563e-07
1.83464e-07
1.511e-07
1.14982e-07
8.55876e-08
8.55867e-08
1.1498e-07
1.51098e-07
1.83461e-07
2.02559e-07
2.02559e-07
1.83461e-07
1.51098e-07
1.1498e-07
8.55869e-08
8.55824e-08
1.14975e-07
1.51092e-07
1.83455e-07
2.02554e-07
2.02554e-07
1.83457e-07
1.51095e-07
1.14979e-07
8.55864e-08
8.55782e-08
1.1497e-07
1.51086e-07
1.83449e-07
2.02548e-07
2.0255e-07
1.83454e-07
1.51093e-07
1.14978e-07
8.55861e-08
8.55749e-08
1.14966e-07
1.51081e-07
1.83444e-07
2.02543e-07
2.02546e-07
1.83451e-07
1.51091e-07
1.14977e-07
8.55861e-08
8.55735e-08
1.14964e-07
1.51079e-07
1.83441e-07
2.02541e-07
2.02543e-07
1.83449e-07
1.51091e-07
1.14977e-07
8.55864e-08
8.55743e-08
1.14965e-07
1.51079e-07
1.83441e-07
2.02541e-07
2.02544e-07
1.8345e-07
1.51091e-07
1.14978e-07
8.55869e-08
8.55771e-08
1.14968e-07
1.51083e-07
1.83444e-07
2.02543e-07
2.02546e-07
1.83452e-07
1.51093e-07
1.14979e-07
8.55876e-08
8.55807e-08
1.14972e-07
1.51087e-07
1.83449e-07
2.02548e-07
2.0255e-07
1.83455e-07
1.51095e-07
1.1498e-07
8.55881e-08
8.55833e-08
1.14975e-07
1.51091e-07
1.83453e-07
2.02552e-07
2.02554e-07
1.83457e-07
1.51097e-07
1.14981e-07
8.55885e-08
8.55825e-08
1.14975e-07
1.51091e-07
1.83454e-07
2.02553e-07
2.02555e-07
1.83459e-07
1.51097e-07
1.14981e-07
8.55884e-08
8.55757e-08
1.14967e-07
1.51084e-07
1.83447e-07
2.02547e-07
2.02551e-07
1.83455e-07
1.51095e-07
1.1498e-07
8.55875e-08
8.55608e-08
1.1495e-07
1.51066e-07
1.8343e-07
2.02532e-07
2.02538e-07
1.83446e-07
1.51089e-07
1.14976e-07
8.55853e-08
8.55352e-08
1.1492e-07
1.51033e-07
1.83397e-07
2.02502e-07
2.02513e-07
1.83426e-07
1.51075e-07
1.14966e-07
8.55797e-08
8.55013e-08
1.14881e-07
1.5099e-07
1.83353e-07
2.02461e-07
2.02477e-07
1.83398e-07
1.51054e-07
1.14952e-07
8.55709e-08
8.54521e-08
1.1482e-07
1.50919e-07
1.83278e-07
2.02386e-07
2.02409e-07
1.8334e-07
1.51008e-07
1.14919e-07
8.55483e-08
8.54139e-08
1.14776e-07
1.5087e-07
1.83226e-07
2.02337e-07
2.02364e-07
1.83302e-07
1.50977e-07
1.14895e-07
8.55307e-08
8.53257e-08
1.14659e-07
1.50723e-07
1.83056e-07
2.02155e-07
2.02187e-07
1.83143e-07
1.50845e-07
1.14794e-07
8.5456e-08
5.84368e-07
8.28589e-07
1.09509e-06
1.31565e-06
1.44047e-06
1.44047e-06
1.31565e-06
1.09509e-06
8.28589e-07
5.84368e-07
2.35124e-07
3.22818e-07
4.26153e-07
5.15488e-07
5.67298e-07
5.67298e-07
5.15487e-07
4.26153e-07
3.22818e-07
2.35124e-07
8.23358e-08
1.10261e-07
1.44695e-07
1.75724e-07
1.94052e-07
1.94052e-07
1.75724e-07
1.44695e-07
1.10261e-07
8.23357e-08
1.07665e-07
1.4522e-07
1.90604e-07
2.30858e-07
2.54462e-07
2.54462e-07
2.30858e-07
1.90604e-07
1.4522e-07
1.07665e-07
8.39472e-08
1.12613e-07
1.47885e-07
1.79516e-07
1.98184e-07
1.98184e-07
1.79516e-07
1.47885e-07
1.12613e-07
8.39471e-08
9.09275e-08
1.22294e-07
1.6067e-07
1.94963e-07
2.15167e-07
2.15167e-07
1.94963e-07
1.6067e-07
1.22293e-07
9.09272e-08
8.5084e-08
1.14263e-07
1.50135e-07
1.82291e-07
2.01269e-07
2.01269e-07
1.8229e-07
1.50135e-07
1.14262e-07
8.50836e-08
8.69431e-08
1.16838e-07
1.53531e-07
1.86387e-07
2.05768e-07
2.05768e-07
1.86386e-07
1.5353e-07
1.16837e-07
8.69424e-08
8.54473e-08
1.14781e-07
1.50831e-07
1.83136e-07
2.02201e-07
2.02201e-07
1.83135e-07
1.5083e-07
1.1478e-07
8.54463e-08
8.59395e-08
1.15463e-07
1.51728e-07
1.84219e-07
2.0339e-07
2.03389e-07
1.84217e-07
1.51727e-07
1.15461e-07
8.59378e-08
8.55511e-08
1.14929e-07
1.51027e-07
1.83374e-07
2.02463e-07
2.02463e-07
1.83373e-07
1.51025e-07
1.14926e-07
8.55487e-08
8.56809e-08
1.15108e-07
1.51264e-07
1.83659e-07
2.02776e-07
2.02775e-07
1.83657e-07
1.51261e-07
1.15105e-07
8.56775e-08
8.55795e-08
1.14969e-07
1.51081e-07
1.83439e-07
2.02533e-07
2.02532e-07
1.83436e-07
1.51076e-07
1.14964e-07
8.55751e-08
8.56137e-08
1.15016e-07
1.51142e-07
1.83513e-07
2.02615e-07
2.02614e-07
1.8351e-07
1.51137e-07
1.1501e-07
8.56082e-08
8.55872e-08
1.14979e-07
1.51094e-07
1.83455e-07
2.02551e-07
2.0255e-07
1.83451e-07
1.51088e-07
1.14973e-07
8.55809e-08
8.55962e-08
1.14992e-07
1.5111e-07
1.83474e-07
2.02572e-07
2.02571e-07
1.8347e-07
1.51104e-07
1.14985e-07
8.55894e-08
8.55892e-08
1.14982e-07
1.51098e-07
1.83459e-07
2.02555e-07
2.02554e-07
1.83454e-07
1.51091e-07
1.14975e-07
8.55824e-08
8.55914e-08
1.14985e-07
1.51102e-07
1.83464e-07
2.02561e-07
2.0256e-07
1.8346e-07
1.51096e-07
1.14979e-07
8.55851e-08
8.55895e-08
1.14982e-07
1.51099e-07
1.8346e-07
2.02557e-07
2.02556e-07
1.83457e-07
1.51094e-07
1.14977e-07
8.55842e-08
8.55899e-08
1.14983e-07
1.511e-07
1.83462e-07
2.0256e-07
2.02559e-07
1.8346e-07
1.51096e-07
1.14979e-07
8.5586e-08
8.55893e-08
1.14983e-07
1.511e-07
1.83462e-07
2.0256e-07
2.02559e-07
1.8346e-07
1.51097e-07
1.1498e-07
8.5587e-08
8.55894e-08
1.14983e-07
1.511e-07
1.83463e-07
2.02561e-07
2.02561e-07
1.83462e-07
1.51099e-07
1.14982e-07
8.55885e-08
8.55893e-08
1.14983e-07
1.51101e-07
1.83464e-07
2.02562e-07
2.02562e-07
1.83464e-07
1.51101e-07
1.14984e-07
8.55898e-08
8.55894e-08
1.14983e-07
1.51101e-07
1.83465e-07
2.02564e-07
2.02564e-07
1.83466e-07
1.51103e-07
1.14985e-07
8.5591e-08
8.55893e-08
1.14984e-07
1.51102e-07
1.83465e-07
2.02565e-07
2.02565e-07
1.83467e-07
1.51104e-07
1.14986e-07
8.55921e-08
8.55892e-08
1.14984e-07
1.51102e-07
1.83466e-07
2.02566e-07
2.02567e-07
1.83469e-07
1.51106e-07
1.14988e-07
8.55932e-08
8.5589e-08
1.14983e-07
1.51102e-07
1.83466e-07
2.02566e-07
2.02567e-07
1.8347e-07
1.51107e-07
1.14989e-07
8.55941e-08
8.55887e-08
1.14983e-07
1.51102e-07
1.83467e-07
2.02567e-07
2.02568e-07
1.83471e-07
1.51108e-07
1.1499e-07
8.55948e-08
8.55886e-08
1.14983e-07
1.51102e-07
1.83467e-07
2.02567e-07
2.02569e-07
1.83471e-07
1.51108e-07
1.1499e-07
8.55953e-08
8.55887e-08
1.14983e-07
1.51102e-07
1.83467e-07
2.02567e-07
2.02569e-07
1.83471e-07
1.51108e-07
1.1499e-07
8.55954e-08
8.55891e-08
1.14984e-07
1.51102e-07
1.83467e-07
2.02567e-07
2.02569e-07
1.83471e-07
1.51108e-07
1.1499e-07
8.55948e-08
8.55896e-08
1.14984e-07
1.51103e-07
1.83467e-07
2.02567e-07
2.02568e-07
1.8347e-07
1.51106e-07
1.14988e-07
8.55932e-08
8.559e-08
1.14984e-07
1.51102e-07
1.83466e-07
2.02565e-07
2.02566e-07
1.83467e-07
1.51103e-07
1.14985e-07
8.55906e-08
8.55901e-08
1.14984e-07
1.51102e-07
1.83465e-07
2.02563e-07
2.02562e-07
1.83463e-07
1.51099e-07
1.14981e-07
8.55869e-08
8.55899e-08
1.14983e-07
1.511e-07
1.83462e-07
2.02559e-07
2.02557e-07
1.83457e-07
1.51093e-07
1.14976e-07
8.55826e-08
8.55894e-08
1.14982e-07
1.51098e-07
1.83458e-07
2.02554e-07
2.02552e-07
1.83451e-07
1.51088e-07
1.14971e-07
8.55784e-08
8.55887e-08
1.14981e-07
1.51095e-07
1.83455e-07
2.0255e-07
2.02547e-07
1.83446e-07
1.51083e-07
1.14967e-07
8.55751e-08
8.55881e-08
1.14979e-07
1.51093e-07
1.83452e-07
2.02546e-07
2.02543e-07
1.83443e-07
1.5108e-07
1.14965e-07
8.55736e-08
8.55878e-08
1.14979e-07
1.51093e-07
1.83451e-07
2.02545e-07
2.02542e-07
1.83442e-07
1.5108e-07
1.14965e-07
8.55744e-08
8.55879e-08
1.14979e-07
1.51093e-07
1.83452e-07
2.02547e-07
2.02544e-07
1.83445e-07
1.51083e-07
1.14968e-07
8.55771e-08
8.55884e-08
1.1498e-07
1.51095e-07
1.83455e-07
2.0255e-07
2.02548e-07
1.83449e-07
1.51087e-07
1.14972e-07
8.55807e-08
8.55896e-08
1.14982e-07
1.51098e-07
1.83459e-07
2.02555e-07
2.02553e-07
1.83454e-07
1.51091e-07
1.14975e-07
8.55833e-08
8.55913e-08
1.14985e-07
1.51101e-07
1.83462e-07
2.02558e-07
2.02555e-07
1.83455e-07
1.51092e-07
1.14975e-07
8.55827e-08
8.55938e-08
1.14987e-07
1.51103e-07
1.83463e-07
2.02557e-07
2.02553e-07
1.83451e-07
1.51086e-07
1.14968e-07
8.5576e-08
8.5597e-08
1.14989e-07
1.51103e-07
1.8346e-07
2.02551e-07
2.02542e-07
1.83436e-07
1.51069e-07
1.14952e-07
8.55612e-08
8.56019e-08
1.14992e-07
1.51102e-07
1.83453e-07
2.02536e-07
2.02521e-07
1.8341e-07
1.5104e-07
1.14924e-07
8.55361e-08
8.56073e-08
1.14994e-07
1.51098e-07
1.83441e-07
2.02515e-07
2.0249e-07
1.83372e-07
1.51001e-07
1.14886e-07
8.55028e-08
8.56217e-08
1.15004e-07
1.51099e-07
1.83429e-07
2.02487e-07
2.02447e-07
1.83319e-07
1.50944e-07
1.14832e-07
8.54552e-08
8.56292e-08
1.15007e-07
1.51094e-07
1.83414e-07
2.0246e-07
2.02411e-07
1.83277e-07
1.509e-07
1.14791e-07
8.54186e-08
8.5676e-08
1.15048e-07
1.5112e-07
1.83414e-07
2.02429e-07
2.0235e-07
1.83195e-07
1.5081e-07
1.14704e-07
8.53404e-08
)
;
    }
    inlet
    {
        type            calculated;
        value           uniform 0;
    }
    outlet
    {
        type            calculated;
        value           uniform 0;
    }
}


// ************************************************************************* //
