/*--------------------------------*- C++ -*----------------------------------*\
| =========                 |                                                 |
| \\      /  F ield         | OpenFOAM: The Open Source CFD Toolbox           |
|  \\    /   O peration     | Version:  2406                                  |
|   \\  /    A nd           | Website:  www.openfoam.com                      |
|    \\/     M anipulation  |                                                 |
\*---------------------------------------------------------------------------*/
FoamFile
{
    version     2.0;
    format      ascii;
    arch        "LSB;label=32;scalar=64";
    class       volVectorField;
    location    "1.9";
    object      momentError;
}
// * * * * * * * * * * * * * * * * * * * * * * * * * * * * * * * * * * * * * //

dimensions      [0 1 -2 0 0 0 0];

internalField   nonuniform List<vector> 
25000
(
(-2.17479e-07 -3.15965e-07 -3.80238e-07)
(-1.9845e-07 -3.28782e-07 -3.71691e-07)
(-1.65128e-07 -3.32261e-07 -3.71392e-07)
(-1.2893e-07 -3.2422e-07 -3.6861e-07)
(-8.90549e-08 -3.11173e-07 -3.67667e-07)
(-4.47692e-08 -2.98626e-07 -3.74838e-07)
(3.38343e-09 -2.91755e-07 -3.89212e-07)
(5.14618e-08 -2.90649e-07 -4.02377e-07)
(1.07701e-07 -2.91692e-07 -4.03065e-07)
(1.90948e-07 -2.77855e-07 -4.0157e-07)
(-2.30851e-07 -2.64591e-07 -3.88217e-07)
(-2.20595e-07 -2.88535e-07 -3.80877e-07)
(-1.84833e-07 -2.89644e-07 -3.72907e-07)
(-1.46086e-07 -2.83764e-07 -3.63447e-07)
(-1.04841e-07 -2.75022e-07 -3.58821e-07)
(-6.02079e-08 -2.64668e-07 -3.65729e-07)
(-1.33267e-08 -2.59842e-07 -3.82897e-07)
(2.58697e-08 -2.59577e-07 -4.02066e-07)
(6.54034e-08 -2.67025e-07 -4.11705e-07)
(1.17511e-07 -2.58823e-07 -4.09693e-07)
(-2.41703e-07 -2.10265e-07 -3.96537e-07)
(-2.24147e-07 -2.29146e-07 -3.84037e-07)
(-1.86246e-07 -2.29139e-07 -3.70452e-07)
(-1.4576e-07 -2.24658e-07 -3.57238e-07)
(-1.00465e-07 -2.19049e-07 -3.50321e-07)
(-5.44151e-08 -2.14057e-07 -3.56174e-07)
(-1.22536e-08 -2.11862e-07 -3.74209e-07)
(2.13234e-08 -2.15504e-07 -3.95648e-07)
(4.51871e-08 -2.24232e-07 -4.10278e-07)
(7.89667e-08 -2.22343e-07 -4.14572e-07)
(-2.53187e-07 -1.56071e-07 -3.92972e-07)
(-2.27559e-07 -1.74176e-07 -3.76397e-07)
(-1.8528e-07 -1.7418e-07 -3.61081e-07)
(-1.42079e-07 -1.71228e-07 -3.46994e-07)
(-9.78545e-08 -1.66853e-07 -3.39258e-07)
(-5.27204e-08 -1.64209e-07 -3.4471e-07)
(-1.23832e-08 -1.64369e-07 -3.6278e-07)
(1.298e-08 -1.68828e-07 -3.84952e-07)
(2.7696e-08 -1.78156e-07 -4.01691e-07)
(5.16144e-08 -1.76848e-07 -4.10965e-07)
(-2.71972e-07 -1.0492e-07 -3.86483e-07)
(-2.32717e-07 -1.23343e-07 -3.68296e-07)
(-1.8539e-07 -1.24915e-07 -3.52871e-07)
(-1.41001e-07 -1.22754e-07 -3.38831e-07)
(-9.49489e-08 -1.19697e-07 -3.3102e-07)
(-5.16929e-08 -1.1704e-07 -3.36241e-07)
(-1.61406e-08 -1.17539e-07 -3.54221e-07)
(5.1557e-09 -1.22307e-07 -3.76434e-07)
(1.18543e-08 -1.30426e-07 -3.93913e-07)
(3.01827e-08 -1.31146e-07 -4.05088e-07)
(-2.95308e-07 -5.98609e-08 -3.85527e-07)
(-2.43171e-07 -7.92307e-08 -3.67937e-07)
(-1.87273e-07 -8.26605e-08 -3.53793e-07)
(-1.38825e-07 -8.17967e-08 -3.40319e-07)
(-9.30212e-08 -7.90095e-08 -3.32543e-07)
(-5.02212e-08 -7.61591e-08 -3.37628e-07)
(-1.66448e-08 -7.53214e-08 -3.5532e-07)
(-8.02913e-13 -7.76244e-08 -3.77185e-07)
(2.2411e-09 -8.43389e-08 -3.94231e-07)
(1.66596e-08 -8.55417e-08 -4.05355e-07)
(-3.21588e-07 -2.0075e-08 -3.91348e-07)
(-2.53869e-07 -4.43262e-08 -3.76465e-07)
(-1.91436e-07 -4.93108e-08 -3.6418e-07)
(-1.38877e-07 -5.04721e-08 -3.51389e-07)
(-8.92214e-08 -4.7548e-08 -3.43536e-07)
(-4.64341e-08 -4.28356e-08 -3.4853e-07)
(-1.41667e-08 -3.82081e-08 -3.65885e-07)
(1.26191e-09 -3.63478e-08 -3.86951e-07)
(3.01182e-10 -3.74535e-08 -4.0279e-07)
(1.25617e-08 -3.77284e-08 -4.11547e-07)
(-3.44856e-07 1.22299e-08 -3.94464e-07)
(-2.65268e-07 -2.10299e-08 -3.84582e-07)
(-1.93979e-07 -3.06888e-08 -3.75612e-07)
(-1.36224e-07 -3.15862e-08 -3.63471e-07)
(-8.37487e-08 -2.73472e-08 -3.55791e-07)
(-3.86128e-08 -1.8343e-08 -3.60637e-07)
(-5.60075e-09 -7.62875e-09 -3.77235e-07)
(9.55667e-09 2.53372e-09 -3.97615e-07)
(9.66279e-09 9.78974e-09 -4.10883e-07)
(2.21159e-08 1.4789e-08 -4.1512e-07)
(-3.57723e-07 4.36192e-08 -3.86578e-07)
(-2.68501e-07 -8.44964e-09 -3.81361e-07)
(-1.91431e-07 -2.20564e-08 -3.77536e-07)
(-1.28045e-07 -2.24166e-08 -3.67591e-07)
(-7.10104e-08 -1.21265e-08 -3.60745e-07)
(-2.38072e-08 5.12595e-09 -3.65326e-07)
(1.11254e-08 2.75632e-08 -3.81229e-07)
(2.99354e-08 5.19676e-08 -3.99053e-07)
(3.57871e-08 7.45076e-08 -4.07256e-07)
(5.57531e-08 8.71859e-08 -4.05827e-07)
(-3.47625e-07 6.19589e-08 -3.93358e-07)
(-2.42463e-07 1.899e-09 -3.79582e-07)
(-1.6334e-07 -1.03144e-08 -3.79392e-07)
(-9.76606e-08 -1.80603e-09 -3.73368e-07)
(-3.89588e-08 1.90015e-08 -3.68206e-07)
(1.09951e-08 5.01969e-08 -3.72575e-07)
(5.22498e-08 9.09294e-08 -3.8551e-07)
(8.19285e-08 1.38016e-07 -3.9781e-07)
(1.09141e-07 1.81746e-07 -3.98583e-07)
(1.42788e-07 2.10224e-07 -4.0391e-07)
(-1.27901e-07 -6.67311e-07 -1.51398e-06)
(-1.4211e-07 -6.91177e-07 -1.56719e-06)
(-1.28559e-07 -6.62476e-07 -1.65907e-06)
(-9.34134e-08 -5.94877e-07 -1.70014e-06)
(-3.97805e-08 -5.22632e-07 -1.71285e-06)
(2.41025e-08 -4.54675e-07 -1.71209e-06)
(8.54625e-08 -4.00625e-07 -1.69243e-06)
(1.32498e-07 -3.60322e-07 -1.63287e-06)
(1.73183e-07 -3.37899e-07 -1.49747e-06)
(2.56797e-07 -3.29924e-07 -1.34992e-06)
(-1.11766e-07 -4.7039e-07 -1.61312e-06)
(-1.47541e-07 -5.18308e-07 -1.75815e-06)
(-1.46493e-07 -5.20226e-07 -1.876e-06)
(-1.12101e-07 -4.9034e-07 -1.91035e-06)
(-5.47001e-08 -4.52322e-07 -1.91206e-06)
(1.11531e-08 -4.14608e-07 -1.91462e-06)
(7.1841e-08 -3.85932e-07 -1.91407e-06)
(1.09695e-07 -3.62982e-07 -1.87228e-06)
(1.20545e-07 -3.45086e-07 -1.72637e-06)
(1.49008e-07 -3.26622e-07 -1.50497e-06)
(-1.41745e-07 -3.49091e-07 -1.7355e-06)
(-1.68328e-07 -3.86704e-07 -1.90688e-06)
(-1.53522e-07 -3.94993e-07 -2.00062e-06)
(-1.08138e-07 -3.80644e-07 -2.00117e-06)
(-4.62906e-08 -3.61448e-07 -1.98386e-06)
(2.18037e-08 -3.46216e-07 -1.98679e-06)
(8.21993e-08 -3.37351e-07 -2.0066e-06)
(1.18954e-07 -3.34362e-07 -2.00154e-06)
(1.20151e-07 -3.26625e-07 -1.88646e-06)
(1.18427e-07 -3.08227e-07 -1.65364e-06)
(-1.88206e-07 -2.53452e-07 -1.79565e-06)
(-1.94557e-07 -2.82783e-07 -1.95875e-06)
(-1.62369e-07 -2.90488e-07 -2.01766e-06)
(-1.0887e-07 -2.8429e-07 -1.99748e-06)
(-4.49866e-08 -2.74879e-07 -1.97365e-06)
(2.16045e-08 -2.69177e-07 -1.97784e-06)
(7.94487e-08 -2.6902e-07 -2.0056e-06)
(1.14612e-07 -2.74343e-07 -2.02201e-06)
(1.14891e-07 -2.77153e-07 -1.94458e-06)
(1.02672e-07 -2.67015e-07 -1.72937e-06)
(-2.36955e-07 -1.69821e-07 -1.82107e-06)
(-2.22005e-07 -1.91943e-07 -1.97058e-06)
(-1.73112e-07 -2.01546e-07 -2.0087e-06)
(-1.12103e-07 -2.00131e-07 -1.98105e-06)
(-4.60788e-08 -1.96123e-07 -1.95576e-06)
(1.96249e-08 -1.93386e-07 -1.96043e-06)
(7.4134e-08 -1.95049e-07 -1.99071e-06)
(1.05529e-07 -2.02442e-07 -2.01533e-06)
(1.04546e-07 -2.10337e-07 -1.95907e-06)
(8.92019e-08 -2.1205e-07 -1.7626e-06)
(-2.82768e-07 -9.41707e-08 -1.83061e-06)
(-2.47256e-07 -1.1168e-07 -1.98005e-06)
(-1.83758e-07 -1.23185e-07 -2.01748e-06)
(-1.14497e-07 -1.25873e-07 -1.9886e-06)
(-4.46764e-08 -1.24135e-07 -1.96249e-06)
(2.16322e-08 -1.21833e-07 -1.96675e-06)
(7.34958e-08 -1.23423e-07 -1.99698e-06)
(1.02015e-07 -1.28935e-07 -2.02191e-06)
(9.77895e-08 -1.38253e-07 -1.96654e-06)
(7.88534e-08 -1.49988e-07 -1.77202e-06)
(-3.21472e-07 -2.57167e-08 -1.82564e-06)
(-2.67223e-07 -4.03698e-08 -1.98776e-06)
(-1.93085e-07 -5.19112e-08 -2.04426e-06)
(-1.1477e-07 -5.77271e-08 -2.02141e-06)
(-3.8727e-08 -5.71681e-08 -1.99518e-06)
(2.88346e-08 -5.56429e-08 -1.99773e-06)
(8.05049e-08 -5.4505e-08 -2.02505e-06)
(1.06544e-07 -5.77022e-08 -2.04224e-06)
(9.67556e-08 -6.59113e-08 -1.96736e-06)
(7.53294e-08 -8.61814e-08 -1.75862e-06)
(-3.49775e-07 3.53169e-08 -1.78925e-06)
(-2.75869e-07 2.02832e-08 -1.9583e-06)
(-1.95108e-07 1.25727e-08 -2.04879e-06)
(-1.10591e-07 8.16358e-09 -2.04561e-06)
(-2.97057e-08 7.1125e-09 -2.02434e-06)
(4.07825e-08 8.94934e-09 -2.02418e-06)
(9.22006e-08 1.02172e-08 -2.0419e-06)
(1.1529e-07 8.31189e-09 -2.03733e-06)
(1.01184e-07 -7.46274e-10 -1.9267e-06)
(8.21729e-08 -2.5031e-08 -1.70561e-06)
(-3.57017e-07 9.92341e-08 -1.6926e-06)
(-2.62999e-07 7.7075e-08 -1.8348e-06)
(-1.79404e-07 7.52973e-08 -1.94826e-06)
(-9.68048e-08 7.61637e-08 -1.97769e-06)
(-1.54706e-08 7.83421e-08 -1.97368e-06)
(5.36254e-08 7.85718e-08 -1.97043e-06)
(1.02565e-07 7.78144e-08 -1.9659e-06)
(1.23087e-07 7.26483e-08 -1.92469e-06)
(1.13118e-07 6.41445e-08 -1.78518e-06)
(1.18158e-07 4.26593e-08 -1.58106e-06)
(-3.43235e-07 1.83328e-07 -1.63772e-06)
(-2.16469e-07 1.55565e-07 -1.68009e-06)
(-1.2532e-07 1.56079e-07 -1.76439e-06)
(-4.46237e-08 1.61199e-07 -1.79651e-06)
(3.06857e-08 1.66198e-07 -1.80056e-06)
(9.65767e-08 1.69122e-07 -1.79183e-06)
(1.46528e-07 1.71496e-07 -1.76782e-06)
(1.77784e-07 1.72881e-07 -1.70986e-06)
(2.01921e-07 1.75083e-07 -1.58421e-06)
(2.45766e-07 1.70199e-07 -1.46282e-06)
(-3.10116e-08 -8.85386e-07 -2.73489e-06)
(-8.16e-09 -9.2916e-07 -2.80351e-06)
(2.51262e-08 -9.45669e-07 -2.90973e-06)
(5.85442e-08 -9.18981e-07 -2.91186e-06)
(9.89655e-08 -8.67948e-07 -2.86132e-06)
(1.53872e-07 -8.0432e-07 -2.78245e-06)
(2.16076e-07 -7.44344e-07 -2.66336e-06)
(2.78379e-07 -6.92545e-07 -2.47377e-06)
(3.45963e-07 -6.39755e-07 -2.14551e-06)
(4.63848e-07 -5.67563e-07 -1.72161e-06)
(-8.55527e-08 -6.6641e-07 -2.91925e-06)
(-8.7268e-08 -7.09878e-07 -3.14936e-06)
(-5.3126e-08 -7.18611e-07 -3.32626e-06)
(-1.02576e-08 -7.08112e-07 -3.37024e-06)
(4.07827e-08 -6.82075e-07 -3.34912e-06)
(1.03548e-07 -6.40662e-07 -3.2903e-06)
(1.67908e-07 -5.99903e-07 -3.18631e-06)
(2.13821e-07 -5.63864e-07 -2.9988e-06)
(2.47717e-07 -5.38911e-07 -2.64512e-06)
(2.97625e-07 -4.868e-07 -2.13824e-06)
(-1.1133e-07 -5.26463e-07 -3.13728e-06)
(-1.14744e-07 -5.41663e-07 -3.42495e-06)
(-7.7224e-08 -5.35836e-07 -3.62659e-06)
(-2.48688e-08 -5.27203e-07 -3.69253e-06)
(4.32776e-08 -5.13758e-07 -3.68584e-06)
(1.17814e-07 -4.943e-07 -3.6367e-06)
(1.80415e-07 -4.73384e-07 -3.53812e-06)
(2.19495e-07 -4.60884e-07 -3.35153e-06)
(2.24901e-07 -4.55321e-07 -2.99398e-06)
(2.32205e-07 -4.35066e-07 -2.4634e-06)
(-1.19005e-07 -4.05297e-07 -3.24682e-06)
(-1.2523e-07 -4.07637e-07 -3.55296e-06)
(-8.66386e-08 -3.93993e-07 -3.767e-06)
(-2.95106e-08 -3.85285e-07 -3.84845e-06)
(4.15592e-08 -3.759e-07 -3.84764e-06)
(1.20626e-07 -3.68557e-07 -3.80374e-06)
(1.8635e-07 -3.63186e-07 -3.71206e-06)
(2.14682e-07 -3.63856e-07 -3.52472e-06)
(2.07359e-07 -3.72882e-07 -3.16923e-06)
(1.95317e-07 -3.69779e-07 -2.64197e-06)
(-1.33867e-07 -2.96454e-07 -3.30473e-06)
(-1.29716e-07 -2.92962e-07 -3.60976e-06)
(-9.09579e-08 -2.78188e-07 -3.82627e-06)
(-3.44458e-08 -2.67906e-07 -3.91001e-06)
(4.09693e-08 -2.60439e-07 -3.90335e-06)
(1.1789e-07 -2.56408e-07 -3.86151e-06)
(1.80131e-07 -2.59702e-07 -3.7829e-06)
(2.05548e-07 -2.69817e-07 -3.60298e-06)
(1.89239e-07 -2.85553e-07 -3.25357e-06)
(1.70576e-07 -3.00596e-07 -2.73646e-06)
(-1.48902e-07 -1.99347e-07 -3.33846e-06)
(-1.34188e-07 -1.93736e-07 -3.63349e-06)
(-8.91599e-08 -1.80432e-07 -3.84529e-06)
(-2.9671e-08 -1.70319e-07 -3.92746e-06)
(4.36581e-08 -1.64528e-07 -3.92137e-06)
(1.19127e-07 -1.62553e-07 -3.88078e-06)
(1.77975e-07 -1.66215e-07 -3.8037e-06)
(1.97735e-07 -1.78131e-07 -3.62644e-06)
(1.78166e-07 -1.98937e-07 -3.28212e-06)
(1.58399e-07 -2.26836e-07 -2.77599e-06)
(-1.62587e-07 -1.11614e-07 -3.35425e-06)
(-1.31772e-07 -1.096e-07 -3.62635e-06)
(-8.22187e-08 -9.86081e-08 -3.82705e-06)
(-2.01916e-08 -9.0856e-08 -3.90392e-06)
(5.47805e-08 -8.41401e-08 -3.90363e-06)
(1.28403e-07 -8.11337e-08 -3.86287e-06)
(1.81807e-07 -8.38308e-08 -3.77651e-06)
(1.98102e-07 -9.51267e-08 -3.5984e-06)
(1.77528e-07 -1.13761e-07 -3.25887e-06)
(1.60996e-07 -1.53788e-07 -2.76451e-06)
(-1.71063e-07 -3.22176e-08 -3.3275e-06)
(-1.26818e-07 -3.86061e-08 -3.56151e-06)
(-6.94048e-08 -3.35239e-08 -3.74199e-06)
(-2.16163e-09 -2.69921e-08 -3.80049e-06)
(7.24569e-08 -2.00618e-08 -3.79343e-06)
(1.44044e-07 -1.45053e-08 -3.74862e-06)
(1.9363e-07 -1.35491e-08 -3.65838e-06)
(2.09665e-07 -1.85235e-08 -3.48683e-06)
(1.93067e-07 -3.33809e-08 -3.15536e-06)
(1.86346e-07 -7.96749e-08 -2.67891e-06)
(-1.70297e-07 5.06845e-08 -3.20529e-06)
(-1.0796e-07 2.71568e-08 -3.36581e-06)
(-4.54326e-08 2.85462e-08 -3.52063e-06)
(2.57028e-08 3.27747e-08 -3.55702e-06)
(1.02011e-07 4.19912e-08 -3.53506e-06)
(1.71375e-07 5.19767e-08 -3.48019e-06)
(2.20405e-07 6.18386e-08 -3.38512e-06)
(2.4011e-07 6.72797e-08 -3.21683e-06)
(2.35988e-07 6.08364e-08 -2.89461e-06)
(2.56558e-07 7.27689e-09 -2.4601e-06)
(-1.45393e-07 1.54104e-07 -3.18947e-06)
(-4.75781e-08 1.19184e-07 -3.15873e-06)
(3.19617e-08 1.13229e-07 -3.23742e-06)
(1.09651e-07 1.17324e-07 -3.22888e-06)
(1.87464e-07 1.29516e-07 -3.17574e-06)
(2.59029e-07 1.50369e-07 -3.09778e-06)
(3.15362e-07 1.7873e-07 -2.98832e-06)
(3.52778e-07 2.09087e-07 -2.81843e-06)
(3.85272e-07 2.18758e-07 -2.52753e-06)
(4.53161e-07 1.74151e-07 -2.20838e-06)
(4.25914e-07 -1.30119e-06 -4.22473e-06)
(4.12944e-07 -1.35638e-06 -4.18951e-06)
(4.50327e-07 -1.37381e-06 -4.28262e-06)
(4.86976e-07 -1.35759e-06 -4.23085e-06)
(5.11797e-07 -1.31411e-06 -4.09985e-06)
(5.27125e-07 -1.23311e-06 -3.91114e-06)
(5.26974e-07 -1.11609e-06 -3.6502e-06)
(5.0991e-07 -9.70546e-07 -3.27668e-06)
(4.83724e-07 -8.10995e-07 -2.68755e-06)
(4.9446e-07 -6.34316e-07 -1.87363e-06)
(3.4091e-07 -9.09019e-07 -4.4032e-06)
(3.04049e-07 -9.33757e-07 -4.61454e-06)
(3.21688e-07 -9.39136e-07 -4.825e-06)
(3.55809e-07 -9.38406e-07 -4.85358e-06)
(3.9128e-07 -9.22178e-07 -4.78694e-06)
(4.17917e-07 -8.80715e-07 -4.64772e-06)
(4.21922e-07 -8.17682e-07 -4.4243e-06)
(3.86894e-07 -7.41144e-07 -4.07351e-06)
(3.08515e-07 -6.65448e-07 -3.47701e-06)
(2.26144e-07 -5.6472e-07 -2.62421e-06)
(2.50358e-07 -7.0281e-07 -4.70747e-06)
(2.19277e-07 -6.79337e-07 -5.00911e-06)
(2.44139e-07 -6.70553e-07 -5.25198e-06)
(2.92699e-07 -6.67738e-07 -5.32114e-06)
(3.51689e-07 -6.62677e-07 -5.29641e-06)
(4.00832e-07 -6.49716e-07 -5.17853e-06)
(4.15342e-07 -6.25021e-07 -4.95535e-06)
(3.80428e-07 -6.02373e-07 -4.60465e-06)
(2.80713e-07 -5.78771e-07 -4.01321e-06)
(1.5347e-07 -5.45263e-07 -3.15364e-06)
(1.83113e-07 -5.56748e-07 -4.87987e-06)
(1.64113e-07 -5.15904e-07 -5.21142e-06)
(1.99578e-07 -4.99927e-07 -5.47837e-06)
(2.61459e-07 -4.96152e-07 -5.61292e-06)
(3.34509e-07 -5.01853e-07 -5.67784e-06)
(3.94158e-07 -5.03534e-07 -5.57587e-06)
(4.11733e-07 -4.96028e-07 -5.28975e-06)
(3.71609e-07 -4.9692e-07 -4.89387e-06)
(2.68488e-07 -5.02947e-07 -4.30179e-06)
(1.34624e-07 -5.07472e-07 -3.4612e-06)
(1.33652e-07 -4.40154e-07 -4.99201e-06)
(1.28696e-07 -3.95929e-07 -5.32416e-06)
(1.74498e-07 -3.79125e-07 -5.60721e-06)
(2.42932e-07 -3.77346e-07 -5.81537e-06)
(3.27971e-07 -3.87995e-07 -6.03021e-06)
(3.96348e-07 -3.92499e-07 -5.9446e-06)
(4.1045e-07 -3.9288e-07 -5.51897e-06)
(3.64115e-07 -4.05232e-07 -5.05563e-06)
(2.60684e-07 -4.26388e-07 -4.46018e-06)
(1.33982e-07 -4.62417e-07 -3.64237e-06)
(1.01283e-07 -3.37617e-07 -5.07345e-06)
(1.09278e-07 -2.95254e-07 -5.38421e-06)
(1.62109e-07 -2.80194e-07 -5.65808e-06)
(2.35354e-07 -2.7862e-07 -5.85953e-06)
(3.21265e-07 -2.82438e-07 -6.06881e-06)
(3.91487e-07 -2.88679e-07 -5.98367e-06)
(4.05524e-07 -2.98794e-07 -5.56512e-06)
(3.61002e-07 -3.17496e-07 -5.1096e-06)
(2.64081e-07 -3.49385e-07 -4.52525e-06)
(1.48902e-07 -4.10422e-07 -3.73117e-06)
(8.59201e-08 -2.40425e-07 -5.1306e-06)
(1.05295e-07 -2.0437e-07 -5.39651e-06)
(1.61237e-07 -1.92149e-07 -5.63659e-06)
(2.35902e-07 -1.90206e-07 -5.75436e-06)
(3.18533e-07 -1.90001e-07 -5.80982e-06)
(3.8268e-07 -1.95789e-07 -5.70927e-06)
(4.01698e-07 -2.12111e-07 -5.43579e-06)
(3.68981e-07 -2.37589e-07 -5.06144e-06)
(2.81441e-07 -2.76399e-07 -4.50203e-06)
(1.81434e-07 -3.6033e-07 -3.73245e-06)
(8.79796e-08 -1.47407e-07 -5.14215e-06)
(1.21851e-07 -1.22023e-07 -5.33672e-06)
(1.79802e-07 -1.11208e-07 -5.54002e-06)
(2.5446e-07 -1.07884e-07 -5.58657e-06)
(3.3184e-07 -1.09751e-07 -5.5514e-06)
(3.94172e-07 -1.18345e-07 -5.43513e-06)
(4.18175e-07 -1.37616e-07 -5.22557e-06)
(3.93939e-07 -1.68555e-07 -4.90433e-06)
(3.19302e-07 -2.15143e-07 -4.36336e-06)
(2.40722e-07 -3.1664e-07 -3.62128e-06)
(1.13338e-07 -4.86392e-08 -5.04164e-06)
(1.70252e-07 -3.6705e-08 -5.10636e-06)
(2.33306e-07 -2.53396e-08 -5.2727e-06)
(3.05459e-07 -1.82028e-08 -5.27785e-06)
(3.78656e-07 -2.02558e-08 -5.20019e-06)
(4.35553e-07 -3.41439e-08 -5.06204e-06)
(4.5988e-07 -6.16412e-08 -4.85317e-06)
(4.44437e-07 -1.03047e-07 -4.53822e-06)
(3.90266e-07 -1.60637e-07 -4.00345e-06)
(3.60299e-07 -2.78875e-07 -3.3147e-06)
(1.73107e-07 8.36808e-08 -5.23617e-06)
(2.7164e-07 9.51772e-08 -4.96833e-06)
(3.61373e-07 1.0437e-07 -4.99379e-06)
(4.4431e-07 1.10072e-07 -4.90991e-06)
(5.18552e-07 1.03813e-07 -4.76525e-06)
(5.78547e-07 8.36691e-08 -4.57713e-06)
(6.14283e-07 4.95137e-08 -4.33608e-06)
(6.24042e-07 1.20489e-09 -4.00793e-06)
(6.22662e-07 -7.00363e-08 -3.50512e-06)
(6.63899e-07 -1.99476e-07 -2.94325e-06)
(7.74994e-07 -1.83614e-06 -6.16408e-06)
(8.00072e-07 -1.80593e-06 -5.8653e-06)
(8.68535e-07 -1.79798e-06 -5.79815e-06)
(9.15189e-07 -1.74699e-06 -5.54722e-06)
(9.35141e-07 -1.63713e-06 -5.18765e-06)
(9.47445e-07 -1.47007e-06 -4.73996e-06)
(9.54459e-07 -1.26867e-06 -4.17313e-06)
(9.58734e-07 -1.06331e-06 -3.43016e-06)
(9.64287e-07 -8.78576e-07 -2.36415e-06)
(1.04603e-06 -7.2306e-07 -7.48754e-07)
(4.35055e-07 -1.40936e-06 -6.30495e-06)
(4.6063e-07 -1.3498e-06 -6.3737e-06)
(5.5313e-07 -1.31357e-06 -6.4935e-06)
(6.3468e-07 -1.27214e-06 -6.38111e-06)
(6.92883e-07 -1.20463e-06 -6.14381e-06)
(7.36336e-07 -1.10115e-06 -5.80273e-06)
(7.60253e-07 -9.82374e-07 -5.33908e-06)
(7.50711e-07 -8.68467e-07 -4.692e-06)
(7.14423e-07 -7.87933e-07 -3.69822e-06)
(6.96552e-07 -7.10981e-07 -2.2014e-06)
(2.59549e-07 -1.14298e-06 -6.70428e-06)
(3.09495e-07 -1.03859e-06 -6.89635e-06)
(4.23218e-07 -9.77445e-07 -7.06207e-06)
(5.36401e-07 -9.35174e-07 -7.0075e-06)
(6.40802e-07 -8.94877e-07 -6.84153e-06)
(7.17091e-07 -8.46466e-07 -6.54602e-06)
(7.48205e-07 -7.89716e-07 -6.10595e-06)
(7.33433e-07 -7.47915e-07 -5.48911e-06)
(6.59332e-07 -7.29663e-07 -4.53315e-06)
(5.85007e-07 -7.30239e-07 -3.10099e-06)
(1.70808e-07 -9.26767e-07 -6.9623e-06)
(2.34557e-07 -8.13466e-07 -7.19026e-06)
(3.65141e-07 -7.454e-07 -7.38007e-06)
(5.06081e-07 -7.09536e-07 -7.40854e-06)
(6.38692e-07 -6.91237e-07 -7.40659e-06)
(7.29806e-07 -6.78519e-07 -7.14223e-06)
(7.55277e-07 -6.54416e-07 -6.60713e-06)
(7.2135e-07 -6.49892e-07 -5.94652e-06)
(6.33338e-07 -6.70663e-07 -5.0125e-06)
(5.41745e-07 -7.1742e-07 -3.65494e-06)
(1.02848e-07 -7.40695e-07 -7.16795e-06)
(1.96163e-07 -6.38704e-07 -7.38343e-06)
(3.42645e-07 -5.79663e-07 -7.59027e-06)
(5.05027e-07 -5.5639e-07 -7.73201e-06)
(6.7327e-07 -5.61113e-07 -8.03439e-06)
(7.69809e-07 -5.56259e-07 -7.86366e-06)
(7.69576e-07 -5.44828e-07 -6.9967e-06)
(7.18496e-07 -5.60508e-07 -6.22648e-06)
(6.19983e-07 -6.05038e-07 -5.30283e-06)
(5.30287e-07 -6.93482e-07 -4.00757e-06)
(5.94528e-08 -5.75081e-07 -7.3546e-06)
(1.76979e-07 -4.91278e-07 -7.52191e-06)
(3.36579e-07 -4.46458e-07 -7.70904e-06)
(5.06731e-07 -4.30525e-07 -7.83642e-06)
(6.71706e-07 -4.37084e-07 -8.09433e-06)
(7.70626e-07 -4.39797e-07 -7.92464e-06)
(7.69464e-07 -4.41616e-07 -7.10675e-06)
(7.18951e-07 -4.72886e-07 -6.3535e-06)
(6.26241e-07 -5.36988e-07 -5.45206e-06)
(5.48852e-07 -6.58732e-07 -4.21001e-06)
(4.18877e-08 -4.15113e-07 -7.53647e-06)
(1.84769e-07 -3.58887e-07 -7.61053e-06)
(3.43488e-07 -3.27835e-07 -7.74189e-06)
(4.96979e-07 -3.20324e-07 -7.72925e-06)
(6.4208e-07 -3.25757e-07 -7.69926e-06)
(7.39389e-07 -3.30595e-07 -7.43985e-06)
(7.64048e-07 -3.51715e-07 -6.94162e-06)
(7.35534e-07 -3.98432e-07 -6.33317e-06)
(6.57125e-07 -4.7417e-07 -5.46827e-06)
(5.99931e-07 -6.2655e-07 -4.26951e-06)
(5.9798e-08 -2.55994e-07 -7.6912e-06)
(2.18852e-07 -2.3263e-07 -7.62635e-06)
(3.8102e-07 -2.22828e-07 -7.70159e-06)
(5.27256e-07 -2.25672e-07 -7.59758e-06)
(6.56451e-07 -2.38276e-07 -7.41026e-06)
(7.52983e-07 -2.56952e-07 -7.12103e-06)
(7.97339e-07 -2.90646e-07 -6.71496e-06)
(7.86362e-07 -3.44902e-07 -6.16489e-06)
(7.27964e-07 -4.27923e-07 -5.31634e-06)
(7.00657e-07 -5.99782e-07 -4.15482e-06)
(1.35152e-07 -7.91755e-08 -7.74492e-06)
(3.0261e-07 -1.06762e-07 -7.44348e-06)
(4.62779e-07 -1.20212e-07 -7.4547e-06)
(6.08506e-07 -1.43651e-07 -7.2878e-06)
(7.35757e-07 -1.7052e-07 -7.02768e-06)
(8.33384e-07 -2.04406e-07 -6.69443e-06)
(8.86889e-07 -2.47669e-07 -6.2715e-06)
(8.9249e-07 -3.06065e-07 -5.71076e-06)
(8.62758e-07 -3.91574e-07 -4.85975e-06)
(8.92945e-07 -5.81734e-07 -3.75515e-06)
(3.65672e-07 1.13286e-07 -8.44317e-06)
(5.45624e-07 4.70377e-08 -7.5543e-06)
(7.14256e-07 -3.45322e-09 -7.31072e-06)
(8.64224e-07 -5.03295e-08 -6.97446e-06)
(9.94837e-07 -9.69911e-08 -6.5806e-06)
(1.09972e-06 -1.42254e-07 -6.14105e-06)
(1.17203e-06 -1.89076e-07 -5.63774e-06)
(1.20862e-06 -2.41949e-07 -5.02272e-06)
(1.2336e-06 -3.3577e-07 -4.17645e-06)
(1.3508e-06 -5.37491e-07 -3.17544e-06)
(2.05202e-06 -2.35288e-06 -8.66043e-06)
(1.95986e-06 -2.15292e-06 -7.78584e-06)
(1.98893e-06 -2.02422e-06 -7.37145e-06)
(2.01062e-06 -1.88369e-06 -6.75184e-06)
(1.99476e-06 -1.70289e-06 -5.98889e-06)
(1.94503e-06 -1.48257e-06 -5.08934e-06)
(1.85103e-06 -1.24708e-06 -4.01612e-06)
(1.70836e-06 -1.0187e-06 -2.68623e-06)
(1.52537e-06 -8.20428e-07 -9.07488e-07)
(1.41588e-06 -6.87537e-07 1.91319e-06)
(1.49809e-06 -1.82116e-06 -8.63472e-06)
(1.45046e-06 -1.60588e-06 -8.28992e-06)
(1.50411e-06 -1.50775e-06 -8.16969e-06)
(1.56164e-06 -1.42634e-06 -7.79041e-06)
(1.5921e-06 -1.32888e-06 -7.25312e-06)
(1.57615e-06 -1.20935e-06 -6.56948e-06)
(1.49444e-06 -1.07945e-06 -5.71092e-06)
(1.33563e-06 -9.59189e-07 -4.59871e-06)
(1.09332e-06 -8.65383e-07 -3.0268e-06)
(8.57013e-07 -8.10069e-07 -6.15486e-07)
(1.15142e-06 -1.53149e-06 -9.13322e-06)
(1.16584e-06 -1.29884e-06 -8.97075e-06)
(1.26707e-06 -1.21158e-06 -8.92386e-06)
(1.37417e-06 -1.15925e-06 -8.63746e-06)
(1.45907e-06 -1.11253e-06 -8.22109e-06)
(1.48368e-06 -1.06042e-06 -7.62758e-06)
(1.41747e-06 -9.99065e-07 -6.83676e-06)
(1.25624e-06 -9.53398e-07 -5.79604e-06)
(9.90387e-07 -9.26258e-07 -4.3028e-06)
(6.99629e-07 -9.54987e-07 -2.07078e-06)
(9.17961e-07 -1.31861e-06 -9.53209e-06)
(9.82815e-07 -1.09865e-06 -9.42144e-06)
(1.12559e-06 -1.02483e-06 -9.40865e-06)
(1.28315e-06 -9.9733e-07 -9.22748e-06)
(1.43048e-06 -9.91501e-07 -9.04832e-06)
(1.47843e-06 -9.79231e-07 -8.50841e-06)
(1.39657e-06 -9.47286e-07 -7.61454e-06)
(1.22519e-06 -9.38695e-07 -6.53736e-06)
(9.57049e-07 -9.5607e-07 -5.09141e-06)
(6.65011e-07 -1.04719e-06 -3.01342e-06)
(7.5618e-07 -1.12903e-06 -9.91211e-06)
(8.62959e-07 -9.38727e-07 -9.77916e-06)
(1.04628e-06 -8.83357e-07 -9.78192e-06)
(1.26213e-06 -8.84868e-07 -9.73299e-06)
(1.48507e-06 -9.27147e-07 -9.92e-06)
(1.54456e-06 -9.28591e-07 -9.59593e-06)
(1.41635e-06 -8.95595e-07 -8.23806e-06)
(1.22449e-06 -9.04324e-07 -7.02648e-06)
(9.60482e-07 -9.56162e-07 -5.60891e-06)
(6.86949e-07 -1.10744e-06 -3.65092e-06)
(6.53956e-07 -9.43335e-07 -1.03058e-05)
(7.9758e-07 -7.84804e-07 -1.0082e-05)
(1.00438e-06 -7.44428e-07 -1.00497e-05)
(1.23747e-06 -7.54424e-07 -9.97524e-06)
(1.46815e-06 -8.06348e-07 -1.00471e-05)
(1.53975e-06 -8.27051e-07 -9.72377e-06)
(1.41849e-06 -8.14051e-07 -8.48298e-06)
(1.24251e-06 -8.47885e-07 -7.298e-06)
(9.99469e-07 -9.33455e-07 -5.91666e-06)
(7.54437e-07 -1.1426e-06 -4.05277e-06)
(6.10426e-07 -7.44955e-07 -1.07239e-05)
(7.81536e-07 -6.2052e-07 -1.03356e-05)
(9.95905e-07 -5.93415e-07 -1.02143e-05)
(1.20285e-06 -6.01964e-07 -9.9494e-06)
(1.38601e-06 -6.4088e-07 -9.71021e-06)
(1.46687e-06 -6.72558e-07 -9.1728e-06)
(1.41581e-06 -7.0988e-07 -8.34269e-06)
(1.28684e-06 -7.86076e-07 -7.35466e-06)
(1.07722e-06 -9.06997e-07 -6.0232e-06)
(8.70509e-07 -1.17358e-06 -4.22983e-06)
(6.32822e-07 -5.317e-07 -1.11568e-05)
(8.30154e-07 -4.43606e-07 -1.05202e-05)
(1.04729e-06 -4.29581e-07 -1.03077e-05)
(1.24174e-06 -4.45812e-07 -9.92169e-06)
(1.39507e-06 -4.86717e-07 -9.45866e-06)
(1.47888e-06 -5.45766e-07 -8.86835e-06)
(1.47155e-06 -6.28488e-07 -8.13074e-06)
(1.37988e-06 -7.43117e-07 -7.20234e-06)
(1.20802e-06 -8.98906e-07 -5.88797e-06)
(1.05042e-06 -1.215e-06 -4.14518e-06)
(7.56879e-07 -2.87192e-07 -1.15406e-05)
(9.64915e-07 -2.40698e-07 -1.05014e-05)
(1.18043e-06 -2.44047e-07 -1.01703e-05)
(1.36653e-06 -2.76633e-07 -9.67692e-06)
(1.51078e-06 -3.41666e-07 -9.09028e-06)
(1.59454e-06 -4.37845e-07 -8.41791e-06)
(1.60516e-06 -5.65976e-07 -7.63332e-06)
(1.54409e-06 -7.2606e-07 -6.67341e-06)
(1.4204e-06 -9.25747e-07 -5.3484e-06)
(1.36442e-06 -1.29016e-06 -3.66305e-06)
(1.1211e-06 -3.66651e-09 -1.31791e-05)
(1.32865e-06 2.68429e-08 -1.11583e-05)
(1.55749e-06 -7.44087e-09 -1.03864e-05)
(1.75134e-06 -7.17336e-08 -9.58355e-06)
(1.90005e-06 -1.75683e-07 -8.74867e-06)
(1.99886e-06 -3.18975e-07 -7.87549e-06)
(2.0427e-06 -5.00533e-07 -6.93457e-06)
(2.03279e-06 -7.17797e-07 -5.85784e-06)
(1.99981e-06 -9.89437e-07 -4.49136e-06)
(2.083e-06 -1.41715e-06 -2.8368e-06)
(3.46026e-06 -3.17695e-06 -1.21946e-05)
(3.33078e-06 -2.53487e-06 -1.02958e-05)
(3.37921e-06 -2.23066e-06 -9.2245e-06)
(3.40432e-06 -2.03485e-06 -7.94133e-06)
(3.36771e-06 -1.83015e-06 -6.47838e-06)
(3.28704e-06 -1.60444e-06 -4.82295e-06)
(3.16113e-06 -1.36551e-06 -2.90835e-06)
(2.99376e-06 -1.14773e-06 -6.05843e-07)
(2.79666e-06 -9.68079e-07 2.35634e-06)
(2.78187e-06 -9.36855e-07 7.31302e-06)
(2.40357e-06 -2.78487e-06 -1.19155e-05)
(2.37706e-06 -2.25602e-06 -1.08147e-05)
(2.50871e-06 -2.02488e-06 -1.02131e-05)
(2.61266e-06 -1.86536e-06 -9.33454e-06)
(2.65453e-06 -1.71062e-06 -8.26478e-06)
(2.63527e-06 -1.54834e-06 -7.00168e-06)
(2.54667e-06 -1.38684e-06 -5.49618e-06)
(2.38346e-06 -1.25413e-06 -3.6311e-06)
(2.16375e-06 -1.17215e-06 -1.13125e-06)
(2.02e-06 -1.19021e-06 2.87675e-06)
(1.89213e-06 -2.51646e-06 -1.25807e-05)
(1.96097e-06 -2.06631e-06 -1.17429e-05)
(2.1534e-06 -1.86919e-06 -1.12568e-05)
(2.31968e-06 -1.73903e-06 -1.05239e-05)
(2.43636e-06 -1.6347e-06 -9.64674e-06)
(2.4651e-06 -1.53343e-06 -8.54005e-06)
(2.38853e-06 -1.43183e-06 -7.17366e-06)
(2.2227e-06 -1.36345e-06 -5.45135e-06)
(1.97051e-06 -1.34202e-06 -3.10801e-06)
(1.77121e-06 -1.44458e-06 4.956e-07)
(1.60617e-06 -2.25352e-06 -1.32046e-05)
(1.72644e-06 -1.86942e-06 -1.24319e-05)
(1.97016e-06 -1.7073e-06 -1.19879e-05)
(2.20811e-06 -1.62414e-06 -1.13889e-05)
(2.41346e-06 -1.58245e-06 -1.0839e-05)
(2.47191e-06 -1.53069e-06 -9.82174e-06)
(2.36195e-06 -1.45583e-06 -8.36681e-06)
(2.16692e-06 -1.42451e-06 -6.62787e-06)
(1.89994e-06 -1.45016e-06 -4.38346e-06)
(1.68744e-06 -1.62139e-06 -1.09447e-06)
(1.41182e-06 -1.96858e-06 -1.38659e-05)
(1.58887e-06 -1.6529e-06 -1.30347e-05)
(1.88189e-06 -1.53492e-06 -1.25972e-05)
(2.2026e-06 -1.51159e-06 -1.21412e-05)
(2.53962e-06 -1.55898e-06 -1.19919e-05)
(2.61404e-06 -1.52977e-06 -1.13754e-05)
(2.41568e-06 -1.44626e-06 -9.32176e-06)
(2.18048e-06 -1.43508e-06 -7.43721e-06)
(1.90489e-06 -1.50301e-06 -5.26228e-06)
(1.70271e-06 -1.75006e-06 -2.2091e-06)
(1.30146e-06 -1.66759e-06 -1.46061e-05)
(1.52088e-06 -1.41261e-06 -1.36031e-05)
(1.84426e-06 -1.33116e-06 -1.30978e-05)
(2.1885e-06 -1.33056e-06 -1.2598e-05)
(2.53502e-06 -1.40006e-06 -1.22435e-05)
(2.63288e-06 -1.41499e-06 -1.16268e-05)
(2.44589e-06 -1.36242e-06 -9.78242e-06)
(2.2278e-06 -1.39198e-06 -7.94334e-06)
(1.97487e-06 -1.50921e-06 -5.83473e-06)
(1.80264e-06 -1.83269e-06 -2.95567e-06)
(1.27275e-06 -1.33504e-06 -1.54523e-05)
(1.52791e-06 -1.1414e-06 -1.41508e-05)
(1.8539e-06 -1.08904e-06 -1.34965e-05)
(2.15359e-06 -1.09356e-06 -1.27458e-05)
(2.41503e-06 -1.14288e-06 -1.20928e-05)
(2.52642e-06 -1.17792e-06 -1.10789e-05)
(2.46082e-06 -1.21681e-06 -9.73215e-06)
(2.31929e-06 -1.3151e-06 -8.15251e-06)
(2.11459e-06 -1.48503e-06 -6.11757e-06)
(1.99032e-06 -1.89275e-06 -3.3566e-06)
(1.34397e-06 -9.71326e-07 -1.64131e-05)
(1.62119e-06 -8.37253e-07 -1.46741e-05)
(1.95075e-06 -8.19077e-07 -1.38596e-05)
(2.23209e-06 -8.43218e-07 -1.29355e-05)
(2.44853e-06 -8.99027e-07 -1.19711e-05)
(2.56946e-06 -9.73971e-07 -1.08679e-05)
(2.57961e-06 -1.07822e-06 -9.59565e-06)
(2.49883e-06 -1.22976e-06 -8.07695e-06)
(2.34647e-06 -1.44873e-06 -6.0619e-06)
(2.288e-06 -1.93397e-06 -3.36803e-06)
(1.55858e-06 -5.55331e-07 -1.74541e-05)
(1.83493e-06 -4.92486e-07 -1.50377e-05)
(2.16138e-06 -5.1462e-07 -1.40119e-05)
(2.44299e-06 -5.76308e-07 -1.29026e-05)
(2.65911e-06 -6.70106e-07 -1.17309e-05)
(2.79533e-06 -7.8896e-07 -1.04811e-05)
(2.843e-06 -9.41344e-07 -9.10745e-06)
(2.80699e-06 -1.13405e-06 -7.51886e-06)
(2.71939e-06 -1.40372e-06 -5.47516e-06)
(2.78218e-06 -1.98273e-06 -2.82192e-06)
(2.18925e-06 -1.14463e-07 -2.07744e-05)
(2.4315e-06 -8.52181e-08 -1.67248e-05)
(2.77234e-06 -1.73104e-07 -1.49529e-05)
(3.07015e-06 -2.90632e-07 -1.33014e-05)
(3.30764e-06 -4.38659e-07 -1.16859e-05)
(3.47783e-06 -6.05817e-07 -1.00673e-05)
(3.57945e-06 -8.01459e-07 -8.38972e-06)
(3.6121e-06 -1.03382e-06 -6.55355e-06)
(3.62281e-06 -1.39635e-06 -4.35647e-06)
(3.87349e-06 -2.08615e-06 -1.57811e-06)
(5.66601e-06 -4.9615e-06 -1.68651e-05)
(5.40124e-06 -4.01169e-06 -1.33132e-05)
(5.44242e-06 -3.37036e-06 -1.11837e-05)
(5.48305e-06 -2.83438e-06 -8.86729e-06)
(5.43665e-06 -2.33452e-06 -6.32193e-06)
(5.29239e-06 -1.87949e-06 -3.49426e-06)
(5.02534e-06 -1.48154e-06 -2.85262e-07)
(4.62767e-06 -1.16324e-06 3.49728e-06)
(4.12083e-06 -9.33385e-07 8.22537e-06)
(3.80576e-06 -9.56094e-07 1.64467e-05)
(4.27755e-06 -4.06712e-06 -1.60911e-05)
(4.16805e-06 -3.24853e-06 -1.37415e-05)
(4.29333e-06 -2.818e-06 -1.2365e-05)
(4.40579e-06 -2.47961e-06 -1.07128e-05)
(4.43559e-06 -2.17379e-06 -8.8194e-06)
(4.34259e-06 -1.89944e-06 -6.65963e-06)
(4.09627e-06 -1.66047e-06 -4.16091e-06)
(3.69373e-06 -1.48243e-06 -1.16272e-06)
(3.13997e-06 -1.37417e-06 2.68337e-06)
(2.65188e-06 -1.45102e-06 9.05937e-06)
(3.53442e-06 -3.59906e-06 -1.6929e-05)
(3.58413e-06 -2.86914e-06 -1.49723e-05)
(3.80625e-06 -2.55059e-06 -1.37867e-05)
(4.00084e-06 -2.33597e-06 -1.2367e-05)
(4.1107e-06 -2.16709e-06 -1.07776e-05)
(4.06471e-06 -2.01729e-06 -8.87892e-06)
(3.82805e-06 -1.87974e-06 -6.63473e-06)
(3.4181e-06 -1.79232e-06 -3.88836e-06)
(2.84456e-06 -1.76306e-06 -3.18608e-07)
(2.29898e-06 -1.94495e-06 5.28671e-06)
(3.07685e-06 -3.25203e-06 -1.78678e-05)
(3.21705e-06 -2.61651e-06 -1.60006e-05)