/*--------------------------------*- C++ -*----------------------------------*\
| =========                 |                                                 |
| \\      /  F ield         | OpenFOAM: The Open Source CFD Toolbox           |
|  \\    /   O peration     | Version:  2406                                  |
|   \\  /    A nd           | Website:  www.openfoam.com                      |
|    \\/     M anipulation  |                                                 |
\*---------------------------------------------------------------------------*/
FoamFile
{
    version     2.0;
    format      ascii;
    arch        "LSB;label=32;scalar=64";
    class       surfaceScalarField;
    location    "1.9";
    object      phi;
}
// * * * * * * * * * * * * * * * * * * * * * * * * * * * * * * * * * * * * * //

dimensions      [0 3 -1 0 0 0 0];

oriented        oriented;

internalField   nonuniform List<scalar> 
73500
(
4.64638e-05
4.64638e-05
5.7055e-05
-5.14904e-05
-5.14904e-05
3.76966e-05
4.71304e-05
6.4902e-05
-5.23269e-05
2.65017e-05
4.75019e-05
7.06874e-05
-5.30513e-05
1.36506e-05
4.76219e-05
7.45177e-05
-5.33174e-05
8.58686e-13
4.76558e-05
7.64234e-05
-5.34357e-05
-1.36506e-05
4.76558e-05
7.64234e-05
-5.34357e-05
-2.65017e-05
4.76219e-05
7.45177e-05
-5.33174e-05
-3.76966e-05
4.75019e-05
7.06874e-05
-5.30513e-05
-4.64638e-05
4.71304e-05
6.4902e-05
-5.23269e-05
4.64638e-05
5.7055e-05
-5.14904e-05
-5.14904e-05
4.71304e-05
3.76966e-05
6.4902e-05
-5.23269e-05
3.80025e-05
3.80025e-05
7.284e-05
2.65048e-05
3.80946e-05
7.8274e-05
1.35836e-05
3.80736e-05
8.17192e-05
7.58843e-13
3.80404e-05
8.33962e-05
-1.35836e-05
3.80404e-05
8.33962e-05
-2.65048e-05
3.80736e-05
8.17192e-05
-3.80025e-05
3.80946e-05
7.8274e-05
-4.71304e-05
3.80025e-05
7.284e-05
3.76966e-05
6.4902e-05
-5.23269e-05
4.75019e-05
2.65017e-05
7.06874e-05
-5.30513e-05
3.80947e-05
2.65048e-05
7.8274e-05
2.64302e-05
2.64302e-05
8.33162e-05
1.3498e-05
2.63344e-05
8.64277e-05
7.25458e-13
2.6272e-05
8.79142e-05
-1.3498e-05
2.6272e-05
8.79142e-05
-2.64302e-05
2.63344e-05
8.64277e-05
-3.80946e-05
2.64302e-05
8.33162e-05
-4.75019e-05
2.65048e-05
7.8274e-05
2.65017e-05
7.06874e-05
-5.30513e-05
4.76219e-05
1.36506e-05
7.45177e-05
-5.33174e-05
3.80736e-05
1.35836e-05
8.17192e-05
2.63344e-05
1.3498e-05
8.64277e-05
1.34197e-05
1.34197e-05
8.92796e-05
7.04696e-13
1.33737e-05
9.06222e-05
-1.34197e-05
1.33737e-05
9.06222e-05
-2.63344e-05
1.34197e-05
8.92796e-05
-3.80736e-05
1.3498e-05
8.64277e-05
-4.76219e-05
1.35836e-05
8.17192e-05
1.36506e-05
7.45177e-05
-5.33174e-05
4.76558e-05
-6.38807e-13
7.64234e-05
-5.34357e-05
3.80404e-05
-6.57258e-13
8.33962e-05
2.6272e-05
-6.81784e-13
8.79142e-05
1.33737e-05
-6.75349e-13
9.06222e-05
7.20867e-13
-6.61891e-13
9.18866e-05
-1.33737e-05
-6.48801e-13
9.18866e-05
-2.6272e-05
-6.23108e-13
9.06222e-05
-3.80404e-05
-5.95742e-13
8.79142e-05
-4.76558e-05
-5.81697e-13
8.33962e-05
-5.71249e-13
7.64234e-05
-5.34357e-05
4.76558e-05
-1.36506e-05
7.64234e-05
-5.34357e-05
3.80404e-05
-1.35836e-05
8.33962e-05
2.6272e-05
-1.3498e-05
8.79142e-05
1.33737e-05
-1.34197e-05
9.06222e-05
7.3292e-13
-1.33737e-05
9.18866e-05
-1.33737e-05
-1.33737e-05
9.18866e-05
-2.6272e-05
-1.34197e-05
9.06222e-05
-3.80404e-05
-1.3498e-05
8.79142e-05
-4.76558e-05
-1.35836e-05
8.33962e-05
-1.36506e-05
7.64234e-05
-5.34357e-05
4.76219e-05
-2.65017e-05
7.45177e-05
-5.33174e-05
3.80736e-05
-2.65048e-05
8.17192e-05
2.63344e-05
-2.64302e-05
8.64277e-05
1.34197e-05
-2.63344e-05
8.92796e-05
7.6184e-13
-2.6272e-05
9.06222e-05
-1.34197e-05
-2.6272e-05
9.06222e-05
-2.63344e-05
-2.63344e-05
8.92796e-05
-3.80736e-05
-2.64302e-05
8.64277e-05
-4.76219e-05
-2.65048e-05
8.17192e-05
-2.65017e-05
7.45177e-05
-5.33174e-05
4.75019e-05
-3.76966e-05
7.06874e-05
-5.30513e-05
3.80947e-05
-3.80025e-05
7.8274e-05
2.64302e-05
-3.80947e-05
8.33162e-05
1.3498e-05
-3.80736e-05
8.64277e-05
7.99335e-13
-3.80404e-05
8.79142e-05
-1.3498e-05
-3.80404e-05
8.79142e-05
-2.64302e-05
-3.80736e-05
8.64277e-05
-3.80946e-05
-3.80946e-05
8.33162e-05
-4.75019e-05
-3.80025e-05
7.8274e-05
-3.76966e-05
7.06874e-05
-5.30513e-05
4.71304e-05
-4.64638e-05
6.4902e-05
-5.23269e-05
3.80025e-05
-4.71304e-05
7.284e-05
2.65048e-05
-4.75019e-05
7.8274e-05
1.35836e-05
-4.76219e-05
8.17192e-05
8.57328e-13
-4.76558e-05
8.33962e-05
-1.35836e-05
-4.76558e-05
8.33962e-05
-2.65048e-05
-4.76219e-05
8.17192e-05
-3.80025e-05
-4.75019e-05
7.8274e-05
-4.71304e-05
-4.71304e-05
7.284e-05
-4.64638e-05
6.4902e-05
-5.23269e-05
4.64638e-05
5.7055e-05
-5.14904e-05
-5.14904e-05
3.76966e-05
6.4902e-05
-5.23269e-05
2.65017e-05
7.06874e-05
-5.30513e-05
1.36506e-05
7.45177e-05
-5.33174e-05
9.28559e-13
7.64234e-05
-5.34357e-05
-1.36506e-05
7.64234e-05
-5.34357e-05
-2.65017e-05
7.45177e-05
-5.33174e-05
-3.76966e-05
7.06874e-05
-5.30513e-05
-4.64638e-05
6.4902e-05
-5.23269e-05
5.7055e-05
-5.14904e-05
-5.14904e-05
1.74555e-05
1.74555e-05
5.59098e-05
-1.68829e-05
-1.68829e-05
1.5611e-05
1.95121e-05
6.58054e-05
-1.85709e-05
1.16371e-05
2.09099e-05
7.35987e-05
-1.98472e-05
6.2009e-06
2.18255e-05
7.89052e-05
-2.07768e-05
4.05651e-12
2.22682e-05
8.15788e-05
-2.12227e-05
-6.2009e-06
2.22682e-05
8.15788e-05
-2.12227e-05
-1.1637e-05
2.18255e-05
7.89052e-05
-2.07768e-05
-1.5611e-05
2.09099e-05
7.35987e-05
-1.98472e-05
-1.74555e-05
1.95121e-05
6.58054e-05
-1.85709e-05
1.74555e-05
5.59098e-05
-1.68829e-05
-1.68829e-05
1.95121e-05
1.5611e-05
6.58054e-05
-1.85709e-05
1.74858e-05
1.74857e-05
7.68926e-05
1.30084e-05
1.87072e-05
8.4954e-05
6.90928e-06
1.94675e-05
9.01764e-05
3.64077e-12
1.98342e-05
9.27395e-05
-6.90927e-06
1.98342e-05
9.27395e-05
-1.30084e-05
1.94675e-05
9.01764e-05
-1.74857e-05
1.87072e-05
8.4954e-05
-1.95121e-05
1.74857e-05
7.68926e-05
1.5611e-05
6.58054e-05
-1.85709e-05
2.09099e-05
1.1637e-05
7.35987e-05
-1.98472e-05
1.87072e-05
1.30084e-05
8.4954e-05
1.38916e-05
1.38916e-05
9.29473e-05
7.36653e-06
1.44293e-05
9.7991e-05
3.38348e-12
1.469e-05
0.000100425
-7.36652e-06
1.469e-05
0.000100425
-1.38916e-05
1.44293e-05
9.7991e-05
-1.87072e-05
1.38916e-05
9.29473e-05
-2.09099e-05
1.30084e-05
8.4954e-05
1.1637e-05
7.35987e-05
-1.98472e-05
2.18255e-05
6.2009e-06
7.89052e-05
-2.07768e-05
1.94675e-05
6.90927e-06
9.01764e-05
1.44293e-05
7.36652e-06
9.7991e-05
7.64217e-06
7.64217e-06
0.000102854
3.22644e-12
7.77653e-06
0.000105178
-7.64217e-06
7.77653e-06
0.000105178
-1.44293e-05
7.64217e-06
0.000102854
-1.94675e-05
7.36652e-06
9.7991e-05
-2.18255e-05
6.90927e-06
9.01764e-05
6.2009e-06
7.89052e-05
-2.07768e-05
2.22682e-05
-2.01507e-12
8.15788e-05
-2.12227e-05
1.98342e-05
-1.88987e-12
9.27395e-05
1.469e-05
-1.82971e-12
0.000100425
7.77654e-06
-1.78461e-12
0.000105178
3.16261e-12
-1.76223e-12
0.00010744
-7.77653e-06
-1.75936e-12
0.00010744
-1.469e-05
-1.77134e-12
0.000105178
-1.98342e-05
-1.80718e-12
0.000100425
-2.22682e-05
-1.88003e-12
9.27395e-05
-2.00851e-12
8.15788e-05
-2.12227e-05
2.22682e-05
-6.2009e-06
8.15788e-05
-2.12227e-05
1.98342e-05
-6.90928e-06
9.27395e-05
1.469e-05
-7.36653e-06
0.000100425
7.77654e-06
-7.64217e-06
0.000105178
3.16488e-12
-7.77654e-06
0.00010744
-7.77653e-06
-7.77654e-06
0.00010744
-1.469e-05
-7.64217e-06
0.000105178
-1.98342e-05
-7.36653e-06
0.000100425
-2.22682e-05
-6.90928e-06
9.27395e-05
-6.2009e-06
8.15788e-05
-2.12227e-05
2.18255e-05
-1.16371e-05
7.89052e-05
-2.07768e-05
1.94675e-05
-1.30084e-05
9.01764e-05
1.44293e-05
-1.38916e-05
9.7991e-05
7.64217e-06
-1.44293e-05
0.000102854
3.24166e-12
-1.469e-05
0.000105178
-7.64217e-06
-1.469e-05
0.000105178
-1.44293e-05
-1.44293e-05
0.000102854
-1.94675e-05
-1.38916e-05
9.7991e-05
-2.18255e-05
-1.30084e-05
9.01764e-05
-1.16371e-05
7.89052e-05
-2.07768e-05
2.09099e-05
-1.5611e-05
7.35987e-05
-1.98472e-05
1.87072e-05
-1.74857e-05
8.4954e-05
1.38916e-05
-1.87072e-05
9.29473e-05
7.36653e-06
-1.94675e-05
9.7991e-05
3.40216e-12
-1.98342e-05
0.000100425
-7.36652e-06
-1.98342e-05
0.000100425
-1.38916e-05
-1.94675e-05
9.7991e-05
-1.87072e-05
-1.87072e-05
9.29473e-05
-2.09099e-05
-1.74857e-05
8.4954e-05
-1.5611e-05
7.35987e-05
-1.98472e-05
1.95121e-05
-1.74555e-05
6.58054e-05
-1.85709e-05
1.74857e-05
-1.95121e-05
7.68926e-05
1.30084e-05
-2.09099e-05
8.4954e-05
6.90928e-06
-2.18255e-05
9.01764e-05
3.67573e-12
-2.22682e-05
9.27395e-05
-6.90927e-06
-2.22682e-05
9.27395e-05
-1.30084e-05
-2.18255e-05
9.01764e-05
-1.74857e-05
-2.09099e-05
8.4954e-05
-1.95121e-05
-1.95121e-05
7.68926e-05
-1.74555e-05
6.58054e-05
-1.85709e-05
1.74555e-05
5.59098e-05
-1.68829e-05
-1.68829e-05
1.5611e-05
6.58054e-05
-1.85709e-05
1.16371e-05
7.35987e-05
-1.98472e-05
6.2009e-06
7.89052e-05
-2.07768e-05
4.066e-12
8.15788e-05
-2.12227e-05
-6.2009e-06
8.15788e-05
-2.12227e-05
-1.1637e-05
7.89052e-05
-2.07768e-05
-1.5611e-05
7.35987e-05
-1.98472e-05
-1.74555e-05
6.58054e-05
-1.85709e-05
5.59098e-05
-1.68829e-05
-1.68829e-05
9.76139e-06
9.76138e-06
5.4221e-05
-8.91697e-06
-8.91696e-06
8.99679e-06
1.14978e-05
6.53704e-05
-1.02982e-05
6.88505e-06
1.276e-05
7.43729e-05
-1.14225e-05
3.72984e-06
1.36069e-05
8.06636e-05
-1.22101e-05
9.36159e-12
1.4028e-05
8.38838e-05
-1.26031e-05
-3.72982e-06
1.4028e-05
8.38838e-05
-1.26031e-05
-6.88504e-06
1.36069e-05
8.06636e-05
-1.22101e-05
-8.99678e-06
1.276e-05
7.43729e-05
-1.14225e-05
-9.76138e-06
1.14978e-05
6.53704e-05
-1.02982e-05
9.76138e-06
5.4221e-05
-8.91696e-06
-8.91696e-06
1.14978e-05
8.99678e-06
6.53704e-05
-1.02982e-05
1.0687e-05
1.0687e-05
7.85141e-05
8.17713e-06
1.18597e-05
8.83642e-05
4.41892e-06
1.26115e-05
9.493e-05
8.32109e-12
1.29798e-05
9.82066e-05
-4.41891e-06
1.29798e-05
9.82066e-05
-8.17712e-06
1.26115e-05
9.493e-05
-1.0687e-05
1.18597e-05
8.83642e-05
-1.14978e-05
1.0687e-05
7.85141e-05
8.99678e-06
6.53704e-05
-1.02982e-05
1.27601e-05
6.88504e-06
7.43729e-05
-1.14225e-05
1.18597e-05
8.17712e-06
8.83642e-05
9.05795e-06
9.05794e-06
9.85508e-05
4.88511e-06
9.60609e-06
0.000105169
7.68084e-12
9.87014e-06
0.00010842
-4.8851e-06
9.87014e-06
0.00010842
-9.05794e-06
9.60609e-06
0.000105169
-1.18597e-05
9.05794e-06
9.85508e-05
-1.276e-05
8.17712e-06
8.83642e-05
6.88504e-06
7.43729e-05
-1.14225e-05
1.36069e-05
3.72982e-06
8.06636e-05
-1.22101e-05
1.26115e-05
4.41891e-06
9.493e-05
9.6061e-06
4.8851e-06
0.000105169
5.16934e-06
5.16933e-06
0.000111727
7.28939e-12
5.30291e-06
0.000114914
-5.16933e-06
5.30291e-06
0.000114914
-9.60609e-06
5.16933e-06
0.000111727
-1.26115e-05
4.8851e-06
0.000105169
-1.36068e-05
4.41891e-06
9.493e-05
3.72982e-06
8.06636e-05
-1.22101e-05
1.4028e-05
-5.11143e-12
8.38838e-05
-1.26031e-05
1.29798e-05
-4.86378e-12
9.82066e-05
9.87015e-06
-4.67655e-12
0.00010842
5.30292e-06
-4.50325e-12
0.000114914
7.15119e-12
-4.38707e-12
0.000118045
-5.30291e-06
-4.34049e-12
0.000118045
-9.87014e-06
-4.35204e-12
0.000114914
-1.29798e-05
-4.4309e-12
0.00010842
-1.4028e-05
-4.60327e-12
9.82066e-05
-4.86728e-12
8.38838e-05
-1.26031e-05
1.4028e-05
-3.72983e-06
8.38838e-05
-1.26031e-05
1.29798e-05
-4.41892e-06
9.82066e-05
9.87015e-06
-4.88511e-06
0.00010842
5.30292e-06
-5.16934e-06
0.000114914
7.1979e-12
-5.30292e-06
0.000118045
-5.30291e-06
-5.30292e-06
0.000118045
-9.87014e-06
-5.16934e-06
0.000114914
-1.29798e-05
-4.88511e-06
0.00010842
-1.4028e-05
-4.41892e-06
9.82066e-05
-3.72983e-06
8.38838e-05
-1.26031e-05
1.36069e-05
-6.88505e-06
8.06636e-05
-1.22101e-05
1.26115e-05
-8.17713e-06
9.493e-05
9.6061e-06
-9.05795e-06
0.000105169
5.16934e-06
-9.6061e-06
0.000111727
7.45148e-12
-9.87015e-06
0.000114914
-5.16933e-06
-9.87015e-06
0.000114914
-9.60609e-06
-9.6061e-06
0.000111727
-1.26115e-05
-9.05795e-06
0.000105169
-1.36068e-05
-8.17713e-06
9.493e-05
-6.88505e-06
8.06636e-05
-1.22101e-05
1.27601e-05
-8.99679e-06
7.43729e-05
-1.14225e-05
1.18597e-05
-1.0687e-05
8.83642e-05
9.05795e-06
-1.18597e-05
9.85508e-05
4.88511e-06
-1.26115e-05
0.000105169
7.9139e-12
-1.29798e-05
0.00010842
-4.8851e-06
-1.29798e-05
0.00010842
-9.05794e-06
-1.26115e-05
0.000105169
-1.18597e-05
-1.18597e-05
9.85508e-05
-1.276e-05
-1.0687e-05
8.83642e-05
-8.99679e-06
7.43729e-05
-1.14225e-05
1.14978e-05
-9.76139e-06
6.53704e-05
-1.02982e-05
1.0687e-05
-1.14978e-05
7.85141e-05
8.17713e-06
-1.27601e-05
8.83642e-05
4.41892e-06
-1.36069e-05
9.493e-05
8.62094e-12
-1.4028e-05
9.82066e-05
-4.41891e-06
-1.4028e-05
9.82066e-05
-8.17712e-06
-1.36069e-05
9.493e-05
-1.0687e-05
-1.27601e-05
8.83642e-05
-1.14978e-05
-1.14978e-05
7.85141e-05
-9.76139e-06
6.53704e-05
-1.02982e-05
9.76139e-06
5.42209e-05
-8.91696e-06
-8.91697e-06
8.99679e-06
6.53704e-05
-1.02982e-05
6.88505e-06
7.43729e-05
-1.14225e-05
3.72984e-06
8.06636e-05
-1.22101e-05
9.59111e-12
8.38838e-05
-1.26031e-05
-3.72982e-06
8.38838e-05
-1.26031e-05
-6.88504e-06
8.06636e-05
-1.22101e-05
-8.99677e-06
7.43729e-05
-1.14225e-05
-9.76138e-06
6.53704e-05
-1.02982e-05
5.4221e-05
-8.91696e-06
-8.91697e-06
2.27375e-06
2.27372e-06
5.3103e-05
-1.71477e-06
-1.71476e-06
2.42032e-06
3.04708e-06
6.43623e-05
-2.18554e-06
2.02121e-06
3.69619e-06
7.37105e-05
-2.63463e-06
1.14842e-06
4.16052e-06
8.0354e-05
-2.97811e-06
2.01007e-11
4.39776e-06
8.37911e-05
-3.15669e-06
-1.14839e-06
4.39776e-06
8.37911e-05
-3.15669e-06
-2.02117e-06
4.16052e-06
8.0354e-05
-2.97812e-06
-2.42029e-06
3.69619e-06
7.37105e-05
-2.63463e-06
-2.27372e-06
3.04708e-06
6.43623e-05
-2.18554e-06
2.27373e-06
5.3103e-05
-1.71476e-06
-1.71476e-06
3.0471e-06
2.42029e-06
6.43623e-05
-2.18555e-06
3.29284e-06
3.29282e-06
7.80226e-05
2.74988e-06
3.98047e-06
8.86229e-05
1.5555e-06
4.44335e-06
9.58416e-05
1.79847e-11
4.66954e-06
9.94903e-05
-1.55546e-06
4.66954e-06
9.94903e-05
-2.74985e-06
4.44335e-06
9.58416e-05
-3.29281e-06
3.98047e-06
8.86229e-05
-3.04708e-06
3.29282e-06
7.80226e-05
2.4203e-06
6.43623e-05
-2.18553e-06
3.69621e-06
2.02118e-06
7.37105e-05
-2.63465e-06
3.98049e-06
2.74986e-06
8.86229e-05
3.30518e-06
3.30516e-06
9.99014e-05
1.8589e-06
3.65933e-06
0.0001074
1.65416e-11
3.81958e-06
0.000111129
-1.85887e-06
3.81958e-06
0.000111129
-3.30515e-06
3.65933e-06
0.0001074
-3.98046e-06
3.30516e-06
9.99014e-05
-3.69618e-06
2.74986e-06
8.86229e-05
2.02118e-06
7.37105e-05
-2.63463e-06
4.16053e-06
1.14839e-06
8.0354e-05
-2.97813e-06
4.44337e-06
1.55547e-06
9.58416e-05
3.65935e-06
1.85888e-06
0.0001074
2.04335e-06
2.04333e-06
0.000114959
1.56199e-11
2.11625e-06
0.000118661
-2.04332e-06
2.11625e-06
0.000118661
-3.65933e-06
2.04333e-06
0.000114959
-4.44335e-06
1.85888e-06
0.0001074
-4.16051e-06
1.55547e-06
9.58416e-05
1.1484e-06
8.0354e-05
-2.97811e-06
4.39777e-06
-9.48217e-12
8.37911e-05
-3.1567e-06
4.66956e-06
-8.70987e-12
9.94903e-05
3.81961e-06
-8.20321e-12
0.000111129
2.11628e-06
-7.87655e-12
0.000118661
1.51936e-11
-7.71674e-12
0.000122278
-2.11625e-06
-7.72149e-12
0.000122278
-3.81958e-06
-7.86412e-12
0.000118661
-4.66954e-06
-8.1701e-12
0.000111129
-4.39775e-06
-8.69859e-12
9.94903e-05
-9.47529e-12
8.37911e-05
-3.15668e-06
4.39777e-06
-1.14841e-06
8.37911e-05
-3.1567e-06
4.66956e-06
-1.55549e-06
9.94903e-05
3.81961e-06
-1.85889e-06
0.000111129
2.11628e-06
-2.04335e-06
0.000118661
1.51916e-11
-2.11627e-06
0.000122278
-2.11625e-06
-2.11627e-06
0.000122278
-3.81958e-06
-2.04335e-06
0.000118661
-4.66954e-06
-1.85889e-06
0.000111129
-4.39775e-06
-1.55549e-06
9.94903e-05
-1.14841e-06
8.37911e-05
-3.15668e-06
4.16053e-06
-2.0212e-06
8.0354e-05
-2.97813e-06
4.44337e-06
-2.74987e-06
9.58416e-05
3.65935e-06
-3.30518e-06
0.0001074
2.04335e-06
-3.65935e-06
0.000114959
1.56452e-11
-3.8196e-06
0.000118661
-2.04332e-06
-3.8196e-06
0.000118661
-3.65933e-06
-3.65935e-06
0.000114959
-4.44335e-06
-3.30518e-06
0.0001074
-4.16051e-06
-2.74988e-06
9.58416e-05
-2.0212e-06
8.0354e-05
-2.97811e-06
3.6962e-06
-2.42031e-06
7.37105e-05
-2.63465e-06
3.98049e-06
-3.29283e-06
8.86229e-05
3.30518e-06
-3.98048e-06
9.99014e-05
1.8589e-06
-4.44337e-06
0.0001074
1.65414e-11
-4.66955e-06
0.000111129
-1.85887e-06
-4.66955e-06
0.000111129
-3.30515e-06
-4.44337e-06
0.0001074
-3.98046e-06
-3.98048e-06
9.99014e-05
-3.69618e-06
-3.29283e-06
8.86229e-05
-2.42031e-06
7.37105e-05
-2.63463e-06
3.0471e-06
-2.27374e-06
6.43623e-05
-2.18555e-06
3.29284e-06
-3.04709e-06
7.80226e-05
2.74988e-06
-3.6962e-06
8.86229e-05
1.55549e-06
-4.16053e-06
9.58416e-05
1.79811e-11
-4.39777e-06
9.94903e-05
-1.55546e-06
-4.39777e-06
9.94903e-05
-2.74985e-06
-4.16053e-06
9.58416e-05
-3.29281e-06
-3.6962e-06
8.86229e-05
-3.04707e-06
-3.04709e-06
7.80226e-05
-2.27374e-06
6.43623e-05
-2.18553e-06
2.27374e-06
5.3103e-05
-1.71477e-06
-1.71477e-06
2.42032e-06
6.43623e-05
-2.18554e-06
2.02121e-06
7.37105e-05
-2.63464e-06
1.14842e-06
8.0354e-05
-2.97812e-06
1.99962e-11
8.37911e-05
-3.15669e-06
-1.14839e-06
8.37911e-05
-3.15669e-06
-2.02117e-06
8.0354e-05
-2.97812e-06
-2.42029e-06
7.37105e-05
-2.63464e-06
-2.27372e-06
6.43623e-05
-2.18555e-06
5.3103e-05
-1.71476e-06
-1.71477e-06
1.8088e-06
1.80876e-06
5.26895e-05
-1.60205e-06
-1.60202e-06
1.72068e-06
2.20865e-06
6.41344e-05
-1.89269e-06
1.35628e-06
2.5343e-06
7.36829e-05
-2.1423e-06
7.48801e-07
2.76473e-06
8.05167e-05
-2.31993e-06
3.70108e-11
2.88102e-06
8.40693e-05
-2.41041e-06
-7.48729e-07
2.88102e-06
8.40693e-05
-2.41041e-06
-1.35621e-06
2.76473e-06
8.05167e-05
-2.31993e-06
-1.72062e-06
2.5343e-06
7.36829e-05
-2.1423e-06
-1.80876e-06
2.20865e-06
6.41344e-05
-1.89269e-06
1.80877e-06
5.26895e-05
-1.60202e-06
-1.60203e-06
2.20869e-06
1.72063e-06
6.41344e-05
-1.89271e-06
2.14958e-06
2.14954e-06
7.81408e-05
1.71037e-06
2.49243e-06
8.9104e-05
9.46209e-07
2.72506e-06
9.66454e-05
3.29446e-11
2.83536e-06
0.000100482
-9.46144e-07
2.83536e-06
0.000100482
-1.71031e-06
2.72506e-06
9.66454e-05
-2.14953e-06
2.49243e-06
8.9104e-05
-2.20864e-06
2.14954e-06
7.81408e-05
1.72064e-06
6.41345e-05
-1.89268e-06
2.53433e-06
1.35622e-06
7.36829e-05
-2.14232e-06
2.49247e-06
1.71032e-06
8.9104e-05
1.98844e-06
1.98839e-06
0.000100909
1.09757e-06
2.16587e-06
0.00010885
3.01497e-11
2.23725e-06
0.000112824
-1.09751e-06
2.23725e-06
0.000112824
-1.98838e-06
2.16587e-06
0.00010885
-2.49242e-06
1.9884e-06
0.00010091
-2.53429e-06
1.71032e-06
8.9104e-05
1.35623e-06
7.36829e-05
-2.1423e-06
2.76476e-06
7.48745e-07
8.05167e-05
-2.31995e-06
2.72509e-06
9.46159e-07
9.66454e-05
2.16591e-06
1.09752e-06
0.00010885
1.18724e-06
1.1872e-06
0.000116917
2.83908e-11
1.21096e-06
0.000120875
-1.18719e-06
1.21096e-06
0.000120875
-2.16586e-06
1.1872e-06
0.000116917
-2.72505e-06
1.09752e-06
0.00010885
-2.76472e-06
9.46161e-07
9.66454e-05
7.48748e-07
8.05167e-05
-2.31992e-06
2.88105e-06
-1.81696e-11
8.40693e-05
-2.41043e-06
2.8354e-06
-1.67044e-11
0.000100482
2.23729e-06
-1.56257e-11
0.000112824
1.21101e-06
-1.48688e-11
0.000120875
2.75955e-11
-1.44681e-11
0.0001247
-1.21095e-06
-1.44261e-11
0.0001247
-2.23723e-06
-1.47094e-11
0.000120875
-2.83535e-06
-1.53585e-11
0.000112824
-2.88102e-06
-1.6459e-11
0.000100482
-1.79625e-11
8.40693e-05
-2.4104e-06
2.88105e-06
-7.48781e-07
8.40692e-05
-2.41043e-06
2.8354e-06
-9.46192e-07
0.000100482
2.23729e-06
-1.09755e-06
0.000112824
1.21101e-06
-1.18723e-06
0.000120875
2.76379e-11
-1.21099e-06
0.0001247
-1.21095e-06
-1.21099e-06
0.0001247
-2.23723e-06
-1.18723e-06
0.000120875
-2.83535e-06
-1.09755e-06
0.000112824
-2.88102e-06
-9.46193e-07
0.000100482
-7.48783e-07
8.40693e-05
-2.4104e-06
2.76475e-06
-1.35626e-06
8.05167e-05
-2.31995e-06
2.72509e-06
-1.71035e-06
9.66454e-05
2.16591e-06
-1.98842e-06
0.00010885
1.18724e-06
-2.1659e-06
0.000116917
2.85703e-11
-2.23727e-06
0.000120875
-1.18719e-06
-2.23727e-06
0.000120875
-2.16586e-06
-2.1659e-06
0.000116917
-2.72504e-06
-1.98842e-06
0.00010885
-2.76472e-06
-1.71035e-06
9.66454e-05
-1.35626e-06
8.05167e-05
-2.31992e-06
2.53433e-06
-1.72066e-06
7.36829e-05
-2.14232e-06
2.49246e-06
-2.14957e-06
8.9104e-05
1.98844e-06
-2.49245e-06
0.000100909
1.09757e-06
-2.72508e-06
0.00010885
3.03818e-11
-2.83539e-06
0.000112824
-1.09751e-06
-2.83539e-06
0.000112824
-1.98838e-06
-2.72508e-06
0.00010885
-2.49242e-06
-2.49245e-06
0.000100909
-2.53429e-06
-2.14957e-06
8.9104e-05
-1.72067e-06
7.36829e-05
-2.14229e-06
2.20868e-06
-1.80879e-06
6.41344e-05
-1.89271e-06
2.14958e-06
-2.20867e-06
7.81408e-05
1.71037e-06
-2.53432e-06
8.9104e-05
9.46209e-07
-2.76474e-06
9.66454e-05
3.32286e-11
-2.88104e-06
0.000100482
-9.46144e-07
-2.88104e-06
0.000100482
-1.71031e-06
-2.76475e-06
9.66454e-05
-2.14953e-06
-2.53432e-06
8.9104e-05
-2.20864e-06
-2.20868e-06
7.81408e-05
-1.80879e-06
6.41344e-05
-1.89268e-06
1.8088e-06
5.26895e-05
-1.60203e-06
-1.60205e-06
1.72068e-06
6.41344e-05
-1.8927e-06
1.35628e-06
7.36829e-05
-2.14231e-06
7.488e-07
8.05167e-05
-2.31994e-06
3.71224e-11
8.40693e-05
-2.41042e-06
-7.48728e-07
8.40693e-05
-2.41042e-06
-1.35621e-06
8.05167e-05
-2.31994e-06
-1.72062e-06
7.36829e-05
-2.14232e-06
-1.80875e-06
6.41344e-05
-1.89271e-06
5.26895e-05
-1.60201e-06
-1.60204e-06
3.41171e-07
3.41099e-07
5.2476e-05
-2.34415e-07
-2.34363e-07
3.90744e-07
4.8221e-07
6.39128e-05
-3.10131e-07
3.41963e-07
6.13262e-07
7.35074e-05
-3.88962e-07
1.99662e-07
7.13921e-07
8.03976e-05
-4.52547e-07
6.58861e-11
7.67227e-07
8.3988e-05
-4.86389e-07
-1.99533e-07
7.67228e-07
8.3988e-05
-4.8639e-07
-3.41844e-07
7.13925e-07
8.03976e-05
-4.52551e-07
-3.90641e-07
6.13268e-07
7.35074e-05
-3.88968e-07
-3.41087e-07
4.8222e-07
6.39128e-05
-3.10142e-07
3.41114e-07
5.24761e-05
-2.34357e-07
-2.34376e-07
4.82275e-07
3.90659e-07
6.39128e-05
-3.1018e-07
5.64169e-07
5.64093e-07
7.7977e-05
4.96303e-07
7.18486e-07
8.90666e-05
2.89266e-07
8.32677e-07
9.67337e-05
5.90354e-11
8.90801e-07
0.000100648
-2.89151e-07
8.90802e-07
0.000100648
-4.96196e-07
8.32679e-07
9.67337e-05
-5.64074e-07
7.18491e-07
8.90667e-05
-4.82198e-07
5.64101e-07
7.79771e-05
3.90672e-07
6.39128e-05
-3.10125e-07
6.13319e-07
3.41869e-07
7.35074e-05
-3.89004e-07
7.18554e-07
4.9622e-07
8.90666e-05
6.31466e-07
6.3139e-07
0.000101084
3.66744e-07
7.28457e-07
0.000109219
5.40538e-11
7.73848e-07
0.000113308
-3.66638e-07
7.73848e-07
0.000113308
-6.31367e-07
7.28459e-07
0.000109219
-7.18467e-07
6.31393e-07
0.000101084
-6.13249e-07
4.96226e-07
8.90667e-05
3.41878e-07
7.35074e-05
-3.88954e-07
7.13974e-07
1.99564e-07
8.03976e-05
-4.52586e-07
8.3274e-07
2.8918e-07
9.67337e-05
7.28528e-07
3.66665e-07
0.000109219
4.21599e-07
4.21524e-07
0.000117531
5.08628e-11
4.43864e-07
0.000121626
-4.21499e-07
4.43864e-07
0.000121626
-7.28435e-07
4.21525e-07
0.000117531
-8.32658e-07
3.66666e-07
0.000109219
-7.13907e-07
2.89182e-07
9.67337e-05
1.99569e-07
8.03976e-05
-4.52538e-07
7.67276e-07
-3.04445e-11
8.3988e-05
-4.86425e-07
8.90861e-07
-2.75207e-11
0.000100648
7.73916e-07
-2.54456e-11
0.000113308
4.43936e-07
-2.41377e-11
0.000121626
4.93335e-11
-2.35281e-11
0.000125588
-4.43839e-07
-2.35675e-11
0.000125588
-7.73825e-07
-2.4223e-11
0.000121626
-8.90782e-07
-2.55769e-11
0.000113308
-7.67211e-07
-2.77385e-11
0.000100648
-3.06957e-11
8.3988e-05
-4.86379e-07
7.67276e-07
-1.99624e-07
8.3988e-05
-4.86425e-07
8.90861e-07
-2.89233e-07
0.000100648
7.73915e-07
-3.66715e-07
0.000113308
4.43936e-07
-4.21572e-07
0.000121626
4.92963e-11
-4.4391e-07
0.000125588
-4.43839e-07
-4.43911e-07
0.000125588
-7.73825e-07
-4.21572e-07
0.000121626
-8.90781e-07
-3.66717e-07
0.000113308
-7.67211e-07
-2.89236e-07
0.000100648
-1.99629e-07
8.3988e-05
-4.86378e-07
7.13972e-07
-3.41924e-07
8.03976e-05
-4.52584e-07
8.32739e-07
-4.9627e-07
9.67336e-05
7.28527e-07
-6.31437e-07
0.000109219
4.21598e-07
-7.28502e-07
0.000117531
5.07901e-11
-7.73891e-07
0.000121626
-4.21499e-07
-7.73891e-07
0.000121626
-7.28434e-07
-7.28503e-07
0.000117531
-8.32657e-07
-6.3144e-07
0.000109219
-7.13905e-07
-4.96276e-07
9.67337e-05
-3.41934e-07
8.03976e-05
-4.52537e-07
6.13316e-07
-3.90707e-07
7.35073e-05
-3.89002e-07
7.18552e-07
-5.64137e-07
8.90666e-05
6.31464e-07
-7.18527e-07
0.000101084
3.66743e-07
-8.32716e-07
0.000109219
5.38723e-11
-8.90839e-07
0.000113308
-3.66638e-07
-8.9084e-07
0.000113308
-6.31366e-07
-8.32719e-07
0.000109219
-7.18465e-07
-7.18532e-07
0.000101084
-6.13246e-07
-5.64146e-07
8.90667e-05
-3.9072e-07
7.35074e-05
-3.88952e-07
4.8227e-07
-3.41138e-07
6.39128e-05
-3.10175e-07
5.64165e-07
-4.82246e-07
7.7977e-05
4.96301e-07
-6.13295e-07
8.90666e-05
2.89265e-07
-7.13953e-07
9.67337e-05
5.87629e-11
-7.67258e-07
0.000100648
-2.8915e-07
-7.67259e-07
0.000100648
-4.96194e-07
-7.13956e-07
9.67337e-05
-5.64071e-07
-6.13302e-07
8.90667e-05
-4.82193e-07
-4.82257e-07
7.79771e-05
-3.41152e-07
6.39128e-05
-3.1012e-07
3.41165e-07
5.2476e-05
-2.34391e-07
-2.3441e-07
3.90739e-07
6.39128e-05
-3.10157e-07
3.41958e-07
7.35073e-05
-3.88986e-07
1.99659e-07
8.03976e-05
-4.5257e-07
6.54001e-11
8.3988e-05
-4.86412e-07
-1.99532e-07
8.3988e-05
-4.86413e-07
-3.4184e-07
8.03976e-05
-4.52574e-07
-3.90636e-07
7.35074e-05
-3.88992e-07
-3.41082e-07
6.39128e-05
-3.10168e-07
5.2476e-05
-2.34352e-07
-2.34403e-07
4.21187e-07
4.21069e-07
5.23956e-05
-3.80946e-07
-3.80861e-07
3.9378e-07
5.05826e-07
6.38798e-05
-4.45482e-07
3.07031e-07
5.749e-07
7.35195e-05
-5.00329e-07
1.68579e-07
6.24533e-07
8.04506e-05
-5.39114e-07
1.09207e-10
6.49983e-07
8.40654e-05
-5.58878e-07
-1.68366e-07
6.49985e-07
8.40654e-05
-5.5888e-07
-3.06834e-07
6.24539e-07
8.04507e-05
-5.39119e-07
-3.93608e-07
5.7491e-07
7.35196e-05
-5.00338e-07
-4.21049e-07
5.05842e-07
6.38799e-05
-4.45498e-07
4.21091e-07
5.23957e-05
-3.80849e-07
-3.80879e-07
5.05932e-07
3.93639e-07
6.38798e-05
-4.45561e-07
4.82891e-07
4.82766e-07
7.80231e-05
3.80499e-07
5.5583e-07
8.91881e-05
2.09713e-07
6.07653e-07
9.69213e-05
9.82127e-11
6.3323e-07
0.000100874
-2.09521e-07
6.33231e-07
0.000100874
-3.8032e-07
6.07657e-07
9.69214e-05
-4.82734e-07
5.55837e-07
8.91882e-05
-5.05804e-07
4.82778e-07
7.80232e-05
3.93659e-07
6.38799e-05
-4.4547e-07
5.74994e-07
3.06875e-07
7.35195e-05
-5.00397e-07
5.55943e-07
3.80361e-07
8.91881e-05
4.41141e-07
4.41015e-07
0.000101313
2.43456e-07
4.82937e-07
0.000109541
9.00235e-11
5.01338e-07
0.000113683
-2.4328e-07
5.01338e-07
0.000113683
-4.40976e-07
4.8294e-07
0.000109541
-5.55798e-07
4.4102e-07
0.000101313
-5.74877e-07
3.8037e-07
8.91882e-05
3.0689e-07
7.35196e-05
-5.00314e-07
6.24619e-07
1.68416e-07
8.04506e-05
-5.39177e-07
6.07757e-07
2.09568e-07
9.69213e-05
4.83054e-07
2.43324e-07
0.000109541
2.66054e-07
2.6593e-07
0.000117965
8.47088e-11
2.73851e-07
0.00012212
-2.65888e-07
2.73852e-07
0.00012212
-4.82899e-07
2.65931e-07
0.000117965
-6.0762e-07
2.43326e-07
0.000109541
-6.24509e-07
2.09572e-07
9.69214e-05
1.68424e-07
8.04507e-05
-5.39097e-07
6.50064e-07
-5.16761e-11
8.40653e-05
-5.58937e-07
6.3333e-07
-4.6809e-11
0.000100874
5.01451e-07
-4.32119e-11
0.000113683
2.73971e-07
-4.08675e-11
0.00012212
8.21592e-11
-3.9738e-11
0.000126136
-2.7381e-07
-3.97616e-11
0.000126136
-5.013e-07
-4.08987e-11
0.00012212
-6.33197e-07
-4.32596e-11
0.000113683
-6.49957e-07
-4.6954e-11
0.000100874
-5.18787e-11
8.40654e-05
-5.58859e-07
6.50064e-07
-1.68517e-07
8.40653e-05
-5.58936e-07
6.33329e-07
-2.0966e-07
0.000100874
5.0145e-07
-2.43408e-07
0.000113683
2.73971e-07
-2.66011e-07
0.00012212
8.21385e-11
-2.7393e-07
0.000126135
-2.7381e-07
-2.7393e-07
0.000126136
-5.01299e-07
-2.66012e-07
0.00012212
-6.33196e-07
-2.43411e-07
0.000113683
-6.49956e-07
-2.09664e-07
0.000100874
-1.68525e-07
8.40654e-05
-5.58859e-07
6.24617e-07
-3.06969e-07
8.04506e-05
-5.39174e-07
6.07755e-07
-3.80446e-07
9.69213e-05
4.83053e-07
-4.41094e-07
0.000109541
2.66054e-07
-4.83012e-07
0.000117965
8.46924e-11
-5.01411e-07
0.00012212
-2.65888e-07
-5.01411e-07
0.00012212
-4.82898e-07
-4.83015e-07
0.000117965
-6.07618e-07
-4.41099e-07
0.000109541
-6.24506e-07
-3.80455e-07
9.69214e-05
-3.06984e-07
8.04507e-05
-5.39094e-07
5.7499e-07
-3.9372e-07
7.35195e-05
-5.00393e-07
5.55939e-07
-4.8284e-07
8.91881e-05
4.41138e-07
-5.55899e-07
0.000101313
2.43455e-07
-6.07718e-07
0.000109541
8.98853e-11
-6.33294e-07
0.000113683
-2.43279e-07
-6.33295e-07
0.000113683
-4.40974e-07
-6.07722e-07
0.000109541
-5.55794e-07
-5.55907e-07
0.000101313
-5.74872e-07
-4.82853e-07
8.91881e-05
-3.9374e-07
7.35196e-05
-5.0031e-07
5.05925e-07
-4.21135e-07
6.38798e-05
-4.45553e-07
4.82885e-07
-5.05887e-07
7.80231e-05
3.80495e-07
-5.74956e-07
8.91881e-05
2.09711e-07
-6.24586e-07
9.69213e-05
9.78892e-11
-6.50035e-07
0.000100874
-2.09519e-07
-6.50037e-07
0.000100874
-3.80317e-07
-6.24592e-07
9.69213e-05
-4.82728e-07
-5.74966e-07
8.91881e-05
-5.05797e-07
-5.05903e-07
7.80232e-05
-4.21157e-07
6.38799e-05
-4.45462e-07
4.21177e-07
5.23955e-05
-3.80906e-07
-3.80937e-07
3.9377e-07
6.38798e-05
-4.45525e-07
3.07024e-07
7.35195e-05
-5.00369e-07
1.68575e-07
8.04506e-05
-5.39152e-07
1.08509e-10
8.40653e-05
-5.58915e-07
-1.68363e-07
8.40654e-05
-5.58917e-07
-3.06828e-07
8.04506e-05
-5.39157e-07
-3.936e-07
7.35196e-05
-5.00378e-07
-4.21039e-07
6.38799e-05
-4.45541e-07
5.23956e-05
-3.8084e-07
-3.80925e-07
7.39824e-08
7.37962e-08
5.23472e-05
-4.97524e-08
-4.96174e-08
8.55216e-08
1.05088e-07
6.38295e-05
-6.63186e-08
7.4969e-08
1.34146e-07
7.34799e-05
-8.3976e-08
4.38459e-08
1.56688e-07
8.04235e-05
-9.84426e-08
1.72303e-10
1.68803e-07
8.40465e-05
-1.06221e-07
-4.35098e-08
1.68805e-07
8.40465e-05
-1.06223e-07
-7.4658e-08
1.56696e-07
8.04236e-05
-9.84513e-08
-8.52517e-08
1.34161e-07
7.348e-05
-8.39905e-08
-7.37654e-08
1.05112e-07
6.38297e-05
-6.63433e-08
7.38307e-08
5.23473e-05
-4.96008e-08
-4.96474e-08
1.05256e-07
8.52993e-08
6.38295e-05
-6.6444e-08
1.23676e-07
1.23476e-07
7.79863e-05
1.08777e-07
1.57474e-07
8.91797e-05
6.34649e-08
1.8314e-07
9.69402e-05
1.56276e-10
1.96641e-07
0.00010091
-6.31594e-08
1.96643e-07
0.00010091
-1.08493e-07
1.83146e-07
9.69403e-05
-1.23426e-07
1.57486e-07
8.91798e-05
-1.05054e-07
1.23496e-07
7.79865e-05
8.53299e-08
6.38297e-05
-6.62999e-08
1.34296e-07
7.47221e-08
7.34799e-05
-8.40852e-08
1.57654e-07
1.08557e-07
8.91797e-05
1.38695e-07
1.38495e-07
0.000101351
8.08172e-08
1.60934e-07
0.000109621
1.43943e-10
1.72249e-07
0.000113788
-8.05355e-08
1.7225e-07
0.000113788
-1.38432e-07
1.60938e-07
0.000109621
-1.57423e-07
1.38502e-07
0.000101351
-1.34108e-07
1.08571e-07
8.91798e-05
7.4745e-08
7.348e-05
-8.39527e-08
1.56825e-07
4.35888e-08
8.04235e-05
-9.85433e-08
1.83307e-07
6.32341e-08
9.69402e-05
1.61121e-07
8.06063e-08
0.000109621
9.40403e-08
9.38424e-08
0.000118099
1.35811e-10
1.0027e-07
0.000122285
-9.37742e-08
1.0027e-07
0.000122285
-1.60872e-07
9.38439e-08
0.000118099
-1.83088e-07
8.06098e-08
0.000109621
-1.56648e-07
6.32409e-08
9.69403e-05
4.36005e-08