/*--------------------------------*- C++ -*----------------------------------*\
| =========                 |                                                 |
| \\      /  F ield         | OpenFOAM: The Open Source CFD Toolbox           |
|  \\    /   O peration     | Version:  2406                                  |
|   \\  /    A nd           | Website:  www.openfoam.com                      |
|    \\/     M anipulation  |                                                 |
\*---------------------------------------------------------------------------*/
FoamFile
{
    version     2.0;
    format      ascii;
    arch        "LSB;label=32;scalar=64";
    class       volScalarField;
    location    "1.9";
    object      turbulenceProperties:nut;
}
// * * * * * * * * * * * * * * * * * * * * * * * * * * * * * * * * * * * * * //

dimensions      [0 2 -1 0 0 0 0];

internalField   uniform 0;

boundaryField
{
    walls
    {
        type            nutUSpaldingWallFunction;
        value           nonuniform List<scalar> 
2000
(
3.17327e-09
4.55003e-09
5.99778e-09
7.1845e-09
7.85304e-09
7.85304e-09
7.1845e-09
5.99778e-09
4.55003e-09
3.17327e-09
1.87209e-09
2.63221e-09
3.46484e-09
4.1654e-09
4.56594e-09
4.56594e-09
4.1654e-09
3.46484e-09
2.63221e-09
1.87209e-09
9.82539e-10
1.36006e-09
1.78336e-09
2.14883e-09
2.36025e-09
2.36025e-09
2.14883e-09
1.78336e-09
1.36006e-09
9.82539e-10
1.15789e-09
1.60985e-09
2.11112e-09
2.53958e-09
2.78626e-09
2.78626e-09
2.53958e-09
2.11112e-09
1.60985e-09
1.15789e-09
9.94213e-10
1.37765e-09
1.80716e-09
2.17686e-09
2.39061e-09
2.39061e-09
2.17686e-09
1.80716e-09
1.37765e-09
9.94212e-10
1.04405e-09
1.44902e-09
1.90131e-09
2.28976e-09
2.5141e-09
2.5141e-09
2.28976e-09
1.90131e-09
1.44902e-09
1.04405e-09
1.00243e-09
1.38997e-09
1.82394e-09
2.1974e-09
2.41332e-09
2.41332e-09
2.1974e-09
1.82394e-09
1.38997e-09
1.00243e-09
1.01579e-09
1.40907e-09
1.8491e-09
2.22752e-09
2.44623e-09
2.44623e-09
2.22751e-09
1.8491e-09
1.40907e-09
1.01579e-09
1.00506e-09
1.39383e-09
1.82912e-09
2.20364e-09
2.42017e-09
2.42016e-09
2.20363e-09
1.82911e-09
1.39383e-09
1.00505e-09
1.0086e-09
1.3989e-09
1.83578e-09
2.21161e-09
2.42888e-09
2.42888e-09
2.21161e-09
1.83578e-09
1.39889e-09
1.00859e-09
1.00581e-09
1.39494e-09
1.83059e-09
2.20541e-09
2.4221e-09
2.4221e-09
2.2054e-09
1.83058e-09
1.39493e-09
1.0058e-09
1.00675e-09
1.39628e-09
1.83235e-09
2.20752e-09
2.42441e-09
2.4244e-09
2.20751e-09
1.83234e-09
1.39626e-09
1.00674e-09
1.00603e-09
1.39525e-09
1.831e-09
2.2059e-09
2.42264e-09
2.42264e-09
2.20589e-09
1.83098e-09
1.39523e-09
1.00601e-09
1.00628e-09
1.39561e-09
1.83147e-09
2.20647e-09
2.42326e-09
2.42325e-09
2.20645e-09
1.83145e-09
1.39558e-09
1.00625e-09
1.00609e-09
1.39535e-09
1.83113e-09
2.20605e-09
2.4228e-09
2.4228e-09
2.20603e-09
1.8311e-09
1.39531e-09
1.00606e-09
1.00616e-09
1.39544e-09
1.83126e-09
2.2062e-09
2.42297e-09
2.42296e-09
2.20618e-09
1.83122e-09
1.39541e-09
1.00613e-09
1.00611e-09
1.39537e-09
1.83117e-09
2.2061e-09
2.42285e-09
2.42284e-09
2.20607e-09
1.83113e-09
1.39534e-09
1.00608e-09
1.00613e-09
1.3954e-09
1.83119e-09
2.20613e-09
2.42289e-09
2.42288e-09
2.20611e-09
1.83116e-09
1.39536e-09
1.00609e-09
1.00611e-09
1.39537e-09
1.83116e-09
2.20609e-09
2.42285e-09
2.42285e-09
2.20608e-09
1.83113e-09
1.39534e-09
1.00608e-09
1.0061e-09
1.39536e-09
1.83116e-09
2.20609e-09
2.42285e-09
2.42285e-09
2.20608e-09
1.83114e-09
1.39534e-09
1.00608e-09
1.00609e-09
1.39534e-09
1.83113e-09
2.20607e-09
2.42283e-09
2.42282e-09
2.20606e-09
1.83112e-09
1.39533e-09
1.00608e-09
1.00608e-09
1.39533e-09
1.83112e-09
2.20605e-09
2.42281e-09
2.42281e-09
2.20605e-09
1.83112e-09
1.39533e-09
1.00608e-09
1.00606e-09
1.39531e-09
1.8311e-09
2.20603e-09
2.42279e-09
2.4228e-09
2.20604e-09
1.83111e-09
1.39532e-09
1.00607e-09
1.00605e-09
1.3953e-09
1.83109e-09
2.20602e-09
2.42278e-09
2.42278e-09
2.20603e-09
1.8311e-09
1.39532e-09
1.00607e-09
1.00604e-09
1.39529e-09
1.83107e-09
2.206e-09
2.42277e-09
2.42277e-09
2.20602e-09
1.8311e-09
1.39532e-09
1.00607e-09
1.00604e-09
1.39528e-09
1.83106e-09
2.20599e-09
2.42276e-09
2.42276e-09
2.20601e-09
1.83109e-09
1.39532e-09
1.00607e-09
1.00603e-09
1.39527e-09
1.83105e-09
2.20598e-09
2.42275e-09
2.42275e-09
2.20601e-09
1.83109e-09
1.39531e-09
1.00607e-09
1.00603e-09
1.39527e-09
1.83104e-09
2.20597e-09
2.42274e-09
2.42275e-09
2.206e-09
1.83108e-09
1.39531e-09
1.00606e-09
1.00602e-09
1.39526e-09
1.83104e-09
2.20597e-09
2.42273e-09
2.42274e-09
2.20599e-09
1.83108e-09
1.39531e-09
1.00606e-09
1.00602e-09
1.39526e-09
1.83104e-09
2.20597e-09
2.42273e-09
2.42274e-09
2.20599e-09
1.83108e-09
1.39531e-09
1.00606e-09
1.00603e-09
1.39527e-09
1.83104e-09
2.20597e-09
2.42273e-09
2.42274e-09
2.206e-09
1.83108e-09
1.39531e-09
1.00607e-09
1.00604e-09
1.39528e-09
1.83106e-09
2.20599e-09
2.42275e-09
2.42276e-09
2.20601e-09
1.83109e-09
1.39532e-09
1.00607e-09
1.00606e-09
1.39531e-09
1.83109e-09
2.20601e-09
2.42277e-09
2.42278e-09
2.20603e-09
1.8311e-09
1.39532e-09
1.00608e-09
1.00609e-09
1.39534e-09
1.83112e-09
2.20605e-09
2.42281e-09
2.42281e-09
2.20605e-09
1.83112e-09
1.39533e-09
1.00608e-09
1.00612e-09
1.39538e-09
1.83117e-09
2.20609e-09
2.42285e-09
2.42284e-09
2.20607e-09
1.83113e-09
1.39534e-09
1.00608e-09
1.00615e-09
1.39542e-09
1.83121e-09
2.20614e-09
2.42289e-09
2.42287e-09
2.2061e-09
1.83115e-09
1.39535e-09
1.00608e-09
1.00617e-09
1.39545e-09
1.83125e-09
2.20618e-09
2.42292e-09
2.4229e-09
2.20612e-09
1.83116e-09
1.39535e-09
1.00608e-09
1.00618e-09
1.39546e-09
1.83126e-09
2.2062e-09
2.42294e-09
2.42292e-09
2.20613e-09
1.83116e-09
1.39535e-09
1.00608e-09
1.00618e-09
1.39546e-09
1.83126e-09
2.20619e-09
2.42294e-09
2.42292e-09
2.20613e-09
1.83116e-09
1.39535e-09
1.00608e-09
1.00616e-09
1.39543e-09
1.83123e-09
2.20617e-09
2.42292e-09
2.4229e-09
2.20611e-09
1.83115e-09
1.39534e-09
1.00608e-09
1.00613e-09
1.39539e-09
1.8312e-09
2.20613e-09
2.42289e-09
2.42287e-09
2.20609e-09
1.83114e-09
1.39534e-09
1.00607e-09
1.0061e-09
1.39536e-09
1.83116e-09
2.2061e-09
2.42286e-09
2.42285e-09
2.20608e-09
1.83113e-09
1.39534e-09
1.00608e-09
1.0061e-09
1.39536e-09
1.83115e-09
2.20609e-09
2.42285e-09
2.42284e-09
2.20608e-09
1.83114e-09
1.39535e-09
1.00609e-09
1.00613e-09
1.3954e-09
1.83119e-09
2.20613e-09
2.42289e-09
2.42288e-09
2.20611e-09
1.83117e-09
1.39537e-09
1.00611e-09
1.00622e-09
1.39551e-09
1.83131e-09
2.20624e-09
2.42299e-09
2.42297e-09
2.20619e-09
1.83123e-09
1.39542e-09
1.00614e-09
1.0064e-09
1.39572e-09
1.83154e-09
2.20647e-09
2.42321e-09
2.42316e-09
2.20635e-09
1.83135e-09
1.39551e-09
1.0062e-09
1.00664e-09
1.39601e-09
1.83186e-09
2.2068e-09
2.42351e-09
2.42342e-09
2.20656e-09
1.83151e-09
1.39562e-09
1.00626e-09
1.00701e-09
1.39647e-09
1.83239e-09
2.20736e-09
2.42406e-09
2.42392e-09
2.20697e-09
1.83183e-09
1.39584e-09
1.00641e-09
1.00732e-09
1.39684e-09
1.83279e-09
2.20775e-09
2.42442e-09
2.42423e-09
2.20722e-09
1.83203e-09
1.39598e-09
1.0065e-09
1.00804e-09
1.3978e-09
1.83396e-09
2.20905e-09
2.42575e-09
2.42548e-09
2.20831e-09
1.8329e-09
1.39662e-09
1.00694e-09
3.17327e-09
4.55003e-09
5.99778e-09
7.1845e-09
7.85304e-09
7.85304e-09
7.1845e-09
5.99778e-09
4.55003e-09
3.17327e-09
1.87209e-09
2.63221e-09
3.46484e-09
4.1654e-09
4.56594e-09
4.56594e-09
4.1654e-09
3.46484e-09
2.63221e-09
1.87209e-09
9.82539e-10
1.36006e-09
1.78336e-09
2.14883e-09
2.36025e-09
2.36025e-09
2.14883e-09
1.78336e-09
1.36006e-09
9.82539e-10
1.15789e-09
1.60985e-09
2.11112e-09
2.53958e-09
2.78626e-09
2.78626e-09
2.53958e-09
2.11112e-09
1.60985e-09
1.15789e-09
9.94212e-10
1.37765e-09
1.80716e-09
2.17686e-09
2.39061e-09
2.39061e-09
2.17686e-09
1.80716e-09
1.37765e-09
9.94213e-10
1.04405e-09
1.44902e-09
1.90131e-09
2.28976e-09
2.5141e-09
2.5141e-09
2.28976e-09
1.90131e-09
1.44902e-09
1.04405e-09
1.00243e-09
1.38996e-09
1.82394e-09
2.1974e-09
2.41332e-09
2.41332e-09
2.1974e-09
1.82394e-09
1.38997e-09
1.00243e-09
1.01579e-09
1.40907e-09
1.84909e-09
2.22751e-09
2.44623e-09
2.44623e-09
2.22751e-09
1.8491e-09
1.40907e-09
1.01579e-09
1.00505e-09
1.39382e-09
1.82911e-09
2.20363e-09
2.42016e-09
2.42016e-09
2.20363e-09
1.82911e-09
1.39383e-09
1.00506e-09
1.00859e-09
1.39888e-09
1.83577e-09
2.2116e-09
2.42887e-09
2.42887e-09
2.21161e-09
1.83578e-09
1.3989e-09
1.0086e-09
1.00579e-09
1.39491e-09
1.83057e-09
2.20539e-09
2.42209e-09
2.42209e-09
2.2054e-09
1.83058e-09
1.39493e-09
1.00581e-09
1.00672e-09
1.39625e-09
1.83232e-09
2.20749e-09
2.42439e-09
2.4244e-09
2.20751e-09
1.83235e-09
1.39627e-09
1.00675e-09
1.00599e-09
1.39521e-09
1.83096e-09
2.20587e-09
2.42262e-09
2.42263e-09
2.20589e-09
1.831e-09
1.39525e-09
1.00602e-09
1.00623e-09
1.39556e-09
1.83142e-09
2.20642e-09
2.42323e-09
2.42324e-09
2.20645e-09
1.83147e-09
1.3956e-09
1.00628e-09
1.00604e-09
1.39529e-09
1.83107e-09
2.206e-09
2.42277e-09
2.42278e-09
2.20604e-09
1.83112e-09
1.39534e-09
1.00609e-09
1.0061e-09
1.39538e-09
1.83119e-09
2.20615e-09
2.42293e-09
2.42294e-09
2.20619e-09
1.83124e-09
1.39544e-09
1.00616e-09
1.00605e-09
1.3953e-09
1.8311e-09
2.20604e-09
2.42281e-09
2.42282e-09
2.20608e-09
1.83115e-09
1.39537e-09
1.00611e-09
1.00607e-09
1.39533e-09
1.83113e-09
2.20607e-09
2.42285e-09
2.42286e-09
2.20611e-09
1.83118e-09
1.39539e-09
1.00612e-09
1.00606e-09
1.39531e-09
1.8311e-09
2.20604e-09
2.42281e-09
2.42283e-09
2.20608e-09
1.83115e-09
1.39536e-09
1.00611e-09
1.00606e-09
1.39532e-09
1.83111e-09
2.20605e-09
2.42282e-09
2.42283e-09
2.20608e-09
1.83115e-09
1.39536e-09
1.0061e-09
1.00606e-09
1.39531e-09
1.8311e-09
2.20604e-09
2.4228e-09
2.42281e-09
2.20605e-09
1.83113e-09
1.39534e-09
1.00609e-09
1.00606e-09
1.39532e-09
1.8311e-09
2.20603e-09
2.4228e-09
2.4228e-09
2.20604e-09
1.83111e-09
1.39533e-09
1.00607e-09
1.00607e-09
1.39531e-09
1.8311e-09
2.20603e-09
2.42278e-09
2.42278e-09
2.20602e-09
1.8311e-09
1.39531e-09
1.00606e-09
1.00607e-09
1.39532e-09
1.8311e-09
2.20602e-09
2.42278e-09
2.42277e-09
2.20601e-09
1.83108e-09
1.3953e-09
1.00605e-09
1.00607e-09
1.39531e-09
1.83109e-09
2.20602e-09
2.42277e-09
2.42276e-09
2.206e-09
1.83107e-09
1.39529e-09
1.00604e-09
1.00607e-09
1.39531e-09
1.83109e-09
2.20601e-09
2.42276e-09
2.42275e-09
2.20599e-09
1.83106e-09
1.39528e-09
1.00604e-09
1.00607e-09
1.39531e-09
1.83109e-09
2.20601e-09
2.42276e-09
2.42275e-09
2.20598e-09
1.83105e-09
1.39527e-09
1.00603e-09
1.00607e-09
1.39531e-09
1.83109e-09
2.20601e-09
2.42275e-09
2.42274e-09
2.20598e-09
1.83105e-09
1.39527e-09
1.00603e-09
1.00607e-09
1.39531e-09
1.83109e-09
2.206e-09
2.42275e-09
2.42274e-09
2.20597e-09
1.83104e-09
1.39526e-09
1.00602e-09
1.00607e-09
1.39531e-09
1.83109e-09
2.206e-09
2.42275e-09
2.42274e-09
2.20597e-09
1.83104e-09
1.39526e-09
1.00602e-09
1.00607e-09
1.39531e-09
1.83108e-09
2.206e-09
2.42275e-09
2.42274e-09
2.20597e-09
1.83105e-09
1.39527e-09
1.00603e-09
1.00606e-09
1.39531e-09
1.83108e-09
2.206e-09
2.42275e-09
2.42274e-09
2.20598e-09
1.83106e-09
1.39528e-09
1.00604e-09
1.00606e-09
1.3953e-09
1.83108e-09
2.20601e-09
2.42276e-09
2.42276e-09
2.206e-09
1.83108e-09
1.3953e-09
1.00606e-09
1.00606e-09
1.39531e-09
1.83109e-09
2.20602e-09
2.42278e-09
2.42279e-09
2.20603e-09
1.83111e-09
1.39533e-09
1.00608e-09
1.00606e-09
1.39531e-09
1.8311e-09
2.20604e-09
2.42281e-09
2.42282e-09
2.20608e-09
1.83115e-09
1.39537e-09
1.00612e-09
1.00606e-09
1.39532e-09
1.83112e-09
2.20606e-09
2.42284e-09
2.42286e-09
2.20612e-09
1.8312e-09
1.39541e-09
1.00615e-09
1.00606e-09
1.39533e-09
1.83113e-09
2.20609e-09
2.42288e-09
2.4229e-09
2.20616e-09
1.83124e-09
1.39544e-09
1.00617e-09
1.00607e-09
1.39534e-09
1.83115e-09
2.20611e-09
2.4229e-09
2.42293e-09
2.20618e-09
1.83126e-09
1.39546e-09
1.00618e-09
1.00607e-09
1.39534e-09
1.83115e-09
2.20611e-09
2.42291e-09
2.42293e-09
2.20619e-09
1.83126e-09
1.39545e-09
1.00618e-09
1.00607e-09
1.39534e-09
1.83115e-09
2.20611e-09
2.4229e-09
2.42292e-09
2.20617e-09
1.83123e-09
1.39543e-09
1.00616e-09
1.00607e-09
1.39534e-09
1.83114e-09
2.20609e-09
2.42287e-09
2.42289e-09
2.20613e-09
1.83119e-09
1.39539e-09
1.00613e-09
1.00607e-09
1.39533e-09
1.83112e-09
2.20607e-09
2.42284e-09
2.42285e-09
2.20609e-09
1.83116e-09
1.39536e-09
1.0061e-09
1.00607e-09
1.39532e-09
1.83111e-09
2.20605e-09
2.42282e-09
2.42283e-09
2.20607e-09
1.83114e-09
1.39535e-09
1.0061e-09
1.00606e-09
1.39532e-09
1.83111e-09
2.20605e-09
2.42283e-09
2.42284e-09
2.2061e-09
1.83118e-09
1.39539e-09
1.00613e-09
1.00606e-09
1.39532e-09
1.83112e-09
2.20608e-09
2.42288e-09
2.42292e-09
2.20619e-09
1.83128e-09
1.39549e-09
1.00622e-09
1.00604e-09
1.39531e-09
1.83114e-09
2.20614e-09
2.42298e-09
2.42307e-09
2.20637e-09
1.83148e-09
1.39569e-09
1.00639e-09
1.006e-09
1.39531e-09
1.83118e-09
2.20624e-09
2.42315e-09
2.42329e-09
2.20665e-09
1.83177e-09
1.39596e-09
1.00662e-09
1.00588e-09
1.39522e-09
1.83116e-09
2.20632e-09
2.42335e-09
2.42361e-09
2.20705e-09
1.83221e-09
1.39638e-09
1.00698e-09
1.0058e-09
1.39517e-09
1.83118e-09
2.20642e-09
2.42355e-09
2.4239e-09
2.20739e-09
1.83257e-09
1.39673e-09
1.00728e-09
1.00536e-09
1.39475e-09
1.8309e-09
2.20637e-09
2.42377e-09
2.42439e-09
2.20808e-09
1.83335e-09
1.39749e-09
1.00794e-09
3.17327e-09
4.55003e-09
5.99778e-09
7.1845e-09
7.85304e-09
7.85304e-09
7.1845e-09
5.99778e-09
4.55003e-09
3.17327e-09
1.87209e-09
2.63221e-09
3.46484e-09
4.1654e-09
4.56594e-09
4.56594e-09
4.1654e-09
3.46484e-09
2.63221e-09
1.87209e-09
9.82539e-10
1.36006e-09
1.78336e-09
2.14883e-09
2.36025e-09
2.36025e-09
2.14883e-09
1.78336e-09
1.36006e-09
9.82539e-10
1.15789e-09
1.60985e-09
2.11112e-09
2.53958e-09
2.78626e-09
2.78626e-09
2.53958e-09
2.11112e-09
1.60985e-09
1.15789e-09
9.94211e-10
1.37765e-09
1.80716e-09
2.17686e-09
2.39061e-09
2.39061e-09
2.17686e-09
1.80716e-09
1.37765e-09
9.94212e-10
1.04405e-09
1.44902e-09
1.90131e-09
2.28976e-09
2.51409e-09
2.51409e-09
2.28976e-09
1.90131e-09
1.44902e-09
1.04405e-09
1.00243e-09
1.38996e-09
1.82394e-09
2.19739e-09
2.41332e-09
2.41332e-09
2.19739e-09
1.82394e-09
1.38996e-09
1.00243e-09
1.01579e-09
1.40906e-09
1.84909e-09
2.2275e-09
2.44622e-09
2.44622e-09
2.22751e-09
1.84909e-09
1.40906e-09
1.01579e-09
1.00504e-09
1.39382e-09
1.8291e-09
2.20362e-09
2.42015e-09
2.42015e-09
2.20362e-09
1.8291e-09
1.39382e-09
1.00505e-09
1.00858e-09
1.39887e-09
1.83575e-09
2.21159e-09
2.42885e-09
2.42885e-09
2.21159e-09
1.83576e-09
1.39888e-09
1.00859e-09
1.00578e-09
1.3949e-09
1.83055e-09
2.20537e-09
2.42206e-09
2.42207e-09
2.20537e-09
1.83056e-09
1.39491e-09
1.00579e-09
1.00671e-09
1.39623e-09
1.83229e-09
2.20746e-09
2.42435e-09
2.42435e-09
2.20747e-09
1.83231e-09
1.39624e-09
1.00672e-09
1.00597e-09
1.39518e-09
1.83093e-09
2.20582e-09
2.42257e-09
2.42257e-09
2.20583e-09
1.83094e-09
1.3952e-09
1.00599e-09
1.00621e-09
1.39552e-09
1.83138e-09
2.20636e-09
2.42316e-09
2.42316e-09
2.20638e-09
1.83139e-09
1.39554e-09
1.00623e-09
1.00601e-09
1.39524e-09
1.83101e-09
2.20593e-09
2.42268e-09
2.42269e-09
2.20594e-09
1.83103e-09
1.39527e-09
1.00603e-09
1.00607e-09
1.39533e-09
1.83113e-09
2.20607e-09
2.42283e-09
2.42284e-09
2.20608e-09
1.83115e-09
1.39536e-09
1.0061e-09
1.00602e-09
1.39526e-09
1.83103e-09
2.20595e-09
2.42271e-09
2.42272e-09
2.20597e-09
1.83105e-09
1.39528e-09
1.00605e-09
1.00604e-09
1.39529e-09
1.83107e-09
2.20599e-09
2.42275e-09
2.42276e-09
2.20601e-09
1.83108e-09
1.39531e-09
1.00606e-09
1.00604e-09
1.39528e-09
1.83105e-09
2.20597e-09
2.42273e-09
2.42273e-09
2.20598e-09
1.83106e-09
1.39529e-09
1.00605e-09
1.00605e-09
1.39529e-09
1.83107e-09
2.20599e-09
2.42275e-09
2.42275e-09
2.206e-09
1.83108e-09
1.3953e-09
1.00606e-09
1.00606e-09
1.3953e-09
1.83108e-09
2.206e-09
2.42276e-09
2.42276e-09
2.20601e-09
1.83108e-09
1.39531e-09
1.00606e-09
1.00607e-09
1.39532e-09
1.8311e-09
2.20602e-09
2.42278e-09
2.42278e-09
2.20602e-09
1.83109e-09
1.39531e-09
1.00606e-09
1.00608e-09
1.39533e-09
1.83111e-09
2.20604e-09
2.42279e-09
2.42279e-09
2.20603e-09
1.8311e-09
1.39532e-09
1.00607e-09
1.00609e-09
1.39534e-09
1.83112e-09
2.20605e-09
2.42281e-09
2.4228e-09
2.20604e-09
1.83111e-09
1.39532e-09
1.00607e-09
1.00609e-09
1.39535e-09
1.83114e-09
2.20606e-09
2.42282e-09
2.42282e-09
2.20605e-09
1.83111e-09
1.39533e-09
1.00607e-09
1.0061e-09
1.39536e-09
1.83115e-09
2.20608e-09
2.42283e-09
2.42282e-09
2.20606e-09
1.83112e-09
1.39533e-09
1.00607e-09
1.00611e-09
1.39537e-09
1.83116e-09
2.20609e-09
2.42284e-09
2.42283e-09
2.20606e-09
1.83112e-09
1.39533e-09
1.00607e-09
1.00611e-09
1.39537e-09
1.83117e-09
2.2061e-09
2.42285e-09
2.42284e-09
2.20607e-09
1.83113e-09
1.39533e-09
1.00608e-09
1.00612e-09
1.39538e-09
1.83117e-09
2.2061e-09
2.42286e-09
2.42285e-09
2.20607e-09
1.83113e-09
1.39534e-09
1.00608e-09
1.00612e-09
1.39538e-09
1.83117e-09
2.2061e-09
2.42286e-09
2.42285e-09
2.20607e-09
1.83113e-09
1.39533e-09
1.00607e-09
1.00611e-09
1.39537e-09
1.83117e-09
2.2061e-09
2.42285e-09
2.42284e-09
2.20607e-09
1.83113e-09
1.39533e-09
1.00607e-09
1.0061e-09
1.39536e-09
1.83115e-09
2.20608e-09
2.42284e-09
2.42283e-09
2.20606e-09
1.83112e-09
1.39532e-09
1.00607e-09
1.00608e-09
1.39534e-09
1.83113e-09
2.20606e-09
2.42281e-09
2.42281e-09
2.20604e-09
1.83111e-09
1.39532e-09
1.00606e-09
1.00606e-09
1.3953e-09
1.83109e-09
2.20602e-09
2.42278e-09
2.42278e-09
2.20602e-09
1.83109e-09
1.39531e-09
1.00606e-09
1.00602e-09
1.39527e-09
1.83105e-09
2.20598e-09
2.42274e-09
2.42274e-09
2.20599e-09
1.83107e-09
1.3953e-09
1.00605e-09
1.00599e-09
1.39523e-09
1.831e-09
2.20593e-09
2.4227e-09
2.42271e-09
2.20597e-09
1.83105e-09
1.39529e-09
1.00605e-09
1.00597e-09
1.3952e-09
1.83097e-09
2.20589e-09
2.42266e-09
2.42268e-09
2.20595e-09
1.83104e-09
1.39528e-09
1.00605e-09
1.00596e-09
1.39518e-09
1.83095e-09
2.20587e-09
2.42264e-09
2.42266e-09
2.20593e-09
1.83104e-09
1.39528e-09
1.00605e-09
1.00597e-09
1.39519e-09
1.83095e-09
2.20588e-09
2.42264e-09
2.42266e-09
2.20594e-09
1.83104e-09
1.39529e-09
1.00606e-09
1.00599e-09
1.39521e-09
1.83098e-09
2.2059e-09
2.42266e-09
2.42268e-09
2.20595e-09
1.83105e-09
1.39529e-09
1.00606e-09
1.00601e-09
1.39524e-09
1.83101e-09
2.20593e-09
2.4227e-09
2.42271e-09
2.20597e-09
1.83107e-09
1.3953e-09
1.00607e-09
1.00603e-09
1.39527e-09
1.83104e-09
2.20596e-09
2.42273e-09
2.42274e-09
2.206e-09
1.83108e-09
1.39531e-09
1.00607e-09
1.00603e-09
1.39526e-09
1.83104e-09
2.20597e-09
2.42273e-09
2.42275e-09
2.206e-09
1.83109e-09
1.39531e-09
1.00607e-09
1.00598e-09
1.39521e-09
1.83098e-09
2.20592e-09
2.42269e-09
2.42272e-09
2.20598e-09
1.83107e-09
1.3953e-09
1.00606e-09
1.00587e-09
1.39508e-09
1.83085e-09
2.20579e-09
2.42258e-09
2.42263e-09
2.20591e-09
1.83102e-09
1.39527e-09
1.00604e-09
1.00568e-09
1.39486e-09
1.83061e-09
2.20555e-09
2.42236e-09
2.42244e-09
2.20576e-09
1.83092e-09
1.3952e-09
1.006e-09
1.00544e-09
1.39457e-09
1.83029e-09
2.20523e-09
2.42206e-09
2.42218e-09
2.20556e-09
1.83076e-09
1.3951e-09
1.00594e-09
1.00509e-09
1.39412e-09
1.82977e-09
2.20467e-09
2.42151e-09
2.42167e-09
2.20513e-09
1.83042e-09
1.39485e-09
1.00578e-09
1.00481e-09
1.39378e-09
1.8294e-09
2.20429e-09
2.42115e-09
2.42135e-09
2.20485e-09
1.83019e-09
1.39467e-09
1.00565e-09
1.00417e-09
1.39292e-09
1.8283e-09
2.20304e-09
2.41982e-09
2.42005e-09
2.20367e-09
1.82921e-09
1.39392e-09
1.00511e-09
3.17327e-09
4.55003e-09
5.99778e-09
7.1845e-09
7.85304e-09
7.85304e-09
7.1845e-09
5.99778e-09
4.55003e-09
3.17327e-09
1.87209e-09
2.63221e-09
3.46484e-09
4.1654e-09
4.56594e-09
4.56594e-09
4.1654e-09
3.46484e-09
2.63221e-09
1.87209e-09
9.82539e-10
1.36006e-09
1.78336e-09
2.14883e-09
2.36025e-09
2.36025e-09
2.14883e-09
1.78336e-09
1.36006e-09
9.82539e-10
1.15789e-09
1.60985e-09
2.11112e-09
2.53958e-09
2.78626e-09
2.78626e-09
2.53958e-09
2.11112e-09
1.60985e-09
1.15789e-09
9.94212e-10
1.37765e-09
1.80716e-09
2.17686e-09
2.39061e-09
2.39061e-09
2.17686e-09
1.80716e-09
1.37765e-09
9.94211e-10
1.04405e-09
1.44902e-09
1.90131e-09
2.28976e-09
2.5141e-09
2.5141e-09
2.28976e-09
1.90131e-09
1.44902e-09
1.04405e-09
1.00243e-09
1.38997e-09
1.82394e-09
2.19739e-09
2.41332e-09
2.41332e-09
2.19739e-09
1.82394e-09
1.38996e-09
1.00243e-09
1.01579e-09
1.40907e-09
1.8491e-09
2.22751e-09
2.44623e-09
2.44623e-09
2.22751e-09
1.84909e-09
1.40906e-09
1.01579e-09
1.00505e-09
1.39383e-09
1.82911e-09
2.20363e-09
2.42015e-09
2.42015e-09
2.20362e-09
1.8291e-09
1.39382e-09
1.00504e-09
1.00859e-09
1.39889e-09
1.83577e-09
2.2116e-09
2.42886e-09
2.42886e-09
2.21159e-09
1.83576e-09
1.39887e-09
1.00858e-09
1.0058e-09
1.39492e-09
1.83057e-09
2.20538e-09
2.42208e-09
2.42207e-09
2.20537e-09
1.83055e-09
1.3949e-09
1.00578e-09
1.00673e-09
1.39625e-09
1.83232e-09
2.20748e-09
2.42437e-09
2.42436e-09
2.20747e-09
1.8323e-09
1.39623e-09
1.00671e-09
1.006e-09
1.39522e-09
1.83096e-09
2.20586e-09
2.42259e-09
2.42258e-09
2.20583e-09
1.83093e-09
1.39518e-09
1.00597e-09
1.00625e-09
1.39557e-09
1.83142e-09
2.2064e-09
2.42319e-09
2.42318e-09
2.20638e-09
1.83138e-09
1.39553e-09
1.00621e-09
1.00606e-09
1.3953e-09
1.83106e-09
2.20598e-09
2.42272e-09
2.42271e-09
2.20595e-09
1.83102e-09
1.39525e-09
1.00601e-09
1.00612e-09
1.39539e-09
1.83118e-09
2.20612e-09
2.42287e-09
2.42286e-09
2.20609e-09
1.83114e-09
1.39534e-09
1.00607e-09
1.00607e-09
1.39532e-09
1.83109e-09
2.20601e-09
2.42275e-09
2.42274e-09
2.20597e-09
1.83104e-09
1.39526e-09
1.00602e-09
1.00609e-09
1.39534e-09
1.83112e-09
2.20604e-09
2.42279e-09
2.42278e-09
2.20601e-09
1.83108e-09
1.39529e-09
1.00604e-09
1.00607e-09
1.39532e-09
1.8311e-09
2.20602e-09
2.42276e-09
2.42276e-09
2.20599e-09
1.83106e-09
1.39528e-09
1.00604e-09
1.00608e-09
1.39533e-09
1.83111e-09
2.20603e-09
2.42278e-09
2.42277e-09
2.20601e-09
1.83108e-09
1.3953e-09
1.00605e-09
1.00607e-09
1.39532e-09
1.8311e-09
2.20603e-09
2.42278e-09
2.42278e-09
2.20602e-09
1.83109e-09
1.3953e-09
1.00606e-09
1.00607e-09
1.39533e-09
1.83111e-09
2.20604e-09
2.42279e-09
2.42279e-09
2.20603e-09
1.8311e-09
1.39532e-09
1.00607e-09
1.00607e-09
1.39533e-09
1.83111e-09
2.20604e-09
2.4228e-09
2.4228e-09
2.20604e-09
1.83111e-09
1.39533e-09
1.00608e-09
1.00607e-09
1.39533e-09
1.83112e-09
2.20605e-09
2.42281e-09
2.42281e-09
2.20606e-09
1.83113e-09
1.39534e-09
1.00609e-09
1.00607e-09
1.39533e-09
1.83112e-09
2.20605e-09
2.42282e-09
2.42282e-09
2.20607e-09
1.83114e-09
1.39535e-09
1.00609e-09
1.00607e-09
1.39533e-09
1.83112e-09
2.20606e-09
2.42283e-09
2.42283e-09
2.20608e-09
1.83115e-09
1.39536e-09
1.0061e-09
1.00607e-09
1.39533e-09
1.83112e-09
2.20606e-09
2.42283e-09
2.42284e-09
2.20609e-09
1.83116e-09
1.39537e-09
1.00611e-09
1.00607e-09
1.39533e-09
1.83112e-09
2.20606e-09
2.42283e-09
2.42285e-09
2.20609e-09
1.83116e-09
1.39537e-09
1.00611e-09
1.00607e-09
1.39533e-09
1.83112e-09
2.20606e-09
2.42284e-09
2.42285e-09
2.2061e-09
1.83117e-09
1.39538e-09
1.00612e-09
1.00607e-09
1.39533e-09
1.83112e-09
2.20607e-09
2.42284e-09
2.42285e-09
2.2061e-09
1.83117e-09
1.39538e-09
1.00612e-09
1.00607e-09
1.39533e-09
1.83113e-09
2.20607e-09
2.42284e-09
2.42285e-09
2.2061e-09
1.83117e-09
1.39537e-09
1.00611e-09
1.00608e-09
1.39533e-09
1.83113e-09
2.20607e-09
2.42284e-09
2.42284e-09
2.20609e-09
1.83115e-09
1.39536e-09
1.0061e-09
1.00608e-09
1.39533e-09
1.83113e-09
2.20606e-09
2.42282e-09
2.42283e-09
2.20607e-09
1.83113e-09
1.39534e-09
1.00608e-09
1.00608e-09
1.39533e-09
1.83112e-09
2.20605e-09
2.4228e-09
2.4228e-09
2.20603e-09
1.8311e-09
1.39531e-09
1.00606e-09
1.00608e-09
1.39533e-09
1.83111e-09
2.20603e-09
2.42278e-09
2.42276e-09
2.20599e-09
1.83106e-09
1.39527e-09
1.00603e-09
1.00607e-09
1.39532e-09
1.83109e-09
2.206e-09
2.42274e-09
2.42272e-09
2.20595e-09
1.83102e-09
1.39523e-09
1.00599e-09
1.00607e-09
1.39531e-09
1.83107e-09
2.20598e-09
2.42271e-09
2.42269e-09
2.20591e-09
1.83098e-09
1.3952e-09
1.00597e-09
1.00607e-09
1.3953e-09
1.83106e-09
2.20596e-09
2.42269e-09
2.42266e-09
2.20589e-09
1.83096e-09
1.39519e-09
1.00596e-09
1.00606e-09
1.39529e-09
1.83105e-09
2.20595e-09
2.42268e-09
2.42265e-09
2.20588e-09
1.83096e-09
1.39519e-09
1.00597e-09
1.00606e-09
1.3953e-09
1.83106e-09
2.20596e-09
2.42269e-09
2.42267e-09
2.2059e-09
1.83098e-09
1.39521e-09
1.00599e-09
1.00607e-09
1.39531e-09
1.83107e-09
2.20598e-09
2.42271e-09
2.4227e-09
2.20593e-09
1.83101e-09
1.39524e-09
1.00601e-09
1.00608e-09
1.39532e-09
1.83109e-09
2.206e-09
2.42275e-09
2.42273e-09
2.20597e-09
1.83104e-09
1.39527e-09
1.00603e-09
1.00609e-09
1.39534e-09
1.83111e-09
2.20603e-09
2.42277e-09
2.42275e-09
2.20598e-09
1.83105e-09
1.39527e-09
1.00603e-09
1.00611e-09
1.39536e-09
1.83113e-09
2.20604e-09
2.42276e-09
2.42273e-09
2.20594e-09
1.831e-09
1.39522e-09
1.00598e-09
1.00613e-09
1.39537e-09
1.83113e-09
2.20602e-09
2.42272e-09
2.42265e-09
2.20584e-09
1.83088e-09
1.3951e-09
1.00587e-09
1.00616e-09
1.39539e-09
1.83112e-09
2.20596e-09
2.42261e-09
2.4225e-09
2.20564e-09
1.83066e-09
1.39489e-09
1.00569e-09
1.0062e-09
1.39541e-09
1.8311e-09
2.20588e-09
2.42245e-09
2.42227e-09
2.20537e-09
1.83037e-09
1.39461e-09
1.00545e-09
1.00631e-09
1.39548e-09
1.8311e-09
2.20578e-09
2.42225e-09
2.42196e-09
2.20498e-09
1.82995e-09
1.3942e-09
1.00511e-09
1.00636e-09
1.3955e-09
1.83107e-09
2.20567e-09
2.42205e-09
2.42169e-09
2.20466e-09
1.82962e-09
1.3939e-09
1.00484e-09
1.0067e-09
1.39581e-09
1.83125e-09
2.20567e-09
2.42182e-09
2.42125e-09
2.20406e-09
1.82895e-09
1.39325e-09
1.00428e-09
)
;
    }
    inlet
    {
        type            calculated;
        value           uniform 0;
    }
    outlet
    {
        type            calculated;
        value           uniform 0;
    }
}


// ************************************************************************* //
