/*--------------------------------*- C++ -*----------------------------------*\
| =========                 |                                                 |
| \\      /  F ield         | OpenFOAM: The Open Source CFD Toolbox           |
|  \\    /   O peration     | Version:  2406                                  |
|   \\  /    A nd           | Website:  www.openfoam.com                      |
|    \\/     M anipulation  |                                                 |
\*---------------------------------------------------------------------------*/
FoamFile
{
    version     2.0;
    format      ascii;
    arch        "LSB;label=32;scalar=64";
    class       volScalarField;
    location    "1.9";
    object      turbulenceProperties:nuEff;
}
// * * * * * * * * * * * * * * * * * * * * * * * * * * * * * * * * * * * * * //

dimensions      [0 2 -1 0 0 0 0];

internalField   nonuniform List<scalar> 
25000
(
0.00649252
0.00656621
0.00659827
0.0066045
0.00660263
0.00660263
0.0066045
0.00659827
0.00656621
0.00649252
0.00656621
0.00659262
0.00658044
0.00656683
0.00655948
0.00655948
0.00656683
0.00658044
0.00659262
0.00656621
0.00659827
0.00658044
0.00655571
0.00654081
0.00653481
0.00653481
0.00654081
0.00655571
0.00658044
0.00659827
0.0066045
0.00656683
0.00654081
0.00652904
0.00652556
0.00652556
0.00652904
0.00654081
0.00656683
0.0066045
0.00660263
0.00655948
0.00653481
0.00652556
0.00652371
0.00652371
0.00652556
0.00653481
0.00655948
0.00660263
0.00660263
0.00655948
0.00653481
0.00652556
0.00652371
0.00652371
0.00652556
0.00653481
0.00655948
0.00660263
0.0066045
0.00656683
0.00654081
0.00652904
0.00652556
0.00652556
0.00652904
0.00654081
0.00656683
0.0066045
0.00659827
0.00658044
0.00655571
0.00654081
0.00653481
0.00653481
0.00654081
0.00655571
0.00658044
0.00659827
0.00656621
0.00659262
0.00658044
0.00656683
0.00655948
0.00655948
0.00656683
0.00658044
0.00659262
0.00656621
0.00649252
0.00656621
0.00659827
0.0066045
0.00660263
0.00660263
0.0066045
0.00659827
0.00656621
0.00649252
0.00616049
0.00633619
0.0065502
0.00671907
0.00680784
0.00680784
0.00671907
0.0065502
0.00633619
0.00616049
0.00633619
0.00671079
0.00697555
0.00708518
0.00711328
0.00711328
0.00708518
0.00697555
0.00671079
0.00633619
0.0065502
0.00697555
0.00713288
0.00711484
0.00708405
0.00708405
0.00711484
0.00713288
0.00697555
0.0065502
0.00671907
0.00708518
0.00711484
0.00704193
0.00699708
0.00699708
0.00704193
0.00711484
0.00708518
0.00671907
0.00680784
0.00711328
0.00708405
0.00699708
0.00695034
0.00695034
0.00699708
0.00708405
0.00711328
0.00680784
0.00680784
0.00711328
0.00708405
0.00699708
0.00695034
0.00695034
0.00699708
0.00708405
0.00711328
0.00680784
0.00671907
0.00708518
0.00711484
0.00704193
0.00699708
0.00699708
0.00704193
0.00711484
0.00708518
0.00671907
0.0065502
0.00697555
0.00713288
0.00711484
0.00708405
0.00708405
0.00711484
0.00713288
0.00697555
0.0065502
0.00633619
0.00671079
0.00697555
0.00708518
0.00711328
0.00711328
0.00708518
0.00697555
0.00671079
0.00633619
0.00616049
0.00633619
0.0065502
0.00671907
0.00680784
0.00680784
0.00671907
0.0065502
0.00633619
0.00616049
0.00583445
0.00590607
0.00604069
0.00616694
0.00624291
0.00624291
0.00616694
0.00604069
0.00590607
0.00583445
0.00590607
0.00614407
0.00638753
0.0065824
0.00669195
0.00669195
0.0065824
0.00638753
0.00614407
0.00590607
0.00604069
0.00638753
0.00673522
0.00699949
0.00713422
0.00713422
0.00699949
0.00673522
0.00638753
0.00604069
0.00616694
0.0065824
0.00699949
0.00729502
0.00742075
0.00742075
0.00729502
0.00699949
0.0065824
0.00616694
0.00624291
0.00669195
0.00713422
0.00742075
0.00752182
0.00752182
0.00742075
0.00713422
0.00669195
0.00624291
0.00624291
0.00669195
0.00713422
0.00742075
0.00752182
0.00752182
0.00742075
0.00713422
0.00669195
0.00624291
0.00616694
0.0065824
0.00699949
0.00729502
0.00742075
0.00742075
0.00729502
0.00699949
0.0065824
0.00616694
0.00604069
0.00638753
0.00673522
0.00699949
0.00713422
0.00713422
0.00699949
0.00673522
0.00638753
0.00604069
0.00590607
0.00614407
0.00638753
0.0065824
0.00669195
0.00669195
0.0065824
0.00638753
0.00614407
0.00590607
0.00583445
0.00590607
0.00604069
0.00616694
0.00624291
0.00624291
0.00616694
0.00604069
0.00590607
0.00583445
0.00580626
0.00584229
0.00594493
0.00604708
0.00611054
0.00611054
0.00604708
0.00594493
0.00584229
0.00580626
0.00584229
0.00602296
0.00621809
0.00638579
0.00648731
0.00648731
0.00638579
0.00621809
0.00602296
0.00584229
0.00594493
0.00621809
0.00651391
0.00678205
0.00695491
0.00695491
0.00678205
0.00651391
0.00621809
0.00594493
0.00604708
0.00638579
0.00678205
0.00719901
0.00752513
0.00752513
0.00719901
0.00678205
0.00638579
0.00604708
0.00611054
0.00648731
0.00695491
0.00752513
0.00811339
0.00811339
0.00752513
0.00695491
0.00648731
0.00611054
0.00611054
0.00648731
0.00695491
0.00752513
0.00811339
0.00811339
0.00752513
0.00695491
0.00648731
0.00611054
0.00604708
0.00638579
0.00678205
0.00719901
0.00752513
0.00752513
0.00719901
0.00678205
0.00638579
0.00604708
0.00594493
0.00621809
0.00651391
0.00678205
0.00695491
0.00695491
0.00678205
0.00651391
0.00621809
0.00594493
0.00584229
0.00602296
0.00621809
0.00638579
0.00648731
0.00648731
0.00638579
0.00621809
0.00602296
0.00584229
0.00580626
0.00584229
0.00594493
0.00604708
0.00611054
0.00611054
0.00604708
0.00594493
0.00584229
0.00580626
0.00577345
0.00579397
0.005882
0.00597269
0.00602996
0.00602996
0.00597269
0.005882
0.00579398
0.00577345
0.00579397
0.00594859
0.00611955
0.00627015
0.00636374
0.00636374
0.00627015
0.00611955
0.00594859
0.00579398
0.005882
0.00611955
0.00638184
0.00663065
0.00680115
0.00680115
0.00663065
0.00638184
0.00611955
0.005882
0.00597269
0.00627015
0.00663065
0.00704468
0.0074216
0.0074216
0.00704468
0.00663065
0.00627015
0.00597269
0.00602996
0.00636374
0.00680115
0.0074216
0.00837492
0.00837492
0.0074216
0.00680115
0.00636374
0.00602996
0.00602996
0.00636374
0.00680115
0.0074216
0.00837491
0.00837492
0.0074216
0.00680115
0.00636374
0.00602996
0.00597269
0.00627015
0.00663065
0.00704468
0.0074216
0.0074216
0.00704468
0.00663065
0.00627015
0.00597269
0.005882
0.00611955
0.00638184
0.00663065
0.00680115
0.00680115
0.00663065
0.00638184
0.00611955
0.005882
0.00579397
0.00594859
0.00611955
0.00627015
0.00636374
0.00636374
0.00627015
0.00611955
0.00594859
0.00579398
0.00577345
0.00579397
0.005882
0.00597269
0.00602996
0.00602996
0.00597269
0.005882
0.00579398
0.00577345
0.00577371
0.0057897
0.00587281
0.00595939
0.00601439
0.00601439
0.00595939
0.00587281
0.0057897
0.00577371
0.0057897
0.0059354
0.00609675
0.00623991
0.00632977
0.00632977
0.00623991
0.00609675
0.0059354
0.0057897
0.00587281
0.00609675
0.00634416
0.00658206
0.00674835
0.00674836
0.00658206
0.00634416
0.00609675
0.00587281
0.00595939
0.00623991
0.00658206
0.00698435
0.00736443
0.00736443
0.00698436
0.00658206
0.00623991
0.00595939
0.00601439
0.00632977
0.00674835
0.00736443
0.00839756
0.00839756
0.00736443
0.00674836
0.00632977
0.00601439
0.00601439
0.00632977
0.00674835
0.00736443
0.00839755
0.00839756
0.00736443
0.00674836
0.00632977
0.00601439
0.00595939
0.00623991
0.00658206
0.00698435
0.00736443
0.00736443
0.00698435
0.00658206
0.00623991
0.00595939
0.00587281
0.00609675
0.00634416
0.00658206
0.00674835
0.00674835
0.00658206
0.00634416
0.00609675
0.00587281
0.0057897
0.0059354
0.00609675
0.00623991
0.00632977
0.00632977
0.00623991
0.00609675
0.0059354
0.0057897
0.00577371
0.0057897
0.00587281
0.00595939
0.00601439
0.00601439
0.00595939
0.00587281
0.0057897
0.00577371
0.00576592
0.00577921
0.0058599
0.00594456
0.00599849
0.00599849
0.00594456
0.0058599
0.00577921
0.00576592
0.00577921
0.00592064
0.00607791
0.00621783
0.00630594
0.00630594
0.00621783
0.00607791
0.00592064
0.00577921
0.0058599
0.00607791
0.00631904
0.00655182
0.00671554
0.00671554
0.00655182
0.00631904
0.00607791
0.0058599
0.00594456
0.00621783
0.00655182
0.0069472
0.00732471
0.00732472
0.0069472
0.00655182
0.00621783
0.00594456
0.00599849
0.00630594
0.00671553
0.00732471
0.00836992
0.00836993
0.00732472
0.00671554
0.00630594
0.0059985
0.00599849
0.00630594
0.00671553
0.00732471
0.00836991
0.00836992
0.00732472
0.00671554
0.00630594
0.0059985
0.00594456
0.00621783
0.00655182
0.0069472
0.00732471
0.00732471
0.0069472
0.00655182
0.00621783
0.00594456
0.0058599
0.00607791
0.00631904
0.00655182
0.00671553
0.00671554
0.00655182
0.00631904
0.00607791
0.0058599
0.00577921
0.00592064
0.00607791
0.00621783
0.00630594
0.00630594
0.00621783
0.00607791
0.00592064
0.00577921
0.00576592
0.00577921
0.0058599
0.00594456
0.00599849
0.00599849
0.00594456
0.0058599
0.00577921
0.00576592
0.00576613
0.00577851
0.00585827
0.00594216
0.00599567
0.00599567
0.00594216
0.00585827
0.00577851
0.00576613
0.00577851
0.00591826
0.00607376
0.00621228
0.00629964
0.00629964
0.00621228
0.00607377
0.00591826
0.00577851
0.00585827
0.00607376
0.00631211
0.00654261
0.00670512
0.00670512
0.00654261
0.00631211
0.00607377
0.00585827
0.00594216
0.00621228
0.00654261
0.00693472
0.00731052
0.00731052
0.00693472
0.00654261
0.00621228
0.00594216
0.00599567
0.00629964
0.00670511
0.00731051
0.00835565
0.00835566
0.00731052
0.00670512
0.00629964
0.00599567
0.00599567
0.00629964
0.00670511
0.00731051
0.00835564
0.00835566
0.00731052
0.00670512
0.00629964
0.00599567
0.00594216
0.00621228
0.0065426
0.00693471
0.00731051
0.00731052
0.00693472
0.00654261
0.00621228
0.00594216
0.00585827
0.00607376
0.00631211
0.0065426
0.00670511
0.00670512
0.00654261
0.00631211
0.00607377
0.00585827
0.00577851
0.00591825
0.00607376
0.00621228
0.00629964
0.00629964
0.00621228
0.00607377
0.00591826
0.00577851
0.00576613
0.00577851
0.00585827
0.00594216
0.00599567
0.00599567
0.00594216
0.00585827
0.00577851
0.00576613
0.00576413
0.00577585
0.00585506
0.00593852
0.0059918
0.0059918
0.00593852
0.00585506
0.00577586
0.00576413
0.00577585
0.00591462
0.00606927
0.00620711
0.0062941
0.0062941
0.00620712
0.00606927
0.00591463
0.00577586
0.00585506
0.00606927
0.00630633
0.00653576
0.00669766
0.00669767
0.00653576
0.00630634
0.00606927
0.00585506
0.00593852
0.00620711
0.00653576
0.00692628
0.00730104
0.00730104
0.00692629
0.00653576
0.00620712
0.00593852
0.0059918
0.0062941
0.00669766
0.00730103
0.00834478
0.0083448
0.00730105
0.00669767
0.0062941
0.0059918
0.0059918
0.0062941
0.00669766
0.00730103
0.00834477
0.00834479
0.00730104
0.00669767
0.0062941
0.0059918
0.00593852
0.00620711
0.00653576
0.00692628
0.00730103
0.00730104
0.00692628
0.00653576
0.00620712
0.00593852
0.00585506
0.00606927
0.00630633
0.00653576
0.00669766
0.00669766
0.00653576
0.00630634
0.00606927
0.00585506
0.00577585
0.00591462
0.00606927
0.00620711
0.0062941
0.0062941
0.00620711
0.00606927
0.00591462
0.00577586
0.00576413
0.00577585
0.00585506
0.00593852
0.0059918
0.0059918
0.00593852
0.00585506
0.00577586
0.00576413
0.00576421
0.00577571
0.00585468
0.00593796
0.00599113
0.00599113
0.00593796
0.00585469
0.00577571
0.00576421
0.00577571
0.00591406
0.00606829
0.0062058
0.00629262
0.00629262
0.00620581
0.00606829
0.00591407
0.00577571
0.00585468
0.00606828
0.0063047
0.00653361
0.00669524
0.00669524
0.00653362
0.00630471
0.00606829
0.00585469
0.00593796
0.0062058
0.00653361
0.00692337
0.00729767
0.00729768
0.00692339
0.00653362
0.00620581
0.00593796
0.00599113
0.00629261
0.00669523
0.00729766
0.00834066
0.00834069
0.00729768
0.00669524
0.00629262
0.00599114
0.00599113
0.00629261
0.00669523
0.00729766
0.00834064
0.00834068
0.00729768
0.00669524
0.00629262
0.00599114
0.00593795
0.0062058
0.0065336
0.00692337
0.00729766
0.00729767
0.00692338
0.00653361
0.00620581
0.00593796
0.00585468
0.00606828
0.0063047
0.00653361
0.00669523
0.00669523
0.00653361
0.00630471
0.00606829
0.00585468
0.00577571
0.00591406
0.00606828
0.0062058
0.00629261
0.00629261
0.0062058
0.00606829
0.00591407
0.00577571
0.0057642
0.00577571
0.00585468
0.00593796
0.00599113
0.00599113
0.00593796
0.00585468
0.00577571
0.00576421
0.00576369
0.00577503
0.00585386
0.00593703
0.00599014
0.00599015
0.00593703
0.00585387
0.00577503
0.0057637
0.00577503
0.00591313
0.00606714
0.00620449
0.00629121
0.00629121
0.00620449
0.00606714
0.00591314
0.00577503
0.00585386
0.00606714
0.00630323
0.00653188
0.00669336
0.00669336
0.00653189
0.00630324
0.00606715
0.00585387
0.00593702
0.00620449
0.00653187
0.00692125
0.00729528
0.00729529
0.00692127
0.00653189
0.0062045
0.00593703
0.00599014
0.0062912
0.00669335
0.00729526
0.00833773
0.00833779
0.00729529
0.00669336
0.00629121
0.00599015
0.00599014
0.0062912
0.00669334
0.00729526
0.00833771
0.00833776
0.00729529
0.00669336
0.00629121
0.00599015
0.00593702
0.00620448
0.00653187
0.00692124
0.00729526
0.00729527
0.00692126
0.00653188
0.00620449
0.00593703
0.00585386
0.00606713
0.00630323
0.00653187
0.00669335
0.00669335
0.00653188
0.00630324
0.00606714
0.00585386
0.00577502
0.00591313
0.00606713
0.00620448
0.0062912
0.00629121
0.00620449
0.00606714
0.00591314
0.00577503
0.00576369
0.00577502
0.00585386
0.00593702
0.00599014
0.00599014
0.00593703
0.00585386
0.00577503
0.0057637
0.00576372
0.00577499
0.00585377
0.00593689
0.00598998
0.00598998
0.00593689
0.00585378
0.005775
0.00576373
0.00577499
0.00591299
0.00606689
0.00620415
0.00629083
0.00629083
0.00620416
0.0060669
0.005913
0.005775
0.00585377
0.00606689
0.00630282
0.00653133
0.00669273
0.00669274
0.00653134
0.00630283
0.0060669
0.00585378
0.00593688
0.00620415
0.00653132
0.0069205
0.00729441
0.00729443
0.00692052
0.00653134
0.00620416
0.00593689
0.00598997
0.00629082
0.00669272
0.00729439
0.00833663
0.0083367
0.00729443
0.00669274
0.00629084
0.00598998
0.00598997
0.00629082
0.00669272
0.00729438
0.00833659
0.00833666
0.00729442
0.00669274
0.00629084
0.00598998
0.00593688
0.00620415
0.00653131
0.00692049
0.00729439
0.0072944
0.00692051
0.00653133
0.00620416
0.00593689
0.00585376
0.00606688
0.00630281
0.00653132
0.00669272
0.00669273
0.00653133
0.00630282
0.00606689
0.00585377
0.00577499
0.00591299
0.00606688
0.00620415
0.00629082
0.00629083
0.00620416
0.00606689
0.005913
0.005775
0.00576371
0.00577499
0.00585376
0.00593688
0.00598997
0.00598997
0.00593689
0.00585377
0.005775
0.00576372
0.00576358
0.00577482
0.00585355
0.00593665
0.00598972
0.00598972
0.00593665
0.00585356
0.00577483
0.00576359
0.00577482
0.00591275
0.00606659
0.00620381
0.00629047
0.00629047
0.00620382
0.0060666
0.00591277
0.00577483
0.00585355
0.00606659
0.00630243
0.00653087
0.00669224
0.00669225
0.00653089
0.00630245
0.0060666
0.00585357
0.00593664
0.00620381
0.00653087
0.00691994
0.00729378
0.00729381
0.00691998
0.00653089
0.00620383
0.00593665
0.00598971
0.00629045
0.00669223
0.00729376
0.00833584
0.00833594
0.00729381
0.00669226
0.00629047
0.00598973
0.00598971
0.00629045
0.00669222
0.00729375
0.00833579
0.00833589
0.0072938
0.00669225
0.00629047
0.00598973
0.00593664
0.0062038
0.00653086
0.00691993
0.00729376
0.00729378
0.00691996
0.00653088
0.00620382
0.00593665
0.00585355
0.00606658
0.00630242
0.00653086
0.00669223
0.00669224
0.00653088
0.00630244
0.0060666
0.00585356
0.00577481
0.00591274
0.00606658
0.0062038
0.00629045
0.00629046
0.00620381
0.00606659
0.00591276
0.00577482
0.00576358
0.00577481
0.00585355
0.00593664
0.00598971
0.00598972
0.00593665
0.00585356
0.00577482
0.00576359
0.00576359
0.00577481
0.00585353
0.00593661
0.00598968
0.00598968
0.00593662
0.00585354
0.00577482
0.0057636
0.00577481
0.00591271
0.00606652
0.00620372
0.00629037
0.00629037
0.00620374
0.00606654
0.00591273
0.00577482
0.00585353
0.00606652
0.00630232
0.00653073
0.00669208
0.00669209
0.00653075
0.00630235
0.00606654
0.00585354
0.0059366
0.00620372
0.00653072
0.00691975
0.00729356
0.00729358
0.00691979
0.00653075
0.00620374
0.00593662
0.00598967
0.00629035
0.00669206
0.00729352
0.00833554
0.00833568
0.0072936
0.0066921
0.00629038
0.00598969
0.00598967
0.00629035
0.00669205
0.00729351
0.00833548
0.00833561
0.00729358
0.00669209
0.00629038
0.00598968
0.0059366
0.00620371
0.00653071
0.00691973
0.00729352
0.00729355
0.00691976
0.00653074
0.00620373
0.00593661
0.00585352
0.00606651
0.00630231
0.00653071
0.00669206
0.00669207
0.00653073
0.00630233
0.00606653
0.00585354
0.0057748
0.00591271
0.00606651
0.00620371
0.00629035
0.00629036
0.00620373
0.00606653
0.00591272
0.00577481
0.00576359
0.0057748
0.00585352
0.0059366
0.00598967
0.00598967
0.00593661
0.00585353
0.00577481
0.0057636
0.00576356
0.00577476
0.00585347
0.00593655
0.00598961
0.00598962
0.00593656
0.00585349
0.00577478
0.00576357
0.00577476
0.00591265
0.00606644
0.00620364
0.00629027
0.00629028
0.00620365
0.00606647
0.00591267
0.00577478
0.00585347
0.00606644
0.00630222
0.00653061
0.00669196
0.00669197
0.00653064
0.00630225
0.00606647
0.00585349
0.00593654
0.00620363
0.0065306
0.0069196
0.00729339
0.00729343
0.00691965
0.00653064
0.00620366
0.00593656
0.0059896
0.00629025
0.00669193
0.00729335
0.00833533
0.0083355
0.00729344
0.00669198
0.00629029
0.00598962
0.0059896
0.00629025
0.00669192
0.00729333
0.00833525
0.00833541
0.00729342
0.00669197
0.00629028
0.00598962
0.00593653
0.00620362
0.00653059
0.00691957
0.00729335
0.00729338
0.00691962
0.00653063
0.00620365
0.00593655
0.00585347
0.00606643
0.00630221
0.00653059
0.00669193
0.00669194
0.00653062
0.00630223
0.00606645
0.00585348
0.00577476
0.00591264
0.00606643
0.00620362
0.00629026
0.00629026
0.00620364
0.00606645
0.00591266
0.00577477
0.00576355
0.00577476
0.00585347
0.00593654
0.0059896
0.00598961
0.00593655
0.00585348
0.00577477
0.00576356
0.00576356
0.00577476
0.00585347
0.00593654
0.0059896
0.00598961
0.00593655
0.00585348
0.00577478
0.00576357
0.00577476
0.00591264
0.00606643
0.00620361
0.00629025
0.00629026
0.00620363
0.00606645
0.00591266
0.00577478
0.00585347
0.00606642
0.00630219
0.00653057
0.00669191
0.00669193
0.0065306
0.00630222
0.00606645
0.00585348
0.00593653
0.0062036
0.00653056
0.00691954
0.00729334
0.00729338
0.0069196
0.00653061
0.00620363
0.00593655
0.00598959
0.00629023
0.00669188
0.00729328
0.00833525
0.00833544
0.00729339
0.00669194
0.00629026
0.00598961
0.00598959
0.00629022
0.00669187
0.00729327
0.00833515
0.00833534
0.00729337
0.00669193
0.00629026
0.00598961
0.00593652
0.00620359
0.00653055
0.00691952
0.00729328
0.00729332
0.00691957
0.00653059
0.00620362
0.00593654
0.00585346
0.00606641
0.00630218
0.00653055
0.00669188
0.0066919
0.00653058
0.00630221
0.00606644
0.00585347
0.00577475
0.00591263
0.00606642
0.0062036
0.00629023
0.00629024
0.00620361
0.00606644
0.00591265
0.00577477
0.00576355
0.00577475
0.00585346
0.00593653
0.00598959
0.00598959
0.00593654
0.00585347
0.00577477
0.00576356
0.00576355
0.00577475
0.00585345
0.00593652
0.00598958
0.00598959
0.00593653
0.00585347
0.00577476
0.00576356
0.00577475
0.00591262
0.00606641
0.00620359
0.00629022
0.00629023
0.00620361
0.00606643
0.00591265
0.00577476
0.00585345
0.0060664
0.00630216
0.00653054
0.00669188
0.0066919
0.00653057
0.0063022
0.00606643
0.00585347
0.00593651
0.00620358
0.00653053
0.0069195
0.00729329
0.00729334
0.00691957
0.00653058
0.00620361
0.00593653
0.00598957
0.0062902
0.00669184
0.00729324
0.00833519
0.0083354
0.00729335
0.00669191
0.00629024
0.00598959
0.00598957
0.0062902
0.00669184
0.00729322
0.00833508
0.00833529
0.00729333
0.0066919
0.00629023
0.00598959
0.00593651
0.00620357
0.00653051
0.00691947
0.00729323
0.00729327
0.00691953
0.00653056
0.0062036
0.00593653
0.00585345
0.00606639
0.00630215
0.00653052
0.00669185
0.00669186
0.00653055
0.00630218
0.00606642
0.00585346
0.00577474
0.00591262
0.0060664
0.00620357
0.0062902
0.00629021
0.00620359
0.00606641
0.00591263
0.00577475
0.00576355
0.00577474
0.00585345
0.00593651
0.00598957
0.00598958
0.00593652
0.00585346
0.00577475
0.00576355
0.00576355
0.00577475
0.00585345
0.00593652
0.00598958
0.00598958
0.00593653
0.00585347
0.00577476
0.00576356
0.00577475
0.00591262
0.0060664
0.00620358
0.00629022
0.00629022
0.0062036
0.00606642
0.00591264
0.00577476
0.00585345
0.0060664
0.00630216
0.00653053
0.00669187
0.00669189
0.00653056
0.00630219
0.00606642
0.00585347
0.00593651
0.00620357
0.00653052
0.00691949
0.00729328
0.00729332
0.00691956
0.00653057
0.0062036
0.00593653
0.00598957
0.00629019
0.00669183
0.00729322
0.00833517
0.00833539
0.00729334
0.0066919
0.00629023
0.00598959
0.00598957
0.00629019
0.00669182
0.0072932
0.00833505
0.00833527
0.00729332
0.00669189
0.00629023
0.00598958
0.00593651
0.00620356
0.0065305
0.00691946
0.00729322
0.00729326
0.00691952
0.00653055
0.00620359
0.00593652
0.00585345
0.00606639
0.00630214
0.00653051
0.00669184
0.00669185
0.00653054
0.00630217
0.00606641
0.00585346
0.00577474
0.00591262
0.00606639
0.00620357
0.0062902
0.0062902
0.00620358
0.00606641
0.00591263
0.00577475
0.00576355
0.00577474
0.00585345
0.00593651
0.00598957
0.00598957
0.00593652
0.00585346
0.00577475
0.00576355
0.00576355
0.00577474
0.00585345
0.00593651
0.00598957
0.00598958
0.00593652
0.00585346
0.00577475
0.00576355
0.00577475
0.00591262
0.0060664
0.00620358
0.00629021
0.00629022
0.00620359
0.00606642
0.00591263
0.00577475
0.00585345
0.00606639
0.00630215
0.00653052
0.00669186
0.00669187
0.00653055
0.00630218
0.00606642
0.00585346
0.00593651
0.00620357
0.00653051
0.00691948
0.00729326
0.00729331
0.00691954
0.00653056
0.0062036
0.00593652
0.00598957
0.00629019
0.00669182
0.00729321
0.00833515
0.00833537
0.00729333
0.00669189
0.00629022
0.00598958
0.00598956
0.00629019
0.00669182
0.00729319
0.00833504
0.00833526
0.0072933
0.00669188
0.00629022
0.00598958
0.00593651
0.00620356
0.0065305
0.00691945
0.00729321
0.00729325
0.00691951
0.00653054
0.00620359
0.00593652
0.00585345
0.00606639
0.00630214
0.0065305
0.00669183
0.00669184
0.00653053
0.00630216
0.00606641
0.00585345
0.00577474
0.00591261
0.00606639
0.00620356
0.00629019
0.0062902
0.00620358
0.0060664
0.00591262
0.00577475
0.00576355
0.00577474
0.00585344
0.00593651
0.00598957
0.00598957
0.00593651
0.00585345
0.00577475
0.00576355
0.00576355
0.00577474
0.00585345
0.00593651
0.00598957
0.00598958
0.00593652
0.00585345
0.00577475
0.00576355
0.00577475
0.00591262
0.0060664
0.00620357
0.0062902
0.00629021
0.00620359
0.00606641
0.00591263
0.00577475
0.00585345
0.0060664
0.00630215
0.00653052
0.00669185
0.00669187
0.00653055
0.00630217
0.00606641
0.00585345
0.00593651
0.00620357
0.00653051
0.00691948
0.00729326
0.0072933
0.00691953
0.00653055
0.00620359
0.00593652
0.00598957
0.00629019
0.00669182
0.00729321
0.00833515
0.00833535
0.00729331
0.00669188
0.00629022
0.00598958
0.00598957
0.00629019
0.00669182
0.00729319
0.00833506
0.00833525
0.00729329
0.00669187
0.00629021
0.00598958
0.00593651
0.00620356
0.0065305
0.00691946
0.00729321
0.00729325
0.0069195
0.00653053
0.00620358
0.00593651
0.00585345
0.00606639
0.00630214
0.0065305
0.00669183
0.00669184
0.00653053
0.00630216
0.0060664
0.00585345
0.00577475
0.00591262
0.00606639
0.00620357
0.00629019
0.0062902
0.00620358
0.0060664
0.00591262
0.00577475
0.00576355
0.00577475
0.00585345
0.00593651
0.00598957
0.00598957
0.00593651
0.00585345
0.00577475
0.00576355
0.00576355
0.00577474
0.00585345
0.00593651
0.00598957
0.00598957
0.00593651
0.00585345
0.00577475
0.00576355
0.00577475
0.00591262
0.0060664
0.00620357
0.0062902
0.00629021
0.00620358
0.0060664
0.00591262
0.00577475
0.00585345
0.0060664
0.00630215
0.00653052
0.00669185
0.00669186
0.00653054
0.00630217
0.0060664
0.00585345
0.00593651
0.00620357
0.00653051
0.00691948
0.00729325
0.00729328
0.00691952
0.00653054
0.00620358
0.00593651
0.00598957
0.00629019
0.00669183
0.00729321
0.00833515
0.00833532
0.0072933
0.00669187
0.00629021
0.00598957
0.00598957
0.00629019
0.00669182
0.0072932
0.00833508
0.00833524
0.00729328
0.00669186
0.00629021
0.00598957
0.00593651
0.00620357
0.00653051
0.00691946
0.00729322
0.00729325
0.0069195
0.00653053
0.00620358
0.00593651
0.00585345
0.0060664
0.00630215
0.00653051
0.00669183
0.00669184
0.00653052
0.00630216
0.0060664
0.00585345
0.00577475
0.00591262
0.0060664
0.00620357
0.00629019
0.0062902
0.00620358
0.0060664
0.00591262
0.00577475
0.00576355
0.00577475
0.00585345
0.00593651
0.00598957
0.00598957
0.00593651
0.00585345
0.00577475
0.00576355
0.00576355
0.00577475
0.00585345
0.00593651
0.00598957
0.00598957
0.00593651
0.00585345
0.00577474
0.00576354
0.00577475
0.00591262
0.0060664
0.00620357
0.0062902
0.0062902
0.00620358
0.0060664
0.00591262
0.00577474
0.00585345
0.0060664
0.00630215
0.00653052
0.00669185
0.00669185
0.00653053
0.00630216
0.0060664
0.00585345
0.00593651
0.00620357
0.00653051
0.00691948
0.00729325
0.00729327
0.00691951
0.00653053
0.00620358
0.00593651
0.00598957
0.00629019
0.00669183
0.00729322
0.00833516
0.00833528
0.00729328
0.00669186
0.0062902
0.00598957
0.00598957
0.00629019
0.00669183
0.00729322
0.00833512
0.00833523
0.00729327
0.00669186
0.0062902
0.00598957
0.00593651
0.00620357
0.00653051
0.00691947
0.00729323
0.00729325
0.0069195
0.00653053
0.00620358
0.00593651
0.00585345
0.0060664
0.00630215
0.00653051
0.00669184
0.00669184
0.00653052
0.00630216
0.0060664
0.00585345
0.00577475
0.00591262
0.0060664
0.00620357
0.0062902
0.0062902
0.00620358
0.0060664
0.00591262
0.00577475
0.00576355
0.00577475
0.00585345
0.00593651
0.00598957
0.00598957
0.00593651
0.00585345
0.00577475
0.00576355
0.00576355
0.00577475
0.00585345
0.00593651
0.00598957
0.00598957
0.00593651
0.00585344
0.00577474
0.00576354
0.00577475
0.00591262
0.0060664
0.00620357
0.0062902
0.0062902
0.00620357
0.00606639
0.00591262
0.00577474
0.00585345
0.0060664
0.00630215
0.00653052
0.00669184
0.00669184
0.00653052
0.00630215
0.00606639
0.00585344
0.00593651
0.00620357
0.00653052
0.00691948
0.00729324
0.00729325
0.00691949
0.00653052
0.00620357
0.00593651
0.00598957
0.0062902
0.00669184
0.00729323
0.00833517
0.00833523
0.00729326
0.00669185
0.0062902
0.00598957
0.00598957
0.0062902
0.00669184
0.00729323
0.00833516
0.00833522
0.00729326
0.00669185
0.0062902
0.00598957
0.00593652
0.00620358
0.00653052
0.00691948
0.00729324
0.00729325
0.00691949
0.00653052
0.00620357
0.00593651
0.00585345
0.0060664
0.00630216
0.00653052
0.00669184
0.00669185
0.00653052
0.00630216
0.0060664
0.00585345
0.00577475
0.00591263
0.0060664
0.00620358
0.0062902
0.0062902
0.00620358
0.0060664
0.00591262
0.00577475
0.00576356
0.00577475
0.00585345
0.00593652
0.00598957
0.00598957
0.00593651
0.00585345
0.00577475
0.00576355
0.00576355
0.00577475
0.00585345
0.00593651
0.00598957
0.00598956
0.0059365
0.00585344
0.00577474
0.00576354
0.00577475
0.00591262
0.0060664
0.00620357
0.00629019
0.00629019
0.00620357
0.00606639
0.00591261
0.00577474
0.00585345
0.0060664
0.00630215
0.00653052
0.00669184
0.00669184
0.00653051
0.00630215
0.00606639
0.00585344
0.00593651
0.00620357
0.00653052
0.00691948
0.00729324
0.00729324
0.00691948
0.00653051
0.00620357
0.0059365
0.00598957
0.0062902
0.00669184
0.00729324
0.00833518
0.00833519
0.00729324
0.00669184
0.00629019
0.00598956
0.00598957
0.0062902
0.00669185
0.00729325
0.0083352
0.00833521
0.00729325
0.00669184
0.0062902
0.00598957
0.00593652
0.00620358
0.00653053
0.00691949
0.00729326
0.00729326
0.00691949
0.00653052
0.00620357
0.00593651
0.00585346
0.00606641
0.00630216
0.00653053
0.00669185
0.00669185
0.00653052
0.00630216
0.0060664
0.00585345
0.00577475
0.00591263
0.00606641
0.00620358
0.0062902
0.0062902
0.00620358
0.0060664
0.00591262
0.00577475
0.00576356
0.00577475
0.00585346
0.00593652
0.00598957
0.00598957
0.00593651
0.00585345
0.00577475
0.00576355
0.00576355
0.00577475
0.00585345
0.00593651
0.00598957
0.00598956
0.0059365
0.00585344
0.00577474
0.00576354
0.00577475
0.00591262
0.0060664
0.00620357
0.00629019
0.00629019
0.00620356
0.00606639
0.00591261
0.00577474
0.00585345
0.0060664
0.00630215
0.00653052
0.00669183
0.00669183
0.00653051
0.00630214
0.00606639
0.00585344
0.00593651
0.00620358
0.00653052
0.00691949
0.00729323
0.00729322
0.00691947
0.00653051
0.00620356
0.0059365
0.00598957
0.0062902
0.00669185
0.00729325
0.00833518
0.00833514
0.00729323
0.00669183
0.00629019
0.00598956
0.00598958
0.00629021
0.00669186
0.00729327
0.00833524
0.00833521
0.00729324
0.00669184
0.00629019
0.00598957
0.00593652
0.00620358
0.00653053
0.00691951
0.00729327
0.00729326
0.00691949
0.00653052
0.00620357
0.00593651
0.00585346
0.00606641
0.00630217
0.00653053
0.00669186
0.00669185
0.00653052
0.00630216
0.0060664
0.00585345
0.00577475
0.00591263
0.00606641
0.00620358
0.00629021
0.0062902
0.00620358
0.0060664
0.00591262
0.00577475
0.00576356
0.00577475
0.00585346
0.00593652
0.00598958
0.00598957
0.00593651
0.00585345
0.00577475
0.00576355
0.00576355
0.00577475
0.00585345
0.00593651
0.00598956
0.00598956
0.0059365
0.00585344
0.00577474
0.00576354
0.00577475
0.00591262
0.0060664
0.00620357
0.00629019
0.00629019
0.00620356
0.00606638
0.00591261
0.00577474
0.00585345
0.0060664
0.00630215
0.00653052
0.00669183
0.00669182
0.0065305
0.00630214
0.00606638
0.00585344
0.00593651
0.00620358
0.00653052
0.00691949
0.00729323
0.00729321
0.00691946
0.0065305
0.00620356
0.0059365
0.00598957
0.00629021
0.00669185
0.00729326
0.00833519
0.00833511
0.00729321
0.00669183
0.00629019
0.00598956
0.00598958
0.00629021
0.00669186
0.00729328
0.00833528
0.0083352
0.00729323
0.00669183
0.00629019
0.00598956
0.00593652
0.00620359
0.00653054
0.00691952
0.00729328
0.00729327
0.00691949
0.00653052
0.00620357
0.00593651
0.00585346
0.00606641
0.00630217
0.00653054
0.00669186
0.00669186
0.00653052
0.00630216
0.0060664
0.00585345
0.00577476
0.00591263
0.00606641
0.00620359
0.00629021
0.00629021
0.00620358
0.0060664
0.00591262
0.00577475
0.00576356
0.00577476
0.00585346
0.00593652
0.00598958
0.00598957
0.00593651
0.00585345
0.00577475
0.00576355
0.00576355
0.00577475
0.00585345
0.00593651
0.00598956
0.00598956
0.0059365
0.00585344
0.00577474
0.00576354
0.00577475
0.00591262
0.0060664
0.00620357
0.00629019
0.00629018
0.00620356
0.00606638
0.00591261
0.00577474
0.00585345
0.0060664
0.00630215
0.00653052
0.00669183
0.00669182
0.00653049
0.00630213
0.00606638
0.00585344
0.00593651
0.00620358
0.00653053
0.00691949
0.00729323
0.0072932
0.00691945
0.00653049
0.00620356
0.0059365
0.00598958
0.00629021
0.00669186
0.00729327
0.00833519
0.00833507
0.0072932
0.00669182
0.00629018
0.00598956
0.00598958
0.00629021
0.00669187
0.00729329
0.00833531
0.0083352
0.00729323
0.00669183
0.00629019
0.00598956
0.00593652
0.00620359
0.00653054
0.00691952
0.00729329
0.00729327
0.00691949