/*--------------------------------*- C++ -*----------------------------------*\
| =========                 |                                                 |
| \\      /  F ield         | OpenFOAM: The Open Source CFD Toolbox           |
|  \\    /   O peration     | Version:  2406                                  |
|   \\  /    A nd           | Website:  www.openfoam.com                      |
|    \\/     M anipulation  |                                                 |
\*---------------------------------------------------------------------------*/
FoamFile
{
    version     2.0;
    format      ascii;
    arch        "LSB;label=32;scalar=64";
    class       volSymmTensorField;
    location    "1.9";
    object      turbulenceProperties:R;
}
// * * * * * * * * * * * * * * * * * * * * * * * * * * * * * * * * * * * * * //

dimensions      [0 2 -2 0 0 0 0];

internalField   uniform (0 -0 -0 0 -0 0);

boundaryField
{
    walls
    {
        type            calculated;
        value           nonuniform List<symmTensor> 
2000
(
(-8.57814e-08 7.13915e-08 2.96519e-07 -5.45552e-08 -2.50416e-07 1.40337e-07)
(-1.48118e-07 9.04417e-08 4.6866e-07 -5.04315e-08 -2.88973e-07 1.9855e-07)
(-2.2472e-07 9.40331e-08 6.72753e-07 -3.32467e-08 -2.81247e-07 2.57967e-07)
(-2.95107e-07 7.27076e-08 8.52688e-07 -1.06402e-08 -2.06803e-07 3.05748e-07)
(-3.38005e-07 2.73266e-08 9.58424e-07 5.72803e-09 -7.62257e-08 3.32277e-07)
(-3.38005e-07 -2.73266e-08 9.58424e-07 5.72803e-09 7.62257e-08 3.32277e-07)
(-2.95107e-07 -7.27076e-08 8.52688e-07 -1.06402e-08 2.06803e-07 3.05748e-07)
(-2.2472e-07 -9.40331e-08 6.72753e-07 -3.32467e-08 2.81247e-07 2.57967e-07)
(-1.48118e-07 -9.04417e-08 4.6866e-07 -5.04315e-08 2.88973e-07 1.9855e-07)
(-8.57814e-08 -7.13915e-08 2.96519e-07 -5.45552e-08 2.50416e-07 1.40337e-07)
(-2.65059e-09 1.14305e-09 1.2721e-07 -1.93539e-10 -1.07006e-07 2.84413e-09)
(-4.96873e-09 8.57955e-10 1.94467e-07 2.50487e-10 -1.19432e-07 4.71825e-09)
(-6.63814e-09 9.81872e-10 2.78039e-07 -3.47563e-10 -1.15974e-07 6.9857e-09)
(-8.43987e-09 7.36469e-10 3.54163e-07 -5.23385e-10 -8.57648e-08 8.96326e-09)
(-9.51402e-09 3.15573e-10 3.9976e-07 -6.40896e-10 -3.1757e-08 1.01549e-08)
(-9.51402e-09 -3.15578e-10 3.9976e-07 -6.40897e-10 3.1757e-08 1.01549e-08)
(-8.43987e-09 -7.36472e-10 3.54163e-07 -5.23387e-10 8.57648e-08 8.96326e-09)
(-6.63814e-09 -9.81875e-10 2.78039e-07 -3.47566e-10 1.15974e-07 6.9857e-09)
(-4.96873e-09 -8.57956e-10 1.94467e-07 2.50485e-10 1.19432e-07 4.71825e-09)
(-2.65059e-09 -1.14305e-09 1.2721e-07 -1.9354e-10 1.07006e-07 2.84413e-09)
(-2.81689e-10 -9.75438e-12 4.46157e-08 -1.31544e-10 -3.74019e-08 4.13232e-10)
(-3.72024e-10 -6.89742e-11 6.64963e-08 -2.67714e-10 -4.07018e-08 6.39738e-10)
(-3.80578e-10 -1.55243e-11 9.44537e-08 -5.35559e-10 -3.93214e-08 9.16137e-10)
(-4.69093e-10 3.02535e-11 1.20767e-07 -6.88758e-10 -2.92194e-08 1.15785e-09)
(-5.5053e-10 2.5876e-11 1.36781e-07 -7.51491e-10 -1.08594e-08 1.30202e-09)
(-5.50529e-10 -2.58814e-11 1.36781e-07 -7.51492e-10 1.08594e-08 1.30202e-09)
(-4.69091e-10 -3.02579e-11 1.20767e-07 -6.88761e-10 2.92194e-08 1.15785e-09)
(-3.80576e-10 1.55216e-11 9.44537e-08 -5.35561e-10 3.93214e-08 9.16137e-10)
(-3.72021e-10 6.89729e-11 6.64963e-08 -2.67717e-10 4.07018e-08 6.39738e-10)
(-2.81687e-10 9.75413e-12 4.46156e-08 -1.31545e-10 3.74019e-08 4.13233e-10)
(-8.30189e-11 6.37112e-11 5.83154e-08 5.43394e-11 -4.89402e-08 2.86795e-11)
(-1.88712e-10 4.47487e-11 8.75601e-08 1.32436e-10 -5.36429e-08 5.62767e-11)
(-2.50157e-10 3.99118e-11 1.24419e-07 1.5692e-10 -5.18159e-08 9.32372e-11)
(-3.13401e-10 1.81124e-11 1.58663e-07 1.85726e-10 -3.83893e-08 1.27675e-10)
(-3.4375e-10 7.20234e-12 1.79367e-07 1.93299e-10 -1.42394e-08 1.50451e-10)
(-3.43748e-10 -7.21473e-12 1.79367e-07 1.93297e-10 1.42394e-08 1.50451e-10)
(-3.13396e-10 -1.81225e-11 1.58663e-07 1.85721e-10 3.83893e-08 1.27676e-10)
(-2.50151e-10 -3.99181e-11 1.24418e-07 1.56913e-10 5.18159e-08 9.32375e-11)
(-1.88707e-10 -4.47516e-11 8.75601e-08 1.3243e-10 5.36429e-08 5.6277e-11)
(-8.3015e-11 -6.37118e-11 5.83153e-08 5.43352e-11 4.89402e-08 2.86798e-11)
(-3.31125e-11 -1.0965e-11 4.54834e-08 -3.64878e-11 -3.81423e-08 6.96003e-11)
(-2.44102e-11 -1.21154e-11 6.79132e-08 -7.99447e-11 -4.15774e-08 1.04355e-10)
(-1.48658e-11 6.47102e-12 9.65369e-08 -1.29701e-10 -4.01948e-08 1.44567e-10)
(-2.74657e-11 1.82062e-11 1.23377e-07 -1.5138e-10 -2.98523e-08 1.78846e-10)
(-4.33592e-11 1.01389e-11 1.39698e-07 -1.55328e-10 -1.10917e-08 1.98687e-10)
(-4.33561e-11 -1.01587e-11 1.39698e-07 -1.55331e-10 1.10917e-08 1.98687e-10)
(-2.74577e-11 -1.82223e-11 1.23377e-07 -1.51389e-10 2.98523e-08 1.78846e-10)
(-1.48561e-11 -6.48097e-12 9.65368e-08 -1.29711e-10 4.01948e-08 1.44567e-10)
(-2.44012e-11 1.21108e-11 6.79131e-08 -7.99542e-11 4.15774e-08 1.04355e-10)
(-3.31067e-11 1.09641e-11 4.54833e-08 -3.64941e-11 3.81422e-08 6.96007e-11)
(-1.35353e-11 1.43583e-11 4.92585e-08 1.07429e-11 -4.13221e-08 2.79238e-12)
(-3.34182e-11 1.31825e-11 7.37445e-08 2.69986e-11 -4.51623e-08 6.41962e-12)
(-4.77022e-11 1.33109e-11 1.0488e-07 3.62714e-11 -4.36762e-08 1.14307e-11)
(-6.26366e-11 8.15501e-12 1.33993e-07 4.65857e-11 -3.24235e-08 1.6051e-11)
(-7.03252e-11 3.10155e-12 1.51669e-07 5.11316e-11 -1.20427e-08 1.91936e-11)
(-7.03198e-11 -3.13621e-12 1.51669e-07 5.1126e-11 1.20427e-08 1.91938e-11)
(-6.26226e-11 -8.18311e-12 1.33993e-07 4.65709e-11 3.24235e-08 1.60517e-11)
(-4.7685e-11 -1.33284e-11 1.0488e-07 3.62533e-11 4.36762e-08 1.14317e-11)
(-3.34025e-11 -1.31906e-11 7.37445e-08 2.69819e-11 4.51623e-08 6.42064e-12)
(-1.35251e-11 -1.43599e-11 4.92584e-08 1.07318e-11 4.13221e-08 2.79324e-12)
(-8.14116e-12 -3.03069e-12 4.60968e-08 -9.57613e-12 -3.8662e-08 1.77173e-11)
(-5.64367e-12 -3.25472e-12 6.89052e-08 -2.09211e-11 -4.21909e-08 2.65647e-11)
(-3.17143e-12 1.378e-12 9.80045e-08 -3.36796e-11 -4.08106e-08 3.6851e-11)
(-6.15538e-12 4.51045e-12 1.25283e-07 -3.94843e-11 -3.03164e-08 4.56397e-11)
(-1.01363e-11 2.50079e-12 1.41872e-07 -4.05837e-11 -1.12654e-08 5.072e-11)
(-1.01277e-11 -2.55598e-12 1.41872e-07 -4.05927e-11 1.12654e-08 5.07204e-11)
(-6.13309e-12 -4.55513e-12 1.25283e-07 -3.95078e-11 3.03164e-08 4.56408e-11)
(-3.14427e-12 -1.40573e-12 9.80044e-08 -3.37083e-11 4.08105e-08 3.68526e-11)
(-5.61889e-12 3.24185e-12 6.89051e-08 -2.09475e-11 4.21908e-08 2.65664e-11)
(-8.12526e-12 3.02819e-12 4.60967e-08 -9.59339e-12 3.86619e-08 1.77186e-11)
(-3.26391e-12 3.58603e-12 4.71024e-08 2.93628e-12 -3.95089e-08 3.27626e-13)
(-8.36654e-12 3.16666e-12 7.04565e-08 7.30469e-12 -4.31446e-08 1.06185e-12)
(-1.19565e-11 2.9579e-12 1.0022e-07 9.80202e-12 -4.1735e-08 2.15447e-12)
(-1.54779e-11 1.6219e-12 1.28099e-07 1.22739e-11 -3.09982e-08 3.20402e-12)
(-1.72038e-11 5.63902e-13 1.45044e-07 1.32609e-11 -1.15173e-08 3.94288e-12)
(-1.71904e-11 -6.50038e-13 1.45044e-07 1.32469e-11 1.15173e-08 3.94353e-12)
(-1.54431e-11 -1.69173e-12 1.28099e-07 1.22372e-11 3.09982e-08 3.20592e-12)
(-1.1914e-11 -3.00132e-12 1.0022e-07 9.75707e-12 4.17349e-08 2.15691e-12)
(-8.32768e-12 -3.18687e-12 7.04563e-08 7.2632e-12 4.31444e-08 1.06448e-12)
(-3.23887e-12 -3.58998e-12 4.71022e-08 2.90902e-12 3.95087e-08 3.29849e-13)
(-2.04686e-12 -8.20273e-13 4.62932e-08 -2.47415e-12 -3.88281e-08 4.52101e-12)
(-1.38128e-12 -8.95182e-13 6.92176e-08 -5.39895e-12 -4.23838e-08 6.78023e-12)
(-7.25297e-13 2.57686e-13 9.84584e-08 -8.69138e-12 -4.10006e-08 9.41668e-12)
(-1.44089e-12 1.06096e-12 1.25865e-07 -1.02389e-11 -3.04577e-08 1.16798e-11)
(-2.42597e-12 5.64577e-13 1.4253e-07 -1.05665e-11 -1.13177e-08 1.29924e-11)
(-2.40622e-12 -6.92154e-13 1.4253e-07 -1.05872e-11 1.13178e-08 1.29934e-11)
(-1.38938e-12 -1.16441e-12 1.25865e-07 -1.02932e-11 3.04576e-08 1.16826e-11)
(-6.62409e-13 -3.21991e-13 9.8458e-08 -8.75791e-12 4.10005e-08 9.42032e-12)
(-1.32386e-12 8.65279e-13 6.92172e-08 -5.46032e-12 4.23836e-08 6.78418e-12)
(-2.01014e-12 8.14482e-13 4.62929e-08 -2.51421e-12 3.88278e-08 4.52435e-12)
(-7.96169e-13 9.25003e-13 4.65596e-08 7.65306e-13 -3.90524e-08 3.08635e-14)
(-2.1125e-12 8.17991e-13 6.96283e-08 1.91951e-12 -4.26363e-08 1.92989e-13)
(-3.0497e-12 7.38933e-13 9.90447e-08 2.60572e-12 -4.12452e-08 4.43978e-13)
(-3.94751e-12 3.66527e-13 1.26609e-07 3.25755e-12 -3.0638e-08 6.89954e-13)
(-4.3715e-12 7.06937e-14 1.43369e-07 3.5044e-12 -1.13844e-08 8.67104e-13)
(-4.34416e-12 -2.47554e-13 1.43369e-07 3.47565e-12 1.13844e-08 8.68512e-13)
(-3.87616e-12 -5.10031e-13 1.26609e-07 3.18211e-12 3.06379e-08 6.94048e-13)
(-2.96255e-12 -8.28199e-13 9.90442e-08 2.5133e-12 4.1245e-08 4.49251e-13)
(-2.03288e-12 -8.59548e-13 6.96278e-08 1.83416e-12 4.26359e-08 1.98719e-13)
(-7.45402e-13 -9.33036e-13 4.65591e-08 7.0967e-13 3.9052e-08 3.57321e-14)
(-5.05337e-13 -2.16023e-13 4.63497e-08 -6.54902e-13 -3.88759e-08 1.16024e-12)
(-3.32882e-13 -2.3505e-13 6.9307e-08 -1.40673e-12 -4.2439e-08 1.73962e-12)
(-1.73367e-13 4.65787e-14 9.85877e-08 -2.24187e-12 -4.10547e-08 2.41524e-12)
(-3.58666e-13 2.26181e-13 1.2603e-07 -2.63666e-12 -3.04978e-08 2.99533e-12)
(-5.99943e-13 6.03451e-14 1.42716e-07 -2.73218e-12 -1.13326e-08 3.33212e-12)
(-5.64663e-13 -2.88865e-13 1.42716e-07 -2.76935e-12 1.13326e-08 3.33401e-12)
(-2.66624e-13 -4.11615e-13 1.26029e-07 -2.73421e-12 3.04976e-08 3.00083e-12)
(-6.10353e-14 -1.6186e-13 9.85869e-08 -2.3613e-12 4.10544e-08 2.42233e-12)
(-2.30356e-13 1.81409e-13 6.93062e-08 -1.51699e-12 4.24385e-08 1.74735e-12)
(-4.40591e-13 2.05775e-13 4.6349e-08 -7.26207e-13 3.88753e-08 1.1668e-12)
(-1.86946e-13 2.43526e-13 4.64203e-08 1.93879e-13 -3.89353e-08 -6.93314e-15)
(-5.42117e-13 2.12818e-13 6.94157e-08 5.13365e-13 -4.25058e-08 2.87527e-14)
(-8.05476e-13 1.68259e-13 9.87428e-08 7.18795e-13 -4.11194e-08 8.66813e-14)
(-1.04245e-12 3.53648e-14 1.26227e-07 8.97196e-13 -3.05454e-08 1.45255e-13)
(-1.13661e-12 -8.09719e-14 1.42938e-07 9.47537e-13 -1.13502e-08 1.89071e-13)
(-1.09567e-12 -1.8496e-13 1.42938e-07 9.04237e-13 1.13502e-08 1.91431e-13)
(-9.35574e-13 -2.51327e-13 1.26226e-07 7.8347e-13 3.05453e-08 1.52104e-13)
(-6.75046e-13 -3.02562e-13 9.87417e-08 5.79523e-13 4.1119e-08 9.55232e-14)
(-4.22941e-13 -2.75438e-13 6.94145e-08 3.84563e-13 4.25051e-08 3.83783e-14)
(-1.12172e-13 -2.55444e-13 4.64192e-08 1.10935e-13 3.89344e-08 1.23681e-15)
(-1.16652e-13 -5.47719e-14 4.63659e-08 -1.75828e-13 -3.88895e-08 2.9248e-13)
(-8.43667e-14 -6.3968e-14 6.93324e-08 -3.55364e-13 -4.24546e-08 4.39731e-13)
(-6.10139e-14 -1.41242e-14 9.86242e-08 -5.50864e-13 -4.107e-08 6.11878e-13)
(-1.12267e-13 -1.66666e-15 1.26076e-07 -6.48635e-13 -3.0509e-08 7.60903e-13)
(-1.59432e-13 -8.21714e-14 1.42769e-07 -6.89092e-13 -1.13367e-08 8.48524e-13)
(-1.17281e-13 -1.92707e-13 1.42768e-07 -7.33905e-13 1.13367e-08 8.51186e-13)
(-2.15173e-15 -2.21772e-13 1.26075e-07 -7.66456e-13 3.05088e-08 7.68608e-13)
(7.33171e-14 -1.24841e-13 9.86226e-08 -6.95131e-13 4.10693e-08 6.21814e-13)
(3.8561e-14 -1.00379e-15 6.93307e-08 -4.89082e-13 4.24536e-08 4.50521e-13)
(-4.03669e-14 4.25012e-14 4.63645e-08 -2.61236e-13 3.88883e-08 3.01603e-13)
(-3.92402e-14 6.46414e-14 4.63848e-08 5.03474e-14 -3.89055e-08 -1.11072e-14)
(-1.41926e-13 5.25739e-14 6.93615e-08 1.47367e-13 -4.24725e-08 -5.44069e-15)
(-2.24636e-13 2.1596e-14 9.86656e-08 2.1882e-13 -4.10873e-08 5.8159e-15)
(-2.87721e-13 -3.97169e-14 1.26129e-07 2.68788e-13 -3.05217e-08 1.89334e-14)
(-2.99377e-13 -9.78899e-14 1.42828e-07 2.69197e-13 -1.13414e-08 3.01797e-14)
(-2.63395e-13 -1.3855e-13 1.42827e-07 2.30574e-13 1.13414e-08 3.28214e-14)
(-1.93498e-13 -1.52999e-13 1.26127e-07 1.66953e-13 3.05214e-08 2.65452e-14)
(-1.09566e-13 -1.4169e-13 9.86636e-08 9.39726e-14 4.10865e-08 1.55935e-14)
(-3.58718e-14 -1.09261e-13 6.93594e-08 3.07574e-14 4.24712e-08 5.1144e-15)
(2.59089e-14 -7.53663e-14 4.6383e-08 -2.3684e-14 3.89039e-08 -2.22485e-15)
(-3.08813e-14 -1.55113e-14 4.6371e-08 -3.98376e-14 -3.88938e-08 7.0719e-14)
(-2.5696e-14 -2.15126e-14 6.93402e-08 -8.09332e-14 -4.24594e-08 1.06629e-13)
(-2.40316e-14 -1.91461e-14 9.86352e-08 -1.24724e-13 -4.10746e-08 1.48756e-13)
(-3.4821e-14 -2.77367e-14 1.2609e-07 -1.51119e-13 -3.05123e-08 1.8594e-13)
(-3.91356e-14 -5.93934e-14 1.42784e-07 -1.69441e-13 -1.13379e-08 2.08577e-13)
(-1.65762e-14 -9.14624e-14 1.42783e-07 -1.9417e-13 1.13379e-08 2.10747e-13)
(2.46761e-14 -9.6175e-14 1.26088e-07 -2.16833e-13 3.0512e-08 1.92157e-13)
(4.90118e-14 -5.86168e-14 9.86327e-08 -2.05681e-13 4.10736e-08 1.56669e-13)
(4.31622e-14 -1.6204e-14 6.93376e-08 -1.58256e-13 4.24579e-08 1.15094e-13)
(1.07579e-14 8.28581e-15 4.63687e-08 -8.85098e-14 3.88919e-08 7.77519e-14)
(-2.53201e-14 1.29283e-14 4.63761e-08 2.939e-14 -3.88981e-08 -4.06987e-15)
(-4.74398e-14 6.11264e-15 6.93481e-08 5.12327e-14 -4.24643e-08 -3.7929e-15)
(-6.09059e-14 -1.64552e-15 9.86465e-08 6.33462e-14 -4.10793e-08 -2.44028e-15)
(-6.95061e-14 -1.04881e-14 1.26104e-07 6.9887e-14 -3.05158e-08 -3.80914e-16)
(-7.04125e-14 -1.32614e-14 1.428e-07 6.83962e-14 -1.13392e-08 2.01636e-15)
(-6.72421e-14 -1.28628e-14 1.42799e-07 6.40128e-14 1.13392e-08 3.22936e-15)
(-6.01308e-14 -1.31552e-14 1.26102e-07 5.70685e-14 3.05153e-08 3.06234e-15)
(-4.8223e-14 -1.46586e-14 9.86436e-08 4.64011e-14 4.10782e-08 1.82185e-15)
(-3.18845e-14 -1.62676e-14 6.93452e-08 3.12274e-14 4.24625e-08 6.57141e-16)
(-1.61332e-14 -1.52679e-14 4.63736e-08 1.66424e-14 3.88961e-08 -5.0921e-16)
(-4.12524e-14 -1.1263e-14 4.63724e-08 1.81494e-14 -3.8895e-08 2.31031e-14)
(-2.79232e-14 -1.78906e-14 6.93425e-08 -5.31458e-15 -4.24608e-08 3.32378e-14)
(-5.74654e-15 -6.28877e-15 9.86385e-08 -3.89236e-14 -4.1076e-08 4.46701e-14)
(5.36624e-15 1.75349e-14 1.26094e-07 -5.92594e-14 -3.05133e-08 5.38931e-14)
(1.43314e-15 4.57129e-14 1.42789e-07 -6.05873e-14 -1.13383e-08 5.91541e-14)
(-1.62552e-14 6.36494e-14 1.42788e-07 -4.27591e-14 1.13383e-08 5.90143e-14)
(-3.91193e-14 6.76705e-14 1.26092e-07 -1.43528e-14 3.05129e-08 5.34721e-14)
(-5.75888e-14 5.64364e-14 9.86356e-08 1.3718e-14 4.10748e-08 4.38708e-14)
(-6.89761e-14 3.74343e-14 6.93395e-08 3.67553e-14 4.2459e-08 3.22208e-14)
(-6.53723e-14 1.40379e-14 4.63699e-08 4.34004e-14 3.88929e-08 2.19718e-14)
(-5.66264e-14 -6.46044e-15 4.63735e-08 4.75069e-14 -3.88959e-08 9.11947e-15)
(-4.57452e-14 -1.54355e-14 6.93442e-08 3.37516e-14 -4.24619e-08 1.19936e-14)
(-1.6269e-14 1.71672e-15 9.86411e-08 1.2526e-15 -4.1077e-08 1.50164e-14)
(4.06365e-16 4.001e-14 1.26098e-07 -1.65563e-14 -3.05142e-08 1.61499e-14)
(-5.92577e-15 9.51125e-14 1.42792e-07 -1.02e-14 -1.13386e-08 1.61258e-14)
(-4.18266e-14 1.33971e-13 1.42792e-07 2.74076e-14 1.13386e-08 1.4419e-14)
(-9.09467e-14 1.41125e-13 1.26096e-07 7.9632e-14 3.05137e-08 1.13146e-14)
(-1.23703e-13 1.06514e-13 9.86382e-08 1.15244e-13 4.10759e-08 8.45906e-15)
(-1.34817e-13 6.06257e-14 6.93414e-08 1.29945e-13 4.24602e-08 4.87187e-15)
(-1.07354e-13 1.34057e-14 4.63711e-08 1.04534e-13 3.88939e-08 2.81936e-15)
(-7.08353e-14 -1.39536e-14 4.6372e-08 5.02286e-14 -3.88947e-08 2.06067e-14)
(-4.92467e-14 -2.44784e-14 6.9342e-08 2.13911e-14 -4.24605e-08 2.78556e-14)
(-4.35897e-15 2.44236e-15 9.86382e-08 -3.1234e-14 -4.10758e-08 3.55929e-14)
(1.94731e-14 5.64725e-14 1.26094e-07 -5.92028e-14 -3.05133e-08 3.97297e-14)
(1.06168e-14 1.29406e-13 1.42789e-07 -5.11825e-14 -1.13383e-08 4.05656e-14)
(-3.69673e-14 1.78515e-13 1.42788e-07 -3.48262e-16 1.13383e-08 3.73155e-14)
(-1.01758e-13 1.87543e-13 1.26092e-07 7.11394e-14 3.05129e-08 3.06189e-14)
(-1.46565e-13 1.43304e-13 9.86357e-08 1.231e-13 4.10749e-08 2.34654e-14)
(-1.67264e-13 8.5784e-14 6.93396e-08 1.52309e-13 4.24591e-08 1.49548e-14)
(-1.35471e-13 2.3231e-14 4.63699e-08 1.26015e-13 3.8893e-08 9.45655e-15)
(-7.39111e-14 -1.17785e-14 4.63716e-08 5.4644e-14 -3.88943e-08 1.92671e-14)
(-5.41969e-14 -2.24062e-14 6.93416e-08 2.84622e-14 -4.24603e-08 2.57347e-14)
(-7.85449e-15 7.5973e-15 9.86377e-08 -2.4758e-14 -4.10756e-08 3.26125e-14)
(1.52085e-14 6.49796e-14 1.26094e-07 -5.06398e-14 -3.05132e-08 3.54314e-14)
(4.49715e-15 1.43194e-13 1.42788e-07 -3.94465e-14 -1.13383e-08 3.49494e-14)
(-4.71096e-14 1.94768e-13 1.42788e-07 1.66924e-14 1.13383e-08 3.04172e-14)
(-1.16116e-13 2.02745e-13 1.26092e-07 9.32895e-14 3.0513e-08 2.28263e-14)
(-1.61007e-13 1.51688e-13 9.86359e-08 1.45077e-13 4.10749e-08 1.59307e-14)
(-1.79974e-13 8.90201e-14 6.93398e-08 1.71759e-13 4.24592e-08 8.21478e-15)
(-1.39299e-13 2.14503e-14 4.63701e-08 1.35027e-13 3.88931e-08 4.27207e-15)
(-6.66761e-14 -1.11285e-14 4.63704e-08 4.42481e-14 -3.88934e-08 2.24281e-14)
(-4.68087e-14 -1.93479e-14 6.934e-08 1.64908e-14 -4.24593e-08 3.03179e-14)
(-2.48387e-15 1.24372e-14 9.86357e-08 -3.62769e-14 -4.10748e-08 3.87607e-14)
(1.66742e-14 6.74367e-14 1.26092e-07 -5.92972e-14 -3.05127e-08 4.2623e-14)
(4.19155e-15 1.38812e-13 1.42786e-07 -4.64839e-14 -1.13381e-08 4.22923e-14)
(-4.42397e-14 1.82708e-13 1.42786e-07 7.319e-15 1.13381e-08 3.69207e-14)
(-1.06303e-13 1.86954e-13 1.26091e-07 7.85173e-14 3.05125e-08 2.7786e-14)
(-1.44812e-13 1.38114e-13 9.86347e-08 1.25648e-13 4.10744e-08 1.91638e-14)
(-1.6158e-13 8.15098e-14 6.9339e-08 1.51641e-13 4.24587e-08 9.93956e-15)
(-1.22096e-13 1.9609e-14 4.63697e-08 1.17022e-13 3.88927e-08 5.07396e-15)
(-5.25285e-14 -7.44458e-15 4.63696e-08 3.19912e-14 -3.88927e-08 2.05373e-14)
(-3.6439e-14 -1.2232e-14 6.93389e-08 8.67189e-15 -4.24586e-08 2.77671e-14)
(-6.97209e-16 1.72197e-14 9.86343e-08 -3.47044e-14 -4.10743e-08 3.54016e-14)
(1.14701e-14 6.28065e-14 1.2609e-07 -5.01148e-14 -3.05124e-08 3.86447e-14)
(-1.59837e-15 1.18882e-13 1.42785e-07 -3.61868e-14 -1.1338e-08 3.77851e-14)
(-4.13662e-14 1.50026e-13 1.42785e-07 9.23936e-15 1.1338e-08 3.21268e-14)
(-8.92597e-14 1.49711e-13 1.2609e-07 6.61539e-14 3.05123e-08 2.31058e-14)
(-1.16181e-13 1.078e-13 9.86342e-08 1.01293e-13 4.10742e-08 1.48877e-14)
(-1.27198e-13 6.29744e-14 6.93388e-08 1.20591e-13 4.24586e-08 6.60751e-15)
(-9.16375e-14 1.3792e-14 4.63696e-08 8.90736e-14 3.88927e-08 2.56396e-15)
(-4.03612e-14 -5.26004e-15 4.63687e-08 2.13707e-14 -3.88919e-08 1.89905e-14)
(-2.7881e-14 -8.08563e-15 6.93376e-08 2.14691e-15 -4.24578e-08 2.57341e-14)
(-1.02596e-15 1.59309e-14 9.86327e-08 -3.16837e-14 -4.10736e-08 3.27097e-14)
(5.62393e-15 4.89339e-14 1.26088e-07 -4.1284e-14 -3.05119e-08 3.56601e-14)
(-5.25941e-15 8.68702e-14 1.42783e-07 -2.94412e-14 -1.13379e-08 3.47006e-14)
(-3.27626e-14 1.04948e-13 1.42783e-07 3.44555e-15 1.13379e-08 2.9317e-14)
(-6.37982e-14 1.02477e-13 1.26089e-07 4.28398e-14 3.0512e-08 2.09584e-14)
(-7.94515e-14 7.24056e-14 9.86335e-08 6.61524e-14 4.10739e-08 1.32991e-14)
(-8.67781e-14 4.29562e-14 6.93384e-08 8.09206e-14 4.24584e-08 5.85747e-15)
(-6.00354e-14 8.9578e-15 4.63695e-08 5.78993e-14 3.88925e-08 2.13603e-15)
(-3.58652e-14 -4.12931e-15 4.63679e-08 1.97738e-14 -3.88913e-08 1.60913e-14)
(-2.87813e-14 -8.55711e-15 6.93366e-08 6.9899e-15 -4.24572e-08 2.17914e-14)
(-9.68971e-15 6.36652e-15 9.86314e-08 -1.78915e-14 -4.10731e-08 2.75812e-14)
(-5.2091e-15 2.51276e-14 1.26087e-07 -2.46906e-14 -3.05116e-08 2.98997e-14)
(-1.01515e-14 4.72207e-14 1.42782e-07 -1.87741e-14 -1.13378e-08 2.89256e-14)
(-2.39853e-14 5.69839e-14 1.42782e-07 -3.12276e-16 1.13378e-08 2.42975e-14)
(-3.98977e-14 5.70688e-14 1.26088e-07 2.25648e-14 3.05119e-08 1.73329e-14)
(-4.75039e-14 4.08272e-14 9.86331e-08 3.65165e-14 4.10737e-08 1.09874e-14)
(-5.38764e-14 2.61276e-14 6.93383e-08 4.89458e-14 4.24582e-08 4.9306e-15)
(-3.67361e-14 5.22778e-15 4.63694e-08 3.49339e-14 3.88925e-08 1.80223e-15)
(-3.88384e-14 -4.75228e-15 4.63672e-08 2.51331e-14 -3.88907e-08 1.37053e-14)
(-3.70426e-14 -1.35863e-14 6.93356e-08 1.84102e-14 -4.24567e-08 1.86325e-14)
(-2.24631e-14 -8.62057e-15 9.86303e-08 -1.23281e-15 -4.10726e-08 2.36959e-14)
(-1.66389e-14 -2.22461e-15 1.26086e-07 -9.15591e-15 -3.05113e-08 2.57948e-14)
(-1.36742e-14 9.57518e-15 1.4278e-07 -1.15681e-14 -1.13377e-08 2.52422e-14)
(-1.56129e-14 1.69551e-14 1.42781e-07 -6.05059e-15 1.13377e-08 2.16635e-14)
(-2.12835e-14 2.3344e-14 1.26087e-07 5.14814e-15 3.05117e-08 1.61354e-14)
(-2.57075e-14 1.99716e-14 9.86326e-08 1.47686e-14 4.10735e-08 1.0939e-14)
(-3.44287e-14 1.65492e-14 6.9338e-08 2.86489e-14 4.24581e-08 5.77981e-15)
(-2.59817e-14 3.91678e-15 4.63693e-08 2.31693e-14 3.88924e-08 2.81243e-15)
(-4.06229e-14 -5.10918e-15 4.63667e-08 2.92877e-14 -3.88902e-08 1.13352e-14)
(-4.32763e-14 -1.74514e-14 6.93349e-08 2.77099e-14 -4.24562e-08 1.55665e-14)
(-3.15315e-14 -1.95274e-14 9.86293e-08 1.13754e-14 -4.10722e-08 2.01561e-14)
(-2.40776e-14 -2.07359e-14 1.26084e-07 1.79156e-15 -3.05111e-08 2.22861e-14)
(-1.55503e-14 -1.34503e-14 1.42779e-07 -6.83383e-15 -1.13376e-08 2.23841e-14)
(-1.08892e-14 -4.83284e-15 1.4278e-07 -9.03747e-15 1.13376e-08 1.99267e-14)
(-1.25449e-14 7.49712e-15 1.26087e-07 -3.12402e-15 3.05115e-08 1.56689e-14)
(-1.74215e-14 1.1883e-14 9.86322e-08 6.00716e-15 4.10733e-08 1.14143e-14)
(-2.9167e-14 1.38502e-14 6.93378e-08 2.23647e-14 4.24579e-08 6.8023e-15)
(-2.55622e-14 4.05386e-15 4.63692e-08 2.16949e-14 3.88923e-08 3.86728e-15)
(-3.02454e-14 -3.54188e-15 4.63662e-08 2.12262e-14 -3.88898e-08 9.01923e-15)
(-3.38134e-14 -1.34113e-14 6.93342e-08 2.11927e-14 -4.24558e-08 1.26208e-14)
(-2.52132e-14 -1.51654e-14 9.86285e-08 8.4165e-15 -4.10719e-08 1.67967e-14)
(-1.99548e-14 -1.66482e-14 1.26084e-07 8.5903e-16 -3.05108e-08 1.90957e-14)
(-1.32609e-14 -1.03016e-14 1.42778e-07 -6.57329e-15 -1.13376e-08 1.98342e-14)
(-1.00562e-14 -1.85005e-15 1.42779e-07 -8.30746e-15 1.13375e-08 1.83636e-14)
(-1.32659e-14 1.03742e-14 1.26086e-07 -1.79876e-15 3.05113e-08 1.50647e-14)
(-1.96127e-14 1.43635e-14 9.86317e-08 8.13965e-15 4.10731e-08 1.1473e-14)
(-3.19774e-14 1.52755e-14 6.93374e-08 2.48018e-14 4.24577e-08 7.17556e-15)
(-2.85717e-14 4.57519e-15 4.6369e-08 2.42567e-14 3.88921e-08 4.31505e-15)
(-5.70579e-16 1.46237e-15 4.63658e-08 -5.35977e-15 -3.88895e-08 5.93035e-15)
(-1.97366e-15 2.32458e-15 6.93337e-08 -6.65472e-15 -4.24555e-08 8.62837e-15)
(-1.5655e-16 8.19747e-15 9.86278e-08 -1.18061e-14 -4.10716e-08 1.19627e-14)
(-3.59248e-15 1.18386e-14 1.26083e-07 -1.06515e-14 -3.05106e-08 1.42439e-14)
(-7.40864e-15 1.60307e-14 1.42777e-07 -7.93134e-15 -1.13375e-08 1.534e-14)
(-1.19852e-14 1.84357e-14 1.42778e-07 -2.68785e-15 1.13375e-08 1.46731e-14)
(-1.83778e-14 2.19637e-14 1.26085e-07 6.16806e-15 3.05112e-08 1.22097e-14)
(-2.36543e-14 1.8722e-14 9.86312e-08 1.43457e-14 4.10729e-08 9.30858e-15)
(-3.18706e-14 1.50886e-14 6.93371e-08 2.62752e-14 4.24575e-08 5.59536e-15)
(-2.52857e-14 3.72904e-15 4.63688e-08 2.20878e-14 3.8892e-08 3.1979e-15)
(4.45803e-14 9.06152e-15 4.63656e-08 -4.58777e-14 -3.88893e-08 1.29746e-15)
(4.68739e-14 2.65493e-14 6.93334e-08 -4.93773e-14 -4.24553e-08 2.50337e-15)
(3.6628e-14 4.23626e-14 9.86274e-08 -4.07301e-14 -4.10714e-08 4.10218e-15)
(1.90296e-14 5.01948e-14 1.26082e-07 -2.48811e-14 -3.05105e-08 5.85144e-15)
(3.26839e-16 4.51154e-14 1.42777e-07 -7.2025e-15 -1.13375e-08 6.87566e-15)
(-1.15517e-14 3.31467e-14 1.42778e-07 4.58061e-15 1.13374e-08 6.97106e-15)
(-1.59431e-14 2.13747e-14 1.26085e-07 1.02636e-14 3.05111e-08 5.67947e-15)
(-1.41877e-14 1.06406e-14 9.86309e-08 1.02025e-14 4.10728e-08 3.98521e-15)
(-1.32173e-14 5.72193e-15 6.93369e-08 1.1512e-14 4.24574e-08 1.70531e-15)
(-4.60535e-15 -4.33337e-17 4.63687e-08 4.15901e-15 3.88919e-08 4.46342e-16)
(9.21855e-14 1.73185e-14 4.63657e-08 -8.6382e-14 -3.88894e-08 -5.80347e-15)
(9.30617e-14 4.9281e-14 6.93334e-08 -8.61289e-14 -4.24553e-08 -6.93285e-15)
(6.38843e-14 6.59191e-14 9.86273e-08 -5.58739e-14 -4.10714e-08 -8.0104e-15)
(3.11256e-14 6.506e-14 1.26082e-07 -2.38421e-14 -3.05105e-08 -7.2835e-15)
(3.7014e-15 3.67425e-14 1.42777e-07 2.78375e-15 -1.13375e-08 -6.48516e-15)
(-2.55092e-15 2.98642e-15 1.42778e-07 7.83582e-15 1.13374e-08 -5.2849e-15)
(9.76641e-15 -2.26224e-14 1.26085e-07 -5.21908e-15 3.0511e-08 -4.54733e-15)
(2.75694e-14 -2.89156e-14 9.86308e-08 -2.34115e-14 4.10728e-08 -4.15787e-15)
(4.07979e-14 -2.15199e-14 6.9337e-08 -3.69614e-14 4.24574e-08 -3.83654e-15)
(4.37474e-14 -8.31379e-15 4.63688e-08 -4.04429e-14 3.88919e-08 -3.30459e-15)
(1.25127e-13 2.30783e-14 4.6366e-08 -1.09203e-13 -3.88897e-08 -1.59233e-14)
(1.14888e-13 5.87615e-14 6.93339e-08 -9.45598e-14 -4.24556e-08 -2.03287e-14)
(6.13627e-14 5.73137e-14 9.86279e-08 -3.63965e-14 -4.10716e-08 -2.49662e-14)
(1.82285e-14 2.53776e-14 1.26083e-07 7.48509e-15 -3.05106e-08 -2.57136e-14)
(-1.4914e-15 -4.35489e-14 1.42777e-07 2.64366e-14 -1.13375e-08 -2.49452e-14)
(2.09959e-14 -1.03488e-13 1.42778e-07 8.76595e-16 1.13375e-08 -2.18725e-14)
(7.12257e-14 -1.33184e-13 1.26085e-07 -5.35114e-14 3.05111e-08 -1.77143e-14)
(1.1492e-13 -1.12822e-13 9.86312e-08 -1.00894e-13 4.10729e-08 -1.40263e-14)
(1.40542e-13 -7.17493e-14 6.93372e-08 -1.30827e-13 4.24576e-08 -9.71489e-15)
(1.24251e-13 -2.14876e-14 4.6369e-08 -1.17438e-13 3.88921e-08 -6.81256e-15)
(1.3181e-13 2.45138e-14 4.63669e-08 -1.03144e-13 -3.88904e-08 -2.86657e-14)
(9.72299e-14 4.73555e-14 6.93351e-08 -6.01319e-14 -4.24563e-08 -3.7098e-14)
(1.64017e-14 4.35236e-15 9.86293e-08 2.92131e-14 -4.10722e-08 -4.56147e-14)
(-2.80801e-14 -8.3946e-14 1.26084e-07 7.59772e-14 -3.05109e-08 -4.78971e-14)
(-1.82932e-14 -2.08606e-13 1.42779e-07 6.47766e-14 -1.13376e-08 -4.64834e-14)
(5.91499e-14 -2.93991e-13 1.42779e-07 -1.86374e-14 1.13376e-08 -4.05125e-14)
(1.68141e-13 -3.12056e-13 1.26086e-07 -1.36641e-13 3.05114e-08 -3.15003e-14)
(2.45022e-13 -2.39279e-13 9.86319e-08 -2.21519e-13 4.10732e-08 -2.35028e-14)
(2.80125e-13 -1.42332e-13 6.93378e-08 -2.65922e-13 4.24579e-08 -1.42028e-14)
(2.29565e-13 -3.83301e-14 4.63693e-08 -2.20733e-13 3.88924e-08 -8.83152e-15)
(1.10736e-13 2.0779e-14 4.63684e-08 -6.86763e-14 -3.88917e-08 -4.20592e-14)
(4.54565e-14 1.74093e-14 6.9337e-08 9.32715e-15 -4.24575e-08 -5.47836e-14)
(-5.85164e-14 -8.06411e-14 9.86316e-08 1.25659e-13 -4.10731e-08 -6.71428e-14)
(-9.46517e-14 -2.37106e-13 1.26087e-07 1.65659e-13 -3.05115e-08 -7.10076e-14)
(-4.05713e-14 -4.19489e-13 1.42781e-07 1.08974e-13 -1.13377e-08 -6.84027e-14)
(1.04798e-13 -5.23797e-13 1.42781e-07 -4.60035e-14 1.13378e-08 -5.87944e-14)
(2.79403e-13 -5.17814e-13 1.26088e-07 -2.35444e-13 3.05118e-08 -4.3959e-14)
(3.88641e-13 -3.79058e-13 9.8633e-08 -3.57595e-13 4.10737e-08 -3.10458e-14)
(4.28541e-13 -2.17419e-13 6.93384e-08 -4.12199e-13 4.24583e-08 -1.63424e-14)
(3.35305e-13 -5.48017e-14 4.63697e-08 -3.26593e-13 3.88927e-08 -8.71192e-15)
(7.10114e-14 1.32775e-14 4.63705e-08 -1.85761e-14 -3.88934e-08 -5.24353e-14)
(-2.03256e-14 -2.00968e-14 6.93397e-08 8.90651e-14 -4.24591e-08 -6.87395e-14)
(-1.34948e-13 -1.66907e-13 9.86348e-08 2.19044e-13 -4.10744e-08 -8.40959e-14)
(-1.55779e-13 -3.7832e-13 1.2609e-07 2.45159e-13 -3.05123e-08 -8.93805e-14)
(-5.88214e-14 -5.9913e-13 1.42784e-07 1.44272e-13 -1.1338e-08 -8.5451e-14)
(1.42248e-13 -7.08552e-13 1.42784e-07 -6.98703e-14 1.1338e-08 -7.2378e-14)
(3.64901e-13 -6.75175e-13 1.2609e-07 -3.12746e-13 3.05123e-08 -5.21553e-14)
(4.93292e-13 -4.80891e-13 9.86344e-08 -4.58418e-13 4.10743e-08 -3.48739e-14)
(5.32239e-13 -2.70036e-13 6.93392e-08 -5.16569e-13 4.24588e-08 -1.56704e-14)
(4.02157e-13 -6.47708e-14 4.637e-08 -3.95597e-13 3.8893e-08 -6.55966e-15)
(2.71569e-14 3.91354e-15 4.63729e-08 2.81479e-14 -3.88954e-08 -5.53048e-14)
(-6.8876e-14 -4.87329e-14 6.93429e-08 1.42161e-13 -4.2461e-08 -7.32849e-14)
(-1.72001e-13 -2.11726e-13 9.86386e-08 2.62158e-13 -4.1076e-08 -9.01579e-14)
(-1.75242e-13 -4.32607e-13 1.26094e-07 2.71958e-13 -3.05133e-08 -9.67158e-14)
(-5.88055e-14 -6.47225e-13 1.42788e-07 1.51056e-13 -1.13383e-08 -9.22509e-14)
(1.53541e-13 -7.4139e-13 1.42787e-07 -7.62492e-14 1.13383e-08 -7.72922e-14)
(3.7695e-13 -6.9118e-13 1.26092e-07 -3.2299e-13 3.05129e-08 -5.39608e-14)
(4.97324e-13 -4.82992e-13 9.86358e-08 -4.63193e-13 4.10749e-08 -3.41312e-14)
(5.29343e-13 -2.68353e-13 6.93398e-08 -5.16643e-13 4.24592e-08 -1.27002e-14)
(3.86511e-13 -6.12587e-14 4.63702e-08 -3.83313e-13 3.88932e-08 -3.19768e-15)
(-7.19731e-15 -4.6345e-15 4.63753e-08 5.42941e-14 -3.88974e-08 -4.70968e-14)
(-7.75621e-14 -5.54348e-14 6.93461e-08 1.41211e-13 -4.24629e-08 -6.36493e-14)
(-1.43064e-13 -1.84892e-13 9.86425e-08 2.22567e-13 -4.10776e-08 -7.95033e-14)
(-1.30903e-13 -3.48775e-13 1.26098e-07 2.17582e-13 -3.05143e-08 -8.66792e-14)
(-3.36017e-14 -4.9668e-13 1.42792e-07 1.16604e-13 -1.13385e-08 -8.30025e-14)
(1.24448e-13 -5.51177e-13 1.42791e-07 -5.54433e-14 1.13386e-08 -6.90046e-14)
(2.81981e-13 -5.03729e-13 1.26094e-07 -2.35199e-13 3.05134e-08 -4.67819e-14)
(3.58625e-13 -3.4429e-13 9.8637e-08 -3.30891e-13 4.10754e-08 -2.77335e-14)
(3.77553e-13 -1.90898e-13 6.93403e-08 -3.69647e-13 4.24595e-08 -7.90636e-15)
(2.60097e-13 -3.99667e-14 4.63702e-08 -2.605e-13 3.88932e-08 4.02837e-16)
(-2.34591e-14 -1.04953e-14 4.63771e-08 5.07917e-14 -3.88989e-08 -2.73326e-14)
(-3.73223e-14 -3.47782e-14 6.93485e-08 7.61794e-14 -4.24644e-08 -3.88571e-14)
(-4.24235e-14 -7.92027e-14 9.86456e-08 9.31907e-14 -4.10788e-08 -5.07672e-14)
(-2.04763e-14 -1.19483e-13 1.26102e-07 7.80236e-14 -3.05151e-08 -5.75474e-14)
(1.63383e-14 -1.42814e-13 1.42795e-07 3.98054e-14 -1.13388e-08 -5.61437e-14)
(5.40377e-14 -1.36725e-13 1.42793e-07 -7.55939e-15 1.13388e-08 -4.64783e-14)
(8.05205e-14 -1.1419e-13 1.26096e-07 -5.01028e-14 3.05139e-08 -3.04178e-14)
(8.03262e-14 -6.76335e-14 9.8638e-08 -6.42538e-14 4.10758e-08 -1.60723e-14)
(8.08666e-14 -3.93611e-14 6.93406e-08 -7.86252e-14 4.24597e-08 -2.24141e-15)
(2.96184e-14 -2.09295e-15 4.63701e-08 -3.28953e-14 3.88932e-08 3.27691e-15)
(-1.95988e-14 -1.20734e-14 4.63779e-08 1.92402e-14 -3.88996e-08 3.58642e-16)
(3.88758e-14 7.53569e-15 6.93497e-08 -3.57505e-14 -4.24651e-08 -3.12537e-15)
(1.02565e-13 7.88846e-14 9.86472e-08 -9.4272e-14 -4.10795e-08 -8.29272e-15)
(1.26775e-13 1.99436e-13 1.26104e-07 -1.13595e-13 -3.05155e-08 -1.31802e-14)
(7.68175e-14 3.3033e-13 1.42797e-07 -6.1988e-14 -1.13389e-08 -1.48295e-14)
(-4.32989e-14 4.05363e-13 1.42795e-07 5.54772e-14 1.13389e-08 -1.21783e-14)
(-1.82939e-13 3.88507e-13 1.26097e-07 1.89588e-13 3.05141e-08 -6.64885e-15)
(-2.75603e-13 2.84402e-13 9.86384e-08 2.76151e-13 4.1076e-08 -5.48622e-16)
(-2.9585e-13 1.52921e-13 6.93406e-08 2.92362e-13 4.24598e-08 3.48827e-15)
(-2.53518e-13 4.37627e-14 4.637e-08 2.48583e-13 3.8893e-08 4.9357e-15)
(1.9516e-15 -8.88595e-15 4.63774e-08 -3.04356e-14 -3.88991e-08 2.8484e-14)