/*--------------------------------*- C++ -*----------------------------------*\
| =========                 |                                                 |
| \\      /  F ield         | OpenFOAM: The Open Source CFD Toolbox           |
|  \\    /   O peration     | Version:  2406                                  |
|   \\  /    A nd           | Website:  www.openfoam.com                      |
|    \\/     M anipulation  |                                                 |
\*---------------------------------------------------------------------------*/
FoamFile
{
    version     2.0;
    format      ascii;
    arch        "LSB;label=32;scalar=64";
    class       volSymmTensorField;
    location    "1.9";
    object      turbulenceProperties:devReff;
}
// * * * * * * * * * * * * * * * * * * * * * * * * * * * * * * * * * * * * * //

dimensions      [0 2 -2 0 0 0 0];

internalField   nonuniform List<symmTensor> 
25000
(
(0.0299563 -0.0224532 -0.0712219 0.0299563 -0.0712219 -0.0599127)
(0.0517356 -0.0117214 -0.0452861 0.0323427 -0.0646243 -0.0840783)
(0.059272 -0.0064301 -0.0276441 0.0382213 -0.0555026 -0.0974933)
(0.0629759 -0.00293756 -0.0148553 0.0419235 -0.0491107 -0.104899)
(0.0645707 -0.00086912 -0.00466897 0.0437114 -0.0459723 -0.108282)
(0.0645707 0.000869121 0.00466897 0.0437114 -0.0459723 -0.108282)
(0.0629759 0.00293756 0.0148553 0.0419235 -0.0491107 -0.104899)
(0.059272 0.0064301 0.0276441 0.0382213 -0.0555026 -0.0974933)
(0.0517356 0.0117214 0.0452861 0.0323427 -0.0646243 -0.0840783)
(0.0299563 0.0224532 0.0712219 0.0299563 -0.0712219 -0.0599127)
(0.0323427 -0.0117214 -0.0646243 0.0517356 -0.0452861 -0.0840783)
(0.0533624 -0.00548257 -0.036388 0.0533624 -0.036388 -0.106725)
(0.0599938 -0.00298884 -0.0199665 0.0562603 -0.0302356 -0.116254)
(0.0628635 -0.00133092 -0.0100323 0.0578618 -0.0263915 -0.120725)
(0.0639856 -0.000367783 -0.0030529 0.0585799 -0.0245581 -0.122566)
(0.0639856 0.000367783 0.0030529 0.0585799 -0.0245581 -0.122566)
(0.0628635 0.00133092 0.0100323 0.0578618 -0.0263915 -0.120725)
(0.0599938 0.00298884 0.0199665 0.0562603 -0.0302356 -0.116254)
(0.0533624 0.00548257 0.036388 0.0533624 -0.036388 -0.106725)
(0.0323427 0.0117214 0.0646243 0.0517356 -0.0452861 -0.0840783)
(0.0382213 -0.0064301 -0.0555026 0.059272 -0.0276441 -0.0974933)
(0.0562603 -0.00298884 -0.0302356 0.0599938 -0.0199665 -0.116254)
(0.0618153 -0.0015802 -0.0158052 0.0618153 -0.0158052 -0.123631)
(0.0638589 -0.000657378 -0.00756055 0.0628412 -0.0135042 -0.1267)
(0.0645098 -0.000165327 -0.00223427 0.0632817 -0.0124685 -0.127792)
(0.0645098 0.000165327 0.00223426 0.0632817 -0.0124685 -0.127792)
(0.0638589 0.000657378 0.00756054 0.0628412 -0.0135042 -0.1267)
(0.0618153 0.0015802 0.0158052 0.0618153 -0.0158052 -0.123631)
(0.0562603 0.00298884 0.0302356 0.0599938 -0.0199665 -0.116254)
(0.0382213 0.0064301 0.0555026 0.059272 -0.0276441 -0.0974933)
(0.0419235 -0.00293756 -0.0491107 0.0629759 -0.0148553 -0.104899)
(0.0578618 -0.00133092 -0.0263915 0.0628635 -0.0100323 -0.120725)
(0.0628412 -0.000657378 -0.0135042 0.0638589 -0.00756054 -0.1267)
(0.0644339 -0.000235843 -0.00630023 0.0644339 -0.00630023 -0.128868)
(0.0648108 -4.81915e-05 -0.00183224 0.0646731 -0.00576759 -0.129484)
(0.0648108 4.81914e-05 0.00183224 0.0646731 -0.00576759 -0.129484)
(0.0644339 0.000235843 0.00630023 0.0644339 -0.00630023 -0.128868)
(0.0628412 0.000657378 0.0135042 0.0638589 -0.00756054 -0.1267)
(0.0578618 0.00133092 0.0263915 0.0628635 -0.0100323 -0.120725)
(0.0419235 0.00293756 0.0491107 0.0629759 -0.0148553 -0.104899)
(0.0437114 -0.00086912 -0.0459723 0.0645707 -0.00466897 -0.108282)
(0.0585799 -0.000367783 -0.0245581 0.0639856 -0.0030529 -0.122566)
(0.0632817 -0.000165327 -0.0124685 0.0645098 -0.00223426 -0.127792)
(0.0646731 -4.81915e-05 -0.00576759 0.0648108 -0.00183224 -0.129484)
(0.0649272 -6.30805e-06 -0.00166859 0.0649272 -0.00166859 -0.129854)
(0.0649272 6.30786e-06 0.00166859 0.0649272 -0.00166859 -0.129854)
(0.0646731 4.81913e-05 0.00576759 0.0648108 -0.00183224 -0.129484)
(0.0632817 0.000165327 0.0124685 0.0645098 -0.00223426 -0.127792)
(0.0585799 0.000367783 0.0245581 0.0639856 -0.0030529 -0.122566)
(0.0437114 0.00086912 0.0459723 0.0645707 -0.00466897 -0.108282)
(0.0437114 0.00086912 -0.0459723 0.0645707 0.00466897 -0.108282)
(0.0585799 0.000367783 -0.0245581 0.0639856 0.0030529 -0.122566)
(0.0632817 0.000165327 -0.0124685 0.0645098 0.00223427 -0.127792)
(0.0646731 4.81914e-05 -0.00576759 0.0648108 0.00183224 -0.129484)
(0.0649272 6.30784e-06 -0.00166859 0.0649272 0.00166859 -0.129854)
(0.0649272 -6.30813e-06 0.00166859 0.0649272 0.00166859 -0.129854)
(0.0646731 -4.81916e-05 0.00576759 0.0648108 0.00183224 -0.129484)
(0.0632817 -0.000165327 0.0124685 0.0645098 0.00223427 -0.127792)
(0.0585799 -0.000367783 0.0245581 0.0639856 0.0030529 -0.122566)
(0.0437114 -0.00086912 0.0459723 0.0645707 0.00466897 -0.108282)
(0.0419235 0.00293756 -0.0491107 0.0629759 0.0148553 -0.104899)
(0.0578618 0.00133092 -0.0263915 0.0628635 0.0100323 -0.120725)
(0.0628412 0.000657378 -0.0135042 0.0638589 0.00756054 -0.1267)
(0.0644339 0.000235843 -0.00630023 0.0644339 0.00630023 -0.128868)
(0.0648108 4.81913e-05 -0.00183224 0.0646731 0.00576759 -0.129484)
(0.0648108 -4.81917e-05 0.00183224 0.0646731 0.00576759 -0.129484)
(0.0644339 -0.000235843 0.00630023 0.0644339 0.00630023 -0.128868)
(0.0628412 -0.000657379 0.0135042 0.0638589 0.00756055 -0.1267)
(0.0578618 -0.00133092 0.0263915 0.0628635 0.0100323 -0.120725)
(0.0419235 -0.00293756 0.0491107 0.0629759 0.0148553 -0.104899)
(0.0382213 0.0064301 -0.0555026 0.059272 0.0276441 -0.0974933)
(0.0562603 0.00298884 -0.0302356 0.0599938 0.0199665 -0.116254)
(0.0618153 0.0015802 -0.0158052 0.0618153 0.0158052 -0.123631)
(0.0638589 0.000657378 -0.00756055 0.0628412 0.0135042 -0.1267)
(0.0645098 0.000165326 -0.00223427 0.0632817 0.0124685 -0.127792)
(0.0645098 -0.000165327 0.00223426 0.0632817 0.0124685 -0.127792)
(0.0638589 -0.000657379 0.00756054 0.0628412 0.0135042 -0.1267)
(0.0618153 -0.0015802 0.0158052 0.0618153 0.0158052 -0.123631)
(0.0562603 -0.00298884 0.0302356 0.0599938 0.0199665 -0.116254)
(0.0382213 -0.0064301 0.0555026 0.059272 0.0276441 -0.0974933)
(0.0323427 0.0117214 -0.0646243 0.0517356 0.0452861 -0.0840783)
(0.0533624 0.00548257 -0.036388 0.0533624 0.036388 -0.106725)
(0.0599938 0.00298884 -0.0199665 0.0562603 0.0302356 -0.116254)
(0.0628635 0.00133092 -0.0100323 0.0578618 0.0263915 -0.120725)
(0.0639856 0.000367783 -0.0030529 0.0585799 0.0245581 -0.122566)
(0.0639856 -0.000367783 0.0030529 0.0585799 0.0245581 -0.122566)
(0.0628635 -0.00133092 0.0100323 0.0578618 0.0263915 -0.120725)
(0.0599938 -0.00298884 0.0199665 0.0562603 0.0302356 -0.116254)
(0.0533624 -0.00548258 0.036388 0.0533624 0.036388 -0.106725)
(0.0323427 -0.0117214 0.0646243 0.0517356 0.0452861 -0.0840783)
(0.0299563 0.0224532 -0.0712219 0.0299563 0.0712219 -0.0599127)
(0.0517356 0.0117214 -0.0452861 0.0323427 0.0646243 -0.0840783)
(0.059272 0.0064301 -0.0276441 0.0382213 0.0555026 -0.0974933)
(0.0629759 0.00293756 -0.0148553 0.0419235 0.0491107 -0.104899)
(0.0645707 0.00086912 -0.00466897 0.0437114 0.0459723 -0.108282)
(0.0645707 -0.000869121 0.00466897 0.0437114 0.0459723 -0.108282)
(0.0629759 -0.00293756 0.0148553 0.0419235 0.0491107 -0.104899)
(0.059272 -0.0064301 0.0276441 0.0382213 0.0555026 -0.0974933)
(0.0517356 -0.0117214 0.0452861 0.0323427 0.0646243 -0.0840783)
(0.0299563 -0.0224532 0.0712219 0.0299563 0.0712219 -0.0599127)
(-0.000346201 -0.0176336 -0.109334 -0.0003462 -0.109334 0.000692401)
(0.0130362 -0.0158517 -0.0753241 0.00086482 -0.107229 -0.0139011)
(0.0225321 -0.0121473 -0.0477166 0.0029313 -0.0951952 -0.0254634)
(0.029799 -0.00758707 -0.0260272 0.00446531 -0.0852128 -0.0342643)
(0.0334956 -0.00254408 -0.00822169 0.0052911 -0.0798892 -0.0387867)
(0.0334956 0.00254409 0.00822169 0.00529111 -0.0798892 -0.0387867)
(0.029799 0.00758707 0.0260272 0.00446532 -0.0852128 -0.0342643)
(0.0225321 0.0121473 0.0477166 0.00293131 -0.0951952 -0.0254634)
(0.0130363 0.0158517 0.0753241 0.000864824 -0.107229 -0.0139011)
(-0.000346195 0.0176335 0.109334 -0.000346195 -0.109334 0.000692391)
(0.000864819 -0.0158517 -0.107229 0.0130362 -0.0753241 -0.0139011)
(0.0167974 -0.0142716 -0.0636985 0.0167974 -0.0636985 -0.0335948)
(0.0286922 -0.0106815 -0.0347538 0.0200798 -0.052638 -0.048772)
(0.0365378 -0.00647937 -0.0168852 0.0221462 -0.0444211 -0.058684)
(0.0401445 -0.00215617 -0.00499873 0.0231478 -0.0401318 -0.0632923)
(0.0401445 0.00215617 0.00499872 0.0231478 -0.0401318 -0.0632923)
(0.0365378 0.00647937 0.0168852 0.0221462 -0.0444211 -0.058684)
(0.0286922 0.0106815 0.0347538 0.0200798 -0.052638 -0.048772)
(0.0167974 0.0142716 0.0636985 0.0167974 -0.0636985 -0.0335948)
(0.000864824 0.0158517 0.107229 0.0130363 -0.0753241 -0.0139011)
(0.0029313 -0.0121473 -0.0951952 0.0225321 -0.0477166 -0.0254634)
(0.0200798 -0.0106815 -0.052638 0.0286922 -0.0347538 -0.048772)
(0.0326131 -0.00764458 -0.0257189 0.0326131 -0.0257189 -0.0652262)
(0.0398865 -0.00449384 -0.0110617 0.0346349 -0.0198743 -0.0745214)
(0.0430418 -0.00148017 -0.00300638 0.0355699 -0.0170116 -0.0786117)
(0.0430418 0.00148017 0.00300637 0.0355699 -0.0170116 -0.0786117)
(0.0398865 0.00449384 0.0110617 0.0346349 -0.0198743 -0.0745214)
(0.0326131 0.00764458 0.0257189 0.0326131 -0.0257189 -0.0652262)
(0.0200798 0.0106815 0.052638 0.0286922 -0.0347538 -0.048772)
(0.00293131 0.0121473 0.0951952 0.0225321 -0.0477166 -0.0254634)
(0.00446531 -0.00758707 -0.0852128 0.029799 -0.0260272 -0.0342643)
(0.0221462 -0.00647937 -0.0444211 0.0365378 -0.0168852 -0.058684)
(0.0346349 -0.00449384 -0.0198743 0.0398865 -0.0110617 -0.0745214)
(0.0415446 -0.00260287 -0.00758091 0.0415446 -0.0075809 -0.0830892)
(0.0445168 -0.000856458 -0.001842 0.0423564 -0.00592329 -0.0868732)
(0.0445168 0.000856458 0.00184199 0.0423564 -0.00592329 -0.0868732)
(0.0415446 0.00260287 0.0075809 0.0415446 -0.0075809 -0.0830892)
(0.0346349 0.00449384 0.0198743 0.0398865 -0.0110617 -0.0745214)
(0.0221462 0.00647937 0.0444211 0.0365378 -0.0168852 -0.058684)
(0.00446532 0.00758707 0.0852128 0.029799 -0.0260272 -0.0342643)
(0.0052911 -0.00254409 -0.0798892 0.0334956 -0.00822169 -0.0387867)
(0.0231478 -0.00215617 -0.0401318 0.0401445 -0.00499873 -0.0632923)
(0.0355699 -0.00148017 -0.0170116 0.0430418 -0.00300637 -0.0786117)
(0.0423564 -0.000856458 -0.0059233 0.0445168 -0.00184199 -0.0868732)
(0.0452763 -0.00028285 -0.00129195 0.0452763 -0.00129194 -0.0905526)
(0.0452763 0.00028285 0.00129194 0.0452763 -0.00129194 -0.0905526)
(0.0423564 0.000856458 0.00592329 0.0445168 -0.00184199 -0.0868732)
(0.0355699 0.00148017 0.0170116 0.0430418 -0.00300637 -0.0786117)
(0.0231478 0.00215617 0.0401318 0.0401445 -0.00499873 -0.0632923)
(0.00529111 0.00254409 0.0798892 0.0334956 -0.00822169 -0.0387867)
(0.0052911 0.00254409 -0.0798892 0.0334956 0.00822169 -0.0387867)
(0.0231478 0.00215617 -0.0401318 0.0401445 0.00499873 -0.0632923)
(0.0355699 0.00148017 -0.0170116 0.0430418 0.00300638 -0.0786117)
(0.0423564 0.000856458 -0.0059233 0.0445168 0.00184199 -0.0868732)
(0.0452763 0.00028285 -0.00129195 0.0452763 0.00129194 -0.0905526)
(0.0452763 -0.00028285 0.00129194 0.0452763 0.00129194 -0.0905526)
(0.0423564 -0.000856458 0.00592329 0.0445168 0.00184199 -0.0868732)
(0.0355699 -0.00148017 0.0170116 0.0430418 0.00300638 -0.0786117)
(0.0231478 -0.00215617 0.0401318 0.0401445 0.00499873 -0.0632923)
(0.00529111 -0.00254409 0.0798892 0.0334956 0.00822169 -0.0387867)
(0.00446531 0.00758707 -0.0852128 0.029799 0.0260272 -0.0342643)
(0.0221462 0.00647937 -0.0444211 0.0365378 0.0168852 -0.058684)
(0.0346349 0.00449384 -0.0198743 0.0398865 0.0110617 -0.0745214)
(0.0415446 0.00260287 -0.00758091 0.0415446 0.00758091 -0.0830892)
(0.0445168 0.000856458 -0.001842 0.0423564 0.00592329 -0.0868732)
(0.0445168 -0.000856459 0.00184199 0.0423564 0.00592329 -0.0868732)
(0.0415446 -0.00260287 0.0075809 0.0415446 0.00758091 -0.0830892)
(0.0346349 -0.00449384 0.0198743 0.0398865 0.0110617 -0.0745214)
(0.0221462 -0.00647937 0.0444211 0.0365378 0.0168852 -0.058684)
(0.00446532 -0.00758707 0.0852128 0.029799 0.0260272 -0.0342643)
(0.0029313 0.0121473 -0.0951952 0.0225321 0.0477166 -0.0254634)
(0.0200798 0.0106815 -0.052638 0.0286922 0.0347538 -0.048772)
(0.0326131 0.00764458 -0.0257189 0.0326131 0.0257189 -0.0652262)
(0.0398865 0.00449384 -0.0110617 0.0346349 0.0198743 -0.0745214)
(0.0430418 0.00148017 -0.00300638 0.0355699 0.0170116 -0.0786117)
(0.0430418 -0.00148017 0.00300637 0.0355699 0.0170116 -0.0786117)
(0.0398865 -0.00449384 0.0110617 0.0346349 0.0198743 -0.0745214)
(0.0326131 -0.00764458 0.0257189 0.0326131 0.0257189 -0.0652262)
(0.0200798 -0.0106815 0.052638 0.0286922 0.0347538 -0.048772)
(0.0029313 -0.0121473 0.0951952 0.0225321 0.0477166 -0.0254634)
(0.000864817 0.0158517 -0.107229 0.0130362 0.0753241 -0.0139011)
(0.0167974 0.0142716 -0.0636985 0.0167974 0.0636985 -0.0335948)
(0.0286922 0.0106815 -0.0347538 0.0200798 0.052638 -0.048772)
(0.0365378 0.00647937 -0.0168852 0.0221462 0.0444211 -0.058684)
(0.0401445 0.00215617 -0.00499873 0.0231478 0.0401318 -0.0632923)
(0.0401445 -0.00215617 0.00499872 0.0231478 0.0401318 -0.0632923)
(0.0365378 -0.00647937 0.0168852 0.0221462 0.0444211 -0.058684)
(0.0286922 -0.0106815 0.0347538 0.0200798 0.052638 -0.048772)
(0.0167974 -0.0142716 0.0636985 0.0167974 0.0636985 -0.0335948)
(0.000864823 -0.0158517 0.107229 0.0130362 0.0753241 -0.0139011)
(-0.000346203 0.0176336 -0.109334 -0.000346203 0.109334 0.000692406)
(0.0130362 0.0158517 -0.0753241 0.000864817 0.107229 -0.0139011)
(0.0225321 0.0121473 -0.0477166 0.0029313 0.0951952 -0.0254634)
(0.029799 0.00758707 -0.0260272 0.00446531 0.0852128 -0.0342643)
(0.0334956 0.00254408 -0.00822169 0.0052911 0.0798892 -0.0387867)
(0.0334956 -0.00254409 0.00822169 0.0052911 0.0798892 -0.0387867)
(0.029799 -0.00758707 0.0260272 0.00446531 0.0852128 -0.0342643)
(0.0225321 -0.0121473 0.0477166 0.0029313 0.0951952 -0.0254634)
(0.0130363 -0.0158517 0.0753241 0.000864821 0.107229 -0.0139011)
(-0.000346197 -0.0176336 0.109334 -0.000346199 0.109334 0.000692396)
(-0.00822231 -0.015605 -0.149044 -0.0082223 -0.149044 0.0164446)
(0.00155588 -0.0119025 -0.115965 -0.00932374 -0.1594 0.00776786)
(0.00737391 -0.00905233 -0.0805688 -0.00845934 -0.15371 0.00108543)
(0.012009 -0.00568153 -0.0470853 -0.00775271 -0.146888 -0.00425626)
(0.0145489 -0.00192838 -0.0154482 -0.00736474 -0.142943 -0.00718414)
(0.0145489 0.00192839 0.0154482 -0.00736474 -0.142943 -0.00718414)
(0.012009 0.00568154 0.0470853 -0.0077527 -0.146888 -0.00425627)
(0.00737392 0.00905233 0.0805688 -0.00845934 -0.15371 0.00108542)
(0.00155589 0.0119025 0.115965 -0.00932374 -0.1594 0.00776784)
(-0.0082223 0.015605 0.149044 -0.0082223 -0.149044 0.0164446)
(-0.00932375 -0.0119025 -0.1594 0.00155588 -0.115965 0.00776786)
(0.00210198 -0.00974299 -0.111467 0.00210198 -0.111467 -0.00420396)
(0.00979741 -0.00760092 -0.0712786 0.00392891 -0.103807 -0.0137263)
(0.0157401 -0.0048034 -0.0395886 0.00531028 -0.0973344 -0.0210504)
(0.0189157 -0.00163843 -0.012678 0.00606767 -0.0938082 -0.0249834)
(0.0189157 0.00163843 0.012678 0.00606767 -0.0938082 -0.0249834)
(0.0157401 0.0048034 0.0395886 0.00531029 -0.0973344 -0.0210504)
(0.00979741 0.00760092 0.0712786 0.00392892 -0.103807 -0.0137263)
(0.00210199 0.00974299 0.111467 0.00210199 -0.111467 -0.00420397)
(-0.00932374 0.0119025 0.1594 0.00155589 -0.115965 0.00776784)
(-0.00845935 -0.00905233 -0.15371 0.00737391 -0.0805688 0.00108544)
(0.00392891 -0.00760092 -0.103807 0.00979741 -0.0712786 -0.0137263)
(0.0129933 -0.0058286 -0.0642861 0.0129933 -0.0642861 -0.0259865)
(0.019844 -0.00363425 -0.0347085 0.0153284 -0.0594814 -0.0351725)
(0.0234341 -0.00123485 -0.0109292 0.0165644 -0.0569944 -0.0399985)
(0.0234341 0.00123485 0.0109292 0.0165644 -0.0569944 -0.0399985)
(0.019844 0.00363425 0.0347084 0.0153284 -0.0594814 -0.0351725)
(0.0129933 0.0058286 0.0642861 0.0129933 -0.0642861 -0.0259865)
(0.00392892 0.00760092 0.103807 0.00979741 -0.0712786 -0.0137263)
(-0.00845933 0.00905233 0.15371 0.00737392 -0.0805688 0.00108542)
(-0.00775271 -0.00568153 -0.146888 0.012009 -0.0470853 -0.00425625)
(0.00531028 -0.0048034 -0.0973345 0.0157401 -0.0395886 -0.0210503)
(0.0153284 -0.00363425 -0.0594815 0.019844 -0.0347085 -0.0351725)
(0.0227443 -0.0022457 -0.0316164 0.0227443 -0.0316164 -0.0454885)
(0.0265163 -0.000760715 -0.00984183 0.0241648 -0.0300466 -0.050681)
(0.0265163 0.000760716 0.00984182 0.0241648 -0.0300466 -0.050681)
(0.0227443 0.0022457 0.0316164 0.0227443 -0.0316164 -0.0454885)
(0.0153284 0.00363425 0.0594814 0.019844 -0.0347084 -0.0351725)
(0.00531029 0.0048034 0.0973344 0.0157401 -0.0395886 -0.0210504)
(-0.0077527 0.00568153 0.146888 0.012009 -0.0470853 -0.00425627)
(-0.00736475 -0.00192839 -0.142943 0.0145489 -0.0154482 -0.00718413)
(0.00606767 -0.00163843 -0.0938082 0.0189157 -0.012678 -0.0249834)
(0.0165644 -0.00123485 -0.0569944 0.0234341 -0.0109292 -0.0399985)
(0.0241648 -0.000760716 -0.0300467 0.0265163 -0.00984182 -0.050681)
(0.0279116 -0.000257713 -0.00929825 0.0279116 -0.00929824 -0.0558232)
(0.0279116 0.000257712 0.00929823 0.0279116 -0.00929824 -0.0558232)
(0.0241648 0.000760715 0.0300466 0.0265163 -0.00984182 -0.050681)
(0.0165644 0.00123485 0.0569944 0.0234341 -0.0109292 -0.0399985)
(0.00606768 0.00163843 0.0938082 0.0189157 -0.012678 -0.0249834)
(-0.00736473 0.00192839 0.142943 0.0145489 -0.0154482 -0.00718415)
(-0.00736475 0.00192839 -0.142943 0.0145489 0.0154482 -0.00718413)
(0.00606767 0.00163843 -0.0938082 0.0189157 0.012678 -0.0249834)
(0.0165644 0.00123485 -0.0569944 0.0234341 0.0109292 -0.0399985)
(0.0241648 0.000760715 -0.0300467 0.0265163 0.00984183 -0.050681)
(0.0279116 0.000257712 -0.00929825 0.0279116 0.00929824 -0.0558232)
(0.0279116 -0.000257713 0.00929823 0.0279116 0.00929824 -0.0558232)
(0.0241648 -0.000760716 0.0300466 0.0265163 0.00984183 -0.050681)
(0.0165644 -0.00123485 0.0569944 0.0234341 0.0109292 -0.0399985)
(0.00606768 -0.00163843 0.0938082 0.0189157 0.012678 -0.0249834)
(-0.00736473 -0.00192839 0.142943 0.0145489 0.0154482 -0.00718414)
(-0.00775271 0.00568153 -0.146888 0.012009 0.0470853 -0.00425625)
(0.00531028 0.0048034 -0.0973345 0.0157401 0.0395886 -0.0210503)
(0.0153284 0.00363425 -0.0594815 0.019844 0.0347085 -0.0351724)
(0.0227443 0.0022457 -0.0316164 0.0227443 0.0316164 -0.0454885)
(0.0265163 0.000760714 -0.00984183 0.0241648 0.0300467 -0.050681)
(0.0265163 -0.000760716 0.00984182 0.0241648 0.0300466 -0.050681)
(0.0227443 -0.0022457 0.0316164 0.0227443 0.0316164 -0.0454885)
(0.0153284 -0.00363425 0.0594814 0.019844 0.0347085 -0.0351725)
(0.00531029 -0.0048034 0.0973344 0.0157401 0.0395886 -0.0210504)
(-0.0077527 -0.00568153 0.146888 0.012009 0.0470853 -0.00425627)
(-0.00845935 0.00905233 -0.15371 0.0073739 0.0805688 0.00108544)
(0.00392891 0.00760092 -0.103807 0.0097974 0.0712786 -0.0137263)
(0.0129933 0.0058286 -0.0642861 0.0129933 0.0642861 -0.0259865)
(0.019844 0.00363425 -0.0347085 0.0153284 0.0594815 -0.0351724)
(0.0234341 0.00123485 -0.0109292 0.0165644 0.0569944 -0.0399985)
(0.0234341 -0.00123485 0.0109292 0.0165644 0.0569944 -0.0399985)
(0.019844 -0.00363425 0.0347084 0.0153284 0.0594815 -0.0351725)
(0.0129933 -0.0058286 0.0642861 0.0129933 0.0642861 -0.0259865)
(0.00392892 -0.00760092 0.103807 0.00979741 0.0712786 -0.0137263)
(-0.00845934 -0.00905233 0.15371 0.00737391 0.0805688 0.00108543)
(-0.00932375 0.0119025 -0.1594 0.00155588 0.115965 0.00776787)
(0.00210197 0.00974299 -0.111467 0.00210197 0.111467 -0.00420395)
(0.0097974 0.00760092 -0.0712786 0.00392891 0.103807 -0.0137263)
(0.0157401 0.0048034 -0.0395886 0.00531028 0.0973344 -0.0210503)
(0.0189157 0.00163843 -0.012678 0.00606767 0.0938082 -0.0249834)
(0.0189157 -0.00163844 0.012678 0.00606767 0.0938082 -0.0249834)
(0.0157401 -0.0048034 0.0395886 0.00531028 0.0973344 -0.0210504)
(0.00979741 -0.00760092 0.0712786 0.00392891 0.103807 -0.0137263)
(0.00210198 -0.00974299 0.111467 0.00210198 0.111467 -0.00420397)
(-0.00932374 -0.0119025 0.1594 0.00155589 0.115965 0.00776785)
(-0.00822231 0.015605 -0.149044 -0.00822231 0.149044 0.0164446)
(0.00155588 0.0119025 -0.115965 -0.00932375 0.1594 0.00776787)
(0.00737391 0.00905233 -0.0805688 -0.00845935 0.15371 0.00108544)
(0.012009 0.00568153 -0.0470853 -0.00775271 0.146888 -0.00425625)
(0.0145489 0.00192838 -0.0154482 -0.00736474 0.142943 -0.00718413)
(0.0145489 -0.00192839 0.0154482 -0.00736474 0.142943 -0.00718413)
(0.012009 -0.00568154 0.0470853 -0.00775271 0.146888 -0.00425626)
(0.00737391 -0.00905233 0.0805688 -0.00845934 0.15371 0.00108543)
(0.00155589 -0.0119025 0.115965 -0.00932374 0.1594 0.00776785)
(-0.0082223 -0.015605 0.149044 -0.0082223 0.149044 0.0164446)
(-0.00221778 -0.00431691 -0.153901 -0.00221778 -0.153901 0.00443556)
(0.000158683 -0.00467656 -0.124342 -0.00299585 -0.169419 0.00283717)
(0.00278504 -0.00407469 -0.089357 -0.00344231 -0.168126 0.000657273)
(0.0050926 -0.00273898 -0.0535635 -0.00368503 -0.164347 -0.00140757)
(0.00640222 -0.000958187 -0.017817 -0.00377703 -0.161925 -0.00262519)
(0.00640222 0.000958193 0.017817 -0.00377703 -0.161925 -0.0026252)
(0.00509261 0.00273898 0.0535634 -0.00368502 -0.164347 -0.00140759)
(0.00278506 0.00407469 0.089357 -0.0034423 -0.168126 0.000657246)
(0.000158705 0.00467656 0.124342 -0.00299583 -0.169419 0.00283713)
(-0.00221776 0.0043169 0.153901 -0.00221776 -0.153901 0.00443551)
(-0.00299586 -0.00467657 -0.169419 0.000158687 -0.124342 0.00283717)
(0.000241748 -0.00498144 -0.125034 0.000241753 -0.125034 -0.000483501)
(0.00410333 -0.00419862 -0.0841997 0.000460156 -0.121138 -0.00456348)
(0.0073197 -0.00276008 -0.048629 0.000769756 -0.117009 -0.00808946)
(0.00909502 -0.000956868 -0.0159085 0.00100652 -0.114614 -0.0101015)
(0.00909502 0.000956873 0.0159085 0.00100652 -0.114614 -0.0101015)
(0.00731971 0.00276008 0.048629 0.000769762 -0.117009 -0.00808947)
(0.00410334 0.00419862 0.0841997 0.000460166 -0.121138 -0.0045635)
(0.000241768 0.00498144 0.125034 0.000241766 -0.125034 -0.000483534)
(-0.00299583 0.00467656 0.169419 0.000158703 -0.124342 0.00283713)
(-0.00344232 -0.00407469 -0.168126 0.00278504 -0.089357 0.000657283)
(0.000460149 -0.00419862 -0.121138 0.00410333 -0.0841997 -0.00456347)
(0.00526172 -0.0034019 -0.0799295 0.00526172 -0.0799295 -0.0105234)
(0.00917792 -0.00216626 -0.04543 0.00629554 -0.0767936 -0.0154735)
(0.0113315 -0.000736259 -0.0147539 0.0069577 -0.0751705 -0.0182892)
(0.0113315 0.000736263 0.0147538 0.0069577 -0.0751705 -0.0182892)
(0.00917793 0.00216626 0.04543 0.00629554 -0.0767936 -0.0154735)
(0.00526174 0.00340191 0.0799295 0.00526173 -0.0799295 -0.0105235)
(0.000460169 0.00419862 0.121138 0.00410334 -0.0841997 -0.00456351)
(-0.0034423 0.00407469 0.168126 0.00278505 -0.089357 0.000657243)
(-0.00368504 -0.00273898 -0.164347 0.0050926 -0.0535634 -0.00140756)
(0.000769747 -0.00276008 -0.117009 0.0073197 -0.048629 -0.00808945)
(0.00629553 -0.00216626 -0.0767936 0.00917792 -0.04543 -0.0154735)
(0.0108025 -0.00131298 -0.043529 0.0108025 -0.043529 -0.021605)
(0.0133738 -0.000426876 -0.0141836 0.0118607 -0.0427242 -0.0252345)
(0.0133738 0.000426878 0.0141836 0.0118607 -0.0427242 -0.0252346)
(0.0108025 0.00131298 0.043529 0.0108025 -0.043529 -0.021605)
(0.00629555 0.00216626 0.0767936 0.00917793 -0.04543 -0.0154735)
(0.000769767 0.00276008 0.117009 0.00731971 -0.048629 -0.00808948)
(-0.00368501 0.00273898 0.164347 0.00509261 -0.0535634 -0.00140759)
(-0.00377704 -0.000958192 -0.161925 0.00640221 -0.017817 -0.00262517)
(0.00100651 -0.000956871 -0.114614 0.00909501 -0.0159085 -0.0101015)
(0.00695769 -0.000736262 -0.0751706 0.0113315 -0.0147539 -0.0182892)
(0.0118607 -0.000426877 -0.0427243 0.0133738 -0.0141836 -0.0252345)
(0.0148937 -0.000134029 -0.0141303 0.0148937 -0.0141302 -0.0297874)
(0.0148937 0.00013403 0.0141302 0.0148937 -0.0141302 -0.0297874)
(0.0118607 0.000426878 0.0427242 0.0133738 -0.0141836 -0.0252346)
(0.0069577 0.000736262 0.0751705 0.0113315 -0.0147539 -0.0182892)
(0.00100653 0.000956871 0.114614 0.00909502 -0.0159085 -0.0101015)
(-0.00377702 0.000958191 0.161925 0.00640222 -0.017817 -0.00262521)
(-0.00377704 0.00095819 -0.161925 0.00640221 0.017817 -0.00262517)
(0.0010065 0.00095687 -0.114614 0.00909501 0.0159085 -0.0101015)
(0.00695769 0.000736261 -0.0751706 0.0113315 0.0147539 -0.0182892)
(0.0118607 0.000426876 -0.0427243 0.0133738 0.0141836 -0.0252345)
(0.0148937 0.000134029 -0.0141303 0.0148937 0.0141302 -0.0297874)
(0.0148937 -0.00013403 0.0141302 0.0148937 0.0141302 -0.0297874)
(0.0118607 -0.000426877 0.0427242 0.0133738 0.0141836 -0.0252346)
(0.0069577 -0.000736261 0.0751705 0.0113315 0.0147539 -0.0182892)
(0.00100653 -0.00095687 0.114614 0.00909502 0.0159085 -0.0101015)
(-0.00377702 -0.000958189 0.161925 0.00640222 0.017817 -0.0026252)
(-0.00368504 0.00273898 -0.164347 0.00509259 0.0535635 -0.00140755)
(0.000769744 0.00276008 -0.117009 0.00731969 0.048629 -0.00808944)
(0.00629553 0.00216626 -0.0767936 0.00917792 0.04543 -0.0154734)
(0.0108025 0.00131298 -0.043529 0.0108025 0.043529 -0.021605)
(0.0133738 0.000426876 -0.0141836 0.0118607 0.0427243 -0.0252345)
(0.0133738 -0.000426878 0.0141836 0.0118607 0.0427243 -0.0252345)
(0.0108025 -0.00131298 0.043529 0.0108025 0.043529 -0.021605)
(0.00629554 -0.00216626 0.0767936 0.00917792 0.04543 -0.0154735)
(0.000769765 -0.00276008 0.117009 0.0073197 0.048629 -0.00808947)
(-0.00368502 -0.00273898 0.164347 0.0050926 0.0535635 -0.00140759)
(-0.00344233 0.00407469 -0.168126 0.00278503 0.089357 0.000657294)
(0.000460145 0.00419862 -0.121138 0.00410332 0.0841997 -0.00456346)
(0.00526172 0.0034019 -0.0799295 0.00526172 0.0799295 -0.0105234)
(0.00917792 0.00216626 -0.04543 0.00629553 0.0767936 -0.0154734)
(0.0113315 0.000736259 -0.0147539 0.00695769 0.0751705 -0.0182892)
(0.0113315 -0.000736263 0.0147538 0.00695769 0.0751705 -0.0182892)
(0.00917793 -0.00216626 0.04543 0.00629554 0.0767936 -0.0154735)
(0.00526173 -0.00340191 0.0799295 0.00526173 0.0799295 -0.0105235)
(0.000460165 -0.00419862 0.121138 0.00410333 0.0841997 -0.0045635)
(-0.0034423 -0.00407469 0.168126 0.00278505 0.089357 0.000657255)
(-0.00299586 0.00467657 -0.169419 0.000158678 0.124342 0.00283718)
(0.000241743 0.00498144 -0.125034 0.000241744 0.125034 -0.000483486)
(0.00410332 0.00419862 -0.0841998 0.000460147 0.121138 -0.00456347)
(0.0073197 0.00276008 -0.048629 0.000769747 0.117009 -0.00808944)
(0.00909501 0.000956868 -0.0159085 0.00100651 0.114614 -0.0101015)
(0.00909502 -0.000956873 0.0159085 0.00100651 0.114614 -0.0101015)
(0.0073197 -0.00276008 0.048629 0.000769753 0.117009 -0.00808946)
(0.00410333 -0.00419862 0.0841997 0.000460156 0.121138 -0.00456349)
(0.000241763 -0.00498144 0.125034 0.000241756 0.125034 -0.000483519)
(-0.00299584 -0.00467656 0.169419 0.000158692 0.124342 0.00283714)
(-0.00221779 0.00431691 -0.153901 -0.00221779 0.153901 0.00443558)
(0.000158676 0.00467657 -0.124342 -0.00299586 0.169419 0.00283718)
(0.00278503 0.00407469 -0.089357 -0.00344233 0.168126 0.000657291)
(0.00509259 0.00273898 -0.0535635 -0.00368504 0.164347 -0.00140755)
(0.00640222 0.000958188 -0.017817 -0.00377704 0.161925 -0.00262518)
(0.00640222 -0.000958194 0.017817 -0.00377704 0.161925 -0.00262518)
(0.0050926 -0.00273898 0.0535634 -0.00368503 0.164347 -0.00140757)
(0.00278505 -0.00407469 0.089357 -0.00344231 0.168126 0.000657265)
(0.000158698 -0.00467657 0.124342 -0.00299584 0.169419 0.00283715)
(-0.00221776 -0.00431691 0.153901 -0.00221777 0.153901 0.00443554)
(-0.00210103 -0.00322454 -0.158946 -0.00210101 -0.158946 0.00420203)
(-0.000296998 -0.00257327 -0.13073 -0.00260556 -0.177351 0.00290256)
(0.000889841 -0.00207039 -0.0954386 -0.00269853 -0.178359 0.00180869)
(0.00194529 -0.00134774 -0.0579083 -0.00275515 -0.176216 0.000809861)
(0.00256241 -0.00046611 -0.0193925 -0.00277458 -0.174648 0.000212175)
(0.00256241 0.000466121 0.0193924 -0.00277458 -0.174648 0.000212165)
(0.0019453 0.00134775 0.0579082 -0.00275513 -0.176216 0.000809831)
(0.000889866 0.0020704 0.0954386 -0.00269851 -0.178359 0.00180864)
(-0.000296958 0.00257327 0.130729 -0.00260553 -0.177351 0.00290249)
(-0.00210097 0.00322453 0.158946 -0.00210098 -0.158946 0.00420195)
(-0.00260557 -0.00257327 -0.177351 -0.000296988 -0.130729 0.00290256)
(-0.000485685 -0.0023225 -0.134202 -0.000485674 -0.134202 0.000971359)
(0.00119853 -0.00196121 -0.0925838 -0.000328695 -0.132494 -0.00086983)
(0.00269443 -0.00128896 -0.0544881 -0.000168223 -0.129846 -0.0025262)
(0.00355173 -0.000444277 -0.018012 -4.67941e-05 -0.128195 -0.00350493)
(0.00355173 0.000444286 0.0180119 -4.67902e-05 -0.128195 -0.00350494)
(0.00269444 0.00128897 0.054488 -0.000168211 -0.129846 -0.00252623)
(0.00119855 0.00196122 0.0925838 -0.000328677 -0.132493 -0.000869873)
(-0.000485648 0.00232251 0.134202 -0.000485651 -0.134202 0.000971299)
(-0.00260553 0.00257327 0.177351 -0.00029696 -0.130729 0.00290249)
(-0.00269855 -0.0020704 -0.178359 0.00088984 -0.0954386 0.00180871)
(-0.000328708 -0.00196121 -0.132494 0.00119853 -0.0925838 -0.000869819)
(0.0018055 -0.00162354 -0.0900762 0.00180551 -0.0900761 -0.00361101)
(0.00367547 -0.00102429 -0.0524155 0.00234315 -0.0880413 -0.00601862)
(0.00472909 -0.000339887 -0.0172526 0.0027107 -0.0869155 -0.00743979)
(0.00472909 0.000339893 0.0172526 0.00271071 -0.0869155 -0.0074398)
(0.00367548 0.0010243 0.0524155 0.00234316 -0.0880413 -0.00601864)
(0.00180552 0.00162354 0.0900761 0.00180552 -0.0900761 -0.00361105)
(-0.000328672 0.00196121 0.132493 0.00119855 -0.0925838 -0.000869876)
(-0.0026985 0.00207039 0.178359 0.000889868 -0.0954386 0.00180864)
(-0.00275517 -0.00134774 -0.176216 0.00194528 -0.0579082 0.000809891)
(-0.000168241 -0.00128897 -0.129846 0.00269442 -0.054488 -0.00252618)
(0.00234314 -0.00102429 -0.0880413 0.00367547 -0.0524155 -0.00601861)
(0.00453994 -0.000574435 -0.0511675 0.00453995 -0.0511674 -0.00907989)
(0.00583127 -0.000163633 -0.0169614 0.00514201 -0.0505591 -0.0109733)
(0.00583128 0.000163637 0.0169613 0.00514202 -0.0505591 -0.0109733)
(0.00453996 0.000574438 0.0511674 0.00453996 -0.0511674 -0.00907992)
(0.00234317 0.00102429 0.0880412 0.00367548 -0.0524155 -0.00601865)
(-0.000168204 0.00128897 0.129846 0.00269444 -0.054488 -0.00252624)