/*--------------------------------*- C++ -*----------------------------------*\
| =========                 |                                                 |
| \\      /  F ield         | OpenFOAM: The Open Source CFD Toolbox           |
|  \\    /   O peration     | Version:  2406                                  |
|   \\  /    A nd           | Website:  www.openfoam.com                      |
|    \\/     M anipulation  |                                                 |
\*---------------------------------------------------------------------------*/
FoamFile
{
    version     2.0;
    format      ascii;
    arch        "LSB;label=32;scalar=64";
    class       volVectorField;
    location    "1.9";
    object      U;
}
// * * * * * * * * * * * * * * * * * * * * * * * * * * * * * * * * * * * * * //

dimensions      [0 1 -1 0 0 0 0];

internalField   nonuniform List<vector> 
25000
(
(0.148203 0.148203 1.126)
(0.121741 0.159741 1.15799)
(0.089682 0.168689 1.17581)
(0.0549321 0.174337 1.18522)
(0.0184801 0.177166 1.18921)
(-0.0184801 0.177166 1.18921)
(-0.0549321 0.174337 1.18522)
(-0.089682 0.168689 1.17581)
(-0.121741 0.159741 1.15799)
(-0.148203 0.148203 1.126)
(0.159741 0.121741 1.15799)
(0.129921 0.129921 1.18715)
(0.0949522 0.136258 1.19911)
(0.0577448 0.140368 1.20344)
(0.0193615 0.142382 1.20465)
(-0.0193615 0.142382 1.20465)
(-0.0577448 0.140368 1.20344)
(-0.0949522 0.136258 1.19911)
(-0.129921 0.129921 1.18715)
(-0.159741 0.121741 1.15799)
(0.168689 0.089682 1.17581)
(0.136258 0.0949522 1.19911)
(0.0990579 0.0990579 1.20625)
(0.059953 0.101733 1.20696)
(0.0200493 0.10303 1.20625)
(-0.0200493 0.10303 1.20625)
(-0.059953 0.101733 1.20696)
(-0.0990579 0.0990579 1.20625)
(-0.136258 0.0949522 1.19911)
(-0.168689 0.089682 1.17581)
(0.174337 0.0549321 1.18522)
(0.140368 0.0577448 1.20344)
(0.101733 0.059953 1.20696)
(0.061392 0.061392 1.20524)
(0.0204959 0.0620861 1.20331)
(-0.0204959 0.0620861 1.20331)
(-0.061392 0.061392 1.20524)
(-0.101733 0.059953 1.20696)
(-0.140368 0.0577448 1.20344)
(-0.174337 0.0549321 1.18522)
(0.177166 0.0184801 1.18921)
(0.142382 0.0193615 1.20465)
(0.10303 0.0200493 1.20625)
(0.0620861 0.0204959 1.20331)
(0.0207106 0.0207106 1.2008)
(-0.0207106 0.0207106 1.2008)
(-0.0620861 0.0204959 1.20331)
(-0.10303 0.0200493 1.20625)
(-0.142382 0.0193615 1.20465)
(-0.177166 0.0184801 1.18921)
(0.177166 -0.0184801 1.18921)
(0.142382 -0.0193615 1.20465)
(0.10303 -0.0200493 1.20625)
(0.0620861 -0.0204959 1.20331)
(0.0207106 -0.0207106 1.2008)
(-0.0207106 -0.0207106 1.2008)
(-0.0620861 -0.0204959 1.20331)
(-0.10303 -0.0200493 1.20625)
(-0.142382 -0.0193615 1.20465)
(-0.177166 -0.0184801 1.18921)
(0.174337 -0.0549321 1.18522)
(0.140368 -0.0577448 1.20344)
(0.101733 -0.059953 1.20696)
(0.061392 -0.061392 1.20524)
(0.0204959 -0.0620861 1.20331)
(-0.0204959 -0.0620861 1.20331)
(-0.061392 -0.061392 1.20524)
(-0.101733 -0.059953 1.20696)
(-0.140368 -0.0577448 1.20344)
(-0.174337 -0.0549321 1.18522)
(0.168689 -0.089682 1.17581)
(0.136258 -0.0949522 1.19911)
(0.0990579 -0.0990579 1.20625)
(0.059953 -0.101733 1.20696)
(0.0200493 -0.10303 1.20625)
(-0.0200493 -0.10303 1.20625)
(-0.059953 -0.101733 1.20696)
(-0.0990579 -0.0990579 1.20625)
(-0.136258 -0.0949522 1.19911)
(-0.168689 -0.089682 1.17581)
(0.159741 -0.121741 1.15799)
(0.129921 -0.129921 1.18715)
(0.0949522 -0.136258 1.19911)
(0.0577448 -0.140368 1.20344)
(0.0193615 -0.142382 1.20465)
(-0.0193615 -0.142382 1.20465)
(-0.0577448 -0.140368 1.20344)
(-0.0949522 -0.136258 1.19911)
(-0.129921 -0.129921 1.18715)
(-0.159741 -0.121741 1.15799)
(0.148203 -0.148203 1.126)
(0.121741 -0.159741 1.15799)
(0.089682 -0.168689 1.17581)
(0.0549321 -0.174337 1.18522)
(0.0184801 -0.177166 1.18921)
(-0.0184801 -0.177166 1.18921)
(-0.0549321 -0.174337 1.18522)
(-0.089682 -0.168689 1.17581)
(-0.121741 -0.159741 1.15799)
(-0.148203 -0.148203 1.126)
(0.0508828 0.0508828 1.26779)
(0.0454873 0.0604815 1.35152)
(0.0364055 0.068382 1.40592)
(0.0233681 0.074205 1.43821)
(0.00804169 0.0772047 1.45313)
(-0.00804167 0.0772047 1.45313)
(-0.0233681 0.074205 1.43821)
(-0.0364055 0.068382 1.40592)
(-0.0454873 0.0604815 1.35152)
(-0.0508828 0.0508828 1.26779)
(0.0604815 0.0454873 1.35152)
(0.0552605 0.0552605 1.44013)
(0.0441311 0.0630689 1.48894)
(0.0282256 0.068534 1.51468)
(0.00968395 0.0713451 1.52575)
(-0.00968393 0.0713451 1.52575)
(-0.0282256 0.068534 1.51468)
(-0.0441311 0.0630689 1.48894)
(-0.0552605 0.0552605 1.44013)
(-0.0604815 0.0454873 1.35152)
(0.068382 0.0364055 1.40592)
(0.0630689 0.0441311 1.48894)
(0.0501796 0.0501796 1.53198)
(0.0319879 0.0543477 1.553)
(0.010952 0.0564913 1.56141)
(-0.010952 0.0564913 1.56141)
(-0.0319878 0.0543477 1.553)
(-0.0501796 0.0501796 1.53198)
(-0.0630689 0.0441311 1.48894)
(-0.068382 0.0364055 1.40592)
(0.074205 0.0233681 1.43821)
(0.0685341 0.0282256 1.51468)
(0.0543477 0.0319878 1.553)
(0.0345544 0.0345544 1.57058)
(0.0118161 0.0358749 1.57707)
(-0.011816 0.0358749 1.57707)
(-0.0345544 0.0345544 1.57058)
(-0.0543477 0.0319878 1.553)
(-0.068534 0.0282256 1.51468)
(-0.074205 0.0233681 1.43821)
(0.0772047 0.00804167 1.45313)
(0.0713452 0.00968393 1.52575)
(0.0564913 0.010952 1.56141)
(0.0358749 0.011816 1.57707)
(0.0122624 0.0122624 1.58252)
(-0.0122624 0.0122624 1.58252)
(-0.0358749 0.011816 1.57707)
(-0.0564913 0.010952 1.56141)
(-0.0713451 0.00968393 1.52575)
(-0.0772047 0.00804167 1.45313)
(0.0772047 -0.00804169 1.45313)
(0.0713452 -0.00968395 1.52575)
(0.0564913 -0.010952 1.56141)
(0.0358749 -0.011816 1.57707)
(0.0122624 -0.0122624 1.58252)
(-0.0122624 -0.0122624 1.58252)
(-0.0358749 -0.011816 1.57707)
(-0.0564913 -0.010952 1.56141)
(-0.0713451 -0.00968395 1.52575)
(-0.0772047 -0.00804169 1.45313)
(0.074205 -0.0233681 1.43821)
(0.0685341 -0.0282256 1.51468)
(0.0543477 -0.0319878 1.553)
(0.0345544 -0.0345544 1.57058)
(0.0118161 -0.0358749 1.57707)
(-0.011816 -0.0358749 1.57707)
(-0.0345544 -0.0345544 1.57058)
(-0.0543477 -0.0319878 1.553)
(-0.068534 -0.0282256 1.51468)
(-0.074205 -0.0233681 1.43821)
(0.068382 -0.0364055 1.40592)
(0.0630689 -0.0441311 1.48894)
(0.0501796 -0.0501796 1.53198)
(0.0319879 -0.0543477 1.553)
(0.010952 -0.0564913 1.56141)
(-0.010952 -0.0564913 1.56141)
(-0.0319878 -0.0543477 1.553)
(-0.0501796 -0.0501796 1.53198)
(-0.0630689 -0.0441311 1.48894)
(-0.068382 -0.0364055 1.40592)
(0.0604815 -0.0454873 1.35152)
(0.0552605 -0.0552605 1.44013)
(0.0441311 -0.0630689 1.48894)
(0.0282256 -0.068534 1.51468)
(0.00968395 -0.0713451 1.52575)
(-0.00968393 -0.0713451 1.52575)
(-0.0282256 -0.068534 1.51468)
(-0.0441311 -0.0630689 1.48894)
(-0.0552605 -0.0552605 1.44013)
(-0.0604815 -0.0454873 1.35152)
(0.0508828 -0.0508828 1.26779)
(0.0454873 -0.0604815 1.35152)
(0.0364055 -0.068382 1.40592)
(0.0233681 -0.074205 1.43821)
(0.00804169 -0.0772047 1.45313)
(-0.00804167 -0.0772047 1.45313)
(-0.0233681 -0.074205 1.43821)
(-0.0364055 -0.068382 1.40592)
(-0.0454873 -0.0604815 1.35152)
(-0.0508828 -0.0508828 1.26779)
(0.0294379 0.0294378 1.13916)
(0.027366 0.0362572 1.264)
(0.0223831 0.0419314 1.35454)
(0.014649 0.0461082 1.41276)
(0.00509659 0.0482991 1.44101)
(-0.00509653 0.0482991 1.44101)
(-0.0146489 0.0461082 1.41276)
(-0.0223831 0.0419314 1.35454)
(-0.027366 0.0362572 1.264)
(-0.0294378 0.0294378 1.13916)
(0.0362573 0.027366 1.264)
(0.034266 0.034266 1.41081)
(0.0281263 0.039945 1.50483)
(0.0183892 0.0440015 1.56049)
(0.00638393 0.0461083 1.5863)
(-0.00638388 0.0461083 1.5863)
(-0.0183892 0.0440015 1.56049)
(-0.0281263 0.039945 1.50483)
(-0.034266 0.034266 1.41081)
(-0.0362572 0.027366 1.264)
(0.0419314 0.0223831 1.35454)
(0.039945 0.0281263 1.50483)
(0.0327474 0.0327473 1.59723)
(0.0213504 0.0359555 1.64978)
(0.00739886 0.037603 1.67351)
(-0.00739881 0.037603 1.67351)
(-0.0213503 0.0359555 1.64978)
(-0.0327473 0.0327473 1.59723)
(-0.039945 0.0281263 1.50483)
(-0.0419314 0.0223831 1.35454)
(0.0461082 0.014649 1.41276)
(0.0440015 0.0183892 1.56049)
(0.0359555 0.0213503 1.64978)
(0.0233776 0.0233775 1.69966)
(0.00809315 0.0244136 1.72196)
(-0.0080931 0.0244136 1.72196)
(-0.0233775 0.0233775 1.69966)
(-0.0359555 0.0213503 1.64978)
(-0.0440015 0.0183892 1.56049)
(-0.0461082 0.014649 1.41276)
(0.0482991 0.00509654 1.44101)
(0.0461084 0.00638388 1.5863)
(0.037603 0.00739882 1.67351)
(0.0244136 0.00809311 1.72196)
(0.00844933 0.0084493 1.74358)
(-0.00844929 0.0084493 1.74358)
(-0.0244136 0.00809311 1.72196)
(-0.0376029 0.00739882 1.67351)
(-0.0461083 0.00638389 1.5863)
(-0.0482991 0.00509655 1.44101)
(0.0482991 -0.00509658 1.44101)
(0.0461084 -0.00638392 1.5863)
(0.037603 -0.00739885 1.67351)
(0.0244136 -0.00809314 1.72196)
(0.00844933 -0.00844932 1.74358)
(-0.00844929 -0.00844932 1.74358)
(-0.0244136 -0.00809314 1.72196)
(-0.0376029 -0.00739885 1.67351)
(-0.0461083 -0.00638392 1.5863)
(-0.0482991 -0.00509658 1.44101)
(0.0461082 -0.014649 1.41276)
(0.0440015 -0.0183892 1.56049)
(0.0359555 -0.0213503 1.64978)
(0.0233776 -0.0233776 1.69966)
(0.00809315 -0.0244136 1.72196)
(-0.0080931 -0.0244136 1.72196)
(-0.0233775 -0.0233776 1.69966)
(-0.0359555 -0.0213503 1.64978)
(-0.0440015 -0.0183892 1.56049)
(-0.0461082 -0.014649 1.41276)
(0.0419314 -0.0223831 1.35454)
(0.039945 -0.0281263 1.50483)
(0.0327474 -0.0327474 1.59723)
(0.0213504 -0.0359555 1.64978)
(0.00739886 -0.037603 1.67351)
(-0.00739881 -0.037603 1.67351)
(-0.0213503 -0.0359555 1.64978)
(-0.0327473 -0.0327474 1.59723)
(-0.039945 -0.0281263 1.50483)
(-0.0419314 -0.0223831 1.35454)
(0.0362573 -0.027366 1.264)
(0.034266 -0.034266 1.41081)
(0.0281263 -0.039945 1.50483)
(0.0183892 -0.0440015 1.56049)
(0.00638393 -0.0461084 1.5863)
(-0.00638387 -0.0461084 1.5863)
(-0.0183892 -0.0440015 1.56049)
(-0.0281263 -0.039945 1.50483)
(-0.034266 -0.034266 1.41081)
(-0.0362572 -0.027366 1.264)
(0.0294379 -0.0294379 1.13916)
(0.027366 -0.0362573 1.264)
(0.0223831 -0.0419314 1.35454)
(0.014649 -0.0461082 1.41276)
(0.00509659 -0.0482991 1.44101)
(-0.00509653 -0.0482991 1.44101)
(-0.0146489 -0.0461082 1.41276)
(-0.0223831 -0.0419314 1.35454)
(-0.027366 -0.0362573 1.264)
(-0.0294378 -0.0294379 1.13916)
(0.00588741 0.00588732 1.1525)
(0.00666822 0.00822803 1.28429)
(0.0062109 0.0105488 1.38419)
(0.00436634 0.0124143 1.45073)
(0.00156926 0.0134343 1.48378)
(-0.00156913 0.0134343 1.48378)
(-0.00436622 0.0124143 1.45073)
(-0.00621078 0.0105488 1.38419)
(-0.00666812 0.00822806 1.28429)
(-0.00588733 0.00588735 1.1525)
(0.00822811 0.00666813 1.28429)
(0.00974593 0.00974584 1.44582)
(0.00909228 0.0125545 1.55604)
(0.00635799 0.0146734 1.62466)
(0.00227333 0.0157976 1.6575)
(-0.00227322 0.0157976 1.6575)
(-0.00635788 0.0146734 1.62466)
(-0.00909217 0.0125545 1.55604)
(-0.00974583 0.00974586 1.44582)
(-0.00822804 0.00666815 1.28429)
(0.0105488 0.0062108 1.38419)
(0.0125546 0.00909219 1.55604)
(0.0115899 0.0115899 1.66971)
(0.00802953 0.013382 1.73809)
(0.00285519 0.0142909 1.77002)
(-0.00285509 0.0142909 1.77002)
(-0.00802943 0.013382 1.73809)
(-0.0115899 0.0115899 1.66971)
(-0.0125545 0.0090922 1.55604)
(-0.0105488 0.00621081 1.38419)
(0.0124144 0.00436624 1.45073)
(0.0146735 0.0063579 1.62466)
(0.0133821 0.00802945 1.73809)
(0.00917198 0.0091719 1.80489)
(0.00324036 0.00969866 1.83542)
(-0.00324027 0.00969866 1.83542)
(-0.00917188 0.0091719 1.80489)
(-0.013382 0.00802946 1.73809)
(-0.0146734 0.00635791 1.62466)
(-0.0124143 0.00436625 1.45073)
(0.0134344 0.00156916 1.48378)
(0.0157977 0.00227324 1.6575)
(0.014291 0.00285511 1.77002)
(0.00969873 0.00324029 1.83542)
(0.00340508 0.00340501 1.86469)
(-0.00340499 0.00340501 1.86469)
(-0.00969864 0.00324029 1.83542)
(-0.0142909 0.00285511 1.77002)
(-0.0157976 0.00227324 1.6575)
(-0.0134343 0.00156916 1.48378)
(0.0134344 -0.00156922 1.48378)
(0.0157977 -0.0022733 1.6575)
(0.014291 -0.00285517 1.77002)
(0.00969873 -0.00324034 1.83542)
(0.00340508 -0.00340506 1.86469)
(-0.00340499 -0.00340506 1.86469)
(-0.00969864 -0.00324034 1.83542)
(-0.0142909 -0.00285517 1.77002)
(-0.0157976 -0.0022733 1.6575)
(-0.0134343 -0.00156922 1.48378)
(0.0124144 -0.0043663 1.45073)
(0.0146735 -0.00635795 1.62466)
(0.0133821 -0.0080295 1.73809)
(0.00917198 -0.00917195 1.80489)
(0.00324036 -0.0096987 1.83542)
(-0.00324027 -0.0096987 1.83542)
(-0.00917188 -0.00917195 1.80489)
(-0.013382 -0.00802951 1.73809)
(-0.0146734 -0.00635796 1.62466)
(-0.0124143 -0.00436631 1.45073)
(0.0105488 -0.00621085 1.38419)
(0.0125546 -0.00909224 1.55604)
(0.0115899 -0.0115899 1.66971)
(0.00802953 -0.013382 1.73809)
(0.00285519 -0.0142909 1.77002)
(-0.00285509 -0.0142909 1.77002)
(-0.00802943 -0.013382 1.73809)
(-0.0115898 -0.0115899 1.66971)
(-0.0125545 -0.00909225 1.55604)
(-0.0105487 -0.00621087 1.38419)
(0.0082281 -0.00666818 1.28429)
(0.00974592 -0.00974588 1.44582)
(0.00909227 -0.0125545 1.55604)
(0.00635799 -0.0146735 1.62466)
(0.00227333 -0.0157977 1.6575)
(-0.00227322 -0.0157977 1.6575)
(-0.00635788 -0.0146735 1.62466)
(-0.00909217 -0.0125545 1.55604)
(-0.00974582 -0.0097459 1.44582)
(-0.00822803 -0.0066682 1.28429)
(0.00588739 -0.00588736 1.1525)
(0.00666821 -0.00822807 1.28429)
(0.00621089 -0.0105488 1.38419)
(0.00436633 -0.0124143 1.45073)
(0.00156925 -0.0134343 1.48378)
(-0.00156913 -0.0134343 1.48378)
(-0.00436621 -0.0124144 1.45073)
(-0.00621077 -0.0105488 1.38419)
(-0.00666811 -0.0082281 1.28429)
(-0.00588731 -0.00588739 1.1525)
(0.00543451 0.00543434 1.11571)
(0.00524451 0.00684397 1.25313)
(0.00443694 0.00809965 1.35941)
(0.00298304 0.00905856 1.43137)
(0.00105212 0.00957331 1.46752)
(-0.00105189 0.00957332 1.46752)
(-0.00298281 0.00905858 1.43137)
(-0.00443672 0.00809969 1.35941)
(-0.00524432 0.00684402 1.25313)
(-0.00543435 0.0054344 1.11571)
(0.00684411 0.00524433 1.25313)
(0.00679849 0.00679833 1.4246)
(0.0058472 0.00821078 1.54502)
(0.0039536 0.00927442 1.62184)
(0.00139485 0.00983204 1.65919)
(-0.00139465 0.00983204 1.65919)
(-0.0039534 0.00927443 1.62184)
(-0.00584701 0.00821081 1.54502)
(-0.00679832 0.00679837 1.4246)
(-0.00684398 0.00524438 1.25313)
(0.00809977 0.00443675 1.35941)
(0.00821092 0.00584704 1.54502)
(0.00710761 0.00710747 1.67214)
(0.00479613 0.00801588 1.75082)
(0.00168599 0.00846044 1.78822)
(-0.0016858 0.00846044 1.78822)
(-0.00479595 0.00801589 1.75083)
(-0.00710744 0.00710748 1.67214)
(-0.00821077 0.00584706 1.54502)
(-0.00809965 0.00443679 1.35941)
(0.00905867 0.00298285 1.43137)
(0.00927454 0.00395344 1.62184)
(0.00801601 0.00479598 1.75082)
(0.00536196 0.00536182 1.8289)
(0.00187031 0.00557861 1.86496)
(-0.00187014 0.00557861 1.86496)
(-0.00536179 0.00536183 1.8289)
(-0.00801586 0.00479599 1.75083)
(-0.0092744 0.00395346 1.62184)
(-0.00905855 0.00298287 1.43137)
(0.0095734 0.00105194 1.46752)
(0.00983215 0.00139469 1.65919)
(0.00846056 0.00168584 1.78822)
(0.00557874 0.00187018 1.86496)
(0.00192283 0.0019227 1.89882)
(-0.00192266 0.0019227 1.89882)
(-0.00557857 0.00187018 1.86496)
(-0.00846041 0.00168585 1.78822)
(-0.00983202 0.0013947 1.65919)
(-0.00957329 0.00105195 1.46752)
(0.0095734 -0.00105206 1.46752)
(0.00983215 -0.0013948 1.65919)
(0.00846056 -0.00168594 1.78822)
(0.00557874 -0.00187027 1.86496)
(0.00192283 -0.00192279 1.89882)
(-0.00192266 -0.00192279 1.89882)
(-0.00557857 -0.00187027 1.86496)
(-0.00846041 -0.00168595 1.78822)
(-0.00983201 -0.0013948 1.65919)
(-0.00957329 -0.00105206 1.46752)
(0.00905866 -0.00298297 1.43137)
(0.00927453 -0.00395354 1.62184)
(0.00801601 -0.00479608 1.75082)
(0.00536196 -0.00536191 1.8289)
(0.00187031 -0.0055787 1.86496)
(-0.00187014 -0.0055787 1.86496)
(-0.00536179 -0.00536192 1.8289)
(-0.00801585 -0.00479609 1.75083)
(-0.00927439 -0.00395356 1.62184)
(-0.00905854 -0.00298299 1.43137)
(0.00809976 -0.00443686 1.35941)
(0.0082109 -0.00584713 1.54502)
(0.0071076 -0.00710756 1.67214)
(0.00479613 -0.00801597 1.75082)
(0.00168599 -0.00846052 1.78822)
(-0.0016858 -0.00846053 1.78822)
(-0.00479594 -0.00801598 1.75082)
(-0.00710743 -0.00710757 1.67214)
(-0.00821075 -0.00584716 1.54502)
(-0.00809963 -0.00443689 1.35941)
(0.00684409 -0.00524443 1.25313)
(0.00679847 -0.00679842 1.42459)
(0.00584719 -0.00821086 1.54502)
(0.0039536 -0.00927449 1.62184)
(0.00139485 -0.00983211 1.65919)
(-0.00139464 -0.00983212 1.65919)
(-0.0039534 -0.00927451 1.62184)
(-0.005847 -0.00821089 1.54502)
(-0.0067983 -0.00679846 1.4246)
(-0.00684395 -0.00524447 1.25313)
(0.00543448 -0.00543442 1.11571)
(0.00524449 -0.00684404 1.25313)
(0.00443692 -0.00809972 1.35941)
(0.00298303 -0.00905862 1.43137)
(0.00105212 -0.00957337 1.46752)
(-0.00105188 -0.00957338 1.46752)
(-0.0029828 -0.00905864 1.43137)
(-0.00443671 -0.00809975 1.35941)
(-0.0052443 -0.00684409 1.25313)
(-0.00543432 -0.00543448 1.11571)
(0.000803433 0.00080315 1.12198)
(0.00101862 0.00118915 1.25978)
(0.00102158 0.00161353 1.3671)
(0.000749773 0.00197663 1.44026)
(0.000275039 0.00218156 1.47719)
(-0.000274621 0.00218157 1.47719)
(-0.000749369 0.00197667 1.44026)
(-0.0010212 0.00161359 1.3671)
(-0.00101829 0.00118924 1.25978)
(-0.00080316 0.000803257 1.12198)
(0.0011894 0.00101831 1.25978)
(0.00159464 0.00159436 1.4327)
(0.00160307 0.00217418 1.55558)
(0.00117207 0.00264428 1.63483)
(0.000427949 0.00290294 1.67366)
(-0.000427579 0.00290295 1.67366)
(-0.00117171 0.00264431 1.63483)
(-0.00160274 0.00217423 1.55558)
(-0.00159434 0.00159443 1.4327)
(-0.00118915 0.0010184 1.25978)
(0.00161374 0.00102126 1.3671)
(0.00217442 0.00160279 1.55558)
(0.00216665 0.0021664 1.68669)
(0.00157178 0.00260852 1.76898)
(0.000570709 0.00284199 1.80844)
(-0.000570373 0.00284199 1.80844)
(-0.00157145 0.00260854 1.76898)
(-0.00216634 0.00216643 1.68669)
(-0.00217415 0.00160283 1.55558)
(-0.00161353 0.00102132 1.3671)
(0.00197681 0.000749449 1.44026)
(0.0026445 0.00117179 1.63483)
(0.00260875 0.00157152 1.76898)
(0.0018727 0.00187246 1.85139)
(0.000674753 0.00200689 1.88974)
(-0.000674438 0.00200689 1.88974)
(-0.00187239 0.00187247 1.85139)
(-0.00260847 0.00157154 1.76898)
(-0.00264425 0.00117181 1.63483)
(-0.00197661 0.000749484 1.44026)
(0.00218172 0.000274724 1.47719)
(0.00290313 0.00042767 1.67366)
(0.0028422 0.000570457 1.80844)
(0.00200711 0.000674517 1.88974)
(0.000712445 0.000712218 1.92555)
(-0.00071214 0.000712219 1.92555)
(-0.00200682 0.00067452 1.88974)
(-0.00284192 0.000570462 1.80844)
(-0.00290289 0.000427678 1.67366)
(-0.00218153 0.000274735 1.47719)
(0.00218171 -0.000274918 1.47719)
(0.00290312 -0.000427844 1.67366)
(0.0028422 -0.000570616 1.80844)
(0.00200711 -0.000674668 1.88974)
(0.000712444 -0.000712364 1.92555)
(-0.00071214 -0.000712365 1.92555)
(-0.00200681 -0.000674671 1.88974)
(-0.00284192 -0.000570622 1.80844)
(-0.00290288 -0.000427853 1.67366)
(-0.00218152 -0.000274931 1.47719)
(0.00197679 -0.000749637 1.44026)
(0.00264448 -0.00117196 1.63483)
(0.00260874 -0.00157168 1.76898)
(0.00187269 -0.00187261 1.85139)
(0.000674751 -0.00200703 1.88974)
(-0.000674437 -0.00200703 1.88974)
(-0.00187239 -0.00187262 1.85139)
(-0.00260846 -0.0015717 1.76898)
(-0.00264423 -0.00117198 1.63483)
(-0.00197659 -0.000749674 1.44026)
(0.00161371 -0.00102143 1.3671)
(0.0021744 -0.00160295 1.55558)
(0.00216663 -0.00216654 1.68669)
(0.00157177 -0.00260866 1.76898)
(0.000570706 -0.00284212 1.80844)
(-0.000570371 -0.00284213 1.80844)
(-0.00157144 -0.00260868 1.76898)
(-0.00216633 -0.00216657 1.68669)
(-0.00217413 -0.00160299 1.55558)
(-0.0016135 -0.00102149 1.3671)
(0.00118935 -0.00101847 1.25978)
(0.00159461 -0.00159451 1.4327)
(0.00160305 -0.00217431 1.55558)
(0.00117206 -0.00264441 1.63483)
(0.000427944 -0.00290306 1.67366)
(-0.000427576 -0.00290307 1.67366)
(-0.0011717 -0.00264443 1.63483)
(-0.00160271 -0.00217436 1.55558)
(-0.00159431 -0.00159458 1.4327)
(-0.00118911 -0.00101856 1.25978)
(0.000803383 -0.000803281 1.12198)
(0.00101858 -0.00118926 1.25978)
(0.00102155 -0.00161364 1.3671)
(0.000749755 -0.00197673 1.44026)
(0.000275032 -0.00218165 1.47719)
(-0.000274617 -0.00218167 1.47719)
(-0.000749353 -0.00197677 1.44026)
(-0.00102117 -0.0016137 1.3671)
(-0.00101825 -0.00118935 1.25978)
(-0.000803111 -0.000803387 1.12198)
(0.00128416 0.0012837 1.11324)
(0.00121477 0.00159588 1.25238)
(0.0010129 0.0018685 1.36111)
(0.000675599 0.00207531 1.43543)
(0.000237656 0.00218637 1.47301)
(-0.000236963 0.00218639 1.47301)
(-0.000674928 0.00207538 1.43543)
(-0.00101227 0.0018686 1.36111)
(-0.00121421 0.00159603 1.25238)
(-0.0012837 0.00128387 1.11324)
(0.00159629 0.00121425 1.25238)
(0.00154373 0.00154328 1.4275)
(0.00130828 0.00184336 1.55249)
(0.000879425 0.00207341 1.63344)
(0.00030987 0.00219613 1.67322)
(-0.000309254 0.00219614 1.67322)
(-0.000878828 0.00207346 1.63344)
(-0.00130772 0.00184344 1.5525)
(-0.00154323 0.00154339 1.4275)
(-0.00159588 0.00121439 1.25238)
(0.00186884 0.00101236 1.36111)
(0.00184375 0.00130781 1.55249)
(0.00157991 0.0015795 1.6864)
(0.00106512 0.00178457 1.77092)
(0.000374918 0.00188968 1.8116)
(-0.000374358 0.00188969 1.8116)
(-0.00106458 0.0017846 1.77092)
(-0.0015794 0.00157955 1.6864)
(-0.00184331 0.00130789 1.5525)
(-0.00186848 0.00101246 1.36111)
(0.00207561 0.000675059 1.43543)
(0.00207376 0.00087895 1.63344)
(0.00178495 0.0010647 1.77092)
(0.00119984 0.00119945 1.85591)
(0.000420156 0.00125642 1.89561)
(-0.000419632 0.00125643 1.89561)
(-0.00119933 0.00119946 1.85591)
(-0.00178448 0.00106472 1.77092)
(-0.00207334 0.000878993 1.63344)
(-0.00207527 0.000675118 1.43543)
(0.00218662 0.00023713 1.47301)
(0.00219644 0.000309403 1.67322)
(0.00189003 0.000374495 1.8116)
(0.00125679 0.000419763 1.89561)
(0.000434304 0.000433925 1.93272)
(-0.000433797 0.000433927 1.93272)
(-0.0012563 0.000419768 1.89561)
(-0.00188957 0.000374504 1.8116)
(-0.00219604 0.000309417 1.67322)
(-0.0021863 0.000237149 1.47301)
(0.00218661 -0.00023746 1.47301)
(0.00219643 -0.0003097 1.67322)
(0.00189003 -0.000374767 1.8116)
(0.00125679 -0.000420018 1.89561)
(0.000434303 -0.000434173 1.93272)
(-0.000433796 -0.000434174 1.93272)
(-0.0012563 -0.000420023 1.89561)
(-0.00188957 -0.000374776 1.8116)
(-0.00219603 -0.000309714 1.67322)
(-0.00218629 -0.00023748 1.47301)
(0.00207558 -0.000675379 1.43543)
(0.00207373 -0.000879237 1.63344)
(0.00178494 -0.00106496 1.77092)
(0.00119983 -0.00119969 1.85591)
(0.000420154 -0.00125666 1.89561)
(-0.00041963 -0.00125667 1.89561)
(-0.00119932 -0.00119971 1.85591)
(-0.00178446 -0.00106499 1.77092)
(-0.00207332 -0.00087928 1.63344)
(-0.00207524 -0.000675439 1.43543)
(0.00186879 -0.00101266 1.36111)
(0.00184372 -0.00130808 1.55249)
(0.00157989 -0.00157974 1.6864)
(0.00106511 -0.0017848 1.77092)
(0.000374914 -0.00188991 1.8116)
(-0.000374354 -0.00188992 1.8116)
(-0.00106456 -0.00178483 1.77092)
(-0.00157938 -0.00157979 1.6864)
(-0.00184327 -0.00130815 1.55249)
(-0.00186843 -0.00101276 1.36111)
(0.00159622 -0.00121452 1.25238)
(0.00154367 -0.00154351 1.42749)
(0.00130824 -0.00184358 1.55249)
(0.000879404 -0.00207361 1.63344)
(0.000309863 -0.00219632 1.67322)
(-0.000309248 -0.00219634 1.67322)
(-0.000878808 -0.00207366 1.63344)
(-0.00130769 -0.00184366 1.55249)
(-0.00154318 -0.00154363 1.4275)
(-0.00159581 -0.00121466 1.25238)
(0.00128408 -0.00128391 1.11324)
(0.0012147 -0.00159608 1.25238)
(0.00101285 -0.00186867 1.36111)
(0.000675569 -0.00207547 1.43543)
(0.000237645 -0.00218652 1.47301)
(-0.000236955 -0.00218654 1.47301)
(-0.000674901 -0.00207554 1.43543)
(-0.00101222 -0.00186877 1.36111)
(-0.00121414 -0.00159622 1.25238)
(-0.00128362 -0.00128408 1.11324)
(0.000168872 0.000168142 1.11514)
(0.000218505 0.000253956 1.25437)
(0.000220765 0.000349195 1.36331)
(0.000162319 0.000431198 1.43786)
(5.988e-05 0.00047774 1.4756)
(-5.87844e-05 0.000477775 1.4756)
(-0.00016126 0.000431302 1.43786)
(-0.000219779 0.000349362 1.36331)
(-0.000217623 0.000254186 1.25437)
(-0.00016816 0.000168412 1.11514)
(0.000254607 0.000217684 1.25437)
(0.000346865 0.000346144 1.42979)
(0.000349449 0.000475112 1.55528)
(0.000255569 0.000580464 1.63671)
(9.36351e-05 0.000639253 1.67678)
(-9.2652e-05 0.000639279 1.67678)
(-0.000254617 0.000580541 1.63671)
(-0.000348561 0.000475239 1.55528)
(-0.000346072 0.000346322 1.42979)
(-0.000253963 0.000217909 1.25437)
(0.000349748 0.000219917 1.3633)
(0.000475739 0.000348702 1.55528)
(0.00047449 0.000473828 1.68998)
(0.000345087 0.000574265 1.77522)
(0.000125883 0.000629383 1.81632)
(-0.000124984 0.000629399 1.81632)
(-0.000344218 0.000574314 1.77522)
(-0.00047368 0.000473911 1.68998)
(-0.000475022 0.000348821 1.55528)
(-0.000349172 0.000220075 1.36331)
(0.000431673 0.000161466 1.43786)
(0.000581018 0.000254814 1.63671)
(0.000574865 0.00034441 1.77522)
(0.000415794 0.00041517 1.86112)
(0.000150941 0.000450095 1.90133)
(-0.000150098 0.000450103 1.90133)
(-0.000414977 0.000415196 1.86112)
(-0.000574105 0.000344455 1.77522)
(-0.00058035 0.000254882 1.63671)
(-0.000431139 0.000161559 1.43786)
(0.000478149 5.90482e-05 1.47559)
(0.000639751 9.28932e-05 1.67677)
(0.000629941 0.000125209 1.81632)
(0.000450688 0.000150312 1.90133)
(0.000161351 0.000160745 1.93895)
(-0.000160535 0.000160748 1.93895)
(-0.000449896 0.000150319 1.90133)
(-0.000629205 0.000125222 1.81632)
(-0.000639108 9.29138e-05 1.67678)
(-0.000477636 5.90773e-05 1.4756)
(0.000478133 -5.95693e-05 1.47559)
(0.000639739 -9.33599e-05 1.67677)
(0.000629933 -0.000125635 1.81632)
(0.000450684 -0.000150713 1.90133)
(0.000161349 -0.000161135 1.93895)
(-0.000160534 -0.000161138 1.93895)
(-0.000449893 -0.000150722 1.90133)
(-0.000629198 -0.000125652 1.81632)
(-0.000639096 -9.3384e-05 1.67678)
(-0.00047762 -5.96024e-05 1.4756)
(0.000431625 -0.00016197 1.43786)
(0.000580981 -0.000255266 1.63671)
(0.000574841 -0.000344823 1.77522)
(0.000415781 -0.000415559 1.86112)
(0.000150936 -0.000450473 1.90133)
(-0.000150095 -0.000450482 1.90133)
(-0.000414966 -0.000415586 1.86112)
(-0.000574083 -0.000344871 1.77522)
(-0.000580314 -0.000255337 1.63671)
(-0.00043109 -0.000162067 1.43786)
(0.000349669 -0.000220388 1.3633)
(0.000475678 -0.000349125 1.55528)
(0.00047445 -0.000474214 1.68998)
(0.000345064 -0.000574627 1.77522)
(0.000125874 -0.000629734 1.81632)
(-0.00012498 -0.00062975 1.81632)
(-0.000344198 -0.000574677 1.77522)
(-0.000473642 -0.000474298 1.68998)
(-0.000474963 -0.000349246 1.55528)
(-0.000349094 -0.000220547 1.36331)
(0.000254497 -0.000218106 1.25437)
(0.000346779 -0.000346523 1.42979)
(0.00034939 -0.000475454 1.55528)
(0.000255533 -0.000580783 1.63671)
(9.36213e-05 -0.000639561 1.67677)
(-9.26448e-05 -0.000639587 1.67678)
(-0.000254587 -0.00058086 1.63671)
(-0.000348506 -0.000475582 1.55528)
(-0.000345989 -0.000346702 1.42979)
(-0.000253854 -0.000218331 1.25437)
(0.000168743 -0.000168487 1.11514)
(0.000218395 -0.000254266 1.25437)
(0.000220685 -0.000349472 1.3633)
(0.00016227 -0.000431454 1.43786)
(5.98601e-05 -0.000477986 1.47559)
(-5.87747e-05 -0.00047802 1.4756)
(-0.000161219 -0.000431557 1.43786)
(-0.000219707 -0.000349637 1.36331)
(-0.000217519 -0.000254495 1.25437)
(-0.000168034 -0.000168753 1.11514)
(0.00032503 0.000323951 1.11291)
(0.000305605 0.000402036 1.25249)
(0.000253263 0.000469546 1.36179)
(0.000168308 0.000520371 1.43663)
(5.95232e-05 0.000547601 1.47452)
(-5.78964e-05 0.000547651 1.47452)
(-0.000166735 0.000520521 1.43663)
(-0.0002518 0.000469788 1.36179)
(-0.000304299 0.000402368 1.2525)
(-0.000323975 0.000324336 1.11291)
(0.000403003 0.000304382 1.25249)
(0.000386135 0.000385056 1.42848)
(0.000324392 0.000457603 1.55449)
(0.000216846 0.000512713 1.63633)
(7.6591e-05 0.000542081 1.67662)
(-7.51215e-05 0.000542119 1.67662)
(-0.000215423 0.000512827 1.63633)
(-0.000323066 0.00045779 1.5545)
(-0.000384953 0.000385316 1.42848)
(-0.000402042 0.000304709 1.2525)
(0.000470371 0.000251995 1.36179)
(0.000458547 0.000323268 1.55449)
(0.000388814 0.000387813 1.68987)
(0.000260497 0.000436241 1.77563)
(9.18093e-05 0.000461264 1.81702)
(-9.04608e-05 0.000461287 1.81702)
(-0.000259191 0.000436314 1.77563)
(-0.000387598 0.000387936 1.68987)
(-0.000457472 0.000323444 1.5545)
(-0.000469509 0.000252225 1.36179)
(0.000521083 0.000167028 1.43663)
(0.000513549 0.000215707 1.63633)
(0.00043715 0.00025947 1.77563)
(0.000292273 0.000291325 1.86213)
(0.000102499 0.000305319 1.90266)
(-0.000101231 0.000305331 1.90266)
(-0.000291043 0.000291363 1.86213)
(-0.000436007 0.000259537 1.77563)
(-0.000512545 0.000215807 1.63633)
(-0.00052028 0.000167165 1.43663)
(0.000548214 5.8274e-05 1.47452)
(0.000542833 7.54692e-05 1.67662)
(0.000462109 9.07859e-05 1.81702)
(0.00030622 0.000101542 1.90266)
(0.000106028 0.000105105 1.9406)
(-0.000104798 0.000105109 1.9406)
(-0.000305028 0.000101553 1.90266)
(-0.000461002 9.08058e-05 1.81702)
(-0.000541865 7.54994e-05 1.67663)
(-0.000547442 5.83161e-05 1.47452)
(0.000548188 -5.90764e-05 1.47452)
(0.000542814 -7.61934e-05 1.67662)
(0.000462097 -9.14509e-05 1.81702)
(0.000306214 -0.000102169 1.90266)
(0.000106025 -0.000105715 1.9406)
(-0.000104797 -0.000105719 1.9406)
(-0.000305022 -0.000102183 1.90266)
(-0.000460991 -9.14755e-05 1.81702)
(-0.000541847 -7.62299e-05 1.67663)
(-0.000547418 -5.91264e-05 1.47452)
(0.000521006 -0.000167805 1.43663)
(0.000513491 -0.000216408 1.63633)
(0.000437112 -0.000260114 1.77563)
(0.000292251 -0.000291932 1.86213)
(0.000102491 -0.00030591 1.90266)
(-0.000101227 -0.000305923 1.90266)
(-0.000291026 -0.000291973 1.86213)
(-0.000435973 -0.000260186 1.77563)
(-0.00051249 -0.000216514 1.63633)
(-0.000520206 -0.000167948 1.43663)
(0.000470248 -0.000252719 1.36179)
(0.00045845 -0.000323923 1.55449)
(0.000388749 -0.000388413 1.68987)
(0.000260458 -0.000436806 1.77563)
(9.1794e-05 -0.000461812 1.81702)
(-9.04544e-05 -0.000461836 1.81702)
(-0.000259161 -0.00043688 1.77563)
(-0.000387541 -0.000388539 1.68987)
(-0.000457382 -0.000324102 1.5545)
(-0.000469391 -0.000252954 1.36179)
(0.000402832 -0.00030503 1.25249)
(0.000385999 -0.000385641 1.42848)
(0.000324297 -0.000458134 1.55449)
(0.000216788 -0.00051321 1.63633)
(7.65669e-05 -0.000542561 1.67662)
(-7.51129e-05 -0.000542599 1.67662)
(-0.00021538 -0.000513325 1.63633)
(-0.000322985 -0.000458324 1.5545)
(-0.000384829 -0.000385903 1.42848)
(-0.00040188 -0.000305358 1.2525)
(0.000324828 -0.000324475 1.11291)
(0.000305431 -0.000402512 1.25249)
(0.000253136 -0.000469972 1.36179)
(0.000168227 -0.000520768 1.43663)
(5.9488e-05 -0.000547982 1.47452)
(-5.78858e-05 -0.000548032 1.47452)
(-0.000166677 -0.000520918 1.43663)
(-0.000251695 -0.000470214 1.36179)