/*--------------------------------*- C++ -*----------------------------------*\
| =========                 |                                                 |
| \\      /  F ield         | OpenFOAM: The Open Source CFD Toolbox           |
|  \\    /   O peration     | Version:  2406                                  |
|   \\  /    A nd           | Website:  www.openfoam.com                      |
|    \\/     M anipulation  |                                                 |
\*---------------------------------------------------------------------------*/
FoamFile
{
    version     2.0;
    format      ascii;
    arch        "LSB;label=32;scalar=64";
    class       volScalarField;
    location    "0.7";
    object      div(phi);
}
// * * * * * * * * * * * * * * * * * * * * * * * * * * * * * * * * * * * * * //

dimensions      [0 0 -1 0 0 0 0];

internalField   nonuniform List<scalar> 
25000
(
0.016406
0.0149762
0.0151592
0.0147632
0.0143388
0.0139682
0.0136665
0.0132975
0.0135125
0.0111015
0.0144142
0.0127368
0.0126869
0.0125716
0.0122561
0.0115998
0.0114427
0.0114139
0.0106732
0.00877405
0.0135749
0.0119779
0.0123802
0.0123112
0.0118049
0.0114354
0.0110604
0.0107489
0.01071
0.00850262
0.012964
0.0114457
0.0116654
0.0117674
0.0114421
0.0108007
0.0106612
0.0106742
0.0100666
0.00836502
0.012339
0.0106895
0.0112133
0.0112928
0.010882
0.0105807
0.0103134
0.0101125
0.00997091
0.00808802
0.0118828
0.0103107
0.0105713
0.0107362
0.0104988
0.0100038
0.00987354
0.00988917
0.00953412
0.00779136
0.0113675
0.00963513
0.0100272
0.0101227
0.00974672
0.00949094
0.00947776
0.00938165
0.00910824
0.0075422
0.0108216
0.00916121
0.00936584
0.00932788
0.0091106
0.0090636
0.00886259
0.00893725
0.00892978
0.00713504
0.0100662
0.00842178
0.00843557
0.00850308
0.00842516
0.00822422
0.00831444
0.00849681
0.00812425
0.00663698
0.00826368
0.00659274
0.00675437
0.00677748
0.00672205
0.00674715
0.00675687
0.00667908
0.00645686
0.0051063
0.0139511
0.0128221
0.0127864
0.0123535
0.0120656
0.0117674
0.011861
0.0118834
0.0121102
0.0103173
0.0122213
0.0105434
0.0105434
0.010323
0.0100837
0.0097686
0.00967132
0.00985021
0.00981632
0.00831755
0.0116863
0.0100847
0.0101783
0.0102805
0.0100124
0.00963672
0.00953181
0.00948925
0.00953876
0.00815867
0.0112748
0.00964166
0.0100177
0.0101572
0.00991671
0.00956101
0.00935362
0.00935016
0.00921149
0.00795677
0.0112285
0.00945872
0.00979084
0.0100477
0.00979639
0.00944512
0.00927109
0.0091628
0.00899156
0.00780414
0.0110479
0.00929228
0.00965641
0.00981762
0.00960112
0.00925611
0.0090268
0.00894413
0.00890701
0.00760015
0.0112751
0.00918696
0.00938094
0.00950897
0.00920067
0.0088509
0.00877009
0.00880109
0.00856863
0.00756873
0.0110887
0.00910537
0.00913879
0.0089944
0.00872831
0.00855027
0.00845379
0.00836694
0.00878913
0.00733078
0.0109716
0.00889895
0.00863891
0.0085754
0.00823119
0.0081373
0.00794661
0.00846559
0.00815837
0.0068714
0.00912434
0.0071847
0.00725305
0.00707651
0.00697367
0.00683059
0.00690013
0.0068311
0.00656948
0.00530623
0.0237457
0.0211058
0.0206223
0.0191219
0.0176797
0.01667
0.0160976
0.015239
0.0158873
0.0127443
0.0200576
0.01659
0.0154766
0.0144235
0.0136123
0.0123301
0.0121908
0.0124825
0.0116199
0.00997173
0.0174825
0.0141721
0.0138291
0.0129073
0.0117725
0.0112825
0.0108121
0.0105845
0.0113044
0.00924346
0.015855
0.0128077
0.0119487
0.0114815
0.010769
0.00982896
0.0097805
0.0101648
0.00989536
0.00887043
0.0143266
0.0112041
0.0111528
0.010549
0.00977788
0.00942041
0.00913975
0.00918315
0.00970564
0.00840244
0.0136021
0.0108519
0.0102004
0.00994293
0.00937514
0.00876105
0.00872673
0.00905786
0.00923632
0.00811758
0.0129873
0.0100351
0.00995689
0.00942836
0.00884466
0.00847981
0.00856049
0.00884222
0.00903568
0.00805494
0.0124695
0.00996378
0.00952233
0.00911618
0.00858521
0.00847692
0.00848474
0.00875128
0.00935361
0.00775837
0.0117487
0.00946951
0.00909587
0.00887035
0.00850251
0.00834197
0.00841198
0.0090294
0.0088036
0.00744598
0.00968551
0.00767193
0.00776368
0.00755049
0.00738346
0.00730524
0.00741818
0.00737874
0.00719732
0.00566936
0.00973855
0.00962276
0.0104471
0.0104848
0.0110996
0.0113216
0.0119516
0.0114268
0.0120339
0.00964502
0.00913316
0.00858649
0.00854191
0.00896023
0.00911712
0.00903525
0.00932531
0.00985933
0.00918807
0.00796419
0.00871078
0.00767462
0.00806501
0.00813605
0.00801527
0.00819591
0.00836254
0.00846749
0.00904153
0.00760681
0.00863848
0.00740073
0.00741672
0.00741853
0.00728175
0.0071395
0.00753631
0.00818996
0.00820737
0.00739881
0.00872923
0.00713577
0.0071774
0.00707585
0.00670025
0.00681128
0.00715092
0.00763336
0.0080727
0.00719703
0.00870061
0.00724838
0.00723975
0.00701103
0.00680348
0.00666967
0.00706502
0.00760387
0.00795524
0.00703375
0.00918618
0.00734823
0.00735641
0.00734658
0.00694565
0.00696315
0.00720596
0.00772457
0.00780492
0.00704521
0.008922
0.00763923
0.00758939
0.00744767
0.00728444
0.00724681
0.00747136
0.0076085
0.00814974
0.00680027
0.0091221
0.00735702
0.00759276
0.00753697
0.00740277
0.00742993
0.00732098
0.00793096
0.00752399
0.00631586
0.00729537
0.00608686
0.00634725
0.00643033
0.00642781
0.00636258
0.00643063
0.00632078
0.00591017
0.00480148
0.0246823
0.0219114
0.0217194
0.019995
0.0182646
0.016868
0.0157909
0.0142596
0.0147906
0.0114008
0.020444
0.0172048
0.0158631
0.014654
0.0137768
0.0119217
0.011742
0.0117931
0.0103789
0.00892614
0.0171917
0.0139017
0.0137592
0.0125285
0.011002
0.0105689
0.00984825
0.00941152
0.0102419
0.00803277
0.0151481
0.0123867
0.0111197
0.0103648
0.00929738
0.00816846
0.00846446
0.00900429
0.00845138
0.00767881
0.0132229
0.0102238
0.0101232
0.00885913
0.00756969
0.00741197
0.00748932
0.00766155
0.00843747
0.00706529
0.0124467
0.00990748
0.00882899
0.00822304
0.00725181
0.00669638
0.00706965
0.00768878
0.00763742
0.00683329
0.0114235
0.00880553
0.00870385
0.00778755
0.00707422
0.00678032
0.00698961
0.007167
0.00762065
0.00657788
0.0110267
0.00859565
0.00809738
0.00757543
0.00698599
0.00680727
0.00681348
0.00722913
0.00750671
0.00630876
0.00981678
0.00813334
0.00747427
0.00732967
0.00680196
0.00667054
0.00674213
0.00709803
0.00708274
0.00583015
0.00822005
0.0064507
0.00651056
0.00617755
0.00599574
0.00586101
0.00589616
0.00589064
0.00570591
0.00443839
0.0032427
0.00385825
0.00492365
0.0052287
0.00619715
0.0065955
0.00744993
0.00722637
0.00768523
0.00630032
0.00367281
0.00419688
0.00454103
0.00519521
0.00563297
0.00585008
0.00618108
0.0066534
0.00631598
0.00555185
0.00414392
0.00404489
0.00457672
0.00495378
0.0051503
0.00543802
0.00575817
0.00598545
0.00636695
0.00550788
0.00464614
0.00427147
0.00456165
0.00473182
0.00476242
0.00486934
0.00531261
0.00589859
0.00601831
0.00547583
0.00535683
0.00456301
0.00464228
0.00470288
0.00446649
0.00464696
0.00514124
0.00566322
0.00600931
0.00541859
0.00564914
0.00486269
0.00503093
0.00487436
0.00472182
0.00474352
0.00520128
0.00571452
0.00597922
0.00537976
0.00636372
0.00525356
0.00527511
0.00535086
0.00508643
0.00515756
0.00536788
0.005806
0.00593333
0.00530872
0.00636714
0.00554706
0.00562763
0.00553276
0.00548733
0.00537495
0.00562215
0.00570404
0.00601374
0.00515136
0.00662444
0.00548654
0.00563897
0.0057147
0.00550552
0.00564003
0.00535597
0.00580496
0.00548226
0.00450234
0.00531709
0.00448674
0.00475423
0.00480492
0.00487055
0.00472123
0.00473563
0.00463118
0.00415038
0.00349556
0.0209482
0.0186136
0.0181767
0.0169158
0.0153952
0.014258
0.0132991
0.0123374
0.0126046
0.00987633
0.0178307
0.0146118
0.0134791
0.0123832
0.0114796
0.0100729
0.00989633
0.00992604
0.00906564
0.00763308
0.0154401
0.0122606
0.0118949
0.0107807
0.00943456
0.008948
0.00845422
0.00824078
0.00882606
0.00697066
0.0136651
0.0109325
0.00983643
0.009052
0.00800808
0.00706189
0.00736124
0.00781361
0.00750008
0.00668147
0.0119241
0.00909966
0.00893135
0.00776882
0.00655692
0.00635415
0.00654
0.00679223
0.00741699
0.00619478
0.0110984
0.00872828
0.00778812
0.00718065
0.00630161
0.00581052
0.00622069
0.00677623
0.00680815
0.00598057
0.0101509
0.00767207
0.00756653
0.00680612
0.00613002
0.00592191
0.00620438
0.00637727
0.00677716
0.00580071
0.00957377
0.00744154
0.00695686
0.00654453
0.00603335
0.00603656
0.0059947
0.00650328
0.00674131
0.00556126
0.00855977
0.00682197
0.0064422
0.00620871
0.00597277
0.00573415
0.00611144
0.00635078
0.00644751
0.00528626
0.00704199
0.00549746
0.00552144
0.0053304
0.00513047
0.00517137
0.00523477
0.00529508
0.0052754
0.00396405
-0.000117014
0.00059887
0.0015677
0.00189257
0.00305652
0.00357823
0.00452661
0.00479913
0.00495434
0.0043284
0.000866565
0.00149864
0.00186228
0.00273286
0.0031174
0.00373642
0.00402656
0.00441147
0.00459602
0.00392743
0.00131482
0.00167273
0.00221485
0.00275782
0.00322837
0.00349724
0.00401611
0.00443989
0.00452193
0.00414277
0.00216643
0.00200944
0.00257283
0.00289539
0.00310489
0.0034734
0.00387451
0.00432244
0.00471829
0.00416975
0.00287473
0.00257471
0.00275677
0.00311572
0.00314931
0.00334371
0.00389234
0.00448394
0.00461339
0.00428558
0.00320104
0.00285655
0.00332443
0.00332148
0.00346666
0.00360749
0.00407688
0.00446756
0.0048553
0.00426856
0.00403819
0.0032535
0.00346167
0.00392048
0.00377888
0.00404403
0.00429214
0.00475328
0.00477415
0.00430782
0.00368166
0.00367873
0.00383553
0.00405094
0.00422849
0.00433807
0.00456368
0.00469166
0.00497673
0.00418728
0.00443262
0.00321703
0.00415986
0.0041706
0.00444624
0.00447914
0.00450178
0.00481426
0.00456922
0.00374669
0.00315859
0.00299334
0.00331008
0.00369498
0.0037672
0.00384694
0.00386176
0.00381877
0.00346716
0.0028557
0.0196249
0.0169605
0.015865
0.0143589
0.0122176
0.010841
0.00968534
0.00861869
0.00878184
0.00686059
0.0157677
0.0128885
0.0119235
0.0100953
0.0091654
0.00745988
0.00708352
0.00698237
0.0062062
0.00533058
0.013494
0.0109449
0.0102489
0.00897116
0.00742165
0.00671145
0.00605826
0.00569909
0.00615373
0.00481811
0.0118906
0.00971084
0.00849601
0.0075333
0.00633289
0.00524298
0.00523741
0.00548042
0.00510188
0.00463819
0.0102384
0.00811399
0.00778265
0.00642834
0.00517684
0.00470025
0.00465413
0.00465228
0.00514122
0.00423677
0.00982512
0.00775579
0.0066163
0.00603673
0.00486495
0.00432867
0.004354
0.00470102
0.00456903
0.00412413
0.00838667
0.00679053
0.00654572
0.00533723
0.0047829
0.00418591
0.00424932
0.00421165
0.00457998
0.00386365
0.00856462
0.00624465
0.00581104
0.00513612
0.00441384
0.00408187
0.00397482
0.00420795
0.0043205
0.00369518
0.00667683
0.00621678
0.00486572
0.00483842
0.0039774
0.00390787
0.00374628
0.00395411
0.00404235
0.00327649
0.0060579
0.00458854
0.00450369
0.00388166
0.00369304
0.0033945
0.00338851
0.00337402
0.00328156
0.00254171
-0.00460036
-0.00310335
-0.00229804
-0.00140948
-0.000295481
0.000336156
0.00134983
0.00156321
0.00167957
0.0017501
-0.0028451
-0.00131588
-0.000358408
0.000133582
0.000721382
0.00134018
0.0015087
0.00186247
0.00212182
0.00196393
-0.000978045
7.38179e-05
0.000260573
0.000870747
0.00132026
0.0014652
0.00193135
0.0022348
0.00220681
0.00230184
0.000298759
0.000729768
0.00132118
0.00146233
0.00158495
0.00191263
0.00202959
0.00230455
0.00263824
0.00241803
0.00158598
0.00184735
0.0017336
0.00195281
0.00197123
0.00193358
0.00227922
0.00263935
0.00262815
0.00261019
0.00231424
0.00215388
0.00246183
0.00239602
0.00225169
0.00237144
0.00247509
0.00266617
0.0029166
0.00268065
0.00292609
0.00285142
0.00276464
0.00277169
0.00271748
0.00259007
0.0026155
0.00290925
0.00285767
0.00265703
0.00337454
0.00295322
0.00314432
0.00301187
0.00294868
0.00270283
0.0028879
0.00269806
0.00290485
0.00261105
0.00334151
0.00322393
0.00302326
0.00320371
0.00279755
0.00302422
0.00245173
0.00281221
0.00248984
0.00204315
0.00283756
0.00245681
0.0026363
0.00252668
0.00262812
0.00234091
0.00232668
0.00219541
0.00175096
0.0016935
0.0146287
0.0128133
0.0121101
0.0112519
0.0098018
0.00882993
0.00798239
0.00732678
0.00734361
0.00585632
0.012309
0.00978999
0.00911998
0.00789211
0.0071745
0.0060468
0.00577075
0.00570848
0.00530495
0.00446031
0.0108303
0.00855113
0.00799737
0.00708336
0.00596137
0.00540467
0.00501491
0.00485545
0.00513345
0.00410534
0.00960294
0.00761604
0.00674857
0.00602755
0.00511698
0.00434282
0.00439473
0.00459068
0.00444638
0.00394332
0.00826733
0.00638015
0.00616676
0.00519051
0.0042409
0.00388385
0.00394155
0.00405458
0.00437208
0.00367646
0.0077709
0.00606633
0.00526745
0.00483053
0.00401978
0.00364429
0.00375615
0.00402175
0.00406519
0.00354662
0.00674743
0.00522057
0.00513717
0.00436546
0.00394586
0.00359002
0.00373267
0.00380553
0.00399822
0.00345305
0.00652991
0.00491651
0.00454635
0.00420387
0.00370595
0.00365108
0.00357596
0.00380895
0.00402359
0.00329127
0.0053877
0.00457117
0.00402146
0.00390004
0.00356185
0.00341533
0.00355019
0.00376144
0.0038072
0.00317536
0.00463232
0.00357551
0.00356571
0.00328262
0.00312721
0.00306209
0.00311475
0.00312892
0.00317063
0.00237232
-0.00373052
-0.00270864
-0.00198739
-0.00138199
-0.00027791
0.000249908
0.00116271
0.00151185
0.00145065
0.00161648
-0.0023698
-0.00130106
-0.000613459
3.32999e-05
0.000454572
0.00118467
0.00130615
0.00156935
0.00199529
0.00172166
-0.00123187
-0.000355607
-0.000114334
0.000511509
0.0010454
0.00117628
0.0016934
0.0020794
0.00189666
0.00210224
-0.000222707
8.07082e-05
0.000774611
0.00100253
0.00121574
0.0016611
0.00179867
0.00200604
0.00249775
0.00216545
0.000790956
0.00105377
0.0010369
0.00144144
0.00159646
0.00162792
0.00202872
0.0024782
0.00232566
0.00242726
0.0012335
0.00125194
0.00176892
0.00176691
0.00186321
0.00207237
0.00225846
0.00238862
0.00281107
0.00243664
0.00203291
0.00189067
0.00194091
0.00228712
0.00228074
0.0023488
0.00245707
0.00285851
0.00264317
0.00256995
0.00201195
0.00216155
0.00237978
0.00249802
0.00260258
0.00259738
0.00280197
0.00263253
0.00297802
0.00249463
0.00260317
0.00209577
0.00259069
0.00264861
0.00269601
0.00282361
0.00256472
0.00294822
0.00258701
0.00222225
0.00187058
0.0018163
0.00202243
0.00221218
0.00231046
0.00225701
0.00229823
0.0022071
0.00191345
0.00171694
0.0138347
0.0119795
0.0111767
0.0102772
0.00867971
0.00772219
0.00683955
0.00607735
0.00621965
0.00483884
0.0112854
0.00911161
0.00848832
0.00708844
0.00646481
0.00518385
0.00492853
0.00487299
0.00431269
0.00370815
0.00997746
0.00789436
0.00733468
0.00638344
0.00521371
0.00469893
0.00420961
0.00392678
0.00429902
0.00331366
0.0087641
0.00708348
0.00610747
0.00536834
0.00447779
0.00365138
0.00363221
0.00380967
0.00350217
0.00319386
0.00759906
0.00589995
0.00562997
0.00456933
0.0036366
0.00328694
0.00323469
0.00318467
0.00357389
0.00288733
0.00729041
0.00567217
0.00471703
0.00427945
0.0033841
0.00300483
0.00300434
0.00326026
0.00311869
0.00282391
0.0061255
0.00489881
0.00468125
0.00369183
0.00330737
0.00285223
0.00291834
0.00284104
0.00316492
0.00261411
0.00633206
0.00444879
0.00407694
0.00354246
0.00298277
0.00275787
0.00265675
0.00287944
0.00291654
0.00250722
0.00474147
0.00446054
0.00331543
0.00330328
0.0026422
0.00258328
0.00251377
0.00261682
0.00275862
0.00220312
0.00442309
0.00327222
0.00317138
0.00265958
0.00250612
0.00228905
0.00228014
0.00228659
0.00225836
0.001705
-0.00192427
-0.00129939
-0.000751716
-0.000452518
0.000271414
0.000563391
0.00126489
0.00131132
0.00132362
0.0013763
-0.00114149
-0.000185466
0.000367391
0.000668493
0.000987342
0.0013522
0.00136783
0.00156816
0.00172482
0.00158224
-0.000422587
0.000405167
0.000585162
0.00101436
0.00131665
0.00134618
0.00165644
0.00185038
0.00175539
0.00186782
0.000417098
0.000703619
0.00120412
0.00132856
0.00140473
0.00165656
0.00168776
0.00186369
0.00213975
0.00194183
0.00120921
0.00146421
0.00141851
0.00163079
0.00165678
0.00161855
0.00187859
0.00216496
0.00209021
0.00212295
0.00171555
0.00164721
0.00195976
0.0019216
0.00184298
0.0019614
0.00203596
0.0021535
0.00237871
0.00217921
0.00220229
0.00214477
0.00215139
0.00224153
0.00220439
0.00213958
0.00213359
0.00240303
0.00231092
0.00217644
0.00240165
0.00227371
0.00244388
0.00241536
0.00241907
0.002217
0.00239702
0.00219904
0.00237817
0.00215192
0.00251774
0.00233424
0.00241778
0.00256991
0.00230918
0.00251142
0.00200894
0.00232444
0.00202263
0.00166236
0.00200874
0.00186655
0.00205638
0.00204692
0.0021449
0.00191928
0.00190663
0.00179916
0.00139512
0.00139695
0.0178991
0.0155663
0.0145482
0.0132188
0.0112254
0.00999497
0.0088507
0.00804486
0.00798536
0.00629564
0.0144471
0.0117158
0.0108852
0.00916067
0.00829985
0.00675313
0.00642995
0.00625482
0.00572066
0.00477553
0.0123243
0.0100226
0.00937862
0.00819479
0.00678468
0.00611472
0.00552896
0.00529006
0.00555595
0.00436576
0.0109332
0.00887903
0.00776892
0.00690292
0.00580296
0.00486831
0.00486381
0.0049991
0.00475662
0.00417044
0.00931325
0.00736268
0.00710023
0.00585348
0.00475703
0.0043666
0.0043456
0.00438469
0.00467156
0.00387353
0.00891136
0.00701676
0.00598695
0.00547183
0.00443831
0.00406538
0.00410582
0.00434394
0.00433926
0.0037291
0.00758663
0.00609704
0.00594681
0.00488086
0.00444805
0.0039295
0.00407245
0.00410569
0.00424862
0.00364109
0.00770117
0.00567276
0.00528143
0.00478113
0.00412022
0.00398585
0.0038887
0.00405412
0.00429514
0.00346333
0.00608817
0.00557837
0.00453562
0.00447087
0.00386341
0.00375245
0.00376154
0.00403394
0.00401926
0.00333759
0.00551329
0.00420735
0.00415204
0.0036625
0.00348452
0.00330575
0.00335951
0.00332167
0.00335162
0.00248781
-0.00204433
-0.000835877
-4.74608e-05
0.000599009
0.00155065
0.00202441
0.00278514
0.00303023
0.00296116
0.00277159
-0.000739369
0.000241785
0.000956493
0.00145616
0.00182412
0.00234818
0.00249269
0.00272157
0.00301544
0.00256693
0.000375287
0.00112143
0.00134348
0.00181187
0.00217718
0.00226331
0.00266068
0.00301913
0.00288511
0.00283913
0.00132515
0.0014608
0.00199032
0.0021269
0.00218734
0.00249112
0.00265636
0.00287294
0.00327606
0.00283811
0.00213184
0.00221312
0.00217236
0.00237318
0.00236777
0.00238723
0.00275623
0.00319746
0.00307488
0.00302665
0.00258014
0.00236595
0.00272072
0.00263839
0.00256831
0.00273586
0.00293006
0.00308529
0.00347924
0.00299554
0.00317113
0.00290583
0.00291448
0.00307537
0.00300788
0.00299225
0.00311025
0.00351347
0.00328634
0.00311687
0.0032871
0.00310197
0.00328606
0.00330201
0.00329196
0.00324263
0.00344152
0.00326049
0.00363986
0.00301379
0.00360149
0.00313034
0.00336161
0.00343268
0.00333251
0.00347034
0.00315815
0.00360639
0.00319477
0.00272284
0.00283293
0.00254376
0.00274387
0.00282041
0.00290593
0.00279349
0.00284868
0.00273061
0.00242075
0.00210202
0.0151902
0.0133766
0.0127633
0.0118492
0.0103726
0.00946827
0.00850664
0.00781851
0.00798172
0.00614371
0.0126589
0.010239
0.00942272
0.00828899
0.0075826
0.00635639
0.00620782
0.0061536
0.00552373
0.00460837
0.0110382
0.00866645
0.00822808
0.00725042
0.00611007
0.00569223
0.00520357
0.00495287
0.00540117
0.00407828
0.00960978
0.00770772
0.00671023
0.00601383
0.00516451
0.00436592
0.0044798
0.00472067
0.00435993
0.00388125
0.00822803
0.00628251
0.00607082
0.00503988
0.00411076
0.00391388
0.00391769
0.00390583
0.00438941
0.00347491
0.00768023
0.00598431
0.00508007
0.00460576
0.0038345
0.00346569
0.00361958
0.00397035
0.00380234
0.00336102
0.00663655
0.00512655
0.00495561
0.00413851
0.00367857
0.00339872
0.00355781
0.003477
0.00387643
0.00313505
0.00652367
0.00478968
0.00439649
0.00394187
0.00346347
0.00336671
0.00324048
0.00363688
0.00360978
0.00301359
0.00530119
0.00457786
0.00380694
0.00368418
0.00326636
0.00308936
0.00330004
0.00329525
0.00351266
0.00274809
0.00464622
0.00351059
0.00343104
0.00308239
0.00289364
0.00282611
0.00281134
0.00285934
0.00288355
0.00207089
-0.00349813
-0.0024404
-0.0015499
-0.000999955
0.000169298
0.000794834
0.00166764
0.00195054
0.00208448
0.0018978
-0.00229063
-0.00100587
-0.000436099
0.000374709
0.000846494
0.00150711
0.0017693
0.00206374
0.00222214
0.00192351
-0.00130697
-0.000407455
1.33237e-05
0.000629547
0.00118874
0.00147211
0.00190708
0.00220379
0.00221478
0.00213089
-0.000490633
2.07248e-05
0.000661108
0.000972375
0.00126774
0.00167624
0.00189997
0.0021834
0.00244697
0.00216874
0.000539602
0.000840167
0.000883643
0.00131632
0.00149519
0.00165743
0.00202582
0.00237192
0.00239542
0.00229099
0.000914674
0.00106603
0.00157537
0.00158618
0.00174178
0.00192895
0.00216123
0.0023856
0.00259798
0.00231936
0.00181226
0.00175102
0.00175435
0.00211354
0.00208385
0.00222044
0.002329
0.0025991
0.00257414
0.00232096
0.00190376
0.00201699
0.00226237
0.00230365
0.00244415
0.00238384
0.00256321
0.00251747
0.00263548
0.0022951
0.00252805
0.00213963
0.00243521
0.00253014
0.0024876
0.00262642
0.00237491
0.00258958
0.00235454
0.00186513
0.00189122
0.00174628
0.0019382
0.00206716
0.00217097
0.0020885
0.00208184
0.00200973
0.00166683
0.00149311
0.0171038
0.0149324
0.0143499
0.0131774
0.0115964
0.0105341
0.00937865
0.00862463
0.00871742
0.00668214
0.0142075
0.0112473
0.0101471
0.00910317
0.00827124
0.0069464
0.00678513
0.00664678
0.00595325
0.00491507
0.0118152
0.00906558
0.00875256
0.00770196
0.00653114
0.0061347
0.0055652
0.00531074
0.00573695
0.00430681
0.0100555
0.0078766
0.00682047
0.00620836
0.00540203
0.00457846
0.00475175
0.00495378
0.00459419
0.00403705
0.0082736
0.00606592
0.00602665
0.00505639
0.00415993
0.00404723
0.00403486
0.00406935
0.00451689
0.00360078
0.00741065
0.0057176
0.00486417
0.0044545
0.00382375
0.0034499
0.00370255
0.00403165
0.00395874
0.00340926
0.00645124
0.00463508
0.00463503
0.00400382
0.0035575
0.00341217
0.00363107
0.0036385
0.00394579
0.00328826
0.00591434
0.00443939
0.00400163
0.00375999
0.00336519
0.00347142
0.00335816
0.00380099
0.00390885
0.00312982
0.00510802
0.00391297
0.00364948
0.00343526
0.00337681
0.0031164
0.00359653
0.00364927
0.00384566
0.00314996
0.00425106
0.0032025
0.00317499
0.00303842
0.00285086
0.00296248
0.00301667
0.00309812
0.00327109
0.00229618
-0.00483175
-0.0037304
-0.00264593
-0.00224686
-0.000873399
-0.000216315
0.00068165
0.00108673
0.00111179
0.00115009
-0.00323818
-0.00203799
-0.00162557
-0.000466625
1.12259e-06
0.000783413
0.00106091
0.00128084
0.00153282
0.00129448
-0.00285816
-0.00177826
-0.00104453
-0.000338905
0.000403317
0.000777561
0.00123132
0.00158679
0.00148113
0.00156782
-0.00185961
-0.00129807
-0.000540302
3.28769e-05
0.000526784
0.00105453
0.0013219
0.00152053
0.00187081
0.00159602
-0.00107262
-0.000605588
-0.00026149
0.000415271
0.000801981
0.00108897
0.00144586
0.00184457
0.00173855
0.00179047
-0.000784521
-0.000300599
0.000409838
0.000620744
0.00108226
0.00133633
0.00164427
0.00177529
0.00209731
0.00178613
0.000282544
0.000174983
0.000519439
0.00125061
0.0013179
0.00168125
0.00180482
0.00215922
0.00199484
0.00191954
-0.000176642
0.000733121
0.000972021
0.00140367
0.00175554
0.00191329
0.00211159
0.00206507
0.00227452
0.00187534
0.00110584
0.000278139
0.00157178
0.00158003
0.00206151
0.00210012
0.00210481
0.0022987
0.00203422
0.00170726
0.000274131
0.000728366
0.00102131
0.00153666
0.00163693
0.00176622
0.00176538
0.00171524
0.00147452
0.00128276
0.0197408
0.0167133
0.0152174
0.0134564
0.0107186
0.00912356
0.00746268
0.00616644
0.00628799
0.00459901
0.0151406
0.0121521
0.0110512
0.00879085
0.007797
0.00564591
0.00520314
0.00487168
0.00383462
0.00334344
0.0123189
0.00988498
0.00910312
0.00757095
0.00582829
0.00510519
0.00408063
0.00345176
0.00389388
0.00268803
0.0103869
0.00851232
0.00699755
0.00599044
0.00478314
0.00353579
0.00333185
0.00330888
0.00263228
0.00246835
0.00831173
0.00656002
0.00624741
0.00470693
0.00352676
0.00308584
0.00268646
0.00232846
0.00272437
0.00199576
0.00787444
0.00615494
0.00476237
0.00424344
0.0030171
0.00249156
0.0022542
0.00237091
0.00202437
0.00188045
0.00598829
0.00500694
0.0047506
0.00327083
0.0028548
0.00210251
0.00201679
0.00175483
0.00204859
0.00162846
0.00652771
0.00431118
0.00385604
0.00309596
0.00227628
0.00184195
0.00164683
0.0017181
0.00174172
0.0015179
0.00422358
0.00464154
0.00275871
0.00280969
0.00171293
0.00168709
0.00137344
0.00149663
0.00162359
0.00133108
0.0044192
0.00312569
0.00292038
0.00206499
0.00185756
0.00144661
0.00142751
0.00138882
0.00144341
0.00106848
-0.0104721
-0.00824183
-0.00732824
-0.00621484
-0.00491634
-0.00404171
-0.00299816
-0.00272069
-0.00260811
-0.00181421
-0.00794804
-0.00535537
-0.00413674
-0.00350956
-0.00268447
-0.00200839
-0.00179187
-0.0015648
-0.00135058
-0.000894105
-0.00568551
-0.00355992
-0.00318612
-0.00243212
-0.00175812
-0.00148199
-0.00114712
-0.000964212
-0.00109719
-0.000511714
-0.0040144
-0.00256007
-0.00184581
-0.00147852
-0.00111937
-0.000724801
-0.000766191
-0.000733723
-0.000540639
-0.000359614
-0.00246813
-0.00119887
-0.00118297
-0.000762635
-0.000449433
-0.000457691
-0.000372098
-0.000272355
-0.000486256
-9.88622e-05
-0.00151485
-0.00078236
-0.000349894
-0.000198559
-0.000188106
4.21718e-06
-0.000152924
-0.000236703
-0.0001241
1.70316e-05
-0.000848326
9.318e-05
6.48498e-05
0.000109806
0.00028522
9.06652e-05
-7.6872e-05
6.06375e-05
-0.000175879
5.92283e-05
-2.25791e-05
0.000201414
0.000528303
0.000447006
0.000441149
8.53223e-05
0.000244382
-0.000231442
-0.000103788
0.000102779
1.01108e-05
0.000866845
0.000455209
0.000760371
0.000224119
0.000559318
-0.000290451
1.16798e-05
-0.000388852
-0.000267505
0.000305306
0.000424671
0.000562058
0.000356585
0.00050877
0.000102747
6.26915e-05
-0.000129871
-0.000528857
-2.86827e-05
0.015391
0.0129643
0.011747
0.0104714
0.00826457
0.0069038
0.0053901
0.00443146
0.00435332
0.00317282
0.0122829
0.00929352
0.00829805
0.00657208
0.00563122
0.00396849
0.00352985
0.00314892
0.002465
0.00207508
0.00997162
0.00753217
0.00682609
0.00554209
0.00414501
0.00350115
0.00265161
0.00216981
0.00239018
0.0015566
0.00817694
0.00632107
0.00506293
0.00425432
0.00329077
0.0023044
0.00210883
0.00195888
0.00148956
0.00134543
0.00617036
0.00454179
0.00434825
0.00315389
0.00226775
0.00192853
0.00155054
0.00126534
0.00145206
0.000999376
0.00545435
0.0040969
0.00301357
0.00263896
0.00181139
0.00139971
0.00122214
0.00119157
0.00100929
0.000852535
0.00389644
0.00291875
0.00285489
0.00185142
0.00156085
0.00107606
0.00101987
0.000850106
0.000939199
0.000782288
0.00382461
0.00246489
0.00202704
0.00165587
0.00108473
0.000948352
0.000764192
0.000823293
0.000942984
0.000681037
0.0023584
0.00231148
0.00141351
0.00132084
0.000852491
0.000709124
0.000746094
0.000840374
0.000936746
0.000898436
0.00238928
0.00163497
0.00150217
0.00104865
0.000863462
0.000728896
0.00077141
0.000774512
0.00101504
0.000642722
-0.0134416
-0.0115168
-0.0106907
-0.00972803
-0.0081498
-0.00715118
-0.00599225
-0.00530479
-0.005415
-0.00392445
-0.0108349
-0.0083097
-0.00726378
-0.00625865
-0.00541142
-0.00431861
-0.00407615
-0.00392502
-0.0032912
-0.00267069
-0.00902159
-0.00660483
-0.00608414
-0.00511147
-0.00407574
-0.00368801
-0.00315302
-0.002782
-0.00316851
-0.00208539
-0.00725832
-0.00554105
-0.00455446
-0.00390385
-0.00321724
-0.00250554
-0.00251674
-0.00260312
-0.00213325
-0.00190276
-0.00580524
-0.00404698
-0.00381704
-0.00294253
-0.00222959
-0.00212717
-0.00197535
-0.00177411
-0.00220799
-0.00147006
-0.00498839
-0.00363756
-0.00279616
-0.00237332
-0.00188234
-0.00153609
-0.00162893
-0.00184131
-0.00153163
-0.00137014
-0.00404018
-0.00273943
-0.0025061
-0.00189334
-0.00150318
-0.00139767
-0.00148405
-0.00125257
-0.00167356
-0.00113526
-0.00369098
-0.00239668
-0.00195069
-0.00158072
-0.00126115
-0.00126236
-0.00107898
-0.00152801
-0.00131085
-0.00108278
-0.00281916
-0.00210139
-0.00152383
-0.00128576
-0.00114015
-0.000888869
-0.00132904
-0.00108871
-0.00147275
-0.00105331
-0.0024368
-0.00157961
-0.00135892
-0.00111877
-0.000912349
-0.000997933
-0.000980104
-0.0011103
-0.00129644
-0.000753416
0.00958457
0.00742626
0.0062093
0.00504099
0.00302502
0.00180881
0.000407385
-0.000458057
-0.000451295
-0.000742216
0.00701426
0.00478346
0.00387178
0.00236076
0.00162263
0.000169266
-0.000270079
-0.000666063
-0.00127376
-0.00096728
0.00496605
0.00327836
0.00269766
0.00163978
0.000538245
3.69585e-05
-0.000780673
-0.001347
-0.00112839
-0.00138126
0.00342709
0.00238891
0.00130282
0.000744939
0.000113022
-0.000727874
-0.00103808
-0.00128724
-0.00183073
-0.0014533
0.00173331
0.000926715
0.000854006
2.04917e-06
-0.000518206
-0.000825834
-0.00135587
-0.00184947
-0.00164282
-0.00174969
0.001198
0.000618578
-0.000291691
-0.000391171
-0.000901366
-0.00129752
-0.00163146
-0.00176915
-0.00217907
-0.00175874
-0.000240236
-0.000438208
-0.000451143
-0.00125832
-0.00133218
-0.00171732
-0.00192656
-0.00232415
-0.00205402
-0.001964
-0.000158225
-0.000888871
-0.00124853
-0.00152157
-0.00187624
-0.00208865
-0.00230513
-0.00222915
-0.00245728
-0.0019331
-0.00147622
-0.00087766
-0.00177883
-0.00175297
-0.0022013
-0.00226297
-0.00232085
-0.00254612
-0.00221155
-0.00183434
-0.000718142
-0.000930781
-0.00110833
-0.00154951
-0.0016791
-0.00184708
-0.00189951
-0.00184074
-0.00160503
-0.00134939
-0.0184558
-0.0163129
-0.0155665
-0.0144792
-0.0127833
-0.0116645
-0.0104364
-0.00973924
-0.00976301
-0.007513
-0.0153174
-0.012202
-0.0110862
-0.00997784
-0.00896425
-0.00772974
-0.00750887
-0.0073844
-0.0067589
-0.0054748
-0.0130806
-0.01017
-0.00963461
-0.00852064
-0.00728962
-0.00678931
-0.00626994
-0.0060342
-0.00641127
-0.00484072
-0.0111773
-0.00880381
-0.00774603
-0.00697346
-0.00605761
-0.0052483
-0.00538895
-0.00558948
-0.00527007
-0.00453528
-0.0093759
-0.00703155
-0.00677698
-0.00570066
-0.00471686
-0.00460258
-0.00464112
-0.00469537
-0.00511256
-0.00408944
-0.00845586
-0.00650197
-0.00559795
-0.00498208
-0.00427839
-0.00396795
-0.00426451
-0.00460995
-0.00457774
-0.00385894
-0.00740591
-0.00549983
-0.00530019
-0.00462477
-0.00407433
-0.00395376
-0.00423357
-0.00426133
-0.00452258
-0.00377037
-0.00687157
-0.00520732
-0.00474489
-0.00438307
-0.00394252
-0.0040823
-0.0039519
-0.00442446
-0.00456464
-0.00357953
-0.00599234
-0.00468766
-0.00433305
-0.00400471
-0.00396798
-0.00363902
-0.00424064
-0.00429491
-0.00447233
-0.00365629
-0.00494899
-0.00376789
-0.00362586
-0.00347873
-0.00323717
-0.00341278
-0.00347853
-0.0035725
-0.00377396
-0.00262048
0.00513638
0.0033672
0.00230339
0.00134165
-0.000265518
-0.0012569
-0.00248163
-0.0030177
-0.00318167
-0.00281972
0.00335452
0.00150637
0.000685178
-0.000414432
-0.00101319
-0.00207682
-0.00246329
-0.0029107
-0.00319675
-0.00265269
0.00154492
0.000315279
-8.27832e-05
-0.000896893
-0.00164941
-0.00202015
-0.00268895
-0.00311084
-0.00309607
-0.00289536
0.000318087
-0.000309244
-0.00116017
-0.00145504
-0.00180022