/*--------------------------------*- C++ -*----------------------------------*\
| =========                 |                                                 |
| \\      /  F ield         | OpenFOAM: The Open Source CFD Toolbox           |
|  \\    /   O peration     | Version:  2406                                  |
|   \\  /    A nd           | Website:  www.openfoam.com                      |
|    \\/     M anipulation  |                                                 |
\*---------------------------------------------------------------------------*/
FoamFile
{
    version     2.0;
    format      ascii;
    arch        "LSB;label=32;scalar=64";
    class       volScalarField;
    location    "0.7";
    object      magR;
}
// * * * * * * * * * * * * * * * * * * * * * * * * * * * * * * * * * * * * * //

dimensions      [0 2 -2 0 0 0 0];

internalField   uniform 0;

boundaryField
{
    walls
    {
        type            calculated;
        value           nonuniform List<scalar> 
2000
(
5.84861e-07
8.29348e-07
1.09612e-06
1.3169e-06
1.44182e-06
1.44179e-06
1.31682e-06
1.09601e-06
8.2924e-07
5.84781e-07
2.36037e-07
3.24133e-07
4.27909e-07
5.17615e-07
5.69616e-07
5.69575e-07
5.175e-07
4.27747e-07
3.23958e-07
2.35871e-07
8.36601e-08
1.11937e-07
1.46691e-07
1.7794e-07
1.9633e-07
1.96223e-07
1.77646e-07
1.46272e-07
1.11479e-07
8.32288e-08
1.10678e-07
1.48881e-07
1.94727e-07
2.35169e-07
2.58687e-07
2.58393e-07
2.34364e-07
1.93601e-07
1.47688e-07
1.09599e-07
8.87716e-08
1.18333e-07
1.54173e-07
1.8591e-07
2.04301e-07
2.03794e-07
1.84528e-07
1.52248e-07
1.16302e-07
8.69141e-08
9.92308e-08
1.3204e-07
1.71319e-07
2.05722e-07
2.25393e-07
2.24458e-07
2.0314e-07
1.67627e-07
1.27975e-07
9.5292e-08
9.75806e-08
1.28706e-07
1.65791e-07
1.97993e-07
2.16011e-07
2.14352e-07
1.9335e-07
1.59009e-07
1.20969e-07
8.97729e-08
1.0461e-07
1.37072e-07
1.75355e-07
2.0814e-07
2.25917e-07
2.23197e-07
2.00519e-07
1.64243e-07
1.24356e-07
9.17551e-08
1.06644e-07
1.39097e-07
1.77175e-07
2.09435e-07
2.26398e-07
2.22769e-07
1.99325e-07
1.62649e-07
1.22725e-07
9.03846e-08
1.08059e-07
1.41217e-07
1.80027e-07
2.12684e-07
2.29459e-07
2.25077e-07
2.00554e-07
1.6285e-07
1.2224e-07
8.9744e-08
1.05956e-07
1.39093e-07
1.77854e-07
2.10323e-07
2.26596e-07
2.2144e-07
1.96112e-07
1.57913e-07
1.1741e-07
8.55782e-08
1.0335e-07
1.36085e-07
1.74263e-07
2.06061e-07
2.21542e-07
2.15597e-07
1.89725e-07
1.51466e-07
1.11545e-07
8.06508e-08
1.00712e-07
1.32544e-07
1.69482e-07
2.00067e-07
2.14617e-07
2.08281e-07
1.82688e-07
1.45304e-07
1.06629e-07
7.68661e-08
9.92836e-08
1.30517e-07
1.66602e-07
1.96412e-07
2.10594e-07
2.04495e-07
1.79691e-07
1.43361e-07
1.05614e-07
7.63636e-08
9.83093e-08
1.29722e-07
1.66123e-07
1.96441e-07
2.11429e-07
2.06373e-07
1.8261e-07
1.47007e-07
1.09353e-07
7.96803e-08
9.51558e-08
1.27354e-07
1.65479e-07
1.9813e-07
2.15687e-07
2.12913e-07
1.90705e-07
1.55677e-07
1.17534e-07
8.67756e-08
8.81909e-08
1.20656e-07
1.60645e-07
1.96515e-07
2.17976e-07
2.18804e-07
1.99139e-07
1.65219e-07
1.2686e-07
9.51359e-08
8.07666e-08
1.12272e-07
1.52528e-07
1.9029e-07
2.14814e-07
2.18906e-07
2.01753e-07
1.69076e-07
1.30887e-07
9.87886e-08
7.61231e-08
1.06027e-07
1.44843e-07
1.8218e-07
2.07271e-07
2.12521e-07
1.96459e-07
1.64444e-07
1.26624e-07
9.49067e-08
7.42912e-08
1.02926e-07
1.39944e-07
1.75613e-07
1.99432e-07
2.04039e-07
1.87905e-07
1.56308e-07
1.19287e-07
8.85663e-08
7.44018e-08
1.02637e-07
1.38675e-07
1.72929e-07
1.95261e-07
1.9879e-07
1.82319e-07
1.51165e-07
1.15071e-07
8.52818e-08
7.53972e-08
1.04009e-07
1.40203e-07
1.74078e-07
1.95742e-07
1.9863e-07
1.8191e-07
1.5096e-07
1.15321e-07
8.58924e-08
7.57604e-08
1.04952e-07
1.41916e-07
1.76323e-07
1.98303e-07
2.01285e-07
1.846e-07
1.5368e-07
1.18051e-07
8.85576e-08
7.55577e-08
1.0501e-07
1.42391e-07
1.77307e-07
1.99826e-07
2.03275e-07
1.86936e-07
1.56212e-07
1.20649e-07
9.11482e-08
7.56809e-08
1.05187e-07
1.42379e-07
1.77088e-07
1.99407e-07
2.02722e-07
1.86336e-07
1.55623e-07
1.20252e-07
9.0977e-08
7.87997e-08
1.08274e-07
1.44719e-07
1.7822e-07
1.99292e-07
2.01712e-07
1.8503e-07
1.54486e-07
1.19679e-07
9.06742e-08
9.05029e-08
1.20953e-07
1.57534e-07
1.9016e-07
2.0992e-07
2.10969e-07
1.93067e-07
1.61264e-07
1.25057e-07
9.41966e-08
1.12671e-07
1.45408e-07
1.83426e-07
2.15774e-07
2.33665e-07
2.31439e-07
2.092e-07
1.72539e-07
1.31505e-07
9.67196e-08
1.41663e-07
1.77324e-07
2.17022e-07
2.48404e-07
2.6225e-07
2.53417e-07
2.23201e-07
1.79053e-07
1.32214e-07
9.45197e-08
1.62816e-07
2.00706e-07
2.40931e-07
2.69917e-07
2.78076e-07
2.615e-07
2.23406e-07
1.73415e-07
1.23589e-07
8.58727e-08
1.61638e-07
2.01955e-07
2.44264e-07
2.73808e-07
2.80231e-07
2.60511e-07
2.1924e-07
1.67358e-07
1.17113e-07
8.01395e-08
1.3079e-07
1.70821e-07
2.15377e-07
2.49485e-07
2.61113e-07
2.46294e-07
2.09142e-07
1.60537e-07
1.1276e-07
7.74542e-08
9.60039e-08
1.31563e-07
1.7437e-07
2.11404e-07
2.29933e-07
2.24037e-07
1.95699e-07
1.54071e-07
1.11196e-07
7.84931e-08
7.13742e-08
1.01785e-07
1.40283e-07
1.76149e-07
1.97928e-07
1.98804e-07
1.7893e-07
1.4515e-07
1.08513e-07
7.94573e-08
6.4527e-08
9.16226e-08
1.26195e-07
1.58507e-07
1.79195e-07
1.81809e-07
1.65946e-07
1.36892e-07
1.04464e-07
7.81912e-08
6.4495e-08
9.0309e-08
1.23187e-07
1.53367e-07
1.7239e-07
1.74274e-07
1.58702e-07
1.30622e-07
9.92801e-08
7.39592e-08
6.45794e-08
8.83533e-08
1.18087e-07
1.45236e-07
1.61958e-07
1.63213e-07
1.48745e-07
1.23179e-07
9.455e-08
7.14622e-08
6.80334e-08
9.29401e-08
1.22645e-07
1.5076e-07
1.70051e-07
1.75707e-07
1.66612e-07
1.46026e-07
1.20619e-07
9.74681e-08
5.26067e-08
7.75296e-08
1.07266e-07
1.39083e-07
1.67637e-07
1.87649e-07
1.95543e-07
1.90741e-07
1.77344e-07
1.57787e-07
1.04676e-07
1.42813e-07
1.85821e-07
2.34342e-07
2.84169e-07
3.29256e-07
3.62969e-07
3.79603e-07
3.76905e-07
3.4767e-07
3.24141e-07
4.06468e-07
4.90121e-07
5.74335e-07
6.5199e-07
7.14901e-07
7.50264e-07
7.42715e-07
6.74513e-07
5.43451e-07
7.05329e-07
8.37389e-07
9.62307e-07
1.07287e-06
1.15688e-06
1.18795e-06
1.13212e-06
9.68579e-07
7.16621e-07
4.39401e-07
1.55298e-06
1.77219e-06
1.96352e-06
2.07126e-06
2.04335e-06
1.82962e-06
1.4421e-06
9.62591e-07
5.29322e-07
2.31866e-07
3.27425e-06
3.65441e-06
3.90213e-06
3.88393e-06
3.54475e-06
2.92063e-06
2.15552e-06
1.41614e-06
8.47234e-07
4.81058e-07
5.32337e-06
5.85534e-06
6.13896e-06
6.04458e-06
5.54327e-06
4.70523e-06
3.68881e-06
2.68092e-06
1.82362e-06
1.19918e-06
6.9149e-06
7.72723e-06
8.24421e-06
8.37079e-06
8.0044e-06
7.07956e-06
5.67456e-06
4.06041e-06
2.53977e-06
1.41678e-06
6.0835e-06
6.93416e-06
7.46476e-06
7.63198e-06
7.27358e-06
6.24295e-06
4.63254e-06
2.90012e-06
1.526e-06
7.41689e-07
5.21216e-06
5.78326e-06
5.90069e-06
5.72842e-06
5.21247e-06
4.30746e-06
3.12174e-06
2.02453e-06
1.28924e-06
9.52916e-07
7.89974e-06
8.88345e-06
9.06844e-06
8.82012e-06
8.19106e-06
7.2029e-06
5.92296e-06
4.67726e-06
3.78705e-06
3.44227e-06
1.61545e-05
1.91976e-05
2.11459e-05
2.19968e-05
2.19315e-05
2.08278e-05
1.8743e-05
1.59302e-05
1.32379e-05
1.10385e-05
5.84756e-07
8.29212e-07
1.09599e-06
1.31681e-06
1.4418e-06
1.44185e-06
1.31695e-06
1.09617e-06
8.29373e-07
5.84877e-07
2.35495e-07
3.23519e-07
4.27299e-07
5.17111e-07
5.69295e-07
5.69466e-07
5.17572e-07
4.27936e-07
3.24167e-07
2.36066e-07
8.23408e-08
1.10478e-07
1.45248e-07
1.76715e-07
1.95476e-07
1.95808e-07
1.77625e-07
1.46536e-07
1.11866e-07
8.36483e-08
1.07229e-07
1.44978e-07
1.90751e-07
2.31672e-07
2.56102e-07
2.56937e-07
2.3397e-07
1.94004e-07
1.48501e-07
1.1056e-07
8.36377e-08
1.12509e-07
1.48138e-07
1.80478e-07
2.00172e-07
2.01365e-07
1.83766e-07
1.52784e-07
1.17584e-07
8.85159e-08
9.13141e-08
1.23204e-07
1.62255e-07
1.97594e-07
2.19272e-07
2.21012e-07
2.02428e-07
1.69151e-07
1.30895e-07
9.88378e-08
8.54658e-08
1.15816e-07
1.53293e-07
1.87494e-07
2.08942e-07
2.1152e-07
1.94724e-07
1.63738e-07
1.27712e-07
9.72442e-08
8.54535e-08
1.17455e-07
1.5744e-07
1.94407e-07
2.18311e-07
2.2247e-07
2.06103e-07
1.74399e-07
1.36825e-07
1.04545e-07
8.07158e-08
1.12709e-07
1.53531e-07
1.92152e-07
2.18093e-07
2.2408e-07
2.08886e-07
1.77555e-07
1.39713e-07
1.06895e-07
7.8087e-08
1.09977e-07
1.51343e-07
1.91325e-07
2.18981e-07
2.26435e-07
2.1194e-07
1.80459e-07
1.41912e-07
1.08378e-07
7.61981e-08
1.06974e-07
1.47198e-07
1.86572e-07
2.14213e-07
2.22117e-07
2.08214e-07
1.77286e-07
1.392e-07
1.06138e-07
7.67084e-08
1.06653e-07
1.45645e-07
1.83781e-07
2.10461e-07
2.17914e-07
2.04044e-07
1.73521e-07
1.35983e-07
1.035e-07
7.79145e-08
1.07406e-07
1.45486e-07
1.82363e-07
2.07765e-07
2.14309e-07
2.00115e-07
1.69843e-07
1.3286e-07
1.00971e-07
7.91373e-08
1.08661e-07
1.46502e-07
1.82666e-07
2.07088e-07
2.12695e-07
1.97942e-07
1.67605e-07
1.3094e-07
9.94724e-08
7.96526e-08
1.09285e-07
1.47094e-07
1.82791e-07
2.06434e-07
2.11164e-07
1.95792e-07
1.65281e-07
1.28929e-07
9.79797e-08
8.01426e-08
1.0971e-07
1.47236e-07
1.82231e-07
2.04824e-07
2.0833e-07
1.91901e-07
1.60778e-07
1.24495e-07
9.41076e-08
8.17531e-08
1.11032e-07
1.47693e-07
1.81245e-07
2.01918e-07
2.03343e-07
1.85107e-07
1.52874e-07
1.16495e-07
8.68017e-08
8.55442e-08
1.1466e-07
1.50241e-07
1.81906e-07
2.0009e-07
1.98966e-07
1.78659e-07
1.45293e-07
1.08831e-07
7.97787e-08
9.19285e-08
1.2138e-07
1.56326e-07
1.86402e-07
2.02311e-07
1.98813e-07
1.76539e-07
1.42005e-07
1.0506e-07
7.6079e-08
9.81337e-08
1.28473e-07
1.63826e-07
1.9342e-07
2.0799e-07
2.0265e-07
1.78487e-07
1.42461e-07
1.04466e-07
7.50304e-08
9.89635e-08
1.30049e-07
1.66565e-07
1.96988e-07
2.11712e-07
2.05783e-07
1.80619e-07
1.43582e-07
1.04903e-07
7.51447e-08
9.3166e-08
1.23967e-07
1.61191e-07
1.92876e-07
2.08992e-07
2.04159e-07
1.79763e-07
1.43203e-07
1.04989e-07
7.5477e-08
8.49355e-08
1.14182e-07
1.50609e-07
1.82665e-07
2.00233e-07
1.9749e-07
1.75325e-07
1.40673e-07
1.03899e-07
7.5142e-08
7.72902e-08
1.04202e-07
1.38525e-07
1.69879e-07
1.8839e-07
1.88027e-07
1.68881e-07
1.3705e-07
1.02283e-07
7.45861e-08
7.29517e-08
9.75858e-08
1.29265e-07
1.59131e-07
1.77765e-07
1.79242e-07
1.62879e-07
1.33856e-07
1.0109e-07
7.448e-08
7.4548e-08
9.90931e-08
1.29741e-07
1.58493e-07
1.76467e-07
1.78241e-07
1.63002e-07
1.35373e-07
1.03648e-07
7.74056e-08
8.25343e-08
1.10716e-07
1.44524e-07
1.75014e-07
1.93468e-07
1.94805e-07
1.78763e-07
1.50068e-07
1.17061e-07
8.90873e-08
8.95902e-08
1.23258e-07
1.64236e-07
2.00813e-07
2.23663e-07
2.26907e-07
2.10641e-07
1.79945e-07
1.43779e-07
1.11821e-07
8.91607e-08
1.28051e-07
1.77927e-07
2.24668e-07
2.56998e-07
2.66779e-07
2.53157e-07
2.21167e-07
1.80647e-07
1.42711e-07
8.05911e-08
1.21572e-07
1.77028e-07
2.33051e-07
2.75841e-07
2.94465e-07
2.85653e-07
2.53744e-07
2.09354e-07
1.66078e-07
7.20709e-08
1.11077e-07
1.65975e-07
2.25056e-07
2.72914e-07
2.96618e-07
2.90351e-07
2.57848e-07
2.10579e-07
1.65165e-07
6.96715e-08
1.03172e-07
1.50493e-07
2.02552e-07
2.44859e-07
2.64859e-07
2.56008e-07
2.22188e-07
1.75227e-07
1.3307e-07
7.512e-08
1.03921e-07
1.42611e-07
1.8312e-07
2.13332e-07
2.23475e-07
2.09067e-07
1.7489e-07
1.32203e-07
9.68063e-08
7.89564e-08
1.04582e-07
1.36614e-07
1.66785e-07
1.85302e-07
1.85734e-07
1.66873e-07
1.3434e-07
9.83592e-08
7.03087e-08
7.99927e-08
1.03752e-07
1.32385e-07
1.56745e-07
1.68882e-07
1.64595e-07
1.4495e-07
1.15591e-07
8.53426e-08
6.20364e-08
7.63817e-08
1.00268e-07
1.29698e-07
1.53724e-07
1.6528e-07
1.6061e-07
1.41589e-07
1.13697e-07
8.50054e-08
6.23774e-08
7.36762e-08
9.66906e-08
1.25206e-07
1.48167e-07
1.5938e-07
1.55561e-07
1.38488e-07
1.1299e-07
8.59481e-08
6.39178e-08
9.21022e-08
1.09443e-07
1.27034e-07
1.38616e-07
1.40603e-07
1.33312e-07
1.18874e-07
1.00383e-07
8.11424e-08
6.48064e-08
1.20151e-07
1.16809e-07
1.08561e-07
9.6419e-08
8.12738e-08
6.69199e-08
5.55945e-08
4.80633e-08
4.38883e-08
4.19973e-08
2.34217e-07
2.15375e-07
1.90063e-07
1.61551e-07
1.31355e-07
1.04901e-07
8.6226e-08
7.69535e-08
7.61481e-08
8.15015e-08
5.08737e-07
5.11044e-07
5.01189e-07
4.82532e-07
4.48626e-07
4.02968e-07
3.55465e-07
3.17255e-07
2.92193e-07
2.81224e-07
8.34175e-07
9.61064e-07
1.02259e-06
1.05647e-06
1.05797e-06
1.01774e-06
9.38345e-07
8.38819e-07
7.39953e-07
6.58005e-07
1.18211e-06
1.72838e-06
2.09804e-06
2.30788e-06
2.3959e-06
2.37986e-06
2.2579e-06
2.04708e-06
1.79319e-06
1.53891e-06
1.15611e-06
2.41251e-06
3.69583e-06
4.61554e-06
5.08246e-06
5.1887e-06
5.01217e-06
4.60448e-06
4.0418e-06
3.40292e-06
2.99238e-07
1.52371e-06
3.6959e-06
5.95844e-06
7.49937e-06
8.12591e-06
8.06507e-06
7.54707e-06
6.70515e-06
5.6515e-06
1.46567e-08
7.76967e-08
1.09459e-06
3.59237e-06
6.6085e-06
8.75046e-06
9.54584e-06
9.31573e-06
8.43212e-06
7.21132e-06
5.4288e-07
1.35981e-07
1.25446e-09
2.44699e-07
1.60934e-06
3.94303e-06
5.99849e-06
6.93622e-06
6.764e-06
6.03455e-06
4.53394e-07
3.06235e-07
9.0471e-08
1.26448e-09
2.09535e-07
1.31513e-06
3.13855e-06
4.63147e-06
5.12386e-06
4.84808e-06
6.90892e-08
5.24241e-08
4.32447e-08
5.89453e-08
2.79045e-07
1.27809e-06
3.40686e-06
5.71788e-06
6.93614e-06
6.8416e-06
5.93976e-09
2.68887e-10
4.59235e-08
3.3883e-07
1.21663e-06
3.03987e-06
5.96313e-06
9.28494e-06
1.17532e-05
1.25601e-05
5.8467e-07
8.29117e-07
1.09589e-06
1.3167e-06
1.44168e-06
1.44171e-06
1.31679e-06
1.09602e-06
8.29243e-07
5.84776e-07
2.35516e-07
3.23508e-07
4.27227e-07
5.16908e-07
5.68937e-07
5.68953e-07
5.16945e-07
4.27263e-07
3.23523e-07
2.35516e-07
8.23215e-08
1.10382e-07
1.45033e-07
1.76296e-07
1.94802e-07
1.94857e-07
1.76429e-07
1.45188e-07
1.10488e-07
8.2368e-08
1.06659e-07
1.44136e-07
1.89583e-07
2.30037e-07
2.53899e-07
2.54124e-07
2.30626e-07
1.90359e-07
1.44858e-07
1.07237e-07
8.10489e-08
1.09294e-07
1.44358e-07
1.76117e-07
1.95207e-07
1.95819e-07
1.77801e-07
1.46745e-07
1.11867e-07
8.34699e-08
8.49443e-08
1.15458e-07
1.53353e-07
1.87767e-07
2.08734e-07
2.10002e-07
1.91322e-07
1.58512e-07
1.21313e-07
9.07169e-08
7.69667e-08
1.0488e-07
1.39868e-07
1.71839e-07
1.9154e-07
1.9305e-07
1.76106e-07
1.46079e-07
1.12087e-07
8.42506e-08
7.76795e-08
1.05624e-07
1.40542e-07
1.72286e-07
1.91651e-07
1.92763e-07
1.75448e-07
1.45151e-07
1.11123e-07
8.34512e-08
7.66845e-08
1.03402e-07
1.36556e-07
1.66437e-07
1.84188e-07
1.84327e-07
1.6687e-07
1.37247e-07
1.04494e-07
7.82532e-08
7.97618e-08
1.06414e-07
1.38946e-07
1.67792e-07
1.84246e-07
1.83168e-07
1.64804e-07
1.34724e-07
1.01895e-07
7.58462e-08
8.44757e-08
1.1155e-07
1.43942e-07
1.72049e-07
1.87332e-07
1.84973e-07
1.65462e-07
1.34553e-07
1.01141e-07
7.47801e-08
9.08952e-08
1.19442e-07
1.53028e-07
1.81538e-07
1.96352e-07
1.92758e-07
1.71538e-07
1.38827e-07
1.03753e-07
7.61928e-08
9.57466e-08
1.25948e-07
1.61242e-07
1.90792e-07
2.05677e-07
2.01117e-07
1.78201e-07
1.43547e-07
1.0673e-07
7.79509e-08
9.73212e-08
1.28686e-07
1.65499e-07
1.96313e-07
2.11771e-07
2.06877e-07
1.82915e-07
1.46899e-07
1.08885e-07
7.92595e-08
9.52279e-08
1.2674e-07
1.64146e-07
1.95839e-07
2.12106e-07
2.07697e-07
1.83855e-07
1.47681e-07
1.09483e-07
7.96278e-08
9.15811e-08
1.22564e-07
1.59807e-07
1.91982e-07
2.09194e-07
2.05945e-07
1.83179e-07
1.47767e-07
1.09978e-07
8.01281e-08
8.89561e-08
1.19278e-07
1.56065e-07
1.88485e-07
2.06642e-07
2.04853e-07
1.83601e-07
1.49332e-07
1.12026e-07
8.20622e-08
8.9116e-08
1.19313e-07
1.56085e-07
1.8894e-07
2.08048e-07
2.07579e-07
1.87586e-07
1.54116e-07
1.16822e-07
8.63141e-08
9.14494e-08
1.22526e-07
1.60379e-07
1.94373e-07
2.14651e-07
2.15212e-07
1.95873e-07
1.62471e-07
1.24534e-07
9.29961e-08
9.43915e-08
1.27185e-07
1.67236e-07
2.03239e-07
2.25042e-07
2.26268e-07
2.06642e-07
1.72092e-07
1.32504e-07
9.93361e-08
9.74392e-08
1.31951e-07
1.74232e-07
2.12169e-07
2.35034e-07
2.35933e-07
2.14623e-07
1.77508e-07
1.35386e-07
1.00402e-07
1.00984e-07
1.3642e-07
1.79645e-07
2.18077e-07
2.40403e-07
2.39472e-07
2.15338e-07
1.75208e-07
1.30919e-07
9.50056e-08
1.056e-07
1.41106e-07
1.83681e-07
2.2078e-07
2.4092e-07
2.37263e-07
2.10388e-07
1.68238e-07
1.23128e-07
8.74312e-08
1.10784e-07
1.46142e-07
1.87379e-07
2.22319e-07
2.3975e-07
2.33507e-07
2.04638e-07
1.61479e-07
1.16178e-07
8.09295e-08
1.16308e-07
1.52259e-07
1.92935e-07
2.26319e-07
2.41628e-07
2.33379e-07
2.02986e-07
1.59008e-07
1.13196e-07
7.79208e-08
1.11154e-07
1.47739e-07
1.89658e-07
2.24058e-07
2.39996e-07
2.32049e-07
2.02007e-07
1.5857e-07
1.13477e-07
7.88709e-08
8.82534e-08
1.23203e-07
1.66438e-07
2.04184e-07
2.24736e-07
2.21543e-07
1.96138e-07
1.56757e-07
1.15381e-07
8.30962e-08
6.33809e-08
9.3214e-08
1.33351e-07
1.71386e-07
1.95857e-07
1.99062e-07
1.81228e-07
1.49037e-07
1.13764e-07
8.53715e-08
5.03998e-08
7.46734e-08
1.08603e-07
1.42741e-07
1.66942e-07
1.73661e-07
1.61727e-07
1.3597e-07
1.06247e-07
8.17285e-08
5.00355e-08
7.078e-08
9.89315e-08
1.27321e-07
1.47445e-07
1.53087e-07
1.42764e-07
1.20212e-07
9.39993e-08
7.24798e-08
5.96437e-08
8.10283e-08
1.07943e-07
1.33549e-07
1.50056e-07
1.52359e-07
1.39481e-07
1.15373e-07
8.81647e-08
6.63562e-08
7.36183e-08
9.88971e-08
1.28795e-07
1.55568e-07
1.71072e-07
1.70575e-07
1.53631e-07
1.25207e-07
9.34759e-08
6.84281e-08
9.27611e-08
1.2389e-07
1.596e-07
1.90401e-07
2.06935e-07
2.0408e-07
1.81884e-07
1.46793e-07
1.08039e-07
7.77339e-08
1.09598e-07
1.46129e-07
1.87873e-07
2.22915e-07
2.40419e-07
2.34533e-07
2.06239e-07
1.63688e-07
1.18432e-07
8.33826e-08
1.23908e-07
1.63505e-07
2.08501e-07
2.4481e-07
2.61027e-07
2.51159e-07
2.17599e-07
1.6988e-07
1.2148e-07
8.43824e-08
1.3024e-07
1.72113e-07
2.19391e-07
2.55881e-07
2.69857e-07
2.55685e-07
2.17494e-07
1.66205e-07
1.16706e-07
7.95851e-08
1.24361e-07
1.63848e-07
2.07864e-07
2.40944e-07
2.52205e-07
2.37282e-07
2.01113e-07
1.54039e-07
1.09704e-07
7.59567e-08
1.23537e-07
1.56501e-07
1.93271e-07
2.23897e-07
2.38869e-07
2.33674e-07
2.10164e-07
1.74503e-07
1.36351e-07
1.01152e-07
1.56783e-07
1.95055e-07
2.30381e-07
2.56571e-07
2.68211e-07
2.65216e-07
2.4938e-07
2.23921e-07
1.9001e-07
1.49638e-07
5.21402e-08
1.20758e-07
2.2304e-07
3.31356e-07
4.10651e-07
4.44733e-07
4.36324e-07
4.01225e-07
3.48857e-07
2.88032e-07
5.53979e-10
1.2723e-08
7.10485e-08
1.99106e-07
3.76438e-07
5.48275e-07
6.61424e-07
6.9442e-07
6.52021e-07
5.65924e-07
2.58146e-10
2.70399e-09
1.29555e-08
4.37852e-08
1.17331e-07
2.48141e-07
4.20822e-07
5.87703e-07
6.98541e-07
7.36544e-07
3.73707e-09
2.39956e-09
1.12259e-09
5.15482e-10
2.8312e-09
2.80056e-08
1.14517e-07
2.80833e-07
5.02938e-07
7.27548e-07
1.05178e-08
2.83244e-08
3.65849e-08
3.43318e-08
1.87066e-08
3.56818e-09
1.50949e-10
2.23414e-08
1.49148e-07
4.18824e-07
4.23665e-08
8.84313e-08
1.2604e-07
1.80114e-07
2.28028e-07
2.39992e-07
1.8135e-07
7.73786e-08
6.81631e-09
5.47132e-09
6.69997e-08
1.10787e-07
1.50791e-07
2.43805e-07
4.05356e-07
6.39589e-07
8.64524e-07
9.10833e-07
6.69309e-07
2.96547e-07
4.85105e-08
4.28932e-08
4.29967e-08
7.50944e-08
1.82006e-07
4.41864e-07
9.00514e-07
1.36724e-06
1.54618e-06
1.20556e-06
2.9084e-07
1.82732e-07
7.45645e-08
1.19952e-08
1.95773e-09
5.83544e-08
2.90551e-07
6.288e-07
8.48896e-07
7.04097e-07
1.28874e-06
1.10128e-06
7.24979e-07
2.87409e-07
3.91859e-08
5.59664e-09
8.13925e-08
2.0293e-07
2.23769e-07
1.37631e-07
1.60832e-06
1.10622e-06
5.2019e-07
1.12719e-07
6.64393e-09
4.13998e-08
1.6562e-07
2.42691e-07
1.72216e-07
5.82773e-08
5.84796e-07
8.2924e-07
1.09597e-06
1.31668e-06
1.44154e-06
1.44148e-06
1.31651e-06
1.09574e-06
8.2903e-07
5.84638e-07
2.35874e-07
3.23911e-07
4.2763e-07
5.17242e-07
5.69152e-07
5.69032e-07
5.16922e-07
4.27192e-07
3.23476e-07
2.35494e-07
8.32084e-08
1.1136e-07
1.46003e-07
1.77115e-07
1.95374e-07
1.95155e-07
1.76516e-07
1.45159e-07
1.10452e-07
8.2343e-08
1.09536e-07
1.47388e-07
1.92917e-07
2.33013e-07
2.56184e-07
2.55557e-07
2.31269e-07
1.90411e-07
1.44593e-07
1.06818e-07
8.672e-08
1.15563e-07
1.50668e-07
1.81628e-07
1.9924e-07
1.98004e-07
1.78179e-07
1.45697e-07
1.09983e-07
8.12704e-08
9.47002e-08
1.2595e-07
1.63574e-07
1.96289e-07
2.14344e-07
2.12059e-07
1.89948e-07
1.5452e-07
1.15925e-07
8.5029e-08
8.85744e-08
1.17017e-07
1.51315e-07
1.80942e-07
1.96873e-07
1.93982e-07
1.72989e-07
1.40098e-07
1.0479e-07
7.68247e-08
8.99493e-08
1.18485e-07
1.52821e-07
1.82419e-07
1.98261e-07
1.95302e-07
1.74288e-07
1.41371e-07
1.05954e-07
7.77071e-08
8.84106e-08
1.163e-07
1.49892e-07
1.78996e-07
1.94779e-07
1.92286e-07
1.72092e-07
1.40081e-07
1.05298e-07
7.73189e-08
8.8141e-08
1.1684e-07
1.51611e-07
1.82094e-07
1.99158e-07
1.97593e-07
1.77755e-07
1.45498e-07
1.09897e-07
8.09615e-08
8.46721e-08
1.1402e-07
1.50277e-07
1.82823e-07
2.02057e-07
2.02252e-07
1.83443e-07
1.5142e-07
1.15386e-07
8.57314e-08
8.03588e-08
1.10057e-07
1.47664e-07
1.82434e-07
2.04316e-07
2.06882e-07
1.89666e-07
1.58229e-07
1.21967e-07
9.16203e-08
7.6877e-08
1.0627e-07
1.44165e-07
1.80052e-07
2.03775e-07
2.08389e-07
1.92881e-07
1.624e-07
1.26382e-07
9.57519e-08
7.62714e-08
1.05248e-07
1.4276e-07
1.78654e-07
2.02892e-07
2.08358e-07
1.93676e-07
1.6367e-07
1.27744e-07
9.69548e-08
7.90973e-08
1.07806e-07
1.44562e-07
1.79527e-07
2.02873e-07
2.07657e-07
1.92467e-07
1.62079e-07
1.25883e-07
9.50154e-08
8.5777e-08
1.14787e-07
1.50903e-07
1.84393e-07
2.05701e-07
2.08369e-07
1.91338e-07
1.59671e-07
1.22782e-07
9.18194e-08
9.44303e-08
1.24675e-07
1.61015e-07
1.93367e-07
2.12384e-07
2.12227e-07
1.9253e-07
1.58927e-07
1.20937e-07
8.96788e-08
9.89374e-08
1.31034e-07
1.69042e-07
2.01981e-07
2.20265e-07
2.18335e-07
1.96503e-07
1.61065e-07
1.21851e-07
9.00311e-08
9.56519e-08
1.28835e-07
1.68814e-07
2.03838e-07
2.23609e-07
2.22188e-07
2.00062e-07
1.63928e-07
1.24097e-07
9.18668e-08
8.93671e-08
1.22063e-07
1.62415e-07
1.98808e-07
2.20504e-07
2.20963e-07
2.00288e-07
1.65024e-07
1.25731e-07
9.37051e-08
8.60025e-08
1.17726e-07
1.57253e-07
1.93619e-07
2.16261e-07
2.18382e-07
1.9957e-07
1.65834e-07
1.27544e-07
9.58836e-08
8.67487e-08
1.18276e-07
1.57435e-07
1.93668e-07
2.16736e-07
2.19856e-07
2.02252e-07
1.69443e-07
1.31431e-07
9.9483e-08
8.98663e-08
1.22311e-07
1.62383e-07
1.99449e-07
2.23299e-07
2.27113e-07
2.09892e-07
1.76963e-07
1.38082e-07
1.04955e-07
9.31532e-08
1.27008e-07
1.68648e-07
2.07082e-07
2.31884e-07
2.36126e-07
2.18747e-07
1.8517e-07
1.45104e-07
1.10805e-07
9.37996e-08
1.28771e-07
1.7192e-07
2.11636e-07
2.37302e-07
2.41852e-07
2.24396e-07
1.90563e-07
1.50189e-07
1.15696e-07
9.36923e-08
1.28423e-07
1.71414e-07
2.10479e-07
2.35122e-07
2.38217e-07
2.19247e-07
1.84183e-07
1.43472e-07
1.09429e-07
9.5123e-08
1.27789e-07
1.67819e-07
2.0288e-07
2.2266e-07
2.20539e-07
1.96982e-07
1.59004e-07
1.18173e-07
8.60828e-08
9.38054e-08
1.23072e-07
1.58052e-07
1.8704e-07
2.00169e-07
1.92258e-07
1.65239e-07
1.27122e-07
8.94561e-08
6.17707e-08
8.92589e-08
1.16224e-07
1.47852e-07
1.73168e-07
1.82844e-07
1.72901e-07
1.45953e-07
1.09999e-07
7.54979e-08
5.05423e-08
8.02373e-08
1.05665e-07
1.36168e-07
1.6151e-07
1.72585e-07
1.65416e-07
1.41934e-07
1.09273e-07
7.66069e-08
5.20976e-08
7.43549e-08
9.83729e-08
1.28215e-07
1.5476e-07
1.69057e-07
1.66479e-07
1.47564e-07
1.18254e-07
8.66981e-08
6.18953e-08
7.2413e-08
9.60009e-08
1.25598e-07
1.53101e-07
1.69859e-07
1.70882e-07
1.55664e-07
1.29089e-07
9.86733e-08
7.39507e-08
7.62356e-08
1.0233e-07
1.3464e-07
1.64895e-07
1.84326e-07
1.87631e-07
1.73935e-07
1.47661e-07
1.16508e-07
9.04646e-08
8.11878e-08
1.11393e-07
1.48802e-07
1.8362e-07
2.06505e-07
2.11336e-07
1.97192e-07
1.68669e-07
1.34518e-07
1.05469e-07
8.22902e-08
1.15274e-07
1.57336e-07
1.96972e-07
2.24024e-07
2.31178e-07
2.17306e-07
1.87195e-07
1.50628e-07
1.18913e-07
7.80384e-08
1.11842e-07
1.56279e-07
1.99366e-07
2.29957e-07
2.39678e-07
2.26854e-07
1.96258e-07
1.58363e-07
1.24916e-07
7.4731e-08
1.06265e-07
1.47254e-07
1.87264e-07
2.15668e-07
2.24865e-07
2.13238e-07
1.85237e-07
1.50487e-07
1.19619e-07
9.97216e-08
1.26694e-07
1.58424e-07
1.86477e-07
2.04038e-07
2.06736e-07
1.94622e-07
1.71856e-07
1.44658e-07
1.20736e-07
1.62224e-07
1.87209e-07
2.12485e-07
2.29887e-07
2.34982e-07
2.2599e-07
2.06118e-07
1.82133e-07
1.59241e-07
1.4457e-07
3.35039e-07
3.49233e-07
3.34526e-07
2.8928e-07
2.22577e-07
1.5251e-07
9.41111e-08
5.5168e-08
3.42079e-08
2.89779e-08
4.17551e-07
3.43087e-07
2.39835e-07
1.38225e-07
6.25252e-08
2.07302e-08
4.39152e-09
4.83131e-10
1.80273e-10
2.38956e-10
2.4778e-07
1.50966e-07
7.71365e-08
3.26714e-08
1.24579e-08
5.28308e-09
2.93361e-09
1.68433e-09
6.07608e-10
1.10843e-10
1.24645e-07
1.1164e-07
1.15588e-07
1.23603e-07
1.30173e-07
1.26971e-07
1.09967e-07
7.96516e-08
4.61e-08
1.45626e-08
4.15336e-07
5.59571e-07
7.3968e-07
8.7832e-07
9.12098e-07
8.08181e-07
5.80043e-07
2.99604e-07
9.562e-08
1.15656e-08
1.01454e-06
1.20795e-06
1.34417e-06
1.3824e-06
1.28929e-06
1.05239e-06
6.85621e-07
3.02672e-07
8.34683e-08
2.03577e-08
9.58151e-07
1.03003e-06
1.10683e-06
1.14626e-06
1.07966e-06
8.73931e-07
5.67841e-07
2.7888e-07
1.36191e-07
6.54382e-08
5.26449e-07
6.56096e-07
7.89131e-07
8.58885e-07
8.34845e-07
7.34421e-07
5.83036e-07
4.09543e-07
2.60036e-07
1.15881e-07
8.7698e-07
1.04193e-06
1.16772e-06
1.17293e-06
1.04934e-06
8.81511e-07
7.28234e-07
6.16657e-07
5.19431e-07
4.36496e-07
3.64418e-06
4.09488e-06
4.35702e-06
4.40105e-06
4.12374e-06
3.62375e-06
3.03439e-06
2.4347e-06
1.931e-06
1.4844e-06
1.28911e-05
1.4756e-05
1.55041e-05
1.47749e-05
1.27349e-05
9.86538e-06
6.91594e-06
4.52577e-06
3.04839e-06
2.08853e-06
)
;
    }
    inlet
    {
        type            calculated;
        value           uniform 0;
    }
    outlet
    {
        type            calculated;
        value           uniform 0;
    }
}


// ************************************************************************* //
