/*--------------------------------*- C++ -*----------------------------------*\
| =========                 |                                                 |
| \\      /  F ield         | OpenFOAM: The Open Source CFD Toolbox           |
|  \\    /   O peration     | Version:  2406                                  |
|   \\  /    A nd           | Website:  www.openfoam.com                      |
|    \\/     M anipulation  |                                                 |
\*---------------------------------------------------------------------------*/
FoamFile
{
    version     2.0;
    format      ascii;
    arch        "LSB;label=32;scalar=64";
    class       volVectorField;
    location    "0.7";
    object      momentError;
}
// * * * * * * * * * * * * * * * * * * * * * * * * * * * * * * * * * * * * * //

dimensions      [0 1 -2 0 0 0 0];

internalField   nonuniform List<vector> 
25000
(
(0.0504914 0.050586 0.036993)
(0.0357157 0.0509304 0.0462586)
(0.027048 0.0473888 0.0487405)
(0.0210753 0.0449969 0.0498203)
(0.0148863 0.0438971 0.0507325)
(0.00844074 0.0437619 0.0517481)
(0.00151266 0.0442108 0.0528671)
(-0.00741169 0.0450672 0.0536669)
(-0.0211295 0.0472882 0.0526156)
(-0.0387739 0.0478641 0.0432837)
(0.0491817 0.0366726 0.047227)
(0.0358268 0.0383267 0.0597774)
(0.0276144 0.0358525 0.0627561)
(0.0222726 0.0343465 0.0640363)
(0.0162261 0.033533 0.0651325)
(0.00953552 0.0330734 0.0663285)
(0.00237692 0.0328778 0.0676244)
(-0.00641512 0.033453 0.0685222)
(-0.0202725 0.0359799 0.0671861)
(-0.0377727 0.0350736 0.0546276)
(0.046368 0.0289645 0.0507399)
(0.033568 0.031134 0.0639784)
(0.0265448 0.0301489 0.0673315)
(0.0217723 0.029525 0.0688695)
(0.0158361 0.0290752 0.0700711)
(0.00908404 0.0286475 0.0712905)
(0.00207056 0.0282928 0.0725048)
(-0.00579801 0.0285497 0.0731356)
(-0.0172078 0.0301915 0.0714602)
(-0.0319535 0.0288681 0.0582823)
(0.0457224 0.0235233 0.0524138)
(0.0327449 0.0264043 0.0661712)
(0.0261016 0.0261627 0.0699723)
(0.0214274 0.0258389 0.0717343)
(0.015394 0.0255028 0.0729666)
(0.00853577 0.0251184 0.0741406)
(0.00161828 0.0247894 0.075236)
(-0.00553343 0.024858 0.075571)
(-0.0150846 0.0256367 0.073449)
(-0.0277187 0.0235108 0.0598376)
(0.0464767 0.0174767 0.0535492)
(0.0326929 0.0204789 0.0678278)
(0.025909 0.020407 0.0720208)
(0.0211457 0.0200492 0.0739323)
(0.0149975 0.0196596 0.0751429)
(0.00807894 0.019255 0.0762374)
(0.00126834 0.0189259 0.0772071)
(-0.00544308 0.0188805 0.0772997)
(-0.014005 0.0191315 0.0747925)
(-0.0258003 0.0167975 0.0607389)
(0.0478991 0.0108306 0.0545565)
(0.0329113 0.0136599 0.0693289)
(0.0257327 0.013487 0.0738648)
(0.0208163 0.01293 0.0759152)
(0.0145815 0.0123955 0.0771105)
(0.00765258 0.0118911 0.0781105)
(0.000947348 0.0114985 0.0789303)
(-0.00546612 0.011377 0.0788006)
(-0.0135479 0.0114216 0.075976)
(-0.0251356 0.0094984 0.0615283)
(0.0495988 0.00358695 0.0555415)
(0.0332058 0.00644237 0.0707989)
(0.0254715 0.0062933 0.0755994)
(0.0203691 0.00556645 0.0777434)
(0.0140761 0.00484891 0.0789143)
(0.00716468 0.00417088 0.0797988)
(0.000602852 0.00364047 0.0804478)
(-0.00557535 0.00334574 0.0801272)
(-0.0134702 0.00308634 0.0770893)
(-0.0250818 0.00163226 0.0623075)
(0.0514725 -0.00506144 0.0559963)
(0.0339224 -0.00175959 0.0716187)
(0.0253656 -0.00127585 0.0764691)
(0.0198218 -0.00186918 0.0785328)
(0.0133582 -0.00273771 0.0795925)
(0.00644749 -0.00367215 0.0803423)
(-5.00942e-05 -0.00456472 0.0808568)
(-0.00625122 -0.00546285 0.0804833)
(-0.014418 -0.00662506 0.0774335)
(-0.0261847 -0.00791902 0.0624999)
(0.052641 -0.0176786 0.0543522)
(0.0353257 -0.013336 0.0698004)
(0.0256537 -0.0110719 0.0744572)
(0.0191494 -0.0110621 0.0762254)
(0.0122403 -0.0120617 0.0770783)
(0.00514649 -0.0135507 0.0776909)
(-0.00161195 -0.0154066 0.0781418)
(-0.00840329 -0.0178048 0.0778391)
(-0.0176919 -0.0207718 0.0749162)
(-0.0298837 -0.0210908 0.0603352)
(0.0474961 -0.0340947 0.044395)
(0.0321727 -0.0274665 0.0564724)
(0.0234521 -0.0235099 0.0604529)
(0.01667 -0.0232979 0.0618872)
(0.00994121 -0.024861 0.0625377)
(0.00322225 -0.0273565 0.0630311)
(-0.00348246 -0.0307579 0.0634028)
(-0.0106048 -0.0351995 0.0631002)
(-0.0201771 -0.0396585 0.0605158)
(-0.0333848 -0.0388414 0.0492821)
(0.0572836 0.0594866 0.141113)
(0.0425786 0.0630856 0.173637)
(0.0370977 0.0610284 0.179051)
(0.0345175 0.0584403 0.179653)
(0.0311984 0.0563641 0.180992)
(0.026819 0.0542236 0.182983)
(0.0213086 0.0515732 0.185765)
(0.0128845 0.0485406 0.189481)
(-0.00103748 0.0469488 0.1885)
(-0.0193879 0.0461717 0.160325)
(0.0505862 0.0431106 0.175221)
(0.0402303 0.0478262 0.212614)
(0.0364029 0.0469949 0.215335)
(0.0344911 0.0458075 0.213762)
(0.0310169 0.0445142 0.213956)
(0.0260612 0.042823 0.215762)
(0.0198253 0.040704 0.219209)
(0.0110612 0.0388267 0.224331)
(-0.00308081 0.0384666 0.225161)
(-0.0214223 0.0356792 0.190915)
(0.0476124 0.0369776 0.182362)
(0.0384535 0.0417956 0.217378)
(0.0352454 0.0420099 0.21758)
(0.032848 0.0413206 0.215158)
(0.0287252 0.0403348 0.215125)
(0.0231803 0.0389838 0.216636)
(0.0165557 0.0374447 0.219759)
(0.00809191 0.0364479 0.2252)
(-0.00414876 0.0362587 0.227925)
(-0.0197823 0.0326172 0.195229)
(0.0489302 0.0328448 0.18417)
(0.0389126 0.0381477 0.21754)
(0.0348735 0.0386724 0.217006)
(0.0316014 0.0380494 0.215123)
(0.0267862 0.0371344 0.215495)
(0.0207044 0.0358911 0.216747)
(0.0138483 0.0345365 0.218973)
(0.00562829 0.0337083 0.223462)
(-0.00543637 0.0332029 0.226517)
(-0.0193267 0.0287351 0.194972)
(0.0520877 0.0278397 0.186025)
(0.0403141 0.0328153 0.218878)
(0.0350484 0.0332885 0.218328)
(0.0309144 0.0326106 0.216945)
(0.0254546 0.0316138 0.217493)
(0.0188934 0.0303575 0.21855)
(0.01184 0.0290183 0.220228)
(0.00376698 0.0280261 0.223867)
(-0.006853 0.0270748 0.226603)
(-0.0203508 0.022593 0.195347)
(0.0553601 0.0217137 0.18784)
(0.0417899 0.0259831 0.221129)
(0.0354051 0.0261497 0.220568)
(0.0304854 0.0251958 0.219102)
(0.0244463 0.0239698 0.219554)
(0.0175245 0.0226152 0.220477)
(0.0103456 0.021275 0.221979)
(0.00238682 0.020178 0.225401)
(-0.00796556 0.0190318 0.227849)
(-0.0213735 0.0152633 0.196102)
(0.0582914 0.0145932 0.18964)
(0.0431458 0.0181388 0.224309)
(0.0358398 0.0179073 0.223742)
(0.0302054 0.0165959 0.221593)
(0.0236528 0.015105 0.221658)
(0.016458 0.0136231 0.222495)
(0.00921731 0.0122443 0.224177)
(0.00145572 0.0110712 0.228002)
(-0.0085052 0.0098829 0.230205)
(-0.0216502 0.00711723 0.19724)
(0.0611533 0.00524907 0.191537)
(0.0447089 0.00828336 0.228475)
(0.0366824 0.00787086 0.228616)
(0.0303562 0.00623239 0.22573)
(0.0231872 0.00449008 0.225128)
(0.0156334 0.00289576 0.225895)
(0.00824783 0.00149922 0.22806)
(0.000626419 0.000263319 0.232375)
(-0.00900512 -0.00104998 0.233726)
(-0.0217765 -0.00293577 0.198861)
(0.063079 -0.00910013 0.187882)
(0.0463983 -0.00650471 0.227476)
(0.0375767 -0.00619257 0.230049)
(0.0305625 -0.00786877 0.22781)
(0.0228373 -0.00985941 0.227123)
(0.0149016 -0.0115457 0.227798)
(0.00723699 -0.0129237 0.229853)
(-0.000584232 -0.0142887 0.233381)
(-0.0105638 -0.0160453 0.23234)
(-0.0232174 -0.0163686 0.195299)
(0.0596549 -0.0289791 0.154686)
(0.0434559 -0.0252739 0.189138)
(0.0354281 -0.0242895 0.194151)
(0.0284244 -0.0261405 0.193805)
(0.0211718 -0.0286557 0.194004)
(0.0138327 -0.0306618 0.19465)
(0.0065827 -0.0322179 0.195804)
(-0.00112368 -0.0339012 0.197607)
(-0.0108211 -0.0357649 0.194451)
(-0.0241572 -0.0345917 0.163165)
(0.0692283 0.066413 0.255079)
(0.0516564 0.0708518 0.316883)
(0.0447144 0.0664733 0.326776)
(0.0426953 0.0607489 0.327002)
(0.0416812 0.0565563 0.329542)
(0.0400412 0.053963 0.334789)
(0.0364051 0.0527675 0.343469)
(0.0281256 0.0525191 0.356029)
(0.0124174 0.053468 0.361498)
(-0.00861984 0.0537735 0.325752)
(0.0552701 0.0483167 0.319085)
(0.0423261 0.0531246 0.384182)
(0.0366881 0.0480959 0.385131)
(0.0360789 0.0430483 0.378237)
(0.0364668 0.0393413 0.37645)
(0.0360422 0.0368759 0.379608)
(0.0332168 0.0357693 0.388273)
(0.025454 0.0363942 0.403215)
(0.00973835 0.0392704 0.412629)
(-0.011034 0.0384386 0.366001)
(0.0443141 0.0413404 0.330567)
(0.0333027 0.0448299 0.387203)
(0.029124 0.040229 0.380642)
(0.0293929 0.0359052 0.370392)
(0.0307047 0.0327129 0.366895)
(0.0313781 0.0305633 0.369104)
(0.0297578 0.0296665 0.377478)
(0.0235089 0.0305713 0.393618)
(0.0103427 0.0334602 0.408213)
(-0.00714733 0.032405 0.365754)
(0.0378228 0.0360539 0.330868)
(0.0275508 0.0396775 0.381526)
(0.0241437 0.0361051 0.371814)
(0.0247559 0.0326045 0.360892)
(0.0264156 0.0297915 0.357015)
(0.0277615 0.0278377 0.358749)
(0.0269436 0.0269441 0.366411)
(0.0219149 0.0272792 0.38195)
(0.0107563 0.0288408 0.398149)
(-0.00426745 0.0265243 0.358726)
(0.0351733 0.0304512 0.331775)
(0.0246356 0.0341547 0.379835)
(0.0214281 0.0317442 0.368896)
(0.0219036 0.0291088 0.357768)
(0.0234943 0.0268023 0.353589)
(0.0253189 0.0249628 0.355125)
(0.0248471 0.0237097 0.36254)
(0.0203602 0.0231009 0.377492)
(0.0102287 0.023018 0.393853)
(-0.00386116 0.0197242 0.355242)
(0.0349142 0.0244129 0.333482)
(0.0238637 0.0280576 0.381702)
(0.020577 0.0266731 0.370625)
(0.0207632 0.0248788 0.359414)
(0.021966 0.0233383 0.355186)
(0.023473 0.0215072 0.35666)
(0.022881 0.0194257 0.363937)
(0.0186267 0.0177636 0.378613)
(0.00906369 0.0163108 0.394539)
(-0.00456933 0.01267 0.355022)
(0.0363258 0.0180175 0.336124)
(0.0248366 0.0214465 0.38719)
(0.021318 0.020784 0.377023)
(0.0211006 0.0194208 0.365834)
(0.0215766 0.0180047 0.361839)
(0.0219692 0.0160236 0.363354)
(0.0208874 0.0135043 0.370513)
(0.0167263 0.0110647 0.385183)
(0.00760138 0.00857724 0.400105)
(-0.00557889 0.00504017 0.357986)
(0.0392505 0.0101996 0.339844)
(0.0275441 0.0131927 0.396879)
(0.0235329 0.0129854 0.389511)
(0.0223819 0.0117083 0.378788)
(0.0217075 0.00996914 0.375006)
(0.0208574 0.00766364 0.376716)
(0.0189459 0.00481277 0.384085)
(0.0144947 0.00168045 0.398692)
(0.00557701 -0.00166607 0.411193)
(-0.00720736 -0.00480486 0.364276)
(0.043034 -0.00100335 0.333418)
(0.0317248 0.00123354 0.39868)
(0.0269436 0.0014045 0.398496)
(0.0243886 -5.981e-05 0.3908)
(0.02216 -0.00238595 0.388321)
(0.0198158 -0.0053156 0.390397)
(0.0166957 -0.00884111 0.397257)
(0.011516 -0.0128867 0.409676)
(0.00232937 -0.0171256 0.415884)
(-0.0101948 -0.0187564 0.362791)
(0.0450386 -0.0164427 0.273644)
(0.0345427 -0.0138324 0.335372)
(0.0300804 -0.013608 0.343614)
(0.0267507 -0.0157778 0.342162)
(0.0236905 -0.0192328 0.342978)
(0.020525 -0.0233474 0.346002)
(0.016645 -0.0281889 0.351547)
(0.0109405 -0.0338396 0.359966)
(0.00185827 -0.0390605 0.360323)
(-0.0114642 -0.0394835 0.315287)
(0.069916 0.0436978 0.357716)
(0.0537335 0.0638833 0.444161)
(0.0494646 0.0732441 0.462753)
(0.0509594 0.0783373 0.467098)
(0.0538225 0.0816581 0.474911)
(0.0559511 0.0828992 0.486855)
(0.0555787 0.0816657 0.503899)
(0.0500736 0.0774685 0.526676)
(0.0368823 0.0712546 0.539061)
(0.0204986 0.0636893 0.505978)
(0.0468948 0.0315594 0.443471)
(0.0392961 0.0491646 0.535364)
(0.0394036 0.0547354 0.543311)
(0.0431333 0.0576466 0.537593)
(0.047203 0.0596093 0.538242)
(0.0498376 0.0606234 0.546199)
(0.0492844 0.0605943 0.562249)
(0.0435504 0.0594725 0.586551)
(0.0310065 0.0575283 0.600655)
(0.0161202 0.050417 0.54685)
(0.0364742 0.0321945 0.459924)
(0.0334517 0.0477243 0.541787)
(0.0356488 0.0516464 0.538284)
(0.039636 0.0527359 0.525444)
(0.0435108 0.0530997 0.521219)
(0.0457841 0.0534584 0.527076)
(0.0444404 0.053942 0.543839)
(0.038273 0.0542815 0.571284)
(0.0270513 0.053763 0.593116)
(0.0151069 0.0468813 0.541924)
(0.0328857 0.0327316 0.458908)
(0.0311559 0.0473995 0.532936)
(0.0336228 0.0508011 0.523025)
(0.0371929 0.0510254 0.506411)
(0.0408651 0.0506302 0.49982)
(0.0430159 0.0501793 0.504357)
(0.040904 0.0499636 0.520889)
(0.0341541 0.0499783 0.549756)
(0.0235687 0.0489476 0.575598)
(0.0130709 0.0414992 0.527577)
(0.0324873 0.0313728 0.457881)
(0.0309086 0.044607 0.528464)
(0.0331298 0.0477754 0.515266)
(0.0362015 0.0480369 0.497251)
(0.0394751 0.047653 0.493179)
(0.041013 0.0464784 0.496987)
(0.0378754 0.0447111 0.5096)
(0.0306546 0.0433518 0.538597)
(0.0202568 0.0412915 0.56627)
(0.0100165 0.0338602 0.519234)
(0.0334738 0.0280139 0.457314)
(0.0320539 0.0394072 0.528946)
(0.0341408 0.0422568 0.515989)
(0.0363769 0.0426132 0.498246)
(0.0382123 0.0420777 0.494498)
(0.0382633 0.0401224 0.498148)
(0.0343159 0.0371975 0.510081)
(0.0272001 0.0345648 0.538357)
(0.0174484 0.0317971 0.565295)
(0.00758442 0.0251741 0.516742)
(0.0351278 0.0231492 0.457304)
(0.034023 0.0324443 0.534547)
(0.0360052 0.0344801 0.525232)
(0.0370522 0.0341145 0.509023)
(0.0368454 0.0326585 0.502708)
(0.0351033 0.0301449 0.50673)
(0.0308225 0.0269459 0.521853)
(0.0243173 0.0239582 0.548893)
(0.0157602 0.0211211 0.572629)
(0.0067594 0.0157672 0.520071)
(0.0373898 0.0165659 0.457925)
(0.0364543 0.0237934 0.544951)
(0.0381301 0.0247751 0.542306)
(0.0381246 0.023306 0.529609)
(0.0362448 0.0209306 0.525146)
(0.0330473 0.0179359 0.530009)
(0.028515 0.0146725 0.544844)
(0.022737 0.0117957 0.569632)
(0.0154157 0.00915578 0.588128)
(0.00764889 0.0050862 0.529322)
(0.0400599 0.00764131 0.442399)
(0.0389615 0.0128908 0.541225)
(0.0399519 0.0129601 0.550567)
(0.039079 0.010422 0.544911)
(0.0363078 0.00711258 0.54484)
(0.0324361 0.00374298 0.551003)
(0.02784 0.000624726 0.56402)
(0.0225472 -0.00207822 0.584196)
(0.0161715 -0.00467154 0.593168)
(0.00984207 -0.00755114 0.528192)
(0.0429907 -0.00228386 0.353477)
(0.0411583 0.0020178 0.450403)
(0.0422343 0.000735546 0.47216)
(0.0414703 -0.00321915 0.476955)
(0.0391727 -0.00763413 0.483462)
(0.0359563 -0.0114469 0.492289)
(0.0321372 -0.0145231 0.504239)
(0.0276161 -0.0171928 0.520035)
(0.0222349 -0.0200962 0.523594)
(0.0167324 -0.0223463 0.473461)
(0.110818 0.0395828 0.442539)
(0.0842598 0.067988 0.541338)
(0.0729717 0.0782508 0.561203)
(0.0702052 0.0816315 0.56666)
(0.0706746 0.0826846 0.579561)
(0.0712741 0.0816093 0.60088)
(0.0691664 0.0787753 0.631251)
(0.0608963 0.0742555 0.671723)
(0.0432659 0.0685211 0.703494)
(0.020084 0.0586745 0.693179)
(0.0794795 0.0212721 0.529231)
(0.0627446 0.0478344 0.639987)
(0.0561341 0.0536326 0.649882)
(0.0563772 0.0553317 0.644301)
(0.0590604 0.0557466 0.64828)
(0.0612923 0.0551878 0.663302)
(0.0602524 0.0541282 0.690119)
(0.0530157 0.0528026 0.729223)
(0.0368932 0.0515619 0.758234)
(0.0159578 0.0428333 0.713724)
(0.0596871 0.0161301 0.534527)
(0.0490427 0.0399378 0.636797)
(0.0460501 0.0445131 0.634463)
(0.0475666 0.0452659 0.620456)
(0.0508941 0.0449386 0.617575)
(0.0536406 0.044648 0.629462)
(0.0528363 0.0448786 0.657092)
(0.0464683 0.0451528 0.699518)
(0.0334022 0.0450239 0.736486)
(0.0171059 0.0367973 0.691395)
(0.0477173 0.0107139 0.520161)
(0.0401732 0.0334308 0.615701)
(0.0392686 0.0380964 0.606617)
(0.0415638 0.0385957 0.586382)
(0.0457229 0.0379708 0.57817)
(0.0490419 0.0377128 0.588319)
(0.0476784 0.0384672 0.617383)
(0.0414528 0.0390043 0.663644)
(0.0303565 0.0383194 0.705122)
(0.0172427 0.0294461 0.661475)
(0.0411772 0.00431779 0.507324)
(0.0350561 0.0255132 0.601144)
(0.0355434 0.0304808 0.588642)
(0.0386282 0.0313912 0.565523)
(0.0435733 0.0313522 0.560435)
(0.046858 0.031271 0.568077)
(0.0441204 0.0312126 0.593836)
(0.0374854 0.0310372 0.642384)
(0.0275178 0.0295351 0.686413)
(0.015968 0.0205428 0.642613)
(0.0377223 -0.00284577 0.496212)
(0.0327325 0.0166436 0.593937)
(0.0344197 0.0218958 0.583232)
(0.0377412 0.0235132 0.561413)
(0.0416023 0.0239878 0.557887)
(0.0433641 0.0236977 0.565749)
(0.0400416 0.0226587 0.590193)
(0.0340375 0.0215962 0.637901)
(0.0254675 0.0195655 0.680748)
(0.0152524 0.0111863 0.634639)
(0.0357924 -0.0101207 0.48665)
(0.0320585 0.00773157 0.593854)
(0.0347656 0.0129636 0.590109)
(0.0377385 0.0147549 0.573613)
(0.039556 0.0149495 0.567685)
(0.0394139 0.0143359 0.578273)
(0.036579 0.0129233 0.606164)
(0.0319197 0.0113042 0.649939)
(0.0250109 0.0090315 0.688054)
(0.0162878 0.0014535 0.637519)
(0.0348172 -0.0177099 0.477711)
(0.0325815 -0.00102252 0.599719)
(0.0358986 0.00431732 0.606195)
(0.0385834 0.00603686 0.597688)
(0.0392131 0.00592952 0.597867)
(0.0380683 0.00473652 0.610553)
(0.0354856 0.00286137 0.636888)
(0.0317465 0.000658324 0.676018)
(0.0261525 -0.00217823 0.707842)
(0.0190525 -0.00936335 0.651319)
(0.0339027 -0.0266686 0.447417)
(0.0337469 -0.010172 0.587062)
(0.0373325 -0.0039294 0.609968)
(0.0397055 -0.00202896 0.612334)
(0.0399826 -0.00250084 0.620553)
(0.0386459 -0.00431178 0.636489)
(0.0362495 -0.00702577 0.661201)
(0.0329381 -0.0104859 0.695381)
(0.0282223 -0.014999 0.716954)
(0.0232747 -0.0224004 0.656011)
(0.030803 -0.0385832 0.314126)
(0.0330347 -0.019095 0.46065)
(0.0384824 -0.0112945 0.503482)
(0.0420157 -0.00930793 0.522625)
(0.0437026 -0.0104308 0.542426)
(0.0438755 -0.0132094 0.564936)
(0.0428628 -0.0172882 0.591486)
(0.0406673 -0.0228857 0.623505)
(0.037413 -0.0304009 0.642522)
(0.0343154 -0.0395201 0.606091)
(0.0830769 -0.0262869 0.535405)
(0.0718297 0.0031938 0.63381)
(0.070801 0.0184935 0.651276)
(0.0744562 0.0270914 0.656072)
(0.0783961 0.0321408 0.672866)
(0.0809053 0.0340572 0.702608)
(0.0803622 0.0328745 0.746603)
(0.0746049 0.0276007 0.806187)
(0.0616828 0.0181804 0.860752)
(0.0480338 0.000135947 0.888594)
(0.0533267 -0.0321198 0.601559)
(0.0497122 -0.00551595 0.718021)
(0.0539507 0.00721984 0.726884)
(0.0608949 0.0156214 0.721158)
(0.0673756 0.0213579 0.728921)
(0.0717774 0.024575 0.751658)
(0.0725645 0.0252514 0.790417)
(0.0681213 0.022649 0.845578)
(0.0574119 0.0159688 0.892408)
(0.0451772 -0.000697766 0.871433)
(0.0397213 -0.0293881 0.584013)
(0.0414692 -0.00437047 0.695646)
(0.048166 0.00760654 0.692983)
(0.0556462 0.0153169 0.67926)
(0.0622343 0.0203538 0.679767)
(0.0664391 0.023508 0.699426)
(0.0665695 0.024871 0.739414)
(0.0619274 0.0232889 0.798187)
(0.0525354 0.0172902 0.853435)
(0.0429705 0.000294058 0.827071)
(0.0340913 -0.0266175 0.549146)
(0.0378521 -0.0024233 0.657564)
(0.0452401 0.00918374 0.64934)
(0.0526781 0.0159948 0.62939)
(0.0596039 0.0200825 0.623273)
(0.0634577 0.0225764 0.64126)
(0.0616614 0.0238015 0.683204)
(0.0559004 0.0220535 0.747353)
(0.0469499 0.0156277 0.807357)
(0.0388565 -0.0017563 0.779368)
(0.0309529 -0.0244633 0.519479)
(0.0359469 -0.00199497 0.629806)
(0.0438493 0.00877218 0.619537)
(0.0515497 0.0147711 0.596951)
(0.059297 0.0183344 0.594121)
(0.0624988 0.0205124 0.606856)
(0.0578 0.020585 0.648004)
(0.0505518 0.018012 0.71553)
(0.0419126 0.0111568 0.778145)
(0.0348776 -0.0060497 0.747695)
(0.0285748 -0.0233316 0.494068)
(0.0346695 -0.00303873 0.612311)
(0.0431293 0.00658355 0.606057)
(0.0503841 0.0119654 0.585898)
(0.0564624 0.0149926 0.586261)
(0.0579429 0.0162712 0.600171)
(0.0525991 0.0152853 0.638548)
(0.0458416 0.0120632 0.705182)
(0.0384034 0.00525881 0.765831)
(0.0328695 -0.0111942 0.73121)
(0.026139 -0.0230311 0.47115)
(0.0331849 -0.00497292 0.603886)
(0.0420823 0.00320742 0.607635)
(0.0482929 0.00759905 0.595627)
(0.0516579 0.00955233 0.594368)
(0.0515199 0.00993849 0.613962)
(0.0478621 0.00848355 0.655099)
(0.0430148 0.00510341 0.715637)
(0.0375599 -0.00127297 0.769965)
(0.0340866 -0.0168839 0.729418)
(0.0235534 -0.0239823 0.447815)
(0.0311455 -0.00777598 0.601501)
(0.040342 -0.000955737 0.618827)
(0.0462356 0.00228453 0.617733)
(0.0486774 0.00336238 0.625783)
(0.0483414 0.00296758 0.648718)
(0.0461244 0.0012269 0.688239)
(0.0430684 -0.00211583 0.742609)
(0.0397809 -0.00814596 0.78919)
(0.0390417 -0.0232371 0.74147)
(0.0202764 -0.0271814 0.396938)
(0.0279518 -0.0121053 0.575634)
(0.0371824 -0.00598994 0.613449)
(0.0434057 -0.00364207 0.626469)
(0.0466165 -0.00319527 0.645601)
(0.0475378 -0.00392032 0.67367)
(0.0470528 -0.0056985 0.71211)
(0.0459222 -0.00891688 0.761316)
(0.0451464 -0.0150702 0.79636)
(0.048351 -0.030536 0.743966)
(0.0161766 -0.0328224 0.210675)
(0.0231029 -0.0172532 0.408802)
(0.0330656 -0.0112568 0.473571)
(0.0410171 -0.00959401 0.509434)
(0.0470118 -0.0095559 0.545328)
(0.0512463 -0.0101899 0.584101)
(0.0542934 -0.0115034 0.627637)
(0.0565925 -0.0141784 0.677358)
(0.0596129 -0.0212124 0.712405)
(0.0678806 -0.0379589 0.689828)
(0.0711982 -0.00902645 0.549702)
(0.0684701 -0.0141358 0.673185)
(0.0690483 -0.0160067 0.705832)
(0.0695149 -0.0145542 0.722747)
(0.0681552 -0.0111697 0.75307)
(0.0643338 -0.00782984 0.799948)
(0.0570328 -0.00602743 0.865863)
(0.0445035 -0.00757216 0.953144)
(0.0246568 -0.01469 1.04024)
(0.000507357 -0.0374094 1.12445)
(0.0586156 -0.00686276 0.612519)
(0.0561141 -0.00890061 0.749399)
(0.0573007 -0.0128794 0.766616)
(0.0600289 -0.0140674 0.767822)
(0.061925 -0.0133149 0.78507)
(0.0617354 -0.0121736 0.821358)
(0.0580048 -0.0119214 0.878343)
(0.0487847 -0.0141626 0.956799)
(0.031768 -0.0205802 1.02979)
(0.0100413 -0.0421883 1.04595)
(0.0468771 -0.00469497 0.583155)
(0.0454802 -0.00658019 0.712459)
(0.0484224 -0.0107348 0.714253)
(0.0530592 -0.0127306 0.704673)
(0.0573528 -0.0134304 0.712574)
(0.0596873 -0.0136612 0.744341)
(0.0581967 -0.0143097 0.801857)
(0.0513492 -0.0173777 0.883681)
(0.0375045 -0.0246651 0.964859)
(0.019473 -0.0460796 0.969096)
(0.0368435 -0.00413225 0.536127)
(0.0362138 -0.0063708 0.660073)
(0.04045 -0.0102547 0.65424)
(0.0465998 -0.0126786 0.636855)
(0.0532191 -0.0146288 0.635707)
(0.0575041 -0.0159124 0.66522)
(0.0565864 -0.0167419 0.724362)
(0.0510249 -0.0205305 0.812323)
(0.0397067 -0.0290655 0.898103)
(0.0250016 -0.0509439 0.89633)
(0.0290205 -0.0040327 0.496145)
(0.0286205 -0.00731834 0.620681)
(0.033811 -0.0111514 0.61174)
(0.0414474 -0.0140197 0.591148)
(0.0503923 -0.0171473 0.592848)
(0.0561001 -0.0188814 0.612619)
(0.0542784 -0.0196509 0.674194)
(0.049143 -0.0240678 0.765731)
(0.0399934 -0.0336544 0.853471)
(0.0282785 -0.0558888 0.84561)
(0.0232555 -0.00369523 0.462206)
(0.0226907 -0.00836922 0.594237)
(0.0283289 -0.0122437 0.589092)
(0.0362184 -0.0147886 0.571186)
(0.0448381 -0.0175418 0.577782)
(0.0505656 -0.0196219 0.600269)
(0.0496085 -0.0215925 0.655628)
(0.0463518 -0.0271656 0.745636)
(0.0398324 -0.0376059 0.82994)
(0.0313614 -0.0600603 0.814504)
(0.0195 -0.00246093 0.432131)
(0.0184029 -0.00867477 0.579016)
(0.0238445 -0.0127071 0.584262)
(0.0309857 -0.0148101 0.575782)
(0.0378751 -0.0167934 0.580957)
(0.0429167 -0.0190473 0.611923)
(0.044623 -0.0227346 0.669142)
(0.0441276 -0.0297181 0.750288)
(0.0406266 -0.0409613 0.825913)
(0.0356736 -0.0638193 0.800953)
(0.018563 -0.000445902 0.402059)
(0.0165059 -0.00810367 0.571146)
(0.0211222 -0.0122857 0.590325)
(0.0275032 -0.0144057 0.593439)
(0.033574 -0.0163455 0.609595)
(0.0385352 -0.019192 0.644559)
(0.0419434 -0.0241563 0.699876)
(0.0436057 -0.032366 0.773003)
(0.0427916 -0.0446826 0.838365)
(0.0414621 -0.0682597 0.802274)
(0.0220299 0.00160374 0.341471)
(0.0182012 -0.00730072 0.537803)
(0.0211244 -0.011307 0.577995)
(0.0264167 -0.0136131 0.595717)
(0.0321714 -0.0160814 0.623845)
(0.0375127 -0.0198407 0.664438)
(0.0420013 -0.0261731 0.7182)
(0.0451872 -0.0360412 0.784699)
(0.0467108 -0.0504614 0.83583)
(0.0498963 -0.0752546 0.790953)
(0.0326701 0.00226287 0.123769)
(0.0260515 -0.00751364 0.343076)
(0.0271264 -0.0113241 0.411032)
(0.0315648 -0.0138081 0.452774)
(0.0378266 -0.0169059 0.49898)
(0.0446875 -0.0217333 0.551414)
(0.0513651 -0.0296615 0.610794)
(0.0570419 -0.0418989 0.677597)
(0.0619811 -0.0602327 0.728131)
(0.0690948 -0.0889339 0.712259)
(0.0032131 0.0589735 0.417054)
(0.0186103 0.0259264 0.612574)
(0.0311386 0.0056234 0.691402)
(0.0379534 -0.0078087 0.743973)
(0.0389285 -0.0175028 0.804499)
(0.0353853 -0.0257992 0.878836)
(0.0284912 -0.0351981 0.971479)
(0.0188741 -0.0483062 1.08598)
(0.00676533 -0.0673514 1.20098)
(-0.00228083 -0.102228 1.3349)
(0.00417019 0.0540455 0.513095)
(0.0210615 0.0229007 0.70068)
(0.0352583 0.00372989 0.747209)
(0.0441831 -0.00863599 0.771161)
(0.0478798 -0.0169816 0.809205)
(0.0474009 -0.0236686 0.866347)
(0.043486 -0.0312071 0.945299)
(0.0363665 -0.0420246 1.04724)
(0.0264383 -0.0582923 1.14399)
(0.0182284 -0.0887728 1.1953)
(0.00639844 0.0579529 0.49165)
(0.023371 0.025984 0.660567)
(0.0380729 0.00704061 0.683083)
(0.0479146 -0.00515204 0.689549)
(0.0532536 -0.0135267 0.713091)
(0.0545871 -0.0202861 0.762516)
(0.0520316 -0.0274964 0.840689)
(0.0459603 -0.0377052 0.94609)
(0.036883 -0.0531514 1.05169)
(0.029876 -0.0821486 1.08588)
(0.00881 0.065133 0.449064)
(0.0247343 0.032034 0.603175)
(0.0387325 0.0126847 0.611865)
(0.0489058 -0.000107252 0.605916)
(0.0559095 -0.00944452 0.615607)
(0.0587304 -0.0173972 0.660796)
(0.0562565 -0.0250919 0.739883)
(0.0504813 -0.0353911 0.852463)
(0.0420994 -0.0507319 0.963)
(0.0356645 -0.0786713 0.987446)
(0.0108541 0.0736345 0.413814)
(0.0253636 0.0387005 0.56029)
(0.038352 0.0184241 0.560766)
(0.0490197 0.00485818 0.54786)
(0.0585056 -0.00578889 0.558068)
(0.0629213 -0.0150837 0.587826)
(0.058601 -0.0232877 0.672929)
(0.0524687 -0.0338146 0.788973)
(0.0451285 -0.049099 0.900852)
(0.0399529 -0.0760909 0.915811)
(0.0132405 0.0824482 0.386292)
(0.0259264 0.0451978 0.532966)
(0.0374828 0.023729 0.533023)
(0.0472713 0.00940159 0.520521)
(0.056369 -0.00173189 0.535213)
(0.0609512 -0.011663 0.569698)
(0.0572348 -0.0206499 0.643298)
(0.052769 -0.0317549 0.756445)
(0.0474921 -0.0469102 0.863205)
(0.0444641 -0.0731143 0.867007)
(0.0176269 0.0915023 0.365145)
(0.0277188 0.0515902 0.520264)
(0.0369079 0.0287624 0.527016)
(0.0443351 0.0133349 0.522484)
(0.0506415 0.00178548 0.534946)
(0.0544308 -0.00799647 0.577934)
(0.054343 -0.0175778 0.651774)
(0.0531088 -0.0291262 0.752368)
(0.0508038 -0.0439855 0.847704)
(0.0506437 -0.0695856 0.837946)
(0.0256222 0.100629 0.347689)
(0.0320308 0.0581514 0.519007)
(0.0383565 0.0339227 0.536057)
(0.0434623 0.0172528 0.540559)
(0.0478843 0.00498227 0.562975)
(0.0514488 -0.00504083 0.608596)
(0.0538835 -0.0149621 0.678365)
(0.0553971 -0.0264641 0.768326)
(0.0560427 -0.0408468 0.850481)
(0.0592508 -0.0658354 0.825177)
(0.0418264 0.110638 0.304009)
(0.0414595 0.0650242 0.496928)
(0.0438499 0.0389353 0.530944)
(0.0466815 0.0208325 0.546515)
(0.0500241 0.00756918 0.578073)
(0.0537781 -0.00288632 0.626924)
(0.0575494 -0.012822 0.692572)
(0.0609859 -0.0238813 0.773266)
(0.0644072 -0.0379165 0.838161)
(0.0719724 -0.0627473 0.799604)
(0.076943 0.12625 0.107193)
(0.0679727 0.0731582 0.315095)
(0.0641769 0.0430619 0.370271)
(0.0635285 0.0232614 0.403921)
(0.0650894 0.00938115 0.448479)
(0.0686063 -0.000911793 0.505015)
(0.0733691 -0.0101268 0.572876)
(0.0785431 -0.020155 0.651136)
(0.0848249 -0.0348608 0.713432)
(0.0967821 -0.060149 0.70078)
(-0.0508303 0.159478 0.191694)
(-0.0391729 0.0907543 0.471642)
(-0.0279144 0.0443778 0.604249)
(-0.0223923 0.0113082 0.700028)
(-0.0221871 -0.0132319 0.795563)
(-0.0267283 -0.032145 0.898203)
(-0.0345626 -0.0482737 1.01336)
(-0.044418 -0.0635571 1.14521)
(-0.0554491 -0.0803301 1.27282)
(-0.0655321 -0.108317 1.42638)
(-0.0149556 0.14955 0.340323)
(-0.00689544 0.0899821 0.586381)
(0.00130044 0.0486814 0.666899)
(0.00639295 0.0170701 0.718311)
(0.00724791 -0.00736114 0.779818)
(0.00423228 -0.0265997 0.857688)
(-0.00186323 -0.0428983 0.955489)
(-0.0105887 -0.0577474 1.0743)
(-0.0216979 -0.0723508 1.18488)
(-0.0315562 -0.0973175 1.25377)
(0.00347578 0.146104 0.336859)
(0.00652197 0.0893153 0.549989)
(0.0132476 0.0503843 0.596835)
(0.0187737 0.0201028 0.622709)
(0.0211679 -0.00367067 0.663207)
(0.0204114 -0.0229788 0.729362)
(0.0167608 -0.0394702 0.82534)
(0.0100702 -0.0545598 0.949162)
(0.000560101 -0.0691063 1.07185)
(-0.00768681 -0.092315 1.12506)
(0.0157279 0.145185 0.308202)
(0.0153851 0.0899063 0.493789)
(0.0205502 0.0524388 0.518939)
(0.0260245 0.0234285 0.526177)
(0.0296344 9.91674e-05 0.546577)
(0.0306297 -0.0198903 0.605292)
(0.0290079 -0.0367406 0.701854)
(0.0241541 -0.0518115 0.834812)
(0.0163531 -0.0665085 0.964559)
(0.00927327 -0.0887873 1.00896)
(0.0271899 0.145103 0.28752)
(0.0233961 0.0912566 0.453772)
(0.0266187 0.0552714 0.463288)
(0.0321941 0.0277211 0.457353)
(0.0379071 0.00456035 0.473472)
(0.040795 -0.0169001 0.509923)
(0.0385127 -0.0337983 0.617463)
(0.0343912 -0.0482816 0.754436)
(0.02816 -0.0628495 0.886109)
(0.0224148 -0.0842558 0.920991)
(0.0386063 0.145359 0.277384)
(0.031424 0.0928664 0.43299)
(0.0324688 0.0583469 0.435289)
(0.0372244 0.0318902 0.425323)
(0.0435226 0.00945159 0.443046)
(0.0473023 -0.0114044 0.486372)
(0.044716 -0.0280305 0.576814)
(0.0416814 -0.0426277 0.709243)
(0.0370916 -0.0571317 0.83491)
(0.0330113 -0.0778263 0.857668)
(0.0510191 0.145278 0.278512)
(0.040487 0.0942805 0.432246)
(0.0388398 0.0613636 0.434958)
(0.0412423 0.0357548 0.429477)
(0.045216 0.0145048 0.444176)
(0.0481082 -0.00407764 0.494341)
(0.0478911 -0.0200713 0.581263)
(0.0467413 -0.0349513 0.697091)
(0.0440031 -0.049437 0.809346)
(0.0419613 -0.0694716 0.816756)
(0.0648834 0.143672 0.290246)
(0.0514458 0.0948978 0.450426)
(0.0470371 0.0643703 0.457668)
(0.0467013 0.0403283 0.456978)
(0.0480071 0.0205251 0.478995)
(0.0495384 0.00361221 0.52897)
(0.0504082 -0.0116587 0.607664)
(0.0503898 -0.0262852 0.709854)
(0.0490145 -0.0405719 0.80653)
(0.0491482 -0.0596308 0.796087)
(0.0829228 0.140571 0.285052)
(0.0658617 0.0944831 0.457426)
(0.0584157 0.0668714 0.476935)
(0.0551467 0.0452 0.48286)
(0.0537946 0.0270339 0.509779)
(0.0534756 0.0115114 0.558852)
(0.0534087 -0.00286624 0.629331)
(0.0529807 -0.0169407 0.718649)
(0.0521701 -0.0311428 0.794892)
(0.0547536 -0.0489607 0.768318)
(0.108358 0.14014 0.144866)
(0.0891682 0.0954477 0.321197)
(0.0785375 0.0695936 0.356437)
(0.0717228 0.0505555 0.374892)
(0.0668649 0.0345998 0.409272)
(0.063792 0.0209793 0.460132)
(0.0616661 0.00810728 0.527356)
(0.0598533 -0.0049738 0.609522)
(0.0589795 -0.0196681 0.679396)
(0.0622498 -0.0364299 0.675708)
(-0.177675 0.119432 -0.0210644)
(-0.15282 0.0651836 0.293395)
(-0.133766 0.0287077 0.449998)
(-0.120288 2.33502e-05 0.572348)
(-0.110889 -0.0255369 0.691952)
(-0.104572 -0.0478704 0.812406)
(-0.0990489 -0.0681204 0.937516)
(-0.0918492 -0.0871028 1.07042)
(-0.0807957 -0.105328 1.19112)
(-0.0649128 -0.126993 1.32682)
(-0.125536 0.122255 0.167312)
(-0.105719 0.0726145 0.430765)
(-0.088085 0.0438477 0.525994)
(-0.0756078 0.0182194 0.596222)
(-0.0677751 -0.00587034 0.675217)
(-0.0631432 -0.0277586 0.767176)
(-0.0595295 -0.0481422 0.874504)
(-0.0549467 -0.067262 0.997317)
(-0.0472505 -0.0854005 1.10693)
(-0.0353719 -0.106155 1.16992)
(-0.0863763 0.127969 0.183173)