/*--------------------------------*- C++ -*----------------------------------*\
| =========                 |                                                 |
| \\      /  F ield         | OpenFOAM: The Open Source CFD Toolbox           |
|  \\    /   O peration     | Version:  2406                                  |
|   \\  /    A nd           | Website:  www.openfoam.com                      |
|    \\/     M anipulation  |                                                 |
\*---------------------------------------------------------------------------*/
FoamFile
{
    version     2.0;
    format      ascii;
    arch        "LSB;label=32;scalar=64";
    class       volScalarField;
    location    "0.7";
    object      nut;
}
// * * * * * * * * * * * * * * * * * * * * * * * * * * * * * * * * * * * * * //

dimensions      [0 2 -1 0 0 0 0];

internalField   uniform 0;

boundaryField
{
    walls
    {
        type            nutUSpaldingWallFunction;
        value           nonuniform List<scalar> 
2000
(
3.17498e-09
4.55268e-09
6.00138e-09
7.18884e-09
7.85775e-09
7.85764e-09
7.18856e-09
6.00099e-09
4.55231e-09
3.1747e-09
1.87653e-09
2.63876e-09
3.47357e-09
4.17591e-09
4.57735e-09
4.57715e-09
4.17535e-09
3.47276e-09
2.63789e-09
1.87572e-09
9.92189e-10
1.37269e-09
1.79839e-09
2.16539e-09
2.37719e-09
2.3764e-09
2.1632e-09
1.79525e-09
1.36925e-09
9.89053e-10
1.17764e-09
1.6346e-09
2.13899e-09
2.56854e-09
2.81452e-09
2.81256e-09
2.56314e-09
2.1314e-09
1.62657e-09
1.17059e-09
1.02883e-09
1.4201e-09
1.85385e-09
2.22405e-09
2.43556e-09
2.43185e-09
2.2139e-09
1.83964e-09
1.40512e-09
1.01559e-09
1.10146e-09
1.5187e-09
1.97755e-09
2.36638e-09
2.58665e-09
2.58007e-09
2.34814e-09
1.95133e-09
1.48989e-09
1.07447e-09
1.0902e-09
1.49511e-09
1.93822e-09
2.31151e-09
2.52015e-09
2.50827e-09
2.27814e-09
1.88925e-09
1.43938e-09
1.03592e-09
1.13765e-09
1.5539e-09
2.00597e-09
2.38339e-09
2.59034e-09
2.57118e-09
2.32952e-09
1.92711e-09
1.46394e-09
1.04987e-09
1.15115e-09
1.56793e-09
2.01871e-09
2.39247e-09
2.59372e-09
2.56817e-09
2.32102e-09
1.91562e-09
1.45215e-09
1.04024e-09
1.16048e-09
1.58252e-09
2.03855e-09
2.41514e-09
2.61515e-09
2.58443e-09
2.32977e-09
1.91708e-09
1.44863e-09
1.03571e-09
1.1466e-09
1.5679e-09
2.02344e-09
2.39867e-09
2.59511e-09
2.55876e-09
2.29802e-09
1.88126e-09
1.41329e-09
1.006e-09
1.12924e-09
1.54704e-09
1.99831e-09
2.36877e-09
2.55948e-09
2.51717e-09
2.25186e-09
1.83382e-09
1.36962e-09
9.70115e-10
1.1115e-09
1.52225e-09
1.96454e-09
2.32631e-09
2.51016e-09
2.46449e-09
2.20032e-09
1.78774e-09
1.33232e-09
9.41974e-10
1.10181e-09
1.50795e-09
1.94402e-09
2.30018e-09
2.48122e-09
2.43694e-09
2.17813e-09
1.77306e-09
1.32454e-09
9.38198e-10
1.09518e-09
1.50231e-09
1.94059e-09
2.30039e-09
2.48725e-09
2.45063e-09
2.19975e-09
1.80055e-09
1.35307e-09
9.62948e-10
1.07353e-09
1.48546e-09
1.93598e-09
2.31248e-09
2.51782e-09
2.49793e-09
2.25899e-09
1.86489e-09
1.41421e-09
1.01459e-09
1.0247e-09
1.4371e-09
1.90113e-09
2.30091e-09
2.53415e-09
2.54005e-09
2.31969e-09
1.93411e-09
1.48193e-09
1.07339e-09
9.70968e-10
1.37508e-09
1.84168e-09
2.25597e-09
2.51157e-09
2.54078e-09
2.3383e-09
1.96165e-09
1.51056e-09
1.09844e-09
9.36388e-10
1.32771e-09
1.78426e-09
2.19656e-09
2.45715e-09
2.49511e-09
2.30051e-09
1.92855e-09
1.48023e-09
1.0718e-09
9.22522e-10
1.30379e-09
1.74705e-09
2.1477e-09
2.39978e-09
2.43361e-09
2.23861e-09
1.86952e-09
1.42709e-09
1.02736e-09
9.23356e-10
1.30153e-09
1.73732e-09
2.12753e-09
2.3689e-09
2.39504e-09
2.1976e-09
1.83159e-09
1.39598e-09
1.00386e-09
9.30898e-10
1.31216e-09
1.74901e-09
2.13617e-09
2.37247e-09
2.39386e-09
2.19456e-09
1.83006e-09
1.39783e-09
1.00825e-09
9.33647e-10
1.31944e-09
1.76208e-09
2.15301e-09
2.39144e-09
2.41342e-09
2.21439e-09
1.85019e-09
1.41801e-09
1.0273e-09
9.32121e-10
1.31989e-09
1.7657e-09
2.16037e-09
2.40269e-09
2.42801e-09
2.23152e-09
1.86881e-09
1.43705e-09
1.0456e-09
9.33053e-10
1.32125e-09
1.76561e-09
2.15874e-09
2.3996e-09
2.42397e-09
2.22713e-09
1.86449e-09
1.43415e-09
1.0444e-09
9.56417e-10
1.34487e-09
1.78334e-09
2.16719e-09
2.39876e-09
2.41657e-09
2.21756e-09
1.85614e-09
1.42996e-09
1.04227e-09
1.04107e-09
1.43927e-09
1.87849e-09
2.25503e-09
2.47635e-09
2.48392e-09
2.27607e-09
1.90559e-09
1.46897e-09
1.06687e-09
1.19057e-09
1.61112e-09
2.06203e-09
2.43655e-09
2.64437e-09
2.6289e-09
2.39075e-09
1.98611e-09
1.51488e-09
1.08428e-09
1.36982e-09
1.81937e-09
2.28584e-09
2.65613e-09
2.83816e-09
2.77918e-09
2.48757e-09
2.03173e-09
1.5199e-09
1.06912e-09
1.49172e-09
1.96282e-09
2.43702e-09
2.79485e-09
2.94195e-09
2.83321e-09
2.489e-09
1.99232e-09
1.45839e-09
1.00812e-09
1.4851e-09
1.9703e-09
2.45765e-09
2.81948e-09
2.95593e-09
2.82666e-09
2.46047e-09
1.94941e-09
1.4111e-09
9.66351e-10
1.30444e-09
1.77821e-09
2.27523e-09
2.66322e-09
2.83063e-09
2.73106e-09
2.39036e-09
1.9003e-09
1.37871e-09
9.46371e-10
1.07936e-09
1.5153e-09
1.99899e-09
2.40612e-09
2.61834e-09
2.57698e-09
2.29493e-09
1.85297e-09
1.36692e-09
9.54092e-10
9.00134e-10
1.29485e-09
1.74957e-09
2.15163e-09
2.38858e-09
2.39505e-09
2.17237e-09
1.7865e-09
1.34663e-09
9.61257e-10
8.46239e-10
1.2141e-09
1.63979e-09
2.01698e-09
2.24749e-09
2.26752e-09
2.07447e-09
1.7236e-09
1.31567e-09
9.51876e-10
8.45992e-10
1.20342e-09
1.61574e-09
1.97667e-09
2.19481e-09
2.20948e-09
2.01851e-09
1.67481e-09
1.27529e-09
9.19987e-10
8.46654e-10
1.18738e-09
1.57442e-09
1.91177e-09
2.11244e-09
2.12246e-09
1.93996e-09
1.61568e-09
1.23772e-09
9.00828e-10
8.74117e-10
1.22477e-09
1.61138e-09
1.956e-09
2.17651e-09
2.22059e-09
2.07959e-09
1.79319e-09
1.43682e-09
1.08942e-09
7.4677e-10
1.09604e-09
1.4844e-09
1.86174e-09
2.15753e-09
2.31189e-09
2.29393e-09
2.11202e-09
1.81944e-09
1.46327e-09
1.138e-09
1.59326e-09
2.07829e-09
2.5628e-09
2.98116e-09
3.26276e-09
3.35099e-09
3.21977e-09
2.8876e-09
2.37417e-09
2.27429e-09
3.02407e-09
3.76523e-09
4.43906e-09
4.95943e-09
5.24778e-09
5.22979e-09
4.85872e-09
4.12564e-09
3.12206e-09
3.66266e-09
4.71009e-09
5.69447e-09
6.51194e-09
7.04961e-09
7.16535e-09
6.73075e-09
5.7179e-09
4.28174e-09
2.74081e-09
5.94255e-09
7.45957e-09
8.81935e-09
9.74894e-09
9.99316e-09
9.33808e-09
7.80682e-09
5.69532e-09
3.55541e-09
1.85232e-09
9.39014e-09
1.16288e-08
1.34411e-08
1.43374e-08
1.40109e-08
1.24402e-08
9.98859e-09
7.2162e-09
4.74371e-09
2.89696e-09
1.26529e-08
1.55306e-08
1.77511e-08
1.88097e-08
1.84356e-08
1.66707e-08
1.38904e-08
1.06753e-08
7.59136e-09
5.07137e-09
1.48568e-08
1.84146e-08
2.12753e-08
2.29746e-08
2.3104e-08
2.14261e-08
1.8096e-08
1.37736e-08
9.30223e-09
5.61759e-09
1.37335e-08
1.72304e-08
2.00172e-08
2.17081e-08
2.17854e-08
1.98338e-08
1.5976e-08
1.12026e-08
6.80528e-09
3.77761e-09
1.24888e-08
1.54115e-08
1.73241e-08
1.81998e-08
1.77533e-08
1.57919e-08
1.25385e-08
8.98616e-09
6.13744e-09
4.40472e-09
1.61195e-08
2.00563e-08
2.25525e-08
2.37198e-08
2.34295e-08
2.16514e-08
1.85759e-08
1.50213e-08
1.18854e-08
9.6824e-09
2.50155e-08
3.22037e-08
3.79474e-08
4.15958e-08
4.29185e-08
4.15776e-08
3.76978e-08
3.18851e-08
2.56286e-08
1.97971e-08
3.17461e-09
4.55221e-09
6.00091e-09
7.18852e-09
7.85767e-09
7.85785e-09
7.189e-09
6.00154e-09
4.55278e-09
3.17503e-09
1.8739e-09
2.6357e-09
3.47054e-09
4.17342e-09
4.57577e-09
4.57661e-09
4.1757e-09
3.4737e-09
2.63894e-09
1.87668e-09
9.82576e-10
1.3617e-09
1.78753e-09
2.15625e-09
2.37085e-09
2.37331e-09
2.16304e-09
1.79723e-09
1.37216e-09
9.92103e-10
1.15502e-09
1.60821e-09
2.11211e-09
2.54506e-09
2.79725e-09
2.80284e-09
2.5605e-09
2.13411e-09
1.63204e-09
1.17687e-09
9.91966e-10
1.37686e-09
1.80905e-09
2.184e-09
2.40527e-09
2.41405e-09
2.20829e-09
1.8436e-09
1.41458e-09
1.02701e-09
1.04677e-09
1.45561e-09
1.91278e-09
2.30864e-09
2.54338e-09
2.55573e-09
2.34309e-09
1.96218e-09
1.51063e-09
1.09878e-09
1.00519e-09
1.40151e-09
1.84734e-09
2.23561e-09
2.46929e-09
2.48791e-09
2.28805e-09
1.92349e-09
1.48802e-09
1.0879e-09
1.0051e-09
1.41363e-09
1.8778e-09
2.28576e-09
2.53655e-09
2.56605e-09
2.36907e-09
1.99927e-09
1.55219e-09
1.13722e-09
9.70595e-10
1.37835e-09
1.84909e-09
2.26948e-09
2.53499e-09
2.57742e-09
2.38862e-09
2.02136e-09
1.57217e-09
1.15281e-09
9.51109e-10
1.35779e-09
1.8329e-09
2.26347e-09
2.5413e-09
2.59397e-09
2.40996e-09
2.04155e-09
1.58729e-09
1.16257e-09
9.36952e-10
1.33496e-09
1.80198e-09
2.22885e-09
2.50725e-09
2.56355e-09
2.3839e-09
2.01948e-09
1.56864e-09
1.1478e-09
9.40791e-10
1.33251e-09
1.79031e-09
2.20836e-09
2.48025e-09
2.53372e-09
2.35454e-09
1.99309e-09
1.54633e-09
1.13024e-09
9.49822e-10
1.33826e-09
1.78912e-09
2.19792e-09
2.46074e-09
2.50795e-09
2.32665e-09
1.9671e-09
1.52448e-09
1.11325e-09
9.58923e-10
1.34782e-09
1.79676e-09
2.20015e-09
2.45582e-09
2.49636e-09
2.31114e-09
1.95118e-09
1.51094e-09
1.1031e-09
9.62741e-10
1.35256e-09
1.80121e-09
2.20108e-09
2.45107e-09
2.48534e-09
2.29572e-09
1.93456e-09
1.49668e-09
1.09293e-09
9.66364e-10
1.35578e-09
1.80228e-09
2.19694e-09
2.43934e-09
2.46484e-09
2.26766e-09
1.9021e-09
1.46494e-09
1.06627e-09
9.78211e-10
1.36576e-09
1.8057e-09
2.18965e-09
2.41807e-09
2.42852e-09
2.21812e-09
1.84425e-09
1.40653e-09
1.01478e-09
1.00575e-09
1.39292e-09
1.82472e-09
2.19454e-09
2.40464e-09
2.39635e-09
2.17045e-09
1.78766e-09
1.3491e-09
9.63673e-10
1.05108e-09
1.44238e-09
1.86965e-09
2.22762e-09
2.42096e-09
2.39522e-09
2.15464e-09
1.76277e-09
1.32028e-09
9.36054e-10
1.09398e-09
1.49344e-09
1.92411e-09
2.27864e-09
2.46238e-09
2.42344e-09
2.16918e-09
1.76623e-09
1.3157e-09
9.28132e-10
1.09963e-09
1.50463e-09
1.94375e-09
2.3043e-09
2.48927e-09
2.44631e-09
2.185e-09
1.77472e-09
1.31906e-09
9.28991e-10
1.05972e-09
1.46112e-09
1.90508e-09
2.2747e-09
2.46962e-09
2.43446e-09
2.17864e-09
1.77184e-09
1.31972e-09
9.31502e-10
1.00136e-09
1.38936e-09
1.82745e-09
2.20015e-09
2.40568e-09
2.38543e-09
2.14554e-09
1.75261e-09
1.31131e-09
9.28972e-10
9.45148e-10
1.31367e-09
1.73618e-09
2.10447e-09
2.31748e-09
2.31474e-09
2.09688e-09
1.72482e-09
1.29879e-09
9.24759e-10
9.1229e-10
1.26192e-09
1.66412e-09
2.02185e-09
2.23649e-09
2.24786e-09
2.0509e-09
1.70009e-09
1.28949e-09
9.23952e-10
9.24435e-10
1.27378e-09
1.66783e-09
2.01684e-09
2.22643e-09
2.24014e-09
2.05184e-09
1.71186e-09
1.30938e-09
9.46011e-10
9.83867e-10
1.36329e-09
1.78177e-09
2.14312e-09
2.35548e-09
2.36546e-09
2.1712e-09
1.82342e-09
1.41071e-09
1.03106e-09
1.03461e-09
1.45597e-09
1.92701e-09
2.33158e-09
2.57444e-09
2.59727e-09
2.40088e-09
2.03798e-09
1.60005e-09
1.18506e-09
1.03159e-09
1.49043e-09
2.02394e-09
2.49764e-09
2.80324e-09
2.86815e-09
2.6872e-09
2.31253e-09
1.8402e-09
1.37603e-09
9.69638e-10
1.44371e-09
2.01758e-09
2.55425e-09
2.92739e-09
3.047e-09
2.89357e-09
2.51563e-09
2.0142e-09
1.50997e-09
9.05472e-10
1.36597e-09
1.93935e-09
2.50007e-09
2.90821e-09
3.06054e-09
2.92259e-09
2.54045e-09
2.0214e-09
1.50488e-09
8.86927e-10
1.30562e-09
1.82647e-09
2.34381e-09
2.7212e-09
2.85537e-09
2.70563e-09
2.31902e-09
1.80616e-09
1.31831e-09
9.28812e-10
1.31148e-09
1.76736e-09
2.20347e-09
2.50091e-09
2.57312e-09
2.38987e-09
2.0027e-09
1.51984e-09
1.08488e-09
9.57532e-10
1.31653e-09
1.72139e-09
2.08081e-09
2.29404e-09
2.29732e-09
2.0815e-09
1.70379e-09
1.26799e-09
8.91871e-10
9.65191e-10
1.3101e-09
1.68852e-09
2.00311e-09
2.16722e-09
2.13335e-09
1.9094e-09
1.5539e-09
1.16241e-09
8.26073e-10
9.38309e-10
1.28305e-09
1.66753e-09
1.97947e-09
2.13888e-09
2.10165e-09
1.88222e-09
1.53831e-09
1.15963e-09
8.28871e-10
9.17774e-10
1.25475e-09
1.63182e-09
1.93522e-09
2.09168e-09
2.06084e-09
1.85679e-09
1.53239e-09
1.16745e-09
8.41327e-10
1.05203e-09
1.35336e-09
1.64595e-09
1.85735e-09
1.93662e-09
1.87456e-09
1.69074e-09
1.42517e-09
1.12698e-09
8.4845e-10
1.23806e-09
1.40835e-09
1.49471e-09
1.48676e-09
1.38404e-09
1.22886e-09
1.06144e-09
9.07766e-10
7.73508e-10
6.50491e-10
1.8637e-09
2.04903e-09
2.10669e-09
2.03972e-09
1.85725e-09
1.61843e-09
1.38889e-09
1.21113e-09
1.08397e-09
9.76225e-10
2.99806e-09
3.47997e-09
3.81728e-09
3.98933e-09
3.94325e-09
3.69235e-09
3.30823e-09
2.88456e-09
2.47056e-09
2.08478e-09
4.05967e-09
5.12559e-09
5.91105e-09
6.4509e-09
6.6735e-09
6.51675e-09
5.99857e-09
5.23501e-09
4.36647e-09
3.51012e-09
5.02669e-09
7.34541e-09
9.18471e-09
1.04175e-08
1.10182e-08
1.09729e-08
1.02788e-08
9.04775e-09
7.51375e-09
5.90957e-09
4.9579e-09
9.01187e-09
1.29992e-08
1.59395e-08
1.74804e-08
1.77043e-08
1.6768e-08
1.48787e-08
1.23708e-08
9.61506e-09
2.16155e-09
6.79497e-09
1.29974e-08
1.86442e-08
2.21967e-08
2.33187e-08
2.24559e-08
2.0152e-08
1.68785e-08
1.31264e-08
3.327e-10
1.08511e-09
6.15197e-09
1.36605e-08
2.05356e-08
2.44031e-08
2.49054e-08
2.29338e-08
1.94289e-08
1.52448e-08
3.11731e-09
1.54066e-09
7.71468e-11
2.61511e-09
8.61912e-09
1.49519e-08
1.87204e-08
1.91329e-08
1.69687e-08
1.3665e-08
2.78867e-09
2.5367e-09
1.32981e-09
8.82442e-11
2.46051e-09
7.61553e-09
1.25728e-08
1.49266e-08
1.43057e-08
1.19448e-08
8.77849e-10
8.54846e-10
8.39593e-10
1.08761e-09
2.93744e-09
7.48465e-09
1.32226e-08
1.69882e-08
1.72285e-08
1.47566e-08
1.94539e-10
2.94197e-11
8.77551e-10
3.20601e-09
7.26358e-09
1.27445e-08
1.86494e-08
2.28823e-08
2.38207e-08
2.14303e-08
3.17431e-09
4.55187e-09
6.00057e-09
7.18813e-09
7.85724e-09
7.85736e-09
7.18846e-09
6.00101e-09
4.55232e-09
3.17468e-09
1.874e-09
2.63565e-09
3.47018e-09
4.17242e-09
4.57401e-09
4.57408e-09
4.1726e-09
3.47036e-09
2.63572e-09
1.874e-09
9.82434e-10
1.36098e-09
1.78591e-09
2.15311e-09
2.36584e-09
2.36624e-09
2.15411e-09
1.78708e-09
1.36177e-09
9.82774e-10
1.15126e-09
1.60249e-09
2.10418e-09
2.53404e-09
2.78248e-09
2.78399e-09
2.53801e-09
2.10946e-09
1.6074e-09
1.15507e-09
9.73046e-10
1.35263e-09
1.78063e-09
2.15151e-09
2.36854e-09
2.37309e-09
2.16409e-09
1.79861e-09
1.37205e-09
9.90745e-10
1.00142e-09
1.39885e-09
1.84778e-09
2.23759e-09
2.46776e-09
2.47694e-09
2.26346e-09
1.88562e-09
1.44189e-09
1.04257e-09
9.42728e-10
1.31889e-09
1.74648e-09
2.11932e-09
2.34116e-09
2.35245e-09
2.15141e-09
1.79359e-09
1.37369e-09
9.96405e-10
9.48063e-10
1.32461e-09
1.75162e-09
2.12268e-09
2.34197e-09
2.35029e-09
2.14647e-09
1.7866e-09
1.36644e-09
9.90602e-10
9.40605e-10
1.30747e-09
1.72102e-09
2.07823e-09
2.28566e-09
2.28672e-09
2.08155e-09
1.72635e-09
1.31591e-09
9.52342e-10
9.63546e-10
1.33067e-09
1.73941e-09
2.08859e-09
2.2861e-09
2.2779e-09
2.06571e-09
1.70683e-09
1.29576e-09
9.34291e-10
9.98034e-10
1.36966e-09
1.77747e-09
2.1209e-09
2.3095e-09
2.29163e-09
2.07077e-09
1.70551e-09
1.28989e-09
9.26227e-10
1.04382e-09
1.42822e-09
1.84539e-09
2.19183e-09
2.37701e-09
2.35025e-09
2.11704e-09
1.7385e-09
1.31019e-09
9.36908e-10
1.0776e-09
1.47539e-09
1.90546e-09
2.25962e-09
2.44556e-09
2.41219e-09
2.16705e-09
1.77447e-09
1.33309e-09
9.50091e-10
1.08842e-09
1.49495e-09
1.93612e-09
2.29947e-09
2.48971e-09
2.45429e-09
2.20199e-09
1.79974e-09
1.34951e-09
9.59828e-10
1.07402e-09
1.48107e-09
1.92641e-09
2.29606e-09
2.49212e-09
2.46025e-09
2.20892e-09
1.80561e-09
1.35405e-09
9.62559e-10
1.04864e-09
1.45098e-09
1.89505e-09
2.26825e-09
2.4711e-09
2.44751e-09
2.20393e-09
1.80625e-09
1.3578e-09
9.66259e-10
1.03013e-09
1.42702e-09
1.86774e-09
2.24284e-09
2.45259e-09
2.43956e-09
2.20705e-09
1.81795e-09
1.37323e-09
9.80476e-10
1.03127e-09
1.42728e-09
1.86789e-09
2.24616e-09
2.4628e-09
2.4594e-09
2.23629e-09
1.85341e-09
1.40895e-09
1.01129e-09
1.04772e-09
1.4507e-09
1.8992e-09
2.28552e-09
2.51041e-09
2.51443e-09
2.29631e-09
1.91434e-09
1.46522e-09
1.05854e-09
1.06824e-09
1.48425e-09
1.94855e-09
2.34884e-09
2.58419e-09
2.59281e-09
2.37286e-09
1.98302e-09
1.52197e-09
1.10217e-09
1.08924e-09
1.51808e-09
1.99809e-09
2.41155e-09
2.65391e-09
2.66012e-09
2.42861e-09
2.02102e-09
1.54217e-09
1.10941e-09
1.11334e-09
1.54938e-09
2.0359e-09
2.45247e-09
2.69089e-09
2.6845e-09
2.43355e-09
2.00493e-09
1.5108e-09
1.0725e-09
1.14424e-09
1.58176e-09
2.0638e-09
2.47106e-09
2.69443e-09
2.66929e-09
2.39912e-09
1.95568e-09
1.45506e-09
1.01929e-09
1.17832e-09
1.61611e-09
2.08916e-09
2.4816e-09
2.68641e-09
2.64332e-09
2.35873e-09
1.90717e-09
1.40419e-09
9.72173e-10
1.21396e-09
1.65721e-09
2.12689e-09
2.50885e-09
2.69928e-09
2.64242e-09
2.34704e-09
1.88922e-09
1.38199e-09
9.49873e-10
1.18072e-09
1.62687e-09
2.10464e-09
2.49341e-09
2.68801e-09
2.6331e-09
2.34001e-09
1.88596e-09
1.38404e-09
9.56915e-10
1.02513e-09
1.45558e-09
1.94279e-09
2.35544e-09
2.58192e-09
2.55935e-09
2.29807e-09
1.87267e-09
1.39819e-09
9.87968e-10
8.37008e-10
1.22698e-09
1.69614e-09
2.11587e-09
2.37331e-09
2.39703e-09
2.18949e-09
1.81572e-09
1.38622e-09
1.00449e-09
7.27386e-10
1.0711e-09
1.49565e-09
1.89153e-09
2.152e-09
2.20467e-09
2.04197e-09
1.71647e-09
1.32938e-09
9.78017e-10
7.24158e-10
1.03652e-09
1.41256e-09
1.76351e-09
1.99422e-09
2.04063e-09
1.89163e-09
1.59161e-09
1.23322e-09
9.08613e-10
8.06424e-10
1.12607e-09
1.49011e-09
1.81594e-09
2.01583e-09
2.03471e-09
1.86487e-09
1.55203e-09
1.18573e-09
8.60775e-10
9.1739e-10
1.27228e-09
1.66041e-09
1.994e-09
2.18451e-09
2.18061e-09
1.97873e-09
1.63189e-09
1.22907e-09
8.77191e-10
1.05688e-09
1.46055e-09
1.89351e-09
2.25675e-09
2.45469e-09
2.43389e-09
2.19438e-09
1.79894e-09
1.34309e-09
9.48468e-10
1.17056e-09
1.61598e-09
2.09248e-09
2.4856e-09
2.69091e-09
2.65034e-09
2.36992e-09
1.92302e-09
1.42075e-09
9.90069e-10
1.26195e-09
1.73114e-09
2.23042e-09
2.6325e-09
2.83002e-09
2.76394e-09
2.44907e-09
1.96725e-09
1.44303e-09
9.97322e-10
1.30108e-09
1.78645e-09
2.30112e-09
2.70487e-09
2.88835e-09
2.79441e-09
2.4484e-09
1.94113e-09
1.40807e-09
9.62246e-10
1.26478e-09
1.73338e-09
2.22625e-09
2.60698e-09
2.77105e-09
2.66938e-09
2.33369e-09
1.85279e-09
1.35568e-09
9.35113e-10
1.25963e-09
1.68533e-09
2.12912e-09
2.49231e-09
2.68025e-09
2.64434e-09
2.39736e-09
1.99976e-09
1.54865e-09
1.11428e-09
1.45759e-09
1.92868e-09
2.37095e-09
2.70921e-09
2.87749e-09
2.8578e-09
2.66253e-09
2.33003e-09
1.89792e-09
1.41643e-09
7.4229e-10
1.43699e-09
2.32325e-09
3.16767e-09
3.7346e-09
3.92203e-09
3.75074e-09
3.33087e-09
2.75406e-09
2.11574e-09
4.53441e-11
3.61356e-10
1.15197e-09
2.31796e-09
3.54058e-09
4.45895e-09
4.84022e-09
4.66207e-09
4.04052e-09
3.20043e-09
2.87617e-11
1.40288e-10
4.06274e-10
9.16182e-10
1.73233e-09
2.74199e-09
3.66758e-09
4.20793e-09
4.21421e-09
3.76095e-09
1.46706e-10
1.29103e-10
8.94309e-11
5.85319e-11
1.74766e-10
7.18334e-10
1.64989e-09
2.67427e-09
3.44427e-09
3.73161e-09
2.7633e-10
5.89318e-10
7.65871e-10
7.88243e-10
5.61101e-10
2.01312e-10
2.27999e-11
5.63668e-10
1.63314e-09
2.65836e-09
6.50378e-10
1.18345e-09
1.63345e-09
2.17671e-09
2.60165e-09
2.68555e-09
2.18834e-09
1.21265e-09
2.42891e-10
1.80354e-10
8.59058e-10
1.35516e-09
1.81878e-09
2.61634e-09
3.69773e-09
4.89465e-09
5.69978e-09
5.50353e-09
4.10465e-09
2.15232e-09
7.04023e-10
7.55534e-10
8.40264e-10
1.26835e-09
2.25931e-09
3.89536e-09
5.83667e-09
7.05398e-09
6.85593e-09
5.08672e-09
2.12727e-09
1.8517e-09
1.1858e-09
4.11293e-10
1.33451e-10
1.12075e-09
2.91201e-09
4.37494e-09
4.74024e-09
3.65282e-09
5.29975e-09
5.57092e-09
4.78483e-09
2.89961e-09
8.7759e-10
2.58791e-10
1.33473e-09
2.18886e-09
2.09386e-09
1.34234e-09
6.07054e-09
5.58518e-09
3.90115e-09
1.62861e-09
2.86939e-10
9.0856e-10
2.06747e-09
2.44534e-09
1.78553e-09
7.94132e-10
3.17475e-09
4.5523e-09
6.00083e-09
7.18806e-09
7.85677e-09
7.85655e-09
7.18749e-09
6.00005e-09
4.55157e-09
3.1742e-09
1.87574e-09
2.63766e-09
3.47218e-09
4.17407e-09
4.57506e-09
4.57447e-09
4.17249e-09
3.47e-09
2.63549e-09
1.87389e-09
9.88904e-10
1.36835e-09
1.79322e-09
2.15924e-09
2.37009e-09
2.36846e-09
2.15476e-09
1.78686e-09
1.3615e-09
9.82592e-10
1.17018e-09
1.62454e-09
2.12678e-09
2.55408e-09
2.7978e-09
2.7936e-09
2.54235e-09
2.10981e-09
1.6056e-09
1.15231e-09
1.0142e-09
1.39964e-09
1.82792e-09
2.19252e-09
2.3984e-09
2.38927e-09
2.16691e-09
1.79073e-09
1.35784e-09
9.74674e-10
1.07037e-09
1.4754e-09
1.92229e-09
2.29928e-09
2.5082e-09
2.49177e-09
2.25349e-09
1.85638e-09
1.40231e-09
1.00204e-09
1.02742e-09
1.41039e-09
1.8327e-09
2.18742e-09
2.38088e-09
2.3594e-09
2.128e-09
1.74824e-09
1.3182e-09
9.41663e-10
1.03716e-09
1.4212e-09
1.84386e-09
2.19834e-09
2.39115e-09
2.36921e-09
2.13776e-09
1.75795e-09
1.32715e-09
9.48271e-10
1.02625e-09
1.40509e-09
1.82213e-09
2.17297e-09
2.36533e-09
2.34673e-09
2.12123e-09
1.74811e-09
1.32211e-09
9.45367e-10
1.02434e-09
1.40909e-09
1.8349e-09
2.19593e-09
2.39777e-09
2.38621e-09
2.16372e-09
1.78921e-09
1.35719e-09
9.724e-10
9.99455e-10
1.38815e-09
1.82499e-09
2.20131e-09
2.41909e-09
2.42052e-09
2.20589e-09
1.83348e-09
1.39832e-09
1.0071e-09
9.6796e-10
1.3584e-09
1.80548e-09
2.19844e-09
2.43563e-09
2.45433e-09
2.25144e-09
1.88356e-09
1.44665e-09
1.04892e-09
9.42055e-10
1.32957e-09
1.77915e-09
2.18081e-09
2.43168e-09
2.46527e-09
2.27475e-09
1.91383e-09
1.4785e-09
1.07764e-09
9.37503e-10
1.32172e-09
1.76851e-09
2.17042e-09
2.42521e-09
2.46504e-09
2.28049e-09
1.92299e-09
1.48824e-09
1.08591e-09
9.58625e-10
1.34131e-09
1.78215e-09
2.17691e-09
2.42507e-09
2.45995e-09
2.27175e-09
1.91151e-09
1.47492e-09
1.07255e-09
1.00742e-09
1.39387e-09
1.82964e-09
2.21288e-09
2.44574e-09
2.46513e-09
2.26358e-09
1.89406e-09
1.45256e-09
1.05031e-09
1.0685e-09
1.46623e-09
1.90381e-09
2.27826e-09
2.49413e-09
2.493e-09
2.27222e-09
1.88865e-09
1.43915e-09
1.03525e-09
1.09946e-09
1.51161e-09
1.96141e-09
2.33992e-09
2.55043e-09
2.53671e-09
2.30083e-09
1.90418e-09
1.44581e-09
1.03774e-09
1.07695e-09
1.49601e-09
1.95979e-09
2.35307e-09
2.57408e-09
2.56405e-09
2.32627e-09
1.92484e-09
1.46207e-09
1.05065e-09
1.03305e-09
1.44734e-09
1.91393e-09
2.31732e-09
2.55213e-09
2.55537e-09
2.32788e-09
1.93271e-09
1.47383e-09
1.06347e-09
1.00905e-09
1.41562e-09
1.87644e-09
2.28008e-09
2.52193e-09
2.53705e-09
2.32277e-09
1.93852e-09
1.48681e-09
1.07855e-09
1.0144e-09
1.41967e-09
1.87777e-09
2.28043e-09
2.52532e-09
2.54754e-09
2.34184e-09
1.96426e-09
1.51442e-09
1.10317e-09
1.03658e-09
1.44915e-09
1.9137e-09
2.3219e-09
2.5719e-09
2.59874e-09
2.39567e-09
2.01722e-09
1.56091e-09
1.13995e-09
1.05964e-09
1.48298e-09
1.9586e-09
2.37595e-09
2.63205e-09
2.66145e-09
2.4571e-09
2.07404e-09
1.60907e-09
1.17846e-09
1.06413e-09
1.49556e-09
1.9818e-09
2.40783e-09
2.66956e-09
2.70082e-09
2.49578e-09
2.11084e-09
1.64338e-09
1.21005e-09
1.06339e-09
1.49309e-09
1.97823e-09
2.39976e-09
2.65451e-09
2.67587e-09
2.46053e-09
2.06725e-09
1.59795e-09
1.16946e-09
1.07328e-09
1.48854e-09
1.95268e-09
2.34627e-09
2.56737e-09
2.55235e-09
2.30424e-09
1.88919e-09
1.4189e-09
1.00962e-09
1.06413e-09
1.45462e-09
1.88222e-09
2.23223e-09
2.40516e-09
2.34646e-09
2.069e-09
1.64713e-09
1.19642e-09
8.2392e-10
1.03225e-09
1.40451e-09
1.80686e-09
2.1293e-09
2.27539e-09
2.19875e-09
1.91751e-09
1.50741e-09
1.07833e-09
7.28653e-10
9.67052e-10
1.32493e-09
1.71802e-09
2.04032e-09
2.19633e-09
2.13997e-09
1.88502e-09
1.50134e-09
1.08802e-09
7.42307e-10
9.22998e-10
1.26815e-09
1.65584e-09
1.98766e-09
2.16872e-09
2.1484e-09
1.93051e-09
1.5758e-09
1.17372e-09
8.2494e-10
9.08145e-10
1.24931e-09
1.63503e-09
1.97455e-09
2.17499e-09
2.18301e-09
1.99475e-09
1.66273e-09
1.27051e-09
9.19918e-10
9.37186e-10
1.29909e-09
1.70611e-09
2.06634e-09
2.28664e-09
2.31168e-09
2.13506e-09
1.80542e-09
1.4066e-09
1.04077e-09
9.74028e-10
1.36842e-09
1.81392e-09
2.20711e-09
2.45151e-09
2.4865e-09
2.30571e-09
1.95871e-09
1.53607e-09
1.14334e-09
9.8214e-10
1.39747e-09
1.87702e-09
2.30417e-09
2.57699e-09
2.62711e-09
2.44714e-09
2.08788e-09
1.64631e-09
1.23053e-09
9.50748e-10
1.37185e-09
1.86929e-09
2.3213e-09
2.61861e-09
2.6859e-09
2.51249e-09
2.14926e-09
1.6976e-09
1.26823e-09
9.25855e-10
1.32951e-09
1.80236e-09
2.23387e-09
2.51762e-09
2.58289e-09
2.41895e-09
2.07447e-09
1.64536e-09
1.235e-09
1.10478e-09
1.48072e-09
1.88496e-09
2.22813e-09
2.43355e-09
2.45322e-09
2.28727e-09
1.98132e-09
1.606e-09
1.24203e-09
1.48829e-09
1.88064e-09
2.25609e-09
2.53254e-09
2.65302e-09
2.59039e-09
2.36884e-09
2.05293e-09
1.70325e-09
1.38688e-09
2.3208e-09
2.75534e-09
2.9789e-09
2.91471e-09
2.56531e-09
2.03472e-09
1.46451e-09
9.87142e-10
6.63697e-10
5.17946e-10
2.65603e-09
2.72565e-09
2.42951e-09
1.85383e-09
1.17825e-09
5.98952e-10
2.23715e-10
5.37226e-11
2.63129e-11
2.71489e-11
1.92871e-09
1.64789e-09
1.2122e-09
7.65883e-10
4.38226e-10
2.58592e-10
1.73956e-10
1.1549e-10
5.55696e-11
1.69117e-11
1.26626e-09
1.37023e-09
1.55372e-09
1.73136e-09
1.84691e-09
1.81867e-09
1.61095e-09
1.23567e-09
7.95917e-10
3.39096e-10
2.64747e-09
3.67867e-09
4.84546e-09
5.75857e-09
6.0907e-09
5.65406e-09
4.46186e-09
2.77981e-09
1.24104e-09
2.91417e-10
4.57688e-09
5.89623e-09
6.98865e-09
7.60489e-09
7.53016e-09
6.64657e-09
4.94149e-09
2.79401e-09
1.13825e-09
4.11619e-10
4.41907e-09
5.34743e-09
6.20346e-09
6.77848e-09
6.75123e-09
5.9262e-09
4.39569e-09
2.65032e-09
1.53413e-09
8.44288e-10
3.06129e-09
4.05504e-09
5.03974e-09
5.67587e-09
5.76157e-09
5.32137e-09
4.46401e-09
3.35626e-09
2.28631e-09
1.20185e-09
4.18563e-09
5.38461e-09
6.41029e-09
6.87594e-09
6.63821e-09
5.96556e-09
5.13367e-09
4.33359e-09
3.51359e-09
2.72835e-09
1.00275e-08
1.24695e-08
1.43815e-08
1.54788e-08
1.53699e-08
1.41943e-08
1.23132e-08
1.00561e-08
7.85907e-09
5.77912e-09
2.17759e-08
2.73917e-08
3.13495e-08
3.2556e-08
3.07109e-08
2.62494e-08
2.04172e-08
1.4713e-08
1.04009e-08
7.12604e-09
)
;
    }
    inlet
    {
        type            calculated;
        value           uniform 0;
    }
    outlet
    {
        type            calculated;
        value           uniform 0;
    }
}


// ************************************************************************* //
