/*--------------------------------*- C++ -*----------------------------------*\
| =========                 |                                                 |
| \\      /  F ield         | OpenFOAM: The Open Source CFD Toolbox           |
|  \\    /   O peration     | Version:  2406                                  |
|   \\  /    A nd           | Website:  www.openfoam.com                      |
|    \\/     M anipulation  |                                                 |
\*---------------------------------------------------------------------------*/
FoamFile
{
    version     2.0;
    format      ascii;
    arch        "LSB;label=32;scalar=64";
    class       volScalarField;
    location    "0.7";
    object      p;
}
// * * * * * * * * * * * * * * * * * * * * * * * * * * * * * * * * * * * * * //

dimensions      [0 2 -2 0 0 0 0];

internalField   nonuniform List<scalar> 
25000
(
23.8636
23.8151
23.7839
23.7633
23.7533
23.7533
23.7634
23.7839
23.8151
23.8636
23.8151
23.7606
23.7239
23.7
23.6882
23.6882
23.7
23.724
23.7606
23.8151
23.784
23.724
23.6824
23.6554
23.6421
23.6421
23.6554
23.6825
23.724
23.7839
23.7635
23.7001
23.6555
23.6265
23.6122
23.6122
23.6265
23.6555
23.7001
23.7635
23.7535
23.6884
23.6423
23.6123
23.5976
23.5976
23.6123
23.6423
23.6884
23.7535
23.7536
23.6885
23.6423
23.6124
23.5977
23.5977
23.6124
23.6424
23.6885
23.7536
23.7638
23.7004
23.6557
23.6267
23.6125
23.6125
23.6267
23.6557
23.7004
23.7637
23.7844
23.7244
23.6828
23.6558
23.6425
23.6425
23.6558
23.6828
23.7244
23.7844
23.8156
23.7611
23.7244
23.7005
23.6886
23.6886
23.7005
23.7244
23.7611
23.8156
23.8642
23.8156
23.7844
23.7639
23.7538
23.7538
23.7639
23.7844
23.8156
23.8641
22.3935
22.4213
22.4407
22.4541
22.461
22.4611
22.4543
22.4411
22.4217
22.3937
22.4215
22.4522
22.4739
22.489
22.4969
22.4969
22.4892
22.4742
22.4525
22.4218
22.441
22.4741
22.4987
22.5161
22.5253
22.5254
22.5163
22.499
22.4744
22.4413
22.4546
22.4893
22.5163
22.5357
22.5457
22.5458
22.5359
22.5166
22.4896
22.4549
22.4616
22.4974
22.5257
22.5459
22.5563
22.5564
22.5461
22.526
22.4977
22.462
22.4619
22.4976
22.526
22.5462
22.5566
22.5566
22.5463
22.5262
22.4979
22.4622
22.4553
22.49
22.5171
22.5364
22.5465
22.5465
22.5366
22.5173
22.4903
22.4555
22.4422
22.4753
22.4999
22.5174
22.5266
22.5266
22.5175
22.5
22.4754
22.4423
22.423
22.4537
22.4755
22.4905
22.4984
22.4984
22.4906
22.4756
22.4538
22.423
22.3951
22.4231
22.4425
22.4559
22.4628
22.4628
22.456
22.4426
22.4231
22.3951
22.494
22.4907
22.489
22.488
22.4876
22.4876
22.4881
22.4891
22.4907
22.4937
22.491
22.4879
22.4858
22.4844
22.4837
22.4837
22.4844
22.4858
22.4878
22.4907
22.4896
22.4861
22.4837
22.4821
22.4814
22.4814
22.4821
22.4836
22.486
22.4893
22.4889
22.4849
22.4824
22.4809
22.4803
22.4803
22.4808
22.4823
22.4848
22.4886
22.4887
22.4845
22.4819
22.4806
22.4802
22.4802
22.4805
22.4818
22.4843
22.4884
22.4889
22.4847
22.4822
22.4808
22.4805
22.4805
22.4808
22.4821
22.4846
22.4886
22.4896
22.4857
22.4831
22.4816
22.481
22.481
22.4815
22.4829
22.4854
22.4892
22.4907
22.4872
22.4848
22.4832
22.4825
22.4825
22.4831
22.4846
22.4869
22.4902
22.4925
22.4894
22.4873
22.4859
22.4851
22.4851
22.4857
22.4871
22.489
22.4919
22.4957
22.4924
22.4908
22.4898
22.4893
22.4892
22.4896
22.4905
22.4921
22.495
21.8115
21.8144
21.8167
21.8185
21.8194
21.8195
21.8187
21.817
21.8147
21.8114
21.8152
21.8189
21.8217
21.8237
21.8248
21.8249
21.8238
21.8218
21.819
21.8149
21.8179
21.8222
21.8254
21.8278
21.829
21.8291
21.8278
21.8255
21.8222
21.8177
21.8201
21.8248
21.8283
21.8309
21.8322
21.8322
21.8309
21.8283
21.8247
21.8199
21.8217
21.8265
21.8301
21.8328
21.8342
21.8342
21.8328
21.8301
21.8263
21.8213
21.8222
21.827
21.8307
21.8333
21.8348
21.8347
21.8332
21.8305
21.8267
21.8217
21.8218
21.8265
21.83
21.8325
21.8338
21.8337
21.8323
21.8296
21.826
21.8211
21.8205
21.8249
21.8281
21.8303
21.8315
21.8314
21.83
21.8276
21.8242
21.8196
21.8186
21.8224
21.8251
21.8271
21.8281
21.828
21.8267
21.8245
21.8215
21.8173
21.8158
21.8187
21.8209
21.8225
21.8234
21.8232
21.8222
21.8202
21.8178
21.8144
21.6012
21.5995
21.5988
21.5982
21.5979
21.5978
21.5981
21.5986
21.5994
21.6004
21.6007
21.5988
21.5976
21.5967
21.5961
21.596
21.5963
21.5971
21.5981
21.5995
21.6003
21.5983
21.5967
21.5955
21.5948
21.5947
21.5951
21.5961
21.5974
21.5992
21.6004
21.598
21.5962
21.5948
21.5941
21.5939
21.5944
21.5955
21.5971
21.5992
21.6006
21.5982
21.5962
21.5947
21.5939
21.5938
21.5943
21.5955
21.5972
21.5994
21.6012
21.5987
21.5967
21.5952
21.5944
21.5943
21.5948
21.596
21.5976
21.5998
21.6019
21.5996
21.5977
21.5963
21.5955
21.5953
21.5957
21.5968
21.5984
21.6004
21.6027
21.6007
21.5991
21.5979
21.5971
21.5969
21.5973
21.5981
21.5994
21.6011
21.6038
21.6021
21.6008
21.5998
21.5992
21.599
21.5992
21.5998
21.6007
21.602
21.6055
21.6038
21.6028
21.6021
21.6016
21.6015
21.6015
21.6019
21.6026
21.6035
21.1694
21.1697
21.1704
21.1709
21.1712
21.1712
21.1711
21.1708
21.1702
21.1691
21.1712
21.1718
21.1724
21.1729
21.1731
21.1731
21.1729
21.1724
21.1717
21.1705
21.1721
21.1731
21.1738
21.1744
21.1746
21.1746
21.1743
21.1738
21.1729
21.1717
21.173
21.1742
21.175
21.1755
21.1757
21.1757
21.1755
21.175
21.1741
21.1728
21.1737
21.175
21.1759
21.1764
21.1764
21.1765
21.1764
21.1759
21.175
21.1736
21.1742
21.1756
21.1765
21.177
21.1771
21.1771
21.177
21.1765
21.1755
21.1741
21.1744
21.1759
21.1768
21.1774
21.1776
21.1775
21.1773
21.1767
21.1757
21.1743
21.1744
21.1758
21.1767
21.1773
21.1776
21.1775
21.1772
21.1766
21.1756
21.1742
21.1741
21.1753
21.1762
21.1767
21.177
21.177
21.1766
21.176
21.1752
21.1737
21.1738
21.1746
21.1752
21.1757
21.1759
21.1759
21.1756
21.1752
21.1746
21.1734
20.8686
20.8675
20.8671
20.8667
20.8664
20.8663
20.8663
20.8664
20.8664
20.8665
20.8685
20.8674
20.8668
20.8662
20.8659
20.8657
20.8657
20.8659
20.8662
20.8666
20.8681
20.8671
20.8664
20.8658
20.8654
20.8652
20.8653
20.8655
20.866
20.8665
20.8678
20.8669
20.8661
20.8655
20.8651
20.865
20.8651
20.8654
20.8659
20.8666
20.8676
20.8667
20.866
20.8653
20.865
20.8649
20.8651
20.8655
20.866
20.8667
20.8674
20.8666
20.866
20.8654
20.865
20.865
20.8653
20.8657
20.8662
20.867
20.8673
20.8667
20.8661
20.8656
20.8654
20.8654
20.8656
20.866
20.8666
20.8672
20.8674
20.8669
20.8664
20.8661
20.8659
20.8659
20.8661
20.8665
20.867
20.8674
20.8676
20.8672
20.8669
20.8666
20.8665
20.8665
20.8667
20.867
20.8674
20.8676
20.868
20.8675
20.8674
20.8672
20.8672
20.8673
20.8675
20.8678
20.8683
20.8684
20.5051
20.505
20.505
20.505
20.5051
20.5051
20.5051
20.5051
20.5048
20.5047
20.5048
20.505
20.5051
20.5052
20.5054
20.5054
20.5054
20.5054
20.5053
20.5053
20.5047
20.505
20.5052
20.5054
20.5055
20.5056
20.5056
20.5056
20.5054
20.5054
20.5045
20.5049
20.5052
20.5054
20.5056
20.5057
20.5057
20.5057
20.5056
20.5054
20.5042
20.5046
20.505
20.5052
20.5054
20.5057
20.5058
20.5058
20.5057
20.5055
20.5038
20.5043
20.5047
20.505
20.5053
20.5056
20.5058
20.5058
20.5057
20.5054
20.5035
20.5039
20.5044
20.5048
20.5051
20.5054
20.5056
20.5057
20.5056
20.5053
20.5031
20.5035
20.504
20.5045
20.5049
20.5051
20.5053
20.5054
20.5054
20.505
20.503
20.5031
20.5036
20.5041
20.5045
20.5047
20.5049
20.505
20.5051
20.5046
20.5022
20.5022
20.5029
20.5034
20.5039
20.5042
20.5045
20.5048
20.5051
20.5047
20.1766
20.1769
20.1767
20.1767
20.1768
20.177
20.1773
20.1775
20.1776
20.1783
20.1752
20.1757
20.1758
20.1759
20.1761
20.1763
20.1767
20.1771
20.1775
20.1783
20.1748
20.1751
20.1751
20.1752
20.1754
20.1756
20.176
20.1764
20.1769
20.1776
20.1742
20.1744
20.1744
20.1745
20.1747
20.175
20.1754
20.1758
20.1763
20.177
20.1737
20.1737
20.1737
20.1738
20.174
20.1744
20.1748
20.1753
20.1759
20.1765
20.173
20.173
20.173
20.1731
20.1734
20.1738
20.1743
20.1749
20.1754
20.176
20.1725
20.1723
20.1724
20.1725
20.1729
20.1733
20.1739
20.1745
20.1751
20.1756
20.172
20.1718
20.1718
20.1721
20.1724
20.1729
20.1735
20.1741
20.1748
20.1753
20.1718
20.1713
20.1714
20.1717
20.1721
20.1726
20.1732
20.1739
20.1745
20.1749
20.1707
20.1702
20.1707
20.1713
20.1719
20.1725
20.1732
20.174
20.1748
20.1752
19.8232
19.8246
19.825
19.8255
19.8261
19.8267
19.8272
19.8278
19.8282
19.8294
19.8214
19.8229
19.8237
19.8245
19.8254
19.8262
19.827
19.8277
19.8284
19.8296
19.821
19.8222
19.823
19.8239
19.8248
19.8257
19.8265
19.8273
19.8281
19.829
19.8206
19.8216
19.8224
19.8234
19.8243
19.8252
19.8261
19.8269
19.8277
19.8285
19.8202
19.821
19.8219
19.8228
19.8238
19.8248
19.8257
19.8266
19.8273
19.828
19.8198
19.8205
19.8213
19.8223
19.8233
19.8244
19.8253
19.8262
19.827
19.8276
19.8195
19.82
19.8208
19.8218
19.8229
19.824
19.825
19.8259
19.8267
19.8273
19.8192
19.8195
19.8204
19.8213
19.8224
19.8235
19.8246
19.8255
19.8264
19.827
19.819
19.8192
19.82
19.8209
19.822
19.8232
19.8242
19.8252
19.8261
19.8268
19.8179
19.8183
19.8193
19.8204
19.8217
19.8229
19.824
19.8251
19.8261
19.827
19.4799
19.4816
19.4819
19.4825
19.4829
19.4833
19.4837
19.4842
19.4845
19.4859
19.4779
19.4795
19.4803
19.4811
19.4818
19.4825
19.4832
19.484
19.4847
19.486
19.4774
19.4785
19.4793
19.4801
19.4809
19.4817
19.4825
19.4834
19.4842
19.4853
19.4767
19.4776
19.4784
19.4792
19.48
19.4808
19.4817
19.4827
19.4837
19.4847
19.4763
19.4769
19.4776
19.4784
19.4793
19.4801
19.4811
19.4821
19.4831
19.4841
19.4759
19.4763
19.4769
19.4777
19.4786
19.4796
19.4806
19.4817
19.4827
19.4836
19.4755
19.4758
19.4763
19.4771
19.4781
19.4791
19.4802
19.4813
19.4823
19.4833
19.4752
19.4754
19.476
19.4767
19.4777
19.4788
19.4799
19.481
19.4821
19.4831
19.475
19.4753
19.4758
19.4765
19.4775
19.4786
19.4797
19.4808
19.4819
19.483
19.4745
19.4751
19.4757
19.4765
19.4775
19.4785
19.4797
19.4808
19.4818
19.4832
19.1226
19.1238
19.1243
19.1248
19.1252
19.1255
19.1256
19.1258
19.126
19.127
19.1213
19.1225
19.1232
19.1239
19.1245
19.125
19.1254
19.1259
19.1264
19.1273
19.121
19.1218
19.1225
19.1232
19.1239
19.1245
19.125
19.1256
19.1262
19.1269
19.1206
19.1213
19.122
19.1227
19.1234
19.124
19.1246
19.1252
19.1259
19.1266
19.1205
19.121
19.1216
19.1223
19.123
19.1235
19.1242
19.1249
19.1256
19.1262
19.1204
19.1208
19.1214
19.122
19.1227
19.1233
19.124
19.1247
19.1253
19.1259
19.1205
19.1208
19.1212
19.1218
19.1224
19.1231
19.1238
19.1245
19.1252
19.1257
19.1206
19.1208
19.1212
19.1217
19.1224
19.123
19.1237
19.1244
19.125
19.1256
19.1207
19.121
19.1214
19.1219
19.1224
19.123
19.1237
19.1243
19.1249
19.1257
19.1208
19.1215
19.1218
19.1221
19.1226
19.1232
19.1237
19.1243
19.1249
19.1259
18.7652
18.7653
18.7653
18.7654
18.7653
18.765
18.7648
18.7645
18.7643
18.7645
18.7647
18.7647
18.7647
18.7647
18.7646
18.7645
18.7644
18.7643
18.7643
18.7644
18.7643
18.7642
18.7641
18.7641
18.764
18.7639
18.7638
18.7639
18.7639
18.764
18.7639
18.7638
18.7637
18.7636
18.7635
18.7634
18.7633
18.7634
18.7635
18.7636
18.7637
18.7635
18.7633
18.7632
18.7631
18.7628
18.7628
18.7629
18.763
18.7632
18.7637
18.7634
18.7631
18.7629
18.7627
18.7625
18.7625
18.7626
18.7627
18.7628
18.7637
18.7634
18.763
18.7627
18.7625
18.7623
18.7623
18.7623
18.7624
18.7624
18.7639
18.7634
18.7631
18.7627
18.7624
18.7622
18.7621
18.7621
18.7621
18.7621
18.764
18.7637
18.7632
18.7629
18.7625
18.7623
18.7621
18.7621
18.762
18.7619
18.7643
18.7641
18.7636
18.7632
18.7628
18.7625
18.7623
18.7622
18.7622
18.7622
18.3956
18.3949
18.3946
18.3944
18.394
18.3936
18.3932
18.3927
18.3923
18.3918
18.3957
18.3949
18.3944
18.394
18.3936
18.3931
18.3927
18.3922
18.3918
18.3912
18.3953
18.3946
18.3941
18.3937
18.3932
18.3927
18.3922
18.3918
18.3913
18.3908
18.3951
18.3944
18.3939
18.3933
18.3928
18.3923
18.3918
18.3913
18.3909
18.3905
18.3949
18.3943
18.3937
18.3931
18.3925
18.3919
18.3914
18.3909
18.3904
18.39
18.395
18.3944
18.3937
18.393
18.3924
18.3917
18.3911
18.3905
18.39
18.3895
18.3953
18.3945
18.3938
18.393
18.3923
18.3916
18.3909
18.3902
18.3897
18.3891
18.3956
18.3948
18.394
18.3932
18.3924
18.3915
18.3908
18.3901
18.3894
18.3886
18.3961
18.395
18.3942
18.3934
18.3925
18.3916
18.3908
18.39
18.3893
18.3883
18.3963
18.3952
18.3944
18.3936
18.3927
18.3919
18.3911
18.3903
18.3897
18.3886
18.0212
18.0202
18.0196
18.0191
18.0187
18.0182
18.0178
18.0173
18.017
18.0163
18.0214
18.0203
18.0195
18.0188
18.0181
18.0175
18.0169
18.0163
18.0157
18.0148
18.0211
18.0201
18.0192
18.0184
18.0176
18.0168
18.0161
18.0154
18.0148
18.0141
18.0209
18.0199
18.0189
18.0179
18.017
18.0161
18.0153
18.0146
18.0139
18.0133
18.0207
18.0197
18.0186
18.0175
18.0165
18.0155
18.0146
18.0138
18.0131
18.0124
18.0206
18.0195
18.0184
18.0172
18.0161
18.015
18.014
18.0131
18.0123
18.0116
18.0207
18.0195
18.0183
18.017
18.0158
18.0146
18.0135
18.0125
18.0117
18.0108
18.0209
18.0195
18.0182
18.0169
18.0156
18.0144
18.0132
18.0121
18.0112
18.0102
18.0211
18.0194
18.0182
18.0169
18.0156
18.0143
18.0131
18.012
18.011
18.0096
18.0209
18.019
18.0179
18.0168
18.0156
18.0144
18.0133
18.0123
18.0114
18.0097
17.6329
17.6328
17.6326
17.6325
17.6326
17.6326
17.6328
17.6329
17.6331
17.6331
17.6329
17.6327
17.6325
17.6323
17.6321
17.632
17.6319
17.6318
17.6316
17.6313
17.633
17.6327
17.6323
17.6319
17.6316
17.6314
17.6312
17.6309
17.6307
17.6303
17.6331
17.6326
17.6321
17.6316
17.6311
17.6308
17.6305
17.6301
17.6298
17.6294
17.6331
17.6326
17.6319
17.6313
17.6308
17.6303
17.6298
17.6293
17.6289
17.6285
17.6332
17.6325
17.6319
17.6312
17.6305
17.6299
17.6292
17.6286
17.6281
17.6277
17.6334
17.6326
17.6319
17.6311
17.6303
17.6295
17.6288
17.6281
17.6275
17.627
17.6336
17.6326
17.6318
17.631
17.6302
17.6293
17.6285
17.6277
17.6271
17.6264
17.6339
17.6325
17.6318
17.631
17.6301
17.6293
17.6285
17.6277
17.6269
17.6261
17.6335
17.632
17.6315
17.6308
17.6301
17.6294
17.6286
17.6278
17.627
17.6257
17.2386
17.2395
17.2396
17.2399
17.2403
17.2407
17.2412
17.2418
17.2424
17.2433
17.2382
17.2389
17.2392
17.2394
17.2398
17.2402
17.2406
17.241
17.2414
17.2418
17.2384
17.2387
17.2389
17.239
17.2392
17.2396
17.2399
17.2403
17.2406
17.241
17.2384
17.2386
17.2386
17.2386
17.2387
17.239
17.2393
17.2396
17.2399
17.2401
17.2385
17.2384
17.2384
17.2383
17.2384
17.2385
17.2387
17.2389
17.2392
17.2395
17.2385
17.2384
17.2383
17.2382
17.2382
17.2382
17.2382
17.2384
17.2387
17.2389
17.2386
17.2384
17.2382
17.2381
17.238
17.2379
17.2379
17.2381
17.2383
17.2386
17.2387
17.2383
17.2382
17.238
17.2379
17.2379
17.2379
17.238
17.2381
17.2385
17.2388
17.2383
17.2381
17.238
17.2379
17.2379
17.238
17.238
17.2381
17.2386
17.2386
17.238
17.238
17.238
17.238
17.2381
17.2381
17.238
17.2378
17.2379
16.8353
16.8368
16.8374
16.8382
16.8388
16.8396
16.8402
16.8409
16.8416
16.8431
16.8351
16.8364
16.8372
16.838
16.8388
16.8396
16.8404
16.8412
16.8419
16.8431
16.8354
16.8364
16.8372
16.838
16.8388
16.8397
16.8406
16.8414
16.8421
16.843
16.8357
16.8366
16.8373
16.838
16.8389
16.8398
16.8407
16.8415
16.8423
16.8431
16.8362
16.8369
16.8376
16.8383
16.8391
16.8399
16.8408
16.8416
16.8425
16.8433
16.8366
16.8372
16.8379
16.8387
16.8395
16.8402
16.841
16.8419
16.8428
16.8436
16.8371
16.8376
16.8383
16.8391
16.8399
16.8406
16.8414
16.8423
16.8432
16.8442
16.8374
16.838
16.8387
16.8394
16.8402
16.841
16.8419
16.8428
16.8437
16.8448
16.8377
16.8384
16.8391
16.8398
16.8407
16.8415
16.8424
16.8433
16.8441
16.8456
16.8383
16.8391
16.8397
16.8404
16.8411
16.842
16.8427
16.8435
16.844
16.8454
16.4306
16.4314
16.4318
16.4322
16.4325
16.4328
16.4332
16.4337
16.4343
16.4357
16.4307
16.4312
16.4316
16.4321
16.4326
16.4332
16.4338
16.4345
16.4353
16.4366
16.4306
16.4311
16.4316
16.4322
16.4329
16.4336
16.4343
16.4352
16.436
16.4371
16.4307
16.4312
16.4318
16.4325
16.4332
16.434
16.4348
16.4358
16.4367
16.4377
16.4309
16.4315
16.4321
16.4329
16.4337
16.4344
16.4353
16.4364
16.4374
16.4384
16.4313
16.4319
16.4326
16.4334
16.4342
16.435
16.4359
16.437
16.4381
16.4391
16.4316
16.4324
16.4331
16.434
16.4348
16.4357
16.4367
16.4378
16.4389
16.4399
16.432
16.4329
16.4337
16.4346
16.4355
16.4365
16.4376
16.4387
16.4397
16.4408
16.4322
16.4336
16.4344
16.4353
16.4362
16.4373
16.4383
16.4394
16.4404
16.4419
16.4336
16.4351
16.4356
16.4363
16.4371
16.438
16.4389
16.4398
16.4406
16.4423
16.023
16.0225
16.0224
16.0222
16.022
16.0217
16.0216
16.0218
16.0221
16.0222
16.023
16.0225
16.0224
16.0223
16.0222
16.0221
16.0221
16.0223
16.0226
16.0226
16.0225
16.0223
16.0223
16.0224
16.0224
16.0225
16.0226
16.0229
16.0233
16.0235
16.0222
16.0222
16.0223
16.0225
16.0227
16.0229
16.0231
16.0235
16.0239
16.0243
16.022
16.0222
16.0225
16.0228
16.0231
16.0232
16.0236
16.0241
16.0245
16.025
16.022
16.0224
16.0228
16.0232
16.0235
16.0237
16.0241
16.0246
16.0251
16.0255
16.0221
16.0227
16.0231
16.0236
16.0239
16.0243
16.0248
16.0253
16.0257
16.0261
16.0223
16.0231
16.0236
16.0241
16.0245
16.025
16.0255
16.0259
16.0262
16.0266
16.0225
16.0237
16.0242
16.0248
16.0252
16.0257
16.0261
16.0265
16.0267
16.0273
16.0237
16.0251
16.0253
16.0257
16.026
16.0263
16.0265
16.0267
16.0266
16.0275
15.6152
15.613
15.6117
15.6104
15.6092
15.6082
15.6075
15.607
15.607
15.6053
15.6146
15.6127
15.6114
15.6101
15.6089
15.6078
15.6069
15.6061
15.6056
15.6039
15.6134
15.6119
15.6108
15.6096
15.6085
15.6074
15.6066
15.6059
15.6054
15.6044
15.6122
15.6111
15.6101
15.609
15.608
15.6071
15.6064
15.6058
15.6053
15.6047
15.6112
15.6103
15.6094
15.6085
15.6077
15.6068
15.6062
15.6057
15.6052
15.6048
15.6104
15.6096
15.6089
15.6082
15.6074
15.6066
15.6061
15.6056
15.6052
15.6049
15.6097
15.6092
15.6085
15.6079
15.6073
15.6066
15.606
15.6056
15.6051
15.6049
15.6094
15.6089
15.6083
15.6078
15.6072
15.6067
15.6061
15.6056
15.6051
15.6049
15.609
15.6088
15.6083
15.6079
15.6073
15.6068
15.6063
15.6057
15.6051
15.6052
15.609
15.6089
15.6085
15.6081
15.6076
15.607
15.6062
15.6055
15.6045
15.6046
15.1974
15.1953
15.194
15.1927
15.1916
15.1906
15.1898
15.1891
15.1887
15.1859
15.1967
15.195
15.1938
15.1924
15.191
15.1897
15.1885
15.1874
15.1862
15.1833
15.1958
15.1944
15.1931
15.1918
15.1903
15.189
15.1877
15.1865
15.1854
15.1834
15.1947
15.1936
15.1923
15.191
15.1895
15.1882
15.187
15.1859
15.1848
15.1833
15.1937
15.1926
15.1914
15.1902
15.1888
15.1876
15.1865
15.1853
15.1843
15.1833
15.1927
15.1917
15.1906
15.1894
15.1883
15.1871
15.186
15.1849
15.1839
15.1832
15.1919
15.1909
15.1899
15.1888
15.1878
15.1867
15.1855
15.1845
15.1835
15.183
15.1913
15.1902
15.1892
15.1883
15.1873
15.1862
15.1852
15.1841
15.1832
15.1829
15.1907
15.1895
15.1886
15.1878
15.1869
15.1859
15.1849
15.1839
15.183
15.1829
15.1892
15.1884
15.1879
15.1873
15.1866
15.1856
15.1845
15.1833
15.1819
15.1817
14.7744
14.7729
14.7717
14.7705
14.7694
14.7686
14.7679
14.7672
14.7667
14.7644
14.7734
14.7723
14.7712
14.7699
14.7687
14.7675
14.7664
14.7654
14.7643
14.7619
14.7728
14.7717
14.7705
14.7692
14.7678
14.7665
14.7654
14.7643
14.7632
14.7615
14.7719
14.7709
14.7696
14.7683
14.7668
14.7655
14.7644
14.7634
14.7624
14.761
14.771
14.7699
14.7687
14.7673
14.766
14.7648
14.7637
14.7627
14.7618
14.7609
14.7701
14.769
14.7678
14.7665
14.7654
14.7643
14.7632
14.7621
14.7613
14.7608
14.7694
14.7681
14.767
14.7658
14.7648
14.7638
14.7627
14.7617
14.7609
14.7608
14.7686
14.7673
14.7662
14.7652
14.7643
14.7633
14.7623
14.7614
14.7607
14.7608
14.7679
14.7665
14.7655
14.7646
14.7638
14.7629
14.762
14.7612
14.7606
14.761
14.7661
14.7651
14.7646
14.764
14.7634
14.7626
14.7617
14.7608
14.7597
14.7599
14.3421
14.342
14.3416
14.3413
14.3409
14.3405
14.3401
14.3397
14.3394
14.3381
14.3416
14.3418
14.3416
14.3412
14.3407
14.3402
14.3397
14.3391
14.3384
14.337
14.3417
14.3418
14.3416
14.3411
14.3405
14.3399
14.3393
14.3387
14.3381
14.3371
14.342
14.3419
14.3415
14.341
14.3403
14.3396
14.3391
14.3385
14.3379
14.3371
14.3422
14.3419
14.3415
14.3408
14.3401
14.3395
14.339
14.3384
14.3379
14.3374
14.3424
14.342
14.3414
14.3408
14.3402
14.3397
14.339
14.3385
14.338
14.3378
14.3424
14.3419
14.3414
14.3408
14.3403
14.3398
14.3391
14.3386
14.3382
14.3383
14.3423
14.3418
14.3413
14.3408
14.3403
14.3398
14.3392
14.3387
14.3383
14.3387
14.342
14.3416
14.3412
14.3407
14.3403
14.3399
14.3394
14.3389
14.3386
14.3394
14.3412
14.3412
14.341
14.3407
14.3404
14.34
14.3394
14.3388
14.338
14.3387
13.9099
13.9096
13.9102
13.9104
13.9104
13.9103
13.9102
13.9101
13.9104
13.9098
13.911
13.9107
13.9109
13.911
13.9109
13.9107
13.9106
13.9105
13.9105
13.91
13.9114
13.9114
13.9116
13.9116
13.9115
13.9113
13.9112
13.9111
13.9111
13.9109
13.9123
13.9124
13.9125
13.9124
13.9123
13.912
13.9119
13.9118
13.9118
13.9117
13.9135
13.9136
13.9135
13.9134
13.9131
13.9128
13.9127
13.9125
13.9125
13.9125
13.9149
13.9149
13.9147
13.9144
13.9141
13.9138
13.9136
13.9134
13.9133
13.9134
13.9161
13.9161
13.9158
13.9155
13.9152
13.9148
13.9145
13.9142
13.9141
13.9144
13.9171
13.9173
13.9169
13.9165
13.9161
13.9157
13.9153
13.915
13.9149
13.9154
13.9176
13.9183
13.9179
13.9175
13.917
13.9166
13.9161
13.9158
13.9156
13.9165
13.9194
13.9201
13.9193
13.9186
13.9179
13.9173
13.9166
13.9161
13.9154
13.9163
13.4781
13.4757
13.4772
13.478
13.4785
13.4786
13.4786
13.4785
13.4787
13.4773
13.4825
13.4799
13.48
13.4802
13.4802
13.48
13.4798
13.4796
13.4795
13.4786
13.4832
13.4819
13.482
13.4821
13.4821
13.4819
13.4816
13.4814
13.4812
13.4808
13.485
13.4843
13.4843
13.4843
13.4843
13.484
13.4836
13.4833
13.4831
13.4827
13.4873
13.4871
13.4869
13.4867
13.4865
13.4862
13.4857
13.4852
13.4849
13.4846
13.49
13.49
13.4897
13.4892
13.4887
13.4882
13.4876
13.4871
13.4866
13.4864
13.4927
13.493
13.4926
13.4918
13.491
13.4902
13.4895
13.4888
13.4883
13.4879
13.4954
13.4959
13.4953
13.4944
13.4933
13.4922
13.4912
13.4904
13.4896
13.4892
13.4976
13.4985
13.4978
13.4966
13.4953
13.494
13.4928
13.4917
13.4908
13.4902
13.5026
13.5027
13.5008
13.4991
13.4972
13.4955
13.4939
13.4926
13.4916
13.4908
13.0594
13.0537
13.0542
13.0542
13.0544
13.0543
13.0542
13.0538
13.0536
13.0514
13.0657
13.0598
13.0582
13.0573
13.0566
13.0559
13.0553
13.0547
13.0544
13.0533
13.066
13.0622
13.0607
13.0597
13.0589
13.0582
13.0574
13.0567
13.0563
13.0557
13.0675
13.0648
13.0634
13.0624
13.0617
13.061
13.06
13.0591
13.0585
13.0581
13.0692
13.0676
13.0663
13.0652
13.0644
13.0637
13.0627
13.0617
13.0609
13.0604
13.0715
13.0706
13.0695
13.0682
13.0669
13.0661
13.0651
13.0641
13.0633
13.0626
13.0741
13.0739
13.0729
13.0714
13.0699
13.0685
13.0674
13.0663
13.0654
13.0644
13.0771
13.0771
13.0762
13.0747
13.0729
13.0712
13.0698
13.0684
13.0673
13.0657
13.08
13.0802
13.0792
13.0776
13.0756
13.0737
13.0719
13.0704
13.069
13.0664
13.0857
13.0845
13.0825
13.0804
13.078
13.0758
13.0739
13.0725
13.0718
13.069
12.6395
12.6345
12.6338
12.633
12.6329
12.633
12.6329
12.6325
12.6317
12.6298
12.6437
12.6388
12.6369
12.6355
12.6347
12.6342
12.6337
12.6331
12.6327
12.6322
12.6438
12.6405
12.6387
12.6374
12.6365
12.6359
12.6352
12.6345
12.6341
12.6339
12.6443
12.6419
12.6403
12.6391
12.6385
12.638
12.6372
12.6364
12.6358
12.6356
12.6444
12.643
12.6419
12.6408
12.6402
12.64
12.6392
12.6383
12.6377
12.6373
12.6446
12.6442
12.6434
12.6425
12.6416
12.6412
12.6408
12.6401
12.6395
12.6389
12.6452
12.6454
12.6451
12.6444
12.6435
12.6428
12.6423
12.6417
12.6411
12.64
12.6464
12.6468
12.6468
12.6463
12.6455
12.6447
12.6439
12.6433
12.6426
12.6408
12.6481
12.648
12.6482
12.6479
12.6472
12.6463
12.6455
12.6447
12.644
12.6407
12.6499
12.6486
12.649
12.6489
12.6485
12.6478
12.6473
12.647
12.6477
12.6445
12.2236
12.2224
12.221
12.22
12.2199
12.2203
12.2207
12.2209
12.2204
12.2208
12.2218
12.2212
12.2204
12.2197
12.2197
12.2199
12.2203
12.2206
12.2211
12.2227
12.2209
12.2204
12.2198
12.2194
12.2193
12.2197
12.22
12.2203
12.2208
12.2221
12.2196
12.2193
12.2189
12.2187
12.2189
12.2194
12.2198
12.2201
12.2206
12.2217
12.2178
12.2177
12.2176
12.2177
12.218
12.219
12.2196
12.22
12.2206
12.2214
12.2157
12.2159
12.2162
12.2165
12.217
12.218
12.219
12.2198
12.2205
12.2211
12.2139
12.2141
12.2148
12.2155
12.2163
12.2173
12.2184
12.2194
12.2203
12.2205
12.2124
12.2124
12.2135
12.2146
12.2157
12.2168
12.218
12.2192
12.2202
12.22
12.212
12.2108
12.2121
12.2136
12.215
12.2164
12.2177
12.2189
12.2201
12.2188
12.2084
12.2068
12.2094
12.2118
12.214
12.216
12.218
12.2198
12.2225
12.2216
11.7972
11.8015
11.8013
11.8019
11.8029
11.8046
11.8062
11.8077
11.8084
11.8115
11.79
11.7949
11.7968
11.7985
11.8004
11.8025
11.8046
11.8065
11.8083
11.8119
11.7883
11.7919
11.7939
11.7959
11.7979
11.8001
11.8023
11.8042
11.8061
11.8089
11.7862
11.7889
11.791
11.7931
11.7953
11.7975
11.7997
11.8018
11.8038
11.8061
11.7838
11.7857
11.7877
11.7899
11.7921
11.7948
11.7971
11.7993
11.8013
11.8033
11.781
11.7823
11.7842
11.7864
11.7888
11.7916
11.7943
11.7966
11.7988
11.8006
11.7784
11.7789
11.7808
11.7831
11.7858
11.7886
11.7914
11.7939
11.7963
11.7979
11.7756
11.7756
11.7774
11.7799
11.7827
11.7857
11.7886
11.7914
11.7939
11.7955
11.7737
11.7724
11.7743
11.7769
11.7799
11.783
11.7861
11.7889
11.7917
11.7927
11.7673
11.7663
11.7697
11.7732
11.777
11.7807
11.7844
11.7876
11.7913
11.7928
11.3795
11.3877
11.3893
11.3917
11.394
11.3968
11.3996
11.4026
11.405
11.4106
11.3696
11.3778
11.3817
11.3854
11.389
11.3927
11.3964
11.4
11.4032
11.4084
11.367
11.3728
11.3767
11.3806
11.3845
11.3882
11.3921
11.3959
11.3993
11.4033
11.3642
11.3686
11.3723
11.3762
11.38
11.3836
11.3874
11.3914
11.3948
11.3984
11.3618
11.3647
11.368
11.3717
11.3756
11.3793
11.3829
11.3868
11.3902
11.3933
11.3593
11.361
11.3638
11.3673
11.371
11.375
11.3788
11.3824
11.3857
11.3886
11.3569
11.3576
11.3599
11.3631
11.3668
11.3707
11.3745
11.378
11.3813
11.3841
11.3542
11.3544
11.3563
11.3593
11.3628
11.3666
11.3704
11.3739
11.3773
11.3801
11.3518
11.3515
11.3533
11.356
11.3594
11.3631
11.3668
11.3703
11.3737
11.3765
11.3467
11.3471
11.3496
11.3526
11.3564
11.3603
11.3641
11.3676
11.371
11.3739
10.9577
10.9671
10.9711
10.9752
10.9783
10.9813
10.9842
10.9873
10.9902
10.9953
10.95
10.9586
10.9638
10.9686
10.9729
10.9769
10.9808
10.9846
10.988
10.992
10.9472
10.9536
10.9586
10.9633
10.9678
10.972
10.9763
10.9805
10.9841
10.9875
10.9445
10.9496
10.9541
10.9587
10.9631
10.9669
10.9713
10.9756
10.9794
10.9827
10.9427
10.9463
10.9502
10.9546
10.9589
10.9625
10.9665
10.9706
10.9743
10.9774
10.9411
10.9435
10.9467
10.9506
10.9548
10.9588
10.9623
10.966
10.9694
10.9723
10.9394
10.941
10.9435
10.9469
10.9507
10.9546
10.9581
10.9615
10.9646
10.9676
10.9375
10.9387
10.9408
10.9437
10.9471
10.9507
10.9541
10.9573
10.9604
10.9635
10.9355
10.937
10.9387
10.9411
10.9442
10.9475
10.9508
10.9538
10.9566
10.9605
10.9336
10.9357
10.9371
10.9392
10.942
10.9451
10.9479
10.9504
10.9523
10.9559
10.5438
10.5484
10.5527
10.5566
10.5592
10.561
10.5627
10.5646
10.5671
10.5687
10.5419
10.5457
10.5495
10.5532
10.5561
10.5586
10.5609
10.5632
10.565
10.5655
10.5395
10.5429
10.5465
10.5499
10.553
10.5557
10.5585
10.5612
10.5635
10.5645
10.5375
10.5406
10.5438
10.5471
10.55
10.5526
10.5555
10.5585
10.561
10.5627
10.5365
10.539
10.5418
10.5448
10.5477
10.5498
10.5526
10.5555
10.5581
10.5601
10.536
10.538
10.5402
10.5429
10.5457
10.5481
10.5503
10.5527
10.5551
10.5573
10.5355
10.5371
10.5388
10.541
10.5435
10.5459
10.548
10.5501
10.5523
10.5549
10.5351
10.5365
10.5378
10.5396
10.5416
10.5438
10.5458
10.5478
10.5497
10.5527
10.5341
10.5364
10.5373
10.5387
10.5404
10.5423
10.5441
10.5458
10.5475
10.552
10.5357
10.5386
10.5384
10.5389
10.5398
10.5411
10.5421
10.5429
10.5427
10.5469
10.1356
10.1323
10.1341
10.1357
10.1365
10.1367
10.1367
10.1367
10.1376
10.1345
10.1399
10.1364
10.1367
10.1373
10.1375
10.1374
10.1371
10.1367
10.136
10.132
10.1391
10.1372
10.1375
10.138
10.1382
10.1381
10.138
10.1378
10.1373
10.1349
10.1388
10.1379
10.1382
10.1386
10.1388
10.1387
10.1387
10.1387
10.1385
10.1371
10.1391
10.1389
10.1392
10.1394
10.1396
10.1392
10.1393
10.1394
10.1394
10.1389
10.1399
10.1401
10.1403
10.1405
10.1407
10.1403
10.1401
10.14
10.14
10.1403
10.1408
10.1413
10.1413
10.1413
10.1413
10.1411
10.1407
10.1406
10.1406
10.1416
10.1418
10.1426
10.1423
10.1421
10.1419
10.1416
10.1413
10.1411
10.141
10.1426
10.1421
10.144
10.1435
10.1431
10.1426
10.1422
10.1418
10.1415
10.1414
10.1446
10.1459
10.1483
10.1465
10.1451
10.1438
10.1428
10.1415
10.1404
10.1385
10.1415
9.72997
9.72112
9.71899
9.71712
9.71563
9.71398
9.71233
9.71031
9.7088
9.7032
9.73704
9.72831
9.72433
9.72121
9.7184
9.71564
9.71295
9.71024
9.70742
9.70158
9.73786
9.73128
9.72742
9.72417
9.72111
9.71806
9.71506
9.71218
9.70933
9.70485
9.73875
9.73368
9.73015
9.72697
9.72391
9.72078
9.71771
9.7148
9.712
9.70835
9.73948
9.7359
9.73275
9.72967
9.72667
9.72354
9.72061
9.71772
9.71509
9.71236
9.74058
9.73812
9.73534
9.73245
9.72963
9.72651
9.72351
9.72068
9.71822
9.71622
9.74176
9.74023
9.73778
9.73505
9.73212
9.72913
9.72623
9.72354
9.72125
9.71992
9.74317
9.7422
9.73991
9.73728
9.73443
9.73153
9.72871
9.72614
9.72393
9.72302
9.74387
9.74409
9.74188
9.73932
9.73649
9.73364
9.73089
9.72848
9.72638
9.7265
9.74755
9.74824
9.74505
9.74196
9.73857
9.73532
9.73217
9.72956
9.72662
9.72688
9.34959
9.34127
9.33631
9.33208
9.32882
9.32584
9.32275
9.31912
9.31548
9.31135
9.35651
9.34777
9.3415
9.33608
9.33135
9.32705
9.32296
9.31896
9.31515
9.31105
9.36001
9.35198
9.34547
9.3396
9.33426
9.32927
9.32455
9.32014
9.31614
9.31216
9.36262
9.35535
9.34901
9.34307
9.33755
9.33224
9.32714
9.32243
9.31823
9.31429
9.36412
9.35807
9.35217
9.34635
9.34086
9.33553
9.33036
9.32548
9.32121
9.31751
9.36525
9.36043
9.3551
9.34956
9.34435
9.33905
9.33381
9.32885
9.32458
9.32112
9.36628
9.36254
9.35787
9.35274
9.34744
9.34218
9.33703
9.3322
9.328
9.3247
9.36743
9.36439
9.36022
9.35545
9.35032
9.34512
9.34007
9.3354
9.33125
9.32792
9.36819
9.3659
9.36213
9.35772
9.35282
9.3478
9.34292
9.33848
9.33447
9.33115
9.36989
9.3681
9.3643
9.35999
9.35511
9.35016
9.34546
9.34138
9.33762
9.33442
8.91987
8.91915
8.91399
8.90997
8.9066
8.9035
8.89998
8.89606
8.89199
8.89074
8.92536
8.9235
8.91866
8.91405
8.90981
8.90574
8.9016
8.89749
8.89383
8.89201
8.93398
8.93004
8.92457
8.9192
8.91403
8.90896
8.90386
8.89898
8.8947
8.89166
8.94057
8.93587
8.93018
8.92439
8.91864
8.91287
8.90694
8.90124
8.89623
8.89221
8.94514
8.94048
8.93496
8.92906
8.92305
8.91688
8.91037
8.90401
8.89835
8.89361
8.94793
8.94387
8.93877
8.93299
8.92687
8.92051
8.91368
8.90685
8.9007
8.8954
8.94969
8.94627
8.94173
8.93625
8.93007
8.92341
8.91641
8.9094
8.90296
8.89716
8.95068
8.9477
8.94366
8.93849
8.93238
8.92565
8.91861
8.9116
8.90506
8.89878
8.9511
8.94807
8.94445
8.93966
8.93384
8.9273
8.92044