/*--------------------------------*- C++ -*----------------------------------*\
| =========                 |                                                 |
| \\      /  F ield         | OpenFOAM: The Open Source CFD Toolbox           |
|  \\    /   O peration     | Version:  2406                                  |
|   \\  /    A nd           | Website:  www.openfoam.com                      |
|    \\/     M anipulation  |                                                 |
\*---------------------------------------------------------------------------*/
FoamFile
{
    version     2.0;
    format      ascii;
    arch        "LSB;label=32;scalar=64";
    class       surfaceScalarField;
    location    "0.7";
    object      phi;
}
// * * * * * * * * * * * * * * * * * * * * * * * * * * * * * * * * * * * * * //

dimensions      [0 3 -1 0 0 0 0];

oriented        oriented;

internalField   nonuniform List<scalar> 
73500
(
4.65308e-05
4.64995e-05
5.70585e-05
-5.15383e-05
-5.15177e-05
3.77653e-05
4.71698e-05
6.4914e-05
-5.23495e-05
2.6566e-05
4.7542e-05
7.0707e-05
-5.30739e-05
1.37067e-05
4.76601e-05
7.45423e-05
-5.33389e-05
4.51464e-08
4.76914e-05
7.64512e-05
-5.34555e-05
-1.36189e-05
4.76899e-05
7.64531e-05
-5.34543e-05
-2.64848e-05
4.76555e-05
7.4548e-05
-5.33358e-05
-3.7694e-05
4.7535e-05
7.07163e-05
-5.30703e-05
-4.64716e-05
4.71619e-05
6.49268e-05
-5.23453e-05
4.6493e-05
5.70743e-05
-5.15031e-05
-5.1513e-05
4.71985e-05
3.77269e-05
6.4913e-05
-5.23712e-05
3.80756e-05
3.80414e-05
7.28635e-05
2.65734e-05
3.81358e-05
7.83066e-05
1.36428e-05
3.81132e-05
8.1757e-05
4.6707e-08
3.80776e-05
8.34367e-05
-1.35521e-05
3.80757e-05
8.34382e-05
-2.64894e-05
3.81081e-05
8.17614e-05
-3.80011e-05
3.81279e-05
7.8314e-05
-4.71371e-05
3.80316e-05
7.28739e-05
3.77181e-05
6.49268e-05
-5.23328e-05
4.75701e-05
2.65218e-05
7.07045e-05
-5.30972e-05
3.81681e-05
2.65346e-05
7.83053e-05
2.65e-05
2.64641e-05
8.33568e-05
1.35588e-05
2.63679e-05
8.64732e-05
4.80085e-08
2.63036e-05
8.79622e-05
-1.34653e-05
2.6302e-05
8.79634e-05
-2.64135e-05
2.6363e-05
8.6477e-05
-3.80921e-05
2.64565e-05
8.33631e-05
-4.75069e-05
2.65259e-05
7.83142e-05
2.65132e-05
7.07166e-05
-5.30572e-05
4.76895e-05
1.36589e-05
7.4538e-05
-5.33643e-05
3.81458e-05
1.36009e-05
8.17541e-05
2.64031e-05
1.35201e-05
8.64717e-05
1.34801e-05
1.34428e-05
8.93283e-05
4.83598e-08
1.33959e-05
9.06731e-05
-1.33861e-05
1.33943e-05
9.06741e-05
-2.63161e-05
1.34388e-05
8.93315e-05
-3.80687e-05
1.35144e-05
8.64773e-05
-4.76254e-05
1.35941e-05
8.17621e-05
1.36524e-05
7.45488e-05
-5.33235e-05
4.7723e-05
-4.40621e-09
7.64448e-05
-5.34834e-05
3.81113e-05
3.50094e-09
8.3432e-05
2.63393e-05
8.91632e-09
8.79591e-05
1.3433e-05
1.08959e-08
9.06716e-05
4.77148e-08
1.07669e-08
9.1938e-05
-1.33398e-05
9.73362e-09
9.19389e-05
-2.62526e-05
7.8774e-09
9.06745e-05
-3.80341e-05
4.79608e-09
8.79642e-05
-4.76578e-05
-3.67736e-10
8.34395e-05
-7.70855e-09
7.64548e-05
-5.34413e-05
4.77236e-05
-1.36676e-05
7.64442e-05
-5.34847e-05
3.81113e-05
-1.35935e-05
8.34315e-05
2.63385e-05
-1.35026e-05
8.79585e-05
1.34319e-05
-1.34215e-05
9.06709e-05
4.68129e-08
-1.33748e-05
9.19373e-05
-1.33405e-05
-1.33759e-05
9.19382e-05
-2.62529e-05
-1.3424e-05
9.06738e-05
-3.80337e-05
-1.35053e-05
8.79635e-05
-4.76574e-05
-1.35953e-05
8.34388e-05
-1.36678e-05
7.64541e-05
-5.34407e-05
4.7691e-05
-2.65302e-05
7.45364e-05
-5.33681e-05
3.81448e-05
-2.65272e-05
8.17524e-05
2.64005e-05
-2.64471e-05
8.64699e-05
1.34768e-05
-2.63482e-05
8.93264e-05
4.51924e-08
-2.6285e-05
9.06711e-05
-1.33881e-05
-2.62861e-05
9.06721e-05
-2.63165e-05
-2.63507e-05
8.93295e-05
-3.80679e-05
-2.64497e-05
8.64752e-05
-4.76241e-05
-2.65279e-05
8.176e-05
-2.65279e-05
7.45467e-05
-5.33226e-05
4.75713e-05
-3.7734e-05
7.07021e-05
-5.31032e-05
3.81652e-05
-3.80337e-05
7.83026e-05
2.64948e-05
-3.81208e-05
8.33539e-05
1.35529e-05
-3.80971e-05
8.64701e-05
4.27805e-08
-3.80632e-05
8.79589e-05
-1.34685e-05
-3.80643e-05
8.79601e-05
-2.64145e-05
-3.81001e-05
8.64736e-05
-3.80907e-05
-3.81244e-05
8.33597e-05
-4.75049e-05
-3.8035e-05
7.83108e-05
-3.77305e-05
7.0713e-05
-5.30569e-05
4.71977e-05
-4.65029e-05
6.491e-05
-5.23799e-05
3.80692e-05
-4.71626e-05
7.286e-05
2.6565e-05
-4.75311e-05
7.83028e-05
1.36346e-05
-4.76497e-05
8.17528e-05
3.99645e-08
-4.76833e-05
8.34322e-05
-1.35563e-05
-4.76846e-05
8.34336e-05
-2.64906e-05
-4.76531e-05
8.17567e-05
-3.79998e-05
-4.75359e-05
7.83092e-05
-4.71344e-05
-4.71675e-05
7.28691e-05
-4.65036e-05
6.49219e-05
-5.23313e-05
4.65253e-05
5.70555e-05
-5.15185e-05
-5.15477e-05
3.77546e-05
6.49103e-05
-5.23504e-05
2.65551e-05
7.07025e-05
-5.30765e-05
1.36975e-05
7.45372e-05
-5.33429e-05
3.81536e-08
7.64456e-05
-5.34613e-05
-1.36232e-05
7.64472e-05
-5.34622e-05
-2.64863e-05
7.45419e-05
-5.33455e-05
-3.76937e-05
7.07101e-05
-5.30811e-05
-4.64706e-05
6.49206e-05
-5.23596e-05
5.70682e-05
-5.15001e-05
-5.15309e-05
1.76267e-05
1.74804e-05
5.58837e-05
-1.69985e-05
-1.69075e-05
1.58109e-05
1.95475e-05
6.57996e-05
-1.85911e-05
1.18514e-05
2.09485e-05
7.36146e-05
-1.98691e-05
6.41814e-06
2.18607e-05
7.89389e-05
-2.07964e-05
2.10111e-07
2.22976e-05
8.16276e-05
-2.12385e-05
-6.00796e-06
2.22919e-05
8.16405e-05
-2.12344e-05
-1.147e-05
2.18448e-05
7.89778e-05
-2.0786e-05
-1.54767e-05
2.0925e-05
7.3679e-05
-1.98553e-05
-1.73553e-05
1.95226e-05
6.58868e-05
-1.85792e-05
1.74621e-05
5.59883e-05
-1.68165e-05
-1.68955e-05
1.96743e-05
1.56255e-05
6.57958e-05
-1.86773e-05
1.76772e-05
1.75161e-05
7.6915e-05
1.32114e-05
1.87422e-05
8.50029e-05
7.11148e-06
1.94991e-05
9.02429e-05
1.91637e-07
1.98597e-05
9.28188e-05
-6.73689e-06
1.98535e-05
9.28287e-05
-1.28623e-05
1.94814e-05
9.02731e-05
-1.73704e-05
1.87153e-05
8.50544e-05
-1.9426e-05
1.74853e-05
7.69883e-05
1.55992e-05
6.58898e-05
-1.85091e-05
2.10646e-05
1.1638e-05
7.3604e-05
-1.99514e-05
1.88888e-05
1.30237e-05
8.49966e-05
1.40834e-05
1.39121e-05
9.30169e-05
7.55661e-06
1.44476e-05
9.80768e-05
1.78755e-07
1.47032e-05
0.000100522
-7.20722e-06
1.46976e-05
0.000100529
-1.37579e-05
1.44313e-05
9.81013e-05
-1.86028e-05
1.38868e-05
9.30593e-05
-2.08333e-05
1.29932e-05
8.50587e-05
1.16071e-05
7.36865e-05
-1.97935e-05
2.19752e-05
6.18808e-06
7.89181e-05
-2.08801e-05
1.9641e-05
6.90648e-06
9.02284e-05
1.46117e-05
7.36846e-06
9.80694e-05
7.82262e-06
7.64327e-06
0.000102947
1.69298e-07
7.77418e-06
0.000105281
-7.49169e-06
7.76963e-06
0.000105288
-1.43034e-05
7.62992e-06
0.000102968
-1.93695e-05
7.34727e-06
9.81061e-05
-2.17543e-05
6.87913e-06
9.02827e-05
6.15582e-06
7.89915e-05
-2.0728e-05
2.24156e-05
-2.58903e-08
8.1594e-05
-2.13252e-05
2.00034e-05
-2.08236e-08
9.27943e-05
1.48668e-05
-1.71559e-08
0.000100506
7.95114e-06
-1.68547e-08
0.000105273
1.6362e-07
-1.88256e-08
0.000107544
-7.63122e-06
-2.22144e-08
0.00010755
-1.45684e-05
-2.69075e-08
0.000105292
-1.97397e-05
-3.36443e-08
0.000100539
-2.21997e-05
-4.39262e-08
9.28442e-05
-5.72836e-08
8.16617e-05
-2.11757e-05
2.24164e-05
-6.23872e-06
8.15922e-05
-2.13263e-05
2.00032e-05
-6.94664e-06
9.27928e-05
1.48657e-05
-7.40137e-06
0.000100504
7.94931e-06
-7.67611e-06
0.000105272
1.61559e-07
-7.8113e-06
0.000107543
-7.63311e-06
-7.81377e-06
0.000107549
-1.45699e-05
-7.68354e-06
0.00010529
-1.97407e-05
-7.41401e-06
0.000100537
-2.22e-05
-6.96563e-06
9.28413e-05
-6.26824e-06
8.16579e-05
-2.11755e-05
2.19771e-05
-1.16841e-05
7.89131e-05
-2.08831e-05
1.96398e-05
-1.30592e-05
9.0224e-05
1.46075e-05
-1.39413e-05
9.80654e-05
7.81661e-06
-1.4478e-05
0.000102943
1.62694e-07
-1.47391e-05
0.000105276
-7.49778e-06
-1.47411e-05
0.000105283
-1.43081e-05
-1.4484e-05
0.000102963
-1.93726e-05
-1.39516e-05
9.8099e-05
-2.17558e-05
-1.30758e-05
9.02737e-05
-1.1712e-05
7.89798e-05
-2.07282e-05
2.10656e-05
-1.56635e-05
7.35968e-05
-1.9957e-05
1.88839e-05
-1.7544e-05
8.499e-05
1.40742e-05
-1.8766e-05
9.30104e-05
7.54505e-06
-1.95264e-05
9.80698e-05
1.66652e-07
-1.98937e-05
0.000100514
-7.21801e-06
-1.98956e-05
0.000100521
-1.37663e-05
-1.95321e-05
9.80909e-05
-1.86083e-05
-1.87765e-05
9.30468e-05
-2.0836e-05
-1.75602e-05
8.50431e-05
-1.56898e-05
7.36668e-05
-1.97962e-05
1.96711e-05
-1.75038e-05
6.57881e-05
-1.86865e-05
1.76648e-05
-1.95653e-05
7.69071e-05
1.31944e-05
-2.09672e-05
8.49942e-05
7.09303e-06
-2.18849e-05
9.0233e-05
1.73478e-07
-2.23294e-05
9.28072e-05
-6.75273e-06
-2.23314e-05
9.28151e-05
-1.28748e-05
-2.18917e-05
9.02572e-05
-1.73784e-05
-2.09795e-05
8.50353e-05
-1.94304e-05
-1.95867e-05
7.69653e-05
-1.75341e-05
6.58625e-05
-1.85126e-05
1.76145e-05
5.58774e-05
-1.6914e-05
-1.70091e-05
1.57879e-05
6.57916e-05
-1.86054e-05
1.18253e-05
7.36044e-05
-1.98908e-05
6.39189e-06
7.89259e-05
-2.08244e-05
1.85162e-07
8.16115e-05
-2.12726e-05
-6.0299e-06
8.16211e-05
-2.12747e-05
-1.14877e-05
7.89549e-05
-2.08314e-05
-1.54903e-05
7.36522e-05
-1.99043e-05
-1.73656e-05
6.58561e-05
-1.86335e-05
5.59545e-05
-1.68236e-05
-1.69524e-05
1.01212e-05
9.73536e-06
5.4139e-05
-9.16615e-06
-8.90107e-06
9.42463e-06
1.15038e-05
6.53249e-05
-1.02895e-05
7.35986e-06
1.2783e-05
7.43704e-05
-1.14295e-05
4.22939e-06
1.36323e-05
8.07018e-05
-1.22219e-05
5.02316e-07
1.40502e-05
8.39615e-05
-1.26167e-05
-3.2489e-06
1.40457e-05
8.40007e-05
-1.26167e-05
-6.44905e-06
1.36215e-05
8.0818e-05
-1.22255e-05
-8.62847e-06
1.27731e-05
7.45594e-05
-1.14413e-05
-9.47372e-06
1.15122e-05
6.55768e-05
-1.03246e-05
9.7789e-06
5.4436e-05
-8.72215e-06
-8.95424e-06
1.18276e-05
8.95525e-06
6.53131e-05
-1.0524e-05
1.10803e-05
1.06877e-05
7.85146e-05
8.60773e-06
1.18772e-05
8.84168e-05
4.86509e-06
1.26294e-05
9.50226e-05
4.42223e-07
1.29916e-05
9.8333e-05
-4.00104e-06
1.29834e-05
9.8364e-05
-7.8018e-06
1.26082e-05
9.5116e-05
-1.037e-05
1.18507e-05
8.85735e-05
-1.12491e-05
1.06713e-05
7.87337e-05
8.97481e-06
6.55885e-05
-1.01233e-05
1.30621e-05
6.82921e-06
7.43381e-05
-1.16325e-05
1.22193e-05
8.1619e-06
8.83977e-05
9.4502e-06
9.05877e-06
9.86376e-05
5.28917e-06
9.60642e-06
0.000105293
3.97238e-07
9.86313e-06
0.000108571
-4.5117e-06
9.85382e-06
0.000108596
-8.72435e-06
9.58026e-06
0.000105369
-1.15803e-05
9.02281e-06
9.87686e-05
-1.25433e-05
8.13136e-06
8.85876e-05
6.82627e-06
7.45862e-05
-1.12745e-05
1.38907e-05
3.66569e-06
8.06391e-05
-1.24127e-05
1.29468e-05
4.3865e-06
9.4978e-05
9.96996e-06
4.86463e-06
0.00010527
5.54276e-06
5.14797e-06
0.000111862
3.65807e-07
5.27467e-06
0.000115074
-4.82688e-06
5.26504e-06
0.000115094
-9.30086e-06
5.12144e-06
0.000111926
-1.23563e-05
4.82652e-06
0.000105383
-1.34112e-05
4.34647e-06
9.5146e-05
3.64122e-06
8.08637e-05
-1.20785e-05
1.43024e-05
-6.83507e-08
8.38599e-05
-1.28016e-05
1.33013e-05
-4.86255e-08
9.82575e-05
1.02179e-05
-4.11916e-08
0.000108523
5.65864e-06
-4.34535e-08
0.000115051
3.46857e-07
-5.00746e-08
0.000118206
-4.97868e-06
-5.83886e-08
0.000118224
-9.58125e-06
-6.79483e-08
0.000115108
-1.27388e-05
-7.91179e-08
0.000108626
-1.38436e-05
-9.33599e-08
9.84122e-05
-1.10652e-07
8.40692e-05
-1.24801e-05
1.43014e-05
-3.7973e-06
8.38531e-05
-1.28023e-05
1.32988e-05
-4.47905e-06
9.82519e-05
1.02135e-05
-4.94391e-06
0.000108518
5.65309e-06
-5.23195e-06
0.000115046
3.40822e-07
-5.37207e-06
0.000118201
-4.98493e-06
-5.37961e-06
0.000118218
-9.5868e-06
-5.25448e-06
0.000115101
-1.2743e-05
-4.9808e-06
0.000108618
-1.38464e-05
-4.52858e-06
9.84022e-05
-3.85599e-06
8.40566e-05
-1.24813e-05
1.38867e-05
-6.94706e-06
8.06197e-05
-1.24145e-05
1.2937e-05
-8.24347e-06
9.49619e-05
9.95585e-06
-9.12808e-06
0.000105255
5.52543e-06
-9.68208e-06
0.000111848
3.46664e-07
-9.95297e-06
0.000115059
-4.84563e-06
-9.9603e-06
0.000115077
-9.31739e-06
-9.70439e-06
0.000111906
-1.23694e-05
-9.16645e-06
0.000105359
-1.342e-05
-8.29876e-06
9.51159e-05
-7.02096e-06
8.08264e-05
-1.20836e-05
1.30518e-05
-9.04979e-06
7.43094e-05
-1.16348e-05
1.21999e-05
-1.07515e-05
8.83728e-05
9.4237e-06
-1.19328e-05
9.86141e-05
5.2582e-06
-1.26928e-05
0.000105269
3.64332e-07
-1.3069e-05
0.000108545
-4.54374e-06
-1.30768e-05
0.000108566
-8.75278e-06
-1.27172e-05
0.000105334
-1.16028e-05
-1.19757e-05
9.8727e-05
-1.25595e-05
-1.08149e-05
8.85374e-05
-9.13606e-06
7.45255e-05
-1.12864e-05
1.18068e-05
-9.79941e-06
6.52797e-05
-1.05248e-05
1.10474e-05
-1.15484e-05
7.8484e-05
8.56736e-06
-1.28242e-05
8.83864e-05
4.82041e-06
-1.36817e-05
9.49899e-05
3.95425e-07
-1.41124e-05
9.82961e-05
-4.04604e-06
-1.41213e-05
9.83212e-05
-7.84221e-06
-1.37097e-05
9.50657e-05
-1.04032e-05
-1.2873e-05
8.85142e-05
-1.12736e-05
-1.1624e-05
7.8664e-05
-9.89901e-06
6.55079e-05
-1.01408e-05
1.00859e-05
5.41054e-05
-8.93648e-06
-9.15855e-06
9.37855e-06
6.52923e-05
-1.03261e-05
7.30785e-06
7.43364e-05
-1.14688e-05
4.17328e-06
8.06632e-05
-1.22676e-05
4.43872e-07
8.39159e-05
-1.26705e-05
-3.3064e-06
8.3946e-05
-1.26793e-05
-6.50206e-06
8.0753e-05
-1.22956e-05
-8.67419e-06
7.44834e-05
-1.15161e-05
-9.5111e-06
6.54902e-05
-1.04065e-05
5.43418e-05
-8.74842e-06
-9.0383e-06
2.90492e-06
1.95488e-06
5.29602e-05
-2.16789e-06
-1.49488e-06
3.17187e-06
2.83351e-06
6.42667e-05
-2.0227e-06
2.86228e-06
3.56088e-06
7.36775e-05
-2.53584e-06
2.04362e-06
4.06841e-06
8.03886e-05
-2.91309e-06
9.1498e-07
4.33077e-06
8.38999e-05
-3.11528e-06
-2.54363e-07
4.34524e-06
8.39803e-05
-3.12975e-06
-1.19051e-06
4.11861e-06
8.06267e-05
-2.96438e-06
-1.69832e-06
3.66155e-06
7.40625e-05
-2.63217e-06
-1.69148e-06
3.0198e-06
6.47753e-05
-2.20067e-06
2.25355e-06
5.35542e-05
-1.30323e-06
-1.74188e-06
3.59631e-06
2.04332e-06
6.42323e-05
-2.58527e-06
3.9465e-06
3.04348e-06
7.79732e-05
3.47735e-06
3.81286e-06
8.86536e-05
2.32812e-06
4.31954e-06
9.59419e-05
7.88356e-07
4.56823e-06
9.96573e-05
-7.83966e-07
4.57887e-06
9.97244e-05
-2.0298e-06
4.35854e-06
9.6144e-05
-2.66023e-06
3.89798e-06
8.89902e-05
-2.53215e-06
3.20794e-06
7.84376e-05
2.3345e-06
6.48065e-05
-1.81488e-06
4.18084e-06
1.61605e-06
7.35902e-05
-2.98682e-06
4.56096e-06
2.47499e-06
8.86037e-05
3.95215e-06
3.11021e-06
9.99685e-05
2.54544e-06
3.50586e-06
0.000107533
6.99217e-07
3.68587e-06
0.00011132
-1.1745e-06
3.69301e-06
0.000111376
-2.66572e-06
3.53379e-06
0.000107705
-3.41939e-06
3.1769e-06
0.000100264
-3.24267e-06
2.61387e-06
8.90257e-05
1.87644e-06
7.41316e-05
-2.3136e-06
4.60816e-06
7.45527e-07
8.02277e-05
-3.3069e-06
4.97994e-06
1.27014e-06
9.58287e-05
4.25738e-06
1.64518e-06
0.000107476
2.67691e-06
1.86717e-06
0.0001151
6.43356e-07
1.95803e-06
0.000118854
-1.41514e-06
1.96259e-06
0.000118902
-3.07298e-06
1.88742e-06
0.000115249
-3.92986e-06
1.69648e-06
0.00010774
-3.74828e-06
1.38001e-06
9.62177e-05
9.56555e-07
8.07393e-05
-2.68738e-06
4.82806e-06
-3.79412e-07
8.36472e-05
-3.47049e-06
5.1869e-06
-2.82659e-07
9.94686e-05
4.39665e-06
-2.23155e-07
0.0001112
2.72634e-06
-1.91811e-07
0.000118799
6.16109e-07
-1.76677e-07
0.000122468
-1.51624e-06
-1.72167e-07
0.000122509
-3.26059e-06
-1.75585e-07
0.000118934
-4.18159e-06
-1.84713e-07
0.000111447
-4.00757e-06
-2.01353e-07
9.9839e-05
-2.23926e-07
8.41411e-05
-2.88256e-06
4.82851e-06
-1.4874e-06
8.36205e-05
-3.4681e-06
5.18906e-06
-1.8224e-06
9.94485e-05
4.3987e-06
-2.08055e-06
0.000111184
2.72694e-06
-2.24143e-06
0.000118786
6.14881e-07
-2.3034e-06
0.000122458
-1.51943e-06
-2.29958e-06
0.000122497
-3.26493e-06
-2.22986e-06
0.000118919
-4.18615e-06
-2.05592e-06
0.000111429
-4.0114e-06
-1.77151e-06
9.98167e-05
-1.3911e-06
8.41134e-05
-2.88499e-06
4.60658e-06
-2.30631e-06
8.01493e-05
-3.29664e-06
4.98328e-06
-2.98845e-06
9.57687e-05
4.26084e-06
-3.51296e-06
0.000107428
2.67696e-06
-3.8513e-06
0.00011506
6.38228e-07
-4.00536e-06
0.000118817
-1.4249e-06
-4.00447e-06
0.000118863
-3.08604e-06
-3.84917e-06
0.000115205
-3.94374e-06
-3.50678e-06
0.000107686
-3.7601e-06
-2.97189e-06
9.61512e-05
-2.27123e-06
8.06577e-05
-2.6955e-06
4.16852e-06
-2.64474e-06
7.3465e-05
-2.96647e-06
4.55647e-06
-3.49118e-06
8.85051e-05
3.94949e-06
-4.16177e-06
9.98881e-05
2.53928e-06
-4.61723e-06
0.000107463
6.86856e-07
-4.84285e-06
0.000111253
-1.1931e-06
-4.84652e-06
0.000111307
-2.68839e-06
-4.62851e-06
0.000107627
-3.4425e-06
-4.17907e-06
0.000100172
-3.26284e-06
-3.51148e-06
8.8916e-05
-2.66425e-06
7.40008e-05
-2.33043e-06
3.55388e-06
-2.43162e-06
6.40697e-05
-2.53841e-06
3.91546e-06
-3.1921e-06
7.78394e-05
3.45384e-06
-3.83751e-06
8.85412e-05
2.30565e-06
-4.30304e-06
9.58418e-05
7.62291e-07
-4.54607e-06
9.95605e-05
-8.13937e-07
-4.55446e-06
9.96232e-05
-2.06205e-06
-4.32906e-06
9.60318e-05
-2.69101e-06
-3.87909e-06
8.88614e-05
-2.55828e-06
-3.25236e-06
7.82886e-05
-2.50071e-06
6.46361e-05
-1.83716e-06
2.80836e-06
5.27715e-05
-1.80982e-06
-2.08258e-06
3.09e-06
6.41022e-05
-2.27125e-06
2.79662e-06
7.3536e-05
-2.73e-06
1.98969e-06
8.02613e-05
-3.07974e-06
8.65738e-07
8.37765e-05
-3.26807e-06
-3.00805e-07
8.38511e-05
-3.27852e-06
-1.23337e-06
8.04841e-05
-3.11321e-06
-1.73536e-06
7.39015e-05
-2.78162e-06
-1.72323e-06
6.45948e-05
-2.35702e-06
5.33589e-05
-1.33299e-06
-1.89901e-06
2.87763e-06
1.01632e-06
5.25276e-05
-2.37807e-06
-1.03685e-06
2.97479e-06
1.62294e-06
6.40311e-05
-1.43983e-06
2.74153e-06
2.12178e-06
7.36643e-05
-1.82841e-06
2.20363e-06
2.4647e-06
8.05987e-05
-2.09216e-06
1.46715e-06
2.65501e-06
8.42709e-05
-2.24789e-06
6.65777e-07
2.70177e-06
8.44087e-05
-2.29032e-06
-6.23211e-08
2.61495e-06
8.10054e-05
-2.23017e-06
-6.16373e-07
2.3987e-06
7.43182e-05
-2.0696e-06
-9.41335e-07
2.07599e-06
6.48897e-05
-1.83522e-06
1.66591e-06
5.35215e-05
-1.01142e-06
-1.54167e-06
3.1527e-06
7.82088e-07
6.39462e-05
-2.59077e-06
3.25614e-06
1.47426e-06
7.8056e-05
2.92938e-06
2.00743e-06
8.91311e-05
2.22971e-06
2.36054e-06
9.67805e-05
1.3008e-06
2.5448e-06
0.00010073
3.1749e-07
2.58741e-06
0.000100851
-5.41606e-07
2.50247e-06
9.71435e-05
-1.13539e-06
2.279e-06
8.97307e-05
-1.40045e-06
1.92659e-06
7.88747e-05
1.47496e-06
6.49449e-05
-1.32974e-06
3.36445e-06
3.35653e-07
7.34615e-05
-2.75226e-06
3.47518e-06
9.79253e-07
8.90198e-05
3.07645e-06
1.45589e-06
0.000100952
2.24717e-06
1.75428e-06
0.000109
1.16805e-06
1.8956e-06
0.000113076
4.35027e-08
1.93277e-06
0.000113182
-9.26759e-07
1.88008e-06
0.000109322
-1.56701e-06
1.70489e-06
0.000101501
-1.79595e-06
1.40939e-06
8.97953e-05
1.01789e-06
7.44419e-05
-1.63185e-06
3.52198e-06
-2.86012e-07
8.02446e-05
-2.88327e-06
3.62607e-06
1.97123e-07
9.65361e-05
3.16705e-06
5.40782e-07
0.000108877
2.24724e-06
7.47382e-07
0.000117053
1.0782e-06
8.37827e-07
0.000121105
-1.32353e-07
8.69245e-07
0.000121197
-1.18148e-06
8.58218e-07
0.000117342
-1.86467e-06
7.63744e-07
0.000109387
-2.07868e-06
5.84106e-07
9.72771e-05
3.341e-07
8.12051e-05
-1.8435e-06
3.59522e-06
-1.00119e-06
8.37346e-05
-2.93735e-06
3.69189e-06
-7.3747e-07
0.000100331
3.19459e-06
-5.5929e-07
0.000112822
2.22561e-06
-4.5155e-07
0.000120989
1.02951e-06
-3.89443e-07
0.000124912
-2.02044e-07
-3.58547e-07
0.000124987
-1.29495e-06
-3.51526e-07
0.000121255
-2.01235e-06
-3.64092e-07
0.000113311
-2.22392e-06
-4.01471e-07
0.000101056
-4.68849e-07
8.46888e-05
-1.95256e-06
3.57814e-06
-1.67643e-06
8.36638e-05
-2.91779e-06
3.68026e-06
-1.64373e-06
0.000100277
3.18577e-06
-1.63874e-06
0.00011278
2.21766e-06
-1.63263e-06
0.000120956
1.02047e-06
-1.60218e-06
0.000124887
-2.12776e-07
-1.57362e-06
0.000124963
-1.30524e-06
-1.5459e-06
0.000121224
-2.01987e-06
-1.47454e-06
0.000113273
-2.22787e-06
-1.36886e-06
0.000101011
-1.24901e-06
8.46333e-05
-1.95201e-06
3.46239e-06
-2.18092e-06
8.00338e-05
-2.81688e-06
3.58159e-06
-2.34465e-06
9.63713e-05
3.1345e-06
-2.48946e-06
0.000108748
2.2189e-06
-2.58507e-06
0.000116948
1.04908e-06
-2.6111e-06
0.000121014
-1.62252e-07
-2.58962e-06
0.000121108
-1.20944e-06
-2.51934e-06
0.000117243
-1.88605e-06
-2.36539e-06
0.000109271
-2.08791e-06
-2.13739e-06
9.71396e-05
-1.86533e-06
8.10413e-05
-1.84055e-06
3.24103e-06
-2.4191e-06
7.31175e-05
-2.6316e-06
3.37656e-06
-2.69854e-06
8.87432e-05
3.00051e-06
-2.93298e-06
0.000100727
2.18535e-06
-3.09886e-06
0.000108811
1.11277e-06
-3.17417e-06
0.000112907
-7.59992e-09
-3.1618e-06
0.000113016
-9.70122e-07
-3.0593e-06
0.000109146
-1.59573e-06
-2.85385e-06
0.000101303
-1.80571e-06
-2.56219e-06
8.9568e-05
-2.20874e-06
7.41786e-05
-1.6265e-06
2.91904e-06
-2.36285e-06
6.34839e-05
-2.36945e-06
3.05984e-06
-2.64968e-06
7.76675e-05
2.77396e-06
-2.89374e-06
8.8805e-05
2.10901e-06
-3.07449e-06
9.64997e-05
1.20452e-06
-3.16747e-06
0.000100475
2.4275e-07
-3.16363e-06
0.000100603
-5.93855e-07
-3.06094e-06
9.6886e-05
-1.16125e-06
-2.85934e-06
8.94505e-05
-1.39594e-06
-2.58672e-06
7.85633e-05
-2.24996e-06
6.45989e-05
-1.30562e-06
2.49227e-06
5.19709e-05
-1.99079e-06
-2.04832e-06
2.62665e-06
6.35334e-05
-2.20207e-06
2.45535e-06
7.32324e-05
-2.40481e-06
1.98656e-06
8.02213e-05
-2.55192e-06
1.3106e-06
8.3928e-05
-2.62936e-06
5.6317e-07
8.40783e-05
-2.63002e-06
-1.14398e-07
8.06682e-05
-2.55424e-06
-6.22439e-07
7.39604e-05
-2.39747e-06
-9.10246e-07
6.45059e-05
-2.1984e-06
5.31185e-05
-9.67026e-07
-1.9445e-06
1.75061e-06
-9.44276e-07
5.22932e-05
-1.23636e-06
6.70568e-07
2.07536e-06
-5.94734e-07
6.38186e-05
4.90339e-07
2.21434e-06
-2.48124e-07
7.35405e-05
2.43561e-07
2.15851e-06
1.3629e-08
8.05843e-05
6.83476e-08
1.95673e-06
1.84671e-07
8.43597e-05
-5.75378e-08
1.66182e-06
2.59959e-07
8.45753e-05
-1.16629e-07
1.33347e-06
2.45998e-07
8.12212e-05
-1.16783e-07
1.01443e-06
1.46068e-07
7.4566e-05
-5.92115e-08
7.39672e-07
-2.19949e-08
6.51679e-05
3.41437e-08
-2.32213e-07
5.38569e-05
4.86957e-07
1.61374e-07
1.74687e-06
-1.14224e-06
6.36419e-05
-1.23716e-06
2.06919e-06
-6.94165e-07
7.78423e-05
2.16794e-06
-2.9393e-07
8.90886e-05
2.05267e-06
4.19649e-09
9.69175e-05
1.78284e-06
1.89482e-07
0.000101008
1.43568e-06
2.67312e-07
0.000101205
1.08886e-06
2.46071e-07
9.75049e-05
7.9941e-07
1.25305e-07
9.00562e-05
5.90069e-07
-8.27517e-08
7.91586e-05
-3.48181e-07
6.52404e-05
4.21876e-07
1.72563e-06
-1.33789e-06
7.31327e-05
-1.19228e-06
2.05876e-06
-8.68506e-07
8.88703e-05
2.13126e-06
-4.68072e-07
0.000101064
1.96159e-06
-1.77687e-07
0.000109363
1.62718e-06
-4.55349e-09
0.000113617
1.22586e-06
6.88069e-08
0.000113795
8.51557e-07
5.37775e-08
0.000109903
5.74583e-07
-5.93395e-08
0.000101977
4.16383e-07
-2.62988e-07
9.01484e-05
-5.35739e-07
7.47339e-05
3.23807e-07
1.71287e-06
-1.51896e-06
7.99012e-05
-1.178e-06
2.04762e-06
-1.10832e-06
9.64512e-05
2.10012e-06
-7.63917e-07
0.000109132
1.89073e-06
-5.16813e-07
0.000117614
1.50864e-06
-3.701e-07
0.000121865
1.06548e-06
-3.03385e-07
0.000122025
6.67779e-07
-3.03851e-07
0.000118111
3.95804e-07
-3.86101e-07
0.00011
2.74621e-07
-5.4875e-07
9.76983e-05
-7.83738e-07
8.14957e-05
2.44195e-07
1.6786e-06
-1.67478e-06
8.33623e-05
-1.13823e-06
2.01692e-06
-1.37092e-06
0.000100266
2.06086e-06
-1.11735e-06
0.000113143
1.83291e-06
-9.34652e-07
0.000121647
1.43175e-06
-8.16916e-07
0.000125771
9.75586e-07
-7.5383e-07
0.000125906
5.66181e-07
-7.40991e-07
0.000122115
2.95127e-07
-7.80025e-07
0.000113991
1.95679e-07
-8.80959e-07
0.000101503
-1.04957e-06
8.49598e-05
2.02788e-07
1.61561e-06
-1.76229e-06
8.32306e-05
-1.08206e-06
1.95897e-06
-1.58339e-06
0.000100157
2.01169e-06
-1.43164e-06
0.000113054
1.79157e-06
-1.32003e-06
0.000121574
1.39578e-06
-1.23618e-06
0.000125714
9.44391e-07
-1.17898e-06
0.000125852
5.42601e-07
-1.1505e-06
0.000122049
2.81457e-07
-1.14408e-06
0.000113913
1.93324e-07
-1.17891e-06
0.000101411
-1.27213e-06
8.48513e-05
2.10124e-07
1.51448e-06
-1.73837e-06
7.95085e-05
-9.98801e-07
1.86412e-06
-1.67082e-06
9.61215e-05
1.94327e-06
-1.60786e-06
0.000108858
1.75994e-06
-1.5585e-06
0.000117383
1.39884e-06
-1.51139e-06
0.000121664
9.75954e-07
-1.46518e-06
0.00012183
6.02527e-07
-1.42172e-06
0.000117901
3.60791e-07
-1.37926e-06
0.000109763
2.74041e-07
-1.36084e-06
9.74223e-05
-1.39092e-06
8.11733e-05
2.72791e-07
1.37172e-06
-1.57751e-06
7.24888e-05
-8.9011e-07
1.72326e-06
-1.58091e-06
8.83145e-05
1.84072e-06
-1.57238e-06
0.000100588
1.72194e-06
-1.56392e-06
0.000108949
1.43481e-06
-1.54524e-06
0.000113241
1.07922e-06
-1.51159e-06
0.000113432
7.5478e-07
-1.46339e-06
0.000109526
5.33363e-07
-1.40618e-06
0.000101565
4.32581e-07
-1.36403e-06
8.96858e-05
-1.35482e-06
7.42081e-05
3.78124e-07
1.18825e-06
-1.28521e-06
6.27722e-05
-7.55394e-07
1.53148e-06
-1.30396e-06
7.70593e-05
1.69521e-06
-1.31031e-06
8.83921e-05
1.66727e-06
-1.31647e-06
9.62938e-05
1.48825e-06
-1.31126e-06
0.000100433
1.23269e-06
-1.2888e-06
0.000100649
9.78399e-07
-1.25112e-06
9.69407e-05
7.8094e-07
-1.20379e-06
8.94589e-05
6.58714e-07
-1.17783e-06
7.85113e-05
-1.16616e-06
6.4535e-05
5.43132e-07
9.66844e-07
5.12499e-05
-8.97757e-07
-6.23309e-07
1.28136e-06
6.28207e-05
-8.96718e-07
1.49648e-06
7.26159e-05
-8.98645e-07
1.57932e-06
7.97349e-05
-9.021e-07
1.53624e-06
8.35675e-05
-8.96551e-07
1.40592e-06
8.38122e-05
-8.81581e-07
1.23791e-06
8.04577e-05
-8.61971e-07
1.05872e-06
7.3779e-05
-8.33171e-07
8.90638e-07
6.4348e-05
-8.43412e-07
5.30154e-05
6.695e-07
-8.35273e-07
1.98862e-06
-6.39725e-07
5.20502e-05
-1.43503e-06
3.68502e-07
2.33654e-06
-5.67265e-07
6.37192e-05
3.56715e-07
2.50461e-06
-4.22863e-07
7.35986e-05
2.35861e-07
2.46908e-06
-2.87668e-07
8.07989e-05
1.46468e-07
2.26374e-06
-1.84099e-07
8.47145e-05
6.97192e-08
1.92691e-06
-1.36585e-07
8.50457e-05
3.55007e-08
1.5058e-06
-1.58739e-07
8.17796e-05
5.11797e-08
1.05172e-06
-2.62042e-07
7.51846e-05
1.24146e-07
6.19319e-07
-4.48279e-07
6.58174e-05
2.56878e-07
-6.95264e-07
5.44929e-05
2.62369e-07
4.34831e-07
2.02944e-06
-8.85286e-07
6.34032e-05
-1.50879e-06
2.3475e-06
-7.87556e-07
7.77764e-05
2.47312e-06
-6.26927e-07
8.9198e-05
2.41e-06
-4.72088e-07
9.71944e-05
2.19437e-06
-3.59618e-07
0.000101427
1.86733e-06
-3.11261e-07
0.000101731
1.47321e-06
-3.39082e-07
9.81028e-05
1.05384e-06
-4.60052e-07
9.06964e-05
6.45091e-07
-6.78867e-07
7.98177e-05
-9.76745e-07
6.58855e-05
2.96949e-07
1.97971e-06
-1.10681e-06
7.28843e-05
-1.47647e-06
2.27994e-06
-1.01092e-06
8.88216e-05
2.38044e-06
-8.50294e-07
0.000101216
2.296e-06
-6.96854e-07
0.000109699
2.07006e-06
-5.91415e-07
0.000114099
1.74943e-06
-5.48561e-07
0.000114376
1.37525e-06
-5.79037e-07
0.000110538
9.86493e-07
-7.06308e-07
0.000102631
6.14057e-07
-9.37895e-07
9.08001e-05
-1.26581e-06
7.53575e-05
2.94536e-07
1.90729e-06
-1.27457e-06
7.96392e-05
-1.44697e-06
2.18389e-06
-1.21904e-06
9.64087e-05
2.26539e-06
-1.08686e-06
0.000109311
2.16702e-06
-9.53221e-07
0.000117991
1.93689e-06
-8.62029e-07
0.000122386
1.62382e-06
-8.28012e-07
0.000122635
1.26745e-06
-8.58972e-07
0.000118766
9.06357e-07
-9.83459e-07
0.000110658
5.67908e-07
-1.21317e-06
9.83298e-05
-1.54581e-06
8.20786e-05
2.80016e-07
1.81481e-06
-1.3868e-06
8.30755e-05
-1.38861e-06
2.07383e-06
-1.39539e-06
0.000100206
2.14791e-06
-1.31068e-06
0.000113316
2.04723e-06
-1.20974e-06
0.000122024
1.82174e-06
-1.13374e-06
0.000126285
1.52612e-06
-1.10409e-06
0.000126494
1.18759e-06
-1.13938e-06
0.000122751
8.48423e-07
-1.25717e-06
0.00011462
5.3902e-07
-1.47255e-06
0.000102089
-1.79089e-06
8.548e-05
2.78116e-07
1.71225e-06
-1.42685e-06
8.29032e-05
-1.31954e-06
1.96027e-06
-1.50986e-06
0.000100045
2.03844e-06
-1.4845e-06
0.000113169
1.95069e-06
-1.42349e-06
0.000121894
1.73996e-06
-1.36839e-06
0.000126176
1.45999e-06
-1.34586e-06
0.000126389
1.14359e-06
-1.38075e-06
0.000122623
8.29625e-07
-1.48584e-06
0.000114473
5.43556e-07
-1.67794e-06
0.000101919
-1.96401e-06
8.52837e-05
2.97872e-07
1.60214e-06
-1.38418e-06
7.91269e-05
-1.24055e-06
1.84224e-06
-1.53472e-06
9.59245e-05
1.93453e-06
-1.56522e-06
0.000108865
1.87343e-06
-1.54542e-06
0.000117584
1.69169e-06
-1.5159e-06
0.000122009
1.43623e-06
-1.50527e-06
0.000122261
1.14889e-06
-1.53737e-06
0.000118361
8.62887e-07
-1.62627e-06
0.000110205
5.95924e-07
-1.78839e-06
9.78158e-05
-2.02987e-06
8.14945e-05
3.53569e-07
1.48914e-06
-1.25821e-06
7.205e-05
-1.15569e-06
1.72171e-06
-1.4491e-06
8.80134e-05
1.83214e-06
-1.52028e-06
0.000100449
1.81028e-06
-1.53392e-06
0.000108975
1.67584e-06
-1.52831e-06
0.000113403
1.46556e-06
-1.52972e-06
0.000113682
1.21639e-06
-1.56038e-06
0.000109813
9.56958e-07
-1.63374e-06
0.000101848
6.99313e-07
-1.76632e-06
8.99368e-05
-1.94829e-06
7.44021e-05
4.35763e-07
1.38208e-06
-1.06281e-06
6.22886e-05
-1.07641e-06
1.60112e-06
-1.25114e-06
7.66572e-05
1.73157e-06
-1.34186e-06
8.8098e-05
1.7597e-06
-1.37735e-06
9.61238e-05
1.6899e-06
-1.38863e-06
0.000100377
1.54205e-06
-1.3988e-06
0.00010068
1.3429e-06
-1.42837e-06
9.70223e-05
1.11115e-06
-1.48823e-06
8.95597e-05
8.64019e-07
-1.60206e-06
7.86083e-05
-1.72768e-06
6.45992e-05
5.89945e-07
1.27774e-06
5.07422e-05
-8.01471e-07
-1.0181e-06
1.47624e-06
6.23342e-05
-9.51882e-07
1.63016e-06
7.21784e-05
-1.04634e-06
1.7173e-06
7.93742e-05
-1.09185e-06
1.72605e-06
8.32934e-05
-1.11165e-06
1.65578e-06
8.36181e-05
-1.12265e-06
1.51604e-06
8.03267e-05
-1.14592e-06
1.30335e-06
7.3692e-05
-1.17711e-06
1.03983e-06
6.4288e-05
-1.2678e-06
5.29565e-05
7.00075e-07
-1.32162e-06
1.17806e-06
1.14519e-07
5.15949e-05
-6.94603e-07
-1.42928e-07
1.58649e-06
-2.37159e-07
6.34044e-05
1.44775e-07
1.86152e-06
-4.58393e-07
7.34714e-05
3.13986e-07
1.955e-06
-5.91241e-07
8.08656e-05
4.35289e-07
1.87318e-06
-6.76717e-07
8.4961e-05
5.19022e-07
1.64444e-06
-7.61734e-07
8.54464e-05
5.97938e-07
1.31602e-06
-8.82306e-07
8.23032e-05
6.97365e-07
9.5177e-07
-1.06134e-06
7.57949e-05
8.2564e-07
6.102e-07
-1.30925e-06
6.64734e-05
1.00491e-06
-1.58272e-06
5.51544e-05
3.4493e-07
1.19458e-06
1.37181e-06
9.00878e-08
6.29268e-05
-8.69236e-07
1.79161e-06
-3.36129e-07
7.74589e-05
2.05895e-06
-5.90077e-07
8.90666e-05
2.15214e-06
-7.30024e-07
9.72465e-05
2.08341e-06
-8.17743e-07
0.000101644
1.88146e-06
-9.08202e-07
0.000102088
1.58195e-06
-1.04368e-06
9.85732e-05
1.22754e-06
-1.25228e-06
9.12518e-05
8.59779e-07
-1.54083e-06
8.04271e-05
-1.87805e-06
6.65198e-05
5.28876e-07
1.44136e-06
8.13672e-08
7.23962e-05
-9.4162e-07
1.84658e-06
-4.15771e-07
8.84999e-05
2.09829e-06
-6.99981e-07
0.000101079
2.18563e-06
-8.50585e-07
0.000109739
2.12726e-06
-9.44267e-07
0.000114292
1.95098e-06
-1.04202e-06
0.000114695
1.68518e-06
-1.18744e-06
0.000110957
1.35982e-06
-1.41385e-06
0.000103129
1.00834e-06
-1.72987e-06
9.1351e-05
-2.1144e-06
7.5939e-05
6.72181e-07
1.44009e-06
1.09453e-07
7.91477e-05
-9.71853e-07
1.81561e-06
-4.56346e-07
9.60785e-05
2.04785e-06
-7.76785e-07
0.000109162
2.12885e-06
-9.46399e-07
0.000118014
2.07946e-06
-1.05084e-06
0.00012255
1.92891e-06
-1.15716e-06
0.00012291
1.69882e-06
-1.30964e-06
0.000119128
1.40888e-06
-1.5447e-06
0.000111089
1.08458e-06
-1.8727e-06