/*--------------------------------*- C++ -*----------------------------------*\
| =========                 |                                                 |
| \\      /  F ield         | OpenFOAM: The Open Source CFD Toolbox           |
|  \\    /   O peration     | Version:  2406                                  |
|   \\  /    A nd           | Website:  www.openfoam.com                      |
|    \\/     M anipulation  |                                                 |
\*---------------------------------------------------------------------------*/
FoamFile
{
    version     2.0;
    format      ascii;
    arch        "LSB;label=32;scalar=64";
    class       volSymmTensorField;
    location    "0.7";
    object      turbulenceProperties:devReff;
}
// * * * * * * * * * * * * * * * * * * * * * * * * * * * * * * * * * * * * * //

dimensions      [0 2 -2 0 0 0 0];

internalField   nonuniform List<symmTensor> 
25000
(
(0.0299593 -0.022469 -0.071347 0.0299694 -0.071299 -0.0599287)
(0.0517825 -0.0117656 -0.0454189 0.032342 -0.064717 -0.0841245)
(0.0593719 -0.00646754 -0.0277572 0.0382155 -0.0555967 -0.0975875)
(0.0631011 -0.00296397 -0.0149521 0.0419214 -0.0492021 -0.105023)
(0.0647133 -0.000882648 -0.00475192 0.043712 -0.0460608 -0.108425)
(0.0647229 0.00086772 0.0046 0.0437156 -0.0460599 -0.108439)
(0.0631306 0.00294879 0.0148039 0.0419334 -0.0492 -0.105064)
(0.0594261 0.00645274 0.0276186 0.0382345 -0.0555935 -0.0976606)
(0.0518827 0.0117459 0.0452955 0.0323548 -0.0647128 -0.0842375)
(0.0300883 0.0224467 0.0712544 0.029978 -0.0712976 -0.0600663)
(0.0323411 -0.0117841 -0.0647582 0.0517858 -0.0453552 -0.084127)
(0.0534125 -0.00553542 -0.0365234 0.0534133 -0.0364703 -0.106826)
(0.0601086 -0.00302382 -0.0200763 0.0562981 -0.0303186 -0.116407)
(0.06301 -0.00135463 -0.010123 0.0578961 -0.0264727 -0.120906)
(0.0641518 -0.000380542 -0.0031293 0.0586126 -0.0246374 -0.122764)
(0.0641614 0.000366346 0.00298991 0.058614 -0.0246367 -0.122775)
(0.0630391 0.00134141 0.00998676 0.0579004 -0.0264709 -0.120939)
(0.0601618 0.00301086 0.0199485 0.056303 -0.0303161 -0.116465)
(0.0535082 0.0055162 0.03641 0.0534087 -0.0364678 -0.106917)
(0.0324614 0.0117514 0.0646708 0.0517848 -0.045355 -0.0842462)
(0.0382176 -0.00649596 -0.0556349 0.0593687 -0.0276843 -0.0975863)
(0.0562985 -0.00303659 -0.030366 0.0601075 -0.0200158 -0.116406)
(0.061915 -0.00160642 -0.0159095 0.0619162 -0.0158562 -0.123831)
(0.0639928 -0.000671588 -0.00764557 0.0629343 -0.0135546 -0.126927)
(0.0646648 -0.00017096 -0.00230572 0.0633704 -0.0125176 -0.128035)
(0.0646742 0.000167287 0.00217499 0.0633705 -0.0125166 -0.128045)
(0.0640217 0.000667315 0.00751756 0.0629343 -0.0135516 -0.126956)
(0.0619666 0.00160001 0.0157888 0.0619139 -0.0158517 -0.12388)
(0.0563864 0.00302256 0.0302588 0.0600961 -0.0200113 -0.116482)
(0.0383244 0.0064687 0.05555 0.0593633 -0.0276816 -0.0976877)
(0.0419225 -0.00299749 -0.0492407 0.0630926 -0.0148717 -0.105015)
(0.0578973 -0.00137512 -0.0265191 0.0630053 -0.0100557 -0.120903)
(0.0629333 -0.000679891 -0.0136054 0.063992 -0.0075869 -0.126925)
(0.0645588 -0.000244786 -0.00638173 0.0645599 -0.00632714 -0.129119)
(0.0649563 -4.84274e-05 -0.00190035 0.0647943 -0.00579385 -0.129751)
(0.0649652 5.43291e-05 0.00177584 0.0647939 -0.00579272 -0.129759)
(0.0645854 0.000248147 0.0062597 0.0645587 -0.0063238 -0.129144)
(0.0629803 0.000678198 0.0134896 0.0639883 -0.00758179 -0.126969)
(0.0579784 0.00136506 0.026415 0.0629921 -0.0100501 -0.12097)
(0.0420196 0.00297685 0.0491561 0.0630841 -0.0148669 -0.105104)
(0.0437114 -0.000916755 -0.0461007 0.0646955 -0.00466764 -0.108407)
(0.0586164 -0.000404273 -0.0246855 0.0641377 -0.00305763 -0.122754)
(0.063372 -0.000183628 -0.0125691 0.0646563 -0.00224299 -0.128028)
(0.0647944 -5.31618e-05 -0.00584775 0.064952 -0.00184264 -0.129746)
(0.0650676 -2.40762e-06 -0.00173491 0.0650644 -0.001679 -0.130132)
(0.065075 1.59497e-05 0.00161411 0.0650644 -0.00167793 -0.130139)
(0.0648172 6.24407e-05 0.00572904 0.0649518 -0.0018396 -0.129769)
(0.0634135 0.000185709 0.0124557 0.0646542 -0.00223843 -0.128068)
(0.0586903 0.000397002 0.0245822 0.0641261 -0.00305231 -0.122816)
(0.0438004 0.000899877 0.0460154 0.0646871 -0.004662 -0.108487)
(0.043712 0.0008358 -0.0461019 0.0646944 0.0046849 -0.108406)
(0.0586197 0.000342322 -0.0246879 0.0641357 0.00306332 -0.122755)
(0.0633753 0.000153635 -0.0125708 0.0646553 0.00223978 -0.128031)
(0.064796 4.84015e-05 -0.00584832 0.064953 0.00183525 -0.129749)
(0.0650671 1.4622e-05 -0.00173452 0.0650673 0.00167115 -0.130134)
(0.0650727 6.77693e-06 0.00161511 0.0650686 0.00167221 -0.130141)
(0.0648136 -3.25716e-05 0.00573042 0.0649566 0.00183819 -0.12977)
(0.0634089 -0.000147714 0.0124572 0.064659 0.00224394 -0.128068)
(0.0586854 -0.000347269 0.0245832 0.06413 0.00306815 -0.122815)
(0.0437934 -0.000849772 0.0460146 0.0646904 0.0046908 -0.108484)
(0.0419232 0.00292013 -0.0492442 0.0630922 0.014886 -0.105015)
(0.0579053 0.00131934 -0.0265257 0.0630031 0.010059 -0.120908)
(0.0629398 0.000655822 -0.0136099 0.063994 0.0075823 -0.126934)
(0.0645605 0.000244089 -0.0063829 0.0645675 0.00631948 -0.129128)
(0.0649522 6.26667e-05 -0.00189887 0.0648068 0.00578644 -0.129759)
(0.0649556 -3.14837e-05 0.00177894 0.0648098 0.00578773 -0.129765)
(0.0645721 -0.000219769 0.00626376 0.0645763 0.006323 -0.129148)
(0.0629646 -0.00064334 0.0134939 0.0640058 0.00758731 -0.12697)
(0.0579619 -0.00132028 0.0264175 0.063007 0.0100649 -0.120969)
(0.0419986 -0.00293096 0.0491536 0.0630963 0.0148933 -0.105095)
(0.0382175 0.00642673 -0.0556398 0.0593748 0.0276935 -0.0975923)
(0.0563056 0.00299335 -0.0303746 0.0601147 0.0200154 -0.11642)
(0.0619173 0.00159302 -0.0159145 0.0619317 0.0158504 -0.123849)
(0.0639869 0.000677282 -0.00764577 0.0629585 0.0135479 -0.126945)
(0.0646501 0.00018705 -0.00230241 0.0634013 0.0125124 -0.128051)
(0.064652 -0.000145627 0.00218026 0.0634057 0.0125141 -0.128058)
(0.0639934 -0.000641803 0.00752383 0.0629719 0.0135529 -0.126965)
(0.0619333 -0.00157019 0.0157949 0.0619524 0.0158582 -0.123886)
(0.0563517 -0.00298649 0.0302615 0.0601318 0.0200249 -0.116484)
(0.0382863 -0.00643468 0.055545 0.0593924 0.0277042 -0.0976787)
(0.0323405 0.0117316 -0.0647625 0.051805 0.0453569 -0.0841456)
(0.0534099 0.00550932 -0.0365296 0.0534452 0.0364652 -0.106855)
(0.0600933 0.00302196 -0.0200783 0.0563446 0.0303117 -0.116438)
(0.0629847 0.00136465 -0.01012 0.0579512 0.0264673 -0.120936)
(0.0641175 0.000395649 -0.00312341 0.0586729 0.0246347 -0.12279)
(0.0641195 -0.000348338 0.00299702 0.0586772 0.0246371 -0.122797)
(0.0629908 -0.00132025 0.00999415 0.0579648 0.0264745 -0.120956)
(0.0601058 -0.00298511 0.0199548 0.0563689 0.0303236 -0.116475)
(0.0534448 -0.00548566 0.0364111 0.053477 0.0364807 -0.106922)
(0.0323945 -0.0117257 0.0646608 0.0518462 0.045374 -0.0842407)
(0.029961 0.0224609 -0.0713481 0.0299892 0.0712913 -0.0599503)
(0.0517747 0.0117658 -0.0454187 0.0323833 0.0647066 -0.084158)
(0.0593461 0.00647865 -0.0277532 0.0382723 0.0555879 -0.0976183)
(0.0630669 0.0029766 -0.0149445 0.0419821 0.0491959 -0.105049)
(0.0646723 0.000894874 -0.00474313 0.0437741 0.0460573 -0.108446)
(0.0646759 -0.000855662 0.00460852 0.0437791 0.0460593 -0.108455)
(0.0630779 -0.00293485 0.0148116 0.0419974 0.0492023 -0.105075)
(0.0593649 -0.00643115 0.0276246 0.0383005 0.0555989 -0.0976654)
(0.0518073 -0.0117206 0.0452963 0.0324285 0.0647235 -0.0842358)
(0.030007 -0.0224382 0.0712435 0.0300452 0.0713132 -0.0600522)
(-0.000467882 -0.0176265 -0.109697 -0.000341412 -0.109587 0.000809294)
(0.0129683 -0.0158609 -0.0756998 0.000866327 -0.107547 -0.0138346)
(0.0225551 -0.0121364 -0.0480203 0.00293654 -0.0955168 -0.0254916)
(0.0298778 -0.00755213 -0.0262757 0.00449012 -0.0855182 -0.0343679)
(0.0336211 -0.00249009 -0.00843184 0.00534011 -0.0801768 -0.0389612)
(0.0336599 0.00261161 0.00804611 0.00536852 -0.0801629 -0.0390284)
(0.0299984 0.00766373 0.0258953 0.00457483 -0.0854771 -0.0345732)
(0.0227666 0.0122245 0.0476549 0.00306855 -0.0954496 -0.0258352)
(0.013309 0.0159082 0.075361 0.00101771 -0.107464 -0.0143268)
(-5.61099e-05 0.0176163 0.109422 -0.00017205 -0.109514 0.00022816)
(0.000757262 -0.0159033 -0.107636 0.0130837 -0.0755545 -0.013841)
(0.0167467 -0.0143031 -0.0640787 0.0168647 -0.0639546 -0.0336114)
(0.0287472 -0.0106794 -0.0350325 0.0201427 -0.052883 -0.0488899)
(0.036657 -0.00645534 -0.0170995 0.0222162 -0.0446487 -0.0588732)
(0.0403103 -0.00211768 -0.00517701 0.0232286 -0.0403438 -0.0635389)
(0.0403458 0.002206 0.00484857 0.0232444 -0.0403321 -0.0635902)
(0.0367699 0.00654007 0.0167732 0.0222641 -0.0446143 -0.059034)
(0.0289535 0.010752 0.0347141 0.0202202 -0.0528283 -0.0491737)
(0.017078 0.0143462 0.0637806 0.0169535 -0.0638859 -0.0340315)
(0.00113933 0.0158922 0.107391 0.0132089 -0.0754806 -0.0143482)
(0.0028313 -0.0122116 -0.0955996 0.0226288 -0.0478517 -0.0254601)
(0.0200297 -0.0107188 -0.0529954 0.0288371 -0.0348889 -0.0488668)
(0.0326644 -0.00764478 -0.0259661 0.0327583 -0.0258395 -0.0654227)
(0.0400015 -0.00447204 -0.0112442 0.0347781 -0.0199814 -0.0747796)
(0.0432008 -0.00144654 -0.00315693 0.0357131 -0.0171079 -0.078914)
(0.0432332 0.00152202 0.0028786 0.0357187 -0.0170989 -0.0789519)
(0.0401049 0.00454392 0.0109659 0.0347951 -0.0199548 -0.0749)
(0.0328568 0.00770553 0.0256903 0.0327883 -0.025796 -0.0656451)
(0.0203411 0.010755 0.0527349 0.028879 -0.0348325 -0.0492202)
(0.00318993 0.0122027 0.0953889 0.022716 -0.0477876 -0.0259059)
(0.00437204 -0.00764392 -0.0856077 0.0299171 -0.0260852 -0.0342891)
(0.0221056 -0.00652069 -0.0447603 0.0367135 -0.0169396 -0.0588191)
(0.0346883 -0.00450257 -0.0201004 0.0400664 -0.0111067 -0.0747547)
(0.0416558 -0.00258971 -0.00774381 0.0417193 -0.00761868 -0.0833751)
(0.0446686 -0.000830565 -0.00197396 0.0425264 -0.0059545 -0.087195)
(0.044699 0.000891295 0.00173172 0.0425267 -0.00594748 -0.0872257)
(0.0417513 0.00264621 0.00750048 0.0417204 -0.00759843 -0.0834717)
(0.0348637 0.00454836 0.0198577 0.0400705 -0.0110744 -0.0749341)
(0.0223912 0.00654828 0.0445272 0.0367257 -0.0168972 -0.0591169)
(0.00470895 0.00764391 0.0854184 0.0299734 -0.0260375 -0.0346823)
(0.00519809 -0.00258199 -0.0802783 0.0336181 -0.00822503 -0.0388162)
(0.0231167 -0.00219438 -0.0404624 0.040325 -0.00500352 -0.0634417)
(0.0356299 -0.00149585 -0.017228 0.0432283 -0.0030088 -0.0788582)
(0.0424693 -0.000852691 -0.00607682 0.0446993 -0.00184132 -0.0871685)
(0.0454261 -0.000265465 -0.0014138 0.0454543 -0.00128737 -0.0908804)
(0.045454 0.000310101 0.00119219 0.0454536 -0.00128264 -0.0909076)
(0.0425567 0.000892362 0.00585298 0.0446969 -0.00182754 -0.0872536)
(0.0357904 0.00152636 0.017004 0.0432255 -0.00298681 -0.0790159)
(0.0233809 0.00221372 0.0402452 0.0403262 -0.00497488 -0.063707)
(0.00551758 0.00259133 0.0801004 0.0336581 -0.00819378 -0.0391756)
(0.00519731 0.0025268 -0.0802798 0.0336085 0.00826493 -0.0388059)
(0.0231251 0.00212635 -0.0404636 0.0403131 0.00503384 -0.0634382)
(0.0356392 0.00146277 -0.0172273 0.0432184 0.00303716 -0.0788576)
(0.0424755 0.000854852 -0.0060749 0.0446933 0.00187303 -0.0871688)
(0.0454285 0.000294033 -0.00141119 0.0454518 0.00132484 -0.0908803)
(0.0454531 -0.000262422 0.00119533 0.0454531 0.00132715 -0.0909062)
(0.0425534 -0.00082889 0.00585659 0.0446968 0.00188035 -0.0872502)
(0.0357848 -0.00144576 0.017008 0.0432243 0.00304961 -0.0790091)
(0.0233719 -0.00211598 0.0402501 0.0403222 0.00504968 -0.0636941)
(0.00550111 -0.00251268 0.0801048 0.0336511 0.00828092 -0.0391522)
(0.00437089 0.00759346 -0.0856111 0.0298917 0.0261211 -0.0342626)
(0.022129 0.00646467 -0.0447628 0.0366828 0.0169679 -0.0588118)
(0.0347124 0.00448277 -0.0200975 0.0400428 0.0111341 -0.0747552)
(0.0416701 0.00260226 -0.00773738 0.0417075 0.0076503 -0.0833776)
(0.0446717 0.000865123 -0.00196548 0.0425242 0.00599264 -0.0871958)
(0.0446926 -0.000841871 0.00174155 0.0425297 0.00599311 -0.0872223)
(0.0417377 -0.00258497 0.00751151 0.0417238 0.00765246 -0.0834615)
(0.0348434 -0.00447373 0.0198704 0.0400699 0.0111384 -0.0749134)
(0.0223622 -0.00646007 0.044542 0.0367163 0.0169727 -0.0590785)
(0.00466129 -0.00757422 0.0854317 0.0299535 0.0261244 -0.0346148)
(0.00283556 0.0121738 -0.0956013 0.022596 0.0478802 -0.0254315)
(0.0200634 0.0106886 -0.0529959 0.0288022 0.0349145 -0.0488655)
(0.0326917 0.00765042 -0.0259589 0.0327384 0.0258669 -0.0654301)
(0.0400114 0.00450273 -0.0112315 0.034776 0.0200149 -0.0747874)
(0.0431934 0.00149 -0.00314126 0.0357237 0.0171491 -0.0789171)
(0.0432119 -0.0014717 0.00289624 0.0357346 0.0171482 -0.0789464)
(0.0400723 -0.00448787 0.0109854 0.0348096 0.0200128 -0.0748819)
(0.0328124 -0.00764191 0.0257124 0.0327959 0.0258637 -0.0656083)
(0.0202845 -0.0106851 0.0527596 0.0288731 0.0349102 -0.0491576)
(0.00311324 -0.0121552 0.0954115 0.0226908 0.0478739 -0.0258041)
(0.000773579 0.0158931 -0.10763 0.0130549 0.0755742 -0.0138285)
(0.0167797 0.0143089 -0.064072 0.0168521 0.0639782 -0.0336319)
(0.0287571 0.0107142 -0.0350178 0.0201566 0.0529133 -0.0489137)
(0.036643 0.00650351 -0.0170789 0.0222469 0.0446881 -0.0588899)
(0.0402767 0.00216756 -0.0051529 0.0232671 0.0403927 -0.0635438)
(0.0402974 -0.00215747 0.00487518 0.0232823 0.0403899 -0.0635797)
(0.0367087 -0.00649128 0.0168023 0.0222948 0.0446805 -0.0590034)
(0.0288778 -0.0106997 0.0347462 0.0202389 0.0529025 -0.0491166)
(0.016986 -0.014293 0.0638148 0.0169591 0.0639671 -0.033945)
(0.00103005 -0.0158631 0.107422 0.0131878 0.0755659 -0.0142179)
(-0.000431252 0.0176786 -0.109676 -0.000382278 0.109592 0.00081353)
(0.0130108 0.0159122 -0.0756796 0.000846601 0.107564 -0.0138574)
(0.0225628 0.0121967 -0.0479951 0.00294181 0.0955474 -0.0255046)
(0.029861 0.0076106 -0.0262462 0.00450236 0.0855613 -0.0343634)
(0.0335849 0.00254216 -0.0083993 0.00535134 0.0802303 -0.0389363)
(0.0336082 -0.00256631 0.00808155 0.00537535 0.0802248 -0.0389835)
(0.0299331 -0.00762344 0.0259338 0.00457345 0.0855458 -0.0345065)
(0.0226855 -0.0121827 0.047696 0.00305671 0.0955235 -0.0257422)
(0.0132066 -0.0158743 0.0754017 0.000998331 0.107541 -0.014205)
(-0.000174898 -0.0176229 0.109454 -0.000218665 0.109587 0.000393562)
(-0.00845785 -0.0156766 -0.149805 -0.00833225 -0.149539 0.0167901)
(0.00140182 -0.0119314 -0.116763 -0.0094403 -0.160039 0.00803848)
(0.00732925 -0.00901888 -0.0812354 -0.00853748 -0.154346 0.00120823)
(0.0120313 -0.00559157 -0.0476595 -0.00776625 -0.147464 -0.00426503)
(0.0146419 -0.00180231 -0.0159761 -0.00730532 -0.143446 -0.00733656)
(0.0147138 0.00207438 0.0149477 -0.00722774 -0.143374 -0.00748611)
(0.0122486 0.00583382 0.046624 -0.0075365 -0.147247 -0.00471207)
(0.00769321 0.00919201 0.080196 -0.00817543 -0.153988 0.000482214)
(0.00198689 0.0120058 0.115737 -0.0089991 -0.15958 0.00701221)
(-0.00771523 0.0156085 0.148896 -0.00785807 -0.149097 0.0155733)
(-0.00953328 -0.0120151 -0.160237 0.00150161 -0.116398 0.00803167)
(0.0019638 -0.0097663 -0.112243 0.00208906 -0.111945 -0.00405286)
(0.00978074 -0.00754766 -0.0718538 0.0039454 -0.104244 -0.0137261)
(0.015802 -0.00470253 -0.0400481 0.00537207 -0.0977118 -0.0211741)
(0.0190522 -0.0015126 -0.013095 0.00617901 -0.0941266 -0.0252312)
(0.019125 0.00177388 0.0122764 0.00623331 -0.0940746 -0.0253583)
(0.0160189 0.0049399 0.0392172 0.00553334 -0.0975546 -0.0215522)
(0.0101418 0.00773348 0.0710011 0.00420249 -0.103981 -0.0143443)
(0.00252154 0.00986655 0.111366 0.00240684 -0.111588 -0.00492838)
(-0.00887837 0.0119701 0.159409 0.00190792 -0.115987 0.00697045)
(-0.00866991 -0.00917367 -0.154524 0.00737725 -0.0807913 0.00129267)
(0.00378657 -0.00762302 -0.104512 0.00987879 -0.0714922 -0.0136654)
(0.012966 -0.00577139 -0.0647759 0.0131076 -0.0644562 -0.0260736)
(0.0198999 -0.00353226 -0.0350866 0.0154744 -0.0596085 -0.0353743)
(0.023565 -0.00111382 -0.011274 0.0167419 -0.0570825 -0.0403068)
(0.023637 0.00135885 0.0105895 0.0167794 -0.0570498 -0.0404164)
(0.0201182 0.00375377 0.0343908 0.0155859 -0.0595085 -0.0357041)
(0.0133316 0.00594378 0.0640613 0.0132872 -0.0642843 -0.0266188)
(0.00432973 0.00771462 0.103775 0.0101069 -0.0712456 -0.0144366)
(-0.00803806 0.00912953 0.153826 0.00770269 -0.0804772 0.000335368)
(-0.00796742 -0.00579473 -0.147671 0.0120456 -0.0471334 -0.00407819)
(0.00517034 -0.00483454 -0.0979854 0.0158642 -0.0396268 -0.0210345)
(0.0152945 -0.00359446 -0.0599172 0.0200036 -0.0347216 -0.0352981)
(0.0227901 -0.00216421 -0.0319459 0.0229255 -0.0316064 -0.0457156)
(0.0266324 -0.000661128 -0.0101432 0.0243625 -0.0300153 -0.0509949)
(0.0267023 0.000863405 0.00954146 0.0243848 -0.0299967 -0.051087)
(0.0230038 0.00234535 0.0313347 0.0229962 -0.0315492 -0.046)
(0.0156565 0.00373099 0.0592933 0.0201237 -0.0346221 -0.0357802)
(0.00569668 0.00490073 0.0973483 0.0160234 -0.0394799 -0.02172)
(-0.00735024 0.00575165 0.14707 0.0122902 -0.04694 -0.00493995)
(-0.00758897 -0.00201288 -0.143706 0.0145907 -0.0153756 -0.00700169)
(0.0059322 -0.00167301 -0.0944314 0.0190428 -0.0126169 -0.024975)
(0.0165307 -0.00121731 -0.057403 0.023597 -0.0108676 -0.0401278)
(0.0242071 -0.000709378 -0.0303511 0.0266969 -0.00977605 -0.050904)
(0.0280192 -0.000189189 -0.00957672 0.0281028 -0.00922609 -0.056122)
(0.0280832 0.000331974 0.00901935 0.0281172 -0.00921874 -0.0562004)
(0.0244086 0.000835537 0.0297859 0.0267468 -0.00975272 -0.0511554)
(0.0168799 0.00130964 0.0568292 0.0236881 -0.0108271 -0.0405679)
(0.0064386 0.00171345 0.0938522 0.0191678 -0.0125578 -0.0256064)
(-0.00698363 0.00198405 0.143166 0.0147876 -0.0152991 -0.007804)
(-0.00759703 0.0018769 -0.143708 0.0145721 0.015616 -0.00697502)
(0.00593769 0.0016051 -0.0944319 0.0190194 0.0128089 -0.0249571)
(0.016539 0.00123304 -0.0574014 0.0235739 0.0110358 -0.0401129)
(0.0242131 0.000782441 -0.030348 0.0266767 0.00993531 -0.0508898)
(0.0280209 0.000293767 -0.00957247 0.0280861 0.00938503 -0.056107)
(0.0280806 -0.000213134 0.00902519 0.0281019 0.00938409 -0.0561825)
(0.0244009 -0.000712538 0.0297949 0.0267303 0.00993115 -0.0511313)
(0.0168674 -0.00118643 0.0568427 0.023669 0.0110264 -0.0405364)
(0.00642168 -0.00159177 0.0938718 0.0191453 0.0127909 -0.025567)
(-0.00700689 -0.00189389 0.14319 0.0147607 0.0155865 -0.00775385)
(-0.00799148 0.00566826 -0.147672 0.0119964 0.0473502 -0.00400496)
(0.00518465 0.00477867 -0.0979846 0.0158034 0.039802 -0.020988)
(0.0153138 0.00362153 -0.0599112 0.019945 0.0348766 -0.0352587)
(0.0228025 0.00224516 -0.0319357 0.0228739 0.0317556 -0.0456764)
(0.0266325 0.00076932 -0.0101292 0.024318 0.0301674 -0.0509505)
(0.0266887 -0.000745434 0.0095611 0.0243431 0.0301585 -0.0510317)
(0.0229774 -0.00222707 0.0313636 0.0229507 0.0317269 -0.0459281)
(0.015618 -0.00361507 0.0593356 0.020071 0.0348233 -0.035689)
(0.00564574 -0.00478808 0.0974087 0.0159611 0.0397168 -0.0216068)
(-0.00741739 -0.00566962 0.147145 0.0122126 0.047231 -0.0047952)
(-0.0087083 0.00906942 -0.154515 0.00731509 0.0809634 0.00139321)
(0.00380029 0.00758942 -0.104502 0.00980651 0.0716362 -0.0136068)
(0.0129838 0.00581487 -0.0647603 0.0130409 0.0645877 -0.0260247)
(0.0199069 0.00362098 -0.0350648 0.0154152 0.0597404 -0.0353221)
(0.0235529 0.0012214 -0.0112455 0.0166881 0.0572237 -0.040241)
(0.0236053 -0.0012478 0.0106285 0.0167248 0.0572065 -0.0403301)
(0.0200675 -0.00364634 0.0344453 0.0155244 0.0596866 -0.0355919)
(0.0132624 -0.00584134 0.0641371 0.013215 0.064491 -0.0264774)
(0.00424199 -0.00761937 0.103879 0.0100202 0.071491 -0.0142622)
(-0.00814474 -0.00906947 0.153953 0.00758771 0.0807732 0.000557028)
(-0.0095847 0.011947 -0.160195 0.00144518 0.116513 0.00813953)
(0.00196092 0.00975419 -0.112208 0.00204302 0.112047 -0.00400393)
(0.00977476 0.00759791 -0.0718166 0.00391144 0.104346 -0.0136862)
(0.0157865 0.0047849 -0.0400047 0.00533957 0.0978244 -0.0211261)
(0.0190178 0.0016058 -0.013042 0.00614261 0.0942578 -0.0251604)
(0.0190694 -0.00168059 0.0123442 0.00618701 0.0942298 -0.0252564)
(0.0159425 -0.00485033 0.0393059 0.00547179 0.0977386 -0.0214143)
(0.010042 -0.00764697 0.0711166 0.00412312 0.104199 -0.0141651)
(0.00239173 -0.00978755 0.111514 0.00231229 0.111846 -0.00470402)
(-0.00902851 -0.0119269 0.159579 0.00177444 0.116282 0.00725407)
(-0.00851522 0.0156948 -0.14971 -0.00839958 0.149576 0.0169148)
(0.00138675 0.0119521 -0.116682 -0.00948236 0.160071 0.00809561)
(0.00731444 0.00906824 -0.0811563 -0.0085721 0.154393 0.00125766)
(0.0120143 0.00565499 -0.0475754 -0.00780982 0.147539 -0.00420445)
(0.0146096 0.00187041 -0.0158826 -0.00736189 0.143553 -0.00724767)
(0.01466 -0.00200604 0.0150575 -0.00729958 0.143514 -0.00736042)
(0.0121707 -0.00576791 0.0467561 -0.00762736 0.147423 -0.00454337)
(0.00758673 -0.00912414 0.0803534 -0.00828684 0.154201 0.000700106)
(0.00183938 -0.0119496 0.115916 -0.009123 0.159827 0.00728361)
(-0.00789042 -0.0156039 0.149073 -0.00802034 0.149351 0.0159108)
(-0.00245173 -0.00439088 -0.155029 -0.0023105 -0.154463 0.00476223)
(-3.58993e-05 -0.00469946 -0.125607 -0.00311682 -0.170254 0.00315272)
(0.00267722 -0.00399908 -0.0904968 -0.00348896 -0.169003 0.000811741)
(0.00502402 -0.0025718 -0.0546251 -0.00362 -0.165147 -0.00140402)
(0.0063999 -0.000741335 -0.0188637 -0.0035859 -0.162603 -0.002814)
(0.0064956 0.00120044 0.0167632 -0.00345815 -0.162459 -0.00303745)
(0.00531708 0.00298186 0.0525287 -0.00324277 -0.164715 -0.00207431)
(0.00317409 0.00428319 0.0884194 -0.00289669 -0.168299 -0.000277398)
(0.000783662 0.00481524 0.123587 -0.00238341 -0.169361 0.00159975)
(-0.00137773 0.00426608 0.153276 -0.00156027 -0.153609 0.002938)
(-0.00318014 -0.00488459 -0.170706 9.05964e-06 -0.124827 0.00317108)
(3.48863e-05 -0.00509249 -0.126301 0.000172194 -0.12564 -0.00020708)
(0.00399657 -0.00419258 -0.0852158 0.00045935 -0.121713 -0.00445592)
(0.00727897 -0.00266139 -0.0495062 0.000858126 -0.117493 -0.00813709)
(0.00913502 -0.00079882 -0.016757 0.00119285 -0.114991 -0.0103279)
(0.00923568 0.00114885 0.0150483 0.00129308 -0.114883 -0.0105288)
(0.00758148 0.00296846 0.047784 0.00115354 -0.117169 -0.00873502)
(0.00450369 0.00441032 0.0834639 0.000928391 -0.121177 -0.00543209)
(0.000822062 0.00517764 0.124517 0.00076877 -0.124929 -0.00159083)
(-0.00227765 0.00475726 0.169028 0.000759623 -0.124021 0.00151802)
(-0.00367112 -0.00436803 -0.169421 0.00259439 -0.089532 0.00107673)
(0.000219876 -0.00436931 -0.122315 0.00406218 -0.0844108 -0.00428206)
(0.00512645 -0.00344451 -0.0808112 0.00530703 -0.0800942 -0.0104335)
(0.00912349 -0.00211235 -0.0461625 0.00642771 -0.0768901 -0.0155512)
(0.0113652 -0.000619956 -0.0154663 0.00717612 -0.0751961 -0.0185414)
(0.0114684 0.000886588 0.0140176 0.00726382 -0.0751309 -0.0187322)
(0.00943559 0.0023333 0.0447024 0.00667987 -0.0766863 -0.0161155)
(0.00565284 0.00358093 0.0793117 0.00570753 -0.0797436 -0.0113604)
(0.00100979 0.00438175 0.120767 0.00458376 -0.0839191 -0.00559354)
(-0.00277192 0.0041792 0.167945 0.00331138 -0.0889198 -0.000539457)
(-0.00399467 -0.00306051 -0.165627 0.00491045 -0.0534636 -0.000915783)
(0.000488096 -0.00296882 -0.118112 0.00730163 -0.0485628 -0.00778973)
(0.00612752 -0.00225561 -0.0775849 0.00924728 -0.045346 -0.0153748)
(0.0107292 -0.00131092 -0.0441728 0.0109445 -0.0434141 -0.0216737)
(0.0133989 -0.000360709 -0.0148188 0.0120715 -0.0425791 -0.0254703)
(0.0135149 0.000530355 0.0135211 0.0121434 -0.0425498 -0.0256583)
(0.0110668 0.00143389 0.0428816 0.0111437 -0.04331 -0.0222106)
(0.00668907 0.0023019 0.0762566 0.00955985 -0.0451542 -0.0162489)
(0.00130206 0.00290686 0.116738 0.00772108 -0.0482831 -0.00902314)
(-0.0030528 0.00283138 0.164311 0.00551865 -0.0531056 -0.00246584)
(-0.00418343 -0.00125013 -0.163204 0.00621539 -0.0175195 -0.00203197)
(0.000683249 -0.00117472 -0.115683 0.00906438 -0.0156801 -0.00974763)
(0.00676498 -0.00086052 -0.0759189 0.011384 -0.0145536 -0.0181489)
(0.0117745 -0.00047665 -0.0433265 0.013487 -0.013989 -0.0252615)
(0.0149093 -0.000127148 -0.0147321 0.0150633 -0.0139286 -0.0299726)
(0.0150402 0.000180647 0.0135018 0.0151344 -0.0139287 -0.0301746)
(0.012132 0.000496182 0.0421275 0.01366 -0.0139624 -0.0257921)
(0.00735294 0.000823456 0.0746846 0.0116449 -0.0144976 -0.0189978)
(0.00152449 0.00105865 0.114409 0.009421 -0.0156003 -0.0109455)
(-0.00318075 0.00103305 0.161985 0.00674322 -0.0174252 -0.00356247)
(-0.00427317 0.000714259 -0.163229 0.00619083 0.0182707 -0.00191766)
(0.000647026 0.000747126 -0.115696 0.00902454 0.0162495 -0.00967156)
(0.00675256 0.000591552 -0.075922 0.0113384 0.0150146 -0.018091)
(0.0117741 0.000335682 -0.0433216 0.0134379 0.0143948 -0.025212)
(0.0149099 8.16242e-05 -0.0147191 0.0150112 0.0143145 -0.0299211)
(0.015039 -0.000151917 0.0135136 0.0150818 0.014314 -0.0301208)
(0.0121293 -0.000415559 0.0421473 0.0136095 0.0143668 -0.0257388)
(0.00734389 -0.000703191 0.0747146 0.0115949 0.0149512 -0.0189388)
(0.00150574 -0.000907914 0.114451 0.00936987 0.0161431 -0.0108756)
(-0.00321798 -0.000911699 0.162038 0.00669114 0.0181111 -0.00347316)
(-0.00425944 0.00256234 -0.165697 0.00483465 0.0541721 -0.000575209)
(0.000377074 0.00257474 -0.118149 0.00718794 0.0491006 -0.00756502)
(0.00608511 0.00201672 -0.0775937 0.00912028 0.0457791 -0.0152054)
(0.0107242 0.00119494 -0.0441602 0.0108102 0.0437919 -0.0215344)
(0.0134048 0.000329623 -0.0147873 0.0119344 0.042935 -0.0253392)
(0.0135175 -0.000502047 0.0135669 0.0120051 0.0429095 -0.0255225)
(0.0110595 -0.00136237 0.0429476 0.0110036 0.0436991 -0.022063)
(0.00666256 -0.00219281 0.0763503 0.00941713 0.0456004 -0.0160797)
(0.00124651 -0.00276864 0.116867 0.00757402 0.0488216 -0.00882053)
(-0.00315998 -0.0027228 0.164472 0.00536587 0.0537833 -0.00220589)
(-0.0040896 0.00396656 -0.169522 0.00246343 0.0901619 0.00162617)
(2.65291e-05 0.00404864 -0.122365 0.00389271 0.0848931 -0.00391924)
(0.00503637 0.00326269 -0.0808197 0.00512331 0.080481 -0.0101597)
(0.0090955 0.00203513 -0.046137 0.00623454 0.0772293 -0.01533)
(0.0113617 0.000608595 -0.0154097 0.00697776 0.0755229 -0.0183395)
(0.0114649 -0.000856704 0.014105 0.00706114 0.0754705 -0.0185261)
(0.00941544 -0.00227264 0.0448242 0.00647195 0.0770621 -0.0158874)
(0.00560185 -0.00349048 0.0794753 0.00549339 0.0801825 -0.0110952)
(0.000915655 -0.0042695 0.120984 0.00436112 0.0844514 -0.00527678)
(-0.00293871 -0.00410516 0.168208 0.00307369 0.0895782 -0.000134984)
(-0.00371054 0.00465311 -0.170796 -0.00024165 0.125367 0.00395219)
(-0.000246533 0.00488744 -0.126342 -6.64244e-05 0.126055 0.000312957)
(0.00383499 0.00409015 -0.0852088 0.000230554 0.122039 -0.00406555)
(0.00720002 0.00263263 -0.0494531 0.00063035 0.117779 -0.00783037)
(0.00909521 0.000810135 -0.0166596 0.000962083 0.115274 -0.0100573)
(0.00920267 -0.00111493 0.0151902 0.00105661 0.115192 -0.0102593)
(0.0075327 -0.00291782 0.0479722 0.000906921 0.117527 -0.00843962)
(0.00441899 -0.00434048 0.0837027 0.000667189 0.121606 -0.00508618)
(0.000682956 -0.00509704 0.124812 0.000492947 0.125451 -0.0011759)
(-0.00249743 -0.00472528 0.169366 0.000449982 0.124641 0.00204745)
(-0.00303957 0.00443313 -0.155059 -0.00270055 0.154879 0.00574012)
(-0.000429463 0.00469075 -0.125618 -0.00342211 0.170553 0.00385157)
(0.00242934 0.00403711 -0.0904558 -0.00379216 0.169219 0.00136282)
(0.00489771 0.00263378 -0.0545222 -0.0039359 0.165337 -0.000961802)
(0.00634048 0.000801079 -0.0187039 -0.00391214 0.162804 -0.00242834)
(0.00645696 -0.00114736 0.0169775 -0.00378849 0.162698 -0.00266847)
(0.0052633 -0.00293829 0.0527947 -0.0035768 0.165015 -0.0016865)
(0.00307633 -0.0042408 0.0887337 -0.00323776 0.168676 0.000161437)
(0.000620022 -0.0047905 0.123935 -0.00273037 0.169824 0.00211035)
(-0.00162625 -0.00432996 0.153608 -0.00194375 0.154117 0.00357)
(-0.00237683 -0.00347658 -0.160193 -0.00198658 -0.159179 0.00436341)
(-0.000428937 -0.00275276 -0.132315 -0.00267864 -0.17803 0.00310758)
(0.000892512 -0.00211506 -0.0970182 -0.00270953 -0.179198 0.00181702)
(0.00198412 -0.0012553 -0.0595315 -0.00262369 -0.177021 0.000639567)
(0.0026869 -0.000309313 -0.0211332 -0.00247125 -0.175307 -0.000215647)
(0.00283283 0.000649459 0.0175191 -0.00230241 -0.175085 -0.000530427)
(0.00243331 0.00152225 0.0559547 -0.002131 -0.176358 -0.000302312)
(0.00165709 0.00220081 0.093526 -0.00195746 -0.178126 0.000300376)
(0.000852183 0.00264399 0.129008 -0.00179941 -0.176679 0.000947228)
(-0.000620216 0.00310117 0.15747 -0.00123973 -0.157917 0.00185995)
(-0.00281124 -0.00300706 -0.178961 -0.000376014 -0.130883 0.00318725)
(-0.00068796 -0.00260718 -0.135935 -0.000551692 -0.134631 0.00123965)
(0.00111786 -0.00207074 -0.0941063 -0.000320826 -0.132964 -0.000797038)
(0.00267685 -0.00124888 -0.0559193 -3.37468e-05 -0.130235 -0.0026431)
(0.00363646 -0.000306931 -0.0194905 0.000230333 -0.128437 -0.0038668)
(0.00378743 0.000633698 0.0164387 0.000370664 -0.128261 -0.00415809)
(0.00313245 0.00149922 0.0528629 0.000375456 -0.129703 -0.00350791)
(0.00188261 0.00217764 0.0910307 0.000318431 -0.132094 -0.00220104)
(0.000516085 0.0025331 0.132865 0.000226354 -0.133493 -0.000742439)
(-0.00133847 0.00266399 0.176165 0.000495343 -0.129633 0.000843132)
(-0.00299787 -0.00263614 -0.180155 0.000622279 -0.09523 0.00237559)
(-0.00062198 -0.00233272 -0.134228 0.00106829 -0.0925325 -0.000446311)
(0.00163768 -0.00179371 -0.0914867 0.00178626 -0.0900265 -0.00342395)
(0.00359505 -0.00103005 -0.0536742 0.0024603 -0.0879219 -0.00605536)
(0.00476265 -0.000233061 -0.0185394 0.00296628 -0.0866906 -0.00772894)
(0.00491495 0.000507026 0.0158781 0.00310065 -0.0865797 -0.0080156)
(0.00406135 0.00121922 0.0510009 0.00284036 -0.0875739 -0.0069017)
(0.00242792 0.00184189 0.0887473 0.00238596 -0.0894405 -0.00481388)
(0.000580968 0.00219974 0.131424 0.00182691 -0.091728 -0.00240787)
(-0.00155032 0.00224012 0.177517 0.0015844 -0.0942598 -3.4071e-05)
(-0.00321845 -0.00199657 -0.178141 0.001626 -0.0573587 0.00159245)
(-0.000577269 -0.00173708 -0.131574 0.00255051 -0.05408 -0.00197324)
(0.00207465 -0.00127159 -0.0893705 0.00365009 -0.0520383 -0.00572474)
(0.00439278 -0.00065679 -0.0523075 0.00463073 -0.0507713 -0.00902351)
(0.00582278 -0.000121525 -0.0181354 0.00534757 -0.0501262 -0.0111703)
(0.00599851 0.00027566 0.0157067 0.00546207 -0.0500704 -0.0114606)
(0.00490695 0.000719289 0.0498944 0.00494496 -0.050595 -0.00985191)
(0.00293622 0.00120574 0.0868609 0.00414608 -0.0517241 -0.0070823)
(0.000678356 0.00150592 0.128968 0.00320772 -0.0536326 -0.00388608)