/*--------------------------------*- C++ -*----------------------------------*\
| =========                 |                                                 |
| \\      /  F ield         | OpenFOAM: The Open Source CFD Toolbox           |
|  \\    /   O peration     | Version:  2406                                  |
|   \\  /    A nd           | Website:  www.openfoam.com                      |
|    \\/     M anipulation  |                                                 |
\*---------------------------------------------------------------------------*/
FoamFile
{
    version     2.0;
    format      ascii;
    arch        "LSB;label=32;scalar=64";
    class       volScalarField;
    location    "0.7";
    object      turbulenceProperties:nuEff;
}
// * * * * * * * * * * * * * * * * * * * * * * * * * * * * * * * * * * * * * //

dimensions      [0 2 -1 0 0 0 0];

internalField   nonuniform List<scalar> 
25000
(
0.00649116
0.00656467
0.00659661
0.0066028
0.00660088
0.00660084
0.00660269
0.00659646
0.00656453
0.00649125
0.00656465
0.006591
0.00657865
0.00656494
0.00655751
0.00655745
0.00656478
0.0065784
0.00659068
0.00656457
0.00659659
0.00657863
0.00655371
0.00653869
0.00653259
0.00653254
0.00653852
0.00655346
0.0065783
0.00659639
0.00660278
0.00656491
0.00653868
0.00652678
0.00652319
0.00652314
0.00652663
0.00653844
0.00656458
0.00660254
0.00660089
0.0065575
0.00653261
0.00652321
0.00652126
0.00652121
0.00652307
0.00653239
0.0065572
0.00660066
0.00660089
0.00655748
0.00653258
0.00652319
0.00652124
0.0065212
0.00652306
0.00653238
0.0065572
0.00660068
0.00660275
0.00656484
0.0065386
0.0065267
0.00652312
0.00652308
0.00652658
0.00653842
0.00656458
0.00660258
0.00659653
0.00657848
0.00655354
0.00653853
0.00653245
0.00653242
0.00653843
0.00655339
0.00657825
0.00659641
0.00656455
0.00659074
0.00657838
0.00656468
0.00655728
0.00655726
0.00656462
0.00657828
0.00659059
0.00656455
0.00649115
0.00656455
0.00659647
0.00660266
0.00660076
0.00660075
0.00660263
0.00659645
0.00656456
0.00649131
0.00615747
0.00633226
0.00654579
0.00671439
0.0068031
0.0068034
0.0067153
0.0065473
0.00633403
0.00615919
0.00633226
0.00670535
0.00696979
0.0070794
0.0071074
0.00710725
0.00707921
0.00697032
0.00670693
0.006334
0.0065457
0.0069696
0.00712744
0.00710976
0.00707889
0.00707854
0.00710884
0.00712663
0.00697025
0.00654724
0.0067141
0.0070792
0.00710982
0.00703729
0.00699235
0.00699202
0.00703634
0.00710859
0.00707894
0.00671529
0.00680259
0.00710743
0.00707925
0.00699261
0.0069458
0.00694549
0.00699173
0.00707799
0.00710679
0.00680352
0.0068026
0.00710748
0.00707927
0.0069926
0.0069458
0.00694551
0.00699177
0.00707806
0.00710686
0.00680348
0.00671409
0.00707928
0.00710982
0.00703723
0.00699231
0.00699204
0.00703643
0.00710874
0.00707902
0.00671511
0.00654567
0.00696955
0.00712725
0.00710953
0.00707873
0.00707849
0.00710888
0.00712667
0.00697006
0.00654686
0.00633224
0.00670517
0.00696939
0.00707893
0.00710702
0.00710696
0.00707893
0.00696993
0.00670639
0.00633349
0.00615751
0.00633217
0.00654556
0.00671403
0.00680267
0.00680292
0.00671476
0.00654671
0.00633346
0.00615868
0.00583004
0.00590086
0.00603538
0.00616191
0.00623866
0.00623997
0.00616543
0.00604021
0.00590608
0.00583501
0.0059011
0.00613806
0.00638156
0.00657674
0.00668707
0.00668859
0.00658086
0.00638714
0.00614383
0.00590607
0.00603559
0.00638139
0.00672939
0.00699406
0.00712943
0.00713097
0.00699843
0.00673545
0.00638737
0.00604032
0.00616158
0.00657582
0.00699314
0.00728877
0.00741471
0.00741592
0.00729267
0.00699905
0.00658162
0.00616595
0.00623719
0.00668474
0.00712698
0.00741331
0.00751438
0.00751536
0.00741664
0.00713246
0.00669021
0.00624121
0.00623701
0.0066845
0.00712663
0.00741287
0.00751394
0.00751494
0.00741619
0.00713196
0.00668974
0.00624081
0.00616115
0.00657524
0.00699226
0.00728759
0.00741343
0.00741464
0.0072913
0.00699762
0.00658031
0.00616487
0.00603519
0.00638081
0.00672846
0.00699271
0.00712778
0.00712913
0.00699645
0.00673345
0.00638557
0.00603882
0.00590093
0.00613773
0.00638099
0.00657581
0.00668575
0.00668692
0.00657895
0.00638515
0.00614193
0.0059044
0.0058302
0.00590095
0.00603532
0.00616157
0.00623794
0.00623885
0.00616401
0.00603862
0.00590445
0.00583345
0.00580063
0.00583533
0.00593775
0.00604039
0.00610533
0.00610775
0.00604682
0.00594648
0.00584475
0.00580942
0.00583578
0.00601501
0.00621032
0.00637885
0.00648235
0.00648552
0.00638699
0.00622074
0.00602553
0.00584482
0.00593815
0.00621004
0.00650649
0.00677594
0.0069517
0.00695637
0.0067869
0.00651897
0.0062213
0.00594693
0.00603975
0.00637706
0.00677379
0.00719155
0.00752113
0.00752957
0.00720741
0.00678853
0.00638874
0.00604811
0.00610239
0.00647739
0.00694456
0.0075126
0.00809996
0.00811698
0.00753451
0.00696098
0.00648916
0.00611036
0.00610171
0.0064766
0.00694337
0.00751027
0.00809464
0.00811114
0.00753158
0.00695938
0.00648808
0.00610953
0.00603805
0.00637513
0.00677121
0.00718749
0.00751474
0.00752249
0.0072021
0.00678483
0.00638598
0.0060459
0.00593607
0.00620784
0.00650395
0.00677272
0.00694752
0.00695157
0.00678226
0.00651488
0.00621782
0.00594396
0.00583385
0.00601314
0.00620847
0.00637684
0.0064799
0.0064825
0.00638356
0.00621719
0.00602209
0.00584167
0.00579907
0.00583409
0.00593679
0.00603948
0.00610415
0.00610604
0.00604458
0.00594383
0.00584188
0.00580658
0.00576869
0.00578708
0.0058744
0.00596549
0.00602482
0.00602853
0.00597534
0.00588769
0.0058013
0.00578162
0.00578752
0.00594014
0.00611116
0.00626298
0.00635978
0.00636487
0.00627596
0.00612761
0.00595662
0.00580152
0.00587434
0.00611025
0.00637336
0.00662443
0.0068004
0.0068086
0.00664299
0.00639389
0.00612862
0.00588871
0.00596325
0.00625893
0.00661995
0.00703574
0.00742144
0.00744018
0.00706568
0.00664573
0.00627896
0.00597777
0.00601825
0.0063496
0.0067857
0.00740149
0.0083513
0.00842239
0.00745001
0.00681638
0.00637084
0.00603295
0.00601626
0.00634726
0.00678236
0.0073944
0.0083252
0.00839316
0.00744233
0.00681304
0.00636876
0.00603138
0.00595795
0.00625295
0.00661242
0.00702452
0.00740348
0.00742153
0.00705393
0.00663835
0.00627372
0.00597364
0.00586705
0.0061026
0.0063651
0.00661509
0.00678973
0.00679774
0.00663351
0.00638606
0.00612213
0.00588322
0.00577936
0.00593217
0.00610366
0.00625595
0.00635296
0.00635806
0.00626915
0.00612095
0.0059503
0.00579576
0.00576033
0.0057796
0.00586818
0.00596043
0.00602047
0.0060243
0.00597081
0.00588276
0.00579608
0.00577646
0.00577176
0.00578494
0.00586696
0.00595386
0.00601151
0.00601656
0.00596725
0.00588497
0.00580409
0.00578865
0.00578501
0.00592814
0.00608947
0.00623434
0.00632886
0.00633619
0.00625295
0.0061129
0.00595138
0.00580427
0.00586541
0.00608718
0.00633549
0.00657675
0.00675167
0.00676419
0.00660478
0.00636612
0.00611427
0.00588624
0.00594828
0.00622618
0.00656844
0.00697329
0.00736845
0.00739975
0.00702112
0.00660879
0.0062571
0.00597037
0.0059989
0.00631036
0.00672572
0.00733345
0.00836128
0.00850326
0.00741528
0.00677556
0.00634432
0.00602209
0.00599512
0.0063057
0.00671906
0.0073195
0.00830618
0.00843768
0.00740077
0.00676954
0.00634057
0.00601928
0.00593794
0.00621399
0.00655295
0.00695057
0.00733282
0.00736367
0.00699937
0.00659537
0.00624758
0.00596289
0.0058506
0.00607079
0.00631733
0.00655622
0.00672896
0.00674225
0.00658654
0.00635143
0.00610217
0.005876
0.00576758
0.00591002
0.0060715
0.00621696
0.00631238
0.00632082
0.00623868
0.0060996
0.00593901
0.00579302
0.00575343
0.00576695
0.00585047
0.00593934
0.00599891
0.00600527
0.00595645
0.00587414
0.00579313
0.00577797
0.00576328
0.00577433
0.00585515
0.00594174
0.00600038
0.00600776
0.00596154
0.00588235
0.0058041
0.0057904
0.00577378
0.00591295
0.00607129
0.00621488
0.00631071
0.00632154
0.00624252
0.00610646
0.00594833
0.00580373
0.0058509
0.00606671
0.00630946
0.00654785
0.00672528
0.00674413
0.00658999
0.00635552
0.00610764
0.00588281
0.0059306
0.0062004
0.00653398
0.00693296
0.00733409
0.00738271
0.00700598
0.006595
0.00624691
0.0059639
0.00597891
0.00628045
0.00668393
0.00727929
0.00831474
0.00854701
0.00740504
0.00675896
0.00633074
0.00601276
0.00597437
0.00627416
0.00667416
0.00725765
0.00822574
0.00842583
0.00737931
0.00674834
0.00632408
0.00600777
0.00591812
0.00618382
0.00651093
0.00689674
0.00727421
0.00731921
0.00696719
0.00657091
0.00622969
0.00595036
0.00583305
0.00604433
0.00628197
0.00651387
0.00668506
0.00670375
0.00655595
0.00632807
0.00608497
0.00586368
0.00575312
0.00588858
0.006044
0.00618526
0.00627989
0.00629125
0.00621406
0.00608013
0.00592408
0.00578181
0.00574302
0.00575138
0.00583065
0.00591673
0.00597577
0.00598394
0.00593834
0.00585949
0.00578156
0.00576884
0.00575524
0.00576685
0.00584989
0.00593977
0.00600246
0.00601375
0.00597029
0.00589231
0.00581396
0.00579888
0.00576568
0.00590423
0.0060635
0.00620999
0.0063108
0.00632713
0.00625179
0.00611703
0.00595863
0.00581251
0.00584213
0.00605588
0.00629765
0.00653803
0.00672256
0.00675071
0.00660083
0.00636631
0.00611718
0.00589065
0.00592132
0.00618724
0.00651691
0.00691466
0.00732635
0.00739874
0.00702198
0.00660584
0.0062548
0.00597
0.00596995
0.00626593
0.00666193
0.00724701
0.00827742
0.00862408
0.00742714
0.00676754
0.00633566
0.00601641
0.00596698
0.00626039
0.00665131
0.00721952
0.00815364
0.00841908
0.00738396
0.00675009
0.00632502
0.00600873
0.00591332
0.00617288
0.00649215
0.00686861
0.0072398
0.00729716
0.00695788
0.00656635
0.00622727
0.00594915
0.00583134
0.00603738
0.0062691
0.00649558
0.00666462
0.00668685
0.00654493
0.00632143
0.00608106
0.00586134
0.00575463
0.00588602
0.00603711
0.00617466
0.00626758
0.00627996
0.0062055
0.00607436
0.0059204
0.00577935
0.00574796
0.00575323
0.0058292
0.00591229
0.00596956
0.00597765
0.00593323
0.00585595
0.00577936
0.00576733
0.00574176
0.00575279
0.00583806
0.00593214
0.00600018
0.00601616
0.00597502
0.00589679
0.00581662
0.00579885
0.00575211
0.00588963
0.00605055
0.0062015
0.00630919
0.00633217
0.00625998
0.00612459
0.00596357
0.00581411
0.00582863
0.00604054
0.0062826
0.00652694
0.00672111
0.00676047
0.00661401
0.00637665
0.00612329
0.00589279
0.00590855
0.00617147
0.00649884
0.00689731
0.0073221
0.00742184
0.00704304
0.00661789
0.00626061
0.00597166
0.00595922
0.00625122
0.00664188
0.00721872
0.00824302
0.0087121
0.0074533
0.0067772
0.00633906
0.00601646
0.0059597
0.00624908
0.00663391
0.00719029
0.00809354
0.0084052
0.00738871
0.00675201
0.00632454
0.00600662
0.00591031
0.00616655
0.00648116
0.00685121
0.00721624
0.00728022
0.00695038
0.00656206
0.00622362
0.00594537
0.00583253
0.0060361
0.00626462
0.00648744
0.00665371
0.00667626
0.00653692
0.00631554
0.00607629
0.00585703
0.00575947
0.0058891
0.00603787
0.00617275
0.00626327
0.00627443
0.00620011
0.00606967
0.00591633
0.00577564
0.00575561
0.00575967
0.00583393
0.00591476
0.00596967
0.00597601
0.00593081
0.00585346
0.00577706
0.0057651
0.0057345
0.00574301
0.00582792
0.00592387
0.00599549
0.00601492
0.00597505
0.00589564
0.00581297
0.00579242
0.0057448
0.00587955
0.00603983
0.00619303
0.00630589
0.0063344
0.00626434
0.00612734
0.00596304
0.00581013
0.0058219
0.00603057
0.006271
0.00651716
0.00671888
0.00676817
0.00662434
0.00638333
0.00612517
0.00589066
0.00590324
0.0061625
0.0064865
0.00688398
0.00731813
0.00744177
0.00706124
0.00662707
0.00626338
0.00597034
0.00595669
0.00624511
0.006631
0.00720082
0.00821761
0.00878389
0.00747464
0.00678437
0.0063404
0.00601457
0.0059613
0.00624808
0.00662891
0.0071783
0.00806437
0.00839778
0.00739179
0.0067526
0.00632282
0.00600316
0.00591652
0.00617146
0.00648387
0.00685082
0.00721175
0.00727485
0.00694647
0.00655845
0.00621951
0.00594041
0.00584274
0.00604597
0.00627327
0.00649409
0.00665725
0.00667627
0.00653448
0.00631177
0.00607155
0.00585134
0.00577241
0.00590207
0.00605002
0.00618314
0.0062707
0.00627814
0.00620041
0.00606743
0.00591215
0.00576989
0.00576921
0.00577345
0.00584729
0.00592666
0.0059789
0.00598168
0.00593289
0.00585248
0.00577353
0.00575946
0.0057342
0.00573944
0.00582121
0.00591531
0.00598681
0.00600708
0.00596751
0.00588741
0.00580366
0.00578238
0.00574436
0.0058755
0.00603242
0.00618385
0.00629745
0.00632815
0.00625908
0.0061211
0.00595513
0.0058011
0.00582247
0.00602717
0.00626351
0.0065072
0.00671046
0.00676474
0.00662282
0.00637976
0.00611891
0.00588285
0.00590576
0.00616125
0.00648048
0.00687338
0.00730771
0.00744321
0.00706402
0.00662512
0.00625782
0.00596311
0.00596229
0.00624798
0.00662965
0.00719348
0.00819994
0.00880018
0.00747712
0.00678051
0.00633357
0.00600657
0.00597081
0.00625655
0.00663547
0.0071832
0.00806921
0.00839709
0.00738521
0.00674422
0.0063133
0.0059932
0.00592975
0.00618513
0.0064973
0.00686407
0.00722274
0.00727603
0.00693918
0.00654802
0.0062078
0.00592829
0.00585849
0.00606281
0.00629009
0.0065097
0.00666866
0.00667952
0.00652961
0.00630183
0.00605893
0.00583759
0.00578899
0.00591962
0.00606723
0.00619848
0.00628168
0.00628225
0.0061972
0.00605842
0.00589928
0.00575508
0.0057842
0.00578907
0.00586242
0.00593995
0.00598831
0.00598525
0.00592993
0.00584371
0.00576038
0.00574393
0.00573753
0.00574158
0.00582015
0.0059107
0.00597945
0.00599838
0.00595862
0.00587891
0.00579585
0.00577575
0.0057479
0.00587772
0.00603122
0.0061786
0.00628905
0.00631841
0.00624932
0.00611173
0.00594641
0.0057936
0.00582762
0.00603085
0.00626336
0.00650204
0.00670093
0.00675371
0.00661243
0.00636994
0.00610963
0.00587471
0.00591351
0.00616811
0.00648391
0.00687114
0.00729749
0.00742758
0.00705141
0.00661397
0.00624741
0.00595396
0.0059734
0.00625966
0.00664027
0.0072025
0.00820373
0.00875197
0.00745776
0.00676615
0.0063209
0.0059956
0.00598517
0.00627326
0.00665416
0.00720741
0.00811185
0.00839337
0.007366
0.006727
0.00629793
0.00597985
0.00594611
0.00620484
0.00651963
0.00688911
0.00724581
0.00727865
0.00692593
0.00653087
0.00619074
0.00591286
0.00587491
0.0060826
0.00631141
0.0065302
0.00668312
0.00668147
0.00651989
0.0062861
0.00604142
0.00582095
0.0058036
0.00593701
0.00608498
0.006214
0.0062913
0.00628272
0.00618865
0.0060438
0.00588194
0.00573802
0.00579509
0.00580185
0.00587491
0.00595015
0.00599363
0.00598358
0.00592113
0.00582959
0.00574341
0.005727
0.00573867
0.00574416
0.0058216
0.00590956
0.00597539
0.00599241
0.00595247
0.00587396
0.0057928
0.00577504
0.00574919
0.00588057
0.00603276
0.00617676
0.00628302
0.00630938
0.00623984
0.00610383
0.005941
0.00579102
0.00583034
0.0060353
0.00626644
0.00650077
0.00669282
0.00673979
0.00659812
0.00635853
0.00610165
0.00587001
0.00591874
0.006176
0.00649177
0.00687544
0.00729032
0.00740136
0.00702836
0.00659798
0.00623647
0.00594692
0.00598164
0.00627234
0.00665669
0.00722418
0.0082301
0.00865737
0.00742119
0.00674546
0.00630701
0.00598628
0.00599561
0.00628975
0.00667766
0.00724456
0.00818408
0.00837296
0.00733544
0.00670519
0.00628219
0.00596887
0.00595661
0.00622173
0.00654267
0.00691804
0.00727225
0.00727656
0.00690735
0.00651163
0.00617495
0.00590141
0.00588324
0.00609659
0.00632906
0.00654805
0.00669418
0.00667888
0.00650679
0.00626995
0.00602689
0.00581018
0.00580833
0.00594635
0.00609609
0.00622357
0.00629522
0.00627841
0.00617763
0.00603009
0.00586912
0.0057286
0.00579565
0.00580576
0.00587955
0.0059532
0.00599268
0.00597741
0.0059108
0.00581768
0.00573243
0.00571923
0.00573566
0.00574391
0.00582237
0.00590972
0.00597387
0.00598939
0.00594939
0.0058724
0.00579354
0.00577826
0.00574605
0.00588071
0.00603401
0.00617683
0.00628004
0.00630348
0.0062335
0.00609966
0.00594008
0.00579314
0.00582773
0.00603658
0.00626931
0.00650199
0.00668812
0.00672808
0.00658557
0.00635018
0.00609825
0.00587046
0.00591741
0.00617972
0.00649912
0.00688321
0.00728808
0.00737489
0.00700456
0.0065843
0.00623032
0.00594559
0.00598185
0.00627934
0.00667152
0.00725053
0.00827027
0.00855511
0.00738231
0.00672773
0.00629903
0.00598385
0.00599632
0.00629842
0.00669685
0.00728275
0.00826508
0.0083393
0.00730549
0.00668876
0.00627438
0.00596665
0.00595581
0.00622857
0.00655795
0.00694151
0.00729393
0.00727127
0.00689187
0.0064998
0.00616908
0.00590064
0.00587934
0.00609911
0.00633686
0.0065579
0.00669954
0.00667476
0.00649762
0.00626223
0.00602355
0.00581148
0.00580093
0.00594408
0.00609707
0.00622507
0.00629412
0.00627351
0.00617109
0.00602523
0.00586807
0.00573187
0.0057854
0.00579936
0.00587531
0.00594948
0.00598798
0.00597156
0.00590531
0.00581457
0.00573302
0.00572404
0.00573098
0.00574118
0.00582104
0.00590864
0.00597178
0.00598588
0.0059455
0.00586961
0.00579261
0.00577901
0.0057409
0.00587813
0.00603326
0.00617626
0.00627752
0.00629832
0.00622774
0.00609592
0.00593928
0.00579454
0.00582188
0.00603415
0.00626968
0.00650278
0.00668473
0.0067182
0.00657491
0.00634404
0.00609718
0.00587257
0.00591095
0.00617779
0.00650212
0.00688931
0.00728701
0.00735205
0.00698502
0.00657554
0.00622937
0.00594874
0.00597463
0.00627792
0.00667848
0.00727035
0.00830374
0.00847262
0.00735396
0.00671916
0.00629975
0.00598893
0.00598763
0.00629605
0.00670433
0.00730797
0.00832824
0.00831409
0.00728959
0.00668517
0.00627841
0.00597457
0.00594476
0.00622315
0.00656014
0.0069521
0.00730648
0.00726969
0.00688825
0.00650173
0.00617663
0.00591155
0.00586578
0.00609001
0.00633286
0.00655783
0.00670013
0.00667391
0.00649832
0.00626752
0.0060337
0.00582475
0.00578559
0.00593212
0.00608872
0.00621962
0.00629063
0.00627209
0.00617318
0.00603214
0.00587966
0.00574651
0.00576954
0.00578597
0.00586471
0.00594152
0.00598265
0.00596943
0.00590744
0.00582162
0.00574474
0.00573893
0.00572984
0.00574001
0.00581977
0.0059064
0.00596726
0.00597832
0.0059355
0.00585843
0.00578092
0.00576657
0.00573936
0.00587719
0.00603275
0.00617494
0.00627325
0.00629
0.00621703
0.00608527
0.00592939
0.00578458
0.00581895
0.00603267
0.00626984
0.00650285
0.00668033
0.00670673
0.00656162
0.00633386
0.00609023
0.00586676
0.00590588
0.00617501
0.00650285
0.00689257
0.0072837
0.00733113
0.00696776
0.00656753
0.00622717
0.00594835
0.00596677
0.00627289
0.00667892
0.00727958
0.00831701
0.00841645
0.0073388
0.00671818
0.00630462
0.00599511
0.00597666
0.00628764
0.0067014
0.00731557
0.0083601
0.00831542
0.00729325
0.00669449
0.00629099
0.00598728
0.00593119
0.00621134
0.00655224
0.00695018
0.00731164
0.00727821
0.00690034
0.00651762
0.00619479
0.00592925
0.00585089
0.00607619
0.00632192
0.00655136
0.0066996
0.00668023
0.00651118
0.00628558
0.00605463
0.00584535
0.00577078
0.0059179
0.00607689
0.0062118
0.00628854
0.00627704
0.00618529
0.00605017
0.00590125
0.00576819
0.00575586
0.00577258
0.00585336
0.00593369
0.00597995
0.00597316
0.00591792
0.005838
0.00576514
0.00576002
0.00573753
0.00574604
0.00582336
0.00590639
0.00596201
0.00596679
0.00591829
0.00583713
0.00575687
0.00574072
0.00574667
0.00588339
0.00603697
0.00617553
0.00626767
0.00627682
0.00619799
0.00606322
0.00590579
0.00575991
0.0058247
0.00603798
0.00627429
0.00650441
0.00667426
0.00669036
0.00654036
0.00631288
0.00607024
0.0058468
0.00590879
0.006178
0.00650645
0.00689541
0.00727673
0.00730685
0.00694556
0.00655178
0.00621467
0.0059361
0.00596572
0.00627181
0.00667909
0.00728189
0.00830947
0.00837389
0.00732789
0.00671546
0.0063037
0.00599286
0.00597152
0.00628167
0.00669558
0.00731172
0.00836939
0.00834789
0.00731078
0.00670836
0.00630238
0.00599494
0.00592344
0.00620207
0.00654251
0.00694289
0.00731556
0.00729921
0.00692496
0.00654058
0.00621457
0.00594411
0.0058427
0.00606637
0.00631211
0.00654502
0.00670231
0.00669487
0.00653359
0.00631044
0.00607802
0.00586401
0.00576369
0.00590927
0.00606879
0.00620728
0.00629125
0.00628892
0.00620481
0.00607375
0.00592498
0.00578802
0.00575042
0.00576573
0.00584718
0.00593053
0.00598247
0.00598291
0.00593426
0.00585849
0.00578664
0.00577869
0.00575328
0.0057608
0.00583487
0.00591258
0.00596086
0.00595748
0.00590214
0.00581678
0.00573471
0.00571916
0.00576262
0.00589899
0.00604971
0.00618247
0.00626546
0.00626399
0.00617702
0.00603818
0.00587959
0.00573478
0.00583952
0.00605304
0.00628758
0.00651239
0.00667087
0.00667247
0.0065143
0.00628525
0.00604344
0.00582169
0.00592093
0.00619073
0.00651881
0.00690463
0.00727177
0.00727916
0.00691604
0.0065266
0.00619215
0.00591488
0.0059738
0.00628002
0.00668709
0.00728937
0.00830206
0.00832731
0.00730912
0.00670261
0.00629124
0.00597922
0.00597538
0.00628449
0.00669655
0.00731168
0.00838386
0.00839453
0.00732652
0.00671425
0.00630236
0.00599
0.00592474
0.00620156
0.00653967
0.00694045
0.00732506
0.00732711
0.00695023
0.0065574
0.00622327
0.00594542
0.00584363
0.00606546
0.00630974
0.00654453
0.00671
0.00671303
0.00655526
0.00632873
0.00608957
0.00586761
0.00576546
0.00590933
0.00606816
0.00620865
0.00629805
0.00630217
0.00622134
0.00608883
0.00593491
0.00579058
0.00575282
0.00576642
0.00584745
0.00593226
0.00598771
0.00599215
0.0059454
0.0058681
0.00579169
0.00577732
0.00577309
0.0057818
0.0058537
0.0059266
0.00596791
0.00595714
0.00589627
0.0058083
0.00572612
0.005713
0.00578318
0.00592161
0.00607069
0.00619789
0.00627141
0.00625913
0.00616439
0.00602243
0.00586432
0.00572266
0.00585944
0.00607567
0.00630969
0.00652918
0.006675
0.00666038
0.00649292
0.00626228
0.00602262
0.00580473
0.00593883
0.00621167
0.00654081
0.00692393
0.00727482
0.00725337
0.0068849
0.00649928
0.00616893
0.00589557
0.00598834
0.00629708
0.00670592
0.00731066
0.00831411
0.00826738
0.00727727
0.0066793
0.00627079
0.00596085
0.00598615
0.00629643
0.00670872
0.00732685
0.00842602
0.00841985
0.00732274
0.00670371
0.0062883
0.00597448
0.00593264
0.00620953
0.00654661
0.00694829
0.00734145
0.00734819
0.00695982
0.00655589
0.00621394
0.00593164
0.00584983
0.00607136
0.0063146
0.00654983
0.00671887
0.00672434
0.0065623
0.00632768
0.0060804
0.00585274
0.00577039
0.00591389
0.0060719
0.00621238
0.00630282
0.00630685
0.00622239
0.00608332
0.00592212
0.0057722
0.00575611
0.00576906
0.00584927
0.00593362
0.00598868
0.0059914
0.00594034
0.0058566
0.00577336
0.00575404
0.00578298
0.00579616
0.00586939
0.00594085
0.00597826
0.0059627
0.00589819
0.00580868
0.00572681
0.00571606
0.00579607
0.00593998
0.0060908
0.00621567
0.00628268
0.00626222
0.00616171
0.00601793
0.00586106
0.00572263
0.00587422
0.00609646
0.00633318
0.00655036
0.00668604
0.00665707
0.00648153
0.00625016
0.0060135
0.00579991
0.00595428
0.00623332
0.00656697
0.00695103
0.00728802
0.00723548
0.0068601
0.00647865
0.00615385
0.00588589
0.00600289
0.00631741
0.00673242
0.00734732
0.00835696
0.00820179
0.00723878
0.00665374
0.0062521
0.00594768
0.00599834
0.00631305
0.00673022
0.0073592
0.00849594
0.00838983
0.00729461
0.00668095
0.00626917
0.00595946
0.00594165
0.00622143
0.00656051
0.00696447
0.00735803
0.0073482
0.00694663
0.00653797
0.00619532
0.00591535
0.00585548
0.0060789
0.00632245
0.00655676
0.00672292
0.00672151
0.00655113
0.00631074
0.00606115
0.00583495
0.00577273
0.00591763
0.0060752
0.00621383
0.00630086
0.00629951
0.00620876
0.00606473
0.00590132
0.00575286
0.00575563
0.0057694
0.0058487
0.00593107
0.00598281
0.00598076
0.00592439
0.00583654
0.00575167
0.00573417
0.00576852
0.00578815
0.00586675
0.00594173
0.00598034
0.00596429
0.00589909
0.00580983
0.00572933
0.00572129
0.00578721
0.00593834
0.00609461
0.00622209
0.00628819
0.00626476
0.00616221
0.0060187
0.00586392
0.00572849
0.00587126
0.00610112
0.0063438
0.00656322
0.00669448
0.00665703
0.00647734
0.00624714
0.00601405
0.00580434
0.00595677
0.00624366
0.00658497
0.00697444
0.00730326
0.00722483
0.00684489
0.00646863
0.00615006
0.00588741
0.0060092
0.00633164
0.00675691
0.00738934
0.00842001
0.00814344
0.00720546
0.0066359
0.00624363
0.00594588
0.00600579
0.00632748
0.00675403
0.00740082
0.00857526
0.00831645
0.00725682
0.00665985
0.00625774
0.0059552
0.00594763
0.00623265
0.00657673
0.00698422
0.00736959
0.00732974
0.00692239
0.00651916
0.00618341
0.00591022
0.00585877
0.00608589
0.00633123
0.00656402
0.00672296
0.00671061
0.00653459
0.00629534
0.00605048
0.0058305
0.00577342
0.00592111
0.00607895
0.00621515
0.00629713
0.00628992
0.00619583
0.00605252
0.00589298
0.00575032
0.00575502
0.00577076
0.00584956
0.00592969
0.0059779
0.00597235
0.00591444
0.00582798
0.00574695
0.00573495
0.00573633
0.00575959
0.00584359
0.00592449
0.0059685
0.00595666
0.00589486
0.00580864
0.00573095
0.00572511
0.00575872
0.00591385
0.00607559
0.00620862
0.00627924
0.00625912
0.00615955
0.00601937
0.00586781
0.00573477
0.00584909
0.00608358
0.00633193
0.00655618
0.00668939
0.006652
0.0064743
0.00624808
0.00601906
0.00581224
0.00594257
0.00623503
0.0065834
0.00697926
0.00730571
0.00721491
0.00683695
0.00646731
0.00615455
0.00589557
0.006003
0.00633225
0.00676794
0.0074179
0.0084669
0.00809878
0.00718484
0.00662986
0.00624617
0.00595318
0.00600536
0.00633426
0.00677193
0.007439
0.00864557
0.00824722
0.00722902
0.00665062
0.00625862
0.0059616
0.0059498
0.00624094
0.00659204
0.00700486
0.00738035
0.00731195
0.00690544
0.00651197
0.00618473
0.00591694
0.00586161
0.00609339
0.00634213
0.0065747
0.00672683
0.00670526
0.00652758
0.00629304
0.00605434
0.00583902
0.00577666
0.00592785
0.00608721
0.00622227
0.00630053
0.00628968
0.00619535
0.0060553
0.00590032
0.00576148
0.00575914
0.00577736
0.00585677
0.00593588
0.00598207
0.00597521
0.00591823
0.00583484
0.00575764
0.00574889
0.0057089
0.00572966
0.00581411
0.00589812
0.00594751
0.0059421
0.00588625
0.00580458
0.00572962
0.00572407
0.00572979
0.00588216
0.00604434
0.00618063
0.0062571
0.00624432
0.00615173
0.00601679
0.00586811
0.00573538
0.00582243
0.00605468
0.00630325
0.00652962
0.00666741
0.00663755
0.00646788
0.00624766
0.00602178
0.00581544
0.00592145
0.00621322
0.00656254
0.00695892
0.00728397
0.00719794
0.00683068
0.00646841
0.00615932
0.00590095
0.00598996
0.00632122
0.00676163
0.00741796
0.00845604
0.00806402
0.00717552
0.00663107
0.00625204
0.00595986
0.00600061
0.00633404
0.00678049
0.00746561
0.00871402
0.00821939
0.0072195
0.00665197
0.00626516
0.00596903
0.00595138
0.0062477
0.00660626
0.00702741
0.00740087
0.00731197
0.00690387
0.00651589
0.00619264
0.00592534
0.00586732
0.00610357
0.00635681
0.00659178
0.00674074
0.00671269
0.00653322
0.00630091
0.00606438
0.0058488
0.0057851
0.00593956
0.00610135
0.00623704
0.00631357
0.00630033
0.00620537
0.00606632
0.00591218
0.00577245
0.00576861
0.00578909
0.00586989
0.00594912
0.00599435
0.00598652
0.00592953
0.00584672
0.00576968
0.00575986
0.00569641
0.005711
0.00579126
0.00587422
0.00592665
0.00592751
0.00587845
0.00580178
0.00572924
0.00572332
0.00571374
0.00585875
0.00601573
0.00615036
0.00623041
0.00622573
0.00614172
0.00601263
0.00586637
0.00573314
0.00580586
0.0060302
0.00627208
0.0064943
0.00663462
0.00661572
0.00645765
0.00624415
0.00602046
0.00581334
0.00590719
0.00619219
0.00653418
0.00692105
0.00723998
0.00717139
0.00682193
0.00646694
0.00615941
0.00589976
0.00598111
0.00630877
0.00674528
0.00739111
0.00837994
0.00803119
0.00717113
0.0066324
0.00625387
0.00595981
0.00599895
0.00633288
0.00678285
0.00748009
0.00879478
0.0082402
0.00722444
0.00665635
0.00626873
0.00597007
0.00595635
0.00625556
0.00662003
0.00705159
0.00743453
0.00733229
0.00691387
0.006523
0.00619785
0.00592742
0.00587682
0.00611611
0.00637343
0.00661253
0.00676203
0.00672914
0.00654488
0.00630979
0.00607074
0.00585164
0.0057967
0.00595311
0.00611689
0.00625389
0.00632986
0.0063143
0.00621673
0.00607533
0.00591853
0.00577537
0.005779
0.00580044
0.00588216
0.0059617
0.00600631
0.00599707
0.00593835
0.00585356
0.00577407
0.00576135
0.00570033
0.00570864
0.00578235
0.00586103
0.00591355
0.00591892
0.00587584
0.0058037
0.00573327
0.00572734
0.00571423
0.00585183
0.00600094
0.00612984
0.00620986
0.00621136
0.00613524
0.00601153
0.00586741
0.00573399
0.00580523
0.00602091
0.0062526
0.00646563
0.00660436
0.00659522
0.00644876
0.00624146
0.00601937
0.00581158
0.00590701
0.00618374
0.00651384
0.00688444
0.0071923
0.00714372
0.00681346
0.00646442
0.00615709
0.00589595
0.00598329
0.00630519
0.00673205
0.00735633
0.00828118
0.00800345
0.00716965
0.00663193
0.00625112
0.0059545
0.00600491
0.00633684
0.00678473
0.00748459
0.00886674
0.00829244
0.00723598
0.00665839
0.00626592
0.00596371
0.00596599
0.00626551
0.00663186
0.00707066
0.00746829
0.00736021
0.00692571
0.00652569
0.00619486
0.00592025
0.00588842
0.00612806
0.00638636
0.00662787
0.00677925
0.00674323
0.00655244
0.00631119
0.00606697
0.00584358
0.00580792
0.0059635
0.00612662
0.00626342
0.00633874
0.00632102
0.00621982
0.00607413
0.00591306
0.0057661
0.00578704
0.00580659
0.00588673
0.00596519
0.00600881
0.00599809
0.00593698
0.00584903
0.00576602
0.00575016
0.00571828
0.00572527
0.00579525
0.00586992
0.00592053
0.00592727
0.00588755
0.00581871
0.00575055
0.00574584
0.00572668
0.00586259
0.00600739
0.00613164
0.00621004
0.00621453
0.00614349
0.00602377
0.0058818
0.00574918
0.00581371
0.00602647
0.00625212
0.00645833
0.00659507
0.00659227
0.00645377
0.00625062
0.00602973
0.00582201
0.00591229
0.00618553
0.00650771
0.00686652
0.00716805
0.0071358
0.00681794
0.00647122
0.00616312
0.00590113
0.00598566
0.00630455
0.00672327
0.00732892
0.00821495
0.00800482
0.0071795
0.00663724
0.00625294
0.00595462
0.00600392
0.00633413
0.00677721
0.00746814
0.00885852
0.00834978
0.0072514
0.00666165
0.00626407
0.00595982
0.00596037
0.00625941
0.0066244
0.00706357
0.00747263
0.0073762
0.00693333
0.00652557
0.00619041
0.00591404
0.00587659
0.00611655
0.00637519
0.00661859
0.00677524
0.0067438
0.00655213
0.00630764
0.00606093
0.00583659
0.00578868
0.00594545
0.00611012
0.00624953
0.00632875
0.00631445
0.00621427
0.00606781
0.005906
0.00575928
0.00576076
0.00578255
0.00586535
0.00594724
0.00599485
0.00598771
0.00592865
0.00584138
0.00575861
0.00574368
0.00574086
0.00575374
0.00582836
0.00590547
0.0059568
0.00596378
0.00592497
0.00585777
0.0057915
0.0057874
0.00574297
0.00588432
0.00603381
0.00616169
0.00624285
0.00624985
0.00618112
0.00606328
0.00592257
0.00578974
0.00582109
0.00603849
0.00626848
0.00647954
0.00662247
0.00662582
0.00649026
0.00628755
0.00606634
0.0058575
0.00590948
0.00618542
0.00651018
0.00687382
0.00718936
0.00717445
0.00685596
0.00650463
0.00619368
0.00592982
0.0059707
0.00628928
0.00670592
0.00730692
0.00821214
0.00807955
0.00722134
0.00666523
0.00627611
0.00597602
0.00597456
0.00630142
0.00673726
0.00740403
0.00868803
0.00839486
0.00727973
0.00668019
0.00627955
0.00597492
0.00591547
0.00621036
0.00657002
0.00700015
0.00741184
0.00736244
0.00693872
0.00653368
0.00619968
0.00592503