/*--------------------------------*- C++ -*----------------------------------*\
| =========                 |                                                 |
| \\      /  F ield         | OpenFOAM: The Open Source CFD Toolbox           |
|  \\    /   O peration     | Version:  2406                                  |
|   \\  /    A nd           | Website:  www.openfoam.com                      |
|    \\/     M anipulation  |                                                 |
\*---------------------------------------------------------------------------*/
FoamFile
{
    version     2.0;
    format      ascii;
    arch        "LSB;label=32;scalar=64";
    class       volSymmTensorField;
    location    "0.7";
    object      turbulenceProperties:R;
}
// * * * * * * * * * * * * * * * * * * * * * * * * * * * * * * * * * * * * * //

dimensions      [0 2 -2 0 0 0 0];

internalField   uniform (0 -0 -0 0 -0 0);

boundaryField
{
    walls
    {
        type            calculated;
        value           nonuniform List<symmTensor> 
2000
(
(-8.58124e-08 7.14331e-08 2.96782e-07 -5.45935e-08 -2.5064e-07 1.40406e-07)
(-1.48148e-07 9.05271e-08 4.6911e-07 -5.05063e-08 -2.89254e-07 1.98654e-07)
(-2.248e-07 9.41391e-08 6.73419e-07 -3.3296e-08 -2.81528e-07 2.58096e-07)
(-2.95249e-07 7.27925e-08 8.5354e-07 -1.06472e-08 -2.07009e-07 3.05896e-07)
(-3.38187e-07 2.7366e-08 9.59373e-07 5.74987e-09 -7.6299e-08 3.32437e-07)
(-3.38186e-07 -2.73479e-08 9.59352e-07 5.75271e-09 7.63033e-08 3.32433e-07)
(-2.95245e-07 -7.27757e-08 8.53484e-07 -1.06416e-08 2.07001e-07 3.05887e-07)
(-2.24797e-07 -9.41149e-08 6.73347e-07 -3.32814e-08 2.81501e-07 2.58078e-07)
(-1.48134e-07 -9.05174e-08 4.69047e-07 -5.05005e-08 2.89217e-07 1.98634e-07)
(-8.57681e-08 -7.14346e-08 2.96738e-07 -5.46255e-08 2.50605e-07 1.40394e-07)
(-2.62732e-09 1.15642e-09 1.27703e-07 -2.14339e-10 -1.07423e-07 2.84166e-09)
(-4.95476e-09 8.83778e-10 1.95258e-07 2.35913e-10 -1.19921e-07 4.71884e-09)
(-6.65676e-09 9.95162e-10 2.79185e-07 -3.30451e-10 -1.16453e-07 6.98721e-09)
(-8.48151e-09 7.17144e-10 3.55625e-07 -4.86934e-10 -8.61179e-08 8.96844e-09)
(-9.55718e-09 2.62813e-10 4.01394e-07 -6.07366e-10 -3.18842e-08 1.01645e-08)
(-9.53702e-09 -3.92407e-10 4.01364e-07 -6.28768e-10 3.18884e-08 1.01658e-08)
(-8.42862e-09 -8.19728e-10 3.55546e-07 -5.43182e-10 8.61045e-08 8.9718e-09)
(-6.59682e-09 -1.04928e-09 2.79078e-07 -3.92538e-10 1.16413e-07 6.98936e-09)
(-4.90074e-09 -9.06963e-10 1.95152e-07 1.81172e-10 1.19858e-07 4.71957e-09)
(-2.58154e-09 -1.16244e-09 1.27613e-07 -2.62493e-10 1.07349e-07 2.84404e-09)
(-2.28098e-10 2.60307e-12 4.53333e-08 -1.78468e-10 -3.80036e-08 4.06566e-10)
(-3.21671e-10 -3.80944e-11 6.7509e-08 -3.10825e-10 -4.13179e-08 6.32496e-10)
(-3.60817e-10 9.54615e-12 9.57589e-08 -5.4594e-10 -3.98582e-08 9.06757e-10)
(-4.72766e-10 3.07172e-11 1.22292e-07 -6.76788e-10 -2.95811e-08 1.14955e-09)
(-5.6134e-10 -7.54019e-12 1.38387e-07 -7.34978e-10 -1.09805e-08 1.29632e-09)
(-5.47646e-10 -8.63021e-11 1.38311e-07 -7.5047e-10 1.09856e-08 1.29812e-09)
(-4.38419e-10 -1.02898e-10 1.22087e-07 -7.15989e-10 2.95419e-08 1.15441e-09)
(-3.25092e-10 -4.58372e-11 9.54828e-08 -5.86521e-10 3.97518e-08 9.11612e-10)
(-2.93711e-10 2.40613e-11 6.72303e-08 -3.42251e-10 4.11534e-08 6.35962e-10)
(-2.06606e-10 -6.47235e-12 4.50983e-08 -2.03594e-10 3.78091e-08 4.102e-10)
(2.80264e-11 8.87902e-11 5.99499e-08 -3.38498e-11 -5.03076e-08 5.82332e-12)
(-1.00033e-10 9.62401e-11 8.97761e-08 7.22234e-11 -5.49821e-08 2.78091e-11)
(-2.29162e-10 6.39164e-11 1.27119e-07 1.70274e-10 -5.29154e-08 5.88875e-11)
(-3.32966e-10 -1.80413e-11 1.61631e-07 2.38202e-10 -3.90827e-08 9.47641e-11)
(-3.64956e-10 -1.05864e-10 1.82347e-07 2.43129e-10 -1.44561e-08 1.21827e-10)
(-3.2267e-10 -1.7285e-10 1.82137e-07 1.96692e-10 1.44714e-08 1.25978e-10)
(-2.25652e-10 -2.01097e-10 1.61071e-07 1.19368e-10 3.89766e-08 1.06284e-10)
(-1.08372e-10 -1.87122e-10 1.26376e-07 3.58305e-11 5.26298e-08 7.25412e-11)
(-2.72065e-12 -1.45051e-10 8.90494e-08 -3.67521e-11 5.45535e-08 3.94727e-11)
(8.80835e-11 -9.67531e-11 5.9362e-08 -1.03411e-10 4.98206e-08 1.53274e-11)
(6.19157e-11 8.28768e-12 4.81023e-08 -1.02491e-10 -4.03281e-08 4.05758e-11)
(3.70813e-11 1.92126e-11 7.13788e-08 -1.0459e-10 -4.36622e-08 6.75088e-11)
(-3.20039e-11 -2.17964e-11 1.00659e-07 -6.63283e-11 -4.18624e-08 9.83322e-11)
(-7.90922e-11 -1.12534e-10 1.27782e-07 -5.211e-11 -3.08708e-08 1.31202e-10)
(-6.91567e-11 -2.38732e-10 1.44012e-07 -8.48632e-11 -1.13972e-08 1.5402e-10)
(1.83763e-11 -3.31229e-10 1.4365e-07 -1.77491e-10 1.1427e-08 1.59115e-10)
(1.48458e-10 -3.47295e-10 1.2682e-07 -2.94331e-10 3.06916e-08 1.45874e-10)
(2.41345e-10 -2.56994e-10 9.93862e-08 -3.5768e-10 4.13764e-08 1.16335e-10)
(2.80435e-10 -1.44241e-10 7.01396e-08 -3.65375e-10 4.29344e-08 8.49396e-11)
(2.24355e-10 -3.33349e-11 4.70892e-08 -2.80845e-10 3.94915e-08 5.64899e-11)
(-3.04665e-11 1.59842e-11 5.37678e-08 7.60249e-11 -4.50821e-08 -4.55583e-11)
(-1.54341e-10 -5.24573e-11 7.96515e-08 2.08778e-10 -4.87117e-08 -5.44369e-11)
(-2.72086e-10 -2.31386e-10 1.11861e-07 3.32782e-10 -4.64979e-08 -6.06966e-11)
(-2.8147e-10 -4.67976e-10 1.41405e-07 3.39213e-10 -3.41351e-08 -5.77429e-11)
(-1.57113e-10 -6.81345e-10 1.58881e-07 2.06684e-10 -1.25522e-08 -4.95709e-11)
(6.85936e-11 -7.72853e-10 1.58213e-07 -2.83265e-11 1.25997e-08 -4.02671e-11)
(3.1145e-10 -7.19677e-10 1.39608e-07 -2.81746e-10 3.37954e-08 -2.97042e-11)
(4.60966e-10 -5.14818e-10 1.0942e-07 -4.37602e-10 4.55641e-08 -2.33634e-11)
(5.17908e-10 -2.94519e-10 7.71705e-08 -5.04877e-10 4.72567e-08 -1.30306e-11)
(4.12555e-10 -8.42888e-11 5.16163e-08 -4.05e-10 4.33113e-08 -7.55519e-12)
(-1.98146e-10 -3.25826e-11 5.28865e-08 2.35001e-10 -4.43165e-08 -3.68556e-11)
(-3.46641e-10 -1.86013e-10 7.76604e-08 3.87988e-10 -4.74485e-08 -4.13475e-11)
(-4.36101e-10 -4.62645e-10 1.08266e-07 4.79284e-10 -4.49597e-08 -4.31829e-11)
(-3.76558e-10 -7.92827e-10 1.36099e-07 4.14e-10 -3.28168e-08 -3.74414e-11)
(-1.44775e-10 -1.05308e-09 1.52267e-07 1.70222e-10 -1.20005e-08 -2.54474e-11)
(1.93862e-10 -1.1323e-09 1.51085e-07 -1.81087e-10 1.20539e-08 -1.27748e-11)
(5.20671e-10 -1.00723e-09 1.32873e-07 -5.22066e-10 3.2181e-08 1.39502e-12)
(6.89942e-10 -6.86314e-10 1.03789e-07 -6.97291e-10 4.32302e-08 7.34964e-12)
(7.20656e-10 -3.68791e-10 7.29409e-08 -7.36951e-10 4.46731e-08 1.62945e-11)
(5.30382e-10 -8.4788e-11 4.86214e-08 -5.46818e-10 4.08075e-08 1.64362e-11)
(-4.11784e-10 -6.58746e-11 5.67036e-08 4.6341e-10 -4.74987e-08 -5.16267e-11)
(-6.06193e-10 -3.17268e-10 8.27199e-08 6.70906e-10 -5.051e-08 -6.47124e-11)
(-6.52797e-10 -6.7605e-10 1.14522e-07 7.25634e-10 -4.7523e-08 -7.28372e-11)
(-5.1832e-10 -1.06357e-09 1.4308e-07 5.93196e-10 -3.4466e-08 -7.48761e-11)
(-1.90283e-10 -1.31134e-09 1.5925e-07 2.56063e-10 -1.25213e-08 -6.57798e-11)
(2.19274e-10 -1.33327e-09 1.57317e-07 -1.66923e-10 1.25755e-08 -5.23511e-11)
(5.76296e-10 -1.13468e-09 1.37794e-07 -5.43532e-10 3.33929e-08 -3.27647e-11)
(7.42009e-10 -7.50614e-10 1.07198e-07 -7.21524e-10 4.46689e-08 -2.04852e-11)
(7.64188e-10 -3.9886e-10 7.49753e-08 -7.59693e-10 4.5937e-08 -4.49514e-12)
(5.53802e-10 -9.32767e-11 4.96862e-08 -5.53503e-10 4.17188e-08 -2.98857e-13)
(-5.61704e-10 -9.99829e-11 5.78132e-08 5.80142e-10 -4.84126e-08 -1.84383e-11)
(-7.14755e-10 -3.81077e-10 8.39509e-08 7.41363e-10 -5.12399e-08 -2.66085e-11)
(-6.73279e-10 -7.0829e-10 1.1572e-07 7.04556e-10 -4.7995e-08 -3.12766e-11)
(-4.89705e-10 -1.03431e-09 1.43977e-07 5.25228e-10 -3.46548e-08 -3.5523e-11)
(-1.54724e-10 -1.18441e-09 1.59593e-07 1.82994e-10 -1.25205e-08 -2.82699e-11)
(2.04083e-10 -1.13329e-09 1.57015e-07 -1.86108e-10 1.2577e-08 -1.79746e-11)
(4.76159e-10 -9.05549e-10 1.36971e-07 -4.7402e-10 3.32136e-08 -2.13858e-12)
(5.67452e-10 -5.59434e-10 1.06155e-07 -5.73203e-10 4.42471e-08 5.75138e-12)
(5.46445e-10 -2.77816e-10 7.39919e-08 -5.61379e-10 4.5338e-08 1.49338e-11)
(3.53951e-10 -5.28763e-11 4.89453e-08 -3.66274e-10 4.10964e-08 1.2323e-11)
(-6.82915e-10 -1.1979e-10 5.85761e-08 6.74717e-10 -4.90583e-08 8.19748e-12)
(-8.27553e-10 -4.34473e-10 8.52249e-08 8.24072e-10 -5.2028e-08 3.48069e-12)
(-7.18886e-10 -7.3727e-10 1.17581e-07 7.13402e-10 -4.87703e-08 5.48349e-12)
(-4.95241e-10 -1.00729e-09 1.46212e-07 4.92857e-10 -3.51845e-08 2.38392e-12)
(-1.52737e-10 -1.05397e-09 1.61753e-07 1.42281e-10 -1.2669e-08 1.04555e-11)
(1.51442e-10 -9.06711e-10 1.5864e-07 -1.72362e-10 1.27376e-08 2.09198e-11)
(3.14774e-10 -6.16837e-10 1.37809e-07 -3.49826e-10 3.34509e-08 3.5052e-11)
(3.01885e-10 -3.04907e-10 1.06277e-07 -3.44037e-10 4.43295e-08 4.21519e-11)
(1.9099e-10 -9.71126e-11 7.36922e-08 -2.34063e-10 4.51745e-08 4.30734e-11)
(2.64e-11 4.20391e-12 4.85988e-08 -5.98707e-11 4.08062e-08 3.34707e-11)
(-6.73102e-10 -1.13899e-10 5.74279e-08 6.41666e-10 -4.81142e-08 3.14353e-11)
(-8.13325e-10 -4.17073e-10 8.39326e-08 7.77008e-10 -5.12638e-08 3.63161e-11)
(-6.85556e-10 -6.81291e-10 1.16156e-07 6.35659e-10 -4.81965e-08 4.98967e-11)
(-4.678e-10 -9.06511e-10 1.4459e-07 4.12484e-10 -3.47952e-08 5.53154e-11)
(-1.51471e-10 -8.91434e-10 1.59737e-07 8.20341e-11 -1.24902e-08 6.94369e-11)
(9.56661e-11 -6.99213e-10 1.56074e-07 -1.76807e-10 1.25738e-08 8.11413e-11)
(1.78935e-10 -3.87441e-10 1.34745e-07 -2.68638e-10 3.2764e-08 8.97035e-11)
(1.04212e-10 -1.21487e-10 1.03035e-07 -1.93979e-10 4.30357e-08 8.97662e-11)
(-6.11874e-11 2.79031e-11 7.07605e-08 -1.61367e-11 4.34222e-08 7.7324e-11)
(-1.83146e-10 3.81649e-11 4.63381e-08 1.23755e-10 3.89174e-08 5.93908e-11)
(-4.92721e-10 -7.7291e-11 5.60086e-08 4.61657e-10 -4.69402e-08 3.10638e-11)
(-6.39789e-10 -3.20533e-10 8.21091e-08 5.97803e-10 -5.01713e-08 4.19855e-11)
(-5.51586e-10 -5.2537e-10 1.13807e-07 4.85417e-10 -4.72356e-08 6.61695e-11)
(-3.97176e-10 -7.13092e-10 1.41661e-07 3.16093e-10 -3.40904e-08 8.10825e-11)
(-1.52362e-10 -7.0854e-10 1.56177e-07 5.33221e-11 -1.2191e-08 9.90402e-11)
(4.55861e-11 -5.61143e-10 1.51953e-07 -1.53758e-10 1.22831e-08 1.08172e-10)
(1.17172e-10 -3.12909e-10 1.30344e-07 -2.24592e-10 3.17503e-08 1.07419e-10)
(7.22304e-11 -1.08343e-10 9.88075e-08 -1.6967e-10 4.13282e-08 9.74399e-11)
(-5.59297e-11 1.79235e-11 6.72049e-08 -1.92661e-11 4.12874e-08 7.51958e-11)
(-1.25063e-10 2.17727e-11 4.36637e-08 7.07306e-11 3.66844e-08 5.43322e-11)
(-1.02989e-10 -6.61158e-12 5.45787e-08 8.08298e-11 -4.57448e-08 2.21596e-11)
(-1.9167e-10 -8.21111e-11 7.99726e-08 1.57812e-10 -4.88698e-08 3.38584e-11)
(-1.83622e-10 -1.42125e-10 1.10687e-07 1.28701e-10 -4.59402e-08 5.49213e-11)
(-1.71758e-10 -2.41927e-10 1.37543e-07 1.03001e-10 -3.30944e-08 6.87564e-11)
(-9.98656e-11 -2.96377e-10 1.51298e-07 1.95681e-11 -1.17975e-08 8.02975e-11)
(-3.77169e-12 -3.06819e-10 1.46796e-07 -7.66949e-11 1.18856e-08 8.04665e-11)
(8.28894e-11 -2.55206e-10 1.25504e-07 -1.53686e-10 3.05953e-08 7.07969e-11)
(1.34064e-10 -1.72999e-10 9.47796e-08 -1.89208e-10 3.9666e-08 5.51433e-11)
(1.29861e-10 -8.12882e-11 6.42349e-08 -1.66443e-10 3.9481e-08 3.65821e-11)
(1.13269e-10 -2.56922e-11 4.16124e-08 -1.36613e-10 3.49655e-08 2.33439e-11)
(3.35048e-10 6.57098e-11 5.38047e-08 -3.45951e-10 -4.50949e-08 1.09035e-11)
(3.56218e-10 1.97914e-10 7.87513e-08 -3.70638e-10 -4.81189e-08 1.44193e-11)
(2.90228e-10 3.28642e-10 1.08807e-07 -3.08967e-10 -4.51554e-08 1.87394e-11)
(1.42401e-10 3.61497e-10 1.3503e-07 -1.60304e-10 -3.24902e-08 1.79034e-11)
(-1.3855e-12 2.44833e-10 1.48461e-07 -1.01378e-11 -1.15848e-08 1.15233e-11)
(-4.21924e-11 4.4085e-11 1.4413e-07 4.21845e-11 1.16524e-08 7.93006e-15)
(4.69994e-11 -1.4979e-10 1.23451e-07 -3.481e-11 3.0071e-08 -1.21894e-11)
(1.95782e-10 -2.20645e-10 9.3521e-08 -1.73296e-10 3.91144e-08 -2.24858e-11)
(3.31707e-10 -1.82894e-10 6.36309e-08 -3.07571e-10 3.90909e-08 -2.41356e-11)
(3.56911e-10 -7.11987e-11 4.1343e-08 -3.34984e-10 3.47323e-08 -2.19271e-11)
(6.32379e-10 1.07717e-10 5.32704e-08 -6.57752e-10 -4.46564e-08 2.53726e-11)
(8.40932e-10 4.44065e-10 7.82634e-08 -8.63225e-10 -4.78307e-08 2.22928e-11)
(7.91836e-10 8.20646e-10 1.08484e-07 -7.95348e-10 -4.50371e-08 3.51237e-12)
(5.36569e-10 1.09724e-09 1.3504e-07 -5.14754e-10 -3.25177e-08 -2.18144e-11)
(1.5705e-10 1.05817e-09 1.49043e-07 -1.02122e-10 -1.16709e-08 -5.49276e-11)
(-1.19154e-10 7.58977e-10 1.45455e-07 2.02409e-10 1.17031e-08 -8.32541e-11)
(-1.61254e-10 3.31788e-10 1.25471e-07 2.60518e-10 3.04953e-08 -9.92638e-11)
(-1.53483e-11 2.23547e-11 9.59229e-08 1.18077e-10 4.0053e-08 -1.02729e-10)
(2.25759e-10 -1.19687e-10 6.59069e-08 -1.3919e-10 4.04379e-08 -8.65689e-11)
(3.3855e-10 -6.85138e-11 4.3147e-08 -2.7043e-10 3.62313e-08 -6.81194e-11)
(5.90882e-10 8.96022e-11 5.15474e-08 -6.57672e-10 -4.3241e-08 6.67905e-11)
(9.73576e-10 5.07316e-10 7.68106e-08 -1.04237e-09 -4.69936e-08 6.87897e-11)
(1.06286e-09 1.08563e-09 1.08037e-07 -1.10515e-09 -4.49141e-08 4.22905e-11)
(8.3691e-10 1.66105e-09 1.36178e-07 -8.36097e-10 -3.28587e-08 -8.12901e-13)
(3.12924e-10 1.88778e-09 1.52031e-07 -2.54381e-10 -1.19786e-08 -5.85421e-11)
(-2.34862e-10 1.7024e-09 1.50064e-07 3.41758e-10 1.19923e-08 -1.06896e-10)
(-5.60993e-10 1.19045e-09 1.31048e-07 6.96344e-10 3.17619e-08 -1.3535e-10)
(-5.79158e-10 6.21705e-10 1.01607e-07 7.19242e-10 4.2341e-08 -1.40084e-10)
(-3.52543e-10 1.9133e-10 7.0868e-08 4.73958e-10 4.34121e-08 -1.21414e-10)
(-1.03379e-10 1.00323e-11 4.70025e-08 2.00315e-10 3.94429e-08 -9.69367e-11)
(1.55513e-10 1.47684e-11 4.77566e-08 -2.50265e-10 -4.01008e-08 9.47518e-11)
(5.03048e-10 2.6923e-10 7.27361e-08 -6.16571e-10 -4.45873e-08 1.13523e-10)
(7.20676e-10 7.52347e-10 1.04847e-07 -8.26265e-10 -4.36965e-08 1.0559e-10)
(6.75228e-10 1.3588e-09 1.35047e-07 -7.45908e-10 -3.26958e-08 7.06806e-11)
(2.96349e-10 1.80475e-09 1.53637e-07 -3.09948e-10 -1.22088e-08 1.35992e-11)
(-2.6181e-10 1.89257e-09 1.54222e-07 3.03484e-10 1.22307e-08 -4.16735e-11)
(-7.5756e-10 1.59622e-09 1.36859e-07 8.39352e-10 3.30849e-08 -8.17923e-11)
(-9.79435e-10 1.03735e-09 1.07857e-07 1.07346e-09 4.48694e-08 -9.40291e-11)
(-9.27016e-10 4.97876e-10 7.65142e-08 1.01599e-09 4.68094e-08 -8.89706e-11)
(-6.44252e-10 1.10724e-10 5.15429e-08 7.16525e-10 4.32235e-08 -7.22732e-11)
(-3.88862e-10 -6.74355e-11 4.37207e-08 3.11548e-10 -3.67423e-08 7.73142e-11)
(-3.18574e-10 -1.48206e-10 6.76466e-08 2.12585e-10 -4.15499e-08 1.05988e-10)
(-1.19754e-10 -7.93786e-11 9.9513e-08 -8.39219e-12 -4.15872e-08 1.28146e-10)
(3.4894e-11 1.33614e-10 1.30748e-07 -1.57937e-10 -3.17803e-08 1.23043e-10)
(6.05662e-11 4.72852e-10 1.51409e-07 -1.589e-10 -1.21484e-08 9.83342e-11)
(-1.1115e-10 7.51512e-10 1.54311e-07 4.68973e-11 1.21444e-08 6.42528e-11)
(-4.16728e-10 8.68258e-10 1.38678e-07 3.84236e-10 3.3462e-08 3.24921e-11)
(-6.74865e-10 7.08321e-10 1.10393e-07 6.55165e-10 4.58886e-08 1.96993e-11)
(-8.4691e-10 4.54593e-10 7.89519e-08 8.38299e-10 4.8284e-08 8.61106e-12)
(-7.37332e-10 1.35664e-10 5.35286e-08 7.29487e-10 4.48745e-08 7.84523e-12)
(-3.86669e-10 -5.69299e-11 4.12003e-08 3.47426e-10 -3.46375e-08 3.92427e-11)
(-4.98367e-10 -2.37462e-10 6.38595e-08 4.34864e-10 -3.92758e-08 6.35023e-11)
(-4.16287e-10 -3.68977e-10 9.44694e-08 3.17357e-10 -3.95593e-08 9.89305e-11)
(-2.80152e-10 -4.50851e-10 1.25152e-07 1.6162e-10 -3.05204e-08 1.18533e-10)
(-1.01102e-10 -3.37121e-10 1.46085e-07 -2.94938e-11 -1.18181e-08 1.30596e-10)
(-2.18598e-11 -1.11306e-10 1.49818e-07 -1.07364e-10 1.17187e-08 1.29224e-10)
(-1.08268e-10 1.55969e-10 1.35049e-07 -9.33315e-12 3.25543e-08 1.17601e-10)
(-2.79603e-10 2.60803e-10 1.0737e-07 1.71499e-10 4.46368e-08 1.08104e-10)
(-5.1509e-10 2.64038e-10 7.6372e-08 4.28857e-10 4.67311e-08 8.6233e-11)
(-5.38769e-10 9.83542e-11 5.14239e-08 4.6945e-10 4.31156e-08 6.93186e-11)
(4.23068e-10 8.28875e-11 4.02097e-08 -4.2991e-10 -3.38021e-08 6.8419e-12)
(4.48764e-10 2.47564e-10 6.19861e-08 -4.66597e-10 -3.8136e-08 1.78329e-11)
(4.09305e-10 4.56067e-10 9.12656e-08 -4.49891e-10 -3.82402e-08 4.05864e-11)
(2.62009e-10 6.23071e-10 1.20632e-07 -3.26752e-10 -2.94531e-08 6.47437e-11)
(5.16414e-11 7.18581e-10 1.40556e-07 -1.40746e-10 -1.14057e-08 8.91049e-11)
(-1.79513e-10 7.30057e-10 1.43838e-07 7.28381e-11 1.12276e-08 1.06675e-10)
(-4.02882e-10 6.73681e-10 1.29167e-07 2.94902e-10 3.11341e-08 1.0798e-10)
(-5.43927e-10 4.9262e-10 1.0205e-07 4.41617e-10 4.24429e-08 1.0231e-10)
(-6.52408e-10 3.15607e-10 7.19341e-08 5.73757e-10 4.40419e-08 7.86514e-11)
(-5.48753e-10 8.53045e-11 4.79833e-08 4.89451e-10 4.02408e-08 5.93015e-11)
(1.38848e-09 2.39437e-10 4.0264e-08 -1.37751e-09 -3.38328e-08 -1.09658e-11)
(1.73234e-09 9.01664e-10 6.18036e-08 -1.72107e-09 -3.79961e-08 -1.12634e-11)
(1.61756e-09 1.6557e-09 9.04281e-08 -1.60325e-09 -3.78517e-08 -1.43092e-11)
(1.14737e-09 2.34314e-09 1.18772e-07 -1.14701e-09 -2.89587e-08 -3.61241e-13)
(3.56261e-10 2.58544e-09 1.37597e-07 -3.68916e-10 -1.11284e-08 1.26555e-11)
(-4.3523e-10 2.38622e-09 1.40116e-07 4.0402e-10 1.09668e-08 3.12098e-11)
(-9.94438e-10 1.84125e-09 1.25309e-07 9.58641e-10 3.02244e-08 3.57974e-11)
(-1.17483e-09 1.12217e-09 9.86789e-08 1.13767e-09 4.10531e-08 3.71604e-11)
(-1.11283e-09 5.44192e-10 6.93834e-08 1.09105e-09 4.24861e-08 2.17826e-11)
(-7.64812e-10 1.08496e-10 4.62008e-08 7.51931e-10 3.87478e-08 1.28812e-11)
(1.70108e-09 2.82238e-10 4.08026e-08 -1.6902e-09 -3.42718e-08 -1.08795e-11)
(2.25867e-09 1.16344e-09 6.26332e-08 -2.24374e-09 -3.84658e-08 -1.49264e-11)
(2.16374e-09 2.18e-09 9.1427e-08 -2.12693e-09 -3.82117e-08 -3.68134e-11)
(1.60884e-09 3.19721e-09 1.19554e-07 -1.57345e-09 -2.9078e-08 -3.53961e-11)
(5.50269e-10 3.61191e-09 1.37918e-07 -5.09304e-10 -1.10865e-08 -4.09653e-11)
(-5.59459e-10 3.38275e-09 1.39978e-07 5.91674e-10 1.10082e-08 -3.22156e-11)
(-1.35361e-09 2.61004e-09 1.25004e-07 1.38438e-09 3.01791e-08 -3.07663e-11)
(-1.60269e-09 1.5776e-09 9.85324e-08 1.62554e-09 4.09973e-08 -2.28485e-11)
(-1.47485e-09 7.38728e-10 6.95318e-08 1.50317e-09 4.25682e-08 -2.8322e-11)
(-9.74429e-10 1.42067e-10 4.65329e-08 9.99272e-10 3.90186e-08 -2.48431e-11)
(1.25904e-09 2.0051e-10 4.10072e-08 -1.25818e-09 -3.44471e-08 -8.61634e-13)
(1.79297e-09 9.16749e-10 6.32204e-08 -1.79229e-09 -3.88146e-08 -6.77916e-13)
(1.78674e-09 1.78373e-09 9.25674e-08 -1.76507e-09 -3.86651e-08 -2.16715e-11)
(1.40405e-09 2.74957e-09 1.21119e-07 -1.37933e-09 -2.94223e-08 -2.47181e-11)
(5.20493e-10 3.25063e-09 1.39735e-07 -4.81417e-10 -1.11952e-08 -3.9076e-11)
(-4.96991e-10 3.1753e-09 1.41853e-07 5.37016e-10 1.11845e-08 -4.00253e-11)
(-1.29398e-09 2.55004e-09 1.26853e-07 1.3388e-09 3.06373e-08 -4.48199e-11)
(-1.59418e-09 1.5947e-09 1.0031e-07 1.6315e-09 4.17311e-08 -3.73195e-11)
(-1.52392e-09 7.75743e-10 7.11848e-08 1.56447e-09 4.35629e-08 -4.05457e-11)
(-1.04359e-09 1.6031e-10 4.79844e-08 1.077e-09 4.02191e-08 -3.34092e-11)
(6.78158e-10 1.04641e-10 4.08973e-08 -6.79087e-10 -3.43718e-08 9.28489e-13)
(1.01921e-09 5.17172e-10 6.32645e-08 -1.02363e-09 -3.88563e-08 4.41325e-12)
(1.057e-09 1.04316e-09 9.2892e-08 -1.0535e-09 -3.88132e-08 -3.49879e-12)
(8.93774e-10 1.7239e-09 1.21815e-07 -8.95223e-10 -2.96001e-08 1.44909e-12)
(3.66321e-10 2.19948e-09 1.40829e-07 -3.62358e-10 -1.12888e-08 -3.96263e-12)
(-3.4897e-10 2.3228e-09 1.43274e-07 3.52083e-10 1.12902e-08 -3.11362e-12)
(-1.01393e-09 2.02863e-09 1.28473e-07 1.02317e-09 3.10186e-08 -9.24473e-12)
(-1.35477e-09 1.37236e-09 1.01975e-07 1.36031e-09 4.24079e-08 -5.5415e-12)
(-1.42026e-09 7.35666e-10 7.27634e-08 1.43523e-09 4.45091e-08 -1.49681e-11)
(-1.06183e-09 1.75509e-10 4.93979e-08 1.07444e-09 4.13845e-08 -1.26021e-11)
(5.38006e-10 8.99078e-11 4.09571e-08 -5.14848e-10 -3.44388e-08 -2.31577e-11)
(6.92789e-10 3.52661e-10 6.33709e-08 -6.70177e-10 -3.89316e-08 -2.26114e-11)
(6.48114e-10 6.36355e-10 9.28897e-08 -6.26483e-10 -3.88143e-08 -2.16315e-11)
(5.28391e-10 1.0121e-09 1.21675e-07 -5.23614e-10 -2.95628e-08 -4.77652e-12)
(2.17808e-10 1.3006e-09 1.40546e-07 -2.25453e-10 -1.12541e-08 7.64523e-12)
(-2.17202e-10 1.43422e-09 1.42894e-07 1.95546e-10 1.12805e-08 2.16558e-11)
(-6.70593e-10 1.33588e-09 1.28065e-07 6.48608e-10 3.09477e-08 2.19847e-11)
(-9.46269e-10 9.56175e-10 1.01589e-07 9.21831e-10 4.22744e-08 2.44382e-11)
(-1.0682e-09 5.54842e-10 7.25187e-08 1.05914e-09 4.43827e-08 9.05722e-12)
(-8.2899e-10 1.39519e-10 4.9305e-08 8.22188e-10 4.13125e-08 6.80241e-12)
(7.0646e-10 1.33266e-10 4.26545e-08 -6.06998e-10 -3.58446e-08 -9.94624e-11)
(6.2484e-10 3.21047e-10 6.52576e-08 -5.07832e-10 -4.00327e-08 -1.17008e-10)
(3.13648e-10 2.91561e-10 9.44469e-08 -1.84272e-10 -3.93886e-08 -1.29376e-10)
(1.0576e-10 1.57741e-10 1.22476e-07 8.11449e-12 -2.96768e-08 -1.13875e-10)
(4.23105e-12 -1.1303e-10 1.40477e-07 9.12922e-11 -1.11708e-08 -9.55233e-11)
(6.63158e-11 -3.16441e-10 1.42184e-07 5.9476e-12 1.12934e-08 -7.22634e-11)
(2.18758e-10 -4.06018e-10 1.27161e-07 -1.61897e-10 3.07881e-08 -5.68606e-11)
(3.67409e-10 -3.58921e-10 1.00838e-07 -3.23855e-10 4.20041e-08 -4.35541e-11)
(4.30004e-10 -2.15745e-10 7.2164e-08 -3.93489e-10 4.42006e-08 -3.65149e-11)
(4.42682e-10 -7.84211e-11 4.91315e-08 -4.20811e-10 4.11923e-08 -2.18709e-11)
(3.84307e-10 8.79246e-11 4.90327e-08 -1.66694e-10 -4.11226e-08 -2.17612e-10)
(-9.35551e-11 -5.98857e-11 7.29692e-08 3.60163e-10 -4.46117e-08 -2.66608e-10)
(-7.073e-10 -7.79599e-10 1.02863e-07 1.01867e-09 -4.27345e-08 -3.11373e-10)
(-8.63461e-10 -1.86123e-09 1.30698e-07 1.18173e-09 -3.15235e-08 -3.18265e-10)
(-4.03231e-10 -3.05705e-09 1.47944e-07 7.0728e-10 -1.16604e-08 -3.04048e-10)
(6.57751e-10 -3.74677e-09 1.48657e-07 -3.907e-10 1.1866e-08 -2.67051e-10)
(1.92509e-09 -3.69693e-09 1.3262e-07 -1.71607e-09 3.21313e-08 -2.09017e-10)
(2.78044e-09 -2.76036e-09 1.05202e-07 -2.62378e-09 4.38242e-08 -1.56658e-10)
(3.09926e-09 -1.58561e-09 7.53461e-08 -3.01217e-09 4.61595e-08 -8.70844e-11)
(2.5276e-09 -4.23631e-10 5.09834e-08 -2.48412e-09 4.2787e-08 -4.34824e-11)
(-8.53598e-10 -1.29538e-10 6.10956e-08 1.17333e-09 -5.11237e-08 -3.19734e-10)
(-1.77277e-09 -9.5966e-10 8.7788e-08 2.16881e-09 -5.34792e-08 -3.96044e-10)
(-2.39887e-09 -2.56416e-09 1.19795e-07 2.85758e-09 -4.95791e-08 -4.58709e-10)
(-2.15182e-09 -4.57519e-09 1.48271e-07 2.6299e-09 -3.56079e-08 -4.78075e-10)
(-8.41327e-10 -6.34835e-09 1.64597e-07 1.28878e-09 -1.28745e-08 -4.47455e-10)
(1.24487e-09 -7.06275e-09 1.62974e-07 -8.6836e-10 1.30587e-08 -3.76513e-10)
(3.37493e-09 -6.473e-09 1.43591e-07 -3.11548e-09 3.48083e-08 -2.59445e-10)
(4.5594e-09 -4.52151e-09 1.12462e-07 -4.39209e-09 4.68671e-08 -1.67312e-10)
(4.82288e-09 -2.46426e-09 7.91451e-08 -4.77072e-09 4.8515e-08 -5.21574e-11)
(3.59674e-09 -5.83806e-10 5.22826e-08 -3.58754e-09 4.39389e-08 -9.19758e-12)
(-2.47373e-09 -4.35301e-10 7.68471e-08 2.78043e-09 -6.41998e-08 -3.06707e-10)
(-3.52274e-09 -1.9072e-09 1.07093e-07 3.90748e-09 -6.50807e-08 -3.84734e-10)
(-3.68523e-09 -3.92624e-09 1.41758e-07 4.11165e-09 -5.85063e-08 -4.26427e-10)
(-2.87164e-09 -6.1054e-09 1.70696e-07 3.30588e-09 -4.08438e-08 -4.34236e-10)
(-9.91683e-10 -7.52952e-09 1.84728e-07 1.3603e-09 -1.43188e-08 -3.68614e-10)
(1.35041e-09 -7.65223e-09 1.78444e-07 -1.08427e-09 1.44147e-08 -2.66143e-10)
(3.3594e-09 -6.45862e-09 1.53199e-07 -3.2344e-09 3.72417e-08 -1.24998e-10)
(4.19674e-09 -4.17523e-09 1.16705e-07 -4.16137e-09 4.87342e-08 -3.53681e-11)
(4.14808e-09 -2.12664e-09 7.95735e-08 -4.20557e-09 4.88507e-08 5.74899e-11)
(2.80732e-09 -4.433e-10 5.10921e-08 -2.86997e-09 4.29922e-08 6.26533e-11)
(-3.11242e-09 -5.78404e-10 8.83377e-08 3.21655e-09 -7.37609e-08 -1.04136e-10)
(-3.73771e-09 -2.03146e-09 1.21251e-07 3.89777e-09 -7.36265e-08 -1.60056e-10)
(-3.22868e-09 -3.44316e-09 1.57449e-07 3.40042e-09 -6.48902e-08 -1.71742e-10)
(-2.21038e-09 -4.71484e-09 1.85579e-07 2.39277e-09 -4.42807e-08 -1.82386e-10)
(-6.66627e-10 -5.11316e-09 1.95986e-07 7.94044e-10 -1.50341e-08 -1.27417e-10)
(8.25511e-10 -4.69561e-09 1.84232e-07 -7.66889e-10 1.50601e-08 -5.86216e-11)
(1.86965e-09 -3.62702e-09 1.53409e-07 -1.89803e-09 3.74707e-08 2.83774e-11)
(2.15248e-09 -2.16678e-09 1.13061e-07 -2.22008e-09 4.73719e-08 6.75988e-11)
(2.01169e-09 -1.04708e-09 7.44008e-08 -2.11384e-09 4.57853e-08 1.02152e-10)
(1.22086e-09 -1.89604e-10 4.64264e-08 -1.30328e-09 3.91154e-08 8.24225e-11)
(-2.1717e-09 -4.33664e-10 8.76747e-08 1.93566e-09 -7.32943e-08 2.36042e-10)
(-1.93675e-09 -1.05733e-09 1.21988e-07 1.701e-09 -7.42115e-08 2.35753e-10)
(-9.35108e-10 -9.90177e-10 1.59651e-07 6.90999e-10 -6.58954e-08 2.44109e-10)
(-3.03639e-10 -6.57982e-10 1.88316e-07 1.09722e-10 -4.49673e-08 1.93917e-10)
(1.67751e-11 4.02781e-11 1.97576e-07 -1.82558e-10 -1.51214e-08 1.65783e-10)
(-8.80878e-11 5.00081e-10 1.8359e-07 -4.32577e-11 1.5084e-08 1.31346e-10)
(-3.46899e-10 6.28051e-10 1.50577e-07 2.35777e-10 3.68664e-08 1.11121e-10)
(-5.22204e-10 4.84734e-10 1.09117e-07 4.35887e-10 4.57972e-08 8.63164e-11)
(-4.89805e-10 2.2627e-10 7.0502e-08 4.19876e-10 4.34384e-08 6.99287e-11)
(-4.42654e-10 7.07393e-11 4.33235e-08 3.95245e-10 3.65248e-08 4.74083e-11)
(5.35468e-11 -2.93789e-11 7.08709e-08 -4.78272e-10 -5.94153e-08 4.24726e-10)
(1.01929e-09 5.43853e-10 1.03048e-07 -1.52563e-09 -6.30002e-08 5.06344e-10)
(2.03382e-09 2.17657e-09 1.40632e-07 -2.59658e-09 -5.83615e-08 5.62761e-10)
(1.95332e-09 4.15307e-09 1.71467e-07 -2.47575e-09 -4.12066e-08 5.2243e-10)
(7.72077e-10 5.79545e-09 1.8399e-07 -1.20577e-09 -1.42542e-08 4.33693e-10)
(-1.08367e-09 6.16276e-09 1.73468e-07 7.70963e-10 1.41575e-08 3.12711e-10)
(-2.74216e-09 5.24964e-09 1.4354e-07 2.55139e-09 3.51001e-08 1.90768e-10)
(-3.44691e-09 3.40712e-09 1.04584e-07 3.33829e-09 4.38766e-08 1.08621e-10)
(-3.31278e-09 1.68156e-09 6.78158e-08 3.27425e-09 4.17707e-08 3.85276e-11)
(-2.38878e-09 3.87881e-10 4.18403e-08 2.37741e-09 3.52582e-08 1.13681e-11)
(2.45158e-09 4.18094e-10 5.19259e-08 -2.80485e-09 -4.36451e-08 3.53276e-10)
(3.79238e-09 2.03167e-09 7.91751e-08 -4.25766e-09 -4.8633e-08 4.65281e-10)
(4.35522e-09 4.61711e-09 1.13626e-07 -4.90458e-09 -4.74194e-08 5.49362e-10)
(3.55259e-09 7.53305e-09 1.45055e-07 -4.1263e-09 -3.51152e-08 5.73707e-10)
(1.25567e-09 9.54058e-09 1.61798e-07 -1.76428e-09 -1.27395e-08 5.08616e-10)
(-1.73737e-09 9.78313e-09 1.57596e-07 1.34156e-09 1.27195e-08 3.95801e-10)
(-4.3241e-09 8.2745e-09 1.34137e-07 4.0813e-09 3.2713e-08 2.42806e-10)
(-5.45566e-09 5.40815e-09 1.00236e-07 5.31517e-09 4.19936e-08 1.40492e-10)
(-5.42303e-09 2.77302e-09 6.67666e-08 5.39619e-09 4.10797e-08 2.68419e-11)
(-3.91244e-09 6.37524e-10 4.23605e-08 3.91961e-09 3.56431e-08 -7.16928e-12)
(3.12742e-09 5.54178e-10 3.85326e-08 -3.28743e-09 -3.24309e-08 1.60013e-10)
(4.30079e-09 2.30082e-09 6.11453e-08 -4.53912e-09 -3.76358e-08 2.38334e-10)
(4.30729e-09 4.54313e-09 9.13215e-08 -4.603e-09 -3.82041e-08 2.95708e-10)
(3.28412e-09 6.96146e-09 1.20802e-07 -3.64804e-09 -2.93351e-08 3.63925e-10)
(1.07508e-09 8.34191e-09 1.39264e-07 -1.43111e-09 -1.10482e-08 3.56032e-10)
(-1.51188e-09 8.3261e-09 1.39872e-07 1.19722e-09 1.12214e-08 3.1467e-10)
(-3.68153e-09 6.99337e-09 1.22695e-07 3.47014e-09 2.98718e-08 2.11382e-10)
(-4.63832e-09 4.58567e-09 9.44938e-08 4.49853e-09 3.95386e-08 1.39794e-10)
(-4.76697e-09 2.4443e-09 6.5212e-08 4.73647e-09 4.00798e-08 3.04983e-11)
(-3.43939e-09 5.5875e-10 4.2939e-08 3.43829e-09 3.60671e-08 1.10308e-12)
(1.84296e-09 3.42489e-10 3.48973e-08 -1.86478e-09 -2.93341e-08 2.18291e-11)
(2.38176e-09 1.29729e-09 5.51637e-08 -2.44368e-09 -3.38646e-08 6.19203e-11)
(2.06678e-09 2.2246e-09 8.23036e-08 -2.15128e-09 -3.43413e-08 8.4504e-11)
(1.42348e-09 3.15279e-09 1.0888e-07 -1.57058e-09 -2.63635e-08 1.47107e-10)
(3.5625e-10 3.42695e-09 1.26269e-07 -5.24779e-10 -9.98055e-09 1.68529e-10)
(-6.70391e-10 3.17379e-09 1.28106e-07 4.91599e-10 1.02767e-08 1.78792e-10)
(-1.42349e-09 2.54468e-09 1.13983e-07 1.28073e-09 2.77255e-08 1.42765e-10)
(-1.68746e-09 1.6052e-09 8.92854e-08 1.57121e-09 3.73181e-08 1.16248e-10)
(-1.81538e-09 9.15523e-10 6.29243e-08 1.76334e-09 3.86374e-08 5.20403e-11)
(-1.23848e-09 1.88954e-10 4.23479e-08 1.2049e-09 3.55254e-08 3.35732e-11)
(-5.5955e-10 -8.32405e-11 3.49205e-08 5.67975e-10 -2.93264e-08 -8.42476e-12)
(-7.15123e-10 -3.43295e-10 5.44325e-08 6.96185e-10 -3.33817e-08 1.8938e-11)
(-8.86869e-10 -8.43295e-10 8.03883e-08 8.40505e-10 -3.35224e-08 4.63647e-11)
(-7.27709e-10 -1.29347e-09 1.05391e-07 6.34754e-10 -2.5519e-08 9.29555e-11)
(-3.5272e-10 -1.66829e-09 1.21505e-07 2.32355e-10 -9.63404e-09 1.20365e-10)
(1.83285e-10 -1.76754e-09 1.22827e-07 -3.14623e-10 9.80166e-09 1.31338e-10)
(7.0012e-10 -1.54675e-09 1.0904e-07 -8.16219e-10 2.64667e-08 1.16099e-10)
(1.02439e-09 -1.09193e-09 8.52236e-08 -1.11427e-09 3.55766e-08 8.98743e-11)
(1.02078e-09 -5.403e-10 5.98259e-08 -1.07416e-09 3.67115e-08 5.33756e-11)
(9.14178e-10 -1.6647e-10 4.00687e-08 -9.46334e-10 3.35945e-08 3.21558e-11)
(-1.7549e-09 -3.13937e-10 3.49417e-08 1.75212e-09 -2.93453e-08 2.77681e-12)
(-2.01851e-09 -1.05272e-09 5.3214e-08 2.00656e-09 -3.26537e-08 1.19517e-11)
(-1.80347e-09 -1.82584e-09 7.70145e-08 1.75685e-09 -3.21645e-08 4.66231e-11)
(-1.20195e-09 -2.35649e-09 9.97592e-08 1.13433e-09 -2.42458e-08 6.76143e-11)
(-4.08488e-10 -2.43622e-09 1.14127e-07 3.42561e-10 -9.17311e-09 6.59271e-11)
(3.17866e-10 -2.21367e-09 1.15033e-07 -3.41297e-10 9.02953e-09 2.34317e-11)
(9.18535e-10 -1.86627e-09 1.02228e-07 -8.82897e-10 2.46505e-08 -3.56384e-11)
(1.34869e-09 -1.37729e-09 8.04136e-08 -1.2459e-09 3.34154e-08 -1.02788e-10)
(1.69999e-09 -8.91796e-10 5.70201e-08 -1.56992e-09 3.4858e-08 -1.30076e-10)
(1.65296e-09 -3.03668e-10 3.87355e-08 -1.52109e-09 3.24092e-08 -1.31871e-10)
(-8.55827e-10 -1.99865e-10 3.67804e-08 7.31504e-10 -3.09967e-08 1.24323e-10)
(-4.59101e-10 -2.7384e-10 5.59879e-08 3.45291e-10 -3.44099e-08 1.1381e-10)
(6.77075e-11 3.39716e-11 8.00078e-08 -1.95525e-10 -3.34599e-08 1.27818e-10)
(3.87116e-10 6.94979e-10 1.03564e-07 -4.81681e-10 -2.52601e-08 9.45654e-11)
(2.86509e-10 1.45967e-09 1.19837e-07 -2.88415e-10 -9.77537e-09 1.90574e-12)
(-1.91575e-10 1.82106e-09 1.23865e-07 3.47892e-10 9.51284e-09 -1.56317e-10)
(-5.99945e-10 1.44779e-09 1.14581e-07 9.28373e-10 2.73562e-08 -3.28429e-10)
(-5.29655e-10 6.82114e-10 9.54577e-08 1.00068e-09 3.93491e-08 -4.71021e-10)
(2.39154e-10 -6.77276e-11 7.28933e-08 2.81972e-10 4.42808e-08 -5.21127e-10)
(9.64069e-10 -1.79846e-10 5.28886e-08 -4.83723e-10 4.41824e-08 -4.80346e-10)
(1.3319e-09 1.64208e-10 2.829e-08 -1.26331e-09 -2.41183e-08 -6.85941e-11)