/*--------------------------------*- C++ -*----------------------------------*\
| =========                 |                                                 |
| \\      /  F ield         | OpenFOAM: The Open Source CFD Toolbox           |
|  \\    /   O peration     | Version:  2406                                  |
|   \\  /    A nd           | Website:  www.openfoam.com                      |
|    \\/     M anipulation  |                                                 |
\*---------------------------------------------------------------------------*/
FoamFile
{
    version     2.0;
    format      ascii;
    arch        "LSB;label=32;scalar=64";
    class       volVectorField;
    location    "0.7";
    object      U;
}
// * * * * * * * * * * * * * * * * * * * * * * * * * * * * * * * * * * * * * //

dimensions      [0 1 -1 0 0 0 0];

internalField   nonuniform List<vector> 
25000
(
(0.148418 0.148313 1.1262)
(0.121998 0.159869 1.15826)
(0.0899327 0.168833 1.17613)
(0.0551608 0.174494 1.18556)
(0.018674 0.177332 1.18956)
(-0.0183298 0.177338 1.18956)
(-0.0548293 0.17451 1.18557)
(-0.0896283 0.168856 1.17614)
(-0.121738 0.159892 1.15829)
(-0.148246 0.148337 1.12624)
(0.159965 0.121879 1.15826)
(0.130201 0.130103 1.18751)
(0.0952317 0.136463 1.19952)
(0.0579974 0.140584 1.20387)
(0.0195694 0.142606 1.20509)
(-0.0192095 0.142608 1.20509)
(-0.0576523 0.14059 1.20388)
(-0.0949157 0.13647 1.19954)
(-0.129934 0.130111 1.18753)
(-0.159785 0.121892 1.15829)
(0.168928 0.0898054 1.17612)
(0.136552 0.0951304 1.19952)
(0.0993523 0.0992639 1.20671)
(0.0602189 0.101952 1.20743)
(0.0202652 0.103255 1.20673)
(-0.019896 0.103254 1.20673)
(-0.0598653 0.101951 1.20744)
(-0.0990302 0.0992618 1.20672)
(-0.136279 0.0951285 1.19954)
(-0.168738 0.0898093 1.17614)
(0.174594 0.0550247 1.18554)
(0.140675 0.0578897 1.20386)
(0.102037 0.0601267 1.20743)
(0.0616643 0.0615788 1.20573)
(0.0207144 0.0622765 1.20381)
(-0.0203442 0.0622738 1.20381)
(-0.0613097 0.0615714 1.20573)
(-0.101712 0.0601167 1.20744)
(-0.140397 0.05788 1.20387)
(-0.174397 0.0550201 1.18557)
(0.17744 0.0185341 1.18953)
(0.142701 0.0194579 1.20507)
(0.103341 0.0201705 1.20672)
(0.062361 0.0206278 1.2038)
(0.0209277 0.0208438 1.20129)
(-0.0205632 0.0208391 1.20129)
(-0.0620097 0.0206152 1.2038)
(-0.103017 0.0201536 1.20673)
(-0.142419 0.0194413 1.20508)
(-0.177233 0.0185227 1.18956)
(0.177453 -0.0184659 1.18952)
(0.14271 -0.0193172 1.20506)
(0.103345 -0.0199871 1.20671)
(0.0623602 -0.0204274 1.20379)
(0.0209234 -0.0206439 1.20129)
(-0.0205694 -0.0206507 1.20129)
(-0.0620166 -0.020446 1.2038)
(-0.103023 -0.0200121 1.20672)
(-0.142423 -0.0193414 1.20508)
(-0.177236 -0.018484 1.18956)
(0.17463 -0.0549546 1.18551)
(0.140699 -0.0577493 1.20383)
(0.102046 -0.0599474 1.2074)
(0.0616602 -0.0613858 1.2057)
(0.0207004 -0.062086 1.20379)
(-0.0203632 -0.0620957 1.20379)
(-0.0613292 -0.0614121 1.20571)
(-0.101729 -0.0599833 1.20742)
(-0.140409 -0.0577849 1.20386)
(-0.174403 -0.054982 1.18556)
(0.168978 -0.0897367 1.17607)
(0.136582 -0.0949977 1.19948)
(0.09936 -0.0991004 1.20667)
(0.0602072 -0.101781 1.2074)
(0.0202404 -0.10309 1.2067)
(-0.0199267 -0.103103 1.2067)
(-0.0598958 -0.101817 1.20741)
(-0.099055 -0.0991509 1.20669)
(-0.136294 -0.0950495 1.19951)
(-0.168744 -0.089778 1.17612)
(0.160019 -0.121821 1.15821)
(0.130223 -0.129995 1.18746)
(0.095228 -0.136337 1.19947)
(0.0579742 -0.14046 1.20382)
(0.0195341 -0.14249 1.20505)
(-0.0192489 -0.142506 1.20505)
(-0.0576895 -0.140504 1.20384)
(-0.0949445 -0.136403 1.1995)
(-0.129947 -0.13007 1.1875)
(-0.159779 -0.121886 1.15826)
(0.148456 -0.148283 1.12615)
(0.121998 -0.159818 1.15821)
(0.0899122 -0.168782 1.17607)
(0.0551266 -0.174451 1.18551)
(0.0186331 -0.177299 1.18952)
(-0.0183717 -0.177315 1.18953)
(-0.0548677 -0.174497 1.18553)
(-0.0896579 -0.168857 1.17611)
(-0.121751 -0.159916 1.15825)
(-0.148232 -0.148383 1.12621)
(0.0513895 0.0509022 1.26818)
(0.0461326 0.0605291 1.35225)
(0.0371115 0.0684592 1.40689)
(0.0241011 0.074306 1.43934)
(0.00876985 0.0773262 1.45436)
(-0.00734418 0.0773434 1.45443)
(-0.0227231 0.0743576 1.43955)
(-0.0358372 0.0685392 1.40725)
(-0.0450217 0.0606312 1.35278)
(-0.0505591 0.0510197 1.26886)
(0.0609522 0.0455281 1.35222)
(0.0558778 0.0553707 1.44126)
(0.0448084 0.063215 1.49032)
(0.028918 0.0686979 1.51619)
(0.0103564 0.0715189 1.52735)
(-0.00905753 0.0715235 1.52741)
(-0.027665 0.0687109 1.51635)
(-0.0436524 0.0632334 1.49059)
(-0.0548786 0.055397 1.44167)
(-0.0602141 0.0455771 1.35279)
(0.0688435 0.0364349 1.40682)
(0.063665 0.0442354 1.49028)
(0.0508304 0.0503225 1.53356)
(0.0326466 0.0545054 1.55471)
(0.0115829 0.0566523 1.5632)
(-0.0103749 0.0566485 1.56324)
(-0.0314833 0.0544939 1.55485)
(-0.0497611 0.0503037 1.53379)
(-0.0627453 0.0442144 1.49062)
(-0.0681614 0.0364238 1.40729)
(0.0746745 0.02337 1.43922)
(0.0691245 0.0282908 1.51612)
(0.0549825 0.0320883 1.55468)
(0.035189 0.0346678 1.57237)
(0.0124168 0.0359883 1.57893)
(-0.0112744 0.0359798 1.57897)
(-0.0340894 0.0346425 1.57249)
(-0.053971 0.0320482 1.55488)
(-0.0682522 0.0282408 1.51641)
(-0.0740193 0.0233155 1.43962)
(0.0776862 0.00801434 1.45418)
(0.0719411 0.00969834 1.52723)
(0.0571224 0.0109928 1.56312)
(0.0364976 0.0118665 1.5789)
(0.012845 0.0123103 1.58441)
(-0.0117433 0.0122988 1.58444)
(-0.0354352 0.0118329 1.579)
(-0.0561412 0.0109396 1.5633)
(-0.0710893 0.00962818 1.5275)
(-0.0770379 0.00792637 1.45454)
(0.077702 -0.00809334 1.45417)
(0.0719546 -0.0097176 1.52722)
(0.0571288 -0.0109715 1.56312)
(0.0364964 -0.0118323 1.57889)
(0.0128378 -0.0122853 1.5844)
(-0.011754 -0.0122999 1.58443)
(-0.0354473 -0.0118746 1.57899)
(-0.0561526 -0.0110382 1.56329)
(-0.0710976 -0.00980679 1.52748)
(-0.0770396 -0.00821016 1.45453)
(0.0747199 -0.023433 1.43919)
(0.0691605 -0.0282963 1.5161)
(0.054997 -0.0320595 1.55466)
(0.0351817 -0.034633 1.57236)
(0.012393 -0.0359672 1.57892)
(-0.0113075 -0.0359863 1.57895)
(-0.0341254 -0.0346882 1.57246)
(-0.0540038 -0.0321465 1.55485)
(-0.0682758 -0.0284124 1.51637)
(-0.0740251 -0.0235844 1.43956)
(0.0689127 -0.036472 1.40679)
(0.0637097 -0.0442231 1.49026)
(0.0508394 -0.0502897 1.53354)
(0.0326234 -0.0544793 1.55469)
(0.0115375 -0.0566472 1.56317)
(-0.0104317 -0.0566726 1.5632)
(-0.0315417 -0.0545534 1.5548)
(-0.0498123 -0.0504081 1.53373)
(-0.0627794 -0.0443796 1.49054)
(-0.0681695 -0.0366689 1.40719)
(0.0610293 -0.0455425 1.35218)
(0.0559061 -0.0553539 1.44122)
(0.044791 -0.0631994 1.49028)
(0.0288663 -0.0687038 1.51615)
(0.0102843 -0.0715523 1.5273)
(-0.00913746 -0.071585 1.52734)
(-0.0277425 -0.0688017 1.51627)
(-0.0437173 -0.0633588 1.4905)
(-0.0549173 -0.0555691 1.44155)
(-0.0602138 -0.0458058 1.35264)
(0.0514415 -0.0509109 1.26813)
(0.0461163 -0.0605486 1.3522)
(0.0370504 -0.0685072 1.40682)
(0.024012 -0.0743841 1.43925)
(0.0086682 -0.0774301 1.45426)
(-0.00744698 -0.0774686 1.45431)
(-0.0228185 -0.0745009 1.43941)
(-0.0359164 -0.0687015 1.40709)
(-0.0450706 -0.060826 1.35259)
(-0.0505635 -0.0512427 1.26865)
(0.0306028 0.0292134 1.13894)
(0.0287879 0.0361478 1.26461)
(0.0239385 0.0419232 1.3558)
(0.0162942 0.0461751 1.41452)
(0.00677438 0.0484358 1.44321)
(-0.00344255 0.0485029 1.4436)
(-0.0130754 0.0463793 1.41572)
(-0.0209516 0.0422577 1.35785)
(-0.0261365 0.0366232 1.26753)
(-0.0285265 0.0298136 1.14273)
(0.0373041 0.0272014 1.2645)
(0.0355564 0.0342713 1.41231)
(0.0295364 0.0400377 1.50698)
(0.0198614 0.044139 1.56306)
(0.00786273 0.0462764 1.58919)
(-0.00495002 0.0463029 1.58947)
(-0.0170486 0.0442228 1.56393)
(-0.026925 0.0401863 1.50851)
(-0.0332518 0.0345113 1.4146)
(-0.0355121 0.0275867 1.26764)
(0.0428873 0.0222542 1.3555)
(0.0411166 0.0281619 1.50681)
(0.0340273 0.0328533 1.59981)
(0.0226783 0.0360826 1.6527)
(0.00872116 0.037733 1.67668)
(-0.00612834 0.0377303 1.67689)
(-0.0201744 0.0360798 1.65336)
(-0.0317084 0.0328644 1.601)
(-0.039087 0.0282198 1.50864)
(-0.0413215 0.0224241 1.3581)
(0.047019 0.0145257 1.41394)
(0.0450985 0.0184021 1.56267)
(0.0371445 0.0214157 1.65251)
(0.0246011 0.0234493 1.7027)
(0.00930364 0.0244723 1.7252)
(-0.00693717 0.0244522 1.72538)
(-0.0223151 0.0233943 1.70324)
(-0.0350245 0.0213407 1.65349)
(-0.0432458 0.018339 1.56421)
(-0.0455835 0.0145329 1.41615)
(0.0491895 0.00497456 1.44227)
(0.0471685 0.00635503 1.58854)
(0.0387422 0.00740097 1.67628)
(0.0255765 0.00808991 1.72501)
(0.0095917 0.00842357 1.74681)
(-0.00736305 0.00839355 1.74697)
(-0.0234186 0.00800413 1.7255)
(-0.0367354 0.00727163 1.67715)
(-0.0454092 0.00620644 1.58991)
(-0.0478152 0.00485104 1.44425)
(0.0491914 -0.00520981 1.44223)
(0.0471662 -0.00645039 1.58851)
(0.0387315 -0.00745814 1.67624)
(0.025557 -0.00817043 1.72497)
(0.00956645 -0.00855713 1.74677)
(-0.0073908 -0.00859437 1.74693)
(-0.0234454 -0.00828001 1.72544)
(-0.0367569 -0.00763162 1.67709)
(-0.0454219 -0.00667002 1.58982)
(-0.0478142 -0.00544552 1.44413)
(0.047023 -0.0147334 1.41382)
(0.0450856 -0.0184736 1.56257)
(0.0371067 -0.0214544 1.65241)
(0.0245393 -0.0235161 1.70259)
(0.0092249 -0.0245944 1.72508)
(-0.007022 -0.0246409 1.72524)
(-0.0223951 -0.0236543 1.70308)
(-0.03509 -0.021679 1.65329)
(-0.0432858 -0.0187725 1.56393)
(-0.0455848 -0.0150868 1.41578)
(0.0428846 -0.0224179 1.35532)
(0.0410802 -0.0282006 1.50665)
(0.0339507 -0.0328694 1.59964)
(0.0225645 -0.0361338 1.65252)
(0.00858379 -0.0378409 1.67647)
(-0.00627291 -0.0379013 1.67665)
(-0.0203101 -0.0363146 1.65307)
(-0.0318192 -0.0331667 1.60063)
(-0.0391561 -0.0286022 1.50816)
(-0.0413323 -0.0229048 1.35746)
(0.0372762 -0.0273269 1.26431)
(0.035474 -0.0342937 1.41211)
(0.0294059 -0.0400509 1.50676)
(0.0196888 -0.0441908 1.56279)
(0.00766442 -0.0463814 1.58887)
(-0.00515395 -0.0464622 1.58909)
(-0.0172388 -0.0444339 1.56347)
(-0.027083 -0.0404509 1.50793)
(-0.0333534 -0.0348395 1.41387)
(-0.0355321 -0.0279859 1.26671)
(0.0305239 -0.0293205 1.1388)
(0.0286496 -0.0362075 1.26441)
(0.0237565 -0.0419898 1.35554)
(0.0160713 -0.0462738 1.41418)
(0.00652644 -0.0485713 1.44277)
(-0.0036965 -0.0486731 1.44305)
(-0.013316 -0.0465804 1.41504)
(-0.0211585 -0.0424895 1.35701)
(-0.0262838 -0.0369023 1.26651)
(-0.028584 -0.0301326 1.14151)
(0.00805148 0.00453204 1.15105)
(0.00916207 0.00726066 1.28412)
(0.00888057 0.00993205 1.38514)
(0.00718799 0.0120548 1.45267)
(0.00448579 0.0132956 1.48666)
(0.00137514 0.0134863 1.48762)
(-0.00148113 0.0126388 1.45558)
(-0.00349901 0.0109104 1.39005)
(-0.00424942 0.00869277 1.29102)
(-0.00398544 0.00638421 1.15985)
(0.0100561 0.00523806 1.28379)
(0.0118685 0.0088142 1.4469)
(0.0113857 0.0119755 1.55829)
(0.00878055 0.014332 1.62777)
(0.00477047 0.0156312 1.66135)
(0.000236782 0.0157683 1.66208)
(-0.00390883 0.014758 1.63001)
(-0.00679438 0.0127211 1.56217)
(-0.00770137 0.00995332 1.45258)
(-0.00661548 0.00687107 1.2914)
(0.0121132 0.00484283 1.38429)
(0.0144072 0.00822105 1.55781)
(0.0136186 0.0110368 1.67259)
(0.0101749 0.0130216 1.74169)
(0.00505895 0.0140527 1.77419)
(-0.000649787 0.0141358 1.77476)
(-0.00588851 0.0132887 1.74346)
(-0.0095969 0.0115325 1.67573)
(-0.0108065 0.00903087 1.56256)
(-0.00919441 0.00610506 1.39084)
(0.013828 0.00307258 1.45108)
(0.0163695 0.00551704 1.6267)
(0.0152538 0.00746551 1.74116)
(0.0111484 0.00876253 1.80859)
(0.00526114 0.00937405 1.83959)
(-0.00122884 0.00941807 1.84005)
(-0.00723033 0.00891523 1.81004)
(-0.0115886 0.00777432 1.74382)
(-0.0131217 0.00606879 1.6308)
(-0.011222 0.00400636 1.45685)
(0.0147572 0.000385086 1.48413)
(0.0174214 0.00146632 1.65956)
(0.0160959 0.00227423 1.77309)
(0.0116016 0.00277866 1.83909)
(0.00533858 0.00300078 1.8688)
(-0.00149156 0.00302084 1.86918)
(-0.00785936 0.00285224 1.84037)
(-0.0126022 0.00244174 1.77548)
(-0.0143481 0.00180339 1.66331)
(-0.0123199 0.00101055 1.48946)
(0.0147268 -0.00261202 1.48394)
(0.0174206 -0.00302428 1.65942)
(0.0161042 -0.00343604 1.77299)
(0.0116067 -0.00373922 1.839)
(0.00533536 -0.00387307 1.86871)
(-0.00150316 -0.0038729 1.86908)
(-0.0078777 -0.00373242 1.84024)
(-0.0126212 -0.00339347 1.77531)
(-0.014361 -0.00288322 1.66308)
(-0.0123167 -0.0022774 1.48915)
(0.0137291 -0.00522619 1.45054)
(0.0163562 -0.00701493 1.6263)
(0.0152685 -0.00857723 1.74084)
(0.0111558 -0.00968094 1.80829)
(0.00524654 -0.0102103 1.8393)
(-0.00126635 -0.0102341 1.83972)
(-0.00728414 -0.00975242 1.80963)
(-0.0116457 -0.00867422 1.74329)
(-0.0131619 -0.00708636 1.63011)
(-0.0112169 -0.00519868 1.45593)
(0.0119309 -0.00684897 1.38344)
(0.0143501 -0.00960736 1.55717)
(0.0136108 -0.0120578 1.67204)
(0.0101622 -0.0138609 1.74117)
(0.00501907 -0.0148143 1.77366)
(-0.00072059 -0.0148756 1.77416)
(-0.00598157 -0.0140413 1.74272)
(-0.00969264 -0.012335 1.67481)
(-0.0108751 -0.00993314 1.56137)
(-0.00919776 -0.00715648 1.3893)
(0.00972822 -0.00704475 1.2827)
(0.0116989 -0.0100628 1.44604)
(0.0112989 -0.0128867 1.55754)
(0.00870861 -0.0150741 1.62704)
(0.00468087 -0.0162968 1.66056)
(0.000120863 -0.0164071 1.66117)
(-0.00404371 -0.0153998 1.62891)
(-0.00692772 -0.013398 1.56081)
(-0.00779471 -0.0107106 1.45087)
(-0.00662265 -0.00774532 1.28924)
(0.00750331 -0.00598262 1.1498)
(0.00878632 -0.00829135 1.2831)
(0.0086379 -0.0106956 1.38424)
(0.00700071 -0.0126863 1.45175)
(0.00431225 -0.0138608 1.48564)
(0.00119467 -0.0140223 1.48641)
(-0.00166698 -0.0131656 1.45409)
(-0.00367132 -0.0114473 1.38821)
(-0.00436849 -0.0092829 1.28877)
(-0.0040137 -0.00703882 1.15715)
(0.00940431 0.00232147 1.11331)
(0.0096645 0.00449985 1.25233)
(0.0090196 0.00649133 1.36018)
(0.00770165 0.00800071 1.43371)
(0.00581876 0.00897015 1.47153)
(0.00365666 0.00933753 1.47341)
(0.00152355 0.00912365 1.43934)
(-0.000316242 0.00837387 1.36959)
(-0.00169737 0.00722917 1.26546)
(-0.00278104 0.00576046 1.12985)
(0.0102949 0.00182605 1.25132)
(0.0106171 0.00437566 1.42495)
(0.00983399 0.00654924 1.54714)
(0.00807033 0.00815265 1.62543)
(0.0055692 0.00910502 1.6642)
(0.00274265 0.00939853 1.66571)
(2.15625e-05 0.0090636 1.63003)
(-0.00219125 0.00813969 1.55502)
(-0.00363945 0.00676405 1.43632)
(-0.00446175 0.00512101 1.2663)
(0.0110298 0.00103735 1.35781)
(0.0115138 0.00348457 1.54589)
(0.0106142 0.00546784 1.67481)
(0.00844167 0.00685098 1.75482)
(0.00539303 0.00760731 1.79338)
(0.00199725 0.00781696 1.79461)
(-0.00124862 0.00751944 1.75862)
(-0.00384426 0.0066863 1.68151)
(-0.00540431 0.00540396 1.55587)
(-0.00599872 0.00385596 1.37135)
(0.0116272 -0.000339616 1.42958)
(0.0122211 0.00164409 1.62271)
(0.0111977 0.00316192 1.75351)
(0.00869101 0.00414503 1.83281)
(0.00526159 0.00461077 1.86986)
(0.00150184 0.00475373 1.87088)
(-0.00211097 0.00462641 1.83604)
(-0.0050265 0.00408196 1.7594)
(-0.00671213 0.00316888 1.63172)
(-0.00713206 0.00201629 1.44208)
(0.0118654 -0.00210329 1.46524)
(0.0125536 -0.000830585 1.65977)
(0.0114608 6.95385e-05 1.79067)
(0.00874258 0.000617107 1.86866)
(0.00514423 0.000873097 1.90346)
(0.00128046 0.000976101 1.90428)
(-0.00248444 0.00096191 1.87154)
(-0.00561704 0.000748759 1.79614)
(-0.00739216 0.00034103 1.66829)
(-0.00771379 -0.000226483 1.47722)
(0.0116798 -0.00397083 1.4645)
(0.0124424 -0.00349027 1.65924)
(0.0113999 -0.00325017 1.79028)
(0.00870418 -0.00312731 1.86836)
(0.00510932 -0.00301942 1.90323)
(0.00124316 -0.00294959 1.90405)
(-0.00252213 -0.00290237 1.87123)
(-0.00564085 -0.0027915 1.79574)
(-0.00738912 -0.00265641 1.66778)
(-0.0076683 -0.00257365 1.47656)
(0.0110474 -0.00559295 1.42735)
(0.0118581 -0.0058585 1.62111)
(0.010989 -0.00625572 1.75231)
(0.00855418 -0.00657867 1.83186)
(0.00514524 -0.00668873 1.86903)
(0.00138907 -0.00666072 1.87002)
(-0.00221331 -0.00649183 1.83504)
(-0.00509194 -0.0060411 1.75817)
(-0.00669837 -0.00538999 1.63017)
(-0.006994 -0.00470815 1.44009)
(0.0100199 -0.00667541 1.35408)
(0.0108286 -0.0074946 1.54315)
(0.0101889 -0.0083938 1.67271)
(0.00815116 -0.00912915 1.75309)
(0.00516273 -0.00952954 1.7918)
(0.00179549 -0.00956683 1.793)
(-0.00141557 -0.00922513 1.75682)
(-0.00393889 -0.00847792 1.67936)
(-0.00536589 -0.00744275 1.55323)
(-0.00577024 -0.00633479 1.36805)
(0.0087197 -0.00706023 1.24611)
(0.00946812 -0.00811899 1.42099)
(0.00906617 -0.00924901 1.54403)
(0.00752917 -0.010214 1.62282)
(0.00516129 -0.0108031 1.6618)
(0.00242387 -0.0109181 1.66327)
(-0.000207264 -0.0105366 1.62735)
(-0.00229574 -0.00969454 1.5519)
(-0.00354553 -0.00855868 1.43258)
(-0.00410557 -0.00731827 1.26177)
(0.00721003 -0.0067206 1.10662)
(0.00788991 -0.00771311 1.24699)
(0.00774318 -0.00879078 1.35591)
(0.00677517 -0.00974139 1.43012)
(0.00515128 -0.0103716 1.46826)
(0.00318662 -0.0105659 1.47011)
(0.00123898 -0.0103001 1.43575)
(-0.000394476 -0.00960846 1.36547)
(-0.001507 -0.0086778 1.26063)
(-0.00230023 -0.00752956 1.12424)
(0.00610368 -0.0041929 1.11997)
(0.00703214 -0.00304082 1.25956)
(0.00727472 -0.00168645 1.36882)
(0.00712856 -0.000560587 1.44411)
(0.0066142 0.000307773 1.48353)
(0.00586535 0.000834673 1.48648)
(0.00499311 0.00101994 1.45298)
(0.00408665 0.000864944 1.3836)
(0.00321094 0.000434301 1.28008)
(0.00220895 -0.000242332 1.14566)
(0.00587272 -0.00464328 1.25722)
(0.0068352 -0.00301693 1.43272)
(0.00709047 -0.0014444 1.55791)
(0.00681318 -0.000170342 1.63929)
(0.00610234 0.000720476 1.68035)
(0.00514418 0.00118822 1.68287)
(0.0041228 0.00124239 1.64692)
(0.0031938 0.000897101 1.57089)
(0.00245037 0.000215852 1.45129)
(0.00175915 -0.000698122 1.28139)
(0.00555165 -0.00474319 1.36362)
(0.00668517 -0.0030319 1.55525)
(0.00698793 -0.00149173 1.68887)
(0.00659291 -0.00029798 1.77324)
(0.00567764 0.000480368 1.81466)
(0.00449919 0.00085149 1.81681)
(0.00330203 0.000839536 1.77987)
(0.00229952 0.000442358 1.70045)
(0.00163001 -0.000293063 1.57227)
(0.00120581 -0.00127885 1.38638)
(0.00531532 -0.00495405 1.4355)
(0.0065724 -0.00339006 1.6337)
(0.00691698 -0.00204637 1.77056)
(0.00643075 -0.00105337 1.85503)
(0.00536011 -0.000451836 1.89512)
(0.00401688 -0.000169235 1.89697)
(0.00267707 -0.000161836 1.8609)
(0.00159869 -0.000493837 1.78117)
(0.000980184 -0.00113621 1.64969)
(0.000782914 -0.00203415 1.4573)
(0.00498631 -0.00518631 1.4709)
(0.00637515 -0.00395491 1.67146)
(0.00678565 -0.00293338 1.80922)
(0.00626186 -0.00220378 1.89271)
(0.00512785 -0.00176523 1.93027)
(0.00374347 -0.00154495 1.93179)
(0.00235177 -0.00151651 1.89811)
(0.00122186 -0.00172657 1.81937)
(0.000647796 -0.00218408 1.68704)
(0.00061249 -0.00288616 1.49239)
(0.00455295 -0.00536799 1.46913)
(0.00603687 -0.00454044 1.67015)
(0.00654553 -0.00389081 1.80824)
(0.00609112 -0.00344358 1.89196)
(0.00499854 -0.00314588 1.92972)
(0.00364546 -0.0029826 1.93127)
(0.00228454 -0.00294504 1.89745)
(0.00120361 -0.00301491 1.81855)
(0.000699765 -0.00325157 1.68602)
(0.000755571 -0.0037108 1.4911)
(0.00399439 -0.00536242 1.43013)
(0.00552828 -0.00492412 1.62967)
(0.00616524 -0.00463179 1.7675)
(0.0058886 -0.00446635 1.85262)
(0.00495862 -0.00434145 1.8931)
(0.00372387 -0.00424196 1.89503)
(0.00249306 -0.0041729 1.85875)
(0.00155962 -0.00410901 1.77863)
(0.00115256 -0.00414405 1.64658)
(0.00122596 -0.00438252 1.45342)
(0.00334926 -0.00505722 1.35447)
(0.00486762 -0.00490437 1.54823)
(0.00563834 -0.00487916 1.68339)
(0.00560252 -0.00494436 1.76877)
(0.0049574 -0.00500048 1.81076)
(0.00399691 -0.00498796 1.81307)
(0.00301518 -0.00489611 1.77592)
(0.00227495 -0.0047546 1.69596)
(0.00196169 -0.00467091 1.56694)
(0.00195666 -0.00476209 1.37988)
(0.00267431 -0.00440665 1.24412)
(0.00410283 -0.00436191 1.42229)
(0.00498776 -0.00444991 1.54952)
(0.00523584 -0.00463651 1.63231)
(0.00496868 -0.00480973 1.67418)
(0.00439703 -0.00489186 1.67698)
(0.00375442 -0.00486599 1.64084)
(0.00324423 -0.00476902 1.56418)
(0.00302441 -0.00472459 1.44356)
(0.00290882 -0.0048095 1.27228)
(0.00205199 -0.00336492 1.10281)
(0.00326679 -0.00325059 1.24519)
(0.00422826 -0.00331296 1.35691)
(0.00477947 -0.00351229 1.43406)
(0.00494626 -0.00373342 1.47463)
(0.00482986 -0.00390426 1.47807)
(0.00457968 -0.00400672 1.44442)
(0.00430565 -0.00404524 1.37437)
(0.00413072 -0.00417794 1.26977)
(0.00375049 -0.00431089 1.13405)
(0.00694099 -0.0031195 1.11022)
(0.00810873 -0.00280413 1.25234)
(0.00842805 -0.0020055 1.36426)
(0.00827918 -0.00120861 1.44201)
(0.00768147 -0.000492082 1.4835)
(0.00675138 -2.63044e-06 1.4881)
(0.00556104 0.000184328 1.45584)
(0.00417591 1.06764e-06 1.38743)
(0.00265298 -0.000597016 1.28472)
(0.00103474 -0.00160361 1.151)
(0.00702649 -0.00368419 1.24772)
(0.00800144 -0.00319952 1.42654)
(0.00824489 -0.00240899 1.55501)
(0.00801434 -0.00160124 1.63928)
(0.00737906 -0.000932314 1.68258)
(0.00645222 -0.000518338 1.68657)
(0.0053159 -0.000430071 1.65141)
(0.00402901 -0.000734956 1.57566)
(0.00262049 -0.00146453 1.4561)
(0.00108917 -0.00257859 1.28622)
(0.00668298 -0.00394952 1.35429)
(0.00762515 -0.00348588 1.55003)
(0.00786491 -0.00276384 1.68762)
(0.00759572 -0.00204633 1.77536)
(0.00692885 -0.00149461 1.81919)
(0.00599971 -0.00118991 1.8227)
(0.00489991 -0.00118323 1.78612)
(0.00369181 -0.00154867 1.70636)
(0.00241081 -0.00232172 1.57745)
(0.00104252 -0.0034827 1.39079)
(0.0062883 -0.00418456 1.42615)
(0.00716864 -0.00383188 1.6291)
(0.00741726 -0.00323777 1.77053)
(0.00713766 -0.00265824 1.85875)
(0.00646327 -0.00224621 1.90133)
(0.00555102 -0.00204814 1.9044)
(0.0044949 -0.00209035 1.86845)
(0.00336333 -0.0024775 1.78792)
(0.00221517 -0.00324998 1.65507)
(0.00103195 -0.00440645 1.46121)
(0.00580367 -0.00432642 1.46107)
(0.00665774 -0.00418144 1.66679)
(0.00694813 -0.00377799 1.8095)
(0.00669852 -0.0033636 1.89699)
(0.00605494 -0.00307508 1.93701)
(0.00520654 -0.00295443 1.93955)
(0.00422358 -0.00304809 1.90602)
(0.00316999 -0.00344145 1.82626)
(0.00215759 -0.0041825 1.69214)
(0.00115976 -0.00528903 1.49551)
(0.00528644 -0.00436387 1.45821)
(0.00612073 -0.00446716 1.66446)
(0.00647741 -0.00428558 1.80761)
(0.00631525 -0.00404503 1.89545)
(0.00575529 -0.00386252 1.9358)
(0.00498725 -0.00381373 1.93842)
(0.00409014 -0.00396142 1.90462)
(0.00315827 -0.00435006 1.82458)
(0.00229879 -0.0050386 1.6901)
(0.00146456 -0.00606394 1.49298)
(0.00476068 -0.00423865 1.41746)
(0.00556904 -0.00459292 1.62195)
(0.00600114 -0.00463796 1.76465)
(0.00597154 -0.00458007 1.85383)
(0.00555457 -0.00452722 1.89704)
(0.00490253 -0.00455461 1.90025)
(0.00413537 -0.00473783 1.86393)
(0.00336557 -0.00511113 1.7827)
(0.00267567 -0.00573844 1.64881)
(0.00197865 -0.00666769 1.45352)
(0.00427106 -0.00391316 1.33953)
(0.00503763 -0.00446579 1.53761)
(0.00553385 -0.00470187 1.67712)
(0.0056557 -0.0048114 1.76627)
(0.00543242 -0.00489642 1.81097)
(0.00497383 -0.00501865 1.81471)
(0.00439805 -0.00523964 1.77775)
(0.00381028 -0.00560942 1.69701)
(0.00328452 -0.0061888 1.56656)
(0.00266119 -0.00700457 1.37773)
(0.00388944 -0.0033775 1.22662)
(0.00457905 -0.00403019 1.40819)
(0.00510608 -0.00439029 1.53899)
(0.00538309 -0.00462562 1.62505)
(0.0053906 -0.00482702 1.66947)
(0.00518302 -0.00504923 1.67383)
(0.00484668 -0.00534677 1.63828)
(0.00445946 -0.00575943 1.5614)
(0.00410251 -0.00635512 1.43998)
(0.00356873 -0.00708096 1.26755)
(0.00366634 -0.00268564 1.08293)
(0.00422718 -0.00332331 1.22744)
(0.00474962 -0.00372984 1.34175)
(0.0051702 -0.00403396 1.42154)
(0.00542239 -0.00431299 1.46441)
(0.00549663 -0.00460864 1.46955)
(0.00543122 -0.00496976 1.43693)
(0.00523914 -0.00539144 1.36731)
(0.00499882 -0.00599507 1.26271)
(0.00436935 -0.00651218 1.1267)
(0.00334773 -0.000343048 1.10605)
(0.00502572 -0.00162142 1.25129)
(0.00602454 -0.00215971 1.36642)
(0.00642378 -0.00231112 1.44714)
(0.00625718 -0.00226986 1.49132)
(0.00563729 -0.00225111 1.49834)
(0.0046542 -0.00242209 1.46833)
(0.0034113 -0.00288252 1.40202)
(0.00199676 -0.00372665 1.30125)
(0.000673747 -0.00483943 1.16917)
(0.00399586 -0.000333015 1.24352)
(0.00561648 -0.00170544 1.4254)
(0.00657584 -0.00237371 1.55683)
(0.00694264 -0.00259307 1.64381)
(0.0068013 -0.00261359 1.68949)
(0.00626272 -0.00266448 1.69558)
(0.00540406 -0.00292284 1.66231)
(0.00428129 -0.00351032 1.58836)
(0.00293856 -0.00448476 1.47057)
(0.00155071 -0.00575935 1.30243)
(0.00417637 -0.0002345 1.34992)
(0.00571325 -0.0017577 1.54868)
(0.0066141 -0.0025153 1.6892)
(0.00695345 -0.00280553 1.77954)
(0.00683727 -0.00290617 1.82558)
(0.0063791 -0.00304029 1.83091)
(0.00564759 -0.00337104 1.79591)
(0.00467527 -0.00402159 1.71761)
(0.00348828 -0.00504274 1.59018)
(0.00221292 -0.00638662 1.40505)
(0.00416499 -1.14754e-05 1.42157)
(0.00554994 -0.00170425 1.62746)
(0.00637475 -0.00258204 1.77181)
(0.00669304 -0.0029761 1.86263)
(0.00660594 -0.00317919 1.90727)
(0.00623197 -0.00340963 1.91192)
(0.00563471 -0.00380983 1.8773)
(0.00482588 -0.00451304 1.79798)
(0.00382882 -0.00557132 1.66628)
(0.00271449 -0.00695302 1.47361)
(0.00404953 0.000340393 1.45624)
(0.00526319 -0.00154188 1.6647)
(0.00602265 -0.0025748 1.81027)
(0.006345 -0.0031019 1.90037)
(0.00630502 -0.00341278 1.94236)
(0.00603045 -0.0037198 1.94619)
(0.00556819 -0.00418703 1.91389)
(0.00491787 -0.00493296 1.83513)
(0.00411897 -0.00600761 1.70187)
(0.00319664 -0.00738606 1.50612)
(0.0039384 0.000793188 1.45304)
(0.00496561 -0.00126885 1.66167)
(0.00566059 -0.00246965 1.80749)
(0.0060108 -0.00314278 1.89785)
(0.0060498 -0.00356345 1.94021)
(0.00587793 -0.00394905 1.94411)
(0.00553346 -0.0044715 1.91131)
(0.00504924 -0.00524008 1.83209)
(0.00444738 -0.00630706 1.69826)
(0.00370063 -0.00764779 1.50177)
(0.00393748 0.00134774 1.41192)
(0.00475823 -0.000856293 1.61824)
(0.00536292 -0.00221299 1.76322)
(0.00573459 -0.00303358 1.85469)
(0.00586763 -0.00357878 1.89983)
(0.00580926 -0.00404672 1.90443)
(0.00560352 -0.00461432 1.86907)
(0.00528907 -0.00539211 1.78853)
(0.00487879 -0.00643155 1.6552)
(0.00427985 -0.00770512 1.46042)
(0.00411467 0.00196359 1.33371)
(0.00474617 -0.000278009 1.5329)
(0.00523357 -0.00174511 1.67412)
(0.00560653 -0.00269312 1.76516)
(0.00582515 -0.00335789 1.8116)
(0.00589583 -0.00392173 1.81674)
(0.0058427 -0.00454553 1.78081)
(0.00568431 -0.00533546 1.70083)
(0.00543325 -0.00633717 1.57098)
(0.0049008 -0.00749641 1.38267)
(0.00464805 0.00263365 1.2208)
(0.00506522 0.000486622 1.40269)
(0.00539545 -0.0010355 1.53447)
(0.00574114 -0.00207976 1.62187)
(0.00602328 -0.00285363 1.66771)
(0.00620968 -0.00351699 1.67339)
(0.00628977 -0.00421718 1.63895)
(0.0062541 -0.00503665 1.56299)
(0.00612941 -0.00603095 1.44236)
(0.00565481 -0.00707137 1.27057)
(0.00544839 0.00287802 1.07763)
(0.0057781 0.00109041 1.22176)
(0.0059613 -0.000322588 1.33623)
(0.00624628 -0.00132301 1.41666)
(0.00653912 -0.00212102 1.46051)
(0.00679113 -0.00281581 1.46677)
(0.0069564 -0.00353731 1.4353)
(0.00696692 -0.00430753 1.36678)
(0.00685032 -0.00525657 1.2632)
(0.00617588 -0.00602968 1.12807)
(-0.00104037 0.00594941 1.0926)
(0.000237932 0.00353733 1.24217)
(0.00137588 0.00163372 1.36185)
(0.00195679 0.000316578 1.44676)
(0.00198737 -0.000652714 1.49456)
(0.001529 -0.00144858 1.50458)
(0.000699008 -0.00227984 1.47696)
(-0.000343304 -0.00323647 1.41242)
(-0.00147334 -0.00444504 1.31275)
(-0.00217081 -0.00567692 1.181)
(0.000793304 0.00671882 1.23116)
(0.00229865 0.00385953 1.41738)
(0.00347526 0.00164956 1.55292)
(0.00404091 9.75551e-05 1.64352)
(0.0040486 -0.00100492 1.69227)
(0.00359141 -0.00189356 1.70093)
(0.002765 -0.00279532 1.6698)
(0.00166603 -0.00384816 1.59758)
(0.000379907 -0.00511324 1.48099)
(-0.000696831 -0.00648581 1.31338)
(0.0021869 0.00699262 1.33844)
(0.00362326 0.00384639 1.5413)
(0.00468585 0.00149354 1.68551)
(0.00518236 -0.000152563 1.77902)
(0.0051772 -0.00131615 1.82768)
(0.00476766 -0.00225339 1.8352)
(0.00402501 -0.00318775 1.80209)
(0.00300066 -0.00426677 1.72541)
(0.00176003 -0.00553645 1.5992)
(0.000595492 -0.00693974 1.4147)
(0.0031783 0.00730406 1.4109)
(0.00443769 0.0039397 1.62042)
(0.00531527 0.00145169 1.76807)
(0.00571157 -0.000288226 1.8617)
(0.00569187 -0.00152711 1.90857)
(0.0053548 -0.00253507 1.91505)
(0.00474644 -0.00352315 1.88209)
(0.00386444 -0.00463935 1.80427)
(0.00275467 -0.00592704 1.67373)
(0.00159094 -0.0073407 1.48168)
(0.00398487 0.00761954 1.44632)
(0.00497669 0.00412292 1.65782)
(0.00564401 0.00152224 1.80625)
(0.00594383 -0.000315294 1.89885)
(0.0059179 -0.00163481 1.94284)
(0.00566344 -0.00270485 1.9481)
(0.00519052 -0.00375524 1.91731)
(0.00445902 -0.0049122 1.8399)
(0.00351349 -0.00620617 1.70766)
(0.00243595 -0.00758665 1.51243)
(0.00469923 0.00792078 1.44388)
(0.00541176 0.00437508 1.65485)
(0.00586744 0.00169547 1.80301)
(0.00608178 -0.000231252 1.89554)
(0.00606817 -0.00163532 1.93973)
(0.00587632 -0.00277421 1.94498)
(0.00548987 -0.00387263 1.91339)
(0.00490257 -0.00504969 1.83528)
(0.00412222 -0.00632645 1.70228)
(0.00314779 -0.00763899 1.50619)
(0.00544859 0.00816297 1.40364)
(0.00588183 0.0046709 1.6115)
(0.00610994 0.00196465 1.75819)
(0.00621809 -3.25453e-05 1.85138)
(0.00619404 -0.00152288 1.89807)
(0.00603716 -0.00272802 1.90397)
(0.00572989 -0.00385771 1.86968)
(0.00526995 -0.00502969 1.79005)
(0.00464366 -0.00625724 1.65738)
(0.00377302 -0.00745995 1.46289)
(0.00623699 0.00823261 1.32656)
(0.00647543 0.00496142 1.52644)
(0.00647985 0.00231306 1.66866)
(0.00645784 0.000287777 1.76088)
(0.00638271 -0.00126449 1.8085)
(0.00623352 -0.00252775 1.81473)
(0.00598546 -0.00368236 1.77976)
(0.0056132 -0.00482943 1.70057)
(0.0050957 -0.00597268 1.57129)
(0.00427471 -0.00700219 1.38324)
(0.00722747 0.00810543 1.21519)
(0.00727505 0.00520785 1.39697)
(0.00706222 0.00268797 1.52902)
(0.00689886 0.00069575 1.61696)
(0.00673642 -0.000882782 1.66351)
(0.00654838 -0.0021781 1.66997)
(0.00629784 -0.0033407 1.6363)
(0.00594364 -0.00444189 1.56103)
(0.00548262 -0.00549538 1.44094)
(0.00472292 -0.00632703 1.26944)
(0.00799996 0.00702498 1.07396)
(0.00817245 0.00482201 1.21749)
(0.00784412 0.0026344 1.33156)
(0.00755388 0.000903914 1.41186)
(0.0072531 -0.000532308 1.45583)
(0.00695414 -0.00171534 1.46244)
(0.00661718 -0.00276566 1.43146)
(0.00618007 -0.00369677 1.3635)
(0.00566393 -0.00459292 1.26047)
(0.00476238 -0.00509261 1.12572)
(-0.00716113 0.0107255 1.08166)
(-0.00711109 0.00819086 1.23376)
(-0.00630191 0.00546301 1.35671)
(-0.00568094 0.00315806 1.44506)
(-0.00529353 0.00112938 1.49603)
(-0.00519242 -0.000628809 1.50867)
(-0.00529659 -0.00225043 1.48296)
(-0.00545113 -0.0037442 1.41952)
(-0.00555875 -0.00521583 1.32005)
(-0.00497597 -0.00631736 1.18762)
(-0.00483907 0.0120375 1.22134)
(-0.00415749 0.00886106 1.41017)