/*--------------------------------*- C++ -*----------------------------------*\
| =========                 |                                                 |
| \\      /  F ield         | OpenFOAM: The Open Source CFD Toolbox           |
|  \\    /   O peration     | Version:  2406                                  |
|   \\  /    A nd           | Website:  www.openfoam.com                      |
|    \\/     M anipulation  |                                                 |
\*---------------------------------------------------------------------------*/
FoamFile
{
    version     2.0;
    format      ascii;
    arch        "LSB;label=32;scalar=64";
    class       volScalarField;
    location    "400";
    object      div(phi);
}
// * * * * * * * * * * * * * * * * * * * * * * * * * * * * * * * * * * * * * //

dimensions      [0 0 -1 0 0 0 0];

internalField   nonuniform List<scalar> 
25000
(
0.210394
0.0139488
0.00452217
0.00224178
-0.000119435
-0.000401928
-0.000535527
-0.000853244
-0.000744052
-0.00099695
-0.00045217
-0.00177889
0.00141288
0.000840019
0.000695148
6.71664e-05
-0.000278214
-0.000227809
-0.000400038
-0.000384389
-0.00703003
-0.00121729
0.000922387
0.00110619
0.000779419
0.000306341
0.000140176
-0.000207452
-0.000301242
-0.000289278
-0.00150563
-0.00124665
0.000120596
0.00106078
0.000868201
0.00062801
8.07584e-05
-4.52523e-05
-9.31403e-05
-0.000225504
-0.00326035
-0.00118802
0.000577855
0.000752034
0.000900783
0.000470161
0.000399227
0.000128841
-0.000100215
-7.43794e-05
-0.000610504
-0.000460814
-0.000149345
0.000870305
0.000580278
0.000732686
0.000291115
0.000117663
0.000120144
-1.43493e-05
-0.00129508
-0.000874894
0.000362542
7.64761e-05
0.000640107
0.000208164
0.000218022
0.000181507
-2.33724e-05
2.21308e-05
-0.00021379
-0.000517391
-0.000413003
0.000165667
6.98852e-05
9.36568e-05
0.000140075
-0.000142134
1.72813e-05
-8.69134e-06
-0.00118469
-0.000562559
-0.000536429
6.9092e-05
-0.000183975
0.000135708
-0.000292833
-1.21457e-05
-0.000201582
-0.000103139
-0.000279116
3.86073e-05
0.000367168
0.000195544
0.000344594
6.17149e-05
0.000106389
-7.50528e-05
-0.000172003
-0.000185563
-0.00166568
0.000252067
0.000812355
0.0012659
0.000470339
0.000485091
0.000363163
-5.90238e-05
0.000151281
0.000123325
-0.000936926
-0.000714278
0.000708807
0.000205051
0.000772576
0.000129967
0.000100133
0.000155546
-7.43006e-05
0.000253386
-0.00259324
-0.000650998
0.000469323
0.000519796
0.000428689
0.000393004
0.000206915
1.75184e-05
0.000101114
0.000171783
-0.000304138
-0.000529008
-0.000395938
0.000452545
0.000527328
0.000357373
0.000198674
0.000148856
6.08822e-05
0.000196581
-0.0019348
-0.00110867
0.000229394
0.000176378
0.000404551
0.000352699
0.00025347
0.000151527
0.00013778
0.000216435
-0.000264567
-0.000419266
-0.000679465
0.000307297
0.000163891
0.000326584
0.000186394
0.000144341
0.000144232
0.000255477
-0.00123489
-0.00120648
-8.84616e-05
-0.000501855
0.000112033
-0.000102949
-4.10408e-05
3.45043e-05
5.91973e-05
0.00021878
-0.000359482
-0.000826099
-0.000929285
-0.000340576
-0.000374191
-0.000271143
-0.000105763
-0.000202166
9.802e-06
0.000167648
-0.0014063
-0.00089134
-0.000901145
-0.000283237
-0.000459537
-8.01357e-05
-0.000408354
-7.16402e-05
-0.000128895
9.95397e-05
-0.000410035
-0.000125084
0.000213463
9.59203e-05
0.000298071
6.9156e-05
0.000167049
5.39541e-05
4.22969e-05
0.000150237
-0.000406025
-0.000120419
-9.58238e-05
3.45887e-05
7.01064e-05
-3.45413e-05
0.00014317
-0.000258087
-0.00023096
-0.000187714
1.85154e-05
4.0346e-05
0.000326076
0.000149042
0.000224022
0.000134673
-5.96932e-05
-3.39854e-05
-0.000172008
0.000134566
0.000171153
0.00027066
0.000223747
0.000311581
0.000257118
0.000121116
9.55031e-05
-6.00594e-05
-5.86992e-05
0.000139099
0.000354579
0.000229354
0.000374691
0.000358741
0.000305619
0.00025654
4.79986e-05
2.30125e-05
1.76568e-07
0.000193489
0.000408091
0.000382658
0.000413343
0.000426984
0.000394413
0.000242579
0.000153827
7.66013e-05
4.99827e-05
0.000249766
0.000578262
0.00040911
0.000444498
0.000502154
0.000361252
0.000306205
0.00016246
9.52467e-05
8.91922e-05
0.000304904
0.000464793
0.000406205
0.000469621
0.00032739
0.000338059
0.000197721
3.67612e-05
7.0828e-05
5.42099e-05
0.000279416
0.000604197
0.000304697
0.000310952
0.000267693
0.000226181
8.11381e-06
8.61792e-05
-8.86492e-05
5.31181e-06
0.00024163
0.000240063
0.00028526
0.000109322
0.000290198
1.16356e-05
0.000189235
-0.00019698
-3.98682e-06
-0.00014236
0.000114945
0.000497552
0.000444178
0.000437087
0.000341022
0.000407851
0.000204279
0.000228955
9.79931e-05
-8.98594e-06
0.000231398
0.00236207
0.00143505
0.00136765
0.00127354
0.00110342
0.000920507
0.00098579
0.000517361
0.000804809
0.00115555
0.00137083
0.0007088
0.000787369
0.000618154
0.000669011
0.000442442
0.000231874
0.000380708
-3.61117e-05
0.000665114
0.0010238
0.000559545
0.000633167
0.000614548
0.00047193
0.000381241
0.000260081
-1.54682e-05
0.000179551
0.000473956
0.000855586
0.000527157
0.000490108
0.000510679
0.000473519
0.00029771
9.07567e-05
0.000133829
-4.98608e-05
0.00043625
0.000693468
0.000404571
0.000552696
0.000504197
0.000409466
0.000303749
0.000123334
-7.94377e-06
7.0305e-05
0.000392179
0.000844695
0.000546363
0.000422289
0.000498824
0.000373653
0.000214436
0.000101549
4.03728e-05
2.3153e-05
0.00043199
0.000647958
0.00034097
0.000430708
0.000235072
0.00018966
0.00010856
-9.58932e-05
-3.19712e-05
1.16346e-05
0.00043547
0.000878839
0.000264735
0.000169057
0.000114041
6.55922e-05
-9.90903e-05
-4.75343e-05
-0.000101106
2.90009e-05
0.000495132
0.000325206
0.000165106
-4.96827e-05
0.000103128
-5.51033e-05
4.42388e-05
-0.000170246
1.86785e-06
-3.21385e-05
0.000466371
0.00104515
0.000616539
0.000582467
0.000475121
0.000491857
0.000374343
0.000374849
0.000379624
0.000274242
0.000973925
0.00178319
0.00093465
0.00112821
0.00104996
0.0010817
0.000895541
0.0010588
0.000406944
0.000641691
0.00107755
0.000995472
0.000503451
0.000561924
0.000561959
0.000687493
0.000472662
0.000211438
0.000369303
-0.000199434
0.000654722
0.000710542
0.000240021
0.000416106
0.000480574
0.000400812
0.00035411
0.000203958
-0.000134917
7.26103e-05
0.00050302
0.00054442
0.000252009
0.00025412
0.000338725
0.000378553
0.000219437
-1.3194e-05
3.28939e-05
-0.000156282
0.00044592
0.000536793
0.000148463
0.000319315
0.000358277
0.000302836
0.000223225
1.79121e-05
-9.92549e-05
-3.86632e-05
0.000421554
0.000615737
0.000347144
0.000264062
0.000351371
0.000294444
0.000133871
1.63843e-05
-7.31152e-05
-2.91368e-05
0.000456718
0.000644073
0.000164925
0.000277172
0.000155124
0.00011412
6.15838e-05
-0.000208205
-7.48479e-05
-7.55872e-05
0.000474882
0.000756044
0.00018139
7.14223e-05
5.56181e-05
4.72729e-05
-0.000164763
-6.81456e-05
-0.000201099
-1.49694e-05
0.000583705
0.000410897
3.50738e-05
-5.50574e-05
8.2344e-05
-6.0824e-05
7.19743e-05
-0.000254739
-1.86975e-05
-0.000114216
0.000474743
0.00106845
0.000512359
0.000570205
0.000474156
0.000511018
0.000366812
0.000368827
0.000371536
0.000165439
0.00110294
0.00098193
0.000472809
0.000773837
0.000745961
0.000857468
0.000678295
0.000883953
0.000216701
0.000420653
0.00069114
0.000536176
0.00026781
0.000373531
0.000416484
0.000585385
0.000401422
0.000175095
0.000314537
-0.000202741
0.000529643
0.00033106
3.31215e-05
0.000231369
0.00034348
0.000308943
0.000294416
0.000178439
-0.000123471
6.49237e-05
0.000416305
0.000229405
7.11785e-05
0.000110297
0.000219859
0.000294169
0.000182117
-6.90363e-06
4.72184e-05
-0.000119487
0.000396953
0.000297088
1.33417e-05
0.000180782
0.000258063
0.000238537
0.000196743
3.31487e-05
-6.14886e-05
1.25901e-05
0.000383507
0.000353148
0.000210279
0.000167665
0.000267817
0.0002453
0.000124978
3.96731e-05
-1.61782e-05
1.00925e-06
0.000433815
0.000460077
7.62733e-05
0.0002051
0.000118396
0.000108474
7.49062e-05
-0.000162028
-4.33167e-05
-1.6827e-05
0.000420894
0.000513985
0.000126397
5.04884e-05
5.18868e-05
6.88071e-05
-0.000151285
-2.66549e-05
-0.000167288
-1.64612e-05
0.000502189
0.000327528
3.53303e-05
-3.32516e-05
0.000126841
-5.50679e-05
0.000124033
-0.000249285
-1.14325e-05
-0.000119445
0.000348739
0.000804296
0.000385414
0.000482747
0.000397279
0.000470382
0.000300413
0.000322235
0.000283708
8.64958e-05
0.000819422
0.00192518
0.0011813
0.00120751
0.00115042
0.00111268
0.000987499
0.00104209
0.000717725
0.000917096
0.00111373
0.00121262
0.000638443
0.000601167
0.000597745
0.000625839
0.000512416
0.000366868
0.000479112
0.000166026
0.000593016
0.000926603
0.000423911
0.000488916
0.000501181
0.000423944
0.000390389
0.000332574
0.00013058
0.000262264
0.000425551
0.000746177
0.000384304
0.000349718
0.00037308
0.00038511
0.000288944
0.000171308
0.000208762
8.94108e-05
0.000376313
0.000636282
0.000261027
0.000360214
0.000362636
0.000308945
0.000275502
0.000180564
0.00010344
0.000152217
0.000335973
0.000642812
0.000368488
0.000282446
0.000316434
0.000301861
0.000197001
0.000164033
0.000127412
0.000133814
0.000350064
0.000630251
0.000187266
0.000256797
0.000195982
0.000144104
0.000154703
5.35799e-05
0.0001043
0.000127254
0.000375703
0.000600735
0.000207372
8.86311e-05
0.000102073
9.37372e-05
6.35702e-05
7.96678e-05
9.43411e-05
0.000176924
0.000431314
0.000457597
2.84743e-05
6.75707e-05
7.25895e-05
0.00011324
0.000100285
9.23665e-05
0.000158324
0.000178012
0.000482588
0.000751475
0.000376319
0.000375929
0.000376148
0.00035367
0.000355637
0.000351781
0.000395893
0.000382581
0.000811386
-0.000387938
-0.000370623
-6.87569e-05
-9.59238e-05
8.75999e-05
9.68971e-06
0.000178285
-0.000160105
-0.000142022
-7.92766e-05
-0.000133662
-7.20696e-05
-3.61402e-05
7.45398e-05
0.00014989
0.000131159
-4.72652e-06
3.68564e-05
-0.000166792
9.4694e-05
-0.000225716
-0.000199274
-8.11497e-05
2.73665e-05
6.66362e-05
5.51441e-05
3.96949e-05
-8.48065e-05
-6.97819e-05
0.000119614
-0.000106096
-0.000169177
-8.02184e-05
-7.23352e-06
5.983e-05
6.97406e-05
-2.87085e-05
-2.76563e-05
-3.70544e-05
0.000127434
-1.90783e-05
-0.000113557
-4.69702e-05
5.22076e-05
8.3449e-05
6.78513e-05
2.22e-05
1.30216e-05
-1.71736e-05
0.000174381
2.79579e-05
-1.99264e-05
2.51531e-05
6.72864e-05
0.000114293
8.58804e-05
5.84983e-05
2.4345e-06
6.25922e-05
0.000195429
0.00018513
-6.21108e-05
2.67417e-05
7.92195e-05
7.29356e-05
9.60007e-05
-1.6626e-05
7.23968e-05
1.67012e-05
0.00022048
4.1404e-05
2.96756e-05
-1.30788e-05
5.28689e-05
0.000100359
1.50556e-05
8.98321e-05
-2.88331e-05
6.98184e-05
0.000239082
0.000183796
-0.000146062
6.79733e-05
8.42474e-05
8.5967e-05
0.000149064
-3.05544e-05
8.73047e-05
-2.03968e-05
0.000190861
0.000113125
7.47713e-05
0.000158961
0.000210204
0.000238864
0.000182251
0.00018801
0.00014381
4.26552e-05
0.000344326
0.00224746
0.00140805
0.00117308
0.00103131
0.000776027
0.00065806
0.000603204
0.000441102
0.000596252
0.000666034
0.00116348
0.000759308
0.000756481
0.000519891
0.000521175
0.000328605
0.000260653
0.000328398
0.000150884
0.000362342
0.000860816
0.000623917
0.000598147
0.00052315
0.000372106
0.000317741
0.000249163
0.000117318
0.000234344
0.000245396
0.000676866
0.000557017
0.000475043
0.00043189
0.000367735
0.000241164
0.000164995
0.000200129
8.42172e-05
0.000230881
0.000503076
0.000435937
0.000491044
0.000392148
0.000303225
0.000245386
0.000177025
8.80431e-05
0.000174823
0.000174837
0.000615592
0.00048124
0.000358167
0.000386389
0.000263271
0.000187041
0.000136206
0.000153866
7.97131e-05
0.000207156
0.000379195
0.000368822
0.00038396
0.000199022
0.000179455
0.0001053
6.35763e-05
2.57026e-05
0.000134493
0.000161538
0.000646418
0.000260981
0.000223093
0.000134247
7.18934e-05
-2.4084e-06
-6.51503e-06
4.97819e-05
3.52786e-05
0.000198798
0.000165802
0.000338906
1.08014e-05
0.000127751
-2.64394e-05
2.17153e-05
-2.78592e-05
-1.24748e-05
7.35558e-05
0.000135903
0.000648776
0.000379932
0.000329496
0.000196205
0.000199341
0.000137134
0.000134242
0.000161575
0.000158805
0.000289295
-0.00109855
-0.00065472
-0.000465278
-0.000383996
-0.000285567
-0.000295163
-0.000158905
-0.000443856
-0.000405526
-0.000466151
-0.000645681
-0.000250101
-0.000101741
-0.000119833
-2.00484e-06
-6.13314e-05
-0.000132431
-8.69219e-05
-0.000275345
-9.85859e-05
-0.000441104
-0.000171784
-0.000108211
-4.08201e-05
-3.49731e-05
-3.56504e-05
-6.61827e-05
-0.000174571
-0.00012778
-5.57558e-05
-0.000292185
-9.8728e-05
-4.90415e-05
-1.4189e-05
6.92252e-06
-1.53918e-05
-9.00079e-05
-7.94927e-05
-0.000130102
-1.86085e-05
-0.000160662
-1.59633e-05
1.48336e-05
3.72727e-05
3.98004e-05
7.928e-06
-3.89513e-05
-7.5438e-05
-6.82266e-05
8.41087e-06
-4.13814e-05
4.7261e-05
6.01872e-05
9.63728e-05
5.14467e-05
3.43821e-05
-2.25411e-05
-5.14213e-05
-5.34604e-05
3.96105e-05
-2.20835e-05
9.47634e-05
0.000116378
5.56699e-05
7.82712e-05
1.76293e-05
-8.31543e-05
-4.55394e-05
-6.92892e-05
1.87543e-05
0.000128987
7.14005e-05
0.000104592
6.72007e-05
6.33415e-05
-8.816e-05
-1.01171e-05
-0.000154556
-9.55284e-05
1.95619e-05
-3.07286e-05
0.000165363
4.08824e-06
0.000133798
-6.45006e-05
8.12558e-05
-0.0002039
-7.37983e-05
-0.000188914
-0.000101528
0.00013934
0.000106253
0.000152736
5.78898e-05
0.000124222
-1.8685e-05
-7.26654e-07
-8.42984e-05
-0.000206874
-6.6842e-05
0.00132021
0.000834181
0.000680205
0.000620067
0.000492613
0.000452605
0.00038324
0.000432184
0.000501193
0.000578765
0.000812453
0.000435295
0.000375902
0.000294861
0.00026
0.000193473
0.000198471
0.000213166
0.000215899
0.000250973
0.000619616
0.00035871
0.000336176
0.000271345
0.000199676
0.000180957
0.000160526
0.000150882
0.000189811
0.000174494
0.000490653
0.000320398
0.000245413
0.000221946
0.000186335
0.000133132
0.000136214
0.000147244
0.0001237
0.000148671
0.000326232
0.000211542
0.000245428
0.000184426
0.000140484
0.000132882
0.000116957
0.000100177
0.000139248
0.00011233
0.000333021
0.000226679
0.000148534
0.000154501
0.00012219
8.73362e-05
0.000101016
0.000118615
9.61753e-05
0.000115282
0.000205176
0.000119571
0.000138212
7.95014e-05
5.71281e-05
6.22462e-05
8.71077e-05
6.4241e-05
0.000129536
0.000110828
0.00023912
9.2538e-05
4.69787e-05
3.75294e-05
1.40465e-05
6.00493e-05
2.68342e-05
0.000129552
0.000107604
0.000134368
8.99734e-05
5.13812e-05
1.20228e-05
1.93259e-06
4.58441e-05
-6.5585e-06
0.000121497
7.25716e-05
0.000175889
0.000182553
0.000216763
0.000135646
0.000104256
0.000100904
6.95139e-05
0.000117789
0.000112416
0.000172928
0.000244978
0.000257121
-0.0011713
-0.000768915
-0.000575245
-0.000540277
-0.000407527
-0.000393528
-0.000303172
-0.000393984
-0.000454394
-0.000488909
-0.000678117
-0.000330901
-0.00026244
-0.00019742
-0.00015419
-0.000121214
-0.000158416
-0.000171553
-0.000189483
-0.000186988
-0.000566002
-0.000299261
-0.000250691
-0.000177177
-0.000124047
-0.000125122
-0.000112019
-0.000122497
-0.000170382
-0.000106634
-0.000430005
-0.000264983
-0.000178196
-0.000145787
-0.000112596
-6.91168e-05
-0.000101304
-0.000121656
-7.42242e-05
-9.05328e-05
-0.000301062
-0.00016405
-0.000164097
-9.93554e-05
-6.05616e-05
-7.32121e-05
-6.48945e-05
-4.33889e-05
-0.000103863
-3.53196e-05
-0.000270806
-0.000149392
-7.34719e-05
-6.31766e-05
-4.07146e-05
-1.36324e-05
-3.45265e-05
-7.39101e-05
-1.40154e-05
-3.58617e-05
-0.000155497
-7.45378e-05
-5.91234e-05
-7.66532e-06
9.45101e-06
1.7779e-06
-3.22568e-05
1.64683e-05
-6.54833e-05
-4.84807e-06
-0.000185375
-4.17008e-05
-6.31853e-06
1.58955e-05
3.78042e-05
-3.04347e-07
3.85491e-05
-6.48589e-05
-2.09423e-06
-1.62492e-05
-7.43148e-05
-4.49093e-05
2.7565e-05
4.10373e-05
1.93834e-05
6.26908e-05
-4.69179e-05
2.15387e-05
-7.51019e-05
-2.51829e-05
-0.000168089
-6.00235e-05
-2.13971e-05
-3.12841e-06
2.12943e-05
-1.26885e-05
-2.51056e-06
-4.73723e-05
-9.43397e-05
-4.32082e-05
0.00149639
0.000917807
0.000672692
0.00059454
0.000381643
0.000332114
0.000242383
0.000238927
0.000338103
0.000346349
0.000797544
0.000474287
0.000448869
0.000265577
0.000250118
0.000117432
0.000124073
0.000152722
9.62172e-05
0.000150549
0.000640273
0.00042368
0.000378894
0.000286523
0.000171781
0.000148214
9.91011e-05
5.24424e-05
0.000133881
7.37571e-05
0.000481847
0.00039322
0.0002898
0.000240304
0.000178526
8.59207e-05
7.2647e-05
9.6507e-05
2.39003e-05
6.66783e-05
0.000326159
0.000289564
0.000307422
0.000199475
0.000128283
9.95521e-05
6.4725e-05
1.11882e-05
8.51124e-05
1.70062e-05
0.000397129
0.000305909
0.000190563
0.000194661
9.73496e-05
5.1782e-05
3.34369e-05
6.38336e-05
-3.83239e-06
3.59775e-05
0.000173641
0.000227829
0.000208749
6.21704e-05
4.7985e-05
-8.02976e-07
5.2364e-06
-4.74889e-05
5.36576e-05
-5.43386e-06
0.000390658
0.000125366
0.000101338
2.10324e-05
-3.18166e-05
-5.28459e-05
-7.8916e-05
7.35604e-06
-4.0387e-05
1.50841e-05
-3.23566e-07
0.000210631
-6.64824e-05
4.40745e-06
-8.98903e-05
-8.23518e-05
-4.73737e-05
-8.5516e-05
2.10535e-05
-2.3334e-05
0.000319745
0.000185725
0.000118972
1.97114e-05
7.776e-06
-1.14199e-05
-2.05493e-05
1.49315e-05
4.33191e-05
1.08233e-05
-0.000923766
-0.000615845
-0.000491608
-0.000491063
-0.000441246
-0.000447403
-0.000372633
-0.000518923
-0.000541064
-0.00061649
-0.000561676
-0.000210402
-0.000128166
-0.000167103
-0.000115451
-0.0001537
-0.00020212
-0.000197354
-0.000273165
-0.000232641
-0.000485546
-0.000178999
-0.00014866
-0.000112115
-0.000106732
-0.000122931
-0.000137484
-0.00018819
-0.000191663
-0.000162536
-0.000328441
-0.000150339
-9.89596e-05
-8.37464e-05
-7.89048e-05
-7.72988e-05
-0.000131439
-0.000139145
-0.000143831
-0.000129214
-0.000263796
-7.05439e-05
-6.55673e-05
-4.75759e-05
-3.63757e-05
-6.97571e-05
-8.58758e-05
-0.000100498
-0.000125202
-9.10027e-05
-0.00015491
-5.27857e-05
-2.15189e-05
-4.67993e-07
-3.13912e-05
-2.31896e-05
-6.87895e-05
-9.92011e-05
-8.57482e-05
-7.43103e-05
-0.00016868
-5.61813e-06
1.13754e-05
-1.45158e-05
1.16111e-05
-3.44948e-05
-9.36388e-05
-6.77284e-05
-0.000111364
-8.19075e-05
-8.13176e-05
-2.69274e-05
1.0704e-05
1.48762e-06
2.99118e-06
-8.97007e-05
-4.03209e-05
-0.000154351
-0.000118765
-8.96753e-05
-0.000191279
1.66676e-05
-4.85297e-05
3.40462e-05
-8.48709e-05
9.01918e-06
-0.000180891
-0.000102627
-0.000192929
-0.000177742
-0.000163375
-4.6818e-05
-7.09979e-06
-5.31543e-05
-8.19127e-06
-9.88923e-05
-9.07951e-05
-0.000153257
-0.000241364
-0.000203093
0.00177185
0.00110942
0.000818209
0.000675667
0.000436546
0.000356078
0.000225509
0.000324651
0.000318918
0.000391729
0.00093449
0.000541514
0.000500489
0.000289481
0.000222969
0.000117533
0.000120528
9.87872e-05
0.000186236
0.000144616
0.000658856
0.000486593
0.00040616
0.000305305
0.000197788
0.000137203
0.000110273
0.00013715
0.000130811
0.000109235
0.000536154
0.000404296
0.000329179
0.000271695
0.000191681
0.000130877
0.000123378
0.00011054
0.000120707
8.9197e-05
0.000338578
0.000308382
0.000317464
0.000223711
0.000167221
0.000122722
0.000111428
0.000103058
0.000106947
6.95215e-05
0.000393127
0.000286685
0.000208931
0.000212971
0.000127759
0.000109877
9.5643e-05
9.96993e-05
9.15011e-05
6.49534e-05
0.000191772
0.000215458
0.000215133
0.000109253
0.000107242
5.73837e-05
9.28696e-05
6.89671e-05
0.000100161
6.65836e-05
0.000340503
0.000141151
0.000125544
8.79915e-05
3.12041e-05
6.68421e-05
3.26123e-05
0.000102006
9.4948e-05
7.58565e-05
7.37796e-05
0.00019086
2.0852e-05
4.64784e-05
2.43775e-05
-3.03039e-06
8.78749e-05
6.32057e-05
0.000138902
0.000126752
0.000308856
0.000192677
0.000136596
7.79903e-05
5.32174e-05
7.1635e-05
7.46584e-05
0.000113509
0.000184713
0.000149541
-0.00124751
-0.000731251
-0.000599186
-0.000515492
-0.00041763
-0.000389416
-0.000327604
-0.000330496
-0.000421786
-0.000397606
-0.000697001
-0.000352863
-0.000248016
-0.000231777
-0.000200349
-0.000159108
-0.000176635
-0.000201338
-0.000128449
-0.000167126
-0.000505061
-0.000215538
-0.000207653
-0.000162319
-0.000118788
-0.000136573
-0.000112707
-7.42248e-05
-0.000144094
-7.77116e-05
-0.000315187
-0.000180252
-0.000113012
-9.69559e-05
-9.18817e-05
-4.87163e-05
-6.75376e-05
-9.60382e-05
-2.40347e-05
-6.47349e-05
-0.000240976
-7.98594e-05
-8.87379e-05
-5.73098e-05
-2.81758e-05
-5.13889e-05
-3.84473e-05
-1.70698e-06
-7.02856e-05
-1.16001e-05
-0.00016839
-8.32603e-05
-2.86944e-05
-1.82631e-05
-2.09146e-05
1.08379e-05
-8.32721e-06
-4.41765e-05
1.71011e-05
-1.7998e-05
-0.000134652
-2.33825e-05
-1.09028e-05
1.07305e-05
3.6435e-05
1.26296e-05
-4.99786e-06
4.04625e-05
-3.76162e-05
7.75617e-06
-0.000112211
-1.4545e-05
1.93284e-05
3.98491e-05
4.46178e-05
1.97404e-05
5.23707e-05
-3.67859e-05
1.95332e-05
-6.36542e-06
-8.17384e-05
-4.77968e-06
2.91132e-05
5.04079e-05
2.25461e-05
6.41318e-05
-2.88472e-05
3.53204e-05
-4.93674e-05
-1.49445e-05
-0.000131373
-3.69659e-05
-5.23468e-06
-2.7618e-06
2.17138e-05
-1.16822e-05
1.61571e-06
-3.62403e-05
-7.02218e-05
-3.57311e-05
0.00106075
0.000666022
0.000472901
0.000420564
0.000278812
0.000253084
0.000158167
0.000258638
0.000284273
0.000307306
0.000601971
0.000311864
0.000268774
0.000164168
0.000122587
6.9156e-05
0.000100075
9.80144e-05
0.000150196
0.000113878
0.000493133
0.00029831
0.000243522
0.00017185
0.000106624
9.1028e-05
7.69521e-05
9.79121e-05
0.000127865
7.0971e-05
0.000372096
0.000266088
0.000195652
0.000152859
0.00010757
6.40852e-05
8.27906e-05
9.76963e-05
7.53301e-05
6.36164e-05
0.000251734
0.000196198
0.000191094
0.000121331
7.85219e-05
6.98778e-05
6.80292e-05
5.05429e-05
9.98827e-05
2.6168e-05
0.000262471
0.000183004
0.000116443
0.000106525
5.90908e-05
3.82376e-05
4.6372e-05
8.25821e-05
3.31526e-05
3.52666e-05
0.000125639
0.0001317
0.000112636
4.30991e-05
2.61205e-05
1.48075e-05
4.84204e-05
-1.31663e-07
8.42582e-05
4.01741e-06
0.000214531
7.47335e-05
5.98907e-05
1.56023e-05
-1.1884e-05
6.62295e-06
-2.93948e-05
7.12228e-05
9.59879e-06
2.11016e-05
3.00664e-05
0.000110965
-1.72762e-05
-3.70817e-06
-2.29988e-05
-5.16666e-05
3.8375e-05
-2.71469e-05
7.88498e-05
3.14713e-06
0.000164091
9.70672e-05
5.16235e-05
1.14044e-05
-1.06791e-05
9.16759e-06
-1.28906e-06
4.335e-05
8.73457e-05
1.36639e-05
-0.00110774
-0.000729019
-0.000599197
-0.000545291
-0.00045027
-0.000407701
-0.000349816
-0.000353893
-0.000398595
-0.000408796
-0.000690753
-0.000340342
-0.000275439
-0.000238487
-0.000206583
-0.000166191
-0.000169081
-0.000176528
-0.00015272
-0.000183418
-0.000531728
-0.000268991
-0.000250538
-0.000200418
-0.000152795
-0.00014633
-0.000123762
-0.00010813
-0.000136559
-0.000118741
-0.000410894
-0.000237341
-0.00017342
-0.000156201
-0.000133565
-9.14483e-05
-9.87003e-05
-0.000100607
-7.26064e-05
-9.69093e-05
-0.0002983
-0.000144992
-0.000162619
-0.000119196
-8.7376e-05
-8.97378e-05
-6.94983e-05
-5.5703e-05
-7.85814e-05
-6.63521e-05
-0.000264525
-0.000149643
-8.9038e-05
-8.67129e-05
-7.33692e-05
-4.41292e-05
-5.45415e-05
-6.00347e-05
-4.56146e-05
-5.83142e-05
-0.000194336
-6.51392e-05
-7.49524e-05
-4.31983e-05
-2.49248e-05
-3.11827e-05
-4.43759e-05
-3.18529e-05
-5.65952e-05
-6.26649e-05
-0.000167581
-6.10983e-05
-1.64012e-05
-1.85502e-05
1.82955e-07
-3.83846e-05
-1.40381e-05
-6.71037e-05
-6.37043e-05
-6.2626e-05
-0.000115737
-1.03819e-05
-1.63027e-05
1.33595e-05
-3.62425e-05
8.5557e-06
-7.95725e-05
-5.36171e-05
-9.87984e-05
-0.000124481
-0.000151347
-8.29904e-05
-5.42639e-05
-6.36202e-05
-3.54913e-05
-7.19986e-05
-6.78047e-05
-9.38728e-05
-0.000142094
-0.000133157
0.00105109
0.000649083
0.00050453
0.000419408
0.000308729
0.000266322
0.000162948
0.000279368
0.000263163
0.000287452
0.000646698
0.000285628
0.000201334
0.000151979
9.60267e-05
6.6462e-05
9.77613e-05
7.06991e-05
0.000158553
9.11809e-05
0.000440378
0.000199605
0.000167597
0.000109125
6.99261e-05
6.13757e-05
5.47711e-05
0.00010195
9.58125e-05
6.04598e-05
0.000303417
0.000148063
8.93986e-05
6.98839e-05
4.69804e-05
3.03906e-05
6.45911e-05
6.36012e-05
8.23906e-05
4.18463e-05
0.000169172
5.43635e-05
6.38469e-05
2.92386e-05
1.28655e-05
2.35029e-05
3.63367e-05
4.99601e-05
6.53876e-05
2.07932e-05
0.000116234
4.02906e-05
-6.77106e-07
-4.07842e-06
-1.66866e-06
-2.59968e-06
2.6383e-05
4.82241e-05
4.4944e-05
1.17349e-05
6.20784e-05
-2.45529e-05
-1.80497e-05
-2.4299e-05
-2.97823e-05
-8.06629e-06
4.47112e-05
2.68004e-05
6.44983e-05
1.4552e-05
2.33049e-05
-2.22874e-05
-5.01263e-05
-3.6513e-05
-4.38372e-05
3.14169e-05
-1.69828e-06
8.85375e-05
6.19654e-05
2.16443e-05
2.53223e-05
-5.52508e-05
-2.69192e-05
-6.57539e-05
1.34768e-05
-4.55688e-05
9.84227e-05
4.18843e-05
0.000123765
7.88643e-05
3.00263e-05
-1.39122e-05
-3.4207e-05
-1.31852e-05
-4.01255e-05
2.13178e-05
2.16861e-05
6.73424e-05
0.000142512
6.13128e-05
-0.00114381
-0.00082214
-0.000650794
-0.000637242
-0.000499792
-0.000458793
-0.000406416
-0.000376879
-0.000444268
-0.000424235
-0.000604494
-0.000353394
-0.00035773
-0.000249036
-0.000251735
-0.000187092
-0.000196514
-0.000224344
-0.000173003
-0.000231936
-0.000580522
-0.000361215
-0.000308214
-0.000262331
-0.000195799
-0.000188862
-0.000163434
-0.000132594
-0.00019279
-0.000162505
-0.000414771
-0.000333402
-0.000269279
-0.00023068
-0.000193038
-0.000134015
-0.00013527
-0.000156799
-9.71354e-05
-0.000153327
-0.000357785
-0.000270207
-0.000263696
-0.000199331
-0.000150864
-0.00014054
-0.000116292
-8.26668e-05
-0.000139531
-0.000108109
-0.000356452
-0.000263301
-0.000195497
-0.000190551
-0.000128954
-9.65495e-05
-8.8203e-05
-0.00011628
-6.55046e-05
-0.000115611
-0.000235249
-0.000241393
-0.000207692
-0.000111154
-0.000101964
-6.36504e-05
-7.07825e-05
-3.83779e-05
-0.000101579
-8.83473e-05
-0.000389885
-0.000167634
-0.000164419
-9.77333e-05
-5.33143e-05
-3.67636e-05
-2.34038e-05
-7.2292e-05
-5.08388e-05
-9.51993e-05
-0.000158245
-0.000282916
-5.00057e-05
-9.89082e-05
-1.4969e-05
-3.10988e-05
-3.84803e-05
-3.4505e-05
-8.2896e-05
-8.90214e-05
-0.000375468
-0.000224488
-0.000183481
-0.000100501
-0.0001002
-7.88198e-05
-8.52444e-05
-0.000100412
-0.0001224
-0.00011501
0.00130523
0.00105282
0.000690769
0.00059898
0.000290232
0.000211017
6.78027e-05
7.84441e-05
9.39951e-05
8.39223e-05
0.000619372
0.000506471
0.000529766
0.000223256
0.000186867
1.73689e-05
1.9504e-05
6.5049e-06
8.72635e-06
7.66579e-06
0.000434692
0.00051471
0.000410455
0.000286177
0.000140588
7.92392e-05
1.08614e-05
-7.86681e-06
2.63713e-05
-2.56293e-05
0.00032546
0.000422001
0.000336933
0.000256525
0.000149542
4.56271e-05
1.67721e-05
7.4744e-06
-2.85984e-05
-3.289e-05
9.99293e-05
0.00032991
0.000327923
0.000194078
0.000115099
4.59921e-05
7.00104e-06
-3.60553e-05
-1.25746e-05
-6.13633e-05
0.000225369
0.000276098
0.000194404
0.000209534
5.77664e-05
3.61751e-05
-2.36419e-05
-2.52659e-05
-5.20985e-05
-6.45669e-05
-0.000117274
0.000246964
0.000234659
5.47721e-05
7.90046e-05
-4.00112e-05
-3.68566e-05
-7.05336e-05
-5.18397e-05
-7.86891e-05
0.000240927
9.24613e-05
0.000149249
5.93289e-05
-2.69949e-05
-6.74347e-05
-8.15477e-05
-8.62558e-05
-7.16146e-05
-8.49915e-05
-0.000276303
0.000312554
-8.32212e-05
4.40784e-05
-0.00012926
-7.57455e-05
-0.000120692
-9.15907e-05
-6.93563e-05
-7.54514e-05
0.000120431
0.000162218
0.000103609
-3.47757e-05
-3.10919e-05
-8.46463e-05
-7.67358e-05
-7.88633e-05
-5.6625e-05
-7.90253e-05
-0.0014648
-0.000797068
-0.000832431
-0.00070507
-0.0006725
-0.000604707
-0.000545671
-0.000550288
-0.000567255
-0.000518595
-0.000947434
-0.000383687
-0.000231421
-0.000327224
-0.000283072
-0.000290808
-0.000292495
-0.000296737
-0.000274154
-0.000265799
-0.000676339
-0.000143554
-0.000194529
-0.000191433
-0.000189608
-0.000213005
-0.000219711
-0.000208734
-0.000229973
-0.000199388
-0.000432044
-0.000119252
-7.72127e-05
-0.000102567
-0.000141363
-0.000140657
-0.000172495
-0.000191806
-0.000166048
-0.000178741
-0.000395431
-7.78964e-06
-5.48333e-05
-8.17445e-05
-8.31651e-05
-0.000133806
-0.000143828
-0.000142105
-0.000178418
-0.000146618
-0.000260646
-6.9181e-05
-2.23712e-05
-1.89528e-05
-9.24324e-05
-6.7105e-05
-0.0001293
-0.000163186
-0.000133024
-0.000148883
-0.000363613
4.99721e-05
2.71949e-05
-1.72587e-05
1.84841e-05
-7.26544e-05
-0.00012537
-0.000102654
-0.000178138
-0.000145377
-0.000168399
-2.8123e-05
9.40368e-05
3.52375e-05
1.73886e-05
-0.00010128
-5.26915e-05
-0.000208625
-0.000145141
-0.000160454
-0.000297421
0.000204887
-1.6248e-05
0.000101377
-0.000112221
9.06797e-06
-0.000223245
-0.000113495
-0.000236882
-0.000206364
-0.000226376
-7.98907e-05
-4.13441e-05
-0.000127728
-7.46453e-05
-0.000177445
-0.000153986
-0.000211712
-0.000277203
-0.000197371
0.000560725
0.000469558
0.000249962
0.000225481
4.32842e-05
2.93956e-05
-0.00012228
5.78615e-05
-3.45339e-05
-8.4393e-05
0.000293471
0.000231764
0.000209783
4.85872e-05
-2.28659e-05
-7.50036e-05
-1.00674e-05
-7.50032e-05
6.3031e-05
-0.000133838
0.000276427
0.000292139
0.000194519
8.56862e-05
1.63383e-05
-1.14433e-05
-4.15295e-05
3.75471e-05
-1.46502e-05
-0.000133282
0.00022017
0.000245189
0.00016632
9.96681e-05
1.44881e-05
-2.45895e-05
2.1941e-05
-2.91027e-05
1.31349e-05
-0.000147331
6.33119e-05
0.000185658
0.000140301
3.50755e-05
-4.60678e-06
-2.67872e-05
-2.44308e-05
-1.16922e-06
-5.42356e-05
-0.000147511
6.12847e-05
9.25017e-05
5.4641e-05
3.10972e-05
-3.57404e-05
-1.9099e-05
-2.54077e-05
-4.84258e-05
-1.79739e-05
-0.000194925
-0.000150835
0.000103284
6.7518e-05
1.85139e-05
3.23918e-05
-2.42011e-05
3.07186e-05
2.3288e-05
-6.7124e-05
-0.000149779
-6.91899e-05
2.41311e-05
8.04599e-05
5.14109e-05
3.64811e-06
5.30333e-05
3.16684e-05
-7.55086e-06
3.05331e-05
-0.000209426
-0.000194855
0.000169067
3.33337e-05
3.15639e-05
6.51137e-06
-1.33825e-05
4.60763e-05
5.61463e-05
3.6333e-05
-6.44028e-05
-0.000230983
-0.000100746
-0.00010782
-0.000127106
-0.000143581
-0.000124212
-0.000102245
-0.000143497
-3.25729e-05
-0.000276693
-0.00109486
-0.000746733
-0.000754412
-0.000697222
-0.000676877
-0.000593888
-0.000611875
-0.000401754
-0.000562173
-0.000603899
-0.000788468
-0.000350527
-0.000294735
-0.000330198
-0.000344453
-0.000286146
-0.00021012
-0.000292708
-7.24126e-05
-0.000368977
-0.000618966
-0.000208062
-0.0002418
-0.000252228
-0.000212852
-0.000212073
-0.000177616
-5.02424e-05
-0.000169601
-0.000276554
-0.00045499
-0.000184244
-0.000155936
-0.000167392
-0.000189865
-0.000131368
-6.6287e-05
-0.000130282
-1.32903e-05
-0.000247751
-0.000414705
-0.000102677
-0.000147943
-0.000164935
-0.000133377
-0.000127405
-7.82994e-05
-6.88218e-06
-0.000105003
-0.000188889
-0.000365488
-0.000164353
-0.000116428
-0.000127235
-0.000134171
-6.46972e-05
-4.75649e-05
-6.9053e-05
-1.28468e-05
-0.000222256
-0.000417194
-6.37213e-05
-9.23503e-05
-6.92267e-05
-2.40332e-05
-4.88639e-05
1.83836e-05
3.13433e-05