/*--------------------------------*- C++ -*----------------------------------*\
| =========                 |                                                 |
| \\      /  F ield         | OpenFOAM: The Open Source CFD Toolbox           |
|  \\    /   O peration     | Version:  2406                                  |
|   \\  /    A nd           | Website:  www.openfoam.com                      |
|    \\/     M anipulation  |                                                 |
\*---------------------------------------------------------------------------*/
FoamFile
{
    version     2.0;
    format      ascii;
    arch        "LSB;label=32;scalar=64";
    class       volScalarField;
    location    "400";
    object      magR;
}
// * * * * * * * * * * * * * * * * * * * * * * * * * * * * * * * * * * * * * //

dimensions      [0 2 -2 0 0 0 0];

internalField   nonuniform List<scalar> 
25000
(
4.33263e-05
4.14276e-05
3.81636e-05
3.74726e-05
3.71324e-05
3.71399e-05
3.74891e-05
3.81597e-05
4.16745e-05
4.35948e-05
4.14618e-05
4.05475e-05
3.70383e-05
3.51852e-05
3.42874e-05
3.42807e-05
3.51578e-05
3.69869e-05
4.04155e-05
4.16266e-05
3.81984e-05
3.70689e-05
3.43571e-05
3.27245e-05
3.1929e-05
3.19245e-05
3.27087e-05
3.43168e-05
3.69681e-05
3.81261e-05
3.74942e-05
3.51967e-05
3.27309e-05
3.11314e-05
3.03393e-05
3.03382e-05
3.11223e-05
3.27057e-05
3.51531e-05
3.74622e-05
3.71448e-05
3.42986e-05
3.19327e-05
3.03411e-05
2.95521e-05
2.95511e-05
3.03357e-05
3.1921e-05
3.42729e-05
3.71197e-05
3.71432e-05
3.42871e-05
3.19281e-05
3.03376e-05
2.95509e-05
2.95506e-05
3.03359e-05
3.19215e-05
3.42733e-05
3.7122e-05
3.74885e-05
3.51637e-05
3.27096e-05
3.11233e-05
3.03369e-05
3.03374e-05
3.11225e-05
3.27066e-05
3.51549e-05
3.74688e-05
3.81539e-05
3.69757e-05
3.4321e-05
3.27094e-05
3.19222e-05
3.19224e-05
3.2709e-05
3.43187e-05
3.69706e-05
3.8137e-05
4.16584e-05
4.04205e-05
3.6989e-05
3.5156e-05
3.42745e-05
3.42745e-05
3.5156e-05
3.69873e-05
4.04172e-05
4.16415e-05
4.36011e-05
4.1632e-05
3.81254e-05
3.7461e-05
3.71186e-05
3.7122e-05
3.74693e-05
3.81385e-05
4.16515e-05
4.35909e-05
6.03818e-05
5.83711e-05
5.43458e-05
5.34914e-05
5.30457e-05
5.30476e-05
5.34955e-05
5.4352e-05
5.82109e-05
5.99568e-05
5.83637e-05
5.5141e-05
5.28939e-05
5.19569e-05
5.13552e-05
5.13616e-05
5.19809e-05
5.29995e-05
5.5207e-05
5.82009e-05
5.43183e-05
5.29452e-05
5.10292e-05
5.02433e-05
4.98236e-05
4.98285e-05
5.02675e-05
5.10635e-05
5.29403e-05
5.43662e-05
5.34823e-05
5.19533e-05
5.02494e-05
4.9334e-05
4.88652e-05
4.88731e-05
4.93444e-05
5.02628e-05
5.19854e-05
5.35163e-05
5.30465e-05
5.13523e-05
4.98226e-05
4.887e-05
4.8419e-05
4.84208e-05
4.88715e-05
4.98354e-05
5.1374e-05
5.30706e-05
5.30516e-05
5.13614e-05
4.9828e-05
4.88687e-05
4.84213e-05
4.84226e-05
4.88725e-05
4.9836e-05
5.13744e-05
5.30707e-05
5.35015e-05
5.19787e-05
5.02598e-05
4.93454e-05
4.88775e-05
4.88782e-05
4.93477e-05
5.02648e-05
5.19863e-05
5.35164e-05
5.43538e-05
5.29381e-05
5.10642e-05
5.02719e-05
4.98368e-05
4.98372e-05
5.02731e-05
5.10668e-05
5.29421e-05
5.43668e-05
5.81885e-05
5.52082e-05
5.30037e-05
5.19896e-05
5.13747e-05
5.13749e-05
5.199e-05
5.30051e-05
5.52101e-05
5.82006e-05
5.99609e-05
5.82314e-05
5.43725e-05
5.35182e-05
5.30717e-05
5.30709e-05
5.35157e-05
5.43692e-05
5.82262e-05
5.99648e-05
5.53069e-05
5.1596e-05
4.92885e-05
4.79816e-05
4.73978e-05
4.74001e-05
4.79897e-05
4.93026e-05
5.15973e-05
5.51689e-05
5.16244e-05
4.81857e-05
4.72501e-05
4.65543e-05
4.60689e-05
4.60742e-05
4.65802e-05
4.73681e-05
4.82299e-05
5.15705e-05
4.92838e-05
4.73309e-05
4.59779e-05
4.52645e-05
4.48191e-05
4.48246e-05
4.52901e-05
4.60048e-05
4.72867e-05
4.93055e-05
4.79769e-05
4.65594e-05
4.5275e-05
4.45154e-05
4.40522e-05
4.40615e-05
4.45247e-05
4.52817e-05
4.65791e-05
4.80004e-05
4.73946e-05
4.60661e-05
4.48198e-05
4.40588e-05
4.36664e-05
4.36685e-05
4.40579e-05
4.48302e-05
4.60837e-05
4.74111e-05
4.73997e-05
4.60734e-05
4.48228e-05
4.40549e-05
4.36686e-05
4.36698e-05
4.40588e-05
4.48307e-05
4.60841e-05
4.74111e-05
4.79909e-05
4.65722e-05
4.52782e-05
4.45243e-05
4.4065e-05
4.40658e-05
4.45273e-05
4.52832e-05
4.65801e-05
4.80001e-05
4.92978e-05
4.72838e-05
4.60041e-05
4.52928e-05
4.48309e-05
4.48315e-05
4.52946e-05
4.60076e-05
4.72884e-05
4.93052e-05
5.15654e-05
4.82317e-05
4.73717e-05
4.65868e-05
4.60843e-05
4.60843e-05
4.6587e-05
4.73727e-05
4.82326e-05
5.15695e-05
5.51667e-05
5.16089e-05
4.93149e-05
4.80022e-05
4.74125e-05
4.74118e-05
4.80003e-05
4.93127e-05
5.16055e-05
5.51718e-05
4.1955e-05
3.73012e-05
3.63213e-05
3.49353e-05
3.44426e-05
3.4441e-05
3.49354e-05
3.63322e-05
3.73044e-05
4.18504e-05
3.7324e-05
3.45019e-05
3.41128e-05
3.33704e-05
3.2992e-05
3.29946e-05
3.33887e-05
3.42098e-05
3.45259e-05
3.72725e-05
3.63245e-05
3.41907e-05
3.30768e-05
3.22351e-05
3.17523e-05
3.17567e-05
3.22557e-05
3.30938e-05
3.41351e-05
3.63291e-05
3.49333e-05
3.33788e-05
3.22462e-05
3.14752e-05
3.09936e-05
3.10017e-05
3.14819e-05
3.22462e-05
3.33843e-05
3.49417e-05
3.4442e-05
3.29918e-05
3.17539e-05
3.09997e-05
3.0586e-05
3.05872e-05
3.09969e-05
3.17584e-05
3.29991e-05
3.44476e-05
3.44435e-05
3.29946e-05
3.17558e-05
3.09963e-05
3.05874e-05
3.05878e-05
3.0997e-05
3.17583e-05
3.29988e-05
3.44475e-05
3.49376e-05
3.33805e-05
3.22451e-05
3.14821e-05
3.10038e-05
3.10036e-05
3.14822e-05
3.22458e-05
3.33831e-05
3.49413e-05
3.63263e-05
3.41321e-05
3.30932e-05
3.22568e-05
3.17594e-05
3.17591e-05
3.22562e-05
3.30931e-05
3.41332e-05
3.63285e-05
3.72739e-05
3.45258e-05
3.42119e-05
3.33919e-05
3.29987e-05
3.29982e-05
3.33904e-05
3.42105e-05
3.4525e-05
3.72742e-05
4.18579e-05
3.73115e-05
3.63417e-05
3.49437e-05
3.44476e-05
3.44459e-05
3.49393e-05
3.63356e-05
3.73052e-05
4.18534e-05
3.19961e-05
2.78011e-05
2.71571e-05
2.58488e-05
2.54139e-05
2.54081e-05
2.58324e-05
2.71494e-05
2.78019e-05
3.19251e-05
2.78201e-05
2.55018e-05
2.49639e-05
2.40441e-05
2.36919e-05
2.36918e-05
2.40526e-05
2.5034e-05
2.55034e-05
2.77719e-05
2.71607e-05
2.50302e-05
2.38745e-05
2.28128e-05
2.22873e-05
2.22908e-05
2.28296e-05
2.38858e-05
2.49695e-05
2.71434e-05
2.58411e-05
2.40493e-05
2.28208e-05
2.18904e-05
2.13635e-05
2.13699e-05
2.18962e-05
2.282e-05
2.40456e-05
2.58351e-05
2.54097e-05
2.3689e-05
2.2287e-05
2.13676e-05
2.08665e-05
2.08672e-05
2.13644e-05
2.22892e-05
2.36919e-05
2.54093e-05
2.54067e-05
2.3689e-05
2.22881e-05
2.13645e-05
2.08669e-05
2.08667e-05
2.13637e-05
2.22884e-05
2.36908e-05
2.54082e-05
2.58301e-05
2.40411e-05
2.28183e-05
2.1895e-05
2.13692e-05
2.13688e-05
2.1894e-05
2.28177e-05
2.40426e-05
2.58326e-05
2.71373e-05
2.49636e-05
2.38828e-05
2.28273e-05
2.22891e-05
2.22887e-05
2.28264e-05
2.38822e-05
2.49647e-05
2.71396e-05
2.7769e-05
2.55e-05
2.50332e-05
2.40518e-05
2.36908e-05
2.36902e-05
2.40502e-05
2.50315e-05
2.54998e-05
2.77703e-05
3.19278e-05
2.78031e-05
2.71542e-05
2.58359e-05
2.54086e-05
2.54073e-05
2.58318e-05
2.71484e-05
2.77984e-05
3.19251e-05
2.62908e-05
2.30591e-05
2.24454e-05
2.13461e-05
2.09684e-05
2.09619e-05
2.13214e-05
2.24116e-05
2.30324e-05
2.62013e-05
2.30815e-05
2.13865e-05
2.06522e-05
1.97113e-05
1.93789e-05
1.93794e-05
1.97186e-05
2.07071e-05
2.13674e-05
2.30096e-05
2.24482e-05
2.07129e-05
1.96157e-05
1.85313e-05
1.80418e-05
1.80448e-05
1.8546e-05
1.96242e-05
2.06476e-05
2.2409e-05
2.1338e-05
1.97164e-05
1.85383e-05
1.75765e-05
1.70779e-05
1.70826e-05
1.75799e-05
1.8537e-05
1.97111e-05
2.13254e-05
2.09638e-05
1.93765e-05
1.80418e-05
1.70819e-05
1.65754e-05
1.65752e-05
1.70772e-05
1.80428e-05
1.93798e-05
2.09641e-05
2.0959e-05
1.93763e-05
1.80424e-05
1.70785e-05
1.65754e-05
1.65748e-05
1.70767e-05
1.8042e-05
1.93786e-05
2.09624e-05
2.13181e-05
1.97068e-05
1.85359e-05
1.75796e-05
1.70823e-05
1.70817e-05
1.75782e-05
1.85349e-05
1.97082e-05
2.13219e-05
2.24e-05
2.06421e-05
1.96222e-05
1.85446e-05
1.80435e-05
1.80429e-05
1.85433e-05
1.96211e-05
2.0643e-05
2.24037e-05
2.3004e-05
2.13654e-05
2.07078e-05
1.97185e-05
1.93793e-05
1.93786e-05
1.97166e-05
2.07055e-05
2.13643e-05
2.30063e-05
2.62052e-05
2.30394e-05
2.24207e-05
2.13267e-05
2.09637e-05
2.09624e-05
2.13221e-05
2.24135e-05
2.30325e-05
2.62013e-05
2.35726e-05
2.13864e-05
2.07759e-05
1.98314e-05
1.94976e-05
1.94977e-05
1.98228e-05
2.07538e-05
2.13656e-05
2.34943e-05
2.142e-05
2.02621e-05
1.94199e-05
1.8551e-05
1.82425e-05
1.82479e-05
1.85731e-05
1.94924e-05
2.02548e-05
2.1348e-05
2.07868e-05
1.94851e-05
1.85256e-05
1.75524e-05
1.71427e-05
1.7147e-05
1.75722e-05
1.85432e-05
1.94313e-05
2.07544e-05
1.98317e-05
1.8562e-05
1.75616e-05
1.67054e-05
1.62948e-05
1.62995e-05
1.67093e-05
1.75637e-05
1.85658e-05
1.98302e-05
1.94966e-05
1.82433e-05
1.71447e-05
1.62998e-05
1.58813e-05
1.58811e-05
1.62953e-05
1.71474e-05
1.82519e-05
1.95054e-05
1.94951e-05
1.82454e-05
1.71451e-05
1.62958e-05
1.58815e-05
1.58813e-05
1.62952e-05
1.71469e-05
1.82508e-05
1.95033e-05
1.98187e-05
1.85595e-05
1.75613e-05
1.67089e-05
1.63007e-05
1.63004e-05
1.67089e-05
1.75624e-05
1.8563e-05
1.98251e-05
2.07405e-05
1.94239e-05
1.85402e-05
1.75713e-05
1.71478e-05
1.71478e-05
1.75713e-05
1.85412e-05
1.94269e-05
2.07465e-05
2.13369e-05
2.02498e-05
1.94914e-05
1.85727e-05
1.82505e-05
1.82506e-05
1.85728e-05
1.94917e-05
2.02518e-05
2.13411e-05
2.34982e-05
2.13748e-05
2.07642e-05
1.98293e-05
1.95036e-05
1.95029e-05
1.98263e-05
2.0759e-05
2.13693e-05
2.34933e-05
2.26742e-05
2.12676e-05
2.06466e-05
1.98388e-05
1.95374e-05
1.95426e-05
1.9846e-05
2.06476e-05
2.12639e-05
2.26216e-05
2.13076e-05
2.04714e-05
1.96206e-05
1.88548e-05
1.85592e-05
1.8566e-05
1.88836e-05
1.97084e-05
2.04744e-05
2.12457e-05
2.0667e-05
1.96936e-05
1.8854e-05
1.79905e-05
1.76364e-05
1.76403e-05
1.80102e-05
1.88728e-05
1.96411e-05
2.06446e-05
1.98456e-05
1.88707e-05
1.80027e-05
1.72357e-05
1.68843e-05
1.68889e-05
1.72375e-05
1.80012e-05
1.88742e-05
1.9851e-05
1.9537e-05
1.85618e-05
1.76404e-05
1.68905e-05
1.65436e-05
1.65435e-05
1.68852e-05
1.76416e-05
1.85695e-05
1.95472e-05
1.95392e-05
1.85642e-05
1.76391e-05
1.68853e-05
1.65441e-05
1.65443e-05
1.68857e-05
1.76417e-05
1.8569e-05
1.95453e-05
1.98412e-05
1.88699e-05
1.79993e-05
1.72377e-05
1.68913e-05
1.68917e-05
1.72389e-05
1.80017e-05
1.88734e-05
1.98459e-05
2.06308e-05
1.96363e-05
1.88714e-05
1.80107e-05
1.7643e-05
1.76435e-05
1.8012e-05
1.88738e-05
1.96398e-05
2.06366e-05
2.12311e-05
2.04712e-05
1.97082e-05
1.88842e-05
1.85694e-05
1.85701e-05
1.88858e-05
1.97105e-05
2.04741e-05
2.12371e-05
2.26172e-05
2.12705e-05
2.06544e-05
1.98496e-05
1.95461e-05
1.95465e-05
1.98497e-05
2.06535e-05
2.12686e-05
2.26169e-05
2.22852e-05
2.13472e-05
2.07681e-05
2.00994e-05
1.9827e-05
1.98332e-05
2.01156e-05
2.07903e-05
2.13679e-05
2.22523e-05
2.13938e-05
2.07703e-05
2.00055e-05
1.93456e-05
1.90594e-05
1.90648e-05
1.93741e-05
2.01019e-05
2.07845e-05
2.13469e-05
2.07968e-05
2.00865e-05
1.93464e-05
1.85688e-05
1.82447e-05
1.82472e-05
1.85849e-05
1.93601e-05
2.00294e-05
2.07844e-05
2.01096e-05
1.93648e-05
1.85825e-05
1.78751e-05
1.75514e-05
1.7556e-05
1.78741e-05
1.85738e-05
1.93618e-05
2.01184e-05
1.98266e-05
1.90621e-05
1.82482e-05
1.75575e-05
1.72521e-05
1.7252e-05
1.7551e-05
1.82459e-05
1.90644e-05
1.9834e-05
1.98311e-05
1.90631e-05
1.8245e-05
1.75511e-05
1.72523e-05
1.72525e-05
1.75511e-05
1.82458e-05
1.90639e-05
1.98323e-05
2.01134e-05
1.93605e-05
1.8573e-05
1.78744e-05
1.75579e-05
1.7558e-05
1.78745e-05
1.85735e-05
1.936e-05
2.01131e-05
2.07747e-05
2.0027e-05
1.93599e-05
1.85854e-05
1.82486e-05
1.82486e-05
1.85853e-05
1.93596e-05
2.00265e-05
2.07763e-05
2.1337e-05
2.07827e-05
2.01028e-05
1.93745e-05
1.90654e-05
1.90657e-05
1.93745e-05
2.01024e-05
2.07818e-05
2.13384e-05
2.22494e-05
2.1372e-05
2.07948e-05
2.01167e-05
1.9833e-05
1.98334e-05
2.01173e-05
2.07948e-05
2.13718e-05
2.22508e-05
2.18339e-05
2.1166e-05
2.06753e-05
2.01284e-05
1.98762e-05
1.98789e-05
2.01396e-05
2.07035e-05
2.11972e-05
2.1812e-05
2.12128e-05
2.07641e-05
2.0122e-05
1.95489e-05
1.92714e-05
1.92736e-05
1.95709e-05
2.02168e-05
2.07808e-05
2.11757e-05
2.07063e-05
2.0206e-05
1.95496e-05
1.88386e-05
1.85319e-05
1.85333e-05
1.88509e-05
1.95559e-05
2.01403e-05
2.06957e-05
2.01358e-05
1.95678e-05
1.88531e-05
1.81943e-05
1.78855e-05
1.78906e-05
1.81921e-05
1.88387e-05
1.95564e-05
2.01414e-05
1.98735e-05
1.92728e-05
1.85352e-05
1.78915e-05
1.76124e-05
1.76127e-05
1.7885e-05
1.85311e-05
1.92706e-05
1.98754e-05
1.98771e-05
1.92721e-05
1.8531e-05
1.78852e-05
1.76128e-05
1.76129e-05
1.7885e-05
1.85311e-05
1.92704e-05
1.98738e-05
2.01387e-05
1.95576e-05
1.88395e-05
1.81927e-05
1.78924e-05
1.78925e-05
1.81924e-05
1.88387e-05
1.95555e-05
2.01353e-05
2.06873e-05
2.01407e-05
1.95576e-05
1.88522e-05
1.85346e-05
1.85346e-05
1.88515e-05
1.95562e-05
2.01385e-05
2.06862e-05
2.11648e-05
2.07821e-05
2.02201e-05
1.95728e-05
1.92735e-05
1.92733e-05
1.9572e-05
2.02181e-05
2.0779e-05
2.11638e-05
2.18053e-05
2.12025e-05
2.0709e-05
2.01412e-05
1.98757e-05
1.98756e-05
2.01404e-05
2.07066e-05
2.11988e-05
2.18046e-05
2.1248e-05
2.07342e-05
2.03604e-05
1.99144e-05
1.96799e-05
1.96794e-05
1.99205e-05
2.0391e-05
2.07787e-05
2.12432e-05
2.07807e-05
2.05147e-05
1.99893e-05
1.94807e-05
1.92134e-05
1.92136e-05
1.9498e-05
2.00804e-05
2.05323e-05
2.07563e-05
2.03913e-05
2.00749e-05
1.94869e-05
1.88277e-05
1.8533e-05
1.85348e-05
1.88391e-05
1.94884e-05
2.00024e-05
2.03831e-05
1.99185e-05
1.94983e-05
1.8841e-05
1.82234e-05
1.79248e-05
1.79313e-05
1.82232e-05
1.88256e-05
1.94825e-05
1.99231e-05
1.96752e-05
1.92121e-05
1.85334e-05
1.79294e-05
1.7668e-05
1.7669e-05
1.7925e-05
1.85313e-05
1.92102e-05
1.96768e-05
1.96766e-05
1.92091e-05
1.85291e-05
1.79235e-05
1.76684e-05
1.7669e-05
1.79247e-05
1.85314e-05
1.92102e-05
1.96757e-05
1.99182e-05
1.94805e-05
1.88244e-05
1.82221e-05
1.79322e-05
1.79325e-05
1.82229e-05
1.88256e-05
1.94817e-05
1.99182e-05
2.03735e-05
1.99988e-05
1.94877e-05
1.88386e-05
1.8535e-05
1.85352e-05
1.88393e-05
1.94886e-05
2.00006e-05
2.03752e-05
2.07464e-05
2.0529e-05
2.00813e-05
1.94987e-05
1.92128e-05
1.92131e-05
1.94995e-05
2.00824e-05
2.05312e-05
2.0747e-05
2.12419e-05
2.07827e-05
2.03966e-05
1.99229e-05
1.9677e-05
1.96764e-05
1.99225e-05
2.03952e-05
2.07813e-05
2.12384e-05
2.07056e-05
2.01896e-05
1.99151e-05
1.95442e-05
1.93209e-05
1.93155e-05
1.95375e-05
1.99338e-05
2.02264e-05
2.07046e-05
2.02332e-05
2.01226e-05
1.96916e-05
1.92297e-05
1.8971e-05
1.89689e-05
1.9239e-05
1.97698e-05
2.01255e-05
2.02026e-05
1.99434e-05
1.9775e-05
1.92432e-05
1.86253e-05
1.83389e-05
1.83407e-05
1.86351e-05
1.92377e-05
1.96894e-05
1.99226e-05
1.9544e-05
1.92443e-05
1.86377e-05
1.80545e-05
1.77631e-05
1.77702e-05
1.80552e-05
1.86206e-05
1.92213e-05
1.95381e-05
1.93142e-05
1.89679e-05
1.83383e-05
1.7767e-05
1.75165e-05
1.75177e-05
1.77631e-05
1.83364e-05
1.89641e-05
1.93108e-05
1.93113e-05
1.89635e-05
1.83344e-05
1.77619e-05
1.75169e-05
1.75174e-05
1.77629e-05
1.83367e-05
1.89644e-05
1.931e-05
1.95323e-05
1.922e-05
1.86201e-05
1.80545e-05
1.77709e-05
1.77713e-05
1.80551e-05
1.86212e-05
1.92216e-05
1.95339e-05
1.99117e-05
1.9687e-05
1.92378e-05
1.86351e-05
1.83414e-05
1.83417e-05
1.8636e-05
1.92393e-05
1.96894e-05
1.99154e-05
2.01895e-05
2.01232e-05
1.97715e-05
1.9241e-05
1.8969e-05
1.8969e-05
1.92417e-05
1.9773e-05
2.01261e-05
2.01935e-05
2.06962e-05
2.02268e-05
1.99375e-05
1.95402e-05
1.93128e-05
1.93125e-05
1.95404e-05
1.99385e-05
2.02292e-05
2.06982e-05
2.0322e-05
1.95968e-05
1.93923e-05
1.90788e-05
1.88685e-05
1.88614e-05
1.90664e-05
1.94029e-05
1.96302e-05
2.03248e-05
1.964e-05
1.96563e-05
1.93007e-05
1.8877e-05
1.86291e-05
1.86271e-05
1.88846e-05
1.93717e-05
1.96493e-05
1.96045e-05
1.94189e-05
1.93834e-05
1.89026e-05
1.83215e-05
1.80435e-05
1.80463e-05
1.83326e-05
1.88948e-05
1.92903e-05
1.93892e-05
1.90784e-05
1.88918e-05
1.83334e-05
1.77811e-05
1.74967e-05
1.75044e-05
1.77832e-05
1.83168e-05
1.88655e-05
1.90662e-05
1.88646e-05
1.86276e-05
1.80428e-05
1.75005e-05
1.72578e-05
1.72586e-05
1.74961e-05
1.80406e-05
1.86224e-05
1.88586e-05
1.88599e-05
1.86232e-05
1.80406e-05
1.74966e-05
1.72584e-05
1.72581e-05
1.74956e-05
1.80406e-05
1.86226e-05
1.88584e-05
1.9063e-05
1.88663e-05
1.83185e-05
1.7784e-05
1.75055e-05
1.75049e-05
1.77823e-05
1.83167e-05
1.88651e-05
1.90635e-05
1.93827e-05
1.92902e-05
1.8897e-05
1.83341e-05
1.80478e-05
1.80471e-05
1.83324e-05
1.88949e-05
1.92892e-05
1.93841e-05
1.95976e-05
1.96494e-05
1.93754e-05
1.88884e-05
1.86291e-05
1.86281e-05
1.88863e-05
1.93733e-05
1.96486e-05
1.95985e-05
2.03208e-05
1.96317e-05
1.94082e-05
1.90717e-05
1.88622e-05
1.8861e-05
1.90702e-05
1.94076e-05
1.96336e-05
2.03231e-05
2.0268e-05
1.90638e-05
1.88609e-05
1.85837e-05
1.8384e-05
1.83759e-05
1.8566e-05
1.88607e-05
1.90827e-05
2.0267e-05
1.9102e-05
1.91687e-05
1.88715e-05
1.84804e-05
1.82435e-05
1.82422e-05
1.84877e-05
1.89356e-05
1.91488e-05
1.90557e-05
1.88838e-05
1.89513e-05
1.85187e-05
1.79715e-05
1.77017e-05
1.77055e-05
1.79843e-05
1.85102e-05
1.88524e-05
1.8843e-05
1.8582e-05
1.84945e-05
1.79834e-05
1.74598e-05
1.71825e-05
1.71901e-05
1.74625e-05
1.79679e-05
1.84665e-05
1.85631e-05
1.83809e-05
1.82428e-05
1.7702e-05
1.71867e-05
1.69502e-05
1.69503e-05
1.7181e-05
1.76994e-05
1.82376e-05
1.8373e-05
1.83746e-05
1.8239e-05
1.77008e-05
1.71832e-05
1.69505e-05
1.69495e-05
1.71806e-05
1.76996e-05
1.8238e-05
1.8373e-05
1.85608e-05
1.84684e-05
1.79709e-05
1.74642e-05
1.7191e-05
1.71901e-05
1.74614e-05
1.79679e-05
1.8467e-05
1.85611e-05
1.88378e-05
1.8854e-05
1.8513e-05
1.79861e-05
1.77072e-05
1.77063e-05
1.79837e-05
1.85104e-05
1.88523e-05
1.88382e-05
1.90482e-05
1.91507e-05
1.89395e-05
1.84916e-05
1.82451e-05
1.82438e-05
1.84888e-05
1.89365e-05
1.91486e-05
1.90487e-05
2.02609e-05
1.90858e-05
1.8866e-05
1.8571e-05
1.83771e-05
1.83757e-05
1.85683e-05
1.88634e-05
1.90847e-05
2.02623e-05
2.04756e-05
1.86403e-05
1.8351e-05
1.80908e-05
1.79034e-05
1.78979e-05
1.80778e-05
1.83507e-05
1.86564e-05
2.04729e-05
1.86763e-05
1.86896e-05
1.84387e-05
1.808e-05
1.7857e-05
1.78586e-05
1.80935e-05
1.85055e-05
1.86684e-05
1.86274e-05
1.8371e-05
1.85173e-05
1.81336e-05
1.76202e-05
1.73603e-05
1.73656e-05
1.76369e-05
1.81295e-05
1.84215e-05
1.83298e-05
1.80891e-05
1.80948e-05
1.76321e-05
1.71364e-05
1.6867e-05
1.68746e-05
1.71402e-05
1.76197e-05
1.80708e-05
1.80728e-05
1.79019e-05
1.78574e-05
1.73607e-05
1.68713e-05
1.6641e-05
1.66405e-05
1.6865e-05
1.73591e-05
1.78552e-05
1.78981e-05
1.78969e-05
1.78549e-05
1.73607e-05
1.6868e-05
1.66411e-05
1.66398e-05
1.68647e-05
1.73594e-05
1.7856e-05
1.78989e-05
1.80711e-05
1.80719e-05
1.76225e-05
1.71423e-05
1.68757e-05
1.68746e-05
1.71394e-05
1.76201e-05
1.8072e-05
1.80734e-05
1.83272e-05
1.84226e-05
1.81314e-05
1.76382e-05
1.73674e-05
1.73665e-05
1.76362e-05
1.81296e-05
1.84223e-05
1.83284e-05
1.86243e-05
1.867e-05
1.85078e-05
1.80961e-05
1.78625e-05
1.78615e-05
1.8094e-05
1.85059e-05
1.86692e-05
1.86244e-05
2.04723e-05
1.86611e-05
1.83559e-05
1.80823e-05
1.79019e-05
1.79007e-05
1.80799e-05
1.83532e-05
1.86598e-05
2.04718e-05
2.04631e-05
1.84148e-05
1.79028e-05
1.76267e-05
1.74464e-05
1.74443e-05
1.76209e-05
1.79068e-05
1.8428e-05
2.04546e-05
1.84484e-05
1.82339e-05
1.80121e-05
1.76849e-05
1.7477e-05
1.74818e-05
1.77064e-05
1.8086e-05
1.82167e-05
1.83965e-05
1.79209e-05
1.80892e-05
1.77539e-05
1.72738e-05
1.70242e-05
1.70306e-05
1.72944e-05
1.77561e-05
1.80005e-05
1.78808e-05
1.76257e-05
1.77015e-05
1.72869e-05
1.68184e-05
1.65566e-05
1.65636e-05
1.68221e-05
1.72771e-05
1.76819e-05
1.76124e-05
1.74462e-05
1.74795e-05
1.70267e-05
1.65618e-05
1.6337e-05
1.63357e-05
1.6554e-05
1.70249e-05
1.74795e-05
1.74452e-05
1.74433e-05
1.74787e-05
1.7027e-05
1.65581e-05
1.63367e-05
1.63351e-05
1.65541e-05
1.70256e-05
1.74806e-05
1.74464e-05
1.7612e-05
1.76833e-05
1.72797e-05
1.68244e-05
1.65648e-05
1.6564e-05
1.68222e-05
1.72783e-05
1.76843e-05
1.76145e-05
1.78804e-05
1.80022e-05
1.7757e-05
1.7295e-05
1.70329e-05
1.70324e-05
1.72942e-05
1.77567e-05
1.80027e-05
1.78813e-05
1.83943e-05
1.82187e-05
1.80862e-05
1.77071e-05
1.74863e-05
1.74858e-05
1.77063e-05
1.80854e-05
1.8218e-05
1.83946e-05
2.04534e-05
1.84324e-05
1.7909e-05
1.76223e-05
1.74482e-05
1.74477e-05
1.76209e-05
1.79069e-05
1.84303e-05
2.04527e-05
1.85375e-05
1.84106e-05
1.75427e-05
1.72076e-05
1.70269e-05
1.70304e-05
1.72155e-05
1.7561e-05
1.84355e-05
1.85387e-05
1.84435e-05
1.78253e-05
1.76063e-05
1.73087e-05
1.71166e-05
1.71245e-05
1.73387e-05
1.76899e-05
1.78182e-05
1.83999e-05
1.75611e-05
1.7684e-05
1.73949e-05
1.69475e-05
1.67085e-05
1.67154e-05
1.69703e-05
1.74024e-05
1.7604e-05
1.75303e-05
1.72096e-05
1.73285e-05
1.6962e-05
1.65198e-05
1.62653e-05
1.62712e-05
1.65216e-05
1.69524e-05
1.73129e-05
1.72037e-05
1.70298e-05
1.71218e-05
1.67126e-05
1.62712e-05
1.60517e-05
1.60493e-05
1.6261e-05
1.6709e-05
1.71224e-05
1.70325e-05
1.70306e-05
1.7122e-05
1.67123e-05
1.62663e-05
1.60507e-05
1.60487e-05
1.62612e-05
1.67095e-05
1.71234e-05
1.7034e-05
1.72062e-05
1.73144e-05
1.69548e-05
1.65239e-05
1.6272e-05
1.62711e-05
1.65217e-05
1.69533e-05
1.73148e-05
1.72072e-05
1.75343e-05
1.76057e-05
1.7402e-05
1.69697e-05
1.67166e-05
1.67163e-05
1.69693e-05
1.74017e-05
1.76054e-05
1.75333e-05
1.84033e-05
1.78196e-05
1.76877e-05
1.73369e-05
1.71281e-05
1.71279e-05
1.73364e-05
1.76868e-05
1.7818e-05
1.84013e-05
1.85428e-05
1.84388e-05
1.756e-05
1.72135e-05
1.70344e-05
1.70341e-05
1.72123e-05
1.75575e-05
1.84359e-05
1.85401e-05
1.34253e-05
1.85663e-05
1.732e-05
1.68618e-05
1.66613e-05
1.6668e-05
1.68777e-05
1.73468e-05
1.85955e-05
1.34153e-05
1.85971e-05
1.74874e-05
1.72254e-05
1.69501e-05
1.67713e-05
1.67808e-05
1.69844e-05
1.73145e-05
1.74867e-05
1.85571e-05
1.73378e-05
1.73024e-05
1.70515e-05
1.66343e-05
1.6405e-05
1.64115e-05
1.66569e-05
1.70611e-05
1.72282e-05
1.73121e-05
1.68651e-05
1.69715e-05
1.66499e-05
1.62328e-05
1.59851e-05
1.59895e-05
1.62318e-05
1.6639e-05
1.69571e-05
1.6863e-05
1.66648e-05
1.67777e-05
1.64106e-05
1.59917e-05
1.57774e-05
1.57741e-05
1.59793e-05
1.64048e-05
1.67778e-05
1.66688e-05
1.66676e-05
1.6778e-05
1.64088e-05
1.59852e-05
1.57756e-05
1.57735e-05
1.59798e-05
1.64054e-05
1.67786e-05
1.667e-05
1.68669e-05
1.69587e-05
1.66407e-05
1.62335e-05
1.59898e-05
1.59894e-05
1.62324e-05
1.664e-05
1.69591e-05
1.68664e-05
1.73178e-05
1.72299e-05
1.70594e-05
1.6655e-05
1.64116e-05
1.64118e-05
1.66557e-05
1.70603e-05
1.72298e-05
1.73156e-05
1.85614e-05
1.74881e-05
1.73104e-05
1.69804e-05
1.67828e-05
1.6783e-05
1.69808e-05
1.73101e-05
1.7486e-05
1.85585e-05
1.34185e-05
1.8598e-05
1.73431e-05
1.68726e-05
1.667e-05
1.66699e-05
1.68715e-05
1.73399e-05
1.85932e-05
1.34135e-05
2.92707e-05
1.84466e-05
1.72422e-05
1.66051e-05
1.6363e-05
1.6373e-05
1.66302e-05
1.72809e-05
1.84888e-05
2.92054e-05
1.84769e-05
1.72386e-05
1.68753e-05
1.66109e-05
1.64442e-05
1.64551e-05
1.66498e-05
1.69714e-05
1.72485e-05
1.84489e-05
1.72611e-05
1.69531e-05
1.67262e-05
1.63373e-05
1.61181e-05
1.61244e-05
1.63602e-05
1.67385e-05
1.68861e-05
1.72448e-05
1.66106e-05
1.66344e-05
1.63537e-05
1.59608e-05
1.57204e-05
1.5724e-05
1.59583e-05
1.63423e-05
1.66225e-05
1.66148e-05
1.63672e-05
1.6451e-05
1.61239e-05
1.5727e-05
1.55187e-05
1.55152e-05
1.57141e-05
1.61174e-05
1.64517e-05
1.63743e-05
1.63718e-05
1.64507e-05
1.61206e-05
1.57193e-05
1.55166e-05
1.5515e-05
1.57148e-05
1.61179e-05
1.64522e-05
1.63754e-05
1.66183e-05
1.66219e-05
1.6342e-05
1.59588e-05
1.57241e-05
1.57243e-05
1.59593e-05
1.63431e-05
1.66238e-05
1.66186e-05
1.72515e-05
1.68856e-05
1.67346e-05
1.63567e-05
1.61236e-05
1.61244e-05
1.63591e-05
1.67374e-05
1.68874e-05
1.72499e-05
1.84561e-05
1.7248e-05
1.69651e-05
1.66439e-05
1.64559e-05
1.64568e-05
1.66459e-05
1.69669e-05
1.72481e-05
1.84533e-05
2.92103e-05
1.84905e-05
1.7276e-05
1.66238e-05
1.63749e-05
1.63752e-05
1.66236e-05
1.72738e-05
1.84864e-05
2.92049e-05
9.20332e-05
1.70703e-05
1.72719e-05
1.64608e-05
1.61523e-05
1.61629e-05
1.64881e-05
1.73147e-05
1.71125e-05
9.1901e-05
1.70974e-05
1.70882e-05
1.65678e-05
1.62928e-05
1.61328e-05
1.61435e-05
1.63316e-05
1.66643e-05
1.71007e-05
1.70751e-05
1.72929e-05
1.66456e-05
1.64162e-05
1.60516e-05
1.58414e-05
1.5847e-05
1.60729e-05
1.64275e-05
1.65797e-05
1.72778e-05
1.64681e-05
1.63175e-05
1.60687e-05
1.56983e-05
1.54648e-05
1.54676e-05
1.56939e-05
1.60549e-05
1.63033e-05
1.64715e-05
1.61558e-05
1.61394e-05
1.58476e-05
1.54716e-05
1.52693e-05
1.52658e-05
1.54581e-05
1.58394e-05
1.61377e-05
1.61612e-05
1.61596e-05
1.61376e-05
1.58425e-05
1.54627e-05
1.5267e-05
1.52658e-05
1.54589e-05
1.58396e-05
1.61377e-05
1.61616e-05
1.64741e-05
1.6302e-05
1.60532e-05
1.56935e-05
1.54675e-05
1.54683e-05
1.56951e-05
1.60552e-05
1.63039e-05
1.64741e-05
1.7283e-05
1.6578e-05
1.6422e-05
1.60681e-05
1.58452e-05
1.58465e-05
1.60716e-05
1.64261e-05
1.65806e-05
1.72822e-05
1.70817e-05
1.7099e-05
1.66566e-05
1.6324e-05
1.61422e-05
1.61434e-05
1.63272e-05
1.66597e-05
1.71002e-05
1.70799e-05
9.19001e-05
1.71126e-05
1.73074e-05
1.64793e-05
1.61618e-05
1.61628e-05
1.64809e-05
1.73077e-05
1.71093e-05
9.18993e-05
0.000217186
1.38835e-05
1.71882e-05
1.64049e-05
1.60282e-05
1.60382e-05
1.64316e-05
1.72309e-05
1.39208e-05
0.000216955
1.3905e-05
1.69797e-05
1.63171e-05
1.60021e-05
1.58424e-05
1.5852e-05
1.6038e-05
1.64101e-05
1.69909e-05
1.38884e-05
1.72109e-05
1.63958e-05
1.61269e-05
1.57821e-05
1.55801e-05
1.55845e-05
1.58e-05
1.61338e-05
1.6327e-05
1.71961e-05
1.64151e-05
1.60284e-05
1.57996e-05
1.54502e-05
1.52236e-05
1.52257e-05
1.54433e-05
1.57815e-05
1.60094e-05
1.64155e-05
1.60332e-05
1.58498e-05
1.55865e-05
1.52307e-05
1.50346e-05
1.50308e-05
1.52158e-05
1.5575e-05
1.58432e-05
1.60346e-05
1.60362e-05
1.58466e-05
1.55802e-05
1.52213e-05
1.50325e-05
1.50312e-05
1.52165e-05
1.55747e-05
1.58426e-05
1.60345e-05
1.64204e-05
1.60105e-05
1.57813e-05
1.54439e-05
1.52262e-05
1.52266e-05
1.54441e-05
1.57808e-05
1.60083e-05
1.6417e-05
1.7204e-05
1.63279e-05
1.61304e-05
1.57965e-05
1.55828e-05
1.55834e-05
1.57981e-05
1.61314e-05
1.63264e-05
1.71995e-05
1.39046e-05
1.69927e-05
1.64056e-05
1.60323e-05
1.58501e-05
1.58507e-05
1.60333e-05
1.64055e-05
1.69897e-05
1.38955e-05
0.000216955
1.39252e-05
1.72263e-05
1.6425e-05
1.60371e-05
1.60378e-05
1.64256e-05
1.72258e-05
1.39179e-05
0.000216956
0.000426497
2.00978e-05
1.64654e-05
1.63335e-05
1.59508e-05
1.59588e-05
1.63556e-05
1.65011e-05
2.01146e-05
0.000426157
2.01232e-05
1.67268e-05
1.61253e-05
1.57355e-05
1.55678e-05
1.55763e-05
1.57692e-05
1.62157e-05
1.67387e-05
2.00681e-05
1.64854e-05
1.62035e-05
1.58495e-05
1.55179e-05
1.53237e-05
1.53276e-05
1.55344e-05
1.58544e-05
1.61343e-05
1.6473e-05
1.6344e-05
1.57625e-05
1.55361e-05
1.52064e-05
1.49873e-05
1.49893e-05
1.51992e-05
1.55167e-05
1.57414e-05
1.63425e-05
1.59554e-05
1.55757e-05
1.53314e-05
1.49951e-05
1.48058e-05
1.48024e-05
1.49807e-05
1.53191e-05
1.55674e-05
1.59549e-05
1.5958e-05
1.55726e-05
1.53252e-05
1.49865e-05
1.48048e-05
1.48036e-05
1.49817e-05
1.5319e-05
1.55669e-05
1.59545e-05
1.63485e-05
1.57454e-05
1.55192e-05
1.52019e-05
1.49923e-05
1.49923e-05
1.52011e-05
1.55166e-05
1.5741e-05
1.63431e-05
1.6484e-05
1.614e-05
1.58556e-05
1.55347e-05
1.53287e-05
1.53288e-05
1.55345e-05
1.58537e-05
1.61349e-05
1.64751e-05
2.00726e-05
1.67478e-05
1.62176e-05
1.57683e-05
1.55769e-05
1.55768e-05
1.57671e-05
1.6214e-05
1.67399e-05
2.00745e-05
0.000426165
2.01083e-05
1.65066e-05
1.63556e-05
1.596e-05
1.59597e-05
1.63531e-05
1.65011e-05
2.0113e-05
0.000426165
0.000732171
5.38038e-05
1.44913e-05
1.59725e-05
1.57913e-05
1.57998e-05
1.59982e-05
1.45333e-05
5.38408e-05
0.00073174
5.38687e-05
1.5965e-05
1.59879e-05
1.55026e-05
1.53183e-05
1.53275e-05
1.55394e-05
1.60841e-05
1.59885e-05
5.37315e-05
1.45079e-05
1.60672e-05
1.55933e-05
1.52651e-05
1.50786e-05
1.50835e-05
1.52844e-05
1.56021e-05
1.60041e-05
1.45121e-05
1.59833e-05
1.553e-05
1.52829e-05
1.49709e-05
1.47607e-05
1.47642e-05
1.49674e-05
1.52675e-05
1.5513e-05
1.59884e-05
1.57946e-05
1.53245e-05
1.50846e-05
1.47676e-05
1.45865e-05
1.45848e-05
1.47572e-05
1.50767e-05
1.53202e-05
1.57988e-05
1.5798e-05
1.53214e-05
1.50789e-05
1.47601e-05
1.45866e-05
1.45868e-05
1.47587e-05
1.5077e-05
1.53204e-05
1.57992e-05
1.59921e-05
1.55142e-05
1.52676e-05
1.49689e-05
1.47682e-05
1.47691e-05
1.49707e-05
1.52691e-05
1.55147e-05
1.59914e-05
1.45227e-05
1.60086e-05
1.56031e-05
1.52851e-05
1.50862e-05
1.50869e-05
1.5287e-05
1.56047e-05
1.60085e-05
1.45189e-05
5.37213e-05
1.59971e-05
1.60867e-05
1.55398e-05
1.53299e-05
1.53305e-05
1.5541e-05
1.60873e-05
1.59959e-05
5.37295e-05
0.000731751
5.38092e-05
1.45425e-05
1.60022e-05
1.58043e-05
1.58039e-05
1.60006e-05
1.45393e-05
5.38222e-05
0.000731754
0.00113136
0.000122263
1.39205e-05
1.49069e-05
1.52693e-05
1.52774e-05
1.49323e-05
1.39557e-05
0.000122339
0.00113094
0.000122402
1.44019e-05
1.58677e-05
1.5305e-05
1.50924e-05
1.51019e-05
1.53432e-05
1.59681e-05
1.44327e-05
0.000122125
1.39353e-05
1.59461e-05
1.53619e-05
1.50191e-05
1.48368e-05
1.48428e-05
1.50412e-05
1.53751e-05
1.58893e-05
1.39262e-05
1.49127e-05
1.53299e-05
1.50354e-05
1.47366e-05
1.45349e-05
1.454e-05
1.47373e-05
1.50249e-05
1.53173e-05
1.49236e-05
1.52673e-05
1.50942e-05
1.48396e-05
1.45399e-05
1.43669e-05
1.43669e-05
1.45339e-05
1.48368e-05
1.50945e-05
1.52753e-05
1.527e-05
1.50901e-05
1.48333e-05
1.45323e-05
1.43669e-05
1.43685e-05
1.45348e-05
1.48367e-05
1.50944e-05
1.52757e-05
1.49205e-05
1.53111e-05
1.50187e-05
1.4734e-05
1.45417e-05
1.45438e-05
1.47392e-05
1.50253e-05
1.53179e-05
1.49256e-05
1.39288e-05
1.58848e-05
1.53696e-05
1.50373e-05
1.48428e-05
1.48446e-05
1.50424e-05
1.53765e-05
1.5892e-05
1.3933e-05
0.000122129
1.44297e-05
1.59635e-05
1.53387e-05
1.51007e-05
1.51023e-05
1.53432e-05
1.59699e-05
1.44361e-05
0.000122123
0.00113093
0.000122304
1.39515e-05
1.49307e-05
1.52772e-05
1.5278e-05
1.49327e-05
1.39458e-05
0.000122304
0.00113096
0.00160747
0.000237541
2.74787e-05
1.33055e-05
1.40686e-05
1.40763e-05
1.33281e-05
2.75058e-05
0.000237673
0.00160715
0.000237773
1.32818e-05
1.56624e-05
1.51351e-05
1.4893e-05
1.49019e-05
1.51719e-05
1.5762e-05
1.32974e-05
0.000237331
2.75206e-05
1.57392e-05
1.51702e-05
1.47887e-05
1.46059e-05
1.46119e-05
1.48109e-05
1.51843e-05
1.56859e-05
2.74353e-05
1.33084e-05
1.51585e-05
1.48039e-05
1.45122e-05
1.4318e-05
1.43236e-05
1.4514e-05
1.47944e-05
1.51465e-05
1.33165e-05
1.40655e-05
1.48933e-05
1.46069e-05
1.43219e-05
1.41564e-05
1.41569e-05
1.43171e-05
1.46048e-05