/*--------------------------------*- C++ -*----------------------------------*\
| =========                 |                                                 |
| \\      /  F ield         | OpenFOAM: The Open Source CFD Toolbox           |
|  \\    /   O peration     | Version:  2406                                  |
|   \\  /    A nd           | Website:  www.openfoam.com                      |
|    \\/     M anipulation  |                                                 |
\*---------------------------------------------------------------------------*/
FoamFile
{
    version     2.0;
    format      ascii;
    arch        "LSB;label=32;scalar=64";
    class       volVectorField;
    location    "400";
    object      momentError;
}
// * * * * * * * * * * * * * * * * * * * * * * * * * * * * * * * * * * * * * //

dimensions      [0 1 -2 0 0 0 0];

internalField   nonuniform List<vector> 
25000
(
(-0.000456744 -0.000836652 -0.000257564)
(-0.00167568 -0.000864872 -0.000174907)
(-0.00111236 -0.000383961 -8.93453e-05)
(-0.000742096 -0.000186379 -4.3249e-05)
(-0.000524505 -8.96272e-05 -1.49505e-05)
(-0.000389634 -4.36401e-05 2.12239e-07)
(-0.000308716 -1.83545e-05 8.13293e-06)
(-0.000249859 9.00242e-07 1.41448e-05)
(-0.00021105 3.00369e-05 1.81636e-05)
(-0.000157572 1.33578e-07 2.13342e-05)
(-0.000555782 -0.00183421 -0.00015847)
(-0.000890624 -0.00113585 -0.000113153)
(-0.000692604 -0.000581528 -6.70016e-05)
(-0.000529194 -0.000308099 -3.51832e-05)
(-0.000407486 -0.000161727 -1.284e-05)
(-0.000321729 -8.62155e-05 8.88061e-08)
(-0.000262115 -4.40935e-05 7.41265e-06)
(-0.000216336 -1.82637e-05 1.29369e-05)
(-0.000186511 -2.64099e-06 1.72507e-05)
(-0.000146586 -4.58856e-07 2.17951e-05)
(-0.000240744 -0.00105222 -7.9528e-05)
(-0.000405391 -0.000757126 -6.31169e-05)
(-0.000386193 -0.000478568 -4.14335e-05)
(-0.000343681 -0.00029556 -2.23651e-05)
(-0.000294501 -0.000180448 -6.89201e-06)
(-0.000249956 -0.000111162 3.13224e-06)
(-0.000213232 -6.98034e-05 9.05202e-06)
(-0.00018185 -4.34545e-05 1.39806e-05)
(-0.00015852 -2.67715e-05 1.81669e-05)
(-0.000139487 -1.76917e-05 2.24816e-05)
(-0.000130493 -0.000641608 -4.0695e-05)
(-0.000208558 -0.000512668 -3.40221e-05)
(-0.000222388 -0.000368949 -2.28508e-05)
(-0.000222437 -0.00025576 -1.12802e-05)
(-0.000210378 -0.000173696 -6.27793e-07)
(-0.000192638 -0.000118664 6.69193e-06)
(-0.000173075 -8.26843e-05 1.13491e-05)
(-0.000152278 -5.84437e-05 1.55008e-05)
(-0.000135678 -4.2599e-05 1.92105e-05)
(-0.000124196 -3.14675e-05 2.3351e-05)
(-8.05913e-05 -0.000431693 -1.86189e-05)
(-0.000110716 -0.000360507 -1.56697e-05)
(-0.00013215 -0.000281795 -9.48974e-06)
(-0.000147527 -0.000212789 -2.39804e-06)
(-0.000152202 -0.000157232 5.07344e-06)
(-0.000148579 -0.000116001 1.05108e-05)
(-0.000140166 -8.72286e-05 1.39683e-05)
(-0.000129008 -6.67365e-05 1.74537e-05)
(-0.000117245 -5.23981e-05 2.0766e-05)
(-0.000109465 -4.15855e-05 2.46254e-05)
(-4.34427e-05 -0.000309758 -6.71905e-06)
(-6.45469e-05 -0.000267532 -5.96669e-06)
(-8.44382e-05 -0.000220922 -2.23496e-06)
(-0.000102319 -0.000178209 2.78535e-06)
(-0.00011352 -0.000140157 8.39957e-06)
(-0.000117831 -0.000110726 1.25391e-05)
(-0.000116973 -8.89638e-05 1.52202e-05)
(-0.000110798 -7.22187e-05 1.81028e-05)
(-0.00010401 -6.0182e-05 2.09652e-05)
(-9.83633e-05 -5.10698e-05 2.45243e-05)
(-2.88126e-05 -0.000239489 -1.78085e-06)
(-3.92777e-05 -0.000209336 -1.48758e-06)
(-5.79069e-05 -0.000178532 1.44403e-06)
(-7.6099e-05 -0.00015036 5.21624e-06)
(-8.92928e-05 -0.000124812 9.89313e-06)
(-9.73581e-05 -0.000104327 1.3215e-05)
(-9.98488e-05 -8.82664e-05 1.52448e-05)
(-9.87532e-05 -7.61421e-05 1.76106e-05)
(-9.59374e-05 -6.7044e-05 2.00664e-05)
(-9.07231e-05 -5.98481e-05 2.32104e-05)
(-1.25626e-05 -0.000189302 2.0916e-06)
(-2.5975e-05 -0.000164544 1.82983e-06)
(-4.32431e-05 -0.00014356 4.3316e-06)
(-6.03106e-05 -0.000124049 7.67209e-06)
(-7.40823e-05 -0.000108107 1.17106e-05)
(-8.32491e-05 -9.40721e-05 1.44824e-05)
(-8.90297e-05 -8.49096e-05 1.59837e-05)
(-9.01093e-05 -7.69977e-05 1.78566e-05)
(-9.0682e-05 -7.15629e-05 1.98377e-05)
(-8.56819e-05 -6.62503e-05 2.26404e-05)
(9.94658e-06 -0.000153361 3.86784e-06)
(-1.69596e-05 -0.000129984 4.27926e-06)
(-3.56958e-05 -0.000112373 6.87862e-06)
(-5.27739e-05 -0.000100079 1.00808e-05)
(-6.6209e-05 -8.98053e-05 1.38114e-05)
(-7.63383e-05 -8.3049e-05 1.6209e-05)
(-8.33075e-05 -7.95184e-05 1.72594e-05)
(-8.62482e-05 -7.76603e-05 1.86754e-05)
(-8.99264e-05 -7.79022e-05 2.01348e-05)
(-8.53311e-05 -7.32272e-05 2.24057e-05)
(-3.95034e-07 -0.000106806 5.63816e-06)
(-1.46344e-05 -9.17786e-05 7.08779e-06)
(-3.40129e-05 -9.03146e-05 9.95732e-06)
(-5.06451e-05 -8.29896e-05 1.3131e-05)
(-6.36635e-05 -7.75276e-05 1.68446e-05)
(-7.43666e-05 -7.35015e-05 1.89966e-05)
(-8.26747e-05 -7.26975e-05 1.97422e-05)
(-8.65021e-05 -7.3709e-05 2.09588e-05)
(-8.8768e-05 -7.93321e-05 2.19898e-05)
(-7.09712e-05 -6.36798e-05 2.2829e-05)
(-0.00169454 -0.00246406 -0.00179317)
(-0.00372309 -0.00236892 -0.0013189)
(-0.00258226 -0.00130225 -0.00100786)
(-0.00190187 -0.000771835 -0.000799963)
(-0.00145692 -0.000445766 -0.000651089)
(-0.00111899 -0.000285226 -0.000545219)
(-0.000871507 -0.000179625 -0.000466901)
(-0.000664681 -0.000122286 -0.000406942)
(-0.000468108 -7.82645e-05 -0.000359822)
(-0.000270583 -7.4334e-05 -0.00031841)
(-0.00129294 -0.00411868 -0.00122192)
(-0.00188606 -0.00253573 -0.00105799)
(-0.00164704 -0.00154868 -0.000888046)
(-0.00138597 -0.000966508 -0.000743266)
(-0.00115236 -0.000599675 -0.000626405)
(-0.000948433 -0.000386108 -0.000535784)
(-0.000759744 -0.000255583 -0.000465551)
(-0.000595229 -0.000179351 -0.000410778)
(-0.000438983 -0.00014515 -0.000367289)
(-0.000314039 -0.000154371 -0.000328011)
(-0.000859553 -0.00250171 -0.000913578)
(-0.00101449 -0.00189735 -0.000851557)
(-0.00102024 -0.00135821 -0.000759969)
(-0.000966779 -0.000934067 -0.000666779)
(-0.000880168 -0.000645113 -0.000582443)
(-0.000771057 -0.000444829 -0.000510585)
(-0.000651026 -0.00031709 -0.000452195)
(-0.000529166 -0.000238032 -0.000404435)
(-0.00041106 -0.000195377 -0.000365561)
(-0.000331113 -0.000187402 -0.000330187)
(-0.000550557 -0.00167127 -0.000732131)
(-0.000630146 -0.00140832 -0.000703142)
(-0.000649677 -0.00110641 -0.000652652)
(-0.000666329 -0.000839825 -0.000594399)
(-0.000663631 -0.000626204 -0.000535527)
(-0.000622592 -0.00046522 -0.000481504)
(-0.000551153 -0.000349393 -0.000434202)
(-0.000465034 -0.000271293 -0.000394302)
(-0.000380043 -0.000225185 -0.000361042)
(-0.000322876 -0.000201448 -0.000329821)
(-0.0004199 -0.0012101 -0.000608317)
(-0.000392705 -0.00105582 -0.000596487)
(-0.000428977 -0.000891563 -0.000568569)
(-0.000479164 -0.000726711 -0.000532125)
(-0.000505834 -0.000581905 -0.000491818)
(-0.000500091 -0.000456011 -0.000451533)
(-0.000462702 -0.000358573 -0.000415014)
(-0.000407769 -0.000287288 -0.000382143)
(-0.000344865 -0.000237061 -0.000353647)
(-0.000302132 -0.000203784 -0.000326666)
(-0.000287054 -0.000882568 -0.000522647)
(-0.000292824 -0.000805249 -0.00051915)
(-0.000309531 -0.000714833 -0.000503395)
(-0.000351184 -0.000619977 -0.000480822)
(-0.000392248 -0.000519567 -0.000453191)
(-0.000403879 -0.000430814 -0.000424227)
(-0.000388841 -0.000352263 -0.000395542)
(-0.000349637 -0.000287707 -0.000368874)
(-0.000303924 -0.000237747 -0.000345107)
(-0.000271418 -0.000198474 -0.000321096)
(-0.000256457 -0.000659442 -0.000459305)
(-0.000219546 -0.000612991 -0.000460882)
(-0.000238723 -0.000560975 -0.000453018)
(-0.000278519 -0.000506362 -0.00043899)
(-0.000312579 -0.000445439 -0.000420495)
(-0.000332582 -0.0003844 -0.000399015)
(-0.000321786 -0.000323052 -0.000377261)
(-0.000296925 -0.000271844 -0.000355513)
(-0.000260779 -0.000224767 -0.000334869)
(-0.000231849 -0.000182815 -0.000313215)
(-0.000201336 -0.000479202 -0.000409984)
(-0.000198353 -0.000435058 -0.000416158)
(-0.000204569 -0.000416601 -0.000412898)
(-0.000233223 -0.000379272 -0.00040495)
(-0.000265452 -0.000353104 -0.000392178)
(-0.000278316 -0.000310612 -0.00037669)
(-0.000274952 -0.000275534 -0.000359391)
(-0.00025188 -0.000235038 -0.000341126)
(-0.00021704 -0.000196452 -0.000323198)
(-0.000190312 -0.000155691 -0.000302527)
(-0.00017069 -0.000305943 -0.000370789)
(-0.000175438 -0.000266739 -0.000380454)
(-0.000192435 -0.00025639 -0.00038112)
(-0.000217068 -0.000255317 -0.00037708)
(-0.000240667 -0.000245029 -0.000368478)
(-0.000250376 -0.000231482 -0.000356675)
(-0.000242052 -0.000211537 -0.000342533)
(-0.000215355 -0.00018541 -0.000326727)
(-0.000179782 -0.000156447 -0.000310099)
(-0.000143665 -0.000115258 -0.00029003)
(-9.88888e-05 -0.000134683 -0.000335388)
(-0.000174978 -0.000124414 -0.000348576)
(-0.000205139 -0.000156308 -0.000352256)
(-0.000225113 -0.000166463 -0.000351502)
(-0.000238669 -0.000176506 -0.000345884)
(-0.000239886 -0.000172658 -0.000336528)
(-0.000224218 -0.000163948 -0.000324044)
(-0.000194967 -0.000148632 -0.000308824)
(-0.000146751 -0.000125382 -0.000292481)
(-9.90938e-05 -8.44262e-05 -0.000272337)
(0.000444665 0.000536497 -0.000989111)
(0.00116452 0.000433128 -0.000888482)
(0.000600908 0.000103984 -0.000811481)
(0.000309774 -3.14494e-05 -0.000752868)
(0.000153176 -6.61604e-05 -0.000704951)
(6.77842e-05 -8.4024e-05 -0.000668413)
(2.9838e-05 -8.60483e-05 -0.000640493)
(3.00404e-05 -0.000105083 -0.000623164)
(5.58055e-05 -0.00011928 -0.000614519)
(0.000109425 -0.000146784 -0.000606695)
(0.000283876 0.00120965 -0.000843323)
(0.000449989 0.000548769 -0.000800595)
(0.000327094 0.000212784 -0.000756572)
(0.000208524 5.59725e-05 -0.000714554)
(0.000116489 -1.42862e-05 -0.000679279)
(5.19512e-05 -4.55071e-05 -0.000648508)
(2.21119e-05 -6.08335e-05 -0.000625277)
(1.70147e-05 -7.28952e-05 -0.000610905)
(3.46e-05 -9.17571e-05 -0.000605113)
(6.76912e-05 -0.000127608 -0.000603705)
(5.01897e-05 0.000542432 -0.000753367)
(0.000145673 0.000337259 -0.000730269)
(0.000149855 0.000168184 -0.000703276)
(0.000111692 6.55954e-05 -0.000675492)
(6.53925e-05 2.78439e-06 -0.000650109)
(2.64243e-05 -2.9459e-05 -0.000627074)
(4.32014e-06 -4.83234e-05 -0.000608398)
(9.74398e-07 -6.30243e-05 -0.00059709)
(9.32134e-06 -8.16058e-05 -0.000593495)
(1.78058e-05 -0.00011437 -0.000594128)
(-5.94458e-05 0.000261601 -0.000698736)
(1.79775e-05 0.000191717 -0.000678)
(4.98419e-05 0.000109403 -0.000658181)
(4.64447e-05 4.39649e-05 -0.000640816)
(2.39637e-05 -3.71637e-07 -0.000623757)
(1.68975e-06 -2.779e-05 -0.000607183)
(-1.13297e-05 -4.46039e-05 -0.000593423)
(-1.44407e-05 -5.66164e-05 -0.000585378)
(-1.15447e-05 -7.07373e-05 -0.000583995)
(-1.69103e-05 -9.14971e-05 -0.000586423)
(-0.00010061 0.000136192 -0.000654928)
(-3.64619e-05 0.000104587 -0.000638026)
(-3.99182e-06 5.8836e-05 -0.000624678)
(1.78936e-06 1.82108e-05 -0.000612207)
(-5.24599e-06 -1.30338e-05 -0.000601174)
(-1.6919e-05 -3.28684e-05 -0.000590158)
(-2.37944e-05 -4.48956e-05 -0.000580889)
(-2.36765e-05 -5.23787e-05 -0.000576099)
(-2.32095e-05 -5.88329e-05 -0.000576905)
(-3.42879e-05 -6.71192e-05 -0.000581198)
(-0.000118964 7.65395e-05 -0.000625574)
(-7.04974e-05 5.49467e-05 -0.000609382)
(-3.86708e-05 2.53188e-05 -0.000596749)
(-2.57243e-05 -3.50524e-06 -0.000589027)
(-2.68172e-05 -2.41949e-05 -0.000582006)
(-2.97752e-05 -3.9011e-05 -0.000575539)
(-3.05187e-05 -4.59991e-05 -0.000569936)
(-2.77202e-05 -4.77783e-05 -0.00056818)
(-2.51356e-05 -4.60268e-05 -0.000571353)
(-3.39035e-05 -4.1521e-05 -0.00057723)
(-0.000143383 5.85779e-05 -0.000602223)
(-8.96563e-05 3.57233e-05 -0.000587326)
(-6.23716e-05 1.21168e-05 -0.000577877)
(-4.82342e-05 -1.04176e-05 -0.000571124)
(-4.12592e-05 -2.69966e-05 -0.000567723)
(-3.90956e-05 -3.76552e-05 -0.00056392)
(-3.29693e-05 -4.07324e-05 -0.000561727)
(-2.41313e-05 -3.85344e-05 -0.000562549)
(-1.69759e-05 -2.91584e-05 -0.000567639)
(-1.69221e-05 -1.33082e-05 -0.000574864)
(-0.000165412 6.77233e-05 -0.000589517)
(-0.000115107 4.56611e-05 -0.000576539)
(-8.4321e-05 1.87816e-05 -0.00056694)
(-6.58755e-05 3.20535e-07 -0.000562707)
(-5.50615e-05 -1.71673e-05 -0.000560311)
(-4.4091e-05 -2.44738e-05 -0.000559116)
(-3.18964e-05 -2.72177e-05 -0.000558748)
(-1.66525e-05 -2.04417e-05 -0.000561313)
(-5.84757e-08 -6.63345e-06 -0.000567979)
(1.62794e-05 1.98823e-05 -0.000575742)
(-0.000189394 9.47955e-05 -0.000583304)
(-0.000137572 7.45002e-05 -0.000574442)
(-0.000109049 4.48847e-05 -0.000566832)
(-8.67197e-05 1.75724e-05 -0.000563425)
(-6.79962e-05 -1.58782e-07 -0.000561968)
(-4.99135e-05 -9.44322e-06 -0.000561763)
(-2.91862e-05 -9.48566e-06 -0.000562299)
(-3.63804e-06 1.44608e-06 -0.000566015)
(2.22722e-05 2.0871e-05 -0.000572987)
(5.94561e-05 5.29999e-05 -0.000580205)
(-0.000189595 0.000142651 -0.000579033)
(-0.000168928 0.000118174 -0.000578656)
(-0.000145528 6.21591e-05 -0.000573433)
(-0.000114575 2.36925e-05 -0.000570446)
(-8.51362e-05 -6.49217e-07 -0.000569612)
(-5.50984e-05 -7.21041e-06 -0.000569425)
(-2.20555e-05 5.89142e-07 -0.000570236)
(1.41033e-05 2.49682e-05 -0.000573508)
(5.06702e-05 5.81812e-05 -0.000579517)
(9.76419e-05 9.59636e-05 -0.000580812)
(-0.000137705 -0.000106982 -0.000415238)
(-0.000215022 -6.81354e-05 -0.000482542)
(-0.00016071 -2.9971e-06 -0.00051059)
(-0.000152478 5.13476e-05 -0.000523628)
(-0.000161593 8.07674e-05 -0.000531689)
(-0.00018401 0.000100012 -0.000540422)
(-0.000208923 0.00011151 -0.000551496)
(-0.000228045 0.000118335 -0.000567903)
(-0.000230875 0.000127219 -0.000589394)
(-0.000229691 0.000116284 -0.000609225)
(-9.02502e-05 -0.000198759 -0.000503238)
(-9.94104e-05 -7.58182e-05 -0.000506083)
(-0.000105619 -2.65526e-05 -0.000511232)
(-0.0001187 7.08518e-06 -0.000515968)
(-0.000139044 2.43383e-05 -0.000522295)
(-0.000165741 3.78458e-05 -0.000530024)
(-0.000191279 4.7918e-05 -0.000540889)
(-0.000212271 5.76088e-05 -0.000556472)
(-0.00022684 6.10229e-05 -0.000578607)
(-0.000263775 4.76673e-05 -0.000603497)
(6.48329e-06 -0.000144799 -0.000540327)
(-4.62082e-05 -8.20169e-05 -0.000523612)
(-7.32653e-05 -4.4033e-05 -0.000516564)
(-9.91908e-05 -2.32282e-05 -0.000515497)
(-0.000127471 -1.06845e-05 -0.000518542)
(-0.000154859 -2.44649e-06 -0.000524649)
(-0.000181166 4.9602e-06 -0.000534291)
(-0.000204381 1.10838e-05 -0.000549237)
(-0.00022901 1.29657e-05 -0.000569675)
(-0.000288174 3.51325e-06 -0.000594369)
(6.47345e-05 -0.000129008 -0.000560298)
(-2.91389e-06 -8.90066e-05 -0.000536651)
(-4.86542e-05 -6.51486e-05 -0.000523593)
(-8.69917e-05 -5.03946e-05 -0.000518664)
(-0.00011854 -4.1422e-05 -0.000519135)
(-0.000148595 -3.56232e-05 -0.000523729)
(-0.000174844 -3.12207e-05 -0.000532301)
(-0.000199808 -2.64482e-05 -0.000545914)
(-0.00023176 -2.53653e-05 -0.000565589)
(-0.000302065 -2.85382e-05 -0.000589555)
(0.000102155 -0.000123672 -0.000573203)
(1.58627e-05 -0.000101672 -0.000547477)
(-3.55302e-05 -8.76499e-05 -0.000531818)
(-7.65257e-05 -7.78378e-05 -0.000524144)
(-0.000113119 -7.16505e-05 -0.000522955)
(-0.00014389 -6.79345e-05 -0.00052632)
(-0.000170557 -6.38484e-05 -0.000533978)
(-0.000196838 -6.06866e-05 -0.00054707)
(-0.000231987 -5.82396e-05 -0.000565823)
(-0.000307662 -5.80585e-05 -0.000589343)
(0.000112682 -0.000137774 -0.000585342)
(3.05966e-05 -0.000122643 -0.000558518)
(-2.60007e-05 -0.00011344 -0.000540744)
(-7.20764e-05 -0.000107988 -0.000531686)
(-0.000109096 -0.000104153 -0.000529084)
(-0.000140425 -0.000100575 -0.0005316)
(-0.000166939 -9.79935e-05 -0.000538517)
(-0.000193565 -9.39778e-05 -0.000551026)
(-0.000229381 -9.03965e-05 -0.000569435)
(-0.00030451 -8.66966e-05 -0.000592765)
(0.000120404 -0.000154091 -0.000598166)
(3.53602e-05 -0.000146144 -0.000571013)
(-2.2585e-05 -0.000142047 -0.0005525)
(-6.82423e-05 -0.000138901 -0.000541765)
(-0.000106019 -0.000135777 -0.000538355)
(-0.000137433 -0.000133776 -0.000539744)
(-0.000163484 -0.000130242 -0.000546195)
(-0.000188837 -0.000126983 -0.000558304)
(-0.000223346 -0.00012164 -0.000576675)
(-0.000292839 -0.000114655 -0.000599958)
(0.000111182 -0.000169738 -0.000615195)
(3.49144e-05 -0.000167329 -0.000588383)
(-2.13938e-05 -0.000167317 -0.000568616)
(-6.68174e-05 -0.000167026 -0.000557084)
(-0.000104053 -0.000166464 -0.000552311)
(-0.000134526 -0.000164495 -0.000553022)
(-0.00015982 -0.00016248 -0.000558841)
(-0.000184658 -0.0001587 -0.000570729)
(-0.000214107 -0.000153102 -0.000589148)
(-0.000272767 -0.000140836 -0.000612296)
(0.000100459 -0.000175296 -0.000636603)
(2.70872e-05 -0.00017923 -0.00061153)
(-2.65052e-05 -0.000189755 -0.000591099)
(-6.86981e-05 -0.000196232 -0.000578312)
(-0.000103435 -0.000199997 -0.000572292)
(-0.000133215 -0.000200157 -0.000572257)
(-0.000157808 -0.000198961 -0.000577344)
(-0.000179784 -0.000194306 -0.000589254)
(-0.00020346 -0.000186442 -0.000607706)
(-0.000245337 -0.000166822 -0.000629918)
(8.42115e-05 -0.0001741 -0.000655506)
(6.74797e-06 -0.000203635 -0.000638267)
(-4.23883e-05 -0.000234795 -0.000617981)
(-7.66338e-05 -0.000254998 -0.000604102)
(-0.000107664 -0.000265395 -0.000597196)
(-0.000134587 -0.000267379 -0.000596124)
(-0.000157152 -0.000262941 -0.00060097)
(-0.000175994 -0.00025284 -0.000612334)
(-0.000189011 -0.000237642 -0.000629876)
(-0.000209227 -0.000204774 -0.00064475)
(0.000334691 0.000238006 -0.000288148)
(0.000311049 0.000220915 -0.000252224)
(0.000217961 0.000176114 -0.000223167)
(9.75976e-05 0.000145055 -0.000200927)
(-2.4866e-05 0.000133797 -0.000187591)
(-0.000137533 0.00013544 -0.000180969)
(-0.000237774 0.000156601 -0.000179914)
(-0.000318612 0.000187878 -0.000184269)
(-0.000367599 0.000229375 -0.000192391)
(-0.000405574 0.000239028 -0.000202362)
(0.00034668 0.000175099 -0.000275319)
(0.000259369 0.000136867 -0.000246906)
(0.000176549 9.27552e-05 -0.000222627)
(7.72805e-05 6.07725e-05 -0.000204263)
(-2.60514e-05 4.6935e-05 -0.000191896)
(-0.00012416 5.01599e-05 -0.000185442)
(-0.000207333 6.40803e-05 -0.000183352)
(-0.00028375 8.8362e-05 -0.000185397)
(-0.0003472 0.000112092 -0.000191691)
(-0.000447032 0.000115703 -0.000200064)
(0.000338691 8.05843e-05 -0.000267419)
(0.000228931 5.9274e-05 -0.000244554)
(0.000145925 2.85886e-05 -0.000224565)
(5.68215e-05 6.56808e-06 -0.000208625)
(-3.11861e-05 -4.91778e-06 -0.00019696)
(-0.00011641 -4.41571e-06 -0.000189752)
(-0.000194706 4.4011e-06 -0.000186875)
(-0.000262869 1.86425e-05 -0.000187802)
(-0.000333879 3.54958e-05 -0.000191688)
(-0.000456739 4.3929e-05 -0.000197868)
(0.000329909 1.28649e-06 -0.000260765)
(0.000208646 -1.23932e-05 -0.000242802)
(0.00012586 -2.97868e-05 -0.000226716)
(4.58097e-05 -4.31252e-05 -0.000212129)
(-3.58589e-05 -5.05866e-05 -0.000201035)
(-0.000114235 -5.16092e-05 -0.000193913)
(-0.000184007 -4.65652e-05 -0.000190315)
(-0.000252077 -3.629e-05 -0.000190113)
(-0.000327291 -2.68753e-05 -0.000192799)
(-0.000456154 -1.77161e-05 -0.000197395)
(0.000320846 -7.38377e-05 -0.000258928)
(0.000200174 -7.762e-05 -0.000243077)
(0.000117018 -8.5471e-05 -0.000227928)
(3.73665e-05 -9.24539e-05 -0.000214932)
(-3.89165e-05 -9.72901e-05 -0.000204753)
(-0.000112127 -9.76504e-05 -0.00019767)
(-0.000179787 -9.38224e-05 -0.000193862)
(-0.000244563 -8.8654e-05 -0.000193134)
(-0.000321562 -8.1652e-05 -0.00019484)
(-0.000453748 -7.78184e-05 -0.000198516)
(0.000320756 -0.000150052 -0.000258225)
(0.000196893 -0.000144549 -0.000243356)
(0.00011177 -0.000144804 -0.00022973)
(3.44235e-05 -0.000146921 -0.00021738)
(-4.08406e-05 -0.000147437 -0.000207898)
(-0.000110722 -0.000146489 -0.000201198)
(-0.000175333 -0.000143922 -0.000197307)
(-0.000240705 -0.00013962 -0.000196371)
(-0.000319031 -0.000137855 -0.000197753)
(-0.000451661 -0.000138289 -0.000201152)
(0.000323535 -0.00022425 -0.00025911)
(0.000201666 -0.000211495 -0.000245144)
(0.000113554 -0.00020462 -0.000231466)
(3.40405e-05 -0.000200878 -0.000219971)
(-3.87744e-05 -0.000197721 -0.000210903)
(-0.000108631 -0.000195178 -0.000204581)
(-0.000172775 -0.000192854 -0.000200939)
(-0.000238034 -0.000192453 -0.000200053)
(-0.000317957 -0.00019367 -0.000201749)
(-0.000449153 -0.00019892 -0.000205517)
(0.000337168 -0.000294239 -0.0002618)
(0.000208723 -0.000272961 -0.000247719)
(0.000119593 -0.000262318 -0.000234537)
(3.98832e-05 -0.000252154 -0.000222983)
(-3.55847e-05 -0.000246642 -0.000214371)
(-0.000105787 -0.000243667 -0.000208417)
(-0.000172059 -0.000244032 -0.000205089)
(-0.000239856 -0.00024753 -0.000204851)
(-0.000318783 -0.000253701 -0.000207206)
(-0.000446738 -0.000259434 -0.000211831)
(0.000348087 -0.000345501 -0.00026674)
(0.000221343 -0.000331107 -0.000252547)
(0.00013029 -0.000319764 -0.00023848)
(4.80834e-05 -0.000310664 -0.000226684)
(-3.0734e-05 -0.000304687 -0.000218106)
(-0.00010607 -0.000303087 -0.000212458)
(-0.000176432 -0.000307151 -0.000210081)
(-0.0002462 -0.000314341 -0.000210649)
(-0.000321456 -0.000322177 -0.000214364)
(-0.000433514 -0.000314863 -0.000220472)
(0.000341868 -0.000403122 -0.000272549)
(0.000224423 -0.000426033 -0.000259236)
(0.000140211 -0.00042875 -0.000243878)
(5.66854e-05 -0.000420846 -0.000231375)
(-2.78088e-05 -0.000414293 -0.000222455)
(-0.000110177 -0.000411259 -0.00021727)
(-0.000187434 -0.000414023 -0.000215709)
(-0.000259637 -0.000422885 -0.000217615)
(-0.000317691 -0.000425842 -0.00022294)
(-0.000388824 -0.000392492 -0.000228972)
(0.000319123 0.000186558 0.000320648)
(0.00033282 0.000184934 0.000313857)
(0.000260461 0.000124952 0.000303876)
(0.000134791 7.75591e-05 0.000297028)
(5.97409e-06 5.8671e-05 0.000294721)
(-0.000112443 6.20397e-05 0.000297772)
(-0.000221317 9.34553e-05 0.000305557)
(-0.000310925 0.000141814 0.000316521)
(-0.000358172 0.000202095 0.000329673)
(-0.000373336 0.000212944 0.000339075)
(0.000369237 0.00014027 0.000311383)
(0.000291882 0.000113231 0.000301913)
(0.000208854 5.75356e-05 0.000290463)
(0.000110412 2.17837e-05 0.000283276)
(5.89728e-06 9.28123e-06 0.000281491)
(-9.58618e-05 1.62289e-05 0.000285154)
(-0.000184596 3.53453e-05 0.000293188)
(-0.000265031 6.99286e-05 0.000304933)
(-0.000329555 0.000105188 0.000319917)
(-0.00042012 0.000116564 0.000334749)
(0.000363826 7.78164e-05 0.000300786)
(0.000251653 4.50127e-05 0.000288496)
(0.000173457 8.59529e-06 0.000277092)
(9.23432e-05 -1.47783e-05 0.000271462)
(4.81612e-06 -2.47213e-05 0.000271311)
(-8.41628e-05 -2.19215e-05 0.00027561)
(-0.00016622 -9.75932e-06 0.000284041)
(-0.000237248 1.02338e-05 0.000296131)
(-0.000307903 3.47476e-05 0.000311516)
(-0.000422629 5.13214e-05 0.000329154)
(0.000346131 7.07772e-06 0.000292268)
(0.000228433 -1.12196e-05 0.000279477)
(0.000152785 -2.93125e-05 0.000269586)
(8.01419e-05 -4.43598e-05 0.000265239)
(4.95681e-07 -5.39885e-05 0.000265902)
(-8.06016e-05 -5.57108e-05 0.000270745)
(-0.000153253 -4.97304e-05 0.000279274)
(-0.000221328 -3.67061e-05 0.000291321)
(-0.000294519 -2.26247e-05 0.000307232)
(-0.000413467 -7.5379e-06 0.00032605)
(0.000335435 -6.05636e-05 0.000286944)
(0.000220358 -6.35066e-05 0.000275542)
(0.000143413 -6.99075e-05 0.000267153)
(6.96956e-05 -7.92916e-05 0.000263784)
(-5.55337e-06 -8.76888e-05 0.000264884)
(-7.9833e-05 -9.09221e-05 0.000269807)
(-0.000148048 -8.83541e-05 0.000278345)
(-0.000212124 -8.29548e-05 0.000290304)
(-0.000285025 -7.45364e-05 0.000306104)
(-0.000403846 -6.69756e-05 0.000325293)
(0.000333145 -0.000124313 0.000286315)
(0.000219836 -0.00011918 0.000276061)
(0.000138026 -0.000119234 0.000269021)
(6.30174e-05 -0.000123757 0.000266249)
(-1.08435e-05 -0.000128251 0.000267599)
(-8.12314e-05 -0.000131147 0.000272559)
(-0.000145638 -0.000131915 0.00028083)
(-0.000208385 -0.000129702 0.000292465)
(-0.000281065 -0.000128772 0.000307959)
(-0.000398002 -0.000128688 0.000326913)
(0.000336113 -0.000186911 0.000290713)
(0.000221772 -0.000176872 0.000281219)
(0.000137517 -0.00017226 0.000274791)
(5.98867e-05 -0.000171007 0.000272584)
(-1.33114e-05 -0.000171755 0.000274005)
(-8.34773e-05 -0.000174261 0.000278762)
(-0.000146334 -0.000175839 0.000286733)
(-0.000208461 -0.00017976 0.000297816)
(-0.0002821 -0.000184272 0.00031273)
(-0.000395592 -0.000190859 0.000330845)
(0.000341895 -0.000246807 0.000298748)
(0.00022679 -0.000233408 0.000290386)
(0.000140684 -0.000225039 0.000284617)
(6.17175e-05 -0.000218063 0.000282556)
(-1.48279e-05 -0.000216591 0.000283956)
(-8.52706e-05 -0.000217488 0.000288465)
(-0.000150533 -0.000223887 0.000295972)
(-0.000215212 -0.000232382 0.000306601)
(-0.000286767 -0.000243565 0.000320665)
(-0.000396608 -0.000252796 0.000337181)
(0.000339333 -0.00029046 0.000310195)
(0.000232451 -0.000290041 0.000303193)
(0.000148598 -0.000281279 0.000298071)
(6.62437e-05 -0.000273193 0.000296258)
(-1.3604e-05 -0.000269157 0.000297673)
(-9.09721e-05 -0.000271333 0.000301957)
(-0.0001611 -0.000281545 0.000309095)
(-0.000226992 -0.000295274 0.000319106)
(-0.000296125 -0.000310085 0.000332282)
(-0.000387625 -0.000305136 0.000345946)
(0.000302233 -0.000332174 0.00031854)
(0.000228068 -0.000372702 0.000316092)
(0.000157004 -0.000374997 0.000313074)
(7.41182e-05 -0.000366324 0.000312451)
(-1.34517e-05 -0.000359922 0.000314236)
(-9.95106e-05 -0.000361302 0.000318498)
(-0.000178047 -0.00037214 0.00032526)
(-0.000248553 -0.000391402 0.000334288)
(-0.000297658 -0.000403375 0.000345253)
(-0.000343643 -0.000363232 0.000352968)
(0.000152974 4.44395e-05 0.000652236)
(0.000161742 3.2346e-05 0.000636301)
(0.000110378 -2.31847e-05 0.000610658)
(3.77658e-05 -6.4876e-05 0.000590632)
(-2.31769e-05 -8.03054e-05 0.00057949)
(-7.19654e-05 -7.90478e-05 0.000578126)
(-0.000118495 -6.21063e-05 0.00058437)
(-0.000155604 -3.54102e-05 0.000597159)
(-0.000167071 -2.52163e-06 0.000613546)
(-0.000146221 7.88891e-06 0.000624765)
(0.000171447 -2.4767e-06 0.000644869)
(0.000112874 -3.68799e-05 0.000623461)
(6.82238e-05 -7.65804e-05 0.000598505)
(2.57603e-05 -9.23853e-05 0.000580363)
(-1.70588e-05 -9.05669e-05 0.000570889)
(-5.95202e-05 -8.18852e-05 0.000570282)
(-9.68704e-05 -6.97561e-05 0.000576835)
(-0.000131235 -5.05124e-05 0.00058941)
(-0.000154135 -3.32285e-05 0.000607185)
(-0.000181188 -3.36004e-05 0.00062393)
(0.000163213 -5.55036e-05 0.000630448)
(8.54112e-05 -7.56412e-05 0.000608)
(5.42547e-05 -8.8973e-05 0.000586331)
(2.66334e-05 -9.13917e-05 0.000571541)
(-9.56683e-06 -8.89079e-05 0.0005643)
(-4.98655e-05 -8.35935e-05 0.000564178)
(-8.73316e-05 -7.60711e-05 0.000570866)
(-0.000118278 -6.61541e-05 0.00058351)
(-0.000147857 -5.56745e-05 0.000600977)
(-0.000196188 -5.41219e-05 0.000620632)
(0.00015866 -9.49343e-05 0.000618506)
(8.47162e-05 -9.1601e-05 0.000597226)
(5.50938e-05 -8.67202e-05 0.00057901)
(2.83261e-05 -8.63639e-05 0.000566943)
(-7.64935e-06 -8.74632e-05 0.000561285)
(-4.65454e-05 -8.63525e-05 0.000562034)
(-8.05428e-05 -8.27629e-05 0.000568862)
(-0.000112089 -7.66204e-05 0.000581175)
(-0.000145583 -7.1504e-05 0.000598914)
(-0.000201041 -6.85043e-05 0.000619693)
(0.000161847 -0.000114306 0.000610405)
(9.75373e-05 -0.000100698 0.000591547)
(6.16512e-05 -9.16269e-05 0.000575948)
(2.74997e-05 -9.0568e-05 0.000565943)
(-8.68656e-06 -9.25285e-05 0.000561839)
(-4.51329e-05 -9.28127e-05 0.000563367)
(-7.83428e-05 -9.0695e-05 0.000570454)
(-0.000108544 -8.81152e-05 0.000582698)
(-0.00014344 -8.47896e-05 0.000600041)
(-0.000200934 -8.33524e-05 0.000621069)
(0.000167019 -0.000124542 0.000607672)
(0.000107177 -0.000113372 0.00059045)
(6.5599e-05 -0.000106141 0.000576745)
(2.78874e-05 -0.000104318 0.000568462)
(-9.63162e-06 -0.000104273 0.000565735)
(-4.46854e-05 -0.000103959 0.000568135)
(-7.61034e-05 -0.00010282 0.000575417)
(-0.000106761 -0.000100532 0.000587442)
(-0.0001422 -9.95089e-05 0.000604487)
(-0.000198388 -9.91418e-05 0.000625042)
(0.000167962 -0.000137821 0.00060927)
(0.000112615 -0.000129709 0.000593927)
(6.93204e-05 -0.000123532 0.000581804)
(2.86757e-05 -0.000119927 0.000575094)
(-8.62371e-06 -0.000117972 0.000573402)
(-4.36719e-05 -0.000116708 0.000576495)
(-7.47008e-05 -0.000115245 0.000584096)
(-0.000104767 -0.000114574 0.000595842)
(-0.000140696 -0.000114309 0.000612318)
(-0.000193642 -0.000114867 0.000631977)
(0.000168015 -0.000152721 0.000614565)
(0.000115823 -0.000145937 0.000601893)
(7.25654e-05 -0.000140149 0.000591481)
(3.18636e-05 -0.000134251 0.000585976)
(-7.04758e-06 -0.000130975 0.000585205)
(-4.18576e-05 -0.000128984 0.000589003)
(-7.3299e-05 -0.000128589 0.000596525)
(-0.000104362 -0.000129037 0.000608315)
(-0.000138877 -0.000130246 0.000624171)
(-0.000186675 -0.000128871 0.000641892)
(0.000160025 -0.000158106 0.000623368)
(0.000117457 -0.000161735 0.000614004)
(7.72066e-05 -0.000157717 0.000605615)
(3.58405e-05 -0.00015248 0.000601131)
(-4.09921e-06 -0.000148207 0.000601458)
(-4.11164e-05 -0.000146012 0.000605354)
(-7.38901e-05 -0.000146416 0.000613659)
(-0.00010445 -0.00014768 0.000625042)
(-0.000135623 -0.000147583 0.000640307)
(-0.000170328 -0.000135869 0.000654991)
(0.000134016 -0.000156747 0.00062837)
(0.000110139 -0.000186964 0.000626046)
(7.97798e-05 -0.0001944 0.000621023)
(4.04666e-05 -0.000191597 0.00061892)
(-1.15044e-06 -0.00018607 0.000620046)
(-4.06139e-05 -0.000181421 0.000624899)
(-7.54863e-05 -0.000178382 0.00063304)
(-0.000105363 -0.000176732 0.000643892)
(-0.000124047 -0.00016844 0.000656902)
(-0.000132619 -0.000135942 0.000664464)
(6.00128e-05 3.89615e-06 0.000688655)
(3.86558e-05 -2.53502e-05 0.000674599)
(-7.83988e-06 -7.83413e-05 0.000651147)
(-4.35499e-05 -0.000105191 0.0006325)
(-5.93204e-05 -0.000108438 0.000620783)
(-6.98009e-05 -9.95909e-05 0.000614857)
(-8.58335e-05 -8.20501e-05 0.000613065)
(-0.000100452 -5.68622e-05 0.000615125)
(-9.96503e-05 -2.79773e-05 0.000619557)
(-7.81995e-05 -1.21592e-05 0.000620305)
(5.7752e-05 -5.77666e-05 0.000685245)
(-6.40345e-06 -9.17621e-05 0.000669796)
(-3.26424e-05 -0.000112483 0.00065014)
(-4.02875e-05 -0.000108303 0.000634877)
(-4.57194e-05 -9.5387e-05 0.00062506)
(-5.49053e-05 -8.35474e-05 0.0006201)
(-6.66917e-05 -7.05673e-05 0.00061904)
(-7.89672e-05 -5.32934e-05 0.000621513)
(-8.60402e-05 -3.72757e-05 0.000627165)
(-9.39013e-05 -3.29565e-05 0.000631085)
(4.37524e-05 -0.000107772 0.000677378)
(-1.77411e-05 -0.000115939 0.000663603)
(-2.59541e-05 -0.000107357 0.000648526)
(-2.49704e-05 -9.36315e-05 0.000636401)
(-3.2277e-05 -8.21494e-05 0.000627948)
(-4.40653e-05 -7.39537e-05 0.000623392)
(-5.60005e-05 -6.56238e-05 0.000622836)
(-6.69513e-05 -5.60556e-05 0.000625928)
(-7.77077e-05 -4.601e-05 0.000631821)
(-9.85236e-05 -4.13942e-05 0.000638028)
(4.59078e-05 -0.000129982 0.000673221)