/*--------------------------------*- C++ -*----------------------------------*\
| =========                 |                                                 |
| \\      /  F ield         | OpenFOAM: The Open Source CFD Toolbox           |
|  \\    /   O peration     | Version:  2406                                  |
|   \\  /    A nd           | Website:  www.openfoam.com                      |
|    \\/     M anipulation  |                                                 |
\*---------------------------------------------------------------------------*/
FoamFile
{
    version     2.0;
    format      ascii;
    arch        "LSB;label=32;scalar=64";
    class       volScalarField;
    location    "400";
    object      nut;
}
// * * * * * * * * * * * * * * * * * * * * * * * * * * * * * * * * * * * * * //

dimensions      [0 2 -1 0 0 0 0];

internalField   nonuniform List<scalar> 
25000
(
5.88716e-06
5.92848e-06
5.95434e-06
5.96719e-06
5.97281e-06
5.97281e-06
5.96719e-06
5.9545e-06
5.93058e-06
5.88722e-06
5.93056e-06
5.96745e-06
5.9883e-06
5.99986e-06
6.00547e-06
6.00547e-06
5.99998e-06
5.99343e-06
5.96747e-06
5.92852e-06
5.95448e-06
5.99342e-06
6.01089e-06
6.01854e-06
6.02379e-06
6.02381e-06
6.01921e-06
6.0109e-06
5.98831e-06
5.95436e-06
5.96718e-06
5.99998e-06
6.01921e-06
6.02999e-06
6.03448e-06
6.03491e-06
6.02999e-06
6.01854e-06
5.99987e-06
5.9672e-06
5.97281e-06
6.00547e-06
6.02381e-06
6.03491e-06
6.04156e-06
6.04156e-06
6.03448e-06
6.02379e-06
6.00548e-06
5.97282e-06
5.97281e-06
6.00547e-06
6.02379e-06
6.03448e-06
6.04156e-06
6.04156e-06
6.03448e-06
6.02379e-06
6.00548e-06
5.97282e-06
5.96719e-06
5.99987e-06
6.01854e-06
6.02999e-06
6.03492e-06
6.03492e-06
6.02999e-06
6.01854e-06
5.99987e-06
5.9672e-06
5.95436e-06
5.98831e-06
6.0109e-06
6.01921e-06
6.02381e-06
6.02381e-06
6.01921e-06
6.0109e-06
5.98831e-06
5.95436e-06
5.92851e-06
5.96747e-06
5.99343e-06
5.99998e-06
6.00547e-06
6.00548e-06
5.99998e-06
5.99343e-06
5.96747e-06
5.92852e-06
5.88721e-06
5.93058e-06
5.9545e-06
5.96719e-06
5.97282e-06
5.97282e-06
5.96719e-06
5.9545e-06
5.93058e-06
5.88722e-06
5.52553e-06
5.65224e-06
5.72858e-06
5.7675e-06
5.78451e-06
5.78451e-06
5.7675e-06
5.72937e-06
5.65736e-06
5.52555e-06
5.65735e-06
5.76891e-06
5.83103e-06
5.86533e-06
5.88189e-06
5.8819e-06
5.86611e-06
5.84425e-06
5.76893e-06
5.65227e-06
5.72936e-06
5.84424e-06
5.89747e-06
5.92126e-06
5.93659e-06
5.93671e-06
5.9231e-06
5.89748e-06
5.83105e-06
5.7286e-06
5.7675e-06
5.8661e-06
5.92309e-06
5.95498e-06
5.96864e-06
5.96977e-06
5.95498e-06
5.92126e-06
5.86534e-06
5.76752e-06
5.78451e-06
5.8819e-06
5.93671e-06
5.96977e-06
5.98926e-06
5.98926e-06
5.9686e-06
5.9366e-06
5.8819e-06
5.78452e-06
5.78451e-06
5.88189e-06
5.9366e-06
5.96864e-06
5.98927e-06
5.98927e-06
5.9686e-06
5.9366e-06
5.8819e-06
5.78452e-06
5.76751e-06
5.86534e-06
5.92126e-06
5.95498e-06
5.96981e-06
5.96981e-06
5.95499e-06
5.92127e-06
5.86534e-06
5.76752e-06
5.7286e-06
5.83104e-06
5.89748e-06
5.9231e-06
5.93672e-06
5.93672e-06
5.9231e-06
5.89748e-06
5.83105e-06
5.7286e-06
5.65226e-06
5.76893e-06
5.84425e-06
5.86611e-06
5.88191e-06
5.88191e-06
5.86611e-06
5.84425e-06
5.76893e-06
5.65226e-06
5.52554e-06
5.65736e-06
5.72938e-06
5.76751e-06
5.78452e-06
5.78452e-06
5.76751e-06
5.72938e-06
5.65736e-06
5.52555e-06
5.174e-06
5.38312e-06
5.50735e-06
5.57183e-06
5.60003e-06
5.60003e-06
5.57187e-06
5.509e-06
5.39036e-06
5.174e-06
5.39034e-06
5.57462e-06
5.67678e-06
5.73307e-06
5.76015e-06
5.7602e-06
5.73474e-06
5.69615e-06
5.57463e-06
5.38314e-06
5.50899e-06
5.69613e-06
5.78505e-06
5.82552e-06
5.85046e-06
5.85071e-06
5.82835e-06
5.78506e-06
5.67679e-06
5.50737e-06
5.57186e-06
5.73474e-06
5.82835e-06
5.88068e-06
5.90355e-06
5.90523e-06
5.88069e-06
5.82553e-06
5.73308e-06
5.57185e-06
5.60003e-06
5.7602e-06
5.85071e-06
5.90522e-06
5.93697e-06
5.93697e-06
5.90346e-06
5.85045e-06
5.76016e-06
5.60005e-06
5.60003e-06
5.76015e-06
5.85046e-06
5.90356e-06
5.93698e-06
5.93698e-06
5.90346e-06
5.85045e-06
5.76016e-06
5.60005e-06
5.57183e-06
5.73308e-06
5.82553e-06
5.88069e-06
5.90533e-06
5.90533e-06
5.88069e-06
5.82553e-06
5.73309e-06
5.57185e-06
5.50736e-06
5.67679e-06
5.78506e-06
5.82836e-06
5.85073e-06
5.85073e-06
5.82836e-06
5.78506e-06
5.67679e-06
5.50737e-06
5.38313e-06
5.57463e-06
5.69615e-06
5.73475e-06
5.76021e-06
5.76021e-06
5.73475e-06
5.69615e-06
5.57464e-06
5.38314e-06
5.17399e-06
5.39035e-06
5.50901e-06
5.57188e-06
5.60004e-06
5.60004e-06
5.57188e-06
5.50901e-06
5.39036e-06
5.17401e-06
4.83942e-06
5.12321e-06
5.29212e-06
5.38111e-06
5.42011e-06
5.42012e-06
5.38125e-06
5.29474e-06
5.13197e-06
4.83943e-06
5.13195e-06
5.38527e-06
5.52587e-06
5.60332e-06
5.64045e-06
5.64058e-06
5.60597e-06
5.54994e-06
5.38529e-06
5.12325e-06
5.29473e-06
5.54993e-06
5.67389e-06
5.73132e-06
5.76542e-06
5.76585e-06
5.73499e-06
5.6739e-06
5.52589e-06
5.29216e-06
5.38125e-06
5.60597e-06
5.73499e-06
5.80713e-06
5.83913e-06
5.84123e-06
5.80713e-06
5.73133e-06
5.60334e-06
5.38114e-06
5.42012e-06
5.64058e-06
5.76585e-06
5.84123e-06
5.88465e-06
5.88465e-06
5.83898e-06
5.7654e-06
5.64047e-06
5.42015e-06
5.42013e-06
5.64046e-06
5.76543e-06
5.83914e-06
5.88466e-06
5.88466e-06
5.83898e-06
5.7654e-06
5.64047e-06
5.42015e-06
5.38113e-06
5.60333e-06
5.73133e-06
5.80714e-06
5.8414e-06
5.8414e-06
5.80714e-06
5.73133e-06
5.60334e-06
5.38114e-06
5.29215e-06
5.52589e-06
5.6739e-06
5.735e-06
5.76589e-06
5.76589e-06
5.735e-06
5.67391e-06
5.5259e-06
5.29216e-06
5.12324e-06
5.38529e-06
5.54995e-06
5.60599e-06
5.6406e-06
5.6406e-06
5.60599e-06
5.54995e-06
5.3853e-06
5.12325e-06
4.83943e-06
5.13198e-06
5.29476e-06
5.38127e-06
5.42014e-06
5.42014e-06
5.38128e-06
5.29476e-06
5.13199e-06
4.83944e-06
4.5255e-06
4.87379e-06
5.08382e-06
5.19593e-06
5.24521e-06
5.24523e-06
5.19623e-06
5.08741e-06
4.88368e-06
4.52556e-06
4.88365e-06
5.20113e-06
5.37836e-06
5.47609e-06
5.52284e-06
5.52308e-06
5.47974e-06
5.40606e-06
5.20117e-06
4.87387e-06
5.08741e-06
5.40604e-06
5.56405e-06
5.63849e-06
5.68141e-06
5.68201e-06
5.64289e-06
5.56407e-06
5.3784e-06
5.08389e-06
5.19624e-06
5.47974e-06
5.64289e-06
5.73423e-06
5.77525e-06
5.77768e-06
5.73423e-06
5.63851e-06
5.47612e-06
5.19599e-06
5.24525e-06
5.52309e-06
5.68201e-06
5.77768e-06
5.83225e-06
5.83224e-06
5.77503e-06
5.68137e-06
5.52285e-06
5.24527e-06
5.24524e-06
5.52286e-06
5.68142e-06
5.77526e-06
5.83227e-06
5.83226e-06
5.77503e-06
5.68137e-06
5.52285e-06
5.24527e-06
5.19597e-06
5.47612e-06
5.63851e-06
5.73426e-06
5.77793e-06
5.77793e-06
5.73425e-06
5.63852e-06
5.47612e-06
5.19599e-06
5.08387e-06
5.3784e-06
5.56407e-06
5.64291e-06
5.68209e-06
5.68209e-06
5.64291e-06
5.56408e-06
5.3784e-06
5.08389e-06
4.87385e-06
5.20117e-06
5.40607e-06
5.47976e-06
5.52312e-06
5.52312e-06
5.47976e-06
5.40608e-06
5.20118e-06
4.87387e-06
4.52557e-06
4.8837e-06
5.08745e-06
5.19627e-06
5.24527e-06
5.24527e-06
5.19627e-06
5.08745e-06
4.88371e-06
4.52558e-06
4.23177e-06
4.63472e-06
4.88234e-06
5.01618e-06
5.07523e-06
5.07526e-06
5.01668e-06
4.88688e-06
4.64542e-06
4.23189e-06
4.64538e-06
5.02193e-06
5.23401e-06
5.35124e-06
5.4072e-06
5.40757e-06
5.35584e-06
5.26451e-06
5.02199e-06
4.63483e-06
4.88687e-06
5.26448e-06
5.45546e-06
5.54688e-06
5.59831e-06
5.5991e-06
5.5519e-06
5.45549e-06
5.23407e-06
4.88244e-06
5.0167e-06
5.35584e-06
5.5519e-06
5.6619e-06
5.71179e-06
5.71448e-06
5.66189e-06
5.5469e-06
5.35128e-06
5.01627e-06
5.0753e-06
5.40759e-06
5.5991e-06
5.71448e-06
5.77972e-06
5.7797e-06
5.71149e-06
5.59824e-06
5.4072e-06
5.0753e-06
5.07528e-06
5.40722e-06
5.59833e-06
5.7118e-06
5.77975e-06
5.77973e-06
5.7115e-06
5.59824e-06
5.40721e-06
5.0753e-06
5.01625e-06
5.35128e-06
5.54691e-06
5.66194e-06
5.71481e-06
5.71481e-06
5.66192e-06
5.54691e-06
5.35128e-06
5.01627e-06
4.88242e-06
5.23407e-06
5.4555e-06
5.55193e-06
5.59921e-06
5.59921e-06
5.55193e-06
5.4555e-06
5.23407e-06
4.88244e-06
4.63482e-06
5.02199e-06
5.26452e-06
5.35586e-06
5.40763e-06
5.40764e-06
5.35586e-06
5.26453e-06
5.022e-06
4.63484e-06
4.23191e-06
4.64545e-06
4.88692e-06
5.01674e-06
5.07533e-06
5.07533e-06
5.01674e-06
4.88692e-06
4.64546e-06
4.23192e-06
3.95575e-06
4.40497e-06
4.68675e-06
4.841e-06
4.90938e-06
4.90944e-06
4.84173e-06
4.69214e-06
4.41618e-06
3.95587e-06
4.41614e-06
4.84698e-06
5.09232e-06
5.22838e-06
5.29321e-06
5.29374e-06
5.23388e-06
5.12489e-06
4.84704e-06
4.40508e-06
4.69213e-06
5.12486e-06
5.34789e-06
5.45625e-06
5.51595e-06
5.51693e-06
5.46181e-06
5.34793e-06
5.09237e-06
4.68685e-06
4.84175e-06
5.23388e-06
5.4618e-06
5.59002e-06
5.64863e-06
5.65153e-06
5.59e-06
5.45627e-06
5.22842e-06
4.84109e-06
4.90948e-06
5.29375e-06
5.51693e-06
5.65153e-06
5.72704e-06
5.72701e-06
5.64826e-06
5.51585e-06
5.2932e-06
4.90945e-06
4.90943e-06
5.29324e-06
5.51597e-06
5.64865e-06
5.72708e-06
5.72705e-06
5.64827e-06
5.51585e-06
5.2932e-06
4.90945e-06
4.84107e-06
5.22842e-06
5.45628e-06
5.59008e-06
5.65194e-06
5.65194e-06
5.59005e-06
5.45627e-06
5.22843e-06
4.84109e-06
4.68684e-06
5.09238e-06
5.34793e-06
5.46184e-06
5.51708e-06
5.51708e-06
5.46184e-06
5.34794e-06
5.09238e-06
4.68685e-06
4.40508e-06
4.84705e-06
5.12491e-06
5.23391e-06
5.29383e-06
5.29383e-06
5.23391e-06
5.12491e-06
4.84705e-06
4.40508e-06
3.9559e-06
4.41622e-06
4.69219e-06
4.84179e-06
4.90951e-06
4.90951e-06
4.84179e-06
4.69218e-06
4.41622e-06
3.95589e-06
3.69661e-06
4.18412e-06
4.4965e-06
4.66981e-06
4.74707e-06
4.74717e-06
4.67078e-06
4.50265e-06
4.19564e-06
3.69674e-06
4.19559e-06
4.67588e-06
4.95293e-06
5.10723e-06
5.18064e-06
5.18133e-06
5.11357e-06
4.98699e-06
4.67595e-06
4.18423e-06
4.50263e-06
4.98695e-06
5.2412e-06
5.36643e-06
5.43423e-06
5.43538e-06
5.37246e-06
5.24123e-06
4.95299e-06
4.4966e-06
4.6708e-06
5.11357e-06
5.37245e-06
5.51852e-06
5.58573e-06
5.58879e-06
5.51849e-06
5.36644e-06
5.10727e-06
4.6699e-06
4.7472e-06
5.18134e-06
5.43538e-06
5.58879e-06
5.67422e-06
5.67418e-06
5.58528e-06
5.43408e-06
5.18061e-06
4.74713e-06
4.74712e-06
5.18067e-06
5.43425e-06
5.58575e-06
5.67427e-06
5.67423e-06
5.58529e-06
5.43408e-06
5.18061e-06
4.74713e-06
4.66988e-06
5.10727e-06
5.36646e-06
5.51859e-06
5.58928e-06
5.58927e-06
5.51855e-06
5.36645e-06
5.10727e-06
4.6699e-06
4.49659e-06
4.95299e-06
5.24124e-06
5.3725e-06
5.43558e-06
5.43558e-06
5.3725e-06
5.24124e-06
4.95299e-06
4.4966e-06
4.18423e-06
4.67595e-06
4.987e-06
5.1136e-06
5.18144e-06
5.18144e-06
5.1136e-06
4.98701e-06
4.67596e-06
4.18423e-06
3.69675e-06
4.19567e-06
4.50269e-06
4.67083e-06
4.74723e-06
4.74723e-06
4.67083e-06
4.50268e-06
4.19567e-06
3.69675e-06
3.45539e-06
3.97263e-06
4.31177e-06
4.50263e-06
4.58825e-06
4.58839e-06
4.50384e-06
4.31856e-06
3.98427e-06
3.45549e-06
3.98422e-06
4.50871e-06
4.81579e-06
4.98771e-06
5.06942e-06
5.07028e-06
4.99483e-06
4.85086e-06
4.50877e-06
3.97272e-06
4.31853e-06
4.85082e-06
5.13538e-06
5.27738e-06
5.35311e-06
5.35444e-06
5.28383e-06
5.13542e-06
4.81584e-06
4.31185e-06
4.50385e-06
4.99482e-06
5.28382e-06
5.44739e-06
5.52306e-06
5.52625e-06
5.44735e-06
5.27739e-06
4.98775e-06
4.5027e-06
4.5884e-06
5.07028e-06
5.35443e-06
5.52625e-06
5.62129e-06
5.62124e-06
5.52254e-06
5.35291e-06
5.06936e-06
4.58829e-06
4.58828e-06
5.06945e-06
5.35313e-06
5.52308e-06
5.62136e-06
5.62131e-06
5.52255e-06
5.35292e-06
5.06936e-06
4.58829e-06
4.50267e-06
4.98775e-06
5.27741e-06
5.44747e-06
5.52681e-06
5.52681e-06
5.44742e-06
5.2774e-06
4.98775e-06
4.5027e-06
4.31183e-06
4.81584e-06
5.13542e-06
5.28387e-06
5.35469e-06
5.35469e-06
5.28387e-06
5.13543e-06
4.81585e-06
4.31185e-06
3.97271e-06
4.50877e-06
4.85087e-06
4.99486e-06
5.07042e-06
5.07042e-06
4.99486e-06
4.85088e-06
4.50879e-06
3.97273e-06
3.45549e-06
3.98429e-06
4.31859e-06
4.50389e-06
4.58845e-06
4.58845e-06
4.50389e-06
4.31859e-06
3.9843e-06
3.45551e-06
3.23455e-06
3.77147e-06
4.13312e-06
4.33982e-06
4.4332e-06
4.43338e-06
4.34129e-06
4.14044e-06
3.7831e-06
3.23462e-06
3.78306e-06
4.34582e-06
4.68104e-06
4.86989e-06
4.95961e-06
4.96063e-06
4.8777e-06
4.71674e-06
4.34587e-06
3.77153e-06
4.14042e-06
4.71671e-06
5.03056e-06
5.18913e-06
5.27263e-06
5.27411e-06
5.19594e-06
5.03059e-06
4.68108e-06
4.13318e-06
4.34128e-06
4.87768e-06
5.19593e-06
5.37666e-06
5.46065e-06
5.46393e-06
5.3766e-06
5.18912e-06
4.86991e-06
4.33988e-06
4.43339e-06
4.96063e-06
5.27411e-06
5.46394e-06
5.5683e-06
5.56824e-06
5.46006e-06
5.27237e-06
4.9595e-06
4.43322e-06
4.43322e-06
4.95962e-06
5.27264e-06
5.46068e-06
5.56839e-06
5.56832e-06
5.46007e-06
5.27237e-06
4.9595e-06
4.43322e-06
4.33985e-06
4.86991e-06
5.18916e-06
5.37675e-06
5.46457e-06
5.46456e-06
5.37668e-06
5.18913e-06
4.86991e-06
4.33988e-06
4.13316e-06
4.68107e-06
5.03059e-06
5.19599e-06
5.27441e-06
5.27441e-06
5.19599e-06
5.0306e-06
4.68108e-06
4.13318e-06
3.77151e-06
4.34586e-06
4.71674e-06
4.87772e-06
4.96079e-06
4.96079e-06
4.87773e-06
4.71675e-06
4.34588e-06
3.77153e-06
3.2346e-06
3.78309e-06
4.14045e-06
4.34131e-06
4.43344e-06
4.43344e-06
4.34132e-06
4.14047e-06
3.78312e-06
3.23463e-06
3.03711e-06
3.58171e-06
3.9612e-06
4.18185e-06
4.28228e-06
4.28251e-06
4.18355e-06
3.96895e-06
3.59324e-06
3.03714e-06
3.59321e-06
4.18759e-06
4.54882e-06
4.75384e-06
4.85126e-06
4.85244e-06
4.76225e-06
4.58486e-06
4.18762e-06
3.58175e-06
3.96893e-06
4.58483e-06
4.92682e-06
5.10169e-06
5.1928e-06
5.19443e-06
5.10881e-06
4.92684e-06
4.54885e-06
3.96124e-06
4.18354e-06
4.76224e-06
5.10881e-06
5.30635e-06
5.39851e-06
5.40186e-06
5.30628e-06
5.10167e-06
4.75385e-06
4.18188e-06
4.28251e-06
4.85243e-06
5.19443e-06
5.40188e-06
5.51528e-06
5.5152e-06
5.39785e-06
5.19248e-06
4.8511e-06
4.28227e-06
4.28229e-06
4.85127e-06
5.19281e-06
5.39854e-06
5.51538e-06
5.5153e-06
5.39786e-06
5.19248e-06
4.8511e-06
4.28227e-06
4.18187e-06
4.75386e-06
5.10172e-06
5.30645e-06
5.40257e-06
5.40256e-06
5.30637e-06
5.10168e-06
4.75385e-06
4.18188e-06
3.96123e-06
4.54884e-06
4.92684e-06
5.10887e-06
5.19479e-06
5.19479e-06
5.10887e-06
4.92685e-06
4.54885e-06
3.96124e-06
3.58174e-06
4.18762e-06
4.58486e-06
4.76228e-06
4.85263e-06
4.85264e-06
4.76229e-06
4.58487e-06
4.18763e-06
3.58175e-06
3.03714e-06
3.59325e-06
3.96896e-06
4.18358e-06
4.28257e-06
4.28257e-06
4.18358e-06
3.96897e-06
3.59325e-06
3.03715e-06
2.86876e-06
3.40503e-06
3.79679e-06
4.02924e-06
4.13594e-06
4.13622e-06
4.03118e-06
3.8049e-06
3.41644e-06
2.86879e-06
3.4164e-06
4.03454e-06
4.41935e-06
4.63969e-06
4.74447e-06
4.74581e-06
4.64862e-06
4.45551e-06
4.03457e-06
3.40507e-06
3.80488e-06
4.45548e-06
4.82427e-06
5.01511e-06
5.11366e-06
5.11543e-06
5.02251e-06
4.82429e-06
4.41938e-06
3.79683e-06
4.03117e-06
4.64861e-06
5.0225e-06
5.23649e-06
5.33666e-06
5.34006e-06
5.2364e-06
5.01507e-06
4.63968e-06
4.02926e-06
4.13622e-06
4.7458e-06
5.11543e-06
5.34008e-06
5.46227e-06
5.46217e-06
5.33592e-06
5.11328e-06
4.74426e-06
4.13591e-06
4.13594e-06
4.74448e-06
5.11367e-06
5.33669e-06
5.46237e-06
5.46228e-06
5.33594e-06
5.11328e-06
4.74427e-06
4.13591e-06
4.02925e-06
4.6397e-06
5.01513e-06
5.2366e-06
5.34084e-06
5.34082e-06
5.2365e-06
5.01509e-06
4.63968e-06
4.02926e-06
3.79681e-06
4.41937e-06
4.82429e-06
5.02257e-06
5.11584e-06
5.11584e-06
5.02257e-06
4.82429e-06
4.41938e-06
3.79682e-06
3.40506e-06
4.03456e-06
4.4555e-06
4.64866e-06
4.74604e-06
4.74604e-06
4.64866e-06
4.45551e-06
4.03457e-06
3.40507e-06
2.86877e-06
3.41642e-06
3.8049e-06
4.03119e-06
4.13628e-06
4.13628e-06
4.0312e-06
3.80491e-06
3.41643e-06
2.86878e-06
2.73721e-06
3.24357e-06
3.64079e-06
3.88252e-06
3.9946e-06
3.99494e-06
3.88469e-06
3.64917e-06
3.25479e-06
2.73721e-06
3.25474e-06
3.88719e-06
4.29283e-06
4.52753e-06
4.63933e-06
4.64081e-06
4.53691e-06
4.32892e-06
3.88723e-06
3.24359e-06
3.64913e-06
4.32889e-06
4.72301e-06
4.92941e-06
5.03523e-06
5.03713e-06
4.93704e-06
4.72302e-06
4.29285e-06
3.64081e-06
3.88466e-06
4.53689e-06
4.93704e-06
5.16709e-06
5.2751e-06
5.27854e-06
5.16698e-06
4.92936e-06
4.52751e-06
3.88254e-06
3.99492e-06
4.6408e-06
5.03712e-06
5.27856e-06
5.40927e-06
5.40916e-06
5.2743e-06
5.03478e-06
4.63907e-06
3.99455e-06
3.99459e-06
4.63932e-06
5.03524e-06
5.27513e-06
5.4094e-06
5.40929e-06
5.27433e-06
5.03479e-06
4.63907e-06
3.99455e-06
3.88252e-06
4.52753e-06
4.92943e-06
5.16721e-06
5.27938e-06
5.27936e-06
5.1671e-06
4.92938e-06
4.52751e-06
3.88254e-06
3.64079e-06
4.29284e-06
4.72303e-06
4.93713e-06
5.0376e-06
5.0376e-06
4.93712e-06
4.72304e-06
4.29285e-06
3.64082e-06
3.24358e-06
3.88721e-06
4.32892e-06
4.53695e-06
4.64109e-06
4.64109e-06
4.53696e-06
4.32893e-06
3.88723e-06
3.24359e-06
2.7372e-06
3.25477e-06
3.64917e-06
3.8847e-06
3.99502e-06
3.99502e-06
3.88471e-06
3.64918e-06
3.2548e-06
2.73721e-06
2.65838e-06
3.10111e-06
3.49445e-06
3.74238e-06
3.85878e-06
3.85918e-06
3.74476e-06
3.50307e-06
3.11216e-06
2.65834e-06
3.1121e-06
3.74635e-06
4.1695e-06
4.41748e-06
4.53592e-06
4.53754e-06
4.42725e-06
4.2054e-06
3.74639e-06
3.10114e-06
3.50302e-06
4.20537e-06
4.62314e-06
4.84463e-06
4.95754e-06
4.95955e-06
4.85246e-06
4.62315e-06
4.16953e-06
3.49449e-06
3.74472e-06
4.42723e-06
4.85246e-06
5.09816e-06
5.21384e-06
5.21732e-06
5.09805e-06
4.84457e-06
4.41746e-06
3.7424e-06
3.85915e-06
4.53752e-06
4.95955e-06
5.21734e-06
5.35633e-06
5.35621e-06
5.21299e-06
4.95703e-06
4.53561e-06
3.85872e-06
3.85877e-06
4.53591e-06
4.95754e-06
5.21388e-06
5.35647e-06
5.35634e-06
5.21302e-06
4.95703e-06
4.53561e-06
3.85872e-06
3.74238e-06
4.41748e-06
4.84465e-06
5.09831e-06
5.21822e-06
5.21819e-06
5.09818e-06
4.84458e-06
4.41746e-06
3.7424e-06
3.49446e-06
4.16951e-06
4.62316e-06
4.85256e-06
4.96008e-06
4.96008e-06
4.85255e-06
4.62316e-06
4.16953e-06
3.49449e-06
3.10112e-06
3.74637e-06
4.20539e-06
4.42729e-06
4.53786e-06
4.53786e-06
4.4273e-06
4.20541e-06
3.74639e-06
3.10114e-06
2.65834e-06
3.11213e-06
3.50305e-06
3.74477e-06
3.85927e-06
3.85927e-06
3.74478e-06
3.50307e-06
3.11216e-06
2.65834e-06
2.65458e-06
2.98321e-06
3.35961e-06
3.60974e-06
3.72914e-06
3.72959e-06
3.6123e-06
3.36839e-06
2.99409e-06
2.65447e-06
2.99403e-06
3.61303e-06
4.04963e-06
4.30965e-06
4.43431e-06
4.43605e-06
4.31973e-06
4.08522e-06
3.61307e-06
2.98322e-06
3.36834e-06
4.08518e-06
4.52473e-06
4.76079e-06
4.88059e-06
4.88271e-06
4.76878e-06
4.52473e-06
4.04966e-06
3.35964e-06
3.61226e-06
4.31971e-06
4.76878e-06
5.02973e-06
5.1529e-06
5.1564e-06
5.02959e-06
4.76071e-06
4.30962e-06
3.60974e-06
3.72956e-06
4.43604e-06
4.8827e-06
5.15643e-06
5.30346e-06
5.30332e-06
5.152e-06
4.88001e-06
4.43395e-06
3.72905e-06
3.72912e-06
4.4343e-06
4.88059e-06
5.15295e-06
5.30361e-06
5.30347e-06
5.15203e-06
4.88002e-06
4.43395e-06
3.72905e-06
3.60973e-06
4.30965e-06
4.76081e-06
5.02989e-06
5.15736e-06
5.15733e-06
5.02975e-06
4.76073e-06
4.30962e-06
3.60975e-06
3.35962e-06
4.04965e-06
4.52475e-06
4.76889e-06
4.8833e-06
4.8833e-06
4.76888e-06
4.52475e-06
4.04965e-06
3.35965e-06
2.98322e-06
3.61305e-06
4.08522e-06
4.31979e-06
4.43643e-06
4.43643e-06
4.31979e-06
4.08523e-06
3.61307e-06
2.98321e-06
2.65447e-06
2.99405e-06
3.36838e-06
3.61232e-06
3.7297e-06
3.7297e-06
3.61232e-06
3.36838e-06
2.99408e-06
2.65447e-06
2.7728e-06
2.89963e-06
3.23946e-06
3.48598e-06
3.60664e-06
3.60714e-06
3.48871e-06
3.24836e-06
2.91035e-06
2.77256e-06
2.91031e-06
3.48893e-06
3.93363e-06
4.2042e-06
4.3346e-06
4.33646e-06
4.21453e-06
3.96881e-06
3.48896e-06
2.89958e-06
3.24832e-06
3.96879e-06
4.42789e-06
4.67792e-06
4.8044e-06
4.80662e-06
4.68604e-06
4.42789e-06
3.93364e-06
3.23947e-06
3.48867e-06
4.21451e-06
4.68605e-06
4.9618e-06
5.09229e-06
5.09579e-06
4.96165e-06
4.67782e-06
4.20415e-06
3.48597e-06
3.60711e-06
4.33645e-06
4.80661e-06
5.09583e-06
5.25067e-06
5.25051e-06
5.09133e-06
4.80376e-06
4.33419e-06
3.60652e-06
3.60662e-06
4.33459e-06
4.8044e-06
5.09234e-06
5.25084e-06
5.25068e-06
5.09137e-06
4.80377e-06
4.33419e-06
3.60652e-06
3.48596e-06
4.2042e-06
4.67794e-06
4.96197e-06
5.09681e-06
5.09678e-06
4.96181e-06
4.67784e-06
4.20415e-06
3.48597e-06
3.23945e-06
3.93364e-06
4.42791e-06
4.68617e-06
4.80727e-06
4.80727e-06
4.68615e-06
4.4279e-06
3.93364e-06
3.23948e-06
2.89959e-06
3.48894e-06
3.96881e-06
4.21459e-06
4.33688e-06
4.33688e-06
4.21459e-06
3.96882e-06
3.48896e-06
2.89957e-06
2.77258e-06
2.91031e-06
3.24834e-06
3.48872e-06
3.60726e-06
3.60726e-06
3.48872e-06
3.24834e-06
2.91034e-06
2.77257e-06
3.07912e-06
2.86588e-06
3.13878e-06
3.37335e-06
3.49275e-06
3.49331e-06
3.37624e-06
3.14777e-06
2.87656e-06
3.07868e-06
2.87654e-06
3.37655e-06
3.82205e-06
4.10128e-06
4.23688e-06
4.23885e-06
4.11181e-06
3.85677e-06
3.37657e-06
2.86577e-06
3.14773e-06
3.85674e-06
4.33272e-06
4.59604e-06
4.72899e-06
4.73129e-06
4.60426e-06
4.33272e-06
3.82206e-06
3.13876e-06
3.3762e-06
4.11179e-06
4.60428e-06
4.89438e-06
5.032e-06
5.03551e-06
4.89421e-06
4.59592e-06
4.10122e-06
3.37333e-06
3.49328e-06
4.23883e-06
4.73129e-06
5.03556e-06
5.19798e-06
5.19781e-06
5.03099e-06
4.72829e-06
4.23642e-06
3.49261e-06
3.49273e-06
4.23687e-06
4.72899e-06
5.03206e-06
5.19816e-06
5.19799e-06
5.03104e-06
4.72829e-06
4.23642e-06
3.49261e-06
3.37334e-06
4.10128e-06
4.59607e-06
4.89456e-06
5.03658e-06
5.03654e-06
4.89439e-06
4.59595e-06
4.10122e-06
3.37334e-06
3.13876e-06
3.82206e-06
4.33275e-06
4.60442e-06
4.73201e-06
4.732e-06
4.6044e-06
4.33274e-06
3.82206e-06
3.13879e-06
2.86581e-06
3.37656e-06
3.85678e-06
4.11189e-06
4.23932e-06
4.23932e-06
4.11189e-06
3.85678e-06
3.37657e-06
2.86578e-06
3.0787e-06
2.87651e-06
3.14776e-06
3.37626e-06
3.49345e-06
3.49345e-06
3.37625e-06
3.14775e-06
2.87656e-06
3.07869e-06
3.70877e-06
2.90488e-06
3.06502e-06
3.27529e-06
3.3898e-06
3.3904e-06
3.27832e-06
3.07412e-06
2.91564e-06
3.70788e-06
2.91564e-06
3.28016e-06
3.7158e-06
4.0012e-06
4.14131e-06
4.14338e-06
4.01189e-06
3.75003e-06
3.28018e-06
2.90465e-06
3.0741e-06
3.75e-06
4.23938e-06
4.51519e-06
4.65437e-06
4.65674e-06
4.5235e-06
4.23938e-06
3.7158e-06
3.06499e-06
3.2783e-06
4.01187e-06
4.52352e-06
4.82748e-06
4.97206e-06
4.97556e-06
4.82729e-06
4.51506e-06
4.00112e-06
3.27526e-06
3.39038e-06
4.14336e-06
4.65675e-06
4.97562e-06
5.14541e-06
5.14523e-06
4.971e-06
4.65361e-06
4.1408e-06
3.38964e-06
3.38978e-06
4.1413e-06
4.65438e-06
4.97212e-06
5.14561e-06
5.14542e-06
4.97105e-06
4.65361e-06
4.1408e-06
3.38964e-06
3.27528e-06
4.0012e-06
4.51522e-06
4.82768e-06
4.97669e-06
4.97664e-06
4.82749e-06
4.51509e-06
4.00112e-06
3.27528e-06
3.06499e-06
3.71581e-06
4.23942e-06
4.52367e-06
4.65753e-06
4.65752e-06
4.52365e-06
4.2394e-06
3.7158e-06
3.06503e-06
2.90471e-06
3.28017e-06
3.75003e-06
4.01198e-06
4.1439e-06
4.1439e-06
4.01197e-06
3.75004e-06
3.28017e-06
2.90467e-06
3.70794e-06
2.91558e-06
3.07412e-06
3.27835e-06
3.39057e-06
3.39057e-06
3.27834e-06
3.07409e-06
2.91563e-06
3.70793e-06
4.84225e-06
3.05545e-06
3.02982e-06
3.19696e-06
3.30122e-06
3.30187e-06
3.20013e-06
3.03906e-06
3.06656e-06
4.84089e-06
3.0666e-06
3.2058e-06
3.61625e-06
3.90435e-06
4.04809e-06
4.05024e-06
3.91516e-06
3.64997e-06
3.20581e-06
3.05506e-06
3.03904e-06
3.64994e-06
4.14809e-06
4.43542e-06
4.58055e-06
4.583e-06
4.44379e-06
4.14809e-06
3.61626e-06
3.02975e-06
3.20011e-06
3.91513e-06
4.44381e-06
4.76111e-06
4.91246e-06
4.91596e-06
4.76091e-06
4.43527e-06
3.90427e-06
3.19692e-06
3.30185e-06
4.05022e-06
4.583e-06
4.91602e-06
5.09298e-06
5.09278e-06
4.91136e-06
4.57974e-06
4.04753e-06
3.30103e-06
3.30121e-06
4.04809e-06
4.58057e-06
4.91253e-06
5.09319e-06
5.09298e-06
4.91142e-06
4.57975e-06
4.04753e-06
3.30104e-06
3.19695e-06
3.90436e-06
4.43546e-06
4.76133e-06
4.91713e-06
4.91708e-06
4.76112e-06
4.43531e-06
3.90427e-06
3.19695e-06
3.02977e-06
3.61627e-06
4.14814e-06
4.44399e-06
4.58385e-06
4.58384e-06
4.44396e-06
4.14811e-06
3.61626e-06
3.02982e-06
3.05516e-06
3.20582e-06
3.64999e-06
3.91527e-06
4.05082e-06
4.05082e-06
3.91526e-06
3.64999e-06
3.20581e-06
3.05511e-06
4.84089e-06
3.06646e-06
3.03905e-06
3.20017e-06
3.30206e-06
3.30206e-06
3.20014e-06
3.039e-06
3.06653e-06
4.84096e-06
6.8796e-06
3.37526e-06
3.05063e-06
3.14686e-06
3.23288e-06
3.23359e-06
3.15019e-06
3.06007e-06
3.38699e-06
6.87614e-06
3.38717e-06
3.16329e-06
3.52555e-06
3.81141e-06
3.95756e-06
3.95978e-06
3.82231e-06
3.55878e-06
3.16328e-06
3.37454e-06
3.06008e-06
3.55873e-06
4.05917e-06
4.3568e-06
4.50758e-06
4.51008e-06
4.36521e-06
4.05917e-06
3.52556e-06
3.0505e-06
3.15018e-06
3.82228e-06
4.36522e-06
4.69529e-06
4.85321e-06
4.8567e-06
4.69508e-06
4.35664e-06
3.81132e-06
3.14682e-06
3.23358e-06
3.95976e-06
4.51008e-06
4.85677e-06
5.04068e-06
5.04047e-06
4.85208e-06
4.50671e-06
3.95695e-06
3.23269e-06
3.23288e-06
3.95755e-06
4.50759e-06
4.8533e-06
5.04091e-06
5.04069e-06
4.85214e-06
4.50672e-06
3.95695e-06
3.23269e-06
3.14686e-06
3.81143e-06
4.35685e-06
4.69554e-06
4.85793e-06
4.85787e-06
4.69531e-06
4.35668e-06
3.81133e-06
3.14687e-06
3.05054e-06
3.52558e-06
4.05923e-06
4.36543e-06
4.51099e-06
4.51098e-06
4.3654e-06
4.0592e-06
3.52557e-06
3.05061e-06
3.37471e-06
3.16328e-06
3.55879e-06
3.82243e-06
3.96041e-06
3.96041e-06
3.82243e-06
3.55879e-06
3.16328e-06
3.37465e-06
6.87619e-06
3.38686e-06
3.06006e-06
3.15023e-06
3.2338e-06
3.2338e-06
3.15019e-06
3.05998e-06
3.38693e-06
6.87627e-06
1.02646e-05
3.96971e-06
3.15718e-06
3.13694e-06
3.1928e-06
3.19355e-06
3.14043e-06
3.16694e-06
3.98247e-06
1.02586e-05
3.98302e-06
3.1666e-06
3.44696e-06
3.72345e-06
3.87026e-06
3.87255e-06
3.73442e-06
3.47976e-06
3.16658e-06
3.96838e-06
3.16703e-06
3.47968e-06
3.97307e-06
4.27941e-06
4.43546e-06
4.43801e-06
4.28786e-06
3.9731e-06
3.447e-06
3.15694e-06
3.14044e-06
3.73435e-06
4.28785e-06
4.63004e-06
4.79434e-06
4.79781e-06
4.62983e-06
4.27925e-06
3.72336e-06
3.13688e-06
3.19356e-06
3.87251e-06
4.43801e-06
4.79788e-06
4.98855e-06
4.98833e-06
4.79318e-06
4.43454e-06
3.86962e-06
3.19258e-06
3.1928e-06
3.87024e-06
4.43547e-06
4.79442e-06
4.98878e-06
4.98856e-06
4.79324e-06
4.43456e-06
3.86962e-06
3.1926e-06
3.13695e-06
3.72345e-06
4.27946e-06
4.6303e-06
4.79908e-06
4.79903e-06
4.63007e-06
4.27929e-06
3.72337e-06
3.13696e-06
3.15705e-06
3.44699e-06
3.97315e-06
4.28809e-06
4.43898e-06
4.43897e-06
4.28806e-06
3.97313e-06
3.44701e-06
3.15712e-06
3.96875e-06
3.16656e-06
3.47976e-06
3.73455e-06
3.87323e-06
3.87323e-06
3.73455e-06
3.47978e-06
3.16658e-06
3.96856e-06
1.0259e-05
3.98237e-06
3.16693e-06
3.14048e-06
3.1938e-06
3.19378e-06
3.14042e-06
3.1668e-06
3.98237e-06
1.02587e-05
1.52672e-05
4.99761e-06
3.38843e-06
3.18616e-06
3.19363e-06
3.19445e-06
3.18983e-06
3.39868e-06
5.01216e-06
1.52589e-05
5.01321e-06
3.2392e-06
3.38585e-06
3.64214e-06
3.78708e-06
3.78944e-06
3.65316e-06
3.41828e-06
3.23909e-06
4.99546e-06
3.39892e-06
3.41818e-06
3.89063e-06
4.20342e-06
4.36426e-06
4.36686e-06
4.21188e-06
3.89066e-06
3.38585e-06
3.38805e-06
3.18992e-06
3.65307e-06
4.21186e-06
4.56539e-06
4.73584e-06
4.7393e-06
4.56517e-06
4.20324e-06
3.64203e-06
3.18608e-06
3.19449e-06
3.78936e-06
4.36684e-06
4.73937e-06
4.93658e-06
4.93635e-06
4.73465e-06
4.36329e-06
3.78638e-06
3.1934e-06
3.19367e-06
3.78703e-06
4.36427e-06
4.73593e-06
4.93683e-06
4.9366e-06
4.73472e-06
4.3633e-06
3.78638e-06
3.19343e-06
3.18618e-06
3.64212e-06
4.20347e-06
4.56567e-06
4.74061e-06
4.74055e-06
4.56542e-06
4.20328e-06
3.64204e-06
3.1862e-06
3.38826e-06
3.38582e-06
3.8907e-06
4.21212e-06
4.36787e-06
4.36786e-06
4.21209e-06
3.89069e-06
3.38586e-06
3.38834e-06
4.99627e-06
3.23906e-06
3.41824e-06
3.65327e-06
3.79013e-06
3.79013e-06
3.65328e-06
3.41827e-06
3.23909e-06
4.99587e-06
1.52606e-05
5.01232e-06
3.39876e-06
3.18993e-06
3.19473e-06
3.19471e-06
3.18981e-06
3.39852e-06
5.01209e-06
1.52594e-05
2.19598e-05
6.61383e-06
3.81075e-06
3.32289e-06
3.25576e-06
3.25664e-06
3.32682e-06
3.82188e-06
6.63168e-06
2.19509e-05
6.63311e-06
3.40531e-06
3.3488e-06
3.57004e-06
3.70945e-06
3.71185e-06
3.5811e-06
3.38099e-06
3.40507e-06
6.61096e-06
3.82227e-06
3.38091e-06
3.8129e-06
4.12904e-06
4.29404e-06
4.29668e-06
4.13749e-06
3.81292e-06
3.34876e-06
3.81025e-06
3.32701e-06
3.581e-06
4.13748e-06
4.50136e-06
4.67773e-06
4.68117e-06
4.50113e-06
4.12884e-06
3.5699e-06
3.32281e-06
3.25675e-06
3.71177e-06
4.29666e-06
4.68125e-06
4.8848e-06
4.88456e-06
4.67651e-06
4.29302e-06
3.70868e-06
3.25554e-06
3.25586e-06
3.70938e-06
4.29405e-06
4.67783e-06
4.88507e-06
4.88482e-06
4.67658e-06
4.29303e-06
3.70869e-06
3.25558e-06
3.32296e-06
3.57e-06
4.12909e-06
4.50166e-06
4.68252e-06
4.68245e-06
4.5014e-06
4.12888e-06
3.5699e-06
3.32301e-06
3.81057e-06
3.34874e-06
3.81296e-06
4.13775e-06
4.29774e-06
4.29773e-06
4.13771e-06
3.81294e-06
3.34876e-06
3.81074e-06
6.61211e-06
3.40508e-06
3.38095e-06
3.5812e-06
3.71257e-06
3.71257e-06
3.5812e-06
3.38095e-06
3.40508e-06
6.61188e-06
2.1953e-05
6.63194e-06
3.82204e-06
3.32698e-06
3.257e-06
3.25696e-06
3.32681e-06
3.82171e-06
6.6318e-06
2.19525e-05
3.01417e-05
9.36227e-06
4.52964e-06
3.58854e-06
3.40394e-06
3.4049e-06
3.59285e-06
4.54216e-06
9.38455e-06
3.01348e-05
9.38591e-06
3.72182e-06
3.34727e-06
3.51116e-06
3.63967e-06
3.64211e-06
3.52224e-06
3.37944e-06
3.72147e-06
9.35882e-06
4.54257e-06
3.37941e-06
3.74162e-06
4.05665e-06
4.22495e-06
4.22762e-06
4.06508e-06
3.74161e-06
3.34714e-06
4.52908e-06
3.59312e-06
3.52216e-06
4.06507e-06
4.43802e-06
4.62003e-06
4.62345e-06
4.43776e-06
4.05642e-06
3.51094e-06
3.58852e-06
3.40508e-06
3.64204e-06
4.2276e-06
4.62353e-06
4.83322e-06
4.83297e-06
4.61877e-06
4.22387e-06
3.63882e-06
3.40377e-06
3.40408e-06
3.6396e-06
4.22496e-06
4.62014e-06
4.8335e-06
4.83324e-06
4.61885e-06
4.22388e-06
3.63882e-06
3.40383e-06
3.58861e-06
3.5111e-06
4.05671e-06
4.43833e-06
4.62483e-06
4.62476e-06
4.43805e-06
4.05647e-06
3.51096e-06
3.58883e-06
4.52927e-06
3.34717e-06
3.74168e-06
4.06536e-06
4.22872e-06
4.22871e-06
4.06531e-06
3.74163e-06
3.34717e-06
4.52981e-06
9.35957e-06
3.72149e-06
3.37942e-06
3.52236e-06
3.64287e-06
3.64286e-06
3.52234e-06
3.37939e-06
3.72151e-06
9.36007e-06
3.01347e-05
9.38424e-06
4.5423e-06
3.59309e-06
3.40536e-06
3.4053e-06
3.59282e-06
4.54188e-06
9.38446e-06
3.0136e-05
3.93812e-05
1.34748e-05
5.67154e-06
4.04783e-06
3.68414e-06
3.68523e-06
4.05271e-06
5.68599e-06
1.35009e-05
3.93767e-05
1.35021e-05
4.26022e-06
3.39557e-06
3.47088e-06
3.58107e-06
3.58356e-06
3.48203e-06
3.42809e-06
4.25976e-06
1.34709e-05
5.68635e-06
3.42811e-06
3.67927e-06
3.98679e-06
4.1572e-06
4.15988e-06
3.99519e-06
3.67923e-06
3.39538e-06
5.67095e-06
4.05303e-06
3.48197e-06
3.99519e-06
4.37541e-06
4.56275e-06
4.56614e-06
4.37515e-06
3.98654e-06
3.47062e-06
4.04787e-06
3.68545e-06
3.5835e-06
4.15987e-06
4.56624e-06
4.78185e-06
4.78158e-06