/*--------------------------------*- C++ -*----------------------------------*\
| =========                 |                                                 |
| \\      /  F ield         | OpenFOAM: The Open Source CFD Toolbox           |
|  \\    /   O peration     | Version:  2406                                  |
|   \\  /    A nd           | Website:  www.openfoam.com                      |
|    \\/     M anipulation  |                                                 |
\*---------------------------------------------------------------------------*/
FoamFile
{
    version     2.0;
    format      ascii;
    arch        "LSB;label=32;scalar=64";
    class       volScalarField;
    location    "400";
    object      nuTilda;
}
// * * * * * * * * * * * * * * * * * * * * * * * * * * * * * * * * * * * * * //

dimensions      [0 2 -1 0 0 0 0];

internalField   nonuniform List<scalar> 
25000
(
3.96612e-05
3.97393e-05
3.97881e-05
3.98122e-05
3.98228e-05
3.98228e-05
3.98122e-05
3.97884e-05
3.97433e-05
3.96613e-05
3.97433e-05
3.98127e-05
3.98519e-05
3.98735e-05
3.9884e-05
3.9884e-05
3.98738e-05
3.98615e-05
3.98128e-05
3.97394e-05
3.97883e-05
3.98615e-05
3.98942e-05
3.99085e-05
3.99183e-05
3.99183e-05
3.99097e-05
3.98942e-05
3.98519e-05
3.97881e-05
3.98122e-05
3.98738e-05
3.99097e-05
3.99299e-05
3.99383e-05
3.9939e-05
3.99299e-05
3.99085e-05
3.98735e-05
3.98123e-05
3.98228e-05
3.9884e-05
3.99183e-05
3.9939e-05
3.99515e-05
3.99515e-05
3.99382e-05
3.99183e-05
3.9884e-05
3.98228e-05
3.98228e-05
3.9884e-05
3.99183e-05
3.99383e-05
3.99515e-05
3.99515e-05
3.99382e-05
3.99183e-05
3.9884e-05
3.98228e-05
3.98122e-05
3.98735e-05
3.99085e-05
3.99299e-05
3.99391e-05
3.99391e-05
3.99299e-05
3.99085e-05
3.98735e-05
3.98123e-05
3.97881e-05
3.98519e-05
3.98942e-05
3.99097e-05
3.99183e-05
3.99183e-05
3.99097e-05
3.98942e-05
3.98519e-05
3.97881e-05
3.97394e-05
3.98128e-05
3.98615e-05
3.98738e-05
3.9884e-05
3.9884e-05
3.98738e-05
3.98615e-05
3.98128e-05
3.97394e-05
3.96613e-05
3.97433e-05
3.97884e-05
3.98122e-05
3.98228e-05
3.98228e-05
3.98122e-05
3.97884e-05
3.97433e-05
3.96613e-05
3.89621e-05
3.92103e-05
3.93581e-05
3.9433e-05
3.94656e-05
3.94656e-05
3.9433e-05
3.93596e-05
3.92202e-05
3.89621e-05
3.92202e-05
3.94357e-05
3.95545e-05
3.96198e-05
3.96512e-05
3.96512e-05
3.96213e-05
3.95797e-05
3.94357e-05
3.92103e-05
3.93596e-05
3.95797e-05
3.96807e-05
3.97257e-05
3.97546e-05
3.97549e-05
3.97292e-05
3.96808e-05
3.95545e-05
3.93581e-05
3.9433e-05
3.96213e-05
3.97292e-05
3.97893e-05
3.9815e-05
3.98171e-05
3.97893e-05
3.97257e-05
3.96198e-05
3.9433e-05
3.94656e-05
3.96512e-05
3.97549e-05
3.98171e-05
3.98537e-05
3.98537e-05
3.98149e-05
3.97547e-05
3.96512e-05
3.94656e-05
3.94656e-05
3.96512e-05
3.97547e-05
3.9815e-05
3.98537e-05
3.98537e-05
3.98149e-05
3.97547e-05
3.96512e-05
3.94656e-05
3.9433e-05
3.96198e-05
3.97257e-05
3.97893e-05
3.98172e-05
3.98172e-05
3.97893e-05
3.97257e-05
3.96198e-05
3.9433e-05
3.93581e-05
3.95545e-05
3.96808e-05
3.97292e-05
3.97549e-05
3.97549e-05
3.97292e-05
3.96808e-05
3.95545e-05
3.93581e-05
3.92103e-05
3.94357e-05
3.95797e-05
3.96213e-05
3.96512e-05
3.96512e-05
3.96213e-05
3.95797e-05
3.94357e-05
3.92103e-05
3.89621e-05
3.92202e-05
3.93596e-05
3.9433e-05
3.94656e-05
3.94656e-05
3.9433e-05
3.93596e-05
3.92202e-05
3.89621e-05
3.82541e-05
3.86788e-05
3.89262e-05
3.90532e-05
3.91084e-05
3.91084e-05
3.90533e-05
3.89295e-05
3.86934e-05
3.82541e-05
3.86933e-05
3.90587e-05
3.92579e-05
3.93667e-05
3.94188e-05
3.94189e-05
3.937e-05
3.92954e-05
3.90587e-05
3.86789e-05
3.89294e-05
3.92954e-05
3.94666e-05
3.9544e-05
3.95915e-05
3.9592e-05
3.95494e-05
3.94666e-05
3.92579e-05
3.89262e-05
3.90533e-05
3.93699e-05
3.95494e-05
3.96489e-05
3.96922e-05
3.96954e-05
3.96489e-05
3.9544e-05
3.93668e-05
3.90532e-05
3.91084e-05
3.94189e-05
3.9592e-05
3.96954e-05
3.97554e-05
3.97554e-05
3.96921e-05
3.95915e-05
3.94189e-05
3.91085e-05
3.91084e-05
3.94188e-05
3.95915e-05
3.96923e-05
3.97554e-05
3.97554e-05
3.96921e-05
3.95915e-05
3.94189e-05
3.91085e-05
3.90532e-05
3.93667e-05
3.9544e-05
3.96489e-05
3.96956e-05
3.96956e-05
3.96489e-05
3.9544e-05
3.93668e-05
3.90532e-05
3.89262e-05
3.92579e-05
3.94666e-05
3.95494e-05
3.9592e-05
3.9592e-05
3.95494e-05
3.94666e-05
3.92579e-05
3.89262e-05
3.86789e-05
3.90587e-05
3.92954e-05
3.937e-05
3.94189e-05
3.9419e-05
3.937e-05
3.92954e-05
3.90587e-05
3.86789e-05
3.82541e-05
3.86934e-05
3.89295e-05
3.90533e-05
3.91085e-05
3.91085e-05
3.90533e-05
3.89295e-05
3.86934e-05
3.82541e-05
3.7551e-05
3.81493e-05
3.84953e-05
3.86748e-05
3.87529e-05
3.87529e-05
3.86751e-05
3.85006e-05
3.81674e-05
3.75511e-05
3.81674e-05
3.86832e-05
3.89628e-05
3.91149e-05
3.91873e-05
3.91876e-05
3.91201e-05
3.90102e-05
3.86832e-05
3.81494e-05
3.85006e-05
3.90102e-05
3.92523e-05
3.93634e-05
3.9429e-05
3.94298e-05
3.93704e-05
3.92523e-05
3.89628e-05
3.84954e-05
3.86751e-05
3.91201e-05
3.93704e-05
3.95089e-05
3.957e-05
3.95739e-05
3.95089e-05
3.93634e-05
3.91149e-05
3.86749e-05
3.87529e-05
3.91876e-05
3.94298e-05
3.95739e-05
3.96564e-05
3.96564e-05
3.95697e-05
3.94289e-05
3.91874e-05
3.87529e-05
3.87529e-05
3.91873e-05
3.9429e-05
3.957e-05
3.96565e-05
3.96565e-05
3.95697e-05
3.94289e-05
3.91874e-05
3.87529e-05
3.86748e-05
3.91149e-05
3.93634e-05
3.95089e-05
3.95743e-05
3.95743e-05
3.95089e-05
3.93634e-05
3.91149e-05
3.86749e-05
3.84954e-05
3.89628e-05
3.92523e-05
3.93705e-05
3.94299e-05
3.94299e-05
3.93705e-05
3.92523e-05
3.89628e-05
3.84954e-05
3.81494e-05
3.86832e-05
3.90102e-05
3.91201e-05
3.91876e-05
3.91876e-05
3.91201e-05
3.90102e-05
3.86832e-05
3.81494e-05
3.75511e-05
3.81675e-05
3.85007e-05
3.86751e-05
3.87529e-05
3.87529e-05
3.86751e-05
3.85007e-05
3.81675e-05
3.75511e-05
3.68622e-05
3.76247e-05
3.80676e-05
3.82992e-05
3.84e-05
3.84e-05
3.82998e-05
3.8075e-05
3.76458e-05
3.68624e-05
3.76457e-05
3.83098e-05
3.86693e-05
3.88643e-05
3.89568e-05
3.89573e-05
3.88715e-05
3.87248e-05
3.83099e-05
3.76248e-05
3.8075e-05
3.87248e-05
3.90379e-05
3.91835e-05
3.92669e-05
3.92681e-05
3.91921e-05
3.9038e-05
3.86694e-05
3.80677e-05
3.82998e-05
3.88715e-05
3.91921e-05
3.9369e-05
3.94478e-05
3.94525e-05
3.9369e-05
3.91835e-05
3.88644e-05
3.82993e-05
3.84e-05
3.89573e-05
3.92681e-05
3.94525e-05
3.95568e-05
3.95568e-05
3.94474e-05
3.92668e-05
3.89568e-05
3.84001e-05
3.84e-05
3.89568e-05
3.92669e-05
3.94479e-05
3.95569e-05
3.95568e-05
3.94474e-05
3.92668e-05
3.89568e-05
3.84001e-05
3.82993e-05
3.88643e-05
3.91836e-05
3.9369e-05
3.9453e-05
3.9453e-05
3.9369e-05
3.91836e-05
3.88644e-05
3.82993e-05
3.80677e-05
3.86694e-05
3.9038e-05
3.91921e-05
3.92682e-05
3.92682e-05
3.91921e-05
3.9038e-05
3.86694e-05
3.80677e-05
3.76248e-05
3.83099e-05
3.87248e-05
3.88716e-05
3.89573e-05
3.89573e-05
3.88716e-05
3.87248e-05
3.83099e-05
3.76249e-05
3.68624e-05
3.76459e-05
3.80751e-05
3.82999e-05
3.84001e-05
3.84001e-05
3.82999e-05
3.80751e-05
3.76459e-05
3.68624e-05
3.6189e-05
3.71053e-05
3.7643e-05
3.79262e-05
3.80497e-05
3.80498e-05
3.79273e-05
3.76526e-05
3.71289e-05
3.61893e-05
3.71288e-05
3.79383e-05
3.83771e-05
3.86148e-05
3.87271e-05
3.87278e-05
3.8624e-05
3.84393e-05
3.79384e-05
3.71056e-05
3.76526e-05
3.84392e-05
3.88233e-05
3.90042e-05
3.91051e-05
3.91066e-05
3.90141e-05
3.88234e-05
3.83772e-05
3.76432e-05
3.79273e-05
3.8624e-05
3.9014e-05
3.9229e-05
3.93257e-05
3.93309e-05
3.9229e-05
3.90042e-05
3.86149e-05
3.79264e-05
3.80498e-05
3.87278e-05
3.91066e-05
3.93309e-05
3.94564e-05
3.94564e-05
3.93251e-05
3.91049e-05
3.87271e-05
3.80498e-05
3.80498e-05
3.87271e-05
3.91051e-05
3.93257e-05
3.94565e-05
3.94564e-05
3.93251e-05
3.91049e-05
3.87271e-05
3.80498e-05
3.79264e-05
3.86149e-05
3.90042e-05
3.92291e-05
3.93315e-05
3.93315e-05
3.92291e-05
3.90042e-05
3.86149e-05
3.79264e-05
3.76431e-05
3.83772e-05
3.88234e-05
3.90141e-05
3.91068e-05
3.91068e-05
3.90141e-05
3.88234e-05
3.83772e-05
3.76432e-05
3.71055e-05
3.79384e-05
3.84393e-05
3.86241e-05
3.87279e-05
3.87279e-05
3.86241e-05
3.84393e-05
3.79385e-05
3.71056e-05
3.61893e-05
3.7129e-05
3.76527e-05
3.79274e-05
3.80499e-05
3.80499e-05
3.79274e-05
3.76527e-05
3.7129e-05
3.61893e-05
3.55277e-05
3.65895e-05
3.72198e-05
3.75544e-05
3.77006e-05
3.77007e-05
3.7556e-05
3.72316e-05
3.66151e-05
3.5528e-05
3.6615e-05
3.75673e-05
3.80852e-05
3.83656e-05
3.84976e-05
3.84986e-05
3.83768e-05
3.81528e-05
3.75674e-05
3.65898e-05
3.72316e-05
3.81527e-05
3.8608e-05
3.88249e-05
3.89432e-05
3.89451e-05
3.88359e-05
3.86081e-05
3.80854e-05
3.722e-05
3.75561e-05
3.83768e-05
3.88359e-05
3.90888e-05
3.92032e-05
3.92089e-05
3.90888e-05
3.88249e-05
3.83657e-05
3.75546e-05
3.77008e-05
3.84987e-05
3.89451e-05
3.92089e-05
3.93551e-05
3.9355e-05
3.92025e-05
3.8943e-05
3.84975e-05
3.77007e-05
3.77007e-05
3.84976e-05
3.89432e-05
3.92033e-05
3.93552e-05
3.93551e-05
3.92025e-05
3.8943e-05
3.84975e-05
3.77007e-05
3.75546e-05
3.83657e-05
3.8825e-05
3.9089e-05
3.92097e-05
3.92097e-05
3.90889e-05
3.88249e-05
3.83657e-05
3.75546e-05
3.722e-05
3.80854e-05
3.86081e-05
3.8836e-05
3.89454e-05
3.89454e-05
3.8836e-05
3.86081e-05
3.80854e-05
3.722e-05
3.65898e-05
3.75674e-05
3.81528e-05
3.83769e-05
3.84988e-05
3.84988e-05
3.83769e-05
3.81528e-05
3.75674e-05
3.65898e-05
3.55281e-05
3.66152e-05
3.72317e-05
3.75561e-05
3.77009e-05
3.77009e-05
3.75561e-05
3.72317e-05
3.66152e-05
3.55281e-05
3.48786e-05
3.60769e-05
3.67971e-05
3.71826e-05
3.73515e-05
3.73517e-05
3.71848e-05
3.68109e-05
3.61041e-05
3.48789e-05
3.61039e-05
3.7196e-05
3.7793e-05
3.81162e-05
3.82678e-05
3.82692e-05
3.81293e-05
3.78649e-05
3.71961e-05
3.60771e-05
3.68109e-05
3.78648e-05
3.83918e-05
3.86453e-05
3.8781e-05
3.87833e-05
3.86575e-05
3.83918e-05
3.77931e-05
3.67973e-05
3.71848e-05
3.81293e-05
3.86574e-05
3.89483e-05
3.90804e-05
3.90864e-05
3.89482e-05
3.86454e-05
3.81163e-05
3.71828e-05
3.73518e-05
3.82692e-05
3.87833e-05
3.90864e-05
3.92529e-05
3.92529e-05
3.90796e-05
3.87808e-05
3.82677e-05
3.73516e-05
3.73516e-05
3.82678e-05
3.87811e-05
3.90805e-05
3.92531e-05
3.9253e-05
3.90796e-05
3.87808e-05
3.82677e-05
3.73516e-05
3.71828e-05
3.81163e-05
3.86454e-05
3.89484e-05
3.90874e-05
3.90874e-05
3.89483e-05
3.86454e-05
3.81163e-05
3.71828e-05
3.67973e-05
3.77931e-05
3.83919e-05
3.86575e-05
3.87837e-05
3.87837e-05
3.86575e-05
3.83919e-05
3.77931e-05
3.67973e-05
3.60771e-05
3.71961e-05
3.78649e-05
3.81294e-05
3.82694e-05
3.82694e-05
3.81294e-05
3.78649e-05
3.71961e-05
3.60771e-05
3.48789e-05
3.61041e-05
3.6811e-05
3.71849e-05
3.73519e-05
3.73519e-05
3.71849e-05
3.6811e-05
3.61041e-05
3.48789e-05
3.42465e-05
3.5569e-05
3.63753e-05
3.68109e-05
3.70023e-05
3.70027e-05
3.68136e-05
3.6391e-05
3.55974e-05
3.42467e-05
3.55973e-05
3.68245e-05
3.75002e-05
3.78664e-05
3.80376e-05
3.80394e-05
3.78814e-05
3.75756e-05
3.68247e-05
3.55692e-05
3.63909e-05
3.75755e-05
3.81745e-05
3.84654e-05
3.86186e-05
3.86212e-05
3.84785e-05
3.81746e-05
3.75003e-05
3.63755e-05
3.68136e-05
3.78814e-05
3.84785e-05
3.88073e-05
3.89572e-05
3.89635e-05
3.88072e-05
3.84654e-05
3.78665e-05
3.6811e-05
3.70027e-05
3.80394e-05
3.86212e-05
3.89635e-05
3.915e-05
3.91499e-05
3.89562e-05
3.86182e-05
3.80374e-05
3.70025e-05
3.70024e-05
3.80376e-05
3.86186e-05
3.89573e-05
3.91501e-05
3.915e-05
3.89562e-05
3.86182e-05
3.80375e-05
3.70025e-05
3.6811e-05
3.78665e-05
3.84655e-05
3.88074e-05
3.89646e-05
3.89646e-05
3.88073e-05
3.84655e-05
3.78665e-05
3.6811e-05
3.63754e-05
3.75003e-05
3.81746e-05
3.84786e-05
3.86217e-05
3.86217e-05
3.84786e-05
3.81746e-05
3.75004e-05
3.63755e-05
3.55692e-05
3.68247e-05
3.75756e-05
3.78814e-05
3.80397e-05
3.80397e-05
3.78814e-05
3.75756e-05
3.68247e-05
3.55693e-05
3.42467e-05
3.55975e-05
3.63911e-05
3.68137e-05
3.70028e-05
3.70028e-05
3.68137e-05
3.63911e-05
3.55975e-05
3.42468e-05
3.36413e-05
3.50691e-05
3.5956e-05
3.64401e-05
3.66538e-05
3.66543e-05
3.64435e-05
3.59734e-05
3.50985e-05
3.36415e-05
3.50984e-05
3.64539e-05
3.72073e-05
3.76163e-05
3.78071e-05
3.78093e-05
3.7633e-05
3.72854e-05
3.6454e-05
3.50693e-05
3.59734e-05
3.72853e-05
3.79564e-05
3.82852e-05
3.84558e-05
3.84588e-05
3.82992e-05
3.79564e-05
3.72074e-05
3.59561e-05
3.64435e-05
3.7633e-05
3.82992e-05
3.86659e-05
3.88336e-05
3.88402e-05
3.86658e-05
3.82852e-05
3.76164e-05
3.64402e-05
3.66543e-05
3.78093e-05
3.84588e-05
3.88402e-05
3.90463e-05
3.90461e-05
3.88325e-05
3.84552e-05
3.78069e-05
3.66539e-05
3.66539e-05
3.78071e-05
3.84558e-05
3.88337e-05
3.90464e-05
3.90463e-05
3.88325e-05
3.84553e-05
3.78069e-05
3.66539e-05
3.64402e-05
3.76164e-05
3.82853e-05
3.86661e-05
3.88414e-05
3.88414e-05
3.86659e-05
3.82852e-05
3.76164e-05
3.64402e-05
3.59561e-05
3.72073e-05
3.79565e-05
3.82993e-05
3.84594e-05
3.84594e-05
3.82993e-05
3.79565e-05
3.72074e-05
3.59561e-05
3.50692e-05
3.6454e-05
3.72854e-05
3.76331e-05
3.78096e-05
3.78096e-05
3.76331e-05
3.72854e-05
3.6454e-05
3.50693e-05
3.36415e-05
3.50985e-05
3.59734e-05
3.64435e-05
3.66544e-05
3.66544e-05
3.64435e-05
3.59735e-05
3.50985e-05
3.36415e-05
3.30762e-05
3.4581e-05
3.55411e-05
3.60715e-05
3.63069e-05
3.63074e-05
3.60755e-05
3.556e-05
3.46112e-05
3.30763e-05
3.46111e-05
3.60851e-05
3.69145e-05
3.73662e-05
3.75764e-05
3.7579e-05
3.73845e-05
3.69948e-05
3.60852e-05
3.45811e-05
3.556e-05
3.69948e-05
3.77376e-05
3.81047e-05
3.82927e-05
3.82961e-05
3.81195e-05
3.77377e-05
3.69145e-05
3.55412e-05
3.60755e-05
3.73844e-05
3.81195e-05
3.85242e-05
3.87097e-05
3.87164e-05
3.8524e-05
3.81047e-05
3.73662e-05
3.60716e-05
3.63074e-05
3.7579e-05
3.82961e-05
3.87164e-05
3.89419e-05
3.89417e-05
3.87084e-05
3.82921e-05
3.75761e-05
3.63069e-05
3.63069e-05
3.75765e-05
3.82928e-05
3.87097e-05
3.89421e-05
3.89419e-05
3.87084e-05
3.82921e-05
3.75761e-05
3.63069e-05
3.60716e-05
3.73663e-05
3.81048e-05
3.85244e-05
3.87178e-05
3.87178e-05
3.85242e-05
3.81047e-05
3.73662e-05
3.60716e-05
3.55411e-05
3.69145e-05
3.77377e-05
3.81196e-05
3.82968e-05
3.82968e-05
3.81196e-05
3.77377e-05
3.69145e-05
3.55412e-05
3.45811e-05
3.60851e-05
3.69948e-05
3.73845e-05
3.75794e-05
3.75794e-05
3.73845e-05
3.69948e-05
3.60852e-05
3.45811e-05
3.30763e-05
3.46112e-05
3.55601e-05
3.60756e-05
3.63076e-05
3.63076e-05
3.60756e-05
3.55601e-05
3.46112e-05
3.30763e-05
3.25744e-05
3.41108e-05
3.5133e-05
3.57067e-05
3.59627e-05
3.59634e-05
3.57114e-05
3.51534e-05
3.41417e-05
3.25745e-05
3.41415e-05
3.57195e-05
3.66223e-05
3.71163e-05
3.73458e-05
3.73487e-05
3.7136e-05
3.67045e-05
3.57196e-05
3.41109e-05
3.51533e-05
3.67044e-05
3.75185e-05
3.7924e-05
3.81295e-05
3.81332e-05
3.79395e-05
3.75185e-05
3.66224e-05
3.51331e-05
3.57113e-05
3.7136e-05
3.79395e-05
3.83822e-05
3.85854e-05
3.85923e-05
3.8382e-05
3.79239e-05
3.71163e-05
3.57067e-05
3.59634e-05
3.73487e-05
3.81332e-05
3.85923e-05
3.88369e-05
3.88367e-05
3.85839e-05
3.81287e-05
3.73454e-05
3.59626e-05
3.59627e-05
3.73459e-05
3.81295e-05
3.85855e-05
3.88371e-05
3.88369e-05
3.8584e-05
3.81287e-05
3.73454e-05
3.59626e-05
3.57067e-05
3.71163e-05
3.7924e-05
3.83824e-05
3.85938e-05
3.85938e-05
3.83822e-05
3.79239e-05
3.71163e-05
3.57067e-05
3.5133e-05
3.66224e-05
3.75185e-05
3.79397e-05
3.8134e-05
3.8134e-05
3.79396e-05
3.75185e-05
3.66224e-05
3.51331e-05
3.41109e-05
3.57195e-05
3.67045e-05
3.71361e-05
3.73493e-05
3.73493e-05
3.71361e-05
3.67045e-05
3.57196e-05
3.41109e-05
3.25745e-05
3.41416e-05
3.51534e-05
3.57114e-05
3.59635e-05
3.59635e-05
3.57114e-05
3.51534e-05
3.41416e-05
3.25745e-05
3.21682e-05
3.36666e-05
3.47348e-05
3.53472e-05
3.56226e-05
3.56234e-05
3.53526e-05
3.47565e-05
3.36979e-05
3.21682e-05
3.36978e-05
3.53588e-05
3.63314e-05
3.68668e-05
3.71155e-05
3.71188e-05
3.68878e-05
3.64149e-05
3.53589e-05
3.36666e-05
3.47564e-05
3.64149e-05
3.72991e-05
3.77432e-05
3.79662e-05
3.79701e-05
3.77593e-05
3.72991e-05
3.63314e-05
3.47349e-05
3.53525e-05
3.68878e-05
3.77593e-05
3.82399e-05
3.84608e-05
3.84678e-05
3.82397e-05
3.7743e-05
3.68668e-05
3.53473e-05
3.56234e-05
3.71187e-05
3.79701e-05
3.84678e-05
3.87312e-05
3.8731e-05
3.84592e-05
3.79652e-05
3.71149e-05
3.56225e-05
3.56226e-05
3.71155e-05
3.79662e-05
3.84609e-05
3.87315e-05
3.87312e-05
3.84592e-05
3.79652e-05
3.71149e-05
3.56225e-05
3.53472e-05
3.68668e-05
3.77432e-05
3.82401e-05
3.84695e-05
3.84695e-05
3.82399e-05
3.77431e-05
3.68668e-05
3.53473e-05
3.47348e-05
3.63314e-05
3.72991e-05
3.77595e-05
3.79711e-05
3.79711e-05
3.77595e-05
3.72992e-05
3.63314e-05
3.47349e-05
3.36666e-05
3.53588e-05
3.64149e-05
3.68879e-05
3.71194e-05
3.71194e-05
3.68879e-05
3.6415e-05
3.53589e-05
3.36666e-05
3.21681e-05
3.36979e-05
3.47565e-05
3.53526e-05
3.56236e-05
3.56236e-05
3.53526e-05
3.47565e-05
3.36979e-05
3.21682e-05
3.19183e-05
3.32621e-05
3.43508e-05
3.49954e-05
3.52882e-05
3.52892e-05
3.50014e-05
3.43737e-05
3.32939e-05
3.19182e-05
3.32937e-05
3.50055e-05
3.60423e-05
3.66181e-05
3.68856e-05
3.68892e-05
3.66403e-05
3.6127e-05
3.50056e-05
3.32621e-05
3.43736e-05
3.6127e-05
3.70797e-05
3.75622e-05
3.78027e-05
3.7807e-05
3.7579e-05
3.70797e-05
3.60424e-05
3.43509e-05
3.50013e-05
3.66403e-05
3.7579e-05
3.80974e-05
3.83359e-05
3.8343e-05
3.80971e-05
3.75621e-05
3.6618e-05
3.49954e-05
3.52891e-05
3.68892e-05
3.7807e-05
3.8343e-05
3.8625e-05
3.86248e-05
3.83341e-05
3.78016e-05
3.68849e-05
3.52881e-05
3.52882e-05
3.68856e-05
3.78027e-05
3.83359e-05
3.86253e-05
3.86251e-05
3.83342e-05
3.78017e-05
3.68849e-05
3.5288e-05
3.49954e-05
3.66181e-05
3.75623e-05
3.80977e-05
3.83448e-05
3.83448e-05
3.80974e-05
3.75621e-05
3.6618e-05
3.49954e-05
3.43508e-05
3.60424e-05
3.70798e-05
3.75792e-05
3.78081e-05
3.78081e-05
3.75792e-05
3.70798e-05
3.60424e-05
3.43509e-05
3.32621e-05
3.50055e-05
3.6127e-05
3.66404e-05
3.68899e-05
3.68899e-05
3.66404e-05
3.61271e-05
3.50056e-05
3.32621e-05
3.19182e-05
3.32938e-05
3.43737e-05
3.50014e-05
3.52894e-05
3.52894e-05
3.50015e-05
3.43737e-05
3.32939e-05
3.19182e-05
3.19061e-05
3.29177e-05
3.39873e-05
3.46542e-05
3.49617e-05
3.49628e-05
3.46608e-05
3.40113e-05
3.29498e-05
3.19058e-05
3.29497e-05
3.46627e-05
3.57559e-05
3.63704e-05
3.66563e-05
3.66603e-05
3.63937e-05
3.58415e-05
3.46628e-05
3.29177e-05
3.40111e-05
3.58415e-05
3.68605e-05
3.73813e-05
3.76392e-05
3.76437e-05
3.73986e-05
3.68605e-05
3.5756e-05
3.39874e-05
3.46607e-05
3.63937e-05
3.73986e-05
3.79547e-05
3.82107e-05
3.82179e-05
3.79544e-05
3.73811e-05
3.63703e-05
3.46542e-05
3.49627e-05
3.66603e-05
3.76437e-05
3.82179e-05
3.85183e-05
3.8518e-05
3.82088e-05
3.7638e-05
3.66555e-05
3.49615e-05
3.49616e-05
3.66563e-05
3.76392e-05
3.82107e-05
3.85186e-05
3.85183e-05
3.82089e-05
3.7638e-05
3.66555e-05
3.49615e-05
3.46542e-05
3.63704e-05
3.73814e-05
3.7955e-05
3.82198e-05
3.82198e-05
3.79547e-05
3.73812e-05
3.63703e-05
3.46542e-05
3.39873e-05
3.5756e-05
3.68606e-05
3.73989e-05
3.7645e-05
3.7645e-05
3.73989e-05
3.68606e-05
3.5756e-05
3.39874e-05
3.29177e-05
3.46628e-05
3.58415e-05
3.63938e-05
3.66612e-05
3.66612e-05
3.63938e-05
3.58416e-05
3.46628e-05
3.29177e-05
3.19058e-05
3.29497e-05
3.40112e-05
3.46609e-05
3.49631e-05
3.49631e-05
3.46609e-05
3.40112e-05
3.29498e-05
3.19058e-05
3.22794e-05
3.26679e-05
3.36551e-05
3.43282e-05
3.46461e-05
3.46474e-05
3.43355e-05
3.36799e-05
3.27002e-05
3.22786e-05
3.27001e-05
3.43361e-05
3.54734e-05
3.61242e-05
3.6428e-05
3.64323e-05
3.61485e-05
3.55597e-05
3.43362e-05
3.26677e-05
3.36798e-05
3.55596e-05
3.66418e-05
3.72004e-05
3.74757e-05
3.74805e-05
3.72182e-05
3.66418e-05
3.54735e-05
3.36551e-05
3.43354e-05
3.61485e-05
3.72183e-05
3.78117e-05
3.80852e-05
3.80925e-05
3.78114e-05
3.72002e-05
3.61241e-05
3.43282e-05
3.46473e-05
3.64323e-05
3.74804e-05
3.80925e-05
3.84111e-05
3.84108e-05
3.80832e-05
3.74743e-05
3.64271e-05
3.46458e-05
3.46461e-05
3.6428e-05
3.74757e-05
3.80853e-05
3.84114e-05
3.84111e-05
3.80833e-05
3.74743e-05
3.64271e-05
3.46458e-05
3.43282e-05
3.61242e-05
3.72005e-05
3.78121e-05
3.80946e-05
3.80945e-05
3.78118e-05
3.72003e-05
3.61241e-05
3.43282e-05
3.3655e-05
3.54734e-05
3.66418e-05
3.72185e-05
3.74819e-05
3.74819e-05
3.72185e-05
3.66418e-05
3.54735e-05
3.36551e-05
3.26678e-05
3.43361e-05
3.55597e-05
3.61487e-05
3.64333e-05
3.64333e-05
3.61487e-05
3.55597e-05
3.43362e-05
3.26677e-05
3.22787e-05
3.27001e-05
3.36799e-05
3.43355e-05
3.46477e-05
3.46477e-05
3.43355e-05
3.36799e-05
3.27002e-05
3.22787e-05
3.31985e-05
3.25657e-05
3.33702e-05
3.40248e-05
3.43463e-05
3.43477e-05
3.40326e-05
3.33959e-05
3.25981e-05
3.31972e-05
3.2598e-05
3.40335e-05
3.51964e-05
3.588e-05
3.62009e-05
3.62055e-05
3.59052e-05
3.52832e-05
3.40336e-05
3.25653e-05
3.33958e-05
3.52831e-05
3.64237e-05
3.70197e-05
3.73121e-05
3.73171e-05
3.70379e-05
3.64237e-05
3.51965e-05
3.33702e-05
3.40325e-05
3.59051e-05
3.70379e-05
3.76686e-05
3.79594e-05
3.79668e-05
3.76683e-05
3.70194e-05
3.58799e-05
3.40247e-05
3.43477e-05
3.62055e-05
3.73171e-05
3.79669e-05
3.83034e-05
3.8303e-05
3.79573e-05
3.73106e-05
3.61999e-05
3.43459e-05
3.43462e-05
3.62009e-05
3.73121e-05
3.79595e-05
3.83037e-05
3.83034e-05
3.79574e-05
3.73106e-05
3.61999e-05
3.43459e-05
3.40247e-05
3.588e-05
3.70197e-05
3.7669e-05
3.7969e-05
3.79689e-05
3.76687e-05
3.70195e-05
3.58799e-05
3.40248e-05
3.33702e-05
3.51965e-05
3.64238e-05
3.70383e-05
3.73187e-05
3.73187e-05
3.70382e-05
3.64237e-05
3.51965e-05
3.33702e-05
3.25654e-05
3.40335e-05
3.52832e-05
3.59054e-05
3.62067e-05
3.62067e-05
3.59054e-05
3.52832e-05
3.40336e-05
3.25654e-05
3.31973e-05
3.2598e-05
3.33959e-05
3.40327e-05
3.43481e-05
3.43481e-05
3.40327e-05
3.33958e-05
3.25981e-05
3.31973e-05
3.49097e-05
3.26837e-05
3.31576e-05
3.3755e-05
3.40695e-05
3.40712e-05
3.37634e-05
3.3184e-05
3.27161e-05
3.49074e-05
3.27161e-05
3.37685e-05
3.49276e-05
3.56386e-05
3.59755e-05
3.59804e-05
3.56646e-05
3.50148e-05
3.37686e-05
3.2683e-05
3.31839e-05
3.50147e-05
3.62068e-05
3.68391e-05
3.71486e-05
3.71539e-05
3.68578e-05
3.62068e-05
3.49276e-05
3.31575e-05
3.37633e-05
3.56646e-05
3.68578e-05
3.75254e-05
3.78334e-05
3.78408e-05
3.7525e-05
3.68388e-05
3.56385e-05
3.37549e-05
3.40711e-05
3.59803e-05
3.71539e-05
3.78409e-05
3.81952e-05
3.81948e-05
3.78312e-05
3.7147e-05
3.59743e-05
3.40691e-05
3.40695e-05
3.59755e-05
3.71487e-05
3.78335e-05
3.81956e-05
3.81952e-05
3.78313e-05
3.7147e-05
3.59743e-05
3.40691e-05
3.3755e-05
3.56387e-05
3.68392e-05
3.75258e-05
3.78432e-05
3.78431e-05
3.75254e-05
3.68389e-05
3.56385e-05
3.3755e-05
3.31575e-05
3.49277e-05
3.62069e-05
3.68581e-05
3.71556e-05
3.71556e-05
3.68581e-05
3.62068e-05
3.49277e-05
3.31576e-05
3.26832e-05
3.37685e-05
3.50148e-05
3.56648e-05
3.59816e-05
3.59816e-05
3.56648e-05
3.50148e-05
3.37686e-05
3.26831e-05
3.49076e-05
3.27159e-05
3.3184e-05
3.37635e-05
3.40716e-05
3.40716e-05
3.37635e-05
3.31839e-05
3.27161e-05
3.49075e-05
3.75571e-05
3.31298e-05
3.30549e-05
3.35356e-05
3.38268e-05
3.38286e-05
3.35445e-05
3.30819e-05
3.31621e-05
3.75542e-05
3.31622e-05
3.35605e-05
3.46711e-05
3.54013e-05
3.57522e-05
3.57574e-05
3.54279e-05
3.47585e-05
3.35605e-05
3.31286e-05
3.30819e-05
3.47584e-05
3.59916e-05
3.66589e-05
3.69852e-05
3.69907e-05
3.66779e-05
3.59916e-05
3.46711e-05
3.30547e-05
3.35445e-05
3.54279e-05
3.66779e-05
3.7382e-05
3.77071e-05
3.77146e-05
3.73816e-05
3.66586e-05
3.5401e-05
3.35354e-05
3.38286e-05
3.57574e-05
3.69907e-05
3.77147e-05
3.80866e-05
3.80862e-05
3.77048e-05
3.69834e-05
3.57509e-05
3.38263e-05
3.38268e-05
3.57522e-05
3.69853e-05
3.77073e-05
3.8087e-05
3.80866e-05
3.77049e-05
3.69834e-05
3.57509e-05
3.38264e-05
3.35355e-05
3.54013e-05
3.6659e-05
3.73825e-05
3.77171e-05
3.7717e-05
3.7382e-05
3.66586e-05
3.54011e-05
3.35355e-05
3.30548e-05
3.46712e-05
3.59917e-05
3.66783e-05
3.69926e-05
3.69925e-05
3.66783e-05
3.59916e-05
3.46712e-05
3.30549e-05
3.31289e-05
3.35606e-05
3.47586e-05
3.54282e-05
3.57588e-05
3.57588e-05
3.54282e-05
3.47586e-05
3.35605e-05
3.31288e-05
3.75542e-05
3.31618e-05
3.30819e-05
3.35446e-05
3.38292e-05
3.38292e-05
3.35445e-05
3.30818e-05
3.3162e-05
3.75544e-05
4.14514e-05
3.403e-05
3.31157e-05
3.33933e-05
3.36366e-05
3.36386e-05
3.34028e-05
3.31432e-05
3.40619e-05
4.14454e-05
3.40624e-05
3.34401e-05
3.44333e-05
3.51698e-05
3.55321e-05
3.55376e-05
3.51971e-05
3.45209e-05
3.34401e-05
3.4028e-05
3.31432e-05
3.45208e-05
3.57789e-05
3.64792e-05
3.6822e-05
3.68276e-05
3.64985e-05
3.57789e-05
3.44333e-05
3.31153e-05
3.34028e-05
3.5197e-05
3.64985e-05
3.72385e-05
3.75806e-05
3.75881e-05
3.72381e-05
3.64788e-05
3.51695e-05
3.33932e-05
3.36386e-05
3.55375e-05
3.68276e-05
3.75883e-05
3.79776e-05
3.79771e-05
3.75782e-05
3.682e-05
3.55307e-05
3.36361e-05
3.36366e-05
3.55321e-05
3.6822e-05
3.75808e-05
3.7978e-05
3.79776e-05
3.75784e-05
3.68201e-05
3.55307e-05
3.36361e-05
3.33933e-05
3.51698e-05
3.64793e-05
3.7239e-05
3.75907e-05
3.75906e-05
3.72386e-05
3.64789e-05
3.51695e-05
3.33933e-05
3.31154e-05
3.44333e-05
3.57791e-05
3.6499e-05
3.68297e-05
3.68296e-05
3.64989e-05
3.5779e-05
3.44333e-05
3.31157e-05
3.40285e-05
3.34401e-05
3.45209e-05
3.51974e-05
3.55391e-05
3.55391e-05
3.51974e-05
3.45209e-05
3.34401e-05
3.40283e-05
4.14455e-05
3.40615e-05
3.31432e-05
3.34029e-05
3.36392e-05
3.36392e-05
3.34028e-05
3.31429e-05
3.40617e-05
4.14456e-05
4.65907e-05
3.55619e-05
3.34227e-05
3.3365e-05
3.35238e-05
3.35259e-05
3.33749e-05
3.34505e-05
3.5593e-05
4.65826e-05
3.55944e-05
3.34495e-05
3.42239e-05
3.49472e-05
3.53168e-05
3.53225e-05
3.49751e-05
3.43116e-05
3.34495e-05
3.55586e-05
3.34507e-05
3.43114e-05
3.55701e-05
3.63002e-05
3.6659e-05
3.66648e-05
3.63198e-05
3.55702e-05
3.42239e-05
3.34221e-05
3.3375e-05
3.49749e-05
3.63198e-05
3.7095e-05
3.74539e-05
3.74615e-05
3.70945e-05
3.62998e-05
3.49469e-05
3.33648e-05
3.35259e-05
3.53224e-05
3.66648e-05
3.74616e-05
3.78682e-05
3.78677e-05
3.74514e-05
3.66569e-05
3.53152e-05
3.35232e-05
3.35238e-05
3.53167e-05
3.6659e-05
3.74541e-05
3.78687e-05
3.78682e-05
3.74516e-05
3.66569e-05
3.53152e-05
3.35232e-05
3.3365e-05
3.49472e-05
3.63003e-05
3.70956e-05
3.74642e-05
3.74641e-05
3.7095e-05
3.62999e-05
3.4947e-05
3.3365e-05
3.34224e-05
3.42239e-05
3.55703e-05
3.63204e-05
3.6667e-05
3.66669e-05
3.63203e-05
3.55703e-05
3.4224e-05
3.34226e-05
3.55595e-05
3.34494e-05
3.43116e-05
3.49754e-05
3.53241e-05
3.53241e-05
3.49754e-05
3.43117e-05
3.34495e-05
3.55591e-05
4.65832e-05
3.55928e-05
3.34505e-05
3.33751e-05
3.35266e-05
3.35266e-05
3.33749e-05
3.34501e-05
3.55928e-05
4.65827e-05
5.26683e-05
3.78872e-05
3.40658e-05
3.3505e-05
3.35262e-05
3.35285e-05
3.35154e-05
3.40936e-05
3.79178e-05
5.26592e-05
3.792e-05
3.36543e-05
3.40588e-05
3.47383e-05
3.51085e-05
3.51145e-05
3.47668e-05
3.41466e-05
3.3654e-05
3.78827e-05
3.40942e-05
3.41464e-05
3.53673e-05
3.61224e-05
3.64963e-05
3.65023e-05
3.61423e-05
3.53674e-05
3.40588e-05
3.40648e-05
3.35157e-05
3.47666e-05
3.61422e-05
3.69515e-05
3.73271e-05
3.73346e-05
3.6951e-05
3.6122e-05
3.4738e-05
3.35048e-05
3.35286e-05
3.51143e-05
3.65022e-05
3.73348e-05
3.77584e-05
3.77579e-05
3.73245e-05
3.64941e-05
3.51068e-05
3.35255e-05
3.35263e-05
3.51084e-05
3.64963e-05
3.73273e-05
3.77589e-05
3.77584e-05
3.73246e-05
3.64941e-05
3.51068e-05
3.35256e-05
3.35051e-05
3.47382e-05
3.61225e-05
3.69521e-05
3.73374e-05
3.73373e-05
3.69515e-05
3.61221e-05
3.4738e-05
3.35051e-05
3.40653e-05
3.40587e-05
3.53675e-05
3.61428e-05
3.65046e-05
3.65046e-05
3.61428e-05
3.53675e-05
3.40588e-05
3.40655e-05
3.78844e-05
3.3654e-05
3.41465e-05
3.47671e-05
3.51162e-05
3.51162e-05
3.47671e-05
3.41466e-05
3.3654e-05
3.78836e-05
5.2661e-05
3.79181e-05
3.40938e-05
3.35157e-05
3.35293e-05
3.35292e-05
3.35154e-05
3.40932e-05
3.79177e-05
5.26598e-05
5.9421e-05
4.09886e-05
3.51681e-05
3.38866e-05
3.37006e-05
3.37031e-05
3.38974e-05
3.5196e-05
4.102e-05
5.94128e-05
4.10225e-05
3.41116e-05
3.39577e-05
3.45505e-05
3.49114e-05
3.49176e-05
3.45794e-05
3.40456e-05
3.41109e-05
4.09835e-05
3.5197e-05
3.40454e-05
3.51735e-05
3.59463e-05
3.63342e-05
3.63403e-05
3.59664e-05
3.51735e-05
3.39576e-05
3.51668e-05
3.38979e-05
3.45792e-05
3.59664e-05
3.6808e-05
3.72e-05
3.72076e-05
3.68075e-05
3.59458e-05
3.45501e-05
3.38864e-05
3.37034e-05
3.49173e-05
3.63403e-05
3.72077e-05
3.76482e-05
3.76477e-05
3.71973e-05
3.63318e-05
3.49095e-05
3.37e-05
3.37009e-05
3.49112e-05
3.63342e-05
3.72002e-05
3.76488e-05
3.76483e-05
3.71975e-05
3.63319e-05
3.49095e-05
3.37001e-05
3.38868e-05
3.45503e-05
3.59464e-05
3.68087e-05
3.72105e-05
3.72104e-05
3.68081e-05
3.59459e-05
3.45501e-05
3.3887e-05
3.51676e-05
3.39576e-05
3.51736e-05
3.5967e-05
3.63428e-05
3.63427e-05
3.59669e-05
3.51736e-05
3.39576e-05
3.51681e-05
4.09855e-05
3.41109e-05
3.40455e-05
3.45797e-05
3.49194e-05
3.49194e-05
3.45797e-05
3.40455e-05
3.4111e-05
4.09851e-05
5.94146e-05
4.10205e-05
3.51964e-05
3.38979e-05
3.37041e-05
3.3704e-05
3.38974e-05
3.51956e-05
4.10202e-05
5.94142e-05
6.6623e-05
4.53321e-05
3.68715e-05
3.45989e-05
3.41078e-05
3.41105e-05
3.46102e-05
3.68996e-05
4.5364e-05
6.66172e-05
4.53659e-05
3.4943e-05
3.39535e-05
3.43952e-05
3.47319e-05
3.47382e-05
3.44245e-05
3.40413e-05
3.49421e-05
4.53272e-05
3.69005e-05
3.40413e-05
3.49934e-05
3.57729e-05
3.6173e-05
3.61792e-05
3.57932e-05
3.49934e-05
3.39532e-05
3.68703e-05
3.46109e-05
3.44243e-05
3.57931e-05
3.66648e-05
3.70728e-05
3.70804e-05
3.66642e-05
3.57723e-05
3.43946e-05
3.45988e-05
3.41109e-05
3.4738e-05
3.61792e-05
3.70806e-05
3.75377e-05
3.75372e-05
3.70701e-05
3.61704e-05
3.47297e-05
3.41074e-05
3.41082e-05
3.47317e-05
3.6173e-05
3.70731e-05
3.75383e-05
3.75378e-05
3.70702e-05
3.61705e-05
3.47297e-05
3.41076e-05
3.45991e-05
3.4395e-05
3.5773e-05
3.66655e-05
3.70835e-05
3.70833e-05
3.66649e-05
3.57724e-05
3.43946e-05
3.45997e-05
3.68707e-05
3.39533e-05
3.49936e-05
3.57938e-05
3.61818e-05
3.61818e-05
3.57937e-05
3.49935e-05
3.39533e-05
3.68719e-05
4.53282e-05
3.49422e-05
3.40413e-05
3.44248e-05
3.47402e-05
3.47401e-05
3.44248e-05
3.40412e-05
3.49422e-05
4.5329e-05
6.66172e-05
4.53636e-05
3.68999e-05
3.46108e-05
3.41117e-05
3.41115e-05
3.46101e-05
3.68989e-05
4.53639e-05
6.66182e-05
7.40682e-05
5.06315e-05
3.92477e-05
3.57516e-05
3.48466e-05
3.48494e-05
3.57634e-05
3.92758e-05
5.06621e-05
7.40647e-05
5.06635e-05
3.62555e-05
3.40852e-05
3.42879e-05
3.45793e-05
3.45859e-05
3.43177e-05
3.41731e-05
3.62544e-05
5.06269e-05
3.92765e-05
3.41731e-05
3.4834e-05
3.56036e-05
3.60132e-05
3.60195e-05
3.5624e-05
3.4834e-05
3.40847e-05
3.92466e-05
3.57641e-05
3.43175e-05
3.5624e-05
3.65219e-05
3.69456e-05
3.69531e-05
3.65213e-05
3.5603e-05
3.42872e-05
3.57517e-05
3.48499e-05
3.45857e-05
3.60195e-05
3.69533e-05
3.74269e-05