/*--------------------------------*- C++ -*----------------------------------*\
| =========                 |                                                 |
| \\      /  F ield         | OpenFOAM: The Open Source CFD Toolbox           |
|  \\    /   O peration     | Version:  2406                                  |
|   \\  /    A nd           | Website:  www.openfoam.com                      |
|    \\/     M anipulation  |                                                 |
\*---------------------------------------------------------------------------*/
FoamFile
{
    version     2.0;
    format      ascii;
    arch        "LSB;label=32;scalar=64";
    class       volScalarField;
    location    "400";
    object      p;
}
// * * * * * * * * * * * * * * * * * * * * * * * * * * * * * * * * * * * * * //

dimensions      [0 2 -2 0 0 0 0];

internalField   nonuniform List<scalar> 
25000
(
-1.13423e-05
-0.000941812
-0.00164397
-0.00211361
-0.00235143
-0.00235774
-0.00213328
-0.00167885
-0.000996066
-9.15922e-05
-0.000947117
-0.00199052
-0.00277898
-0.00330733
-0.00357354
-0.00357895
-0.00332371
-0.00280687
-0.00203044
-0.000998588
-0.0016495
-0.00278121
-0.00362865
-0.00419494
-0.00447959
-0.00448394
-0.00420793
-0.00365005
-0.00281036
-0.00168496
-0.0021178
-0.0033099
-0.00419594
-0.00478477
-0.00507981
-0.00508323
-0.00479488
-0.00421221
-0.00333157
-0.00214397
-0.00235431
-0.00357568
-0.00448066
-0.00508015
-0.00537977
-0.00538245
-0.00508797
-0.00449317
-0.00359215
-0.00237409
-0.00235927
-0.00358024
-0.0044847
-0.00508347
-0.00538246
-0.00538454
-0.00508962
-0.00449445
-0.00359313
-0.00237487
-0.00213377
-0.00332421
-0.00420815
-0.00479486
-0.00508782
-0.00508952
-0.00479973
-0.00421597
-0.00333453
-0.00214631
-0.00167837
-0.00280659
-0.00364972
-0.00421177
-0.00449276
-0.00449413
-0.0042158
-0.00365616
-0.00281515
-0.0016888
-0.000994868
-0.0020294
-0.00280939
-0.00333063
-0.00359135
-0.00359252
-0.00333415
-0.00281497
-0.00203683
-0.00100377
-8.96954e-05
-0.000996733
-0.0016832
-0.00214238
-0.00237275
-0.00237386
-0.00214563
-0.00168842
-0.00100364
-9.77998e-05
-0.017795
-0.0176555
-0.0175398
-0.0174591
-0.0174198
-0.0174222
-0.0174663
-0.0175514
-0.0176715
-0.0178137
-0.0176573
-0.0174781
-0.0173964
-0.017348
-0.0173264
-0.0173285
-0.0173541
-0.0174062
-0.0174912
-0.017673
-0.0175425
-0.0173977
-0.017333
-0.0173017
-0.0172897
-0.0172914
-0.0173067
-0.0173411
-0.0174083
-0.0175551
-0.0174618
-0.0173498
-0.0173025
-0.0172852
-0.0172809
-0.0172823
-0.0172894
-0.0173091
-0.0173586
-0.0174726
-0.0174223
-0.0173284
-0.0172909
-0.0172814
-0.0172815
-0.0172827
-0.0172849
-0.0172964
-0.0173357
-0.0174314
-0.0174241
-0.0173303
-0.0172928
-0.0172831
-0.017283
-0.017284
-0.017286
-0.0172973
-0.0173365
-0.0174321
-0.0174678
-0.0173556
-0.017308
-0.0172903
-0.0172854
-0.0172862
-0.0172927
-0.0173119
-0.0173609
-0.0174746
-0.0175524
-0.0174074
-0.0173421
-0.0173099
-0.0172969
-0.0172976
-0.017312
-0.0173456
-0.0174121
-0.0175585
-0.0176722
-0.017492
-0.017409
-0.0173591
-0.0173361
-0.0173367
-0.0173611
-0.0174121
-0.0174962
-0.0176775
-0.0178141
-0.0176733
-0.0175553
-0.0174726
-0.0174313
-0.017432
-0.0174746
-0.0175584
-0.0176775
-0.0178191
-0.0368578
-0.0365712
-0.0363378
-0.0361829
-0.036103
-0.0361047
-0.0361881
-0.0363463
-0.0365827
-0.0368713
-0.0365717
-0.0362363
-0.0359784
-0.0357978
-0.0357077
-0.0357092
-0.0358023
-0.0359858
-0.0362463
-0.0365839
-0.0363384
-0.0359786
-0.0357019
-0.0355041
-0.0354038
-0.0354052
-0.0355081
-0.0357084
-0.0359874
-0.0363492
-0.0361832
-0.035798
-0.0355042
-0.0352986
-0.035194
-0.0351952
-0.0353022
-0.03551
-0.0358058
-0.036193
-0.0361029
-0.0357076
-0.0354037
-0.0351939
-0.0350872
-0.0350883
-0.0351972
-0.035409
-0.0357147
-0.0361117
-0.0361042
-0.0357088
-0.0354048
-0.0351949
-0.0350881
-0.0350891
-0.0351979
-0.0354097
-0.0357153
-0.0361123
-0.0361871
-0.0358015
-0.0355075
-0.0353017
-0.0351968
-0.0351978
-0.0353045
-0.035512
-0.0358076
-0.0361946
-0.0363448
-0.0359846
-0.0357074
-0.0355092
-0.0354085
-0.0354093
-0.0355118
-0.0357116
-0.0359903
-0.0363518
-0.0365807
-0.0362447
-0.0359861
-0.0358048
-0.035714
-0.0357148
-0.0358073
-0.0359902
-0.0362502
-0.0365873
-0.0368689
-0.0365819
-0.0363476
-0.0361916
-0.0361107
-0.0361115
-0.0361941
-0.0363515
-0.0365873
-0.0368754
-0.048238
-0.0480884
-0.0479698
-0.0479005
-0.0478635
-0.0478653
-0.0479059
-0.047979
-0.0481015
-0.0482539
-0.0480898
-0.0479281
-0.0477881
-0.0476955
-0.0476509
-0.0476525
-0.0477004
-0.0477963
-0.0479394
-0.0481035
-0.0479717
-0.0477889
-0.0476432
-0.0475406
-0.0474907
-0.0474922
-0.047545
-0.0476504
-0.0477986
-0.0479833
-0.0479027
-0.0476967
-0.0475411
-0.0474331
-0.0473802
-0.0473815
-0.0474371
-0.0475474
-0.0477051
-0.0479129
-0.0478658
-0.0476523
-0.0474914
-0.0473805
-0.0473253
-0.0473265
-0.0473839
-0.047497
-0.0476597
-0.0478749
-0.0478674
-0.0476539
-0.047493
-0.0473819
-0.0473267
-0.0473277
-0.047385
-0.0474979
-0.0476606
-0.0478756
-0.0479078
-0.0477017
-0.0475458
-0.0474375
-0.0473841
-0.0473851
-0.0474402
-0.0475502
-0.0477076
-0.0479152
-0.0479804
-0.0477974
-0.0476511
-0.0475478
-0.0474972
-0.047498
-0.0475502
-0.047655
-0.0478027
-0.0479871
-0.0481027
-0.0479402
-0.0477991
-0.0477053
-0.0476598
-0.0476605
-0.0477075
-0.0478026
-0.0479451
-0.0481087
-0.0482548
-0.048104
-0.0479836
-0.0479129
-0.0478747
-0.0478754
-0.0479149
-0.0479869
-0.0481085
-0.0482603
-0.0543251
-0.0542421
-0.0541755
-0.0541413
-0.0541215
-0.0541224
-0.0541437
-0.0541794
-0.0542479
-0.0543324
-0.0542436
-0.0541427
-0.0540499
-0.0539946
-0.0539674
-0.0539683
-0.0539971
-0.0540538
-0.054148
-0.05425
-0.054178
-0.054051
-0.0539506
-0.0538863
-0.0538562
-0.0538571
-0.0538888
-0.0539545
-0.054056
-0.0541839
-0.0541448
-0.0539967
-0.0538872
-0.0538162
-0.0537832
-0.053784
-0.0538186
-0.053891
-0.0540016
-0.0541507
-0.0541256
-0.0539701
-0.0538578
-0.0537838
-0.0537489
-0.0537497
-0.0537861
-0.0538613
-0.0539749
-0.0541314
-0.0541266
-0.0539712
-0.0538589
-0.053785
-0.0537501
-0.0537508
-0.0537871
-0.0538623
-0.0539757
-0.0541322
-0.0541477
-0.0539998
-0.0538906
-0.0538197
-0.0537866
-0.0537873
-0.0538217
-0.0538938
-0.0540041
-0.0541529
-0.0541828
-0.0540563
-0.0539562
-0.0538921
-0.0538619
-0.0538625
-0.0538939
-0.0539591
-0.0540602
-0.0541877
-0.0542507
-0.0541501
-0.0540575
-0.0540024
-0.0539753
-0.0539759
-0.0540042
-0.0540602
-0.0541538
-0.0542552
-0.0543348
-0.0542516
-0.0541849
-0.0541512
-0.0541315
-0.0541321
-0.0541528
-0.0541876
-0.0542553
-0.0543391
-0.0584912
-0.0584749
-0.0584568
-0.0584527
-0.0584481
-0.058448
-0.058452
-0.0584553
-0.0584723
-0.0584882
-0.0584758
-0.0584449
-0.0584076
-0.0583889
-0.058378
-0.0583779
-0.0583885
-0.0584066
-0.0584432
-0.0584737
-0.0584591
-0.0584087
-0.0583636
-0.058337
-0.0583237
-0.0583236
-0.0583367
-0.0583631
-0.058408
-0.0584583
-0.0584562
-0.0583912
-0.058338
-0.0583037
-0.0582873
-0.0582874
-0.0583037
-0.058338
-0.0583913
-0.0584566
-0.0584524
-0.0583809
-0.0583254
-0.0582881
-0.0582703
-0.0582704
-0.0582884
-0.0583259
-0.0583817
-0.0584535
-0.0584525
-0.058381
-0.0583257
-0.0582885
-0.0582708
-0.058271
-0.058289
-0.0583266
-0.0583823
-0.058454
-0.0584564
-0.0583916
-0.0583388
-0.058305
-0.058289
-0.0582893
-0.0583058
-0.05834
-0.0583931
-0.0584582
-0.0584592
-0.0584094
-0.0583651
-0.0583393
-0.0583266
-0.0583269
-0.0583401
-0.0583664
-0.0584111
-0.0584611
-0.0584756
-0.0584457
-0.0584097
-0.0583923
-0.0583822
-0.0583826
-0.0583933
-0.0584112
-0.0584476
-0.0584778
-0.0584909
-0.0584757
-0.0584596
-0.0584572
-0.0584538
-0.0584542
-0.0584583
-0.0584613
-0.0584779
-0.0584933
-0.0626169
-0.0626359
-0.0626444
-0.0626562
-0.0626606
-0.0626607
-0.0626564
-0.0626443
-0.0626349
-0.0626154
-0.0626364
-0.0626541
-0.0626597
-0.0626686
-0.0626711
-0.0626711
-0.0626687
-0.0626597
-0.0626538
-0.0626359
-0.0626462
-0.0626607
-0.0626661
-0.0626736
-0.0626765
-0.0626764
-0.0626735
-0.0626659
-0.0626607
-0.0626465
-0.0626589
-0.0626704
-0.0626744
-0.0626787
-0.0626806
-0.0626806
-0.0626786
-0.0626743
-0.0626706
-0.0626596
-0.0626639
-0.0626734
-0.0626778
-0.0626812
-0.0626831
-0.0626831
-0.0626812
-0.0626779
-0.0626737
-0.0626646
-0.0626644
-0.0626737
-0.0626781
-0.0626815
-0.0626835
-0.0626836
-0.0626817
-0.0626784
-0.0626742
-0.062665
-0.0626603
-0.0626715
-0.0626753
-0.0626797
-0.0626818
-0.0626819
-0.06268
-0.0626757
-0.062672
-0.0626609
-0.0626482
-0.0626625
-0.0626679
-0.0626755
-0.0626786
-0.0626788
-0.0626759
-0.0626683
-0.062663
-0.0626487
-0.0626386
-0.0626565
-0.0626626
-0.0626718
-0.0626744
-0.0626745
-0.0626722
-0.0626631
-0.062657
-0.0626391
-0.0626189
-0.0626386
-0.0626483
-0.0626607
-0.0626652
-0.0626654
-0.062661
-0.0626487
-0.0626391
-0.0626193
-0.0673397
-0.0673563
-0.0673646
-0.0673749
-0.0673792
-0.0673801
-0.0673777
-0.0673693
-0.067362
-0.0673459
-0.0673569
-0.0673776
-0.0673905
-0.0674027
-0.0674073
-0.067408
-0.067405
-0.0673942
-0.0673826
-0.0673627
-0.0673662
-0.0673912
-0.0674065
-0.0674204
-0.0674264
-0.0674269
-0.067422
-0.0674092
-0.0673951
-0.0673711
-0.0673767
-0.0674038
-0.0674208
-0.0674342
-0.0674404
-0.0674408
-0.0674354
-0.0674228
-0.0674067
-0.0673806
-0.0673812
-0.0674085
-0.0674269
-0.0674405
-0.0674474
-0.0674477
-0.0674416
-0.0674286
-0.0674107
-0.067384
-0.0673821
-0.0674092
-0.0674274
-0.067441
-0.0674477
-0.067448
-0.0674419
-0.0674288
-0.067411
-0.0673842
-0.0673796
-0.067406
-0.0674225
-0.0674355
-0.0674415
-0.0674418
-0.0674363
-0.0674237
-0.0674075
-0.0673813
-0.0673709
-0.0673951
-0.0674096
-0.0674229
-0.0674284
-0.0674287
-0.0674236
-0.0674107
-0.0673964
-0.0673722
-0.0673632
-0.0673833
-0.0673953
-0.0674066
-0.0674105
-0.0674107
-0.0674073
-0.0673963
-0.0673844
-0.0673643
-0.0673468
-0.0673632
-0.0673711
-0.0673803
-0.0673836
-0.0673838
-0.0673809
-0.067372
-0.0673642
-0.0673478
-0.0725593
-0.0725662
-0.0725694
-0.0725748
-0.0725769
-0.072578
-0.0725785
-0.0725758
-0.0725746
-0.072569
-0.0725663
-0.0725775
-0.0725852
-0.0725926
-0.0725952
-0.0725963
-0.0725958
-0.0725907
-0.0725851
-0.0725754
-0.0725696
-0.0725852
-0.0725944
-0.0726033
-0.0726068
-0.0726077
-0.072606
-0.072599
-0.0725917
-0.0725777
-0.0725747
-0.0725924
-0.0726031
-0.0726119
-0.0726158
-0.0726167
-0.0726144
-0.0726071
-0.0725979
-0.0725817
-0.0725767
-0.0725948
-0.0726064
-0.0726156
-0.07262
-0.0726208
-0.0726179
-0.07261
-0.0725996
-0.0725825
-0.0725778
-0.0725957
-0.0726072
-0.0726163
-0.0726206
-0.0726213
-0.0726183
-0.0726104
-0.0726
-0.0725829
-0.0725781
-0.0725952
-0.0726054
-0.0726139
-0.0726175
-0.0726182
-0.0726158
-0.0726083
-0.0725991
-0.0725828
-0.0725753
-0.0725901
-0.0725984
-0.0726065
-0.0726096
-0.0726102
-0.0726082
-0.0726011
-0.0725937
-0.0725796
-0.072574
-0.0725844
-0.0725911
-0.0725974
-0.0725992
-0.0725997
-0.072599
-0.0725936
-0.0725878
-0.0725781
-0.0725683
-0.0725747
-0.072577
-0.0725811
-0.0725821
-0.0725826
-0.0725826
-0.0725795
-0.072578
-0.0725722
-0.0780364
-0.0780363
-0.0780356
-0.0780368
-0.0780364
-0.0780369
-0.0780385
-0.0780388
-0.0780411
-0.078042
-0.0780362
-0.0780397
-0.078042
-0.0780445
-0.0780447
-0.0780451
-0.0780459
-0.0780447
-0.0780439
-0.0780413
-0.078035
-0.0780416
-0.0780444
-0.078048
-0.0780488
-0.0780493
-0.0780494
-0.0780468
-0.0780451
-0.0780396
-0.0780358
-0.0780436
-0.0780475
-0.0780514
-0.0780527
-0.0780532
-0.0780529
-0.0780499
-0.0780468
-0.0780398
-0.0780352
-0.0780435
-0.078048
-0.0780522
-0.0780539
-0.0780544
-0.0780537
-0.0780503
-0.0780465
-0.0780388
-0.0780354
-0.0780438
-0.0780482
-0.0780524
-0.0780541
-0.0780546
-0.0780538
-0.0780504
-0.0780467
-0.0780389
-0.0780367
-0.0780443
-0.0780481
-0.0780519
-0.0780531
-0.0780536
-0.0780533
-0.0780502
-0.0780472
-0.0780402
-0.0780366
-0.0780428
-0.0780452
-0.0780487
-0.0780495
-0.07805
-0.07805
-0.0780474
-0.0780457
-0.0780401
-0.0780385
-0.0780417
-0.0780434
-0.0780454
-0.0780455
-0.078046
-0.0780468
-0.0780456
-0.0780446
-0.078042
-0.078039
-0.0780388
-0.0780375
-0.0780382
-0.0780376
-0.0780381
-0.0780396
-0.0780398
-0.0780419
-0.0780427
-0.0835902
-0.0835872
-0.0835846
-0.0835835
-0.0835819
-0.0835818
-0.0835835
-0.0835851
-0.0835884
-0.083592
-0.0835869
-0.0835863
-0.0835851
-0.0835846
-0.0835834
-0.0835834
-0.0835847
-0.0835855
-0.0835873
-0.0835885
-0.083584
-0.0835848
-0.0835834
-0.0835837
-0.083583
-0.0835831
-0.083584
-0.0835839
-0.0835856
-0.0835854
-0.0835828
-0.0835841
-0.0835835
-0.0835841
-0.0835837
-0.0835839
-0.0835846
-0.0835842
-0.083585
-0.0835841
-0.0835814
-0.0835829
-0.0835827
-0.0835836
-0.0835834
-0.0835836
-0.0835841
-0.0835834
-0.0835839
-0.0835826
-0.0835815
-0.0835831
-0.0835829
-0.0835838
-0.0835836
-0.0835837
-0.0835842
-0.0835836
-0.0835841
-0.0835827
-0.0835833
-0.0835845
-0.0835839
-0.0835846
-0.0835841
-0.0835842
-0.0835849
-0.0835846
-0.0835854
-0.0835845
-0.083585
-0.0835855
-0.083584
-0.0835843
-0.0835836
-0.0835837
-0.0835846
-0.0835845
-0.0835863
-0.0835861
-0.0835885
-0.0835874
-0.0835858
-0.0835852
-0.0835841
-0.0835842
-0.0835855
-0.0835863
-0.0835881
-0.0835894
-0.0835922
-0.0835887
-0.0835856
-0.0835843
-0.0835828
-0.0835829
-0.0835845
-0.0835861
-0.0835893
-0.083593
-0.0891576
-0.0891528
-0.089149
-0.0891464
-0.0891443
-0.0891442
-0.089146
-0.0891486
-0.0891527
-0.0891579
-0.0891527
-0.089149
-0.0891453
-0.0891427
-0.0891407
-0.0891406
-0.0891423
-0.0891446
-0.0891485
-0.0891525
-0.0891487
-0.089145
-0.0891406
-0.0891385
-0.0891367
-0.0891366
-0.0891383
-0.0891402
-0.0891445
-0.0891483
-0.0891461
-0.0891424
-0.0891383
-0.0891364
-0.0891348
-0.0891348
-0.0891363
-0.0891382
-0.0891421
-0.0891458
-0.089144
-0.0891403
-0.0891364
-0.0891347
-0.0891332
-0.0891332
-0.0891346
-0.0891364
-0.0891404
-0.089144
-0.0891436
-0.0891401
-0.0891362
-0.0891346
-0.0891331
-0.0891331
-0.0891346
-0.0891363
-0.0891403
-0.089144
-0.0891452
-0.0891416
-0.0891378
-0.089136
-0.0891345
-0.0891345
-0.0891361
-0.089138
-0.089142
-0.0891457
-0.0891475
-0.0891438
-0.0891396
-0.0891378
-0.0891361
-0.0891361
-0.0891379
-0.0891398
-0.0891442
-0.0891481
-0.0891514
-0.0891475
-0.0891438
-0.0891416
-0.0891399
-0.08914
-0.0891417
-0.0891441
-0.089148
-0.0891521
-0.0891564
-0.0891513
-0.0891474
-0.0891451
-0.0891434
-0.0891435
-0.0891453
-0.0891479
-0.089152
-0.0891572
-0.0946847
-0.0946804
-0.094677
-0.0946745
-0.094673
-0.0946732
-0.094675
-0.0946776
-0.0946815
-0.0946866
-0.0946799
-0.0946757
-0.0946717
-0.094669
-0.0946674
-0.0946676
-0.0946695
-0.0946724
-0.0946768
-0.0946816
-0.0946761
-0.0946712
-0.0946663
-0.0946638
-0.0946621
-0.0946623
-0.0946644
-0.0946673
-0.0946725
-0.0946779
-0.0946735
-0.0946683
-0.0946635
-0.094661
-0.0946594
-0.0946596
-0.0946617
-0.0946647
-0.09467
-0.0946756
-0.0946719
-0.0946666
-0.0946616
-0.0946592
-0.0946575
-0.0946578
-0.0946599
-0.0946629
-0.0946685
-0.0946744
-0.0946718
-0.0946666
-0.0946617
-0.0946593
-0.0946576
-0.0946579
-0.09466
-0.0946631
-0.0946686
-0.0946746
-0.0946734
-0.0946684
-0.0946637
-0.0946613
-0.0946597
-0.09466
-0.0946621
-0.0946651
-0.0946705
-0.0946762
-0.094676
-0.0946712
-0.0946665
-0.0946643
-0.0946627
-0.0946629
-0.0946651
-0.0946679
-0.0946733
-0.0946788
-0.09468
-0.0946756
-0.0946718
-0.0946695
-0.0946682
-0.0946684
-0.0946704
-0.0946733
-0.0946778
-0.0946827
-0.0946852
-0.0946805
-0.0946772
-0.0946751
-0.094674
-0.0946743
-0.0946761
-0.0946787
-0.0946827
-0.0946879
-0.100167
-0.100162
-0.100159
-0.100157
-0.100156
-0.100156
-0.100158
-0.100161
-0.100165
-0.10017
-0.100162
-0.100158
-0.100153
-0.100151
-0.100149
-0.10015
-0.100152
-0.100155
-0.10016
-0.100165
-0.100159
-0.100153
-0.100148
-0.100145
-0.100144
-0.100144
-0.100146
-0.10015
-0.100155
-0.100161
-0.100156
-0.10015
-0.100145
-0.100142
-0.100141
-0.100141
-0.100143
-0.100147
-0.100152
-0.100159
-0.100155
-0.100149
-0.100143
-0.10014
-0.100139
-0.100139
-0.100141
-0.100145
-0.100151
-0.100158
-0.100155
-0.100149
-0.100143
-0.10014
-0.100139
-0.100139
-0.100141
-0.100145
-0.100151
-0.100158
-0.100156
-0.10015
-0.100145
-0.100142
-0.100141
-0.100141
-0.100143
-0.100147
-0.100153
-0.100159
-0.100159
-0.100153
-0.100148
-0.100146
-0.100144
-0.100144
-0.100146
-0.10015
-0.100155
-0.100161
-0.100162
-0.100158
-0.100153
-0.100151
-0.10015
-0.10015
-0.100152
-0.100155
-0.10016
-0.100165
-0.100167
-0.100163
-0.100159
-0.100157
-0.100156
-0.100157
-0.100158
-0.100161
-0.100165
-0.10017
-0.105589
-0.105585
-0.105582
-0.105581
-0.10558
-0.105581
-0.105583
-0.105586
-0.105589
-0.105593
-0.105585
-0.10558
-0.105577
-0.105575
-0.105575
-0.105575
-0.105577
-0.10558
-0.105584
-0.105589
-0.105582
-0.105577
-0.105573
-0.105571
-0.10557
-0.10557
-0.105572
-0.105575
-0.105581
-0.105586
-0.10558
-0.105575
-0.10557
-0.105568
-0.105567
-0.105567
-0.10557
-0.105573
-0.105578
-0.105584
-0.10558
-0.105574
-0.105569
-0.105567
-0.105565
-0.105566
-0.105568
-0.105571
-0.105577
-0.105583
-0.10558
-0.105575
-0.10557
-0.105567
-0.105565
-0.105566
-0.105568
-0.105571
-0.105577
-0.105583
-0.105582
-0.105576
-0.105572
-0.105569
-0.105568
-0.105568
-0.10557
-0.105573
-0.105579
-0.105585
-0.105585
-0.105579
-0.105575
-0.105572
-0.105571
-0.105571
-0.105573
-0.105576
-0.105581
-0.105587
-0.105588
-0.105583
-0.10558
-0.105577
-0.105576
-0.105577
-0.105578
-0.105581
-0.105585
-0.10559
-0.105592
-0.105588
-0.105585
-0.105583
-0.105583
-0.105583
-0.105584
-0.105586
-0.10559
-0.105594
-0.110971
-0.110967
-0.110964
-0.110962
-0.110962
-0.110963
-0.110964
-0.110967
-0.11097
-0.110974
-0.110967
-0.110962
-0.110959
-0.110957
-0.110956
-0.110957
-0.110958
-0.110961
-0.110965
-0.11097
-0.110964
-0.110959
-0.110954
-0.110952
-0.110951
-0.110951
-0.110953
-0.110956
-0.110961
-0.110967
-0.110962
-0.110957
-0.110952
-0.11095
-0.110948
-0.110948
-0.11095
-0.110954
-0.110959
-0.110964
-0.110962
-0.110956
-0.110951
-0.110948
-0.110946
-0.110947
-0.110949
-0.110952
-0.110957
-0.110964
-0.110962
-0.110956
-0.110951
-0.110948
-0.110946
-0.110947
-0.110949
-0.110952
-0.110957
-0.110964
-0.110963
-0.110958
-0.110953
-0.11095
-0.110948
-0.110948
-0.11095
-0.110954
-0.110959
-0.110964
-0.110966
-0.11096
-0.110955
-0.110953
-0.110951
-0.110952
-0.110953
-0.110956
-0.110961
-0.110966
-0.110969
-0.110964
-0.11096
-0.110958
-0.110957
-0.110957
-0.110958
-0.110961
-0.110965
-0.110969
-0.110973
-0.110969
-0.110966
-0.110964
-0.110963
-0.110963
-0.110964
-0.110966
-0.110969
-0.110973
-0.116302
-0.116298
-0.116295
-0.116294
-0.116294
-0.116295
-0.116296
-0.116299
-0.116301
-0.116305
-0.116298
-0.116294
-0.116291
-0.116289
-0.116289
-0.11629
-0.116291
-0.116294
-0.116297
-0.116301
-0.116295
-0.116291
-0.116287
-0.116285
-0.116284
-0.116285
-0.116287
-0.11629
-0.116294
-0.116299
-0.116294
-0.116289
-0.116285
-0.116283
-0.116282
-0.116282
-0.116284
-0.116287
-0.116292
-0.116297
-0.116294
-0.116289
-0.116284
-0.116282
-0.116281
-0.116281
-0.116283
-0.116286
-0.116291
-0.116297
-0.116295
-0.11629
-0.116285
-0.116282
-0.116281
-0.116281
-0.116283
-0.116286
-0.116291
-0.116297
-0.116296
-0.116291
-0.116287
-0.116284
-0.116283
-0.116283
-0.116285
-0.116288
-0.116292
-0.116298
-0.116299
-0.116294
-0.11629
-0.116287
-0.116286
-0.116286
-0.116288
-0.11629
-0.116295
-0.1163
-0.116302
-0.116297
-0.116294
-0.116292
-0.116291
-0.116291
-0.116292
-0.116295
-0.116298
-0.116302
-0.116306
-0.116302
-0.116299
-0.116297
-0.116297
-0.116297
-0.116298
-0.1163
-0.116302
-0.116306
-0.121597
-0.121593
-0.12159
-0.121589
-0.121589
-0.121589
-0.12159
-0.121592
-0.121595
-0.121599
-0.121593
-0.121589
-0.121585
-0.121584
-0.121583
-0.121584
-0.121585
-0.121588
-0.121591
-0.121595
-0.12159
-0.121586
-0.121582
-0.12158
-0.121579
-0.121579
-0.121581
-0.121583
-0.121588
-0.121592
-0.121589
-0.121584
-0.12158
-0.121578
-0.121576
-0.121577
-0.121578
-0.121581
-0.121586
-0.121591
-0.121589
-0.121584
-0.121579
-0.121577
-0.121575
-0.121575
-0.121577
-0.12158
-0.121584
-0.12159
-0.12159
-0.121584
-0.121579
-0.121577
-0.121575
-0.121575
-0.121577
-0.12158
-0.121585
-0.12159
-0.121591
-0.121585
-0.121581
-0.121578
-0.121577
-0.121577
-0.121579
-0.121581
-0.121586
-0.121591
-0.121593
-0.121588
-0.121584
-0.121581
-0.12158
-0.12158
-0.121581
-0.121584
-0.121588
-0.121593
-0.121596
-0.121591
-0.121588
-0.121586
-0.121584
-0.121585
-0.121586
-0.121588
-0.121591
-0.121596
-0.1216
-0.121596
-0.121593
-0.121591
-0.12159
-0.12159
-0.121591
-0.121593
-0.121596
-0.1216
-0.12685
-0.126844
-0.126842
-0.12684
-0.12684
-0.126841
-0.126842
-0.126843
-0.126846
-0.126852
-0.126844
-0.12684
-0.126838
-0.126836
-0.126835
-0.126836
-0.126837
-0.126839
-0.126842
-0.126846
-0.126842
-0.126838
-0.126834
-0.126832
-0.126831
-0.126832
-0.126833
-0.126836
-0.12684
-0.126844
-0.126841
-0.126837
-0.126833
-0.12683
-0.126829
-0.126829
-0.126831
-0.126834
-0.126838
-0.126842
-0.126841
-0.126836
-0.126832
-0.12683
-0.126828
-0.126828
-0.12683
-0.126832
-0.126837
-0.126842
-0.126842
-0.126837
-0.126832
-0.12683
-0.126828
-0.126828
-0.12683
-0.126833
-0.126837
-0.126842
-0.126843
-0.126838
-0.126834
-0.126831
-0.12683
-0.12683
-0.126832
-0.126834
-0.126838
-0.126843
-0.126845
-0.126841
-0.126837
-0.126834
-0.126833
-0.126833
-0.126834
-0.126836
-0.12684
-0.126844
-0.126848
-0.126844
-0.126841
-0.126838
-0.126837
-0.126837
-0.126838
-0.12684
-0.126843
-0.126847
-0.126853
-0.126848
-0.126845
-0.126843
-0.126843
-0.126842
-0.126843
-0.126845
-0.126847
-0.126852
-0.132071
-0.132063
-0.132061
-0.132059
-0.132059
-0.132059
-0.13206
-0.132062
-0.132065
-0.132073
-0.132064
-0.13206
-0.132057
-0.132055
-0.132054
-0.132055
-0.132056
-0.132058
-0.132061
-0.132065
-0.132061
-0.132057
-0.132053
-0.132051
-0.13205
-0.13205
-0.132052
-0.132054
-0.132058
-0.132063
-0.13206
-0.132055
-0.132051
-0.132049
-0.132048
-0.132048
-0.132049
-0.132052
-0.132056
-0.132061
-0.13206
-0.132055
-0.13205
-0.132048
-0.132046
-0.132047
-0.132048
-0.132051
-0.132055
-0.13206
-0.13206
-0.132055
-0.13205
-0.132048
-0.132047
-0.132047
-0.132048
-0.132051
-0.132055
-0.13206
-0.132061
-0.132056
-0.132052
-0.132049
-0.132048
-0.132048
-0.13205
-0.132052
-0.132056
-0.132061
-0.132063
-0.132058
-0.132054
-0.132052
-0.132051
-0.132051
-0.132052
-0.132054
-0.132058
-0.132062
-0.132065
-0.132061
-0.132058
-0.132056
-0.132055
-0.132055
-0.132056
-0.132058
-0.132061
-0.132065
-0.132073
-0.132065
-0.132063
-0.132061
-0.13206
-0.13206
-0.132061
-0.132062
-0.132065
-0.132073
-0.137252
-0.137243
-0.137241
-0.13724
-0.13724
-0.137241
-0.137242
-0.137244
-0.137247
-0.137257
-0.137243
-0.13724
-0.137237
-0.137236
-0.137236
-0.137236
-0.137238
-0.13724
-0.137243
-0.137247
-0.137241
-0.137237
-0.137234
-0.137233
-0.137232
-0.137233
-0.137234
-0.137237
-0.13724
-0.137245
-0.137239
-0.137235
-0.137232
-0.13723
-0.13723
-0.13723
-0.137232
-0.137235
-0.137238
-0.137243
-0.137239
-0.137235
-0.137231
-0.137229
-0.137228
-0.137229
-0.137231
-0.137233
-0.137237
-0.137242
-0.137239
-0.137235
-0.137231
-0.137229
-0.137228
-0.137229
-0.137231
-0.137233
-0.137237
-0.137242
-0.13724
-0.137236
-0.137232
-0.137231
-0.13723
-0.13723
-0.137232
-0.137235
-0.137238
-0.137243
-0.137242
-0.137238
-0.137235
-0.137233
-0.137232
-0.137233
-0.137234
-0.137237
-0.13724
-0.137245
-0.137244
-0.137241
-0.137238
-0.137237
-0.137236
-0.137237
-0.137238
-0.13724
-0.137244
-0.137248
-0.137254
-0.137245
-0.137243
-0.137241
-0.137241
-0.137241
-0.137242
-0.137244
-0.137247
-0.137257
-0.142411
-0.1424
-0.142397
-0.142396
-0.142396
-0.142396
-0.142397
-0.142399
-0.142402
-0.142413
-0.142399
-0.142396
-0.142393
-0.142392
-0.142391
-0.142391
-0.142392
-0.142394
-0.142397
-0.142401
-0.142396
-0.142392
-0.142389
-0.142388
-0.142387
-0.142387
-0.142388
-0.14239
-0.142394
-0.142398
-0.142393
-0.14239
-0.142387
-0.142385
-0.142384
-0.142384
-0.142386
-0.142388
-0.142392
-0.142396
-0.142392
-0.142388
-0.142385
-0.142383
-0.142382
-0.142382
-0.142384
-0.142387
-0.14239
-0.142395
-0.142392
-0.142388
-0.142384
-0.142383
-0.142382
-0.142382
-0.142384
-0.142386
-0.14239
-0.142395
-0.142392
-0.142388
-0.142385
-0.142383
-0.142383
-0.142383
-0.142385
-0.142387
-0.142391
-0.142395
-0.142394
-0.14239
-0.142387
-0.142385
-0.142385
-0.142385
-0.142387
-0.142389
-0.142393
-0.142397
-0.142396
-0.142393
-0.14239
-0.142389
-0.142388
-0.142389
-0.14239
-0.142392
-0.142395
-0.1424
-0.142407
-0.142396
-0.142394
-0.142392
-0.142392
-0.142393
-0.142394
-0.142396
-0.142399
-0.142411
-0.147533
-0.147522
-0.14752
-0.147518
-0.147518
-0.147518
-0.147519
-0.147521
-0.147524
-0.147535
-0.147521
-0.147518
-0.147516
-0.147514
-0.147514
-0.147514
-0.147515
-0.147516
-0.147519
-0.147523
-0.147518
-0.147515
-0.147512
-0.147511
-0.14751
-0.14751
-0.147511
-0.147513
-0.147516
-0.147521
-0.147516
-0.147513
-0.14751
-0.147508
-0.147507
-0.147508
-0.147509
-0.147511
-0.147514
-0.147518
-0.147515
-0.147511
-0.147508
-0.147507
-0.147506
-0.147506
-0.147507
-0.14751
-0.147513
-0.147517
-0.147514
-0.147511
-0.147508
-0.147506
-0.147505
-0.147506
-0.147507
-0.147509
-0.147513
-0.147517
-0.147515
-0.147512
-0.147509
-0.147507
-0.147506
-0.147507
-0.147508
-0.14751
-0.147513
-0.147517
-0.147517
-0.147513
-0.147511
-0.147509
-0.147508
-0.147508
-0.14751
-0.147512
-0.147515
-0.147519
-0.147519
-0.147516
-0.147513
-0.147512
-0.147511
-0.147511
-0.147513
-0.147514
-0.147517
-0.147521
-0.147531
-0.147519
-0.147517
-0.147515
-0.147515
-0.147515
-0.147516
-0.147519
-0.147521
-0.147533
-0.152633
-0.152622
-0.152621
-0.152618
-0.152618
-0.152618
-0.152619
-0.152622
-0.152624
-0.152635
-0.152622
-0.152618
-0.152616
-0.152615
-0.152614
-0.152614
-0.152615
-0.152616
-0.152619
-0.152624
-0.15262
-0.152615
-0.152613
-0.152611
-0.15261
-0.15261
-0.152611
-0.152613
-0.152616
-0.152621
-0.152616
-0.152613
-0.15261
-0.152609
-0.152608
-0.152608
-0.152609
-0.152611
-0.152614
-0.152618
-0.152615
-0.152612
-0.152609
-0.152607
-0.152606
-0.152606
-0.152607
-0.152609
-0.152613
-0.152616
-0.152615
-0.152612
-0.152609
-0.152607
-0.152606
-0.152606
-0.152607
-0.152609
-0.152612
-0.152616
-0.152615
-0.152612
-0.152609
-0.152608
-0.152607
-0.152607
-0.152608
-0.15261
-0.152613
-0.152617
-0.152618
-0.152614
-0.152611
-0.152609
-0.152608
-0.152609
-0.15261
-0.152612
-0.152615
-0.15262
-0.15262
-0.152616
-0.152614
-0.152612
-0.152611
-0.152612
-0.152613
-0.152615
-0.152617
-0.152622
-0.152631
-0.15262
-0.152618
-0.152616
-0.152615
-0.152615
-0.152616
-0.152619
-0.152622
-0.152633
-0.157707
-0.157697
-0.157696
-0.157693
-0.157693
-0.157693
-0.157693
-0.157697
-0.157698
-0.157709
-0.157696
-0.157692
-0.157691
-0.157689
-0.157689
-0.157689
-0.157689
-0.157691
-0.157693
-0.157698
-0.157695
-0.15769
-0.157688
-0.157686
-0.157685
-0.157685
-0.157686
-0.157688
-0.157691
-0.157697
-0.157691
-0.157688
-0.157685
-0.157684
-0.157683
-0.157683
-0.157684
-0.157686
-0.157689
-0.157693
-0.15769
-0.157687
-0.157684
-0.157683
-0.157682
-0.157682
-0.157683
-0.157685
-0.157688
-0.157692
-0.15769
-0.157686
-0.157684
-0.157682
-0.157682
-0.157682
-0.157683
-0.157685
-0.157688
-0.157692
-0.15769
-0.157687
-0.157685
-0.157683
-0.157682
-0.157683
-0.157684
-0.157686
-0.157689
-0.157692
-0.157693
-0.157688
-0.157686
-0.157685
-0.157684
-0.157684
-0.157685
-0.157687
-0.15769
-0.157696
-0.157694
-0.15769
-0.157688
-0.157687
-0.157687
-0.157687
-0.157688
-0.15769
-0.157692
-0.157697
-0.157704
-0.157694
-0.157694
-0.157691
-0.15769
-0.157691
-0.157692
-0.157695
-0.157697
-0.157708
-0.162762
-0.162752
-0.162752
-0.162748
-0.162747
-0.162747
-0.162747
-0.162751
-0.162751
-0.162762
-0.162751
-0.162746
-0.162745
-0.162743
-0.162742
-0.162742
-0.162743
-0.162744
-0.162745
-0.162751
-0.162751
-0.162744
-0.162742
-0.16274
-0.162739
-0.162739
-0.16274
-0.162742
-0.162744
-0.16275
-0.162747
-0.162743
-0.16274
-0.162738
-0.162737
-0.162737
-0.162738
-0.16274
-0.162742
-0.162747
-0.162745
-0.162741
-0.162739
-0.162737
-0.162736
-0.162736
-0.162737
-0.162739
-0.162741
-0.162745
-0.162745
-0.162741
-0.162738
-0.162737
-0.162736
-0.162736
-0.162737
-0.162738
-0.162741
-0.162745
-0.162745
-0.162741
-0.162739
-0.162737
-0.162736
-0.162736
-0.162737
-0.162739
-0.162742
-0.162746
-0.162748
-0.162742
-0.16274
-0.162739
-0.162738
-0.162738
-0.162739
-0.162741
-0.162743
-0.162749
-0.162748
-0.162743
-0.162742
-0.162741
-0.16274
-0.16274
-0.162741
-0.162743
-0.162744
-0.162749
-0.162758
-0.162748
-0.162748
-0.162745
-0.162744
-0.162744
-0.162745
-0.162749
-0.162749
-0.162759
-0.167797
-0.167786
-0.167787
-0.167783
-0.167782
-0.167781
-0.167782
-0.167785
-0.167784
-0.167795
-0.167786
-0.16778
-0.167779
-0.167778
-0.167777
-0.167776
-0.167776
-0.167778
-0.167778
-0.167784
-0.167787
-0.167779
-0.167777
-0.167775
-0.167774
-0.167774
-0.167774
-0.167776
-0.167777
-0.167785
-0.167783
-0.167778
-0.167775
-0.167773
-0.167772
-0.167772
-0.167772
-0.167774
-0.167776
-0.167781
-0.167782
-0.167777
-0.167774
-0.167772
-0.167771
-0.167771
-0.167772
-0.167773
-0.167775
-0.16778
-0.167781
-0.167777
-0.167774
-0.167772
-0.167771
-0.167771
-0.167772
-0.167773
-0.167775
-0.16778
-0.167782
-0.167777
-0.167775
-0.167773
-0.167772
-0.167772
-0.167772
-0.167774
-0.167776
-0.167781
-0.167785
-0.167778
-0.167776
-0.167774
-0.167773
-0.167773
-0.167774
-0.167776
-0.167777
-0.167784
-0.167784
-0.167778
-0.167778
-0.167776
-0.167776
-0.167776
-0.167776
-0.167777
-0.167778
-0.167783
-0.167795
-0.167784
-0.167785
-0.167781
-0.16778
-0.16778
-0.167781
-0.167784
-0.167783
-0.167795
-0.172818
-0.172804
-0.172805
-0.172802
-0.172801
-0.172801
-0.172801
-0.172804
-0.172802
-0.172816
-0.172804
-0.172798
-0.172797
-0.172795
-0.172795
-0.172794
-0.172794
-0.172796
-0.172797
-0.172802
-0.172806
-0.172798
-0.172796
-0.172793
-0.172792
-0.172792
-0.172793
-0.172795
-0.172796
-0.172804
-0.172803
-0.172796
-0.172794
-0.172792
-0.17279
-0.17279
-0.172791
-0.172793
-0.172794
-0.172801
-0.172802
-0.172795
-0.172793
-0.172791
-0.17279
-0.172789
-0.17279
-0.172792
-0.172794
-0.1728
-0.172801
-0.172795
-0.172793
-0.172791
-0.17279
-0.172789
-0.17279
-0.172792
-0.172794
-0.1728
-0.172802
-0.172795
-0.172793
-0.172792
-0.172791
-0.17279
-0.172791
-0.172793
-0.172795
-0.172801
-0.172805
-0.172797
-0.172796
-0.172793
-0.172792
-0.172792
-0.172793
-0.172795
-0.172796
-0.172804
-0.172803
-0.172797
-0.172797
-0.172795
-0.172795
-0.172795
-0.172795
-0.172796
-0.172797
-0.172802
-0.172817
-0.172803
-0.172805
-0.172802
-0.172801
-0.172801
-0.172801
-0.172804
-0.172802