/*--------------------------------*- C++ -*----------------------------------*\
| =========                 |                                                 |
| \\      /  F ield         | OpenFOAM: The Open Source CFD Toolbox           |
|  \\    /   O peration     | Version:  2406                                  |
|   \\  /    A nd           | Website:  www.openfoam.com                      |
|    \\/     M anipulation  |                                                 |
\*---------------------------------------------------------------------------*/
FoamFile
{
    version     2.0;
    format      ascii;
    arch        "LSB;label=32;scalar=64";
    class       surfaceScalarField;
    location    "400";
    object      phi;
}
// * * * * * * * * * * * * * * * * * * * * * * * * * * * * * * * * * * * * * //

dimensions      [0 3 -1 0 0 0 0];

oriented        oriented;

internalField   nonuniform List<scalar> 
73500
(
1.64501e-06
1.67832e-06
4.76514e-05
-1.77807e-06
-1.79927e-06
1.23713e-06
1.42971e-06
5.15986e-05
-1.6536e-06
8.31711e-07
1.2851e-06
5.46056e-05
-1.53245e-06
4.34353e-07
1.20264e-06
5.6633e-05
-1.46202e-06
3.77391e-08
1.16076e-06
5.76534e-05
-1.42498e-06
-3.54917e-07
1.15659e-06
5.76526e-05
-1.42457e-06
-7.42977e-07
1.1871e-06
5.66305e-05
-1.45948e-06
-1.12705e-06
1.25111e-06
5.46012e-05
-1.52706e-06
-1.49699e-06
1.35654e-06
5.1592e-05
-1.64171e-06
1.51314e-06
4.76426e-05
-1.8229e-06
-1.82983e-06
1.39886e-06
1.24007e-06
5.1598e-05
-1.62118e-06
1.07917e-06
1.09283e-06
5.5237e-05
7.35494e-07
9.87465e-07
5.80136e-05
3.84644e-07
9.18405e-07
5.98867e-05
3.17999e-08
8.8273e-07
6.08298e-05
-3.20616e-07
8.77371e-07
6.0829e-05
-6.70009e-07
9.00987e-07
5.98845e-05
-1.01386e-06
9.53557e-07
5.80099e-05
-1.34082e-06
1.03504e-06
5.52319e-05
1.14944e-06
5.15918e-05
-1.63133e-06
1.26686e-06
8.24294e-07
5.46051e-05
-1.52829e-06
9.74612e-07
7.37926e-07
5.80134e-05
6.64979e-07
6.70962e-07
6.06157e-05
3.46904e-07
6.23199e-07
6.23723e-05
2.53015e-08
5.97134e-07
6.3257e-05
-2.9716e-07
5.92068e-07
6.32563e-05
-6.17672e-07
6.07625e-07
6.23705e-05
-9.32924e-07
6.42819e-07
6.06128e-05
-1.23543e-06
6.96249e-07
5.80096e-05
7.71048e-07
5.46008e-05
-1.51541e-06
1.19385e-06
4.26707e-07
5.66327e-05
-1.46109e-06
9.09579e-07
3.82344e-07
5.98866e-05
6.1739e-07
3.47476e-07
6.23722e-05
3.20239e-07
3.22314e-07
6.4051e-05
1.97255e-08
3.07337e-07
6.48967e-05
-2.81867e-07
3.03214e-07
6.48963e-05
-5.82867e-07
3.09488e-07
6.40496e-05
-8.80265e-07
3.26286e-07
6.23701e-05
-1.17086e-06
3.52454e-07
5.98838e-05
3.89235e-07
5.66296e-05
-1.44797e-06
1.15667e-06
2.97572e-08
5.76533e-05
-1.42762e-06
8.76716e-07
2.69287e-08
6.08297e-05
5.92893e-07
2.35801e-08
6.3257e-05
3.05277e-07
1.92867e-08
6.48968e-05
1.54709e-08
1.56512e-08
6.57231e-05
-2.75745e-07
1.2181e-08
6.57227e-05
-5.66416e-07
9.63779e-09
6.48958e-05
-8.54951e-07
7.5483e-09
6.32554e-05
-1.13921e-06
5.92065e-09
6.08278e-05
4.81948e-09
5.76512e-05
-1.4133e-06
1.15511e-06
-3.6102e-07
5.76527e-05
-1.42552e-06
8.74238e-07
-3.25188e-07
6.08291e-05
5.89055e-07
-3.00257e-07
6.32564e-05
3.01762e-07
-2.83347e-07
6.48964e-05
1.19978e-08
-2.76613e-07
6.57228e-05
-2.78335e-07
-2.7885e-07
6.57225e-05
-5.68584e-07
-2.90776e-07
6.48956e-05
-8.56651e-07
-3.116e-07
6.32553e-05
-1.14036e-06
-3.40581e-07
6.08277e-05
-3.79659e-07
5.76512e-05
-1.41422e-06
1.18686e-06
-7.48722e-07
5.66306e-05
-1.46148e-06
8.99145e-07
-6.74594e-07
5.98847e-05
6.06131e-07
-6.20766e-07
6.23707e-05
3.08623e-07
-5.8517e-07
6.40498e-05
9.80422e-09
-5.67829e-07
6.48959e-05
-2.90255e-07
-5.69737e-07
6.48957e-05
-5.89264e-07
-5.90178e-07
6.40492e-05
-8.84983e-07
-6.29012e-07
6.23698e-05
-1.17443e-06
-6.85217e-07
5.98837e-05
-7.61776e-07
5.66296e-05
-1.4506e-06
1.25181e-06
-1.13124e-06
5.46015e-05
-1.52819e-06
9.53034e-07
-1.01816e-06
5.80102e-05
6.42031e-07
-9.36515e-07
6.06131e-05
3.26299e-07
-8.8309e-07
6.23703e-05
7.98549e-09
-8.57127e-07
6.32556e-05
-3.10808e-07
-8.58344e-07
6.32554e-05
-6.28076e-07
-8.862e-07
6.23699e-05
-9.40734e-07
-9.41823e-07
6.06125e-05
-1.24103e-06
-1.02527e-06
5.80094e-05
-1.14096e-06
5.46007e-05
-1.5195e-06
1.357e-06
-1.50104e-06
5.15923e-05
-1.64351e-06
1.03509e-06
-1.34538e-06
5.52322e-05
6.96151e-07
-1.23972e-06
5.801e-05
3.53127e-07
-1.17435e-06
5.98841e-05
6.89278e-09
-1.14211e-06
6.0828e-05
-3.39232e-07
-1.14255e-06
6.08279e-05
-6.84077e-07
-1.17617e-06
5.98838e-05
-1.02414e-06
-1.24222e-06
5.80095e-05
-1.34814e-06
-1.34903e-06
5.52316e-05
-1.50645e-06
5.15917e-05
-1.63615e-06
1.5129e-06
4.76429e-05
-1.82578e-06
-1.82973e-06
1.14958e-06
5.15922e-05
-1.63575e-06
7.71707e-07
5.46011e-05
-1.51914e-06
3.90546e-07
5.66299e-05
-1.45146e-06
6.64358e-09
5.76514e-05
-1.416e-06
-3.77717e-07
5.76513e-05
-1.41653e-06
-7.59921e-07
5.66297e-05
-1.45217e-06
-1.13942e-06
5.46007e-05
-1.52058e-06
-1.50555e-06
5.15917e-05
-1.63654e-06
4.76424e-05
-1.82642e-06
-1.82651e-06
2.14171e-06
2.15224e-06
4.83372e-05
-2.48708e-06
-2.49579e-06
1.54745e-06
1.86781e-06
5.2341e-05
-2.01542e-06
1.04572e-06
1.7717e-06
5.53922e-05
-2.05484e-06
5.32852e-07
1.72121e-06
5.74501e-05
-2.02258e-06
7.96913e-09
1.6943e-06
5.84861e-05
-2.00107e-06
-5.17396e-07
1.6941e-06
5.84861e-05
-2.00111e-06
-1.03417e-06
1.71961e-06
5.74498e-05
-2.02137e-06
-1.54073e-06
1.76969e-06
5.53919e-05
-2.05393e-06
-2.14151e-06
1.86511e-06
5.23407e-05
-2.01271e-06
2.1491e-06
4.83371e-05
-2.49133e-06
-2.49357e-06
1.85972e-06
1.5524e-06
5.23407e-05
-2.00449e-06
1.46218e-06
1.4682e-06
5.60326e-05
1.00357e-06
1.39807e-06
5.88475e-05
5.13465e-07
1.35246e-06
6.07461e-05
7.11211e-09
1.32991e-06
6.17024e-05
-5.00927e-07
1.32918e-06
6.17023e-05
-9.93445e-07
1.351e-06
6.07459e-05
-1.4565e-06
1.3958e-06
5.88472e-05
-1.85777e-06
1.46573e-06
5.60324e-05
1.55091e-06
5.23406e-05
-2.00786e-06
1.76587e-06
1.04638e-06
5.53918e-05
-2.05219e-06
1.39256e-06
1.00617e-06
5.88473e-05
9.6008e-07
9.63969e-07
6.14834e-05
4.92003e-07
9.323e-07
6.32618e-05
5.92099e-09
9.16304e-07
6.41577e-05
-4.80988e-07
9.15742e-07
6.41577e-05
-9.5122e-07
9.30559e-07
6.32617e-05
-1.38689e-06
9.61115e-07
6.14832e-05
-1.76223e-06
1.00381e-06
5.88471e-05
1.04566e-06
5.53918e-05
-2.04759e-06
1.71777e-06
5.32554e-07
5.74496e-05
-2.02156e-06
1.34859e-06
5.14932e-07
6.07457e-05
9.28526e-07
4.93667e-07
6.32616e-05
4.75451e-07
4.77869e-07
6.49597e-05
5.11639e-09
4.69507e-07
6.58152e-05
-4.65986e-07
4.68826e-07
6.58152e-05
-9.2092e-07
4.76023e-07
6.49596e-05
-1.34225e-06
4.91332e-07
6.32616e-05
-1.71189e-06
5.11726e-07
6.07457e-05
5.29174e-07
5.74496e-05
-2.01489e-06
1.69255e-06
6.04429e-09
5.84856e-05
-2.00276e-06
1.3264e-06
6.20332e-09
6.1702e-05
9.13358e-07
6.82802e-09
6.41574e-05
4.67082e-07
6.28882e-09
6.58151e-05
4.34612e-09
5.94993e-09
6.66504e-05
-4.58901e-07
5.28591e-09
6.66504e-05
-9.06202e-07
4.64016e-09
6.58151e-05
-1.32056e-06
4.02675e-09
6.41574e-05
-1.68626e-06
3.54126e-09
6.1702e-05
3.18078e-09
5.84857e-05
-1.99426e-06
1.69333e-06
-5.18861e-07
5.84856e-05
-2.00192e-06
1.32735e-06
-5.01545e-07
6.17018e-05
9.13043e-07
-4.81404e-07
6.41573e-05
4.66809e-07
-4.65275e-07
6.5815e-05
3.66905e-09
-4.58008e-07
6.66503e-05
-4.596e-07
-4.58399e-07
6.66503e-05
-9.06918e-07
-4.66953e-07
6.5815e-05
-1.32118e-06
-4.83422e-07
6.41574e-05
-1.68676e-06
-5.04748e-07
6.1702e-05
-5.22833e-07
5.84857e-05
-1.99464e-06
1.71956e-06
-1.03616e-06
5.74493e-05
-2.02368e-06
1.34935e-06
-9.94877e-07
6.07454e-05
9.28922e-07
-9.51753e-07
6.32612e-05
4.7414e-07
-9.2124e-07
6.49593e-05
3.31326e-09
-9.05897e-07
6.58149e-05
-4.68159e-07
-9.06422e-07
6.58149e-05
-9.23003e-07
-9.22338e-07
6.49594e-05
-1.34407e-06
-9.53815e-07
6.32614e-05
-1.71331e-06
-9.97243e-07
6.07456e-05
-1.03955e-06
5.74495e-05
-2.016e-06
1.77014e-06
-1.54172e-06
5.53914e-05
-2.05528e-06
1.39495e-06
-1.45812e-06
5.88467e-05
9.59599e-07
-1.38832e-06
6.14828e-05
4.90041e-07
-1.34342e-06
6.32612e-05
2.86362e-09
-1.32127e-06
6.41572e-05
-4.84437e-07
-1.3216e-06
6.41572e-05
-9.54472e-07
-1.34399e-06
6.32613e-05
-1.38972e-06
-1.38956e-06
6.1483e-05
-1.76441e-06
-1.46004e-06
5.88469e-05
-1.54538e-06
5.53916e-05
-2.04914e-06
1.86489e-06
-2.14281e-06
5.23402e-05
-2.01457e-06
1.465e-06
-1.85988e-06
5.60319e-05
1.00243e-06
-1.76459e-06
5.88467e-05
5.10862e-07
-1.71378e-06
6.07454e-05
2.65012e-09
-1.68792e-06
6.17018e-05
-5.0521e-07
-1.68784e-06
6.17018e-05
-9.97762e-07
-1.71411e-06
6.07455e-05
-1.46017e-06
-1.76475e-06
5.88469e-05
-1.86044e-06
-1.86056e-06
5.60321e-05
-2.14487e-06
5.23404e-05
-2.00949e-06
2.14798e-06
4.83367e-05
-2.49199e-06
-2.49333e-06
1.54976e-06
5.23402e-05
-2.00995e-06
1.04465e-06
5.53914e-05
-2.04929e-06
5.28505e-07
5.74493e-05
-2.01677e-06
2.92533e-09
5.84855e-05
-1.99569e-06
-5.22926e-07
5.84855e-05
-1.99599e-06
-1.0395e-06
5.74494e-05
-2.01687e-06
-1.5452e-06
5.53916e-05
-2.04976e-06
-2.14472e-06
5.23404e-05
-2.00967e-06
4.83369e-05
-2.49185e-06
-2.49192e-06
1.62945e-06
1.6297e-06
4.88888e-05
-1.90702e-06
-1.90452e-06
1.15576e-06
1.40974e-06
5.29292e-05
-1.52456e-06
7.80591e-07
1.37739e-06
5.60095e-05
-1.6197e-06
3.92829e-07
1.34106e-06
5.80867e-05
-1.58986e-06
5.17036e-09
1.32476e-06
5.91322e-05
-1.58297e-06
-3.82918e-07
1.32471e-06
5.91322e-05
-1.58288e-06
-7.71581e-07
1.34102e-06
5.80869e-05
-1.5891e-06
-1.14868e-06
1.37717e-06
5.60098e-05
-1.61851e-06
-1.62501e-06
1.40977e-06
5.29297e-05
-1.52294e-06
1.63006e-06
4.88894e-05
-1.90312e-06
-1.90463e-06
1.4104e-06
1.15553e-06
5.29294e-05
-1.52484e-06
1.09932e-06
1.09878e-06
5.66547e-05
7.60427e-07
1.06914e-06
5.94953e-05
3.89154e-07
1.04722e-06
6.14115e-05
4.68219e-09
1.03575e-06
6.23764e-05
-3.80195e-07
1.03576e-06
6.23765e-05
-7.52346e-07
1.04722e-06
6.14117e-05
-1.09274e-06
1.06908e-06
5.94956e-05
-1.40494e-06
1.09891e-06
5.66551e-05
1.15568e-06
5.29298e-05
-1.51948e-06
1.37805e-06
7.79633e-07
5.60097e-05
-1.61971e-06
1.06981e-06
7.59415e-07
5.94955e-05
7.34198e-07
7.33225e-07
6.21554e-05
3.75538e-07
7.18106e-07
6.39503e-05
4.38284e-09
7.10854e-07
6.48544e-05
-3.67159e-07
7.10811e-07
6.48545e-05
-7.26589e-07
7.18075e-07
6.39505e-05
-1.06319e-06
7.33119e-07
6.21556e-05
-1.37222e-06
7.59208e-07
5.94957e-05
7.79407e-07
5.601e-05
-1.61389e-06
1.34189e-06
3.9137e-07
5.80871e-05
-1.59028e-06
1.04801e-06
3.87808e-07
6.14118e-05
7.19083e-07
3.74246e-07
6.39505e-05
3.67379e-07
3.66127e-07
6.56643e-05
4.15684e-09
3.62433e-07
6.65277e-05
-3.59276e-07
3.62408e-07
6.65277e-05
-7.11763e-07
3.65926e-07
6.56644e-05
-1.04152e-06
3.73906e-07
6.39506e-05
-1.33584e-06
3.87286e-07
6.14119e-05
3.9049e-07
5.80872e-05
-1.58415e-06
1.32566e-06
3.29585e-09
5.91326e-05
-1.58362e-06
1.03664e-06
2.98917e-09
6.23767e-05
7.11886e-07
2.86005e-09
6.48546e-05
3.63673e-07
2.78217e-09
6.65277e-05
4.05895e-09
2.75672e-09
6.73708e-05
-3.55864e-07
2.61778e-09
6.73708e-05
-7.04745e-07
2.47941e-09
6.65278e-05
-1.0302e-06
2.30002e-09
6.48547e-05
-1.31973e-06
2.12307e-09
6.23768e-05
1.9616e-09
5.91327e-05
-1.57765e-06
1.32579e-06
-3.8479e-07
5.91327e-05
-1.58353e-06
1.03674e-06
-3.8195e-07
6.23768e-05
7.11947e-07
-3.68655e-07
6.48547e-05
3.63701e-07
-3.60564e-07
6.65278e-05
3.91194e-09
-3.57039e-07
6.73708e-05
-3.56048e-07
-3.57149e-07
6.73709e-05
-7.05009e-07
-3.61012e-07
6.65279e-05
-1.03049e-06
-3.69357e-07
6.48547e-05
-1.32001e-06
-3.83057e-07
6.23769e-05
-3.86543e-07
5.91328e-05
-1.57791e-06
1.34211e-06
-7.73765e-07
5.80874e-05
-1.59015e-06
1.04841e-06
-7.53988e-07
6.14121e-05
7.19375e-07
-7.27965e-07
6.39508e-05
3.673e-07
-7.12921e-07
6.56645e-05
3.8465e-09
-7.05747e-07
6.65279e-05
-3.5991e-07
-7.05892e-07
6.65279e-05
-7.12563e-07
-7.13446e-07
6.56645e-05
-1.04235e-06
-7.28772e-07
6.39508e-05
-1.33663e-06
-7.55169e-07
6.14121e-05
-7.75553e-07
5.80874e-05
-1.5849e-06
1.37872e-06
-1.15038e-06
5.60103e-05
-1.61967e-06
1.07049e-06
-1.09433e-06
5.9496e-05
7.34589e-07
-1.06449e-06
6.21559e-05
3.7544e-07
-1.0427e-06
6.39508e-05
3.79804e-09
-1.03117e-06
6.48548e-05
-3.6821e-07
-1.03145e-06
6.48548e-05
-7.27867e-07
-1.04304e-06
6.39508e-05
-1.06456e-06
-1.06525e-06
6.21559e-05
-1.37346e-06
-1.09529e-06
5.9496e-05
-1.15215e-06
5.60102e-05
-1.61497e-06
1.41136e-06
-1.62649e-06
5.29302e-05
-1.52475e-06
1.1006e-06
-1.40651e-06
5.66555e-05
7.60768e-07
-1.37374e-06
5.94961e-05
3.89067e-07
-1.33712e-06
6.14122e-05
3.66102e-09
-1.32095e-06
6.2377e-05
-3.81551e-07
-1.32095e-06
6.2377e-05
-7.54208e-07
-1.3375e-06
6.14121e-05
-1.09455e-06
-1.374e-06
5.9496e-05
-1.40655e-06
-1.40687e-06
5.66554e-05
-1.62739e-06
5.29301e-05
-1.52075e-06
1.63156e-06
4.88899e-05
-1.90442e-06
-1.90591e-06
1.15742e-06
5.29302e-05
-1.52148e-06
7.81211e-07
5.60103e-05
-1.61551e-06
3.92368e-07
5.80875e-05
-1.58569e-06
3.88212e-09
5.91329e-05
-1.57892e-06
-3.84842e-07
5.91328e-05
-1.57909e-06
-7.74144e-07
5.80874e-05
-1.58571e-06
-1.15112e-06
5.60102e-05
-1.61548e-06
-1.62707e-06
5.29301e-05
-1.52061e-06
4.88898e-05
-1.90358e-06
-1.90331e-06
1.13164e-06
1.13507e-06
4.92866e-05
-1.32982e-06
-1.33023e-06
8.19894e-07
1.01902e-06
5.33589e-05
-1.13402e-06
5.58725e-07
1.02869e-06
5.64637e-05
-1.21878e-06
2.80171e-07
1.00288e-06
5.85573e-05
-1.19208e-06
5.10641e-09
9.97538e-07
5.9611e-05
-1.19875e-06
-2.70304e-07
9.97442e-07
5.9611e-05
-1.19866e-06
-5.49532e-07
1.00252e-06
5.85573e-05
-1.19149e-06
-8.12253e-07
1.02779e-06
5.64637e-05
-1.21783e-06
-1.12599e-06
1.01803e-06
5.33589e-05
-1.13186e-06
1.13416e-06
4.92866e-05
-1.32609e-06
-1.32908e-06
1.01592e-06
8.2286e-07
5.3359e-05
-1.13055e-06
7.87781e-07
7.90455e-07
5.7113e-05
5.50392e-07
7.88308e-07
5.99749e-05
2.81727e-07
7.79188e-07
6.19054e-05
4.62494e-09
7.7543e-07
6.28772e-05
-2.72921e-07
7.75293e-07
6.28772e-05
-5.42387e-07
7.78887e-07
6.19053e-05
-7.80816e-07
7.87806e-07
5.99749e-05
-1.01028e-06
7.89564e-07
5.71129e-05
8.22031e-07
5.3359e-05
-1.12595e-06
1.02566e-06
5.60645e-07
5.64639e-05
-1.21541e-06
7.85761e-07
5.52071e-07
5.9975e-05
5.37731e-07
5.39466e-07
6.26538e-05
2.74391e-07
5.33098e-07
6.44613e-05
4.20797e-09
5.29686e-07
6.53715e-05
-2.66227e-07
5.29626e-07
6.53715e-05
-5.3029e-07
5.32804e-07
6.44613e-05
-7.79459e-07
5.38805e-07
6.26538e-05
-1.0201e-06
5.51385e-07
5.9975e-05
5.59741e-07
5.64638e-05
-1.21057e-06
9.99956e-07
2.80901e-07
5.85576e-05
-1.18887e-06
7.7686e-07
2.82596e-07
6.19056e-05
5.3141e-07
2.75179e-07
6.44614e-05
2.71325e-07
2.72203e-07
6.61865e-05
3.99151e-09
2.70405e-07
6.70555e-05
-2.63649e-07
2.70249e-07
6.70555e-05
-5.24548e-07
2.71796e-07
6.61865e-05
-7.70722e-07
2.74582e-07
6.44613e-05
-9.9455e-07
2.8156e-07
6.19055e-05
2.79637e-07
5.85575e-05
-1.18372e-06
9.94805e-07
4.76088e-09
5.96114e-05
-1.19585e-06
7.73093e-07
4.46898e-09
6.28775e-05
5.28129e-07
4.41721e-09
6.53717e-05
2.69531e-07
4.26491e-09
6.70556e-05
3.77159e-09
4.13763e-09
6.79039e-05
-2.62216e-07
3.97272e-09
6.79038e-05
-5.21537e-07
3.71827e-09
6.70555e-05
-7.67365e-07
3.46621e-09
6.53716e-05
-9.89527e-07
3.31398e-09
6.28774e-05
3.17827e-09
5.96112e-05
-1.19067e-06
9.94896e-07
-2.71025e-07
5.96114e-05
-1.19588e-06
7.73259e-07
-2.73322e-07
6.28776e-05
5.28107e-07
-2.66416e-07
6.53717e-05
2.69457e-07
-2.63579e-07
6.70556e-05
3.60309e-09
-2.62084e-07
6.79039e-05
-2.62517e-07
-2.62365e-07
6.79039e-05
-5.21882e-07
-2.64341e-07
6.70556e-05
-7.67645e-07
-2.67566e-07
6.53716e-05
-9.89804e-07
-2.7502e-07
6.28774e-05
-2.73265e-07
5.96112e-05
-1.19085e-06
1.00018e-06
-5.50846e-07
5.85577e-05
-1.18925e-06
7.7701e-07
-5.42947e-07
6.19057e-05
5.31499e-07
-5.30594e-07
6.44615e-05
2.71042e-07
-5.24634e-07
6.61866e-05
3.37191e-09
-5.2162e-07
6.70556e-05
-2.64489e-07
-5.21898e-07
6.70556e-05
-5.25529e-07
-5.25587e-07
6.61866e-05
-7.71735e-07
-5.3208e-07
6.44614e-05
-9.95299e-07
-5.44882e-07
6.19055e-05
-5.53417e-07
5.85575e-05
-1.18434e-06
1.02601e-06
-8.13052e-07
5.6464e-05
-1.21567e-06
7.86074e-07
-7.81599e-07
5.99752e-05
5.37643e-07
-7.7982e-07
6.2654e-05
2.73814e-07
-7.71197e-07
6.44615e-05
3.19172e-09
-7.6772e-07
6.53717e-05
-2.67722e-07
-7.68109e-07
6.53717e-05
-5.32006e-07
-7.72055e-07
6.44614e-05
-7.81003e-07
-7.81324e-07
6.26539e-05
-1.02138e-06
-7.83542e-07
5.99751e-05
-8.16048e-07
5.64639e-05
-1.21133e-06
1.01599e-06
-1.1269e-06
5.33592e-05
-1.13051e-06
7.88113e-07
-1.01108e-06
5.71132e-05
5.50011e-07
-1.02096e-06
5.99752e-05
2.80908e-07
-9.95309e-07
6.19056e-05
2.93709e-09
-9.90408e-07
6.28775e-05
-2.74975e-07
-9.90613e-07
6.28775e-05
-5.4477e-07
-9.96115e-07
6.19056e-05
-7.83197e-07
-1.022e-06
5.99751e-05
-1.01205e-06
-1.01244e-06
5.71131e-05
-1.12907e-06
5.33591e-05
-1.12706e-06
1.13204e-06
4.92869e-05
-1.32624e-06
-1.32773e-06
8.20323e-07
5.33592e-05
-1.1271e-06
5.58365e-07
5.6464e-05
-1.2114e-06
2.78821e-07
5.85576e-05
-1.18486e-06
2.91298e-09
5.96113e-05
-1.19182e-06
-2.73135e-07
5.96113e-05
-1.19216e-06
-5.53011e-07
5.85576e-05
-1.18557e-06
-8.15411e-07
5.64639e-05
-1.21245e-06
-1.12868e-06
5.33591e-05
-1.12761e-06
4.92868e-05
-1.32646e-06
-1.32647e-06
7.75181e-07
7.81627e-07
4.95531e-05
-9.08245e-07
-9.11682e-07
5.8642e-07
7.30934e-07
5.36517e-05
-8.33041e-07
4.03105e-07
7.5005e-07
5.67771e-05
-8.77718e-07
2.0223e-07
7.29968e-07
5.88848e-05
-8.54278e-07
4.35038e-09
7.31899e-07
5.99458e-05
-8.66364e-07
-1.9387e-07
7.31769e-07
5.99458e-05
-8.66306e-07
-3.94913e-07
7.29548e-07
5.88848e-05
-8.53639e-07
-5.7934e-07
7.48818e-07
5.6777e-05
-8.76873e-07
-7.69214e-07
7.29214e-07
5.36516e-05
-8.30724e-07
7.79202e-07
4.9553e-05
-9.0443e-07
-9.08334e-07
7.24454e-07
5.92705e-07
5.36517e-05
-8.26197e-07
5.66098e-07
5.71895e-07
5.74315e-05
3.99245e-07
5.79554e-07
6.03136e-05
2.04308e-07
5.73747e-07
6.22578e-05
3.98118e-09
5.74362e-07
6.32367e-05
-1.96764e-07
5.74152e-07
6.32367e-05
-3.92406e-07
5.73253e-07
6.22578e-05
-5.60011e-07
5.78707e-07
6.03135e-05
-7.19887e-07
5.70251e-07
5.74313e-05
5.91037e-07
5.36516e-05
-8.23e-07
7.43767e-07
4.07886e-07
5.67772e-05
-8.70686e-07
5.74067e-07
4.03582e-07
6.03136e-05
3.96129e-07
4.00362e-07
6.3012e-05
2.02252e-07
3.97195e-07
6.48329e-05
3.5482e-09
3.95613e-07
6.575e-05
-1.95369e-07
3.95519e-07
6.57499e-05
-3.89922e-07
3.96752e-07
6.48328e-05
-5.68966e-07
3.99385e-07
6.30118e-05
-7.39459e-07
4.0244e-07
6.03134e-05
4.06521e-07
5.6777e-05
-8.67042e-07
7.23794e-07
2.04963e-07
5.8885e-05
-8.46987e-07
5.68551e-07
2.07068e-07
6.22579e-05
3.93097e-07
2.0489e-07
6.4833e-05
2.01875e-07
2.04576e-07
6.65712e-05
3.31672e-09
2.03775e-07
6.74469e-05
-1.95545e-07
2.03597e-07
6.74468e-05
-3.87571e-07
2.04104e-07
6.65711e-05
-5.6371e-07
2.04137e-07
6.48328e-05
-7.19728e-07
2.0583e-07
6.22577e-05
2.03595e-07
5.88847e-05
-8.43039e-07
7.25971e-07
4.96947e-09
5.99459e-05
-8.59321e-07
5.69225e-07
4.8292e-09
6.32369e-05
3.91706e-07
4.85623e-09
6.57501e-05
2.01101e-07
4.77779e-09
6.74469e-05
3.07842e-09
4.66797e-09
6.83018e-05
-1.95161e-07
4.51969e-09
6.83017e-05
-3.8652e-07
4.23827e-09
6.74468e-05
-5.64851e-07
3.9451e-09
6.57499e-05
-7.22054e-07
3.69139e-09
6.32366e-05
3.47692e-09
5.99457e-05
-8.55439e-07
7.2611e-07
-1.9476e-07
5.99459e-05
-8.59519e-07
5.69444e-07
-1.96979e-07
6.32369e-05
3.91767e-07
-1.95117e-07
6.57501e-05
2.01057e-07
-1.94889e-07
6.74469e-05
2.9255e-09
-1.94306e-07
6.83018e-05
-1.95497e-07
-1.94565e-07
6.83017e-05
-3.86915e-07
-1.95534e-07
6.74468e-05
-5.65242e-07
-1.96152e-07
6.57499e-05
-7.22414e-07
-1.98431e-07
6.32366e-05
-1.96585e-07
5.99457e-05
-8.55755e-07
7.24334e-07
-3.9731e-07
5.8885e-05
-8.47606e-07
5.68907e-07
-3.93416e-07
6.22579e-05
3.93348e-07
-3.90305e-07
6.48329e-05
2.01733e-07
-3.87449e-07
6.65712e-05
2.71715e-09
-3.86233e-07
6.74469e-05
-1.96467e-07
-3.86445e-07
6.74468e-05
-3.88769e-07
-3.88288e-07
6.65711e-05
-5.64969e-07
-3.91512e-07
6.48328e-05
-7.20797e-07
-3.94964e-07
6.22577e-05
-3.99381e-07
5.88847e-05
-8.44115e-07
7.44586e-07
-5.81806e-07
5.67772e-05
-8.71615e-07
5.74762e-07
-5.61579e-07
6.03136e-05
3.96357e-07
-5.69661e-07
6.30119e-05
2.01882e-07
-5.64239e-07
6.48329e-05
2.59555e-09
-5.65069e-07
6.575e-05
-1.97057e-07
-5.65434e-07
6.57499e-05
-3.91982e-07
-5.64904e-07
6.48328e-05
-5.70983e-07
-5.70881e-07
6.30118e-05
-7.41256e-07
-5.63072e-07
6.03134e-05
-5.84007e-07
5.6777e-05
-8.68458e-07
7.253e-07
-7.71442e-07
5.36517e-05
-8.27356e-07
5.66874e-07
-7.21349e-07
5.74315e-05
3.99392e-07
-7.40684e-07
6.03136e-05
2.03831e-07
-7.20685e-07
6.22578e-05
2.34339e-09
-7.22952e-07
6.32367e-05
-1.99041e-07
-7.23092e-07
6.32367e-05
-3.95377e-07
-7.21353e-07
6.22578e-05
-5.6317e-07
-7.41478e-07
6.03134e-05
-7.22431e-07
-7.22292e-07
5.74313e-05
-7.72993e-07
5.36516e-05
-8.24958e-07
7.75625e-07
4.95531e-05
-9.04841e-07
-9.06463e-07
5.87522e-07
5.36517e-05
-8.24706e-07
4.03541e-07
5.67771e-05
-8.68582e-07
2.01537e-07
5.88848e-05
-8.44816e-07
2.34932e-09
5.99458e-05
-8.5705e-07
-1.97002e-07
5.99457e-05
-8.57349e-07
-3.99353e-07
5.88847e-05
-8.45358e-07
-5.83733e-07
5.6777e-05
-8.69386e-07
-7.73172e-07
5.36516e-05
-8.24992e-07
4.9553e-05
-9.05412e-07
-9.04896e-07
6.13829e-07
6.21471e-07
4.97659e-05
-7.20654e-07
-7.25673e-07
4.84194e-07
5.90005e-07
5.38845e-05
-6.92206e-07
3.32451e-07
5.94089e-07
5.70253e-05
-6.8888e-07
1.6715e-07
5.70705e-07
5.91434e-05
-6.62349e-07
2.91587e-09
5.7179e-07
6.02097e-05
-6.69564e-07
-1.61676e-07
5.7165e-07
6.02097e-05
-6.69479e-07
-3.27071e-07
5.70315e-07
5.91434e-05
-6.61575e-07
-4.79902e-07
5.93085e-07
5.70253e-05
-6.88025e-07
-6.10081e-07
5.88719e-07
5.38844e-05
-6.90531e-07
6.19253e-07
4.97659e-05
-7.18706e-07
-7.22256e-07
5.82669e-07
4.92111e-07
5.38844e-05
-6.84912e-07
4.57157e-07
4.6406e-07
5.76835e-05
3.20957e-07
4.63768e-07
6.05809e-05
1.63439e-07
4.51329e-07
6.25357e-05
2.633e-09
4.50778e-07
6.352e-05
-1.58582e-07
4.50589e-07
6.352e-05
-3.16733e-07
4.50951e-07
6.25357e-05
-4.53588e-07
4.63202e-07
6.05809e-05
-5.80255e-07
4.62789e-07
5.76835e-05
4.90615e-07
5.38844e-05
-6.83376e-07
5.86934e-07
3.38629e-07
5.70252e-05
-6.80751e-07
4.57399e-07
3.26381e-07
6.05809e-05
3.17078e-07
3.222e-07
6.32944e-05
1.61328e-07
3.14973e-07
6.51259e-05
2.26772e-09
3.12304e-07
6.60483e-05
-1.56989e-07
3.12254e-07
6.60483e-05
-3.13315e-07
3.14697e-07
6.51258e-05
-4.54495e-07
3.21533e-07
6.32944e-05
-5.84526e-07
3.25528e-07
6.05809e-05
3.37436e-07
5.70252e-05
-6.78649e-07
5.63509e-07
1.7094e-07
5.91433e-05
-6.53668e-07
4.45231e-07
1.67097e-07
6.25357e-05
3.10035e-07
1.6478e-07
6.51258e-05
1.5934e-07
1.62814e-07
6.68746e-05
2.09394e-09
1.61526e-07
6.77556e-05
-1.55406e-07
1.61419e-07
6.77556e-05
-3.0675e-07
1.62541e-07
6.68746e-05
-4.42425e-07
1.64319e-07
6.51258e-05
-5.61276e-07
1.66203e-07
6.25356e-05
1.69916e-07
5.91433e-05
-6.51434e-07
5.64845e-07
4.23413e-09
6.02096e-05
-6.61154e-07
4.44761e-07
4.16965e-09
6.35199e-05
3.07568e-07
4.22418e-09
6.60483e-05
1.58091e-07
4.21652e-09
6.77556e-05
1.92602e-09
4.18411e-09
6.86159e-05
-1.54407e-07
4.11516e-09
6.86159e-05
-3.04487e-07
3.90616e-09
6.77556e-05
-4.42297e-07
3.66473e-09
6.60482e-05
-5.62723e-07
3.46463e-09
6.35198e-05
3.24263e-09
6.02096e-05
-6.5906e-07
5.64999e-07
-1.62298e-07
6.02097e-05
-6.61377e-07
4.45015e-07
-1.58404e-07
6.35199e-05
3.07717e-07
-1.56274e-07
6.60483e-05
1.58135e-07
-1.54256e-07
6.77556e-05
1.85081e-09
-1.53019e-07
6.86159e-05
-1.54675e-07
-1.53175e-07
6.86159e-05
-3.04836e-07
-1.54621e-07
6.77556e-05
-4.42646e-07
-1.56865e-07
6.60482e-05
-5.63089e-07
-1.59277e-07
6.35198e-05
-1.63343e-07
6.02096e-05
-6.59395e-07
5.64146e-07
-3.29564e-07
5.91434e-05
-6.54289e-07
4.45774e-07
-3.1764e-07
6.25357e-05
3.10536e-07
-3.13457e-07
6.51259e-05
1.59461e-07
-3.06307e-07
6.68746e-05
1.73988e-09
-3.03793e-07
6.77556e-05
-1.56131e-07
-3.0389e-07
6.77556e-05
-3.07795e-07
-3.06816e-07
6.68746e-05
-4.43601e-07
-3.14139e-07
6.51258e-05
-5.62335e-07
-3.1845e-07
6.25356e-05
-3.3067e-07
5.91433e-05
-6.52617e-07
5.87982e-07
-4.82842e-07
5.70253e-05
-6.8172e-07
4.58504e-07
-4.55246e-07
6.0581e-05
3.17801e-07
-4.55126e-07
6.32944e-05
1.61418e-07
-4.42765e-07
6.51259e-05
1.717e-09
-4.42206e-07
6.60482e-05
-1.5835e-07
-4.42483e-07
6.60482e-05
-3.15117e-07
-4.43078e-07
6.51258e-05
-4.56355e-07
-4.55799e-07
6.32943e-05
-5.86282e-07
-4.55955e-07
6.05808e-05
-4.83843e-07
5.70251e-05
-6.80196e-07
5.84183e-07
-6.12733e-07
5.38846e-05
-6.86443e-07
4.58733e-07
-5.81847e-07
5.76836e-05
3.21858e-07
-5.85751e-07
6.0581e-05
1.63636e-07
-5.62124e-07
6.25357e-05
1.52674e-09
-5.63411e-07
6.35199e-05
-1.60395e-07
-5.63436e-07
6.35199e-05
-3.19397e-07
-5.62512e-07
6.25356e-05
-4.56521e-07
-5.86082e-07
6.05808e-05
-5.82676e-07
-5.82147e-07
5.76834e-05
-6.13292e-07
5.38843e-05
-6.85306e-07
6.15253e-07
4.97661e-05
-7.19238e-07
-7.20196e-07
4.86491e-07
5.38846e-05
-6.85164e-07
3.33904e-07
5.70253e-05
-6.80345e-07
1.67329e-07
5.91434e-05
-6.53242e-07
1.61645e-09
6.02096e-05
-6.60517e-07
-1.64264e-07
6.02096e-05
-6.60739e-07
-3.3115e-07
5.91433e-05
-6.5343e-07
-4.84106e-07
5.70251e-05
-6.80652e-07
-6.13892e-07
5.38843e-05
-6.8495e-07
4.97658e-05
-7.19546e-07
-7.18965e-07
6.04272e-07
6.09337e-07
4.99772e-05
-7.09181e-07
-7.12105e-07
4.83777e-07
5.77426e-07
5.4114e-05
-6.8406e-07
3.30462e-07
5.67055e-07
5.72687e-05
-6.5456e-07
1.66677e-07
5.4159e-07
5.93962e-05
-6.27969e-07
1.0977e-09
5.40225e-07
6.04672e-05
-6.29614e-07
-1.64652e-07
5.40396e-07
6.04673e-05
-6.29965e-07
-3.28474e-07
5.42163e-07
5.93963e-05
-6.28931e-07
-4.82366e-07
5.67919e-07
5.7269e-05
-6.56197e-07
-6.02877e-07
5.78918e-07
5.41143e-05
-6.86428e-07
6.10567e-07
4.99776e-05
-7.10071e-07
-7.12947e-07
5.72944e-07
4.90208e-07
5.4114e-05
-6.80932e-07
4.50009e-07
4.55146e-07
5.79301e-05
3.12253e-07
4.46293e-07
6.08408e-05
1.58402e-07
4.28025e-07
6.28046e-05
1.22548e-09
4.25543e-07
6.37933e-05
-1.56166e-07
4.25613e-07
6.37934e-05
-3.10438e-07
4.28349e-07
6.28047e-05
-4.48515e-07
4.47007e-07
6.0841e-05
-5.71882e-07
4.55805e-07
5.79303e-05
4.90836e-07
5.41143e-05
-6.80785e-07
5.62358e-07
3.36229e-07
5.72687e-05
-6.49865e-07
4.41651e-07
3.16917e-07
6.08408e-05
3.06175e-07
3.10351e-07
6.3567e-05
1.55313e-07
2.98942e-07
6.5407e-05
1.17377e-09
2.95232e-07
6.63338e-05
-1.53086e-07
2.95308e-07
6.63338e-05
-3.04273e-07
2.99092e-07
6.54071e-05
-4.40173e-07
3.10504e-07
6.35671e-05
-5.6094e-07
3.17114e-07
6.08409e-05
3.36229e-07
5.72688e-05
-6.49064e-07
5.36461e-07
1.70997e-07
5.93961e-05
-6.22297e-07
4.23402e-07
1.62077e-07
6.28045e-05
2.9491e-07
1.58549e-07
6.5407e-05
1.51043e-07
1.54199e-07
6.71642e-05
1.14939e-09
1.52339e-07
6.80494e-05
-1.48897e-07
1.523e-07
6.80494e-05
-2.93111e-07
1.54123e-07
6.71642e-05
-4.21774e-07
1.58434e-07
6.5407e-05
-5.35044e-07
1.61683e-07
6.28045e-05
1.70523e-07
5.93961e-05
-6.21344e-07
5.34954e-07
3.67223e-09
6.0467e-05
-6.23595e-07
4.20822e-07
3.56256e-09
6.37932e-05
2.91298e-07
3.53941e-09
6.63337e-05
1.49223e-07
3.47759e-09
6.80494e-05
1.05673e-09
3.40381e-09
6.89138e-05
-1.47187e-07
3.3344e-09
6.89138e-05
-2.89551e-07
3.16762e-09
6.80494e-05
-4.19368e-07
2.99598e-09
6.63337e-05
-5.33569e-07
2.88684e-09
6.37932e-05
2.78914e-09
6.04671e-05
-6.22572e-07
5.35057e-07
-1.63513e-07
6.0467e-05
-6.23783e-07
4.21016e-07
-1.5474e-07
6.37932e-05
2.91399e-07
-1.51528e-07
6.63337e-05
1.49227e-07
-1.47224e-07
6.80493e-05
9.81415e-10
-1.45431e-07
6.89138e-05
-1.4741e-07
-1.45649e-07
6.89138e-05
-2.89829e-07
-1.4774e-07
6.80493e-05
-4.19632e-07
-1.52361e-07
6.63337e-05
-5.33817e-07
-1.55932e-07
6.37932e-05
-1.64931e-07
6.0467e-05
-6.22762e-07
5.36898e-07
-3.28703e-07
5.9396e-05
-6.22916e-07
4.23795e-07
-3.09876e-07
6.28044e-05
2.95258e-07
-3.03391e-07
6.54069e-05
1.51098e-07
-2.92002e-07
6.71641e-05
7.95179e-10
-2.88419e-07
6.80493e-05
-1.49519e-07
-2.88627e-07
6.80493e-05
-2.93929e-07
-2.92707e-07
6.71641e-05
-4.22676e-07
-3.04499e-07
6.54069e-05
-5.35817e-07
-3.11294e-07
6.28044e-05
-3.30543e-07
5.9396e-05
-6.22098e-07
5.63083e-07
-4.83168e-07
5.72686e-05
-6.50633e-07
4.42546e-07
-4.48587e-07
6.08407e-05
3.06757e-07
-4.39794e-07
6.35668e-05
1.5534e-07
-4.21333e-07
6.54069e-05
6.34208e-10
-4.18813e-07
6.63336e-05
-1.54154e-07
-4.19053e-07
6.63336e-05
-3.05726e-07
-4.22036e-07
6.54069e-05
-4.41605e-07
-4.40945e-07
6.35668e-05
-5.6221e-07
-4.50172e-07
6.08407e-05
-4.85246e-07
5.72686e-05
-6.50044e-07
5.74242e-07
-6.03772e-07
5.4114e-05
-6.82105e-07
4.51447e-07
-5.72135e-07
5.793e-05
3.13196e-07
-5.61074e-07
6.08407e-05
1.58545e-07
-5.35118e-07
6.28043e-05
4.47938e-10
-5.33587e-07
6.3793e-05
-1.57715e-07
-5.33831e-07
6.37931e-05
-3.12502e-07
-5.35767e-07
6.28043e-05
-4.50823e-07
-5.62127e-07
6.08407e-05
-5.73691e-07
-5.73535e-07
5.793e-05
-6.05688e-07
5.4114e-05
-6.8188e-07
6.06093e-07
4.99772e-05
-7.0931e-07
-7.10288e-07
4.86189e-07
5.41139e-05
-6.80825e-07
3.32081e-07
5.72685e-05
-6.49383e-07
1.67178e-07
5.93959e-05
-6.2188e-07
2.35608e-10
6.04669e-05
-6.23087e-07
-1.66706e-07
6.04669e-05
-6.23379e-07
-3.31669e-07
5.93959e-05
-6.2267e-07
-4.85779e-07
5.72686e-05
-6.50611e-07
-6.05825e-07
5.4114e-05
-6.82335e-07
4.99773e-05
-7.10569e-07
-7.1083e-07
6.40248e-07
6.44776e-07
5.01998e-05
-7.53122e-07
-7.55235e-07
5.10726e-07
6.08668e-07
5.43554e-05
-7.21308e-07
3.48749e-07
5.91562e-07
5.75245e-05
-6.8547e-07
1.77201e-07
5.66384e-07
5.96615e-05
-6.6038e-07
1.69725e-09
5.6292e-07
6.07374e-05
-6.57407e-07
-1.74057e-07
5.62677e-07
6.07375e-05
-6.57093e-07
-3.45678e-07
5.65799e-07
5.96617e-05
-6.59119e-07
-5.08686e-07
5.90436e-07
5.75247e-05
-6.8352e-07
-6.38779e-07
6.07569e-07
5.43558e-05
-7.19196e-07
6.43171e-07
5.02002e-05
-7.51702e-07
-7.5303e-07
6.04983e-07
5.15727e-07
5.43554e-05
-7.1755e-07
4.75464e-07
4.79238e-07
5.81889e-05
3.27858e-07
4.66778e-07
6.11131e-05
1.66696e-07
4.46345e-07
6.30859e-05
1.34089e-09
4.42652e-07
6.40793e-05
-1.6416e-07
4.42482e-07
6.40794e-05
-3.25691e-07
4.45865e-07
6.30861e-05
-4.7371e-07
4.66115e-07
6.11134e-05
-6.03629e-07
4.78184e-07
5.81893e-05
5.1415e-07
5.43558e-05
-7.15928e-07
5.87628e-07
3.52196e-07
5.75243e-05
-6.80198e-07
4.63373e-07
3.30777e-07
6.11131e-05
3.21103e-07
3.23776e-07
6.38521e-05
1.63118e-07
3.1068e-07
6.57008e-05
1.05318e-09
3.06792e-07
6.66319e-05
-1.6114e-07
3.0668e-07
6.6632e-05
-3.19385e-07
3.10364e-07
6.5701e-05
-4.61973e-07
3.23225e-07
6.38524e-05
-5.86376e-07
3.29918e-07
6.11134e-05
3.50926e-07
5.75247e-05
-6.78804e-07
5.6255e-07
1.79261e-07
5.96613e-05
-6.5505e-07
4.43081e-07
1.68544e-07
6.30858e-05
3.08105e-07
1.64865e-07
6.57007e-05
1.57476e-07
1.59213e-07
6.74663e-05
8.59152e-10
1.57246e-07
6.83557e-05
-1.55829e-07
1.57174e-07
6.83558e-05
-3.06725e-07
1.58951e-07
6.74665e-05
-4.41891e-07
1.64387e-07
6.5701e-05
-5.61466e-07
1.67775e-07
6.30862e-05