/*--------------------------------*- C++ -*----------------------------------*\
| =========                 |                                                 |
| \\      /  F ield         | OpenFOAM: The Open Source CFD Toolbox           |
|  \\    /   O peration     | Version:  2406                                  |
|   \\  /    A nd           | Website:  www.openfoam.com                      |
|    \\/     M anipulation  |                                                 |
\*---------------------------------------------------------------------------*/
FoamFile
{
    version     2.0;
    format      ascii;
    arch        "LSB;label=32;scalar=64";
    class       volScalarField;
    location    "400";
    object      turbulenceProperties:I;
}
// * * * * * * * * * * * * * * * * * * * * * * * * * * * * * * * * * * * * * //

dimensions      [0 0 0 0 0 0 0];

internalField   nonuniform List<scalar> 
25000
(
0.00497208
0.00486287
0.00466821
0.00462635
0.0046056
0.00460607
0.00462738
0.004668
0.0048774
0.00498746
0.00486489
0.00481243
0.00460023
0.00448421
0.00442689
0.00442647
0.00448248
0.00459705
0.00480462
0.0048746
0.00467034
0.00460213
0.00443143
0.00432541
0.00427277
0.00427248
0.00432437
0.00442884
0.0045959
0.00466595
0.00462768
0.00448494
0.00432583
0.00421934
0.00416557
0.0041655
0.00421872
0.00432417
0.00448218
0.00462573
0.00460637
0.00442762
0.00427302
0.00416569
0.00411142
0.00411136
0.00416533
0.00427224
0.00442597
0.00460483
0.00460628
0.00442688
0.00427272
0.00416546
0.00411134
0.00411132
0.00416535
0.00427228
0.004426
0.00460498
0.00462735
0.00448285
0.00432443
0.00421879
0.00416541
0.00416545
0.00421874
0.00432423
0.00448229
0.00462614
0.00466764
0.00459637
0.00442912
0.00432442
0.00427233
0.00427234
0.00432439
0.00442897
0.00459606
0.00466661
0.00487646
0.00480492
0.00459719
0.00448237
0.00442607
0.00442607
0.00448237
0.00459708
0.00480472
0.00487547
0.00498782
0.00487491
0.0046659
0.00462565
0.00460476
0.00460497
0.00462616
0.00466671
0.00487605
0.00498724
0.00577965
0.00568748
0.00549147
0.00545056
0.00542902
0.00542912
0.00545077
0.00549178
0.00567966
0.00575929
0.00568712
0.00553331
0.00542331
0.00537768
0.00534774
0.00534807
0.00537891
0.00542869
0.00553662
0.00567918
0.00549008
0.00542591
0.00533095
0.00529249
0.00527169
0.00527195
0.00529376
0.00533274
0.00542568
0.0054925
0.0054501
0.00537749
0.0052928
0.00524715
0.00522355
0.00522397
0.00524771
0.00529351
0.00537915
0.00545183
0.00542907
0.00534759
0.00527164
0.0052238
0.00520101
0.00520111
0.00522388
0.00527231
0.00534872
0.0054303
0.00542933
0.00534807
0.00527193
0.00522373
0.00520114
0.00520121
0.00522394
0.00527235
0.00534874
0.0054303
0.00545107
0.0053788
0.00529336
0.00524776
0.0052242
0.00522424
0.00524788
0.00529361
0.00537919
0.00545183
0.00549188
0.00542557
0.00533277
0.00529399
0.00527239
0.00527241
0.00529405
0.00533291
0.00542578
0.00549253
0.00567858
0.00553668
0.00542891
0.00537936
0.00534876
0.00534876
0.00537939
0.00542897
0.00553677
0.00567917
0.00575949
0.00568066
0.00549282
0.00545192
0.00543036
0.00543031
0.0054518
0.00549265
0.00568041
0.00575968
0.00544672
0.00526606
0.00515083
0.00508469
0.00505497
0.00505509
0.0050851
0.00515152
0.00526604
0.00543982
0.00526748
0.0050948
0.00504942
0.00501502
0.00499027
0.00499055
0.0050164
0.00505564
0.00509709
0.00526469
0.00515057
0.00505369
0.0049856
0.00494991
0.00492706
0.00492736
0.00495129
0.00498703
0.00505134
0.00515167
0.00508444
0.00501529
0.00495048
0.00491201
0.004888
0.00488851
0.00491251
0.00495083
0.00501633
0.00508565
0.0050548
0.00499012
0.0049271
0.00488836
0.00486817
0.00486828
0.00488831
0.00492765
0.00499105
0.00505566
0.00505506
0.0049905
0.00492726
0.00488815
0.00486829
0.00486835
0.00488836
0.00492768
0.00499107
0.00505565
0.00508516
0.00501597
0.00495065
0.00491249
0.0048887
0.00488874
0.00491265
0.00495091
0.00501638
0.00508563
0.00515127
0.00505119
0.00498699
0.00495143
0.00492769
0.00492773
0.00495153
0.00498718
0.00505142
0.00515165
0.00526443
0.00509719
0.00505583
0.00501674
0.00499108
0.00499108
0.00501675
0.00505588
0.00509723
0.00526463
0.00543971
0.00526663
0.00515215
0.00508574
0.00505573
0.00505569
0.00508564
0.00515204
0.00526645
0.00543996
0.00469571
0.00443166
0.00437608
0.00429377
0.0042644
0.00426429
0.00429376
0.0043767
0.00443179
0.00468978
0.00443299
0.00426655
0.00424582
0.00420166
0.00417891
0.00417907
0.00420279
0.00425179
0.004268
0.0044299
0.00437626
0.00425062
0.0041845
0.0041334
0.00410355
0.00410383
0.0041347
0.00418555
0.00424718
0.00437651
0.00429363
0.00420218
0.0041341
0.00408693
0.00405681
0.00405733
0.00408735
0.0041341
0.00420251
0.00429413
0.00426435
0.00417889
0.00410365
0.0040572
0.00403131
0.00403138
0.00405701
0.00410393
0.00417934
0.00426468
0.00426444
0.00417906
0.00410377
0.00405698
0.0040314
0.00403142
0.00405702
0.00410392
0.00417932
0.00426467
0.00429389
0.00420228
0.00413402
0.00408736
0.00405746
0.00405744
0.00408737
0.00413406
0.00420243
0.0042941
0.00437635
0.004247
0.00418551
0.00413476
0.00410399
0.00410397
0.00413473
0.0041855
0.00424706
0.00437647
0.00442999
0.00426799
0.00425191
0.00420299
0.00417932
0.00417929
0.00420289
0.00425182
0.00426794
0.00443
0.0046902
0.0044322
0.00437726
0.00429425
0.00426468
0.00426457
0.00429398
0.00437689
0.00443183
0.00468994
0.00407604
0.00380258
0.00376063
0.00367046
0.00364025
0.00363983
0.0036693
0.00376008
0.0038026
0.00407148
0.00380386
0.00364537
0.0036094
0.00354406
0.00351889
0.00351889
0.00354467
0.00361441
0.00364548
0.00380056
0.00376088
0.00361414
0.00353262
0.00345511
0.00341603
0.0034163
0.00345637
0.00353346
0.00360979
0.00375967
0.00366991
0.00354444
0.00345571
0.0033865
0.00334647
0.00334697
0.00338695
0.00345566
0.00354416
0.00366948
0.00363994
0.00351868
0.003416
0.00334678
0.00330827
0.00330832
0.00334654
0.00341617
0.00351889
0.00363991
0.00363972
0.00351868
0.00341609
0.00334654
0.0033083
0.00330829
0.00334648
0.0034161
0.0035188
0.00363983
0.00366913
0.00354384
0.00345553
0.00338685
0.00334691
0.00334687
0.00338678
0.00345547
0.00354394
0.0036693
0.00375925
0.00360937
0.00353323
0.0034562
0.00341616
0.00341613
0.00345613
0.00353319
0.00360945
0.0037594
0.00380037
0.00364523
0.00361435
0.00354461
0.0035188
0.00351876
0.0035445
0.00361423
0.00364522
0.00380045
0.00407166
0.00380268
0.00376041
0.00366954
0.00363986
0.00363976
0.00366925
0.00376001
0.00380236
0.00407148
0.0036794
0.00344845
0.00340418
0.00332104
0.00329218
0.00329167
0.00331912
0.0034016
0.00344643
0.00367313
0.0034501
0.00332387
0.00326852
0.00319467
0.00316835
0.00316839
0.00319525
0.00327282
0.00332238
0.00344474
0.00340438
0.00327327
0.00318781
0.00310004
0.0030596
0.00305985
0.00310126
0.0031885
0.00326815
0.00340141
0.00332041
0.00319507
0.00310061
0.00302073
0.00297838
0.00297879
0.00302102
0.00310051
0.00319465
0.00331943
0.00329182
0.00316815
0.0030596
0.00297872
0.00293502
0.00293499
0.00297832
0.00305968
0.00316843
0.00329184
0.00329144
0.00316814
0.00305965
0.00297843
0.00293502
0.00293496
0.00297827
0.00305962
0.00316833
0.00329171
0.00331886
0.0031943
0.00310042
0.003021
0.00297876
0.0029787
0.00302087
0.00310034
0.00319441
0.00331916
0.00340073
0.00326772
0.00318833
0.00310115
0.00305974
0.00305969
0.00310103
0.00318825
0.00326779
0.00340101
0.00344432
0.00332222
0.00327287
0.00319524
0.00316838
0.00316833
0.00319508
0.00327269
0.00332214
0.00344449
0.0036734
0.00344695
0.00340229
0.00331953
0.00329181
0.00329171
0.00331917
0.00340175
0.00344644
0.00367312
0.00347055
0.00330803
0.00326219
0.00318834
0.00316199
0.003162
0.00318765
0.00326044
0.0033064
0.00346477
0.00331061
0.00322246
0.00315677
0.00308667
0.00306157
0.00306201
0.0030885
0.00316261
0.00322188
0.00330505
0.00326305
0.00316202
0.00308535
0.00300466
0.0029701
0.00297047
0.00300635
0.00308682
0.0031577
0.0032605
0.00318837
0.00308758
0.00300545
0.00293273
0.00289719
0.0028976
0.00293307
0.00300563
0.0030879
0.00318825
0.00316191
0.00306164
0.00297027
0.00289763
0.0028609
0.00286088
0.00289723
0.0029705
0.00306236
0.00316262
0.00316179
0.00306181
0.00297031
0.00289728
0.00286092
0.0028609
0.00289723
0.00297046
0.00306226
0.00316245
0.00318733
0.00308738
0.00300543
0.00293303
0.0028977
0.00289769
0.00293303
0.00300552
0.00308767
0.00318784
0.00325941
0.00315709
0.00308657
0.00300627
0.00297054
0.00297054
0.00300628
0.00308665
0.00315733
0.00325989
0.0033042
0.00322148
0.00316253
0.00308847
0.00306223
0.00306225
0.00308847
0.00316256
0.00322164
0.00330453
0.00346506
0.00330711
0.00326127
0.00318817
0.00316248
0.00316242
0.00318794
0.00326086
0.00330669
0.0034647
0.00338962
0.00328504
0.00323838
0.00317552
0.00315188
0.0031523
0.00317609
0.00323843
0.00328472
0.00338567
0.00328811
0.00322542
0.0031596
0.00309861
0.00307487
0.00307544
0.00310096
0.0031666
0.00322564
0.00328333
0.00323997
0.00316542
0.00309931
0.00302891
0.00299965
0.00299997
0.00303055
0.00310084
0.00316123
0.0032382
0.00317606
0.00309991
0.00302993
0.0029661
0.00293642
0.00293681
0.00296625
0.00302981
0.0031002
0.00317649
0.00315185
0.00307509
0.00299999
0.00293695
0.00290734
0.00290733
0.0029365
0.00300008
0.00307572
0.00315267
0.00315202
0.00307529
0.00299988
0.00293651
0.00290738
0.0029074
0.00293654
0.00300009
0.00307569
0.00315251
0.00317571
0.00309985
0.00302965
0.00296627
0.00293703
0.00293706
0.00296637
0.00302984
0.00310013
0.00317608
0.00323713
0.00316085
0.00310073
0.0030306
0.0030002
0.00300024
0.00303071
0.00310092
0.00316113
0.00323758
0.00328221
0.00322539
0.00316658
0.00310102
0.00307572
0.00307578
0.00310115
0.00316677
0.00322562
0.00328266
0.00338534
0.00328524
0.00323897
0.00317638
0.00315257
0.00315261
0.00317638
0.00323889
0.00328509
0.00338531
0.00334536
0.00327638
0.00323325
0.00318189
0.00316082
0.00316131
0.00318316
0.00323496
0.00327794
0.00334286
0.00327994
0.00323421
0.00317599
0.00312445
0.00310189
0.00310233
0.00312674
0.00318358
0.00323531
0.00327635
0.00323548
0.00318236
0.00312526
0.0030632
0.00303705
0.00303725
0.00306452
0.00312635
0.00317788
0.00323451
0.00318269
0.003126
0.00306433
0.00300685
0.00298021
0.0029806
0.00300676
0.00306362
0.00312576
0.00318338
0.00316079
0.00310212
0.00303734
0.00298072
0.00295538
0.00295537
0.00298018
0.00303715
0.0031023
0.00316137
0.00316114
0.0031022
0.00303707
0.00298019
0.0029554
0.00295541
0.00298018
0.00303713
0.00310226
0.00316123
0.00318299
0.00312565
0.00306355
0.00300679
0.00298076
0.00298077
0.0030068
0.00306359
0.00312561
0.00318296
0.00323376
0.00317769
0.00312634
0.00306457
0.00303737
0.00303737
0.00306455
0.00312631
0.00317765
0.00323388
0.00327559
0.00323517
0.00318365
0.00312677
0.00310238
0.0031024
0.00312677
0.00318362
0.0032351
0.00327569
0.00334265
0.00327826
0.00323531
0.00318325
0.00316129
0.00316132
0.0031833
0.0032353
0.00327824
0.00334275
0.00329588
0.00324722
0.00321094
0.00316928
0.00314992
0.00315013
0.00317016
0.00321311
0.00324959
0.00329422
0.00325079
0.0032186
0.00317028
0.00312607
0.00310443
0.00310461
0.00312782
0.00317768
0.00321988
0.00324796
0.00321333
0.00317684
0.00312684
0.00307084
0.00304643
0.00304654
0.00307183
0.00312734
0.00317171
0.00321252
0.00316986
0.00312757
0.00307201
0.00301927
0.00299424
0.00299466
0.00301909
0.00307084
0.00312666
0.00317029
0.0031497
0.00310455
0.0030467
0.00299474
0.00297198
0.002972
0.0029942
0.00304636
0.00310437
0.00314985
0.00314998
0.00310449
0.00304635
0.00299421
0.00297201
0.00297201
0.0029942
0.00304636
0.00310435
0.00314972
0.00317008
0.00312676
0.00307091
0.00301914
0.00299481
0.00299482
0.0030191
0.00307085
0.00312659
0.00316982
0.00321186
0.00317175
0.00312747
0.00307194
0.00304665
0.00304664
0.00307188
0.00312736
0.00317157
0.00321177
0.00324712
0.00321998
0.00317794
0.00312796
0.0031046
0.00310459
0.0031279
0.00317778
0.00321974
0.00324705
0.00329371
0.00324999
0.00321353
0.00317027
0.00314987
0.00314986
0.00317022
0.00321335
0.00324971
0.00329366
0.00323606
0.00319878
0.00317134
0.00313748
0.00311949
0.00311945
0.00313795
0.00317371
0.00320219
0.00323568
0.00320235
0.00318408
0.00314483
0.0031058
0.00308504
0.00308505
0.00310717
0.00315194
0.00318544
0.00320048
0.00317374
0.00315151
0.00310699
0.00305534
0.00303201
0.00303215
0.00305626
0.0031071
0.00314585
0.0031731
0.0031378
0.00310719
0.00305642
0.00300728
0.00298323
0.00298377
0.00300726
0.00305517
0.00310594
0.00313816
0.00311912
0.00308493
0.00303205
0.0029836
0.00296245
0.00296254
0.00298324
0.00303187
0.00308478
0.00311924
0.00311923
0.00308469
0.0030317
0.00298312
0.00296248
0.00296253
0.00298322
0.00303188
0.00308478
0.00311916
0.00313777
0.00310578
0.00305507
0.00300717
0.00298384
0.00298387
0.00300724
0.00305517
0.00310588
0.00313777
0.00317235
0.00314557
0.00310705
0.00305622
0.00303217
0.00303219
0.00305628
0.00310712
0.00314572
0.00317249
0.00319972
0.00318519
0.003152
0.00310722
0.00308499
0.00308501
0.00310728
0.00315209
0.00318535
0.00319976
0.00323559
0.0032025
0.00317414
0.00313814
0.00311926
0.00311921
0.00313811
0.00317403
0.00320239
0.00323532
0.00317951
0.00314168
0.00312174
0.00309355
0.00307635
0.00307593
0.00309302
0.00312319
0.00314453
0.00317943
0.00314506
0.00313867
0.0031066
0.00307115
0.00305103
0.00305085
0.00307188
0.00311272
0.00313889
0.00314269
0.00312394
0.00311313
0.0030729
0.00302449
0.0030018
0.00300194
0.00302527
0.00307245
0.00310643
0.00312232
0.00309354
0.00307231
0.00302548
0.00297911
0.00295564
0.00295623
0.00297917
0.0030241
0.00307048
0.00309307
0.00307582
0.00305078
0.00300175
0.00295597
0.0029357
0.0029358
0.00295564
0.00300159
0.00305046
0.00307554
0.00307559
0.00305042
0.00300143
0.00295555
0.00293574
0.00293578
0.00295563
0.00300161
0.00305049
0.00307548
0.00309262
0.00307038
0.00302407
0.00297911
0.00295628
0.00295632
0.00297916
0.00302415
0.0030705
0.00309274
0.00312147
0.00310624
0.00307247
0.00302527
0.003002
0.00300202
0.00302534
0.00307258
0.00310643
0.00312175
0.00314168
0.00313871
0.00311285
0.00307204
0.00305086
0.00305086
0.0030721
0.00311296
0.00313894
0.00314198
0.00317878
0.00314456
0.00312347
0.00309323
0.00307571
0.00307568
0.00309325
0.00312355
0.00314474
0.00317893
0.00313529
0.00308088
0.0030662
0.00304231
0.003026
0.00302543
0.00304132
0.00306702
0.00308349
0.00313551
0.00308425
0.00308769
0.0030613
0.00302867
0.0030093
0.00300914
0.00302927
0.00306688
0.00308714
0.00308148
0.00306829
0.00306781
0.00303137
0.00298569
0.00296359
0.00296382
0.00298659
0.00303074
0.00306048
0.00306595
0.00304228
0.00302984
0.00298666
0.00294262
0.00291965
0.00292028
0.00294279
0.00298531
0.00302775
0.0030413
0.00302569
0.00300918
0.00296353
0.00291996
0.00290027
0.00290034
0.00291959
0.00296335
0.00300876
0.0030252
0.00302531
0.00300882
0.00296335
0.00291963
0.00290032
0.00290029
0.00291955
0.00296335
0.00300877
0.00302518
0.00304105
0.00302781
0.00298545
0.00294286
0.00292037
0.00292032
0.00294272
0.0029853
0.00302771
0.00304109
0.00306544
0.00306047
0.00303091
0.0029867
0.00296394
0.00296388
0.00298657
0.00303075
0.00306039
0.00306555
0.00308094
0.00308714
0.00306717
0.00302957
0.0030093
0.00300922
0.00302941
0.00306701
0.00308708
0.00308101
0.0031352
0.0030836
0.00306745
0.00304174
0.00302549
0.0030254
0.00304161
0.00306739
0.00308375
0.00313538
0.00311677
0.00302484
0.00301011
0.00298887
0.00297325
0.0029726
0.00298745
0.00301008
0.00302632
0.0031167
0.00302785
0.00303524
0.00301323
0.00298296
0.00296433
0.00296423
0.00298353
0.00301829
0.00303365
0.00302419
0.00301193
0.00301954
0.00298666
0.00294344
0.00292188
0.00292219
0.00294448
0.00298597
0.0030117
0.00300868
0.00298873
0.00298408
0.00294441
0.00290248
0.00287997
0.0028806
0.0029027
0.00294315
0.00298183
0.00298721
0.002973
0.00296428
0.0029219
0.00288032
0.00286104
0.00286105
0.00287985
0.00292169
0.00296385
0.00297236
0.00297249
0.00296397
0.00292181
0.00288003
0.00286107
0.00286099
0.00287981
0.00292171
0.00296389
0.00297236
0.00298702
0.00298198
0.00294339
0.00290285
0.00288068
0.0028806
0.00290262
0.00294315
0.00298187
0.00298706
0.00300826
0.00301183
0.0029862
0.00294463
0.00292233
0.00292225
0.00294443
0.00298598
0.00301169
0.0030083
0.0030236
0.0030338
0.0030186
0.00298384
0.00296446
0.00296436
0.00298362
0.00301836
0.00303365
0.00302364
0.00311622
0.00302656
0.00301051
0.00298784
0.00297269
0.00297258
0.00298763
0.0030103
0.00302648
0.00311633
0.00311848
0.00297764
0.00295584
0.00293575
0.00292097
0.00292052
0.00293469
0.0029558
0.00297891
0.00311828
0.0029805
0.00298363
0.0029651
0.00293719
0.00291956
0.00291969
0.00293827
0.00297041
0.00298193
0.0029766
0.00295744
0.00297136
0.00294213
0.00290138
0.0028805
0.00288093
0.00290275
0.0029418
0.00296371
0.00295413
0.00293561
0.00293838
0.00290235
0.00286247
0.00284049
0.00284113
0.00286279
0.00290134
0.00293644
0.00293429
0.00292085
0.0029196
0.00288053
0.00284085
0.00282198
0.00282194
0.00284032
0.0028804
0.00291942
0.00292054
0.00292045
0.00291939
0.00288053
0.00284058
0.00282199
0.00282188
0.0028403
0.00288042
0.00291948
0.0029206
0.00293415
0.00293653
0.00290157
0.00286296
0.00284122
0.00284112
0.00286273
0.00290137
0.00293654
0.00293434
0.00295392
0.0029638
0.00294195
0.00290285
0.00288108
0.002881
0.00290269
0.0029418
0.00296378
0.00295402
0.00297636
0.00298206
0.0029706
0.00293848
0.00292001
0.00291993
0.00293831
0.00297044
0.002982
0.00297636
0.00311822
0.00297928
0.00295622
0.00293505
0.00292085
0.00292075
0.00293486
0.00295601
0.00297918
0.00311819
0.00310345
0.00294649
0.00290666
0.00288509
0.00287074
0.00287057
0.00288461
0.00290698
0.00294753
0.0031028
0.00294916
0.00293405
0.00291766
0.00289209
0.00287556
0.00287595
0.00289383
0.0029236
0.00293267
0.00294503
0.00290812
0.00292386
0.00289828
0.00285999
0.00283983
0.00284036
0.00286168
0.00289846
0.00291672
0.00290488
0.00288499
0.00289343
0.00286106
0.0028232
0.00280172
0.00280231
0.0028235
0.00286026
0.00289184
0.00288391
0.00287073
0.00287576
0.00284003
0.00280216
0.00278364
0.00278353
0.00280151
0.00283988
0.00287576
0.00287065
0.00287049
0.0028757
0.00284006
0.00280185
0.00278362
0.00278348
0.00280152
0.00283994
0.00287586
0.00287074
0.00288387
0.00289195
0.00286048
0.0028237
0.00280241
0.00280234
0.00282351
0.00286036
0.00289203
0.00288408
0.00290484
0.00291686
0.00289853
0.00286173
0.00284054
0.0028405
0.00286167
0.00289851
0.0029169
0.00290492
0.00294485
0.00293282
0.00292361
0.00289388
0.00287631
0.00287628
0.00289382
0.00292354
0.00293277
0.00294487
0.00310271
0.00294788
0.00290716
0.00288472
0.0028709
0.00287085
0.0028846
0.00290698
0.00294771
0.00310265
0.00294046
0.00293329
0.00286481
0.00283823
0.00282374
0.00282402
0.00283887
0.00286628
0.00293525
0.00294055
0.0029359
0.00288842
0.0028721
0.00284874
0.00283339
0.00283404
0.00285119
0.00287887
0.00288784
0.00293244
0.00286629
0.00287839
0.00285637
0.00282051
0.00280111
0.00280168
0.00282239
0.00285697
0.00287191
0.00286378
0.00283839
0.00285035
0.0028217
0.00278581
0.00276484
0.00276533
0.00278596
0.00282092
0.00284908
0.0028379
0.00282398
0.00283382
0.00280144
0.00276533
0.00274717
0.00274696
0.00276447
0.00280114
0.00283387
0.0028242
0.00282404
0.00283384
0.00280142
0.00276492
0.00274708
0.00274691
0.00276449
0.00280119
0.00283395
0.00282432
0.00283811
0.0028492
0.00282112
0.00278615
0.0027654
0.00276532
0.00278597
0.00282099
0.00284923
0.00283819
0.00286412
0.00287205
0.00285694
0.00282234
0.00280178
0.00280175
0.00282231
0.00285691
0.00287203
0.00286404
0.00293271
0.00288796
0.00287869
0.00285104
0.00283434
0.00283432
0.002851
0.00287861
0.00288782
0.00293254
0.00294087
0.00293552
0.0028662
0.00283871
0.00282435
0.00282433
0.00283861
0.002866
0.00293529
0.00294066
0.00249093
0.00293291
0.00283439
0.00279758
0.00278134
0.0027819
0.00279889
0.00283656
0.0029352
0.00249
0.00293533
0.0028487
0.00282874
0.00280703
0.00279268
0.00279346
0.00280985
0.00283601
0.00284864
0.00293218
0.00283584
0.00283502
0.00281593
0.00278236
0.00276365
0.00276419
0.00278423
0.00281673
0.00282897
0.00283374
0.00279785
0.00280879
0.00278366
0.00274965
0.00272915
0.00272951
0.00274957
0.00278275
0.00280761
0.00279767
0.00278163
0.00279321
0.00276412
0.0027297
0.00271188
0.0027116
0.00272865
0.00276363
0.00279321
0.00278196
0.00278187
0.00279323
0.00276397
0.00272915
0.00271172
0.00271155
0.00272869
0.00276368
0.00279328
0.00278207
0.002798
0.00280774
0.00278289
0.00274972
0.00272954
0.0027295
0.00274962
0.00278283
0.00280778
0.00279796
0.00283421
0.00282912
0.00281659
0.00278408
0.0027642
0.00276421
0.00278414
0.00281666
0.0028291
0.00283403
0.00293252
0.00284875
0.00283567
0.00280952
0.00279363
0.00279364
0.00280956
0.00283564
0.00284858
0.00293229
0.0024903
0.00293539
0.00283626
0.00279847
0.00278206
0.00278205
0.00279837
0.002836
0.00293502
0.00248984
0.00366102
0.00291083
0.00281606
0.00276452
0.00274474
0.00274558
0.0027666
0.0028192
0.00291413
0.00365693
0.0029132
0.00281646
0.00278809
0.00276712
0.00275367
0.00275459
0.00277035
0.00279597
0.00281726
0.002911
0.00281759
0.00279447
0.00277721
0.00274578
0.00272782
0.00272835
0.0027477
0.00277823
0.00278898
0.00281627
0.00276497
0.00276907
0.00274715
0.002715
0.00269501
0.00269531
0.00271479
0.0027462
0.00276808
0.00276533
0.00274509
0.00275425
0.00272831
0.00269558
0.00267817
0.00267787
0.00269447
0.00272776
0.0027543
0.00274569
0.00274548
0.00275422
0.00272803
0.00269492
0.00267799
0.00267786
0.00269453
0.0027278
0.00275434
0.00274578
0.00276562
0.00276803
0.00274618
0.00271484
0.00269532
0.00269534
0.00271488
0.00274627
0.00276819
0.00276564
0.00281682
0.00278894
0.0027779
0.0027474
0.00272828
0.00272834
0.0027476
0.00277813
0.00278909
0.00281668
0.00291157
0.00281722
0.00279546
0.00276985
0.00275465
0.00275472
0.00277002
0.0027956
0.00281723
0.00291135
0.00365723
0.00291427
0.0028188
0.00276607
0.00274574
0.00274576
0.00276605
0.00281862
0.00291394
0.00365689
0.00646111
0.00278802
0.00280668
0.00274104
0.0027157
0.00271659
0.0027433
0.00281014
0.00279144
0.00645645
0.00279021
0.00279248
0.00275113
0.00272915
0.00271618
0.00271708
0.00273238
0.00275909
0.00279349
0.0027884
0.00280837
0.00275755
0.00273995
0.00271037
0.00269307
0.00269354
0.00271216
0.00274089
0.00275212
0.00280715
0.00274165
0.00273121
0.00271181
0.00268139
0.00266189
0.00266212
0.00268101
0.00271065
0.00273003
0.00274192
0.002716
0.00271674
0.00269359
0.00266247
0.0026455
0.00264519
0.00266131
0.00269289
0.00271659
0.00271644
0.00271632
0.00271658
0.00269316
0.00266171
0.00264529
0.00264519
0.00266138
0.00269292
0.00271659
0.00271648
0.00274215
0.00272992
0.00271051
0.00268097
0.00266211
0.00266218
0.00268111
0.00271067
0.00273007
0.00274214
0.00280758
0.00275198
0.00274043
0.00271175
0.00269339
0.00269349
0.00271205
0.00274077
0.00275219
0.00280751
0.00278895
0.00279336
0.00275845
0.00273174
0.00271696
0.00271707
0.00273201
0.00275871
0.00279345
0.0027888
0.00645642
0.00279145
0.00280954
0.00274257
0.00271649
0.00271658
0.0027427
0.00280957
0.00279118
0.00645639
0.00987831
0.00250337
0.00278819
0.00272512
0.00269415
0.00269499
0.00272733
0.00279164
0.00250671
0.00987305
0.00250529
0.00277212
0.00271909
0.00269365
0.00268063
0.00268144
0.00269665
0.00272678
0.00277303
0.00250381
0.00279002
0.00272559
0.00270461
0.00267653
0.00265983
0.0026602
0.00267804
0.00270519
0.00271991
0.00278883
0.00272596
0.00269585
0.002678
0.00264921
0.00263021
0.00263039
0.00264862
0.00267648
0.00269426
0.002726
0.00269457
0.00268125
0.00266037
0.00263082
0.00261431
0.00261398
0.00262954
0.0026594
0.0026807
0.00269469
0.00269483
0.00268099
0.00265984
0.00263001
0.00261412
0.00261401
0.0026296
0.00265937
0.00268065
0.00269468
0.00272641
0.00269435
0.00267646
0.00264868
0.00263043
0.00263047
0.00264869
0.00267642
0.00269417
0.00272613
0.00278947
0.00271998
0.0027049
0.00267774
0.00266005
0.00266011
0.00267788
0.00270498
0.00271986
0.00278911
0.00250526
0.00277318
0.00272641
0.00269617
0.00268127
0.00268132
0.00269626
0.0027264
0.00277294
0.00250444
0.00987304
0.0025071
0.00279127
0.00272679
0.0026949
0.00269496
0.00272684
0.00279123
0.00250645
0.00987306
0.0137791
0.00299861
0.00271756
0.00270807
0.00267672
0.00267739
0.0027099
0.00272049
0.00299985
0.0137736
0.00300048
0.00274011
0.00269215
0.00266035
0.00264659
0.00264731
0.00266319
0.00269964
0.00274108
0.0029964
0.0027192
0.00269863
0.00267044
0.00264333
0.0026272
0.00262754
0.00264472
0.00267086
0.0026929
0.00271819
0.00270894
0.00266262
0.00264487
0.00261761
0.00259916
0.00259933
0.00261699
0.00264323
0.00266086
0.00270882
0.00267711
0.00264726
0.00262786
0.00259984
0.00258383
0.00258354
0.00259859
0.00262681
0.00264656
0.00267707
0.00267732
0.002647
0.00262733
0.0025991
0.00258374
0.00258364
0.00259868
0.0026268
0.00264651
0.00267704
0.00270932
0.00266119
0.00264343
0.00261722
0.00259959
0.00259959
0.00261715
0.00264322
0.00266082
0.00270887
0.00271909
0.00269337
0.00267096
0.00264475
0.00262763
0.00262764
0.00264473
0.0026708
0.00269295
0.00271837
0.00299673
0.00274182
0.0026998
0.00266311
0.00264737
0.00264735
0.00266302
0.0026995
0.00274119
0.00299688
0.0137737
0.00299938
0.00272095
0.0027099
0.00267749
0.00267746
0.0027097
0.00272049
0.00299973
0.0137737
0.0179781
0.00488433
0.00253877
0.00266708
0.00265255
0.00265326
0.00266922
0.00254244
0.00488596
0.0179728
0.00488723
0.00266603
0.00266995
0.0026301
0.00261486
0.00261565
0.00263321
0.00267793
0.002668
0.00488104
0.00254022
0.00267653
0.00263825
0.00261128
0.00259573
0.00259616
0.00261292
0.00263899
0.0026713
0.0025406
0.00266797
0.00263241
0.00261279
0.00258691
0.00256915
0.00256946
0.00258661
0.00261148
0.00263098
0.00266841
0.00265282
0.00261539
0.00259625
0.00256975
0.00255439
0.00255424
0.00256885
0.00259557
0.00261503
0.00265318
0.00265311
0.00261513
0.00259576
0.0025691
0.00255439
0.00255441
0.00256898
0.0025956
0.00261505
0.00265322
0.00266871
0.00263108
0.00261149
0.00258674
0.0025698
0.00256987
0.0025869
0.00261162
0.00263112
0.00266866
0.00254152
0.00267167
0.00263907
0.00261297
0.00259639
0.00259644
0.00261314
0.00263921
0.00267167
0.00254119
0.00488056
0.0026687
0.00267815
0.00263323
0.00261584
0.0026159
0.00263334
0.0026782
0.00266861
0.00488094
0.0179728
0.00488451
0.00254324
0.00266955
0.00265364
0.00265361
0.00266942
0.00254296
0.00488511
0.0179729
0.0222694
0.00732887
0.00247774
0.00256608
0.00259785
0.00259854
0.00256827
0.00248085
0.00733106
0.0222651
0.00733298
0.00252176
0.00264937
0.00260302
0.00258533
0.00258613
0.00260624
0.00265769
0.00252445
0.00732472
0.00247905
0.00265587
0.00260832
0.00257998
0.00256473
0.00256524
0.00258187
0.00260944
0.00265116
0.00247825
0.00256658
0.00260512
0.00258137
0.0025565
0.00253939
0.00253983
0.00255655
0.00258048
0.00260406
0.00256751
0.00259768
0.00258548
0.00256497
0.00253983
0.0025251
0.0025251
0.00253931
0.00256472
0.00258551
0.00259836
0.00259791
0.00258513
0.00256442
0.00253917
0.0025251
0.00252524
0.00253938
0.00256471
0.0025855
0.00259839
0.00256725
0.00260353
0.00257994
0.00255627
0.00253998
0.00254016
0.00255672
0.00258052
0.0026041
0.00256769
0.00247847
0.00265079
0.00260897
0.00258153
0.00256524
0.00256539
0.00258197
0.00260956
0.00265139
0.00247884
0.00732482
0.00252419
0.00265731
0.00260586
0.00258602
0.00258617
0.00260624
0.00265784
0.00252475
0.00732465
0.0222649
0.00732999
0.00248048
0.00256812
0.00259852
0.00259859
0.0025683
0.00247997
0.00732998
0.0222652
0.026475
0.0101679
0.00346625
0.00241442
0.00248358
0.00248426
0.00241646
0.00346793
0.0101706
0.0264721
0.0101728
0.0024117
0.00262183
0.00257847
0.00255823
0.00255899
0.00258158
0.00263011
0.00241311
0.0101633
0.00346887
0.00262821
0.00258195
0.00255021
0.00253482
0.00253534
0.0025521
0.00258314
0.00262379
0.0034635
0.00241468
0.00258045
0.0025515
0.00252711
0.00251059
0.00251108
0.00252727
0.00255069
0.00257943
0.00241541
0.00248331
0.00255826
0.00253492
0.00251093
0.00249679
0.00249684
0.00251051
0.00253473
0.00255826
0.00248386
0.00248357
0.00255785
0.00253435
0.00251025
0.00249675
0.0024969
0.00251049
0.00253463
0.00255817
0.00248382
0.00241551
0.00257873
0.00254998
0.0025268
0.00251105
0.0025112
0.00252719
0.00255048
0.00257919
0.00241543
0.00346467
0.00262306
0.00258243
0.00255155
0.00253511
0.00253522
0.00255188
0.00258289
0.00262351
0.00346486
0.010164
0.0024131
0.00262949
0.00258103
0.00255864
0.00255873
0.00258126
0.00262985
0.00241278
0.010164
0.0264714
0.0101699
0.00346787
0.00241592
0.00248389
0.00248395
0.00241595
0.00346648
0.0101698
0.0264721
0.0304688
0.0133142
0.00520743
0.0026325
0.00236551
0.00236595
0.00263355
0.00520979
0.0133176
0.0304676
0.0133195
0.00291982
0.00257423
0.00255412
0.00253294
0.00253354
0.00255676
0.00258169
0.00291762
0.0133102
0.00521126
0.0025803
0.00256044
0.00252267
0.00250648
0.00250691
0.00252427
0.0025612
0.00257559
0.00520442
0.00263349
0.00255604
0.00252396
0.00249922
0.00248311
0.00248355
0.00249919
0.00252281
0.00255453
0.00263152
0.00236551
0.00253304
0.00250664
0.00248348
0.00246985
0.00246987
0.00248293
0.00250619
0.00253264
0.00236497
0.00236563
0.0025326
0.00250607
0.00248282
0.00246981
0.00246991
0.0024829
0.00250611
0.00253257
0.00236501
0.00263277
0.00255425
0.00252241
0.00249889
0.00248355
0.00248364
0.0024991
0.00252262
0.00255436
0.0026323
0.00520538
0.0025753
0.00256081
0.00252392
0.00250671
0.00250676
0.00252405
0.00256097
0.00257536
0.00520613
0.0133105
0.00291865
0.00258151
0.00255646
0.00253323
0.00253325
0.00255649
0.00258153
0.00291805
0.0133109
0.030466
0.0133168
0.00520975
0.00263348
0.00236551
0.00236547
0.00263285
0.00520851
0.0133169
0.0304672
0.0341771
0.0166544
0.00732437
0.00370499
0.00271212
0.00271243
0.00370623
0.00732769
0.0166582
0.034177
0.0166597
0.00415614
0.00249257
0.00252353
0.00250641
0.00250692
0.00252589
0.00249929
0.00415368
0.016651
0.00732897
0.0024983
0.00254395
0.00249775
0.00248
0.00248038
0.00249916
0.00254438
0.00249348
0.00732169
0.00370697
0.00252551
0.00249909
0.0024729
0.00245708
0.0024575
0.00247276
0.00249768
0.00252367
0.00370387
0.00271284
0.00250669
0.00248028
0.0024575
0.00244434
0.00244434
0.00245689
0.00247966
0.00250602
0.00271143
0.0027125
0.00250623
0.00247974
0.00245689
0.00244434
0.00244442
0.0024569
0.00247964
0.00250602
0.00271169
0.0037047
0.00252376
0.00249762
0.0024727
0.00245763
0.00245769
0.00247281
0.00249768
0.0025237
0.00370498
0.00732219
0.0024937
0.00254438
0.00249911
0.00248038
0.0024804
0.00249916