/*--------------------------------*- C++ -*----------------------------------*\
| =========                 |                                                 |
| \\      /  F ield         | OpenFOAM: The Open Source CFD Toolbox           |
|  \\    /   O peration     | Version:  2406                                  |
|   \\  /    A nd           | Website:  www.openfoam.com                      |
|    \\/     M anipulation  |                                                 |
\*---------------------------------------------------------------------------*/
FoamFile
{
    version     2.0;
    format      ascii;
    arch        "LSB;label=32;scalar=64";
    class       volScalarField;
    location    "400";
    object      turbulenceProperties:epsilon;
}
// * * * * * * * * * * * * * * * * * * * * * * * * * * * * * * * * * * * * * //

dimensions      [0 2 -3 0 0 0 0];

internalField   nonuniform List<scalar> 
25000
(
1.06068e-06
9.69443e-07
8.2261e-07
7.93071e-07
7.78732e-07
7.79046e-07
7.93769e-07
8.2244e-07
9.81033e-07
1.07379e-06
9.71039e-07
9.28693e-07
7.74763e-07
6.99127e-07
6.63878e-07
6.6362e-07
6.98036e-07
7.72595e-07
9.22653e-07
9.78789e-07
8.24111e-07
7.76029e-07
6.66565e-07
6.04696e-07
5.75639e-07
5.75478e-07
6.0411e-07
6.65001e-07
7.71829e-07
8.20994e-07
7.93985e-07
6.99582e-07
6.0493e-07
5.47222e-07
5.19715e-07
5.19677e-07
5.46899e-07
6.04e-07
6.97849e-07
7.92628e-07
7.79251e-07
6.64312e-07
5.75772e-07
5.19776e-07
4.93077e-07
4.93046e-07
5.19592e-07
5.75349e-07
6.63317e-07
7.78199e-07
7.79187e-07
6.63866e-07
5.75608e-07
5.19657e-07
4.93038e-07
4.93029e-07
5.19601e-07
5.75367e-07
6.63335e-07
7.78296e-07
7.93745e-07
6.98271e-07
6.04146e-07
5.46935e-07
5.19634e-07
5.1965e-07
5.46909e-07
6.04034e-07
6.97919e-07
7.9291e-07
8.22194e-07
7.72148e-07
6.65167e-07
6.04136e-07
5.75395e-07
5.754e-07
6.0412e-07
6.65074e-07
7.71935e-07
8.21464e-07
9.80284e-07
9.22882e-07
7.72685e-07
6.97966e-07
6.63379e-07
6.6338e-07
6.97965e-07
7.72614e-07
9.22731e-07
9.7949e-07
1.07411e-06
9.79031e-07
8.20964e-07
7.92579e-07
7.78151e-07
7.78294e-07
7.92929e-07
8.21529e-07
9.79949e-07
1.0736e-06
2.06268e-06
1.92671e-06
1.66967e-06
1.61733e-06
1.59038e-06
1.5905e-06
1.61758e-06
1.67004e-06
1.91612e-06
2.03378e-06
1.92619e-06
1.71861e-06
1.58099e-06
1.52526e-06
1.49003e-06
1.49041e-06
1.52667e-06
1.58723e-06
1.72273e-06
1.9155e-06
1.66797e-06
1.58397e-06
1.47108e-06
1.42597e-06
1.40216e-06
1.40244e-06
1.42734e-06
1.47306e-06
1.58377e-06
1.67092e-06
1.61678e-06
1.52505e-06
1.42631e-06
1.37463e-06
1.34855e-06
1.34898e-06
1.37521e-06
1.42708e-06
1.52693e-06
1.61884e-06
1.59043e-06
1.48986e-06
1.4021e-06
1.3488e-06
1.32391e-06
1.32401e-06
1.34889e-06
1.40282e-06
1.49112e-06
1.59188e-06
1.59074e-06
1.49039e-06
1.40241e-06
1.34874e-06
1.32404e-06
1.32411e-06
1.34895e-06
1.40286e-06
1.49115e-06
1.59188e-06
1.61794e-06
1.52654e-06
1.42691e-06
1.37526e-06
1.34922e-06
1.34926e-06
1.37539e-06
1.42719e-06
1.52699e-06
1.61884e-06
1.67016e-06
1.58364e-06
1.4731e-06
1.42759e-06
1.4029e-06
1.40292e-06
1.42765e-06
1.47324e-06
1.58388e-06
1.67096e-06
1.91468e-06
1.7228e-06
1.58748e-06
1.52717e-06
1.49117e-06
1.49118e-06
1.5272e-06
1.58756e-06
1.72292e-06
1.91548e-06
2.03406e-06
1.91747e-06
1.6713e-06
1.61895e-06
1.59194e-06
1.59189e-06
1.6188e-06
1.6711e-06
1.91713e-06
2.03432e-06
1.73227e-06
1.50677e-06
1.37448e-06
1.3023e-06
1.27068e-06
1.27081e-06
1.30274e-06
1.37526e-06
1.50682e-06
1.72363e-06
1.5084e-06
1.31342e-06
1.26243e-06
1.22525e-06
1.19971e-06
1.19999e-06
1.22661e-06
1.26865e-06
1.31583e-06
1.50529e-06
1.37421e-06
1.26666e-06
1.19488e-06
1.15788e-06
1.1351e-06
1.13537e-06
1.15918e-06
1.19628e-06
1.26438e-06
1.37543e-06
1.30205e-06
1.22551e-06
1.15841e-06
1.11962e-06
1.09634e-06
1.09679e-06
1.12009e-06
1.15876e-06
1.22656e-06
1.30332e-06
1.27051e-06
1.19957e-06
1.13513e-06
1.09666e-06
1.07707e-06
1.07717e-06
1.09662e-06
1.13566e-06
1.20049e-06
1.2714e-06
1.27079e-06
1.19995e-06
1.13528e-06
1.09647e-06
1.07717e-06
1.07723e-06
1.09666e-06
1.13569e-06
1.20051e-06
1.2714e-06
1.30281e-06
1.2262e-06
1.15859e-06
1.12007e-06
1.09697e-06
1.09701e-06
1.12022e-06
1.15885e-06
1.22661e-06
1.3033e-06
1.37501e-06
1.26423e-06
1.19624e-06
1.15932e-06
1.13569e-06
1.13572e-06
1.15941e-06
1.19642e-06
1.26448e-06
1.37542e-06
1.50499e-06
1.31593e-06
1.26884e-06
1.22696e-06
1.20051e-06
1.20052e-06
1.22697e-06
1.2689e-06
1.31598e-06
1.50523e-06
1.72349e-06
1.5075e-06
1.37595e-06
1.30342e-06
1.27147e-06
1.27143e-06
1.30332e-06
1.37583e-06
1.5073e-06
1.72381e-06
9.97496e-07
7.88045e-07
7.46875e-07
6.90788e-07
6.71361e-07
6.713e-07
6.9079e-07
7.47317e-07
7.88166e-07
9.92522e-07
7.88996e-07
6.73764e-07
6.58344e-07
6.29832e-07
6.15544e-07
6.15642e-07
6.30515e-07
6.62037e-07
6.74704e-07
7.86833e-07
7.47003e-07
6.61298e-07
6.1864e-07
5.87426e-07
5.69887e-07
5.70044e-07
5.88169e-07
6.19273e-07
6.59203e-07
7.47197e-07
6.90706e-07
6.30142e-07
5.87821e-07
5.5989e-07
5.42817e-07
5.43098e-07
5.60126e-07
5.87831e-07
6.30354e-07
6.91039e-07
6.71337e-07
6.15537e-07
5.69943e-07
5.43026e-07
5.28535e-07
5.28575e-07
5.42932e-07
5.70106e-07
6.15811e-07
6.71555e-07
6.71396e-07
6.15642e-07
5.70014e-07
5.4291e-07
5.28584e-07
5.28598e-07
5.42936e-07
5.70101e-07
6.15798e-07
6.7155e-07
6.90878e-07
6.30214e-07
5.8779e-07
5.60135e-07
5.43168e-07
5.43161e-07
5.60137e-07
5.87816e-07
6.30309e-07
6.91022e-07
7.47083e-07
6.5909e-07
6.19252e-07
5.88208e-07
5.7014e-07
5.7013e-07
5.88188e-07
6.19246e-07
6.5913e-07
7.47171e-07
7.86894e-07
6.74699e-07
6.62118e-07
6.30638e-07
6.15796e-07
6.15778e-07
6.3058e-07
6.62065e-07
6.74669e-07
7.86905e-07
9.92877e-07
7.88466e-07
7.4771e-07
6.9112e-07
6.71555e-07
6.71489e-07
6.90946e-07
7.47457e-07
7.88201e-07
9.92666e-07
5.8027e-07
4.37954e-07
4.17751e-07
3.78367e-07
3.657e-07
3.65531e-07
3.77888e-07
4.17511e-07
4.3797e-07
5.77695e-07
4.38544e-07
3.68275e-07
3.5273e-07
3.27118e-07
3.17556e-07
3.17554e-07
3.27345e-07
3.54686e-07
3.68322e-07
4.37031e-07
4.1786e-07
3.54577e-07
3.22425e-07
2.94308e-07
2.8086e-07
2.8095e-07
2.94736e-07
3.22732e-07
3.52888e-07
4.17331e-07
3.78141e-07
3.27257e-07
2.94509e-07
2.70893e-07
2.57967e-07
2.58121e-07
2.71037e-07
2.94496e-07
3.27159e-07
3.77967e-07
3.65578e-07
3.17478e-07
2.80852e-07
2.58063e-07
2.46048e-07
2.46064e-07
2.57989e-07
2.80908e-07
3.17557e-07
3.65568e-07
3.65491e-07
3.17478e-07
2.80881e-07
2.57991e-07
2.46057e-07
2.46053e-07
2.57972e-07
2.80888e-07
3.17526e-07
3.65535e-07
3.77822e-07
3.27037e-07
2.94452e-07
2.71006e-07
2.58103e-07
2.58092e-07
2.70983e-07
2.94434e-07
3.27078e-07
3.77894e-07
4.17143e-07
3.52723e-07
3.2265e-07
2.94679e-07
2.80905e-07
2.80895e-07
2.94655e-07
3.22635e-07
3.52755e-07
4.17212e-07
4.36941e-07
3.68224e-07
3.54662e-07
3.27324e-07
3.17526e-07
3.1751e-07
3.27281e-07
3.54615e-07
3.68219e-07
4.36982e-07
5.77795e-07
4.38009e-07
4.1766e-07
3.77991e-07
3.65547e-07
3.65507e-07
3.77872e-07
4.1748e-07
4.3786e-07
5.77695e-07
3.91697e-07
3.01359e-07
2.85468e-07
2.58131e-07
2.49047e-07
2.48894e-07
2.57533e-07
2.84606e-07
3.00661e-07
3.89034e-07
3.01944e-07
2.59106e-07
2.41503e-07
2.1993e-07
2.1254e-07
2.1255e-07
2.20089e-07
2.42771e-07
2.58643e-07
3.00067e-07
2.85538e-07
2.42906e-07
2.17734e-07
1.94266e-07
1.84107e-07
1.84167e-07
1.94572e-07
2.17923e-07
2.41396e-07
2.84543e-07
2.57933e-07
2.2004e-07
1.94409e-07
1.74692e-07
1.64891e-07
1.6498e-07
1.74759e-07
1.94385e-07
2.19926e-07
2.57631e-07
2.48938e-07
2.12486e-07
1.84105e-07
1.64966e-07
1.55289e-07
1.55284e-07
1.64878e-07
1.84126e-07
2.1256e-07
2.48945e-07
2.48824e-07
2.12482e-07
1.84119e-07
1.64902e-07
1.55289e-07
1.55277e-07
1.64867e-07
1.84111e-07
2.12533e-07
2.48906e-07
2.57454e-07
2.1983e-07
1.94363e-07
1.74753e-07
1.64974e-07
1.64961e-07
1.74725e-07
1.94343e-07
2.1986e-07
2.57545e-07
2.84314e-07
2.41269e-07
2.17877e-07
1.94543e-07
1.84139e-07
1.84128e-07
1.94514e-07
2.17854e-07
2.41289e-07
2.84408e-07
2.9992e-07
2.58594e-07
2.42788e-07
2.20086e-07
2.12548e-07
2.12534e-07
2.20044e-07
2.42732e-07
2.58569e-07
2.9998e-07
3.89149e-07
3.00842e-07
2.84837e-07
2.57662e-07
2.48936e-07
2.48904e-07
2.5755e-07
2.84654e-07
3.00663e-07
3.89033e-07
3.14708e-07
2.59224e-07
2.44628e-07
2.22856e-07
2.15398e-07
2.154e-07
2.22663e-07
2.44107e-07
2.58722e-07
3.12618e-07
2.6004e-07
2.32641e-07
2.13613e-07
1.94864e-07
1.88405e-07
1.88516e-07
1.95327e-07
2.15196e-07
2.32474e-07
2.58293e-07
2.44884e-07
2.15036e-07
1.94268e-07
1.74336e-07
1.6626e-07
1.66343e-07
1.74727e-07
1.94639e-07
2.13866e-07
2.44123e-07
2.22864e-07
1.95092e-07
1.74516e-07
1.57846e-07
1.5015e-07
1.50235e-07
1.57919e-07
1.74561e-07
1.95176e-07
2.22831e-07
2.15375e-07
1.88422e-07
1.66299e-07
1.5024e-07
1.42584e-07
1.4258e-07
1.5016e-07
1.66351e-07
1.886e-07
2.1557e-07
2.15344e-07
1.88464e-07
1.66308e-07
1.50169e-07
1.42588e-07
1.42584e-07
1.50158e-07
1.66342e-07
1.88576e-07
2.15524e-07
2.22573e-07
1.95044e-07
1.74513e-07
1.57912e-07
1.50256e-07
1.50252e-07
1.57912e-07
1.74536e-07
1.95117e-07
2.22716e-07
2.43795e-07
2.13702e-07
1.94576e-07
1.74709e-07
1.66359e-07
1.66358e-07
1.7471e-07
1.94595e-07
2.13767e-07
2.43938e-07
2.58025e-07
2.32358e-07
2.15173e-07
1.95319e-07
1.88569e-07
1.88573e-07
1.95319e-07
2.15182e-07
2.32404e-07
2.58128e-07
3.12722e-07
2.58944e-07
2.44352e-07
2.2281e-07
2.15531e-07
2.15515e-07
2.22744e-07
2.4423e-07
2.5881e-07
3.12592e-07
2.90905e-07
2.56296e-07
2.41608e-07
2.23059e-07
2.16321e-07
2.16437e-07
2.23222e-07
2.4163e-07
2.56211e-07
2.89557e-07
2.57265e-07
2.37512e-07
2.1811e-07
2.01355e-07
1.95059e-07
1.95203e-07
2.01968e-07
2.20052e-07
2.3758e-07
2.55767e-07
2.42085e-07
2.19722e-07
2.01276e-07
1.83197e-07
1.76021e-07
1.76098e-07
1.83595e-07
2.01677e-07
2.18565e-07
2.41559e-07
2.23212e-07
2.01693e-07
1.83442e-07
1.68068e-07
1.61247e-07
1.61333e-07
1.68102e-07
1.83416e-07
2.0177e-07
2.23334e-07
2.16312e-07
1.95114e-07
1.76101e-07
1.61363e-07
1.54756e-07
1.54755e-07
1.61264e-07
1.76124e-07
1.95275e-07
2.16539e-07
2.1636e-07
1.95164e-07
1.76075e-07
1.61265e-07
1.54765e-07
1.54769e-07
1.61274e-07
1.76127e-07
1.95266e-07
2.16495e-07
2.23114e-07
2.01679e-07
1.83376e-07
1.68106e-07
1.61379e-07
1.61387e-07
1.6813e-07
1.83425e-07
2.01753e-07
2.23219e-07
2.41238e-07
2.18458e-07
2.01646e-07
1.83607e-07
1.76152e-07
1.76162e-07
1.83633e-07
2.01698e-07
2.18535e-07
2.41373e-07
2.55416e-07
2.37506e-07
2.20047e-07
2.01982e-07
1.95273e-07
1.95289e-07
2.02016e-07
2.20099e-07
2.37574e-07
2.5556e-07
2.89444e-07
2.56371e-07
2.4179e-07
2.23303e-07
2.16513e-07
2.16522e-07
2.23305e-07
2.41768e-07
2.56325e-07
2.89437e-07
2.80654e-07
2.58101e-07
2.44436e-07
2.2897e-07
2.22802e-07
2.22943e-07
2.29338e-07
2.44961e-07
2.58611e-07
2.79824e-07
2.59237e-07
2.44509e-07
2.26794e-07
2.12026e-07
2.05765e-07
2.05882e-07
2.12647e-07
2.28976e-07
2.44845e-07
2.58095e-07
2.45114e-07
2.28624e-07
2.11981e-07
1.95213e-07
1.88418e-07
1.88469e-07
1.95549e-07
2.12281e-07
2.27337e-07
2.4482e-07
2.29201e-07
2.12445e-07
1.95498e-07
1.8081e-07
1.74277e-07
1.74367e-07
1.80789e-07
1.95319e-07
2.12382e-07
2.29403e-07
2.22795e-07
2.05825e-07
1.88491e-07
1.74397e-07
1.68328e-07
1.68325e-07
1.7427e-07
1.88444e-07
2.05875e-07
2.2296e-07
2.22895e-07
2.05846e-07
1.88425e-07
1.74272e-07
1.68331e-07
1.68335e-07
1.74272e-07
1.88441e-07
2.05863e-07
2.22922e-07
2.29288e-07
2.12353e-07
1.95302e-07
1.80796e-07
1.74406e-07
1.74408e-07
1.80798e-07
1.95313e-07
2.12342e-07
2.29282e-07
2.44591e-07
2.27283e-07
2.12277e-07
1.9556e-07
1.88498e-07
1.88499e-07
1.95557e-07
2.1227e-07
2.27271e-07
2.4463e-07
2.57857e-07
2.44803e-07
2.28997e-07
2.12657e-07
2.05896e-07
2.05901e-07
2.12657e-07
2.28988e-07
2.44782e-07
2.57889e-07
2.79751e-07
2.5871e-07
2.45066e-07
2.29364e-07
2.22937e-07
2.22946e-07
2.29379e-07
2.45065e-07
2.58705e-07
2.79788e-07
2.68979e-07
2.53571e-07
2.42199e-07
2.29615e-07
2.2391e-07
2.2397e-07
2.29872e-07
2.42862e-07
2.54331e-07
2.68441e-07
2.54705e-07
2.44349e-07
2.29472e-07
2.16545e-07
2.10411e-07
2.1046e-07
2.17032e-07
2.31633e-07
2.44742e-07
2.53804e-07
2.42928e-07
2.31386e-07
2.16504e-07
2.00973e-07
1.9444e-07
1.9447e-07
2.01232e-07
2.16642e-07
2.29889e-07
2.42677e-07
2.29784e-07
2.16963e-07
2.01278e-07
1.87366e-07
1.81013e-07
1.81114e-07
1.87322e-07
2.00974e-07
2.1671e-07
2.29911e-07
2.23849e-07
2.10443e-07
1.9451e-07
1.81133e-07
1.75465e-07
1.7547e-07
1.81003e-07
1.94423e-07
2.10395e-07
2.23892e-07
2.2393e-07
2.10428e-07
1.94422e-07
1.81006e-07
1.75472e-07
1.75475e-07
1.81004e-07
1.94424e-07
2.10391e-07
2.23855e-07
2.29849e-07
2.16738e-07
2.00991e-07
1.87334e-07
1.81151e-07
1.81153e-07
1.87326e-07
2.00974e-07
2.16691e-07
2.29774e-07
2.42479e-07
2.299e-07
2.16681e-07
2.0126e-07
1.94497e-07
1.94496e-07
2.01244e-07
2.1665e-07
2.29848e-07
2.42453e-07
2.53543e-07
2.44773e-07
2.31709e-07
2.17072e-07
2.10458e-07
2.10454e-07
2.17054e-07
2.31662e-07
2.44699e-07
2.53519e-07
2.68276e-07
2.54458e-07
2.4299e-07
2.29906e-07
2.23898e-07
2.23895e-07
2.2989e-07
2.42934e-07
2.5437e-07
2.68259e-07
2.54286e-07
2.43121e-07
2.34784e-07
2.24717e-07
2.19484e-07
2.19473e-07
2.24855e-07
2.35496e-07
2.4418e-07
2.5417e-07
2.44227e-07
2.38471e-07
2.26468e-07
2.15066e-07
2.09181e-07
2.09186e-07
2.15447e-07
2.28536e-07
2.38881e-07
2.4364e-07
2.35502e-07
2.2841e-07
2.15156e-07
2.0078e-07
1.94503e-07
1.9454e-07
2.01021e-07
2.15188e-07
2.26764e-07
2.35307e-07
2.2481e-07
2.15452e-07
2.01062e-07
1.88004e-07
1.81845e-07
1.81975e-07
1.87999e-07
2.00734e-07
2.15106e-07
2.24914e-07
2.1938e-07
2.09153e-07
1.94512e-07
1.81935e-07
1.76605e-07
1.76627e-07
1.81848e-07
1.94468e-07
2.09112e-07
2.19415e-07
2.19411e-07
2.09089e-07
1.94422e-07
1.81818e-07
1.76613e-07
1.76626e-07
1.81844e-07
1.94469e-07
2.09112e-07
2.19391e-07
2.24802e-07
2.15061e-07
2.00709e-07
1.87977e-07
1.81993e-07
1.81999e-07
1.87994e-07
2.00736e-07
2.15088e-07
2.24802e-07
2.35086e-07
2.26683e-07
2.15174e-07
2.0101e-07
1.94543e-07
1.94549e-07
2.01025e-07
2.15194e-07
2.26724e-07
2.35125e-07
2.43407e-07
2.38805e-07
2.28555e-07
2.15462e-07
2.09169e-07
2.09174e-07
2.15479e-07
2.28581e-07
2.38854e-07
2.43422e-07
2.54141e-07
2.44274e-07
2.35624e-07
2.2491e-07
2.1942e-07
2.19408e-07
2.24901e-07
2.35592e-07
2.44241e-07
2.54058e-07
2.41027e-07
2.30278e-07
2.24508e-07
2.16375e-07
2.11506e-07
2.11389e-07
2.16227e-07
2.24936e-07
2.31136e-07
2.41004e-07
2.3129e-07
2.29375e-07
2.19768e-07
2.09577e-07
2.03961e-07
2.03915e-07
2.09779e-07
2.21521e-07
2.29442e-07
2.30575e-07
2.25152e-07
2.21637e-07
2.09838e-07
1.96521e-07
1.90485e-07
1.90523e-07
1.96726e-07
2.09718e-07
2.19719e-07
2.24676e-07
2.16372e-07
2.09895e-07
1.96779e-07
1.8457e-07
1.78611e-07
1.78752e-07
1.84585e-07
1.96421e-07
2.09394e-07
2.16241e-07
2.1136e-07
2.03894e-07
1.90473e-07
1.78689e-07
1.73619e-07
1.73644e-07
1.78611e-07
1.90433e-07
2.03812e-07
2.11284e-07
2.11295e-07
2.03799e-07
1.90393e-07
1.78588e-07
1.73629e-07
1.73637e-07
1.78608e-07
1.9044e-07
2.03819e-07
2.11267e-07
2.16113e-07
2.09366e-07
1.96412e-07
1.84568e-07
1.78766e-07
1.78773e-07
1.84581e-07
1.96434e-07
2.09401e-07
2.16147e-07
2.24431e-07
2.19665e-07
2.09721e-07
1.96726e-07
1.90537e-07
1.90543e-07
1.96743e-07
2.09752e-07
2.19719e-07
2.24514e-07
2.30277e-07
2.29389e-07
2.21557e-07
2.09822e-07
2.03918e-07
2.03918e-07
2.09838e-07
2.21591e-07
2.29455e-07
2.30366e-07
2.40809e-07
2.31145e-07
2.25019e-07
2.16287e-07
2.11329e-07
2.11321e-07
2.16293e-07
2.25042e-07
2.31199e-07
2.40854e-07
2.3179e-07
2.167e-07
2.12733e-07
2.0611e-07
2.01656e-07
2.01503e-07
2.05842e-07
2.12974e-07
2.17459e-07
2.31855e-07
2.17675e-07
2.18778e-07
2.11111e-07
2.01965e-07
1.9669e-07
1.96647e-07
2.02128e-07
2.12673e-07
2.18624e-07
2.1687e-07
2.13325e-07
2.12931e-07
2.02497e-07
1.90191e-07
1.84428e-07
1.84485e-07
1.90419e-07
2.0233e-07
2.10884e-07
2.12665e-07
2.06103e-07
2.02282e-07
1.90436e-07
1.79053e-07
1.73324e-07
1.73475e-07
1.79094e-07
1.90093e-07
2.0172e-07
2.05837e-07
2.01572e-07
1.96658e-07
1.84413e-07
1.73398e-07
1.68558e-07
1.68573e-07
1.73311e-07
1.84368e-07
1.96548e-07
2.01444e-07
2.01471e-07
1.96566e-07
1.84369e-07
1.73321e-07
1.68569e-07
1.68563e-07
1.73301e-07
1.84369e-07
1.96553e-07
2.01439e-07
2.05768e-07
2.01736e-07
1.90128e-07
1.79111e-07
1.73495e-07
1.73483e-07
1.79077e-07
1.90091e-07
2.01711e-07
2.05779e-07
2.12523e-07
2.10882e-07
2.02377e-07
1.90449e-07
1.84515e-07
1.84501e-07
1.90414e-07
2.02332e-07
2.10859e-07
2.12553e-07
2.16718e-07
2.18624e-07
2.12755e-07
2.0221e-07
1.9669e-07
1.96669e-07
2.02166e-07
2.12709e-07
2.18607e-07
2.16738e-07
2.31764e-07
2.17492e-07
2.13092e-07
2.05957e-07
2.0152e-07
2.01496e-07
2.05923e-07
2.13077e-07
2.17533e-07
2.31816e-07
2.30305e-07
2.0482e-07
2.01078e-07
1.95451e-07
1.91355e-07
1.91186e-07
1.95081e-07
2.01083e-07
2.05248e-07
2.30283e-07
2.05663e-07
2.07953e-07
2.01794e-07
1.93565e-07
1.88637e-07
1.8861e-07
1.93718e-07
2.03176e-07
2.0752e-07
2.04646e-07
2.01576e-07
2.03514e-07
1.94367e-07
1.83015e-07
1.77532e-07
1.77607e-07
1.83274e-07
1.94188e-07
2.01386e-07
2.00696e-07
1.95416e-07
1.93861e-07
1.83256e-07
1.72666e-07
1.6718e-07
1.67326e-07
1.7272e-07
1.82941e-07
1.93272e-07
1.95017e-07
1.91292e-07
1.88623e-07
1.77537e-07
1.6726e-07
1.62628e-07
1.62631e-07
1.67152e-07
1.77487e-07
1.88515e-07
1.91126e-07
1.91159e-07
1.88544e-07
1.77515e-07
1.67194e-07
1.62635e-07
1.62615e-07
1.67144e-07
1.77489e-07
1.88524e-07
1.91127e-07
1.94968e-07
1.93313e-07
1.83002e-07
1.72754e-07
1.67345e-07
1.67327e-07
1.72699e-07
1.82942e-07
1.93283e-07
1.94976e-07
2.00585e-07
2.01419e-07
1.94247e-07
1.8331e-07
1.77642e-07
1.77623e-07
1.83262e-07
1.94192e-07
2.01383e-07
2.00595e-07
2.04486e-07
2.07562e-07
2.03261e-07
1.93799e-07
1.8867e-07
1.88643e-07
1.93742e-07
2.03196e-07
2.07518e-07
2.04496e-07
2.30143e-07
2.05314e-07
2.01197e-07
1.95185e-07
1.91211e-07
1.91183e-07
1.95128e-07
2.01141e-07
2.05291e-07
2.30175e-07
2.35035e-07
1.95593e-07
1.90188e-07
1.85109e-07
1.81393e-07
1.8128e-07
1.84844e-07
1.90193e-07
1.95953e-07
2.34973e-07
1.96372e-07
1.97568e-07
1.92599e-07
1.85253e-07
1.80727e-07
1.80759e-07
1.85532e-07
1.94011e-07
1.9712e-07
1.95321e-07
1.90614e-07
1.94258e-07
1.86371e-07
1.75946e-07
1.7077e-07
1.70873e-07
1.76279e-07
1.86288e-07
1.9224e-07
1.89748e-07
1.85076e-07
1.85559e-07
1.76183e-07
1.66352e-07
1.61121e-07
1.61265e-07
1.66426e-07
1.75937e-07
1.85065e-07
1.84741e-07
1.81363e-07
1.80736e-07
1.70778e-07
1.61201e-07
1.56773e-07
1.56764e-07
1.61083e-07
1.70746e-07
1.80691e-07
1.81285e-07
1.81262e-07
1.80685e-07
1.70778e-07
1.61141e-07
1.56775e-07
1.5675e-07
1.61077e-07
1.70752e-07
1.80706e-07
1.81301e-07
1.84704e-07
1.85088e-07
1.75992e-07
1.66466e-07
1.61286e-07
1.61264e-07
1.66411e-07
1.75945e-07
1.8509e-07
1.84753e-07
1.89695e-07
1.92262e-07
1.86326e-07
1.76304e-07
1.7091e-07
1.70891e-07
1.76266e-07
1.86289e-07
1.92257e-07
1.89719e-07
1.95257e-07
1.97154e-07
1.94061e-07
1.85585e-07
1.80838e-07
1.80819e-07
1.85543e-07
1.94019e-07
1.97137e-07
1.95258e-07
2.34957e-07
1.96051e-07
1.90302e-07
1.84937e-07
1.81363e-07
1.81338e-07
1.84887e-07
1.90246e-07
1.96024e-07
2.34946e-07
2.35133e-07
1.90713e-07
1.80848e-07
1.75614e-07
1.72153e-07
1.72113e-07
1.75502e-07
1.80943e-07
1.91009e-07
2.34936e-07
1.91432e-07
1.87925e-07
1.83734e-07
1.77224e-07
1.73106e-07
1.73201e-07
1.77657e-07
1.85264e-07
1.87571e-07
1.90334e-07
1.81228e-07
1.8533e-07
1.78645e-07
1.69108e-07
1.64238e-07
1.64361e-07
1.6951e-07
1.78689e-07
1.83498e-07
1.80406e-07
1.75596e-07
1.77558e-07
1.69364e-07
1.60256e-07
1.55267e-07
1.55396e-07
1.60325e-07
1.69173e-07
1.77163e-07
1.7533e-07
1.7215e-07
1.73157e-07
1.64286e-07
1.55363e-07
1.51117e-07
1.51094e-07
1.55218e-07
1.64252e-07
1.73157e-07
1.7213e-07
1.72092e-07
1.73141e-07
1.64292e-07
1.55295e-07
1.51113e-07
1.51083e-07
1.55221e-07
1.64264e-07
1.73179e-07
1.72153e-07
1.7532e-07
1.77191e-07
1.69225e-07
1.60369e-07
1.55419e-07
1.55403e-07
1.60327e-07
1.69195e-07
1.77211e-07
1.7537e-07
1.80396e-07
1.83534e-07
1.78707e-07
1.69523e-07
1.64405e-07
1.64396e-07
1.69508e-07
1.78702e-07
1.83543e-07
1.80416e-07
1.90289e-07
1.87612e-07
1.85267e-07
1.77671e-07
1.7329e-07
1.73281e-07
1.77656e-07
1.85251e-07
1.87597e-07
1.90295e-07
2.34908e-07
1.91101e-07
1.80988e-07
1.7553e-07
1.7219e-07
1.72179e-07
1.75502e-07
1.80944e-07
1.91057e-07
2.34892e-07
1.93627e-07
1.9055e-07
1.73499e-07
1.67241e-07
1.63873e-07
1.63939e-07
1.67399e-07
1.73875e-07
1.91089e-07
1.93652e-07
1.91255e-07
1.79468e-07
1.75485e-07
1.69735e-07
1.66023e-07
1.66178e-07
1.70326e-07
1.77178e-07
1.79326e-07
1.90329e-07
1.73877e-07
1.77059e-07
1.71485e-07
1.62786e-07
1.58216e-07
1.58345e-07
1.63223e-07
1.71631e-07
1.75439e-07
1.73253e-07
1.67285e-07
1.70126e-07
1.63063e-07
1.54631e-07
1.4987e-07
1.49977e-07
1.54665e-07
1.62881e-07
1.69815e-07
1.67166e-07
1.63929e-07
1.66126e-07
1.58291e-07
1.49976e-07
1.45906e-07
1.45863e-07
1.49791e-07
1.58224e-07
1.66137e-07
1.63981e-07
1.63944e-07
1.66129e-07
1.58287e-07
1.49888e-07
1.45887e-07
1.45852e-07
1.49794e-07
1.58234e-07
1.66156e-07
1.64009e-07
1.67215e-07
1.69846e-07
1.62927e-07
1.54708e-07
1.49991e-07
1.49975e-07
1.54667e-07
1.62898e-07
1.69854e-07
1.67234e-07
1.73334e-07
1.75473e-07
1.71624e-07
1.63212e-07
1.58368e-07
1.58362e-07
1.63204e-07
1.71617e-07
1.75468e-07
1.73314e-07
1.904e-07
1.79354e-07
1.77134e-07
1.70291e-07
1.66248e-07
1.66244e-07
1.70281e-07
1.77115e-07
1.79321e-07
1.90357e-07
1.93736e-07
1.91159e-07
1.73856e-07
1.67361e-07
1.64018e-07
1.64011e-07
1.67338e-07
1.73805e-07
1.91099e-07
1.9368e-07
1.0199e-07
1.93876e-07
1.69005e-07
1.60474e-07
1.56809e-07
1.56936e-07
1.60781e-07
1.69543e-07
1.94509e-07
1.01838e-07
1.94542e-07
1.72609e-07
1.67904e-07
1.62737e-07
1.5937e-07
1.5955e-07
1.634e-07
1.69671e-07
1.72594e-07
1.93682e-07
1.69369e-07
1.69433e-07
1.64763e-07
1.56827e-07
1.52527e-07
1.52647e-07
1.57253e-07
1.6495e-07
1.67959e-07
1.68852e-07
1.6054e-07
1.63153e-07
1.57122e-07
1.49319e-07
1.44766e-07
1.44844e-07
1.493e-07
1.56916e-07
1.62872e-07
1.60497e-07
1.56875e-07
1.59492e-07
1.52631e-07
1.44884e-07
1.40979e-07
1.40921e-07
1.44661e-07
1.52523e-07
1.59493e-07
1.5695e-07
1.56928e-07
1.59496e-07
1.52598e-07
1.44768e-07
1.40947e-07
1.4091e-07
1.4467e-07
1.52534e-07
1.59508e-07
1.56973e-07
1.6057e-07
1.62902e-07
1.56948e-07
1.49332e-07
1.44849e-07
1.44842e-07
1.49311e-07
1.56934e-07
1.62911e-07
1.60562e-07
1.68963e-07
1.67993e-07
1.64917e-07
1.57218e-07
1.5265e-07
1.52653e-07
1.57232e-07
1.64934e-07
1.67989e-07
1.6892e-07
1.93771e-07
1.72622e-07
1.69591e-07
1.63324e-07
1.5959e-07
1.59593e-07
1.63332e-07
1.69583e-07
1.7258e-07
1.93711e-07
1.01887e-07
1.94561e-07
1.69471e-07
1.60684e-07
1.56973e-07
1.56971e-07
1.60662e-07
1.69409e-07
1.94461e-07
1.01811e-07
4.85497e-07
1.9169e-07
1.67433e-07
1.55528e-07
1.5115e-07
1.51334e-07
1.56002e-07
1.682e-07
1.92588e-07
4.83333e-07
1.9234e-07
1.67633e-07
1.61076e-07
1.56247e-07
1.53184e-07
1.53389e-07
1.56985e-07
1.62942e-07
1.67825e-07
1.91736e-07
1.67816e-07
1.6259e-07
1.58515e-07
1.51275e-07
1.47244e-07
1.47359e-07
1.517e-07
1.5875e-07
1.61281e-07
1.67482e-07
1.55633e-07
1.56695e-07
1.51579e-07
1.44367e-07
1.40025e-07
1.40088e-07
1.44322e-07
1.51367e-07
1.56464e-07
1.5571e-07
1.51227e-07
1.53313e-07
1.47349e-07
1.40142e-07
1.3641e-07
1.36349e-07
1.39912e-07
1.4723e-07
1.53324e-07
1.51359e-07
1.51312e-07
1.53306e-07
1.4729e-07
1.40005e-07
1.36372e-07
1.36345e-07
1.39925e-07
1.4724e-07
1.53333e-07
1.51379e-07
1.55775e-07
1.56453e-07
1.51361e-07
1.44332e-07
1.40089e-07
1.40092e-07
1.44341e-07
1.51382e-07
1.5649e-07
1.5578e-07
1.67613e-07
1.61272e-07
1.58674e-07
1.51634e-07
1.47343e-07
1.47358e-07
1.51679e-07
1.58727e-07
1.61306e-07
1.67582e-07
1.91886e-07
1.67816e-07
1.62821e-07
1.56873e-07
1.53404e-07
1.5342e-07
1.56911e-07
1.62855e-07
1.67817e-07
1.91829e-07
4.83496e-07
1.92623e-07
1.68105e-07
1.55882e-07
1.51371e-07
1.51377e-07
1.55879e-07
1.68062e-07
1.92539e-07
4.83317e-07
4.76063e-06
1.64586e-07
1.68045e-07
1.5277e-07
1.47205e-07
1.47398e-07
1.53281e-07
1.68895e-07
1.65414e-07
4.74707e-06
1.65121e-07
1.64661e-07
1.55184e-07
1.50273e-07
1.47405e-07
1.47601e-07
1.50994e-07
1.57026e-07
1.64902e-07
1.64678e-07
1.68469e-07
1.56674e-07
1.52667e-07
1.46024e-07
1.42233e-07
1.42333e-07
1.46412e-07
1.52877e-07
1.55407e-07
1.68158e-07
1.5291e-07
1.50735e-07
1.46337e-07
1.39665e-07
1.3552e-07
1.35568e-07
1.39588e-07
1.46085e-07
1.50467e-07
1.52968e-07
1.4727e-07
1.47527e-07
1.42344e-07
1.35639e-07
1.32074e-07
1.32014e-07
1.35402e-07
1.42196e-07
1.47494e-07
1.47366e-07
1.47338e-07
1.47492e-07
1.42251e-07
1.35484e-07
1.32034e-07
1.32014e-07
1.35416e-07
1.422e-07
1.47495e-07
1.47374e-07
1.53016e-07
1.50442e-07
1.46054e-07
1.39579e-07
1.35566e-07
1.35579e-07
1.39608e-07
1.4609e-07
1.50477e-07
1.53016e-07
1.68262e-07
1.55375e-07
1.52775e-07
1.46325e-07
1.423e-07
1.42324e-07
1.46389e-07
1.52851e-07
1.55423e-07
1.68244e-07
1.64806e-07
1.6487e-07
1.5688e-07
1.50854e-07
1.47577e-07
1.47601e-07
1.50914e-07
1.56939e-07
1.64892e-07
1.64771e-07
4.74697e-06
1.65415e-07
1.68751e-07
1.53117e-07
1.47378e-07
1.47396e-07
1.53147e-07
1.68757e-07
1.65352e-07
4.74689e-06
2.58218e-05
1.09171e-07
1.66586e-07
1.51721e-07
1.44903e-07
1.45085e-07
1.5222e-07
1.67428e-07
1.09761e-07
2.57683e-05
1.09512e-07
1.62581e-07
1.50453e-07
1.44908e-07
1.42108e-07
1.42281e-07
1.45565e-07
1.52202e-07
1.62796e-07
1.09248e-07
1.6704e-07
1.51938e-07
1.47302e-07
1.41153e-07
1.37578e-07
1.37655e-07
1.41474e-07
1.47429e-07
1.50636e-07
1.66739e-07
1.51914e-07
1.4539e-07
1.41466e-07
1.3529e-07
1.31335e-07
1.31369e-07
1.3517e-07
1.41142e-07
1.45039e-07
1.51917e-07
1.44994e-07
1.42242e-07
1.3769e-07
1.31456e-07
1.28058e-07
1.27993e-07
1.31201e-07
1.37487e-07
1.42123e-07
1.45018e-07
1.45048e-07
1.42184e-07
1.37579e-07
1.31295e-07
1.28022e-07
1.28e-07
1.31212e-07
1.37482e-07
1.42112e-07
1.45017e-07
1.52008e-07
1.45059e-07
1.41138e-07
1.35181e-07
1.31379e-07
1.31386e-07
1.35184e-07
1.41128e-07
1.4502e-07
1.51945e-07
1.6689e-07
1.50651e-07
1.47367e-07
1.41411e-07
1.37624e-07
1.37636e-07
1.4144e-07
1.47385e-07
1.50623e-07
1.66805e-07
1.09502e-07
1.6283e-07
1.5212e-07
1.45462e-07
1.42247e-07
1.42258e-07
1.4548e-07
1.52118e-07
1.62774e-07
1.09359e-07
2.57681e-05
1.09831e-07
1.67339e-07
1.52098e-07
1.45065e-07
1.45078e-07
1.52109e-07
1.67329e-07
1.09716e-07
2.57684e-05
9.48505e-05
2.28829e-07
1.53141e-07
1.50468e-07
1.43508e-07
1.43653e-07
1.50879e-07
1.53816e-07
2.29208e-07
9.47073e-05
2.29401e-07
1.57871e-07
1.46879e-07
1.40068e-07
1.37183e-07
1.37335e-07
1.40676e-07
1.48561e-07
1.58094e-07
2.28156e-07
1.53526e-07
1.48338e-07
1.42245e-07
1.36453e-07
1.3308e-07
1.33149e-07
1.36745e-07
1.42332e-07
1.47042e-07
1.53282e-07
1.50666e-07
1.40556e-07
1.36775e-07
1.31057e-07
1.27296e-07
1.27329e-07
1.30933e-07
1.36432e-07
1.40174e-07
1.50633e-07
1.43593e-07
1.37324e-07
1.33215e-07
1.27429e-07
1.242e-07
1.24144e-07
1.27184e-07
1.33001e-07
1.37176e-07
1.43582e-07
1.43637e-07
1.37268e-07
1.33107e-07
1.27284e-07
1.24183e-07
1.24163e-07
1.27202e-07
1.32999e-07
1.37167e-07
1.43575e-07
1.50745e-07
1.40245e-07
1.36475e-07
1.3098e-07
1.2738e-07
1.27381e-07
1.30966e-07
1.3643e-07
1.40166e-07
1.50645e-07
1.53487e-07
1.47146e-07
1.42354e-07
1.3675e-07
1.33168e-07
1.3317e-07
1.36746e-07
1.42321e-07
1.47053e-07
1.53323e-07
2.28257e-07
1.58265e-07
1.48597e-07
1.4066e-07
1.37347e-07
1.37344e-07
1.40639e-07
1.4853e-07
1.58118e-07
2.28301e-07
9.4709e-05
2.29064e-07
1.5392e-07
1.5088e-07
1.43676e-07
1.43669e-07
1.50834e-07
1.53816e-07
2.2917e-07
9.47104e-05
0.00026096
1.62958e-06
1.18877e-07
1.44044e-07
1.40723e-07
1.40875e-07
1.44513e-07
1.19573e-07
1.63166e-06
0.000260677
1.63334e-06
1.43991e-07
1.4435e-07
1.35904e-07
1.32779e-07
1.32941e-07
1.36558e-07
1.46123e-07
1.44416e-07
1.62523e-06
1.19156e-07
1.45818e-07
1.37647e-07
1.32027e-07
1.2885e-07
1.28935e-07
1.32363e-07
1.37802e-07
1.44642e-07
1.19219e-07
1.44244e-07
1.36392e-07
1.32337e-07
1.2703e-07
1.23482e-07
1.23541e-07
1.26971e-07
1.32068e-07
1.36087e-07
1.44331e-07
1.40783e-07
1.32889e-07
1.28953e-07
1.23597e-07
1.20559e-07
1.2053e-07
1.23423e-07
1.28817e-07
1.32813e-07
1.40856e-07
1.40842e-07
1.32835e-07
1.28855e-07
1.23471e-07
1.20559e-07
1.20563e-07
1.23448e-07
1.28823e-07
1.32816e-07
1.40864e-07
1.44399e-07
1.36107e-07
1.32071e-07
1.26997e-07
1.23607e-07
1.23621e-07
1.27028e-07
1.32096e-07
1.36116e-07
1.44386e-07
1.19394e-07
1.44723e-07
1.37819e-07
1.32375e-07
1.28981e-07
1.28993e-07
1.32408e-07
1.37848e-07
1.44722e-07
1.19331e-07
1.6246e-06
1.4457e-07
1.46172e-07
1.36564e-07
1.32982e-07
1.32994e-07
1.36586e-07
1.46183e-07
1.44549e-07
1.6251e-06
0.000260679
1.62974e-06
1.19724e-07
1.44586e-07
1.40957e-07
1.4095e-07
1.44557e-07
1.19672e-07
1.63053e-06
0.000260682
0.000573668
8.24779e-06
1.0983e-07
1.25671e-07
1.31714e-07
1.31855e-07
1.26104e-07
1.10386e-07
8.25653e-06
0.000573281
8.26496e-06
1.17374e-07
1.42184e-07
1.32419e-07
1.28852e-07
1.29015e-07
1.33087e-07
1.44022e-07
1.17876e-07
8.22951e-06
1.10064e-07
1.43625e-07
1.33554e-07
1.27787e-07
1.24741e-07
1.24842e-07
1.28166e-07
1.33784e-07
1.42572e-07
1.09921e-07
1.25772e-07
1.32858e-07
1.28067e-07
1.23084e-07
1.19737e-07
1.1982e-07
1.23095e-07
1.27885e-07
1.32631e-07
1.25953e-07
1.31681e-07
1.28884e-07
1.24789e-07
1.19819e-07
1.16964e-07
1.16964e-07
1.1972e-07
1.2474e-07
1.28888e-07
1.31818e-07
1.31727e-07
1.28813e-07
1.24682e-07
1.19694e-07
1.16963e-07
1.16989e-07
1.19734e-07
1.24739e-07
1.28886e-07
1.31825e-07
1.25902e-07
1.32524e-07
1.2778e-07
1.2304e-07
1.19849e-07
1.19882e-07
1.23127e-07
1.27893e-07
1.32641e-07
1.25988e-07
1.09961e-07
1.42491e-07
1.33689e-07
1.28099e-07
1.24843e-07
1.24873e-07
1.28187e-07
1.3381e-07
1.42621e-07
1.10028e-07
8.22992e-06
1.17828e-07
1.43939e-07
1.33011e-07
1.28995e-07
1.29024e-07
1.33088e-07
1.44055e-07
1.17932e-07
8.22916e-06
0.000573268
8.25179e-06
1.1032e-07
1.26076e-07
1.31852e-07
1.31866e-07
1.26111e-07
1.1023e-07
8.25176e-06
0.00057329
0.00105942
2.99577e-05
4.26956e-07
1.00289e-07
1.11987e-07
1.1211e-07
1.00631e-07
4.27777e-07
2.99833e-05
0.00105905
3.00082e-05
9.99678e-08
1.38575e-07
1.29464e-07
1.25433e-07
1.25584e-07
1.30103e-07
1.40374e-07
1.00204e-07
2.9906e-05
4.28236e-07
1.39968e-07
1.30208e-07
1.23876e-07
1.20876e-07
1.20976e-07
1.24251e-07
1.30449e-07
1.38992e-07
4.25609e-07
1.00334e-07
1.29874e-07
1.24133e-07
1.19359e-07
1.16191e-07
1.16283e-07
1.19389e-07
1.23971e-07
1.29658e-07
1.00455e-07
1.11939e-07
1.2544e-07
1.20894e-07
1.16255e-07
1.13568e-07
1.13576e-07