/*--------------------------------*- C++ -*----------------------------------*\
| =========                 |                                                 |
| \\      /  F ield         | OpenFOAM: The Open Source CFD Toolbox           |
|  \\    /   O peration     | Version:  2406                                  |
|   \\  /    A nd           | Website:  www.openfoam.com                      |
|    \\/     M anipulation  |                                                 |
\*---------------------------------------------------------------------------*/
FoamFile
{
    version     2.0;
    format      ascii;
    arch        "LSB;label=32;scalar=64";
    class       volSymmTensorField;
    location    "400";
    object      turbulenceProperties:devReff;
}
// * * * * * * * * * * * * * * * * * * * * * * * * * * * * * * * * * * * * * //

dimensions      [0 2 -2 0 0 0 0];

internalField   nonuniform List<symmTensor> 
25000
(
(4.00228e-06 -4.15924e-06 -1.60304e-06 4.02659e-06 -1.60194e-06 -8.02887e-06)
(6.18015e-06 1.84282e-06 -1.10665e-06 2.4015e-06 -1.41312e-06 -8.58165e-06)
(4.80536e-06 1.14003e-06 -7.7823e-07 3.43724e-06 -1.45247e-06 -8.24261e-06)
(4.34291e-06 7.02882e-07 -4.63434e-07 3.85266e-06 -1.45735e-06 -8.19557e-06)
(4.11976e-06 2.46622e-07 -1.53378e-07 4.04338e-06 -1.45769e-06 -8.16314e-06)
(4.11061e-06 -2.38608e-07 1.5667e-07 4.05433e-06 -1.45758e-06 -8.16494e-06)
(4.31148e-06 -6.90537e-07 4.67467e-07 3.88978e-06 -1.45692e-06 -8.20125e-06)
(4.7379e-06 -1.11745e-06 7.83714e-07 3.5143e-06 -1.45214e-06 -8.2522e-06)
(6.14847e-06 -1.85541e-06 1.11513e-06 2.50366e-06 -1.41354e-06 -8.65213e-06)
(4.11917e-06 4.02317e-06 1.59794e-06 4.11258e-06 -1.59757e-06 -8.23175e-06)
(2.39473e-06 1.83196e-06 -1.41359e-06 6.19446e-06 -1.10631e-06 -8.58918e-06)
(4.35666e-06 1.36723e-06 -1.09571e-06 4.38187e-06 -1.09506e-06 -8.73854e-06)
(3.95855e-06 8.94578e-07 -8.12052e-07 4.12424e-06 -1.11752e-06 -8.08279e-06)
(3.80899e-06 5.16442e-07 -4.90827e-07 3.93123e-06 -1.13813e-06 -7.74022e-06)
(3.74346e-06 1.76338e-07 -1.63111e-07 3.83118e-06 -1.14899e-06 -7.57465e-06)
(3.7416e-06 -1.50677e-07 1.65761e-07 3.83217e-06 -1.14928e-06 -7.57377e-06)
(3.80392e-06 -4.82932e-07 4.93887e-07 3.93265e-06 -1.13918e-06 -7.73657e-06)
(3.95301e-06 -8.42129e-07 8.16017e-07 4.12402e-06 -1.12029e-06 -8.07703e-06)
(4.36873e-06 -1.27452e-06 1.10017e-06 4.35771e-06 -1.09993e-06 -8.72644e-06)
(2.50695e-06 -1.85234e-06 1.41328e-06 6.13741e-06 -1.11467e-06 -8.64435e-06)
(3.4455e-06 1.11908e-06 -1.45266e-06 4.80872e-06 -7.78741e-07 -8.25422e-06)
(4.11724e-06 8.85023e-07 -1.11827e-06 3.97229e-06 -8.12385e-07 -8.08953e-06)
(3.77405e-06 6.04997e-07 -8.22867e-07 3.785e-06 -8.22896e-07 -7.55905e-06)
(3.60403e-06 3.62533e-07 -4.99921e-07 3.64276e-06 -8.30305e-07 -7.24679e-06)
(3.5264e-06 1.26343e-07 -1.66705e-07 3.57058e-06 -8.34794e-07 -7.09698e-06)
(3.52717e-06 -1.03973e-07 1.68597e-07 3.56921e-06 -8.35079e-07 -7.09638e-06)
(3.60706e-06 -3.3644e-07 5.01961e-07 3.63751e-06 -8.31319e-07 -7.24457e-06)
(3.78135e-06 -5.71957e-07 8.25075e-07 3.77176e-06 -8.24821e-07 -7.55311e-06)
(4.13292e-06 -8.43426e-07 1.12011e-06 3.94075e-06 -8.15446e-07 -8.07367e-06)
(3.5172e-06 -1.11381e-06 1.45186e-06 4.72878e-06 -7.83357e-07 -8.24597e-06)
(3.86144e-06 6.94468e-07 -1.45738e-06 4.33977e-06 -4.6398e-07 -8.2012e-06)
(3.9288e-06 5.07212e-07 -1.13831e-06 3.81445e-06 -4.91148e-07 -7.74325e-06)
(3.63691e-06 3.59071e-07 -8.30297e-07 3.61131e-06 -5.00143e-07 -7.24822e-06)
(3.46432e-06 2.21056e-07 -5.04109e-07 3.47006e-06 -5.04319e-07 -6.93437e-06)
(3.38343e-06 7.92295e-08 -1.68418e-07 3.39822e-06 -5.06634e-07 -6.78165e-06)
(3.38526e-06 -6.16276e-08 1.69694e-07 3.39626e-06 -5.06887e-07 -6.78152e-06)
(3.46941e-06 -2.02309e-07 5.05418e-07 3.46352e-06 -5.05077e-07 -6.93293e-06)
(3.64529e-06 -3.38664e-07 8.31504e-07 3.59858e-06 -5.01525e-07 -7.24387e-06)
(3.94214e-06 -4.86625e-07 1.13927e-06 3.79308e-06 -4.93339e-07 -7.73522e-06)
(3.89548e-06 -6.88396e-07 1.45641e-06 4.30062e-06 -4.66856e-07 -8.1961e-06)
(4.05009e-06 2.42487e-07 -1.45785e-06 4.11573e-06 -1.53757e-07 -8.16582e-06)
(3.83258e-06 1.69928e-07 -1.14902e-06 3.74453e-06 -1.63419e-07 -7.57711e-06)
(3.56767e-06 1.22475e-07 -8.34673e-07 3.53017e-06 -1.66959e-07 -7.09784e-06)
(3.39447e-06 7.7737e-08 -5.06445e-07 3.38754e-06 -1.68663e-07 -6.78201e-06)
(3.31229e-06 3.04489e-08 -1.69411e-07 3.31536e-06 -1.69665e-07 -6.62765e-06)
(3.31409e-06 -1.71539e-08 1.70237e-07 3.31338e-06 -1.69842e-07 -6.62747e-06)
(3.39947e-06 -6.45889e-08 5.0722e-07 3.38151e-06 -1.69219e-07 -6.78098e-06)
(3.5755e-06 -1.09657e-07 8.35368e-07 3.51994e-06 -1.67946e-07 -7.09544e-06)
(3.84168e-06 -1.57912e-07 1.14942e-06 3.73014e-06 -1.64877e-07 -7.57182e-06)
(4.06639e-06 -2.38255e-07 1.45677e-06 4.09452e-06 -1.55591e-07 -8.16091e-06)
(4.05754e-06 -2.39937e-07 -1.45771e-06 4.10803e-06 1.5644e-07 -8.16557e-06)
(3.83382e-06 -1.55085e-07 -1.14932e-06 3.74114e-06 1.65534e-07 -7.57495e-06)
(3.56851e-06 -1.07366e-07 -8.34968e-07 3.52857e-06 1.68369e-07 -7.09709e-06)
(3.39406e-06 -6.34326e-08 -5.06659e-07 3.3874e-06 1.69451e-07 -6.78146e-06)
(3.31132e-06 -1.78426e-08 -1.69601e-07 3.31611e-06 1.69994e-07 -6.62743e-06)
(3.31294e-06 2.75669e-08 1.70109e-07 3.31437e-06 1.69854e-07 -6.62731e-06)
(3.39842e-06 7.27383e-08 5.07138e-07 3.38251e-06 1.69049e-07 -6.78094e-06)
(3.57465e-06 1.15761e-07 8.35309e-07 3.5208e-06 1.67672e-07 -7.09544e-06)
(3.84095e-06 1.6236e-07 1.14938e-06 3.73087e-06 1.64538e-07 -7.57182e-06)
(4.06636e-06 2.4306e-07 1.45672e-06 4.09488e-06 1.5519e-07 -8.16124e-06)
(3.89134e-06 -6.91417e-07 -1.45725e-06 4.30968e-06 4.67349e-07 -8.20102e-06)
(3.93477e-06 -4.85875e-07 -1.13919e-06 3.8028e-06 4.9371e-07 -7.73757e-06)
(3.63735e-06 -3.38936e-07 -8.3118e-07 3.60739e-06 5.01775e-07 -7.24474e-06)
(3.46235e-06 -2.04073e-07 -5.04894e-07 3.47076e-06 5.05229e-07 -6.93311e-06)
(3.38033e-06 -6.55386e-08 -1.68989e-07 3.40087e-06 5.07035e-07 -6.78119e-06)
(3.38164e-06 7.23472e-08 1.69295e-07 3.39956e-06 5.06937e-07 -6.78121e-06)
(3.46606e-06 2.10425e-07 5.05159e-07 3.46665e-06 5.04938e-07 -6.93271e-06)
(3.64243e-06 3.44532e-07 8.31342e-07 3.60134e-06 5.01278e-07 -7.24376e-06)
(3.94005e-06 4.90842e-07 1.13914e-06 3.79528e-06 4.93028e-07 -7.73533e-06)
(3.89535e-06 6.93046e-07 1.45628e-06 4.30172e-06 4.66479e-07 -8.19707e-06)
(3.51397e-06 -1.11681e-06 -1.45244e-06 4.73705e-06 7.83636e-07 -8.25102e-06)
(4.12422e-06 -8.43792e-07 -1.12001e-06 3.95109e-06 8.15687e-07 -8.07531e-06)
(3.77211e-06 -5.73908e-07 -8.24738e-07 3.78174e-06 8.24973e-07 -7.55384e-06)
(3.59797e-06 -3.40156e-07 -5.01375e-07 3.64651e-06 8.31459e-07 -7.24449e-06)
(3.51902e-06 -1.10758e-07 -1.67738e-07 3.57669e-06 8.35255e-07 -7.0957e-06)
(3.52016e-06 1.15036e-07 1.67904e-07 3.5755e-06 8.35189e-07 -7.09566e-06)
(3.60109e-06 3.44107e-07 5.01516e-07 3.64311e-06 8.31222e-07 -7.24419e-06)
(3.77644e-06 5.77492e-07 8.24784e-07 3.7766e-06 8.24619e-07 -7.55304e-06)
(4.12912e-06 8.47147e-07 1.11988e-06 3.94471e-06 8.1518e-07 -8.07383e-06)
(3.51658e-06 1.1182e-06 1.45162e-06 4.73104e-06 7.83026e-07 -8.24762e-06)
(2.5025e-06 -1.85302e-06 -1.41371e-06 6.14704e-06 1.11493e-06 -8.64954e-06)
(4.3588e-06 -1.27514e-06 -1.09996e-06 4.36852e-06 1.10016e-06 -8.72733e-06)
(3.94208e-06 -8.45152e-07 -8.15623e-07 4.13488e-06 1.12048e-06 -8.07696e-06)
(3.7925e-06 -4.88108e-07 -4.93185e-07 3.94319e-06 1.13929e-06 -7.7357e-06)
(3.72942e-06 -1.5921e-07 -1.64691e-07 3.8427e-06 1.14943e-06 -7.57212e-06)
(3.73045e-06 1.61193e-07 1.64741e-07 3.84164e-06 1.14936e-06 -7.57209e-06)
(3.79522e-06 4.89942e-07 4.93221e-07 3.94039e-06 1.13908e-06 -7.73561e-06)
(3.94619e-06 8.46837e-07 8.15605e-07 4.13032e-06 1.12014e-06 -8.07651e-06)
(4.36349e-06 1.27751e-06 1.09985e-06 4.36285e-06 1.09973e-06 -8.72634e-06)
(2.50514e-06 1.85507e-06 1.41297e-06 6.14127e-06 1.11443e-06 -8.64642e-06)
(4.11115e-06 4.0284e-06 -1.59792e-06 4.11843e-06 1.59816e-06 -8.22958e-06)
(6.13871e-06 -1.85167e-06 -1.11483e-06 2.50623e-06 1.4137e-06 -8.64493e-06)
(4.72927e-06 -1.11456e-06 -7.83289e-07 3.51629e-06 1.45205e-06 -8.24556e-06)
(4.30068e-06 -6.89464e-07 -4.66722e-07 3.89503e-06 1.45658e-06 -8.19571e-06)
(4.09454e-06 -2.39454e-07 -1.55431e-07 4.06607e-06 1.4569e-06 -8.16061e-06)
(4.09492e-06 2.41906e-07 1.55359e-07 4.06632e-06 1.45683e-06 -8.16125e-06)
(4.30187e-06 6.91939e-07 4.66639e-07 3.89539e-06 1.45633e-06 -8.19726e-06)
(4.73143e-06 1.11736e-06 7.83166e-07 3.51662e-06 1.45163e-06 -8.24805e-06)
(6.14294e-06 1.85499e-06 1.11469e-06 2.50504e-06 1.41308e-06 -8.64799e-06)
(4.11583e-06 -4.02377e-06 1.59735e-06 4.11453e-06 1.59726e-06 -8.23035e-06)
(6.01403e-06 -3.55301e-06 3.26666e-06 5.99304e-06 3.27076e-06 -1.20071e-05)
(8.33663e-06 1.89228e-06 2.31481e-06 3.68724e-06 3.02931e-06 -1.20239e-05)
(6.51854e-06 4.87808e-07 1.64336e-06 5.19675e-06 2.74373e-06 -1.17153e-05)
(6.19235e-06 4.57208e-07 9.82414e-07 5.46259e-06 2.62572e-06 -1.16549e-05)
(6.05047e-06 1.65296e-07 3.29961e-07 5.57868e-06 2.55773e-06 -1.16292e-05)
(6.05982e-06 -1.75308e-07 -3.20273e-07 5.56985e-06 2.55719e-06 -1.16297e-05)
(6.22311e-06 -4.72076e-07 -9.71938e-07 5.43244e-06 2.62361e-06 -1.16555e-05)
(6.57951e-06 -5.13318e-07 -1.63108e-06 5.13396e-06 2.73966e-06 -1.17135e-05)
(8.36557e-06 -1.88863e-06 -2.29899e-06 3.60828e-06 3.02165e-06 -1.19738e-05)
(5.92448e-06 3.65297e-06 -3.26159e-06 5.92404e-06 3.26265e-06 -1.18485e-05)
(3.69448e-06 1.90216e-06 3.02539e-06 8.32615e-06 2.31738e-06 -1.20206e-05)
(5.96806e-06 9.33483e-07 2.18179e-06 5.95133e-06 2.18481e-06 -1.19194e-05)
(5.73298e-06 3.78043e-07 1.49431e-06 5.85442e-06 2.04775e-06 -1.15874e-05)
(5.85745e-06 1.71857e-07 8.88873e-07 5.6108e-06 1.95751e-06 -1.14683e-05)
(5.87079e-06 4.66364e-08 2.96522e-07 5.50578e-06 1.90979e-06 -1.13766e-05)
(5.87399e-06 -6.73259e-08 -2.88636e-07 5.50433e-06 1.90893e-06 -1.13783e-05)
(5.86677e-06 -2.00951e-07 -8.80882e-07 5.60747e-06 1.95474e-06 -1.14742e-05)
(5.74971e-06 -4.26451e-07 -1.48714e-06 5.85784e-06 2.0439e-06 -1.16075e-05)
(5.96226e-06 -1.01202e-06 -2.17304e-06 5.96867e-06 2.17504e-06 -1.19309e-05)
(3.60585e-06 -1.89014e-06 -3.01945e-06 8.36722e-06 2.30034e-06 -1.19731e-05)
(5.19317e-06 5.01429e-07 2.742e-06 6.51482e-06 1.64316e-06 -1.1708e-05)
(5.86735e-06 3.86045e-07 2.04692e-06 5.727e-06 1.49677e-06 -1.15943e-05)
(5.6445e-06 3.35206e-07 1.40383e-06 5.63578e-06 1.40544e-06 -1.12803e-05)
(5.68602e-06 1.91072e-07 8.31575e-07 5.49643e-06 1.34005e-06 -1.11825e-05)
(5.68338e-06 5.52052e-08 2.77093e-07 5.44153e-06 1.30728e-06 -1.11249e-05)
(5.68378e-06 -7.38694e-08 -2.70949e-07 5.44241e-06 1.30648e-06 -1.11262e-05)
(5.6869e-06 -2.13994e-07 -8.25674e-07 5.50091e-06 1.33772e-06 -1.11878e-05)
(5.64144e-06 -3.66208e-07 -1.39821e-06 5.64716e-06 1.40094e-06 -1.12886e-05)
(5.84717e-06 -4.25525e-07 -2.04015e-06 5.75165e-06 1.48868e-06 -1.15988e-05)
(5.13203e-06 -5.14359e-07 -2.73814e-06 6.58478e-06 1.63396e-06 -1.17168e-05)
(5.45799e-06 4.63134e-07 2.62474e-06 6.19468e-06 9.81601e-07 -1.16527e-05)
(5.61368e-06 1.786e-07 1.95595e-06 5.85375e-06 8.89231e-07 -1.14674e-05)
(5.50195e-06 1.93584e-07 1.3388e-06 5.68146e-06 8.32456e-07 -1.11834e-05)
(5.52233e-06 1.23433e-07 7.87616e-07 5.51826e-06 7.88553e-07 -1.10406e-05)
(5.52386e-06 3.56165e-08 2.61546e-07 5.44208e-06 7.65276e-07 -1.09659e-05)
(5.52355e-06 -5.012e-08 -2.56876e-07 5.44398e-06 7.64665e-07 -1.09675e-05)
(5.51967e-06 -1.39503e-07 -7.83245e-07 5.5236e-06 7.86522e-07 -1.10433e-05)
(5.49532e-06 -2.12181e-07 -1.33477e-06 5.6921e-06 8.28925e-07 -1.11874e-05)
(5.60115e-06 -1.98748e-07 -1.95242e-06 5.87446e-06 8.84396e-07 -1.14756e-05)
(5.42856e-06 -4.72644e-07 -2.62214e-06 6.23163e-06 9.75799e-07 -1.16602e-05)
(5.57617e-06 1.67868e-07 2.55767e-06 6.05309e-06 3.29096e-07 -1.16293e-05)
(5.50615e-06 5.07363e-08 1.90866e-06 5.87001e-06 2.96327e-07 -1.13762e-05)
(5.44392e-06 5.76867e-08 1.30615e-06 5.68094e-06 2.77358e-07 -1.11249e-05)
(5.44505e-06 3.64773e-08 7.64502e-07 5.52172e-06 2.6203e-07 -1.09668e-05)
(5.4463e-06 8.38424e-09 2.53062e-07 5.44438e-06 2.53587e-07 -1.08907e-05)
(5.44529e-06 -1.9065e-08 -2.49544e-07 5.44591e-06 2.53049e-07 -1.08912e-05)
(5.44153e-06 -4.74828e-08 -7.61203e-07 5.52617e-06 2.6045e-07 -1.09677e-05)
(5.43823e-06 -6.90789e-08 -1.30337e-06 5.68986e-06 2.74825e-07 -1.11281e-05)
(5.49729e-06 -6.17977e-08 -1.90629e-06 5.88415e-06 2.92992e-07 -1.13814e-05)
(5.56138e-06 -1.73646e-07 -2.5555e-06 6.07371e-06 3.25126e-07 -1.16351e-05)
(5.56916e-06 -1.74679e-07 2.55721e-06 6.06139e-06 -3.21136e-07 -1.16305e-05)
(5.50422e-06 -6.49879e-08 1.90833e-06 5.87418e-06 -2.89071e-07 -1.13784e-05)
(5.44346e-06 -7.20713e-08 1.30568e-06 5.6828e-06 -2.71005e-07 -1.11263e-05)
(5.4451e-06 -4.91722e-08 7.63902e-07 5.52184e-06 -2.56695e-07 -1.09669e-05)
(5.44713e-06 -1.87485e-08 2.52577e-07 5.4442e-06 -2.49294e-07 -1.08913e-05)
(5.44623e-06 1.11469e-08 -2.49959e-07 5.44547e-06 -2.49674e-07 -1.08917e-05)
(5.44228e-06 4.17113e-08 -7.6152e-07 5.52573e-06 -2.57849e-07 -1.0968e-05)
(5.43878e-06 6.48998e-08 -1.30361e-06 5.68952e-06 -2.72814e-07 -1.11283e-05)
(5.49768e-06 5.8645e-08 -1.90646e-06 5.8839e-06 -2.91416e-07 -1.13816e-05)
(5.56158e-06 1.71118e-07 -2.55564e-06 6.07359e-06 -3.23882e-07 -1.16352e-05)
(5.43319e-06 -4.71956e-07 2.62394e-06 6.2236e-06 -9.72686e-07 -1.16568e-05)
(5.60724e-06 -1.99588e-07 1.95428e-06 5.86681e-06 -8.81308e-07 -1.1474e-05)
(5.50077e-06 -2.12663e-07 1.33701e-06 5.68597e-06 -8.25835e-07 -1.11867e-05)
(5.52444e-06 -1.38702e-07 7.86005e-07 5.5191e-06 -7.83312e-07 -1.10435e-05)
(5.52733e-06 -4.70805e-08 2.6007e-07 5.4414e-06 -7.6121e-07 -1.09687e-05)
(5.52652e-06 4.18465e-08 -2.58117e-07 5.44242e-06 -7.61475e-07 -1.09689e-05)
(5.52216e-06 1.33676e-07 -7.84223e-07 5.52209e-06 -7.84096e-07 -1.10442e-05)
(5.49715e-06 2.08098e-07 -1.33547e-06 5.6909e-06 -8.27053e-07 -1.11881e-05)
(5.60228e-06 1.95717e-07 -1.95292e-06 5.87366e-06 -8.82923e-07 -1.14759e-05)
(5.42917e-06 4.70247e-07 -2.62257e-06 6.23119e-06 -9.74627e-07 -1.16604e-05)
(5.13516e-06 -5.13119e-07 2.73978e-06 6.57899e-06 -1.63166e-06 -1.17141e-05)
(5.85313e-06 -4.25196e-07 2.04205e-06 5.74509e-06 -1.48647e-06 -1.15982e-05)
(5.64753e-06 -3.65238e-07 1.40056e-06 5.64126e-06 -1.39861e-06 -1.12888e-05)
(5.69328e-06 -2.11482e-07 8.28642e-07 5.49565e-06 -1.33521e-06 -1.11889e-05)
(5.69035e-06 -6.86514e-08 2.74537e-07 5.43801e-06 -1.30352e-06 -1.11284e-05)
(5.68973e-06 6.51447e-08 -2.73022e-07 5.43877e-06 -1.3037e-06 -1.11285e-05)
(5.69144e-06 2.08224e-07 -8.27255e-07 5.49793e-06 -1.33563e-06 -1.11894e-05)
(5.64465e-06 3.62286e-07 -1.39936e-06 5.64494e-06 -1.39935e-06 -1.12896e-05)
(5.84928e-06 4.22775e-07 -2.04094e-06 5.75012e-06 -1.48743e-06 -1.15994e-05)
(5.1331e-06 5.12534e-07 -2.7388e-06 6.58401e-06 -1.63293e-06 -1.17171e-05)
(3.60897e-06 -1.88831e-06 3.02099e-06 8.36229e-06 -2.29887e-06 -1.19713e-05)
(5.96897e-06 -1.01136e-06 2.17491e-06 5.96218e-06 -2.17369e-06 -1.19312e-05)
(5.7568e-06 -4.25058e-07 1.48967e-06 5.85175e-06 -2.04246e-06 -1.16085e-05)
(5.8752e-06 -1.98019e-07 8.84201e-07 5.60103e-06 -1.95299e-06 -1.14762e-05)
(5.88446e-06 -6.12352e-08 2.92825e-07 5.49707e-06 -1.90666e-06 -1.13815e-05)
(5.88395e-06 5.90026e-08 -2.91524e-07 5.49767e-06 -1.9067e-06 -1.13816e-05)
(5.87372e-06 1.95914e-07 -8.83024e-07 5.60278e-06 -1.95315e-06 -1.14765e-05)
(5.75452e-06 4.23223e-07 -1.48868e-06 5.85452e-06 -2.04271e-06 -1.1609e-05)
(5.96569e-06 1.00993e-06 -2.17406e-06 5.96618e-06 -2.17412e-06 -1.19319e-05)
(3.60771e-06 1.88875e-06 -3.02019e-06 8.36596e-06 -2.29956e-06 -1.19737e-05)
(5.92609e-06 3.6518e-06 3.26276e-06 5.92381e-06 -3.26227e-06 -1.18499e-05)
(8.37014e-06 -1.89073e-06 2.30094e-06 3.60741e-06 -3.02121e-06 -1.19776e-05)
(6.58528e-06 -5.13966e-07 1.63388e-06 5.13252e-06 -2.73904e-06 -1.17178e-05)
(6.23175e-06 -4.71986e-07 9.75712e-07 5.42874e-06 -2.62281e-06 -1.16605e-05)
(6.07374e-06 -1.73044e-07 3.25111e-07 5.56149e-06 -2.55599e-06 -1.16352e-05)
(6.07348e-06 1.71541e-07 -3.23853e-07 5.56164e-06 -2.55599e-06 -1.16351e-05)
(6.23099e-06 4.70418e-07 -9.74581e-07 5.42916e-06 -2.62277e-06 -1.16601e-05)
(6.5841e-06 5.125e-07 -1.63297e-06 5.13323e-06 -2.73903e-06 -1.17173e-05)
(8.36846e-06 1.88913e-06 -2.30026e-06 3.60863e-06 -3.02127e-06 -1.19771e-05)
(5.92569e-06 -3.65185e-06 -3.2624e-06 5.92532e-06 -3.26248e-06 -1.1851e-05)
(5.18948e-06 -9.53369e-07 4.5282e-06 5.1524e-06 4.52545e-06 -1.03419e-05)
(6.29118e-06 1.12235e-06 3.16271e-06 3.72238e-06 4.07634e-06 -1.00136e-05)
(5.08155e-06 -3.72248e-08 2.23872e-06 4.89291e-06 3.88737e-06 -9.97446e-06)
(4.91339e-06 2.44944e-07 1.3353e-06 4.94607e-06 3.81163e-06 -9.85945e-06)
(4.82922e-06 6.28652e-08 4.43958e-07 5.0125e-06 3.75189e-06 -9.84172e-06)
(4.83293e-06 -6.93451e-08 -4.54047e-07 5.0084e-06 3.75237e-06 -9.84133e-06)
(4.9251e-06 -2.52597e-07 -1.34692e-06 4.93292e-06 3.81328e-06 -9.85801e-06)
(5.10085e-06 2.70732e-08 -2.25366e-06 4.86907e-06 3.8917e-06 -9.96992e-06)
(6.29503e-06 -1.12292e-06 -3.18319e-06 3.69743e-06 4.08636e-06 -9.99246e-06)
(5.14695e-06 9.78999e-07 -4.53303e-06 5.14744e-06 4.53147e-06 -1.02944e-05)
(3.73331e-06 1.136e-06 4.08234e-06 6.28114e-06 3.16216e-06 -1.00145e-05)
(4.87521e-06 4.753e-07 3.04155e-06 4.86271e-06 3.0385e-06 -9.73792e-06)
(4.79907e-06 4.26396e-08 2.17657e-06 5.0289e-06 2.96181e-06 -9.82797e-06)
(4.96574e-06 4.31872e-09 1.3081e-06 4.89548e-06 2.9291e-06 -9.86122e-06)
(4.96058e-06 -9.78e-09 4.32168e-07 4.88489e-06 2.90852e-06 -9.84547e-06)
(4.96157e-06 -2.63355e-09 -4.40554e-07 4.88433e-06 2.90935e-06 -9.8459e-06)
(4.96883e-06 -1.99e-08 -1.31729e-06 4.89527e-06 2.93232e-06 -9.8641e-06)
(4.80789e-06 -6.5367e-08 -2.18931e-06 5.03495e-06 2.97167e-06 -9.84284e-06)
(4.86663e-06 -5.01968e-07 -3.05229e-06 4.87117e-06 3.0501e-06 -9.7378e-06)
(3.69494e-06 -1.123e-06 -4.08589e-06 6.29526e-06 3.1794e-06 -9.9902e-06)
(4.89116e-06 -2.53417e-08 3.89008e-06 5.07955e-06 2.23924e-06 -9.97072e-06)
(5.03997e-06 4.79731e-08 2.96794e-06 4.79818e-06 2.17814e-06 -9.83815e-06)
(4.89485e-06 1.20806e-07 2.12205e-06 4.88897e-06 2.12058e-06 -9.78383e-06)
(4.96307e-06 6.67918e-08 1.28064e-06 4.85058e-06 2.08099e-06 -9.81366e-06)
(4.94145e-06 1.90746e-08 4.24632e-07 4.86512e-06 2.06352e-06 -9.80657e-06)
(4.9413e-06 -3.0405e-08 -4.31084e-07 4.86584e-06 2.06439e-06 -9.80713e-06)
(4.96266e-06 -7.97306e-08 -1.28735e-06 4.85409e-06 2.08412e-06 -9.81674e-06)
(4.89162e-06 -1.36602e-07 -2.1285e-06 4.89516e-06 2.12583e-06 -9.78679e-06)
(5.0254e-06 -6.45697e-08 -2.97017e-06 4.80616e-06 2.18385e-06 -9.83156e-06)
(4.86835e-06 2.68267e-08 -3.89257e-06 5.10358e-06 2.25049e-06 -9.97194e-06)
(4.94184e-06 2.51378e-07 3.81317e-06 4.91493e-06 1.33604e-06 -9.85678e-06)
(4.89755e-06 9.36068e-09 2.93115e-06 4.96337e-06 1.30813e-06 -9.86093e-06)
(4.85479e-06 6.87455e-08 2.08264e-06 4.96005e-06 1.28026e-06 -9.81484e-06)
(4.9108e-06 2.96203e-08 1.25235e-06 4.90759e-06 1.25166e-06 -9.81839e-06)
(4.90718e-06 5.37076e-09 4.15769e-07 4.89537e-06 1.23745e-06 -9.80256e-06)
(4.9069e-06 -1.46382e-08 -4.20595e-07 4.89691e-06 1.2383e-06 -9.80381e-06)
(4.90865e-06 -3.92443e-08 -1.25694e-06 4.91069e-06 1.25388e-06 -9.81934e-06)
(4.85045e-06 -7.85187e-08 -2.08646e-06 4.96506e-06 1.28394e-06 -9.81551e-06)
(4.89146e-06 -1.81774e-08 -2.93429e-06 4.97279e-06 1.31371e-06 -9.86424e-06)
(4.93107e-06 -2.5289e-07 -3.81464e-06 4.92976e-06 1.34322e-06 -9.86083e-06)
(5.00843e-06 6.64289e-08 3.7531e-06 4.83158e-06 4.44549e-07 -9.84001e-06)
(4.88402e-06 -5.95115e-09 2.90981e-06 4.96004e-06 4.32357e-07 -9.84407e-06)
(4.86699e-06 2.12964e-08 2.06456e-06 4.9393e-06 4.24486e-07 -9.80629e-06)
(4.89832e-06 6.24845e-09 1.23822e-06 4.90516e-06 4.15509e-07 -9.80348e-06)
(4.90068e-06 -1.34187e-09 4.11643e-07 4.89854e-06 4.11322e-07 -9.79922e-06)
(4.89996e-06 -5.84418e-09 -4.15129e-07 4.89949e-06 4.11887e-07 -9.79945e-06)
(4.89567e-06 -1.31258e-08 -1.24133e-06 4.90747e-06 4.17166e-07 -9.80314e-06)
(4.86389e-06 -2.7575e-08 -2.06735e-06 4.94401e-06 4.27307e-07 -9.8079e-06)
(4.88114e-06 7.89547e-10 -2.91192e-06 4.96632e-06 4.3626e-07 -9.84746e-06)
(5.00397e-06 -6.84422e-08 -3.75384e-06 4.83982e-06 4.49281e-07 -9.84379e-06)
(5.00579e-06 -6.77984e-08 3.75336e-06 4.83486e-06 -4.53594e-07 -9.84065e-06)
(4.88348e-06 1.27063e-10 2.91038e-06 4.9617e-06 -4.40327e-07 -9.84518e-06)
(4.86633e-06 -2.8297e-08 2.06518e-06 4.94014e-06 -4.31067e-07 -9.80647e-06)
(4.89792e-06 -1.35313e-08 1.23872e-06 4.90471e-06 -4.2065e-07 -9.80264e-06)
(4.90126e-06 -5.39379e-09 4.12195e-07 4.89817e-06 -4.15271e-07 -9.79943e-06)
(4.90059e-06 1.43833e-10 -4.14705e-07 4.89902e-06 -4.14839e-07 -9.7996e-06)
(4.89628e-06 8.59822e-09 -1.24103e-06 4.90698e-06 -4.19396e-07 -9.80326e-06)
(4.86439e-06 2.41242e-08 -2.06714e-06 4.94361e-06 -4.29035e-07 -9.808e-06)
(4.88148e-06 -3.44114e-09 -2.91178e-06 4.96604e-06 -4.37641e-07 -9.84752e-06)
(5.00402e-06 6.59174e-08 -3.75376e-06 4.83974e-06 -4.5044e-07 -9.84376e-06)
(4.93114e-06 -2.51832e-07 3.81416e-06 4.92672e-06 -1.34658e-06 -9.85786e-06)
(4.89352e-06 -1.82352e-08 2.93285e-06 4.96887e-06 -1.31695e-06 -9.8624e-06)
(4.85349e-06 -7.8217e-08 2.08443e-06 4.96115e-06 -1.28709e-06 -9.81464e-06)
(4.91184e-06 -3.81255e-08 1.25437e-06 4.90727e-06 -1.25698e-06 -9.81911e-06)
(4.90944e-06 -1.25087e-08 4.17501e-07 4.89475e-06 -1.24153e-06 -9.80419e-06)
(4.90898e-06 8.89982e-09 -4.19303e-07 4.89536e-06 -1.24121e-06 -9.80434e-06)
(4.91051e-06 3.48437e-08 -1.25603e-06 4.90921e-06 -1.25606e-06 -9.81972e-06)
(4.85199e-06 7.52728e-08 -2.08584e-06 4.9638e-06 -1.28562e-06 -9.81579e-06)
(4.89251e-06 1.57648e-08 -2.93388e-06 4.97188e-06 -1.31505e-06 -9.86439e-06)
(4.93119e-06 2.50604e-07 -3.81441e-06 4.92952e-06 -1.34436e-06 -9.86071e-06)
(4.86793e-06 2.67614e-08 3.89198e-06 5.10135e-06 -2.25324e-06 -9.96928e-06)
(5.02825e-06 -6.44758e-08 2.96874e-06 4.80218e-06 -2.18655e-06 -9.83043e-06)
(4.89534e-06 -1.35578e-07 2.12642e-06 4.89101e-06 -2.12851e-06 -9.78635e-06)
(4.96689e-06 -7.76675e-08 1.28463e-06 4.85011e-06 -2.08688e-06 -9.817e-06)
(4.94534e-06 -2.67669e-08 4.27623e-07 4.86257e-06 -2.06739e-06 -9.80791e-06)
(4.94492e-06 2.46584e-08 -4.28891e-07 4.86316e-06 -2.06715e-06 -9.80807e-06)
(4.96586e-06 7.56236e-08 -1.28581e-06 4.85164e-06 -2.08617e-06 -9.8175e-06)
(4.89422e-06 1.33645e-07 -2.12745e-06 4.89313e-06 -2.1274e-06 -9.78735e-06)
(5.02727e-06 6.26345e-08 -2.9695e-06 4.80459e-06 -2.1851e-06 -9.83186e-06)
(4.86855e-06 -2.81258e-08 -3.8922e-06 5.10315e-06 -2.25153e-06 -9.9717e-06)
(3.69459e-06 -1.12352e-06 4.08509e-06 6.29363e-06 -3.18164e-06 -9.98822e-06)
(4.87062e-06 -5.0246e-07 3.05074e-06 4.86727e-06 -3.05233e-06 -9.73789e-06)
(4.81237e-06 -6.42496e-08 2.18711e-06 5.03117e-06 -2.97391e-06 -9.84354e-06)
(4.97413e-06 -1.72895e-08 1.31433e-06 4.89114e-06 -2.93464e-06 -9.86528e-06)
(4.96734e-06 1.72767e-09 4.36611e-07 4.88018e-06 -2.91192e-06 -9.84752e-06)
(4.96699e-06 -2.60626e-09 -4.37442e-07 4.88057e-06 -2.91172e-06 -9.84756e-06)
(4.97326e-06 1.62814e-08 -1.31512e-06 4.89217e-06 -2.93406e-06 -9.86544e-06)
(4.81141e-06 6.28759e-08 -2.18784e-06 5.03257e-06 -2.973e-06 -9.84398e-06)
(4.86984e-06 5.005e-07 -3.05129e-06 4.86874e-06 -3.05117e-06 -9.73858e-06)
(3.69637e-06 1.12225e-06 -4.0852e-06 6.29392e-06 -3.18025e-06 -9.99028e-06)
(5.14743e-06 9.7923e-07 4.53191e-06 5.14611e-06 -4.53298e-06 -1.02935e-05)
(6.29915e-06 -1.12421e-06 3.18147e-06 3.69578e-06 -4.08785e-06 -9.99492e-06)
(5.10516e-06 2.71063e-08 2.25131e-06 4.86798e-06 -3.89313e-06 -9.97314e-06)
(4.93067e-06 -2.51869e-07 1.34375e-06 4.9305e-06 -3.81471e-06 -9.86117e-06)
(4.84042e-06 -6.73172e-08 4.49699e-07 5.00372e-06 -3.75381e-06 -9.84415e-06)
(4.84016e-06 6.68917e-08 -4.50154e-07 5.00384e-06 -3.75365e-06 -9.844e-06)
(4.92983e-06 2.51236e-07 -1.3442e-06 4.93103e-06 -3.81422e-06 -9.86086e-06)
(5.10405e-06 -2.81094e-08 -2.25177e-06 4.8688e-06 -3.89232e-06 -9.97285e-06)
(6.29794e-06 1.1224e-06 -3.18188e-06 3.69688e-06 -4.08689e-06 -9.99482e-06)
(5.14884e-06 -9.79165e-07 -4.53198e-06 5.14675e-06 -4.53182e-06 -1.02956e-05)
(3.47831e-06 2.11522e-07 4.21675e-06 3.46087e-06 4.2117e-06 -6.93918e-06)
(3.71928e-06 2.32897e-07 2.93892e-06 2.88709e-06 3.76329e-06 -6.60637e-06)
(3.23034e-06 -3.24512e-07 2.05934e-06 3.52913e-06 3.68854e-06 -6.75947e-06)
(3.16149e-06 6.69875e-08 1.22213e-06 3.50141e-06 3.63747e-06 -6.6629e-06)
(3.10867e-06 -3.47131e-08 4.07554e-07 3.5713e-06 3.59182e-06 -6.67997e-06)
(3.11037e-06 3.33794e-08 -4.15396e-07 3.5683e-06 3.59229e-06 -6.67867e-06)
(3.16744e-06 -6.85387e-08 -1.23084e-06 3.49219e-06 3.63924e-06 -6.65963e-06)
(3.24245e-06 3.23266e-07 -2.07025e-06 3.51239e-06 3.6926e-06 -6.75484e-06)
(3.7214e-06 -2.27132e-07 -2.95197e-06 2.86758e-06 3.77196e-06 -6.58898e-06)
(3.44971e-06 -1.90991e-07 -4.221e-06 3.45122e-06 4.21909e-06 -6.90094e-06)
(2.88683e-06 2.39252e-07 3.77079e-06 3.71765e-06 2.93788e-06 -6.60448e-06)
(3.1989e-06 7.87187e-08 2.83354e-06 3.19569e-06 2.82962e-06 -6.39458e-06)
(3.2312e-06 -1.25057e-07 2.04349e-06 3.44043e-06 2.79236e-06 -6.67164e-06)
(3.33727e-06 -4.74636e-08 1.22143e-06 3.39421e-06 2.78359e-06 -6.73147e-06)
(3.31737e-06 -3.36865e-08 4.03765e-07 3.44594e-06 2.77257e-06 -6.76331e-06)
(3.31769e-06 2.70962e-08 -4.1049e-07 3.44543e-06 2.77319e-06 -6.76311e-06)
(3.33888e-06 3.99945e-08 -1.22861e-06 3.39356e-06 2.78612e-06 -6.73244e-06)
(3.23808e-06 1.14549e-07 -2.05396e-06 3.44395e-06 2.80097e-06 -6.68203e-06)
(3.19491e-06 -9.32473e-08 -2.84034e-06 3.19741e-06 2.83771e-06 -6.39232e-06)
(2.8648e-06 -2.26613e-07 -3.77158e-06 3.72094e-06 2.94748e-06 -6.58574e-06)
(3.52584e-06 -3.20851e-07 3.69228e-06 3.23142e-06 2.05905e-06 -6.75725e-06)
(3.44621e-06 -1.23358e-07 2.80002e-06 3.23474e-06 2.04459e-06 -6.68095e-06)
(3.38008e-06 -2.88317e-08 2.00479e-06 3.37892e-06 2.00235e-06 -6.75899e-06)
(3.41116e-06 -4.68819e-09 1.20212e-06 3.38916e-06 1.97594e-06 -6.80032e-06)
(3.36979e-06 -3.30208e-10 3.97336e-07 3.43669e-06 1.96313e-06 -6.80648e-06)
(3.36961e-06 -5.25259e-09 -4.02656e-07 3.43715e-06 1.96386e-06 -6.80676e-06)
(3.41117e-06 -1.24946e-09 -1.20756e-06 3.39111e-06 1.97855e-06 -6.80228e-06)
(3.37863e-06 2.14931e-08 -2.00941e-06 3.38134e-06 2.00636e-06 -6.75997e-06)
(3.43664e-06 1.14626e-07 -2.79931e-06 3.23576e-06 2.04766e-06 -6.6724e-06)
(3.51191e-06 3.22701e-07 -3.69387e-06 3.24354e-06 2.06656e-06 -6.75545e-06)
(3.49776e-06 6.93433e-08 3.63982e-06 3.16288e-06 1.22191e-06 -6.66064e-06)
(3.39392e-06 -4.53401e-08 2.78672e-06 3.3375e-06 1.22053e-06 -6.73142e-06)
(3.39025e-06 -3.89761e-09 1.97865e-06 3.41119e-06 1.20083e-06 -6.80145e-06)
(3.42586e-06 -2.02648e-08 1.18424e-06 3.42533e-06 1.18254e-06 -6.8512e-06)
(3.4058e-06 -7.18019e-09 3.91669e-07 3.44938e-06 1.17383e-06 -6.85518e-06)
(3.40585e-06 3.22934e-09 -3.95627e-07 3.45034e-06 1.17463e-06 -6.85619e-06)
(3.42476e-06 1.60942e-08 -1.18784e-06 3.42676e-06 1.18453e-06 -6.85152e-06)
(3.38772e-06 -6.48948e-10 -1.98121e-06 3.41289e-06 1.20388e-06 -6.80061e-06)
(3.3905e-06 4.05729e-08 -2.7885e-06 3.34113e-06 1.2248e-06 -6.73163e-06)
(3.49096e-06 -7.01013e-08 -3.6413e-06 3.16995e-06 1.227e-06 -6.66091e-06)
(3.56875e-06 -3.38634e-08 3.5934e-06 3.10999e-06 4.07529e-07 -6.67875e-06)
(3.44424e-06 -3.19277e-08 2.77479e-06 3.3178e-06 4.03184e-07 -6.76204e-06)
(3.43645e-06 7.37918e-10 1.96521e-06 3.36957e-06 3.9635e-07 -6.80602e-06)
(3.45003e-06 -6.7007e-09 1.1756e-06 3.40582e-06 3.90547e-07 -6.85585e-06)
(3.43612e-06 -2.84485e-09 3.89838e-07 3.43587e-06 3.88611e-07 -6.87198e-06)
(3.4357e-06 1.87842e-10 -3.92504e-07 3.43631e-06 3.89173e-07 -6.87201e-06)
(3.44845e-06 3.92886e-09 -1.17788e-06 3.40658e-06 3.92133e-07 -6.85503e-06)
(3.43483e-06 -3.75746e-09 -1.96716e-06 3.37147e-06 3.98942e-07 -6.8063e-06)
(3.44262e-06 2.88629e-08 -2.77626e-06 3.32034e-06 4.06442e-07 -6.76296e-06)
(3.56543e-06 3.25643e-08 -3.59456e-06 3.1139e-06 4.11103e-07 -6.67932e-06)
(3.56729e-06 3.29722e-08 3.59356e-06 3.11119e-06 -4.1517e-07 -6.67847e-06)
(3.44397e-06 2.81666e-08 2.77492e-06 3.31818e-06 -4.10677e-07 -6.76215e-06)
(3.43631e-06 -4.22752e-09 1.96553e-06 3.36961e-06 -4.03209e-07 -6.80592e-06)
(3.4497e-06 3.92311e-09 1.17599e-06 3.40524e-06 -3.96343e-07 -6.85494e-06)
(3.43628e-06 5.43373e-10 3.90357e-07 3.43562e-06 -3.93355e-07 -6.8719e-06)
(3.43588e-06 -2.21732e-09 -3.92059e-07 3.43603e-06 -3.92934e-07 -6.87191e-06)
(3.44861e-06 -5.71662e-09 -1.17753e-06 3.40629e-06 -3.95095e-07 -6.8549e-06)
(3.4349e-06 2.19773e-09 -1.96689e-06 3.37128e-06 -4.01283e-07 -6.80618e-06)
(3.44259e-06 -3.04321e-08 -2.77607e-06 3.32023e-06 -4.08307e-07 -6.76282e-06)
(3.56548e-06 -3.45567e-08 -3.59443e-06 3.11377e-06 -4.12604e-07 -6.67925e-06)
(3.49239e-06 -6.94523e-08 3.64012e-06 3.16733e-06 -1.23044e-06 -6.65972e-06)
(3.39179e-06 4.05593e-08 2.78709e-06 3.33873e-06 -1.22836e-06 -6.73052e-06)
(3.38962e-06 -3.72857e-10 1.97955e-06 3.41048e-06 -1.20752e-06 -6.8001e-06)
(3.42646e-06 1.69198e-08 1.18586e-06 3.42468e-06 -1.18828e-06 -6.85115e-06)
(3.40685e-06 4.58662e-09 3.93309e-07 3.44904e-06 -1.17857e-06 -6.8559e-06)
(3.40644e-06 -5.3685e-09 -3.94308e-07 3.4494e-06 -1.17826e-06 -6.85584e-06)
(3.42528e-06 -1.78181e-08 -1.18681e-06 3.42588e-06 -1.18738e-06 -6.85116e-06)
(3.3881e-06 -7.80304e-10 -1.98043e-06 3.41217e-06 -1.20614e-06 -6.80027e-06)
(3.3904e-06 -4.20373e-08 -2.78792e-06 3.34077e-06 -1.22663e-06 -6.73117e-06)
(3.49104e-06 6.82127e-08 -3.64088e-06 3.16971e-06 -1.22851e-06 -6.66075e-06)
(3.51358e-06 3.2245e-07 3.69262e-06 3.24078e-06 -2.06949e-06 -6.75437e-06)
(3.4382e-06 1.14973e-07 2.79779e-06 3.23294e-06 -2.05064e-06 -6.67114e-06)
(3.38091e-06 2.23998e-08 2.00759e-06 3.37838e-06 -2.00947e-06 -6.75929e-06)
(3.41339e-06 3.9478e-10 1.20537e-06 3.38838e-06 -1.98182e-06 -6.80177e-06)
(3.37123e-06 -2.77031e-09 3.99995e-07 3.43499e-06 -1.96742e-06 -6.80623e-06)
(3.37079e-06 2.9467e-09 -4.00485e-07 3.43542e-06 -1.9672e-06 -6.80621e-06)
(3.41213e-06 -3.00105e-10 -1.20586e-06 3.38964e-06 -1.98118e-06 -6.80178e-06)
(3.37919e-06 -2.2694e-08 -2.00814e-06 3.38026e-06 -2.00845e-06 -6.75945e-06)
(3.43649e-06 -1.15568e-07 -2.79842e-06 3.23516e-06 -2.04935e-06 -6.67165e-06)
(3.51162e-06 -3.23211e-07 -3.69327e-06 3.24347e-06 -2.06799e-06 -6.75509e-06)
(2.86742e-06 -2.28194e-07 3.77022e-06 3.7185e-06 -2.94992e-06 -6.58591e-06)
(3.197e-06 -9.30398e-08 2.83872e-06 3.19474e-06 -2.84019e-06 -6.39173e-06)