/*--------------------------------*- C++ -*----------------------------------*\
| =========                 |                                                 |
| \\      /  F ield         | OpenFOAM: The Open Source CFD Toolbox           |
|  \\    /   O peration     | Version:  2406                                  |
|   \\  /    A nd           | Website:  www.openfoam.com                      |
|    \\/     M anipulation  |                                                 |
\*---------------------------------------------------------------------------*/
FoamFile
{
    version     2.0;
    format      ascii;
    arch        "LSB;label=32;scalar=64";
    class       volSymmTensorField;
    location    "400";
    object      turbulenceProperties:R;
}
// * * * * * * * * * * * * * * * * * * * * * * * * * * * * * * * * * * * * * //

dimensions      [0 2 -2 0 0 0 0];

internalField   nonuniform List<symmTensor> 
25000
(
(2.63677e-05 -1.54125e-06 -5.94022e-07 2.63767e-05 -5.93616e-07 2.19094e-05)
(2.60918e-05 6.85887e-07 -4.11888e-07 2.46854e-05 -5.25954e-07 2.05975e-05)
(2.371e-05 4.25471e-07 -2.90444e-07 2.31995e-05 -5.42077e-07 1.88404e-05)
(2.31429e-05 2.62678e-07 -1.73192e-07 2.29597e-05 -5.44633e-07 1.84571e-05)
(2.28652e-05 9.22209e-08 -5.73536e-08 2.28366e-05 -5.45083e-07 1.82721e-05)
(2.2866e-05 -8.92241e-08 5.85846e-08 2.2845e-05 -5.4504e-07 1.82758e-05)
(2.31406e-05 -2.58064e-07 1.747e-07 2.2983e-05 -5.44475e-07 1.84644e-05)
(2.36826e-05 -4.17052e-07 2.92496e-07 2.3226e-05 -5.41964e-07 1.88345e-05)
(2.62224e-05 -6.90726e-07 4.15137e-07 2.48655e-05 -5.26226e-07 2.07124e-05)
(2.65644e-05 1.49084e-06 5.92137e-07 2.6562e-05 -5.92002e-07 2.19876e-05)
(2.47027e-05 6.81993e-07 -5.26245e-07 2.61173e-05 -4.11851e-07 2.06137e-05)
(2.49156e-05 5.10969e-07 -4.09495e-07 2.4925e-05 -4.09253e-07 2.00216e-05)
(2.27533e-05 3.35058e-07 -3.04148e-07 2.28154e-05 -4.1856e-07 1.82433e-05)
(2.16344e-05 1.93663e-07 -1.84058e-07 2.16803e-05 -4.26793e-07 1.73035e-05)
(2.10949e-05 6.61644e-08 -6.12013e-08 2.11278e-05 -4.31118e-07 1.68481e-05)
(2.10903e-05 -5.65362e-08 6.21957e-08 2.11243e-05 -4.31227e-07 1.68446e-05)
(2.16168e-05 -1.81099e-07 1.85207e-07 2.1665e-05 -4.2719e-07 1.72891e-05)
(2.27224e-05 -3.15582e-07 3.05797e-07 2.27865e-05 -4.19822e-07 1.82142e-05)
(2.48442e-05 -4.76322e-07 4.11164e-07 2.48401e-05 -4.11072e-07 1.99502e-05)
(2.4839e-05 -6.89432e-07 5.26015e-07 2.61903e-05 -4.14876e-07 2.06886e-05)
(2.32225e-05 4.1766e-07 -5.42157e-07 2.37313e-05 -2.9064e-07 1.8856e-05)
(2.28311e-05 3.31656e-07 -4.19065e-07 2.27768e-05 -3.04435e-07 1.82567e-05)
(2.11471e-05 2.27131e-07 -3.08925e-07 2.11512e-05 -3.08936e-07 1.68924e-05)
(2.01466e-05 1.36212e-07 -1.87832e-07 2.01611e-05 -3.11965e-07 1.60697e-05)
(1.96612e-05 4.74959e-08 -6.26689e-08 1.96778e-05 -3.13822e-07 1.56676e-05)
(1.96589e-05 -3.90865e-08 6.33803e-08 1.96747e-05 -3.1393e-07 1.56652e-05)
(2.01387e-05 -1.26417e-07 1.88612e-07 2.01502e-05 -3.12368e-07 1.60612e-05)
(2.11267e-05 -2.14727e-07 3.09754e-07 2.11231e-05 -3.09659e-07 1.68714e-05)
(2.27783e-05 -3.15899e-07 4.19528e-07 2.27063e-05 -3.0542e-07 1.82064e-05)
(2.32078e-05 -4.15687e-07 5.41851e-07 2.36599e-05 -2.92359e-07 1.88176e-05)
(2.29754e-05 2.59533e-07 -5.44645e-07 2.31541e-05 -1.73396e-07 1.84674e-05)
(2.16859e-05 1.90204e-07 -4.26865e-07 2.16431e-05 -1.8418e-07 1.73089e-05)
(2.01627e-05 1.34921e-07 -3.11984e-07 2.01531e-05 -1.87929e-07 1.60726e-05)
(1.91806e-05 8.31544e-08 -1.8963e-07 1.91827e-05 -1.89709e-07 1.52689e-05)
(1.86957e-05 2.98176e-08 -6.33832e-08 1.87013e-05 -1.90669e-07 1.48701e-05)
(1.86958e-05 -2.31942e-08 6.38661e-08 1.87e-05 -1.90772e-07 1.48695e-05)
(1.91772e-05 -7.61025e-08 1.90123e-07 1.9175e-05 -1.89995e-07 1.52641e-05)
(2.01513e-05 -1.27244e-07 3.12416e-07 2.01337e-05 -1.88435e-07 1.606e-05)
(2.16659e-05 -1.82482e-07 4.27219e-07 2.161e-05 -1.84999e-07 1.72869e-05)
(2.29697e-05 -2.57265e-07 5.44285e-07 2.31211e-05 -1.74472e-07 1.84509e-05)
(2.28462e-05 9.06748e-08 -5.45141e-07 2.28708e-05 -5.74954e-08 1.82782e-05)
(2.11347e-05 6.37592e-08 -4.31128e-07 2.11017e-05 -6.13171e-08 1.68537e-05)
(1.96788e-05 4.60418e-08 -3.13777e-07 1.96647e-05 -6.27647e-08 1.56694e-05)
(1.8701e-05 2.92571e-08 -1.90606e-07 1.86984e-05 -6.3478e-08 1.48709e-05)
(1.82177e-05 1.14677e-08 -6.38034e-08 1.82188e-05 -6.38992e-08 1.44741e-05)
(1.82178e-05 -6.46047e-09 6.41146e-08 1.82175e-05 -6.39658e-08 1.44736e-05)
(1.86997e-05 -2.43076e-08 1.90889e-07 1.86929e-05 -6.36847e-08 1.48683e-05)
(1.9675e-05 -4.12231e-08 3.14038e-07 1.96542e-05 -6.31357e-08 1.56635e-05)
(2.11234e-05 -5.92509e-08 4.31279e-07 2.10815e-05 -6.18641e-08 1.68409e-05)
(2.28379e-05 -8.90921e-08 5.44738e-07 2.28484e-05 -5.81811e-08 1.82657e-05)
(2.28481e-05 -8.9721e-08 -5.45092e-07 2.2867e-05 5.84987e-08 1.82775e-05)
(2.11286e-05 -5.819e-08 -4.31241e-07 2.10938e-05 6.21106e-08 1.68479e-05)
(1.96765e-05 -4.0362e-08 -3.13888e-07 1.96615e-05 6.32946e-08 1.5667e-05)
(1.86988e-05 -2.38725e-08 -1.90678e-07 1.86962e-05 6.37718e-08 1.48693e-05)
(1.82166e-05 -6.71989e-09 -6.3875e-08 1.82184e-05 6.40231e-08 1.44735e-05)
(1.82171e-05 1.03822e-08 6.40661e-08 1.82176e-05 6.39702e-08 1.44734e-05)
(1.86994e-05 2.73746e-08 1.90858e-07 1.86935e-05 6.36207e-08 1.48685e-05)
(1.9675e-05 4.35179e-08 3.14016e-07 1.96548e-05 6.30327e-08 1.56638e-05)
(2.11234e-05 6.09198e-08 4.31263e-07 2.10821e-05 6.1737e-08 1.68411e-05)
(2.28392e-05 9.08891e-08 5.44721e-07 2.28499e-05 5.80312e-08 1.82669e-05)
(2.29833e-05 -2.58394e-07 -5.44597e-07 2.31396e-05 1.74656e-07 1.84642e-05)
(2.16692e-05 -1.82201e-07 -4.27191e-07 2.16197e-05 1.85139e-07 1.72921e-05)
(2.01506e-05 -1.27346e-07 -3.12294e-07 2.01393e-05 1.88529e-07 1.60619e-05)
(1.91751e-05 -7.6766e-08 -1.89926e-07 1.91783e-05 1.90052e-07 1.52647e-05)
(1.86933e-05 -2.46662e-08 -6.36007e-08 1.8701e-05 1.90828e-07 1.48689e-05)
(1.8694e-05 2.72287e-08 6.37162e-08 1.87008e-05 1.90791e-07 1.48691e-05)
(1.91761e-05 7.91553e-08 1.90025e-07 1.91763e-05 1.89942e-07 1.52644e-05)
(2.01507e-05 1.29449e-07 3.12355e-07 2.01353e-05 1.88342e-07 1.60605e-05)
(2.16661e-05 1.84063e-07 4.2717e-07 2.16118e-05 1.84883e-07 1.72879e-05)
(2.29735e-05 2.59003e-07 5.44234e-07 2.31253e-05 1.74331e-07 1.84543e-05)
(2.32225e-05 -4.16806e-07 -5.4207e-07 2.3679e-05 2.92462e-07 1.88317e-05)
(2.27794e-05 -3.16036e-07 -4.19492e-07 2.27146e-05 3.0551e-07 1.82102e-05)
(2.11257e-05 -2.15459e-07 -3.09627e-07 2.11293e-05 3.09716e-07 1.68736e-05)
(2.01357e-05 -1.27814e-07 -1.88392e-07 2.0154e-05 3.1242e-07 1.60617e-05)
(1.96545e-05 -4.16371e-08 -6.30574e-08 1.96762e-05 3.13996e-07 1.56642e-05)
(1.96551e-05 4.32453e-08 6.31199e-08 1.96759e-05 3.13972e-07 1.56643e-05)
(2.01366e-05 1.29298e-07 1.88444e-07 2.01524e-05 3.12331e-07 1.60615e-05)
(2.11259e-05 2.16805e-07 3.09645e-07 2.1126e-05 3.09583e-07 1.68725e-05)
(2.27784e-05 3.17293e-07 4.19442e-07 2.27093e-05 3.0532e-07 1.82078e-05)
(2.32138e-05 4.17324e-07 5.41762e-07 2.3667e-05 2.92235e-07 1.88232e-05)
(2.48556e-05 -6.89686e-07 -5.26175e-07 2.62121e-05 4.14973e-07 2.07049e-05)
(2.48434e-05 -4.76555e-07 -4.11085e-07 2.4847e-05 4.11157e-07 1.99528e-05)
(2.27196e-05 -3.16715e-07 -3.05649e-07 2.27918e-05 4.19891e-07 1.82155e-05)
(2.16115e-05 -1.8304e-07 -1.84944e-07 2.1668e-05 4.27231e-07 1.72884e-05)
(2.10822e-05 -5.9738e-08 -6.17942e-08 2.11247e-05 4.31281e-07 1.68417e-05)
(2.10826e-05 6.04817e-08 6.1813e-08 2.11243e-05 4.31254e-07 1.68417e-05)
(2.16125e-05 1.83728e-07 1.84958e-07 2.16669e-05 4.27156e-07 1.72884e-05)
(2.27201e-05 3.17346e-07 3.05643e-07 2.27891e-05 4.19764e-07 1.82147e-05)
(2.48433e-05 4.77439e-07 4.11042e-07 2.4843e-05 4.10998e-07 1.99512e-05)
(2.48469e-05 6.90447e-07 5.25899e-07 2.62003e-05 4.14787e-07 2.06964e-05)
(2.65651e-05 1.49278e-06 -5.92131e-07 2.65678e-05 5.92219e-07 2.1992e-05)
(2.61943e-05 -6.89332e-07 -4.15025e-07 2.4842e-05 5.26288e-07 2.06907e-05)
(2.36597e-05 -4.15975e-07 -2.92337e-07 2.3207e-05 5.41931e-07 1.88173e-05)
(2.31205e-05 -2.57664e-07 -1.74421e-07 2.29689e-05 5.44346e-07 1.84504e-05)
(2.28478e-05 -8.95406e-08 -5.81214e-08 2.28371e-05 5.44789e-07 1.82651e-05)
(2.28499e-05 9.04574e-08 5.80944e-08 2.28392e-05 5.44761e-07 1.82669e-05)
(2.31257e-05 2.58588e-07 1.7439e-07 2.29738e-05 5.44254e-07 1.84545e-05)
(2.36681e-05 4.1702e-07 2.92291e-07 2.32147e-05 5.41773e-07 1.88239e-05)
(2.62071e-05 6.9057e-07 4.14972e-07 2.48528e-05 5.26057e-07 2.07008e-05)
(2.65609e-05 -1.49106e-06 5.91919e-07 2.65604e-05 5.91885e-07 2.19859e-05)
(3.68293e-05 -1.26452e-06 1.1626e-06 3.68218e-05 1.16406e-06 3.04156e-05)
(3.65404e-05 6.83327e-07 8.3591e-07 3.48614e-05 1.09392e-06 2.91879e-05)
(3.35899e-05 1.77667e-07 5.98537e-07 3.31085e-05 9.99306e-07 2.69488e-05)
(3.2989e-05 1.6724e-07 3.59351e-07 3.27221e-05 9.60446e-07 2.64607e-05)
(3.26847e-05 6.05757e-08 1.2092e-07 3.25119e-05 9.37327e-07 2.62057e-05)
(3.26893e-05 -6.42446e-08 -1.1737e-07 3.25097e-05 9.37127e-07 2.62067e-05)
(3.30026e-05 -1.72678e-07 -3.5552e-07 3.27134e-05 9.59676e-07 2.64629e-05)
(3.36158e-05 -1.86974e-07 -5.94116e-07 3.30893e-05 9.97911e-07 2.69527e-05)
(3.64605e-05 -6.82404e-07 -8.30678e-07 3.47416e-05 1.09179e-06 2.91114e-05)
(3.65535e-05 1.30009e-06 -1.1608e-06 3.65534e-05 1.16118e-06 3.02281e-05)
(3.48605e-05 6.87295e-07 1.09314e-06 3.6534e-05 8.37321e-07 2.91823e-05)
(3.38547e-05 3.41506e-07 7.98187e-07 3.38486e-05 7.99294e-07 2.73107e-05)
(3.24907e-05 1.39244e-07 5.50397e-07 3.25354e-05 7.54245e-07 2.61111e-05)
(3.20055e-05 6.35345e-08 3.28612e-07 3.19143e-05 7.23683e-07 2.56003e-05)
(3.16683e-05 1.72719e-08 1.09817e-07 3.15331e-05 7.07296e-07 2.52807e-05)
(3.16732e-05 -2.49343e-08 -1.06897e-07 3.15363e-05 7.06976e-07 2.52837e-05)
(3.20229e-05 -7.42967e-08 -3.25685e-07 3.1927e-05 7.22718e-07 2.56115e-05)
(3.25602e-05 -1.57299e-07 -5.48539e-07 3.26e-05 7.53905e-07 2.61578e-05)
(3.38905e-05 -3.70238e-07 -7.94988e-07 3.38929e-05 7.95719e-07 2.73444e-05)
(3.47343e-05 -6.82557e-07 -1.09037e-06 3.64537e-05 8.30687e-07 2.91085e-05)
(3.30915e-05 1.82644e-07 9.98762e-07 3.35729e-05 5.98515e-07 2.69353e-05)
(3.25724e-05 1.42395e-07 7.55017e-07 3.25206e-05 5.52091e-07 2.61315e-05)
(3.14003e-05 1.24351e-07 5.20779e-07 3.13971e-05 5.21376e-07 2.51217e-05)
(3.09692e-05 7.10614e-08 3.0927e-07 3.08987e-05 4.98375e-07 2.46957e-05)
(3.07302e-05 2.05647e-08 1.03221e-07 3.06401e-05 4.86981e-07 2.44689e-05)
(3.07333e-05 -2.75177e-08 -1.00933e-07 3.06433e-05 4.86686e-07 2.44712e-05)
(3.09838e-05 -7.96018e-08 -3.07135e-07 3.09146e-05 4.97608e-07 2.47067e-05)
(3.14189e-05 -1.35852e-07 -5.18695e-07 3.1421e-05 5.19707e-07 2.51384e-05)
(3.25594e-05 -1.56733e-07 -7.51447e-07 3.25242e-05 5.48324e-07 2.61335e-05)
(3.30966e-05 -1.87338e-07 -9.97275e-07 3.36257e-05 5.95114e-07 2.696e-05)
(3.27151e-05 1.69407e-07 9.60088e-07 3.29846e-05 3.59054e-07 2.64563e-05)
(3.19135e-05 6.6033e-08 7.23164e-07 3.20022e-05 3.28771e-07 2.55982e-05)
(3.09046e-05 7.20097e-08 4.98009e-07 3.09713e-05 3.09658e-07 2.46979e-05)
(3.03926e-05 4.60696e-08 2.93967e-07 3.03911e-05 2.94317e-07 2.42108e-05)
(3.01267e-05 1.33125e-08 9.77587e-08 3.00961e-05 2.86039e-07 2.39632e-05)
(3.01313e-05 -1.87357e-08 -9.60246e-08 3.01015e-05 2.85845e-07 2.39666e-05)
(3.03976e-05 -5.20678e-08 -2.92336e-07 3.03991e-05 2.93559e-07 2.42157e-05)
(3.09095e-05 -7.89122e-08 -4.96413e-07 3.09826e-05 3.08285e-07 2.4705e-05)
(3.19271e-05 -7.34761e-08 -7.218e-07 3.20281e-05 3.26957e-07 2.56139e-05)
(3.27239e-05 -1.72886e-07 -9.59141e-07 3.30176e-05 3.56932e-07 2.64731e-05)
(3.25114e-05 6.15182e-08 9.37304e-07 3.26862e-05 1.20603e-07 2.62061e-05)
(3.15316e-05 1.87903e-08 7.06877e-07 3.16663e-05 1.09745e-07 2.52792e-05)
(3.06405e-05 2.14893e-08 4.86563e-07 3.07288e-05 1.03321e-07 2.44683e-05)
(3.01001e-05 1.36358e-08 2.85784e-07 3.01288e-05 9.79512e-08 2.39651e-05)
(2.98453e-05 3.14057e-09 9.4792e-08 2.98446e-05 9.49887e-08 2.37258e-05)
(2.9846e-05 -7.14136e-09 -9.34741e-08 2.98462e-05 9.47871e-08 2.37267e-05)
(3.00995e-05 -1.77477e-08 -2.84516e-07 3.01311e-05 9.73487e-08 2.39662e-05)
(3.06457e-05 -2.57328e-08 -4.85521e-07 3.07394e-05 1.02376e-07 2.44745e-05)
(3.15408e-05 -2.28869e-08 -7.05999e-07 3.1684e-05 1.0851e-07 2.52897e-05)
(3.25198e-05 -6.36358e-08 -9.36507e-07 3.27076e-05 1.19148e-07 2.62178e-05)
(3.25118e-05 -6.40141e-08 9.37136e-07 3.26921e-05 -1.17686e-07 2.62086e-05)
(3.15361e-05 -2.40684e-08 7.06755e-07 3.16731e-05 -1.07058e-07 2.52836e-05)
(3.06434e-05 -2.68475e-08 4.86382e-07 3.07326e-05 -1.00953e-07 2.4471e-05)
(3.00992e-05 -1.83792e-08 2.85526e-07 3.01279e-05 -9.59457e-08 2.39649e-05)
(2.9847e-05 -7.02281e-09 9.46104e-08 2.98459e-05 -9.33807e-08 2.37269e-05)
(2.98474e-05 4.17542e-09 -9.36297e-08 2.98471e-05 -9.35232e-08 2.37275e-05)
(3.01004e-05 1.55905e-08 -2.84634e-07 3.01316e-05 -9.63764e-08 2.39667e-05)
(3.06462e-05 2.41761e-08 -4.85613e-07 3.07397e-05 -1.01627e-07 2.44748e-05)
(3.15411e-05 2.17193e-08 -7.06063e-07 3.16842e-05 -1.07927e-07 2.52899e-05)
(3.25199e-05 6.27092e-08 -9.3656e-07 3.27075e-05 -1.18693e-07 2.62179e-05)
(3.27171e-05 -1.72634e-07 9.59796e-07 3.30062e-05 -3.55794e-07 2.64658e-05)
(3.19255e-05 -7.37869e-08 7.22488e-07 3.20215e-05 -3.25815e-07 2.56106e-05)
(3.09098e-05 -7.90912e-08 4.97247e-07 3.09786e-05 -3.07136e-07 2.47035e-05)
(3.04e-05 -5.17685e-08 2.93366e-07 3.0398e-05 -2.92361e-07 2.42162e-05)
(3.01353e-05 -1.75996e-08 9.7219e-08 3.01031e-05 -2.84554e-07 2.39687e-05)
(3.01353e-05 1.5643e-08 -9.64889e-08 3.01039e-05 -2.84654e-07 2.3969e-05)
(3.04005e-05 4.98929e-08 -2.92701e-07 3.04004e-05 -2.92653e-07 2.42173e-05)
(3.09113e-05 7.73934e-08 -4.96675e-07 3.09833e-05 -3.07589e-07 2.47059e-05)
(3.1928e-05 7.23557e-08 -7.21985e-07 3.20284e-05 -3.26412e-07 2.56143e-05)
(3.27242e-05 1.72009e-07 -9.59297e-07 3.30175e-05 -3.56504e-07 2.64731e-05)
(3.30906e-05 -1.86886e-07 9.97871e-07 3.36165e-05 -5.94276e-07 2.69538e-05)
(3.25603e-05 -1.56612e-07 7.52149e-07 3.25205e-05 -5.47511e-07 2.61324e-05)
(3.14216e-05 -1.35492e-07 5.19566e-07 3.14192e-05 -5.1884e-07 2.51387e-05)
(3.09887e-05 -7.86673e-08 3.08239e-07 3.09152e-05 -4.96674e-07 2.47088e-05)
(3.07404e-05 -2.55739e-08 1.0227e-07 3.06464e-05 -4.85586e-07 2.44752e-05)
(3.07404e-05 2.42676e-08 -1.01706e-07 3.06469e-05 -4.85651e-07 2.44753e-05)
(3.09887e-05 7.74556e-08 -3.07724e-07 3.09167e-05 -4.96831e-07 2.47093e-05)
(3.1422e-05 1.34397e-07 -5.19119e-07 3.14221e-05 -5.19117e-07 2.51399e-05)
(3.25612e-05 1.55721e-07 -7.5174e-07 3.25247e-05 -5.47865e-07 2.61343e-05)
(3.30973e-05 1.86673e-07 -9.97512e-07 3.36258e-05 -5.94737e-07 2.69602e-05)
(3.47283e-05 -6.81897e-07 1.09092e-06 3.64448e-05 -8.30154e-07 2.91021e-05)
(3.38936e-05 -3.69999e-07 7.95672e-07 3.38911e-05 -7.95226e-07 2.7345e-05)
(3.25652e-05 -1.56785e-07 5.49474e-07 3.26002e-05 -7.53372e-07 2.61599e-05)
(3.2031e-05 -7.32127e-08 3.26912e-07 3.19296e-05 -7.22072e-07 2.56157e-05)
(3.16846e-05 -2.26786e-08 1.08449e-07 3.15411e-05 -7.06135e-07 2.52901e-05)
(3.16845e-05 2.18518e-08 -1.07967e-07 3.15414e-05 -7.06151e-07 2.52901e-05)
(3.20307e-05 7.24345e-08 -3.26477e-07 3.19305e-05 -7.22128e-07 2.56159e-05)
(3.25651e-05 1.56109e-07 -5.49107e-07 3.2602e-05 -7.53468e-07 2.61605e-05)
(3.38935e-05 3.69473e-07 -7.95361e-07 3.38937e-05 -7.95385e-07 2.73459e-05)
(3.47348e-05 6.82054e-07 -1.09064e-06 3.64531e-05 -8.30406e-07 2.91082e-05)
(3.65564e-05 1.29968e-06 1.16122e-06 3.65556e-05 -1.16104e-06 3.023e-05)
(3.64739e-05 -6.83163e-07 8.3138e-07 3.4753e-05 -1.09163e-06 2.91218e-05)
(3.36297e-05 -1.8721e-07 5.95137e-07 3.31005e-05 -9.97685e-07 2.69628e-05)
(3.30188e-05 -1.72645e-07 3.569e-07 3.2725e-05 -9.59382e-07 2.64741e-05)
(3.27082e-05 -6.34152e-08 1.19143e-07 3.25205e-05 -9.36689e-07 2.62184e-05)
(3.27077e-05 6.28644e-08 -1.18682e-07 3.25201e-05 -9.36689e-07 2.6218e-05)
(3.30171e-05 1.72071e-07 -3.56487e-07 3.27238e-05 -9.59369e-07 2.64728e-05)
(3.36274e-05 1.86677e-07 -5.94804e-07 3.30989e-05 -9.97683e-07 2.69611e-05)
(3.64703e-05 6.82585e-07 -8.31138e-07 3.47505e-05 -1.09165e-06 2.9119e-05)
(3.65586e-05 -1.29969e-06 -1.16109e-06 3.65584e-05 -1.16112e-06 3.02318e-05)
(3.35524e-05 -3.25078e-07 1.54401e-06 3.35397e-05 1.54308e-06 2.82565e-05)
(3.18467e-05 3.92752e-07 1.10675e-06 3.09477e-05 1.42646e-06 2.6141e-05)
(3.01211e-05 -1.32202e-08 7.95067e-07 3.00541e-05 1.38058e-06 2.4774e-05)
(2.93224e-05 8.76445e-08 4.7779e-07 2.93341e-05 1.36386e-06 2.40365e-05)
(2.89619e-05 2.25671e-08 1.5937e-07 2.90277e-05 1.34684e-06 2.36954e-05)
(2.89645e-05 -2.48932e-08 -1.62992e-07 2.90275e-05 1.34701e-06 2.36968e-05)
(2.93313e-05 -9.03833e-08 -4.8195e-07 2.93341e-05 1.36445e-06 2.40416e-05)
(3.01363e-05 9.61677e-09 -8.00528e-07 3.0054e-05 1.38238e-06 2.4783e-05)
(3.18505e-05 -3.93294e-07 -1.11489e-06 3.09407e-05 1.43122e-06 2.61459e-05)
(3.34586e-05 3.33817e-07 -1.54566e-06 3.34587e-05 1.54513e-06 2.81934e-05)
(3.09688e-05 3.97874e-07 1.42981e-06 3.18612e-05 1.10752e-06 2.61538e-05)
(2.94268e-05 1.70124e-07 1.08866e-06 2.94223e-05 1.08757e-06 2.41963e-05)
(2.88796e-05 1.54404e-08 7.88168e-07 2.89628e-05 1.07251e-06 2.35829e-05)
(2.85502e-05 1.57372e-09 4.76665e-07 2.85246e-05 1.06735e-06 2.31473e-05)
(2.82744e-05 -3.57447e-09 1.57952e-07 2.82467e-05 1.06303e-06 2.2863e-05)
(2.82778e-05 -9.62536e-10 -1.61018e-07 2.82496e-05 1.06334e-06 2.28658e-05)
(2.85666e-05 -7.25281e-09 -4.80103e-07 2.85397e-05 1.06872e-06 2.31605e-05)
(2.89539e-05 -2.37217e-08 -7.94504e-07 2.90363e-05 1.07842e-06 2.36371e-05)
(2.94491e-05 -1.79669e-07 -1.09251e-06 2.94507e-05 1.09172e-06 2.42217e-05)
(3.09235e-05 -3.9298e-07 -1.42981e-06 3.18334e-05 1.11259e-06 2.61345e-05)
(3.0051e-05 -9.00168e-09 1.38181e-06 3.0118e-05 7.95408e-07 2.47719e-05)
(2.90167e-05 1.74095e-08 1.07707e-06 2.8929e-05 7.90447e-07 2.36175e-05)
(2.82026e-05 4.42742e-08 7.77707e-07 2.82005e-05 7.77171e-07 2.28231e-05)
(2.78249e-05 2.45867e-08 4.71416e-07 2.77835e-05 7.66033e-07 2.23854e-05)
(2.75655e-05 7.04052e-09 1.56733e-07 2.75373e-05 7.61654e-07 2.2122e-05)
(2.75686e-05 -1.12229e-08 -1.59119e-07 2.75408e-05 7.61993e-07 2.21248e-05)
(2.78399e-05 -2.93586e-08 -4.74032e-07 2.78e-05 7.67418e-07 2.23978e-05)
(2.82169e-05 -5.00633e-08 -7.80072e-07 2.82182e-05 7.79094e-07 2.28374e-05)
(2.89825e-05 -2.33816e-08 -1.07554e-06 2.89032e-05 7.90802e-07 2.36026e-05)
(3.00551e-05 9.52739e-09 -1.38243e-06 3.01387e-05 7.99251e-07 2.47847e-05)
(2.93299e-05 8.99472e-08 1.36441e-06 2.93203e-05 4.78058e-07 2.40347e-05)
(2.85286e-05 3.41163e-09 1.0683e-06 2.85526e-05 4.76766e-07 2.31497e-05)
(2.77915e-05 2.53136e-08 7.66876e-07 2.78303e-05 4.71422e-07 2.23899e-05)
(2.7385e-05 1.09685e-08 4.63751e-07 2.73838e-05 4.63493e-07 2.19307e-05)
(2.71216e-05 1.99368e-09 1.54338e-07 2.71172e-05 4.59355e-07 2.16612e-05)
(2.71271e-05 -5.4348e-09 -1.56157e-07 2.71234e-05 4.59751e-07 2.16654e-05)
(2.73895e-05 -1.45323e-08 -4.65452e-07 2.73902e-05 4.64319e-07 2.19356e-05)
(2.77933e-05 -2.89035e-08 -7.68048e-07 2.78355e-05 4.72632e-07 2.23946e-05)
(2.85374e-05 -6.6238e-09 -1.06924e-06 2.85671e-05 4.7871e-07 2.31605e-05)
(2.93395e-05 -9.0488e-08 -1.36494e-06 2.9339e-05 4.80624e-07 2.40467e-05)
(2.90244e-05 2.38463e-08 1.34727e-06 2.89609e-05 1.59582e-07 2.36942e-05)
(2.82448e-05 -2.17509e-09 1.06351e-06 2.82726e-05 1.58022e-07 2.28619e-05)
(2.75385e-05 7.8608e-09 7.62059e-07 2.75652e-05 1.56684e-07 2.21224e-05)
(2.71223e-05 2.3199e-09 4.59721e-07 2.71249e-05 1.54268e-07 2.16639e-05)
(2.69034e-05 -4.99885e-10 1.53349e-07 2.69026e-05 1.53229e-07 2.14272e-05)
(2.69042e-05 -2.17712e-09 -1.54647e-07 2.69041e-05 1.5344e-07 2.14283e-05)
(2.71205e-05 -4.87238e-09 -4.60791e-07 2.71249e-05 1.54855e-07 2.16642e-05)
(2.75432e-05 -1.0178e-08 -7.63066e-07 2.75728e-05 1.5772e-07 2.21278e-05)
(2.82539e-05 2.8857e-10 -1.06427e-06 2.8285e-05 1.59448e-07 2.28707e-05)
(2.90323e-05 -2.45691e-08 -1.34754e-06 2.89734e-05 1.61281e-07 2.37023e-05)
(2.90264e-05 -2.4338e-08 1.34737e-06 2.89651e-05 -1.62829e-07 2.36969e-05)
(2.82488e-05 4.64401e-11 1.06371e-06 2.82774e-05 -1.60934e-07 2.28656e-05)
(2.75399e-05 -1.04445e-08 7.62267e-07 2.75672e-05 -1.59108e-07 2.21241e-05)
(2.71197e-05 -5.02295e-09 4.59824e-07 2.71222e-05 -1.5615e-07 2.16627e-05)
(2.69048e-05 -2.00934e-09 1.53554e-07 2.69036e-05 -1.547e-07 2.14284e-05)
(2.69053e-05 5.3582e-11 -1.54489e-07 2.69047e-05 -1.54539e-07 2.1429e-05)
(2.71213e-05 3.19171e-09 -4.60678e-07 2.71252e-05 -1.55682e-07 2.16647e-05)
(2.75437e-05 8.90432e-09 -7.62987e-07 2.7573e-05 -1.58358e-07 2.21281e-05)
(2.82542e-05 -1.2577e-09 -1.06422e-06 2.82851e-05 -1.59953e-07 2.28709e-05)
(2.90323e-05 2.36628e-08 -1.34751e-06 2.89733e-05 -1.61697e-07 2.37023e-05)
(2.93341e-05 -9.01093e-08 1.36476e-06 2.93325e-05 -4.81826e-07 2.40424e-05)
(2.85342e-05 -6.64483e-09 1.06872e-06 2.85617e-05 -4.79893e-07 2.31572e-05)
(2.77924e-05 -2.87924e-08 7.67299e-07 2.78321e-05 -4.73788e-07 2.23929e-05)
(2.73905e-05 -1.4118e-08 4.64499e-07 2.73888e-05 -4.65467e-07 2.19355e-05)
(2.71301e-05 -4.64421e-09 1.5501e-07 2.71246e-05 -4.60953e-07 2.16672e-05)
(2.71304e-05 3.30432e-09 -1.55679e-07 2.71253e-05 -4.60836e-07 2.16676e-05)
(2.73917e-05 1.29028e-08 -4.65114e-07 2.73912e-05 -4.65125e-07 2.1937e-05)
(2.77948e-05 2.77086e-08 -7.6782e-07 2.78359e-05 -4.73249e-07 2.23954e-05)
(2.85384e-05 5.74464e-09 -1.0691e-06 2.85673e-05 -4.79201e-07 2.3161e-05)
(2.93394e-05 8.96698e-08 -1.36485e-06 2.93388e-05 -4.81032e-07 2.40466e-05)
(3.00506e-05 9.50418e-09 1.38221e-06 3.01335e-05 -8.00225e-07 2.47812e-05)
(2.89819e-05 -2.33476e-08 1.07502e-06 2.89001e-05 -7.91782e-07 2.36014e-05)
(2.82179e-05 -4.96881e-08 7.79309e-07 2.82163e-05 -7.80078e-07 2.28372e-05)
(2.7843e-05 -2.85989e-08 4.73028e-07 2.78e-05 -7.68437e-07 2.23993e-05)
(2.75738e-05 -9.88006e-09 1.57842e-07 2.75432e-05 -7.63103e-07 2.21281e-05)
(2.7574e-05 9.10177e-09 -1.5831e-07 2.75438e-05 -7.63016e-07 2.21284e-05)
(2.78437e-05 2.78463e-08 -4.73464e-07 2.78017e-05 -7.68173e-07 2.24001e-05)
(2.82195e-05 4.89796e-08 -7.79687e-07 2.82191e-05 -7.79671e-07 2.28388e-05)
(2.89842e-05 2.26809e-08 -1.0753e-06 2.89036e-05 -7.91258e-07 2.36035e-05)
(3.0055e-05 -9.98875e-09 -1.3823e-06 3.01383e-05 -7.99619e-07 2.47846e-05)
(3.09205e-05 -3.93161e-07 1.42952e-06 3.183e-05 -1.11337e-06 2.61323e-05)
(2.94516e-05 -1.79845e-07 1.09195e-06 2.94504e-05 -1.09252e-06 2.42228e-05)
(2.89576e-05 -2.33162e-08 7.93704e-07 2.9037e-05 -1.07924e-06 2.36389e-05)
(2.85723e-05 -6.3014e-09 4.79027e-07 2.8542e-05 -1.06957e-06 2.31638e-05)
(2.82857e-05 6.31449e-10 1.59577e-07 2.82538e-05 -1.06428e-06 2.2871e-05)
(2.82856e-05 -9.52564e-10 -1.59881e-07 2.8254e-05 -1.06421e-06 2.2871e-05)
(2.85721e-05 5.934e-09 -4.79314e-07 2.85425e-05 -1.06936e-06 2.31639e-05)
(2.89578e-05 2.28177e-08 -7.93968e-07 2.90381e-05 -1.0789e-06 2.36394e-05)
(2.94518e-05 1.79144e-07 -1.09215e-06 2.94514e-05 -1.09211e-06 2.4223e-05)
(3.09234e-05 3.92719e-07 -1.42956e-06 3.18324e-05 -1.11289e-06 2.6134e-05)
(3.34575e-05 3.33896e-07 1.54528e-06 3.3457e-05 -1.54564e-06 2.81924e-05)
(3.18586e-05 -3.93745e-07 1.11429e-06 3.09468e-05 -1.43174e-06 2.61517e-05)
(3.01449e-05 9.62852e-09 7.99694e-07 3.00607e-05 -1.38289e-06 2.47889e-05)
(2.93404e-05 -9.01228e-08 4.80817e-07 2.93403e-05 -1.36497e-06 2.40476e-05)
(2.89744e-05 -2.41652e-08 1.61431e-07 2.9033e-05 -1.34753e-06 2.3703e-05)
(2.89739e-05 2.40125e-08 -1.61594e-07 2.90326e-05 -1.34747e-06 2.37026e-05)
(2.9339e-05 8.98965e-08 -4.80977e-07 2.93395e-05 -1.36479e-06 2.40467e-05)
(3.01433e-05 -9.98484e-09 -7.9986e-07 3.00597e-05 -1.3826e-06 2.47878e-05)
(3.18562e-05 3.93112e-07 -1.11443e-06 3.09452e-05 -1.4314e-06 2.61498e-05)
(3.34609e-05 -3.33874e-07 -1.54531e-06 3.34601e-05 -1.54525e-06 2.81946e-05)
(2.5252e-05 6.89813e-08 1.37516e-06 2.52463e-05 1.37352e-06 2.18546e-05)
(2.26965e-05 7.88973e-08 9.95602e-07 2.24146e-05 1.27487e-06 1.91986e-05)
(2.19883e-05 -1.12303e-07 7.12673e-07 2.20917e-05 1.27649e-06 1.85312e-05)
(2.11785e-05 2.34357e-08 4.27565e-07 2.12975e-05 1.27257e-06 1.77415e-05)
(2.08814e-05 -1.22015e-08 1.43254e-07 2.1044e-05 1.26251e-06 1.74407e-05)
(2.08811e-05 1.17327e-08 -1.4601e-07 2.10421e-05 1.26268e-06 1.74403e-05)
(2.11807e-05 -2.39788e-08 -4.30618e-07 2.12943e-05 1.27322e-06 1.77426e-05)
(2.19991e-05 1.11909e-07 -7.16682e-07 2.20925e-05 1.2783e-06 1.85382e-05)
(2.27004e-05 -7.70312e-08 -1.00115e-06 2.24108e-05 1.27925e-06 1.92036e-05)
(2.51824e-05 -6.2286e-08 -1.37655e-06 2.51829e-05 1.37593e-06 2.18069e-05)
(2.24286e-05 8.11416e-08 1.27885e-06 2.27104e-05 9.96372e-07 1.92097e-05)
(2.09434e-05 2.75537e-08 9.91819e-07 2.09422e-05 9.90445e-07 1.75854e-05)
(2.07475e-05 -4.45095e-08 7.27307e-07 2.0822e-05 9.93838e-07 1.7223e-05)
(2.03682e-05 -1.70447e-08 4.38628e-07 2.03886e-05 9.99617e-07 1.67524e-05)
(2.01481e-05 -1.21484e-08 1.45611e-07 2.01944e-05 9.99878e-07 1.65126e-05)
(2.01497e-05 9.77191e-09 -1.48038e-07 2.01958e-05 1.00012e-06 1.65142e-05)
(2.03796e-05 1.43668e-08 -4.41342e-07 2.03992e-05 1.00083e-06 1.67617e-05)
(2.08085e-05 4.08837e-08 -7.33082e-07 2.0882e-05 9.99696e-07 1.72679e-05)
(2.09558e-05 -3.26392e-08 -9.942e-07 2.09567e-05 9.93281e-07 1.76e-05)
(2.23906e-05 -7.6769e-08 -1.27768e-06 2.26806e-05 9.98508e-07 1.9189e-05)
(2.20928e-05 -1.11072e-07 1.27819e-06 2.19909e-05 7.12803e-07 1.8533e-05)
(2.08718e-05 -4.40276e-08 9.99355e-07 2.07963e-05 7.29736e-07 1.72573e-05)
(2.02235e-05 -1.0437e-08 7.25726e-07 2.02231e-05 7.24843e-07 1.65532e-05)
(1.97583e-05 -1.70803e-09 4.37962e-07 1.97503e-05 7.19886e-07 1.6038e-05)
(1.947e-05 -1.20757e-10 1.45306e-07 1.94945e-05 7.17916e-07 1.57486e-05)
(1.94726e-05 -1.92096e-09 -1.47258e-07 1.94973e-05 7.18216e-07 1.57509e-05)
(1.97706e-05 -4.55397e-10 -4.40123e-07 1.97633e-05 7.21128e-07 1.6048e-05)
(2.02327e-05 7.78045e-09 -7.27398e-07 2.02337e-05 7.26295e-07 1.65626e-05)
(2.08334e-05 4.07971e-08 -9.96316e-07 2.07619e-05 7.28791e-07 1.72355e-05)
(2.20903e-05 1.11677e-07 -1.27834e-06 2.19974e-05 7.15174e-07 1.8537e-05)
(2.1295e-05 2.42603e-08 1.27342e-06 2.11778e-05 4.27493e-07 1.7741e-05)
(2.03937e-05 -1.62871e-08 1.00104e-06 2.03734e-05 4.38438e-07 1.67564e-05)
(1.97575e-05 -1.42058e-09 7.21165e-07 1.97651e-05 4.37671e-07 1.60429e-05)
(1.93365e-05 -7.44476e-09 4.35058e-07 1.93363e-05 4.34435e-07 1.55609e-05)
(1.90564e-05 -2.647e-09 1.4439e-07 1.90724e-05 4.32735e-07 1.52736e-05)
(1.90613e-05 1.19078e-09 -1.45882e-07 1.90777e-05 4.3313e-07 1.52773e-05)
(1.93399e-05 5.91257e-09 -4.36383e-07 1.93406e-05 4.35166e-07 1.55646e-05)
(1.97561e-05 -2.36429e-10 -7.21807e-07 1.97653e-05 4.38605e-07 1.60443e-05)
(2.03952e-05 1.45702e-08 -1.00138e-06 2.03775e-05 4.39841e-07 1.67603e-05)
(2.12975e-05 -2.45252e-08 -1.27392e-06 2.11851e-05 4.29269e-07 1.77458e-05)
(2.10428e-05 -1.19029e-08 1.26307e-06 2.08815e-05 1.43245e-07 1.74408e-05)
(2.01937e-05 -1.15143e-08 1.00069e-06 2.01481e-05 1.45403e-07 1.6513e-05)
(1.94954e-05 2.69869e-10 7.18711e-07 1.94709e-05 1.44952e-07 1.57495e-05)
(1.90764e-05 -2.47079e-09 4.33487e-07 1.90601e-05 1.44009e-07 1.52763e-05)
(1.8839e-05 -1.05391e-09 1.4442e-07 1.88389e-05 1.43966e-07 1.50203e-05)
(1.88395e-05 6.95883e-11 -1.45408e-07 1.88398e-05 1.44173e-07 1.50209e-05)
(1.9074e-05 1.44836e-09 -4.3422e-07 1.90585e-05 1.44558e-07 1.52756e-05)
(1.94973e-05 -1.3741e-09 -7.19388e-07 1.94742e-05 1.45893e-07 1.57522e-05)
(2.01973e-05 1.04089e-08 -1.00121e-06 2.01533e-05 1.46576e-07 1.65169e-05)
(2.10448e-05 1.14463e-08 -1.26348e-06 2.08861e-05 1.44502e-07 1.74438e-05)
(2.10431e-05 1.15896e-08 1.26313e-06 2.08828e-05 -1.45931e-07 1.74418e-05)
(2.01952e-05 1.01578e-08 1.00073e-06 2.01499e-05 -1.48104e-07 1.65146e-05)
(1.94964e-05 -1.54601e-09 7.18796e-07 1.9472e-05 -1.47454e-07 1.57508e-05)
(1.90741e-05 1.44626e-09 4.33531e-07 1.90577e-05 -1.46113e-07 1.52753e-05)
(1.88399e-05 2.01299e-10 1.44612e-07 1.88396e-05 -1.45723e-07 1.50211e-05)
(1.884e-05 -8.21432e-10 -1.45243e-07 1.884e-05 -1.45567e-07 1.50213e-05)
(1.90741e-05 -2.10741e-09 -4.34091e-07 1.90585e-05 -1.4565e-07 1.52757e-05)
(1.94973e-05 8.0371e-10 -7.19291e-07 1.9474e-05 -1.46749e-07 1.57521e-05)
(2.01971e-05 -1.09748e-08 -1.00114e-06 2.0153e-05 -1.47249e-07 1.65167e-05)
(2.10448e-05 -1.21466e-08 -1.26343e-06 2.0886e-05 -1.45029e-07 1.74438e-05)
(2.12956e-05 -2.42981e-08 1.27351e-06 2.11819e-05 -4.30474e-07 1.77439e-05)
(2.03936e-05 1.45653e-08 1.00087e-06 2.03745e-05 -4.41119e-07 1.67585e-05)
(1.97562e-05 -1.35841e-10 7.212e-07 1.97638e-05 -4.3993e-07 1.60438e-05)
(1.93406e-05 6.21591e-09 4.35656e-07 1.934e-05 -4.36543e-07 1.55649e-05)
(1.90629e-05 1.69128e-09 1.4503e-07 1.90784e-05 -4.34591e-07 1.52786e-05)
(1.90626e-05 -1.97959e-09 -1.45398e-07 1.90784e-05 -4.34476e-07 1.52785e-05)
(1.93403e-05 -6.54593e-09 -4.36002e-07 1.93405e-05 -4.36213e-07 1.5565e-05)
(1.9756e-05 -2.84285e-10 -7.21522e-07 1.97648e-05 -4.39427e-07 1.60442e-05)
(2.03945e-05 -1.50961e-08 -1.00118e-06 2.03767e-05 -4.40496e-07 1.67598e-05)
(2.12972e-05 2.38644e-08 -1.27377e-06 2.11848e-05 -4.29799e-07 1.77456e-05)
(2.20893e-05 1.1159e-07 1.27791e-06 2.19949e-05 -7.16188e-07 1.85358e-05)
(2.08323e-05 4.09205e-08 9.95774e-07 2.07593e-05 -7.29852e-07 1.72342e-05)
(2.02332e-05 8.10865e-09 7.26742e-07 2.02323e-05 -7.27422e-07 1.65625e-05)
(1.9772e-05 1.43887e-10 4.39326e-07 1.97629e-05 -7.22322e-07 1.60489e-05)
(1.94747e-05 -1.01316e-09 1.46286e-07 1.9498e-05 -7.19524e-07 1.57526e-05)
(1.94744e-05 1.07766e-09 -1.46465e-07 1.9498e-05 -7.19441e-07 1.57524e-05)
(1.97712e-05 -1.09381e-10 -4.39504e-07 1.9763e-05 -7.2209e-07 1.60485e-05)
(2.02325e-05 -8.21516e-09 -7.2694e-07 2.02329e-05 -7.27051e-07 1.65624e-05)
(2.08323e-05 -4.11323e-08 -9.95998e-07 2.07606e-05 -7.29394e-07 1.72347e-05)
(2.20898e-05 -1.11854e-07 -1.27813e-06 2.1997e-05 -7.15669e-07 1.85368e-05)
(2.23923e-05 -7.73044e-08 1.27722e-06 2.26806e-05 -9.99332e-07 1.91898e-05)
(2.09564e-05 -3.25666e-08 9.93632e-07 2.09557e-05 -9.94146e-07 1.76001e-05)
(2.08106e-05 4.13285e-08 7.32369e-07 2.08823e-05 -1.00061e-06 1.72691e-05)
(2.03824e-05 1.51146e-08 4.4046e-07 2.04001e-05 -1.00182e-06 1.67636e-05)
(2.01529e-05 1.09227e-08 1.46934e-07 2.01972e-05 -1.00121e-06 1.65167e-05)
(2.01525e-05 -1.05226e-08 -1.4698e-07 2.01971e-05 -1.00116e-06 1.65164e-05)
(2.0381e-05 -1.47741e-08 -4.40512e-07 2.03996e-05 -1.00165e-06 1.67628e-05)
(2.08092e-05 -4.11646e-08 -7.32454e-07 2.08821e-05 -1.00033e-06 1.72683e-05)