/*--------------------------------*- C++ -*----------------------------------*\
| =========                 |                                                 |
| \\      /  F ield         | OpenFOAM: The Open Source CFD Toolbox           |
|  \\    /   O peration     | Version:  2406                                  |
|   \\  /    A nd           | Website:  www.openfoam.com                      |
|    \\/     M anipulation  |                                                 |
\*---------------------------------------------------------------------------*/
FoamFile
{
    version     2.0;
    format      ascii;
    arch        "LSB;label=32;scalar=64";
    class       volScalarField;
    location    "400";
    object      turbulenceProperties:nuEff;
}
// * * * * * * * * * * * * * * * * * * * * * * * * * * * * * * * * * * * * * //

dimensions      [0 2 -1 0 0 0 0];

internalField   nonuniform List<scalar> 
25000
(
1.58872e-05
1.59285e-05
1.59543e-05
1.59672e-05
1.59728e-05
1.59728e-05
1.59672e-05
1.59545e-05
1.59306e-05
1.58872e-05
1.59306e-05
1.59675e-05
1.59883e-05
1.59999e-05
1.60055e-05
1.60055e-05
1.6e-05
1.59934e-05
1.59675e-05
1.59285e-05
1.59545e-05
1.59934e-05
1.60109e-05
1.60185e-05
1.60238e-05
1.60238e-05
1.60192e-05
1.60109e-05
1.59883e-05
1.59544e-05
1.59672e-05
1.6e-05
1.60192e-05
1.603e-05
1.60345e-05
1.60349e-05
1.603e-05
1.60185e-05
1.59999e-05
1.59672e-05
1.59728e-05
1.60055e-05
1.60238e-05
1.60349e-05
1.60416e-05
1.60416e-05
1.60345e-05
1.60238e-05
1.60055e-05
1.59728e-05
1.59728e-05
1.60055e-05
1.60238e-05
1.60345e-05
1.60416e-05
1.60416e-05
1.60345e-05
1.60238e-05
1.60055e-05
1.59728e-05
1.59672e-05
1.59999e-05
1.60185e-05
1.603e-05
1.60349e-05
1.60349e-05
1.603e-05
1.60185e-05
1.59999e-05
1.59672e-05
1.59544e-05
1.59883e-05
1.60109e-05
1.60192e-05
1.60238e-05
1.60238e-05
1.60192e-05
1.60109e-05
1.59883e-05
1.59544e-05
1.59285e-05
1.59675e-05
1.59934e-05
1.6e-05
1.60055e-05
1.60055e-05
1.6e-05
1.59934e-05
1.59675e-05
1.59285e-05
1.58872e-05
1.59306e-05
1.59545e-05
1.59672e-05
1.59728e-05
1.59728e-05
1.59672e-05
1.59545e-05
1.59306e-05
1.58872e-05
1.55255e-05
1.56522e-05
1.57286e-05
1.57675e-05
1.57845e-05
1.57845e-05
1.57675e-05
1.57294e-05
1.56574e-05
1.55255e-05
1.56573e-05
1.57689e-05
1.5831e-05
1.58653e-05
1.58819e-05
1.58819e-05
1.58661e-05
1.58442e-05
1.57689e-05
1.56523e-05
1.57294e-05
1.58442e-05
1.58975e-05
1.59213e-05
1.59366e-05
1.59367e-05
1.59231e-05
1.58975e-05
1.5831e-05
1.57286e-05
1.57675e-05
1.58661e-05
1.59231e-05
1.5955e-05
1.59686e-05
1.59698e-05
1.5955e-05
1.59213e-05
1.58653e-05
1.57675e-05
1.57845e-05
1.58819e-05
1.59367e-05
1.59698e-05
1.59893e-05
1.59893e-05
1.59686e-05
1.59366e-05
1.58819e-05
1.57845e-05
1.57845e-05
1.58819e-05
1.59366e-05
1.59686e-05
1.59893e-05
1.59893e-05
1.59686e-05
1.59366e-05
1.58819e-05
1.57845e-05
1.57675e-05
1.58653e-05
1.59213e-05
1.5955e-05
1.59698e-05
1.59698e-05
1.5955e-05
1.59213e-05
1.58653e-05
1.57675e-05
1.57286e-05
1.5831e-05
1.58975e-05
1.59231e-05
1.59367e-05
1.59367e-05
1.59231e-05
1.58975e-05
1.5831e-05
1.57286e-05
1.56523e-05
1.57689e-05
1.58442e-05
1.58661e-05
1.58819e-05
1.58819e-05
1.58661e-05
1.58443e-05
1.57689e-05
1.56523e-05
1.55255e-05
1.56574e-05
1.57294e-05
1.57675e-05
1.57845e-05
1.57845e-05
1.57675e-05
1.57294e-05
1.56574e-05
1.55255e-05
1.5174e-05
1.53831e-05
1.55073e-05
1.55718e-05
1.56e-05
1.56e-05
1.55719e-05
1.5509e-05
1.53904e-05
1.5174e-05
1.53903e-05
1.55746e-05
1.56768e-05
1.57331e-05
1.57601e-05
1.57602e-05
1.57347e-05
1.56961e-05
1.55746e-05
1.53831e-05
1.5509e-05
1.56961e-05
1.57851e-05
1.58255e-05
1.58505e-05
1.58507e-05
1.58284e-05
1.57851e-05
1.56768e-05
1.55074e-05
1.55719e-05
1.57347e-05
1.58284e-05
1.58807e-05
1.59036e-05
1.59052e-05
1.58807e-05
1.58255e-05
1.57331e-05
1.55718e-05
1.56e-05
1.57602e-05
1.58507e-05
1.59052e-05
1.5937e-05
1.5937e-05
1.59035e-05
1.58505e-05
1.57602e-05
1.56e-05
1.56e-05
1.57602e-05
1.58505e-05
1.59036e-05
1.5937e-05
1.5937e-05
1.59035e-05
1.58505e-05
1.57602e-05
1.56e-05
1.55718e-05
1.57331e-05
1.58255e-05
1.58807e-05
1.59053e-05
1.59053e-05
1.58807e-05
1.58255e-05
1.57331e-05
1.55718e-05
1.55074e-05
1.56768e-05
1.57851e-05
1.58284e-05
1.58507e-05
1.58507e-05
1.58284e-05
1.57851e-05
1.56768e-05
1.55074e-05
1.53831e-05
1.55746e-05
1.56961e-05
1.57347e-05
1.57602e-05
1.57602e-05
1.57347e-05
1.56961e-05
1.55746e-05
1.53831e-05
1.5174e-05
1.53904e-05
1.5509e-05
1.55719e-05
1.56e-05
1.56e-05
1.55719e-05
1.5509e-05
1.53904e-05
1.5174e-05
1.48394e-05
1.51232e-05
1.52921e-05
1.53811e-05
1.54201e-05
1.54201e-05
1.53813e-05
1.52947e-05
1.5132e-05
1.48394e-05
1.5132e-05
1.53853e-05
1.55259e-05
1.56033e-05
1.56405e-05
1.56406e-05
1.5606e-05
1.55499e-05
1.53853e-05
1.51232e-05
1.52947e-05
1.55499e-05
1.56739e-05
1.57313e-05
1.57654e-05
1.57658e-05
1.5735e-05
1.56739e-05
1.55259e-05
1.52922e-05
1.53813e-05
1.5606e-05
1.5735e-05
1.58071e-05
1.58391e-05
1.58412e-05
1.58071e-05
1.57313e-05
1.56033e-05
1.53811e-05
1.54201e-05
1.56406e-05
1.57658e-05
1.58412e-05
1.58847e-05
1.58846e-05
1.5839e-05
1.57654e-05
1.56405e-05
1.54201e-05
1.54201e-05
1.56405e-05
1.57654e-05
1.58391e-05
1.58847e-05
1.58847e-05
1.5839e-05
1.57654e-05
1.56405e-05
1.54201e-05
1.53811e-05
1.56033e-05
1.57313e-05
1.58071e-05
1.58414e-05
1.58414e-05
1.58071e-05
1.57313e-05
1.56033e-05
1.53811e-05
1.52921e-05
1.55259e-05
1.56739e-05
1.5735e-05
1.57659e-05
1.57659e-05
1.5735e-05
1.56739e-05
1.55259e-05
1.52922e-05
1.51232e-05
1.53853e-05
1.55499e-05
1.5606e-05
1.56406e-05
1.56406e-05
1.5606e-05
1.555e-05
1.53853e-05
1.51233e-05
1.48394e-05
1.5132e-05
1.52948e-05
1.53813e-05
1.54201e-05
1.54201e-05
1.53813e-05
1.52948e-05
1.5132e-05
1.48394e-05
1.45255e-05
1.48738e-05
1.50838e-05
1.51959e-05
1.52452e-05
1.52452e-05
1.51962e-05
1.50874e-05
1.48837e-05
1.45256e-05
1.48836e-05
1.52011e-05
1.53784e-05
1.54761e-05
1.55228e-05
1.55231e-05
1.54797e-05
1.54061e-05
1.52012e-05
1.48739e-05
1.50874e-05
1.5406e-05
1.5564e-05
1.56385e-05
1.56814e-05
1.5682e-05
1.56429e-05
1.55641e-05
1.53784e-05
1.50839e-05
1.51962e-05
1.54797e-05
1.56429e-05
1.57342e-05
1.57753e-05
1.57777e-05
1.57342e-05
1.56385e-05
1.54761e-05
1.5196e-05
1.52452e-05
1.55231e-05
1.5682e-05
1.57777e-05
1.58322e-05
1.58322e-05
1.5775e-05
1.56814e-05
1.55229e-05
1.52453e-05
1.52452e-05
1.55229e-05
1.56814e-05
1.57753e-05
1.58323e-05
1.58323e-05
1.5775e-05
1.56814e-05
1.55229e-05
1.52453e-05
1.5196e-05
1.54761e-05
1.56385e-05
1.57343e-05
1.57779e-05
1.57779e-05
1.57342e-05
1.56385e-05
1.54761e-05
1.5196e-05
1.50839e-05
1.53784e-05
1.55641e-05
1.56429e-05
1.56821e-05
1.56821e-05
1.56429e-05
1.55641e-05
1.53784e-05
1.50839e-05
1.48739e-05
1.52012e-05
1.54061e-05
1.54798e-05
1.55231e-05
1.55231e-05
1.54798e-05
1.54061e-05
1.52012e-05
1.48739e-05
1.45256e-05
1.48837e-05
1.50874e-05
1.51963e-05
1.52453e-05
1.52453e-05
1.51963e-05
1.50874e-05
1.48837e-05
1.45256e-05
1.42318e-05
1.46347e-05
1.48823e-05
1.50162e-05
1.50752e-05
1.50753e-05
1.50167e-05
1.48869e-05
1.46454e-05
1.42319e-05
1.46454e-05
1.50219e-05
1.5234e-05
1.53512e-05
1.54072e-05
1.54076e-05
1.53558e-05
1.52645e-05
1.5022e-05
1.46348e-05
1.48869e-05
1.52645e-05
1.54555e-05
1.55469e-05
1.55983e-05
1.55991e-05
1.55519e-05
1.54555e-05
1.52341e-05
1.48824e-05
1.50167e-05
1.53558e-05
1.55519e-05
1.56619e-05
1.57118e-05
1.57145e-05
1.56619e-05
1.55469e-05
1.53513e-05
1.50163e-05
1.50753e-05
1.54076e-05
1.55991e-05
1.57145e-05
1.57797e-05
1.57797e-05
1.57115e-05
1.55982e-05
1.54072e-05
1.50753e-05
1.50753e-05
1.54072e-05
1.55983e-05
1.57118e-05
1.57798e-05
1.57797e-05
1.57115e-05
1.55982e-05
1.54072e-05
1.50753e-05
1.50162e-05
1.53513e-05
1.55469e-05
1.56619e-05
1.57148e-05
1.57148e-05
1.56619e-05
1.55469e-05
1.53513e-05
1.50163e-05
1.48824e-05
1.52341e-05
1.54555e-05
1.55519e-05
1.55992e-05
1.55992e-05
1.55519e-05
1.54555e-05
1.52341e-05
1.48824e-05
1.46348e-05
1.5022e-05
1.52645e-05
1.53559e-05
1.54076e-05
1.54076e-05
1.53559e-05
1.52645e-05
1.5022e-05
1.46348e-05
1.42319e-05
1.46455e-05
1.48869e-05
1.50167e-05
1.50753e-05
1.50753e-05
1.50167e-05
1.48869e-05
1.46455e-05
1.42319e-05
1.39558e-05
1.4405e-05
1.46868e-05
1.4841e-05
1.49094e-05
1.49094e-05
1.48417e-05
1.46921e-05
1.44162e-05
1.39559e-05
1.44161e-05
1.4847e-05
1.50923e-05
1.52284e-05
1.52932e-05
1.52937e-05
1.52339e-05
1.51249e-05
1.4847e-05
1.44051e-05
1.46921e-05
1.51249e-05
1.53479e-05
1.54562e-05
1.5516e-05
1.55169e-05
1.54618e-05
1.53479e-05
1.50924e-05
1.46868e-05
1.48418e-05
1.52339e-05
1.54618e-05
1.559e-05
1.56486e-05
1.56515e-05
1.559e-05
1.54563e-05
1.52284e-05
1.48411e-05
1.49095e-05
1.52938e-05
1.55169e-05
1.56515e-05
1.5727e-05
1.5727e-05
1.56483e-05
1.55158e-05
1.52932e-05
1.49095e-05
1.49094e-05
1.52932e-05
1.5516e-05
1.56486e-05
1.57271e-05
1.57271e-05
1.56483e-05
1.55159e-05
1.52932e-05
1.49095e-05
1.48411e-05
1.52284e-05
1.54563e-05
1.55901e-05
1.56519e-05
1.56519e-05
1.559e-05
1.54563e-05
1.52284e-05
1.48411e-05
1.46868e-05
1.50924e-05
1.53479e-05
1.54618e-05
1.55171e-05
1.55171e-05
1.54618e-05
1.53479e-05
1.50924e-05
1.46869e-05
1.44051e-05
1.4847e-05
1.51249e-05
1.52339e-05
1.52938e-05
1.52938e-05
1.52339e-05
1.51249e-05
1.48471e-05
1.44051e-05
1.39559e-05
1.44162e-05
1.46922e-05
1.48418e-05
1.49095e-05
1.49095e-05
1.48418e-05
1.46922e-05
1.44162e-05
1.39559e-05
1.36966e-05
1.41841e-05
1.44965e-05
1.46698e-05
1.47471e-05
1.47472e-05
1.46708e-05
1.45026e-05
1.41956e-05
1.36967e-05
1.41956e-05
1.46759e-05
1.49529e-05
1.51072e-05
1.51806e-05
1.51813e-05
1.51136e-05
1.4987e-05
1.46759e-05
1.41842e-05
1.45026e-05
1.4987e-05
1.52412e-05
1.53664e-05
1.54342e-05
1.54354e-05
1.53725e-05
1.52412e-05
1.4953e-05
1.44966e-05
1.46708e-05
1.51136e-05
1.53725e-05
1.55185e-05
1.55857e-05
1.55888e-05
1.55185e-05
1.53664e-05
1.51073e-05
1.46699e-05
1.47472e-05
1.51813e-05
1.54354e-05
1.55888e-05
1.56742e-05
1.56742e-05
1.55853e-05
1.54341e-05
1.51806e-05
1.47471e-05
1.47471e-05
1.51807e-05
1.54342e-05
1.55857e-05
1.56743e-05
1.56742e-05
1.55853e-05
1.54341e-05
1.51806e-05
1.47471e-05
1.46699e-05
1.51073e-05
1.53665e-05
1.55186e-05
1.55893e-05
1.55893e-05
1.55185e-05
1.53665e-05
1.51073e-05
1.46699e-05
1.44966e-05
1.4953e-05
1.52412e-05
1.53725e-05
1.54356e-05
1.54356e-05
1.53725e-05
1.52412e-05
1.4953e-05
1.44966e-05
1.41842e-05
1.4676e-05
1.4987e-05
1.51136e-05
1.51814e-05
1.51814e-05
1.51136e-05
1.4987e-05
1.4676e-05
1.41842e-05
1.36968e-05
1.41957e-05
1.45027e-05
1.46708e-05
1.47472e-05
1.47472e-05
1.46708e-05
1.45027e-05
1.41957e-05
1.36968e-05
1.34554e-05
1.39726e-05
1.43118e-05
1.45026e-05
1.45882e-05
1.45884e-05
1.45038e-05
1.43186e-05
1.39843e-05
1.34555e-05
1.39842e-05
1.45087e-05
1.48158e-05
1.49877e-05
1.50694e-05
1.50703e-05
1.49948e-05
1.48509e-05
1.45088e-05
1.39727e-05
1.43185e-05
1.48508e-05
1.51354e-05
1.52774e-05
1.53531e-05
1.53544e-05
1.52838e-05
1.51354e-05
1.48158e-05
1.43118e-05
1.45038e-05
1.49948e-05
1.52838e-05
1.54474e-05
1.55231e-05
1.55262e-05
1.54474e-05
1.52774e-05
1.49877e-05
1.45027e-05
1.45884e-05
1.50703e-05
1.53544e-05
1.55263e-05
1.56213e-05
1.56212e-05
1.55225e-05
1.53529e-05
1.50694e-05
1.45883e-05
1.45883e-05
1.50694e-05
1.53531e-05
1.55231e-05
1.56214e-05
1.56213e-05
1.55226e-05
1.53529e-05
1.50694e-05
1.45883e-05
1.45027e-05
1.49877e-05
1.52774e-05
1.54475e-05
1.55268e-05
1.55268e-05
1.54474e-05
1.52774e-05
1.49878e-05
1.45027e-05
1.43118e-05
1.48158e-05
1.51354e-05
1.52839e-05
1.53547e-05
1.53547e-05
1.52839e-05
1.51354e-05
1.48159e-05
1.43119e-05
1.39727e-05
1.45088e-05
1.48509e-05
1.49949e-05
1.50704e-05
1.50704e-05
1.49949e-05
1.48509e-05
1.45088e-05
1.39727e-05
1.34555e-05
1.39843e-05
1.43186e-05
1.45039e-05
1.45885e-05
1.45885e-05
1.45039e-05
1.43186e-05
1.39843e-05
1.34555e-05
1.32346e-05
1.37715e-05
1.41331e-05
1.43398e-05
1.44332e-05
1.44334e-05
1.43413e-05
1.41404e-05
1.37831e-05
1.32346e-05
1.37831e-05
1.43458e-05
1.4681e-05
1.48699e-05
1.49596e-05
1.49606e-05
1.48777e-05
1.47167e-05
1.43459e-05
1.37715e-05
1.41404e-05
1.47167e-05
1.50306e-05
1.51891e-05
1.52726e-05
1.52741e-05
1.51959e-05
1.50306e-05
1.46811e-05
1.41332e-05
1.43413e-05
1.48777e-05
1.51959e-05
1.53767e-05
1.54607e-05
1.54639e-05
1.53766e-05
1.51891e-05
1.48699e-05
1.43399e-05
1.44334e-05
1.49606e-05
1.52741e-05
1.54639e-05
1.55683e-05
1.55682e-05
1.54601e-05
1.52724e-05
1.49595e-05
1.44332e-05
1.44332e-05
1.49596e-05
1.52726e-05
1.54607e-05
1.55684e-05
1.55683e-05
1.54601e-05
1.52724e-05
1.49595e-05
1.44332e-05
1.43399e-05
1.48699e-05
1.51892e-05
1.53767e-05
1.54646e-05
1.54646e-05
1.53767e-05
1.51891e-05
1.48699e-05
1.43399e-05
1.41332e-05
1.46811e-05
1.50306e-05
1.5196e-05
1.52744e-05
1.52744e-05
1.5196e-05
1.50306e-05
1.46811e-05
1.41332e-05
1.37715e-05
1.43459e-05
1.47167e-05
1.48777e-05
1.49608e-05
1.49608e-05
1.48777e-05
1.47168e-05
1.43459e-05
1.37715e-05
1.32346e-05
1.37831e-05
1.41405e-05
1.43413e-05
1.44334e-05
1.44334e-05
1.43413e-05
1.41405e-05
1.37831e-05
1.32346e-05
1.30371e-05
1.35817e-05
1.39612e-05
1.41819e-05
1.42823e-05
1.42825e-05
1.41836e-05
1.3969e-05
1.35932e-05
1.30371e-05
1.35932e-05
1.41876e-05
1.45488e-05
1.47538e-05
1.48513e-05
1.48524e-05
1.47623e-05
1.45849e-05
1.41876e-05
1.35817e-05
1.39689e-05
1.45848e-05
1.49268e-05
1.51017e-05
1.51928e-05
1.51944e-05
1.51088e-05
1.49268e-05
1.45488e-05
1.39612e-05
1.41835e-05
1.47622e-05
1.51088e-05
1.53063e-05
1.53985e-05
1.54019e-05
1.53063e-05
1.51017e-05
1.47538e-05
1.41819e-05
1.42825e-05
1.48524e-05
1.51944e-05
1.54019e-05
1.55153e-05
1.55152e-05
1.53978e-05
1.51925e-05
1.48511e-05
1.42823e-05
1.42823e-05
1.48513e-05
1.51928e-05
1.53985e-05
1.55154e-05
1.55153e-05
1.53979e-05
1.51925e-05
1.48511e-05
1.42823e-05
1.41819e-05
1.47539e-05
1.51017e-05
1.53065e-05
1.54026e-05
1.54026e-05
1.53064e-05
1.51017e-05
1.47539e-05
1.41819e-05
1.39612e-05
1.45488e-05
1.49268e-05
1.51089e-05
1.51948e-05
1.51948e-05
1.51089e-05
1.49268e-05
1.45489e-05
1.39612e-05
1.35817e-05
1.41876e-05
1.45849e-05
1.47623e-05
1.48526e-05
1.48526e-05
1.47623e-05
1.45849e-05
1.41876e-05
1.35817e-05
1.30371e-05
1.35932e-05
1.3969e-05
1.41836e-05
1.42826e-05
1.42826e-05
1.41836e-05
1.3969e-05
1.35933e-05
1.30371e-05
1.28688e-05
1.3405e-05
1.37968e-05
1.40292e-05
1.41359e-05
1.41362e-05
1.40312e-05
1.38049e-05
1.34164e-05
1.28688e-05
1.34164e-05
1.40345e-05
1.44194e-05
1.46397e-05
1.47445e-05
1.47458e-05
1.46486e-05
1.44555e-05
1.40346e-05
1.34051e-05
1.38049e-05
1.44555e-05
1.48243e-05
1.50151e-05
1.51137e-05
1.51154e-05
1.50225e-05
1.48243e-05
1.44194e-05
1.37968e-05
1.40312e-05
1.46486e-05
1.50225e-05
1.52365e-05
1.53367e-05
1.53401e-05
1.52364e-05
1.50151e-05
1.46397e-05
1.40293e-05
1.41362e-05
1.47458e-05
1.51154e-05
1.53401e-05
1.54623e-05
1.54622e-05
1.53359e-05
1.51133e-05
1.47443e-05
1.41359e-05
1.41359e-05
1.47445e-05
1.51137e-05
1.53367e-05
1.54624e-05
1.54623e-05
1.53359e-05
1.51133e-05
1.47443e-05
1.41359e-05
1.40293e-05
1.46397e-05
1.50151e-05
1.52366e-05
1.53408e-05
1.53408e-05
1.52365e-05
1.50151e-05
1.46397e-05
1.40293e-05
1.37968e-05
1.44194e-05
1.48243e-05
1.50226e-05
1.51158e-05
1.51158e-05
1.50226e-05
1.48243e-05
1.44194e-05
1.37968e-05
1.34051e-05
1.40346e-05
1.44555e-05
1.46487e-05
1.4746e-05
1.4746e-05
1.46487e-05
1.44555e-05
1.40346e-05
1.34051e-05
1.28688e-05
1.34164e-05
1.38049e-05
1.40312e-05
1.41363e-05
1.41363e-05
1.40312e-05
1.38049e-05
1.34164e-05
1.28688e-05
1.27372e-05
1.32436e-05
1.36408e-05
1.38825e-05
1.39946e-05
1.39949e-05
1.38847e-05
1.36492e-05
1.32548e-05
1.27372e-05
1.32547e-05
1.38872e-05
1.42928e-05
1.45275e-05
1.46393e-05
1.46408e-05
1.45369e-05
1.43289e-05
1.38872e-05
1.32436e-05
1.36491e-05
1.43289e-05
1.4723e-05
1.49294e-05
1.50352e-05
1.50371e-05
1.4937e-05
1.4723e-05
1.42929e-05
1.36408e-05
1.38847e-05
1.45369e-05
1.4937e-05
1.51671e-05
1.52751e-05
1.52785e-05
1.5167e-05
1.49294e-05
1.45275e-05
1.38825e-05
1.39949e-05
1.46408e-05
1.50371e-05
1.52786e-05
1.54093e-05
1.54092e-05
1.52743e-05
1.50348e-05
1.46391e-05
1.39946e-05
1.39946e-05
1.46393e-05
1.50352e-05
1.52751e-05
1.54094e-05
1.54093e-05
1.52743e-05
1.50348e-05
1.46391e-05
1.39946e-05
1.38825e-05
1.45275e-05
1.49294e-05
1.51672e-05
1.52794e-05
1.52794e-05
1.51671e-05
1.49294e-05
1.45275e-05
1.38825e-05
1.36408e-05
1.42928e-05
1.4723e-05
1.49371e-05
1.50376e-05
1.50376e-05
1.49371e-05
1.4723e-05
1.42929e-05
1.36408e-05
1.32436e-05
1.38872e-05
1.43289e-05
1.4537e-05
1.46411e-05
1.46411e-05
1.4537e-05
1.43289e-05
1.38872e-05
1.32436e-05
1.27372e-05
1.32548e-05
1.36492e-05
1.38847e-05
1.3995e-05
1.3995e-05
1.38847e-05
1.36492e-05
1.32548e-05
1.27372e-05
1.26584e-05
1.31011e-05
1.34945e-05
1.37424e-05
1.38588e-05
1.38592e-05
1.37448e-05
1.35031e-05
1.31122e-05
1.26583e-05
1.31121e-05
1.37464e-05
1.41695e-05
1.44175e-05
1.45359e-05
1.45375e-05
1.44272e-05
1.42054e-05
1.37464e-05
1.31011e-05
1.3503e-05
1.42054e-05
1.46231e-05
1.48446e-05
1.49575e-05
1.49596e-05
1.48525e-05
1.46231e-05
1.41695e-05
1.34945e-05
1.37447e-05
1.44272e-05
1.48525e-05
1.50982e-05
1.52138e-05
1.52173e-05
1.5098e-05
1.48446e-05
1.44175e-05
1.37424e-05
1.38592e-05
1.45375e-05
1.49595e-05
1.52173e-05
1.53563e-05
1.53562e-05
1.5213e-05
1.4957e-05
1.45356e-05
1.38587e-05
1.38588e-05
1.45359e-05
1.49575e-05
1.52139e-05
1.53565e-05
1.53563e-05
1.5213e-05
1.4957e-05
1.45356e-05
1.38587e-05
1.37424e-05
1.44175e-05
1.48447e-05
1.50983e-05
1.52182e-05
1.52182e-05
1.50982e-05
1.48446e-05
1.44175e-05
1.37424e-05
1.34945e-05
1.41695e-05
1.46232e-05
1.48526e-05
1.49601e-05
1.49601e-05
1.48525e-05
1.46232e-05
1.41695e-05
1.34945e-05
1.31011e-05
1.37464e-05
1.42054e-05
1.44273e-05
1.45379e-05
1.45379e-05
1.44273e-05
1.42054e-05
1.37464e-05
1.31011e-05
1.26583e-05
1.31121e-05
1.35031e-05
1.37448e-05
1.38593e-05
1.38593e-05
1.37448e-05
1.35031e-05
1.31122e-05
1.26583e-05
1.26546e-05
1.29832e-05
1.33596e-05
1.36097e-05
1.37291e-05
1.37296e-05
1.36123e-05
1.33684e-05
1.29941e-05
1.26545e-05
1.2994e-05
1.3613e-05
1.40496e-05
1.43097e-05
1.44343e-05
1.44361e-05
1.43197e-05
1.40852e-05
1.36131e-05
1.29832e-05
1.33683e-05
1.40852e-05
1.45247e-05
1.47608e-05
1.48806e-05
1.48827e-05
1.47688e-05
1.45247e-05
1.40497e-05
1.33596e-05
1.36123e-05
1.43197e-05
1.47688e-05
1.50297e-05
1.51529e-05
1.51564e-05
1.50296e-05
1.47607e-05
1.43096e-05
1.36097e-05
1.37296e-05
1.4436e-05
1.48827e-05
1.51564e-05
1.53035e-05
1.53033e-05
1.5152e-05
1.488e-05
1.4434e-05
1.37291e-05
1.37291e-05
1.44343e-05
1.48806e-05
1.51529e-05
1.53036e-05
1.53035e-05
1.5152e-05
1.488e-05
1.4434e-05
1.37291e-05
1.36097e-05
1.43097e-05
1.47608e-05
1.50299e-05
1.51574e-05
1.51573e-05
1.50297e-05
1.47607e-05
1.43096e-05
1.36097e-05
1.33596e-05
1.40496e-05
1.45248e-05
1.47689e-05
1.48833e-05
1.48833e-05
1.47689e-05
1.45247e-05
1.40497e-05
1.33596e-05
1.29832e-05
1.36131e-05
1.40852e-05
1.43198e-05
1.44364e-05
1.44364e-05
1.43198e-05
1.40852e-05
1.36131e-05
1.29832e-05
1.26545e-05
1.29941e-05
1.33684e-05
1.36123e-05
1.37297e-05
1.37297e-05
1.36123e-05
1.33684e-05
1.29941e-05
1.26545e-05
1.27728e-05
1.28996e-05
1.32395e-05
1.3486e-05
1.36066e-05
1.36071e-05
1.34887e-05
1.32484e-05
1.29104e-05
1.27726e-05
1.29103e-05
1.34889e-05
1.39336e-05
1.42042e-05
1.43346e-05
1.43365e-05
1.42145e-05
1.39688e-05
1.3489e-05
1.28996e-05
1.32483e-05
1.39688e-05
1.44279e-05
1.46779e-05
1.48044e-05
1.48066e-05
1.4686e-05
1.44279e-05
1.39336e-05
1.32395e-05
1.34887e-05
1.42145e-05
1.4686e-05
1.49618e-05
1.50923e-05
1.50958e-05
1.49616e-05
1.46778e-05
1.42041e-05
1.3486e-05
1.36071e-05
1.43364e-05
1.48066e-05
1.50958e-05
1.52507e-05
1.52505e-05
1.50913e-05
1.48038e-05
1.43342e-05
1.36065e-05
1.36066e-05
1.43346e-05
1.48044e-05
1.50923e-05
1.52508e-05
1.52507e-05
1.50914e-05
1.48038e-05
1.43342e-05
1.36065e-05
1.3486e-05
1.42042e-05
1.46779e-05
1.4962e-05
1.50968e-05
1.50968e-05
1.49618e-05
1.46778e-05
1.42041e-05
1.3486e-05
1.32395e-05
1.39336e-05
1.44279e-05
1.46862e-05
1.48073e-05
1.48073e-05
1.46862e-05
1.44279e-05
1.39336e-05
1.32395e-05
1.28996e-05
1.34889e-05
1.39688e-05
1.42146e-05
1.43369e-05
1.43369e-05
1.42146e-05
1.39688e-05
1.3489e-05
1.28996e-05
1.27726e-05
1.29103e-05
1.32483e-05
1.34887e-05
1.36073e-05
1.36073e-05
1.34887e-05
1.32483e-05
1.29103e-05
1.27726e-05
1.30791e-05
1.28659e-05
1.31388e-05
1.33734e-05
1.34928e-05
1.34933e-05
1.33762e-05
1.31478e-05
1.28766e-05
1.30787e-05
1.28765e-05
1.33765e-05
1.3822e-05
1.41013e-05
1.42369e-05
1.42388e-05
1.41118e-05
1.38568e-05
1.33766e-05
1.28658e-05
1.31477e-05
1.38567e-05
1.43327e-05
1.4596e-05
1.4729e-05
1.47313e-05
1.46043e-05
1.43327e-05
1.38221e-05
1.31388e-05
1.33762e-05
1.41118e-05
1.46043e-05
1.48944e-05
1.5032e-05
1.50355e-05
1.48942e-05
1.45959e-05
1.41012e-05
1.33733e-05
1.34933e-05
1.42388e-05
1.47313e-05
1.50356e-05
1.5198e-05
1.51978e-05
1.5031e-05
1.47283e-05
1.42364e-05
1.34926e-05
1.34927e-05
1.42369e-05
1.4729e-05
1.50321e-05
1.51982e-05
1.5198e-05
1.5031e-05
1.47283e-05
1.42364e-05
1.34926e-05
1.33733e-05
1.41013e-05
1.45961e-05
1.48946e-05
1.50366e-05
1.50365e-05
1.48944e-05
1.45959e-05
1.41012e-05
1.33733e-05
1.31388e-05
1.38221e-05
1.43327e-05
1.46044e-05
1.4732e-05
1.4732e-05
1.46044e-05
1.43327e-05
1.38221e-05
1.31388e-05
1.28658e-05
1.33766e-05
1.38568e-05
1.41119e-05
1.42393e-05
1.42393e-05
1.41119e-05
1.38568e-05
1.33766e-05
1.28658e-05
1.30787e-05
1.28765e-05
1.31478e-05
1.33763e-05
1.34935e-05
1.34935e-05
1.33763e-05
1.31477e-05
1.28766e-05
1.30787e-05
1.37088e-05
1.29049e-05
1.3065e-05
1.32753e-05
1.33898e-05
1.33904e-05
1.32783e-05
1.30741e-05
1.29156e-05
1.37079e-05
1.29156e-05
1.32802e-05
1.37158e-05
1.40012e-05
1.41413e-05
1.41434e-05
1.40119e-05
1.375e-05
1.32802e-05
1.29046e-05
1.30741e-05
1.375e-05
1.42394e-05
1.45152e-05
1.46544e-05
1.46567e-05
1.45235e-05
1.42394e-05
1.37158e-05
1.3065e-05
1.32783e-05
1.40119e-05
1.45235e-05
1.48275e-05
1.49721e-05
1.49756e-05
1.48273e-05
1.45151e-05
1.40011e-05
1.32753e-05
1.33904e-05
1.41434e-05
1.46567e-05
1.49756e-05
1.51454e-05
1.51452e-05
1.4971e-05
1.46536e-05
1.41408e-05
1.33896e-05
1.33898e-05
1.41413e-05
1.46544e-05
1.49721e-05
1.51456e-05
1.51454e-05
1.49711e-05
1.46536e-05
1.41408e-05
1.33896e-05
1.32753e-05
1.40012e-05
1.45152e-05
1.48277e-05
1.49767e-05
1.49766e-05
1.48275e-05
1.45151e-05
1.40011e-05
1.32753e-05
1.3065e-05
1.37158e-05
1.42394e-05
1.45237e-05
1.46575e-05
1.46575e-05
1.45236e-05
1.42394e-05
1.37158e-05
1.3065e-05
1.29047e-05
1.32802e-05
1.375e-05
1.4012e-05
1.41439e-05
1.41439e-05
1.4012e-05
1.375e-05
1.32802e-05
1.29047e-05
1.37079e-05
1.29156e-05
1.30741e-05
1.32783e-05
1.33906e-05
1.33906e-05
1.32783e-05
1.30741e-05
1.29156e-05
1.37079e-05
1.48423e-05
1.30554e-05
1.30298e-05
1.3197e-05
1.33012e-05
1.33019e-05
1.32001e-05
1.30391e-05
1.30666e-05
1.48409e-05
1.30666e-05
1.32058e-05
1.36163e-05
1.39044e-05
1.40481e-05
1.40502e-05
1.39152e-05
1.365e-05
1.32058e-05
1.30551e-05
1.3039e-05
1.36499e-05
1.41481e-05
1.44354e-05
1.45806e-05
1.4583e-05
1.44438e-05
1.41481e-05
1.36163e-05
1.30297e-05
1.32001e-05
1.39151e-05
1.44438e-05
1.47611e-05
1.49125e-05
1.4916e-05
1.47609e-05
1.44353e-05
1.39043e-05
1.31969e-05
1.33018e-05
1.40502e-05
1.4583e-05
1.4916e-05
1.5093e-05
1.50928e-05
1.49114e-05
1.45797e-05
1.40475e-05
1.3301e-05
1.33012e-05
1.40481e-05
1.45806e-05
1.49125e-05
1.50932e-05
1.5093e-05
1.49114e-05
1.45797e-05
1.40475e-05
1.3301e-05
1.31969e-05
1.39044e-05
1.44355e-05
1.47613e-05
1.49171e-05
1.49171e-05
1.47611e-05
1.44353e-05
1.39043e-05
1.31969e-05
1.30298e-05
1.36163e-05
1.41481e-05
1.4444e-05
1.45838e-05
1.45838e-05
1.4444e-05
1.41481e-05
1.36163e-05
1.30298e-05
1.30552e-05
1.32058e-05
1.365e-05
1.39153e-05
1.40508e-05
1.40508e-05
1.39153e-05
1.365e-05
1.32058e-05
1.30551e-05
1.48409e-05
1.30665e-05
1.30391e-05
1.32002e-05
1.33021e-05
1.33021e-05
1.32001e-05
1.3039e-05
1.30665e-05
1.4841e-05
1.68796e-05
1.33753e-05
1.30506e-05
1.31469e-05
1.32329e-05
1.32336e-05
1.31502e-05
1.30601e-05
1.3387e-05
1.68761e-05
1.33872e-05
1.31633e-05
1.35256e-05
1.38114e-05
1.39576e-05
1.39598e-05
1.38223e-05
1.35588e-05
1.31633e-05
1.33745e-05
1.30601e-05
1.35587e-05
1.40592e-05
1.43568e-05
1.45076e-05
1.45101e-05
1.43652e-05
1.40592e-05
1.35256e-05
1.30505e-05
1.31502e-05
1.38223e-05
1.43652e-05
1.46953e-05
1.48532e-05
1.48567e-05
1.46951e-05
1.43566e-05
1.38113e-05
1.31468e-05
1.32336e-05
1.39598e-05
1.45101e-05
1.48568e-05
1.50407e-05
1.50405e-05
1.48521e-05
1.45067e-05
1.3957e-05
1.32327e-05
1.32329e-05
1.39575e-05
1.45076e-05
1.48533e-05
1.50409e-05
1.50407e-05
1.48521e-05
1.45067e-05
1.3957e-05
1.32327e-05
1.31469e-05
1.38114e-05
1.43568e-05
1.46955e-05
1.48579e-05
1.48579e-05
1.46953e-05
1.43567e-05
1.38113e-05
1.31469e-05
1.30505e-05
1.35256e-05
1.40592e-05
1.43654e-05
1.4511e-05
1.4511e-05
1.43654e-05
1.40592e-05
1.35256e-05
1.30506e-05
1.33747e-05
1.31633e-05
1.35588e-05
1.38224e-05
1.39604e-05
1.39604e-05
1.38224e-05
1.35588e-05
1.31633e-05
1.33746e-05
1.68762e-05
1.33869e-05
1.30601e-05
1.31502e-05
1.32338e-05
1.32338e-05
1.31502e-05
1.306e-05
1.33869e-05
1.68763e-05
2.02646e-05
1.39697e-05
1.31572e-05
1.31369e-05
1.31928e-05
1.31936e-05
1.31404e-05
1.31669e-05
1.39825e-05
2.02586e-05
1.3983e-05
1.31666e-05
1.3447e-05
1.37234e-05
1.38703e-05
1.38726e-05
1.37344e-05
1.34798e-05
1.31666e-05
1.39684e-05
1.3167e-05
1.34797e-05
1.39731e-05
1.42794e-05
1.44355e-05
1.4438e-05
1.42879e-05
1.39731e-05
1.3447e-05
1.31569e-05
1.31404e-05
1.37344e-05
1.42879e-05
1.463e-05
1.47943e-05
1.47978e-05
1.46298e-05
1.42792e-05
1.37234e-05
1.31369e-05
1.31936e-05
1.38725e-05
1.4438e-05
1.47979e-05
1.49885e-05
1.49883e-05
1.47932e-05
1.44345e-05
1.38696e-05
1.31926e-05
1.31928e-05
1.38702e-05
1.44355e-05
1.47944e-05
1.49888e-05
1.49886e-05
1.47932e-05
1.44346e-05
1.38696e-05
1.31926e-05
1.31369e-05
1.37235e-05
1.42795e-05
1.46303e-05
1.47991e-05
1.4799e-05
1.46301e-05
1.42793e-05
1.37234e-05
1.3137e-05
1.31571e-05
1.3447e-05
1.39731e-05
1.42881e-05
1.4439e-05
1.4439e-05
1.42881e-05
1.39731e-05
1.3447e-05
1.31571e-05
1.39688e-05
1.31666e-05
1.34798e-05
1.37345e-05
1.38732e-05
1.38732e-05
1.37345e-05
1.34798e-05
1.31666e-05
1.39686e-05
2.0259e-05
1.39824e-05
1.31669e-05
1.31405e-05
1.31938e-05
1.31938e-05
1.31404e-05
1.31668e-05
1.39824e-05
2.02587e-05
2.52672e-05
1.49976e-05
1.33884e-05
1.31862e-05
1.31936e-05
1.31944e-05
1.31898e-05
1.33987e-05
1.50122e-05
2.52589e-05
1.50132e-05
1.32392e-05
1.33858e-05
1.36421e-05
1.37871e-05
1.37894e-05
1.36532e-05
1.34183e-05
1.32391e-05
1.49955e-05
1.33989e-05
1.34182e-05
1.38906e-05
1.42034e-05
1.43643e-05
1.43669e-05
1.42119e-05
1.38907e-05
1.33859e-05
1.33881e-05
1.31899e-05
1.36531e-05
1.42119e-05
1.45654e-05
1.47358e-05
1.47393e-05
1.45652e-05
1.42032e-05
1.3642e-05
1.31861e-05
1.31945e-05
1.37894e-05
1.43668e-05
1.47394e-05
1.49366e-05
1.49364e-05
1.47346e-05
1.43633e-05
1.37864e-05
1.31934e-05
1.31937e-05
1.3787e-05
1.43643e-05
1.47359e-05
1.49368e-05
1.49366e-05
1.47347e-05
1.43633e-05
1.37864e-05
1.31934e-05
1.31862e-05
1.36421e-05
1.42035e-05
1.45657e-05
1.47406e-05
1.47405e-05
1.45654e-05
1.42033e-05
1.3642e-05
1.31862e-05
1.33883e-05
1.33858e-05
1.38907e-05
1.42121e-05
1.43679e-05
1.43679e-05
1.42121e-05
1.38907e-05
1.33859e-05
1.33883e-05
1.49963e-05
1.32391e-05
1.34182e-05
1.36533e-05
1.37901e-05
1.37901e-05
1.36533e-05
1.34183e-05
1.32391e-05
1.49959e-05
2.52606e-05
1.50123e-05
1.33988e-05
1.31899e-05
1.31947e-05
1.31947e-05
1.31898e-05
1.33985e-05
1.50121e-05
2.52594e-05
3.19598e-05
1.66138e-05
1.38108e-05
1.33229e-05
1.32558e-05
1.32566e-05
1.33268e-05
1.38219e-05
1.66317e-05
3.19509e-05
1.66331e-05
1.34053e-05
1.33488e-05
1.357e-05
1.37094e-05
1.37119e-05
1.35811e-05
1.3381e-05
1.34051e-05
1.6611e-05
1.38223e-05
1.33809e-05
1.38129e-05
1.4129e-05
1.4294e-05
1.42967e-05
1.41375e-05
1.38129e-05
1.33488e-05
1.38102e-05
1.3327e-05
1.3581e-05
1.41375e-05
1.45014e-05
1.46777e-05
1.46812e-05
1.45011e-05
1.41288e-05
1.35699e-05
1.33228e-05
1.32568e-05
1.37118e-05
1.42967e-05
1.46813e-05
1.48848e-05
1.48846e-05
1.46765e-05
1.4293e-05
1.37087e-05
1.32555e-05
1.32559e-05
1.37094e-05
1.4294e-05
1.46778e-05
1.48851e-05
1.48848e-05
1.46766e-05
1.4293e-05
1.37087e-05
1.32556e-05
1.3323e-05
1.357e-05
1.41291e-05
1.45017e-05
1.46825e-05
1.46825e-05
1.45014e-05
1.41289e-05
1.35699e-05
1.3323e-05
1.38106e-05
1.33487e-05
1.3813e-05
1.41377e-05
1.42977e-05
1.42977e-05
1.41377e-05
1.38129e-05
1.33488e-05
1.38107e-05
1.66121e-05
1.34051e-05
1.3381e-05
1.35812e-05
1.37126e-05
1.37126e-05
1.35812e-05
1.3381e-05
1.34051e-05
1.66119e-05
3.1953e-05
1.66319e-05
1.3822e-05
1.3327e-05
1.3257e-05
1.3257e-05
1.33268e-05
1.38217e-05
1.66318e-05
3.19525e-05
4.01417e-05
1.93623e-05
1.45296e-05
1.35885e-05
1.34039e-05
1.34049e-05
1.35929e-05
1.45422e-05
1.93846e-05
4.01348e-05
1.93859e-05
1.37218e-05
1.33473e-05
1.35112e-05
1.36397e-05
1.36421e-05
1.35222e-05
1.33794e-05
1.37215e-05
1.93588e-05
1.45426e-05
1.33794e-05
1.37416e-05
1.40567e-05
1.4225e-05
1.42276e-05
1.40651e-05
1.37416e-05
1.33471e-05
1.45291e-05
1.35931e-05
1.35222e-05
1.40651e-05
1.4438e-05
1.462e-05
1.46234e-05
1.44378e-05
1.40564e-05
1.35109e-05
1.35885e-05
1.34051e-05
1.3642e-05
1.42276e-05
1.46235e-05
1.48332e-05
1.4833e-05
1.46188e-05
1.42239e-05
1.36388e-05
1.34038e-05
1.34041e-05
1.36396e-05
1.4225e-05
1.46201e-05
1.48335e-05
1.48332e-05
1.46189e-05
1.42239e-05
1.36388e-05
1.34038e-05
1.35886e-05
1.35111e-05
1.40567e-05
1.44383e-05
1.46248e-05
1.46248e-05
1.4438e-05
1.40565e-05
1.3511e-05
1.35888e-05
1.45293e-05
1.33472e-05
1.37417e-05
1.40654e-05
1.42287e-05
1.42287e-05
1.40653e-05
1.37416e-05
1.33472e-05
1.45298e-05
1.93596e-05
1.37215e-05
1.33794e-05
1.35224e-05
1.36429e-05
1.36429e-05
1.35223e-05
1.33794e-05
1.37215e-05
1.93601e-05
4.01347e-05
1.93842e-05
1.45423e-05
1.35931e-05
1.34054e-05
1.34053e-05
1.35928e-05
1.45419e-05
1.93845e-05
4.0136e-05
4.93812e-05
2.34748e-05
1.56715e-05
1.40478e-05
1.36841e-05
1.36852e-05
1.40527e-05
1.5686e-05
2.35009e-05
4.93767e-05
2.35021e-05
1.42602e-05
1.33956e-05
1.34709e-05
1.35811e-05
1.35836e-05
1.3482e-05
1.34281e-05
1.42598e-05
2.34709e-05
1.56863e-05
1.34281e-05
1.36793e-05
1.39868e-05
1.41572e-05
1.41599e-05
1.39952e-05
1.36792e-05
1.33954e-05
1.56709e-05
1.4053e-05
1.3482e-05
1.39952e-05
1.43754e-05
1.45627e-05
1.45661e-05
1.43751e-05
1.39865e-05
1.34706e-05
1.40479e-05
1.36855e-05
1.35835e-05
1.41599e-05
1.45662e-05
1.47818e-05
1.47816e-05