/*--------------------------------*- C++ -*----------------------------------*\
| =========                 |                                                 |
| \\      /  F ield         | OpenFOAM: The Open Source CFD Toolbox           |
|  \\    /   O peration     | Version:  2406                                  |
|   \\  /    A nd           | Website:  www.openfoam.com                      |
|    \\/     M anipulation  |                                                 |
\*---------------------------------------------------------------------------*/
FoamFile
{
    version     2.0;
    format      ascii;
    arch        "LSB;label=32;scalar=64";
    class       volScalarField;
    location    "400";
    object      turbulenceProperties:L;
}
// * * * * * * * * * * * * * * * * * * * * * * * * * * * * * * * * * * * * * //

dimensions      [0 1 0 0 0 0 0];

internalField   nonuniform List<scalar> 
25000
(
0.035329
0.0361353
0.0376518
0.0379986
0.0381727
0.0381689
0.0379902
0.0376537
0.0360282
0.0352206
0.0361205
0.0365281
0.0382227
0.039218
0.039729
0.0397328
0.0392333
0.0382499
0.0365878
0.0360487
0.0376346
0.0382076
0.0396893
0.0406684
0.0411726
0.0411755
0.0406783
0.0397126
0.038259
0.0376703
0.0379876
0.0392116
0.0406645
0.0416976
0.0422391
0.0422399
0.0417038
0.0406801
0.0392359
0.0380039
0.0381664
0.0397225
0.0411703
0.0422379
0.042799
0.0427997
0.0422416
0.0411778
0.0397374
0.0381793
0.0381672
0.0397292
0.0411732
0.0422403
0.0427999
0.0428001
0.0422414
0.0411775
0.0397371
0.0381781
0.0379905
0.03923
0.0406777
0.0417031
0.0422408
0.0422405
0.0417036
0.0406795
0.039235
0.0380005
0.0376566
0.0382551
0.0397102
0.0406779
0.041177
0.0411769
0.0406781
0.0397116
0.0382577
0.0376649
0.0360349
0.0365855
0.0382488
0.0392343
0.0397365
0.0397364
0.0392343
0.0382497
0.036587
0.0360422
0.0352181
0.0360466
0.0376707
0.0380045
0.0381799
0.0381781
0.0380003
0.0376642
0.0360382
0.0352222
0.0299001
0.0304194
0.0315318
0.0317859
0.0319206
0.03192
0.0317847
0.03153
0.0304616
0.0300057
0.0304217
0.0313069
0.0319705
0.0322607
0.0324507
0.0324486
0.0322533
0.0319398
0.0312882
0.0304638
0.0315398
0.0319562
0.0325557
0.0328116
0.0329511
0.0329494
0.0328039
0.0325447
0.0319565
0.0315259
0.0317886
0.0322618
0.0328098
0.033116
0.0332759
0.0332733
0.0331125
0.0328053
0.0322518
0.0317785
0.0319204
0.0324516
0.0329514
0.0332744
0.0334311
0.0334304
0.0332738
0.0329472
0.0324447
0.0319131
0.0319188
0.0324487
0.0329496
0.0332747
0.0334302
0.0334298
0.0332734
0.032947
0.0324446
0.0319131
0.0317829
0.0322539
0.0328062
0.0331122
0.0332718
0.0332716
0.0331114
0.0328046
0.0322515
0.0317785
0.0315295
0.0319572
0.0325445
0.0328025
0.0329467
0.0329466
0.0328021
0.0325437
0.031956
0.0315257
0.0304671
0.0312879
0.0319386
0.0322506
0.0324445
0.0324445
0.0322505
0.0319382
0.0312873
0.0304639
0.0300047
0.0304562
0.0315241
0.0317779
0.0319128
0.031913
0.0317787
0.0315251
0.0304576
0.0300037
0.0312244
0.0323371
0.033093
0.033545
0.0337531
0.0337522
0.0335422
0.0330883
0.0323371
0.0312634
0.0323286
0.0334739
0.0338119
0.0340685
0.0342499
0.0342479
0.0340591
0.0337714
0.0334586
0.0323451
0.0330946
0.0337846
0.0342859
0.034559
0.0347328
0.0347307
0.0345495
0.0342759
0.0337988
0.0330872
0.0335466
0.0340668
0.0345553
0.0348541
0.0350393
0.0350357
0.0348505
0.0345525
0.0340594
0.0335385
0.0337542
0.0342509
0.0347325
0.0350368
0.0351972
0.0351964
0.035037
0.0347285
0.0342444
0.0337483
0.0337524
0.0342482
0.0347313
0.0350382
0.0351964
0.0351959
0.0350366
0.0347283
0.0342442
0.0337483
0.0335418
0.0340619
0.0345538
0.0348506
0.0350343
0.035034
0.0348495
0.0345519
0.034059
0.0335386
0.0330898
0.0337998
0.0342762
0.0345485
0.0347282
0.034728
0.0345478
0.0342749
0.0337982
0.0330873
0.0323466
0.0334579
0.0337701
0.0340567
0.0342442
0.0342442
0.0340567
0.0337697
0.0334576
0.0323454
0.0312641
0.0323334
0.0330842
0.0335378
0.0337478
0.0337481
0.0335385
0.0330849
0.0323345
0.0312626
0.0358434
0.038019
0.0385361
0.0392985
0.0395813
0.0395821
0.0392985
0.0385304
0.0380176
0.0358882
0.0380076
0.0395446
0.0397802
0.0402271
0.0404606
0.040459
0.0402163
0.0397258
0.0395308
0.0380336
0.0385345
0.0397369
0.0404119
0.0409421
0.0412558
0.041253
0.0409294
0.0404016
0.0397673
0.0385319
0.0392997
0.0402223
0.0409354
0.0414417
0.0417662
0.041761
0.0414374
0.040935
0.0402187
0.0392949
0.0395816
0.0404607
0.0412548
0.0417624
0.0420491
0.0420483
0.041764
0.0412519
0.0404562
0.0395784
0.0395807
0.040459
0.0412535
0.0417644
0.0420481
0.0420478
0.0417639
0.041252
0.0404565
0.0395785
0.0392972
0.040221
0.0409357
0.0414372
0.0417596
0.0417598
0.0414372
0.0409353
0.0402194
0.0392951
0.0385334
0.039769
0.0404019
0.0409287
0.0412513
0.0412515
0.040929
0.040402
0.0397684
0.0385322
0.0380329
0.0395308
0.0397246
0.0402143
0.0404565
0.0404568
0.0402153
0.0397254
0.0395313
0.0380328
0.035885
0.038014
0.0385254
0.0392938
0.0395784
0.0395794
0.0392962
0.0385286
0.0380172
0.0358869
0.0410525
0.0440327
0.0445557
0.0456745
0.0460664
0.0460717
0.045689
0.0445622
0.0440322
0.0410981
0.0440178
0.0459844
0.046489
0.0473782
0.0477335
0.0477336
0.0473702
0.046426
0.0459829
0.0440559
0.0445529
0.0464296
0.0475548
0.048657
0.0492324
0.0492286
0.0486396
0.0475435
0.0464838
0.0445669
0.0456814
0.0473734
0.048649
0.0496833
0.0502978
0.0502905
0.0496767
0.0486493
0.0473767
0.0456866
0.0460702
0.0477365
0.0492328
0.0502933
0.0509012
0.0509004
0.0502967
0.0492303
0.0477335
0.0460705
0.0460729
0.0477365
0.0492315
0.0502966
0.0509007
0.0509009
0.0502975
0.0492312
0.0477347
0.0460716
0.045691
0.0473811
0.0486511
0.0496782
0.0502914
0.0502919
0.0496792
0.0486518
0.0473797
0.0456888
0.044572
0.0464892
0.0475465
0.048642
0.0492305
0.0492309
0.048643
0.047547
0.0464882
0.0445701
0.0440582
0.045986
0.0464268
0.0473709
0.0477347
0.0477353
0.0473725
0.0464283
0.0459862
0.0440571
0.0410964
0.0440312
0.0445582
0.0456859
0.0460712
0.0460724
0.0456895
0.044563
0.0440349
0.0410982
0.0453144
0.048353
0.0490052
0.0502536
0.0507063
0.0507141
0.0502828
0.0490422
0.0483805
0.0453917
0.0483291
0.0502063
0.0511012
0.0523153
0.0527671
0.0527664
0.0523061
0.0510354
0.0502288
0.0484049
0.0490021
0.0510283
0.0524521
0.053975
0.0547084
0.054704
0.0539541
0.0524408
0.0511069
0.049045
0.0502633
0.052309
0.0539654
0.0554361
0.0562465
0.0562391
0.0554308
0.0539667
0.0523156
0.050278
0.0507118
0.0527704
0.0547086
0.0562403
0.0571028
0.0571033
0.0562476
0.054707
0.0527658
0.0507114
0.0507176
0.0527706
0.0547075
0.0562455
0.0571029
0.057104
0.0562485
0.0547081
0.0527674
0.0507135
0.0502866
0.0523213
0.0539683
0.0554312
0.0562397
0.0562408
0.0554335
0.0539697
0.0523195
0.0502822
0.0490548
0.0511136
0.0524435
0.0539561
0.0547061
0.0547069
0.0539581
0.0524449
0.0511125
0.0490508
0.0484109
0.0502311
0.0510345
0.0523063
0.0527666
0.0527675
0.0523088
0.0510374
0.0502324
0.0484085
0.0453883
0.0483733
0.0490322
0.0502765
0.0507119
0.0507135
0.0502819
0.0490401
0.0483805
0.0453917
0.0479001
0.0502233
0.0509387
0.0521351
0.0525798
0.0525796
0.0521464
0.0509657
0.0502467
0.0479799
0.050183
0.051578
0.0526899
0.0539172
0.0543759
0.0543679
0.0538854
0.0525932
0.0515872
0.0502685
0.0509252
0.0526031
0.0539633
0.0554496
0.0561149
0.056108
0.0554189
0.0539376
0.0526743
0.0509651
0.0521347
0.0539016
0.0554356
0.0568536
0.0575733
0.0575654
0.056847
0.0554317
0.0538957
0.0521366
0.0525811
0.0543747
0.0561117
0.0575649
0.0583294
0.0583298
0.0575723
0.0561072
0.0543619
0.0525692
0.0525831
0.0543716
0.0561109
0.0575715
0.058329
0.0583293
0.0575725
0.056108
0.0543636
0.0525721
0.0521517
0.0539048
0.0554355
0.0568477
0.0575634
0.0575638
0.0568477
0.0554337
0.0538998
0.0521434
0.0509822
0.0526844
0.0539419
0.0554203
0.0561066
0.0561067
0.0554203
0.0539406
0.0526804
0.0509747
0.0502816
0.0515936
0.0525946
0.053886
0.0543641
0.0543638
0.053886
0.0525941
0.0515911
0.0502765
0.047976
0.050236
0.0509529
0.0521378
0.0525716
0.0525726
0.0521417
0.0509593
0.0502425
0.047981
0.0489019
0.0503892
0.0511077
0.0521286
0.0525269
0.0525199
0.052119
0.051106
0.0503919
0.0489587
0.0503403
0.0513165
0.0524153
0.0534743
0.0539024
0.0538924
0.0534338
0.0522992
0.0513128
0.0504152
0.051082
0.0523189
0.053483
0.0547617
0.0553151
0.0553091
0.0547322
0.0534564
0.052388
0.0511102
0.0521196
0.053452
0.0547436
0.0559636
0.0565511
0.0565438
0.0559607
0.0547453
0.0534468
0.0521125
0.0525274
0.0538986
0.0553089
0.0565412
0.0571422
0.0571424
0.0565495
0.055307
0.0538874
0.0525137
0.0525245
0.0538951
0.0553109
0.0565495
0.0571414
0.0571411
0.0565487
0.0553068
0.053888
0.0525163
0.0521254
0.0534528
0.0547482
0.0559604
0.0565398
0.0565391
0.0559584
0.0547446
0.0534479
0.0521192
0.0511272
0.0523944
0.0534585
0.0547314
0.0553049
0.0553041
0.0547294
0.053455
0.0523898
0.0511201
0.0504325
0.0513168
0.0522995
0.0534329
0.0538876
0.0538865
0.0534306
0.0522964
0.0513132
0.0504254
0.0489635
0.0503841
0.0510976
0.0521143
0.0525153
0.0525147
0.0521142
0.0510987
0.0503863
0.0489638
0.0494053
0.0503317
0.050975
0.0517983
0.0521477
0.0521395
0.0517774
0.050947
0.0503049
0.0494419
0.0502745
0.0509545
0.0519078
0.0527873
0.0531849
0.0531774
0.0527487
0.051783
0.0509371
0.0503319
0.0509391
0.051803
0.0527918
0.0538949
0.0543776
0.054374
0.053872
0.0527731
0.0518768
0.050955
0.0517851
0.0527613
0.0538754
0.0549459
0.0554586
0.0554516
0.0549475
0.0538875
0.0527652
0.0517738
0.0521481
0.0531811
0.0543724
0.0554493
0.0559495
0.0559497
0.0554591
0.0543757
0.0531778
0.0521385
0.0521422
0.0531797
0.0543771
0.055459
0.0559492
0.055949
0.055459
0.054376
0.0531786
0.0521407
0.0517803
0.052767
0.0538887
0.054947
0.0554486
0.0554485
0.0549468
0.053888
0.0527676
0.0517806
0.0509669
0.0518799
0.0527734
0.0538712
0.0543719
0.0543719
0.0538714
0.0527738
0.0518806
0.0509649
0.0503436
0.0509392
0.0517819
0.0527481
0.0531765
0.0531761
0.0527481
0.0517824
0.0509403
0.050342
0.0494451
0.0503001
0.0509416
0.0517759
0.0521398
0.0521392
0.0517751
0.0509416
0.0503003
0.0494435
0.0500062
0.0505935
0.0511136
0.0517756
0.0520938
0.0520903
0.051761
0.0510777
0.0505532
0.0500313
0.0505346
0.0509762
0.05176
0.0525105
0.0528883
0.0528852
0.0524809
0.0516375
0.0509557
0.0505819
0.0510742
0.0516512
0.0525124
0.0535016
0.0539482
0.0539461
0.0534845
0.052504
0.0517365
0.0510884
0.0517659
0.052485
0.0534815
0.054455
0.0549313
0.0549238
0.0544582
0.0535015
0.0525004
0.0517589
0.0520973
0.0528862
0.0539434
0.0549224
0.0553676
0.0553672
0.054932
0.0539493
0.0528893
0.0520949
0.0520927
0.0528872
0.0539494
0.0549318
0.0553671
0.0553669
0.054932
0.0539493
0.0528895
0.052097
0.0517624
0.0524987
0.0535004
0.0544573
0.054921
0.0549209
0.0544578
0.0535015
0.0525016
0.0517666
0.0510988
0.0517359
0.0525017
0.0534827
0.0539443
0.0539444
0.0534838
0.0525035
0.0517388
0.0511002
0.0505949
0.0509541
0.0516332
0.0524784
0.0528853
0.0528856
0.0524795
0.0516358
0.050958
0.0505961
0.050039
0.0505469
0.051071
0.051759
0.0520945
0.0520947
0.0517599
0.0510739
0.0505512
0.0500397
0.0507944
0.0511746
0.0515393
0.0520734
0.052369
0.0523697
0.0520652
0.0514989
0.0511159
0.0508002
0.0511135
0.0513051
0.0519377
0.0526031
0.0529669
0.0529666
0.0525796
0.0518177
0.051283
0.0511473
0.0514986
0.0518248
0.0525944
0.0535125
0.0539411
0.0539386
0.0534966
0.0525924
0.0519208
0.0515106
0.0520679
0.0525793
0.0534938
0.0544054
0.0548648
0.0548552
0.0544058
0.0535155
0.0526007
0.052062
0.0523752
0.0529687
0.0539406
0.0548582
0.0552744
0.0552727
0.0548645
0.0539436
0.0529713
0.0523731
0.0523734
0.0529728
0.0539467
0.0548668
0.0552738
0.0552727
0.0548649
0.0539435
0.0529713
0.0523746
0.0520685
0.0526034
0.0535172
0.0544074
0.0548538
0.0548534
0.0544061
0.0535154
0.0526018
0.0520685
0.0515227
0.0519254
0.0525933
0.0534973
0.0539384
0.053938
0.0534963
0.0525921
0.051923
0.0515206
0.0511595
0.0512871
0.0518165
0.0525787
0.0529677
0.0529673
0.0525776
0.0518151
0.0512845
0.0511587
0.0508016
0.051111
0.0514919
0.052062
0.0523728
0.0523735
0.0520626
0.0514937
0.0511127
0.0508058
0.0515616
0.0519263
0.0521513
0.0525906
0.0528745
0.0528817
0.0525992
0.0521248
0.0518743
0.0515628
0.0518657
0.0518282
0.0523387
0.0529488
0.0533053
0.0533082
0.0529357
0.0522319
0.0518244
0.0519095
0.0521122
0.0522251
0.0529259
0.0537991
0.0542215
0.0542189
0.0537852
0.0529335
0.0523416
0.0521416
0.0525905
0.0529284
0.0537815
0.054654
0.0551084
0.0550976
0.054653
0.0538059
0.0529604
0.0525987
0.0528835
0.0533096
0.0542224
0.0551025
0.0555071
0.0555051
0.0551083
0.0542252
0.0533151
0.0528883
0.0528876
0.0533159
0.0542281
0.0551102
0.0555063
0.0555057
0.0551086
0.0542247
0.0533146
0.0528894
0.0526065
0.0529622
0.0538066
0.0546542
0.0550967
0.0550961
0.0546532
0.053805
0.05296
0.0526044
0.0521558
0.0523448
0.0529333
0.0537852
0.0542179
0.0542174
0.053784
0.0529314
0.0523416
0.052151
0.0519263
0.0518274
0.0522297
0.052933
0.0533081
0.053308
0.0529319
0.0522277
0.0518237
0.0519213
0.0515733
0.0518738
0.05212
0.0525956
0.0528854
0.0528859
0.0525952
0.0521186
0.0518708
0.0515709
0.0521422
0.0527789
0.0528957
0.0532602
0.0535309
0.053541
0.053277
0.0528786
0.0527285
0.0521386
0.0527154
0.0524709
0.0528795
0.0534474
0.0537956
0.0537985
0.053436
0.0527784
0.0524802
0.0527685
0.0528569
0.0527624
0.0534021
0.0542413
0.0546603
0.0546561
0.054225
0.0534131
0.0528938
0.0529
0.0532602
0.0534259
0.0542238
0.0550682
0.0555212
0.0555093
0.055065
0.0542483
0.0534636
0.0532778
0.0535364
0.0537977
0.0546614
0.0555155
0.055916
0.0559148
0.0555223
0.0546647
0.0538053
0.053545
0.0535432
0.0538041
0.0546646
0.0555215
0.0559151
0.0559156
0.055523
0.0546647
0.053805
0.0535453
0.0532822
0.0534626
0.0542458
0.0550637
0.0555077
0.0555087
0.0550663
0.0542484
0.0534642
0.0532815
0.0529088
0.0528939
0.0534101
0.0542229
0.0546539
0.0546549
0.0542253
0.053413
0.0528954
0.052907
0.0527778
0.0524801
0.0527733
0.0534306
0.0537955
0.0537969
0.0534335
0.0527761
0.0524811
0.0527766
0.0521437
0.0527265
0.0528713
0.0532696
0.0535398
0.0535415
0.0532718
0.0528722
0.052724
0.0521408
0.0522751
0.0535877
0.0536879
0.0540026
0.0542633
0.0542752
0.0540276
0.0536849
0.0535548
0.0522764
0.0535278
0.053171
0.0534948
0.0540267
0.0543669
0.0543687
0.0540152
0.0533989
0.0531987
0.0535991
0.053652
0.0533767
0.0539565
0.0547664
0.0551832
0.0551774
0.0547469
0.0539689
0.0535219
0.0537134
0.0540045
0.0540053
0.0547483
0.055569
0.0560223
0.0560101
0.0555647
0.054772
0.0540472
0.0540326
0.0542677
0.0543678
0.0551829
0.0560156
0.0564161
0.0564159
0.0560246
0.0551868
0.0543757
0.0542795
0.0542772
0.0543736
0.0551846
0.0560211
0.0564155
0.0564172
0.0560253
0.0551866
0.0543751
0.0542795
0.054036
0.0540444
0.0547674
0.055562
0.0560086
0.0560101
0.0555664
0.0547719
0.0540464
0.0540354
0.0537209
0.0535197
0.0539648
0.0547442
0.0551747
0.0551762
0.0547478
0.0539686
0.053522
0.0537202
0.0536096
0.0531961
0.0533933
0.0540096
0.0543644
0.0543663
0.0540135
0.0533976
0.0531989
0.0536089
0.0522843
0.0535506
0.0536773
0.0540204
0.0542734
0.0542754
0.0540244
0.053681
0.053552
0.0522825
0.0520126
0.054265
0.0544854
0.054776
0.0550231
0.0550315
0.0547949
0.0544819
0.0542346
0.0520161
0.0542057
0.0538903
0.0541401
0.0546335
0.0549602
0.0549576
0.0546119
0.0540357
0.0539209
0.0542839
0.0544519
0.0540185
0.0545322
0.0553106
0.0557222
0.0557138
0.0552841
0.0545383
0.0541654
0.054517
0.0547777
0.0546099
0.0552917
0.0560881
0.0565399
0.0565274
0.0560819
0.0553113
0.0546474
0.0548033
0.0550252
0.0549593
0.0557216
0.056533
0.0569332
0.056934
0.0565433
0.0557242
0.0549629
0.0550313
0.055033
0.0549633
0.0557216
0.0565382
0.056933
0.0569352
0.0565438
0.0557237
0.0549617
0.05503
0.054806
0.0546457
0.055307
0.0560786
0.0565256
0.0565275
0.0560831
0.0553106
0.0546455
0.0548023
0.0545208
0.0541638
0.0545355
0.0552822
0.0557108
0.0557124
0.0552852
0.0545382
0.0541642
0.0545191
0.0542884
0.0539185
0.0540322
0.054608
0.0549515
0.054953
0.0546111
0.0540351
0.0539197
0.0542883
0.0520169
0.0542279
0.0544742
0.054788
0.0550252
0.0550271
0.0547917
0.0544782
0.0542297
0.0520176
0.051935
0.0546528
0.0552217
0.0555391
0.0557796
0.0557827
0.0555471
0.0552108
0.0546258
0.051946
0.0545956
0.0546054
0.0548024
0.0552549
0.055565
0.0555572
0.0552199
0.0546823
0.0546311
0.05468
0.0551891
0.0546774
0.0551201
0.0558646
0.0562697
0.0562591
0.0558311
0.0551168
0.05482
0.0552555
0.0555397
0.0552275
0.0558431
0.0566139
0.0570643
0.0570524
0.0566078
0.0558592
0.0552596
0.0555616
0.0557797
0.0555607
0.0562655
0.0570555
0.0574563
0.0574585
0.0570687
0.0562685
0.055561
0.0557815
0.0557845
0.0555622
0.0562651
0.0570617
0.0574567
0.0574596
0.0570685
0.0562675
0.0555592
0.0557796
0.0555623
0.0552575
0.055855
0.0566039
0.0570503
0.0570518
0.0566077
0.0558574
0.0552559
0.0555584
0.0552562
0.0548173
0.0551154
0.05583
0.0562554
0.0562562
0.0558313
0.0551158
0.0548166
0.0552547
0.0546832
0.0546281
0.054682
0.0552188
0.05555
0.0555507
0.0552199
0.0546832
0.0546292
0.0546828
0.0519476
0.0546192
0.0552074
0.0555449
0.0557764
0.0557773
0.0555471
0.0552108
0.0546223
0.0519484
0.054356
0.0546831
0.0558406
0.0562603
0.056506
0.0565001
0.056246
0.0558064
0.0546385
0.0543544
0.0546267
0.0552754
0.0554586
0.0558695
0.0561599
0.0561465
0.0558193
0.0553181
0.0552864
0.0546991
0.0558062
0.0553274
0.0556961
0.0564036
0.0568001
0.0567884
0.0563653
0.0556842
0.0554622
0.0558604
0.0562556
0.0558357
0.0563791
0.0571223
0.0575705
0.0575602
0.0571192
0.0563954
0.0558629
0.0562666
0.056501
0.056151
0.0567932
0.0575603
0.0579608
0.0579651
0.0575781
0.0567994
0.0561503
0.0564968
0.0564999
0.0561509
0.0567937
0.0575687
0.0579627
0.0579662
0.0575777
0.0567985
0.0561487
0.0564943
0.0562625
0.0558604
0.0563914
0.0571152
0.0575588
0.0575604
0.057119
0.0563939
0.0558597
0.0562608
0.0558539
0.0554595
0.0556848
0.0563663
0.0567863
0.0567869
0.056367
0.0556853
0.0554599
0.0558555
0.054694
0.0552841
0.0553215
0.0558222
0.0561406
0.0561409
0.055823
0.055323
0.0552867
0.0546971
0.0543485
0.0546336
0.0558079
0.0562491
0.0564933
0.0564939
0.0562511
0.0558119
0.0546379
0.0543524
0.0635477
0.0544257
0.0562427
0.056882
0.0571675
0.0571557
0.0568536
0.0561936
0.0543755
0.0635716
0.0543732
0.0558528
0.0560997
0.0564776
0.0567504
0.056734
0.0564183
0.0559446
0.055854
0.0544394
0.0562081
0.0559642
0.0562666
0.0569374
0.0573257
0.0573144
0.0568982
0.0562507
0.0560951
0.0562554
0.0568749
0.0564397
0.05691
0.0576249
0.0580711
0.0580632
0.0576267
0.0569294
0.0564659
0.05688
0.0571612
0.0567392
0.0573159
0.0580592
0.0584593
0.0584653
0.0580816
0.0573262
0.0567395
0.0571547
0.0571566
0.0567391
0.0573191
0.0580709
0.0584626
0.0584664
0.0580807
0.0573251
0.0567381
0.0571526
0.0568734
0.0564633
0.0569264
0.0576236
0.0580627
0.0580634
0.0576257
0.0569277
0.0564626
0.0568742
0.0562462
0.0560922
0.0562535
0.0569014
0.0573141
0.0573138
0.0569001
0.0562521
0.0560926
0.0562497
0.0544331
0.0558518
0.0559512
0.0564249
0.0567304
0.0567301
0.0564242
0.0559518
0.0558551
0.0544374
0.063564
0.054372
0.0561996
0.0568622
0.0571523
0.0571524
0.0568641
0.0562047
0.0543789
0.0635758
0.0429131
0.0545038
0.0563916
0.057362
0.0577291
0.0577113
0.057317
0.0563226
0.054435
0.0429611
0.0544525
0.0562934
0.056712
0.0570741
0.0573299
0.0573104
0.0570047
0.0565395
0.0562772
0.0545008
0.0563548
0.0565701
0.0568257
0.0574594
0.0578374
0.057826
0.0574184
0.0568047
0.056694
0.0563875
0.0573509
0.0570311
0.0574298
0.0581147
0.0585568
0.0585502
0.0581192
0.0574507
0.0570543
0.0573452
0.0577215
0.0573175
0.0578269
0.0585446
0.0589417
0.0589483
0.0585686
0.0578388
0.0573169
0.0577093
0.0577136
0.0573185
0.0578329
0.0585589
0.0589458
0.0589487
0.0585673
0.0578379
0.0573161
0.0577074
0.0573392
0.0570553
0.0574512
0.0581182
0.0585501
0.0585497
0.0581173
0.0574492
0.057052
0.0573388
0.0563765
0.0566948
0.0568115
0.0574246
0.0578275
0.0578261
0.0574203
0.0568067
0.0566918
0.0563791
0.05449
0.056278
0.05655
0.0570148
0.0573089
0.0573074
0.0570113
0.0565471
0.0562779
0.0544941
0.0429575
0.0544325
0.0563306
0.057328
0.0577077
0.0577072
0.0573283
0.0563342
0.0544385
0.0429614
0.0243357
0.0564851
0.0563298
0.0576417
0.0581405
0.0581212
0.0575921
0.0562543
0.0564101
0.0243528
0.056435
0.0565642
0.0572703
0.0576537
0.0579006
0.0578809
0.0575822
0.0570913
0.0565436
0.0564775
0.0562897
0.0571233
0.0573765
0.0579769
0.0583455
0.058335
0.0579375
0.0573568
0.0572498
0.0563204
0.0576269
0.0576069
0.057945
0.0586003
0.0590383
0.059033
0.0586085
0.0579709
0.0576351
0.0576231
0.0581338
0.0578881
0.0583339
0.0590254
0.0594188
0.0594257
0.0590512
0.0583494
0.0578919
0.0581247
0.0581274
0.057892
0.0583436
0.0590423
0.0594234
0.0594256
0.0590497
0.0583489
0.0578919
0.0581239
0.0576184
0.0576375
0.0579739
0.0586093
0.0590332
0.0590318
0.0586063
0.0579704
0.0576342
0.0576185
0.0563118
0.0572527
0.0573664
0.0579462
0.0583383
0.0583359
0.0579398
0.0573592
0.0572483
0.0563132
0.0564664
0.0565463
0.0571046
0.0575955
0.0578831
0.0578808
0.0575898
0.0570992
0.0565444
0.0564695
0.0243529
0.05641
0.0562663
0.0576074
0.058123
0.0581212
0.0576047
0.0562658
0.0564154
0.024353
0.0161972
0.0624117
0.0564029
0.0577456
0.0583876
0.0583689
0.0576967
0.0563274
0.062325
0.0162051
0.0623603
0.0567428
0.0577415
0.0582019
0.058451
0.0584328
0.0581333
0.0575637
0.0567241
0.0624011
0.0563601
0.0575888
0.0579076
0.0584797
0.0588391
0.0588306
0.0584455
0.0578951
0.057724
0.05639
0.0577257
0.0581508
0.0584463
0.0590717
0.0595045
0.0595005
0.0590849
0.0584809
0.0581888
0.057727
0.0583781
0.0584368
0.0588268
0.0594907
0.059879
0.0598866
0.0595198
0.0588488
0.0584497
0.0583761
0.058373
0.0584432
0.0588389
0.0595091
0.0598833
0.0598858
0.0595185
0.0588494
0.0584508
0.0583762
0.0577184
0.0581868
0.0584813
0.0590836
0.0594994
0.0594987
0.0590833
0.0584823
0.0581907
0.0577243
0.0563772
0.0577225
0.0579012
0.058452
0.0588338
0.0588326
0.058449
0.0578995
0.0577252
0.0563843
0.0623647
0.0567211
0.0575715
0.0581436
0.0584361
0.058435
0.0581418
0.0575717
0.056726
0.0623852
0.0162052
0.0623152
0.0563349
0.0577082
0.0583708
0.0583696
0.0577072
0.0563358
0.0623315
0.0162051
0.0120638
0.0517904
0.0575073
0.0578431
0.0585286
0.0585135
0.0578019
0.0574403
0.051769
0.0120677
0.0517581
0.0571299
0.0581116
0.0587208
0.0589883
0.0589714
0.0586541
0.0579346
0.0571098
0.0518285
0.0574674
0.0579564
0.0584326
0.058987
0.0593371
0.0593293
0.0589544
0.0584236
0.0580955
0.0574942
0.0578223
0.0586666
0.0589511
0.0595471
0.059973
0.0599689
0.0595612
0.0589893
0.0587097
0.0578273
0.0585196
0.0589726
0.0593218
0.0599572
0.0603388
0.0603457
0.0599863
0.0593461
0.0589892
0.0585212
0.0585154
0.0589792
0.0593342
0.0599745
0.0603409
0.0603433
0.0599841
0.0593464
0.0589902
0.0585219
0.0578165
0.0587023
0.0589847
0.0595558
0.0599629
0.0599629
0.0595574
0.0589895
0.0587106
0.057826
0.0574749
0.0580853
0.0584213
0.0589537
0.059327
0.0593268
0.0589542
0.0584247
0.0580944
0.0574902
0.0518228
0.0570943
0.0579312
0.0586558
0.05897
0.0589702
0.0586579
0.0579377
0.0571076
0.0518203
0.0120678
0.0517771
0.0574306
0.0578019
0.058511
0.0585117
0.0578063
0.0574404
0.0517711
0.0120677
0.00979186
0.0317893
0.0611327
0.0584196
0.0587889
0.0587726
0.0583706
0.0610409
0.0317809
0.00979394
0.0317729
0.0583936
0.0583786
0.0591873
0.0594916
0.0594728
0.0591129
0.0581884
0.0583507
0.0318103
0.0610942
0.0582189
0.0589323
0.0594865
0.0598265
0.0598163
0.0594474
0.0589156
0.058349
0.061089
0.0583978
0.0591308
0.0594503
0.0600183
0.0604334
0.0604261
0.0600253
0.0594819
0.0591675
0.0583906
0.0587822
0.0594787
0.0598141
0.0604192
0.0607899
0.0607935
0.0604406
0.0598304
0.059488
0.0587751
0.0587764
0.0594854
0.0598258
0.0604347
0.0607898
0.0607894
0.0604377
0.0598297
0.0594877
0.0587742
0.0583837
0.0591652
0.0594816
0.0600223
0.0604179
0.0604161
0.0600187
0.0594788
0.0591643
0.058385
0.0610666
0.0583409
0.0589138
0.059446
0.0598108
0.0598094
0.0594423
0.0589108
0.058341
0.0610745
0.0318135
0.0583352
0.0581836
0.0591122
0.059468
0.0594667
0.0591098
0.0581825
0.0583373
0.031811
0.00979405
0.0317903
0.0610215
0.0583632
0.058764
0.0587647
0.0583662
0.0610283
0.0317864
0.00979399
0.00848777
0.0214416
0.0622392
0.0603511
0.0597097
0.0596934
0.060298
0.0621598
0.0214384
0.00848882
0.0214331
0.0613509
0.0586001
0.0595922
0.0599596
0.05994
0.0595134
0.0584001
0.0612855
0.0214531
0.0622051
0.0584404
0.0593965
0.0599862
0.0603223
0.0603097
0.0599404
0.059371
0.0585604
0.0622264
0.0603376
0.0595392
0.059952
0.0604993
0.0609037
0.0608929
0.0604981
0.0599748
0.0595684
0.0603174
0.059713
0.0599552
0.0603162
0.060893
0.0612527
0.0612526
0.0609059
0.0603225
0.0599557
0.0596981
0.0597082
0.0599643
0.0603294
0.0609092
0.0612527
0.0612494
0.0609041
0.0603227
0.059956
0.0596972
0.0603235
0.0595803
0.0599871
0.0605047
0.0608892
0.0608849
0.0604941
0.0599738
0.0595672
0.0603131
0.0622208
0.0585686
0.0593816
0.0599482
0.0603095
0.0603058
0.0599379
0.0593681
0.0585552
0.0622113
0.0214529
0.0612918
0.0584085
0.059522
0.0599421
0.0599388
0.0595133
0.0583968
0.0612782
0.0214535
0.00848887
0.0214414
0.0621691
0.0603012
0.0596935
0.059692
0.0602972
0.0621817
0.0214415
0.00848886
0.00772171
0.0159087
0.0443375
0.0637341
0.0620866
0.0620692
0.063679
0.0443172
0.0159079
0.00772217
0.0159047
0.0637501
0.0589596
0.0599432
0.0603822
0.0603632
0.0598655
0.058758
0.0637126
0.0159152
0.0443054
0.0588005
0.0597916
0.0604674
0.060809
0.060796
0.0604201
0.0597639
0.0589154
0.0443725
0.0637259
0.059892
0.0604344
0.0609723
0.0613669
0.0613545
0.0609685
0.0604559
0.0599208
0.0637077
0.0620929
0.0603806
0.0608063
0.0613582
0.061707
0.0617058
0.0613688
0.0608113
0.0603816
0.0620796
0.0620868
0.0603912
0.0608204
0.061375
0.061708
0.0617042
0.0613693
0.0608137
0.0603839
0.0620804
0.0637053
0.0599371
0.0604727
0.0609798
0.0613551
0.0613513
0.0609703
0.0604609
0.0599263
0.0637072
0.0443576
0.0589318
0.0597804
0.0604332
0.0608013
0.0607985
0.0604252
0.0597697
0.0589216
0.0443552
0.0159142
0.0637129
0.0587718
0.0598784
0.0603711
0.0603689
0.0598728
0.0587638
0.0637213
0.0159143
0.00772221
0.0159087
0.044318
0.0636929
0.0620783
0.0620767
0.0636923
0.0443357
0.0159089
0.00772213
0.00726933
0.0127315
0.0296152
0.058135
0.0647888
0.0647763
0.0581115
0.0296043
0.0127314
0.00726937
0.0127298
0.052406
0.05976
0.0602874
0.0607685
0.0607529
0.0602196
0.0595727
0.0524454
0.0127347
0.0295962
0.0596048
0.0600808
0.0609103
0.0612741
0.061263
0.0608693
0.060063
0.0597285
0.029632
0.0581131
0.0602368
0.0608768
0.0614247
0.0618125
0.0618012
0.0614252
0.0609069
0.0602776
0.0581566
0.0647884
0.0607649
0.0612696
0.0618029
0.0621419
0.0621415
0.061817
0.0612814
0.0607758
0.0648034
0.0647854
0.0607766
0.0612842
0.0618197
0.0621429
0.0621404
0.0618177
0.0612834
0.0607775
0.0648022
0.058129
0.0602843
0.0609164
0.0614326
0.061801
0.0617987
0.0614276
0.0609114
0.0602817
0.0581393
0.0296265
0.0597352
0.0600721
0.0608776
0.0612675
0.0612663
0.0608744
0.0600683
0.0597338
0.0296225
0.0127343
0.0524269
0.0595767
0.0602266
0.0607599
0.0607594
0.0602259
0.0595763
0.0524376
0.0127341
0.00726951
0.0127319
0.0296045
0.058113
0.0647882
0.0647895
0.058127
0.0296113
0.0127319
0.00726938
0.00700763
0.0108287
0.0213818
0.0412081
0.056223
0.0562166
0.041195
0.0213752
0.010829
0.00700746
0.0108282
0.036789
0.0613899
0.0607738
0.0611861
0.0611724
0.0607116
0.0612125
0.0368106
0.0108302
0.0213716
0.0612367
0.0602532
0.0613023
0.061708
0.0616979
0.0612651
0.0602429
0.0613675
0.0213891
0.0411869
0.0607209
0.0612669
0.0618524
0.062236
0.0622249
0.0618558
0.061304
0.0607706
0.0412205
0.0562081
0.0611779
0.0617004
0.0622249
0.0625542
0.0625541
0.062241
0.0617168
0.0611959
0.0562371
0.0562151
0.0611903
0.0617145
0.0622406
0.0625541
0.0625521
0.0622405
0.0617173
0.0611959
0.0562318
0.0412112
0.0607684
0.0613054
0.0618573
0.0622213
0.0622198
0.0618546
0.061304
0.0607698
0.0412083
0.0213877
0.061362
0.0602429
0.0612662
0.0616976
0.0616971
0.061265
0.0602422
0.061365
0.0213847
0.0108302
0.0368072
0.0612061
0.0607111
0.0611741
0.061174
0.0607114
0.0612076
0.0368089
0.0108299
0.00700766
0.0108294
0.0213759
0.0411944
0.0562194
0.0562237
0.0412043
0.0213791
0.0108293
0.00700753
0.00686676
0.00966091
0.0165748
0.0291062
0.0401454
0.0401416
0.029098
0.0165712
0.00966132
0.00686651
0.00966103
0.0265986
0.0634133
0.0616062
0.0617904
0.0617781
0.0615474
0.0632493
0.0266085
0.00966155
0.0165695
0.0632621
0.0603315
0.0616422
0.0621162
0.0621062
0.0616061
0.0603249
0.0634045
0.0165783
0.0290936
0.0615505
0.0616044
0.0622663
0.0626517
0.0626402
0.0622701
0.0616449
0.0616059
0.0291109
0.0401349
0.0617782
0.0621052
0.0626391
0.0629624
0.062962
0.0626556
0.0621238
0.0618007
0.0401489
0.0401419
0.0617913
0.0621191
0.0626538
0.0629612
0.0629594
0.0626544
0.0621235
0.0618001
0.0401455
0.0291087
0.0615993
0.0616424
0.0622683
0.062634
0.0626327
0.0622666
0.0616425
0.0616032
0.0291048
0.0165779
0.0633891
0.0603204
0.0616027
0.0621018
0.0621015
0.0616021
0.0603206
0.0633953
0.016576
0.0096617
0.0266085
0.0632383
0.0615427
0.0617758
0.0617757
0.0615426
0.0632401
0.0266084
0.00966141
0.0068667
0.00966161
0.0165717
0.0290979
0.040141
0.040144
0.0291031
0.0165734
0.00966158
0.00686658
0.00680534
0.00893513
0.0136358
0.0218522
0.0290072
0.0290047
0.0218475
0.0136341
0.00893562
0.00680513
0.00893555
0.0203332
0.0610033
0.0629381
0.06276
0.0627484
0.0628802
0.0608608
0.020338
0.00893536
0.0136332
0.0608492
0.0603794
0.0619206
0.0624916
0.0624812
0.0618839
0.0603735
0.061016
0.0136376
0.0218453
0.0628764
0.0618805
0.0626657
0.0630614
0.063049
0.0626687
0.0619219
0.0629358
0.0218545
0.0290019
0.0627421
0.0624773
0.0630472
0.0633703
0.0633697
0.0630637
0.0624968
0.0627678
0.0290077
0.0290063
0.0627553
0.0624903
0.0630605
0.063368
0.0633665
0.063062
0.0624961
0.0627673
0.0290057
0.0218542
0.0629257
0.0619167
0.0626636
0.06304
0.0630392
0.0626634
0.0619184
0.0629333
0.0218509
0.0136377
0.0609991
0.0603658
0.0618758
0.062472
0.0624724
0.0618769
0.0603678
0.061001
0.0136363
0.00893556
0.0203387
0.0608505
0.0628696
0.0627404
0.0627406
0.0628703
0.0608531
0.0203379
0.00893528
0.00680525
0.00893584
0.0136345
0.0218474
0.0290037
0.0290054
0.0218502
0.0136354
0.00893578
0.00680518
0.00679765
0.00848402
0.0117882
0.0173728
0.0221476
0.0221461
0.0173701
0.0117876
0.00848454
0.00679748
0.00848458
0.0163692
0.0493839
0.0643304
0.0641982
0.0641874
0.0642767
0.049302
0.0163718
0.00848406
0.0117871
0.0492818
0.0605291
0.0621349
0.0628277
0.0628163
0.0620958
0.0605213
0.0494056
0.0117891
0.0173689
0.064266
0.062093
0.0630512