/*--------------------------------*- C++ -*----------------------------------*\
| =========                 |                                                 |
| \\      /  F ield         | OpenFOAM: The Open Source CFD Toolbox           |
|  \\    /   O peration     | Version:  2406                                  |
|   \\  /    A nd           | Website:  www.openfoam.com                      |
|    \\/     M anipulation  |                                                 |
\*---------------------------------------------------------------------------*/
FoamFile
{
    version     2.0;
    format      ascii;
    arch        "LSB;label=32;scalar=64";
    class       volScalarField;
    location    "400";
    object      turbulenceProperties:k;
}
// * * * * * * * * * * * * * * * * * * * * * * * * * * * * * * * * * * * * * //

dimensions      [0 2 -2 0 0 0 0];

internalField   nonuniform List<scalar> 
25000
(
3.73269e-05
3.56874e-05
3.28749e-05
3.22799e-05
3.19869e-05
3.19934e-05
3.22941e-05
3.28716e-05
3.59001e-05
3.7557e-05
3.57168e-05
3.49311e-05
3.1906e-05
3.03091e-05
2.95354e-05
2.95296e-05
3.02854e-05
3.18616e-05
3.48173e-05
3.5859e-05
3.29049e-05
3.19323e-05
2.95953e-05
2.81887e-05
2.75033e-05
2.74994e-05
2.8175e-05
2.95606e-05
3.18455e-05
3.28427e-05
3.22985e-05
3.0319e-05
2.81942e-05
2.68161e-05
2.61336e-05
2.61326e-05
2.68082e-05
2.81725e-05
3.02814e-05
3.22709e-05
3.19976e-05
2.9545e-05
2.75065e-05
2.61351e-05
2.54553e-05
2.54545e-05
2.61305e-05
2.74964e-05
2.95229e-05
3.1976e-05
3.19963e-05
2.95351e-05
2.75025e-05
2.61321e-05
2.54543e-05
2.5454e-05
2.61307e-05
2.74968e-05
2.95233e-05
3.1978e-05
3.22936e-05
3.02905e-05
2.81759e-05
2.6809e-05
2.61315e-05
2.6132e-05
2.68084e-05
2.81733e-05
3.02829e-05
3.22766e-05
3.28666e-05
3.18521e-05
2.95643e-05
2.81757e-05
2.74975e-05
2.74976e-05
2.81753e-05
2.95622e-05
3.18477e-05
3.2852e-05
3.58863e-05
3.48216e-05
3.18634e-05
3.02839e-05
2.95243e-05
2.95243e-05
3.02839e-05
3.1862e-05
3.48188e-05
3.58718e-05
3.75624e-05
3.58635e-05
3.2842e-05
3.22698e-05
3.1975e-05
3.1978e-05
3.2277e-05
3.28534e-05
3.58803e-05
3.75536e-05
5.20333e-05
5.02949e-05
4.68236e-05
4.60859e-05
4.57012e-05
4.57028e-05
4.60894e-05
4.68289e-05
5.01567e-05
5.16675e-05
5.02884e-05
4.7507e-05
4.55686e-05
4.47601e-05
4.4241e-05
4.42466e-05
4.47807e-05
4.5659e-05
4.75639e-05
5.01483e-05
4.67998e-05
4.56122e-05
4.39596e-05
4.32818e-05
4.29196e-05
4.29239e-05
4.33025e-05
4.39892e-05
4.56085e-05
4.68412e-05
4.6078e-05
4.47569e-05
4.32869e-05
4.24973e-05
4.2093e-05
4.20997e-05
4.25062e-05
4.32985e-05
4.47846e-05
4.61073e-05
4.57018e-05
4.42385e-05
4.29188e-05
4.2097e-05
4.17079e-05
4.17095e-05
4.20984e-05
4.29298e-05
4.42572e-05
4.57226e-05
4.57063e-05
4.42464e-05
4.29235e-05
4.2096e-05
4.17099e-05
4.1711e-05
4.20993e-05
4.29303e-05
4.42576e-05
4.57227e-05
4.60945e-05
4.47788e-05
4.3296e-05
4.25071e-05
4.21036e-05
4.21041e-05
4.25091e-05
4.33002e-05
4.47853e-05
4.61074e-05
4.68304e-05
4.56066e-05
4.39897e-05
4.33063e-05
4.2931e-05
4.29313e-05
4.33074e-05
4.3992e-05
4.56101e-05
4.68416e-05
5.01376e-05
4.75649e-05
4.56627e-05
4.47881e-05
4.42579e-05
4.4258e-05
4.47886e-05
4.56638e-05
4.75666e-05
5.01481e-05
5.1671e-05
5.01744e-05
4.68465e-05
4.61089e-05
4.57236e-05
4.57229e-05
4.61068e-05
4.68437e-05
5.01699e-05
5.16744e-05
4.76743e-05
4.44677e-05
4.24746e-05
4.13465e-05
4.08425e-05
4.08445e-05
4.13535e-05
4.24867e-05
4.44685e-05
4.75553e-05
4.44919e-05
4.15227e-05
4.07126e-05
4.01111e-05
3.9692e-05
3.96966e-05
4.01334e-05
4.08136e-05
4.15608e-05
4.44457e-05
4.24705e-05
4.07816e-05
3.96131e-05
3.89969e-05
3.86124e-05
3.86171e-05
3.90189e-05
3.96363e-05
4.07442e-05
4.24892e-05
4.13425e-05
4.01154e-05
3.90059e-05
3.83497e-05
3.79499e-05
3.79579e-05
3.83577e-05
3.90117e-05
4.01325e-05
4.13627e-05
4.08397e-05
3.96897e-05
3.8613e-05
3.79556e-05
3.76166e-05
3.76183e-05
3.79549e-05
3.86219e-05
3.97048e-05
4.0854e-05
4.08442e-05
3.96959e-05
3.86156e-05
3.79523e-05
3.76184e-05
3.76195e-05
3.79556e-05
3.86224e-05
3.97052e-05
4.0854e-05
4.13545e-05
4.01265e-05
3.90087e-05
3.83574e-05
3.79609e-05
3.79616e-05
3.83599e-05
3.90131e-05
4.01333e-05
4.13624e-05
4.24826e-05
4.07417e-05
3.96356e-05
3.90212e-05
3.86225e-05
3.86231e-05
3.90228e-05
3.96387e-05
4.07457e-05
4.2489e-05
4.44414e-05
4.15624e-05
4.08168e-05
4.0139e-05
3.97053e-05
3.97053e-05
4.01392e-05
4.08176e-05
4.15631e-05
4.44449e-05
4.75534e-05
4.44786e-05
4.24973e-05
4.13642e-05
4.08552e-05
4.08545e-05
4.13626e-05
4.24954e-05
4.44756e-05
4.75578e-05
3.61764e-05
3.21548e-05
3.13056e-05
3.01087e-05
2.96831e-05
2.96817e-05
3.01088e-05
3.13149e-05
3.21574e-05
3.60861e-05
3.21743e-05
2.97355e-05
2.93963e-05
2.87546e-05
2.84276e-05
2.84298e-05
2.87703e-05
2.94792e-05
2.97562e-05
3.21301e-05
3.13083e-05
2.94627e-05
2.84999e-05
2.77733e-05
2.73566e-05
2.73603e-05
2.7791e-05
2.85145e-05
2.94154e-05
3.13124e-05
3.01069e-05
2.87617e-05
2.77827e-05
2.71168e-05
2.67012e-05
2.67082e-05
2.71226e-05
2.77829e-05
2.87665e-05
3.01142e-05
2.96826e-05
2.84274e-05
2.73579e-05
2.67064e-05
2.63491e-05
2.63501e-05
2.6704e-05
2.73618e-05
2.84337e-05
2.96874e-05
2.96839e-05
2.84298e-05
2.73596e-05
2.67035e-05
2.63503e-05
2.63507e-05
2.67041e-05
2.73617e-05
2.84334e-05
2.96873e-05
3.01107e-05
2.87633e-05
2.77819e-05
2.71228e-05
2.67099e-05
2.67098e-05
2.71228e-05
2.77825e-05
2.87655e-05
3.01138e-05
3.131e-05
2.94129e-05
2.8514e-05
2.77919e-05
2.73626e-05
2.73624e-05
2.77914e-05
2.85139e-05
2.94138e-05
3.13118e-05
3.21314e-05
2.97561e-05
2.9481e-05
2.87731e-05
2.84334e-05
2.8433e-05
2.87717e-05
2.94798e-05
2.97555e-05
3.21316e-05
3.60926e-05
3.21635e-05
3.13231e-05
3.0116e-05
2.96874e-05
2.96859e-05
3.01122e-05
3.13179e-05
3.21581e-05
3.60887e-05
2.75968e-05
2.39707e-05
2.34113e-05
2.22811e-05
2.19054e-05
2.19003e-05
2.2267e-05
2.34046e-05
2.39711e-05
2.75355e-05
2.39868e-05
2.1982e-05
2.1515e-05
2.07205e-05
2.04162e-05
2.04161e-05
2.07278e-05
2.15749e-05
2.19834e-05
2.39455e-05
2.34144e-05
2.15716e-05
2.05728e-05
1.96567e-05
1.92032e-05
1.92063e-05
1.96711e-05
2.05826e-05
2.15198e-05
2.33996e-05
2.22745e-05
2.0725e-05
1.96635e-05
1.88604e-05
1.84058e-05
1.84113e-05
1.88654e-05
1.9663e-05
2.07218e-05
2.22693e-05
2.19017e-05
2.04137e-05
1.92029e-05
1.84092e-05
1.79767e-05
1.79773e-05
1.84066e-05
1.92048e-05
2.04162e-05
2.19014e-05
2.18991e-05
2.04137e-05
1.92039e-05
1.84066e-05
1.79771e-05
1.79769e-05
1.8406e-05
1.92041e-05
2.04152e-05
2.19004e-05
2.22651e-05
2.0718e-05
1.96615e-05
1.88643e-05
1.84107e-05
1.84103e-05
1.88635e-05
1.96609e-05
2.07193e-05
2.22672e-05
2.33943e-05
2.15147e-05
2.058e-05
1.96692e-05
1.92047e-05
1.92044e-05
1.96684e-05
2.05795e-05
2.15157e-05
2.33962e-05
2.3943e-05
2.19805e-05
2.15742e-05
2.07271e-05
2.04152e-05
2.04147e-05
2.07257e-05
2.15728e-05
2.19803e-05
2.39441e-05
2.75379e-05
2.39722e-05
2.34088e-05
2.227e-05
2.19008e-05
2.18996e-05
2.22665e-05
2.34038e-05
2.39681e-05
2.75355e-05
2.26814e-05
1.98861e-05
1.93529e-05
1.84028e-05
1.80762e-05
1.80707e-05
1.83815e-05
1.93236e-05
1.9863e-05
2.26041e-05
1.99053e-05
1.84375e-05
1.78011e-05
1.69885e-05
1.67012e-05
1.67016e-05
1.69947e-05
1.78481e-05
1.8421e-05
1.98435e-05
1.93552e-05
1.7853e-05
1.69046e-05
1.59688e-05
1.55463e-05
1.55489e-05
1.59814e-05
1.69119e-05
1.77972e-05
1.93215e-05
1.83957e-05
1.69928e-05
1.59747e-05
1.51445e-05
1.47143e-05
1.47183e-05
1.51475e-05
1.59737e-05
1.69883e-05
1.83849e-05
1.80722e-05
1.66991e-05
1.55463e-05
1.47177e-05
1.42805e-05
1.42803e-05
1.47137e-05
1.55471e-05
1.6702e-05
1.80725e-05
1.80681e-05
1.66989e-05
1.55469e-05
1.47148e-05
1.42805e-05
1.428e-05
1.47132e-05
1.55465e-05
1.67009e-05
1.80711e-05
1.83786e-05
1.69846e-05
1.59728e-05
1.51472e-05
1.47181e-05
1.47175e-05
1.5146e-05
1.59719e-05
1.69858e-05
1.83819e-05
1.93137e-05
1.77925e-05
1.69102e-05
1.59802e-05
1.55477e-05
1.55472e-05
1.5979e-05
1.69093e-05
1.77933e-05
1.93169e-05
1.98386e-05
1.84193e-05
1.78487e-05
1.69946e-05
1.67015e-05
1.6701e-05
1.69929e-05
1.78466e-05
1.84184e-05
1.98406e-05
2.26075e-05
1.98689e-05
1.93315e-05
1.83861e-05
1.80722e-05
1.8071e-05
1.83821e-05
1.93252e-05
1.9863e-05
2.26041e-05
2.03411e-05
1.84473e-05
1.79163e-05
1.70995e-05
1.68107e-05
1.68108e-05
1.7092e-05
1.78971e-05
1.84292e-05
2.02735e-05
1.84761e-05
1.74708e-05
1.6741e-05
1.59901e-05
1.57233e-05
1.5728e-05
1.60091e-05
1.68031e-05
1.74645e-05
1.84141e-05
1.79256e-05
1.67968e-05
1.59666e-05
1.51264e-05
1.47726e-05
1.47763e-05
1.51434e-05
1.59818e-05
1.67509e-05
1.78978e-05
1.70997e-05
1.59995e-05
1.51343e-05
1.43948e-05
1.40403e-05
1.40443e-05
1.43982e-05
1.51362e-05
1.60029e-05
1.70985e-05
1.68098e-05
1.57241e-05
1.47743e-05
1.40446e-05
1.36831e-05
1.36829e-05
1.40408e-05
1.47766e-05
1.57315e-05
1.68174e-05
1.68086e-05
1.57258e-05
1.47747e-05
1.40412e-05
1.36833e-05
1.36831e-05
1.40407e-05
1.47762e-05
1.57305e-05
1.68156e-05
1.70886e-05
1.59975e-05
1.51341e-05
1.43978e-05
1.40453e-05
1.40451e-05
1.43979e-05
1.51351e-05
1.60005e-05
1.70941e-05
1.78858e-05
1.67445e-05
1.59792e-05
1.51426e-05
1.4777e-05
1.47769e-05
1.51427e-05
1.598e-05
1.67471e-05
1.7891e-05
1.84046e-05
1.74602e-05
1.68022e-05
1.60088e-05
1.57302e-05
1.57303e-05
1.60088e-05
1.68025e-05
1.74619e-05
1.84083e-05
2.02768e-05
1.84371e-05
1.79061e-05
1.70977e-05
1.68159e-05
1.68152e-05
1.70951e-05
1.79017e-05
1.84323e-05
2.02726e-05
1.95703e-05
1.83484e-05
1.78078e-05
1.71084e-05
1.68474e-05
1.68519e-05
1.71146e-05
1.78085e-05
1.8345e-05
1.95249e-05
1.83827e-05
1.76539e-05
1.69161e-05
1.62537e-05
1.59978e-05
1.60037e-05
1.62784e-05
1.69913e-05
1.76564e-05
1.83294e-05
1.78253e-05
1.69785e-05
1.62512e-05
1.55051e-05
1.51991e-05
1.52024e-05
1.5522e-05
1.62673e-05
1.69337e-05
1.7806e-05
1.71142e-05
1.62673e-05
1.55156e-05
1.48527e-05
1.4549e-05
1.45529e-05
1.48542e-05
1.55144e-05
1.62704e-05
1.71189e-05
1.6847e-05
1.60001e-05
1.52026e-05
1.45543e-05
1.42544e-05
1.42543e-05
1.45498e-05
1.52035e-05
1.60067e-05
1.68559e-05
1.68489e-05
1.60021e-05
1.52014e-05
1.45499e-05
1.42548e-05
1.4255e-05
1.45502e-05
1.52037e-05
1.60063e-05
1.68542e-05
1.71105e-05
1.62667e-05
1.55127e-05
1.48544e-05
1.4555e-05
1.45554e-05
1.48554e-05
1.55148e-05
1.62697e-05
1.71145e-05
1.77941e-05
1.69296e-05
1.62661e-05
1.55225e-05
1.52047e-05
1.52052e-05
1.55236e-05
1.62682e-05
1.69326e-05
1.77991e-05
1.83169e-05
1.76537e-05
1.69911e-05
1.6279e-05
1.60066e-05
1.60073e-05
1.62803e-05
1.69931e-05
1.76562e-05
1.8322e-05
1.95211e-05
1.83507e-05
1.78144e-05
1.71177e-05
1.68548e-05
1.68552e-05
1.71178e-05
1.78136e-05
1.83491e-05
1.95208e-05
1.92387e-05
1.84204e-05
1.79154e-05
1.73357e-05
1.70994e-05
1.71048e-05
1.73496e-05
1.79345e-05
1.84381e-05
1.92102e-05
1.84605e-05
1.79142e-05
1.725e-05
1.66785e-05
1.64306e-05
1.64352e-05
1.67029e-05
1.73326e-05
1.79265e-05
1.84202e-05
1.79401e-05
1.73193e-05
1.66771e-05
1.60048e-05
1.57244e-05
1.57265e-05
1.60186e-05
1.66889e-05
1.72706e-05
1.79295e-05
1.73444e-05
1.6695e-05
1.60165e-05
1.54046e-05
1.51246e-05
1.51286e-05
1.54037e-05
1.60091e-05
1.66925e-05
1.73521e-05
1.70991e-05
1.64329e-05
1.57275e-05
1.51299e-05
1.48655e-05
1.48654e-05
1.51243e-05
1.57255e-05
1.64349e-05
1.71055e-05
1.7103e-05
1.64338e-05
1.57247e-05
1.51244e-05
1.48657e-05
1.48658e-05
1.51244e-05
1.57253e-05
1.64344e-05
1.7104e-05
1.73477e-05
1.66914e-05
1.60084e-05
1.5404e-05
1.51302e-05
1.51303e-05
1.54041e-05
1.60089e-05
1.6691e-05
1.73475e-05
1.79211e-05
1.72686e-05
1.66887e-05
1.6019e-05
1.57277e-05
1.57278e-05
1.60189e-05
1.66885e-05
1.72681e-05
1.79225e-05
1.84117e-05
1.7925e-05
1.73334e-05
1.67033e-05
1.64358e-05
1.6436e-05
1.67033e-05
1.7333e-05
1.79242e-05
1.84128e-05
1.92077e-05
1.84417e-05
1.79383e-05
1.73506e-05
1.71046e-05
1.7105e-05
1.73511e-05
1.79383e-05
1.84415e-05
1.9209e-05
1.88527e-05
1.82673e-05
1.78382e-05
1.73632e-05
1.71442e-05
1.71465e-05
1.73728e-05
1.78624e-05
1.82941e-05
1.88338e-05
1.83075e-05
1.79115e-05
1.73525e-05
1.68555e-05
1.66149e-05
1.66168e-05
1.68744e-05
1.74337e-05
1.79259e-05
1.82757e-05
1.78648e-05
1.74244e-05
1.68538e-05
1.62386e-05
1.5973e-05
1.59743e-05
1.62491e-05
1.68591e-05
1.73682e-05
1.78558e-05
1.73695e-05
1.68717e-05
1.62509e-05
1.56807e-05
1.54134e-05
1.54177e-05
1.56788e-05
1.62386e-05
1.68619e-05
1.73744e-05
1.71419e-05
1.66162e-05
1.59759e-05
1.54186e-05
1.51767e-05
1.51769e-05
1.5413e-05
1.59723e-05
1.66143e-05
1.71435e-05
1.7145e-05
1.66156e-05
1.59723e-05
1.54131e-05
1.5177e-05
1.51771e-05
1.5413e-05
1.59724e-05
1.66141e-05
1.71421e-05
1.7372e-05
1.6863e-05
1.62393e-05
1.56793e-05
1.54193e-05
1.54194e-05
1.5679e-05
1.62386e-05
1.68612e-05
1.73692e-05
1.78485e-05
1.73686e-05
1.68606e-05
1.62502e-05
1.59754e-05
1.59753e-05
1.62496e-05
1.68595e-05
1.73667e-05
1.78476e-05
1.82663e-05
1.7927e-05
1.74365e-05
1.6876e-05
1.66167e-05
1.66166e-05
1.68753e-05
1.74348e-05
1.79243e-05
1.82654e-05
1.8828e-05
1.82986e-05
1.78671e-05
1.73741e-05
1.71438e-05
1.71437e-05
1.73735e-05
1.7865e-05
1.82955e-05
1.88275e-05
1.83501e-05
1.78977e-05
1.75691e-05
1.71809e-05
1.69771e-05
1.69767e-05
1.71862e-05
1.75954e-05
1.79359e-05
1.83459e-05
1.79376e-05
1.76987e-05
1.724e-05
1.67984e-05
1.65665e-05
1.65667e-05
1.68132e-05
1.73181e-05
1.7714e-05
1.79168e-05
1.75957e-05
1.73133e-05
1.68012e-05
1.62304e-05
1.59751e-05
1.59766e-05
1.62401e-05
1.68025e-05
1.72513e-05
1.75887e-05
1.71844e-05
1.68134e-05
1.62418e-05
1.57067e-05
1.54481e-05
1.54537e-05
1.57065e-05
1.62286e-05
1.68e-05
1.71885e-05
1.69731e-05
1.65653e-05
1.59755e-05
1.5452e-05
1.52252e-05
1.52262e-05
1.54482e-05
1.59736e-05
1.65637e-05
1.69744e-05
1.69743e-05
1.65628e-05
1.59718e-05
1.5447e-05
1.52256e-05
1.52261e-05
1.54481e-05
1.59737e-05
1.65637e-05
1.69735e-05
1.71842e-05
1.67982e-05
1.62275e-05
1.57056e-05
1.54545e-05
1.54547e-05
1.57063e-05
1.62286e-05
1.67993e-05
1.71842e-05
1.75804e-05
1.72482e-05
1.68019e-05
1.62397e-05
1.59768e-05
1.5977e-05
1.62403e-05
1.68027e-05
1.72498e-05
1.75819e-05
1.79082e-05
1.77111e-05
1.73188e-05
1.68138e-05
1.6566e-05
1.65662e-05
1.68145e-05
1.73198e-05
1.7713e-05
1.79088e-05
1.83448e-05
1.79393e-05
1.76002e-05
1.71883e-05
1.69746e-05
1.69742e-05
1.71879e-05
1.7599e-05
1.79381e-05
1.83418e-05
1.78844e-05
1.74303e-05
1.71874e-05
1.68638e-05
1.66696e-05
1.66649e-05
1.6858e-05
1.72034e-05
1.74619e-05
1.78835e-05
1.74677e-05
1.73628e-05
1.69852e-05
1.65836e-05
1.6359e-05
1.63572e-05
1.65915e-05
1.70521e-05
1.73653e-05
1.74415e-05
1.72117e-05
1.70566e-05
1.65926e-05
1.60571e-05
1.58089e-05
1.58104e-05
1.60655e-05
1.65878e-05
1.69833e-05
1.71938e-05
1.68636e-05
1.65961e-05
1.60677e-05
1.55621e-05
1.53096e-05
1.53156e-05
1.55627e-05
1.60531e-05
1.65764e-05
1.68586e-05
1.66638e-05
1.63563e-05
1.58083e-05
1.53129e-05
1.50954e-05
1.50964e-05
1.53096e-05
1.58067e-05
1.6353e-05
1.66608e-05
1.66613e-05
1.63525e-05
1.5805e-05
1.53086e-05
1.50958e-05
1.50961e-05
1.53094e-05
1.5807e-05
1.63533e-05
1.66601e-05
1.68536e-05
1.65752e-05
1.60527e-05
1.5562e-05
1.53162e-05
1.53165e-05
1.55626e-05
1.60536e-05
1.65766e-05
1.68549e-05
1.71844e-05
1.69812e-05
1.65879e-05
1.60655e-05
1.5811e-05
1.58113e-05
1.60662e-05
1.65892e-05
1.69833e-05
1.71876e-05
1.74302e-05
1.73633e-05
1.70535e-05
1.65932e-05
1.63573e-05
1.63573e-05
1.65938e-05
1.70549e-05
1.73658e-05
1.74336e-05
1.78763e-05
1.74622e-05
1.72066e-05
1.68603e-05
1.66626e-05
1.66623e-05
1.68605e-05
1.72074e-05
1.74643e-05
1.7878e-05
1.75551e-05
1.6921e-05
1.67385e-05
1.64644e-05
1.62813e-05
1.62751e-05
1.64536e-05
1.67475e-05
1.69496e-05
1.75575e-05
1.69581e-05
1.69627e-05
1.66499e-05
1.6281e-05
1.60656e-05
1.60639e-05
1.62874e-05
1.67106e-05
1.69567e-05
1.69276e-05
1.67613e-05
1.67207e-05
1.63003e-05
1.57964e-05
1.55553e-05
1.55577e-05
1.58059e-05
1.62936e-05
1.66409e-05
1.67358e-05
1.6464e-05
1.62936e-05
1.58066e-05
1.53273e-05
1.50808e-05
1.50874e-05
1.53291e-05
1.57923e-05
1.62711e-05
1.64535e-05
1.62779e-05
1.60643e-05
1.55546e-05
1.5084e-05
1.48732e-05
1.48738e-05
1.50802e-05
1.55528e-05
1.60599e-05
1.62727e-05
1.62738e-05
1.60606e-05
1.55528e-05
1.50807e-05
1.48736e-05
1.48734e-05
1.50798e-05
1.55528e-05
1.606e-05
1.62725e-05
1.64508e-05
1.62717e-05
1.57938e-05
1.53298e-05
1.50882e-05
1.50877e-05
1.53284e-05
1.57923e-05
1.62708e-05
1.64512e-05
1.67302e-05
1.66408e-05
1.62955e-05
1.58071e-05
1.55589e-05
1.55584e-05
1.58057e-05
1.62937e-05
1.66399e-05
1.67314e-05
1.69217e-05
1.69567e-05
1.67138e-05
1.62907e-05
1.60656e-05
1.60648e-05
1.62889e-05
1.6712e-05
1.6956e-05
1.69224e-05
1.75541e-05
1.69509e-05
1.67521e-05
1.64582e-05
1.62758e-05
1.62748e-05
1.64569e-05
1.67516e-05
1.69525e-05
1.7556e-05
1.75097e-05
1.64628e-05
1.62819e-05
1.60391e-05
1.58651e-05
1.58581e-05
1.60238e-05
1.62816e-05
1.6479e-05
1.75088e-05
1.64956e-05
1.6544e-05
1.62814e-05
1.59405e-05
1.57345e-05
1.57334e-05
1.59466e-05
1.63361e-05
1.65267e-05
1.64558e-05
1.63016e-05
1.63497e-05
1.59707e-05
1.54958e-05
1.52617e-05
1.52649e-05
1.55067e-05
1.59633e-05
1.62649e-05
1.62665e-05
1.60376e-05
1.59525e-05
1.55059e-05
1.50512e-05
1.48107e-05
1.48172e-05
1.50536e-05
1.54926e-05
1.59285e-05
1.60213e-05
1.58625e-05
1.57339e-05
1.52619e-05
1.48143e-05
1.46087e-05
1.46088e-05
1.48095e-05
1.52597e-05
1.57294e-05
1.58556e-05
1.5857e-05
1.57306e-05
1.52609e-05
1.48113e-05
1.4609e-05
1.46081e-05
1.48091e-05
1.52598e-05
1.57298e-05
1.58556e-05
1.60193e-05
1.59301e-05
1.54952e-05
1.50551e-05
1.4818e-05
1.48172e-05
1.50527e-05
1.54927e-05
1.59289e-05
1.60196e-05
1.6262e-05
1.62663e-05
1.59657e-05
1.55082e-05
1.52664e-05
1.52656e-05
1.55062e-05
1.59635e-05
1.62648e-05
1.62624e-05
1.64494e-05
1.65284e-05
1.63395e-05
1.595e-05
1.57359e-05
1.57347e-05
1.59476e-05
1.63369e-05
1.65266e-05
1.64498e-05
1.75035e-05
1.64816e-05
1.62862e-05
1.60281e-05
1.58591e-05
1.58579e-05
1.60258e-05
1.6284e-05
1.64807e-05
1.75047e-05
1.76891e-05
1.60988e-05
1.58436e-05
1.56156e-05
1.54521e-05
1.54473e-05
1.56042e-05
1.58432e-05
1.61126e-05
1.76868e-05
1.61298e-05
1.61323e-05
1.59097e-05
1.55965e-05
1.54025e-05
1.54039e-05
1.56081e-05
1.59668e-05
1.6114e-05
1.60876e-05
1.58608e-05
1.59769e-05
1.56399e-05
1.51939e-05
1.49683e-05
1.49728e-05
1.52083e-05
1.56364e-05
1.58948e-05
1.58253e-05
1.5614e-05
1.56092e-05
1.52041e-05
1.47733e-05
1.45395e-05
1.45461e-05
1.47766e-05
1.51935e-05
1.55886e-05
1.56e-05
1.54509e-05
1.54029e-05
1.49686e-05
1.45432e-05
1.43429e-05
1.43425e-05
1.45378e-05
1.49673e-05
1.5401e-05
1.54475e-05
1.54466e-05
1.54008e-05
1.49686e-05
1.45404e-05
1.4343e-05
1.43418e-05
1.45375e-05
1.49675e-05
1.54017e-05
1.54482e-05
1.55985e-05
1.55896e-05
1.51959e-05
1.47784e-05
1.4547e-05
1.4546e-05
1.4776e-05
1.51939e-05
1.55897e-05
1.56005e-05
1.58231e-05
1.58958e-05
1.5638e-05
1.52093e-05
1.49744e-05
1.49736e-05
1.52077e-05
1.56364e-05
1.58955e-05
1.58241e-05
1.6085e-05
1.61154e-05
1.59688e-05
1.56103e-05
1.54073e-05
1.54064e-05
1.56085e-05
1.59671e-05
1.61147e-05
1.6085e-05
1.76862e-05
1.61166e-05
1.58478e-05
1.56082e-05
1.54508e-05
1.54498e-05
1.5606e-05
1.58454e-05
1.61155e-05
1.76858e-05
1.76764e-05
1.59053e-05
1.54583e-05
1.52166e-05
1.50593e-05
1.50575e-05
1.52116e-05
1.54617e-05
1.59165e-05
1.76691e-05
1.59341e-05
1.57407e-05
1.55431e-05
1.52572e-05
1.50761e-05
1.50802e-05
1.52755e-05
1.56064e-05
1.57259e-05
1.58895e-05
1.54738e-05
1.56092e-05
1.53137e-05
1.48963e-05
1.46795e-05
1.4685e-05
1.4914e-05
1.53156e-05
1.55331e-05
1.54394e-05
1.52157e-05
1.52713e-05
1.49075e-05
1.45001e-05
1.42727e-05
1.42787e-05
1.45032e-05
1.48992e-05
1.52546e-05
1.52043e-05
1.50592e-05
1.50782e-05
1.46816e-05
1.42772e-05
1.40814e-05
1.40804e-05
1.42705e-05
1.46801e-05
1.50783e-05
1.50583e-05
1.50566e-05
1.50776e-05
1.46819e-05
1.4274e-05
1.40812e-05
1.40798e-05
1.42706e-05
1.46807e-05
1.50792e-05
1.50593e-05
1.52039e-05
1.52558e-05
1.49015e-05
1.45052e-05
1.42798e-05
1.4279e-05
1.45033e-05
1.49002e-05
1.52566e-05
1.5206e-05
1.54389e-05
1.55346e-05
1.53163e-05
1.49145e-05
1.46869e-05
1.46865e-05
1.49139e-05
1.53161e-05
1.5535e-05
1.54398e-05
1.58876e-05
1.57276e-05
1.56066e-05
1.52762e-05
1.5084e-05
1.50836e-05
1.52755e-05
1.56059e-05
1.5727e-05
1.58878e-05
1.7668e-05
1.59203e-05
1.54636e-05
1.52128e-05
1.50609e-05
1.50604e-05
1.52116e-05
1.54617e-05
1.59185e-05
1.76674e-05
1.60086e-05
1.59021e-05
1.51487e-05
1.48562e-05
1.46987e-05
1.47017e-05
1.48631e-05
1.51644e-05
1.59234e-05
1.60097e-05
1.59303e-05
1.53895e-05
1.51944e-05
1.4934e-05
1.47664e-05
1.47733e-05
1.49597e-05
1.52662e-05
1.53834e-05
1.58929e-05
1.51645e-05
1.5261e-05
1.50053e-05
1.4616e-05
1.44082e-05
1.44141e-05
1.46355e-05
1.50117e-05
1.51925e-05
1.5138e-05
1.4858e-05
1.49509e-05
1.46283e-05
1.42434e-05
1.40224e-05
1.40274e-05
1.4245e-05
1.46202e-05
1.49375e-05
1.48529e-05
1.47012e-05
1.47709e-05
1.44117e-05
1.40274e-05
1.38362e-05
1.38342e-05
1.40187e-05
1.44086e-05
1.47715e-05
1.47036e-05
1.47019e-05
1.47711e-05
1.44115e-05
1.40232e-05
1.38353e-05
1.38336e-05
1.40188e-05
1.44091e-05
1.47723e-05
1.47049e-05
1.48551e-05
1.49389e-05
1.46223e-05
1.42469e-05
1.40281e-05
1.40273e-05
1.42451e-05
1.4621e-05
1.49392e-05
1.48559e-05
1.51415e-05
1.51939e-05
1.50114e-05
1.4635e-05
1.44152e-05
1.44149e-05
1.46346e-05
1.50111e-05
1.51937e-05
1.51407e-05
1.58958e-05
1.53846e-05
1.52643e-05
1.49582e-05
1.47764e-05
1.47762e-05
1.49577e-05
1.52634e-05
1.53832e-05
1.5894e-05
1.60132e-05
1.59263e-05
1.51636e-05
1.48614e-05
1.47052e-05
1.47049e-05
1.48603e-05
1.51614e-05
1.59238e-05
1.60109e-05
1.15874e-05
1.6036e-05
1.49574e-05
1.4559e-05
1.43844e-05
1.43902e-05
1.45727e-05
1.49804e-05
1.60611e-05
1.15788e-05
1.60624e-05
1.50991e-05
1.48671e-05
1.46259e-05
1.44698e-05
1.44779e-05
1.46553e-05
1.49436e-05
1.50985e-05
1.6028e-05
1.49727e-05
1.49331e-05
1.47102e-05
1.43469e-05
1.41474e-05
1.41529e-05
1.43662e-05
1.47185e-05
1.48695e-05
1.49506e-05
1.45618e-05
1.46442e-05
1.43603e-05
1.39968e-05
1.37815e-05
1.37852e-05
1.39959e-05
1.43509e-05
1.46319e-05
1.456e-05
1.43874e-05
1.44753e-05
1.41522e-05
1.37871e-05
1.36003e-05
1.35976e-05
1.37765e-05
1.41472e-05
1.44754e-05
1.43909e-05
1.43899e-05
1.44755e-05
1.41507e-05
1.37816e-05
1.35988e-05
1.35971e-05
1.37769e-05
1.41477e-05
1.44761e-05
1.4392e-05
1.45634e-05
1.46332e-05
1.43524e-05
1.39974e-05
1.37855e-05
1.37851e-05
1.39964e-05
1.43518e-05
1.46336e-05
1.4563e-05
1.49555e-05
1.48711e-05
1.47171e-05
1.43646e-05
1.41531e-05
1.41532e-05
1.43653e-05
1.47178e-05
1.48709e-05
1.49536e-05
1.60317e-05
1.50997e-05
1.49401e-05
1.46519e-05
1.44797e-05
1.44798e-05
1.46522e-05
1.49398e-05
1.50978e-05
1.60292e-05
1.15815e-05
1.60632e-05
1.49772e-05
1.45683e-05
1.43919e-05
1.43918e-05
1.45673e-05
1.49745e-05
1.60591e-05
1.15772e-05
2.52385e-05
1.59305e-05
1.48907e-05
1.43384e-05
1.4128e-05
1.41366e-05
1.436e-05
1.4924e-05
1.59667e-05
2.51822e-05
1.59565e-05
1.48852e-05
1.45663e-05
1.43344e-05
1.41887e-05
1.41981e-05
1.43678e-05
1.46488e-05
1.48938e-05
1.59324e-05
1.49069e-05
1.4633e-05
1.44308e-05
1.40917e-05
1.39009e-05
1.39063e-05
1.41114e-05
1.44414e-05
1.45756e-05
1.48929e-05
1.4343e-05
1.43546e-05
1.41058e-05
1.3763e-05
1.3554e-05
1.3557e-05
1.37609e-05
1.4096e-05
1.43443e-05
1.43468e-05
1.41316e-05
1.41946e-05
1.39059e-05
1.35596e-05
1.3378e-05
1.3375e-05
1.35485e-05
1.39003e-05
1.41952e-05
1.41378e-05
1.41356e-05
1.41943e-05
1.39031e-05
1.3553e-05
1.33761e-05
1.33748e-05
1.35491e-05
1.39007e-05
1.41956e-05
1.41387e-05
1.43498e-05
1.43438e-05
1.40958e-05
1.37614e-05
1.35571e-05
1.35572e-05
1.37618e-05
1.40967e-05
1.43455e-05
1.435e-05
1.48987e-05
1.45751e-05
1.4438e-05
1.41083e-05
1.39056e-05
1.39062e-05
1.41104e-05
1.44404e-05
1.45767e-05
1.48973e-05
1.59387e-05
1.48934e-05
1.46434e-05
1.43627e-05
1.41988e-05
1.41995e-05
1.43645e-05
1.46449e-05
1.48934e-05
1.59363e-05
2.51864e-05
1.59682e-05
1.49198e-05
1.43544e-05
1.41383e-05
1.41385e-05
1.43543e-05
1.49178e-05
1.59647e-05
2.51818e-05
7.92169e-05
1.47377e-05
1.49161e-05
1.42144e-05
1.3947e-05
1.3956e-05
1.42379e-05
1.49529e-05
1.4774e-05
7.91034e-05
1.47609e-05
1.4756e-05
1.4302e-05
1.40611e-05
1.39211e-05
1.39303e-05
1.40943e-05
1.43849e-05
1.47667e-05
1.47419e-05
1.49341e-05
1.43687e-05
1.41644e-05
1.38463e-05
1.36631e-05
1.36679e-05
1.38645e-05
1.41741e-05
1.43123e-05
1.49211e-05
1.42207e-05
1.40822e-05
1.38609e-05
1.35375e-05
1.33343e-05
1.33367e-05
1.35337e-05
1.38491e-05
1.40701e-05
1.42236e-05
1.395e-05
1.39269e-05
1.36684e-05
1.33401e-05
1.31636e-05
1.31606e-05
1.33285e-05
1.36614e-05
1.39254e-05
1.39546e-05
1.39532e-05
1.39253e-05
1.3664e-05
1.33325e-05
1.31616e-05
1.31606e-05
1.33292e-05
1.36616e-05
1.39254e-05
1.3955e-05
1.42259e-05
1.40689e-05
1.38477e-05
1.35333e-05
1.33365e-05
1.33372e-05
1.35347e-05
1.38493e-05
1.40706e-05
1.42258e-05
1.49257e-05
1.43108e-05
1.41694e-05
1.38603e-05
1.36663e-05
1.36674e-05
1.38634e-05
1.41729e-05
1.4313e-05
1.49249e-05
1.47476e-05
1.47653e-05
1.43782e-05
1.40878e-05
1.39292e-05
1.39303e-05
1.40906e-05
1.43809e-05
1.47663e-05
1.4746e-05
7.91025e-05
1.47741e-05
1.49466e-05
1.42303e-05
1.39551e-05
1.39559e-05
1.42317e-05
1.49468e-05
1.47712e-05
7.91019e-05
0.000186422
1.19801e-05
1.48424e-05
1.41663e-05
1.38403e-05
1.38489e-05
1.41893e-05
1.48791e-05
1.20121e-05
0.000186225
1.19985e-05
1.46622e-05
1.40866e-05
1.38112e-05
1.36716e-05
1.36798e-05
1.3842e-05
1.41664e-05
1.46719e-05
1.19844e-05
1.48619e-05
1.41541e-05
1.39158e-05
1.36147e-05
1.34386e-05
1.34423e-05
1.363e-05
1.39218e-05
1.40951e-05
1.48492e-05
1.4175e-05
1.38337e-05
1.36296e-05
1.33242e-05
1.3127e-05
1.31287e-05
1.33183e-05
1.36142e-05
1.38175e-05
1.41754e-05
1.38445e-05
1.3678e-05
1.34441e-05
1.3133e-05
1.29619e-05
1.29586e-05
1.31203e-05
1.34342e-05
1.36723e-05
1.38458e-05
1.38472e-05
1.36753e-05
1.34387e-05
1.3125e-05
1.296e-05
1.29589e-05
1.31209e-05
1.3434e-05
1.36718e-05
1.38457e-05
1.41797e-05
1.38184e-05
1.3614e-05
1.33189e-05
1.31292e-05
1.31295e-05
1.3319e-05
1.36135e-05
1.38166e-05
1.41767e-05
1.4856e-05
1.40958e-05
1.39189e-05
1.3627e-05
1.34408e-05
1.34414e-05
1.36284e-05
1.39197e-05
1.40945e-05
1.48522e-05
1.19983e-05
1.46734e-05
1.41626e-05
1.38371e-05
1.36782e-05
1.36787e-05
1.3838e-05
1.41624e-05
1.46709e-05
1.19904e-05
0.000186224
1.20159e-05
1.48752e-05
1.41836e-05
1.38479e-05
1.38485e-05
1.41841e-05
1.48747e-05
1.20096e-05
0.000186225
0.000364666
1.73268e-05
1.42153e-05
1.4104e-05
1.37734e-05
1.37803e-05
1.4123e-05
1.4246e-05
1.73412e-05
0.000364377
1.73485e-05
1.44429e-05
1.39217e-05
1.35821e-05
1.34356e-05
1.34429e-05
1.3611e-05
1.39993e-05
1.44531e-05
1.73013e-05
1.42325e-05
1.39888e-05
1.36775e-05
1.33877e-05
1.32182e-05
1.32216e-05
1.34018e-05
1.36817e-05
1.39295e-05
1.42218e-05
1.4113e-05
1.36052e-05
1.34033e-05
1.31147e-05
1.29239e-05
1.29255e-05
1.31086e-05
1.33867e-05
1.35872e-05
1.41117e-05
1.37774e-05
1.34424e-05
1.32249e-05
1.29306e-05
1.27651e-05
1.27622e-05
1.29182e-05
1.32143e-05
1.34353e-05
1.3777e-05
1.37796e-05
1.34397e-05
1.32195e-05
1.29232e-05
1.27642e-05
1.27632e-05
1.29191e-05
1.32142e-05
1.34348e-05
1.37766e-05
1.4117e-05
1.35906e-05
1.33887e-05
1.31109e-05
1.29281e-05
1.29281e-05
1.31102e-05
1.33866e-05
1.35868e-05
1.41123e-05
1.42313e-05
1.39344e-05
1.36827e-05
1.34021e-05
1.32225e-05
1.32226e-05
1.34019e-05
1.36811e-05
1.393e-05
1.42237e-05
1.73051e-05
1.4461e-05
1.4001e-05
1.36102e-05
1.34435e-05
1.34434e-05
1.36093e-05
1.39979e-05
1.44542e-05
1.73068e-05
0.000364383
1.73357e-05
1.42508e-05
1.4123e-05
1.37814e-05
1.37811e-05
1.41209e-05
1.4246e-05
1.73397e-05
0.000364384
0.000623024
4.63216e-05
1.25063e-05
1.37905e-05
1.36349e-05
1.36422e-05
1.38127e-05
1.25424e-05
4.63527e-05
0.000622661
4.63767e-05
1.37831e-05
1.38036e-05
1.33819e-05
1.32212e-05
1.32291e-05
1.34136e-05
1.38862e-05
1.38034e-05
4.62595e-05
1.25205e-05
1.38716e-05
1.34573e-05
1.31704e-05
1.30076e-05
1.30119e-05
1.3187e-05
1.34649e-05
1.38175e-05
1.25242e-05
1.37998e-05
1.34054e-05
1.31857e-05
1.29124e-05
1.27291e-05
1.27321e-05
1.29094e-05
1.31725e-05
1.33909e-05
1.38043e-05
1.36377e-05
1.32265e-05
1.30128e-05
1.2735e-05
1.25767e-05
1.25752e-05
1.27261e-05
1.3006e-05
1.32229e-05
1.36414e-05
1.36407e-05
1.32239e-05
1.30079e-05
1.27286e-05
1.25767e-05
1.25769e-05
1.27274e-05
1.30063e-05
1.3223e-05
1.36418e-05
1.38075e-05
1.33919e-05
1.31726e-05
1.29107e-05
1.27356e-05
1.27363e-05
1.29122e-05
1.31739e-05
1.33924e-05
1.38069e-05
1.25334e-05
1.38214e-05
1.34657e-05
1.31876e-05
1.30142e-05
1.30147e-05
1.31892e-05
1.34671e-05
1.38214e-05
1.25301e-05
4.62506e-05
1.38108e-05
1.38885e-05
1.34139e-05
1.32311e-05
1.32317e-05
1.3415e-05
1.3889e-05
1.38097e-05
4.62577e-05
0.000622669
4.63255e-05
1.25504e-05
1.38162e-05
1.36461e-05
1.36458e-05
1.38148e-05
1.25476e-05
4.63367e-05
0.000622672
0.000957595
0.000105021
1.20061e-05
1.28675e-05
1.31825e-05
1.31895e-05
1.28894e-05
1.20363e-05
0.000105084
0.000957242
0.000105139
1.24301e-05
1.36997e-05
1.32121e-05
1.3027e-05
1.30352e-05
1.32448e-05
1.37861e-05
1.24567e-05
0.000104903
1.20188e-05
1.37671e-05
1.32584e-05
1.2959e-05
1.27998e-05
1.2805e-05
1.2978e-05
1.32698e-05
1.37184e-05
1.20111e-05
1.28724e-05
1.32334e-05
1.2973e-05
1.2711e-05
1.2535e-05
1.25394e-05
1.27116e-05
1.2964e-05
1.32227e-05
1.28819e-05
1.31808e-05
1.30286e-05
1.28022e-05
1.25393e-05
1.23879e-05
1.23879e-05
1.25342e-05
1.27998e-05
1.30289e-05
1.31877e-05
1.31831e-05
1.30251e-05
1.27968e-05
1.25328e-05
1.23878e-05
1.23892e-05
1.25349e-05
1.27997e-05
1.30288e-05
1.3188e-05
1.28793e-05
1.32173e-05
1.29586e-05
1.27087e-05
1.25409e-05
1.25426e-05
1.27132e-05
1.29644e-05
1.32232e-05
1.28836e-05
1.20132e-05
1.37145e-05
1.32651e-05
1.29746e-05
1.2805e-05
1.28065e-05
1.2979e-05
1.32711e-05
1.37208e-05
1.20169e-05
0.000104906
1.24541e-05
1.37821e-05
1.3241e-05
1.30341e-05
1.30356e-05
1.32449e-05
1.37876e-05
1.24596e-05
0.000104901
0.000957231
0.000105054
1.20327e-05
1.2888e-05
1.31893e-05
1.319e-05
1.28897e-05
1.20278e-05
0.000105054
0.000957255
0.00135332
0.00020338
2.36764e-05
1.14805e-05
1.21429e-05
1.21495e-05
1.15e-05
2.36995e-05
0.000203489
0.00135305
0.000203574
1.14579e-05
1.35219e-05
1.30659e-05
1.28556e-05
1.28632e-05
1.30975e-05
1.36076e-05
1.14715e-05
0.000203201
2.37122e-05
1.35879e-05
1.30937e-05
1.2761e-05
1.26013e-05
1.26065e-05
1.27801e-05
1.31059e-05
1.35423e-05
2.3639e-05
1.1483e-05
1.30859e-05
1.2774e-05
1.25181e-05
1.23486e-05
1.23534e-05
1.25197e-05
1.27659e-05
1.30757e-05
1.149e-05
1.21402e-05
1.28558e-05
1.26022e-05
1.23519e-05
1.22069e-05
1.22073e-05