/*--------------------------------*- C++ -*----------------------------------*\
| =========                 |                                                 |
| \\      /  F ield         | OpenFOAM: The Open Source CFD Toolbox           |
|  \\    /   O peration     | Version:  2406                                  |
|   \\  /    A nd           | Website:  www.openfoam.com                      |
|    \\/     M anipulation  |                                                 |
\*---------------------------------------------------------------------------*/
FoamFile
{
    version     2.0;
    format      ascii;
    arch        "LSB;label=32;scalar=64";
    class       volVectorField;
    location    "400";
    object      U;
}
// * * * * * * * * * * * * * * * * * * * * * * * * * * * * * * * * * * * * * //

dimensions      [0 1 -1 0 0 0 0];

internalField   nonuniform List<vector> 
25000
(
(0.00535323 0.00536153 1.00326)
(0.00375684 0.0048555 1.00302)
(0.00263811 0.0046202 1.00284)
(0.00157107 0.00448423 1.00271)
(0.0005314 0.00441311 1.00265)
(-0.000497175 0.00441088 1.00265)
(-0.00153357 0.00447611 1.00271)
(-0.00259245 0.00460323 1.00283)
(-0.00369373 0.00482172 1.00301)
(-0.00532147 0.00532473 1.00325)
(0.00484086 0.0037611 1.00302)
(0.00357084 0.00357897 1.00274)
(0.0025039 0.00344937 1.00255)
(0.00149189 0.00336468 1.00242)
(0.000503304 0.00332113 1.00236)
(-0.000475283 0.00331823 1.00236)
(-0.00146295 0.00335496 1.00242)
(-0.00247309 0.00343025 1.00255)
(-0.00353799 0.00354465 1.00274)
(-0.00481733 0.00370066 1.00301)
(0.00461483 0.00263603 1.00284)
(0.00344276 0.00250657 1.00255)
(0.00240859 0.00241243 1.00235)
(0.00143155 0.00234639 1.00222)
(0.000481289 0.00231218 1.00216)
(-0.000459238 0.00230946 1.00216)
(-0.00140984 0.00233791 1.00222)
(-0.00238761 0.00239689 1.00235)
(-0.00342344 0.00248255 1.00255)
(-0.00459845 0.00260251 1.00283)
(0.00448164 0.0015674 1.00271)
(0.00336067 0.00149161 1.00242)
(0.00234319 0.00143282 1.00222)
(0.00138775 0.00138945 1.00209)
(0.000464762 0.00136621 1.00203)
(-0.000447611 0.00136401 1.00203)
(-0.00137149 0.00138272 1.00209)
(-0.00232837 0.00142128 1.00222)
(-0.0033475 0.0014751 1.00242)
(-0.00447066 0.00154667 1.00271)
(0.00441287 0.000527849 1.00265)
(0.00331878 0.00050165 1.00236)
(0.00230986 0.000480993 1.00216)
(0.00136481 0.000465107 1.00203)
(0.000455568 0.000456062 1.00196)
(-0.000442183 0.000454355 1.00196)
(-0.00135234 0.000460076 1.00202)
(-0.00229889 0.000472697 1.00215)
(-0.00330945 0.000490362 1.00236)
(-0.00440433 0.000513948 1.00265)
(0.00441097 -0.000500378 1.00265)
(0.00331727 -0.000477368 1.00236)
(0.00230811 -0.000460283 1.00216)
(0.00136303 -0.000448023 1.00203)
(0.000453999 -0.000442334 1.00196)
(-0.000443469 -0.00044354 1.00196)
(-0.00135329 -0.000451643 1.00202)
(-0.00229963 -0.000466077 1.00215)
(-0.00330997 -0.000485073 1.00236)
(-0.00440469 -0.000509634 1.00265)
(0.00447699 -0.00153631 1.00271)
(0.00335468 -0.00146497 1.00242)
(0.00233726 -0.00141119 1.00222)
(0.00138224 -0.00137231 1.00209)
(0.000459935 -0.00135284 1.00202)
(-0.000451492 -0.00135366 1.00202)
(-0.00137448 -0.00137477 1.00209)
(-0.00233049 -0.00141506 1.00222)
(-0.00334898 -0.00147013 1.00242)
(-0.00447175 -0.0015426 1.00271)
(0.0046042 -0.0025948 1.00283)
(0.00343064 -0.00247512 1.00255)
(0.00239678 -0.00238909 1.00235)
(0.0014212 -0.00232952 1.00222)
(0.000472829 -0.0022997 1.00215)
(-0.000465812 -0.00230027 1.00215)
(-0.00141471 -0.00233094 1.00222)
(-0.00239112 -0.00239151 1.00235)
(-0.00342584 -0.00247827 1.00255)
(-0.00460014 -0.00259893 1.00283)
(0.00482289 -0.00369574 1.00301)
(0.00354522 -0.00354005 1.00274)
(0.00248283 -0.00342527 1.00255)
(0.00147538 -0.00334898 1.00242)
(0.000490783 -0.00331065 1.00236)
(-0.000484568 -0.00331085 1.00236)
(-0.00146963 -0.00334961 1.00242)
(-0.00247785 -0.00342627 1.00255)
(-0.00354117 -0.0035415 1.00274)
(-0.00481953 -0.00369801 1.00301)
(0.00532535 -0.00532316 1.00325)
(0.00370127 -0.00481965 1.00301)
(0.00260311 -0.00460051 1.00283)
(0.00154734 -0.00447247 1.00271)
(0.000514738 -0.00440576 1.00265)
(-0.000508802 -0.0044058 1.00265)
(-0.00154182 -0.00447248 1.00271)
(-0.00259827 -0.00460053 1.00283)
(-0.00369757 -0.00481965 1.00301)
(-0.00532336 -0.00532344 1.00325)
(0.00708446 0.00707621 1.019)
(0.00492624 0.00632598 1.01808)
(0.00345253 0.00636877 1.01739)
(0.00205312 0.00634712 1.01692)
(0.0006746 0.00632814 1.01669)
(-0.000700908 0.00632981 1.01669)
(-0.00208348 0.00635285 1.01692)
(-0.00349163 0.00638189 1.01739)
(-0.00498016 0.00635301 1.01808)
(-0.00710929 0.00710585 1.019)
(0.00633534 0.00492282 1.01808)
(0.00483578 0.00482968 1.01704)
(0.00352361 0.00486318 1.01628)
(0.0021177 0.00490534 1.01578)
(0.000698754 0.00492866 1.01553)
(-0.000720276 0.00493097 1.01553)
(-0.00214097 0.00491325 1.01578)
(-0.00354997 0.00487976 1.01628)
(-0.00486534 0.00486076 1.01704)
(-0.0063561 0.00497541 1.01808)
(0.00637297 0.0034548 1.01739)
(0.00486776 0.00352224 1.01628)
(0.00353174 0.00352958 1.01548)
(0.0021309 0.0035356 1.01495)
(0.000705769 0.00354141 1.01468)
(-0.000722184 0.00354359 1.01468)
(-0.0021476 0.00354264 1.01495)
(-0.00354876 0.00354291 1.01548)
(-0.00488426 0.00354387 1.01628)
(-0.00638518 0.00348527 1.01739)
(0.00634904 0.00205632 1.01692)
(0.004908 0.00211856 1.01578)
(0.00353733 0.00213059 1.01495)
(0.00213211 0.00213159 1.0144)
(0.000707799 0.00213326 1.01413)
(-0.000720045 0.00213503 1.01413)
(-0.00214408 0.00213708 1.0144)
(-0.00354858 0.0021403 1.01495)
(-0.00491795 0.00213298 1.01578)
(-0.00635623 0.00207496 1.01692)
(0.00632893 0.000677338 1.01669)
(0.00493003 0.000700332 1.01553)
(0.00354246 0.000706466 1.01468)
(0.00213362 0.000708102 1.01413)
(0.000709398 0.00070965 1.01385)
(-0.00071854 0.00071099 1.01385)
(-0.00214228 0.000712147 1.01413)
(-0.00355024 0.000713301 1.01468)
(-0.00493646 0.00070996 1.01553)
(-0.00633355 0.000689327 1.01669)
(0.00633022 -0.000698692 1.01669)
(0.00493163 -0.00071863 1.01553)
(0.00354412 -0.000721107 1.01468)
(0.00213513 -0.0007193 1.01413)
(0.000710688 -0.000717938 1.01385)
(-0.000717552 -0.000716969 1.01385)
(-0.00214157 -0.000716447 1.01413)
(-0.0035497 -0.0007164 1.01468)
(-0.00493607 -0.000712194 1.01553)
(-0.00633324 -0.000690872 1.01669)
(0.00635316 -0.00208168 1.01692)
(0.00491348 -0.00213943 1.01578)
(0.0035428 -0.00214647 1.01495)
(0.00213697 -0.00214319 1.0144)
(0.000711736 -0.00214155 1.01413)
(-0.00071704 -0.00214089 1.01413)
(-0.00214189 -0.00214123 1.0144)
(-0.00354704 -0.00214328 1.01495)
(-0.00491681 -0.00213513 1.01578)
(-0.00635532 -0.00207647 1.01692)
(0.00638203 -0.00349007 1.01739)
(0.00487975 -0.00354861 1.01628)
(0.00354279 -0.00354764 1.01548)
(0.00214 -0.0035477 1.01495)
(0.000712796 -0.00354948 1.01468)
(-0.000717039 -0.00354903 1.01468)
(-0.00214395 -0.00354641 1.01495)
(-0.00354618 -0.00354557 1.01548)
(-0.0048824 -0.00354579 1.01628)
(-0.00638373 -0.00348666 1.01739)
(0.00635295 -0.00497875 1.01808)
(0.00486052 -0.00486404 1.01704)
(0.00354354 -0.00488317 1.01628)
(0.0021325 -0.00491704 1.01578)
(0.000709335 -0.00493572 1.01553)
(-0.000712901 -0.00493545 1.01553)
(-0.00213583 -0.00491626 1.01578)
(-0.00354642 -0.00488187 1.01628)
(-0.00486282 -0.00486231 1.01704)
(-0.00635436 -0.00497662 1.01808)
(0.0071057 -0.00710798 1.019)
(0.00497506 -0.00635484 1.01808)
(0.00348475 -0.00638399 1.01739)
(0.00207429 -0.00635524 1.01692)
(0.000688551 -0.00633277 1.01669)
(-0.000691676 -0.00633263 1.01669)
(-0.00207723 -0.00635483 1.01692)
(-0.00348732 -0.0063833 1.01739)
(-0.00497716 -0.00635396 1.01808)
(-0.00710721 -0.00710681 1.019)
(0.00527931 0.0052699 1.03502)
(0.00372093 0.00469883 1.03391)
(0.0025532 0.00494928 1.03308)
(0.00151118 0.00497277 1.03253)
(0.000493917 0.00499622 1.03225)
(-0.000509897 0.00499719 1.03226)
(-0.00152847 0.00497648 1.03254)
(-0.00257318 0.00495616 1.03309)
(-0.00374299 0.0047115 1.03393)
(-0.00528664 0.00528378 1.03504)
(0.00470735 0.00371739 1.03391)
(0.00366471 0.00365919 1.03268)
(0.00269072 0.0037601 1.03175)
(0.00160768 0.00383012 1.03112)
(0.000531373 0.00387033 1.03081)
(-0.00054442 0.00387177 1.03081)
(-0.00162109 0.00383486 1.03113)
(-0.00270487 0.00376924 1.03175)
(-0.00367881 0.00367504 1.03269)
(-0.00471421 0.00373902 1.03393)
(0.00495345 0.00255319 1.03309)
(0.00376473 0.00268827 1.03175)
(0.00273695 0.00273378 1.03075)
(0.00163728 0.00276582 1.03008)
(0.000541493 0.00278242 1.02974)
(-0.000551472 0.00278382 1.02974)
(-0.0016471 0.00277007 1.03008)
(-0.0027462 0.00274151 1.03075)
(-0.0037731 0.00270001 1.03175)
(-0.00495949 0.00256804 1.03309)
(0.00497517 0.00151219 1.03253)
(0.00383332 0.00160683 1.03112)
(0.00276858 0.00163557 1.03008)
(0.00166028 0.00165829 1.02938)
(0.000550154 0.00167116 1.02903)
(-0.000557548 0.00167232 1.02903)
(-0.00166722 0.0016618 1.02938)
(-0.00277488 0.00164151 1.03008)
(-0.00383896 0.00161506 1.03113)
(-0.00497988 0.00152199 1.03254)
(0.00499696 0.000495117 1.03226)
(0.00387257 0.000531406 1.03081)
(0.00278475 0.000540714 1.02974)
(0.00167296 0.000549011 1.02903)
(0.000555591 0.000554329 1.02867)
(-0.000560912 0.000555266 1.02868)
(-0.00167794 0.000551713 1.02903)
(-0.0027891 0.000545097 1.02974)
(-0.00387648 0.000537189 1.03082)
(-0.00500103 0.000501879 1.03226)
(0.00499774 -0.000508679 1.03226)
(0.00387312 -0.000543919 1.03081)
(0.00278552 -0.000551633 1.02974)
(0.00167391 -0.000558104 1.02903)
(0.000556426 -0.00056163 1.02868)
(-0.000560191 -0.000560973 1.02868)
(-0.00167737 -0.000556116 1.02903)
(-0.00278867 -0.000548503 1.02974)
(-0.00387615 -0.000539849 1.03082)
(-0.00500076 -0.000503941 1.03226)
(0.00497649 -0.0015274 1.03254)
(0.0038358 -0.00162044 1.03113)
(0.00277137 -0.00164684 1.03008)
(0.00166305 -0.00166729 1.02938)
(0.000552745 -0.0016782 1.02903)
(-0.000555402 -0.00167774 1.02903)
(-0.00166553 -0.00166594 1.02938)
(-0.00277362 -0.00164471 1.03008)
(-0.00383802 -0.00161758 1.03113)
(-0.0049791 -0.001524 1.03254)
(0.00495642 -0.00257225 1.03309)
(0.00376986 -0.00270399 1.03175)
(0.00274248 -0.00274562 1.03075)
(0.00164253 -0.00277444 1.03008)
(0.000545934 -0.0027889 1.02974)
(-0.000547881 -0.0027886 1.02974)
(-0.00164435 -0.00277368 1.03008)
(-0.00274417 -0.00274428 1.03076)
(-0.00377163 -0.00270221 1.03176)
(-0.00495832 -0.00256991 1.03309)
(0.00471173 -0.00374218 1.03393)
(0.00367565 -0.0036778 1.03269)
(0.00270083 -0.00377205 1.03176)
(0.00161586 -0.00383809 1.03113)
(0.000537799 -0.00387582 1.03082)
(-0.00053941 -0.00387572 1.03082)
(-0.00161733 -0.00383776 1.03113)
(-0.00270212 -0.00377146 1.03176)
(-0.00367692 -0.00367678 1.03269)
(-0.00471309 -0.00374061 1.03393)
(0.00528473 -0.00528618 1.03504)
(0.00373994 -0.00471331 1.03393)
(0.00256884 -0.00495835 1.03309)
(0.00152255 -0.00497883 1.03254)
(0.00050223 -0.00500022 1.03226)
(-0.000503736 -0.00500015 1.03226)
(-0.00152388 -0.00497869 1.03254)
(-0.00256985 -0.00495796 1.03309)
(-0.00374069 -0.00471264 1.03393)
(-0.00528529 -0.00528489 1.03504)
(0.00355921 0.00355587 1.04583)
(0.00265315 0.00332298 1.04474)
(0.00179718 0.00365862 1.04394)
(0.00107231 0.00370225 1.04342)
(0.000345863 0.00376393 1.04315)
(-0.000354603 0.00376434 1.04316)
(-0.00108142 0.00370387 1.04342)
(-0.00180774 0.00366165 1.04395)
(-0.00266617 0.0033284 1.04475)
(-0.00356217 0.00356158 1.04584)
(0.00332393 0.00265367 1.04474)
(0.00266325 0.00266308 1.04355)
(0.00194034 0.00279663 1.04264)
(0.00115666 0.00285793 1.04204)
(0.000384331 0.00290077 1.04174)
(-0.000391473 0.00290159 1.04174)
(-0.00116391 0.00286045 1.04204)
(-0.00194813 0.00280123 1.04265)
(-0.00267168 0.00267095 1.04356)
(-0.00332877 0.00266528 1.04475)
(0.00365789 0.00179871 1.04395)
(0.00279647 0.00194098 1.04265)
(0.00201532 0.00201574 1.04167)
(0.00119119 0.00205861 1.04102)
(0.000394567 0.00207864 1.0407)
(-0.000400126 0.00207937 1.0407)
(-0.00119674 0.00206071 1.04102)
(-0.00202089 0.00201941 1.04168)
(-0.00280209 0.00194657 1.04265)
(-0.00366259 0.00180605 1.04395)
(0.00370062 0.00107419 1.04342)
(0.0028572 0.00115775 1.04204)
(0.00205803 0.00119194 1.04102)
(0.00122352 0.00122417 1.04034)
(0.000405255 0.00123989 1.04)
(-0.000409635 0.0012404 1.04001)
(-0.00122782 0.00122569 1.04034)
(-0.00206223 0.00119454 1.04103)
(-0.00286133 0.00116146 1.04205)
(-0.00370449 0.00107891 1.04343)
(0.00376159 0.000347805 1.04316)
(0.00289953 0.000385722 1.04174)
(0.00207782 0.0003956 1.0407)
(0.00123915 0.000406101 1.04001)
(0.000410551 0.00041134 1.03966)
(-0.000414145 0.000411689 1.03966)
(-0.00124262 0.000407112 1.04001)
(-0.00208113 0.000397345 1.0407)
(-0.00290275 0.00038822 1.04175)
(-0.00376495 0.000350979 1.04316)
(0.00376207 -0.000352835 1.04316)
(0.00289998 -0.000389963 1.04174)
(0.00207825 -0.000398905 1.0407)
(0.00123951 -0.000408641 1.04001)
(0.000410841 -0.000413275 1.03966)
(-0.000413887 -0.000413074 1.03966)
(-0.00124241 -0.000408008 1.04001)
(-0.00208092 -0.000397817 1.0407)
(-0.00290256 -0.000388324 1.04175)
(-0.00376469 -0.00035065 1.04316)
(0.0037016 -0.00107982 1.04343)
(0.00285872 -0.00116236 1.04205)
(0.0020594 -0.00119542 1.04103)
(0.0012246 -0.00122671 1.04035)
(0.000406144 -0.00124172 1.04001)
(-0.000408875 -0.00124163 1.04001)
(-0.00122714 -0.00122642 1.04035)
(-0.00206166 -0.00119489 1.04103)
(-0.00286078 -0.00116148 1.04205)
(-0.00370375 -0.00107853 1.04343)
(0.00365971 -0.00180601 1.04395)
(0.00279941 -0.00194649 1.04265)
(0.00201789 -0.00201944 1.04168)
(0.00119323 -0.002061 1.04103)
(0.000396167 -0.00208019 1.0407)
(-0.000398805 -0.00208018 1.0407)
(-0.00119567 -0.0020611 1.04103)
(-0.00201999 -0.00201947 1.04168)
(-0.00280121 -0.00194639 1.04265)
(-0.00366139 -0.00180567 1.04395)
(0.00332625 -0.00266436 1.04475)
(0.00266899 -0.00266987 1.04356)
(0.00194485 -0.00280036 1.04265)
(0.00115986 -0.00285996 1.04205)
(0.000386757 -0.00290174 1.04175)
(-0.000389573 -0.00290188 1.04175)
(-0.00116246 -0.00286038 1.04205)
(-0.00194699 -0.00280097 1.04265)
(-0.00267074 -0.00267048 1.04356)
(-0.00332782 -0.00266484 1.04475)
(0.00355999 -0.0035604 1.04584)
(0.00266344 -0.00332682 1.04475)
(0.0018041 -0.00366058 1.04395)
(0.00107688 -0.00370301 1.04343)
(0.000349095 -0.00376398 1.04316)
(-0.000352272 -0.00376416 1.04316)
(-0.0010798 -0.00370359 1.04343)
(-0.00180645 -0.00366151 1.04395)
(-0.00266513 -0.00332784 1.04475)
(-0.00356133 -0.00356121 1.04585)
(0.00235544 0.00235714 1.05231)
(0.00192978 0.00234406 1.05127)
(0.00129504 0.00263055 1.05052)
(0.000788018 0.00266569 1.05003)
(0.000247991 0.00274098 1.04978)
(-0.000251474 0.00274091 1.04978)
(-0.000790989 0.00266559 1.05003)
(-0.00129693 0.00262997 1.05052)
(-0.00193196 0.00234213 1.05128)
(-0.00235047 0.00235141 1.05232)
(0.00234046 0.0019319 1.05127)
(0.00194462 0.00194729 1.05013)
(0.00139977 0.00206587 1.04927)
(0.000844057 0.00210082 1.0487)
(0.000282408 0.00214024 1.04842)
(-0.000284743 0.00214076 1.04842)
(-0.000846218 0.00210229 1.0487)
(-0.001402 0.00206784 1.04928)
(-0.00194768 0.001949 1.05014)
(-0.00234116 0.00193323 1.05128)
(0.00262727 0.00129641 1.05052)
(0.00206355 0.00140162 1.04927)
(0.00148434 0.00148615 1.04834)
(0.000878979 0.00152575 1.04772)
(0.000294366 0.00154684 1.04742)
(-0.000295884 0.00154715 1.04742)
(-0.000880594 0.00152653 1.04773)
(-0.00148646 0.00148725 1.04834)
(-0.00206666 0.00140276 1.04928)
(-0.00262936 0.00129769 1.05053)
(0.00266207 0.00078996 1.05003)
(0.00209836 0.000845835 1.0487)
(0.00152383 0.000880653 1.04772)
(0.000909657 0.00091127 1.04708)
(0.000304485 0.000925477 1.04675)
(-0.000305807 0.000925517 1.04675)
(-0.000911058 0.000911348 1.04708)
(-0.00152574 0.000880846 1.04773)
(-0.00210102 0.000846368 1.04871)
(-0.00266438 0.000791136 1.05003)
(0.00273719 0.000249795 1.04978)
(0.0021376 0.000284101 1.04842)
(0.0015448 0.000295951 1.04742)
(0.000923779 0.000305982 1.04675)
(0.000308283 0.000309746 1.04643)
(-0.000309752 0.000309678 1.04643)
(-0.000925278 0.000305736 1.04675)
(-0.00154648 0.000295702 1.04742)
(-0.00213968 0.000284232 1.04842)
(-0.00273956 0.000250557 1.04978)
(0.00273753 -0.000250209 1.04978)
(0.00213808 -0.000283396 1.04842)
(0.00154501 -0.000294531 1.04742)
(0.000923761 -0.000304514 1.04675)
(0.000308174 -0.000308502 1.04643)
(-0.000309838 -0.000308612 1.04643)
(-0.000925344 -0.000304793 1.04676)
(-0.00154653 -0.000294864 1.04742)
(-0.00213971 -0.000283479 1.04842)
(-0.00273949 -0.000249821 1.04978)
(0.00266247 -0.00079026 1.05003)
(0.00209981 -0.000845229 1.04871)
(0.00152445 -0.000879504 1.04773)
(0.000909555 -0.000909983 1.04708)
(0.00030421 -0.000924261 1.04676)
(-0.000306041 -0.000924375 1.04676)
(-0.000911235 -0.000910293 1.04708)
(-0.00152589 -0.000879907 1.04773)
(-0.00210111 -0.000845499 1.04871)
(-0.00266424 -0.000790245 1.05003)
(0.00262767 -0.00129633 1.05052)
(0.00206564 -0.00140109 1.04928)
(0.00148525 -0.00148547 1.04835)
(0.000879042 -0.00152476 1.04773)
(0.000294108 -0.00154563 1.04742)
(-0.000296161 -0.00154576 1.04742)
(-0.000880884 -0.00152522 1.04773)
(-0.00148671 -0.00148609 1.04835)
(-0.00206677 -0.00140172 1.04928)
(-0.00262895 -0.00129675 1.05053)
(0.00234013 -0.00193126 1.05128)
(0.00194696 -0.00194664 1.05014)
(0.00140078 -0.00206549 1.04928)
(0.000844464 -0.00210006 1.04871)
(0.0002825 -0.00213891 1.04842)
(-0.000284909 -0.00213912 1.04842)
(-0.000846627 -0.00210067 1.04871)
(-0.00140243 -0.00206647 1.04928)
(-0.00194805 -0.00194773 1.05014)
(-0.0023412 -0.00193225 1.05128)
(0.00235033 -0.00234955 1.05232)
(0.00193151 -0.00234 1.05128)
(0.00129563 -0.00262809 1.05052)
(0.000788952 -0.00266361 1.05003)
(0.000248612 -0.00273904 1.04978)
(-0.000251463 -0.00273918 1.04978)
(-0.000791577 -0.00266407 1.05003)
(-0.00129761 -0.00262901 1.05053)
(-0.00193259 -0.0023411 1.05128)
(-0.0023508 -0.00235068 1.05232)
(0.00183525 0.00183746 1.05684)
(0.00162109 0.00188739 1.05586)
(0.00107871 0.00205946 1.05515)
(0.000668718 0.0020654 1.05468)
(0.000202677 0.0021271 1.05444)
(-0.000209671 0.00212737 1.05444)
(-0.000675898 0.00206625 1.05468)
(-0.00108419 0.00206041 1.05515)
(-0.00162462 0.00188721 1.05586)
(-0.00183235 0.00183269 1.05684)
(0.00188534 0.00162234 1.05586)
(0.00158703 0.0015889 1.05478)
(0.00112038 0.00165687 1.05397)
(0.000684769 0.00165232 1.05343)
(0.000226528 0.00167846 1.05316)
(-0.000231406 0.00167926 1.05316)
(-0.000689932 0.00165492 1.05343)
(-0.00112569 0.00166114 1.05397)
(-0.00159247 0.00159299 1.05478)
(-0.00188721 0.001625 1.05586)
(0.00205797 0.0010797 1.05515)
(0.00165556 0.0011218 1.05397)
(0.00118464 0.00118589 1.05309)
(0.000706462 0.00120254 1.0525)
(0.00023705 0.00121718 1.05221)
(-0.000240489 0.00121768 1.05221)
(-0.000710087 0.00120412 1.0525)
(-0.00118893 0.00118875 1.05309)
(-0.00166084 0.00112542 1.05397)
(-0.00206091 0.00108362 1.05515)
(0.00206339 0.000670697 1.05468)
(0.00165071 0.000686478 1.05343)
(0.00120112 0.000707942 1.0525)
(0.000721161 0.000722577 1.05189)
(0.000242936 0.000730161 1.05158)
(-0.000245749 0.000730373 1.05158)
(-0.000723933 0.000723227 1.05189)
(-0.00120435 0.000709289 1.0525)
(-0.00165475 0.000688901 1.05343)
(-0.00206652 0.000674449 1.05468)
(0.00212507 0.000204274 1.05444)
(0.00167674 0.000228079 1.05316)
(0.00121564 0.000238521 1.05221)
(0.000728673 0.000244352 1.05158)
(0.000244522 0.000245923 1.05127)
(-0.000247137 0.000246009 1.05127)
(-0.000731176 0.000244565 1.05158)
(-0.00121815 0.00023905 1.05221)
(-0.00167956 0.000229428 1.05316)
(-0.00212795 0.000206806 1.05444)
(0.00212557 -0.000208492 1.05444)
(0.00167757 -0.000230245 1.05316)
(0.0012161 -0.000239304 1.05221)
(0.000728876 -0.00024457 1.05158)
(0.000244588 -0.000245953 1.05127)
(-0.000247122 -0.000245934 1.05127)
(-0.000731211 -0.000244489 1.05158)
(-0.00121821 -0.000239067 1.05221)
(-0.00167963 -0.000229579 1.05316)
(-0.0021279 -0.000207123 1.05444)
(0.00206437 -0.000675185 1.05468)
(0.00165329 -0.000689163 1.05343)
(0.00120261 -0.000709244 1.0525)
(0.000721741 -0.00072308 1.05189)
(0.000243175 -0.0007303 1.05158)
(-0.000245671 -0.000730314 1.05158)
(-0.000724006 -0.000723107 1.05189)
(-0.00120453 -0.000709217 1.0525)
(-0.00165497 -0.000688901 1.05343)
(-0.00206653 -0.000674514 1.05468)
(0.00205902 -0.0010837 1.05515)
(0.00165968 -0.00112508 1.05397)
(0.0011873 -0.00118829 1.05309)
(0.000707843 -0.00120371 1.0525)
(0.000237683 -0.00121752 1.05221)
(-0.00024023 -0.00121757 1.05221)
(-0.00071012 -0.00120388 1.0525)
(-0.00118912 -0.00118852 1.05309)
(-0.00166107 -0.0011252 1.05397)
(-0.00206065 -0.00108348 1.05515)
(0.00188592 -0.00162417 1.05586)
(0.00159156 -0.00159185 1.05478)
(0.00112395 -0.00166015 1.05397)
(0.000687427 -0.00165423 1.05343)
(0.000228045 -0.00167906 1.05316)
(-0.000230751 -0.00167917 1.05316)
(-0.000689875 -0.00165453 1.05343)
(-0.00112587 -0.00166073 1.05397)
(-0.00159282 -0.00159247 1.05478)
(-0.00188717 -0.00162461 1.05586)
(0.00183208 -0.00183176 1.05684)
(0.00162377 -0.00188653 1.05586)
(0.00108209 -0.00206024 1.05515)
(0.000672836 -0.00206622 1.05468)
(0.000205401 -0.00212763 1.05444)
(-0.000208335 -0.00212766 1.05444)
(-0.000675584 -0.00206626 1.05468)
(-0.00108428 -0.00206059 1.05515)
(-0.00162499 -0.00188708 1.05586)
(-0.00183255 -0.0018325 1.05684)
(0.00182337 0.0018233 1.06106)
(0.00161923 0.00187141 1.06011)
(0.0010791 0.00196236 1.05942)
(0.000676597 0.00195481 1.05896)
(0.000201027 0.00200046 1.05873)
(-0.000212341 0.00200133 1.05873)
(-0.000689167 0.00195766 1.05896)
(-0.00109086 0.0019666 1.05942)
(-0.00162795 0.00187614 1.06011)
(-0.00182583 0.00182453 1.06107)
(0.00187351 0.00161874 1.06011)
(0.00155489 0.00155436 1.05906)
(0.00108594 0.00159182 1.05828)
(0.000669276 0.00156618 1.05777)
(0.000216998 0.00158348 1.05751)
(-0.000225499 0.00158445 1.05751)
(-0.000678518 0.0015696 1.05777)
(-0.0010957 0.00159832 1.05828)
(-0.00156401 0.00156232 1.05906)
(-0.00187801 0.00162594 1.06011)
(0.00196436 0.00107945 1.05942)
(0.00159272 0.00108612 1.05828)
(0.00113497 0.00113482 1.05744)
(0.000682859 0.00113443 1.05688)
(0.000227263 0.00114489 1.0566)
(-0.000233949 0.00114554 1.0566)
(-0.000689607 0.00113667 1.05688)
(-0.00114208 0.00113942 1.05744)
(-0.0016003 0.00109285 1.05828)
(-0.00196923 0.00108732 1.05942)
(0.00195629 0.000677894 1.05896)
(0.00156668 0.000670103 1.05777)
(0.00113437 0.000683401 1.05688)
(0.000684205 0.000684712 1.0563)
(0.000229937 0.00068796 1.05601)
(-0.000235503 0.000688431 1.05601)
(-0.000689402 0.000686168 1.0563)
(-0.00113944 0.000686231 1.05688)
(-0.00157199 0.000674757 1.05777)
(-0.00196064 0.000684539 1.05896)
(0.00200167 0.000202051 1.05873)
(0.00158394 0.000217818 1.05751)
(0.00114482 0.000227992 1.0566)
(0.000687434 0.000230664 1.05601)
(0.000230738 0.000231457 1.05571)
(-0.000235499 0.000231829 1.05571)
(-0.000691803 0.000231713 1.05601)
(-0.00114867 0.000229806 1.0566)
(-0.00158757 0.000220732 1.05751)
(-0.00200518 0.000206405 1.05873)
(0.00200226 -0.000211082 1.05873)
(0.00158477 -0.000224644 1.05751)
(0.00114541 -0.000233251 1.0566)
(0.00068792 -0.000234853 1.05601)
(0.000231101 -0.000234839 1.05571)
(-0.000235255 -0.000234594 1.05571)
(-0.000691679 -0.000234122 1.05601)
(-0.00114862 -0.000232058 1.0566)
(-0.00158756 -0.000222936 1.05751)
(-0.00200503 -0.000208669 1.05873)
(0.00195785 -0.000687885 1.05896)
(0.00156958 -0.00067773 1.05777)
(0.0011364 -0.000689025 1.05688)
(0.000685602 -0.000688948 1.0563)
(0.000231004 -0.000691343 1.05601)
(-0.000234782 -0.000691212 1.05601)
(-0.000689028 -0.000688535 1.0563)
(-0.0011393 -0.000688378 1.05688)
(-0.00157203 -0.000676785 1.05777)
(-0.00196048 -0.000686555 1.05896)
(0.00196651 -0.00108965 1.05942)
(0.001598 -0.00109491 1.05828)
(0.00113896 -0.0011416 1.05744)
(0.000685594 -0.00113909 1.05688)
(0.000229091 -0.00114836 1.0566)
(-0.000232686 -0.00114828 1.0566)
(-0.000688849 -0.00113895 1.05688)
(-0.00114169 -0.00114137 1.05744)
(-0.00160017 -0.00109455 1.05828)
(-0.00196876 -0.00108897 1.05942)
(0.00187551 -0.00162685 1.06011)
(0.0015616 -0.00156321 1.05906)
(0.00109213 -0.00159972 1.05828)
(0.000674007 -0.00157166 1.05777)
(0.000220005 -0.00158723 1.05751)
(-0.000223556 -0.00158726 1.05751)
(-0.000677311 -0.00157172 1.05777)
(-0.00109491 -0.00159998 1.05828)
(-0.00156373 -0.00156356 1.05906)
(-0.00187748 -0.00162707 1.06011)
(0.00182405 -0.00182468 1.06107)
(0.00162505 -0.00187697 1.06011)
(0.00108637 -0.00196845 1.05942)
(0.00068365 -0.00196018 1.05896)
(0.000205659 -0.00200467 1.05873)
(-0.000209331 -0.00200472 1.05873)
(-0.000687161 -0.0019602 1.05896)
(-0.00108951 -0.00196876 1.05942)
(-0.00162734 -0.00187767 1.06011)
(-0.00182547 -0.00182565 1.06107)
(0.00196275 0.00196205 1.06562)
(0.00169585 0.00199764 1.06466)
(0.00113877 0.00205768 1.06397)
(0.000718814 0.00205341 1.06351)
(0.000214346 0.00208934 1.06329)
(-0.00022273 0.00208978 1.06329)
(-0.000728869 0.00205513 1.06352)
(-0.00114931 0.00206036 1.06398)
(-0.00170422 0.00200075 1.06467)
(-0.00196516 0.00196261 1.06562)
(0.00200014 0.00169502 1.06466)
(0.00163233 0.00163127 1.06362)
(0.00114129 0.00166463 1.06285)
(0.000705942 0.00163732 1.06234)
(0.000226607 0.00165246 1.06208)
(-0.000233511 0.0016528 1.06208)
(-0.000713642 0.001639 1.06234)
(-0.00114989 0.00166874 1.06285)
(-0.00164056 0.00163722 1.06363)
(-0.00200403 0.00170055 1.06467)
(0.00205978 0.00113803 1.06397)
(0.00166584 0.00114056 1.06285)
(0.00118724 0.00118643 1.06202)
(0.000719636 0.00118092 1.06147)
(0.000238019 0.00119129 1.06119)
(-0.000244216 0.00119155 1.06119)
(-0.000725712 0.00118198 1.06147)
(-0.00119341 0.00118928 1.06202)
(-0.00167236 0.00114557 1.06285)
(-0.0020643 0.00114429 1.06398)
(0.00205578 0.000717818 1.06351)
(0.00163865 0.000705126 1.06234)
(0.00118171 0.000718986 1.06146)
(0.000715349 0.000714782 1.06089)
(0.000239553 0.000717419 1.0606)
(-0.000245122 0.000717774 1.0606)
(-0.000720399 0.000715844 1.06089)
(-0.00118625 0.000721052 1.06147)
(-0.00164306 0.000708674 1.06234)
(-0.00205959 0.000723116 1.06352)
(0.00209178 0.00021317 1.06329)
(0.00165422 0.000225576 1.06208)
(0.00119241 0.000237218 1.06119)
(0.000718082 0.000238961 1.0606)
(0.000240905 0.000240344 1.06031)
(-0.000245683 0.000240757 1.06031)
(-0.000722438 0.000240111 1.0606)
(-0.00119606 0.000239032 1.06119)
(-0.00165742 0.000228075 1.06208)
(-0.00209487 0.000216572 1.06329)
(0.00209211 -0.00022328 1.06329)
(0.0016546 -0.000234323 1.06208)
(0.00119279 -0.000245051 1.06119)
(0.00071859 -0.000245856 1.0606)
(0.00024135 -0.000246322 1.06031)
(-0.000245362 -0.00024597 1.06031)
(-0.000722247 -0.000244846 1.0606)
(-0.00119599 -0.000243523 1.06119)
(-0.00165742 -0.00023249 1.06208)
(-0.00209478 -0.000221116 1.06329)
(0.002057 -0.000729242 1.06352)
(0.00164056 -0.000714404 1.06234)
(0.00118317 -0.000726569 1.06147)
(0.000716698 -0.000721262 1.06089)
(0.000240795 -0.000723165 1.0606)
(-0.000244209 -0.000722885 1.0606)
(-0.000719889 -0.000720479 1.06089)
(-0.00118603 -0.000725385 1.06147)
(-0.00164314 -0.000712895 1.06234)
(-0.00205962 -0.000727454 1.06352)
(0.002062 -0.00114979 1.06398)
(0.00167011 -0.00115065 1.06285)
(0.00119041 -0.00119432 1.06202)
(0.000721984 -0.00118709 1.06147)
(0.000239844 -0.00119674 1.06119)
(-0.000242781 -0.00119652 1.06119)
(-0.000724743 -0.00118644 1.06147)
(-0.0011929 -0.00119334 1.06202)
(-0.00167235 -0.00114938 1.06285)
(-0.00206427 -0.00114813 1.06398)
(0.00200211 -0.00170481 1.06466)
(0.00163838 -0.00164131 1.06362)
(0.00114664 -0.00167312 1.06285)
(0.000709736 -0.00164377 1.06234)
(0.000229056 -0.00165786 1.06208)
(-0.000231578 -0.00165772 1.06208)
(-0.000712171 -0.00164327 1.06234)
(-0.00114893 -0.00167247 1.06285)
(-0.00164034 -0.00164047 1.06363)
(-0.00200391 -0.00170364 1.06467)
(0.00196393 -0.00196555 1.06562)
(0.00170164 -0.00200447 1.06466)
(0.00114541 -0.00206481 1.06398)
(0.000724349 -0.00206001 1.06352)
(0.00021779 -0.00209498 1.06329)
(-0.000220044 -0.00209488 1.06329)
(-0.000726586 -0.00205953 1.06352)
(-0.00114763 -0.00206416 1.06398)
(-0.00170347 -0.00200387 1.06467)
(-0.00196497 -0.00196501 1.06562)
(0.00207147 0.0020696 1.07053)
(0.00174689 0.00209921 1.06957)
(0.00118299 0.00215569 1.06888)
(0.000748717 0.0021605 1.06841)
(0.000224516 0.00219311 1.06818)
(-0.000228457 0.00219357 1.06818)
(-0.000754162 0.00216255 1.06841)
(-0.00118976 0.00215936 1.06888)
(-0.00175323 0.00210381 1.06957)
(-0.0020748 0.00207281 1.07053)
(0.00210337 0.00174506 1.06957)
(0.00169939 0.00169724 1.06852)
(0.00119308 0.00173573 1.06775)
(0.000738223 0.00171382 1.06723)
(0.000236026 0.00172983 1.06697)
(-0.000239058 0.00172992 1.06697)
(-0.000741752 0.00171464 1.06723)
(-0.00119761 0.00173839 1.06775)
(-0.0017045 0.00170192 1.06853)
(-0.00210669 0.00175038 1.06957)
(0.00215993 0.00118092 1.06888)
(0.00173805 0.00119108 1.06775)
(0.00123966 0.00123776 1.06691)
(0.000754636 0.0012326 1.06636)
(0.000248841 0.00124418 1.06608)
(-0.000251724 0.00124425 1.06608)
(-0.00075726 0.00123296 1.06636)
(-0.00124229 0.00123911 1.06691)
(-0.00174126 0.00119423 1.06775)
(-0.00216294 0.00118565 1.06888)
(0.00216507 0.00074632 1.06841)
(0.00171659 0.000736042 1.06723)
(0.00123467 0.000752777 1.06636)
(0.000748932 0.00074718 1.06578)
(0.000250397 0.000750669 1.06549)
(-0.000252972 0.000750907 1.06549)
(-0.000751126 0.000747813 1.06578)
(-0.00123631 0.000753881 1.06636)
(-0.00171805 0.000737989 1.06723)
(-0.00216683 0.000749652 1.06842)
(0.00219737 0.000222687 1.06818)
(0.00173296 0.000234129 1.06697)
(0.00124659 0.000247101 1.06608)
(0.000752555 0.000248813 1.06549)
(0.000252635 0.000251066 1.0652)
(-0.000254635 0.000251362 1.0652)
(-0.000754297 0.000249655 1.06549)
(-0.00124788 0.000248318 1.06608)
(-0.00173389 0.000235531 1.06697)
(-0.00219842 0.00022446 1.06818)
(0.00219747 -0.000229099 1.06818)
(0.00173292 -0.000240152 1.06697)
(0.00124667 -0.000253016 1.06608)
(0.000752855 -0.000254279 1.06549)
(0.000252951 -0.000255934 1.0652)
(-0.000254389 -0.000255681 1.0652)
(-0.00075413 -0.000253589 1.06549)
(-0.00124774 -0.000251967 1.06608)
(-0.0017338 -0.000239007 1.06697)
(-0.00219824 -0.000227881 1.06818)
(0.00216594 -0.000754275 1.06841)
(0.0017172 -0.000742373 1.06723)
(0.00123516 -0.000758193 1.06636)
(0.000749684 -0.00075216 1.06578)
(0.000251231 -0.000755317 1.06549)
(-0.000252293 -0.000755126 1.06549)
(-0.00075064 -0.00075162 1.06578)
(-0.001236 -0.000757362 1.06636)
(-0.00171795 -0.000741291 1.06723)
(-0.00216647 -0.000752909 1.06842)
(0.00216209 -0.0011897 1.06888)
(0.00174057 -0.00119813 1.06775)