/*--------------------------------*- C++ -*----------------------------------*\
| =========                 |                                                 |
| \\      /  F ield         | OpenFOAM: The Open Source CFD Toolbox           |
|  \\    /   O peration     | Version:  2406                                  |
|   \\  /    A nd           | Website:  www.openfoam.com                      |
|    \\/     M anipulation  |                                                 |
\*---------------------------------------------------------------------------*/
FoamFile
{
    version     2.0;
    format      ascii;
    arch        "LSB;label=32;scalar=64";
    class       surfaceScalarField;
    location    "0.9";
    object      phi;
}
// * * * * * * * * * * * * * * * * * * * * * * * * * * * * * * * * * * * * * //

dimensions      [0 3 -1 0 0 0 0];

oriented        oriented;

internalField   nonuniform List<scalar> 
46880
(
5.70227e-05
5.70227e-05
9.25627e-05
-6.58089e-05
-6.58089e-05
4.14847e-05
5.85524e-05
0.000107332
-6.81955e-05
2.17749e-05
5.89973e-05
0.000116854
-6.9121e-05
2.05107e-13
5.91027e-05
0.000121561
-6.94051e-05
-2.17749e-05
5.91027e-05
0.000121561
-6.94051e-05
-4.14847e-05
5.89973e-05
0.000116854
-6.9121e-05
-5.70227e-05
5.85524e-05
0.000107332
-6.81955e-05
5.70227e-05
9.25627e-05
-6.58089e-05
-6.58089e-05
5.85524e-05
4.14847e-05
0.000107332
-6.81955e-05
4.20291e-05
4.20291e-05
0.000121733
2.18254e-05
4.20503e-05
0.000130284
2.13846e-13
4.1986e-05
0.000134326
-2.18254e-05
4.1986e-05
0.000134326
-4.20291e-05
4.20503e-05
0.000130284
-5.85524e-05
4.20291e-05
0.000121733
4.14847e-05
0.000107332
-6.81955e-05
5.89973e-05
2.17749e-05
0.000116854
-6.9121e-05
4.20503e-05
2.18254e-05
0.000130284
2.17158e-05
2.17158e-05
0.000137965
1.80379e-13
2.16254e-05
0.00014148
-2.17158e-05
2.16254e-05
0.00014148
-4.20503e-05
2.17158e-05
0.000137965
-5.89973e-05
2.18254e-05
0.000130284
2.17749e-05
0.000116854
-6.9121e-05
5.91027e-05
9.5816e-13
0.000121561
-6.94051e-05
4.1986e-05
1.15983e-12
0.000134326
2.16254e-05
1.13538e-12
0.00014148
1.51714e-13
1.11136e-12
0.000144691
-2.16254e-05
1.0779e-12
0.000144691
-4.1986e-05
1.04203e-12
0.00014148
-5.91027e-05
1.04409e-12
0.000134326
8.71761e-13
0.000121561
-6.94051e-05
5.91027e-05
-2.17749e-05
0.000121561
-6.94051e-05
4.1986e-05
-2.18254e-05
0.000134326
2.16254e-05
-2.17158e-05
0.00014148
1.18626e-13
-2.16254e-05
0.000144691
-2.16254e-05
-2.16254e-05
0.000144691
-4.1986e-05
-2.17158e-05
0.00014148
-5.91027e-05
-2.18254e-05
0.000134326
-2.17749e-05
0.000121561
-6.94051e-05
5.89973e-05
-4.14846e-05
0.000116854
-6.9121e-05
4.20503e-05
-4.20291e-05
0.000130284
2.17158e-05
-4.20503e-05
0.000137965
7.52379e-14
-4.1986e-05
0.00014148
-2.17158e-05
-4.1986e-05
0.00014148
-4.20503e-05
-4.20503e-05
0.000137965
-5.89973e-05
-4.20291e-05
0.000130284
-4.14846e-05
0.000116854
-6.9121e-05
5.85524e-05
-5.70227e-05
0.000107332
-6.81955e-05
4.20291e-05
-5.85524e-05
0.000121733
2.18254e-05
-5.89973e-05
0.000130284
3.31037e-14
-5.91027e-05
0.000134326
-2.18254e-05
-5.91027e-05
0.000134326
-4.20291e-05
-5.89973e-05
0.000130284
-5.85524e-05
-5.85524e-05
0.000121733
-5.70227e-05
0.000107332
-6.81955e-05
5.70227e-05
9.25627e-05
-6.58089e-05
-6.58089e-05
4.14847e-05
0.000107332
-6.81955e-05
2.17749e-05
0.000116854
-6.9121e-05
-1.89501e-15
0.000121561
-6.94051e-05
-2.17749e-05
0.000121561
-6.94051e-05
-4.14847e-05
0.000116854
-6.9121e-05
-5.70227e-05
0.000107332
-6.81955e-05
9.25627e-05
-6.58089e-05
-6.58089e-05
2.12981e-05
2.12981e-05
9.11553e-05
-2.05944e-05
-2.05944e-05
1.7387e-05
2.43165e-05
0.000110076
-2.31488e-05
9.64834e-06
2.60548e-05
0.000123205
-2.46671e-05
1.44046e-13
2.68715e-05
0.000129837
-2.54995e-05
-9.64834e-06
2.68715e-05
0.000129837
-2.54995e-05
-1.7387e-05
2.60548e-05
0.000123205
-2.46671e-05
-2.12981e-05
2.43165e-05
0.000110076
-2.31488e-05
2.12981e-05
9.11553e-05
-2.05944e-05
-2.05944e-05
2.43165e-05
1.7387e-05
0.000110076
-2.31488e-05
1.97648e-05
1.97648e-05
0.000130836
1.0936e-05
2.11179e-05
0.00014405
1.33479e-13
2.17195e-05
0.000150414
-1.0936e-05
2.17195e-05
0.000150414
-1.97648e-05
2.11179e-05
0.00014405
-2.43165e-05
1.97648e-05
0.000130836
1.7387e-05
0.000110076
-2.31488e-05
2.60548e-05
9.64834e-06
0.000123205
-2.46671e-05
2.11179e-05
1.0936e-05
0.00014405
1.1672e-05
1.1672e-05
0.000156857
9.83532e-14
1.19938e-05
0.000162878
-1.1672e-05
1.19938e-05
0.000162878
-2.11179e-05
1.1672e-05
0.000156857
-2.60548e-05
1.0936e-05
0.00014405
9.64834e-06
0.000123205
-2.46671e-05
2.68715e-05
8.39538e-13
0.000129837
-2.54995e-05
2.17195e-05
9.55065e-13
0.000150414
1.19938e-05
9.11134e-13
0.000162878
7.28409e-14
8.90132e-13
0.000168678
-1.19938e-05
8.63007e-13
0.000168678
-2.17195e-05
8.372e-13
0.000162878
-2.68715e-05
8.67988e-13
0.000150414
7.81496e-13
0.000129837
-2.54995e-05
2.68715e-05
-9.64834e-06
0.000129837
-2.54995e-05
2.17195e-05
-1.0936e-05
0.000150414
1.19938e-05
-1.1672e-05
0.000162878
4.48506e-14
-1.19938e-05
0.000168678
-1.19938e-05
-1.19938e-05
0.000168678
-2.17195e-05
-1.1672e-05
0.000162878
-2.68715e-05
-1.0936e-05
0.000150414
-9.64834e-06
0.000129837
-2.54995e-05
2.60548e-05
-1.7387e-05
0.000123205
-2.46671e-05
2.11179e-05
-1.97648e-05
0.00014405
1.1672e-05
-2.11179e-05
0.000156857
7.77072e-15
-2.17195e-05
0.000162878
-1.1672e-05
-2.17195e-05
0.000162878
-2.11179e-05
-2.11179e-05
0.000156857
-2.60548e-05
-1.97648e-05
0.00014405
-1.7387e-05
0.000123205
-2.46671e-05
2.43165e-05
-2.12981e-05
0.000110076
-2.31488e-05
1.97648e-05
-2.43165e-05
0.000130836
1.0936e-05
-2.60548e-05
0.00014405
-3.0373e-14
-2.68715e-05
0.000150414
-1.0936e-05
-2.68715e-05
0.000150414
-1.97648e-05
-2.60548e-05
0.00014405
-2.43165e-05
-2.43165e-05
0.000130836
-2.12981e-05
0.000110076
-2.31488e-05
2.12981e-05
9.11553e-05
-2.05944e-05
-2.05944e-05
1.7387e-05
0.000110076
-2.31488e-05
9.64834e-06
0.000123205
-2.46671e-05
-5.82597e-14
0.000129837
-2.54995e-05
-9.64834e-06
0.000129837
-2.54995e-05
-1.7387e-05
0.000123205
-2.46671e-05
-2.12981e-05
0.000110076
-2.31488e-05
9.11553e-05
-2.05944e-05
-2.05944e-05
1.18127e-05
1.18127e-05
8.91259e-05
-1.0798e-05
-1.0798e-05
9.90265e-06
1.43956e-05
0.000110627
-1.30364e-05
5.62154e-06
1.59718e-05
0.000125963
-1.44489e-05
2.82153e-13
1.67467e-05
0.000133897
-1.51853e-05
-5.62154e-06
1.67467e-05
0.000133897
-1.51853e-05
-9.90265e-06
1.59718e-05
0.000125963
-1.44489e-05
-1.18127e-05
1.43956e-05
0.000110627
-1.30364e-05
1.18127e-05
8.91259e-05
-1.0798e-05
-1.0798e-05
1.43956e-05
9.90265e-06
0.000110627
-1.30364e-05
1.20477e-05
1.20477e-05
0.000135532
6.80902e-06
1.33212e-05
0.000151939
2.36075e-13
1.39201e-05
0.00016005
-6.80902e-06
1.39201e-05
0.00016005
-1.20477e-05
1.33212e-05
0.000151939
-1.43956e-05
1.20477e-05
0.000135532
9.90265e-06
0.000110627
-1.30364e-05
1.59718e-05
5.62155e-06
0.000125963
-1.44489e-05
1.33212e-05
6.80903e-06
0.000151939
7.49972e-06
7.49972e-06
0.0001685
1.66427e-13
7.81056e-06
0.000176487
-7.49972e-06
7.81056e-06
0.000176487
-1.33212e-05
7.49972e-06
0.0001685
-1.59718e-05
6.80902e-06
0.000151939
5.62155e-06
0.000125963
-1.44489e-05
1.67467e-05
1.03421e-12
0.000133897
-1.51853e-05
1.39201e-05
1.10319e-12
0.00016005
7.81056e-06
9.73472e-13
0.000176487
1.15296e-13
8.92215e-13
0.000184299
-7.81056e-06
8.54473e-13
0.000184299
-1.39201e-05
8.56946e-13
0.000176487
-1.67467e-05
9.33416e-13
0.00016005
8.63196e-13
0.000133897
-1.51853e-05
1.67467e-05
-5.62154e-06
0.000133897
-1.51853e-05
1.39201e-05
-6.80902e-06
0.00016005
7.81056e-06
-7.49972e-06
0.000176487
7.36495e-14
-7.81055e-06
0.000184299
-7.81056e-06
-7.81055e-06
0.000184299
-1.39201e-05
-7.49972e-06
0.000176487
-1.67467e-05
-6.80902e-06
0.00016005
-5.62154e-06
0.000133897
-1.51853e-05
1.59718e-05
-9.90265e-06
0.000125963
-1.44489e-05
1.33212e-05
-1.20476e-05
0.000151939
7.49972e-06
-1.33212e-05
0.0001685
3.22431e-14
-1.39201e-05
0.000176487
-7.49972e-06
-1.39201e-05
0.000176487
-1.33212e-05
-1.33212e-05
0.0001685
-1.59718e-05
-1.20476e-05
0.000151939
-9.90265e-06
0.000125963
-1.44489e-05
1.43956e-05
-1.18127e-05
0.000110627
-1.30364e-05
1.20477e-05
-1.43956e-05
0.000135532
6.80902e-06
-1.59718e-05
0.000151939
-1.20673e-14
-1.67467e-05
0.00016005
-6.80902e-06
-1.67467e-05
0.00016005
-1.20477e-05
-1.59718e-05
0.000151939
-1.43956e-05
-1.43956e-05
0.000135532
-1.18127e-05
0.000110627
-1.30364e-05
1.18127e-05
8.91259e-05
-1.0798e-05
-1.0798e-05
9.90265e-06
0.000110627
-1.30364e-05
5.62154e-06
0.000125963
-1.44489e-05
-4.08681e-14
0.000133897
-1.51853e-05
-5.62154e-06
0.000133897
-1.51853e-05
-9.90265e-06
0.000125963
-1.44489e-05
-1.18127e-05
0.000110627
-1.30364e-05
8.91259e-05
-1.0798e-05
-1.0798e-05
2.98521e-06
2.98521e-06
8.73785e-05
-2.11152e-06
-2.11152e-06
2.93654e-06
4.20871e-06
0.000109321
-2.85467e-06
1.80601e-06
5.10333e-06
0.000125443
-3.45295e-06
1.6434e-13
5.56796e-06
0.000133927
-3.79171e-06
-1.80601e-06
5.56796e-06
0.000133927
-3.79171e-06
-2.93654e-06
5.10333e-06
0.000125443
-3.45295e-06
-2.98521e-06
4.20871e-06
0.000109321
-2.85467e-06
2.98521e-06
8.73785e-05
-2.11152e-06
-2.11152e-06
4.20871e-06
2.93654e-06
0.000109321
-2.85467e-06
4.13753e-06
4.13753e-06
0.000135674
2.52404e-06
4.95623e-06
0.000153699
1.46642e-13
5.34154e-06
0.0001628
-2.52404e-06
5.34154e-06
0.0001628
-4.13753e-06
4.95623e-06
0.000153699
-4.20871e-06
4.13753e-06
0.000135674
2.93654e-06
0.000109321
-2.85467e-06
5.10333e-06
1.80601e-06
0.000125443
-3.45295e-06
4.95623e-06
2.52404e-06
0.000153699
2.98743e-06
2.98743e-06
0.000172437
1.0859e-13
3.17437e-06
0.000181642
-2.98743e-06
3.17437e-06
0.000181642
-4.95623e-06
2.98743e-06
0.000172437
-5.10333e-06
2.52404e-06
0.000153699
1.80601e-06
0.000125443
-3.45295e-06
5.56796e-06
1.0334e-12
0.000133927
-3.79171e-06
5.34154e-06
1.1498e-12
0.0001628
3.17437e-06
1.03307e-12
0.000181642
7.7576e-14
9.3151e-13
0.000190648
-3.17437e-06
9.07876e-13
0.000190648
-5.34154e-06
9.67038e-13
0.000181642
-5.56796e-06
1.07596e-12
0.0001628
1.00227e-12
0.000133927
-3.79171e-06
5.56796e-06
-1.80601e-06
0.000133927
-3.79171e-06
5.34154e-06
-2.52404e-06
0.0001628
3.17437e-06
-2.98743e-06
0.000181642
5.35516e-14
-3.17437e-06
0.000190648
-3.17437e-06
-3.17437e-06
0.000190648
-5.34154e-06
-2.98743e-06
0.000181642
-5.56796e-06
-2.52404e-06
0.0001628
-1.80601e-06
0.000133927
-3.79171e-06
5.10333e-06
-2.93654e-06
0.000125443
-3.45295e-06
4.95623e-06
-4.13753e-06
0.000153699
2.98743e-06
-4.95623e-06
0.000172437
2.84724e-14
-5.34154e-06
0.000181642
-2.98743e-06
-5.34154e-06
0.000181642
-4.95623e-06
-4.95623e-06
0.000172437
-5.10333e-06
-4.13753e-06
0.000153699
-2.93654e-06
0.000125443
-3.45295e-06
4.20871e-06
-2.98521e-06
0.000109321
-2.85467e-06
4.13753e-06
-4.20871e-06
0.000135674
2.52404e-06
-5.10333e-06
0.000153699
-7.76662e-15
-5.56796e-06
0.0001628
-2.52404e-06
-5.56796e-06
0.0001628
-4.13753e-06
-5.10333e-06
0.000153699
-4.20871e-06
-4.20871e-06
0.000135674
-2.98521e-06
0.000109321
-2.85467e-06
2.98521e-06
8.73785e-05
-2.11152e-06
-2.11152e-06
2.93654e-06
0.000109321
-2.85467e-06
1.80601e-06
0.000125443
-3.45295e-06
-3.10448e-14
0.000133927
-3.79171e-06
-1.80601e-06
0.000133927
-3.79171e-06
-2.93654e-06
0.000125443
-3.45295e-06
-2.98521e-06
0.000109321
-2.85467e-06
8.73785e-05
-2.11152e-06
-2.11152e-06
1.75855e-06
1.75855e-06
8.68359e-05
-1.48727e-06
-1.48727e-06
1.58507e-06
2.31764e-06
0.000109058
-1.88066e-06
9.44341e-07
2.7317e-06
0.000125519
-2.1672e-06
6.11729e-13
2.94525e-06
0.000134245
-2.31887e-06
-9.4434e-07
2.94525e-06
0.000134245
-2.31887e-06
-1.58507e-06
2.7317e-06
0.000125519
-2.1672e-06
-1.75855e-06
2.31764e-06
0.000109058
-1.88066e-06
1.75855e-06
8.68359e-05
-1.48727e-06
-1.48727e-06
2.31764e-06
1.58508e-06
0.000109058
-1.88066e-06
2.13339e-06
2.13339e-06
0.000136043
1.27625e-06
2.52942e-06
0.000154759
5.65493e-13
2.71285e-06
0.000164309
-1.27624e-06
2.71285e-06
0.000164309
-2.13338e-06
2.52942e-06
0.000154759
-2.31764e-06
2.13339e-06
0.000136043
1.58508e-06
0.000109058
-1.88066e-06
2.7317e-06
9.44342e-07
0.000125519
-2.1672e-06
2.52941e-06
1.27625e-06
0.000154759
1.50567e-06
1.50567e-06
0.000174485
4.63969e-13
1.58998e-06
0.00018427
-1.50567e-06
1.58998e-06
0.00018427
-2.52941e-06
1.50567e-06
0.000174485
-2.7317e-06
1.27625e-06
0.000154759
9.44342e-07
0.000125519
-2.1672e-06
2.94525e-06
1.48501e-12
0.000134245
-2.31887e-06
2.71285e-06
1.60482e-12
0.000164309
1.58997e-06
1.4255e-12
0.00018427
3.84904e-13
1.25362e-12
0.000193828
-1.58997e-06
1.20968e-12
0.000193828
-2.71285e-06
1.29021e-12
0.00018427
-2.94525e-06
1.40515e-12
0.000164309
1.28606e-12
0.000134245
-2.31887e-06
2.94525e-06
-9.44339e-07
0.000134245
-2.31887e-06
2.71285e-06
-1.27624e-06
0.000164309
1.58997e-06
-1.50567e-06
0.00018427
3.40768e-13
-1.58997e-06
0.000193828
-1.58997e-06
-1.58997e-06
0.000193828
-2.71285e-06
-1.50567e-06
0.00018427
-2.94525e-06
-1.27624e-06
0.000164309
-9.44339e-07
0.000134245
-2.31887e-06
2.7317e-06
-1.58507e-06
0.000125519
-2.1672e-06
2.52941e-06
-2.13338e-06
0.000154759
1.50567e-06
-2.52941e-06
0.000174485
3.13264e-13
-2.71285e-06
0.00018427
-1.50567e-06
-2.71285e-06
0.00018427
-2.52941e-06
-2.52941e-06
0.000174485
-2.7317e-06
-2.13338e-06
0.000154759
-1.58507e-06
0.000125519
-2.1672e-06
2.31764e-06
-1.75855e-06
0.000109058
-1.88066e-06
2.13339e-06
-2.31763e-06
0.000136043
1.27625e-06
-2.73169e-06
0.000154759
2.82816e-13
-2.94525e-06
0.000164309
-1.27625e-06
-2.94525e-06
0.000164309
-2.13338e-06
-2.7317e-06
0.000154759
-2.31764e-06
-2.31763e-06
0.000136043
-1.75855e-06
0.000109058
-1.88066e-06
1.75855e-06
8.68359e-05
-1.48727e-06
-1.48727e-06
1.58507e-06
0.000109058
-1.88066e-06
9.44341e-07
0.000125519
-2.1672e-06
2.48448e-13
0.000134245
-2.31887e-06
-9.44341e-07
0.000134245
-2.31887e-06
-1.58507e-06
0.000125519
-2.1672e-06
-1.75855e-06
0.000109058
-1.88066e-06
8.68359e-05
-1.48727e-06
-1.48727e-06
6.09094e-07
6.09095e-07
8.65409e-05
-4.61558e-07
-4.61558e-07
5.88221e-07
8.41815e-07
0.000108839
-6.01563e-07
3.62057e-07
1.02624e-06
0.000125434
-7.14691e-07
5.69247e-13
1.12581e-06
0.00013426
-7.78511e-07
-3.62056e-07
1.12581e-06
0.00013426
-7.78511e-07
-5.88221e-07
1.02624e-06
0.000125434
-7.14691e-07
-6.09094e-07
8.41815e-07
0.000108839
-6.01563e-07
6.09095e-07
8.65409e-05
-4.61559e-07
-4.61559e-07
8.41814e-07
5.88222e-07
0.000108839
-6.01562e-07
8.30745e-07
8.30746e-07
0.000136065
5.13707e-07
1.01887e-06
0.000155083
5.70426e-13
1.11174e-06
0.000164837
-5.13706e-07
1.11174e-06
0.000164837
-8.30744e-07
1.01887e-06
0.000155083
-8.41814e-07
8.30746e-07
0.000136065
5.88223e-07
0.000108839
-6.01563e-07
1.02624e-06
3.62058e-07
0.000125434
-7.1469e-07
1.01887e-06
5.13708e-07
0.000155083
6.28553e-07
6.28554e-07
0.000175266
5.37976e-13
6.77037e-07
0.000185334
-6.28552e-07
6.77037e-07
0.000185334
-1.01887e-06
6.28554e-07
0.000175266
-1.02624e-06
5.13708e-07
0.000155083
3.62058e-07
0.000125434
-7.14691e-07
1.12581e-06
1.77127e-12
0.00013426
-7.7851e-07
1.11173e-06
1.97089e-12
0.000164837
6.77036e-07
1.83589e-12
0.000185334
5.09256e-13
1.69052e-12
0.000195182
-6.77035e-07
1.6758e-12
0.000195182
-1.11173e-06
1.80314e-12
0.000185334
-1.12581e-06
1.95444e-12
0.000164837
1.81405e-12
0.00013426
-7.78511e-07
1.12581e-06
-3.62055e-07
0.00013426
-7.78511e-07
1.11173e-06
-5.13705e-07
0.000164837
6.77036e-07
-6.2855e-07
0.000185334
4.94507e-13
-6.77033e-07
0.000195182
-6.77035e-07
-6.77033e-07
0.000195182
-1.11173e-06
-6.2855e-07
0.000185334
-1.12581e-06
-5.13705e-07
0.000164837
-3.62055e-07
0.00013426
-7.78511e-07
1.02624e-06
-5.88219e-07
0.000125434
-7.14691e-07
1.01887e-06
-8.30742e-07
0.000155083
6.28553e-07
-1.01887e-06
0.000175266
4.89533e-13
-1.11173e-06
0.000185334
-6.28552e-07
-1.11173e-06
0.000185334
-1.01887e-06
-1.01887e-06
0.000175266
-1.02624e-06
-8.30743e-07
0.000155083
-5.88219e-07
0.000125434
-7.14691e-07
8.41815e-07
-6.09092e-07
0.000108839
-6.01562e-07
8.30745e-07
-8.41812e-07
0.000136065
5.13707e-07
-1.02624e-06
0.000155083
4.73155e-13
-1.12581e-06
0.000164837
-5.13706e-07
-1.12581e-06
0.000164837
-8.30744e-07
-1.02624e-06
0.000155083
-8.41814e-07
-8.41813e-07
0.000136065
-6.09093e-07
0.000108839
-6.01563e-07
6.09094e-07
8.65409e-05
-4.61558e-07
-4.61558e-07
5.88221e-07
0.000108839
-6.01561e-07
3.62057e-07
0.000125434
-7.1469e-07
4.47416e-13
0.00013426
-7.7851e-07
-3.62056e-07
0.00013426
-7.7851e-07
-5.88221e-07
0.000125434
-7.1469e-07
-6.09093e-07
0.000108839
-6.01562e-07
8.65409e-05
-4.61558e-07
-4.61558e-07
3.37043e-07
3.37044e-07
8.64326e-05
-2.82881e-07
-2.82881e-07
3.05728e-07
4.42556e-07
0.000108783
-3.55841e-07
1.82772e-07
5.24017e-07
0.000125443
-4.10569e-07
1.44522e-12
5.67998e-07
0.000134315
-4.40395e-07
-1.82769e-07
5.67998e-07
0.000134315
-4.40395e-07
-3.05726e-07
5.24017e-07
0.000125443
-4.10568e-07
-3.37041e-07
4.42556e-07
0.000108783
-3.55841e-07
3.37043e-07
8.64326e-05
-2.8288e-07
-2.82881e-07
4.42555e-07
3.0573e-07
0.000108783
-3.5584e-07
4.11362e-07
4.11364e-07
0.000136127
2.48165e-07
4.93896e-07
0.000155277
1.43912e-12
5.35807e-07
0.000165117
-2.48162e-07
5.35807e-07
0.000165117
-4.1136e-07
4.93896e-07
0.000155277
-4.42553e-07
4.11363e-07
0.000136127
3.0573e-07
0.000108783
-3.55841e-07
5.24016e-07
1.82773e-07
0.000125443
-4.10567e-07
4.93894e-07
2.48167e-07
0.000155277
2.9935e-07
2.99352e-07
0.000175655
1.34412e-12
3.22833e-07
0.000185846
-2.99347e-07
3.22833e-07
0.000185846
-4.93892e-07
2.99351e-07
0.000175655
-5.24014e-07
2.48167e-07
0.000155277
1.82773e-07
0.000125443
-4.10568e-07
5.67996e-07
2.87651e-12
0.000134315
-4.40394e-07
5.35806e-07
3.09709e-12
0.000165117
3.22832e-07
2.86305e-12
0.000185846
1.25893e-12
2.62451e-12
0.000195828
-3.2283e-07
2.5771e-12
0.000195828
-5.35804e-07
2.72726e-12
0.000185846
-5.67995e-07
2.88384e-12
0.000165117
2.65656e-12
0.000134315
-4.40394e-07
5.67996e-07
-1.82767e-07
0.000134315
-4.40394e-07
5.35806e-07
-2.48161e-07
0.000165117
3.22832e-07
-2.99346e-07
0.000185846
1.21208e-12
-3.22828e-07
0.000195828
-3.2283e-07
-3.22828e-07
0.000195828
-5.35804e-07
-2.99346e-07
0.000185846
-5.67995e-07
-2.48161e-07
0.000165117
-1.82768e-07
0.000134315
-4.40394e-07
5.24016e-07
-3.05725e-07
0.000125443
-4.10568e-07
4.93894e-07
-4.11358e-07
0.000155277
2.9935e-07
-4.9389e-07
0.000175655
1.19643e-12
-5.35802e-07
0.000185846
-2.99348e-07
-5.35802e-07
0.000185846
-4.93892e-07
-4.93891e-07
0.000175655
-5.24014e-07
-4.11358e-07
0.000155277
-3.05725e-07
0.000125443
-4.10568e-07
4.42555e-07
-3.3704e-07
0.000108783
-3.5584e-07
4.11362e-07
-4.42552e-07
0.000136127
2.48165e-07
-5.24013e-07
0.000155277
1.15733e-12
-5.67994e-07
0.000165117
-2.48163e-07
-5.67994e-07
0.000165117
-4.1136e-07
-5.24013e-07
0.000155277
-4.42553e-07
-4.42552e-07
0.000136127
-3.3704e-07
0.000108783
-3.5584e-07
3.37042e-07
8.64326e-05
-2.82879e-07
-2.8288e-07
3.05728e-07
0.000108783
-3.55839e-07
1.82771e-07
0.000125443
-4.10566e-07
1.09705e-12
0.000134315
-4.40392e-07
-1.82769e-07
0.000134315
-4.40393e-07
-3.05727e-07
0.000125443
-4.10566e-07
-3.37041e-07
0.000108783
-3.55839e-07
8.64326e-05
-2.82879e-07
-2.8288e-07
1.5135e-07
1.51351e-07
8.63735e-05
-1.21837e-07
-1.21837e-07
1.40341e-07
2.02147e-07
0.000108747
-1.55427e-07
8.45699e-08
2.41372e-07
0.000125439
-1.81514e-07
2.18452e-12
2.62705e-07
0.000134333
-1.96086e-07
-8.45657e-08
2.62706e-07
0.000134333
-1.96086e-07
-1.40338e-07
2.41373e-07
0.000125439
-1.81514e-07
-1.51347e-07
2.02147e-07
0.000108747
-1.55428e-07
1.51351e-07
8.63735e-05
-1.21836e-07
-1.21837e-07
2.02145e-07
1.40343e-07
0.000108747
-1.55426e-07
1.91013e-07
1.91015e-07
0.00013615
1.15757e-07
2.30231e-07
0.000155363
2.28936e-12
2.50412e-07
0.000165245
-1.15753e-07
2.50413e-07
0.000165245
-1.91009e-07
2.30231e-07
0.000155363
-2.02142e-07
1.91015e-07
0.00013615
1.40343e-07
0.000108747
-1.55426e-07
2.41371e-07
8.45717e-08
0.000125439
-1.81512e-07
2.30229e-07
1.15759e-07
0.000155363
1.40056e-07
1.40058e-07
0.000175835
2.28606e-12
1.51657e-07
0.000186085
-1.40052e-07
1.51657e-07
0.000186085
-2.30226e-07
1.40058e-07
0.000175835
-2.41368e-07
1.1576e-07
0.000155363
8.4572e-08
0.000125439
-1.81512e-07
2.62704e-07
3.82114e-12
0.000134333
-1.96084e-07
2.50411e-07
4.15629e-12
0.000165245
1.51655e-07
3.98535e-12
0.000186085
2.25395e-12
3.7809e-12
0.000196131
-1.51651e-07
3.76722e-12
0.000196131
-2.50407e-07
3.96917e-12
0.000186085
-2.62701e-07
4.15546e-12
0.000165245
3.87608e-12
0.000134333
-1.96083e-07
2.62704e-07
-8.45643e-08
0.000134333
-1.96084e-07
2.50411e-07
-1.15751e-07
0.000165245
1.51655e-07
-1.4005e-07
0.000186085
2.24107e-12
-1.51649e-07
0.000196131
-1.51651e-07
-1.51649e-07
0.000196131
-2.50407e-07
-1.4005e-07
0.000186085
-2.62701e-07
-1.15752e-07
0.000165245
-8.45645e-08
0.000134333
-1.96083e-07
2.41371e-07
-1.40336e-07
0.000125439
-1.81513e-07
2.3023e-07
-1.91008e-07
0.000155363
1.40056e-07
-2.30224e-07
0.000175835
2.258e-12
-2.50406e-07
0.000186085
-1.40052e-07
-2.50406e-07
0.000186085
-2.30226e-07
-2.30224e-07
0.000175835
-2.41368e-07
-1.91008e-07
0.000155363
-1.40337e-07
0.000125439
-1.81511e-07
2.02145e-07
-1.51346e-07
0.000108747
-1.55427e-07
1.91013e-07
-2.02141e-07
0.00013615
1.15758e-07
-2.41367e-07
0.000155363
2.22548e-12
-2.627e-07
0.000165245
-1.15753e-07
-2.627e-07
0.000165245
-1.9101e-07
-2.41367e-07
0.000155363
-2.02143e-07
-2.02141e-07
0.00013615
-1.51346e-07
0.000108747
-1.55425e-07
1.5135e-07
8.63735e-05
-1.21835e-07
-1.21836e-07
1.40342e-07
0.000108747
-1.55424e-07
8.45702e-08
0.000125439
-1.8151e-07
2.11986e-12
0.000134333
-1.96082e-07
-8.45662e-08
0.000134333
-1.96082e-07
-1.40338e-07
0.000125439
-1.81511e-07
-1.51347e-07
0.000108747
-1.55425e-07
8.63735e-05
-1.21835e-07
-1.21835e-07
7.90354e-08
7.90366e-08
8.63467e-05
-6.56238e-08
-6.56237e-08
7.18528e-08
1.04056e-07
0.000108733
-8.28809e-08
4.28821e-08
1.23076e-07
0.000125441
-9.5922e-08
4.90995e-12
1.33333e-07
0.000134345
-1.03103e-07
-4.28728e-08
1.33333e-07
0.000134345
-1.03103e-07
-7.1845e-08
1.23076e-07
0.000125441
-9.59219e-08
-7.90296e-08
1.04056e-07
0.000108733
-8.28806e-08
7.90366e-08
8.63467e-05
-6.56205e-08
-6.56239e-08
1.04054e-07
7.18543e-08
0.000108733
-8.28796e-08
9.64245e-08
9.64264e-08
0.000136165
5.78826e-08
1.15185e-07
0.000155409
5.07269e-12
1.24758e-07
0.000165311
-5.7873e-08
1.24758e-07
0.000165311
-9.64164e-08
1.15185e-07
0.000155409
-1.04048e-07
9.64264e-08
0.000136165
7.18543e-08
0.000108733
-8.28769e-08
1.23075e-07
4.28836e-08
0.000125441
-9.59205e-08
1.15183e-07
5.78843e-08
0.000155409
6.94232e-08
6.94248e-08
0.000175927
4.94185e-12
7.49093e-08
0.000186204
-6.94138e-08
7.49093e-08
0.000186204
-1.15175e-07
6.94247e-08
0.000175927
-1.23069e-07
5.78842e-08
0.000155409
4.28835e-08
0.000125441
-9.5918e-08
1.33331e-07
6.27512e-12
0.000134345
-1.03102e-07
1.24756e-07
6.69288e-12
0.000165311
7.49079e-08
6.41347e-12
0.000186204
4.76912e-12
6.07713e-12
0.000196281
-7.48987e-08
5.99936e-12
0.000196281
-1.24748e-07
6.17596e-12
0.000186204
-1.33326e-07
6.31374e-12
0.000165311
5.85556e-12
0.000134345
-1.03099e-07
1.33332e-07
-4.28715e-08
0.000134345
-1.03102e-07
1.24756e-07
-5.78714e-08
0.000165311
7.49079e-08
-6.94124e-08
0.000186204
4.69287e-12
-7.48974e-08
0.000196281
-7.48989e-08
-7.48976e-08
0.000196281
-1.24748e-07
-6.94128e-08
0.000186204
-1.33326e-07
-5.78721e-08
0.000165311
-4.28722e-08
0.000134345
-1.031e-07
1.23075e-07
-7.18437e-08
0.000125441
-9.59208e-08
1.15183e-07
-9.64149e-08
0.000155409
6.94233e-08
-1.15174e-07
0.000175927
4.69298e-12
-1.24747e-07
0.000186204
-6.94143e-08
-1.24747e-07
0.000186204
-1.15176e-07
-1.15174e-07
0.000175927
-1.23069e-07
-9.64156e-08
0.000155409
-7.18445e-08
0.000125441
-9.59182e-08
1.04055e-07
-7.90284e-08
0.000108733
-8.28797e-08
9.64249e-08
-1.04047e-07
0.000136165
5.78826e-08
-1.23067e-07
0.000155409
4.627e-12
-1.33324e-07
0.000165311
-5.78738e-08
-1.33324e-07
0.000165311
-9.64173e-08
-1.23068e-07
0.000155409
-1.04049e-07
-1.04048e-07
0.000136165
-7.90292e-08
0.000108733
-8.2877e-08
7.90355e-08
8.63467e-05
-6.56197e-08
-6.56228e-08
7.18531e-08
0.000108733
-8.28754e-08
4.28821e-08
0.000125441
-9.59165e-08
4.36392e-12
0.000134345
-1.03098e-07
-4.28738e-08
0.000134345
-1.03098e-07
-7.1846e-08
0.000125441
-9.5917e-08
-7.90302e-08
0.000108733
-8.28763e-08
8.63467e-05
-6.562e-08
-6.56204e-08
3.80849e-08
3.80863e-08
8.63326e-05
-3.10274e-08
-3.10269e-08
3.50291e-08
5.0621e-08
0.000108725
-3.94651e-08
2.10151e-08
6.02034e-08
0.000125441
-4.59551e-08
8.11968e-12
6.5376e-08
0.00013435
-4.95607e-08
-2.09996e-08
6.53762e-08
0.00013435
-4.95608e-08
-3.5016e-08
6.02038e-08
0.000125441
-4.59553e-08
-3.80752e-08
5.06217e-08
0.000108725
-3.94653e-08
3.80871e-08
8.63326e-05
-3.10218e-08
-3.10275e-08
5.0619e-08
3.50308e-08
0.000108725
-3.94635e-08
4.74e-08
4.74022e-08
0.000136171
2.85692e-08
5.68329e-08
0.000155432
8.54889e-12
6.16317e-08
0.000165344
-2.85529e-08
6.16319e-08
0.000165344
-4.73862e-08
5.68333e-08
0.000155432
-5.06087e-08
4.74028e-08
0.000136171
3.50317e-08
0.000108725
-3.94579e-08
6.02012e-08
2.10167e-08
0.000125441
-4.5953e-08
5.68309e-08
2.85711e-08
0.000155432
3.43532e-08
3.43549e-08
0.000175971
8.52222e-12
3.70944e-08
0.000186263
-3.43369e-08
3.70945e-08
0.000186263
-5.68169e-08
3.4355e-08
0.000175971
-6.01908e-08
2.85714e-08
0.000155432
2.10172e-08
0.000125441
-4.59473e-08
6.5374e-08
9.43771e-12
0.00013435
-4.95587e-08
6.163e-08
1.01237e-11
0.000165344
3.70929e-08
9.95698e-12
0.000186263
8.37102e-12
9.64525e-12
0.000196355
-3.70768e-08
9.58886e-12
0.000196355
-6.16159e-08
9.80458e-12
0.000186263
-6.53634e-08
9.89715e-12
0.000165344
9.23519e-12
0.00013435
-4.95527e-08
6.53743e-08
-2.09986e-08
0.00013435
-4.95589e-08
6.16302e-08
-2.85516e-08
0.000165344
3.7093e-08
-3.43356e-08
0.000186263
8.31641e-12
-3.70756e-08
0.000196355
-3.7077e-08
-3.70758e-08
0.000196355
-6.16162e-08
-3.43361e-08
0.000186263
-6.53637e-08
-2.85524e-08
0.000165344
-2.09995e-08
0.00013435
-4.95529e-08
6.02021e-08
-3.50151e-08
0.000125441
-4.59538e-08
5.68316e-08
-4.7385e-08
0.000155432
3.43535e-08
-5.68158e-08
0.000175971
8.35291e-12
-6.16149e-08
0.000186263
-3.43375e-08
-6.16151e-08
0.000186263
-5.68178e-08
-5.68165e-08
0.000175971
-6.01916e-08
-4.73862e-08
0.000155432
-3.50165e-08
0.000125441
-4.59477e-08
5.06201e-08
-3.80743e-08
0.000108725
-3.94642e-08
4.74011e-08
-5.06075e-08
0.000136171
2.85696e-08
-6.01898e-08
0.000155432
8.23731e-12
-6.53624e-08
0.000165344
-2.8554e-08
-6.53627e-08
0.000165344
-4.73875e-08
-6.01907e-08
0.000155432
-5.06098e-08
-5.06089e-08
0.000136171
-3.80758e-08
0.000108725
-3.94582e-08
3.80859e-08
8.63326e-05
-3.10206e-08
-3.10268e-08
3.50302e-08
0.000108725
-3.94566e-08
2.10156e-08
0.000125441
-4.59464e-08
7.74319e-12
0.00013435
-4.95519e-08
-2.10009e-08
0.00013435
-4.95522e-08
-3.50177e-08
0.000125441
-4.59472e-08
-3.80764e-08
0.000108725
-3.94579e-08
8.63326e-05
-3.10216e-08
-3.10216e-08
1.96369e-08
1.96381e-08
8.63257e-05
-1.61706e-08
-1.61703e-08
1.79531e-08
2.5977e-08
0.000108722
-2.04924e-08
1.07488e-08
3.08098e-08
0.000125441
-2.37842e-08
1.46376e-11
3.3413e-08
0.000134353
-2.56024e-08
-1.07209e-08
3.34131e-08
0.000134353
-2.56025e-08
-1.79295e-08
3.08102e-08
0.000125441
-2.37843e-08
-1.96193e-08
2.59776e-08
0.000108722
-2.04924e-08
1.96389e-08
8.63257e-05
-1.616e-08
-1.61708e-08
2.59752e-08
1.79544e-08
0.000108722
-2.04908e-08
2.41981e-08
2.41998e-08
0.000136175
1.45614e-08
2.89578e-08
0.000155443
1.54501e-11
3.13722e-08
0.00016536
-1.45319e-08
3.13723e-08
0.00016536
-2.4173e-08
2.89583e-08
0.000155443
-2.59564e-08
2.42004e-08
0.000136175
1.79553e-08
0.000108722
-2.048e-08
3.0808e-08
1.07499e-08
0.000125441
-2.37825e-08
2.89563e-08
1.45628e-08
0.000155443
1.74776e-08
1.74789e-08
0.000175994
1.54192e-11
1.88537e-08
0.000186293
-1.74481e-08
1.88537e-08
0.000186293
-2.89309e-08
1.7479e-08
0.000175994
-3.0789e-08
1.45629e-08
0.000155443
1.07502e-08
0.000125441
-2.37716e-08
3.34113e-08
1.55959e-11
0.000134353
-2.56008e-08
3.13708e-08
1.66411e-11
0.00016536
1.88526e-08
1.64602e-11
0.000186293
1.51338e-11
1.60096e-11
0.000196393
-1.88234e-08
1.58803e-11
0.000196393
-3.13455e-08
1.60612e-11
0.000186293
-3.33922e-08
1.59721e-11
0.00016536
1.48305e-11
0.000134353
-2.55898e-08
3.34117e-08
-1.07201e-08
0.000134353
-2.5601e-08
3.13711e-08
-1.45309e-08
0.00016536
1.88527e-08
-1.74472e-08
0.000186293
1.50069e-11
-1.88226e-08
0.000196393
-1.88238e-08
-1.88229e-08
0.000196393
-3.13459e-08
-1.74481e-08
0.000186293
-3.33927e-08
-1.45323e-08
0.00016536
-1.07219e-08
0.000134353
-2.55902e-08
3.0809e-08
-1.79287e-08
0.000125441
-2.37832e-08
2.89571e-08
-2.41719e-08
0.000155443
1.74779e-08
-2.89299e-08
0.000175994
1.5007e-11
-3.13445e-08
0.000186293
-1.74492e-08
-3.1345e-08
0.000186293
-2.89323e-08
-2.89311e-08
0.000175994
-3.07903e-08
-2.41739e-08
0.000155443
-1.7931e-08
0.000125441
-2.37725e-08
2.59764e-08
-1.96185e-08
0.000108722
-2.04915e-08
2.41992e-08
-2.59552e-08
0.000136175
1.45616e-08
-3.07879e-08
0.000155443
1.46981e-11
-3.33912e-08
0.00016536
-1.45336e-08
-3.33916e-08
0.00016536
-2.41752e-08
-3.07893e-08
0.000155443
-2.59583e-08
-2.59573e-08
0.000136175
-1.96207e-08
0.000108722
-2.0481e-08
1.9638e-08
8.63257e-05
-1.61593e-08
-1.61699e-08
1.79543e-08
0.000108722
-2.04787e-08
1.07491e-08
0.000125441
-2.37704e-08
1.3704e-11
0.000134353
-2.55886e-08
-1.07231e-08
0.000134353
-2.5589e-08
-1.79322e-08
0.000125441
-2.37715e-08
-1.96214e-08
0.000108722
-2.04805e-08
8.63257e-05
-1.61602e-08
-1.61609e-08
9.78644e-09
9.78725e-09
8.63221e-05
-7.99229e-09
-7.99175e-09
8.99908e-09
1.29962e-08
0.000108719
-1.01537e-08
5.40975e-09
1.54524e-08
0.000125441
-1.18121e-08
2.31752e-11
1.67786e-08
0.000134355
-1.27318e-08
-5.36573e-09
1.67792e-08
0.000134355
-1.27322e-08
-8.9618e-09
1.54541e-08
0.000125441
-1.18133e-08
-9.7587e-09
1.29988e-08
0.00010872
-1.01556e-08
9.79026e-09
8.63221e-05
-7.97558e-09
-7.99356e-09
1.29949e-08
9.00024e-09
0.000108719
-1.01528e-08
1.21755e-08
1.21769e-08
0.000136177
7.3541e-09
1.46043e-08
0.000155449
2.50184e-11
1.58392e-08
0.000165369
-7.30644e-09
1.58397e-08
0.000165369
-1.21347e-08
1.46058e-08
0.000155449
-1.29644e-08
1.21792e-08
0.000136177
9.00316e-09
0.00010872
-1.01346e-08
1.54511e-08
5.41084e-09
0.000125441
-1.18109e-08
1.46032e-08
7.35532e-09
0.000155449
8.84552e-09
8.84651e-09
0.000176006
2.55485e-11
9.55185e-09
0.000186308
-8.79662e-09
9.55207e-09
0.000186308
-1.4561e-08
8.84722e-09
0.000176006
-1.54194e-08
7.35659e-09
0.000155449