/*--------------------------------*- C++ -*----------------------------------*\
| =========                 |                                                 |
| \\      /  F ield         | OpenFOAM: The Open Source CFD Toolbox           |
|  \\    /   O peration     | Version:  2406                                  |
|   \\  /    A nd           | Website:  www.openfoam.com                      |
|    \\/     M anipulation  |                                                 |
\*---------------------------------------------------------------------------*/
FoamFile
{
    version     2.0;
    format      ascii;
    arch        "LSB;label=32;scalar=64";
    class       volVectorField;
    location    "0.9";
    object      U;
}
// * * * * * * * * * * * * * * * * * * * * * * * * * * * * * * * * * * * * * //

dimensions      [0 1 -1 0 0 0 0];

internalField   nonuniform List<vector> 
16000
(
(0.153132 0.153132 1.11474)
(0.117573 0.168169 1.1542)
(0.072459 0.17688 1.17285)
(0.0244946 0.180953 1.18018)
(-0.0244946 0.180953 1.18018)
(-0.072459 0.17688 1.17285)
(-0.117573 0.168169 1.1542)
(-0.153132 0.153132 1.11474)
(0.168169 0.117573 1.1542)
(0.126109 0.126109 1.18728)
(0.0766337 0.131081 1.19757)
(0.0257137 0.133402 1.19978)
(-0.0257137 0.133402 1.19978)
(-0.0766337 0.131081 1.19757)
(-0.126109 0.126109 1.18728)
(-0.168169 0.117573 1.1542)
(0.17688 0.072459 1.17285)
(0.131081 0.0766337 1.19757)
(0.0792027 0.0792027 1.20176)
(0.0264749 0.0803911 1.20065)
(-0.0264749 0.0803911 1.20065)
(-0.0792027 0.0792027 1.20176)
(-0.131081 0.0766337 1.19757)
(-0.17688 0.072459 1.17285)
(0.180953 0.0244946 1.18018)
(0.133402 0.0257137 1.19978)
(0.0803911 0.0264749 1.20065)
(0.0268183 0.0268183 1.1979)
(-0.0268183 0.0268183 1.1979)
(-0.0803911 0.0264749 1.20065)
(-0.133402 0.0257137 1.19978)
(-0.180953 0.0244946 1.18018)
(0.180953 -0.0244946 1.18018)
(0.133402 -0.0257137 1.19978)
(0.0803911 -0.0264749 1.20065)
(0.0268183 -0.0268183 1.1979)
(-0.0268183 -0.0268183 1.1979)
(-0.0803911 -0.0264749 1.20065)
(-0.133402 -0.0257137 1.19978)
(-0.180953 -0.0244946 1.18018)
(0.17688 -0.072459 1.17285)
(0.131081 -0.0766337 1.19757)
(0.0792027 -0.0792027 1.20176)
(0.0264749 -0.0803911 1.20065)
(-0.0264749 -0.0803911 1.20065)
(-0.0792027 -0.0792027 1.20176)
(-0.131081 -0.0766337 1.19757)
(-0.17688 -0.072459 1.17285)
(0.168169 -0.117573 1.1542)
(0.126109 -0.126109 1.18728)
(0.0766337 -0.131081 1.19757)
(0.0257137 -0.133402 1.19978)
(-0.0257137 -0.133402 1.19978)
(-0.0766337 -0.131081 1.19757)
(-0.126109 -0.126109 1.18728)
(-0.168169 -0.117573 1.1542)
(0.153132 -0.153132 1.11474)
(0.117573 -0.168169 1.1542)
(0.072459 -0.17688 1.17285)
(0.0244946 -0.180953 1.18018)
(-0.0244946 -0.180953 1.18018)
(-0.072459 -0.17688 1.17285)
(-0.117573 -0.168169 1.1542)
(-0.153132 -0.153132 1.11474)
(0.0494154 0.0494154 1.29062)
(0.0414003 0.0615755 1.3895)
(0.0279271 0.0703803 1.44408)
(0.00984083 0.075171 1.46809)
(-0.00984083 0.075171 1.46809)
(-0.0279271 0.0703803 1.44408)
(-0.0414003 0.0615755 1.3895)
(-0.0494154 0.0494154 1.29062)
(0.0615755 0.0414003 1.3895)
(0.0531611 0.0531611 1.48728)
(0.0357288 0.0616406 1.53241)
(0.0125458 0.0660227 1.54992)
(-0.0125458 0.0660227 1.54992)
(-0.0357288 0.0616406 1.53241)
(-0.0531611 0.0531611 1.48728)
(-0.0615755 0.0414003 1.3895)
(0.0703803 0.0279271 1.44408)
(0.0616406 0.0357288 1.53241)
(0.0413007 0.0413007 1.57006)
(0.0144349 0.0441146 1.5832)
(-0.0144349 0.0441146 1.5832)
(-0.0413007 0.0413007 1.57006)
(-0.0616406 0.0357288 1.53241)
(-0.0703803 0.0279271 1.44408)
(0.075171 0.00984083 1.46809)
(0.0660227 0.0125458 1.54992)
(0.0441146 0.0144349 1.5832)
(0.0153734 0.0153734 1.59386)
(-0.0153734 0.0153734 1.59386)
(-0.0441146 0.0144349 1.5832)
(-0.0660227 0.0125458 1.54992)
(-0.0751711 0.00984083 1.46809)
(0.075171 -0.00984083 1.46809)
(0.0660227 -0.0125458 1.54992)
(0.0441146 -0.0144349 1.5832)
(0.0153734 -0.0153734 1.59386)
(-0.0153734 -0.0153734 1.59386)
(-0.0441146 -0.0144349 1.5832)
(-0.0660227 -0.0125458 1.54992)
(-0.0751711 -0.00984083 1.46809)
(0.0703803 -0.027927 1.44408)
(0.0616406 -0.0357288 1.53241)
(0.0413007 -0.0413007 1.57006)
(0.0144349 -0.0441146 1.5832)
(-0.0144349 -0.0441146 1.5832)
(-0.0413007 -0.0413007 1.57006)
(-0.0616406 -0.0357288 1.53241)
(-0.0703803 -0.027927 1.44408)
(0.0615755 -0.0414003 1.3895)
(0.0531611 -0.0531611 1.48728)
(0.0357288 -0.0616406 1.53241)
(0.0125458 -0.0660227 1.54992)
(-0.0125458 -0.0660227 1.54992)
(-0.0357288 -0.0616406 1.53241)
(-0.0531611 -0.0531611 1.48728)
(-0.0615755 -0.0414003 1.3895)
(0.0494154 -0.0494154 1.29062)
(0.0414003 -0.0615755 1.3895)
(0.027927 -0.0703803 1.44408)
(0.00984083 -0.075171 1.46809)
(-0.00984083 -0.075171 1.46809)
(-0.0279271 -0.0703803 1.44408)
(-0.0414003 -0.0615755 1.3895)
(-0.0494154 -0.0494154 1.29062)
(0.0295334 0.0295334 1.18369)
(0.0263057 0.0381217 1.33605)
(0.0179588 0.0440247 1.43119)
(0.00638113 0.0472238 1.47636)
(-0.00638113 0.0472238 1.47636)
(-0.0179588 0.0440247 1.43119)
(-0.0263057 0.0381217 1.33605)
(-0.0295334 0.0295334 1.18369)
(0.0381217 0.0263057 1.33605)
(0.03387 0.03387 1.50686)
(0.0231033 0.0393329 1.60045)
(0.00819889 0.0422271 1.64149)
(-0.00819889 0.0422271 1.64149)
(-0.0231033 0.0393329 1.60045)
(-0.03387 0.03387 1.50686)
(-0.0381217 0.0263057 1.33605)
(0.0440247 0.0179588 1.43119)
(0.0393329 0.0231033 1.60045)
(0.0268026 0.0268026 1.68906)
(0.00948465 0.028713 1.72654)
(-0.00948465 0.028713 1.72654)
(-0.0268026 0.0268026 1.68906)
(-0.0393329 0.0231033 1.60045)
(-0.0440247 0.0179588 1.43119)
(0.0472238 0.00638113 1.47636)
(0.042227 0.00819889 1.64149)
(0.028713 0.00948465 1.72654)
(0.0101528 0.0101528 1.76219)
(-0.0101528 0.0101528 1.76219)
(-0.028713 0.00948465 1.72654)
(-0.042227 0.00819889 1.64149)
(-0.0472238 0.00638113 1.47636)
(0.0472238 -0.00638113 1.47636)
(0.042227 -0.00819889 1.64149)
(0.028713 -0.00948464 1.72654)
(0.0101528 -0.0101528 1.76219)
(-0.0101528 -0.0101528 1.76219)
(-0.028713 -0.00948464 1.72654)
(-0.042227 -0.00819889 1.64149)
(-0.0472238 -0.00638113 1.47636)
(0.0440247 -0.0179588 1.43119)
(0.0393329 -0.0231033 1.60045)
(0.0268026 -0.0268026 1.68906)
(0.00948465 -0.028713 1.72654)
(-0.00948465 -0.028713 1.72654)
(-0.0268026 -0.0268026 1.68906)
(-0.0393329 -0.0231033 1.60045)
(-0.0440247 -0.0179588 1.43119)
(0.0381217 -0.0263057 1.33605)
(0.03387 -0.03387 1.50686)
(0.0231033 -0.0393329 1.60045)
(0.00819889 -0.042227 1.64149)
(-0.00819889 -0.042227 1.64149)
(-0.0231033 -0.0393329 1.60045)
(-0.03387 -0.03387 1.50686)
(-0.0381217 -0.0263057 1.33605)
(0.0295334 -0.0295334 1.18369)
(0.0263057 -0.0381217 1.33605)
(0.0179588 -0.0440247 1.43119)
(0.00638113 -0.0472238 1.47636)
(-0.00638113 -0.0472238 1.47636)
(-0.0179588 -0.0440247 1.43119)
(-0.0263057 -0.0381217 1.33605)
(-0.0295334 -0.0295334 1.18369)
(0.00607788 0.00607788 1.17735)
(0.00678721 0.00932593 1.34012)
(0.00531535 0.0121436 1.44756)
(0.00200434 0.0137879 1.50053)
(-0.00200434 0.0137879 1.50053)
(-0.00531535 0.0121436 1.44756)
(-0.00678721 0.00932593 1.34012)
(-0.00607788 0.00607788 1.17735)
(0.00932593 0.00678721 1.34012)
(0.010642 0.010642 1.53329)
(0.0082524 0.0137676 1.64786)
(0.00308277 0.0154575 1.70082)
(-0.00308277 0.0154575 1.70082)
(-0.0082524 0.0137676 1.64786)
(-0.010642 0.010642 1.53329)
(-0.00932593 0.00678721 1.34012)
(0.0121436 0.00531536 1.44756)
(0.0137676 0.0082524 1.64786)
(0.0104758 0.0104758 1.76219)
(0.00386311 0.0115575 1.81303)
(-0.00386311 0.0115575 1.81303)
(-0.0104758 0.0104758 1.76219)
(-0.0137676 0.0082524 1.64786)
(-0.0121436 0.00531536 1.44756)
(0.0137879 0.00200435 1.50053)
(0.0154575 0.00308277 1.70082)
(0.0115575 0.00386311 1.81303)
(0.00421153 0.00421154 1.8613)
(-0.00421153 0.00421154 1.8613)
(-0.0115575 0.00386311 1.81303)
(-0.0154575 0.00308277 1.70082)
(-0.0137879 0.00200435 1.50053)
(0.0137879 -0.00200434 1.50053)
(0.0154575 -0.00308276 1.70082)
(0.0115575 -0.0038631 1.81303)
(0.00421153 -0.00421153 1.8613)
(-0.00421153 -0.00421153 1.8613)
(-0.0115575 -0.0038631 1.81303)
(-0.0154575 -0.00308276 1.70082)
(-0.0137879 -0.00200434 1.50053)
(0.0121436 -0.00531535 1.44756)
(0.0137676 -0.00825239 1.64786)
(0.0104758 -0.0104758 1.76219)
(0.00386311 -0.0115575 1.81303)
(-0.00386311 -0.0115575 1.81303)
(-0.0104758 -0.0104758 1.76219)
(-0.0137676 -0.00825239 1.64786)
(-0.0121436 -0.00531535 1.44756)
(0.00932593 -0.00678721 1.34012)
(0.010642 -0.0106419 1.53329)
(0.0082524 -0.0137676 1.64786)
(0.00308277 -0.0154575 1.70082)
(-0.00308277 -0.0154575 1.70082)
(-0.0082524 -0.0137676 1.64786)
(-0.010642 -0.0106419 1.53329)
(-0.00932593 -0.00678721 1.34012)
(0.00607788 -0.00607788 1.17735)
(0.00678721 -0.00932593 1.34012)
(0.00531535 -0.0121436 1.44756)
(0.00200434 -0.0137879 1.50053)
(-0.00200434 -0.0137879 1.50053)
(-0.00531535 -0.0121436 1.44756)
(-0.00678721 -0.00932593 1.34012)
(-0.00607788 -0.00607788 1.17735)
(0.00420929 0.00420929 1.15879)
(0.00417758 0.00573707 1.32761)
(0.00305281 0.00697193 1.44156)
(0.00112169 0.00767951 1.4987)
(-0.00112169 0.00767951 1.4987)
(-0.00305281 0.00697193 1.44156)
(-0.00417758 0.00573707 1.32761)
(-0.00420929 0.00420929 1.15879)
(0.00573707 0.00417758 1.32761)
(0.0058271 0.00582711 1.53244)
(0.00432306 0.00720708 1.65824)
(0.00159285 0.00796351 1.71788)
(-0.00159285 0.00796351 1.71788)
(-0.00432306 0.00720708 1.65824)
(-0.0058271 0.0058271 1.53244)
(-0.00573707 0.00417758 1.32761)
(0.00697193 0.00305281 1.44156)
(0.00720708 0.00432306 1.65824)
(0.00533722 0.00533723 1.7871)
(0.00194952 0.00580511 1.84585)
(-0.00194951 0.00580511 1.84585)
(-0.00533722 0.00533723 1.7871)
(-0.00720707 0.00432306 1.65824)
(-0.00697194 0.00305281 1.44156)
(0.00767951 0.0011217 1.4987)
(0.00796351 0.00159285 1.71788)
(0.00580511 0.00194952 1.84585)
(0.00208328 0.00208329 1.90127)
(-0.00208328 0.00208329 1.90127)
(-0.0058051 0.00194952 1.84585)
(-0.00796351 0.00159285 1.71788)
(-0.00767951 0.00112169 1.4987)
(0.00767951 -0.00112169 1.4987)
(0.00796351 -0.00159285 1.71788)
(0.00580511 -0.00194951 1.84585)
(0.00208328 -0.00208328 1.90127)
(-0.00208328 -0.00208328 1.90127)
(-0.0058051 -0.00194951 1.84585)
(-0.00796351 -0.00159285 1.71788)
(-0.00767951 -0.00112169 1.4987)
(0.00697193 -0.00305281 1.44156)
(0.00720707 -0.00432305 1.65824)
(0.00533722 -0.00533722 1.7871)
(0.00194952 -0.0058051 1.84585)
(-0.00194952 -0.0058051 1.84585)
(-0.00533722 -0.00533722 1.7871)
(-0.00720707 -0.00432305 1.65824)
(-0.00697193 -0.00305281 1.44156)
(0.00573707 -0.00417758 1.32761)
(0.0058271 -0.0058271 1.53244)
(0.00432306 -0.00720707 1.65824)
(0.00159285 -0.0079635 1.71788)
(-0.00159285 -0.0079635 1.71788)
(-0.00432306 -0.00720707 1.65824)
(-0.0058271 -0.0058271 1.53244)
(-0.00573707 -0.00417758 1.32761)
(0.00420928 -0.00420928 1.15879)
(0.00417758 -0.00573707 1.32761)
(0.00305281 -0.00697193 1.44156)
(0.00112169 -0.00767951 1.4987)
(-0.00112169 -0.00767951 1.4987)
(-0.00305281 -0.00697193 1.44156)
(-0.00417758 -0.00573707 1.32761)
(-0.00420929 -0.00420928 1.15879)
(0.00130174 0.00130174 1.15563)
(0.00140465 0.00190345 1.3259)
(0.00109256 0.00244352 1.44189)
(0.000412969 0.00276631 1.50046)
(-0.000412966 0.00276631 1.50046)
(-0.00109256 0.00244352 1.44189)
(-0.00140465 0.00190345 1.3259)
(-0.00130174 0.00130174 1.15563)
(0.00190345 0.00140465 1.3259)
(0.0021453 0.0021453 1.53424)
(0.0016872 0.00280356 1.66415)
(0.000637027 0.00317699 1.72646)
(-0.000637025 0.00317699 1.72646)
(-0.0016872 0.00280356 1.66415)
(-0.00214529 0.0021453 1.53424)
(-0.00190345 0.00140465 1.3259)
(0.00244352 0.00109257 1.44189)
(0.00280356 0.0016872 1.66415)
(0.00219038 0.00219039 1.7989)
(0.000816973 0.0024356 1.86114)
(-0.000816971 0.0024356 1.86114)
(-0.00219038 0.00219039 1.7989)
(-0.00280356 0.0016872 1.66415)
(-0.00244352 0.00109257 1.44189)
(0.00276631 0.000412972 1.50046)
(0.00317699 0.000637031 1.72646)
(0.0024356 0.000816976 1.86114)
(0.000886494 0.000886496 1.91993)
(-0.000886491 0.000886496 1.91993)
(-0.0024356 0.000816976 1.86114)
(-0.00317699 0.000637031 1.72646)
(-0.00276631 0.000412972 1.50046)
(0.00276631 -0.000412963 1.50046)
(0.00317699 -0.000637021 1.72646)
(0.0024356 -0.000816967 1.86114)
(0.000886494 -0.000886488 1.91993)
(-0.000886491 -0.000886488 1.91993)
(-0.0024356 -0.000816967 1.86114)
(-0.00317699 -0.000637021 1.72646)
(-0.00276631 -0.000412963 1.50046)
(0.00244352 -0.00109256 1.44189)
(0.00280356 -0.00168719 1.66415)
(0.00219038 -0.00219038 1.7989)
(0.000816973 -0.00243559 1.86114)
(-0.000816971 -0.00243559 1.86114)
(-0.00219038 -0.00219038 1.7989)
(-0.00280355 -0.00168719 1.66415)
(-0.00244352 -0.00109256 1.44189)
(0.00190345 -0.00140464 1.3259)
(0.0021453 -0.00214529 1.53424)
(0.0016872 -0.00280355 1.66415)
(0.000637027 -0.00317699 1.72646)
(-0.000637025 -0.00317699 1.72646)
(-0.0016872 -0.00280355 1.66415)
(-0.00214529 -0.00214529 1.53424)
(-0.00190345 -0.00140464 1.3259)
(0.00130174 -0.00130174 1.15563)
(0.00140465 -0.00190345 1.3259)
(0.00109256 -0.00244351 1.44189)
(0.000412968 -0.00276631 1.50046)
(-0.000412966 -0.00276631 1.50046)
(-0.00109256 -0.00244352 1.44189)
(-0.00140465 -0.00190345 1.3259)
(-0.00130174 -0.00130174 1.15563)
(0.000792206 0.000792207 1.15296)
(0.000788357 0.00108156 1.32433)
(0.000581401 0.00132234 1.44146)
(0.000214724 0.00146385 1.50077)
(-0.000214716 0.00146385 1.50077)
(-0.000581394 0.00132234 1.44146)
(-0.000788352 0.00108156 1.32433)
(-0.000792204 0.000792208 1.15296)
(0.00108156 0.000788359 1.32433)
(0.00110842 0.00110842 1.53467)
(0.000833464 0.00139005 1.66657)
(0.000309539 0.00155285 1.73013)
(-0.000309532 0.00155285 1.73013)
(-0.000833457 0.00139005 1.66657)
(-0.00110841 0.00110842 1.53467)
(-0.00108156 0.00078836 1.32433)
(0.00132233 0.000581404 1.44146)
(0.00139004 0.000833468 1.66657)
(0.00105206 0.00105206 1.80409)
(0.000388562 0.00116373 1.86797)
(-0.000388555 0.00116373 1.86797)
(-0.00105205 0.00105206 1.80409)
(-0.00139004 0.000833467 1.66657)
(-0.00132233 0.000581404 1.44146)
(0.00146385 0.000214727 1.50077)
(0.00155285 0.000309543 1.73013)
(0.00116372 0.000388566 1.86797)
(0.000420376 0.000420379 1.92846)
(-0.00042037 0.000420379 1.92846)
(-0.00116372 0.000388565 1.86797)
(-0.00155285 0.000309543 1.73013)
(-0.00146385 0.000214727 1.50077)
(0.00146385 -0.000214713 1.50077)
(0.00155285 -0.000309528 1.73013)
(0.00116372 -0.000388552 1.86797)
(0.000420376 -0.000420366 1.92846)
(-0.00042037 -0.000420366 1.92846)
(-0.00116372 -0.000388552 1.86797)
(-0.00155285 -0.000309528 1.73013)
(-0.00146385 -0.000214713 1.50077)
(0.00132233 -0.000581391 1.44146)
(0.00139004 -0.000833453 1.66657)
(0.00105205 -0.00105205 1.80409)
(0.000388562 -0.00116371 1.86797)
(-0.000388556 -0.00116371 1.86797)
(-0.00105205 -0.00105205 1.80409)
(-0.00139004 -0.000833454 1.66657)
(-0.00132233 -0.000581392 1.44146)
(0.00108156 -0.000788347 1.32433)
(0.00110842 -0.00110841 1.53467)
(0.000833463 -0.00139003 1.66657)
(0.000309538 -0.00155284 1.73013)
(-0.000309533 -0.00155284 1.73013)
(-0.000833458 -0.00139003 1.66657)
(-0.00110841 -0.00110841 1.53467)
(-0.00108156 -0.000788349 1.32433)
(0.000792204 -0.000792199 1.15296)
(0.000788356 -0.00108155 1.32433)
(0.0005814 -0.00132233 1.44146)
(0.000214723 -0.00146384 1.50077)
(-0.000214717 -0.00146384 1.50077)
(-0.000581395 -0.00132233 1.44146)
(-0.000788352 -0.00108155 1.32433)
(-0.000792203 -0.000792202 1.15296)
(0.000340738 0.000340739 1.1521)
(0.000347868 0.000479675 1.32392)
(0.000260868 0.000598214 1.44154)
(9.69889e-05 0.00066825 1.50117)
(-9.69778e-05 0.000668251 1.50117)
(-0.000260858 0.000598216 1.44154)
(-0.000347861 0.000479677 1.32392)
(-0.000340734 0.000340743 1.1521)
(0.00047967 0.000347871 1.32392)
(0.000505482 0.000505486 1.53513)
(0.000384184 0.000642854 1.6679)
(0.000143143 0.000722076 1.732)
(-0.000143132 0.000722076 1.732)
(-0.000384173 0.000642855 1.6679)
(-0.000505474 0.000505488 1.53513)
(-0.000479667 0.000347875 1.32392)
(0.000598208 0.000260872 1.44154)
(0.000642849 0.000384188 1.6679)
(0.000489669 0.000489674 1.80663)
(0.000181206 0.000544347 1.87124)
(-0.000181195 0.000544347 1.87124)
(-0.000489659 0.000489674 1.80663)
(-0.000642841 0.00038419 1.6679)
(-0.000598205 0.000260874 1.44154)
(0.000668244 9.6993e-05 1.50117)
(0.000722071 0.000143148 1.732)
(0.000544342 0.00018121 1.87124)
(0.00019698 0.000196984 1.93251)
(-0.000196969 0.000196984 1.93251)
(-0.000544332 0.00018121 1.87124)
(-0.000722063 0.000143148 1.732)
(-0.00066824 9.69938e-05 1.50117)
(0.000668245 -9.69737e-05 1.50117)
(0.000722072 -0.000143127 1.732)
(0.000544343 -0.00018119 1.87124)
(0.00019698 -0.000196965 1.93251)
(-0.000196969 -0.000196966 1.93251)
(-0.000544332 -0.000181191 1.87124)
(-0.000722063 -0.000143127 1.732)
(-0.00066824 -9.69741e-05 1.50117)
(0.00059821 -0.000260854 1.44154)
(0.00064285 -0.000384169 1.6679)
(0.00048967 -0.000489655 1.80663)
(0.000181206 -0.000544328 1.87124)
(-0.000181195 -0.000544329 1.87124)
(-0.00048966 -0.000489656 1.80663)
(-0.000642842 -0.00038417 1.6679)
(-0.000598205 -0.000260855 1.44154)
(0.000479672 -0.000347856 1.32392)
(0.000505483 -0.000505469 1.53513)
(0.000384185 -0.000642837 1.6679)
(0.000143143 -0.000722059 1.732)
(-0.000143132 -0.00072206 1.732)
(-0.000384174 -0.000642838 1.6679)
(-0.000505474 -0.000505471 1.53513)
(-0.000479666 -0.000347859 1.32392)
(0.000340739 -0.000340729 1.1521)
(0.00034787 -0.00047966 1.32392)
(0.000260869 -0.0005982 1.44154)
(9.69892e-05 -0.000668236 1.50117)
(-9.69785e-05 -0.000668236 1.50117)
(-0.000260859 -0.000598202 1.44154)
(-0.000347861 -0.000479664 1.32392)
(-0.000340734 -0.000340733 1.1521)
(0.000183383 0.000183384 1.15155)
(0.000182643 0.00025299 1.32363)
(0.000134509 0.000310885 1.44151)
(4.95968e-05 0.000344809 1.5013)
(-4.95719e-05 0.00034481 1.5013)
(-0.000134486 0.000310885 1.44151)
(-0.000182624 0.000252991 1.32363)
(-0.00018337 0.000183387 1.15155)
(0.000252986 0.000182646 1.32363)
(0.000258964 0.000258968 1.5353)
(0.000193556 0.000324776 1.66852)
(7.16021e-05 0.000362592 1.73289)
(-7.15769e-05 0.000362592 1.73289)
(-0.000193533 0.000324777 1.66852)
(-0.000258944 0.000258969 1.5353)
(-0.000252974 0.000182648 1.32363)
(0.00031088 0.000134512 1.44151)
(0.000324772 0.00019356 1.66852)
(0.000243706 0.00024371 1.80785)
(8.9629e-05 0.000269597 1.87281)
(-8.96046e-05 0.000269597 1.87281)
(-0.000243684 0.000243711 1.80785)
(-0.000324754 0.000193561 1.66852)
(-0.000310869 0.000134514 1.44151)
(0.000344804 4.96002e-05 1.5013)
(0.000362588 7.16062e-05 1.73289)
(0.000269594 8.96327e-05 1.87281)
(9.70286e-05 9.70319e-05 1.93446)
(-9.70052e-05 9.70319e-05 1.93446)
(-0.000269572 8.96325e-05 1.87281)
(-0.00036257 7.16059e-05 1.73289)
(-0.000344794 4.96001e-05 1.5013)
(0.000344805 -4.95685e-05 1.5013)
(0.000362588 -7.15729e-05 1.73289)
(0.000269594 -8.9601e-05 1.87281)
(9.70286e-05 -9.7002e-05 1.93446)
(-9.70055e-05 -9.70024e-05 1.93446)
(-0.000269572 -8.9602e-05 1.87281)
(-0.00036257 -7.15744e-05 1.73289)
(-0.000344795 -4.95704e-05 1.5013)
(0.000310881 -0.000134483 1.44151)
(0.000324774 -0.000193529 1.66852)
(0.000243707 -0.00024368 1.80785)
(8.96288e-05 -0.000269568 1.87281)
(-8.96056e-05 -0.000269569 1.87281)
(-0.000243685 -0.000243682 1.80785)
(-0.000324756 -0.000193531 1.66852)
(-0.000310871 -0.000134486 1.44151)
(0.000252987 -0.00018262 1.32363)
(0.000258965 -0.00025894 1.5353)
(0.000193557 -0.00032475 1.66852)
(7.16017e-05 -0.000362566 1.73289)
(-7.15786e-05 -0.000362567 1.73289)
(-0.000193535 -0.000324752 1.66852)
(-0.000258947 -0.000258944 1.5353)
(-0.000252976 -0.000182625 1.32363)
(0.000183383 -0.000183366 1.15155)
(0.000182644 -0.000252967 1.32363)
(0.00013451 -0.000310862 1.44151)
(4.95962e-05 -0.000344788 1.5013)
(-4.95741e-05 -0.000344789 1.5013)
(-0.00013449 -0.000310866 1.44151)
(-0.000182627 -0.000252973 1.32363)
(-0.000183372 -0.000183372 1.15155)
(8.67795e-05 8.67803e-05 1.15132)
(8.7722e-05 0.000121333 1.32351)
(6.52306e-05 0.000150487 1.44152)
(2.41572e-05 0.000167621 1.50139)
(-2.4116e-05 0.000167623 1.50139)
(-6.51927e-05 0.000150491 1.44152)
(-8.76902e-05 0.000121339 1.32351)
(-8.67574e-05 8.67876e-05 1.15132)
(0.000121327 8.77247e-05 1.32351)
(0.000126305 0.000126309 1.53541)
(9.51266e-05 0.000159591 1.66884)
(3.52884e-05 0.00017865 1.73335)
(-3.52457e-05 0.000178652 1.73335)
(-9.50872e-05 0.000159594 1.66884)
(-0.000126272 0.000126314 1.53541)
(-0.000121305 8.77313e-05 1.32351)
(0.00015048 6.52341e-05 1.44152)
(0.000159586 9.5131e-05 1.66884)
(0.00012037 0.000120374 1.80847)
(4.43338e-05 0.000133335 1.8736)
(-4.42915e-05 0.000133335 1.8736)
(-0.000120331 0.000120376 1.80847)
(-0.000159553 9.51342e-05 1.66884)
(-0.000150458 6.52384e-05 1.44152)
(0.000167614 2.41607e-05 1.50139)
(0.000178646 3.52926e-05 1.73335)
(0.000133331 4.43375e-05 1.8736)
(4.80232e-05 4.80265e-05 1.93544)
(-4.79818e-05 4.80267e-05 1.93544)
(-0.000133292 4.43379e-05 1.8736)
(-0.000178613 3.52933e-05 1.73335)
(-0.000167591 2.41618e-05 1.50139)
(0.000167616 -2.41128e-05 1.50139)
(0.000178647 -3.5242e-05 1.73335)
(0.000133331 -4.42882e-05 1.8736)
(4.80234e-05 -4.7979e-05 1.93544)
(-4.79823e-05 -4.79794e-05 1.93544)
(-0.000133293 -4.42894e-05 1.8736)
(-0.000178614 -3.52439e-05 1.73335)
(-0.000167593 -2.4115e-05 1.50139)
(0.000150484 -6.51899e-05 1.44152)
(0.000159589 -9.50838e-05 1.66884)
(0.000120372 -0.000120328 1.80847)
(4.43342e-05 -0.000133289 1.8736)
(-4.42928e-05 -0.00013329 1.8736)
(-0.000120333 -0.000120331 1.80847)
(-0.000159557 -9.50882e-05 1.66884)
(-0.000150461 -6.51951e-05 1.44152)
(0.000121333 -8.76865e-05 1.32351)
(0.00012631 -0.000126268 1.53541)
(9.51298e-05 -0.00015955 1.66884)
(3.5289e-05 -0.00017861 1.73335)
(-3.52478e-05 -0.000178612 1.73335)
(-9.50916e-05 -0.000159554 1.66884)
(-0.000126277 -0.000126275 1.53541)
(-0.000121309 -8.76943e-05 1.32351)
(8.67838e-05 -8.6753e-05 1.15132)
(8.77269e-05 -0.0001213 1.32351)
(6.52344e-05 -0.000150454 1.44152)
(2.41579e-05 -0.000167588 1.50139)
(-2.41186e-05 -0.00016759 1.50139)
(-6.51981e-05 -0.000150459 1.44152)
(-8.76961e-05 -0.000121308 1.32351)
(-8.67618e-05 -8.67618e-05 1.15132)
(4.52323e-05 4.5233e-05 1.15119)
(4.53852e-05 6.27636e-05 1.32345)
(3.35885e-05 7.74398e-05 1.44152)
(1.24309e-05 8.60479e-05 1.50143)
(-1.23567e-05 8.60498e-05 1.50143)
(-3.35201e-05 7.74447e-05 1.44152)
(-4.53269e-05 6.27705e-05 1.32345)
(-4.51902e-05 4.52426e-05 1.15119)
(6.27587e-05 4.53874e-05 1.32345)
(6.47802e-05 6.47841e-05 1.53546)
(4.86086e-05 8.15095e-05 1.669)
(1.80245e-05 9.1089e-05 1.73357)
(-1.79474e-05 9.10907e-05 1.73357)
(-4.85373e-05 8.15144e-05 1.669)
(-6.472e-05 6.47912e-05 1.53546)
(-6.27158e-05 4.53962e-05 1.32345)
(7.74342e-05 3.3591e-05 1.44152)
(8.15057e-05 4.8612e-05 1.669)
(6.1305e-05 6.1308e-05 1.80878)
(2.25717e-05 6.78151e-05 1.874)
(-2.24953e-05 6.78161e-05 1.874)
(-6.1234e-05 6.1311e-05 1.80878)
(-8.1446e-05 4.86165e-05 1.669)
(-7.73924e-05 3.35968e-05 1.44152)
(8.60424e-05 1.24333e-05 1.50143)
(9.10853e-05 1.80277e-05 1.73357)
(6.78123e-05 2.25744e-05 1.874)
(2.44149e-05 2.44171e-05 1.93593)
(-2.43401e-05 2.44173e-05 1.93593)
(-6.77423e-05 2.25748e-05 1.874)
(-9.10263e-05 1.80281e-05 1.73357)
(-8.60014e-05 1.24342e-05 1.50143)
(8.60445e-05 -1.23543e-05 1.50143)
(9.10872e-05 -1.79445e-05 1.73357)
(6.78134e-05 -2.24929e-05 1.874)
(2.44151e-05 -2.43381e-05 1.93593)
(-2.43409e-05 -2.43389e-05 1.93593)
(-6.7744e-05 -2.24952e-05 1.874)
(-9.10287e-05 -1.79483e-05 1.73357)
(-8.60042e-05 -1.23589e-05 1.50143)
(7.74399e-05 -3.35177e-05 1.44152)
(8.15109e-05 -4.85344e-05 1.669)
(6.13081e-05 -6.12314e-05 1.80878)
(2.25721e-05 -6.77401e-05 1.874)
(-2.24977e-05 -6.77418e-05 1.874)
(-6.12389e-05 -6.12366e-05 1.80878)
(-8.14528e-05 -4.85424e-05 1.669)
(-7.74e-05 -3.35273e-05 1.44152)
(6.2766e-05 -4.53236e-05 1.32345)
(6.47875e-05 -6.47164e-05 1.53546)
(4.86132e-05 -8.14428e-05 1.669)
(1.80249e-05 -9.10235e-05 1.73357)
(-1.79514e-05 -9.10262e-05 1.73357)
(-4.85451e-05 -8.14505e-05 1.669)
(-6.47302e-05 -6.47279e-05 1.53546)
(-6.27262e-05 -4.53373e-05 1.32345)
(4.52387e-05 -4.51862e-05 1.15119)
(4.53923e-05 -6.27096e-05 1.32345)
(3.35937e-05 -7.73869e-05 1.44152)
(1.24311e-05 -8.59965e-05 1.50143)
(-1.23617e-05 -8.59998e-05 1.50143)
(-3.35296e-05 -7.73963e-05 1.44152)
(-4.53386e-05 -6.27239e-05 1.32345)
(-4.52009e-05 -4.52016e-05 1.15119)
(2.23659e-05 2.23656e-05 1.15113)
(2.2599e-05 3.11936e-05 1.32341)
(1.68192e-05 3.86362e-05 1.44152)
(6.26528e-06 4.30148e-05 1.50145)
(-6.14764e-06 4.30196e-05 1.50145)
(-1.67108e-05 3.86495e-05 1.44152)
(-2.25078e-05 3.1213e-05 1.32341)
(-2.23e-05 2.2387e-05 1.15113)
(3.11902e-05 2.26004e-05 1.32341)
(3.24609e-05 3.24635e-05 1.53548)
(2.44831e-05 4.09947e-05 1.66908)
(9.12482e-06 4.58885e-05 1.73369)
(-8.99964e-06 4.58924e-05 1.73369)
(-2.43674e-05 4.1006e-05 1.66908)
(-3.23636e-05 3.24805e-05 1.53548)
(-3.11203e-05 2.26202e-05 1.32341)
(3.86319e-05 1.68214e-05 1.44152)
(4.09921e-05 2.44858e-05 1.66908)
(3.09735e-05 3.09756e-05 1.80894)
(1.14521e-05 3.43091e-05 1.8742)
(-1.13253e-05 3.43115e-05 1.8742)
(-3.08556e-05 3.09827e-05 1.80894)
(-4.0893e-05 2.44967e-05 1.66908)
(-3.85608e-05 1.68345e-05 1.44152)
(4.301e-05 6.2676e-06 1.50145)
(4.58859e-05 9.12739e-06 1.73369)
(3.43071e-05 1.14541e-05 1.8742)
(1.23983e-05 1.23999e-05 1.93618)
(-1.22723e-05 1.24007e-05 1.93618)
(-3.41892e-05 1.14563e-05 1.8742)
(-4.57862e-05 9.13083e-06 1.73369)
(-4.29383e-05 6.27192e-06 1.50145)
(4.30146e-05 -6.1454e-06 1.50145)
(4.58897e-05 -8.99722e-06 1.73369)
(3.43095e-05 -1.13235e-05 1.8742)
(1.23992e-05 -1.22709e-05 1.93618)
(-1.22733e-05 -1.22719e-05 1.93618)
(-3.41917e-05 -1.13263e-05 1.8742)
(-4.579e-05 -9.00159e-06 1.73369)
(-4.29427e-05 -6.15063e-06 1.50145)
(3.86448e-05 -1.67087e-05 1.44152)
(4.10031e-05 -2.4365e-05 1.66908)
(3.09804e-05 -3.08538e-05 1.80894)
(1.14543e-05 -3.41877e-05 1.8742)
(-1.13281e-05 -3.41903e-05 1.8742)
(-3.08631e-05 -3.08614e-05 1.80894)
(-4.09039e-05 -2.43769e-05 1.66908)
(-3.85727e-05 -1.67226e-05 1.44152)
(3.12086e-05 -2.25048e-05 1.32341)
(3.24772e-05 -3.23606e-05 1.53548)
(2.44938e-05 -4.08906e-05 1.66908)
(9.12804e-06 -4.57844e-05 1.73369)
(-9.0041e-06 -4.57886e-05 1.73369)
(-2.4379e-05 -4.09027e-05 1.66908)
(-3.23801e-05 -3.23787e-05 1.53548)
(-3.11372e-05 -2.25253e-05 1.32341)
(2.23838e-05 -2.22961e-05 1.15113)
(2.26168e-05 -3.11155e-05 1.32341)
(1.68317e-05 -3.85574e-05 1.44152)
(6.26914e-06 -4.29359e-05 1.50145)
(-6.15313e-06 -4.29411e-05 1.50145)
(-1.67246e-05 -3.85719e-05 1.44152)
(-2.25265e-05 -3.1137e-05 1.32341)
(-2.23179e-05 -2.23183e-05 1.15113)
(1.15296e-05 1.15296e-05 1.1511)
(1.16318e-05 1.60269e-05 1.3234)
(8.66402e-06 1.98062e-05 1.44152)
(3.26869e-06 2.20312e-05 1.50146)
(-3.07691e-06 2.20383e-05 1.50146)
(-8.48748e-06 1.98258e-05 1.44152)
(-1.14833e-05 1.60554e-05 1.3234)
(-1.14224e-05 1.15606e-05 1.1511)
(1.60251e-05 1.16327e-05 1.3234)
(1.66386e-05 1.664e-05 1.5355)
(1.25588e-05 2.09724e-05 1.66912)
(4.72641e-06 2.34622e-05 1.73375)
(-4.5193e-06 2.34683e-05 1.73375)
(-1.23675e-05 2.09895e-05 1.66912)
(-1.64778e-05 1.66652e-05 1.5355)
(-1.59096e-05 1.16616e-05 1.3234)
(1.98043e-05 8.66517e-06 1.44152)
(2.09713e-05 1.256e-05 1.66912)
(1.58616e-05 1.58622e-05 1.80902)
(5.91294e-06 1.75621e-05 1.8743)
(-5.70123e-06 1.75658e-05 1.8743)
(-1.56651e-05 1.5873e-05 1.80902)
(-2.08062e-05 1.25764e-05 1.66912)
(-1.96866e-05 8.68452e-06 1.44152)
(2.20293e-05 3.26988e-06 1.50146)
(2.34613e-05 4.72757e-06 1.73375)
(1.75617e-05 5.91348e-06 1.8743)
(6.39578e-06 6.39588e-06 1.9363)
(-6.18452e-06 6.39713e-06 1.9363)
(-1.73642e-05 5.91677e-06 1.8743)
(-2.3295e-05 4.73259e-06 1.73375)
(-2.1911e-05 3.27602e-06 1.50146)
(2.20364e-05 -3.07558e-06 1.50146)
(2.34673e-05 -4.51799e-06 1.73375)
(1.75654e-05 -5.70056e-06 1.8743)
(6.39699e-06 -6.1843e-06 1.9363)
(-6.18619e-06 -6.18594e-06 1.9363)
(-1.73683e-05 -5.70506e-06 1.8743)
(-2.33013e-05 -4.52499e-06 1.73375)
(-2.19184e-05 -3.08394e-06 1.50146)
(1.98241e-05 -8.48602e-06 1.44152)
(2.09883e-05 -1.23659e-05 1.66912)
(1.58722e-05 -1.5664e-05 1.80902)
(5.91609e-06 -1.73635e-05 1.8743)
(-5.70586e-06 -1.73676e-05 1.8743)
(-1.56771e-05 -1.5676e-05 1.80902)
(-2.08243e-05 -1.23842e-05 1.66912)
(-1.97072e-05 -8.50744e-06 1.44152)
(1.60534e-05 -1.14811e-05 1.3234)
(1.66636e-05 -1.64753e-05 1.5355)
(1.2575e-05 -2.08041e-05 1.66912)
(4.73105e-06 -2.32932e-05 1.73375)
(-4.52663e-06 -2.32997e-05 1.73375)
(-1.2386e-05 -2.08227e-05 1.66912)
(-1.65046e-05 -1.65028e-05 1.5355)
(-1.5939e-05 -1.15123e-05 1.3234)
(1.1558e-05 -1.14196e-05 1.1511)
(1.16591e-05 -1.59043e-05 1.3234)
(8.68263e-06 -1.96816e-05 1.44152)
(3.27411e-06 -2.19064e-05 1.50146)
(-3.08585e-06 -2.19141e-05 1.50146)
(-8.50926e-06 -1.97035e-05 1.44152)
(-1.15135e-05 -1.59365e-05 1.3234)
(-1.1453e-05 -1.14532e-05 1.1511)
(5.86154e-06 5.86311e-06 1.15108)
(5.94551e-06 8.15729e-06 1.32339)
(4.46795e-06 1.00899e-05 1.44152)
(1.74882e-06 1.12324e-05 1.50146)
(-1.46231e-06 1.12434e-05 1.50146)
(-4.20468e-06 1.01204e-05 1.44152)
(-5.72515e-06 8.20132e-06 1.32339)
(-5.70207e-06 5.90798e-06 1.15108)
(8.1541e-06 5.94832e-06 1.32339)
(8.50858e-06 8.51122e-06 1.5355)
(6.46784e-06 1.07301e-05 1.66914)
(2.50503e-06 1.20086e-05 1.73377)
(-2.18777e-06 1.20179e-05 1.73377)
(-6.17513e-06 1.07567e-05 1.66915)
(-8.26335e-06 8.55027e-06 1.5355)
(-7.97664e-06 5.99162e-06 1.32339)
(1.00867e-05 4.4712e-06 1.44152)
(1.07281e-05 6.4704e-06 1.66914)
(8.16244e-06 8.16406e-06 1.80906)
(3.11736e-06 9.03815e-06 1.87436)
(-2.78726e-06 9.04401e-06 1.87436)
(-7.8564e-06 8.18118e-06 1.80906)
(-1.04712e-05 6.49628e-06 1.66915)
(-9.90149e-06 4.50085e-06 1.44152)
(1.12293e-05 1.75199e-06 1.50146)
(1.2007e-05 2.50746e-06 1.73377)
(9.03701e-06 3.1188e-06 1.87436)
(3.3669e-06 3.36779e-06 1.93637)
(-3.03445e-06 3.36997e-06 1.93637)
(-8.72646e-06 3.12469e-06 1.87436)
(-1.17454e-05 2.51656e-06 1.73378)
(-1.10403e-05 1.76281e-06 1.50146)
(1.12404e-05 -1.45943e-06 1.50146)
(1.20163e-05 -2.18556e-06 1.73377)
(9.04282e-06 -2.78595e-06 1.87436)
(3.36897e-06 -3.03361e-06 1.93637)
(-3.03678e-06 -3.03575e-06 1.93637)
(-8.73247e-06 -2.79168e-06 1.87436)
(-1.17548e-05 -2.19421e-06 1.73378)
(-1.1051e-05 -1.46945e-06 1.50146)
(1.01176e-05 -4.2022e-06 1.44152)
(1.07548e-05 -6.17309e-06 1.66915)
(8.17941e-06 -7.85503e-06 1.80906)
(3.12289e-06 -8.7254e-06 1.87436)
(-2.79357e-06 -8.73119e-06 1.87436)
(-7.87395e-06 -7.87191e-06 1.80906)
(-1.04978e-05 -6.19842e-06 1.66915)