/*--------------------------------*- C++ -*----------------------------------*\
| =========                 |                                                 |
| \\      /  F ield         | OpenFOAM: The Open Source CFD Toolbox           |
|  \\    /   O peration     | Version:  2406                                  |
|   \\  /    A nd           | Website:  www.openfoam.com                      |
|    \\/     M anipulation  |                                                 |
\*---------------------------------------------------------------------------*/
FoamFile
{
    version     2.0;
    format      ascii;
    arch        "LSB;label=32;scalar=64";
    class       volScalarField;
    location    "1.4";
    object      div(phi);
}
// * * * * * * * * * * * * * * * * * * * * * * * * * * * * * * * * * * * * * //

dimensions      [0 0 -1 0 0 0 0];

internalField   nonuniform List<scalar> 
25000
(
-1.90718e-06
-1.85569e-06
-1.92618e-06
-1.99832e-06
-2.07954e-06
-2.07899e-06
-2.13294e-06
-2.18596e-06
-2.10799e-06
-1.84205e-06
-1.8399e-06
-1.65101e-06
-1.75269e-06
-1.79664e-06
-1.78584e-06
-1.83682e-06
-1.81796e-06
-1.82597e-06
-1.87886e-06
-1.51071e-06
-1.97051e-06
-1.78464e-06
-1.80998e-06
-1.88434e-06
-1.89093e-06
-1.82798e-06
-1.8785e-06
-1.93234e-06
-1.85116e-06
-1.56472e-06
-2.04398e-06
-1.77352e-06
-1.9038e-06
-1.93252e-06
-1.90453e-06
-1.90374e-06
-1.89705e-06
-1.91051e-06
-1.916e-06
-1.57658e-06
-2.08224e-06
-1.82825e-06
-1.88784e-06
-1.95328e-06
-1.93292e-06
-1.88782e-06
-1.90454e-06
-1.93972e-06
-1.893e-06
-1.57341e-06
-2.08092e-06
-1.77835e-06
-1.88106e-06
-1.91101e-06
-1.90282e-06
-1.86089e-06
-1.86993e-06
-1.89637e-06
-1.86297e-06
-1.5399e-06
-2.04291e-06
-1.72339e-06
-1.78447e-06
-1.85222e-06
-1.79398e-06
-1.78431e-06
-1.80702e-06
-1.81038e-06
-1.79426e-06
-1.46954e-06
-1.92871e-06
-1.64277e-06
-1.69751e-06
-1.71075e-06
-1.70739e-06
-1.71285e-06
-1.68798e-06
-1.73808e-06
-1.70571e-06
-1.3977e-06
-1.82593e-06
-1.47357e-06
-1.55118e-06
-1.57292e-06
-1.58789e-06
-1.55605e-06
-1.58274e-06
-1.59155e-06
-1.55169e-06
-1.22861e-06
-1.46669e-06
-1.18977e-06
-1.24008e-06
-1.27392e-06
-1.27364e-06
-1.28352e-06
-1.27501e-06
-1.26925e-06
-1.19806e-06
-9.57838e-07
-3.06739e-06
-2.78404e-06
-2.73332e-06
-2.67618e-06
-2.62562e-06
-2.56858e-06
-2.58406e-06
-2.66002e-06
-2.66391e-06
-2.31456e-06
-2.67039e-06
-2.19982e-06
-2.1665e-06
-2.13034e-06
-2.05704e-06
-2.04829e-06
-2.04686e-06
-2.08984e-06
-2.17835e-06
-1.83038e-06
-2.55231e-06
-2.12215e-06
-2.08914e-06
-2.10181e-06
-2.05642e-06
-1.98409e-06
-2.00342e-06
-2.06183e-06
-2.0731e-06
-1.80612e-06
-2.4501e-06
-1.99951e-06
-2.06167e-06
-2.07202e-06
-2.01964e-06
-1.97837e-06
-1.97578e-06
-2.00266e-06
-2.03208e-06
-1.76804e-06
-2.35549e-06
-1.94526e-06
-1.9925e-06
-2.03075e-06
-1.98726e-06
-1.94156e-06
-1.94301e-06
-1.97209e-06
-1.98723e-06
-1.72455e-06
-2.30945e-06
-1.86979e-06
-1.9249e-06
-1.9514e-06
-1.93188e-06
-1.87435e-06
-1.88933e-06
-1.92952e-06
-1.93259e-06
-1.68756e-06
-2.24537e-06
-1.78734e-06
-1.81881e-06
-1.86481e-06
-1.79623e-06
-1.79077e-06
-1.8229e-06
-1.8384e-06
-1.89281e-06
-1.63518e-06
-2.15103e-06
-1.72981e-06
-1.72714e-06
-1.71743e-06
-1.702e-06
-1.7185e-06
-1.70605e-06
-1.80521e-06
-1.85016e-06
-1.59037e-06
-2.05367e-06
-1.59876e-06
-1.61891e-06
-1.60564e-06
-1.61426e-06
-1.58465e-06
-1.66017e-06
-1.71839e-06
-1.7608e-06
-1.43999e-06
-1.66922e-06
-1.33419e-06
-1.35469e-06
-1.36728e-06
-1.35454e-06
-1.38503e-06
-1.40551e-06
-1.4436e-06
-1.40798e-06
-1.12036e-06
-2.28354e-06
-2.27262e-06
-2.33758e-06
-2.40018e-06
-2.51898e-06
-2.59997e-06
-2.75592e-06
-2.92908e-06
-2.92771e-06
-2.53415e-06
-2.23908e-06
-1.98957e-06
-2.02917e-06
-2.05139e-06
-2.03847e-06
-2.13843e-06
-2.22631e-06
-2.34712e-06
-2.50968e-06
-2.0814e-06
-2.42258e-06
-2.08501e-06
-2.0326e-06
-2.04523e-06
-2.04045e-06
-2.02483e-06
-2.15229e-06
-2.3327e-06
-2.39709e-06
-2.10449e-06
-2.5239e-06
-2.05916e-06
-2.07506e-06
-2.04129e-06
-1.99409e-06
-2.01413e-06
-2.09446e-06
-2.23154e-06
-2.37981e-06
-2.08341e-06
-2.60183e-06
-2.11229e-06
-2.05539e-06
-2.04925e-06
-2.00008e-06
-1.98372e-06
-2.06607e-06
-2.21511e-06
-2.32481e-06
-2.05863e-06
-2.64542e-06
-2.10392e-06
-2.09032e-06
-2.0412e-06
-2.00468e-06
-1.97441e-06
-2.05259e-06
-2.19475e-06
-2.30621e-06
-2.02931e-06
-2.68958e-06
-2.13053e-06
-2.07134e-06
-2.06543e-06
-1.96277e-06
-1.97011e-06
-2.06479e-06
-2.17339e-06
-2.2886e-06
-1.98569e-06
-2.637e-06
-2.13476e-06
-2.09611e-06
-2.02645e-06
-1.98357e-06
-2.0106e-06
-2.03977e-06
-2.19413e-06
-2.28082e-06
-1.92908e-06
-2.56385e-06
-2.04111e-06
-2.04246e-06
-2.00389e-06
-1.99075e-06
-1.9607e-06
-2.05266e-06
-2.13993e-06
-2.16022e-06
-1.73403e-06
-2.07342e-06
-1.68253e-06
-1.71546e-06
-1.7276e-06
-1.70907e-06
-1.73462e-06
-1.74921e-06
-1.76878e-06
-1.69201e-06
-1.31952e-06
-5.50105e-06
-5.02574e-06
-4.90918e-06
-4.70229e-06
-4.46564e-06
-4.275e-06
-4.20468e-06
-4.24592e-06
-4.20833e-06
-3.53219e-06
-4.82643e-06
-4.01345e-06
-3.84743e-06
-3.62278e-06
-3.3773e-06
-3.2713e-06
-3.274e-06
-3.35407e-06
-3.4394e-06
-2.82515e-06
-4.54563e-06
-3.74475e-06
-3.53484e-06
-3.33413e-06
-3.10074e-06
-2.9584e-06
-3.01793e-06
-3.17576e-06
-3.26133e-06
-2.77555e-06
-4.27507e-06
-3.42306e-06
-3.27209e-06
-3.04302e-06
-2.78928e-06
-2.68675e-06
-2.79757e-06
-2.98112e-06
-3.11107e-06
-2.70715e-06
-4.05122e-06
-3.21546e-06
-3.05301e-06
-2.82225e-06
-2.56761e-06
-2.50675e-06
-2.63957e-06
-2.85033e-06
-3.01506e-06
-2.62652e-06
-3.92517e-06
-3.08754e-06
-2.92815e-06
-2.72088e-06
-2.52049e-06
-2.43674e-06
-2.58886e-06
-2.80941e-06
-2.93681e-06
-2.56561e-06
-3.81573e-06
-2.9879e-06
-2.86507e-06
-2.72867e-06
-2.5074e-06
-2.48473e-06
-2.62229e-06
-2.76434e-06
-2.90853e-06
-2.50271e-06
-3.66431e-06
-2.93583e-06
-2.83133e-06
-2.67771e-06
-2.55749e-06
-2.56757e-06
-2.59746e-06
-2.79436e-06
-2.89909e-06
-2.41993e-06
-3.47049e-06
-2.76804e-06
-2.70475e-06
-2.61752e-06
-2.55502e-06
-2.494e-06
-2.61686e-06
-2.72531e-06
-2.74699e-06
-2.19989e-06
-2.79277e-06
-2.23205e-06
-2.24528e-06
-2.2185e-06
-2.16767e-06
-2.19101e-06
-2.21318e-06
-2.23905e-06
-2.16284e-06
-1.66394e-06
-3.92935e-06
-3.87363e-06
-3.96788e-06
-4.00292e-06
-4.12442e-06
-4.23659e-06
-4.43464e-06
-4.61057e-06
-4.64195e-06
-3.8729e-06
-3.79111e-06
-3.3946e-06
-3.40584e-06
-3.41281e-06
-3.35422e-06
-3.43031e-06
-3.5725e-06
-3.74745e-06
-3.84081e-06
-3.14846e-06
-3.91997e-06
-3.40867e-06
-3.35902e-06
-3.29855e-06
-3.2033e-06
-3.18524e-06
-3.35595e-06
-3.58122e-06
-3.69289e-06
-3.11946e-06
-3.98482e-06
-3.31843e-06
-3.27444e-06
-3.13418e-06
-2.93688e-06
-2.92307e-06
-3.15007e-06
-3.40868e-06
-3.55011e-06
-3.06419e-06
-4.00425e-06
-3.27827e-06
-3.17636e-06
-2.98116e-06
-2.72127e-06
-2.74073e-06
-3.002e-06
-3.29067e-06
-3.46469e-06
-2.99804e-06
-4.01332e-06
-3.25675e-06
-3.16717e-06
-2.95913e-06
-2.75986e-06
-2.73049e-06
-2.99075e-06
-3.26808e-06
-3.40998e-06
-2.9407e-06
-4.0463e-06
-3.25581e-06
-3.17398e-06
-3.08967e-06
-2.86251e-06
-2.88738e-06
-3.07756e-06
-3.26022e-06
-3.38034e-06
-2.89412e-06
-3.93982e-06
-3.25979e-06
-3.21355e-06
-3.08919e-06
-2.99637e-06
-3.03163e-06
-3.08921e-06
-3.28762e-06
-3.40241e-06
-2.79771e-06
-3.81462e-06
-3.10645e-06
-3.11629e-06
-3.05783e-06
-3.0248e-06
-2.97485e-06
-3.10543e-06
-3.23381e-06
-3.20374e-06
-2.55378e-06
-3.0638e-06
-2.52046e-06
-2.58336e-06
-2.60027e-06
-2.56681e-06
-2.6006e-06
-2.62063e-06
-2.62169e-06
-2.50163e-06
-1.91425e-06
-7.91824e-06
-7.31635e-06
-7.25792e-06
-6.96838e-06
-6.68017e-06
-6.46865e-06
-6.33744e-06
-6.28187e-06
-6.29953e-06
-5.1132e-06
-6.99932e-06
-5.92728e-06
-5.65894e-06
-5.42033e-06
-5.10001e-06
-4.8694e-06
-4.92688e-06
-5.02694e-06
-4.93013e-06
-4.05247e-06
-6.4352e-06
-5.368e-06
-5.21391e-06
-4.89799e-06
-4.54167e-06
-4.4036e-06
-4.41106e-06
-4.55388e-06
-4.73075e-06
-3.87974e-06
-6.01068e-06
-4.91537e-06
-4.66024e-06
-4.37288e-06
-3.97369e-06
-3.76879e-06
-4.01487e-06
-4.28584e-06
-4.32446e-06
-3.75446e-06
-5.58818e-06
-4.46853e-06
-4.33111e-06
-3.9234e-06
-3.46491e-06
-3.45074e-06
-3.68343e-06
-3.96528e-06
-4.21554e-06
-3.58587e-06
-5.3688e-06
-4.30769e-06
-4.06234e-06
-3.75434e-06
-3.41803e-06
-3.29426e-06
-3.59885e-06
-3.92031e-06
-4.02437e-06
-3.48477e-06
-5.18311e-06
-4.09521e-06
-3.99004e-06
-3.7924e-06
-3.45742e-06
-3.45585e-06
-3.64524e-06
-3.82205e-06
-3.98958e-06
-3.39812e-06
-4.95162e-06
-4.03408e-06
-3.91659e-06
-3.723e-06
-3.56482e-06
-3.56694e-06
-3.61585e-06
-3.8568e-06
-3.97833e-06
-3.27035e-06
-4.6915e-06
-3.79318e-06
-3.73789e-06
-3.64008e-06
-3.55587e-06
-3.47765e-06
-3.63307e-06
-3.77406e-06
-3.75873e-06
-3.00443e-06
-3.76976e-06
-3.05139e-06
-3.0965e-06
-3.07356e-06
-3.00839e-06
-3.03667e-06
-3.06079e-06
-3.07035e-06
-2.95562e-06
-2.25407e-06
-7.0181e-06
-6.76818e-06
-6.91783e-06
-6.77328e-06
-6.73388e-06
-6.72774e-06
-6.76291e-06
-6.7702e-06
-6.86428e-06
-5.52925e-06
-6.44355e-06
-5.70471e-06
-5.5459e-06
-5.49265e-06
-5.30905e-06
-5.16752e-06
-5.3433e-06
-5.50594e-06
-5.35769e-06
-4.4172e-06
-6.13489e-06
-5.26855e-06
-5.27211e-06
-5.04347e-06
-4.77768e-06
-4.74513e-06
-4.79116e-06
-4.96458e-06
-5.19555e-06
-4.22087e-06
-5.94942e-06
-4.98243e-06
-4.78092e-06
-4.58094e-06
-4.23699e-06
-4.05974e-06
-4.39086e-06
-4.71172e-06
-4.71632e-06
-4.097e-06
-5.68707e-06
-4.60857e-06
-4.53964e-06
-4.16508e-06
-3.71982e-06
-3.76565e-06
-4.03404e-06
-4.34668e-06
-4.63104e-06
-3.90897e-06
-5.56201e-06
-4.53428e-06
-4.32119e-06
-4.03841e-06
-3.71758e-06
-3.59965e-06
-3.96301e-06
-4.31919e-06
-4.40679e-06
-3.80581e-06
-5.47509e-06
-4.36967e-06
-4.30143e-06
-4.13039e-06
-3.78954e-06
-3.81626e-06
-4.02008e-06
-4.21367e-06
-4.37822e-06
-3.71726e-06
-5.27625e-06
-4.35801e-06
-4.26874e-06
-4.0902e-06
-3.94289e-06
-3.94339e-06
-4.01179e-06
-4.24686e-06
-4.37435e-06
-3.57384e-06
-5.0593e-06
-4.13171e-06
-4.11201e-06
-4.03342e-06
-3.94953e-06
-3.8816e-06
-4.02126e-06
-4.18002e-06
-4.12187e-06
-3.29188e-06
-4.0694e-06
-3.33458e-06
-3.4167e-06
-3.41417e-06
-3.35958e-06
-3.38181e-06
-3.4021e-06
-3.38587e-06
-3.23272e-06
-2.46499e-06
-9.48905e-06
-8.85779e-06
-8.9031e-06
-8.52355e-06
-8.22639e-06
-8.02734e-06
-7.86005e-06
-7.72472e-06
-7.84027e-06
-6.2417e-06
-8.34862e-06
-7.17874e-06
-6.84023e-06
-6.65432e-06
-6.33278e-06
-5.99609e-06
-6.15228e-06
-6.27106e-06
-5.98607e-06
-4.95362e-06
-7.52479e-06
-6.34466e-06
-6.32252e-06
-5.94196e-06
-5.54143e-06
-5.46762e-06
-5.40255e-06
-5.53191e-06
-5.82315e-06
-4.66812e-06
-7.03696e-06
-5.8508e-06
-5.52159e-06
-5.27169e-06
-4.8336e-06
-4.54363e-06
-4.90647e-06
-5.23726e-06
-5.16672e-06
-4.51022e-06
-6.50099e-06
-5.2254e-06
-5.16746e-06
-4.68887e-06
-4.1513e-06
-4.19614e-06
-4.43574e-06
-4.74474e-06
-5.08715e-06
-4.25973e-06
-6.25413e-06
-5.09592e-06
-4.80445e-06
-4.49332e-06
-4.10857e-06
-3.93835e-06
-4.32976e-06
-4.71509e-06
-4.77276e-06
-4.13623e-06
-6.0726e-06
-4.82545e-06
-4.77119e-06
-4.53847e-06
-4.15288e-06
-4.16255e-06
-4.36309e-06
-4.55324e-06
-4.74788e-06
-4.02341e-06
-5.83221e-06
-4.81341e-06
-4.69051e-06
-4.48533e-06
-4.29754e-06
-4.27222e-06
-4.33894e-06
-4.58764e-06
-4.72226e-06
-3.85898e-06
-5.58092e-06
-4.56794e-06
-4.51185e-06
-4.41778e-06
-4.28944e-06
-4.21078e-06
-4.33947e-06
-4.51189e-06
-4.44927e-06
-3.55889e-06
-4.50936e-06
-3.67791e-06
-3.76048e-06
-3.72928e-06
-3.65731e-06
-3.65969e-06
-3.67639e-06
-3.65188e-06
-3.49264e-06
-2.66242e-06
-1.0125e-05
-9.55477e-06
-9.60732e-06
-9.2318e-06
-8.91028e-06
-8.69615e-06
-8.51171e-06
-8.32955e-06
-8.44723e-06
-6.70358e-06
-8.95011e-06
-7.79941e-06
-7.46962e-06
-7.23128e-06
-6.87452e-06
-6.48576e-06
-6.61529e-06
-6.73447e-06
-6.39994e-06
-5.28452e-06
-8.23191e-06
-6.9713e-06
-6.89609e-06
-6.48895e-06
-6.01081e-06
-5.89096e-06
-5.80479e-06
-5.90128e-06
-6.20244e-06
-4.95533e-06
-7.73346e-06
-6.4304e-06
-6.08405e-06
-5.74769e-06
-5.23674e-06
-4.89397e-06
-5.23773e-06
-5.57662e-06
-5.48137e-06
-4.7742e-06
-7.23339e-06
-5.80539e-06
-5.67026e-06
-5.12161e-06
-4.49822e-06
-4.49882e-06
-4.73935e-06
-5.03468e-06
-5.38485e-06
-4.4986e-06
-6.98477e-06
-5.64318e-06
-5.30371e-06
-4.91453e-06
-4.43967e-06
-4.23725e-06
-4.60779e-06
-4.99931e-06
-5.04673e-06
-4.36442e-06
-6.79053e-06
-5.38725e-06
-5.2684e-06
-4.95069e-06
-4.50971e-06
-4.45487e-06
-4.64926e-06
-4.82568e-06
-5.01271e-06
-4.24278e-06
-6.56561e-06
-5.34548e-06
-5.18243e-06
-4.90519e-06
-4.64184e-06
-4.57449e-06
-4.61745e-06
-4.84681e-06
-4.99052e-06
-4.06786e-06
-6.21856e-06
-5.10391e-06
-4.94365e-06
-4.81292e-06
-4.60227e-06
-4.50116e-06
-4.59144e-06
-4.7779e-06
-4.69287e-06
-3.75493e-06
-5.04542e-06
-4.05691e-06
-4.11135e-06
-4.0188e-06
-3.91956e-06
-3.88587e-06
-3.89883e-06
-3.85833e-06
-3.69099e-06
-2.81396e-06
-8.71454e-06
-8.2666e-06
-8.4562e-06
-8.18266e-06
-8.02823e-06
-7.92958e-06
-7.8601e-06
-7.72374e-06
-7.87294e-06
-6.25113e-06
-7.74783e-06
-6.80096e-06
-6.58293e-06
-6.47681e-06
-6.279e-06
-5.98226e-06
-6.18961e-06
-6.33872e-06
-6.03732e-06
-4.99988e-06
-7.08045e-06
-6.07087e-06
-6.12955e-06
-5.846e-06
-5.51568e-06
-5.49484e-06
-5.46817e-06
-5.61031e-06
-5.90008e-06
-4.73966e-06
-6.73293e-06
-5.67788e-06
-5.43658e-06
-5.23889e-06
-4.85991e-06
-4.61771e-06
-4.99437e-06
-5.34327e-06
-5.2861e-06
-4.5984e-06
-6.39118e-06
-5.20219e-06
-5.15279e-06
-4.75061e-06
-4.24567e-06
-4.29626e-06
-4.57775e-06
-4.90065e-06
-5.21395e-06
-4.38482e-06
-6.25376e-06
-5.1572e-06
-4.94318e-06
-4.64944e-06
-4.25512e-06
-4.13153e-06
-4.50048e-06
-4.88935e-06
-4.96652e-06
-4.27892e-06
-6.2652e-06
-5.06207e-06
-5.02438e-06
-4.78131e-06
-4.43138e-06
-4.37531e-06
-4.59362e-06
-4.79372e-06
-4.93239e-06
-4.1933e-06
-6.16353e-06
-5.14804e-06
-5.05006e-06
-4.84508e-06
-4.59942e-06
-4.55334e-06
-4.61016e-06
-4.79137e-06
-4.95889e-06
-4.02673e-06
-6.00664e-06
-5.01706e-06
-4.90591e-06
-4.81012e-06
-4.59789e-06
-4.52274e-06
-4.55131e-06
-4.77062e-06
-4.62853e-06
-3.7041e-06
-4.91514e-06
-3.99733e-06
-4.09255e-06
-4.00982e-06
-3.93094e-06
-3.86762e-06
-3.87564e-06
-3.80264e-06
-3.60826e-06
-2.76048e-06
-1.17052e-05
-1.08567e-05
-1.08494e-05
-1.04104e-05
-9.86584e-06
-9.40922e-06
-9.04682e-06
-8.73578e-06
-8.71526e-06
-6.97274e-06
-1.01909e-05
-8.73881e-06
-8.38419e-06
-7.92187e-06
-7.42808e-06
-6.9049e-06
-6.85759e-06
-6.91295e-06
-6.63761e-06
-5.42238e-06
-9.32302e-06
-7.78523e-06
-7.51615e-06
-7.07425e-06
-6.43893e-06
-6.14314e-06
-6.05256e-06
-6.10877e-06
-6.30723e-06
-5.12192e-06
-8.4788e-06
-6.98635e-06
-6.68014e-06
-6.16661e-06
-5.55115e-06
-5.17931e-06
-5.39686e-06
-5.71147e-06
-5.70622e-06
-4.91465e-06
-7.92914e-06
-6.36765e-06
-6.07939e-06
-5.51607e-06
-4.79742e-06
-4.66913e-06
-4.95972e-06
-5.24936e-06
-5.51865e-06
-4.69155e-06
-7.53244e-06
-6.09325e-06
-5.79465e-06
-5.29325e-06
-4.7058e-06
-4.5319e-06
-4.79912e-06
-5.18409e-06
-5.3136e-06
-4.55508e-06
-7.41929e-06
-5.946e-06
-5.76372e-06
-5.36203e-06
-4.90089e-06
-4.69022e-06
-4.93341e-06
-5.11016e-06
-5.2396e-06
-4.47989e-06
-7.19878e-06
-5.92295e-06
-5.72625e-06
-5.39273e-06
-4.98808e-06
-4.92451e-06
-4.90006e-06
-5.10846e-06
-5.31754e-06
-4.32039e-06
-6.89156e-06
-5.72056e-06
-5.46347e-06
-5.25031e-06
-4.95113e-06
-4.79347e-06
-4.86348e-06
-5.10565e-06
-4.99922e-06
-4.02133e-06
-5.61786e-06
-4.47358e-06
-4.48788e-06
-4.30843e-06
-4.16753e-06
-4.10108e-06
-4.13747e-06
-4.10172e-06
-3.97659e-06
-3.03033e-06
-5.45601e-06
-5.37446e-06
-5.71288e-06
-5.72914e-06
-5.83501e-06
-5.86567e-06
-6.02706e-06
-6.02507e-06
-6.04285e-06
-4.95572e-06
-4.87321e-06
-4.50713e-06
-4.61436e-06
-4.60823e-06
-4.63299e-06
-4.59241e-06
-4.73975e-06
-4.93453e-06
-4.93227e-06
-4.02636e-06
-4.8185e-06
-4.2847e-06
-4.32332e-06
-4.35853e-06
-4.22756e-06
-4.21114e-06
-4.41658e-06
-4.63499e-06
-4.73655e-06
-4.00361e-06
-4.73114e-06
-4.09713e-06
-4.19128e-06
-4.03286e-06
-3.83975e-06
-3.84602e-06
-4.09293e-06
-4.43019e-06
-4.61225e-06
-3.93074e-06
-4.93884e-06
-4.16622e-06
-4.02879e-06
-3.92155e-06
-3.58505e-06
-3.57467e-06
-3.99809e-06
-4.34811e-06
-4.47376e-06
-3.92376e-06
-4.96765e-06
-4.21848e-06
-4.28745e-06
-4.01773e-06
-3.70168e-06
-3.76566e-06
-3.99418e-06
-4.34537e-06
-4.57462e-06
-3.87278e-06
-5.41389e-06
-4.56284e-06
-4.5088e-06
-4.35876e-06
-4.14232e-06
-3.97008e-06
-4.2708e-06
-4.49474e-06
-4.49805e-06
-3.90115e-06
-5.51152e-06
-4.7914e-06
-4.77952e-06
-4.62001e-06
-4.32427e-06
-4.34085e-06
-4.34381e-06
-4.45145e-06
-4.68924e-06
-3.78342e-06
-5.63375e-06
-4.85283e-06
-4.74005e-06
-4.62116e-06
-4.38723e-06
-4.2937e-06
-4.26681e-06
-4.5382e-06
-4.33492e-06
-3.48273e-06
-4.6616e-06
-3.815e-06
-3.90134e-06
-3.78739e-06
-3.70945e-06
-3.61685e-06
-3.63718e-06
-3.55088e-06
-3.37889e-06
-2.59474e-06
-1.09278e-05
-9.88669e-06
-9.7032e-06
-9.24259e-06
-8.46927e-06
-7.76626e-06
-7.27543e-06
-6.89245e-06
-6.64341e-06
-5.47428e-06
-9.24643e-06
-7.7888e-06
-7.48887e-06
-6.73625e-06
-6.18175e-06
-5.60404e-06
-5.29867e-06
-5.26883e-06
-5.22474e-06
-4.20672e-06
-8.59437e-06
-7.02451e-06
-6.45908e-06
-6.05969e-06
-5.33593e-06
-4.84185e-06
-4.79939e-06
-4.81128e-06
-4.80191e-06
-4.08368e-06
-7.61553e-06
-6.13921e-06
-5.90839e-06
-5.20392e-06
-4.57235e-06
-4.25751e-06
-4.21802e-06
-4.44158e-06
-4.60104e-06
-3.9142e-06
-7.28342e-06
-5.78248e-06
-5.23952e-06
-4.74356e-06
-4.03338e-06
-3.72814e-06
-4.02949e-06
-4.24142e-06
-4.34477e-06
-3.83428e-06
-6.89104e-06
-5.45029e-06
-5.19134e-06
-4.58524e-06
-3.93264e-06
-3.83393e-06
-3.8601e-06
-4.16927e-06
-4.36849e-06
-3.73394e-06
-6.92294e-06
-5.53643e-06
-5.18634e-06
-4.67467e-06
-4.26571e-06
-3.84046e-06
-4.089e-06
-4.19409e-06
-4.26144e-06
-3.69073e-06
-6.84727e-06
-5.49248e-06
-5.22641e-06
-4.79318e-06
-4.23893e-06
-4.14432e-06
-4.0026e-06
-4.15625e-06
-4.35209e-06
-3.57663e-06
-6.52531e-06
-5.44359e-06
-4.90803e-06
-4.60721e-06
-4.15015e-06
-3.94056e-06
-3.91226e-06
-4.12933e-06
-4.05078e-06
-3.25026e-06
-5.39553e-06
-4.09976e-06
-3.98395e-06
-3.63655e-06
-3.44153e-06
-3.28747e-06
-3.30585e-06
-3.28374e-06
-3.21071e-06
-2.46339e-06
-1.81796e-06
-1.98038e-06
-2.32829e-06
-2.47179e-06
-2.68695e-06
-2.76254e-06
-3.04629e-06
-3.14815e-06
-3.03267e-06
-2.69368e-06
-1.58166e-06
-1.76065e-06
-2.05412e-06
-2.07301e-06
-2.25364e-06
-2.37825e-06
-2.42148e-06
-2.59936e-06
-2.85149e-06
-2.28912e-06
-1.97028e-06
-1.93888e-06
-1.95554e-06
-2.198e-06
-2.22696e-06
-2.19966e-06
-2.52755e-06
-2.75765e-06
-2.68186e-06
-2.49019e-06
-2.14475e-06
-1.97449e-06
-2.2624e-06
-2.1671e-06
-2.15852e-06
-2.34389e-06
-2.4203e-06
-2.6766e-06
-2.99694e-06
-2.50824e-06
-2.70126e-06
-2.41899e-06
-2.24704e-06
-2.38072e-06
-2.24131e-06
-2.18545e-06
-2.61402e-06
-2.89646e-06
-2.86596e-06
-2.66272e-06
-2.88071e-06
-2.54339e-06
-2.78631e-06
-2.59583e-06
-2.41433e-06
-2.60012e-06
-2.6577e-06
-2.9231e-06
-3.17767e-06
-2.67618e-06
-3.50542e-06
-3.10827e-06
-3.05118e-06
-2.99551e-06
-2.93292e-06
-2.70464e-06
-2.99638e-06
-3.15488e-06
-3.10868e-06
-2.73385e-06
-3.73219e-06
-3.3654e-06
-3.41298e-06
-3.32164e-06
-3.05603e-06
-3.09907e-06
-3.04091e-06
-3.1058e-06
-3.26995e-06
-2.67795e-06
-3.97114e-06
-3.54011e-06
-3.42826e-06
-3.3386e-06
-3.11692e-06
-3.03091e-06
-2.94317e-06
-3.13999e-06
-2.97197e-06
-2.35566e-06
-3.31754e-06
-2.72353e-06
-2.79047e-06
-2.6682e-06
-2.60883e-06
-2.48817e-06
-2.47944e-06
-2.40803e-06
-2.25091e-06
-1.7552e-06
-1.06868e-05
-9.27524e-06
-8.81239e-06
-8.08012e-06
-7.04338e-06
-6.14061e-06
-5.50594e-06
-5.12658e-06
-4.74537e-06
-4.05494e-06
-8.64354e-06
-7.01237e-06
-6.5812e-06
-5.65361e-06
-4.99771e-06
-4.3444e-06
-3.89997e-06
-3.77124e-06
-3.85908e-06
-3.07708e-06
-7.68108e-06
-6.16547e-06
-5.51984e-06
-5.0384e-06
-4.26686e-06
-3.67103e-06
-3.5825e-06
-3.57421e-06
-3.43633e-06
-3.06844e-06
-6.59807e-06
-5.227e-06
-4.93993e-06
-4.22726e-06
-3.5999e-06
-3.28798e-06
-3.11709e-06
-3.23266e-06
-3.46061e-06
-2.93197e-06
-6.05693e-06
-4.77815e-06
-4.26513e-06
-3.79267e-06
-3.14797e-06
-2.7917e-06
-3.01634e-06
-3.18134e-06
-3.18352e-06
-2.93323e-06
-5.59405e-06
-4.38405e-06
-4.12606e-06
-3.57615e-06
-3.00408e-06
-2.92319e-06
-2.85996e-06
-3.08559e-06
-3.31958e-06
-2.85214e-06
-5.4514e-06
-4.33524e-06
-4.02703e-06
-3.58225e-06
-3.24894e-06
-2.84541e-06
-3.06788e-06
-3.1604e-06
-3.20781e-06
-2.85046e-06
-5.27587e-06
-4.22083e-06
-3.97294e-06
-3.62606e-06
-3.15036e-06
-3.12083e-06
-2.96818e-06
-3.14153e-06
-3.32575e-06
-2.78637e-06
-4.94886e-06
-4.10229e-06
-3.68158e-06
-3.4167e-06
-3.0863e-06
-2.89445e-06
-2.93706e-06
-3.12887e-06
-3.12088e-06
-2.54122e-06
-4.05261e-06
-3.06494e-06
-2.9541e-06
-2.67989e-06
-2.52151e-06
-2.43552e-06
-2.47956e-06
-2.52465e-06
-2.5191e-06
-1.95955e-06
3.0579e-06
2.22283e-06
1.71584e-06
1.15503e-06
5.18774e-07
8.17064e-08
-4.66149e-07
-8.69966e-07
-8.2192e-07
-9.88071e-07
2.09746e-06
1.28454e-06
8.03212e-07
4.62046e-07
9.26037e-08
-3.80399e-07
-5.25582e-07
-7.6347e-07
-1.19208e-06
-9.34313e-07
9.92113e-07
5.00678e-07
3.84413e-07
-3.01163e-08
-3.32543e-07
-4.49285e-07
-8.89771e-07
-1.18702e-06
-1.08606e-06
-1.22373e-06
3.20593e-07
8.70754e-08
-2.95818e-07
-3.8108e-07
-5.65122e-07
-9.11902e-07
-9.87426e-07
-1.19614e-06
-1.57422e-06
-1.29294e-06
-4.37099e-07
-5.84531e-07
-5.14794e-07
-7.88502e-07
-8.78441e-07
-9.05472e-07
-1.28637e-06
-1.55194e-06
-1.48072e-06
-1.50747e-06
-7.73614e-07
-7.71489e-07
-1.07452e-06
-1.02762e-06
-1.08333e-06
-1.31547e-06
-1.39692e-06
-1.58552e-06
-1.85132e-06
-1.5523e-06
-1.28944e-06
-1.26782e-06
-1.24208e-06
-1.40475e-06
-1.43895e-06
-1.42528e-06
-1.68072e-06
-1.84914e-06
-1.8198e-06
-1.64644e-06
-1.45306e-06
-1.43487e-06
-1.56224e-06
-1.60093e-06
-1.58783e-06
-1.74129e-06
-1.74275e-06
-1.86867e-06
-1.9769e-06
-1.64908e-06
-1.70512e-06
-1.51728e-06
-1.64951e-06
-1.64825e-06
-1.71045e-06
-1.67866e-06
-1.77319e-06
-1.87925e-06
-1.82705e-06
-1.44413e-06
-1.37207e-06
-1.23421e-06
-1.31556e-06
-1.38559e-06
-1.40154e-06
-1.44235e-06
-1.45476e-06
-1.46691e-06
-1.37474e-06
-1.07767e-06
-4.72452e-06
-3.98073e-06
-3.63217e-06
-3.33912e-06
-2.81119e-06
-2.37269e-06
-2.06865e-06
-1.98355e-06
-1.78709e-06
-1.65828e-06
-3.9809e-06
-3.03169e-06
-2.77778e-06
-2.2813e-06
-1.89925e-06
-1.65264e-06
-1.3925e-06
-1.34827e-06
-1.52532e-06
-1.22517e-06
-3.60801e-06
-2.77624e-06
-2.33811e-06
-2.05147e-06
-1.66967e-06
-1.33214e-06
-1.33006e-06
-1.36372e-06
-1.28611e-06
-1.26131e-06
-3.12752e-06
-2.31566e-06
-2.1049e-06
-1.71798e-06
-1.38186e-06
-1.25619e-06
-1.13501e-06
-1.1895e-06
-1.38155e-06
-1.20014e-06
-2.71648e-06
-2.06194e-06
-1.77838e-06
-1.49065e-06
-1.19565e-06
-1.0065e-06
-1.1093e-06
-1.21369e-06
-1.23017e-06
-1.21223e-06
-2.48185e-06
-1.79499e-06
-1.59042e-06
-1.31895e-06
-1.0844e-06
-1.04148e-06
-1.03744e-06
-1.14818e-06
-1.30256e-06
-1.1729e-06
-2.1433e-06
-1.60076e-06
-1.40827e-06
-1.23832e-06
-1.06732e-06
-9.77607e-07
-1.08354e-06
-1.15721e-06
-1.25775e-06
-1.14189e-06
-1.94105e-06
-1.3987e-06
-1.26705e-06
-1.11114e-06
-9.95693e-07
-1.03489e-06
-9.98311e-07
-1.1844e-06
-1.24153e-06
-1.12106e-06
-1.60751e-06
-1.19815e-06
-1.06773e-06
-9.6929e-07
-9.4354e-07
-8.71256e-07
-1.02801e-06
-1.06813e-06
-1.19037e-06
-9.64312e-07
-1.24802e-06
-9.08269e-07
-8.34786e-07
-7.80499e-07
-7.27336e-07
-7.78992e-07
-8.10074e-07
-9.12028e-07
-9.38826e-07
-7.47239e-07
4.53187e-06
3.84741e-06
3.64765e-06
3.18015e-06
2.58876e-06
2.11523e-06
1.57069e-06
1.12459e-06
1.10973e-06
6.44185e-07
3.53399e-06
2.77598e-06
2.41472e-06
2.0451e-06
1.70918e-06
1.16585e-06
1.01156e-06
8.07203e-07
4.13132e-07
3.52455e-07
2.53855e-06
1.9363e-06
1.82571e-06
1.48454e-06
1.10456e-06
9.36618e-07
5.66494e-07
3.29852e-07
3.97731e-07
9.69065e-08
1.78444e-06
1.4287e-06
1.16406e-06
9.77441e-07
7.42752e-07
4.00175e-07
3.4264e-07
2.36782e-07
-3.08953e-08
2.48743e-10
1.23062e-06
8.71839e-07
8.32839e-07
6.0096e-07
3.71245e-07
2.87212e-07
8.21622e-08
-8.06405e-08
-2.80269e-08
-1.60371e-07
8.66534e-07
6.98413e-07
5.13325e-07
4.22653e-07
2.25558e-07
5.52472e-08
-5.06288e-08
-1.09844e-07
-2.55157e-07
-2.16351e-07
6.99212e-07
4.78359e-07
4.80358e-07
2.34984e-07
1.54858e-07
-3.42625e-08
-1.35095e-07
-2.53346e-07
-2.69115e-07
-2.48821e-07
6.02788e-07
4.71744e-07
3.36938e-07
2.4316e-07
3.16903e-08
-1.00933e-07
-1.87414e-07
-2.88823e-07
-2.76894e-07
-2.7172e-07
5.38184e-07
4.94878e-07
2.78858e-07
1.83977e-07
-3.09625e-08
-8.41452e-08
-2.28761e-07
-1.99858e-07
-2.52909e-07
-1.49519e-07
4.82308e-07
2.79828e-07
2.23625e-07
5.77613e-08
-1.10161e-08
-1.24882e-07
-1.22049e-07
-1.65041e-07
-1.0343e-07
-9.02837e-08
-1.90077e-06
-1.52408e-06
-1.24492e-06
-1.10111e-06
-8.64238e-07
-6.9308e-07
-6.10897e-07
-6.69885e-07
-5.84067e-07
-6.24524e-07
-1.66272e-06
-1.12045e-06
-9.70948e-07
-7.55253e-07
-5.47298e-07
-5.2143e-07
-4.09054e-07
-4.16206e-07
-5.82805e-07
-4.74656e-07
-1.49131e-06
-1.09245e-06
-8.74102e-07
-7.07225e-07
-5.65099e-07
-4.10994e-07
-4.52194e-07
-5.12437e-07
-4.83114e-07
-5.14845e-07
-1.3519e-06
-9.20393e-07
-7.75944e-07
-6.29243e-07
-4.6694e-07
-4.42603e-07
-4.10637e-07
-4.35308e-07
-5.6005e-07
-4.95902e-07
-1.04862e-06
-7.46549e-07
-6.70904e-07
-4.97287e-07
-4.01474e-07
-3.42926e-07
-3.83377e-07
-4.68464e-07
-4.92272e-07
-4.94429e-07
-9.40544e-07
-6.12286e-07
-4.62299e-07
-3.81217e-07
-3.27672e-07
-2.97351e-07
-3.76303e-07
-4.11503e-07
-5.06057e-07
-4.66593e-07
-6.09267e-07
-3.63497e-07
-2.93319e-07
-2.77868e-07
-1.90427e-07
-2.89433e-07
-3.1849e-07
-4.04128e-07
-4.79476e-07
-4.40941e-07
-4.26457e-07
-1.87464e-07
-1.3515e-07
-9.5048e-08
-1.70883e-07
-2.31386e-07
-2.90555e-07
-4.21766e-07
-4.54448e-07
-4.20269e-07
-1.71552e-07
3.06115e-08
-1.66612e-08
-1.291e-08
-1.42751e-07
-1.48482e-07
-3.37179e-07
-3.40255e-07
-4.58955e-07
-3.85161e-07
-7.9821e-08
-3.98101e-08
-9.93162e-09
-7.63158e-08
-8.71602e-08
-2.05561e-07
-2.45531e-07
-3.36502e-07
-3.73733e-07
-2.91839e-07
2.22124e-06
1.8748e-06
1.83063e-06
1.58775e-06
1.2787e-06
1.04145e-06
7.27216e-07
4.43491e-07
4.96125e-07
2.17902e-07
1.67755e-06
1.36007e-06
1.16338e-06
9.72263e-07
8.2415e-07
4.87675e-07
4.08234e-07
2.99043e-07
3.20762e-08
2.89346e-08
1.19395e-06
8.73239e-07
8.1546e-07
6.4814e-07
4.29277e-07
3.42376e-07
1.27929e-07
-4.53797e-08
-8.59603e-10
-1.339e-07
7.7564e-07
6.13727e-07
4.73891e-07
3.48496e-07
2.35744e-07
4.49379e-08
-3.39884e-08
-9.13667e-08
-2.33457e-07
-2.01962e-07
5.86515e-07
3.76882e-07
2.92665e-07
1.89633e-07
5.7551e-08
-2.52039e-08
-1.22252e-07
-2.44575e-07
-2.49294e-07
-2.56854e-07
4.33157e-07
3.03869e-07
2.1101e-07
1.18707e-07
-3.75356e-09
-7.15076e-08
-1.9798e-07
-2.37718e-07
-2.92376e-07
-2.70181e-07
4.48134e-07
2.98384e-07
2.2789e-07
7.17231e-08
3.57757e-08
-1.35078e-07
-1.61681e-07
-2.46735e-07
-2.87866e-07
-2.42254e-07
4.77962e-07
3.17878e-07
2.21359e-07
1.32423e-07
-3.34659e-08
-8.90587e-08
-1.8217e-07
-2.40653e-07
-2.31069e-07
-2.14814e-07
4.81663e-07
4.10148e-07
1.96097e-07
1.0563e-07
-4.66973e-08
-1.06148e-07
-1.82032e-07
-1.68408e-07
-1.99652e-07
-1.40271e-07
4.3095e-07
2.14468e-07
1.37774e-07
1.96973e-09
-6.00184e-08
-1.34626e-07
-1.34947e-07
-1.56453e-07
-1.02221e-07
-9.39509e-08
-1.95593e-06
-1.69501e-06
-1.5223e-06
-1.3597e-06
-1.21273e-06
-1.12306e-06
-1.06064e-06
-1.12778e-06
-1.09132e-06
-9.59948e-07
-1.76607e-06
-1.36905e-06
-1.21921e-06
-1.08477e-06
-9.35209e-07
-8.78292e-07
-8.86888e-07
-8.83996e-07
-9.30614e-07
-7.99601e-07
-1.65242e-06
-1.2939e-06
-1.18121e-06
-1.01272e-06
-9.03214e-07
-8.51302e-07
-8.12858e-07
-8.86444e-07
-9.44719e-07
-7.77099e-07
-1.60224e-06
-1.21139e-06
-1.03889e-06
-9.43263e-07
-8.04799e-07
-7.16186e-07
-8.10928e-07
-8.49232e-07
-8.21231e-07
-7.80497e-07
-1.41551e-06
-1.03782e-06
-9.86762e-07
-7.98132e-07
-6.72692e-07
-6.95075e-07
-6.65268e-07
-7.24631e-07
-8.61425e-07
-6.78204e-07
-1.3493e-06
-9.88466e-07
-8.08692e-07
-7.32603e-07
-6.31473e-07
-5.29171e-07
-6.35778e-07
-7.13977e-07
-6.44862e-07
-6.44139e-07
-1.16172e-06
-8.04218e-07
-7.53313e-07
-6.29503e-07
-5.15185e-07
-5.45584e-07
-5.14239e-07
-5.10178e-07
-6.59469e-07
-5.14815e-07
-1.06029e-06
-7.25854e-07
-6.24612e-07
-5.33611e-07
-4.93892e-07
-4.14164e-07
-4.31326e-07
-5.1618e-07
-4.62239e-07
-4.43783e-07
-8.62389e-07
-6.13655e-07
-5.23631e-07
-4.90987e-07
-4.17784e-07
-4.06182e-07
-4.00985e-07
-3.67515e-07
-4.31228e-07
-3.26974e-07
-6.96973e-07
-4.88674e-07
-4.5956e-07
-4.1553e-07
-3.87934e-07
-3.62061e-07
-3.37026e-07
-3.53172e-07
-3.08967e-07
-2.56212e-07
-1.64811e-06
-1.61066e-06
-1.63329e-06
-1.57712e-06
-1.57879e-06
-1.58622e-06
-1.57797e-06
-1.65192e-06
-1.63492e-06
-1.36192e-06
-1.62273e-06
-1.4351e-06
-1.3705e-06
-1.3701e-06
-1.31005e-06
-1.28301e-06
-1.37503e-06
-1.38806e-06
-1.36359e-06
-1.17257e-06
-1.57666e-06
-1.3718e-06
-1.39165e-06
-1.29357e-06
-1.25262e-06
-1.28386e-06
-1.239e-06
-1.33762e-06
-1.42571e-06
-1.1377e-06
-1.60468e-06
-1.3562e-06
-1.25039e-06
-1.2374e-06
-1.15023e-06
-1.06492e-06
-1.23922e-06
-1.30895e-06
-1.22916e-06
-1.15011e-06
-1.4957e-06
-1.21104e-06
-1.23385e-06
-1.10195e-06
-9.84437e-07
-1.06601e-06
-1.04923e-06
-1.13279e-06
-1.2984e-06
-1.02871e-06
-1.45861e-06
-1.2084e-06
-1.10574e-06
-1.06555e-06
-9.81659e-07
-8.81046e-07
-1.02125e-06
-1.14101e-06
-1.03834e-06
-9.93971e-07
-1.38647e-06
-1.08853e-06
-1.1143e-06
-1.02258e-06
-9.20332e-07
-9.38957e-07
-9.19435e-07
-9.16261e-07
-1.06174e-06
-8.59645e-07
-1.30508e-06
-1.08933e-06
-1.04326e-06
-9.93594e-07
-9.37479e-07
-8.38061e-07
-8.51293e-07
-9.18214e-07
-8.62639e-07
-7.73294e-07
-1.23634e-06
-1.03266e-06
-1.00237e-06
-9.97746e-07
-8.84543e-07
-8.79532e-07
-8.0144e-07
-7.952e-07
-7.89889e-07
-6.18516e-07
-9.84084e-07
-8.14968e-07
-8.59489e-07
-8.3141e-07
-8.13239e-07
-7.45097e-07
-7.00168e-07
-6.78862e-07
-5.72106e-07
-4.79431e-07
-4.80539e-06
-4.45442e-06
-4.43544e-06
-4.15041e-06
-3.94123e-06
-3.80309e-06
-3.59555e-06
-3.54233e-06
-3.58e-06
-2.85183e-06
-4.28439e-06
-3.66791e-06
-3.38444e-06
-3.26554e-06
-3.03409e-06
-2.77343e-06
-2.86586e-06
-2.84612e-06
-2.64712e-06
-2.25043e-06
-3.79154e-06
-3.15644e-06
-3.14578e-06
-2.85417e-06
-2.6092e-06
-2.57835e-06
-2.40045e-06
-2.4526e-06
-2.63936e-06
-2.05707e-06
-3.49506e-06
-2.8961e-06
-2.62055e-06
-2.49262e-06
-2.24313e-06
-1.98748e-06
-2.20683e-06
-2.31835e-06
-2.15882e-06
-1.98901e-06
-3.08519e-06
-2.43347e-06
-2.42521e-06
-2.11633e-06
-1.81704e-06
-1.87454e-06
-1.84174e-06
-1.93865e-06
-2.1957e-06
-1.77025e-06
-2.8766e-06
-2.33651e-06
-2.10529e-06
-1.96058e-06
-1.7546e-06
-1.56546e-06
-1.74864e-06
-1.93454e-06
-1.82451e-06
-1.6943e-06
-2.66735e-06
-2.06298e-06
-2.0579e-06
-1.86803e-06
-1.65433e-06
-1.63953e-06
-1.6474e-06
-1.6533e-06
-1.85721e-06