/*--------------------------------*- C++ -*----------------------------------*\
| =========                 |                                                 |
| \\      /  F ield         | OpenFOAM: The Open Source CFD Toolbox           |
|  \\    /   O peration     | Version:  2406                                  |
|   \\  /    A nd           | Website:  www.openfoam.com                      |
|    \\/     M anipulation  |                                                 |
\*---------------------------------------------------------------------------*/
FoamFile
{
    version     2.0;
    format      ascii;
    arch        "LSB;label=32;scalar=64";
    class       volScalarField;
    location    "1.4";
    object      magR;
}
// * * * * * * * * * * * * * * * * * * * * * * * * * * * * * * * * * * * * * //

dimensions      [0 2 -2 0 0 0 0];

internalField   uniform 0;

boundaryField
{
    walls
    {
        type            calculated;
        value           nonuniform List<scalar> 
2000
(
5.84368e-07
8.28589e-07
1.09509e-06
1.31565e-06
1.44047e-06
1.44047e-06
1.31565e-06
1.09509e-06
8.28589e-07
5.84368e-07
2.35124e-07
3.22819e-07
4.26154e-07
5.15488e-07
5.67298e-07
5.67298e-07
5.15488e-07
4.26153e-07
3.22818e-07
2.35124e-07
8.23369e-08
1.10262e-07
1.44696e-07
1.75726e-07
1.94054e-07
1.94054e-07
1.75725e-07
1.44696e-07
1.10261e-07
8.23362e-08
1.07668e-07
1.45223e-07
1.90608e-07
2.30862e-07
2.54466e-07
2.54465e-07
2.30861e-07
1.90606e-07
1.45221e-07
1.07666e-07
8.39535e-08
1.12621e-07
1.47893e-07
1.79524e-07
1.98192e-07
1.98191e-07
1.79522e-07
1.4789e-07
1.12617e-07
8.39497e-08
9.09401e-08
1.22309e-07
1.60686e-07
1.9498e-07
2.15183e-07
2.15182e-07
1.94975e-07
1.60679e-07
1.22301e-07
9.09327e-08
8.5106e-08
1.14289e-07
1.50164e-07
1.8232e-07
2.01297e-07
2.01294e-07
1.82312e-07
1.50152e-07
1.14275e-07
8.5093e-08
8.69803e-08
1.16882e-07
1.5358e-07
1.86437e-07
2.05817e-07
2.05811e-07
1.86422e-07
1.53558e-07
1.16858e-07
8.69575e-08
8.55052e-08
1.1485e-07
1.50907e-07
1.83215e-07
2.02276e-07
2.02267e-07
1.8319e-07
1.50872e-07
1.14811e-07
8.54678e-08
8.60243e-08
1.15563e-07
1.51841e-07
1.84335e-07
2.035e-07
2.03487e-07
1.84297e-07
1.51787e-07
1.15504e-07
8.59661e-08
8.56659e-08
1.15065e-07
1.51181e-07
1.83533e-07
2.02614e-07
2.02595e-07
1.83479e-07
1.51104e-07
1.1498e-07
8.55831e-08
8.58242e-08
1.1528e-07
1.51458e-07
1.83861e-07
2.02967e-07
2.02942e-07
1.8379e-07
1.51357e-07
1.15169e-07
8.57166e-08
8.57432e-08
1.15166e-07
1.51305e-07
1.83673e-07
2.02757e-07
2.02727e-07
1.83588e-07
1.51185e-07
1.15034e-07
8.56162e-08
8.57838e-08
1.15223e-07
1.51381e-07
1.83764e-07
2.02855e-07
2.02821e-07
1.8367e-07
1.5125e-07
1.1508e-07
8.56471e-08
8.5747e-08
1.15176e-07
1.51322e-07
1.83697e-07
2.02783e-07
2.02748e-07
1.83603e-07
1.51191e-07
1.15033e-07
8.56122e-08
8.57303e-08
1.15158e-07
1.51306e-07
1.83682e-07
2.02771e-07
2.0274e-07
1.83596e-07
1.51186e-07
1.15029e-07
8.56091e-08
8.56874e-08
1.15105e-07
1.51243e-07
1.83615e-07
2.02704e-07
2.02677e-07
1.83544e-07
1.51145e-07
1.15001e-07
8.55903e-08
8.56498e-08
1.15059e-07
1.51191e-07
1.8356e-07
2.02652e-07
2.02634e-07
1.83511e-07
1.51124e-07
1.1499e-07
8.55861e-08
8.56091e-08
1.1501e-07
1.51134e-07
1.835e-07
2.02596e-07
2.02588e-07
1.83479e-07
1.51106e-07
1.14983e-07
8.55863e-08
8.55741e-08
1.14969e-07
1.51088e-07
1.83455e-07
2.02557e-07
2.0256e-07
1.83465e-07
1.51104e-07
1.14989e-07
8.5596e-08
8.55417e-08
1.14931e-07
1.51048e-07
1.83417e-07
2.02526e-07
2.0254e-07
1.83456e-07
1.51105e-07
1.14996e-07
8.56055e-08
8.5513e-08
1.14898e-07
1.51013e-07
1.83383e-07
2.02498e-07
2.02521e-07
1.83446e-07
1.51102e-07
1.14997e-07
8.56088e-08
8.54867e-08
1.14866e-07
1.50977e-07
1.83347e-07
2.02465e-07
2.02493e-07
1.83424e-07
1.51086e-07
1.14985e-07
8.56006e-08
8.54637e-08
1.14836e-07
1.50941e-07
1.83307e-07
2.02425e-07
2.02455e-07
1.83391e-07
1.51058e-07
1.14963e-07
8.55837e-08
8.54448e-08
1.14811e-07
1.50908e-07
1.83268e-07
2.02383e-07
2.02414e-07
1.83353e-07
1.51026e-07
1.14938e-07
8.55654e-08
8.54313e-08
1.14793e-07
1.50884e-07
1.83238e-07
2.02349e-07
2.0238e-07
1.83323e-07
1.51003e-07
1.14921e-07
8.55547e-08
8.54255e-08
1.14785e-07
1.50873e-07
1.83225e-07
2.02334e-07
2.02366e-07
1.83312e-07
1.50997e-07
1.1492e-07
8.55567e-08
8.54324e-08
1.14794e-07
1.50883e-07
1.83235e-07
2.02345e-07
2.02378e-07
1.83325e-07
1.51011e-07
1.14935e-07
8.55712e-08
8.54619e-08
1.1483e-07
1.50924e-07
1.83278e-07
2.02387e-07
2.02418e-07
1.83362e-07
1.51043e-07
1.14963e-07
8.55933e-08
8.55258e-08
1.14904e-07
1.51006e-07
1.83362e-07
2.02467e-07
2.02488e-07
1.83421e-07
1.51089e-07
1.14996e-07
8.56156e-08
8.56302e-08
1.15025e-07
1.51137e-07
1.83493e-07
2.02588e-07
2.0259e-07
1.83498e-07
1.51141e-07
1.15027e-07
8.56305e-08
8.57662e-08
1.15183e-07
1.51309e-07
1.83664e-07
2.02742e-07
2.02715e-07
1.83587e-07
1.51194e-07
1.1505e-07
8.56338e-08
8.59054e-08
1.15346e-07
1.5149e-07
1.83846e-07
2.02906e-07
2.02845e-07
1.83675e-07
1.51241e-07
1.15064e-07
8.56262e-08
8.60067e-08
1.15469e-07
1.51632e-07
1.83994e-07
2.03042e-07
2.02952e-07
1.83744e-07
1.51274e-07
1.15067e-07
8.56125e-08
8.60325e-08
1.15508e-07
1.51686e-07
1.84059e-07
2.03106e-07
2.03003e-07
1.83774e-07
1.51283e-07
1.15061e-07
8.55983e-08
8.59673e-08
1.15441e-07
1.51626e-07
1.8401e-07
2.03069e-07
2.02974e-07
1.8375e-07
1.51262e-07
1.15044e-07
8.55867e-08
8.58269e-08
1.15283e-07
1.51461e-07
1.83854e-07
2.02933e-07
2.02866e-07
1.83672e-07
1.51212e-07
1.15018e-07
8.55776e-08
8.56539e-08
1.15082e-07
1.51241e-07
1.83634e-07
2.02734e-07
2.02705e-07
1.83557e-07
1.51142e-07
1.14986e-07
8.55719e-08
8.55007e-08
1.14898e-07
1.51032e-07
1.83419e-07
2.02536e-07
2.02544e-07
1.83446e-07
1.5108e-07
1.14964e-07
8.55753e-08
8.54142e-08
1.14791e-07
1.50905e-07
1.83283e-07
2.0241e-07
2.02446e-07
1.83386e-07
1.51058e-07
1.14974e-07
8.56008e-08
8.5437e-08
1.14813e-07
1.50924e-07
1.83299e-07
2.02429e-07
2.02476e-07
1.83432e-07
1.51119e-07
1.15043e-07
8.56659e-08
8.56266e-08
1.15033e-07
1.51164e-07
1.83545e-07
2.0267e-07
2.02704e-07
1.83641e-07
1.51302e-07
1.15195e-07
8.57821e-08
8.60528e-08
1.15529e-07
1.5171e-07
1.84107e-07
2.03212e-07
2.03193e-07
1.84055e-07
1.51629e-07
1.15433e-07
8.59404e-08
8.67773e-08
1.16375e-07
1.52643e-07
1.85064e-07
2.04122e-07
2.03996e-07
1.84708e-07
1.52116e-07
1.15762e-07
8.61386e-08
8.78254e-08
1.17601e-07
1.53996e-07
1.86451e-07
2.05431e-07
2.05136e-07
1.8562e-07
1.52782e-07
1.16203e-07
8.64023e-08
8.91823e-08
1.19208e-07
1.55793e-07
1.88315e-07
2.07214e-07
2.06712e-07
1.86907e-07
1.53755e-07
1.16883e-07
8.68495e-08
9.07814e-08
1.2112e-07
1.57955e-07
1.90574e-07
2.09394e-07
2.08659e-07
1.88525e-07
1.55014e-07
1.17806e-07
8.74986e-08
9.24638e-08
1.23252e-07
1.60513e-07
1.93414e-07
2.12303e-07
2.11417e-07
1.90954e-07
1.57013e-07
1.19352e-07
8.86522e-08
9.3948e-08
1.251e-07
1.62699e-07
1.95778e-07
2.14657e-07
2.13579e-07
1.92806e-07
1.58506e-07
1.20495e-07
8.95104e-08
9.52974e-08
1.27251e-07
1.65841e-07
1.99834e-07
2.19334e-07
2.18426e-07
1.97357e-07
1.6242e-07
1.23611e-07
9.19216e-08
5.84367e-07
8.28589e-07
1.09509e-06
1.31565e-06
1.44047e-06
1.44047e-06
1.31565e-06
1.09509e-06
8.28589e-07
5.84368e-07
2.35124e-07
3.22818e-07
4.26153e-07
5.15487e-07
5.67298e-07
5.67298e-07
5.15488e-07
4.26154e-07
3.22819e-07
2.35124e-07
8.23352e-08
1.1026e-07
1.44694e-07
1.75724e-07
1.94053e-07
1.94053e-07
1.75725e-07
1.44696e-07
1.10262e-07
8.23369e-08
1.07663e-07
1.45218e-07
1.90603e-07
2.30858e-07
2.54462e-07
2.54464e-07
2.30861e-07
1.90607e-07
1.45223e-07
1.07668e-07
8.39446e-08
1.12611e-07
1.47883e-07
1.79516e-07
1.98186e-07
1.98188e-07
1.79522e-07
1.47892e-07
1.1262e-07
8.39533e-08
9.09225e-08
1.22289e-07
1.60667e-07
1.94963e-07
2.15171e-07
2.15176e-07
1.94975e-07
1.60683e-07
1.22307e-07
9.09396e-08
8.50761e-08
1.14256e-07
1.50131e-07
1.82292e-07
2.01277e-07
2.01284e-07
1.82311e-07
1.50159e-07
1.14286e-07
8.51051e-08
8.69309e-08
1.16828e-07
1.53525e-07
1.8639e-07
2.05783e-07
2.05794e-07
1.86422e-07
1.5357e-07
1.16877e-07
8.69788e-08
8.543e-08
1.14768e-07
1.50825e-07
1.83144e-07
2.02226e-07
2.02243e-07
1.83191e-07
1.50893e-07
1.14843e-07
8.55029e-08
8.59154e-08
1.15445e-07
1.51724e-07
1.84234e-07
2.0343e-07
2.03455e-07
1.84302e-07
1.51821e-07
1.15553e-07
8.60212e-08
8.55187e-08
1.14906e-07
1.51023e-07
1.83399e-07
2.02522e-07
2.02556e-07
1.83491e-07
1.51155e-07
1.15052e-07
8.56618e-08
8.56387e-08
1.15078e-07
1.51259e-07
1.83692e-07
2.02854e-07
2.02896e-07
1.83809e-07
1.51425e-07
1.15264e-07
8.58192e-08
8.55278e-08
1.14931e-07
1.51073e-07
1.83476e-07
2.02624e-07
2.02674e-07
1.83613e-07
1.51268e-07
1.15147e-07
8.57374e-08
8.55549e-08
1.14972e-07
1.5113e-07
1.8355e-07
2.0271e-07
2.02764e-07
1.83698e-07
1.5134e-07
1.15203e-07
8.57778e-08
8.55264e-08
1.14932e-07
1.51077e-07
1.83486e-07
2.0264e-07
2.02693e-07
1.83632e-07
1.51282e-07
1.15156e-07
8.57415e-08
8.55395e-08
1.14945e-07
1.51089e-07
1.83495e-07
2.02645e-07
2.02693e-07
1.83626e-07
1.51271e-07
1.15142e-07
8.57261e-08
8.55417e-08
1.14941e-07
1.51075e-07
1.83469e-07
2.02607e-07
2.02645e-07
1.83573e-07
1.51218e-07
1.15094e-07
8.56849e-08
8.5555e-08
1.14951e-07
1.51079e-07
1.83462e-07
2.02588e-07
2.02614e-07
1.83533e-07
1.51176e-07
1.15053e-07
8.56488e-08
8.55627e-08
1.14955e-07
1.51074e-07
1.83446e-07
2.02558e-07
2.02572e-07
1.83483e-07
1.51124e-07
1.15006e-07
8.56085e-08
8.55699e-08
1.14959e-07
1.51072e-07
1.83433e-07
2.02533e-07
2.02535e-07
1.83439e-07
1.51079e-07
1.14964e-07
8.55731e-08
8.55743e-08
1.14959e-07
1.51066e-07
1.83417e-07
2.02505e-07
2.02497e-07
1.83396e-07
1.51035e-07
1.14924e-07
8.55398e-08
8.55806e-08
1.14962e-07
1.51062e-07
1.83405e-07
2.02482e-07
2.02465e-07
1.83358e-07
1.50997e-07
1.1489e-07
8.55108e-08
8.55896e-08
1.14969e-07
1.51063e-07
1.83397e-07
2.02465e-07
2.0244e-07
1.83328e-07
1.50966e-07
1.14861e-07
8.54857e-08
8.55998e-08
1.14977e-07
1.51067e-07
1.83395e-07
2.02455e-07
2.02423e-07
1.83307e-07
1.50942e-07
1.14838e-07
8.5465e-08
8.56059e-08
1.14982e-07
1.51069e-07
1.83392e-07
2.02448e-07
2.02411e-07
1.8329e-07
1.50924e-07
1.1482e-07
8.54484e-08
8.56022e-08
1.14976e-07
1.51062e-07
1.83383e-07
2.02436e-07
2.02398e-07
1.83275e-07
1.50909e-07
1.14806e-07
8.54358e-08
8.55872e-08
1.14958e-07
1.51041e-07
1.83362e-07
2.02416e-07
2.02379e-07
1.83259e-07
1.50896e-07
1.14796e-07
8.54287e-08
8.55654e-08
1.14932e-07
1.51012e-07
1.83333e-07
2.02391e-07
2.0236e-07
1.83248e-07
1.50891e-07
1.14797e-07
8.54326e-08
8.55455e-08
1.14909e-07
1.50988e-07
1.83312e-07
2.02376e-07
2.02356e-07
1.83256e-07
1.50909e-07
1.14821e-07
8.54583e-08
8.55351e-08
1.14901e-07
1.50985e-07
1.83318e-07
2.02396e-07
2.02392e-07
1.83307e-07
1.50971e-07
1.14885e-07
8.5519e-08
8.55362e-08
1.14914e-07
1.51014e-07
1.83367e-07
2.02468e-07
2.02487e-07
1.83419e-07
1.5109e-07
1.15e-07
8.56216e-08
8.55449e-08
1.14944e-07
1.51073e-07
1.83459e-07
2.02594e-07
2.0264e-07
1.83588e-07
1.51261e-07
1.15158e-07
8.57578e-08
8.55559e-08
1.1498e-07
1.51145e-07
1.83573e-07
2.02748e-07
2.02824e-07
1.83785e-07
1.51451e-07
1.15327e-07
8.58987e-08
8.55664e-08
1.15012e-07
1.51212e-07
1.83679e-07
2.0289e-07
2.0299e-07
1.83956e-07
1.51608e-07
1.15458e-07
8.60028e-08
8.55762e-08
1.15034e-07
1.51253e-07
1.83743e-07
2.02974e-07
2.03083e-07
1.84043e-07
1.51677e-07
1.15504e-07
8.60316e-08
8.5584e-08
1.15039e-07
1.51256e-07
1.83745e-07
2.0297e-07
2.03067e-07
1.84011e-07
1.51628e-07
1.15443e-07
8.59688e-08
8.55877e-08
1.15027e-07
1.5122e-07
1.8368e-07
2.02874e-07
2.02942e-07
1.83863e-07
1.51469e-07
1.15288e-07
8.58295e-08
8.55861e-08
1.15e-07
1.51154e-07
1.83568e-07
2.02715e-07
2.02744e-07
1.83643e-07
1.51248e-07
1.15086e-07
8.56562e-08
8.55823e-08
1.1497e-07
1.51083e-07
1.83447e-07
2.02544e-07
2.02536e-07
1.83419e-07
1.51033e-07
1.14898e-07
8.55013e-08
8.55841e-08
1.14953e-07
1.51033e-07
1.83358e-07
2.02419e-07
2.02386e-07
1.83264e-07
1.50891e-07
1.14782e-07
8.54115e-08
8.56055e-08
1.14969e-07
1.51035e-07
1.83344e-07
2.02391e-07
2.02354e-07
1.83239e-07
1.50882e-07
1.1479e-07
8.54291e-08
8.56645e-08
1.15047e-07
1.51128e-07
1.83455e-07
2.02522e-07
2.02511e-07
1.83421e-07
1.51081e-07
1.14988e-07
8.5612e-08
8.57614e-08
1.15198e-07
1.51343e-07
1.83741e-07
2.02885e-07
2.02945e-07
1.83905e-07
1.5158e-07
1.15462e-07
8.60323e-08
8.58482e-08
1.15388e-07
1.51665e-07
1.8422e-07
2.03526e-07
2.03726e-07
1.84775e-07
1.52465e-07
1.16286e-07
8.67527e-08
8.58145e-08
1.15506e-07
1.52006e-07
1.84835e-07
2.04425e-07
2.04865e-07
1.86058e-07
1.53769e-07
1.17489e-07
8.77958e-08
8.54281e-08
1.15293e-07
1.52102e-07
1.85342e-07
2.05379e-07
2.06204e-07
1.87641e-07
1.55411e-07
1.1902e-07
8.91308e-08
8.45519e-08
1.14584e-07
1.51765e-07
1.8555e-07
2.06203e-07
2.07574e-07
1.89371e-07
1.5726e-07
1.20772e-07
9.06722e-08
8.28619e-08
1.12905e-07
1.50369e-07
1.84727e-07
2.06142e-07
2.0828e-07
1.90674e-07
1.58885e-07
1.22441e-07
9.22196e-08
8.13134e-08
1.11361e-07
1.49088e-07
1.83987e-07
2.06114e-07
2.08947e-07
1.91862e-07
1.60328e-07
1.23904e-07
9.35548e-08
7.80078e-08
1.07474e-07
1.44871e-07
1.80017e-07
2.02947e-07
2.0694e-07
1.91042e-07
1.60435e-07
1.24579e-07
9.44754e-08
5.84367e-07
8.28589e-07
1.09509e-06
1.31565e-06
1.44047e-06
1.44047e-06
1.31565e-06
1.09509e-06
8.28589e-07
5.84367e-07
2.35123e-07
3.22817e-07
4.26152e-07
5.15486e-07
5.67296e-07
5.67297e-07
5.15487e-07
4.26152e-07
3.22818e-07
2.35124e-07
8.23345e-08
1.10259e-07
1.44693e-07
1.75722e-07
1.9405e-07
1.94051e-07
1.75723e-07
1.44694e-07
1.1026e-07
8.23352e-08
1.07661e-07
1.45215e-07
1.90599e-07
2.30853e-07
2.54457e-07
2.54457e-07
2.30854e-07
1.90601e-07
1.45217e-07
1.07663e-07
8.39407e-08
1.12605e-07
1.47876e-07
1.79507e-07
1.98175e-07
1.98176e-07
1.79509e-07
1.47879e-07
1.12609e-07
8.39441e-08
9.09144e-08
1.22278e-07
1.60652e-07
1.94945e-07
2.1515e-07
2.15151e-07
1.9495e-07
1.60659e-07
1.22285e-07
9.09215e-08
8.50614e-08
1.14236e-07
1.50105e-07
1.82259e-07
2.01239e-07
2.01242e-07
1.82268e-07
1.50117e-07
1.14249e-07
8.50741e-08
8.69052e-08
1.16792e-07
1.5348e-07
1.86334e-07
2.05718e-07
2.05723e-07
1.86349e-07
1.535e-07
1.16815e-07
8.69273e-08
8.53897e-08
1.14712e-07
1.50753e-07
1.83055e-07
2.02123e-07
2.02131e-07
1.83077e-07
1.50785e-07
1.14747e-07
8.5424e-08
8.58579e-08
1.15365e-07
1.51618e-07
1.84103e-07
2.03277e-07
2.03288e-07
1.84133e-07
1.51662e-07
1.15414e-07
8.59061e-08
8.54456e-08
1.14801e-07
1.50882e-07
1.8322e-07
2.02312e-07
2.02325e-07
1.83258e-07
1.50935e-07
1.14862e-07
8.55056e-08
8.55554e-08
1.14955e-07
1.51086e-07
1.83468e-07
2.02586e-07
2.02601e-07
1.8351e-07
1.51145e-07
1.15022e-07
8.56218e-08
8.54439e-08
1.14801e-07
1.50882e-07
1.83221e-07
2.02314e-07
2.02328e-07
1.83261e-07
1.50939e-07
1.14865e-07
8.55082e-08
8.54818e-08
1.14849e-07
1.50941e-07
1.83287e-07
2.02382e-07
2.02394e-07
1.83319e-07
1.50987e-07
1.14901e-07
8.55347e-08
8.54737e-08
1.14832e-07
1.50911e-07
1.83244e-07
2.02329e-07
2.02336e-07
1.83265e-07
1.50941e-07
1.14866e-07
8.55081e-08
8.55124e-08
1.1488e-07
1.50966e-07
1.83302e-07
2.02386e-07
2.02388e-07
1.83308e-07
1.50975e-07
1.1489e-07
8.55252e-08
8.55395e-08
1.14912e-07
1.51002e-07
1.8334e-07
2.02422e-07
2.02419e-07
1.83333e-07
1.50993e-07
1.14902e-07
8.55324e-08
8.55729e-08
1.14955e-07
1.51056e-07
1.83401e-07
2.02485e-07
2.02479e-07
1.83384e-07
1.51032e-07
1.1493e-07
8.55506e-08
8.55949e-08
1.14984e-07
1.51093e-07
1.83444e-07
2.02531e-07
2.02522e-07
1.83421e-07
1.5106e-07
1.14949e-07
8.55623e-08
8.56125e-08
1.15007e-07
1.51123e-07
1.8348e-07
2.02569e-07
2.02559e-07
1.83452e-07
1.51084e-07
1.14965e-07
8.55727e-08
8.56265e-08
1.15025e-07
1.51143e-07
1.83503e-07
2.02594e-07
2.02583e-07
1.83473e-07
1.511e-07
1.14977e-07
8.55798e-08
8.56434e-08
1.15045e-07
1.51166e-07
1.83528e-07
2.02618e-07
2.02606e-07
1.83493e-07
1.51117e-07
1.1499e-07
8.55887e-08
8.56651e-08
1.15071e-07
1.51195e-07
1.83558e-07
2.02648e-07
2.02634e-07
1.83518e-07
1.51138e-07
1.15006e-07
8.56006e-08
8.56916e-08
1.15103e-07
1.51233e-07
1.83599e-07
2.02689e-07
2.02671e-07
1.8355e-07
1.51163e-07
1.15025e-07
8.56138e-08
8.57196e-08
1.15138e-07
1.51275e-07
1.83643e-07
2.02732e-07
2.0271e-07
1.83581e-07
1.51186e-07
1.15039e-07
8.56227e-08
8.57449e-08
1.15169e-07
1.51311e-07
1.83682e-07
2.02769e-07
2.02741e-07
1.83603e-07
1.51198e-07
1.15043e-07
8.56217e-08
8.57615e-08
1.15189e-07
1.51333e-07
1.83705e-07
2.02789e-07
2.02754e-07
1.83607e-07
1.51194e-07
1.15033e-07
8.56091e-08
8.57608e-08
1.15187e-07
1.51331e-07
1.837e-07
2.02781e-07
2.02742e-07
1.83591e-07
1.51174e-07
1.15012e-07
8.55887e-08
8.57309e-08
1.15152e-07
1.51291e-07
1.8366e-07
2.02741e-07
2.02703e-07
1.83555e-07
1.51142e-07
1.14985e-07
8.55673e-08
8.56624e-08
1.15073e-07
1.51205e-07
1.83573e-07
2.0266e-07
2.02633e-07
1.83498e-07
1.511e-07
1.14956e-07
8.55499e-08
8.55558e-08
1.14949e-07
1.51072e-07
1.8344e-07
2.02537e-07
2.0253e-07
1.8342e-07
1.51047e-07
1.14926e-07
8.5537e-08
8.5427e-08
1.14799e-07
1.50905e-07
1.8327e-07
2.02381e-07
2.02398e-07
1.83322e-07
1.50983e-07
1.14893e-07
8.55259e-08
8.53047e-08
1.14652e-07
1.50738e-07
1.83095e-07
2.02215e-07
2.02258e-07
1.83217e-07
1.50916e-07
1.1486e-07
8.55159e-08
8.52221e-08
1.14548e-07
1.50612e-07
1.82957e-07
2.0208e-07
2.02142e-07
1.83131e-07
1.50863e-07
1.14836e-07
8.55109e-08
8.52062e-08
1.1452e-07
1.50568e-07
1.829e-07
2.02019e-07
2.02088e-07
1.83093e-07
1.50845e-07
1.14833e-07
8.55163e-08
8.52675e-08
1.14584e-07
1.50627e-07
1.8295e-07
2.02059e-07
2.02123e-07
1.83125e-07
1.50873e-07
1.14856e-07
8.55334e-08
8.53944e-08
1.14729e-07
1.50782e-07
1.83103e-07
2.022e-07
2.02244e-07
1.83221e-07
1.50944e-07
1.149e-07
8.55574e-08
8.55507e-08
1.14914e-07
1.50989e-07
1.83317e-07
2.02402e-07
2.02418e-07
1.83356e-07
1.51036e-07
1.14953e-07
8.55806e-08
8.56825e-08
1.15076e-07
1.51179e-07
1.83521e-07
2.02601e-07
2.0259e-07
1.83488e-07
1.51123e-07
1.14999e-07
8.55985e-08
8.573e-08
1.15143e-07
1.51271e-07
1.83633e-07
2.0272e-07
2.02701e-07
1.83576e-07
1.51183e-07
1.15032e-07
8.56134e-08
8.56236e-08
1.15034e-07
1.51178e-07
1.83568e-07
2.02688e-07
2.02697e-07
1.8359e-07
1.51206e-07
1.15055e-07
8.56351e-08
8.52878e-08
1.14665e-07
1.50809e-07
1.83241e-07
2.02432e-07
2.02526e-07
1.835e-07
1.51181e-07
1.15072e-07
8.56747e-08
8.46728e-08
1.13973e-07
1.50094e-07
1.82574e-07
2.01878e-07
2.02122e-07
1.83254e-07
1.5107e-07
1.15059e-07
8.57208e-08
8.3784e-08
1.12952e-07
1.49005e-07
1.81515e-07
2.00951e-07
2.01397e-07
1.82757e-07
1.50785e-07
1.14939e-07
8.57128e-08
8.26815e-08
1.1165e-07
1.47564e-07
1.8005e-07
1.99593e-07
2.0025e-07
1.81881e-07
1.50183e-07
1.14578e-07
8.55324e-08
8.14965e-08
1.1018e-07
1.45839e-07
1.78173e-07
1.97714e-07
1.98513e-07
1.80396e-07
1.49008e-07
1.1372e-07
8.49507e-08
8.03908e-08
1.08722e-07
1.44006e-07
1.76037e-07
1.95415e-07
1.96223e-07
1.78278e-07
1.47184e-07
1.12263e-07
8.38537e-08
7.95427e-08
1.07423e-07
1.42134e-07
1.73582e-07
1.92494e-07
1.93056e-07
1.75137e-07
1.44324e-07
1.09867e-07
8.19613e-08
7.90188e-08
1.06566e-07
1.40808e-07
1.71761e-07
1.90241e-07
1.90536e-07
1.72568e-07
1.41923e-07
1.07801e-07
8.02806e-08
7.88832e-08
1.05847e-07
1.39117e-07
1.68944e-07
1.86343e-07
1.85902e-07
1.67697e-07
1.37339e-07
1.03839e-07
7.70376e-08
5.84368e-07
8.28589e-07
1.09509e-06
1.31565e-06
1.44047e-06
1.44047e-06
1.31565e-06
1.09509e-06
8.28589e-07
5.84367e-07
2.35124e-07
3.22818e-07
4.26153e-07
5.15487e-07
5.67297e-07
5.67297e-07
5.15487e-07
4.26152e-07
3.22817e-07
2.35123e-07
8.23361e-08
1.10261e-07
1.44695e-07
1.75724e-07
1.94052e-07
1.94051e-07
1.75723e-07
1.44693e-07
1.10259e-07
8.23345e-08
1.07666e-07
1.4522e-07
1.90604e-07
2.30857e-07
2.5446e-07
2.54459e-07
2.30854e-07
1.906e-07
1.45216e-07
1.07661e-07
8.39492e-08
1.12615e-07
1.47886e-07
1.79515e-07
1.98181e-07
1.98179e-07
1.7951e-07
1.47878e-07
1.12606e-07
8.39409e-08
9.09316e-08
1.22297e-07
1.60671e-07
1.94961e-07
2.15162e-07
2.15158e-07
1.9495e-07
1.60656e-07
1.2228e-07
9.09149e-08
8.5091e-08
1.14268e-07
1.50138e-07
1.82288e-07
2.01259e-07
2.01252e-07
1.82269e-07
1.50111e-07
1.14238e-07
8.50623e-08
8.6954e-08
1.16846e-07
1.53533e-07
1.86381e-07
2.05751e-07
2.0574e-07
1.8635e-07
1.53489e-07
1.16797e-07
8.69066e-08
8.54619e-08
1.14791e-07
1.50832e-07
1.83124e-07
2.02173e-07
2.02156e-07
1.83079e-07
1.50767e-07
1.14719e-07
8.53918e-08
8.59572e-08
1.15473e-07
1.51726e-07
1.84197e-07
2.03346e-07
2.03323e-07
1.84135e-07
1.51637e-07
1.15374e-07
8.58607e-08
8.55706e-08
1.14938e-07
1.51019e-07
1.83341e-07
2.024e-07
2.02372e-07
1.83262e-07
1.50907e-07
1.14814e-07
8.54492e-08
8.57007e-08
1.15115e-07
1.51248e-07
1.83613e-07
2.02694e-07
2.02661e-07
1.83521e-07
1.51119e-07
1.14971e-07
8.556e-08
8.55979e-08
1.14971e-07
1.51058e-07
1.83381e-07
2.02438e-07
2.02403e-07
1.83285e-07
1.50921e-07
1.1482e-07
8.54497e-08
8.56281e-08
1.15014e-07
1.51114e-07
1.8345e-07
2.02515e-07
2.02481e-07
1.83359e-07
1.50985e-07
1.14871e-07
8.54883e-08
8.55947e-08
1.14971e-07
1.51062e-07
1.83392e-07
2.02456e-07
2.02428e-07
1.83316e-07
1.50956e-07
1.14854e-07
8.54802e-08
8.55951e-08
1.14977e-07
1.51077e-07
1.83418e-07
2.02492e-07
2.02473e-07
1.83365e-07
1.51005e-07
1.14898e-07
8.55177e-08
8.55807e-08
1.14964e-07
1.51067e-07
1.83413e-07
2.02496e-07
2.02486e-07
1.83386e-07
1.5103e-07
1.14925e-07
8.55431e-08
8.5581e-08
1.14969e-07
1.51079e-07
1.83434e-07
2.02527e-07
2.02525e-07
1.83429e-07
1.51072e-07
1.14963e-07
8.55748e-08
8.55848e-08
1.14976e-07
1.5109e-07
1.83452e-07
2.0255e-07
2.02553e-07
1.83459e-07
1.51101e-07
1.14988e-07
8.5596e-08
8.55974e-08
1.14993e-07
1.51113e-07
1.83479e-07
2.02582e-07
2.02586e-07
1.83492e-07
1.5113e-07
1.15011e-07
8.56139e-08
8.56095e-08
1.1501e-07
1.51135e-07
1.83505e-07
2.02611e-07
2.02616e-07
1.8352e-07
1.51154e-07
1.15031e-07
8.56288e-08
8.56154e-08
1.1502e-07
1.51151e-07
1.83527e-07
2.02638e-07
2.02645e-07
1.83548e-07
1.5118e-07
1.15052e-07
8.5646e-08
8.56102e-08
1.15019e-07
1.51155e-07
1.83538e-07
2.02656e-07
2.02668e-07
1.83574e-07
1.51206e-07
1.15076e-07
8.56668e-08
8.55963e-08
1.15007e-07
1.51147e-07
1.83539e-07
2.02664e-07
2.02686e-07
1.83598e-07
1.51232e-07
1.15102e-07
8.5691e-08
8.5581e-08
1.14992e-07
1.51136e-07
1.83533e-07
2.02668e-07
2.02699e-07
1.83619e-07
1.51258e-07
1.15129e-07
8.57164e-08
8.55729e-08
1.14984e-07
1.51131e-07
1.83533e-07
2.02675e-07
2.02714e-07
1.83641e-07
1.51284e-07
1.15155e-07
8.57403e-08
8.55771e-08
1.1499e-07
1.51139e-07
1.83544e-07
2.02691e-07
2.02734e-07
1.83664e-07
1.51307e-07
1.15176e-07
8.57576e-08
8.55927e-08
1.15009e-07
1.51159e-07
1.83566e-07
2.02712e-07
2.02753e-07
1.83679e-07
1.51318e-07
1.15182e-07
8.57594e-08
8.56135e-08
1.15031e-07
1.51182e-07
1.83585e-07
2.02724e-07
2.02755e-07
1.8367e-07
1.51299e-07
1.15156e-07
8.57326e-08
8.56298e-08
1.15045e-07
1.51191e-07
1.83583e-07
2.02706e-07
2.02718e-07
1.83615e-07
1.51232e-07
1.15086e-07
8.56662e-08
8.56328e-08
1.15038e-07
1.51169e-07
1.83541e-07
2.02638e-07
2.02625e-07
1.83502e-07
1.51109e-07
1.14967e-07
8.55603e-08
8.56188e-08
1.15006e-07
1.51112e-07
1.83453e-07
2.02519e-07
2.02478e-07
1.83339e-07
1.50945e-07
1.14817e-07
8.5431e-08
8.55919e-08
1.14955e-07
1.5103e-07
1.83336e-07
2.0237e-07
2.02306e-07
1.83159e-07
1.50774e-07
1.14668e-07
8.5308e-08
8.5562e-08
1.14903e-07
1.50947e-07
1.83222e-07
2.02229e-07
2.02152e-07
1.83008e-07
1.50641e-07
1.14561e-07
8.5225e-08
8.55406e-08
1.14867e-07
1.50891e-07
1.83147e-07
2.02142e-07
2.02064e-07
1.82933e-07
1.50588e-07
1.1453e-07
8.52087e-08
8.55341e-08
1.1486e-07
1.50882e-07
1.83139e-07
2.0214e-07
2.02076e-07
1.82964e-07
1.50637e-07
1.1459e-07
8.52694e-08
8.5542e-08
1.14882e-07
1.50924e-07
1.83203e-07
2.02229e-07
2.0219e-07
1.83098e-07
1.5078e-07
1.14729e-07
8.53951e-08
8.55603e-08
1.14926e-07
1.51002e-07
1.8332e-07
2.02384e-07
2.02375e-07
1.83298e-07
1.50978e-07
1.14909e-07
8.55498e-08
8.55873e-08
1.14981e-07
1.51097e-07
1.83456e-07
2.02557e-07
2.0257e-07
1.83498e-07
1.51164e-07
1.15068e-07
8.56802e-08
8.56285e-08
1.15044e-07
1.51189e-07
1.83573e-07
2.0269e-07
2.02705e-07
1.83619e-07
1.5126e-07
1.15136e-07
8.57274e-08
8.5694e-08
1.15117e-07
1.51265e-07
1.83638e-07
2.0273e-07
2.02706e-07
1.83575e-07
1.51178e-07
1.15033e-07
8.56224e-08
8.57853e-08
1.15192e-07
1.51303e-07
1.8361e-07
2.02613e-07
2.0249e-07
1.83273e-07
1.50822e-07
1.14668e-07
8.52876e-08
8.58838e-08
1.1524e-07
1.51261e-07
1.83431e-07
2.02265e-07
2.01973e-07
1.82623e-07
1.5011e-07
1.13975e-07
8.46706e-08
8.59846e-08
1.15252e-07
1.51122e-07
1.83079e-07
2.01661e-07
2.01129e-07
1.81609e-07
1.49035e-07
1.12958e-07
8.37795e-08
8.61204e-08
1.15267e-07
1.5093e-07
1.82599e-07
2.00854e-07
2.00025e-07
1.80309e-07
1.47684e-07
1.117e-07
8.26868e-08
8.64201e-08
1.15445e-07
1.50878e-07
1.82215e-07
2.00088e-07
1.98914e-07
1.78974e-07
1.46289e-07
1.10402e-07
8.15507e-08
8.69158e-08
1.15835e-07
1.51041e-07
1.8204e-07
1.99523e-07
1.98e-07
1.77835e-07
1.45087e-07
1.09276e-07
8.05519e-08
8.79198e-08
1.16852e-07
1.51947e-07
1.82682e-07
1.99793e-07
1.97884e-07
1.77409e-07
1.44481e-07
1.08614e-07
7.98909e-08
8.86531e-08
1.17557e-07
1.52531e-07
1.83057e-07
1.99912e-07
1.97772e-07
1.7714e-07
1.44146e-07
1.08265e-07
7.95496e-08
9.09122e-08
1.20178e-07
1.55402e-07
1.8594e-07
2.02529e-07
1.99927e-07
1.78738e-07
1.45234e-07
1.08893e-07
7.98676e-08
)
;
    }
    inlet
    {
        type            calculated;
        value           uniform 0;
    }
    outlet
    {
        type            calculated;
        value           uniform 0;
    }
}


// ************************************************************************* //
