/*--------------------------------*- C++ -*----------------------------------*\
| =========                 |                                                 |
| \\      /  F ield         | OpenFOAM: The Open Source CFD Toolbox           |
|  \\    /   O peration     | Version:  2406                                  |
|   \\  /    A nd           | Website:  www.openfoam.com                      |
|    \\/     M anipulation  |                                                 |
\*---------------------------------------------------------------------------*/
FoamFile
{
    version     2.0;
    format      ascii;
    arch        "LSB;label=32;scalar=64";
    class       volVectorField;
    location    "1.4";
    object      momentError;
}
// * * * * * * * * * * * * * * * * * * * * * * * * * * * * * * * * * * * * * //

dimensions      [0 1 -2 0 0 0 0];

internalField   nonuniform List<vector> 
25000
(
(7.41588e-06 3.39465e-06 6.93007e-06)
(6.37381e-06 3.72085e-06 7.42015e-06)
(5.55859e-06 3.73912e-06 7.53939e-06)
(4.81957e-06 3.71632e-06 7.55436e-06)
(4.04428e-06 3.71248e-06 7.58025e-06)
(3.25283e-06 3.76205e-06 7.7156e-06)
(2.41347e-06 3.89097e-06 7.9757e-06)
(1.4339e-06 4.02628e-06 8.26009e-06)
(5.44963e-08 4.17432e-06 8.39711e-06)
(-1.81307e-06 4.192e-06 8.49662e-06)
(6.74623e-06 2.55607e-06 7.38233e-06)
(5.91421e-06 3.15247e-06 8.06707e-06)
(5.16164e-06 3.18989e-06 8.1708e-06)
(4.47372e-06 3.16888e-06 8.13796e-06)
(3.71541e-06 3.15442e-06 8.11847e-06)
(2.90773e-06 3.15895e-06 8.21871e-06)
(2.03609e-06 3.20449e-06 8.46396e-06)
(1.06674e-06 3.2713e-06 8.75605e-06)
(-2.46421e-07 3.39222e-06 8.86544e-06)
(-1.93751e-06 3.26335e-06 8.5268e-06)
(6.46414e-06 1.8288e-06 7.52146e-06)
(5.63016e-06 2.45737e-06 8.18324e-06)
(4.94442e-06 2.57742e-06 8.26954e-06)
(4.30288e-06 2.59978e-06 8.21541e-06)
(3.55119e-06 2.59781e-06 8.16639e-06)
(2.73714e-06 2.59098e-06 8.23727e-06)
(1.868e-06 2.59448e-06 8.45786e-06)
(9.44702e-07 2.60621e-06 8.73748e-06)
(-2.11759e-07 2.62335e-06 8.87278e-06)
(-1.7624e-06 2.37554e-06 8.48406e-06)
(6.42023e-06 1.15894e-06 7.48274e-06)
(5.53269e-06 1.78141e-06 8.13851e-06)
(4.83873e-06 1.94636e-06 8.2366e-06)
(4.19568e-06 1.98984e-06 8.18094e-06)
(3.44297e-06 1.98656e-06 8.11786e-06)
(2.62411e-06 1.96609e-06 8.17046e-06)
(1.75733e-06 1.94185e-06 8.3651e-06)
(8.71646e-07 1.91216e-06 8.60891e-06)
(-1.87615e-07 1.8493e-06 8.72615e-06)
(-1.63471e-06 1.50565e-06 8.33324e-06)
(6.51134e-06 4.6452e-07 7.414e-06)
(5.54515e-06 1.04088e-06 8.08459e-06)
(4.80903e-06 1.2135e-06 8.20062e-06)
(4.14007e-06 1.26279e-06 8.14941e-06)
(3.36506e-06 1.25741e-06 8.0807e-06)
(2.5386e-06 1.2203e-06 8.12316e-06)
(1.67794e-06 1.16997e-06 8.30091e-06)
(8.13272e-07 1.10794e-06 8.51629e-06)
(-1.86204e-07 1.00206e-06 8.6025e-06)
(-1.55825e-06 6.26909e-07 8.1921e-06)
(6.75073e-06 -2.27525e-07 7.40923e-06)
(5.68181e-06 2.98017e-07 8.10832e-06)
(4.87171e-06 4.62947e-07 8.25092e-06)
(4.15167e-06 5.05204e-07 8.21157e-06)
(3.34159e-06 4.88392e-07 8.14398e-06)
(2.49334e-06 4.31141e-07 8.18307e-06)
(1.62865e-06 3.50496e-07 8.35318e-06)
(7.80079e-07 2.56125e-07 8.55244e-06)
(-1.82928e-07 1.27282e-07 8.61282e-06)
(-1.50887e-06 -2.51517e-07 8.17512e-06)
(7.11167e-06 -9.23934e-07 7.46676e-06)
(5.90921e-06 -4.38457e-07 8.20408e-06)
(5.00684e-06 -2.90031e-07 8.37943e-06)
(4.21741e-06 -2.67709e-07 8.35819e-06)
(3.35454e-06 -3.11288e-07 8.29837e-06)
(2.47856e-06 -4.01446e-07 8.3401e-06)
(1.60545e-06 -5.22508e-07 8.50956e-06)
(7.67081e-07 -6.5645e-07 8.7038e-06)
(-1.77646e-07 -8.18026e-07 8.74527e-06)
(-1.48932e-06 -1.20439e-06 8.27294e-06)
(7.50618e-06 -1.66492e-06 7.47628e-06)
(6.17416e-06 -1.19568e-06 8.25913e-06)
(5.15684e-06 -1.0449e-06 8.45902e-06)
(4.2817e-06 -1.05122e-06 8.45404e-06)
(3.36603e-06 -1.13318e-06 8.40859e-06)
(2.46489e-06 -1.27063e-06 8.45977e-06)
(1.5881e-06 -1.44878e-06 8.63684e-06)
(7.60417e-07 -1.64795e-06 8.83997e-06)
(-1.81244e-07 -1.88184e-06 8.86619e-06)
(-1.46575e-06 -2.30891e-06 8.3629e-06)
(7.88661e-06 -2.61353e-06 7.27448e-06)
(6.43984e-06 -2.14012e-06 8.09039e-06)
(5.29232e-06 -1.96576e-06 8.30597e-06)
(4.32502e-06 -1.99353e-06 8.31447e-06)
(3.36694e-06 -2.12084e-06 8.28968e-06)
(2.45689e-06 -2.32515e-06 8.35813e-06)
(1.58206e-06 -2.60007e-06 8.54836e-06)
(7.40748e-07 -2.92345e-06 8.75429e-06)
(-2.45214e-07 -3.32222e-06 8.74733e-06)
(-1.46664e-06 -3.81454e-06 8.27942e-06)
(8.29816e-06 -3.76096e-06 6.74757e-06)
(6.61293e-06 -3.25345e-06 7.36392e-06)
(5.46025e-06 -3.17499e-06 7.58424e-06)
(4.48161e-06 -3.29452e-06 7.61927e-06)
(3.54341e-06 -3.50788e-06 7.62591e-06)
(2.66841e-06 -3.8328e-06 7.71971e-06)
(1.82397e-06 -4.27564e-06 7.9187e-06)
(9.68807e-07 -4.79672e-06 8.11224e-06)
(-7.06266e-08 -5.40057e-06 8.11384e-06)
(-1.28127e-06 -6.07052e-06 8.0579e-06)
(1.77385e-05 -6.54769e-07 2.19072e-05)
(1.67664e-05 1.44056e-06 2.60742e-05)
(1.64224e-05 2.50685e-06 2.84444e-05)
(1.59299e-05 3.1053e-06 2.99101e-05)
(1.50429e-05 3.57844e-06 3.11345e-05)
(1.38648e-05 3.93752e-06 3.23726e-05)
(1.24158e-05 4.2554e-06 3.37763e-05)
(1.05712e-05 4.45998e-06 3.53089e-05)
(8.12073e-06 4.61438e-06 3.65054e-05)
(5.18575e-06 4.55605e-06 3.86846e-05)
(1.43736e-05 -1.3947e-06 2.48911e-05)
(1.41666e-05 9.06707e-07 2.99347e-05)
(1.4119e-05 1.87562e-06 3.208e-05)
(1.36832e-05 2.38536e-06 3.30117e-05)
(1.28141e-05 2.71651e-06 3.37503e-05)
(1.16829e-05 2.91679e-06 3.46767e-05)
(1.02956e-05 3.0463e-06 3.5863e-05)
(8.55872e-06 3.04939e-06 3.69916e-05)
(6.23308e-06 2.91432e-06 3.73483e-05)
(3.29155e-06 2.46323e-06 3.70584e-05)
(1.31702e-05 -1.94226e-06 2.63153e-05)
(1.31479e-05 1.79462e-07 3.12631e-05)
(1.30219e-05 1.08768e-06 3.28625e-05)
(1.2454e-05 1.51199e-06 3.32981e-05)
(1.15581e-05 1.72587e-06 3.37217e-05)
(1.04957e-05 1.81716e-06 3.45132e-05)
(9.22593e-06 1.83315e-06 3.57691e-05)
(7.60345e-06 1.75615e-06 3.71164e-05)
(5.4427e-06 1.46459e-06 3.75183e-05)
(2.6385e-06 6.40359e-07 3.63822e-05)
(1.27702e-05 -2.50138e-06 2.67137e-05)
(1.26186e-05 -6.07066e-07 3.1409e-05)
(1.22648e-05 2.21718e-07 3.25811e-05)
(1.15928e-05 5.94123e-07 3.28084e-05)
(1.07002e-05 7.44515e-07 3.31104e-05)
(9.68436e-06 7.46696e-07 3.37852e-05)
(8.49814e-06 6.33901e-07 3.49712e-05)
(6.97835e-06 4.21017e-07 3.64135e-05)
(4.9358e-06 1.18197e-08 3.70467e-05)
(2.31357e-06 -1.04658e-06 3.55569e-05)
(1.26697e-05 -3.04266e-06 2.66788e-05)
(1.23925e-05 -1.44519e-06 3.12442e-05)
(1.18894e-05 -7.04099e-07 3.22464e-05)
(1.11517e-05 -3.57731e-07 3.24382e-05)
(1.02423e-05 -2.44911e-07 3.26997e-05)
(9.23319e-06 -3.11731e-07 3.32961e-05)
(8.08283e-06 -5.31984e-07 3.43911e-05)
(6.63458e-06 -8.97356e-07 3.57929e-05)
(4.68516e-06 -1.4655e-06 3.65332e-05)
(2.22736e-06 -2.67197e-06 3.49104e-05)
(1.28362e-05 -3.55002e-06 2.63462e-05)
(1.2515e-05 -2.25429e-06 3.10861e-05)
(1.19446e-05 -1.62528e-06 3.21531e-05)
(1.11437e-05 -1.3246e-06 3.23795e-05)
(1.0187e-05 -1.26337e-06 3.26524e-05)
(9.156e-06 -1.40395e-06 3.32328e-05)
(8.01283e-06 -1.72097e-06 3.42845e-05)
(6.60552e-06 -2.21894e-06 3.56222e-05)
(4.7378e-06 -2.93163e-06 3.62872e-05)
(2.41746e-06 -4.24475e-06 3.45063e-05)
(1.32154e-05 -3.91862e-06 2.56457e-05)
(1.29179e-05 -2.96378e-06 3.08876e-05)
(1.23744e-05 -2.52428e-06 3.22454e-05)
(1.15266e-05 -2.33059e-06 3.25629e-05)
(1.05016e-05 -2.35982e-06 3.28891e-05)
(9.43195e-06 -2.59769e-06 3.35137e-05)
(8.27869e-06 -3.03102e-06 3.45751e-05)
(6.89447e-06 -3.65939e-06 3.58395e-05)
(5.10528e-06 -4.45984e-06 3.62611e-05)
(2.88425e-06 -5.84106e-06 3.42673e-05)
(1.37484e-05 -4.14393e-06 2.43251e-05)
(1.34535e-05 -3.52964e-06 3.02602e-05)
(1.30228e-05 -3.36301e-06 3.21723e-05)
(1.22044e-05 -3.38836e-06 3.27279e-05)
(1.11411e-05 -3.58327e-06 3.31698e-05)
(1.00316e-05 -3.96052e-06 3.38731e-05)
(8.85361e-06 -4.52835e-06 3.4939e-05)
(7.49233e-06 -5.24674e-06 3.60283e-05)
(5.77378e-06 -6.04489e-06 3.60812e-05)
(3.65521e-06 -7.49728e-06 3.40184e-05)
(1.44832e-05 -4.3564e-06 2.1632e-05)
(1.39755e-05 -4.06876e-06 2.80981e-05)
(1.36296e-05 -4.21774e-06 3.07319e-05)
(1.29683e-05 -4.55521e-06 3.18276e-05)
(1.19963e-05 -5.00168e-06 3.25691e-05)
(1.09082e-05 -5.55241e-06 3.33621e-05)
(9.73081e-06 -6.23276e-06 3.42912e-05)
(8.39999e-06 -6.97783e-06 3.50478e-05)
(6.74537e-06 -7.84431e-06 3.48337e-05)
(4.89441e-06 -9.5185e-06 3.31604e-05)
(1.6485e-05 -4.96146e-06 1.61279e-05)
(1.52453e-05 -4.75309e-06 2.22557e-05)
(1.4906e-05 -5.30466e-06 2.54065e-05)
(1.44503e-05 -5.99352e-06 2.72113e-05)
(1.37089e-05 -6.73945e-06 2.84997e-05)
(1.27954e-05 -7.53059e-06 2.95671e-05)
(1.17649e-05 -8.4105e-06 3.05747e-05)
(1.0528e-05 -9.35867e-06 3.14674e-05)
(9.0037e-06 -1.06087e-05 3.17163e-05)
(7.54421e-06 -1.28703e-05 3.19272e-05)
(3.25485e-05 -9.10054e-06 2.21285e-05)
(3.09732e-05 -4.34577e-06 3.60912e-05)
(3.0777e-05 -1.71268e-06 4.47154e-05)
(3.05282e-05 -1.52055e-08 5.12839e-05)
(2.96795e-05 1.41457e-06 5.73891e-05)
(2.8207e-05 2.62506e-06 6.36741e-05)
(2.60187e-05 3.73785e-06 7.07331e-05)
(2.30132e-05 4.61666e-06 7.86953e-05)
(1.91226e-05 5.2305e-06 8.68285e-05)
(1.51101e-05 5.07449e-06 0.000101773)
(2.48705e-05 -8.55278e-06 3.0229e-05)
(2.46507e-05 -4.0398e-06 4.40695e-05)
(2.51813e-05 -2.16909e-06 5.1339e-05)
(2.53896e-05 -1.03203e-06 5.61577e-05)
(2.48814e-05 -1.46538e-07 6.04422e-05)
(2.3647e-05 5.14952e-07 6.48197e-05)
(2.16021e-05 1.06839e-06 6.9839e-05)
(1.86711e-05 1.46268e-06 7.5536e-05)
(1.4792e-05 1.63001e-06 8.09401e-05)
(1.04438e-05 9.86678e-07 8.89883e-05)
(2.13764e-05 -8.2663e-06 3.30517e-05)
(2.19317e-05 -4.39788e-06 4.63168e-05)
(2.2899e-05 -2.98413e-06 5.28264e-05)
(2.3332e-05 -2.20683e-06 5.69696e-05)
(2.29702e-05 -1.68917e-06 6.05473e-05)
(2.18813e-05 -1.39096e-06 6.41492e-05)
(1.99939e-05 -1.22695e-06 6.82618e-05)
(1.71676e-05 -1.15097e-06 7.2993e-05)
(1.33156e-05 -1.26508e-06 7.75837e-05)
(8.9141e-06 -2.43536e-06 8.31394e-05)
(1.94773e-05 -8.27646e-06 3.31972e-05)
(2.0367e-05 -4.99971e-06 4.62245e-05)
(2.1524e-05 -3.89494e-06 5.24606e-05)
(2.20451e-05 -3.35574e-06 5.63898e-05)
(2.17354e-05 -3.08322e-06 5.96702e-05)
(2.07444e-05 -3.03101e-06 6.29474e-05)
(1.9012e-05 -3.15923e-06 6.65209e-05)
(1.63666e-05 -3.3986e-06 7.04578e-05)
(1.26458e-05 -3.80982e-06 7.42808e-05)
(8.3985e-06 -5.42484e-06 7.81851e-05)
(1.83502e-05 -8.26814e-06 3.2007e-05)
(1.94363e-05 -5.61864e-06 4.52568e-05)
(2.07025e-05 -4.8015e-06 5.14983e-05)
(2.12234e-05 -4.45867e-06 5.53241e-05)
(2.09189e-05 -4.36838e-06 5.83965e-05)
(2.00356e-05 -4.49804e-06 6.16223e-05)
(1.84345e-05 -4.84917e-06 6.50218e-05)
(1.59804e-05 -5.3574e-06 6.84975e-05)
(1.24686e-05 -6.07541e-06 7.17299e-05)
(8.47056e-06 -8.11012e-06 7.4457e-05)
(1.78826e-05 -8.14205e-06 2.96399e-05)
(1.91021e-05 -6.08038e-06 4.36216e-05)
(2.04434e-05 -5.54915e-06 5.01657e-05)
(2.09976e-05 -5.39279e-06 5.41175e-05)
(2.07199e-05 -5.42809e-06 5.72088e-05)
(1.98949e-05 -5.76484e-06 6.04301e-05)
(1.83773e-05 -6.3503e-06 6.37994e-05)
(1.6066e-05 -7.09366e-06 6.71252e-05)
(1.2773e-05 -8.093e-06 7.00355e-05)
(9.07704e-06 -1.05315e-05 7.1985e-05)
(1.79855e-05 -7.6975e-06 2.58669e-05)
(1.92764e-05 -6.21976e-06 4.10978e-05)
(2.06855e-05 -6.0107e-06 4.82604e-05)
(2.13297e-05 -6.11201e-06 5.26369e-05)
(2.1112e-05 -6.38944e-06 5.60796e-05)
(2.02839e-05 -6.93081e-06 5.93394e-05)
(1.88255e-05 -7.72726e-06 6.27048e-05)
(1.66262e-05 -8.71656e-06 6.61141e-05)
(1.35807e-05 -1.00061e-05 6.89531e-05)
(1.02321e-05 -1.28826e-05 7.05042e-05)
(1.86925e-05 -6.89314e-06 2.02397e-05)
(1.99431e-05 -5.93902e-06 3.72106e-05)
(2.13337e-05 -6.05155e-06 4.52711e-05)
(2.20048e-05 -6.46842e-06 5.02448e-05)
(2.18484e-05 -7.07809e-06 5.41877e-05)
(2.10613e-05 -7.90139e-06 5.77456e-05)
(1.96676e-05 -8.97483e-06 6.13851e-05)
(1.76278e-05 -1.02817e-05 6.5139e-05)
(1.49091e-05 -1.18961e-05 6.80824e-05)
(1.2027e-05 -1.52496e-05 6.9639e-05)
(2.03501e-05 -5.73336e-06 1.11628e-05)
(2.12411e-05 -5.28434e-06 3.01501e-05)
(2.24598e-05 -5.73442e-06 3.94801e-05)
(2.31009e-05 -6.50859e-06 4.54482e-05)
(2.30014e-05 -7.52195e-06 5.02356e-05)
(2.22994e-05 -8.74234e-06 5.44674e-05)
(2.10413e-05 -1.02369e-05 5.86723e-05)
(1.92548e-05 -1.19589e-05 6.28634e-05)
(1.7011e-05 -1.40693e-05 6.59251e-05)
(1.50029e-05 -1.81235e-05 6.82603e-05)
(2.53381e-05 -4.7557e-06 -7.93522e-06)
(2.51812e-05 -4.49624e-06 1.37716e-05)
(2.61952e-05 -5.47976e-06 2.53939e-05)
(2.68553e-05 -6.74883e-06 3.36125e-05)
(2.69081e-05 -8.30031e-06 4.03769e-05)
(2.64433e-05 -1.01013e-05 4.63261e-05)
(2.55245e-05 -1.22304e-05 5.20319e-05)
(2.41347e-05 -1.46559e-05 5.76e-05)
(2.24524e-05 -1.77735e-05 6.21333e-05)
(2.15622e-05 -2.31193e-05 6.85754e-05)
(5.73362e-05 -2.74594e-05 7.13001e-06)
(5.53499e-05 -1.68477e-05 3.62461e-05)
(5.59251e-05 -1.03996e-05 5.54928e-05)
(5.63813e-05 -5.89008e-06 7.15959e-05)
(5.58254e-05 -2.07763e-06 8.70503e-05)
(5.4149e-05 1.04523e-06 0.000102825)
(5.1197e-05 3.56228e-06 0.000119763)
(4.68881e-05 5.26599e-06 0.000138393)
(4.12575e-05 6.2299e-06 0.000158179)
(3.66229e-05 5.52341e-06 0.000196563)
(4.1226e-05 -2.40579e-05 2.21083e-05)
(4.1742e-05 -1.47431e-05 4.87125e-05)
(4.38331e-05 -1.00856e-05 6.47739e-05)
(4.52709e-05 -6.89437e-06 7.70442e-05)
(4.54514e-05 -4.33022e-06 8.84386e-05)
(4.42193e-05 -2.35839e-06 9.98932e-05)
(4.14722e-05 -8.85824e-07 0.000112244)
(3.72489e-05 -1.20379e-07 0.000125824)
(3.16298e-05 -1.83667e-07 0.000139436)
(2.59819e-05 -1.7037e-06 0.000162909)
(3.41874e-05 -2.18569e-05 2.65634e-05)
(3.64296e-05 -1.40457e-05 5.17686e-05)
(3.94803e-05 -1.04978e-05 6.63919e-05)
(4.15289e-05 -8.28573e-06 7.71983e-05)
(4.21557e-05 -6.73344e-06 8.69217e-05)
(4.10846e-05 -5.64926e-06 9.64666e-05)
(3.82316e-05 -4.87489e-06 0.000106735)
(3.37991e-05 -4.63905e-06 0.000118452)
(2.7932e-05 -5.2378e-06 0.000130495)
(2.18947e-05 -7.78028e-06 0.00014833)
(3.05287e-05 -2.0343e-05 2.60498e-05)
(3.36294e-05 -1.38477e-05 5.08436e-05)
(3.72998e-05 -1.11623e-05 6.50691e-05)
(3.99896e-05 -9.76256e-06 7.58369e-05)
(4.12348e-05 -8.99138e-06 8.52629e-05)
(4.02544e-05 -8.62415e-06 9.34594e-05)
(3.70036e-05 -8.33927e-06 0.000101754)
(3.21991e-05 -8.50161e-06 0.000111876)
(2.61529e-05 -9.52505e-06 0.000122575)
(2.01741e-05 -1.28797e-05 0.000136777)
(2.83622e-05 -1.88113e-05 2.26798e-05)
(3.2088e-05 -1.3666e-05 4.80613e-05)
(3.6292e-05 -1.18076e-05 6.25805e-05)
(3.96543e-05 -1.11611e-05 7.43726e-05)
(4.15545e-05 -1.113e-05 8.53086e-05)
(4.05468e-05 -1.11221e-05 9.21718e-05)
(3.68145e-05 -1.11947e-05 9.81063e-05)
(3.17066e-05 -1.17281e-05 0.000106828)
(2.56515e-05 -1.31905e-05 0.000116336)
(1.99623e-05 -1.73416e-05 0.000127956)
(2.74019e-05 -1.70903e-05 1.6664e-05)
(3.15508e-05 -1.31954e-05 4.36528e-05)
(3.59889e-05 -1.20674e-05 5.8869e-05)
(3.94812e-05 -1.19893e-05 7.1141e-05)
(4.137e-05 -1.24437e-05 8.25688e-05)
(4.04376e-05 -1.29229e-05 8.94171e-05)
(3.67702e-05 -1.33268e-05 9.48037e-05)
(3.19218e-05 -1.43409e-05 0.000102955)
(2.62332e-05 -1.6293e-05 0.000111696)
(2.10587e-05 -2.12535e-05 0.00012158)
(2.75802e-05 -1.47586e-05 7.68914e-06)
(3.19195e-05 -1.20762e-05 3.72919e-05)
(3.62763e-05 -1.16466e-05 5.35817e-05)
(3.93119e-05 -1.20373e-05 6.56222e-05)
(4.07043e-05 -1.29047e-05 7.57925e-05)
(3.99041e-05 -1.37353e-05 8.3915e-05)
(3.7022e-05 -1.48246e-05 9.12731e-05)
(3.29283e-05 -1.65074e-05 9.98478e-05)
(2.79618e-05 -1.90375e-05 0.000108283)
(2.35087e-05 -2.49262e-05 0.000117258)
(2.91334e-05 -1.16338e-05 -4.99868e-06)
(3.33817e-05 -1.00677e-05 2.8253e-05)
(3.75259e-05 -1.03332e-05 4.61232e-05)
(4.01847e-05 -1.12636e-05 5.87342e-05)
(4.12121e-05 -1.25962e-05 6.92317e-05)
(4.05875e-05 -1.41315e-05 7.86004e-05)
(3.845e-05 -1.60219e-05 8.77008e-05)
(3.51923e-05 -1.84146e-05 9.71423e-05)
(3.10642e-05 -2.15745e-05 0.000105606)
(2.75568e-05 -2.84782e-05 0.000114595)
(3.28615e-05 -7.45004e-06 -2.39578e-05)
(3.63491e-05 -7.05169e-06 1.38947e-05)
(4.01315e-05 -8.12179e-06 3.40567e-05)
(4.26317e-05 -9.78437e-06 4.85364e-05)
(4.36643e-05 -1.18914e-05 6.079e-05)
(4.33285e-05 -1.42712e-05 7.18139e-05)
(4.17947e-05 -1.70347e-05 8.24112e-05)
(3.93084e-05 -2.02115e-05 9.28065e-05)
(3.61961e-05 -2.42679e-05 0.00010153)
(3.44355e-05 -3.26304e-05 0.000112214)
(4.38186e-05 -2.96726e-06 -6.43579e-05)
(4.53626e-05 -3.3032e-06 -1.7606e-05)
(4.87242e-05 -5.63627e-06 7.76842e-06)
(5.12276e-05 -8.36832e-06 2.70326e-05)
(5.25301e-05 -1.15371e-05 4.35739e-05)
(5.27259e-05 -1.5001e-05 5.84656e-05)
(5.19964e-05 -1.88873e-05 7.25132e-05)
(5.04415e-05 -2.32757e-05 8.60838e-05)
(4.85792e-05 -2.91973e-05 9.81651e-05)
(4.93401e-05 -3.99797e-05 0.000116727)
(0.000102832 -5.60821e-05 -4.78479e-05)
(9.90197e-05 -3.69648e-05 1.35032e-05)
(9.99125e-05 -2.55691e-05 5.47141e-05)
(0.000100777 -1.77245e-05 9.07559e-05)
(9.99717e-05 -1.11713e-05 0.000125849)
(9.71875e-05 -5.78736e-06 0.000161812)
(9.20878e-05 -1.32412e-06 0.000200277)
(8.46377e-05 1.95214e-06 0.000242805)
(7.51525e-05 4.27176e-06 0.000290118)
(6.79205e-05 3.66117e-06 0.000381885)
(7.42426e-05 -4.85531e-05 -1.85461e-05)
(7.44586e-05 -3.18542e-05 3.43012e-05)
(7.77351e-05 -2.37721e-05 6.78564e-05)
(8.02415e-05 -1.82996e-05 9.54177e-05)
(8.07406e-05 -1.39585e-05 0.000121581)
(7.87512e-05 -1.06183e-05 0.000147985)
(7.40205e-05 -8.03636e-06 0.000176091)
(6.67183e-05 -6.53241e-06 0.000207033)
(5.71745e-05 -6.17666e-06 0.000240226)
(4.79261e-05 -8.19014e-06 0.000300206)
(6.07352e-05 -4.39894e-05 -1.15089e-05)
(6.39896e-05 -2.99376e-05 3.77893e-05)
(6.90056e-05 -2.38501e-05 6.84872e-05)
(7.26838e-05 -2.01205e-05 9.28668e-05)
(7.41245e-05 -1.7581e-05 0.000115217)
(7.25001e-05 -1.57818e-05 0.000137521)
(6.76272e-05 -1.43841e-05 0.000161022)
(6.00965e-05 -1.38918e-05 0.000187844)
(5.02883e-05 -1.46191e-05 0.000217034)
(4.04126e-05 -1.85386e-05 0.00026428)
(5.31643e-05 -4.07581e-05 -1.38782e-05)
(5.80419e-05 -2.90064e-05 3.44307e-05)
(6.4364e-05 -2.44531e-05 6.43209e-05)
(6.95144e-05 -2.22782e-05 8.81545e-05)
(7.27196e-05 -2.1383e-05 0.000108896)
(7.13087e-05 -2.09225e-05 0.0001285)
(6.52779e-05 -1.99095e-05 0.000147955)
(5.70574e-05 -2.00145e-05 0.000172108)
(4.71023e-05 -2.15437e-05 0.00019836)
(3.74828e-05 -2.70426e-05 0.000237251)
(4.85436e-05 -3.74036e-05 -2.23756e-05)
(5.46178e-05 -2.79904e-05 2.71906e-05)
(6.21456e-05 -2.49093e-05 5.76759e-05)
(6.9173e-05 -2.43239e-05 8.3775e-05)
(7.49132e-05 -2.52357e-05 0.000108654)
(7.36553e-05 -2.52806e-05 0.000121084)
(6.56794e-05 -2.43893e-05 0.000138293)
(5.63346e-05 -2.48731e-05 0.00016003)
(4.64208e-05 -2.71954e-05 0.000183721)
(3.74093e-05 -3.43022e-05 0.000216775)
(4.63591e-05 -3.35798e-05 -3.66439e-05)
(5.32338e-05 -2.62973e-05 1.64052e-05)
(6.1306e-05 -2.44476e-05 4.83422e-05)
(6.87525e-05 -2.4778e-05 7.53776e-05)
(7.45488e-05 -2.65149e-05 0.000103179)
(7.34837e-05 -2.73168e-05 0.000115603)
(6.56873e-05 -2.71746e-05 0.000129773)
(5.697e-05 -2.84489e-05 0.000150408)
(4.78023e-05 -3.17054e-05 0.000172522)
(3.97571e-05 -4.04841e-05 0.000201846)
(4.64445e-05 -2.8585e-05 -5.72255e-05)
(5.37232e-05 -2.33225e-05 1.55895e-06)
(6.16542e-05 -2.25457e-05 3.58959e-05)
(6.78242e-05 -2.33666e-05 6.26814e-05)
(7.16237e-05 -2.52701e-05 8.53012e-05)
(7.086e-05 -2.65837e-05 0.00010478)
(6.57739e-05 -2.82476e-05 0.000122014)
(5.91189e-05 -3.10327e-05 0.000142697)
(5.13451e-05 -3.54912e-05 0.000164139)
(4.45991e-05 -4.61898e-05 0.000191754)
(4.92441e-05 -2.21789e-05 -8.55997e-05)
(5.65626e-05 -1.87245e-05 -1.86718e-05)
(6.41875e-05 -1.89495e-05 1.89592e-05)
(6.95939e-05 -2.04699e-05 4.72597e-05)
(7.22784e-05 -2.28228e-05 7.12415e-05)
(7.19056e-05 -2.5502e-05 9.32192e-05)
(6.876e-05 -2.88052e-05 0.000114361)
(6.37688e-05 -3.30938e-05 0.000136363)
(5.74472e-05 -3.88938e-05 0.000158004)
(5.23378e-05 -5.16484e-05 0.000186039)
(5.61842e-05 -1.38598e-05 -0.000125964)
(6.25596e-05 -1.22477e-05 -4.81224e-05)
(6.96797e-05 -1.35885e-05 -5.79819e-06)
(7.4803e-05 -1.61425e-05 2.64681e-05)
(7.74277e-05 -1.96951e-05 5.44276e-05)
(7.7574e-05 -2.3896e-05 7.99622e-05)
(7.55414e-05 -2.89379e-05 0.00010447)
(7.18543e-05 -3.48858e-05 0.000128736)
(6.72194e-05 -4.25496e-05 0.000151559)
(6.51927e-05 -5.80875e-05 0.000183394)
(7.58011e-05 -4.79529e-06 -0.000213312)
(7.94173e-05 -4.13711e-06 -0.000111817)
(8.60734e-05 -7.31221e-06 -5.69842e-05)
(9.12384e-05 -1.14891e-05 -1.39669e-05)
(9.4305e-05 -1.67931e-05 2.34839e-05)
(9.53747e-05 -2.29387e-05 5.75677e-05)
(9.47591e-05 -3.01304e-05 8.98678e-05)
(9.2695e-05 -3.84717e-05 0.000121472)
(9.02514e-05 -4.97457e-05 0.000151984)
(9.27461e-05 -6.95991e-05 0.000199369)
(0.000165425 -0.000109426 -0.000144816)
(0.000159997 -7.54293e-05 -3.48198e-05)
(0.000162178 -5.52886e-05 4.02055e-05)
(0.000164185 -4.13498e-05 0.000107846)
(0.000163383 -2.96597e-05 0.000174507)
(0.000159382 -1.99291e-05 0.000243154)
(0.000151767 -1.1818e-05 0.000316384)
(0.000140642 -5.81468e-06 0.00039744)
(0.00012668 -1.56443e-06 0.00048944)
(0.000117555 -2.928e-06 0.000668812)
(0.000117715 -9.53844e-05 -9.69536e-05)
(0.000118638 -6.61442e-05 -4.83596e-06)
(0.000124869 -5.14043e-05 5.59513e-05)
(0.000129725 -4.11441e-05 0.000108353)
(0.000131246 -3.28831e-05 0.00015892)
(0.000128672 -2.63631e-05 0.000210131)
(0.000121746 -2.13226e-05 0.00026414)
(0.000110909 -1.83407e-05 0.000323346)
(9.68158e-05 -1.7535e-05 0.000388525)
(8.39931e-05 -2.08183e-05 0.000509274)
(9.50885e-05 -8.67239e-05 -8.86724e-05)
(0.000101275 -6.20457e-05 -2.81939e-06)
(0.000110422 -5.06088e-05 5.34827e-05)
(0.000117326 -4.32002e-05 0.000100534)
(0.000120574 -3.79142e-05 0.000144358)
(0.000118629 -3.39456e-05 0.000188343)
(0.000111387 -3.09714e-05 0.000234036)
(0.000100104 -2.98277e-05 0.000285643)
(8.53879e-05 -3.09127e-05 0.000342932)
(7.1241e-05 -3.72597e-05 0.000439608)
(8.2413e-05 -7.9849e-05 -9.57697e-05)
(9.14985e-05 -5.90778e-05 -1.12023e-05)
(0.000102898 -5.02803e-05 4.4084e-05)
(0.000112414 -4.56353e-05 9.00827e-05)
(0.000118937 -4.34013e-05 0.000130184)
(0.000117296 -4.16123e-05 0.000169681)
(0.00010777 -3.93026e-05 0.000208488)
(9.51956e-05 -3.92485e-05 0.000255704)
(8.0103e-05 -4.17199e-05 0.00030749)
(6.61572e-05 -5.0674e-05 0.000388225)
(7.45205e-05 -7.24543e-05 -0.000113681)
(8.58775e-05 -5.56042e-05 -2.63071e-05)
(9.94001e-05 -4.93941e-05 3.03144e-05)
(0.000112296 -4.77377e-05 8.01261e-05)
(0.000123921 -4.91499e-05 0.000126548)
(0.00012259 -4.84583e-05 0.000149715)
(0.000109005 -4.60196e-05 0.000189059)
(9.42763e-05 -4.64925e-05 0.00023242)
(7.91008e-05 -5.03074e-05 0.000279498)
(6.59908e-05 -6.20218e-05 0.000349181)
(7.06738e-05 -6.41458e-05 -0.000141975)
(8.36124e-05 -5.08113e-05 -4.7766e-05)
(9.81135e-05 -4.67259e-05 1.16168e-05)
(0.0001117 -4.66782e-05 6.30578e-05)
(0.000123543 -4.95694e-05 0.000116412)
(0.000122825 -5.06944e-05 0.000139588)
(0.000109602 -4.96356e-05 0.000171778)
(9.57657e-05 -5.14345e-05 0.000213258)
(8.1659e-05 -5.68602e-05 0.000257503)
(7.00029e-05 -7.14978e-05 0.000320274)
(7.07171e-05 -5.38824e-05 -0.000181577)
(8.45396e-05 -4.38299e-05 -7.63896e-05)
(9.88736e-05 -4.15481e-05 -1.25353e-05)
(0.000110247 -4.2264e-05 3.91425e-05)
(0.000118058 -4.51306e-05 8.27955e-05)
(0.000117889 -4.73867e-05 0.000122075)
(0.000110027 -4.99265e-05 0.000156775)
(9.98085e-05 -5.44838e-05 0.000197561)
(8.78865e-05 -6.20147e-05 0.000240615)
(7.82895e-05 -8.00095e-05 0.000300415)
(7.53744e-05 -4.13475e-05 -0.000235182)
(8.94252e-05 -3.42519e-05 -0.000114399)
(0.000103362 -3.37119e-05 -4.46625e-05)
(0.000113502 -3.56985e-05 9.89305e-06)
(0.000119237 -3.93967e-05 5.67971e-05)
(0.000119748 -4.38821e-05 0.000100256)
(0.000115455 -4.93798e-05 0.000141765)
(0.000108044 -5.6557e-05 0.000184666)
(9.84166e-05 -6.63586e-05 0.000228305)
(9.1459e-05 -8.78455e-05 0.000289197)
(8.67479e-05 -2.57261e-05 -0.000309305)
(9.93699e-05 -2.1717e-05 -0.000167108)
(0.000112641 -2.32066e-05 -8.90268e-05)
(0.00012243 -2.70736e-05 -2.74607e-05)
(0.000128086 -3.28553e-05 2.66476e-05)
(0.000129508 -3.98548e-05 7.64869e-05)
(0.000127159 -4.82279e-05 0.000124195)
(0.000121923 -5.80914e-05 0.000171449)
(0.000115036 -7.08388e-05 0.000217841)
(0.000113147 -9.68336e-05 0.000285777)
(0.000118471 -9.29322e-06 -0.000472473)
(0.000126977 -6.79652e-06 -0.000281238)
(0.000139731 -1.14688e-05 -0.000178575)
(0.000149749 -1.81655e-05 -9.67499e-05)
(0.000156192 -2.68622e-05 -2.50109e-05)
(0.000159177 -3.69599e-05 4.06835e-05)
(0.000159228 -4.8684e-05 0.000102997)
(0.000156742 -6.22013e-05 0.000164221)
(0.000153575 -8.05884e-05 0.000225319)
(0.000159273 -0.000113211 0.0003207)
(0.000259686 -0.000185335 -0.000305154)
(0.000249838 -0.000131331 -0.000119064)
(0.00025195 -9.89943e-05 1.0147e-05)
(0.000253861 -7.62169e-05 0.00012898)
(0.000251504 -5.70437e-05 0.000247284)
(0.000244293 -4.11404e-05 0.000370043)
(0.000231508 -2.80634e-05 0.000501762)
(0.000213294 -1.85978e-05 0.000648461)
(0.000190759 -1.23735e-05 0.000817461)
(0.000175464 -1.64838e-05 0.00114624)
(0.000188226 -0.000161647 -0.000233941)
(0.000187856 -0.000114884 -7.94727e-05)
(0.000196035 -9.12226e-05 2.5398e-05)
(0.000202362 -7.44839e-05 0.000118489)
(0.000203719 -6.09404e-05 0.000209382)
(0.000198842 -5.02601e-05 0.000302032)
(0.000187253 -4.20715e-05 0.000399942)
(0.000169597 -3.72791e-05 0.000507606)
(0.000146897 -3.60629e-05 0.000628437)
(0.000126251 -4.2426e-05 0.000853948)
(0.000152617 -0.000147831 -0.00022803)
(0.000160689 -0.000107811 -8.29227e-05)
(0.000173663 -8.93716e-05 1.52772e-05)
(0.000183437 -7.72401e-05 9.97534e-05)
(0.000187756 -6.85179e-05 0.000179368)
(0.000184116 -6.19302e-05 0.000259825)
(0.000172301 -5.70328e-05 0.000343309)
(0.000154224 -5.51128e-05 0.000437384)
(0.000130795 -5.67377e-05 0.000543625)
(0.000108322 -6.74474e-05 0.000726184)
(0.000131581 -0.000137009 -0.000246045)
(0.000144432 -0.000102732 -0.000101663)
(0.000161248 -8.83441e-05 -4.49547e-06)
(0.000175446 -8.06633e-05 7.82004e-05)
(0.00018527 -7.69898e-05 0.000150764)
(0.000182349 -7.36595e-05 0.000224048)
(0.000167189 -6.98554e-05 0.000296311)
(0.000147446 -6.96513e-05 0.000382858)
(0.000123727 -7.34309e-05 0.000479057)
(0.000101773 -8.80265e-05 0.000632805)
(0.00011781 -0.000125228 -0.000282055)
(0.000134386 -9.6712e-05 -0.000131467)
(0.000154834 -8.62444e-05 -3.14922e-05)
(0.000174642 -8.34268e-05 5.7204e-05)
(0.000193093 -8.60072e-05 0.000138495)
(0.000190833 -8.45251e-05 0.000182809)
(0.000169206 -8.00871e-05 0.000259847)
(0.000146505 -8.06219e-05 0.0003401)
(0.000122954 -8.65498e-05 0.000427816)
(0.000102493 -0.000105397 0.000561529)
(0.000110273 -0.000111926 -0.000335783)
(0.000129491 -8.84792e-05 -0.000172046)
(0.00015175 -8.11211e-05 -6.68102e-05)
(0.000172812 -8.07364e-05 2.48331e-05)
(0.000191843 -8.55471e-05 0.000119123)
(0.000190993 -8.73748e-05 0.0001635)
(0.00017022 -8.50482e-05 0.000227247)
(0.000149062 -8.77411e-05 0.000304299)
(0.000127395 -9.62988e-05 0.000386981)
(0.000109392 -0.000119722 0.000508155)
(0.000108561 -9.57183e-05 -0.000409049)
(0.000129399 -7.68689e-05 -0.000224854)
(0.000151719 -7.1998e-05 -0.000111266)
(0.000169677 -7.24688e-05 -1.78595e-05)
(0.000182272 -7.67192e-05 6.11767e-05)
(0.000182464 -8.04469e-05 0.000134216)
(0.000170649 -8.43046e-05 0.000199387)
(0.000155259 -9.16037e-05 0.000274502)
(0.000137142 -0.000103604 0.000355062)
(0.000122553 -0.000132269 0.00047071)
(0.000113523 -7.64095e-05 -0.000506688)
(0.000135116 -6.15186e-05 -0.000293762)
(0.000157164 -5.89222e-05 -0.000169519)
(0.000173483 -6.10336e-05 -7.05221e-05)
(0.000182995 -6.63695e-05 1.51533e-05)
(0.000184383 -7.33319e-05 9.49877e-05)
(0.000178303 -8.20996e-05 0.000171201)
(0.000167359 -9.36833e-05 0.000249735)
(0.000152911 -0.000109342 0.000331396)
(0.000142652 -0.000143339 0.000448542)
(0.000127754 -5.3047e-05 -0.00063905)
(0.00014792 -4.20432e-05 -0.000386523)
(0.000169305 -4.1957e-05 -0.000247434)
(0.000185291 -4.65231e-05 -0.00013599)
(0.000194808 -5.47714e-05 -3.76268e-05)
(0.000197689 -6.54987e-05 5.31896e-05)
(0.00019468 -7.87739e-05 0.000140097)
(0.000187136 -9.4631e-05 0.000226306)
(0.000177047 -0.000114955 0.000313056)
(0.000174872 -0.000155629 0.000441417)
(0.000170154 -2.98923e-05 -0.000933016)
(0.000185282 -1.97383e-05 -0.000587743)
(0.000206489 -2.34837e-05 -0.000402967)
(0.000223187 -3.17541e-05 -0.000254784)
(0.000234185 -4.40519e-05 -0.000124948)
(0.00023968 -5.92811e-05 -6.19581e-06)
(0.000240536 -7.7596e-05 0.000106372)
(0.000237366 -9.90584e-05 0.000217172)
(0.000233186 -0.000128082 0.000329695)
(0.000242387 -0.000178617 0.000503226)
(0.000364896 -0.000274961 -0.000525396)
(0.000352634 -0.000198594 -0.000238238)
(0.000356256 -0.000152828 -3.36386e-05)
(0.000358891 -0.00012049 0.000158193)
(0.000354927 -9.32995e-05 0.00035106)
(0.000343901 -7.10183e-05 0.000552473)
(0.000324958 -5.32743e-05 0.000769439)
(0.000298466 -4.14111e-05 0.00101186)
(0.000266149 -3.53171e-05 0.00129338)
(0.000245184 -4.732e-05 0.00184148)
(0.000265741 -0.000245611 -0.000435946)
(0.000266257 -0.000179117 -0.000196456)
(0.000278866 -0.000145106 -2.91025e-05)
(0.000288284 -0.000120601 0.000123452)
(0.000290227 -0.000100649 0.000274083)
(0.00028311 -8.50037e-05 0.000428454)
(0.000266387 -7.34446e-05 0.000591632)
(0.00024107 -6.74311e-05 0.000771)
(0.000208783 -6.73907e-05 0.000973834)
(0.000180428 -8.05804e-05 0.00135369)
(0.000215597 -0.000228216 -0.00044276)
(0.000228371 -0.000171051 -0.00021488)
(0.00024803 -0.000144225 -5.60865e-05)
(0.000262712 -0.000126027 8.41747e-05)
(0.000269353 -0.000112726 0.000217914)
(0.000264354 -0.000102621 0.000353788)
(0.000247528 -9.5407e-05 0.000494471)
(0.00022177 -9.31022e-05 0.000652176)
(0.000188483 -9.65175e-05 0.000831154)
(0.000157642 -0.000114746 0.00114078)
(0.000185066 -0.000213358 -0.000482573)
(0.000204887 -0.000164123 -0.000253248)
(0.000230238 -0.00014302 -9.46829e-05)
(0.000251605 -0.000131324 4.33215e-05)
(0.000266621 -0.00012554 0.000165577)
(0.000262958 -0.000119933 0.000290865)
(0.000241461 -0.000114075 0.000414723)
(0.000213459 -0.000113959 0.000560663)
(0.000179863 -0.000120094 0.000723203)
(0.000149756 -0.000143111 0.000985208)
(0.000163885 -0.000196084 -0.00054862)
(0.000189273 -0.000154762 -0.000307524)
(0.000220058 -0.000139272 -0.000143649)
(0.000249799 -0.000134935 3.57257e-06)
(0.000277839 -0.000138877 0.000137866)
(0.000275459 -0.000136076 0.000216472)
(0.000244684 -0.00012875 0.00035162)
(0.000212683 -0.000129403 0.000487951)
(0.000179483 -0.000138362 0.00063645)
(0.000151583 -0.000166916 0.000864914)
(0.000150911 -0.000176247 -0.000641242)
(0.000180207 -0.000141676 -0.000377827)