/*--------------------------------*- C++ -*----------------------------------*\
| =========                 |                                                 |
| \\      /  F ield         | OpenFOAM: The Open Source CFD Toolbox           |
|  \\    /   O peration     | Version:  2406                                  |
|   \\  /    A nd           | Website:  www.openfoam.com                      |
|    \\/     M anipulation  |                                                 |
\*---------------------------------------------------------------------------*/
FoamFile
{
    version     2.0;
    format      ascii;
    arch        "LSB;label=32;scalar=64";
    class       surfaceScalarField;
    location    "1.4";
    object      phi;
}
// * * * * * * * * * * * * * * * * * * * * * * * * * * * * * * * * * * * * * //

dimensions      [0 3 -1 0 0 0 0];

oriented        oriented;

internalField   nonuniform List<scalar> 
73500
(
4.64638e-05
4.64637e-05
5.7055e-05
-5.14904e-05
-5.14903e-05
3.76967e-05
4.71304e-05
6.4902e-05
-5.23269e-05
2.65017e-05
4.75019e-05
7.06874e-05
-5.30513e-05
1.36507e-05
4.76219e-05
7.45177e-05
-5.33174e-05
7.43413e-11
4.76557e-05
7.64234e-05
-5.34357e-05
-1.36505e-05
4.76557e-05
7.64234e-05
-5.34357e-05
-2.65016e-05
4.76219e-05
7.45178e-05
-5.33174e-05
-3.76966e-05
4.75019e-05
7.06874e-05
-5.30513e-05
-4.64637e-05
4.71303e-05
6.49021e-05
-5.23269e-05
4.64637e-05
5.70551e-05
-5.14903e-05
-5.14903e-05
4.71304e-05
3.76966e-05
6.4902e-05
-5.23269e-05
3.80026e-05
3.80025e-05
7.284e-05
2.65049e-05
3.80946e-05
7.8274e-05
1.35837e-05
3.80736e-05
8.17192e-05
7.09743e-11
3.80404e-05
8.33962e-05
-1.35835e-05
3.80404e-05
8.33962e-05
-2.65048e-05
3.80736e-05
8.17192e-05
-3.80025e-05
3.80946e-05
7.8274e-05
-4.71303e-05
3.80025e-05
7.284e-05
3.76966e-05
6.49021e-05
-5.23269e-05
4.7502e-05
2.65016e-05
7.06874e-05
-5.30514e-05
3.80947e-05
2.65048e-05
7.8274e-05
2.64303e-05
2.64302e-05
8.33162e-05
1.34981e-05
2.63343e-05
8.64277e-05
6.90949e-11
2.62719e-05
8.79142e-05
-1.34979e-05
2.62719e-05
8.79142e-05
-2.64302e-05
2.63343e-05
8.64277e-05
-3.80946e-05
2.64302e-05
8.33162e-05
-4.75019e-05
2.65048e-05
7.8274e-05
2.65016e-05
7.06874e-05
-5.30513e-05
4.7622e-05
1.36506e-05
7.45177e-05
-5.33175e-05
3.80736e-05
1.35836e-05
8.17192e-05
2.63344e-05
1.3498e-05
8.64277e-05
1.34198e-05
1.34197e-05
8.92796e-05
6.80393e-11
1.33736e-05
9.06222e-05
-1.34196e-05
1.33736e-05
9.06222e-05
-2.63343e-05
1.34197e-05
8.92796e-05
-3.80735e-05
1.3498e-05
8.64277e-05
-4.76219e-05
1.35836e-05
8.17192e-05
1.36506e-05
7.45178e-05
-5.33174e-05
4.76558e-05
-3.23365e-11
7.64234e-05
-5.34358e-05
3.80404e-05
-3.13072e-11
8.33962e-05
2.6272e-05
-3.08112e-11
8.79142e-05
1.33737e-05
-3.07206e-11
9.06222e-05
6.74233e-11
-3.0808e-11
9.18866e-05
-1.33736e-05
-3.09922e-11
9.18866e-05
-2.62719e-05
-3.12787e-11
9.06222e-05
-3.80403e-05
-3.17524e-11
8.79142e-05
-4.76557e-05
-3.25486e-11
8.33962e-05
-3.38206e-11
7.64235e-05
-5.34357e-05
4.76558e-05
-1.36506e-05
7.64234e-05
-5.34358e-05
3.80404e-05
-1.35836e-05
8.33962e-05
2.6272e-05
-1.3498e-05
8.79142e-05
1.33737e-05
-1.34197e-05
9.06222e-05
6.72601e-11
-1.33737e-05
9.18866e-05
-1.33736e-05
-1.33737e-05
9.18866e-05
-2.62719e-05
-1.34197e-05
9.06222e-05
-3.80403e-05
-1.3498e-05
8.79142e-05
-4.76557e-05
-1.35836e-05
8.33962e-05
-1.36506e-05
7.64235e-05
-5.34357e-05
4.7622e-05
-2.65017e-05
7.45177e-05
-5.33175e-05
3.80736e-05
-2.65049e-05
8.17192e-05
2.63344e-05
-2.64303e-05
8.64277e-05
1.34198e-05
-2.63344e-05
8.92796e-05
6.75674e-11
-2.6272e-05
9.06222e-05
-1.34196e-05
-2.6272e-05
9.06222e-05
-2.63343e-05
-2.63344e-05
8.92796e-05
-3.80735e-05
-2.64303e-05
8.64277e-05
-4.76219e-05
-2.65049e-05
8.17192e-05
-2.65017e-05
7.45178e-05
-5.33174e-05
4.7502e-05
-3.76967e-05
7.06874e-05
-5.30514e-05
3.80947e-05
-3.80026e-05
7.8274e-05
2.64303e-05
-3.80947e-05
8.33161e-05
1.34981e-05
-3.80736e-05
8.64277e-05
6.84152e-11
-3.80404e-05
8.79142e-05
-1.34979e-05
-3.80404e-05
8.79142e-05
-2.64302e-05
-3.80736e-05
8.64277e-05
-3.80946e-05
-3.80947e-05
8.33162e-05
-4.75019e-05
-3.80026e-05
7.8274e-05
-3.76967e-05
7.06874e-05
-5.30513e-05
4.71304e-05
-4.64638e-05
6.4902e-05
-5.23269e-05
3.80026e-05
-4.71304e-05
7.284e-05
2.65049e-05
-4.75019e-05
7.8274e-05
1.35837e-05
-4.7622e-05
8.17192e-05
7.01193e-11
-4.76558e-05
8.33962e-05
-1.35835e-05
-4.76558e-05
8.33962e-05
-2.65048e-05
-4.76219e-05
8.17192e-05
-3.80025e-05
-4.75019e-05
7.8274e-05
-4.71303e-05
-4.71304e-05
7.284e-05
-4.64638e-05
6.4902e-05
-5.23269e-05
4.64638e-05
5.7055e-05
-5.14904e-05
-5.14904e-05
3.76967e-05
6.4902e-05
-5.23269e-05
2.65017e-05
7.06874e-05
-5.30513e-05
1.36507e-05
7.45177e-05
-5.33174e-05
7.35644e-11
7.64234e-05
-5.34357e-05
-1.36505e-05
7.64234e-05
-5.34357e-05
-2.65016e-05
7.45177e-05
-5.33174e-05
-3.76966e-05
7.06874e-05
-5.30513e-05
-4.64637e-05
6.4902e-05
-5.23269e-05
5.70551e-05
-5.14903e-05
-5.14904e-05
1.74557e-05
1.74554e-05
5.59097e-05
-1.6883e-05
-1.68828e-05
1.56113e-05
1.95119e-05
6.58053e-05
-1.85708e-05
1.16373e-05
2.09098e-05
7.35987e-05
-1.98471e-05
6.20122e-06
2.18254e-05
7.89052e-05
-2.07767e-05
3.23735e-10
2.22681e-05
8.15788e-05
-2.12226e-05
-6.20058e-06
2.22681e-05
8.15789e-05
-2.12226e-05
-1.16368e-05
2.18254e-05
7.89053e-05
-2.07768e-05
-1.56108e-05
2.09098e-05
7.35988e-05
-1.98472e-05
-1.74553e-05
1.9512e-05
6.58055e-05
-1.85708e-05
1.74554e-05
5.59099e-05
-1.68827e-05
-1.68828e-05
1.95123e-05
1.56109e-05
6.58053e-05
-1.8571e-05
1.7486e-05
1.74856e-05
7.68926e-05
1.30087e-05
1.87071e-05
8.4954e-05
6.90956e-06
1.94674e-05
9.01764e-05
2.95699e-10
1.98341e-05
9.27395e-05
-6.90898e-06
1.98341e-05
9.27395e-05
-1.30082e-05
1.94674e-05
9.01765e-05
-1.74855e-05
1.87071e-05
8.49541e-05
-1.95119e-05
1.74856e-05
7.68927e-05
1.56109e-05
6.58055e-05
-1.85707e-05
2.09101e-05
1.16369e-05
7.35987e-05
-1.98474e-05
1.87074e-05
1.30083e-05
8.4954e-05
1.38919e-05
1.38915e-05
9.29472e-05
7.36679e-06
1.44292e-05
9.7991e-05
2.76807e-10
1.46898e-05
0.000100425
-7.36625e-06
1.46898e-05
0.000100425
-1.38914e-05
1.44292e-05
9.7991e-05
-1.8707e-05
1.38915e-05
9.29473e-05
-2.09097e-05
1.30083e-05
8.49541e-05
1.16369e-05
7.35988e-05
-1.98471e-05
2.18257e-05
6.20076e-06
7.89051e-05
-2.07769e-05
1.94677e-05
6.90914e-06
9.01764e-05
1.44295e-05
7.3664e-06
9.7991e-05
7.64242e-06
7.64205e-06
0.000102854
2.64896e-10
7.77642e-06
0.000105178
-7.64191e-06
7.77642e-06
0.000105178
-1.4429e-05
7.64205e-06
0.000102854
-1.94673e-05
7.3664e-06
9.7991e-05
-2.18253e-05
6.90914e-06
9.01765e-05
6.20076e-06
7.89053e-05
-2.07767e-05
2.22684e-05
-1.39047e-10
8.15788e-05
-2.12228e-05
1.98344e-05
-1.29149e-10
9.27395e-05
1.46902e-05
-1.22357e-10
0.000100425
7.77679e-06
-1.1823e-10
0.000105178
2.59037e-10
-1.16425e-10
0.00010744
-7.77628e-06
-1.16762e-10
0.00010744
-1.46897e-05
-1.19247e-10
0.000105178
-1.98339e-05
-1.24134e-10
0.000100425
-2.2268e-05
-1.31764e-10
9.27396e-05
-1.42711e-10
8.15789e-05
-2.12226e-05
2.22684e-05
-6.20103e-06
8.15788e-05
-2.12228e-05
1.98344e-05
-6.9094e-06
9.27395e-05
1.46902e-05
-7.36664e-06
0.000100425
7.77679e-06
-7.64228e-06
0.000105178
2.58789e-10
-7.77665e-06
0.00010744
-7.77628e-06
-7.77665e-06
0.00010744
-1.46897e-05
-7.64228e-06
0.000105178
-1.98339e-05
-7.36664e-06
0.000100425
-2.2268e-05
-6.9094e-06
9.27396e-05
-6.20104e-06
8.15789e-05
-2.12226e-05
2.18257e-05
-1.16372e-05
7.89051e-05
-2.07769e-05
1.94677e-05
-1.30086e-05
9.01764e-05
1.44295e-05
-1.38917e-05
9.79909e-05
7.64242e-06
-1.44294e-05
0.000102854
2.64148e-10
-1.46901e-05
0.000105178
-7.64191e-06
-1.46901e-05
0.000105178
-1.4429e-05
-1.44294e-05
0.000102854
-1.94673e-05
-1.38917e-05
9.7991e-05
-2.18253e-05
-1.30086e-05
9.01764e-05
-1.16372e-05
7.89053e-05
-2.07767e-05
2.09101e-05
-1.56111e-05
7.35986e-05
-1.98473e-05
1.87074e-05
-1.74858e-05
8.49539e-05
1.38919e-05
-1.87073e-05
9.29472e-05
7.36679e-06
-1.94676e-05
9.79909e-05
2.7546e-10
-1.98343e-05
0.000100425
-7.36625e-06
-1.98343e-05
0.000100425
-1.38914e-05
-1.94676e-05
9.7991e-05
-1.8707e-05
-1.87073e-05
9.29473e-05
-2.09097e-05
-1.74859e-05
8.4954e-05
-1.56111e-05
7.35987e-05
-1.98471e-05
1.95122e-05
-1.74556e-05
6.58053e-05
-1.8571e-05
1.7486e-05
-1.95121e-05
7.68925e-05
1.30087e-05
-2.091e-05
8.49539e-05
6.90956e-06
-2.18256e-05
9.01764e-05
2.93487e-10
-2.22683e-05
9.27395e-05
-6.90898e-06
-2.22683e-05
9.27395e-05
-1.30082e-05
-2.18256e-05
9.01764e-05
-1.74855e-05
-2.091e-05
8.4954e-05
-1.95118e-05
-1.95121e-05
7.68926e-05
-1.74556e-05
6.58054e-05
-1.85707e-05
1.74557e-05
5.59097e-05
-1.68829e-05
-1.6883e-05
1.56113e-05
6.58053e-05
-1.85709e-05
1.16373e-05
7.35986e-05
-1.98473e-05
6.20121e-06
7.89051e-05
-2.07769e-05
3.2049e-10
8.15788e-05
-2.12228e-05
-6.20058e-06
8.15788e-05
-2.12228e-05
-1.16367e-05
7.89052e-05
-2.07769e-05
-1.56107e-05
7.35987e-05
-1.98473e-05
-1.74553e-05
6.58054e-05
-1.8571e-05
5.59098e-05
-1.68827e-05
-1.6883e-05
9.76189e-06
9.76111e-06
5.42208e-05
-8.91732e-06
-8.91675e-06
8.99739e-06
1.14975e-05
6.53703e-05
-1.0298e-05
6.88574e-06
1.27598e-05
7.43729e-05
-1.14224e-05
3.73057e-06
1.36067e-05
8.06636e-05
-1.22099e-05
7.51785e-10
1.40278e-05
8.38838e-05
-1.2603e-05
-3.7291e-06
1.40278e-05
8.38839e-05
-1.2603e-05
-6.88438e-06
1.36067e-05
8.06638e-05
-1.22099e-05
-8.99621e-06
1.27599e-05
7.43731e-05
-1.14224e-05
-9.76092e-06
1.14976e-05
6.53706e-05
-1.02981e-05
9.76123e-06
5.42212e-05
-8.91664e-06
-8.91687e-06
1.14982e-05
8.99647e-06
6.53702e-05
-1.02985e-05
1.06876e-05
1.06868e-05
7.8514e-05
8.17775e-06
1.18595e-05
8.83642e-05
4.41958e-06
1.26113e-05
9.493e-05
6.77603e-10
1.29796e-05
9.82067e-05
-4.41825e-06
1.29796e-05
9.82067e-05
-8.17651e-06
1.26113e-05
9.49301e-05
-1.06865e-05
1.18595e-05
8.83644e-05
-1.14973e-05
1.06868e-05
7.85143e-05
8.99657e-06
6.53707e-05
-1.02978e-05
1.27605e-05
6.88472e-06
7.43728e-05
-1.14228e-05
1.18602e-05
8.17684e-06
8.83641e-05
9.05852e-06
9.05769e-06
9.85507e-05
4.88572e-06
9.60585e-06
0.000105169
6.25732e-10
9.86991e-06
0.00010842
-4.88449e-06
9.86991e-06
0.00010842
-9.05737e-06
9.60585e-06
0.000105169
-1.18592e-05
9.0577e-06
9.85509e-05
-1.27596e-05
8.17687e-06
8.83644e-05
6.88479e-06
7.43732e-05
-1.14222e-05
1.36072e-05
3.7295e-06
8.06634e-05
-1.22103e-05
1.2612e-05
4.41862e-06
9.49299e-05
9.60664e-06
4.88484e-06
0.000105169
5.16991e-06
5.16908e-06
0.000111727
5.92477e-10
5.30267e-06
0.000114914
-5.16875e-06
5.30266e-06
0.000114914
-9.60555e-06
5.16908e-06
0.000111727
-1.2611e-05
4.88484e-06
0.000105169
-1.36065e-05
4.41863e-06
9.49302e-05
3.72953e-06
8.06638e-05
-1.22098e-05
1.40284e-05
-3.12709e-10
8.38836e-05
-1.26034e-05
1.29803e-05
-2.84889e-10
9.82065e-05
9.87067e-06
-2.65778e-10
0.00010842
5.30347e-06
-2.54224e-10
0.000114914
5.75427e-10
-2.49166e-10
0.000118045
-5.30235e-06
-2.50463e-10
0.000118045
-9.86961e-06
-2.58125e-10
0.000114914
-1.29793e-05
-2.72326e-10
0.00010842
-1.40276e-05
-2.94e-10
9.82068e-05
-3.24461e-10
8.3884e-05
-1.26028e-05
1.40284e-05
-3.73011e-06
8.38836e-05
-1.26034e-05
1.29803e-05
-4.41918e-06
9.82065e-05
9.87067e-06
-4.88536e-06
0.00010842
5.30347e-06
-5.16958e-06
0.000114914
5.74297e-10
-5.30316e-06
0.000118045
-5.30235e-06
-5.30316e-06
0.000118045
-9.86961e-06
-5.16959e-06
0.000114914
-1.29793e-05
-4.88537e-06
0.00010842
-1.40276e-05
-4.41921e-06
9.82068e-05
-3.73016e-06
8.38839e-05
-1.26028e-05
1.36072e-05
-6.88528e-06
8.06634e-05
-1.22103e-05
1.26119e-05
-8.17736e-06
9.49298e-05
9.60663e-06
-9.05818e-06
0.000105169
5.16991e-06
-9.60632e-06
0.000111727
5.89024e-10
-9.87037e-06
0.000114914
-5.16876e-06
-9.87037e-06
0.000114914
-9.60555e-06
-9.60633e-06
0.000111727
-1.2611e-05
-9.0582e-06
0.000105169
-1.36064e-05
-8.17741e-06
9.49301e-05
-6.88537e-06
8.06638e-05
-1.22098e-05
1.27604e-05
-8.99697e-06
7.43726e-05
-1.14228e-05
1.18602e-05
-1.06872e-05
8.8364e-05
9.0585e-06
-1.18599e-05
9.85506e-05
4.88571e-06
-1.26117e-05
0.000105169
6.1977e-10
-1.298e-05
0.00010842
-4.88449e-06
-1.298e-05
0.00010842
-9.05737e-06
-1.26117e-05
0.000105169
-1.18592e-05
-1.186e-05
9.85509e-05
-1.27596e-05
-1.06873e-05
8.83643e-05
-8.99709e-06
7.4373e-05
-1.14222e-05
1.14982e-05
-9.76151e-06
6.53701e-05
-1.02984e-05
1.06875e-05
-1.14979e-05
7.85138e-05
8.17772e-06
-1.27602e-05
8.8364e-05
4.41956e-06
-1.3607e-05
9.49299e-05
6.68712e-10
-1.40281e-05
9.82065e-05
-4.41825e-06
-1.40282e-05
9.82066e-05
-8.1765e-06
-1.3607e-05
9.493e-05
-1.06865e-05
-1.27602e-05
8.83643e-05
-1.14973e-05
-1.1498e-05
7.85142e-05
-9.76165e-06
6.53705e-05
-1.02978e-05
9.76182e-06
5.42207e-05
-8.91704e-06
-8.91726e-06
8.99734e-06
6.53701e-05
-1.02982e-05
6.88569e-06
7.43727e-05
-1.14226e-05
3.73054e-06
8.06634e-05
-1.22102e-05
7.39934e-10
8.38837e-05
-1.26032e-05
-3.72909e-06
8.38837e-05
-1.26032e-05
-6.88435e-06
8.06636e-05
-1.22102e-05
-8.99617e-06
7.43729e-05
-1.14227e-05
-9.76087e-06
6.53705e-05
-1.02983e-05
5.42211e-05
-8.91659e-06
-8.91716e-06
2.27477e-06
2.27315e-06
5.31027e-05
-1.7155e-06
-1.71433e-06
2.42156e-06
3.04659e-06
6.4362e-05
-2.18515e-06
2.02261e-06
3.69577e-06
7.37103e-05
-2.63431e-06
1.14992e-06
4.16014e-06
8.0354e-05
-2.97783e-06
1.53229e-09
4.39741e-06
8.37912e-05
-3.15643e-06
-1.14693e-06
4.39743e-06
8.37913e-05
-3.15645e-06
-2.01984e-06
4.1602e-06
8.03544e-05
-2.9779e-06
-2.41914e-06
3.69588e-06
7.3711e-05
-2.63443e-06
-2.27281e-06
3.04679e-06
6.43629e-05
-2.18536e-06
2.27345e-06
5.31037e-05
-1.71413e-06
-1.7146e-06
3.04801e-06
2.41965e-06
6.43619e-05
-2.18622e-06
3.29395e-06
3.29227e-06
7.80223e-05
2.75113e-06
3.97998e-06
8.86228e-05
1.55682e-06
4.44291e-06
9.58415e-05
1.3627e-09
4.66912e-06
9.94904e-05
-1.55415e-06
4.66914e-06
9.94905e-05
-2.74864e-06
4.44295e-06
9.58418e-05
-3.29175e-06
3.98006e-06
8.86233e-05
-3.04623e-06
3.29242e-06
7.80231e-05
2.4199e-06
6.43629e-05
-2.18494e-06
3.69703e-06
2.0205e-06
7.37101e-05
-2.63524e-06
3.98149e-06
2.74927e-06
8.86226e-05
3.30631e-06
3.30464e-06
9.99012e-05
1.86011e-06
3.65885e-06
0.000107399
1.2444e-09
3.81912e-06
0.000111129
-1.85767e-06
3.81913e-06
0.000111129
-3.30403e-06
3.65887e-06
0.0001074
-3.97948e-06
3.30469e-06
9.99018e-05
-3.69539e-06
2.74937e-06
8.86234e-05
2.02068e-06
7.37111e-05
-2.63407e-06
4.16129e-06
1.14772e-06
8.03536e-05
-2.97868e-06
4.44431e-06
1.55488e-06
9.58412e-05
3.66041e-06
1.85834e-06
0.000107399
2.04448e-06
2.04283e-06
0.000114959
1.17068e-09
2.11577e-06
0.000118661
-2.04219e-06
2.11577e-06
0.000118661
-3.65826e-06
2.04283e-06
0.00011496
-4.44241e-06
1.85836e-06
0.0001074
-4.15975e-06
1.55492e-06
9.58419e-05
1.1478e-06
8.03545e-05
-2.97757e-06
4.3985e-06
-6.43197e-10
8.37907e-05
-3.15722e-06
4.67046e-06
-5.81467e-10
9.949e-05
3.82063e-06
-5.38157e-10
0.000111128
2.11737e-06
-5.11635e-10
0.000118661
1.13414e-09
-4.99416e-10
0.000122278
-2.11514e-06
-5.01354e-10
0.000122278
-3.81854e-06
-5.17662e-10
0.000118661
-4.66862e-06
-5.48846e-10
0.000111129
-4.39701e-06
-5.97413e-10
9.94907e-05
-6.65172e-10
8.37916e-05
-3.15614e-06
4.39849e-06
-1.14898e-06
8.37906e-05
-3.15721e-06
4.67045e-06
-1.55602e-06
9.94899e-05
3.82063e-06
-1.8594e-06
0.000111128
2.11737e-06
-2.04383e-06
0.000118661
1.13262e-09
-2.11675e-06
0.000122278
-2.11515e-06
-2.11675e-06
0.000122278
-3.81854e-06
-2.04385e-06
0.000118661
-4.66861e-06
-1.85943e-06
0.000111129
-4.397e-06
-1.55608e-06
9.94906e-05
-1.1491e-06
8.37915e-05
-3.15614e-06
4.16126e-06
-2.02167e-06
8.03534e-05
-2.97864e-06
4.44428e-06
-2.75034e-06
9.58411e-05
3.6604e-06
-3.30563e-06
0.000107399
2.04448e-06
-3.65979e-06
0.000114959
1.16593e-09
-3.82004e-06
0.000118661
-2.04219e-06
-3.82005e-06
0.000118661
-3.65826e-06
-3.65982e-06
0.000114959
-4.44239e-06
-3.30569e-06
0.0001074
-4.15973e-06
-2.75046e-06
9.58418e-05
-2.02188e-06
8.03544e-05
-2.97754e-06
3.69697e-06
-2.42067e-06
7.37099e-05
-2.63518e-06
3.98144e-06
-3.2932e-06
8.86224e-05
3.30628e-06
-3.98085e-06
9.9901e-05
1.86009e-06
-4.44374e-06
0.000107399
1.23573e-09
-4.66994e-06
0.000111128
-1.85767e-06
-4.66995e-06
0.000111128
-3.30402e-06
-4.44379e-06
0.0001074
-3.97944e-06
-3.98095e-06
9.99015e-05
-3.69534e-06
-3.29337e-06
8.86231e-05
-2.42095e-06
7.37108e-05
-2.63402e-06
3.04791e-06
-2.27398e-06
6.43616e-05
-2.18612e-06
3.29386e-06
-3.04735e-06
7.8022e-05
2.75107e-06
-3.69647e-06
8.86224e-05
1.55678e-06
-4.16081e-06
9.58412e-05
1.3489e-09
-4.39807e-06
9.94901e-05
-1.55414e-06
-4.39809e-06
9.94902e-05
-2.7486e-06
-4.16088e-06
9.58415e-05
-3.29169e-06
-3.6966e-06
8.8623e-05
-3.04614e-06
-3.04757e-06
7.80228e-05
-2.2743e-06
6.43625e-05
-2.18485e-06
2.27462e-06
5.31023e-05
-1.7149e-06
-1.71537e-06
2.42143e-06
6.43616e-05
-2.18569e-06
2.02251e-06
7.37099e-05
-2.63481e-06
1.14986e-06
8.03536e-05
-2.97831e-06
1.51253e-09
8.37908e-05
-3.1569e-06
-1.1469e-06
8.3791e-05
-3.15693e-06
-2.01977e-06
8.0354e-05
-2.97839e-06
-2.41904e-06
7.37106e-05
-2.63494e-06
-2.27269e-06
6.43625e-05
-2.18592e-06
5.31033e-05
-1.71401e-06
-1.71519e-06
1.81069e-06
1.80772e-06
5.26889e-05
-1.60339e-06
-1.60123e-06
1.72297e-06
2.20775e-06
6.4134e-05
-1.89198e-06
1.35887e-06
2.53353e-06
7.36826e-05
-2.14172e-06
7.51557e-07
2.76405e-06
8.05167e-05
-2.31941e-06
2.82314e-09
2.8804e-06
8.40695e-05
-2.40995e-06
-7.46048e-07
2.88044e-06
8.40698e-05
-2.40999e-06
-1.35376e-06
2.76417e-06
8.05175e-05
-2.31955e-06
-1.71852e-06
2.53376e-06
7.36839e-05
-2.14195e-06
-1.80709e-06
2.20813e-06
6.41357e-05
-1.89238e-06
1.80828e-06
5.26909e-05
-1.60087e-06
-1.60173e-06
2.21038e-06
1.71945e-06
6.41338e-05
-1.89395e-06
2.15163e-06
2.14853e-06
7.81403e-05
1.71267e-06
2.49154e-06
8.91037e-05
9.48651e-07
2.72426e-06
9.66453e-05
2.51055e-09
2.83461e-06
0.000100482
-9.4374e-07
2.83464e-06
0.000100483
-1.70809e-06
2.72434e-06
9.6646e-05
-2.1476e-06
2.49171e-06
8.91049e-05
-2.20709e-06
2.14882e-06
7.81419e-05
1.71993e-06
6.41358e-05
-1.8916e-06
2.53585e-06
1.35497e-06
7.36822e-05
-2.14342e-06
2.49431e-06
1.70924e-06
8.91034e-05
1.99052e-06
1.98744e-06
0.000100909
1.09978e-06
2.165e-06
0.000108849
2.28342e-09
2.23641e-06
0.000112824
-1.09531e-06
2.23642e-06
0.000112824
-1.98634e-06
2.16503e-06
0.00010885
-2.49063e-06
1.98754e-06
0.00010091
-2.53285e-06
1.70944e-06
8.9105e-05
1.35532e-06
7.36841e-05
-2.14128e-06
2.76616e-06
7.47499e-07
8.05159e-05
-2.32097e-06
2.72681e-06
9.45071e-07
9.66448e-05
2.16785e-06
1.09654e-06
0.000108849
1.18931e-06
1.18629e-06
0.000116917
2.13942e-09
1.21008e-06
0.000120875
-1.18512e-06
1.21008e-06
0.000120875
-2.16392e-06
1.1863e-06
0.000116917
-2.72335e-06
1.09657e-06
0.00010885
-2.76335e-06
9.45152e-07
9.66462e-05
7.47662e-07
8.05178e-05
-2.31894e-06
2.88239e-06
-1.19392e-09
8.40683e-05
-2.41139e-06
2.83705e-06
-1.07186e-09
0.000100481
2.23916e-06
-9.85113e-10
0.000112824
1.21301e-06
-9.32012e-10
0.000120874
2.06829e-09
-9.07691e-10
0.0001247
-1.20894e-06
-9.11284e-10
0.0001247
-2.23535e-06
-9.43056e-10
0.000120875
-2.83369e-06
-1.00383e-09
0.000112825
-2.87967e-06
-1.0972e-09
0.000100483
-1.22373e-09
8.40702e-05
-2.40944e-06
2.88237e-06
-7.49829e-07
8.40682e-05
-2.41137e-06
2.83704e-06
-9.47167e-07
0.000100481
2.23915e-06
-1.09847e-06
0.000112824
1.213e-06
-1.18812e-06
0.000120874
2.0659e-09
-1.21187e-06
0.0001247
-1.20894e-06
-1.21187e-06
0.0001247
-2.23535e-06
-1.18814e-06
0.000120875
-2.83368e-06
-1.09854e-06
0.000112825
-2.87965e-06
-9.47297e-07
0.000100483
-7.5005e-07
8.40701e-05
-2.40942e-06
2.7661e-06
-1.35713e-06
8.05155e-05
-2.3209e-06
2.72676e-06
-1.7112e-06
9.66445e-05
2.16782e-06
-1.98925e-06
0.000108849
1.1893e-06
-2.16671e-06
0.000116916
2.13187e-09
-2.23808e-06
0.000120874
-1.18512e-06
-2.2381e-06
0.000120874
-2.16391e-06
-2.16677e-06
0.000116917
-2.72331e-06
-1.98937e-06
0.00010885
-2.76329e-06
-1.71143e-06
9.66459e-05
-1.35753e-06
8.05174e-05
-2.31889e-06
2.53574e-06
-1.72133e-06
7.36816e-05
-2.14331e-06
2.49422e-06
-2.15024e-06
8.9103e-05
1.99046e-06
-2.49313e-06
0.000100909
1.09975e-06
-2.72576e-06
0.000108849
2.26978e-09
-2.83609e-06
0.000112824
-1.0953e-06
-2.83611e-06
0.000112824
-1.9863e-06
-2.72586e-06
0.00010885
-2.49056e-06
-2.49333e-06
0.00010091
-2.53276e-06
-2.15058e-06
8.91045e-05
-1.72185e-06
7.36835e-05
-2.14119e-06
2.2102e-06
-1.80924e-06
6.41331e-05
-1.89377e-06
2.15148e-06
-2.20915e-06
7.81396e-05
1.71256e-06
-2.53482e-06
8.91031e-05
9.48585e-07
-2.76527e-06
9.66447e-05
2.48955e-09
-2.8816e-06
0.000100482
-9.43715e-07
-2.88164e-06
0.000100482
-1.70801e-06
-2.7654e-06
9.66454e-05
-2.14748e-06
-2.53507e-06
8.91042e-05
-2.20694e-06
-2.20956e-06
7.81412e-05
-1.80983e-06
6.4135e-05
-1.89143e-06
1.81043e-06
5.26881e-05
-1.6023e-06
-1.60317e-06
1.72274e-06
6.41332e-05
-1.89298e-06
1.35869e-06
7.36818e-05
-2.14264e-06
7.51448e-07
8.05158e-05
-2.32029e-06
2.79488e-09
8.40687e-05
-2.41081e-06
-7.45992e-07
8.40689e-05
-2.41085e-06
-1.35363e-06
8.05166e-05
-2.32044e-06
-1.71833e-06
7.36831e-05
-2.14288e-06
-1.80686e-06
6.41348e-05
-1.8934e-06
5.26901e-05
-1.60066e-06
-1.60282e-06
3.44366e-07
3.39254e-07
5.2475e-05
-2.36694e-07
-2.32983e-07
3.94629e-07
4.8062e-07
6.3912e-05
-3.08893e-07
3.46355e-07
6.11913e-07
7.35069e-05
-3.87949e-07
2.04325e-07
7.12732e-07
8.03976e-05
-4.51656e-07
4.77403e-09
7.66148e-07
8.39885e-05
-4.85605e-07
-1.95008e-07
7.6622e-07
8.3989e-05
-4.85678e-07
-3.37716e-07
7.12964e-07
8.03991e-05
-4.519e-07
-3.87111e-07
6.12338e-07
7.35093e-05
-3.88361e-07
-3.38296e-07
4.81326e-07
6.39151e-05
-3.09605e-07
3.40266e-07
5.24786e-05
-2.32431e-07
-2.33869e-07
4.85154e-07
3.88555e-07
6.39116e-05
-3.12284e-07
5.67641e-07
5.62295e-07
7.79761e-05
5.00204e-07
7.16926e-07
8.90661e-05
2.93409e-07
8.31274e-07
9.67335e-05
4.25778e-09
8.89494e-07
0.000100648
-2.85082e-07
8.89545e-07
0.000100649
-4.92442e-07
8.31444e-07
9.67349e-05
-5.60816e-07
7.17255e-07
8.90683e-05
-4.7959e-07
5.6286e-07
7.79792e-05
3.89449e-07
6.39153e-05
-3.08301e-07
6.15895e-07
3.39632e-07
7.3506e-05
-3.90861e-07
7.2169e-07
4.94305e-07
8.90656e-05
6.34996e-07
6.29705e-07
0.000101083
3.70501e-07
7.26917e-07
0.000109218
3.87548e-09
7.72384e-07
0.000113308
-3.62914e-07
7.72409e-07
0.000113308
-6.27908e-07
7.27015e-07
0.000109219
-7.15446e-07
6.29915e-07
0.000101085
-6.10824e-07
4.94695e-07
8.90685e-05
3.40301e-07
7.35097e-05
-3.87248e-07
7.16355e-07
1.9734e-07
8.03961e-05
-4.5431e-07
8.35654e-07
2.87243e-07
9.67325e-05
7.31821e-07
3.64933e-07
0.000109218
4.25111e-07
4.19918e-07
0.00011753
3.63174e-09
4.42318e-07
0.000121626
-4.17994e-07
4.42323e-07
0.000121626
-7.25165e-07
4.19953e-07
0.000117531
-8.2979e-07
3.65025e-07
0.00010922
-7.11595e-07
2.87434e-07
9.67353e-05
1.9769e-07
8.03997e-05
-4.5089e-07
7.69546e-07
-2.13012e-09
8.39863e-05
-4.88057e-07
8.9366e-07
-1.90121e-09
0.000100646
7.77094e-07
-1.73712e-09
0.000113307
4.47333e-07
-1.63566e-09
0.000121626
3.51406e-09
-1.58868e-09
0.000125588
-4.40436e-07
-1.59151e-09
0.000125588
-7.70639e-07
-1.64365e-09
0.000121627
-8.87979e-07
-1.74797e-09
0.000113309
-7.64942e-07
-1.90881e-09
0.000100649
-2.12425e-09
8.39898e-05
-4.8475e-07
7.69513e-07
-2.01497e-07
8.39861e-05
-4.88024e-07
8.93637e-07
-2.90961e-07
0.000100646
7.77082e-07
-3.68333e-07
0.000113307
4.47329e-07
-4.23123e-07
0.000121625
3.51228e-09
-4.45437e-07
0.000125587
-4.40435e-07
-4.45446e-07
0.000125588
-7.70629e-07
-4.23173e-07
0.000121626
-8.87958e-07
-3.68446e-07
0.000113309
-7.64912e-07
-2.91166e-07
0.000100649
-2.01835e-07
8.39896e-05
-4.84719e-07
7.16249e-07
-3.43487e-07
8.03955e-05
-4.54199e-07
8.35576e-07
-4.9777e-07
9.67319e-05
7.31774e-07
-6.32881e-07
0.000109217
4.25088e-07
-7.29913e-07
0.00011753
3.62588e-09
-7.75302e-07
0.000121626
-4.17983e-07
-7.75332e-07
0.000121626
-7.25127e-07
-7.30025e-07
0.000117531
-8.29721e-07
-6.33109e-07
0.000109219
-7.11498e-07
-4.98171e-07
9.67347e-05
-3.4414e-07
8.0399e-05
-4.50787e-07
6.15702e-07
-3.9191e-07
7.3505e-05
-3.90672e-07
7.21538e-07
-5.65341e-07
8.90647e-05
6.34895e-07
-7.19721e-07
0.000101082
3.70447e-07
-8.3391e-07
0.000109217
3.86333e-09
-8.92059e-07
0.000113307
-3.62883e-07
-8.92114e-07
0.000113308
-6.27827e-07
-8.34092e-07
0.000109219
-7.15314e-07
-7.20065e-07
0.000101084
-6.10648e-07
-5.65912e-07
8.90675e-05
-3.92784e-07
7.35086e-05
-3.87075e-07
4.84832e-07
-3.41962e-07
6.39102e-05
-3.11958e-07
5.67381e-07
-4.83102e-07
7.79748e-05
5.00017e-07
-6.14181e-07
8.90649e-05
2.93304e-07
-7.14869e-07
9.67323e-05
4.23532e-09
-7.68224e-07
0.000100647
-2.8502e-07
-7.68298e-07
0.000100647
-4.92295e-07
-7.1511e-07
9.67337e-05
-5.60592e-07
-6.14615e-07
8.9067e-05
-4.79302e-07
-4.83808e-07
7.79778e-05
-3.42953e-07
6.39139e-05
-3.08004e-07
3.43903e-07
5.24734e-05
-2.3488e-07
-2.36285e-07
3.94217e-07
6.39104e-05
-3.10664e-07
3.46037e-07
7.35054e-05
-3.89558e-07
2.04141e-07
8.03961e-05
-4.53184e-07
4.73713e-09
8.39869e-05
-4.87087e-07
-1.94897e-07
8.39874e-05
-4.87163e-07
-3.37466e-07
8.03975e-05
-4.53432e-07
-3.8676e-07
7.35077e-05
-3.89973e-07
-3.37888e-07
6.39135e-05
-3.11371e-07
5.2477e-05
-2.32071e-07
-2.35744e-07
4.26247e-07
4.18033e-07
5.23938e-05
-3.84555e-07
-3.7861e-07
3.99927e-07
5.03201e-07
6.38785e-05
-4.43456e-07
3.13975e-07
5.7267e-07
7.35188e-05
-4.98666e-07
1.75942e-07
6.22568e-07
8.04507e-05
-5.37649e-07
7.53432e-09
6.48204e-07
8.40663e-05
-5.57586e-07
-1.61241e-07
6.48323e-07
8.40671e-05
-5.57702e-07
-3.00349e-07
6.22951e-07
8.04533e-05
-5.38034e-07
-3.88075e-07
5.73364e-07
7.3523e-05
-4.99314e-07
-4.16684e-07
5.04339e-07
6.3884e-05
-4.44572e-07
4.19644e-07
5.24001e-05
-3.77846e-07
-3.79982e-07
5.1053e-07
3.90148e-07
6.38779e-05
-4.48924e-07
4.88432e-07
4.79775e-07
7.80216e-05
3.86718e-07
5.53236e-07
8.91872e-05
2.1631e-07
6.05326e-07
9.69212e-05
6.77827e-09
6.3107e-07
0.000100875
-2.03057e-07
6.31158e-07
0.000100876
-3.74368e-07
6.05619e-07
9.69235e-05
-4.77578e-07
5.53795e-07
8.91911e-05
-5.01688e-07
4.80716e-07
7.80269e-05
3.91608e-07
6.38842e-05
-4.42598e-07
5.79129e-07
3.0314e-07
7.35173e-05
-5.03378e-07
5.60969e-07
3.77161e-07
8.91864e-05
4.46795e-07
4.38206e-07
0.000101312
2.49466e-07
4.8038e-07
0.000109541
6.19754e-09
4.98916e-07
0.000113683
-2.37334e-07
4.98965e-07
0.000113684
-4.35462e-07
4.80559e-07
0.000109543
-5.50989e-07
4.3858e-07
0.000101316
-5.71024e-07
3.77837e-07
8.91914e-05
3.04269e-07
7.35236e-05
-4.97607e-07
6.28451e-07
1.64681e-07
8.04481e-05
-5.41954e-07
6.12438e-07
2.06322e-07
9.69193e-05
4.88338e-07
2.40431e-07
0.00010954
2.71682e-07
2.63261e-07
0.000117964
5.81658e-09
2.71291e-07
0.00012212
-2.60283e-07
2.71305e-07
0.00012212
-4.77675e-07
2.63337e-07
0.000117966
-6.03044e-07
2.40615e-07
0.000109543
-6.20823e-07
2.06684e-07
9.69242e-05
1.65318e-07
8.04543e-05
-5.36474e-07
6.53717e-07
-3.59698e-09
8.40624e-05
-5.61567e-07
6.37825e-07
-3.19634e-09
0.000100872
5.0655e-07
-2.90414e-09
0.000113682
2.79415e-07
-2.72042e-09
0.000122119
5.62809e-09
-2.63322e-09
0.000126135
-2.68364e-07
-2.63323e-09
0.000126136
-4.96207e-07
-2.71837e-09
0.00012212
-6.28721e-07
-2.89166e-09
0.000113685
-6.46335e-07
-3.15596e-09
0.000100877
-3.50396e-09
8.40686e-05
-5.56262e-07
6.53658e-07
-1.71704e-07
8.4062e-05
-5.61508e-07
6.37782e-07
-2.12574e-07
0.000100872
5.06525e-07
-2.46117e-07
0.000113681
2.79404e-07
-2.68592e-07
0.000122118
5.62088e-09
-2.76461e-07
0.000126135
-2.68367e-07
-2.76475e-07
0.000126136
-4.96194e-07
-2.68663e-07
0.00012212
-6.2869e-07
-2.46275e-07
0.000113684
-6.46288e-07
-2.12853e-07
0.000100876
-1.72152e-07
8.40682e-05
-5.56214e-07
6.28261e-07
-3.0966e-07
8.04469e-05
-5.41759e-07
6.12292e-07
-3.82994e-07
9.69183e-05
4.88243e-07
-4.4352e-07
0.000109539
2.71629e-07
-4.85368e-07
0.000117963
5.79291e-09
-5.03756e-07
0.000122119
-2.60277e-07
-5.03803e-07
0.000122119
-4.77625e-07
-4.85539e-07
0.000117965
-6.02941e-07
-4.43864e-07
0.000109542
-6.20673e-07
-3.83582e-07
9.69231e-05
-3.10598e-07
8.04531e-05
-5.36314e-07
5.78779e-07
-3.95834e-07
7.35154e-05
-5.03045e-07
5.60685e-07
-4.84912e-07
8.91847e-05
4.46594e-07
-5.57921e-07
0.000101311
2.49347e-07
-6.09721e-07
0.000109539
6.14969e-09
-6.35328e-07
0.000113682
-2.37309e-07
-6.35414e-07
0.000113683
-4.35352e-07
-6.10002e-07
0.000109541
-5.50792e-07
-5.58441e-07
0.000101314
-5.70755e-07
-4.85757e-07
8.91897e-05
-3.97102e-07
7.35217e-05
-4.97342e-07
5.09946e-07
-4.22638e-07
6.38754e-05
-4.48345e-07
4.87943e-07
-5.07399e-07
7.80193e-05
3.86351e-07
-5.76481e-07
8.9185e-05
2.16082e-07
-6.26138e-07
9.6919e-05
6.69113e-09
-6.51654e-07
0.000100873
-2.03e-07
-6.51768e-07
0.000100873
-3.74167e-07
-6.26503e-07
9.69213e-05
-4.77246e-07
-5.77128e-07
8.91888e-05
-5.01248e-07
-5.08434e-07
7.80245e-05
-4.24064e-07
6.38817e-05
-4.4214e-07
4.25402e-07
5.2391e-05
-3.81852e-07
-3.83824e-07
3.99153e-07
6.38757e-05
-4.46465e-07
3.13355e-07
7.3516e-05
-5.01379e-07
1.75547e-07
8.04479e-05
-5.40209e-07
7.38714e-09
8.40635e-05
-5.60056e-07
-1.61136e-07
8.40644e-05
-5.60167e-07
-3.00008e-07
8.04504e-05
-5.40572e-07
-3.87561e-07
7.35201e-05
-5.01979e-07
-4.16068e-07
6.38811e-05
-4.47484e-07
5.23973e-05
-3.77299e-07
-3.83064e-07
8.13615e-08
6.91945e-08
5.23445e-05
-5.50011e-08
-4.62498e-08
9.44959e-08
1.01056e-07
6.38276e-05
-6.32435e-08
8.51079e-08
1.30686e-07
7.3479e-05
-8.14205e-08
5.4587e-08
1.53621e-07
8.04237e-05
-9.61731e-08
1.09835e-08
1.66016e-07
8.4048e-05
-1.04201e-07
-3.31625e-08
1.66194e-07
8.40494e-05
-1.04367e-07
-6.52705e-08
1.54189e-07
8.04279e-05
-9.67206e-08
-7.72711e-08
1.317e-07
7.34856e-05
-8.23339e-08
-6.74953e-08
1.02686e-07
6.38363e-05
-6.48028e-08
7.14528e-08
5.23546e-05
-4.53002e-08
-4.81227e-08
1.12034e-07
7.99552e-08
6.38264e-05
-7.13903e-08
1.31855e-07
1.18839e-07
7.7984e-05
1.17961e-07
1.5342e-07
8.91784e-05
7.32018e-08
1.79492e-07
9.694e-05
1.00022e-08
1.93251e-07
0.000100911
-5.36505e-08
1.93391e-07
0.000100912
-9.97602e-08
1.79945e-07
9.69439e-05
-1.15886e-07
1.54264e-07
8.91846e-05
-9.90573e-08
1.20221e-07
7.79925e-05
8.20395e-08
6.38367e-05
-6.21308e-08
1.40435e-07
6.89613e-08
7.34763e-05
-8.85016e-08
1.65126e-07
1.03565e-07
8.9177e-05
1.47102e-07
1.34084e-07
0.00010135
8.97514e-08
1.56911e-07
0.00010962
9.21415e-09
1.68443e-07
0.000113789
-7.17198e-08
1.68526e-07
0.00011379
-1.30274e-07
1.57203e-07
0.000109624
-1.50327e-07
1.34669e-07
0.000101355
-1.2844e-07
1.04579e-07
8.91852e-05
7.05978e-08
7.34865e-05
-7.99791e-08
1.62531e-07
3.77911e-08
8.04193e-05
-1.02674e-07
1.90284e-07
5.81489e-08
9.6937e-05
1.68998e-07
7.6055e-08
0.000109619
1.0243e-07
8.96388e-08
0.000118098
8.67739e-09
9.62414e-08
0.000122285
-8.5432e-08
9.6272e-08
0.000122287
-1.5311e-07
8.9773e-08
0.000118101
-1.76302e-07
7.63552e-08