/*--------------------------------*- C++ -*----------------------------------*\
| =========                 |                                                 |
| \\      /  F ield         | OpenFOAM: The Open Source CFD Toolbox           |
|  \\    /   O peration     | Version:  2406                                  |
|   \\  /    A nd           | Website:  www.openfoam.com                      |
|    \\/     M anipulation  |                                                 |
\*---------------------------------------------------------------------------*/
FoamFile
{
    version     2.0;
    format      ascii;
    arch        "LSB;label=32;scalar=64";
    class       volSymmTensorField;
    location    "1.4";
    object      turbulenceProperties:devReff;
}
// * * * * * * * * * * * * * * * * * * * * * * * * * * * * * * * * * * * * * //

dimensions      [0 2 -2 0 0 0 0];

internalField   nonuniform List<symmTensor> 
25000
(
(0.0299563 -0.0224532 -0.071222 0.0299563 -0.0712218 -0.0599126)
(0.0517356 -0.0117214 -0.0452862 0.0323427 -0.0646242 -0.0840783)
(0.059272 -0.00643009 -0.0276442 0.0382213 -0.0555026 -0.0974933)
(0.0629758 -0.00293755 -0.0148554 0.0419236 -0.0491107 -0.104899)
(0.0645707 -0.00086911 -0.00466908 0.0437114 -0.0459722 -0.108282)
(0.0645707 0.000869128 0.00466886 0.0437114 -0.0459722 -0.108282)
(0.0629759 0.00293756 0.0148551 0.0419236 -0.0491107 -0.104899)
(0.0592721 0.00643009 0.027644 0.0382213 -0.0555026 -0.0974934)
(0.0517357 0.0117214 0.045286 0.0323427 -0.0646243 -0.0840784)
(0.0299564 0.0224532 0.0712218 0.0299564 -0.0712219 -0.0599128)
(0.0323426 -0.0117214 -0.0646244 0.0517356 -0.0452861 -0.0840783)
(0.0533623 -0.00548257 -0.0363881 0.0533624 -0.0363879 -0.106725)
(0.0599938 -0.00298884 -0.0199666 0.0562603 -0.0302356 -0.116254)
(0.0628635 -0.00133091 -0.0100324 0.0578618 -0.0263915 -0.120725)
(0.0639856 -0.000367776 -0.003053 0.0585799 -0.024558 -0.122566)
(0.0639856 0.000367789 0.0030528 0.0585799 -0.024558 -0.122566)
(0.0628635 0.00133092 0.0100322 0.0578618 -0.0263915 -0.120725)
(0.0599938 0.00298884 0.0199664 0.0562603 -0.0302356 -0.116254)
(0.0533624 0.00548257 0.0363879 0.0533624 -0.0363879 -0.106725)
(0.0323427 0.0117214 0.0646242 0.0517357 -0.0452861 -0.0840784)
(0.0382212 -0.0064301 -0.0555027 0.059272 -0.027644 -0.0974933)
(0.0562602 -0.00298884 -0.0302357 0.0599938 -0.0199665 -0.116254)
(0.0618153 -0.0015802 -0.0158053 0.0618153 -0.0158051 -0.123631)
(0.0638589 -0.000657375 -0.00756063 0.0628412 -0.0135042 -0.1267)
(0.0645098 -0.000165322 -0.00223435 0.0632817 -0.0124684 -0.127791)
(0.0645098 0.000165331 0.00223417 0.0632817 -0.0124684 -0.127791)
(0.0638589 0.000657382 0.00756045 0.0628412 -0.0135042 -0.1267)
(0.0618153 0.0015802 0.0158051 0.0618153 -0.0158052 -0.123631)
(0.0562603 0.00298884 0.0302355 0.0599938 -0.0199665 -0.116254)
(0.0382213 0.00643009 0.0555025 0.0592721 -0.027644 -0.0974934)
(0.0419235 -0.00293757 -0.0491108 0.0629758 -0.0148552 -0.104899)
(0.0578617 -0.00133092 -0.0263916 0.0628635 -0.0100322 -0.120725)
(0.0628412 -0.000657378 -0.0135043 0.0638589 -0.0075605 -0.1267)
(0.0644339 -0.000235841 -0.00630032 0.0644339 -0.00630019 -0.128868)
(0.0648108 -4.81884e-05 -0.00183233 0.0646731 -0.00576755 -0.129484)
(0.0648108 4.81948e-05 0.00183215 0.0646731 -0.00576755 -0.129484)
(0.0644339 0.000235846 0.00630014 0.0644339 -0.00630019 -0.128868)
(0.0628412 0.000657381 0.0135041 0.0638589 -0.0075605 -0.1267)
(0.0578618 0.00133092 0.0263914 0.0628635 -0.0100322 -0.120725)
(0.0419236 0.00293756 0.0491106 0.0629759 -0.0148552 -0.104899)
(0.0437113 -0.000869123 -0.0459723 0.0645706 -0.00466892 -0.108282)
(0.0585799 -0.000367785 -0.0245581 0.0639856 -0.00305286 -0.122565)
(0.0632817 -0.000165327 -0.0124685 0.0645098 -0.00223422 -0.127791)
(0.0646731 -4.81906e-05 -0.00576767 0.0648108 -0.0018322 -0.129484)
(0.0649272 -6.30633e-06 -0.00166867 0.0649272 -0.00166855 -0.129854)
(0.0649272 6.31013e-06 0.0016685 0.0649272 -0.00166855 -0.129854)
(0.0646731 4.81939e-05 0.0057675 0.0648108 -0.0018322 -0.129484)
(0.0632817 0.000165329 0.0124684 0.0645098 -0.00223422 -0.127792)
(0.05858 0.000367786 0.024558 0.0639856 -0.00305286 -0.122566)
(0.0437114 0.000869121 0.0459722 0.0645707 -0.00466892 -0.108282)
(0.0437113 0.000869119 -0.0459723 0.0645706 0.00466902 -0.108282)
(0.0585799 0.000367782 -0.0245581 0.0639856 0.00305295 -0.122565)
(0.0632817 0.000165326 -0.0124685 0.0645098 0.0022343 -0.127791)
(0.0646731 4.81911e-05 -0.00576767 0.0648108 0.00183228 -0.129484)
(0.0649272 6.3081e-06 -0.00166867 0.0649272 0.00166863 -0.129854)
(0.0649272 -6.30725e-06 0.00166851 0.0649272 0.00166863 -0.129854)
(0.0646731 -4.819e-05 0.0057675 0.0648108 0.00183228 -0.129484)
(0.0632817 -0.000165324 0.0124684 0.0645098 0.00223431 -0.127791)
(0.05858 -0.000367779 0.024558 0.0639856 0.00305295 -0.122566)
(0.0437114 -0.000869115 0.0459722 0.0645707 0.00466902 -0.108282)
(0.0419235 0.00293756 -0.0491108 0.0629758 0.0148553 -0.104899)
(0.0578617 0.00133092 -0.0263916 0.0628635 0.0100323 -0.120725)
(0.0628412 0.000657377 -0.0135043 0.0638589 0.00756058 -0.1267)
(0.0644339 0.000235842 -0.00630031 0.0644339 0.00630027 -0.128868)
(0.0648108 4.81902e-05 -0.00183233 0.0646731 0.00576763 -0.129484)
(0.0648108 -4.81923e-05 0.00183216 0.0646731 0.00576763 -0.129484)
(0.0644339 -0.000235843 0.00630014 0.0644339 0.00630027 -0.128868)
(0.0628412 -0.000657377 0.0135041 0.0638589 0.00756058 -0.1267)
(0.0578618 -0.00133092 0.0263914 0.0628635 0.0100323 -0.120725)
(0.0419236 -0.00293755 0.0491106 0.0629758 0.0148553 -0.104899)
(0.0382212 0.0064301 -0.0555027 0.059272 0.0276441 -0.0974932)
(0.0562602 0.00298884 -0.0302357 0.0599938 0.0199666 -0.116254)
(0.0618153 0.0015802 -0.0158053 0.0618153 0.0158052 -0.123631)
(0.0638589 0.000657376 -0.00756063 0.0628412 0.0135042 -0.1267)
(0.0645098 0.000165324 -0.00223435 0.0632817 0.0124685 -0.127791)
(0.0645098 -0.000165329 0.00223417 0.0632817 0.0124685 -0.127791)
(0.0638589 -0.00065738 0.00756045 0.0628412 0.0135042 -0.1267)
(0.0618153 -0.0015802 0.0158051 0.0618153 0.0158052 -0.123631)
(0.0562603 -0.00298884 0.0302355 0.0599938 0.0199666 -0.116254)
(0.0382213 -0.00643009 0.0555025 0.059272 0.0276441 -0.0974934)
(0.0323426 0.0117214 -0.0646244 0.0517356 0.0452861 -0.0840782)
(0.0533623 0.00548258 -0.0363881 0.0533623 0.036388 -0.106725)
(0.0599937 0.00298884 -0.0199666 0.0562603 0.0302356 -0.116254)
(0.0628635 0.00133092 -0.0100324 0.0578618 0.0263915 -0.120725)
(0.0639856 0.000367778 -0.003053 0.0585799 0.0245581 -0.122566)
(0.0639856 -0.000367788 0.0030528 0.0585799 0.0245581 -0.122566)
(0.0628635 -0.00133093 0.0100322 0.0578618 0.0263915 -0.120725)
(0.0599938 -0.00298884 0.0199664 0.0562603 0.0302357 -0.116254)
(0.0533624 -0.00548257 0.0363879 0.0533623 0.036388 -0.106725)
(0.0323427 -0.0117214 0.0646242 0.0517356 0.0452862 -0.0840784)
(0.0299563 0.0224532 -0.0712219 0.0299563 0.0712219 -0.0599125)
(0.0517356 0.0117214 -0.0452862 0.0323426 0.0646243 -0.0840782)
(0.059272 0.0064301 -0.0276442 0.0382212 0.0555026 -0.0974932)
(0.0629758 0.00293755 -0.0148554 0.0419235 0.0491107 -0.104899)
(0.0645706 0.000869111 -0.00466908 0.0437114 0.0459723 -0.108282)
(0.0645707 -0.00086913 0.00466886 0.0437114 0.0459723 -0.108282)
(0.0629759 -0.00293757 0.0148551 0.0419235 0.0491107 -0.104899)
(0.0592721 -0.0064301 0.027644 0.0382213 0.0555026 -0.0974933)
(0.0517357 -0.0117214 0.045286 0.0323427 0.0646243 -0.0840783)
(0.0299564 -0.0224532 0.0712218 0.0299563 0.0712219 -0.0599127)
(-0.000346386 -0.0176336 -0.109334 -0.000346239 -0.109334 0.000692624)
(0.0130361 -0.0158516 -0.0753244 0.000864782 -0.107229 -0.0139009)
(0.022532 -0.0121472 -0.0477169 0.00293129 -0.0951951 -0.0254633)
(0.0297989 -0.00758701 -0.0260274 0.00446534 -0.0852127 -0.0342643)
(0.0334956 -0.00254402 -0.00822197 0.00529118 -0.0798891 -0.0387868)
(0.0334957 0.00254414 0.0082214 0.00529123 -0.0798891 -0.0387869)
(0.0297991 0.0075871 0.0260269 0.00446549 -0.0852127 -0.0342646)
(0.0225322 0.0121473 0.0477163 0.00293152 -0.095195 -0.0254637)
(0.0130365 0.0158516 0.0753238 0.000865069 -0.107229 -0.0139015)
(-0.000345889 0.0176334 0.109334 -0.000345937 -0.109334 0.000691826)
(0.00086465 -0.0158517 -0.107229 0.0130362 -0.075324 -0.0139008)
(0.0167972 -0.0142716 -0.0636987 0.0167974 -0.0636984 -0.0335946)
(0.0286921 -0.0106815 -0.034754 0.0200798 -0.0526379 -0.0487719)
(0.0365377 -0.00647934 -0.0168855 0.0221462 -0.044421 -0.058684)
(0.0401445 -0.00215613 -0.00499897 0.0231479 -0.0401317 -0.0632923)
(0.0401445 0.00215621 0.00499848 0.0231479 -0.0401316 -0.0632924)
(0.0365379 0.00647941 0.016885 0.0221463 -0.044421 -0.0586842)
(0.0286924 0.0106815 0.0347535 0.0200799 -0.0526379 -0.0487723)
(0.0167976 0.0142716 0.0636982 0.0167976 -0.0636984 -0.0335952)
(0.000865113 0.0158516 0.107229 0.0130364 -0.075324 -0.0139016)
(0.00293112 -0.0121473 -0.0951953 0.022532 -0.0477165 -0.0254631)
(0.0200796 -0.0106815 -0.0526382 0.0286922 -0.0347537 -0.0487718)
(0.032613 -0.00764457 -0.0257191 0.0326131 -0.0257188 -0.0652261)
(0.0398864 -0.00449382 -0.0110619 0.0346349 -0.0198742 -0.0745213)
(0.0430418 -0.00148014 -0.00300659 0.0355699 -0.0170115 -0.0786117)
(0.0430418 0.0014802 0.00300615 0.03557 -0.0170115 -0.0786118)
(0.0398866 0.00449387 0.0110614 0.0346349 -0.0198742 -0.0745215)
(0.0326132 0.0076446 0.0257187 0.0326132 -0.0257188 -0.0652264)
(0.02008 0.0106815 0.0526378 0.0286924 -0.0347536 -0.0487724)
(0.00293158 0.0121472 0.0951949 0.0225322 -0.0477165 -0.0254638)
(0.00446511 -0.00758709 -0.085213 0.0297989 -0.0260271 -0.034264)
(0.0221461 -0.00647938 -0.0444213 0.0365377 -0.0168851 -0.0586838)
(0.0346348 -0.00449384 -0.0198745 0.0398865 -0.0110616 -0.0745213)
(0.0415446 -0.00260286 -0.0075811 0.0415446 -0.00758082 -0.0830892)
(0.0445168 -0.000856441 -0.00184219 0.0423564 -0.0059232 -0.0868732)
(0.0445168 0.000856479 0.00184179 0.0423564 -0.0059232 -0.0868733)
(0.0415447 0.00260289 0.00758069 0.0415446 -0.0075808 -0.0830893)
(0.034635 0.00449386 0.0198741 0.0398866 -0.0110616 -0.0745215)
(0.0221464 0.00647939 0.0444209 0.0365379 -0.0168851 -0.0586843)
(0.00446557 0.00758707 0.0852126 0.0297991 -0.026027 -0.0342647)
(0.00529088 -0.00254411 -0.0798894 0.0334955 -0.00822158 -0.0387864)
(0.0231476 -0.00215618 -0.0401319 0.0401444 -0.00499862 -0.063292)
(0.0355698 -0.00148017 -0.0170118 0.0430418 -0.00300628 -0.0786115)
(0.0423563 -0.000856458 -0.00592348 0.0445168 -0.00184191 -0.0868731)
(0.0452763 -0.000282845 -0.00129213 0.0452763 -0.00129186 -0.0905526)
(0.0452763 0.00028286 0.00129175 0.0452763 -0.00129186 -0.0905526)
(0.0423565 0.000856472 0.00592309 0.0445168 -0.0018419 -0.0868733)
(0.03557 0.00148018 0.0170114 0.0430418 -0.00300628 -0.0786118)
(0.023148 0.00215619 0.0401315 0.0401445 -0.00499861 -0.0632925)
(0.00529134 0.0025441 0.079889 0.0334957 -0.00822156 -0.0387871)
(0.00529086 0.00254407 -0.0798894 0.0334955 0.00822181 -0.0387864)
(0.0231476 0.00215616 -0.0401319 0.0401444 0.00499883 -0.063292)
(0.0355698 0.00148015 -0.0170118 0.0430417 0.00300647 -0.0786115)
(0.0423563 0.000856449 -0.00592348 0.0445168 0.00184208 -0.0868731)
(0.0452763 0.000282844 -0.00129213 0.0452763 0.00129202 -0.0905525)
(0.0452763 -0.000282852 0.00129175 0.0452763 0.00129202 -0.0905526)
(0.0423565 -0.000856455 0.00592309 0.0445168 0.00184208 -0.0868733)
(0.03557 -0.00148016 0.0170114 0.0430418 0.00300647 -0.0786118)
(0.023148 -0.00215615 0.0401315 0.0401445 0.00499883 -0.0632925)
(0.00529132 -0.00254406 0.079889 0.0334957 0.0082218 -0.038787)
(0.00446505 0.00758707 -0.085213 0.0297988 0.0260273 -0.0342639)
(0.022146 0.00647936 -0.0444213 0.0365377 0.0168853 -0.0586837)
(0.0346347 0.00449382 -0.0198745 0.0398864 0.0110618 -0.0745212)
(0.0415445 0.00260285 -0.0075811 0.0415446 0.00758099 -0.0830891)
(0.0445168 0.000856441 -0.00184219 0.0423564 0.00592337 -0.0868731)
(0.0445168 -0.000856472 0.00184179 0.0423564 0.00592337 -0.0868732)
(0.0415447 -0.00260288 0.0075807 0.0415446 0.00758098 -0.0830892)
(0.034635 -0.00449384 0.0198741 0.0398865 0.0110618 -0.0745215)
(0.0221464 -0.00647936 0.0444209 0.0365378 0.0168853 -0.0586842)
(0.00446551 -0.00758703 0.0852126 0.029799 0.0260273 -0.0342645)
(0.00293103 0.0121473 -0.0951953 0.0225319 0.0477167 -0.0254629)
(0.0200796 0.0106815 -0.0526382 0.0286921 0.0347539 -0.0487717)
(0.032613 0.00764456 -0.0257192 0.032613 0.025719 -0.0652259)
(0.0398864 0.00449381 -0.0110619 0.0346348 0.0198744 -0.0745212)
(0.0430417 0.00148014 -0.00300659 0.0355698 0.0170117 -0.0786116)
(0.0430418 -0.00148019 0.00300616 0.0355699 0.0170117 -0.0786116)
(0.0398865 -0.00449386 0.0110615 0.0346348 0.0198744 -0.0745214)
(0.0326132 -0.00764459 0.0257187 0.0326131 0.025719 -0.0652263)
(0.0200799 -0.0106815 0.0526378 0.0286923 0.0347538 -0.0487722)
(0.00293148 -0.0121472 0.095195 0.0225321 0.0477167 -0.0254636)
(0.000864534 0.0158517 -0.107229 0.013036 0.0753242 -0.0139006)
(0.0167972 0.0142716 -0.0636987 0.0167972 0.0636986 -0.0335944)
(0.0286921 0.0106815 -0.034754 0.0200796 0.0526381 -0.0487717)
(0.0365377 0.00647934 -0.0168855 0.0221461 0.0444212 -0.0586838)
(0.0401444 0.00215613 -0.00499897 0.0231477 0.0401318 -0.0632921)
(0.0401445 -0.00215621 0.00499848 0.0231477 0.0401318 -0.0632922)
(0.0365378 -0.00647941 0.016885 0.0221462 0.0444212 -0.058684)
(0.0286923 -0.0106815 0.0347535 0.0200798 0.0526381 -0.0487721)
(0.0167975 -0.0142716 0.0636983 0.0167974 0.0636986 -0.0335949)
(0.000864991 -0.0158516 0.107229 0.0130363 0.0753242 -0.0139013)
(-0.000346503 0.0176336 -0.109334 -0.000346452 0.109334 0.000692955)
(0.013036 0.0158517 -0.0753244 0.000864581 0.107229 -0.0139006)
(0.0225319 0.0121473 -0.0477169 0.00293109 0.0951953 -0.025463)
(0.0297988 0.00758703 -0.0260275 0.00446514 0.0852129 -0.034264)
(0.0334955 0.00254403 -0.00822196 0.00529097 0.0798893 -0.0387865)
(0.0334956 -0.00254414 0.00822141 0.00529102 0.0798893 -0.0387866)
(0.029799 -0.00758712 0.0260269 0.00446528 0.0852128 -0.0342643)
(0.0225321 -0.0121473 0.0477163 0.00293131 0.0951952 -0.0254634)
(0.0130364 -0.0158517 0.0753239 0.000864858 0.107229 -0.0139012)
(-0.000346015 -0.0176335 0.109334 -0.000346161 0.109334 0.000692176)
(-0.00822272 -0.015605 -0.149045 -0.00822239 -0.149044 0.0164451)
(0.00155558 -0.0119025 -0.115966 -0.00932384 -0.1594 0.00776826)
(0.00737374 -0.00905225 -0.0805695 -0.00845938 -0.153709 0.00108564)
(0.0120089 -0.00568141 -0.047086 -0.00775266 -0.146888 -0.00425623)
(0.0145489 -0.00192826 -0.015449 -0.00736459 -0.142943 -0.00718431)
(0.014549 0.00192851 0.0154474 -0.00736449 -0.142943 -0.00718452)
(0.0120092 0.00568162 0.0470845 -0.00775235 -0.146888 -0.00425685)
(0.00737427 0.00905237 0.0805679 -0.0084589 -0.153709 0.00108463)
(0.0015564 0.0119025 0.115964 -0.00932324 -0.1594 0.00776684)
(-0.00822164 0.0156049 0.149043 -0.00822176 -0.149044 0.0164434)
(-0.00932411 -0.0119025 -0.159401 0.00155576 -0.115965 0.00776835)
(0.00210167 -0.00974297 -0.111467 0.0021019 -0.111466 -0.00420356)
(0.00979721 -0.00760086 -0.0712792 0.00392888 -0.103807 -0.0137261)
(0.01574 -0.00480331 -0.0395893 0.00531031 -0.0973342 -0.0210503)
(0.0189157 -0.00163833 -0.0126787 0.00606778 -0.0938079 -0.0249835)
(0.0189158 0.00163854 0.0126773 0.00606786 -0.0938079 -0.0249837)
(0.0157403 0.00480349 0.0395879 0.00531054 -0.0973341 -0.0210508)
(0.00979774 0.00760098 0.0712778 0.00392924 -0.103806 -0.013727)
(0.00210246 0.00974303 0.111466 0.00210236 -0.111466 -0.00420482)
(-0.00932314 0.0119024 0.159399 0.00155633 -0.115965 0.00776681)
(-0.00845973 -0.00905237 -0.15371 0.00737374 -0.0805686 0.00108599)
(0.00392858 -0.00760091 -0.103807 0.0097973 -0.0712784 -0.0137259)
(0.012993 -0.00582856 -0.0642866 0.0129932 -0.0642859 -0.0259862)
(0.0198439 -0.00363419 -0.034709 0.0153284 -0.0594812 -0.0351723)
(0.0234341 -0.00123477 -0.0109298 0.0165645 -0.0569941 -0.0399986)
(0.0234342 0.00123494 0.0109286 0.0165645 -0.0569941 -0.0399987)
(0.0198442 0.00363433 0.0347078 0.0153286 -0.0594811 -0.0351728)
(0.0129936 0.00582867 0.0642854 0.0129935 -0.0642857 -0.0259871)
(0.00392936 0.00760096 0.103806 0.00979771 -0.0712782 -0.0137271)
(-0.00845877 0.00905231 0.153709 0.00737427 -0.0805683 0.0010845)
(-0.00775313 -0.00568159 -0.146889 0.0120088 -0.0470851 -0.00425565)
(0.00530991 -0.00480342 -0.0973349 0.0157399 -0.0395884 -0.0210499)
(0.0153282 -0.00363424 -0.059482 0.0198439 -0.0347082 -0.0351721)
(0.0227441 -0.00224566 -0.031617 0.0227442 -0.0316162 -0.0454883)
(0.0265162 -0.000760664 -0.00984239 0.0241648 -0.0300464 -0.050681)
(0.0265163 0.000760778 0.00984126 0.0241648 -0.0300464 -0.0506812)
(0.0227444 0.00224576 0.0316158 0.0227444 -0.0316161 -0.0454888)
(0.0153287 0.00363431 0.0594808 0.0198442 -0.0347081 -0.0351729)
(0.0053107 0.00480345 0.0973338 0.0157403 -0.0395883 -0.021051)
(-0.00775217 0.00568154 0.146887 0.0120092 -0.0470849 -0.00425708)
(-0.00736521 -0.00192843 -0.142943 0.0145487 -0.0154479 -0.00718345)
(0.00606727 -0.00163846 -0.0938087 0.0189156 -0.0126778 -0.0249828)
(0.0165641 -0.00123486 -0.0569949 0.023434 -0.0109289 -0.0399981)
(0.0241646 -0.000760713 -0.0300472 0.0265162 -0.00984159 -0.0506808)
(0.0279115 -0.000257694 -0.00929878 0.0279116 -0.009298 -0.0558231)
(0.0279116 0.000257744 0.00929769 0.0279116 -0.00929799 -0.0558233)
(0.0241649 0.000760757 0.0300461 0.0265163 -0.00984157 -0.0506812)
(0.0165647 0.0012349 0.0569938 0.0234343 -0.0109289 -0.0399989)
(0.00606806 0.00163848 0.0938076 0.0189159 -0.0126777 -0.024984)
(-0.00736424 0.00192843 0.142942 0.0145491 -0.0154478 -0.00718485)
(-0.00736525 0.00192836 -0.142943 0.0145486 0.0154485 -0.00718337)
(0.00606724 0.0016384 -0.0938087 0.0189155 0.0126783 -0.0249828)
(0.0165641 0.00123482 -0.0569949 0.023434 0.0109294 -0.0399981)
(0.0241646 0.000760691 -0.0300472 0.0265162 0.00984208 -0.0506807)
(0.0279115 0.000257697 -0.00929878 0.0279115 0.00929848 -0.0558231)
(0.0279116 -0.000257715 0.00929769 0.0279116 0.00929848 -0.0558232)
(0.0241649 -0.000760703 0.0300461 0.0265163 0.00984207 -0.0506812)
(0.0165646 -0.00123482 0.0569938 0.0234342 0.0109294 -0.0399988)
(0.00606803 -0.00163839 0.0938076 0.0189158 0.0126783 -0.0249839)
(-0.00736429 -0.00192833 0.142942 0.014549 0.0154485 -0.00718476)
(-0.00775325 0.00568153 -0.146889 0.0120087 0.0470857 -0.0042554)
(0.00530982 0.00480337 -0.097335 0.0157398 0.039589 -0.0210496)
(0.0153281 0.0036342 -0.059482 0.0198438 0.0347087 -0.0351719)
(0.022744 0.00224565 -0.031617 0.0227441 0.0316167 -0.0454881)
(0.0265162 0.000760669 -0.00984239 0.0241646 0.0300469 -0.0506808)
(0.0265163 -0.000760752 0.00984126 0.0241647 0.0300469 -0.050681)
(0.0227444 -0.00224572 0.0316158 0.0227442 0.0316166 -0.0454886)
(0.0153286 -0.00363424 0.0594809 0.0198441 0.0347087 -0.0351727)
(0.0053106 -0.00480337 0.0973339 0.0157402 0.0395889 -0.0210508)
(-0.0077523 -0.00568146 0.146888 0.0120091 0.0470856 -0.0042568)
(-0.00845992 0.00905235 -0.15371 0.00737352 0.0805692 0.00108639)
(0.00392843 0.00760088 -0.103807 0.00979708 0.0712789 -0.0137255)
(0.0129929 0.00582854 -0.0642867 0.012993 0.0642864 -0.0259859)
(0.0198438 0.00363418 -0.0347091 0.0153282 0.0594817 -0.035172)
(0.023434 0.00123478 -0.0109298 0.0165642 0.0569946 -0.0399982)
(0.0234341 -0.00123492 0.0109286 0.0165643 0.0569946 -0.0399984)
(0.0198441 -0.0036343 0.0347079 0.0153284 0.0594816 -0.0351725)
(0.0129934 -0.00582862 0.0642855 0.0129933 0.0642862 -0.0259867)
(0.00392921 -0.00760091 0.103806 0.00979747 0.0712787 -0.0137267)
(-0.00845898 -0.00905227 0.153709 0.00737404 0.0805689 0.00108494)
(-0.00932434 0.0119025 -0.159401 0.00155542 0.115966 0.00776892)
(0.00210148 0.00974297 -0.111467 0.00210157 0.111467 -0.00420305)
(0.00979704 0.00760086 -0.0712793 0.00392855 0.103807 -0.0137256)
(0.0157398 0.00480332 -0.0395893 0.00530998 0.0973347 -0.0210498)
(0.0189156 0.00163834 -0.0126787 0.00606744 0.0938084 -0.024983)
(0.0189157 -0.00163853 0.0126774 0.00606751 0.0938083 -0.0249832)
(0.0157401 -0.00480348 0.039588 0.0053102 0.0973346 -0.0210503)
(0.00979757 -0.00760096 0.0712779 0.0039289 0.103807 -0.0137265)
(0.00210226 -0.009743 0.111466 0.00210202 0.111467 -0.00420427)
(-0.00932339 -0.0119025 0.1594 0.00155597 0.115965 0.00776743)
(-0.00822296 0.0156051 -0.149045 -0.00822283 0.149044 0.0164458)
(0.00155535 0.0119025 -0.115966 -0.00932424 0.159401 0.00776889)
(0.00737352 0.00905229 -0.0805695 -0.00845978 0.15371 0.00108626)
(0.0120087 0.00568145 -0.0470861 -0.00775307 0.146888 -0.00425562)
(0.0145487 0.00192827 -0.015449 -0.00736501 0.142943 -0.0071837)
(0.0145488 -0.00192851 0.0154474 -0.00736491 0.142943 -0.00718391)
(0.012009 -0.00568164 0.0470846 -0.00775277 0.146888 -0.00425623)
(0.00737404 -0.00905239 0.0805681 -0.00845932 0.15371 0.00108528)
(0.00155615 -0.0119025 0.115965 -0.00932367 0.1594 0.00776751)
(-0.00822191 -0.0156049 0.149043 -0.00822224 0.149044 0.0164441)
(-0.0022186 -0.00431695 -0.153902 -0.00221795 -0.153901 0.00443656)
(0.000158087 -0.00467648 -0.124343 -0.00299605 -0.169419 0.00283796)
(0.00278473 -0.00407451 -0.0893585 -0.0034424 -0.168126 0.000657675)
(0.00509247 -0.00273871 -0.053565 -0.00368494 -0.164346 -0.00140753)
(0.00640229 -0.000957903 -0.0178186 -0.00377673 -0.161925 -0.00262555)
(0.00640249 0.000958459 0.0178153 -0.00377651 -0.161925 -0.00262597)
(0.00509309 0.00273919 0.0535617 -0.0036843 -0.164346 -0.00140878)
(0.00278577 0.0040748 0.0893552 -0.00344141 -0.168125 0.000655639)
(0.000159729 0.00467655 0.12434 -0.00299481 -0.169418 0.00283509)
(-0.00221644 0.00431663 0.1539 -0.00221665 -0.1539 0.00443309)
(-0.00299655 -0.00467661 -0.16942 0.000158425 -0.124342 0.00283813)
(0.000241159 -0.00498137 -0.125036 0.000241583 -0.125034 -0.000482742)
(0.00410296 -0.00419849 -0.084201 0.000460089 -0.121138 -0.00456305)
(0.00731952 -0.00275988 -0.0486304 0.000769828 -0.117008 -0.00808935)
(0.00909503 -0.000956643 -0.0159099 0.00100675 -0.114613 -0.0101018)
(0.00909523 0.000957101 0.015907 0.00100691 -0.114613 -0.0101021)
(0.00732013 0.00276028 0.0486275 0.000770303 -0.117008 -0.00809044)
(0.004104 0.00419878 0.0841982 0.000460842 -0.121137 -0.00456484)
(0.000242703 0.00498153 0.125033 0.000242559 -0.125033 -0.000485261)
(-0.00299465 0.00467648 0.169418 0.000159628 -0.124341 0.00283502)
(-0.00344305 -0.00407477 -0.168127 0.00278469 -0.0893566 0.000658364)
(0.000459523 -0.00419861 -0.121139 0.0041031 -0.0841993 -0.00456263)
(0.00526131 -0.00340183 -0.0799307 0.0052616 -0.0799291 -0.0105229)
(0.0091777 -0.00216613 -0.0454312 0.00629554 -0.0767931 -0.0154732)
(0.0113315 -0.000736091 -0.0147552 0.00695784 -0.07517 -0.0182893)
(0.0113317 0.000736445 0.0147525 0.00695798 -0.07517 -0.0182897)
(0.00917831 0.00216643 0.0454286 0.00629595 -0.0767929 -0.0154743)
(0.00526235 0.00340205 0.0799281 0.00526225 -0.0799287 -0.0105246)
(0.000461048 0.00419873 0.121137 0.00410395 -0.0841988 -0.004565)
(-0.00344118 0.00407468 0.168125 0.00278581 -0.0893559 0.000655377)
(-0.00368584 -0.0027391 -0.164348 0.00509221 -0.0535629 -0.00140637)
(0.000769059 -0.00276012 -0.11701 0.00731945 -0.0486285 -0.00808851)
(0.00629505 -0.00216625 -0.0767947 0.00917776 -0.0454295 -0.0154728)
(0.0108022 -0.00131292 -0.0435302 0.0108024 -0.0435285 -0.0216047)
(0.0133738 -0.000426768 -0.0141849 0.0118608 -0.0427238 -0.0252345)
(0.013374 0.000427009 0.0141824 0.0118609 -0.0427237 -0.0252349)
(0.0108029 0.00131311 0.0435278 0.0108028 -0.0435284 -0.0216057)
(0.00629613 0.00216638 0.0767923 0.00917829 -0.0454293 -0.0154744)
(0.000770593 0.00276018 0.117008 0.00732017 -0.0486282 -0.00809076)
(-0.00368397 0.00273901 0.164345 0.0050932 -0.0535625 -0.00140923)
(-0.00377794 -0.000958289 -0.161926 0.00640178 -0.0178163 -0.00262384)
(0.00100575 -0.000956934 -0.114615 0.00909471 -0.0159079 -0.0101005)
(0.00695714 -0.000736297 -0.0751717 0.0113313 -0.0147533 -0.0182884)
(0.0118604 -0.000426881 -0.0427254 0.0133737 -0.0141831 -0.0252341)
(0.0148936 -0.000133995 -0.0141315 0.0148937 -0.0141297 -0.0297872)
(0.0148938 0.000134097 0.014129 0.0148938 -0.0141297 -0.0297876)
(0.011861 0.00042696 0.0427231 0.013374 -0.0141831 -0.0252351)
(0.00695825 0.000736354 0.0751693 0.0113317 -0.0147532 -0.01829)
(0.0010073 0.000956968 0.114612 0.00909536 -0.0159078 -0.0101027)
(-0.00377605 0.000958276 0.161924 0.00640269 -0.0178162 -0.00262664)
(-0.00377803 0.000958124 -0.161926 0.00640169 0.0178177 -0.00262367)
(0.00100568 0.000956794 -0.114615 0.00909462 0.0159092 -0.0101003)
(0.00695708 0.000736191 -0.0751717 0.0113312 0.0147545 -0.0182883)
(0.0118603 0.000426817 -0.0427254 0.0133736 0.0141842 -0.0252339)
(0.0148935 0.000133985 -0.0141315 0.0148936 0.0141308 -0.0297871)
(0.0148938 -0.000134043 0.014129 0.0148937 0.0141308 -0.0297874)
(0.011861 -0.000426853 0.0427231 0.0133739 0.0141842 -0.0252349)
(0.00695819 -0.000736206 0.0751694 0.0113317 0.0147544 -0.0182898)
(0.00100723 -0.000956786 0.114612 0.00909526 0.0159091 -0.0101025)
(-0.00377615 -0.00095807 0.161924 0.0064026 0.0178176 -0.00262645)
(-0.0036861 0.00273896 -0.164348 0.00509195 0.0535643 -0.00140586)
(0.000768869 0.00276 -0.11701 0.00731919 0.0486297 -0.00808805)
(0.00629488 0.00216617 -0.0767948 0.0091775 0.0454306 -0.0154724)
(0.0108021 0.00131288 -0.0435302 0.0108022 0.0435296 -0.0216042)
(0.0133736 0.000426768 -0.0141849 0.0118605 0.0427248 -0.0252341)
(0.0133739 -0.000426966 0.0141824 0.0118606 0.0427248 -0.0252344)
(0.0108027 -0.00131303 0.0435278 0.0108025 0.0435295 -0.0216052)
(0.00629596 -0.00216626 0.0767924 0.00917802 0.0454305 -0.015474)
(0.000770393 -0.00276002 0.117008 0.00731989 0.0486295 -0.00809028)
(-0.00368424 -0.00273884 0.164346 0.00509292 0.053564 -0.00140868)
(-0.00344344 0.00407471 -0.168127 0.00278424 0.0893579 0.000659197)
(0.000459224 0.00419853 -0.12114 0.00410266 0.0842005 -0.00456189)
(0.00526105 0.00340178 -0.0799308 0.00526115 0.0799302 -0.0105222)
(0.00917747 0.00216611 -0.0454313 0.00629507 0.0767942 -0.0154725)
(0.0113313 0.0007361 -0.0147552 0.00695735 0.0751711 -0.0182886)
(0.0113315 -0.000736412 0.0147526 0.00695749 0.075171 -0.018289)
(0.00917808 -0.00216637 0.0454287 0.00629547 0.076794 -0.0154736)
(0.00526207 -0.00340196 0.0799282 0.00526179 0.0799298 -0.0105239)
(0.000460731 -0.00419861 0.121137 0.00410349 0.0842001 -0.00456422)
(-0.0034416 -0.00407458 0.168125 0.00278534 0.0893573 0.000656265)
(-0.00299703 0.00467664 -0.169421 0.000157735 0.124343 0.0028393)
(0.000240776 0.00498136 -0.125036 0.000240927 0.125035 -0.000481703)
(0.00410262 0.00419848 -0.0842012 0.000459437 0.121139 -0.00456206)
(0.00731922 0.00275989 -0.0486305 0.000769166 0.11701 -0.00808838)
(0.00909475 0.00095666 -0.01591 0.00100607 0.114614 -0.0101008)
(0.00909495 -0.000957078 0.0159071 0.00100623 0.114614 -0.0101012)
(0.00731982 -0.00276025 0.0486276 0.000769622 0.117009 -0.00808944)
(0.00410363 -0.00419873 0.0841984 0.000460161 0.121138 -0.00456379)
(0.000242293 -0.00498148 0.125033 0.000241866 0.125035 -0.00048416)
(-0.00299517 -0.00467648 0.169418 0.000158894 0.124342 0.00283627)
(-0.00221909 0.00431713 -0.153903 -0.00221887 0.153902 0.00443796)
(0.000157629 0.00467657 -0.124344 -0.00299686 0.16942 0.00283923)
(0.00278428 0.00407459 -0.0893586 -0.00344321 0.168127 0.000658927)
(0.00509207 0.00273878 -0.0535651 -0.00368576 0.164347 -0.00140631)
(0.0064019 0.000957937 -0.0178186 -0.00377756 0.161926 -0.00262434)
(0.00640209 -0.000958459 0.0178153 -0.00377735 0.161926 -0.00262474)
(0.00509266 -0.00273922 0.0535619 -0.00368514 0.164347 -0.00140753)
(0.0027853 -0.00407484 0.0893555 -0.00344225 0.168126 0.000656951)
(0.000159227 -0.00467661 0.124341 -0.00299567 0.169419 0.00283644)
(-0.00221698 -0.00431679 0.1539 -0.00221762 0.153901 0.0044346)
(-0.00210254 -0.00322466 -0.158948 -0.00210127 -0.158946 0.00420381)
(-0.000298073 -0.00257315 -0.130732 -0.00260588 -0.177351 0.00290396)
(0.000889287 -0.00207011 -0.0954416 -0.00269867 -0.178358 0.00180938)
(0.00194508 -0.00134729 -0.0579115 -0.00275499 -0.176216 0.000809903)
(0.00256255 -0.000465631 -0.0193959 -0.00277405 -0.174647 0.000211496)
(0.00256292 0.000466571 0.0193889 -0.00277367 -0.174647 0.000210743)
(0.00194621 0.0013481 0.0579046 -0.00275387 -0.176215 0.000807652)
(0.000891209 0.00207058 0.0954349 -0.00269693 -0.178357 0.00180572)
(-0.000295062 0.00257324 0.130726 -0.00260373 -0.177349 0.00289879)
(-0.00209856 0.00322408 0.158943 -0.00209902 -0.158944 0.00419758)
(-0.00260684 -0.00257337 -0.177353 -0.000297421 -0.130729 0.00290426)
(-0.000486728 -0.0023224 -0.134205 -0.000485959 -0.134202 0.000972688)
(0.00119791 -0.00196098 -0.0925865 -0.0003288 -0.132493 -0.000869105)
(0.00269413 -0.00128862 -0.0544909 -0.00016808 -0.129846 -0.00252605)
(0.00355177 -0.000443869 -0.0180149 -4.63684e-05 -0.128194 -0.0035054)
(0.00355213 0.000444702 0.0180089 -4.60775e-05 -0.128194 -0.00350606)
(0.00269523 0.00128934 0.0544849 -0.000167229 -0.129845 -0.002528)
(0.00119976 0.00196151 0.0925806 -0.00032745 -0.132492 -0.00087231)
(-0.000483936 0.00232269 0.134199 -0.000484215 -0.1342 0.000968151)
(-0.00260339 0.00257315 0.177348 -0.000295282 -0.130727 0.00289867)
(-0.00269986 -0.00207055 -0.178361 0.000889221 -0.0954378 0.00181064)
(-0.000329807 -0.00196119 -0.132496 0.00119814 -0.0925831 -0.000868328)
(0.0018048 -0.00162341 -0.0900786 0.00180529 -0.0900754 -0.0036101)
(0.0036751 -0.00102405 -0.0524181 0.00234317 -0.0880404 -0.00601827)
(0.00472906 -0.000339566 -0.0172553 0.00271097 -0.0869145 -0.00744002)
(0.00472941 0.000340238 0.0172499 0.00271123 -0.0869143 -0.00744064)
(0.00367619 0.00102461 0.0524127 0.0023439 -0.0880399 -0.00602009)
(0.00180665 0.00162382 0.0900733 0.00180647 -0.0900745 -0.00361312)
(-0.000327071 0.00196142 0.132491 0.00119968 -0.0925819 -0.00087261)
(-0.0026965 0.00207038 0.178356 0.000891255 -0.0954364 0.00180524)
(-0.00275661 -0.00134797 -0.176218 0.0019446 -0.0579072 0.000812011)
(-0.000169448 -0.00128904 -0.129849 0.00269398 -0.0544871 -0.00252453)
(0.00234232 -0.00102427 -0.0880436 0.00367519 -0.0524146 -0.00601751)
(0.00453948 -0.00057432 -0.0511698 0.00453986 -0.0511665 -0.00907934)
(0.00583116 -0.000163422 -0.0169639 0.00514212 -0.0505582 -0.0109733)
(0.00583154 0.000163889 0.0169589 0.00514234 -0.0505581 -0.0109739)
(0.00454061 0.000574674 0.0511649 0.00454046 -0.0511662 -0.00908108)
(0.00234423 0.00102452 0.0880387 0.00367615 -0.0524141 -0.00602038)