/*--------------------------------*- C++ -*----------------------------------*\
| =========                 |                                                 |
| \\      /  F ield         | OpenFOAM: The Open Source CFD Toolbox           |
|  \\    /   O peration     | Version:  2406                                  |
|   \\  /    A nd           | Website:  www.openfoam.com                      |
|    \\/     M anipulation  |                                                 |
\*---------------------------------------------------------------------------*/
FoamFile
{
    version     2.0;
    format      ascii;
    arch        "LSB;label=32;scalar=64";
    class       volSymmTensorField;
    location    "1.4";
    object      turbulenceProperties:R;
}
// * * * * * * * * * * * * * * * * * * * * * * * * * * * * * * * * * * * * * //

dimensions      [0 2 -2 0 0 0 0];

internalField   uniform (0 -0 -0 0 -0 0);

boundaryField
{
    walls
    {
        type            calculated;
        value           nonuniform List<symmTensor> 
2000
(
(-8.57814e-08 7.13915e-08 2.96519e-07 -5.45552e-08 -2.50416e-07 1.40337e-07)
(-1.48118e-07 9.04417e-08 4.6866e-07 -5.04315e-08 -2.88973e-07 1.9855e-07)
(-2.2472e-07 9.40331e-08 6.72753e-07 -3.32467e-08 -2.81247e-07 2.57967e-07)
(-2.95107e-07 7.27076e-08 8.52688e-07 -1.06402e-08 -2.06803e-07 3.05748e-07)
(-3.38005e-07 2.73265e-08 9.58424e-07 5.72805e-09 -7.62257e-08 3.32277e-07)
(-3.38005e-07 -2.73267e-08 9.58424e-07 5.72802e-09 7.62257e-08 3.32277e-07)
(-2.95107e-07 -7.27077e-08 8.52688e-07 -1.06403e-08 2.06803e-07 3.05748e-07)
(-2.2472e-07 -9.40332e-08 6.72753e-07 -3.32468e-08 2.81247e-07 2.57967e-07)
(-1.48118e-07 -9.04418e-08 4.6866e-07 -5.04315e-08 2.88973e-07 1.9855e-07)
(-8.57814e-08 -7.13915e-08 2.96519e-07 -5.45553e-08 2.50416e-07 1.40337e-07)
(-2.65055e-09 1.14306e-09 1.27211e-07 -1.93564e-10 -1.07006e-07 2.84412e-09)
(-4.96873e-09 8.5796e-10 1.94468e-07 2.50496e-10 -1.19432e-07 4.71823e-09)
(-6.63817e-09 9.81838e-10 2.7804e-07 -3.47513e-10 -1.15974e-07 6.98568e-09)
(-8.43992e-09 7.36375e-10 3.54164e-07 -5.23322e-10 -8.57649e-08 8.96324e-09)
(-9.51404e-09 3.15417e-10 3.9976e-07 -6.40858e-10 -3.1757e-08 1.01549e-08)
(-9.51399e-09 -3.15768e-10 3.9976e-07 -6.40915e-10 3.1757e-08 1.01549e-08)
(-8.43978e-09 -7.36658e-10 3.54163e-07 -5.23471e-10 8.57649e-08 8.96325e-09)
(-6.638e-09 -9.82011e-10 2.78039e-07 -3.47693e-10 1.15974e-07 6.98569e-09)
(-4.96858e-09 -8.58036e-10 1.94467e-07 2.50336e-10 1.19432e-07 4.71824e-09)
(-2.65046e-09 -1.14307e-09 1.2721e-07 -1.93665e-10 1.07006e-07 2.84412e-09)
(-2.81644e-10 -9.74555e-12 4.46163e-08 -1.31576e-10 -3.74024e-08 4.1322e-10)
(-3.72008e-10 -6.89675e-11 6.64971e-08 -2.67714e-10 -4.07023e-08 6.39721e-10)
(-3.80602e-10 -1.55552e-11 9.44546e-08 -5.35514e-10 -3.93218e-08 9.16117e-10)
(-4.69132e-10 3.01616e-11 1.20768e-07 -6.88698e-10 -2.92196e-08 1.15783e-09)
(-5.50547e-10 2.5714e-11 1.36782e-07 -7.51453e-10 -1.08594e-08 1.302e-09)
(-5.5049e-10 -2.60837e-11 1.36782e-07 -7.51513e-10 1.08594e-08 1.302e-09)
(-4.68983e-10 -3.04593e-11 1.20768e-07 -6.88854e-10 2.92195e-08 1.15784e-09)
(-3.80422e-10 1.53719e-11 9.44541e-08 -5.35703e-10 3.93216e-08 9.16125e-10)
(-3.71846e-10 6.88837e-11 6.64966e-08 -2.67884e-10 4.0702e-08 6.3973e-10)
(-2.8154e-10 9.72932e-12 4.46159e-08 -1.31687e-10 3.74021e-08 4.13227e-10)
(-8.29053e-11 6.37353e-11 5.83171e-08 5.42636e-11 -4.89417e-08 2.86417e-11)
(-1.8867e-10 4.4769e-11 8.75624e-08 1.32442e-10 -5.36443e-08 5.62274e-11)
(-2.50215e-10 3.98399e-11 1.24421e-07 1.57037e-10 -5.1817e-08 9.31776e-11)
(-3.13496e-10 1.78904e-11 1.58666e-07 1.85884e-10 -3.83899e-08 1.27612e-10)
(-3.43794e-10 6.80717e-12 1.7937e-07 1.93404e-10 -1.42396e-08 1.50389e-10)
(-3.43653e-10 -7.71119e-12 1.79369e-07 1.93257e-10 1.42396e-08 1.50396e-10)
(-3.13131e-10 -1.86204e-11 1.58665e-07 1.85499e-10 3.83897e-08 1.27632e-10)
(-2.49771e-10 -4.02912e-11 1.2442e-07 1.56568e-10 5.18166e-08 9.32026e-11)
(-1.8827e-10 -4.49751e-11 8.75612e-08 1.32016e-10 5.36435e-08 5.62538e-11)
(-8.26514e-11 -6.37739e-11 5.8316e-08 5.39878e-11 4.89408e-08 2.86636e-11)
(-3.29353e-11 -1.09318e-11 4.54867e-08 -3.66085e-11 -3.81451e-08 6.95437e-11)
(-2.43309e-11 -1.20831e-11 6.79176e-08 -7.99498e-11 -4.15801e-08 1.04281e-10)
(-1.49361e-11 6.36979e-12 9.65421e-08 -1.29539e-10 -4.01969e-08 1.44476e-10)
(-2.75937e-11 1.78826e-11 1.23383e-07 -1.51155e-10 -2.98536e-08 1.78749e-10)
(-4.34149e-11 9.55188e-12 1.39703e-07 -1.55176e-10 -1.1092e-08 1.98591e-10)
(-4.32055e-11 -1.09036e-11 1.39702e-07 -1.55396e-10 1.10921e-08 1.98601e-10)
(-2.70495e-11 -1.89747e-11 1.23381e-07 -1.51728e-10 2.98533e-08 1.78777e-10)
(-1.42744e-11 -7.04582e-12 9.65398e-08 -1.30238e-10 4.0196e-08 1.44512e-10)
(-2.37316e-11 1.17714e-11 6.79152e-08 -8.05879e-11 4.15787e-08 1.04319e-10)
(-3.2551e-11 1.0871e-11 4.54847e-08 -3.7025e-11 3.81434e-08 6.9576e-11)
(-1.32372e-11 1.44167e-11 4.92652e-08 1.0549e-11 -4.13278e-08 2.68828e-12)
(-3.32954e-11 1.32341e-11 7.37535e-08 2.70127e-11 -4.51677e-08 6.28273e-12)
(-4.78428e-11 1.31207e-11 1.04891e-07 3.65799e-11 -4.36805e-08 1.12629e-11)
(-6.2875e-11 7.56701e-12 1.34004e-07 4.70039e-11 -3.24262e-08 1.5871e-11)
(-7.04298e-11 2.04633e-12 1.5168e-07 5.14132e-11 -1.20435e-08 1.90166e-11)
(-7.00538e-11 -4.46972e-12 1.51679e-07 5.10189e-11 1.20436e-08 1.9035e-11)
(-6.18966e-11 -9.52757e-12 1.34001e-07 4.59726e-11 3.24255e-08 1.5924e-11)
(-4.66503e-11 -1.43366e-11 1.04886e-07 3.53197e-11 4.36787e-08 1.13306e-11)
(-3.22133e-11 -1.37951e-11 7.37488e-08 2.5858e-11 4.51649e-08 6.35534e-12)
(-1.2546e-11 -1.45244e-11 4.92612e-08 9.79708e-12 4.13244e-08 2.74894e-12)
(-7.73916e-12 -2.95524e-12 4.61086e-08 -9.82422e-12 -3.86718e-08 1.75634e-11)
(-5.50056e-12 -3.20479e-12 6.89207e-08 -2.08612e-11 -4.22003e-08 2.63617e-11)
(-3.41011e-12 1.05377e-12 9.80231e-08 -3.31907e-11 -4.08181e-08 3.66008e-11)
(-6.52446e-12 3.5849e-12 1.25304e-07 -3.88459e-11 -3.03211e-08 4.53703e-11)
(-1.02891e-11 8.80625e-13 1.41892e-07 -4.01656e-11 -1.12667e-08 5.04546e-11)
(-9.71593e-12 -4.58028e-12 1.4189e-07 -4.07668e-11 1.12669e-08 5.04827e-11)
(-5.03284e-12 -6.57896e-12 1.25298e-07 -4.04188e-11 3.03199e-08 4.54516e-11)
(-1.59292e-12 -2.91089e-12 9.8015e-08 -3.51124e-11 4.0815e-08 3.67054e-11)
(-3.85182e-12 2.34702e-12 6.89125e-08 -2.26228e-11 4.21954e-08 2.64746e-11)
(-6.68998e-12 2.79031e-12 4.61015e-08 -1.09684e-11 3.8666e-08 1.76584e-11)
(-2.77309e-12 3.68011e-12 4.71223e-08 2.67437e-12 -3.95256e-08 9.87167e-14)
(-8.26732e-12 3.18302e-12 7.04829e-08 7.50766e-12 -4.31605e-08 7.59666e-13)
(-1.23978e-11 2.38965e-12 1.00252e-07 1.06153e-11 -4.17479e-08 1.78245e-12)
(-1.60755e-11 1.49985e-13 1.28133e-07 1.32718e-11 -3.10062e-08 2.80375e-12)
(-1.74425e-11 -1.91519e-12 1.45078e-07 1.38921e-11 -1.15197e-08 3.55036e-12)
(-1.65751e-11 -3.68789e-12 1.45074e-07 1.298e-11 1.15198e-08 3.59511e-12)
(-1.38182e-11 -4.68473e-12 1.28123e-07 1.08848e-11 3.10041e-08 2.93338e-12)
(-9.64993e-12 -5.20031e-12 1.00238e-07 7.69955e-12 4.17424e-08 1.95038e-12)
(-5.78097e-12 -4.47744e-12 7.04686e-08 4.83869e-12 4.3152e-08 9.42273e-13)
(-1.20974e-12 -3.92403e-12 4.71099e-08 9.56074e-13 3.95153e-08 2.53665e-13)
(-1.53918e-12 -7.26027e-13 4.63242e-08 -2.68393e-12 -3.8854e-08 4.22311e-12)
(-1.38835e-12 -9.53245e-13 6.92586e-08 -4.99749e-12 -4.24085e-08 6.38584e-12)
(-1.4005e-12 -6.00352e-13 9.85078e-08 -7.52985e-12 -4.10207e-08 8.93036e-12)
(-2.2692e-12 -9.87732e-13 1.25918e-07 -8.88683e-12 -3.04701e-08 1.1156e-11)
(-2.73749e-12 -2.76363e-12 1.42582e-07 -9.74388e-12 -1.13215e-08 1.24814e-11)
(-1.58639e-12 -4.69191e-12 1.42576e-07 -1.09586e-11 1.13217e-08 1.2545e-11)
(7.25627e-13 -5.04557e-12 1.25901e-07 -1.20656e-11 3.04667e-08 1.134e-11)
(2.23959e-12 -3.13512e-12 9.84849e-08 -1.14091e-11 4.10118e-08 9.16951e-12)
(1.89567e-12 -7.6365e-13 6.92352e-08 -8.5417e-12 4.23947e-08 6.64603e-12)
(5.01592e-13 4.06113e-13 4.63039e-08 -4.94611e-12 3.88372e-08 4.44452e-12)
(-3.61088e-13 1.00212e-12 4.66051e-08 6.837e-13 -3.90904e-08 -3.22612e-13)
(-2.27509e-12 6.60765e-13 6.96885e-08 2.55296e-12 -4.26726e-08 -2.77876e-13)
(-3.94152e-12 -3.87727e-13 9.91174e-08 4.08044e-12 -4.12748e-08 -1.38923e-13)
(-4.95532e-12 -2.1495e-12 1.26688e-07 4.89495e-12 -3.06563e-08 6.03744e-14)
(-4.72552e-12 -3.88401e-12 1.43445e-07 4.47037e-12 -1.13898e-08 2.55153e-13)
(-3.37231e-12 -4.91157e-12 1.43435e-07 3.03474e-12 1.13901e-08 3.3757e-13)
(-1.43295e-12 -4.97287e-12 1.26662e-07 1.13517e-12 3.0651e-08 2.97781e-13)
(3.37809e-13 -4.02174e-12 9.90819e-08 -5.07284e-13 4.12609e-08 1.69476e-13)
(1.58805e-12 -2.69071e-12 6.96522e-08 -1.64444e-12 4.2651e-08 5.63822e-14)
(2.01641e-12 -1.37731e-12 4.65733e-08 -1.97755e-12 3.90642e-08 -3.8857e-14)
(-2.8265e-13 -1.87798e-13 4.64112e-08 -5.22515e-13 -3.89272e-08 8.05165e-13)
(-6.80766e-13 -5.07009e-13 6.93886e-08 -5.79274e-13 -4.24882e-08 1.26004e-12)
(-1.16381e-12 -1.21807e-12 9.86865e-08 -6.50765e-13 -4.10949e-08 1.81458e-12)
(-1.37773e-12 -2.39332e-12 1.26137e-07 -9.62506e-13 -3.05227e-08 2.34024e-12)
(-9.1485e-13 -3.89608e-12 1.4282e-07 -1.78013e-12 -1.134e-08 2.69498e-12)
(4.22723e-13 -4.84656e-12 1.42806e-07 -3.20863e-12 1.13404e-08 2.78591e-12)
(2.11079e-12 -4.70186e-12 1.261e-07 -4.71176e-12 3.05151e-08 2.60098e-12)
(3.08141e-12 -3.18467e-12 9.86359e-08 -5.23224e-12 4.10751e-08 2.15083e-12)
(3.17954e-12 -1.53848e-12 6.93367e-08 -4.80105e-12 4.24574e-08 1.62151e-12)
(2.08791e-12 -1.93892e-13 4.63661e-08 -3.19705e-12 3.88899e-08 1.10914e-12)
(-4.02965e-13 1.80548e-13 4.64969e-08 6.95648e-13 -3.89992e-08 -2.92683e-13)
(-1.18275e-12 -2.19201e-13 6.95178e-08 1.5508e-12 -4.25674e-08 -3.6805e-13)
(-1.81652e-12 -1.1209e-12 9.88672e-08 2.23804e-12 -4.11701e-08 -4.21517e-13)
(-1.91897e-12 -2.30568e-12 1.26362e-07 2.33938e-12 -3.0577e-08 -4.20405e-13)
(-1.34069e-12 -3.33745e-12 1.43069e-07 1.70466e-12 -1.13596e-08 -3.63978e-13)
(-2.66594e-13 -3.74503e-12 1.43051e-07 5.47128e-13 1.136e-08 -2.80534e-13)
(8.99728e-13 -3.47885e-12 1.26313e-07 -7.17774e-13 3.05669e-08 -1.81954e-13)
(1.6404e-12 -2.49935e-12 9.88011e-08 -1.52209e-12 4.11441e-08 -1.18307e-13)
(2.03309e-12 -1.50626e-12 6.94503e-08 -1.9876e-12 4.25273e-08 -4.54842e-14)
(1.60108e-12 -5.15226e-13 4.64382e-08 -1.57504e-12 3.89508e-08 -2.60419e-14)
(-1.05461e-12 -2.56307e-13 4.6453e-08 9.00377e-13 -3.89623e-08 1.54234e-13)
(-1.23644e-12 -7.51981e-13 6.94493e-08 1.00568e-12 -4.25252e-08 2.30759e-13)
(-1.14324e-12 -1.32791e-12 9.87679e-08 8.13553e-13 -4.11286e-08 3.29683e-13)
(-8.05706e-13 -1.86911e-12 1.26234e-07 3.75545e-13 -3.05457e-08 4.3016e-13)
(-2.36241e-13 -2.16488e-12 1.42921e-07 -2.86726e-13 -1.13477e-08 5.22967e-13)
(3.97969e-13 -2.08846e-12 1.42899e-07 -9.78415e-13 1.13481e-08 5.80445e-13)
(8.9132e-13 -1.67202e-12 1.26175e-07 -1.48607e-12 3.05336e-08 5.94752e-13)
(9.95011e-13 -9.50328e-13 9.86889e-08 -1.52744e-12 4.10975e-08 5.32431e-13)
(8.86545e-13 -4.1103e-13 6.93692e-08 -1.32995e-12 4.24776e-08 4.43407e-13)
(3.49419e-13 5.20264e-15 4.63839e-08 -6.72198e-13 3.89051e-08 3.22779e-13)
(-1.90912e-12 -3.03064e-13 4.6475e-08 1.8609e-12 -3.89808e-08 4.82231e-14)
(-2.03667e-12 -9.89678e-13 6.94836e-08 1.99023e-12 -4.25463e-08 4.64386e-14)
(-1.53197e-12 -1.4171e-12 9.8817e-08 1.4806e-12 -4.1149e-08 5.13711e-14)
(-8.93054e-13 -1.49875e-12 1.26296e-07 8.5209e-13 -3.05607e-08 4.09638e-14)
(-3.04171e-13 -9.61706e-13 1.4299e-07 2.50434e-13 -1.1353e-08 5.3737e-14)
(-1.39457e-13 -2.24188e-13 1.42966e-07 6.80267e-14 1.13535e-08 7.14304e-14)
(-3.89737e-13 3.85481e-13 1.26231e-07 2.9526e-13 3.05474e-08 9.44773e-14)
(-7.83656e-13 5.80873e-13 9.87308e-08 6.77481e-13 4.11152e-08 1.06175e-13)
(-1.04897e-12 4.25963e-13 6.93966e-08 9.46829e-13 4.24946e-08 1.02137e-13)
(-1.086e-12 1.3584e-13 4.64005e-08 1.00524e-12 3.89192e-08 8.0758e-14)
(-2.76754e-12 -5.23183e-13 4.64551e-08 2.43753e-12 -3.89641e-08 3.30016e-13)
(-2.69731e-12 -1.41469e-12 6.9455e-08 2.26528e-12 -4.25289e-08 4.3203e-13)
(-1.66987e-12 -1.65095e-12 9.8779e-08 1.11703e-12 -4.11333e-08 5.52832e-13)
(-7.06562e-13 -1.28041e-12 1.2625e-07 1.00205e-13 -3.05497e-08 6.06358e-13)
(-7.93194e-14 -4.39223e-14 1.42939e-07 -5.54647e-13 -1.1349e-08 6.33966e-13)
(-2.65495e-13 1.2102e-12 1.42915e-07 -3.39886e-13 1.13496e-08 6.05382e-13)
(-1.08796e-12 2.01661e-12 1.26185e-07 5.55078e-13 3.05363e-08 5.3288e-13)
(-1.92823e-12 1.89324e-12 9.86927e-08 1.48782e-12 4.10994e-08 4.40404e-13)
(-2.49337e-12 1.28311e-12 6.93686e-08 2.17786e-12 4.24775e-08 3.15514e-13)
(-2.28122e-12 4.07624e-13 4.63816e-08 2.06479e-12 3.89033e-08 2.16427e-13)
(-3.16274e-12 -5.42715e-13 4.6446e-08 2.75695e-12 -3.89566e-08 4.05783e-13)
(-3.1077e-12 -1.5297e-12 6.94443e-08 2.57246e-12 -4.25225e-08 5.35247e-13)
(-1.87307e-12 -1.645e-12 9.87679e-08 1.18142e-12 -4.11289e-08 6.91656e-13)
(-8.1763e-13 -1.06055e-12 1.2624e-07 6.76777e-14 -3.05475e-08 7.49953e-13)
(-2.07788e-13 5.37545e-13 1.42931e-07 -5.53339e-13 -1.13485e-08 7.61126e-13)
(-5.9243e-13 2.03065e-12 1.42909e-07 -9.38889e-14 1.1349e-08 6.86318e-13)
(-1.6891e-12 2.88185e-12 1.2618e-07 1.13735e-12 3.05351e-08 5.51752e-13)
(-2.65994e-12 2.49576e-12 9.8689e-08 2.24435e-12 4.10979e-08 4.15582e-13)
(-3.25572e-12 1.61553e-12 6.93659e-08 3.00101e-12 4.24759e-08 2.54716e-13)
(-2.73514e-12 4.39903e-13 4.638e-08 2.57908e-12 3.89019e-08 1.56056e-13)
(-2.83673e-12 -4.80856e-13 4.64227e-08 2.33078e-12 -3.89371e-08 5.05947e-13)
(-2.74154e-12 -1.31931e-12 6.94122e-08 2.06058e-12 -4.25031e-08 6.80964e-13)
(-1.52838e-12 -1.22408e-12 9.87271e-08 6.38873e-13 -4.11122e-08 8.89507e-13)
(-6.36448e-13 -5.25301e-13 1.26193e-07 -3.41075e-13 -3.05365e-08 9.77523e-13)
(-2.17335e-13 1.03107e-12 1.42883e-07 -7.67923e-13 -1.13449e-08 9.85258e-13)
(-7.0522e-13 2.33337e-12 1.42865e-07 -1.63541e-13 1.13454e-08 8.68761e-13)
(-1.75882e-12 2.95868e-12 1.26144e-07 1.09114e-12 3.05263e-08 6.67676e-13)
(-2.57142e-12 2.40964e-12 9.86626e-08 2.10482e-12 4.10868e-08 4.66606e-13)
(-3.01933e-12 1.50958e-12 6.93488e-08 2.7638e-12 4.24653e-08 2.55529e-13)
(-2.35838e-12 3.77031e-13 4.63698e-08 2.22179e-12 3.88933e-08 1.36587e-13)
(-1.82947e-12 -2.79655e-13 4.64023e-08 1.33734e-12 -3.89201e-08 4.92128e-13)
(-1.64288e-12 -7.04626e-13 6.93847e-08 9.81472e-13 -4.24865e-08 6.61409e-13)
(-6.88305e-13 -2.86379e-13 9.86929e-08 -1.65314e-13 -4.10983e-08 8.53619e-13)
(-2.08629e-13 5.02099e-13 1.26155e-07 -7.16156e-13 -3.05277e-08 9.24785e-13)
(-1.8958e-13 1.73526e-12 1.42847e-07 -7.1199e-13 -1.13423e-08 9.0157e-13)
(-7.97308e-13 2.51489e-12 1.42834e-07 4.65679e-14 1.13426e-08 7.5074e-13)
(-1.6394e-12 2.6438e-12 1.26122e-07 1.11703e-12 3.05207e-08 5.22368e-13)
(-2.09249e-12 1.90433e-12 9.86491e-08 1.78374e-12 4.1081e-08 3.08748e-13)
(-2.1977e-12 1.0718e-12 6.93424e-08 2.08327e-12 4.24612e-08 1.1443e-13)
(-1.45336e-12 2.00981e-13 4.63676e-08 1.43106e-12 3.88913e-08 2.22963e-14)
(-6.5456e-13 -7.33553e-14 4.63802e-08 1.92997e-13 -3.89016e-08 4.61563e-13)
(-2.92162e-13 -5.67975e-17 6.93546e-08 -3.20722e-13 -4.24683e-08 6.12884e-13)
(3.55383e-13 7.66544e-13 9.86554e-08 -1.11973e-12 -4.10829e-08 7.6435e-13)
(3.84707e-13 1.6582e-12 1.26114e-07 -1.18898e-12 -3.0518e-08 8.04269e-13)
(-4.74273e-14 2.49243e-12 1.42807e-07 -6.96187e-13 -1.13396e-08 7.43615e-13)
(-7.85211e-13 2.67736e-12 1.42802e-07 2.13892e-13 1.13397e-08 5.71319e-13)
(-1.4017e-12 2.26835e-12 1.261e-07 1.05938e-12 3.05149e-08 3.42317e-13)
(-1.51335e-12 1.37161e-12 9.86374e-08 1.37117e-12 4.10758e-08 1.42182e-13)
(-1.30324e-12 6.29761e-13 6.93384e-08 1.31599e-12 4.24585e-08 -1.2749e-14)
(-5.8258e-13 5.43291e-14 4.63678e-08 6.55557e-13 3.88913e-08 -7.29775e-14)
(1.66691e-14 4.19588e-14 4.63612e-08 -4.25392e-13 -3.88858e-08 4.08723e-13)
(5.01676e-13 4.06916e-13 6.93297e-08 -1.03244e-12 -4.24532e-08 5.30765e-13)
(9.30587e-13 1.31478e-12 9.86256e-08 -1.55882e-12 -4.10709e-08 6.28235e-13)
(7.14964e-13 2.2132e-12 1.26083e-07 -1.34362e-12 -3.05109e-08 6.28652e-13)
(5.94319e-14 2.75594e-12 1.4278e-07 -5.94914e-13 -1.13378e-08 5.35482e-13)
(-6.99942e-13 2.59554e-12 1.42782e-07 3.38177e-13 1.13377e-08 3.61766e-13)
(-1.16295e-12 1.93238e-12 1.2609e-07 1.00193e-12 3.05122e-08 1.61016e-13)
(-1.12059e-12 1.03444e-12 9.86361e-08 1.11773e-12 4.10749e-08 2.85927e-15)
(-8.06074e-13 3.94532e-13 6.9342e-08 9.05171e-13 4.24604e-08 -9.90969e-14)
(-1.99087e-13 -5.59197e-16 4.63732e-08 3.2537e-13 3.88956e-08 -1.26283e-13)
(-2.261e-13 -5.5944e-15 4.63436e-08 -1.44452e-13 -3.88711e-08 3.70552e-13)
(1.94919e-13 2.32815e-13 6.9307e-08 -6.72866e-13 -4.24395e-08 4.77948e-13)
(5.71781e-13 9.02295e-13 9.85993e-08 -1.12397e-12 -4.10602e-08 5.52193e-13)
(4.60397e-13 1.58198e-12 1.26057e-07 -1.00033e-12 -3.05048e-08 5.39934e-13)
(1.28445e-14 1.99963e-12 1.42758e-07 -4.60159e-13 -1.13364e-08 4.47315e-13)
(-5.22924e-13 1.91044e-12 1.42768e-07 2.25577e-13 1.13362e-08 2.97347e-13)
(-8.81917e-13 1.48998e-12 1.26084e-07 7.45833e-13 3.05104e-08 1.36085e-13)
(-9.20416e-13 8.77274e-13 9.86368e-08 9.02575e-13 4.10749e-08 1.78409e-14)
(-8.08704e-13 4.17641e-13 6.93462e-08 8.65947e-13 4.24628e-08 -5.72429e-14)
(-4.17364e-13 5.96754e-14 4.63784e-08 4.96715e-13 3.88998e-08 -7.93508e-14)
(-1.08078e-12 -1.53763e-13 4.6328e-08 7.44742e-13 -3.88581e-08 3.36041e-13)
(-9.15764e-13 -3.56225e-13 6.92868e-08 4.72563e-13 -4.24274e-08 4.43201e-13)
(-4.73461e-13 -1.90713e-13 9.8576e-08 -5.83865e-14 -4.10508e-08 5.31848e-13)
(-2.44591e-13 1.06444e-13 1.26034e-07 -2.96868e-13 -3.04995e-08 5.4146e-13)
(-1.80811e-13 5.48325e-13 1.42739e-07 -3.06629e-13 -1.13352e-08 4.8744e-13)
(-3.35269e-13 8.50994e-13 1.42755e-07 -4.71505e-14 1.13349e-08 3.82419e-13)
(-6.44669e-13 1.032e-12 1.26077e-07 3.84444e-13 3.05085e-08 2.60225e-13)
(-9.23839e-13 8.77447e-13 9.86348e-08 7.57383e-13 4.10739e-08 1.66456e-13)
(-1.21301e-12 6.31551e-13 6.93469e-08 1.12906e-12 4.24631e-08 8.39465e-14)
(-1.04841e-12 1.87731e-13 4.63802e-08 1.00842e-12 3.89012e-08 3.99869e-14)
(-1.66744e-12 -2.51826e-13 4.63137e-08 1.36655e-12 -3.88462e-08 3.00894e-13)
(-1.7611e-12 -8.04373e-13 6.92675e-08 1.34478e-12 -4.24157e-08 4.16327e-13)
(-1.26154e-12 -1.00345e-12 9.85525e-08 7.18728e-13 -4.10413e-08 5.4281e-13)
(-7.7816e-13 -9.6114e-13 1.26008e-07 1.78177e-13 -3.04938e-08 5.99983e-13)
(-3.43058e-13 -3.93712e-13 1.42715e-07 -2.64822e-13 -1.13336e-08 6.0788e-13)
(-2.85797e-13 3.14094e-13 1.42735e-07 -2.69824e-13 1.13331e-08 5.55621e-13)
(-6.83263e-13 1.01101e-12 1.26062e-07 2.22904e-13 3.05048e-08 4.60359e-13)
(-1.23671e-12 1.14094e-12 9.86243e-08 8.67828e-13 4.10694e-08 3.68878e-13)
(-1.88677e-12 9.63099e-13 6.93399e-08 1.63521e-12 4.24587e-08 2.51561e-13)
(-1.81067e-12 3.23349e-13 4.63758e-08 1.63992e-12 3.88975e-08 1.70758e-13)
(-1.09215e-12 -1.51796e-13 4.63013e-08 8.40457e-13 -3.88357e-08 2.51696e-13)
(-1.18192e-12 -5.16345e-13 6.92497e-08 8.14451e-13 -4.2405e-08 3.67472e-13)
(-7.51019e-13 -5.00859e-13 9.85291e-08 2.33338e-13 -4.10317e-08 5.17682e-13)
(-4.16315e-13 -2.32268e-13 1.25981e-07 -2.01998e-13 -3.04874e-08 6.18313e-13)
(-2.29327e-13 5.34554e-13 1.42687e-07 -4.48503e-13 -1.13315e-08 6.77829e-13)
(-5.02387e-13 1.34433e-12 1.42708e-07 -1.65885e-13 1.13308e-08 6.68272e-13)
(-1.24683e-12 1.9935e-12 1.26039e-07 6.60291e-13 3.04992e-08 5.86535e-13)
(-2.01154e-12 1.85419e-12 9.8606e-08 1.52311e-12 4.10618e-08 4.88434e-13)
(-2.75931e-12 1.38419e-12 6.93264e-08 2.422e-12 4.24505e-08 3.37309e-13)
(-2.49425e-12 4.25224e-13 4.63667e-08 2.26258e-12 3.88898e-08 2.31676e-13)
(8.41315e-13 1.74866e-13 4.6291e-08 -1.02754e-12 -3.88271e-08 1.86224e-13)
(1.14179e-12 6.7028e-13 6.92343e-08 -1.42656e-12 -4.23957e-08 2.84772e-13)
(1.33911e-12 1.58187e-12 9.85077e-08 -1.75505e-12 -4.10229e-08 4.1594e-13)
(1.04957e-12 2.64465e-12 1.25955e-07 -1.5788e-12 -3.0481e-08 5.29229e-13)
(2.50156e-13 3.6293e-12 1.42657e-07 -8.52405e-13 -1.13293e-08 6.02249e-13)
(-9.61775e-13 4.11028e-12 1.42679e-07 3.48479e-13 1.13285e-08 6.13296e-13)
(-2.29654e-12 3.99974e-12 1.26013e-07 1.75912e-12 3.04929e-08 5.37413e-13)
(-3.15725e-12 2.96795e-12 9.85852e-08 2.71549e-12 4.10532e-08 4.41759e-13)
(-3.67288e-12 1.82934e-12 6.93115e-08 3.3887e-12 4.24414e-08 2.84182e-13)
(-2.95415e-12 4.74554e-13 4.63568e-08 2.76916e-12 3.88815e-08 1.84995e-13)
(3.46224e-12 6.1154e-13 4.62837e-08 -3.56034e-12 -3.8821e-08 9.80991e-14)
(4.38676e-12 2.32543e-12 6.92233e-08 -4.54479e-12 -4.23889e-08 1.58032e-13)
(4.21758e-12 4.42645e-12 9.84916e-08 -4.43916e-12 -4.10162e-08 2.21582e-13)
(3.06215e-12 6.50728e-12 1.25934e-07 -3.37e-12 -3.0476e-08 3.0785e-13)
(9.30276e-13 7.59482e-12 1.42634e-07 -1.28204e-12 -1.13274e-08 3.51761e-13)
(-1.43677e-12 7.43148e-12 1.42656e-07 1.07309e-12 1.13266e-08 3.63678e-13)
(-3.355e-12 6.16244e-12 1.25993e-07 3.05626e-12 3.04879e-08 2.98738e-13)
(-4.16195e-12 4.00008e-12 9.857e-08 3.93235e-12 4.10468e-08 2.29594e-13)
(-4.23139e-12 2.11137e-12 6.93016e-08 4.12471e-12 4.24353e-08 1.06677e-13)
(-3.00056e-12 4.54612e-13 4.6351e-08 2.9514e-12 3.88765e-08 4.91547e-14)
(5.65485e-12 9.77152e-13 4.62806e-08 -5.61955e-12 -3.88184e-08 -3.5296e-14)
(7.03123e-12 3.66564e-12 6.92186e-08 -6.99829e-12 -4.2386e-08 -3.29399e-14)
(6.38996e-12 6.52202e-12 9.84848e-08 -6.32397e-12 -4.10132e-08 -6.59933e-14)
(4.51532e-12 9.15177e-12 1.25925e-07 -4.48387e-12 -3.04737e-08 -3.14427e-14)
(1.43333e-12 9.97575e-12 1.42623e-07 -1.39839e-12 -1.13265e-08 -3.49347e-14)
(-1.57046e-12 9.0822e-12 1.42646e-07 1.5944e-12 1.13259e-08 -2.39436e-14)
(-3.5997e-12 6.86474e-12 1.25985e-07 3.657e-12 3.04861e-08 -5.73017e-14)
(-4.12855e-12 4.0519e-12 9.85661e-08 4.20042e-12 4.10451e-08 -7.18658e-14)
(-3.73776e-12 1.87873e-12 6.9301e-08 3.85965e-12 4.24348e-08 -1.21899e-13)
(-2.27734e-12 3.20879e-13 4.63521e-08 2.39219e-12 3.88774e-08 -1.14848e-13)
(6.54441e-12 1.13224e-12 4.62843e-08 -6.28237e-12 -3.88215e-08 -2.6204e-13)
(7.76853e-12 4.01201e-12 6.92241e-08 -7.43141e-12 -4.23892e-08 -3.37124e-13)
(6.52059e-12 6.51358e-12 9.84915e-08 -6.04908e-12 -4.10158e-08 -4.71511e-13)
(4.36844e-12 8.51125e-12 1.25932e-07 -3.87918e-12 -3.04752e-08 -4.89263e-13)
(1.37882e-12 8.37872e-12 1.42631e-07 -8.58244e-13 -1.13269e-08 -5.20574e-13)
(-1.02015e-12 6.80533e-12 1.42654e-07 1.50433e-12 1.13266e-08 -4.84183e-13)
(-2.17794e-12 4.38612e-12 1.25994e-07 2.62344e-12 3.04883e-08 -4.45499e-13)
(-2.06625e-12 2.1079e-12 9.85754e-08 2.4423e-12 4.1049e-08 -3.76054e-13)
(-1.34415e-12 6.90129e-13 6.93102e-08 1.66459e-12 4.24404e-08 -3.20445e-13)
(-2.81263e-13 -2.80814e-15 4.636e-08 5.23131e-13 3.8884e-08 -2.41868e-13)
(5.9132e-12 1.04696e-12 4.63003e-08 -5.28976e-12 -3.88349e-08 -6.23448e-13)
(6.15576e-12 3.13221e-12 6.92457e-08 -5.35387e-12 -4.24022e-08 -8.01888e-13)
(4.11143e-12 3.89389e-12 9.8518e-08 -3.08123e-12 -4.10265e-08 -1.0302e-12)
(2.1917e-12 3.74134e-12 1.25961e-07 -1.10874e-12 -3.0482e-08 -1.08297e-12)
(5.87753e-13 1.76234e-12 1.4266e-07 5.04641e-13 -1.1329e-08 -1.09239e-12)
(3.51871e-13 -4.38376e-13 1.42682e-07 6.27646e-13 1.1329e-08 -9.79517e-13)
(1.30389e-12 -2.11478e-12 1.26019e-07 -4.93229e-13 3.04945e-08 -8.10665e-13)
(2.51197e-12 -2.35416e-12 9.85965e-08 -1.88601e-12 4.10577e-08 -6.25959e-13)
(3.40253e-12 -1.70171e-12 6.93267e-08 -2.96819e-12 4.24505e-08 -4.34347e-13)
(3.2645e-12 -5.63848e-13 4.6372e-08 -2.97615e-12 3.88941e-08 -2.88348e-13)
(4.13162e-12 7.68756e-13 4.6335e-08 -3.03798e-12 -3.88638e-08 -1.09364e-12)
(2.79403e-12 1.32141e-12 6.92911e-08 -1.39279e-12 -4.24295e-08 -1.40125e-12)
(-1.30346e-13 -6.3777e-13 9.85721e-08 1.84984e-12 -4.10485e-08 -1.71949e-12)
(-1.4418e-12 -4.03517e-12 1.26019e-07 3.23591e-12 -3.04954e-08 -1.79411e-12)
(-7.25941e-13 -8.48856e-12 1.42717e-07 2.45879e-12 -1.1333e-08 -1.73285e-12)
(2.31641e-12 -1.12756e-11 1.42732e-07 -8.26446e-13 1.13333e-08 -1.48996e-12)
(6.26292e-12 -1.15275e-11 1.2606e-07 -5.13172e-12 3.05044e-08 -1.1312e-12)
(8.87752e-12 -8.62649e-12 9.86261e-08 -8.07688e-12 4.10702e-08 -8.00647e-13)
(9.81832e-12 -4.96106e-12 6.93464e-08 -9.3725e-12 4.24627e-08 -4.45815e-13)
(7.84093e-12 -1.28289e-12 4.63839e-08 -7.6001e-12 3.89043e-08 -2.40822e-13)
(1.81607e-12 3.78011e-13 4.63917e-08 -2.81412e-13 -3.89111e-08 -1.53466e-12)
(-1.07622e-12 -7.81732e-13 6.93643e-08 3.04925e-12 -4.24735e-08 -1.97303e-12)
(-4.61016e-12 -5.44662e-12 9.86581e-08 6.98464e-12 -4.10834e-08 -2.37448e-12)
(-5.13666e-12 -1.1985e-11 1.26109e-07 7.60916e-12 -3.05164e-08 -2.4725e-12)
(-2.0154e-12 -1.86466e-11 1.42802e-07 4.33948e-12 -1.1339e-08 -2.32408e-12)
(4.22008e-12 -2.17899e-11 1.42803e-07 -2.28783e-12 1.13395e-08 -1.93226e-12)
(1.09685e-11 -2.04974e-11 1.26113e-07 -9.60513e-12 3.05177e-08 -1.36332e-12)
(1.47942e-11 -1.44875e-11 9.86603e-08 -1.39128e-11 4.10848e-08 -8.81422e-13)
(1.56933e-11 -7.96535e-12 6.9365e-08 -1.53272e-11 4.24743e-08 -3.66178e-13)
(1.18353e-11 -1.90446e-12 4.63919e-08 -1.1714e-11 3.89112e-08 -1.21325e-13)
(-4.63417e-13 -5.80671e-14 4.64656e-08 2.18742e-12 -3.89727e-08 -1.724e-12)
(-4.06268e-12 -2.44643e-12 6.94597e-08 6.30742e-12 -4.2531e-08 -2.24474e-12)
(-7.41949e-12 -8.54475e-12 9.87705e-08 1.01223e-11 -4.11291e-08 -2.70278e-12)
(-7.15565e-12 -1.65327e-11 1.26227e-07 9.99545e-12 -3.05438e-08 -2.8398e-12)
(-2.57961e-12 -2.38624e-11 1.4291e-07 5.22093e-12 -1.13467e-08 -2.64132e-12)
(5.19786e-12 -2.6764e-11 1.42891e-07 -3.04703e-12 1.13473e-08 -2.15082e-12)
(1.30851e-11 -2.44574e-11 1.26174e-07 -1.16512e-11 3.0533e-08 -1.43395e-12)
(1.72145e-11 -1.68805e-11 9.8695e-08 -1.63657e-11 4.10997e-08 -8.48851e-13)
(1.79689e-11 -9.14299e-12 6.9379e-08 -1.77362e-11 4.24834e-08 -2.32671e-13)
(1.30624e-11 -2.07856e-12 4.63935e-08 -1.30832e-11 3.8913e-08 2.0754e-14)
(-2.30173e-12 -4.70178e-13 4.65412e-08 3.76393e-12 -3.90357e-08 -1.4622e-12)
(-5.22943e-12 -3.1417e-12 6.95586e-08 7.1858e-12 -4.25907e-08 -1.95638e-12)
(-7.27994e-12 -8.51735e-12 9.88891e-08 9.67913e-12 -4.11774e-08 -2.39919e-12)
(-6.33069e-12 -1.51025e-11 1.26353e-07 8.9117e-12 -3.05731e-08 -2.58101e-12)
(-1.98024e-12 -2.05807e-11 1.43026e-07 4.39173e-12 -1.13549e-08 -2.41149e-12)
(4.54657e-12 -2.23038e-11 1.42983e-07 -2.59988e-12 1.13555e-08 -1.94669e-12)
(1.08026e-11 -1.99342e-11 1.26234e-07 -9.55978e-12 3.05484e-08 -1.24287e-12)
(1.37943e-11 -1.34685e-11 9.87253e-08 -1.31219e-11 4.11131e-08 -6.72346e-13)
(1.42602e-11 -7.26559e-12 6.93869e-08 -1.41762e-11 4.24888e-08 -8.39901e-14)
(9.87699e-12 -1.54358e-12 4.63891e-08 -1.00083e-11 3.89099e-08 1.31352e-13)
(-3.35222e-12 -7.71563e-13 4.65962e-08 4.0569e-12 -3.90816e-08 -7.04679e-13)
(-4.23558e-12 -2.64228e-12 6.9633e-08 5.26423e-12 -4.26358e-08 -1.02865e-12)
(-3.95612e-12 -5.02712e-12 9.8982e-08 5.30371e-12 -4.12155e-08 -1.34759e-12)
(-2.54355e-12 -7.2593e-12 1.26455e-07 4.09635e-12 -3.0597e-08 -1.55279e-12)
(-2.31488e-13 -8.32411e-12 1.43122e-07 1.72781e-12 -1.13617e-08 -1.49633e-12)
(2.13046e-12 -7.94277e-12 1.43058e-07 -9.16695e-13 1.13623e-08 -1.21376e-12)
(3.88348e-12 -6.51256e-12 1.26281e-07 -3.14595e-12 3.05606e-08 -7.37529e-13)
(4.27827e-12 -3.9926e-12 9.87462e-08 -3.93904e-12 4.11225e-08 -3.39231e-13)
(4.27312e-12 -2.16637e-12 6.93886e-08 -4.32678e-12 4.24905e-08 5.3657e-14)
(2.17923e-12 -2.84173e-13 4.63814e-08 -2.3575e-12 3.89039e-08 1.7827e-13)
(-3.2862e-12 -8.49641e-13 4.66102e-08 2.91749e-12 -3.90933e-08 3.68711e-13)
(-1.41379e-12 -1.07795e-12 6.96561e-08 1.07546e-12 -4.26502e-08 3.38326e-13)
(1.52746e-12 9.39489e-13 9.90172e-08 -1.78509e-12 -4.12303e-08 2.57631e-13)
(3.03944e-12 4.77799e-12 1.26499e-07 -3.12944e-12 -3.06077e-08 9.00044e-14)
(2.08745e-12 9.50529e-12 1.43167e-07 -2.08344e-12 -1.1365e-08 -4.01275e-15)
(-1.47463e-12 1.24184e-11 1.43094e-07 1.49227e-12 1.13656e-08 -1.76456e-14)
(-5.90696e-12 1.22702e-11 1.26302e-07 5.85726e-12 3.05661e-08 4.9707e-14)
(-8.91353e-12 9.10176e-12 9.8752e-08 8.77688e-12 4.11254e-08 1.36648e-13)
(-9.55213e-12 4.90413e-12 6.93846e-08 9.36725e-12 4.24884e-08 1.84877e-13)
(-8.1554e-12 1.39181e-12 4.63736e-08 7.98092e-12 3.88976e-08 1.74483e-13)
(-1.90963e-12 -6.24266e-13 4.65747e-08 5.0565e-13 -3.90639e-08 1.40398e-12)
(2.44709e-12 1.13226e-12 6.96154e-08 -4.15669e-12 -4.2626e-08 1.7096e-12)
(7.39078e-12 7.49658e-12 9.89774e-08 -9.31791e-12 -4.12145e-08 1.92713e-12)
(8.51459e-12 1.70417e-11 1.26465e-07 -1.03884e-11 -3.06003e-08 1.87379e-12)
(4.12814e-12 2.69287e-11 1.43141e-07 -5.78959e-12 -1.13633e-08 1.66144e-12)
(-5.11896e-12 3.19122e-11 1.43074e-07 3.77767e-12 1.1364e-08 1.34129e-12)
(-1.53285e-11 3.0099e-11 1.26286e-07 1.43865e-11 3.05623e-08 9.41915e-13)
(-2.1395e-11 2.14276e-11 9.87386e-08 2.07301e-11 4.112e-08 6.64937e-13)
(-2.26828e-11 1.16221e-11 6.93745e-08 2.23737e-11 4.24824e-08 3.09069e-13)
(-1.77374e-11 2.93458e-12 4.63673e-08 1.75848e-11 3.88924e-08 1.52638e-13)
(5.11402e-13 -1.23984e-13 4.64984e-08 -2.54651e-12 -3.90004e-08 2.03511e-12)
(6.17599e-12 3.33023e-12 6.95198e-08 -8.78242e-12 -4.25687e-08 2.60643e-12)
(1.16288e-11 1.24448e-11 9.88696e-08 -1.47123e-11 -4.1171e-08 3.08351e-12)
(1.18934e-11 2.52073e-11 1.26358e-07 -1.50861e-11 -3.05754e-08 3.19267e-12)
(5.07471e-12 3.75868e-11 1.43045e-07 -8.01928e-12 -1.13565e-08 2.94457e-12)
(-7.51454e-12 4.32613e-11 1.42998e-07 5.09555e-12 1.13574e-08 2.41898e-12)
(-2.08721e-11 4.0216e-11 1.26232e-07 1.92185e-11 3.0549e-08 1.65364e-12)
(-2.84146e-11 2.82451e-11 9.87055e-08 2.73365e-11 4.11061e-08 1.0781e-12)
(-3.00784e-11 1.53919e-11 6.93586e-08 2.96894e-11 4.24725e-08 3.8901e-13)
(-2.27941e-11 3.72319e-12 4.63625e-08 2.26738e-11 3.88881e-08 1.20358e-13)
(3.20352e-12 4.91411e-13 4.64044e-08 -5.24813e-12 -3.8922e-08 2.04461e-12)
(8.5352e-12 4.78767e-12 6.93978e-08 -1.12439e-11 -4.24951e-08 2.70872e-12)
(1.27343e-11 1.40362e-11 9.87251e-08 -1.6032e-11 -4.11122e-08 3.29764e-12)
(1.18942e-11 2.62333e-11 1.26206e-07 -1.54369e-11 -3.054e-08 3.54263e-12)
(4.51639e-12 3.72657e-11 1.42905e-07 -7.85295e-12 -1.13465e-08 3.33656e-12)
(-7.70272e-12 4.17296e-11 1.42884e-07 4.93607e-12 1.13475e-08 2.76666e-12)
(-2.0138e-11 3.81789e-11 1.26153e-07 1.8277e-11 3.05294e-08 1.86096e-12)
(-2.67533e-11 2.64069e-11 9.86605e-08 2.55982e-11 4.10868e-08 1.15514e-12)
(-2.81879e-11 1.43991e-11 6.934e-08 2.78572e-11 4.24606e-08 3.30748e-13)
(-2.06596e-11 3.32177e-12 4.63597e-08 2.06268e-11 3.88852e-08 3.28236e-14)
(5.19557e-12 1.00415e-12 4.63212e-08 -6.6257e-12 -3.88527e-08 1.43013e-12)
(8.63986e-12 4.96976e-12 6.92868e-08 -1.06038e-11 -4.24279e-08 1.96397e-12)