/*--------------------------------*- C++ -*----------------------------------*\
| =========                 |                                                 |
| \\      /  F ield         | OpenFOAM: The Open Source CFD Toolbox           |
|  \\    /   O peration     | Version:  2406                                  |
|   \\  /    A nd           | Website:  www.openfoam.com                      |
|    \\/     M anipulation  |                                                 |
\*---------------------------------------------------------------------------*/
FoamFile
{
    version     2.0;
    format      ascii;
    arch        "LSB;label=32;scalar=64";
    class       volScalarField;
    location    "1.4";
    object      turbulenceProperties:nut;
}
// * * * * * * * * * * * * * * * * * * * * * * * * * * * * * * * * * * * * * //

dimensions      [0 2 -1 0 0 0 0];

internalField   uniform 0;

boundaryField
{
    walls
    {
        type            nutUSpaldingWallFunction;
        value           nonuniform List<scalar> 
2000
(
3.17327e-09
4.55003e-09
5.99778e-09
7.1845e-09
7.85304e-09
7.85304e-09
7.1845e-09
5.99778e-09
4.55003e-09
3.17327e-09
1.87209e-09
2.63221e-09
3.46484e-09
4.1654e-09
4.56594e-09
4.56594e-09
4.1654e-09
3.46484e-09
2.63221e-09
1.87209e-09
9.82548e-10
1.36007e-09
1.78337e-09
2.14884e-09
2.36026e-09
2.36026e-09
2.14884e-09
1.78337e-09
1.36006e-09
9.82542e-10
1.15791e-09
1.60988e-09
2.11114e-09
2.5396e-09
2.78628e-09
2.78628e-09
2.5396e-09
2.11113e-09
1.60987e-09
1.1579e-09
9.94258e-10
1.3777e-09
1.80722e-09
2.17692e-09
2.39067e-09
2.39066e-09
2.1769e-09
1.80719e-09
1.37768e-09
9.94231e-10
1.04414e-09
1.44913e-09
1.90143e-09
2.28988e-09
2.51421e-09
2.5142e-09
2.28985e-09
1.90138e-09
1.44907e-09
1.04409e-09
1.00259e-09
1.39016e-09
1.82416e-09
2.19761e-09
2.41353e-09
2.4135e-09
2.19755e-09
1.82406e-09
1.39006e-09
1.0025e-09
1.01606e-09
1.40939e-09
1.84946e-09
2.22788e-09
2.44658e-09
2.44654e-09
2.22777e-09
1.8493e-09
1.40922e-09
1.01589e-09
1.00547e-09
1.39434e-09
1.82968e-09
2.20421e-09
2.42071e-09
2.42064e-09
2.20403e-09
1.82942e-09
1.39405e-09
1.0052e-09
1.0092e-09
1.39963e-09
1.8366e-09
2.21245e-09
2.42967e-09
2.42957e-09
2.21218e-09
1.8362e-09
1.39919e-09
1.00878e-09
1.00663e-09
1.39594e-09
1.83171e-09
2.20655e-09
2.42318e-09
2.42304e-09
2.20615e-09
1.83114e-09
1.3953e-09
1.00603e-09
1.00776e-09
1.39753e-09
1.83376e-09
2.20896e-09
2.42577e-09
2.42558e-09
2.20844e-09
1.83302e-09
1.3967e-09
1.00699e-09
1.00718e-09
1.39669e-09
1.83263e-09
2.20759e-09
2.42423e-09
2.42401e-09
2.20696e-09
1.83174e-09
1.39571e-09
1.00627e-09
1.00747e-09
1.39711e-09
1.83319e-09
2.20825e-09
2.42494e-09
2.4247e-09
2.20756e-09
1.83222e-09
1.39604e-09
1.00649e-09
1.00721e-09
1.39676e-09
1.83276e-09
2.20776e-09
2.42442e-09
2.42417e-09
2.20707e-09
1.83178e-09
1.3957e-09
1.00624e-09
1.00709e-09
1.39662e-09
1.83263e-09
2.20765e-09
2.42433e-09
2.4241e-09
2.20702e-09
1.83174e-09
1.39567e-09
1.00622e-09
1.00678e-09
1.39623e-09
1.83217e-09
2.20715e-09
2.42384e-09
2.42365e-09
2.20663e-09
1.83144e-09
1.39546e-09
1.00608e-09
1.00651e-09
1.39589e-09
1.83178e-09
2.20675e-09
2.42346e-09
2.42333e-09
2.20639e-09
1.83129e-09
1.39538e-09
1.00605e-09
1.00622e-09
1.39552e-09
1.83136e-09
2.20631e-09
2.42305e-09
2.42299e-09
2.20615e-09
1.83115e-09
1.39532e-09
1.00605e-09
1.00596e-09
1.39522e-09
1.83102e-09
2.20598e-09
2.42276e-09
2.42279e-09
2.20605e-09
1.83114e-09
1.39537e-09
1.00612e-09
1.00573e-09
1.39494e-09
1.83072e-09
2.20569e-09
2.42253e-09
2.42264e-09
2.20598e-09
1.83114e-09
1.39542e-09
1.00619e-09
1.00552e-09
1.39469e-09
1.83046e-09
2.20545e-09
2.42233e-09
2.4225e-09
2.20591e-09
1.83112e-09
1.39543e-09
1.00621e-09
1.00533e-09
1.39445e-09
1.83019e-09
2.20518e-09
2.42209e-09
2.4223e-09
2.20575e-09
1.831e-09
1.39534e-09
1.00616e-09
1.00517e-09
1.39424e-09
1.82993e-09
2.20489e-09
2.42179e-09
2.42202e-09
2.2055e-09
1.83079e-09
1.39517e-09
1.00603e-09
1.00503e-09
1.39405e-09
1.82968e-09
2.2046e-09
2.42149e-09
2.42171e-09
2.20522e-09
1.83056e-09
1.39499e-09
1.0059e-09
1.00494e-09
1.39391e-09
1.8295e-09
2.20438e-09
2.42124e-09
2.42147e-09
2.20501e-09
1.83038e-09
1.39487e-09
1.00582e-09
1.00489e-09
1.39385e-09
1.82942e-09
2.20428e-09
2.42113e-09
2.42136e-09
2.20493e-09
1.83034e-09
1.39486e-09
1.00584e-09
1.00494e-09
1.39392e-09
1.8295e-09
2.20436e-09
2.42121e-09
2.42145e-09
2.20502e-09
1.83045e-09
1.39497e-09
1.00594e-09
1.00516e-09
1.39418e-09
1.8298e-09
2.20467e-09
2.42152e-09
2.42174e-09
2.20529e-09
1.83068e-09
1.39518e-09
1.0061e-09
1.00562e-09
1.39474e-09
1.83041e-09
2.20529e-09
2.4221e-09
2.42226e-09
2.20572e-09
1.83102e-09
1.39542e-09
1.00626e-09
1.00637e-09
1.39564e-09
1.83139e-09
2.20626e-09
2.42299e-09
2.423e-09
2.20629e-09
1.83141e-09
1.39565e-09
1.00637e-09
1.00735e-09
1.39681e-09
1.83266e-09
2.20752e-09
2.42412e-09
2.42392e-09
2.20695e-09
1.83181e-09
1.39583e-09
1.00639e-09
1.00835e-09
1.39802e-09
1.834e-09
2.20886e-09
2.42532e-09
2.42487e-09
2.2076e-09
1.83216e-09
1.39593e-09
1.00634e-09
1.00908e-09
1.39894e-09
1.83506e-09
2.20995e-09
2.42631e-09
2.42566e-09
2.2081e-09
1.8324e-09
1.39595e-09
1.00624e-09
1.00926e-09
1.39922e-09
1.83546e-09
2.21042e-09
2.42678e-09
2.42603e-09
2.20833e-09
1.83247e-09
1.3959e-09
1.00614e-09
1.00879e-09
1.39873e-09
1.83501e-09
2.21007e-09
2.42651e-09
2.42582e-09
2.20815e-09
1.83231e-09
1.39578e-09
1.00606e-09
1.00778e-09
1.39755e-09
1.83379e-09
2.20892e-09
2.42552e-09
2.42503e-09
2.20757e-09
1.83194e-09
1.39558e-09
1.00599e-09
1.00654e-09
1.39606e-09
1.83215e-09
2.20729e-09
2.42406e-09
2.42385e-09
2.20673e-09
1.83142e-09
1.39535e-09
1.00595e-09
1.00544e-09
1.39469e-09
1.8306e-09
2.20571e-09
2.42261e-09
2.42267e-09
2.20591e-09
1.83096e-09
1.39519e-09
1.00597e-09
1.00481e-09
1.3939e-09
1.82966e-09
2.20471e-09
2.42169e-09
2.42195e-09
2.20547e-09
1.8308e-09
1.39526e-09
1.00616e-09
1.00498e-09
1.39406e-09
1.8298e-09
2.20483e-09
2.42183e-09
2.42217e-09
2.20581e-09
1.83125e-09
1.39577e-09
1.00663e-09
1.00634e-09
1.3957e-09
1.83158e-09
2.20664e-09
2.42359e-09
2.42384e-09
2.20735e-09
1.83261e-09
1.3969e-09
1.00746e-09
1.00941e-09
1.39938e-09
1.83563e-09
2.21078e-09
2.42756e-09
2.42742e-09
2.2104e-09
1.83503e-09
1.39867e-09
1.0086e-09
1.0146e-09
1.40565e-09
1.84254e-09
2.21781e-09
2.43421e-09
2.43329e-09
2.2152e-09
1.83864e-09
1.40111e-09
1.01002e-09
1.02209e-09
1.4147e-09
1.85253e-09
2.22798e-09
2.44377e-09
2.44162e-09
2.22189e-09
1.84357e-09
1.40438e-09
1.01192e-09
1.03173e-09
1.42651e-09
1.86575e-09
2.2416e-09
2.45675e-09
2.45309e-09
2.23132e-09
1.85075e-09
1.40941e-09
1.01512e-09
1.04303e-09
1.44049e-09
1.88157e-09
2.25804e-09
2.47255e-09
2.46723e-09
2.24313e-09
1.86003e-09
1.41621e-09
1.01976e-09
1.05482e-09
1.45596e-09
1.90018e-09
2.2786e-09
2.49354e-09
2.48716e-09
2.2608e-09
1.87468e-09
1.42757e-09
1.02798e-09
1.06516e-09
1.4693e-09
1.91599e-09
2.29563e-09
2.51044e-09
2.50272e-09
2.27421e-09
1.88559e-09
1.43593e-09
1.03406e-09
1.07451e-09
1.48472e-09
1.93858e-09
2.32465e-09
2.54382e-09
2.53737e-09
2.30696e-09
1.91397e-09
1.45856e-09
1.05103e-09
3.17327e-09
4.55003e-09
5.99778e-09
7.1845e-09
7.85304e-09
7.85304e-09
7.1845e-09
5.99778e-09
4.55003e-09
3.17327e-09
1.87209e-09
2.63221e-09
3.46484e-09
4.1654e-09
4.56594e-09
4.56594e-09
4.1654e-09
3.46484e-09
2.63221e-09
1.87209e-09
9.82535e-10
1.36006e-09
1.78336e-09
2.14883e-09
2.36026e-09
2.36026e-09
2.14884e-09
1.78337e-09
1.36007e-09
9.82547e-10
1.15788e-09
1.60985e-09
2.11111e-09
2.53957e-09
2.78626e-09
2.78627e-09
2.5396e-09
2.11114e-09
1.60988e-09
1.15791e-09
9.94193e-10
1.37763e-09
1.80714e-09
2.17686e-09
2.39062e-09
2.39064e-09
2.1769e-09
1.80721e-09
1.3777e-09
9.94256e-10
1.04402e-09
1.44899e-09
1.90129e-09
2.28976e-09
2.51412e-09
2.51415e-09
2.28984e-09
1.90141e-09
1.44911e-09
1.04414e-09
1.00238e-09
1.38991e-09
1.82391e-09
2.1974e-09
2.41338e-09
2.41343e-09
2.19754e-09
1.82411e-09
1.39014e-09
1.00259e-09
1.0157e-09
1.40899e-09
1.84906e-09
2.22753e-09
2.44633e-09
2.44642e-09
2.22777e-09
1.84939e-09
1.40936e-09
1.01605e-09
1.00493e-09
1.39372e-09
1.82907e-09
2.20369e-09
2.42034e-09
2.42046e-09
2.20404e-09
1.82957e-09
1.39428e-09
1.00545e-09
1.00842e-09
1.39875e-09
1.83573e-09
2.21171e-09
2.42916e-09
2.42934e-09
2.21221e-09
1.83646e-09
1.39956e-09
1.00918e-09
1.00557e-09
1.39475e-09
1.83054e-09
2.20556e-09
2.42251e-09
2.42275e-09
2.20624e-09
1.83151e-09
1.39584e-09
1.0066e-09
1.00643e-09
1.39603e-09
1.83229e-09
2.20772e-09
2.42494e-09
2.42524e-09
2.20858e-09
1.83352e-09
1.39741e-09
1.00773e-09
1.00563e-09
1.39494e-09
1.83091e-09
2.20613e-09
2.42326e-09
2.42362e-09
2.20714e-09
1.83235e-09
1.39655e-09
1.00714e-09
1.00583e-09
1.39524e-09
1.83133e-09
2.20668e-09
2.42389e-09
2.42428e-09
2.20777e-09
1.83289e-09
1.39696e-09
1.00743e-09
1.00562e-09
1.39494e-09
1.83094e-09
2.2062e-09
2.42337e-09
2.42376e-09
2.20728e-09
1.83246e-09
1.39661e-09
1.00717e-09
1.00572e-09
1.39504e-09
1.83103e-09
2.20627e-09
2.42341e-09
2.42376e-09
2.20723e-09
1.83238e-09
1.3965e-09
1.00706e-09
1.00573e-09
1.39501e-09
1.83092e-09
2.20608e-09
2.42313e-09
2.42341e-09
2.20684e-09
1.83199e-09
1.39615e-09
1.00676e-09
1.00583e-09
1.39509e-09
1.83095e-09
2.20603e-09
2.42299e-09
2.42318e-09
2.20655e-09
1.83167e-09
1.39584e-09
1.0065e-09
1.00588e-09
1.39511e-09
1.83092e-09
2.20591e-09
2.42277e-09
2.42287e-09
2.20619e-09
1.83129e-09
1.39549e-09
1.00621e-09
1.00593e-09
1.39514e-09
1.8309e-09
2.20582e-09
2.42259e-09
2.4226e-09
2.20586e-09
1.83095e-09
1.39518e-09
1.00596e-09
1.00597e-09
1.39515e-09
1.83085e-09
2.2057e-09
2.42238e-09
2.42233e-09
2.20554e-09
1.83062e-09
1.39489e-09
1.00572e-09
1.00601e-09
1.39517e-09
1.83083e-09
2.20561e-09
2.42221e-09
2.42209e-09
2.20527e-09
1.83034e-09
1.39463e-09
1.00551e-09
1.00608e-09
1.39522e-09
1.83083e-09
2.20555e-09
2.42209e-09
2.42191e-09
2.20504e-09
1.83011e-09
1.39442e-09
1.00533e-09
1.00615e-09
1.39528e-09
1.83086e-09
2.20553e-09
2.42202e-09
2.42178e-09
2.20488e-09
1.82993e-09
1.39425e-09
1.00518e-09
1.00619e-09
1.39531e-09
1.83088e-09
2.20552e-09
2.42196e-09
2.42169e-09
2.20476e-09
1.8298e-09
1.39411e-09
1.00506e-09
1.00617e-09
1.39527e-09
1.83082e-09
2.20545e-09
2.42188e-09
2.42159e-09
2.20465e-09
1.82969e-09
1.39401e-09
1.00497e-09
1.00606e-09
1.39514e-09
1.83067e-09
2.20529e-09
2.42173e-09
2.42146e-09
2.20454e-09
1.82959e-09
1.39393e-09
1.00492e-09
1.0059e-09
1.39494e-09
1.83045e-09
2.20508e-09
2.42154e-09
2.42132e-09
2.20445e-09
1.82955e-09
1.39394e-09
1.00495e-09
1.00576e-09
1.39477e-09
1.83027e-09
2.20492e-09
2.42144e-09
2.42129e-09
2.20451e-09
1.82969e-09
1.39412e-09
1.00513e-09
1.00568e-09
1.39472e-09
1.83026e-09
2.20497e-09
2.42159e-09
2.42155e-09
2.20489e-09
1.83015e-09
1.3946e-09
1.00557e-09
1.00569e-09
1.39481e-09
1.83047e-09
2.20533e-09
2.42211e-09
2.42225e-09
2.20571e-09
1.83103e-09
1.39545e-09
1.00631e-09
1.00575e-09
1.39503e-09
1.8309e-09
2.206e-09
2.42303e-09
2.42337e-09
2.20696e-09
1.8323e-09
1.39663e-09
1.00729e-09
1.00583e-09
1.3953e-09
1.83144e-09
2.20685e-09
2.42416e-09
2.42472e-09
2.20841e-09
1.83371e-09
1.39788e-09
1.0083e-09
1.00591e-09
1.39554e-09
1.83194e-09
2.20763e-09
2.4252e-09
2.42593e-09
2.20967e-09
1.83488e-09
1.39885e-09
1.00905e-09
1.00598e-09
1.3957e-09
1.83225e-09
2.2081e-09
2.42582e-09
2.42661e-09
2.21031e-09
1.83539e-09
1.3992e-09
1.00925e-09
1.00604e-09
1.39574e-09
1.83227e-09
2.20811e-09
2.42579e-09
2.4265e-09
2.21007e-09
1.83502e-09
1.39874e-09
1.0088e-09
1.00606e-09
1.39565e-09
1.83199e-09
2.20763e-09
2.42509e-09
2.42558e-09
2.20898e-09
1.83385e-09
1.39759e-09
1.0078e-09
1.00605e-09
1.39545e-09
1.83151e-09
2.20681e-09
2.42392e-09
2.42413e-09
2.20736e-09
1.83221e-09
1.39609e-09
1.00656e-09
1.00602e-09
1.39523e-09
1.83098e-09
2.20592e-09
2.42267e-09
2.42261e-09
2.20571e-09
1.83061e-09
1.39469e-09
1.00544e-09
1.00604e-09
1.3951e-09
1.83061e-09
2.20527e-09
2.42175e-09
2.42151e-09
2.20457e-09
1.82956e-09
1.39383e-09
1.00479e-09
1.00619e-09
1.39522e-09
1.83063e-09
2.20516e-09
2.42154e-09
2.42127e-09
2.20439e-09
1.82949e-09
1.39389e-09
1.00492e-09
1.00661e-09
1.3958e-09
1.83132e-09
2.20597e-09
2.42251e-09
2.42243e-09
2.20573e-09
1.83096e-09
1.39537e-09
1.00624e-09
1.00731e-09
1.39693e-09
1.83291e-09
2.20809e-09
2.42517e-09
2.4256e-09
2.20929e-09
1.83467e-09
1.39888e-09
1.00926e-09
1.00794e-09
1.39833e-09
1.8353e-09
2.21161e-09
2.42986e-09
2.43132e-09
2.21569e-09
1.84123e-09
1.40499e-09
1.01443e-09
1.00769e-09
1.39921e-09
1.83783e-09
2.21613e-09
2.43643e-09
2.43964e-09
2.2251e-09
1.85085e-09
1.41388e-09
1.02188e-09
1.00491e-09
1.39763e-09
1.83854e-09
2.21985e-09
2.44339e-09
2.4494e-09
2.23668e-09
1.86294e-09
1.42513e-09
1.03137e-09
9.98589e-10
1.39235e-09
1.83604e-09
2.22138e-09
2.44939e-09
2.45936e-09
2.24929e-09
1.87649e-09
1.43795e-09
1.04226e-09
9.86317e-10
1.37983e-09
1.82567e-09
2.21533e-09
2.44895e-09
2.46448e-09
2.25877e-09
1.88834e-09
1.45009e-09
1.05311e-09
9.74988e-10
1.36824e-09
1.81613e-09
2.20989e-09
2.44874e-09
2.46931e-09
2.26738e-09
1.89883e-09
1.46068e-09
1.06243e-09
9.50518e-10
1.33878e-09
1.78448e-09
2.18055e-09
2.42562e-09
2.45475e-09
2.26144e-09
1.89961e-09
1.46554e-09
1.06882e-09
3.17327e-09
4.55003e-09
5.99778e-09
7.1845e-09
7.85304e-09
7.85304e-09
7.1845e-09
5.99778e-09
4.55003e-09
3.17327e-09
1.87208e-09
2.6322e-09
3.46483e-09
4.16539e-09
4.56593e-09
4.56593e-09
4.16539e-09
3.46483e-09
2.63221e-09
1.87209e-09
9.8253e-10
1.36005e-09
1.78335e-09
2.14882e-09
2.36024e-09
2.36024e-09
2.14882e-09
1.78335e-09
1.36005e-09
9.82535e-10
1.15787e-09
1.60983e-09
2.11108e-09
2.53954e-09
2.78622e-09
2.78623e-09
2.53955e-09
2.1111e-09
1.60984e-09
1.15788e-09
9.94165e-10
1.37759e-09
1.80709e-09
2.17679e-09
2.39054e-09
2.39055e-09
2.17681e-09
1.80712e-09
1.37762e-09
9.9419e-10
1.04396e-09
1.4489e-09
1.90118e-09
2.28963e-09
2.51397e-09
2.51398e-09
2.28966e-09
1.90123e-09
1.44896e-09
1.04401e-09
1.00227e-09
1.38976e-09
1.82372e-09
2.19716e-09
2.4131e-09
2.41312e-09
2.19723e-09
1.82381e-09
1.38986e-09
1.00236e-09
1.01552e-09
1.40873e-09
1.84872e-09
2.22712e-09
2.44586e-09
2.4459e-09
2.22723e-09
1.84887e-09
1.4089e-09
1.01568e-09
1.00464e-09
1.39331e-09
1.82853e-09
2.20303e-09
2.41959e-09
2.41964e-09
2.2032e-09
1.82877e-09
1.39357e-09
1.00488e-09
1.00801e-09
1.39816e-09
1.83495e-09
2.21075e-09
2.42804e-09
2.42812e-09
2.21097e-09
1.83527e-09
1.39852e-09
1.00835e-09
1.00504e-09
1.39397e-09
1.82949e-09
2.20425e-09
2.42097e-09
2.42107e-09
2.20452e-09
1.82989e-09
1.39442e-09
1.00547e-09
1.00583e-09
1.39512e-09
1.831e-09
2.20608e-09
2.42298e-09
2.42309e-09
2.20638e-09
1.83144e-09
1.39561e-09
1.00631e-09
1.00503e-09
1.39397e-09
1.82949e-09
2.20425e-09
2.42098e-09
2.42108e-09
2.20454e-09
1.82991e-09
1.39445e-09
1.00549e-09
1.0053e-09
1.39433e-09
1.82993e-09
2.20474e-09
2.42148e-09
2.42157e-09
2.20498e-09
1.83027e-09
1.39472e-09
1.00568e-09
1.00524e-09
1.39421e-09
1.82971e-09
2.20442e-09
2.42109e-09
2.42115e-09
2.20457e-09
1.82992e-09
1.39445e-09
1.00549e-09
1.00552e-09
1.39456e-09
1.83011e-09
2.20485e-09
2.42151e-09
2.42152e-09
2.2049e-09
1.83018e-09
1.39464e-09
1.00561e-09
1.00571e-09
1.3948e-09
1.83038e-09
2.20513e-09
2.42177e-09
2.42175e-09
2.20508e-09
1.83031e-09
1.39473e-09
1.00566e-09
1.00596e-09
1.39512e-09
1.83078e-09
2.20558e-09
2.42223e-09
2.42219e-09
2.20545e-09
1.8306e-09
1.39493e-09
1.00579e-09
1.00611e-09
1.39534e-09
1.83106e-09
2.2059e-09
2.42257e-09
2.42251e-09
2.20572e-09
1.83081e-09
1.39507e-09
1.00588e-09
1.00624e-09
1.39551e-09
1.83128e-09
2.20616e-09
2.42285e-09
2.42278e-09
2.20596e-09
1.83099e-09
1.39519e-09
1.00595e-09
1.00634e-09
1.39563e-09
1.83143e-09
2.20633e-09
2.42303e-09
2.42295e-09
2.20611e-09
1.83111e-09
1.39528e-09
1.00601e-09
1.00646e-09
1.39578e-09
1.8316e-09
2.20651e-09
2.42321e-09
2.42312e-09
2.20626e-09
1.83123e-09
1.39537e-09
1.00607e-09
1.00662e-09
1.39598e-09
1.83181e-09
2.20674e-09
2.42343e-09
2.42333e-09
2.20644e-09
1.83139e-09
1.39549e-09
1.00616e-09
1.00681e-09
1.39622e-09
1.8321e-09
2.20704e-09
2.42373e-09
2.4236e-09
2.20667e-09
1.83158e-09
1.39563e-09
1.00625e-09
1.00701e-09
1.39648e-09
1.8324e-09
2.20736e-09
2.42405e-09
2.42388e-09
2.20691e-09
1.83175e-09
1.39574e-09
1.00631e-09
1.00719e-09
1.39671e-09
1.83267e-09
2.20765e-09
2.42432e-09
2.42411e-09
2.20707e-09
1.83184e-09
1.39577e-09
1.00631e-09
1.00731e-09
1.39686e-09
1.83284e-09
2.20782e-09
2.42446e-09
2.4242e-09
2.2071e-09
1.83181e-09
1.3957e-09
1.00622e-09
1.00731e-09
1.39684e-09
1.83282e-09
2.20778e-09
2.42441e-09
2.42412e-09
2.20698e-09
1.83166e-09
1.39554e-09
1.00607e-09
1.00709e-09
1.39658e-09
1.83253e-09
2.20748e-09
2.42411e-09
2.42383e-09
2.20671e-09
1.83142e-09
1.39534e-09
1.00591e-09
1.0066e-09
1.39599e-09
1.83189e-09
2.20685e-09
2.42352e-09
2.42332e-09
2.2063e-09
1.83111e-09
1.39513e-09
1.00579e-09
1.00583e-09
1.39508e-09
1.8309e-09
2.20586e-09
2.42262e-09
2.42256e-09
2.20572e-09
1.83071e-09
1.3949e-09
1.0057e-09
1.0049e-09
1.39395e-09
1.82966e-09
2.20462e-09
2.42147e-09
2.4216e-09
2.20499e-09
1.83024e-09
1.39466e-09
1.00562e-09
1.00402e-09
1.39286e-09
1.82842e-09
2.20332e-09
2.42025e-09
2.42057e-09
2.20422e-09
1.82974e-09
1.39441e-09
1.00555e-09
1.00343e-09
1.39209e-09
1.82748e-09
2.20231e-09
2.41927e-09
2.41972e-09
2.20359e-09
1.82935e-09
1.39423e-09
1.00551e-09
1.00331e-09
1.39188e-09
1.82715e-09
2.20188e-09
2.41882e-09
2.41932e-09
2.20331e-09
1.82921e-09
1.39421e-09
1.00555e-09
1.00376e-09
1.39236e-09
1.82759e-09
2.20225e-09
2.41911e-09
2.41958e-09
2.20354e-09
1.82942e-09
1.39438e-09
1.00567e-09
1.00467e-09
1.39344e-09
1.82874e-09
2.20338e-09
2.42015e-09
2.42047e-09
2.20426e-09
1.82995e-09
1.39471e-09
1.00584e-09
1.0058e-09
1.39481e-09
1.83028e-09
2.20496e-09
2.42163e-09
2.42175e-09
2.20525e-09
1.83063e-09
1.3951e-09
1.00601e-09
1.00674e-09
1.39602e-09
1.83169e-09
2.20646e-09
2.42308e-09
2.42301e-09
2.20622e-09
1.83128e-09
1.39544e-09
1.00614e-09
1.00709e-09
1.39651e-09
1.83238e-09
2.20729e-09
2.42396e-09
2.42382e-09
2.20687e-09
1.83172e-09
1.39569e-09
1.00625e-09
1.00632e-09
1.39571e-09
1.83169e-09
2.20681e-09
2.42372e-09
2.42379e-09
2.20697e-09
1.83189e-09
1.39586e-09
1.0064e-09
1.0039e-09
1.39296e-09
1.82895e-09
2.2044e-09
2.42185e-09
2.42253e-09
2.20631e-09
1.83171e-09
1.39599e-09
1.00669e-09
9.99462e-10
1.38781e-09
1.82363e-09
2.19948e-09
2.41778e-09
2.41958e-09
2.20449e-09
1.83089e-09
1.39589e-09
1.00702e-09
9.93024e-10
1.38018e-09
1.81551e-09
2.19166e-09
2.41098e-09
2.41425e-09
2.20083e-09
1.82877e-09
1.395e-09
1.00696e-09
9.85e-10
1.37041e-09
1.80473e-09
2.1808e-09
2.40097e-09
2.40582e-09
2.19436e-09
1.82429e-09
1.39231e-09
1.00566e-09
9.76329e-10
1.35932e-09
1.79178e-09
2.16684e-09
2.3871e-09
2.39301e-09
2.18337e-09
1.81553e-09
1.38592e-09
1.00147e-09
9.68195e-10
1.34828e-09
1.77795e-09
2.15088e-09
2.37005e-09
2.37606e-09
2.16762e-09
1.80188e-09
1.37501e-09
9.93528e-10
9.61926e-10
1.33839e-09
1.76375e-09
2.13246e-09
2.34828e-09
2.35248e-09
2.14414e-09
1.78036e-09
1.35696e-09
9.79734e-10
9.58041e-10
1.33184e-09
1.75365e-09
2.11873e-09
2.33141e-09
2.33362e-09
2.12481e-09
1.76215e-09
1.34127e-09
9.6738e-10
9.57032e-10
1.32633e-09
1.74072e-09
2.09736e-09
2.30201e-09
2.29867e-09
2.08786e-09
1.72706e-09
1.31085e-09
9.43256e-10
3.17327e-09
4.55003e-09
5.99778e-09
7.1845e-09
7.85304e-09
7.85304e-09
7.1845e-09
5.99778e-09
4.55003e-09
3.17327e-09
1.87209e-09
2.63221e-09
3.46484e-09
4.1654e-09
4.56593e-09
4.56593e-09
4.16539e-09
3.46483e-09
2.6322e-09
1.87208e-09
9.82542e-10
1.36006e-09
1.78336e-09
2.14883e-09
2.36025e-09
2.36025e-09
2.14882e-09
1.78335e-09
1.36005e-09
9.8253e-10
1.1579e-09
1.60986e-09
2.11112e-09
2.53957e-09
2.78624e-09
2.78624e-09
2.53955e-09
2.11109e-09
1.60983e-09
1.15787e-09
9.94227e-10
1.37766e-09
1.80716e-09
2.17685e-09
2.39059e-09
2.39057e-09
2.17681e-09
1.8071e-09
1.3776e-09
9.94166e-10
1.04408e-09
1.44904e-09
1.90132e-09
2.28975e-09
2.51405e-09
2.51403e-09
2.28967e-09
1.9012e-09
1.44892e-09
1.04397e-09
1.00248e-09
1.39001e-09
1.82396e-09
2.19737e-09
2.41325e-09
2.4132e-09
2.19723e-09
1.82376e-09
1.38979e-09
1.00228e-09
1.01587e-09
1.40913e-09
1.84912e-09
2.22746e-09
2.4461e-09
2.44602e-09
2.22724e-09
1.84879e-09
1.40877e-09
1.01553e-09
1.00516e-09
1.3939e-09
1.82912e-09
2.20354e-09
2.41995e-09
2.41983e-09
2.2032e-09
1.82864e-09
1.39337e-09
1.00465e-09
1.00872e-09
1.39897e-09
1.83575e-09
2.21144e-09
2.42854e-09
2.42837e-09
2.21098e-09
1.83509e-09
1.39823e-09
1.00803e-09
1.00594e-09
1.39499e-09
1.83051e-09
2.20514e-09
2.42161e-09
2.4214e-09
2.20456e-09
1.82968e-09
1.39407e-09
1.00506e-09
1.00688e-09
1.3963e-09
1.83221e-09
2.20714e-09
2.42377e-09
2.42353e-09
2.20647e-09
1.83125e-09
1.39524e-09
1.00586e-09
1.00614e-09
1.39524e-09
1.83079e-09
2.20543e-09
2.42189e-09
2.42163e-09
2.20472e-09
1.82978e-09
1.39412e-09
1.00507e-09
1.00635e-09
1.39555e-09
1.83121e-09
2.20594e-09
2.42245e-09
2.42221e-09
2.20527e-09
1.83026e-09
1.39449e-09
1.00535e-09
1.00611e-09
1.39524e-09
1.83083e-09
2.20551e-09
2.42202e-09
2.42182e-09
2.20496e-09
1.83004e-09
1.39437e-09
1.00529e-09
1.00612e-09
1.39528e-09
1.83094e-09
2.2057e-09
2.42229e-09
2.42214e-09
2.20531e-09
1.8304e-09
1.3947e-09
1.00556e-09
1.00601e-09
1.39518e-09
1.83086e-09
2.20567e-09
2.42232e-09
2.42224e-09
2.20547e-09
1.83059e-09
1.3949e-09
1.00574e-09
1.00601e-09
1.39522e-09
1.83095e-09
2.20582e-09
2.42254e-09
2.42253e-09
2.20578e-09
1.8309e-09
1.39518e-09
1.00597e-09
1.00604e-09
1.39527e-09
1.83104e-09
2.20595e-09
2.42271e-09
2.42273e-09
2.20601e-09
1.83112e-09
1.39536e-09
1.00612e-09
1.00613e-09
1.3954e-09
1.8312e-09
2.20615e-09
2.42294e-09
2.42298e-09
2.20625e-09
1.83133e-09
1.39554e-09
1.00625e-09
1.00622e-09
1.39552e-09
1.83136e-09
2.20635e-09
2.42316e-09
2.4232e-09
2.20645e-09
1.83151e-09
1.39568e-09
1.00636e-09
1.00626e-09
1.3956e-09
1.83148e-09
2.20651e-09
2.42335e-09
2.42341e-09
2.20666e-09
1.8317e-09
1.39584e-09
1.00648e-09
1.00622e-09
1.39559e-09
1.83151e-09
2.20659e-09
2.42348e-09
2.42358e-09
2.20686e-09
1.83189e-09
1.39601e-09
1.00663e-09
1.00612e-09
1.3955e-09
1.83146e-09
2.20659e-09
2.42355e-09
2.42371e-09
2.20703e-09
1.83209e-09
1.39621e-09
1.00681e-09
1.00601e-09
1.39539e-09
1.83137e-09
2.20655e-09
2.42358e-09
2.42381e-09
2.20719e-09
1.83228e-09
1.39641e-09
1.00699e-09
1.00596e-09
1.39533e-09
1.83133e-09
2.20655e-09
2.42363e-09
2.42392e-09
2.20735e-09
1.83248e-09
1.39661e-09
1.00716e-09
1.00599e-09
1.39538e-09
1.83139e-09
2.20663e-09
2.42374e-09
2.42406e-09
2.20751e-09
1.83265e-09
1.39676e-09
1.00728e-09
1.0061e-09
1.39551e-09
1.83155e-09
2.20679e-09
2.4239e-09
2.4242e-09
2.20763e-09
1.83272e-09
1.3968e-09
1.0073e-09
1.00625e-09
1.39568e-09
1.83172e-09
2.20694e-09
2.42399e-09
2.42421e-09
2.20756e-09
1.83258e-09
1.39661e-09
1.0071e-09
1.00637e-09
1.39579e-09
1.83178e-09
2.20692e-09
2.42385e-09
2.42394e-09
2.20715e-09
1.83208e-09
1.39609e-09
1.00663e-09
1.00639e-09
1.39573e-09
1.83162e-09
2.20661e-09
2.42336e-09
2.42326e-09
2.20632e-09
1.83118e-09
1.39521e-09
1.00586e-09
1.00629e-09
1.39549e-09
1.83119e-09
2.20596e-09
2.42249e-09
2.42219e-09
2.20512e-09
1.82996e-09
1.39409e-09
1.00493e-09
1.00609e-09
1.39512e-09
1.83058e-09
2.2051e-09
2.42139e-09
2.42092e-09
2.20379e-09
1.82869e-09
1.39298e-09
1.00405e-09
1.00588e-09
1.39473e-09
1.82997e-09
2.20426e-09
2.42036e-09
2.41979e-09
2.20268e-09
1.8277e-09
1.39219e-09
1.00345e-09
1.00572e-09
1.39446e-09
1.82955e-09
2.20371e-09
2.41972e-09
2.41915e-09
2.20213e-09
1.8273e-09
1.39196e-09
1.00333e-09
1.00568e-09
1.39441e-09
1.82949e-09
2.20365e-09
2.41971e-09
2.41924e-09
2.20235e-09
1.82767e-09
1.3924e-09
1.00377e-09
1.00573e-09
1.39457e-09
1.8298e-09
2.20412e-09
2.42036e-09
2.42007e-09
2.20334e-09
1.82873e-09
1.39344e-09
1.00467e-09
1.00587e-09
1.3949e-09
1.83038e-09
2.20498e-09
2.4215e-09
2.42143e-09
2.20482e-09
1.8302e-09
1.39477e-09
1.00579e-09
1.00606e-09
1.39531e-09
1.83108e-09
2.20598e-09
2.42276e-09
2.42286e-09
2.20629e-09
1.83158e-09
1.39596e-09
1.00673e-09
1.00636e-09
1.39578e-09
1.83176e-09
2.20684e-09
2.42374e-09
2.42385e-09
2.20718e-09
1.83229e-09
1.39646e-09
1.00707e-09
1.00683e-09
1.39632e-09
1.83233e-09
2.20733e-09
2.42403e-09
2.42386e-09
2.20686e-09
1.83169e-09
1.3957e-09
1.00631e-09
1.00748e-09
1.39688e-09
1.83262e-09
2.20712e-09
2.42317e-09
2.42227e-09
2.20463e-09
1.82904e-09
1.39298e-09
1.0039e-09
1.00819e-09
1.39724e-09
1.8323e-09
2.2058e-09
2.42062e-09
2.41848e-09
2.19984e-09
1.82374e-09
1.38782e-09
9.99446e-10
1.00892e-09
1.39733e-09
1.83127e-09
2.2032e-09
2.41619e-09
2.41228e-09
2.19235e-09
1.81573e-09
1.38022e-09
9.92991e-10
1.00989e-09
1.39743e-09
1.82984e-09
2.19967e-09
2.41026e-09
2.40416e-09
2.18272e-09
1.80563e-09
1.37079e-09
9.85039e-10
1.01204e-09
1.39876e-09
1.82946e-09
2.19683e-09
2.40463e-09
2.39597e-09
2.1728e-09
1.79516e-09
1.361e-09
9.76728e-10
1.01559e-09
1.40165e-09
1.83067e-09
2.19554e-09
2.40046e-09
2.38922e-09
2.16432e-09
1.78611e-09
1.35248e-09
9.69384e-10
1.02276e-09
1.40918e-09
1.83739e-09
2.20028e-09
2.40245e-09
2.38836e-09
2.16114e-09
1.78154e-09
1.34746e-09
9.64505e-10
1.02798e-09
1.41438e-09
1.84172e-09
2.20304e-09
2.40333e-09
2.38753e-09
2.15913e-09
1.77901e-09
1.34481e-09
9.61979e-10
1.04394e-09
1.43361e-09
1.86288e-09
2.22424e-09
2.42256e-09
2.40343e-09
2.17105e-09
1.78722e-09
1.34958e-09
9.64333e-10
)
;
    }
    inlet
    {
        type            calculated;
        value           uniform 0;
    }
    outlet
    {
        type            calculated;
        value           uniform 0;
    }
}


// ************************************************************************* //
