/*--------------------------------*- C++ -*----------------------------------*\
| =========                 |                                                 |
| \\      /  F ield         | OpenFOAM: The Open Source CFD Toolbox           |
|  \\    /   O peration     | Version:  2406                                  |
|   \\  /    A nd           | Website:  www.openfoam.com                      |
|    \\/     M anipulation  |                                                 |
\*---------------------------------------------------------------------------*/
FoamFile
{
    version     2.0;
    format      ascii;
    arch        "LSB;label=32;scalar=64";
    class       volScalarField;
    location    "1.4";
    object      turbulenceProperties:nuEff;
}
// * * * * * * * * * * * * * * * * * * * * * * * * * * * * * * * * * * * * * //

dimensions      [0 2 -1 0 0 0 0];

internalField   nonuniform List<scalar> 
25000
(
0.00649252
0.00656621
0.00659827
0.0066045
0.00660263
0.00660263
0.0066045
0.00659827
0.00656621
0.00649252
0.00656621
0.00659262
0.00658044
0.00656683
0.00655948
0.00655948
0.00656683
0.00658044
0.00659262
0.00656621
0.00659827
0.00658044
0.00655571
0.00654081
0.00653481
0.00653481
0.00654081
0.00655571
0.00658044
0.00659827
0.0066045
0.00656683
0.00654081
0.00652904
0.00652556
0.00652556
0.00652904
0.00654081
0.00656683
0.0066045
0.00660263
0.00655948
0.00653481
0.00652556
0.00652371
0.00652371
0.00652556
0.00653481
0.00655948
0.00660263
0.00660263
0.00655948
0.00653481
0.00652556
0.00652371
0.00652371
0.00652556
0.00653481
0.00655948
0.00660263
0.0066045
0.00656683
0.00654081
0.00652905
0.00652556
0.00652556
0.00652904
0.00654081
0.00656683
0.0066045
0.00659827
0.00658044
0.00655571
0.00654081
0.00653481
0.00653481
0.00654081
0.00655571
0.00658044
0.00659827
0.00656621
0.00659262
0.00658044
0.00656683
0.00655948
0.00655948
0.00656683
0.00658044
0.00659262
0.00656621
0.00649252
0.00656621
0.00659827
0.0066045
0.00660263
0.00660263
0.0066045
0.00659827
0.00656621
0.00649252
0.00616049
0.00633619
0.0065502
0.00671907
0.00680784
0.00680784
0.00671907
0.0065502
0.00633619
0.00616049
0.00633619
0.00671079
0.00697555
0.00708518
0.00711329
0.00711328
0.00708518
0.00697555
0.00671079
0.00633619
0.0065502
0.00697555
0.00713289
0.00711484
0.00708405
0.00708405
0.00711484
0.00713288
0.00697555
0.0065502
0.00671907
0.00708518
0.00711484
0.00704193
0.00699708
0.00699708
0.00704193
0.00711484
0.00708518
0.00671908
0.00680784
0.00711329
0.00708405
0.00699708
0.00695034
0.00695034
0.00699707
0.00708405
0.00711328
0.00680784
0.00680784
0.00711329
0.00708405
0.00699708
0.00695034
0.00695034
0.00699708
0.00708405
0.00711328
0.00680784
0.00671907
0.00708518
0.00711484
0.00704193
0.00699708
0.00699708
0.00704193
0.00711484
0.00708518
0.00671907
0.0065502
0.00697555
0.00713289
0.00711484
0.00708405
0.00708405
0.00711484
0.00713289
0.00697555
0.0065502
0.00633619
0.00671078
0.00697555
0.00708518
0.00711329
0.00711329
0.00708518
0.00697555
0.00671079
0.00633619
0.00616049
0.00633619
0.0065502
0.00671907
0.00680784
0.00680784
0.00671907
0.0065502
0.00633619
0.00616049
0.00583445
0.00590606
0.00604069
0.00616694
0.00624291
0.00624291
0.00616694
0.00604069
0.00590607
0.00583445
0.00590606
0.00614407
0.00638753
0.0065824
0.00669195
0.00669195
0.00658241
0.00638754
0.00614408
0.00590607
0.00604068
0.00638753
0.00673522
0.00699949
0.00713422
0.00713423
0.0069995
0.00673522
0.00638754
0.00604069
0.00616694
0.0065824
0.00699949
0.00729502
0.00742075
0.00742075
0.00729502
0.0069995
0.00658241
0.00616694
0.0062429
0.00669194
0.00713422
0.00742074
0.00752182
0.00752182
0.00742075
0.00713423
0.00669195
0.00624291
0.0062429
0.00669194
0.00713422
0.00742074
0.00752182
0.00752182
0.00742075
0.00713423
0.00669195
0.00624291
0.00616694
0.0065824
0.00699949
0.00729501
0.00742074
0.00742075
0.00729502
0.0069995
0.00658241
0.00616694
0.00604068
0.00638753
0.00673521
0.00699949
0.00713422
0.00713422
0.0069995
0.00673522
0.00638753
0.00604069
0.00590606
0.00614407
0.00638753
0.0065824
0.00669194
0.00669194
0.0065824
0.00638753
0.00614407
0.00590607
0.00583444
0.00590606
0.00604068
0.00616694
0.0062429
0.00624291
0.00616694
0.00604069
0.00590607
0.00583445
0.00580626
0.00584229
0.00594492
0.00604708
0.00611054
0.00611055
0.00604708
0.00594494
0.0058423
0.00580627
0.00584229
0.00602295
0.00621809
0.00638578
0.00648731
0.00648732
0.0063858
0.0062181
0.00602297
0.0058423
0.00594492
0.00621808
0.00651391
0.00678205
0.00695492
0.00695492
0.00678206
0.00651393
0.0062181
0.00594494
0.00604707
0.00638578
0.00678204
0.00719901
0.00752513
0.00752514
0.00719903
0.00678207
0.0063858
0.00604709
0.00611054
0.0064873
0.0069549
0.00752511
0.00811338
0.00811342
0.00752515
0.00695493
0.00648732
0.00611055
0.00611054
0.0064873
0.0069549
0.0075251
0.00811337
0.0081134
0.00752515
0.00695493
0.00648732
0.00611055
0.00604707
0.00638577
0.00678203
0.00719899
0.00752511
0.00752513
0.00719902
0.00678206
0.00638579
0.00604708
0.00594492
0.00621808
0.0065139
0.00678203
0.0069549
0.00695491
0.00678205
0.00651392
0.0062181
0.00594493
0.00584229
0.00602295
0.00621808
0.00638578
0.0064873
0.00648731
0.00638579
0.00621809
0.00602296
0.0058423
0.00580626
0.00584228
0.00594492
0.00604707
0.00611054
0.00611054
0.00604708
0.00594493
0.0058423
0.00580627
0.00577344
0.00579397
0.00588199
0.00597269
0.00602997
0.00602997
0.00597271
0.00588201
0.00579399
0.00577346
0.00579397
0.00594858
0.00611954
0.00627015
0.00636374
0.00636375
0.00627017
0.00611957
0.00594861
0.00579399
0.00588199
0.00611954
0.00638183
0.00663064
0.00680116
0.00680117
0.00663067
0.00638187
0.00611957
0.00588202
0.00597268
0.00627014
0.00663063
0.00704466
0.00742161
0.00742164
0.00704472
0.00663068
0.00627018
0.00597271
0.00602995
0.00636372
0.00680113
0.00742156
0.00837488
0.00837502
0.00742166
0.00680119
0.00636376
0.00602998
0.00602995
0.00636372
0.00680112
0.00742154
0.00837481
0.00837496
0.00742164
0.00680118
0.00636376
0.00602998
0.00597268
0.00627013
0.00663061
0.00704464
0.00742156
0.0074216
0.0070447
0.00663066
0.00627017
0.0059727
0.00588198
0.00611952
0.00638181
0.00663062
0.00680113
0.00680115
0.00663065
0.00638185
0.00611956
0.005882
0.00579396
0.00594857
0.00611952
0.00627013
0.00636373
0.00636374
0.00627015
0.00611955
0.0059486
0.00579398
0.00577343
0.00579396
0.00588198
0.00597268
0.00602996
0.00602996
0.0059727
0.005882
0.00579398
0.00577345
0.0057737
0.00578969
0.0058728
0.00595938
0.0060144
0.00601441
0.00595942
0.00587284
0.00578973
0.00577374
0.00578969
0.00593539
0.00609674
0.00623991
0.00632977
0.00632979
0.00623995
0.00609679
0.00593544
0.00578973
0.0058728
0.00609673
0.00634414
0.00658205
0.00674837
0.00674839
0.00658211
0.00634421
0.00609679
0.00587284
0.00595937
0.00623989
0.00658203
0.00698432
0.00736444
0.00736451
0.00698443
0.00658212
0.00623996
0.00595942
0.00601437
0.00632973
0.00674831
0.00736436
0.00839747
0.00839779
0.00736454
0.00674842
0.00632981
0.00601442
0.00601436
0.00632973
0.00674829
0.00736432
0.00839733
0.00839764
0.00736451
0.0067484
0.0063298
0.00601441
0.00595936
0.00623987
0.006582
0.00698428
0.00736436
0.00736443
0.00698438
0.00658209
0.00623994
0.00595941
0.00587278
0.00609671
0.00634411
0.00658201
0.00674832
0.00674834
0.00658207
0.00634418
0.00609677
0.00587283
0.00578967
0.00593537
0.00609671
0.00623988
0.00632974
0.00632976
0.00623992
0.00609677
0.00593542
0.00578971
0.00577368
0.00578967
0.00587278
0.00595936
0.00601437
0.00601439
0.00595939
0.00587282
0.00578971
0.00577373
0.0057659
0.00577919
0.00585988
0.00594455
0.00599851
0.00599853
0.0059446
0.00585996
0.00577927
0.00576597
0.00577919
0.00592062
0.00607789
0.00621782
0.00630596
0.00630599
0.0062179
0.00607798
0.00592071
0.00577927
0.00585988
0.00607788
0.00631901
0.0065518
0.00671556
0.0067156
0.00655191
0.00631913
0.00607799
0.00585996
0.00594453
0.00621779
0.00655177
0.00694715
0.00732473
0.00732485
0.00694733
0.00655192
0.00621791
0.00594461
0.00599846
0.00630588
0.00671545
0.00732458
0.00836977
0.00837033
0.0073249
0.00671564
0.00630601
0.00599854
0.00599845
0.00630587
0.00671543
0.00732453
0.00836951
0.00837007
0.00732484
0.00671562
0.006306
0.00599854
0.0059445
0.00621776
0.00655172
0.00694707
0.00732458
0.0073247
0.00694725
0.00655187
0.00621788
0.00594459
0.00585985
0.00607784
0.00631896
0.00655173
0.00671547
0.00671552
0.00655184
0.00631907
0.00607794
0.00585993
0.00577916
0.00592058
0.00607785
0.00621777
0.0063059
0.00630593
0.00621784
0.00607794
0.00592067
0.00577923
0.00576587
0.00577916
0.00585985
0.00594451
0.00599847
0.00599849
0.00594457
0.00585992
0.00577923
0.00576594
0.0057661
0.00577848
0.00585824
0.00594215
0.00599569
0.00599572
0.00594224
0.00585836
0.00577861
0.00576622
0.00577848
0.00591822
0.00607373
0.00621227
0.00629966
0.00629971
0.00621239
0.00607388
0.00591837
0.0057786
0.00585824
0.00607372
0.00631206
0.00654258
0.00670515
0.00670523
0.00654275
0.00631225
0.00607388
0.00585837
0.00594211
0.00621222
0.00654252
0.00693464
0.00731054
0.00731073
0.00693493
0.00654277
0.00621241
0.00594225
0.00599561
0.00629955
0.00670498
0.0073103
0.00835541
0.00835632
0.00731082
0.00670529
0.00629975
0.00599575
0.0059956
0.00629952
0.00670494
0.00731021
0.00835499
0.00835589
0.00731073
0.00670525
0.00629973
0.00599574
0.00594207
0.00621216
0.00654244
0.0069345
0.0073103
0.00731049
0.00693479
0.00654269
0.00621235
0.00594221
0.00585818
0.00607365
0.00631198
0.00654246
0.00670501
0.00670508
0.00654263
0.00631216
0.00607381
0.00585831
0.00577842
0.00591815
0.00607366
0.00621218
0.00629957
0.00629961
0.0062123
0.0060738
0.0059183
0.00577854
0.00576605
0.00577842
0.00585819
0.00594209
0.00599563
0.00599566
0.00594217
0.0058583
0.00577855
0.00576616
0.00576409
0.00577581
0.00585502
0.00593851
0.00599183
0.00599188
0.00593864
0.0058552
0.005776
0.00576426
0.00577581
0.00591457
0.00606922
0.0062071
0.00629414
0.00629421
0.00620728
0.00606944
0.00591479
0.005776
0.00585501
0.0060692
0.00630626
0.00653572
0.00669772
0.00669784
0.00653599
0.00630655
0.00606945
0.0058552
0.00593845
0.00620701
0.00653563
0.00692616
0.00730108
0.00730138
0.00692662
0.00653602
0.0062073
0.00593866
0.0059917
0.00629396
0.00669746
0.00730071
0.00834442
0.00834582
0.00730151
0.00669793
0.00629428
0.00599192
0.00599168
0.00629393
0.0066974
0.00730057
0.00834375
0.00834514
0.00730136
0.00669787
0.00629424
0.00599189
0.00593839
0.00620693
0.00653551
0.00692595
0.0073007
0.00730099
0.00692639
0.00653588
0.00620721
0.00593859
0.00585492
0.00606909
0.00630613
0.00653554
0.00669749
0.00669761
0.0065358
0.0063064
0.00606934
0.00585511
0.00577572
0.00591447
0.0060691
0.00620696
0.00629399
0.00629406
0.00620713
0.00606931
0.00591468
0.0057759
0.00576401
0.00577572
0.00585493
0.00593841
0.00599172
0.00599177
0.00593853
0.0058551
0.0057759
0.00576417
0.00576415
0.00577565
0.00585463
0.00593794
0.00599118
0.00599125
0.00593813
0.00585488
0.00577591
0.00576439
0.00577565
0.00591399
0.00606822
0.00620579
0.00629268
0.00629278
0.00620604
0.00606854
0.0059143
0.00577591
0.00585461
0.00606819
0.0063046
0.00653356
0.00669532
0.00669549
0.00653394
0.00630502
0.00606855
0.00585489
0.00593786
0.00620566
0.00653343
0.00692321
0.00729774
0.00729818
0.00692387
0.00653398
0.00620608
0.00593816
0.005991
0.00629241
0.00669493
0.0072972
0.00834015
0.0083422
0.00729835
0.00669562
0.00629287
0.0059913
0.00599097
0.00629237
0.00669485
0.00729699
0.00833915
0.00834116
0.00729813
0.00669553
0.00629281
0.00599127
0.00593778
0.00620554
0.00653325
0.0069229
0.00729717
0.00729759
0.00692353
0.00653378
0.00620594
0.00593805
0.0058545
0.00606804
0.00630441
0.0065333
0.00669498
0.00669514
0.00653365
0.00630479
0.00606838
0.00585475
0.00577553
0.00591385
0.00606805
0.00620558
0.00629245
0.00629255
0.00620582
0.00606834
0.00591413
0.00577576
0.00576405
0.00577553
0.0058545
0.0059378
0.00599103
0.00599109
0.00593797
0.00585473
0.00577576
0.00576425
0.00576362
0.00577494
0.00585379
0.00593701
0.00599021
0.0059903
0.00593726
0.00585412
0.00577529
0.00576392
0.00577495
0.00591303
0.00606705
0.00620447
0.0062913
0.00629144
0.00620481
0.00606748
0.00591345
0.00577529
0.00585376
0.006067
0.0063031
0.00653181
0.00669348
0.00669372
0.00653233
0.00630366
0.00606749
0.00585413
0.00593689
0.00620429
0.00653163
0.00692103
0.00729538
0.00729599
0.00692194
0.00653239
0.00620486
0.00593729
0.00598997
0.00629093
0.00669294
0.00729463
0.00833705
0.00833988
0.00729622
0.00669388
0.00629155
0.00599037
0.00598993
0.00629088
0.00669284
0.00729435
0.00833564
0.0083384
0.00729589
0.00669375
0.00629147
0.00599031
0.0059368
0.00620415
0.0065314
0.0069206
0.00729459
0.00729515
0.00692145
0.0065321
0.00620466
0.00593714
0.00585363
0.00606682
0.00630285
0.00653146
0.00669301
0.00669322
0.00653192
0.00630334
0.00606724
0.00585393
0.00577481
0.00591286
0.00606684
0.0062042
0.00629099
0.00629111
0.00620449
0.0060672
0.00591321
0.00577508
0.00576351
0.00577481
0.00585364
0.00593683
0.00599
0.00599008
0.00593703
0.00585391
0.00577509
0.00576374
0.00576363
0.00577488
0.00585368
0.00593686
0.00599006
0.00599017
0.00593717
0.00585408
0.0057753
0.00576398
0.00577489
0.00591286
0.00606678
0.00620412
0.00629095
0.00629112
0.00620456
0.00606731
0.00591338
0.0057753
0.00585364
0.00606671
0.00630264
0.00653124
0.0066929
0.0066932
0.00653191
0.00630336
0.00606733
0.00585409
0.00593672
0.0062039
0.00653101
0.00692021
0.00729455
0.00729534
0.00692139
0.00653198
0.00620462
0.0059372
0.00598976
0.00629049
0.00669221
0.00729358
0.00833576
0.00833944
0.00729563
0.0066934
0.00629125
0.00599025
0.00598972
0.00629042
0.00669208
0.00729322
0.00833391
0.00833746
0.00729519
0.00669323
0.00629115
0.00599018
0.00593662
0.00620374
0.00653073
0.00691968
0.00729352
0.00729423
0.00692074
0.00653159
0.00620436
0.00593702
0.00585351
0.00606652
0.00630235
0.0065308
0.00669229
0.00669255
0.00653137
0.00630294
0.00606701
0.00585384
0.00577477
0.00591269
0.00606654
0.00620381
0.00629056
0.0062907
0.00620415
0.00606695
0.00591307
0.00577504
0.00576353
0.00577476
0.00585352
0.00593666
0.00598981
0.00598989
0.00593688
0.00585381
0.00577505
0.00576376
0.00576348
0.00577468
0.00585344
0.00593661
0.0059898
0.00598993
0.00593695
0.0058539
0.00577515
0.00576385
0.0057747
0.0059126
0.00606645
0.00620377
0.0062906
0.0062908
0.00620427
0.00606707
0.00591318
0.00577514
0.00585341
0.00606638
0.00630222
0.00653076
0.00669244
0.0066928
0.00653157
0.00630306
0.00606709
0.00585391
0.00593645
0.00620351
0.00653049
0.00691959
0.00729395
0.00729491
0.00692102
0.00653164
0.00620434
0.005937
0.00598948
0.00629006
0.00669161
0.00729277
0.00833479
0.00833929
0.00729526
0.00669304
0.00629095
0.00599002
0.00598944
0.00629
0.00669147
0.00729235
0.00833254
0.00833683
0.00729471
0.00669282
0.00629083
0.00598994
0.00593636
0.00620336
0.0065302
0.00691898
0.00729271
0.00729355
0.00692021
0.00653117
0.00620403
0.00593678
0.0058533
0.0060662
0.00630192
0.00653028
0.00669172
0.00669202
0.00653091
0.00630256
0.00606671
0.00585362
0.00577461
0.00591244
0.00606622
0.00620343
0.00629016
0.00629031
0.00620379
0.00606664
0.00591282
0.00577485
0.00576343
0.0057746
0.00585331
0.00593641
0.00598954
0.00598963
0.00593664
0.0058536
0.00577487
0.00576361
0.00576348
0.00577466
0.0058534
0.00593655
0.00598975
0.00598989
0.00593692
0.00585387
0.00577512
0.00576382
0.00577469
0.00591254
0.00606636
0.00620366
0.0062905
0.00629072
0.00620421
0.00606702
0.00591314
0.00577511
0.00585338
0.00606629
0.00630208
0.0065306
0.00669228
0.0066927
0.00653149
0.00630299
0.00606703
0.00585387
0.00593641
0.0062034
0.0065303
0.00691934
0.00729374
0.00729483
0.00692095
0.00653157
0.00620428
0.00593696
0.00598943
0.00628993
0.00669138
0.00729241
0.00833434
0.00833948
0.00729522
0.00669296
0.00629088
0.00598998
0.0059894
0.00628988
0.00669124
0.00729196
0.00833182
0.00833665
0.00729459
0.00669271
0.00629075
0.00598989
0.00593635
0.00620327
0.00653002
0.0069187
0.00729237
0.00729329
0.00692003
0.00653104
0.00620394
0.00593672
0.00585332
0.00606616
0.00630181
0.00653011
0.00669152
0.00669183
0.00653075
0.00630244
0.00606663
0.00585357
0.00577465
0.00591245
0.00606618
0.00620335
0.00629006
0.0062902
0.0062037
0.00606657
0.00591276
0.00577481
0.0057635
0.00577464
0.00585332
0.0059364
0.00598951
0.00598959
0.0059366
0.00585356
0.00577485
0.00576359
0.00576346
0.00577462
0.00585334
0.00593648
0.00598966
0.0059898
0.00593682
0.00585377
0.00577502
0.00576373
0.00577466
0.00591248
0.00606628
0.00620356
0.00629039
0.00629061
0.0062041
0.0060669
0.00591302
0.00577501
0.00585334
0.00606622
0.00630196
0.00653046
0.00669214
0.00669257
0.00653137
0.00630287
0.00606692
0.00585377
0.00593636
0.00620331
0.00653016
0.00691916
0.00729356
0.00729472
0.00692084
0.00653145
0.00620417
0.00593685
0.00598939
0.00628985
0.00669123
0.00729219
0.00833403
0.00833949
0.00729513
0.00669284
0.00629077
0.00598988
0.00598938
0.00628981
0.00669112
0.00729175
0.00833145
0.0083365
0.00729446
0.00669258
0.00629063
0.00598979
0.00593635
0.00620323
0.00652993
0.00691856
0.00729218
0.00729311
0.00691987
0.0065309
0.00620382
0.00593662
0.00585333
0.00606615
0.00630177
0.00653003
0.00669141
0.0066917
0.00653062
0.00630232
0.00606652
0.00585348
0.00577469
0.00591246
0.00606617
0.00620331
0.00628999
0.00629011
0.0062036
0.00606647
0.00591267
0.00577473
0.00576355
0.00577468
0.00585334
0.00593639
0.00598947
0.00598953
0.00593653
0.00585349
0.00577477
0.00576353
0.00576349
0.00577463
0.00585334
0.00593646
0.00598963
0.00598974
0.00593675
0.00585369
0.00577494
0.00576365
0.00577468
0.00591249
0.00606627
0.00620353
0.00629033
0.00629054
0.00620401
0.00606681
0.00591293
0.00577492
0.00585336
0.00606623
0.00630195
0.00653041
0.00669207
0.00669247
0.00653126
0.00630277
0.00606682
0.00585368
0.0059364
0.00620333
0.00653015
0.00691912
0.00729347
0.00729459
0.00692072
0.00653134
0.00620407
0.00593677
0.00598943
0.00628988
0.00669124
0.00729217
0.00833396
0.00833928
0.00729499
0.00669272
0.00629067
0.0059898
0.00598944
0.00628986
0.00669116
0.00729179
0.00833154
0.00833639
0.00729434
0.00669247
0.00629054
0.00598972
0.00593642
0.00620331
0.00652999
0.00691861
0.0072922
0.00729306
0.00691979
0.00653081
0.00620375
0.00593657
0.00585342
0.00606623
0.00630184
0.00653008
0.00669143
0.00669167
0.00653057
0.00630225
0.00606646
0.00585343
0.00577477
0.00591255
0.00606625
0.00620337
0.00629002
0.00629011
0.00620357
0.00606642
0.00591262
0.0057747
0.00576363
0.00577476
0.00585341
0.00593645
0.00598951
0.00598954
0.00593652
0.00585346
0.00577474
0.0057635
0.00576351
0.00577465
0.00585335
0.00593644
0.00598958
0.00598967
0.00593666
0.00585359
0.00577484
0.00576357
0.0057747
0.00591251
0.00606627
0.0062035
0.00629027
0.00629044
0.00620389
0.00606668
0.00591281
0.00577483
0.00585339
0.00606625
0.00630196
0.00653039
0.00669199
0.00669234
0.0065311
0.00630262
0.00606669
0.00585358
0.00593643
0.00620337
0.00653018
0.00691912
0.00729338
0.00729437
0.00692051
0.00653116
0.00620393
0.00593667
0.00598948
0.00628994
0.00669132
0.00729227
0.00833401
0.00833873
0.00729472
0.00669255
0.00629054
0.0059897
0.0059895
0.00628995
0.00669127
0.00729198
0.00833199
0.00833621
0.00729414
0.00669233
0.00629043
0.00598964
0.00593649
0.0062034
0.00653011
0.00691876
0.00729235
0.00729306
0.0069197
0.00653071
0.00620366
0.0059365
0.00585349
0.00606632
0.00630194
0.00653018
0.0066915
0.00669168
0.00653052
0.00630219
0.00606639
0.00585339
0.00577484
0.00591263
0.00606633
0.00620345
0.00629007
0.00629012
0.00620354
0.00606638
0.00591258
0.00577466
0.00576368
0.00577482
0.00585347
0.0059365
0.00598954
0.00598955
0.0059365
0.00585343
0.00577471
0.00576347
0.00576353
0.00577468
0.00585337
0.00593645
0.00598956
0.00598962
0.00593659
0.00585351
0.00577477
0.00576352
0.00577473
0.00591255
0.0060663
0.0062035
0.00629023
0.00629035
0.00620377
0.00606656
0.00591271
0.00577476
0.00585342
0.0060663
0.006302
0.0065304
0.00669192
0.00669219
0.00653093
0.00630246
0.00606656
0.0058535
0.00593648
0.00620344
0.00653026
0.00691918
0.0072933
0.00729408
0.00692024
0.00653097
0.00620379
0.00593658
0.00598954
0.00629004
0.00669146
0.00729248
0.0083342
0.00833792
0.00729436
0.00669234
0.00629041
0.00598963
0.00598957
0.00629006
0.00669145
0.0072923
0.00833275
0.008336
0.00729392
0.00669218
0.00629033
0.00598958
0.00593656
0.00620351
0.00653027
0.00691898
0.00729259
0.00729311
0.00691963
0.00653063
0.0062036
0.00593647
0.00585355
0.00606642
0.00630206
0.00653032
0.00669162
0.00669173
0.00653051
0.00630216
0.00606637
0.00585338
0.00577488
0.0059127
0.00606641
0.00620353
0.00629014
0.00629015
0.00620355
0.00606637
0.00591257
0.00577467
0.0057637
0.00577486
0.00585353
0.00593655
0.00598958
0.00598957
0.00593651
0.00585343
0.00577471
0.00576349
0.00576354
0.0057747
0.00585339
0.00593645
0.00598953
0.00598956
0.00593652
0.00585344
0.00577471
0.00576348
0.00577473
0.00591257
0.00606632
0.0062035
0.00629018
0.00629025
0.00620365
0.00606645
0.00591262
0.0057747
0.00585344
0.00606633
0.00630204
0.00653041
0.00669185
0.00669202
0.00653074
0.0063023
0.00606645
0.00585343
0.00593651
0.0062035
0.00653034
0.00691925
0.00729322
0.00729375
0.00691994
0.00653077
0.00620367
0.00593651
0.00598958
0.00629012
0.00669161
0.00729272
0.00833443
0.00833695
0.00729395
0.00669214
0.0062903
0.00598957
0.00598962
0.00629016
0.00669163
0.00729266
0.00833365
0.00833578
0.00729368
0.00669204
0.00629025
0.00598955
0.0059366
0.00620359
0.00653042
0.00691922
0.00729287
0.00729318
0.00691958
0.00653058
0.00620357
0.00593647
0.00585357
0.00606648
0.00630216
0.00653045
0.00669175
0.00669179
0.00653052
0.00630215
0.00606637
0.0058534
0.00577488
0.00591273
0.00606647
0.0062036
0.0062902
0.00629019
0.00620357
0.00606638
0.00591259
0.0057747
0.00576369
0.00577487
0.00585355
0.00593658
0.00598961
0.00598959
0.00593652
0.00585344
0.00577473
0.00576352
0.00576354
0.00577472
0.0058534
0.00593645
0.00598951
0.00598952
0.00593645
0.00585338
0.00577466
0.00576345
0.00577473
0.00591258
0.00606634
0.0062035
0.00629014
0.00629016
0.00620354
0.00606635
0.00591255
0.00577465
0.00585344
0.00606636
0.00630207
0.00653042
0.00669178
0.00669186
0.00653056
0.00630215
0.00606635
0.00585337
0.00593652
0.00620354
0.00653042
0.00691932
0.00729314
0.00729341
0.00691965
0.00653058
0.00620356
0.00593646
0.0059896
0.00629019
0.00669174
0.00729296
0.00833465
0.00833594
0.00729356
0.00669195
0.0062902
0.00598953
0.00598964
0.00629023
0.00669179
0.00729302
0.00833458
0.00833561
0.00729347
0.00669193
0.00629021
0.00598954
0.00593661
0.00620365
0.00653055
0.00691945
0.00729317
0.00729329
0.00691956
0.00653056
0.00620358
0.00593649
0.00585357
0.00606651
0.00630224
0.00653057
0.00669187
0.00669188
0.00653055
0.00630217
0.0060664
0.00585345
0.00577487
0.00591275
0.00606651
0.00620366
0.00629027
0.00629025
0.00620361
0.00606642
0.00591263
0.00577476
0.00576366
0.00577486
0.00585356
0.00593661
0.00598965
0.00598963
0.00593655
0.00585348
0.00577477
0.00576357
0.00576355
0.00577473
0.00585342
0.00593646
0.00598949
0.00598947
0.00593639
0.00585332
0.00577461
0.00576342
0.00577474
0.0059126
0.00606635
0.0062035
0.0062901
0.00629008
0.00620344
0.00606625
0.00591248
0.00577461
0.00585345
0.00606638
0.0063021
0.00653042
0.00669171
0.0066917
0.00653038
0.00630202
0.00606626
0.00585333
0.00593653
0.00620357
0.00653048
0.00691937
0.00729304
0.00729307
0.00691937
0.00653041
0.00620347
0.00593641
0.00598961
0.00629023
0.00669185
0.00729316
0.00833481
0.008335
0.0072932
0.00669179
0.00629013
0.00598951
0.00598965
0.00629028
0.00669193
0.00729333
0.00833544
0.00833553
0.00729331
0.00669185
0.00629018
0.00598955
0.00593661
0.0062037
0.00653066
0.00691965
0.00729345
0.00729342
0.00691958
0.00653056
0.00620359
0.00593652
0.00585356
0.00606654
0.00630231
0.00653068
0.006692
0.00669197
0.00653061
0.00630221
0.00606644
0.00585349
0.00577486
0.00591275
0.00606654
0.00620372
0.00629033
0.0062903
0.00620366
0.00606646
0.00591268
0.0057748
0.00576365
0.00577486
0.00585357
0.00593663
0.00598967
0.00598966
0.00593658
0.00585351
0.00577481
0.00576361
0.00576357
0.00577476
0.00585344
0.00593647
0.00598948
0.00598943
0.00593634
0.00585327
0.00577457
0.00576339
0.00577476
0.00591262
0.00606637
0.0062035
0.00629006
0.00629
0.00620335
0.00606617
0.00591241
0.00577457
0.00585346
0.0060664
0.00630213
0.00653043
0.00669164
0.00669156
0.00653023
0.0063019
0.00606618
0.00585328
0.00593654
0.00620361
0.00653053
0.00691941
0.00729295
0.00729277
0.00691912
0.00653026
0.00620338
0.00593637
0.00598963
0.00629028
0.00669194
0.00729333
0.00833489
0.00833416
0.00729289
0.00669165
0.00629006
0.00598948
0.00598967
0.00629034
0.00669204
0.0072936
0.00833621
0.00833551
0.00729319
0.00669178
0.00629015
0.00598954
0.00593663
0.00620374
0.00653076
0.00691983
0.00729371
0.00729356
0.0069196
0.00653056
0.00620359
0.00593653
0.00585358
0.00606657
0.00630237
0.00653078
0.00669211
0.00669206
0.00653065
0.00630224
0.00606646
0.00585351
0.00577487
0.00591278
0.00606658
0.00620377
0.00629039
0.00629035
0.00620369
0.00606649
0.0059127
0.00577482
0.00576365
0.00577487
0.00585359
0.00593665
0.0059897
0.00598968
0.0059366
0.00585352
0.00577481
0.00576361
0.0057636
0.0057748
0.00585347
0.00593648
0.00598947
0.00598941
0.0059363
0.00585322
0.00577453
0.00576336
0.00577479
0.00591266
0.0060664
0.00620351
0.00629003
0.00628994
0.00620327
0.0060661
0.00591235
0.00577453
0.0058535
0.00606644
0.00630217
0.00653044
0.00669159
0.00669144
0.00653009
0.00630179
0.0060661
0.00585323
0.00593658
0.00620365
0.00653059
0.00691945
0.00729286
0.0072925
0.0069189
0.00653012
0.00620329
0.00593631
0.00598967
0.00629034
0.00669204
0.00729348
0.00833497
0.00833341
0.0072926
0.00669151
0.00628999
0.00598943
0.00598971
0.0062904
0.00669216
0.00729386
0.00833691
0.00833549
0.00729306
0.00669169
0.0062901
0.00598951
0.00593667
0.00620381
0.00653086
0.00692001
0.00729394
0.00729367
0.0069196
0.00653053
0.00620357
0.00593651
0.00585362
0.00606663
0.00630245
0.00653088
0.00669222
0.00669213
0.00653067
0.00630223
0.00606644
0.00585348
0.0057749
0.00591282
0.00606663
0.00620383
0.00629044
0.00629039
0.0062037
0.00606648
0.00591267
0.00577479
0.00576368
0.0057749
0.00585362
0.00593668
0.00598972
0.00598969
0.00593659
0.0058535
0.00577478
0.00576357
0.00576364
0.00577483
0.00585351
0.00593651
0.00598948
0.00598939
0.00593627
0.00585319
0.0057745
0.00576334
0.00577482
0.0059127
0.00606644
0.00620353
0.00629002
0.00628989
0.00620321
0.00606604
0.0059123
0.00577449
0.00585353
0.00606649
0.00630221
0.00653046
0.00669155
0.00669134
0.00652998
0.00630169
0.00606603
0.00585318
0.00593662
0.00620371
0.00653066
0.00691951
0.0072928
0.00729227
0.0069187
0.00652998
0.0062032
0.00593626
0.00598972
0.00629042
0.00669215
0.00729365
0.00833508
0.00833272
0.00729233
0.00669136
0.0062899
0.00598937
0.00598976
0.00629049
0.0066923
0.00729412
0.00833757
0.00833539
0.00729291
0.00669159
0.00629002
0.00598945
0.00593673
0.0062039
0.00653099
0.00692019
0.00729416
0.00729374
0.00691956
0.00653047
0.00620351
0.00593646
0.00585367
0.0060667
0.00630255
0.00653099
0.00669232
0.00669216
0.00653066
0.00630219
0.00606639
0.00585344
0.00577495
0.00591288
0.0060667
0.00620389
0.00629048
0.0062904
0.00620368
0.00606643
0.00591262
0.00577474
0.00576372
0.00577495
0.00585366
0.00593672
0.00598974
0.00598968
0.00593656
0.00585346
0.00577473
0.00576353
0.00576364
0.00577485
0.00585352
0.00593652
0.00598948
0.00598938
0.00593625
0.00585317
0.00577448
0.00576334
0.00577483
0.00591272
0.00606646
0.00620354
0.00629001
0.00628986
0.00620316
0.00606599
0.00591226
0.00577447
0.00585355
0.00606652
0.00630225
0.00653048
0.00669153
0.00669126
0.00652988
0.00630161
0.00606597
0.00585314
0.00593665
0.00620377
0.00653073
0.00691957
0.00729277
0.00729208
0.00691853
0.00652986
0.00620313
0.00593621
0.00598977
0.00629049
0.00669227
0.00729383
0.00833527
0.0083321
0.00729206
0.00669122
0.00628981
0.00598932
0.00598983
0.00629059
0.00669245
0.00729439
0.00833821
0.00833519
0.00729272
0.00669146
0.00628994
0.0059894
0.0059368
0.00620399
0.00653112
0.00692038
0.00729436
0.00729376
0.00691948
0.00653039
0.00620344
0.00593642
0.00585373
0.00606679
0.00630265
0.0065311
0.0066924
0.00669218
0.00653062
0.00630213
0.00606633
0.0058534
0.00577501
0.00591295
0.00606677
0.00620395
0.00629052
0.0062904
0.00620365
0.00606639
0.00591257
0.00577471
0.00576376
0.005775
0.00585371
0.00593676
0.00598976
0.00598968
0.00593653
0.00585341
0.00577468
0.00576349
0.0057636
0.00577482
0.0058535
0.0059365
0.00598946
0.00598936
0.00593624
0.00585316
0.00577448
0.00576334
0.0057748
0.0059127
0.00606645
0.00620353
0.00628999
0.00628983
0.00620312
0.00606596
0.00591224
0.00577447
0.00585353
0.00606652
0.00630226
0.00653048
0.0066915
0.00669119
0.00652981
0.00630155
0.00606594
0.00585313
0.00593666
0.00620379
0.00653077
0.00691962
0.00729275
0.00729192
0.00691838
0.00652977
0.00620307
0.00593619
0.00598979
0.00629055
0.00669237
0.00729401
0.00833547
0.00833154
0.00729182
0.0066911
0.00628974
0.00598929
0.00598987
0.00629067
0.00669259
0.00729466
0.0083388
0.00833495
0.00729253
0.00669135
0.00628987
0.00598937
0.00593685
0.00620407
0.00653125
0.00692056
0.00729454
0.00729376
0.0069194
0.00653031
0.00620339
0.00593639
0.00585378
0.00606686
0.00630274
0.00653121
0.00669248
0.0066922
0.00653058
0.00630208
0.0060663
0.00585338
0.00577505
0.00591301
0.00606684
0.00620402
0.00629057
0.00629041
0.00620363
0.00606636
0.00591255
0.0057747
0.00576379
0.00577504
0.00585376
0.0059368
0.00598978
0.00598968
0.00593652
0.0058534
0.00577468
0.0057635
0.00576353
0.00577476
0.00585345
0.00593646
0.00598943
0.00598934
0.00593622
0.00585315
0.00577449
0.00576336
0.00577473
0.00591264
0.0060664
0.00620349
0.00628995
0.00628979
0.00620309
0.00606594
0.00591225
0.00577449
0.00585348
0.00606648
0.00630222
0.00653045
0.00669145
0.00669113
0.00652976
0.00630152
0.00606593
0.00585314
0.00593662
0.00620377
0.00653077
0.00691962
0.0072927
0.00729179
0.00691828
0.00652972
0.00620305
0.00593619
0.00598978
0.00629056
0.00669242
0.00729412
0.0083356
0.0083311
0.00729165
0.00669102
0.00628972
0.00598929
0.00598988
0.00629071
0.00669269
0.00729486
0.00833928
0.00833478
0.00729239
0.00669129
0.00628985
0.00598938
0.00593686
0.00620412
0.00653134
0.0069207
0.00729469
0.00729378
0.00691936
0.00653028
0.00620338
0.00593641
0.0058538