/*--------------------------------*- C++ -*----------------------------------*\
| =========                 |                                                 |
| \\      /  F ield         | OpenFOAM: The Open Source CFD Toolbox           |
|  \\    /   O peration     | Version:  2406                                  |
|   \\  /    A nd           | Website:  www.openfoam.com                      |
|    \\/     M anipulation  |                                                 |
\*---------------------------------------------------------------------------*/
FoamFile
{
    version     2.0;
    format      ascii;
    arch        "LSB;label=32;scalar=64";
    class       volVectorField;
    location    "1.4";
    object      U;
}
// * * * * * * * * * * * * * * * * * * * * * * * * * * * * * * * * * * * * * //

dimensions      [0 1 -1 0 0 0 0];

internalField   nonuniform List<vector> 
25000
(
(0.148203 0.148203 1.126)
(0.121741 0.159741 1.15799)
(0.0896822 0.168689 1.17581)
(0.0549323 0.174337 1.18522)
(0.0184804 0.177166 1.18921)
(-0.0184799 0.177166 1.18921)
(-0.0549318 0.174337 1.18522)
(-0.0896817 0.168689 1.17581)
(-0.121741 0.159741 1.15799)
(-0.148203 0.148203 1.126)
(0.159742 0.121741 1.15799)
(0.129921 0.12992 1.18715)
(0.0949524 0.136258 1.19911)
(0.057745 0.140368 1.20344)
(0.0193617 0.142382 1.20465)
(-0.0193612 0.142382 1.20465)
(-0.0577445 0.140368 1.20344)
(-0.0949519 0.136258 1.19911)
(-0.12992 0.12992 1.18715)
(-0.159741 0.121741 1.15799)
(0.16869 0.0896818 1.17581)
(0.136259 0.094952 1.19911)
(0.0990581 0.0990578 1.20625)
(0.0599532 0.101733 1.20696)
(0.0200495 0.10303 1.20625)
(-0.0200491 0.10303 1.20625)
(-0.0599528 0.101733 1.20696)
(-0.0990577 0.0990578 1.20625)
(-0.136258 0.0949521 1.19911)
(-0.168689 0.0896819 1.17581)
(0.174337 0.054932 1.18522)
(0.140368 0.0577447 1.20344)
(0.101733 0.0599529 1.20696)
(0.0613922 0.0613919 1.20524)
(0.0204962 0.062086 1.20331)
(-0.0204957 0.062086 1.20331)
(-0.0613918 0.0613919 1.20524)
(-0.101732 0.0599529 1.20696)
(-0.140368 0.0577447 1.20344)
(-0.174337 0.054932 1.18522)
(0.177166 0.01848 1.18921)
(0.142382 0.0193614 1.20465)
(0.10303 0.0200492 1.20625)
(0.0620863 0.0204958 1.20331)
(0.0207108 0.0207105 1.2008)
(-0.0207104 0.0207105 1.2008)
(-0.0620859 0.0204958 1.20331)
(-0.10303 0.0200492 1.20625)
(-0.142382 0.0193614 1.20465)
(-0.177166 0.01848 1.18921)
(0.177166 -0.0184802 1.18921)
(0.142382 -0.0193616 1.20465)
(0.10303 -0.0200494 1.20625)
(0.0620863 -0.020496 1.20331)
(0.0207108 -0.0207107 1.2008)
(-0.0207104 -0.0207107 1.2008)
(-0.0620859 -0.020496 1.20331)
(-0.10303 -0.0200494 1.20625)
(-0.142382 -0.0193616 1.20465)
(-0.177166 -0.0184802 1.18921)
(0.174337 -0.0549322 1.18522)
(0.140368 -0.0577449 1.20344)
(0.101733 -0.0599531 1.20696)
(0.0613922 -0.0613921 1.20524)
(0.0204961 -0.0620862 1.20331)
(-0.0204957 -0.0620862 1.20331)
(-0.0613918 -0.0613921 1.20524)
(-0.101732 -0.0599531 1.20696)
(-0.140368 -0.0577449 1.20344)
(-0.174337 -0.0549322 1.18522)
(0.16869 -0.089682 1.17581)
(0.136259 -0.0949522 1.19911)
(0.0990581 -0.099058 1.20625)
(0.0599532 -0.101733 1.20696)
(0.0200495 -0.10303 1.20625)
(-0.0200491 -0.10303 1.20625)
(-0.0599528 -0.101733 1.20696)
(-0.0990577 -0.099058 1.20625)
(-0.136258 -0.0949522 1.19911)
(-0.168689 -0.0896821 1.17581)
(0.159742 -0.121741 1.15799)
(0.129921 -0.129921 1.18715)
(0.0949523 -0.136259 1.19911)
(0.057745 -0.140368 1.20344)
(0.0193617 -0.142382 1.20465)
(-0.0193612 -0.142382 1.20465)
(-0.0577445 -0.140368 1.20344)
(-0.0949519 -0.136259 1.19911)
(-0.12992 -0.129921 1.18715)
(-0.159741 -0.121741 1.15799)
(0.148203 -0.148203 1.126)
(0.121741 -0.159741 1.15799)
(0.0896822 -0.168689 1.17581)
(0.0549323 -0.174337 1.18522)
(0.0184804 -0.177166 1.18921)
(-0.0184799 -0.177166 1.18921)
(-0.0549318 -0.174337 1.18522)
(-0.0896817 -0.168689 1.17581)
(-0.121741 -0.159741 1.15799)
(-0.148203 -0.148203 1.126)
(0.0508836 0.0508823 1.26779)
(0.0454882 0.060481 1.35152)
(0.0364065 0.0683816 1.40592)
(0.0233691 0.0742047 1.43821)
(0.00804272 0.0772044 1.45313)
(-0.00804065 0.0772045 1.45313)
(-0.0233671 0.0742048 1.43821)
(-0.0364046 0.0683818 1.40592)
(-0.0454865 0.0604813 1.35152)
(-0.0508822 0.0508827 1.26779)
(0.0604821 0.0454867 1.35152)
(0.0552613 0.05526 1.44013)
(0.0441319 0.0630685 1.48894)
(0.0282265 0.0685337 1.51468)
(0.00968488 0.0713448 1.52575)
(-0.00968301 0.0713448 1.52575)
(-0.0282247 0.0685338 1.51468)
(-0.0441302 0.0630686 1.48894)
(-0.0552598 0.0552603 1.44013)
(-0.0604809 0.0454871 1.35152)
(0.0683826 0.036405 1.40592)
(0.0630696 0.0441306 1.48894)
(0.0501804 0.0501792 1.53198)
(0.0319887 0.0543473 1.553)
(0.0109529 0.0564909 1.56141)
(-0.0109511 0.0564909 1.56141)
(-0.031987 0.0543473 1.553)
(-0.0501788 0.0501793 1.53198)
(-0.0630682 0.0441308 1.48894)
(-0.0683814 0.0364052 1.40592)
(0.0742056 0.0233676 1.43821)
(0.0685347 0.0282252 1.51468)
(0.0543484 0.0319874 1.553)
(0.0345552 0.0345541 1.57058)
(0.0118169 0.0358745 1.57707)
(-0.0118152 0.0358745 1.57707)
(-0.0345536 0.0345541 1.57058)
(-0.0543469 0.0319875 1.553)
(-0.0685334 0.0282252 1.51468)
(-0.0742045 0.0233677 1.43821)
(0.0772052 0.00804121 1.45313)
(0.0713458 0.00968352 1.52575)
(0.056492 0.0109516 1.56141)
(0.0358757 0.0118157 1.57707)
(0.0122632 0.012262 1.58252)
(-0.0122616 0.012262 1.58252)
(-0.0358741 0.0118157 1.57707)
(-0.0564905 0.0109516 1.56141)
(-0.0713445 0.00968353 1.52575)
(-0.0772041 0.00804124 1.45314)
(0.0772052 -0.0080421 1.45313)
(0.0713458 -0.00968433 1.52575)
(0.056492 -0.0109524 1.56141)
(0.0358757 -0.0118164 1.57707)
(0.0122632 -0.0122627 1.58252)
(-0.0122616 -0.0122627 1.58252)
(-0.0358741 -0.0118164 1.57707)
(-0.0564905 -0.0109524 1.56141)
(-0.0713444 -0.00968436 1.52575)
(-0.0772041 -0.00804215 1.45314)
(0.0742055 -0.0233684 1.43821)
(0.0685347 -0.028226 1.51468)
(0.0543484 -0.0319882 1.553)
(0.0345552 -0.0345548 1.57058)
(0.0118169 -0.0358752 1.57707)
(-0.0118152 -0.0358752 1.57707)
(-0.0345536 -0.0345548 1.57058)
(-0.0543469 -0.0319882 1.553)
(-0.0685333 -0.0282261 1.51468)
(-0.0742044 -0.0233686 1.43821)
(0.0683825 -0.0364058 1.40592)
(0.0630695 -0.0441314 1.48894)
(0.0501804 -0.0501799 1.53198)
(0.0319887 -0.054348 1.553)
(0.0109528 -0.0564916 1.56141)
(-0.0109511 -0.0564916 1.56141)
(-0.031987 -0.054348 1.553)
(-0.0501788 -0.05018 1.53198)
(-0.0630681 -0.0441315 1.48894)
(-0.0683813 -0.036406 1.40592)
(0.060482 -0.0454875 1.35152)
(0.0552612 -0.0552607 1.44013)
(0.0441319 -0.0630691 1.48894)
(0.0282265 -0.0685343 1.51468)
(0.00968486 -0.0713454 1.52575)
(-0.009683 -0.0713454 1.52575)
(-0.0282247 -0.0685344 1.51468)
(-0.0441302 -0.0630693 1.48894)
(-0.0552597 -0.055261 1.44013)
(-0.0604807 -0.0454878 1.35152)
(0.0508834 -0.0508829 1.26779)
(0.045488 -0.0604815 1.35152)
(0.0364064 -0.0683821 1.40592)
(0.023369 -0.0742052 1.43821)
(0.00804269 -0.0772049 1.45313)
(-0.00804065 -0.0772049 1.45313)
(-0.023367 -0.0742053 1.43821)
(-0.0364045 -0.0683824 1.40592)
(-0.0454863 -0.0604819 1.35152)
(-0.050882 -0.0508833 1.26779)
(0.0294396 0.0294366 1.13916)
(0.0273681 0.0362562 1.264)
(0.0223854 0.0419305 1.35454)
(0.0146514 0.0461074 1.41276)
(0.00509898 0.0482985 1.44101)
(-0.00509418 0.0482986 1.44102)
(-0.0146467 0.0461078 1.41276)
(-0.022381 0.0419312 1.35454)
(-0.0273642 0.0362571 1.264)
(-0.0294365 0.0294377 1.13916)
(0.0362588 0.0273647 1.264)
(0.0342678 0.0342649 1.41081)
(0.0281283 0.0399441 1.50483)
(0.0183913 0.0440007 1.56049)
(0.00638605 0.0461077 1.5863)
(-0.00638177 0.0461077 1.5863)
(-0.0183872 0.0440009 1.56049)
(-0.0281244 0.0399445 1.50483)
(-0.0342644 0.0342655 1.41082)
(-0.036256 0.0273656 1.264)
(0.0419328 0.0223819 1.35454)
(0.0399466 0.0281253 1.50483)
(0.0327492 0.0327464 1.59723)
(0.0213523 0.0359547 1.64978)
(0.0074008 0.0376022 1.67351)
(-0.00739688 0.0376023 1.67351)
(-0.0213485 0.0359548 1.64978)
(-0.0327456 0.0327467 1.59723)
(-0.0399435 0.0281257 1.50483)
(-0.0419302 0.0223825 1.35454)
(0.0461094 0.0146478 1.41276)
(0.044003 0.0183882 1.56049)
(0.0359572 0.0213494 1.64978)
(0.0233794 0.0233767 1.69966)
(0.00809497 0.0244128 1.72196)
(-0.00809128 0.0244128 1.72196)
(-0.0233758 0.0233768 1.69966)
(-0.0359538 0.0213496 1.64978)
(-0.044 0.0183884 1.56049)
(-0.0461071 0.0146481 1.41276)
(0.0483002 0.00509551 1.44101)
(0.0461098 0.00638297 1.5863)
(0.0376046 0.00739798 1.67351)
(0.0244153 0.00809232 1.72196)
(0.00845109 0.00844854 1.74358)
(-0.00844752 0.00844854 1.74358)
(-0.0244118 0.00809233 1.72196)
(-0.0376013 0.00739801 1.67351)
(-0.0461069 0.00638301 1.5863)
(-0.0482979 0.00509558 1.44102)
(0.0483002 -0.00509749 1.44101)
(0.0461097 -0.00638475 1.5863)
(0.0376045 -0.00739963 1.67351)
(0.0244153 -0.00809389 1.72196)
(0.00845109 -0.00845007 1.74358)
(-0.00844752 -0.00845008 1.74358)
(-0.0244118 -0.00809393 1.72196)
(-0.0376013 -0.0073997 1.67351)
(-0.0461069 -0.00638486 1.5863)
(-0.0482979 -0.00509765 1.44102)
(0.0461093 -0.0146497 1.41276)
(0.0440029 -0.0183899 1.56049)
(0.0359571 -0.021351 1.64978)
(0.0233793 -0.0233783 1.69966)
(0.00809494 -0.0244143 1.72196)
(-0.00809128 -0.0244143 1.72196)
(-0.0233757 -0.0233784 1.69966)
(-0.0359538 -0.0213512 1.64978)
(-0.0439999 -0.0183902 1.56049)
(-0.0461069 -0.0146501 1.41276)
(0.0419325 -0.0223837 1.35454)
(0.0399464 -0.0281269 1.50483)
(0.032749 -0.0327479 1.59723)
(0.0213522 -0.0359561 1.64978)
(0.00740075 -0.0376036 1.67351)
(-0.00739688 -0.0376037 1.67351)
(-0.0213484 -0.0359563 1.64978)
(-0.0327455 -0.0327482 1.59723)
(-0.0399433 -0.0281273 1.50483)
(-0.04193 -0.0223843 1.35454)
(0.0362584 -0.0273663 1.26399)
(0.0342675 -0.0342664 1.41081)
(0.0281281 -0.0399454 1.50483)
(0.0183912 -0.044002 1.56049)
(0.00638599 -0.0461089 1.5863)
(-0.00638177 -0.046109 1.5863)
(-0.0183871 -0.0440022 1.56049)
(-0.0281243 -0.0399459 1.50483)
(-0.0342641 -0.034267 1.41081)
(-0.0362556 -0.0273673 1.264)
(0.0294391 -0.0294379 1.13915)
(0.0273677 -0.0362574 1.26399)
(0.0223851 -0.0419316 1.35454)
(0.0146512 -0.0461085 1.41276)
(0.00509889 -0.0482995 1.44101)
(-0.00509417 -0.0482996 1.44101)
(-0.0146466 -0.0461089 1.41276)
(-0.0223808 -0.0419323 1.35454)
(-0.0273639 -0.0362583 1.264)
(-0.029436 -0.0294391 1.13916)
(0.00589104 0.00588476 1.15249)
(0.00667251 0.0082258 1.28429)
(0.00621551 0.0105469 1.38419)
(0.00437116 0.0124128 1.45073)
(0.00157412 0.0134331 1.48378)
(-0.00156437 0.0134334 1.48378)
(-0.00436171 0.0124137 1.45073)
(-0.00620669 0.0105484 1.3842)
(-0.00666459 0.0082278 1.2843)
(-0.00588462 0.00588715 1.15251)
(0.00823129 0.00666549 1.28429)
(0.00974965 0.00974359 1.44581)
(0.0090963 0.0125526 1.55604)
(0.0063622 0.0146718 1.62466)
(0.00227759 0.0157963 1.6575)
(-0.00226901 0.0157965 1.6575)
(-0.00635387 0.0146725 1.62466)
(-0.00908851 0.0125536 1.55604)
(-0.00974267 0.00974506 1.44582)
(-0.0082256 0.0066674 1.2843)
(0.0105516 0.00620829 1.38419)
(0.0125578 0.00909004 1.55604)
(0.0115935 0.011588 1.66971)
(0.00803331 0.0133804 1.73809)
(0.00285904 0.0142894 1.77002)
(-0.00285127 0.0142896 1.77002)
(-0.00802577 0.0133807 1.73809)
(-0.0115865 0.0115886 1.66972)
(-0.0125516 0.00909098 1.55604)
(-0.0105465 0.00620957 1.3842)
(0.0124168 0.00436388 1.45073)
(0.0146765 0.00635587 1.62466)
(0.0133854 0.00802766 1.73809)
(0.00917548 0.00917028 1.80489)
(0.00324396 0.00969714 1.83542)
(-0.00323669 0.00969719 1.83542)
(-0.00916842 0.00917045 1.80489)
(-0.0133788 0.00802798 1.73809)
(-0.0146707 0.00635637 1.62466)
(-0.0124121 0.0043646 1.45074)
(0.0134366 0.00156701 1.48377)
(0.0158004 0.00227135 1.65749)
(0.0142941 0.0028534 1.77002)
(0.00970209 0.00323869 1.83542)
(0.00340854 0.00340348 1.86469)
(-0.00340152 0.00340349 1.86469)
(-0.00969526 0.00323873 1.83542)
(-0.0142877 0.00285348 1.77002)
(-0.0157948 0.00227147 1.6575)
(-0.0134321 0.0015672 1.48378)
(0.0134364 -0.00157111 1.48377)
(0.0158003 -0.00227501 1.65749)
(0.014294 -0.00285676 1.77002)
(0.00970206 -0.00324187 1.83542)
(0.00340853 -0.00340656 1.86469)
(-0.00340152 -0.00340659 1.86469)
(-0.00969524 -0.00324194 1.83542)
(-0.0142877 -0.0028569 1.77002)
(-0.0157948 -0.00227523 1.6575)
(-0.013432 -0.00157143 1.48378)
(0.0124164 -0.00436785 1.45072)
(0.0146762 -0.00635942 1.62465)
(0.0133852 -0.00803092 1.73809)
(0.00917538 -0.00917336 1.80488)
(0.00324392 -0.00970014 1.83542)
(-0.00323668 -0.0097002 1.83542)
(-0.00916835 -0.00917357 1.80489)
(-0.0133786 -0.0080313 1.73809)
(-0.0146704 -0.00636001 1.62466)
(-0.0124118 -0.0043687 1.45073)
(0.0105509 -0.00621199 1.38419)
(0.0125574 -0.00909337 1.55603)
(0.0115932 -0.0115911 1.66971)
(0.00803313 -0.0133832 1.73809)
(0.00285897 -0.0142922 1.77002)
(-0.00285125 -0.0142924 1.77002)
(-0.00802564 -0.0133836 1.73809)
(-0.0115862 -0.0115917 1.66971)
(-0.0125511 -0.00909438 1.55604)
(-0.0105459 -0.00621339 1.3842)
(0.00823042 -0.00666881 1.28428)
(0.00974897 -0.00974657 1.44581)
(0.00909583 -0.0125553 1.55603)
(0.00636191 -0.0146744 1.62466)
(0.00227747 -0.0157987 1.6575)
(-0.00226898 -0.0157989 1.6575)
(-0.00635367 -0.014675 1.62466)
(-0.00908812 -0.0125564 1.55604)
(-0.00974205 -0.00974811 1.44582)
(-0.00822476 -0.00667082 1.2843)
(0.00588999 -0.00588746 1.15249)
(0.00667163 -0.00822823 1.28428)
(0.00621488 -0.0105491 1.38419)
(0.00437075 -0.0124149 1.45073)
(0.00157394 -0.0134351 1.48377)
(-0.00156432 -0.0134354 1.48378)
(-0.00436142 -0.0124157 1.45073)
(-0.00620616 -0.0105506 1.38419)
(-0.00666379 -0.00823026 1.28429)
(-0.00588362 -0.00588991 1.1525)
(0.00544123 0.00542964 1.11571)
(0.00525244 0.00683987 1.25313)
(0.00444546 0.00809632 1.3594)
(0.00299193 0.00905587 1.43137)
(0.00106109 0.00957124 1.46752)
(-0.00104311 0.00957178 1.46753)
(-0.00297453 0.00905751 1.43138)
(-0.00442923 0.00809898 1.35942)
(-0.00523788 0.00684359 1.25315)
(-0.00542942 0.00543407 1.11573)
(0.00685003 0.00523946 1.25312)
(0.00680539 0.0067942 1.42459)
(0.00585464 0.00820733 1.54502)
(0.00396138 0.00927153 1.62183)
(0.00140272 0.00982961 1.65919)
(-0.00138691 0.00983 1.65919)
(-0.00394605 0.00927269 1.62184)
(-0.00584031 0.00820928 1.54503)
(-0.00679255 0.00679698 1.42461)
(-0.00683956 0.00524306 1.25315)
(0.00810485 0.0044321 1.3594)
(0.00821696 0.00584309 1.54501)
(0.00711422 0.00710408 1.67214)
(0.00480309 0.00801293 1.75082)
(0.00169307 0.0084578 1.78822)
(-0.0016788 0.00845802 1.78822)
(-0.00478925 0.00801362 1.75083)
(-0.00710131 0.00710529 1.67215)
(-0.0082055 0.00584487 1.54503)
(-0.00809563 0.00443455 1.35942)
(0.00906316 0.00297849 1.43136)
(0.00927998 0.0039497 1.62183)
(0.00802207 0.0047927 1.75082)
(0.00536839 0.00535887 1.8289)
(0.00187689 0.00557585 1.86496)
(-0.0018636 0.00557595 1.86496)
(-0.00535549 0.0053592 1.8289)
(-0.00801005 0.00479332 1.75083)
(-0.00926939 0.00395066 1.62184)
(-0.00905467 0.00297988 1.43139)
(0.00957748 0.00104796 1.46751)
(0.00983722 0.00139121 1.65918)
(0.00846631 0.00168271 1.78821)
(0.0055849 0.00186727 1.86496)
(0.00192916 0.00191992 1.89882)
(-0.00191634 0.00191994 1.89882)
(-0.00557243 0.00186735 1.86496)
(-0.00845471 0.00168286 1.78822)
(-0.00982704 0.00139146 1.6592)
(-0.00956936 0.00104835 1.46753)
(0.00957725 -0.00105555 1.46751)
(0.00983705 -0.00139794 1.65918)
(0.00846621 -0.00168885 1.78821)
(0.00558485 -0.00187305 1.86496)
(0.00192914 -0.00192553 1.89882)
(-0.00191633 -0.00192557 1.89882)
(-0.00557239 -0.0018732 1.86496)
(-0.00845462 -0.00168912 1.78822)
(-0.00982688 -0.00139836 1.6592)
(-0.00956913 -0.00105613 1.46753)
(0.00906245 -0.00298583 1.43136)
(0.00927946 -0.00395623 1.62182)
(0.00802174 -0.00479866 1.75082)
(0.0053682 -0.00536447 1.82889)
(0.00187681 -0.00558132 1.86496)
(-0.00186357 -0.00558143 1.86496)
(-0.00535535 -0.00536487 1.8289)
(-0.00800976 -0.00479939 1.75083)
(-0.00926889 -0.00395734 1.62184)
(-0.00905397 -0.00298741 1.43138)
(0.00810369 -0.00443896 1.35939)
(0.00821608 -0.0058492 1.54501)
(0.00711365 -0.00710964 1.67213)
(0.00480275 -0.00801815 1.75082)
(0.00169293 -0.00846288 1.78821)
(-0.00167876 -0.00846312 1.78822)
(-0.004789 -0.0080189 1.75083)
(-0.00710081 -0.00711095 1.67214)
(-0.00820467 -0.00585112 1.54502)
(-0.00809449 -0.00444157 1.35942)
(0.00684841 -0.00524561 1.25311)
(0.00680414 -0.00679968 1.42458)
(0.00585379 -0.00821227 1.54501)
(0.00396086 -0.00927613 1.62183)
(0.00140251 -0.00983407 1.65918)
(-0.00138683 -0.00983447 1.65919)
(-0.00394566 -0.00927734 1.62183)
(-0.00583957 -0.0082143 1.54502)
(-0.00679138 -0.00680256 1.4246)
(-0.00683799 -0.00524934 1.25314)
(0.00543931 -0.00543464 1.11569)
(0.00525083 -0.00684434 1.25311)
(0.00444431 -0.0081003 1.35939)
(0.00299121 -0.00905957 1.43136)
(0.00106079 -0.0095748 1.46751)
(-0.001043 -0.00957535 1.46752)
(-0.00297397 -0.00906124 1.43137)
(-0.00442822 -0.008103 1.35941)
(-0.00523637 -0.00684813 1.25314)
(-0.00542757 -0.00543915 1.11572)
(0.000814891 0.000794948 1.12196)
(0.00103209 0.001182 1.25976)
(0.00103603 0.00160773 1.36709)
(0.000764823 0.00197196 1.44026)
(0.000290194 0.00217797 1.47719)
(-0.000259822 0.00217891 1.4772)
(-0.000735409 0.00197482 1.44028)
(-0.00100859 0.00161236 1.36712)
(-0.00100747 0.00118846 1.25981)
(-0.000794914 0.000802624 1.12201)
(0.00119949 0.00100972 1.25976)
(0.00160639 0.00158708 1.43269)
(0.00161571 0.00216811 1.55557)
(0.00118526 0.00263921 1.63483)
(0.000441281 0.0028987 1.67366)
(-0.000414489 0.00289939 1.67367)
(-0.00115929 0.00264129 1.63484)
(-0.00159143 0.00217159 1.5556)
(-0.00158463 0.00159202 1.43273)
(-0.00118174 0.00101609 1.25981)
(0.0016224 0.001013 1.36708)
(0.0021847 0.00159578 1.55557)
(0.00217788 0.00216041 1.68668)
(0.00158358 0.00260331 1.76898)
(0.000582708 0.00283736 1.80844)
(-0.000558525 0.00283777 1.80845)
(-0.00156013 0.0026046 1.76899)
(-0.002156 0.00216263 1.6867)
(-0.00216528 0.00159904 1.5556)
(-0.00160676 0.00101744 1.36713)
(0.00198446 0.000741659 1.44024)
(0.00265373 0.00116512 1.63481)
(0.00261902 0.0015657 1.76897)
(0.00188359 0.00186724 1.85139)
(0.000685901 0.00200205 1.88974)
(-0.000663366 0.00200225 1.88974)
(-0.00186174 0.0018679 1.8514)
(-0.00259868 0.0015669 1.76899)
(-0.00263581 0.00116696 1.63485)
(-0.00197009 0.000744294 1.44029)
(0.00218863 0.000267607 1.47717)
(0.00291171 0.000421464 1.67364)
(0.00285193 0.000564909 1.80843)
(0.00201755 0.000669398 1.88973)
(0.000723176 0.000707327 1.92555)
(-0.000701422 0.000707382 1.92555)
(-0.00199643 0.000669585 1.88974)
(-0.0028323 0.000565263 1.80845)
(-0.00289451 0.000422038 1.67367)
(-0.00217491 0.00026848 1.47721)
(0.00218821 -0.000281176 1.47716)
(0.0029114 -0.000433443 1.67364)
(0.00285174 -0.000575762 1.80843)
(0.00201745 -0.000679559 1.88973)
(0.000723144 -0.000717173 1.92555)
(-0.0007014 -0.000717245 1.92555)
(-0.00199634 -0.000679795 1.88974)
(-0.00283212 -0.000576182 1.80845)
(-0.00289421 -0.000434062 1.67367)
(-0.00217449 -0.000282009 1.47721)
(0.00198319 -0.0007548 1.44023)
(0.00265281 -0.00117673 1.63481)
(0.00261844 -0.00157622 1.76897)
(0.00188328 -0.00187709 1.85138)
(0.000685792 -0.00201161 1.88973)
(-0.000663292 -0.00201182 1.88974)
(-0.00186146 -0.0018778 1.8514)
(-0.00259812 -0.00157748 1.76899)
(-0.00263491 -0.00117861 1.63484)
(-0.00196884 -0.000757385 1.44028)
(0.00162033 -0.00102526 1.36706)
(0.00218315 -0.00160663 1.55556)
(0.00217687 -0.00217022 1.68667)
(0.00158301 -0.00261248 1.76897)
(0.000582503 -0.00284623 1.80844)
(-0.000558395 -0.00284667 1.80844)
(-0.00155964 -0.00261381 1.76898)
(-0.00215506 -0.00217249 1.68669)
(-0.00216379 -0.00160991 1.55559)
(-0.00160476 -0.00102963 1.36711)
(0.0011966 -0.00102072 1.25974)
(0.00160417 -0.00159681 1.43267)
(0.00161423 -0.00217682 1.55556)
(0.00118438 -0.00264728 1.63481)
(0.000440953 -0.00290648 1.67365)
(-0.0004143 -0.00290717 1.67365)
(-0.00115855 -0.00264939 1.63483)
(-0.00159007 -0.00218032 1.55558)
(-0.00158253 -0.00160173 1.43271)
(-0.00117897 -0.00102699 1.25979)
(0.000811434 -0.000803863 1.12194)
(0.00102922 -0.00118993 1.25974)
(0.001034 -0.00161473 1.36707)
(0.000763573 -0.00197842 1.44024)
(0.000289707 -0.00218416 1.47717)
(-0.000259566 -0.00218511 1.47718)
(-0.000734382 -0.00198128 1.44026)
(-0.00100677 -0.00161935 1.3671)
(-0.00100481 -0.00119634 1.25979)
(-0.000791662 -0.000811418 1.12199)
(0.00130241 0.00127037 1.11321)
(0.00123616 0.00158425 1.25236)
(0.0010358 0.00185904 1.3611)
(0.000699402 0.00206769 1.43543)
(0.00026158 0.00218047 1.47302)
(-0.00021365 0.00218198 1.47303)
(-0.000652996 0.00207224 1.43546)
(-0.000992528 0.0018664 1.36115)
(-0.00119736 0.00159449 1.25244)
(-0.00127093 0.00128245 1.11331)
(0.00161252 0.00120013 1.25235)
(0.00156255 0.00153128 1.42747)
(0.00132848 0.00183335 1.55248)
(0.000900452 0.00206505 1.63344)
(0.000331098 0.00218915 1.67323)
(-0.00028845 0.00219026 1.67324)
(-0.00085912 0.00206844 1.63347)
(-0.00128985 0.001839 1.55253)
(-0.00152794 0.00153925 1.42755)
(-0.00158428 0.00121035 1.25245)
(0.00188282 0.000998675 1.36107)
(0.00186029 0.00129618 1.55247)
(0.00159794 0.00156956 1.68639)
(0.00108402 0.00177595 1.77091)
(0.000394107 0.00188203 1.8116)
(-0.000355439 0.00188273 1.81161)
(-0.00104654 0.00177809 1.77094)
(-0.00156296 0.00157325 1.68643)
(-0.00182924 0.00130156 1.55254)
(-0.0018578 0.00100593 1.36116)
(0.00208797 0.00066205 1.43539)
(0.00208864 0.000867825 1.63342)
(0.00180146 0.00105501 1.7709)
(0.00121732 0.00119079 1.8559)
(0.000438012 0.00124842 1.89561)
(-0.00040192 0.00124876 1.89562)
(-0.00118232 0.00119192 1.85592)
(-0.00176887 0.00105706 1.77094)
(-0.00205992 0.000870952 1.63348)
(-0.00206492 0.000666498 1.43547)
(0.00219778 0.000225169 1.47297)
(0.00221025 0.000299002 1.67319)
(0.00190566 0.00036524 1.81158)
(0.00127352 0.000411259 1.8956)
(0.000451493 0.000425826 1.93272)
(-0.000416647 0.000425933 1.93272)
(-0.00123969 0.000411614 1.89562)
(-0.00187421 0.000365911 1.81162)
(-0.00218267 0.000300093 1.67325)
(-0.00217576 0.000226819 1.47305)
(0.00219705 -0.000248061 1.47296)
(0.00220971 -0.000319124 1.67319)
(0.00190533 -0.000383371 1.81158)
(0.00127335 -0.000428151 1.8956)
(0.000451423 -0.000442142 1.93272)
(-0.000416622 -0.000442251 1.93272)
(-0.00123956 -0.000428497 1.89562)
(-0.00187392 -0.00038397 1.81162)
(-0.00218219 -0.000319967 1.67325)
(-0.00217509 -0.000249127 1.47304)
(0.00208578 -0.000684241 1.43538)
(0.00208702 -0.000887342 1.63341)
(0.00180043 -0.00107259 1.77089)
(0.00121674 -0.00120717 1.85589)
(0.000437783 -0.00126426 1.89561)
(-0.00040184 -0.0012646 1.89561)
(-0.00118189 -0.00120829 1.85591)
(-0.00176798 -0.00107456 1.77093)
(-0.00205845 -0.000890199 1.63347)
(-0.00206289 -0.000688078 1.43546)
(0.00187924 -0.00101942 1.36105)
(0.00185756 -0.00131446 1.55245)
(0.00159614 -0.00158598 1.68637)
(0.00108297 -0.00179122 1.77089)
(0.000393672 -0.00189676 1.81159)
(-0.000355307 -0.00189744 1.81159)
(-0.00104579 -0.00179332 1.77092)
(-0.00156146 -0.00158955 1.68641)
(-0.00182683 -0.00131951 1.55251)
(-0.00185455 -0.00102601 1.36114)
(0.00160748 -0.00121881 1.25232)
(0.00155863 -0.00154771 1.42744)
(0.0013258 -0.00184797 1.55245)
(0.000898813 -0.00207852 1.63341)
(0.000330383 -0.00220206 1.6732)
(-0.000288288 -0.00220316 1.67321)
(-0.000858031 -0.00208183 1.63344)
(-0.00128773 -0.00185342 1.5525)
(-0.00152459 -0.00155528 1.42751)
(-0.00157981 -0.00122828 1.25241)
(0.00129633 -0.0012856 1.11316)
(0.00123103 -0.00159771 1.25232)
(0.00103209 -0.00187084 1.36106)
(0.000697012 -0.0020785 1.43539)
(0.000260482 -0.00219077 1.47298)
(-0.000213492 -0.00219225 1.47299)
(-0.00065154 -0.00208292 1.43542)
(-0.000989749 -0.00187794 1.36111)
(-0.00119316 -0.00160746 1.2524)
(-0.00126575 -0.00129688 1.11326)
(0.000195574 0.000148217 1.11509)
(0.000249817 0.000236375 1.25434)
(0.000254264 0.000334776 1.36329)
(0.000197092 0.000419478 1.43786)
(9.47491e-05 0.000468571 1.47562)
(-2.49068e-05 0.00047079 1.47563)
(-0.000129513 0.000426137 1.43792)
(-0.000191347 0.000345487 1.36339)
(-0.000193532 0.000251142 1.25447)
(-0.000150046 0.000165383 1.11526)
(0.000278629 0.000196275 1.25432)
(0.000374708 0.000327747 1.42975)
(0.00037932 0.000459637 1.55526)
(0.000286634 0.000567463 1.6367)
(0.000124942 0.000628332 1.67679)
(-6.20431e-05 0.000630012 1.6768)
(-0.000225713 0.000572529 1.63675)
(-0.000322466 0.000468018 1.55534)
(-0.000323882 0.000339443 1.42987)
(-0.000237244 0.000211007 1.25448)
(0.000370565 0.000198946 1.36325)
(0.000500369 0.000330684 1.55524)
(0.000501322 0.000458331 1.68996)
(0.0003732 0.000560764 1.77521)
(0.000154388 0.000617379 1.81633)
(-9.69325e-05 0.000618447 1.81634)
(-0.000317538 0.000564039 1.77525)
(-0.000449445 0.000463904 1.69003)
(-0.000454391 0.000338684 1.55535)
(-0.00033359 0.000209528 1.3634)
(0.000450127 0.000141367 1.4378)
(0.000603227 0.000237456 1.63666)
(0.00059949 0.00032922 1.77519)
(0.000441855 0.000401559 1.86111)
(0.000177548 0.000437511 1.90133)
(-0.000123737 0.000438062 1.90134)
(-0.00038971 0.000403341 1.86114)
(-0.000550977 0.000332377 1.77526)
(-0.000560516 0.000242178 1.63677)
(-0.000415891 0.000147919 1.43794)
(0.000494749 4.04332e-05 1.47553)
(0.000660297 7.65817e-05 1.67673)
(0.000653201 0.000110648 1.81629)
(0.000475602 0.000136924 1.90131)
(0.000186958 0.000147998 1.93894)
(-0.000134999 0.000148182 1.93895)
(-0.000425205 0.000137507 1.90135)
(-0.000606394 0.000111719 1.81636)
(-0.000619295 7.82756e-05 1.67683)
(-0.000462037 4.2912e-05 1.47567)
(0.000493544 -7.62088e-05 1.47552)
(0.000659371 -0.00010822 1.67672)
(0.000652585 -0.000139212 1.81629)
(0.000475239 -0.000163533 1.90131)
(0.00018677 -0.000173681 1.93894)
(-0.000135021 -0.000173844 1.93895)
(-0.000425051 -0.000164039 1.90134)
(-0.000605985 -0.000140075 1.81635)
(-0.000618573 -0.000109409 1.67682)
(-0.000461017 -7.76859e-05 1.47566)
(0.00044648 -0.000176079 1.43778)
(0.000600408 -0.000268169 1.63664)
(0.000597581 -0.000356938 1.77517)
(0.00044068 -0.000427371 1.86109)
(0.000176948 -0.000462436 1.90132)
(-0.000123814 -0.000462959 1.90133)
(-0.000389207 -0.00042905 1.86113)
(-0.000549732 -0.000359833 1.77524)
(-0.000558354 -0.000272308 1.63674)
(-0.000412843 -0.000181529 1.43792)
(0.000364605 -0.000231456 1.36321)
(0.00049561 -0.000359491 1.5552)
(0.000497999 -0.000484262 1.68992)
(0.000371073 -0.000584836 1.77518)
(0.000153273 -0.000640558 1.8163)
(-9.71047e-05 -0.000641577 1.81631)
(-0.000316688 -0.000587939 1.77522)
(-0.000447382 -0.000489453 1.69)
(-0.000450876 -0.000366744 1.55531)
(-0.000328743 -0.000240739 1.36335)
(0.000270212 -0.000225652 1.25426)
(0.000367866 -0.000353735 1.4297)
(0.000374381 -0.000482781 1.55521)
(0.000283336 -0.000588751 1.63666)
(0.000123142 -0.000648678 1.67674)
(-6.24041e-05 -0.000650268 1.67676)
(-0.000224556 -0.000593517 1.63671)
(-0.000319628 -0.000490571 1.55529)
(-0.000319101 -0.000364404 1.42982)
(-0.000230667 -0.000238776 1.25442)
(0.000185402 -0.000172289 1.11502)
(0.00024085 -0.000257786 1.25427)
(0.000247439 -0.000353558 1.36322)
(0.000192311 -0.000436641 1.4378)
(9.20346e-05 -0.000484832 1.47555)
(-2.55867e-05 -0.000486908 1.47557)
(-0.000128084 -0.000442843 1.43786)
(-0.000187777 -0.000363449 1.36332)
(-0.000187689 -0.00027124 1.2544)
(-0.000142592 -0.0001876 1.11518)
(0.000360609 0.00029735 1.11284)
(0.000347598 0.000378 1.25245)
(0.000298348 0.00044945 1.36177)
(0.000215143 0.000503748 1.43664)
(0.000106423 0.000534326 1.47456)
(-1.24697e-05 0.000537248 1.47459)
(-0.000124367 0.000512471 1.43673)
(-0.000214095 0.000463334 1.36192)
(-0.000272622 0.000396824 1.25266)
(-0.000300356 0.000318602 1.1131)
(0.000435649 0.000275414 1.25242)
(0.000424179 0.000359549 1.42843)
(0.000365339 0.000435735 1.55447)
(0.000259453 0.000494057 1.63633)
(0.000119477 0.000526189 1.67665)
(-3.33017e-05 0.000528437 1.67667)
(-0.00017609 0.000500786 1.63641)
(-0.000287749 0.000446716 1.5546)
(-0.000355149 0.00037455 1.42862)
(-0.000379756 0.000293744 1.25267)
(0.000499043 0.000223307 1.36171)
(0.000492619 0.000297996 1.55444)
(0.000426018 0.00036568 1.68984)
(0.000299487 0.000416711 1.77562)
(0.000131302 0.000443737 1.81703)
(-5.16789e-05 0.000445178 1.81705)
(-0.000222425 0.000421088 1.77569)
(-0.000354344 0.000372999 1.68996)
(-0.000429327 0.00030823 1.55461)
(-0.000448363 0.000236359 1.36194)
(0.000546678 0.000139312 1.43654)
(0.000544445 0.000191175 1.63627)
(0.000471454 0.000237635 1.77559)
(0.00032858 0.000271544 1.86211)
(0.000139539 0.000286907 1.90266)
(-6.45887e-05 0.000287645 1.90268)
(-0.000256001 0.000273895 1.86217)
(-0.00040403 0.000241704 1.7757)
(-0.000485231 0.000197056 1.63643)
(-0.000499355 0.000147116 1.43676)
(0.000571252 3.24362e-05 1.47442)
(0.000571384 5.22868e-05 1.67655)
(0.000494464 6.97655e-05 1.81697)
(0.000340885 8.20314e-05 1.90263)
(0.000141651 8.64312e-05 1.94059)
(-6.93021e-05 8.66578e-05 1.94061)
(-0.000270752 8.27205e-05 1.90269)
(-0.000429397 7.09738e-05 1.81707)
(-0.000514484 5.40876e-05 1.67671)
(-0.00052593 3.4876e-05 1.47464)
(0.000569436 -8.23317e-05 1.47441)
(0.000569887 -9.74338e-05 1.67654)
(0.000493384 -0.000111131 1.81696)
(0.000340168 -0.000120901 1.90263)
(0.000141201 -0.000124114 1.94058)
(-6.94908e-05 -0.000124374 1.9406)
(-0.000270664 -0.00012172 1.90268)
(-0.000428921 -0.00011257 1.81706)
(-0.000513544 -9.95041e-05 1.6767)
(-0.000524551 -8.50722e-05 1.47462)
(0.000541198 -0.000187734 1.4365)
(0.000539903 -0.000235017 1.63623)
(0.000468124 -0.000277794 1.77556)
(0.000326295 -0.000309263 1.86208)
(0.000138123 -0.000323481 1.90264)
(-6.51917e-05 -0.000324233 1.90265)
(-0.000255701 -0.000311667 1.86214)
(-0.0004026 -0.000281945 1.77567)
(-0.00048244 -0.000240955 1.63639)
(-0.000495261 -0.000195561 1.43672)
(0.000490114 -0.000268672 1.36164)
(0.000484994 -0.000339146 1.55437)
(0.000420271 -0.000403287 1.68978)
(0.000295419 -0.000451921 1.77557)
(0.000128739 -0.000477769 1.81698)
(-5.27936e-05 -0.000479166 1.817)
(-0.00022196 -0.000456167 1.77564)
(-0.000352037 -0.000410373 1.6899)
(-0.000424863 -0.000349002 1.55455)
(-0.000441929 -0.000281208 1.36186)
(0.000423148 -0.000316436 1.25232)
(0.000413344 -0.000396708 1.42834)
(0.000356938 -0.000469353 1.55439)
(0.00025331 -0.000525249 1.63625)
(0.000115515 -0.000556095 1.67657)
(-3.50952e-05 -0.000558197 1.6766)
(-0.000175572 -0.000531537 1.63633)
(-0.000284692 -0.000479596 1.55452)
(-0.000349212 -0.000410653 1.42852)
(-0.000371161 -0.000333445 1.25256)
(0.00034572 -0.000331064 1.11272)
(0.000333666 -0.000408755 1.25233)
(0.000287036 -0.000476865 1.36166)
(0.000206551 -0.000529002 1.43653)
(0.000100761 -0.000558292 1.47446)
(-1.5139e-05 -0.00056094 1.47448)
(-0.000123885 -0.000536898 1.43662)