/*--------------------------------*- C++ -*----------------------------------*\
| =========                 |                                                 |
| \\      /  F ield         | OpenFOAM: The Open Source CFD Toolbox           |
|  \\    /   O peration     | Version:  2406                                  |
|   \\  /    A nd           | Website:  www.openfoam.com                      |
|    \\/     M anipulation  |                                                 |
\*---------------------------------------------------------------------------*/
FoamFile
{
    version     2.0;
    format      ascii;
    arch        "LSB;label=32;scalar=64";
    class       surfaceScalarField;
    location    "1";
    object      phi;
}
// * * * * * * * * * * * * * * * * * * * * * * * * * * * * * * * * * * * * * //

dimensions      [0 3 -1 0 0 0 0];

oriented        oriented;

internalField   nonuniform List<scalar> 
46880
(
5.70227e-05
5.70227e-05
9.25627e-05
-6.58089e-05
-6.58089e-05
4.14847e-05
5.85524e-05
0.000107332
-6.81955e-05
2.17749e-05
5.89973e-05
0.000116854
-6.9121e-05
1.80098e-13
5.91027e-05
0.000121561
-6.94051e-05
-2.17749e-05
5.91027e-05
0.000121561
-6.94051e-05
-4.14847e-05
5.89973e-05
0.000116854
-6.9121e-05
-5.70227e-05
5.85524e-05
0.000107332
-6.81955e-05
5.70227e-05
9.25627e-05
-6.58089e-05
-6.58089e-05
5.85524e-05
4.14847e-05
0.000107332
-6.81955e-05
4.20291e-05
4.20291e-05
0.000121733
2.18254e-05
4.20503e-05
0.000130284
1.85205e-13
4.1986e-05
0.000134326
-2.18254e-05
4.1986e-05
0.000134326
-4.20291e-05
4.20503e-05
0.000130284
-5.85524e-05
4.20291e-05
0.000121733
4.14847e-05
0.000107332
-6.81955e-05
5.89973e-05
2.17749e-05
0.000116854
-6.9121e-05
4.20503e-05
2.18254e-05
0.000130284
2.17158e-05
2.17158e-05
0.000137965
1.52525e-13
2.16254e-05
0.00014148
-2.17158e-05
2.16254e-05
0.00014148
-4.20503e-05
2.17158e-05
0.000137965
-5.89973e-05
2.18254e-05
0.000130284
2.17749e-05
0.000116854
-6.9121e-05
5.91027e-05
9.30337e-13
0.000121561
-6.94051e-05
4.1986e-05
1.1363e-12
0.000134326
2.16254e-05
1.11407e-12
0.00014148
1.25359e-13
1.09204e-12
0.000144691
-2.16254e-05
1.06141e-12
0.000144691
-4.1986e-05
1.02779e-12
0.00014148
-5.91027e-05
1.03241e-12
0.000134326
8.55068e-13
0.000121561
-6.94051e-05
5.91027e-05
-2.17749e-05
0.000121561
-6.94051e-05
4.1986e-05
-2.18254e-05
0.000134326
2.16254e-05
-2.17158e-05
0.00014148
9.51737e-14
-2.16254e-05
0.000144691
-2.16254e-05
-2.16254e-05
0.000144691
-4.1986e-05
-2.17158e-05
0.00014148
-5.91027e-05
-2.18254e-05
0.000134326
-2.17749e-05
0.000121561
-6.94051e-05
5.89973e-05
-4.14846e-05
0.000116854
-6.9121e-05
4.20503e-05
-4.20291e-05
0.000130284
2.17158e-05
-4.20503e-05
0.000137965
5.46162e-14
-4.1986e-05
0.00014148
-2.17158e-05
-4.1986e-05
0.00014148
-4.20503e-05
-4.20503e-05
0.000137965
-5.89973e-05
-4.20291e-05
0.000130284
-4.14846e-05
0.000116854
-6.9121e-05
5.85524e-05
-5.70227e-05
0.000107332
-6.81955e-05
4.20291e-05
-5.85524e-05
0.000121733
2.18254e-05
-5.89973e-05
0.000130284
1.56818e-14
-5.91027e-05
0.000134326
-2.18254e-05
-5.91027e-05
0.000134326
-4.20291e-05
-5.89973e-05
0.000130284
-5.85524e-05
-5.85524e-05
0.000121733
-5.70227e-05
0.000107332
-6.81955e-05
5.70227e-05
9.25627e-05
-6.58089e-05
-6.58089e-05
4.14847e-05
0.000107332
-6.81955e-05
2.17749e-05
0.000116854
-6.9121e-05
-1.34824e-14
0.000121561
-6.94051e-05
-2.17749e-05
0.000121561
-6.94051e-05
-4.14847e-05
0.000116854
-6.9121e-05
-5.70227e-05
0.000107332
-6.81955e-05
9.25627e-05
-6.58089e-05
-6.58089e-05
2.12981e-05
2.12981e-05
9.11553e-05
-2.05944e-05
-2.05944e-05
1.7387e-05
2.43165e-05
0.000110076
-2.31488e-05
9.64834e-06
2.60548e-05
0.000123205
-2.46671e-05
1.13777e-13
2.68715e-05
0.000129837
-2.54995e-05
-9.64834e-06
2.68715e-05
0.000129837
-2.54995e-05
-1.7387e-05
2.60548e-05
0.000123205
-2.46671e-05
-2.12981e-05
2.43165e-05
0.000110076
-2.31488e-05
2.12981e-05
9.11553e-05
-2.05944e-05
-2.05944e-05
2.43165e-05
1.7387e-05
0.000110076
-2.31488e-05
1.97648e-05
1.97648e-05
0.000130836
1.0936e-05
2.11179e-05
0.00014405
9.91541e-14
2.17195e-05
0.000150414
-1.0936e-05
2.17195e-05
0.000150414
-1.97648e-05
2.11179e-05
0.00014405
-2.43165e-05
1.97648e-05
0.000130836
1.7387e-05
0.000110076
-2.31488e-05
2.60548e-05
9.64834e-06
0.000123205
-2.46671e-05
2.11179e-05
1.0936e-05
0.00014405
1.1672e-05
1.1672e-05
0.000156857
6.31817e-14
1.19938e-05
0.000162878
-1.1672e-05
1.19938e-05
0.000162878
-2.11179e-05
1.1672e-05
0.000156857
-2.60548e-05
1.0936e-05
0.00014405
9.64834e-06
0.000123205
-2.46671e-05
2.68715e-05
8.07568e-13
0.000129837
-2.54995e-05
2.17195e-05
9.27359e-13
0.000150414
1.19938e-05
8.84231e-13
0.000162878
3.65129e-14
8.64429e-13
0.000168678
-1.19938e-05
8.37575e-13
0.000168678
-2.17195e-05
8.13159e-13
0.000162878
-2.68715e-05
8.45674e-13
0.000150414
7.53382e-13
0.000129837
-2.54995e-05
2.68715e-05
-9.64834e-06
0.000129837
-2.54995e-05
2.17195e-05
-1.0936e-05
0.000150414
1.19938e-05
-1.1672e-05
0.000162878
1.18925e-14
-1.19938e-05
0.000168678
-1.19938e-05
-1.19938e-05
0.000168678
-2.17195e-05
-1.1672e-05
0.000162878
-2.68715e-05
-1.0936e-05
0.000150414
-9.64834e-06
0.000129837
-2.54995e-05
2.60548e-05
-1.7387e-05
0.000123205
-2.46671e-05
2.11179e-05
-1.97648e-05
0.00014405
1.1672e-05
-2.11179e-05
0.000156857
-2.26952e-14
-2.17195e-05
0.000162878
-1.1672e-05
-2.17195e-05
0.000162878
-2.11179e-05
-2.11179e-05
0.000156857
-2.60548e-05
-1.97648e-05
0.00014405
-1.7387e-05
0.000123205
-2.46671e-05
2.43165e-05
-2.12981e-05
0.000110076
-2.31488e-05
1.97648e-05
-2.43165e-05
0.000130836
1.0936e-05
-2.60548e-05
0.00014405
-5.88085e-14
-2.68715e-05
0.000150414
-1.0936e-05
-2.68715e-05
0.000150414
-1.97648e-05
-2.60548e-05
0.00014405
-2.43165e-05
-2.43165e-05
0.000130836
-2.12981e-05
0.000110076
-2.31488e-05
2.12981e-05
9.11553e-05
-2.05944e-05
-2.05944e-05
1.7387e-05
0.000110076
-2.31488e-05
9.64834e-06
0.000123205
-2.46671e-05
-8.12148e-14
0.000129837
-2.54995e-05
-9.64834e-06
0.000129837
-2.54995e-05
-1.7387e-05
0.000123205
-2.46671e-05
-2.12981e-05
0.000110076
-2.31488e-05
9.11553e-05
-2.05944e-05
-2.05944e-05
1.18127e-05
1.18127e-05
8.91259e-05
-1.0798e-05
-1.0798e-05
9.90265e-06
1.43956e-05
0.000110627
-1.30364e-05
5.62154e-06
1.59718e-05
0.000125963
-1.44489e-05
1.9988e-13
1.67467e-05
0.000133897
-1.51853e-05
-5.62154e-06
1.67467e-05
0.000133897
-1.51853e-05
-9.90265e-06
1.59718e-05
0.000125963
-1.44489e-05
-1.18127e-05
1.43956e-05
0.000110627
-1.30364e-05
1.18127e-05
8.91259e-05
-1.0798e-05
-1.0798e-05
1.43956e-05
9.90265e-06
0.000110627
-1.30364e-05
1.20477e-05
1.20477e-05
0.000135532
6.80902e-06
1.33212e-05
0.000151939
1.53274e-13
1.39201e-05
0.00016005
-6.80902e-06
1.39201e-05
0.00016005
-1.20477e-05
1.33212e-05
0.000151939
-1.43956e-05
1.20477e-05
0.000135532
9.90265e-06
0.000110627
-1.30364e-05
1.59718e-05
5.62155e-06
0.000125963
-1.44489e-05
1.33212e-05
6.80902e-06
0.000151939
7.49972e-06
7.49972e-06
0.0001685
8.47604e-14
7.81056e-06
0.000176487
-7.49972e-06
7.81056e-06
0.000176487
-1.33212e-05
7.49972e-06
0.0001685
-1.59718e-05
6.80902e-06
0.000151939
5.62155e-06
0.000125963
-1.44489e-05
1.67467e-05
9.61336e-13
0.000133897
-1.51853e-05
1.39201e-05
1.03662e-12
0.00016005
7.81056e-06
9.11241e-13
0.000176487
4.034e-14
8.34295e-13
0.000184299
-7.81056e-06
7.98447e-13
0.000184299
-1.39201e-05
8.05514e-13
0.000176487
-1.67467e-05
8.86801e-13
0.00016005
8.15101e-13
0.000133897
-1.51853e-05
1.67467e-05
-5.62154e-06
0.000133897
-1.51853e-05
1.39201e-05
-6.80902e-06
0.00016005
7.81056e-06
-7.49972e-06
0.000176487
6.20715e-15
-7.81055e-06
0.000184299
-7.81056e-06
-7.81055e-06
0.000184299
-1.39201e-05
-7.49972e-06
0.000176487
-1.67467e-05
-6.80902e-06
0.00016005
-5.62154e-06
0.000133897
-1.51853e-05
1.59718e-05
-9.90265e-06
0.000125963
-1.44489e-05
1.33212e-05
-1.20476e-05
0.000151939
7.49972e-06
-1.33212e-05
0.0001685
-3.34966e-14
-1.39201e-05
0.000176487
-7.49972e-06
-1.39201e-05
0.000176487
-1.33212e-05
-1.33212e-05
0.0001685
-1.59718e-05
-1.20476e-05
0.000151939
-9.90265e-06
0.000125963
-1.44489e-05
1.43956e-05
-1.18127e-05
0.000110627
-1.30364e-05
1.20477e-05
-1.43956e-05
0.000135532
6.80902e-06
-1.59718e-05
0.000151939
-7.26081e-14
-1.67467e-05
0.00016005
-6.80902e-06
-1.67467e-05
0.00016005
-1.20477e-05
-1.59718e-05
0.000151939
-1.43956e-05
-1.43956e-05
0.000135532
-1.18127e-05
0.000110627
-1.30364e-05
1.18127e-05
8.91259e-05
-1.0798e-05
-1.0798e-05
9.90265e-06
0.000110627
-1.30364e-05
5.62154e-06
0.000125963
-1.44489e-05
-9.43268e-14
0.000133897
-1.51853e-05
-5.62154e-06
0.000133897
-1.51853e-05
-9.90265e-06
0.000125963
-1.44489e-05
-1.18127e-05
0.000110627
-1.30364e-05
8.91259e-05
-1.0798e-05
-1.0798e-05
2.98521e-06
2.98521e-06
8.73785e-05
-2.11152e-06
-2.11152e-06
2.93654e-06
4.20871e-06
0.000109321
-2.85467e-06
1.80601e-06
5.10333e-06
0.000125443
-3.45295e-06
4.78819e-14
5.56796e-06
0.000133927
-3.79171e-06
-1.80601e-06
5.56796e-06
0.000133927
-3.79171e-06
-2.93654e-06
5.10333e-06
0.000125443
-3.45295e-06
-2.98521e-06
4.20871e-06
0.000109321
-2.85467e-06
2.98521e-06
8.73785e-05
-2.11152e-06
-2.11152e-06
4.20871e-06
2.93654e-06
0.000109321
-2.85467e-06
4.13753e-06
4.13753e-06
0.000135674
2.52404e-06
4.95623e-06
0.000153699
2.36652e-14
5.34154e-06
0.0001628
-2.52404e-06
5.34154e-06
0.0001628
-4.13753e-06
4.95623e-06
0.000153699
-4.20871e-06
4.13753e-06
0.000135674
2.93654e-06
0.000109321
-2.85467e-06
5.10333e-06
1.80601e-06
0.000125443
-3.45295e-06
4.95623e-06
2.52404e-06
0.000153699
2.98743e-06
2.98743e-06
0.000172437
-1.81489e-14
3.17437e-06
0.000181642
-2.98743e-06
3.17437e-06
0.000181642
-4.95623e-06
2.98743e-06
0.000172437
-5.10333e-06
2.52404e-06
0.000153699
1.80601e-06
0.000125443
-3.45295e-06
5.56796e-06
9.33865e-13
0.000133927
-3.79171e-06
5.34154e-06
1.04734e-12
0.0001628
3.17437e-06
9.2792e-13
0.000181642
-4.86375e-14
8.25421e-13
0.000190648
-3.17437e-06
8.01701e-13
0.000190648
-5.34154e-06
8.60679e-13
0.000181642
-5.56796e-06
9.71514e-13
0.0001628
8.96249e-13
0.000133927
-3.79171e-06
5.56796e-06
-1.80601e-06
0.000133927
-3.79171e-06
5.34154e-06
-2.52404e-06
0.0001628
3.17437e-06
-2.98743e-06
0.000181642
-7.18709e-14
-3.17437e-06
0.000190648
-3.17437e-06
-3.17437e-06
0.000190648
-5.34154e-06
-2.98743e-06
0.000181642
-5.56796e-06
-2.52404e-06
0.0001628
-1.80601e-06
0.000133927
-3.79171e-06
5.10333e-06
-2.93654e-06
0.000125443
-3.45295e-06
4.95623e-06
-4.13753e-06
0.000153699
2.98743e-06
-4.95623e-06
0.000172437
-9.746e-14
-5.34154e-06
0.000181642
-2.98743e-06
-5.34154e-06
0.000181642
-4.95623e-06
-4.95623e-06
0.000172437
-5.10333e-06
-4.13753e-06
0.000153699
-2.93654e-06
0.000125443
-3.45295e-06
4.20871e-06
-2.98521e-06
0.000109321
-2.85467e-06
4.13753e-06
-4.20871e-06
0.000135674
2.52404e-06
-5.10333e-06
0.000153699
-1.32507e-13
-5.56796e-06
0.0001628
-2.52404e-06
-5.56796e-06
0.0001628
-4.13753e-06
-5.10333e-06
0.000153699
-4.20871e-06
-4.20871e-06
0.000135674
-2.98521e-06
0.000109321
-2.85467e-06
2.98521e-06
8.73785e-05
-2.11152e-06
-2.11152e-06
2.93654e-06
0.000109321
-2.85467e-06
1.80601e-06
0.000125443
-3.45295e-06
-1.48777e-13
0.000133927
-3.79171e-06
-1.80601e-06
0.000133927
-3.79171e-06
-2.93654e-06
0.000125443
-3.45295e-06
-2.98521e-06
0.000109321
-2.85467e-06
8.73785e-05
-2.11152e-06
-2.11152e-06
1.75855e-06
1.75855e-06
8.68359e-05
-1.48727e-06
-1.48727e-06
1.58507e-06
2.31764e-06
0.000109058
-1.88066e-06
9.44341e-07
2.7317e-06
0.000125519
-2.1672e-06
3.15895e-13
2.94525e-06
0.000134245
-2.31887e-06
-9.44341e-07
2.94525e-06
0.000134245
-2.31887e-06
-1.58507e-06
2.7317e-06
0.000125519
-2.1672e-06
-1.75855e-06
2.31764e-06
0.000109058
-1.88066e-06
1.75855e-06
8.68359e-05
-1.48727e-06
-1.48727e-06
2.31764e-06
1.58508e-06
0.000109058
-1.88066e-06
2.13339e-06
2.13339e-06
0.000136043
1.27625e-06
2.52942e-06
0.000154759
2.64499e-13
2.71285e-06
0.000164309
-1.27625e-06
2.71285e-06
0.000164309
-2.13338e-06
2.52942e-06
0.000154759
-2.31764e-06
2.13339e-06
0.000136043
1.58507e-06
0.000109058
-1.88066e-06
2.7317e-06
9.44342e-07
0.000125519
-2.1672e-06
2.52941e-06
1.27625e-06
0.000154759
1.50567e-06
1.50567e-06
0.000174485
1.71649e-13
1.58998e-06
0.00018427
-1.50567e-06
1.58998e-06
0.00018427
-2.52941e-06
1.50567e-06
0.000174485
-2.7317e-06
1.27625e-06
0.000154759
9.44342e-07
0.000125519
-2.1672e-06
2.94525e-06
1.22928e-12
0.000134245
-2.31887e-06
2.71285e-06
1.34404e-12
0.000164309
1.58997e-06
1.16898e-12
0.00018427
1.0275e-13
1.00392e-12
0.000193828
-1.58997e-06
9.62792e-13
0.000193828
-2.71285e-06
1.04439e-12
0.00018427
-2.94525e-06
1.16377e-12
0.000164309
1.05336e-12
0.000134245
-2.31887e-06
2.94525e-06
-9.4434e-07
0.000134245
-2.31887e-06
2.71285e-06
-1.27624e-06
0.000164309
1.58997e-06
-1.50567e-06
0.00018427
6.54657e-14
-1.58997e-06
0.000193828
-1.58997e-06
-1.58997e-06
0.000193828
-2.71285e-06
-1.50567e-06
0.00018427
-2.94525e-06
-1.27624e-06
0.000164309
-9.4434e-07
0.000134245
-2.31887e-06
2.7317e-06
-1.58507e-06
0.000125519
-2.1672e-06
2.52941e-06
-2.13338e-06
0.000154759
1.50567e-06
-2.52941e-06
0.000174485
3.48537e-14
-2.71285e-06
0.00018427
-1.50567e-06
-2.71285e-06
0.00018427
-2.52941e-06
-2.52941e-06
0.000174485
-2.7317e-06
-2.13338e-06
0.000154759
-1.58507e-06
0.000125519
-2.1672e-06
2.31764e-06
-1.75855e-06
0.000109058
-1.88066e-06
2.13338e-06
-2.31763e-06
0.000136043
1.27625e-06
-2.7317e-06
0.000154759
5.08428e-15
-2.94525e-06
0.000164309
-1.27625e-06
-2.94525e-06
0.000164309
-2.13339e-06
-2.7317e-06
0.000154759
-2.31764e-06
-2.31763e-06
0.000136043
-1.75855e-06
0.000109058
-1.88066e-06
1.75855e-06
8.68359e-05
-1.48727e-06
-1.48727e-06
1.58507e-06
0.000109058
-1.88066e-06
9.44341e-07
0.000125519
-2.1672e-06
-1.87491e-14
0.000134245
-2.31887e-06
-9.44341e-07
0.000134245
-2.31887e-06
-1.58507e-06
0.000125519
-2.1672e-06
-1.75855e-06
0.000109058
-1.88066e-06
8.68359e-05
-1.48727e-06
-1.48727e-06
6.09094e-07
6.09095e-07
8.65409e-05
-4.61558e-07
-4.61558e-07
5.88221e-07
8.41815e-07
0.000108839
-6.01563e-07
3.62056e-07
1.02624e-06
0.000125434
-7.14691e-07
3.98146e-14
1.12581e-06
0.00013426
-7.78511e-07
-3.62056e-07
1.12581e-06
0.00013426
-7.78511e-07
-5.88221e-07
1.02624e-06
0.000125434
-7.14691e-07
-6.09094e-07
8.41815e-07
0.000108839
-6.01562e-07
6.09095e-07
8.65409e-05
-4.61559e-07
-4.61558e-07
8.41814e-07
5.88222e-07
0.000108839
-6.01562e-07
8.30744e-07
8.30746e-07
0.000136065
5.13707e-07
1.01887e-06
0.000155083
2.10271e-14
1.11174e-06
0.000164837
-5.13707e-07
1.11174e-06
0.000164837
-8.30744e-07
1.01887e-06
0.000155083
-8.41815e-07
8.30745e-07
0.000136065
5.88222e-07
0.000108839
-6.01563e-07
1.02624e-06
3.62058e-07
0.000125434
-7.1469e-07
1.01887e-06
5.13708e-07
0.000155083
6.28552e-07
6.28553e-07
0.000175266
-1.08956e-14
6.77036e-07
0.000185334
-6.28552e-07
6.77036e-07
0.000185334
-1.01887e-06
6.28553e-07
0.000175266
-1.02624e-06
5.13708e-07
0.000155083
3.62058e-07
0.000125434
-7.14692e-07
1.12581e-06
1.29115e-12
0.00013426
-7.7851e-07
1.11173e-06
1.46816e-12
0.000164837
6.77035e-07
1.33084e-12
0.000185334
-3.21141e-14
1.18944e-12
0.000195182
-6.77035e-07
1.17307e-12
0.000195182
-1.11173e-06
1.29252e-12
0.000185334
-1.12581e-06
1.44269e-12
0.000164837
1.31911e-12
0.00013426
-7.78512e-07
1.12581e-06
-3.62055e-07
0.00013426
-7.7851e-07
1.11173e-06
-5.13705e-07
0.000164837
6.77035e-07
-6.28551e-07
0.000185334
-4.73604e-14
-6.77034e-07
0.000195182
-6.77035e-07
-6.77034e-07
0.000195182
-1.11173e-06
-6.28551e-07
0.000185334
-1.12581e-06
-5.13705e-07
0.000164837
-3.62055e-07
0.00013426
-7.78512e-07
1.02624e-06
-5.8822e-07
0.000125434
-7.14691e-07
1.01887e-06
-8.30743e-07
0.000155083
6.28552e-07
-1.01887e-06
0.000175266
-6.16561e-14
-1.11173e-06
0.000185334
-6.28552e-07
-1.11173e-06
0.000185334
-1.01887e-06
-1.01887e-06
0.000175266
-1.02624e-06
-8.30743e-07
0.000155083
-5.8822e-07
0.000125434
-7.14691e-07
8.41814e-07
-6.09093e-07
0.000108839
-6.01562e-07
8.30744e-07
-8.41813e-07
0.000136065
5.13707e-07
-1.02624e-06
0.000155083
-8.26949e-14
-1.12581e-06
0.000164837
-5.13707e-07
-1.12581e-06
0.000164837
-8.30745e-07
-1.02624e-06
0.000155083
-8.41814e-07
-8.41813e-07
0.000136065
-6.09093e-07
0.000108839
-6.01563e-07
6.09094e-07
8.65409e-05
-4.61558e-07
-4.61558e-07
5.88221e-07
0.000108839
-6.01562e-07
3.62056e-07
0.000125434
-7.1469e-07
-9.23605e-14
0.00013426
-7.7851e-07
-3.62057e-07
0.00013426
-7.7851e-07
-5.88221e-07
0.000125434
-7.1469e-07
-6.09094e-07
0.000108839
-6.01562e-07
8.65409e-05
-4.61558e-07
-4.61558e-07
3.37042e-07
3.37043e-07
8.64326e-05
-2.8288e-07
-2.8288e-07
3.05728e-07
4.42556e-07
0.000108783
-3.55841e-07
1.82771e-07
5.24016e-07
0.000125443
-4.10568e-07
3.576e-13
5.67997e-07
0.000134315
-4.40394e-07
-1.8277e-07
5.67997e-07
0.000134315
-4.40394e-07
-3.05727e-07
5.24016e-07
0.000125443
-4.10568e-07
-3.37042e-07
4.42555e-07
0.000108783
-3.5584e-07
3.37043e-07
8.64326e-05
-2.82881e-07
-2.82881e-07
4.42554e-07
3.05729e-07
0.000108783
-3.5584e-07
4.11361e-07
4.11363e-07
0.000136127
2.48164e-07
4.93895e-07
0.000155277
3.17751e-13
5.35806e-07
0.000165117
-2.48163e-07
5.35806e-07
0.000165117
-4.11361e-07
4.93895e-07
0.000155277
-4.42554e-07
4.11362e-07
0.000136127
3.05729e-07
0.000108783
-3.55841e-07
5.24015e-07
1.82772e-07
0.000125443
-4.10567e-07
4.93893e-07
2.48166e-07
0.000155277
2.99349e-07
2.99351e-07
0.000175655
2.33277e-13
3.22832e-07
0.000185846
-2.99349e-07
3.22832e-07
0.000185846
-4.93893e-07
2.9935e-07
0.000175655
-5.24015e-07
2.48165e-07
0.000155277
1.82772e-07
0.000125443
-4.10568e-07
5.67996e-07
1.86876e-12
0.000134315
-4.40393e-07
5.35805e-07
2.04579e-12
0.000165117
3.22831e-07
1.8153e-12
0.000185846
1.65004e-13
1.59255e-12
0.000195828
-3.22831e-07
1.54908e-12
0.000195828
-5.35805e-07
1.68664e-12
0.000185846
-5.67996e-07
1.84595e-12
0.000165117
1.6638e-12
0.000134315
-4.40395e-07
5.67996e-07
-1.82769e-07
0.000134315
-4.40393e-07
5.35805e-07
-2.48162e-07
0.000165117
3.22831e-07
-2.99347e-07
0.000185846
1.21788e-13
-3.22829e-07
0.000195828
-3.22831e-07
-3.22829e-07
0.000195828
-5.35805e-07
-2.99347e-07
0.000185846
-5.67996e-07
-2.48162e-07
0.000165117
-1.82769e-07
0.000134315
-4.40395e-07
5.24015e-07
-3.05726e-07
0.000125443
-4.10567e-07
4.93893e-07
-4.11359e-07
0.000155277
2.99349e-07
-4.93891e-07
0.000175655
9.18901e-14
-5.35803e-07
0.000185846
-2.99349e-07
-5.35803e-07
0.000185846
-4.93893e-07
-4.93892e-07
0.000175655
-5.24015e-07
-4.11359e-07
0.000155277
-3.05726e-07
0.000125443
-4.10568e-07
4.42554e-07
-3.3704e-07
0.000108783
-3.5584e-07
4.11361e-07
-4.42552e-07
0.000136127
2.48164e-07
-5.24013e-07
0.000155277
5.05257e-14
-5.67994e-07
0.000165117
-2.48164e-07
-5.67994e-07
0.000165117
-4.11361e-07
-5.24014e-07
0.000155277
-4.42554e-07
-4.42553e-07
0.000136127
-3.37041e-07
0.000108783
-3.55841e-07
3.37042e-07
8.64326e-05
-2.8288e-07
-2.82879e-07
3.05727e-07
0.000108783
-3.55839e-07
1.8277e-07
0.000125443
-4.10567e-07
2.65833e-14
0.000134315
-4.40393e-07
-1.8277e-07
0.000134315
-4.40393e-07
-3.05727e-07
0.000125443
-4.10567e-07
-3.37042e-07
0.000108783
-3.5584e-07
8.64326e-05
-2.8288e-07
-2.8288e-07
1.51349e-07
1.5135e-07
8.63735e-05
-1.21837e-07
-1.21836e-07
1.4034e-07
2.02145e-07
0.000108747
-1.55427e-07
8.4568e-08
2.41371e-07
0.000125439
-1.81513e-07
1.2584e-13
2.62704e-07
0.000134333
-1.96085e-07
-8.45678e-08
2.62704e-07
0.000134333
-1.96085e-07
-1.4034e-07
2.41371e-07
0.000125439
-1.81513e-07
-1.51349e-07
2.02146e-07
0.000108747
-1.55427e-07
1.5135e-07
8.63735e-05
-1.21837e-07
-1.21837e-07
2.02144e-07
1.40341e-07
0.000108747
-1.55426e-07
1.91011e-07
1.91013e-07
0.00013615
1.15755e-07
2.3023e-07
0.000155363
1.42863e-13
2.50411e-07
0.000165245
-1.15755e-07
2.50411e-07
0.000165245
-1.91011e-07
2.3023e-07
0.000155363
-2.02144e-07
1.91013e-07
0.00013615
1.40342e-07
0.000108747
-1.55427e-07
2.41369e-07
8.457e-08
0.000125439
-1.81511e-07
2.30228e-07
1.15758e-07
0.000155363
1.40054e-07
1.40056e-07
0.000175835
1.37074e-13
1.51655e-07
0.000186085
-1.40054e-07
1.51655e-07
0.000186085
-2.30228e-07
1.40056e-07
0.000175835
-2.4137e-07
1.15758e-07
0.000155363
8.457e-08
0.000125439
-1.81513e-07
2.62702e-07
1.90196e-12
0.000134333
-1.96083e-07
2.50409e-07
2.14257e-12
0.000165245
1.51653e-07
1.96466e-12
0.000186085
1.31036e-13
1.78269e-12
0.000196131
-1.51653e-07
1.76894e-12
0.000196131
-2.50409e-07
1.94559e-12
0.000186085
-2.62703e-07
2.13856e-12
0.000165245
1.95187e-12
0.000134333
-1.96084e-07
2.62702e-07
-8.45662e-08
0.000134333
-1.96083e-07
2.50409e-07
-1.15753e-07
0.000165245
1.51653e-07
-1.40052e-07
0.000186085
1.18464e-13
-1.51651e-07
0.000196131
-1.51653e-07
-1.51651e-07
0.000196131
-2.50409e-07
-1.40052e-07
0.000186085
-2.62703e-07
-1.15753e-07
0.000165245
-8.45662e-08
0.000134333
-1.96084e-07
2.4137e-07
-1.40338e-07
0.000125439
-1.81512e-07
2.30228e-07
-1.91009e-07
0.000155363
1.40054e-07
-2.30226e-07
0.000175835
1.07613e-13
-2.50407e-07
0.000186085
-1.40054e-07
-2.50407e-07
0.000186085
-2.30228e-07
-2.30226e-07
0.000175835
-2.4137e-07
-1.9101e-07
0.000155363
-1.40338e-07
0.000125439
-1.81512e-07
2.02144e-07
-1.51347e-07
0.000108747
-1.55426e-07
1.91012e-07
-2.02142e-07
0.00013615
1.15756e-07
-2.41368e-07
0.000155363
7.69069e-14
-2.62701e-07
0.000165245
-1.15755e-07
-2.62701e-07
0.000165245
-1.91011e-07
-2.41368e-07
0.000155363
-2.02144e-07
-2.02142e-07
0.00013615
-1.51347e-07
0.000108747
-1.55426e-07
1.51349e-07
8.63735e-05
-1.21836e-07
-1.21836e-07
1.4034e-07
0.000108747
-1.55425e-07
8.45682e-08
0.000125439
-1.81511e-07
5.64971e-14
0.000134333
-1.96083e-07
-8.45681e-08
0.000134333
-1.96083e-07
-1.4034e-07
0.000125439
-1.81511e-07
-1.51348e-07
0.000108747
-1.55426e-07
8.63735e-05
-1.21836e-07
-1.21836e-07
7.90334e-08
7.90347e-08
8.63467e-05
-6.56225e-08
-6.56226e-08
7.185e-08
1.04054e-07
0.000108733
-8.28796e-08
4.28786e-08
1.23074e-07
0.000125441
-9.59206e-08
1.00541e-12
1.33331e-07
0.000134345
-1.03102e-07
-4.28767e-08
1.33331e-07
0.000134345
-1.03102e-07
-7.18484e-08
1.23074e-07
0.000125441
-9.59202e-08
-7.90323e-08
1.04053e-07
0.000108733
-8.28789e-08
7.90341e-08
8.63467e-05
-6.56222e-08
-6.56224e-08
1.04052e-07
7.18517e-08
0.000108733
-8.28782e-08
9.64214e-08
9.64235e-08
0.000136165
5.78788e-08
1.15182e-07
0.000155409
9.85875e-13
1.24754e-07
0.000165311
-5.7877e-08
1.24754e-07
0.000165311
-9.642e-08
1.15181e-07
0.000155409
-1.04051e-07
9.6423e-08
0.000136165
7.18512e-08
0.000108733
-8.28788e-08
1.23072e-07
4.28803e-08
0.000125441
-9.59191e-08
1.1518e-07
5.78808e-08
0.000155409
6.94194e-08
6.94212e-08
0.000175927
8.38144e-13
7.49057e-08
0.000186204
-6.94178e-08
7.49056e-08
0.000186204
-1.15179e-07
6.9421e-08
0.000175927
-1.23072e-07
5.78804e-08
0.000155409
4.28799e-08
0.000125441
-9.59198e-08
1.33329e-07
2.62977e-12
0.000134345
-1.031e-07
1.24753e-07
2.85358e-12
0.000165311
7.4904e-08
2.5565e-12
0.000186204
7.16815e-13
2.2654e-12
0.000196281
-7.49027e-08
2.19461e-12
0.000196281
-1.24752e-07
2.33791e-12
0.000186204
-1.33328e-07
2.50544e-12
0.000165311
2.24626e-12
0.000134345
-1.03101e-07
1.33329e-07
-4.28752e-08
0.000134345
-1.031e-07
1.24753e-07
-5.78753e-08
0.000165311
7.4904e-08
-6.94162e-08
0.000186204
6.46917e-13
-7.49011e-08
0.000196281
-7.49028e-08
-7.49012e-08
0.000196281
-1.24752e-07
-6.94164e-08
0.000186204
-1.33328e-07
-5.78756e-08
0.000165311
-4.28755e-08
0.000134345
-1.03101e-07
1.23072e-07
-7.1847e-08
0.000125441
-9.59191e-08
1.1518e-07
-9.64183e-08
0.000155409
6.94193e-08
-1.15177e-07
0.000175927
6.08635e-13
-1.2475e-07
0.000186204
-6.94181e-08
-1.2475e-07
0.000186204
-1.15179e-07
-1.15177e-07
0.000175927
-1.23072e-07
-9.64186e-08
0.000155409
-7.18472e-08
0.000125441
-9.59198e-08
1.04052e-07
-7.9031e-08
0.000108733
-8.2878e-08
9.64213e-08
-1.04049e-07
0.000136165
5.78786e-08
-1.2307e-07
0.000155409
5.66519e-13
-1.33327e-07
0.000165311
-5.78776e-08
-1.33327e-07
0.000165311
-9.64205e-08
-1.2307e-07
0.000155409
-1.04051e-07
-1.0405e-07
0.000136165
-7.90311e-08
0.000108733
-8.28784e-08
7.90329e-08
8.63467e-05
-6.56213e-08
-6.56213e-08
7.18497e-08
0.000108733
-8.28771e-08
4.28782e-08
0.000125441
-9.59182e-08
4.95915e-13
0.000134345
-1.031e-07
-4.28773e-08
0.000134345
-1.031e-07
-7.18489e-08
0.000125441
-9.59184e-08
-7.90323e-08
0.000108733
-8.28776e-08
8.63467e-05
-6.56213e-08
-6.56216e-08
3.80812e-08
3.80829e-08
8.63326e-05
-3.10252e-08
-3.10249e-08
3.50239e-08
5.06172e-08
0.000108725
-3.94628e-08
2.10087e-08
6.01992e-08
0.000125441
-4.59526e-08
1.08091e-12
6.53716e-08
0.00013435
-4.9558e-08
-2.10066e-08
6.53715e-08
0.00013435
-4.95579e-08
-3.50222e-08
6.0199e-08
0.000125441
-4.59523e-08
-3.80801e-08
5.06169e-08
0.000108725
-3.94623e-08
3.80826e-08
8.63326e-05
-3.10248e-08
-3.10248e-08
5.06149e-08
3.5026e-08
0.000108725
-3.9461e-08
4.73944e-08
4.73968e-08
0.000136171
2.85623e-08
5.68272e-08
0.000155432
1.10237e-12
6.16259e-08
0.000165344
-2.85603e-08
6.16258e-08
0.000165344
-4.73927e-08
5.68271e-08
0.000155432
-5.06139e-08
4.73966e-08
0.000136171
3.50259e-08
0.000108725
-3.94613e-08
6.01968e-08
2.10107e-08
0.000125441
-4.59504e-08
5.6825e-08
2.85646e-08
0.000155432
3.43461e-08
3.43482e-08
0.000175971
1.0065e-12
3.70877e-08
0.000186263
-3.43442e-08
3.70876e-08
0.000186263
-5.68235e-08
3.43481e-08
0.000175971
-6.01959e-08
2.85644e-08
0.000155432
2.10106e-08
0.000125441
-4.59506e-08
6.53693e-08
2.77937e-12
0.00013435
-4.95558e-08
6.16238e-08
3.06868e-12
0.000165344
3.70858e-08
2.83408e-12
0.000186263
9.23938e-13
2.58833e-12
0.000196355
-3.7084e-08
2.54044e-12
0.000196355
-6.16223e-08
2.70671e-12
0.000186263
-6.53684e-08
2.88265e-12
0.000165344
2.62206e-12
0.00013435
-4.95559e-08
6.53695e-08
-2.10053e-08
0.00013435
-4.95559e-08
6.16239e-08
-2.85586e-08
0.000165344
3.70858e-08
-3.43426e-08
0.000186263
8.76945e-13
-3.70825e-08
0.000196355
-3.70841e-08
-3.70826e-08
0.000196355
-6.16225e-08
-3.43428e-08
0.000186263
-6.53684e-08
-2.85588e-08
0.000165344
-2.10055e-08
0.00013435
-4.95559e-08
6.01971e-08
-3.50211e-08
0.000125441
-4.59506e-08
5.68252e-08
-4.73912e-08
0.000155432
3.43462e-08
-5.6822e-08
0.000175971
8.60045e-13
-6.16209e-08
0.000186263
-3.43445e-08
-6.1621e-08
0.000186263
-5.68238e-08
-5.68222e-08
0.000175971
-6.01961e-08
-4.73915e-08
0.000155432
-3.50214e-08
0.000125441
-4.59505e-08
5.06151e-08
-3.80789e-08
0.000108725
-3.9461e-08
4.73946e-08
-5.06124e-08
0.000136171
2.85624e-08
-6.01946e-08
0.000155432
8.28419e-13
-6.53671e-08
0.000165344
-2.85608e-08
-6.53672e-08
0.000165344
-4.73932e-08
-6.01949e-08
0.000155432
-5.0614e-08
-5.06128e-08
0.000136171
-3.80793e-08
0.000108725
-3.94608e-08
3.80812e-08
8.63326e-05
-3.10234e-08
-3.1024e-08
3.5024e-08
0.000108725
-3.94598e-08
2.10087e-08
0.000125441
-4.59494e-08
7.46866e-13
0.00013435
-4.95549e-08
-2.10073e-08
0.00013435
-4.9555e-08
-3.50228e-08
0.000125441
-4.59498e-08
-3.80802e-08
0.000108725
-3.94603e-08
8.63326e-05
-3.10239e-08
-3.10238e-08
1.96304e-08
1.96319e-08
8.63257e-05
-1.61666e-08
-1.61666e-08
1.7944e-08
2.597e-08
0.000108722
-2.04881e-08
1.07376e-08
3.08023e-08
0.000125441
-2.37796e-08
2.28892e-12
3.3405e-08
0.000134353
-2.55975e-08
-1.07332e-08
3.34048e-08
0.000134353
-2.55973e-08
-1.79404e-08
3.08017e-08
0.000125441
-2.3779e-08
-1.96277e-08
2.59691e-08
0.000108722
-2.0487e-08
1.9631e-08
8.63257e-05
-1.61651e-08
-1.6166e-08
2.59678e-08
1.79458e-08
0.000108722
-2.04864e-08
2.4188e-08
2.41902e-08
0.000136175
1.45492e-08
2.89477e-08
0.000155443
2.26781e-12
3.13616e-08
0.00016536
-1.45449e-08
3.13615e-08
0.00016536
-2.41845e-08
2.89472e-08
0.000155443
-2.59653e-08
2.41895e-08
0.000136175
1.7945e-08
0.000108722
-2.04857e-08
3.08001e-08
1.07392e-08
0.000125441
-2.37777e-08
2.89456e-08
1.45512e-08
0.000155443
1.74651e-08
1.74669e-08
0.000175994
2.03969e-12
1.88415e-08
0.000186293
-1.74612e-08
1.88414e-08
0.000186293
-2.89424e-08
1.74665e-08
0.000175994
-3.07979e-08
1.45506e-08
0.000155443
1.07385e-08
0.000125441
-2.37773e-08
3.3403e-08
3.78866e-12
0.000134353
-2.55956e-08
3.13598e-08
4.03543e-12
0.00016536
1.88399e-08
3.67121e-12
0.000186293
1.84209e-12
3.31041e-12
0.000196393
-1.88363e-08
3.19873e-12
0.000196393
-3.13568e-08
3.32424e-12
0.000186293
-3.3401e-08
3.45083e-12
0.00016536
3.11699e-12
0.000134353
-2.55953e-08
3.3403e-08
-1.07319e-08
0.000134353
-2.55956e-08
3.13598e-08
-1.45433e-08
0.00016536
1.88398e-08
-1.74597e-08
0.000186293
1.73073e-12
-1.88349e-08
0.000196393
-1.88365e-08
-1.8835e-08
0.000196393
-3.1357e-08
-1.746e-08
0.000186293
-3.34011e-08
-1.45439e-08
0.00016536
-1.07325e-08
0.000134353
-2.55954e-08
3.08001e-08
-1.79392e-08
0.000125441
-2.37776e-08
2.89456e-08
-2.4183e-08
0.000155443
1.74649e-08
-2.89409e-08
0.000175994
1.67562e-12
-3.13554e-08
0.000186293
-1.74617e-08
-3.13555e-08
0.000186293
-2.89429e-08
-2.89413e-08
0.000175994
-3.07983e-08
-2.41835e-08
0.000155443
-1.79396e-08
0.000125441
-2.37774e-08
2.59675e-08
-1.96266e-08
0.000108722
-2.04859e-08
2.41878e-08
-2.59638e-08
0.000136175
1.45488e-08
-3.07965e-08
0.000155443
1.59625e-12
-3.33995e-08
0.00016536
-1.45458e-08
-3.33996e-08
0.00016536
-2.41853e-08
-3.07968e-08
0.000155443
-2.59657e-08
-2.59643e-08
0.000136175
-1.96269e-08
0.000108722
-2.04855e-08
1.96298e-08
8.63257e-05
-1.61643e-08
-1.61649e-08
1.79436e-08
0.000108722
-2.04842e-08
1.07369e-08
0.000125441
-2.37758e-08
1.44643e-12
0.000134353
-2.55939e-08
-1.07342e-08
0.000134353
-2.5594e-08
-1.79413e-08
0.000125441
-2.37762e-08
-1.9628e-08
0.000108722
-2.04848e-08
8.63257e-05
-1.61643e-08
-1.61647e-08
9.77535e-09
9.77659e-09
8.63221e-05
-7.98546e-09
-7.98517e-09
8.98368e-09
1.29841e-08
0.00010872
-1.01464e-08
5.39083e-09
1.54393e-08
0.000125441
-1.18041e-08
2.35943e-12
1.67647e-08
0.000134355
-1.27231e-08
-5.38634e-09
1.67648e-08
0.000134355
-1.27232e-08
-8.97995e-09
1.54394e-08
0.000125441
-1.18041e-08
-9.77267e-09
1.29842e-08
0.00010872
-1.01464e-08
9.77689e-09
8.63221e-05
-7.9841e-09
-7.98549e-09
1.29823e-08
8.98541e-09
0.00010872
-1.01452e-08
1.21582e-08
1.21602e-08
0.000136177
7.33331e-09
1.45866e-08
0.000155449
2.52509e-12
1.58208e-08
0.000165369
-7.32854e-09
1.58208e-08
0.000165369
-1.21543e-08
1.45867e-08
0.000155449
-1.29796e-08
1.21604e-08
0.000136177
8.9857e-09
0.00010872
-1.01442e-08
1.54375e-08
5.39259e-09
0.000125441
-1.18025e-08
1.45848e-08
7.33525e-09
0.000155449
8.82387e-09
8.82562e-09
0.000176006
2.52959e-12
9.53061e-09
0.000186308
-8.81905e-09
9.53061e-09
0.000186308
-1.45808e-08
8.82563e-09
0.000176006
-1.54347e-08
7.33533e-09
0.000155449