/*--------------------------------*- C++ -*----------------------------------*\
| =========                 |                                                 |
| \\      /  F ield         | OpenFOAM: The Open Source CFD Toolbox           |
|  \\    /   O peration     | Version:  2406                                  |
|   \\  /    A nd           | Website:  www.openfoam.com                      |
|    \\/     M anipulation  |                                                 |
\*---------------------------------------------------------------------------*/
FoamFile
{
    version     2.0;
    format      ascii;
    arch        "LSB;label=32;scalar=64";
    class       volVectorField;
    location    "1";
    object      U;
}
// * * * * * * * * * * * * * * * * * * * * * * * * * * * * * * * * * * * * * //

dimensions      [0 1 -1 0 0 0 0];

internalField   nonuniform List<vector> 
16000
(
(0.153132 0.153132 1.11474)
(0.117573 0.168169 1.1542)
(0.072459 0.17688 1.17285)
(0.0244946 0.180953 1.18018)
(-0.0244946 0.180953 1.18018)
(-0.072459 0.17688 1.17285)
(-0.117573 0.168169 1.1542)
(-0.153132 0.153132 1.11474)
(0.168169 0.117573 1.1542)
(0.126109 0.126109 1.18728)
(0.0766337 0.131081 1.19757)
(0.0257137 0.133402 1.19978)
(-0.0257137 0.133402 1.19978)
(-0.0766337 0.131081 1.19757)
(-0.126109 0.126109 1.18728)
(-0.168169 0.117573 1.1542)
(0.17688 0.072459 1.17285)
(0.131081 0.0766337 1.19757)
(0.0792027 0.0792027 1.20176)
(0.0264749 0.0803911 1.20065)
(-0.0264749 0.0803911 1.20065)
(-0.0792027 0.0792027 1.20176)
(-0.131081 0.0766337 1.19757)
(-0.17688 0.072459 1.17285)
(0.180953 0.0244946 1.18018)
(0.133402 0.0257137 1.19978)
(0.0803911 0.0264749 1.20065)
(0.0268183 0.0268183 1.1979)
(-0.0268183 0.0268183 1.1979)
(-0.0803911 0.0264749 1.20065)
(-0.133402 0.0257137 1.19978)
(-0.180953 0.0244946 1.18018)
(0.180953 -0.0244946 1.18018)
(0.133402 -0.0257137 1.19978)
(0.0803911 -0.0264749 1.20065)
(0.0268183 -0.0268183 1.1979)
(-0.0268183 -0.0268183 1.1979)
(-0.0803911 -0.0264749 1.20065)
(-0.133402 -0.0257137 1.19978)
(-0.180953 -0.0244946 1.18018)
(0.17688 -0.072459 1.17285)
(0.131081 -0.0766337 1.19757)
(0.0792027 -0.0792027 1.20176)
(0.0264749 -0.0803911 1.20065)
(-0.0264749 -0.0803911 1.20065)
(-0.0792027 -0.0792027 1.20176)
(-0.131081 -0.0766337 1.19757)
(-0.17688 -0.072459 1.17285)
(0.168169 -0.117573 1.1542)
(0.126109 -0.126109 1.18728)
(0.0766337 -0.131081 1.19757)
(0.0257137 -0.133402 1.19978)
(-0.0257137 -0.133402 1.19978)
(-0.0766337 -0.131081 1.19757)
(-0.126109 -0.126109 1.18728)
(-0.168169 -0.117573 1.1542)
(0.153132 -0.153132 1.11474)
(0.117573 -0.168169 1.1542)
(0.072459 -0.17688 1.17285)
(0.0244946 -0.180953 1.18018)
(-0.0244946 -0.180953 1.18018)
(-0.072459 -0.17688 1.17285)
(-0.117573 -0.168169 1.1542)
(-0.153132 -0.153132 1.11474)
(0.0494154 0.0494154 1.29062)
(0.0414003 0.0615755 1.3895)
(0.0279271 0.0703803 1.44408)
(0.00984083 0.075171 1.46809)
(-0.00984083 0.075171 1.46809)
(-0.0279271 0.0703803 1.44408)
(-0.0414003 0.0615755 1.3895)
(-0.0494154 0.0494154 1.29062)
(0.0615755 0.0414003 1.3895)
(0.0531611 0.0531611 1.48728)
(0.0357288 0.0616406 1.53241)
(0.0125458 0.0660227 1.54992)
(-0.0125458 0.0660227 1.54992)
(-0.0357288 0.0616406 1.53241)
(-0.0531611 0.0531611 1.48728)
(-0.0615755 0.0414003 1.3895)
(0.0703803 0.0279271 1.44408)
(0.0616406 0.0357288 1.53241)
(0.0413007 0.0413007 1.57006)
(0.0144349 0.0441146 1.5832)
(-0.0144349 0.0441146 1.5832)
(-0.0413007 0.0413007 1.57006)
(-0.0616406 0.0357288 1.53241)
(-0.0703803 0.0279271 1.44408)
(0.075171 0.00984083 1.46809)
(0.0660227 0.0125458 1.54992)
(0.0441146 0.0144349 1.5832)
(0.0153734 0.0153734 1.59386)
(-0.0153734 0.0153734 1.59386)
(-0.0441146 0.0144349 1.5832)
(-0.0660227 0.0125458 1.54992)
(-0.0751711 0.00984083 1.46809)
(0.075171 -0.00984083 1.46809)
(0.0660227 -0.0125458 1.54992)
(0.0441146 -0.0144349 1.5832)
(0.0153734 -0.0153734 1.59386)
(-0.0153734 -0.0153734 1.59386)
(-0.0441146 -0.0144349 1.5832)
(-0.0660227 -0.0125458 1.54992)
(-0.0751711 -0.00984083 1.46809)
(0.0703803 -0.027927 1.44408)
(0.0616406 -0.0357288 1.53241)
(0.0413007 -0.0413007 1.57006)
(0.0144349 -0.0441146 1.5832)
(-0.0144349 -0.0441146 1.5832)
(-0.0413007 -0.0413007 1.57006)
(-0.0616406 -0.0357288 1.53241)
(-0.0703803 -0.027927 1.44408)
(0.0615755 -0.0414003 1.3895)
(0.0531611 -0.0531611 1.48728)
(0.0357288 -0.0616406 1.53241)
(0.0125458 -0.0660227 1.54992)
(-0.0125458 -0.0660227 1.54992)
(-0.0357288 -0.0616406 1.53241)
(-0.0531611 -0.0531611 1.48728)
(-0.0615755 -0.0414003 1.3895)
(0.0494154 -0.0494154 1.29062)
(0.0414003 -0.0615755 1.3895)
(0.027927 -0.0703803 1.44408)
(0.00984083 -0.075171 1.46809)
(-0.00984083 -0.075171 1.46809)
(-0.0279271 -0.0703803 1.44408)
(-0.0414003 -0.0615755 1.3895)
(-0.0494154 -0.0494154 1.29062)
(0.0295334 0.0295334 1.18369)
(0.0263057 0.0381217 1.33605)
(0.0179588 0.0440247 1.43119)
(0.00638113 0.0472238 1.47636)
(-0.00638113 0.0472238 1.47636)
(-0.0179588 0.0440247 1.43119)
(-0.0263057 0.0381217 1.33605)
(-0.0295334 0.0295334 1.18369)
(0.0381217 0.0263057 1.33605)
(0.03387 0.03387 1.50686)
(0.0231033 0.0393329 1.60045)
(0.00819889 0.0422271 1.64149)
(-0.00819889 0.0422271 1.64149)
(-0.0231033 0.0393329 1.60045)
(-0.03387 0.03387 1.50686)
(-0.0381217 0.0263057 1.33605)
(0.0440247 0.0179588 1.43119)
(0.0393329 0.0231033 1.60045)
(0.0268026 0.0268026 1.68906)
(0.00948465 0.028713 1.72654)
(-0.00948465 0.028713 1.72654)
(-0.0268026 0.0268026 1.68906)
(-0.0393329 0.0231033 1.60045)
(-0.0440247 0.0179588 1.43119)
(0.0472238 0.00638113 1.47636)
(0.042227 0.00819889 1.64149)
(0.028713 0.00948465 1.72654)
(0.0101528 0.0101528 1.76219)
(-0.0101528 0.0101528 1.76219)
(-0.028713 0.00948465 1.72654)
(-0.042227 0.00819889 1.64149)
(-0.0472238 0.00638113 1.47636)
(0.0472238 -0.00638113 1.47636)
(0.042227 -0.00819889 1.64149)
(0.028713 -0.00948464 1.72654)
(0.0101528 -0.0101528 1.76219)
(-0.0101528 -0.0101528 1.76219)
(-0.028713 -0.00948464 1.72654)
(-0.042227 -0.00819889 1.64149)
(-0.0472238 -0.00638113 1.47636)
(0.0440247 -0.0179588 1.43119)
(0.0393329 -0.0231033 1.60045)
(0.0268026 -0.0268026 1.68906)
(0.00948465 -0.028713 1.72654)
(-0.00948465 -0.028713 1.72654)
(-0.0268026 -0.0268026 1.68906)
(-0.0393329 -0.0231033 1.60045)
(-0.0440247 -0.0179588 1.43119)
(0.0381217 -0.0263057 1.33605)
(0.03387 -0.03387 1.50686)
(0.0231033 -0.0393329 1.60045)
(0.00819889 -0.042227 1.64149)
(-0.00819889 -0.042227 1.64149)
(-0.0231033 -0.0393329 1.60045)
(-0.03387 -0.03387 1.50686)
(-0.0381217 -0.0263057 1.33605)
(0.0295334 -0.0295334 1.18369)
(0.0263057 -0.0381217 1.33605)
(0.0179588 -0.0440247 1.43119)
(0.00638113 -0.0472238 1.47636)
(-0.00638113 -0.0472238 1.47636)
(-0.0179588 -0.0440247 1.43119)
(-0.0263057 -0.0381217 1.33605)
(-0.0295334 -0.0295334 1.18369)
(0.00607788 0.00607788 1.17735)
(0.00678721 0.00932593 1.34012)
(0.00531535 0.0121436 1.44756)
(0.00200434 0.0137879 1.50053)
(-0.00200434 0.0137879 1.50053)
(-0.00531535 0.0121436 1.44756)
(-0.00678721 0.00932593 1.34012)
(-0.00607788 0.00607788 1.17735)
(0.00932593 0.00678721 1.34012)
(0.010642 0.010642 1.53329)
(0.0082524 0.0137676 1.64786)
(0.00308277 0.0154575 1.70082)
(-0.00308277 0.0154575 1.70082)
(-0.0082524 0.0137676 1.64786)
(-0.010642 0.010642 1.53329)
(-0.00932593 0.00678721 1.34012)
(0.0121436 0.00531536 1.44756)
(0.0137676 0.0082524 1.64786)
(0.0104758 0.0104758 1.76219)
(0.00386311 0.0115575 1.81303)
(-0.00386311 0.0115575 1.81303)
(-0.0104758 0.0104758 1.76219)
(-0.0137676 0.0082524 1.64786)
(-0.0121436 0.00531536 1.44756)
(0.0137879 0.00200435 1.50053)
(0.0154575 0.00308277 1.70082)
(0.0115575 0.00386311 1.81303)
(0.00421153 0.00421154 1.8613)
(-0.00421153 0.00421154 1.8613)
(-0.0115575 0.00386311 1.81303)
(-0.0154575 0.00308277 1.70082)
(-0.0137879 0.00200435 1.50053)
(0.0137879 -0.00200434 1.50053)
(0.0154575 -0.00308276 1.70082)
(0.0115575 -0.0038631 1.81303)
(0.00421153 -0.00421153 1.8613)
(-0.00421153 -0.00421153 1.8613)
(-0.0115575 -0.0038631 1.81303)
(-0.0154575 -0.00308276 1.70082)
(-0.0137879 -0.00200434 1.50053)
(0.0121436 -0.00531535 1.44756)
(0.0137676 -0.00825239 1.64786)
(0.0104758 -0.0104758 1.76219)
(0.00386311 -0.0115575 1.81303)
(-0.00386311 -0.0115575 1.81303)
(-0.0104758 -0.0104758 1.76219)
(-0.0137676 -0.00825239 1.64786)
(-0.0121436 -0.00531535 1.44756)
(0.00932593 -0.00678721 1.34012)
(0.010642 -0.0106419 1.53329)
(0.0082524 -0.0137676 1.64786)
(0.00308277 -0.0154575 1.70082)
(-0.00308277 -0.0154575 1.70082)
(-0.0082524 -0.0137676 1.64786)
(-0.010642 -0.0106419 1.53329)
(-0.00932593 -0.00678721 1.34012)
(0.00607788 -0.00607788 1.17735)
(0.00678721 -0.00932593 1.34012)
(0.00531535 -0.0121436 1.44756)
(0.00200434 -0.0137879 1.50053)
(-0.00200434 -0.0137879 1.50053)
(-0.00531535 -0.0121436 1.44756)
(-0.00678721 -0.00932593 1.34012)
(-0.00607788 -0.00607788 1.17735)
(0.00420929 0.00420929 1.15879)
(0.00417758 0.00573707 1.32761)
(0.00305281 0.00697193 1.44156)
(0.00112169 0.00767951 1.4987)
(-0.00112169 0.00767951 1.4987)
(-0.00305281 0.00697193 1.44156)
(-0.00417758 0.00573707 1.32761)
(-0.00420929 0.00420929 1.15879)
(0.00573707 0.00417758 1.32761)
(0.0058271 0.00582711 1.53244)
(0.00432306 0.00720708 1.65824)
(0.00159285 0.00796351 1.71788)
(-0.00159285 0.00796351 1.71788)
(-0.00432306 0.00720708 1.65824)
(-0.0058271 0.0058271 1.53244)
(-0.00573707 0.00417758 1.32761)
(0.00697193 0.00305281 1.44156)
(0.00720707 0.00432306 1.65824)
(0.00533722 0.00533723 1.7871)
(0.00194952 0.00580511 1.84585)
(-0.00194952 0.00580511 1.84585)
(-0.00533722 0.00533722 1.7871)
(-0.00720708 0.00432306 1.65824)
(-0.00697194 0.00305281 1.44156)
(0.00767951 0.00112169 1.4987)
(0.00796351 0.00159285 1.71788)
(0.00580511 0.00194952 1.84585)
(0.00208328 0.00208329 1.90127)
(-0.00208328 0.00208329 1.90127)
(-0.00580511 0.00194952 1.84585)
(-0.00796351 0.00159285 1.71788)
(-0.00767951 0.00112169 1.4987)
(0.00767951 -0.00112169 1.4987)
(0.00796351 -0.00159285 1.71788)
(0.00580511 -0.00194951 1.84585)
(0.00208328 -0.00208328 1.90127)
(-0.00208328 -0.00208328 1.90127)
(-0.00580511 -0.00194951 1.84585)
(-0.00796351 -0.00159285 1.71788)
(-0.00767951 -0.00112169 1.4987)
(0.00697193 -0.00305281 1.44156)
(0.00720707 -0.00432305 1.65824)
(0.00533722 -0.00533722 1.7871)
(0.00194952 -0.0058051 1.84585)
(-0.00194952 -0.0058051 1.84585)
(-0.00533722 -0.00533722 1.7871)
(-0.00720707 -0.00432305 1.65824)
(-0.00697193 -0.00305281 1.44156)
(0.00573707 -0.00417758 1.32761)
(0.0058271 -0.0058271 1.53244)
(0.00432306 -0.00720707 1.65824)
(0.00159285 -0.0079635 1.71788)
(-0.00159285 -0.0079635 1.71788)
(-0.00432306 -0.00720707 1.65824)
(-0.0058271 -0.0058271 1.53244)
(-0.00573707 -0.00417758 1.32761)
(0.00420928 -0.00420928 1.15879)
(0.00417758 -0.00573707 1.32761)
(0.00305281 -0.00697193 1.44156)
(0.00112169 -0.00767951 1.4987)
(-0.00112169 -0.00767951 1.4987)
(-0.00305281 -0.00697193 1.44156)
(-0.00417758 -0.00573707 1.32761)
(-0.00420929 -0.00420929 1.15879)
(0.00130174 0.00130174 1.15563)
(0.00140465 0.00190345 1.3259)
(0.00109256 0.00244352 1.44189)
(0.000412967 0.00276631 1.50046)
(-0.000412967 0.00276631 1.50046)
(-0.00109256 0.00244352 1.44189)
(-0.00140465 0.00190345 1.3259)
(-0.00130174 0.00130174 1.15563)
(0.00190345 0.00140465 1.3259)
(0.00214529 0.0021453 1.53424)
(0.0016872 0.00280356 1.66415)
(0.000637026 0.00317699 1.72646)
(-0.000637026 0.00317699 1.72646)
(-0.0016872 0.00280356 1.66415)
(-0.0021453 0.0021453 1.53424)
(-0.00190345 0.00140465 1.3259)
(0.00244352 0.00109257 1.44189)
(0.00280356 0.0016872 1.66415)
(0.00219038 0.00219038 1.7989)
(0.000816972 0.0024356 1.86114)
(-0.000816972 0.0024356 1.86114)
(-0.00219038 0.00219038 1.7989)
(-0.00280356 0.0016872 1.66415)
(-0.00244352 0.00109257 1.44189)
(0.00276631 0.00041297 1.50046)
(0.00317699 0.00063703 1.72646)
(0.0024356 0.000816975 1.86114)
(0.000886492 0.000886495 1.91993)
(-0.000886493 0.000886495 1.91993)
(-0.0024356 0.000816975 1.86114)
(-0.00317699 0.000637029 1.72646)
(-0.00276631 0.000412971 1.50046)
(0.00276631 -0.000412964 1.50046)
(0.00317699 -0.000637022 1.72646)
(0.0024356 -0.000816969 1.86114)
(0.000886492 -0.00088649 1.91993)
(-0.000886493 -0.00088649 1.91993)
(-0.0024356 -0.000816969 1.86114)
(-0.00317699 -0.000637022 1.72646)
(-0.00276631 -0.000412964 1.50046)
(0.00244352 -0.00109256 1.44189)
(0.00280356 -0.00168719 1.66415)
(0.00219038 -0.00219038 1.7989)
(0.000816972 -0.00243559 1.86114)
(-0.000816972 -0.00243559 1.86114)
(-0.00219038 -0.00219038 1.7989)
(-0.00280356 -0.00168719 1.66415)
(-0.00244352 -0.00109256 1.44189)
(0.00190345 -0.00140464 1.3259)
(0.00214529 -0.00214529 1.53424)
(0.0016872 -0.00280355 1.66415)
(0.000637026 -0.00317699 1.72646)
(-0.000637026 -0.00317699 1.72646)
(-0.0016872 -0.00280355 1.66415)
(-0.00214529 -0.00214529 1.53424)
(-0.00190345 -0.00140465 1.3259)
(0.00130174 -0.00130174 1.15563)
(0.00140465 -0.00190345 1.3259)
(0.00109256 -0.00244352 1.44189)
(0.000412967 -0.00276631 1.50046)
(-0.000412968 -0.00276631 1.50046)
(-0.00109256 -0.00244352 1.44189)
(-0.00140465 -0.00190345 1.3259)
(-0.00130174 -0.00130174 1.15563)
(0.000792205 0.000792206 1.15296)
(0.000788355 0.00108156 1.32433)
(0.000581399 0.00132234 1.44146)
(0.000214721 0.00146385 1.50077)
(-0.000214719 0.00146385 1.50077)
(-0.000581397 0.00132234 1.44146)
(-0.000788354 0.00108156 1.32433)
(-0.000792206 0.000792206 1.15296)
(0.00108156 0.000788358 1.32433)
(0.00110842 0.00110842 1.53467)
(0.000833461 0.00139004 1.66657)
(0.000309536 0.00155285 1.73013)
(-0.000309535 0.00155285 1.73013)
(-0.00083346 0.00139004 1.66657)
(-0.00110842 0.00110842 1.53467)
(-0.00108156 0.000788358 1.32433)
(0.00132233 0.000581402 1.44146)
(0.00139004 0.000833465 1.66657)
(0.00105205 0.00105206 1.80409)
(0.000388559 0.00116372 1.86797)
(-0.000388558 0.00116372 1.86797)
(-0.00105205 0.00105206 1.80409)
(-0.00139004 0.000833465 1.66657)
(-0.00132234 0.000581402 1.44146)
(0.00146385 0.000214725 1.50077)
(0.00155285 0.00030954 1.73013)
(0.00116372 0.000388563 1.86797)
(0.000420373 0.000420376 1.92846)
(-0.000420372 0.000420376 1.92846)
(-0.00116372 0.000388563 1.86797)
(-0.00155285 0.00030954 1.73013)
(-0.00146385 0.000214724 1.50077)
(0.00146385 -0.000214715 1.50077)
(0.00155285 -0.00030953 1.73013)
(0.00116372 -0.000388554 1.86797)
(0.000420373 -0.000420369 1.92846)
(-0.000420372 -0.000420369 1.92846)
(-0.00116372 -0.000388555 1.86797)
(-0.00155285 -0.000309531 1.73013)
(-0.00146385 -0.000214716 1.50077)
(0.00132233 -0.000581393 1.44146)
(0.00139004 -0.000833456 1.66657)
(0.00105205 -0.00105205 1.80409)
(0.000388559 -0.00116372 1.86797)
(-0.000388559 -0.00116372 1.86797)
(-0.00105205 -0.00105205 1.80409)
(-0.00139004 -0.000833456 1.66657)
(-0.00132234 -0.000581394 1.44146)
(0.00108156 -0.00078835 1.32433)
(0.00110842 -0.00110841 1.53467)
(0.000833461 -0.00139004 1.66657)
(0.000309536 -0.00155284 1.73013)
(-0.000309535 -0.00155284 1.73013)
(-0.00083346 -0.00139004 1.66657)
(-0.00110842 -0.00110841 1.53467)
(-0.00108156 -0.000788351 1.32433)
(0.000792202 -0.000792201 1.15296)
(0.000788353 -0.00108155 1.32433)
(0.000581398 -0.00132233 1.44146)
(0.00021472 -0.00146384 1.50077)
(-0.00021472 -0.00146384 1.50077)
(-0.000581398 -0.00132233 1.44146)
(-0.000788353 -0.00108156 1.32433)
(-0.000792204 -0.000792203 1.15296)
(0.000340736 0.000340738 1.1521)
(0.000347865 0.000479673 1.32392)
(0.000260864 0.000598212 1.44154)
(9.69839e-05 0.000668248 1.50117)
(-9.69832e-05 0.000668248 1.50117)
(-0.000260863 0.000598212 1.44154)
(-0.000347866 0.000479673 1.32392)
(-0.000340738 0.000340739 1.1521)
(0.000479668 0.000347869 1.32392)
(0.000505478 0.000505483 1.53513)
(0.000384179 0.00064285 1.6679)
(0.000143138 0.000722072 1.732)
(-0.000143137 0.000722072 1.732)
(-0.000384179 0.00064285 1.6679)
(-0.000505479 0.000505483 1.53513)
(-0.000479672 0.00034787 1.32392)
(0.000598206 0.000260868 1.44154)
(0.000642846 0.000384184 1.6679)
(0.000489665 0.000489669 1.80663)
(0.000181201 0.000544342 1.87124)
(-0.0001812 0.000544342 1.87124)
(-0.000489664 0.000489669 1.80663)
(-0.000642846 0.000384184 1.6679)
(-0.000598209 0.000260868 1.44154)
(0.000668241 9.69884e-05 1.50117)
(0.000722067 0.000143143 1.732)
(0.000544338 0.000181205 1.87124)
(0.000196975 0.000196979 1.93251)
(-0.000196974 0.000196979 1.93251)
(-0.000544337 0.000181205 1.87124)
(-0.000722067 0.000143143 1.732)
(-0.000668244 9.69887e-05 1.50117)
(0.000668241 -9.69788e-05 1.50117)
(0.000722067 -0.000143132 1.732)
(0.000544338 -0.000181196 1.87124)
(0.000196975 -0.00019697 1.93251)
(-0.000196974 -0.00019697 1.93251)
(-0.000544337 -0.000181196 1.87124)
(-0.000722067 -0.000143132 1.732)
(-0.000668243 -9.69788e-05 1.50117)
(0.000598206 -0.000260859 1.44154)
(0.000642846 -0.000384174 1.6679)
(0.000489665 -0.00048966 1.80663)
(0.000181201 -0.000544333 1.87124)
(-0.0001812 -0.000544333 1.87124)
(-0.000489664 -0.00048966 1.80663)
(-0.000642846 -0.000384174 1.6679)
(-0.000598208 -0.000260859 1.44154)
(0.000479668 -0.000347861 1.32392)
(0.000505478 -0.000505474 1.53513)
(0.000384179 -0.000642841 1.6679)
(0.000143138 -0.000722063 1.732)
(-0.000143137 -0.000722063 1.732)
(-0.000384179 -0.000642842 1.6679)
(-0.000505478 -0.000505474 1.53513)
(-0.000479669 -0.000347862 1.32392)
(0.000340735 -0.000340733 1.1521)
(0.000347865 -0.000479665 1.32392)
(0.000260864 -0.000598203 1.44154)
(9.69838e-05 -0.000668239 1.50117)
(-9.69835e-05 -0.000668239 1.50117)
(-0.000260864 -0.000598204 1.44154)
(-0.000347865 -0.000479666 1.32392)
(-0.000340736 -0.000340735 1.1521)
(0.000183379 0.000183381 1.15155)
(0.000182637 0.000252986 1.32363)
(0.000134501 0.00031088 1.44151)
(4.95872e-05 0.000344804 1.5013)
(-4.95822e-05 0.000344804 1.5013)
(-0.000134496 0.000310879 1.44151)
(-0.000182633 0.000252984 1.32363)
(-0.000183378 0.00018338 1.15155)
(0.000252982 0.00018264 1.32363)
(0.000258957 0.000258962 1.5353)
(0.000193547 0.00032477 1.66852)
(7.15922e-05 0.000362585 1.73289)
(-7.15874e-05 0.000362584 1.73289)
(-0.000193543 0.000324769 1.66852)
(-0.000258954 0.00025896 1.5353)
(-0.000252982 0.000182639 1.32363)
(0.000310875 0.000134505 1.44151)
(0.000324765 0.000193552 1.66852)
(0.000243697 0.000243702 1.80785)
(8.9619e-05 0.000269588 1.87281)
(-8.9615e-05 0.000269588 1.87281)
(-0.000243694 0.000243701 1.80785)
(-0.000324763 0.000193551 1.66852)
(-0.000310876 0.000134504 1.44151)
(0.000344799 4.95914e-05 1.5013)
(0.00036258 7.1597e-05 1.73289)
(0.000269584 8.96233e-05 1.87281)
(9.70187e-05 9.70225e-05 1.93446)
(-9.70153e-05 9.70223e-05 1.93446)
(-0.000269581 8.96227e-05 1.87281)
(-0.000362578 7.15961e-05 1.73289)
(-0.0003448 4.95905e-05 1.5013)
(0.000344799 -4.95781e-05 1.5013)
(0.00036258 -7.15828e-05 1.73289)
(0.000269584 -8.96108e-05 1.87281)
(9.70185e-05 -9.70115e-05 1.93446)
(-9.70155e-05 -9.70117e-05 1.93446)
(-0.000269581 -8.96113e-05 1.87281)
(-0.000362578 -7.15836e-05 1.73289)
(-0.0003448 -4.95791e-05 1.5013)
(0.000310874 -0.000134493 1.44151)
(0.000324765 -0.000193539 1.66852)
(0.000243697 -0.00024369 1.80785)
(8.96185e-05 -0.000269577 1.87281)
(-8.96155e-05 -0.000269578 1.87281)
(-0.000243694 -0.00024369 1.80785)
(-0.000324763 -0.000193539 1.66852)
(-0.000310876 -0.000134494 1.44151)
(0.000252979 -0.000182629 1.32363)
(0.000258955 -0.000258949 1.5353)
(0.000193546 -0.000324758 1.66852)
(7.15912e-05 -0.000362574 1.73289)
(-7.15885e-05 -0.000362574 1.73289)
(-0.000193544 -0.000324759 1.66852)
(-0.000258954 -0.00025895 1.5353)
(-0.000252981 -0.00018263 1.32363)
(0.000183376 -0.000183373 1.15155)
(0.000182635 -0.000252975 1.32363)
(0.0001345 -0.000310869 1.44151)
(4.9586e-05 -0.000344794 1.5013)
(-4.95835e-05 -0.000344794 1.5013)
(-0.000134498 -0.000310871 1.44151)
(-0.000182633 -0.000252977 1.32363)
(-0.000183376 -0.000183376 1.15155)
(8.67724e-05 8.6774e-05 1.15132)
(8.7711e-05 0.000121326 1.32351)
(6.52162e-05 0.000150479 1.44152)
(2.41401e-05 0.000167612 1.50139)
(-2.41346e-05 0.000167612 1.50139)
(-6.52113e-05 0.000150478 1.44152)
(-8.77073e-05 0.000121325 1.32351)
(-8.6771e-05 8.67744e-05 1.15132)
(0.000121319 8.77148e-05 1.32351)
(0.000126293 0.000126298 1.53541)
(9.5111e-05 0.000159578 1.66884)
(3.52704e-05 0.000178637 1.73335)
(-3.5265e-05 0.000178637 1.73335)
(-9.51062e-05 0.000159578 1.66884)
(-0.000126289 0.000126298 1.53541)
(-0.000121319 8.7715e-05 1.32351)
(0.000150471 6.52207e-05 1.44152)
(0.000159573 9.51164e-05 1.66884)
(0.000120354 0.000120359 1.80847)
(4.43155e-05 0.000133319 1.8736)
(-4.43106e-05 0.000133318 1.8736)
(-0.000120349 0.000120359 1.80847)
(-0.00015957 9.51161e-05 1.66884)
(-0.000150471 6.52207e-05 1.44152)
(0.000167604 2.41446e-05 1.50139)
(0.000178632 3.52755e-05 1.73335)
(0.000133314 4.43202e-05 1.8736)
(4.8005e-05 4.80092e-05 1.93544)
(-4.80004e-05 4.80091e-05 1.93544)
(-0.00013331 4.43199e-05 1.8736)
(-0.000178628 3.52752e-05 1.73335)
(-0.000167603 2.41443e-05 1.50139)
(0.000167604 -2.41305e-05 1.50139)
(0.000178632 -3.52603e-05 1.73335)
(0.000133314 -4.43063e-05 1.8736)
(4.80049e-05 -4.79966e-05 1.93544)
(-4.80006e-05 -4.79967e-05 1.93544)
(-0.00013331 -4.43067e-05 1.8736)
(-0.000178628 -3.52608e-05 1.73335)
(-0.000167603 -2.4131e-05 1.50139)
(0.000150471 -6.52076e-05 1.44152)
(0.000159573 -9.5102e-05 1.66884)
(0.000120354 -0.000120345 1.80847)
(4.43153e-05 -0.000133306 1.8736)
(-4.4311e-05 -0.000133306 1.8736)
(-0.00012035 -0.000120346 1.80847)
(-0.00015957 -9.51027e-05 1.66884)
(-0.00015047 -6.52084e-05 1.44152)
(0.000121319 -8.7703e-05 1.32351)
(0.000126293 -0.000126285 1.53541)
(9.5111e-05 -0.000159566 1.66884)
(3.52699e-05 -0.000178625 1.73335)
(-3.52658e-05 -0.000178625 1.73335)
(-9.51071e-05 -0.000159566 1.66884)
(-0.000126289 -0.000126286 1.53541)
(-0.000121317 -8.77043e-05 1.32351)
(8.67703e-05 -8.67663e-05 1.15132)
(8.771e-05 -0.000121314 1.32351)
(6.5216e-05 -0.000150466 1.44152)
(2.41395e-05 -0.000167599 1.50139)
(-2.41357e-05 -0.0001676 1.50139)
(-6.52125e-05 -0.000150468 1.44152)
(-8.77072e-05 -0.000121316 1.32351)
(-8.67688e-05 -8.67681e-05 1.15132)
(4.52198e-05 4.52215e-05 1.15119)
(4.53659e-05 6.27506e-05 1.32345)
(3.3563e-05 7.7425e-05 1.44152)
(1.24008e-05 8.60309e-05 1.50143)
(-1.23893e-05 8.60301e-05 1.50143)
(-3.35525e-05 7.74227e-05 1.44152)
(-4.53567e-05 6.27468e-05 1.32345)
(-4.52138e-05 4.52197e-05 1.15119)
(6.27447e-05 4.53694e-05 1.32345)
(6.47589e-05 6.4764e-05 1.53546)
(4.8581e-05 8.14876e-05 1.669)
(1.79926e-05 9.1065e-05 1.73357)
(-1.79814e-05 9.10646e-05 1.73357)
(-4.85708e-05 8.14864e-05 1.669)
(-6.47505e-05 6.47619e-05 1.53546)
(-6.27404e-05 4.53676e-05 1.32345)
(7.74185e-05 3.3567e-05 1.44152)
(8.14826e-05 4.85858e-05 1.669)
(6.12759e-05 6.12804e-05 1.80878)
(2.25392e-05 6.77863e-05 1.874)
(-2.25292e-05 6.7786e-05 1.874)
(-6.12668e-05 6.12796e-05 1.80878)
(-8.14753e-05 4.85844e-05 1.669)
(-7.74153e-05 3.35657e-05 1.44152)
(8.60245e-05 1.24047e-05 1.50143)
(9.10603e-05 1.79972e-05 1.73357)
(6.77821e-05 2.25433e-05 1.874)
(2.43822e-05 2.43859e-05 1.93593)
(-2.43733e-05 2.43857e-05 1.93593)
(-6.77738e-05 2.25425e-05 1.874)
(-9.10536e-05 1.79958e-05 1.73357)
(-8.6022e-05 1.24032e-05 1.50143)
(8.60241e-05 -1.23855e-05 1.50143)
(9.106e-05 -1.79771e-05 1.73357)
(6.7782e-05 -2.25253e-05 1.874)
(2.4382e-05 -2.43698e-05 1.93593)
(-2.43736e-05 -2.43701e-05 1.93593)
(-6.77742e-05 -2.25262e-05 1.874)
(-9.10539e-05 -1.79786e-05 1.73357)
(-8.60223e-05 -1.23873e-05 1.50143)
(7.74172e-05 -3.35491e-05 1.44152)
(8.14818e-05 -4.85668e-05 1.669)
(6.12754e-05 -6.1263e-05 1.80878)
(2.25384e-05 -6.77702e-05 1.874)
(-2.25302e-05 -6.77706e-05 1.874)
(-6.12679e-05 -6.1264e-05 1.80878)
(-8.1476e-05 -4.85684e-05 1.669)
(-7.74157e-05 -3.35511e-05 1.44152)
(6.27416e-05 -4.53526e-05 1.32345)
(6.47572e-05 -6.47459e-05 1.53546)
(4.85798e-05 -8.1471e-05 1.669)
(1.79911e-05 -9.10497e-05 1.73357)
(-1.79832e-05 -9.10501e-05 1.73357)
(-4.85726e-05 -8.14723e-05 1.669)
(-6.47515e-05 -6.47479e-05 1.53546)
(-6.27402e-05 -4.53552e-05 1.32345)
(4.52152e-05 -4.52093e-05 1.15119)
(4.53628e-05 -6.27336e-05 1.32345)
(3.35614e-05 -7.74091e-05 1.44152)
(1.23988e-05 -8.60162e-05 1.50143)
(-1.23915e-05 -8.60169e-05 1.50143)
(-3.35548e-05 -7.7411e-05 1.44152)
(-4.53578e-05 -6.27368e-05 1.32345)
(-4.52132e-05 -4.52128e-05 1.15119)
(2.23448e-05 2.23457e-05 1.15113)
(2.25665e-05 3.11711e-05 1.32341)
(1.67763e-05 3.86105e-05 1.44152)
(6.21453e-06 4.29851e-05 1.50145)
(-6.20253e-06 4.29855e-05 1.50145)
(-1.67654e-05 3.86116e-05 1.44152)
(-2.25577e-05 3.11727e-05 1.32341)
(-2.23394e-05 2.23485e-05 1.15113)
(3.11664e-05 2.25695e-05 1.32341)
(3.24245e-05 3.24288e-05 1.53548)
(2.4436e-05 4.09565e-05 1.66908)
(9.07023e-06 4.58467e-05 1.73369)
(-9.05764e-06 4.58471e-05 1.73369)
(-2.44245e-05 4.09576e-05 1.66908)
(-3.24154e-05 3.24304e-05 1.53548)
(-3.11617e-05 2.25719e-05 1.32341)
(3.86049e-05 1.67803e-05 1.44152)
(4.09523e-05 2.44405e-05 1.66908)
(3.09235e-05 3.09276e-05 1.80894)
(1.13961e-05 3.42588e-05 1.8742)
(-1.13835e-05 3.4259e-05 1.8742)
(-3.0912e-05 3.09282e-05 1.80894)
(-4.09431e-05 2.44415e-05 1.66908)
(-3.85998e-05 1.67816e-05 1.44152)
(4.29792e-05 6.21862e-06 1.50145)
(4.58426e-05 9.07475e-06 1.73369)
(3.4255e-05 1.14001e-05 1.8742)
(1.23419e-05 1.23454e-05 1.93618)
(-1.23296e-05 1.23455e-05 1.93618)
(-3.42435e-05 1.14002e-05 1.8742)
(-4.58332e-05 9.07495e-06 1.73369)
(-4.29737e-05 6.219e-06 1.50145)
(4.29796e-05 -6.19863e-06 1.50145)
(4.58429e-05 -9.05336e-06 1.73369)
(3.42552e-05 -1.13797e-05 1.8742)
(1.2342e-05 -1.23262e-05 1.93618)
(-1.23297e-05 -1.23263e-05 1.93618)
(-3.42438e-05 -1.13802e-05 1.8742)
(-4.58334e-05 -9.054e-06 1.73369)
(-4.29737e-05 -6.19933e-06 1.50145)
(3.8606e-05 -1.67618e-05 1.44152)
(4.09533e-05 -2.44205e-05 1.66908)
(3.09242e-05 -3.09084e-05 1.80894)
(1.13962e-05 -3.42402e-05 1.8742)
(-1.1384e-05 -3.42405e-05 1.8742)
(-3.09129e-05 -3.09093e-05 1.80894)
(-4.09438e-05 -2.4422e-05 1.66908)
(-3.85998e-05 -1.67635e-05 1.44152)
(3.11674e-05 -2.25535e-05 1.32341)
(3.24258e-05 -3.24111e-05 1.53548)
(2.4437e-05 -4.09392e-05 1.66908)
(9.07034e-06 -4.58298e-05 1.73369)
(-9.05842e-06 -4.58303e-05 1.73369)
(-2.44259e-05 -4.09408e-05 1.66908)
(-3.24165e-05 -3.24135e-05 1.53548)
(-3.11611e-05 -2.25563e-05 1.32341)
(2.23446e-05 -2.23348e-05 1.15113)
(2.25674e-05 -3.11561e-05 1.32341)
(1.67774e-05 -3.85954e-05 1.44152)
(6.21464e-06 -4.297e-05 1.50145)
(-6.20352e-06 -4.29708e-05 1.50145)
(-1.67672e-05 -3.85976e-05 1.44152)
(-2.25589e-05 -3.11596e-05 1.32341)
(-2.23388e-05 -2.23381e-05 1.15113)
(1.14952e-05 1.14961e-05 1.1511)
(1.15792e-05 1.59886e-05 1.3234)
(8.59488e-06 1.97626e-05 1.44152)
(3.18701e-06 2.19813e-05 1.50146)
(-3.16501e-06 2.19817e-05 1.50146)
(-8.57473e-06 1.97637e-05 1.44152)
(-1.15625e-05 1.59902e-05 1.3234)
(-1.14845e-05 1.14995e-05 1.1511)
(1.59856e-05 1.15814e-05 1.3234)
(1.65787e-05 1.65817e-05 1.5355)
(1.24815e-05 2.09082e-05 1.66912)
(4.63708e-06 2.33922e-05 1.73375)
(-4.61401e-06 2.33926e-05 1.73375)
(-1.24604e-05 2.09093e-05 1.66912)
(-1.65615e-05 1.65833e-05 1.5355)
(-1.5976e-05 1.1584e-05 1.3234)
(1.97594e-05 8.59763e-06 1.44152)
(2.09053e-05 1.24846e-05 1.66912)
(1.5779e-05 1.57818e-05 1.80902)
(5.82029e-06 1.74777e-05 1.8743)
(-5.79735e-06 1.74779e-05 1.8743)
(-1.57579e-05 1.57824e-05 1.80902)
(-2.08882e-05 1.24856e-05 1.66912)
(-1.975e-05 8.599e-06 1.44152)
(2.19781e-05 3.18991e-06 1.50146)
(2.33894e-05 4.64034e-06 1.73375)
(1.74751e-05 5.82313e-06 1.8743)
(6.30203e-06 6.30447e-06 1.9363)
(-6.27955e-06 6.30448e-06 1.9363)
(-1.74543e-05 5.82308e-06 1.8743)
(-2.33725e-05 4.64023e-06 1.73375)
(-2.19688e-05 3.1899e-06 1.50146)
(2.19786e-05 -3.16202e-06 1.50146)
(2.33899e-05 -4.61064e-06 1.73375)
(1.74754e-05 -5.79441e-06 1.8743)
(6.30205e-06 -6.277e-06 1.9363)
(-6.27982e-06 -6.27728e-06 1.9363)
(-1.74547e-05 -5.79521e-06 1.8743)
(-2.33731e-05 -4.61192e-06 1.73375)
(-2.19696e-05 -3.16358e-06 1.50146)
(1.97608e-05 -8.57179e-06 1.44152)
(2.09066e-05 -1.24569e-05 1.66912)
(1.57797e-05 -1.57547e-05 1.80902)
(5.82027e-06 -1.74513e-05 1.8743)
(-5.79817e-06 -1.74519e-05 1.8743)
(-1.57593e-05 -1.57562e-05 1.80902)
(-2.089e-05 -1.24593e-05 1.66912)
(-1.97518e-05 -8.57468e-06 1.44152)
(1.59872e-05 -1.1559e-05 1.3234)
(1.65803e-05 -1.65574e-05 1.5355)
(1.24825e-05 -2.08844e-05 1.66912)
(4.63687e-06 -2.33689e-05 1.73375)
(-4.61542e-06 -2.33697e-05 1.73375)
(-1.24627e-05 -2.08867e-05 1.66912)
(-1.65641e-05 -1.65609e-05 1.5355)
(-1.59781e-05 -1.15634e-05 1.3234)
(1.14961e-05 -1.14807e-05 1.1511)
(1.15805e-05 -1.59695e-05 1.3234)
(8.59597e-06 -1.97438e-05 1.44152)
(3.18669e-06 -2.1963e-05 1.50146)
(-3.1668e-06 -2.19641e-05 1.50146)
(-8.5777e-06 -1.9747e-05 1.44152)
(-1.15656e-05 -1.59746e-05 1.3234)
(-1.14867e-05 -1.14864e-05 1.1511)
(5.809e-06 5.80936e-06 1.15108)
(5.86571e-06 8.09527e-06 1.32339)
(4.36332e-06 1.00194e-05 1.44152)
(1.62542e-06 1.11522e-05 1.50146)
(-1.59504e-06 1.11538e-05 1.50146)
(-4.33548e-06 1.00238e-05 1.44152)
(-5.84301e-06 8.10191e-06 1.32339)
(-5.79364e-06 5.81694e-06 1.15108)
(8.09266e-06 5.8675e-06 1.32339)
(8.41578e-06 8.41826e-06 1.5355)
(6.34823e-06 1.0627e-05 1.66915)
(2.367e-06 1.18962e-05 1.73378)
(-2.33375e-06 1.18975e-05 1.73378)
(-6.31768e-06 1.06306e-05 1.66915)
(-8.39079e-06 8.42375e-06 1.5355)
(-8.07679e-06 5.87433e-06 1.32339)
(1.00162e-05 4.36587e-06 1.44152)
(1.06247e-05 6.35102e-06 1.66915)
(8.03296e-06 8.03541e-06 1.80906)
(2.97219e-06 8.90279e-06 1.87436)
(-2.93761e-06 8.90355e-06 1.87436)
(-8.00101e-06 8.03771e-06 1.80906)
(-1.05983e-05 6.35463e-06 1.66915)
(-9.99896e-06 4.37029e-06 1.44152)
(1.11487e-05 1.62821e-06 1.50146)
(1.18938e-05 2.36996e-06 1.73378)
(8.90056e-06 2.97471e-06 1.87436)
(3.21909e-06 3.22125e-06 1.93637)
(-3.18415e-06 3.22156e-06 1.93637)
(-8.86801e-06 2.97562e-06 1.87436)
(-1.18667e-05 2.37149e-06 1.73378)
(-1.11306e-05 1.63018e-06 1.50146)
(1.11502e-05 -1.59226e-06 1.50146)
(1.1895e-05 -2.33081e-06 1.73378)
(8.90133e-06 -2.9351e-06 1.87436)
(3.21942e-06 -3.182e-06 1.93637)
(-3.18435e-06 -3.1822e-06 1.93637)
(-8.86861e-06 -2.93559e-06 1.87436)
(-1.18676e-05 -2.33148e-06 1.73378)
(-1.11314e-05 -1.59298e-06 1.50146)
(1.00204e-05 -4.33283e-06 1.44152)
(1.06281e-05 -6.31479e-06 1.66915)
(8.03524e-06 -7.99846e-06 1.80906)
(2.97311e-06 -8.86574e-06 1.87436)
(-2.9381e-06 -8.86638e-06 1.87436)
(-8.00276e-06 -8.00034e-06 1.80906)
(-1.06007e-05 -6.31758e-06 1.66915)