/*--------------------------------*- C++ -*----------------------------------*\
| =========                 |                                                 |
| \\      /  F ield         | OpenFOAM: The Open Source CFD Toolbox           |
|  \\    /   O peration     | Version:  2406                                  |
|   \\  /    A nd           | Website:  www.openfoam.com                      |
|    \\/     M anipulation  |                                                 |
\*---------------------------------------------------------------------------*/
FoamFile
{
    version     2.0;
    format      ascii;
    arch        "LSB;label=32;scalar=64";
    class       volScalarField;
    location    "1";
    object      div(phi);
}
// * * * * * * * * * * * * * * * * * * * * * * * * * * * * * * * * * * * * * //

dimensions      [0 0 -1 0 0 0 0];

internalField   nonuniform List<scalar> 
25000
(
4.7422e-05
4.37305e-05
4.45316e-05
4.3905e-05
4.31841e-05
4.22151e-05
4.16454e-05
4.14095e-05
4.12374e-05
3.46493e-05
4.20315e-05
3.7255e-05
3.75051e-05
3.74382e-05
3.6434e-05
3.53264e-05
3.48112e-05
3.4811e-05
3.37195e-05
2.73526e-05
4.07675e-05
3.60169e-05
3.69031e-05
3.71171e-05
3.59298e-05
3.46831e-05
3.42866e-05
3.39936e-05
3.3431e-05
2.70236e-05
3.92636e-05
3.45403e-05
3.57706e-05
3.5953e-05
3.50891e-05
3.37448e-05
3.33966e-05
3.36174e-05
3.24393e-05
2.67396e-05
3.81535e-05
3.31324e-05
3.44155e-05
3.50424e-05
3.39534e-05
3.30515e-05
3.27643e-05
3.25434e-05
3.20266e-05
2.6108e-05
3.6872e-05
3.19189e-05
3.3142e-05
3.34704e-05
3.2986e-05
3.17264e-05
3.15332e-05
3.18678e-05
3.09323e-05
2.52656e-05
3.58026e-05
3.0321e-05
3.13275e-05
3.19796e-05
3.07232e-05
3.0179e-05
3.05212e-05
3.02484e-05
2.96857e-05
2.43617e-05
3.39473e-05
2.88709e-05
2.95329e-05
2.94113e-05
2.88565e-05
2.90245e-05
2.82965e-05
2.90826e-05
2.87694e-05
2.31148e-05
3.18869e-05
2.62893e-05
2.67206e-05
2.67288e-05
2.68304e-05
2.59966e-05
2.68525e-05
2.71176e-05
2.63552e-05
2.11818e-05
2.59561e-05
2.07177e-05
2.11463e-05
2.13798e-05
2.11376e-05
2.14581e-05
2.14588e-05
2.14117e-05
2.06919e-05
1.63515e-05
4.27686e-05
3.92603e-05
3.91553e-05
3.80695e-05
3.73952e-05
3.67099e-05
3.71073e-05
3.82703e-05
3.85782e-05
3.33875e-05
3.72635e-05
3.19271e-05
3.17901e-05
3.13457e-05
3.04756e-05
3.0157e-05
3.01489e-05
3.08398e-05
3.17934e-05
2.65933e-05
3.61292e-05
3.08963e-05
3.09233e-05
3.13368e-05
3.06957e-05
2.96308e-05
2.98767e-05
3.04515e-05
3.05493e-05
2.63269e-05
3.49721e-05
2.95939e-05
3.08655e-05
3.11579e-05
3.05113e-05
2.98569e-05
2.9597e-05
2.98907e-05
3.00236e-05
2.58244e-05
3.49026e-05
2.93843e-05
3.01605e-05
3.10736e-05
3.04001e-05
2.95327e-05
2.95154e-05
2.95932e-05
2.93899e-05
2.53631e-05
3.45005e-05
2.87811e-05
3.00206e-05
3.03669e-05
2.99336e-05
2.90807e-05
2.88106e-05
2.90803e-05
2.90003e-05
2.48229e-05
3.51166e-05
2.86141e-05
2.90217e-05
2.96313e-05
2.85777e-05
2.78912e-05
2.824e-05
2.82344e-05
2.82594e-05
2.44672e-05
3.44809e-05
2.83026e-05
2.83151e-05
2.78977e-05
2.71591e-05
2.71685e-05
2.66581e-05
2.74695e-05
2.83148e-05
2.37758e-05
3.39982e-05
2.72404e-05
2.68229e-05
2.63158e-05
2.58524e-05
2.51694e-05
2.57715e-05
2.68086e-05
2.67438e-05
2.19812e-05
2.80801e-05
2.21947e-05
2.22395e-05
2.19413e-05
2.1484e-05
2.15549e-05
2.17489e-05
2.19461e-05
2.13591e-05
1.69194e-05
5.76335e-05
5.25709e-05
5.20515e-05
4.97391e-05
4.7366e-05
4.53999e-05
4.48251e-05
4.47298e-05
4.49968e-05
3.77746e-05
4.9429e-05
4.1878e-05
4.01102e-05
3.80045e-05
3.59005e-05
3.44026e-05
3.41202e-05
3.52183e-05
3.55045e-05
2.95683e-05
4.62712e-05
3.81105e-05
3.64414e-05
3.50665e-05
3.27826e-05
3.12822e-05
3.15866e-05
3.24329e-05
3.35998e-05
2.86668e-05
4.28037e-05
3.47981e-05
3.39077e-05
3.22421e-05
3.05762e-05
2.92672e-05
2.92858e-05
3.08392e-05
3.17468e-05
2.78472e-05
4.11248e-05
3.28861e-05
3.17352e-05
3.09349e-05
2.91142e-05
2.8031e-05
2.8423e-05
2.94155e-05
3.08213e-05
2.70632e-05
3.96741e-05
3.18027e-05
3.10276e-05
2.97749e-05
2.84588e-05
2.73564e-05
2.74984e-05
2.91225e-05
3.02207e-05
2.6445e-05
3.9574e-05
3.13166e-05
3.03148e-05
2.93696e-05
2.75313e-05
2.66515e-05
2.77192e-05
2.86418e-05
2.98745e-05
2.607e-05
3.84302e-05
3.11736e-05
3.00794e-05
2.86246e-05
2.70886e-05
2.72653e-05
2.70134e-05
2.89441e-05
3.02153e-05
2.53727e-05
3.70577e-05
2.98436e-05
2.89172e-05
2.77759e-05
2.70482e-05
2.61145e-05
2.73762e-05
2.8623e-05
2.88322e-05
2.3467e-05
3.01952e-05
2.40412e-05
2.40107e-05
2.35342e-05
2.28502e-05
2.30411e-05
2.33014e-05
2.36312e-05
2.3069e-05
1.79551e-05
3.52719e-05
3.35575e-05
3.50993e-05
3.48645e-05
3.56028e-05
3.56377e-05
3.69025e-05
3.75326e-05
3.76538e-05
3.18379e-05
3.13238e-05
2.81041e-05
2.78662e-05
2.79571e-05
2.75152e-05
2.78971e-05
2.85011e-05
3.00426e-05
3.08614e-05
2.56021e-05
3.06931e-05
2.63411e-05
2.60327e-05
2.60832e-05
2.5401e-05
2.51266e-05
2.67219e-05
2.83951e-05
2.9293e-05
2.54945e-05
2.95893e-05
2.48395e-05
2.51712e-05
2.41512e-05
2.33341e-05
2.35675e-05
2.47511e-05
2.70326e-05
2.86674e-05
2.50312e-05
3.03401e-05
2.49696e-05
2.39415e-05
2.36982e-05
2.23014e-05
2.22359e-05
2.43054e-05
2.65005e-05
2.77996e-05
2.48519e-05
3.00585e-05
2.48846e-05
2.51422e-05
2.36653e-05
2.27272e-05
2.27991e-05
2.40958e-05
2.64509e-05
2.80848e-05
2.44752e-05
3.21416e-05
2.62549e-05
2.54758e-05
2.52197e-05
2.3739e-05
2.34869e-05
2.53029e-05
2.68245e-05
2.78289e-05
2.43728e-05
3.16746e-05
2.70329e-05
2.66666e-05
2.56996e-05
2.46118e-05
2.51718e-05
2.52755e-05
2.71698e-05
2.83953e-05
2.37537e-05
3.22319e-05
2.63855e-05
2.6394e-05
2.54793e-05
2.51543e-05
2.44556e-05
2.56417e-05
2.69174e-05
2.68199e-05
2.16102e-05
2.58819e-05
2.12154e-05
2.14876e-05
2.14726e-05
2.10317e-05
2.13056e-05
2.15295e-05
2.1779e-05
2.09746e-05
1.63309e-05
5.49627e-05
5.00611e-05
5.00508e-05
4.79205e-05
4.52029e-05
4.25377e-05
4.11919e-05
4.06448e-05
3.96657e-05
3.34215e-05
4.61457e-05
3.96767e-05
3.80172e-05
3.54403e-05
3.3163e-05
3.1383e-05
3.06482e-05
3.13353e-05
3.19964e-05
2.6082e-05
4.31618e-05
3.55862e-05
3.35854e-05
3.21119e-05
2.91896e-05
2.74342e-05
2.82353e-05
2.92795e-05
2.98053e-05
2.5715e-05
3.89755e-05
3.19163e-05
3.10147e-05
2.80833e-05
2.5583e-05
2.47107e-05
2.5343e-05
2.74819e-05
2.89304e-05
2.50388e-05
3.76074e-05
3.03114e-05
2.8151e-05
2.62021e-05
2.30464e-05
2.22126e-05
2.45466e-05
2.64682e-05
2.78578e-05
2.46171e-05
3.61781e-05
2.9111e-05
2.81509e-05
2.53673e-05
2.29295e-05
2.26648e-05
2.38321e-05
2.64631e-05
2.77719e-05
2.42151e-05
3.63289e-05
2.9421e-05
2.78651e-05
2.62507e-05
2.40468e-05
2.31086e-05
2.52074e-05
2.61596e-05
2.77456e-05
2.37536e-05
3.56812e-05
2.91031e-05
2.81358e-05
2.62765e-05
2.43768e-05
2.48378e-05
2.4336e-05
2.70047e-05
2.75478e-05
2.33123e-05
3.40219e-05
2.81549e-05
2.66535e-05
2.53641e-05
2.44231e-05
2.32328e-05
2.50395e-05
2.56467e-05
2.64483e-05
2.07905e-05
2.76942e-05
2.20073e-05
2.17545e-05
2.10422e-05
2.02083e-05
2.0514e-05
2.06574e-05
2.12896e-05
2.086e-05
1.58678e-05
1.79097e-05
1.80262e-05
2.00908e-05
2.1104e-05
2.27791e-05
2.3413e-05
2.5442e-05
2.72479e-05
2.65226e-05
2.38215e-05
1.65396e-05
1.64639e-05
1.72599e-05
1.77919e-05
1.79825e-05
1.95921e-05
1.99387e-05
2.15497e-05
2.39533e-05
1.95101e-05
1.93159e-05
1.71287e-05
1.66134e-05
1.77652e-05
1.77473e-05
1.74801e-05
2.0139e-05
2.22372e-05
2.22557e-05
2.0554e-05
1.93639e-05
1.67455e-05
1.81622e-05
1.6992e-05
1.6597e-05
1.78967e-05
1.88386e-05
2.12349e-05
2.37704e-05
2.04419e-05
2.22349e-05
1.89118e-05
1.73533e-05
1.77277e-05
1.64786e-05
1.63931e-05
1.96124e-05
2.20481e-05
2.27678e-05
2.10073e-05
2.26014e-05
1.9021e-05
2.01018e-05
1.82502e-05
1.74184e-05
1.83147e-05
1.96798e-05
2.22398e-05
2.41135e-05
2.0933e-05
2.55887e-05
2.17451e-05
2.04972e-05
2.07155e-05
1.9428e-05
1.92999e-05
2.16714e-05
2.30075e-05
2.41064e-05
2.09206e-05
2.58105e-05
2.22632e-05
2.23869e-05
2.13135e-05
2.05218e-05
2.14775e-05
2.13113e-05
2.38144e-05
2.43243e-05
2.07357e-05
2.65821e-05
2.22234e-05
2.19324e-05
2.10956e-05
2.10244e-05
2.0216e-05
2.20689e-05
2.2635e-05
2.32246e-05
1.80817e-05
2.13448e-05
1.74701e-05
1.74757e-05
1.75119e-05
1.71118e-05
1.77285e-05
1.78749e-05
1.85519e-05
1.79171e-05
1.37507e-05
4.17547e-05
3.80566e-05
3.80302e-05
3.65995e-05
3.46079e-05
3.26993e-05
3.2019e-05
3.25811e-05
3.10812e-05
2.74063e-05
3.6164e-05
3.1115e-05
2.95943e-05
2.75514e-05
2.56579e-05
2.46582e-05
2.39223e-05
2.46887e-05
2.64334e-05
2.15029e-05
3.46351e-05
2.83962e-05
2.67756e-05
2.55829e-05
2.31522e-05
2.15992e-05
2.28806e-05
2.42573e-05
2.43522e-05
2.18535e-05
3.1411e-05
2.57987e-05
2.49635e-05
2.2468e-05
2.05109e-05
2.01495e-05
2.06224e-05
2.276e-05
2.46356e-05
2.12922e-05
3.01529e-05
2.42627e-05
2.26272e-05
2.11473e-05
1.84638e-05
1.7847e-05
2.04274e-05
2.23753e-05
2.34222e-05
2.12356e-05
2.86921e-05
2.32619e-05
2.2544e-05
2.01085e-05
1.84725e-05
1.85191e-05
1.97875e-05
2.23992e-05
2.38939e-05
2.08441e-05
2.85624e-05
2.31127e-05
2.17299e-05
2.10074e-05
1.90673e-05
1.88953e-05
2.12631e-05
2.22328e-05
2.39559e-05
2.05596e-05
2.75251e-05
2.24013e-05
2.181e-05
2.03092e-05
1.93408e-05
2.05298e-05
2.00579e-05
2.35616e-05
2.37012e-05
2.04145e-05
2.60057e-05
2.12202e-05
2.03315e-05
1.93688e-05
1.96008e-05
1.84383e-05
2.15698e-05
2.1635e-05
2.32458e-05
1.80227e-05
2.09436e-05
1.67083e-05
1.64222e-05
1.63848e-05
1.57851e-05
1.69583e-05
1.72134e-05
1.84495e-05
1.84834e-05
1.37703e-05
1.5686e-05
1.58652e-05
1.71654e-05
1.72477e-05
1.8551e-05
1.9383e-05
2.10793e-05
2.35753e-05
2.28144e-05
2.09854e-05
1.57999e-05
1.4913e-05
1.44715e-05
1.54081e-05
1.50781e-05
1.65224e-05
1.72199e-05
1.85353e-05
2.08083e-05
1.72985e-05
1.65646e-05
1.46335e-05
1.50689e-05
1.50877e-05
1.51245e-05
1.5239e-05
1.71857e-05
1.93813e-05
1.96899e-05
1.80799e-05
1.70749e-05
1.46909e-05
1.46553e-05
1.44161e-05
1.40651e-05
1.48722e-05
1.63299e-05
1.84428e-05
2.02844e-05
1.78413e-05
1.70539e-05
1.41711e-05
1.41906e-05
1.3938e-05
1.30319e-05
1.36953e-05
1.60628e-05
1.83736e-05
1.9497e-05
1.78187e-05
1.67087e-05
1.39719e-05
1.41546e-05
1.32273e-05
1.34792e-05
1.38288e-05
1.59862e-05
1.83636e-05
1.97022e-05
1.74472e-05
1.6824e-05
1.36279e-05
1.3214e-05
1.45503e-05
1.32926e-05
1.4947e-05
1.68435e-05
1.81871e-05
1.98589e-05
1.71167e-05
1.51733e-05
1.31378e-05
1.36802e-05
1.33842e-05
1.44789e-05
1.57791e-05
1.62123e-05
1.94363e-05
1.93722e-05
1.69346e-05
1.53238e-05
1.17686e-05
1.33155e-05
1.34314e-05
1.50111e-05
1.46799e-05
1.77474e-05
1.7586e-05
1.90265e-05
1.45942e-05
1.11608e-05
9.945e-06
1.05065e-05
1.19337e-05
1.20715e-05
1.37301e-05
1.39001e-05
1.51134e-05
1.47712e-05
1.11144e-05
3.60883e-05
3.30954e-05
3.23328e-05
2.9588e-05
2.78126e-05
2.68488e-05
2.61171e-05
2.71457e-05
2.6627e-05
2.32337e-05
3.30773e-05
2.73726e-05
2.49437e-05
2.39228e-05
2.20671e-05
2.06304e-05
2.13504e-05
2.15211e-05
2.18931e-05
1.90236e-05
2.86089e-05
2.39857e-05
2.46096e-05
2.16779e-05
1.99797e-05
1.96542e-05
1.90177e-05
2.06114e-05
2.15931e-05
1.85801e-05
2.77742e-05
2.30419e-05
1.97769e-05
1.95334e-05
1.75679e-05
1.60956e-05
1.80408e-05
1.92576e-05
1.94807e-05
1.79342e-05
2.30625e-05
1.78718e-05
1.90698e-05
1.61292e-05
1.41637e-05
1.49591e-05
1.53055e-05
1.72562e-05
1.89925e-05
1.67193e-05
2.16414e-05
1.7131e-05
1.44894e-05
1.39571e-05
1.34445e-05
1.23087e-05
1.49046e-05
1.66557e-05
1.71968e-05
1.58373e-05
1.74069e-05
1.2522e-05
1.27228e-05
1.28491e-05
1.11756e-05
1.32042e-05
1.38189e-05
1.52274e-05
1.71171e-05
1.50014e-05
1.4258e-05
1.07309e-05
1.06804e-05
1.02756e-05
1.17375e-05
1.218e-05
1.32916e-05
1.59451e-05
1.61342e-05
1.4379e-05
1.18484e-05
8.59299e-06
9.53501e-06
1.04027e-05
1.14911e-05
1.18914e-05
1.41741e-05
1.44092e-05
1.57165e-05
1.26008e-05
7.97855e-06
7.23452e-06
8.1577e-06
9.56179e-06
9.92353e-06
1.13333e-05
1.15789e-05
1.27024e-05
1.23765e-05
9.59712e-06
2.64405e-05
2.62929e-05
2.51609e-05
2.3573e-05
2.34844e-05
2.42429e-05
2.45006e-05
2.62506e-05
2.69256e-05
2.24924e-05
2.74471e-05
2.27013e-05
2.0824e-05
2.119e-05
1.9666e-05
1.94215e-05
2.12991e-05
2.15993e-05
2.11494e-05
1.86797e-05
2.44514e-05
2.1374e-05
2.23675e-05
1.936e-05
1.87841e-05
1.93342e-05
1.8304e-05
2.00155e-05
2.15805e-05
1.75317e-05
2.62095e-05
2.14814e-05
1.79436e-05
1.8632e-05
1.66197e-05
1.5063e-05
1.7895e-05
1.8647e-05
1.80315e-05
1.68056e-05
2.11478e-05
1.63761e-05
1.82233e-05
1.46201e-05
1.3143e-05
1.45349e-05
1.39653e-05
1.59319e-05
1.78857e-05
1.49988e-05
2.05463e-05
1.55328e-05
1.23507e-05
1.24709e-05
1.22645e-05
1.05877e-05
1.39442e-05
1.49751e-05
1.50707e-05
1.39506e-05
1.4722e-05
9.74536e-06
1.02583e-05
1.08709e-05
9.09225e-06
1.22213e-05
1.17063e-05
1.34175e-05
1.48954e-05
1.30247e-05
1.08582e-05
7.32898e-06
7.76626e-06
7.65567e-06
1.03619e-05
1.00218e-05
1.21392e-05
1.35805e-05
1.39938e-05
1.21846e-05
8.16646e-06
4.87475e-06
6.82316e-06
8.5609e-06
9.75929e-06
1.10583e-05
1.23314e-05
1.28004e-05
1.33636e-05
1.09334e-05
4.06952e-06
4.51015e-06
6.11221e-06
8.18959e-06
9.00435e-06
1.03011e-05
1.04933e-05
1.11658e-05
1.03743e-05
8.29966e-06
3.16424e-05
3.0436e-05
2.87238e-05
2.64132e-05
2.60762e-05
2.68181e-05
2.71686e-05
2.75618e-05
2.93127e-05
2.33271e-05
3.22467e-05
2.52818e-05
2.35806e-05
2.37468e-05
2.24665e-05
2.142e-05
2.35929e-05
2.3824e-05
2.17168e-05
1.98482e-05
2.68265e-05
2.34936e-05
2.53129e-05
2.16452e-05
2.10252e-05
2.1739e-05
1.97578e-05
2.09315e-05
2.29782e-05
1.80302e-05
2.94119e-05
2.38523e-05
1.95636e-05
2.10082e-05
1.85709e-05
1.63212e-05
1.93637e-05
1.95991e-05
1.81608e-05
1.7159e-05
2.3129e-05
1.75829e-05
2.05618e-05
1.61217e-05
1.45783e-05
1.59963e-05
1.45216e-05
1.64089e-05
1.80858e-05
1.51045e-05
2.28828e-05
1.72752e-05
1.32161e-05
1.40354e-05
1.34415e-05
1.13211e-05
1.48268e-05
1.49117e-05
1.51746e-05
1.38275e-05
1.60838e-05
1.0082e-05
1.15302e-05
1.17013e-05
1.00779e-05
1.32027e-05
1.16645e-05
1.41215e-05
1.42694e-05
1.33264e-05
1.18168e-05
7.92545e-06
8.19812e-06
8.52339e-06
1.13909e-05
1.03961e-05
1.34602e-05
1.28704e-05
1.46939e-05
1.20394e-05
8.60998e-06
4.97527e-06
7.37215e-06
9.66911e-06
1.05088e-05
1.26857e-05
1.21671e-05
1.41224e-05
1.29866e-05
1.1818e-05
4.34182e-06
4.97796e-06
7.12153e-06
9.23426e-06
1.03672e-05
1.10216e-05
1.14467e-05
1.12937e-05
1.00808e-05
8.72326e-06
4.57874e-05
4.29975e-05
3.95032e-05
3.76315e-05
3.56682e-05
3.48396e-05
3.46931e-05
3.36051e-05
3.45748e-05
2.72629e-05
4.35989e-05
3.40048e-05
3.29245e-05
3.07494e-05
2.86383e-05
2.71585e-05
2.79727e-05
2.82766e-05
2.62899e-05
2.29214e-05
3.94366e-05
3.33345e-05
3.23998e-05
2.87335e-05
2.6808e-05
2.60999e-05
2.46397e-05
2.52139e-05
2.67042e-05
2.11091e-05
4.05309e-05
3.18763e-05
2.80664e-05
2.74156e-05
2.3689e-05
2.12741e-05
2.32812e-05
2.35458e-05
2.24932e-05
2.00622e-05
3.49379e-05
2.69945e-05
2.79358e-05
2.26782e-05
1.9933e-05
1.99943e-05
1.91406e-05
2.07773e-05
2.18572e-05
1.82169e-05
3.47857e-05
2.60426e-05
2.16416e-05
2.11034e-05
1.86627e-05
1.65568e-05
1.92745e-05
1.90755e-05
1.97501e-05
1.6904e-05
2.82216e-05
2.0008e-05
2.03265e-05
1.87556e-05
1.65517e-05
1.80942e-05
1.66611e-05
1.91127e-05
1.83362e-05
1.66937e-05
2.51891e-05
1.76435e-05
1.71142e-05
1.62901e-05
1.74952e-05
1.60255e-05
1.87739e-05
1.71543e-05
1.97025e-05
1.52582e-05
2.0211e-05
1.48761e-05
1.52136e-05
1.67372e-05
1.61637e-05
1.80125e-05
1.66223e-05
1.92433e-05
1.72514e-05
1.53374e-05
1.52248e-05
1.25108e-05
1.39598e-05
1.46225e-05
1.52462e-05
1.50995e-05
1.56315e-05
1.48738e-05
1.36242e-05
1.12491e-05
2.69589e-05
2.78806e-05
2.73845e-05
2.81685e-05
2.99931e-05
3.15456e-05
3.44576e-05
3.44457e-05
3.60841e-05
2.8474e-05
2.83417e-05
2.3711e-05
2.50349e-05
2.55116e-05
2.54191e-05
2.66764e-05
2.80881e-05
2.97657e-05
2.86712e-05
2.42512e-05
2.89979e-05
2.58263e-05
2.5978e-05
2.52888e-05
2.53717e-05
2.55574e-05
2.64254e-05
2.75039e-05
2.88343e-05
2.32038e-05
3.20159e-05
2.60053e-05
2.54696e-05
2.54687e-05
2.34248e-05
2.30697e-05
2.5197e-05
2.64295e-05
2.63281e-05
2.25936e-05
3.1801e-05
2.56526e-05
2.61378e-05
2.35475e-05
2.17688e-05
2.201e-05
2.30115e-05
2.50485e-05
2.57747e-05
2.16485e-05
3.31973e-05
2.62115e-05
2.45354e-05
2.38614e-05
2.18692e-05
2.0994e-05
2.36022e-05
2.39784e-05
2.51177e-05
2.0787e-05
3.19841e-05
2.46354e-05
2.48101e-05
2.39278e-05
2.20651e-05
2.2995e-05
2.25802e-05
2.50382e-05
2.38017e-05
2.09956e-05
3.1094e-05
2.43722e-05
2.40741e-05
2.33735e-05
2.36434e-05
2.26588e-05
2.48385e-05
2.31691e-05
2.57526e-05
1.96464e-05
2.84707e-05
2.21902e-05
2.29764e-05
2.35849e-05
2.30553e-05
2.41396e-05
2.27703e-05
2.53871e-05
2.28092e-05
1.93531e-05
2.29001e-05
1.89481e-05
2.00467e-05
2.04075e-05
2.06652e-05
2.0239e-05
2.06143e-05
1.93757e-05
1.77823e-05
1.40969e-05
7.13222e-05
6.45544e-05
6.19284e-05
6.00813e-05
5.62083e-05
5.2754e-05
5.20391e-05
4.94714e-05
4.85428e-05
3.94317e-05
6.18713e-05
5.02378e-05
4.98143e-05
4.50709e-05
4.24468e-05
4.03098e-05
3.9202e-05
4.00728e-05
3.97046e-05
3.25477e-05
5.8449e-05
4.80676e-05
4.46282e-05
4.24801e-05
3.88203e-05
3.6411e-05
3.70055e-05
3.77238e-05
3.82254e-05
3.18071e-05
5.44683e-05
4.35146e-05
4.23011e-05
3.86684e-05
3.45901e-05
3.29665e-05
3.40144e-05
3.57548e-05
3.64558e-05
3.10473e-05
5.24785e-05
4.17443e-05
3.9489e-05
3.57822e-05
3.13968e-05
3.01046e-05
3.21097e-05
3.41929e-05
3.52448e-05
3.00509e-05
5.1409e-05
4.07693e-05
3.85257e-05
3.55608e-05
3.09917e-05
3.00269e-05
3.15356e-05
3.32201e-05
3.45473e-05
2.90528e-05
5.08585e-05
4.02528e-05
3.91865e-05
3.53497e-05
3.27391e-05
3.06754e-05
3.16342e-05
3.33613e-05
3.30351e-05
2.86564e-05
5.08993e-05
4.02264e-05
3.83334e-05
3.60586e-05
3.27579e-05
3.1685e-05
3.21712e-05
3.16186e-05
3.42275e-05
2.69409e-05
4.69847e-05
3.88333e-05
3.5992e-05
3.47821e-05
3.18162e-05
3.14789e-05
3.00311e-05
3.2881e-05
3.07925e-05
2.55443e-05
3.97892e-05
3.07608e-05
3.07226e-05
2.85991e-05
2.77436e-05
2.62482e-05
2.66486e-05
2.55202e-05
2.43644e-05
1.88868e-05
4.03085e-05
4.04412e-05
4.32034e-05
4.41601e-05
4.69963e-05
4.82581e-05
5.08815e-05
5.30113e-05
5.29826e-05
4.36698e-05
3.82587e-05
3.53355e-05
3.62342e-05
3.75536e-05
3.73446e-05
3.93634e-05
4.12444e-05
4.31446e-05
4.47095e-05
3.57475e-05
4.07698e-05
3.53468e-05
3.48005e-05
3.60058e-05
3.59367e-05
3.62216e-05
3.89873e-05
4.19676e-05
4.29011e-05
3.57329e-05
4.02403e-05
3.37837e-05
3.59226e-05
3.42358e-05
3.3e-05
3.3794e-05
3.70387e-05
4.02158e-05
4.19249e-05
3.5562e-05
4.40681e-05
3.64771e-05
3.43532e-05
3.41845e-05
3.14587e-05
3.20254e-05
3.58823e-05
3.92064e-05
4.1535e-05
3.48635e-05
4.45264e-05
3.70709e-05
3.82695e-05
3.54295e-05
3.28728e-05
3.29449e-05
3.57821e-05
3.95631e-05
4.03634e-05
3.45461e-05
5.00725e-05
4.11114e-05
3.99716e-05
3.83786e-05
3.58749e-05
3.4761e-05
3.74107e-05
3.84109e-05
4.0471e-05
3.33587e-05
5.08329e-05
4.32735e-05
4.2136e-05
4.04232e-05
3.7248e-05
3.71727e-05
3.65486e-05
3.90235e-05
3.93119e-05
3.21413e-05
5.1523e-05
4.22445e-05
4.16157e-05
3.94447e-05
3.76561e-05
3.58694e-05
3.65885e-05
3.72397e-05
3.70034e-05
2.85079e-05
4.23611e-05
3.40828e-05
3.41847e-05
3.30652e-05
3.18117e-05
3.10438e-05
3.07427e-05
3.02629e-05
2.8708e-05
2.14276e-05
9.19339e-05
8.38425e-05
8.43175e-05
8.1602e-05
7.85991e-05
7.53617e-05
7.34226e-05
7.36753e-05
7.23249e-05
5.95277e-05
7.87475e-05
6.71797e-05
6.49439e-05
6.21805e-05
5.85568e-05
5.6851e-05
5.72375e-05
5.80983e-05
5.9043e-05
4.74506e-05
7.457e-05
6.11866e-05
5.8151e-05
5.64905e-05
5.27615e-05
5.10292e-05
5.21982e-05
5.48711e-05
5.60527e-05
4.65659e-05
6.73881e-05
5.50057e-05
5.4802e-05
5.03629e-05
4.65708e-05
4.51019e-05
4.82758e-05
5.17661e-05
5.32667e-05
4.59487e-05
6.65474e-05
5.34484e-05
4.98617e-05
4.72963e-05
4.17978e-05
4.16173e-05
4.53901e-05
4.89737e-05
5.25116e-05
4.43529e-05
6.36223e-05
5.17861e-05
5.123e-05
4.65722e-05
4.21562e-05
4.12497e-05
4.41156e-05
4.92463e-05
4.98334e-05
4.37487e-05
6.68068e-05
5.35565e-05
5.18795e-05
4.8518e-05
4.47799e-05
4.24732e-05
4.58418e-05
4.64837e-05
5.01747e-05
4.17531e-05
6.52148e-05
5.49231e-05
5.26959e-05
5.01196e-05
4.53308e-05
4.512e-05
4.3614e-05
4.77833e-05
4.7812e-05
4.02865e-05
6.50592e-05
5.31709e-05
5.1488e-05
4.84332e-05
4.55162e-05
4.28944e-05
4.41655e-05
4.48236e-05
4.55324e-05
3.54458e-05
5.25779e-05
4.18349e-05
4.18931e-05
4.00897e-05
3.82212e-05
3.72838e-05
3.69298e-05
3.71029e-05
3.55997e-05
2.71107e-05
8.17847e-05
7.75498e-05
8.05549e-05
7.83255e-05
7.88053e-05
7.83751e-05
7.80196e-05
8.0018e-05
8.00452e-05
6.57261e-05
7.3118e-05
6.49137e-05
6.31856e-05
6.3463e-05
6.11865e-05
6.04535e-05
6.29981e-05
6.40281e-05
6.44897e-05
5.24206e-05
6.97307e-05
5.97025e-05
5.92376e-05
5.78293e-05
5.56517e-05
5.52813e-05
5.62344e-05
5.99182e-05
6.16185e-05
5.13245e-05
6.63912e-05
5.56307e-05
5.53758e-05
5.27495e-05
4.93512e-05
4.81805e-05
5.26285e-05
5.63334e-05
5.81045e-05
5.05725e-05
6.58977e-05
5.41676e-05
5.19644e-05
4.94348e-05
4.44777e-05
4.50632e-05
4.89235e-05
5.3638e-05
5.73528e-05
4.91814e-05
6.43964e-05
5.32843e-05
5.29893e-05
4.89682e-05
4.5227e-05
4.44497e-05
4.84553e-05
5.39133e-05
5.51101e-05
4.88179e-05
6.7597e-05
5.48683e-05
5.37968e-05
5.17687e-05
4.8018e-05
4.68963e-05
5.03506e-05
5.2021e-05
5.58198e-05
4.71756e-05
6.53685e-05
5.64173e-05
5.51298e-05
5.32393e-05
4.97606e-05
4.98477e-05
4.91936e-05
5.36864e-05
5.39705e-05
4.60593e-05
6.6272e-05
5.43956e-05
5.46037e-05
5.23961e-05
5.04492e-05
4.84619e-05
4.99167e-05
5.10733e-05
5.15355e-05
4.04162e-05
5.21904e-05
4.31989e-05
4.42701e-05
4.38607e-05
4.26058e-05
4.22122e-05
4.1954e-05
4.23236e-05
3.98856e-05
3.12573e-05
9.91522e-05
9.38202e-05
9.59036e-05
9.46503e-05
9.32897e-05
9.15855e-05
9.09768e-05
9.01603e-05
9.11534e-05
7.33383e-05
8.79713e-05
7.73914e-05
7.6011e-05
7.44357e-05
7.12461e-05
6.97191e-05
7.05185e-05
7.2623e-05
7.11645e-05
5.77982e-05
8.56395e-05
7.23517e-05
6.99172e-05
6.7981e-05
6.4052e-05
6.21857e-05
6.36943e-05
6.53644e-05
6.75049e-05
5.5639e-05
8.09458e-05
6.68986e-05
6.60208e-05
6.15006e-05
5.64372e-05
5.47708e-05
5.74247e-05
6.16037e-05
6.31554e-05
5.4152e-05
8.01574e-05
6.5146e-05
6.15714e-05
5.73212e-05
5.0886e-05
4.98864e-05
5.45604e-05
5.86118e-05
6.13652e-05
5.30084e-05
7.83834e-05
6.32711e-05
6.16872e-05
5.62622e-05
5.1205e-05
5.03794e-05
5.38684e-05
5.8552e-05
6.09395e-05
5.2493e-05
7.93184e-05
6.38513e-05
6.14178e-05
5.90253e-05
5.4172e-05
5.30672e-05
5.65263e-05
5.91223e-05
6.09181e-05
5.23048e-05
7.65186e-05
6.36126e-05
6.23177e-05
5.93222e-05
5.63184e-05
5.67213e-05
5.6754e-05
6.01672e-05
6.20473e-05
5.14567e-05
7.46655e-05
6.08087e-05
6.02508e-05
5.81942e-05
5.67189e-05
5.50358e-05
5.71917e-05
5.94848e-05
5.89704e-05
4.71952e-05
5.91025e-05
4.83287e-05
4.90103e-05
4.8748e-05
4.74635e-05
4.785e-05
4.80947e-05
4.84239e-05
4.60663e-05
3.61066e-05
0.000116654
0.000109318
0.000110554
0.000108302
0.000104908
0.000101287
0.000101147
9.54912e-05
9.71743e-05
7.74308e-05
0.000102571
8.8798e-05
8.77347e-05
8.36435e-05
8.0664e-05
7.66818e-05
7.52472e-05
7.81528e-05
7.40852e-05
6.12163e-05
9.71828e-05
8.22297e-05
7.98484e-05
7.70266e-05
7.10339e-05
6.75272e-05
6.89141e-05
6.82221e-05
7.03333e-05
5.85588e-05
9.18952e-05
7.59735e-05
7.40275e-05
6.88304e-05
6.24496e-05
6.00335e-05
6.03934e-05
6.46978e-05
6.59963e-05
5.63627e-05
8.93303e-05
7.23969e-05
6.94359e-05
6.38258e-05
5.63298e-05
5.36383e-05
5.86837e-05
6.20993e-05
6.30586e-05
5.59868e-05
8.77844e-05
7.10454e-05
6.81507e-05
6.25594e-05
5.61819e-05
5.55779e-05
5.80183e-05
6.13877e-05
6.54507e-05
5.51863e-05
8.73535e-05
7.02006e-05
6.79982e-05
6.48104e-05
5.9831e-05
5.80553e-05
6.1121e-05
6.52647e-05
6.39077e-05
5.67808e-05
8.51511e-05
6.96181e-05
6.80477e-05
6.47845e-05
6.18181e-05
6.23376e-05
6.34995e-05
6.43661e-05
6.89878e-05
5.59056e-05
8.06409e-05
6.60287e-05
6.47081e-05
6.33261e-05
6.18893e-05
6.12893e-05
6.22905e-05
6.71326e-05
6.42168e-05
5.3097e-05
6.5321e-05
5.29432e-05
5.36041e-05
5.30332e-05
5.22485e-05
5.25189e-05
5.3585e-05
5.31801e-05
5.05841e-05
4.03031e-05
9.66521e-05
9.18587e-05
9.41054e-05
9.49837e-05
9.35945e-05
9.1109e-05
9.45312e-05
8.79556e-05
8.94047e-05
7.15889e-05
8.50219e-05
7.60601e-05
7.77294e-05
7.40758e-05
7.31216e-05
7.14701e-05
6.89454e-05
7.36697e-05
7.04029e-05
5.78902e-05
8.58134e-05
7.34531e-05
7.06567e-05
7.05828e-05
6.56637e-05
6.23481e-05
6.65112e-05
6.52204e-05
6.66826e-05
5.65259e-05
8.25928e-05
6.90094e-05
6.94775e-05
6.41076e-05
5.91183e-05
5.86724e-05
5.77304e-05
6.29112e-05
6.51294e-05
5.46033e-05
8.51057e-05
6.9663e-05
6.58687e-05
6.20216e-05
5.52933e-05
5.21804e-05
5.8984e-05
6.20772e-05
6.17755e-05
5.53703e-05
8.53453e-05
6.94295e-05
6.79897e-05
6.21885e-05
5.61548e-05
5.67633e-05
5.85611e-05
6.15751e-05
6.64976e-05
5.46494e-05
8.74851e-05
7.15574e-05
6.8563e-05
6.59239e-05
6.12139e-05
5.93189e-05
6.28255e-05
6.73399e-05
6.42296e-05
5.71209e-05
8.77503e-05
7.13276e-05
7.02286e-05
6.65036e-05
6.36641e-05
6.44983e-05
6.59041e-05
6.5569e-05
7.0987e-05
5.61379e-05
8.2809e-05
6.85626e-05
6.63947e-05
6.50193e-05
6.37002e-05
6.32538e-05
6.40648e-05
6.93387e-05
6.53145e-05
5.39076e-05
6.90372e-05
5.54477e-05
5.53946e-05
5.43415e-05
5.35698e-05
5.37612e-05
5.49454e-05
5.38738e-05
5.12774e-05
4.0276e-05
0.000148898
0.00013684
0.000135885
0.000130695
0.000121899
0.000114929
0.000112888
0.000103736
0.000105151
8.30681e-05
0.000126298
0.000109651
0.000106694
9.7853e-05
9.33169e-05
8.54103e-05
8.20549e-05
8.50347e-05
7.9142e-05
6.51592e-05
0.000118539
9.86816e-05
9.46188e-05
8.9656e-05
7.98824e-05
7.48512e-05
7.53694e-05
7.27818e-05
7.53428e-05
6.16707e-05
0.00010856
9.00947e-05
8.5818e-05
7.79405e-05
6.99016e-05
6.56203e-05
6.49515e-05
6.96775e-05
6.96612e-05
5.89975e-05
0.000104719
8.38521e-05
7.94103e-05
7.16386e-05
6.18881e-05
5.82277e-05
6.33121e-05
6.54027e-05
6.67402e-05
5.78261e-05
0.000102605
8.2422e-05
7.70947e-05
6.99469e-05
6.1118e-05
5.98185e-05
6.13745e-05
6.49102e-05
6.80691e-05
5.63683e-05
0.000100352
8.1243e-05
7.72986e-05
7.05913e-05
6.47617e-05
6.10896e-05
6.4386e-05
6.74331e-05
6.58839e-05
5.74382e-05
0.000102057
7.97077e-05
7.63408e-05
7.07564e-05
6.51442e-05
6.51387e-05
6.53248e-05
6.58773e-05
7.0547e-05
5.55524e-05
9.12282e-05
7.6908e-05
6.99987e-05
6.75768e-05
6.41546e-05
6.26801e-05
6.36422e-05
6.81715e-05
6.51256e-05
5.34866e-05
7.87837e-05
6.10953e-05
5.95287e-05
5.60181e-05
5.42982e-05
5.35958e-05
5.45727e-05
5.33708e-05
5.17035e-05
3.95492e-05
9.37787e-05
9.0113e-05
9.44592e-05
9.28747e-05
9.15663e-05
8.95985e-05
9.16291e-05
8.70011e-05
8.87388e-05
7.16633e-05
8.42887e-05
7.72771e-05
7.68687e-05
7.45037e-05
7.38306e-05
7.04469e-05
7.04527e-05
7.39951e-05
7.03531e-05
5.89521e-05
8.12198e-05
7.05262e-05
7.11555e-05
6.94772e-05
6.51654e-05
6.39878e-05
6.57459e-05
6.61775e-05
6.91201e-05
5.73807e-05
7.77789e-05
6.69675e-05
6.52815e-05
6.22801e-05
5.84386e-05
5.67825e-05
5.93294e-05
6.45234e-05
6.46719e-05
5.64884e-05
7.72278e-05
6.34759e-05
6.2122e-05
5.84032e-05
5.24492e-05
5.23603e-05
5.72583e-05
6.08342e-05
6.39436e-05
5.51224e-05
7.69085e-05
6.39003e-05
6.19649e-05
5.80175e-05
5.30756e-05
5.27229e-05
5.61805e-05
6.11534e-05
6.27168e-05
5.42581e-05
7.84231e-05
6.48365e-05
6.35947e-05
6.02426e-05
5.66081e-05
5.50499e-05
5.80997e-05
6.09154e-05
6.16277e-05
5.3302e-05
8.02482e-05
6.59905e-05
6.46618e-05
6.19378e-05
5.82698e-05
5.77553e-05
5.86908e-05
5.95001e-05
6.24516e-05
5.08216e-05
7.58351e-05
6.48314e-05
6.18698e-05
6.0925e-05
5.7904e-05
5.76822e-05
5.62423e-05
6.01497e-05
5.69187e-05
4.63263e-05
6.48289e-05
5.20988e-05
5.263e-05
5.0647e-05
5.01367e-05
4.83961e-05
4.86774e-05
4.69779e-05
4.35073e-05
3.46437e-05
0.000177357
0.000161986
0.000161904
0.000150813
0.000140197
0.000132163
0.000123621
0.000119983
0.000120563
9.64048e-05
0.000154056
0.000130248
0.000120594
0.000114089
0.000105825
9.52064e-05
9.57672e-05
9.5231e-05
9.00262e-05
7.41659e-05
0.000133743
0.000109457
0.000108289
9.8747e-05
8.88571e-05
8.56416e-05
8.15794e-05
8.26314e-05
8.71113e-05
6.90044e-05
0.000119436
9.78593e-05
8.92203e-05
8.36595e-05
7.51642e-05
6.82638e-05
7.3476e-05
7.7593e-05
7.55268e-05
6.68981e-05
0.000104921
8.20854e-05
8.06804e-05
7.1386e-05
6.18043e-05
6.23314e-05
6.44497e-05
6.84347e-05
7.51564e-05
6.18944e-05
9.77289e-05
7.83071e-05
7.16398e-05
6.6301e-05
5.94912e-05
5.60801e-05
6.16219e-05
6.81618e-05
6.74431e-05
5.99698e-05
9.16477e-05
7.13097e-05
7.04609e-05
6.46364e-05
5.90169e-05
5.7933e-05
6.11818e-05
6.2535e-05
6.74638e-05
5.66207e-05
8.72733e-05
7.10847e-05
6.70516e-05
6.43179e-05
5.92029e-05
5.91434e-05
5.87588e-05
6.33993e-05
6.46233e-05
5.32303e-05
8.13939e-05
6.58468e-05
6.44993e-05
6.1427e-05
5.94927e-05
5.71057e-05
5.92992e-05
6.12002e-05
6.12001e-05
4.94563e-05
6.63053e-05
5.33297e-05
5.37028e-05
5.2308e-05
5.06214e-05
5.01374e-05
5.03339e-05
4.99203e-05
4.81948e-05
3.69528e-05
6.32172e-05
6.38087e-05
7.13382e-05
6.91929e-05
7.31283e-05
7.51324e-05
7.66765e-05
8.05237e-05
8.24327e-05
6.83318e-05
6.0358e-05
5.75067e-05
5.59819e-05
6.03169e-05
5.99899e-05
6.02645e-05
6.47651e-05
6.6871e-05
6.66979e-05
5.54103e-05
5.55788e-05
5.0739e-05
5.46464e-05
5.40256e-05
5.43933e-05
5.61546e-05
5.76168e-05
6.23064e-05
6.56299e-05
5.43811e-05
5.64471e-05
4.90694e-05
4.8781e-05
4.96439e-05
4.81559e-05
4.83251e-05
5.48909e-05
5.96658e-05
6.08991e-05
5.44696e-05
5.52646e-05
4.656e-05
4.70903e-05
4.58303e-05
4.30935e-05
4.61406e-05
5.04055e-05
5.62801e-05
6.13697e-05
5.24244e-05
5.52253e-05
4.67206e-05
4.7377e-05
4.56106e-05
4.42207e-05
4.43897e-05
5.04381e-05
5.67217e-05
5.75813e-05
5.19206e-05
5.86199e-05
4.81616e-05
4.90652e-05
4.93788e-05
4.70197e-05
4.81858e-05
5.16973e-05
5.44562e-05
5.79115e-05
4.97387e-05
5.6538e-05
5.15447e-05
5.14212e-05
5.19321e-05
5.0224e-05
5.08866e-05
5.18121e-05
5.47914e-05
5.62769e-05
4.70636e-05
6.06382e-05
4.95221e-05
5.36395e-05
5.22057e-05
5.21779e-05
5.13635e-05
5.15683e-05
5.40773e-05
5.23113e-05
4.25007e-05
4.6841e-05
4.09794e-05
4.33915e-05
4.47646e-05
4.4511e-05
4.40482e-05
4.39363e-05
4.30059e-05
3.94987e-05
3.19388e-05
0.000164651
0.00014694
0.000144517
0.000135311
0.000123591
0.000113601
0.000104311
9.98301e-05
9.88808e-05
8.03809e-05
0.000137986
0.00011409
0.000106785
9.77222e-05
8.94251e-05
7.99168e-05
7.7384e-05
7.68477e-05
7.4132e-05
6.07002e-05
0.000120932
9.80999e-05
9.23962e-05
8.49632e-05
7.50899e-05
6.92472e-05
6.71093e-05
6.73186e-05
6.97382e-05
5.73722e-05
0.000106634
8.52449e-05
7.97223e-05
7.1796e-05
6.30181e-05
5.80568e-05
5.92387e-05
6.28883e-05
6.33264e-05
5.60035e-05
9.59166e-05
7.62891e-05
7.10135e-05
6.31167e-05
5.40829e-05
5.15389e-05