/*--------------------------------*- C++ -*----------------------------------*\
| =========                 |                                                 |
| \\      /  F ield         | OpenFOAM: The Open Source CFD Toolbox           |
|  \\    /   O peration     | Version:  2406                                  |
|   \\  /    A nd           | Website:  www.openfoam.com                      |
|    \\/     M anipulation  |                                                 |
\*---------------------------------------------------------------------------*/
FoamFile
{
    version     2.0;
    format      ascii;
    arch        "LSB;label=32;scalar=64";
    class       volScalarField;
    location    "1";
    object      magR;
}
// * * * * * * * * * * * * * * * * * * * * * * * * * * * * * * * * * * * * * //

dimensions      [0 2 -2 0 0 0 0];

internalField   uniform 0;

boundaryField
{
    walls
    {
        type            calculated;
        value           nonuniform List<scalar> 
2000
(
5.84373e-07
8.28597e-07
1.0951e-06
1.31566e-06
1.44048e-06
1.44048e-06
1.31566e-06
1.0951e-06
8.28594e-07
5.8437e-07
2.35144e-07
3.22843e-07
4.26181e-07
5.15517e-07
5.67326e-07
5.67323e-07
5.15508e-07
4.26169e-07
3.2283e-07
2.35132e-07
8.23798e-08
1.10313e-07
1.44752e-07
1.75783e-07
1.94109e-07
1.94102e-07
1.75766e-07
1.44728e-07
1.10287e-07
8.23549e-08
1.07787e-07
1.45364e-07
1.90762e-07
2.31019e-07
2.54614e-07
2.54597e-07
2.30972e-07
1.90697e-07
1.45293e-07
1.0772e-07
8.41777e-08
1.12884e-07
1.48183e-07
1.79819e-07
1.98471e-07
1.9844e-07
1.79735e-07
1.48064e-07
1.12757e-07
8.40565e-08
9.1373e-08
1.2282e-07
1.61251e-07
1.95557e-07
2.15732e-07
2.15673e-07
1.95395e-07
1.61022e-07
1.22571e-07
9.11358e-08
8.58221e-08
1.15134e-07
1.511e-07
1.83277e-07
2.02206e-07
2.02102e-07
1.82989e-07
1.50691e-07
1.14683e-07
8.53862e-08
8.81157e-08
1.18219e-07
1.55058e-07
1.87944e-07
2.07236e-07
2.07053e-07
1.87435e-07
1.54329e-07
1.17408e-07
8.73245e-08
8.71088e-08
1.16735e-07
1.5299e-07
1.8533e-07
2.0425e-07
2.03963e-07
1.84531e-07
1.51848e-07
1.15463e-07
8.5867e-08
8.80721e-08
1.17977e-07
1.54517e-07
1.87052e-07
2.06021e-07
2.0562e-07
1.8594e-07
1.52935e-07
1.16225e-07
8.63734e-08
8.79735e-08
1.17804e-07
1.54239e-07
1.8665e-07
2.05495e-07
2.05e-07
1.85282e-07
1.52308e-07
1.15684e-07
8.59389e-08
8.81323e-08
1.18041e-07
1.54567e-07
1.87038e-07
2.05885e-07
2.05325e-07
1.85499e-07
1.52409e-07
1.15694e-07
8.59059e-08
8.77883e-08
1.17624e-07
1.54078e-07
1.8649e-07
2.05289e-07
2.04701e-07
1.84874e-07
1.51824e-07
1.15193e-07
8.5507e-08
8.74043e-08
1.17159e-07
1.53531e-07
1.85887e-07
2.0466e-07
2.04077e-07
1.84291e-07
1.51311e-07
1.14776e-07
8.5189e-08
8.69146e-08
1.16536e-07
1.52765e-07
1.85021e-07
2.03761e-07
2.03227e-07
1.83559e-07
1.50738e-07
1.14369e-07
8.49125e-08
8.65003e-08
1.16021e-07
1.52149e-07
1.84352e-07
2.03116e-07
2.02686e-07
1.83179e-07
1.50532e-07
1.14303e-07
8.49271e-08
8.60845e-08
1.15546e-07
1.51649e-07
1.83887e-07
2.02763e-07
2.02508e-07
1.832e-07
1.50724e-07
1.14593e-07
8.52405e-08
8.56143e-08
1.15059e-07
1.51217e-07
1.83593e-07
2.02678e-07
2.02662e-07
1.83568e-07
1.51232e-07
1.15142e-07
8.57574e-08
8.50644e-08
1.14481e-07
1.50703e-07
1.83241e-07
2.02563e-07
2.02796e-07
1.83901e-07
1.51675e-07
1.15601e-07
8.61785e-08
8.45174e-08
1.13856e-07
1.50069e-07
1.82694e-07
2.02178e-07
2.02595e-07
1.83847e-07
1.51705e-07
1.15659e-07
8.62432e-08
8.40671e-08
1.13276e-07
1.49375e-07
1.81956e-07
2.01464e-07
2.01953e-07
1.83293e-07
1.51232e-07
1.15262e-07
8.59212e-08
8.37735e-08
1.12845e-07
1.48772e-07
1.81207e-07
2.00623e-07
2.01091e-07
1.82475e-07
1.50508e-07
1.14661e-07
8.54425e-08
8.36265e-08
1.126e-07
1.48381e-07
1.80661e-07
1.99953e-07
2.00367e-07
1.81781e-07
1.49912e-07
1.14198e-07
8.50983e-08
8.35656e-08
1.12511e-07
1.48233e-07
1.80433e-07
1.99655e-07
2.00043e-07
1.81489e-07
1.49701e-07
1.1408e-07
8.50523e-08
8.35366e-08
1.12514e-07
1.48271e-07
1.80488e-07
1.99726e-07
2.00134e-07
1.81614e-07
1.49865e-07
1.14277e-07
8.52605e-08
8.35674e-08
1.1261e-07
1.48447e-07
1.80739e-07
2.00037e-07
2.00481e-07
1.81976e-07
1.50219e-07
1.14611e-07
8.55626e-08
8.38706e-08
1.12994e-07
1.48906e-07
1.81249e-07
2.0057e-07
2.01004e-07
1.82461e-07
1.50642e-07
1.14972e-07
8.58576e-08
8.48067e-08
1.14058e-07
1.50035e-07
1.8236e-07
2.01594e-07
2.0189e-07
1.83184e-07
1.51194e-07
1.15369e-07
8.61188e-08
8.66033e-08
1.16074e-07
1.52153e-07
1.84405e-07
2.0341e-07
2.03373e-07
1.84287e-07
1.51925e-07
1.15775e-07
8.62759e-08
8.90583e-08
1.18852e-07
1.55108e-07
1.87273e-07
2.0593e-07
2.05352e-07
1.85635e-07
1.52672e-07
1.16027e-07
8.61992e-08
9.14573e-08
1.21618e-07
1.58114e-07
1.90231e-07
2.08509e-07
2.07295e-07
1.86824e-07
1.53165e-07
1.15982e-07
8.58515e-08
9.28038e-08
1.2327e-07
1.60034e-07
1.92215e-07
2.10266e-07
2.08573e-07
1.87501e-07
1.53295e-07
1.15718e-07
8.54057e-08
9.23184e-08
1.22906e-07
1.59885e-07
1.92279e-07
2.10415e-07
2.08656e-07
1.87419e-07
1.53051e-07
1.15383e-07
8.50763e-08
9.00334e-08
1.2046e-07
1.57478e-07
1.9014e-07
2.08667e-07
2.07327e-07
1.86476e-07
1.5244e-07
1.15053e-07
8.49602e-08
8.68788e-08
1.16878e-07
1.53672e-07
1.86471e-07
2.05478e-07
2.04845e-07
1.8478e-07
1.5146e-07
1.14655e-07
8.49412e-08
8.40942e-08
1.13558e-07
1.49923e-07
1.82621e-07
2.01951e-07
2.01988e-07
1.8278e-07
1.50288e-07
1.14166e-07
8.48832e-08
8.2377e-08
1.11388e-07
1.47313e-07
1.79771e-07
1.99206e-07
1.99681e-07
1.81124e-07
1.49299e-07
1.13733e-07
8.47893e-08
8.18474e-08
1.10646e-07
1.4633e-07
1.78618e-07
1.98068e-07
1.98765e-07
1.80578e-07
1.4914e-07
1.13874e-07
8.50672e-08
8.18099e-08
1.10737e-07
1.46602e-07
1.79075e-07
1.98718e-07
1.99611e-07
1.81615e-07
1.50304e-07
1.15078e-07
8.61541e-08
8.25382e-08
1.11849e-07
1.48212e-07
1.8121e-07
2.01343e-07
2.02626e-07
1.84882e-07
1.53602e-07
1.18187e-07
8.87705e-08
8.6532e-08
1.16642e-07
1.5382e-07
1.87592e-07
2.08376e-07
2.10077e-07
1.9235e-07
1.60548e-07
1.24077e-07
9.32226e-08
9.57186e-08
1.27385e-07
1.65892e-07
2.00561e-07
2.2161e-07
2.22818e-07
2.03717e-07
1.6976e-07
1.30629e-07
9.72177e-08
1.10953e-07
1.44961e-07
1.85144e-07
2.20304e-07
2.40332e-07
2.39058e-07
2.16323e-07
1.78244e-07
1.35273e-07
9.90209e-08
1.33124e-07
1.70111e-07
2.12076e-07
2.47051e-07
2.64693e-07
2.59261e-07
2.31481e-07
1.88523e-07
1.41702e-07
1.02874e-07
1.63573e-07
2.04111e-07
2.48029e-07
2.82433e-07
2.97056e-07
2.86927e-07
2.53911e-07
2.06136e-07
1.55399e-07
1.13461e-07
2.02204e-07
2.47637e-07
2.94973e-07
3.29968e-07
3.42462e-07
3.28089e-07
2.89644e-07
2.36044e-07
1.79504e-07
1.32318e-07
2.41452e-07
2.93794e-07
3.46975e-07
3.84693e-07
3.96355e-07
3.7774e-07
3.32452e-07
2.70584e-07
2.05524e-07
1.51203e-07
2.61453e-07
3.22372e-07
3.83983e-07
4.2832e-07
4.43013e-07
4.23104e-07
3.72422e-07
3.02514e-07
2.2871e-07
1.67415e-07
2.75563e-07
3.45677e-07
4.13578e-07
4.60582e-07
4.73426e-07
4.47947e-07
3.89535e-07
3.12013e-07
2.32382e-07
1.68083e-07
2.44347e-07
3.27821e-07
4.11222e-07
4.72714e-07
4.97591e-07
4.80292e-07
4.26409e-07
3.50267e-07
2.69904e-07
2.03266e-07
5.84366e-07
8.28588e-07
1.09509e-06
1.31566e-06
1.44048e-06
1.44048e-06
1.31566e-06
1.0951e-06
8.28597e-07
5.84374e-07
2.35115e-07
3.2281e-07
4.26148e-07
5.15488e-07
5.67306e-07
5.67315e-07
5.15511e-07
4.26179e-07
3.22842e-07
2.35144e-07
8.23154e-08
1.10242e-07
1.44681e-07
1.75722e-07
1.94066e-07
1.94083e-07
1.75767e-07
1.44744e-07
1.10309e-07
8.23792e-08
1.07607e-07
1.45165e-07
1.90563e-07
2.30848e-07
2.54493e-07
2.54538e-07
2.3097e-07
1.90735e-07
1.45351e-07
1.07784e-07
8.38492e-08
1.12521e-07
1.47817e-07
1.795e-07
1.9824e-07
1.98318e-07
1.79715e-07
1.48121e-07
1.12853e-07
8.41681e-08
9.07733e-08
1.22154e-07
1.60576e-07
1.94962e-07
2.15294e-07
2.15433e-07
1.95346e-07
1.61121e-07
1.22753e-07
9.13518e-08
8.48884e-08
1.14105e-07
1.50062e-07
1.82365e-07
2.01541e-07
2.01751e-07
1.82949e-07
1.50894e-07
1.15028e-07
8.57878e-08
8.66761e-08
1.16654e-07
1.53506e-07
1.8661e-07
2.06303e-07
2.06622e-07
1.87498e-07
1.54776e-07
1.18075e-07
8.80692e-08
8.50463e-08
1.14522e-07
1.50837e-07
1.83531e-07
2.03064e-07
2.03519e-07
1.84803e-07
1.52659e-07
1.1657e-07
8.70551e-08
8.53186e-08
1.15036e-07
1.51685e-07
1.84731e-07
2.04555e-07
2.05173e-07
1.86451e-07
1.54146e-07
1.17796e-07
8.8014e-08
8.46811e-08
1.14269e-07
1.50826e-07
1.8386e-07
2.03762e-07
2.04521e-07
1.85969e-07
1.53826e-07
1.17607e-07
8.79132e-08
8.46183e-08
1.14225e-07
1.50839e-07
1.83969e-07
2.03979e-07
2.04822e-07
1.86298e-07
1.54124e-07
1.17837e-07
8.80747e-08
8.44605e-08
1.13962e-07
1.50456e-07
1.83495e-07
2.03455e-07
2.04294e-07
1.85798e-07
1.53674e-07
1.17445e-07
8.77454e-08
8.45811e-08
1.14023e-07
1.50418e-07
1.83343e-07
2.03192e-07
2.03945e-07
1.85397e-07
1.53259e-07
1.17048e-07
8.73881e-08
8.47235e-08
1.14102e-07
1.50378e-07
1.83145e-07
2.02826e-07
2.03441e-07
1.84815e-07
1.52671e-07
1.16508e-07
8.69243e-08
8.48968e-08
1.1425e-07
1.50453e-07
1.8309e-07
2.02607e-07
2.03067e-07
1.84336e-07
1.5216e-07
1.16031e-07
8.65154e-08
8.50037e-08
1.14336e-07
1.50479e-07
1.82994e-07
2.02352e-07
2.02653e-07
1.8381e-07
1.51597e-07
1.15509e-07
8.60745e-08
8.50908e-08
1.14395e-07
1.50468e-07
1.82856e-07
2.02047e-07
2.02179e-07
1.83213e-07
1.50954e-07
1.14907e-07
8.55609e-08
8.52301e-08
1.14489e-07
1.50459e-07
1.82685e-07
2.01683e-07
2.01631e-07
1.82537e-07
1.50235e-07
1.14236e-07
8.49837e-08
8.5511e-08
1.1473e-07
1.50586e-07
1.82636e-07
2.01426e-07
2.01183e-07
1.81959e-07
1.49609e-07
1.13638e-07
8.44565e-08
8.59017e-08
1.1511e-07
1.50887e-07
1.82793e-07
2.014e-07
2.00981e-07
1.81623e-07
1.49207e-07
1.13224e-07
8.40704e-08
8.62201e-08
1.15448e-07
1.51208e-07
1.83046e-07
2.0154e-07
2.00992e-07
1.81519e-07
1.49027e-07
1.13003e-07
8.38446e-08
8.62494e-08
1.15489e-07
1.51273e-07
1.83119e-07
2.0159e-07
2.00993e-07
1.81463e-07
1.48926e-07
1.1288e-07
8.37236e-08
8.59e-08
1.15098e-07
1.5089e-07
1.82774e-07
2.01298e-07
2.00747e-07
1.81256e-07
1.48756e-07
1.12751e-07
8.36317e-08
8.52798e-08
1.14358e-07
1.50082e-07
1.8198e-07
2.00588e-07
2.00167e-07
1.80822e-07
1.48458e-07
1.12573e-07
8.35338e-08
8.46627e-08
1.13572e-07
1.4915e-07
1.81004e-07
1.99682e-07
1.99428e-07
1.80299e-07
1.48144e-07
1.12427e-07
8.34893e-08
8.43683e-08
1.13163e-07
1.48604e-07
1.80396e-07
1.99119e-07
1.99022e-07
1.80113e-07
1.48172e-07
1.12607e-07
8.3735e-08
8.4546e-08
1.13415e-07
1.48901e-07
1.80748e-07
1.99571e-07
1.99629e-07
1.80898e-07
1.49094e-07
1.13573e-07
8.46438e-08
8.50036e-08
1.14192e-07
1.50047e-07
1.82234e-07
2.01364e-07
2.01664e-07
1.83084e-07
1.51294e-07
1.15635e-07
8.64512e-08
8.53368e-08
1.15016e-07
1.51542e-07
1.84414e-07
2.04158e-07
2.04881e-07
1.86475e-07
1.54587e-07
1.18596e-07
8.89601e-08
8.5283e-08
1.15434e-07
1.52711e-07
1.86449e-07
2.07011e-07
2.08304e-07
1.90109e-07
1.58056e-07
1.21617e-07
9.14454e-08
8.49858e-08
1.15387e-07
1.53173e-07
1.87605e-07
2.08867e-07
2.10656e-07
1.92609e-07
1.60352e-07
1.23483e-07
9.28758e-08
8.47748e-08
1.15115e-07
1.52929e-07
1.87537e-07
2.09009e-07
2.10922e-07
1.9281e-07
1.60332e-07
1.23191e-07
9.24356e-08
8.48337e-08
1.14849e-07
1.52204e-07
1.86357e-07
2.07385e-07
2.08906e-07
1.90468e-07
1.57802e-07
1.20667e-07
9.01392e-08
8.50186e-08
1.1458e-07
1.51192e-07
1.84449e-07
2.04554e-07
2.05317e-07
1.86429e-07
1.53714e-07
1.16905e-07
8.69186e-08
8.51091e-08
1.14235e-07
1.50102e-07
1.82387e-07
2.01478e-07
2.01453e-07
1.82212e-07
1.49642e-07
1.13377e-07
8.40437e-08
8.50371e-08
1.13868e-07
1.49226e-07
1.80793e-07
1.99138e-07
1.98561e-07
1.79156e-07
1.46828e-07
1.11083e-07
8.22624e-08
8.50894e-08
1.13802e-07
1.48938e-07
1.8014e-07
1.98105e-07
1.97265e-07
1.7783e-07
1.4569e-07
1.10258e-07
8.16944e-08
8.54156e-08
1.14091e-07
1.49122e-07
1.80176e-07
1.97983e-07
1.97025e-07
1.77541e-07
1.45418e-07
1.10054e-07
8.15608e-08
8.66665e-08
1.15329e-07
1.50152e-07
1.80996e-07
1.98612e-07
1.97556e-07
1.78047e-07
1.45943e-07
1.10608e-07
8.21271e-08
9.05697e-08
1.19746e-07
1.54683e-07
1.85474e-07
2.02985e-07
2.01922e-07
1.82473e-07
1.50379e-07
1.14859e-07
8.59985e-08
9.67856e-08
1.27762e-07
1.64146e-07
1.96008e-07
2.14253e-07
2.13647e-07
1.94304e-07
1.61835e-07
1.25336e-07
9.51694e-08
1.02526e-07
1.37136e-07
1.7727e-07
2.1248e-07
2.33307e-07
2.34239e-07
2.15204e-07
1.8178e-07
1.4319e-07
1.10517e-07
1.0385e-07
1.44109e-07
1.91166e-07
2.332e-07
2.59641e-07
2.64047e-07
2.45996e-07
2.11198e-07
1.69421e-07
1.32942e-07
9.20685e-08
1.38846e-07
1.96783e-07
2.5137e-07
2.89216e-07
3.01414e-07
2.86663e-07
2.50956e-07
2.05291e-07
1.63687e-07
6.26348e-08
1.10757e-07
1.78786e-07
2.50373e-07
3.07319e-07
3.35345e-07
3.30169e-07
2.9721e-07
2.49062e-07
2.02103e-07
3.44795e-08
7.40515e-08
1.40459e-07
2.2167e-07
2.9707e-07
3.46042e-07
3.58024e-07
3.34888e-07
2.89201e-07
2.39556e-07
1.68408e-08
4.22667e-08
9.25415e-08
1.64677e-07
2.43113e-07
3.06321e-07
3.3754e-07
3.32017e-07
2.98079e-07
2.54465e-07
9.52258e-09
2.59721e-08
6.19628e-08
1.20382e-07
1.92278e-07
2.60028e-07
3.04399e-07
3.1488e-07
2.94138e-07
2.59724e-07
3.17392e-09
1.0286e-08
2.82467e-08
6.08664e-08
1.05862e-07
1.54792e-07
1.95347e-07
2.17269e-07
2.18641e-07
2.08338e-07
5.84364e-07
8.28585e-07
1.09509e-06
1.31565e-06
1.44047e-06
1.44047e-06
1.31565e-06
1.09509e-06
8.28588e-07
5.84367e-07
2.35106e-07
3.22796e-07
4.26128e-07
5.15461e-07
5.67272e-07
5.67275e-07
5.15469e-07
4.26138e-07
3.22806e-07
2.35115e-07
8.22954e-08
1.10212e-07
1.4464e-07
1.75667e-07
1.93997e-07
1.94002e-07
1.75681e-07
1.44659e-07
1.10231e-07
8.23133e-08
1.07552e-07
1.45084e-07
1.90452e-07
2.307e-07
2.54309e-07
2.54323e-07
2.30737e-07
1.90503e-07
1.45137e-07
1.07601e-07
8.37257e-08
1.12349e-07
1.4759e-07
1.79212e-07
1.97891e-07
1.9792e-07
1.7929e-07
1.477e-07
1.12465e-07
8.38349e-08
9.04769e-08
1.21759e-07
1.60075e-07
1.94352e-07
2.14585e-07
2.14648e-07
1.94528e-07
1.60325e-07
1.22031e-07
9.07389e-08
8.43391e-08
1.13383e-07
1.49158e-07
1.81286e-07
2.00312e-07
2.00422e-07
1.81591e-07
1.49596e-07
1.13871e-07
8.48185e-08
8.58311e-08
1.15519e-07
1.52055e-07
1.84854e-07
2.04294e-07
2.04452e-07
1.85295e-07
1.52691e-07
1.16241e-07
8.65489e-08
8.40211e-08
1.13067e-07
1.48876e-07
1.81061e-07
2.0016e-07
2.00337e-07
1.81559e-07
1.49595e-07
1.13891e-07
8.4851e-08
8.43087e-08
1.13453e-07
1.49366e-07
1.8163e-07
2.00762e-07
2.00918e-07
1.82069e-07
1.49999e-07
1.14187e-07
8.50605e-08
8.39412e-08
1.12869e-07
1.48499e-07
1.80488e-07
1.99423e-07
1.99511e-07
1.80736e-07
1.48856e-07
1.13292e-07
8.43939e-08
8.43596e-08
1.13321e-07
1.48931e-07
1.8085e-07
1.99682e-07
1.99666e-07
1.80805e-07
1.48867e-07
1.13267e-07
8.43512e-08
8.47792e-08
1.13768e-07
1.49344e-07
1.8117e-07
1.99877e-07
1.9974e-07
1.80788e-07
1.48802e-07
1.1318e-07
8.4259e-08
8.54141e-08
1.1455e-07
1.50248e-07
1.82122e-07
2.00791e-07
2.00544e-07
1.81438e-07
1.49285e-07
1.13504e-07
8.44637e-08
8.58713e-08
1.15154e-07
1.51008e-07
1.82983e-07
2.01671e-07
2.01353e-07
1.82107e-07
1.49785e-07
1.13841e-07
8.46776e-08
8.61055e-08
1.15513e-07
1.5153e-07
1.8365e-07
2.02415e-07
2.0208e-07
1.82733e-07
1.50263e-07
1.14171e-07
8.48919e-08
8.60653e-08
1.1552e-07
1.51628e-07
1.8386e-07
2.02717e-07
2.0242e-07
1.83054e-07
1.50522e-07
1.14358e-07
8.50153e-08
8.59242e-08
1.15363e-07
1.51487e-07
1.83778e-07
2.02713e-07
2.02491e-07
1.83174e-07
1.5066e-07
1.14488e-07
8.51168e-08
8.58645e-08
1.1527e-07
1.51367e-07
1.8367e-07
2.02656e-07
2.02515e-07
1.83282e-07
1.50827e-07
1.14677e-07
8.52857e-08
8.6006e-08
1.15423e-07
1.51524e-07
1.83844e-07
2.02871e-07
2.02794e-07
1.83626e-07
1.5121e-07
1.1505e-07
8.56105e-08
8.63294e-08
1.15833e-07
1.52021e-07
1.84408e-07
2.03485e-07
2.03438e-07
1.84272e-07
1.5182e-07
1.15583e-07
8.60472e-08
8.6752e-08
1.16398e-07
1.52737e-07
1.85233e-07
2.04361e-07
2.04293e-07
1.8504e-07
1.52455e-07
1.16067e-07
8.64038e-08
8.72022e-08
1.16985e-07
1.53468e-07
1.86053e-07
2.05188e-07
2.05027e-07
1.85604e-07
1.52815e-07
1.16246e-07
8.64648e-08
8.76405e-08
1.17505e-07
1.5405e-07
1.86642e-07
2.05698e-07
2.05373e-07
1.85731e-07
1.52726e-07
1.16004e-07
8.61543e-08
8.80397e-08
1.1792e-07
1.54433e-07
1.86935e-07
2.05833e-07
2.05304e-07
1.85449e-07
1.52274e-07
1.15459e-07
8.5598e-08
8.82735e-08
1.18135e-07
1.54574e-07
1.86958e-07
2.05696e-07
2.04997e-07
1.84996e-07
1.51733e-07
1.14889e-07
8.50583e-08
8.79588e-08
1.17778e-07
1.54183e-07
1.86535e-07
2.0524e-07
2.04521e-07
1.84526e-07
1.51309e-07
1.14531e-07
8.47798e-08
8.66829e-08
1.16393e-07
1.52801e-07
1.8526e-07
2.0415e-07
2.0366e-07
1.83919e-07
1.50955e-07
1.144e-07
8.48144e-08
8.45321e-08
1.1398e-07
1.50308e-07
1.82898e-07
2.0212e-07
2.02086e-07
1.82858e-07
1.50379e-07
1.14246e-07
8.49463e-08
8.22319e-08
1.11253e-07
1.47285e-07
1.79833e-07
1.99312e-07
1.99773e-07
1.81179e-07
1.49336e-07
1.13771e-07
8.48611e-08
8.06345e-08
1.09182e-07
1.44734e-07
1.7699e-07
1.96478e-07
1.97253e-07
1.79195e-07
1.47957e-07
1.1296e-07
8.44575e-08
8.02235e-08
1.08455e-07
1.4356e-07
1.75422e-07
1.94703e-07
1.95534e-07
1.7775e-07
1.46893e-07
1.12264e-07
8.40346e-08
8.10579e-08
1.09275e-07
1.44191e-07
1.75788e-07
1.94822e-07
1.95513e-07
1.77692e-07
1.46862e-07
1.12237e-07
8.39889e-08
8.29402e-08
1.11462e-07
1.4654e-07
1.78129e-07
1.96996e-07
1.9742e-07
1.79258e-07
1.48056e-07
1.1302e-07
8.44347e-08
8.54284e-08
1.14475e-07
1.49994e-07
1.8179e-07
2.00563e-07
2.00604e-07
1.81833e-07
1.49926e-07
1.14182e-07
8.50626e-08
8.79106e-08
1.17533e-07
1.53593e-07
1.85665e-07
2.04339e-07
2.03897e-07
1.8437e-07
1.51624e-07
1.15127e-07
8.54873e-08
8.96774e-08
1.19755e-07
1.56278e-07
1.88575e-07
2.0713e-07
2.06215e-07
1.86003e-07
1.5255e-07
1.15514e-07
8.55472e-08
8.99674e-08
1.20202e-07
1.56954e-07
1.89405e-07
2.07973e-07
2.06908e-07
1.86464e-07
1.52786e-07
1.15626e-07
8.55828e-08
8.88406e-08
1.18863e-07
1.55516e-07
1.88062e-07
2.06907e-07
2.06248e-07
1.86236e-07
1.52922e-07
1.15967e-07
8.59628e-08
8.48616e-08
1.14584e-07
1.51323e-07
1.84496e-07
2.04401e-07
2.05036e-07
1.86251e-07
1.5386e-07
1.17312e-07
8.73495e-08
7.46865e-08
1.03799e-07
1.41075e-07
1.76089e-07
1.98769e-07
2.02501e-07
1.86513e-07
1.56165e-07
1.20659e-07
9.09574e-08
6.16995e-08
8.87636e-08
1.25165e-07
1.61255e-07
1.87019e-07
1.95079e-07
1.83657e-07
1.57138e-07
1.24179e-07
9.57195e-08
5.01034e-08
7.34319e-08
1.06365e-07
1.4068e-07
1.67391e-07
1.78981e-07
1.72762e-07
1.51728e-07
1.23432e-07
9.81804e-08
3.90071e-08
5.76181e-08
8.51015e-08
1.14914e-07
1.39647e-07
1.52542e-07
1.50641e-07
1.35724e-07
1.13937e-07
9.42259e-08
3.15194e-08
4.56214e-08
6.65143e-08
8.92561e-08
1.08095e-07
1.17997e-07
1.1674e-07
1.05734e-07
9.00322e-08
7.6887e-08
2.97574e-08
4.06109e-08
5.55796e-08
7.04839e-08
8.0789e-08
8.35382e-08
7.82109e-08
6.70089e-08
5.46147e-08
4.64087e-08
3.12987e-08
4.02226e-08
5.1234e-08
6.02894e-08
6.3767e-08
6.03996e-08
5.12744e-08
3.93518e-08
2.87884e-08
2.28848e-08
3.81422e-08
4.62056e-08
5.49231e-08
5.99788e-08
5.85937e-08
5.07703e-08
3.87963e-08
2.61203e-08
1.63253e-08
1.10747e-08
4.59018e-08
5.39042e-08
6.1512e-08
6.45569e-08
6.04842e-08
5.0009e-08
3.59785e-08
2.22709e-08
1.22255e-08
6.99063e-09
6.99134e-08
7.71307e-08
8.13795e-08
7.85903e-08
6.74313e-08
5.04718e-08
3.20261e-08
1.66904e-08
6.91341e-09
2.75964e-09
5.84371e-07
8.28593e-07
1.0951e-06
1.31566e-06
1.44047e-06
1.44047e-06
1.31565e-06
1.09509e-06
8.28585e-07
5.84364e-07
2.35132e-07
3.22826e-07
4.2616e-07
5.15489e-07
5.67292e-07
5.67283e-07
5.15467e-07
4.2613e-07
3.22796e-07
2.35105e-07
8.23525e-08
1.10276e-07
1.44705e-07
1.75723e-07
1.94037e-07
1.94023e-07
1.75684e-07
1.44649e-07
1.10216e-07
8.22961e-08
1.07712e-07
1.45262e-07
1.90631e-07
2.30857e-07
2.54423e-07
2.54384e-07
2.30751e-07
1.90481e-07
1.45099e-07
1.07556e-07
8.40399e-08
1.12695e-07
1.47939e-07
1.79516e-07
1.98115e-07
1.98043e-07
1.79318e-07
1.47656e-07
1.12383e-07
8.37365e-08
9.10993e-08
1.22442e-07
1.6076e-07
1.94948e-07
2.15018e-07
2.14878e-07
1.94561e-07
1.60205e-07
1.21825e-07
9.04974e-08
8.53177e-08
1.14449e-07
1.50219e-07
1.82202e-07
2.00963e-07
2.00741e-07
1.81586e-07
1.49338e-07
1.1347e-07
8.43641e-08
8.72061e-08
1.17009e-07
1.5353e-07
1.8612e-07
2.05178e-07
2.04859e-07
1.85238e-07
1.52275e-07
1.15621e-07
8.5857e-08
8.56922e-08
1.14877e-07
1.50675e-07
1.8262e-07
2.01268e-07
2.00879e-07
1.81545e-07
1.49152e-07
1.13196e-07
8.4054e-08
8.61482e-08
1.1547e-07
1.51413e-07
1.8347e-07
2.02162e-07
2.01742e-07
1.82309e-07
1.49771e-07
1.13654e-07
8.43663e-08
8.56914e-08
1.14844e-07
1.50597e-07
1.825e-07
2.01118e-07
2.0073e-07
1.8143e-07
1.49087e-07
1.1317e-07
8.40343e-08
8.56745e-08
1.14887e-07
1.50737e-07
1.82761e-07
2.01503e-07
2.01221e-07
1.81985e-07
1.49654e-07
1.13691e-07
8.44756e-08
8.53268e-08
1.14535e-07
1.50431e-07
1.8256e-07
2.01456e-07
2.01345e-07
1.82264e-07
1.50038e-07
1.14114e-07
8.48853e-08
8.50762e-08
1.14332e-07
1.50344e-07
1.82651e-07
2.01759e-07
2.01845e-07
1.82902e-07
1.50729e-07
1.14779e-07
8.54786e-08
8.48566e-08
1.14126e-07
1.502e-07
1.82624e-07
2.01891e-07
2.02136e-07
1.83312e-07
1.51189e-07
1.1523e-07
8.58854e-08
8.48992e-08
1.14186e-07
1.50286e-07
1.82761e-07
2.02095e-07
2.02404e-07
1.83613e-07
1.5148e-07
1.15479e-07
8.60893e-08
8.52158e-08
1.14524e-07
1.50609e-07
1.83047e-07
2.02333e-07
2.02586e-07
1.83732e-07
1.51534e-07
1.15476e-07
8.60553e-08
8.57368e-08
1.15105e-07
1.51194e-07
1.83572e-07
2.02745e-07
2.0286e-07
1.83865e-07
1.51551e-07
1.15409e-07
8.59508e-08
8.61856e-08
1.1565e-07
1.51797e-07
1.84166e-07
2.03256e-07
2.03239e-07
1.841e-07
1.51662e-07
1.15431e-07
8.5929e-08
8.63003e-08
1.15861e-07
1.52116e-07
1.84564e-07
2.03676e-07
2.03625e-07
1.84416e-07
1.51903e-07
1.15611e-07
8.60708e-08
8.6032e-08
1.15637e-07
1.51991e-07
1.84564e-07
2.03798e-07
2.03837e-07
1.8468e-07
1.52186e-07
1.15893e-07
8.63402e-08
8.55958e-08
1.15183e-07
1.51575e-07
1.84254e-07
2.03645e-07
2.03854e-07
1.84849e-07
1.52459e-07
1.16225e-07
8.66802e-08
8.52821e-08
1.14828e-07
1.5121e-07
1.83949e-07
2.03474e-07
2.03864e-07
1.8504e-07
1.52784e-07
1.16617e-07
8.7072e-08
8.5263e-08
1.14801e-07
1.51186e-07
1.83968e-07
2.03592e-07
2.0412e-07
1.85431e-07
1.53261e-07
1.17106e-07
8.75141e-08
8.55051e-08
1.15101e-07
1.51547e-07
1.84397e-07
2.04098e-07
2.04702e-07
1.8606e-07
1.53886e-07
1.17662e-07
8.79723e-08
8.58507e-08
1.15553e-07
1.52117e-07
1.85058e-07
2.04809e-07
2.05409e-07
1.86708e-07
1.54431e-07
1.18074e-07
8.82724e-08
8.61648e-08
1.15952e-07
1.52606e-07
1.85574e-07
2.05272e-07
2.05731e-07
1.8683e-07
1.54351e-07
1.17843e-07
8.79831e-08
8.63457e-08
1.16096e-07
1.5268e-07
1.85487e-07
2.0492e-07
2.05034e-07
1.85786e-07
1.53049e-07
1.16458e-07
8.66813e-08
8.62755e-08
1.15809e-07
1.52083e-07
1.84477e-07
2.03416e-07
2.0303e-07
1.83392e-07
1.50481e-07
1.13994e-07
8.44932e-08
8.58737e-08
1.15048e-07
1.50834e-07
1.82667e-07
2.01034e-07
2.00188e-07
1.80315e-07
1.4746e-07
1.11294e-07
8.22029e-08
8.52162e-08
1.13997e-07
1.49274e-07
1.80595e-07
1.98535e-07
1.97468e-07
1.77646e-07
1.45092e-07
1.09365e-07
8.06709e-08
8.45762e-08
1.13051e-07
1.47954e-07
1.78965e-07
1.96749e-07
1.95759e-07
1.7623e-07
1.44098e-07
1.08765e-07
8.03279e-08
8.42372e-08
1.12591e-07
1.47361e-07
1.78333e-07
1.96233e-07
1.95534e-07
1.764e-07
1.4465e-07
1.09547e-07
8.11725e-08
8.43323e-08
1.12825e-07
1.47779e-07
1.79005e-07
1.97248e-07
1.96942e-07
1.7816e-07
1.46622e-07
1.11518e-07
8.29939e-08
8.46997e-08
1.13571e-07
1.49022e-07
1.80786e-07
1.99562e-07
1.99682e-07
1.81137e-07
1.49588e-07
1.14244e-07
8.53796e-08
8.50629e-08
1.14408e-07
1.50521e-07
1.82987e-07
2.024e-07
2.02942e-07
1.84527e-07
1.52801e-07
1.17068e-07
8.77596e-08
8.5261e-08
1.14997e-07
1.517e-07
1.84809e-07
2.04792e-07
2.05672e-07
1.87295e-07
1.55321e-07
1.19186e-07
8.94644e-08
8.56162e-08
1.15509e-07
1.52437e-07
1.85767e-07
2.05909e-07
2.0681e-07
1.88304e-07
1.56087e-07
1.19698e-07
8.97677e-08
8.66458e-08
1.16494e-07
1.53225e-07
1.86155e-07
2.058e-07
2.0621e-07
1.87334e-07
1.54935e-07
1.18546e-07
8.87303e-08
8.89211e-08
1.18468e-07
1.54447e-07
1.86104e-07
2.04214e-07
2.03142e-07
1.83153e-07
1.50233e-07
1.13927e-07
8.46687e-08
9.2133e-08
1.20692e-07
1.5477e-07
1.83645e-07
1.98437e-07
1.94149e-07
1.71729e-07
1.37712e-07
1.01811e-07
7.40554e-08
9.39755e-08
1.20612e-07
1.51553e-07
1.76322e-07
1.86624e-07
1.78496e-07
1.53872e-07
1.19792e-07
8.58043e-08
6.07199e-08
9.37969e-08
1.18488e-07
1.46508e-07
1.67611e-07
1.74182e-07
1.63245e-07
1.37545e-07
1.0426e-07
7.25007e-08
4.96829e-08
9.64023e-08
1.20139e-07
1.46341e-07
1.64699e-07
1.68068e-07
1.542e-07
1.26577e-07
9.27032e-08
6.16863e-08
3.99693e-08
1.05652e-07
1.29231e-07
1.54199e-07
1.70044e-07
1.70004e-07
1.5261e-07
1.22193e-07
8.67859e-08
5.55432e-08
3.41163e-08
1.22189e-07
1.46434e-07
1.71036e-07
1.85135e-07
1.82156e-07
1.61352e-07
1.27749e-07
8.9882e-08
5.68713e-08
3.42075e-08
1.3811e-07
1.63193e-07
1.88118e-07
2.01485e-07
1.96708e-07
1.73497e-07
1.37301e-07
9.70337e-08
6.17679e-08
3.73295e-08
1.52332e-07
1.79941e-07
2.07497e-07
2.22671e-07
2.18324e-07
1.94143e-07
1.55762e-07
1.12443e-07
7.36478e-08
4.58503e-08
1.52151e-07
1.7962e-07
2.07749e-07
2.24548e-07
2.22705e-07
2.01456e-07
1.65553e-07
1.23534e-07
8.43177e-08
5.49553e-08
1.90563e-07
2.25261e-07
2.60294e-07
2.82378e-07
2.83401e-07
2.61559e-07
2.21086e-07
1.71355e-07
1.22174e-07
8.38035e-08
)
;
    }
    inlet
    {
        type            calculated;
        value           uniform 0;
    }
    outlet
    {
        type            calculated;
        value           uniform 0;
    }
}


// ************************************************************************* //
