/*--------------------------------*- C++ -*----------------------------------*\
| =========                 |                                                 |
| \\      /  F ield         | OpenFOAM: The Open Source CFD Toolbox           |
|  \\    /   O peration     | Version:  2406                                  |
|   \\  /    A nd           | Website:  www.openfoam.com                      |
|    \\/     M anipulation  |                                                 |
\*---------------------------------------------------------------------------*/
FoamFile
{
    version     2.0;
    format      ascii;
    arch        "LSB;label=32;scalar=64";
    class       volVectorField;
    location    "1";
    object      momentError;
}
// * * * * * * * * * * * * * * * * * * * * * * * * * * * * * * * * * * * * * //

dimensions      [0 1 -2 0 0 0 0];

internalField   nonuniform List<vector> 
25000
(
(0.000145797 -3.30256e-06 5.85209e-05)
(0.000141734 1.3656e-05 7.86091e-05)
(0.000130848 2.52369e-05 8.68502e-05)
(0.000117464 2.8689e-05 9.08159e-05)
(0.000104862 2.99826e-05 9.28536e-05)
(9.32543e-05 3.08228e-05 9.53263e-05)
(7.9988e-05 3.11752e-05 9.90037e-05)
(6.61513e-05 3.24381e-05 0.000101656)
(5.10038e-05 2.96416e-05 0.00010111)
(3.5004e-05 2.21484e-05 0.000102395)
(0.000126967 -4.86814e-07 7.36853e-05)
(0.000123061 1.62123e-05 8.93241e-05)
(0.000111247 2.46431e-05 9.49274e-05)
(9.75719e-05 2.71429e-05 9.63833e-05)
(8.54122e-05 2.75202e-05 9.61781e-05)
(7.40074e-05 2.73604e-05 9.69437e-05)
(6.09306e-05 2.68061e-05 9.97254e-05)
(4.72176e-05 2.562e-05 0.000102869)
(3.2971e-05 2.08136e-05 0.000103426)
(1.79889e-05 1.54857e-05 0.000101576)
(0.000122079 -9.16754e-06 8.04393e-05)
(0.000117803 4.59232e-06 9.26092e-05)
(0.000105066 1.10639e-05 9.6767e-05)
(9.09378e-05 1.3401e-05 9.66242e-05)
(7.87986e-05 1.38781e-05 9.47908e-05)
(6.7364e-05 1.36236e-05 9.42201e-05)
(5.40797e-05 1.28844e-05 9.60342e-05)
(3.96467e-05 1.07307e-05 9.91663e-05)
(2.41024e-05 5.59888e-06 0.000101436)
(7.16845e-06 -5.36079e-07 0.000100801)
(0.000117539 -1.95786e-05 8.26075e-05)
(0.000114096 -8.46292e-06 9.28311e-05)
(0.000101365 -3.24274e-06 9.57968e-05)
(8.74296e-05 -1.00366e-06 9.44672e-05)
(7.54855e-05 -3.33465e-07 9.16591e-05)
(6.41596e-05 -5.36635e-07 9.03528e-05)
(5.09152e-05 -1.41241e-06 9.15471e-05)
(3.60862e-05 -3.54698e-06 9.44022e-05)
(2.01734e-05 -7.89166e-06 9.74673e-05)
(3.81261e-06 -1.43255e-05 9.84934e-05)
(0.000114433 -2.85462e-05 8.28626e-05)
(0.000111658 -1.91263e-05 9.22525e-05)
(9.91099e-05 -1.43707e-05 9.43125e-05)
(8.5456e-05 -1.19463e-05 9.22106e-05)
(7.3701e-05 -1.09049e-05 8.88927e-05)
(6.25572e-05 -1.08626e-05 8.72615e-05)
(4.9543e-05 -1.166e-05 8.8195e-05)
(3.49135e-05 -1.36179e-05 9.09255e-05)
(1.93518e-05 -1.74148e-05 9.42864e-05)
(4.22968e-06 -2.45864e-05 9.60767e-05)
(0.000114548 -3.72642e-05 8.28771e-05)
(0.000112195 -2.88556e-05 9.23577e-05)
(9.95882e-05 -2.40802e-05 9.41302e-05)
(8.59105e-05 -2.12983e-05 9.17571e-05)
(7.41125e-05 -1.98328e-05 8.82642e-05)
(6.29581e-05 -1.95093e-05 8.65292e-05)
(5.00293e-05 -2.02392e-05 8.74101e-05)
(3.54721e-05 -2.22175e-05 9.01327e-05)
(1.99362e-05 -2.61184e-05 9.35127e-05)
(5.23834e-06 -3.4845e-05 9.51558e-05)
(0.000118274 -4.6715e-05 8.21632e-05)
(0.000115676 -3.94914e-05 9.24852e-05)
(0.000102614 -3.49357e-05 9.46126e-05)
(8.86048e-05 -3.19452e-05 9.25658e-05)
(7.65875e-05 -3.02104e-05 8.93132e-05)
(6.533e-05 -2.97531e-05 8.77164e-05)
(5.2327e-05 -3.0582e-05 8.86908e-05)
(3.77042e-05 -3.26452e-05 9.14657e-05)
(2.20216e-05 -3.66467e-05 9.46692e-05)
(7.2116e-06 -4.72818e-05 9.55343e-05)
(0.000123383 -5.49907e-05 7.86602e-05)
(0.00011969 -4.98262e-05 9.07845e-05)
(0.000106265 -4.64983e-05 9.36146e-05)
(9.22901e-05 -4.38096e-05 9.25647e-05)
(8.03564e-05 -4.21315e-05 9.02083e-05)
(6.92734e-05 -4.18561e-05 8.91696e-05)
(5.66153e-05 -4.30023e-05 9.04449e-05)
(4.24289e-05 -4.49685e-05 9.32686e-05)
(2.63624e-05 -4.84978e-05 9.58199e-05)
(1.04871e-05 -6.04827e-05 9.50236e-05)
(0.000127021 -6.07233e-05 6.9746e-05)
(0.000122596 -5.93872e-05 8.55427e-05)
(0.000110055 -5.87732e-05 8.95277e-05)
(9.72263e-05 -5.69153e-05 9.00269e-05)
(8.59461e-05 -5.56903e-05 8.92655e-05)
(7.55583e-05 -5.57964e-05 8.93334e-05)
(6.41103e-05 -5.75148e-05 9.1143e-05)
(5.14976e-05 -5.97195e-05 9.37556e-05)
(3.65519e-05 -6.27983e-05 9.47733e-05)
(2.19335e-05 -7.64845e-05 9.22524e-05)
(0.000144598 -6.26637e-05 4.83855e-05)
(0.000135342 -6.58908e-05 7.08222e-05)
(0.000123851 -6.96654e-05 7.89769e-05)
(0.000112446 -6.92249e-05 8.2543e-05)
(0.000101691 -6.92976e-05 8.40387e-05)
(9.19288e-05 -7.0852e-05 8.55847e-05)
(8.18871e-05 -7.45244e-05 8.7793e-05)
(7.10385e-05 -7.90002e-05 8.93044e-05)
(5.79266e-05 -8.32741e-05 8.79317e-05)
(4.84636e-05 -9.91864e-05 8.61633e-05)
(0.000514885 -0.000170634 1.01757e-05)
(0.000514084 -0.000105787 0.000149251)
(0.000516869 -6.00372e-05 0.000242138)
(0.000509986 -3.15574e-05 0.000307119)
(0.00049203 -8.83442e-06 0.000355471)
(0.000465699 9.0246e-06 0.00039655)
(0.000428769 2.30277e-05 0.000436372)
(0.000381255 3.54123e-05 0.000474262)
(0.00032309 4.31402e-05 0.000510804)
(0.000267121 3.76176e-05 0.000610813)
(0.000411785 -0.000138007 0.000101874)
(0.000424693 -7.96891e-05 0.000237934)
(0.000428401 -4.98673e-05 0.00032379)
(0.000417232 -3.24054e-05 0.000374247)
(0.000396682 -2.03419e-05 0.000407897)
(0.000370098 -1.27092e-05 0.000436251)
(0.000335548 -8.30679e-06 0.000462173)
(0.000292659 -6.74212e-06 0.000477498)
(0.000240485 -1.02411e-05 0.000479254)
(0.000183129 -1.99952e-05 0.000522607)
(0.000367021 -0.000130119 0.000157663)
(0.000385894 -8.25496e-05 0.000289825)
(0.000386038 -6.1773e-05 0.000367282)
(0.000370071 -5.02381e-05 0.000407972)
(0.000347695 -4.39997e-05 0.000433729)
(0.000322377 -4.18787e-05 0.000457186)
(0.000291923 -4.292e-05 0.000482004)
(0.000253998 -4.70499e-05 0.000496763)
(0.000206583 -5.59015e-05 0.00048766)
(0.000151824 -7.53508e-05 0.000497599)
(0.000337506 -0.000130873 0.000183158)
(0.000356176 -9.28119e-05 0.000309178)
(0.00035359 -7.71857e-05 0.000378794)
(0.000337181 -6.90962e-05 0.000414618)
(0.000315992 -6.5862e-05 0.00043634)
(0.000292734 -6.67925e-05 0.000456045)
(0.000265741 -7.16711e-05 0.000478801)
(0.000232684 -8.01805e-05 0.000494864)
(0.00019078 -9.22804e-05 0.000486466)
(0.000142572 -0.000118158 0.000478687)
(0.000317556 -0.000131813 0.000186764)
(0.000335477 -0.00010271 0.00030955)
(0.000332743 -9.10535e-05 0.000375877)
(0.000317861 -8.49826e-05 0.000410542)
(0.000298675 -8.32238e-05 0.000430873)
(0.000277538 -8.58245e-05 0.00044839)
(0.000253242 -9.29438e-05 0.000468947)
(0.00022414 -0.000104611 0.000484245)
(0.000187144 -0.000120471 0.00047719)
(0.000144972 -0.000152018 0.000462179)
(0.000307503 -0.00013263 0.000173449)
(0.000327246 -0.000112449 0.000299944)
(0.000326385 -0.000104837 0.000368062)
(0.000313347 -0.00010027 0.00040416)
(0.000295811 -9.95204e-05 0.000425393)
(0.00027638 -0.000103552 0.000442993)
(0.00025414 -0.000112633 0.000462758)
(0.000227656 -0.000126867 0.000476673)
(0.000193721 -0.000146135 0.000468038)
(0.000155156 -0.000182898 0.000448994)
(0.000306439 -0.000130615 0.000140869)
(0.000330462 -0.000120594 0.000278647)
(0.000333638 -0.000118212 0.000353284)
(0.000323041 -0.000115999 0.000392863)
(0.000306902 -0.000116772 0.000416911)
(0.000288774 -0.000122667 0.000436781)
(0.000268045 -0.000134235 0.000457408)
(0.000243052 -0.000151273 0.000469858)
(0.000210884 -0.00017286 0.000457157)
(0.000174429 -0.000214396 0.000436305)
(0.00031331 -0.000120492 8.07492e-05)
(0.000341366 -0.00012107 0.000234654)
(0.000350841 -0.000125216 0.000320429)
(0.000344838 -0.000127189 0.000366218)
(0.000331354 -0.000131323 0.000394973)
(0.000314861 -0.000140394 0.000418499)
(0.000295211 -0.000155545 0.000440468)
(0.000270694 -0.000175296 0.000450518)
(0.000238213 -0.000197486 0.000434052)
(0.000202256 -0.00024393 0.000418273)
(0.000330514 -9.6716e-05 -1.72977e-05)
(0.000357392 -0.000107008 0.000150706)
(0.000373846 -0.000119419 0.000249575)
(0.000375842 -0.000127689 0.000306762)
(0.000368121 -0.000137867 0.000343497)
(0.000354786 -0.00015194 0.000371312)
(0.000336427 -0.000171529 0.000393146)
(0.000312345 -0.000194009 0.000400885)
(0.000281005 -0.000219403 0.000388348)
(0.000252187 -0.000277472 0.000390715)
(0.000405887 -6.22113e-05 -0.000186084)
(0.000416433 -7.67731e-05 2.29643e-06)
(0.000435043 -9.90262e-05 0.00011661)
(0.000445264 -0.000115778 0.000193659)
(0.000444973 -0.000135302 0.000246777)
(0.000437424 -0.000157721 0.000285693)
(0.000423712 -0.000185276 0.000315981)
(0.000402843 -0.000216952 0.000336216)
(0.000376036 -0.000257135 0.000344462)
(0.000363847 -0.000335648 0.000381392)
(0.00101174 -0.000460023 -0.00075775)
(0.00101368 -0.000315497 -0.000235466)
(0.00104039 -0.000221482 0.000119387)
(0.00105632 -0.000157033 0.000411632)
(0.00105081 -0.000100143 0.000670377)
(0.00102516 -5.04159e-05 0.000919276)
(0.000974826 -6.50311e-06 0.00118233)
(0.000900286 3.14154e-05 0.0014669)
(0.00080597 6.2071e-05 0.0017827)
(0.000728749 7.42804e-05 0.00241511)
(0.000750368 -0.000376715 -0.000434181)
(0.000784368 -0.000255067 9.37885e-06)
(0.000826736 -0.000193603 0.000310908)
(0.000849485 -0.000152974 0.000539377)
(0.000848036 -0.000119764 0.00072677)
(0.00082375 -9.3378e-05 0.00089524)
(0.000773459 -7.17578e-05 0.00106589)
(0.000697785 -5.58316e-05 0.0012424)
(0.00060091 -4.86586e-05 0.00143367)
(0.000502513 -5.16493e-05 0.00184451)
(0.000637869 -0.000334692 -0.000283897)
(0.000694708 -0.00023937 0.000131757)
(0.000747948 -0.000197547 0.000418396)
(0.000773894 -0.00017193 0.000623988)
(0.000773305 -0.000153906 0.000782246)
(0.000749771 -0.000142107 0.00091723)
(0.000700776 -0.000134886 0.00104692)
(0.000624546 -0.000132089 0.00117334)
(0.000522744 -0.000136756 0.0013051)
(0.000415595 -0.000161247 0.00160009)
(0.00057606 -0.000308499 -0.000224318)
(0.00064325 -0.000235776 0.000181525)
(0.00070202 -0.000207817 0.000460332)
(0.000729389 -0.000192855 0.000652948)
(0.00072895 -0.000184212 0.00079579)
(0.00070691 -0.00018136 0.000916069)
(0.000661218 -0.000184171 0.00102443)
(0.000587919 -0.000191267 0.00111915)
(0.000487185 -0.000204644 0.00120943)
(0.000382713 -0.000245239 0.00142333)
(0.000539883 -0.000281506 -0.000232181)
(0.000613242 -0.000230694 0.000177387)
(0.000675045 -0.000214763 0.000454118)
(0.000702406 -0.000207724 0.000638985)
(0.000702271 -0.000205577 0.000772896)
(0.000682322 -0.000208766 0.00088937)
(0.000640266 -0.000218664 0.000989003)
(0.000572179 -0.000233599 0.0010665)
(0.000476253 -0.000255336 0.00113082)
(0.000378594 -0.000311439 0.00129238)
(0.000526891 -0.000251395 -0.000299112)
(0.000604393 -0.000221065 0.000128027)
(0.000668752 -0.000216454 0.000411903)
(0.000697909 -0.000216448 0.000599253)
(0.000699094 -0.000219484 0.00073244)
(0.000681185 -0.000229202 0.000847566)
(0.000641465 -0.000245112 0.000945294)
(0.000576832 -0.000266396 0.00101725)
(0.000486021 -0.000295811 0.00107039)
(0.000395871 -0.000366772 0.00120478)
(0.00053651 -0.000211664 -0.000430085)
(0.000615359 -0.000201995 2.7598e-05)
(0.00068159 -0.000209654 0.000327608)
(0.000714732 -0.000218756 0.000529144)
(0.000719109 -0.000229394 0.000672829)
(0.000702606 -0.000245215 0.000788915)
(0.000664393 -0.000267212 0.000887701)
(0.00060212 -0.000295052 0.000963121)
(0.000517253 -0.000332373 0.00101887)
(0.000435693 -0.000419872 0.00115014)
(0.000571251 -0.000157057 -0.00063832)
(0.000645327 -0.000166586 -0.000138934)
(0.000710071 -0.000186761 0.000180702)
(0.000746366 -0.000207139 0.000401657)
(0.000755056 -0.000228612 0.000563046)
(0.000741672 -0.000253242 0.000690026)
(0.000706234 -0.000283512 0.000799411)
(0.000648625 -0.000319809 0.000889901)
(0.00057143 -0.000366169 0.000962825)
(0.000500052 -0.000471626 0.00111543)
(0.000643664 -8.11812e-05 -0.00094544)
(0.000700836 -0.000110626 -0.000393465)
(0.000758886 -0.000144426 -5.50421e-05)
(0.000796729 -0.000177464 0.00018955)
(0.000810695 -0.00021305 0.000377368)
(0.000803259 -0.000250866 0.000529517)
(0.000774635 -0.000294503 0.000664918)
(0.000726285 -0.000343316 0.000784963)
(0.000663228 -0.000404325 0.000890924)
(0.000616338 -0.000536375 0.00109457)
(0.000853594 1.02351e-05 -0.00153683)
(0.000871734 -3.42375e-05 -0.000853053)
(0.0009196 -8.99634e-05 -0.000453888)
(0.000957588 -0.000140547 -0.000147416)
(0.000976883 -0.000195254 0.000102714)
(0.000978693 -0.000252912 0.000318037)
(0.000962943 -0.00031757 0.000518647)
(0.000929311 -0.00038905 0.000709223)
(0.000885846 -0.000481654 0.00089067)
(0.00088081 -0.000653044 0.00120961)
(0.00204423 -0.00110741 -0.00208619)
(0.00198778 -0.000741192 -0.000917689)
(0.0020233 -0.000520264 -0.000148951)
(0.00205442 -0.000370957 0.000515207)
(0.00205105 -0.000242871 0.0011376)
(0.00200824 -0.000130532 0.00175907)
(0.00191928 -2.85624e-05 0.00241548)
(0.00178481 6.14956e-05 0.00313026)
(0.00161176 0.000145021 0.00393169)
(0.00148765 0.000203203 0.00549596)
(0.00147526 -0.000919321 -0.00136305)
(0.00149653 -0.000613211 -0.000419314)
(0.00156952 -0.000466131 0.000204393)
(0.00161994 -0.000369632 0.000710283)
(0.00162868 -0.000291298 0.00116184)
(0.00158908 -0.000226092 0.00159609)
(0.00149707 -0.000168088 0.00204692)
(0.0013567 -0.000120723 0.00253055)
(0.00117516 -8.44711e-05 0.00306276)
(0.00100309 -6.18813e-05 0.00410292)
(0.00121043 -0.000813795 -0.00107942)
(0.00128841 -0.000566604 -0.00022366)
(0.00138989 -0.000464575 0.000352316)
(0.00145663 -0.000405018 0.000797886)
(0.00147717 -0.000363495 0.00117555)
(0.00144089 -0.000331024 0.00152554)
(0.00134467 -0.000299959 0.00188294)
(0.00119723 -0.000275823 0.00227169)
(0.00100585 -0.000263615 0.00270048)
(0.00081643 -0.000285803 0.00349647)
(0.00106196 -0.000739703 -0.000989532)
(0.00116873 -0.000541687 -0.000168287)
(0.00129197 -0.000472392 0.000387121)
(0.00138135 -0.000442173 0.000812507)
(0.00142382 -0.000428574 0.00115669)
(0.00139205 -0.000420164 0.00145009)
(0.00128458 -0.000404418 0.00174173)
(0.00112669 -0.000394651 0.00206996)
(0.00093067 -0.000399523 0.00242737)
(0.000743937 -0.000456869 0.00305779)
(0.000974998 -0.000664345 -0.00103893)
(0.00110146 -0.000513629 -0.000212555)
(0.00124354 -0.000472712 0.000343839)
(0.0013571 -0.000467985 0.000783485)
(0.00142455 -0.000479229 0.0011412)
(0.00139584 -0.000481678 0.00138327)
(0.00127482 -0.000476239 0.00162087)
(0.00110812 -0.000478811 0.00190748)
(0.000912616 -0.000500977 0.00221338)
(0.000735293 -0.000592875 0.00273384)
(0.000939698 -0.000580504 -0.00120868)
(0.00107934 -0.000472701 -0.000341182)
(0.0012297 -0.000455343 0.000231838)
(0.00134954 -0.000467934 0.000682692)
(0.00141942 -0.000492518 0.00105302)
(0.00139588 -0.000509861 0.00129216)
(0.00127931 -0.000516518 0.00150963)
(0.00112233 -0.000536119 0.00177538)
(0.000938427 -0.000577895 0.00205387)
(0.000775635 -0.000704233 0.00251322)
(0.000953958 -0.000474363 -0.00150207)
(0.00110011 -0.000408216 -0.000560732)
(0.00124771 -0.000412496 4.22382e-05)
(0.00135415 -0.000437929 0.000494955)
(0.00140891 -0.000473031 0.000852583)
(0.0013904 -0.000501187 0.0011352)
(0.00130119 -0.000532514 0.00138904)
(0.00117011 -0.000577108 0.00165978)
(0.00100812 -0.00064258 0.00193565)
(0.000865179 -0.000807626 0.00238189)
(0.00102674 -0.000339065 -0.00194175)
(0.00117139 -0.000311547 -0.000893951)
(0.00131215 -0.000337169 -0.000249032)
(0.00140679 -0.000377968 0.000228546)
(0.00144984 -0.000427413 0.000610586)
(0.00143761 -0.000479384 0.000938261)
(0.00137303 -0.000539273 0.00124374)
(0.00126797 -0.000611401 0.00154532)
(0.00112961 -0.000703371 0.00184331)
(0.00101127 -0.000910215 0.00232582)
(0.00118731 -0.000160804 -0.00257245)
(0.00130997 -0.000174111 -0.00137797)
(0.00143991 -0.000225417 -0.000681083)
(0.00152975 -0.00028872 -0.000148974)
(0.00157238 -0.000364383 0.000293504)
(0.00156855 -0.000447139 0.000683737)
(0.00152195 -0.000541168 0.00105219)
(0.00143927 -0.000646055 0.0014091)
(0.00132995 -0.000775287 0.00175824)
(0.00126367 -0.00104017 0.00234114)
(0.00162272 4.89797e-05 -0.00389399)
(0.00168458 8.80224e-06 -0.00232941)
(0.00180293 -8.64035e-05 -0.0014607)
(0.00189263 -0.000186483 -0.000774252)
(0.00194172 -0.000301662 -0.000184851)
(0.00195274 -0.000427036 0.000350159)
(0.00192953 -0.00056739 0.000862288)
(0.00187376 -0.000723522 0.00136656)
(0.00180083 -0.0009255 0.00187233)
(0.00181791 -0.0012751 0.00272342)
(0.00361548 -0.00244607 -0.004442)
(0.00344048 -0.00160688 -0.00216784)
(0.00345059 -0.00112224 -0.000666714)
(0.00348202 -0.000798504 0.000678482)
(0.00347371 -0.000531694 0.00199132)
(0.00341141 -0.000306519 0.00334589)
(0.00327823 -0.000110269 0.00480552)
(0.00307083 5.15122e-05 0.00642877)
(0.00279992 0.000186463 0.00829056)
(0.00261857 0.000244735 0.0118515)
(0.00256497 -0.00212325 -0.00316066)
(0.00253941 -0.00139817 -0.00130973)
(0.00263884 -0.0010372 -8.97482e-05)
(0.0027243 -0.000796769 0.000943883)
(0.00275371 -0.000608314 0.00191435)
(0.00270839 -0.000457441 0.00288801)
(0.00257678 -0.000331074 0.00392101)
(0.00236378 -0.00023733 0.00505563)
(0.00208249 -0.000178064 0.00633226)
(0.00182357 -0.000168128 0.00874074)
(0.00205784 -0.00192515 -0.00275706)
(0.00215483 -0.0013024 -0.00105344)
(0.00231863 -0.0010169 7.96052e-05)
(0.00244377 -0.000840334 0.00099329)
(0.002503 -0.000717474 0.00181042)
(0.00246569 -0.000624103 0.00261606)
(0.00232339 -0.000543415 0.0034586)
(0.00209602 -0.000489454 0.00440688)
(0.00179703 -0.000470097 0.00547606)
(0.00150755 -0.00052862 0.00736406)
(0.00177157 -0.00177332 -0.00271412)
(0.00193725 -0.00123787 -0.00104876)
(0.00215108 -0.0010099 5.36687e-05)
(0.00232837 -0.000890084 0.000926189)
(0.00244736 -0.000826134 0.00165542)
(0.00241545 -0.000781261 0.00235353)
(0.00222983 -0.000717681 0.0030583)
(0.00197328 -0.000688176 0.00390137)
(0.00166232 -0.000698729 0.00483338)
(0.00137429 -0.000814448 0.00637091)
(0.00159805 -0.00161391 -0.00293577)
(0.00181697 -0.00116457 -0.00122367)
(0.00207692 -0.000990069 -0.000104567)
(0.00231955 -0.000927142 0.000816327)
(0.00252482 -0.000927431 0.00162425)
(0.00249864 -0.000901763 0.00207409)
(0.00224364 -0.000845045 0.00274628)
(0.00194333 -0.00083277 0.00351283)
(0.00162613 -0.000874163 0.00434018)
(0.00135072 -0.00104956 0.00564415)
(0.00151932 -0.00143805 -0.00339531)
(0.00177768 -0.00106523 -0.00155393)
(0.00206058 -0.000934946 -0.000381366)
(0.00231807 -0.000905069 0.000571115)
(0.00252494 -0.000935424 0.00146961)
(0.00250452 -0.000938127 0.00191716)
(0.00225335 -0.000911746 0.00248696)
(0.00196856 -0.00093027 0.00321171)
(0.00166876 -0.00100748 0.00398199)
(0.00141681 -0.00124422 0.00515635)
(0.0015276 -0.00122508 -0.00410475)
(0.00181197 -0.000923096 -0.00205355)
(0.00209462 -0.000831563 -0.000788934)
(0.00231011 -0.000821367 0.000180715)
(0.00244839 -0.000860476 0.00096455)
(0.00243462 -0.000885811 0.00164769)
(0.00227195 -0.000924488 0.00226697)
(0.00205206 -0.000997073 0.00298191)
(0.00179137 -0.00111819 0.00374045)
(0.00157353 -0.00142368 0.00488677)
(0.00163213 -0.000969673 -0.00511696)
(0.00192977 -0.000730185 -0.0027717)
(0.00220812 -0.000675912 -0.00138505)
(0.00240056 -0.000693637 -0.000342562)
(0.00250067 -0.000753365 0.00051548)
(0.0024972 -0.000829921 0.00129127)
(0.00239644 -0.000927345 0.00203462)
(0.00222725 -0.00105298 0.00280146)
(0.00200719 -0.00122132 0.00359673)
(0.00183264 -0.00159795 0.00482018)
(0.00186466 -0.000656281 -0.00653668)
(0.00214653 -0.000479551 -0.00379195)
(0.00241786 -0.00046843 -0.00224687)
(0.00260723 -0.000526815 -0.00105778)
(0.00270747 -0.000633192 -4.81779e-05)
(0.00272054 -0.000766417 0.000866805)
(0.00265461 -0.000926222 0.00174713)
(0.00252491 -0.00110982 0.00262561)
(0.00235467 -0.00134055 0.00352084)
(0.00227184 -0.0018097 0.00495878)
(0.00249502 -0.000328053 -0.0096259)
(0.00271211 -0.000171877 -0.00592258)
(0.00298829 -0.000228062 -0.00390609)
(0.00319223 -0.000349191 -0.00232294)
(0.00331323 -0.000522337 -0.000961062)
(0.0033584 -0.000726995 0.000282663)
(0.00333816 -0.000963308 0.00148071)
(0.00325903 -0.00122919 0.00268174)
(0.0031558 -0.00157776 0.00392659)
(0.00321654 -0.00217858 0.00597511)
(0.00582044 -0.00447435 -0.00676053)
(0.00544173 -0.00297741 -0.00336155)
(0.00537301 -0.0021035 -0.00102206)
(0.0053517 -0.00151543 0.00117365)
(0.005277 -0.00104587 0.00340844)
(0.00512455 -0.000669633 0.00578824)
(0.00486642 -0.000367211 0.00839853)
(0.00449398 -0.000150972 0.0113455)
(0.00401616 -1.93893e-05 0.0147736)
(0.00366515 -0.00011415 0.0213458)
(0.00417658 -0.00401434 -0.00535818)
(0.00404208 -0.00269269 -0.00247159)
(0.00413367 -0.00201253 -0.000498083)
(0.00421968 -0.00154784 0.00125722)
(0.00422874 -0.00118978 0.00297629)
(0.00412621 -0.000915381 0.00475232)
(0.00389307 -0.000707119 0.00665747)
(0.00353506 -0.000580231 0.00876859)
(0.00306662 -0.000541631 0.0111613)
(0.00263101 -0.000671204 0.0156465)
(0.00333553 -0.00374439 -0.00517658)
(0.0034163 -0.0025702 -0.00239464)
(0.00362567 -0.00200416 -0.000495876)
(0.00378971 -0.00163749 0.00110802)
(0.00386137 -0.00137934 0.00260267)
(0.00378319 -0.00118694 0.00412366)
(0.00354295 -0.00104161 0.00572449)
(0.00317541 -0.000968679 0.00753375)
(0.00269686 -0.000982183 0.00958068)
(0.00223625 -0.00119643 0.0131523)
(0.00282537 -0.00352887 -0.00547696)
(0.00303316 -0.00248042 -0.00264292)
(0.00333678 -0.00200238 -0.00073813)
(0.00359866 -0.00173031 0.000827691)
(0.00378452 -0.00157484 0.00217617)
(0.00372154 -0.00145183 0.00354327)
(0.00341108 -0.0013245 0.00492326)
(0.00300616 -0.00128444 0.00657187)
(0.002522 -0.00133907 0.00839258)
(0.00207714 -0.00162863 0.0113483)
(0.00247791 -0.00328675 -0.00615709)
(0.00278773 -0.00236392 -0.00314316)
(0.00318062 -0.00196997 -0.00116026)
(0.00356312 -0.00179986 0.000514624)
(0.00391622 -0.00176918 0.00201623)
(0.00387028 -0.00168106 0.00285795)
(0.00343575 -0.00154589 0.00430267)
(0.00296555 -0.0015236 0.00582934)
(0.00248278 -0.00162136 0.00747131)
(0.00206973 -0.00199338 0.010011)
(0.00226497 -0.00301256 -0.00720576)
(0.00265511 -0.00219691 -0.00387818)
(0.0031009 -0.00186838 -0.00175918)
(0.00351679 -0.00174968 -5.78862e-06)
(0.00387946 -0.00176967 0.00172256)
(0.00385724 -0.00174282 0.00257077)
(0.00344063 -0.00165952 0.00378487)
(0.00300196 -0.00168459 0.00524229)
(0.00255551 -0.00183561 0.00678218)
(0.00219166 -0.00229604 0.00908288)
(0.00216638 -0.00268476 -0.00866416)
(0.00261825 -0.0019609 -0.00488329)
(0.00308475 -0.00168369 -0.00256099)
(0.00344659 -0.00158328 -0.000737549)
(0.00369115 -0.00159918 0.000759439)
(0.00368748 -0.00161907 0.00212751)
(0.00344091 -0.00166275 0.0033684)
(0.0031177 -0.00178204 0.00479005)
(0.00274104 -0.00200198 0.00629883)
(0.00244435 -0.00256383 0.00853187)
(0.00218531 -0.00230642 -0.010648)
(0.0026838 -0.00165561 -0.00625611)
(0.00316698 -0.00142399 -0.00368142)
(0.00350992 -0.00135724 -0.0017027)
(0.00370219 -0.00139643 -4.38205e-05)
(0.00372384 -0.00149244 0.00148057)
(0.00359037 -0.0016375 0.00293832)
(0.00335629 -0.00184445 0.00443786)
(0.00305175 -0.00213789 0.0059963)
(0.0028394 -0.0028036 0.00833766)
(0.00233797 -0.00186817 -0.0133674)
(0.00285157 -0.0012784 -0.00815611)
(0.00334922 -0.00109374 -0.00525625)
(0.00370621 -0.00107671 -0.00299034)
(0.00391355 -0.00117617 -0.00104484)
(0.00397438 -0.00135123 0.000728733)
(0.00390857 -0.00158947 0.00242469)
(0.0037464 -0.00188444 0.00410949)
(0.00353 -0.00227172 0.00582529)
(0.00347786 -0.00306933 0.00850394)
(0.00293247 -0.00148426 -0.0193954)
(0.00340254 -0.000859122 -0.0122364)
(0.00394379 -0.000734366 -0.00837389)
(0.00435459 -0.000790429 -0.00533314)
(0.00462382 -0.000973341 -0.0027188)
(0.00476045 -0.00124146 -0.000342932)
(0.00478844 -0.00158331 0.00191913)
(0.00472437 -0.00199227 0.00416658)
(0.00463066 -0.00255156 0.00649096)
(0.00480458 -0.00354253 0.0102241)
(0.00785104 -0.0062491 -0.00916271)
(0.00745565 -0.00440619 -0.00427885)
(0.00739522 -0.00326988 -0.000743206)
(0.00734314 -0.00246222 0.00265957)
(0.00718126 -0.00180361 0.00620877)
(0.00689349 -0.00128857 0.0100706)
(0.0064477 -0.000910221 0.0143839)
(0.0058359 -0.000702237 0.01933)
(0.00506866 -0.000695302 0.0251645)
(0.00446543 -0.0011937 0.0364012)
(0.00578062 -0.00572672 -0.00806923)
(0.00566562 -0.00407999 -0.00378377)
(0.00581285 -0.00319141 -0.000738903)
(0.00591953 -0.00253985 0.00205691)
(0.00589887 -0.00202067 0.00487015)
(0.00571164 -0.00162925 0.00783617)
(0.00533502 -0.00136232 0.0110573)
(0.0047766 -0.0012557 0.0146671)
(0.00405553 -0.00133767 0.0187978)
(0.0033804 -0.00181572 0.0265267)
(0.00467687 -0.00544087 -0.00854956)
(0.00483525 -0.00396728 -0.00425612)
(0.00514273 -0.00322024 -0.00125482)
(0.00536829 -0.00269421 0.00136578)
(0.00545384 -0.00230758 0.00387973)
(0.00532049 -0.00202226 0.00648974)
(0.00495329 -0.00183236 0.00925616)
(0.00440134 -0.00178835 0.0123977)
(0.00368684 -0.00192215 0.0159762)
(0.00300696 -0.00247463 0.0221838)
(0.00395459 -0.00519642 -0.00958945)
(0.00427296 -0.00387144 -0.00508174)
(0.00471103 -0.003235 -0.0020051)
(0.00508356 -0.00284065 0.000601483)
(0.0053479 -0.0026057 0.00290869)
(0.00525242 -0.00241016 0.00531846)
(0.00480098 -0.00223817 0.00775468)
(0.00421537 -0.0022316 0.010647)
(0.00351332 -0.00241017 0.0138537)
(0.00287573 -0.0030369 0.019016)
(0.00340862 -0.00489201 -0.0111041)
(0.00385464 -0.00371835 -0.00621111)
(0.00441844 -0.00319171 -0.00295867)
(0.00496818 -0.00294817 -0.000151079)
(0.00549054 -0.00290863 0.00240302)
(0.005436 -0.00276312 0.00394899)
(0.00481771 -0.00255957 0.00658577)
(0.00416207 -0.00256796 0.00927952)
(0.0034843 -0.00279681 0.0121781)
(0.00291339 -0.00351365 0.0166089)
(0.00301596 -0.00453491 -0.0131259)
(0.00355654 -0.00348657 -0.00765559)
(0.00419564 -0.00304131 -0.00414646)
(0.00479659 -0.00286588 -0.00119045)
(0.00533891 -0.00289218 0.00178109)
(0.00534079 -0.0028423 0.00335482)
(0.00477161 -0.00270927 0.00557966)
(0.00417994 -0.00278221 0.00815647)
(0.00357532 -0.00307836 0.0108631)
(0.00309845 -0.00389833 0.0148331)
(0.00275131 -0.00410811 -0.0157579)
(0.00335704 -0.00316109 -0.00949597)
(0.00402615 -0.00277248 -0.00562756)
(0.00456333 -0.00260459 -0.00251632)
(0.00494385 -0.00260073 8.52519e-05)
(0.00498426 -0.00261887 0.00252736)
(0.00468305 -0.00268061 0.00474552)
(0.00427265 -0.00288729 0.00723258)
(0.00378753 -0.00327168 0.00984706)
(0.00343253 -0.00421299 0.0136078)
(0.00261639 -0.00362428 -0.0192189)
(0.00326127 -0.00275146 -0.0119119)
(0.00395057 -0.00240989 -0.00761953)
(0.0044708 -0.00227279 -0.00424059)
(0.00479312 -0.00228634 -0.00135856)
(0.00488325 -0.00239636 0.00131325)
(0.00475817 -0.00259938 0.0038545)
(0.0044909 -0.00292085 0.00643158)
(0.00412801 -0.00339392 0.00907023)
(0.00392009 -0.00445503 0.0128688)
(0.00261394 -0.0030923 -0.0238814)
(0.0032589 -0.00227004 -0.0151822)
(0.00395827 -0.00196899 -0.0103589)
(0.00450024 -0.00188099 -0.00651451)
(0.00485535 -0.00195699 -0.00317331)
(0.00501582 -0.0021577 -0.000119922)
(0.00500354 -0.00247273 0.00277345)
(0.00485698 -0.00289738 0.00560391)
(0.0046406 -0.00347879 0.00842638)
(0.00468093 -0.00468856 0.0125789)
(0.00309098 -0.00271566 -0.0342604)
(0.00365583 -0.00181684 -0.0222543)
(0.00438954 -0.00154989 -0.0158283)
(0.00499943 -0.00152371 -0.0107094)
(0.00545174 -0.00167792 -0.00628367)
(0.00573736 -0.00197198 -0.00227817)
(0.00588105 -0.00239562 0.00148473)
(0.00590017 -0.00294185 0.0051489)
(0.00588638 -0.00372568 0.0088469)
(0.00624147 -0.00517145 0.0144077)
(0.00831627 -0.0059036 -0.0129009)
(0.00828792 -0.0047414 -0.0054999)
(0.0084667 -0.00387767 3.53219e-05)
(0.00850043 -0.00316194 0.00527021)
(0.00829591 -0.00251886 0.0106747)
(0.00787003 -0.00201033 0.0165212)
(0.00721118 -0.00167869 0.0230358)
(0.00633381 -0.00159266 0.0304951)
(0.0052652 -0.00182739 0.0392863)
(0.0044007 -0.00287386 0.0564048)
(0.00649977 -0.00548682 -0.0118933)
(0.00666569 -0.00444952 -0.00545061)
(0.00700689 -0.00384328 -0.000784616)
(0.00719032 -0.00330265 0.003515)
(0.0071442 -0.00281256 0.00784906)
(0.00684688 -0.00243111 0.012421)
(0.00628947 -0.00220509 0.0173694)
(0.00549666 -0.00220379 0.0228856)
(0.0045045 -0.00248078 0.0291456)
(0.00359467 -0.0034066 0.0409064)
(0.00548369 -0.00528241 -0.0131031)
(0.00587651 -0.00440698 -0.00665841)
(0.00636576 -0.0039524 -0.00210992)
(0.00668064 -0.00355163 0.00192768)
(0.00677078 -0.0032111 0.0058459)
(0.00655381 -0.00294459 0.0099376)
(0.00602517 -0.00279318 0.0142506)
(0.00525947 -0.00284649 0.0191074)
(0.00429556 -0.00315408 0.0245792)
(0.00340834 -0.00410897 0.0340396)
(0.00474204 -0.00506524 -0.0149763)
(0.00525044 -0.00433915 -0.00826903)
(0.00586186 -0.00400885 -0.00364066)
(0.00635022 -0.00376792 0.000367692)
(0.00667317 -0.00362111 0.0039849)
(0.00652445 -0.00346025 0.00781569)
(0.00591552 -0.00331543 0.0116606)
(0.00513513 -0.00339618 0.0161572)
(0.00421284 -0.00373574 0.0211015)
(0.00339575 -0.00473492 0.0289438)
(0.00412282 -0.0047374 -0.0174059)
(0.00470777 -0.00417056 -0.0102221)
(0.0054357 -0.00396767 -0.00537832)
(0.00613595 -0.00391891 -0.00109461)
(0.00679478 -0.00403499 0.00286728)
(0.00672251 -0.00394239 0.00540781)
(0.00593262 -0.0037335 0.00960801)
(0.0050984 -0.00381154 0.0137957)
(0.00423776 -0.00419098 0.0182564)
(0.0035261 -0.00525839 0.024958)
(0.00363676 -0.0043249 -0.020447)
(0.004254 -0.00389302 -0.0125477)
(0.00503599 -0.00377993 -0.00740139)
(0.00578889 -0.00380923 -0.0029456)
(0.00648174 -0.00400017 0.00164233)
(0.00650797 -0.00402765 0.00423646)
(0.00581277 -0.00390075 0.00775845)
(0.00509139 -0.00405027 0.0117498)
(0.00435307 -0.00449528 0.0158757)
(0.00378448 -0.00565301 0.0217651)
(0.00328584 -0.00382109 -0.0242563)
(0.00389348 -0.00349978 -0.015359)
(0.0046678 -0.00344132 -0.00978094)
(0.00533049 -0.00345793 -0.00513694)
(0.00582733 -0.00357973 -0.00114626)
(0.00591828 -0.0036807 0.00268815)
(0.00558841 -0.00380478 0.00615765)
(0.00512235 -0.00411713 0.00994607)
(0.00456325 -0.00465614 0.0138463)
(0.0041753 -0.00592956 0.0192079)
(0.0031006 -0.00324453 -0.0291433)
(0.00365838 -0.003003 -0.0189122)
(0.00440283 -0.00298624 -0.012846)
(0.005021 -0.00302033 -0.0078974)
(0.0054438 -0.00313817 -0.00355934)
(0.00560723 -0.00332861 0.000526375)
(0.0055167 -0.00361956 0.00439449)
(0.00525334 -0.00406094 0.00823732)
(0.00487377 -0.0046907 0.0120445)
(0.00469659 -0.00607774 0.0172164)
(0.00314005 -0.00260963 -0.0356345)