/*--------------------------------*- C++ -*----------------------------------*\
| =========                 |                                                 |
| \\      /  F ield         | OpenFOAM: The Open Source CFD Toolbox           |
|  \\    /   O peration     | Version:  2406                                  |
|   \\  /    A nd           | Website:  www.openfoam.com                      |
|    \\/     M anipulation  |                                                 |
\*---------------------------------------------------------------------------*/
FoamFile
{
    version     2.0;
    format      ascii;
    arch        "LSB;label=32;scalar=64";
    class       volScalarField;
    location    "1";
    object      p;
}
// * * * * * * * * * * * * * * * * * * * * * * * * * * * * * * * * * * * * * //

dimensions      [0 2 -2 0 0 0 0];

internalField   nonuniform List<scalar> 
25000
(
19.1004
19.0518
19.0206
19
18.9899
18.9899
19
19.0206
19.0518
19.1004
19.0518
18.9972
18.9605
18.9365
18.9247
18.9247
18.9365
18.9605
18.9972
19.0518
19.0206
18.9605
18.9189
18.8918
18.8785
18.8785
18.8918
18.9189
18.9605
19.0206
19
18.9365
18.8918
18.8628
18.8485
18.8485
18.8628
18.8918
18.9365
19
18.9899
18.9247
18.8785
18.8486
18.8338
18.8338
18.8485
18.8785
18.9247
18.9899
18.9899
18.9247
18.8785
18.8486
18.8338
18.8338
18.8485
18.8785
18.9247
18.9899
19
18.9365
18.8918
18.8628
18.8486
18.8485
18.8628
18.8918
18.9365
19
19.0206
18.9605
18.9189
18.8918
18.8785
18.8785
18.8918
18.9189
18.9605
19.0206
19.0519
18.9972
18.9605
18.9365
18.9247
18.9247
18.9365
18.9605
18.9972
19.0518
19.1004
19.0519
19.0206
19
18.9899
18.9899
19
19.0206
19.0518
19.1004
17.6284
17.6562
17.6755
17.6888
17.6956
17.6956
17.6888
17.6755
17.6562
17.6284
17.6562
17.6868
17.7084
17.7233
17.7311
17.7311
17.7233
17.7084
17.6867
17.6562
17.6756
17.7084
17.7329
17.7502
17.7593
17.7593
17.7502
17.7328
17.7084
17.6755
17.6888
17.7233
17.7502
17.7693
17.7793
17.7793
17.7693
17.7502
17.7233
17.6888
17.6956
17.7311
17.7593
17.7793
17.7896
17.7896
17.7793
17.7593
17.7311
17.6956
17.6956
17.7311
17.7593
17.7793
17.7896
17.7896
17.7793
17.7593
17.7311
17.6956
17.6888
17.7233
17.7502
17.7694
17.7793
17.7793
17.7693
17.7502
17.7233
17.6888
17.6756
17.7084
17.7329
17.7502
17.7593
17.7593
17.7502
17.7328
17.7084
17.6755
17.6562
17.6868
17.7084
17.7233
17.7311
17.7311
17.7233
17.7084
17.6867
17.6562
17.6285
17.6562
17.6756
17.6888
17.6956
17.6956
17.6888
17.6755
17.6562
17.6284
17.7195
17.7163
17.7146
17.7136
17.7132
17.7132
17.7136
17.7146
17.7162
17.7194
17.7163
17.7132
17.7111
17.7097
17.709
17.709
17.7097
17.7111
17.7131
17.7162
17.7146
17.7111
17.7087
17.7072
17.7064
17.7064
17.7071
17.7087
17.7111
17.7145
17.7137
17.7097
17.7072
17.7057
17.7051
17.7051
17.7057
17.7071
17.7097
17.7136
17.7132
17.709
17.7065
17.7051
17.7048
17.7048
17.7051
17.7064
17.709
17.7131
17.7132
17.709
17.7065
17.7051
17.7048
17.7048
17.7051
17.7064
17.709
17.7131
17.7137
17.7097
17.7072
17.7057
17.7051
17.7051
17.7057
17.7071
17.7097
17.7136
17.7146
17.7111
17.7087
17.7072
17.7065
17.7064
17.7072
17.7087
17.7111
17.7146
17.7163
17.7132
17.7111
17.7097
17.709
17.709
17.7097
17.7111
17.7131
17.7162
17.7195
17.7163
17.7146
17.7137
17.7132
17.7132
17.7136
17.7146
17.7162
17.7194
17.0238
17.0268
17.0291
17.0308
17.0317
17.0317
17.0308
17.029
17.0267
17.0237
17.0269
17.0307
17.0335
17.0355
17.0366
17.0365
17.0354
17.0334
17.0306
17.0267
17.0291
17.0335
17.0367
17.039
17.0403
17.0402
17.039
17.0366
17.0334
17.029
17.0309
17.0355
17.039
17.0416
17.0429
17.0429
17.0415
17.039
17.0354
17.0308
17.0318
17.0366
17.0403
17.0429
17.0444
17.0443
17.0429
17.0402
17.0365
17.0317
17.0318
17.0366
17.0403
17.0429
17.0444
17.0443
17.0429
17.0402
17.0365
17.0317
17.0309
17.0355
17.0391
17.0416
17.0429
17.0429
17.0415
17.039
17.0354
17.0308
17.0292
17.0335
17.0367
17.0391
17.0403
17.0403
17.039
17.0367
17.0334
17.0291
17.0269
17.0308
17.0335
17.0355
17.0366
17.0366
17.0355
17.0335
17.0307
17.0268
17.0239
17.0269
17.0292
17.0309
17.0318
17.0318
17.0308
17.0291
17.0268
17.0237
16.7913
16.7899
16.7891
16.7886
16.7883
16.7883
16.7885
16.789
16.7898
16.7911
16.79
16.7884
16.7872
16.7864
16.786
16.786
16.7863
16.7871
16.7882
16.7898
16.7892
16.7872
16.7858
16.7847
16.7842
16.7841
16.7846
16.7857
16.7871
16.789
16.7887
16.7865
16.7847
16.7835
16.7828
16.7828
16.7834
16.7846
16.7863
16.7885
16.7884
16.7861
16.7842
16.7829
16.7822
16.7822
16.7828
16.7841
16.7859
16.7883
16.7884
16.7861
16.7842
16.7829
16.7822
16.7822
16.7828
16.7841
16.7859
16.7883
16.7887
16.7865
16.7848
16.7835
16.7829
16.7829
16.7834
16.7847
16.7864
16.7885
16.7892
16.7873
16.7858
16.7848
16.7842
16.7842
16.7847
16.7857
16.7872
16.7891
16.7901
16.7884
16.7873
16.7865
16.786
16.786
16.7864
16.7872
16.7883
16.7899
16.7914
16.79
16.7892
16.7887
16.7884
16.7884
16.7886
16.7891
16.7899
16.7912
16.3381
16.3389
16.3395
16.3399
16.3401
16.3401
16.3399
16.3394
16.3388
16.3379
16.339
16.34
16.3407
16.3412
16.3414
16.3414
16.3411
16.3406
16.3398
16.3388
16.3396
16.3407
16.3416
16.3421
16.3423
16.3423
16.342
16.3414
16.3406
16.3394
16.34
16.3413
16.3421
16.3426
16.3428
16.3427
16.3425
16.342
16.3411
16.3398
16.3403
16.3416
16.3424
16.3428
16.3428
16.3428
16.3427
16.3423
16.3414
16.3401
16.3403
16.3416
16.3424
16.3428
16.3428
16.3428
16.3428
16.3423
16.3414
16.3401
16.3401
16.3413
16.3422
16.3427
16.3428
16.3428
16.3426
16.3421
16.3412
16.3399
16.3397
16.3408
16.3416
16.3422
16.3424
16.3424
16.3421
16.3415
16.3407
16.3395
16.3391
16.3401
16.3408
16.3413
16.3416
16.3415
16.3412
16.3407
16.3399
16.3389
16.3383
16.3391
16.3396
16.3401
16.3403
16.3403
16.34
16.3395
16.3389
16.3381
16.007
16.0066
16.0063
16.0061
16.006
16.006
16.0061
16.0062
16.0065
16.0068
16.0067
16.0061
16.0058
16.0055
16.0053
16.0053
16.0054
16.0056
16.006
16.0064
16.0064
16.0058
16.0053
16.0049
16.0047
16.0047
16.0049
16.0052
16.0056
16.0062
16.0063
16.0055
16.005
16.0045
16.0043
16.0043
16.0045
16.0048
16.0054
16.0061
16.0062
16.0054
16.0048
16.0043
16.0041
16.004
16.0043
16.0047
16.0053
16.006
16.0062
16.0054
16.0048
16.0044
16.0041
16.0041
16.0043
16.0047
16.0053
16.006
16.0063
16.0056
16.005
16.0046
16.0044
16.0043
16.0045
16.0049
16.0054
16.0061
16.0065
16.0059
16.0054
16.005
16.0048
16.0048
16.005
16.0053
16.0057
16.0063
16.0068
16.0063
16.0059
16.0056
16.0054
16.0054
16.0055
16.0058
16.0061
16.0066
16.0072
16.0067
16.0065
16.0063
16.0062
16.0062
16.0062
16.0064
16.0067
16.007
15.618
15.6182
15.6183
15.6184
15.6185
15.6185
15.6184
15.6183
15.6181
15.6178
15.6183
15.6185
15.6187
15.6188
15.6189
15.6188
15.6187
15.6186
15.6184
15.6181
15.6184
15.6187
15.6189
15.6191
15.6191
15.6191
15.619
15.6188
15.6186
15.6182
15.6185
15.6189
15.6191
15.6192
15.6192
15.6192
15.6192
15.619
15.6187
15.6184
15.6186
15.6189
15.6192
15.6193
15.6193
15.6192
15.6192
15.6191
15.6188
15.6185
15.6186
15.6189
15.6192
15.6193
15.6193
15.6193
15.6192
15.6191
15.6189
15.6185
15.6185
15.6189
15.6191
15.6192
15.6193
15.6193
15.6192
15.6191
15.6188
15.6184
15.6184
15.6187
15.619
15.6191
15.6192
15.6192
15.6191
15.6189
15.6187
15.6183
15.6183
15.6185
15.6187
15.6189
15.6189
15.6189
15.6189
15.6187
15.6185
15.6182
15.6181
15.6183
15.6184
15.6185
15.6186
15.6186
15.6185
15.6184
15.6183
15.618
15.2609
15.2608
15.2607
15.2606
15.2606
15.2606
15.2606
15.2607
15.2607
15.2608
15.2608
15.2606
15.2605
15.2605
15.2604
15.2604
15.2604
15.2605
15.2606
15.2607
15.2607
15.2605
15.2604
15.2603
15.2603
15.2602
15.2603
15.2604
15.2605
15.2607
15.2607
15.2605
15.2603
15.2602
15.2601
15.2601
15.2602
15.2603
15.2604
15.2606
15.2606
15.2604
15.2602
15.2601
15.2601
15.2601
15.2601
15.2602
15.2604
15.2606
15.2606
15.2604
15.2602
15.2601
15.26
15.2601
15.2601
15.2603
15.2604
15.2606
15.2606
15.2604
15.2603
15.2602
15.2601
15.2601
15.2602
15.2603
15.2605
15.2606
15.2606
15.2605
15.2604
15.2603
15.2602
15.2602
15.2603
15.2604
15.2605
15.2607
15.2607
15.2606
15.2605
15.2604
15.2604
15.2604
15.2604
15.2605
15.2606
15.2607
15.2608
15.2607
15.2606
15.2606
15.2606
15.2606
15.2606
15.2607
15.2608
15.2609
14.8886
14.8886
14.8887
14.8887
14.8888
14.8888
14.8888
14.8888
14.8887
14.8887
14.8886
14.8887
14.8888
14.8888
14.8888
14.8889
14.8889
14.8888
14.8888
14.8888
14.8886
14.8887
14.8888
14.8888
14.8889
14.8889
14.8889
14.8889
14.8888
14.8888
14.8886
14.8887
14.8888
14.8889
14.8889
14.8889
14.8889
14.8889
14.8889
14.8888
14.8886
14.8887
14.8888
14.8888
14.8889
14.8889
14.8889
14.8889
14.8889
14.8888
14.8885
14.8887
14.8887
14.8888
14.8888
14.8889
14.8889
14.8889
14.8889
14.8888
14.8885
14.8886
14.8887
14.8888
14.8888
14.8889
14.8889
14.8889
14.8888
14.8888
14.8884
14.8885
14.8886
14.8887
14.8888
14.8888
14.8888
14.8888
14.8888
14.8887
14.8884
14.8884
14.8885
14.8886
14.8887
14.8887
14.8887
14.8887
14.8887
14.8886
14.8883
14.8883
14.8884
14.8885
14.8886
14.8886
14.8886
14.8886
14.8887
14.8886
14.5246
14.5246
14.5246
14.5246
14.5247
14.5247
14.5248
14.5248
14.5249
14.5249
14.5244
14.5245
14.5245
14.5245
14.5246
14.5246
14.5247
14.5248
14.5248
14.5249
14.5244
14.5244
14.5244
14.5245
14.5245
14.5246
14.5246
14.5247
14.5248
14.5249
14.5244
14.5244
14.5244
14.5244
14.5244
14.5245
14.5246
14.5247
14.5247
14.5248
14.5243
14.5243
14.5243
14.5243
14.5244
14.5244
14.5245
14.5246
14.5247
14.5248
14.5243
14.5243
14.5243
14.5243
14.5243
14.5244
14.5245
14.5246
14.5247
14.5248
14.5242
14.5242
14.5242
14.5243
14.5243
14.5244
14.5245
14.5246
14.5246
14.5247
14.5242
14.5242
14.5242
14.5242
14.5243
14.5244
14.5245
14.5245
14.5246
14.5247
14.5242
14.5242
14.5242
14.5242
14.5243
14.5244
14.5245
14.5245
14.5246
14.5247
14.5241
14.5241
14.5242
14.5242
14.5243
14.5244
14.5245
14.5246
14.5247
14.5247
14.1566
14.1567
14.1568
14.1568
14.1569
14.157
14.157
14.1571
14.1571
14.1572
14.1564
14.1566
14.1567
14.1568
14.1569
14.157
14.157
14.1571
14.1571
14.1572
14.1564
14.1566
14.1567
14.1568
14.1568
14.1569
14.157
14.1571
14.1571
14.1572
14.1564
14.1565
14.1566
14.1567
14.1568
14.1569
14.157
14.157
14.1571
14.1571
14.1564
14.1565
14.1566
14.1567
14.1568
14.1568
14.1569
14.157
14.1571
14.1571
14.1564
14.1564
14.1565
14.1566
14.1567
14.1568
14.1569
14.157
14.157
14.1571
14.1563
14.1564
14.1565
14.1566
14.1567
14.1568
14.1568
14.1569
14.157
14.157
14.1563
14.1563
14.1564
14.1565
14.1566
14.1567
14.1568
14.1569
14.1569
14.157
14.1562
14.1563
14.1564
14.1564
14.1565
14.1566
14.1567
14.1568
14.1569
14.1569
14.1561
14.1562
14.1563
14.1564
14.1565
14.1566
14.1567
14.1568
14.1568
14.1569
13.7908
13.791
13.791
13.7911
13.7911
13.7912
13.7913
13.7913
13.7914
13.7915
13.7907
13.7908
13.7909
13.791
13.7911
13.7912
13.7912
13.7913
13.7914
13.7915
13.7907
13.7908
13.7909
13.7909
13.791
13.7911
13.7912
13.7913
13.7914
13.7915
13.7906
13.7907
13.7908
13.7909
13.791
13.7911
13.7912
13.7913
13.7913
13.7914
13.7906
13.7907
13.7908
13.7909
13.7909
13.791
13.7911
13.7912
13.7913
13.7914
13.7906
13.7907
13.7907
13.7908
13.7909
13.791
13.7911
13.7912
13.7913
13.7913
13.7906
13.7906
13.7907
13.7908
13.7909
13.791
13.7911
13.7911
13.7912
13.7913
13.7906
13.7906
13.7907
13.7907
13.7908
13.7909
13.791
13.7911
13.7912
13.7913
13.7905
13.7906
13.7906
13.7907
13.7908
13.7909
13.791
13.7911
13.7912
13.7913
13.7905
13.7906
13.7906
13.7907
13.7908
13.7909
13.791
13.7911
13.7911
13.7913
13.4241
13.4243
13.4243
13.4244
13.4244
13.4244
13.4245
13.4245
13.4245
13.4246
13.424
13.4242
13.4242
13.4243
13.4244
13.4244
13.4245
13.4245
13.4246
13.4247
13.424
13.4241
13.4242
13.4243
13.4244
13.4244
13.4245
13.4245
13.4246
13.4247
13.424
13.4241
13.4242
13.4243
13.4243
13.4244
13.4245
13.4245
13.4246
13.4246
13.424
13.4241
13.4242
13.4242
13.4243
13.4244
13.4244
13.4245
13.4246
13.4246
13.424
13.4241
13.4242
13.4242
13.4243
13.4243
13.4244
13.4245
13.4245
13.4246
13.424
13.4241
13.4241
13.4242
13.4243
13.4243
13.4244
13.4244
13.4245
13.4245
13.424
13.4241
13.4241
13.4242
13.4242
13.4243
13.4244
13.4244
13.4245
13.4245
13.424
13.4241
13.4241
13.4242
13.4242
13.4243
13.4243
13.4244
13.4244
13.4245
13.424
13.4241
13.4241
13.4242
13.4242
13.4242
13.4243
13.4243
13.4244
13.4245
13.0581
13.0582
13.0582
13.0582
13.0582
13.0582
13.0582
13.0582
13.0582
13.0583
13.0581
13.0581
13.0582
13.0582
13.0582
13.0582
13.0583
13.0583
13.0583
13.0583
13.0581
13.0581
13.0581
13.0582
13.0582
13.0582
13.0583
13.0583
13.0583
13.0583
13.0581
13.0581
13.0581
13.0582
13.0582
13.0582
13.0582
13.0583
13.0583
13.0583
13.0581
13.0581
13.0581
13.0582
13.0582
13.0582
13.0582
13.0582
13.0583
13.0583
13.0581
13.0581
13.0581
13.0582
13.0582
13.0582
13.0582
13.0582
13.0582
13.0582
13.0582
13.0582
13.0582
13.0582
13.0582
13.0582
13.0582
13.0582
13.0582
13.0582
13.0582
13.0582
13.0582
13.0582
13.0582
13.0582
13.0582
13.0582
13.0582
13.0582
13.0582
13.0582
13.0582
13.0582
13.0582
13.0582
13.0582
13.0582
13.0582
13.0582
13.0582
13.0582
13.0582
13.0582
13.0582
13.0582
13.0582
13.0582
13.0581
13.0581
12.6919
12.6919
12.6919
12.6919
12.6918
12.6918
12.6918
12.6918
12.6918
12.6918
12.6919
12.6919
12.6919
12.6919
12.6919
12.6918
12.6918
12.6918
12.6918
12.6918
12.6919
12.6919
12.6919
12.6919
12.6919
12.6918
12.6918
12.6918
12.6918
12.6918
12.6919
12.6919
12.6919
12.6919
12.6919
12.6918
12.6918
12.6918
12.6918
12.6917
12.692
12.6919
12.6919
12.6919
12.6919
12.6918
12.6918
12.6918
12.6917
12.6917
12.692
12.692
12.6919
12.6919
12.6919
12.6918
12.6918
12.6918
12.6917
12.6917
12.692
12.692
12.6919
12.6919
12.6919
12.6918
12.6918
12.6917
12.6917
12.6916
12.6921
12.692
12.692
12.6919
12.6919
12.6918
12.6918
12.6917
12.6917
12.6916
12.6921
12.692
12.692
12.6919
12.6919
12.6918
12.6918
12.6917
12.6916
12.6916
12.6921
12.692
12.692
12.6919
12.6919
12.6918
12.6918
12.6917
12.6916
12.6916
12.3258
12.3258
12.3257
12.3257
12.3257
12.3256
12.3256
12.3256
12.3256
12.3256
12.3258
12.3258
12.3257
12.3257
12.3257
12.3256
12.3256
12.3256
12.3256
12.3255
12.3258
12.3258
12.3258
12.3257
12.3257
12.3256
12.3256
12.3256
12.3255
12.3255
12.3259
12.3258
12.3258
12.3257
12.3257
12.3256
12.3256
12.3256
12.3255
12.3255
12.3259
12.3258
12.3258
12.3257
12.3257
12.3256
12.3256
12.3255
12.3255
12.3254
12.3259
12.3259
12.3258
12.3258
12.3257
12.3256
12.3256
12.3255
12.3255
12.3254
12.326
12.3259
12.3258
12.3258
12.3257
12.3256
12.3256
12.3255
12.3254
12.3254
12.326
12.3259
12.3258
12.3258
12.3257
12.3256
12.3255
12.3255
12.3254
12.3253
12.326
12.3259
12.3259
12.3258
12.3257
12.3256
12.3255
12.3255
12.3254
12.3253
12.326
12.3259
12.3258
12.3258
12.3257
12.3256
12.3256
12.3255
12.3254
12.3253
11.9595
11.9595
11.9594
11.9594
11.9594
11.9594
11.9594
11.9594
11.9594
11.9594
11.9595
11.9595
11.9595
11.9594
11.9594
11.9594
11.9594
11.9594
11.9593
11.9593
11.9595
11.9595
11.9595
11.9594
11.9594
11.9594
11.9594
11.9594
11.9593
11.9593
11.9596
11.9595
11.9595
11.9595
11.9594
11.9594
11.9594
11.9593
11.9593
11.9593
11.9596
11.9596
11.9595
11.9595
11.9594
11.9594
11.9594
11.9593
11.9593
11.9592
11.9596
11.9596
11.9595
11.9595
11.9594
11.9594
11.9593
11.9593
11.9593
11.9592
11.9597
11.9596
11.9595
11.9595
11.9595
11.9594
11.9593
11.9593
11.9592
11.9592
11.9597
11.9596
11.9596
11.9595
11.9595
11.9594
11.9593
11.9593
11.9592
11.9592
11.9597
11.9596
11.9596
11.9595
11.9595
11.9594
11.9593
11.9593
11.9592
11.9592
11.9597
11.9596
11.9595
11.9595
11.9594
11.9594
11.9594
11.9593
11.9592
11.9591
11.5931
11.5931
11.5931
11.5932
11.5932
11.5932
11.5932
11.5932
11.5932
11.5933
11.5931
11.5932
11.5932
11.5932
11.5932
11.5932
11.5932
11.5932
11.5932
11.5932
11.5932
11.5932
11.5932
11.5932
11.5932
11.5932
11.5932
11.5932
11.5932
11.5932
11.5932
11.5932
11.5932
11.5932
11.5932
11.5932
11.5932
11.5932
11.5932
11.5932
11.5932
11.5932
11.5932
11.5932
11.5932
11.5932
11.5932
11.5932
11.5932
11.5932
11.5933
11.5933
11.5933
11.5933
11.5933
11.5932
11.5932
11.5932
11.5932
11.5932
11.5933
11.5933
11.5933
11.5933
11.5933
11.5933
11.5932
11.5932
11.5932
11.5932
11.5933
11.5933
11.5933
11.5933
11.5933
11.5933
11.5933
11.5933
11.5933
11.5932
11.5933
11.5933
11.5933
11.5933
11.5933
11.5933
11.5933
11.5933
11.5933
11.5933
11.5933
11.5933
11.5933
11.5933
11.5933
11.5933
11.5933
11.5933
11.5933
11.5933
11.2267
11.2268
11.2268
11.2269
11.2269
11.2269
11.2269
11.227
11.227
11.2271
11.2268
11.2268
11.2269
11.2269
11.2269
11.227
11.227
11.227
11.227
11.2271
11.2268
11.2269
11.2269
11.2269
11.2269
11.227
11.227
11.227
11.2271
11.2271
11.2269
11.2269
11.2269
11.2269
11.227
11.227
11.227
11.2271
11.2271
11.2271
11.2269
11.2269
11.2269
11.227
11.227
11.227
11.2271
11.2271
11.2271
11.2272
11.2269
11.227
11.227
11.227
11.2271
11.2271
11.2271
11.2271
11.2272
11.2272
11.2269
11.227
11.227
11.227
11.2271
11.2271
11.2271
11.2272
11.2272
11.2273
11.227
11.227
11.227
11.2271
11.2271
11.2271
11.2272
11.2272
11.2273
11.2273
11.227
11.227
11.227
11.2271
11.2271
11.2272
11.2272
11.2273
11.2273
11.2274
11.227
11.2271
11.2271
11.2271
11.2272
11.2272
11.2272
11.2273
11.2273
11.2274
10.8606
10.8607
10.8607
10.8607
10.8607
10.8607
10.8607
10.8608
10.8608
10.8609
10.8606
10.8607
10.8607
10.8607
10.8608
10.8608
10.8608
10.8608
10.8609
10.8609
10.8607
10.8607
10.8607
10.8608
10.8608
10.8608
10.8609
10.8609
10.8609
10.861
10.8607
10.8607
10.8608
10.8608
10.8608
10.8609
10.8609
10.8609
10.861
10.861
10.8607
10.8607
10.8608
10.8608
10.8609
10.8609
10.8609
10.861
10.861
10.8611
10.8607
10.8608
10.8608
10.8609
10.8609
10.8609
10.861
10.861
10.8611
10.8611
10.8607
10.8608
10.8608
10.8609
10.8609
10.861
10.861
10.8611
10.8611
10.8612
10.8608
10.8608
10.8609
10.8609
10.861
10.861
10.8611
10.8611
10.8612
10.8612
10.8607
10.8608
10.8609
10.861
10.861
10.8611
10.8611
10.8612
10.8612
10.8613
10.8608
10.8609
10.861
10.861
10.8611
10.8611
10.8611
10.8612
10.8612
10.8613
10.4947
10.4947
10.4947
10.4947
10.4947
10.4946
10.4946
10.4946
10.4946
10.4946
10.4947
10.4947
10.4947
10.4947
10.4947
10.4947
10.4947
10.4947
10.4947
10.4947
10.4947
10.4947
10.4947
10.4947
10.4947
10.4947
10.4947
10.4947
10.4947
10.4947
10.4947
10.4947
10.4947
10.4947
10.4947
10.4947
10.4947
10.4947
10.4948
10.4948
10.4947
10.4947
10.4947
10.4947
10.4947
10.4947
10.4948
10.4948
10.4948
10.4948
10.4947
10.4947
10.4947
10.4947
10.4948
10.4948
10.4948
10.4948
10.4948
10.4948
10.4947
10.4947
10.4947
10.4948
10.4948
10.4948
10.4948
10.4949
10.4949
10.4949
10.4947
10.4947
10.4947
10.4948
10.4948
10.4948
10.4949
10.4949
10.4949
10.4949
10.4946
10.4947
10.4948
10.4948
10.4948
10.4949
10.4949
10.4949
10.4949
10.495
10.4947
10.4948
10.4948
10.4949
10.4949
10.4949
10.4949
10.4949
10.4949
10.495
10.129
10.1289
10.1288
10.1288
10.1287
10.1286
10.1286
10.1286
10.1286
10.1285
10.129
10.1289
10.1288
10.1288
10.1287
10.1286
10.1286
10.1285
10.1285
10.1284
10.1289
10.1288
10.1288
10.1287
10.1287
10.1286
10.1286
10.1286
10.1285
10.1285
10.1289
10.1288
10.1288
10.1287
10.1287
10.1286
10.1286
10.1286
10.1285
10.1285
10.1288
10.1288
10.1288
10.1287
10.1287
10.1286
10.1286
10.1286
10.1285
10.1285
10.1288
10.1287
10.1287
10.1287
10.1287
10.1286
10.1286
10.1286
10.1286
10.1285
10.1287
10.1287
10.1287
10.1287
10.1287
10.1286
10.1286
10.1286
10.1286
10.1285
10.1287
10.1287
10.1287
10.1287
10.1287
10.1286
10.1286
10.1286
10.1286
10.1285
10.1287
10.1287
10.1287
10.1287
10.1287
10.1286
10.1286
10.1286
10.1285
10.1286
10.1287
10.1287
10.1287
10.1287
10.1287
10.1286
10.1286
10.1285
10.1285
10.1285
9.7631
9.76294
9.76286
9.76277
9.76269
9.76261
9.76255
9.76251
9.76249
9.76231
9.76308
9.76295
9.76286
9.76277
9.76267
9.76258
9.7625
9.76243
9.76235
9.76217
9.76302
9.76291
9.76283
9.76274
9.76265
9.76256
9.76247
9.7624
9.76233
9.7622
9.76295
9.76287
9.76279
9.76271
9.76262
9.76253
9.76245
9.76238
9.76231
9.76221
9.76289
9.76282
9.76275
9.76267
9.76259
9.76251
9.76243
9.76236
9.76229
9.76222
9.76283
9.76277
9.76271
9.76264
9.76257
9.76249
9.76241
9.76234
9.76227
9.76221
9.76278
9.76273
9.76267
9.7626
9.76254
9.76247
9.76239
9.76232
9.76225
9.76221
9.76274
9.76269
9.76263
9.76257
9.76251
9.76244
9.76237
9.7623
9.76223
9.7622
9.76269
9.76265
9.7626
9.76255
9.76249
9.76242
9.76235
9.76228
9.76221
9.76222
9.76263
9.76262
9.76258
9.76253
9.76247
9.7624
9.76231
9.76223
9.76213
9.76212
9.39698
9.39682
9.39674
9.39666
9.39658
9.3965
9.39644
9.39639
9.39636
9.39615
9.39697
9.39685
9.39676
9.39667
9.39657
9.39647
9.39637
9.39628
9.39619
9.39597
9.39694
9.39685
9.39676
9.39666
9.39655
9.39644
9.39634
9.39625
9.39616
9.396
9.39691
9.39683
9.39674
9.39664
9.39653
9.39642
9.39632
9.39623
9.39614
9.39602
9.39688
9.3968
9.39672
9.39662
9.39651
9.39641
9.39631
9.39621
9.39612
9.39604
9.39685
9.39678
9.39669
9.39659
9.3965
9.3964
9.3963
9.3962
9.39611
9.39605
9.39683
9.39675
9.39667
9.39658
9.39649
9.39639
9.39629
9.39619
9.3961
9.39606
9.39681
9.39673
9.39664
9.39656
9.39647
9.39637
9.39627
9.39617
9.39609
9.39607
9.39678
9.39669
9.39662
9.39653
9.39645
9.39635
9.39626
9.39617
9.39609
9.3961
9.3967
9.39664
9.39658
9.39651
9.39643
9.39634
9.39624
9.39614
9.39602
9.39601
9.03054
9.03039
9.03036
9.0303
9.03023
9.03016
9.0301
9.03004
9.03002
9.02981
9.03063
9.03051
9.03044
9.03036
9.03026
9.03017
9.03007
9.02998
9.0299
9.0297
9.03065
9.03056
9.03049
9.0304
9.0303
9.03019
9.03009
9.02999
9.0299
9.02976
9.03069
9.03062
9.03053
9.03044
9.03033
9.03022
9.03012
9.03002
9.02993
9.02981
9.03074
9.03067
9.03058
9.03048
9.03037
9.03026
9.03016
9.03006
9.02996
9.02988
9.0308
9.03073
9.03063
9.03052
9.03042
9.03032
9.03021
9.0301
9.03001
9.02995
9.03085
9.03078
9.03068
9.03057
9.03046
9.03036
9.03024
9.03014
9.03005
9.03001
9.03089
9.03082
9.03072
9.03061
9.0305
9.03039
9.03028
9.03017
9.03009
9.03007
9.03092
9.03084
9.03075
9.03064
9.03053
9.03042
9.03031
9.03021
9.03013
9.03013
9.03094
9.03086
9.03076
9.03066
9.03055
9.03044
9.03033
9.03023
9.03011
9.03009
8.66403
8.66383
8.66385
8.66382
8.66377
8.6637
8.66363
8.66355
8.66351
8.6633
8.66431
8.66411
8.66404
8.66396
8.66387
8.66377
8.66367
8.66357
8.66349
8.66332
8.66437
8.66424
8.66417
8.66408
8.66398
8.66387
8.66376
8.66366
8.66357
8.66346
8.66449
8.66439
8.66431
8.66421
8.66411
8.664
8.66388
8.66377
8.66368
8.66358
8.66463
8.66455
8.66446
8.66435
8.66423
8.66413
8.66401
8.6639
8.66381
8.66373
8.66478
8.66472
8.66461
8.66449
8.66437
8.66426
8.66414
8.66403
8.66393
8.66387
8.66493
8.66488
8.66477
8.66464
8.66451
8.66439
8.66426
8.66415
8.66406
8.664
8.66507
8.66502
8.66491
8.66478
8.66464
8.66451
8.66438
8.66426
8.66417
8.66412
8.66517
8.66514
8.66503
8.66489
8.66475
8.66461
8.66448
8.66437
8.66428
8.66422
8.66539
8.66532
8.66515
8.665
8.66484
8.6647
8.66457
8.66445
8.66435
8.66428
8.29766
8.29731
8.29737
8.29735
8.29731
8.29724
8.29716
8.29706
8.29699
8.29676
8.29813
8.29778
8.29768
8.29758
8.29748
8.29737
8.29725
8.29715
8.29706
8.29691
8.29819
8.29797
8.29787
8.29777
8.29767
8.29755
8.29742
8.2973
8.29722
8.29712
8.29834
8.29819
8.29808
8.29798
8.29787
8.29776
8.29763
8.2975
8.29741
8.29733
8.29851
8.29841
8.29831
8.29818
8.29807
8.29797
8.29784
8.29772
8.29762
8.29755
8.29871
8.29865
8.29854
8.29841
8.29827
8.29817
8.29805
8.29793
8.29783
8.29776
8.29891
8.29889
8.29878
8.29864
8.29849
8.29836
8.29824
8.29813
8.29803
8.29795
8.29911
8.29911
8.29901
8.29887
8.29871
8.29857
8.29843
8.29831
8.29821
8.29811
8.29928
8.2993
8.2992
8.29906
8.2989
8.29874
8.2986
8.29848
8.29837
8.29822
8.2997
8.29962
8.29942
8.29924
8.29906
8.29889
8.29876
8.29865
8.29858
8.29842
7.93162
7.93116
7.93121
7.93118
7.93116
7.9311
7.93103
7.93094
7.93085
7.93061
7.93215
7.93168
7.93155
7.93144
7.93134
7.93124
7.93113
7.93103
7.93095
7.93084
7.93216
7.93188
7.93175
7.93164
7.93154
7.93143
7.93131
7.9312
7.93112
7.93106
7.93226
7.93207
7.93195
7.93184
7.93175
7.93165
7.93153
7.93141
7.93133
7.93128
7.93237
7.93226
7.93216
7.93204
7.93195
7.93188
7.93176
7.93165
7.93156
7.93151
7.9325
7.93246
7.93237
7.93225
7.93213
7.93206
7.93198
7.93188
7.93179
7.93173
7.93264
7.93267
7.9326
7.93249
7.93236
7.93226
7.93218
7.93209
7.93201
7.93191
7.93281
7.93287
7.93282
7.93272
7.93259
7.93248
7.93238
7.93229
7.93221
7.93207
7.93298
7.93305
7.93301
7.93291
7.93279
7.93267
7.93257
7.93247
7.93239
7.93215
7.93341
7.93335
7.93321
7.93309
7.93295
7.93284
7.93275
7.93269
7.9327
7.93247
7.56572
7.56533
7.56536
7.56533
7.56535
7.56535
7.56534
7.5653
7.56524
7.56508
7.56606
7.56568
7.56558
7.5655
7.56546
7.56542
7.56538
7.56534
7.56532
7.56532
7.566
7.56578
7.56569
7.56562
7.56557
7.56553
7.56547
7.56543
7.56541
7.56543
7.566
7.56585
7.56578
7.56572
7.5657
7.56567
7.56561
7.56556
7.56554
7.56556
7.56597
7.56591
7.56586
7.56581
7.56579
7.56581
7.56576
7.56571
7.56569
7.56569
7.56595
7.56596
7.56595
7.5659
7.56586
7.56588
7.56588
7.56586
7.56583
7.56581
7.56595
7.56603
7.56604
7.56602
7.56599
7.56599
7.566
7.56599
7.56597
7.56591
7.56599
7.5661
7.56615
7.56615
7.56613
7.56612
7.56612
7.56612
7.5661
7.566
7.56607
7.56617
7.56623
7.56625
7.56624
7.56624
7.56624
7.56623
7.56621
7.56599
7.56628
7.56626
7.56629
7.56631
7.56632
7.56633
7.56637
7.5664
7.56652
7.56632
7.19978
7.1997
7.19973
7.19977
7.19986
7.19997
7.20008
7.20015
7.20017
7.20022
7.19974
7.19969
7.1997
7.19974
7.19982
7.19991
7.20001
7.20009
7.20018
7.20034
7.19962
7.19962
7.19965
7.1997
7.19978
7.19987
7.19995
7.20003
7.20012
7.20027
7.19952
7.19953
7.19958
7.19964
7.19973
7.19983
7.19991
7.19999
7.20008
7.2002
7.19935
7.19941
7.19947
7.19955
7.19965
7.19979
7.19988
7.19995
7.20004
7.20013
7.19917
7.19927
7.19936
7.19945
7.19954
7.19969
7.19982
7.19992
7.2
7.20007
7.19902
7.19914
7.19926
7.19937
7.19949
7.19963
7.19977
7.19988
7.19997
7.2
7.1989
7.19903
7.19918
7.19932
7.19945
7.19959
7.19972
7.19984
7.19994
7.19994
7.19884
7.19893
7.1991
7.19925
7.1994
7.19955
7.19968
7.1998
7.1999
7.19982
7.19871
7.19874
7.19895
7.19915
7.19933
7.19951
7.19968
7.19984
7.20005
7.2
6.83359
6.83398
6.83406
6.83421
6.83441
6.83465
6.83489
6.83512
6.83527
6.83558
6.83313
6.83353
6.83374
6.83395
6.8342
6.83446
6.83472
6.83496
6.83519
6.83552
6.833
6.8333
6.83351
6.83373
6.83398
6.83424
6.8345
6.83474
6.83496
6.83524
6.83282
6.83306
6.83327
6.8335
6.83375
6.83401
6.83426
6.8345
6.83472
6.83495
6.83259
6.83279
6.83301
6.83324
6.8335
6.83377
6.83401
6.83425
6.83446
6.83466
6.83232
6.83251
6.83272
6.83296
6.83321
6.8335
6.83376
6.834
6.83421
6.83438
6.83207
6.83223
6.83245
6.8327
6.83297
6.83325
6.83351
6.83375
6.83396
6.83412
6.83183
6.83197
6.8322
6.83246
6.83273
6.83301
6.83328
6.83352
6.83374
6.8339
6.83165
6.83173
6.83197
6.83224
6.83252
6.8328
6.83307
6.8333
6.83352
6.83365
6.83126
6.83134
6.83166
6.83198
6.83231
6.83261
6.8329
6.83314
6.8334
6.83356
6.46741
6.46818
6.46834
6.46859
6.46886
6.46918
6.4695
6.46983
6.4701
6.47061
6.46665
6.46742
6.46779
6.46815
6.46852
6.4689
6.46928
6.46964
6.46995
6.47038
6.46652
6.46707
6.46743
6.4678
6.46817
6.46856
6.46895
6.46931
6.46962
6.46996
6.4663
6.46673
6.46708
6.46744
6.4678
6.46817
6.46856
6.46892
6.46923
6.46953
6.46607
6.46639
6.46671
6.46707
6.46743
6.46779
6.46814
6.4685
6.46881
6.46908
6.4658
6.46603
6.46633
6.46668
6.46705
6.4674
6.46775
6.46809
6.46839
6.46865
6.46552
6.46568
6.46596
6.4663
6.46666
6.46702
6.46737
6.46769
6.46799
6.46826
6.46523
6.46536
6.46561
6.46593
6.46629
6.46665
6.46699
6.46731
6.46761
6.46792
6.46498
6.46506
6.4653
6.46562
6.46596
6.46632
6.46666
6.46697
6.46726
6.46762
6.46448
6.46463
6.46496
6.46531
6.46568
6.46603
6.46635
6.46662
6.46686
6.46723
6.10131
6.10219
6.10238
6.10266
6.10291
6.1032
6.1035
6.10382
6.10412
6.10462
6.10052
6.10137
6.10178
6.10217
6.10254
6.10292
6.1033
6.10365
6.10394
6.10429
6.10039
6.10099
6.10139
6.10178
6.10217
6.10257
6.10297
6.10334
6.10364
6.10391
6.10017
6.10064
6.10102
6.1014
6.10177
6.10215
6.10255
6.10293
6.10325
6.10351
6.09999
6.10032
6.10066
6.10104
6.1014
6.10174
6.10211
6.10249
6.10281
6.10307
6.09977
6.09999
6.1003
6.10066
6.10104
6.10137
6.1017
6.10205
6.10237
6.10264
6.09954
6.09968
6.09993
6.10026
6.10063
6.10098
6.10131
6.10163
6.10194
6.10226
6.09928
6.09937
6.09959
6.09989
6.10024
6.10058
6.10092
6.10123
6.10154
6.10193
6.09902
6.09911
6.09931
6.09958
6.0999
6.10024
6.10056
6.10087
6.10117
6.10169
6.0986
6.09881
6.09905
6.09933
6.09963
6.09994
6.1002
6.10044
6.10058
6.10109
5.73547
5.73607
5.73621
5.73641
5.73655
5.73669
5.73685
5.73704
5.73725
5.73751
5.73493
5.73551
5.7358
5.73606
5.73629
5.73652
5.73674
5.73694
5.73709
5.73719
5.73482
5.73522
5.7355
5.73577
5.73602
5.73627
5.73653
5.73676
5.73693
5.73702
5.73465
5.73497
5.73523
5.73549
5.73573
5.73597
5.73624
5.7365
5.73669
5.7368
5.73454
5.73475
5.73498
5.73524
5.73547
5.73567
5.73592
5.73619
5.7364
5.73655
5.73442
5.73455
5.73474
5.73499
5.73524
5.73543
5.73564
5.73588
5.7361
5.7363
5.73428
5.73435
5.73449
5.73471
5.73495
5.73517
5.73537
5.73559
5.73581
5.73608
5.73412
5.73415
5.73426
5.73444
5.73466
5.73488
5.73509
5.73531
5.73553
5.73588
5.73391
5.734
5.73409
5.73424
5.73443
5.73463
5.73484
5.73505
5.73526
5.7358
5.7337
5.73394
5.73401
5.73412
5.73427
5.73442
5.73454
5.73467
5.73468
5.73521
5.36956
5.36964
5.36967
5.36971
5.36969
5.36965
5.36962
5.36961
5.36965
5.36958
5.36947
5.36955
5.3696
5.36964
5.36965
5.36964
5.36963
5.36962
5.36957
5.36936
5.36944
5.36948
5.36953
5.36957
5.36959
5.3696
5.36962
5.36963
5.3696
5.36944
5.36938
5.36942
5.36946
5.3695
5.36951
5.36952
5.36956
5.36959
5.36958
5.36949
5.36939
5.3694
5.36942
5.36946
5.36947
5.36944
5.36948
5.36953
5.36955
5.36952
5.36941
5.36939
5.36939
5.36943
5.36947
5.36943
5.36943
5.36947
5.3695
5.36953
5.36941
5.36937
5.36935
5.36937
5.36939
5.36939
5.36939
5.36941
5.36945
5.36956
5.3694
5.36936
5.36931
5.36931
5.36931
5.36932
5.36932
5.36935
5.36939
5.36957
5.36932
5.36938
5.36932
5.36928
5.36926
5.36926
5.36926
5.36928
5.36932
5.36967
5.36938
5.36956
5.36944
5.36935
5.36927
5.36921
5.36913
5.36909
5.36895
5.3693
5.00366
5.00326
5.00312
5.00298
5.00282
5.00263
5.00244
5.00226
5.00213
5.00181
5.00407
5.00366
5.00343
5.00323
5.00301
5.00278
5.00256
5.00234
5.00212
5.00172
5.0042
5.00387
5.00364
5.00342
5.00319
5.00295
5.00273
5.00251
5.00228
5.00195
5.00433
5.00406
5.00384
5.00361
5.00337
5.00313
5.0029
5.00268
5.00247
5.00219
5.00449
5.00427
5.00405
5.00383
5.00358
5.00331
5.00308
5.00287
5.00266
5.00245
5.00468
5.00449
5.00427
5.00405
5.00381
5.00353
5.00327
5.00305
5.00285
5.00268
5.00485
5.00469
5.00448
5.00424
5.00399
5.00372
5.00346
5.00323
5.00303
5.00291
5.00502
5.00489
5.00467
5.00442
5.00416
5.00389
5.00363
5.0034
5.00319
5.00309