/*--------------------------------*- C++ -*----------------------------------*\
| =========                 |                                                 |
| \\      /  F ield         | OpenFOAM: The Open Source CFD Toolbox           |
|  \\    /   O peration     | Version:  2406                                  |
|   \\  /    A nd           | Website:  www.openfoam.com                      |
|    \\/     M anipulation  |                                                 |
\*---------------------------------------------------------------------------*/
FoamFile
{
    version     2.0;
    format      ascii;
    arch        "LSB;label=32;scalar=64";
    class       surfaceScalarField;
    location    "1";
    object      phi;
}
// * * * * * * * * * * * * * * * * * * * * * * * * * * * * * * * * * * * * * //

dimensions      [0 3 -1 0 0 0 0];

oriented        oriented;

internalField   nonuniform List<scalar> 
73500
(
4.64655e-05
4.64631e-05
5.70548e-05
-5.14917e-05
-5.14899e-05
3.76988e-05
4.71298e-05
6.49019e-05
-5.23264e-05
2.65041e-05
4.75014e-05
7.06874e-05
-5.30509e-05
1.36532e-05
4.76214e-05
7.45178e-05
-5.3317e-05
2.62045e-09
4.76552e-05
7.64236e-05
-5.34352e-05
-1.36481e-05
4.76551e-05
7.64237e-05
-5.34352e-05
-2.64993e-05
4.76212e-05
7.45182e-05
-5.33168e-05
-3.76945e-05
4.75012e-05
7.06879e-05
-5.30507e-05
-4.6462e-05
4.71296e-05
6.49027e-05
-5.23263e-05
4.6463e-05
5.70558e-05
-5.14891e-05
-5.14898e-05
4.71321e-05
3.76959e-05
6.49018e-05
-5.23282e-05
3.80046e-05
3.80018e-05
7.28399e-05
2.65071e-05
3.8094e-05
7.8274e-05
1.3586e-05
3.80729e-05
8.17193e-05
2.48058e-09
3.80397e-05
8.33964e-05
-1.35812e-05
3.80396e-05
8.33965e-05
-2.65025e-05
3.80727e-05
8.17196e-05
-3.80005e-05
3.80938e-05
7.82744e-05
-4.71286e-05
3.80016e-05
7.28405e-05
3.76958e-05
6.49027e-05
-5.23256e-05
4.75036e-05
2.65008e-05
7.06872e-05
-5.30525e-05
3.80966e-05
2.6504e-05
7.82739e-05
2.64324e-05
2.64295e-05
8.33161e-05
1.35004e-05
2.63336e-05
8.64277e-05
2.40281e-09
2.62711e-05
8.79144e-05
-1.34957e-05
2.62711e-05
8.79144e-05
-2.6428e-05
2.63335e-05
8.6428e-05
-3.80926e-05
2.64293e-05
8.33165e-05
-4.75002e-05
2.65039e-05
7.82745e-05
2.65007e-05
7.0688e-05
-5.30501e-05
4.76235e-05
1.36497e-05
7.45175e-05
-5.33186e-05
3.80755e-05
1.35827e-05
8.17191e-05
2.63365e-05
1.34972e-05
8.64276e-05
1.3422e-05
1.34188e-05
8.92797e-05
2.35891e-09
1.33728e-05
9.06223e-05
-1.34174e-05
1.33727e-05
9.06224e-05
-2.63322e-05
1.34188e-05
8.92799e-05
-3.80716e-05
1.3497e-05
8.6428e-05
-4.76203e-05
1.35826e-05
8.17197e-05
1.36496e-05
7.45183e-05
-5.33162e-05
4.76574e-05
-9.94342e-10
7.64232e-05
-5.34369e-05
3.80423e-05
-9.48594e-10
8.3396e-05
2.62741e-05
-9.23175e-10
8.79142e-05
1.33759e-05
-9.11167e-10
9.06222e-05
2.33531e-09
-9.09611e-10
9.18866e-05
-1.33714e-05
-9.15948e-10
9.18867e-05
-2.62698e-05
-9.29739e-10
9.06224e-05
-3.80385e-05
-9.51586e-10
8.79145e-05
-4.76542e-05
-9.83699e-10
8.33966e-05
-1.03315e-09
7.64239e-05
-5.34345e-05
4.76574e-05
-1.36516e-05
7.64231e-05
-5.34369e-05
3.80423e-05
-1.35846e-05
8.3396e-05
2.62741e-05
-1.3499e-05
8.79141e-05
1.33759e-05
-1.34206e-05
9.06222e-05
2.32812e-09
-1.33746e-05
9.18866e-05
-1.33714e-05
-1.33745e-05
9.18867e-05
-2.62698e-05
-1.34206e-05
9.06224e-05
-3.80385e-05
-1.34989e-05
8.79145e-05
-4.76542e-05
-1.35845e-05
8.33965e-05
-1.36516e-05
7.64239e-05
-5.34345e-05
4.76236e-05
-2.65026e-05
7.45174e-05
-5.33187e-05
3.80755e-05
-2.65058e-05
8.1719e-05
2.63366e-05
-2.64312e-05
8.64275e-05
1.3422e-05
-2.63353e-05
8.92796e-05
2.33632e-09
-2.62728e-05
9.06222e-05
-1.34174e-05
-2.62728e-05
9.06223e-05
-2.63323e-05
-2.63352e-05
8.92798e-05
-3.80717e-05
-2.6431e-05
8.64279e-05
-4.76203e-05
-2.65057e-05
8.17195e-05
-2.65026e-05
7.45181e-05
-5.33162e-05
4.75036e-05
-3.76975e-05
7.0687e-05
-5.30526e-05
3.80966e-05
-3.80034e-05
7.82737e-05
2.64324e-05
-3.80955e-05
8.33159e-05
1.35004e-05
-3.80744e-05
8.64276e-05
2.36417e-09
-3.80412e-05
8.79142e-05
-1.34957e-05
-3.80411e-05
8.79143e-05
-2.64281e-05
-3.80743e-05
8.64278e-05
-3.80927e-05
-3.80953e-05
8.33164e-05
-4.75003e-05
-3.80033e-05
7.82743e-05
-3.76975e-05
7.06878e-05
-5.30501e-05
4.71321e-05
-4.64645e-05
6.49015e-05
-5.23282e-05
3.80046e-05
-4.71311e-05
7.28396e-05
2.65071e-05
-4.75027e-05
7.82737e-05
1.3586e-05
-4.76226e-05
8.17191e-05
2.42424e-09
-4.76564e-05
8.33961e-05
-1.35812e-05
-4.76564e-05
8.33962e-05
-2.65026e-05
-4.76225e-05
8.17193e-05
-3.80006e-05
-4.75025e-05
7.82742e-05
-4.71287e-05
-4.7131e-05
7.28402e-05
-4.64645e-05
6.49024e-05
-5.23257e-05
4.64655e-05
5.70545e-05
-5.14909e-05
-5.14917e-05
3.76987e-05
6.49016e-05
-5.23275e-05
2.6504e-05
7.06871e-05
-5.30519e-05
1.36531e-05
7.45175e-05
-5.3318e-05
2.54206e-09
7.64233e-05
-5.34362e-05
-1.36481e-05
7.64234e-05
-5.34362e-05
-2.64994e-05
7.45178e-05
-5.33179e-05
-3.76946e-05
7.06876e-05
-5.30518e-05
-4.64621e-05
6.49023e-05
-5.23274e-05
5.70554e-05
-5.14891e-05
-5.14909e-05
1.74635e-05
1.74522e-05
5.59081e-05
-1.68886e-05
-1.68804e-05
1.56207e-05
1.95092e-05
6.58042e-05
-1.85686e-05
1.1648e-05
2.09074e-05
7.35981e-05
-1.98453e-05
6.21253e-06
2.18232e-05
7.89052e-05
-2.0775e-05
1.17435e-08
2.22659e-05
8.15796e-05
-2.1221e-05
-6.18957e-06
2.22659e-05
8.15802e-05
-2.1221e-05
-1.16266e-05
2.18231e-05
7.89073e-05
-2.07751e-05
-1.5602e-05
2.09075e-05
7.36015e-05
-1.98455e-05
-1.74483e-05
1.95097e-05
6.58087e-05
-1.85694e-05
1.74533e-05
5.59136e-05
-1.68779e-05
-1.68815e-05
1.95195e-05
1.56073e-05
6.58037e-05
-1.85763e-05
1.74946e-05
1.74825e-05
7.68914e-05
1.30184e-05
1.87043e-05
8.49534e-05
6.91977e-06
1.94647e-05
9.01764e-05
1.06038e-08
1.98314e-05
9.27401e-05
-6.89899e-06
1.98314e-05
9.27407e-05
-1.29989e-05
1.94646e-05
9.01781e-05
-1.74774e-05
1.87042e-05
8.49563e-05
-1.95052e-05
1.74827e-05
7.68955e-05
1.5608e-05
6.58089e-05
-1.85661e-05
2.09167e-05
1.1633e-05
7.3597e-05
-1.98522e-05
1.87154e-05
1.30049e-05
8.49529e-05
1.39008e-05
1.38884e-05
9.29467e-05
7.37625e-06
1.44262e-05
9.79909e-05
9.83083e-09
1.46869e-05
0.000100425
-7.35696e-06
1.46868e-05
0.000100426
-1.38827e-05
1.4426e-05
9.79924e-05
-1.86993e-05
1.38882e-05
9.29492e-05
-2.09034e-05
1.30048e-05
8.49565e-05
1.16333e-05
7.36019e-05
-1.98426e-05
2.1832e-05
6.19677e-06
7.89034e-05
-2.07816e-05
1.94753e-05
6.90555e-06
9.01752e-05
1.4438e-05
7.36305e-06
9.79904e-05
7.6514e-06
7.63881e-06
0.000102854
9.33691e-09
7.77319e-06
0.000105178
-7.63308e-06
7.77312e-06
0.000105179
-1.44208e-05
7.63862e-06
0.000102855
-1.946e-05
7.36278e-06
9.79926e-05
-2.18193e-05
6.90529e-06
9.01786e-05
6.19665e-06
7.8908e-05
-2.07723e-05
2.22746e-05
-4.07499e-09
8.15769e-05
-2.12274e-05
1.98418e-05
-3.79592e-09
9.27382e-05
1.46985e-05
-3.61087e-09
0.000100424
7.78551e-06
-3.50563e-09
0.000105178
9.08064e-09
-3.47723e-09
0.00010744
-7.7677e-06
-3.5242e-09
0.00010744
-1.46817e-05
-3.64916e-09
0.000105179
-1.98268e-05
-3.85922e-09
0.000100426
-2.22621e-05
-4.16468e-09
9.27414e-05
-4.59216e-09
8.15813e-05
-2.12183e-05
2.22745e-05
-6.20474e-06
8.15767e-05
-2.12273e-05
1.98417e-05
-6.91299e-06
9.2738e-05
1.46984e-05
-7.37013e-06
0.000100424
7.78547e-06
-7.64568e-06
0.000105177
9.03827e-09
-7.78001e-06
0.00010744
-7.76774e-06
-7.78004e-06
0.00010744
-1.46817e-05
-7.64579e-06
0.000105179
-1.98268e-05
-7.37036e-06
0.000100426
-2.22622e-05
-6.91346e-06
9.27412e-05
-6.20563e-06
8.15811e-05
-2.12183e-05
2.18319e-05
-1.16405e-05
7.89028e-05
-2.07815e-05
1.94752e-05
-1.30119e-05
9.01746e-05
1.44379e-05
-1.38951e-05
9.79898e-05
7.65126e-06
-1.44327e-05
0.000102853
9.20614e-09
-1.46933e-05
0.000105178
-7.6332e-06
-1.46933e-05
0.000105178
-1.44209e-05
-1.44327e-05
0.000102854
-1.946e-05
-1.38953e-05
9.7992e-05
-2.18193e-05
-1.30125e-05
9.01779e-05
-1.16417e-05
7.89072e-05
-2.07723e-05
2.09165e-05
-1.56138e-05
7.35959e-05
-1.9852e-05
1.87152e-05
-1.74887e-05
8.49519e-05
1.39006e-05
-1.87102e-05
9.29458e-05
7.37599e-06
-1.94705e-05
9.79901e-05
9.60079e-09
-1.98372e-05
0.000100425
-7.35716e-06
-1.98372e-05
0.000100425
-1.38829e-05
-1.94706e-05
9.79915e-05
-1.86994e-05
-1.87105e-05
9.29482e-05
-2.09034e-05
-1.74895e-05
8.49554e-05
-1.56153e-05
7.36005e-05
-1.98425e-05
1.95189e-05
-1.74576e-05
6.58022e-05
-1.85758e-05
1.74941e-05
-1.95144e-05
7.68901e-05
1.30179e-05
-2.09123e-05
8.49521e-05
6.91934e-06
-2.1828e-05
9.01751e-05
1.02566e-08
-2.22707e-05
9.27388e-05
-6.89923e-06
-2.22708e-05
9.27393e-05
-1.2999e-05
-2.18282e-05
9.01767e-05
-1.74773e-05
-2.09128e-05
8.49548e-05
-1.9505e-05
-1.95153e-05
7.68939e-05
-1.74593e-05
6.58071e-05
-1.85657e-05
1.74627e-05
5.59064e-05
-1.68842e-05
-1.68879e-05
1.56199e-05
6.58024e-05
-1.85724e-05
1.16472e-05
7.35964e-05
-1.98489e-05
6.21185e-06
7.89035e-05
-2.07786e-05
1.12537e-08
8.15778e-05
-2.12246e-05
-6.18984e-06
8.15784e-05
-2.12246e-05
-1.16267e-05
7.89054e-05
-2.07788e-05
-1.56018e-05
7.35995e-05
-1.98494e-05
-1.74479e-05
6.58066e-05
-1.85735e-05
5.59114e-05
-1.68774e-05
-1.68858e-05
9.77968e-06
9.75359e-06
5.42159e-05
-8.92994e-06
-8.91098e-06
9.01915e-06
1.14911e-05
6.53665e-05
-1.02928e-05
6.91045e-06
1.27543e-05
7.43707e-05
-1.14181e-05
3.75691e-06
1.36016e-05
8.06634e-05
-1.2206e-05
2.74729e-08
1.4023e-05
8.38856e-05
-1.25994e-05
-3.70329e-06
1.4023e-05
8.38876e-05
-1.25996e-05
-6.86069e-06
1.3602e-05
8.06696e-05
-1.22067e-05
-8.9758e-06
1.27552e-05
7.43808e-05
-1.14194e-05
-9.74464e-06
1.14932e-05
6.538e-05
-1.02955e-05
9.75718e-06
5.42317e-05
-8.90534e-06
-8.91457e-06
1.15144e-05
8.98804e-06
6.53652e-05
-1.03102e-05
1.07071e-05
1.06795e-05
7.85103e-05
8.19971e-06
1.1853e-05
8.83622e-05
4.44291e-06
1.26052e-05
9.49297e-05
2.43613e-08
1.29737e-05
9.8208e-05
-4.39525e-06
1.29736e-05
9.82098e-05
-8.15521e-06
1.26052e-05
9.49349e-05
-1.06679e-05
1.18533e-05
8.83709e-05
-1.14823e-05
1.06806e-05
7.85226e-05
8.9906e-06
6.53805e-05
-1.02873e-05
1.27751e-05
6.87576e-06
7.43676e-05
-1.14334e-05
1.18781e-05
8.16903e-06
8.83605e-05
9.07854e-06
9.05059e-06
9.85487e-05
4.90696e-06
9.5991e-06
0.000105169
2.21999e-08
9.86323e-06
0.000108421
-4.86347e-06
9.86311e-06
0.000108422
-9.03781e-06
9.59882e-06
0.000105173
-1.1842e-05
9.05038e-06
9.85564e-05
-1.27458e-05
8.16929e-06
8.83716e-05
6.87708e-06
7.43821e-05
-1.14124e-05
1.3621e-05
3.72053e-06
8.06581e-05
-1.22203e-05
1.26287e-05
4.41055e-06
9.49261e-05
9.62543e-06
4.87733e-06
0.000105167
5.18984e-06
5.16185e-06
0.000111727
2.08194e-08
5.29548e-06
0.000114915
-5.14901e-06
5.29533e-06
0.000114916
-9.58712e-06
5.16145e-06
0.000111731
-1.25948e-05
4.8768e-06
0.000105174
-1.35933e-05
4.41008e-06
9.49364e-05
3.72042e-06
8.06718e-05
-1.22003e-05
1.40416e-05
-8.88785e-09
8.38778e-05
-1.2613e-05
1.29964e-05
-8.31345e-09
9.82024e-05
9.88884e-06
-7.92926e-09
0.000108417
5.32273e-06
-7.71617e-09
0.000114913
2.01006e-08
-7.67014e-09
0.000118046
-5.28327e-06
-7.80461e-09
0.000118047
-9.85178e-06
-8.13019e-09
0.000114917
-1.29636e-05
-8.65433e-09
0.000108424
-1.40148e-05
-9.39983e-09
9.82122e-05
-1.03955e-08
8.3891e-05
-1.25936e-05
1.40415e-05
-3.73786e-06
8.38771e-05
-1.26128e-05
1.29963e-05
-4.4268e-06
9.82018e-05
9.88874e-06
-4.89285e-06
0.000108417
5.32264e-06
-5.17698e-06
0.000114913
2.00101e-08
-5.31054e-06
0.000118045
-5.28336e-06
-5.31065e-06
0.000118046
-9.85185e-06
-5.1774e-06
0.000114916
-1.29636e-05
-4.89375e-06
0.000108423
-1.40147e-05
-4.42847e-06
9.82115e-05
-3.7407e-06
8.38902e-05
-1.25935e-05
1.36206e-05
-6.8918e-06
8.06561e-05
-1.22199e-05
1.26283e-05
-8.18417e-06
9.49244e-05
9.62511e-06
-9.0651e-06
0.000105165
5.18955e-06
-9.61327e-06
0.000111725
2.05384e-08
-9.87736e-06
0.000114914
-5.14927e-06
-9.8775e-06
0.000114915
-9.5873e-06
-9.61378e-06
0.000111729
-1.25948e-05
-9.06625e-06
0.000105172
-1.35932e-05
-8.18645e-06
9.49343e-05
-6.89588e-06
8.06694e-05
-1.22001e-05
1.27744e-05
-9.00197e-06
7.43645e-05
-1.14327e-05
1.18773e-05
-1.06928e-05
8.83576e-05
9.07789e-06
-1.18658e-05
9.8546e-05
4.90639e-06
-1.26177e-05
0.000105166
2.16999e-08
-1.29862e-05
0.000108418
-4.86387e-06
-1.29864e-05
0.00010842
-9.03804e-06
-1.26185e-05
0.00010517
-1.1842e-05
-1.18674e-05
9.85533e-05
-1.27455e-05
-1.06957e-05
8.83682e-05
-9.00696e-06
7.43782e-05
-1.1412e-05
1.1513e-05
-9.76483e-06
6.53611e-05
-1.0309e-05
1.07059e-05
-1.15019e-05
7.85064e-05
8.19856e-06
-1.27647e-05
8.83583e-05
4.44193e-06
-1.36118e-05
9.49259e-05
2.35927e-08
-1.40332e-05
9.82042e-05
-4.39575e-06
-1.40335e-05
9.82058e-05
-8.15538e-06
-1.36128e-05
9.49307e-05
-1.06677e-05
-1.27666e-05
8.83665e-05
-1.14817e-05
-1.15055e-05
7.85177e-05
-9.77038e-06
6.53753e-05
-1.02864e-05
9.77775e-06
5.42112e-05
-8.91888e-06
-8.92842e-06
9.01717e-06
6.53617e-05
-1.03006e-05
6.90858e-06
7.43659e-05
-1.14255e-05
3.75537e-06
8.06584e-05
-1.22134e-05
2.63848e-08
8.38805e-05
-1.26068e-05
-3.70384e-06
8.38824e-05
-1.26071e-05
-6.86065e-06
8.06641e-05
-1.22146e-05
-8.97524e-06
7.4375e-05
-1.14276e-05
-9.74366e-06
6.53739e-05
-1.03043e-05
5.42256e-05
-8.90433e-06
-8.92384e-06
2.31074e-06
2.25598e-06
5.30915e-05
-1.74117e-06
-1.70111e-06
2.4654e-06
3.03219e-06
6.43533e-05
-2.17362e-06
2.07237e-06
3.68373e-06
7.37052e-05
-2.62513e-06
1.203e-06
4.14951e-06
8.03531e-05
-2.96981e-06
5.5437e-08
4.38769e-06
8.37949e-05
-3.14941e-06
-1.09476e-06
4.38825e-06
8.37998e-05
-3.1501e-06
-1.97186e-06
4.15144e-06
8.03675e-05
-2.97219e-06
-2.37776e-06
3.68753e-06
7.37286e-05
-2.6293e-06
-2.23979e-06
3.03913e-06
6.43843e-05
-2.18132e-06
2.26674e-06
5.31277e-05
-1.69124e-06
-1.71123e-06
3.08016e-06
2.40046e-06
6.43503e-05
-2.20968e-06
3.33277e-06
3.27624e-06
7.80137e-05
2.79481e-06
3.96615e-06
8.86178e-05
1.6033e-06
4.43035e-06
9.58404e-05
4.85967e-08
4.65723e-06
9.94932e-05
-1.5082e-06
4.6575e-06
9.94974e-05
-2.70602e-06
4.43141e-06
9.58528e-05
-3.25452e-06
3.96857e-06
8.86385e-05
-3.0162e-06
3.28113e-06
7.80423e-05
2.40926e-06
6.43857e-05
-2.16384e-06
3.72576e-06
2.00034e-06
7.3698e-05
-2.65594e-06
4.01644e-06
2.73229e-06
8.86138e-05
3.34566e-06
3.28965e-06
9.98961e-05
1.90196e-06
3.64496e-06
0.000107398
4.38095e-08
3.80568e-06
0.00011113
-1.81613e-06
3.80568e-06
0.000111134
-3.26533e-06
3.64523e-06
0.000107409
-3.94553e-06
3.29073e-06
9.99145e-05
-3.66802e-06
2.7351e-06
8.86402e-05
2.00635e-06
7.37319e-05
-2.61479e-06
4.18793e-06
1.12784e-06
8.03407e-05
-2.99797e-06
4.47683e-06
1.53766e-06
9.58319e-05
3.69707e-06
1.84278e-06
0.000107394
2.08347e-06
2.02816e-06
0.000114957
4.08286e-08
2.10141e-06
0.000118662
-2.0034e-06
2.10125e-06
0.000118665
-3.62202e-06
2.02791e-06
0.000114967
-4.41055e-06
1.84278e-06
0.00010741
-4.134e-06
1.53847e-06
9.58565e-05
1.13036e-06
8.03731e-05
-2.95923e-06
4.42403e-06
-1.92986e-08
8.37766e-05
-3.17561e-06
4.70178e-06
-1.73386e-08
9.94797e-05
3.85602e-06
-1.61102e-08
0.000111122
2.15501e-06
-1.54439e-08
0.000118658
3.93616e-08
-1.52102e-08
0.000122278
-2.07769e-06
-1.53798e-08
0.000122281
-3.78348e-06
-1.59532e-08
0.000118667
-4.63774e-06
-1.6935e-08
0.000111138
-4.37198e-06
-1.8379e-08
9.95033e-05
-2.032e-08
8.3808e-05
-3.13823e-06
4.42382e-06
-1.16548e-06
8.37749e-05
-3.17537e-06
4.70165e-06
-1.57155e-06
9.94782e-05
3.85595e-06
-1.8743e-06
0.000111121
2.15496e-06
-2.05842e-06
0.000118657
3.92902e-08
-2.13127e-06
0.000122277
-2.07777e-06
-2.13144e-06
0.00012228
-3.78351e-06
-2.05917e-06
0.000118665
-4.63768e-06
-1.87592e-06
0.000111136
-4.37182e-06
-1.57439e-06
9.95017e-05
-1.16998e-06
8.38061e-05
-3.13803e-06
4.18721e-06
-2.03517e-06
8.03358e-05
-2.99715e-06
4.47632e-06
-2.76381e-06
9.58276e-05
3.69673e-06
-3.31905e-06
0.00010739
2.08322e-06
-3.67322e-06
0.000114954
4.05925e-08
-3.83361e-06
0.000118659
-2.0036e-06
-3.83394e-06
0.000118662
-3.62206e-06
-3.67445e-06
0.000114963
-4.41032e-06
-3.32166e-06
0.000107406
-4.13346e-06
-2.76852e-06
9.58517e-05
-2.04296e-06
8.03675e-05
-2.95854e-06
3.72436e-06
-2.43066e-06
7.36902e-05
-2.65451e-06
4.01535e-06
-3.30386e-06
8.86067e-05
3.34483e-06
-3.99193e-06
9.98895e-05
1.90134e-06
-4.45517e-06
0.000107392
4.33517e-08
-4.68176e-06
0.000111124
-1.81638e-06
-4.68233e-06
0.000111128
-3.26524e-06
-4.4571e-06
0.000107402
-3.945e-06
-3.99573e-06
9.99072e-05
-3.66702e-06
-3.31039e-06
8.86321e-05
-2.44095e-06
7.37228e-05
-2.61363e-06
3.07766e-06
-2.28025e-06
6.43402e-05
-2.20705e-06
3.33072e-06
-3.05456e-06
7.80041e-05
2.79318e-06
-3.70454e-06
8.86085e-05
1.60209e-06
-4.16953e-06
9.58314e-05
4.78344e-08
-4.40747e-06
9.94842e-05
-1.50845e-06
-4.40828e-06
9.94881e-05
-2.70564e-06
-4.17219e-06
9.58431e-05
-3.25347e-06
-3.70946e-06
8.86281e-05
-3.01446e-06
-3.0628e-06
7.80312e-05
-2.29212e-06
6.43738e-05
-2.16175e-06
2.30697e-06
5.30799e-05
-1.71806e-06
-1.73779e-06
2.46198e-06
6.43417e-05
-2.1895e-06
2.0695e-06
7.36936e-05
-2.6398e-06
1.20094e-06
8.03415e-05
-2.98404e-06
5.42944e-08
8.37832e-05
-3.16348e-06
-1.09488e-06
8.37877e-05
-3.16437e-06
-1.97091e-06
8.03549e-05
-2.98697e-06
-2.37591e-06
7.37154e-05
-2.6448e-06
-2.23725e-06
6.43706e-05
-2.19811e-06
5.31139e-05
-1.68879e-06
-1.7289e-06
1.87514e-06
1.77129e-06
5.26687e-05
-1.64977e-06
-1.57381e-06
1.80095e-06
2.17784e-06
6.41183e-05
-1.86849e-06
1.44695e-06
2.50921e-06
7.36735e-05
-2.12336e-06
8.45256e-07
2.74326e-06
8.05155e-05
-2.30383e-06
9.78689e-08
2.86198e-06
8.40771e-05
-2.39666e-06
-6.54122e-07
2.86351e-06
8.40866e-05
-2.39826e-06
-1.2693e-06
2.74835e-06
8.05436e-05
-2.3092e-06
-1.64571e-06
2.51885e-06
7.37189e-05
-2.13266e-06
-1.74901e-06
2.19442e-06
6.41782e-05
-1.8849e-06
1.79603e-06
5.27385e-05
-1.56063e-06
-1.59514e-06
2.26786e-06
1.67817e-06
6.41119e-05
-1.9363e-06
2.2206e-06
2.11495e-06
7.8124e-05
1.79001e-06
2.46351e-06
8.90942e-05
1.03086e-06
2.69969e-06
9.66432e-05
8.60903e-08
2.81209e-06
0.000100488
-8.62382e-07
2.81316e-06
0.000100496
-1.63262e-06
2.70347e-06
9.6668e-05
-2.08165e-06
2.47118e-06
8.91352e-05
-2.1539e-06
2.12874e-06
7.81803e-05
1.70087e-06
6.41812e-05
-1.85417e-06
2.58692e-06
1.31128e-06
7.36586e-05
-2.1805e-06
2.55615e-06
1.67362e-06
8.9086e-05
2.05998e-06
1.95718e-06
0.000100899
1.17365e-06
2.13794e-06
0.000108846
7.75123e-08
2.211e-06
0.000112828
-1.02178e-06
2.21156e-06
0.000112835
-1.91778e-06
2.14026e-06
0.000108868
-2.43046e-06
1.96248e-06
0.000100936
-2.48429e-06
1.68395e-06
8.91389e-05
1.3297e-06
7.37258e-05
-2.10701e-06
2.81327e-06
7.04151e-07
8.049e-05
-2.35534e-06
2.78415e-06
9.09061e-07
9.66256e-05
2.23242e-06
1.06535e-06
0.000108837
1.25801e-06
1.15793e-06
0.000116912
7.21211e-08
1.18307e-06
0.000120876
-1.11654e-06
1.18323e-06
0.000120882
-2.0998e-06
1.1591e-06
0.000116931
-2.66693e-06
1.06843e-06
0.000108872
-2.71771e-06
9.15568e-07
9.66758e-05
7.16343e-07
8.05552e-05
-2.28638e-06
2.92741e-06
-4.2109e-08
8.40395e-05
-2.44396e-06
2.89222e-06
-3.59801e-08
0.00010046
2.30152e-06
-3.19537e-08
0.00011281
1.27936e-06
-2.95906e-08
0.000120868
6.95417e-08
-2.84593e-08
0.000124699
-1.14266e-06
-2.83287e-08
0.000124704
-2.17325e-06
-2.90963e-08
0.000120886
-2.779e-06
-3.07222e-08
0.000112843
-2.83532e-06
-3.32638e-08
0.000100509
-3.67158e-08
8.41034e-05
-2.37762e-06
2.92703e-06
-7.864e-07
8.40357e-05
-2.44344e-06
2.89205e-06
-9.79457e-07
0.000100457
2.30153e-06
-1.12792e-06
0.000112807
1.27945e-06
-1.21592e-06
0.000120865
6.95601e-08
-1.23897e-06
0.000124697
-1.14271e-06
-1.23888e-06
0.000124702
-2.17322e-06
-1.21611e-06
0.000120883
-2.77882e-06
-1.12855e-06
0.00011284
-2.83498e-06
-9.80559e-07
0.000100505
-7.87909e-07
8.40996e-05
-2.37722e-06
2.81188e-06
-1.38775e-06
8.04789e-05
-2.35349e-06
2.78341e-06
-1.73934e-06
9.6616e-05
2.23217e-06
-2.01565e-06
0.000108829
1.25801e-06
-2.19217e-06
0.000116904
7.21382e-08
-2.2633e-06
0.000120869
-1.11651e-06
-2.26361e-06
0.000120875
-2.09953e-06
-2.19351e-06
0.000116923
-2.66625e-06
-2.01852e-06
0.000108863
-2.71656e-06
-1.74436e-06
9.66658e-05
-1.39583e-06
8.05439e-05
-2.28502e-06
2.58404e-06
-1.74502e-06
7.36407e-05
-2.17721e-06
2.55429e-06
-2.1729e-06
8.90701e-05
2.05896e-06
-2.51502e-06
0.000100884
1.1732e-06
-2.74738e-06
0.000108833
7.73857e-08
-2.85798e-06
0.000112815
-1.02159e-06
-2.85881e-06
0.000112822
-1.91707e-06
-2.75019e-06
0.000108854
-2.42906e-06
-2.52031e-06
0.000100921
-2.48218e-06
-2.18158e-06
8.91225e-05
-1.7581e-06
7.37077e-05
-2.10477e-06
2.26233e-06
-1.8256e-06
6.40886e-05
-1.93007e-06
2.21658e-06
-2.22527e-06
7.81023e-05
1.78732e-06
-2.55105e-06
8.90739e-05
1.02932e-06
-2.78183e-06
9.66239e-05
8.55193e-08
-2.89898e-06
0.000100469
-8.62012e-07
-2.90027e-06
0.000100477
-1.6312e-06
-2.78602e-06
9.66482e-05
-2.07916e-06
-2.55846e-06
8.91142e-05
-2.15033e-06
-2.23715e-06
7.8158e-05
-1.84187e-06
6.41575e-05
-1.85018e-06
1.86623e-06
5.26415e-05
-1.61214e-06
-1.64126e-06
1.79346e-06
6.40917e-05
-1.9025e-06
1.44128e-06
7.36479e-05
-2.15308e-06
8.41729e-07
8.04906e-05
-2.33136e-06
9.64238e-08
8.40525e-05
-2.42299e-06
-6.53537e-07
8.40618e-05
-2.42439e-06
-1.26676e-06
8.05181e-05
-2.33595e-06
-1.64165e-06
7.36925e-05
-2.16058e-06
-1.7439e-06
6.41509e-05
-1.91517e-06
5.27111e-05
-1.5559e-06
-1.62704e-06
4.48073e-07
2.70274e-07
5.2444e-05
-3.11636e-07
-1.81933e-07
5.19335e-07
4.23684e-07
6.38883e-05
-2.64957e-07
4.86364e-07
5.65852e-07
7.34942e-05
-3.5354e-07
3.52362e-07
6.74002e-07
8.03983e-05
-4.22771e-07
1.54027e-07
7.32529e-07
8.40042e-05
-4.61281e-07
-5.15363e-08
7.35893e-07
8.40207e-05
-4.644e-07
-2.06751e-07
6.84843e-07
8.04471e-05
-4.3301e-07
-2.75064e-07
5.85558e-07
7.35727e-05
-3.71028e-07
-2.49767e-07
4.55721e-07
6.39917e-05
-2.94474e-07
3.15685e-07
5.2564e-05
-1.71709e-07
-2.19158e-07
5.78101e-07
3.09152e-07
6.38761e-05
-3.81099e-07
6.78587e-07
4.97603e-07
7.79496e-05
6.24072e-07
6.63542e-07
8.9051e-05
4.2454e-07
7.85497e-07
9.67313e-05
1.37054e-07
8.4855e-07
0.000100659
-1.56331e-07
8.51385e-07
0.000100674
-3.73532e-07
7.94794e-07
9.67753e-05
-4.57488e-07
6.81116e-07
8.91237e-05
-3.96872e-07
5.26728e-07
7.80487e-05
3.53538e-07
6.39971e-05
-2.50604e-07
6.98459e-07
2.54598e-07
7.34657e-05
-4.50984e-07
8.21284e-07
4.2527e-07
8.90356e-05
7.46532e-07
5.72072e-07
0.000101065
4.8886e-07
6.76654e-07
0.000109213
1.24146e-07
7.26378e-07
0.000113315
-2.45666e-07
7.2842e-07
0.000113328
-5.18914e-07
6.83718e-07
0.000109252
-6.20135e-07
5.86118e-07
0.000101132
-5.3427e-07
4.4953e-07
8.91303e-05
2.93498e-07
7.35851e-05
-3.33502e-07
7.92189e-07
1.12018e-07
8.03502e-05
-5.09754e-07
9.27739e-07
2.17255e-07
9.66981e-05
8.35385e-07
3.05689e-07
0.000109196
5.35248e-07
3.6746e-07
0.000117521
1.15779e-07
3.9354e-07
0.000121628
-3.08302e-07
3.94868e-07
0.00012164
-6.22803e-07
3.72397e-07
0.000117557
-7.39949e-07
3.15859e-07
0.000109259
-6.39096e-07
2.35278e-07
9.67892e-05
1.41407e-07
8.04675e-05
-3.99303e-07
8.41411e-07
-8.37074e-08
8.39339e-05
-5.40062e-07
9.81738e-07
-6.99599e-08
0.000100607
8.76728e-07
-6.03498e-08
0.000113281
5.53525e-07
-5.43439e-08
0.000121613
1.11633e-07
-5.11583e-08
0.000125586
-3.34381e-07
-5.01568e-08
0.000125595
-6.71443e-07
-5.10526e-08
0.000121646
-8.00719e-07
-5.38283e-08
0.000113342
-6.94253e-07
-5.85871e-08
0.000100696
-6.53438e-08
8.405e-05
-4.34069e-07
8.3999e-07
-2.75767e-07
8.39263e-05
-5.38496e-07
9.80737e-07
-3.54333e-07
0.0001006
8.76135e-07
-4.23991e-07
0.000113275
5.53197e-07
-4.74007e-07
0.000121608
1.11333e-07
-4.9396e-07
0.000125582
-3.34663e-07
-4.93304e-07
0.000125592
-6.71502e-07
-4.72404e-07
0.000121641
-8.00457e-07
-4.212e-07
0.000113336
-6.9367e-07
-3.49789e-07
0.00010069
-2.68847e-07
8.40428e-05
-4.33348e-07
7.87423e-07
-4.07524e-07
8.03277e-05
-5.04474e-07
9.24263e-07
-5.53817e-07
9.66787e-05
8.33128e-07
-6.83061e-07
0.000109179
5.33833e-07
-7.76532e-07
0.000117506
1.1478e-07
-8.20401e-07
0.000121614
-3.08933e-07
-8.20494e-07
0.000121626
-6.22763e-07
-7.77152e-07
0.000117542
-7.38984e-07
-6.84373e-07
0.000109242
-6.3716e-07
-5.56075e-07
9.67704e-05
-4.11414e-07
8.04463e-05
-3.96867e-07
6.89263e-07
-4.43742e-07
7.34294e-05
-4.41681e-07
8.14095e-07
-6.11794e-07
8.90033e-05
7.41431e-07
-7.62033e-07
0.000101036
4.85464e-07
-8.73842e-07
0.000109186
1.2199e-07
-9.31365e-07
0.000113289
-2.46688e-07
-9.32302e-07
0.000113302
-5.18563e-07
-8.76884e-07
0.000109226
-6.18187e-07
-7.67368e-07
0.000101104
-5.30743e-07
-6.20068e-07
8.90991e-05
-4.55765e-07
7.35509e-05
-3.29475e-07
5.61871e-07
-3.80522e-07
6.38281e-05
-3.64561e-07
6.65279e-07
-5.18135e-07
7.79053e-05
6.13911e-07
-6.46702e-07
8.901e-05
4.1746e-07
-7.46133e-07
9.66927e-05
1.3272e-07
-7.99714e-07
0.000100622
-1.58076e-07
-8.0131e-07
0.000100637
-3.72641e-07
-7.51158e-07
9.6737e-05
-4.54015e-07
-6.55204e-07
8.90835e-05
-3.90902e-07
-5.31316e-07
7.80062e-05
-3.9771e-07
6.3952e-05
-2.43441e-07
4.23146e-07
5.23875e-05
-2.604e-07
-2.89253e-07
4.96782e-07
6.38335e-05
-3.33484e-07
4.67838e-07
7.34418e-05
-4.11655e-07
3.39057e-07
8.03482e-05
-4.74855e-07
1.45973e-07
8.39555e-05
-5.09506e-07
-5.44998e-08
8.39722e-05
-5.11151e-07
-2.0493e-07
8.03977e-05
-4.80254e-07
-2.69397e-07
7.35219e-05
-4.20183e-07
-2.41263e-07
6.39396e-05
-3.48043e-07
5.25116e-05
-1.63194e-07
-2.76223e-07
5.74534e-07
3.13303e-07
5.23494e-05
-4.90617e-07
-3.02562e-07
5.78845e-07
4.13283e-07
6.38461e-05
-3.75268e-07
5.14663e-07
4.97728e-07
7.3504e-05
-4.43301e-07
3.87255e-07
5.58405e-07
8.04574e-05
-4.89995e-07
2.19227e-07
5.91848e-07
8.4097e-05
-5.16508e-07
4.05837e-08
5.96917e-07
8.41235e-05
-5.20926e-07
-1.17961e-07
5.74359e-07
8.05355e-05
-5.04216e-07
-2.33759e-07
5.25604e-07
7.36298e-05
-4.66825e-07
-2.96253e-07
4.56231e-07
6.40115e-05
-4.13487e-07
3.70461e-07
5.25411e-05
-2.96088e-07
-3.47683e-07
6.45963e-07
2.67574e-07
6.38244e-05
-5.48465e-07
6.50517e-07
3.76002e-07
7.79824e-05
5.67503e-07
4.65512e-07
8.91663e-05
4.07069e-07
5.29244e-07
9.69209e-05
1.9906e-07
5.62745e-07
0.000100897
-1.77526e-08
5.6728e-07
0.000100921
-2.04492e-07
5.4368e-07
9.69928e-05
-3.31236e-07
4.91496e-07
8.92846e-05
-3.85755e-07
4.16355e-07
7.81432e-05
3.24688e-07
6.40197e-05
-3.62555e-07
7.00623e-07
1.70072e-07
7.34539e-05
-5.91309e-07
7.07742e-07
2.65196e-07
8.91393e-05
6.10989e-07
3.42908e-07
0.000101284
4.23273e-07
3.96738e-07
0.000109533
1.82253e-07
4.22394e-07
0.000113696
-6.63964e-08
4.25896e-07
0.000113718
-2.77365e-07
4.08298e-07
0.000109599
-4.13568e-07
3.64513e-07
0.000101396
-4.61416e-07
2.99724e-07
8.92948e-05
2.20829e-07
7.36487e-05
-4.21118e-07
7.40015e-07
2.9524e-08
8.03739e-05
-6.2317e-07
7.48032e-07
9.18462e-08
9.68635e-05
6.40735e-07
1.42079e-07
0.000109504
4.33526e-07
1.75949e-07
0.000117949
1.70325e-07
1.90334e-07
0.000122123
-9.96954e-08
1.92804e-07
0.000122143
-3.28255e-07
1.84475e-07
0.000118009
-4.72371e-07
1.58336e-07
0.00010961
-5.1581e-07
1.18072e-07
9.70144e-05
6.79643e-08
8.05667e-05
-4.62045e-07
7.58395e-07
-1.34347e-07
8.39765e-05
-6.37104e-07
7.66304e-07
-1.15362e-07
0.000100806
6.52001e-07
-1.00527e-07
0.000113638
4.34479e-07
-9.04695e-08
0.000122097
1.63462e-07
-8.47863e-08
0.000126132
-1.1357e-07
-8.2841e-08
0.000126148
-3.51566e-07
-8.44035e-08
0.000122153
-5.01676e-07
-8.95456e-08
0.00011374
-5.43597e-07
-9.8327e-08
0.000100954
-1.10547e-07
8.41677e-05
-4.8271e-07
7.54425e-07
-2.92355e-07
8.39635e-05
-6.33523e-07
7.62735e-07
-3.17973e-07
0.000100795
6.49089e-07
-3.39291e-07
0.000113628
4.32162e-07
-3.53506e-07
0.000122088
1.6143e-07
-3.56928e-07
0.000126125
-1.15313e-07
-3.55538e-07
0.000126141
-3.52678e-07
-3.4994e-07
0.000122144
-5.02015e-07
-3.33656e-07
0.00011373
-5.43184e-07
-3.10321e-07
0.000100943
-2.83625e-07
8.41547e-05
-4.81869e-07
7.27365e-07
-4.15604e-07
8.03353e-05
-6.11578e-07
7.36559e-07
-4.77511e-07
9.68291e-05
6.31174e-07
-5.28361e-07
0.000109474
4.25793e-07
-5.63666e-07
0.000117921
1.63956e-07
-5.78811e-07
0.000122098
-1.0468e-07
-5.78485e-07
0.000122118
-3.3132e-07
-5.6321e-07
0.000117982
-4.73145e-07
-5.28297e-07
0.000109579
-5.14289e-07
-4.788e-07
9.698e-05
-4.20548e-07
8.0528e-05
-4.59089e-07
6.77825e-07
-4.83736e-07
7.33913e-05
-5.71526e-07
6.86473e-07
-5.64959e-07
8.90822e-05
5.92768e-07
-6.30716e-07
0.000101232
4.08444e-07
-6.77648e-07
0.000109484
1.70575e-07
-7.01228e-07
0.00011365
-7.48615e-08
-7.01988e-07
0.000113671
-2.82166e-07
-6.80278e-07
0.00010955
-4.14405e-07
-6.35657e-07
0.000101343
-4.58447e-07
-5.7353e-07
8.92379e-05
-4.98073e-07
7.35863e-05
-4.16277e-07
6.09474e-07
-4.90463e-07
6.37413e-05
-5.15887e-07
6.15995e-07
-5.69942e-07
7.79038e-05
5.3717e-07
-6.34051e-07
8.90922e-05
3.82304e-07
-6.80473e-07
9.68504e-05
1.80241e-07
-7.0508e-07
0.000100828
-3.04051e-08
-7.0658e-07
0.000100852
-2.10755e-07
-6.85311e-07
9.69225e-05
-3.31273e-07
-6.42457e-07
8.92109e-05
-3.79913e-07
-5.83824e-07
7.80651e-05
-5.09774e-07
6.39371e-05
-3.53232e-07
5.23131e-07
5.22517e-05
-4.28608e-07
-4.49125e-07
5.27145e-07
6.37489e-05
-4.89381e-07
4.67499e-07
7.34094e-05
-5.41948e-07
3.48704e-07
8.03656e-05
-5.79019e-07
1.90848e-07
8.4007e-05
-5.9871e-07
2.29934e-08
8.40336e-05
-6.00132e-07
-1.24905e-07
8.04442e-05
-5.83928e-07
-2.31657e-07
7.35361e-05
-5.49781e-07
-2.87122e-07
6.39154e-05
-5.04171e-07
5.24445e-05
-2.85053e-07
-4.44731e-07
2.61142e-07
-4.90384e-08
5.22801e-05
-1.80247e-07
3.74465e-08
3.15158e-07
-9.30535e-09
6.37828e-05
1.86372e-08
3.34814e-07
3.21449e-08
7.34622e-05
-9.93068e-09
3.18043e-07
6.46724e-08
8.04404e-05
-3.0876e-08
2.73935e-07
8.46707e-08
8.41014e-05
-4.49062e-08
2.15493e-07
8.95797e-08
8.41413e-05
-4.88824e-08
1.56797e-07
7.95144e-08
8.05581e-05
-4.33678e-08
1.08025e-07
5.59963e-08
7.36516e-05
-2.89938e-08
7.49389e-08
2.37336e-08
6.40317e-05
-1.0823e-08
-1.16868e-08
5.2568e-05
5.03713e-08
9.36726e-09
2.82855e-07
-6.10587e-08
6.37478e-05
-1.94178e-07
3.39353e-07
-1.10878e-08
7.79277e-05
3.50996e-07
3.62344e-08
8.91506e-05
3.19347e-07
7.30264e-08
9.69443e-05
2.57247e-07
9.45439e-08
0.000100949
1.82966e-07
9.89776e-08
0.000100986
1.1505e-07
8.64396e-08
9.70538e-05
6.69756e-08
5.81247e-08
8.93306e-05
4.38058e-08
1.8583e-08
7.81716e-05
-2.59817e-08
6.40425e-05
3.53056e-08
2.97637e-07
-8.62047e-08
7.33818e-05
-2.00279e-07
3.57128e-07
-3.85366e-08
8.91073e-05
3.62949e-07
5.41535e-09
0.000101309
3.18354e-07
3.91363e-08
0.000109611
2.40114e-07
5.7809e-08
0.000113811
1.51205e-07
6.10903e-08
0.000113845
7.4316e-08
4.92857e-08
0.000109713
2.58507e-08
2.2253e-08
0.00010148
1.06345e-08
-1.5857e-08
8.93445e-05
-5.97567e-08
7.36769e-05
1.63e-08
3.08294e-07
-1.21053e-07
8.03079e-05
-2.0738e-07
3.688e-07
-8.83404e-08
9.68529e-05
3.70347e-07
-5.75706e-08
0.000109566
3.16409e-07
-3.37256e-08
0.000118076
2.25828e-07
-2.08633e-08
0.000122293
1.25709e-07
-1.88514e-08
0.000122323
4.22755e-08
-2.73058e-08
0.000118169