/*--------------------------------*- C++ -*----------------------------------*\
| =========                 |                                                 |
| \\      /  F ield         | OpenFOAM: The Open Source CFD Toolbox           |
|  \\    /   O peration     | Version:  2406                                  |
|   \\  /    A nd           | Website:  www.openfoam.com                      |
|    \\/     M anipulation  |                                                 |
\*---------------------------------------------------------------------------*/
FoamFile
{
    version     2.0;
    format      ascii;
    arch        "LSB;label=32;scalar=64";
    class       volScalarField;
    location    "1";
    object      turbulenceProperties:nut;
}
// * * * * * * * * * * * * * * * * * * * * * * * * * * * * * * * * * * * * * //

dimensions      [0 2 -1 0 0 0 0];

internalField   uniform 0;

boundaryField
{
    walls
    {
        type            nutUSpaldingWallFunction;
        value           nonuniform List<scalar> 
2000
(
3.17329e-09
4.55006e-09
5.99781e-09
7.18454e-09
7.85308e-09
7.85307e-09
7.18453e-09
5.9978e-09
4.55004e-09
3.17328e-09
1.87218e-09
2.63233e-09
3.46498e-09
4.16554e-09
4.56608e-09
4.56606e-09
4.1655e-09
3.46492e-09
2.63227e-09
1.87213e-09
9.82861e-10
1.36045e-09
1.78379e-09
2.14927e-09
2.36067e-09
2.36063e-09
2.14915e-09
1.78361e-09
1.36026e-09
9.82679e-10
1.1587e-09
1.61084e-09
2.11219e-09
2.54066e-09
2.78728e-09
2.78716e-09
2.54035e-09
2.11175e-09
1.61035e-09
1.15825e-09
9.95883e-10
1.37968e-09
1.80938e-09
2.17911e-09
2.39273e-09
2.3925e-09
2.17849e-09
1.8085e-09
1.37872e-09
9.95005e-10
1.04718e-09
1.45284e-09
1.90552e-09
2.29403e-09
2.51814e-09
2.51771e-09
2.29286e-09
1.90386e-09
1.45103e-09
1.04552e-09
1.00775e-09
1.39645e-09
1.83111e-09
2.20467e-09
2.4202e-09
2.41943e-09
2.20255e-09
1.82807e-09
1.3931e-09
1.00461e-09
1.02416e-09
1.41925e-09
1.86034e-09
2.23889e-09
2.4569e-09
2.45557e-09
2.23518e-09
1.85498e-09
1.41328e-09
1.01852e-09
1.01698e-09
1.40831e-09
1.84511e-09
2.21976e-09
2.43515e-09
2.43305e-09
2.2139e-09
1.83666e-09
1.39889e-09
1.00807e-09
1.02385e-09
1.41747e-09
1.85637e-09
2.23238e-09
2.44807e-09
2.44514e-09
2.22424e-09
1.8447e-09
1.40454e-09
1.01171e-09
1.02315e-09
1.41619e-09
1.85432e-09
2.22944e-09
2.44424e-09
2.44063e-09
2.21941e-09
1.84006e-09
1.40053e-09
1.00859e-09
1.02428e-09
1.41794e-09
1.85673e-09
2.23228e-09
2.44707e-09
2.443e-09
2.221e-09
1.84081e-09
1.40061e-09
1.00835e-09
1.02183e-09
1.41487e-09
1.85313e-09
2.22826e-09
2.44273e-09
2.43844e-09
2.21642e-09
1.83648e-09
1.39688e-09
1.00548e-09
1.01909e-09
1.41144e-09
1.8491e-09
2.22385e-09
2.43814e-09
2.43389e-09
2.21213e-09
1.83267e-09
1.39379e-09
1.00319e-09
1.01559e-09
1.40684e-09
1.84344e-09
2.21749e-09
2.43158e-09
2.42767e-09
2.20674e-09
1.82842e-09
1.39076e-09
1.00119e-09
1.01262e-09
1.40302e-09
1.83889e-09
2.21258e-09
2.42686e-09
2.42371e-09
2.20394e-09
1.82689e-09
1.39026e-09
1.0013e-09
1.00964e-09
1.39951e-09
1.83518e-09
2.20916e-09
2.42427e-09
2.42241e-09
2.2041e-09
1.82832e-09
1.39243e-09
1.00356e-09
1.00625e-09
1.39589e-09
1.83198e-09
2.20699e-09
2.42365e-09
2.42353e-09
2.20681e-09
1.83209e-09
1.39651e-09
1.00728e-09
1.00229e-09
1.39159e-09
1.82816e-09
2.2044e-09
2.42281e-09
2.42452e-09
2.20926e-09
1.83537e-09
1.39991e-09
1.01031e-09
9.98338e-10
1.38693e-09
1.82344e-09
2.20037e-09
2.41999e-09
2.42304e-09
2.20887e-09
1.8356e-09
1.40035e-09
1.01077e-09
9.95077e-10
1.3826e-09
1.81827e-09
2.19492e-09
2.41474e-09
2.41833e-09
2.20478e-09
1.83209e-09
1.3974e-09
1.00846e-09
9.92947e-10
1.37937e-09
1.81377e-09
2.18938e-09
2.40856e-09
2.412e-09
2.19875e-09
1.82671e-09
1.39293e-09
1.00502e-09
9.91879e-10
1.37754e-09
1.81085e-09
2.18533e-09
2.40363e-09
2.40668e-09
2.19362e-09
1.82228e-09
1.38948e-09
1.00253e-09
9.91437e-10
1.37687e-09
1.80974e-09
2.18364e-09
2.40144e-09
2.40429e-09
2.19146e-09
1.8207e-09
1.3886e-09
1.0022e-09
9.91227e-10
1.3769e-09
1.81002e-09
2.18405e-09
2.40196e-09
2.40496e-09
2.19239e-09
1.82193e-09
1.39007e-09
1.0037e-09
9.91451e-10
1.37761e-09
1.81134e-09
2.18591e-09
2.40425e-09
2.40752e-09
2.19507e-09
1.82456e-09
1.39256e-09
1.00588e-09
9.93652e-10
1.38049e-09
1.81477e-09
2.18969e-09
2.40817e-09
2.41136e-09
2.19864e-09
1.82771e-09
1.39524e-09
1.008e-09
1.00043e-09
1.38844e-09
1.82319e-09
2.1979e-09
2.4157e-09
2.41787e-09
2.20398e-09
1.83181e-09
1.3982e-09
1.00988e-09
1.01336e-09
1.40342e-09
1.83892e-09
2.21297e-09
2.42901e-09
2.42874e-09
2.2121e-09
1.83722e-09
1.40121e-09
1.01101e-09
1.03086e-09
1.4239e-09
1.86071e-09
2.234e-09
2.44741e-09
2.44319e-09
2.222e-09
1.84276e-09
1.40307e-09
1.01046e-09
1.04777e-09
1.44411e-09
1.88272e-09
2.25555e-09
2.46614e-09
2.45733e-09
2.23071e-09
1.8464e-09
1.40274e-09
1.00796e-09
1.0572e-09
1.4561e-09
1.8967e-09
2.26994e-09
2.47885e-09
2.4666e-09
2.23566e-09
1.84736e-09
1.40078e-09
1.00475e-09
1.05381e-09
1.45346e-09
1.89562e-09
2.2704e-09
2.47993e-09
2.46721e-09
2.23506e-09
1.84556e-09
1.39829e-09
1.00238e-09
1.03775e-09
1.43567e-09
1.87808e-09
2.25489e-09
2.46728e-09
2.45756e-09
2.22816e-09
1.84104e-09
1.39584e-09
1.00154e-09
1.01533e-09
1.40937e-09
1.85014e-09
2.22812e-09
2.44411e-09
2.43949e-09
2.21572e-09
1.83378e-09
1.39288e-09
1.0014e-09
9.95274e-10
1.3847e-09
1.82235e-09
2.19982e-09
2.41832e-09
2.41859e-09
2.201e-09
1.82507e-09
1.38924e-09
1.00098e-09
9.82777e-10
1.36844e-09
1.80285e-09
2.17873e-09
2.39812e-09
2.40163e-09
2.18876e-09
1.8177e-09
1.38601e-09
1.0003e-09
9.78902e-10
1.36285e-09
1.79548e-09
2.17016e-09
2.38972e-09
2.39487e-09
2.18471e-09
1.81652e-09
1.38707e-09
1.00231e-09
9.78628e-10
1.36354e-09
1.79752e-09
2.17356e-09
2.39453e-09
2.40111e-09
2.19239e-09
1.82519e-09
1.39603e-09
1.01013e-09
9.83955e-10
1.3719e-09
1.80958e-09
2.1894e-09
2.41385e-09
2.42327e-09
2.21648e-09
1.84962e-09
1.41901e-09
1.02881e-09
1.01285e-09
1.40762e-09
1.85123e-09
2.23632e-09
2.46518e-09
2.47748e-09
2.2709e-09
1.90042e-09
1.46192e-09
1.06011e-09
1.07741e-09
1.48568e-09
1.93894e-09
2.32982e-09
2.55996e-09
2.56849e-09
2.35221e-09
1.9665e-09
1.50873e-09
1.08771e-09
1.17942e-09
1.6081e-09
2.07386e-09
2.46779e-09
2.6904e-09
2.68165e-09
2.44036e-09
2.02614e-09
1.54137e-09
1.10003e-09
1.31865e-09
1.77369e-09
2.25382e-09
2.6473e-09
2.85439e-09
2.81835e-09
2.54377e-09
2.09696e-09
1.58585e-09
1.12606e-09
1.49598e-09
1.98317e-09
2.4808e-09
2.8736e-09
3.06347e-09
2.99903e-09
2.6921e-09
2.21492e-09
1.67807e-09
1.19569e-09
1.70347e-09
2.23252e-09
2.75881e-09
3.16102e-09
3.34251e-09
3.25582e-09
2.91833e-09
2.40664e-09
1.83306e-09
1.31376e-09
1.89904e-09
2.47901e-09
3.04745e-09
3.47273e-09
3.65574e-09
3.54952e-09
3.17557e-09
2.6167e-09
1.99157e-09
1.42565e-09
1.99395e-09
2.62412e-09
3.24274e-09
3.70908e-09
3.91381e-09
3.80504e-09
3.4044e-09
2.80182e-09
2.12638e-09
1.51744e-09
2.05922e-09
2.73879e-09
3.39371e-09
3.87791e-09
4.07638e-09
3.94047e-09
3.49945e-09
2.85542e-09
2.14724e-09
1.52115e-09
1.91301e-09
2.65123e-09
3.38186e-09
3.94022e-09
4.20271e-09
4.11254e-09
3.69894e-09
3.06515e-09
2.35349e-09
1.70898e-09
3.17326e-09
4.55003e-09
5.99778e-09
7.18451e-09
7.85306e-09
7.85307e-09
7.18453e-09
5.99781e-09
4.55006e-09
3.17329e-09
1.87205e-09
2.63217e-09
3.46481e-09
4.1654e-09
4.56598e-09
4.56602e-09
4.16551e-09
3.46497e-09
2.63233e-09
1.87219e-09
9.8239e-10
1.35992e-09
1.78326e-09
2.14882e-09
2.36036e-09
2.36048e-09
2.14916e-09
1.78373e-09
1.36043e-09
9.82857e-10
1.15751e-09
1.60948e-09
2.11084e-09
2.53951e-09
2.78647e-09
2.78676e-09
2.54033e-09
2.11201e-09
1.61075e-09
1.15868e-09
9.93501e-10
1.37696e-09
1.80665e-09
2.17674e-09
2.39102e-09
2.3916e-09
2.17834e-09
1.80892e-09
1.37945e-09
9.95813e-10
1.04297e-09
1.44801e-09
1.90063e-09
2.28975e-09
2.515e-09
2.51599e-09
2.29251e-09
1.90458e-09
1.45235e-09
1.04703e-09
1.00102e-09
1.38879e-09
1.82339e-09
2.19794e-09
2.41531e-09
2.41686e-09
2.20226e-09
1.82958e-09
1.39566e-09
1.0075e-09
1.01388e-09
1.40771e-09
1.84891e-09
2.22914e-09
2.45012e-09
2.45244e-09
2.23563e-09
1.85827e-09
1.41819e-09
1.02383e-09
1.00216e-09
1.39189e-09
1.82916e-09
2.20654e-09
2.42648e-09
2.42981e-09
2.21589e-09
1.84266e-09
1.40709e-09
1.01659e-09
1.00412e-09
1.39572e-09
1.83545e-09
2.21536e-09
2.43738e-09
2.44189e-09
2.22798e-09
1.85363e-09
1.41613e-09
1.02344e-09
9.99523e-10
1.39001e-09
1.82907e-09
2.20896e-09
2.43158e-09
2.43713e-09
2.22445e-09
1.85128e-09
1.41474e-09
1.02272e-09
9.99068e-10
1.38968e-09
1.82917e-09
2.20976e-09
2.43317e-09
2.43933e-09
2.22686e-09
1.85348e-09
1.41644e-09
1.02387e-09
9.97927e-10
1.38772e-09
1.82632e-09
2.20627e-09
2.42934e-09
2.43547e-09
2.2232e-09
1.85015e-09
1.41355e-09
1.02152e-09
9.98799e-10
1.38818e-09
1.82604e-09
2.20515e-09
2.42742e-09
2.43292e-09
2.22025e-09
1.84709e-09
1.41062e-09
1.01897e-09
9.99828e-10
1.38876e-09
1.82574e-09
2.20369e-09
2.42473e-09
2.42923e-09
2.21598e-09
1.84275e-09
1.40663e-09
1.01566e-09
1.00108e-09
1.38987e-09
1.8263e-09
2.20329e-09
2.42313e-09
2.4265e-09
2.21246e-09
1.83897e-09
1.4031e-09
1.01273e-09
1.00185e-09
1.39051e-09
1.82649e-09
2.20258e-09
2.42126e-09
2.42347e-09
2.20859e-09
1.8348e-09
1.39923e-09
1.00956e-09
1.00248e-09
1.39095e-09
1.82641e-09
2.20156e-09
2.41903e-09
2.41999e-09
2.20419e-09
1.83002e-09
1.39476e-09
1.00587e-09
1.00349e-09
1.39165e-09
1.82634e-09
2.2003e-09
2.41636e-09
2.41597e-09
2.19921e-09
1.82468e-09
1.38976e-09
1.00171e-09
1.00551e-09
1.39344e-09
1.82729e-09
2.19994e-09
2.41447e-09
2.41268e-09
2.19493e-09
1.82001e-09
1.3853e-09
9.97897e-10
1.00832e-09
1.39627e-09
1.82952e-09
2.2011e-09
2.41427e-09
2.41119e-09
2.19246e-09
1.81702e-09
1.38221e-09
9.95101e-10
1.01061e-09
1.39878e-09
1.83191e-09
2.20296e-09
2.4153e-09
2.41128e-09
2.19168e-09
1.81567e-09
1.38056e-09
9.93463e-10
1.01082e-09
1.39908e-09
1.8324e-09
2.2035e-09
2.41567e-09
2.41128e-09
2.19127e-09
1.81492e-09
1.37964e-09
9.92585e-10
1.00831e-09
1.39618e-09
1.82955e-09
2.20096e-09
2.41352e-09
2.40948e-09
2.18974e-09
1.81365e-09
1.37867e-09
9.91917e-10
1.00384e-09
1.39068e-09
1.82354e-09
2.1951e-09
2.4083e-09
2.4052e-09
2.18652e-09
1.81142e-09
1.37733e-09
9.91206e-10
9.99388e-10
1.38481e-09
1.81659e-09
2.18787e-09
2.40163e-09
2.39976e-09
2.18264e-09
1.80908e-09
1.37624e-09
9.90883e-10
9.97259e-10
1.38176e-09
1.81252e-09
2.18337e-09
2.39748e-09
2.39677e-09
2.18127e-09
1.80929e-09
1.37759e-09
9.92667e-10
9.98544e-10
1.38363e-09
1.81474e-09
2.18597e-09
2.40081e-09
2.40124e-09
2.18709e-09
1.81617e-09
1.38482e-09
9.99252e-10
1.00185e-09
1.38944e-09
1.82328e-09
2.19697e-09
2.41401e-09
2.41622e-09
2.20324e-09
1.83255e-09
1.40017e-09
1.01227e-09
1.00426e-09
1.39557e-09
1.83439e-09
2.21304e-09
2.43448e-09
2.43976e-09
2.22816e-09
1.85688e-09
1.42202e-09
1.03016e-09
1.00387e-09
1.39867e-09
1.84305e-09
2.22797e-09
2.45527e-09
2.46466e-09
2.25467e-09
1.8823e-09
1.4441e-09
1.04769e-09
1.00172e-09
1.39833e-09
1.84646e-09
2.23642e-09
2.46873e-09
2.48167e-09
2.27278e-09
1.89901e-09
1.45763e-09
1.0577e-09
1.0002e-09
1.3963e-09
1.84466e-09
2.23592e-09
2.46976e-09
2.48359e-09
2.27424e-09
1.89886e-09
1.45552e-09
1.05462e-09
1.00063e-09
1.39433e-09
1.83929e-09
2.22729e-09
2.45798e-09
2.46902e-09
2.25727e-09
1.88045e-09
1.43718e-09
1.0385e-09
1.00196e-09
1.39232e-09
1.83179e-09
2.21329e-09
2.43737e-09
2.44294e-09
2.22782e-09
1.85045e-09
1.40957e-09
1.01561e-09
1.00261e-09
1.38976e-09
1.82369e-09
2.19809e-09
2.41485e-09
2.41466e-09
2.19681e-09
1.82027e-09
1.38336e-09
9.94907e-10
1.00209e-09
1.38702e-09
1.81716e-09
2.18631e-09
2.39762e-09
2.39336e-09
2.17416e-09
1.79921e-09
1.36614e-09
9.81939e-10
1.00247e-09
1.38653e-09
1.81501e-09
2.18146e-09
2.38999e-09
2.38378e-09
2.16428e-09
1.79066e-09
1.35992e-09
9.77781e-10
1.00482e-09
1.38868e-09
1.81638e-09
2.18174e-09
2.3891e-09
2.382e-09
2.16213e-09
1.78861e-09
1.35838e-09
9.76801e-10
1.01381e-09
1.3979e-09
1.82406e-09
2.18782e-09
2.39374e-09
2.38593e-09
2.1659e-09
1.79256e-09
1.36256e-09
9.8095e-10
1.04153e-09
1.43045e-09
1.85759e-09
2.22082e-09
2.4259e-09
2.41811e-09
2.19874e-09
1.82575e-09
1.3944e-09
1.00902e-09
1.08475e-09
1.48836e-09
1.9264e-09
2.29727e-09
2.50755e-09
2.5032e-09
2.28502e-09
1.90975e-09
1.471e-09
1.07362e-09
1.12371e-09
1.55433e-09
2.01935e-09
2.4137e-09
2.64193e-09
2.64839e-09
2.43263e-09
2.05069e-09
1.59603e-09
1.17658e-09
1.13258e-09
1.60228e-09
2.11489e-09
2.5553e-09
2.82084e-09
2.85009e-09
2.64035e-09
2.24808e-09
1.76928e-09
1.31754e-09
1.05206e-09
1.56616e-09
2.15274e-09
2.67551e-09
3.0136e-09
3.09089e-09
2.89986e-09
2.49868e-09
1.99017e-09
1.49662e-09
8.3096e-10
1.36363e-09
2.02985e-09
2.66898e-09
3.12785e-09
3.29972e-09
3.16216e-09
2.7716e-09
2.24038e-09
1.70294e-09
5.76488e-10
1.06554e-09
1.75083e-09
2.47703e-09
3.06347e-09
3.36383e-09
3.32311e-09
2.98193e-09
2.45518e-09
1.88989e-09
3.71691e-10
7.55704e-10
1.35576e-09
2.06448e-09
2.70923e-09
3.12155e-09
3.2052e-09
2.96621e-09
2.50108e-09
1.96109e-09
2.62126e-10
5.60731e-10
1.06026e-09
1.70372e-09
2.34632e-09
2.8232e-09
3.00841e-09
2.87138e-09
2.48074e-09
1.9858e-09
1.33834e-10
3.18039e-10
6.55353e-10
1.12191e-09
1.62771e-09
2.05445e-09
2.29235e-09
2.28735e-09
2.06842e-09
1.73485e-09
3.17326e-09
4.55001e-09
5.99777e-09
7.18449e-09
7.85303e-09
7.85303e-09
7.18449e-09
5.99778e-09
4.55002e-09
3.17327e-09
1.872e-09
2.6321e-09
3.46471e-09
4.16527e-09
4.56581e-09
4.56583e-09
4.16531e-09
3.46476e-09
2.63215e-09
1.87205e-09
9.82244e-10
1.35969e-09
1.78295e-09
2.14841e-09
2.35984e-09
2.35988e-09
2.14851e-09
1.78309e-09
1.35984e-09
9.82375e-10
1.15715e-09
1.60894e-09
2.11009e-09
2.53851e-09
2.78523e-09
2.78532e-09
2.53876e-09
2.11043e-09
1.60929e-09
1.15747e-09
9.92605e-10
1.37567e-09
1.80495e-09
2.1746e-09
2.38844e-09
2.38866e-09
2.17518e-09
1.80577e-09
1.37654e-09
9.93397e-10
1.04088e-09
1.44513e-09
1.89699e-09
2.28536e-09
2.50992e-09
2.51038e-09
2.28662e-09
1.8988e-09
1.44711e-09
1.04273e-09
9.97049e-10
1.3834e-09
1.81666e-09
2.18997e-09
2.40629e-09
2.40709e-09
2.19222e-09
1.81992e-09
1.38705e-09
1.00052e-09
1.00781e-09
1.39931e-09
1.83819e-09
2.21627e-09
2.43547e-09
2.43662e-09
2.21951e-09
1.8429e-09
1.40465e-09
1.01297e-09
9.94743e-10
1.38104e-09
1.81455e-09
2.1883e-09
2.40515e-09
2.40646e-09
2.19198e-09
1.81991e-09
1.38719e-09
1.00075e-09
9.96827e-10
1.38392e-09
1.8182e-09
2.1925e-09
2.40959e-09
2.41073e-09
2.19575e-09
1.82292e-09
1.3894e-09
1.00226e-09
9.94164e-10
1.37956e-09
1.81173e-09
2.18405e-09
2.39972e-09
2.40037e-09
2.18589e-09
1.8144e-09
1.38272e-09
9.97444e-10
9.97196e-10
1.38294e-09
1.81496e-09
2.18673e-09
2.40164e-09
2.40152e-09
2.1864e-09
1.81448e-09
1.38253e-09
9.97135e-10
1.00023e-09
1.38627e-09
1.81804e-09
2.1891e-09
2.40307e-09
2.40206e-09
2.18628e-09
1.814e-09
1.38188e-09
9.96467e-10
1.00481e-09
1.3921e-09
1.82477e-09
2.19614e-09
2.4098e-09
2.40798e-09
2.19108e-09
1.8176e-09
1.38431e-09
9.97949e-10
1.0081e-09
1.3966e-09
1.83042e-09
2.2025e-09
2.41627e-09
2.41393e-09
2.19603e-09
1.82132e-09
1.38682e-09
9.99496e-10
1.00979e-09
1.39926e-09
1.8343e-09
2.20741e-09
2.42172e-09
2.41926e-09
2.20065e-09
1.82489e-09
1.38928e-09
1.00104e-09
1.0095e-09
1.39931e-09
1.83503e-09
2.20896e-09
2.42393e-09
2.42176e-09
2.20302e-09
1.82681e-09
1.39068e-09
1.00194e-09
1.00848e-09
1.39815e-09
1.83398e-09
2.20836e-09
2.4239e-09
2.42228e-09
2.20391e-09
1.82784e-09
1.39164e-09
1.00267e-09
1.00805e-09
1.39746e-09
1.83309e-09
2.20756e-09
2.42349e-09
2.42246e-09
2.2047e-09
1.82908e-09
1.39305e-09
1.00389e-09
1.00907e-09
1.39859e-09
1.83426e-09
2.20884e-09
2.42507e-09
2.4245e-09
2.20723e-09
1.83192e-09
1.39582e-09
1.00623e-09
1.01139e-09
1.40164e-09
1.83794e-09
2.21299e-09
2.42956e-09
2.42921e-09
2.21199e-09
1.83645e-09
1.39978e-09
1.00937e-09
1.01442e-09
1.40582e-09
1.84324e-09
2.21905e-09
2.43597e-09
2.43546e-09
2.21764e-09
1.84115e-09
1.40337e-09
1.01193e-09
1.01764e-09
1.41016e-09
1.84863e-09
2.22507e-09
2.442e-09
2.44082e-09
2.22177e-09
1.84381e-09
1.4047e-09
1.01236e-09
1.02077e-09
1.41399e-09
1.85293e-09
2.22938e-09
2.44572e-09
2.44334e-09
2.2227e-09
1.84315e-09
1.4029e-09
1.01014e-09
1.02362e-09
1.41705e-09
1.85575e-09
2.23152e-09
2.4467e-09
2.44284e-09
2.22064e-09
1.83981e-09
1.39886e-09
1.00614e-09
1.02528e-09
1.41863e-09
1.85679e-09
2.23169e-09
2.4457e-09
2.44061e-09
2.21731e-09
1.8358e-09
1.39463e-09
1.00225e-09
1.02304e-09
1.41601e-09
1.85391e-09
2.2286e-09
2.44237e-09
2.43713e-09
2.21386e-09
1.83266e-09
1.39196e-09
1.00024e-09
1.01393e-09
1.40578e-09
1.84371e-09
2.21925e-09
2.43442e-09
2.43084e-09
2.20939e-09
1.83003e-09
1.39099e-09
1.00049e-09
9.98444e-10
1.38786e-09
1.82522e-09
2.20187e-09
2.41956e-09
2.41931e-09
2.20157e-09
1.82575e-09
1.38984e-09
1.00144e-09
9.81716e-10
1.36742e-09
1.80265e-09
2.17919e-09
2.39891e-09
2.4023e-09
2.18917e-09
1.81798e-09
1.3863e-09
1.00082e-09
9.69992e-10
1.35177e-09
1.78345e-09
2.15802e-09
2.37795e-09
2.38369e-09
2.17445e-09
1.80768e-09
1.38023e-09
9.97904e-10
9.66961e-10
1.34625e-09
1.77457e-09
2.14628e-09
2.36476e-09
2.37094e-09
2.16368e-09
1.7997e-09
1.37502e-09
9.9484e-10
9.73108e-10
1.35247e-09
1.77935e-09
2.14902e-09
2.36564e-09
2.37078e-09
2.16326e-09
1.79947e-09
1.37481e-09
9.94507e-10
9.86886e-10
1.36899e-09
1.79705e-09
2.16651e-09
2.38178e-09
2.38492e-09
2.17491e-09
1.80842e-09
1.38068e-09
9.97737e-10
1.00492e-09
1.39154e-09
1.82288e-09
2.19369e-09
2.40812e-09
2.40842e-09
2.19401e-09
1.82238e-09
1.38936e-09
1.00228e-09
1.0227e-09
1.4142e-09
1.84956e-09
2.22222e-09
2.4358e-09
2.43257e-09
2.21271e-09
1.83499e-09
1.39639e-09
1.00534e-09
1.03524e-09
1.43052e-09
1.8693e-09
2.2435e-09
2.45613e-09
2.44948e-09
2.2247e-09
1.84185e-09
1.39927e-09
1.00577e-09
1.03729e-09
1.43378e-09
1.87425e-09
2.24955e-09
2.46225e-09
2.45452e-09
2.22807e-09
1.84359e-09
1.4001e-09
1.00603e-09
1.02931e-09
1.42398e-09
1.86371e-09
2.23976e-09
2.45451e-09
2.44972e-09
2.22641e-09
1.8446e-09
1.40263e-09
1.00876e-09
1.00082e-09
1.39235e-09
1.83276e-09
2.21363e-09
2.43625e-09
2.44088e-09
2.22652e-09
1.85152e-09
1.41257e-09
1.0187e-09
9.25521e-10
1.31054e-09
1.75568e-09
2.15126e-09
2.39488e-09
2.42233e-09
2.22842e-09
1.86846e-09
1.43712e-09
1.04426e-09
8.23341e-10
1.19076e-09
1.63157e-09
2.03833e-09
2.3071e-09
2.36753e-09
2.20744e-09
1.87558e-09
1.46265e-09
1.0774e-09
7.24786e-10
1.06019e-09
1.47674e-09
1.8748e-09
2.15557e-09
2.24583e-09
2.12626e-09
1.83574e-09
1.45725e-09
1.09427e-09
6.21759e-10
9.13838e-10
1.28815e-09
1.65624e-09
1.92904e-09
2.03631e-09
1.95505e-09
1.71457e-09
1.38751e-09
1.06705e-09
5.45645e-10
7.92039e-10
1.10761e-09
1.41866e-09
1.64886e-09
1.73984e-09
1.6723e-09
1.47136e-09
1.20113e-09
9.42075e-10
5.26732e-10
7.37527e-10
9.92159e-10
1.22752e-09
1.37938e-09
1.40797e-09
1.30835e-09
1.11266e-09
8.8433e-10
6.91507e-10
5.43281e-10
7.33207e-10
9.43896e-10
1.11547e-09
1.1932e-09
1.15419e-09
1.01009e-09
8.0302e-10
5.97403e-10
4.48483e-10
6.13232e-10
7.98228e-10
9.85003e-10
1.11198e-09
1.13295e-09
1.03769e-09
8.5143e-10
6.24697e-10
4.22035e-10
2.87544e-10
6.86865e-10
8.77223e-10
1.05577e-09
1.1632e-09
1.15517e-09
1.02808e-09
8.12953e-10
5.66527e-10
3.53494e-10
2.16928e-10
8.88788e-10
1.09257e-09
1.25336e-09
1.31234e-09
1.23495e-09
1.03414e-09
7.5724e-10
4.74952e-10
2.49442e-10
1.22873e-10
3.17328e-09
4.55004e-09
5.9978e-09
7.18451e-09
7.85305e-09
7.85304e-09
7.18449e-09
5.99777e-09
4.55001e-09
3.17326e-09
1.87213e-09
2.63225e-09
3.46487e-09
4.16541e-09
4.56591e-09
4.56587e-09
4.1653e-09
3.46472e-09
2.6321e-09
1.872e-09
9.82662e-10
1.36017e-09
1.78344e-09
2.14883e-09
2.36014e-09
2.36003e-09
2.14853e-09
1.78301e-09
1.35972e-09
9.82249e-10
1.1582e-09
1.61014e-09
2.1113e-09
2.53957e-09
2.78599e-09
2.78574e-09
2.53885e-09
2.11029e-09
1.60904e-09
1.15718e-09
9.94884e-10
1.37826e-09
1.80756e-09
2.17686e-09
2.3901e-09
2.38957e-09
2.17539e-09
1.80544e-09
1.37593e-09
9.92683e-10
1.04526e-09
1.45009e-09
1.90196e-09
2.28965e-09
2.51302e-09
2.51203e-09
2.28686e-09
1.89794e-09
1.44561e-09
1.04103e-09
1.00412e-09
1.39135e-09
1.82456e-09
2.19674e-09
2.41107e-09
2.40944e-09
2.19218e-09
1.818e-09
1.38405e-09
9.97229e-10
1.01767e-09
1.41033e-09
1.84909e-09
2.22556e-09
2.44192e-09
2.4396e-09
2.21908e-09
1.83981e-09
1.40006e-09
1.008e-09
1.00681e-09
1.39454e-09
1.82795e-09
2.19982e-09
2.41331e-09
2.41045e-09
2.19188e-09
1.81661e-09
1.382e-09
9.94983e-10
1.01009e-09
1.39894e-09
1.83343e-09
2.20608e-09
2.41987e-09
2.41678e-09
2.19752e-09
1.82122e-09
1.38542e-09
9.97245e-10
1.00681e-09
1.39429e-09
1.82737e-09
2.19893e-09
2.4122e-09
2.40935e-09
2.19102e-09
1.81612e-09
1.38181e-09
9.9484e-10
1.00669e-09
1.39461e-09
1.82841e-09
2.20086e-09
2.41503e-09
2.41296e-09
2.19513e-09
1.82035e-09
1.3857e-09
9.98036e-10
1.00418e-09
1.39199e-09
1.82613e-09
2.19938e-09
2.41469e-09
2.41387e-09
2.19719e-09
1.82321e-09
1.38886e-09
1.001e-09
1.00238e-09
1.39048e-09
1.82549e-09
2.20005e-09
2.41691e-09
2.41754e-09
2.2019e-09
1.82835e-09
1.39381e-09
1.00528e-09
1.00079e-09
1.38895e-09
1.82442e-09
2.19985e-09
2.41788e-09
2.41968e-09
2.20492e-09
1.83177e-09
1.39716e-09
1.0082e-09
1.0011e-09
1.38939e-09
1.82506e-09
2.20086e-09
2.41938e-09
2.42164e-09
2.20714e-09
1.83393e-09
1.39901e-09
1.00967e-09
1.00338e-09
1.39191e-09
1.82746e-09
2.20297e-09
2.42112e-09
2.42298e-09
2.20802e-09
1.83433e-09
1.39899e-09
1.00943e-09
1.00714e-09
1.39623e-09
1.8318e-09
2.20684e-09
2.42414e-09
2.42498e-09
2.209e-09
1.83445e-09
1.39849e-09
1.00867e-09
1.01036e-09
1.40028e-09
1.83628e-09
2.21121e-09
2.42788e-09
2.42776e-09
2.21072e-09
1.83528e-09
1.39866e-09
1.00852e-09
1.01118e-09
1.40184e-09
1.83864e-09
2.21414e-09
2.43096e-09
2.43058e-09
2.21305e-09
1.83707e-09
1.39999e-09
1.00954e-09
1.00926e-09
1.40018e-09
1.83771e-09
2.21414e-09
2.43185e-09
2.43213e-09
2.21499e-09
1.83916e-09
1.40208e-09
1.01147e-09
1.00612e-09
1.39681e-09
1.83463e-09
2.21186e-09
2.43073e-09
2.43226e-09
2.21623e-09
1.84118e-09
1.40454e-09
1.01391e-09
1.00386e-09
1.39417e-09
1.83192e-09
2.20962e-09
2.42948e-09
2.43233e-09
2.21764e-09
1.84358e-09
1.40744e-09
1.01671e-09
1.00372e-09
1.39397e-09
1.83174e-09
2.20975e-09
2.43034e-09
2.4342e-09
2.2205e-09
1.84711e-09
1.41105e-09
1.01987e-09
1.00547e-09
1.3962e-09
1.83443e-09
2.21291e-09
2.43404e-09
2.43845e-09
2.22512e-09
1.85172e-09
1.41515e-09
1.02314e-09
1.00795e-09
1.39956e-09
1.83865e-09
2.21777e-09
2.43923e-09
2.44361e-09
2.22986e-09
1.85574e-09
1.41819e-09
1.02527e-09
1.01021e-09
1.40252e-09
1.84226e-09
2.22156e-09
2.44261e-09
2.44595e-09
2.23076e-09
1.85515e-09
1.41648e-09
1.02321e-09
1.01151e-09
1.40358e-09
1.84281e-09
2.22091e-09
2.44004e-09
2.44088e-09
2.22311e-09
1.84554e-09
1.40627e-09
1.01392e-09
1.01101e-09
1.40145e-09
1.83839e-09
2.21349e-09
2.42905e-09
2.42623e-09
2.20551e-09
1.82651e-09
1.38796e-09
9.98163e-10
1.00812e-09
1.39581e-09
1.82913e-09
2.20016e-09
2.41159e-09
2.40536e-09
2.18277e-09
1.80396e-09
1.36773e-09
9.81504e-10
1.00338e-09
1.38798e-09
1.81752e-09
2.18484e-09
2.39317e-09
2.38528e-09
2.16291e-09
1.78615e-09
1.35316e-09
9.7026e-10
9.98762e-10
1.38092e-09
1.80765e-09
2.17274e-09
2.37996e-09
2.37261e-09
2.15233e-09
1.77865e-09
1.34861e-09
9.67732e-10
9.96309e-10
1.37747e-09
1.80321e-09
2.16804e-09
2.37613e-09
2.37094e-09
2.1536e-09
1.78282e-09
1.35454e-09
9.73951e-10
9.96997e-10
1.37923e-09
1.80634e-09
2.17304e-09
2.38366e-09
2.38139e-09
2.16674e-09
1.79767e-09
1.36941e-09
9.87277e-10
9.99655e-10
1.38481e-09
1.81564e-09
2.18626e-09
2.40075e-09
2.40164e-09
2.18886e-09
1.81986e-09
1.38982e-09
1.00456e-09
1.00228e-09
1.39105e-09
1.82681e-09
2.20252e-09
2.42161e-09
2.42558e-09
2.21387e-09
1.84371e-09
1.41077e-09
1.02162e-09
1.00371e-09
1.39543e-09
1.83556e-09
2.21594e-09
2.43911e-09
2.44553e-09
2.23416e-09
1.86228e-09
1.42635e-09
1.03373e-09
1.00627e-09
1.39923e-09
1.84102e-09
2.22297e-09
2.44725e-09
2.45381e-09
2.24152e-09
1.8679e-09
1.4301e-09
1.03588e-09
1.01366e-09
1.40653e-09
1.84684e-09
2.22581e-09
2.44646e-09
2.44944e-09
2.23444e-09
1.85944e-09
1.42165e-09
1.02853e-09
1.02988e-09
1.42108e-09
1.85584e-09
2.22543e-09
2.43488e-09
2.42704e-09
2.20374e-09
1.82465e-09
1.38746e-09
9.9943e-10
1.0525e-09
1.43735e-09
1.85822e-09
2.20736e-09
2.39242e-09
2.36061e-09
2.11846e-09
1.72992e-09
1.29511e-09
9.20721e-10
1.06533e-09
1.43676e-09
1.83445e-09
2.153e-09
2.30412e-09
2.2421e-09
1.98063e-09
1.5883e-09
1.16628e-09
8.15309e-10
1.06409e-09
1.42121e-09
1.79679e-09
2.08719e-09
2.20874e-09
2.12269e-09
1.84908e-09
1.45876e-09
1.05193e-09
7.21056e-10
1.08209e-09
1.43331e-09
1.79553e-09
2.06488e-09
2.16088e-09
2.04979e-09
1.75725e-09
1.35742e-09
9.5281e-10
6.31112e-10
1.14455e-09
1.4988e-09
1.85398e-09
2.10566e-09
2.17606e-09
2.03677e-09
1.71965e-09
1.30361e-09
8.93471e-10
5.72767e-10
1.25117e-09
1.61805e-09
1.97551e-09
2.21826e-09
2.27009e-09
2.10748e-09
1.76713e-09
1.3319e-09
9.06482e-10
5.73691e-10
1.34865e-09
1.72911e-09
2.09417e-09
2.33635e-09
2.37958e-09
2.20335e-09
1.84699e-09
1.39589e-09
9.53548e-10
6.05225e-10
1.43211e-09
1.83578e-09
2.22385e-09
2.48398e-09
2.5366e-09
2.36053e-09
1.99546e-09
1.52783e-09
1.06206e-09
6.86449e-10
1.43107e-09
1.83378e-09
2.22552e-09
2.49681e-09
2.56769e-09
2.41464e-09
2.07142e-09
1.61848e-09
1.15382e-09
7.66973e-10
1.64268e-09
2.10666e-09
2.55527e-09
2.87325e-09
2.97639e-09
2.83363e-09
2.47316e-09
1.97781e-09
1.44815e-09
9.93182e-10
)
;
    }
    inlet
    {
        type            calculated;
        value           uniform 0;
    }
    outlet
    {
        type            calculated;
        value           uniform 0;
    }
}


// ************************************************************************* //
