/*--------------------------------*- C++ -*----------------------------------*\
| =========                 |                                                 |
| \\      /  F ield         | OpenFOAM: The Open Source CFD Toolbox           |
|  \\    /   O peration     | Version:  2406                                  |
|   \\  /    A nd           | Website:  www.openfoam.com                      |
|    \\/     M anipulation  |                                                 |
\*---------------------------------------------------------------------------*/
FoamFile
{
    version     2.0;
    format      ascii;
    arch        "LSB;label=32;scalar=64";
    class       volScalarField;
    location    "1";
    object      turbulenceProperties:nuEff;
}
// * * * * * * * * * * * * * * * * * * * * * * * * * * * * * * * * * * * * * //

dimensions      [0 2 -1 0 0 0 0];

internalField   nonuniform List<scalar> 
25000
(
0.00649252
0.00656621
0.00659827
0.0066045
0.00660262
0.00660262
0.00660449
0.00659826
0.00656621
0.00649252
0.00656621
0.00659262
0.00658044
0.00656683
0.00655947
0.00655947
0.00656682
0.00658043
0.00659262
0.00656621
0.00659827
0.00658044
0.00655571
0.00654081
0.0065348
0.0065348
0.0065408
0.0065557
0.00658043
0.00659826
0.0066045
0.00656683
0.00654081
0.00652904
0.00652556
0.00652555
0.00652904
0.0065408
0.00656682
0.00660449
0.00660263
0.00655948
0.00653481
0.00652556
0.00652371
0.00652371
0.00652555
0.0065348
0.00655947
0.00660262
0.00660263
0.00655948
0.00653481
0.00652556
0.00652371
0.00652371
0.00652555
0.0065348
0.00655947
0.00660262
0.00660451
0.00656683
0.00654081
0.00652905
0.00652556
0.00652556
0.00652904
0.00654081
0.00656682
0.00660449
0.00659827
0.00658045
0.00655571
0.00654081
0.00653481
0.00653481
0.00654081
0.0065557
0.00658044
0.00659826
0.00656621
0.00659263
0.00658045
0.00656683
0.00655948
0.00655947
0.00656682
0.00658044
0.00659262
0.00656621
0.00649251
0.00656621
0.00659827
0.0066045
0.00660263
0.00660263
0.0066045
0.00659827
0.00656621
0.00649252
0.00616046
0.00633616
0.00655018
0.00671906
0.00680785
0.00680786
0.00671911
0.00655026
0.00633625
0.00616055
0.00633616
0.00671075
0.00697554
0.00708518
0.00711327
0.00711327
0.00708517
0.00697557
0.00671084
0.00633625
0.00655017
0.00697553
0.00713289
0.00711484
0.00708404
0.00708402
0.00711479
0.00713285
0.00697557
0.00655026
0.00671904
0.00708518
0.00711486
0.00704194
0.00699706
0.00699704
0.00704188
0.00711479
0.00708517
0.00671912
0.00680781
0.00711329
0.00708408
0.00699709
0.00695033
0.00695032
0.00699703
0.007084
0.00711326
0.00680788
0.0068078
0.0071133
0.00708408
0.00699709
0.00695034
0.00695032
0.00699704
0.00708401
0.00711326
0.00680787
0.00671903
0.00708518
0.00711488
0.00704196
0.00699708
0.00699707
0.00704191
0.00711481
0.00708517
0.0067191
0.00655014
0.00697552
0.0071329
0.00711487
0.00708407
0.00708405
0.00711482
0.00713286
0.00697556
0.00655023
0.00633613
0.00671072
0.00697552
0.00708518
0.00711329
0.00711328
0.00708517
0.00697555
0.00671081
0.00633622
0.00616043
0.00633613
0.00655014
0.00671903
0.00680782
0.00680783
0.00671908
0.00655022
0.00633622
0.00616052
0.00583437
0.00590598
0.00604061
0.0061669
0.00624293
0.00624299
0.00616708
0.00604085
0.00590623
0.0058346
0.00590598
0.00614397
0.00638744
0.00658235
0.00669197
0.00669205
0.00658257
0.00638773
0.00614427
0.00590623
0.00604059
0.00638741
0.00673509
0.00699942
0.00713423
0.00713433
0.00699968
0.00673545
0.00638774
0.00604085
0.00616683
0.00658225
0.00699934
0.00729491
0.00742073
0.00742082
0.00729518
0.00699972
0.00658261
0.0061671
0.00624278
0.00669177
0.00713403
0.00742062
0.00752177
0.00752184
0.00742086
0.00713441
0.00669213
0.00624305
0.00624277
0.00669174
0.007134
0.00742058
0.00752174
0.00752181
0.00742083
0.00713438
0.0066921
0.00624303
0.00616678
0.00658218
0.00699925
0.00729482
0.00742063
0.00742072
0.00729507
0.00699961
0.00658253
0.00616704
0.00604053
0.00638732
0.00673498
0.00699928
0.00713409
0.00713418
0.00699953
0.00673531
0.00638763
0.00604077
0.00590592
0.00614388
0.00638733
0.00658223
0.00669183
0.0066919
0.00658243
0.0063876
0.00614415
0.00590613
0.00583431
0.00590592
0.00604054
0.00616681
0.00624282
0.00624288
0.00616697
0.00604074
0.00590613
0.00583451
0.00580611
0.00584212
0.00594477
0.00604699
0.00611057
0.0061107
0.00604734
0.00594524
0.00584262
0.00580657
0.00584213
0.00602276
0.00621791
0.00638568
0.00648735
0.00648753
0.00638614
0.00621849
0.00602334
0.00584262
0.00594475
0.00621786
0.00651367
0.00678188
0.00695496
0.00695524
0.00678253
0.0065144
0.00621851
0.00594525
0.00604688
0.0063855
0.00678169
0.00719868
0.00752512
0.00752566
0.00719969
0.00678261
0.00638621
0.00604739
0.00611031
0.00648695
0.00695441
0.00752447
0.008113
0.00811416
0.00752593
0.00695548
0.00648771
0.00611082
0.00611027
0.00648689
0.00695431
0.00752426
0.00811253
0.00811368
0.00752571
0.00695537
0.00648764
0.00611077
0.00604678
0.00638535
0.00678147
0.00719831
0.00752453
0.00752506
0.00719928
0.00678235
0.00638604
0.00604726
0.00594462
0.00621768
0.00651343
0.00678155
0.00695455
0.00695481
0.00678216
0.00651411
0.00621829
0.00594508
0.005842
0.0060226
0.00621771
0.00638544
0.00648707
0.00648723
0.00638585
0.00621823
0.00602312
0.00584243
0.005806
0.005842
0.00594464
0.00604683
0.00611039
0.0061105
0.00604714
0.00594505
0.00584244
0.0058064
0.00577317
0.00579366
0.00588172
0.00597253
0.00603001
0.00603026
0.00597319
0.00588261
0.00579462
0.00577405
0.00579369
0.00594824
0.00611922
0.00626996
0.00636383
0.00636416
0.00627081
0.0061203
0.00594933
0.00579462
0.00588168
0.00611913
0.0063814
0.00663035
0.00680127
0.00680182
0.00663158
0.00638276
0.00612035
0.00588264
0.00597233
0.00626963
0.00663
0.00704405
0.00742162
0.00742289
0.00704607
0.00663173
0.00627097
0.0059733
0.00602952
0.00636308
0.0068002
0.00742016
0.00837343
0.00837835
0.0074235
0.00680228
0.0063645
0.0060305
0.00602943
0.00636296
0.00679999
0.00741965
0.0083714
0.00837626
0.00742296
0.00680206
0.00636437
0.0060304
0.00597209
0.00626932
0.00662954
0.00704326
0.00742026
0.0074215
0.00704523
0.00663123
0.00627063
0.00597305
0.00588137
0.00611875
0.00638092
0.0066297
0.00680045
0.00680097
0.00663088
0.00638222
0.00611993
0.0058823
0.00579336
0.00594787
0.0061188
0.00626949
0.0063633
0.00636361
0.00627029
0.00611983
0.00594892
0.00579426
0.00577288
0.00579337
0.00588141
0.00597221
0.00602967
0.0060299
0.00597282
0.00588225
0.00579428
0.00577373
0.00577335
0.00578927
0.00587242
0.00595918
0.00601451
0.00601492
0.00596026
0.00587388
0.00579083
0.00577477
0.0057893
0.00593489
0.00609627
0.00623966
0.00632997
0.00633053
0.00624108
0.00609808
0.0059367
0.00579084
0.00587234
0.00609611
0.00634349
0.00658161
0.00674862
0.00674955
0.0065837
0.00634577
0.00609816
0.00587395
0.0059588
0.00623906
0.006581
0.00698332
0.00736453
0.00736681
0.00698682
0.00658396
0.00624135
0.00596046
0.00601362
0.00632863
0.00674671
0.0073619
0.00839463
0.00840474
0.00736786
0.00675034
0.00633111
0.00601533
0.00601343
0.00632839
0.00674632
0.00736094
0.0083903
0.00840031
0.00736687
0.00674994
0.00633087
0.00601516
0.0059583
0.00623844
0.00658011
0.00698185
0.00736199
0.00736423
0.00698531
0.00658307
0.00624075
0.00596
0.00587166
0.00609532
0.00634252
0.00658038
0.00674711
0.00674802
0.00658244
0.0063448
0.0060974
0.00587333
0.00578856
0.00593409
0.00609541
0.00623872
0.00632896
0.00632952
0.00624014
0.00609723
0.00593595
0.00579018
0.00577265
0.00578856
0.00587173
0.0059585
0.00601384
0.00601425
0.00595959
0.00587323
0.0057902
0.00577419
0.0057655
0.00577867
0.00585943
0.00594437
0.00599881
0.00599944
0.00594603
0.00586168
0.00578109
0.00576767
0.0057787
0.00591996
0.00607729
0.00621756
0.00630639
0.00630728
0.0062198
0.00608012
0.0059228
0.00578109
0.00585924
0.006077
0.00631808
0.00655124
0.0067161
0.00671758
0.00655456
0.00632172
0.00608025
0.00586179
0.00594365
0.00621653
0.0065502
0.00694565
0.00732503
0.00732873
0.00695129
0.00655497
0.00622022
0.00594633
0.00599727
0.00630413
0.00671291
0.00732066
0.0083652
0.0083823
0.00733039
0.0067188
0.00630814
0.00600004
0.00599694
0.00630369
0.00671221
0.00731898
0.00835754
0.00837439
0.00732867
0.0067181
0.00630772
0.00599972
0.00594277
0.00621541
0.00654862
0.00694306
0.00732061
0.00732427
0.00694867
0.0065534
0.00621913
0.0059455
0.00585801
0.00607554
0.00631632
0.00654902
0.00671341
0.00671489
0.00655235
0.00631999
0.00607887
0.00586065
0.00577732
0.00591845
0.00607566
0.0062158
0.00630454
0.00630543
0.00621808
0.00607857
0.00592141
0.00577986
0.00576417
0.0057773
0.00585808
0.00594303
0.0059975
0.00599815
0.00594476
0.00586045
0.00577989
0.00576654
0.00576556
0.0057778
0.0058577
0.00594203
0.00599631
0.00599722
0.00594447
0.00586101
0.00578136
0.00576874
0.00577781
0.00591734
0.00607297
0.00621205
0.0063005
0.00630182
0.00621538
0.00607718
0.00592156
0.00578135
0.00585732
0.00607247
0.00631079
0.0065419
0.00670618
0.00670842
0.0065469
0.00631626
0.00607734
0.00586113
0.00594084
0.00621038
0.00654025
0.00693251
0.00731125
0.0073169
0.00694109
0.00654747
0.00621593
0.00594485
0.00599388
0.00629696
0.0067012
0.00730445
0.00834875
0.00837509
0.00731927
0.0067101
0.00630297
0.00599797
0.00599342
0.00629631
0.00670012
0.0073018
0.00833645
0.00836206
0.00731641
0.00670893
0.00630224
0.00599744
0.0059396
0.00620872
0.00653782
0.00692841
0.00730409
0.00730955
0.00693672
0.00654482
0.00621408
0.00594341
0.00585561
0.00607032
0.00630806
0.00653835
0.00670176
0.00670391
0.00654316
0.00631331
0.00607497
0.00585916
0.00577591
0.00591512
0.00607044
0.0062092
0.0062974
0.00629867
0.00621242
0.00607448
0.00591912
0.00577919
0.00576378
0.00577584
0.00585563
0.00593986
0.00599408
0.00599498
0.00594224
0.00585882
0.00577923
0.00576673
0.00576314
0.00577473
0.00585422
0.00593839
0.00599279
0.00599408
0.00594182
0.00585889
0.00577976
0.00576763
0.00577473
0.00591325
0.00606813
0.00620686
0.00629547
0.00629734
0.0062116
0.00607412
0.00591923
0.00577973
0.00585362
0.00606738
0.00630446
0.00653486
0.00669936
0.00670257
0.00654201
0.00631226
0.0060743
0.00585899
0.00593661
0.0062044
0.00653242
0.00692324
0.00730234
0.00731047
0.00693553
0.00654271
0.00621224
0.00594221
0.00598932
0.00629036
0.00669216
0.0072925
0.00833534
0.00837315
0.00731359
0.00670472
0.00629873
0.00599491
0.00598882
0.00628958
0.00669075
0.00728878
0.00831728
0.00835311
0.00730914
0.00670287
0.0062976
0.00599409
0.00593528
0.00620242
0.00652926
0.00691751
0.0072918
0.00729923
0.00692873
0.00653856
0.00620935
0.00594
0.00585182
0.00606487
0.00630096
0.00652993
0.00669286
0.00669569
0.00653618
0.00630765
0.00607059
0.00585596
0.00577281
0.00591075
0.00606499
0.00620299
0.00629095
0.00629255
0.00620699
0.00606991
0.00591545
0.00577642
0.00576152
0.00577271
0.0058518
0.00593556
0.00598962
0.0059907
0.00593838
0.0058555
0.0057765
0.0057646
0.00576258
0.0057739
0.00585332
0.00593761
0.00599234
0.00599404
0.00594213
0.00585943
0.00578042
0.00576826
0.00577396
0.00591197
0.00606656
0.00620533
0.00629438
0.00629687
0.00621164
0.00607447
0.00591978
0.00578035
0.00585258
0.00606557
0.00630204
0.00653231
0.00669752
0.00670184
0.0065419
0.0063124
0.00607464
0.00585949
0.00593534
0.0062021
0.00652907
0.00691927
0.00729952
0.00731049
0.00693574
0.00654272
0.00621235
0.00594252
0.00598795
0.00628775
0.00668798
0.00728639
0.0083284
0.008379
0.00731432
0.00670441
0.00629848
0.00599495
0.00598756
0.00628701
0.00668643
0.00728177
0.0083044
0.00835071
0.00730797
0.00670179
0.00629689
0.00599382
0.00593433
0.00620026
0.00652564
0.00691229
0.0072856
0.00729488
0.00692612
0.00653687
0.00620834
0.00593954
0.00585129
0.00606336
0.00629841
0.0065265
0.00668913
0.00669247
0.0065338
0.00630601
0.0060696
0.00585547
0.00577276
0.00591
0.00606355
0.00620104
0.0062888
0.00629057
0.00620541
0.00606878
0.00591476
0.00577607
0.00576194
0.00577268
0.00585134
0.00593477
0.00598867
0.00598978
0.00593765
0.00585502
0.00577625
0.00576451
0.00576149
0.00577249
0.00585182
0.00593623
0.00599126
0.0059933
0.00594163
0.00585899
0.00577996
0.0057677
0.00577268
0.00591026
0.00606466
0.00620355
0.00629307
0.00629612
0.00621124
0.00607414
0.00591939
0.00577986
0.00585115
0.00606357
0.00629964
0.00652996
0.00669593
0.00670131
0.00654181
0.00631224
0.00607432
0.00585902
0.00593382
0.00619984
0.00652608
0.00691592
0.00729738
0.0073111
0.00693635
0.00654272
0.006212
0.00594201
0.00598649
0.00628541
0.00668453
0.00728137
0.00832251
0.00838529
0.0073156
0.00670426
0.00629792
0.00599428
0.00598635
0.00628492
0.00668312
0.00727637
0.00829397
0.00834924
0.00730739
0.00670091
0.00629594
0.00599292
0.00593353
0.00619869
0.00652311
0.00690861
0.00728108
0.00729165
0.00692412
0.00653534
0.00620706
0.00593844
0.00585096
0.00606241
0.00629679
0.00652424
0.00668653
0.00669006
0.00653181
0.00630438
0.00606824
0.00585432
0.00577288
0.00590964
0.00606272
0.00619978
0.00628726
0.00628896
0.00620389
0.00606742
0.00591354
0.00577501
0.00576245
0.00577284
0.00585116
0.00593425
0.00598787
0.00598883
0.00593666
0.00585405
0.00577534
0.00576366
0.00576131
0.005772
0.00585116
0.00593554
0.0059907
0.00599291
0.00594131
0.00585862
0.00577946
0.00576706
0.00577242
0.00590961
0.00606375
0.00620263
0.0062924
0.0062958
0.00621107
0.00607392
0.005919
0.00577931
0.00585084
0.00606279
0.00629846
0.00652868
0.00669515
0.00670128
0.00654201
0.00631226
0.00607407
0.00585858
0.00593354
0.006199
0.00652462
0.00691405
0.00729627
0.00731203
0.00693723
0.00654299
0.00621184
0.00594163
0.00598639
0.00628471
0.00668298
0.00727863
0.00831879
0.00839032
0.00731702
0.00670447
0.00629767
0.00599385
0.00598661
0.00628464
0.00668204
0.00727397
0.00828859
0.00834913
0.00730744
0.00670057
0.00629542
0.00599235
0.00593424
0.00619899
0.00652283
0.00690762
0.00727947
0.00729036
0.0069232
0.00653453
0.00620629
0.00593772
0.0058521
0.00606325
0.00629721
0.0065242
0.00668604
0.00668928
0.00653095
0.00630352
0.0060674
0.00585354
0.00577433
0.00591089
0.00606365
0.00620032
0.00628738
0.00628869
0.00620337
0.00606675
0.00591281
0.00577426
0.00576404
0.00577429
0.00585236
0.00593512
0.00598836
0.00598894
0.00593645
0.00585363
0.00577477
0.00576301
0.00576145
0.00577187
0.00585073
0.00593489
0.00598991
0.00599207
0.0059404
0.00585761
0.00577836
0.00576594
0.0057725
0.00590937
0.00606316
0.00620179
0.00629147
0.00629489
0.00621014
0.00607288
0.00591786
0.00577815
0.00585095
0.00606252
0.00629777
0.00652766
0.00669409
0.00670043
0.00654121
0.00631131
0.00607297
0.00585745
0.00593377
0.00619886
0.00652396
0.00691285
0.00729494
0.00731142
0.00693666
0.00654213
0.00621077
0.00594054
0.00598689
0.0062849
0.00668267
0.00727758
0.00831659
0.0083905
0.00731649
0.00670354
0.00629656
0.00599275
0.00598748
0.00628534
0.00668243
0.00727401
0.00828836
0.00834838
0.00730636
0.00669937
0.00629418
0.00599117
0.00593548
0.00620019
0.00652386
0.00690842
0.0072798
0.00728974
0.00692202
0.00653319
0.00620495
0.00593648
0.00585361
0.00606478
0.00629858
0.00652526
0.00668653
0.00668897
0.00653002
0.00630228
0.00606608
0.00585229
0.00577596
0.00591253
0.00606513
0.00620145
0.00628796
0.00628861
0.0062027
0.00606571
0.0059116
0.00577306
0.0057656
0.00577585
0.00585376
0.0059362
0.00598896
0.00598897
0.00593598
0.00585278
0.00577371
0.00576192
0.00576197
0.0057723
0.00585089
0.00593472
0.00598943
0.00599134
0.0059395
0.00585662
0.00577736
0.00576507
0.00577302
0.00590977
0.00606326
0.00620148
0.00629077
0.00629389
0.00620896
0.00607162
0.00591663
0.00577711
0.00585158
0.00606302
0.00629792
0.00652732
0.00669317
0.00669911
0.00653975
0.00630984
0.0060716
0.00585631
0.00593462
0.00619963
0.00652445
0.00691279
0.00729385
0.00730936
0.00693475
0.00654045
0.0062093
0.00593934
0.00598804
0.00628613
0.00668387
0.00727876
0.00831693
0.00838523
0.0073139
0.00670167
0.00629501
0.00599152
0.00598894
0.00628704
0.00668442
0.00727678
0.00829387
0.00834658
0.0073041
0.00669753
0.00629263
0.00598995
0.00593713
0.00620216
0.00652612
0.00691097
0.00728206
0.00728974
0.00692068
0.00653163
0.0062035
0.0059353
0.00585528
0.00606676
0.0063007
0.00652726
0.00668788
0.00668914
0.0065292
0.00630105
0.0060648
0.0058512
0.00577749
0.00591431
0.00606693
0.00620301
0.00628895
0.00628878
0.00620215
0.00606474
0.00591049
0.0057721
0.00576682
0.00577726
0.00585515
0.00593736
0.00598968
0.0059891
0.00593556
0.005852
0.00577278
0.00576106
0.00576235
0.00577278
0.00585125
0.00593479
0.00598913
0.00599069
0.00593866
0.00585575
0.00577659
0.00576455
0.00577342
0.00591028
0.00606362
0.00620147
0.0062902
0.00629281
0.00620762
0.0060703
0.00591551
0.00577635
0.00585213
0.00606371
0.00629848
0.00652738
0.00669233
0.00669737
0.00653775
0.00630804
0.00607016
0.00585534
0.00593541
0.00620067
0.00652555
0.00691351
0.00729295
0.00730601
0.00693166
0.00653814
0.00620762
0.00593823
0.00598909
0.00628764
0.0066859
0.00728156
0.00831958
0.00837515
0.00730944
0.00669905
0.00629325
0.00599039
0.00599016
0.00628889
0.00668711
0.00728131
0.00830363
0.00834328
0.00730073
0.00669522
0.00629102
0.00598892
0.00593833
0.00620399
0.00652865
0.00691428
0.00728531
0.0072899
0.00691915
0.00653001
0.00620221
0.00593447
0.00585625
0.00606827
0.00630263
0.00652932
0.0066894
0.00668939
0.00652844
0.00629997
0.00606383
0.0058506
0.00577811
0.00591538
0.00606822
0.00620426
0.00628976
0.0062889
0.00620167
0.00606398
0.00590979
0.00577169
0.00576707
0.00577784
0.00585587
0.00593803
0.00599007
0.00598907
0.00593517
0.00585144
0.00577225
0.0057608
0.00576244
0.00577312
0.00585163
0.00593501
0.00598902
0.00599023
0.005938
0.00585511
0.00577612
0.00576439
0.00577353
0.00591067
0.00606406
0.00620164
0.00628983
0.00629186
0.0062064
0.00606917
0.00591469
0.00577598
0.00585235
0.00606428
0.00629917
0.00652773
0.00669168
0.00669557
0.00653566
0.00630633
0.00606903
0.0058548
0.00593582
0.00620157
0.00652683
0.00691473
0.00729234
0.00730211
0.00692813
0.00653581
0.00620625
0.0059376
0.00598967
0.0062889
0.00668809
0.00728518
0.00832371
0.0083627
0.00730427
0.00669646
0.00629189
0.00598982
0.00599075
0.00629028
0.00668972
0.00728639
0.00831531
0.00833946
0.00729728
0.00669326
0.00629002
0.00598862
0.0059387
0.00620512
0.00653073
0.00691748
0.00728878
0.00729035
0.00691804
0.00652902
0.00620173
0.00593454
0.00585626
0.00606891
0.00630386
0.00653095
0.0066908
0.00668985
0.00652818
0.00629963
0.00606379
0.00585099
0.00577774
0.0059155
0.00606873
0.00620495
0.00629034
0.00628913
0.00620164
0.00606398
0.00591003
0.00577231
0.00576639
0.00577754
0.00585584
0.00593816
0.00599021
0.00598913
0.00593519
0.00585158
0.00577264
0.00576153
0.00576233
0.00577324
0.00585184
0.00593514
0.00598886
0.00598972
0.00593727
0.00585437
0.00577553
0.00576406
0.0057734
0.00591081
0.00606433
0.00620176
0.00628945
0.0062909
0.00620516
0.00606804
0.00591388
0.00577556
0.00585225
0.00606453
0.00629966
0.00652805
0.00669105
0.00669376
0.00653356
0.0063047
0.00606804
0.00585438
0.00593576
0.00620202
0.00652782
0.00691586
0.00729176
0.00729814
0.00692464
0.00653371
0.00620521
0.00593728
0.00598962
0.00628952
0.00668973
0.00728844
0.00832759
0.00835038
0.00729947
0.0066944
0.00629112
0.0059898
0.00599056
0.00629082
0.0066915
0.00729065
0.00832622
0.00833666
0.00729476
0.00669218
0.00628989
0.00598908
0.00593822
0.00620528
0.00653184
0.00691981
0.00729182
0.00729127
0.00691788
0.00652909
0.00620228
0.0059355
0.00585545
0.0060686
0.00630418
0.00653184
0.00669189
0.00669062
0.00652871
0.00630031
0.00606481
0.00585233
0.00577668
0.00591481
0.00606847
0.00620507
0.0062907
0.00628962
0.00620228
0.00606489
0.00591128
0.00577385
0.00576519
0.00577662
0.00585524
0.00593789
0.00599022
0.00598941
0.00593577
0.0058525
0.00577392
0.00576309
0.00576242
0.00577341
0.00585203
0.00593518
0.00598856
0.005989
0.00593626
0.00585328
0.0057745
0.00576317
0.00577342
0.00591096
0.00606453
0.00620178
0.00628895
0.00628977
0.0062037
0.00606662
0.00591271
0.00577466
0.00585219
0.0060647
0.0063
0.00652822
0.00669031
0.00669185
0.00653138
0.00630295
0.00606685
0.00585364
0.00593561
0.00620221
0.00652845
0.00691664
0.00729094
0.0072943
0.00692138
0.00653179
0.00620425
0.00593688
0.0059893
0.00628966
0.00669069
0.00729069
0.00832981
0.00833977
0.00729564
0.00669296
0.00629076
0.00598996
0.00599001
0.00629073
0.00669233
0.00729346
0.00833479
0.00833629
0.00729375
0.00669208
0.0062904
0.0059899
0.00593742
0.00620485
0.0065321
0.00692116
0.0072943
0.00729299
0.0069189
0.00653017
0.00620357
0.0059369
0.00585447
0.00606787
0.00630392
0.00653221
0.00669284
0.00669186
0.00653009
0.00630186
0.00606652
0.00585406
0.00577564
0.00591393
0.00606792
0.00620497
0.0062911
0.00629049
0.00620356
0.00606649
0.00591309
0.00577569
0.0057642
0.00577574
0.0058546
0.0059376
0.00599037
0.00599003
0.00593684
0.00585394
0.0057756
0.00576482
0.00576306
0.005774
0.00585246
0.00593532
0.00598824
0.00598815
0.00593502
0.00585188
0.00577311
0.00576188
0.00577398
0.0059115
0.00606495
0.00620187
0.00628839
0.00628846
0.00620197
0.00606486
0.0059111
0.00577326
0.00585262
0.00606517
0.00630048
0.00652838
0.00668947
0.0066898
0.006529
0.00630091
0.00606526
0.0058524
0.00593584
0.00620258
0.00652903
0.00691713
0.00728979
0.00729053
0.00691819
0.00652975
0.00620298
0.00593603
0.00598927
0.00628983
0.00669131
0.00729203
0.00833005
0.00833083
0.00729256
0.00669171
0.00629024
0.00598973
0.00598972
0.00629061
0.00669271
0.00729515
0.00834122
0.00833836
0.00729386
0.00669237
0.00629086
0.00599037
0.00593695
0.00620448
0.0065321
0.00692199
0.00729647
0.00729537
0.00692062
0.00653155
0.00620477
0.00593788
0.00585397
0.0060674
0.00630369
0.0065325
0.00669386
0.00669343
0.00653181
0.00630352
0.006068
0.00585525
0.00577522
0.00591348
0.00606762
0.00620503
0.00629167
0.00629156
0.00620496
0.00606799
0.0059145
0.00577682
0.00576388
0.00577537
0.00585434
0.00593758
0.00599072
0.00599077
0.00593788
0.0058551
0.00577671
0.0057657
0.00576434
0.00577519
0.00585341
0.00593585
0.00598818
0.0059875
0.00593394
0.00585062
0.00577184
0.00576073
0.0057752
0.00591267
0.00606589
0.00620232
0.00628806
0.0062873
0.00620031
0.00606309
0.00590943
0.00577181
0.00585372
0.00606627
0.00630143
0.00652883
0.00668879
0.00668785
0.0065266
0.00629872
0.00606341
0.00585089
0.00593674
0.00620354
0.00653002
0.0069178
0.00728867
0.00728688
0.00691497
0.00652746
0.00620129
0.00593471
0.00598991
0.00629055
0.00669224
0.00729328
0.00832955
0.0083226
0.0072895
0.0066901
0.00628913
0.00598884
0.00599012
0.00629106
0.00669341
0.00729675
0.00834706
0.00834111
0.00729389
0.00669216
0.00629056
0.00598998
0.00593724
0.00620475
0.00653253
0.00692299
0.00729869
0.00729779
0.00692202
0.00653226
0.00620502
0.0059378
0.00585426
0.00606762
0.00630398
0.0065331
0.00669497
0.00669485
0.00653305
0.00630434
0.00606836
0.00585519
0.00577557
0.00591372
0.00606786
0.00620542
0.00629232
0.0062924
0.00620575
0.00606853
0.00591466
0.00577659
0.00576424
0.0057756
0.00585453
0.00593783
0.00599107
0.0059912
0.00593824
0.00585524
0.00577652
0.00576516
0.00576572
0.00577664
0.00585468
0.00593675
0.00598855
0.00598731
0.00593337
0.00584987
0.00577108
0.00576015
0.00577665
0.00591421
0.00606727
0.00620323
0.0062882
0.00628661
0.0061991
0.00606173
0.00590816
0.00577082
0.00585516
0.00606784
0.0063029
0.00652979
0.0066886
0.00668633
0.00652453
0.00629674
0.00606174
0.00584959
0.00593811
0.00620509
0.00653162
0.00691906
0.00728813
0.00728361
0.00691181
0.00652504
0.00619942
0.00593327
0.00599116
0.006292
0.00669394
0.00729539
0.00833039
0.00831415
0.00728584
0.00668786
0.00628743
0.00598747
0.00599121
0.00629231
0.00669496
0.00729928
0.00835386
0.00834179
0.00729258
0.00669083
0.00628928
0.00598879
0.0059382
0.00620581
0.00653374
0.00692463
0.00730102
0.00729927
0.00692213
0.00653164
0.00620405
0.00593671
0.00585513
0.00606852
0.00630489
0.00653408
0.00669601
0.00669558
0.00653314
0.00630383
0.00606742
0.00585405
0.00577635
0.00591447
0.00606853
0.00620601
0.00629277
0.00629258
0.0062055
0.00606781
0.00591356
0.00577529
0.0057649
0.00577618
0.00585497
0.00593812
0.00599117
0.00599102
0.00593768
0.00585427
0.00577521
0.00576368
0.00576628
0.00577749
0.00585561
0.00593756
0.00598905
0.00598745
0.00593323
0.00584963
0.00577088
0.00576016
0.00577743
0.00591533
0.00606846
0.0062042
0.00628862
0.00628639
0.00619844
0.00606096
0.00590753
0.00577052
0.00585615
0.00606921
0.00630439
0.00653099
0.00668886
0.00668538
0.00652302
0.00629528
0.00606061
0.0058489
0.00593929
0.00620669
0.00653351
0.00692088
0.00728844
0.00728097
0.00690896
0.00652285
0.00619783
0.00593222
0.00599245
0.00629376
0.00669627
0.00729867
0.00833396
0.00830534
0.00728157
0.00668525
0.00628559
0.0059862
0.00599252
0.00629407
0.00669734
0.00730311
0.00836222
0.00833861
0.00728953
0.00668855
0.00628748
0.00598745
0.00593942
0.00620736
0.00653565
0.00692698
0.00730334
0.00729929
0.00692072
0.00652993
0.00620241
0.00593537
0.00585618
0.00606977
0.00630624
0.00653536
0.00669683
0.00669546
0.00653215
0.00630239
0.00606588
0.00585272
0.00577718
0.00591543
0.00606942
0.00620667
0.00629298
0.00629217
0.0062045
0.00606643
0.00591206
0.00577397
0.00576552
0.00577686
0.00585552
0.00593841
0.00599107
0.00599044
0.00593666
0.00585296
0.0057738
0.00576244
0.00576544
0.00577706
0.00585548
0.0059376
0.00598913
0.00598745
0.00593317
0.00584959
0.00577097
0.00576053
0.00577687
0.00591522
0.00606867
0.0062045
0.00628876
0.00628622
0.00619808
0.00606063
0.00590742
0.00577075
0.00585599
0.00606954
0.00630508
0.00653172
0.00668906
0.00668475
0.00652201
0.00629442
0.00606013
0.00584887
0.00593958
0.00620755
0.0065349
0.00692256
0.00728911
0.00727891
0.00690665
0.00652121
0.00619687
0.00593186
0.00599316
0.00629514
0.00669854
0.00730245
0.00833949
0.00829674
0.0072773
0.00668289
0.00628423
0.00598555
0.0059935
0.00629573
0.00669998
0.00730773
0.00837156
0.00833235
0.00728552
0.00668614
0.00628599
0.00598667
0.00594044
0.00620895
0.00653785
0.00692977
0.00730559
0.00729825
0.00691854
0.00652803
0.00620107
0.00593462
0.00585708
0.00607108
0.00630779
0.00653684
0.00669759
0.00669496
0.00653084
0.00630098
0.00606478
0.00585212
0.00577792
0.00591644
0.00607048
0.00620749
0.00629324
0.00629172
0.00620357
0.00606539
0.00591123
0.00577358
0.00576612
0.00577765
0.00585626
0.00593889
0.00599114
0.00599006
0.00593599
0.00585224
0.00577328
0.00576229
0.00576344
0.00577533
0.00585409
0.00593656
0.00598839
0.00598694
0.00593285
0.00584947
0.00577108
0.00576089
0.00577507
0.00591372
0.00606751
0.00620365
0.00628809
0.00628566
0.00619766
0.00606045
0.00590753
0.00577117
0.0058546
0.0060685
0.00630441
0.00653129
0.00668853
0.00668393
0.00652123
0.00629398
0.00606011
0.00584925
0.00593876
0.00620719
0.00653509
0.00692315
0.0072891
0.00727703
0.00690493
0.00652026
0.00619661
0.00593212
0.00599297
0.00629558
0.00669992
0.0073054
0.00834422
0.00828914
0.00727385
0.00668135
0.00628371
0.00598567
0.00599383
0.00629679
0.00670217
0.00731212
0.00838078
0.00832614
0.00728207
0.0066845
0.0062854
0.00598675
0.00594105
0.00621022
0.00653993
0.00693265
0.007308
0.00729738
0.00691683
0.00652691
0.00620067
0.00593483
0.00585777
0.00607228
0.00630942
0.00653856
0.00669867
0.00669487
0.00653016
0.00630046
0.00606472
0.00585255
0.0057786
0.00591751
0.00607173
0.00620864
0.00629396
0.00629188
0.00620343
0.00606535
0.00591152
0.00577427
0.00576676
0.00577858
0.00585726
0.00593978
0.00599173
0.00599036
0.00593617
0.00585255
0.00577386
0.00576321
0.00576127
0.0057731
0.00585198
0.00593472
0.00598694
0.00598594
0.00593228
0.00584926
0.00577114
0.00576111
0.00577287
0.00591144
0.00606534
0.00620172
0.00628652
0.00628454
0.00619703
0.00606024
0.00590765
0.00577148
0.00585266
0.00606651
0.00630251
0.00652952
0.0066869
0.00668263
0.00652047
0.00629377
0.00606031
0.0058497
0.0059373
0.00620581
0.0065339
0.00692204
0.0072875
0.00727497
0.00690377
0.00651994
0.00619685
0.00593266
0.00599217
0.00629508
0.00669999
0.00730632
0.00834499
0.00828322
0.00727188
0.00668087
0.00628395
0.00598628
0.00599365
0.00629712
0.00670343
0.00731526
0.00838871
0.00832351
0.00728049
0.00668413
0.00628574
0.00598744
0.00594133
0.00621105
0.00654157
0.00693525
0.00731076
0.00729783
0.00691652
0.00652699
0.00620123
0.00593567
0.00585831
0.0060733
0.00631094
0.00654041
0.00670028
0.00669572
0.0065306
0.00630101
0.00606556
0.00585358
0.00577928
0.00591855
0.00607306
0.00621007
0.00629522
0.00629284
0.00620423
0.00606623
0.00591257
0.00577544
0.00576745
0.00577953
0.00585839
0.00594095
0.00599282
0.00599131
0.00593709
0.00585356
0.00577499
0.00576443
0.00576003
0.00577147
0.00585014
0.00593291
0.00598543
0.00598496
0.00593186
0.00584927
0.00577142
0.00576144
0.00577136
0.00590949
0.00606313
0.00619948
0.0062846
0.00628328
0.00619648
0.00606024
0.00590793
0.00577182
0.00585116
0.00606453
0.0063002
0.006527
0.00668456
0.0066811
0.00651992
0.00629387
0.00606072
0.00585016
0.00593603
0.00620415
0.0065319
0.0069195
0.00728437
0.00727289
0.00690329
0.00652023
0.00619742
0.00593327
0.0059913
0.00629406
0.00669891
0.00730487
0.00834052
0.00827987
0.00727174
0.0066814
0.0062847
0.00598701
0.00599325
0.00629685
0.00670358
0.00731644
0.00839388
0.00832619
0.00728127
0.00668493
0.00628663
0.00598826
0.00594131
0.00621133
0.00654241
0.006937
0.00731346
0.00729986
0.00691772
0.00652803
0.00620225
0.00593655
0.00585852
0.00607382
0.00631192
0.0065419
0.00670204
0.00669729
0.00653189
0.00630218
0.00606665
0.00585448
0.00577956
0.00591908
0.00607392
0.00621124
0.00629656
0.00629416
0.00620546
0.00606739
0.00591364
0.00577631
0.00576761
0.0057799
0.00585901
0.00594181
0.00599382
0.00599236
0.00593813
0.00585455
0.00577588
0.00576514
0.00576038
0.00577136
0.00584962
0.00593219
0.00598486
0.00598488
0.00593238
0.00585026
0.00577266
0.00576269
0.00577123
0.00590881
0.006062
0.00619811
0.00628346
0.00628285
0.00619686
0.00606116
0.00590909
0.00577293
0.00585071
0.00606347
0.00629854
0.0065249
0.00668267
0.00668034
0.00652034
0.00629487
0.00606187
0.0058512
0.00593538
0.0062029
0.00652993
0.00691659
0.00728103
0.00727195
0.00690416
0.0065215
0.00619863
0.00593426
0.00599055
0.00629285
0.00669705
0.00730154
0.00833242
0.00828074
0.00727378
0.00668301
0.00628594
0.00598792
0.00599244
0.00629581
0.00670232
0.00731494
0.00839385
0.00833325
0.00728415
0.00668666
0.00628782
0.00598904
0.00594041
0.00621041
0.00654165
0.00693678
0.0073147
0.00730248
0.00691983
0.00652953
0.00620331
0.00593718
0.00585744
0.00607285