/*--------------------------------*- C++ -*----------------------------------*\
| =========                 |                                                 |
| \\      /  F ield         | OpenFOAM: The Open Source CFD Toolbox           |
|  \\    /   O peration     | Version:  2406                                  |
|   \\  /    A nd           | Website:  www.openfoam.com                      |
|    \\/     M anipulation  |                                                 |
\*---------------------------------------------------------------------------*/
FoamFile
{
    version     2.0;
    format      ascii;
    arch        "LSB;label=32;scalar=64";
    class       volSymmTensorField;
    location    "1";
    object      turbulenceProperties:R;
}
// * * * * * * * * * * * * * * * * * * * * * * * * * * * * * * * * * * * * * //

dimensions      [0 2 -2 0 0 0 0];

internalField   uniform (0 -0 -0 0 -0 0);

boundaryField
{
    walls
    {
        type            calculated;
        value           nonuniform List<symmTensor> 
2000
(
(-8.57813e-08 7.1392e-08 2.96522e-07 -5.45559e-08 -2.50418e-07 1.40337e-07)
(-1.48119e-07 9.04423e-08 4.68665e-07 -5.04317e-08 -2.88976e-07 1.98551e-07)
(-2.24721e-07 9.40331e-08 6.72759e-07 -3.32462e-08 -2.8125e-07 2.57968e-07)
(-2.95109e-07 7.27066e-08 8.52696e-07 -1.06394e-08 -2.06804e-07 3.05749e-07)
(-3.38007e-07 2.73244e-08 9.58432e-07 5.7286e-09 -7.62261e-08 3.32278e-07)
(-3.38006e-07 -2.73295e-08 9.58431e-07 5.72777e-09 7.62265e-08 3.32278e-07)
(-2.95107e-07 -7.27106e-08 8.52694e-07 -1.06415e-08 2.06804e-07 3.05748e-07)
(-2.24719e-07 -9.40354e-08 6.72757e-07 -3.32487e-08 2.81249e-07 2.57967e-07)
(-1.48117e-07 -9.04431e-08 4.68663e-07 -5.04338e-08 2.88975e-07 1.9855e-07)
(-8.57798e-08 -7.1392e-08 2.9652e-07 -5.45571e-08 2.50417e-07 1.40337e-07)
(-2.64916e-09 1.14341e-09 1.27221e-07 -1.94583e-10 -1.07015e-07 2.84374e-09)
(-4.96833e-09 8.58238e-10 1.94482e-07 2.50564e-10 -1.19441e-07 4.71776e-09)
(-6.63908e-09 9.80927e-10 2.78057e-07 -3.46051e-10 -1.15982e-07 6.98513e-09)
(-8.44126e-09 7.33608e-10 3.54184e-07 -5.21403e-10 -8.57695e-08 8.96266e-09)
(-9.51472e-09 3.10542e-10 3.9978e-07 -6.39618e-10 -3.17583e-08 1.01543e-08)
(-9.51294e-09 -3.21803e-10 3.99777e-07 -6.41457e-10 3.17587e-08 1.01544e-08)
(-8.43666e-09 -7.42654e-10 3.54177e-07 -5.26179e-10 8.57685e-08 8.96284e-09)
(-6.63349e-09 -9.86487e-10 2.78049e-07 -3.51859e-10 1.15979e-07 6.98535e-09)
(-4.96341e-09 -8.60699e-10 1.94474e-07 2.45404e-10 1.19437e-07 4.71801e-09)
(-2.64611e-09 -1.14383e-09 1.27215e-07 -1.97842e-10 1.0701e-07 2.84395e-09)
(-2.79714e-10 -9.38425e-12 4.46395e-08 -1.33035e-10 -3.74219e-08 4.12749e-10)
(-3.71003e-10 -6.85293e-11 6.65278e-08 -2.68114e-10 -4.07208e-08 6.39117e-10)
(-3.81023e-10 -1.62464e-11 9.44912e-08 -5.34366e-10 -3.93367e-08 9.15389e-10)
(-4.7014e-10 2.75551e-11 1.20808e-07 -6.86923e-10 -2.92288e-08 1.15706e-09)
(-5.51006e-10 2.07786e-11 1.3682e-07 -7.50246e-10 -1.08621e-08 1.30125e-09)
(-5.49202e-10 -3.24067e-11 1.36816e-07 -7.52131e-10 1.08625e-08 1.30133e-09)
(-4.65483e-10 -3.68865e-11 1.20796e-07 -6.9181e-10 2.92266e-08 1.15729e-09)
(-3.75407e-10 1.05175e-11 9.44754e-08 -5.40272e-10 3.93307e-08 9.15679e-10)
(-3.66015e-10 6.59379e-11 6.65119e-08 -2.73409e-10 4.07116e-08 6.39423e-10)
(-2.76569e-10 8.89231e-12 4.46259e-08 -1.36431e-10 3.74107e-08 4.13001e-10)
(-7.77356e-11 6.47717e-11 5.83818e-08 5.04424e-11 -4.89958e-08 2.72932e-11)
(-1.85595e-10 4.62799e-11 8.76476e-08 1.31123e-10 -5.36957e-08 5.44717e-11)
(-2.50708e-10 3.88443e-11 1.24522e-07 1.59653e-10 -5.1858e-08 9.10544e-11)
(-3.15623e-10 1.24286e-11 1.58774e-07 1.90244e-10 -3.84149e-08 1.25378e-10)
(-3.44866e-10 -4.26134e-12 1.79474e-07 1.96654e-10 -1.42468e-08 1.48212e-10)
(-3.40739e-10 -2.23192e-11 1.79462e-07 1.923e-10 1.42478e-08 1.48438e-10)
(-3.04941e-10 -3.38006e-11 1.58741e-07 1.78925e-10 3.84089e-08 1.26017e-10)
(-2.37813e-10 -5.19561e-11 1.24479e-07 1.45942e-10 5.18414e-08 9.18713e-11)
(-1.74142e-10 -5.21776e-11 8.76044e-08 1.18821e-10 5.36703e-08 5.53216e-11)
(-7.06039e-11 -6.58434e-11 5.8345e-08 4.26157e-11 4.89655e-08 2.79882e-11)
(-2.57448e-11 -9.62225e-12 4.56084e-08 -4.18989e-11 -3.82467e-08 6.76437e-11)
(-1.99464e-11 -1.01251e-11 6.80773e-08 -8.18372e-11 -4.16763e-08 1.01784e-10)
(-1.5625e-11 4.63792e-12 9.67317e-08 -1.25776e-10 -4.02738e-08 1.41401e-10)
(-3.05926e-11 9.56191e-12 1.23585e-07 -1.44876e-10 -2.99006e-08 1.75468e-10)
(-4.47973e-11 -7.11701e-12 1.399e-07 -1.50561e-10 -1.11059e-08 1.95358e-10)
(-3.86111e-11 -3.28613e-11 1.39878e-07 -1.57071e-10 1.11073e-08 1.95682e-10)
(-1.45783e-11 -4.17351e-11 1.23527e-07 -1.61808e-10 2.98894e-08 1.76387e-10)
(3.71854e-12 -2.44224e-11 9.66538e-08 -1.46289e-10 4.02438e-08 1.42571e-10)
(-2.66888e-12 1.13311e-12 6.79996e-08 -1.00339e-10 4.16305e-08 1.03008e-10)
(-1.48576e-11 7.91198e-12 4.55423e-08 -5.3793e-11 3.81922e-08 6.86506e-11)
(-4.23016e-12 1.61714e-11 4.95002e-08 4.81512e-12 -4.1524e-08 -5.84959e-13)
(-2.95588e-11 1.47755e-11 7.40635e-08 2.7579e-11 -4.53545e-08 1.97982e-12)
(-5.22707e-11 7.08359e-12 1.05261e-07 4.62944e-11 -4.38306e-08 5.97627e-12)
(-7.0203e-11 -1.06917e-11 1.34402e-07 5.99734e-11 -3.25183e-08 1.02295e-11)
(-7.35621e-11 -3.04647e-11 1.52067e-07 6.0077e-11 -1.20709e-08 1.34851e-11)
(-6.18135e-11 -4.52808e-11 1.52025e-07 4.772e-11 1.20734e-08 1.40935e-11)
(-3.97154e-11 -5.04108e-11 1.34289e-07 2.77389e-11 3.24965e-08 1.19764e-11)
(-1.53195e-11 -4.4762e-11 1.0511e-07 7.0723e-12 4.37723e-08 8.2472e-12)
(3.46451e-12 -3.1873e-11 7.39117e-08 -7.88082e-12 4.5265e-08 4.41631e-12)
(1.63869e-11 -1.93261e-11 4.93708e-08 -1.7866e-11 4.14173e-08 1.47903e-12)
(-8.52675e-13 -1.62071e-12 4.64973e-08 -1.2301e-11 -3.89963e-08 1.31537e-11)
(-6.78322e-12 -4.60916e-12 6.94329e-08 -1.38043e-11 -4.25088e-08 2.05876e-11)
(-1.50097e-11 -1.31283e-11 9.86361e-08 -1.45416e-11 -4.10668e-08 2.95512e-11)
(-2.02204e-11 -2.92369e-11 1.25962e-07 -1.76543e-11 -3.04741e-08 3.78747e-11)
(-1.55842e-11 -5.15536e-11 1.42533e-07 -2.76289e-11 -1.13122e-08 4.32131e-11)
(2.74949e-12 -6.69296e-11 1.42459e-07 -4.69305e-11 1.13158e-08 4.4181e-11)
(2.739e-11 -6.64486e-11 1.25763e-07 -6.80584e-11 3.04347e-08 4.06685e-11)
(4.27502e-11 -4.59876e-11 9.83663e-08 -7.59712e-11 4.09623e-08 3.32209e-11)
(4.48267e-11 -2.22643e-11 6.91584e-08 -6.94077e-11 4.23467e-08 2.45809e-11)
(3.11541e-11 -3.33913e-12 4.62596e-08 -4.77487e-11 3.88001e-08 1.65946e-11)
(-1.36244e-12 4.08781e-12 4.77388e-08 6.90114e-12 -4.004e-08 -5.53869e-12)
(-1.83709e-11 -3.04064e-12 7.12932e-08 2.4978e-11 -4.36485e-08 -6.60712e-12)
(-3.41372e-11 -2.28092e-11 1.01221e-07 4.12641e-11 -4.2141e-08 -7.12695e-12)
(-3.79089e-11 -5.05305e-11 1.29171e-07 4.45168e-11 -3.12472e-08 -6.60788e-12)
(-2.5422e-11 -7.67852e-11 1.46079e-07 3.07853e-11 -1.15907e-08 -5.36323e-12)
(1.42475e-13 -8.88345e-11 1.45948e-07 3.78763e-12 1.15954e-08 -3.93011e-12)
(2.86678e-11 -8.36209e-11 1.28818e-07 -2.62011e-11 3.11762e-08 -2.46664e-12)
(4.69646e-11 -6.04306e-11 1.0074e-07 -4.52679e-11 4.1954e-08 -1.6967e-12)
(5.47085e-11 -3.51465e-11 7.07994e-08 -5.40135e-11 4.33564e-08 -6.94975e-13)
(4.41469e-11 -1.11964e-11 4.73073e-08 -4.36958e-11 3.96838e-08 -4.51026e-13)
(-8.94638e-12 -2.0717e-12 4.7195e-08 1.03504e-11 -3.95803e-08 -1.40398e-12)
(-2.12256e-11 -1.25926e-11 7.04008e-08 2.22715e-11 -4.30965e-08 -1.04591e-12)
(-3.08795e-11 -3.43068e-11 9.98723e-08 3.09604e-11 -4.15748e-08 -8.094e-14)
(-2.87381e-11 -6.21887e-11 1.27375e-07 2.71465e-11 -3.08085e-08 1.59165e-12)
(-1.16609e-11 -8.73844e-11 1.43974e-07 8.12321e-12 -1.142e-08 3.53771e-12)
(1.66922e-11 -9.70944e-11 1.4377e-07 -2.18679e-11 1.14256e-08 5.17569e-12)
(4.55088e-11 -8.80886e-11 1.26822e-07 -5.1838e-11 3.06956e-08 6.32918e-12)
(6.03532e-11 -5.98054e-11 9.91203e-08 -6.63735e-11 4.12806e-08 6.02031e-12)
(6.28283e-11 -3.16657e-11 6.96266e-08 -6.83752e-11 4.26377e-08 5.54696e-12)
(4.48173e-11 -6.6092e-12 4.6518e-08 -4.89807e-11 3.90211e-08 4.1635e-12)
(-2.09205e-11 -2.86697e-12 4.7717e-08 2.54347e-11 -4.00178e-08 -4.51422e-12)
(-3.37494e-11 -1.71043e-11 7.11506e-08 3.97588e-11 -4.35535e-08 -6.00942e-12)
(-3.93603e-11 -4.00146e-11 1.0087e-07 4.65525e-11 -4.19869e-08 -7.19221e-12)
(-3.28784e-11 -6.59648e-11 1.2856e-07 4.04621e-11 -3.10911e-08 -7.58373e-12)
(-1.31448e-11 -8.41882e-11 1.45223e-07 1.99575e-11 -1.15152e-08 -6.81272e-12)
(1.30685e-11 -8.70108e-11 1.44938e-07 -7.75902e-12 1.15219e-08 -5.30944e-12)
(3.64185e-11 -7.48151e-11 1.27789e-07 -3.32119e-11 3.09328e-08 -3.20659e-12)
(4.70369e-11 -4.94484e-11 9.9829e-08 -4.53149e-11 4.15786e-08 -1.72204e-12)
(4.87738e-11 -2.65966e-11 7.00852e-08 -4.86235e-11 4.29213e-08 -1.50348e-13)
(3.41099e-11 -6.29327e-12 4.67912e-08 -3.43646e-11 3.92526e-08 2.54678e-13)
(-3.85361e-11 -7.33637e-12 4.76642e-08 3.90013e-11 -3.99724e-08 -4.65191e-13)
(-4.72865e-11 -2.59016e-11 7.10467e-08 4.80892e-11 -4.34879e-08 -8.02602e-13)
(-4.31976e-11 -4.654e-11 1.0069e-07 4.39901e-11 -4.19094e-08 -7.92548e-13)
(-2.99832e-11 -6.52878e-11 1.28284e-07 3.06688e-11 -3.10216e-08 -6.85671e-13)
(-8.5083e-12 -7.15316e-11 1.44853e-07 8.33677e-12 -1.14826e-08 1.71528e-13)
(1.23133e-11 -6.47604e-11 1.44501e-07 -1.35525e-11 1.14906e-08 1.23918e-12)
(2.57578e-11 -4.81867e-11 1.27336e-07 -2.82415e-11 3.08264e-08 2.48366e-12)
(2.76224e-11 -2.69372e-11 9.94188e-08 -3.05982e-11 4.14102e-08 2.97578e-12)
(2.34912e-11 -1.17236e-11 6.97581e-08 -2.66999e-11 4.27223e-08 3.20866e-12)
(1.10851e-11 -1.15709e-12 4.65556e-08 -1.36548e-11 3.90554e-08 2.56971e-12)
(-5.74318e-11 -1.01445e-11 4.77499e-08 5.56508e-11 -4.00449e-08 1.78098e-12)
(-6.54537e-11 -3.40839e-11 7.11897e-08 6.345e-11 -4.35763e-08 2.00374e-12)
(-5.31316e-11 -5.37616e-11 1.00904e-07 5.04281e-11 -4.19987e-08 2.7035e-12)
(-3.36357e-11 -6.67435e-11 1.28551e-07 3.07872e-11 -3.10854e-08 2.84856e-12)
(-9.65618e-12 -6.04841e-11 1.45127e-07 6.10815e-12 -1.15024e-08 3.54803e-12)
(6.17648e-12 -4.26823e-11 1.4473e-07 -1.0275e-11 1.15117e-08 4.09852e-12)
(9.33768e-12 -2.03264e-11 1.27484e-07 -1.39295e-11 3.08657e-08 4.59182e-12)
(2.61767e-12 -3.78031e-12 9.94832e-08 -7.19593e-12 4.14404e-08 4.57826e-12)
(-7.12798e-12 3.20687e-12 6.97632e-08 3.09272e-12 4.2728e-08 4.03526e-12)
(-1.44516e-11 2.73042e-12 4.65373e-08 1.13828e-11 3.90409e-08 3.06879e-12)
(-6.79757e-11 -1.19303e-11 4.75631e-08 6.31798e-11 -3.98891e-08 4.79591e-12)
(-7.60979e-11 -3.91684e-11 7.09374e-08 6.98335e-11 -4.3424e-08 6.26436e-12)
(-5.85206e-11 -5.75596e-11 1.00584e-07 4.9967e-11 -4.18676e-08 8.5536e-12)
(-3.56549e-11 -6.67407e-11 1.28174e-07 2.60317e-11 -3.09953e-08 9.62325e-12)
(-1.0511e-11 -5.2602e-11 1.44708e-07 -1.53826e-13 -1.14687e-08 1.06648e-11)
(2.08513e-12 -2.82187e-11 1.44289e-07 -1.27681e-11 1.14787e-08 1.0683e-11)
(-1.03036e-12 -2.35643e-12 1.27054e-07 -8.88238e-12 3.07647e-08 9.91274e-12)
(-1.26472e-11 1.09298e-11 9.91005e-08 4.08982e-12 4.12842e-08 8.55737e-12)
(-2.61768e-11 1.31026e-11 6.94596e-08 1.97586e-11 4.25444e-08 6.41817e-12)
(-2.93982e-11 5.35331e-12 4.63211e-08 2.48599e-11 3.88597e-08 4.53835e-12)
(-6.02335e-11 -9.98349e-12 4.73545e-08 5.4558e-11 -3.97152e-08 5.67552e-12)
(-6.85738e-11 -3.41737e-11 7.06552e-08 6.08586e-11 -4.3254e-08 7.71516e-12)
(-5.20385e-11 -4.84313e-11 1.00225e-07 4.12476e-11 -4.17214e-08 1.07909e-11)
(-3.26519e-11 -5.50358e-11 1.27759e-07 2.03045e-11 -3.08974e-08 1.23474e-11)
(-1.16075e-11 -4.062e-11 1.44264e-07 -1.80137e-12 -1.14346e-08 1.34088e-11)
(-2.06792e-12 -1.8819e-11 1.4385e-07 -1.07617e-11 1.14441e-08 1.28296e-11)
(-5.83255e-12 2.97386e-12 1.26653e-07 -5.18753e-12 3.0669e-08 1.10201e-11)
(-1.51881e-11 1.19317e-11 9.87649e-08 6.47869e-12 4.11463e-08 8.70938e-12)
(-2.59005e-11 1.23363e-11 6.9208e-08 2.00736e-11 4.23918e-08 5.8269e-12)
(-2.4996e-11 4.05451e-12 4.6149e-08 2.1193e-11 3.87151e-08 3.803e-12)
(-3.22708e-11 -4.88801e-12 4.70889e-08 2.67288e-11 -3.94931e-08 5.54198e-12)
(-3.69214e-11 -1.73269e-11 7.02787e-08 2.92953e-11 -4.30256e-08 7.62606e-12)
(-2.61153e-11 -2.12019e-11 9.97247e-08 1.55667e-11 -4.15157e-08 1.05486e-11)
(-1.73594e-11 -2.23803e-11 1.27163e-07 5.38968e-12 -3.07561e-08 1.19697e-11)
(-8.47282e-12 -1.35153e-11 1.4363e-07 -3.99333e-12 -1.13869e-08 1.24662e-11)
(-5.18378e-12 -4.08536e-12 1.43251e-07 -5.93122e-12 1.13944e-08 1.1115e-11)
(-6.50459e-12 3.59667e-12 1.2615e-07 -2.02778e-12 3.05459e-08 8.53237e-12)
(-7.95428e-12 4.61652e-12 9.83913e-08 2.25733e-12 4.09896e-08 5.69694e-12)
(-9.50786e-12 3.79996e-12 6.89627e-08 6.54709e-12 4.22408e-08 2.96077e-12)
(-4.92925e-12 2.17469e-13 4.59997e-08 3.51435e-12 3.85887e-08 1.4149e-12)
(5.26812e-12 1.5624e-12 4.68642e-08 -1.02473e-11 -3.93053e-08 4.97918e-12)
(9.68295e-12 6.94239e-12 6.99671e-08 -1.62082e-11 -4.28367e-08 6.52529e-12)
(1.43276e-11 1.97073e-11 9.93219e-08 -2.24566e-11 -4.13506e-08 8.12904e-12)
(9.21438e-12 2.99746e-11 1.26703e-07 -1.76106e-11 -3.06483e-08 8.39625e-12)
(-5.21304e-13 3.40492e-11 1.43175e-07 -6.94198e-12 -1.1355e-08 7.46328e-12)
(-9.33418e-12 2.76485e-11 1.4287e-07 4.22255e-12 1.13595e-08 5.11163e-12)
(-1.11009e-11 1.47895e-11 1.2589e-07 8.93459e-12 3.04781e-08 2.16631e-12)
(-4.75246e-12 2.41468e-12 9.82583e-08 5.1957e-12 4.09296e-08 -4.43233e-13)
(5.42266e-12 -3.73864e-12 6.89245e-08 -3.40659e-12 4.22137e-08 -2.01606e-12)
(1.45232e-11 -3.47706e-12 4.60087e-08 -1.21262e-11 3.85941e-08 -2.39705e-12)
(3.27367e-11 5.85011e-12 4.66384e-08 -3.80543e-11 -3.9117e-08 5.31759e-12)
(4.884e-11 2.69222e-11 6.96799e-08 -5.52116e-11 -4.26634e-08 6.3716e-12)
(5.16196e-11 5.64428e-11 9.89938e-08 -5.80368e-11 -4.12176e-08 6.41717e-12)
(3.69019e-11 8.20263e-11 1.26382e-07 -4.20709e-11 -3.05752e-08 5.16897e-12)
(9.95407e-12 8.81548e-11 1.42926e-07 -1.24411e-11 -1.13409e-08 2.48707e-12)
(-1.40223e-11 7.25175e-11 1.42745e-07 1.49191e-11 1.13427e-08 -8.96751e-13)
(-2.28695e-11 4.28686e-11 1.25906e-07 2.68701e-11 3.04744e-08 -4.00067e-12)
(-1.54733e-11 1.53876e-11 9.83864e-08 2.14978e-11 4.09757e-08 -6.02451e-12)
(1.73367e-12 -1.11424e-12 6.91023e-08 4.57564e-12 4.23167e-08 -6.30931e-12)
(1.57942e-11 -3.6389e-12 4.61799e-08 -1.02401e-11 3.87348e-08 -5.55409e-12)
(3.05651e-11 5.07584e-12 4.63826e-08 -3.6864e-11 -3.89044e-08 6.29887e-12)
(5.25964e-11 2.86591e-11 6.9384e-08 -5.99461e-11 -4.24864e-08 7.34973e-12)
(5.86199e-11 6.27873e-11 9.87101e-08 -6.5332e-11 -4.11051e-08 6.71204e-12)
(4.54291e-11 9.65011e-11 1.26178e-07 -5.00407e-11 -3.05323e-08 4.61159e-12)
(1.51243e-11 1.09893e-10 1.42865e-07 -1.60465e-11 -1.13433e-08 9.22287e-13)
(-1.60161e-11 9.83359e-11 1.42854e-07 1.8988e-11 1.13435e-08 -2.97188e-12)
(-3.3528e-11 6.8021e-11 1.26161e-07 3.95608e-11 3.05278e-08 -6.03285e-12)
(-3.28182e-11 3.46917e-11 9.87208e-08 4.03013e-11 4.11073e-08 -7.48314e-12)
(-1.89472e-11 1.03628e-11 6.94361e-08 2.61159e-11 4.2515e-08 -7.16871e-12)
(-3.13808e-12 5.65357e-14 4.64613e-08 9.12474e-12 3.89681e-08 -5.98666e-12)
(-2.71932e-12 -6.51462e-13 4.60835e-08 -4.17362e-12 -3.8656e-08 6.89294e-12)
(1.30216e-11 8.17459e-12 6.90333e-08 -2.15071e-11 -4.22772e-08 8.48545e-12)
(2.4227e-11 2.79209e-11 9.83722e-08 -3.28929e-11 -4.09717e-08 8.66595e-12)
(2.38247e-11 5.30958e-11 1.25935e-07 -3.09714e-11 -3.04814e-08 7.14675e-12)
(9.59507e-12 7.18082e-11 1.42784e-07 -1.36808e-11 -1.13449e-08 4.08572e-12)
(-1.19211e-11 7.53626e-11 1.42949e-07 1.12035e-11 1.13435e-08 7.17628e-13)
(-3.10621e-11 6.39914e-11 1.26392e-07 3.30622e-11 3.0577e-08 -2.00008e-12)
(-3.97299e-11 4.20717e-11 9.90117e-08 4.29368e-11 4.1223e-08 -3.20691e-12)
(-3.88345e-11 2.11241e-11 6.97142e-08 4.22284e-11 4.26812e-08 -3.39389e-12)
(-2.7804e-11 4.99581e-12 4.66905e-08 3.06475e-11 3.91582e-08 -2.84356e-12)
(-3.97636e-11 -6.59214e-12 4.57862e-08 3.34833e-11 -3.84086e-08 6.2803e-12)
(-3.82534e-11 -1.81697e-11 6.86537e-08 2.97697e-11 -4.20502e-08 8.48368e-12)
(-2.45893e-11 -2.08494e-11 9.79552e-08 1.41833e-11 -4.08056e-08 1.0406e-11)
(-1.11741e-11 -1.45624e-11 1.25557e-07 5.5004e-13 -3.03982e-08 1.06241e-11)
(-2.39541e-12 3.66874e-12 1.42512e-07 -7.23229e-12 -1.1331e-08 9.62769e-12)
(-5.29809e-12 2.2663e-11 1.42808e-07 -2.44365e-12 1.13262e-08 7.74174e-12)
(-1.89895e-11 3.65357e-11 1.26356e-07 1.33483e-11 3.05643e-08 5.6412e-12)
(-3.41157e-11 3.47851e-11 9.90321e-08 2.98274e-11 4.12294e-08 4.28832e-12)
(-4.7579e-11 2.53161e-11 6.97499e-08 4.47557e-11 4.27021e-08 2.82328e-12)
(-4.44636e-11 8.28363e-12 4.6726e-08 4.24231e-11 3.9187e-08 2.04052e-12)
(-4.08242e-11 -6.32294e-12 4.55417e-08 3.62753e-11 -3.82045e-08 4.54891e-12)
(-4.80511e-11 -2.3189e-11 6.83027e-08 4.11783e-11 -4.1839e-08 6.87275e-12)
(-3.75129e-11 -3.35052e-11 9.75007e-08 2.74378e-11 -4.06217e-08 1.0075e-11)
(-2.30944e-11 -3.61208e-11 1.25048e-07 1.10112e-11 -3.02815e-08 1.20832e-11)
(-8.05015e-12 -2.03425e-11 1.42008e-07 -5.26225e-12 -1.12967e-08 1.33124e-11)
(-4.7732e-12 3.12736e-12 1.42356e-07 -8.35913e-12 1.12864e-08 1.31323e-11)
(-1.67601e-11 2.65833e-11 1.25975e-07 5.07407e-12 3.04707e-08 1.1686e-11)
(-3.44048e-11 3.24622e-11 9.87232e-08 2.43601e-11 4.11013e-08 1.00447e-11)
(-5.40911e-11 2.77146e-11 6.951e-08 4.6755e-11 4.25565e-08 7.33608e-12)
(-5.30711e-11 9.53938e-12 4.65517e-08 4.76729e-11 3.90405e-08 5.39819e-12)
(8.31978e-12 2.18701e-12 4.53829e-08 -1.07712e-11 -3.80709e-08 2.45137e-12)
(7.84226e-12 5.47507e-12 6.8042e-08 -1.21161e-11 -4.16803e-08 4.27389e-12)
(1.07219e-11 1.49459e-11 9.71062e-08 -1.79874e-11 -4.04591e-08 7.26552e-12)
(8.57066e-12 2.7322e-11 1.24533e-07 -1.86095e-11 -3.01591e-08 1.00389e-11)
(9.33729e-13 4.43504e-11 1.41415e-07 -1.32372e-11 -1.12517e-08 1.23035e-11)
(-1.52487e-11 5.80165e-11 1.41748e-07 2.01647e-12 1.1237e-08 1.32323e-11)
(-3.80944e-11 6.44788e-11 1.25413e-07 2.58328e-11 3.03348e-08 1.22617e-11)
(-5.6449e-11 5.24878e-11 9.82503e-08 4.5832e-11 4.09055e-08 1.0617e-11)
(-7.10148e-11 3.53174e-11 6.9147e-08 6.35457e-11 4.23355e-08 7.46914e-12)
(-6.11272e-11 1.00707e-11 4.62924e-08 5.58351e-11 3.8823e-08 5.29214e-12)
(8.19631e-11 1.43726e-11 4.53037e-08 -8.28307e-11 -3.80035e-08 8.67568e-13)
(1.0127e-10 5.32133e-11 6.78952e-08 -1.03091e-10 -4.1589e-08 1.82135e-12)
(9.60747e-11 9.98689e-11 9.68514e-08 -9.92173e-11 -4.03512e-08 3.14264e-12)
(6.90734e-11 1.45125e-10 1.24158e-07 -7.44074e-11 -3.00666e-08 5.33403e-12)
(2.11053e-11 1.68558e-10 1.40942e-07 -2.80787e-11 -1.12127e-08 6.97344e-12)
(-3.18262e-11 1.65067e-10 1.41238e-07 2.37868e-11 1.11976e-08 8.03943e-12)
(-7.51615e-11 1.37607e-10 1.24935e-07 6.78392e-11 3.02201e-08 7.32235e-12)
(-9.43811e-11 9.03085e-11 9.78611e-08 8.81639e-11 4.07439e-08 6.21715e-12)
(-9.7281e-11 4.82991e-11 6.88672e-08 9.36074e-11 4.21644e-08 3.6736e-12)
(-7.14351e-11 1.09009e-11 4.61061e-08 6.91397e-11 3.86663e-08 2.29543e-12)
(1.36057e-10 2.29578e-11 4.52709e-08 -1.36199e-10 -3.79753e-08 1.42361e-13)
(1.75342e-10 9.08752e-11 6.78421e-08 -1.75642e-10 -4.15544e-08 2.99554e-13)
(1.65521e-10 1.6825e-10 9.67561e-08 -1.65055e-10 -4.03085e-08 -4.65965e-13)
(1.2062e-10 2.433e-10 1.24001e-07 -1.21002e-10 -3.00253e-08 3.82413e-13)
(3.98209e-11 2.74031e-10 1.40733e-07 -4.02657e-11 -1.11929e-08 4.44815e-13)
(-4.42294e-11 2.57144e-10 1.41009e-07 4.32601e-11 1.11814e-08 9.69312e-13)
(-1.05313e-10 2.0075e-10 1.24735e-07 1.04922e-10 3.01721e-08 3.90761e-13)
(-1.2557e-10 1.23014e-10 9.7723e-08 1.25377e-10 4.06857e-08 1.92626e-13)
(-1.18553e-10 5.94638e-11 6.8797e-08 1.197e-10 4.212e-08 -1.14705e-12)
(-7.95449e-11 1.17983e-11 4.60818e-08 8.08228e-11 3.86447e-08 -1.27793e-12)
(1.46428e-10 2.42758e-11 4.5255e-08 -1.4607e-10 -3.79624e-08 -3.57275e-13)
(1.93395e-10 9.97083e-11 6.78444e-08 -1.92667e-10 -4.15549e-08 -7.28487e-13)
(1.82464e-10 1.83604e-10 9.6781e-08 -1.79534e-10 -4.03169e-08 -2.92936e-12)
(1.34997e-10 2.67164e-10 1.2404e-07 -1.31758e-10 -3.00319e-08 -3.23826e-12)
(4.67067e-11 2.99944e-10 1.40783e-07 -4.22444e-11 -1.11942e-08 -4.46231e-12)
(-4.48375e-11 2.79795e-10 1.41073e-07 4.92704e-11 1.11883e-08 -4.43298e-12)
(-1.10088e-10 2.15602e-10 1.24821e-07 1.14841e-10 3.01932e-08 -4.75279e-12)
(-1.3042e-10 1.30158e-10 9.78308e-08 1.34452e-10 4.07295e-08 -4.03166e-12)
(-1.20718e-10 6.14262e-11 6.89167e-08 1.24959e-10 4.21916e-08 -4.24157e-12)
(-7.88818e-11 1.18951e-11 4.61951e-08 8.22616e-11 3.87385e-08 -3.37977e-12)
(1.22519e-10 2.039e-11 4.52711e-08 -1.20062e-10 -3.79772e-08 -2.45642e-12)
(1.58963e-10 8.16979e-11 6.7902e-08 -1.55623e-10 -4.15901e-08 -3.34021e-12)
(1.44677e-10 1.44065e-10 9.68966e-08 -1.38668e-10 -4.0364e-08 -6.00946e-12)
(1.0632e-10 2.06377e-10 1.24213e-07 -9.97057e-11 -3.00717e-08 -6.61451e-12)
(3.77366e-11 2.27151e-10 1.41003e-07 -2.98534e-11 -1.12094e-08 -7.88321e-12)
(-3.11347e-11 2.09123e-10 1.41318e-07 3.87285e-11 1.12097e-08 -7.59382e-12)
(-7.9093e-11 1.59107e-10 1.25069e-07 8.63227e-11 3.02545e-08 -7.22974e-12)
(-9.32773e-11 9.48378e-11 9.80621e-08 9.90397e-11 4.08258e-08 -5.7624e-12)
(-8.60001e-11 4.44987e-11 6.91184e-08 9.11362e-11 4.23145e-08 -5.13613e-12)
(-5.44378e-11 8.37687e-12 4.63592e-08 5.81937e-11 3.88755e-08 -3.75596e-12)
(8.67375e-11 1.51906e-11 4.54353e-08 -7.84396e-11 -3.81151e-08 -8.29788e-12)
(9.53671e-11 4.86213e-11 6.81351e-08 -8.49985e-11 -4.17307e-08 -1.03686e-11)
(6.8485e-11 6.53356e-11 9.71976e-08 -5.51423e-11 -4.04861e-08 -1.33426e-11)
(4.24213e-11 7.50718e-11 1.24565e-07 -2.8799e-11 -3.0153e-08 -1.36223e-11)
(1.40527e-11 5.97036e-11 1.41379e-07 -3.69586e-13 -1.12354e-08 -1.36832e-11)
(-1.54673e-12 3.69534e-11 1.41686e-07 1.35825e-11 1.12422e-08 -1.20358e-11)
(-3.30079e-12 1.36003e-11 1.25402e-07 1.32803e-11 3.03375e-08 -9.97953e-12)
(3.64515e-12 -9.2793e-13 9.83377e-08 3.78017e-12 4.09421e-08 -7.42532e-12)
(1.04265e-11 -4.34012e-12 6.93355e-08 -5.00599e-12 4.24484e-08 -5.42052e-12)
(1.67482e-11 -2.92478e-12 4.65187e-08 -1.32767e-11 3.90099e-08 -3.47155e-12)
(4.60098e-11 9.34033e-12 4.5944e-08 -2.82139e-11 -3.85388e-08 -1.77959e-11)
(1.60361e-11 6.88608e-12 6.878e-08 6.05737e-12 -4.21175e-08 -2.20934e-11)
(-3.13163e-11 -3.86372e-11 9.7938e-08 5.74142e-11 -4.07847e-08 -2.60979e-11)
(-4.49363e-11 -1.05441e-10 1.2533e-07 7.11866e-11 -3.0329e-08 -2.62503e-11)
(-1.98616e-11 -1.79966e-10 1.42101e-07 4.43542e-11 -1.12851e-08 -2.44926e-11)
(4.1892e-11 -2.18975e-10 1.4231e-07 -2.14435e-11 1.12974e-08 -2.04485e-11)
(1.12795e-10 -2.11234e-10 1.25897e-07 -9.76361e-11 3.04615e-08 -1.5159e-11)
(1.56652e-10 -1.53367e-10 9.86967e-08 -1.46188e-10 4.10943e-08 -1.04642e-11)
(1.67854e-10 -8.49207e-11 6.9574e-08 -1.62205e-10 4.25968e-08 -5.64843e-12)
(1.33703e-10 -2.18898e-11 4.66587e-08 -1.30975e-10 3.91301e-08 -2.7286e-12)
(-5.9114e-12 8.2408e-13 4.69208e-08 3.30563e-11 -3.9351e-08 -2.71449e-11)
(-7.18161e-11 -4.02948e-11 7.00026e-08 1.05899e-10 -4.28509e-08 -3.40825e-11)
(-1.34131e-10 -1.47455e-10 9.93267e-08 1.73841e-10 -4.13457e-08 -3.97104e-11)
(-1.32008e-10 -2.88805e-10 1.26739e-07 1.72388e-10 -3.06541e-08 -4.03807e-11)
(-5.23352e-11 -4.19731e-10 1.43382e-07 8.92161e-11 -1.13745e-08 -3.68809e-11)
(8.60859e-11 -4.73651e-10 1.43354e-07 -5.61e-11 1.1389e-08 -2.99859e-11)
(2.28515e-10 -4.34717e-10 1.26654e-07 -2.08053e-10 3.06503e-08 -2.0462e-11)
(3.07274e-10 -3.03589e-10 9.91714e-08 -2.94408e-10 4.12965e-08 -1.28655e-11)
(3.22375e-10 -1.64322e-10 6.98164e-08 -3.17861e-10 4.27495e-08 -4.514e-12)
(2.43711e-10 -3.95416e-11 4.6741e-08 -2.42951e-10 3.92045e-08 -7.60501e-13)
(-6.83347e-11 -1.0896e-11 4.82554e-08 9.86212e-11 -4.04611e-08 -3.02865e-11)
(-1.50436e-10 -8.33564e-11 7.16862e-08 1.89189e-10 -4.3863e-08 -3.87534e-11)
(-2.06018e-10 -2.2492e-10 1.01263e-07 2.51344e-10 -4.21307e-08 -4.53259e-11)
(-1.83537e-10 -4.00768e-10 1.28715e-07 2.30393e-10 -3.11123e-08 -4.68562e-11)
(-6.79716e-11 -5.47518e-10 1.45159e-07 1.10296e-10 -1.14995e-08 -4.23242e-11)
(1.08534e-10 -5.96087e-10 1.44747e-07 -7.50416e-11 1.1512e-08 -3.34923e-11)
(2.79774e-10 -5.32952e-10 1.27577e-07 -2.58849e-10 3.08834e-08 -2.09251e-11)
(3.66818e-10 -3.63255e-10 9.96563e-08 -3.55393e-10 4.15067e-08 -1.14257e-11)
(3.79042e-10 -1.93891e-10 6.99643e-08 -3.77927e-10 4.28476e-08 -1.11572e-12)
(2.74924e-10 -4.41675e-11 4.66955e-08 -2.77297e-10 3.9174e-08 2.37315e-12)
(-1.22775e-10 -2.25696e-11 4.95591e-08 1.45102e-10 -4.15464e-08 -2.23269e-11)
(-1.88084e-10 -1.04723e-10 7.33608e-08 2.17935e-10 -4.48728e-08 -2.9851e-11)
(-2.08472e-10 -2.29142e-10 1.03231e-07 2.44113e-10 -4.29322e-08 -3.56411e-11)
(-1.66893e-10 -3.70447e-10 1.30751e-07 2.05061e-10 -3.15868e-08 -3.81688e-11)
(-5.49149e-11 -4.69954e-10 1.46978e-07 8.93089e-11 -1.16271e-08 -3.4394e-11)
(9.16993e-11 -4.87609e-10 1.46116e-07 -6.51615e-11 1.16358e-08 -2.65378e-11)
(2.22557e-10 -4.20934e-10 1.28392e-07 -2.07718e-10 3.10937e-08 -1.48385e-11)
(2.8077e-10 -2.77742e-10 9.9974e-08 -2.74438e-10 4.16511e-08 -6.33266e-12)
(2.85136e-10 -1.4636e-10 6.9933e-08 -2.87775e-10 4.28384e-08 2.63903e-12)
(1.95022e-10 -3.08132e-11 4.65033e-08 -1.99764e-10 3.9021e-08 4.74237e-12)
(-1.42236e-10 -2.84883e-11 5.02897e-08 1.45473e-10 -4.21568e-08 -3.23785e-12)
(-1.58794e-10 -8.93484e-11 7.43592e-08 1.65652e-10 -4.54803e-08 -6.8577e-12)
(-1.25152e-10 -1.40663e-10 1.04487e-07 1.34943e-10 -4.34491e-08 -9.79149e-12)
(-7.56897e-11 -1.79558e-10 1.32118e-07 8.88816e-11 -3.19091e-08 -1.3192e-11)
(-1.41309e-11 -1.78062e-10 1.48218e-07 2.66284e-11 -1.17148e-08 -1.24975e-11)
(3.43646e-11 -1.50412e-10 1.47017e-07 -2.4893e-11 1.17194e-08 -9.47162e-12)
(6.1594e-11 -1.09268e-10 1.28856e-07 -5.7931e-11 3.12181e-08 -3.66297e-12)
(6.20912e-11 -6.00501e-11 1.00055e-07 -6.25132e-11 4.16966e-08 4.22055e-13)
(5.83057e-11 -3.05402e-11 6.97704e-08 -6.29818e-11 4.27479e-08 4.67607e-12)
(2.33379e-11 -2.8692e-12 4.6259e-08 -2.81237e-11 3.88223e-08 4.7858e-12)
(-1.01542e-10 -2.28373e-11 5.00239e-08 8.16916e-11 -4.19398e-08 1.98508e-11)
(-5.47416e-11 -3.25264e-11 7.41341e-08 3.2482e-11 -4.53549e-08 2.22596e-11)
(2.80056e-11 2.43205e-11 1.04386e-07 -5.18872e-11 -4.3419e-08 2.38815e-11)
(6.57927e-11 1.23212e-10 1.3216e-07 -8.65491e-11 -3.19271e-08 2.07564e-11)
(4.15585e-11 2.44209e-10 1.48323e-07 -5.89629e-11 -1.17251e-08 1.74043e-11)
(-4.71162e-11 3.14153e-10 1.47075e-07 3.36745e-11 1.17272e-08 1.34417e-11)
(-1.5466e-10 3.07257e-10 1.28797e-07 1.44578e-10 3.12098e-08 1.00824e-11)
(-2.23153e-10 2.23943e-10 9.98937e-08 2.15533e-10 4.16355e-08 7.61976e-12)
(-2.34856e-10 1.19752e-10 6.95661e-08 2.2986e-10 4.26271e-08 4.99633e-12)
(-1.91031e-10 3.18706e-11 4.60795e-08 1.88041e-10 3.86734e-08 2.98975e-12)
(-1.07352e-12 -4.61807e-12 4.87803e-08 -3.46304e-11 -4.09082e-08 3.57039e-11)
(9.61547e-11 5.05503e-11 7.26483e-08 -1.40156e-10 -4.4469e-08 4.4001e-11)
(1.96711e-10 2.07692e-10 1.02805e-07 -2.47256e-10 -4.27864e-08 5.05458e-11)
(2.03097e-10 4.23349e-10 1.30684e-07 -2.53027e-10 -3.15918e-08 4.99309e-11)
(8.89326e-11 6.31568e-10 1.47088e-07 -1.33268e-10 -1.16417e-08 4.43353e-11)
(-1.22217e-10 7.23082e-10 1.46137e-07 8.72172e-11 1.1645e-08 3.49994e-11)
(-3.43375e-10 6.66399e-10 1.28148e-07 3.2017e-10 3.10499e-08 2.32059e-11)
(-4.67002e-10 4.65694e-10 9.94938e-08 4.52315e-10 4.14677e-08 1.46866e-11)
(-4.87576e-10 2.49528e-10 6.93667e-08 4.82392e-10 4.25034e-08 5.18366e-12)
(-3.7242e-10 6.11944e-11 4.60176e-08 3.71072e-10 3.8618e-08 1.34798e-12)
(1.1552e-10 1.81674e-11 4.70657e-08 -1.5265e-10 -3.94812e-08 3.71293e-11)
(2.29481e-10 1.24376e-10 7.04779e-08 -2.77918e-10 -4.31634e-08 4.84366e-11)
(3.0689e-10 3.29018e-10 1.00311e-07 -3.64791e-10 -4.17745e-08 5.79014e-11)
(2.74632e-10 5.87158e-10 1.28156e-07 -3.35836e-10 -3.10052e-08 6.1204e-11)
(1.05631e-10 8.07976e-10 1.44838e-07 -1.62191e-10 -1.1483e-08 5.65604e-11)
(-1.57389e-10 8.87783e-10 1.44388e-07 1.11068e-10 1.1492e-08 4.63204e-11)
(-4.1782e-10 8.01032e-10 1.26984e-07 3.87044e-10 3.07589e-08 3.07761e-11)
(-5.55903e-10 5.51712e-10 9.88557e-08 5.36492e-10 4.1195e-08 1.94103e-11)
(-5.82696e-10 2.98325e-10 6.91285e-08 5.76896e-10 4.23516e-08 5.79975e-12)
(-4.35216e-10 7.10131e-11 4.60107e-08 4.34136e-10 3.86048e-08 1.08007e-12)
(1.81457e-10 3.25099e-11 4.55539e-08 -2.08108e-10 -3.82193e-08 2.66507e-11)
(2.75211e-10 1.50878e-10 6.84693e-08 -3.12276e-10 -4.19466e-08 3.70646e-11)
(3.04965e-10 3.30749e-10 9.78571e-08 -3.50927e-10 -4.07695e-08 4.59614e-11)
(2.47057e-10 5.40897e-10 1.25506e-07 -2.99015e-10 -3.03817e-08 5.19577e-11)
(8.33345e-11 6.95548e-10 1.42351e-07 -1.33288e-10 -1.13022e-08 4.99539e-11)
(-1.37568e-10 7.33358e-10 1.42376e-07 9.49635e-11 1.13179e-08 4.26041e-11)
(-3.42755e-10 6.45719e-10 1.25613e-07 3.13864e-10 3.04158e-08 2.88908e-11)
(-4.43457e-10 4.36249e-10 9.8095e-08 4.24776e-10 4.08686e-08 1.86809e-11)
(-4.66179e-10 2.38074e-10 6.8838e-08 4.60692e-10 4.21662e-08 5.48764e-12)
(-3.38109e-10 5.43318e-11 4.59839e-08 3.36792e-10 3.85739e-08 1.31617e-12)
(1.64044e-10 3.12641e-11 4.46231e-08 -1.76027e-10 -3.74398e-08 1.19834e-11)
(2.14762e-10 1.19439e-10 6.71598e-08 -2.33181e-10 -4.1148e-08 1.84196e-11)
(1.99747e-10 2.20922e-10 9.61517e-08 -2.23189e-10 -4.00655e-08 2.3442e-11)
(1.40995e-10 3.22584e-10 1.23546e-07 -1.69565e-10 -2.99164e-08 2.85699e-11)
(3.57282e-11 3.67663e-10 1.40417e-07 -6.37756e-11 -1.11601e-08 2.80474e-11)
(-7.42895e-11 3.50068e-10 1.40752e-07 5.01196e-11 1.11763e-08 2.41699e-11)
(-1.5705e-10 2.82519e-10 1.24479e-07 1.41487e-10 3.01293e-08 1.5563e-11)
(-1.82268e-10 1.74457e-10 9.74545e-08 1.73202e-10 4.05911e-08 9.06618e-12)
(-1.83997e-10 9.29056e-11 6.85816e-08 1.83351e-10 4.20012e-08 6.46617e-13)
(-1.12827e-10 1.63375e-11 4.59372e-08 1.14183e-10 3.85276e-08 -1.35598e-12)
(9.55632e-11 1.91921e-11 4.43368e-08 -9.74178e-11 -3.71986e-08 1.85463e-12)
(1.08967e-10 6.21192e-11 6.67134e-08 -1.11806e-10 -4.08727e-08 2.83939e-12)
(7.24978e-11 8.41634e-11 9.55111e-08 -7.41776e-11 -3.97983e-08 1.67981e-12)
(2.95674e-11 8.17959e-11 1.22754e-07 -3.13033e-11 -2.97271e-08 1.7359e-12)
(-6.42646e-12 3.06571e-11 1.39615e-07 6.91322e-12 -1.11027e-08 -4.86758e-13)
(-4.08711e-12 -3.35577e-11 1.40108e-07 7.20667e-12 1.11152e-08 -3.11956e-12)
(3.48603e-11 -8.13609e-11 1.24107e-07 -2.8181e-11 3.00275e-08 -6.67933e-12)
(8.49651e-11 -8.9046e-11 9.73553e-08 -7.58707e-11 4.05382e-08 -9.09443e-12)
(1.16455e-10 -6.07571e-11 6.8671e-08 -1.05783e-10 4.20473e-08 -1.06725e-11)
(1.28737e-10 -2.43302e-11 4.60899e-08 -1.19402e-10 3.86513e-08 -9.33563e-12)
(1.1805e-12 2.43998e-12 4.43156e-08 4.27582e-12 -3.71829e-08 -5.45632e-12)