/*--------------------------------*- C++ -*----------------------------------*\
| =========                 |                                                 |
| \\      /  F ield         | OpenFOAM: The Open Source CFD Toolbox           |
|  \\    /   O peration     | Version:  2406                                  |
|   \\  /    A nd           | Website:  www.openfoam.com                      |
|    \\/     M anipulation  |                                                 |
\*---------------------------------------------------------------------------*/
FoamFile
{
    version     2.0;
    format      ascii;
    arch        "LSB;label=32;scalar=64";
    class       volSymmTensorField;
    location    "1";
    object      turbulenceProperties:devReff;
}
// * * * * * * * * * * * * * * * * * * * * * * * * * * * * * * * * * * * * * //

dimensions      [0 2 -2 0 0 0 0];

internalField   nonuniform List<symmTensor> 
25000
(
(0.0299547 -0.0224534 -0.0712248 0.029956 -0.0712204 -0.0599108)
(0.0517345 -0.0117214 -0.0452898 0.0323425 -0.064623 -0.084077)
(0.0592715 -0.00642979 -0.0276479 0.0382213 -0.0555014 -0.0974929)
(0.0629757 -0.0029371 -0.0148593 0.0419239 -0.0491095 -0.1049)
(0.0645709 -0.000868674 -0.00467304 0.043712 -0.0459711 -0.108283)
(0.0645712 0.000869492 0.00466494 0.0437123 -0.0459712 -0.108284)
(0.0629768 0.00293778 0.0148513 0.0419248 -0.0491096 -0.104902)
(0.0592734 0.00643005 0.0276404 0.0382229 -0.0555016 -0.0974963)
(0.0517376 0.011721 0.0452828 0.0323446 -0.0646233 -0.0840823)
(0.0299592 0.0224522 0.0712192 0.0299584 -0.0712211 -0.0599176)
(0.0323412 -0.0117217 -0.0646269 0.0517355 -0.0452846 -0.0840767)
(0.0533612 -0.00548257 -0.0363912 0.0533625 -0.0363866 -0.106724)
(0.0599932 -0.00298865 -0.01997 0.0562606 -0.0302344 -0.116254)
(0.0628632 -0.00133064 -0.0100358 0.0578622 -0.0263903 -0.120725)
(0.0639857 -0.000367485 -0.00305647 0.0585805 -0.0245569 -0.122566)
(0.063986 0.000368058 0.00304934 0.0585806 -0.0245569 -0.122567)
(0.0628643 0.00133113 0.0100288 0.0578626 -0.0263903 -0.120727)
(0.059995 0.00298895 0.0199632 0.0562612 -0.0302345 -0.116256)
(0.0533641 0.00548251 0.0363849 0.0533635 -0.0363868 -0.106728)
(0.0323453 0.0117209 0.0646216 0.0517371 -0.045285 -0.0840823)
(0.0382198 -0.0064303 -0.0555049 0.0592721 -0.0276426 -0.0974918)
(0.0562591 -0.00298885 -0.0302385 0.059994 -0.0199652 -0.116253)
(0.0618147 -0.00158009 -0.0158083 0.0618156 -0.015804 -0.12363)
(0.0638586 -0.000657212 -0.00756374 0.0628416 -0.013503 -0.1267)
(0.0645098 -0.000165134 -0.0022375 0.0632822 -0.0124673 -0.127792)
(0.0645101 0.000165515 0.00223102 0.0632822 -0.0124673 -0.127792)
(0.0638596 0.000657534 0.00755732 0.0628418 -0.013503 -0.126701)
(0.0618164 0.0015803 0.0158021 0.061816 -0.0158039 -0.123632)
(0.0562619 0.00298884 0.0302327 0.0599945 -0.0199653 -0.116256)
(0.0382237 0.00642981 0.0555001 0.059273 -0.0276428 -0.0974967)
(0.041922 -0.00293777 -0.0491129 0.0629759 -0.0148538 -0.104898)
(0.0578606 -0.00133097 -0.0263942 0.0628637 -0.010031 -0.120724)
(0.0628405 -0.000657338 -0.0135071 0.0638592 -0.00755934 -0.1267)
(0.0644336 -0.000235754 -0.00630323 0.0644342 -0.00629907 -0.128868)
(0.0648108 -4.80716e-05 -0.00183527 0.0646734 -0.00576644 -0.129484)
(0.0648111 4.83209e-05 0.0018292 0.0646734 -0.00576642 -0.129485)
(0.0644346 0.00023596 0.00629719 0.0644342 -0.00629901 -0.128869)
(0.0628423 0.00065747 0.0135012 0.0638593 -0.00755925 -0.126702)
(0.0578633 0.00133096 0.0263887 0.0628639 -0.0100309 -0.120727)
(0.0419258 0.00293743 0.0491082 0.0629765 -0.0148538 -0.104902)
(0.0437097 -0.000869268 -0.0459743 0.0645707 -0.00466752 -0.10828)
(0.0585788 -0.000367846 -0.0245607 0.0639858 -0.00305161 -0.122565)
(0.063281 -0.000165338 -0.0124713 0.06451 -0.00223307 -0.127791)
(0.0646727 -4.8167e-05 -0.00577048 0.064811 -0.00183109 -0.129484)
(0.0649272 -6.25458e-06 -0.00167152 0.0649274 -0.00166745 -0.129855)
(0.0649275 6.38152e-06 0.00166565 0.0649273 -0.00166744 -0.129855)
(0.0646738 4.82751e-05 0.00576465 0.0648109 -0.00183104 -0.129485)
(0.0632828 0.000165414 0.0124656 0.06451 -0.00223298 -0.127793)
(0.0585814 0.000367868 0.0245553 0.0639859 -0.0030515 -0.122567)
(0.0437135 0.000869172 0.0459698 0.0645711 -0.00466741 -0.108285)
(0.0437096 0.00086905 -0.0459743 0.0645706 0.00467035 -0.10828)
(0.0585787 0.000367716 -0.0245606 0.0639857 0.00305417 -0.122564)
(0.063281 0.000165275 -0.0124712 0.0645099 0.00223546 -0.127791)
(0.0646727 4.81578e-05 -0.00577047 0.0648109 0.00183338 -0.129484)
(0.0649272 6.2968e-06 -0.0016715 0.0649273 0.00166971 -0.129854)
(0.0649275 -6.29196e-06 0.00166566 0.0649272 0.00166972 -0.129855)
(0.0646737 -4.81458e-05 0.00576466 0.0648108 0.00183342 -0.129485)
(0.0632827 -0.000165249 0.0124656 0.0645098 0.00223553 -0.127793)
(0.0585814 -0.00036766 0.0245553 0.0639857 0.0030543 -0.122567)
(0.0437133 -0.000868926 0.0459698 0.064571 0.00467058 -0.108284)
(0.0419217 0.00293761 -0.0491128 0.0629756 0.0148565 -0.104897)
(0.0578605 0.00133087 -0.0263941 0.0628634 0.0100335 -0.120724)
(0.0628405 0.000657297 -0.0135071 0.0638588 0.00756171 -0.126699)
(0.0644335 0.00023576 -0.00630318 0.0644338 0.00630135 -0.128867)
(0.0648108 4.81215e-05 -0.00183522 0.064673 0.00576869 -0.129484)
(0.0648111 -4.8235e-05 0.00182924 0.064673 0.00576869 -0.129484)
(0.0644345 -0.000235844 0.00629723 0.0644338 0.00630138 -0.128868)
(0.0628422 -0.000657323 0.0135012 0.0638589 0.00756178 -0.126701)
(0.0578632 -0.00133078 0.0263887 0.0628635 0.0100337 -0.120727)
(0.0419254 -0.00293724 0.0491082 0.0629761 0.0148569 -0.104901)
(0.0382192 0.00643028 -0.0555048 0.0592714 0.0276452 -0.0974906)
(0.0562589 0.00298882 -0.0302384 0.0599933 0.0199677 -0.116252)
(0.0618145 0.0015801 -0.0158082 0.0618149 0.0158063 -0.123629)
(0.0638585 0.000657249 -0.00756365 0.0628409 0.0135053 -0.126699)
(0.0645098 0.000165196 -0.00223742 0.0632815 0.0124695 -0.127791)
(0.0645101 -0.000165435 0.0022311 0.0632815 0.0124695 -0.127792)
(0.0638595 -0.000657439 0.00755738 0.0628411 0.0135053 -0.126701)
(0.0618162 -0.00158019 0.0158021 0.0618152 0.0158064 -0.123631)
(0.0562616 -0.00298872 0.0302326 0.0599938 0.0199679 -0.116255)
(0.038223 -0.00642973 0.0555 0.0592723 0.0276457 -0.0974953)
(0.0323405 0.0117218 -0.0646267 0.0517344 0.045287 -0.0840749)
(0.0533609 0.00548263 -0.0363909 0.0533615 0.0363889 -0.106722)
(0.059993 0.00298872 -0.0199698 0.0562596 0.0302365 -0.116253)
(0.0628631 0.00133073 -0.0100357 0.0578612 0.0263924 -0.120724)
(0.0639856 0.000367568 -0.00305634 0.0585795 0.024559 -0.122565)
(0.0639859 -0.000367984 0.00304945 0.0585796 0.024559 -0.122566)
(0.0628641 -0.00133108 0.0100288 0.0578616 0.0263925 -0.120726)
(0.0599947 -0.00298891 0.0199632 0.0562602 0.0302368 -0.116255)
(0.0533637 -0.00548248 0.0363847 0.0533624 0.0363893 -0.106726)
(0.0323443 -0.011721 0.0646215 0.0517359 0.0452878 -0.0840803)
(0.0299539 0.0224539 -0.0712244 0.0299545 0.0712225 -0.0599084)
(0.051734 0.0117217 -0.0452894 0.032341 0.0646249 -0.084075)
(0.0592711 0.00643005 -0.0276476 0.0382199 0.0555033 -0.097491)
(0.0629754 0.00293732 -0.014859 0.0419225 0.0491113 -0.104898)
(0.0645706 0.000868805 -0.00467283 0.0437107 0.0459729 -0.108281)
(0.0645709 -0.000869446 0.00466507 0.043711 0.0459729 -0.108282)
(0.0629764 -0.00293784 0.0148514 0.0419235 0.0491115 -0.1049)
(0.0592728 -0.0064302 0.0276403 0.0382215 0.0555035 -0.0974943)
(0.0517369 -0.0117213 0.0452826 0.0323431 0.0646254 -0.08408)
(0.029958 -0.0224527 0.0712189 0.0299569 0.0712233 -0.0599149)
(-0.000353579 -0.0176344 -0.109341 -0.000348515 -0.109333 0.000702094)
(0.0130309 -0.0158512 -0.0753332 0.000862615 -0.107228 -0.0138935)
(0.0225293 -0.0121457 -0.0477263 0.00293016 -0.0951938 -0.0254595)
(0.029798 -0.00758466 -0.0260372 0.0044657 -0.085211 -0.0342637)
(0.0334965 -0.00254143 -0.00823185 0.0052933 -0.0798868 -0.0387898)
(0.0334982 0.00254664 0.0082115 0.00529516 -0.0798862 -0.0387934)
(0.0298034 0.0075891 0.0260171 0.00447117 -0.0852092 -0.0342746)
(0.0225384 0.0121483 0.0477068 0.00293873 -0.0951911 -0.0254772)
(0.0130451 0.0158514 0.0753148 0.0008734 -0.107225 -0.0139185)
(-0.000334917 0.017631 0.109326 -0.000337091 -0.10933 0.000672008)
(0.000858127 -0.0158523 -0.107236 0.0130341 -0.0753223 -0.0138923)
(0.016792 -0.0142711 -0.0637069 0.0167962 -0.0636968 -0.0335882)
(0.0286892 -0.0106803 -0.0347625 0.0200795 -0.0526362 -0.0487687)
(0.0365366 -0.00647762 -0.0168941 0.022147 -0.044419 -0.0586836)
(0.0401449 -0.00215415 -0.00500754 0.0231497 -0.0401293 -0.0632946)
(0.0401465 0.00215823 0.00498991 0.0231507 -0.0401288 -0.0632972)
(0.0365415 0.00648123 0.0168764 0.0221503 -0.0444177 -0.0586919)
(0.0286981 0.0106829 0.034745 0.0200851 -0.0526342 -0.0487832)
(0.0168057 0.0142723 0.0636899 0.0168038 -0.0636943 -0.0336096)
(0.000875295 0.0158508 0.107221 0.0130436 -0.0753198 -0.0139189)
(0.00292436 -0.0121479 -0.0952014 0.0225299 -0.0477145 -0.0254543)
(0.0200743 -0.0106813 -0.0526457 0.0286912 -0.0347517 -0.0487655)
(0.0326101 -0.00764381 -0.0257268 0.0326129 -0.0257168 -0.065223)
(0.0398852 -0.00449266 -0.0110694 0.0346355 -0.0198721 -0.0745207)
(0.0430419 -0.00147875 -0.00301405 0.0355712 -0.0170091 -0.0786132)
(0.0430433 0.00148169 0.00299869 0.0355719 -0.0170088 -0.0786152)
(0.0398896 0.00449532 0.0110539 0.0346376 -0.0198712 -0.0745272)
(0.0326182 0.00764584 0.0257111 0.0326168 -0.0257154 -0.0652349)
(0.0200875 0.0106824 0.0526301 0.028697 -0.0347498 -0.0487845)
(0.00294126 0.0121471 0.0951879 0.0225379 -0.0477122 -0.0254792)
(0.00445799 -0.00758786 -0.0852188 0.0297969 -0.0260245 -0.0342549)
(0.0221406 -0.00647942 -0.0444283 0.0365369 -0.0168827 -0.0586775)
(0.0346317 -0.00449346 -0.0198815 0.0398864 -0.0110592 -0.0745181)
(0.0415432 -0.00260218 -0.00758794 0.0415451 -0.0075785 -0.0830883)
(0.0445168 -0.000855569 -0.00184891 0.0423573 -0.0059208 -0.0868741)
(0.0445181 0.000857485 0.00183508 0.0423577 -0.00592061 -0.0868758)
(0.0415474 0.00260396 0.0075739 0.0415463 -0.00757795 -0.0830937)
(0.0346394 0.00449488 0.0198672 0.0398888 -0.0110584 -0.0745282)
(0.0221532 0.00648024 0.0444138 0.0365411 -0.0168815 -0.0586943)
(0.0044746 0.00758735 0.085206 0.0298035 -0.0260229 -0.0342781)
(0.00528326 -0.00254464 -0.0798952 0.0334934 -0.00821852 -0.0387767)
(0.023142 -0.00215636 -0.0401387 0.0401435 -0.00499581 -0.0632855)
(0.0355666 -0.00148012 -0.0170185 0.0430415 -0.00300367 -0.0786081)
(0.0423548 -0.000856218 -0.00592999 0.044517 -0.00183943 -0.0868718)
(0.0452762 -0.000282447 -0.00129847 0.0452768 -0.00128941 -0.0905529)
(0.0452775 0.0002834 0.00128543 0.045277 -0.00128931 -0.0905545)
(0.0423589 0.00085714 0.00591669 0.0445179 -0.00183916 -0.0868768)
(0.035574 0.00148094 0.0170049 0.0430433 -0.00300323 -0.0786173)
(0.0231542 0.002157 0.0401249 0.0401468 -0.00499516 -0.063301)
(0.00529966 0.00254486 0.0798828 0.0334992 -0.00821765 -0.0387989)
(0.00528273 0.00254387 -0.0798953 0.0334928 0.00822533 -0.0387755)
(0.0231417 0.0021559 -0.0401388 0.0401429 0.00500203 -0.0632846)
(0.0355663 0.00147993 -0.0170186 0.043041 0.00300936 -0.0786074)
(0.0423547 0.000856288 -0.00593001 0.0445165 0.00184475 -0.0868712)
(0.045276 0.000282797 -0.00129846 0.0452763 0.00129457 -0.0905523)
(0.0452773 -0.000282761 0.00128548 0.0452766 0.00129455 -0.0905539)
(0.0423587 -0.000856203 0.00591677 0.0445174 0.00184473 -0.0868761)
(0.0355737 -0.00147971 0.017005 0.0430428 0.00300937 -0.0786165)
(0.0231537 -0.00215546 0.040125 0.0401462 0.0050021 -0.0632999)
(0.00529892 -0.00254303 0.079883 0.0334986 0.00822548 -0.0387975)
(0.00445642 0.00758734 -0.0852192 0.0297951 0.0260312 -0.0342515)
(0.0221396 0.00647914 -0.0444286 0.0365352 0.0168889 -0.0586748)
(0.034631 0.00449339 -0.0198817 0.0398849 0.011065 -0.0745158)
(0.0415427 0.00260233 -0.00758799 0.0415436 0.0075839 -0.0830862)
(0.0445164 0.000855955 -0.00184886 0.0423558 0.00592607 -0.0868722)
(0.0445176 -0.000856843 0.00183521 0.0423562 0.00592596 -0.0868738)
(0.0415467 -0.00260306 0.00757413 0.0415448 0.00758361 -0.0830915)
(0.0346384 -0.00449374 0.0198675 0.0398872 0.0110646 -0.0745256)
(0.0221518 -0.00647886 0.0444143 0.0365392 0.0168884 -0.058691)
(0.00447239 -0.00758582 0.0852066 0.0298015 0.0260307 -0.0342739)
(0.00292194 0.012148 -0.0952021 0.0225268 0.047721 -0.0254487)
(0.0200726 0.0106813 -0.0526461 0.0286881 0.0347578 -0.0487606)
(0.0326087 0.00764398 -0.025727 0.03261 0.0257226 -0.0652187)
(0.0398842 0.00449298 -0.0110695 0.0346327 0.0198776 -0.0745169)
(0.0430411 0.00147921 -0.00301396 0.0355684 0.0170145 -0.0786095)
(0.0430424 -0.00148106 0.00299893 0.035569 0.0170143 -0.0786114)
(0.0398884 -0.00449453 0.0110543 0.0346347 0.019877 -0.0745231)
(0.0326164 -0.00764492 0.0257116 0.0326136 0.0257217 -0.0652301)
(0.0200851 -0.0106813 0.0526309 0.0286936 0.0347567 -0.0487787)
(0.0029378 -0.0121462 0.0951889 0.0225345 0.0477198 -0.0254723)
(0.000855122 0.0158529 -0.107237 0.0130295 0.0753284 -0.0138846)
(0.0167897 0.0142716 -0.0637073 0.0167915 0.0637027 -0.0335812)
(0.0286871 0.0106808 -0.0347627 0.0200749 0.0526419 -0.048762)
(0.0365348 0.00647819 -0.0168941 0.0221425 0.0444246 -0.0586773)
(0.0401433 0.00215473 -0.00500736 0.0231451 0.0401348 -0.0632885)
(0.0401448 -0.00215764 0.00499028 0.0231461 0.0401345 -0.0632909)
(0.0365395 -0.00648065 0.016877 0.0221455 0.0444236 -0.058685)
(0.0286954 -0.0106823 0.0347458 0.0200801 0.0526404 -0.0487755)
(0.0168025 -0.0142718 0.0636909 0.0167985 0.0637011 -0.033601)
(0.000870919 -0.0158507 0.107223 0.0130382 0.075327 -0.0139091)
(-0.000356495 0.0176361 -0.109342 -0.000354621 0.109338 0.000711115)
(0.0130282 0.0158524 -0.0753335 0.000856856 0.107233 -0.0138851)
(0.0225265 0.0121468 -0.0477265 0.00292435 0.0951988 -0.0254509)
(0.0297954 0.00758566 -0.0260372 0.00445979 0.0852159 -0.0342552)
(0.0334939 0.00254214 -0.00823157 0.00528723 0.0798918 -0.0387811)
(0.0334954 -0.00254622 0.00821203 0.00528894 0.0798913 -0.0387844)
(0.0298002 -0.00758904 0.0260179 0.00446483 0.0852145 -0.0342651)
(0.0225348 -0.0121485 0.0477078 0.00293225 0.0951966 -0.025467)
(0.013041 -0.0158519 0.0753159 0.000866786 0.107231 -0.0139078)
(-0.000339641 -0.0176324 0.109327 -0.000344222 0.109336 0.000683863)
(-0.00823878 -0.0156063 -0.149065 -0.00822713 -0.149044 0.0164659)
(0.00154388 -0.0119008 -0.115991 -0.00932851 -0.159401 0.00778463)
(0.00736738 -0.00904857 -0.0805958 -0.008462 -0.153709 0.00109462)
(0.0120062 -0.00567598 -0.0471132 -0.00775214 -0.146885 -0.0042541)
(0.0145499 -0.00192229 -0.0154767 -0.00736024 -0.142937 -0.0071897)
(0.0145538 0.00193431 0.0154192 -0.00735619 -0.142934 -0.00719759)
(0.0120179 0.0056865 0.047056 -0.00774027 -0.146877 -0.00427763)
(0.00738697 0.00905538 0.0805395 -0.00844355 -0.153695 0.00105658)
(0.00157438 0.0119031 0.115937 -0.00930545 -0.159384 0.00773107)
(-0.00819877 0.015601 0.149019 -0.00820253 -0.149029 0.0164013)
(-0.00933793 -0.0119032 -0.15942 0.00155083 -0.115964 0.0077871)
(0.0020904 -0.00974132 -0.111489 0.00209875 -0.111465 -0.00418915)
(0.00979048 -0.00759774 -0.0713022 0.00392756 -0.103804 -0.013718)
(0.0157368 -0.00479899 -0.0396125 0.00531144 -0.0973305 -0.0210482)
(0.0189162 -0.00163337 -0.0127021 0.00607168 -0.0938023 -0.0249879)
(0.0189201 0.00164362 0.0126537 0.00607456 -0.0938002 -0.0249947)
(0.0157484 0.00480814 0.0395639 0.00531998 -0.097324 -0.0210684)
(0.00980971 0.00760468 0.0712533 0.00394117 -0.103794 -0.0137509)
(0.00211914 0.00974532 0.111441 0.00211629 -0.111451 -0.00423543)
(-0.00930265 0.0119015 0.159375 0.00157258 -0.115948 0.00773007)
(-0.00847382 -0.00905323 -0.153728 0.00736833 -0.0805657 0.00110548)
(0.003917 -0.00759988 -0.103828 0.00979411 -0.0712754 -0.0137111)
(0.0129858 -0.00582637 -0.0643074 0.0129917 -0.0642821 -0.0259775)
(0.0198403 -0.00363101 -0.0347299 0.015329 -0.0594764 -0.0351694)
(0.0234342 -0.00123094 -0.0109506 0.0165674 -0.0569882 -0.0400015)
(0.023438 0.00123902 0.0109077 0.0165697 -0.0569868 -0.0400077)
(0.0198518 0.00363821 0.0346868 0.015336 -0.0594723 -0.0351878)
(0.0130051 0.00583195 0.064264 0.0130029 -0.0642749 -0.0260079)
(0.00394528 0.00760328 0.103784 0.00980866 -0.0712651 -0.0137539)
(-0.00843928 0.00905227 0.153687 0.00738749 -0.0805531 0.00105178)
(-0.007768 -0.00568279 -0.146906 0.0120034 -0.0470797 -0.00423541)
(0.00529771 -0.00480313 -0.0973541 0.0157367 -0.0395833 -0.0210345)
(0.0153202 -0.00363306 -0.0595014 0.0198422 -0.0347028 -0.0351624)
(0.0227399 -0.00224372 -0.0316363 0.0227443 -0.0316103 -0.0454842)
(0.0265158 -0.000758121 -0.0098616 0.0241666 -0.0300399 -0.0506824)
(0.0265195 0.000763668 0.00982216 0.0241683 -0.0300392 -0.0506878)
(0.0227515 0.00224868 0.0315968 0.0227496 -0.0316079 -0.0455011)
(0.0153397 0.00363696 0.0594617 0.0198511 -0.0346986 -0.0351908)
(0.00532575 0.00480551 0.0973141 0.0157486 -0.0395769 -0.0210744)
(-0.0077338 0.00568212 0.146868 0.0120197 -0.0470714 -0.00428585)
(-0.00738116 -0.00192918 -0.14296 0.0145427 -0.01544 -0.00716151)
(0.00605429 -0.00163861 -0.0938275 0.0189117 -0.0126706 -0.024966)
(0.0165553 -0.00123459 -0.0570138 0.0234316 -0.010922 -0.0399869)
(0.0241599 -0.00076 -0.0300659 0.0265154 -0.00983472 -0.0506753)
(0.0279106 -0.000256537 -0.00931719 0.0279122 -0.00929101 -0.0558229)
(0.0279142 0.000259285 0.00927953 0.0279135 -0.00929072 -0.0558277)
(0.0241712 0.000762556 0.0300281 0.0265197 -0.00983373 -0.0506909)
(0.0165749 0.00123679 0.0569759 0.0234391 -0.0109202 -0.040014)
(0.00608213 0.00164028 0.0937894 0.0189221 -0.0126679 -0.0250042)
(-0.00734713 0.0019298 0.142924 0.0145573 -0.0154363 -0.00721015)
(-0.0073822 0.00192819 -0.142961 0.0145413 0.0154589 -0.00715906)
(0.00605351 0.00163796 -0.0938279 0.0189103 0.0126874 -0.0249638)
(0.0165546 0.00123432 -0.057014 0.0234302 0.0109377 -0.0399848)
(0.0241593 0.000760259 -0.030066 0.026514 0.0098498 -0.0506733)
(0.0279101 0.000257477 -0.00931713 0.0279108 0.00930591 -0.055821)
(0.0279137 -0.00025759 0.00927968 0.0279121 0.00930587 -0.0558258)
(0.0241705 -0.000760152 0.0300284 0.0265182 0.00984961 -0.0506887)
(0.0165739 -0.00123384 0.0569764 0.0234376 0.0109373 -0.0400115)
(0.00608101 -0.00163704 0.0937902 0.0189206 0.0126867 -0.0250016)
(-0.0073486 -0.0019265 0.142925 0.0145557 0.015458 -0.00720711)
(-0.00777101 0.00568222 -0.146907 0.0119992 0.0470982 -0.00422817)
(0.00529543 0.0048028 -0.0973554 0.0157325 0.0396 -0.0210279)
(0.015318 0.00363308 -0.0595021 0.0198379 0.0347184 -0.035156)
(0.0227381 0.00224421 -0.0316366 0.0227399 0.0316253 -0.045478)
(0.0265141 0.000759166 -0.00986146 0.0241622 0.0300548 -0.0506763)
(0.0265177 -0.000762019 0.00982267 0.0241639 0.0300544 -0.0506816)
(0.0227493 -0.00224647 0.0315977 0.022745 0.0316239 -0.0454943)
(0.0153369 -0.0036343 0.0594632 0.0198465 0.0347157 -0.0351834)
(0.00532248 -0.00480263 0.0973164 0.0157439 0.0395959 -0.0210664)
(-0.00773812 -0.00567934 0.146871 0.0120149 0.0470931 -0.00427678)
(-0.00847835 0.00905365 -0.15373 0.00736134 0.0805834 0.001117)
(0.00391349 0.00760018 -0.10383 0.00978707 0.0712917 -0.0137006)
(0.0129825 0.00582688 -0.0643085 0.0129845 0.0642974 -0.025967)
(0.0198373 0.00363187 -0.0347303 0.0153216 0.0594913 -0.0351589)
(0.0234313 0.00123214 -0.0109503 0.0165598 0.057003 -0.039991)
(0.0234349 -0.00123746 0.0109087 0.016562 0.0570021 -0.0399969)
(0.0198482 -0.00363633 0.0346886 0.0153282 0.0594883 -0.0351764)
(0.0130006 -0.00582982 0.0642668 0.0129951 0.0642922 -0.0259958)
(0.00394013 -0.00760108 0.103788 0.00980085 0.0712843 -0.013741)
(-0.00844594 -0.00905067 0.153692 0.00737946 0.0805746 0.00106648)
(-0.00934337 0.0119046 -0.159423 0.00154052 0.11598 0.00780285)
(0.00208604 0.00974225 -0.111492 0.0020887 0.111481 -0.00417474)
(0.00978625 0.0075988 -0.0713036 0.00391745 0.103819 -0.0137037)
(0.0157328 0.00480026 -0.039613 0.00530114 0.0973452 -0.021034)
(0.0189122 0.00163472 -0.0127016 0.0060611 0.0938171 -0.0249733)
(0.0189158 -0.00164221 0.0126553 0.00606375 0.0938154 -0.0249796)
(0.0157435 -0.00480673 0.0395667 0.00530897 0.0973402 -0.0210525)
(0.00980396 -0.00760323 0.0712574 0.00392995 0.103811 -0.0137339)
(0.00211256 -0.009744 0.111446 0.00210476 0.11147 -0.00421732)
(-0.00931093 -0.0119013 0.159382 0.00156031 0.115969 0.00775062)
(-0.00824391 0.0156095 -0.149066 -0.00824039 0.149057 0.0164843)
(0.00153902 0.011903 -0.115992 -0.00934076 0.159414 0.00780173)
(0.0073622 0.00905057 -0.0805969 -0.00847423 0.153722 0.00111202)
(0.0120011 0.00567791 -0.0471134 -0.00776459 0.146899 -0.00423652)
(0.0145446 0.00192374 -0.0154756 -0.00737307 0.142951 -0.00717157)
(0.0145481 -0.00193336 0.0154216 -0.00736935 0.142949 -0.0071787)
(0.0120114 -0.00568617 0.0470598 -0.00775368 0.146892 -0.00425776)
(0.00737958 -0.00905541 0.0805446 -0.00845727 0.153711 0.00107769)
(0.0015664 -0.0119037 0.115942 -0.00931967 0.159401 0.00775328)
(-0.00820757 -0.0156034 0.149025 -0.00821848 0.149046 0.0164261)
(-0.00224775 -0.00431984 -0.153945 -0.00222758 -0.153904 0.00447534)
(0.000136905 -0.00467352 -0.124396 -0.00300578 -0.169424 0.00286888)
(0.00277314 -0.00406734 -0.089414 -0.00344779 -0.168127 0.000674655)
(0.00508738 -0.00272789 -0.0536228 -0.00368394 -0.164342 -0.00140344)
(0.0064038 -0.000945868 -0.0178781 -0.00376802 -0.161915 -0.00263578)
(0.0064108 0.000970287 0.0177546 -0.00375985 -0.161908 -0.00265096)
(0.00510885 0.00274924 0.0535004 -0.00366 -0.164322 -0.00144886)
(0.00280962 0.0040812 0.089294 -0.00341048 -0.168095 0.000600853)
(0.000194529 0.0046783 0.124281 -0.00295889 -0.169383 0.00276436)
(-0.0021715 0.0043095 0.153848 -0.00217767 -0.153867 0.00434916)
(-0.00302111 -0.00467884 -0.169461 0.000147529 -0.12434 0.00287358)
(0.00022063 -0.00497868 -0.125083 0.000234545 -0.125033 -0.000455174)
(0.00409051 -0.00419263 -0.0842495 0.000457019 -0.121135 -0.00454753)
(0.00731335 -0.00275143 -0.0486796 0.000771826 -0.117001 -0.00808518)
(0.00909544 -0.000946774 -0.01596 0.00101441 -0.114602 -0.0101099)
(0.0091025 0.000967255 0.0158562 0.00102034 -0.114597 -0.0101228)
(0.00733468 0.00276962 0.0485758 0.000789286 -0.116986 -0.00812397)
(0.00412624 0.00420636 0.0841454 0.000484919 -0.12111 -0.00461116)
(0.000274545 0.00498646 0.124979 0.000270945 -0.125 -0.00054549)
(-0.00295512 0.00467507 0.169366 0.000193125 -0.124305 0.00276199)
(-0.00346843 -0.0040781 -0.168165 0.00277206 -0.0893501 0.000696371)
(0.000438212 -0.00419756 -0.121182 0.00409546 -0.084193 -0.00453368)
(0.00524783 -0.00339809 -0.0799742 0.00525764 -0.0799213 -0.0105055)
(0.00917072 -0.00216013 -0.045475 0.00629607 -0.0767831 -0.0154668)
(0.0113312 -0.000728559 -0.0147994 0.0069632 -0.0751574 -0.0182943)
(0.0113382 0.000744466 0.014708 0.00696831 -0.0751544 -0.0183065)
(0.00919201 0.00217396 0.0453838 0.00631074 -0.0767735 -0.0155027)
(0.00528367 0.00340846 0.0798821 0.00528108 -0.0799047 -0.0105647)
(0.000491272 0.00420337 0.121089 0.00412637 -0.0841697 -0.00461764)
(-0.00340371 0.00407467 0.168078 0.00281335 -0.0893218 0.000590359)
(-0.00371337 -0.00274365 -0.164384 0.00507949 -0.0535504 -0.00136612)
(0.000746121 -0.00276094 -0.11705 0.00731171 -0.0486171 -0.00805783)
(0.00627968 -0.00216486 -0.0768355 0.00917333 -0.0454178 -0.015453)
(0.0107938 -0.00130962 -0.0435709 0.0108016 -0.0435158 -0.0215954)
(0.0133725 -0.000421825 -0.0142261 0.0118638 -0.0427099 -0.0252362)
(0.0133801 0.000432664 0.0141415 0.0118681 -0.0427085 -0.0252482)
(0.0108162 0.00131851 0.0434875 0.0108134 -0.0435108 -0.0216296)
(0.00631681 0.00217121 0.0767512 0.00919201 -0.0454082 -0.0155088)
(0.000799303 0.002764 0.116965 0.00733707 -0.0486029 -0.00813637)
(-0.00364855 0.00273997 0.164304 0.0051149 -0.0535324 -0.00146635)
(-0.00380833 -0.000962199 -0.161963 0.00638787 -0.0177978 -0.00257954)
(0.000980821 -0.000958885 -0.114655 0.00908566 -0.0158917 -0.0100665)
(0.0069398 -0.000736906 -0.0752115 0.0113254 -0.0147381 -0.0182652)
(0.0118503 -0.000426263 -0.0427647 0.0133706 -0.0141678 -0.0252209)
(0.0148909 -0.000132073 -0.0141718 0.0148938 -0.0141138 -0.0297847)
(0.0148995 0.000136962 0.0140896 0.0148982 -0.0141139 -0.0297977)
(0.0118736 0.000430144 0.0426853 0.0133813 -0.0141661 -0.0252549)
(0.00697788 0.000739601 0.0751312 0.0113414 -0.0147344 -0.0183193)
(0.00103435 0.000960094 0.114573 0.00910796 -0.0158862 -0.0101423)
(-0.00374288 0.000960646 0.161886 0.0064198 -0.0177907 -0.00267693)
(-0.00381103 0.000955296 -0.161964 0.00638514 0.0178417 -0.00257411)
(0.000978978 0.000954151 -0.114656 0.00908285 0.0159298 -0.0100618)
(0.0069382 0.000734015 -0.075212 0.0113225 0.0147728 -0.0182607)
(0.0118489 0.000425041 -0.0427647 0.0133675 0.0142011 -0.0252164)
(0.0148893 0.000132677 -0.0141714 0.0148903 0.0141471 -0.0297796)
(0.0148978 -0.000134468 0.0140896 0.0148947 0.0141475 -0.0297925)
(0.011872 -0.000426217 0.0426859 0.0133781 0.0142006 -0.0252501)
(0.00697602 -0.00073474 0.0751323 0.0113385 0.0147711 -0.0183145)
(0.00103226 -0.000954618 0.114575 0.00910495 0.015927 -0.0101372)
(-0.00374565 -0.000954879 0.161888 0.00641671 0.017838 -0.00267106)
(-0.00372124 0.00273782 -0.164388 0.00507119 0.053593 -0.00134995)
(0.000740741 0.00275696 -0.117053 0.00730326 0.0486544 -0.008044)
(0.00627516 0.00216265 -0.0768371 0.00916478 0.0454519 -0.0154399)
(0.01079 0.00130905 -0.0435713 0.0107925 0.0435482 -0.0215825)
(0.0133688 0.000422716 -0.0142256 0.0118543 0.0427416 -0.0252231)
(0.0133763 -0.000430461 0.0141425 0.0118585 0.0427407 -0.0252348)
(0.0108118 -0.00131518 0.0434896 0.0108042 0.0435445 -0.021616)
(0.00631155 -0.00216694 0.0767548 0.00918306 0.0454447 -0.0154946)
(0.000793228 -0.00275918 0.11697 0.00732795 0.0486436 -0.00812117)
(-0.00365661 -0.00273517 0.16431 0.00510545 0.0535792 -0.00144884)
(-0.00348052 0.00407482 -0.168171 0.0027581 0.08939 0.000722422)
(0.000429754 0.004195 -0.121187 0.00408141 0.0842288 -0.00451117)
(0.00524077 0.00339695 -0.0799768 0.00524335 0.0799544 -0.0104841)
(0.00916495 0.00216032 -0.0454759 0.00628116 0.0768148 -0.0154461)
(0.0113259 0.000729759 -0.0147986 0.00694774 0.0751888 -0.0182736)
(0.0113326 -0.000742485 0.0147103 0.00695272 0.0751864 -0.0182853)
(0.00918538 -0.00217127 0.0453879 0.00629539 0.0768073 -0.0154808)
(0.00527548 -0.0034051 0.0798885 0.00526598 0.0799413 -0.0105415)
(0.00048176 -0.00419975 0.121098 0.00411104 0.0842103 -0.0045928)
(-0.00341609 -0.00407214 0.168089 0.00279736 0.0893675 0.000618721)
(-0.00303607 0.00467845 -0.169467 0.000126216 0.124376 0.00290986)
(0.00020976 0.00497779 -0.125087 0.000214033 0.125066 -0.000423793)
(0.00408137 0.00419268 -0.0842524 0.000436486 0.121166 -0.00451786)
(0.00730568 0.00275244 -0.0486804 0.000750968 0.117032 -0.00805665)
(0.0090883 0.00094825 -0.0159586 0.000993121 0.114632 -0.0100814)
(0.00909497 -0.000965502 0.01586 0.000998792 0.114628 -0.0100938)
(0.00732594 -0.00276768 0.0485822 0.000767637 0.11702 -0.00809358)
(0.00411571 -0.00420411 0.0841545 0.000463006 0.121146 -0.00457871)
(0.000262393 -0.00498434 0.124991 0.000248385 0.12504 -0.000510777)
(-0.00297044 -0.00467497 0.169381 0.000168866 0.124348 0.00280157)
(-0.00226333 0.00432437 -0.153948 -0.00225526 0.153931 0.00451859)
(0.000123643 0.00467603 -0.124399 -0.00303071 0.169451 0.00290707)
(0.00276128 0.00406985 -0.0894159 -0.00347266 0.168154 0.000711375)
(0.00507701 0.00273052 -0.0536226 -0.00370912 0.164369 -0.00136789)
(0.00639393 0.000947724 -0.0178752 -0.00379374 0.161943 -0.00260019)
(0.00640045 -0.000969238 0.0177604 -0.00378593 0.161937 -0.00261451)
(0.00509716 -0.0027492 0.0535091 -0.0036863 0.164353 -0.00141087)
(0.00279611 -0.0040816 0.0893054 -0.00343726 0.168128 0.000641155)
(0.00017985 -0.00467967 0.124294 -0.00298663 0.169418 0.00280678)
(-0.00218765 -0.00431421 0.153861 -0.002209 0.153902 0.00439665)
(-0.00214776 -0.00323162 -0.159028 -0.00211155 -0.15895 0.00425931)
(-0.000329955 -0.00257083 -0.130831 -0.00261883 -0.177359 0.00294879)
(0.000872624 -0.0020607 -0.0955482 -0.00270492 -0.178361 0.0018323)
(0.00193814 -0.00133156 -0.0580237 -0.00275084 -0.176208 0.000812695)
(0.00256598 -0.000447941 -0.0195127 -0.00275727 -0.174627 0.000191284)
(0.00257767 0.000483865 0.0192685 -0.00274395 -0.174613 0.000166272)
(0.00197397 0.00136251 0.0577815 -0.00271186 -0.176166 0.000737889)
(0.000933394 0.00207923 0.0953106 -0.00264437 -0.178293 0.00171097)
(-0.000233321 0.00257481 0.130604 -0.00254331 -0.177273 0.00277663)
(-0.00201845 0.00321125 0.158837 -0.00203403 -0.15887 0.00405248)
(-0.00264415 -0.00258095 -0.177431 -0.000313614 -0.130724 0.00295777)
(-0.000518338 -0.0023216 -0.134295 -0.000496651 -0.134198 0.00101499)
(0.00117887 -0.0019542 -0.0926804 -0.000332934 -0.132486 -0.000845936)
(0.00268458 -0.00127674 -0.054587 -0.000163544 -0.129831 -0.00252103)
(0.00355254 -0.000429045 -0.0181137 -3.20973e-05 -0.12817 -0.00352044)
(0.0035642 0.000460325 0.0179076 -2.19548e-05 -0.128159 -0.00354224)
(0.00271989 0.00130379 0.0543809 -0.000133778 -0.129799 -0.00258611)
(0.00123805 0.00197331 0.0924732 -0.000285471 -0.132432 -0.000952582)
(-0.000428466 0.00233045 0.134088 -0.000435127 -0.134128 0.000863593)
(-0.00253368 0.00257055 0.177241 -0.000238079 -0.130647 0.00277176)
(-0.00273939 -0.00208116 -0.178436 0.000866721 -0.0954218 0.00187267)
(-0.000363542 -0.00196381 -0.13258 0.00118418 -0.0925686 -0.000820633)
(0.00178346 -0.00162047 -0.0901639 0.00179799 -0.0900588 -0.00358145)
(0.00366379 -0.00101628 -0.0525037 0.00234405 -0.0880196 -0.00600784)
(0.00472819 -0.000328351 -0.0173425 0.00272051 -0.0868881 -0.0074487)
(0.00473965 0.000352752 0.0171613 0.00272964 -0.0868815 -0.00746929)
(0.00369884 0.0010365 0.0523226 0.00237002 -0.0879988 -0.00606886)
(0.00184284 0.00163415 0.0899796 0.00183966 -0.0900233 -0.0036825)
(-0.000274935 0.00196913 0.132392 0.00123916 -0.0925193 -0.000964222)
(-0.00263115 0.00207054 0.178258 0.000939484 -0.0953622 0.00169166)
(-0.0028014 -0.00136172 -0.176293 0.00192066 -0.0578781 0.000880735)
(-0.000207166 -0.00129546 -0.12993 0.00267907 -0.0544617 -0.00247191)
(0.00231691 -0.0010258 -0.0881242 0.00366655 -0.0523897 -0.00598345)
(0.00452527 -0.000571508 -0.0512493 0.00453786 -0.0511404 -0.00906313)
(0.00582838 -0.000156658 -0.0170452 0.00514709 -0.05053 -0.0109755)
(0.00584095 0.000172427 0.0168778 0.00515475 -0.0505264 -0.0109957)
(0.00456238 0.000582893 0.0510843 0.00455893 -0.0511293 -0.00912132)
(0.00237923 0.00103222 0.0879548 0.00370033 -0.0523696 -0.00607956)