/*--------------------------------*- C++ -*----------------------------------*\
| =========                 |                                                 |
| \\      /  F ield         | OpenFOAM: The Open Source CFD Toolbox           |
|  \\    /   O peration     | Version:  2406                                  |
|   \\  /    A nd           | Website:  www.openfoam.com                      |
|    \\/     M anipulation  |                                                 |
\*---------------------------------------------------------------------------*/
FoamFile
{
    version     2.0;
    format      ascii;
    arch        "LSB;label=32;scalar=64";
    class       volVectorField;
    location    "1";
    object      U;
}
// * * * * * * * * * * * * * * * * * * * * * * * * * * * * * * * * * * * * * //

dimensions      [0 1 -1 0 0 0 0];

internalField   nonuniform List<vector> 
25000
(
(0.148209 0.1482 1.126)
(0.121748 0.159738 1.15799)
(0.0896899 0.168687 1.17581)
(0.0549404 0.174335 1.18522)
(0.0184886 0.177164 1.18921)
(-0.0184718 0.177164 1.18921)
(-0.0549241 0.174335 1.18522)
(-0.0896746 0.168688 1.17581)
(-0.121734 0.15974 1.15799)
(-0.148198 0.148202 1.126)
(0.159747 0.121738 1.15799)
(0.129927 0.129918 1.18715)
(0.0949595 0.136256 1.19911)
(0.0577525 0.140365 1.20344)
(0.0193693 0.14238 1.20465)
(-0.0193536 0.14238 1.20465)
(-0.0577372 0.140365 1.20344)
(-0.0949451 0.136256 1.19911)
(-0.129914 0.129918 1.18715)
(-0.159736 0.121739 1.15799)
(0.168695 0.0896787 1.17581)
(0.136265 0.0949492 1.19911)
(0.0990648 0.0990551 1.20625)
(0.0599603 0.10173 1.20696)
(0.0200569 0.103027 1.20625)
(-0.0200418 0.103027 1.20625)
(-0.0599457 0.10173 1.20696)
(-0.0990511 0.0990552 1.20625)
(-0.136252 0.0949495 1.19911)
(-0.168684 0.0896794 1.17581)
(0.174342 0.0549288 1.18522)
(0.140374 0.0577418 1.20344)
(0.101739 0.0599501 1.20696)
(0.0613992 0.0613892 1.20524)
(0.0205033 0.0620833 1.20331)
(-0.0204886 0.0620833 1.20331)
(-0.0613849 0.0613892 1.20524)
(-0.101726 0.0599501 1.20696)
(-0.140362 0.0577418 1.20344)
(-0.174332 0.0549291 1.18522)
(0.177171 0.0184769 1.18921)
(0.142388 0.0193584 1.20465)
(0.103037 0.0200464 1.20625)
(0.0620932 0.0204931 1.20331)
(0.0207179 0.0207078 1.2008)
(-0.0207034 0.0207078 1.2008)
(-0.0620791 0.020493 1.20331)
(-0.103023 0.0200463 1.20625)
(-0.142376 0.0193584 1.20465)
(-0.177161 0.0184769 1.18921)
(0.177171 -0.0184833 1.18921)
(0.142388 -0.0193645 1.20465)
(0.103036 -0.0200522 1.20625)
(0.0620931 -0.0204988 1.20331)
(0.0207179 -0.0207135 1.2008)
(-0.0207034 -0.0207135 1.2008)
(-0.0620791 -0.0204988 1.20331)
(-0.103023 -0.0200523 1.20625)
(-0.142376 -0.0193646 1.20465)
(-0.177161 -0.0184835 1.18921)
(0.174342 -0.054935 1.18522)
(0.140374 -0.0577476 1.20344)
(0.101739 -0.0599558 1.20696)
(0.0613991 -0.0613948 1.20524)
(0.0205032 -0.0620889 1.20331)
(-0.0204886 -0.0620889 1.20331)
(-0.0613849 -0.0613948 1.20524)
(-0.101726 -0.0599559 1.20696)
(-0.140362 -0.0577479 1.20344)
(-0.174332 -0.0549356 1.18522)
(0.168694 -0.0896845 1.17581)
(0.136265 -0.0949547 1.19911)
(0.0990646 -0.0990605 1.20625)
(0.0599602 -0.101735 1.20696)
(0.0200567 -0.103032 1.20625)
(-0.0200419 -0.103033 1.20625)
(-0.0599458 -0.101735 1.20696)
(-0.0990511 -0.0990607 1.20625)
(-0.136252 -0.0949552 1.19911)
(-0.168684 -0.0896855 1.17581)
(0.159746 -0.121743 1.15799)
(0.129927 -0.129923 1.18715)
(0.0949591 -0.136261 1.19911)
(0.0577522 -0.14037 1.20344)
(0.0193691 -0.142384 1.20465)
(-0.0193538 -0.142384 1.20465)
(-0.0577373 -0.14037 1.20344)
(-0.0949451 -0.136261 1.19911)
(-0.129914 -0.129924 1.18715)
(-0.159736 -0.121744 1.15799)
(0.148208 -0.148204 1.126)
(0.121747 -0.159743 1.15799)
(0.0896893 -0.168691 1.17581)
(0.0549399 -0.174339 1.18522)
(0.0184883 -0.177168 1.18921)
(-0.018472 -0.177168 1.18921)
(-0.0549241 -0.174339 1.18522)
(-0.0896744 -0.168692 1.17581)
(-0.121734 -0.159744 1.15799)
(-0.148197 -0.148206 1.126)
(0.0509107 0.0508666 1.26778)
(0.0455204 0.0604673 1.35152)
(0.0364414 0.0683704 1.40592)
(0.0234056 0.0741954 1.43821)
(0.00807952 0.0771969 1.45314)
(-0.00800462 0.0771985 1.45314)
(-0.0233329 0.0742002 1.43823)
(-0.0363735 0.0683784 1.40594)
(-0.0454595 0.0604789 1.35154)
(-0.0508614 0.0508808 1.26782)
(0.0605066 0.0454711 1.35151)
(0.0552901 0.0552467 1.44013)
(0.0441631 0.0630571 1.48894)
(0.028259 0.0685238 1.51468)
(0.00971769 0.0713362 1.52576)
(-0.00965078 0.0713372 1.52576)
(-0.028194 0.0685268 1.51469)
(-0.0441021 0.0630622 1.48895)
(-0.0552352 0.0552543 1.44015)
(-0.0604617 0.0454814 1.35154)
(0.0684045 0.0363902 1.40591)
(0.0630957 0.0441178 1.48893)
(0.0502088 0.0501679 1.53197)
(0.0320184 0.0543371 1.553)
(0.010983 0.0564815 1.56142)
(-0.0109215 0.056482 1.56142)
(-0.0319586 0.0543386 1.55301)
(-0.0501527 0.0501706 1.53199)
(-0.0630453 0.044122 1.48895)
(-0.0683636 0.0363963 1.40594)
(0.0742258 0.0233535 1.4382)
(0.0685589 0.0282128 1.51467)
(0.054375 0.0319762 1.553)
(0.0345832 0.0345436 1.57058)
(0.0118453 0.0358645 1.57708)
(-0.0117872 0.0358647 1.57708)
(-0.0345267 0.0345442 1.57059)
(-0.054322 0.0319772 1.55301)
(-0.0685115 0.0282145 1.51469)
(-0.0741871 0.0233562 1.43823)
(0.0772242 0.00802812 1.45313)
(0.0713688 0.00967165 1.52575)
(0.0565175 0.0109406 1.56141)
(0.0359026 0.0118051 1.57707)
(0.0122907 0.0122517 1.58252)
(-0.0122343 0.0122516 1.58252)
(-0.0358479 0.011805 1.57708)
(-0.0564662 0.0109403 1.56142)
(-0.0713229 0.00967136 1.52577)
(-0.0771867 0.00802784 1.45315)
(0.0772235 -0.00805399 1.45312)
(0.0713683 -0.00969548 1.52575)
(0.0565171 -0.010963 1.56141)
(0.0359024 -0.0118268 1.57707)
(0.0122905 -0.0122731 1.58252)
(-0.0122344 -0.0122734 1.58252)
(-0.0358479 -0.0118276 1.57708)
(-0.056466 -0.0109644 1.56142)
(-0.0713225 -0.00969755 1.52576)
(-0.077186 -0.00805703 1.45315)
(0.0742236 -0.0233787 1.4382)
(0.0685572 -0.028236 1.51467)
(0.0543738 -0.0319981 1.553)
(0.0345823 -0.0345648 1.57058)
(0.0118447 -0.0358854 1.57707)
(-0.0117874 -0.0358859 1.57707)
(-0.0345267 -0.0345662 1.57058)
(-0.0543215 -0.0320007 1.55301)
(-0.0685103 -0.02824 1.51469)
(-0.0741851 -0.0233846 1.43822)
(0.0684009 -0.0364138 1.40591)
(0.0630928 -0.0441397 1.48893)
(0.0502067 -0.0501885 1.53197)
(0.0320169 -0.054357 1.553)
(0.010982 -0.0565011 1.56141)
(-0.0109219 -0.0565019 1.56141)
(-0.0319585 -0.0543593 1.55301)
(-0.0501517 -0.0501927 1.53198)
(-0.0630433 -0.044146 1.48895)
(-0.0683604 -0.0364229 1.40593)
(0.0605014 -0.0454924 1.3515)
(0.0552859 -0.0552665 1.44012)
(0.0441598 -0.0630757 1.48893)
(0.0282567 -0.0685417 1.51467)
(0.00971616 -0.0713538 1.52575)
(-0.00965147 -0.071355 1.52575)
(-0.0281937 -0.0685454 1.51468)
(-0.0441006 -0.063082 1.48894)
(-0.0552322 -0.0552759 1.44014)
(-0.0604572 -0.0455053 1.35153)
(0.0509043 -0.0508843 1.26777)
(0.0455147 -0.0604839 1.3515)
(0.0364368 -0.0683858 1.40591)
(0.0234021 -0.0742103 1.4382)
(0.00807731 -0.0772115 1.45313)
(-0.00800556 -0.0772132 1.45313)
(-0.0233324 -0.0742155 1.43821)
(-0.0363714 -0.0683946 1.40593)
(-0.0454556 -0.0604967 1.35153)
(-0.0508558 -0.0509004 1.2678)
(0.0295014 0.0293997 1.1391)
(0.0274422 0.0362239 1.26396)
(0.0224658 0.0419042 1.35452)
(0.0147359 0.046086 1.41276)
(0.00518476 0.0482818 1.44103)
(-0.00500984 0.0482863 1.44106)
(-0.0145666 0.0460994 1.41282)
(-0.0223081 0.0419259 1.35463)
(-0.0273009 0.0362546 1.26411)
(-0.0293876 0.0294367 1.13929)
(0.0363136 0.0273279 1.26394)
(0.0343328 0.0342335 1.41078)
(0.0281989 0.0399175 1.50481)
(0.0184653 0.0439781 1.56049)
(0.00646117 0.0460883 1.58632)
(-0.00630775 0.0460911 1.58633)
(-0.0183166 0.0439865 1.56054)
(-0.0280598 0.0399318 1.5049)
(-0.0342082 0.0342543 1.4109)
(-0.0362127 0.0273555 1.26411)
(0.0419807 0.0223474 1.35449)
(0.0400043 0.0280956 1.5048)
(0.0328125 0.0327205 1.59721)
(0.0214189 0.0359315 1.64978)
(0.00746858 0.0375811 1.67352)
(-0.00732992 0.0375824 1.67353)
(-0.0212844 0.0359359 1.64982)
(-0.0326868 0.0327282 1.59729)
(-0.0398925 0.0281072 1.50491)
(-0.041891 0.022364 1.35464)
(0.0461529 0.0146157 1.4127)
(0.0440558 0.01836 1.56046)
(0.0360158 0.0213241 1.64976)
(0.0234412 0.0233532 1.69966)
(0.00815809 0.0243904 1.72196)
(-0.00802875 0.0243909 1.72198)
(-0.0233157 0.0233548 1.69969)
(-0.0358984 0.021327 1.64982)
(-0.0439518 0.0183648 1.56055)
(-0.0460694 0.0146232 1.41284)
(0.0483405 0.00506634 1.44096)
(0.0461596 0.00635649 1.58627)
(0.0376604 0.00737336 1.67349)
(0.0244746 0.00806884 1.72195)
(0.00851179 0.00842553 1.74358)
(-0.00838721 0.00842537 1.74359)
(-0.0243537 0.0080684 1.72198)
(-0.0375473 0.00737269 1.67355)
(-0.0460595 0.00635565 1.58636)
(-0.0482602 0.00506545 1.44109)
(0.0483389 -0.00512302 1.44095)
(0.0461583 -0.00640893 1.58626)
(0.0376595 -0.00742295 1.67348)
(0.024474 -0.00811684 1.72195)
(0.0085114 -0.00847312 1.74358)
(-0.00838738 -0.00847379 1.74359)
(-0.0243536 -0.00811894 1.72198)
(-0.0375468 -0.00742677 1.67354)
(-0.0460585 -0.00641488 1.58635)
(-0.0482586 -0.00513167 1.44108)
(0.0461478 -0.0146705 1.41268)
(0.0440519 -0.0184108 1.56044)
(0.036013 -0.0213722 1.64975)
(0.0234393 -0.0233998 1.69965)
(0.00815688 -0.0244367 1.72195)
(-0.00802926 -0.0244379 1.72196)
(-0.0233154 -0.0234038 1.69968)
(-0.0358969 -0.0213794 1.64981)
(-0.0439487 -0.0184222 1.56053)
(-0.0460644 -0.0146872 1.41282)
(0.0419725 -0.0223984 1.35445)
(0.0399977 -0.028143 1.50477)
(0.0328076 -0.0327654 1.59719)
(0.0214154 -0.035975 1.64975)
(0.00746639 -0.0376243 1.6735)
(-0.00733082 -0.0376264 1.67351)
(-0.0212838 -0.0359817 1.64979)
(-0.0326842 -0.0327772 1.59726)
(-0.0398873 -0.0281608 1.50487)
(-0.041883 -0.0224236 1.3546)
(0.0363019 -0.0273735 1.26389)
(0.0343231 -0.0342759 1.41074)
(0.0281915 -0.0399574 1.50478)
(0.01846 -0.0440166 1.56045)
(0.00645777 -0.0461265 1.58628)
(-0.00630914 -0.0461299 1.5863)
(-0.0183157 -0.0440271 1.5605)
(-0.0280561 -0.0399753 1.50486)
(-0.034201 -0.034302 1.41085)
(-0.0362017 -0.0274085 1.26405)
(0.0294876 -0.0294368 1.13904)
(0.0274296 -0.0362588 1.2639)
(0.0224557 -0.0419366 1.35447)
(0.0147283 -0.0461173 1.41271)
(0.00517987 -0.0483127 1.44098)
(-0.00501183 -0.0483175 1.441)
(-0.0145653 -0.046132 1.41276)
(-0.0223031 -0.0419608 1.35456)
(-0.0272918 -0.0362933 1.26404)
(-0.029375 -0.0294794 1.13921)
(0.00601765 0.00580358 1.15234)
(0.00682262 0.00815635 1.28418)
(0.00637789 0.0104914 1.38413)
(0.0045416 0.0123688 1.45072)
(0.00174711 0.0134002 1.48382)
(-0.00139403 0.0134103 1.48387)
(-0.00419946 0.0123996 1.45088)
(-0.0060584 0.0105417 1.3844)
(-0.00653546 0.00822774 1.28456)
(-0.00578457 0.00589067 1.15282)
(0.00834167 0.00658368 1.28415)
(0.00987946 0.00967549 1.44572)
(0.0092369 0.0124964 1.55599)
(0.00650964 0.0146251 1.62465)
(0.00242739 0.0157575 1.65753)
(-0.00212121 0.0157643 1.65757)
(-0.00621264 0.0146459 1.62478)
(-0.00895892 0.0125316 1.55621)
(-0.00962989 0.00972673 1.44604)
(-0.00813838 0.00665216 1.28458)
(0.0106463 0.00613185 1.38405)
(0.0126714 0.0090261 1.55594)
(0.0117182 0.0115335 1.66966)
(0.00816458 0.0133327 1.73808)
(0.00299273 0.0142469 1.77004)
(-0.00271902 0.0142506 1.77008)
(-0.00789899 0.0133444 1.73818)
(-0.01147 0.0115541 1.66985)
(-0.0124507 0.00905746 1.55623)
(-0.0104689 0.00617676 1.38444)
(0.0125013 0.00429307 1.45059)
(0.0147792 0.00629579 1.62456)
(0.0134996 0.00797496 1.73804)
(0.00929656 0.0091225 1.80487)
(0.00336762 0.00965234 1.83543)
(-0.00311396 0.00965376 1.83546)
(-0.00905026 0.00912754 1.80496)
(-0.0132698 0.00798462 1.7382)
(-0.0145762 0.00631157 1.62481)
(-0.0123387 0.00431765 1.45094)
(0.0135141 0.00150332 1.48362)
(0.0158967 0.00221575 1.65739)
(0.0144028 0.00280307 1.76996)
(0.00981805 0.00319152 1.8354)
(0.00352726 0.00335778 1.86469)
(-0.00328332 0.00335783 1.86471)
(-0.00958081 0.0031919 1.83548)
(-0.0141816 0.00280425 1.77011)
(-0.0157022 0.00221847 1.65763)
(-0.0133589 0.00150899 1.48396)
(0.0135107 -0.00162615 1.48361)
(0.0158942 -0.0023249 1.65738)
(0.0144013 -0.00290364 1.76995)
(0.00981721 -0.00328739 1.83539)
(0.00352685 -0.00345198 1.86468)
(-0.00328335 -0.00345309 1.8647)
(-0.00958035 -0.00329094 1.83547)
(-0.0141803 -0.00290998 1.7701)
(-0.0156998 -0.00233419 1.65761)
(-0.0133554 -0.00163833 1.48394)
(0.0124907 -0.00441183 1.45054)
(0.0147716 -0.00640143 1.62452)
(0.0134948 -0.00807235 1.738)
(0.00929371 -0.00921542 1.80483)
(0.00336622 -0.00974381 1.8354)
(-0.00311404 -0.00974628 1.83543)
(-0.00904868 -0.00922356 1.80492)
(-0.0132658 -0.00808702 1.73816)
(-0.014569 -0.00642353 1.62476)
(-0.0123281 -0.00444258 1.45088)
(0.010629 -0.00624223 1.38397)
(0.0126585 -0.00912452 1.55587)
(0.0117096 -0.0116241 1.6696)
(0.00815928 -0.0134191 1.73802)
(0.00299003 -0.0143318 1.76998)
(-0.00271921 -0.0143365 1.77002)
(-0.00789619 -0.0134336 1.73812)
(-0.0114632 -0.0116493 1.66977)
(-0.0124389 -0.00916162 1.55614)
(-0.0104519 -0.00629257 1.38433)
(0.00831724 -0.00668218 1.28403)
(0.00986091 -0.00976315 1.44561)
(0.00922409 -0.0125763 1.55589)
(0.00650132 -0.0147008 1.62456)
(0.00242301 -0.0158317 1.65744)
(-0.00212168 -0.0158393 1.65748)
(-0.00620863 -0.0147241 1.62468)
(-0.00894949 -0.0126155 1.5561)
(-0.00961367 -0.00981911 1.44591)
(-0.00811528 -0.00675487 1.28443)
(0.0059882 -0.00588306 1.1522)
(0.00679831 -0.0082274 1.28405)
(0.00636019 -0.0105553 1.38401)
(0.00452958 -0.0124292 1.4506)
(0.00174064 -0.0134591 1.48369)
(-0.00139488 -0.0134698 1.48374)
(-0.00419408 -0.0124617 1.45074)
(-0.00604615 -0.0106083 1.38425)
(-0.00651536 -0.00830197 1.28439)
(-0.00575822 -0.00597276 1.15264)
(0.00567273 0.00526643 1.11538)
(0.00552227 0.00670293 1.25289)
(0.00473414 0.0079887 1.35927)
(0.00329314 0.00897194 1.43135)
(0.00136593 0.00950921 1.46761)
(-0.000743276 0.00952887 1.46773)
(-0.00268915 0.00903162 1.43171)
(-0.00416859 0.00808675 1.35987)
(-0.0050111 0.00684286 1.25373)
(-0.00525388 0.00543849 1.11644)
(0.00705177 0.00506982 1.25281)
(0.00703838 0.00665611 1.42437)
(0.00610449 0.00809603 1.5449)
(0.00422222 0.00918123 1.62181)
(0.00166741 0.00975636 1.65926)
(-0.00112565 0.00977048 1.65935)
(-0.00369628 0.00922461 1.6221)
(-0.00561111 0.00817013 1.5454)
(-0.00659301 0.00676456 1.4251)
(-0.00668504 0.00521555 1.25377)
(0.00827662 0.00427041 1.35909)
(0.00841958 0.00571169 1.5448)
(0.00733482 0.00699541 1.67202)
(0.00503474 0.00792072 1.75079)
(0.00192893 0.00837736 1.78826)
(-0.00144517 0.00838586 1.78834)
(-0.00456501 0.00794768 1.75103)
(-0.00689509 0.00704349 1.67245)
(-0.00802679 0.00578531 1.54544)
(-0.00795795 0.00437611 1.35996)
(0.00921476 0.00282647 1.43104)
(0.00946195 0.00382529 1.62161)
(0.00822351 0.00468753 1.75069)
(0.00558156 0.0052665 1.82885)
(0.00209471 0.00549141 1.86498)
(-0.00164706 0.00549548 1.86504)
(-0.00514666 0.00528099 1.82905)
(-0.00781737 0.00471514 1.75107)
(-0.00910226 0.00387035 1.62219)
(-0.00892461 0.00289583 1.43185)
(0.00971498 0.000909306 1.46717)
(0.0100068 0.00127555 1.65894)
(0.00865759 0.00158242 1.78807)
(0.00578913 0.00177644 1.86489)
(0.00213835 0.00183412 1.89882)
(-0.00170767 0.00183559 1.89887)
(-0.0053699 0.00178189 1.86508)
(-0.00826693 0.00159368 1.78842)
(-0.00966308 0.00129578 1.65949)
(-0.00943971 0.000943468 1.46793)
(0.00970743 -0.00117749 1.46712)
(0.010002 -0.00150224 1.65891)
(0.00865499 -0.00178206 1.78804)
(0.00578813 -0.00196028 1.86487)
(0.00213812 -0.00201052 1.8988)
(-0.00170731 -0.00201117 1.89885)
(-0.00536877 -0.00196262 1.86506)
(-0.00826428 -0.00178556 1.78839)
(-0.00965849 -0.00150528 1.65945)
(-0.00943312 -0.00117725 1.46789)
(0.00919172 -0.00308655 1.43092)
(0.00944687 -0.00404513 1.6215)
(0.00821512 -0.00488106 1.7506)
(0.00557764 -0.00544478 1.82877)
(0.00209363 -0.00566283 1.86491)
(-0.00164583 -0.00566611 1.86497)
(-0.00514261 -0.00545616 1.82897)
(-0.00780916 -0.00490087 1.75097)
(-0.00908842 -0.00407293 1.62207)
(-0.00890486 -0.00312154 1.43171)
(0.00823856 -0.00451378 1.35888)
(0.00839351 -0.00591747 1.54462)
(0.00731948 -0.00717592 1.67186)
(0.00502682 -0.00808648 1.75065)
(0.00192631 -0.00853639 1.78812)
(-0.00144325 -0.00854408 1.7882)
(-0.00455792 -0.00811027 1.75088)
(-0.00688123 -0.00721603 1.67228)
(-0.00800409 -0.00597363 1.54524)
(-0.00792644 -0.00458532 1.35973)
(0.00699664 -0.00528948 1.25253)
(0.00699937 -0.00684124 1.42412)
(0.00608018 -0.00825633 1.54467)
(0.00420849 -0.00932694 1.62159)
(0.00166198 -0.00989518 1.65905)
(-0.00112367 -0.00990841 1.65914)
(-0.00368634 -0.00936686 1.62187)
(-0.00559171 -0.00832195 1.54515)
(-0.00656181 -0.00693162 1.42482)
(-0.0066421 -0.00540126 1.25345)
(0.00560354 -0.00544544 1.11503)
(0.00546838 -0.00685397 1.25257)
(0.00469783 -0.0081174 1.35897)
(0.0032708 -0.00908824 1.43106)
(0.00135583 -0.00961927 1.46733)
(-0.000742185 -0.00963803 1.46744)
(-0.00267648 -0.00914448 1.4314)
(-0.00414372 -0.00820744 1.35954)
(-0.00497243 -0.00697719 1.25336)
(-0.00520469 -0.00558705 1.11604)
(0.00119546 0.000499972 1.12143)
(0.00146979 0.000934665 1.25938)
(0.00149893 0.00141405 1.36688)
(0.00124335 0.00182151 1.44024)
(0.000770592 0.00206649 1.47737)
(0.00020927 0.00210031 1.47759)
(-0.000292224 0.00192398 1.44089)
(-0.000607401 0.00158215 1.36797)
(-0.000662881 0.00117304 1.2609)
(-0.000532756 0.000789644 1.12333)
(0.00153348 0.000694377 1.25922)
(0.00198646 0.00133052 1.43231)
(0.00201904 0.00196282 1.55536)
(0.00160316 0.00247443 1.63478)
(0.000862862 0.00276637 1.67379)
(-4.96567e-07 0.00279247 1.67397)
(-0.000765539 0.00255417 1.63533)
(-0.00123242 0.00209815 1.55629)
(-0.00127525 0.00152631 1.43365)
(-0.000945556 0.000952477 1.26097)
(0.00190605 0.000705688 1.36651)
(0.002515 0.00134706 1.55517)
(0.00253434 0.0019573 1.68645)
(0.00195584 0.00243389 1.76891)
(0.000960343 0.00269216 1.80852)
(-0.000185723 0.00270956 1.80867)
(-0.00120361 0.00248812 1.76937)
(-0.00182959 0.00205252 1.68727)
(-0.00188443 0.00148997 1.55638)
(-0.0013925 0.000904914 1.36814)
(0.00223229 0.000447566 1.43964)
(0.00294836 0.000926743 1.63439)
(0.00294332 0.00136788 1.76872)
(0.00222583 0.00169722 1.85128)
(0.00103518 0.00184979 1.88976)
(-0.00031681 0.00185994 1.88989)
(-0.00152847 0.00173082 1.85169)
(-0.00229208 0.00142956 1.76945)
(-0.002371 0.00102388 1.6355)
(-0.00176518 0.000590439 1.44116)
(0.00240941 -5.49171e-06 1.4765)
(0.00318315 0.000197644 1.67317)
(0.00315768 0.000375682 1.80814)
(0.00234417 0.000502367 1.88959)
(0.00105828 0.000552875 1.92554)
(-0.000367298 0.000558153 1.92564)
(-0.00167291 0.000519809 1.88996)
(-0.00253286 0.000409044 1.80883)
(-0.00263351 0.000253163 1.67424)
(-0.00196885 8.05678e-05 1.47798)
(0.00239223 -0.000527049 1.47641)
(0.00317128 -0.000637896 1.6731)
(0.00315064 -0.000752299 1.80808)
(0.00234054 -0.000839627 1.88954)
(0.00105656 -0.00086964 1.9255)
(-0.000367448 -0.000868754 1.9256)
(-0.00167134 -0.000836737 1.88991)
(-0.00252849 -0.000745101 1.80877)
(-0.00262555 -0.000622026 1.67416)
(-0.00195713 -0.000496529 1.47789)
(0.00217969 -0.000966014 1.43937)
(0.00291163 -0.00135528 1.63417)
(0.002921 -0.00173403 1.76853)
(0.00221345 -0.00202472 1.85112)
(0.0010294 -0.00215742 1.88962)
(-0.000317257 -0.0021614 1.88974)
(-0.00152306 -0.00203785 1.85153)
(-0.00227872 -0.0017549 1.76927)
(-0.0023471 -0.00138081 1.63528)
(-0.00173007 -0.000992504 1.4409)
(0.00181826 -0.00119456 1.36606)
(0.00245105 -0.00175141 1.55479)
(0.00249372 -0.00230126 1.68613)
(0.00193193 -0.00273992 1.76861)
(0.000948561 -0.00297826 1.80824)
(-0.00018743 -0.00298935 1.80839)
(-0.00119467 -0.00277324 1.76908)
(-0.0018075 -0.00235497 1.68694)
(-0.00184548 -0.00182219 1.556)
(-0.00133651 -0.00127828 1.3677)
(0.00140501 -0.00114101 1.25858)
(0.00188988 -0.00169923 1.43176)
(0.00195442 -0.00227221 1.55488)
(0.00156242 -0.00274616 1.63434)
(0.000841026 -0.00301763 1.67337)
(-5.96976e-06 -0.00303709 1.67354)
(-0.00075436 -0.00280393 1.63489)
(-0.00120239 -0.00236455 1.55581)
(-0.00122217 -0.00182147 1.43311)
(-0.000869187 -0.00128457 1.26037)
(0.00103166 -0.00086941 1.12062)
(0.00133476 -0.0012407 1.25866)
(0.00140173 -0.00166636 1.36624)
(0.00117749 -0.00204107 1.43964)
(0.000732542 -0.00226712 1.4768)
(0.000196145 -0.00229438 1.47701)
(-0.000280576 -0.00212202 1.44029)
(-0.000570427 -0.00179354 1.36732)
(-0.000597855 -0.00141002 1.26019)
(-0.000445316 -0.00105514 1.12257)
(0.00184883 0.000831634 1.11242)
(0.00186793 0.00120423 1.25182)
(0.00170324 0.00155401 1.36083)
(0.00138603 0.00182554 1.43547)
(0.000945817 0.00199562 1.47339)
(0.00044836 0.00204454 1.47375)
(-3.4762e-05 0.00197253 1.43656)
(-0.000441108 0.00179138 1.36266)
(-0.000733463 0.00153177 1.25436)
(-0.000927168 0.00121218 1.11562)
(0.00210242 0.000721094 1.25151)
(0.00212135 0.00112838 1.42688)
(0.00192042 0.00150345 1.55217)
(0.00151099 0.00179587 1.63341)
(0.000943356 0.00196945 1.67348)
(0.000308594 0.00200859 1.67379)
(-0.000296193 0.00191416 1.63435)
(-0.000782452 0.00170004 1.55377)
(-0.00109806 0.00140312 1.42918)
(-0.00126344 0.00106552 1.2545)
(0.00230304 0.000523269 1.36014)
(0.00234995 0.000898398 1.55182)
(0.00212511 0.00123822 1.68601)
(0.0016324 0.00149668 1.7708)
(0.000947967 0.00164114 1.81175)
(0.000188675 0.00166823 1.81201)
(-0.000529305 0.00157996 1.77162)
(-0.00109324 0.00138056 1.68744)
(-0.00142994 0.00110297 1.55391)
(-0.00155796 0.000791407 1.36295)
(0.00245458 0.000200527 1.43436)
(0.00252433 0.000481684 1.63268)
(0.00228005 0.000729294 1.77046)
(0.00172108 0.000909258 1.85572)
(0.000950847 0.000996056 1.89566)
(0.000105554 0.00101273 1.89589)
(-0.000695935 0.000962804 1.85644)
(-0.00132354 0.000824006 1.77176)
(-0.00167806 0.000622714 1.63464)
(-0.00177219 0.000392633 1.43702)
(0.00251997 -0.000209157 1.4718)
(0.00260646 -6.74675e-05 1.67235)
(0.00235209 5.151e-05 1.81105)
(0.00175036 0.000133867 1.89535)
(0.000940687 0.000169953 1.93269)
(7.08618e-05 0.000179295 1.93287)
(-0.00076818 0.0001634 1.89601)
(-0.00143845 0.000104762 1.81229)
(-0.00180395 1.41782e-05 1.67425)
(-0.00187761 -9.54896e-05 1.4744)
(0.00248718 -0.000645113 1.47162)
(0.00258055 -0.000658078 1.67221)
(0.00233398 -0.000678516 1.81093)
(0.00173836 -0.000695106 1.89525)
(0.000932648 -0.000694838 1.93261)
(6.62847e-05 -0.000692222 1.93279)
(-0.000769114 -0.000687211 1.89591)
(-0.001434 -0.000663598 1.81218)
(-0.00179273 -0.000633034 1.67411)
(-0.00185925 -0.00060804 1.47423)
(0.00235476 -0.00103326 1.43383)
(0.00244482 -0.00118936 1.63225)
(0.00222357 -0.00134044 1.77009)
(0.00168245 -0.00145559 1.8554)
(0.000925403 -0.00150662 1.89537)
(9.138e-05 -0.0015111 1.8956)
(-0.000697978 -0.00147075 1.85613)
(-0.00130997 -0.00136529 1.77141)
(-0.00164452 -0.0012217 1.63423)
(-0.00171736 -0.00107278 1.43653)
(0.00213758 -0.00131042 1.35925)
(0.00221347 -0.00156886 1.55107)
(0.0020251 -0.00181543 1.68537)
(0.00156183 -0.00201002 1.77023)
(0.000901046 -0.00211816 1.81121)
(0.000162582 -0.00213227 1.81148)
(-0.00053352 -0.00205251 1.77106)
(-0.0010714 -0.00188421 1.68682)
(-0.0013759 -0.00166069 1.5532)
(-0.0014711 -0.00142312 1.36212)
(0.00186464 -0.00144291 1.25025)
(0.00192074 -0.00174344 1.4258)
(0.00176818 -0.00202703 1.55122)
(0.00139954 -0.00225583 1.63255)
(0.000867642 -0.00239159 1.67267)
(0.000265728 -0.00241636 1.67298)
(-0.000305292 -0.00232922 1.6335)
(-0.000754079 -0.00214408 1.55285)
(-0.00102532 -0.00189865 1.42815)
(-0.00114568 -0.0016272 1.25333)
(0.00155376 -0.00143296 1.11083)
(0.00159834 -0.00172119 1.25038)
(0.00148739 -0.00198728 1.35954)
(0.00122117 -0.00220265 1.43428)
(0.000831374 -0.00233667 1.47226)
(0.000382191 -0.00237041 1.47263)
(-5.17282e-05 -0.00230258 1.4354)
(-0.000407634 -0.00214363 1.36142)
(-0.000645255 -0.00192877 1.25302)
(-0.000793813 -0.00166017 1.11415)
(0.000845494 -0.000351275 1.11399)
(0.00102346 -0.000229184 1.25361)
(0.00108468 -6.04816e-05 1.363)
(0.00105566 9.04867e-05 1.43806)
(0.000948105 0.000204498 1.47632)
(0.000793786 0.000261171 1.47689)
(0.000624614 0.000257582 1.43976)
(0.000468426 0.000199259 1.36584)
(0.000346281 0.000107668 1.25756)
(0.000236662 -9.16187e-07 1.11895)
(0.000885984 -0.000357526 1.25307)
(0.00108527 -0.000174162 1.42891)
(0.00114235 2.4251e-05 1.55484)
(0.00107646 0.000195808 1.63673)
(0.000914844 0.00031297 1.67726)
(0.000702635 0.000358658 1.67775)
(0.000487165 0.000330493 1.63821)
(0.000309956 0.000237106 1.55737)
(0.000199542 0.00010029 1.43251)
(0.000142057 -5.30021e-05 1.25775)
(0.000905961 -0.000357649 1.36184)
(0.00113741 -0.000173009 1.55425)
(0.00119435 1.39218e-05 1.6894)
(0.00109587 0.000170362 1.77507)
(0.000882611 0.00027029 1.8166)
(0.000614357 0.000301586 1.81702)
(0.000352658 0.000263377 1.77639)
(0.000151816 0.000162714 1.69168)
(4.79079e-05 1.948e-05 1.55758)
(3.5828e-05 -0.000142432 1.36626)
(0.000923712 -0.000402349 1.43619)
(0.00117469 -0.000255821 1.63552)
(0.00123174 -0.000111538 1.77449)
(0.00110858 5.42397e-06 1.86082)
(0.000855447 7.32323e-05 1.90141)
(0.000544568 9.14122e-05 1.90179)
(0.000246958 6.09523e-05 1.862)
(2.71494e-05 -2.21264e-05 1.7766)
(-7.04409e-05 -0.000141281 1.63865)
(-4.51884e-05 -0.000279052 1.44041)
(0.000911903 -0.000471775 1.47369)
(0.00117712 -0.000393472 1.67539)
(0.00123825 -0.000315853 1.81543)
(0.00110193 -0.000254728 1.90089)
(0.000830015 -0.000221717 1.93888)
(0.000505012 -0.000213296 1.93919)
(0.000191807 -0.000230648 1.90198)
(-3.86798e-05 -0.000279789 1.81744)
(-0.000128887 -0.00035341 1.67842)
(-7.84144e-05 -0.000443857 1.4778)
(0.000865563 -0.000543225 1.47341)
(0.00113456 -0.000543767 1.67515)
(0.00120395 -0.000541687 1.81523)
(0.00107577 -0.000541281 1.90072)
(0.000810418 -0.000538859 1.93874)
(0.00049179 -0.000539595 1.93905)
(0.000185332 -0.000545627 1.9018)
(-3.58741e-05 -0.000554738 1.81724)
(-0.000114892 -0.000574023 1.67817)
(-5.30535e-05 -0.000606915 1.47751)
(0.000784694 -0.000584478 1.43534)
(0.00104635 -0.000656994 1.63479)
(0.00112709 -0.000723837 1.77386)
(0.0010272 -0.000780112 1.86027)
(0.000794885 -0.00081279 1.90091)
(0.000503984 -0.000822629 1.90128)
(0.000228351 -0.000813365 1.86144)
(3.57596e-05 -0.000785612 1.77596)
(-2.86792e-05 -0.000755604 1.6379)
(3.05224e-05 -0.000735867 1.43953)
(0.000681059 -0.000569691 1.3604)
(0.000924315 -0.000688501 1.55301)
(0.00101676 -0.000801616 1.6883)
(0.000955021 -0.000898217 1.77407)
(0.000777324 -0.000961695 1.81565)
(0.000544438 -0.000982733 1.81607)
(0.000321399 -0.000963198 1.77538)
(0.000165668 -0.00091359 1.69056)
(0.000115193 -0.000853374 1.55631)
(0.000155486 -0.000798732 1.36477)
(0.000577516 -0.000484156 1.25106)
(0.000789227 -0.000609697 1.42711)
(0.000889965 -0.000735613 1.55321)
(0.000872021 -0.00084729 1.63521)
(0.000761179 -0.000925433 1.67581)
(0.000601655 -0.000957974 1.67629)
(0.000443259 -0.000945486 1.63669)
(0.000329407 -0.0008987 1.55572)
(0.000291635 -0.000840119 1.43067)
(0.000305037 -0.000782521 1.25567)
(0.000490044 -0.000344065 1.11143)
(0.00065692 -0.000427754 1.25123)
(0.000759896 -0.000528223 1.36079)
(0.000785642 -0.000625739 1.43597)
(0.000744676 -0.000701087 1.4743)
(0.000662533 -0.000741759 1.47486)
(0.000571679 -0.000747785 1.43766)
(0.000497299 -0.000724655 1.3636)
(0.000462384 -0.000700601 1.25513)
(0.000422428 -0.000665736 1.1163)
(0.000949162 -7.15739e-05 1.11121)
(0.00109515 -3.15049e-05 1.25142)
(0.00113488 5.83551e-05 1.36143)
(0.00109861 0.000147073 1.43704)
(0.000991059 0.000222893 1.47572)
(0.000833286 0.00026732 1.47656)
(0.000644736 0.00027205 1.43954)
(0.000444162 0.000232819 1.36562)
(0.000247772 0.000153277 1.25724)
(5.82427e-05 3.70914e-05 1.1185)
(0.0010363 -0.000142446 1.25058)
(0.0011668 -9.12426e-05 1.42721)
(0.00119142 -5.65812e-06 1.55392)
(0.00112903 8.19483e-05 1.63645)
(0.000993513 0.000150522 1.67744)
(0.000809949 0.000184376 1.67817)
(0.000601958 0.000175362 1.63866)
(0.000390717 0.000120405 1.55767)
(0.000191632 2.56135e-05 1.43254)
(4.93011e-06 -9.45437e-05 1.25748)
(0.00106398 -0.000202016 1.35962)
(0.00119504 -0.000164214 1.553)
(0.00121131 -9.52654e-05 1.68905)
(0.00112867 -2.452e-05 1.77546)
(0.000969595 2.63771e-05 1.81748)
(0.000764653 4.58673e-05 1.81812)
(0.000540584 2.76041e-05 1.77743)
(0.000321445 -3.24825e-05 1.69246)
(0.000124797 -0.00012813 1.55794)
(-4.81194e-05 -0.000244975 1.36614)
(0.00107039 -0.000274008 1.43417)
(0.00119635 -0.000264253 1.63458)
(0.00120605 -0.000224205 1.77457)
(0.00110953 -0.000180412 1.86171)
(0.000934989 -0.000153212 1.90281)
(0.0007179 -0.000147886 1.90337)
(0.000485398 -0.00016854 1.86348)
(0.000263336 -0.00022461 1.77771)
(7.36656e-05 -0.000310369 1.63923)
(-8.12507e-05 -0.000413998 1.44038)
(0.0010503 -0.000347724 1.47173)
(0.00117241 -0.000379039 1.67458)
(0.00118051 -0.000377659 1.81569)
(0.00107824 -0.000366206 1.902)
(0.000899351 -0.000360836 1.9405)
(0.000684003 -0.000366438 1.94096)
(0.000453331 -0.000389434 1.90363)
(0.000233329 -0.00043691 1.81869)
(5.38075e-05 -0.000505525 1.67905)
(-8.41774e-05 -0.000587693 1.47773)
(0.00100972 -0.000414053 1.47135)
(0.00112676 -0.000490387 1.67423)
(0.00113812 -0.000531002 1.81538)
(0.00104263 -0.000552679 1.90172)
(0.00087128 -0.00056542 1.94026)
(0.00066431 -0.000581387 1.94073)
(0.000442951 -0.000607653 1.90334)
(0.000235679 -0.000644111 1.81834)
(7.0949e-05 -0.000691587 1.67864)
(-5.30649e-05 -0.00074706 1.47725)
(0.00095269 -0.000457538 1.43303)
(0.0010627 -0.000575663 1.63353)
(0.00108015 -0.000656061 1.77361)
(0.00100166 -0.000710543 1.86083)
(0.000849829 -0.000745547 1.90198)
(0.000658464 -0.000771462 1.90253)
(0.00045617 -0.000796649 1.86255)
(0.000271445 -0.000820202 1.77665)
(0.000125496 -0.000845667 1.638)
(1.21029e-05 -0.000873596 1.43893)
(0.000885408 -0.000467207 1.3577)
(0.000986544 -0.000613764 1.55122)
(0.0010103 -0.000724077 1.68739)
(0.00095318 -0.000805666 1.77389)
(0.000830364 -0.000862677 1.81595)
(0.000669093 -0.000899957 1.81656)
(0.000496748 -0.000923542 1.77576)
(0.00033835 -0.000936914 1.6906)
(0.000211223 -0.000944603 1.55584)
(0.00010107 -0.000947047 1.36371)
(0.000820455 -0.00043703 1.24791)
(0.000908293 -0.000592012 1.42467)
(0.000935671 -0.000716405 1.55149)
(0.000901902 -0.000813606 1.63409)
(0.000814027 -0.000885365 1.67511)
(0.000691141 -0.000933386 1.67579)
(0.000555145 -0.000961953 1.63614)
(0.000425427 -0.000974173 1.55494)
(0.000317693 -0.000976858 1.42952)
(0.000212946 -0.000963686 1.25408)
(0.000755529 -0.000384765 1.10786)
(0.000832003 -0.000523634 1.24813)
(0.000861692 -0.000643193 1.3582)
(0.000850555 -0.000739453 1.43385)
(0.000798394 -0.000814761 1.47253)
(0.000715895 -0.00086764 1.47328)
(0.000617804 -0.000901388 1.43611)