/*--------------------------------*- C++ -*----------------------------------*\
| =========                 |                                                 |
| \\      /  F ield         | OpenFOAM: The Open Source CFD Toolbox           |
|  \\    /   O peration     | Version:  2406                                  |
|   \\  /    A nd           | Website:  www.openfoam.com                      |
|    \\/     M anipulation  |                                                 |
\*---------------------------------------------------------------------------*/
FoamFile
{
    version     2.0;
    format      ascii;
    arch        "LSB;label=32;scalar=64";
    class       volScalarField;
    location    "1.1";
    object      div(phi);
}
// * * * * * * * * * * * * * * * * * * * * * * * * * * * * * * * * * * * * * //

dimensions      [0 0 -1 0 0 0 0];

internalField   nonuniform List<scalar> 
25000
(
-7.58114e-05
-7.07369e-05
-7.18456e-05
-7.14804e-05
-7.1054e-05
-6.977e-05
-6.9235e-05
-6.93115e-05
-6.85015e-05
-5.74809e-05
-6.83908e-05
-6.07406e-05
-6.19782e-05
-6.19759e-05
-6.0461e-05
-5.93218e-05
-5.85819e-05
-5.82532e-05
-5.73095e-05
-4.57988e-05
-6.74873e-05
-6.03701e-05
-6.12415e-05
-6.20674e-05
-6.05546e-05
-5.83057e-05
-5.80313e-05
-5.80901e-05
-5.62422e-05
-4.58166e-05
-6.62821e-05
-5.78196e-05
-6.06402e-05
-6.08888e-05
-5.92659e-05
-5.75399e-05
-5.69945e-05
-5.69813e-05
-5.57713e-05
-4.53172e-05
-6.49551e-05
-5.67179e-05
-5.83819e-05
-5.95942e-05
-5.80627e-05
-5.62553e-05
-5.6076e-05
-5.61459e-05
-5.45637e-05
-4.46237e-05
-6.31609e-05
-5.41373e-05
-5.67874e-05
-5.73355e-05
-5.63527e-05
-5.46474e-05
-5.42533e-05
-5.45807e-05
-5.34063e-05
-4.31191e-05
-6.15356e-05
-5.21747e-05
-5.37578e-05
-5.51636e-05
-5.32681e-05
-5.2078e-05
-5.27348e-05
-5.24289e-05
-5.09837e-05
-4.16536e-05
-5.82343e-05
-4.96053e-05
-5.12828e-05
-5.11619e-05
-5.03015e-05
-5.03664e-05
-4.92509e-05
-5.00572e-05
-4.96894e-05
-3.94803e-05
-5.55007e-05
-4.57684e-05
-4.66268e-05
-4.69288e-05
-4.66862e-05
-4.54761e-05
-4.63315e-05
-4.69396e-05
-4.51582e-05
-3.59673e-05
-4.47455e-05
-3.55976e-05
-3.66324e-05
-3.69953e-05
-3.6755e-05
-3.70601e-05
-3.71156e-05
-3.67791e-05
-3.56055e-05
-2.75264e-05
-8.15128e-05
-7.4841e-05
-7.3678e-05
-7.10633e-05
-6.91744e-05
-6.79186e-05
-6.80982e-05
-6.95138e-05
-7.08796e-05
-5.98904e-05
-7.08941e-05
-6.0276e-05
-5.9109e-05
-5.81764e-05
-5.64247e-05
-5.51186e-05
-5.54868e-05
-5.64853e-05
-5.71601e-05
-4.75999e-05
-6.71871e-05
-5.73227e-05
-5.74249e-05
-5.75217e-05
-5.59268e-05
-5.4264e-05
-5.39739e-05
-5.45992e-05
-5.5018e-05
-4.65596e-05
-6.49573e-05
-5.45585e-05
-5.6107e-05
-5.66325e-05
-5.52133e-05
-5.33844e-05
-5.31957e-05
-5.34948e-05
-5.31714e-05
-4.54304e-05
-6.29978e-05
-5.29076e-05
-5.45365e-05
-5.56445e-05
-5.41827e-05
-5.27519e-05
-5.23831e-05
-5.2343e-05
-5.20285e-05
-4.4349e-05
-6.20143e-05
-5.13388e-05
-5.31577e-05
-5.38783e-05
-5.30133e-05
-5.12509e-05
-5.09695e-05
-5.13507e-05
-5.10004e-05
-4.32195e-05
-6.17743e-05
-5.0144e-05
-5.10588e-05
-5.21558e-05
-5.02498e-05
-4.91852e-05
-4.9825e-05
-4.96908e-05
-4.96868e-05
-4.2582e-05
-6.02722e-05
-4.92427e-05
-4.94982e-05
-4.88631e-05
-4.774e-05
-4.7832e-05
-4.69708e-05
-4.84605e-05
-4.9856e-05
-4.13135e-05
-5.91906e-05
-4.74139e-05
-4.67711e-05
-4.6126e-05
-4.54447e-05
-4.42287e-05
-4.56156e-05
-4.72428e-05
-4.71106e-05
-3.84307e-05
-4.86525e-05
-3.85051e-05
-3.8792e-05
-3.84394e-05
-3.76998e-05
-3.80159e-05
-3.83965e-05
-3.8661e-05
-3.80005e-05
-2.91743e-05
-0.000100379
-9.28232e-05
-9.14648e-05
-8.75702e-05
-8.43784e-05
-8.19222e-05
-8.12738e-05
-8.21712e-05
-8.25902e-05
-6.86021e-05
-8.79398e-05
-7.47173e-05
-7.16029e-05
-6.86519e-05
-6.49057e-05
-6.28715e-05
-6.33471e-05
-6.49129e-05
-6.5761e-05
-5.4122e-05
-8.26383e-05
-6.90563e-05
-6.62939e-05
-6.35663e-05
-6.00241e-05
-5.77835e-05
-5.81429e-05
-6.03372e-05
-6.21578e-05
-5.24838e-05
-7.82043e-05
-6.34491e-05
-6.16911e-05
-5.915e-05
-5.59895e-05
-5.36476e-05
-5.4474e-05
-5.69313e-05
-5.86081e-05
-5.08211e-05
-7.43865e-05
-5.98365e-05
-5.79985e-05
-5.62328e-05
-5.31668e-05
-5.1566e-05
-5.20719e-05
-5.42663e-05
-5.66875e-05
-4.91763e-05
-7.19543e-05
-5.73673e-05
-5.60083e-05
-5.39855e-05
-5.17808e-05
-4.968e-05
-5.05609e-05
-5.33429e-05
-5.52407e-05
-4.78173e-05
-7.08629e-05
-5.61121e-05
-5.43782e-05
-5.32191e-05
-4.98407e-05
-4.88358e-05
-5.06001e-05
-5.24195e-05
-5.44835e-05
-4.69796e-05
-6.8292e-05
-5.54426e-05
-5.41212e-05
-5.16148e-05
-4.95055e-05
-4.96067e-05
-4.96197e-05
-5.28151e-05
-5.50363e-05
-4.55643e-05
-6.62307e-05
-5.33327e-05
-5.21049e-05
-5.05526e-05
-4.93297e-05
-4.80284e-05
-5.01539e-05
-5.2321e-05
-5.23328e-05
-4.21262e-05
-5.34195e-05
-4.27797e-05
-4.31117e-05
-4.2649e-05
-4.17431e-05
-4.21909e-05
-4.27121e-05
-4.30659e-05
-4.20303e-05
-3.19155e-05
-8.95099e-05
-8.43935e-05
-8.49125e-05
-8.26106e-05
-8.12509e-05
-8.07193e-05
-8.09301e-05
-8.18967e-05
-8.25883e-05
-6.73447e-05
-7.93077e-05
-6.8534e-05
-6.62037e-05
-6.47328e-05
-6.24784e-05
-6.10937e-05
-6.32074e-05
-6.5396e-05
-6.54514e-05
-5.37098e-05
-7.43435e-05
-6.29879e-05
-6.21208e-05
-5.95047e-05
-5.66079e-05
-5.60736e-05
-5.72987e-05
-6.02439e-05
-6.28405e-05
-5.20125e-05
-7.15498e-05
-5.90555e-05
-5.67657e-05
-5.45253e-05
-5.13799e-05
-4.9835e-05
-5.31517e-05
-5.71206e-05
-5.84709e-05
-5.06521e-05
-6.81271e-05
-5.5127e-05
-5.39672e-05
-5.08949e-05
-4.70752e-05
-4.71989e-05
-4.99491e-05
-5.37505e-05
-5.71563e-05
-4.88503e-05
-6.67632e-05
-5.40265e-05
-5.21389e-05
-4.95128e-05
-4.68329e-05
-4.57123e-05
-4.90166e-05
-5.34517e-05
-5.52529e-05
-4.76638e-05
-6.60822e-05
-5.29542e-05
-5.19414e-05
-5.04636e-05
-4.70671e-05
-4.70865e-05
-5.00816e-05
-5.25136e-05
-5.493e-05
-4.67353e-05
-6.43212e-05
-5.31124e-05
-5.22876e-05
-5.02684e-05
-4.84949e-05
-4.91256e-05
-4.96926e-05
-5.33356e-05
-5.51126e-05
-4.51786e-05
-6.2551e-05
-5.12864e-05
-5.08476e-05
-4.98729e-05
-4.90613e-05
-4.80234e-05
-5.04589e-05
-5.23573e-05
-5.2187e-05
-4.14451e-05
-5.06202e-05
-4.13955e-05
-4.23732e-05
-4.23775e-05
-4.16961e-05
-4.22504e-05
-4.25801e-05
-4.26721e-05
-4.12386e-05
-3.08803e-05
-0.000112877
-0.000105264
-0.000104671
-0.000100225
-9.62707e-05
-9.30639e-05
-9.09742e-05
-9.02527e-05
-9.00115e-05
-7.29513e-05
-9.87295e-05
-8.46318e-05
-8.05608e-05
-7.73391e-05
-7.24983e-05
-6.93798e-05
-6.99485e-05
-7.12419e-05
-7.03553e-05
-5.74826e-05
-9.10039e-05
-7.64034e-05
-7.38796e-05
-6.95599e-05
-6.44285e-05
-6.22356e-05
-6.24941e-05
-6.46362e-05
-6.69585e-05
-5.50236e-05
-8.51514e-05
-6.95246e-05
-6.62627e-05
-6.18166e-05
-5.62888e-05
-5.34408e-05
-5.6659e-05
-6.05433e-05
-6.1337e-05
-5.31198e-05
-7.93625e-05
-6.35883e-05
-6.09752e-05
-5.56351e-05
-4.92503e-05
-4.8816e-05
-5.20553e-05
-5.59371e-05
-5.95312e-05
-5.06402e-05
-7.60062e-05
-6.06829e-05
-5.7661e-05
-5.29775e-05
-4.84121e-05
-4.66335e-05
-5.05252e-05
-5.5235e-05
-5.67016e-05
-4.90667e-05
-7.38369e-05
-5.83323e-05
-5.62683e-05
-5.36999e-05
-4.884e-05
-4.85387e-05
-5.13623e-05
-5.35864e-05
-5.61957e-05
-4.76574e-05
-7.0315e-05
-5.73062e-05
-5.57346e-05
-5.27001e-05
-5.0257e-05
-5.0256e-05
-5.05788e-05
-5.42963e-05
-5.57886e-05
-4.58906e-05
-6.73684e-05
-5.42493e-05
-5.32188e-05
-5.15132e-05
-5.0153e-05
-4.87368e-05
-5.11074e-05
-5.28161e-05
-5.2793e-05
-4.19092e-05
-5.35888e-05
-4.31178e-05
-4.35304e-05
-4.31137e-05
-4.20664e-05
-4.25177e-05
-4.28395e-05
-4.31139e-05
-4.17479e-05
-3.141e-05
-8.31991e-05
-7.97254e-05
-8.14921e-05
-7.95613e-05
-7.88737e-05
-7.91002e-05
-7.94564e-05
-8.02805e-05
-8.15582e-05
-6.55865e-05
-7.50257e-05
-6.58941e-05
-6.35838e-05
-6.31953e-05
-6.15816e-05
-6.0093e-05
-6.30559e-05
-6.53354e-05
-6.41963e-05
-5.27865e-05
-7.00199e-05
-5.99886e-05
-6.06891e-05
-5.80558e-05
-5.53555e-05
-5.57616e-05
-5.67872e-05
-5.95462e-05
-6.27041e-05
-5.07847e-05
-6.82823e-05
-5.71885e-05
-5.45699e-05
-5.28884e-05
-4.95546e-05
-4.7904e-05
-5.26012e-05
-5.69787e-05
-5.71946e-05
-4.9642e-05
-6.4637e-05
-5.25094e-05
-5.23146e-05
-4.84282e-05
-4.36776e-05
-4.48707e-05
-4.86358e-05
-5.26582e-05
-5.65851e-05
-4.74154e-05
-6.37124e-05
-5.21254e-05
-4.99424e-05
-4.71548e-05
-4.39996e-05
-4.30837e-05
-4.78172e-05
-5.27879e-05
-5.36698e-05
-4.6282e-05
-6.28738e-05
-5.04771e-05
-5.0153e-05
-4.86451e-05
-4.50746e-05
-4.57317e-05
-4.89324e-05
-5.1054e-05
-5.36868e-05
-4.49869e-05
-6.11905e-05
-5.08354e-05
-5.02065e-05
-4.85194e-05
-4.70294e-05
-4.76531e-05
-4.82882e-05
-5.20383e-05
-5.30207e-05
-4.32734e-05
-5.9371e-05
-4.87688e-05
-4.87983e-05
-4.81127e-05
-4.74966e-05
-4.64999e-05
-4.89647e-05
-5.02725e-05
-5.00766e-05
-3.93416e-05
-4.79404e-05
-3.94818e-05
-4.0698e-05
-4.09359e-05
-4.02958e-05
-4.0828e-05
-4.08769e-05
-4.07891e-05
-3.90867e-05
-2.90271e-05
-0.000116103
-0.000108394
-0.000108203
-0.000103816
-9.975e-05
-9.6431e-05
-9.39867e-05
-9.29827e-05
-9.29305e-05
-7.49808e-05
-0.000103093
-8.88661e-05
-8.44761e-05
-8.11381e-05
-7.5736e-05
-7.21241e-05
-7.25682e-05
-7.37269e-05
-7.21696e-05
-5.90363e-05
-9.46159e-05
-7.98678e-05
-7.74379e-05
-7.2724e-05
-6.70489e-05
-6.46703e-05
-6.45244e-05
-6.63355e-05
-6.89099e-05
-5.61395e-05
-8.79221e-05
-7.22849e-05
-6.88961e-05
-6.41806e-05
-5.80906e-05
-5.47454e-05
-5.81962e-05
-6.21434e-05
-6.23256e-05
-5.41184e-05
-8.10452e-05
-6.53888e-05
-6.29424e-05
-5.70552e-05
-4.99715e-05
-4.96344e-05
-5.29386e-05
-5.67042e-05
-6.06477e-05
-5.12069e-05
-7.70376e-05
-6.19974e-05
-5.8866e-05
-5.39273e-05
-4.89537e-05
-4.69135e-05
-5.1146e-05
-5.60469e-05
-5.70701e-05
-4.95657e-05
-7.41542e-05
-5.89873e-05
-5.71192e-05
-5.44158e-05
-4.92229e-05
-4.90261e-05
-5.1785e-05
-5.38225e-05
-5.67376e-05
-4.79096e-05
-7.01784e-05
-5.76264e-05
-5.61449e-05
-5.30572e-05
-5.06093e-05
-5.04391e-05
-5.07749e-05
-5.46795e-05
-5.59413e-05
-4.61478e-05
-6.69119e-05
-5.4217e-05
-5.33204e-05
-5.16756e-05
-5.02634e-05
-4.88922e-05
-5.13506e-05
-5.2983e-05
-5.31521e-05
-4.21487e-05
-5.30431e-05
-4.29799e-05
-4.34879e-05
-4.31308e-05
-4.21364e-05
-4.2687e-05
-4.31095e-05
-4.35549e-05
-4.22306e-05
-3.18255e-05
-7.53702e-05
-7.31201e-05
-7.51235e-05
-7.34152e-05
-7.30409e-05
-7.37626e-05
-7.44743e-05
-7.54621e-05
-7.70753e-05
-6.18325e-05
-6.68164e-05
-5.97e-05
-5.81612e-05
-5.83096e-05
-5.75435e-05
-5.62559e-05
-5.9661e-05
-6.20548e-05
-6.07257e-05
-5.01121e-05
-6.19275e-05
-5.4176e-05
-5.588e-05
-5.38731e-05
-5.17877e-05
-5.27784e-05
-5.38367e-05
-5.65705e-05
-5.98792e-05
-4.82638e-05
-6.0574e-05
-5.21377e-05
-5.01678e-05
-4.93436e-05
-4.66738e-05
-4.52805e-05
-5.01657e-05
-5.45178e-05
-5.44504e-05
-4.73845e-05
-5.7294e-05
-4.77899e-05
-4.85583e-05
-4.53669e-05
-4.11999e-05
-4.27218e-05
-4.64507e-05
-5.03017e-05
-5.42458e-05
-4.5265e-05
-5.66351e-05
-4.78741e-05
-4.64726e-05
-4.45105e-05
-4.17456e-05
-4.11067e-05
-4.57856e-05
-5.06928e-05
-5.13274e-05
-4.43283e-05
-5.59627e-05
-4.65411e-05
-4.71805e-05
-4.60527e-05
-4.31121e-05
-4.37946e-05
-4.69667e-05
-4.89572e-05
-5.15325e-05
-4.311e-05
-5.49233e-05
-4.72e-05
-4.74041e-05
-4.63108e-05
-4.50721e-05
-4.57115e-05
-4.64321e-05
-4.99406e-05
-5.08735e-05
-4.15206e-05
-5.33543e-05
-4.58425e-05
-4.62285e-05
-4.62083e-05
-4.5548e-05
-4.48991e-05
-4.69951e-05
-4.83909e-05
-4.80712e-05
-3.77494e-05
-4.34618e-05
-3.70172e-05
-3.88403e-05
-3.92627e-05
-3.89508e-05
-3.93874e-05
-3.94954e-05
-3.93268e-05
-3.75915e-05
-2.79496e-05
-0.00012252
-0.000112267
-0.000109756
-0.000103626
-9.73206e-05
-9.19533e-05
-8.79916e-05
-8.577e-05
-8.47271e-05
-6.84113e-05
-0.000105985
-8.95605e-05
-8.44266e-05
-7.92351e-05
-7.26311e-05
-6.79918e-05
-6.701e-05
-6.72766e-05
-6.56345e-05
-5.35122e-05
-9.70914e-05
-8.04406e-05
-7.60629e-05
-7.06463e-05
-6.39635e-05
-6.03393e-05
-5.9481e-05
-6.05032e-05
-6.21957e-05
-5.08199e-05
-8.92699e-05
-7.18166e-05
-6.79758e-05
-6.1902e-05
-5.50056e-05
-5.11134e-05
-5.32881e-05
-5.6312e-05
-5.63771e-05
-4.87925e-05
-8.29943e-05
-6.55187e-05
-6.13969e-05
-5.49394e-05
-4.73133e-05
-4.59078e-05
-4.84591e-05
-5.14367e-05
-5.4485e-05
-4.61463e-05
-7.86497e-05
-6.16263e-05
-5.7831e-05
-5.1929e-05
-4.60703e-05
-4.36695e-05
-4.66165e-05
-5.05775e-05
-5.13994e-05
-4.45288e-05
-7.63795e-05
-5.93012e-05
-5.61393e-05
-5.22817e-05
-4.67471e-05
-4.52682e-05
-4.72088e-05
-4.86834e-05
-5.07717e-05
-4.29606e-05
-7.24494e-05
-5.7838e-05
-5.53362e-05
-5.12241e-05
-4.76845e-05
-4.65017e-05
-4.62536e-05
-4.89113e-05
-5.00694e-05
-4.1187e-05
-6.91469e-05
-5.48863e-05
-5.22009e-05
-4.96659e-05
-4.67523e-05
-4.50086e-05
-4.59707e-05
-4.74778e-05
-4.70733e-05
-3.73582e-05
-5.47537e-05
-4.25659e-05
-4.20937e-05
-4.04622e-05
-3.88782e-05
-3.84064e-05
-3.84623e-05
-3.84561e-05
-3.71082e-05
-2.80825e-05
-5.14722e-05
-5.16015e-05
-5.44807e-05
-5.48643e-05
-5.60006e-05
-5.75319e-05
-5.9053e-05
-6.02691e-05
-6.10267e-05
-4.93577e-05
-4.88082e-05
-4.4407e-05
-4.46222e-05
-4.48583e-05
-4.53151e-05
-4.48072e-05
-4.7737e-05
-4.97659e-05
-4.93513e-05
-4.04253e-05
-4.87438e-05
-4.27944e-05
-4.39477e-05
-4.31053e-05
-4.18324e-05
-4.26578e-05
-4.40747e-05
-4.6642e-05
-4.86267e-05
-3.96865e-05
-5.00709e-05
-4.26449e-05
-4.1527e-05
-4.06598e-05
-3.85847e-05
-3.79197e-05
-4.16855e-05
-4.51287e-05
-4.56244e-05
-3.91862e-05
-5.05368e-05
-4.14281e-05
-4.11523e-05
-3.8733e-05
-3.52642e-05
-3.60584e-05
-3.95352e-05
-4.28452e-05
-4.52316e-05
-3.80965e-05
-5.14198e-05
-4.24328e-05
-4.13093e-05
-3.91943e-05
-3.62673e-05
-3.61066e-05
-3.93849e-05
-4.31475e-05
-4.40001e-05
-3.74304e-05
-5.32495e-05
-4.33387e-05
-4.3106e-05
-4.14172e-05
-3.89885e-05
-3.84111e-05
-4.10504e-05
-4.26871e-05
-4.38047e-05
-3.67846e-05
-5.36555e-05
-4.47739e-05
-4.44312e-05
-4.28429e-05
-4.07627e-05
-4.07676e-05
-4.10053e-05
-4.28671e-05
-4.3909e-05
-3.53317e-05
-5.31721e-05
-4.48089e-05
-4.35872e-05
-4.30132e-05
-4.10261e-05
-4.02224e-05
-4.06192e-05
-4.2081e-05
-4.07746e-05
-3.19608e-05
-4.37538e-05
-3.53831e-05
-3.64204e-05
-3.56691e-05
-3.497e-05
-3.43381e-05
-3.411e-05
-3.32717e-05
-3.14345e-05
-2.33253e-05
-0.000110264
-0.000101518
-9.99564e-05
-9.56741e-05
-8.99741e-05
-8.44181e-05
-8.0622e-05
-7.82309e-05
-7.62297e-05
-6.23916e-05
-9.6492e-05
-8.21061e-05
-7.87865e-05
-7.32296e-05
-6.69686e-05
-6.27321e-05
-6.07225e-05
-6.06127e-05
-6.01063e-05
-4.86199e-05
-8.93776e-05
-7.48465e-05
-6.99068e-05
-6.56501e-05
-5.92828e-05
-5.49157e-05
-5.45142e-05
-5.54749e-05
-5.58884e-05
-4.68152e-05
-8.08842e-05
-6.57178e-05
-6.36358e-05
-5.73925e-05
-5.07409e-05
-4.75321e-05
-4.85729e-05
-5.10157e-05
-5.22472e-05
-4.47755e-05
-7.57432e-05
-6.10906e-05
-5.66368e-05
-5.12861e-05
-4.423e-05
-4.204e-05
-4.48233e-05
-4.77897e-05
-4.95412e-05
-4.30764e-05
-7.10026e-05
-5.6668e-05
-5.44258e-05
-4.87401e-05
-4.28968e-05
-4.12216e-05
-4.31654e-05
-4.64816e-05
-4.83264e-05
-4.15447e-05
-6.96539e-05
-5.58465e-05
-5.29249e-05
-4.94335e-05
-4.46531e-05
-4.23384e-05
-4.43307e-05
-4.61328e-05
-4.71679e-05
-4.074e-05
-6.64448e-05
-5.44944e-05
-5.29139e-05
-4.91262e-05
-4.53966e-05
-4.4275e-05
-4.40114e-05
-4.57895e-05
-4.78671e-05
-3.92837e-05
-6.39994e-05
-5.2671e-05
-4.99361e-05
-4.77499e-05
-4.44909e-05
-4.30922e-05
-4.33623e-05
-4.57545e-05
-4.4858e-05
-3.61041e-05
-5.11461e-05
-4.03367e-05
-4.01237e-05
-3.83024e-05
-3.70191e-05
-3.63738e-05
-3.68939e-05
-3.69289e-05
-3.59737e-05
-2.75227e-05
-3.76878e-05
-3.91369e-05
-4.20501e-05
-4.27936e-05
-4.42271e-05
-4.59571e-05
-4.78881e-05
-4.90688e-05
-4.97118e-05
-4.04927e-05
-3.50549e-05
-3.31051e-05
-3.444e-05
-3.49928e-05
-3.65305e-05
-3.63129e-05
-3.91759e-05
-4.10898e-05
-4.11161e-05
-3.36835e-05
-3.51246e-05
-3.22436e-05
-3.42331e-05
-3.43536e-05
-3.39208e-05
-3.50819e-05
-3.66996e-05
-3.92067e-05
-4.06947e-05
-3.3648e-05
-3.67636e-05
-3.27952e-05
-3.26891e-05
-3.28101e-05
-3.17583e-05
-3.17525e-05
-3.50955e-05
-3.81584e-05
-3.90487e-05
-3.34379e-05
-3.76105e-05
-3.22545e-05
-3.29587e-05
-3.18201e-05
-2.95225e-05
-3.04115e-05
-3.38166e-05
-3.69394e-05
-3.8665e-05
-3.30309e-05
-3.87528e-05
-3.36322e-05
-3.37345e-05
-3.27743e-05
-3.06684e-05
-3.12005e-05
-3.39446e-05
-3.72616e-05
-3.84819e-05
-3.2617e-05
-4.093e-05
-3.50786e-05
-3.59648e-05
-3.5056e-05
-3.38305e-05
-3.31964e-05
-3.58472e-05
-3.75937e-05
-3.81927e-05
-3.24879e-05
-4.21735e-05
-3.69504e-05
-3.76507e-05
-3.70853e-05
-3.54998e-05
-3.58357e-05
-3.62303e-05
-3.75787e-05
-3.90293e-05
-3.13638e-05
-4.24441e-05
-3.78548e-05
-3.74355e-05
-3.77436e-05
-3.60802e-05
-3.58228e-05
-3.58099e-05
-3.76837e-05
-3.61608e-05
-2.85926e-05
-3.5727e-05
-3.01165e-05
-3.18363e-05
-3.14446e-05
-3.12742e-05
-3.06396e-05
-3.06553e-05
-2.98012e-05
-2.8177e-05
-2.10577e-05
-0.000108735
-9.82527e-05
-9.52847e-05
-8.92553e-05
-8.19057e-05
-7.50648e-05
-6.99078e-05
-6.61313e-05
-6.42135e-05
-5.2194e-05
-9.4715e-05
-7.88152e-05
-7.38431e-05
-6.72184e-05
-6.03012e-05
-5.46415e-05
-5.18919e-05
-5.10314e-05
-4.95123e-05
-4.04068e-05
-8.58822e-05
-7.01678e-05
-6.46496e-05
-5.9157e-05
-5.2073e-05
-4.73893e-05
-4.56282e-05
-4.55118e-05
-4.60279e-05
-3.82901e-05
-7.72085e-05
-6.09313e-05
-5.71174e-05
-5.06159e-05
-4.38297e-05
-3.97106e-05
-3.99804e-05
-4.15796e-05
-4.17875e-05
-3.63118e-05
-7.07417e-05
-5.48907e-05
-5.01452e-05
-4.4129e-05
-3.71062e-05
-3.473e-05
-3.60216e-05
-3.78402e-05
-3.95488e-05
-3.43167e-05
-6.57806e-05
-5.04157e-05
-4.66925e-05
-4.10456e-05
-3.53332e-05
-3.30109e-05
-3.4081e-05
-3.65744e-05
-3.75415e-05
-3.27825e-05
-6.33368e-05
-4.8158e-05
-4.47682e-05
-4.05876e-05
-3.59307e-05
-3.34036e-05
-3.43343e-05
-3.53617e-05
-3.64302e-05
-3.16001e-05
-5.95707e-05
-4.64871e-05
-4.37048e-05
-3.97179e-05
-3.58957e-05
-3.41497e-05
-3.36061e-05
-3.47557e-05
-3.62403e-05
-3.0132e-05
-5.65326e-05
-4.41507e-05
-4.06723e-05
-3.81555e-05
-3.45274e-05
-3.31219e-05
-3.2509e-05
-3.43186e-05
-3.35766e-05
-2.72224e-05
-4.47973e-05
-3.35105e-05
-3.254e-05
-3.01705e-05
-2.8656e-05
-2.74463e-05
-2.75876e-05
-2.74802e-05
-2.66513e-05
-2.07389e-05
-2.84696e-05
-2.97707e-05
-3.20956e-05
-3.10777e-05
-3.18801e-05
-3.36875e-05
-3.49964e-05
-3.5366e-05
-3.72026e-05
-2.90086e-05
-2.61067e-05
-2.47925e-05
-2.44225e-05
-2.56487e-05
-2.75459e-05
-2.63266e-05
-2.97006e-05
-3.12481e-05
-2.93813e-05
-2.46416e-05
-2.38853e-05
-2.19262e-05
-2.55291e-05
-2.47493e-05
-2.45066e-05
-2.66611e-05
-2.68416e-05
-2.82669e-05
-3.06085e-05
-2.39039e-05
-2.63962e-05
-2.38755e-05
-2.20302e-05
-2.34745e-05
-2.32513e-05
-2.24859e-05
-2.59188e-05
-2.83529e-05
-2.73859e-05
-2.39455e-05
-2.52536e-05
-2.11246e-05
-2.34373e-05
-2.21965e-05
-2.06837e-05
-2.23656e-05
-2.41756e-05
-2.60446e-05
-2.81771e-05
-2.29925e-05
-2.66035e-05
-2.3276e-05
-2.23326e-05
-2.26072e-05
-2.16944e-05
-2.16155e-05
-2.42298e-05
-2.68521e-05
-2.65865e-05
-2.27331e-05
-2.68735e-05
-2.24304e-05
-2.41834e-05
-2.36687e-05
-2.30009e-05
-2.33213e-05
-2.50604e-05
-2.59021e-05
-2.68517e-05
-2.22215e-05
-2.75747e-05
-2.40852e-05
-2.44481e-05
-2.47442e-05
-2.41425e-05
-2.4568e-05
-2.49207e-05
-2.6248e-05
-2.65092e-05
-2.12212e-05
-2.71611e-05
-2.40156e-05
-2.45601e-05
-2.52683e-05
-2.4703e-05
-2.45586e-05
-2.48096e-05
-2.54875e-05
-2.44885e-05
-1.90347e-05
-2.28984e-05
-1.98031e-05
-2.14979e-05
-2.17324e-05
-2.17005e-05
-2.12915e-05
-2.08872e-05
-2.00093e-05
-1.85122e-05
-1.35391e-05
-0.000127755
-0.000112288
-0.000106287
-9.57291e-05
-8.50972e-05
-7.61267e-05
-6.88577e-05
-6.35037e-05
-6.24217e-05
-4.9281e-05
-0.000107148
-8.73183e-05
-7.8751e-05
-7.11379e-05
-6.21881e-05
-5.44935e-05
-5.11875e-05
-4.9606e-05
-4.60085e-05
-3.77319e-05
-9.17692e-05
-7.37784e-05
-6.83163e-05
-6.05547e-05
-5.19968e-05
-4.68767e-05
-4.34053e-05
-4.20031e-05
-4.3111e-05
-3.45862e-05
-8.01873e-05
-6.28145e-05
-5.69188e-05
-5.02081e-05
-4.26721e-05
-3.71279e-05
-3.71574e-05
-3.82087e-05
-3.69834e-05
-3.24365e-05
-6.89255e-05
-5.29352e-05
-4.89793e-05
-4.18417e-05
-3.43484e-05
-3.208e-05
-3.21432e-05
-3.31562e-05
-3.52186e-05
-2.99024e-05
-6.23366e-05
-4.75101e-05
-4.26915e-05
-3.72021e-05
-3.19039e-05
-2.86548e-05
-2.994e-05
-3.20244e-05
-3.2264e-05
-2.84181e-05
-5.66368e-05
-4.23184e-05
-3.92809e-05
-3.54915e-05
-3.0453e-05
-2.89981e-05
-2.94555e-05
-3.01667e-05
-3.17121e-05
-2.7309e-05
-5.12033e-05
-3.95806e-05
-3.66127e-05
-3.3048e-05
-3.01633e-05
-2.89353e-05
-2.84938e-05
-3.0455e-05
-3.13877e-05
-2.63097e-05
-4.70685e-05
-3.55651e-05
-3.34494e-05
-3.10091e-05
-2.91168e-05
-2.76307e-05
-2.86926e-05
-2.98247e-05
-3.00435e-05
-2.44392e-05
-3.63949e-05
-2.75598e-05
-2.65462e-05
-2.52437e-05
-2.39227e-05
-2.38973e-05
-2.42745e-05
-2.48473e-05
-2.46161e-05
-1.896e-05
1.37647e-05
7.13514e-06
2.16507e-06
-4.99032e-07
-5.67234e-06
-1.11506e-05
-1.52601e-05
-1.78918e-05
-2.10347e-05
-1.58422e-05
5.00748e-06
3.14659e-07
-8.46909e-07
-5.41769e-06
-9.5001e-06
-1.11497e-05
-1.58338e-05
-1.81501e-05
-1.70757e-05
-1.44403e-05
1.43854e-06
-1.03279e-06
-6.35892e-06
-7.41015e-06
-9.67363e-06
-1.352e-05
-1.48086e-05
-1.66148e-05
-1.90455e-05
-1.42722e-05
-5.28275e-06
-6.5898e-06
-5.80636e-06
-9.09896e-06
-1.09014e-05
-1.1691e-05
-1.53708e-05
-1.76549e-05
-1.70449e-05
-1.48063e-05
-6.71339e-06
-6.06396e-06
-9.45374e-06
-9.80085e-06
-1.03351e-05
-1.29199e-05
-1.47295e-05
-1.65039e-05
-1.83167e-05
-1.45147e-05
-9.76617e-06
-9.51331e-06
-9.35598e-06
-1.08841e-05
-1.19726e-05
-1.25491e-05
-1.55072e-05
-1.7638e-05
-1.75688e-05
-1.47249e-05
-1.05576e-05
-9.0639e-06
-1.11463e-05
-1.23544e-05
-1.25459e-05
-1.45429e-05
-1.63782e-05
-1.73542e-05
-1.83396e-05
-1.48393e-05
-1.1561e-05
-1.07918e-05
-1.16842e-05
-1.29847e-05
-1.41177e-05
-1.57825e-05
-1.65342e-05
-1.85332e-05
-1.84791e-05
-1.45344e-05
-1.19183e-05
-1.04716e-05
-1.27042e-05
-1.37774e-05
-1.5607e-05
-1.56671e-05
-1.78623e-05
-1.78564e-05
-1.78063e-05
-1.35929e-05
-1.01755e-05
-1.00991e-05
-1.17135e-05
-1.33821e-05
-1.38229e-05
-1.4903e-05
-1.4784e-05
-1.45797e-05
-1.37465e-05
-9.55336e-06
-7.16286e-05
-6.17448e-05
-5.79664e-05
-5.22281e-05
-4.58579e-05
-4.01372e-05
-3.5421e-05
-3.24979e-05
-3.1978e-05
-2.55971e-05
-6.18877e-05
-4.92031e-05
-4.33597e-05
-3.88421e-05
-3.24239e-05
-2.82905e-05
-2.55751e-05
-2.44865e-05
-2.29765e-05
-1.89946e-05
-5.27409e-05
-4.09984e-05
-3.66953e-05
-3.18025e-05
-2.66285e-05
-2.31013e-05
-2.10116e-05
-2.00383e-05
-2.07657e-05
-1.69327e-05
-4.45261e-05
-3.33766e-05
-2.97311e-05
-2.52943e-05
-2.07353e-05
-1.75154e-05
-1.70733e-05
-1.74554e-05
-1.71294e-05
-1.54324e-05
-3.68311e-05
-2.69832e-05
-2.41023e-05
-1.98323e-05
-1.56663e-05
-1.42546e-05
-1.3885e-05
-1.43409e-05
-1.57891e-05
-1.36911e-05
-3.17761e-05
-2.27281e-05
-1.962e-05
-1.62239e-05
-1.36632e-05
-1.15388e-05
-1.2314e-05
-1.33014e-05
-1.36581e-05
-1.26067e-05
-2.72496e-05
-1.87052e-05
-1.6294e-05
-1.45301e-05
-1.13813e-05
-1.13316e-05
-1.12896e-05
-1.17229e-05
-1.32195e-05
-1.16093e-05
-2.2766e-05
-1.61343e-05
-1.40394e-05
-1.18537e-05
-1.08768e-05
-1.03936e-05
-1.02621e-05
-1.19888e-05
-1.23754e-05
-1.09756e-05
-1.99749e-05
-1.27702e-05
-1.19531e-05
-1.01628e-05
-1.00641e-05
-9.07563e-06
-1.07323e-05
-1.0858e-05
-1.2063e-05
-1.00402e-05
-1.43478e-05
-9.98814e-06
-8.71666e-06
-8.37237e-06
-7.51655e-06
-8.19866e-06
-8.47289e-06
-9.45063e-06
-9.91589e-06
-7.82168e-06
4.81376e-05
4.10646e-05
3.77603e-05
3.50522e-05
2.93576e-05
2.36228e-05
1.89611e-05
1.56096e-05
1.30113e-05
1.07048e-05
3.81437e-05
3.02603e-05
2.82704e-05
2.30623e-05
1.77012e-05
1.47608e-05
1.05244e-05
8.7132e-06
8.41031e-06
6.02854e-06
3.33577e-05
2.66896e-05
2.09728e-05
1.85307e-05
1.43572e-05
9.87079e-06
8.48181e-06
6.90631e-06
5.19506e-06
4.9956e-06
2.55732e-05
1.92812e-05
1.89852e-05
1.41294e-05
1.01791e-05
8.16865e-06
5.51857e-06
4.44418e-06
4.93403e-06
3.64272e-06
2.25461e-05
1.79685e-05
1.37088e-05
1.1266e-05
8.11132e-06
5.1588e-06
4.64918e-06
4.06256e-06
2.88236e-06
3.37215e-06
1.86992e-05
1.36499e-05
1.28166e-05
9.42815e-06
6.37764e-06
5.23621e-06
3.5257e-06
2.75466e-06
3.49528e-06
2.71616e-06
1.69934e-05
1.35058e-05
1.07569e-05
8.59685e-06
6.61377e-06
4.23533e-06
3.60509e-06
3.49863e-06
2.56131e-06
2.93795e-06
1.49096e-05
1.14251e-05
1.02056e-05
7.9262e-06
5.73686e-06
4.42905e-06
3.67404e-06
2.74305e-06
3.66131e-06
2.95769e-06
1.32771e-05
1.07074e-05
8.31191e-06
6.63951e-06
4.62204e-06
3.93512e-06
2.98808e-06
3.92122e-06
3.47964e-06
3.3973e-06
9.86979e-06
6.65639e-06
5.36459e-06
3.73974e-06
2.98709e-06
2.37548e-06
2.87409e-06
3.11525e-06
3.73373e-06
3.16747e-06
-4.39001e-05
-3.57973e-05
-3.20562e-05
-2.63588e-05
-2.03905e-05
-1.5117e-05
-1.0636e-05
-7.72499e-06
-7.84713e-06
-6.16037e-06
-3.59479e-05
-2.72398e-05
-2.22022e-05
-1.8566e-05
-1.36172e-05
-9.61369e-06
-7.113e-06
-5.75399e-06
-3.97391e-06
-4.28498e-06
-2.61964e-05
-1.93511e-05
-1.68169e-05
-1.29625e-05
-9.21821e-06
-6.78826e-06
-4.11684e-06
-2.53803e-06
-3.62209e-06
-2.6031e-06
-1.84773e-05
-1.32177e-05
-1.04006e-05
-7.9872e-06
-5.41078e-06
-2.62442e-06
-1.82416e-06
-1.51195e-06
-2.35018e-07
-1.83351e-06
-1.07791e-05
-6.96501e-06
-6.09146e-06
-3.65332e-06
-1.61576e-06
-9.68147e-07
7.34489e-07
1.53162e-06
-1.49032e-07
-1.11579e-07
-6.04223e-06
-3.55787e-06
-1.59884e-06
-4.5033e-07
3.92152e-07
2.19341e-06
2.29673e-06
2.03099e-06
2.75313e-06
5.041e-07
-1.62947e-06
6.44118e-07
1.25754e-06
2.13349e-06
3.43668e-06
3.17357e-06
4.16121e-06
4.55279e-06
2.64159e-06
1.79624e-06
1.77318e-06
2.66944e-06
3.78605e-06
4.54299e-06
4.51671e-06
5.33586e-06
5.30241e-06
4.29108e-06
4.46244e-06
1.97032e-06
3.50743e-06
4.88577e-06
4.99777e-06
5.46594e-06
5.51292e-06
5.48406e-06
5.09943e-06
5.2383e-06
3.6204e-06
2.18787e-06
3.87366e-06
3.83928e-06
4.47047e-06
4.58165e-06
4.66376e-06
4.32661e-06
3.97451e-06
2.86291e-06
2.14086e-06
6.55136e-07
6.20154e-05
5.46597e-05
5.20506e-05
5.03393e-05
4.59056e-05
4.11261e-05
3.75487e-05
3.52931e-05
3.22228e-05
2.63457e-05
5.29348e-05
4.28508e-05
4.07734e-05
3.60127e-05
3.03829e-05
2.86553e-05
2.49319e-05
2.38092e-05
2.45457e-05
1.81459e-05
5.08772e-05
4.05497e-05
3.38693e-05
3.13695e-05
2.70153e-05
2.22713e-05
2.23259e-05
2.18891e-05
1.9673e-05
1.7333e-05
4.44698e-05
3.33651e-05
3.28066e-05
2.67811e-05
2.18695e-05
2.04345e-05
1.84699e-05
1.82381e-05
2.021e-05
1.55351e-05
4.3399e-05
3.33648e-05
2.73707e-05
2.39869e-05
1.96314e-05
1.63715e-05
1.76793e-05
1.86419e-05
1.69864e-05
1.57198e-05
4.04419e-05
2.92573e-05
2.77026e-05
2.24596e-05
1.84369e-05
1.75325e-05
1.69836e-05
1.69425e-05
1.90388e-05
1.47947e-05
4.05161e-05
3.04618e-05
2.57491e-05
2.3303e-05
1.98096e-05
1.76245e-05
1.82293e-05
1.91239e-05
1.76499e-05
1.5575e-05
3.83429e-05
2.85772e-05
2.63555e-05
2.27337e-05
1.9963e-05
1.93878e-05
1.86072e-05
1.85632e-05
1.99653e-05
1.5293e-05
3.70885e-05
2.72984e-05
2.41899e-05
2.10639e-05
1.94341e-05
1.77059e-05
1.85175e-05
1.9502e-05
1.87741e-05
1.513e-05
2.87093e-05
2.00216e-05
1.77459e-05
1.60182e-05
1.44756e-05
1.45037e-05
1.49074e-05
1.50768e-05
1.54518e-05
1.1224e-05
-2.46572e-05
-1.42031e-05
-7.6746e-06
-2.90078e-07
6.81783e-06
1.26392e-05
1.77967e-05
2.16127e-05
2.13028e-05
1.78355e-05
-1.71907e-05
-7.87617e-06
-1.94809e-06
2.64348e-06
7.01092e-06
1.1799e-05
1.46952e-05
1.693e-05
1.96323e-05
1.42706e-05
-8.04183e-06
-1.53494e-06
1.67624e-06
6.06695e-06
9.50766e-06
1.16718e-05
1.58066e-05
1.86506e-05
1.7722e-05
1.5614e-05
-2.36146e-06
2.45219e-06
6.68759e-06
8.76552e-06
1.06228e-05
1.39368e-05
1.58943e-05
1.77441e-05
2.0711e-05
1.54883e-05
4.24813e-06
7.71636e-06
9.0047e-06
1.15245e-05
1.26566e-05
1.3528e-05
1.75683e-05
2.0414e-05
1.92073e-05
1.71327e-05
7.61815e-06
9.90534e-06
1.32971e-05
1.38914e-05
1.44944e-05
1.68917e-05
1.88652e-05
2.02588e-05
2.2872e-05
1.71753e-05
1.20572e-05
1.42858e-05
1.53101e-05
1.74974e-05
1.80084e-05
1.87716e-05
2.17182e-05
2.37596e-05
2.22626e-05
1.89268e-05
1.47158e-05
1.59388e-05
1.85168e-05
1.94648e-05
2.00404e-05
2.24107e-05
2.30414e-05
2.40011e-05
2.55137e-05
1.88771e-05
1.68452e-05
1.75515e-05
1.93685e-05
2.00998e-05
2.17923e-05
2.16338e-05
2.41089e-05
2.52706e-05
2.4123e-05
1.87313e-05
1.45962e-05
1.45447e-05
1.59855e-05
1.74707e-05
1.78891e-05
1.93112e-05
1.98762e-05
1.96192e-05
1.92704e-05
1.32466e-05
9.66002e-05
8.66338e-05
8.43515e-05
7.88647e-05
7.23757e-05
6.67463e-05
6.2093e-05
5.88346e-05
5.73273e-05
4.55251e-05
7.84026e-05
6.58985e-05
6.16307e-05
5.70153e-05
5.12062e-05
4.69534e-05
4.4863e-05
4.42382e-05
4.27154e-05
3.39266e-05
6.59064e-05
5.53982e-05
5.23289e-05
4.8369e-05
4.31175e-05
3.96257e-05
3.8709e-05
3.85589e-05
3.8688e-05
3.16898e-05
5.59855e-05
4.62703e-05
4.44567e-05
4.02615e-05
3.54326e-05
3.28815e-05
3.32927e-05
3.46938e-05
3.53453e-05
2.96161e-05
4.86081e-05
4.02352e-05
3.80645e-05
3.44423e-05
2.97085e-05
2.82503e-05
3.01795e-05
3.20537e-05
3.28425e-05
2.84014e-05
4.39277e-05
3.60991e-05
3.50353e-05
3.15708e-05
2.81986e-05
2.71928e-05
2.8816e-05
3.08479e-05
3.24323e-05
2.71683e-05
4.14857e-05
3.44735e-05
3.30558e-05
3.17999e-05
2.86733e-05
2.79953e-05
2.97312e-05
3.11814e-05
3.15491e-05
2.71683e-05
3.88808e-05
3.30478e-05
3.28104e-05
3.08569e-05
2.92707e-05
2.95268e-05
2.95623e-05
3.13459e-05
3.28701e-05
2.64161e-05
3.74214e-05
3.14923e-05
3.0894e-05
2.9677e-05
2.91345e-05
2.81349e-05
3.01261e-05
3.15479e-05
3.13576e-05
2.5175e-05
2.97546e-05
2.45065e-05
2.44758e-05
2.42798e-05
2.3639e-05
2.44363e-05
2.51563e-05
2.56489e-05
2.56304e-05
1.90313e-05
3.18752e-05
3.41974e-05
3.78942e-05
3.86659e-05
4.02041e-05
4.19851e-05
4.3055e-05
4.36255e-05
4.43241e-05
3.48301e-05
2.92544e-05
2.90934e-05
2.95838e-05
3.09491e-05
3.18993e-05
3.14657e-05
3.39832e-05
3.53987e-05
3.42193e-05
2.76733e-05
2.79732e-05
2.62404e-05
2.8874e-05
2.87592e-05
2.82959e-05
2.96012e-05
3.04065e-05
3.18578e-05
3.35038e-05
2.64392e-05
2.85017e-05
2.62606e-05
2.59053e-05
2.63633e-05
2.56696e-05
2.52657e-05
2.82539e-05
3.07189e-05
3.04054e-05
2.58455e-05
2.81998e-05
2.43505e-05
2.5581e-05
2.45831e-05
2.27711e-05
2.39948e-05
2.63762e-05
2.8384e-05
3.02597e-05
2.47588e-05
2.85903e-05
2.52287e-05
2.51284e-05
2.45674e-05
2.33796e-05
2.34313e-05
2.60531e-05
2.87681e-05
2.88527e-05
2.42783e-05
2.97425e-05
2.54874e-05
2.62836e-05
2.60323e-05
2.47853e-05
2.51335e-05
2.71571e-05
2.8028e-05
2.89881e-05
2.38287e-05
3.02537e-05
2.65923e-05
2.72556e-05
2.68241e-05
2.61684e-05
2.66238e-05
2.69258e-05
2.85687e-05
2.88884e-05
2.29395e-05
3.04405e-05
2.70252e-05
2.69979e-05
2.72231e-05
2.66413e-05
2.62975e-05
2.72805e-05
2.79054e-05
2.72344e-05
2.10498e-05
2.53648e-05
2.15885e-05
2.27753e-05
2.29491e-05
2.28178e-05
2.29232e-05
2.28617e-05
2.23904e-05
2.12358e-05