/*--------------------------------*- C++ -*----------------------------------*\
| =========                 |                                                 |
| \\      /  F ield         | OpenFOAM: The Open Source CFD Toolbox           |
|  \\    /   O peration     | Version:  2406                                  |
|   \\  /    A nd           | Website:  www.openfoam.com                      |
|    \\/     M anipulation  |                                                 |
\*---------------------------------------------------------------------------*/
FoamFile
{
    version     2.0;
    format      ascii;
    arch        "LSB;label=32;scalar=64";
    class       volScalarField;
    location    "1.1";
    object      magR;
}
// * * * * * * * * * * * * * * * * * * * * * * * * * * * * * * * * * * * * * //

dimensions      [0 2 -2 0 0 0 0];

internalField   uniform 0;

boundaryField
{
    walls
    {
        type            calculated;
        value           nonuniform List<scalar> 
2000
(
5.84368e-07
8.28589e-07
1.09509e-06
1.31565e-06
1.44047e-06
1.44047e-06
1.31565e-06
1.09509e-06
8.28588e-07
5.84367e-07
2.35129e-07
3.22823e-07
4.26157e-07
5.1549e-07
5.67299e-07
5.67297e-07
5.15487e-07
4.26152e-07
3.22818e-07
2.35124e-07
8.2351e-08
1.10278e-07
1.44713e-07
1.75741e-07
1.94067e-07
1.94065e-07
1.75734e-07
1.44703e-07
1.10267e-07
8.23408e-08
1.0771e-07
1.45271e-07
1.90659e-07
2.30912e-07
2.54511e-07
2.54504e-07
2.30893e-07
1.90632e-07
1.45242e-07
1.07682e-07
8.40356e-08
1.12716e-07
1.47996e-07
1.79627e-07
1.98288e-07
1.98275e-07
1.79593e-07
1.47947e-07
1.12663e-07
8.3985e-08
9.11037e-08
1.225e-07
1.60896e-07
1.95192e-07
2.15383e-07
2.15359e-07
1.95125e-07
1.60801e-07
1.22397e-07
9.10049e-08
8.53834e-08
1.14615e-07
1.50524e-07
1.82686e-07
2.01643e-07
2.01601e-07
1.82569e-07
1.50357e-07
1.14431e-07
8.52064e-08
8.74311e-08
1.17413e-07
1.54166e-07
1.87035e-07
2.0638e-07
2.06305e-07
1.86828e-07
1.5387e-07
1.17084e-07
8.71121e-08
8.61631e-08
1.15624e-07
1.51763e-07
1.84086e-07
2.03092e-07
2.02973e-07
1.83754e-07
1.51289e-07
1.15096e-07
8.56481e-08
8.69018e-08
1.16599e-07
1.5299e-07
1.85504e-07
2.0459e-07
2.04416e-07
1.85022e-07
1.52302e-07
1.15836e-07
8.61607e-08
8.67084e-08
1.16303e-07
1.52563e-07
1.84945e-07
2.03927e-07
2.03702e-07
1.84323e-07
1.51682e-07
1.15332e-07
8.57724e-08
8.69299e-08
1.16603e-07
1.52949e-07
1.85392e-07
2.04388e-07
2.04125e-07
1.84666e-07
1.51928e-07
1.15487e-07
8.58643e-08
8.67821e-08
1.16419e-07
1.52728e-07
1.85137e-07
2.04104e-07
2.03821e-07
1.8436e-07
1.51641e-07
1.15241e-07
8.56687e-08
8.66482e-08
1.16268e-07
1.52566e-07
1.84972e-07
2.03939e-07
2.03656e-07
1.84197e-07
1.51487e-07
1.15107e-07
8.55613e-08
8.63821e-08
1.15936e-07
1.52168e-07
1.84529e-07
2.03482e-07
2.0322e-07
1.83812e-07
1.51173e-07
1.14871e-07
8.53933e-08
8.61387e-08
1.15633e-07
1.51806e-07
1.84133e-07
2.0309e-07
2.0287e-07
1.83535e-07
1.5098e-07
1.14755e-07
8.533e-08
8.58952e-08
1.15337e-07
1.51463e-07
1.83774e-07
2.02758e-07
2.02609e-07
1.8337e-07
1.50912e-07
1.1476e-07
8.53743e-08
8.5667e-08
1.15081e-07
1.51201e-07
1.83541e-07
2.02593e-07
2.02541e-07
1.83406e-07
1.51032e-07
1.14924e-07
8.55461e-08
8.54222e-08
1.14819e-07
1.50956e-07
1.83355e-07
2.02503e-07
2.02563e-07
1.83528e-07
1.5122e-07
1.15135e-07
8.5748e-08
8.51709e-08
1.14545e-07
1.50695e-07
1.8315e-07
2.02388e-07
2.02546e-07
1.83592e-07
1.51331e-07
1.15258e-07
8.5865e-08
8.49349e-08
1.14264e-07
1.50391e-07
1.82861e-07
2.02146e-07
2.02366e-07
1.83468e-07
1.51244e-07
1.15194e-07
8.58183e-08
8.47452e-08
1.14013e-07
1.50079e-07
1.82511e-07
2.01788e-07
2.02025e-07
1.83158e-07
1.50975e-07
1.1497e-07
8.56386e-08
8.46157e-08
1.13824e-07
1.49812e-07
1.82175e-07
2.01405e-07
2.01629e-07
1.82784e-07
1.50649e-07
1.14705e-07
8.54336e-08
8.45406e-08
1.13709e-07
1.49639e-07
1.81941e-07
2.01124e-07
2.01332e-07
1.82506e-07
1.5042e-07
1.14536e-07
8.53165e-08
8.45018e-08
1.13662e-07
1.49574e-07
1.81852e-07
2.01017e-07
2.01225e-07
1.82421e-07
1.50371e-07
1.14527e-07
8.53341e-08
8.44976e-08
1.13677e-07
1.49611e-07
1.81905e-07
2.01085e-07
2.01307e-07
1.8252e-07
1.50485e-07
1.14651e-07
8.54562e-08
8.45842e-08
1.13801e-07
1.49775e-07
1.821e-07
2.01302e-07
2.01533e-07
1.82745e-07
1.50696e-07
1.14842e-07
8.5622e-08
8.48947e-08
1.14168e-07
1.50184e-07
1.82525e-07
2.01717e-07
2.01916e-07
1.83078e-07
1.50971e-07
1.15059e-07
8.57848e-08
8.55682e-08
1.14934e-07
1.50998e-07
1.83324e-07
2.02444e-07
2.02529e-07
1.83556e-07
1.5131e-07
1.15276e-07
8.59034e-08
8.66173e-08
1.16122e-07
1.5226e-07
1.84552e-07
2.03532e-07
2.03401e-07
1.84176e-07
1.51686e-07
1.15446e-07
8.59294e-08
8.78336e-08
1.17517e-07
1.53766e-07
1.86028e-07
2.0483e-07
2.04406e-07
1.84834e-07
1.52018e-07
1.15515e-07
8.58355e-08
8.88173e-08
1.1868e-07
1.55065e-07
1.87337e-07
2.05988e-07
2.05282e-07
1.85364e-07
1.52225e-07
1.15475e-07
8.56594e-08
8.91384e-08
1.19122e-07
1.55638e-07
1.87982e-07
2.06591e-07
2.05733e-07
1.85601e-07
1.5226e-07
1.15365e-07
8.54844e-08
8.85803e-08
1.18569e-07
1.55159e-07
1.87619e-07
2.0633e-07
2.05532e-07
1.85423e-07
1.52093e-07
1.1522e-07
8.5378e-08
8.73086e-08
1.17162e-07
1.53715e-07
1.86275e-07
2.0519e-07
2.04649e-07
1.84803e-07
1.5171e-07
1.15035e-07
8.53338e-08
8.57992e-08
1.15413e-07
1.51809e-07
1.84386e-07
2.03504e-07
2.03305e-07
1.83865e-07
1.51155e-07
1.14798e-07
8.53036e-08
8.45432e-08
1.13895e-07
1.5007e-07
1.82573e-07
2.01818e-07
2.01922e-07
1.82887e-07
1.50576e-07
1.14551e-07
8.52668e-08
8.38398e-08
1.13002e-07
1.48989e-07
1.8139e-07
2.00685e-07
2.0099e-07
1.82253e-07
1.50247e-07
1.14469e-07
8.53232e-08
8.36541e-08
1.12774e-07
1.4872e-07
1.81107e-07
2.00452e-07
2.00873e-07
1.82298e-07
1.50444e-07
1.14772e-07
8.56486e-08
8.3978e-08
1.13222e-07
1.49314e-07
1.81838e-07
2.01306e-07
2.01827e-07
1.83323e-07
1.51479e-07
1.15758e-07
8.64894e-08
8.54674e-08
1.15034e-07
1.51448e-07
1.84238e-07
2.03887e-07
2.04478e-07
1.8591e-07
1.53846e-07
1.17769e-07
8.80349e-08
8.9046e-08
1.19248e-07
1.5621e-07
1.89355e-07
2.09092e-07
2.09475e-07
1.90388e-07
1.57538e-07
1.20511e-07
8.98388e-08
9.52413e-08
1.26456e-07
1.6418e-07
1.97622e-07
2.17065e-07
2.16583e-07
1.96159e-07
1.61726e-07
1.23132e-07
9.11981e-08
1.04246e-07
1.36842e-07
1.75497e-07
2.09079e-07
2.27736e-07
2.25681e-07
2.03197e-07
1.66628e-07
1.26176e-07
9.28866e-08
1.16183e-07
1.50508e-07
1.90269e-07
2.23884e-07
2.41432e-07
2.37408e-07
2.12548e-07
1.7366e-07
1.31247e-07
9.64573e-08
1.30926e-07
1.67521e-07
2.08896e-07
2.42881e-07
2.5952e-07
2.53597e-07
2.2631e-07
1.84888e-07
1.40082e-07
1.03243e-07
1.47078e-07
1.86683e-07
2.30547e-07
2.65609e-07
2.81779e-07
2.74009e-07
2.43941e-07
1.99309e-07
1.51283e-07
1.11701e-07
1.58578e-07
2.01942e-07
2.49598e-07
2.87502e-07
3.0492e-07
2.96537e-07
2.64168e-07
2.16114e-07
1.64267e-07
1.21428e-07
1.67543e-07
2.14679e-07
2.65777e-07
3.0586e-07
3.23538e-07
3.13462e-07
2.77931e-07
2.26136e-07
1.70838e-07
1.25599e-07
1.60359e-07
2.12953e-07
2.70979e-07
3.18161e-07
3.4164e-07
3.3489e-07
2.99946e-07
2.46513e-07
1.88401e-07
1.40314e-07
5.84365e-07
8.28586e-07
1.09509e-06
1.31565e-06
1.44047e-06
1.44047e-06
1.31565e-06
1.09509e-06
8.28589e-07
5.84368e-07
2.35117e-07
3.2281e-07
4.26144e-07
5.15479e-07
5.67291e-07
5.67294e-07
5.15488e-07
4.26156e-07
3.22823e-07
2.35129e-07
8.23257e-08
1.1025e-07
1.44685e-07
1.75717e-07
1.94051e-07
1.94057e-07
1.75735e-07
1.44709e-07
1.10276e-07
8.23507e-08
1.07639e-07
1.45194e-07
1.90581e-07
2.30845e-07
2.54464e-07
2.54481e-07
2.30893e-07
1.90648e-07
1.45266e-07
1.07708e-07
8.39041e-08
1.12571e-07
1.47851e-07
1.79501e-07
1.98197e-07
1.98229e-07
1.79588e-07
1.47973e-07
1.12704e-07
8.40321e-08
9.08552e-08
1.22226e-07
1.60619e-07
1.94949e-07
2.15206e-07
2.15264e-07
1.9511e-07
1.60846e-07
1.22475e-07
9.10958e-08
8.49856e-08
1.14177e-07
1.50082e-07
1.82299e-07
2.01362e-07
2.01453e-07
1.82551e-07
1.5044e-07
1.14572e-07
8.53697e-08
8.68088e-08
1.16732e-07
1.53487e-07
1.86447e-07
2.05962e-07
2.06102e-07
1.86835e-07
1.54041e-07
1.17349e-07
8.74107e-08
8.52604e-08
1.14648e-07
1.50803e-07
1.8327e-07
2.02536e-07
2.02737e-07
1.8383e-07
1.51603e-07
1.15543e-07
8.6137e-08
8.56681e-08
1.15272e-07
1.51699e-07
1.84426e-07
2.03883e-07
2.04159e-07
1.85194e-07
1.52796e-07
1.16502e-07
8.68707e-08
8.51741e-08
1.14651e-07
1.50958e-07
1.83615e-07
2.03072e-07
2.03421e-07
1.84583e-07
1.52339e-07
1.16192e-07
8.66736e-08
8.52034e-08
1.14731e-07
1.51117e-07
1.83868e-07
2.03413e-07
2.03816e-07
1.84985e-07
1.52699e-07
1.16482e-07
8.68934e-08
8.50455e-08
1.14515e-07
1.50844e-07
1.8356e-07
2.03097e-07
2.03518e-07
1.8472e-07
1.52475e-07
1.163e-07
8.67491e-08
8.50881e-08
1.14539e-07
1.50839e-07
1.83526e-07
2.03035e-07
2.03432e-07
1.84614e-07
1.52354e-07
1.16173e-07
8.66257e-08
8.51267e-08
1.14535e-07
1.50768e-07
1.83375e-07
2.02806e-07
2.03143e-07
1.84294e-07
1.52036e-07
1.15881e-07
8.63742e-08
8.5225e-08
1.14613e-07
1.50798e-07
1.83332e-07
2.02677e-07
2.02935e-07
1.84032e-07
1.51757e-07
1.15617e-07
8.6142e-08
8.52969e-08
1.14667e-07
1.50809e-07
1.8327e-07
2.02525e-07
2.02698e-07
1.83739e-07
1.51449e-07
1.15331e-07
8.58983e-08
8.53527e-08
1.1471e-07
1.50818e-07
1.83214e-07
2.02384e-07
2.02473e-07
1.83455e-07
1.51144e-07
1.15048e-07
8.56571e-08
8.53972e-08
1.14735e-07
1.508e-07
1.83125e-07
2.02207e-07
2.02212e-07
1.83136e-07
1.50809e-07
1.14739e-07
8.53952e-08
8.54773e-08
1.14793e-07
1.50806e-07
1.83053e-07
2.02043e-07
2.01963e-07
1.82831e-07
1.50487e-07
1.1444e-07
8.51384e-08
8.56114e-08
1.1491e-07
1.50874e-07
1.83044e-07
2.01944e-07
2.01782e-07
1.82594e-07
1.50229e-07
1.14191e-07
8.49174e-08
8.5769e-08
1.15064e-07
1.51e-07
1.83115e-07
2.01942e-07
2.01708e-07
1.82464e-07
1.50069e-07
1.14023e-07
8.47575e-08
8.58664e-08
1.15166e-07
1.51096e-07
1.83188e-07
2.01975e-07
2.01694e-07
1.82405e-07
1.49981e-07
1.1392e-07
8.46542e-08
8.58264e-08
1.15121e-07
1.51056e-07
1.83151e-07
2.01935e-07
2.01641e-07
1.82338e-07
1.49905e-07
1.13843e-07
8.45849e-08
8.56333e-08
1.14897e-07
1.50821e-07
1.82926e-07
2.01733e-07
2.01469e-07
1.82196e-07
1.49792e-07
1.13761e-07
8.45278e-08
8.53568e-08
1.1456e-07
1.50441e-07
1.82543e-07
2.01384e-07
2.01181e-07
1.81983e-07
1.49652e-07
1.13682e-07
8.44899e-08
8.51265e-08
1.14265e-07
1.50086e-07
1.82169e-07
2.01041e-07
2.00916e-07
1.8182e-07
1.49587e-07
1.13693e-07
8.45412e-08
8.50583e-08
1.14181e-07
1.49978e-07
1.82064e-07
2.0098e-07
2.00942e-07
1.81953e-07
1.49813e-07
1.13972e-07
8.48261e-08
8.5163e-08
1.14365e-07
1.50249e-07
1.82429e-07
2.01453e-07
2.01529e-07
1.8264e-07
1.50555e-07
1.14706e-07
8.54905e-08
8.5329e-08
1.14713e-07
1.50831e-07
1.8325e-07
2.025e-07
2.02752e-07
1.83963e-07
1.51879e-07
1.15929e-07
8.65493e-08
8.54163e-08
1.15033e-07
1.5149e-07
1.84277e-07
2.03871e-07
2.04368e-07
1.85683e-07
1.53544e-07
1.1741e-07
8.77925e-08
8.53865e-08
1.15199e-07
1.51977e-07
1.85149e-07
2.05112e-07
2.05864e-07
1.87261e-07
1.55028e-07
1.18674e-07
8.88117e-08
8.53196e-08
1.15213e-07
1.52163e-07
1.85576e-07
2.05777e-07
2.06681e-07
1.88088e-07
1.55734e-07
1.1919e-07
8.91639e-08
8.53063e-08
1.15142e-07
1.52038e-07
1.85431e-07
2.05611e-07
2.06464e-07
1.87771e-07
1.55296e-07
1.18658e-07
8.86214e-08
8.53532e-08
1.15018e-07
1.51658e-07
1.84767e-07
2.04652e-07
2.05247e-07
1.86363e-07
1.53809e-07
1.17222e-07
8.73436e-08
8.5396e-08
1.14838e-07
1.51117e-07
1.83786e-07
2.03216e-07
2.03443e-07
1.84357e-07
1.51808e-07
1.1541e-07
8.58094e-08
8.53863e-08
1.14626e-07
1.50565e-07
1.82796e-07
2.01776e-07
2.0166e-07
1.82433e-07
1.49969e-07
1.13827e-07
8.45233e-08
8.53847e-08
1.14493e-07
1.50207e-07
1.82126e-07
2.00788e-07
2.00444e-07
1.81156e-07
1.48801e-07
1.12882e-07
8.37943e-08
8.54704e-08
1.14532e-07
1.50146e-07
1.81917e-07
2.00425e-07
1.99973e-07
1.80665e-07
1.48372e-07
1.12566e-07
8.35749e-08
8.58286e-08
1.14908e-07
1.50488e-07
1.82214e-07
2.00676e-07
2.00203e-07
1.80899e-07
1.48623e-07
1.12834e-07
8.38413e-08
8.69719e-08
1.16235e-07
1.51896e-07
1.83676e-07
2.02185e-07
2.01778e-07
1.82534e-07
1.5027e-07
1.14408e-07
8.52669e-08
8.90541e-08
1.18925e-07
1.55099e-07
1.87315e-07
2.0618e-07
2.06055e-07
1.86956e-07
1.54629e-07
1.18441e-07
8.88142e-08
9.12634e-08
1.22371e-07
1.59869e-07
1.9335e-07
2.13294e-07
2.13928e-07
1.95138e-07
1.62589e-07
1.25652e-07
9.50378e-08
9.21116e-08
1.25127e-07
1.65028e-07
2.01022e-07
2.23209e-07
2.2542e-07
2.07284e-07
1.74398e-07
1.36264e-07
1.04119e-07
8.88078e-08
1.24171e-07
1.67743e-07
2.08031e-07
2.34302e-07
2.39522e-07
2.22849e-07
1.89804e-07
1.5022e-07
1.16086e-07
7.80672e-08
1.15053e-07
1.62855e-07
2.09256e-07
2.42128e-07
2.52808e-07
2.39465e-07
2.07339e-07
1.66733e-07
1.30564e-07
6.29785e-08
9.9204e-08
1.49408e-07
2.01658e-07
2.42446e-07
2.60873e-07
2.53275e-07
2.23974e-07
1.83551e-07
1.45884e-07
4.80405e-08
7.99634e-08
1.27626e-07
1.81221e-07
2.27312e-07
2.5337e-07
2.53378e-07
2.29777e-07
1.92397e-07
1.55629e-07
3.87689e-08
6.65939e-08
1.10331e-07
1.62821e-07
2.11483e-07
2.43174e-07
2.49771e-07
2.31679e-07
1.97604e-07
1.62298e-07
2.74063e-08
4.78445e-08
8.14588e-08
1.24307e-07
1.66899e-07
1.98283e-07
2.10101e-07
2.00657e-07
1.76078e-07
1.48983e-07
5.84364e-07
8.28584e-07
1.09509e-06
1.31565e-06
1.44046e-06
1.44046e-06
1.31565e-06
1.09509e-06
8.28585e-07
5.84365e-07
2.35113e-07
3.22804e-07
4.26135e-07
5.15467e-07
5.67276e-07
5.67278e-07
5.1547e-07
4.2614e-07
3.22808e-07
2.35117e-07
8.23165e-08
1.10237e-07
1.44667e-07
1.75693e-07
1.94021e-07
1.94023e-07
1.75699e-07
1.44675e-07
1.10245e-07
8.23247e-08
1.07614e-07
1.45158e-07
1.90532e-07
2.30781e-07
2.54386e-07
2.54392e-07
2.30797e-07
1.90554e-07
1.45181e-07
1.07636e-07
8.38531e-08
1.125e-07
1.47756e-07
1.7938e-07
1.98051e-07
1.98063e-07
1.79412e-07
1.478e-07
1.12547e-07
8.38978e-08
9.07399e-08
1.22069e-07
1.60417e-07
1.94699e-07
2.14912e-07
2.14937e-07
1.94768e-07
1.60514e-07
1.22174e-07
9.08411e-08
8.47693e-08
1.13888e-07
1.49715e-07
1.81855e-07
2.0085e-07
2.00895e-07
1.81978e-07
1.4989e-07
1.14081e-07
8.49577e-08
8.64533e-08
1.16254e-07
1.52876e-07
1.85705e-07
2.05112e-07
2.0518e-07
1.85897e-07
1.5315e-07
1.16563e-07
8.67575e-08
8.47816e-08
1.13983e-07
1.49925e-07
1.82182e-07
2.01269e-07
2.01356e-07
1.82425e-07
1.50276e-07
1.14381e-07
8.51787e-08
8.5122e-08
1.14467e-07
1.50577e-07
1.82979e-07
2.02153e-07
2.02246e-07
1.83239e-07
1.50951e-07
1.14895e-07
8.55532e-08
8.46638e-08
1.13822e-07
1.49709e-07
1.81912e-07
2.00964e-07
2.01042e-07
1.82131e-07
1.50023e-07
1.14184e-07
8.50346e-08
8.48399e-08
1.14023e-07
1.49917e-07
1.8211e-07
2.01134e-07
2.01178e-07
1.82231e-07
1.50091e-07
1.14226e-07
8.50578e-08
8.49142e-08
1.14066e-07
1.49896e-07
1.82007e-07
2.00955e-07
2.00949e-07
1.81989e-07
1.49871e-07
1.14046e-07
8.4917e-08
8.52143e-08
1.14422e-07
1.5029e-07
1.82404e-07
2.01322e-07
2.01262e-07
1.82238e-07
1.50055e-07
1.1417e-07
8.49945e-08
8.54665e-08
1.14735e-07
1.50654e-07
1.8279e-07
2.01694e-07
2.01589e-07
1.825e-07
1.50248e-07
1.14298e-07
8.50735e-08
8.56839e-08
1.15028e-07
1.51033e-07
1.83233e-07
2.02161e-07
2.0203e-07
1.82875e-07
1.50536e-07
1.14498e-07
8.52049e-08
8.57715e-08
1.15165e-07
1.51238e-07
1.83501e-07
2.02466e-07
2.02334e-07
1.8314e-07
1.50741e-07
1.1464e-07
8.52968e-08
8.57766e-08
1.15191e-07
1.51303e-07
1.83615e-07
2.02621e-07
2.02507e-07
1.83305e-07
1.50876e-07
1.1474e-07
8.53642e-08
8.57581e-08
1.15169e-07
1.51286e-07
1.83619e-07
2.02652e-07
2.02565e-07
1.83381e-07
1.50956e-07
1.14813e-07
8.54205e-08
8.57969e-08
1.15207e-07
1.51322e-07
1.83662e-07
2.02711e-07
2.02649e-07
1.83487e-07
1.51075e-07
1.14929e-07
8.55181e-08
8.59201e-08
1.15352e-07
1.51485e-07
1.83839e-07
2.02902e-07
2.02853e-07
1.837e-07
1.51285e-07
1.15118e-07
8.56746e-08
8.61131e-08
1.15599e-07
1.51784e-07
1.84173e-07
2.03253e-07
2.032e-07
1.84025e-07
1.51569e-07
1.1535e-07
8.58547e-08
8.6339e-08
1.15893e-07
1.52148e-07
1.84583e-07
2.03674e-07
2.03593e-07
1.84357e-07
1.51824e-07
1.15526e-07
8.59715e-08
8.65651e-08
1.16178e-07
1.52488e-07
1.84951e-07
2.04029e-07
2.03891e-07
1.84565e-07
1.51932e-07
1.15553e-07
8.59494e-08
8.67678e-08
1.1641e-07
1.52737e-07
1.8519e-07
2.04221e-07
2.04001e-07
1.84575e-07
1.51849e-07
1.15407e-07
8.57788e-08
8.69074e-08
1.1655e-07
1.52858e-07
1.85269e-07
2.04233e-07
2.0393e-07
1.84421e-07
1.51632e-07
1.15158e-07
8.55317e-08
8.68711e-08
1.16493e-07
1.52771e-07
1.85146e-07
2.04065e-07
2.0372e-07
1.8418e-07
1.51383e-07
1.14919e-07
8.53211e-08
8.64873e-08
1.16063e-07
1.5232e-07
1.84702e-07
2.03651e-07
2.03354e-07
1.83877e-07
1.51153e-07
1.14761e-07
8.5226e-08
8.56736e-08
1.15153e-07
1.5138e-07
1.83806e-07
2.02869e-07
2.02729e-07
1.83433e-07
1.50887e-07
1.14651e-07
8.52267e-08
8.45827e-08
1.13897e-07
1.50033e-07
1.8248e-07
2.01682e-07
2.0177e-07
1.82749e-07
1.50474e-07
1.14477e-07
8.52189e-08
8.35523e-08
1.12652e-07
1.48612e-07
1.80995e-07
2.00279e-07
2.00577e-07
1.81852e-07
1.49888e-07
1.14174e-07
8.51136e-08
8.29161e-08
1.11814e-07
1.47555e-07
1.7979e-07
1.99057e-07
1.9948e-07
1.80985e-07
1.4929e-07
1.13827e-07
8.4946e-08
8.28657e-08
1.11655e-07
1.47225e-07
1.79302e-07
1.98481e-07
1.98922e-07
1.80533e-07
1.48982e-07
1.1365e-07
8.48565e-08
8.3433e-08
1.12257e-07
1.47785e-07
1.79772e-07
1.98851e-07
1.99216e-07
1.80777e-07
1.49189e-07
1.13802e-07
8.49505e-08
8.44965e-08
1.13497e-07
1.49135e-07
1.81138e-07
2.00134e-07
2.00344e-07
1.81693e-07
1.49872e-07
1.14239e-07
8.51931e-08
8.57939e-08
1.1506e-07
1.50921e-07
1.83018e-07
2.01946e-07
2.01933e-07
1.82945e-07
1.50747e-07
1.14754e-07
8.54447e-08
8.69663e-08
1.16505e-07
1.52622e-07
1.84844e-07
2.0371e-07
2.03447e-07
1.84082e-07
1.51477e-07
1.1513e-07
8.55848e-08
8.75837e-08
1.17309e-07
1.53633e-07
1.85978e-07
2.04827e-07
2.04398e-07
1.84771e-07
1.51888e-07
1.15324e-07
8.56432e-08
8.74025e-08
1.17148e-07
1.53556e-07
1.86007e-07
2.0495e-07
2.04571e-07
1.84952e-07
1.52048e-07
1.15457e-07
8.57415e-08
8.60248e-08
1.15641e-07
1.5207e-07
1.84732e-07
2.04029e-07
2.0407e-07
1.84843e-07
1.52234e-07
1.15787e-07
8.6106e-08
8.23008e-08
1.11633e-07
1.48166e-07
1.81401e-07
2.01625e-07
2.02748e-07
1.84531e-07
1.52694e-07
1.16669e-07
8.71355e-08
7.61957e-08
1.04844e-07
1.41274e-07
1.75202e-07
1.96828e-07
1.99737e-07
1.83309e-07
1.52927e-07
1.17832e-07
8.87443e-08
6.91145e-08
9.64164e-08
1.31979e-07
1.65973e-07
1.8876e-07
1.93649e-07
1.79561e-07
1.51357e-07
1.17935e-07
8.98943e-08
6.17163e-08
8.69695e-08
1.20683e-07
1.53661e-07
1.76718e-07
1.8313e-07
1.71463e-07
1.45984e-07
1.15084e-07
8.89725e-08
5.51415e-08
7.78082e-08
1.08556e-07
1.39008e-07
1.60706e-07
1.67295e-07
1.57278e-07
1.34447e-07
1.0663e-07
8.3371e-08
5.13069e-08
7.13331e-08
9.82928e-08
1.24609e-07
1.42687e-07
1.47066e-07
1.36726e-07
1.15419e-07
9.05431e-08
7.06676e-08
5.01197e-08
6.80002e-08
9.13208e-08
1.13048e-07
1.26408e-07
1.2712e-07
1.15062e-07
9.43071e-08
7.18747e-08
5.5124e-08
5.25102e-08
6.90434e-08
8.95684e-08
1.07164e-07
1.15836e-07
1.12502e-07
9.80993e-08
7.71499e-08
5.62841e-08
4.15994e-08
5.5442e-08
7.13966e-08
9.03753e-08
1.0562e-07
1.11535e-07
1.05775e-07
8.98329e-08
6.8519e-08
4.81282e-08
3.422e-08
6.59686e-08
8.1666e-08
9.87466e-08
1.10487e-07
1.11786e-07
1.01498e-07
8.21431e-08
5.92806e-08
3.87739e-08
2.56225e-08
5.84367e-07
8.28587e-07
1.09509e-06
1.31565e-06
1.44046e-06
1.44046e-06
1.31565e-06
1.09509e-06
8.28584e-07
5.84364e-07
2.35124e-07
3.22816e-07
4.26148e-07
5.15479e-07
5.67284e-07
5.67281e-07
5.1547e-07
4.26136e-07
3.22804e-07
2.35113e-07
8.23398e-08
1.10262e-07
1.44693e-07
1.75716e-07
1.94038e-07
1.94032e-07
1.757e-07
1.4467e-07
1.10238e-07
8.23168e-08
1.07679e-07
1.45229e-07
1.90604e-07
2.30844e-07
2.54431e-07
2.54416e-07
2.30801e-07
1.90543e-07
1.45163e-07
1.07616e-07
8.3978e-08
1.12637e-07
1.47894e-07
1.79501e-07
1.98139e-07
1.9811e-07
1.79421e-07
1.47781e-07
1.12512e-07
8.38569e-08
9.09899e-08
1.22343e-07
1.60692e-07
1.9494e-07
2.15087e-07
2.1503e-07
1.94783e-07
1.60468e-07
1.22095e-07
9.07479e-08
8.51783e-08
1.14335e-07
1.50162e-07
1.82243e-07
2.01129e-07
2.01037e-07
1.81987e-07
1.49796e-07
1.13928e-07
8.47812e-08
8.70629e-08
1.16918e-07
1.53536e-07
1.86276e-07
2.05516e-07
2.05377e-07
1.8589e-07
1.52985e-07
1.16307e-07
8.6468e-08
8.55727e-08
1.14842e-07
1.5078e-07
1.82923e-07
2.01797e-07
2.01614e-07
1.82419e-07
1.50064e-07
1.14049e-07
8.47992e-08
8.60573e-08
1.15488e-07
1.51603e-07
1.83885e-07
2.0282e-07
2.02606e-07
1.83292e-07
1.50762e-07
1.14558e-07
8.5147e-08
8.56484e-08
1.14912e-07
1.50833e-07
1.82944e-07
2.01776e-07
2.01553e-07
1.8233e-07
1.49964e-07
1.1395e-07
8.47018e-08
8.57346e-08
1.15041e-07
1.51014e-07
1.83179e-07
2.02052e-07
2.01854e-07
1.82632e-07
1.50245e-07
1.14189e-07
8.48908e-08
8.55521e-08
1.14828e-07
1.50783e-07
1.82952e-07
2.0186e-07
2.0172e-07
1.82571e-07
1.50252e-07
1.14245e-07
8.49691e-08
8.54731e-08
1.1478e-07
1.50793e-07
1.83045e-07
2.02046e-07
2.01991e-07
1.82898e-07
1.50599e-07
1.14574e-07
8.52591e-08
8.53386e-08
1.14654e-07
1.50704e-07
1.8302e-07
2.02106e-07
2.02137e-07
1.83113e-07
1.50849e-07
1.14826e-07
8.54909e-08
8.53025e-08
1.14638e-07
1.50724e-07
1.83097e-07
2.02252e-07
2.02345e-07
1.83359e-07
1.51099e-07
1.15055e-07
8.56883e-08
8.53621e-08
1.1471e-07
1.50809e-07
1.83198e-07
2.02373e-07
2.02482e-07
1.83498e-07
1.51225e-07
1.15156e-07
8.57676e-08
8.55412e-08
1.14914e-07
1.51021e-07
1.83405e-07
2.02559e-07
2.02638e-07
1.83615e-07
1.513e-07
1.15193e-07
8.57802e-08
8.57523e-08
1.15162e-07
1.51288e-07
1.83665e-07
2.02787e-07
2.02816e-07
1.83735e-07
1.51366e-07
1.15216e-07
8.57786e-08
8.58869e-08
1.15343e-07
1.5151e-07
1.83908e-07
2.03024e-07
2.03022e-07
1.83895e-07
1.51481e-07
1.15291e-07
8.58282e-08
8.58645e-08
1.15356e-07
1.51574e-07
1.84024e-07
2.03177e-07
2.0319e-07
1.84061e-07
1.51631e-07
1.15422e-07
8.59424e-08
8.57097e-08
1.15213e-07
1.5147e-07
1.83981e-07
2.03204e-07
2.0328e-07
1.84198e-07
1.51793e-07
1.15592e-07
8.61061e-08
8.55257e-08
1.15021e-07
1.51293e-07
1.83852e-07
2.03151e-07
2.03314e-07
1.84311e-07
1.51961e-07
1.15786e-07
8.62979e-08
8.54255e-08
1.1491e-07
1.51186e-07
1.83777e-07
2.03139e-07
2.03384e-07
1.8446e-07
1.52163e-07
1.16006e-07
8.65068e-08
8.5459e-08
1.14953e-07
1.51242e-07
1.83861e-07
2.03268e-07
2.03569e-07
1.84692e-07
1.52418e-07
1.16251e-07
8.67196e-08
8.55987e-08
1.15128e-07
1.51455e-07
1.84105e-07
2.0354e-07
2.03858e-07
1.8498e-07
1.52682e-07
1.16469e-07
8.68886e-08
8.57772e-08
1.15351e-07
1.51723e-07
1.84395e-07
2.03823e-07
2.04101e-07
1.85158e-07
1.52785e-07
1.16503e-07
8.68801e-08
8.59242e-08
1.15513e-07
1.5189e-07
1.8453e-07
2.03878e-07
2.04036e-07
1.84957e-07
1.52471e-07
1.16127e-07
8.65055e-08
8.59701e-08
1.15503e-07
1.51796e-07
1.84302e-07
2.0347e-07
2.03424e-07
1.84165e-07
1.51569e-07
1.15223e-07
8.56826e-08
8.58624e-08
1.15257e-07
1.51359e-07
1.83631e-07
2.02539e-07
2.02256e-07
1.82838e-07
1.50206e-07
1.13957e-07
8.45814e-08
8.56061e-08
1.14808e-07
1.50654e-07
1.82647e-07
2.01293e-07
2.00822e-07
1.81341e-07
1.48785e-07
1.12724e-07
8.35573e-08
8.52903e-08
1.14301e-07
1.49901e-07
1.81654e-07
2.00113e-07
1.99569e-07
1.80147e-07
1.47762e-07
1.1192e-07
8.29413e-08
8.50469e-08
1.1393e-07
1.4937e-07
1.8099e-07
1.9939e-07
1.98896e-07
1.79622e-07
1.47439e-07
1.11777e-07
8.29074e-08
8.4976e-08
1.13845e-07
1.49268e-07
1.80906e-07
1.99385e-07
1.99036e-07
1.79943e-07
1.4792e-07
1.1234e-07
8.34711e-08
8.50729e-08
1.1406e-07
1.49638e-07
1.81458e-07
2.00146e-07
2.00002e-07
1.81067e-07
1.49115e-07
1.13492e-07
8.45091e-08
8.52476e-08
1.14449e-07
1.50318e-07
1.82454e-07
2.01446e-07
2.01534e-07
1.82712e-07
1.50729e-07
1.14954e-07
8.57688e-08
8.54062e-08
1.14842e-07
1.51045e-07
1.83543e-07
2.02863e-07
2.03164e-07
1.84399e-07
1.52311e-07
1.16324e-07
8.6906e-08
8.55798e-08
1.15184e-07
1.51631e-07
1.84384e-07
2.03918e-07
2.04323e-07
1.85529e-07
1.53294e-07
1.17109e-07
8.75075e-08
8.59327e-08
1.156e-07
1.52106e-07
1.84865e-07
2.04348e-07
2.04638e-07
1.8569e-07
1.53299e-07
1.17e-07
8.73437e-08
8.6688e-08
1.16301e-07
1.52627e-07
1.8503e-07
2.04046e-07
2.03843e-07
1.84482e-07
1.51848e-07
1.15509e-07
8.59806e-08
8.78709e-08
1.17198e-07
1.5294e-07
1.84419e-07
2.02294e-07
2.0094e-07
1.8066e-07
1.47549e-07
1.11251e-07
8.21786e-08
8.89133e-08
1.17587e-07
1.52192e-07
1.82067e-07
1.98061e-07
1.94929e-07
1.73393e-07
1.39848e-07
1.03999e-07
7.59075e-08
8.93081e-08
1.1706e-07
1.50174e-07
1.78056e-07
1.91839e-07
1.86788e-07
1.64131e-07
1.30522e-07
9.55994e-08
6.88029e-08
9.01095e-08
1.17009e-07
1.4866e-07
1.74523e-07
1.86059e-07
1.79061e-07
1.55266e-07
1.21543e-07
8.74521e-08
6.17608e-08
9.28629e-08
1.19178e-07
1.49568e-07
1.73517e-07
1.82827e-07
1.73819e-07
1.4872e-07
1.14616e-07
8.0977e-08
5.59786e-08
9.87262e-08
1.24967e-07
1.54624e-07
1.77132e-07
1.84557e-07
1.73694e-07
1.47176e-07
1.1229e-07
7.83934e-08
5.33221e-08
1.06113e-07
1.32639e-07
1.62104e-07
1.8378e-07
1.89873e-07
1.77529e-07
1.49663e-07
1.13753e-07
7.9046e-08
5.33506e-08
1.14927e-07
1.42713e-07
1.73256e-07
1.95375e-07
2.01082e-07
1.87651e-07
1.58229e-07
1.20576e-07
8.41018e-08
5.68542e-08
1.18386e-07
1.46512e-07
1.77496e-07
2.0001e-07
2.06005e-07
1.92772e-07
1.63397e-07
1.25575e-07
8.85436e-08
6.05238e-08
1.33597e-07
1.65268e-07
1.99962e-07
2.25418e-07
2.32962e-07
2.19499e-07
1.88021e-07
1.46715e-07
1.05215e-07
7.32033e-08
)
;
    }
    inlet
    {
        type            calculated;
        value           uniform 0;
    }
    outlet
    {
        type            calculated;
        value           uniform 0;
    }
}


// ************************************************************************* //
