/*--------------------------------*- C++ -*----------------------------------*\
| =========                 |                                                 |
| \\      /  F ield         | OpenFOAM: The Open Source CFD Toolbox           |
|  \\    /   O peration     | Version:  2406                                  |
|   \\  /    A nd           | Website:  www.openfoam.com                      |
|    \\/     M anipulation  |                                                 |
\*---------------------------------------------------------------------------*/
FoamFile
{
    version     2.0;
    format      ascii;
    arch        "LSB;label=32;scalar=64";
    class       volVectorField;
    location    "1.1";
    object      momentError;
}
// * * * * * * * * * * * * * * * * * * * * * * * * * * * * * * * * * * * * * //

dimensions      [0 1 -2 0 0 0 0];

internalField   nonuniform List<vector> 
25000
(
(5.60782e-05 1.92042e-06 8.58392e-05)
(6.15838e-05 3.97645e-06 8.04927e-05)
(5.96062e-05 7.81436e-06 7.91804e-05)
(5.49012e-05 9.68201e-06 7.74476e-05)
(4.96861e-05 1.13403e-05 7.57308e-05)
(4.43642e-05 1.31742e-05 7.6078e-05)
(3.83482e-05 1.4908e-05 7.88804e-05)
(3.28981e-05 1.67077e-05 8.22325e-05)
(2.8183e-05 1.78276e-05 8.46124e-05)
(2.02745e-05 1.76796e-05 9.87679e-05)
(4.52523e-05 9.82493e-06 7.85973e-05)
(5.28511e-05 1.55352e-05 7.00167e-05)
(5.16252e-05 1.90376e-05 6.63818e-05)
(4.75731e-05 2.02126e-05 6.29107e-05)
(4.31577e-05 2.08648e-05 5.99753e-05)
(3.82998e-05 2.17447e-05 5.95553e-05)
(3.27447e-05 2.26676e-05 6.21956e-05)
(2.82508e-05 2.29874e-05 6.63575e-05)
(2.54324e-05 2.15867e-05 7.0247e-05)
(2.06342e-05 2.13198e-05 8.31477e-05)
(4.34959e-05 8.09128e-06 7.59493e-05)
(5.10339e-05 1.42473e-05 6.46989e-05)
(4.96047e-05 1.74106e-05 5.95605e-05)
(4.5718e-05 1.82883e-05 5.50575e-05)
(4.15388e-05 1.84853e-05 5.13752e-05)
(3.66923e-05 1.87296e-05 5.04628e-05)
(3.10307e-05 1.8954e-05 5.29278e-05)
(2.62858e-05 1.83577e-05 5.76151e-05)
(2.28607e-05 1.57706e-05 6.32653e-05)
(1.69613e-05 1.40419e-05 7.7574e-05)
(4.31723e-05 3.23827e-06 7.22857e-05)
(5.0184e-05 9.20331e-06 5.95567e-05)
(4.82813e-05 1.22982e-05 5.36042e-05)
(4.43327e-05 1.31947e-05 4.861e-05)
(4.02648e-05 1.31376e-05 4.46229e-05)
(3.54343e-05 1.28977e-05 4.3484e-05)
(2.97519e-05 1.25214e-05 4.57527e-05)
(2.47828e-05 1.13899e-05 5.0484e-05)
(2.09141e-05 8.56223e-06 5.69294e-05)
(1.48163e-05 6.07827e-06 7.25929e-05)
(4.3889e-05 -1.42066e-06 6.85223e-05)
(5.01983e-05 4.31263e-06 5.51027e-05)
(4.76717e-05 7.47675e-06 4.87404e-05)
(4.33835e-05 8.51264e-06 4.35547e-05)
(3.90942e-05 8.41976e-06 3.95179e-05)
(3.42208e-05 7.8541e-06 3.83465e-05)
(2.8565e-05 6.98365e-06 4.05355e-05)
(2.35287e-05 5.43427e-06 4.52351e-05)
(1.9459e-05 2.52225e-06 5.19463e-05)
(1.35235e-05 -7.89224e-07 6.82533e-05)
(4.61008e-05 -5.50238e-06 6.64602e-05)
(5.18347e-05 -3.67557e-08 5.29256e-05)
(4.84662e-05 3.18858e-06 4.64939e-05)
(4.35031e-05 4.3726e-06 4.12943e-05)
(3.873e-05 4.24964e-06 3.72994e-05)
(3.35144e-05 3.39504e-06 3.62009e-05)
(2.77258e-05 2.07706e-06 3.84681e-05)
(2.26058e-05 7.32851e-08 4.32332e-05)
(1.83956e-05 -2.99403e-06 5.00053e-05)
(1.26584e-05 -7.24492e-06 6.64087e-05)
(4.98664e-05 -9.18768e-06 6.59681e-05)
(5.47513e-05 -4.02051e-06 5.28183e-05)
(5.0468e-05 -9.99729e-07 4.66854e-05)
(4.45534e-05 1.16945e-07 4.16645e-05)
(3.89258e-05 -2.25757e-07 3.78226e-05)
(3.32587e-05 -1.43028e-06 3.69226e-05)
(2.71956e-05 -3.3203e-06 3.94002e-05)
(2.19532e-05 -5.79677e-06 4.43038e-05)
(1.79335e-05 -8.95865e-06 5.09905e-05)
(1.25842e-05 -1.43829e-05 6.70274e-05)
(5.44451e-05 -1.11513e-05 6.51723e-05)
(5.76532e-05 -6.46025e-06 5.32498e-05)
(5.22703e-05 -4.16784e-06 4.78644e-05)
(4.54531e-05 -3.63974e-06 4.3369e-05)
(3.91493e-05 -4.4286e-06 3.99684e-05)
(3.30673e-05 -6.13919e-06 3.94253e-05)
(2.68844e-05 -8.57641e-06 4.21614e-05)
(2.19319e-05 -1.13335e-05 4.71396e-05)
(1.8246e-05 -1.4445e-05 5.32694e-05)
(1.33331e-05 -2.13671e-05 6.82292e-05)
(5.98188e-05 -1.03623e-05 6.3014e-05)
(5.96153e-05 -6.89016e-06 5.34567e-05)
(5.32244e-05 -6.27533e-06 4.95211e-05)
(4.59833e-05 -6.81055e-06 4.60851e-05)
(3.93273e-05 -8.28266e-06 4.35049e-05)
(3.32771e-05 -1.04164e-05 4.34875e-05)
(2.74785e-05 -1.31932e-05 4.64408e-05)
(2.3095e-05 -1.62212e-05 5.09902e-05)
(1.9919e-05 -1.98639e-05 5.55804e-05)
(1.59529e-05 -2.99118e-05 6.91371e-05)
(7.58265e-05 -6.70135e-06 6.77231e-05)
(6.82009e-05 -6.6195e-06 6.09113e-05)
(5.94611e-05 -9.29105e-06 5.95216e-05)
(5.13097e-05 -1.13837e-05 5.78775e-05)
(4.39036e-05 -1.36949e-05 5.64755e-05)
(3.73876e-05 -1.64027e-05 5.71229e-05)
(3.13727e-05 -1.98763e-05 6.0076e-05)
(2.6678e-05 -2.41616e-05 6.36241e-05)
(2.28263e-05 -3.01938e-05 6.65071e-05)
(2.14529e-05 -4.51608e-05 8.10967e-05)
(0.000205479 -5.7058e-05 0.000172461)
(0.000214761 -3.48723e-05 0.000200413)
(0.000219168 -1.67481e-05 0.000242311)
(0.000216495 -4.72239e-06 0.000272709)
(0.00020713 5.36524e-06 0.000293531)
(0.000193628 1.33843e-05 0.000310344)
(0.000176239 1.9324e-05 0.000325476)
(0.000156155 2.33414e-05 0.000336667)
(0.000134686 2.58291e-05 0.00034509)
(0.000111076 2.37187e-05 0.000412884)
(0.000161204 -4.6364e-05 0.000183041)
(0.000177654 -1.93399e-05 0.000218552)
(0.000184926 -2.11229e-06 0.000260533)
(0.000182015 7.9e-06 0.000283751)
(0.000172424 1.45807e-05 0.000296882)
(0.000159013 1.88187e-05 0.000308603)
(0.000142502 2.07077e-05 0.000319875)
(0.000124678 1.93095e-05 0.000323078)
(0.000106673 1.36279e-05 0.000314477)
(8.42086e-05 7.56638e-06 0.000349583)
(0.00014662 -4.68968e-05 0.000210556)
(0.000166278 -2.06841e-05 0.000247759)
(0.000171744 -5.34756e-06 0.000282946)
(0.000166602 2.781e-06 0.000296949)
(0.00015608 6.9833e-06 0.000303748)
(0.000142671 8.72963e-06 0.00031348)
(0.000126947 8.26351e-06 0.000327416)
(0.000110024 4.57908e-06 0.000335554)
(9.26851e-05 -4.2373e-06 0.000325885)
(7.06804e-05 -1.59065e-05 0.000344263)
(0.000139961 -5.15195e-05 0.000224737)
(0.000159163 -2.83557e-05 0.000258682)
(0.000162008 -1.49345e-05 0.000285703)
(0.000155614 -8.09852e-06 0.000293836)
(0.000144843 -5.30648e-06 0.000297177)
(0.000131586 -5.19034e-06 0.000305222)
(0.0001165 -7.54322e-06 0.000319887)
(0.000100536 -1.29563e-05 0.000332339)
(8.42315e-05 -2.26332e-05 0.00032788)
(6.46604e-05 -3.68812e-05 0.000339923)
(0.000136351 -5.61937e-05 0.000226775)
(0.000155138 -3.71844e-05 0.000258011)
(0.000156487 -2.58813e-05 0.000280829)
(0.000149438 -2.00812e-05 0.000286747)
(0.000138557 -1.81063e-05 0.000288733)
(0.000125449 -1.90321e-05 0.000295685)
(0.000110788 -2.26507e-05 0.000309885)
(9.56548e-05 -2.93594e-05 0.000323589)
(8.03662e-05 -3.98282e-05 0.000322571)
(6.31647e-05 -5.57574e-05 0.000333184)
(0.000135898 -6.00056e-05 0.000220631)
(0.000155368 -4.56796e-05 0.000253582)
(0.00015644 -3.69433e-05 0.000277304)
(0.000148954 -3.22434e-05 0.000283706)
(0.000137746 -3.10575e-05 0.000285858)
(0.000124577 -3.29816e-05 0.000292652)
(0.000110208 -3.76698e-05 0.000306371)
(9.56398e-05 -4.53382e-05 0.00031937)
(8.1235e-05 -5.62376e-05 0.000317591)
(6.57591e-05 -7.32424e-05 0.000326645)
(0.000138014 -6.12814e-05 0.000205445)
(0.000158848 -5.22398e-05 0.000244676)
(0.000161096 -4.7032e-05 0.000274279)
(0.000153627 -4.41824e-05 0.000283729)
(0.000142013 -4.43044e-05 0.00028745)
(0.000128791 -4.74428e-05 0.000294989)
(0.000114718 -5.33887e-05 0.000308277)
(0.000100682 -6.19505e-05 0.000318812)
(8.74069e-05 -7.24829e-05 0.000312303)
(7.3212e-05 -9.03543e-05 0.000319336)
(0.000142296 -5.70123e-05 0.000175897)
(0.000163016 -5.30701e-05 0.000222678)
(0.000167566 -5.24676e-05 0.000262029)
(0.000161547 -5.28612e-05 0.000277907)
(0.000150581 -5.53087e-05 0.000285118)
(0.000137904 -6.02296e-05 0.000293962)
(0.00012443 -6.76425e-05 0.000305879)
(0.000111247 -7.65662e-05 0.000311416)
(9.89182e-05 -8.56896e-05 0.000298433)
(8.5387e-05 -0.000105229 0.000307063)
(0.000150935 -4.48591e-05 0.00012895)
(0.000166297 -4.50341e-05 0.000178291)
(0.000172714 -4.96862e-05 0.000226249)
(0.000170257 -5.45165e-05 0.000251822)
(0.000162154 -6.0464e-05 0.000265267)
(0.000151518 -6.7605e-05 0.000275706)
(0.000139598 -7.61653e-05 0.000284384)
(0.000127861 -8.49195e-05 0.000283948)
(0.000116711 -9.44232e-05 0.000269528)
(0.000105623 -0.000120336 0.00028915)
(0.000188892 -3.04211e-05 8.74559e-05)
(0.000190078 -3.31254e-05 0.000135351)
(0.000193865 -4.28265e-05 0.000186345)
(0.000193877 -5.1786e-05 0.000220821)
(0.000189077 -6.14463e-05 0.000242463)
(0.000181445 -7.15145e-05 0.00025739)
(0.000172035 -8.26792e-05 0.000268022)
(0.000161663 -9.50682e-05 0.000271868)
(0.000151208 -0.000112247 0.000269246)
(0.000146814 -0.000150366 0.00031327)
(0.000416977 -0.00016685 -2.86708e-05)
(0.000424655 -0.00011142 0.000129056)
(0.000436646 -7.10163e-05 0.000277478)
(0.000440593 -4.18296e-05 0.000400457)
(0.00043251 -1.61443e-05 0.000504181)
(0.000414347 5.63821e-06 0.000599784)
(0.000386227 2.3871e-05 0.000696274)
(0.000350568 3.80934e-05 0.000794604)
(0.000310913 4.8761e-05 0.000901655)
(0.000274744 5.15078e-05 0.00118945)
(0.000310739 -0.00013162 4.86148e-05)
(0.000335005 -7.52925e-05 0.000195698)
(0.000356415 -4.20829e-05 0.0003365)
(0.000364826 -2.05105e-05 0.000442147)
(0.000358803 -4.3176e-06 0.000521828)
(0.000340707 6.87723e-06 0.000586981)
(0.000312153 1.37809e-05 0.000645793)
(0.000276603 1.56032e-05 0.000696715)
(0.000237359 1.11324e-05 0.000744762)
(0.000195682 3.40399e-06 0.000928489)
(0.000269083 -0.000116333 0.000115213)
(0.000303872 -6.59362e-05 0.000265973)
(0.000330348 -3.86152e-05 0.000409164)
(0.000340261 -2.24566e-05 0.000510298)
(0.000333809 -1.26964e-05 0.000580571)
(0.000314495 -8.43142e-06 0.000633175)
(0.000285022 -9.00057e-06 0.00067504)
(0.000248388 -1.43658e-05 0.000703363)
(0.000206482 -2.60001e-05 0.000722129)
(0.000160719 -4.44224e-05 0.000849513)
(0.00024869 -0.000111079 0.000145607)
(0.000287372 -6.88176e-05 0.000301719)
(0.000315505 -4.70866e-05 0.000446714)
(0.000325283 -3.54749e-05 0.000545479)
(0.000317571 -3.01905e-05 0.000610388)
(0.000297157 -3.0296e-05 0.000657528)
(0.000267658 -3.55298e-05 0.000690894)
(0.000231565 -4.52566e-05 0.000704747)
(0.00018972 -6.02545e-05 0.000703778)
(0.00014512 -8.49021e-05 0.000793358)
(0.000237185 -0.000107598 0.000143465)
(0.000277877 -7.54582e-05 0.000305939)
(0.000306338 -6.03003e-05 0.000452684)
(0.000315074 -5.34021e-05 0.00054925)
(0.000306173 -5.19261e-05 0.000610051)
(0.000285446 -5.49839e-05 0.000655903)
(0.000256609 -6.26822e-05 0.000686718)
(0.000222381 -7.44084e-05 0.000693373)
(0.000182485 -9.09304e-05 0.00068066)
(0.000141148 -0.000120304 0.000746939)
(0.000232972 -0.000103015 0.000113184)
(0.000274716 -8.15279e-05 0.000284588)
(0.000303152 -7.36356e-05 0.000435239)
(0.000311696 -7.17229e-05 0.000533332)
(0.000302746 -7.37227e-05 0.000594128)
(0.000282564 -7.9785e-05 0.000639494)
(0.000254787 -8.90438e-05 0.000669448)
(0.000222218 -0.000101404 0.000673731)
(0.000184757 -0.000118232 0.000656335)
(0.000147283 -0.000151402 0.00071164)
(0.000235282 -9.32983e-05 5.22724e-05)
(0.00027664 -8.24967e-05 0.000234823)
(0.000304993 -8.22612e-05 0.000391631)
(0.000314552 -8.59812e-05 0.000495596)
(0.000307083 -9.2299e-05 0.000561604)
(0.000288411 -0.000101062 0.000607265)
(0.000262345 -0.000112021 0.000636648)
(0.000231549 -0.000125312 0.000642453)
(0.00019731 -0.000142656 0.000627173)
(0.000164296 -0.000180547 0.000683386)
(0.00024544 -7.49252e-05 -4.72179e-05)
(0.000283373 -7.33122e-05 0.000147407)
(0.000310384 -8.00845e-05 0.000309666)
(0.000320985 -8.96344e-05 0.00041991)
(0.000316222 -0.0001009 0.000492816)
(0.00030063 -0.000113331 0.000542723)
(0.000277555 -0.000127284 0.00057648)
(0.000250111 -0.000143038 0.000590148)
(0.000220338 -0.000162266 0.000584716)
(0.000192769 -0.000206814 0.000654774)
(0.000269976 -4.48e-05 -0.000191547)
(0.000298133 -5.13703e-05 1.41337e-05)
(0.000321666 -6.45037e-05 0.00017869)
(0.000333098 -7.95884e-05 0.000295675)
(0.000331834 -9.64447e-05 0.000378139)
(0.000320914 -0.000113955 0.00043809)
(0.000302859 -0.000133058 0.000483389)
(0.000280915 -0.000153556 0.000511861)
(0.000258085 -0.000178638 0.000525184)
(0.000241358 -0.000236008 0.000626035)
(0.000353503 -9.51881e-06 -0.000399078)
(0.000361338 -2.16989e-05 -0.000156387)
(0.000378791 -4.31854e-05 2.30773e-05)
(0.000390013 -6.46676e-05 0.000160271)
(0.000391901 -8.8261e-05 0.000266051)
(0.000386312 -0.000113069 0.000351624)
(0.000374874 -0.000140476 0.000425439)
(0.000359444 -0.000171021 0.000487423)
(0.000344085 -0.00021192 0.00054119)
(0.000344662 -0.000291572 0.000705454)
(0.000776275 -0.000433673 -0.000500058)
(0.000772143 -0.000297678 -0.000114668)
(0.000792958 -0.000210655 0.000202207)
(0.000807207 -0.000148318 0.000479344)
(0.000805172 -9.35585e-05 0.000730897)
(0.000787131 -4.61974e-05 0.0009732)
(0.000751911 -5.18986e-06 0.00121966)
(0.000701169 2.82336e-05 0.00147816)
(0.000639482 5.69058e-05 0.00176672)
(0.000597871 7.03835e-05 0.0024374)
(0.000549774 -0.000364735 -0.000301882)
(0.000574398 -0.000242249 2.41719e-05)
(0.000613036 -0.000175421 0.000304214)
(0.000638085 -0.000129679 0.000532901)
(0.000643238 -9.30323e-05 0.000725742)
(0.000627948 -6.47287e-05 0.000897266)
(0.000592943 -4.33983e-05 0.00106044)
(0.000541787 -3.10193e-05 0.0012207)
(0.000478279 -2.82312e-05 0.00139031)
(0.000416842 -3.25809e-05 0.00183453)
(0.000451285 -0.000326462 -0.000187252)
(0.000498016 -0.000222439 0.000127762)
(0.00054849 -0.000170053 0.000404538)
(0.000581016 -0.000137061 0.000621892)
(0.000590938 -0.000114478 0.000794531)
(0.000575746 -0.000100161 0.000934315)
(0.000537735 -9.16175e-05 0.00105494)
(0.000482812 -9.0757e-05 0.00116952)
(0.000413661 -0.00010017 0.00128805)
(0.000342445 -0.000123835 0.00162075)
(0.00040034 -0.000300533 -0.000144856)
(0.000458281 -0.000215044 0.00017289)
(0.000517073 -0.000175227 0.000454594)
(0.000558325 -0.000153501 0.000679767)
(0.000575505 -0.000141857 0.000854268)
(0.000559367 -0.000138034 0.000972176)
(0.000514553 -0.000137161 0.0010533)
(0.00045394 -0.000142869 0.00113093)
(0.000381584 -0.000158922 0.00121212)
(0.000310417 -0.000195871 0.00146968)
(0.000371017 -0.000274463 -0.000164325)
(0.000437314 -0.000208867 0.000165073)
(0.000503183 -0.000182215 0.000456592)
(0.000553599 -0.000172315 0.000702658)
(0.000579274 -0.000171767 0.000902002)
(0.000561386 -0.000172786 0.000999526)
(0.000509111 -0.000175847 0.00104072)
(0.000443999 -0.000185388 0.00108854)
(0.000371055 -0.000206353 0.0011425)
(0.0003038 -0.000255506 0.00135118)
(0.000359305 -0.000244647 -0.000239031)
(0.000430908 -0.000198281 0.000109602)
(0.000499164 -0.000184287 0.000409441)
(0.000551086 -0.00018456 0.000660675)
(0.000576936 -0.000192199 0.000865061)
(0.000560705 -0.000199534 0.000961782)
(0.000509655 -0.000205065 0.000995635)
(0.000447716 -0.000218638 0.00103525)
(0.000378989 -0.000244265 0.0010779)
(0.000318243 -0.000305102 0.00126159)
(0.000364508 -0.000204275 -0.000371771)
(0.000438002 -0.000176751 2.74575e-06)
(0.000503891 -0.000174586 0.000308761)
(0.000549183 -0.000182905 0.000547528)
(0.000569173 -0.000196908 0.000728659)
(0.000556887 -0.000208686 0.000843325)
(0.000517779 -0.000222444 0.000910304)
(0.00046608 -0.000243454 0.000965066)
(0.000406184 -0.000275431 0.00101266)
(0.000354359 -0.000349976 0.00119492)
(0.000391044 -0.000148919 -0.000573703)
(0.000462194 -0.000138675 -0.000166004)
(0.000524217 -0.000147555 0.000147905)
(0.000564271 -0.000163833 0.000383646)
(0.000580513 -0.000184431 0.000561316)
(0.000572914 -0.000205894 0.000694172)
(0.000545455 -0.00023044 0.00079504)
(0.000505096 -0.000260859 0.000874705)
(0.0004555 -0.000301065 0.000939426)
(0.000414931 -0.00039147 0.00114407)
(0.000452447 -7.19641e-05 -0.00085703)
(0.000511609 -7.98362e-05 -0.000406636)
(0.000568166 -0.000100871 -8.33326e-05)
(0.000606252 -0.000127253 0.000164902)
(0.000623553 -0.000158613 0.000360047)
(0.000621519 -0.000192222 0.000517734)
(0.00060332 -0.000229844 0.000650081)
(0.000573428 -0.000272165 0.000760412)
(0.000536654 -0.000325873 0.000855559)
(0.000518473 -0.000440028 0.00111381)
(0.000628487 1.73793e-05 -0.0013435)
(0.000659772 -4.02528e-06 -0.000766198)
(0.000709334 -4.36254e-05 -0.000390252)
(0.000746461 -8.46955e-05 -9.00932e-05)
(0.000766684 -0.000131147 0.000158907)
(0.000771691 -0.000180977 0.000374419)
(0.000764048 -0.000236313 0.000568857)
(0.000745889 -0.000298562 0.000746842)
(0.00072471 -0.000381864 0.000918762)
(0.000742838 -0.000532636 0.00130253)
(0.00143263 -0.000900248 -0.00148137)
(0.0013919 -0.00060582 -0.000640406)
(0.00141234 -0.000427438 -1.13979e-06)
(0.00143192 -0.000304414 0.000572549)
(0.00142839 -0.000200818 0.00111452)
(0.00139821 -0.000113222 0.00165462)
(0.00133703 -3.7984e-05 0.00221758)
(0.00124665 2.24923e-05 0.00282644)
(0.0011356 7.27982e-05 0.00352353)
(0.00106225 9.14331e-05 0.00500572)
(0.00101748 -0.000767342 -0.00106295)
(0.00103283 -0.000504906 -0.000372311)
(0.00108773 -0.000367893 0.000170636)
(0.00112933 -0.000276347 0.000631685)
(0.00114165 -0.000205054 0.0010448)
(0.00111895 -0.000150033 0.00143509)
(0.0010595 -0.000107112 0.00182486)
(0.000968613 -7.99432e-05 0.00223127)
(0.000854068 -6.9325e-05 0.0026823)
(0.000747581 -7.67036e-05 0.00368684)
(0.000825236 -0.00068827 -0.00088655)
(0.000884521 -0.00046131 -0.000234145)
(0.00096308 -0.000352095 0.000289601)
(0.00102024 -0.00028514 0.000716481)
(0.00104412 -0.000240146 0.0010797)
(0.00102373 -0.000209671 0.00140418)
(0.000959553 -0.000187749 0.00170924)
(0.000862906 -0.000179463 0.00203116)
(0.000740163 -0.000188491 0.00238745)
(0.000618378 -0.000226867 0.00316742)
(0.000721058 -0.000631538 -0.000850734)
(0.00080341 -0.000437783 -0.000199423)
(0.000899567 -0.000351197 0.000325994)
(0.000976658 -0.000306244 0.000757515)
(0.0010234 -0.000284231 0.00110999)
(0.00100274 -0.000274145 0.00139154)
(0.000919623 -0.000260902 0.0016181)
(0.000811068 -0.00026358 0.00187979)
(0.000683389 -0.000284971 0.00217029)
(0.000562081 -0.000347092 0.00279942)
(0.000659751 -0.000573929 -0.000932247)
(0.00075987 -0.000414994 -0.000255717)
(0.00087217 -0.00035113 0.000287084)
(0.000974742 -0.000329516 0.000763131)
(0.0010556 -0.000332835 0.00118588)
(0.00103431 -0.000330644 0.00136543)
(0.000921519 -0.000320716 0.00154219)
(0.000795329 -0.000329556 0.0017505)
(0.000665727 -0.000361832 0.00198987)
(0.000550805 -0.000447661 0.00251947)
(0.000633588 -0.000509821 -0.00112133)
(0.000746143 -0.000383546 -0.000395057)
(0.000864844 -0.000340182 0.000168147)
(0.00097163 -0.000334452 0.000656004)
(0.00105236 -0.000351985 0.00111607)
(0.00103333 -0.000360785 0.0012948)
(0.000922208 -0.000359916 0.00143008)
(0.000802822 -0.000378018 0.00162224)
(0.000681074 -0.000421907 0.00183877)
(0.000577438 -0.000531565 0.00231573)
(0.000640015 -0.00042881 -0.00142345)
(0.000759411 -0.000333726 -0.000623805)
(0.000874911 -0.000308837 -3.59527e-05)
(0.000962038 -0.000313468 0.000433186)
(0.00101412 -0.000336474 0.00080724)
(0.00100057 -0.000353189 0.00108353)
(0.000927549 -0.000375425 0.0012768)
(0.000835453 -0.000412336 0.00148782)
(0.000730686 -0.000471264 0.00170868)
(0.0006429 -0.000608005 0.0021786)
(0.00068481 -0.000326397 -0.00186071)
(0.000805621 -0.000259369 -0.000960902)
(0.00091669 -0.000251698 -0.000339908)
(0.000992605 -0.000268685 0.000136778)
(0.00102909 -0.000300236 0.000515908)
(0.00102199 -0.000336813 0.000829222)
(0.000976493 -0.000381215 0.0010957)
(0.000906497 -0.000437942 0.00134552)
(0.000819934 -0.000514085 0.00159176)
(0.000752133 -0.000679734 0.00210057)
(0.000786163 -0.000193788 -0.00246308)
(0.000894764 -0.000155548 -0.00142805)
(0.0010003 -0.000167112 -0.00076285)
(0.00107337 -0.000200845 -0.000243084)
(0.0011098 -0.000250847 0.000184901)
(0.0011108 -0.000309701 0.000552552)
(0.00108115 -0.00037872 0.00088263)
(0.00102887 -0.000458091 0.00118793)
(0.000964484 -0.000558762 0.00148659)
(0.000936675 -0.000763446 0.00209409)
(0.00106682 -4.66044e-05 -0.00362428)
(0.00114043 -2.40741e-05 -0.0022372)
(0.0012424 -6.52623e-05 -0.00141052)
(0.00131768 -0.000124348 -0.000750696)
(0.00136052 -0.000200627 -0.000191625)
(0.00137408 -0.000287845 0.000305309)
(0.00136337 -0.000387598 0.000766927)
(0.00133253 -0.000500621 0.00121048)
(0.00129715 -0.00065078 0.00166308)
(0.00133206 -0.000913083 0.00252572)
(0.00231268 -0.00174174 -0.0027689)
(0.00220424 -0.00118695 -0.00137543)
(0.00220745 -0.000863235 -0.000325753)
(0.00221887 -0.000643808 0.00064986)
(0.00220051 -0.000464571 0.00160605)
(0.0021459 -0.000317594 0.00258616)
(0.00204683 -0.000195861 0.0036269)
(0.00190369 -0.000104277 0.00477368)
(0.00172635 -3.83808e-05 0.00610784)
(0.00161303 -5.5931e-05 0.00884712)
(0.00164301 -0.00154599 -0.00220977)
(0.00162392 -0.00105617 -0.00104551)
(0.00168782 -0.000802904 -0.000150082)
(0.00174174 -0.000630155 0.000642612)
(0.00175724 -0.000496051 0.00138528)
(0.00172272 -0.00039292 0.00211349)
(0.00163349 -0.00031453 0.00285798)
(0.00149518 -0.000267122 0.00365367)
(0.00131697 -0.00025158 0.00455384)
(0.0011557 -0.00029124 0.00643386)
(0.00131183 -0.0014288 -0.00206138)
(0.00137311 -0.000999027 -0.000941815)
(0.00148134 -0.000790088 -6.9609e-05)
(0.00156601 -0.000655487 0.000670056)
(0.00160652 -0.000561593 0.00132942)
(0.00158087 -0.000493528 0.0019513)
(0.00148771 -0.000444317 0.00255862)
(0.00134415 -0.00042334 0.00321756)
(0.00115765 -0.000434724 0.00396143)
(0.000977923 -0.000514452 0.00545256)
(0.00111927 -0.00133404 -0.00211885)
(0.00122789 -0.000957185 -0.000981057)
(0.0013714 -0.000784373 -9.80773e-05)
(0.00149424 -0.000687649 0.000646037)
(0.00157966 -0.000635284 0.00127116)
(0.00155739 -0.00059667 0.00182789)
(0.0014332 -0.000556712 0.00231619)
(0.00127257 -0.000550966 0.00288786)
(0.00108149 -0.000581095 0.00352622)
(0.000905358 -0.000695163 0.00475579)
(0.000993709 -0.00122919 -0.00235571)
(0.00114101 -0.000905913 -0.00115217)
(0.00131793 -0.000769134 -0.000231653)
(0.00148864 -0.000714633 0.000583379)
(0.00164227 -0.000713276 0.00131097)
(0.00162373 -0.000689335 0.00164692)
(0.00144539 -0.00064652 0.00212176)
(0.00125606 -0.000647599 0.00261679)
(0.00106381 -0.000695529 0.00317169)
(0.000899595 -0.000846527 0.00422685)
(0.000924001 -0.00111037 -0.00276488)
(0.00110072 -0.000834374 -0.00144928)
(0.00129536 -0.000727426 -0.000481561)
(0.00147737 -0.00069645 0.000360143)
(0.00163433 -0.00071723 0.00118118)
(0.00162483 -0.0007181 0.00151823)
(0.00145217 -0.000693823 0.00189688)
(0.00127433 -0.000712003 0.00236499)
(0.00109563 -0.000780821 0.0028797)
(0.000950942 -0.000970646 0.00383907)
(0.000904172 -0.000965628 -0.00336029)
(0.00110177 -0.000732092 -0.00188458)
(0.00129969 -0.000649771 -0.00085612)
(0.00145511 -0.000629407 -2.13305e-05)
(0.00156088 -0.000650174 0.000656986)
(0.00156051 -0.000668427 0.00121153)
(0.00145927 -0.000693845 0.00164288)
(0.00132872 -0.000748807 0.00212395)
(0.00117785 -0.000845057 0.00263895)
(0.00106029 -0.00107916 0.00357867)
(0.000939347 -0.000792644 -0.00418389)
(0.00115041 -0.000595363 -0.00249189)
(0.00134995 -0.000535632 -0.0013869)
(0.00149346 -0.000531674 -0.00051997)
(0.00157503 -0.00056341 0.000191758)
(0.00158556 -0.000612716 0.000808654)
(0.0015322 -0.00067881 0.00135665)
(0.00143836 -0.00076895 0.00189188)
(0.00131672 -0.00089491 0.00244269)
(0.00123336 -0.00117439 0.00343921)
(0.00104646 -0.000582533 -0.00529625)
(0.00125416 -0.000420155 -0.00331042)
(0.00145398 -0.000385028 -0.00210415)
(0.00159889 -0.00040446 -0.00114532)
(0.00168355 -0.000463049 -0.000335486)
(0.0017088 -0.000546018 0.000379138)
(0.00168258 -0.000651061 0.00103484)
(0.00161774 -0.000777415 0.00166017)
(0.00153186 -0.000942058 0.00229337)
(0.00151457 -0.00127869 0.0034451)
(0.00138082 -0.000377096 -0.00758408)
(0.0015579 -0.000217705 -0.00485742)
(0.00176628 -0.000216896 -0.00330225)
(0.00192478 -0.000270652 -0.00205825)
(0.0020273 -0.000366409 -0.000994849)
(0.00207813 -0.000489996 -4.19954e-05)
(0.00208658 -0.000639711 0.000847732)
(0.00205952 -0.000814926 0.00171292)
(0.00202345 -0.00105302 0.00261017)
(0.00210468 -0.00147101 0.00420292)
(0.00337034 -0.00269243 -0.00433492)
(0.00321412 -0.00190016 -0.00220255)
(0.00320712 -0.00142137 -0.000573625)
(0.00320362 -0.00108517 0.000979807)
(0.0031511 -0.000809162 0.00254439)
(0.00304274 -0.000588098 0.00418703)
(0.0028671 -0.00041662 0.00596718)
(0.00262482 -0.000305762 0.00796634)
(0.0023282 -0.00025881 0.0103245)
(0.00211588 -0.000390341 0.015068)
(0.00245174 -0.00241202 -0.00376981)
(0.00241924 -0.0017104 -0.00195317)
(0.00250028 -0.00133717 -0.000552459)
(0.00256274 -0.00107034 0.000728555)
(0.00256687 -0.000859317 0.00196863)
(0.00249625 -0.000699031 0.00321937)
(0.00234396 -0.000584967 0.00452656)
(0.00211753 -0.000529511 0.00595193)
(0.00182944 -0.000539285 0.00758812)
(0.00156585 -0.000679551 0.0108779)
(0.00197688 -0.00225534 -0.00380941)
(0.0020613 -0.00163268 -0.00201536)
(0.00220969 -0.00132226 -0.00063164)
(0.00232159 -0.00111137 0.000579466)
(0.00236838 -0.000959874 0.00169697)
(0.00231704 -0.000849855 0.00278993)
(0.00216515 -0.000775667 0.0038868)
(0.00193715 -0.000754375 0.00509699)
(0.0016439 -0.000795601 0.00648282)
(0.00136427 -0.000979537 0.0091266)
(0.0016812 -0.00212816 -0.00411008)
(0.0018336 -0.00157297 -0.00224462)
(0.00203629 -0.00131202 -0.00082598)
(0.00220913 -0.00115809 0.00039641)
(0.00232931 -0.00107168 0.00144974)
(0.00228896 -0.00100269 0.00245174)
(0.00209659 -0.000941184 0.00337633)
(0.00185025 -0.000940347 0.00445603)
(0.00155695 -0.00100547 0.0056711)
(0.00128877 -0.00123009 0.00787332)
(0.0014703 -0.00198225 -0.00465417)
(0.00167703 -0.00149553 -0.00264582)
(0.00193144 -0.00128378 -0.00115212)
(0.00217894 -0.00119461 0.00017917)
(0.00240891 -0.00119116 0.00137246)
(0.00237969 -0.00114518 0.00200273)
(0.0021095 -0.00107323 0.00296862)
(0.00182897 -0.00108068 0.00393634)
(0.00154135 -0.00117016 0.00501258)
(0.00129692 -0.00144153 0.00691126)
(0.00133121 -0.00181598 -0.00544979)
(0.00157832 -0.00138762 -0.00322311)
(0.00186156 -0.00121423 -0.00163581)
(0.00212805 -0.00115724 -0.000252192)
(0.00236571 -0.00118459 0.00111463)
(0.00235781 -0.00118057 0.00175113)
(0.0021038 -0.00113616 0.00254362)
(0.00184628 -0.00117006 0.00346518)
(0.00158557 -0.00128966 0.00446702)
(0.00137709 -0.00161221 0.00618479)
(0.00125322 -0.00161735 -0.00653199)
(0.00152819 -0.00123837 -0.00400452)
(0.00181989 -0.00109365 -0.00229559)
(0.00205304 -0.00104476 -0.000890079)
(0.00221567 -0.00106323 0.000269663)
(0.00222486 -0.00108687 0.00127743)
(0.00208577 -0.00112291 0.00210904)
(0.0019031 -0.00121334 0.00302669)
(0.0016898 -0.00137228 0.00401163)
(0.00152956 -0.00175355 0.00566369)
(0.0012389 -0.00138812 -0.00797954)
(0.00153147 -0.00104783 -0.0050515)
(0.00182862 -0.000927473 -0.00319724)
(0.00204929 -0.00089537 -0.00171796)
(0.00218132 -0.000924119 -0.00047828)
(0.00221031 -0.000987949 0.000624412)
(0.00214614 -0.00108484 0.00162466)
(0.00202219 -0.00122572 0.00261079)
(0.00185803 -0.00142496 0.00363259)
(0.00175739 -0.00186437 0.00533114)
(0.00129777 -0.00112516 -0.00990679)
(0.00158947 -0.000816961 -0.00643768)
(0.00188947 -0.000719903 -0.00439551)
(0.00211563 -0.000712271 -0.00275079)
(0.00225668 -0.000771175 -0.00134075)
(0.00231176 -0.000876805 -8.1429e-05)
(0.00229212 -0.00102462 0.00108231)
(0.00221601 -0.00121252 0.00219812)
(0.00211116 -0.0014615 0.00332783)
(0.00211481 -0.00197224 0.00521368)
(0.00160735 -0.000905956 -0.0140019)
(0.00186479 -0.000578238 -0.00919438)
(0.00217973 -0.000507893 -0.00651981)
(0.00242999 -0.000533741 -0.00437116)
(0.00260437 -0.000631969 -0.00252598)
(0.00270453 -0.000783001 -0.000873048)
(0.00274355 -0.000982648 0.000663565)
(0.00273113 -0.00122836 0.00214945)
(0.00270775 -0.00157112 0.00367598)
(0.00285063 -0.0021889 0.006191)
(0.00400421 -0.00315073 -0.00634087)
(0.00392524 -0.00239945 -0.00316581)
(0.00397778 -0.00191095 -0.000704288)
(0.00399133 -0.00154125 0.00165799)
(0.00391365 -0.00122275 0.00405724)
(0.00374802 -0.000967961 0.00659536)
(0.00348699 -0.000783582 0.00936454)
(0.00313729 -0.000692052 0.0124921)
(0.00271776 -0.000710091 0.0161951)
(0.0024147 -0.00103376 0.0236037)
(0.00301524 -0.00289136 -0.00583033)
(0.00304756 -0.00222273 -0.0031215)
(0.00319058 -0.00185492 -0.00102178)
(0.0032815 -0.00156519 0.000935911)
(0.00327886 -0.00132016 0.00286421)
(0.00316928 -0.00113111 0.00483643)
(0.00294829 -0.00100653 0.00691037)
(0.00262841 -0.000969351 0.0091867)
(0.00222808 -0.00103295 0.0118013)
(0.00187127 -0.00132729 0.0169603)
(0.00248061 -0.00275407 -0.00618498)
(0.00263734 -0.00217073 -0.00348707)
(0.00285723 -0.00187545 -0.00141159)
(0.0030119 -0.0016515 0.000449114)
(0.00307072 -0.00147758 0.00220595)
(0.00299392 -0.00134623 0.00396107)
(0.00278136 -0.00126427 0.00573544)
(0.00246766 -0.0012618 0.00770562)
(0.00206881 -0.00135262 0.00995644)
(0.00170189 -0.00167802 0.0141287)
(0.00211809 -0.00262413 -0.00684844)
(0.00234497 -0.00211537 -0.0040335)
(0.00262874 -0.00187896 -0.00190266)
(0.00286471 -0.00172844 -2.57753e-05)
(0.0030266 -0.0016422 0.00162725)
(0.0029735 -0.00156034 0.00326197)
(0.00271742 -0.00148724 0.00479778)
(0.00238951 -0.00150362 0.00658607)
(0.002 -0.00161704 0.00858282)
(0.00165454 -0.00197761 0.0120688)
(0.00183319 -0.00245195 -0.00780912)
(0.0021136 -0.00201986 -0.00478035)
(0.00245876 -0.00184331 -0.00254357)
(0.00279375 -0.00178076 -0.000517545)
(0.0031072 -0.00181329 0.00131659)
(0.00307915 -0.00176199 0.00238167)
(0.00273149 -0.00166281 0.00404047)
(0.0023709 -0.00168181 0.00566762)
(0.00199931 -0.00181981 0.00744834)
(0.00169254 -0.00222631 0.0104442)
(0.00162135 -0.00224502 -0.00909144)
(0.00193556 -0.00187674 -0.00574903)
(0.00231256 -0.00174364 -0.00337995)
(0.00267306 -0.00171953 -0.00128093)
(0.00300154 -0.00178931 0.000827152)
(0.00301384 -0.00179441 0.00190496)
(0.00270039 -0.00173009 0.00327898)
(0.00238097 -0.00178206 0.00482698)
(0.00205466 -0.00195459 0.00647607)
(0.00180354 -0.00241502 0.00915053)
(0.00147587 -0.0019959 -0.010755)
(0.00180582 -0.0016793 -0.00698084)
(0.0021869 -0.0015738 -0.00444047)
(0.00250623 -0.00154833 -0.00229699)
(0.00274203 -0.00159129 -0.000489789)
(0.00278369 -0.00163121 0.00114648)
(0.0026317 -0.00168002 0.0025276)
(0.00241959 -0.00180695 0.00403398)
(0.00216467 -0.00202666 0.00562221)
(0.00198634 -0.0025512 0.00812737)
(0.00140459 -0.00171086 -0.0129193)