/*--------------------------------*- C++ -*----------------------------------*\
| =========                 |                                                 |
| \\      /  F ield         | OpenFOAM: The Open Source CFD Toolbox           |
|  \\    /   O peration     | Version:  2406                                  |
|   \\  /    A nd           | Website:  www.openfoam.com                      |
|    \\/     M anipulation  |                                                 |
\*---------------------------------------------------------------------------*/
FoamFile
{
    version     2.0;
    format      ascii;
    arch        "LSB;label=32;scalar=64";
    class       volScalarField;
    location    "1.1";
    object      nut;
}
// * * * * * * * * * * * * * * * * * * * * * * * * * * * * * * * * * * * * * //

dimensions      [0 2 -1 0 0 0 0];

internalField   uniform 0;

boundaryField
{
    walls
    {
        type            nutUSpaldingWallFunction;
        value           nonuniform List<scalar> 
2000
(
3.17327e-09
4.55003e-09
5.99778e-09
7.1845e-09
7.85303e-09
7.85303e-09
7.18449e-09
5.99777e-09
4.55002e-09
3.17326e-09
1.87211e-09
2.63223e-09
3.46486e-09
4.16541e-09
4.56594e-09
4.56594e-09
4.16539e-09
3.46483e-09
2.63221e-09
1.87209e-09
9.8265e-10
1.36019e-09
1.7835e-09
2.14896e-09
2.36037e-09
2.36035e-09
2.14891e-09
1.78342e-09
1.36011e-09
9.82576e-10
1.15819e-09
1.61021e-09
2.11149e-09
2.53994e-09
2.78659e-09
2.78654e-09
2.53981e-09
2.11131e-09
1.61001e-09
1.15801e-09
9.94853e-10
1.37842e-09
1.80799e-09
2.17769e-09
2.39137e-09
2.39128e-09
2.17743e-09
1.80762e-09
1.37802e-09
9.94487e-10
1.04529e-09
1.45052e-09
1.90295e-09
2.29141e-09
2.51564e-09
2.51547e-09
2.29092e-09
1.90226e-09
1.44977e-09
1.0446e-09
1.00459e-09
1.39259e-09
1.82683e-09
2.20032e-09
2.41607e-09
2.41576e-09
2.19945e-09
1.82559e-09
1.39122e-09
1.00332e-09
1.01928e-09
1.41331e-09
1.85378e-09
2.23225e-09
2.45068e-09
2.45013e-09
2.23074e-09
1.8516e-09
1.41089e-09
1.017e-09
1.0102e-09
1.40009e-09
1.83603e-09
2.21063e-09
2.42669e-09
2.42581e-09
2.20818e-09
1.83251e-09
1.39617e-09
1.0065e-09
1.01549e-09
1.40731e-09
1.84511e-09
2.22104e-09
2.43764e-09
2.43636e-09
2.2175e-09
1.84002e-09
1.40166e-09
1.01018e-09
1.01411e-09
1.40512e-09
1.84195e-09
2.21694e-09
2.43279e-09
2.43115e-09
2.21237e-09
1.83543e-09
1.39792e-09
1.00739e-09
1.0157e-09
1.40734e-09
1.84481e-09
2.22022e-09
2.43616e-09
2.43423e-09
2.21489e-09
1.83725e-09
1.39907e-09
1.00805e-09
1.01464e-09
1.40598e-09
1.84317e-09
2.21835e-09
2.43408e-09
2.43201e-09
2.21264e-09
1.83512e-09
1.39724e-09
1.00665e-09
1.01368e-09
1.40486e-09
1.84197e-09
2.21714e-09
2.43288e-09
2.43081e-09
2.21144e-09
1.83398e-09
1.39625e-09
1.00587e-09
1.01177e-09
1.4024e-09
1.83902e-09
2.21388e-09
2.42954e-09
2.42762e-09
2.2086e-09
1.83165e-09
1.39449e-09
1.00466e-09
1.01002e-09
1.40015e-09
1.83634e-09
2.21097e-09
2.42666e-09
2.42506e-09
2.20657e-09
1.83021e-09
1.39363e-09
1.00421e-09
1.00827e-09
1.39795e-09
1.8338e-09
2.20833e-09
2.42424e-09
2.42314e-09
2.20535e-09
1.82971e-09
1.39367e-09
1.00453e-09
1.00663e-09
1.39605e-09
1.83185e-09
2.20661e-09
2.42303e-09
2.42265e-09
2.20562e-09
1.8306e-09
1.39489e-09
1.00576e-09
1.00487e-09
1.39411e-09
1.83004e-09
2.20524e-09
2.42237e-09
2.42281e-09
2.20651e-09
1.832e-09
1.39645e-09
1.00722e-09
1.00306e-09
1.39207e-09
1.8281e-09
2.20373e-09
2.42152e-09
2.42269e-09
2.20699e-09
1.83282e-09
1.39737e-09
1.00806e-09
1.00136e-09
1.38998e-09
1.82584e-09
2.2016e-09
2.41975e-09
2.42137e-09
2.20607e-09
1.83218e-09
1.39689e-09
1.00772e-09
9.99985e-10
1.38811e-09
1.82352e-09
2.19902e-09
2.41712e-09
2.41886e-09
2.20379e-09
1.83018e-09
1.39523e-09
1.00643e-09
9.99049e-10
1.38669e-09
1.82153e-09
2.19653e-09
2.41431e-09
2.41596e-09
2.20103e-09
1.82776e-09
1.39326e-09
1.00495e-09
9.98506e-10
1.38583e-09
1.82024e-09
2.1948e-09
2.41224e-09
2.41377e-09
2.19898e-09
1.82605e-09
1.392e-09
1.00411e-09
9.98225e-10
1.38548e-09
1.81976e-09
2.19415e-09
2.41146e-09
2.41299e-09
2.19835e-09
1.82569e-09
1.39193e-09
1.00423e-09
9.98195e-10
1.38559e-09
1.82003e-09
2.19454e-09
2.41196e-09
2.41359e-09
2.19908e-09
1.82654e-09
1.39285e-09
1.00511e-09
9.98821e-10
1.38652e-09
1.82125e-09
2.19598e-09
2.41356e-09
2.41525e-09
2.20074e-09
1.82811e-09
1.39428e-09
1.00631e-09
1.00107e-09
1.38926e-09
1.8243e-09
2.19912e-09
2.4166e-09
2.41806e-09
2.2032e-09
1.83015e-09
1.39589e-09
1.00748e-09
1.00592e-09
1.39496e-09
1.83035e-09
2.20501e-09
2.42194e-09
2.42256e-09
2.20672e-09
1.83267e-09
1.3975e-09
1.00833e-09
1.01346e-09
1.40378e-09
1.83971e-09
2.21405e-09
2.4299e-09
2.42894e-09
2.21128e-09
1.83546e-09
1.39876e-09
1.00852e-09
1.02215e-09
1.41408e-09
1.85083e-09
2.22489e-09
2.43939e-09
2.43629e-09
2.21612e-09
1.83791e-09
1.39928e-09
1.00785e-09
1.02915e-09
1.42264e-09
1.8604e-09
2.23446e-09
2.44783e-09
2.44268e-09
2.22002e-09
1.83945e-09
1.39898e-09
1.00658e-09
1.03142e-09
1.42588e-09
1.86461e-09
2.23917e-09
2.45221e-09
2.44597e-09
2.22175e-09
1.8397e-09
1.39816e-09
1.00532e-09
1.02746e-09
1.42182e-09
1.86109e-09
2.23652e-09
2.45032e-09
2.44451e-09
2.22045e-09
1.83847e-09
1.39709e-09
1.00455e-09
1.0184e-09
1.41146e-09
1.85046e-09
2.22669e-09
2.44201e-09
2.43806e-09
2.2159e-09
1.83563e-09
1.39572e-09
1.00423e-09
1.00758e-09
1.39852e-09
1.83637e-09
2.21283e-09
2.4297e-09
2.42824e-09
2.209e-09
1.83152e-09
1.39395e-09
1.00402e-09
9.98525e-10
1.38723e-09
1.82345e-09
2.19947e-09
2.41734e-09
2.4181e-09
2.20179e-09
1.82722e-09
1.39211e-09
1.00375e-09
9.93429e-10
1.38055e-09
1.81539e-09
2.19073e-09
2.40902e-09
2.41126e-09
2.19711e-09
1.82476e-09
1.3915e-09
1.00416e-09
9.92081e-10
1.37884e-09
1.81338e-09
2.18863e-09
2.4073e-09
2.4104e-09
2.19744e-09
1.82623e-09
1.39376e-09
1.0065e-09
9.94432e-10
1.3822e-09
1.81782e-09
2.19405e-09
2.41359e-09
2.41741e-09
2.205e-09
1.83392e-09
1.40108e-09
1.01254e-09
1.0052e-09
1.3957e-09
1.83369e-09
2.21175e-09
2.4325e-09
2.43681e-09
2.22401e-09
1.85142e-09
1.41594e-09
1.02358e-09
1.03077e-09
1.42681e-09
1.8688e-09
2.24918e-09
2.47036e-09
2.47314e-09
2.25669e-09
1.87852e-09
1.43604e-09
1.03638e-09
1.07412e-09
1.47904e-09
1.92666e-09
2.30885e-09
2.52766e-09
2.52422e-09
2.29835e-09
1.90896e-09
1.45509e-09
1.04596e-09
1.13523e-09
1.55231e-09
2.00697e-09
2.38997e-09
2.6031e-09
2.58868e-09
2.34854e-09
1.9442e-09
1.47703e-09
1.05778e-09
1.21317e-09
1.64552e-09
2.10885e-09
2.4923e-09
2.69795e-09
2.6703e-09
2.41419e-09
1.99407e-09
1.51311e-09
1.0825e-09
1.30527e-09
1.7571e-09
2.23305e-09
2.61984e-09
2.82008e-09
2.78046e-09
2.5088e-09
2.0721e-09
1.57472e-09
1.12853e-09
1.40168e-09
1.87764e-09
2.37215e-09
2.76745e-09
2.96594e-09
2.91554e-09
2.62683e-09
2.16969e-09
1.65071e-09
1.18429e-09
1.46784e-09
1.97024e-09
2.49041e-09
2.9051e-09
3.11292e-09
3.06019e-09
2.75824e-09
2.28002e-09
1.73611e-09
1.24644e-09
1.51813e-09
2.04547e-09
2.58812e-09
3.01741e-09
3.22807e-09
3.16608e-09
2.84544e-09
2.34423e-09
1.77834e-09
1.27249e-09
1.47793e-09
2.03538e-09
2.61905e-09
3.09121e-09
3.3376e-09
3.29703e-09
2.98152e-09
2.4715e-09
1.88821e-09
1.36185e-09
3.17326e-09
4.55002e-09
5.99777e-09
7.18449e-09
7.85303e-09
7.85303e-09
7.18449e-09
5.99778e-09
4.55003e-09
3.17327e-09
1.87206e-09
2.63217e-09
3.46479e-09
4.16536e-09
4.5659e-09
4.56592e-09
4.1654e-09
3.46485e-09
2.63223e-09
1.87211e-09
9.82466e-10
1.35998e-09
1.78328e-09
2.14878e-09
2.36024e-09
2.36029e-09
2.14891e-09
1.78347e-09
1.36018e-09
9.82648e-10
1.15772e-09
1.60968e-09
2.11096e-09
2.53949e-09
2.78627e-09
2.78639e-09
2.53981e-09
2.11142e-09
1.61017e-09
1.15818e-09
9.93899e-10
1.37733e-09
1.8069e-09
2.17675e-09
2.39071e-09
2.39094e-09
2.17739e-09
1.80781e-09
1.37833e-09
9.94828e-10
1.04355e-09
1.44852e-09
1.90094e-09
2.28966e-09
2.51437e-09
2.51479e-09
2.29081e-09
1.90259e-09
1.45033e-09
1.04524e-09
1.00172e-09
1.38933e-09
1.82354e-09
2.19746e-09
2.414e-09
2.41467e-09
2.19932e-09
1.82621e-09
1.39227e-09
1.00449e-09
1.01483e-09
1.40829e-09
1.84877e-09
2.22795e-09
2.44764e-09
2.44866e-09
2.23079e-09
1.85286e-09
1.41284e-09
1.01913e-09
1.0037e-09
1.39283e-09
1.8289e-09
2.20462e-09
2.42261e-09
2.42409e-09
2.20874e-09
1.83484e-09
1.39948e-09
1.01001e-09
1.00664e-09
1.39747e-09
1.83555e-09
2.21313e-09
2.43247e-09
2.43449e-09
2.21877e-09
1.84367e-09
1.40659e-09
1.01527e-09
1.00308e-09
1.39286e-09
1.83005e-09
2.20715e-09
2.42654e-09
2.42909e-09
2.21428e-09
1.84029e-09
1.4043e-09
1.01386e-09
1.00329e-09
1.39345e-09
1.83123e-09
2.20902e-09
2.42903e-09
2.43198e-09
2.21723e-09
1.84295e-09
1.40644e-09
1.01543e-09
1.00215e-09
1.39184e-09
1.8292e-09
2.20675e-09
2.42672e-09
2.4298e-09
2.21529e-09
1.8413e-09
1.4051e-09
1.0144e-09
1.00246e-09
1.39202e-09
1.82917e-09
2.2065e-09
2.42627e-09
2.42917e-09
2.2145e-09
1.84041e-09
1.40415e-09
1.01352e-09
1.00274e-09
1.39199e-09
1.82864e-09
2.20539e-09
2.42459e-09
2.42706e-09
2.21215e-09
1.83805e-09
1.40199e-09
1.01171e-09
1.00345e-09
1.39257e-09
1.82887e-09
2.20507e-09
2.42364e-09
2.42553e-09
2.21023e-09
1.83598e-09
1.40003e-09
1.01005e-09
1.00397e-09
1.39298e-09
1.82895e-09
2.20462e-09
2.42253e-09
2.4238e-09
2.20807e-09
1.8337e-09
1.39791e-09
1.0083e-09
1.00437e-09
1.3933e-09
1.82901e-09
2.2042e-09
2.4215e-09
2.42215e-09
2.20598e-09
1.83144e-09
1.3958e-09
1.00656e-09
1.00469e-09
1.39348e-09
1.82888e-09
2.20354e-09
2.4202e-09
2.42023e-09
2.20363e-09
1.82895e-09
1.39351e-09
1.00468e-09
1.00527e-09
1.39391e-09
1.82893e-09
2.20301e-09
2.419e-09
2.41841e-09
2.20138e-09
1.82656e-09
1.39128e-09
1.00282e-09
1.00623e-09
1.39478e-09
1.82943e-09
2.20295e-09
2.41827e-09
2.41708e-09
2.19962e-09
1.82463e-09
1.38943e-09
1.00123e-09
1.00737e-09
1.39593e-09
1.83036e-09
2.20347e-09
2.41825e-09
2.41654e-09
2.19867e-09
1.82344e-09
1.38818e-09
1.00007e-09
1.00807e-09
1.39669e-09
1.83108e-09
2.20401e-09
2.4185e-09
2.41643e-09
2.19823e-09
1.82279e-09
1.38741e-09
9.99328e-10
1.00778e-09
1.39635e-09
1.83078e-09
2.20374e-09
2.4182e-09
2.41605e-09
2.19774e-09
1.82222e-09
1.38684e-09
9.98827e-10
1.00639e-09
1.39469e-09
1.82903e-09
2.20208e-09
2.41672e-09
2.41478e-09
2.19669e-09
1.82138e-09
1.38622e-09
9.98413e-10
1.0044e-09
1.39218e-09
1.82621e-09
2.19925e-09
2.41415e-09
2.41267e-09
2.19512e-09
1.82033e-09
1.38563e-09
9.98139e-10
1.00274e-09
1.38998e-09
1.82357e-09
2.19649e-09
2.41164e-09
2.41072e-09
2.19391e-09
1.81985e-09
1.38572e-09
9.9851e-10
1.00225e-09
1.38935e-09
1.82276e-09
2.19571e-09
2.41119e-09
2.41091e-09
2.19489e-09
1.82153e-09
1.3878e-09
1.00057e-09
1.003e-09
1.39073e-09
1.82479e-09
2.19841e-09
2.41466e-09
2.41522e-09
2.19997e-09
1.82706e-09
1.39326e-09
1.00536e-09
1.0042e-09
1.39332e-09
1.82911e-09
2.20447e-09
2.42235e-09
2.42419e-09
2.20972e-09
1.83688e-09
1.40234e-09
1.01297e-09
1.00483e-09
1.3957e-09
1.834e-09
2.21203e-09
2.43238e-09
2.43601e-09
2.22235e-09
1.84919e-09
1.41329e-09
1.02186e-09
1.00461e-09
1.39693e-09
1.83761e-09
2.21844e-09
2.44144e-09
2.44693e-09
2.23391e-09
1.86012e-09
1.42259e-09
1.02911e-09
1.00413e-09
1.39704e-09
1.83899e-09
2.22157e-09
2.44629e-09
2.45287e-09
2.23995e-09
1.86531e-09
1.42638e-09
1.0316e-09
1.00404e-09
1.3965e-09
1.83806e-09
2.2205e-09
2.44508e-09
2.45129e-09
2.23763e-09
1.86209e-09
1.42248e-09
1.02775e-09
1.00437e-09
1.39558e-09
1.83524e-09
2.21563e-09
2.43809e-09
2.44243e-09
2.22734e-09
1.85115e-09
1.4119e-09
1.01865e-09
1.00468e-09
1.39425e-09
1.83123e-09
2.20841e-09
2.42759e-09
2.42925e-09
2.21262e-09
1.83636e-09
1.39849e-09
1.00766e-09
1.00461e-09
1.39267e-09
1.82713e-09
2.20111e-09
2.41704e-09
2.41618e-09
2.19844e-09
1.8227e-09
1.38672e-09
9.98381e-10
1.0046e-09
1.39168e-09
1.82447e-09
2.19617e-09
2.40978e-09
2.40724e-09
2.189e-09
1.81399e-09
1.37966e-09
9.93098e-10
1.00522e-09
1.39197e-09
1.82402e-09
2.19462e-09
2.4071e-09
2.40378e-09
2.18536e-09
1.81079e-09
1.37729e-09
9.91505e-10
1.0078e-09
1.39477e-09
1.82656e-09
2.19682e-09
2.40895e-09
2.40547e-09
2.18709e-09
1.81266e-09
1.37929e-09
9.93439e-10
1.016e-09
1.40461e-09
1.83701e-09
2.20761e-09
2.42003e-09
2.41705e-09
2.19919e-09
1.82494e-09
1.39105e-09
1.00375e-09
1.03082e-09
1.42444e-09
1.86065e-09
2.2343e-09
2.44923e-09
2.44831e-09
2.23168e-09
1.85719e-09
1.42089e-09
1.02912e-09
1.04641e-09
1.44958e-09
1.8955e-09
2.27813e-09
2.50066e-09
2.50522e-09
2.29103e-09
1.9152e-09
1.47327e-09
1.07271e-09
1.05236e-09
1.46948e-09
1.93274e-09
2.3331e-09
2.57126e-09
2.58684e-09
2.37738e-09
1.99926e-09
1.54829e-09
1.13438e-09
1.02908e-09
1.4626e-09
1.95215e-09
2.3826e-09
2.64882e-09
2.68484e-09
2.48522e-09
2.10568e-09
1.64359e-09
1.21255e-09
9.50968e-10
1.39584e-09
1.91709e-09
2.39119e-09
2.70269e-09
2.77514e-09
2.59718e-09
2.22283e-09
1.75202e-09
1.30306e-09
8.3376e-10
1.27468e-09
1.81848e-09
2.33759e-09
2.70486e-09
2.82906e-09
2.68797e-09
2.33047e-09
1.85828e-09
1.39469e-09
7.06366e-10
1.11697e-09
1.65112e-09
2.18943e-09
2.60009e-09
2.77891e-09
2.68864e-09
2.36728e-09
1.91264e-09
1.45104e-09
6.19435e-10
9.98531e-10
1.51016e-09
2.05036e-09
2.48755e-09
2.70981e-09
2.6651e-09
2.37926e-09
1.94418e-09
1.48882e-09
5.00925e-10
8.15491e-10
1.25404e-09
1.73786e-09
2.15163e-09
2.39125e-09
2.39709e-09
2.17864e-09
1.81153e-09
1.41274e-09
3.17326e-09
4.55001e-09
5.99776e-09
7.18448e-09
7.85301e-09
7.85301e-09
7.18448e-09
5.99776e-09
4.55002e-09
3.17326e-09
1.87203e-09
2.63214e-09
3.46475e-09
4.1653e-09
4.56583e-09
4.56584e-09
4.16531e-09
3.46477e-09
2.63216e-09
1.87206e-09
9.82398e-10
1.35988e-09
1.78315e-09
2.1486e-09
2.36002e-09
2.36004e-09
2.14865e-09
1.78321e-09
1.35994e-09
9.82458e-10
1.15756e-09
1.60943e-09
2.11063e-09
2.53906e-09
2.78575e-09
2.78579e-09
2.53917e-09
2.11078e-09
1.60959e-09
1.1577e-09
9.93529e-10
1.3768e-09
1.80619e-09
2.17585e-09
2.38963e-09
2.38971e-09
2.17609e-09
1.80652e-09
1.37715e-09
9.93853e-10
1.04273e-09
1.44738e-09
1.89947e-09
2.28786e-09
2.51227e-09
2.51245e-09
2.28835e-09
1.90018e-09
1.44815e-09
1.04345e-09
1.00016e-09
1.38717e-09
1.82081e-09
2.19418e-09
2.41024e-09
2.41057e-09
2.19508e-09
1.82212e-09
1.38861e-09
1.00152e-09
1.01228e-09
1.40476e-09
1.84426e-09
2.22252e-09
2.44144e-09
2.44194e-09
2.22392e-09
1.84629e-09
1.40704e-09
1.01446e-09
1.00025e-09
1.38788e-09
1.82237e-09
2.19658e-09
2.41331e-09
2.41395e-09
2.19838e-09
1.82498e-09
1.39085e-09
1.00311e-09
1.00271e-09
1.39149e-09
1.82722e-09
2.20247e-09
2.4198e-09
2.42048e-09
2.20438e-09
1.83e-09
1.39467e-09
1.00581e-09
9.99397e-10
1.38668e-09
1.82076e-09
2.19459e-09
2.41107e-09
2.41165e-09
2.19621e-09
1.8231e-09
1.38938e-09
1.00207e-09
1.00067e-09
1.38818e-09
1.82231e-09
2.19605e-09
2.41232e-09
2.41264e-09
2.19695e-09
1.82361e-09
1.38969e-09
1.00224e-09
1.00121e-09
1.3885e-09
1.82215e-09
2.19529e-09
2.411e-09
2.41096e-09
2.19516e-09
1.82197e-09
1.38835e-09
1.00123e-09
1.00337e-09
1.39115e-09
1.82509e-09
2.19823e-09
2.4137e-09
2.41326e-09
2.197e-09
1.82334e-09
1.38927e-09
1.00179e-09
1.00519e-09
1.39348e-09
1.82779e-09
2.20107e-09
2.41643e-09
2.41566e-09
2.19893e-09
1.82478e-09
1.39022e-09
1.00236e-09
1.00675e-09
1.39566e-09
1.83061e-09
2.20434e-09
2.41986e-09
2.4189e-09
2.2017e-09
1.82692e-09
1.39171e-09
1.0033e-09
1.00738e-09
1.39668e-09
1.83213e-09
2.20632e-09
2.4221e-09
2.42113e-09
2.20366e-09
1.82844e-09
1.39277e-09
1.00397e-09
1.00742e-09
1.39687e-09
1.83261e-09
2.20716e-09
2.42323e-09
2.42239e-09
2.20487e-09
1.82945e-09
1.39352e-09
1.00445e-09
1.00729e-09
1.39671e-09
1.83249e-09
2.20719e-09
2.42346e-09
2.42282e-09
2.20543e-09
1.83004e-09
1.39406e-09
1.00486e-09
1.00757e-09
1.39699e-09
1.83275e-09
2.2075e-09
2.42389e-09
2.42343e-09
2.20622e-09
1.83092e-09
1.39492e-09
1.00556e-09
1.00845e-09
1.39807e-09
1.83397e-09
2.20881e-09
2.42529e-09
2.42493e-09
2.20778e-09
1.83248e-09
1.39633e-09
1.00669e-09
1.00984e-09
1.3999e-09
1.83618e-09
2.21126e-09
2.42786e-09
2.42748e-09
2.21017e-09
1.83459e-09
1.39805e-09
1.00798e-09
1.01146e-09
1.40208e-09
1.83888e-09
2.21427e-09
2.43094e-09
2.43035e-09
2.21262e-09
1.83648e-09
1.39936e-09
1.00882e-09
1.01308e-09
1.40419e-09
1.8414e-09
2.21698e-09
2.43354e-09
2.43253e-09
2.21415e-09
1.83728e-09
1.39956e-09
1.00866e-09
1.01454e-09
1.4059e-09
1.84324e-09
2.21874e-09
2.43494e-09
2.43333e-09
2.21422e-09
1.83667e-09
1.39847e-09
1.00744e-09
1.01554e-09
1.40694e-09
1.84413e-09
2.21932e-09
2.43503e-09
2.43281e-09
2.21308e-09
1.83505e-09
1.39662e-09
1.00566e-09
1.01528e-09
1.40652e-09
1.84349e-09
2.21841e-09
2.4338e-09
2.43128e-09
2.21131e-09
1.83321e-09
1.39485e-09
1.00414e-09
1.01253e-09
1.40334e-09
1.84015e-09
2.21515e-09
2.43077e-09
2.4286e-09
2.20908e-09
1.8315e-09
1.39368e-09
1.00346e-09
1.00668e-09
1.39659e-09
1.83318e-09
2.20856e-09
2.42505e-09
2.42402e-09
2.20581e-09
1.82953e-09
1.39285e-09
1.00346e-09
9.9881e-10
1.38724e-09
1.82318e-09
2.19879e-09
2.41635e-09
2.41699e-09
2.20077e-09
1.82646e-09
1.39156e-09
1.0034e-09
9.91341e-10
1.37793e-09
1.81258e-09
2.1878e-09
2.40603e-09
2.40823e-09
2.19415e-09
1.82209e-09
1.3893e-09
1.00264e-09
9.86711e-10
1.37164e-09
1.80466e-09
2.17887e-09
2.39702e-09
2.40014e-09
2.18773e-09
1.81764e-09
1.38672e-09
1.00143e-09
9.86343e-10
1.37044e-09
1.80219e-09
2.17524e-09
2.39278e-09
2.39603e-09
2.18438e-09
1.81534e-09
1.3854e-09
1.00079e-09
9.90473e-10
1.37497e-09
1.80639e-09
2.17874e-09
2.39551e-09
2.3982e-09
2.18619e-09
1.81689e-09
1.38653e-09
1.00147e-09
9.98187e-10
1.38425e-09
1.81648e-09
2.18886e-09
2.40496e-09
2.40651e-09
2.19297e-09
1.82198e-09
1.38979e-09
1.00322e-09
1.00755e-09
1.3959e-09
1.82977e-09
2.20276e-09
2.41828e-09
2.41819e-09
2.20222e-09
1.82849e-09
1.39362e-09
1.00503e-09
1.01596e-09
1.40661e-09
1.84239e-09
2.2162e-09
2.4312e-09
2.42928e-09
2.2106e-09
1.8339e-09
1.39642e-09
1.00604e-09
1.02037e-09
1.41255e-09
1.84985e-09
2.22451e-09
2.43936e-09
2.43623e-09
2.21566e-09
1.83695e-09
1.39786e-09
1.00646e-09
1.01907e-09
1.41136e-09
1.84928e-09
2.22473e-09
2.44026e-09
2.4375e-09
2.21699e-09
1.83814e-09
1.39884e-09
1.00717e-09
1.00921e-09
1.40021e-09
1.8383e-09
2.21537e-09
2.43353e-09
2.43383e-09
2.21618e-09
1.83951e-09
1.40129e-09
1.00979e-09
9.8222e-10
1.37028e-09
1.80924e-09
2.19081e-09
2.41592e-09
2.42416e-09
2.21389e-09
1.84291e-09
1.40782e-09
1.01717e-09
9.36932e-10
1.31861e-09
1.7572e-09
2.14462e-09
2.38053e-09
2.40203e-09
2.2049e-09
1.84463e-09
1.4164e-09
1.02862e-09
8.82601e-10
1.25264e-09
1.68544e-09
2.07468e-09
2.32026e-09
2.3569e-09
2.17716e-09
1.83301e-09
1.41716e-09
1.03676e-09
8.23477e-10
1.17596e-09
1.59554e-09
1.97898e-09
2.22841e-09
2.27761e-09
2.11647e-09
1.79287e-09
1.39607e-09
1.03024e-09
7.68579e-10
1.09845e-09
1.4953e-09
1.86112e-09
2.10242e-09
2.15483e-09
2.0074e-09
1.70468e-09
1.33232e-09
9.90006e-10
7.35383e-10
1.04152e-09
1.40703e-09
1.74051e-09
1.95467e-09
1.99121e-09
1.84234e-09
1.55253e-09
1.20532e-09
8.94675e-10
7.2491e-10
1.01143e-09
1.34502e-09
1.63971e-09
1.81482e-09
1.82108e-09
1.65754e-09
1.37181e-09
1.04635e-09
7.68414e-10
7.45892e-10
1.02091e-09
1.32916e-09
1.58689e-09
1.72027e-09
1.68976e-09
1.50324e-09
1.21302e-09
9.00818e-10
6.46738e-10
7.71122e-10
1.04208e-09
1.33647e-09
1.57282e-09
1.68083e-09
1.6271e-09
1.42429e-09
1.12797e-09
8.18445e-10
5.73839e-10
8.57754e-10
1.1315e-09
1.41104e-09
1.61689e-09
1.6832e-09
1.58653e-09
1.34837e-09
1.03226e-09
7.17014e-10
4.80696e-10
3.17327e-09
4.55002e-09
5.99777e-09
7.18449e-09
7.85302e-09
7.85302e-09
7.18448e-09
5.99776e-09
4.55001e-09
3.17326e-09
1.87209e-09
2.6322e-09
3.46481e-09
4.16535e-09
4.56587e-09
4.56586e-09
4.16531e-09
3.46475e-09
2.63214e-09
1.87203e-09
9.82569e-10
1.36007e-09
1.78335e-09
2.14877e-09
2.36015e-09
2.3601e-09
2.14865e-09
1.78317e-09
1.35989e-09
9.824e-10
1.15798e-09
1.60992e-09
2.11112e-09
2.53948e-09
2.78605e-09
2.78595e-09
2.53919e-09
2.11071e-09
1.60947e-09
1.15757e-09
9.94436e-10
1.37783e-09
1.80723e-09
2.17675e-09
2.39028e-09
2.39006e-09
2.17615e-09
1.80637e-09
1.37689e-09
9.93557e-10
1.04449e-09
1.44938e-09
1.90147e-09
2.28959e-09
2.51352e-09
2.51311e-09
2.28846e-09
1.89984e-09
1.44757e-09
1.04279e-09
1.00311e-09
1.3905e-09
1.82414e-09
2.19704e-09
2.41229e-09
2.41161e-09
2.19515e-09
1.82141e-09
1.38747e-09
1.00025e-09
1.01665e-09
1.40966e-09
1.84913e-09
2.2267e-09
2.44439e-09
2.44337e-09
2.22387e-09
1.84507e-09
1.40515e-09
1.01239e-09
1.00595e-09
1.39428e-09
1.82873e-09
2.20206e-09
2.41719e-09
2.41585e-09
2.19834e-09
1.8234e-09
1.38837e-09
1.00038e-09
1.00944e-09
1.39908e-09
1.83484e-09
2.20914e-09
2.42469e-09
2.42312e-09
2.20477e-09
1.8286e-09
1.39216e-09
1.00289e-09
1.0065e-09
1.3948e-09
1.82912e-09
2.20221e-09
2.41703e-09
2.4154e-09
2.19768e-09
1.82266e-09
1.38764e-09
9.99671e-10
1.00712e-09
1.39576e-09
1.83047e-09
2.20394e-09
2.41906e-09
2.41761e-09
2.19991e-09
1.82475e-09
1.38941e-09
1.00104e-09
1.00581e-09
1.39417e-09
1.82875e-09
2.20227e-09
2.41765e-09
2.41663e-09
2.19945e-09
1.82481e-09
1.38983e-09
1.0016e-09
1.00524e-09
1.39381e-09
1.82883e-09
2.20296e-09
2.41901e-09
2.41861e-09
2.20187e-09
1.82738e-09
1.39228e-09
1.0037e-09
1.00427e-09
1.39288e-09
1.82816e-09
2.20277e-09
2.41945e-09
2.41969e-09
2.20346e-09
1.82924e-09
1.39416e-09
1.00537e-09
1.00401e-09
1.39276e-09
1.82832e-09
2.20334e-09
2.42052e-09
2.42121e-09
2.20527e-09
1.8311e-09
1.39586e-09
1.00679e-09
1.00444e-09
1.3933e-09
1.82894e-09
2.20409e-09
2.42141e-09
2.42221e-09
2.20629e-09
1.83203e-09
1.39661e-09
1.00736e-09
1.00573e-09
1.39481e-09
1.83052e-09
2.20561e-09
2.42278e-09
2.42336e-09
2.20716e-09
1.83259e-09
1.39689e-09
1.00745e-09
1.00725e-09
1.39666e-09
1.8325e-09
2.20752e-09
2.42445e-09
2.42466e-09
2.20804e-09
1.83308e-09
1.39706e-09
1.00744e-09
1.00821e-09
1.398e-09
1.83415e-09
2.20932e-09
2.42618e-09
2.42617e-09
2.20922e-09
1.83393e-09
1.39761e-09
1.00779e-09
1.00805e-09
1.39809e-09
1.83462e-09
2.21017e-09
2.4273e-09
2.4274e-09
2.21044e-09
1.83505e-09
1.39858e-09
1.00861e-09
1.00694e-09
1.39704e-09
1.83385e-09
2.20985e-09
2.4275e-09
2.42806e-09
2.21145e-09
1.83625e-09
1.39985e-09
1.00979e-09
1.00562e-09
1.3956e-09
1.83254e-09
2.2089e-09
2.42711e-09
2.42831e-09
2.21228e-09
1.83749e-09
1.40128e-09
1.01117e-09
1.00489e-09
1.39479e-09
1.83174e-09
2.20835e-09
2.42702e-09
2.42882e-09
2.21337e-09
1.83899e-09
1.40292e-09
1.01267e-09
1.00514e-09
1.3951e-09
1.83216e-09
2.20896e-09
2.42797e-09
2.43017e-09
2.21508e-09
1.84088e-09
1.40473e-09
1.01419e-09
1.00614e-09
1.3964e-09
1.83374e-09
2.21077e-09
2.42996e-09
2.43229e-09
2.21719e-09
1.84283e-09
1.40635e-09
1.0154e-09
1.00743e-09
1.39806e-09
1.83573e-09
2.2129e-09
2.43203e-09
2.43406e-09
2.2185e-09
1.84359e-09
1.4066e-09
1.01534e-09
1.00848e-09
1.39926e-09
1.83697e-09
2.21389e-09
2.43243e-09
2.43359e-09
2.21703e-09
1.84127e-09
1.40381e-09
1.01266e-09
1.00881e-09
1.39919e-09
1.83627e-09
2.21221e-09
2.42945e-09
2.42911e-09
2.2112e-09
1.83459e-09
1.39711e-09
1.00675e-09
1.00804e-09
1.39736e-09
1.83303e-09
2.20727e-09
2.42263e-09
2.42056e-09
2.20143e-09
1.82446e-09
1.38768e-09
9.98801e-10
1.00619e-09
1.39402e-09
1.8278e-09
2.20002e-09
2.41348e-09
2.41003e-09
2.19037e-09
1.81387e-09
1.37846e-09
9.91377e-10
1.00392e-09
1.39025e-09
1.82219e-09
2.19268e-09
2.40481e-09
2.4008e-09
2.18152e-09
1.80622e-09
1.37244e-09
9.86895e-10
1.00216e-09
1.38749e-09
1.81823e-09
2.18777e-09
2.39948e-09
2.39584e-09
2.17762e-09
1.8038e-09
1.37136e-09
9.86647e-10
1.00165e-09
1.38685e-09
1.81748e-09
2.18715e-09
2.39944e-09
2.39687e-09
2.18e-09
1.8074e-09
1.37559e-09
9.9075e-10
1.00235e-09
1.38846e-09
1.82023e-09
2.19124e-09
2.40505e-09
2.40399e-09
2.18834e-09
1.81633e-09
1.38421e-09
9.98278e-10
1.00361e-09
1.39135e-09
1.8253e-09
2.1986e-09
2.41461e-09
2.41526e-09
2.2005e-09
1.82835e-09
1.39511e-09
1.00737e-09
1.00476e-09
1.39428e-09
1.8307e-09
2.20662e-09
2.42501e-09
2.42721e-09
2.21292e-09
1.84009e-09
1.40527e-09
1.01552e-09
1.00601e-09
1.39682e-09
1.83505e-09
2.21282e-09
2.43273e-09
2.43568e-09
2.22122e-09
1.84735e-09
1.41107e-09
1.01982e-09
1.00854e-09
1.39991e-09
1.83857e-09
2.21635e-09
2.43587e-09
2.43799e-09
2.2224e-09
1.84739e-09
1.41027e-09
1.01865e-09
1.01396e-09
1.4051e-09
1.84242e-09
2.21756e-09
2.43366e-09
2.43217e-09
2.21353e-09
1.83665e-09
1.39923e-09
1.00889e-09
1.02241e-09
1.41173e-09
1.84473e-09
2.21307e-09
2.42083e-09
2.41088e-09
2.18532e-09
1.80461e-09
1.3674e-09
9.81325e-10
1.02982e-09
1.4146e-09
1.8392e-09
2.19573e-09
2.38966e-09
2.36643e-09
2.13103e-09
1.74632e-09
1.31209e-09
9.34759e-10
1.03262e-09
1.41071e-09
1.82422e-09
2.16596e-09
2.34338e-09
2.30538e-09
2.06054e-09
1.67402e-09
1.24612e-09
8.80162e-10
1.03828e-09
1.41033e-09
1.81293e-09
2.13953e-09
2.29986e-09
2.24646e-09
1.99161e-09
1.60249e-09
1.17995e-09
8.23843e-10
1.0576e-09
1.42628e-09
1.8197e-09
2.13196e-09
2.27529e-09
2.20592e-09
1.93973e-09
1.5459e-09
1.12564e-09
7.7571e-10
1.09801e-09
1.46833e-09
1.85714e-09
2.15906e-09
2.28845e-09
2.20494e-09
1.92736e-09
1.52659e-09
1.10349e-09
7.52951e-10
1.14762e-09
1.52291e-09
1.91168e-09
2.20836e-09
2.32862e-09
2.23464e-09
1.94725e-09
1.53875e-09
1.10911e-09
7.53197e-10
1.2051e-09
1.59277e-09
1.99123e-09
2.29273e-09
2.41193e-09
2.31189e-09
2.0148e-09
1.59466e-09
1.15205e-09
7.8312e-10
1.22719e-09
1.61861e-09
2.02094e-09
2.32591e-09
2.44795e-09
2.35035e-09
2.05488e-09
1.63485e-09
1.18894e-09
8.13696e-10
1.32151e-09
1.74258e-09
2.17404e-09
2.50275e-09
2.63955e-09
2.54499e-09
2.23945e-09
1.79836e-09
1.32147e-09
9.14232e-10
)
;
    }
    inlet
    {
        type            calculated;
        value           uniform 0;
    }
    outlet
    {
        type            calculated;
        value           uniform 0;
    }
}


// ************************************************************************* //
