/*--------------------------------*- C++ -*----------------------------------*\
| =========                 |                                                 |
| \\      /  F ield         | OpenFOAM: The Open Source CFD Toolbox           |
|  \\    /   O peration     | Version:  2406                                  |
|   \\  /    A nd           | Website:  www.openfoam.com                      |
|    \\/     M anipulation  |                                                 |
\*---------------------------------------------------------------------------*/
FoamFile
{
    version     2.0;
    format      ascii;
    arch        "LSB;label=32;scalar=64";
    class       volScalarField;
    location    "1.1";
    object      p;
}
// * * * * * * * * * * * * * * * * * * * * * * * * * * * * * * * * * * * * * //

dimensions      [0 2 -2 0 0 0 0];

internalField   nonuniform List<scalar> 
25000
(
19.0772
19.0286
18.9974
18.9768
18.9667
18.9667
18.9768
18.9974
19.0286
19.0772
19.0286
18.974
18.9373
18.9133
18.9014
18.9014
18.9133
18.9373
18.974
19.0286
18.9974
18.9373
18.8957
18.8686
18.8553
18.8553
18.8686
18.8957
18.9373
18.9974
18.9768
18.9133
18.8686
18.8396
18.8253
18.8253
18.8396
18.8686
18.9133
18.9768
18.9667
18.9014
18.8553
18.8253
18.8106
18.8106
18.8253
18.8553
18.9014
18.9667
18.9667
18.9014
18.8553
18.8253
18.8106
18.8106
18.8253
18.8553
18.9014
18.9667
18.9768
18.9133
18.8686
18.8396
18.8253
18.8253
18.8396
18.8686
18.9133
18.9768
18.9974
18.9373
18.8957
18.8686
18.8553
18.8553
18.8686
18.8957
18.9373
18.9974
19.0286
18.974
18.9373
18.9133
18.9014
18.9014
18.9133
18.9373
18.974
19.0286
19.0772
19.0286
18.9974
18.9768
18.9667
18.9667
18.9768
18.9974
19.0286
19.0772
17.6052
17.633
17.6523
17.6656
17.6724
17.6724
17.6656
17.6523
17.633
17.6052
17.633
17.6635
17.6852
17.7001
17.7079
17.7079
17.7001
17.6852
17.6635
17.633
17.6523
17.6852
17.7096
17.7269
17.736
17.736
17.7269
17.7096
17.6852
17.6523
17.6656
17.7001
17.7269
17.7461
17.7561
17.756
17.7461
17.7269
17.7001
17.6656
17.6724
17.7079
17.736
17.7561
17.7663
17.7663
17.756
17.736
17.7079
17.6724
17.6724
17.7079
17.736
17.7561
17.7663
17.7663
17.756
17.736
17.7079
17.6724
17.6656
17.7001
17.7269
17.7461
17.7561
17.7561
17.7461
17.7269
17.7001
17.6656
17.6523
17.6852
17.7096
17.7269
17.736
17.736
17.7269
17.7096
17.6852
17.6523
17.633
17.6635
17.6852
17.7001
17.7079
17.7079
17.7001
17.6852
17.6635
17.633
17.6052
17.633
17.6523
17.6656
17.6724
17.6724
17.6656
17.6523
17.633
17.6052
17.6962
17.693
17.6914
17.6904
17.6899
17.6899
17.6904
17.6913
17.693
17.6962
17.693
17.6899
17.6879
17.6865
17.6858
17.6858
17.6865
17.6879
17.6899
17.693
17.6914
17.6879
17.6855
17.6839
17.6832
17.6832
17.6839
17.6855
17.6879
17.6913
17.6904
17.6865
17.6839
17.6824
17.6819
17.6819
17.6824
17.6839
17.6865
17.6904
17.69
17.6858
17.6832
17.6819
17.6816
17.6816
17.6819
17.6832
17.6858
17.6899
17.69
17.6858
17.6832
17.6819
17.6816
17.6816
17.6819
17.6832
17.6858
17.6899
17.6904
17.6865
17.6839
17.6825
17.6819
17.6819
17.6824
17.6839
17.6865
17.6904
17.6914
17.6879
17.6855
17.6839
17.6832
17.6832
17.6839
17.6855
17.6879
17.6914
17.693
17.6899
17.6879
17.6865
17.6858
17.6858
17.6865
17.6879
17.6899
17.693
17.6963
17.693
17.6914
17.6904
17.69
17.69
17.6904
17.6914
17.693
17.6962
17.0006
17.0036
17.0059
17.0076
17.0085
17.0085
17.0076
17.0059
17.0036
17.0005
17.0036
17.0075
17.0103
17.0123
17.0134
17.0133
17.0123
17.0102
17.0074
17.0036
17.0059
17.0103
17.0135
17.0158
17.017
17.017
17.0158
17.0135
17.0102
17.0059
17.0076
17.0123
17.0158
17.0183
17.0197
17.0197
17.0183
17.0158
17.0123
17.0076
17.0086
17.0134
17.0171
17.0197
17.0211
17.0211
17.0197
17.017
17.0133
17.0085
17.0086
17.0134
17.0171
17.0197
17.0211
17.0211
17.0197
17.017
17.0133
17.0085
17.0076
17.0123
17.0158
17.0183
17.0197
17.0197
17.0183
17.0158
17.0123
17.0076
17.0059
17.0103
17.0135
17.0158
17.0171
17.0171
17.0158
17.0135
17.0102
17.0059
17.0036
17.0075
17.0103
17.0123
17.0134
17.0134
17.0123
17.0103
17.0075
17.0036
17.0006
17.0036
17.0059
17.0076
17.0086
17.0086
17.0076
17.0059
17.0036
17.0006
16.7681
16.7667
16.7659
16.7654
16.7651
16.7651
16.7654
16.7659
16.7667
16.768
16.7667
16.7651
16.764
16.7632
16.7628
16.7628
16.7632
16.764
16.7651
16.7667
16.7659
16.764
16.7625
16.7615
16.761
16.761
16.7615
16.7625
16.764
16.7659
16.7654
16.7632
16.7615
16.7603
16.7596
16.7596
16.7602
16.7615
16.7632
16.7654
16.7652
16.7628
16.761
16.7596
16.759
16.759
16.7596
16.761
16.7628
16.7651
16.7652
16.7628
16.761
16.7597
16.759
16.759
16.7596
16.761
16.7628
16.7651
16.7654
16.7632
16.7615
16.7603
16.7596
16.7596
16.7602
16.7615
16.7632
16.7654
16.766
16.764
16.7626
16.7615
16.761
16.761
16.7615
16.7625
16.764
16.7659
16.7668
16.7652
16.764
16.7632
16.7628
16.7628
16.7632
16.764
16.7651
16.7667
16.7681
16.7668
16.766
16.7654
16.7652
16.7652
16.7654
16.7659
16.7667
16.7681
16.3149
16.3157
16.3163
16.3167
16.317
16.317
16.3167
16.3163
16.3157
16.3148
16.3157
16.3168
16.3175
16.318
16.3183
16.3182
16.318
16.3174
16.3167
16.3156
16.3163
16.3175
16.3183
16.3189
16.3191
16.3191
16.3188
16.3183
16.3174
16.3162
16.3168
16.318
16.3189
16.3194
16.3196
16.3195
16.3193
16.3188
16.318
16.3167
16.317
16.3183
16.3192
16.3196
16.3196
16.3196
16.3195
16.3191
16.3182
16.3169
16.317
16.3183
16.3192
16.3196
16.3196
16.3196
16.3195
16.3191
16.3182
16.3169
16.3168
16.3181
16.3189
16.3194
16.3196
16.3196
16.3194
16.3189
16.318
16.3167
16.3164
16.3175
16.3184
16.3189
16.3192
16.3192
16.3189
16.3183
16.3175
16.3163
16.3158
16.3168
16.3175
16.318
16.3183
16.3183
16.318
16.3175
16.3167
16.3157
16.315
16.3158
16.3164
16.3168
16.317
16.317
16.3168
16.3163
16.3157
16.3149
15.9838
15.9834
15.9831
15.9829
15.9828
15.9828
15.9829
15.983
15.9833
15.9837
15.9834
15.9829
15.9825
15.9822
15.9821
15.9821
15.9822
15.9824
15.9828
15.9833
15.9831
15.9825
15.982
15.9817
15.9815
15.9815
15.9817
15.982
15.9824
15.983
15.983
15.9823
15.9817
15.9813
15.9811
15.9811
15.9813
15.9816
15.9822
15.9829
15.9829
15.9821
15.9815
15.9811
15.9808
15.9808
15.981
15.9815
15.9821
15.9828
15.9829
15.9822
15.9816
15.9811
15.9808
15.9808
15.9811
15.9815
15.9821
15.9828
15.983
15.9823
15.9817
15.9813
15.9811
15.9811
15.9813
15.9817
15.9822
15.9829
15.9832
15.9826
15.9821
15.9817
15.9816
15.9815
15.9817
15.982
15.9825
15.9831
15.9834
15.9829
15.9826
15.9823
15.9821
15.9821
15.9823
15.9825
15.9829
15.9833
15.9839
15.9834
15.9832
15.983
15.9829
15.9829
15.983
15.9831
15.9834
15.9838
15.5947
15.5949
15.5951
15.5952
15.5952
15.5952
15.5951
15.595
15.5948
15.5946
15.595
15.5952
15.5954
15.5955
15.5956
15.5956
15.5955
15.5953
15.5951
15.5948
15.5951
15.5954
15.5956
15.5958
15.5958
15.5958
15.5957
15.5956
15.5953
15.595
15.5952
15.5956
15.5958
15.5959
15.596
15.5959
15.5959
15.5957
15.5955
15.5951
15.5953
15.5956
15.5959
15.596
15.596
15.596
15.5959
15.5958
15.5956
15.5952
15.5953
15.5956
15.5959
15.596
15.596
15.596
15.596
15.5958
15.5956
15.5952
15.5952
15.5956
15.5958
15.5959
15.596
15.596
15.5959
15.5958
15.5955
15.5952
15.5951
15.5954
15.5957
15.5958
15.5959
15.5959
15.5958
15.5956
15.5954
15.5951
15.595
15.5952
15.5954
15.5956
15.5956
15.5956
15.5955
15.5954
15.5952
15.5949
15.5948
15.595
15.5951
15.5952
15.5953
15.5953
15.5952
15.5951
15.5949
15.5947
15.2375
15.2374
15.2373
15.2372
15.2372
15.2372
15.2372
15.2373
15.2373
15.2374
15.2374
15.2373
15.2371
15.2371
15.237
15.237
15.237
15.2371
15.2372
15.2373
15.2373
15.2372
15.237
15.2369
15.2369
15.2369
15.2369
15.237
15.2371
15.2373
15.2373
15.2371
15.2369
15.2368
15.2368
15.2368
15.2368
15.2369
15.237
15.2372
15.2372
15.237
15.2369
15.2368
15.2367
15.2367
15.2368
15.2369
15.237
15.2372
15.2372
15.237
15.2369
15.2368
15.2367
15.2367
15.2368
15.2369
15.237
15.2372
15.2373
15.2371
15.2369
15.2368
15.2368
15.2368
15.2368
15.2369
15.2371
15.2372
15.2373
15.2372
15.237
15.2369
15.2369
15.2369
15.2369
15.237
15.2371
15.2373
15.2374
15.2372
15.2372
15.2371
15.237
15.237
15.2371
15.2372
15.2372
15.2374
15.2375
15.2374
15.2373
15.2373
15.2372
15.2372
15.2373
15.2373
15.2374
15.2375
14.8651
14.8651
14.8652
14.8652
14.8652
14.8652
14.8652
14.8652
14.8651
14.8651
14.8651
14.8652
14.8653
14.8653
14.8653
14.8653
14.8653
14.8653
14.8652
14.8652
14.8652
14.8653
14.8653
14.8654
14.8654
14.8654
14.8654
14.8653
14.8653
14.8652
14.8652
14.8653
14.8653
14.8654
14.8654
14.8654
14.8654
14.8654
14.8653
14.8652
14.8652
14.8653
14.8654
14.8654
14.8654
14.8654
14.8654
14.8654
14.8653
14.8652
14.8652
14.8653
14.8653
14.8654
14.8654
14.8654
14.8654
14.8654
14.8653
14.8652
14.8651
14.8652
14.8653
14.8654
14.8654
14.8654
14.8654
14.8654
14.8653
14.8652
14.8651
14.8652
14.8653
14.8653
14.8653
14.8654
14.8653
14.8653
14.8653
14.8652
14.8651
14.8651
14.8652
14.8652
14.8653
14.8653
14.8653
14.8653
14.8652
14.8651
14.865
14.865
14.8651
14.8651
14.8652
14.8652
14.8652
14.8652
14.8652
14.8651
14.501
14.501
14.501
14.501
14.501
14.501
14.501
14.501
14.5011
14.5011
14.5009
14.5009
14.5009
14.5009
14.5009
14.5009
14.5009
14.501
14.501
14.5011
14.5009
14.5009
14.5008
14.5008
14.5008
14.5009
14.5009
14.5009
14.501
14.501
14.5009
14.5008
14.5008
14.5008
14.5008
14.5008
14.5008
14.5009
14.5009
14.501
14.5008
14.5008
14.5008
14.5008
14.5008
14.5008
14.5008
14.5009
14.5009
14.501
14.5008
14.5008
14.5008
14.5007
14.5007
14.5008
14.5008
14.5009
14.5009
14.501
14.5008
14.5008
14.5007
14.5007
14.5007
14.5008
14.5008
14.5009
14.5009
14.501
14.5008
14.5008
14.5007
14.5007
14.5008
14.5008
14.5008
14.5009
14.5009
14.501
14.5008
14.5008
14.5008
14.5008
14.5008
14.5008
14.5009
14.5009
14.5009
14.501
14.5008
14.5008
14.5008
14.5008
14.5008
14.5009
14.5009
14.5009
14.501
14.501
14.1329
14.1329
14.1329
14.133
14.133
14.133
14.1331
14.1331
14.1331
14.1331
14.1328
14.1329
14.1329
14.133
14.133
14.133
14.1331
14.1331
14.1331
14.1331
14.1328
14.1329
14.1329
14.133
14.133
14.133
14.1331
14.1331
14.1331
14.1331
14.1328
14.1329
14.1329
14.133
14.133
14.133
14.1331
14.1331
14.1331
14.1331
14.1328
14.1328
14.1329
14.1329
14.133
14.133
14.133
14.1331
14.1331
14.1331
14.1328
14.1328
14.1329
14.1329
14.1329
14.133
14.133
14.133
14.1331
14.1331
14.1327
14.1328
14.1328
14.1329
14.1329
14.133
14.133
14.133
14.133
14.133
14.1327
14.1327
14.1328
14.1328
14.1329
14.1329
14.133
14.133
14.133
14.133
14.1327
14.1327
14.1328
14.1328
14.1329
14.1329
14.1329
14.133
14.133
14.133
14.1326
14.1327
14.1327
14.1328
14.1328
14.1329
14.1329
14.1329
14.1329
14.133
13.7669
13.767
13.767
13.767
13.767
13.7671
13.7671
13.7671
13.7672
13.7672
13.7668
13.7669
13.7669
13.767
13.767
13.767
13.7671
13.7671
13.7672
13.7672
13.7668
13.7668
13.7669
13.7669
13.767
13.767
13.767
13.7671
13.7671
13.7672
13.7668
13.7668
13.7669
13.7669
13.7669
13.767
13.767
13.7671
13.7671
13.7672
13.7668
13.7668
13.7668
13.7669
13.7669
13.7669
13.767
13.767
13.7671
13.7671
13.7668
13.7668
13.7668
13.7668
13.7669
13.7669
13.767
13.767
13.7671
13.7671
13.7667
13.7668
13.7668
13.7668
13.7669
13.7669
13.767
13.767
13.7671
13.7671
13.7667
13.7667
13.7668
13.7668
13.7668
13.7669
13.7669
13.767
13.767
13.7671
13.7667
13.7667
13.7668
13.7668
13.7668
13.7669
13.7669
13.767
13.767
13.7671
13.7667
13.7667
13.7667
13.7668
13.7668
13.7669
13.7669
13.767
13.767
13.7671
13.3999
13.4
13.4
13.4
13.4001
13.4001
13.4001
13.4001
13.4002
13.4002
13.3998
13.3999
13.4
13.4
13.4
13.4001
13.4001
13.4002
13.4002
13.4002
13.3998
13.3999
13.3999
13.4
13.4
13.4001
13.4001
13.4002
13.4002
13.4002
13.3998
13.3999
13.3999
13.4
13.4
13.4001
13.4001
13.4001
13.4002
13.4002
13.3998
13.3999
13.3999
13.4
13.4
13.4
13.4001
13.4001
13.4001
13.4002
13.3998
13.3999
13.3999
13.3999
13.4
13.4
13.4001
13.4001
13.4001
13.4001
13.3998
13.3998
13.3999
13.3999
13.4
13.4
13.4
13.4001
13.4001
13.4001
13.3998
13.3998
13.3999
13.3999
13.3999
13.4
13.4
13.4001
13.4001
13.4001
13.3998
13.3998
13.3998
13.3999
13.3999
13.4
13.4
13.4
13.4001
13.4001
13.3998
13.3998
13.3998
13.3999
13.3999
13.3999
13.4
13.4
13.4
13.4001
13.0335
13.0335
13.0335
13.0336
13.0336
13.0336
13.0336
13.0336
13.0336
13.0337
13.0334
13.0335
13.0335
13.0335
13.0336
13.0336
13.0336
13.0336
13.0337
13.0337
13.0334
13.0335
13.0335
13.0335
13.0335
13.0336
13.0336
13.0336
13.0337
13.0337
13.0334
13.0335
13.0335
13.0335
13.0335
13.0336
13.0336
13.0336
13.0336
13.0337
13.0334
13.0335
13.0335
13.0335
13.0335
13.0335
13.0336
13.0336
13.0336
13.0336
13.0334
13.0334
13.0335
13.0335
13.0335
13.0335
13.0336
13.0336
13.0336
13.0336
13.0334
13.0334
13.0335
13.0335
13.0335
13.0335
13.0335
13.0336
13.0336
13.0336
13.0334
13.0334
13.0335
13.0335
13.0335
13.0335
13.0335
13.0336
13.0336
13.0336
13.0334
13.0334
13.0335
13.0335
13.0335
13.0335
13.0335
13.0335
13.0336
13.0336
13.0334
13.0335
13.0335
13.0335
13.0335
13.0335
13.0335
13.0335
13.0335
13.0336
12.6668
12.6668
12.6668
12.6668
12.6668
12.6668
12.6668
12.6668
12.6668
12.6669
12.6668
12.6668
12.6668
12.6668
12.6668
12.6668
12.6668
12.6669
12.6669
12.6669
12.6668
12.6668
12.6668
12.6668
12.6668
12.6668
12.6668
12.6668
12.6669
12.6669
12.6668
12.6668
12.6668
12.6668
12.6668
12.6668
12.6668
12.6668
12.6668
12.6668
12.6668
12.6668
12.6668
12.6668
12.6668
12.6668
12.6668
12.6668
12.6668
12.6668
12.6668
12.6668
12.6668
12.6668
12.6668
12.6668
12.6668
12.6668
12.6668
12.6668
12.6668
12.6668
12.6668
12.6668
12.6668
12.6668
12.6668
12.6668
12.6668
12.6668
12.6668
12.6668
12.6668
12.6668
12.6668
12.6668
12.6668
12.6668
12.6668
12.6668
12.6669
12.6668
12.6668
12.6668
12.6668
12.6668
12.6668
12.6668
12.6668
12.6668
12.6669
12.6668
12.6668
12.6668
12.6668
12.6668
12.6668
12.6668
12.6668
12.6667
12.3002
12.3002
12.3002
12.3002
12.3002
12.3002
12.3002
12.3002
12.3002
12.3002
12.3002
12.3002
12.3002
12.3002
12.3002
12.3002
12.3002
12.3002
12.3002
12.3002
12.3002
12.3002
12.3002
12.3002
12.3002
12.3002
12.3002
12.3002
12.3002
12.3001
12.3003
12.3002
12.3002
12.3002
12.3002
12.3002
12.3002
12.3002
12.3001
12.3001
12.3003
12.3002
12.3002
12.3002
12.3002
12.3002
12.3002
12.3002
12.3001
12.3001
12.3003
12.3003
12.3002
12.3002
12.3002
12.3002
12.3002
12.3001
12.3001
12.3001
12.3003
12.3003
12.3002
12.3002
12.3002
12.3002
12.3002
12.3001
12.3001
12.3001
12.3003
12.3003
12.3003
12.3002
12.3002
12.3002
12.3001
12.3001
12.3001
12.3001
12.3003
12.3003
12.3003
12.3002
12.3002
12.3002
12.3001
12.3001
12.3001
12.3001
12.3003
12.3003
12.3003
12.3002
12.3002
12.3002
12.3001
12.3001
12.3001
12.3
11.9335
11.9335
11.9335
11.9335
11.9335
11.9335
11.9335
11.9335
11.9334
11.9334
11.9335
11.9335
11.9335
11.9335
11.9335
11.9335
11.9335
11.9334
11.9334
11.9334
11.9336
11.9335
11.9335
11.9335
11.9335
11.9335
11.9335
11.9334
11.9334
11.9334
11.9336
11.9336
11.9335
11.9335
11.9335
11.9335
11.9334
11.9334
11.9334
11.9334
11.9336
11.9336
11.9335
11.9335
11.9335
11.9335
11.9334
11.9334
11.9334
11.9334
11.9336
11.9336
11.9335
11.9335
11.9335
11.9335
11.9334
11.9334
11.9334
11.9334
11.9336
11.9336
11.9336
11.9335
11.9335
11.9335
11.9334
11.9334
11.9334
11.9333
11.9336
11.9336
11.9336
11.9335
11.9335
11.9335
11.9334
11.9334
11.9334
11.9333
11.9336
11.9336
11.9336
11.9335
11.9335
11.9335
11.9334
11.9334
11.9334
11.9333
11.9336
11.9336
11.9336
11.9335
11.9335
11.9335
11.9334
11.9334
11.9334
11.9333
11.5668
11.5668
11.5667
11.5667
11.5667
11.5667
11.5667
11.5667
11.5667
11.5667
11.5668
11.5668
11.5668
11.5667
11.5667
11.5667
11.5667
11.5667
11.5667
11.5667
11.5668
11.5668
11.5668
11.5668
11.5667
11.5667
11.5667
11.5667
11.5667
11.5667
11.5668
11.5668
11.5668
11.5668
11.5667
11.5667
11.5667
11.5667
11.5667
11.5667
11.5668
11.5668
11.5668
11.5668
11.5668
11.5667
11.5667
11.5667
11.5667
11.5667
11.5668
11.5668
11.5668
11.5668
11.5668
11.5667
11.5667
11.5667
11.5667
11.5667
11.5668
11.5668
11.5668
11.5668
11.5668
11.5667
11.5667
11.5667
11.5667
11.5667
11.5669
11.5668
11.5668
11.5668
11.5668
11.5668
11.5667
11.5667
11.5667
11.5667
11.5669
11.5668
11.5668
11.5668
11.5668
11.5668
11.5667
11.5667
11.5667
11.5667
11.5668
11.5668
11.5668
11.5668
11.5668
11.5668
11.5667
11.5667
11.5667
11.5667
11.1999
11.1999
11.1999
11.1999
11.2
11.2
11.2
11.2
11.2
11.2
11.1999
11.2
11.2
11.2
11.2
11.2
11.2
11.2
11.2
11.2
11.2
11.2
11.2
11.2
11.2
11.2
11.2
11.2
11.2
11.2
11.2
11.2
11.2
11.2
11.2
11.2
11.2
11.2
11.2
11.2
11.2
11.2
11.2
11.2
11.2
11.2
11.2
11.2
11.2
11.2
11.2
11.2
11.2
11.2
11.2
11.2
11.2
11.2
11.2
11.2
11.2
11.2
11.2
11.2
11.2
11.2
11.2
11.2
11.2
11.2
11.2
11.2
11.2
11.2
11.2
11.2
11.2
11.2
11.2
11.2
11.2
11.2
11.2
11.2
11.2
11.2
11.2
11.2
11.2
11.2
11.2
11.2
11.2
11.2
11.2
11.2
11.2
11.2
11.2
11.2
10.8331
10.8331
10.8331
10.8331
10.8331
10.8331
10.8331
10.8331
10.8331
10.8332
10.8331
10.8331
10.8331
10.8331
10.8331
10.8331
10.8332
10.8332
10.8332
10.8332
10.8331
10.8331
10.8331
10.8331
10.8331
10.8332
10.8332
10.8332
10.8332
10.8332
10.8331
10.8331
10.8331
10.8331
10.8332
10.8332
10.8332
10.8332
10.8332
10.8332
10.8331
10.8331
10.8331
10.8332
10.8332
10.8332
10.8332
10.8332
10.8332
10.8332
10.8331
10.8332
10.8332
10.8332
10.8332
10.8332
10.8332
10.8332
10.8332
10.8333
10.8331
10.8332
10.8332
10.8332
10.8332
10.8332
10.8332
10.8333
10.8333
10.8333
10.8332
10.8332
10.8332
10.8332
10.8332
10.8332
10.8333
10.8333
10.8333
10.8333
10.8331
10.8332
10.8332
10.8332
10.8332
10.8333
10.8333
10.8333
10.8333
10.8333
10.8332
10.8332
10.8332
10.8332
10.8332
10.8333
10.8333
10.8333
10.8333
10.8334
10.4663
10.4663
10.4663
10.4663
10.4663
10.4663
10.4663
10.4663
10.4663
10.4663
10.4663
10.4663
10.4663
10.4663
10.4663
10.4663
10.4663
10.4663
10.4664
10.4664
10.4663
10.4663
10.4663
10.4663
10.4663
10.4663
10.4664
10.4664
10.4664
10.4664
10.4663
10.4663
10.4663
10.4663
10.4664
10.4664
10.4664
10.4664
10.4664
10.4664
10.4663
10.4663
10.4663
10.4664
10.4664
10.4664
10.4664
10.4664
10.4664
10.4664
10.4663
10.4663
10.4664
10.4664
10.4664
10.4664
10.4664
10.4664
10.4664
10.4664
10.4663
10.4663
10.4664
10.4664
10.4664
10.4664
10.4664
10.4664
10.4665
10.4665
10.4663
10.4664
10.4664
10.4664
10.4664
10.4664
10.4664
10.4665
10.4665
10.4665
10.4663
10.4664
10.4664
10.4664
10.4664
10.4664
10.4665
10.4665
10.4665
10.4665
10.4663
10.4664
10.4664
10.4664
10.4664
10.4665
10.4665
10.4665
10.4665
10.4665
10.0996
10.0996
10.0995
10.0995
10.0995
10.0995
10.0995
10.0995
10.0995
10.0995
10.0996
10.0996
10.0995
10.0995
10.0995
10.0995
10.0995
10.0995
10.0995
10.0995
10.0996
10.0996
10.0995
10.0995
10.0995
10.0995
10.0995
10.0995
10.0995
10.0995
10.0996
10.0995
10.0995
10.0995
10.0995
10.0995
10.0995
10.0995
10.0995
10.0995
10.0995
10.0995
10.0995
10.0995
10.0995
10.0995
10.0995
10.0995
10.0995
10.0995
10.0995
10.0995
10.0995
10.0995
10.0995
10.0995
10.0995
10.0995
10.0995
10.0995
10.0995
10.0995
10.0995
10.0995
10.0995
10.0995
10.0995
10.0995
10.0995
10.0995
10.0995
10.0995
10.0995
10.0995
10.0995
10.0996
10.0996
10.0996
10.0996
10.0996
10.0995
10.0995
10.0995
10.0996
10.0996
10.0996
10.0996
10.0996
10.0996
10.0996
10.0995
10.0996
10.0996
10.0996
10.0996
10.0996
10.0996
10.0996
10.0995
10.0996
9.73288
9.73283
9.73279
9.73276
9.73273
9.7327
9.73267
9.73265
9.73265
9.73259
9.73287
9.73283
9.73279
9.73276
9.73273
9.73269
9.73266
9.73264
9.73261
9.73256
9.73285
9.73281
9.73278
9.73275
9.73272
9.73269
9.73266
9.73264
9.73261
9.73258
9.73283
9.7328
9.73277
9.73275
9.73271
9.73268
9.73266
9.73263
9.73261
9.73259
9.7328
9.73278
9.73276
9.73274
9.73271
9.73268
9.73265
9.73263
9.73261
9.73259
9.73278
9.73277
9.73275
9.73273
9.7327
9.73268
9.73265
9.73263
9.73261
9.73259
9.73276
9.73275
9.73274
9.73272
9.7327
9.73268
9.73265
9.73263
9.73261
9.7326
9.73275
9.73274
9.73273
9.73271
9.73269
9.73267
9.73265
9.73263
9.73261
9.7326
9.73273
9.73273
9.73272
9.73271
9.73269
9.73267
9.73265
9.73262
9.7326
9.73261
9.73272
9.73274
9.73273
9.73271
9.73269
9.73266
9.73263
9.73261
9.73257
9.73258
9.36608
9.36601
9.36597
9.36593
9.36589
9.36585
9.36582
9.36579
9.36578
9.3657
9.36608
9.36602
9.36598
9.36593
9.36589
9.36584
9.3658
9.36576
9.36572
9.36563
9.36606
9.36601
9.36597
9.36593
9.36588
9.36583
9.36579
9.36575
9.36571
9.36564
9.36604
9.366
9.36596
9.36592
9.36587
9.36582
9.36578
9.36574
9.3657
9.36565
9.36602
9.36598
9.36595
9.36591
9.36586
9.36581
9.36577
9.36573
9.3657
9.36566
9.366
9.36597
9.36593
9.36589
9.36586
9.36581
9.36577
9.36573
9.36569
9.36566
9.36599
9.36596
9.36592
9.36589
9.36585
9.36581
9.36576
9.36572
9.36568
9.36566
9.36597
9.36594
9.36591
9.36588
9.36584
9.3658
9.36576
9.36571
9.36568
9.36566
9.36596
9.36593
9.3659
9.36587
9.36583
9.36579
9.36575
9.36571
9.36567
9.36567
9.36593
9.36592
9.36589
9.36586
9.36582
9.36578
9.36574
9.36569
9.36564
9.36563
8.9992
8.99912
8.99908
8.99904
8.99901
8.99897
8.99893
8.9989
8.99889
8.99878
8.99922
8.99915
8.99911
8.99906
8.99901
8.99896
8.99891
8.99886
8.99882
8.99871
8.99921
8.99917
8.99912
8.99907
8.99902
8.99896
8.99891
8.99886
8.99881
8.99874
8.99922
8.99917
8.99913
8.99908
8.99902
8.99897
8.99891
8.99886
8.99882
8.99876
8.99922
8.99918
8.99914
8.99908
8.99903
8.99897
8.99892
8.99887
8.99882
8.99878
8.99923
8.99919
8.99914
8.99909
8.99904
8.99899
8.99893
8.99888
8.99883
8.99879
8.99923
8.9992
8.99915
8.9991
8.99904
8.99899
8.99894
8.99888
8.99884
8.99881
8.99924
8.9992
8.99915
8.9991
8.99905
8.99899
8.99894
8.99889
8.99884
8.99882
8.99924
8.9992
8.99915
8.9991
8.99905
8.999
8.99894
8.99889
8.99885
8.99884
8.99922
8.99919
8.99915
8.9991
8.99905
8.999
8.99894
8.99889
8.99883
8.99881
8.63221
8.63212
8.6321
8.63208
8.63204
8.632
8.63197
8.63193
8.63191
8.6318
8.6323
8.63221
8.63217
8.63213
8.63208
8.63202
8.63197
8.63192
8.63187
8.63177
8.63232
8.63226
8.63222
8.63216
8.63211
8.63205
8.63199
8.63194
8.63189
8.63182
8.63235
8.6323
8.63226
8.6322
8.63215
8.63209
8.63203
8.63197
8.63192
8.63187
8.63239
8.63235
8.6323
8.63225
8.63219
8.63213
8.63207
8.63201
8.63196
8.63192
8.63244
8.6324
8.63235
8.63229
8.63223
8.63217
8.63211
8.63205
8.632
8.63197
8.63249
8.63245
8.6324
8.63234
8.63227
8.63221
8.63215
8.63209
8.63204
8.63201
8.63253
8.63249
8.63244
8.63238
8.63231
8.63225
8.63218
8.63212
8.63208
8.63205
8.63256
8.63252
8.63247
8.63241
8.63234
8.63228
8.63222
8.63216
8.63211
8.63209
8.63261
8.63256
8.6325
8.63243
8.63237
8.6323
8.63224
8.63218
8.63213
8.63209
8.26527
8.26513
8.26515
8.26513
8.2651
8.26506
8.26501
8.26497
8.26493
8.26482
8.26545
8.26531
8.26527
8.26522
8.26516
8.2651
8.26505
8.26499
8.26494
8.26485
8.26547
8.26539
8.26534
8.26529
8.26523
8.26517
8.26511
8.26505
8.265
8.26494
8.26554
8.26548
8.26543
8.26537
8.26531
8.26525
8.26519
8.26512
8.26507
8.26502
8.26561
8.26557
8.26551
8.26545
8.26539
8.26534
8.26527
8.2652
8.26515
8.26511
8.26569
8.26566
8.2656
8.26554
8.26547
8.26541
8.26535
8.26528
8.26523
8.26519
8.26578
8.26575
8.2657
8.26563
8.26555
8.26549
8.26542
8.26536
8.26531
8.26527
8.26585
8.26583
8.26578
8.26571
8.26564
8.26556
8.26549
8.26543
8.26538
8.26534
8.26591
8.2659
8.26585
8.26578
8.2657
8.26563
8.26556
8.2655
8.26544
8.26539
8.26605
8.26601
8.26592
8.26584
8.26576
8.26568
8.26562
8.26556
8.26552
8.26545
7.89844
7.89825
7.89827
7.89825
7.89823
7.8982
7.89815
7.8981
7.89806
7.89794
7.89868
7.89849
7.89843
7.89838
7.89832
7.89826
7.8982
7.89814
7.8981
7.89803
7.8987
7.89858
7.89853
7.89847
7.89841
7.89835
7.89829
7.89823
7.89818
7.89814
7.89877
7.89868
7.89863
7.89857
7.89852
7.89846
7.89839
7.89833
7.89828
7.89824
7.89884
7.89879
7.89873
7.89867
7.89862
7.89857
7.89851
7.89844
7.89839
7.89835
7.89892
7.89889
7.89884
7.89878
7.89871
7.89866
7.89861
7.89855
7.8985
7.89846
7.89901
7.899
7.89896
7.89889
7.89882
7.89876
7.89871
7.89865
7.8986
7.89855
7.89909
7.8991
7.89906
7.899
7.89893
7.89886
7.8988
7.89875
7.8987
7.89864
7.89917
7.89919
7.89915
7.89909
7.89902
7.89895
7.89889
7.89883
7.89878
7.89869
7.89937
7.89933
7.89925
7.89917
7.89909
7.89903
7.89897
7.89893
7.89891
7.89881
7.53177
7.53156
7.53159
7.53158
7.53157
7.53155
7.53153
7.53149
7.53145
7.53135
7.532
7.53179
7.53174
7.53169
7.53165
7.53161
7.53157
7.53153
7.5315
7.53146
7.53199
7.53187
7.53182
7.53177
7.53173
7.53169
7.53164
7.5316
7.53157
7.53156
7.53203
7.53194
7.5319
7.53185
7.53182
7.53179
7.53174
7.53169
7.53166
7.53165
7.53205
7.53201
7.53197
7.53193
7.5319
7.53188
7.53184
7.53179
7.53176
7.53174
7.53209
7.53209
7.53206
7.53201
7.53197
7.53195
7.53192
7.53189
7.53186
7.53183
7.53214
7.53216
7.53214
7.5321
7.53206
7.53203
7.53201
7.53198
7.53195
7.53191
7.53219
7.53223
7.53223
7.5322
7.53216
7.53212
7.53209
7.53206
7.53203
7.53197
7.53225
7.5323
7.53229
7.53227
7.53224
7.5322
7.53217
7.53214
7.53211
7.532
7.53242
7.5324
7.53237
7.53233
7.5323
7.53227
7.53225
7.53224
7.53226
7.53216
7.16517
7.16504
7.16506
7.16507
7.1651
7.16512
7.16514
7.16515
7.16514
7.1651
7.16528
7.16515
7.16513
7.16512
7.16513
7.16513
7.16514
7.16515
7.16516
7.16519
7.16524
7.16517
7.16516
7.16515
7.16516
7.16516
7.16516
7.16517
7.16518
7.16522
7.16523
7.16519
7.16518
7.16518
7.16519
7.1652
7.1652
7.1652
7.16521
7.16524
7.16519
7.16519
7.16519
7.16519
7.16521
7.16524
7.16524
7.16524
7.16525
7.16527
7.16516
7.16518
7.1652
7.1652
7.16521
7.16524
7.16527
7.16528
7.16529
7.1653
7.16513
7.16518
7.16521
7.16523
7.16524
7.16527
7.1653
7.16531
7.16533
7.16531
7.16512
7.16519
7.16523
7.16526
7.16528
7.1653
7.16533
7.16535
7.16536
7.16533
7.16513
7.16519
7.16524
7.16528
7.1653
7.16533
7.16535
7.16537
7.16539
7.16531
7.16519
7.1652
7.16524
7.16528
7.16531
7.16535
7.16539
7.16543
7.1655
7.16544
6.79857
6.79861
6.79865
6.7987
6.79877
6.79886
6.79894
6.79901
6.79906
6.79912
6.7985
6.79854
6.79859
6.79865
6.79872
6.79881
6.79889
6.79896
6.79904
6.79915
6.79844
6.79848
6.79854
6.7986
6.79867
6.79875
6.79883
6.7989
6.79898
6.79907
6.79837
6.79842
6.79847
6.79854
6.79862
6.7987
6.79878
6.79885
6.79892
6.799
6.79828
6.79834
6.7984
6.79847
6.79855
6.79865
6.79872
6.79879
6.79886
6.79893
6.79818
6.79825
6.79832
6.79839
6.79847
6.79857
6.79866
6.79873
6.7988
6.79886
6.79808
6.79816
6.79824
6.79832
6.79841
6.7985
6.7986
6.79868
6.79874
6.79879
6.798
6.79809
6.79818
6.79827
6.79836
6.79845
6.79854
6.79862
6.79869
6.79873
6.79795
6.79802
6.79811
6.79821
6.79831
6.7984
6.79849
6.79857
6.79864
6.79865
6.79787
6.79791
6.79802
6.79814
6.79825
6.79835
6.79846
6.79855
6.79866
6.79868
6.43191
6.43216
6.43223
6.43232
6.43244
6.43259
6.43273
6.43286
6.43297
6.43315
6.43166
6.4319
6.43204
6.43217
6.43232
6.43248
6.43263
6.43278
6.43291
6.43308
6.43159
6.43177
6.4319
6.43204
6.43219
6.43235
6.43251
6.43265
6.43278
6.43292
6.43149
6.43164
6.43177
6.43191
6.43206
6.43221
6.43236
6.4325
6.43263
6.43276
6.43137
6.4315
6.43162
6.43176
6.43191
6.43207
6.43221
6.43235
6.43247
6.43259
6.43124
6.43134
6.43147
6.43161
6.43175
6.43191
6.43206
6.4322
6.43232
6.43242
6.4311
6.43119
6.43132
6.43146
6.43161
6.43177
6.43191
6.43205
6.43217
6.43227
6.43097
6.43105
6.43118
6.43132
6.43147
6.43163
6.43177
6.43191
6.43203
6.43214
6.43087
6.43093
6.43105
6.4312
6.43135
6.4315
6.43164
6.43178
6.4319
6.43201
6.43068
6.43075
6.4309
6.43107
6.43123
6.43139
6.43153
6.43166
6.43178
6.4319
6.06528
6.06567
6.06575
6.06588
6.06601
6.06617
6.06633
6.06649
6.06664
6.06688
6.06491
6.06529
6.06547
6.06566
6.06584
6.06603
6.06622
6.0664
6.06655
6.06674
6.06484
6.06511
6.06529
6.06548
6.06567
6.06586
6.06606
6.06624
6.06639
6.06654
6.06473
6.06494
6.06512
6.0653
6.06548
6.06566
6.06586
6.06604
6.0662
6.06634
6.06461
6.06477
6.06493
6.06511
6.06529
6.06547
6.06565
6.06583
6.06599
6.06612
6.06448
6.06459
6.06474
6.06492
6.0651
6.06528
6.06545
6.06562
6.06578
6.06591
6.06434
6.06442
6.06456
6.06473
6.06491
6.06509
6.06526
6.06542
6.06557
6.06572
6.06419
6.06426
6.06438
6.06454
6.06472
6.0649
6.06507
6.06523
6.06538
6.06556
6.06406
6.06411
6.06423
6.06439
6.06456
6.06473
6.0649
6.06505
6.06521
6.06542
6.06383
6.06393
6.06408
6.06424
6.06442
6.06458
6.06473
6.06486
6.06496
6.06518
5.69866
5.69905
5.69912
5.69924
5.69934
5.69946
5.69958
5.69972
5.69985
5.70006
5.6983
5.69868
5.69885
5.69902
5.69918
5.69934
5.6995
5.69965
5.69977
5.6999
5.69824
5.6985
5.69868
5.69885
5.69901
5.69918
5.69936
5.69951
5.69964
5.69974
5.69814
5.69834
5.69851
5.69867
5.69883
5.699
5.69917
5.69934
5.69947
5.69957
5.69805
5.69819
5.69834
5.69851
5.69866
5.69881
5.69897
5.69914
5.69928
5.69939
5.69795
5.69805
5.69818
5.69834
5.6985
5.69864
5.69879
5.69895
5.69909
5.69921
5.69784
5.6979
5.69801
5.69816
5.69832
5.69847
5.69861
5.69876
5.6989
5.69905
5.69772
5.69776
5.69785
5.69799
5.69814
5.69829
5.69844
5.69858
5.69872
5.69891
5.6976
5.69764
5.69773
5.69785
5.69799
5.69814
5.69828
5.69842
5.69855
5.69882
5.69741
5.69752
5.69762
5.69774
5.69787
5.698
5.69811
5.69821
5.69826
5.69852
5.33208
5.33231
5.33234
5.3324
5.33243
5.33247
5.33251
5.33257
5.33264
5.33272
5.33185
5.33208
5.33218
5.33227
5.33234
5.33241
5.33247
5.33254
5.33258
5.33258
5.33182
5.33197
5.33206
5.33215
5.33223
5.33232
5.3324
5.33248
5.33252
5.33253
5.33175
5.33187
5.33196
5.33205
5.33212
5.3322
5.33229
5.33238
5.33244
5.33246
5.33171
5.33179
5.33186
5.33195
5.33202
5.33208
5.33217
5.33226
5.33233
5.33238
5.33167
5.33171
5.33177
5.33186
5.33194
5.332
5.33206
5.33215
5.33222
5.33229
5.33162
5.33163
5.33167
5.33175
5.33183
5.3319
5.33196
5.33204
5.33212
5.33223
5.33156
5.33156
5.33159
5.33164
5.33172
5.33179
5.33186
5.33194
5.33201
5.33216
5.33148
5.33151
5.33152
5.33157
5.33163
5.3317
5.33176
5.33184
5.33191
5.33215
5.3314
5.33149
5.33151
5.33154
5.33157
5.33162
5.33164
5.33168
5.33166
5.33189
4.96539
4.96538
4.96536
4.96534
4.9653
4.96524
4.96519
4.96515
4.96514
4.96508
4.9654
4.96539
4.96537
4.96535
4.96531
4.96526
4.96522
4.96518
4.96512
4.965
4.96542
4.9654
4.96537
4.96535
4.96531
4.96527
4.96524
4.9652
4.96515
4.96505
4.96543
4.96541
4.96538
4.96535
4.96531
4.96527
4.96524
4.96521
4.96517
4.9651
4.96546
4.96543
4.9654
4.96538
4.96533
4.96527
4.96524
4.96522
4.96519
4.96514
4.96551
4.96547
4.96543
4.9654
4.96537
4.9653
4.96525
4.96522
4.9652
4.96518
4.96555
4.9655
4.96545
4.96541
4.96537
4.96532
4.96527
4.96523
4.96521
4.96522
4.96558
4.96553
4.96547
4.96542
4.96537
4.96532
4.96527
4.96524
4.96521
4.96525
4.96558
4.96556
4.9655
4.96544
4.96538
4.96533
4.96528
4.96524
4.96521
4.96532
4.96562
4.96566
4.96558
4.9655
4.96541
4.96533
4.96525
4.96519
4.96509
4.96519
4.59862
4.5984
4.59831
4.59821
4.5981
4.59797
4.59785
4.59774
4.59765
4.59749
4.59886
4.59864
4.59849
4.59836
4.59822
4.59807
4.59793
4.59779
4.59766
4.59747
4.59897
4.59878
4.59864
4.59849
4.59834
4.59818
4.59803
4.59789