/*--------------------------------*- C++ -*----------------------------------*\
| =========                 |                                                 |
| \\      /  F ield         | OpenFOAM: The Open Source CFD Toolbox           |
|  \\    /   O peration     | Version:  2406                                  |
|   \\  /    A nd           | Website:  www.openfoam.com                      |
|    \\/     M anipulation  |                                                 |
\*---------------------------------------------------------------------------*/
FoamFile
{
    version     2.0;
    format      ascii;
    arch        "LSB;label=32;scalar=64";
    class       surfaceScalarField;
    location    "1.1";
    object      phi;
}
// * * * * * * * * * * * * * * * * * * * * * * * * * * * * * * * * * * * * * //

dimensions      [0 3 -1 0 0 0 0];

oriented        oriented;

internalField   nonuniform List<scalar> 
73500
(
4.64643e-05
4.64633e-05
5.70549e-05
-5.14907e-05
-5.149e-05
3.76973e-05
4.71299e-05
6.49019e-05
-5.23265e-05
2.65025e-05
4.75014e-05
7.06872e-05
-5.3051e-05
1.36516e-05
4.76214e-05
7.45176e-05
-5.3317e-05
1.03647e-09
4.76553e-05
7.64233e-05
-5.34353e-05
-1.36495e-05
4.76552e-05
7.64234e-05
-5.34353e-05
-2.65006e-05
4.76214e-05
7.45177e-05
-5.3317e-05
-3.76956e-05
4.75014e-05
7.06875e-05
-5.30509e-05
-4.64629e-05
4.71298e-05
6.49022e-05
-5.23265e-05
4.64632e-05
5.70552e-05
-5.14897e-05
-5.149e-05
4.71308e-05
3.76961e-05
6.49018e-05
-5.23272e-05
3.80032e-05
3.8002e-05
7.28397e-05
2.65056e-05
3.80941e-05
7.82738e-05
1.35845e-05
3.80731e-05
8.1719e-05
9.70116e-10
3.80398e-05
8.3396e-05
-1.35826e-05
3.80398e-05
8.33961e-05
-2.65038e-05
3.8073e-05
8.17191e-05
-3.80015e-05
3.8094e-05
7.8274e-05
-4.71295e-05
3.80019e-05
7.284e-05
3.76961e-05
6.49022e-05
-5.23262e-05
4.75023e-05
2.65011e-05
7.06872e-05
-5.30516e-05
3.80952e-05
2.65043e-05
7.82737e-05
2.64309e-05
2.64297e-05
8.33159e-05
1.34989e-05
2.63338e-05
8.64274e-05
9.32968e-10
2.62714e-05
8.7914e-05
-1.3497e-05
2.62714e-05
8.7914e-05
-2.64292e-05
2.63338e-05
8.64275e-05
-3.80937e-05
2.64296e-05
8.33161e-05
-4.7501e-05
2.65042e-05
7.8274e-05
2.65011e-05
7.06875e-05
-5.30506e-05
4.76223e-05
1.36501e-05
7.45175e-05
-5.33177e-05
3.80741e-05
1.35831e-05
8.17189e-05
2.63351e-05
1.34975e-05
8.64274e-05
1.34205e-05
1.34192e-05
8.92793e-05
9.12908e-10
1.33731e-05
9.06219e-05
-1.34187e-05
1.33731e-05
9.0622e-05
-2.63334e-05
1.34191e-05
8.92794e-05
-3.80726e-05
1.34975e-05
8.64275e-05
-4.76211e-05
1.3583e-05
8.17192e-05
1.36501e-05
7.45178e-05
-5.33167e-05
4.76562e-05
-4.65822e-10
7.64231e-05
-5.3436e-05
3.80409e-05
-4.74657e-10
8.33959e-05
2.62727e-05
-4.80416e-10
8.79139e-05
1.33745e-05
-4.84273e-10
9.06219e-05
9.02937e-10
-4.85989e-10
9.18863e-05
-1.33727e-05
-4.86701e-10
9.18863e-05
-2.6271e-05
-4.87382e-10
9.0622e-05
-3.80395e-05
-4.8842e-10
8.79141e-05
-4.76549e-05
-4.89513e-10
8.33961e-05
-4.90234e-10
7.64234e-05
-5.3435e-05
4.76562e-05
-1.3651e-05
7.64231e-05
-5.3436e-05
3.8041e-05
-1.3584e-05
8.33959e-05
2.62727e-05
-1.34984e-05
8.79139e-05
1.33745e-05
-1.34201e-05
9.06219e-05
9.01843e-10
-1.33741e-05
9.18863e-05
-1.33727e-05
-1.33741e-05
9.18863e-05
-2.6271e-05
-1.34201e-05
9.0622e-05
-3.80395e-05
-1.34984e-05
8.79141e-05
-4.76549e-05
-1.3584e-05
8.33961e-05
-1.3651e-05
7.64234e-05
-5.34351e-05
4.76223e-05
-2.6502e-05
7.45174e-05
-5.33177e-05
3.80742e-05
-2.65052e-05
8.17189e-05
2.63351e-05
-2.64306e-05
8.64273e-05
1.34205e-05
-2.63347e-05
8.92793e-05
9.1027e-10
-2.62723e-05
9.06219e-05
-1.34187e-05
-2.62723e-05
9.06219e-05
-2.63334e-05
-2.63347e-05
8.92794e-05
-3.80727e-05
-2.64305e-05
8.64275e-05
-4.76211e-05
-2.65051e-05
8.17191e-05
-2.6502e-05
7.45177e-05
-5.33167e-05
4.75023e-05
-3.76969e-05
7.06871e-05
-5.30516e-05
3.80952e-05
-3.80028e-05
7.82737e-05
2.6431e-05
-3.80949e-05
8.33158e-05
1.34989e-05
-3.80738e-05
8.64274e-05
9.30145e-10
-3.80406e-05
8.79139e-05
-1.3497e-05
-3.80406e-05
8.7914e-05
-2.64292e-05
-3.80738e-05
8.64275e-05
-3.80937e-05
-3.80948e-05
8.3316e-05
-4.75011e-05
-3.80027e-05
7.82739e-05
-3.76969e-05
7.06874e-05
-5.30507e-05
4.71308e-05
-4.64639e-05
6.49017e-05
-5.23272e-05
3.80032e-05
-4.71306e-05
7.28396e-05
2.65056e-05
-4.75021e-05
7.82737e-05
1.35845e-05
-4.76221e-05
8.17189e-05
9.65468e-10
-4.76559e-05
8.33959e-05
-1.35826e-05
-4.76559e-05
8.3396e-05
-2.65038e-05
-4.7622e-05
8.1719e-05
-3.80016e-05
-4.7502e-05
7.82739e-05
-4.71295e-05
-4.71305e-05
7.28399e-05
-4.64639e-05
6.4902e-05
-5.23262e-05
4.64643e-05
5.70547e-05
-5.14905e-05
-5.14907e-05
3.76973e-05
6.49017e-05
-5.2327e-05
2.65025e-05
7.06871e-05
-5.30514e-05
1.36516e-05
7.45175e-05
-5.33175e-05
1.0293e-09
7.64232e-05
-5.34358e-05
-1.36496e-05
7.64232e-05
-5.34358e-05
-2.65006e-05
7.45176e-05
-5.33174e-05
-3.76956e-05
7.06873e-05
-5.30513e-05
-4.64629e-05
6.4902e-05
-5.23269e-05
5.70551e-05
-5.14897e-05
-5.14904e-05
1.74585e-05
1.74538e-05
5.5909e-05
-1.6885e-05
-1.68816e-05
1.56147e-05
1.95105e-05
6.58047e-05
-1.85697e-05
1.16413e-05
2.09085e-05
7.35982e-05
-1.98461e-05
6.20546e-06
2.18242e-05
7.89049e-05
-2.07758e-05
4.67709e-09
2.22669e-05
8.15788e-05
-2.12217e-05
-6.19631e-06
2.22669e-05
8.1579e-05
-2.12217e-05
-1.16328e-05
2.18242e-05
7.89057e-05
-2.07759e-05
-1.56072e-05
2.09086e-05
7.35995e-05
-1.98463e-05
-1.74524e-05
1.95108e-05
6.58065e-05
-1.857e-05
1.74543e-05
5.59111e-05
-1.68806e-05
-1.68821e-05
1.95148e-05
1.56091e-05
6.58044e-05
-1.85729e-05
1.74891e-05
1.7484e-05
7.68918e-05
1.30122e-05
1.87056e-05
8.49533e-05
6.91337e-06
1.9466e-05
9.01759e-05
4.22401e-09
1.98327e-05
9.27393e-05
-6.90508e-06
1.98327e-05
9.27395e-05
-1.30045e-05
1.9466e-05
9.01766e-05
-1.74822e-05
1.87056e-05
8.49545e-05
-1.95091e-05
1.74842e-05
7.68934e-05
1.56095e-05
6.58065e-05
-1.85687e-05
2.09124e-05
1.16351e-05
7.35977e-05
-1.9849e-05
1.87103e-05
1.30067e-05
8.49531e-05
1.38951e-05
1.389e-05
9.29465e-05
7.37031e-06
1.44277e-05
9.79904e-05
3.92043e-09
1.46884e-05
0.000100425
-7.36262e-06
1.46884e-05
0.000100425
-1.38879e-05
1.44276e-05
9.7991e-05
-1.87038e-05
1.38899e-05
9.29475e-05
-2.0907e-05
1.30067e-05
8.49546e-05
1.16353e-05
7.35997e-05
-1.98451e-05
2.18279e-05
6.19897e-06
7.89041e-05
-2.07785e-05
1.94704e-05
6.90749e-06
9.01754e-05
1.44326e-05
7.36484e-06
9.79902e-05
7.64576e-06
7.64053e-06
0.000102853
3.72899e-09
7.77491e-06
0.000105177
-7.63844e-06
7.7749e-06
0.000105177
-1.44257e-05
7.64049e-06
0.000102854
-1.94642e-05
7.36478e-06
9.79911e-05
-2.18227e-05
6.90745e-06
9.01768e-05
6.199e-06
7.8906e-05
-2.07747e-05
2.22705e-05
-1.82683e-09
8.15777e-05
-2.12244e-05
1.9837e-05
-1.72524e-09
9.27385e-05
1.46932e-05
-1.65468e-09
0.000100424
7.78004e-06
-1.61137e-09
0.000105177
3.63251e-09
-1.59461e-09
0.000107439
-7.77291e-06
-1.60518e-09
0.000107439
-1.46865e-05
-1.64457e-09
0.000105178
-1.9831e-05
-1.71587e-09
0.000100425
-2.22655e-05
-1.8217e-09
9.27398e-05
-1.96894e-09
8.15795e-05
-2.12207e-05
2.22705e-05
-6.20255e-06
8.15776e-05
-2.12243e-05
1.9837e-05
-6.91087e-06
9.27384e-05
1.46932e-05
-7.36808e-06
0.000100424
7.78003e-06
-7.64369e-06
0.000105177
3.62215e-09
-7.77804e-06
0.000107439
-7.77292e-06
-7.77804e-06
0.000107439
-1.46865e-05
-7.64371e-06
0.000105177
-1.9831e-05
-7.36814e-06
0.000100425
-2.22655e-05
-6.91102e-06
9.27397e-05
-6.20285e-06
8.15794e-05
-2.12207e-05
2.18278e-05
-1.16384e-05
7.89038e-05
-2.07785e-05
1.94703e-05
-1.30098e-05
9.01752e-05
1.44326e-05
-1.3893e-05
9.79899e-05
7.64573e-06
-1.44307e-05
0.000102853
3.69828e-09
-1.46913e-05
0.000105177
-7.63847e-06
-1.46913e-05
0.000105177
-1.44257e-05
-1.44307e-05
0.000102853
-1.94643e-05
-1.38931e-05
9.79908e-05
-2.18228e-05
-1.301e-05
9.01765e-05
-1.16389e-05
7.89056e-05
-2.07747e-05
2.09123e-05
-1.56121e-05
7.35972e-05
-1.98489e-05
1.87102e-05
-1.74869e-05
8.49527e-05
1.38951e-05
-1.87083e-05
9.29461e-05
7.37025e-06
-1.94686e-05
9.799e-05
3.86758e-09
-1.98353e-05
0.000100424
-7.36266e-06
-1.98353e-05
0.000100424
-1.38879e-05
-1.94687e-05
9.79906e-05
-1.87038e-05
-1.87084e-05
9.29471e-05
-2.0907e-05
-1.74871e-05
8.49541e-05
-1.56127e-05
7.35991e-05
-1.98451e-05
1.95145e-05
-1.74562e-05
6.58038e-05
-1.85726e-05
1.74889e-05
-1.95129e-05
7.68912e-05
1.30121e-05
-2.09108e-05
8.49528e-05
6.91325e-06
-2.18264e-05
9.01754e-05
4.14264e-09
-2.22691e-05
9.27387e-05
-6.90513e-06
-2.22691e-05
9.27389e-05
-1.30045e-05
-2.18264e-05
9.0176e-05
-1.74821e-05
-2.09109e-05
8.49539e-05
-1.9509e-05
-1.95132e-05
7.68927e-05
-1.74569e-05
6.58058e-05
-1.85686e-05
1.74582e-05
5.59082e-05
-1.68833e-05
-1.68847e-05
1.56144e-05
6.58039e-05
-1.85713e-05
1.1641e-05
7.35974e-05
-1.98478e-05
6.20526e-06
7.89041e-05
-2.07774e-05
4.55899e-09
8.1578e-05
-2.12233e-05
-6.19635e-06
8.15783e-05
-2.12233e-05
-1.16327e-05
7.89049e-05
-2.07774e-05
-1.56071e-05
7.35987e-05
-1.98479e-05
-1.74522e-05
6.58056e-05
-1.85717e-05
5.59102e-05
-1.68805e-05
-1.68839e-05
9.76852e-06
9.75766e-06
5.42187e-05
-8.92202e-06
-8.9141e-06
9.00555e-06
1.14945e-05
6.53685e-05
-1.02955e-05
6.89505e-06
1.27571e-05
7.43716e-05
-1.14203e-05
3.74055e-06
1.36042e-05
8.0663e-05
-1.2208e-05
1.09318e-08
1.40254e-05
8.3884e-05
-1.26012e-05
-3.71921e-06
1.40255e-05
8.38848e-05
-1.26013e-05
-6.87524e-06
1.36044e-05
8.06655e-05
-1.22083e-05
-8.98827e-06
1.27576e-05
7.43756e-05
-1.14209e-05
-9.75454e-06
1.14955e-05
6.53738e-05
-1.02967e-05
9.75927e-06
5.4225e-05
-8.91214e-06
-8.91567e-06
1.15042e-05
8.99265e-06
6.53679e-05
-1.03028e-05
1.06949e-05
1.06834e-05
7.8512e-05
8.186e-06
1.18564e-05
8.83627e-05
4.42842e-06
1.26084e-05
9.49291e-05
9.72859e-09
1.29768e-05
9.82064e-05
-4.40938e-06
1.29768e-05
9.82071e-05
-8.16822e-06
1.26085e-05
9.49312e-05
-1.06792e-05
1.18567e-05
8.83662e-05
-1.14914e-05
1.0684e-05
7.85169e-05
8.99388e-06
6.53741e-05
-1.02936e-05
1.27659e-05
6.88071e-06
7.43703e-05
-1.14267e-05
1.18669e-05
8.17328e-06
8.8362e-05
9.06605e-06
9.05443e-06
9.85492e-05
4.89379e-06
9.60277e-06
0.000105168
8.89907e-09
9.86689e-06
0.000108419
-4.87635e-06
9.86686e-06
0.00010842
-9.04971e-06
9.60273e-06
0.00010517
-1.18524e-05
9.05448e-06
9.85523e-05
-1.27541e-05
8.17356e-06
8.83665e-05
6.88146e-06
7.43761e-05
-1.14182e-05
1.36123e-05
3.72555e-06
8.06608e-05
-1.2214e-05
1.26182e-05
4.41503e-06
9.49276e-05
9.61371e-06
4.8815e-06
0.000105167
5.1775e-06
5.16589e-06
0.000111726
8.37292e-09
5.29952e-06
0.000114914
-5.16107e-06
5.29948e-06
0.000114914
-9.59829e-06
5.1658e-06
0.000111728
-1.26045e-05
4.8814e-06
0.00010517
-1.36011e-05
4.41501e-06
9.49318e-05
3.72571e-06
8.06664e-05
-1.22059e-05
1.40332e-05
-4.03202e-09
8.38807e-05
-1.26069e-05
1.29863e-05
-3.76702e-09
9.82041e-05
9.87752e-06
-3.57425e-09
0.000108418
5.31082e-06
-3.45414e-09
0.000114913
8.10361e-09
-3.407e-09
0.000118045
-5.29491e-06
-3.43973e-09
0.000118045
-9.86257e-06
-3.55596e-09
0.000114914
-1.2973e-05
-3.75828e-09
0.00010842
-1.40224e-05
-4.05431e-09
9.82081e-05
-4.45182e-09
8.38861e-05
-1.2599e-05
1.40332e-05
-3.73342e-06
8.38804e-05
-1.26068e-05
1.29862e-05
-4.4224e-06
9.82038e-05
9.87749e-06
-4.8885e-06
0.000108418
5.31079e-06
-5.17266e-06
0.000114913
8.07935e-09
-5.30621e-06
0.000118044
-5.29493e-06
-5.30623e-06
0.000118045
-9.86259e-06
-5.17277e-06
0.000114914
-1.2973e-05
-4.88877e-06
0.00010842
-1.40224e-05
-4.42294e-06
9.82078e-05
-3.7344e-06
8.38858e-05
-1.2599e-05
1.36121e-05
-6.88802e-06
8.066e-05
-1.22138e-05
1.2618e-05
-8.18017e-06
9.49269e-05
9.6136e-06
-9.06099e-06
0.000105167
5.17741e-06
-9.60913e-06
0.000111726
8.29912e-09
-9.87317e-06
0.000114913
-5.16114e-06
-9.87321e-06
0.000114914
-9.59833e-06
-9.60927e-06
0.000111727
-1.26045e-05
-9.06137e-06
0.000105169
-1.36011e-05
-8.18096e-06
9.4931e-05
-6.88952e-06
8.06654e-05
-1.22058e-05
1.27655e-05
-8.99903e-06
7.43689e-05
-1.14264e-05
1.18666e-05
-1.06895e-05
8.83608e-05
9.06582e-06
-1.18622e-05
9.8548e-05
4.89361e-06
-1.2614e-05
0.000105167
8.76808e-09
-1.29824e-05
0.000108418
-4.87643e-06
-1.29824e-05
0.000108419
-9.04973e-06
-1.26143e-05
0.000105169
-1.18523e-05
-1.18628e-05
9.8551e-05
-1.27539e-05
-1.06905e-05
8.83651e-05
-9.0009e-06
7.43745e-05
-1.1418e-05
1.15036e-05
-9.76285e-06
6.53661e-05
-1.03022e-05
1.06944e-05
-1.14994e-05
7.85103e-05
8.18559e-06
-1.27619e-05
8.83611e-05
4.42811e-06
-1.36088e-05
9.49275e-05
9.52337e-09
-1.403e-05
9.82048e-05
-4.40947e-06
-1.40301e-05
9.82054e-05
-8.16817e-06
-1.36091e-05
9.49295e-05
-1.0679e-05
-1.27626e-05
8.83644e-05
-1.1491e-05
-1.15008e-05
7.85149e-05
-9.76495e-06
6.53719e-05
-1.02932e-05
9.76766e-06
5.42166e-05
-8.91775e-06
-8.92129e-06
9.00474e-06
6.53664e-05
-1.02991e-05
6.89435e-06
7.43695e-05
-1.14237e-05
3.74003e-06
8.06609e-05
-1.22113e-05
1.06326e-08
8.38818e-05
-1.26045e-05
-3.71927e-06
8.38825e-05
-1.26046e-05
-6.87505e-06
8.06632e-05
-1.22117e-05
-8.98788e-06
7.43732e-05
-1.14244e-05
-9.75399e-06
6.53713e-05
-1.03005e-05
5.42225e-05
-8.91162e-06
-8.91959e-06
2.28847e-06
2.26601e-06
5.30981e-05
-1.72526e-06
-1.70881e-06
2.43833e-06
3.0404e-06
6.43583e-05
-2.1802e-06
2.04169e-06
3.69046e-06
7.37078e-05
-2.63024e-06
1.1703e-06
4.15538e-06
8.0353e-05
-2.97421e-06
2.22432e-08
4.39302e-06
8.3792e-05
-3.1532e-06
-1.12687e-06
4.39325e-06
8.3794e-05
-3.15349e-06
-2.00138e-06
4.15619e-06
8.03588e-05
-2.9752e-06
-2.40321e-06
3.69203e-06
7.37172e-05
-2.63195e-06
-2.26009e-06
3.04319e-06
6.43706e-05
-2.1833e-06
2.27023e-06
5.31126e-05
-1.70527e-06
-1.7128e-06
3.06026e-06
2.41171e-06
6.4357e-05
-2.19515e-06
3.30879e-06
3.28543e-06
7.80183e-05
2.76789e-06
3.97396e-06
8.862e-05
1.5747e-06
4.4374e-06
9.58401e-05
1.95778e-08
4.66389e-06
9.94905e-05
-1.53639e-06
4.66401e-06
9.94922e-05
-2.73213e-06
4.43786e-06
9.58451e-05
-3.27729e-06
3.97498e-06
8.86283e-05
-3.03454e-06
3.2874e-06
7.80298e-05
2.41514e-06
6.43712e-05
-2.17669e-06
3.70795e-06
2.0122e-06
7.37048e-05
-2.64309e-06
3.99486e-06
2.74209e-06
8.86183e-05
3.32143e-06
3.29821e-06
9.98982e-05
1.87625e-06
3.65286e-06
0.000107398
1.77187e-08
3.81333e-06
0.000111128
-1.84154e-06
3.81335e-06
0.00011113
-3.28895e-06
3.65301e-06
0.000107402
-3.96619e-06
3.29869e-06
9.99057e-05
-3.68464e-06
2.74323e-06
8.8629e-05
2.0145e-06
7.37185e-05
-2.62644e-06
4.17141e-06
1.13957e-06
8.03478e-05
-2.98598e-06
4.45675e-06
1.54767e-06
9.58366e-05
3.67451e-06
1.85177e-06
0.000107396
2.05955e-06
2.03662e-06
0.000114957
1.65619e-08
2.1097e-06
0.00011866
-2.02707e-06
2.10965e-06
0.000118661
-3.64407e-06
2.03655e-06
0.000114961
-4.42987e-06
1.8518e-06
0.000107403
-4.14956e-06
1.54799e-06
9.58466e-05
1.14047e-06
8.0361e-05
-2.97025e-06
4.40817e-06
-8.26255e-09
8.37844e-05
-3.16415e-06
4.68243e-06
-7.527e-09
9.94849e-05
3.83425e-06
-7.03088e-09
0.000111125
2.13193e-06
-6.73957e-09
0.000118659
1.59911e-08
-6.62247e-09
0.000122277
-2.10052e-06
-6.68002e-09
0.000122278
-3.80478e-06
-6.91607e-09
0.000118662
-4.65643e-06
-7.33546e-09
0.000111131
-4.38706e-06
-7.96091e-09
9.94945e-05
-8.80342e-09
8.37972e-05
-3.14896e-06
4.40806e-06
-1.15569e-06
8.37837e-05
-3.16403e-06
4.68235e-06
-1.56239e-06
9.94843e-05
3.8342e-06
-1.86553e-06
0.000111124
2.1319e-06
-2.04983e-06
0.000118658
1.59626e-08
-2.12271e-06
0.000122276
-2.10054e-06
-2.12276e-06
0.000122277
-3.80478e-06
-2.05011e-06
0.000118662
-4.65639e-06
-1.86617e-06
0.00011113
-4.38698e-06
-1.56356e-06
9.94939e-05
-1.15764e-06
8.37964e-05
-3.14886e-06
4.17103e-06
-2.02714e-06
8.03458e-05
-2.98556e-06
4.45647e-06
-2.75582e-06
9.58347e-05
3.67433e-06
-3.31108e-06
0.000107394
2.05943e-06
-3.66524e-06
0.000114956
1.64722e-08
-3.82553e-06
0.000118659
-2.02712e-06
-3.82565e-06
0.00011866
-3.64404e-06
-3.66571e-06
0.000114959
-4.42972e-06
-3.31212e-06
0.000107401
-4.14928e-06
-2.75774e-06
9.58446e-05
-2.03041e-06
8.03587e-05
-2.96991e-06
3.70725e-06
-2.4247e-06
7.37015e-05
-2.64238e-06
3.9943e-06
-3.29749e-06
8.86153e-05
3.32102e-06
-3.9853e-06
9.98953e-05
1.87597e-06
-4.4483e-06
0.000107395
1.75519e-08
-4.67463e-06
0.000111126
-1.84158e-06
-4.67485e-06
0.000111127
-3.28882e-06
-4.44905e-06
0.000107399
-3.96587e-06
-3.9868e-06
9.99026e-05
-3.68411e-06
-3.30014e-06
8.86256e-05
-2.42895e-06
7.37147e-05
-2.62586e-06
3.05907e-06
-2.2765e-06
6.43526e-05
-2.19391e-06
3.30781e-06
-3.05023e-06
7.80142e-05
2.76713e-06
-3.69966e-06
8.8616e-05
1.57419e-06
-4.16423e-06
9.58362e-05
1.93105e-08
-4.40173e-06
9.94866e-05
-1.53639e-06
-4.40204e-06
9.94882e-05
-2.73182e-06
-4.16527e-06
9.5841e-05
-3.27668e-06
-3.70161e-06
8.86239e-05
-3.03363e-06
-3.05354e-06
7.80251e-05
-2.28134e-06
6.43662e-05
-2.17565e-06
2.28677e-06
5.30932e-05
-1.71616e-06
-1.72374e-06
2.43679e-06
6.43532e-05
-2.18719e-06
2.04042e-06
7.37028e-05
-2.63673e-06
1.16944e-06
8.0348e-05
-2.9805e-06
2.18573e-08
8.37869e-05
-3.1594e-06
-1.12675e-06
8.37888e-05
-3.15974e-06
-2.00075e-06
8.03534e-05
-2.98164e-06
-2.40217e-06
7.37116e-05
-2.6387e-06
-2.25875e-06
6.43649e-05
-2.19061e-06
5.31068e-05
-1.70402e-06
-1.72052e-06
1.83556e-06
1.79373e-06
5.26805e-05
-1.62121e-06
-1.59065e-06
1.75322e-06
2.19591e-06
6.41272e-05
-1.88266e-06
1.39315e-06
2.52362e-06
7.36783e-05
-2.13421e-06
7.88083e-07
2.75536e-06
8.05154e-05
-2.31288e-06
3.98977e-08
2.87256e-06
8.40717e-05
-2.40424e-06
-7.10187e-07
2.87312e-06
8.40756e-05
-2.40485e-06
-1.32081e-06
2.75725e-06
8.05269e-05
-2.31492e-06
-1.69011e-06
2.52716e-06
7.36968e-05
-2.13772e-06
-1.78442e-06
2.20199e-06
6.41516e-05
-1.88885e-06
1.80273e-06
5.2709e-05
-1.5851e-06
-1.59858e-06
2.23259e-06
1.70368e-06
6.41245e-05
-1.91025e-06
2.17841e-06
2.13529e-06
7.81329e-05
1.7428e-06
2.48019e-06
8.90988e-05
9.80743e-07
2.7141e-06
9.66433e-05
3.5177e-08
2.82516e-06
0.000100483
-9.11916e-07
2.82554e-06
0.000100487
-1.67855e-06
2.71542e-06
9.66534e-05
-2.12176e-06
2.48288e-06
8.91156e-05
-2.18624e-06
2.14013e-06
7.8156e-05
1.71165e-06
6.41528e-05
-1.87689e-06
2.5556e-06
1.33835e-06
7.3672e-05
-2.1577e-06
2.51836e-06
1.69527e-06
8.90954e-05
2.01762e-06
1.97527e-06
0.000100904
1.12867e-06
2.15392e-06
0.000108847
3.17576e-08
2.22588e-06
0.000112824
-1.06646e-06
2.22604e-06
0.000112827
-1.9594e-06
2.15463e-06
0.000108856
-2.46695e-06
1.97696e-06
0.000100919
-2.51371e-06
1.69864e-06
8.91171e-05
1.34446e-06
7.36995e-05
-2.12772e-06
2.78438e-06
7.31077e-07
8.05047e-05
-2.3342e-06
2.74911e-06
9.31007e-07
9.6636e-05
2.19307e-06
1.08407e-06
0.000108843
1.21622e-06
1.17477e-06
0.000116913
2.96103e-08
1.199e-06
0.000120873
-1.15814e-06
1.199e-06
0.000120876
-2.13865e-06
1.17502e-06
0.000116921
-2.70106e-06
1.08486e-06
0.000108857
-2.74527e-06
9.3281e-07
9.66565e-05
7.34592e-07
8.05314e-05
-2.30599e-06
2.89979e-06
-1.66121e-08
8.4056e-05
-2.42393e-06
2.8585e-06
-1.46339e-08
0.000100472
2.26351e-06
-1.32892e-08
0.000112817
1.23901e-06
-1.24831e-08
0.00012087
2.85788e-08
-1.21077e-08
0.000124698
-1.18283e-06
-1.21184e-08
0.0001247
-2.21082e-06
-1.24975e-08
0.000120877
-2.81203e-06
-1.32397e-08
0.00011283
-2.86205e-06
-1.43698e-08
0.000100492
-1.58731e-08
8.40822e-05
-2.39673e-06
2.89961e-06
-7.63506e-07
8.40545e-05
-2.4237e-06
2.8584e-06
-9.59632e-07
0.00010047
2.26349e-06
-1.11009e-06
0.000112816
1.23903e-06
-1.19924e-06
0.000120869
2.85812e-08
-1.2228e-06
0.000124697
-1.18284e-06
-1.22282e-06
0.000124699
-2.21079e-06
-1.19952e-06
0.000120876
-2.81192e-06
-1.11078e-06
0.000112829
-2.86187e-06
-9.60896e-07
0.00010049
-7.65546e-07
8.40806e-05
-2.39653e-06
2.78376e-06
-1.36845e-06
8.05002e-05
-2.33344e-06
2.74873e-06
-1.72197e-06
9.6632e-05
2.19289e-06
-1.99958e-06
0.000108839
1.21617e-06
-2.17682e-06
0.00011691
2.961e-08
-2.24817e-06
0.000120871
-1.1581e-06
-2.24834e-06
0.000120873
-2.13847e-06
-2.17755e-06
0.000116918
-2.70068e-06
-2.00115e-06
0.000108853
-2.74469e-06
-1.72478e-06
9.66523e-05
-1.37309e-06
8.05267e-05
-2.30533e-06
2.55438e-06
-1.72992e-06
7.36648e-05
-2.15638e-06
2.51751e-06
-2.1588e-06
8.90889e-05
2.01712e-06
-2.50161e-06
0.000100898
1.12844e-06
-2.73426e-06
0.000108841
3.17214e-08
-2.84476e-06
0.000112819
-1.0663e-06
-2.84515e-06
0.000112822
-1.95897e-06
-2.73557e-06
0.00010885
-2.46619e-06
-2.50414e-06
0.000100913
-2.51264e-06
-2.16305e-06
8.91102e-05
-1.73649e-06
7.3692e-05
-2.12663e-06
2.23042e-06
-1.81498e-06
6.4115e-05
-1.90786e-06
2.17677e-06
-2.2151e-06
7.8124e-05
1.74169e-06
-2.54101e-06
8.90903e-05
9.80135e-07
-2.7717e-06
9.66351e-05
3.50378e-08
-2.88841e-06
0.000100475
-9.11583e-07
-2.88898e-06
0.000100479
-1.67771e-06
-2.77355e-06
9.6645e-05
-2.12043e-06
-2.54436e-06
8.91067e-05
-2.18445e-06
-2.22058e-06
7.81465e-05
-1.82269e-06
6.41429e-05
-1.87497e-06
1.83226e-06
5.26695e-05
-1.60558e-06
-1.61811e-06
1.7504e-06
6.41163e-05
-1.89635e-06
1.39101e-06
7.36676e-05
-2.14652e-06
7.86832e-07
8.05049e-05
-2.32451e-06
3.95666e-08
8.40612e-05
-2.41551e-06
-7.09595e-07
8.4065e-05
-2.41612e-06
-1.31934e-06
8.0516e-05
-2.3265e-06
-1.68797e-06
7.36856e-05
-2.14984e-06
-1.78186e-06
6.41401e-05
-1.90202e-06
5.26975e-05
-1.58281e-06
-1.61247e-06
3.85325e-07
3.13435e-07
5.24615e-05
-2.66165e-07
-2.13729e-07
4.44125e-07
4.58967e-07
6.39013e-05
-2.9208e-07
4.02141e-07
5.94052e-07
7.35006e-05
-3.74552e-07
2.63482e-07
6.97405e-07
8.03967e-05
-4.40192e-07
6.45372e-08
7.52589e-07
8.39936e-05
-4.75766e-07
-1.37472e-07
7.53798e-07
8.40005e-05
-4.76935e-07
-2.85116e-07
7.01327e-07
8.04171e-05
-4.44055e-07
-3.42026e-07
6.01219e-07
7.35335e-05
-3.81143e-07
-3.02586e-07
4.70759e-07
6.39446e-05
-3.03347e-07
3.30312e-07
5.25118e-05
-2.07829e-07
-2.27944e-07
5.2189e-07
3.59036e-07
6.38962e-05
-3.39369e-07
6.11698e-07
5.37817e-07
7.79641e-05
5.49565e-07
6.96309e-07
8.90586e-05
3.4579e-07
8.13231e-07
9.67311e-05
5.73897e-08
8.73066e-07
0.000100651
-2.33506e-07
8.74021e-07
0.000100657
-4.44754e-07
8.16396e-07
9.67495e-05
-5.1932e-07
7.02368e-07
8.90889e-05
-4.46308e-07
5.48042e-07
7.80055e-05
3.74922e-07
6.39468e-05
-2.85009e-07
6.48579e-07
3.08196e-07
7.34887e-05
-4.14571e-07
7.61289e-07
4.68288e-07
8.90521e-05
6.79486e-07
6.07515e-07
0.000101074
4.17816e-07
7.07173e-07
0.000109214
5.20266e-08
7.54009e-07
0.000113309
-3.15919e-07
7.54619e-07
0.000113314
-5.84175e-07
7.09361e-07
0.000109231
-6.77157e-07
6.11999e-07
0.000101102
-5.80022e-07
4.7627e-07
8.90916e-05
3.21398e-07
7.35385e-05
-3.65554e-07
7.46438e-07
1.65986e-07
8.03766e-05
-4.76226e-07
8.72332e-07
2.6097e-07
9.67172e-05
7.73193e-07
3.42191e-07
0.000109207
4.69197e-07
3.99376e-07
0.000117525
4.85897e-08
4.22915e-07
0.000121625
-3.73962e-07
4.2323e-07
0.00012163
-6.84027e-07
4.00678e-07
0.00011754
-7.93642e-07
3.45033e-07
0.000109234
-6.8238e-07
2.66262e-07
9.67551e-05
1.74999e-07
8.04254e-05
-4.30045e-07
7.9814e-07
-3.18836e-08
8.39643e-05
-5.08696e-07
9.28821e-07
-2.73251e-08
0.000100629
8.16967e-07
-2.41572e-08
0.000113295
4.89907e-07
-2.22045e-08
0.000121619
4.69277e-08
-2.12247e-08
0.000125585
-3.97787e-07
-2.10357e-08
0.000125589
-7.30695e-07
-2.15621e-08
0.000121632
-8.52793e-07
-2.28115e-08
0.00011332
-7.36396e-07
-2.48202e-08
0.000100666
-2.75678e-08
8.40125e-05
-4.64234e-07
7.97668e-07
-2.283e-07
8.39613e-05
-5.08166e-07
9.28505e-07
-3.14468e-07
0.000100627
8.16807e-07
-3.89516e-07
0.000113293
4.89853e-07
-4.42895e-07
0.000121617
4.68844e-08
-4.64576e-07
0.000125583
-3.97819e-07
-4.64514e-07
0.000125587
-7.3063e-07
-4.42917e-07
0.00012163
-8.52598e-07
-3.89679e-07
0.000113318
-7.36078e-07
-3.14775e-07
0.000100663
-2.28765e-07
8.40095e-05
-4.63883e-07
7.44853e-07
-3.66234e-07
8.03676e-05
-4.74434e-07
8.71226e-07
-5.18328e-07
9.67093e-05
7.72542e-07
-6.51823e-07
0.0001092
4.6887e-07
-7.47915e-07
0.000117518
4.8436e-08
-7.92995e-07
0.000121619
-3.73956e-07
-7.93234e-07
0.000121624
-6.83735e-07
-7.48831e-07
0.000117533
-7.9297e-07
-6.53649e-07
0.000109227
-6.81342e-07
-5.21418e-07
9.67472e-05
-3.71151e-07
8.04166e-05
-4.28873e-07
6.45537e-07
-4.09907e-07
7.34742e-05
-4.11438e-07
7.58993e-07
-5.82083e-07
8.9039e-05
6.77962e-07
-7.35484e-07
0.000101062
4.16938e-07
-8.49178e-07
0.000109203
5.16416e-08
-9.07365e-07
0.000113298
-3.15835e-07
-9.07951e-07
0.000113304
-5.83522e-07
-8.51087e-07
0.00010922
-6.7587e-07
-7.38951e-07
0.00010109
-5.7815e-07
-5.87612e-07
8.90785e-05
-4.18069e-07
7.35243e-05
-3.6361e-07
5.16529e-07
-3.54905e-07
6.38771e-05
-3.33775e-07
6.07438e-07
-4.95371e-07
7.79463e-05
5.46464e-07
-6.26049e-07
8.90418e-05
3.43844e-07
-7.26647e-07
9.67151e-05
5.65043e-08
-7.80365e-07
0.000100635
-2.33367e-07
-7.81221e-07
0.000100642
-4.43572e-07
-7.29368e-07
9.67333e-05
-5.17147e-07
-6.30785e-07
8.9072e-05
-4.43228e-07
-5.0284e-07
7.79877e-05
-3.64962e-07
6.39281e-05
-2.81627e-07
3.77156e-07
5.24392e-05
-2.43108e-07
-2.58725e-07
4.36901e-07
6.38794e-05
-3.18315e-07
3.96416e-07
7.34794e-05
-3.97396e-07
2.597e-07
8.0376e-05
-4.61172e-07
6.27439e-08
8.39733e-05
-4.95611e-07
-1.37317e-07
8.39802e-05
-4.96475e-07
-2.83137e-07
8.03964e-05
-4.63998e-07
-3.38649e-07
7.35123e-05
-4.01988e-07
-2.98269e-07
6.39229e-05
-3.26074e-07
5.24901e-05
-2.03811e-07
-2.52039e-07
4.8706e-07
3.76809e-07
5.2374e-05
-4.28138e-07
-3.48446e-07
4.73403e-07
4.67934e-07
6.38634e-05
-4.16555e-07
3.96591e-07
5.43212e-07
7.35108e-05
-4.76841e-07
2.63197e-07
5.97169e-07
8.04514e-05
-5.18779e-07
9.52432e-08
6.25697e-07
8.40769e-05
-5.41223e-07
-7.73021e-08
6.27645e-07
8.40882e-05
-5.42987e-07
-2.2415e-07
6.03377e-07
8.04849e-05
-5.24531e-07
-3.23259e-07
5.54261e-07
7.35646e-05
-4.86472e-07
-3.65771e-07
4.85457e-07
6.39341e-05
-4.32616e-07
4.00889e-07
5.24559e-05
-3.43021e-07
-3.67932e-07
5.65804e-07
3.42259e-07
6.38543e-05
-4.89581e-07
5.547e-07
4.39319e-07
7.80037e-05
4.60814e-07
5.18888e-07
8.91766e-05
2.94703e-07
5.75273e-07
9.69189e-05
8.60144e-08
6.03806e-07
0.000100881
-1.2647e-07
6.05458e-07
0.000100892
-3.03919e-07
5.80619e-07
9.69495e-05
-4.1664e-07
5.28755e-07
8.9227e-05
-4.53161e-07
4.55192e-07
7.80722e-05
3.6567e-07
6.39376e-05
-4.08872e-07
6.28659e-07
2.51481e-07
7.34899e-05
-5.39242e-07
6.2093e-07
3.33721e-07
8.91652e-05
5.14034e-07
4.01005e-07
0.000101299
3.20806e-07
4.474e-07
0.000109535
7.86223e-08
4.68418e-07
0.000113686
-1.66851e-07
4.69591e-07
0.000113696
-3.70106e-07
4.51397e-07
0.000109563
-4.94007e-07
4.08763e-07
0.000101346
-5.25402e-07
3.46697e-07
8.92313e-05
2.71575e-07
7.35727e-05
-4.65607e-07
6.74056e-07
1.12543e-07
8.04164e-05
-5.75149e-07
6.67984e-07
1.62105e-07
9.68948e-05
5.50894e-07
2.02147e-07
0.000109523
3.38234e-07
2.28902e-07
0.000117956
7.35806e-08
2.39081e-07
0.000122119
-1.94013e-07
2.39802e-07
0.000122127
-4.15895e-07
2.31555e-07
0.000117981
-5.48897e-07
2.07498e-07
0.000109568
-5.77188e-07
1.71269e-07
9.69587e-05
1.26882e-07
8.04982e-05
-5.0542e-07
6.96786e-07
-5.36881e-08
8.40262e-05
-5.92637e-07
6.90767e-07
-4.63071e-08
0.000100843
5.66559e-07
-4.07786e-08
0.000113662
3.43456e-07
-3.71663e-08
0.000122108
7.08851e-08
-3.5238e-08
0.000126132
-2.04279e-07
-3.47364e-08
0.000126139
-4.36245e-07
-3.5561e-08
0.000122131
-5.75971e-07
-3.77248e-08
0.000113705
-6.03597e-07
-4.12347e-08
0.000100906
-4.59848e-08
8.41072e-05
-5.25576e-07
6.95534e-07
-2.1753e-07
8.40208e-05
-5.91438e-07
6.89715e-07
-2.52823e-07
0.000100839
5.65772e-07
-2.82094e-07
0.000113658
3.42889e-07
-3.01805e-07
0.000122104
7.0398e-08
-3.083e-07
0.000126129
-2.04685e-07
-3.08021e-07
0.000126136
-4.3643e-07
-3.01252e-07
0.000122128
-5.75884e-07
-2.81344e-07
0.000113701
-6.03253e-07
-2.51873e-07
0.000100901
-2.1657e-07
8.41018e-05
-5.25122e-07
6.70005e-07
-3.49434e-07
8.04006e-05
-5.71212e-07
6.64534e-07
-4.1875e-07
9.68806e-05
5.48218e-07
-4.76033e-07
0.00010951
3.3623e-07
-5.15812e-07
0.000117944
7.20316e-08
-5.33316e-07
0.000122108
-1.95111e-07
-5.33494e-07
0.000122116
-4.1633e-07
-5.16598e-07
0.00011797
-5.48528e-07
-4.77703e-07
0.000109555
-5.76045e-07
-4.21731e-07
9.69445e-05
-3.54575e-07
8.04823e-05
-5.03885e-07
6.21221e-07
-4.28342e-07
7.34642e-05
-5.32466e-07
6.14351e-07
-5.14788e-07
8.91418e-05
5.08709e-07
-5.85498e-07
0.000101277
3.16749e-07
-6.35887e-07
0.000109515
7.5675e-08
-6.61105e-07
0.000113667
-1.68691e-07
-6.61761e-07
0.000113676
-3.7067e-07
-6.3803e-07
0.000109543
-4.93203e-07
-5.8937e-07
0.000101324
-5.23331e-07
-5.20981e-07
8.92078e-05
-4.37647e-07
7.3547e-05
-4.63105e-07
5.53536e-07
-4.47219e-07
6.38205e-05
-4.78105e-07
5.4362e-07
-5.3028e-07
7.79715e-05
4.51513e-07
-5.97927e-07
8.91462e-05
2.8753e-07
-6.46785e-07
9.68898e-05
8.10081e-08
-6.72355e-07
0.000100853
-1.2928e-07
-6.73337e-07
0.000100863
-3.04485e-07
-6.49908e-07
9.69203e-05
-4.15066e-07
-6.03312e-07
8.91964e-05
-4.49616e-07
-5.38791e-07
7.804e-05
-4.58649e-07
6.39037e-05
-4.04356e-07
4.69307e-07
5.23343e-05
-3.9846e-07
-4.13281e-07
4.56163e-07
6.38239e-05
-4.61747e-07
3.81419e-07
7.34723e-05
-5.16189e-07
2.51402e-07
8.04139e-05
-5.5469e-07
8.72487e-08
8.40399e-05
-5.74841e-07
-8.13742e-08
8.40511e-05
-5.75771e-07
-2.24436e-07
8.04472e-05
-5.57778e-07
-3.20464e-07
7.3526e-05
-5.21142e-07
-3.60714e-07
6.38947e-05
-4.70404e-07
5.24165e-05
-3.3778e-07
-4.08054e-07
1.60342e-07
1.62187e-08
5.23162e-05
-1.10692e-07
-8.22739e-09
1.90814e-07
5.32849e-08
6.38069e-05
-2.742e-08
1.93841e-07
8.90473e-08
7.34696e-05
-5.09834e-08
1.69383e-07
1.16596e-07
8.0428e-05
-6.88932e-08
1.25913e-07
1.32468e-07
8.40675e-05
-7.97896e-08
7.60741e-08
1.34826e-07
8.40848e-05
-8.18051e-08
3.29808e-08
1.23923e-07
8.04793e-05
-7.5366e-08
5.42014e-09
1.01483e-07
7.35519e-05
-6.13836e-08
-3.28927e-09
7.18954e-08
6.3915e-05
-4.42672e-08
3.98876e-08
5.24412e-05
-1.76365e-09
-2.67935e-08
1.85858e-07
1.74228e-08
6.37921e-05
-1.24966e-07
2.21074e-07
6.31485e-08
7.79584e-05
2.18015e-07
1.04256e-07
8.91643e-05
1.78982e-07
1.35348e-07
9.6939e-05
1.16537e-07
1.52557e-07
0.000100924
4.87205e-08
1.54616e-07
0.00010094
-6.31881e-09
1.41782e-07
9.69865e-05
-3.58068e-08
1.15465e-07
8.92423e-05
-3.59753e-08
7.99097e-08
7.80642e-05
4.01521e-08
6.392e-05
-1.87236e-08
2.07757e-07
6.62195e-10
7.34354e-05
-1.36715e-07
2.4709e-07
4.30736e-08
8.91459e-05
2.39188e-07
8.0373e-08
0.00010133
1.87377e-07
1.08217e-07
0.000109614
1.08037e-07
1.22861e-07
0.000113795
2.39907e-08
1.24338e-07
0.00011381
-4.20754e-08
1.12994e-07
0.000109658
-7.39991e-08
8.90034e-08
0.000101404
-6.7835e-08
5.63029e-08
8.92486e-05
1.92531e-08
7.35634e-05
-3.77658e-08
2.24869e-07
-3.17901e-08
8.03715e-05
-1.47678e-07
2.66492e-07
-3.92041e-09
9.69e-05
2.54936e-07
2.04715e-08
0.000109594
1.93827e-07
3.87447e-08
0.000118086
1.0157e-07
4.80386e-08
0.000122286
5.09092e-09
4.89115e-08
0.000122299
-6.91057e-08
4.17329e-08
0.000118127
-1.03079e-07
2.59574e-08
0.000109665
-9.25497e-08