/*--------------------------------*- C++ -*----------------------------------*\
| =========                 |                                                 |
| \\      /  F ield         | OpenFOAM: The Open Source CFD Toolbox           |
|  \\    /   O peration     | Version:  2406                                  |
|   \\  /    A nd           | Website:  www.openfoam.com                      |
|    \\/     M anipulation  |                                                 |
\*---------------------------------------------------------------------------*/
FoamFile
{
    version     2.0;
    format      ascii;
    arch        "LSB;label=32;scalar=64";
    class       volSymmTensorField;
    location    "1.1";
    object      turbulenceProperties:devReff;
}
// * * * * * * * * * * * * * * * * * * * * * * * * * * * * * * * * * * * * * //

dimensions      [0 2 -2 0 0 0 0];

internalField   nonuniform List<symmTensor> 
25000
(
(0.0299556 -0.0224529 -0.0712226 0.0299561 -0.0712208 -0.0599118)
(0.0517349 -0.0117212 -0.0452872 0.0323426 -0.0646232 -0.0840774)
(0.0592714 -0.00642982 -0.0276454 0.0382213 -0.0555016 -0.0974926)
(0.0629753 -0.00293728 -0.0148567 0.0419236 -0.0491097 -0.104899)
(0.0645702 -0.000868884 -0.00467054 0.0437116 -0.0459713 -0.108282)
(0.0645703 0.00086928 0.00466734 0.0437117 -0.0459713 -0.108282)
(0.0629757 0.00293762 0.0148536 0.041924 -0.0491097 -0.1049)
(0.059272 0.00642999 0.0276424 0.0382219 -0.0555017 -0.097494)
(0.051736 0.0117211 0.0452845 0.0323435 -0.0646234 -0.0840795)
(0.0299572 0.0224524 0.0712203 0.0299572 -0.0712211 -0.0599145)
(0.032342 -0.0117212 -0.0646248 0.0517353 -0.0452851 -0.0840773)
(0.0533616 -0.00548241 -0.0363889 0.0533621 -0.036387 -0.106724)
(0.0599931 -0.00298867 -0.0199677 0.0562601 -0.0302347 -0.116253)
(0.0628628 -0.00133075 -0.0100336 0.0578617 -0.0263907 -0.120725)
(0.0639851 -0.000367635 -0.00305428 0.0585799 -0.0245572 -0.122565)
(0.0639852 0.000367896 0.00305147 0.0585799 -0.0245573 -0.122565)
(0.0628632 0.00133098 0.0100308 0.0578618 -0.0263907 -0.120725)
(0.0599937 0.00298883 0.019965 0.0562604 -0.0302348 -0.116254)
(0.0533626 0.00548245 0.0363864 0.0533626 -0.0363872 -0.106725)
(0.0323435 0.011721 0.0646227 0.051736 -0.0452853 -0.0840795)
(0.0382206 -0.00642996 -0.0555031 0.0592716 -0.0276432 -0.0974922)
(0.0562595 -0.00298873 -0.0302365 0.0599935 -0.0199657 -0.116253)
(0.0618146 -0.0015801 -0.0158062 0.061815 -0.0158044 -0.12363)
(0.0638582 -0.00065728 -0.00756172 0.0628409 -0.0135035 -0.126699)
(0.0645092 -0.000165236 -0.00223551 0.0632815 -0.0124678 -0.127791)
(0.0645093 0.0001654 0.00223296 0.0632815 -0.0124677 -0.127791)
(0.0638586 0.000657425 0.00755918 0.062841 -0.0135035 -0.1267)
(0.0618152 0.00158021 0.0158038 0.0618152 -0.0158044 -0.12363)
(0.0562605 0.00298878 0.0302341 0.0599937 -0.0199658 -0.116254)
(0.038222 0.00642983 0.0555011 0.0592721 -0.0276433 -0.0974941)
(0.0419228 -0.00293747 -0.0491111 0.0629754 -0.0148545 -0.104898)
(0.0578609 -0.00133084 -0.0263923 0.0628631 -0.0100316 -0.120724)
(0.0628404 -0.000657314 -0.0135052 0.0638585 -0.00755988 -0.126699)
(0.0644332 -0.000235784 -0.00630133 0.0644335 -0.00629959 -0.128867)
(0.0648102 -4.81373e-05 -0.00183341 0.0646727 -0.00576696 -0.129483)
(0.0648103 4.82376e-05 0.00183102 0.0646727 -0.00576695 -0.129483)
(0.0644336 0.000235875 0.00629894 0.0644335 -0.00629958 -0.128867)
(0.0628411 0.000657388 0.0135029 0.0638586 -0.00755986 -0.1267)
(0.057862 0.00133089 0.0263901 0.0628632 -0.0100316 -0.120725)
(0.0419242 0.0029374 0.0491092 0.0629757 -0.0148545 -0.1049)
(0.0437106 -0.000869035 -0.0459726 0.0645702 -0.00466827 -0.108281)
(0.0585791 -0.000367727 -0.0245588 0.0639852 -0.00305226 -0.122564)
(0.0632809 -0.00016529 -0.0124694 0.0645093 -0.00223366 -0.12779)
(0.0646724 -4.81659e-05 -0.00576865 0.0648104 -0.00183166 -0.129483)
(0.0649266 -6.28699e-06 -0.00166972 0.0649267 -0.00166802 -0.129853)
(0.0649267 6.32674e-06 0.0016674 0.0649267 -0.00166801 -0.129853)
(0.0646728 4.82077e-05 0.00576634 0.0648103 -0.00183165 -0.129483)
(0.0632816 0.000165337 0.0124671 0.0645093 -0.00223364 -0.127791)
(0.0585801 0.000367777 0.0245567 0.0639852 -0.00305224 -0.122565)
(0.043712 0.000869068 0.0459708 0.0645704 -0.00466825 -0.108282)
(0.0437105 0.000869198 -0.0459726 0.0645701 0.00466957 -0.108281)
(0.058579 0.000367818 -0.0245588 0.0639851 0.00305347 -0.122564)
(0.0632809 0.000165336 -0.0124694 0.0645093 0.0022348 -0.12779)
(0.0646724 4.81852e-05 -0.00576864 0.0648103 0.00183276 -0.129483)
(0.0649266 6.2943e-06 -0.00166972 0.0649267 0.0016691 -0.129853)
(0.0649267 -6.32066e-06 0.0016674 0.0649266 0.0016691 -0.129853)
(0.0646728 -4.81958e-05 0.00576634 0.0648103 0.00183277 -0.129483)
(0.0632816 -0.00016532 0.0124671 0.0645093 0.00223482 -0.127791)
(0.0585801 -0.000367766 0.0245567 0.0639851 0.00305351 -0.122565)
(0.0437119 -0.000869087 0.0459708 0.0645703 0.00466964 -0.108282)
(0.0419226 0.00293764 -0.049111 0.0629752 0.0148557 -0.104898)
(0.0578609 0.00133094 -0.0263922 0.0628629 0.0100328 -0.120724)
(0.0628404 0.000657359 -0.0135052 0.0638583 0.00756101 -0.126699)
(0.0644332 0.000235803 -0.00630132 0.0644333 0.00630068 -0.128867)
(0.0648102 4.81408e-05 -0.0018334 0.0646725 0.00576803 -0.129483)
(0.0648104 -4.82381e-05 0.00183102 0.0646725 0.00576803 -0.129483)
(0.0644336 -0.000235872 0.00629895 0.0644333 0.00630069 -0.128867)
(0.0628411 -0.000657382 0.0135029 0.0638583 0.00756102 -0.126699)
(0.0578619 -0.00133089 0.0263901 0.062863 0.0100328 -0.120725)
(0.0419241 -0.00293745 0.0491092 0.0629755 0.0148559 -0.1049)
(0.0382203 0.00643017 -0.055503 0.0592713 0.0276444 -0.0974916)
(0.0562593 0.00298883 -0.0302364 0.0599931 0.0199669 -0.116252)
(0.0618145 0.00158014 -0.0158062 0.0618147 0.0158055 -0.123629)
(0.0638582 0.000657296 -0.00756169 0.0628406 0.0135046 -0.126699)
(0.0645092 0.000165235 -0.00223549 0.0632811 0.0124688 -0.12779)
(0.0645094 -0.000165411 0.00223297 0.0632811 0.0124688 -0.12779)
(0.0638586 -0.000657438 0.00755919 0.0628406 0.0135046 -0.126699)
(0.0618152 -0.00158022 0.0158038 0.0618147 0.0158056 -0.12363)
(0.0562604 -0.0029888 0.0302341 0.0599933 0.019967 -0.116254)
(0.0382218 -0.00642993 0.0555011 0.0592717 0.0276446 -0.0974935)
(0.0323417 0.0117215 -0.0646247 0.0517347 0.0452862 -0.0840764)
(0.0533614 0.00548254 -0.0363888 0.0533616 0.0363881 -0.106723)
(0.059993 0.00298873 -0.0199676 0.0562595 0.0302358 -0.116253)
(0.0628628 0.00133078 -0.0100335 0.0578611 0.0263917 -0.120724)
(0.0639851 0.000367634 -0.00305425 0.0585793 0.0245582 -0.122564)
(0.0639852 -0.000367919 0.00305148 0.0585793 0.0245582 -0.122565)
(0.0628633 -0.00133102 0.0100308 0.0578612 0.0263917 -0.120724)
(0.0599937 -0.00298889 0.019965 0.0562597 0.0302358 -0.116253)
(0.0533626 -0.00548254 0.0363864 0.0533619 0.0363883 -0.106724)
(0.0323432 -0.0117212 0.0646227 0.0517353 0.0452865 -0.0840785)
(0.0299553 0.0224532 -0.0712224 0.0299554 0.0712217 -0.0599106)
(0.0517346 0.0117214 -0.0452871 0.0323418 0.0646241 -0.0840764)
(0.0592712 0.00642993 -0.0276453 0.0382205 0.0555024 -0.0974917)
(0.0629752 0.00293735 -0.0148567 0.0419228 0.0491105 -0.104898)
(0.0645702 0.000868898 -0.00467049 0.0437108 0.0459721 -0.108281)
(0.0645703 -0.000869319 0.00466736 0.0437109 0.0459721 -0.108281)
(0.0629756 -0.00293771 0.0148536 0.0419232 0.0491106 -0.104899)
(0.059272 -0.00643013 0.0276424 0.038221 0.0555025 -0.097493)
(0.0517358 -0.0117213 0.0452844 0.0323426 0.0646243 -0.0840784)
(0.0299569 -0.0224527 0.0712202 0.0299563 0.071222 -0.0599132)
(-0.000349152 -0.0176335 -0.109336 -0.000347148 -0.109332 0.000696299)
(0.0130338 -0.0158512 -0.0753269 0.000863934 -0.107227 -0.0138977)
(0.0225305 -0.0121465 -0.04772 0.00293083 -0.0951931 -0.0254613)
(0.029798 -0.00758606 -0.0260309 0.00446545 -0.0852106 -0.0342635)
(0.0334953 -0.00254304 -0.00822566 0.00529197 -0.0798868 -0.0387873)
(0.033496 0.00254503 0.00821755 0.00529271 -0.0798866 -0.0387887)
(0.0298001 0.00758774 0.0260229 0.00446765 -0.0852099 -0.0342677)
(0.022534 0.0121475 0.0477122 0.00293428 -0.0951921 -0.0254683)
(0.0130392 0.0158513 0.0753195 0.000868307 -0.107226 -0.0139075)
(-0.000341982 0.0176321 0.10933 -0.000342495 -0.109331 0.000684476)
(0.000862142 -0.0158516 -0.107231 0.013035 -0.0753224 -0.0138972)
(0.0167949 -0.0142713 -0.063701 0.0167965 -0.0636968 -0.0335914)
(0.0286905 -0.010681 -0.0347568 0.0200793 -0.0526363 -0.0487698)
(0.0365367 -0.0064787 -0.0168886 0.0221462 -0.0444194 -0.0586828)
(0.0401439 -0.00215541 -0.00500219 0.0231482 -0.0401299 -0.0632922)
(0.0401445 0.00215692 0.00499513 0.0231487 -0.0401297 -0.0632932)
(0.0365386 0.00648001 0.0168815 0.0221476 -0.0444189 -0.0586861)
(0.0286939 0.0106819 0.0347498 0.0200816 -0.0526356 -0.0487755)
(0.0168002 0.0142717 0.0636942 0.0167997 -0.0636959 -0.0335999)
(0.000868753 0.015851 0.107225 0.013039 -0.0753214 -0.0139077)
(0.00292846 -0.0121473 -0.0951963 0.0225306 -0.0477151 -0.0254591)
(0.0200772 -0.0106813 -0.0526403 0.0286912 -0.0347523 -0.0487684)
(0.0326113 -0.00764428 -0.0257217 0.0326124 -0.0257175 -0.0652238)
(0.0398853 -0.00449341 -0.0110646 0.0346346 -0.0198729 -0.0745199)
(0.0430411 -0.00147965 -0.0030094 0.0355699 -0.0170101 -0.0786111)
(0.0430417 0.00148071 0.00300322 0.0355702 -0.01701 -0.0786119)
(0.039887 0.00449436 0.0110584 0.0346355 -0.0198726 -0.0745225)
(0.0326145 0.00764499 0.0257154 0.0326141 -0.025717 -0.0652286)
(0.0200823 0.0106817 0.052634 0.0286937 -0.0347516 -0.048776)
(0.00293502 0.012147 0.0951908 0.022534 -0.0477143 -0.0254691)
(0.00446225 -0.00758723 -0.0852139 0.0297975 -0.0260257 -0.0342597)
(0.0221435 -0.00647934 -0.0444233 0.0365368 -0.0168839 -0.0586803)
(0.034633 -0.0044937 -0.0198768 0.0398858 -0.0110604 -0.0745188)
(0.0415434 -0.00260263 -0.00758355 0.0415442 -0.00757962 -0.0830876)
(0.0445161 -0.00085615 -0.00184472 0.0423562 -0.00592199 -0.0868723)
(0.0445166 0.000856814 0.00183914 0.0423563 -0.00592192 -0.086873)
(0.041545 0.00260325 0.00757787 0.0415447 -0.00757942 -0.0830897)
(0.034636 0.00449418 0.019871 0.0398869 -0.0110601 -0.0745229)
(0.0221485 0.00647961 0.0444174 0.0365386 -0.0168834 -0.058687)
(0.00446875 0.00758701 0.0852086 0.0298003 -0.0260251 -0.0342691)
(0.00528778 -0.00254419 -0.0798903 0.033494 -0.00822017 -0.0387818)
(0.023145 -0.0021562 -0.0401338 0.0401434 -0.00499734 -0.0632884)
(0.0355679 -0.00148015 -0.017014 0.043041 -0.0030051 -0.0786089)
(0.0423551 -0.000856388 -0.0059258 0.0445162 -0.0018408 -0.0868713)
(0.0452755 -0.00028273 -0.00129453 0.0452758 -0.00129077 -0.0905514)
(0.0452761 0.00028302 0.00128924 0.045276 -0.00129074 -0.090552)
(0.0423567 0.000856677 0.00592041 0.0445166 -0.00184071 -0.0868733)
(0.0355709 0.00148042 0.0170085 0.0430417 -0.00300496 -0.0786127)
(0.0231498 0.00215642 0.0401282 0.0401448 -0.00499714 -0.0632946)
(0.00529426 0.00254428 0.0798852 0.0334965 -0.00821989 -0.0387908)
(0.00528752 0.00254407 -0.0798903 0.0334938 0.00822322 -0.0387813)
(0.0231448 0.0021561 -0.0401339 0.0401431 0.00500012 -0.063288)
(0.0355678 0.00148008 -0.017014 0.0430408 0.00300762 -0.0786086)
(0.042355 0.00085637 -0.00592582 0.044516 0.00184313 -0.086871)
(0.0452755 0.000282789 -0.00129453 0.0452756 0.00129302 -0.0905511)
(0.045276 -0.000282866 0.00128926 0.0452757 0.00129301 -0.0905517)
(0.0423567 -0.000856413 0.00592044 0.0445164 0.00184311 -0.086873)
(0.0355708 -0.00148004 0.0170085 0.0430415 0.0030076 -0.0786123)
(0.0231497 -0.00215595 0.0401282 0.0401445 0.0050001 -0.0632942)
(0.00529397 -0.00254373 0.0798853 0.0334962 0.00822322 -0.0387902)
(0.00446149 0.0075872 -0.0852141 0.0297967 0.0260287 -0.0342582)
(0.022143 0.00647929 -0.0444234 0.036536 0.0168866 -0.058679)
(0.0346327 0.00449366 -0.0198769 0.0398851 0.0110629 -0.0745178)
(0.0415432 0.00260263 -0.00758358 0.0415435 0.00758199 -0.0830866)
(0.0445159 0.000856212 -0.00184472 0.0423554 0.00592428 -0.0868714)
(0.0445165 -0.000856669 0.00183918 0.0423556 0.00592423 -0.0868721)
(0.0415448 -0.002603 0.00757795 0.041544 0.00758186 -0.0830888)
(0.0346357 -0.00449386 0.0198711 0.0398861 0.0110627 -0.0745218)
(0.022148 -0.00647921 0.0444176 0.0365377 0.0168864 -0.0586856)
(0.0044679 -0.00758658 0.0852089 0.0297994 0.0260284 -0.0342673)
(0.00292729 0.0121475 -0.0951966 0.0225293 0.047718 -0.0254566)
(0.0200763 0.0106814 -0.0526405 0.0286899 0.0347551 -0.0487662)
(0.0326107 0.00764431 -0.0257218 0.0326111 0.0257201 -0.0652218)
(0.0398849 0.00449345 -0.0110646 0.0346333 0.0198753 -0.0745182)
(0.0430408 0.00147973 -0.00300939 0.0355686 0.0170124 -0.0786094)
(0.0430414 -0.00148058 0.00300329 0.0355688 0.0170124 -0.0786102)
(0.0398866 -0.00449417 0.0110585 0.0346341 0.0198751 -0.0745207)
(0.0326139 -0.00764475 0.0257156 0.0326126 0.0257197 -0.0652265)
(0.0200814 -0.0106814 0.0526343 0.0286921 0.0347546 -0.0487736)
(0.00293368 -0.0121468 0.0951912 0.0225325 0.0477174 -0.0254661)
(0.000860697 0.015852 -0.107231 0.0130329 0.0753251 -0.0138936)
(0.0167938 0.0142715 -0.0637012 0.0167944 0.0636994 -0.0335882)
(0.0286896 0.0106811 -0.0347569 0.0200771 0.0526388 -0.0487667)
(0.0365359 0.00647882 -0.0168886 0.022144 0.0444218 -0.05868)
(0.0401434 0.00215552 -0.00500215 0.023146 0.0401323 -0.0632894)
(0.040144 -0.00215682 0.00499524 0.0231464 0.0401321 -0.0632904)
(0.0365379 -0.00647993 0.0168817 0.0221452 0.0444214 -0.0586831)
(0.028693 -0.0106818 0.0347501 0.0200792 0.0526382 -0.0487722)
(0.016799 -0.0142716 0.0636945 0.0167972 0.0636987 -0.0335962)
(0.000867105 -0.0158512 0.107225 0.0130365 0.0753244 -0.0139036)
(-0.000350578 0.0176342 -0.109336 -0.000349929 0.109334 0.000700506)
(0.0130325 0.0158517 -0.075327 0.000861254 0.107229 -0.0138938)
(0.0225293 0.0121469 -0.0477201 0.00292809 0.0951953 -0.0254574)
(0.029797 0.00758637 -0.0260309 0.00446264 0.0852127 -0.0342596)
(0.0334943 0.0025432 -0.00822559 0.00528909 0.0798889 -0.0387834)
(0.033495 -0.002545 0.0082177 0.00528977 0.0798887 -0.0387848)
(0.029799 -0.00758787 0.0260231 0.00446467 0.0852121 -0.0342636)
(0.0225327 -0.0121477 0.0477125 0.00293126 0.0951943 -0.0254639)
(0.0130378 -0.0158517 0.0753199 0.000865246 0.107228 -0.013903)
(-0.000343703 -0.0176328 0.10933 -0.000345736 0.109334 0.000689439)
(-0.00822883 -0.015605 -0.14905 -0.00822405 -0.149042 0.0164529)
(0.00155084 -0.0119016 -0.115974 -0.00932552 -0.159398 0.00777468)
(0.00737092 -0.00905077 -0.0805786 -0.00846033 -0.153707 0.00108941)
(0.0120074 -0.00567937 -0.047096 -0.00775245 -0.146884 -0.00425496)
(0.0145488 -0.00192609 -0.0154594 -0.00736294 -0.142938 -0.00718585)
(0.0145503 0.00193054 0.0154365 -0.00736134 -0.142937 -0.00718896)
(0.012012 0.00568324 0.0470732 -0.00774777 -0.146881 -0.00426424)
(0.00737864 0.00905321 0.0805563 -0.00845306 -0.153701 0.00107443)
(0.0015628 0.0119024 0.115952 -0.00931642 -0.159391 0.00775362)
(-0.00821312 0.0156028 0.149032 -0.00821438 -0.149036 0.0164275)
(-0.00932936 -0.0119025 -0.159406 0.00155357 -0.115963 0.00777579)
(0.00209703 -0.00974229 -0.111474 0.00210034 -0.111464 -0.00419737)
(0.00979415 -0.00759974 -0.0712873 0.00392798 -0.103804 -0.0137221)
(0.0157382 -0.0048018 -0.0395979 0.00531033 -0.0973313 -0.0210485)
(0.0189153 -0.0016366 -0.0126876 0.00606886 -0.0938043 -0.0249842)
(0.0189168 0.0016403 0.0126682 0.00607002 -0.0938035 -0.0249869)
(0.0157428 0.00480508 0.0395784 0.00531376 -0.0973288 -0.0210565)
(0.00980176 0.00760219 0.0712678 0.00393343 -0.1038 -0.0137352)
(0.00210835 0.00974366 0.111455 0.00210738 -0.111459 -0.00421573)
(-0.00931547 0.0119018 0.159388 0.00156225 -0.115957 0.00775322)
(-0.00846518 -0.00905252 -0.153714 0.00737112 -0.0805662 0.00109406)
(0.00392374 -0.00760054 -0.103814 0.00979545 -0.0712762 -0.0137192)
(0.0129897 -0.00582785 -0.064294 0.012992 -0.0642835 -0.0259817)
(0.0198419 -0.00363314 -0.0347169 0.015328 -0.0594786 -0.0351699)
(0.0234335 -0.00123347 -0.0109378 0.0165649 -0.0569911 -0.0399984)
(0.023435 0.00123635 0.0109204 0.0165659 -0.0569906 -0.0400009)
(0.0198465 0.00363568 0.0346995 0.0153309 -0.059477 -0.0351773)
(0.0129974 0.00582978 0.0642766 0.0129965 -0.0642808 -0.0259939)
(0.00393494 0.00760168 0.103796 0.00980141 -0.0712723 -0.0137364)
(-0.0084515 0.00905205 0.153698 0.0073789 -0.0805615 0.0010726)
(-0.00775898 -0.00568195 -0.146893 0.012006 -0.0470822 -0.00424707)
(0.00530475 -0.00480336 -0.0973412 0.015738 -0.0395858 -0.0210427)
(0.0153245 -0.00363392 -0.059489 0.0198425 -0.0347056 -0.035167)
(0.0227418 -0.00224507 -0.0316243 0.0227435 -0.0316135 -0.0454854)
(0.0265154 -0.000759833 -0.00984981 0.0241648 -0.0300435 -0.0506802)
(0.0265169 0.000761764 0.00983379 0.0241655 -0.0300432 -0.0506824)
(0.0227465 0.00224678 0.0316082 0.0227457 -0.0316126 -0.0454922)
(0.0153323 0.00363523 0.0594729 0.0198462 -0.034704 -0.0351785)
(0.00531593 0.00480413 0.0973249 0.0157429 -0.0395834 -0.0210588)
(-0.00774537 0.00568161 0.146878 0.0120127 -0.0470791 -0.00426738)
(-0.00737157 -0.00192867 -0.142948 0.0145456 -0.0154444 -0.00717406)
(0.00606173 -0.00163857 -0.0938148 0.0189133 -0.0126747 -0.024975)
(0.01656 -0.00123486 -0.0570018 0.0234323 -0.010926 -0.0399923)
(0.0241621 -0.000760559 -0.0300543 0.0265151 -0.00983867 -0.0506772)
(0.0279105 -0.000257364 -0.00930592 0.0279111 -0.00929507 -0.0558216)
(0.027912 0.000258238 0.00929057 0.0279117 -0.00929496 -0.0558236)
(0.0241667 0.000761368 0.0300389 0.0265169 -0.00983832 -0.0506836)
(0.0165679 0.00123555 0.0569863 0.0234354 -0.0109253 -0.0400034)
(0.00607291 0.0016391 0.0937993 0.0189177 -0.0126736 -0.0249906)
(-0.00735794 0.00192886 0.142933 0.0145517 -0.0154431 -0.00719377)
(-0.00737207 0.00192831 -0.142948 0.014545 0.0154527 -0.00717297)
(0.00606135 0.00163819 -0.093815 0.0189127 0.012682 -0.024974)
(0.0165597 0.00123456 -0.0570019 0.0234317 0.0109328 -0.0399914)
(0.0241618 0.000760442 -0.0300544 0.0265145 0.00984521 -0.0506763)
(0.0279103 0.000257527 -0.00930591 0.0279105 0.00930149 -0.0558208)
(0.0279117 -0.000257751 0.00929062 0.027911 0.00930147 -0.0558228)
(0.0241664 -0.000760562 0.030039 0.0265163 0.00984511 -0.0506826)
(0.0165676 -0.0012345 0.0569865 0.0234348 0.0109326 -0.0400023)
(0.00607247 -0.00163791 0.0937996 0.018917 0.0126816 -0.0249895)
(-0.00735855 -0.00192765 0.142934 0.014551 0.0154523 -0.0071925)
(-0.00776044 0.00568177 -0.146894 0.0120043 0.0470903 -0.00424383)
(0.00530363 0.00480311 -0.0973417 0.0157362 0.0395931 -0.0210398)
(0.0153234 0.00363372 -0.0594893 0.0198407 0.0347124 -0.0351642)
(0.022741 0.00224504 -0.0316244 0.0227416 0.03162 -0.0454826)
(0.0265146 0.000760026 -0.00984979 0.0241629 0.0300499 -0.0506775)
(0.0265161 -0.000761309 0.00983396 0.0241636 0.0300498 -0.0506797)
(0.0227455 -0.00224606 0.0316086 0.0227437 0.0316194 -0.0454893)
(0.0153312 -0.0036343 0.0594735 0.0198442 0.0347113 -0.0351754)
(0.00531462 -0.00480309 0.0973258 0.0157409 0.0395915 -0.0210555)
(-0.00774714 -0.00568061 0.146879 0.0120107 0.0470883 -0.0042636)
(-0.00846739 0.00905278 -0.153716 0.00736815 0.080574 0.00109924)
(0.003922 0.00760055 -0.103815 0.00979247 0.0712834 -0.0137145)
(0.0129881 0.00582786 -0.0642946 0.0129889 0.0642902 -0.025977)
(0.0198405 0.00363324 -0.0347171 0.0153248 0.0594851 -0.0351653)
(0.0234322 0.00123371 -0.0109377 0.0165617 0.0569975 -0.0399939)
(0.0234337 -0.00123595 0.0109208 0.0165625 0.0569971 -0.0399962)
(0.019845 -0.00363512 0.0347001 0.0153275 0.0594838 -0.0351725)
(0.0129956 -0.00582909 0.0642776 0.0129932 0.0642881 -0.0259888)
(0.00393288 -0.00760094 0.103798 0.00979805 0.0712804 -0.0137309)
(-0.00845424 -0.00905156 0.1537 0.00737551 0.0805705 0.00107873)
(-0.00933204 0.0119032 -0.159407 0.00154905 0.11597 0.00778298)
(0.00209489 0.00974259 -0.111475 0.00209593 0.111471 -0.00419082)
(0.00979214 0.00759999 -0.0712881 0.00392354 0.103811 -0.0137157)
(0.0157364 0.00480209 -0.0395982 0.00530579 0.0973377 -0.0210422)
(0.0189136 0.0016369 -0.0126875 0.00606419 0.0938107 -0.0249778)
(0.0189151 -0.00163998 0.0126687 0.00606524 0.09381 -0.0249803)
(0.0157408 -0.00480474 0.0395794 0.00530891 0.0973357 -0.0210497)
(0.00979947 -0.0076018 0.0712693 0.00392851 0.103807 -0.013728)
(0.00210575 -0.00974331 0.111457 0.00210235 0.111467 -0.00420811)
(-0.00931882 -0.0119018 0.15939 0.00155699 0.115966 0.00776184)
(-0.0082314 0.0156065 -0.149051 -0.00823 0.149047 0.0164614)
(0.00154843 0.0119025 -0.115975 -0.00933101 0.159404 0.00778258)
(0.00736846 0.0090515 -0.0805794 -0.00846582 0.153712 0.00109736)
(0.0120051 0.00568001 -0.0470963 -0.00775803 0.14689 -0.00424705)
(0.0145465 0.00192649 -0.0154592 -0.00736867 0.142944 -0.00717782)
(0.0145479 -0.00193038 0.0154373 -0.00736718 0.142943 -0.00718072)
(0.0120094 -0.00568335 0.0470746 -0.00775368 0.146887 -0.00425569)
(0.00737566 -0.00905347 0.0805581 -0.00845907 0.153708 0.0010834)
(0.00155964 -0.0119028 0.115955 -0.0093226 0.159398 0.00776296)
(-0.0082166 -0.015604 0.149034 -0.00822125 0.149043 0.0164379)
(-0.00223021 -0.00431748 -0.153916 -0.00222139 -0.153898 0.0044516)
(0.000149466 -0.00467501 -0.124361 -0.00299959 -0.169417 0.00285013)
(0.00277987 -0.00407165 -0.0893785 -0.00344438 -0.168122 0.000664515)
(0.00509019 -0.0027346 -0.0535866 -0.00368453 -0.164341 -0.00140566)
(0.00640259 -0.000953444 -0.0178413 -0.00377338 -0.161917 -0.00262921)
(0.00640544 0.000962728 0.0177918 -0.00377012 -0.161915 -0.00263532)
(0.00509893 0.00274267 0.0535377 -0.00367498 -0.164333 -0.00142395)
(0.00279475 0.00407681 0.0893307 -0.00342954 -0.16811 0.000634786)
(0.00017288 0.00467671 0.124316 -0.00298096 -0.169401 0.00280808)
(-0.00219924 0.00431329 0.153877 -0.00220157 -0.153885 0.0044008)
(-0.00300633 -0.00467695 -0.169432 0.000154092 -0.124338 0.00285224)
(0.000232807 -0.0049801 -0.125052 0.00023859 -0.125031 -0.000471396)
(0.00409769 -0.00419621 -0.0842187 0.000458529 -0.121134 -0.00455622)
(0.0073167 -0.00275674 -0.0486489 0.000770158 -0.117003 -0.00808685)
(0.00909477 -0.000953032 -0.0159292 0.00100924 -0.114607 -0.010104)
(0.00909763 0.000960769 0.0158873 0.00101162 -0.114605 -0.0101092)
(0.00732536 0.0027636 0.0486071 0.000777172 -0.116998 -0.00810253)
(0.00411224 0.00420138 0.0841769 0.0004697 -0.121125 -0.00458194)
(0.000254695 0.00498307 0.12501 0.00025315 -0.125019 -0.000507845)
(-0.00297942 0.00467552 0.169395 0.000172225 -0.124325 0.00280719)
(-0.00345316 -0.00407554 -0.168138 0.00277943 -0.0893523 0.00067373)
(0.000450818 -0.004198 -0.121154 0.0040996 -0.0841953 -0.00455042)
(0.00525555 -0.00340041 -0.0799468 0.00525943 -0.0799247 -0.010515)
(0.00917445 -0.00216395 -0.045448 0.00629505 -0.0767881 -0.0154695)
(0.0113308 -0.000733364 -0.0147723 0.0069592 -0.0751642 -0.01829)
(0.0113337 0.000739349 0.0147352 0.00696128 -0.075163 -0.0182949)
(0.0091831 0.00216914 0.045411 0.00630099 -0.0767845 -0.0154841)
(0.00527015 0.00340432 0.0799095 0.00526887 -0.0799184 -0.010539)
(0.000472374 0.00420028 0.121117 0.00411204 -0.0841865 -0.00458441)
(-0.00342678 0.00407439 0.168104 0.00279594 -0.0893416 0.000630836)
(-0.0036968 -0.00274038 -0.164359 0.00508676 -0.053557 -0.00138996)
(0.00075966 -0.00276025 -0.117024 0.00731576 -0.0486233 -0.00807542)
(0.00628847 -0.00216573 -0.07681 0.00917527 -0.0454243 -0.0154637)
(0.0107983 -0.00131175 -0.0435459 0.0108013 -0.0435231 -0.0215996)
(0.0133726 -0.000424995 -0.014201 0.0118611 -0.042718 -0.0252337)
(0.0133757 0.000429066 0.0141664 0.0118629 -0.0427174 -0.0252386)
(0.0108074 0.00131509 0.0435119 0.0108061 -0.0435212 -0.0216135)
(0.00630361 0.00216815 0.0767757 0.00918286 -0.0454206 -0.0154865)
(0.000781278 0.00276154 0.116989 0.00732605 -0.0486178 -0.00810733)
(-0.00367042 0.00273924 0.164326 0.00510104 -0.0535502 -0.00143062)
(-0.00379002 -0.000959379 -0.161938 0.00639577 -0.0178087 -0.00260575)
(0.000995514 -0.000957501 -0.114629 0.00909043 -0.0159012 -0.0100859)
(0.00694971 -0.000736506 -0.0751867 0.0113282 -0.014747 -0.0182779)
(0.0118557 -0.000426696 -0.0427407 0.0133717 -0.0141768 -0.0252274)
(0.0148918 -0.00013333 -0.0141473 0.0148929 -0.0141233 -0.0297847)
(0.0148953 0.00013514 0.0141136 0.0148947 -0.0141233 -0.0297901)
(0.0118652 0.000428153 0.0427082 0.013376 -0.0141762 -0.0252413)
(0.00696526 0.000737589 0.0751539 0.0113347 -0.0147456 -0.0183)
(0.00101729 0.000958157 0.114596 0.00909954 -0.0158991 -0.0101168)
(-0.00376343 0.000959167 0.161906 0.00640874 -0.0178059 -0.00264531)
(-0.00379112 0.000957396 -0.161938 0.0063946 0.017827 -0.00260348)
(0.000994714 0.000955967 -0.114629 0.00908926 0.0159173 -0.010084)
(0.00694898 0.000735426 -0.0751869 0.011327 0.0147618 -0.018276)
(0.0118551 0.000426142 -0.0427408 0.0133704 0.014191 -0.0252254)
(0.0148911 0.000133465 -0.0141472 0.0148914 0.0141374 -0.0297826)
(0.0148946 -0.000134219 0.0141136 0.0148932 0.0141376 -0.0297878)
(0.0118645 -0.000426597 0.0427084 0.0133747 0.0141909 -0.0252392)
(0.00696445 -0.000735602 0.0751543 0.0113335 0.0147612 -0.0182979)
(0.0010164 -0.00095589 0.114596 0.00909829 0.0159163 -0.0101147)
(-0.00376462 -0.000956762 0.161907 0.00640746 0.0178257 -0.00264284)
(-0.0037 0.00273882 -0.16436 0.00508322 0.0535749 -0.00138322)
(0.000757325 0.00275901 -0.117025 0.00731222 0.0486391 -0.00806954)
(0.0062864 0.00216492 -0.0768108 0.00917172 0.0454389 -0.0154581)
(0.0107965 0.00131146 -0.0435462 0.0107975 0.0435369 -0.0215941)
(0.0133709 0.000425236 -0.0142009 0.0118571 0.0427315 -0.0252281)
(0.013374 -0.000428287 0.0141667 0.0118589 0.0427312 -0.0252329)
(0.0108055 -0.00131381 0.0435127 0.0108022 0.0435355 -0.0216077)
(0.00630132 -0.00216644 0.0767771 0.00917911 0.0454361 -0.0154804)
(0.000778674 -0.00275957 0.116991 0.00732224 0.048635 -0.00810092)
(-0.00367389 -0.00273726 0.164329 0.00509714 0.0535698 -0.00142325)
(-0.00345806 0.00407497 -0.168141 0.00277345 0.0893692 0.000684607)
(0.000447169 0.00419731 -0.121156 0.00409367 0.0842107 -0.00454084)
(0.00525234 0.00340001 -0.0799481 0.00525344 0.079939 -0.0105058)
(0.00917173 0.00216395 -0.0454486 0.0062888 0.0768018 -0.0154605)
(0.0113283 0.000733713 -0.0147722 0.00695271 0.0751777 -0.018281)
(0.0113311 -0.000738694 0.014736 0.00695471 0.0751767 -0.0182858)
(0.00918015 -0.00216818 0.0454125 0.00629452 0.0767988 -0.0154747)
(0.00526658 -0.00340303 0.0799119 0.00526253 0.0799339 -0.0105291)
(0.000468287 -0.00419886 0.12112 0.00410562 0.0842035 -0.00457391)
(-0.00343212 -0.00407341 0.168108 0.00278931 0.0893607 0.000642801)
(-0.00301233 0.00467743 -0.169436 0.000144902 0.124354 0.00286743)
(0.000228185 0.00498004 -0.125054 0.00022982 0.125045 -0.000458006)
(0.00409359 0.00419628 -0.0842203 0.000449795 0.121148 -0.00454339)
(0.00731313 0.00275707 -0.0486497 0.000761298 0.117017 -0.00807443)
(0.00909143 0.000953477 -0.0159289 0.00100019 0.11462 -0.0100916)
(0.00909418 -0.000960245 0.0158886 0.00100245 0.114618 -0.0100966)
(0.00732147 -0.002763 0.0486095 0.000767954 0.117012 -0.00808942)
(0.00410766 -0.00420062 0.0841804 0.00046038 0.12114 -0.00456804)
(0.000249496 -0.00498235 0.125015 0.000243566 0.125035 -0.000493062)
(-0.00298599 -0.00467563 0.1694 0.000161979 0.124343 0.00282401)
(-0.00223631 0.00431982 -0.153918 -0.00223342 0.153911 0.00446973)
(0.000143989 0.00467628 -0.124363 -0.00301044 0.169429 0.00286645)
(0.00277467 0.00407271 -0.0893799 -0.00345513 0.168134 0.000680464)
(0.00508546 0.00273559 -0.0535871 -0.00369538 0.164353 -0.00139008)
(0.00639804 0.000954034 -0.0178406 -0.00378445 0.16193 -0.00261358)
(0.00640071 -0.000962536 0.0177937 -0.00378133 0.161927 -0.00261938)
(0.0050937 -0.00274294 0.0535407 -0.00368625 0.164347 -0.00140745)
(0.00278882 -0.00407726 0.0893349 -0.00344098 0.168124 0.000652163)
(0.000166577 -0.00467755 0.124321 -0.00299279 0.169416 0.00282621)
(-0.00220608 -0.00431546 0.153882 -0.00221494 0.153899 0.00442101)
(-0.00212169 -0.00322635 -0.158976 -0.00210542 -0.158943 0.00422712)
(-0.000311929 -0.00257148 -0.130768 -0.00261084 -0.177349 0.00292277)
(0.000881774 -0.00206598 -0.0954819 -0.00270108 -0.178354 0.0018193)
(0.00194176 -0.00134092 -0.0579546 -0.00275338 -0.176207 0.000811619)
(0.00256355 -0.000458655 -0.0194413 -0.0027675 -0.174634 0.000203951)
(0.00256849 0.000473249 0.0193418 -0.00276202 -0.174629 0.000193527)
(0.00195693 0.00135352 0.0578561 -0.00273736 -0.176191 0.000780436)
(0.00090755 0.00207364 0.0953854 -0.00267623 -0.178327 0.00176868)
(-0.000271232 0.00257341 0.130676 -0.00257981 -0.177315 0.00285104)
(-0.00206755 0.00321842 0.158899 -0.00207315 -0.158912 0.0041407)
(-0.00262267 -0.00257507 -0.177379 -0.000304027 -0.130724 0.0029267)
(-0.000500187 -0.00232122 -0.134237 -0.000490444 -0.134197 0.000990631)
(0.00118961 -0.00195784 -0.092622 -0.000330811 -0.132487 -0.000858799)
(0.00268981 -0.00128375 -0.0545281 -0.000166769 -0.129837 -0.00252304)
(0.00355168 -0.00043803 -0.0180535 -4.12725e-05 -0.128182 -0.0035104)
(0.00355656 0.00045073 0.0179692 -3.71098e-05 -0.128178 -0.00351945)
(0.00270465 0.00129482 0.0544439 -0.00015457 -0.129824 -0.00255008)
(0.00121454 0.00196587 0.0925376 -0.000311391 -0.132466 -0.000903154)
(-0.000462475 0.00232537 0.134153 -0.000465238 -0.134169 0.000927713)
(-0.00257622 0.00257165 0.177302 -0.000272989 -0.130694 0.00284921)
(-0.00271637 -0.00207324 -0.178386 0.000880172 -0.0954297 0.0018362)
(-0.000343973 -0.00196127 -0.132526 0.00119225 -0.0925757 -0.000848281)
(0.00179563 -0.00162174 -0.090111 0.00180187 -0.0900673 -0.0035975)
(0.00367004 -0.00102078 -0.0524515 0.00234284 -0.0880309 -0.00601288)
(0.00472823 -0.000335115 -0.0172896 0.00271398 -0.086903 -0.00744221)
(0.00473302 0.000345098 0.0172151 0.00271771 -0.0869004 -0.00745072)
(0.00368471 0.00102916 0.0523772 0.00235342 -0.0880227 -0.00603813)
(0.00182054 0.00162769 0.0900357 0.0018188 -0.0900533 -0.00363934)
(-0.000306914 0.00196418 0.13245 0.0012146 -0.0925562 -0.000907682)
(-0.00267099 0.00207006 0.178314 0.000909741 -0.0954063 0.00176125)
(-0.00277493 -0.00135179 -0.176243 0.00193488 -0.057895 0.00084005)
(-0.00018505 -0.00129055 -0.129878 0.00268759 -0.0544764 -0.00250254)
(0.00233157 -0.0010243 -0.0880745 0.00367113 -0.0524042 -0.00600269)
(0.00453322 -0.000572931 -0.0512011 0.00453829 -0.0511557 -0.00907151)
(0.00582947 -0.000160645 -0.016996 0.00514322 -0.0505467 -0.0109727)
(0.0058347 0.000167281 0.0169269 0.00514634 -0.0505453 -0.010981)
(0.00454867 0.000577888 0.0511331 0.00454686 -0.0511513 -0.00909554)
(0.00235756 0.00102748 0.0880051 0.00368483 -0.0523962 -0.00604239)
(-0.000147679 0.00129151 0.129807 0.00270643 -0.0544648 -0.00255875)