/*--------------------------------*- C++ -*----------------------------------*\
| =========                 |                                                 |
| \\      /  F ield         | OpenFOAM: The Open Source CFD Toolbox           |
|  \\    /   O peration     | Version:  2406                                  |
|   \\  /    A nd           | Website:  www.openfoam.com                      |
|    \\/     M anipulation  |                                                 |
\*---------------------------------------------------------------------------*/
FoamFile
{
    version     2.0;
    format      ascii;
    arch        "LSB;label=32;scalar=64";
    class       volScalarField;
    location    "1.1";
    object      turbulenceProperties:nuEff;
}
// * * * * * * * * * * * * * * * * * * * * * * * * * * * * * * * * * * * * * //

dimensions      [0 2 -1 0 0 0 0];

internalField   nonuniform List<scalar> 
25000
(
0.00649252
0.00656622
0.00659828
0.00660451
0.00660263
0.00660263
0.00660451
0.00659827
0.00656622
0.00649253
0.00656622
0.00659263
0.00658045
0.00656684
0.00655948
0.00655948
0.00656683
0.00658045
0.00659263
0.00656622
0.00659828
0.00658045
0.00655572
0.00654082
0.00653481
0.00653481
0.00654082
0.00655571
0.00658045
0.00659827
0.00660451
0.00656684
0.00654082
0.00652905
0.00652557
0.00652557
0.00652905
0.00654082
0.00656683
0.00660451
0.00660264
0.00655949
0.00653482
0.00652557
0.00652372
0.00652372
0.00652557
0.00653481
0.00655948
0.00660263
0.00660264
0.00655949
0.00653482
0.00652557
0.00652372
0.00652372
0.00652557
0.00653481
0.00655948
0.00660263
0.00660451
0.00656684
0.00654082
0.00652905
0.00652557
0.00652557
0.00652905
0.00654082
0.00656683
0.00660451
0.00659828
0.00658045
0.00655572
0.00654082
0.00653482
0.00653482
0.00654082
0.00655572
0.00658045
0.00659828
0.00656622
0.00659263
0.00658045
0.00656684
0.00655948
0.00655948
0.00656684
0.00658045
0.00659263
0.00656622
0.00649252
0.00656622
0.00659828
0.00660451
0.00660264
0.00660263
0.00660451
0.00659828
0.00656622
0.00649253
0.00616049
0.00633619
0.00655021
0.00671909
0.00680786
0.00680787
0.00671911
0.00655024
0.00633623
0.00616053
0.00633619
0.00671079
0.00697557
0.0070852
0.0071133
0.0071133
0.0070852
0.00697558
0.00671083
0.00633623
0.0065502
0.00697556
0.00713291
0.00711486
0.00708407
0.00708406
0.00711484
0.00713289
0.00697558
0.00655024
0.00671908
0.0070852
0.00711487
0.00704196
0.00699709
0.00699708
0.00704193
0.00711484
0.0070852
0.00671911
0.00680785
0.00711331
0.00708408
0.0069971
0.00695036
0.00695035
0.00699708
0.00708405
0.0071133
0.00680788
0.00680785
0.00711331
0.00708409
0.0069971
0.00695036
0.00695035
0.00699708
0.00708406
0.0071133
0.00680787
0.00671907
0.00708521
0.00711488
0.00704196
0.0069971
0.00699709
0.00704194
0.00711485
0.0070852
0.00671911
0.00655019
0.00697556
0.00713292
0.00711488
0.00708408
0.00708407
0.00711486
0.0071329
0.00697558
0.00655023
0.00633618
0.00671078
0.00697556
0.00708521
0.00711331
0.00711331
0.0070852
0.00697557
0.00671081
0.00633622
0.00616048
0.00633618
0.00655019
0.00671908
0.00680785
0.00680786
0.0067191
0.00655022
0.00633622
0.00616052
0.00583443
0.00590605
0.00604067
0.00616694
0.00624293
0.00624296
0.00616701
0.00604077
0.00590615
0.00583452
0.00590605
0.00614405
0.00638751
0.0065824
0.00669197
0.00669201
0.00658249
0.00638763
0.00614416
0.00590615
0.00604067
0.0063875
0.00673518
0.00699948
0.00713425
0.00713429
0.00699959
0.00673532
0.00638763
0.00604077
0.00616691
0.00658236
0.00699945
0.007295
0.00742077
0.0074208
0.00729511
0.0069996
0.0065825
0.00616702
0.00624287
0.00669189
0.00713417
0.00742072
0.00752183
0.00752186
0.00742082
0.00713432
0.00669204
0.00624298
0.00624287
0.00669188
0.00713415
0.00742071
0.00752181
0.00752185
0.00742081
0.0071343
0.00669203
0.00624297
0.00616689
0.00658233
0.00699941
0.00729496
0.00742073
0.00742076
0.00729506
0.00699956
0.00658247
0.00616699
0.00604064
0.00638746
0.00673513
0.00699942
0.00713419
0.00713422
0.00699952
0.00673527
0.00638758
0.00604073
0.00590602
0.00614401
0.00638746
0.00658235
0.00669191
0.00669194
0.00658243
0.00638757
0.00614412
0.00590611
0.00583441
0.00590602
0.00604064
0.0061669
0.00624289
0.00624291
0.00616697
0.00604072
0.00590611
0.00583449
0.00580623
0.00584225
0.00594489
0.00604707
0.00611058
0.00611063
0.0060472
0.00594507
0.00584244
0.0058064
0.00584225
0.0060229
0.00621804
0.00638576
0.00648735
0.00648742
0.00638595
0.00621827
0.00602313
0.00584244
0.00594488
0.00621801
0.00651383
0.006782
0.00695495
0.00695507
0.00678226
0.00651412
0.00621827
0.00594508
0.00604702
0.00638569
0.00678192
0.00719889
0.00752515
0.00752537
0.0071993
0.00678229
0.00638598
0.00604722
0.00611047
0.00648718
0.00695472
0.00752488
0.00811328
0.00811376
0.00752548
0.00695516
0.00648749
0.00611068
0.00611045
0.00648716
0.00695468
0.00752479
0.00811308
0.00811355
0.00752538
0.00695511
0.00648746
0.00611066
0.00604697
0.00638563
0.00678182
0.00719873
0.0075249
0.00752511
0.00719913
0.00678218
0.0063859
0.00604717
0.00594482
0.00621794
0.00651373
0.00678185
0.00695477
0.00695488
0.0067821
0.006514
0.00621818
0.005945
0.00584219
0.00602283
0.00621795
0.00638566
0.00648723
0.00648729
0.00638583
0.00621816
0.00602304
0.00584237
0.00580618
0.00584219
0.00594483
0.006047
0.0061105
0.00611055
0.00604712
0.00594499
0.00584237
0.00580634
0.00577336
0.00579388
0.00588191
0.00597266
0.00603001
0.00603011
0.00597292
0.00588227
0.00579426
0.00577371
0.00579388
0.00594847
0.00611944
0.0062701
0.0063638
0.00636394
0.00627044
0.00611987
0.00594891
0.00579426
0.00588189
0.0061194
0.00638168
0.00663054
0.00680122
0.00680144
0.00663104
0.00638223
0.00611989
0.00588228
0.00597257
0.00626996
0.00663039
0.00704443
0.00742162
0.00742215
0.00704526
0.0066311
0.0062705
0.00597296
0.00602981
0.00636349
0.00680077
0.00742101
0.00837434
0.00837637
0.00742239
0.00680163
0.00636407
0.00603021
0.00602977
0.00636344
0.00680068
0.0074208
0.00837347
0.00837549
0.00742217
0.00680153
0.00636401
0.00603017
0.00597247
0.00626983
0.0066302
0.0070441
0.00742105
0.00742156
0.00704491
0.00663089
0.00627036
0.00597286
0.00588177
0.00611924
0.00638147
0.00663027
0.00680087
0.00680108
0.00663075
0.006382
0.00611971
0.00588214
0.00579375
0.00594832
0.00611926
0.00626989
0.00636357
0.0063637
0.00627022
0.00611967
0.00594874
0.00579411
0.00577324
0.00579375
0.00588178
0.00597252
0.00602986
0.00602996
0.00597276
0.00588212
0.00579411
0.00577358
0.00577358
0.00578954
0.00587267
0.00595933
0.00601447
0.00601464
0.00595978
0.00587328
0.00579019
0.00577417
0.00578955
0.00593521
0.00609657
0.00623983
0.00632988
0.00633011
0.00624042
0.00609732
0.00593596
0.00579019
0.00587264
0.0060965
0.00634389
0.00658189
0.00674848
0.00674887
0.00658275
0.00634484
0.00609735
0.0058733
0.00595917
0.00623958
0.00658163
0.00698393
0.00736448
0.00736543
0.00698539
0.00658286
0.00624053
0.00595986
0.0060141
0.00632932
0.00674768
0.00736338
0.00839635
0.00840058
0.00736587
0.00674919
0.00633034
0.00601481
0.00601403
0.00632922
0.00674752
0.00736297
0.00839451
0.00839871
0.00736545
0.00674902
0.00633024
0.00601473
0.00595897
0.00623933
0.00658126
0.00698331
0.00736341
0.00736434
0.00698475
0.00658248
0.00624028
0.00595967
0.00587237
0.00609619
0.0063435
0.00658137
0.00674784
0.00674822
0.00658222
0.00634444
0.00609704
0.00587305
0.00578927
0.0059349
0.00609623
0.00623944
0.00632946
0.00632968
0.00624002
0.00609696
0.00593565
0.00578992
0.00577332
0.00578927
0.0058724
0.00595906
0.00601419
0.00601436
0.0059595
0.00587301
0.00578993
0.00577393
0.00576574
0.00577898
0.0058597
0.00594449
0.00599865
0.00599892
0.00594521
0.00586067
0.00578002
0.00576667
0.00577899
0.00592035
0.00607765
0.00621773
0.00630615
0.00630653
0.00621868
0.00607886
0.00592157
0.00578002
0.00585963
0.00607753
0.00631863
0.00655158
0.00671578
0.00671641
0.00655299
0.00632018
0.00607891
0.00586071
0.0059442
0.00621729
0.00655114
0.00694654
0.00732484
0.00732642
0.00694893
0.00655316
0.00621886
0.00594533
0.00599801
0.0063052
0.00671443
0.00732299
0.00836791
0.00837516
0.00732712
0.00671693
0.00630689
0.00599918
0.00599788
0.00630502
0.00671414
0.00732228
0.00836464
0.00837183
0.00732639
0.00671663
0.00630672
0.00599905
0.00594384
0.00621684
0.00655049
0.00694546
0.00732298
0.00732453
0.00694783
0.00655251
0.00621841
0.00594499
0.00585915
0.00607695
0.00631792
0.00655066
0.00671466
0.00671528
0.00655206
0.00631947
0.00607835
0.00586026
0.00577846
0.00591976
0.006077
0.00621702
0.00630539
0.00630576
0.00621797
0.00607822
0.005921
0.00577953
0.00576523
0.00577846
0.00585918
0.00594397
0.00599813
0.0059984
0.00594469
0.00586017
0.00577954
0.00576622
0.00576588
0.0057782
0.00585802
0.0059421
0.00599596
0.00599636
0.00594317
0.00585947
0.00577975
0.00576727
0.00577821
0.00591786
0.00607341
0.00621218
0.00630001
0.00630059
0.00621363
0.00607525
0.00591969
0.00577975
0.00585787
0.00607321
0.00631153
0.00654229
0.00670556
0.00670653
0.00654446
0.0063139
0.00607532
0.00585952
0.00594161
0.00621147
0.00654158
0.00693375
0.00731081
0.00731325
0.00693745
0.0065447
0.00621387
0.00594335
0.00599493
0.0062985
0.00670342
0.00730787
0.00835264
0.008364
0.00731429
0.00670728
0.0063011
0.00599671
0.00599473
0.00629822
0.00670296
0.00730673
0.00834731
0.0083585
0.00731309
0.00670679
0.00630081
0.00599649
0.00594108
0.00621076
0.00654055
0.006932
0.00730776
0.00731014
0.00693562
0.00654361
0.00621311
0.00594276
0.00585714
0.0060723
0.00631038
0.00654079
0.0067037
0.00670465
0.0065429
0.00631269
0.00607435
0.00585873
0.0057774
0.00591692
0.00607236
0.006211
0.00629873
0.00629929
0.00621241
0.00607414
0.0059187
0.00577888
0.00576512
0.00577738
0.00585717
0.00594122
0.00599505
0.00599545
0.00594227
0.00585858
0.0057789
0.00576647
0.00576374
0.00577539
0.00585471
0.00593847
0.00599225
0.00599282
0.00594
0.00585677
0.00577761
0.00576571
0.0057754
0.00591405
0.00606878
0.00620701
0.0062947
0.00629553
0.0062091
0.00607142
0.00591668
0.0057776
0.00585447
0.00606846
0.00630552
0.00653535
0.0066984
0.00669981
0.0065385
0.00630895
0.00607151
0.00585683
0.00593772
0.00620594
0.00653429
0.00692492
0.00730158
0.00730516
0.00693034
0.00653883
0.00620941
0.0059402
0.00599073
0.00629246
0.00669522
0.00729723
0.00834055
0.00835721
0.00730658
0.00670081
0.0062962
0.00599324
0.00599048
0.00629209
0.00669458
0.00729556
0.00833252
0.00834866
0.00730469
0.00670003
0.00629572
0.00599289
0.00593705
0.006205
0.00653284
0.00692236
0.00729696
0.00730033
0.00692746
0.00653709
0.0062082
0.00593928
0.00585357
0.00606727
0.00630392
0.00653316
0.00669557
0.00669687
0.00653604
0.00630702
0.00606996
0.00585556
0.00577443
0.00591285
0.00606734
0.00620529
0.00629275
0.0062935
0.00620716
0.00606966
0.0059151
0.00577622
0.00576288
0.00577439
0.00585358
0.00593722
0.00599088
0.00599139
0.00593856
0.00585536
0.00577625
0.00576445
0.00576359
0.005775
0.00585415
0.00593786
0.00599173
0.00599249
0.0059399
0.0058569
0.00577793
0.00576615
0.00577502
0.00591322
0.00606758
0.00620564
0.00629345
0.00629457
0.00620848
0.00607114
0.00591673
0.00577791
0.00585383
0.00606714
0.00630356
0.00653306
0.00669628
0.00669822
0.00653737
0.00630823
0.00607124
0.00585695
0.00593685
0.00620419
0.00653159
0.00692153
0.00729851
0.00730344
0.00692897
0.00653777
0.00620885
0.00594012
0.00598972
0.00629042
0.00669193
0.00729251
0.00833506
0.00835792
0.00730525
0.00669947
0.00629537
0.00599298
0.00598947
0.00629001
0.00669115
0.00729029
0.00832391
0.00834558
0.00730249
0.00669833
0.00629469
0.00599249
0.00593619
0.00620315
0.00652984
0.00691818
0.00729211
0.00729652
0.00692477
0.00653524
0.0062071
0.00593882
0.00585296
0.00606586
0.00630167
0.00653025
0.00669242
0.00669405
0.00653382
0.00630544
0.00606903
0.00585518
0.00577414
0.005912
0.00606596
0.00620352
0.00629085
0.00629174
0.00620573
0.00606864
0.00591452
0.00577601
0.00576292
0.0057741
0.00585298
0.00593639
0.00598998
0.00599056
0.00593791
0.00585495
0.00577608
0.00576446
0.00576281
0.005774
0.00585306
0.00593679
0.00599078
0.00599173
0.0059393
0.00585641
0.00577752
0.00576577
0.00577408
0.00591195
0.00606613
0.00620419
0.00629219
0.0062936
0.00620774
0.00607055
0.00591623
0.00577748
0.00585272
0.00606561
0.00630169
0.0065311
0.00669465
0.00669713
0.00653658
0.00630756
0.00607065
0.00585646
0.00593561
0.0062024
0.00652926
0.00691885
0.00729635
0.0073027
0.00692836
0.00653706
0.00620816
0.00593954
0.00598843
0.00628849
0.0066892
0.00728872
0.00833068
0.00835995
0.00730489
0.00669861
0.00629453
0.00599227
0.00598825
0.00628812
0.00668836
0.0072861
0.00831659
0.0083436
0.0073012
0.0066971
0.00629364
0.00599165
0.00593515
0.00620149
0.00652745
0.00691497
0.00728836
0.00729367
0.0069228
0.00653372
0.00620591
0.0059379
0.00585216
0.00606456
0.00629984
0.00652797
0.00668997
0.00669182
0.00653198
0.00630396
0.00606786
0.00585428
0.00577361
0.00591108
0.00606469
0.00620198
0.00628919
0.00629013
0.0062043
0.00606743
0.00591351
0.0057752
0.00576268
0.00577358
0.00585222
0.00593544
0.00598892
0.00598949
0.00593692
0.00585407
0.00577533
0.00576383
0.00576266
0.0057737
0.00585269
0.00593644
0.00599052
0.00599159
0.00593924
0.00585636
0.00577744
0.00576563
0.00577386
0.00591152
0.00606557
0.00620363
0.00629179
0.00629343
0.00620771
0.00607053
0.00591619
0.00577738
0.00585244
0.00606504
0.00630088
0.00653025
0.0066941
0.00669704
0.00653667
0.00630761
0.00607064
0.00585639
0.00593529
0.00620172
0.00652817
0.00691753
0.00729554
0.00730312
0.00692877
0.0065372
0.00620816
0.00593948
0.00598815
0.00628777
0.00668791
0.00728666
0.00832818
0.00836293
0.00730563
0.0066987
0.00629445
0.00599216
0.00598809
0.00628753
0.00668718
0.00728392
0.0083121
0.00834325
0.00730113
0.00669688
0.0062934
0.00599145
0.00593519
0.00620117
0.00652665
0.00691361
0.00728661
0.00729246
0.00692209
0.00653321
0.00620553
0.00593762
0.00585243
0.00606454
0.00629948
0.00652729
0.00668909
0.00669098
0.00653131
0.00630343
0.00606746
0.00585397
0.00577408
0.00591134
0.00606471
0.00620178
0.00628882
0.0062897
0.00620387
0.00606704
0.00591319
0.00577493
0.00576328
0.00577404
0.00585252
0.00593558
0.0059889
0.00598937
0.00593674
0.00585388
0.00577514
0.00576364
0.00576255
0.00577344
0.0058523
0.00593598
0.00599006
0.00599115
0.00593879
0.00585588
0.00577691
0.00576507
0.0057737
0.00591117
0.00606506
0.00620305
0.00629125
0.00629297
0.00620728
0.00607007
0.00591567
0.00577683
0.00585225
0.00606462
0.00630025
0.00652951
0.00669348
0.00669666
0.00653636
0.00630722
0.00607016
0.00585587
0.00593512
0.00620128
0.00652744
0.00691655
0.00729475
0.00730305
0.00692869
0.0065369
0.00620771
0.00593898
0.00598806
0.00628742
0.00668718
0.00728538
0.00832636
0.00836427
0.00730575
0.0066984
0.00629399
0.00599166
0.00598817
0.00628738
0.00668668
0.00728288
0.00830991
0.00834287
0.00730077
0.00669638
0.00629285
0.0059909
0.00593547
0.00620128
0.00652651
0.00691316
0.00728585
0.0072917
0.00692141
0.00653256
0.0062049
0.00593703
0.00585289
0.00606488
0.00629964
0.00652722
0.00668877
0.00669046
0.00653069
0.00630279
0.00606682
0.00585338
0.00577467
0.00591185
0.00606506
0.00620193
0.00628875
0.00628941
0.00620342
0.00606651
0.00591262
0.00577437
0.00576392
0.00577462
0.00585298
0.00593586
0.00598898
0.00598924
0.00593644
0.00585347
0.00577466
0.00576316
0.00576275
0.00577354
0.00585227
0.00593581
0.00598978
0.00599078
0.00593835
0.00585538
0.00577637
0.00576455
0.00577389
0.00591124
0.00606497
0.0062028
0.00629088
0.00629252
0.00620677
0.0060695
0.00591507
0.00577627
0.00585247
0.00606471
0.00630014
0.00652919
0.00669302
0.00669615
0.00653582
0.00630664
0.00606955
0.0058553
0.0059354
0.00620144
0.00652738
0.00691622
0.00729418
0.00730247
0.00692813
0.00653631
0.0062071
0.00593842
0.00598847
0.00628775
0.00668734
0.0072853
0.00832578
0.00836336
0.00730511
0.00669777
0.00629337
0.00599111
0.00598874
0.00628794
0.00668717
0.00728338
0.00831079
0.00834234
0.00730006
0.00669571
0.00629222
0.00599036
0.00593619
0.00620204
0.00652724
0.00691385
0.00728633
0.00729152
0.00692085
0.00653192
0.00620429
0.0059365
0.0058537
0.00606574
0.00630045
0.0065279
0.00668917
0.00669042
0.00653031
0.00630226
0.00606626
0.00585287
0.00577549
0.00591272
0.00606587
0.00620259
0.00628914
0.00628945
0.00620319
0.0060661
0.00591214
0.00577392
0.00576467
0.00577541
0.0058537
0.00593644
0.00598934
0.00598934
0.0059363
0.00585316
0.00577426
0.00576276
0.00576297
0.00577375
0.00585237
0.00593575
0.00598953
0.00599037
0.00593783
0.00585481
0.00577582
0.00576408
0.00577411
0.00591145
0.00606505
0.00620268
0.00629051
0.00629193
0.00620605
0.00606875
0.00591437
0.00577569
0.00585275
0.00606497
0.00630027
0.00652908
0.00669253
0.00669532
0.00653487
0.00630572
0.00606874
0.00585465
0.00593579
0.00620186
0.00652772
0.00691632
0.00729361
0.00730108
0.00692683
0.00653523
0.00620622
0.00593774
0.00598899
0.00628838
0.00668806
0.00728616
0.00832631
0.0083597
0.00730335
0.0066966
0.00629248
0.00599044
0.00598938
0.00628877
0.00668824
0.00728503
0.00831432
0.0083411
0.00729869
0.00669466
0.00629139
0.00598974
0.00593688
0.00620294
0.00652836
0.00691519
0.00728759
0.00729153
0.00692014
0.00653113
0.00620358
0.00593595
0.00585436
0.0060666
0.00630143
0.00652886
0.00668984
0.00669051
0.00652992
0.00630168
0.00606569
0.00585242
0.00577606
0.00591344
0.00606664
0.00620327
0.00628957
0.00628953
0.00620294
0.00606567
0.00591168
0.00577355
0.00576509
0.00577594
0.00585425
0.00593691
0.00598962
0.00598937
0.0059361
0.00585283
0.00577389
0.00576245
0.00576314
0.005774
0.00585258
0.00593582
0.00598941
0.00599006
0.0059374
0.00585436
0.00577542
0.00576383
0.00577429
0.00591172
0.00606528
0.00620272
0.00629026
0.00629138
0.00620534
0.00606805
0.00591379
0.00577531
0.005853
0.00606534
0.00630062
0.00652919
0.00669213
0.00669438
0.00653377
0.00630474
0.006068
0.00585418
0.00593615
0.0062024
0.00652835
0.00691681
0.00729319
0.0072992
0.00692509
0.00653397
0.00620536
0.00593721
0.00598947
0.00628913
0.00668915
0.00728778
0.00832791
0.00835402
0.00730088
0.00669522
0.00629162
0.00598993
0.00598992
0.00628965
0.00668962
0.00728748
0.0083198
0.00833937
0.00729697
0.00669355
0.00629068
0.00598934
0.00593738
0.00620378
0.00652959
0.00691689
0.00728935
0.00729175
0.00691951
0.00653046
0.0062031
0.00593571
0.00585472
0.00606725
0.00630232
0.00652987
0.00669065
0.00669076
0.0065297
0.00630133
0.00606542
0.00585233
0.00577625
0.00591386
0.00606721
0.00620386
0.00629001
0.00628968
0.00620285
0.00606549
0.00591154
0.00577357
0.0057651
0.00577613
0.00585453
0.0059372
0.00598983
0.00598943
0.00593604
0.00585272
0.00577383
0.00576252
0.00576316
0.00577414
0.00585274
0.00593591
0.00598932
0.00598977
0.005937
0.00585396
0.0057751
0.00576366
0.00577432
0.0059119
0.00606548
0.0062028
0.00629004
0.00629084
0.00620465
0.0060674
0.0059133
0.00577505
0.00585308
0.0060656
0.00630095
0.00652936
0.00669177
0.00669339
0.0065326
0.00630379
0.00606735
0.00585384
0.0059363
0.0062028
0.00652898
0.00691742
0.00729283
0.00729706
0.00692316
0.00653271
0.00620462
0.00593686
0.00598968
0.0062897
0.00669021
0.00728962
0.00832994
0.0083474
0.00729815
0.00669389
0.00629094
0.00598966
0.00599012
0.00629026
0.00669087
0.00729003
0.00832595
0.0083376
0.0072953
0.00669264
0.00629026
0.00598926
0.00593746
0.00620424
0.00653054
0.00691846
0.00729117
0.00729214
0.00691912
0.00653012
0.006203
0.00593585
0.00585464
0.00606747
0.00630286
0.00653065
0.00669139
0.00669111
0.00652974
0.00630134
0.00606556
0.00585265
0.00577601
0.00591385
0.0060674
0.00620418
0.00629033
0.00628989
0.00620298
0.00606564
0.00591182
0.005774
0.00576473
0.00577593
0.00585448
0.00593725
0.00598993
0.00598953
0.00593616
0.00585292
0.00577415
0.00576299
0.00576314
0.00577422
0.00585286
0.00593596
0.00598921
0.00598946
0.00593657
0.00585352
0.00577473
0.00576342
0.00577429
0.00591199
0.00606562
0.00620284
0.00628981
0.00629029
0.00620394
0.00606675
0.0059128
0.00577475
0.00585305
0.00606574
0.0063012
0.0065295
0.0066914
0.00669238
0.00653145
0.00630288
0.00606677
0.00585355
0.0059363
0.00620304
0.00652947
0.00691797
0.00729244
0.00729491
0.00692129
0.00653158
0.00620404
0.00593664
0.00598967
0.00629001
0.00669103
0.00729122
0.00833167
0.008341
0.00729568
0.00669283
0.00629053
0.00598962
0.00599004
0.00629053
0.00669174
0.00729217
0.00833164
0.00833653
0.00729415
0.00669216
0.00629021
0.00598948
0.00593726
0.00620434
0.0065311
0.00691967
0.00729284
0.00729284
0.00691921
0.00653026
0.00620333
0.00593633
0.0058543
0.00606736
0.00630305
0.00653116
0.00669205
0.00669165
0.00653015
0.00630178
0.00606612
0.00585331
0.00577557
0.00591358
0.00606733
0.00620432
0.0062906
0.00629025
0.0062034
0.00606618
0.00591247
0.00577475
0.00576424
0.00577556
0.00585426
0.00593719
0.00599001
0.00598975
0.00593652
0.00585342
0.00577478
0.00576372
0.00576324
0.00577435
0.00585298
0.00593599
0.00598905
0.00598909
0.00593605
0.00585296
0.00577423
0.005763
0.00577436
0.00591211
0.00606575
0.00620285
0.00628953
0.00628968
0.00620317
0.006066
0.00591219
0.00577429
0.00585309
0.00606587
0.0063014
0.00652957
0.00669097
0.00669135
0.00653028
0.00630194
0.00606612
0.00585314
0.00593628
0.00620318
0.00652981
0.00691833
0.00729191
0.00729283
0.00691954
0.00653052
0.00620348
0.00593637
0.00598959
0.00629015
0.00669155
0.00729236
0.00833256
0.00833538
0.00729365
0.00669201
0.00629025
0.00598959
0.00598986
0.00629058
0.00669225
0.00729369
0.0083363
0.00833658
0.00729363
0.00669203
0.00629036
0.00598976
0.00593699
0.00620425
0.00653137
0.0069205
0.00729429
0.00729385
0.00691974
0.00653073
0.00620385
0.00593687
0.00585398
0.00606716
0.00630308
0.00653149
0.00669267
0.00669236
0.00653084
0.00630248
0.00606682
0.00585399
0.00577523
0.00591332
0.00606722
0.0062044
0.0062909
0.00629073
0.00620401
0.00606686
0.0059132
0.00577544
0.00576391
0.00577528
0.00585408
0.00593715
0.00599015
0.00599006
0.00593698
0.00585399
0.00577541
0.00576432
0.0057636
0.00577469
0.00585324
0.0059361
0.00598893
0.00598872
0.00593552
0.00585238
0.00577366
0.00576249
0.00577468
0.00591243
0.00606601
0.00620293
0.00628928
0.00628908
0.00620237
0.0060652
0.00591148
0.0057737
0.00585335
0.00606617
0.00630168
0.00652967
0.00669055
0.00669032
0.00652911
0.00630095
0.00606537
0.00585257
0.00593647
0.00620345
0.00653017
0.00691861
0.0072913
0.00729086
0.00691789
0.00652947
0.00620281
0.00593592
0.00598968
0.00629036
0.00669199
0.00729316
0.0083327
0.00833051
0.00729192
0.00669125
0.00628988
0.00598938
0.00598987
0.0062907
0.00669265
0.00729484
0.00834014
0.00833747
0.00729345
0.00669197
0.0062904
0.00598982
0.00593694
0.00620428
0.00653161
0.00692119
0.00729564
0.00729504
0.00692041
0.00653118
0.0062042
0.00593713
0.00585392
0.00606714
0.00630319
0.00653185
0.00669331
0.00669312
0.00653153
0.00630305
0.00606727
0.0058543
0.00577519
0.00591329
0.00606726
0.00620458
0.00629125
0.0062912
0.00620453
0.00606735
0.00591359
0.00577569
0.0057639
0.00577524
0.00585408
0.00593723
0.00599034
0.00599035
0.00593731
0.0058543
0.00577565
0.00576445
0.00576415
0.00577524
0.00585369
0.00593637
0.00598896
0.00598849
0.00593511
0.00585191
0.00577319
0.00576209
0.00577523
0.00591298
0.00606647
0.00620317
0.00628917
0.00628859
0.00620167
0.00606447
0.00591082
0.00577315
0.00585386
0.00606671
0.00630217
0.00652992
0.00669025
0.00668942
0.00652801
0.00629997
0.00606457
0.00585194
0.00593693
0.00620397
0.00653072
0.006919
0.00729077
0.00728904
0.00691629
0.00652835
0.00620201
0.00593532
0.00599007
0.00629083
0.00669262
0.00729401
0.00833275
0.008326
0.00729019
0.00669033
0.00628926
0.00598891
0.00599019
0.0062911
0.00669325
0.00729604
0.00834379
0.00833826
0.00729309
0.0066916
0.00629007
0.0059895
0.00593722
0.00620462
0.00653209
0.006922
0.00729696
0.00729606
0.00692078
0.00653122
0.00620408
0.00593691
0.00585419
0.00606744
0.00630355
0.00653234
0.00669393
0.0066937
0.00653188
0.00630316
0.00606719
0.00585407
0.00577546
0.00591354
0.00606752
0.00620487
0.00629158
0.00629149
0.00620469
0.00606735
0.00591342
0.00577539
0.00576414
0.00577545
0.00585425
0.00593739
0.00599048
0.00599044
0.0059373
0.00585414
0.00577534
0.00576402
0.00576462
0.00577577
0.00585418
0.00593674
0.00598912
0.00598844
0.0059349
0.00585163
0.00577292
0.00576191
0.00577575
0.00591358
0.00606703
0.00620356
0.00628924
0.00628831
0.00620118
0.00606393
0.00591033
0.00577279
0.00585442
0.00606737
0.00630281
0.00653035
0.00669016
0.00668874
0.00652711
0.00629913
0.00606389
0.00585144
0.00593751
0.00620468
0.00653149
0.00691963
0.00729055
0.00728747
0.0069148
0.00652724
0.00620119
0.00593472
0.00599065
0.00629157
0.00669355
0.00729525
0.0083336
0.00832152
0.00728825
0.00668919
0.00628843
0.00598829
0.00599075
0.00629182
0.00669422
0.00729767
0.00834781
0.00833788
0.00729208
0.00669078
0.00628937
0.00598892
0.00593775
0.00620527
0.0065329
0.00692308
0.00729827
0.00729657
0.00692054
0.00653072
0.00620349
0.00593635
0.00585467
0.00606799
0.00630415
0.00653297
0.00669449
0.00669394
0.00653173
0.00630274
0.00606664
0.0058535
0.00577588
0.00591399
0.00606795
0.00620524
0.00629181
0.0062915
0.00620444
0.00606689
0.00591283
0.00577478
0.00576447
0.00577578
0.00585453
0.00593758
0.00599052
0.00599029
0.00593695
0.00585362
0.00577471
0.00576337
0.00576466
0.00577596
0.00585443
0.00593697
0.00598925
0.00598845
0.00593482
0.00585152
0.00577284
0.00576193
0.00577589
0.00591389
0.00606741
0.00620387
0.00628935
0.00628818
0.00620088
0.00606361
0.00591008
0.00577269
0.00585469
0.00606782
0.00630334
0.00653079
0.00669022
0.00668829
0.00652643
0.0062985
0.00606343
0.00585119
0.00593791
0.0062053
0.00653228
0.00692043
0.00729067
0.0072862
0.00691347
0.00652625
0.00620051
0.00593431
0.00599117
0.00629235
0.00669466
0.00729692
0.00833558
0.00831702
0.00728613
0.00668795
0.00628762
0.00598776
0.00599133
0.00629268
0.00669547
0.00729978
0.00835234
0.0083359
0.00729042
0.00668965
0.00628855
0.00598836
0.00593833
0.00620607
0.00653395
0.00692442
0.00729954
0.00729647
0.00691973
0.00652986
0.00620275
0.0059358
0.00585519
0.00606866
0.00630492
0.00653372
0.00669496
0.00669387
0.00653121
0.00630206
0.00606597
0.00585298
0.0057763
0.00591452
0.00606847
0.00620565
0.00629198
0.00629134
0.00620399
0.00606629
0.00591223
0.0057743
0.0057648
0.00577617
0.00585487
0.00593779
0.00599054
0.00599007
0.00593653
0.0058531
0.00577418
0.00576296
0.00576413
0.00577559
0.00585419
0.00593682
0.00598915
0.00598835
0.00593472
0.00585146
0.00577285
0.00576206
0.00577546
0.00591365
0.0060673
0.00620382
0.00628926
0.006288
0.00620066
0.00606343
0.00591001
0.00577278
0.00585444
0.00606778
0.00630346
0.00653093
0.00669015
0.00668789
0.00652592
0.0062981
0.00606321
0.00585118
0.00593789
0.00620552
0.00653275
0.00692103
0.0072908
0.00728513
0.00691237
0.00652552
0.00620011
0.00593418
0.00599138
0.00629288
0.00669563
0.00729861
0.00833805
0.00831274
0.00728411
0.0066869
0.00628705
0.00598753
0.00599171
0.00629341
0.00669671
0.00730205
0.00835708
0.00833302
0.00728857
0.00668858
0.00628795
0.00598809
0.00593877
0.00620682
0.00653506
0.00692588
0.00730079
0.00729609
0.00691878
0.00652906
0.00620224
0.00593557
0.00585561
0.00606931
0.00630573
0.00653455
0.00669546
0.00669375
0.00653071
0.00630153
0.0060656
0.00585285
0.00577667
0.00591505
0.00606905
0.00620615
0.00629223
0.00629126
0.0062037
0.00606596
0.00591201
0.00577427
0.0057651
0.00577659
0.00585529
0.00593812
0.00599068
0.00599002
0.00593636
0.00585292
0.0057741
0.00576304
0.00576321
0.00577475
0.00585348
0.00593625
0.00598872
0.00598804
0.00593453
0.00585137
0.00577287
0.00576219
0.0057746
0.00591287
0.00606664
0.00620328
0.00628882
0.00628764
0.00620041
0.00606331
0.00591004
0.00577293
0.00585374
0.00606718
0.00630299
0.00653054
0.00668972
0.0066874
0.00652551
0.00629788
0.00606319
0.00585133
0.00593743
0.00620523
0.00653266
0.00692107
0.00729053
0.00728412
0.00691155
0.0065251
0.00620001
0.0059343
0.00599121
0.00629297
0.00669612
0.00729974
0.00833969
0.00830909
0.00728259
0.00668626
0.00628687
0.00598762
0.0059918
0.00629382
0.00669765
0.00730402
0.00836146
0.00833072
0.00728718
0.00668796
0.00628777
0.00598819
0.00593901
0.00620737
0.00653601
0.00692726
0.0073021
0.00729596
0.00691821
0.00652871
0.00620218
0.00593575
0.0058559
0.00606986
0.00630651
0.00653542
0.00669611
0.0066939
0.00653059
0.00630145
0.00606571
0.00585313
0.00577697
0.00591554
0.00606966
0.00620675
0.00629267
0.00629148
0.00620379
0.00606608
0.00591226
0.00577466
0.00576539
0.00577701
0.00585577
0.00593858
0.00599104
0.00599027
0.00593656
0.00585317
0.00577445
0.00576351
0.00576237
0.00577384
0.00585258
0.00593544
0.00598807
0.00598761
0.00593431
0.00585133
0.00577296
0.00576235
0.00577371
0.0059119
0.00606567
0.00620238
0.00628807
0.00628712
0.00620014
0.00606326
0.00591014
0.00577312
0.00585292
0.00606629
0.00630209
0.00652965
0.00668889
0.00668676
0.00652518
0.00629782
0.00606333
0.00585156
0.00593678
0.00620457
0.00653202
0.00692038
0.00728958
0.00728312
0.00691108
0.00652502
0.00620016
0.00593458
0.00599081
0.00629265
0.00669598
0.00729984
0.00833933
0.00830656
0.00728189
0.00668616
0.00628705
0.00598793
0.00599165
0.00629385
0.00669805
0.00730518
0.00836476
0.00833037
0.00728679
0.00668796
0.00628802
0.00598855
0.00593904
0.00620763
0.00653661
0.00692833
0.00730339
0.00729646
0.00691832
0.00652891
0.00620253
0.00593617
0.00585603
0.00607019
0.00630708
0.0065362
0.00669688
0.00669443
0.00653094
0.00630183
0.00606616
0.00585363
0.00577714
0.00591586
0.00607014
0.00620734
0.00629326
0.00629198
0.00620424
0.00606656
0.00591278
0.0057752
0.00576552
0.00577727
0.00585614
0.00593903
0.00599151
0.00599072
0.00593702
0.00585366
0.00577497
0.00576404
0.00576205
0.00577333
0.00585195
0.0059348
0.00598757
0.00598735
0.00593434
0.00585158
0.00577334
0.00576276
0.00577322
0.00591119
0.00606484
0.00620152
0.00628736
0.00628674
0.00620011
0.00606349
0.00591051
0.00577351
0.00585237
0.00606551
0.00630113
0.00652859
0.00668794
0.00668626
0.00652517
0.00629811
0.00606373
0.00585198
0.00593625
0.00620383
0.00653108
0.00691916
0.00728816
0.00728244
0.00691117
0.0065254
0.00620063
0.00593502
0.00599035
0.00629208
0.00669529
0.00729882
0.00833672
0.00830589
0.00728229
0.00668667
0.00628757
0.00598839
0.00599128
0.00629348
0.00669776
0.00730514
0.00836599
0.00833241
0.00728759
0.00668857
0.00628857
0.00598901
0.00593874
0.0062074
0.00653658
0.00692866
0.00730428
0.0072975
0.00691909
0.00652955