/*--------------------------------*- C++ -*----------------------------------*\
| =========                 |                                                 |
| \\      /  F ield         | OpenFOAM: The Open Source CFD Toolbox           |
|  \\    /   O peration     | Version:  2406                                  |
|   \\  /    A nd           | Website:  www.openfoam.com                      |
|    \\/     M anipulation  |                                                 |
\*---------------------------------------------------------------------------*/
FoamFile
{
    version     2.0;
    format      ascii;
    arch        "LSB;label=32;scalar=64";
    class       volSymmTensorField;
    location    "1.1";
    object      turbulenceProperties:R;
}
// * * * * * * * * * * * * * * * * * * * * * * * * * * * * * * * * * * * * * //

dimensions      [0 2 -2 0 0 0 0];

internalField   uniform (0 -0 -0 0 -0 0);

boundaryField
{
    walls
    {
        type            calculated;
        value           nonuniform List<symmTensor> 
2000
(
(-8.57812e-08 7.13916e-08 2.96519e-07 -5.45554e-08 -2.50416e-07 1.40337e-07)
(-1.48119e-07 9.04416e-08 4.6866e-07 -5.04313e-08 -2.88973e-07 1.9855e-07)
(-2.2472e-07 9.40326e-08 6.72752e-07 -3.32462e-08 -2.81247e-07 2.57967e-07)
(-2.95108e-07 7.27067e-08 8.52687e-07 -1.06398e-08 -2.06802e-07 3.05747e-07)
(-3.38005e-07 2.73254e-08 9.58422e-07 5.72823e-09 -7.62255e-08 3.32277e-07)
(-3.38004e-07 -2.73279e-08 9.58422e-07 5.72782e-09 7.62257e-08 3.32277e-07)
(-2.95106e-07 -7.27086e-08 8.52686e-07 -1.06408e-08 2.06802e-07 3.05747e-07)
(-2.24719e-07 -9.40338e-08 6.72751e-07 -3.32474e-08 2.81247e-07 2.57966e-07)
(-1.48117e-07 -9.0442e-08 4.68659e-07 -5.04322e-08 2.88973e-07 1.9855e-07)
(-8.57807e-08 -7.13916e-08 2.96518e-07 -5.45558e-08 2.50415e-07 1.40337e-07)
(-2.65003e-09 1.14317e-09 1.27213e-07 -1.93931e-10 -1.07008e-07 2.84396e-09)
(-4.96864e-09 8.57996e-10 1.9447e-07 2.50618e-10 -1.19434e-07 4.71803e-09)
(-6.63858e-09 9.81345e-10 2.78042e-07 -3.46851e-10 -1.15975e-07 6.98544e-09)
(-8.44045e-09 7.35112e-10 3.54165e-07 -5.22526e-10 -8.57652e-08 8.96298e-09)
(-9.51425e-09 3.1334e-10 3.9976e-07 -6.40392e-10 -3.17569e-08 1.01546e-08)
(-9.51348e-09 -3.18238e-10 3.99759e-07 -6.41191e-10 3.17571e-08 1.01547e-08)
(-8.43846e-09 -7.39038e-10 3.54163e-07 -5.24595e-10 8.57648e-08 8.96306e-09)
(-6.63618e-09 -9.83746e-10 2.78038e-07 -3.49354e-10 1.15974e-07 6.98554e-09)
(-4.96655e-09 -8.59049e-10 1.94467e-07 2.48411e-10 1.19432e-07 4.71814e-09)
(-2.64878e-09 -1.14334e-09 1.2721e-07 -1.95266e-10 1.07006e-07 2.84405e-09)
(-2.8098e-10 -9.6194e-12 4.46239e-08 -1.32058e-10 -3.74088e-08 4.13038e-10)
(-3.71752e-10 -6.88669e-11 6.65067e-08 -2.67736e-10 -4.0708e-08 6.39488e-10)
(-3.80893e-10 -1.59533e-11 9.44653e-08 -5.34944e-10 -3.93261e-08 9.15837e-10)
(-4.69614e-10 2.89712e-11 1.20779e-07 -6.87922e-10 -2.9222e-08 1.15754e-09)
(-5.50757e-10 2.36118e-11 1.36791e-07 -7.50958e-10 -1.086e-08 1.30172e-09)
(-5.49969e-10 -2.86923e-11 1.36789e-07 -7.51781e-10 1.08602e-08 1.30175e-09)
(-4.67577e-10 -3.3052e-11 1.20774e-07 -6.90055e-10 2.92211e-08 1.15763e-09)
(-3.78433e-10 1.34435e-11 9.44588e-08 -5.37526e-10 3.93236e-08 9.15958e-10)
(-3.6956e-10 6.773e-11 6.65002e-08 -2.70056e-10 4.07043e-08 6.39617e-10)
(-2.79612e-10 9.40672e-12 4.46183e-08 -1.33531e-10 3.74042e-08 4.13143e-10)
(-8.1123e-11 6.40946e-11 5.83398e-08 5.29962e-11 -4.89606e-08 2.81268e-11)
(-1.87783e-10 4.51897e-11 8.75915e-08 1.32223e-10 -5.36617e-08 5.556e-11)
(-2.50689e-10 3.91604e-11 1.24455e-07 1.58311e-10 -5.18305e-08 9.23773e-11)
(-3.14525e-10 1.53594e-11 1.587e-07 1.87752e-10 -3.83978e-08 1.26773e-10)
(-3.44281e-10 2.05243e-12 1.79402e-07 1.94704e-10 -1.42417e-08 1.49577e-10)
(-3.42455e-10 -1.38053e-11 1.79397e-07 1.92784e-10 1.42421e-08 1.49671e-10)
(-3.09792e-10 -2.48306e-11 1.58687e-07 1.82752e-10 3.83953e-08 1.2704e-10)
(-2.44947e-10 -4.50022e-11 1.24437e-07 1.52228e-10 5.18237e-08 9.27185e-11)
(-1.8264e-10 -4.78425e-11 8.75738e-08 1.2672e-10 5.36514e-08 5.59201e-11)
(-7.79009e-11 -6.45838e-11 5.83246e-08 4.94789e-11 4.89482e-08 2.8422e-11)
(-3.0281e-11 -1.04451e-11 4.55313e-08 -3.8519e-11 -3.81823e-08 6.87999e-11)
(-2.28706e-11 -1.14486e-11 6.79753e-08 -8.04347e-11 -4.16148e-08 1.03305e-10)
(-1.5458e-11 5.43952e-12 9.66096e-08 -1.27823e-10 -4.02242e-08 1.43281e-10)
(-2.89622e-11 1.42483e-11 1.23453e-07 -1.48513e-10 -2.987e-08 1.77475e-10)
(-4.40317e-11 2.58143e-12 1.39771e-07 -1.53308e-10 -1.10967e-08 1.9734e-10)
(-4.13452e-11 -1.99352e-11 1.39762e-07 -1.56129e-10 1.10973e-08 1.97475e-10)
(-2.19959e-11 -2.82391e-11 1.23429e-07 -1.55863e-10 2.98653e-08 1.77859e-10)
(-7.01229e-12 -1.40761e-11 9.65774e-08 -1.36756e-10 4.02118e-08 1.43768e-10)
(-1.52727e-11 7.49356e-12 6.79431e-08 -8.85473e-11 4.15958e-08 1.0382e-10)
(-2.54674e-11 9.68575e-12 4.55037e-08 -4.37553e-11 3.81596e-08 6.92226e-11)
(-9.4339e-12 1.51496e-11 4.9354e-08 8.05432e-12 -4.14019e-08 1.37958e-12)
(-3.16069e-11 1.39449e-11 7.38697e-08 2.7045e-11 -4.52377e-08 4.56195e-12)
(-4.94426e-11 1.08727e-11 1.05028e-07 4.02922e-11 -4.37362e-08 9.15041e-12)
(-6.57032e-11 4.58134e-13 1.34151e-07 5.2091e-11 -3.246e-08 1.36122e-11)
(-7.16554e-11 -1.08112e-11 1.51821e-07 5.48582e-11 -1.20534e-08 1.67972e-11)
(-6.67627e-11 -2.07374e-11 1.51804e-07 4.97165e-11 1.20544e-08 1.70462e-11)
(-5.29958e-11 -2.59302e-11 1.34104e-07 3.86691e-11 3.24509e-08 1.43268e-11)
(-3.40112e-11 -2.66131e-11 1.04966e-07 2.39389e-11 4.3712e-08 1.00723e-11)
(-1.77272e-11 -2.11392e-11 7.38067e-08 1.21755e-11 4.52005e-08 5.55172e-12)
(-7.09081e-13 -1.64959e-11 4.93002e-08 -1.50174e-12 4.13575e-08 2.21082e-12)
(-4.00952e-12 -2.24845e-12 4.62592e-08 -1.17405e-11 -3.87975e-08 1.575e-11)
(-4.98937e-12 -3.23828e-12 6.91184e-08 -1.89896e-11 -4.23193e-08 2.3979e-11)
(-7.25995e-12 -3.83894e-12 9.82586e-08 -2.64195e-11 -4.09136e-08 3.36795e-11)
(-1.15402e-11 -8.68099e-12 1.25556e-07 -3.07083e-11 -3.03796e-08 4.22485e-11)
(-1.22752e-11 -1.94727e-11 1.42136e-07 -3.51389e-11 -1.1284e-08 4.74141e-11)
(-4.72897e-12 -2.92773e-11 1.42106e-07 -4.30783e-11 1.12855e-08 4.78072e-11)
(8.05365e-12 -3.06814e-11 1.25474e-07 -5.14357e-11 3.03635e-08 4.33821e-11)
(1.6508e-11 -2.04745e-11 9.81486e-08 -5.16665e-11 4.0871e-08 3.51585e-11)
(1.62993e-11 -7.84201e-12 6.90067e-08 -4.18846e-11 4.22534e-08 2.55853e-11)
(9.22073e-12 1.95017e-13 4.61626e-08 -2.63417e-11 3.87179e-08 1.71209e-11)
(-2.34879e-13 4.19297e-12 4.73671e-08 2.57287e-12 -3.97299e-08 -2.33799e-12)
(-1.03456e-11 1.6907e-12 7.08045e-08 1.27842e-11 -4.33542e-08 -2.4386e-12)
(-1.97876e-11 -6.45546e-12 1.00636e-07 2.19018e-11 -4.19038e-08 -2.11424e-12)
(-2.41644e-11 -1.90686e-11 1.28544e-07 2.55048e-11 -3.11017e-08 -1.34047e-12)
(-2.0464e-11 -3.16113e-11 1.45475e-07 2.08885e-11 -1.15479e-08 -4.2445e-13)
(-9.65876e-12 -3.83465e-11 1.45422e-07 9.475e-12 1.15499e-08 1.8376e-13)
(3.91986e-12 -3.74836e-11 1.28401e-07 -4.33327e-12 3.10729e-08 4.13412e-13)
(1.43053e-11 -2.851e-11 1.00441e-07 -1.44895e-11 4.18279e-08 1.84175e-13)
(2.02103e-11 -1.76415e-11 7.06048e-08 -2.02729e-11 4.3236e-08 6.26071e-14)
(1.86062e-11 -7.11755e-12 4.71931e-08 -1.84134e-11 3.95862e-08 -1.92733e-13)
(-1.59812e-12 -7.3588e-13 4.66814e-08 3.53971e-14 -3.9152e-08 1.56272e-12)
(-6.7415e-12 -4.31235e-12 6.97278e-08 3.87138e-12 -4.26912e-08 2.87013e-12)
(-1.18651e-11 -1.29245e-11 9.90688e-08 7.22483e-12 -4.12485e-08 4.64025e-12)
(-1.24731e-11 -2.51659e-11 1.26518e-07 5.88819e-12 -3.06096e-08 6.58495e-12)
(-6.26694e-12 -3.79715e-11 1.43158e-07 -1.88081e-12 -1.13623e-08 8.14775e-12)
(6.39677e-12 -4.43688e-11 1.43073e-07 -1.53061e-11 1.13648e-08 8.90935e-12)
(2.05309e-11 -4.15913e-11 1.26288e-07 -2.93072e-11 3.05628e-08 8.77629e-12)
(2.83521e-11 -2.85329e-11 9.87562e-08 -3.58384e-11 4.11264e-08 7.48627e-12)
(2.96845e-11 -1.48387e-11 6.94063e-08 -3.56322e-11 4.25007e-08 5.94762e-12)
(2.10542e-11 -2.86218e-12 4.64007e-08 -2.52315e-11 3.89201e-08 4.17724e-12)
(-4.73003e-12 1.38783e-13 4.70815e-08 7.40364e-12 -3.94879e-08 -2.67361e-12)
(-1.15402e-11 -4.82635e-12 7.03158e-08 1.49927e-11 -4.30506e-08 -3.45244e-12)
(-1.6584e-11 -1.50519e-11 9.987e-08 2.06451e-11 -4.15806e-08 -4.06106e-12)
(-1.58198e-11 -2.79031e-11 1.27493e-07 1.99967e-11 -3.08436e-08 -4.17688e-12)
(-8.07712e-12 -3.86762e-11 1.44214e-07 1.18178e-11 -1.14442e-08 -3.74064e-12)
(4.31547e-12 -4.22921e-11 1.4409e-07 -1.3629e-12 1.14472e-08 -2.95257e-12)
(1.66851e-11 -3.81681e-11 1.27159e-07 -1.47764e-11 3.07749e-08 -1.90878e-12)
(2.34056e-11 -2.6388e-11 9.94172e-08 -2.22369e-11 4.14032e-08 -1.16871e-12)
(2.55907e-11 -1.48379e-11 6.98516e-08 -2.52373e-11 4.27752e-08 -3.53415e-13)
(1.89954e-11 -4.01966e-12 4.66776e-08 -1.88995e-11 3.9154e-08 -9.59151e-14)
(-1.13422e-11 -2.33134e-12 4.69772e-08 1.18348e-11 -3.93994e-08 -4.92572e-13)
(-1.54231e-11 -8.81557e-12 7.0138e-08 1.60331e-11 -4.294e-08 -6.10027e-13)
(-1.59275e-11 -1.77882e-11 9.9592e-08 1.64894e-11 -4.14632e-08 -5.61947e-13)
(-1.20711e-11 -2.72334e-11 1.2711e-07 1.23948e-11 -3.0749e-08 -3.23734e-13)
(-3.69082e-12 -3.31026e-11 1.43746e-07 3.46688e-12 -1.14054e-08 2.23938e-13)
(6.37504e-12 -3.30057e-11 1.43586e-07 -7.23374e-12 1.1409e-08 8.58701e-13)
(1.46339e-11 -2.73243e-11 1.26679e-07 -1.61495e-11 3.06602e-08 1.51561e-12)
(1.75015e-11 -1.70356e-11 9.90121e-08 -1.92099e-11 4.12355e-08 1.70839e-12)
(1.69466e-11 -8.45682e-12 6.95476e-08 -1.87459e-11 4.25894e-08 1.79931e-12)
(1.03564e-11 -1.35281e-12 4.64671e-08 -1.17839e-11 3.89776e-08 1.42743e-12)
(-2.01249e-11 -3.5097e-12 4.70971e-08 2.0209e-11 -3.95002e-08 -8.40942e-14)
(-2.34996e-11 -1.22455e-11 7.03191e-08 2.37832e-11 -4.30509e-08 -2.83616e-13)
(-2.00114e-11 -2.04403e-11 9.98443e-08 2.0366e-11 -4.15678e-08 -3.5456e-13)
(-1.31536e-11 -2.65986e-11 1.27417e-07 1.36304e-11 -3.08225e-08 -4.76861e-13)
(-3.92385e-12 -2.60683e-11 1.44071e-07 4.16065e-12 -1.14299e-08 -2.36802e-13)
(3.16988e-12 -2.06219e-11 1.43884e-07 -3.30423e-12 1.14342e-08 1.3435e-13)
(6.04563e-12 -1.26938e-11 1.26914e-07 -6.67892e-12 3.07188e-08 6.33293e-13)
(4.75861e-12 -5.39829e-12 9.91721e-08 -5.68364e-12 4.13037e-08 9.25028e-13)
(2.10499e-12 -1.4619e-12 6.96407e-08 -3.17828e-12 4.26477e-08 1.07328e-12)
(-1.67334e-12 2.74348e-13 4.65166e-08 7.79671e-13 3.90198e-08 8.93665e-13)
(-2.85192e-11 -5.19187e-12 4.70169e-08 2.66657e-11 -3.94331e-08 1.85347e-12)
(-3.11594e-11 -1.633e-11 7.02079e-08 2.88049e-11 -4.29834e-08 2.35454e-12)
(-2.35698e-11 -2.38111e-11 9.96998e-08 2.04605e-11 -4.15082e-08 3.10931e-12)
(-1.37765e-11 -2.70906e-11 1.27242e-07 1.0362e-11 -3.07802e-08 3.41458e-12)
(-3.48742e-12 -2.09139e-11 1.43871e-07 -2.88842e-13 -1.14135e-08 3.77626e-12)
(1.36841e-12 -1.06996e-11 1.4367e-07 -5.20942e-12 1.14183e-08 3.84101e-12)
(-2.42659e-13 -2.97895e-13 1.26703e-07 -3.44382e-12 3.06692e-08 3.68648e-12)
(-5.31101e-12 4.98702e-12 9.89842e-08 2.02487e-12 4.12268e-08 3.28614e-12)
(-1.06913e-11 5.47613e-12 6.94919e-08 8.10952e-12 4.25575e-08 2.58178e-12)
(-1.2424e-11 2.34368e-12 4.64105e-08 1.05598e-11 3.8931e-08 1.86423e-12)
(-3.15197e-11 -5.41102e-12 4.69441e-08 2.88107e-11 -3.93727e-08 2.70894e-12)
(-3.44916e-11 -1.74272e-11 7.01162e-08 3.09046e-11 -4.29287e-08 3.58702e-12)
(-2.53039e-11 -2.40715e-11 9.95936e-08 2.04546e-11 -4.14654e-08 4.84928e-12)
(-1.47946e-11 -2.58616e-11 1.27128e-07 9.39672e-12 -3.07538e-08 5.39783e-12)
(-4.52106e-12 -1.692e-11 1.43755e-07 -1.26094e-12 -1.14046e-08 5.782e-12)
(-1.07237e-12 -4.74238e-12 1.43554e-07 -4.46086e-12 1.14094e-08 5.53323e-12)
(-4.79521e-12 6.29062e-12 1.26591e-07 -2.95967e-14 3.0643e-08 4.82481e-12)
(-1.09995e-11 9.77335e-12 9.88833e-08 7.07157e-12 4.11859e-08 3.92788e-12)
(-1.6932e-11 8.33085e-12 6.94106e-08 1.42044e-11 4.25087e-08 2.72761e-12)
(-1.63892e-11 2.7647e-12 4.63524e-08 1.45552e-11 3.88822e-08 1.83406e-12)
(-2.57184e-11 -4.25267e-12 4.67997e-08 2.25046e-11 -3.9252e-08 3.2138e-12)
(-2.83124e-11 -1.39234e-11 6.99153e-08 2.39315e-11 -4.28071e-08 4.3809e-12)
(-2.0103e-11 -1.80051e-11 9.93328e-08 1.41109e-11 -4.13585e-08 5.99212e-12)
(-1.20055e-11 -1.84405e-11 1.26824e-07 5.24783e-12 -3.06816e-08 6.75771e-12)
(-4.44757e-12 -1.03136e-11 1.43433e-07 -2.65239e-12 -1.13802e-08 7.09996e-12)
(-2.50832e-12 -6.87106e-13 1.43247e-07 -4.00867e-12 1.13844e-08 6.51698e-12)
(-5.8086e-12 7.26526e-12 1.26326e-07 5.24953e-13 3.05788e-08 5.28364e-12)
(-1.00798e-11 8.59166e-12 9.86779e-08 6.18532e-12 4.11005e-08 3.89449e-12)
(-1.39103e-11 6.7232e-12 6.92683e-08 1.15442e-11 4.24216e-08 2.3661e-12)
(-1.1731e-11 1.8397e-12 4.62616e-08 1.03271e-11 3.88056e-08 1.40392e-12)
(-1.17281e-11 -1.69368e-12 4.66677e-08 8.7169e-12 -3.91416e-08 3.01122e-12)
(-1.21103e-11 -5.27132e-12 6.97319e-08 8.03191e-12 -4.26961e-08 4.07835e-12)
(-6.72571e-12 -3.98173e-12 9.90957e-08 1.30865e-12 -4.12614e-08 5.41706e-12)
(-3.98168e-12 -1.52072e-12 1.26551e-07 -1.95867e-12 -3.06175e-08 5.94035e-12)
(-2.66738e-12 3.81414e-12 1.43156e-07 -3.21818e-12 -1.13601e-08 5.88556e-12)
(-4.01367e-12 7.14932e-12 1.43e-07 -9.01944e-13 1.13631e-08 4.91561e-12)
(-6.21447e-12 7.89145e-12 1.26136e-07 2.80859e-12 3.05313e-08 3.40588e-12)
(-6.67608e-12 5.17688e-12 9.85524e-08 4.76155e-12 4.10469e-08 1.91453e-12)
(-5.9326e-12 2.53792e-12 6.91985e-08 5.29348e-12 4.23777e-08 6.39112e-13)
(-2.11237e-12 -2.25552e-14 4.62277e-08 2.08552e-12 3.87763e-08 2.68541e-14)
(4.00381e-12 9.61114e-13 4.65355e-08 -6.84376e-12 -3.90312e-08 2.83995e-12)
(7.72841e-12 4.99008e-12 6.95526e-08 -1.13947e-11 -4.25875e-08 3.6663e-12)
(1.05817e-11 1.33492e-11 9.88713e-08 -1.49691e-11 -4.11697e-08 4.38738e-12)
(7.57435e-12 2.08095e-11 1.26304e-07 -1.19412e-11 -3.05599e-08 4.36689e-12)
(1.01066e-12 2.42392e-11 1.42922e-07 -4.67048e-12 -1.13441e-08 3.65983e-12)
(-5.56362e-12 2.10669e-11 1.42816e-07 3.28861e-12 1.13456e-08 2.27501e-12)
(-8.24853e-12 1.33419e-11 1.26024e-07 7.58448e-12 3.0501e-08 6.64056e-13)
(-5.8718e-12 5.0515e-12 9.85091e-08 6.53333e-12 4.1026e-08 -6.61537e-13)
(-6.40259e-13 7.27093e-15 6.92028e-08 2.03806e-12 4.23781e-08 -1.3978e-12)
(4.83851e-12 -1.27565e-12 4.62524e-08 -3.32693e-12 3.87957e-08 -1.51158e-12)
(1.24325e-11 2.25547e-12 4.64116e-08 -1.53017e-11 -3.8928e-08 2.86916e-12)
(2.00911e-11 1.1285e-11 6.93976e-08 -2.35754e-11 -4.24942e-08 3.48433e-12)
(2.22398e-11 2.47219e-11 9.86994e-08 -2.58232e-11 -4.11003e-08 3.58336e-12)
(1.63389e-11 3.69263e-11 1.26142e-07 -1.93196e-11 -3.05235e-08 2.98068e-12)
(4.4992e-12 4.09152e-11 1.42806e-07 -6.14505e-12 -1.1338e-08 1.64586e-12)
(-6.74284e-12 3.50095e-11 1.42769e-07 6.78005e-12 1.13383e-08 -3.7205e-14)
(-1.18206e-11 2.2401e-11 1.26049e-07 1.34035e-11 3.05034e-08 -1.58294e-12)
(-9.60753e-12 9.69681e-12 9.85886e-08 1.21689e-11 4.10556e-08 -2.56136e-12)
(-2.83378e-12 1.45368e-12 6.93031e-08 5.59086e-12 4.24367e-08 -2.75708e-12)
(3.73937e-12 -9.94485e-13 4.63462e-08 -1.29133e-12 3.88729e-08 -2.44804e-12)
(7.04608e-12 1.22567e-12 4.62784e-08 -1.01059e-11 -3.88172e-08 3.05985e-12)
(1.50755e-11 8.60197e-12 6.92389e-08 -1.87723e-11 -4.23991e-08 3.6968e-12)
(1.84321e-11 2.05501e-11 9.8539e-08 -2.21018e-11 -4.10363e-08 3.66971e-12)
(1.47933e-11 3.2869e-11 1.26014e-07 -1.77022e-11 -3.04957e-08 2.90891e-12)
(4.82861e-12 3.8769e-11 1.42742e-07 -6.25502e-12 -1.13364e-08 1.42641e-12)
(-6.14857e-12 3.58769e-11 1.42784e-07 6.37908e-12 1.13359e-08 -2.30511e-13)
(-1.30619e-11 2.62133e-11 1.26134e-07 1.46617e-11 3.05203e-08 -1.59978e-12)
(-1.3769e-11 1.44843e-11 9.87126e-08 1.60612e-11 4.1104e-08 -2.29217e-12)
(-1.00022e-11 5.46246e-12 6.94312e-08 1.23357e-11 4.25126e-08 -2.33357e-12)
(-4.2894e-12 6.41516e-13 4.64562e-08 6.28386e-12 3.89639e-08 -1.99447e-12)
(-8.16517e-12 -1.35168e-12 4.61418e-08 5.11599e-12 -3.87037e-08 3.04918e-12)
(-4.05465e-12 -1.32269e-12 6.90724e-08 1.64236e-13 -4.22996e-08 3.89041e-12)
(1.11174e-12 2.97632e-12 9.83672e-08 -5.41708e-12 -4.0968e-08 4.30535e-12)
(3.24909e-12 9.81426e-12 1.25872e-07 -7.19609e-12 -3.04649e-08 3.947e-12)
(1.46205e-12 1.69687e-11 1.4266e-07 -4.43247e-12 -1.13335e-08 2.97041e-12)
(-3.7772e-12 2.06524e-11 1.42773e-07 2.03305e-12 1.13318e-08 1.74415e-12)
(-1.01738e-11 2.02974e-11 1.26179e-07 9.52905e-12 3.05286e-08 6.44712e-13)
(-1.45078e-11 1.51135e-11 9.87859e-08 1.44458e-11 4.11327e-08 6.19468e-14)
(-1.66707e-11 8.99171e-12 6.9506e-08 1.6944e-11 4.25571e-08 -2.73297e-13)
(-1.37503e-11 2.5389e-12 4.65199e-08 1.40586e-11 3.90166e-08 -3.08315e-13)
(-1.94874e-11 -3.12376e-12 4.60136e-08 1.68288e-11 -3.85969e-08 2.6586e-12)
(-2.06208e-11 -9.85225e-12 6.89023e-08 1.69177e-11 -4.21975e-08 3.70319e-12)
(-1.48915e-11 -1.30067e-11 9.81679e-08 1.00732e-11 -4.08881e-08 4.81834e-12)
(-8.38548e-12 -1.25034e-11 1.25673e-07 3.15727e-12 -3.04201e-08 5.22821e-12)
(-2.65953e-12 -5.25444e-12 1.4249e-07 -2.52046e-12 -1.1323e-08 5.17999e-12)
(-2.01028e-12 3.99157e-12 1.42646e-07 -2.62781e-12 1.13195e-08 4.63809e-12)
(-7.13902e-12 1.24211e-11 1.26093e-07 3.32958e-12 3.05067e-08 3.80944e-12)
(-1.41084e-11 1.38331e-11 9.87295e-08 1.09767e-11 4.11087e-08 3.13166e-12)
(-2.14514e-11 1.12097e-11 6.94675e-08 1.92308e-11 4.25335e-08 2.22059e-12)
(-2.08858e-11 3.84365e-12 4.64948e-08 1.92727e-11 3.89952e-08 1.61305e-12)
(-1.29259e-11 -1.88249e-12 4.59107e-08 1.09965e-11 -3.85108e-08 1.92941e-12)
(-1.53349e-11 -7.15884e-12 6.87505e-08 1.23648e-11 -4.21059e-08 2.97007e-12)
(-1.12476e-11 -9.26833e-12 9.79633e-08 6.79099e-12 -4.08048e-08 4.45663e-12)
(-6.68479e-12 -8.46094e-12 1.25432e-07 1.17484e-12 -3.0364e-08 5.50995e-12)
(-2.68043e-12 -8.86045e-13 1.42237e-07 -3.569e-12 -1.13049e-08 6.24943e-12)
(-3.75439e-12 8.74694e-12 1.42406e-07 -2.57886e-12 1.12991e-08 6.33325e-12)
(-1.07919e-11 1.74357e-11 1.25881e-07 5.07426e-12 3.04549e-08 5.71759e-12)
(-1.90956e-11 1.77937e-11 9.85537e-08 1.41766e-11 4.10359e-08 4.91909e-12)
(-2.75974e-11 1.39417e-11 6.93319e-08 2.40526e-11 4.24511e-08 3.54484e-12)
(-2.59039e-11 4.50973e-12 4.63975e-08 2.33446e-11 3.89135e-08 2.55938e-12)
(1.22335e-11 2.40183e-12 4.58407e-08 -1.33698e-11 -3.84518e-08 1.13629e-12)
(1.47393e-11 8.26049e-12 6.86359e-08 -1.6677e-11 -4.20359e-08 1.93765e-12)
(1.55525e-11 1.75911e-11 9.77887e-08 -1.87167e-11 -4.07324e-08 3.16424e-12)
(1.16909e-11 2.79789e-11 1.25201e-07 -1.60721e-11 -3.03086e-08 4.38115e-12)
(3.01237e-12 3.73402e-11 1.41967e-07 -8.34036e-12 -1.12839e-08 5.32799e-12)
(-9.52091e-12 4.18991e-11 1.42127e-07 3.8008e-12 1.12768e-08 5.72011e-12)
(-2.31977e-11 4.06235e-11 1.25624e-07 1.79751e-11 3.03929e-08 5.22255e-12)
(-3.20856e-11 3.01658e-11 9.83404e-08 2.7629e-11 4.09475e-08 4.45661e-12)
(-3.74077e-11 1.85836e-11 6.91722e-08 3.44044e-11 4.23537e-08 3.00323e-12)
(-3.04422e-11 4.88805e-12 4.62865e-08 2.83841e-11 3.88202e-08 2.05814e-12)
(4.33995e-11 7.51793e-12 4.58001e-08 -4.39186e-11 -3.84175e-08 5.19127e-13)
(5.48425e-11 2.87335e-11 6.85671e-08 -5.57752e-11 -4.19932e-08 9.32717e-13)
(5.23036e-11 5.40639e-11 9.76761e-08 -5.36474e-11 -4.06848e-08 1.34376e-12)
(3.79795e-11 7.88548e-11 1.2504e-07 -4.01675e-11 -3.02688e-08 2.18792e-12)
(1.19773e-11 9.10905e-11 1.41769e-07 -1.46825e-11 -1.12674e-08 2.70513e-12)
(-1.64057e-11 8.823e-11 1.41917e-07 1.33653e-11 1.12606e-08 3.04034e-12)
(-3.88741e-11 7.21488e-11 1.25433e-07 3.62544e-11 3.03469e-08 2.61971e-12)
(-4.80356e-11 4.63414e-11 9.81908e-08 4.58954e-11 4.08852e-08 2.14027e-12)
(-4.819e-11 2.40192e-11 6.90705e-08 4.71375e-11 4.22912e-08 1.05246e-12)
(-3.43429e-11 5.20033e-12 4.62232e-08 3.37871e-11 3.87668e-08 5.55734e-13)
(6.3864e-11 1.07805e-11 4.57792e-08 -6.39385e-11 -3.83998e-08 7.45437e-14)
(8.26017e-11 4.28374e-11 6.8539e-08 -8.27116e-11 -4.19753e-08 1.09938e-13)
(7.77613e-11 7.89803e-11 9.76345e-08 -7.73696e-11 -4.06663e-08 -3.91769e-13)
(5.67351e-11 1.14107e-10 1.24979e-07 -5.65852e-11 -3.02528e-08 -1.49892e-13)
(1.88793e-11 1.28118e-10 1.41694e-07 -1.8567e-11 -1.12603e-08 -3.12215e-13)
(-2.02779e-11 1.19768e-10 1.41841e-07 2.04757e-11 1.12554e-08 -1.97777e-13)
(-4.84264e-11 9.29491e-11 1.25374e-07 4.89345e-11 3.03328e-08 -5.08124e-13)
(-5.7407e-11 5.65241e-11 9.81593e-08 5.79499e-11 4.08716e-08 -5.42877e-13)
(-5.36754e-11 2.70291e-11 6.90653e-08 5.47224e-11 4.22873e-08 -1.04699e-12)
(-3.53732e-11 5.23948e-12 4.6233e-08 3.63454e-11 3.87744e-08 -9.72181e-13)
(6.65123e-11 1.11366e-11 4.57767e-08 -6.57968e-11 -3.83981e-08 -7.15476e-13)
(8.60468e-11 4.43957e-11 6.85481e-08 -8.50166e-11 -4.19806e-08 -1.03026e-12)
(7.92235e-11 7.95651e-11 9.76585e-08 -7.70442e-11 -4.06755e-08 -2.17923e-12)
(5.76967e-11 1.13672e-10 1.25016e-07 -5.53101e-11 -3.02604e-08 -2.38661e-12)
(1.97978e-11 1.25039e-10 1.41742e-07 -1.68305e-11 -1.12628e-08 -2.96736e-12)
(-1.79982e-11 1.14515e-10 1.41899e-07 2.09182e-11 1.12608e-08 -2.91998e-12)
(-4.38008e-11 8.64561e-11 1.25442e-07 4.67593e-11 3.03494e-08 -2.95851e-12)
(-5.08517e-11 5.10438e-11 9.82339e-08 5.33622e-11 4.09022e-08 -2.51042e-12)
(-4.58977e-11 2.3459e-11 6.91402e-08 4.83183e-11 4.23324e-08 -2.42055e-12)
(-2.8557e-11 4.23816e-12 4.62995e-08 3.04313e-11 3.88296e-08 -1.87429e-12)
(5.48478e-11 9.37487e-12 4.58235e-08 -5.2124e-11 -3.84376e-08 -2.72386e-12)
(6.62223e-11 3.40115e-11 6.86233e-08 -6.27059e-11 -4.20259e-08 -3.5164e-12)
(5.51969e-11 5.44114e-11 9.77659e-08 -5.01861e-11 -4.0719e-08 -5.01073e-12)
(3.79142e-11 7.20771e-11 1.25151e-07 -3.25958e-11 -3.02915e-08 -5.31836e-12)
(1.28505e-11 7.19018e-11 1.41895e-07 -7.12582e-12 -1.12735e-08 -5.72465e-12)
(-8.00596e-12 5.98636e-11 1.42059e-07 1.33071e-11 1.12746e-08 -5.30115e-12)
(-1.91278e-11 4.01503e-11 1.25596e-07 2.38371e-11 3.03875e-08 -4.70935e-12)
(-1.95308e-11 2.0544e-11 9.83716e-08 2.32476e-11 4.09597e-08 -3.71683e-12)
(-1.4766e-11 7.86748e-12 6.92558e-08 1.77352e-11 4.24031e-08 -2.96918e-12)
(-5.6165e-12 6.70168e-13 4.63893e-08 7.69718e-12 3.89049e-08 -2.08068e-12)
(3.62026e-11 6.61982e-12 4.5992e-08 -2.97231e-11 -3.85783e-08 -6.47949e-12)
(3.19122e-11 1.59613e-11 6.88459e-08 -2.3777e-11 -4.21598e-08 -8.13524e-12)
(1.30701e-11 1.04477e-11 9.80342e-08 -3.054e-12 -4.08276e-08 -1.0016e-11)
(2.00665e-12 -2.48441e-12 1.25443e-07 8.24001e-12 -3.03591e-08 -1.02467e-11)
(-5.78555e-13 -2.50025e-11 1.42188e-07 1.05234e-11 -1.1294e-08 -9.94487e-12)
(9.56189e-12 -4.15366e-11 1.42328e-07 -9.78807e-13 1.12981e-08 -8.58308e-12)
(2.63116e-11 -4.7097e-11 1.25825e-07 -1.95761e-11 3.04443e-08 -6.7355e-12)
(3.91528e-11 -3.75427e-11 9.85506e-08 -3.4272e-11 4.1035e-08 -4.88085e-12)
(4.43513e-11 -2.21796e-11 6.93864e-08 -4.12779e-11 4.24836e-08 -3.07338e-12)
(3.76979e-11 -6.22245e-12 4.64772e-08 -3.59023e-11 3.89793e-08 -1.79557e-12)
(1.36738e-11 3.12742e-12 4.6358e-08 -2.57338e-12 -3.88831e-08 -1.11004e-11)
(-8.73372e-12 -5.67187e-12 6.93099e-08 2.26781e-11 -4.24383e-08 -1.39444e-11)
(-3.61001e-11 -4.12618e-11 9.85679e-08 5.25503e-11 -4.10433e-08 -1.64502e-11)
(-4.00826e-11 -9.04862e-11 1.25994e-07 5.6807e-11 -3.04863e-08 -1.67244e-11)
(-1.64234e-11 -1.40195e-10 1.42701e-07 3.19149e-11 -1.13299e-08 -1.54915e-11)
(3.0551e-11 -1.63275e-10 1.4276e-07 -1.7771e-11 1.13359e-08 -1.27799e-11)
(8.1154e-11 -1.5302e-10 1.26153e-07 -7.20764e-11 3.0526e-08 -9.0776e-12)
(1.10293e-10 -1.0841e-10 9.87714e-08 -1.04326e-10 4.11287e-08 -5.96737e-12)
(1.16634e-10 -5.92213e-11 6.95161e-08 -1.13973e-10 4.25647e-08 -2.66085e-12)
(8.96305e-11 -1.45447e-11 4.65404e-08 -8.86586e-11 3.90343e-08 -9.71935e-13)
(-1.14537e-11 -1.33058e-12 4.69282e-08 2.57902e-11 -3.93575e-08 -1.43365e-11)
(-4.65034e-11 -2.62676e-11 7.00302e-08 6.47539e-11 -4.28712e-08 -1.82505e-11)
(-7.65865e-11 -8.46934e-11 9.93953e-08 9.8006e-11 -4.13785e-08 -2.14194e-11)
(-7.25331e-11 -1.60125e-10 1.2684e-07 9.45262e-11 -3.06822e-08 -2.19931e-11)
(-2.76479e-11 -2.27478e-10 1.43468e-07 4.76799e-11 -1.13837e-08 -2.0032e-11)
(4.65808e-11 -2.53077e-10 1.43374e-07 -3.05044e-11 1.139e-08 -1.60764e-11)
(1.21046e-10 -2.29653e-10 1.26578e-07 -1.10498e-10 3.06328e-08 -1.05482e-11)
(1.60424e-10 -1.58393e-10 9.90155e-08 -1.54213e-10 4.12337e-08 -6.21014e-12)
(1.66828e-10 -8.50792e-11 6.96173e-08 -1.65273e-10 4.26297e-08 -1.55434e-12)
(1.23146e-10 -1.98019e-11 4.65529e-08 -1.23462e-10 3.9048e-08 3.15949e-13)
(-3.62035e-11 -6.34158e-12 4.75892e-08 4.97434e-11 -3.99078e-08 -1.35399e-11)
(-7.12725e-11 -4.01206e-11 7.08753e-08 8.896e-11 -4.33801e-08 -1.76875e-11)
(-9.25978e-11 -1.02577e-10 1.00381e-07 1.13616e-10 -4.17792e-08 -2.10185e-11)
(-8.01345e-11 -1.78521e-10 1.27856e-07 1.02202e-10 -3.09186e-08 -2.20671e-11)
(-2.81228e-11 -2.39725e-10 1.44383e-07 4.81588e-11 -1.1448e-08 -2.00361e-11)
(4.83156e-11 -2.57921e-10 1.44082e-07 -3.2541e-11 1.14532e-08 -1.57746e-11)
(1.20882e-10 -2.28628e-10 1.27029e-07 -1.1127e-10 3.07478e-08 -9.61259e-12)
(1.56222e-10 -1.54303e-10 9.92302e-08 -1.51291e-10 4.13284e-08 -4.93095e-12)
(1.60573e-10 -8.21459e-11 6.96571e-08 -1.60583e-10 4.26586e-08 9.27335e-15)
(1.13822e-10 -1.81157e-11 4.65e-08 -1.15409e-10 3.90078e-08 1.58658e-12)
(-5.3367e-11 -1.04977e-11 4.81236e-08 6.08241e-11 -4.03532e-08 -7.45717e-12)
(-7.31227e-11 -4.1599e-11 7.15789e-08 8.36387e-11 -4.38056e-08 -1.0516e-11)
(-7.37993e-11 -8.32735e-11 1.01232e-07 8.68797e-11 -4.21267e-08 -1.30804e-11)
(-5.49461e-11 -1.27444e-10 1.28758e-07 6.95583e-11 -3.11294e-08 -1.46122e-11)
(-1.53946e-11 -1.54333e-10 1.45201e-07 2.88946e-11 -1.15056e-08 -1.35e-11)
(3.14228e-11 -1.5494e-10 1.44699e-07 -2.08677e-11 1.15093e-08 -1.05551e-11)
(7.07326e-11 -1.30899e-10 1.27392e-07 -6.48603e-11 3.08422e-08 -5.87234e-12)
(8.61145e-11 -8.44394e-11 9.93633e-08 -8.37613e-11 4.13899e-08 -2.35323e-12)
(8.69319e-11 -4.46199e-11 6.9631e-08 -8.82196e-11 4.26475e-08 1.28776e-12)
(5.59232e-11 -8.59872e-12 4.64026e-08 -5.80534e-11 3.89301e-08 2.13018e-12)
(-5.35968e-11 -1.15378e-11 4.82973e-08 5.10271e-11 -4.04992e-08 2.56971e-12)
(-4.71988e-11 -2.75097e-11 7.18447e-08 4.52864e-11 -4.39694e-08 1.91234e-12)
(-2.22141e-11 -2.78507e-11 1.01606e-07 2.10512e-11 -4.22829e-08 1.16289e-12)
(-2.32892e-12 -1.57319e-11 1.29201e-07 2.81908e-12 -3.12355e-08 -4.90155e-13)
(6.91537e-12 1.0618e-11 1.45625e-07 -5.88023e-12 -1.15363e-08 -1.03515e-12)
(-9.87049e-13 3.25098e-11 1.45016e-07 1.86847e-12 1.15389e-08 -8.81425e-13)
(-1.81861e-11 4.0815e-11 1.27554e-07 1.79437e-11 3.08862e-08 2.42461e-13)
(-3.34865e-11 3.46433e-11 9.93845e-08 3.23505e-11 4.14035e-08 1.13598e-12)
(-3.70817e-11 1.88418e-11 6.95628e-08 3.50906e-11 4.26095e-08 1.99105e-12)
(-3.67047e-11 6.44734e-12 4.63067e-08 3.49173e-11 3.8852e-08 1.7874e-12)
(-2.99906e-11 -7.72735e-12 4.79933e-08 1.74753e-11 -4.02478e-08 1.25153e-11)
(3.44573e-12 5.09394e-13 7.15077e-08 -1.83053e-11 -4.3771e-08 1.48596e-11)
(4.7607e-11 4.82256e-11 1.0129e-07 -6.41879e-11 -4.21596e-08 1.65809e-11)
(6.06163e-11 1.21149e-10 1.2895e-07 -7.6226e-11 -3.11811e-08 1.56097e-11)
(3.07872e-11 1.99724e-10 1.45441e-07 -4.43446e-11 -1.15249e-08 1.35574e-11)
(-3.83354e-11 2.40252e-10 1.44875e-07 2.77039e-11 1.15272e-08 1.06315e-11)
(-1.15872e-10 2.27793e-10 1.27431e-07 1.08494e-10 3.08578e-08 7.37769e-12)
(-1.62325e-10 1.62616e-10 9.92749e-08 1.57271e-10 4.13595e-08 5.05458e-12)
(-1.70915e-10 8.74824e-11 6.94748e-08 1.68501e-10 4.25566e-08 2.41319e-12)
(-1.34433e-10 2.22767e-11 4.6249e-08 1.33335e-10 3.88036e-08 1.09831e-12)
(1.24034e-11 3.43901e-13 4.73017e-08 -3.03873e-11 -3.9673e-08 1.7984e-11)
(6.25961e-11 3.35683e-11 7.06541e-08 -8.53599e-11 -4.32597e-08 2.27638e-11)
(1.097e-10 1.16922e-10 1.00343e-07 -1.36417e-10 -4.17779e-08 2.6716e-11)
(1.09046e-10 2.30157e-10 1.28024e-07 -1.36324e-10 -3.09683e-08 2.72786e-11)
(4.6033e-11 3.37381e-10 1.44637e-07 -7.08256e-11 -1.14692e-08 2.47926e-11)
(-6.62004e-11 3.84091e-10 1.44252e-07 4.61876e-11 1.14728e-08 2.00128e-11)
(-1.83291e-10 3.54076e-10 1.27005e-07 1.69888e-10 3.07522e-08 1.34027e-11)
(-2.48651e-10 2.47562e-10 9.90252e-08 2.40113e-10 4.12538e-08 8.5386e-12)
(-2.61556e-10 1.33949e-10 6.93639e-08 2.58656e-10 4.2487e-08 2.89981e-12)
(-1.98617e-10 3.25673e-11 4.62262e-08 1.97891e-10 3.87818e-08 7.2557e-13)
(5.45337e-11 8.96864e-12 4.64817e-08 -7.16938e-11 -3.89898e-08 1.71601e-11)
(1.05582e-10 5.78893e-11 6.9595e-08 -1.28383e-10 -4.26211e-08 2.28007e-11)
(1.38619e-10 1.50177e-10 9.90949e-08 -1.66316e-10 -4.12698e-08 2.76974e-11)
(1.22984e-10 2.66669e-10 1.26723e-07 -1.52863e-10 -3.06649e-08 2.98792e-11)
(4.60326e-11 3.66038e-10 1.43448e-07 -7.41135e-11 -1.13844e-08 2.80809e-11)
(-7.29354e-11 4.02196e-10 1.43306e-07 4.95797e-11 1.13903e-08 2.33557e-11)
(-1.90949e-10 3.6376e-10 1.26362e-07 1.7521e-10 3.05913e-08 1.57387e-11)
(-2.53335e-10 2.50663e-10 9.86645e-08 2.43314e-10 4.10994e-08 1.00205e-11)
(-2.66982e-10 1.36577e-10 6.9222e-08 2.63892e-10 4.23967e-08 3.08992e-12)
(-1.97972e-10 3.21406e-11 4.62118e-08 1.97305e-10 3.87657e-08 6.67012e-13)
(7.46224e-11 1.37656e-11 4.58e-08 -8.61499e-11 -3.84205e-08 1.15275e-11)
(1.1176e-10 6.20801e-11 6.86775e-08 -1.27958e-10 -4.20649e-08 1.61982e-11)
(1.2179e-10 1.33994e-10 9.79569e-08 -1.42041e-10 -4.08033e-08 2.02505e-11)
(9.69076e-11 2.16684e-10 1.25475e-07 -1.19927e-10 -3.0371e-08 2.30193e-11)
(3.0859e-11 2.7549e-10 1.42259e-07 -5.3031e-11 -1.12981e-08 2.2172e-11)
(-5.58489e-11 2.8743e-10 1.42332e-07 3.70647e-11 1.13055e-08 1.87842e-11)
(-1.34569e-10 2.50806e-10 1.25691e-07 1.2207e-10 3.04226e-08 1.24983e-11)
(-1.70999e-10 1.67304e-10 9.82888e-08 1.63299e-10 4.09375e-08 7.70038e-12)
(-1.78442e-10 9.09285e-11 6.90756e-08 1.76682e-10 4.23029e-08 1.75995e-12)
(-1.2524e-10 1.97495e-11 4.61942e-08 1.25293e-10 3.87466e-08 -5.32303e-14)
(6.72637e-11 1.31698e-11 4.54186e-08 -7.18816e-11 -3.81012e-08 4.61793e-12)
(8.45656e-11 4.76498e-11 6.81383e-08 -9.14726e-11 -4.1736e-08 6.90706e-12)
(7.38318e-11 8.3122e-11 9.72503e-08 -8.2255e-11 -4.05115e-08 8.42326e-12)
(4.78414e-11 1.13475e-10 1.24661e-07 -5.77739e-11 -3.0178e-08 9.93249e-12)
(9.26183e-12 1.17984e-10 1.4146e-07 -1.84687e-11 -1.12399e-08 9.20685e-12)
(-2.37273e-11 1.00748e-10 1.41676e-07 1.65139e-11 1.12472e-08 7.21342e-12)
(-4.1585e-11 7.11886e-11 1.25257e-07 3.80103e-11 3.03113e-08 3.57466e-12)
(-3.96377e-11 3.65209e-11 9.80759e-08 3.87927e-11 4.08429e-08 8.45028e-13)
(-3.3599e-11 1.66133e-11 6.9028e-08 3.57983e-11 4.22691e-08 -2.19929e-12)
(-8.85193e-12 1.30001e-13 4.62265e-08 1.14559e-11 3.87703e-08 -2.60396e-12)
(3.82046e-11 8.29634e-12 4.53181e-08 -3.64604e-11 -3.80168e-08 -1.74429e-12)
(3.36211e-11 2.00591e-11 6.80011e-08 -3.10987e-11 -4.16513e-08 -2.52242e-12)