/*--------------------------------*- C++ -*----------------------------------*\
| =========                 |                                                 |
| \\      /  F ield         | OpenFOAM: The Open Source CFD Toolbox           |
|  \\    /   O peration     | Version:  2406                                  |
|   \\  /    A nd           | Website:  www.openfoam.com                      |
|    \\/     M anipulation  |                                                 |
\*---------------------------------------------------------------------------*/
FoamFile
{
    version     2.0;
    format      ascii;
    arch        "LSB;label=32;scalar=64";
    class       volVectorField;
    location    "1.1";
    object      U;
}
// * * * * * * * * * * * * * * * * * * * * * * * * * * * * * * * * * * * * * //

dimensions      [0 1 -1 0 0 0 0];

internalField   nonuniform List<vector> 
25000
(
(0.148205 0.148201 1.126)
(0.121743 0.159739 1.15799)
(0.0896847 0.168688 1.17581)
(0.0549351 0.174335 1.18522)
(0.0184834 0.177164 1.18921)
(-0.0184768 0.177164 1.18921)
(-0.0549287 0.174336 1.18522)
(-0.0896787 0.168688 1.17581)
(-0.121738 0.15974 1.15799)
(-0.1482 0.148202 1.126)
(0.159743 0.121739 1.15799)
(0.129923 0.129919 1.18715)
(0.0949545 0.136257 1.19911)
(0.0577475 0.140366 1.20344)
(0.0193644 0.14238 1.20464)
(-0.0193583 0.14238 1.20464)
(-0.0577415 0.140366 1.20344)
(-0.0949489 0.136257 1.19911)
(-0.129917 0.129919 1.18715)
(-0.159739 0.121739 1.15799)
(0.168691 0.08968 1.17581)
(0.13626 0.0949502 1.19911)
(0.0990601 0.099056 1.20625)
(0.0599555 0.101731 1.20696)
(0.0200521 0.103028 1.20625)
(-0.0200463 0.103028 1.20625)
(-0.0599499 0.101731 1.20696)
(-0.0990547 0.0990561 1.20625)
(-0.136255 0.0949504 1.19911)
(-0.168687 0.0896803 1.17581)
(0.174338 0.0549303 1.18522)
(0.140369 0.057743 1.20343)
(0.101735 0.0599512 1.20696)
(0.0613944 0.0613902 1.20523)
(0.0204987 0.0620843 1.20331)
(-0.020493 0.0620843 1.20331)
(-0.0613889 0.0613902 1.20523)
(-0.10173 0.0599512 1.20696)
(-0.140365 0.057743 1.20344)
(-0.174334 0.0549304 1.18522)
(0.177167 0.0184785 1.18921)
(0.142384 0.0193598 1.20464)
(0.103032 0.0200477 1.20625)
(0.0620885 0.0204943 1.20331)
(0.0207133 0.020709 1.2008)
(-0.0207077 0.020709 1.2008)
(-0.0620831 0.0204943 1.20331)
(-0.103027 0.0200476 1.20625)
(-0.142379 0.0193598 1.20464)
(-0.177163 0.0184785 1.18921)
(0.177167 -0.0184816 1.18921)
(0.142384 -0.0193629 1.20464)
(0.103032 -0.0200507 1.20625)
(0.0620885 -0.0204974 1.20331)
(0.0207133 -0.0207121 1.2008)
(-0.0207077 -0.0207121 1.2008)
(-0.0620831 -0.0204974 1.20331)
(-0.103027 -0.0200508 1.20625)
(-0.142379 -0.019363 1.20464)
(-0.177163 -0.0184817 1.18921)
(0.174338 -0.0549333 1.18522)
(0.140369 -0.057746 1.20343)
(0.101735 -0.0599542 1.20696)
(0.0613944 -0.0613932 1.20523)
(0.0204986 -0.0620873 1.20331)
(-0.020493 -0.0620873 1.20331)
(-0.0613889 -0.0613932 1.20523)
(-0.10173 -0.0599542 1.20696)
(-0.140365 -0.057746 1.20344)
(-0.174334 -0.0549335 1.18522)
(0.16869 -0.0896828 1.17581)
(0.13626 -0.0949531 1.19911)
(0.09906 -0.0990588 1.20625)
(0.0599555 -0.101734 1.20696)
(0.0200521 -0.103031 1.20625)
(-0.0200463 -0.103031 1.20625)
(-0.0599498 -0.101734 1.20696)
(-0.0990547 -0.0990588 1.20625)
(-0.136255 -0.0949532 1.19911)
(-0.168687 -0.0896832 1.17581)
(0.159743 -0.121741 1.15799)
(0.129922 -0.129921 1.18715)
(0.0949544 -0.136259 1.19911)
(0.0577474 -0.140368 1.20343)
(0.0193644 -0.142383 1.20464)
(-0.0193583 -0.142383 1.20464)
(-0.0577415 -0.140368 1.20343)
(-0.0949489 -0.136259 1.19911)
(-0.129917 -0.129921 1.18715)
(-0.159738 -0.121742 1.15799)
(0.148204 -0.148203 1.126)
(0.121743 -0.159742 1.15799)
(0.0896845 -0.16869 1.17581)
(0.054935 -0.174337 1.18522)
(0.0184833 -0.177166 1.18921)
(-0.0184768 -0.177166 1.18921)
(-0.0549286 -0.174337 1.18522)
(-0.0896785 -0.16869 1.17581)
(-0.121738 -0.159742 1.15799)
(-0.1482 -0.148204 1.126)
(0.0508935 0.0508751 1.26779)
(0.0455 0.0604744 1.35152)
(0.0364194 0.068376 1.40592)
(0.0233827 0.0741998 1.43821)
(0.0080566 0.0772003 1.45313)
(-0.00802688 0.077201 1.45313)
(-0.0233538 0.0742019 1.43821)
(-0.0363923 0.0683794 1.40592)
(-0.0454756 0.0604794 1.35153)
(-0.0508735 0.0508812 1.2678)
(0.0604909 0.0454795 1.35151)
(0.0552717 0.0552535 1.44013)
(0.0441433 0.0630627 1.48893)
(0.0282385 0.0685285 1.51467)
(0.00969721 0.0713402 1.52575)
(-0.00967066 0.0713406 1.52575)
(-0.0282127 0.0685299 1.51467)
(-0.044119 0.063065 1.48894)
(-0.0552497 0.0552569 1.44013)
(-0.0604727 0.045484 1.35153)
(0.0683902 0.0363982 1.40591)
(0.0630788 0.0441245 1.48893)
(0.0501906 0.0501736 1.53197)
(0.0319996 0.0543421 1.553)
(0.0109642 0.0564861 1.56141)
(-0.0109397 0.0564863 1.56141)
(-0.0319758 0.0543429 1.553)
(-0.0501682 0.0501749 1.53197)
(-0.0630587 0.0441264 1.48894)
(-0.0683737 0.036401 1.40592)
(0.0742125 0.0233612 1.4382)
(0.0685432 0.0282194 1.51467)
(0.0543579 0.0319821 1.55299)
(0.0345655 0.034549 1.57057)
(0.0118275 0.0358697 1.57707)
(-0.0118044 0.0358698 1.57707)
(-0.034543 0.0345493 1.57057)
(-0.0543368 0.0319827 1.553)
(-0.0685242 0.0282203 1.51468)
(-0.0741969 0.0233626 1.43821)
(0.0772116 0.00803544 1.45313)
(0.0713537 0.00967816 1.52575)
(0.0565011 0.0109465 1.56141)
(0.0358855 0.0118108 1.57706)
(0.0122735 0.0122572 1.58251)
(-0.012251 0.0122573 1.58251)
(-0.0358637 0.0118108 1.57707)
(-0.0564805 0.0109466 1.56141)
(-0.0713354 0.00967824 1.52575)
(-0.0771965 0.00803558 1.45314)
(0.0772112 -0.00804719 1.45313)
(0.0713535 -0.00968915 1.52574)
(0.0565009 -0.010957 1.5614)
(0.0358854 -0.0118209 1.57706)
(0.0122735 -0.0122672 1.58251)
(-0.0122511 -0.0122673 1.58251)
(-0.0358637 -0.0118212 1.57707)
(-0.0564805 -0.0109574 1.56141)
(-0.0713352 -0.00968982 1.52575)
(-0.0771962 -0.00804821 1.45314)
(0.0742115 -0.0233726 1.4382)
(0.0685424 -0.0282301 1.51467)
(0.0543574 -0.0319923 1.55299)
(0.0345652 -0.0345588 1.57057)
(0.0118274 -0.0358794 1.57707)
(-0.0118044 -0.0358795 1.57707)
(-0.0345429 -0.0345593 1.57057)
(-0.0543365 -0.0319932 1.553)
(-0.0685236 -0.0282315 1.51467)
(-0.0741961 -0.0233749 1.43821)
(0.0683886 -0.0364089 1.40591)
(0.0630776 -0.0441346 1.48893)
(0.0501898 -0.0501832 1.53197)
(0.0319991 -0.0543514 1.55299)
(0.0109639 -0.0564952 1.56141)
(-0.0109398 -0.0564954 1.56141)
(-0.0319756 -0.0543522 1.553)
(-0.0501677 -0.0501847 1.53197)
(-0.0630578 -0.044137 1.48894)
(-0.0683724 -0.0364125 1.40592)
(0.0604885 -0.0454892 1.35151)
(0.0552698 -0.0552627 1.44012)
(0.044142 -0.0630713 1.48893)
(0.0282377 -0.0685368 1.51467)
(0.00969679 -0.0713482 1.52575)
(-0.00967072 -0.0713487 1.52575)
(-0.0282124 -0.0685382 1.51467)
(-0.0441182 -0.0630737 1.48893)
(-0.0552484 -0.0552663 1.44013)
(-0.0604708 -0.0454943 1.35152)
(0.0508906 -0.0508831 1.26778)
(0.0454976 -0.060482 1.35151)
(0.0364176 -0.068383 1.40591)
(0.0233815 -0.0742065 1.4382)
(0.00805598 -0.0772068 1.45313)
(-0.00802697 -0.0772075 1.45313)
(-0.0233533 -0.0742086 1.43821)
(-0.0363912 -0.0683864 1.40592)
(-0.0454738 -0.060487 1.35152)
(-0.0508711 -0.0508894 1.26779)
(0.029463 0.0294206 1.13913)
(0.0273961 0.0362418 1.26397)
(0.0224158 0.0419185 1.35453)
(0.0146834 0.0460974 1.41275)
(0.00513154 0.0482904 1.44101)
(-0.00506207 0.0482922 1.44102)
(-0.0146161 0.046103 1.41277)
(-0.022353 0.0419276 1.35457)
(-0.0273398 0.0362547 1.26403)
(-0.0294174 0.029436 1.13921)
(0.0362794 0.0273485 1.26397)
(0.0342922 0.0342507 1.41079)
(0.0281549 0.0399318 1.50482)
(0.0184193 0.0439901 1.56048)
(0.00641461 0.0460984 1.5863)
(-0.00635345 0.0460996 1.5863)
(-0.01836 0.0439938 1.5605)
(-0.0280993 0.0399381 1.50485)
(-0.0342424 0.0342597 1.41084)
(-0.0362387 0.0273603 1.26404)
(0.0419506 0.0223667 1.35451)
(0.0399681 0.0281119 1.50481)
(0.0327729 0.0327346 1.59721)
(0.0213775 0.035944 1.64976)
(0.00742663 0.0375924 1.6735)
(-0.00737114 0.0375931 1.67351)
(-0.0213236 0.035946 1.64978)
(-0.0327225 0.0327381 1.59724)
(-0.0399232 0.0281172 1.50485)
(-0.0419144 0.0223741 1.35457)
(0.0461254 0.0146337 1.41273)
(0.0440226 0.0183756 1.56047)
(0.0359791 0.021338 1.64976)
(0.0234028 0.0233662 1.69965)
(0.00811909 0.0244028 1.72195)
(-0.00806715 0.0244031 1.72195)
(-0.0233523 0.023367 1.69966)
(-0.035932 0.0213396 1.64978)
(-0.0439807 0.0183781 1.56051)
(-0.0460917 0.0146374 1.41278)
(0.0483149 0.00508273 1.44098)
(0.0461281 0.0063713 1.58628)
(0.0376255 0.00738715 1.67349)
(0.0244378 0.00808204 1.72194)
(0.00847433 0.00843853 1.74357)
(-0.00842418 0.00843854 1.74357)
(-0.0243891 0.00808208 1.72195)
(-0.0375799 0.00738725 1.67351)
(-0.0460878 0.00637148 1.58631)
(-0.0482825 0.00508302 1.44103)
(0.0483141 -0.00510862 1.44098)
(0.0461276 -0.00639523 1.58627)
(0.0376251 -0.00740966 1.67349)
(0.0244376 -0.00810367 1.72194)
(0.00847421 -0.00845981 1.74356)
(-0.0084242 -0.00846002 1.74357)
(-0.024389 -0.00810433 1.72195)
(-0.0375797 -0.00741087 1.67351)
(-0.0460874 -0.00639717 1.58631)
(-0.0482817 -0.00511152 1.44103)
(0.0461231 -0.0146588 1.41272)
(0.0440208 -0.0183988 1.56046)
(0.035978 -0.0213599 1.64975)
(0.0234021 -0.0233872 1.69964)
(0.00811871 -0.0244235 1.72194)
(-0.00806721 -0.0244239 1.72195)
(-0.023352 -0.0233886 1.69966)
(-0.0359312 -0.0213625 1.64978)
(-0.0439793 -0.018403 1.5605)
(-0.0460895 -0.014665 1.41277)
(0.0419468 -0.0223901 1.3545)
(0.0399652 -0.0281337 1.5048)
(0.0327709 -0.0327551 1.5972)
(0.0213762 -0.0359637 1.64975)
(0.00742595 -0.0376118 1.67349)
(-0.00737124 -0.0376126 1.6735)
(-0.021323 -0.0359662 1.64977)
(-0.0327212 -0.0327595 1.59723)
(-0.0399208 -0.0281404 1.50484)
(-0.0419108 -0.0223998 1.35456)
(0.036274 -0.0273696 1.26395)
(0.0342879 -0.0342703 1.41077)
(0.0281518 -0.0399501 1.5048)
(0.0184173 -0.0440076 1.56046)
(0.00641354 -0.0461155 1.58628)
(-0.00635361 -0.0461169 1.58629)
(-0.0183591 -0.0440116 1.56048)
(-0.0280973 -0.039957 1.50483)
(-0.0342389 -0.0342804 1.41082)
(-0.0362338 -0.0273832 1.26401)
(0.0294567 -0.0294377 1.1391)
(0.0273906 -0.0362579 1.26395)
(0.0224116 -0.0419333 1.3545)
(0.0146805 -0.0461115 1.41273)
(0.00512996 -0.0483041 1.44099)
(-0.00506231 -0.048306 1.441)
(-0.0146149 -0.0461172 1.41275)
(-0.0223503 -0.0419427 1.35454)
(-0.0273353 -0.0362713 1.26401)
(-0.0294116 -0.0294543 1.13917)
(0.00593959 0.00585166 1.15243)
(0.00673017 0.00819682 1.28424)
(0.00627791 0.0105232 1.38416)
(0.00443663 0.0123935 1.45072)
(0.0016405 0.0134181 1.48378)
(-0.00149908 0.0134222 1.4838)
(-0.0042996 0.012406 1.45078)
(-0.00615 0.0105435 1.38427)
(-0.00661531 0.0082255 1.28439)
(-0.0058464 0.00588628 1.15262)
(0.00827361 0.00663199 1.28423)
(0.00979943 0.00971497 1.44576)
(0.0091503 0.0125284 1.556)
(0.00641889 0.0146514 1.62464)
(0.00233523 0.0157789 1.6575)
(-0.0022121 0.0157817 1.65751)
(-0.00629944 0.0146599 1.62469)
(-0.00903853 0.0125428 1.55609)
(-0.00969917 0.00973563 1.44589)
(-0.0081919 0.00665916 1.2844)
(0.0105878 0.00617688 1.38412)
(0.0126013 0.0090631 1.55599)
(0.0116414 0.0115646 1.66968)
(0.00808385 0.0133597 1.73807)
(0.00291063 0.0142708 1.77001)
(-0.00280012 0.0142723 1.77003)
(-0.0079766 0.0133645 1.73811)
(-0.0115412 0.0115731 1.66975)
(-0.0125122 0.0090758 1.5561)
(-0.0105161 0.00619464 1.38428)
(0.0124489 0.00433476 1.45066)
(0.0147157 0.0063306 1.6246)
(0.0134292 0.00800521 1.73805)
(0.00922214 0.0091498 1.80486)
(0.00329178 0.00967789 1.83541)
(-0.00318905 0.00967852 1.83542)
(-0.00912238 0.00915197 1.8049)
(-0.0133361 0.00800927 1.73812)
(-0.0146335 0.00633702 1.62471)
(-0.0123831 0.00434434 1.4508)
(0.0134659 0.0015408 1.4837)
(0.015837 0.00224806 1.65744)
(0.0143357 0.00283214 1.76998)
(0.00974677 0.00321873 1.83539)
(0.00345451 0.00338417 1.86467)
(-0.00335555 0.00338423 1.86468)
(-0.00965053 0.003219 1.83543)
(-0.014246 0.00283275 1.77004)
(-0.0157582 0.00224917 1.65753)
(-0.0134029 0.00154274 1.48384)
(0.0134643 -0.00159377 1.48369)
(0.0158359 -0.00229582 1.65743)
(0.014335 -0.00287638 1.76997)
(0.00974638 -0.00326089 1.83539)
(0.00345433 -0.00342548 1.86467)
(-0.00335553 -0.00342588 1.86468)
(-0.00965028 -0.00326222 1.83542)
(-0.0142454 -0.00287884 1.77003)
(-0.0157571 -0.00229958 1.65753)
(-0.0134013 -0.00159906 1.48383)
(0.0124441 -0.00438602 1.45064)
(0.0147121 -0.00637689 1.62459)
(0.0134269 -0.00804812 1.73804)
(0.00922082 -0.00919072 1.80485)
(0.00329119 -0.00971806 1.83539)
(-0.00318899 -0.00971902 1.83541)
(-0.00912154 -0.00919391 1.80488)
(-0.0133342 -0.00805394 1.7381)
(-0.0146302 -0.00638584 1.62469)
(-0.0123783 -0.0043988 1.45078)
(0.0105799 -0.00622462 1.38409)
(0.0125954 -0.00910635 1.55596)
(0.0116374 -0.0116047 1.66965)
(0.00808145 -0.0133978 1.73804)
(0.00290953 -0.0143082 1.76999)
(-0.0028 -0.0143101 1.77)
(-0.00797509 -0.0134036 1.73808)
(-0.0115379 -0.0116148 1.66972)
(-0.0125068 -0.00912133 1.55606)
(-0.0105085 -0.00624526 1.38424)
(0.00826266 -0.0066747 1.28417)
(0.00979099 -0.00975365 1.44572)
(0.00914447 -0.0125639 1.55596)
(0.00641521 -0.014685 1.6246)
(0.00233349 -0.0158118 1.65746)
(-0.00221195 -0.0158148 1.65747)
(-0.00629721 -0.0146942 1.62465)
(-0.00903386 -0.0125796 1.55605)
(-0.00969152 -0.00977616 1.44584)
(-0.00818133 -0.00670425 1.28434)
(0.00592662 -0.00588625 1.15237)
(0.0067193 -0.0082283 1.28418)
(0.00627001 -0.0105517 1.3841)
(0.00443142 -0.0124204 1.45066)
(0.00163798 -0.0134443 1.48373)
(-0.00149889 -0.0134485 1.48375)
(-0.0042965 -0.0124333 1.45072)
(-0.00614379 -0.0105728 1.3842)
(-0.00660564 -0.00825814 1.28432)
(-0.00583412 -0.00592239 1.15254)
(0.00553027 0.00536653 1.11557)
(0.00535702 0.0067856 1.25303)
(0.00455784 0.00805263 1.35934)
(0.0031094 0.00902095 1.43135)
(0.00117998 0.0095446 1.46755)
(-0.000926275 0.00955245 1.46759)
(-0.00286348 0.00904472 1.4315)
(-0.00432797 0.00809144 1.35958)
(-0.00514992 0.0068405 1.25336)
(-0.0053613 0.00543312 1.116)
(0.00692772 0.00517421 1.25299)
(0.00689575 0.00673963 1.42449)
(0.00595198 0.00816225 1.54495)
(0.00406321 0.00923411 1.62181)
(0.00150612 0.00979856 1.6592)
(-0.00128485 0.00980412 1.65924)
(-0.00384853 0.00925112 1.62192)
(-0.00575089 0.00819105 1.54515)
(-0.00671479 0.00678128 1.42478)
(-0.00677933 0.00522932 1.25338)
(0.00817105 0.00437013 1.35926)
(0.00829559 0.00579126 1.54491)
(0.00720024 0.00706017 1.67207)
(0.00489364 0.00797494 1.75079)
(0.0017854 0.00842413 1.78821)
(-0.00158727 0.00842739 1.78824)
(-0.00470135 0.00798524 1.75089)
(-0.00702045 0.00707834 1.67224)
(-0.00813543 0.00581865 1.54517)
(-0.00804155 0.00440873 1.35962)
(0.0091216 0.00292046 1.43122)
(0.00935059 0.00390079 1.62172)
(0.00810063 0.00475039 1.75075)
(0.00545179 0.00532108 1.82885)
(0.00196229 0.0055409 1.86495)
(-0.00177856 0.00554235 1.86497)
(-0.00527335 0.00532629 1.82894)
(-0.00793416 0.00476021 1.7509)
(-0.00920347 0.00391652 1.62196)
(-0.00900322 0.00294415 1.43155)
(0.00963046 0.000995318 1.46736)
(0.00990298 0.00134595 1.65907)
(0.00854086 0.00164257 1.78813)
(0.0056648 0.00183037 1.86491)
(0.00201122 0.00188475 1.89879)
(-0.00183428 0.00188515 1.89881)
(-0.00549259 0.00183192 1.86499)
(-0.0083805 0.00164575 1.78828)
(-0.00976208 0.00135155 1.65929)
(-0.00951777 0.00100463 1.46767)
(0.00962738 -0.0011015 1.46734)
(0.00990089 -0.00143852 1.65905)
(0.00853967 -0.00172595 1.78812)
(0.00566429 -0.00190825 1.8649)
(0.00201109 -0.00196009 1.89878)
(-0.00183412 -0.00196054 1.89881)
(-0.00549205 -0.00190985 1.86498)
(-0.00837927 -0.00172875 1.78826)
(-0.00976 -0.00144237 1.65927)
(-0.00951483 -0.001106 1.46765)
(0.00911227 -0.00302333 1.43117)
(0.00934419 -0.00399053 1.62168)
(0.00809686 -0.00483123 1.75071)
(0.00544992 -0.00539665 1.82882)
(0.00196174 -0.00561419 1.86491)
(-0.00177798 -0.00561569 1.86494)
(-0.00527142 -0.00540189 1.8289)
(-0.00793034 -0.00484063 1.75086)
(-0.00919716 -0.00400441 1.62191)
(-0.00899439 -0.00304212 1.43149)
(0.00815583 -0.00446615 1.35918)
(0.00828473 -0.00587516 1.54484)
(0.00719355 -0.00713558 1.672)
(0.00489008 -0.0080453 1.75073)
(0.00178424 -0.00849226 1.78815)
(-0.00158627 -0.00849555 1.78818)
(-0.00469792 -0.00805556 1.75082)
(-0.00701394 -0.0071532 1.67217)
(-0.00812501 -0.00590054 1.54509)
(-0.00802739 -0.00449974 1.35952)
(0.00690616 -0.0052605 1.25287)
(0.00688001 -0.0068149 1.42438)
(0.00594186 -0.00822918 1.54485)
(0.00405745 -0.00929606 1.62171)
(0.00150403 -0.00985821 1.65911)
(-0.00128353 -0.00986376 1.65914)
(-0.00384352 -0.00931288 1.62183)
(-0.00574161 -0.00825717 1.54505)
(-0.00670032 -0.00685419 1.42466)
(-0.0067599 -0.00531038 1.25324)
(0.00550408 -0.00543656 1.11542)
(0.00533611 -0.00684688 1.25289)
(0.00454353 -0.00810638 1.35921)
(0.00310069 -0.0090705 1.43123)
(0.00117651 -0.00959207 1.46742)
(-0.000924756 -0.00959985 1.46747)
(-0.00285674 -0.00909393 1.43136)
(-0.00431579 -0.00814421 1.35944)
(-0.00513173 -0.00689932 1.25321)
(-0.0053388 -0.00549813 1.11583)
(0.000963976 0.000682663 1.12173)
(0.00120501 0.00108647 1.2596)
(0.00122006 0.00153172 1.36699)
(0.00095581 0.00191194 1.44024)
(0.000482356 0.00213267 1.47725)
(-7.19609e-05 0.00214625 1.47734)
(-0.000557782 0.00195302 1.4405)
(-0.00084764 0.00159885 1.36744)
(-0.00086896 0.00118125 1.26022)
(-0.000689037 0.00079724 1.12252)
(0.00133034 0.000890904 1.25953)
(0.00175657 0.00148884 1.43252)
(0.00177605 0.00208809 1.55547)
(0.00135198 0.00257381 1.63479)
(0.000609798 0.00284522 1.67369)
(-0.000248844 0.00285539 1.67376)
(-0.00100165 0.00260484 1.63501)
(-0.00144762 0.00214053 1.55585)
(-0.00146055 0.00156435 1.43307)
(-0.00108673 0.00099006 1.26025)
(0.00173375 0.000898133 1.36684)
(0.00231539 0.00150109 1.55539)
(0.00231972 0.00208155 1.68656)
(0.0017322 0.0025363 1.76892)
(0.000733753 0.00277896 1.80845)
(-0.000409257 0.00278546 1.80851)
(-0.00141728 0.00255655 1.76911)
(-0.00202513 0.00211696 1.6869)
(-0.00205257 0.00155398 1.55588)
(-0.00152057 0.000971682 1.3675)
(0.00208213 0.000632556 1.43998)
(0.0027706 0.00107486 1.63462)
(0.00274828 0.00148921 1.76884)
(0.00202041 0.00180024 1.85132)
(0.000825782 0.00194111 1.88972)
(-0.0005244 0.0019446 1.88977)
(-0.00172796 0.00181189 1.85149)
(-0.00247549 0.00151057 1.76915)
(-0.00252929 0.00110843 1.63508)
(-0.00188749 0.000681983 1.44061)
(0.0022762 0.000167172 1.47688)
(0.00301978 0.000337241 1.67343)
(0.00297407 0.000492065 1.80829)
(0.00214835 0.000603834 1.88965)
(0.000857596 0.000645797 1.92552)
(-0.000567205 0.000647285 1.92556)
(-0.00186629 0.000608823 1.8898)
(-0.00271168 0.000501685 1.80857)
(-0.00278923 0.000353408 1.67387)
(-0.00209164 0.000192598 1.47749)
(0.00226987 -0.000370532 1.47685)
(0.0030154 -0.000509729 1.6734)
(0.0029715 -0.000643319 1.80826)
(0.0021471 -0.000742098 1.88963)
(0.000857134 -0.000777639 1.9255)
(-0.000566996 -0.000777947 1.92554)
(-0.00186533 -0.000743081 1.88978)
(-0.00270952 -0.000644507 1.80855)
(-0.00278557 -0.000510071 1.67384)
(-0.00208646 -0.000368447 1.47745)
(0.00206284 -0.000830104 1.43987)
(0.00275713 -0.00124243 1.63453)
(0.00274017 -0.00163604 1.76877)
(0.00201614 -0.00193439 1.85125)
(0.000824186 -0.00206913 1.88966)
(-0.000523727 -0.00207143 1.88971)
(-0.00172475 -0.00194199 1.85142)
(-0.00246888 -0.00164888 1.76907)
(-0.00251827 -0.00126007 1.63499)
(-0.00187197 -0.000851994 1.4405)
(0.00170187 -0.00108359 1.36665)
(0.00229225 -0.00165852 1.55523)
(0.00230521 -0.002219 1.68643)
(0.00172408 -0.00266138 1.7688)
(0.000730478 -0.00289792 1.80833)
(-0.000408319 -0.0029032 1.80839)
(-0.0014118 -0.00267745 1.76899)
(-0.00201407 -0.00224566 1.68676)
(-0.0020345 -0.00169525 1.55572)
(-0.00149573 -0.00112966 1.36732)
(0.00128435 -0.00105914 1.25927)
(0.0017223 -0.00163132 1.43229)
(0.00175353 -0.00221092 1.55527)
(0.00133849 -0.00268437 1.6346)
(0.000603727 -0.0029495 1.67351)
(-0.000248241 -0.00295836 1.67358)
(-0.000994114 -0.00271089 1.63482)
(-0.00143224 -0.00225409 1.55565)
(-0.00143571 -0.00169007 1.43284)
(-0.00105275 -0.00113077 1.25999)
(0.000906521 -0.000820718 1.12141)
(0.00115819 -0.00120369 1.25931)
(0.00118708 -0.00163112 1.36672)
(0.000934542 -0.00200076 1.43998)
(0.000471791 -0.0022157 1.477)
(-7.26462e-05 -0.00222792 1.47709)
(-0.000548468 -0.00203725 1.44025)
(-0.0008281 -0.00168919 1.36716)
(-0.00083821 -0.00128247 1.25992)
(-0.000649953 -0.000909934 1.1222)
(0.00152548 0.00109534 1.11286)
(0.00149457 0.00143304 1.25211)
(0.00130976 0.00173748 1.36096)
(0.000982273 0.00197081 1.43542)
(0.000544502 0.00210621 1.47314)
(6.11012e-05 0.00212671 1.47329)
(-0.000395302 0.00203254 1.43588)
(-0.000761384 0.00183754 1.36173)
(-0.00100123 0.00157227 1.25319)
(-0.00112365 0.00125947 1.11421)
(0.00181131 0.00101088 1.25198)
(0.00179001 0.00137234 1.4272)
(0.00157037 0.00170279 1.55232)
(0.00115084 0.00195784 1.6334)
(0.00058299 0.002101 1.6733)
(-4.20845e-05 0.00211695 1.67343)
(-0.000626073 0.0020062 1.63379)
(-0.00107891 0.00178361 1.553)
(-0.00134803 0.0014865 1.42817)
(-0.00144857 0.00115651 1.25324)
(0.00205314 0.000812456 1.36067)
(0.00205946 0.00114041 1.55218)
(0.00181322 0.00143915 1.6862)
(0.00130872 0.00166512 1.77084)
(0.000621657 0.00178557 1.81163)
(-0.000131356 0.0017962 1.81174)
(-0.00083299 0.00169796 1.77118)
(-0.00136842 0.00149573 1.6868)
(-0.00166307 0.00122288 1.55306)
(-0.00173204 0.000923038 1.36185)
(0.00223712 0.00048263 1.43495)
(0.00226648 0.000717546 1.63309)
(0.00199749 0.000927388 1.77069)
(0.00142421 0.00107941 1.8558)
(0.000649055 0.00114759 1.8956)
(-0.000192694 0.00115371 1.89569)
(-0.000981398 0.00109933 1.8561)
(-0.00158449 0.000963126 1.77124)
(-0.0019013 0.000771869 1.63391)
(-0.00194267 0.00055896 1.43607)
(0.00233007 5.76702e-05 1.47248)
(0.00237323 0.000157287 1.67283)
(0.00208965 0.000242883 1.81134)
(0.00147033 0.000301885 1.89547)
(0.000653637 0.000323886 1.93267)
(-0.000214958 0.000326874 1.93275)
(-0.00104436 0.000311498 1.89575)
(-0.0016934 0.000260686 1.81185)
(-0.00202522 0.000185613 1.67362)
(-0.00205145 9.9134e-05 1.47356)
(0.00231799 -0.000399648 1.47241)
(0.00236409 -0.000449117 1.67277)
(0.00208359 -0.000497769 1.81129)
(0.00146665 -0.000532945 1.89543)
(0.000651468 -0.000542482 1.93264)
(-0.000215795 -0.00054237 1.93272)
(-0.00104377 -0.000532612 1.8957)
(-0.00169068 -0.000496536 1.81181)
(-0.00201983 -0.000445537 1.67356)
(-0.00204333 -0.000392146 1.47349)
(0.00220034 -0.000815485 1.43474)
(0.0022384 -0.00100168 1.63292)
(0.00197853 -0.00117537 1.77054)
(0.00141218 -0.00130401 1.85566)
(0.000642086 -0.00136006 1.89548)
(-0.000195321 -0.00136301 1.89558)
(-0.000979284 -0.00131369 1.85597)
(-0.00157621 -0.00119155 1.77109)
(-0.00188516 -0.00102343 1.63374)
(-0.00191842 -0.000842176 1.43586)
(0.00199224 -0.00112619 1.36032)
(0.00201124 -0.00140861 1.55188)
(0.00177952 -0.00167244 1.68594)
(0.00128645 -0.00187545 1.7706)
(0.000608476 -0.00198363 1.8114)
(-0.00013652 -0.00199086 1.81152)
(-0.000829644 -0.00189732 1.77094)
(-0.00135488 -0.00170827 1.68654)
(-0.00163698 -0.00145711 1.55276)
(-0.00169358 -0.00118601 1.36151)
(0.00172365 -0.0012973 1.25148)
(0.00171891 -0.00161694 1.42677)
(0.00151869 -0.00191303 1.55194)
(0.00111509 -0.00214519 1.63304)
(0.000560986 -0.00227557 1.67296)
(-5.14873e-05 -0.00228767 1.67309)
(-0.000622468 -0.00218122 1.63344)
(-0.00106084 -0.00197102 1.55261)
(-0.00131286 -0.00169463 1.42774)
(-0.00139654 -0.00139026 1.25276)
(0.00141634 -0.0013326 1.11223)
(0.00139836 -0.00163685 1.25154)
(0.0012356 -0.00190983 1.36044)
(0.000928246 -0.00212306 1.43493)
(0.000509928 -0.00224633 1.47267)
(4.49845e-05 -0.00226265 1.47283)
(-0.000392653 -0.00217155 1.43539)
(-0.000739594 -0.00198625 1.36122)
(-0.000958731 -0.0017391 1.25263)
(-0.00106493 -0.00144583 1.11361)
(0.000483203 -7.56831e-05 1.11459)
(0.000588171 3.3916e-05 1.25399)
(0.00061558 0.000166266 1.36313)
(0.000570438 0.000281204 1.4379)
(0.000466743 0.000359102 1.47586)
(0.000333704 0.000385517 1.47611)
(0.000203255 0.000359868 1.43863)
(0.000102864 0.000291005 1.36435)
(5.10847e-05 0.00020141 1.25569)
(2.91851e-05 0.000110137 1.11673)
(0.000542682 -4.9753e-05 1.25377)
(0.000680676 0.000111325 1.42936)
(0.000706609 0.000275497 1.55505)
(0.000625444 0.000412173 1.63667)
(0.000464569 0.00049769 1.67694)
(0.000268038 0.000518643 1.67715)
(8.37531e-05 0.000474724 1.63731)
(-4.57158e-05 0.000377007 1.55613)
(-9.19678e-05 0.000248291 1.43091)
(-6.61419e-05 0.000113833 1.25578)
(0.00060098 -4.64832e-05 1.36264)
(0.000772501 0.000115268 1.5548)
(0.000796668 0.000271723 1.68969)
(0.000681342 0.000398453 1.77511)
(0.000465531 0.000473817 1.8164)
(0.000207922 0.000487954 1.81658)
(-2.90683e-05 0.000441183 1.77567)
(-0.00018912 0.000342541 1.69066)
(-0.000234994 0.000212623 1.55622)
(-0.000170232 7.38119e-05 1.36453)
(0.000653342 -9.73093e-05 1.43711)
(0.000847187 2.7589e-05 1.63616)
(0.000869076 0.000145 1.77487)
(0.000726312 0.000237409 1.86095)
(0.000467204 0.000287067 1.90132)
(0.000162439 0.000295177 1.90148)
(-0.000116283 0.00026283 1.86145)
(-0.000301713 0.00018819 1.77576)
(-0.000348027 8.82955e-05 1.6375)
(-0.000253914 -2.06409e-05 1.43892)
(0.000674377 -0.000183866 1.47475)
(0.00088228 -0.000122679 1.67615)
(0.000904291 -6.69881e-05 1.81591)
(0.000744403 -2.49255e-05 1.9011)
(0.000463089 -4.43196e-06 1.93888)
(0.0001401 -7.45344e-07 1.93901)
(-0.000159579 -1.38097e-05 1.90157)
(-0.000361457 -4.82552e-05 1.81676)
(-0.000407109 -9.65328e-05 1.67744)
(-0.000295492 -0.000152108 1.47651)
(0.000655333 -0.000280436 1.47463)
(0.000865951 -0.000292215 1.67605)
(0.000891926 -0.000306212 1.81582)
(0.000735543 -0.000319153 1.90103)
(0.000456837 -0.000323928 1.93882)
(0.000136325 -0.000324398 1.93895)
(-0.000160747 -0.000320977 1.90149)
(-0.000358985 -0.000310027 1.81667)
(-0.000400229 -0.000298762 1.67734)
(-0.000284176 -0.000291977 1.47639)
(0.000595809 -0.000354431 1.43676)
(0.000797577 -0.000431643 1.63585)
(0.000831009 -0.000508333 1.77461)
(0.000698367 -0.000572029 1.86072)
(0.000447672 -0.000606176 1.90111)
(0.000150692 -0.00061083 1.90127)
(-0.000119521 -0.000587236 1.86122)
(-0.000294324 -0.00053491 1.7755)
(-0.000327618 -0.000470479 1.63719)
(-0.000220265 -0.000408098 1.43856)
(0.000506846 -0.000378835 1.36204)
(0.000688942 -0.000496741 1.55428)
(0.000730919 -0.000613988 1.68923)
(0.000631869 -0.000712349 1.7747)
(0.000430647 -0.0007717 1.816)
(0.000186947 -0.000781679 1.81618)
(-3.5036e-05 -0.000742702 1.77525)
(-0.000177537 -0.000664673 1.6902)
(-0.000202519 -0.000567716 1.5557)
(-0.000117388 -0.000470952 1.36392)
(0.000410607 -0.000337743 1.25293)
(0.000561632 -0.000459009 1.42862)
(0.000610392 -0.0005844 1.55437)
(0.000551017 -0.000692531 1.63604)
(0.00041135 -0.000760898 1.67634)
(0.000235823 -0.000776533 1.67655)
(7.3849e-05 -0.000739253 1.63668)
(-3.09679e-05 -0.000660397 1.55545)
(-4.88569e-05 -0.000562733 1.43015)
(4.68847e-06 -0.000465526 1.25493)
(0.000325328 -0.000245522 1.11354)
(0.000434999 -0.000325045 1.25301)
(0.000486206 -0.000421131 1.36222)
(0.000466994 -0.000510543 1.43704)
(0.000391826 -0.000571481 1.47503)
(0.000288116 -0.000591404 1.47527)
(0.000188673 -0.000569895 1.43777)
(0.000120277 -0.000515246 1.36343)
(0.000102606 -0.000452419 1.2547)
(0.000107749 -0.000389354 1.11565)
(0.000663515 8.19357e-05 1.11213)
(0.00071784 0.000163487 1.25198)
(0.000703492 0.000257711 1.36158)
(0.000638734 0.000336911 1.43675)
(0.000529732 0.000394441 1.47499)
(0.00039403 0.000421012 1.47536)
(0.000249187 0.000414285 1.43785)
(0.000111202 0.000374695 1.36341)
(-8.08535e-06 0.000308695 1.25452)
(-0.000110881 0.000219797 1.11532)
(0.000729694 3.43713e-05 1.25162)
(0.000776621 0.000125864 1.42788)
(0.000750473 0.000221804 1.55419)
(0.000661909 0.000303151 1.63633)
(0.000523614 0.000357925 1.67692)
(0.000358028 0.00037882 1.67724)
(0.000187804 0.000363695 1.63729)
(3.36003e-05 0.000313972 1.55582)
(-9.07684e-05 0.000237558 1.4302)
(-0.00018834 0.000145911 1.25463)
(0.000766332 -2.03542e-05 1.3608)
(0.000817208 6.11626e-05 1.55379)
(0.000784225 0.000144845 1.68946)
(0.000675827 0.00021415 1.77551)
(0.000511672 0.00025754 1.81717)
(0.00031982 0.00027091 1.81745)
(0.000126811 0.000252954 1.77636)
(-4.22373e-05 0.000203607 1.69095)
(-0.000169802 0.000130173 1.55595)
(-0.000257457 4.43724e-05 1.36365)
(0.00078894 -9.85508e-05 1.43552)
(0.00084124 -4.15164e-05 1.63552)
(0.00080319 1.74868e-05 1.77512)
(0.000680233 6.50098e-05 1.8619)
(0.000497785 9.10262e-05 1.90268)
(0.00028857 9.73489e-05 1.90292)
(7.99072e-05 8.36662e-05 1.86267)
(-9.98735e-05 4.44391e-05 1.77649)
(-0.000228268 -1.40859e-05 1.63755)
(-0.000304971 -8.26744e-05 1.43824)
(0.000789184 -0.000190029 1.47326)
(0.000843236 -0.000168992 1.67569)
(0.00080381 -0.000143395 1.8164)
(0.000672985 -0.000122434 1.90233)
(0.000483007 -0.000112396 1.94051)
(0.000270456 -0.000111399 1.94071)
(5.65164e-05 -0.000120922 1.90304)
(-0.000128843 -0.000145393 1.8177)
(-0.000255549 -0.000181572 1.67765)
(-0.000323567 -0.000224633 1.4759)
(0.000767233 -0.000282389 1.47309)
(0.000821596 -0.000301099 1.67554)
(0.000785376 -0.000311711 1.81626)
(0.000658359 -0.000317868 1.90221)
(0.000471841 -0.000320222 1.94041)
(0.000262884 -0.000324253 1.94061)
(5.28302e-05 -0.000331805 1.90292)
(-0.00012724 -0.00034021 1.81756)
(-0.000247767 -0.000351082 1.67748)
(-0.000309845 -0.000364701 1.4757)
(0.000723788 -0.000358852 1.435)
(0.000776681 -0.000414725 1.63506)
(0.0007475 -0.00045955 1.77471)
(0.000635155 -0.000492577 1.86152)
(0.000463465 -0.000511099 1.90233)
(0.00026535 -0.000520009 1.90257)
(6.92754e-05 -0.000521932 1.86228)
(-9.50275e-05 -0.000513713 1.77605)
(-0.00020519 -0.000500064 1.63704)
(-0.0002642 -0.000485353 1.43764)
(0.000663037 -0.000405759 1.35994)
(0.000712368 -0.000488444 1.55301)
(0.000691861 -0.00055901 1.68875)
(0.000599589 -0.000613947 1.77484)
(0.000453242 -0.000649007 1.81652)
(0.000280596 -0.000663719 1.81679)
(0.000109335 -0.00065963 1.77566)
(-3.44447e-05 -0.000638592 1.69017)
(-0.00013295 -0.00060653 1.55508)
(-0.000193575 -0.000569045 1.36264)
(0.000593073 -0.000415578 1.25042)
(0.000636423 -0.000509323 1.42676)
(0.000624365 -0.000591601 1.55314)
(0.000555818 -0.000657979 1.63532)
(0.000441978 -0.000702805 1.67594)
(0.000303931 -0.000723226 1.67624)
(0.000164693 -0.000719979 1.63624)
(4.49588e-05 -0.000695769 1.55469)
(-4.07568e-05 -0.000658077 1.42895)
(-0.00010229 -0.000609188 1.25322)
(0.000515656 -0.000392584 1.11062)
(0.000554118 -0.000480933 1.25053)
(0.000550796 -0.000560534 1.36018)
(0.000507253 -0.000625896 1.43539)
(0.000428674 -0.00067246 1.47364)
(0.00032881 -0.000696247 1.47398)
(0.000224441 -0.000697626 1.43642)
(0.000129015 -0.000677184 1.36188)