/*--------------------------------*- C++ -*----------------------------------*\
| =========                 |                                                 |
| \\      /  F ield         | OpenFOAM: The Open Source CFD Toolbox           |
|  \\    /   O peration     | Version:  2406                                  |
|   \\  /    A nd           | Website:  www.openfoam.com                      |
|    \\/     M anipulation  |                                                 |
\*---------------------------------------------------------------------------*/
FoamFile
{
    version     2.0;
    format      ascii;
    arch        "LSB;label=32;scalar=64";
    class       volVectorField;
    location    "6.6";
    object      U;
}
// * * * * * * * * * * * * * * * * * * * * * * * * * * * * * * * * * * * * * //

dimensions      [0 1 -1 0 0 0 0];

internalField   nonuniform List<vector> 
16000
(
(0.153132 0.153132 1.11474)
(0.117573 0.168169 1.1542)
(0.072459 0.17688 1.17285)
(0.0244946 0.180953 1.18018)
(-0.0244946 0.180953 1.18018)
(-0.072459 0.17688 1.17285)
(-0.117573 0.168169 1.1542)
(-0.153132 0.153132 1.11474)
(0.168169 0.117573 1.1542)
(0.126109 0.126109 1.18728)
(0.0766337 0.131081 1.19757)
(0.0257137 0.133402 1.19978)
(-0.0257137 0.133402 1.19978)
(-0.0766337 0.131081 1.19757)
(-0.126109 0.126109 1.18728)
(-0.168169 0.117573 1.1542)
(0.17688 0.072459 1.17285)
(0.131081 0.0766337 1.19757)
(0.0792027 0.0792027 1.20176)
(0.0264749 0.0803911 1.20065)
(-0.0264749 0.0803911 1.20065)
(-0.0792027 0.0792027 1.20176)
(-0.131081 0.0766337 1.19757)
(-0.17688 0.072459 1.17285)
(0.180953 0.0244946 1.18018)
(0.133402 0.0257137 1.19978)
(0.0803911 0.0264749 1.20065)
(0.0268183 0.0268183 1.1979)
(-0.0268183 0.0268183 1.1979)
(-0.0803911 0.0264749 1.20065)
(-0.133402 0.0257137 1.19978)
(-0.180953 0.0244946 1.18018)
(0.180953 -0.0244946 1.18018)
(0.133402 -0.0257137 1.19978)
(0.0803911 -0.0264749 1.20065)
(0.0268183 -0.0268183 1.1979)
(-0.0268183 -0.0268183 1.1979)
(-0.0803911 -0.0264749 1.20065)
(-0.133402 -0.0257137 1.19978)
(-0.180953 -0.0244946 1.18018)
(0.17688 -0.072459 1.17285)
(0.131081 -0.0766337 1.19757)
(0.0792027 -0.0792027 1.20176)
(0.0264749 -0.0803911 1.20065)
(-0.0264749 -0.0803911 1.20065)
(-0.0792027 -0.0792027 1.20176)
(-0.131081 -0.0766337 1.19757)
(-0.17688 -0.072459 1.17285)
(0.168169 -0.117573 1.1542)
(0.126109 -0.126109 1.18728)
(0.0766337 -0.131081 1.19757)
(0.0257137 -0.133402 1.19978)
(-0.0257137 -0.133402 1.19978)
(-0.0766337 -0.131081 1.19757)
(-0.126109 -0.126109 1.18728)
(-0.168169 -0.117573 1.1542)
(0.153132 -0.153132 1.11474)
(0.117573 -0.168169 1.1542)
(0.072459 -0.17688 1.17285)
(0.0244946 -0.180953 1.18018)
(-0.0244946 -0.180953 1.18018)
(-0.072459 -0.17688 1.17285)
(-0.117573 -0.168169 1.1542)
(-0.153132 -0.153132 1.11474)
(0.0494154 0.0494154 1.29062)
(0.0414003 0.0615755 1.3895)
(0.0279271 0.0703803 1.44408)
(0.00984083 0.075171 1.46809)
(-0.00984083 0.075171 1.46809)
(-0.027927 0.0703803 1.44408)
(-0.0414003 0.0615755 1.3895)
(-0.0494154 0.0494154 1.29062)
(0.0615755 0.0414003 1.3895)
(0.0531611 0.0531611 1.48728)
(0.0357288 0.0616406 1.53241)
(0.0125458 0.0660227 1.54992)
(-0.0125458 0.0660227 1.54992)
(-0.0357288 0.0616406 1.53241)
(-0.0531611 0.0531611 1.48728)
(-0.0615755 0.0414003 1.3895)
(0.0703803 0.0279271 1.44408)
(0.0616406 0.0357288 1.53241)
(0.0413007 0.0413007 1.57006)
(0.0144349 0.0441146 1.5832)
(-0.0144349 0.0441146 1.5832)
(-0.0413007 0.0413007 1.57006)
(-0.0616406 0.0357288 1.53241)
(-0.0703803 0.0279271 1.44408)
(0.075171 0.00984083 1.46809)
(0.0660227 0.0125458 1.54992)
(0.0441146 0.0144349 1.5832)
(0.0153734 0.0153734 1.59386)
(-0.0153734 0.0153734 1.59386)
(-0.0441146 0.0144349 1.5832)
(-0.0660227 0.0125458 1.54992)
(-0.0751711 0.00984083 1.46809)
(0.075171 -0.00984083 1.46809)
(0.0660227 -0.0125458 1.54992)
(0.0441146 -0.0144349 1.5832)
(0.0153734 -0.0153734 1.59386)
(-0.0153734 -0.0153734 1.59386)
(-0.0441146 -0.0144349 1.5832)
(-0.0660227 -0.0125458 1.54992)
(-0.0751711 -0.00984083 1.46809)
(0.0703803 -0.027927 1.44408)
(0.0616406 -0.0357288 1.53241)
(0.0413007 -0.0413007 1.57006)
(0.0144349 -0.0441146 1.5832)
(-0.0144349 -0.0441146 1.5832)
(-0.0413007 -0.0413007 1.57006)
(-0.0616406 -0.0357288 1.53241)
(-0.0703803 -0.027927 1.44408)
(0.0615755 -0.0414003 1.3895)
(0.0531611 -0.0531611 1.48728)
(0.0357288 -0.0616406 1.53241)
(0.0125458 -0.0660227 1.54992)
(-0.0125458 -0.0660227 1.54992)
(-0.0357288 -0.0616406 1.53241)
(-0.0531611 -0.0531611 1.48728)
(-0.0615755 -0.0414003 1.3895)
(0.0494154 -0.0494154 1.29062)
(0.0414003 -0.0615755 1.3895)
(0.027927 -0.0703803 1.44408)
(0.00984083 -0.075171 1.46809)
(-0.00984083 -0.075171 1.46809)
(-0.0279271 -0.0703803 1.44408)
(-0.0414003 -0.0615755 1.3895)
(-0.0494154 -0.0494154 1.29062)
(0.0295334 0.0295334 1.18369)
(0.0263057 0.0381217 1.33605)
(0.0179588 0.0440247 1.43119)
(0.00638113 0.0472238 1.47636)
(-0.00638113 0.0472238 1.47636)
(-0.0179588 0.0440247 1.43119)
(-0.0263057 0.0381217 1.33605)
(-0.0295334 0.0295334 1.18369)
(0.0381217 0.0263057 1.33605)
(0.03387 0.03387 1.50686)
(0.0231033 0.0393329 1.60045)
(0.00819889 0.042227 1.64149)
(-0.00819889 0.042227 1.64149)
(-0.0231033 0.0393329 1.60045)
(-0.03387 0.03387 1.50686)
(-0.0381217 0.0263057 1.33605)
(0.0440247 0.0179588 1.43119)
(0.0393329 0.0231033 1.60045)
(0.0268026 0.0268026 1.68906)
(0.00948465 0.028713 1.72654)
(-0.00948465 0.028713 1.72654)
(-0.0268026 0.0268026 1.68906)
(-0.0393329 0.0231033 1.60045)
(-0.0440247 0.0179588 1.43119)
(0.0472238 0.00638113 1.47636)
(0.042227 0.00819889 1.64149)
(0.028713 0.00948465 1.72654)
(0.0101528 0.0101528 1.76219)
(-0.0101528 0.0101528 1.76219)
(-0.028713 0.00948465 1.72654)
(-0.042227 0.00819889 1.64149)
(-0.0472238 0.00638113 1.47636)
(0.0472238 -0.00638113 1.47636)
(0.042227 -0.00819889 1.64149)
(0.028713 -0.00948464 1.72654)
(0.0101528 -0.0101528 1.76219)
(-0.0101528 -0.0101528 1.76219)
(-0.028713 -0.00948464 1.72654)
(-0.042227 -0.00819889 1.64149)
(-0.0472238 -0.00638113 1.47636)
(0.0440247 -0.0179588 1.43119)
(0.0393329 -0.0231033 1.60045)
(0.0268026 -0.0268026 1.68906)
(0.00948465 -0.028713 1.72654)
(-0.00948465 -0.028713 1.72654)
(-0.0268026 -0.0268026 1.68906)
(-0.0393329 -0.0231033 1.60045)
(-0.0440247 -0.0179588 1.43119)
(0.0381217 -0.0263057 1.33605)
(0.03387 -0.03387 1.50686)
(0.0231033 -0.0393329 1.60045)
(0.00819889 -0.042227 1.64149)
(-0.00819889 -0.042227 1.64149)
(-0.0231033 -0.0393329 1.60045)
(-0.03387 -0.03387 1.50686)
(-0.0381217 -0.0263057 1.33605)
(0.0295334 -0.0295334 1.18369)
(0.0263057 -0.0381217 1.33605)
(0.0179588 -0.0440247 1.43119)
(0.00638113 -0.0472238 1.47636)
(-0.00638113 -0.0472238 1.47636)
(-0.0179588 -0.0440247 1.43119)
(-0.0263057 -0.0381217 1.33605)
(-0.0295334 -0.0295334 1.18369)
(0.00607788 0.00607788 1.17735)
(0.00678721 0.00932593 1.34012)
(0.00531535 0.0121436 1.44756)
(0.00200434 0.0137879 1.50053)
(-0.00200434 0.0137879 1.50053)
(-0.00531535 0.0121436 1.44756)
(-0.00678721 0.00932593 1.34012)
(-0.00607788 0.00607788 1.17735)
(0.00932593 0.00678721 1.34012)
(0.010642 0.010642 1.53329)
(0.0082524 0.0137676 1.64786)
(0.00308277 0.0154575 1.70082)
(-0.00308277 0.0154575 1.70082)
(-0.0082524 0.0137676 1.64786)
(-0.010642 0.010642 1.53329)
(-0.00932593 0.00678721 1.34012)
(0.0121436 0.00531535 1.44756)
(0.0137676 0.0082524 1.64786)
(0.0104758 0.0104758 1.76219)
(0.00386311 0.0115575 1.81303)
(-0.00386311 0.0115575 1.81303)
(-0.0104758 0.0104758 1.76219)
(-0.0137676 0.0082524 1.64786)
(-0.0121436 0.00531535 1.44756)
(0.0137879 0.00200435 1.50053)
(0.0154575 0.00308277 1.70082)
(0.0115575 0.00386311 1.81303)
(0.00421153 0.00421154 1.8613)
(-0.00421153 0.00421154 1.8613)
(-0.0115575 0.00386311 1.81303)
(-0.0154575 0.00308277 1.70082)
(-0.0137879 0.00200435 1.50053)
(0.0137879 -0.00200434 1.50053)
(0.0154575 -0.00308276 1.70082)
(0.0115575 -0.0038631 1.81303)
(0.00421153 -0.00421153 1.8613)
(-0.00421153 -0.00421153 1.8613)
(-0.0115575 -0.0038631 1.81303)
(-0.0154575 -0.00308276 1.70082)
(-0.0137879 -0.00200434 1.50053)
(0.0121436 -0.00531535 1.44756)
(0.0137676 -0.00825239 1.64786)
(0.0104758 -0.0104758 1.76219)
(0.00386311 -0.0115575 1.81303)
(-0.00386311 -0.0115575 1.81303)
(-0.0104758 -0.0104758 1.76219)
(-0.0137676 -0.00825239 1.64786)
(-0.0121436 -0.00531535 1.44756)
(0.00932593 -0.00678721 1.34012)
(0.0106419 -0.0106419 1.53329)
(0.0082524 -0.0137676 1.64786)
(0.00308277 -0.0154575 1.70082)
(-0.00308277 -0.0154575 1.70082)
(-0.0082524 -0.0137676 1.64786)
(-0.010642 -0.0106419 1.53329)
(-0.00932593 -0.00678721 1.34012)
(0.00607788 -0.00607788 1.17735)
(0.00678721 -0.00932593 1.34012)
(0.00531535 -0.0121436 1.44756)
(0.00200434 -0.0137879 1.50053)
(-0.00200434 -0.0137879 1.50053)
(-0.00531535 -0.0121436 1.44756)
(-0.00678721 -0.00932593 1.34012)
(-0.00607788 -0.00607788 1.17735)
(0.00420929 0.00420929 1.15879)
(0.00417758 0.00573707 1.32761)
(0.00305281 0.00697193 1.44156)
(0.00112169 0.00767951 1.4987)
(-0.00112169 0.00767951 1.4987)
(-0.00305281 0.00697193 1.44156)
(-0.00417758 0.00573707 1.32761)
(-0.00420929 0.00420929 1.15879)
(0.00573707 0.00417758 1.32761)
(0.0058271 0.00582711 1.53244)
(0.00432306 0.00720708 1.65824)
(0.00159285 0.00796351 1.71788)
(-0.00159285 0.00796351 1.71788)
(-0.00432306 0.00720708 1.65824)
(-0.0058271 0.0058271 1.53244)
(-0.00573707 0.00417758 1.32761)
(0.00697193 0.00305281 1.44156)
(0.00720707 0.00432306 1.65824)
(0.00533722 0.00533722 1.7871)
(0.00194952 0.00580511 1.84585)
(-0.00194952 0.00580511 1.84585)
(-0.00533722 0.00533722 1.7871)
(-0.00720707 0.00432306 1.65824)
(-0.00697194 0.00305281 1.44156)
(0.00767951 0.00112169 1.4987)
(0.00796351 0.00159285 1.71788)
(0.00580511 0.00194952 1.84585)
(0.00208328 0.00208328 1.90127)
(-0.00208328 0.00208328 1.90127)
(-0.00580511 0.00194952 1.84585)
(-0.00796351 0.00159285 1.71788)
(-0.00767951 0.00112169 1.4987)
(0.00767951 -0.00112169 1.4987)
(0.00796351 -0.00159285 1.71788)
(0.00580511 -0.00194951 1.84585)
(0.00208328 -0.00208328 1.90127)
(-0.00208328 -0.00208328 1.90127)
(-0.00580511 -0.00194951 1.84585)
(-0.00796351 -0.00159285 1.71788)
(-0.00767951 -0.00112169 1.4987)
(0.00697193 -0.00305281 1.44156)
(0.00720707 -0.00432305 1.65824)
(0.00533722 -0.00533722 1.7871)
(0.00194952 -0.0058051 1.84585)
(-0.00194952 -0.0058051 1.84585)
(-0.00533722 -0.00533722 1.7871)
(-0.00720707 -0.00432305 1.65824)
(-0.00697193 -0.00305281 1.44156)
(0.00573707 -0.00417758 1.32761)
(0.0058271 -0.0058271 1.53244)
(0.00432306 -0.00720707 1.65824)
(0.00159285 -0.0079635 1.71788)
(-0.00159285 -0.0079635 1.71788)
(-0.00432306 -0.00720707 1.65824)
(-0.0058271 -0.0058271 1.53244)
(-0.00573707 -0.00417758 1.32761)
(0.00420928 -0.00420928 1.15879)
(0.00417758 -0.00573707 1.32761)
(0.00305281 -0.00697193 1.44156)
(0.00112169 -0.00767951 1.4987)
(-0.00112169 -0.00767951 1.4987)
(-0.00305281 -0.00697193 1.44156)
(-0.00417758 -0.00573707 1.32761)
(-0.00420929 -0.00420928 1.15879)
(0.00130174 0.00130174 1.15563)
(0.00140465 0.00190345 1.3259)
(0.00109256 0.00244352 1.44189)
(0.000412967 0.00276631 1.50046)
(-0.000412967 0.00276631 1.50046)
(-0.00109256 0.00244352 1.44189)
(-0.00140465 0.00190345 1.3259)
(-0.00130174 0.00130174 1.15563)
(0.00190345 0.00140465 1.3259)
(0.00214529 0.0021453 1.53424)
(0.0016872 0.00280356 1.66415)
(0.000637026 0.00317699 1.72646)
(-0.000637026 0.00317699 1.72646)
(-0.0016872 0.00280356 1.66415)
(-0.0021453 0.0021453 1.53424)
(-0.00190345 0.00140465 1.3259)
(0.00244352 0.00109257 1.44189)
(0.00280355 0.0016872 1.66415)
(0.00219038 0.00219038 1.7989)
(0.000816972 0.0024356 1.86114)
(-0.000816972 0.0024356 1.86114)
(-0.00219038 0.00219038 1.7989)
(-0.00280356 0.0016872 1.66415)
(-0.00244352 0.00109257 1.44189)
(0.00276631 0.00041297 1.50046)
(0.00317699 0.000637029 1.72646)
(0.0024356 0.000816975 1.86114)
(0.000886492 0.000886495 1.91993)
(-0.000886493 0.000886495 1.91993)
(-0.0024356 0.000816975 1.86114)
(-0.00317699 0.000637029 1.72646)
(-0.00276631 0.00041297 1.50046)
(0.00276631 -0.000412964 1.50046)
(0.00317699 -0.000637022 1.72646)
(0.0024356 -0.000816969 1.86114)
(0.000886492 -0.00088649 1.91993)
(-0.000886493 -0.00088649 1.91993)
(-0.0024356 -0.000816969 1.86114)
(-0.00317699 -0.000637022 1.72646)
(-0.00276631 -0.000412964 1.50046)
(0.00244352 -0.00109256 1.44189)
(0.00280355 -0.00168719 1.66415)
(0.00219038 -0.00219038 1.7989)
(0.000816972 -0.00243559 1.86114)
(-0.000816972 -0.00243559 1.86114)
(-0.00219038 -0.00219038 1.7989)
(-0.00280356 -0.00168719 1.66415)
(-0.00244352 -0.00109256 1.44189)
(0.00190345 -0.00140464 1.3259)
(0.00214529 -0.00214529 1.53424)
(0.0016872 -0.00280355 1.66415)
(0.000637026 -0.00317699 1.72646)
(-0.000637026 -0.00317699 1.72646)
(-0.0016872 -0.00280355 1.66415)
(-0.00214529 -0.00214529 1.53424)
(-0.00190345 -0.00140465 1.3259)
(0.00130174 -0.00130174 1.15563)
(0.00140465 -0.00190345 1.3259)
(0.00109256 -0.00244352 1.44189)
(0.000412967 -0.00276631 1.50046)
(-0.000412968 -0.00276631 1.50046)
(-0.00109256 -0.00244352 1.44189)
(-0.00140465 -0.00190345 1.3259)
(-0.00130174 -0.00130174 1.15563)
(0.000792204 0.000792205 1.15296)
(0.000788355 0.00108156 1.32433)
(0.000581398 0.00132234 1.44146)
(0.000214721 0.00146385 1.50077)
(-0.000214719 0.00146385 1.50077)
(-0.000581397 0.00132233 1.44146)
(-0.000788354 0.00108156 1.32433)
(-0.000792205 0.000792205 1.15296)
(0.00108156 0.000788357 1.32433)
(0.00110842 0.00110842 1.53467)
(0.000833461 0.00139004 1.66657)
(0.000309536 0.00155285 1.73013)
(-0.000309535 0.00155285 1.73013)
(-0.00083346 0.00139004 1.66657)
(-0.00110842 0.00110842 1.53467)
(-0.00108156 0.000788357 1.32433)
(0.00132233 0.000581402 1.44146)
(0.00139004 0.000833465 1.66657)
(0.00105205 0.00105206 1.80409)
(0.000388559 0.00116372 1.86797)
(-0.000388558 0.00116372 1.86797)
(-0.00105205 0.00105206 1.80409)
(-0.00139004 0.000833464 1.66657)
(-0.00132234 0.000581401 1.44146)
(0.00146384 0.000214724 1.50077)
(0.00155285 0.00030954 1.73013)
(0.00116372 0.000388563 1.86797)
(0.000420373 0.000420376 1.92846)
(-0.000420372 0.000420376 1.92846)
(-0.00116372 0.000388562 1.86797)
(-0.00155285 0.000309539 1.73013)
(-0.00146385 0.000214724 1.50077)
(0.00146384 -0.000214716 1.50077)
(0.00155285 -0.000309531 1.73013)
(0.00116372 -0.000388555 1.86797)
(0.000420372 -0.000420369 1.92846)
(-0.000420373 -0.000420369 1.92846)
(-0.00116372 -0.000388555 1.86797)
(-0.00155285 -0.000309531 1.73013)
(-0.00146385 -0.000214716 1.50077)
(0.00132233 -0.000581393 1.44146)
(0.00139004 -0.000833456 1.66657)
(0.00105205 -0.00105205 1.80409)
(0.000388559 -0.00116372 1.86797)
(-0.000388559 -0.00116372 1.86797)
(-0.00105205 -0.00105205 1.80409)
(-0.00139004 -0.000833456 1.66657)
(-0.00132233 -0.000581394 1.44146)
(0.00108156 -0.00078835 1.32433)
(0.00110841 -0.00110841 1.53467)
(0.00083346 -0.00139004 1.66657)
(0.000309535 -0.00155284 1.73013)
(-0.000309535 -0.00155284 1.73013)
(-0.00083346 -0.00139004 1.66657)
(-0.00110842 -0.00110841 1.53467)
(-0.00108156 -0.000788351 1.32433)
(0.000792201 -0.000792201 1.15296)
(0.000788352 -0.00108155 1.32433)
(0.000581397 -0.00132233 1.44146)
(0.00021472 -0.00146384 1.50077)
(-0.00021472 -0.00146384 1.50077)
(-0.000581398 -0.00132233 1.44146)
(-0.000788353 -0.00108156 1.32433)
(-0.000792203 -0.000792203 1.15296)
(0.000340736 0.000340737 1.1521)
(0.000347865 0.000479672 1.32392)
(0.000260863 0.000598211 1.44154)
(9.69833e-05 0.000668247 1.50117)
(-9.69837e-05 0.000668247 1.50117)
(-0.000260864 0.000598211 1.44154)
(-0.000347866 0.000479672 1.32392)
(-0.000340739 0.000340739 1.1521)
(0.000479667 0.000347868 1.32392)
(0.000505477 0.000505482 1.53513)
(0.000384179 0.000642849 1.6679)
(0.000143137 0.000722071 1.732)
(-0.000143138 0.000722071 1.732)
(-0.000384179 0.000642849 1.6679)
(-0.000505479 0.000505482 1.53513)
(-0.000479671 0.000347869 1.32392)
(0.000598205 0.000260867 1.44154)
(0.000642845 0.000384183 1.6679)
(0.000489664 0.000489668 1.80663)
(0.0001812 0.000544341 1.87124)
(-0.0001812 0.000544341 1.87124)
(-0.000489665 0.000489668 1.80663)
(-0.000642846 0.000384183 1.6679)
(-0.000598209 0.000260868 1.44154)
(0.00066824 9.69878e-05 1.50117)
(0.000722066 0.000143142 1.732)
(0.000544337 0.000181204 1.87124)
(0.000196974 0.000196978 1.93251)
(-0.000196975 0.000196978 1.93251)
(-0.000544337 0.000181204 1.87124)
(-0.000722067 0.000143142 1.732)
(-0.000668244 9.6988e-05 1.50117)
(0.00066824 -9.69793e-05 1.50117)
(0.000722066 -0.000143133 1.732)
(0.000544337 -0.000181196 1.87124)
(0.000196974 -0.000196971 1.93251)
(-0.000196975 -0.000196971 1.93251)
(-0.000544337 -0.000181196 1.87124)
(-0.000722067 -0.000143133 1.732)
(-0.000668243 -9.69792e-05 1.50117)
(0.000598205 -0.000260859 1.44154)
(0.000642845 -0.000384175 1.6679)
(0.000489664 -0.00048966 1.80663)
(0.0001812 -0.000544334 1.87124)
(-0.000181201 -0.000544334 1.87124)
(-0.000489664 -0.00048966 1.80663)
(-0.000642845 -0.000384175 1.6679)
(-0.000598207 -0.000260859 1.44154)
(0.000479667 -0.000347861 1.32392)
(0.000505477 -0.000505474 1.53513)
(0.000384179 -0.000642842 1.6679)
(0.000143137 -0.000722063 1.732)
(-0.000143138 -0.000722063 1.732)
(-0.000384179 -0.000642842 1.6679)
(-0.000505478 -0.000505474 1.53513)
(-0.000479668 -0.000347862 1.32392)
(0.000340734 -0.000340733 1.1521)
(0.000347864 -0.000479665 1.32392)
(0.000260863 -0.000598203 1.44154)
(9.69831e-05 -0.000668239 1.50117)
(-9.6984e-05 -0.000668239 1.50117)
(-0.000260864 -0.000598204 1.44154)
(-0.000347865 -0.000479666 1.32392)
(-0.000340735 -0.000340735 1.1521)
(0.000183378 0.00018338 1.15155)
(0.000182636 0.000252985 1.32363)
(0.0001345 0.000310879 1.44151)
(4.95861e-05 0.000344803 1.5013)
(-4.95833e-05 0.000344802 1.5013)
(-0.000134497 0.000310877 1.44151)
(-0.000182634 0.000252983 1.32363)
(-0.000183378 0.000183379 1.15155)
(0.000252981 0.000182639 1.32363)
(0.000258956 0.000258961 1.5353)
(0.000193546 0.000324769 1.66852)
(7.1591e-05 0.000362583 1.73289)
(-7.15885e-05 0.000362583 1.73289)
(-0.000193544 0.000324768 1.66852)
(-0.000258955 0.000258959 1.5353)
(-0.000252982 0.000182638 1.32363)
(0.000310874 0.000134504 1.44151)
(0.000324764 0.000193551 1.66852)
(0.000243696 0.0002437 1.80785)
(8.96178e-05 0.000269587 1.87281)
(-8.9616e-05 0.000269587 1.87281)
(-0.000243695 0.0002437 1.80785)
(-0.000324763 0.00019355 1.66852)
(-0.000310876 0.000134503 1.44151)
(0.000344798 4.95904e-05 1.5013)
(0.000362579 7.15958e-05 1.73289)
(0.000269583 8.96221e-05 1.87281)
(9.70175e-05 9.70213e-05 1.93446)
(-9.70163e-05 9.70211e-05 1.93446)
(-0.000269582 8.96215e-05 1.87281)
(-0.000362579 7.15948e-05 1.73289)
(-0.0003448 4.95894e-05 1.5013)
(0.000344797 -4.95792e-05 1.5013)
(0.000362579 -7.15839e-05 1.73289)
(0.000269583 -8.96119e-05 1.87281)
(9.70173e-05 -9.70126e-05 1.93446)
(-9.70164e-05 -9.70127e-05 1.93446)
(-0.000269582 -8.96123e-05 1.87281)
(-0.000362579 -7.15846e-05 1.73289)
(-0.0003448 -4.958e-05 1.5013)
(0.000310873 -0.000134494 1.44151)
(0.000324763 -0.00019354 1.66852)
(0.000243695 -0.00024369 1.80785)
(8.96173e-05 -0.000269578 1.87281)
(-8.96165e-05 -0.000269578 1.87281)
(-0.000243695 -0.000243691 1.80785)
(-0.000324763 -0.00019354 1.66852)
(-0.000310875 -0.000134494 1.44151)
(0.000252978 -0.00018263 1.32363)
(0.000258954 -0.00025895 1.5353)
(0.000193545 -0.000324759 1.66852)
(7.159e-05 -0.000362574 1.73289)
(-7.15894e-05 -0.000362575 1.73289)
(-0.000193545 -0.000324759 1.66852)
(-0.000258954 -0.00025895 1.5353)
(-0.000252981 -0.000182631 1.32363)
(0.000183374 -0.000183374 1.15155)
(0.000182633 -0.000252975 1.32363)
(0.000134498 -0.00031087 1.44151)
(4.95848e-05 -0.000344794 1.5013)
(-4.95845e-05 -0.000344795 1.5013)
(-0.000134498 -0.000310871 1.44151)
(-0.000182634 -0.000252977 1.32363)
(-0.000183376 -0.000183376 1.15155)
(8.67713e-05 8.67729e-05 1.15132)
(8.77095e-05 0.000121325 1.32351)
(6.52144e-05 0.000150478 1.44152)
(2.41381e-05 0.00016761 1.50139)
(-2.41366e-05 0.00016761 1.50139)
(-6.52131e-05 0.000150476 1.44152)
(-8.77088e-05 0.000121323 1.32351)
(-8.67721e-05 8.67726e-05 1.15132)
(0.000121318 8.77133e-05 1.32351)
(0.000126291 0.000126297 1.53541)
(9.51091e-05 0.000159577 1.66884)
(3.52683e-05 0.000178635 1.73335)
(-3.5267e-05 0.000178635 1.73335)
(-9.51081e-05 0.000159576 1.66884)
(-0.000126291 0.000126296 1.53541)
(-0.00012132 8.77129e-05 1.32351)
(0.00015047 6.5219e-05 1.44152)
(0.000159571 9.51145e-05 1.66884)
(0.000120352 0.000120357 1.80847)
(4.43134e-05 0.000133316 1.8736)
(-4.43126e-05 0.000133316 1.8736)
(-0.000120351 0.000120356 1.80847)
(-0.000159571 9.51138e-05 1.66884)
(-0.000150472 6.52185e-05 1.44152)
(0.000167602 2.41427e-05 1.50139)
(0.00017863 3.52735e-05 1.73335)
(0.000133312 4.43181e-05 1.8736)
(4.80029e-05 4.80071e-05 1.93544)
(-4.80024e-05 4.8007e-05 1.93544)
(-0.000133311 4.43178e-05 1.8736)
(-0.00017863 3.5273e-05 1.73335)
(-0.000167604 2.41423e-05 1.50139)
(0.000167602 -2.41324e-05 1.50139)
(0.00017863 -3.52623e-05 1.73335)
(0.000133312 -4.43083e-05 1.8736)
(4.80028e-05 -4.79985e-05 1.93544)
(-4.80025e-05 -4.79986e-05 1.93544)
(-0.000133311 -4.43085e-05 1.8736)
(-0.00017863 -3.52627e-05 1.73335)
(-0.000167604 -2.41328e-05 1.50139)
(0.00015047 -6.52094e-05 1.44152)
(0.000159571 -9.51038e-05 1.66884)
(0.000120351 -0.000120347 1.80847)
(4.43131e-05 -0.000133308 1.8736)
(-4.43129e-05 -0.000133308 1.8736)
(-0.000120351 -0.000120347 1.80847)
(-0.000159571 -9.51042e-05 1.66884)
(-0.00015047 -6.52097e-05 1.44152)
(0.000121317 -8.77046e-05 1.32351)
(0.00012629 -0.000126286 1.53541)
(9.51087e-05 -0.000159567 1.66884)
(3.52678e-05 -0.000178626 1.73335)
(-3.52677e-05 -0.000178626 1.73335)
(-9.51086e-05 -0.000159567 1.66884)
(-0.00012629 -0.000126287 1.53541)
(-0.000121318 -8.77052e-05 1.32351)
(8.67684e-05 -8.67674e-05 1.15132)
(8.77078e-05 -0.000121315 1.32351)
(6.52138e-05 -0.000150467 1.44152)
(2.41374e-05 -0.0001676 1.50139)
(-2.41375e-05 -0.0001676 1.50139)
(-6.52139e-05 -0.000150468 1.44152)
(-8.77081e-05 -0.000121316 1.32351)
(-8.67692e-05 -8.67683e-05 1.15132)
(4.52181e-05 4.522e-05 1.15119)
(4.53635e-05 6.27488e-05 1.32345)
(3.356e-05 7.74229e-05 1.44152)
(1.23974e-05 8.60285e-05 1.50143)
(-1.23928e-05 8.60274e-05 1.50143)
(-3.35559e-05 7.74197e-05 1.44152)
(-4.53597e-05 6.27437e-05 1.32345)
(-4.5216e-05 4.52168e-05 1.15119)
(6.27428e-05 4.53671e-05 1.32345)
(6.47561e-05 6.47614e-05 1.53546)
(4.85777e-05 8.14847e-05 1.669)
(1.79889e-05 9.10619e-05 1.73357)
(-1.79851e-05 9.10613e-05 1.73357)
(-4.85744e-05 8.14828e-05 1.669)
(-6.47536e-05 6.47582e-05 1.53546)
(-6.27427e-05 4.53641e-05 1.32345)
(7.74164e-05 3.35642e-05 1.44152)
(8.14796e-05 4.85826e-05 1.669)
(6.12724e-05 6.1277e-05 1.80878)
(2.25354e-05 6.77827e-05 1.874)
(-2.25329e-05 6.77823e-05 1.874)
(-6.12703e-05 6.12758e-05 1.80878)
(-8.14782e-05 4.85806e-05 1.669)
(-7.74174e-05 3.3562e-05 1.44152)
(8.6022e-05 1.24014e-05 1.50143)
(9.10571e-05 1.79936e-05 1.73357)
(6.77785e-05 2.25397e-05 1.874)
(2.43785e-05 2.43823e-05 1.93593)
(-2.43769e-05 2.4382e-05 1.93593)
(-6.77771e-05 2.25388e-05 1.874)
(-9.10563e-05 1.7992e-05 1.73357)
(-8.60238e-05 1.23996e-05 1.50143)
(8.60214e-05 -1.23889e-05 1.50143)
(9.10566e-05 -1.79807e-05 1.73357)
(6.77782e-05 -2.25289e-05 1.874)
(2.43782e-05 -2.43732e-05 1.93593)
(-2.43771e-05 -2.43735e-05 1.93593)
(-6.77773e-05 -2.25296e-05 1.874)
(-9.10563e-05 -1.79819e-05 1.73357)
(-8.60237e-05 -1.23905e-05 1.50143)
(7.74142e-05 -3.35524e-05 1.44152)
(8.14782e-05 -4.85702e-05 1.669)
(6.12715e-05 -6.12663e-05 1.80878)
(2.25346e-05 -6.77734e-05 1.874)
(-2.25337e-05 -6.77736e-05 1.874)
(-6.12708e-05 -6.12669e-05 1.80878)
(-8.14782e-05 -4.85711e-05 1.669)
(-7.74169e-05 -3.35535e-05 1.44152)
(6.27385e-05 -4.53556e-05 1.32345)
(6.47535e-05 -6.4749e-05 1.53546)
(4.85759e-05 -8.14739e-05 1.669)
(1.79872e-05 -9.10523e-05 1.73357)
(-1.79866e-05 -9.10524e-05 1.73357)
(-4.85755e-05 -8.14744e-05 1.669)
(-6.47536e-05 -6.47498e-05 1.53546)
(-6.27412e-05 -4.53569e-05 1.32345)
(4.52121e-05 -4.52115e-05 1.15119)
(4.53592e-05 -6.27359e-05 1.32345)
(3.35576e-05 -7.74112e-05 1.44152)
(1.23951e-05 -8.6018e-05 1.50143)
(-1.23948e-05 -8.60183e-05 1.50143)
(-3.35574e-05 -7.74122e-05 1.44152)
(-4.53597e-05 -6.27378e-05 1.32345)
(-4.52142e-05 -4.52137e-05 1.15119)
(2.23421e-05 2.23431e-05 1.15113)
(2.25625e-05 3.1168e-05 1.32341)
(1.67712e-05 3.86071e-05 1.44152)
(6.20867e-06 4.29812e-05 1.50145)
(-6.20874e-06 4.29811e-05 1.50145)
(-1.67715e-05 3.86068e-05 1.44152)
(-2.25632e-05 3.11676e-05 1.32341)
(-2.23436e-05 2.23437e-05 1.15113)
(3.11633e-05 2.25656e-05 1.32341)
(3.242e-05 3.24245e-05 1.53548)
(2.44304e-05 4.09518e-05 1.66908)
(9.06396e-06 4.58416e-05 1.73369)
(-9.06417e-06 4.58415e-05 1.73369)
(-2.44308e-05 4.09516e-05 1.66908)
(-3.2421e-05 3.24243e-05 1.53548)
(-3.1166e-05 2.2566e-05 1.32341)
(3.86015e-05 1.67754e-05 1.44152)
(4.09475e-05 2.44351e-05 1.66908)
(3.09176e-05 3.09219e-05 1.80894)
(1.13897e-05 3.42528e-05 1.8742)
(-1.13901e-05 3.42528e-05 1.8742)
(-3.09182e-05 3.09218e-05 1.80894)
(-4.09484e-05 2.44349e-05 1.66908)
(-3.86038e-05 1.67754e-05 1.44152)
(4.29753e-05 6.21296e-06 1.50145)
(4.58373e-05 9.06867e-06 1.73369)
(3.42488e-05 1.13939e-05 1.8742)
(1.23354e-05 1.23391e-05 1.93618)
(-1.23359e-05 1.23391e-05 1.93618)
(-3.42494e-05 1.13937e-05 1.8742)
(-4.58381e-05 9.06849e-06 1.73369)
(-4.29772e-05 6.21289e-06 1.50145)
(4.29752e-05 -6.20464e-06 1.50145)
(4.58372e-05 -9.0597e-06 1.73369)
(3.42488e-05 -1.13861e-05 1.8742)
(1.23354e-05 -1.23324e-05 1.93618)
(-1.2336e-05 -1.23324e-05 1.93618)
(-3.42495e-05 -1.13862e-05 1.8742)
(-4.5838e-05 -9.05989e-06 1.73369)
(-4.29768e-05 -6.20481e-06 1.50145)
(3.86012e-05 -1.67677e-05 1.44152)
(4.09473e-05 -2.44267e-05 1.66908)
(3.09176e-05 -3.09144e-05 1.80894)
(1.13896e-05 -3.42459e-05 1.8742)
(-1.13902e-05 -3.4246e-05 1.8742)
(-3.09183e-05 -3.09145e-05 1.80894)
(-4.09479e-05 -2.44269e-05 1.66908)
(-3.86024e-05 -1.6768e-05 1.44152)
(3.11624e-05 -2.25589e-05 1.32341)
(3.24197e-05 -3.24166e-05 1.53548)
(2.44303e-05 -4.09445e-05 1.66908)
(9.06371e-06 -4.58346e-05 1.73369)
(-9.06452e-06 -4.58347e-05 1.73369)
(-2.44311e-05 -4.09448e-05 1.66908)
(-3.24203e-05 -3.24171e-05 1.53548)
(-3.11633e-05 -2.25595e-05 1.32341)
(2.23398e-05 -2.23389e-05 1.15113)
(2.25614e-05 -3.11604e-05 1.32341)
(1.6771e-05 -3.85993e-05 1.44152)
(6.20833e-06 -4.29735e-05 1.50145)
(-6.20921e-06 -4.29738e-05 1.50145)
(-1.67719e-05 -3.86001e-05 1.44152)
(-2.25623e-05 -3.11617e-05 1.32341)
(-2.23408e-05 -2.234e-05 1.15113)
(1.14909e-05 1.1492e-05 1.1511)
(1.15727e-05 1.59839e-05 1.3234)
(8.58647e-06 1.97572e-05 1.44152)
(3.17723e-06 2.19751e-05 1.50146)
(-3.17543e-06 2.19747e-05 1.50146)
(-8.58496e-06 1.9756e-05 1.44152)
(-1.15718e-05 1.59821e-05 1.3234)
(-1.14916e-05 1.14918e-05 1.1511)
(1.59807e-05 1.15752e-05 1.3234)
(1.65713e-05 1.65747e-05 1.5355)
(1.24722e-05 2.09004e-05 1.66912)
(4.62649e-06 2.33837e-05 1.73375)
(-4.62508e-06 2.33834e-05 1.73375)
(-1.24711e-05 2.08996e-05 1.66912)
(-1.65711e-05 1.65733e-05 1.5355)
(-1.59834e-05 1.15744e-05 1.3234)
(1.97538e-05 8.58954e-06 1.44152)
(2.08973e-05 1.24757e-05 1.66912)
(1.57691e-05 1.57722e-05 1.80902)
(5.80938e-06 1.74676e-05 1.8743)
(-5.8085e-06 1.74675e-05 1.8743)
(-1.57685e-05 1.57716e-05 1.80902)
(-2.08975e-05 1.24747e-05 1.66912)
(-1.9757e-05 8.58868e-06 1.44152)
(2.19717e-05 3.18045e-06 1.50146)
(2.33807e-05 4.63009e-06 1.73375)
(1.74648e-05 5.81257e-06 1.8743)
(6.29101e-06 6.29381e-06 1.9363)
(-6.29053e-06 6.29367e-06 1.9363)
(-1.74645e-05 5.81213e-06 1.8743)
(-2.33811e-05 4.62937e-06 1.73375)
(-2.19751e-05 3.17968e-06 1.50146)
(2.19714e-05 -3.17216e-06 1.50146)
(2.33805e-05 -4.62141e-06 1.73375)
(1.74646e-05 -5.80524e-06 1.8743)
(6.29089e-06 -6.28765e-06 1.9363)
(-6.29065e-06 -6.28776e-06 1.9363)
(-1.74646e-05 -5.80558e-06 1.8743)
(-2.33811e-05 -4.62198e-06 1.73375)
(-2.1975e-05 -3.17286e-06 1.50146)
(1.9753e-05 -8.58179e-06 1.44152)
(2.08966e-05 -1.24674e-05 1.66912)
(1.57686e-05 -1.5765e-05 1.80902)
(5.80897e-06 -1.74613e-05 1.8743)
(-5.80888e-06 -1.74614e-05 1.8743)
(-1.57687e-05 -1.57653e-05 1.80902)
(-2.08973e-05 -1.24678e-05 1.66912)
(-1.97566e-05 -8.58235e-06 1.44152)
(1.5979e-05 -1.15681e-05 1.3234)
(1.65701e-05 -1.65668e-05 1.5355)
(1.24714e-05 -2.08934e-05 1.66912)
(4.62569e-06 -2.33774e-05 1.73375)
(-4.6258e-06 -2.33775e-05 1.73375)
(-1.24716e-05 -2.08938e-05 1.66912)
(-1.65708e-05 -1.65673e-05 1.5355)
(-1.59823e-05 -1.15691e-05 1.3234)
(1.14883e-05 -1.14878e-05 1.1511)
(1.15708e-05 -1.59769e-05 1.3234)
(8.58539e-06 -1.97507e-05 1.44152)
(3.17617e-06 -2.19691e-05 1.50146)
(-3.1764e-06 -2.19694e-05 1.50146)
(-8.58567e-06 -1.97515e-05 1.44152)
(-1.15716e-05 -1.59786e-05 1.3234)
(-1.14904e-05 -1.14899e-05 1.1511)
(5.80211e-06 5.80253e-06 1.15108)
(5.85536e-06 8.08747e-06 1.32339)
(4.34986e-06 1.00105e-05 1.44152)
(1.60969e-06 1.11421e-05 1.50146)
(-1.61186e-06 1.11424e-05 1.50146)
(-4.35202e-06 1.00114e-05 1.44152)
(-5.85794e-06 8.08899e-06 1.32339)
(-5.80519e-06 5.80485e-06 1.15108)
(8.08475e-06 5.85731e-06 1.32339)
(8.40398e-06 8.40669e-06 1.5355)
(6.33318e-06 1.06143e-05 1.66915)
(2.34979e-06 1.18823e-05 1.73378)
(-2.35183e-06 1.18825e-05 1.73378)
(-6.33528e-06 1.06148e-05 1.66915)
(-8.40652e-06 8.40768e-06 1.5355)
(-8.08912e-06 5.85912e-06 1.32339)
(1.00072e-05 4.35264e-06 1.44152)
(1.06116e-05 6.33626e-06 1.66915)
(8.01686e-06 8.01963e-06 1.80906)
(2.95432e-06 8.88622e-06 1.87436)
(-2.95598e-06 8.88633e-06 1.87436)
(-8.01859e-06 8.02e-06 1.80906)
(-1.06137e-05 6.33695e-06 1.66915)
(-1.00107e-05 4.35366e-06 1.44152)
(1.11385e-05 1.61274e-06 1.50146)
(1.18797e-05 2.35308e-06 1.73378)
(8.88366e-06 2.9572e-06 1.87436)
(3.20099e-06 3.20351e-06 1.93637)
(-3.20234e-06 3.20359e-06 1.93637)
(-8.88507e-06 2.95748e-06 1.87436)
(-1.18813e-05 2.35364e-06 1.73378)
(-1.11412e-05 1.61356e-06 1.50146)
(1.11387e-05 -1.60883e-06 1.50146)
(1.18798e-05 -2.34857e-06 1.73378)
(8.88379e-06 -2.95312e-06 1.87436)
(3.20109e-06 -3.19982e-06 1.93637)
(-3.20228e-06 -3.19975e-06 1.93637)
(-8.885e-06 -2.9529e-06 1.87436)
(-1.18811e-05 -2.34814e-06 1.73378)
(-1.11408e-05 -1.60822e-06 1.50146)
(1.00079e-05 -4.34914e-06 1.44152)
(1.06121e-05 -6.3321e-06 1.66915)
(8.01724e-06 -8.01572e-06 1.80906)
(2.95461e-06 -8.88247e-06 1.87436)
(-2.95577e-06 -8.88243e-06 1.87436)
(-8.01835e-06 -8.0156e-06 1.80906)
(-1.06131e-05 -6.33183e-06 1.66915)