/*--------------------------------*- C++ -*----------------------------------*\
| =========                 |                                                 |
| \\      /  F ield         | OpenFOAM: The Open Source CFD Toolbox           |
|  \\    /   O peration     | Version:  2406                                  |
|   \\  /    A nd           | Website:  www.openfoam.com                      |
|    \\/     M anipulation  |                                                 |
\*---------------------------------------------------------------------------*/
FoamFile
{
    version     2.0;
    format      ascii;
    arch        "LSB;label=32;scalar=64";
    class       surfaceScalarField;
    location    "1.4";
    object      phi;
}
// * * * * * * * * * * * * * * * * * * * * * * * * * * * * * * * * * * * * * //

dimensions      [0 3 -1 0 0 0 0];

oriented        oriented;

internalField   nonuniform List<scalar> 
46880
(
5.70227e-05
5.70227e-05
9.25627e-05
-6.58089e-05
-6.58089e-05
4.14847e-05
5.85524e-05
0.000107332
-6.81955e-05
2.17749e-05
5.89973e-05
0.000116854
-6.9121e-05
1.81689e-13
5.91027e-05
0.000121561
-6.94051e-05
-2.17749e-05
5.91027e-05
0.000121561
-6.94051e-05
-4.14847e-05
5.89973e-05
0.000116854
-6.9121e-05
-5.70227e-05
5.85524e-05
0.000107332
-6.81955e-05
5.70227e-05
9.25627e-05
-6.58089e-05
-6.58089e-05
5.85524e-05
4.14847e-05
0.000107332
-6.81955e-05
4.20291e-05
4.20291e-05
0.000121733
2.18254e-05
4.20503e-05
0.000130284
1.84533e-13
4.1986e-05
0.000134326
-2.18254e-05
4.1986e-05
0.000134326
-4.20291e-05
4.20503e-05
0.000130284
-5.85524e-05
4.20291e-05
0.000121733
4.14847e-05
0.000107332
-6.81955e-05
5.89973e-05
2.17749e-05
0.000116854
-6.9121e-05
4.20503e-05
2.18254e-05
0.000130284
2.17158e-05
2.17158e-05
0.000137965
1.49269e-13
2.16254e-05
0.00014148
-2.17158e-05
2.16254e-05
0.00014148
-4.20503e-05
2.17158e-05
0.000137965
-5.89973e-05
2.18254e-05
0.000130284
2.17749e-05
0.000116854
-6.9121e-05
5.91027e-05
9.37872e-13
0.000121561
-6.94051e-05
4.1986e-05
1.16698e-12
0.000134326
2.16254e-05
1.14399e-12
0.00014148
1.20993e-13
1.12022e-12
0.000144691
-2.16254e-05
1.08927e-12
0.000144691
-4.1986e-05
1.05708e-12
0.00014148
-5.91027e-05
1.06237e-12
0.000134326
8.60669e-13
0.000121561
-6.94051e-05
5.91027e-05
-2.17749e-05
0.000121561
-6.94051e-05
4.1986e-05
-2.18254e-05
0.000134326
2.16254e-05
-2.17158e-05
0.00014148
9.04204e-14
-2.16254e-05
0.000144691
-2.16254e-05
-2.16254e-05
0.000144691
-4.1986e-05
-2.17158e-05
0.00014148
-5.91027e-05
-2.18254e-05
0.000134326
-2.17749e-05
0.000121561
-6.94051e-05
5.89973e-05
-4.14846e-05
0.000116854
-6.9121e-05
4.20503e-05
-4.20291e-05
0.000130284
2.17158e-05
-4.20503e-05
0.000137965
4.98468e-14
-4.1986e-05
0.00014148
-2.17158e-05
-4.1986e-05
0.00014148
-4.20503e-05
-4.20503e-05
0.000137965
-5.89973e-05
-4.20291e-05
0.000130284
-4.14846e-05
0.000116854
-6.9121e-05
5.85524e-05
-5.70227e-05
0.000107332
-6.81955e-05
4.20291e-05
-5.85524e-05
0.000121733
2.18254e-05
-5.89973e-05
0.000130284
1.1108e-14
-5.91027e-05
0.000134326
-2.18254e-05
-5.91027e-05
0.000134326
-4.20291e-05
-5.89973e-05
0.000130284
-5.85524e-05
-5.85524e-05
0.000121733
-5.70227e-05
0.000107332
-6.81955e-05
5.70227e-05
9.25627e-05
-6.58089e-05
-6.58089e-05
4.14847e-05
0.000107332
-6.81955e-05
2.17749e-05
0.000116854
-6.9121e-05
-8.70538e-15
0.000121561
-6.94051e-05
-2.17749e-05
0.000121561
-6.94051e-05
-4.14847e-05
0.000116854
-6.9121e-05
-5.70227e-05
0.000107332
-6.81955e-05
9.25627e-05
-6.58089e-05
-6.58089e-05
2.12981e-05
2.12981e-05
9.11553e-05
-2.05944e-05
-2.05944e-05
1.7387e-05
2.43165e-05
0.000110076
-2.31488e-05
9.64834e-06
2.60548e-05
0.000123205
-2.46671e-05
1.16178e-13
2.68715e-05
0.000129837
-2.54995e-05
-9.64834e-06
2.68715e-05
0.000129837
-2.54995e-05
-1.7387e-05
2.60548e-05
0.000123205
-2.46671e-05
-2.12981e-05
2.43165e-05
0.000110076
-2.31488e-05
2.12981e-05
9.11553e-05
-2.05944e-05
-2.05944e-05
2.43165e-05
1.7387e-05
0.000110076
-2.31488e-05
1.97648e-05
1.97648e-05
0.000130836
1.0936e-05
2.11179e-05
0.00014405
9.96554e-14
2.17195e-05
0.000150414
-1.0936e-05
2.17195e-05
0.000150414
-1.97648e-05
2.11179e-05
0.00014405
-2.43165e-05
1.97648e-05
0.000130836
1.7387e-05
0.000110076
-2.31488e-05
2.60548e-05
9.64834e-06
0.000123205
-2.46671e-05
2.11179e-05
1.0936e-05
0.00014405
1.1672e-05
1.1672e-05
0.000156857
6.23425e-14
1.19938e-05
0.000162878
-1.1672e-05
1.19938e-05
0.000162878
-2.11179e-05
1.1672e-05
0.000156857
-2.60548e-05
1.0936e-05
0.00014405
9.64834e-06
0.000123205
-2.46671e-05
2.68715e-05
8.09295e-13
0.000129837
-2.54995e-05
2.17195e-05
9.42527e-13
0.000150414
1.19938e-05
8.91804e-13
0.000162878
3.49015e-14
8.67524e-13
0.000168678
-1.19938e-05
8.40324e-13
0.000168678
-2.17195e-05
8.19555e-13
0.000162878
-2.68715e-05
8.59211e-13
0.000150414
7.5148e-13
0.000129837
-2.54995e-05
2.68715e-05
-9.64834e-06
0.000129837
-2.54995e-05
2.17195e-05
-1.0936e-05
0.000150414
1.19938e-05
-1.1672e-05
0.000162878
8.45204e-15
-1.19938e-05
0.000168678
-1.19938e-05
-1.19938e-05
0.000168678
-2.17195e-05
-1.1672e-05
0.000162878
-2.68715e-05
-1.0936e-05
0.000150414
-9.64834e-06
0.000129837
-2.54995e-05
2.60548e-05
-1.7387e-05
0.000123205
-2.46671e-05
2.11179e-05
-1.97648e-05
0.00014405
1.1672e-05
-2.11179e-05
0.000156857
-2.67119e-14
-2.17195e-05
0.000162878
-1.1672e-05
-2.17195e-05
0.000162878
-2.11179e-05
-2.11179e-05
0.000156857
-2.60548e-05
-1.97648e-05
0.00014405
-1.7387e-05
0.000123205
-2.46671e-05
2.43165e-05
-2.12981e-05
0.000110076
-2.31488e-05
1.97648e-05
-2.43165e-05
0.000130836
1.0936e-05
-2.60548e-05
0.00014405
-6.50634e-14
-2.68715e-05
0.000150414
-1.0936e-05
-2.68715e-05
0.000150414
-1.97648e-05
-2.60548e-05
0.00014405
-2.43165e-05
-2.43165e-05
0.000130836
-2.12981e-05
0.000110076
-2.31488e-05
2.12981e-05
9.11553e-05
-2.05944e-05
-2.05944e-05
1.7387e-05
0.000110076
-2.31488e-05
9.64834e-06
0.000123205
-2.46671e-05
-8.05721e-14
0.000129837
-2.54995e-05
-9.64834e-06
0.000129837
-2.54995e-05
-1.7387e-05
0.000123205
-2.46671e-05
-2.12981e-05
0.000110076
-2.31488e-05
9.11553e-05
-2.05944e-05
-2.05944e-05
1.18127e-05
1.18127e-05
8.91259e-05
-1.0798e-05
-1.0798e-05
9.90265e-06
1.43956e-05
0.000110627
-1.30364e-05
5.62155e-06
1.59718e-05
0.000125963
-1.44489e-05
1.93007e-13
1.67467e-05
0.000133897
-1.51853e-05
-5.62154e-06
1.67467e-05
0.000133897
-1.51853e-05
-9.90265e-06
1.59718e-05
0.000125963
-1.44489e-05
-1.18127e-05
1.43956e-05
0.000110627
-1.30364e-05
1.18127e-05
8.91259e-05
-1.0798e-05
-1.0798e-05
1.43956e-05
9.90265e-06
0.000110627
-1.30364e-05
1.20477e-05
1.20477e-05
0.000135532
6.80902e-06
1.33212e-05
0.000151939
1.46224e-13
1.39201e-05
0.00016005
-6.80902e-06
1.39201e-05
0.00016005
-1.20477e-05
1.33212e-05
0.000151939
-1.43956e-05
1.20477e-05
0.000135532
9.90265e-06
0.000110627
-1.30364e-05
1.59718e-05
5.62155e-06
0.000125963
-1.44489e-05
1.33212e-05
6.80903e-06
0.000151939
7.49972e-06
7.49973e-06
0.0001685
7.56745e-14
7.81056e-06
0.000176487
-7.49972e-06
7.81056e-06
0.000176487
-1.33212e-05
7.49972e-06
0.0001685
-1.59718e-05
6.80902e-06
0.000151939
5.62155e-06
0.000125963
-1.44489e-05
1.67467e-05
9.59905e-13
0.000133897
-1.51853e-05
1.39201e-05
1.04731e-12
0.00016005
7.81056e-06
9.12179e-13
0.000176487
2.95067e-14
8.29827e-13
0.000184299
-7.81056e-06
7.9293e-13
0.000184299
-1.39201e-05
8.06042e-13
0.000176487
-1.67467e-05
8.96895e-13
0.00016005
8.14799e-13
0.000133897
-1.51853e-05
1.67467e-05
-5.62154e-06
0.000133897
-1.51853e-05
1.39201e-05
-6.80902e-06
0.00016005
7.81056e-06
-7.49972e-06
0.000176487
-3.82521e-15
-7.81055e-06
0.000184299
-7.81056e-06
-7.81055e-06
0.000184299
-1.39201e-05
-7.49972e-06
0.000176487
-1.67467e-05
-6.80902e-06
0.00016005
-5.62154e-06
0.000133897
-1.51853e-05
1.59718e-05
-9.90265e-06
0.000125963
-1.44489e-05
1.33212e-05
-1.20476e-05
0.000151939
7.49972e-06
-1.33212e-05
0.0001685
-4.51267e-14
-1.39201e-05
0.000176487
-7.49972e-06
-1.39201e-05
0.000176487
-1.33212e-05
-1.33212e-05
0.0001685
-1.59718e-05
-1.20477e-05
0.000151939
-9.90265e-06
0.000125963
-1.44489e-05
1.43956e-05
-1.18127e-05
0.000110627
-1.30364e-05
1.20477e-05
-1.43956e-05
0.000135532
6.80902e-06
-1.59718e-05
0.000151939
-8.60343e-14
-1.67467e-05
0.00016005
-6.80902e-06
-1.67467e-05
0.00016005
-1.20477e-05
-1.59718e-05
0.000151939
-1.43956e-05
-1.43956e-05
0.000135532
-1.18127e-05
0.000110627
-1.30364e-05
1.18127e-05
8.91259e-05
-1.0798e-05
-1.0798e-05
9.90265e-06
0.000110627
-1.30364e-05
5.62154e-06
0.000125963
-1.44489e-05
-1.00408e-13
0.000133897
-1.51853e-05
-5.62154e-06
0.000133897
-1.51853e-05
-9.90265e-06
0.000125963
-1.44489e-05
-1.18127e-05
0.000110627
-1.30364e-05
8.91259e-05
-1.0798e-05
-1.0798e-05
2.98521e-06
2.98521e-06
8.73785e-05
-2.11152e-06
-2.11152e-06
2.93654e-06
4.20871e-06
0.000109321
-2.85467e-06
1.80601e-06
5.10333e-06
0.000125443
-3.45295e-06
3.76947e-14
5.56796e-06
0.000133927
-3.79171e-06
-1.80601e-06
5.56796e-06
0.000133927
-3.79171e-06
-2.93654e-06
5.10333e-06
0.000125443
-3.45295e-06
-2.98521e-06
4.20871e-06
0.000109321
-2.85467e-06
2.98521e-06
8.73785e-05
-2.11152e-06
-2.11152e-06
4.20871e-06
2.93654e-06
0.000109321
-2.85467e-06
4.13753e-06
4.13753e-06
0.000135674
2.52404e-06
4.95623e-06
0.000153699
8.56223e-15
5.34154e-06
0.0001628
-2.52404e-06
5.34154e-06
0.0001628
-4.13753e-06
4.95623e-06
0.000153699
-4.20871e-06
4.13753e-06
0.000135674
2.93654e-06
0.000109321
-2.85467e-06
5.10333e-06
1.80601e-06
0.000125443
-3.45295e-06
4.95623e-06
2.52404e-06
0.000153699
2.98743e-06
2.98743e-06
0.000172437
-3.2971e-14
3.17437e-06
0.000181642
-2.98743e-06
3.17437e-06
0.000181642
-4.95623e-06
2.98743e-06
0.000172437
-5.10333e-06
2.52404e-06
0.000153699
1.80601e-06
0.000125443
-3.45295e-06
5.56796e-06
9.35128e-13
0.000133927
-3.79171e-06
5.34154e-06
1.05626e-12
0.0001628
3.17437e-06
9.28727e-13
0.000181642
-6.39323e-14
8.21302e-13
0.000190648
-3.17437e-06
7.97619e-13
0.000190648
-5.34154e-06
8.61717e-13
0.000181642
-5.56796e-06
9.80791e-13
0.0001628
8.94315e-13
0.000133927
-3.79171e-06
5.56796e-06
-1.80601e-06
0.000133927
-3.79171e-06
5.34154e-06
-2.52404e-06
0.0001628
3.17437e-06
-2.98743e-06
0.000181642
-8.77493e-14
-3.17437e-06
0.000190648
-3.17437e-06
-3.17437e-06
0.000190648
-5.34154e-06
-2.98743e-06
0.000181642
-5.56796e-06
-2.52404e-06
0.0001628
-1.80601e-06
0.000133927
-3.79171e-06
5.10333e-06
-2.93654e-06
0.000125443
-3.45295e-06
4.95623e-06
-4.13753e-06
0.000153699
2.98743e-06
-4.95623e-06
0.000172437
-1.15406e-13
-5.34154e-06
0.000181642
-2.98743e-06
-5.34154e-06
0.000181642
-4.95623e-06
-4.95623e-06
0.000172437
-5.10333e-06
-4.13753e-06
0.000153699
-2.93654e-06
0.000125443
-3.45295e-06
4.20871e-06
-2.98521e-06
0.000109321
-2.85467e-06
4.13753e-06
-4.20871e-06
0.000135674
2.52404e-06
-5.10333e-06
0.000153699
-1.52627e-13
-5.56796e-06
0.0001628
-2.52404e-06
-5.56796e-06
0.0001628
-4.13753e-06
-5.10333e-06
0.000153699
-4.20871e-06
-4.20871e-06
0.000135674
-2.98521e-06
0.000109321
-2.85467e-06
2.98521e-06
8.73785e-05
-2.11152e-06
-2.11152e-06
2.93654e-06
0.000109321
-2.85467e-06
1.80601e-06
0.000125443
-3.45295e-06
-1.62138e-13
0.000133927
-3.79171e-06
-1.80601e-06
0.000133927
-3.79171e-06
-2.93654e-06
0.000125443
-3.45295e-06
-2.98521e-06
0.000109321
-2.85467e-06
8.73785e-05
-2.11152e-06
-2.11152e-06
1.75855e-06
1.75855e-06
8.68359e-05
-1.48727e-06
-1.48727e-06
1.58507e-06
2.31764e-06
0.000109058
-1.88066e-06
9.44341e-07
2.7317e-06
0.000125519
-2.1672e-06
2.86542e-13
2.94525e-06
0.000134245
-2.31887e-06
-9.44341e-07
2.94525e-06
0.000134245
-2.31887e-06
-1.58507e-06
2.7317e-06
0.000125519
-2.1672e-06
-1.75855e-06
2.31764e-06
0.000109058
-1.88066e-06
1.75855e-06
8.68359e-05
-1.48727e-06
-1.48727e-06
2.31764e-06
1.58508e-06
0.000109058
-1.88066e-06
2.13339e-06
2.13339e-06
0.000136043
1.27625e-06
2.52942e-06
0.000154759
2.3472e-13
2.71285e-06
0.000164309
-1.27625e-06
2.71285e-06
0.000164309
-2.13339e-06
2.52942e-06
0.000154759
-2.31764e-06
2.13339e-06
0.000136043
1.58508e-06
0.000109058
-1.88066e-06
2.7317e-06
9.44342e-07
0.000125519
-2.1672e-06
2.52941e-06
1.27625e-06
0.000154759
1.50567e-06
1.50567e-06
0.000174485
1.40569e-13
1.58998e-06
0.00018427
-1.50567e-06
1.58998e-06
0.00018427
-2.52941e-06
1.50567e-06
0.000174485
-2.7317e-06
1.27625e-06
0.000154759
9.44342e-07
0.000125519
-2.1672e-06
2.94525e-06
1.2053e-12
0.000134245
-2.31887e-06
2.71285e-06
1.33203e-12
0.000164309
1.58997e-06
1.15e-12
0.00018427
7.1132e-14
9.8016e-13
0.000193828
-1.58997e-06
9.39785e-13
0.000193828
-2.71285e-06
1.02589e-12
0.00018427
-2.94525e-06
1.15269e-12
0.000164309
1.03162e-12
0.000134245
-2.31887e-06
2.94525e-06
-9.4434e-07
0.000134245
-2.31887e-06
2.71285e-06
-1.27624e-06
0.000164309
1.58997e-06
-1.50567e-06
0.00018427
3.17668e-14
-1.58997e-06
0.000193828
-1.58997e-06
-1.58997e-06
0.000193828
-2.71285e-06
-1.50567e-06
0.00018427
-2.94525e-06
-1.27624e-06
0.000164309
-9.4434e-07
0.000134245
-2.31887e-06
2.7317e-06
-1.58507e-06
0.000125519
-2.1672e-06
2.52941e-06
-2.13338e-06
0.000154759
1.50567e-06
-2.52941e-06
0.000174485
2.21155e-15
-2.71285e-06
0.00018427
-1.50567e-06
-2.71285e-06
0.00018427
-2.52941e-06
-2.52941e-06
0.000174485
-2.7317e-06
-2.13338e-06
0.000154759
-1.58507e-06
0.000125519
-2.1672e-06
2.31764e-06
-1.75855e-06
0.000109058
-1.88066e-06
2.13339e-06
-2.31763e-06
0.000136043
1.27625e-06
-2.7317e-06
0.000154759
-2.62514e-14
-2.94525e-06
0.000164309
-1.27625e-06
-2.94525e-06
0.000164309
-2.13339e-06
-2.7317e-06
0.000154759
-2.31764e-06
-2.31763e-06
0.000136043
-1.75855e-06
0.000109058
-1.88066e-06
1.75855e-06
8.68359e-05
-1.48727e-06
-1.48727e-06
1.58507e-06
0.000109058
-1.88066e-06
9.44341e-07
0.000125519
-2.1672e-06
-4.58375e-14
0.000134245
-2.31887e-06
-9.44341e-07
0.000134245
-2.31887e-06
-1.58507e-06
0.000125519
-2.1672e-06
-1.75855e-06
0.000109058
-1.88066e-06
8.68359e-05
-1.48727e-06
-1.48727e-06
6.09094e-07
6.09095e-07
8.65409e-05
-4.61559e-07
-4.61558e-07
5.88221e-07
8.41815e-07
0.000108839
-6.01563e-07
3.62056e-07
1.02624e-06
0.000125434
-7.14691e-07
-1.69067e-14
1.12581e-06
0.00013426
-7.78511e-07
-3.62057e-07
1.12581e-06
0.00013426
-7.78511e-07
-5.88221e-07
1.02624e-06
0.000125434
-7.14691e-07
-6.09094e-07
8.41815e-07
0.000108839
-6.01563e-07
6.09095e-07
8.65409e-05
-4.61559e-07
-4.61559e-07
8.41814e-07
5.88222e-07
0.000108839
-6.01562e-07
8.30744e-07
8.30746e-07
0.000136065
5.13707e-07
1.01887e-06
0.000155083
-4.17876e-14
1.11174e-06
0.000164837
-5.13707e-07
1.11174e-06
0.000164837
-8.30745e-07
1.01887e-06
0.000155083
-8.41815e-07
8.30746e-07
0.000136065
5.88222e-07
0.000108839
-6.01564e-07
1.02624e-06
3.62058e-07
0.000125434
-7.14691e-07
1.01887e-06
5.13708e-07
0.000155083
6.28552e-07
6.28553e-07
0.000175266
-7.3313e-14
6.77036e-07
0.000185334
-6.28552e-07
6.77036e-07
0.000185334
-1.01887e-06
6.28553e-07
0.000175266
-1.02624e-06
5.13708e-07
0.000155083
3.62058e-07
0.000125434
-7.14692e-07
1.12581e-06
1.24613e-12
0.00013426
-7.78511e-07
1.11173e-06
1.43013e-12
0.000164837
6.77035e-07
1.28858e-12
0.000185334
-9.40059e-14
1.14459e-12
0.000195182
-6.77035e-07
1.12846e-12
0.000195182
-1.11173e-06
1.25108e-12
0.000185334
-1.12581e-06
1.40668e-12
0.000164837
1.27162e-12
0.00013426
-7.78512e-07
1.12581e-06
-3.62055e-07
0.00013426
-7.78511e-07
1.11173e-06
-5.13705e-07
0.000164837
6.77035e-07
-6.28551e-07
0.000185334
-1.09558e-13
-6.77034e-07
0.000195182
-6.77035e-07
-6.77034e-07
0.000195182
-1.11173e-06
-6.28551e-07
0.000185334
-1.12581e-06
-5.13705e-07
0.000164837
-3.62055e-07
0.00013426
-7.78512e-07
1.02624e-06
-5.8822e-07
0.000125434
-7.14691e-07
1.01887e-06
-8.30743e-07
0.000155083
6.28552e-07
-1.01887e-06
0.000175266
-1.25705e-13
-1.11173e-06
0.000185334
-6.28552e-07
-1.11173e-06
0.000185334
-1.01887e-06
-1.01887e-06
0.000175266
-1.02624e-06
-8.30743e-07
0.000155083
-5.8822e-07
0.000125434
-7.14692e-07
8.41814e-07
-6.09093e-07
0.000108839
-6.01562e-07
8.30745e-07
-8.41813e-07
0.000136065
5.13707e-07
-1.02624e-06
0.000155083
-1.4808e-13
-1.12581e-06
0.000164837
-5.13707e-07
-1.12581e-06
0.000164837
-8.30745e-07
-1.02624e-06
0.000155083
-8.41815e-07
-8.41813e-07
0.000136065
-6.09093e-07
0.000108839
-6.01563e-07
6.09094e-07
8.65409e-05
-4.61558e-07
-4.61558e-07
5.88221e-07
0.000108839
-6.01562e-07
3.62056e-07
0.000125434
-7.1469e-07
-1.50633e-13
0.00013426
-7.78511e-07
-3.62057e-07
0.00013426
-7.78511e-07
-5.88221e-07
0.000125434
-7.14691e-07
-6.09094e-07
0.000108839
-6.01562e-07
8.65409e-05
-4.61559e-07
-4.61558e-07
3.37042e-07
3.37043e-07
8.64326e-05
-2.82881e-07
-2.82881e-07
3.05728e-07
4.42556e-07
0.000108783
-3.55841e-07
1.82771e-07
5.24017e-07
0.000125443
-4.10568e-07
2.36999e-13
5.67997e-07
0.000134315
-4.40395e-07
-1.8277e-07
5.67997e-07
0.000134315
-4.40394e-07
-3.05727e-07
5.24016e-07
0.000125443
-4.10568e-07
-3.37042e-07
4.42555e-07
0.000108783
-3.55841e-07
3.37043e-07
8.64326e-05
-2.82881e-07
-2.82881e-07
4.42554e-07
3.05729e-07
0.000108783
-3.5584e-07
4.11361e-07
4.11363e-07
0.000136127
2.48164e-07
4.93895e-07
0.000155277
1.90977e-13
5.35806e-07
0.000165117
-2.48164e-07
5.35806e-07
0.000165117
-4.11361e-07
4.93895e-07
0.000155277
-4.42555e-07
4.11363e-07
0.000136127
3.05729e-07
0.000108783
-3.55841e-07
5.24015e-07
1.82772e-07
0.000125443
-4.10567e-07
4.93893e-07
2.48166e-07
0.000155277
2.99349e-07
2.99351e-07
0.000175655
1.05068e-13
3.22832e-07
0.000185846
-2.99349e-07
3.22832e-07
0.000185846
-4.93893e-07
2.9935e-07
0.000175655
-5.24015e-07
2.48165e-07
0.000155277
1.82772e-07
0.000125443
-4.10569e-07
5.67996e-07
1.76131e-12
0.000134315
-4.40393e-07
5.35805e-07
1.95074e-12
0.000165117
3.22831e-07
1.71808e-12
0.000185846
4.17543e-14
1.49456e-12
0.000195828
-3.22831e-07
1.44943e-12
0.000195828
-5.35805e-07
1.58929e-12
0.000185846
-5.67996e-07
1.75294e-12
0.000165117
1.55979e-12
0.000134315
-4.40395e-07
5.67996e-07
-1.82769e-07
0.000134315
-4.40393e-07
5.35805e-07
-2.48162e-07
0.000165117
3.22831e-07
-2.99347e-07
0.000185846
-2.35026e-16
-3.22829e-07
0.000195828
-3.22831e-07
-3.22829e-07
0.000195828
-5.35805e-07
-2.99347e-07
0.000185846
-5.67996e-07
-2.48162e-07
0.000165117
-1.82769e-07
0.000134315
-4.40395e-07
5.24015e-07
-3.05726e-07
0.000125443
-4.10567e-07
4.93893e-07
-4.11359e-07
0.000155277
2.99349e-07
-4.93892e-07
0.000175655
-3.32877e-14
-5.35803e-07
0.000185846
-2.99349e-07
-5.35803e-07
0.000185846
-4.93894e-07
-4.93892e-07
0.000175655
-5.24015e-07
-4.11359e-07
0.000155277
-3.05726e-07
0.000125443
-4.10568e-07
4.42554e-07
-3.37041e-07
0.000108783
-3.5584e-07
4.11361e-07
-4.42553e-07
0.000136127
2.48164e-07
-5.24014e-07
0.000155277
-7.64643e-14
-5.67995e-07
0.000165117
-2.48164e-07
-5.67995e-07
0.000165117
-4.11361e-07
-5.24014e-07
0.000155277
-4.42554e-07
-4.42553e-07
0.000136127
-3.37041e-07
0.000108783
-3.55841e-07
3.37042e-07
8.64326e-05
-2.8288e-07
-2.8288e-07
3.05727e-07
0.000108783
-3.55839e-07
1.8277e-07
0.000125443
-4.10567e-07
-9.00352e-14
0.000134315
-4.40393e-07
-1.82771e-07
0.000134315
-4.40393e-07
-3.05728e-07
0.000125443
-4.10567e-07
-3.37042e-07
0.000108783
-3.5584e-07
8.64326e-05
-2.8288e-07
-2.8288e-07
1.51349e-07
1.5135e-07
8.63735e-05
-1.21837e-07
-1.21836e-07
1.4034e-07
2.02146e-07
0.000108747
-1.55427e-07
8.45679e-08
2.41371e-07
0.000125439
-1.81513e-07
-1.00581e-13
2.62704e-07
0.000134333
-1.96085e-07
-8.45681e-08
2.62704e-07
0.000134333
-1.96085e-07
-1.4034e-07
2.41371e-07
0.000125439
-1.81513e-07
-1.51349e-07
2.02146e-07
0.000108747
-1.55427e-07
1.5135e-07
8.63735e-05
-1.21837e-07
-1.21837e-07
2.02144e-07
1.40341e-07
0.000108747
-1.55426e-07
1.91011e-07
1.91013e-07
0.00013615
1.15755e-07
2.3023e-07
0.000155363
-9.67843e-14
2.50411e-07
0.000165245
-1.15756e-07
2.50411e-07
0.000165245
-1.91012e-07
2.3023e-07
0.000155363
-2.02144e-07
1.91013e-07
0.00013615
1.40342e-07
0.000108747
-1.55427e-07
2.41369e-07
8.45699e-08
0.000125439
-1.81512e-07
2.30228e-07
1.15757e-07
0.000155363
1.40054e-07
1.40056e-07
0.000175835
-1.01944e-13
1.51655e-07
0.000186085
-1.40054e-07
1.51655e-07
0.000186085
-2.30228e-07
1.40056e-07
0.000175835
-2.4137e-07
1.15758e-07
0.000155363
8.45699e-08
0.000125439
-1.81513e-07
2.62702e-07
1.69426e-12
0.000134333
-1.96083e-07
2.50409e-07
1.9402e-12
0.000165245
1.51653e-07
1.76111e-12
0.000186085
-1.04522e-13
1.58005e-12
0.000196131
-1.51653e-07
1.56604e-12
0.000196131
-2.50409e-07
1.74203e-12
0.000186085
-2.62703e-07
1.93744e-12
0.000165245
1.74284e-12
0.000134333
-1.96084e-07
2.62702e-07
-8.45665e-08
0.000134333
-1.96083e-07
2.50409e-07
-1.15754e-07
0.000165245
1.51653e-07
-1.40052e-07
0.000186085
-1.17405e-13
-1.51651e-07
0.000196131
-1.51653e-07
-1.51651e-07
0.000196131
-2.50409e-07
-1.40052e-07
0.000186085
-2.62703e-07
-1.15754e-07
0.000165245
-8.45665e-08
0.000134333
-1.96084e-07
2.4137e-07
-1.40338e-07
0.000125439
-1.81512e-07
2.30228e-07
-1.9101e-07
0.000155363
1.40054e-07
-2.30226e-07
0.000175835
-1.32582e-13
-2.50408e-07
0.000186085
-1.40054e-07
-2.50408e-07
0.000186085
-2.30228e-07
-2.30226e-07
0.000175835
-2.4137e-07
-1.9101e-07
0.000155363
-1.40338e-07
0.000125439
-1.81513e-07
2.02144e-07
-1.51348e-07
0.000108747
-1.55426e-07
1.91011e-07
-2.02143e-07
0.00013615
1.15755e-07
-2.41368e-07
0.000155363
-1.64448e-13
-2.62701e-07
0.000165245
-1.15756e-07
-2.62701e-07
0.000165245
-1.91012e-07
-2.41369e-07
0.000155363
-2.02144e-07
-2.02143e-07
0.00013615
-1.51348e-07
0.000108747
-1.55427e-07
1.51349e-07
8.63735e-05
-1.21836e-07
-1.21836e-07
1.4034e-07
0.000108747
-1.55425e-07
8.4568e-08
0.000125439
-1.81511e-07
-1.69766e-13
0.000134333
-1.96083e-07
-8.45684e-08
0.000134333
-1.96083e-07
-1.4034e-07
0.000125439
-1.81512e-07
-1.51349e-07
0.000108747
-1.55426e-07
8.63735e-05
-1.21836e-07
-1.21836e-07
7.90334e-08
7.90348e-08
8.63467e-05
-6.56226e-08
-6.56227e-08
7.18498e-08
1.04054e-07
0.000108733
-8.28797e-08
4.28783e-08
1.23074e-07
0.000125441
-9.59207e-08
5.79061e-13
1.33331e-07
0.000134345
-1.03102e-07
-4.28772e-08
1.3333e-07
0.000134345
-1.03102e-07
-7.1849e-08
1.23074e-07
0.000125441
-9.59203e-08
-7.90329e-08
1.04053e-07
0.000108733
-8.2879e-08
7.90341e-08
8.63467e-05
-6.56226e-08
-6.56225e-08
1.04052e-07
7.18515e-08
0.000108733
-8.28783e-08
9.64212e-08
9.64233e-08
0.000136165
5.78785e-08
1.15182e-07
0.000155409
5.3408e-13
1.24754e-07
0.000165311
-5.78775e-08
1.24754e-07
0.000165311
-9.64206e-08
1.15181e-07
0.000155409
-1.04052e-07
9.64228e-08
0.000136165
7.1851e-08
0.000108733
-8.28792e-08
1.23072e-07
4.288e-08
0.000125441
-9.59191e-08
1.1518e-07
5.78805e-08
0.000155409
6.9419e-08
6.94209e-08
0.000175927
3.88889e-13
7.49053e-08
0.000186204
-6.94183e-08
7.49053e-08
0.000186204
-1.15179e-07
6.94206e-08
0.000175927
-1.23072e-07
5.78801e-08
0.000155409
4.28795e-08
0.000125441
-9.59202e-08
1.33329e-07
2.23184e-12
0.000134345
-1.031e-07
1.24752e-07
2.45381e-12
0.000165311
7.49036e-08
2.15548e-12
0.000186204
2.72129e-13
1.86827e-12
0.000196281
-7.49032e-08
1.79708e-12
0.000196281
-1.24752e-07
1.93743e-12
0.000186204
-1.33329e-07
2.10782e-12
0.000165311
1.85257e-12
0.000134345
-1.03101e-07
1.33329e-07
-4.28757e-08
0.000134345
-1.031e-07
1.24752e-07
-5.78757e-08
0.000165311
7.49036e-08
-6.94166e-08
0.000186204
2.02437e-13
-7.49016e-08
0.000196281
-7.49033e-08
-7.49016e-08
0.000196281
-1.24752e-07
-6.94168e-08
0.000186204
-1.33329e-07
-5.7876e-08
0.000165311
-4.28759e-08
0.000134345
-1.03102e-07
1.23072e-07
-7.18475e-08
0.000125441
-9.59191e-08
1.1518e-07
-9.64188e-08
0.000155409
6.94189e-08
-1.15177e-07
0.000175927
1.59232e-13
-1.24751e-07
0.000186204
-6.94186e-08
-1.24751e-07
0.000186204
-1.15179e-07
-1.15178e-07
0.000175927
-1.23072e-07
-9.6419e-08
0.000155409
-7.18476e-08
0.000125441
-9.59201e-08
1.04052e-07
-7.90315e-08
0.000108733
-8.2878e-08
9.64211e-08
-1.0405e-07
0.000136165
5.78782e-08
-1.2307e-07
0.000155409
1.19596e-13
-1.33327e-07
0.000165311
-5.7878e-08
-1.33327e-07
0.000165311
-9.6421e-08
-1.23071e-07
0.000155409
-1.04052e-07
-1.0405e-07
0.000136165
-7.90316e-08
0.000108733
-8.28788e-08
7.90329e-08
8.63467e-05
-6.56217e-08
-6.56213e-08
7.18495e-08
0.000108733
-8.28775e-08
4.28779e-08
0.000125441
-9.59185e-08
7.39672e-14
0.000134345
-1.031e-07
-4.28778e-08
0.000134345
-1.031e-07
-7.18494e-08
0.000125441
-9.59188e-08
-7.90327e-08
0.000108733
-8.2878e-08
8.63467e-05
-6.56216e-08
-6.5622e-08
3.80811e-08
3.80827e-08
8.63326e-05
-3.10252e-08
-3.10249e-08
3.50235e-08
5.0617e-08
0.000108725
-3.94627e-08
2.10081e-08
6.0199e-08
0.000125441
-4.59525e-08
3.06256e-13
6.53713e-08
0.00013435
-4.95579e-08
-2.10075e-08
6.53712e-08
0.00013435
-4.95578e-08
-3.50231e-08
6.01987e-08
0.000125441
-4.59522e-08
-3.80809e-08
5.06166e-08
0.000108725
-3.94622e-08
3.80824e-08
8.63326e-05
-3.10253e-08
-3.10247e-08
5.06147e-08
3.50256e-08
0.000108725
-3.94609e-08
4.73939e-08
4.73964e-08
0.000136171
2.85617e-08
5.68268e-08
0.000155432
2.81891e-13
6.16254e-08
0.000165344
-2.85612e-08
6.16253e-08
0.000165344
-4.73936e-08
5.68266e-08
0.000155432
-5.06147e-08
4.73961e-08
0.000136171
3.50254e-08
0.000108725
-3.94619e-08
6.01966e-08
2.10101e-08
0.000125441
-4.59503e-08
5.68244e-08
2.8564e-08
0.000155432
3.43454e-08
3.43475e-08
0.000175971
1.77593e-13
3.7087e-08
0.000186263
-3.43451e-08
3.70869e-08
0.000186263
-5.68243e-08
3.43474e-08
0.000175971
-6.01967e-08
2.85638e-08
0.000155432
2.10099e-08
0.000125441
-4.59512e-08
6.5369e-08
2.04572e-12
0.00013435
-4.95557e-08
6.16232e-08
2.31113e-12
0.000165344
3.7085e-08
2.07201e-12
0.000186263
1.02057e-13
1.83337e-12
0.000196355
-3.70849e-08
1.7858e-12
0.000196355
-6.16232e-08
1.94589e-12
0.000186263
-6.53691e-08
2.1282e-12
0.000165344
1.89027e-12
0.00013435
-4.95564e-08
6.53691e-08
-2.10061e-08
0.00013435
-4.95558e-08
6.16233e-08
-2.85594e-08
0.000165344
3.70851e-08
-3.43434e-08
0.000186263
5.51342e-14
-3.70833e-08
0.000196355
-3.7085e-08
-3.70833e-08
0.000196355
-6.16233e-08
-3.43435e-08
0.000186263
-6.53691e-08
-2.85596e-08
0.000165344
-2.10062e-08
0.00013435
-4.95564e-08
6.01968e-08
-3.50219e-08
0.000125441
-4.59505e-08
5.68246e-08
-4.73921e-08
0.000155432
3.43454e-08
-5.68228e-08
0.000175971
3.12408e-14
-6.16217e-08
0.000186263
-3.43454e-08
-6.16217e-08
0.000186263
-5.68246e-08
-5.68229e-08
0.000175971
-6.01968e-08
-4.73923e-08
0.000155432
-3.50221e-08
0.000125441
-4.5951e-08
5.06148e-08
-3.80797e-08
0.000108725
-3.94609e-08
4.7394e-08
-5.06132e-08
0.000136171
2.85616e-08
-6.01953e-08
0.000155432
7.83648e-15
-6.53678e-08
0.000165344
-2.85616e-08
-6.53679e-08
0.000165344
-4.7394e-08
-6.01955e-08
0.000155432
-5.06147e-08
-5.06135e-08
0.000136171
-3.808e-08
0.000108725
-3.94613e-08
3.80809e-08
8.63326e-05
-3.1024e-08
-3.10239e-08
3.50235e-08
0.000108725
-3.94603e-08
2.1008e-08
0.000125441
-4.595e-08
-2.52313e-14
0.00013435
-4.95554e-08
-2.1008e-08
0.00013435
-4.95555e-08
-3.50236e-08
0.000125441
-4.59503e-08
-3.80808e-08
0.000108725
-3.94608e-08
8.63326e-05
-3.10244e-08
-3.10242e-08
1.96299e-08
1.96314e-08
8.63257e-05
-1.61664e-08
-1.61664e-08
1.79431e-08
2.59695e-08
0.000108722
-2.04879e-08
1.07364e-08
3.08017e-08
0.000125441
-2.37793e-08
9.09144e-13
3.34043e-08
0.000134353
-2.55971e-08
-1.07347e-08
3.34041e-08
0.000134353
-2.55969e-08
-1.79417e-08
3.0801e-08
0.000125441
-2.37786e-08
-1.96289e-08
2.59683e-08
0.000108722
-2.04866e-08
1.96303e-08
8.63257e-05
-1.61659e-08
-1.61657e-08
2.59672e-08
1.7945e-08
0.000108722
-2.04861e-08
2.41871e-08
2.41893e-08
0.000136175
1.45479e-08
2.89467e-08
0.000155443
8.00147e-13
3.13606e-08
0.00016536
-1.45464e-08
3.13604e-08
0.00016536
-2.41859e-08
2.89462e-08
0.000155443
-2.59666e-08
2.41884e-08
0.000136175
1.7944e-08
0.000108722
-2.04866e-08
3.07994e-08
1.07381e-08
0.000125441
-2.37773e-08
2.89446e-08
1.455e-08
0.000155443
1.74637e-08
1.74656e-08
0.000175994
5.50034e-13
1.88402e-08
0.000186293
-1.74627e-08
1.88401e-08
0.000186293
-2.89439e-08
1.74652e-08
0.000175994
-3.07991e-08
1.45493e-08
0.000155443
1.07373e-08
0.000125441
-2.37781e-08
3.34022e-08
2.48094e-12
0.000134353
-2.55952e-08
3.13587e-08
2.6656e-12
0.00016536
1.88385e-08
2.28431e-12
0.000186293
3.61509e-13
1.9318e-12
0.000196393
-1.88378e-08
1.82064e-12
0.000196393
-3.13582e-08
1.93971e-12
0.000186293
-3.34021e-08
2.08655e-12
0.00016536
1.81793e-12
0.000134353
-2.55961e-08
3.34022e-08
-1.07333e-08
0.000134353
-2.55952e-08
3.13586e-08
-1.45447e-08
0.00016536
1.88384e-08
-1.74611e-08
0.000186293
2.51092e-13
-1.88363e-08
0.000196393
-1.8838e-08
-1.88364e-08
0.000196393
-3.13583e-08
-1.74614e-08
0.000186293
-3.34022e-08
-1.45452e-08
0.00016536
-1.07337e-08
0.000134353
-2.55962e-08
3.07993e-08
-1.79405e-08
0.000125441
-2.37772e-08
2.89444e-08
-2.41843e-08
0.000155443
1.74635e-08
-2.89423e-08
0.000175994
1.87789e-13
-3.13567e-08
0.000186293
-1.74632e-08
-3.13568e-08
0.000186293
-2.89442e-08
-2.89425e-08
0.000175994
-3.07993e-08
-2.41847e-08
0.000155443
-1.79407e-08
0.000125441
-2.37782e-08
2.59668e-08
-1.96277e-08
0.000108722
-2.04854e-08
2.41867e-08
-2.5965e-08
0.000136175
1.45474e-08
-3.07976e-08
0.000155443
1.3169e-13
-3.34006e-08
0.00016536
-1.45472e-08
-3.34007e-08
0.00016536
-2.41865e-08
-3.07978e-08
0.000155443
-2.59667e-08
-2.59653e-08
0.000136175
-1.96278e-08
0.000108722
-2.04862e-08
1.9629e-08
8.63257e-05
-1.61651e-08
-1.61646e-08
1.79425e-08
0.000108722
-2.0485e-08
1.07356e-08
0.000125441
-2.37766e-08
7.59304e-14
0.000134353
-2.55946e-08
-1.07355e-08
0.000134353
-2.55947e-08
-1.79424e-08
0.000125441
-2.37769e-08
-1.96289e-08
0.000108722
-2.04855e-08
8.63257e-05
-1.61649e-08
-1.61653e-08
9.77434e-09
9.77561e-09
8.63221e-05
-7.98494e-09
-7.98465e-09
8.98209e-09
1.29829e-08
0.00010872
-1.01458e-08
5.38875e-09
1.54381e-08
0.000125441
-1.18034e-08
-2.39086e-14
1.67634e-08
0.000134355
-1.27224e-08
-5.38878e-09
1.67633e-08
0.000134355
-1.27224e-08
-8.98219e-09
1.5438e-08
0.000125441
-1.18033e-08
-9.77453e-09
1.29828e-08
0.00010872
-1.01456e-08
9.77559e-09
8.63221e-05
-7.98533e-09
-7.98477e-09
1.29811e-08
8.98388e-09
0.00010872
-1.01445e-08
1.21564e-08
1.21585e-08
0.000136177
7.33101e-09
1.45848e-08
0.000155449
-3.37754e-14
1.58189e-08
0.000165369
-7.33113e-09
1.58188e-08
0.000165369
-1.21566e-08
1.45847e-08
0.000155449
-1.29815e-08
1.21584e-08
0.000136177
8.98386e-09
0.00010872
-1.01455e-08
1.54362e-08
5.39059e-09
0.000125441
-1.18018e-08
1.45828e-08
7.33309e-09
0.000155449
8.82146e-09
8.82335e-09
0.000176006
-8.33972e-14
9.52829e-09
0.000186308
-8.82165e-09
9.52827e-09
0.000186308
-1.45831e-08
8.82328e-09
0.000176006