/*--------------------------------*- C++ -*----------------------------------*\
| =========                 |                                                 |
| \\      /  F ield         | OpenFOAM: The Open Source CFD Toolbox           |
|  \\    /   O peration     | Version:  2406                                  |
|   \\  /    A nd           | Website:  www.openfoam.com                      |
|    \\/     M anipulation  |                                                 |
\*---------------------------------------------------------------------------*/
FoamFile
{
    version     2.0;
    format      ascii;
    arch        "LSB;label=32;scalar=64";
    class       surfaceScalarField;
    location    "2.3";
    object      phi;
}
// * * * * * * * * * * * * * * * * * * * * * * * * * * * * * * * * * * * * * //

dimensions      [0 3 -1 0 0 0 0];

oriented        oriented;

internalField   nonuniform List<scalar> 
46880
(
5.70227e-05
5.70227e-05
9.25627e-05
-6.58089e-05
-6.58089e-05
4.14847e-05
5.85524e-05
0.000107332
-6.81955e-05
2.17749e-05
5.89973e-05
0.000116854
-6.9121e-05
1.90419e-13
5.91027e-05
0.000121561
-6.94051e-05
-2.17749e-05
5.91027e-05
0.000121561
-6.94051e-05
-4.14847e-05
5.89973e-05
0.000116854
-6.9121e-05
-5.70227e-05
5.85524e-05
0.000107332
-6.81955e-05
5.70227e-05
9.25627e-05
-6.58089e-05
-6.58089e-05
5.85524e-05
4.14847e-05
0.000107332
-6.81955e-05
4.20291e-05
4.20291e-05
0.000121733
2.18254e-05
4.20503e-05
0.000130284
1.89645e-13
4.1986e-05
0.000134326
-2.18254e-05
4.1986e-05
0.000134326
-4.20291e-05
4.20503e-05
0.000130284
-5.85524e-05
4.20291e-05
0.000121733
4.14847e-05
0.000107332
-6.81955e-05
5.89973e-05
2.17749e-05
0.000116854
-6.9121e-05
4.20503e-05
2.18254e-05
0.000130284
2.17158e-05
2.17158e-05
0.000137965
1.52838e-13
2.16254e-05
0.00014148
-2.17158e-05
2.16254e-05
0.00014148
-4.20503e-05
2.17158e-05
0.000137965
-5.89973e-05
2.18254e-05
0.000130284
2.17749e-05
0.000116854
-6.9121e-05
5.91027e-05
8.85831e-13
0.000121561
-6.94051e-05
4.1986e-05
1.08983e-12
0.000134326
2.16254e-05
1.06499e-12
0.00014148
1.23565e-13
1.04195e-12
0.000144691
-2.16254e-05
1.01061e-12
0.000144691
-4.1986e-05
9.77947e-13
0.00014148
-5.91027e-05
9.8194e-13
0.000134326
7.98059e-13
0.000121561
-6.94051e-05
5.91027e-05
-2.17749e-05
0.000121561
-6.94051e-05
4.1986e-05
-2.18254e-05
0.000134326
2.16254e-05
-2.17158e-05
0.00014148
9.26407e-14
-2.16254e-05
0.000144691
-2.16254e-05
-2.16254e-05
0.000144691
-4.1986e-05
-2.17158e-05
0.00014148
-5.91027e-05
-2.18254e-05
0.000134326
-2.17749e-05
0.000121561
-6.94051e-05
5.89973e-05
-4.14846e-05
0.000116854
-6.9121e-05
4.20503e-05
-4.20291e-05
0.000130284
2.17158e-05
-4.20503e-05
0.000137965
5.32781e-14
-4.1986e-05
0.00014148
-2.17158e-05
-4.1986e-05
0.00014148
-4.20503e-05
-4.20503e-05
0.000137965
-5.89973e-05
-4.20291e-05
0.000130284
-4.14846e-05
0.000116854
-6.9121e-05
5.85524e-05
-5.70227e-05
0.000107332
-6.81955e-05
4.20291e-05
-5.85524e-05
0.000121733
2.18254e-05
-5.89973e-05
0.000130284
1.78501e-14
-5.91027e-05
0.000134326
-2.18254e-05
-5.91027e-05
0.000134326
-4.20291e-05
-5.89973e-05
0.000130284
-5.85524e-05
-5.85524e-05
0.000121733
-5.70227e-05
0.000107332
-6.81955e-05
5.70227e-05
9.25627e-05
-6.58089e-05
-6.58089e-05
4.14847e-05
0.000107332
-6.81955e-05
2.17749e-05
0.000116854
-6.9121e-05
-4.56957e-15
0.000121561
-6.94051e-05
-2.17749e-05
0.000121561
-6.94051e-05
-4.14847e-05
0.000116854
-6.9121e-05
-5.70227e-05
0.000107332
-6.81955e-05
9.25627e-05
-6.58089e-05
-6.58089e-05
2.12981e-05
2.12981e-05
9.11553e-05
-2.05944e-05
-2.05944e-05
1.7387e-05
2.43165e-05
0.000110076
-2.31488e-05
9.64834e-06
2.60548e-05
0.000123205
-2.46671e-05
1.22717e-13
2.68715e-05
0.000129837
-2.54995e-05
-9.64834e-06
2.68715e-05
0.000129837
-2.54995e-05
-1.7387e-05
2.60548e-05
0.000123205
-2.46671e-05
-2.12981e-05
2.43165e-05
0.000110076
-2.31488e-05
2.12981e-05
9.11553e-05
-2.05944e-05
-2.05944e-05
2.43165e-05
1.7387e-05
0.000110076
-2.31488e-05
1.97648e-05
1.97648e-05
0.000130836
1.0936e-05
2.11179e-05
0.00014405
1.05282e-13
2.17195e-05
0.000150414
-1.0936e-05
2.17195e-05
0.000150414
-1.97648e-05
2.11179e-05
0.00014405
-2.43165e-05
1.97648e-05
0.000130836
1.7387e-05
0.000110076
-2.31488e-05
2.60548e-05
9.64834e-06
0.000123205
-2.46671e-05
2.11179e-05
1.0936e-05
0.00014405
1.1672e-05
1.1672e-05
0.000156857
6.81905e-14
1.19938e-05
0.000162878
-1.1672e-05
1.19938e-05
0.000162878
-2.11179e-05
1.1672e-05
0.000156857
-2.60548e-05
1.0936e-05
0.00014405
9.64834e-06
0.000123205
-2.46671e-05
2.68715e-05
7.51417e-13
0.000129837
-2.54995e-05
2.17195e-05
8.67153e-13
0.000150414
1.19938e-05
8.18426e-13
0.000162878
4.14023e-14
7.96327e-13
0.000168678
-1.19938e-05
7.70192e-13
0.000168678
-2.17195e-05
7.49739e-13
0.000162878
-2.68715e-05
7.86999e-13
0.000150414
6.92581e-13
0.000129837
-2.54995e-05
2.68715e-05
-9.64834e-06
0.000129837
-2.54995e-05
2.17195e-05
-1.0936e-05
0.000150414
1.19938e-05
-1.1672e-05
0.000162878
1.65009e-14
-1.19938e-05
0.000168678
-1.19938e-05
-1.19938e-05
0.000168678
-2.17195e-05
-1.1672e-05
0.000162878
-2.68715e-05
-1.0936e-05
0.000150414
-9.64834e-06
0.000129837
-2.54995e-05
2.60548e-05
-1.7387e-05
0.000123205
-2.46671e-05
2.11179e-05
-1.97648e-05
0.00014405
1.1672e-05
-2.11179e-05
0.000156857
-1.80248e-14
-2.17195e-05
0.000162878
-1.1672e-05
-2.17195e-05
0.000162878
-2.11179e-05
-2.11179e-05
0.000156857
-2.60548e-05
-1.97648e-05
0.00014405
-1.7387e-05
0.000123205
-2.46671e-05
2.43165e-05
-2.12981e-05
0.000110076
-2.31488e-05
1.97648e-05
-2.43165e-05
0.000130836
1.0936e-05
-2.60548e-05
0.00014405
-5.20006e-14
-2.68715e-05
0.000150414
-1.0936e-05
-2.68715e-05
0.000150414
-1.97648e-05
-2.60548e-05
0.00014405
-2.43165e-05
-2.43165e-05
0.000130836
-2.12981e-05
0.000110076
-2.31488e-05
2.12981e-05
9.11553e-05
-2.05944e-05
-2.05944e-05
1.7387e-05
0.000110076
-2.31488e-05
9.64834e-06
0.000123205
-2.46671e-05
-6.85262e-14
0.000129837
-2.54995e-05
-9.64834e-06
0.000129837
-2.54995e-05
-1.7387e-05
0.000123205
-2.46671e-05
-2.12981e-05
0.000110076
-2.31488e-05
9.11553e-05
-2.05944e-05
-2.05944e-05
1.18127e-05
1.18127e-05
8.91259e-05
-1.0798e-05
-1.0798e-05
9.90265e-06
1.43956e-05
0.000110627
-1.30364e-05
5.62154e-06
1.59718e-05
0.000125963
-1.44489e-05
2.03476e-13
1.67467e-05
0.000133897
-1.51853e-05
-5.62154e-06
1.67467e-05
0.000133897
-1.51853e-05
-9.90265e-06
1.59718e-05
0.000125963
-1.44489e-05
-1.18127e-05
1.43956e-05
0.000110627
-1.30364e-05
1.18127e-05
8.91259e-05
-1.0798e-05
-1.0798e-05
1.43956e-05
9.90265e-06
0.000110627
-1.30364e-05
1.20477e-05
1.20477e-05
0.000135532
6.80902e-06
1.33212e-05
0.000151939
1.54108e-13
1.39201e-05
0.00016005
-6.80902e-06
1.39201e-05
0.00016005
-1.20477e-05
1.33212e-05
0.000151939
-1.43956e-05
1.20477e-05
0.000135532
9.90265e-06
0.000110627
-1.30364e-05
1.59718e-05
5.62155e-06
0.000125963
-1.44489e-05
1.33212e-05
6.80902e-06
0.000151939
7.49972e-06
7.49972e-06
0.0001685
8.43838e-14
7.81056e-06
0.000176487
-7.49972e-06
7.81056e-06
0.000176487
-1.33212e-05
7.49972e-06
0.0001685
-1.59718e-05
6.80902e-06
0.000151939
5.62155e-06
0.000125963
-1.44489e-05
1.67467e-05
9.05998e-13
0.000133897
-1.51853e-05
1.39201e-05
9.74364e-13
0.00016005
7.81056e-06
8.43075e-13
0.000176487
3.92259e-14
7.64331e-13
0.000184299
-7.81056e-06
7.28613e-13
0.000184299
-1.39201e-05
7.39306e-13
0.000176487
-1.67467e-05
8.25622e-13
0.00016005
7.53281e-13
0.000133897
-1.51853e-05
1.67467e-05
-5.62154e-06
0.000133897
-1.51853e-05
1.39201e-05
-6.80902e-06
0.00016005
7.81056e-06
-7.49972e-06
0.000176487
4.81056e-15
-7.81055e-06
0.000184299
-7.81056e-06
-7.81055e-06
0.000184299
-1.39201e-05
-7.49972e-06
0.000176487
-1.67467e-05
-6.80902e-06
0.00016005
-5.62154e-06
0.000133897
-1.51853e-05
1.59718e-05
-9.90265e-06
0.000125963
-1.44489e-05
1.33212e-05
-1.20476e-05
0.000151939
7.49972e-06
-1.33212e-05
0.0001685
-3.56224e-14
-1.39201e-05
0.000176487
-7.49972e-06
-1.39201e-05
0.000176487
-1.33212e-05
-1.33212e-05
0.0001685
-1.59718e-05
-1.20476e-05
0.000151939
-9.90265e-06
0.000125963
-1.44489e-05
1.43956e-05
-1.18127e-05
0.000110627
-1.30364e-05
1.20477e-05
-1.43956e-05
0.000135532
6.80902e-06
-1.59718e-05
0.000151939
-7.39878e-14
-1.67467e-05
0.00016005
-6.80902e-06
-1.67467e-05
0.00016005
-1.20477e-05
-1.59718e-05
0.000151939
-1.43956e-05
-1.43956e-05
0.000135532
-1.18127e-05
0.000110627
-1.30364e-05
1.18127e-05
8.91259e-05
-1.0798e-05
-1.0798e-05
9.90265e-06
0.000110627
-1.30364e-05
5.62154e-06
0.000125963
-1.44489e-05
-9.04774e-14
0.000133897
-1.51853e-05
-5.62154e-06
0.000133897
-1.51853e-05
-9.90265e-06
0.000125963
-1.44489e-05
-1.18127e-05
0.000110627
-1.30364e-05
8.91259e-05
-1.0798e-05
-1.0798e-05
2.98521e-06
2.98521e-06
8.73785e-05
-2.11152e-06
-2.11152e-06
2.93654e-06
4.20871e-06
0.000109321
-2.85467e-06
1.80601e-06
5.10333e-06
0.000125443
-3.45295e-06
5.82537e-14
5.56796e-06
0.000133927
-3.79171e-06
-1.80601e-06
5.56796e-06
0.000133927
-3.79171e-06
-2.93654e-06
5.10333e-06
0.000125443
-3.45295e-06
-2.98521e-06
4.20871e-06
0.000109321
-2.85467e-06
2.98521e-06
8.73785e-05
-2.11152e-06
-2.11152e-06
4.20871e-06
2.93654e-06
0.000109321
-2.85467e-06
4.13753e-06
4.13753e-06
0.000135674
2.52404e-06
4.95623e-06
0.000153699
3.15914e-14
5.34154e-06
0.0001628
-2.52404e-06
5.34154e-06
0.0001628
-4.13753e-06
4.95623e-06
0.000153699
-4.20871e-06
4.13753e-06
0.000135674
2.93654e-06
0.000109321
-2.85467e-06
5.10333e-06
1.80601e-06
0.000125443
-3.45295e-06
4.95623e-06
2.52404e-06
0.000153699
2.98743e-06
2.98743e-06
0.000172437
-9.99664e-15
3.17437e-06
0.000181642
-2.98743e-06
3.17437e-06
0.000181642
-4.95623e-06
2.98743e-06
0.000172437
-5.10333e-06
2.52404e-06
0.000153699
1.80601e-06
0.000125443
-3.45295e-06
5.56796e-06
8.88125e-13
0.000133927
-3.79171e-06
5.34154e-06
9.94729e-13
0.0001628
3.17437e-06
8.69664e-13
0.000181642
-4.08836e-14
7.65481e-13
0.000190648
-3.17437e-06
7.41495e-13
0.000190648
-5.34154e-06
8.02067e-13
0.000181642
-5.56796e-06
9.16512e-13
0.0001628
8.40929e-13
0.000133927
-3.79171e-06
5.56796e-06
-1.80601e-06
0.000133927
-3.79171e-06
5.34154e-06
-2.52404e-06
0.0001628
3.17437e-06
-2.98743e-06
0.000181642
-6.55965e-14
-3.17437e-06
0.000190648
-3.17437e-06
-3.17437e-06
0.000190648
-5.34154e-06
-2.98743e-06
0.000181642
-5.56796e-06
-2.52404e-06
0.0001628
-1.80601e-06
0.000133927
-3.79171e-06
5.10333e-06
-2.93654e-06
0.000125443
-3.45295e-06
4.95623e-06
-4.13753e-06
0.000153699
2.98743e-06
-4.95623e-06
0.000172437
-9.34925e-14
-5.34154e-06
0.000181642
-2.98743e-06
-5.34154e-06
0.000181642
-4.95623e-06
-4.95623e-06
0.000172437
-5.10333e-06
-4.13753e-06
0.000153699
-2.93654e-06
0.000125443
-3.45295e-06
4.20871e-06
-2.98521e-06
0.000109321
-2.85467e-06
4.13753e-06
-4.20871e-06
0.000135674
2.52404e-06
-5.10333e-06
0.000153699
-1.30059e-13
-5.56796e-06
0.0001628
-2.52404e-06
-5.56796e-06
0.0001628
-4.13753e-06
-5.10333e-06
0.000153699
-4.20871e-06
-4.20871e-06
0.000135674
-2.98521e-06
0.000109321
-2.85467e-06
2.98521e-06
8.73785e-05
-2.11152e-06
-2.11152e-06
2.93654e-06
0.000109321
-2.85467e-06
1.80601e-06
0.000125443
-3.45295e-06
-1.43743e-13
0.000133927
-3.79171e-06
-1.80601e-06
0.000133927
-3.79171e-06
-2.93654e-06
0.000125443
-3.45295e-06
-2.98521e-06
0.000109321
-2.85467e-06
8.73785e-05
-2.11152e-06
-2.11152e-06
1.75855e-06
1.75855e-06
8.68359e-05
-1.48727e-06
-1.48727e-06
1.58507e-06
2.31764e-06
0.000109058
-1.88066e-06
9.44341e-07
2.7317e-06
0.000125519
-2.1672e-06
3.08646e-13
2.94525e-06
0.000134245
-2.31887e-06
-9.44341e-07
2.94525e-06
0.000134245
-2.31887e-06
-1.58507e-06
2.7317e-06
0.000125519
-2.1672e-06
-1.75855e-06
2.31764e-06
0.000109058
-1.88066e-06
1.75855e-06
8.68359e-05
-1.48727e-06
-1.48727e-06
2.31764e-06
1.58508e-06
0.000109058
-1.88066e-06
2.13338e-06
2.13339e-06
0.000136043
1.27625e-06
2.52942e-06
0.000154759
2.52772e-13
2.71285e-06
0.000164309
-1.27625e-06
2.71285e-06
0.000164309
-2.13338e-06
2.52941e-06
0.000154759
-2.31764e-06
2.13339e-06
0.000136043
1.58507e-06
0.000109058
-1.88066e-06
2.7317e-06
9.44342e-07
0.000125519
-2.1672e-06
2.52941e-06
1.27625e-06
0.000154759
1.50567e-06
1.50567e-06
0.000174485
1.57618e-13
1.58998e-06
0.00018427
-1.50567e-06
1.58998e-06
0.00018427
-2.52941e-06
1.50567e-06
0.000174485
-2.7317e-06
1.27625e-06
0.000154759
9.44342e-07
0.000125519
-2.1672e-06
2.94525e-06
1.19143e-12
0.000134245
-2.31887e-06
2.71285e-06
1.29452e-12
0.000164309
1.58997e-06
1.11336e-12
0.00018427
8.75023e-14
9.47477e-13
0.000193828
-1.58997e-06
9.05511e-13
0.000193828
-2.71285e-06
9.8709e-13
0.00018427
-2.94525e-06
1.10769e-12
0.000164309
9.97507e-13
0.000134245
-2.31887e-06
2.94525e-06
-9.4434e-07
0.000134245
-2.31887e-06
2.71285e-06
-1.27624e-06
0.000164309
1.58997e-06
-1.50567e-06
0.00018427
4.6184e-14
-1.58997e-06
0.000193828
-1.58997e-06
-1.58997e-06
0.000193828
-2.71285e-06
-1.50567e-06
0.00018427
-2.94525e-06
-1.27624e-06
0.000164309
-9.4434e-07
0.000134245
-2.31887e-06
2.7317e-06
-1.58507e-06
0.000125519
-2.1672e-06
2.52941e-06
-2.13338e-06
0.000154759
1.50567e-06
-2.52941e-06
0.000174485
1.58129e-14
-2.71285e-06
0.00018427
-1.50567e-06
-2.71285e-06
0.00018427
-2.52941e-06
-2.52941e-06
0.000174485
-2.7317e-06
-2.13338e-06
0.000154759
-1.58507e-06
0.000125519
-2.1672e-06
2.31763e-06
-1.75855e-06
0.000109058
-1.88066e-06
2.13338e-06
-2.31763e-06
0.000136043
1.27625e-06
-2.73169e-06
0.000154759
-1.57303e-14
-2.94525e-06
0.000164309
-1.27625e-06
-2.94525e-06
0.000164309
-2.13338e-06
-2.7317e-06
0.000154759
-2.31764e-06
-2.31763e-06
0.000136043
-1.75855e-06
0.000109058
-1.88066e-06
1.75855e-06
8.68359e-05
-1.48727e-06
-1.48727e-06
1.58507e-06
0.000109058
-1.88066e-06
9.44341e-07
0.000125519
-2.1672e-06
-3.69021e-14
0.000134245
-2.31887e-06
-9.44341e-07
0.000134245
-2.31887e-06
-1.58507e-06
0.000125519
-2.1672e-06
-1.75855e-06
0.000109058
-1.88066e-06
8.68359e-05
-1.48727e-06
-1.48727e-06
6.09094e-07
6.09095e-07
8.65409e-05
-4.61558e-07
-4.61558e-07
5.88221e-07
8.41815e-07
0.000108839
-6.01562e-07
3.62056e-07
1.02624e-06
0.000125434
-7.14691e-07
-1.95234e-15
1.12581e-06
0.00013426
-7.78511e-07
-3.62056e-07
1.12581e-06
0.00013426
-7.78511e-07
-5.88221e-07
1.02624e-06
0.000125434
-7.14691e-07
-6.09094e-07
8.41815e-07
0.000108839
-6.01562e-07
6.09094e-07
8.65409e-05
-4.61559e-07
-4.61558e-07
8.41814e-07
5.88222e-07
0.000108839
-6.01562e-07
8.30744e-07
8.30745e-07
0.000136065
5.13706e-07
1.01887e-06
0.000155083
-2.05344e-14
1.11174e-06
0.000164837
-5.13707e-07
1.11174e-06
0.000164837
-8.30744e-07
1.01887e-06
0.000155083
-8.41814e-07
8.30745e-07
0.000136065
5.88222e-07
0.000108839
-6.01563e-07
1.02624e-06
3.62058e-07
0.000125434
-7.1469e-07
1.01887e-06
5.13708e-07
0.000155083
6.28552e-07
6.28553e-07
0.000175266
-5.03359e-14
6.77036e-07
0.000185334
-6.28552e-07
6.77036e-07
0.000185334
-1.01887e-06
6.28553e-07
0.000175266
-1.02624e-06
5.13708e-07
0.000155083
3.62058e-07
0.000125434
-7.14691e-07
1.12581e-06
1.23173e-12
0.00013426
-7.7851e-07
1.11173e-06
1.40005e-12
0.000164837
6.77035e-07
1.26006e-12
0.000185334
-7.01057e-14
1.11963e-12
0.000195182
-6.77035e-07
1.1034e-12
0.000195182
-1.11173e-06
1.22439e-12
0.000185334
-1.12581e-06
1.37529e-12
0.000164837
1.25658e-12
0.00013426
-7.78511e-07
1.12581e-06
-3.62055e-07
0.00013426
-7.7851e-07
1.11173e-06
-5.13705e-07
0.000164837
6.77035e-07
-6.28551e-07
0.000185334
-8.64945e-14
-6.77034e-07
0.000195182
-6.77035e-07
-6.77034e-07
0.000195182
-1.11173e-06
-6.28551e-07
0.000185334
-1.12581e-06
-5.13705e-07
0.000164837
-3.62055e-07
0.00013426
-7.78511e-07
1.02624e-06
-5.8822e-07
0.000125434
-7.1469e-07
1.01887e-06
-8.30743e-07
0.000155083
6.28552e-07
-1.01887e-06
0.000175266
-1.03044e-13
-1.11173e-06
0.000185334
-6.28552e-07
-1.11173e-06
0.000185334
-1.01887e-06
-1.01887e-06
0.000175266
-1.02624e-06
-8.30743e-07
0.000155083
-5.8822e-07
0.000125434
-7.14691e-07
8.41814e-07
-6.09093e-07
0.000108839
-6.01562e-07
8.30744e-07
-8.41813e-07
0.000136065
5.13706e-07
-1.02624e-06
0.000155083
-1.25153e-13
-1.12581e-06
0.000164837
-5.13707e-07
-1.12581e-06
0.000164837
-8.30744e-07
-1.02624e-06
0.000155083
-8.41814e-07
-8.41813e-07
0.000136065
-6.09093e-07
0.000108839
-6.01563e-07
6.09094e-07
8.65409e-05
-4.61558e-07
-4.61558e-07
5.88221e-07
0.000108839
-6.01562e-07
3.62056e-07
0.000125434
-7.1469e-07
-1.32271e-13
0.00013426
-7.7851e-07
-3.62057e-07
0.00013426
-7.7851e-07
-5.88221e-07
0.000125434
-7.1469e-07
-6.09094e-07
0.000108839
-6.01562e-07
8.65409e-05
-4.61558e-07
-4.61558e-07
3.37042e-07
3.37043e-07
8.64326e-05
-2.8288e-07
-2.8288e-07
3.05727e-07
4.42556e-07
0.000108783
-3.55841e-07
1.82771e-07
5.24016e-07
0.000125443
-4.10568e-07
2.62988e-13
5.67997e-07
0.000134315
-4.40394e-07
-1.8277e-07
5.67997e-07
0.000134315
-4.40394e-07
-3.05727e-07
5.24016e-07
0.000125443
-4.10568e-07
-3.37042e-07
4.42555e-07
0.000108783
-3.5584e-07
3.37043e-07
8.64326e-05
-2.82881e-07
-2.8288e-07
4.42554e-07
3.05729e-07
0.000108783
-3.5584e-07
4.11361e-07
4.11363e-07
0.000136127
2.48164e-07
4.93895e-07
0.000155277
2.15797e-13
5.35806e-07
0.000165117
-2.48163e-07
5.35806e-07
0.000165117
-4.11361e-07
4.93894e-07
0.000155277
-4.42554e-07
4.11362e-07
0.000136127
3.05729e-07
0.000108783
-3.55841e-07
5.24015e-07
1.82772e-07
0.000125443
-4.10567e-07
4.93893e-07
2.48166e-07
0.000155277
2.99349e-07
2.9935e-07
0.000175655
1.26646e-13
3.22832e-07
0.000185846
-2.99349e-07
3.22832e-07
0.000185846
-4.93893e-07
2.9935e-07
0.000175655
-5.24015e-07
2.48165e-07
0.000155277
1.82772e-07
0.000125443
-4.10568e-07
5.67995e-07
1.7949e-12
0.000134315
-4.40393e-07
5.35805e-07
1.95462e-12
0.000165117
3.22831e-07
1.71884e-12
0.000185846
6.18504e-14
1.49688e-12
0.000195828
-3.22831e-07
1.4482e-12
0.000195828
-5.35805e-07
1.58561e-12
0.000185846
-5.67996e-07
1.74057e-12
0.000165117
1.56514e-12
0.000134315
-4.40394e-07
5.67996e-07
-1.82769e-07
0.000134315
-4.40393e-07
5.35805e-07
-2.48162e-07
0.000165117
3.22831e-07
-2.99347e-07
0.000185846
1.56939e-14
-3.22829e-07
0.000195828
-3.22831e-07
-3.22829e-07
0.000195828
-5.35805e-07
-2.99347e-07
0.000185846
-5.67996e-07
-2.48162e-07
0.000165117
-1.82769e-07
0.000134315
-4.40394e-07
5.24015e-07
-3.05726e-07
0.000125443
-4.10567e-07
4.93893e-07
-4.11359e-07
0.000155277
2.99349e-07
-4.93891e-07
0.000175655
-1.98208e-14
-5.35803e-07
0.000185846
-2.99349e-07
-5.35803e-07
0.000185846
-4.93893e-07
-4.93891e-07
0.000175655
-5.24015e-07
-4.11359e-07
0.000155277
-3.05726e-07
0.000125443
-4.10568e-07
4.42554e-07
-3.3704e-07
0.000108783
-3.55839e-07
4.11361e-07
-4.42552e-07
0.000136127
2.48164e-07
-5.24013e-07
0.000155277
-6.5247e-14
-5.67994e-07
0.000165117
-2.48164e-07
-5.67994e-07
0.000165117
-4.11361e-07
-5.24013e-07
0.000155277
-4.42554e-07
-4.42553e-07
0.000136127
-3.3704e-07
0.000108783
-3.5584e-07
3.37042e-07
8.64326e-05
-2.8288e-07
-2.82879e-07
3.05727e-07
0.000108783
-3.55839e-07
1.8277e-07
0.000125443
-4.10566e-07
-8.3366e-14
0.000134315
-4.40393e-07
-1.8277e-07
0.000134315
-4.40393e-07
-3.05727e-07
0.000125443
-4.10567e-07
-3.37042e-07
0.000108783
-3.5584e-07
8.64326e-05
-2.8288e-07
-2.8288e-07
1.51348e-07
1.5135e-07
8.63735e-05
-1.21836e-07
-1.21836e-07
1.40339e-07
2.02145e-07
0.000108747
-1.55427e-07
8.45678e-08
2.41371e-07
0.000125439
-1.81513e-07
-1.01711e-13
2.62704e-07
0.000134333
-1.96085e-07
-8.4568e-08
2.62704e-07
0.000134333
-1.96085e-07
-1.4034e-07
2.41371e-07
0.000125439
-1.81513e-07
-1.51349e-07
2.02145e-07
0.000108747
-1.55427e-07
1.5135e-07
8.63735e-05
-1.21837e-07
-1.21836e-07
2.02143e-07
1.40341e-07
0.000108747
-1.55425e-07
1.91011e-07
1.91013e-07
0.00013615
1.15755e-07
2.30229e-07
0.000155363
-8.56502e-14
2.5041e-07
0.000165245
-1.15755e-07
2.5041e-07
0.000165245
-1.91011e-07
2.30229e-07
0.000155363
-2.02144e-07
1.91013e-07
0.00013615
1.40341e-07
0.000108747
-1.55427e-07
2.41369e-07
8.45697e-08
0.000125439
-1.81511e-07
2.30227e-07
1.15757e-07
0.000155363
1.40054e-07
1.40056e-07
0.000175835
-8.72236e-14
1.51654e-07
0.000186085
-1.40054e-07
1.51654e-07
0.000186085
-2.30228e-07
1.40056e-07
0.000175835
-2.4137e-07
1.15757e-07
0.000155363
8.45698e-08
0.000125439
-1.81512e-07
2.62702e-07
1.69556e-12
0.000134333
-1.96083e-07
2.50409e-07
1.92488e-12
0.000165245
1.51653e-07
1.74992e-12
0.000186085
-8.6169e-14
1.57511e-12
0.000196131
-1.51653e-07
1.56214e-12
0.000196131
-2.50409e-07
1.74028e-12
0.000186085
-2.62702e-07
1.93011e-12
0.000165245
1.76004e-12
0.000134333
-1.96084e-07
2.62702e-07
-8.45664e-08
0.000134333
-1.96083e-07
2.50409e-07
-1.15754e-07
0.000165245
1.51653e-07
-1.40052e-07
0.000186085
-9.8736e-14
-1.51651e-07
0.000196131
-1.51653e-07
-1.51651e-07
0.000196131
-2.50409e-07
-1.40052e-07
0.000186085
-2.62702e-07
-1.15754e-07
0.000165245
-8.45664e-08
0.000134333
-1.96084e-07
2.41369e-07
-1.40338e-07
0.000125439
-1.81511e-07
2.30228e-07
-1.9101e-07
0.000155363
1.40054e-07
-2.30226e-07
0.000175835
-1.10736e-13
-2.50407e-07
0.000186085
-1.40054e-07
-2.50407e-07
0.000186085
-2.30228e-07
-2.30226e-07
0.000175835
-2.4137e-07
-1.9101e-07
0.000155363
-1.40338e-07
0.000125439
-1.81512e-07
2.02144e-07
-1.51347e-07
0.000108747
-1.55425e-07
1.91011e-07
-2.02142e-07
0.00013615
1.15755e-07
-2.41368e-07
0.000155363
-1.41578e-13
-2.62701e-07
0.000165245
-1.15756e-07
-2.62701e-07
0.000165245
-1.91011e-07
-2.41368e-07
0.000155363
-2.02144e-07
-2.02142e-07
0.00013615
-1.51348e-07
0.000108747
-1.55426e-07
1.51348e-07
8.63735e-05
-1.21836e-07
-1.21835e-07
1.4034e-07
0.000108747
-1.55425e-07
8.45679e-08
0.000125439
-1.81511e-07
-1.50069e-13
0.000134333
-1.96083e-07
-8.45682e-08
0.000134333
-1.96083e-07
-1.4034e-07
0.000125439
-1.81511e-07
-1.51348e-07
0.000108747
-1.55425e-07
8.63735e-05
-1.21836e-07
-1.21836e-07
7.90331e-08
7.90345e-08
8.63467e-05
-6.56223e-08
-6.56225e-08
7.18496e-08
1.04054e-07
0.000108733
-8.28794e-08
4.28782e-08
1.23074e-07
0.000125441
-9.59203e-08
6.28694e-13
1.3333e-07
0.000134345
-1.03102e-07
-4.2877e-08
1.3333e-07
0.000134345
-1.03101e-07
-7.18487e-08
1.23073e-07
0.000125441
-9.59199e-08
-7.90325e-08
1.04053e-07
0.000108733
-8.28787e-08
7.90338e-08
8.63467e-05
-6.56223e-08
-6.56222e-08
1.04052e-07
7.18514e-08
0.000108733
-8.2878e-08
9.6421e-08
9.64231e-08
0.000136165
5.78784e-08
1.15181e-07
0.000155409
5.73207e-13
1.24754e-07
0.000165311
-5.78774e-08
1.24754e-07
0.000165311
-9.64203e-08
1.15181e-07
0.000155409
-1.04051e-07
9.64226e-08
0.000136165
7.18508e-08
0.000108733
-8.28788e-08
1.23072e-07
4.288e-08
0.000125441
-9.59187e-08
1.15179e-07
5.78804e-08
0.000155409
6.94189e-08
6.94208e-08
0.000175927
4.19334e-13
7.49053e-08
0.000186204
-6.94181e-08
7.49052e-08
0.000186204
-1.15179e-07
6.94205e-08
0.000175927
-1.23072e-07
5.788e-08
0.000155409
4.28795e-08
0.000125441
-9.59197e-08
1.33328e-07
2.30866e-12
0.000134345
-1.031e-07
1.24752e-07
2.49574e-12
0.000165311
7.49035e-08
2.19151e-12
0.000186204
2.97061e-13
1.90333e-12
0.000196281
-7.4903e-08
1.82622e-12
0.000196281
-1.24752e-07
1.96139e-12
0.000186204
-1.33328e-07
2.1223e-12
0.000165311
1.88306e-12
0.000134345
-1.03101e-07
1.33328e-07
-4.28755e-08
0.000134345
-1.031e-07
1.24752e-07
-5.78756e-08
0.000165311
7.49035e-08
-6.94165e-08
0.000186204
2.20771e-13
-7.49014e-08
0.000196281
-7.49031e-08
-7.49015e-08
0.000196281
-1.24752e-07
-6.94167e-08
0.000186204
-1.33328e-07
-5.78759e-08
0.000165311
-4.28758e-08
0.000134345
-1.03101e-07
1.23072e-07
-7.18473e-08
0.000125441
-9.59187e-08
1.15179e-07
-9.64185e-08
0.000155409
6.94188e-08
-1.15177e-07
0.000175927
1.74103e-13
-1.2475e-07
0.000186204
-6.94185e-08
-1.2475e-07
0.000186204
-1.15179e-07
-1.15177e-07
0.000175927
-1.23072e-07
-9.64188e-08
0.000155409
-7.18474e-08
0.000125441
-9.59197e-08
1.04051e-07
-7.90312e-08
0.000108733
-8.28776e-08
9.64208e-08
-1.0405e-07
0.000136165
5.78781e-08
-1.2307e-07
0.000155409
1.32936e-13
-1.33327e-07
0.000165311
-5.78779e-08
-1.33327e-07
0.000165311
-9.64207e-08
-1.2307e-07
0.000155409
-1.04051e-07
-1.0405e-07
0.000136165
-7.90313e-08
0.000108733
-8.28784e-08
7.90326e-08
8.63467e-05
-6.56214e-08
-6.5621e-08
7.18492e-08
0.000108733
-8.28772e-08
4.28778e-08
0.000125441
-9.59182e-08
8.42355e-14
0.000134345
-1.031e-07
-4.28776e-08
0.000134345
-1.031e-07
-7.18491e-08
0.000125441
-9.59184e-08
-7.90324e-08
0.000108733
-8.28776e-08
8.63467e-05
-6.56213e-08
-6.56216e-08
3.80807e-08
3.80824e-08
8.63326e-05
-3.10248e-08
-3.10246e-08
3.50233e-08
5.06166e-08
0.000108725
-3.94624e-08
2.1008e-08
6.01986e-08
0.000125441
-4.59521e-08
3.34369e-13
6.53709e-08
0.00013435
-4.95575e-08
-2.10073e-08
6.53709e-08
0.00013435
-4.95574e-08
-3.50228e-08
6.01983e-08
0.000125441
-4.59518e-08
-3.80805e-08
5.06162e-08
0.000108725
-3.94618e-08
3.80821e-08
8.63326e-05
-3.1025e-08
-3.10244e-08
5.06143e-08
3.50254e-08
0.000108725
-3.94606e-08
4.73936e-08
4.73961e-08
0.000136171
2.85615e-08
5.68265e-08
0.000155432
3.11583e-13
6.16251e-08
0.000165344
-2.8561e-08
6.16251e-08
0.000165344
-4.73933e-08
5.68263e-08
0.000155432
-5.06143e-08
4.73958e-08
0.000136171
3.50252e-08
0.000108725
-3.94614e-08
6.01962e-08
2.101e-08
0.000125441
-4.59499e-08
5.68242e-08
2.85639e-08
0.000155432
3.43453e-08
3.43474e-08
0.000175971
2.05148e-13
3.70869e-08
0.000186263
-3.43449e-08
3.70868e-08
0.000186263
-5.6824e-08
3.43473e-08
0.000175971
-6.01963e-08
2.85637e-08
0.000155432
2.10098e-08
0.000125441
-4.59507e-08
6.53687e-08
2.08758e-12
0.00013435
-4.95553e-08
6.1623e-08
2.33003e-12
0.000165344
3.70849e-08
2.09215e-12
0.000186263
1.29921e-13
1.85723e-12
0.000196355
-3.70847e-08
1.80835e-12
0.000196355
-6.16229e-08
1.96824e-12
0.000186263
-6.53687e-08
2.14361e-12
0.000165344
1.92906e-12
0.00013435
-4.95559e-08
6.53687e-08
-2.10059e-08
0.00013435
-4.95554e-08
6.16231e-08
-2.85593e-08
0.000165344
3.7085e-08
-3.43433e-08
0.000186263
8.10386e-14
-3.70832e-08
0.000196355
-3.70848e-08
-3.70832e-08
0.000196355
-6.1623e-08
-3.43434e-08
0.000186263
-6.53687e-08
-2.85595e-08
0.000165344
-2.10061e-08
0.00013435
-4.95559e-08
6.01964e-08
-3.50217e-08
0.000125441
-4.59501e-08
5.68243e-08
-4.73918e-08
0.000155432
3.43453e-08
-5.68225e-08
0.000175971
5.76549e-14
-6.16214e-08
0.000186263
-3.43452e-08
-6.16215e-08
0.000186263
-5.68243e-08
-5.68227e-08
0.000175971
-6.01964e-08
-4.7392e-08
0.000155432
-3.50218e-08
0.000125441
-4.59505e-08
5.06144e-08
-3.80794e-08
0.000108725
-3.94605e-08
4.73938e-08
-5.06129e-08
0.000136171
2.85615e-08
-6.0195e-08
0.000155432
3.6865e-14
-6.53674e-08
0.000165344
-2.85615e-08
-6.53675e-08
0.000165344
-4.73937e-08
-6.01952e-08
0.000155432
-5.06143e-08
-5.06131e-08
0.000136171
-3.80796e-08
0.000108725
-3.94608e-08
3.80805e-08
8.63326e-05
-3.10237e-08
-3.10235e-08
3.50233e-08
0.000108725
-3.946e-08
2.10079e-08
0.000125441
-4.59496e-08
1.46875e-15
0.00013435
-4.9555e-08
-2.10079e-08
0.00013435
-4.95551e-08
-3.50233e-08
0.000125441
-4.59499e-08
-3.80805e-08
0.000108725
-3.94604e-08
8.63326e-05
-3.1024e-08
-3.10239e-08
1.96296e-08
1.96312e-08
8.63257e-05
-1.61661e-08
-1.61662e-08
1.7943e-08
2.59692e-08
0.000108722
-2.04876e-08
1.07364e-08
3.08014e-08
0.000125441
-2.3779e-08
9.94665e-13
3.3404e-08
0.000134353
-2.55968e-08
-1.07345e-08
3.34038e-08
0.000134353
-2.55966e-08
-1.79415e-08
3.08007e-08
0.000125441
-2.37783e-08
-1.96286e-08
2.5968e-08
0.000108722
-2.04863e-08
1.963e-08
8.63257e-05
-1.61656e-08
-1.61654e-08
2.59669e-08
1.79449e-08
0.000108722
-2.04858e-08
2.41869e-08
2.41892e-08
0.000136175
1.45478e-08
2.89465e-08
0.000155443
8.63235e-13
3.13604e-08
0.00016536
-1.45462e-08
3.13602e-08
0.00016536
-2.41856e-08
2.8946e-08
0.000155443
-2.59662e-08
2.41882e-08
0.000136175
1.79438e-08
0.000108722
-2.04862e-08
3.07991e-08
1.07381e-08
0.000125441
-2.3777e-08
2.89444e-08
1.45499e-08
0.000155443
1.74636e-08
1.74656e-08
0.000175994
5.96206e-13
1.88402e-08
0.000186293
-1.74625e-08
1.884e-08
0.000186293
-2.89436e-08
1.74651e-08
0.000175994
-3.07988e-08
1.45492e-08
0.000155443
1.07372e-08
0.000125441
-2.37777e-08
3.34019e-08
2.59313e-12
0.000134353
-2.55949e-08
3.13585e-08
2.73212e-12
0.00016536
1.88384e-08
2.33932e-12
0.000186293
3.96606e-13
1.98159e-12
0.000196393
-1.88377e-08
1.85973e-12
0.000196393
-3.13579e-08
1.96961e-12
0.000186293
-3.34017e-08
2.10166e-12
0.00016536
1.84711e-12
0.000134353
-2.55957e-08
3.34019e-08
-1.07331e-08
0.000134353
-2.55949e-08
3.13584e-08
-1.45446e-08
0.00016536
1.88383e-08
-1.74609e-08
0.000186293
2.7486e-13
-1.88362e-08
0.000196393
-1.88378e-08
-1.88363e-08
0.000196393
-3.13581e-08
-1.74613e-08
0.000186293
-3.34018e-08
-1.45451e-08
0.00016536
-1.07336e-08
0.000134353
-2.55958e-08
3.0799e-08
-1.79402e-08
0.000125441
-2.37769e-08
2.89442e-08
-2.41841e-08
0.000155443
1.74634e-08
-2.8942e-08
0.000175994
2.05134e-13
-3.13564e-08
0.000186293
-1.7463e-08
-3.13565e-08
0.000186293
-2.8944e-08
-2.89423e-08
0.000175994
-3.0799e-08
-2.41844e-08
0.000155443
-1.79405e-08
0.000125441
-2.37778e-08
2.59664e-08
-1.96274e-08
0.000108722
-2.04851e-08
2.41864e-08
-2.59647e-08
0.000136175
1.45473e-08
-3.07973e-08
0.000155443
1.43669e-13
-3.34003e-08
0.00016536
-1.4547e-08
-3.34003e-08
0.00016536
-2.41863e-08
-3.07975e-08
0.000155443
-2.59664e-08
-2.5965e-08
0.000136175
-1.96275e-08
0.000108722
-2.04859e-08
1.96287e-08
8.63257e-05
-1.61647e-08
-1.61643e-08
1.79423e-08
0.000108722
-2.04847e-08
1.07355e-08
0.000125441
-2.37763e-08
8.35161e-14
0.000134353
-2.55943e-08
-1.07354e-08
0.000134353
-2.55944e-08
-1.79422e-08
0.000125441
-2.37765e-08
-1.96286e-08
0.000108722
-2.04851e-08
8.63257e-05
-1.61646e-08
-1.6165e-08
9.77398e-09
9.77525e-09
8.63221e-05
-7.9846e-09
-7.98431e-09
8.98183e-09
1.29825e-08
0.00010872
-1.01454e-08
5.38861e-09
1.54376e-08
0.000125441
-1.1803e-08
-3.21364e-14
1.6763e-08
0.000134355
-1.2722e-08
-5.38865e-09
1.6763e-08
0.000134355
-1.2722e-08
-8.98195e-09
1.54376e-08
0.000125441
-1.18029e-08
-9.77418e-09
1.29824e-08
0.00010872
-1.01452e-08
9.77526e-09
8.63221e-05
-7.98496e-09
-7.98446e-09
1.29807e-08
8.98363e-09
0.00010872
-1.01442e-08
1.21561e-08
1.21582e-08
0.000136177
7.33088e-09
1.45845e-08
0.000155449
-3.35627e-14
1.58186e-08
0.000165369
-7.33099e-09
1.58186e-08
0.000165369
-1.21564e-08
1.45844e-08
0.000155449
-1.29812e-08
1.21581e-08
0.000136177
8.98363e-09
0.00010872
-1.01451e-08
1.54358e-08
5.39045e-09
0.000125441
-1.18014e-08
1.45826e-08
7.33292e-09
0.000155449
8.82134e-09
8.8232e-09
0.000176006
-7.69765e-14
9.52815e-09
0.000186308
-8.82151e-09
9.52814e-09
0.000186308
-1.45829e-08
8.82313e-09
0.000176006
-1.54362e-08