/*--------------------------------*- C++ -*----------------------------------*\
| =========                 |                                                 |
| \\      /  F ield         | OpenFOAM: The Open Source CFD Toolbox           |
|  \\    /   O peration     | Version:  2406                                  |
|   \\  /    A nd           | Website:  www.openfoam.com                      |
|    \\/     M anipulation  |                                                 |
\*---------------------------------------------------------------------------*/
FoamFile
{
    version     2.0;
    format      ascii;
    arch        "LSB;label=32;scalar=64";
    class       surfaceScalarField;
    location    "0.1";
    object      phi;
}
// * * * * * * * * * * * * * * * * * * * * * * * * * * * * * * * * * * * * * //

dimensions      [0 3 -1 0 0 0 0];

oriented        oriented;

internalField   nonuniform List<scalar> 
73500
(
6.10468e-05
6.10468e-05
5.55881e-05
-6.53399e-05
-6.53399e-05
5.08748e-05
6.37532e-05
6.50931e-05
-6.77359e-05
3.6447e-05
6.55688e-05
7.25534e-05
-6.97514e-05
1.90052e-05
6.66975e-05
7.76905e-05
-7.0975e-05
-1.43066e-13
6.72369e-05
8.03015e-05
-7.15403e-05
-1.90052e-05
6.72369e-05
8.03015e-05
-7.15403e-05
-3.6447e-05
6.66975e-05
7.76905e-05
-7.0975e-05
-5.08748e-05
6.55688e-05
7.25534e-05
-6.97514e-05
-6.10468e-05
6.37532e-05
6.50931e-05
-6.77359e-05
6.10468e-05
5.55881e-05
-6.53399e-05
-6.53399e-05
6.37532e-05
5.08748e-05
6.50931e-05
-6.77359e-05
5.31888e-05
5.31888e-05
7.57131e-05
3.79738e-05
5.46163e-05
8.35365e-05
1.97343e-05
5.5483e-05
8.87036e-05
1.5119e-14
5.58973e-05
9.12712e-05
-1.97343e-05
5.58973e-05
9.12712e-05
-3.79738e-05
5.5483e-05
8.87036e-05
-5.31888e-05
5.46163e-05
8.35365e-05
-6.37532e-05
5.31888e-05
7.57131e-05
5.08748e-05
6.50931e-05
-6.77359e-05
6.55688e-05
3.6447e-05
7.25534e-05
-6.97514e-05
5.46163e-05
3.79738e-05
8.35365e-05
3.88954e-05
3.88954e-05
9.14291e-05
2.01714e-05
3.94461e-05
9.65171e-05
4.129e-13
3.97115e-05
9.9005e-05
-2.01714e-05
3.97115e-05
9.9005e-05
-3.88954e-05
3.94461e-05
9.65171e-05
-5.46163e-05
3.88954e-05
9.14291e-05
-6.55688e-05
3.79738e-05
8.35365e-05
3.6447e-05
7.25534e-05
-6.97514e-05
6.66975e-05
1.90052e-05
7.76905e-05
-7.0975e-05
5.5483e-05
1.97343e-05
8.87036e-05
3.94461e-05
2.01714e-05
9.65171e-05
2.04284e-05
2.04284e-05
0.000101486
8.20292e-13
2.0553e-05
0.000103891
-2.04284e-05
2.0553e-05
0.000103891
-3.94461e-05
2.04284e-05
0.000101486
-5.5483e-05
2.01714e-05
9.65171e-05
-6.66975e-05
1.97343e-05
8.87036e-05
1.90052e-05
7.76905e-05
-7.0975e-05
6.72369e-05
-4.15656e-13
8.03015e-05
-7.15403e-05
5.58973e-05
-2.98962e-13
9.12712e-05
3.97115e-05
8.58113e-14
9.9005e-05
2.0553e-05
5.20348e-13
0.000103891
1.07803e-12
8.48002e-13
0.000106245
-2.0553e-05
9.8486e-13
0.000106245
-3.97115e-05
9.20482e-13
0.000103891
-5.58973e-05
7.17327e-13
9.9005e-05
-6.72369e-05
4.73073e-13
9.12712e-05
3.08117e-13
8.03015e-05
-7.15403e-05
6.72369e-05
-1.90052e-05
8.03015e-05
-7.15403e-05
5.58973e-05
-1.97343e-05
9.12712e-05
3.97115e-05
-2.01714e-05
9.9005e-05
2.0553e-05
-2.04284e-05
0.000103891
1.117e-12
-2.0553e-05
0.000106245
-2.0553e-05
-2.0553e-05
0.000106245
-3.97115e-05
-2.04284e-05
0.000103891
-5.58973e-05
-2.01714e-05
9.9005e-05
-6.72369e-05
-1.97343e-05
9.12712e-05
-1.90052e-05
8.03015e-05
-7.15403e-05
6.66975e-05
-3.6447e-05
7.76905e-05
-7.0975e-05
5.5483e-05
-3.79738e-05
8.87036e-05
3.94461e-05
-3.88954e-05
9.65171e-05
2.04284e-05
-3.94461e-05
0.000101486
9.48986e-13
-3.97115e-05
0.000103891
-2.04284e-05
-3.97115e-05
0.000103891
-3.94461e-05
-3.94461e-05
0.000101486
-5.5483e-05
-3.88954e-05
9.65171e-05
-6.66975e-05
-3.79738e-05
8.87036e-05
-3.6447e-05
7.76905e-05
-7.0975e-05
6.55688e-05
-5.08748e-05
7.25534e-05
-6.97514e-05
5.46163e-05
-5.31888e-05
8.35365e-05
3.88954e-05
-5.46163e-05
9.14291e-05
2.01714e-05
-5.5483e-05
9.65171e-05
6.55985e-13
-5.58973e-05
9.9005e-05
-2.01714e-05
-5.58973e-05
9.9005e-05
-3.88954e-05
-5.5483e-05
9.65171e-05
-5.46163e-05
-5.46163e-05
9.14291e-05
-6.55688e-05
-5.31888e-05
8.35365e-05
-5.08748e-05
7.25534e-05
-6.97514e-05
6.37532e-05
-6.10468e-05
6.50931e-05
-6.77359e-05
5.31888e-05
-6.37532e-05
7.57131e-05
3.79738e-05
-6.55688e-05
8.35365e-05
1.97343e-05
-6.66975e-05
8.87036e-05
3.56595e-13
-6.72369e-05
9.12712e-05
-1.97343e-05
-6.72369e-05
9.12712e-05
-3.79738e-05
-6.66975e-05
8.87036e-05
-5.31888e-05
-6.55688e-05
8.35365e-05
-6.37532e-05
-6.37532e-05
7.57131e-05
-6.10468e-05
6.50931e-05
-6.77359e-05
6.10468e-05
5.55881e-05
-6.53399e-05
-6.53399e-05
5.08748e-05
6.50931e-05
-6.77359e-05
3.6447e-05
7.25534e-05
-6.97514e-05
1.90052e-05
7.76905e-05
-7.0975e-05
1.72858e-13
8.03015e-05
-7.15403e-05
-1.90052e-05
8.03015e-05
-7.15403e-05
-3.6447e-05
7.76905e-05
-7.0975e-05
-5.08748e-05
7.25534e-05
-6.97514e-05
-6.10468e-05
6.50931e-05
-6.77359e-05
5.55881e-05
-6.53399e-05
-6.53399e-05
1.23534e-05
1.23534e-05
5.38169e-05
-1.14678e-05
-1.14678e-05
1.14021e-05
1.45266e-05
6.46976e-05
-1.31797e-05
8.712e-06
1.61345e-05
7.36092e-05
-1.45002e-05
4.71886e-06
1.72498e-05
7.99112e-05
-1.54773e-05
-6.90867e-12
1.7806e-05
8.31659e-05
-1.59515e-05
-4.71887e-06
1.7806e-05
8.31659e-05
-1.59515e-05
-8.71201e-06
1.72499e-05
7.99112e-05
-1.54773e-05
-1.14021e-05
1.61345e-05
7.36092e-05
-1.45002e-05
-1.23534e-05
1.45266e-05
6.46976e-05
-1.31797e-05
1.23534e-05
5.38169e-05
-1.14678e-05
-1.14678e-05
1.45266e-05
1.14021e-05
6.46976e-05
-1.31797e-05
1.35372e-05
1.35372e-05
7.76919e-05
1.03831e-05
1.51005e-05
8.77245e-05
5.62163e-06
1.6153e-05
9.45619e-05
-9.46719e-12
1.66739e-05
9.80249e-05
-5.62164e-06
1.66739e-05
9.80249e-05
-1.03831e-05
1.6153e-05
9.45619e-05
-1.35372e-05
1.51005e-05
8.77245e-05
-1.45266e-05
1.35372e-05
7.76919e-05
1.14021e-05
6.46976e-05
-1.31797e-05
1.61345e-05
8.712e-06
7.36092e-05
-1.45002e-05
1.51005e-05
1.03831e-05
8.77245e-05
1.16064e-05
1.16064e-05
9.84173e-05
6.28839e-06
1.24179e-05
0.00010557
-1.1485e-11
1.28182e-05
0.000109149
-6.28842e-06
1.28182e-05
0.000109149
-1.16064e-05
1.24179e-05
0.00010557
-1.51005e-05
1.16064e-05
9.84173e-05
-1.61345e-05
1.03831e-05
8.77245e-05
8.712e-06
7.36092e-05
-1.45002e-05
1.72498e-05
4.71886e-06
7.99112e-05
-1.54773e-05
1.6153e-05
5.62163e-06
9.45619e-05
1.24179e-05
6.28839e-06
0.00010557
6.7273e-06
6.7273e-06
0.000112867
-1.27962e-11
6.94343e-06
0.000116493
-6.72732e-06
6.94343e-06
0.000116493
-1.24179e-05
6.7273e-06
0.000112867
-1.61531e-05
6.2884e-06
0.00010557
-1.72499e-05
5.62163e-06
9.45619e-05
4.71886e-06
7.99112e-05
-1.54774e-05
1.7806e-05
-7.2622e-12
8.31659e-05
-1.59515e-05
1.66739e-05
-9.86236e-12
9.80249e-05
1.28182e-05
-1.18791e-11
0.000109149
6.94343e-06
-1.31402e-11
0.000116493
-1.33027e-11
-1.35497e-11
0.000120132
-6.94346e-06
-1.31097e-11
0.000120132
-1.28182e-05
-1.19155e-11
0.000116493
-1.66739e-05
-1.014e-11
0.000109149
-1.7806e-05
-7.97621e-12
9.80249e-05
-5.58412e-12
8.31659e-05
-1.59515e-05
1.7806e-05
-4.71887e-06
8.31659e-05
-1.59515e-05
1.66739e-05
-5.62164e-06
9.80249e-05
1.28182e-05
-6.28842e-06
0.000109149
6.94343e-06
-6.72732e-06
0.000116493
-1.29774e-11
-6.94346e-06
0.000120132
-6.94346e-06
-6.94346e-06
0.000120132
-1.28182e-05
-6.72732e-06
0.000116493
-1.66739e-05
-6.28842e-06
0.000109149
-1.7806e-05
-5.62164e-06
9.80249e-05
-4.71887e-06
8.31659e-05
-1.59515e-05
1.72499e-05
-8.71201e-06
7.99112e-05
-1.54773e-05
1.6153e-05
-1.03831e-05
9.45619e-05
1.24179e-05
-1.16064e-05
0.00010557
6.7273e-06
-1.24179e-05
0.000112867
-1.18896e-11
-1.28182e-05
0.000116493
-6.72732e-06
-1.28182e-05
0.000116493
-1.24179e-05
-1.24179e-05
0.000112867
-1.61531e-05
-1.16064e-05
0.00010557
-1.72499e-05
-1.03831e-05
9.45619e-05
-8.71201e-06
7.99112e-05
-1.54774e-05
1.61345e-05
-1.14021e-05
7.36092e-05
-1.45002e-05
1.51005e-05
-1.35372e-05
8.77245e-05
1.16064e-05
-1.51005e-05
9.84173e-05
6.2884e-06
-1.61531e-05
0.00010557
-1.01909e-11
-1.66739e-05
0.000109149
-6.28842e-06
-1.66739e-05
0.000109149
-1.16064e-05
-1.61531e-05
0.00010557
-1.51005e-05
-1.51005e-05
9.84173e-05
-1.61345e-05
-1.35372e-05
8.77245e-05
-1.14021e-05
7.36092e-05
-1.45002e-05
1.45266e-05
-1.23534e-05
6.46976e-05
-1.31797e-05
1.35372e-05
-1.45266e-05
7.76919e-05
1.03831e-05
-1.61345e-05
8.77245e-05
5.62163e-06
-1.72499e-05
9.45619e-05
-8.0627e-12
-1.7806e-05
9.80249e-05
-5.62164e-06
-1.7806e-05
9.80249e-05
-1.03831e-05
-1.72499e-05
9.45619e-05
-1.35372e-05
-1.61345e-05
8.77245e-05
-1.45266e-05
-1.45266e-05
7.76919e-05
-1.23534e-05
6.46976e-05
-1.31798e-05
1.23534e-05
5.38169e-05
-1.14678e-05
-1.14678e-05
1.14021e-05
6.46976e-05
-1.31797e-05
8.712e-06
7.36092e-05
-1.45002e-05
4.71886e-06
7.99112e-05
-1.54774e-05
-5.67976e-12
8.31659e-05
-1.59515e-05
-4.71887e-06
8.31659e-05
-1.59515e-05
-8.71201e-06
7.99112e-05
-1.54774e-05
-1.14021e-05
7.36092e-05
-1.45002e-05
-1.23534e-05
6.46976e-05
-1.31798e-05
5.38169e-05
-1.14678e-05
-1.14678e-05
5.59902e-06
5.59902e-06
5.27103e-05
-5.04573e-06
-5.04573e-06
5.23613e-06
6.69791e-06
6.41708e-05
-5.80822e-06
4.06201e-06
7.57306e-06
7.37101e-05
-6.49983e-06
2.22305e-06
8.20926e-06
8.05567e-05
-7.01579e-06
-7.41569e-12
8.53856e-06
8.41253e-05
-7.27493e-06
-2.22306e-06
8.53856e-06
8.41253e-05
-7.27493e-06
-4.06202e-06
8.20927e-06
8.05567e-05
-7.0158e-06
-5.23614e-06
7.57307e-06
7.37101e-05
-6.49983e-06
-5.59903e-06
6.69792e-06
6.41708e-05
-5.80823e-06
5.59903e-06
5.27103e-05
-5.04573e-06
-5.04573e-06
6.69791e-06
5.23613e-06
6.41708e-05
-5.80822e-06
6.42426e-06
6.42426e-06
7.82392e-05
5.03784e-06
7.33885e-06
8.93452e-05
2.76587e-06
7.98272e-06
9.70604e-05
-1.24053e-11
8.31435e-06
0.000101015
-2.76589e-06
8.31435e-06
0.000101015
-5.03786e-06
7.98272e-06
9.70604e-05
-6.42428e-06
7.33885e-06
8.93452e-05
-6.69792e-06
6.42427e-06
7.82392e-05
5.23614e-06
6.41708e-05
-5.80823e-06
7.57306e-06
4.06201e-06
7.37101e-05
-6.49983e-06
7.33885e-06
5.03784e-06
8.93452e-05
5.79143e-06
5.79143e-06
0.000101512
3.18886e-06
6.31445e-06
0.000109841
-1.69587e-11
6.58261e-06
0.00011407
-3.18889e-06
6.58262e-06
0.00011407
-5.79146e-06
6.31445e-06
0.000109841
-7.33887e-06
5.79143e-06
0.000101512
-7.57308e-06
5.03785e-06
8.93452e-05
4.06201e-06
7.37101e-05
-6.49984e-06
8.20926e-06
2.22305e-06
8.05567e-05
-7.01579e-06
7.98272e-06
2.76587e-06
9.70604e-05
6.31445e-06
3.18886e-06
0.000109841
3.48089e-06
3.48089e-06
0.000118534
-2.03197e-11
3.63029e-06
0.000122926
-3.48093e-06
3.6303e-06
0.000122926
-6.31448e-06
3.48089e-06
0.000118534
-7.98274e-06
3.18886e-06
0.000109841
-8.20929e-06
2.76587e-06
9.70604e-05
2.22305e-06
8.05567e-05
-7.01581e-06
8.53856e-06
-7.39413e-12
8.41253e-05
-7.27493e-06
8.31435e-06
-1.23273e-11
0.000101015
6.58261e-06
-1.68429e-11
0.00011407
3.63029e-06
-2.01929e-11
0.000122926
-2.19181e-11
-2.1799e-11
0.000127393
-3.63034e-06
-2.1412e-11
0.000127393
-6.58265e-06
-1.91359e-11
0.000122926
-8.31438e-06
-1.5435e-11
0.00011407
-8.53858e-06
-1.09674e-11
0.000101015
-6.39866e-12
8.41253e-05
-7.27494e-06
8.53856e-06
-2.22306e-06
8.41253e-05
-7.27493e-06
8.31435e-06
-2.76589e-06
0.000101015
6.58262e-06
-3.18889e-06
0.00011407
3.6303e-06
-3.48093e-06
0.000122926
-2.14996e-11
-3.63034e-06
0.000127393
-3.63034e-06
-3.63034e-06
0.000127393
-6.58265e-06
-3.48093e-06
0.000122926
-8.31438e-06
-3.18889e-06
0.00011407
-8.53858e-06
-2.76589e-06
0.000101015
-2.22306e-06
8.41253e-05
-7.27494e-06
8.20927e-06
-4.06202e-06
8.05567e-05
-7.0158e-06
7.98272e-06
-5.03786e-06
9.70604e-05
6.31445e-06
-5.79146e-06
0.000109841
3.48089e-06
-6.31448e-06
0.000118534
-1.91862e-11
-6.58265e-06
0.000122926
-3.48093e-06
-6.58265e-06
0.000122926
-6.31448e-06
-6.31448e-06
0.000118534
-7.98275e-06
-5.79146e-06
0.000109841
-8.20929e-06
-5.03787e-06
9.70604e-05
-4.06202e-06
8.05567e-05
-7.01581e-06
7.57307e-06
-5.23614e-06
7.37101e-05
-6.49983e-06
7.33885e-06
-6.42428e-06
8.93452e-05
5.79143e-06
-7.33887e-06
0.000101512
3.18886e-06
-7.98274e-06
0.000109841
-1.54546e-11
-8.31438e-06
0.00011407
-3.18889e-06
-8.31438e-06
0.00011407
-5.79146e-06
-7.98275e-06
0.000109841
-7.33887e-06
-7.33887e-06
0.000101512
-7.57308e-06
-6.42429e-06
8.93452e-05
-5.23615e-06
7.37101e-05
-6.49984e-06
6.69792e-06
-5.59903e-06
6.41708e-05
-5.80823e-06
6.42427e-06
-6.69792e-06
7.82392e-05
5.03785e-06
-7.57308e-06
8.93452e-05
2.76587e-06
-8.20929e-06
9.70604e-05
-1.09723e-11
-8.53858e-06
0.000101015
-2.76589e-06
-8.53858e-06
0.000101015
-5.03787e-06
-8.20929e-06
9.70604e-05
-6.42429e-06
-7.57308e-06
8.93452e-05
-6.69793e-06
-6.69793e-06
7.82392e-05
-5.59904e-06
6.41708e-05
-5.80824e-06
5.59903e-06
5.27103e-05
-5.04573e-06
-5.04573e-06
5.23614e-06
6.41708e-05
-5.80823e-06
4.06201e-06
7.37101e-05
-6.49984e-06
2.22305e-06
8.05567e-05
-7.01581e-06
-6.41733e-12
8.41253e-05
-7.27494e-06
-2.22306e-06
8.41253e-05
-7.27494e-06
-4.06202e-06
8.05567e-05
-7.01581e-06
-5.23615e-06
7.37101e-05
-6.49984e-06
-5.59904e-06
6.41708e-05
-5.80824e-06
5.27103e-05
-5.04574e-06
-5.04574e-06
9.81939e-07
9.81939e-07
5.22455e-05
-7.49533e-07
-7.49533e-07
1.04798e-06
1.35871e-06
6.37534e-05
-1.00727e-06
8.76141e-07
1.66868e-06
7.34351e-05
-1.22178e-06
4.99114e-07
1.8983e-06
8.04225e-05
-1.38711e-06
1.50819e-12
2.02015e-06
8.40779e-05
-1.47362e-06
-4.99111e-07
2.02016e-06
8.40779e-05
-1.47362e-06
-8.76139e-07
1.8983e-06
8.04225e-05
-1.38711e-06
-1.04798e-06
1.66869e-06
7.34351e-05
-1.22178e-06
-9.81939e-07
1.35871e-06
6.37534e-05
-1.00727e-06
9.81945e-07
5.22455e-05
-7.49533e-07
-7.49538e-07
1.35871e-06
1.04798e-06
6.37534e-05
-1.00727e-06
1.46381e-06
1.46381e-06
7.8029e-05
1.23042e-06
1.80643e-06
8.94408e-05
7.01774e-07
2.05629e-06
9.74311e-05
-2.29913e-12
2.1894e-06
0.000101548
-7.01779e-07
2.1894e-06
0.000101548
-1.23042e-06
2.05629e-06
9.74311e-05
-1.46381e-06
1.80643e-06
8.94408e-05
-1.35871e-06
1.46381e-06
7.8029e-05
1.04798e-06
6.37534e-05
-1.00727e-06
1.66868e-06
8.7614e-07
7.34351e-05
-1.22178e-06
1.80643e-06
1.23041e-06
8.94408e-05
1.52368e-06
1.52368e-06
0.000102078
8.69628e-07
1.73664e-06
0.000110815
-6.39874e-12
1.84911e-06
0.00011528
-8.69641e-07
1.84911e-06
0.00011528
-1.52369e-06
1.73664e-06
0.000110815
-1.80644e-06
1.52368e-06
0.000102078
-1.66869e-06
1.23042e-06
8.94408e-05
8.76146e-07
7.3435e-05
-1.22179e-06
1.8983e-06
4.99113e-07
8.04225e-05
-1.38711e-06
2.05629e-06
7.01773e-07
9.74311e-05
1.73664e-06
8.69628e-07
0.000110815
9.92138e-07
9.92138e-07
0.000120023
-9.84966e-12
1.0566e-06
0.000124711
-9.92157e-07
1.0566e-06
0.000124711
-1.73665e-06
9.92141e-07
0.000120023
-2.0563e-06
8.69631e-07
0.000110815
-1.89831e-06
7.01777e-07
9.74311e-05
4.99116e-07
8.04225e-05
-1.38712e-06
2.02015e-06
5.92433e-13
8.40779e-05
-1.47362e-06
2.1894e-06
-3.08028e-12
0.000101548
1.84911e-06
-6.93639e-12
0.00011528
1.0566e-06
-1.00733e-11
0.000124711
-1.18254e-11
-1.16957e-11
0.000129506
-1.05662e-06
-1.13947e-11
0.000129506
-1.84913e-06
-9.24552e-12
0.000124711
-2.18942e-06
-5.83517e-12
0.00011528
-2.02017e-06
-2.01426e-12
0.000101548
1.37308e-12
8.40779e-05
-1.47363e-06
2.02016e-06
-4.99112e-07
8.40779e-05
-1.47362e-06
2.1894e-06
-7.01779e-07
0.000101548
1.84911e-06
-8.69641e-07
0.00011528
1.0566e-06
-9.92158e-07
0.000124711
-1.18624e-11
-1.05662e-06
0.000129506
-1.05662e-06
-1.05662e-06
0.000129506
-1.84913e-06
-9.92158e-07
0.000124711
-2.18942e-06
-8.69642e-07
0.00011528
-2.02017e-06
-7.01781e-07
0.000101548
-4.99114e-07
8.40779e-05
-1.47363e-06
1.8983e-06
-8.76139e-07
8.04225e-05
-1.38711e-06
2.05629e-06
-1.23042e-06
9.74311e-05
1.73664e-06
-1.52369e-06
0.000110815
9.9214e-07
-1.73665e-06
0.000120023
-1.00111e-11
-1.84913e-06
0.000124711
-9.92159e-07
-1.84913e-06
0.000124711
-1.73666e-06
-1.73666e-06
0.000120023
-2.0563e-06
-1.52369e-06
0.000110815
-1.89831e-06
-1.23042e-06
9.74311e-05
-8.76143e-07
8.04225e-05
-1.38712e-06
1.66869e-06
-1.04798e-06
7.34351e-05
-1.22178e-06
1.80643e-06
-1.46381e-06
8.94408e-05
1.52368e-06
-1.80644e-06
0.000102078
8.6963e-07
-2.0563e-06
0.000110815
-6.82316e-12
-2.18942e-06
0.00011528
-8.69643e-07
-2.18942e-06
0.00011528
-1.52369e-06
-2.0563e-06
0.000110815
-1.80644e-06
-1.80644e-06
0.000102078
-1.66869e-06
-1.46382e-06
8.94408e-05
-1.04798e-06
7.3435e-05
-1.22179e-06
1.35871e-06
-9.81939e-07
6.37534e-05
-1.00727e-06
1.46381e-06
-1.35871e-06
7.8029e-05
1.23042e-06
-1.66869e-06
8.94408e-05
7.01776e-07
-1.89831e-06
9.74311e-05
-3.13237e-12
-2.02017e-06
0.000101548
-7.01782e-07
-2.02017e-06
0.000101548
-1.23042e-06
-1.89831e-06
9.74311e-05
-1.46382e-06
-1.66869e-06
8.94408e-05
-1.35871e-06
-1.35871e-06
7.8029e-05
-9.81944e-07
6.37534e-05
-1.00727e-06
9.81945e-07
5.22455e-05
-7.49534e-07
-7.49538e-07
1.04798e-06
6.37534e-05
-1.00727e-06
8.76145e-07
7.3435e-05
-1.22179e-06
4.99115e-07
8.04225e-05
-1.38712e-06
2.30263e-13
8.40779e-05
-1.47363e-06
-4.99115e-07
8.40779e-05
-1.47363e-06
-8.76144e-07
8.04225e-05
-1.38712e-06
-1.04798e-06
7.3435e-05
-1.22179e-06
-9.81945e-07
6.37534e-05
-1.00727e-06
5.22455e-05
-7.49538e-07
-7.49538e-07
8.61432e-07
8.61432e-07
5.21138e-05
-7.95565e-07
-7.95565e-07
7.79478e-07
9.86754e-07
6.37113e-05
-8.62725e-07
5.98433e-07
1.10577e-06
7.34644e-05
-9.54052e-07
3.26359e-07
1.19648e-06
8.05205e-05
-1.02241e-06
1.03667e-11
1.2438e-06
8.42172e-05
-1.0568e-06
-3.26339e-07
1.2438e-06
8.42172e-05
-1.0568e-06
-5.98416e-07
1.19648e-06
8.05205e-05
-1.02241e-06
-7.79464e-07
1.10577e-06
7.34644e-05
-9.54054e-07
-8.61422e-07
9.86757e-07
6.37113e-05
-8.62727e-07
8.61435e-07
5.21138e-05
-7.95559e-07
-7.95567e-07
9.86754e-07
7.79477e-07
6.37113e-05
-8.62725e-07
9.35108e-07
9.35107e-07
7.81323e-05
7.36105e-07
1.06965e-06
8.9676e-05
4.06592e-07
1.17013e-06
9.77869e-05
1.0697e-11
1.22316e-06
0.000101975
-4.06572e-07
1.22316e-06
0.000101975
-7.36086e-07
1.17013e-06
9.77869e-05
-9.35093e-07
1.06966e-06
8.96759e-05
-9.86743e-07
9.35111e-07
7.81323e-05
7.79481e-07
6.37113e-05
-8.62718e-07
1.10577e-06
5.98432e-07
7.34644e-05
-9.54053e-07
1.06965e-06
7.36103e-07
8.9676e-05
8.53558e-07
8.53557e-07
0.00010251
4.74795e-07
9.40697e-07
0.000111423
1.00445e-11
9.86768e-07
0.000115991
-4.74775e-07
9.86768e-07
0.000115991
-8.53541e-07
9.40699e-07
0.000111423
-1.06964e-06
8.53561e-07
0.00010251
-1.10576e-06
7.36107e-07
8.96759e-05
5.98435e-07
7.34644e-05
-9.54046e-07
1.19648e-06
3.26358e-07
8.05205e-05
-1.02241e-06
1.17013e-06
4.06591e-07
9.77869e-05
9.40697e-07
4.74794e-07
0.000111423
5.25352e-07
5.25351e-07
0.000120854
9.00054e-12
5.52124e-07
0.000125671
-5.25334e-07
5.52125e-07
0.000125671
-9.40682e-07
5.25353e-07
0.000120854
-1.17012e-06
4.74796e-07
0.000111423
-1.19647e-06
4.06594e-07
9.77869e-05
3.2636e-07
8.05205e-05
-1.0224e-06
1.2438e-06
9.05425e-12
8.42172e-05
-1.0568e-06
1.22316e-06
9.47181e-12
0.000101975
9.86768e-07
9.10988e-12
0.000115991
5.52124e-07
8.4958e-12
0.000125671
8.17804e-12
8.186e-12
0.00013061
-5.52108e-07
8.42436e-12
0.00013061
-9.86753e-07
9.15387e-12
0.000125671
-1.22314e-06
1.00153e-11
0.000115991
-1.24379e-06
1.04168e-11
0.000101975
9.85529e-12
8.42172e-05
-1.05679e-06
1.2438e-06
-3.2634e-07
8.42172e-05
-1.0568e-06
1.22316e-06
-4.06573e-07
0.000101975
9.86768e-07
-4.74776e-07
0.000115991
5.52124e-07
-5.25335e-07
0.000125671
7.89395e-12
-5.52108e-07
0.00013061
-5.52109e-07
-5.52109e-07
0.00013061
-9.86754e-07
-5.25335e-07
0.000125671
-1.22314e-06
-4.74777e-07
0.000115991
-1.24379e-06
-4.06574e-07
0.000101975
-3.26341e-07
8.42172e-05
-1.05679e-06
1.19648e-06
-5.98417e-07
8.05205e-05
-1.02241e-06
1.17013e-06
-7.36087e-07
9.77869e-05
9.40698e-07
-8.53541e-07
0.000111423
5.25352e-07
-9.40682e-07
0.000120854
8.16227e-12
-9.86753e-07
0.000125671
-5.25336e-07
-9.86753e-07
0.000125671
-9.40684e-07
-9.40683e-07
0.000120854
-1.17012e-06
-8.53543e-07
0.000111423
-1.19647e-06
-7.36089e-07
9.77869e-05
-5.98419e-07
8.05205e-05
-1.02241e-06
1.10577e-06
-7.79465e-07
7.34644e-05
-9.54054e-07
1.06965e-06
-9.35094e-07
8.96759e-05
8.53559e-07
-1.06964e-06
0.00010251
4.74795e-07
-1.17012e-06
0.000111423
8.68166e-12
-1.22314e-06
0.000115991
-4.74778e-07
-1.22314e-06
0.000115991
-8.53544e-07
-1.17012e-06
0.000111423
-1.06964e-06
-1.06964e-06
0.00010251
-1.10576e-06
-9.35096e-07
8.96759e-05
-7.79467e-07
7.34644e-05
-9.54048e-07
9.86756e-07
-8.61423e-07
6.37113e-05
-8.62727e-07
9.3511e-07
-9.86744e-07
7.81323e-05
7.36106e-07
-1.10576e-06
8.96759e-05
4.06592e-07
-1.19647e-06
9.77869e-05
8.89955e-12
-1.24379e-06
0.000101975
-4.06575e-07
-1.24379e-06
0.000101975
-7.3609e-07
-1.19647e-06
9.77869e-05
-9.35097e-07
-1.10576e-06
8.96759e-05
-9.86747e-07
-9.86746e-07
7.81323e-05
-8.61425e-07
6.37113e-05
-8.6272e-07
8.61434e-07
5.21138e-05
-7.95559e-07
-7.95566e-07
7.7948e-07
6.37113e-05
-8.62718e-07
5.98434e-07
7.34644e-05
-9.54046e-07
3.26359e-07
8.05205e-05
-1.0224e-06
8.35571e-12
8.42172e-05
-1.05679e-06
-3.26343e-07
8.42172e-05
-1.05679e-06
-5.9842e-07
8.05205e-05
-1.02241e-06
-7.79468e-07
7.34644e-05
-9.54047e-07
-8.61426e-07
6.37113e-05
-8.6272e-07
5.21138e-05
-7.95561e-07
-7.9556e-07
-2.05966e-07
-2.05967e-07
5.2056e-05
2.34869e-07
2.34869e-07
-1.41988e-07
-1.51447e-07
6.3611e-05
1.87762e-07
-8.61748e-08
-1.39346e-07
7.33624e-05
1.85521e-07
-4.0203e-08
-1.15465e-07
8.04189e-05
1.71097e-07
1.20429e-11
-1.06699e-07
8.41176e-05
1.66119e-07
4.02258e-08
-1.06699e-07
8.41176e-05
1.66119e-07
8.61952e-08
-1.15465e-07
8.04189e-05
1.71098e-07
1.42004e-07
-1.39346e-07
7.33624e-05
1.85522e-07
2.05978e-07
-1.51448e-07
6.3611e-05
1.87762e-07
-2.05968e-07
5.2056e-05
2.34877e-07
2.34871e-07
-1.51446e-07
-1.41989e-07
6.3611e-05
1.87761e-07
-8.55536e-08
-8.5555e-08
7.80005e-05
-3.92927e-08
-6.69617e-08
8.95573e-05
-1.34305e-08
-3.56925e-08
9.76813e-05
1.59169e-11
-2.4162e-08
0.000101879
1.34615e-08
-2.41621e-08
0.000101879
3.93189e-08
-3.56915e-08
9.76813e-05
8.55756e-08
-6.69621e-08
8.95573e-05
1.51462e-07
-8.55558e-08
7.80005e-05
-1.41989e-07
6.3611e-05
1.87771e-07
-1.39345e-07
-8.61764e-08
7.33624e-05
1.85521e-07
-6.69605e-08
-3.92944e-08
8.95573e-05
-2.29686e-08
-2.297e-08
0.000102422
-2.38054e-09
3.5897e-09
0.000111363
1.88421e-11
1.44921e-08
0.00011595
2.4184e-09
1.44905e-08
0.00011595
2.29994e-08
3.59394e-09
0.000111363
6.69865e-08
-2.29709e-08
0.000102422
1.39364e-07
-3.92941e-08
8.95573e-05
-8.61758e-08
7.33624e-05
1.85533e-07
-1.15464e-07
-4.02048e-08
8.04189e-05
1.71097e-07
-3.56915e-08
-1.34326e-08
9.76813e-05
3.59106e-09
-2.38232e-09
0.000111363
1.30792e-08
1.30779e-08
0.000120835
2.05072e-11
1.97052e-08
0.000125679
-1.30409e-08
1.97048e-08
0.000125679
-3.55409e-09
1.30798e-08
0.000120835
3.57204e-08
-2.38122e-09
0.000111363
1.15486e-07
-1.34318e-08
9.76813e-05
-4.02036e-08
8.04189e-05
1.71111e-07
-1.06699e-07
1.01514e-11
8.41176e-05
1.66119e-07
-2.41614e-08
1.38088e-11
0.000101879
1.44926e-08
1.70423e-11
0.00011595
1.97058e-08
1.91473e-11
0.000125679
2.10988e-11
2.03631e-11
0.00013065
-1.96659e-08
2.06945e-11
0.00013065
-1.44559e-08
2.01309e-11
0.000125679
2.41917e-08
1.84337e-11
0.00011595
1.06721e-07
1.54281e-11
0.000101879
1.1522e-11
8.41176e-05
1.66134e-07
-1.06699e-07
4.0224e-08
8.41176e-05
1.66119e-07
-2.41621e-08
1.34595e-08
0.000101879
1.44907e-08
2.41659e-09
0.00011595
1.97049e-08
-1.30422e-08
0.000125679
2.07985e-11
-1.96666e-08
0.00013065
-1.96655e-08
-1.96656e-08
0.00013065
-1.44544e-08
-1.30421e-08
0.000125679
2.41919e-08
2.4183e-09
0.00011595
1.06721e-07
1.34619e-08
0.000101879
4.02255e-08
8.41176e-05
1.66134e-07
-1.15466e-07
8.61936e-08
8.04189e-05
1.71098e-07
-3.56919e-08
3.93172e-08
9.76813e-05
3.59326e-09
2.29979e-08
0.000111363
1.30792e-08
-3.55544e-09
0.000120835
1.95933e-11
-1.44566e-08
0.000125679
-1.30426e-08
-1.44545e-08
0.000125679
-3.55811e-09
-3.55758e-09
0.000120835
3.57197e-08
2.30011e-08
0.000111363
1.15486e-07
3.93197e-08
9.76813e-05
8.61955e-08
8.04189e-05
1.71112e-07
-1.39347e-07
1.42003e-07
7.33624e-05
1.85523e-07
-6.69629e-08
8.55742e-08
8.95573e-05
-2.29718e-08
6.69853e-08
0.000102422
-2.38228e-09
3.57194e-08
0.000111363
1.73961e-11
2.41911e-08
0.00011595
2.41729e-09
2.41918e-08
0.00011595
2.30004e-08
3.572e-08
0.000111363
6.69872e-08
6.69878e-08
0.000102422
1.39364e-07
8.55774e-08
8.95573e-05
1.42005e-07
7.33624e-05
1.85534e-07
-1.51448e-07
2.05977e-07
6.3611e-05
1.87763e-07
-8.55568e-08
1.51461e-07
7.80005e-05
-3.92953e-08
1.39363e-07
8.95573e-05
-1.34332e-08
1.15485e-07
9.76813e-05
1.39864e-11
1.0672e-07
0.000101879
1.34605e-08
1.06721e-07
0.000101879
3.93185e-08
1.15487e-07
9.76813e-05
8.55765e-08
1.39365e-07
8.95573e-05
1.51463e-07
1.51464e-07
7.80005e-05
2.0598e-07
6.3611e-05
1.87773e-07
-2.05968e-07
5.2056e-05
2.34875e-07
2.34871e-07
-1.4199e-07
6.3611e-05
1.87772e-07
-8.61771e-08
7.33624e-05
1.85533e-07
-4.0205e-08
8.04189e-05
1.71111e-07
1.01423e-11
8.41176e-05
1.66133e-07
4.02242e-08
8.41176e-05
1.66134e-07
8.61943e-08
8.04189e-05
1.71112e-07
1.42004e-07
7.33624e-05
1.85535e-07
2.05979e-07
6.3611e-05
1.87773e-07
5.2056e-05
2.34878e-07
2.34878e-07
3.13226e-07
3.13225e-07
5.20498e-05
-3.10155e-07
-3.10155e-07
2.60447e-07
3.25134e-07
6.365e-05
-3.11335e-07
1.89409e-07
3.46072e-07
7.34195e-05
-3.32156e-07
9.9725e-08
3.61175e-07
8.04929e-05
-3.45487e-07
5.47215e-12
3.68075e-07
8.42009e-05
-3.5168e-07
-9.97145e-08
3.68074e-07
8.42009e-05
-3.51679e-07
-1.894e-07
3.61173e-07
8.04929e-05
-3.45485e-07
-2.60439e-07
3.46069e-07
7.34195e-05
-3.32153e-07
-3.1322e-07
3.2513e-07
6.365e-05
-3.11332e-07
3.13221e-07
5.20498e-05
-3.10152e-07
-3.10152e-07
3.25135e-07
2.60446e-07
6.365e-05
-3.11336e-07
2.7881e-07
2.78809e-07
7.80932e-05
2.06125e-07
3.00582e-07
8.96755e-05
1.09942e-07
3.15619e-07
9.7823e-05
9.31784e-12
3.23014e-07
0.000102034
-1.09924e-07
3.23013e-07
0.000102034
-2.06109e-07
3.15618e-07
9.7823e-05
-2.78797e-07
3.0058e-07
8.96755e-05
-3.25125e-07
2.78806e-07
7.80932e-05
2.60443e-07
6.365e-05
-3.11329e-07
3.46073e-07
1.89408e-07
7.34195e-05
-3.32157e-07
3.00583e-07
2.06123e-07
8.96755e-05
2.24795e-07
2.24793e-07
0.000102573
1.2049e-07
2.37631e-07
0.000111545
1.30007e-11
2.43882e-07
0.000116149
-1.20465e-07
2.43881e-07
0.000116149
-2.24773e-07
2.37631e-07
0.000111545
-3.00566e-07
2.24791e-07
0.000102573
-3.4606e-07
2.06121e-07
8.96755e-05
1.89406e-07
7.34195e-05
-3.32148e-07
3.61175e-07
9.97232e-08
8.04929e-05
-3.45487e-07
3.15621e-07
1.0994e-07
9.7823e-05
2.37633e-07
1.20488e-07
0.000111545
1.27936e-07
1.27934e-07
0.000121054
1.58196e-11
1.31574e-07
0.000125919
-1.27905e-07
1.31574e-07
0.000125919
-2.37606e-07
1.27934e-07
0.000121054
-3.15599e-07
1.20487e-07
0.000111545
-3.6116e-07
1.0994e-07
9.7823e-05
9.97228e-08
8.04929e-05
-3.45477e-07
3.68075e-07
3.55257e-12
8.42009e-05
-3.51681e-07
3.23015e-07
7.00867e-12
0.000102034
2.43883e-07
1.06225e-11
0.000116149
1.31576e-07
1.36321e-11
0.000125919
1.72659e-11
1.55419e-11
0.000130913
-1.31543e-07
1.59536e-11
0.000130913
-2.43854e-07
1.477e-11
0.000125919
-3.22991e-07
1.21967e-11
0.000116149
-3.68058e-07
8.68598e-12
0.000102034
4.96345e-12
8.42009e-05
-3.51669e-07
3.68074e-07
-9.97164e-08
8.42009e-05
-3.5168e-07
3.23014e-07
-1.09927e-07
0.000102034
2.43882e-07
-1.20467e-07
0.000116149
1.31575e-07
-1.27908e-07
0.000125919
1.70463e-11
-1.31544e-07
0.000130913
-1.31543e-07
-1.31544e-07
0.000130913
-2.43853e-07
-1.27905e-07
0.000125919
-3.22991e-07
-1.20464e-07
0.000116149
-3.68057e-07
-1.09923e-07
0.000102034
-9.97133e-08
8.42009e-05
-3.51669e-07
3.61173e-07
-1.89402e-07
8.04929e-05
-3.45485e-07
3.15618e-07
-2.06111e-07
9.7823e-05
2.37631e-07
-2.24775e-07
0.000111545
1.27934e-07
-2.37608e-07
0.000121054
1.51753e-11
-2.43855e-07
0.000125919
-1.27905e-07
-2.43854e-07
0.000125919
-2.37605e-07
-2.37606e-07
0.000121054
-3.15597e-07
-2.24771e-07
0.000111545
-3.61158e-07
-2.06106e-07
9.7823e-05
-1.89397e-07
8.04929e-05
-3.45475e-07
3.46069e-07
-2.60441e-07
7.34195e-05
-3.32154e-07
3.0058e-07
-2.78799e-07
8.96755e-05
2.24791e-07
-3.00568e-07
0.000102573
1.20487e-07
-3.15601e-07
0.000111545
1.20007e-11
-3.22993e-07
0.000116149
-1.20464e-07
-3.22991e-07
0.000116149
-2.24771e-07
-3.15598e-07
0.000111545
-3.00563e-07
-3.00563e-07
0.000102573
-3.46057e-07
-2.78793e-07
8.96755e-05
-2.60436e-07
7.34195e-05
-3.32145e-07
3.2513e-07
-3.13221e-07
6.365e-05
-3.11332e-07
2.78805e-07
-3.25126e-07
7.80932e-05
2.06121e-07
-3.46061e-07
8.96755e-05
1.09939e-07
-3.61161e-07
9.7823e-05
8.02393e-12
-3.68059e-07
0.000102034
-1.09924e-07
-3.68058e-07
0.000102034
-2.06107e-07
-3.61158e-07
9.7823e-05
-2.78794e-07
-3.46057e-07
8.96755e-05
-3.25121e-07
-3.25121e-07
7.80932e-05
-3.13216e-07
6.365e-05
-3.11326e-07
3.13221e-07
5.20498e-05
-3.10152e-07
-3.10152e-07
2.60442e-07
6.365e-05
-3.1133e-07
1.89405e-07
7.34195e-05
-3.32149e-07
9.97221e-08
8.04929e-05
-3.45478e-07
4.11412e-12
8.42009e-05
-3.5167e-07
-9.97141e-08
8.42009e-05
-3.51669e-07
-1.89398e-07
8.04929e-05
-3.45475e-07
-2.60436e-07
7.34195e-05
-3.32145e-07
-3.13216e-07
6.365e-05
-3.11326e-07
5.20498e-05
-3.10148e-07
-3.10148e-07
-2.03585e-07
-2.03584e-07
5.2042e-05
2.07508e-07
2.07508e-07
-1.62979e-07
-2.01355e-07
6.36084e-05
2.02332e-07
-1.14907e-07
-2.08904e-07
7.33676e-05
2.12747e-07
-5.92988e-08
-2.12761e-07
8.04322e-05
2.17856e-07
-3.95559e-12
-2.14117e-07
8.41356e-05
2.20117e-07
5.92912e-08
-2.14118e-07
8.41356e-05
2.20117e-07
1.149e-07
-2.12763e-07
8.04322e-05
2.17857e-07
1.62973e-07
-2.08907e-07
7.33676e-05
2.12749e-07
2.0358e-07
-2.01358e-07
6.36084e-05
2.02334e-07
-2.03587e-07
5.2042e-05
2.07506e-07
2.0751e-07
-2.01356e-07
-1.62979e-07
6.36084e-05
2.02332e-07
-1.62546e-07
-1.62546e-07
7.80155e-05
-1.14484e-07
-1.6867e-07
8.95872e-05
-5.93642e-08
-1.7081e-07
9.7726e-05
-2.82594e-12
-1.717e-07
0.000101932
5.93587e-08
-1.717e-07
0.000101932
1.14479e-07
-1.70812e-07
9.7726e-05
1.62542e-07
-1.68673e-07
8.95872e-05
2.01352e-07
-1.62549e-07
7.80155e-05
-1.62982e-07
6.36084e-05
2.0233e-07
-2.08904e-07
-1.14907e-07
7.33676e-05
2.12747e-07
-1.6867e-07
-1.14484e-07
8.95872e-05
-1.19146e-07
-1.19146e-07
0.000102474
-6.16528e-08
-1.20481e-07
0.000111438
-1.0281e-12
-1.20917e-07
0.000116037
6.16508e-08
-1.20917e-07
0.000116037
1.19144e-07
-1.20482e-07
0.000111438
1.68668e-07
-1.19148e-07
0.000102474
2.08903e-07
-1.14486e-07
8.95872e-05
-1.14909e-07
7.33676e-05
2.12746e-07
-2.12761e-07
-5.92986e-08
8.04322e-05
2.17856e-07
-1.7081e-07
-5.93642e-08
9.7726e-05
-1.20481e-07
-6.16532e-08
0.000111438
-6.23177e-08
-6.23182e-08
0.000120938
6.36355e-13
-6.24939e-08
0.000125798
6.23188e-08
-6.24941e-08
0.000125798
1.20481e-07
-6.23186e-08
0.000120938
1.7081e-07
-6.16539e-08
0.000111438