/*--------------------------------*- C++ -*----------------------------------*\
| =========                 |                                                 |
| \\      /  F ield         | OpenFOAM: The Open Source CFD Toolbox           |
|  \\    /   O peration     | Version:  2406                                  |
|   \\  /    A nd           | Website:  www.openfoam.com                      |
|    \\/     M anipulation  |                                                 |
\*---------------------------------------------------------------------------*/
FoamFile
{
    version     2.0;
    format      ascii;
    arch        "LSB;label=32;scalar=64";
    class       volVectorField;
    location    "0.1";
    object      U;
}
// * * * * * * * * * * * * * * * * * * * * * * * * * * * * * * * * * * * * * //

dimensions      [0 1 -1 0 0 0 0];

internalField   nonuniform List<vector> 
25000
(
(0.190595 0.190595 1.08814)
(0.158717 0.210932 1.15532)
(0.120424 0.227447 1.20051)
(0.074915 0.238713 1.22835)
(0.0254213 0.244397 1.24153)
(-0.0254213 0.244397 1.24153)
(-0.074915 0.238713 1.22835)
(-0.120424 0.227447 1.20051)
(-0.158717 0.210932 1.15532)
(-0.190595 0.190595 1.08814)
(0.210932 0.158717 1.15532)
(0.177299 0.177299 1.22836)
(0.133828 0.191574 1.27108)
(0.0828841 0.201279 1.29471)
(0.028036 0.206153 1.30517)
(-0.028036 0.206153 1.30517)
(-0.0828841 0.201279 1.29471)
(-0.133828 0.191574 1.27108)
(-0.177299 0.177299 1.22836)
(-0.210932 0.158717 1.15532)
(0.227447 0.120424 1.20051)
(0.191574 0.133828 1.27108)
(0.144036 0.144036 1.31005)
(0.088975 0.150973 1.33)
(0.0300476 0.154472 1.33828)
(-0.0300476 0.154472 1.33828)
(-0.088975 0.150973 1.33)
(-0.144036 0.144036 1.31005)
(-0.191574 0.133828 1.27108)
(-0.227447 0.120424 1.20051)
(0.238713 0.074915 1.22835)
(0.201279 0.0828841 1.29471)
(0.150973 0.088975 1.33)
(0.0930991 0.0930991 1.34706)
(0.0314097 0.0951797 1.35374)
(-0.0314097 0.0951797 1.35374)
(-0.0930991 0.0930991 1.34706)
(-0.150973 0.088975 1.33)
(-0.201279 0.0828841 1.29471)
(-0.238713 0.074915 1.22835)
(0.244397 0.0254213 1.24153)
(0.206153 0.028036 1.30517)
(0.154472 0.0300476 1.33828)
(0.0951797 0.0314097 1.35374)
(0.0320981 0.0320981 1.35956)
(-0.0320981 0.0320981 1.35956)
(-0.0951797 0.0314097 1.35374)
(-0.154472 0.0300476 1.33828)
(-0.206153 0.028036 1.30517)
(-0.244397 0.0254214 1.24153)
(0.244397 -0.0254214 1.24153)
(0.206153 -0.028036 1.30517)
(0.154472 -0.0300476 1.33828)
(0.0951797 -0.0314097 1.35374)
(0.0320981 -0.0320981 1.35956)
(-0.0320981 -0.0320981 1.35956)
(-0.0951797 -0.0314097 1.35374)
(-0.154472 -0.0300476 1.33828)
(-0.206153 -0.028036 1.30517)
(-0.244397 -0.0254213 1.24153)
(0.238713 -0.074915 1.22835)
(0.201279 -0.0828841 1.29471)
(0.150973 -0.088975 1.33)
(0.0930991 -0.0930991 1.34706)
(0.0314097 -0.0951797 1.35374)
(-0.0314097 -0.0951797 1.35374)
(-0.0930991 -0.0930991 1.34706)
(-0.150973 -0.088975 1.33)
(-0.201279 -0.0828841 1.29471)
(-0.238713 -0.074915 1.22835)
(0.227447 -0.120424 1.20051)
(0.191574 -0.133828 1.27108)
(0.144036 -0.144036 1.31005)
(0.088975 -0.150973 1.33)
(0.0300476 -0.154472 1.33828)
(-0.0300476 -0.154472 1.33828)
(-0.088975 -0.150973 1.33)
(-0.144036 -0.144036 1.31005)
(-0.191574 -0.133828 1.27108)
(-0.227447 -0.120424 1.20051)
(0.210932 -0.158717 1.15532)
(0.177299 -0.177299 1.22836)
(0.133828 -0.191574 1.27108)
(0.0828841 -0.201279 1.29471)
(0.028036 -0.206153 1.30517)
(-0.028036 -0.206153 1.30517)
(-0.0828841 -0.201279 1.29471)
(-0.133828 -0.191574 1.27108)
(-0.177299 -0.177299 1.22836)
(-0.210932 -0.158717 1.15532)
(0.190595 -0.190595 1.08814)
(0.158717 -0.210932 1.15532)
(0.120424 -0.227447 1.20051)
(0.074915 -0.238713 1.22835)
(0.0254213 -0.244397 1.24153)
(-0.0254213 -0.244397 1.24153)
(-0.074915 -0.238713 1.22835)
(-0.120424 -0.227447 1.20051)
(-0.158717 -0.210932 1.15532)
(-0.190595 -0.190595 1.08814)
(0.0360898 0.0360898 1.25175)
(0.0336283 0.0446688 1.37277)
(0.0276902 0.0517986 1.46113)
(0.0181184 0.0572661 1.51896)
(0.00631413 0.0601138 1.54744)
(-0.00631418 0.0601138 1.54744)
(-0.0181184 0.0572661 1.51896)
(-0.0276902 0.0517986 1.46113)
(-0.0336283 0.0446689 1.37277)
(-0.0360899 0.0360899 1.25175)
(0.0446688 0.0336283 1.37277)
(0.0426979 0.0426979 1.51643)
(0.0353312 0.0503119 1.6114)
(0.0231311 0.0559157 1.66956)
(0.00803988 0.0588653 1.69719)
(-0.00803994 0.0588653 1.69719)
(-0.0231312 0.0559157 1.66956)
(-0.0353313 0.0503119 1.6114)
(-0.0426979 0.0426979 1.51643)
(-0.0446689 0.0336283 1.37277)
(0.0517986 0.0276902 1.46113)
(0.0503119 0.0353312 1.6114)
(0.0416532 0.0416532 1.70823)
(0.027299 0.0462566 1.76567)
(0.00948936 0.0486863 1.79231)
(-0.00948944 0.0486863 1.79231)
(-0.027299 0.0462566 1.76567)
(-0.0416532 0.0416532 1.70823)
(-0.0503119 0.0353312 1.6114)
(-0.0517986 0.0276902 1.46113)
(0.0572661 0.0181184 1.51896)
(0.0559157 0.0231311 1.66956)
(0.0462566 0.0272989 1.76567)
(0.0303073 0.0303073 1.82177)
(0.0105322 0.0318871 1.84744)
(-0.0105323 0.0318871 1.84744)
(-0.0303073 0.0303073 1.82177)
(-0.0462567 0.027299 1.76567)
(-0.0559158 0.0231311 1.66956)
(-0.0572661 0.0181184 1.51896)
(0.0601138 0.00631413 1.54744)
(0.0588653 0.00803988 1.69719)
(0.0486863 0.00948936 1.79231)
(0.0318871 0.0105322 1.84744)
(0.0110788 0.0110788 1.87251)
(-0.0110789 0.0110788 1.87251)
(-0.0318871 0.0105322 1.84744)
(-0.0486863 0.00948937 1.79231)
(-0.0588653 0.00803989 1.69719)
(-0.0601138 0.00631414 1.54744)
(0.0601138 -0.00631418 1.54744)
(0.0588653 -0.00803994 1.69719)
(0.0486863 -0.00948944 1.79231)
(0.0318871 -0.0105323 1.84744)
(0.0110788 -0.0110789 1.87251)
(-0.0110789 -0.0110789 1.87251)
(-0.0318871 -0.0105323 1.84744)
(-0.0486863 -0.00948943 1.79231)
(-0.0588653 -0.00803994 1.69719)
(-0.0601138 -0.00631417 1.54744)
(0.0572661 -0.0181184 1.51896)
(0.0559157 -0.0231312 1.66956)
(0.0462566 -0.027299 1.76567)
(0.0303073 -0.0303073 1.82177)
(0.0105322 -0.0318871 1.84744)
(-0.0105323 -0.0318871 1.84744)
(-0.0303073 -0.0303073 1.82177)
(-0.0462567 -0.027299 1.76567)
(-0.0559158 -0.0231312 1.66956)
(-0.0572661 -0.0181184 1.51896)
(0.0517986 -0.0276902 1.46113)
(0.0503119 -0.0353313 1.6114)
(0.0416532 -0.0416532 1.70823)
(0.027299 -0.0462567 1.76567)
(0.00948937 -0.0486863 1.79231)
(-0.00948943 -0.0486863 1.79231)
(-0.027299 -0.0462567 1.76567)
(-0.0416532 -0.0416532 1.70823)
(-0.0503119 -0.0353313 1.6114)
(-0.0517986 -0.0276902 1.46113)
(0.0446688 -0.0336283 1.37277)
(0.0426979 -0.0426979 1.51643)
(0.0353312 -0.0503119 1.6114)
(0.0231311 -0.0559158 1.66956)
(0.00803989 -0.0588653 1.69719)
(-0.00803994 -0.0588653 1.69719)
(-0.0231312 -0.0559158 1.66956)
(-0.0353313 -0.0503119 1.6114)
(-0.0426979 -0.0426979 1.51643)
(-0.0446689 -0.0336283 1.37277)
(0.0360899 -0.0360899 1.25175)
(0.0336283 -0.0446689 1.37277)
(0.0276902 -0.0517986 1.46113)
(0.0181184 -0.0572661 1.51896)
(0.00631414 -0.0601138 1.54744)
(-0.00631418 -0.0601138 1.54744)
(-0.0181184 -0.0572661 1.51896)
(-0.0276902 -0.0517986 1.46113)
(-0.0336283 -0.0446689 1.37277)
(-0.0360899 -0.0360899 1.25175)
(0.0166491 0.0166491 1.06127)
(0.0154531 0.0207094 1.19285)
(0.0130307 0.024303 1.29433)
(0.00865242 0.0271018 1.36338)
(0.00303254 0.0285983 1.39822)
(-0.00303259 0.0285983 1.39822)
(-0.00865247 0.0271019 1.36338)
(-0.0130307 0.024303 1.29433)
(-0.0154531 0.0207094 1.19285)
(-0.0166491 0.0166491 1.06127)
(0.0207094 0.015453 1.19285)
(0.0201042 0.0201042 1.35772)
(0.0171064 0.0241373 1.47507)
(0.011442 0.0272007 1.55106)
(0.00401677 0.0288494 1.58844)
(-0.00401685 0.0288494 1.58844)
(-0.0114421 0.0272007 1.55106)
(-0.0171065 0.0241373 1.47507)
(-0.0201042 0.0201042 1.35772)
(-0.0207095 0.0154531 1.19285)
(0.024303 0.0130307 1.29433)
(0.0241373 0.0171064 1.47507)
(0.0206561 0.0206561 1.60188)
(0.0138682 0.0233098 1.68246)
(0.00487589 0.0247333 1.72158)
(-0.004876 0.0247333 1.72158)
(-0.0138683 0.0233099 1.68246)
(-0.0206562 0.0206561 1.60188)
(-0.0241374 0.0171064 1.47507)
(-0.024303 0.0130307 1.29433)
(0.0271018 0.00865242 1.36338)
(0.0272007 0.011442 1.55106)
(0.0233098 0.0138682 1.68246)
(0.0156667 0.0156667 1.76537)
(0.00551145 0.0166273 1.80537)
(-0.00551157 0.0166273 1.80537)
(-0.0156668 0.0156667 1.76537)
(-0.0233099 0.0138682 1.68246)
(-0.0272008 0.0114421 1.55106)
(-0.0271019 0.00865243 1.36338)
(0.0285983 0.00303254 1.39822)
(0.0288494 0.00401677 1.58844)
(0.0247333 0.00487589 1.72158)
(0.0166273 0.00551145 1.80537)
(0.00585043 0.00585043 1.8457)
(-0.00585057 0.00585043 1.8457)
(-0.0166274 0.00551145 1.80537)
(-0.0247334 0.0048759 1.72158)
(-0.0288494 0.00401678 1.58844)
(-0.0285983 0.00303255 1.39822)
(0.0285983 -0.00303259 1.39822)
(0.0288494 -0.00401685 1.58844)
(0.0247333 -0.004876 1.72158)
(0.0166273 -0.00551157 1.80537)
(0.00585043 -0.00585057 1.8457)
(-0.00585057 -0.00585056 1.8457)
(-0.0166274 -0.00551157 1.80537)
(-0.0247334 -0.004876 1.72158)
(-0.0288494 -0.00401685 1.58844)
(-0.0285983 -0.00303259 1.39822)
(0.0271019 -0.00865247 1.36338)
(0.0272007 -0.0114421 1.55106)
(0.0233099 -0.0138683 1.68246)
(0.0156667 -0.0156668 1.76537)
(0.00551145 -0.0166274 1.80537)
(-0.00551157 -0.0166274 1.80537)
(-0.0156668 -0.0156668 1.76537)
(-0.0233099 -0.0138683 1.68246)
(-0.0272008 -0.0114421 1.55106)
(-0.0271019 -0.00865247 1.36338)
(0.024303 -0.0130307 1.29433)
(0.0241373 -0.0171065 1.47507)
(0.0206561 -0.0206562 1.60188)
(0.0138682 -0.0233099 1.68246)
(0.0048759 -0.0247334 1.72158)
(-0.004876 -0.0247334 1.72158)
(-0.0138683 -0.0233099 1.68246)
(-0.0206562 -0.0206562 1.60188)
(-0.0241374 -0.0171065 1.47507)
(-0.024303 -0.0130307 1.29433)
(0.0207094 -0.0154531 1.19285)
(0.0201042 -0.0201042 1.35772)
(0.0171064 -0.0241374 1.47507)
(0.0114421 -0.0272008 1.55106)
(0.00401678 -0.0288494 1.58844)
(-0.00401685 -0.0288494 1.58844)
(-0.0114421 -0.0272008 1.55106)
(-0.0171065 -0.0241374 1.47507)
(-0.0201042 -0.0201042 1.35772)
(-0.0207095 -0.0154531 1.19285)
(0.0166491 -0.0166491 1.06127)
(0.0154531 -0.0207095 1.19285)
(0.0130307 -0.024303 1.29433)
(0.00865243 -0.0271019 1.36338)
(0.00303255 -0.0285983 1.39822)
(-0.00303259 -0.0285983 1.39822)
(-0.00865247 -0.0271019 1.36338)
(-0.0130307 -0.024303 1.29433)
(-0.0154531 -0.0207095 1.19285)
(-0.0166491 -0.0166491 1.06127)
(0.00246538 0.00246537 1.16383)
(0.00298235 0.00361627 1.30663)
(0.0027326 0.00466853 1.41751)
(0.00192284 0.00552004 1.49343)
(0.000692794 0.00598974 1.5319)
(-0.000692785 0.00598974 1.5319)
(-0.00192283 0.00552006 1.49343)
(-0.00273259 0.00466855 1.41751)
(-0.00298235 0.0036163 1.30663)
(-0.00246537 0.0024654 1.16383)
(0.00361627 0.00298235 1.30663)
(0.00441545 0.00441545 1.48676)
(0.00407711 0.00574328 1.61652)
(0.00287063 0.00678875 1.70152)
(0.00103412 0.00736656 1.74367)
(-0.00103413 0.00736656 1.74367)
(-0.00287064 0.00678877 1.70152)
(-0.00407712 0.0057433 1.61652)
(-0.00441546 0.00441547 1.48676)
(-0.00361628 0.00298237 1.30663)
(0.00466854 0.0027326 1.41751)
(0.00574328 0.0040771 1.61652)
(0.00531534 0.00531534 1.75851)
(0.0037437 0.00628726 1.85016)
(0.00134849 0.00682327 1.89515)
(-0.00134853 0.00682327 1.89515)
(-0.00374374 0.00628727 1.85016)
(-0.00531537 0.00531536 1.75851)
(-0.0057433 0.00407712 1.61652)
(-0.00466855 0.00273262 1.41751)
(0.00552004 0.00192284 1.49343)
(0.00678875 0.00287063 1.70152)
(0.00628726 0.0037437 1.85016)
(0.00443132 0.00443132 1.94574)
(0.00159657 0.00481078 1.99248)
(-0.00159663 0.00481079 1.99248)
(-0.00443138 0.00443133 1.94574)
(-0.0062873 0.00374371 1.85016)
(-0.00678879 0.00287064 1.70152)
(-0.00552007 0.00192285 1.49343)
(0.00598974 0.000692791 1.5319)
(0.00736656 0.00103412 1.74367)
(0.00682327 0.00134848 1.89515)
(0.00481078 0.00159657 1.99248)
(0.00173341 0.00173341 2.04002)
(-0.00173348 0.00173341 2.04002)
(-0.00481085 0.00159657 1.99248)
(-0.00682333 0.00134849 1.89515)
(-0.0073666 0.00103412 1.74367)
(-0.00598977 0.000692798 1.5319)
(0.00598974 -0.000692788 1.5319)
(0.00736656 -0.00103414 1.74367)
(0.00682327 -0.00134853 1.89515)
(0.00481078 -0.00159663 1.99248)
(0.00173341 -0.00173348 2.04002)
(-0.00173348 -0.00173348 2.04002)
(-0.00481085 -0.00159663 1.99248)
(-0.00682333 -0.00134853 1.89515)
(-0.0073666 -0.00103414 1.74367)
(-0.00598977 -0.000692789 1.5319)
(0.00552005 -0.00192283 1.49343)
(0.00678876 -0.00287064 1.70152)
(0.00628727 -0.00374374 1.85016)
(0.00443133 -0.00443138 1.94574)
(0.00159657 -0.00481085 1.99248)
(-0.00159663 -0.00481085 1.99248)
(-0.00443139 -0.00443139 1.94574)
(-0.00628731 -0.00374375 1.85016)
(-0.0067888 -0.00287065 1.70152)
(-0.00552008 -0.00192284 1.49343)
(0.00466855 -0.0027326 1.41751)
(0.00574329 -0.00407712 1.61652)
(0.00531536 -0.00531537 1.75851)
(0.00374371 -0.0062873 1.85016)
(0.00134849 -0.00682333 1.89515)
(-0.00134853 -0.00682333 1.89515)
(-0.00374375 -0.00628731 1.85016)
(-0.00531539 -0.00531539 1.75851)
(-0.00574332 -0.00407713 1.61652)
(-0.00466857 -0.00273261 1.41751)
(0.00361629 -0.00298235 1.30663)
(0.00441547 -0.00441546 1.48676)
(0.00407712 -0.0057433 1.61652)
(0.00287064 -0.00678879 1.70152)
(0.00103412 -0.0073666 1.74367)
(-0.00103414 -0.0073666 1.74367)
(-0.00287066 -0.0067888 1.70152)
(-0.00407714 -0.00574332 1.61652)
(-0.00441548 -0.00441547 1.48676)
(-0.0036163 -0.00298237 1.30663)
(0.0024654 -0.00246537 1.16383)
(0.00298237 -0.00361628 1.30663)
(0.00273262 -0.00466855 1.41751)
(0.00192285 -0.00552007 1.49343)
(0.000692794 -0.00598977 1.5319)
(-0.000692793 -0.00598977 1.5319)
(-0.00192285 -0.00552008 1.49343)
(-0.00273261 -0.00466857 1.41751)
(-0.00298237 -0.0036163 1.30663)
(-0.00246539 -0.00246539 1.16383)
(0.00271581 0.00271581 1.07333)
(0.00226957 0.00320945 1.21256)
(0.00193596 0.00370524 1.32206)
(0.00127182 0.00409963 1.39774)
(0.000446625 0.00431032 1.43631)
(-0.000446559 0.00431032 1.43631)
(-0.00127176 0.00409964 1.39774)
(-0.0019359 0.00370526 1.32206)
(-0.00226952 0.00320947 1.21256)
(-0.00271578 0.00271582 1.07333)
(0.00320945 0.00226957 1.21256)
(0.0028855 0.0028855 1.39025)
(0.00250318 0.00345169 1.52035)
(0.00168166 0.00390613 1.60662)
(0.000593187 0.00415468 1.64972)
(-0.00059312 0.00415469 1.64972)
(-0.0016816 0.00390614 1.60662)
(-0.00250312 0.00345171 1.52035)
(-0.00288545 0.00288552 1.39025)
(-0.00320942 0.00226959 1.21256)
(0.00370524 0.00193596 1.32206)
(0.0034517 0.00250317 1.52035)
(0.00303691 0.00303691 1.66439)
(0.00206482 0.00345351 1.75872)
(0.000731384 0.00368228 1.80545)
(-0.000731322 0.00368229 1.80545)
(-0.00206476 0.00345352 1.75872)
(-0.00303686 0.00303693 1.66439)
(-0.00345165 0.00250319 1.52035)
(-0.00370521 0.00193597 1.32206)
(0.00409963 0.00127181 1.39774)
(0.00390613 0.00168166 1.60662)
(0.00345351 0.00206482 1.75872)
(0.00236084 0.00236084 1.85809)
(0.000838579 0.00252364 1.90716)
(-0.000838523 0.00252364 1.90716)
(-0.00236079 0.00236085 1.85809)
(-0.00345347 0.00206483 1.75872)
(-0.00390609 0.00168167 1.60662)
(-0.0040996 0.00127183 1.39774)
(0.00431032 0.000446621 1.43631)
(0.00415468 0.000593183 1.64972)
(0.00368228 0.000731381 1.80545)
(0.00252364 0.000838577 1.90716)
(0.000897567 0.000897567 1.95737)
(-0.000897516 0.000897568 1.95737)
(-0.00252359 0.000838581 1.90716)
(-0.00368224 0.000731387 1.80545)
(-0.00415465 0.000593189 1.64972)
(-0.00431029 0.000446627 1.43631)
(0.00431032 -0.000446563 1.43631)
(0.00415469 -0.000593124 1.64972)
(0.00368229 -0.000731325 1.80545)
(0.00252364 -0.000838524 1.90716)
(0.000897566 -0.000897516 1.95737)
(-0.000897518 -0.000897516 1.95737)
(-0.00252359 -0.000838524 1.90716)
(-0.00368224 -0.000731325 1.80545)
(-0.00415465 -0.000593124 1.64972)
(-0.00431029 -0.000446564 1.43631)
(0.00409964 -0.00127176 1.39774)
(0.00390614 -0.0016816 1.60662)
(0.00345352 -0.00206477 1.75872)
(0.00236084 -0.00236079 1.85809)
(0.000838578 -0.00252359 1.90716)
(-0.000838527 -0.00252359 1.90716)
(-0.0023608 -0.00236079 1.85809)
(-0.00345348 -0.00206477 1.75872)
(-0.0039061 -0.00168161 1.60662)
(-0.00409961 -0.00127177 1.39774)
(0.00370525 -0.00193591 1.32206)
(0.00345171 -0.00250313 1.52035)
(0.00303692 -0.00303687 1.66439)
(0.00206483 -0.00345347 1.75872)
(0.000731383 -0.00368224 1.80545)
(-0.000731329 -0.00368224 1.80545)
(-0.00206478 -0.00345347 1.75872)
(-0.00303688 -0.00303687 1.66439)
(-0.00345167 -0.00250314 1.52035)
(-0.00370523 -0.00193592 1.32206)
(0.00320946 -0.00226953 1.21256)
(0.00288551 -0.00288546 1.39025)
(0.00250319 -0.00345165 1.52035)
(0.00168167 -0.00390609 1.60662)
(0.000593185 -0.00415465 1.64972)
(-0.000593129 -0.00415465 1.64972)
(-0.00168161 -0.0039061 1.60662)
(-0.00250314 -0.00345167 1.52035)
(-0.00288547 -0.00288547 1.39025)
(-0.00320943 -0.00226954 1.21256)
(0.00271582 -0.00271578 1.07333)
(0.00226958 -0.00320942 1.21256)
(0.00193597 -0.00370521 1.32206)
(0.00127182 -0.0040996 1.39774)
(0.000446622 -0.00431029 1.43631)
(-0.000446569 -0.00431029 1.43631)
(-0.00127177 -0.00409961 1.39774)
(-0.00193592 -0.00370522 1.32206)
(-0.00226954 -0.00320943 1.21256)
(-0.00271579 -0.00271579 1.07333)
(-0.000804759 -0.000804762 1.13358)
(-0.000406825 -0.000707611 1.27667)
(-0.000312869 -0.000717103 1.38878)
(-0.000144089 -0.000674306 1.46608)
(-5.6392e-05 -0.00065816 1.50544)
(5.64676e-05 -0.000658161 1.50544)
(0.000144162 -0.000674301 1.46608)
(0.000312932 -0.000717098 1.38878)
(0.000406876 -0.000707604 1.27667)
(0.000804799 -0.00080476 1.13358)
(-0.000707606 -0.000406829 1.27667)
(-0.000280218 -0.000280223 1.45865)
(-0.000192316 -0.000232954 1.59142)
(-4.57541e-05 -0.00014623 1.67929)
(-2.42905e-05 -0.000110133 1.72316)
(2.43882e-05 -0.000110129 1.72316)
(4.58474e-05 -0.000146228 1.67929)
(0.000192395 -0.000232945 1.59142)
(0.000280284 -0.000280218 1.45865)
(0.000707658 -0.000406822 1.27667)
(-0.000717099 -0.000312875 1.38878)
(-0.00023295 -0.000192322 1.59142)
(-0.000147242 -0.000147247 1.7382)
(-2.49014e-07 -5.83563e-05 1.83421)
(-1.02918e-05 -2.46597e-05 1.88177)
(1.04045e-05 -2.4662e-05 1.88177)
(3.57563e-07 -5.83413e-05 1.83421)
(0.000147336 -0.000147245 1.7382)
(0.000233024 -0.000192315 1.59142)
(0.000717156 -0.000312867 1.38878)
(-0.000674303 -0.000144094 1.46608)
(-0.000146227 -4.57603e-05 1.67929)
(-5.83526e-05 -2.54104e-07 1.83421)
(7.43955e-05 7.43913e-05 1.93536)
(1.06686e-05 0.000106331 1.98533)
(-1.05383e-05 0.000106327 1.98533)
(-7.42786e-05 7.44063e-05 1.93536)
(5.84431e-05 -2.51535e-07 1.83421)
(0.000146315 -4.5754e-05 1.67929)
(0.000674365 -0.000144087 1.46608)
(-0.000658159 -5.63979e-05 1.50544)
(-0.000110131 -2.42969e-05 1.72316)
(-2.46581e-05 -1.02972e-05 1.88177)
(0.000106333 1.06644e-05 1.98533)
(2.33792e-05 2.33769e-05 2.03648)
(-2.32468e-05 2.33787e-05 2.03648)
(-0.000106209 1.06656e-05 1.98533)
(2.47531e-05 -1.02889e-05 1.88177)
(0.000110221 -2.4292e-05 1.72316)
(0.000658222 -5.6392e-05 1.50544)
(-0.00065816 5.64616e-05 1.50544)
(-0.000110129 2.43818e-05 1.72316)
(-2.46618e-05 1.03991e-05 1.88177)
(0.000106328 -1.05426e-05 1.98533)
(2.3379e-05 -2.32491e-05 2.03648)
(-2.32485e-05 -2.32489e-05 2.03648)
(-0.000106206 -1.05377e-05 1.98533)
(2.47555e-05 1.03992e-05 1.88177)
(0.000110217 2.43867e-05 1.72316)
(0.000658223 5.64644e-05 1.50544)
(-0.000674302 0.000144156 1.46608)
(-0.000146229 4.58412e-05 1.67929)
(-5.83432e-05 3.5236e-07 1.83421)
(7.44042e-05 -7.42828e-05 1.93536)
(1.06639e-05 -0.000106212 1.98533)
(-1.05393e-05 -0.000106206 1.98533)
(-7.4293e-05 -7.42914e-05 1.93536)
(5.84289e-05 3.57953e-07 1.83421)
(0.000146315 4.58447e-05 1.67929)
(0.000674361 0.000144158 1.46608)
(-0.0007171 0.000312926 1.38878)
(-0.000232948 0.00019239 1.59142)
(-0.000147248 0.000147331 1.7382)
(-2.54622e-07 5.84396e-05 1.83421)
(-1.02921e-05 2.47512e-05 1.88177)
(1.03962e-05 2.47552e-05 1.88177)
(3.55111e-07 5.84303e-05 1.83421)
(0.000147335 0.000147337 1.7382)
(0.000233017 0.000192392 1.59142)
(0.000717152 0.000312927 1.38878)
(-0.000707607 0.00040687 1.27667)
(-0.000280221 0.000280279 1.45865)
(-0.000192319 0.000233021 1.59142)
(-4.57585e-05 0.000146312 1.67929)
(-2.42964e-05 0.000110219 1.72316)
(2.43824e-05 0.000110217 1.72316)
(4.58406e-05 0.000146316 1.67929)
(0.000192389 0.000233019 1.59142)
(0.00028028 0.000280283 1.45865)
(0.000707653 0.000406871 1.27667)
(-0.000804761 0.000804792 1.13358)
(-0.000406825 0.000707656 1.27667)
(-0.000312871 0.000717153 1.38878)
(-0.000144092 0.000674363 1.46608)
(-5.63965e-05 0.000658221 1.50544)
(5.64601e-05 0.000658223 1.50544)
(0.000144153 0.000674362 1.46608)
(0.000312923 0.000717153 1.38878)
(0.000406867 0.000707655 1.27667)
(0.000804794 0.000804797 1.13358)
(0.00105848 0.00105848 1.08939)
(0.000760869 0.00116341 1.23017)
(0.000623716 0.00128668 1.34099)
(0.000385633 0.00137706 1.41763)
(0.000133304 0.00142089 1.45673)
(-0.000133269 0.00142089 1.45673)
(-0.000385601 0.00137706 1.41763)
(-0.000623689 0.00128667 1.34099)
(-0.000760847 0.0011634 1.23017)
(-0.00105847 0.00105847 1.08939)
(0.00116341 0.000760865 1.23017)
(0.000874378 0.000874374 1.40993)
(0.000722676 0.000983652 1.5418)
(0.000457825 0.00106975 1.62939)
(0.000156988 0.00111313 1.67322)
(-0.00015693 0.00111313 1.67322)
(-0.00045777 0.00106975 1.62939)
(-0.00072263 0.000983647 1.5418)
(-0.000874342 0.000874367 1.40993)
(-0.00116338 0.000760857 1.23017)
(0.00128668 0.000623711 1.34099)
(0.000983657 0.000722671 1.5418)
(0.000824525 0.000824519 1.6881)
(0.00052847 0.000898027 1.78416)
(0.000181812 0.000936336 1.83186)
(-0.000181731 0.000936335 1.83186)
(-0.000528394 0.000898026 1.78416)
(-0.000824461 0.000824517 1.6881)
(-0.000983605 0.000722667 1.5418)
(-0.00128664 0.000623707 1.34099)
(0.00137707 0.000385628 1.41763)
(0.00106976 0.000457818 1.62939)
(0.000898033 0.000528463 1.78416)
(0.000579078 0.000579072 1.8856)
(0.000199257 0.000605067 1.93586)
(-0.000199159 0.000605067 1.93586)
(-0.000578986 0.000579073 1.8856)
(-0.000897955 0.000528464 1.78416)
(-0.0010697 0.000457817 1.62939)
(-0.00137702 0.000385627 1.41763)
(0.00142089 0.000133298 1.45673)
(0.00111313 0.000156981 1.67322)
(0.00093634 0.000181805 1.83186)
(0.000605071 0.00019925 1.93586)
(0.000208324 0.000208318 1.98736)
(-0.000208217 0.000208319 1.98736)
(-0.000604971 0.000199253 1.93586)
(-0.000936255 0.000181809 1.83186)
(-0.00111306 0.000156984 1.67322)
(-0.00142084 0.000133301 1.45673)
(0.00142089 -0.000133276 1.45673)
(0.00111313 -0.000156937 1.67322)
(0.000936338 -0.000181739 1.83186)
(0.00060507 -0.000199165 1.93586)
(0.000208323 -0.000208222 1.98736)
(-0.000208217 -0.000208221 1.98736)
(-0.000604971 -0.000199161 1.93586)
(-0.000936254 -0.000181733 1.83186)
(-0.00111306 -0.00015693 1.67322)
(-0.00142084 -0.000133269 1.45673)
(0.00137706 -0.000385607 1.41763)
(0.00106975 -0.000457777 1.62939)
(0.000898027 -0.000528401 1.78416)
(0.000579074 -0.000578993 1.8856)
(0.000199254 -0.000604977 1.93586)
(-0.00019916 -0.000604974 1.93586)
(-0.000578986 -0.000578987 1.8856)
(-0.000897953 -0.000528392 1.78416)
(-0.00106969 -0.000457766 1.62939)
(-0.00137702 -0.000385597 1.41763)
(0.00128667 -0.000623694 1.34099)
(0.000983647 -0.000722636 1.5418)
(0.000824516 -0.000824467 1.6881)
(0.000528463 -0.000897961 1.78416)
(0.000181808 -0.00093626 1.83186)
(-0.000181733 -0.000936257 1.83186)
(-0.000528393 -0.000897954 1.78416)
(-0.000824457 -0.000824456 1.6881)
(-0.000983599 -0.000722623 1.5418)
(-0.00128664 -0.000623681 1.34099)
(0.0011634 -0.000760852 1.23017)
(0.000874365 -0.000874347 1.40993)
(0.000722665 -0.000983611 1.5418)
(0.000457815 -0.0010697 1.62939)
(0.000156982 -0.00111306 1.67322)
(-0.000156932 -0.00111306 1.67322)
(-0.000457768 -0.00106969 1.62939)
(-0.000722625 -0.000983599 1.5418)
(-0.000874333 -0.000874332 1.40993)
(-0.00116337 -0.000760837 1.23017)
(0.00105847 -0.00105847 1.08939)
(0.000760855 -0.00116339 1.23017)
(0.000623704 -0.00128665 1.34099)
(0.000385624 -0.00137703 1.41763)
(0.000133298 -0.00142085 1.45673)
(-0.000133272 -0.00142084 1.45673)
(-0.0003856 -0.00137702 1.41763)
(-0.000623684 -0.00128663 1.34099)
(-0.000760839 -0.00116337 1.23017)
(-0.00105846 -0.00105846 1.08939)
(-0.000706039 -0.000706037 1.11968)
(-0.00047744 -0.000754004 1.26214)
(-0.000382338 -0.000819682 1.37395)
(-0.000227177 -0.000861874 1.45114)
(-7.86451e-05 -0.00088084 1.49048)
(7.86199e-05 -0.000880842 1.49048)
(0.000227152 -0.000861881 1.45114)
(0.000382316 -0.000819692 1.37395)
(0.000477421 -0.000754017 1.26214)
(0.000706024 -0.000706051 1.11968)
(-0.000754005 -0.000477439 1.26214)
(-0.000516007 -0.000516007 1.4436)
(-0.000411597 -0.000559462 1.57628)
(-0.000246649 -0.000588367 1.66425)
(-8.37689e-05 -0.000601384 1.70822)
(8.37513e-05 -0.000601387 1.70822)
(0.000246632 -0.000588374 1.66425)
(0.000411581 -0.000559473 1.57628)
(0.000515993 -0.000516019 1.4436)
(0.000753994 -0.000477453 1.26214)
(-0.000819682 -0.000382337 1.37395)
(-0.000559462 -0.000411597 1.57628)
(-0.000450274 -0.000450274 1.72322)
(-0.000270193 -0.000470963 1.81953)
(-9.18674e-05 -0.000481071 1.86729)
(9.1861e-05 -0.000481073 1.86729)
(0.000270186 -0.000470968 1.81953)
(0.000450267 -0.000450282 1.72322)
(0.000559454 -0.000411607 1.57628)
(0.000819676 -0.000382348 1.37395)
(-0.000861874 -0.000227176 1.45114)
(-0.000588367 -0.000246649 1.66425)
(-0.000470962 -0.000270193 1.81953)
(-0.000281745 -0.000281746 1.92114)
(-9.5405e-05 -0.000286945 1.97142)
(9.5409e-05 -0.000286946 1.97142)
(0.000281748 -0.000281749 1.92114)
(0.000470963 -0.000270198 1.81953)
(0.000588366 -0.000246655 1.66425)
(0.000861872 -0.000227182 1.45114)
(-0.00088084 -7.86445e-05 1.49048)
(-0.000601383 -8.37692e-05 1.70822)
(-0.00048107 -9.18685e-05 1.86729)
(-0.000286944 -9.54067e-05 1.97142)
(-9.71198e-05 -9.71214e-05 2.02292)
(9.71303e-05 -9.71212e-05 2.02292)
(0.000286953 -9.54063e-05 1.97142)
(0.000481077 -9.18684e-05 1.86729)
(0.000601387 -8.377e-05 1.70822)
(0.000880841 -7.86461e-05 1.49048)
(-0.000880842 7.86203e-05 1.49048)
(-0.000601386 8.37507e-05 1.70822)
(-0.000481072 9.18596e-05 1.86729)
(-0.000286945 9.54072e-05 1.97142)
(-9.71199e-05 9.71285e-05 2.02292)
(9.71311e-05 9.71298e-05 2.02292)
(0.000286954 9.54107e-05 1.97142)
(0.000481079 9.18643e-05 1.86729)
(0.00060139 8.37555e-05 1.70822)
(0.000880844 7.86239e-05 1.49048)
(-0.000861881 0.000227152 1.45114)
(-0.000588374 0.000246631 1.66425)
(-0.000470968 0.000270184 1.81953)
(-0.000281748 0.000281746 1.92114)
(-9.54056e-05 0.000286951 1.97142)
(9.54113e-05 0.000286953 1.97142)
(0.000281753 0.000281752 1.92114)
(0.00047097 0.000270193 1.81953)
(0.000588375 0.000246641 1.66425)
(0.000861881 0.000227161 1.45114)
(-0.000819691 0.000382316 1.37395)
(-0.000559472 0.000411581 1.57628)
(-0.000450282 0.000450265 1.72322)
(-0.000270197 0.000470962 1.81953)
(-9.18683e-05 0.000481075 1.86729)
(9.18642e-05 0.000481078 1.86729)
(0.000270193 0.00047097 1.81953)
(0.000450277 0.000450277 1.72322)
(0.000559467 0.000411594 1.57628)
(0.000819688 0.000382328 1.37395)
(-0.000754016 0.000477421 1.26214)
(-0.000516019 0.000515992 1.4436)
(-0.000411607 0.000559453 1.57628)
(-0.000246655 0.000588365 1.66425)
(-8.37704e-05 0.000601386 1.70822)
(8.37549e-05 0.000601389 1.70822)
(0.00024664 0.000588374 1.66425)
(0.000411593 0.000559467 1.57628)
(0.000516007 0.000516008 1.4436)
(0.000754008 0.000477436 1.26214)
(-0.00070605 0.000706024 1.11968)
(-0.000477452 0.000753993 1.26214)
(-0.000382347 0.000819675 1.37395)
(-0.000227183 0.000861872 1.45114)
(-7.86466e-05 0.000880841 1.49048)
(7.86232e-05 0.000880843 1.49048)
(0.00022716 0.00086188 1.45114)
(0.000382327 0.000819688 1.37395)
(0.000477435 0.000754008 1.26214)
(0.000706038 0.000706038 1.11968)
(0.000558037 0.000558041 1.09884)
(0.000392651 0.000611766 1.2402)
(0.000315013 0.000671783 1.35139)
(0.00019068 0.000713143 1.42827)
(6.58834e-05 0.000732586 1.46747)
(-6.59341e-05 0.000732585 1.46747)
(-0.000190729 0.00071314 1.42827)
(-0.000315056 0.000671778 1.35139)
(-0.000392686 0.00061176 1.2402)
(-0.000558064 0.000558035 1.09884)
(0.000611762 0.000392656 1.2402)
(0.00043935 0.000439356 1.42061)
(0.000351742 0.000484335 1.55283)
(0.000216608 0.000517889 1.64063)
(7.38012e-05 0.000533932 1.68456)
(-7.3863e-05 0.000533931 1.68456)
(-0.000216667 0.000517885 1.64063)
(-0.000351793 0.000484329 1.55283)
(-0.000439393 0.000439349 1.42061)
(-0.000611795 0.000392648 1.2402)
(0.000671779 0.000315019 1.35139)
(0.00048433 0.000351748 1.55283)
(0.000392349 0.000392355 1.69948)
(0.000243032 0.000418512 1.79574)
(8.29367e-05 0.000431714 1.84353)
(-8.30051e-05 0.000431713 1.84353)
(-0.000243097 0.000418509 1.79574)
(-0.000392406 0.000392349 1.69948)
(-0.000484378 0.000351741 1.55283)
(-0.000671814 0.000315012 1.35139)
(0.00071314 0.000190687 1.42827)
(0.000517885 0.000216615 1.64063)
(0.000418507 0.000243039 1.79574)
(0.000259614 0.00025962 1.8974)
(8.84594e-05 0.000267704 1.94775)
(-8.85305e-05 0.000267703 1.94775)
(-0.000259682 0.000259617 1.8974)
(-0.000418566 0.000243034 1.79574)
(-0.000517934 0.000216609 1.64063)
(-0.000713177 0.00019068 1.42827)
(0.000732584 6.58898e-05 1.46747)
(0.000533929 7.3808e-05 1.68456)
(0.00043171 8.29432e-05 1.84353)
(0.0002677 8.84652e-05 1.94775)
(9.11743e-05 9.1179e-05 1.99934)
(-9.1245e-05 9.11786e-05 1.99934)
(-0.000267767 8.84641e-05 1.94775)
(-0.000431768 8.2941e-05 1.84353)
(-0.000533978 7.38045e-05 1.68456)
(-0.00073262 6.58853e-05 1.46747)
(0.000732584 -6.59277e-05 1.46747)
(0.000533929 -7.38562e-05 1.68456)
(0.00043171 -8.29986e-05 1.84353)
(0.0002677 -8.85248e-05 1.94775)
(9.11752e-05 -9.12403e-05 1.99934)
(-9.12435e-05 -9.124e-05 1.99934)
(-0.000267765 -8.85243e-05 1.94775)
(-0.000431766 -8.29986e-05 1.84353)
(-0.000533975 -7.38573e-05 1.68456)
(-0.000732618 -6.59299e-05 1.46747)
(0.000713139 -0.000190723 1.42827)
(0.000517884 -0.00021666 1.64063)
(0.000418507 -0.000243091 1.79574)
(0.000259615 -0.000259676 1.8974)
(8.84619e-05 -0.000267762 1.94775)
(-8.85265e-05 -0.000267761 1.94775)
(-0.000259676 -0.000259674 1.8974)
(-0.00041856 -0.000243089 1.79574)
(-0.000517927 -0.000216659 1.64063)
(-0.000713171 -0.000190723 1.42827)
(0.000671778 -0.00031505 1.35139)
(0.000484329 -0.000351787 1.55283)
(0.000392349 -0.0003924 1.69948)
(0.000243034 -0.000418561 1.79574)
(8.29402e-05 -0.000431764 1.84353)
(-8.29995e-05 -0.000431763 1.84353)
(-0.00024309 -0.000418558 1.79574)
(-0.000392397 -0.000392397 1.69948)
(-0.000484369 -0.000351785 1.55283)
(-0.000671807 -0.000315048 1.35139)
(0.000611761 -0.000392681 1.2402)
(0.00043935 -0.000439388 1.42061)
(0.000351742 -0.000484373 1.55283)
(0.00021661 -0.00051793 1.64063)
(7.38049e-05 -0.000533974 1.68456)
(-7.3857e-05 -0.000533973 1.68456)