/*--------------------------------*- C++ -*----------------------------------*\
| =========                 |                                                 |
| \\      /  F ield         | OpenFOAM: The Open Source CFD Toolbox           |
|  \\    /   O peration     | Version:  2406                                  |
|   \\  /    A nd           | Website:  www.openfoam.com                      |
|    \\/     M anipulation  |                                                 |
\*---------------------------------------------------------------------------*/
FoamFile
{
    version     2.0;
    format      ascii;
    arch        "LSB;label=32;scalar=64";
    class       surfaceScalarField;
    location    "1.6";
    object      phi;
}
// * * * * * * * * * * * * * * * * * * * * * * * * * * * * * * * * * * * * * //

dimensions      [0 3 -1 0 0 0 0];

oriented        oriented;

internalField   nonuniform List<scalar> 
73500
(
6.10426e-05
6.10426e-05
5.55894e-05
-6.53364e-05
-6.53364e-05
5.08706e-05
6.37478e-05
6.50943e-05
-6.77317e-05
3.64436e-05
6.55623e-05
7.25541e-05
-6.97464e-05
1.90033e-05
6.66902e-05
7.76908e-05
-7.09694e-05
4.09676e-18
6.72292e-05
8.03014e-05
-7.15345e-05
-1.90033e-05
6.72292e-05
8.03014e-05
-7.15345e-05
-3.64436e-05
6.66902e-05
7.76908e-05
-7.09694e-05
-5.08706e-05
6.55623e-05
7.25541e-05
-6.97464e-05
-6.10426e-05
6.37478e-05
6.50943e-05
-6.77317e-05
6.10426e-05
5.55894e-05
-6.53364e-05
-6.53364e-05
6.37478e-05
5.08706e-05
6.50943e-05
-6.77317e-05
5.31831e-05
5.31831e-05
7.57136e-05
3.79691e-05
5.46094e-05
8.3536e-05
1.97316e-05
5.54751e-05
8.87022e-05
4.4066e-18
5.58889e-05
9.12692e-05
-1.97316e-05
5.58889e-05
9.12692e-05
-3.79691e-05
5.54751e-05
8.87022e-05
-5.31831e-05
5.46094e-05
8.3536e-05
-6.37478e-05
5.31831e-05
7.57136e-05
5.08706e-05
6.50943e-05
-6.77317e-05
6.55623e-05
3.64436e-05
7.25541e-05
-6.97464e-05
5.46094e-05
3.79691e-05
8.3536e-05
3.88895e-05
3.88895e-05
9.14271e-05
2.0168e-05
3.94393e-05
9.65135e-05
3.67798e-18
3.97042e-05
9.90004e-05
-2.0168e-05
3.97042e-05
9.90004e-05
-3.88895e-05
3.94393e-05
9.65135e-05
-5.46094e-05
3.88895e-05
9.14271e-05
-6.55623e-05
3.79691e-05
8.3536e-05
3.64436e-05
7.25541e-05
-6.97464e-05
6.66902e-05
1.90033e-05
7.76908e-05
-7.09694e-05
5.54751e-05
1.97316e-05
8.87022e-05
3.94393e-05
2.0168e-05
9.65135e-05
2.04244e-05
2.04244e-05
0.00010148
2.80841e-18
2.05487e-05
0.000103884
-2.04244e-05
2.05487e-05
0.000103884
-3.94393e-05
2.04244e-05
0.00010148
-5.54751e-05
2.0168e-05
9.65135e-05
-6.66902e-05
1.97316e-05
8.87022e-05
1.90033e-05
7.76908e-05
-7.09694e-05
6.72292e-05
-1.04037e-19
8.03014e-05
-7.15345e-05
5.58889e-05
-1.85237e-19
9.12692e-05
3.97042e-05
-1.36646e-18
9.90004e-05
2.05487e-05
-8.11202e-20
0.000103884
2.87576e-18
-8.98374e-19
0.000106237
-2.05487e-05
-5.56436e-19
0.000106237
-3.97042e-05
1.26132e-19
0.000103884
-5.58889e-05
4.12707e-20
9.90004e-05
-6.72292e-05
-1.11693e-18
9.12692e-05
-2.68201e-19
8.03014e-05
-7.15345e-05
6.72292e-05
-1.90033e-05
8.03014e-05
-7.15345e-05
5.58889e-05
-1.97316e-05
9.12692e-05
3.97042e-05
-2.0168e-05
9.90004e-05
2.05487e-05
-2.04244e-05
0.000103884
3.09529e-18
-2.05487e-05
0.000106237
-2.05487e-05
-2.05487e-05
0.000106237
-3.97042e-05
-2.04244e-05
0.000103884
-5.58889e-05
-2.0168e-05
9.90004e-05
-6.72292e-05
-1.97316e-05
9.12692e-05
-1.90033e-05
8.03014e-05
-7.15345e-05
6.66902e-05
-3.64436e-05
7.76908e-05
-7.09694e-05
5.54751e-05
-3.79691e-05
8.87022e-05
3.94393e-05
-3.88895e-05
9.65135e-05
2.04244e-05
-3.94393e-05
0.00010148
3.32602e-18
-3.97042e-05
0.000103884
-2.04244e-05
-3.97042e-05
0.000103884
-3.94393e-05
-3.94393e-05
0.00010148
-5.54751e-05
-3.88895e-05
9.65135e-05
-6.66902e-05
-3.79691e-05
8.87022e-05
-3.64436e-05
7.76908e-05
-7.09694e-05
6.55623e-05
-5.08706e-05
7.25541e-05
-6.97464e-05
5.46094e-05
-5.31831e-05
8.3536e-05
3.88895e-05
-5.46094e-05
9.14271e-05
2.0168e-05
-5.54751e-05
9.65135e-05
2.50524e-18
-5.58889e-05
9.90004e-05
-2.0168e-05
-5.58889e-05
9.90004e-05
-3.88895e-05
-5.54751e-05
9.65135e-05
-5.46094e-05
-5.46094e-05
9.14271e-05
-6.55623e-05
-5.31831e-05
8.3536e-05
-5.08706e-05
7.25541e-05
-6.97464e-05
6.37478e-05
-6.10426e-05
6.50943e-05
-6.77317e-05
5.31831e-05
-6.37478e-05
7.57136e-05
3.79691e-05
-6.55623e-05
8.3536e-05
1.97316e-05
-6.66902e-05
8.87022e-05
9.08432e-19
-6.72292e-05
9.12692e-05
-1.97316e-05
-6.72292e-05
9.12692e-05
-3.79691e-05
-6.66902e-05
8.87022e-05
-5.31831e-05
-6.55623e-05
8.3536e-05
-6.37478e-05
-6.37478e-05
7.57136e-05
-6.10426e-05
6.50943e-05
-6.77317e-05
6.10426e-05
5.55894e-05
-6.53364e-05
-6.53364e-05
5.08706e-05
6.50943e-05
-6.77317e-05
3.64436e-05
7.25541e-05
-6.97464e-05
1.90033e-05
7.76908e-05
-7.09694e-05
-5.63492e-19
8.03014e-05
-7.15345e-05
-1.90033e-05
8.03014e-05
-7.15345e-05
-3.64436e-05
7.76908e-05
-7.09694e-05
-5.08706e-05
7.25541e-05
-6.97464e-05
-6.10426e-05
6.50943e-05
-6.77317e-05
5.55894e-05
-6.53364e-05
-6.53364e-05
1.23627e-05
1.23627e-05
5.38145e-05
-1.14752e-05
-1.14752e-05
1.14118e-05
1.45383e-05
6.46956e-05
-1.31887e-05
8.72003e-06
1.61482e-05
7.36081e-05
-1.45105e-05
4.72344e-06
1.72651e-05
7.9911e-05
-1.54887e-05
2.08383e-18
1.7822e-05
8.31662e-05
-1.59633e-05
-4.72344e-06
1.7822e-05
8.31662e-05
-1.59633e-05
-8.72003e-06
1.72651e-05
7.9911e-05
-1.54887e-05
-1.14118e-05
1.61482e-05
7.36081e-05
-1.45105e-05
-1.23627e-05
1.45383e-05
6.46956e-05
-1.31887e-05
1.23627e-05
5.38145e-05
-1.14752e-05
-1.14752e-05
1.45383e-05
1.14118e-05
6.46956e-05
-1.31887e-05
1.35496e-05
1.35496e-05
7.7691e-05
1.03936e-05
1.51152e-05
8.77251e-05
5.6276e-06
1.61694e-05
9.45639e-05
1.91105e-18
1.66911e-05
9.80277e-05
-5.6276e-06
1.66911e-05
9.80277e-05
-1.03936e-05
1.61694e-05
9.45639e-05
-1.35496e-05
1.51152e-05
8.77251e-05
-1.45383e-05
1.35496e-05
7.7691e-05
1.14118e-05
6.46956e-05
-1.31887e-05
1.61482e-05
8.72003e-06
7.36081e-05
-1.45105e-05
1.51152e-05
1.03936e-05
8.77251e-05
1.16188e-05
1.16188e-05
9.84199e-05
6.2955e-06
1.24317e-05
0.000105575
2.29441e-18
1.28327e-05
0.000109154
-6.2955e-06
1.28327e-05
0.000109154
-1.16188e-05
1.24317e-05
0.000105575
-1.51152e-05
1.16188e-05
9.84199e-05
-1.61482e-05
1.03936e-05
8.77251e-05
8.72003e-06
7.36081e-05
-1.45105e-05
1.72651e-05
4.72344e-06
7.9911e-05
-1.54887e-05
1.61694e-05
5.6276e-06
9.45639e-05
1.24317e-05
6.2955e-06
0.000105575
6.73519e-06
6.73519e-06
0.000112873
3.53687e-18
6.95172e-06
0.0001165
-6.73519e-06
6.95172e-06
0.0001165
-1.24317e-05
6.73519e-06
0.000112873
-1.61694e-05
6.2955e-06
0.000105575
-1.72651e-05
5.6276e-06
9.45639e-05
4.72344e-06
7.9911e-05
-1.54887e-05
1.7822e-05
-1.10645e-18
8.31662e-05
-1.59633e-05
1.66911e-05
-1.29307e-18
9.80277e-05
1.28327e-05
-1.94835e-18
0.000109154
6.95172e-06
-2.12366e-18
0.0001165
3.46442e-18
-2.04885e-18
0.00012014
-6.95172e-06
-2.43293e-18
0.00012014
-1.28327e-05
-3.39926e-18
0.0001165
-1.66911e-05
-3.19822e-18
0.000109154
-1.7822e-05
-2.12542e-18
9.80277e-05
-1.50617e-18
8.31662e-05
-1.59633e-05
1.7822e-05
-4.72344e-06
8.31662e-05
-1.59633e-05
1.66911e-05
-5.6276e-06
9.80277e-05
1.28327e-05
-6.2955e-06
0.000109154
6.95172e-06
-6.73519e-06
0.0001165
2.99497e-18
-6.95172e-06
0.00012014
-6.95172e-06
-6.95172e-06
0.00012014
-1.28327e-05
-6.73519e-06
0.0001165
-1.66911e-05
-6.2955e-06
0.000109154
-1.7822e-05
-5.6276e-06
9.80277e-05
-4.72344e-06
8.31662e-05
-1.59633e-05
1.72651e-05
-8.72003e-06
7.9911e-05
-1.54887e-05
1.61694e-05
-1.03936e-05
9.45639e-05
1.24317e-05
-1.16188e-05
0.000105575
6.73519e-06
-1.24317e-05
0.000112873
3.13175e-18
-1.28327e-05
0.0001165
-6.73519e-06
-1.28327e-05
0.0001165
-1.24317e-05
-1.24317e-05
0.000112873
-1.61694e-05
-1.16188e-05
0.000105575
-1.72651e-05
-1.03936e-05
9.45639e-05
-8.72003e-06
7.9911e-05
-1.54887e-05
1.61482e-05
-1.14118e-05
7.36081e-05
-1.45105e-05
1.51152e-05
-1.35496e-05
8.77251e-05
1.16188e-05
-1.51152e-05
9.84199e-05
6.2955e-06
-1.61694e-05
0.000105575
2.9661e-18
-1.66911e-05
0.000109154
-6.2955e-06
-1.66911e-05
0.000109154
-1.16188e-05
-1.61694e-05
0.000105575
-1.51152e-05
-1.51152e-05
9.84199e-05
-1.61482e-05
-1.35496e-05
8.77251e-05
-1.14118e-05
7.36081e-05
-1.45105e-05
1.45383e-05
-1.23627e-05
6.46956e-05
-1.31887e-05
1.35496e-05
-1.45383e-05
7.7691e-05
1.03936e-05
-1.61482e-05
8.77251e-05
5.6276e-06
-1.72651e-05
9.45639e-05
1.9756e-18
-1.7822e-05
9.80277e-05
-5.6276e-06
-1.7822e-05
9.80277e-05
-1.03936e-05
-1.72651e-05
9.45639e-05
-1.35496e-05
-1.61482e-05
8.77251e-05
-1.45383e-05
-1.45383e-05
7.7691e-05
-1.23627e-05
6.46956e-05
-1.31887e-05
1.23627e-05
5.38145e-05
-1.14752e-05
-1.14752e-05
1.14118e-05
6.46956e-05
-1.31887e-05
8.72003e-06
7.36081e-05
-1.45105e-05
4.72344e-06
7.9911e-05
-1.54887e-05
1.16962e-18
8.31662e-05
-1.59633e-05
-4.72344e-06
8.31662e-05
-1.59633e-05
-8.72003e-06
7.9911e-05
-1.54887e-05
-1.14118e-05
7.36081e-05
-1.45105e-05
-1.23627e-05
6.46956e-05
-1.31887e-05
5.38145e-05
-1.14752e-05
-1.14752e-05
5.64192e-06
5.64192e-06
5.26925e-05
-5.08096e-06
-5.08096e-06
5.27962e-06
6.75237e-06
6.41565e-05
-5.85099e-06
4.09764e-06
7.63725e-06
7.37021e-05
-6.54927e-06
2.24321e-06
8.28067e-06
8.05551e-05
-7.07036e-06
-6.30374e-18
8.61381e-06
8.41278e-05
-7.33215e-06
-2.24321e-06
8.61381e-06
8.41278e-05
-7.33215e-06
-4.09764e-06
8.28067e-06
8.05551e-05
-7.07036e-06
-5.27962e-06
7.63725e-06
7.37021e-05
-6.54927e-06
-5.64192e-06
6.75237e-06
6.41565e-05
-5.85099e-06
5.64192e-06
5.26925e-05
-5.08096e-06
-5.08096e-06
6.75237e-06
5.27962e-06
6.41565e-05
-5.85099e-06
6.48091e-06
6.48091e-06
7.82339e-05
5.08483e-06
7.40642e-06
8.9352e-05
2.79254e-06
8.05824e-06
9.70786e-05
-7.61337e-18
8.39407e-06
0.00010104
-2.79254e-06
8.39407e-06
0.00010104
-5.08483e-06
8.05824e-06
9.70786e-05
-6.48091e-06
7.40642e-06
8.9352e-05
-6.75237e-06
6.48091e-06
7.82339e-05
5.27962e-06
6.41565e-05
-5.85099e-06
7.63725e-06
4.09764e-06
7.37021e-05
-6.54927e-06
7.40642e-06
5.08483e-06
8.9352e-05
5.84788e-06
5.84788e-06
0.000101537
3.22101e-06
6.37773e-06
0.000109882
-7.82008e-18
6.64948e-06
0.00011412
-3.22101e-06
6.64948e-06
0.00011412
-5.84788e-06
6.37773e-06
0.000109882
-7.40642e-06
5.84788e-06
0.000101537
-7.63725e-06
5.08483e-06
8.9352e-05
4.09764e-06
7.37021e-05
-6.54927e-06
8.28067e-06
2.24321e-06
8.05551e-05
-7.07036e-06
8.05824e-06
2.79254e-06
9.70786e-05
6.37773e-06
3.22101e-06
0.000109882
3.51698e-06
3.51698e-06
0.000118595
-7.18264e-18
3.66844e-06
0.000122998
-3.51698e-06
3.66844e-06
0.000122998
-6.37773e-06
3.51698e-06
0.000118595
-8.05824e-06
3.22101e-06
0.000109882
-8.28067e-06
2.79254e-06
9.70786e-05
2.24321e-06
8.05551e-05
-7.07036e-06
8.61381e-06
9.55434e-19
8.41278e-05
-7.33215e-06
8.39407e-06
1.01186e-18
0.00010104
6.64948e-06
1.45794e-18
0.00011412
3.66844e-06
1.14197e-18
0.000122998
-6.39337e-18
2.06068e-18
0.000127477
-3.66844e-06
1.86315e-18
0.000127477
-6.64948e-06
5.18396e-20
0.000122998
-8.39407e-06
7.85256e-19
0.00011412
-8.61381e-06
1.18299e-18
0.00010104
1.15961e-18
8.41278e-05
-7.33215e-06
8.61381e-06
-2.24321e-06
8.41278e-05
-7.33215e-06
8.39407e-06
-2.79254e-06
0.00010104
6.64948e-06
-3.22101e-06
0.00011412
3.66844e-06
-3.51698e-06
0.000122998
-6.63605e-18
-3.66844e-06
0.000127477
-3.66844e-06
-3.66844e-06
0.000127477
-6.64948e-06
-3.51698e-06
0.000122998
-8.39407e-06
-3.22101e-06
0.00011412
-8.61381e-06
-2.79254e-06
0.00010104
-2.24321e-06
8.41278e-05
-7.33215e-06
8.28067e-06
-4.09764e-06
8.05551e-05
-7.07036e-06
8.05824e-06
-5.08483e-06
9.70786e-05
6.37773e-06
-5.84788e-06
0.000109882
3.51698e-06
-6.37773e-06
0.000118595
-7.10198e-18
-6.64948e-06
0.000122998
-3.51698e-06
-6.64948e-06
0.000122998
-6.37773e-06
-6.37773e-06
0.000118595
-8.05824e-06
-5.84788e-06
0.000109882
-8.28067e-06
-5.08483e-06
9.70786e-05
-4.09764e-06
8.05551e-05
-7.07036e-06
7.63725e-06
-5.27962e-06
7.37021e-05
-6.54927e-06
7.40642e-06
-6.48091e-06
8.9352e-05
5.84788e-06
-7.40642e-06
0.000101537
3.22101e-06
-8.05824e-06
0.000109882
-7.64698e-18
-8.39407e-06
0.00011412
-3.22101e-06
-8.39407e-06
0.00011412
-5.84788e-06
-8.05824e-06
0.000109882
-7.40642e-06
-7.40642e-06
0.000101537
-7.63725e-06
-6.48091e-06
8.9352e-05
-5.27962e-06
7.37021e-05
-6.54927e-06
6.75237e-06
-5.64192e-06
6.41565e-05
-5.85099e-06
6.48091e-06
-6.75237e-06
7.82339e-05
5.08483e-06
-7.63725e-06
8.9352e-05
2.79254e-06
-8.28067e-06
9.70786e-05
-5.40355e-18
-8.61381e-06
0.00010104
-2.79254e-06
-8.61381e-06
0.00010104
-5.08483e-06
-8.28067e-06
9.70786e-05
-6.48091e-06
-7.63725e-06
8.9352e-05
-6.75237e-06
-6.75237e-06
7.82339e-05
-5.64192e-06
6.41565e-05
-5.85099e-06
5.64192e-06
5.26925e-05
-5.08096e-06
-5.08096e-06
5.27962e-06
6.41565e-05
-5.85099e-06
4.09764e-06
7.37021e-05
-6.54927e-06
2.24321e-06
8.05551e-05
-7.07036e-06
-3.91053e-18
8.41278e-05
-7.33215e-06
-2.24321e-06
8.41278e-05
-7.33215e-06
-4.09764e-06
8.05551e-05
-7.07036e-06
-5.27962e-06
7.37021e-05
-6.54927e-06
-5.64192e-06
6.41565e-05
-5.85099e-06
5.26925e-05
-5.08096e-06
-5.08096e-06
1.04963e-06
1.04963e-06
5.22046e-05
-8.05655e-07
-8.05655e-07
1.11574e-06
1.44356e-06
6.37207e-05
-1.07379e-06
9.31473e-07
1.76873e-06
7.34165e-05
-1.29892e-06
5.30286e-07
2.00975e-06
8.04187e-05
-1.47221e-06
-7.79717e-19
2.1376e-06
8.40833e-05
-1.56286e-06
-5.30286e-07
2.1376e-06
8.40833e-05
-1.56286e-06
-9.31473e-07
2.00975e-06
8.04187e-05
-1.47221e-06
-1.11574e-06
1.76873e-06
7.34165e-05
-1.29892e-06
-1.04963e-06
1.44356e-06
6.37207e-05
-1.07379e-06
1.04963e-06
5.22046e-05
-8.05655e-07
-8.05655e-07
1.44356e-06
1.11574e-06
6.37207e-05
-1.07379e-06
1.5517e-06
1.5517e-06
7.80176e-05
1.30313e-06
1.91167e-06
8.94576e-05
7.43034e-07
2.17401e-06
9.74744e-05
-4.97215e-19
2.31378e-06
0.000101607
-7.43034e-07
2.31378e-06
0.000101607
-1.30313e-06
2.17401e-06
9.74744e-05
-1.5517e-06
1.91167e-06
8.94576e-05
-1.44356e-06
1.5517e-06
7.80176e-05
1.11574e-06
6.37207e-05
-1.07379e-06
1.76873e-06
9.31473e-07
7.34165e-05
-1.29892e-06
1.91167e-06
1.30313e-06
8.94576e-05
1.61167e-06
1.61167e-06
0.000102137
9.19755e-07
1.83544e-06
0.000110912
-5.21083e-19
1.95368e-06
0.0001154
-9.19755e-07
1.95368e-06
0.0001154
-1.61167e-06
1.83544e-06
0.000110912
-1.91167e-06
1.61167e-06
0.000102137
-1.76873e-06
1.30313e-06
8.94576e-05
9.31473e-07
7.34165e-05
-1.29892e-06
2.00975e-06
5.30286e-07
8.04187e-05
-1.47221e-06
2.17401e-06
7.43034e-07
9.74744e-05
1.83544e-06
9.19755e-07
0.000110912
1.04855e-06
1.04855e-06
0.000120168
-5.87992e-19
1.11635e-06
0.000124884
-1.04855e-06
1.11635e-06
0.000124884
-1.83544e-06
1.04855e-06
0.000120168
-2.17401e-06
9.19755e-07
0.000110912
-2.00975e-06
7.43034e-07
9.74744e-05
5.30286e-07
8.04187e-05
-1.47221e-06
2.1376e-06
1.05668e-20
8.40833e-05
-1.56286e-06
2.31378e-06
-1.19976e-20
0.000101607
1.95368e-06
-4.72785e-19
0.0001154
1.11635e-06
-1.57048e-18
0.000124884
5.49561e-20
-1.14915e-18
0.00012971
-1.11635e-06
-1.33401e-18
0.00012971
-1.95368e-06
-8.29397e-19
0.000124884
-2.31378e-06
-4.83087e-19
0.0001154
-2.1376e-06
-2.53635e-19
0.000101607
2.00677e-19
8.40833e-05
-1.56286e-06
2.1376e-06
-5.30286e-07
8.40833e-05
-1.56286e-06
2.31378e-06
-7.43034e-07
0.000101607
1.95368e-06
-9.19755e-07
0.0001154
1.11635e-06
-1.04855e-06
0.000124884
-2.18704e-19
-1.11635e-06
0.00012971
-1.11635e-06
-1.11635e-06
0.00012971
-1.95368e-06
-1.04855e-06
0.000124884
-2.31378e-06
-9.19755e-07
0.0001154
-2.1376e-06
-7.43034e-07
0.000101607
-5.30286e-07
8.40833e-05
-1.56286e-06
2.00975e-06
-9.31473e-07
8.04187e-05
-1.47221e-06
2.17401e-06
-1.30313e-06
9.74744e-05
1.83544e-06
-1.61167e-06
0.000110912
1.04855e-06
-1.83544e-06
0.000120168
-1.05765e-18
-1.95368e-06
0.000124884
-1.04855e-06
-1.95368e-06
0.000124884
-1.83544e-06
-1.83544e-06
0.000120168
-2.17401e-06
-1.61167e-06
0.000110912
-2.00975e-06
-1.30313e-06
9.74744e-05
-9.31473e-07
8.04187e-05
-1.47221e-06
1.76873e-06
-1.11574e-06
7.34165e-05
-1.29892e-06
1.91167e-06
-1.5517e-06
8.94576e-05
1.61167e-06
-1.91167e-06
0.000102137
9.19755e-07
-2.17401e-06
0.000110912
-3.44739e-19
-2.31378e-06
0.0001154
-9.19755e-07
-2.31378e-06
0.0001154
-1.61167e-06
-2.17401e-06
0.000110912
-1.91167e-06
-1.91167e-06
0.000102137
-1.76873e-06
-1.5517e-06
8.94576e-05
-1.11574e-06
7.34165e-05
-1.29892e-06
1.44356e-06
-1.04963e-06
6.37207e-05
-1.07379e-06
1.5517e-06
-1.44356e-06
7.80176e-05
1.30313e-06
-1.76873e-06
8.94576e-05
7.43034e-07
-2.00975e-06
9.74744e-05
-3.46743e-19
-2.1376e-06
0.000101607
-7.43034e-07
-2.1376e-06
0.000101607
-1.30313e-06
-2.00975e-06
9.74744e-05
-1.5517e-06
-1.76873e-06
8.94576e-05
-1.44356e-06
-1.44356e-06
7.80176e-05
-1.04963e-06
6.37207e-05
-1.07379e-06
1.04963e-06
5.22046e-05
-8.05655e-07
-8.05655e-07
1.11574e-06
6.37207e-05
-1.07379e-06
9.31473e-07
7.34165e-05
-1.29892e-06
5.30286e-07
8.04187e-05
-1.47221e-06
-6.59888e-19
8.40833e-05
-1.56286e-06
-5.30286e-07
8.40833e-05
-1.56286e-06
-9.31473e-07
8.04187e-05
-1.47221e-06
-1.11574e-06
7.34165e-05
-1.29892e-06
-1.04963e-06
6.37207e-05
-1.07379e-06
5.22046e-05
-8.05655e-07
-8.05655e-07
9.27094e-07
9.27094e-07
5.20502e-05
-8.49929e-07
-8.49929e-07
8.45435e-07
1.07132e-06
6.36605e-05
-9.29502e-07
6.52313e-07
1.20541e-06
7.34355e-05
-1.03125e-06
3.56778e-07
1.30769e-06
8.05144e-05
-1.10785e-06
3.02215e-19
1.36129e-06
8.42254e-05
-1.14653e-06
-3.56778e-07
1.36129e-06
8.42254e-05
-1.14653e-06
-6.52313e-07
1.30769e-06
8.05144e-05
-1.10785e-06
-8.45435e-07
1.20541e-06
7.34355e-05
-1.03125e-06
-9.27094e-07
1.07132e-06
6.36605e-05
-9.29502e-07
9.27094e-07
5.20502e-05
-8.49929e-07
-8.49929e-07
1.07132e-06
8.45435e-07
6.36605e-05
-9.29502e-07
1.02263e-06
1.02263e-06
7.8115e-05
8.08694e-07
1.17439e-06
8.97026e-05
4.47702e-07
1.28787e-06
9.78552e-05
9.34139e-19
1.34784e-06
0.000102068
-4.47702e-07
1.34784e-06
0.000102068
-8.08694e-07
1.28787e-06
9.78552e-05
-1.02263e-06
1.17439e-06
8.97026e-05
-1.07132e-06
1.02263e-06
7.8115e-05
8.45435e-07
6.36605e-05
-9.29502e-07
1.20541e-06
6.52313e-07
7.34355e-05
-1.03125e-06
1.17439e-06
8.08694e-07
8.97026e-05
9.41221e-07
9.41221e-07
0.000102603
5.2473e-07
1.03963e-06
0.000111577
1.3549e-18
1.09169e-06
0.000116181
-5.2473e-07
1.09169e-06
0.000116181
-9.41221e-07
1.03963e-06
0.000111577
-1.17439e-06
9.41221e-07
0.000102603
-1.20541e-06
8.08694e-07
8.97026e-05
6.52313e-07
7.34355e-05
-1.03125e-06
1.30769e-06
3.56778e-07
8.05144e-05
-1.10785e-06
1.28787e-06
4.47702e-07
9.78552e-05
1.03963e-06
5.2473e-07
0.000111577
5.8188e-07
5.8188e-07
0.000121084
1.24249e-18
6.12139e-07
0.000125946
-5.8188e-07
6.12139e-07
0.000125946
-1.03963e-06
5.8188e-07
0.000121084
-1.28787e-06
5.2473e-07
0.000111577
-1.30769e-06
4.47702e-07
9.78552e-05
3.56778e-07
8.05144e-05
-1.10785e-06
1.36129e-06
-1.55699e-19
8.42254e-05
-1.14653e-06
1.34784e-06
-1.77165e-19
0.000102068
1.09169e-06
6.582e-19
0.000116181
6.12139e-07
2.11664e-19
0.000125946
1.48036e-18
-4.80372e-19
0.000130934
-6.12139e-07
-7.84766e-19
0.000130934
-1.09169e-06
4.26563e-19
0.000125946
-1.34784e-06
6.60446e-19
0.000116181
-1.36129e-06
4.60603e-19
0.000102068
-4.27462e-19
8.42254e-05
-1.14653e-06
1.36129e-06
-3.56778e-07
8.42254e-05
-1.14653e-06
1.34784e-06
-4.47702e-07
0.000102068
1.09169e-06
-5.2473e-07
0.000116181
6.12139e-07
-5.8188e-07
0.000125946
1.15373e-18
-6.12139e-07
0.000130934
-6.12139e-07
-6.12139e-07
0.000130934
-1.09169e-06
-5.8188e-07
0.000125946
-1.34784e-06
-5.2473e-07
0.000116181
-1.36129e-06
-4.47702e-07
0.000102068
-3.56778e-07
8.42254e-05
-1.14653e-06
1.30769e-06
-6.52313e-07
8.05144e-05
-1.10785e-06
1.28787e-06
-8.08694e-07
9.78552e-05
1.03963e-06
-9.41221e-07
0.000111577
5.8188e-07
-1.03963e-06
0.000121084
6.05262e-19
-1.09169e-06
0.000125946
-5.8188e-07
-1.09169e-06
0.000125946
-1.03963e-06
-1.03963e-06
0.000121084
-1.28787e-06
-9.41221e-07
0.000111577
-1.30769e-06
-8.08694e-07
9.78552e-05
-6.52313e-07
8.05144e-05
-1.10785e-06
1.20541e-06
-8.45435e-07
7.34355e-05
-1.03125e-06
1.17439e-06
-1.02263e-06
8.97026e-05
9.41221e-07
-1.17439e-06
0.000102603
5.2473e-07
-1.28787e-06
0.000111577
1.84308e-18
-1.34784e-06
0.000116181
-5.2473e-07
-1.34784e-06
0.000116181
-9.41221e-07
-1.28787e-06
0.000111577
-1.17439e-06
-1.17439e-06
0.000102603
-1.20541e-06
-1.02263e-06
8.97026e-05
-8.45435e-07
7.34355e-05
-1.03125e-06
1.07132e-06
-9.27094e-07
6.36605e-05
-9.29502e-07
1.02263e-06
-1.07132e-06
7.8115e-05
8.08694e-07
-1.20541e-06
8.97026e-05
4.47702e-07
-1.30769e-06
9.78552e-05
1.23497e-18
-1.36129e-06
0.000102068
-4.47702e-07
-1.36129e-06
0.000102068
-8.08694e-07
-1.30769e-06
9.78552e-05
-1.02263e-06
-1.20541e-06
8.97026e-05
-1.07132e-06
-1.07132e-06
7.8115e-05
-9.27094e-07
6.36605e-05
-9.29502e-07
9.27094e-07
5.20502e-05
-8.49929e-07
-8.49929e-07
8.45435e-07
6.36605e-05
-9.29502e-07
6.52313e-07
7.34355e-05
-1.03125e-06
3.56778e-07
8.05144e-05
-1.10785e-06
1.5045e-18
8.42254e-05
-1.14653e-06
-3.56778e-07
8.42254e-05
-1.14653e-06
-6.52313e-07
8.05144e-05
-1.10785e-06
-8.45435e-07
7.34355e-05
-1.03125e-06
-9.27094e-07
6.36605e-05
-9.29502e-07
5.20502e-05
-8.49929e-07
-8.49929e-07
-1.61505e-07
-1.61505e-07
5.19764e-05
1.98405e-07
1.98405e-07
-9.85108e-08
-8.72926e-08
6.35473e-05
1.37463e-07
-5.12966e-08
-6.86717e-08
7.33266e-05
1.30401e-07
-2.05748e-08
-3.47923e-08
8.04115e-05
1.06984e-07
3.72124e-19
-2.23123e-08
8.41282e-05
9.89044e-08
2.05748e-08
-2.23123e-08
8.41282e-05
9.89044e-08
5.12966e-08
-3.47923e-08
8.04115e-05
1.06984e-07
9.85108e-08
-6.86717e-08
7.33266e-05
1.30401e-07
1.61505e-07
-8.72926e-08
6.35473e-05
1.37463e-07
-1.61505e-07
5.19764e-05
1.98405e-07
1.98405e-07
-8.72926e-08
-9.85108e-08
6.35473e-05
1.37463e-07
-1.88147e-08
-1.88147e-08
7.7978e-05
1.28352e-08
1.15486e-08
8.95907e-05
1.70004e-08
4.9433e-08
9.77668e-05
1.52554e-20
6.66772e-08
0.000101996
-1.70004e-08
6.66772e-08
0.000101996
-1.28352e-08
4.9433e-08
9.77668e-05
1.88147e-08
1.15486e-08
8.95907e-05
8.72926e-08
-1.88147e-08
7.7978e-05
-9.85108e-08
6.35473e-05
1.37463e-07
-6.86717e-08
-5.12966e-08
7.33266e-05
1.30401e-07
1.15486e-08
1.28352e-08
8.95907e-05
4.29296e-08
4.29296e-08
0.000102541
3.53455e-08
7.57718e-08
0.000111558
3.96198e-19
9.21596e-08
0.000116191
-3.53455e-08
9.21596e-08
0.000116191
-4.29296e-08
7.57718e-08
0.000111558
-1.15486e-08
4.29296e-08
0.000102541
6.86717e-08
1.28352e-08
8.95907e-05
-5.12966e-08
7.33266e-05
1.30401e-07
-3.47923e-08
-2.05748e-08
8.04115e-05
1.06984e-07
4.9433e-08
1.70004e-08
9.77668e-05
7.57718e-08
3.53455e-08
0.000111558
5.41732e-08
5.41732e-08
0.000121127
1.12195e-18
6.39301e-08
0.000126028
-5.41732e-08
6.39301e-08
0.000126028
-7.57718e-08
5.41732e-08
0.000121127
-4.9433e-08
3.53455e-08
0.000111558
3.47923e-08
1.70004e-08
9.77668e-05
-2.05748e-08
8.04115e-05
1.06984e-07
-2.23123e-08
8.95505e-19
8.41282e-05
9.89044e-08
6.66772e-08
8.58138e-19
0.000101996
9.21596e-08
5.6009e-19
0.000116191
6.39301e-08
1.08146e-18
0.000126028
2.28505e-19
1.54236e-18
0.000131062
-6.39301e-08
2.06073e-18
0.000131062
-9.21596e-08
4.00933e-18
0.000126028
-6.66772e-08
2.42365e-18
0.000116191
2.23123e-08
1.96032e-18
0.000101996
1.5042e-18
8.41282e-05
9.89044e-08
-2.23123e-08
2.05748e-08
8.41282e-05
9.89044e-08
6.66772e-08
-1.70004e-08
0.000101996
9.21596e-08
-3.53455e-08
0.000116191
6.39301e-08
-5.41732e-08
0.000126028
7.61947e-19
-6.39301e-08
0.000131062
-6.39301e-08
-6.39301e-08
0.000131062
-9.21596e-08
-5.41732e-08
0.000126028
-6.66772e-08
-3.53455e-08
0.000116191
2.23123e-08
-1.70004e-08
0.000101996
2.05748e-08
8.41282e-05
9.89044e-08
-3.47923e-08
5.12966e-08
8.04115e-05
1.06984e-07
4.9433e-08
-1.28352e-08
9.77668e-05
7.57718e-08
-4.29296e-08
0.000111558
5.41732e-08
-7.57718e-08
0.000121127
2.52985e-18
-9.21596e-08
0.000126028
-5.41732e-08
-9.21596e-08
0.000126028
-7.57718e-08
-7.57718e-08
0.000121127
-4.9433e-08
-4.29296e-08
0.000111558
3.47923e-08
-1.28352e-08
9.77668e-05
5.12966e-08
8.04115e-05
1.06984e-07
-6.86717e-08
9.85108e-08
7.33266e-05
1.30401e-07
1.15486e-08
1.88147e-08
8.95907e-05
4.29296e-08
-1.15486e-08
0.000102541
3.53455e-08
-4.9433e-08
0.000111558
1.1054e-18
-6.66772e-08
0.000116191
-3.53455e-08
-6.66772e-08
0.000116191
-4.29296e-08
-4.9433e-08
0.000111558
-1.15486e-08
-1.15486e-08
0.000102541
6.86717e-08
1.88147e-08
8.95907e-05
9.85108e-08
7.33266e-05
1.30401e-07
-8.72926e-08
1.61505e-07
6.35473e-05
1.37463e-07
-1.88147e-08
8.72926e-08
7.7978e-05
1.28352e-08
6.86717e-08
8.95907e-05
1.70004e-08
3.47923e-08
9.77668e-05
7.34757e-19
2.23123e-08
0.000101996
-1.70004e-08
2.23123e-08
0.000101996
-1.28352e-08
3.47923e-08
9.77668e-05
1.88147e-08
6.86717e-08
8.95907e-05
8.72926e-08
8.72926e-08
7.7978e-05
1.61505e-07
6.35473e-05
1.37463e-07
-1.61505e-07
5.19764e-05
1.98405e-07
1.98405e-07
-9.85108e-08
6.35473e-05
1.37463e-07
-5.12966e-08
7.33266e-05
1.30401e-07
-2.05748e-08
8.04115e-05
1.06984e-07
1.49564e-18
8.41282e-05
9.89044e-08
2.05748e-08
8.41282e-05
9.89044e-08
5.12966e-08
8.04115e-05
1.06984e-07
9.85108e-08
7.33266e-05
1.30401e-07
1.61505e-07
6.35473e-05
1.37463e-07
5.19764e-05
1.98405e-07
1.98405e-07
3.42659e-07
3.42659e-07
5.19599e-05
-3.34374e-07
-3.34374e-07
2.89871e-07
3.64155e-07
6.35779e-05
-3.41914e-07
2.13585e-07
3.9179e-07
7.33786e-05
-3.6752e-07
1.13389e-07
4.12712e-07
8.04841e-05
-3.85051e-07
-1.70885e-19
4.22662e-07
8.42123e-05
-3.93353e-07
-1.13389e-07
4.22662e-07
8.42123e-05
-3.93353e-07
-2.13585e-07
4.12712e-07
8.04841e-05
-3.85051e-07
-2.89871e-07
3.9179e-07
7.33786e-05
-3.6752e-07
-3.42659e-07
3.64155e-07
6.35779e-05
-3.41914e-07
3.42659e-07
5.19599e-05
-3.34374e-07
-3.34374e-07
3.64155e-07
2.89871e-07
6.35779e-05
-3.41914e-07
3.19214e-07
3.19214e-07
7.80679e-05
2.39719e-07
3.48862e-07
8.97131e-05
1.28994e-07
3.70417e-07
9.79198e-05
2.13216e-19
3.81272e-07
0.000102166
-1.28994e-07
3.81272e-07
0.000102166
-2.39719e-07
3.70417e-07
9.79198e-05
-3.19214e-07
3.48862e-07
8.97131e-05
-3.64155e-07
3.19214e-07
7.80679e-05
2.89871e-07
6.35779e-05
-3.41914e-07
3.9179e-07
2.13585e-07
7.33786e-05
-3.6752e-07
3.48862e-07
2.39719e-07
8.97131e-05
2.65381e-07
2.65381e-07
0.000102708
1.43719e-07
2.83788e-07
0.000111767
6.48447e-20
2.9316e-07
0.000116422
-1.43719e-07
2.9316e-07
0.000116422
-2.65381e-07
2.83788e-07
0.000111767
-3.48862e-07
2.65381e-07
0.000102708
-3.9179e-07
2.39719e-07
8.97131e-05
2.13585e-07
7.33786e-05
-3.6752e-07
4.12712e-07
1.13389e-07
8.04841e-05
-3.85051e-07
3.70417e-07
1.28994e-07
9.79198e-05
2.83788e-07
1.43719e-07
0.000111767
1.5437e-07
1.5437e-07
0.000121386
4.50507e-20
1.5982e-07
0.000126316
-1.5437e-07
1.5982e-07
0.000126316
-2.83788e-07
1.5437e-07
0.000121386
-3.70417e-07
1.43719e-07
0.000111767
-4.12712e-07
1.28994e-07
9.79198e-05
1.13389e-07
8.04841e-05
-3.85051e-07
4.22662e-07
-1.03856e-18
8.42123e-05
-3.93353e-07
3.81272e-07
-1.73093e-18
0.000102166
2.9316e-07
-1.84016e-18
0.000116422
1.5982e-07
1.43799e-19
0.000126316
-9.25029e-19
4.43654e-19
0.000131381
-1.5982e-07
7.70476e-19
0.000131381
-2.9316e-07
4.44425e-19
0.000126316
-3.81272e-07
-1.28171e-18
0.000116422
-4.22662e-07
-8.81493e-19
0.000102166
-7.47903e-19
8.42123e-05
-3.93353e-07
4.22662e-07
-1.13389e-07
8.42123e-05
-3.93353e-07
3.81272e-07
-1.28994e-07
0.000102166
2.9316e-07
-1.43719e-07
0.000116422
1.5982e-07
-1.5437e-07
0.000126316
-4.92699e-19
-1.5982e-07
0.000131381
-1.5982e-07
-1.5982e-07
0.000131381
-2.9316e-07
-1.5437e-07
0.000126316
-3.81272e-07
-1.43719e-07
0.000116422
-4.22662e-07
-1.28994e-07
0.000102166
-1.13389e-07
8.42123e-05
-3.93353e-07
4.12712e-07
-2.13585e-07
8.04841e-05
-3.85051e-07
3.70417e-07
-2.39719e-07
9.79198e-05
2.83788e-07
-2.65381e-07
0.000111767
1.5437e-07
-2.83788e-07
0.000121386
-1.034e-18
-2.9316e-07
0.000126316
-1.5437e-07
-2.9316e-07
0.000126316
-2.83788e-07
-2.83788e-07
0.000121386
-3.70417e-07
-2.65381e-07
0.000111767
-4.12712e-07
-2.39719e-07
9.79198e-05
-2.13585e-07
8.04841e-05
-3.85051e-07
3.9179e-07
-2.89871e-07
7.33786e-05
-3.6752e-07
3.48862e-07
-3.19214e-07
8.97131e-05
2.65381e-07
-3.48862e-07
0.000102708
1.43719e-07
-3.70417e-07
0.000111767
-1.43073e-18
-3.81272e-07
0.000116422
-1.43719e-07
-3.81272e-07
0.000116422
-2.65381e-07
-3.70417e-07
0.000111767
-3.48862e-07
-3.48862e-07
0.000102708
-3.9179e-07
-3.19214e-07
8.97131e-05
-2.89871e-07
7.33786e-05
-3.6752e-07
3.64155e-07
-3.42659e-07
6.35779e-05
-3.41914e-07
3.19214e-07
-3.64155e-07
7.80679e-05
2.39719e-07
-3.9179e-07
8.97131e-05
1.28994e-07
-4.12712e-07
9.79198e-05
-1.02755e-18
-4.22662e-07
0.000102166
-1.28994e-07
-4.22662e-07
0.000102166
-2.39719e-07
-4.12712e-07
9.79198e-05
-3.19214e-07
-3.9179e-07
8.97131e-05
-3.64155e-07
-3.64155e-07
7.80679e-05
-3.42659e-07
6.35779e-05
-3.41914e-07
3.42659e-07
5.19599e-05
-3.34374e-07
-3.34374e-07
2.89871e-07
6.35779e-05
-3.41914e-07
2.13585e-07
7.33786e-05
-3.6752e-07
1.13389e-07
8.04841e-05
-3.85051e-07
-9.58203e-19
8.42123e-05
-3.93353e-07
-1.13389e-07
8.42123e-05
-3.93353e-07
-2.13585e-07
8.04841e-05
-3.85051e-07
-2.89871e-07
7.33786e-05
-3.6752e-07
-3.42659e-07
6.35779e-05
-3.41914e-07
5.19599e-05
-3.34374e-07
-3.34374e-07
-1.88753e-07
-1.88753e-07
5.19469e-05
1.95226e-07
1.95226e-07
-1.4833e-07
-1.81695e-07
6.35322e-05
1.86915e-07
-1.02865e-07
-1.86135e-07
7.33242e-05
1.95022e-07
-5.25067e-08
-1.87043e-07
8.04227e-05
1.98074e-07
-3.62219e-18
-1.86931e-07
8.41474e-05
1.99314e-07
5.25067e-08
-1.86931e-07
8.41474e-05
1.99314e-07
1.02865e-07
-1.87043e-07
8.04227e-05
1.98074e-07
1.4833e-07
-1.86135e-07
7.33242e-05
1.95022e-07
1.88753e-07
-1.81695e-07
6.35322e-05
1.86915e-07
-1.88753e-07
5.19469e-05
1.95226e-07
1.95226e-07
-1.81695e-07
-1.4833e-07
6.35322e-05
1.86915e-07
-1.42207e-07
-1.42207e-07
7.79889e-05
-9.75875e-08
-1.44608e-07
8.9627e-05
-4.97582e-08
-1.43347e-07
9.78283e-05
-2.80365e-18
-1.42524e-07
0.000102072
4.97582e-08
-1.42524e-07
0.000102072
9.75875e-08
-1.43347e-07
9.78283e-05
1.42207e-07
-1.44608e-07
8.9627e-05
1.81695e-07
-1.42207e-07
7.79889e-05
-1.4833e-07
6.35322e-05
1.86915e-07
-1.86135e-07
-1.02865e-07
7.33242e-05
1.95022e-07
-1.44608e-07
-9.75875e-08
8.9627e-05
-9.89518e-08
-9.89518e-08
0.000102616
-5.01274e-08
-9.72996e-08
0.000111672
-3.13315e-18
-9.6314e-08
0.000116326
5.01274e-08
-9.6314e-08
0.000116326
9.89518e-08
-9.72996e-08
0.000111672
1.44608e-07
-9.89518e-08
0.000102616
1.86135e-07
-9.75875e-08
8.9627e-05
-1.02865e-07
7.33242e-05
1.95022e-07
-1.87043e-07
-5.25067e-08
8.04227e-05
1.98074e-07
-1.43347e-07
-4.97582e-08
9.78283e-05
-9.72996e-08
-5.01274e-08
0.000111672
-4.89808e-08
-4.89808e-08
0.000121289
-4.36445e-18
-4.83095e-08
0.000126219
4.89808e-08
-4.83095e-08
0.000126219
9.72996e-08
-4.89808e-08