/*--------------------------------*- C++ -*----------------------------------*\
| =========                 |                                                 |
| \\      /  F ield         | OpenFOAM: The Open Source CFD Toolbox           |
|  \\    /   O peration     | Version:  2406                                  |
|   \\  /    A nd           | Website:  www.openfoam.com                      |
|    \\/     M anipulation  |                                                 |
\*---------------------------------------------------------------------------*/
FoamFile
{
    version     2.0;
    format      ascii;
    arch        "LSB;label=32;scalar=64";
    class       volScalarField;
    location    "1.2";
    object      div(phi);
}
// * * * * * * * * * * * * * * * * * * * * * * * * * * * * * * * * * * * * * //

dimensions      [0 0 -1 0 0 0 0];

internalField   nonuniform List<scalar> 
25000
(
1.73753e-05
1.58194e-05
1.60713e-05
1.57528e-05
1.51893e-05
1.46799e-05
1.44152e-05
1.37809e-05
1.40701e-05
1.15661e-05
1.49376e-05
1.34301e-05
1.34169e-05
1.32034e-05
1.28204e-05
1.20928e-05
1.17151e-05
1.18154e-05
1.08598e-05
9.01474e-06
1.42892e-05
1.25368e-05
1.28465e-05
1.28724e-05
1.21938e-05
1.17116e-05
1.13631e-05
1.08189e-05
1.08882e-05
8.60432e-06
1.32983e-05
1.18684e-05
1.22027e-05
1.21348e-05
1.17872e-05
1.10468e-05
1.07168e-05
1.08103e-05
1.00757e-05
8.43233e-06
1.29185e-05
1.11776e-05
1.15965e-05
1.17261e-05
1.11718e-05
1.07586e-05
1.0463e-05
1.01047e-05
1.00119e-05
8.10676e-06
1.23805e-05
1.08065e-05
1.10747e-05
1.11336e-05
1.0808e-05
1.01921e-05
9.94427e-06
9.94591e-06
9.53063e-06
7.82527e-06
1.19888e-05
1.01841e-05
1.04942e-05
1.04751e-05
9.96709e-06
9.61916e-06
9.55202e-06
9.39149e-06
9.12823e-06
7.59365e-06
1.15199e-05
9.66211e-06
9.75803e-06
9.59521e-06
9.23965e-06
9.15329e-06
8.87149e-06
8.95943e-06
8.95656e-06
7.19122e-06
1.05288e-05
8.83882e-06
8.67989e-06
8.63292e-06
8.50383e-06
8.21671e-06
8.34144e-06
8.52055e-06
8.1779e-06
6.76433e-06
8.76143e-06
6.91158e-06
6.95214e-06
6.88282e-06
6.75091e-06
6.76991e-06
6.77084e-06
6.71141e-06
6.47723e-06
5.2559e-06
1.43376e-05
1.2824e-05
1.29196e-05
1.21316e-05
1.16633e-05
1.12757e-05
1.1284e-05
1.11632e-05
1.1544e-05
9.79655e-06
1.23733e-05
1.0624e-05
1.06068e-05
1.03071e-05
1.00317e-05
9.47184e-06
9.29894e-06
9.46951e-06
9.13858e-06
7.8517e-06
1.12878e-05
9.81916e-06
1.0163e-05
1.01886e-05
9.86342e-06
9.41885e-06
9.13882e-06
8.90777e-06
8.99969e-06
7.61992e-06
1.06513e-05
9.4097e-06
9.76356e-06
1.00194e-05
9.75936e-06
9.26751e-06
8.92241e-06
8.82617e-06
8.54617e-06
7.36988e-06
1.07958e-05
9.11869e-06
9.62066e-06
9.92551e-06
9.64951e-06
9.20062e-06
8.86129e-06
8.63521e-06
8.29929e-06
7.28063e-06
1.05211e-05
9.18536e-06
9.57575e-06
9.79317e-06
9.51609e-06
9.07972e-06
8.6829e-06
8.37911e-06
8.40707e-06
7.06523e-06
1.12517e-05
9.2009e-06
9.48446e-06
9.56261e-06
9.2255e-06
8.71306e-06
8.42389e-06
8.52761e-06
7.94252e-06
7.24368e-06
1.1122e-05
9.3408e-06
9.31834e-06
9.12453e-06
8.75146e-06
8.3979e-06
8.33532e-06
7.85451e-06
8.52221e-06
6.9873e-06
1.12925e-05
9.23421e-06
8.86006e-06
8.75503e-06
8.20595e-06
8.15589e-06
7.60426e-06
8.36513e-06
7.73112e-06
6.7582e-06
9.42502e-06
7.35417e-06
7.38771e-06
7.07651e-06
6.93655e-06
6.62742e-06
6.69643e-06
6.50918e-06
6.15985e-06
5.22281e-06
3.19719e-05
2.77673e-05
2.69534e-05
2.46458e-05
2.1811e-05
1.9815e-05
1.85879e-05
1.62522e-05
1.75256e-05
1.33999e-05
2.57753e-05
2.1265e-05
1.95532e-05
1.7605e-05
1.63847e-05
1.39867e-05
1.32587e-05
1.36446e-05
1.1468e-05
1.01077e-05
2.16504e-05
1.71518e-05
1.6563e-05
1.52528e-05
1.32627e-05
1.24173e-05
1.14146e-05
1.02177e-05
1.13237e-05
8.72964e-06
1.84012e-05
1.49701e-05
1.37112e-05
1.28478e-05
1.18294e-05
1.02023e-05
9.68521e-06
9.98921e-06
9.00939e-06
8.20858e-06
1.62336e-05
1.24672e-05
1.24049e-05
1.14996e-05
1.02612e-05
9.60754e-06
8.92932e-06
8.41201e-06
8.91644e-06
7.5462e-06
1.48887e-05
1.20164e-05
1.09732e-05
1.05978e-05
9.66052e-06
8.6855e-06
8.26908e-06
8.32298e-06
8.29254e-06
7.19431e-06
1.40511e-05
1.07034e-05
1.07069e-05
9.6687e-06
8.94472e-06
8.16404e-06
7.99954e-06
8.11734e-06
7.9673e-06
7.33049e-06
1.33978e-05
1.06251e-05
9.83366e-06
9.28654e-06
8.32405e-06
8.06884e-06
7.9239e-06
7.80179e-06
8.67385e-06
6.95814e-06
1.22975e-05
1.00151e-05
9.21067e-06
8.79642e-06
8.14378e-06
7.87075e-06
7.69745e-06
8.55418e-06
8.04995e-06
7.23632e-06
1.03448e-05
7.94555e-06
7.89151e-06
7.35109e-06
7.02454e-06
6.76849e-06
6.92523e-06
6.76808e-06
6.7512e-06
5.45212e-06
-1.16139e-06
-2.00944e-07
1.91479e-06
2.63877e-06
4.8108e-06
5.88089e-06
7.55686e-06
6.38481e-06
7.77718e-06
5.75802e-06
-2.14492e-07
1.54752e-06
2.06872e-06
3.78328e-06
4.88501e-06
5.39735e-06
5.75723e-06
6.6234e-06
5.09732e-06
4.9329e-06
-7.79146e-08
8.32997e-07
2.17974e-06
3.23827e-06
3.94775e-06
4.68024e-06
5.00774e-06
4.61067e-06
5.25333e-06
4.4903e-06
5.96901e-07
1.35621e-06
2.26376e-06
2.98416e-06
3.66539e-06
3.96575e-06
4.15992e-06
4.72857e-06
4.55242e-06
4.31623e-06
2.12228e-06
2.10364e-06
2.51344e-06
3.37289e-06
3.60148e-06
3.91632e-06
4.2247e-06
4.4706e-06
4.47962e-06
4.42402e-06
2.37071e-06
2.78679e-06
3.60433e-06
3.72896e-06
4.08321e-06
4.20311e-06
4.34611e-06
4.48058e-06
4.96662e-06
4.32612e-06
4.49123e-06
3.80762e-06
4.0991e-06
4.68664e-06
4.60052e-06
4.65661e-06
4.65707e-06
5.26639e-06
4.64445e-06
4.79002e-06
4.26437e-06
4.75064e-06
4.92075e-06
5.1154e-06
5.12525e-06
5.0619e-06
5.33728e-06
4.79626e-06
5.68094e-06
4.58036e-06
6.01029e-06
4.71984e-06
5.51222e-06
5.39465e-06
5.41436e-06
5.52906e-06
4.96231e-06
5.87595e-06
4.91619e-06
4.62747e-06
4.3838e-06
3.89405e-06
4.18668e-06
4.4176e-06
4.48538e-06
4.33692e-06
4.43633e-06
4.17979e-06
3.7621e-06
3.45434e-06
3.26098e-05
2.78095e-05
2.73052e-05
2.47458e-05
2.08992e-05
1.7724e-05
1.51146e-05
1.14886e-05
1.1995e-05
8.33164e-06
2.44369e-05
2.06327e-05
1.87237e-05
1.59442e-05
1.45565e-05
1.1002e-05
9.70638e-06
9.42287e-06
6.71257e-06
5.88454e-06
1.9648e-05
1.51937e-05
1.43921e-05
1.28034e-05
9.99857e-06
8.92596e-06
7.47554e-06
5.68241e-06
6.56872e-06
4.44815e-06
1.5246e-05
1.25142e-05
1.08232e-05
9.25847e-06
7.84818e-06
5.95872e-06
5.3042e-06
5.53767e-06
4.25016e-06
3.97834e-06
1.27282e-05
9.51858e-06
9.02497e-06
7.3919e-06
5.61221e-06
4.93396e-06
4.55334e-06
3.73665e-06
4.34843e-06
3.25632e-06
1.13408e-05
8.87514e-06
7.26785e-06
6.40603e-06
4.95743e-06
4.16611e-06
3.69405e-06
3.93121e-06
3.43929e-06
3.0722e-06
9.61536e-06
7.3431e-06
7.03803e-06
5.3014e-06
4.59621e-06
3.59573e-06
3.61763e-06
3.16236e-06
3.48106e-06
2.89021e-06
9.55038e-06
6.74605e-06
5.87822e-06
4.99117e-06
3.81255e-06
3.48488e-06
3.00985e-06
3.25158e-06
3.33744e-06
2.75251e-06
7.27548e-06
6.60281e-06
4.73952e-06
4.42732e-06
3.3423e-06
2.98872e-06
2.9669e-06
3.07739e-06
3.25689e-06
2.78214e-06
6.75715e-06
4.73901e-06
4.41189e-06
3.43531e-06
3.00627e-06
2.66293e-06
2.65573e-06
2.67077e-06
2.90952e-06
2.1304e-06
-2.01867e-05
-1.72822e-05
-1.43568e-05
-1.32373e-05
-1.00008e-05
-8.28638e-06
-6.18065e-06
-6.4655e-06
-5.20955e-06
-4.37306e-06
-1.65523e-05
-1.17096e-05
-1.05418e-05
-7.82987e-06
-5.83798e-06
-4.65393e-06
-3.9497e-06
-3.3617e-06
-4.15469e-06
-2.65184e-06
-1.47922e-05
-1.11242e-05
-8.99555e-06
-7.1364e-06
-5.33161e-06
-4.01829e-06
-3.57991e-06
-3.70129e-06
-3.41163e-06
-2.37871e-06
-1.27183e-05
-9.18826e-06
-7.65322e-06
-6.04539e-06
-4.37319e-06
-3.41629e-06
-3.26454e-06
-3.02138e-06
-3.0283e-06
-2.15864e-06
-9.84871e-06
-7.2612e-06
-6.4615e-06
-4.62864e-06
-3.36333e-06
-2.73745e-06
-2.5829e-06
-2.50552e-06
-2.73476e-06
-1.67155e-06
-8.8759e-06
-6.04381e-06
-4.5438e-06
-3.76986e-06
-2.61722e-06
-2.08939e-06
-2.1551e-06
-2.24449e-06
-2.01938e-06
-1.44229e-06
-6.01737e-06
-4.22098e-06
-3.77552e-06
-2.5726e-06
-1.98603e-06
-1.66219e-06
-1.86489e-06
-1.55522e-06
-1.98621e-06
-1.13848e-06
-5.53403e-06
-3.11204e-06
-2.46119e-06
-1.94541e-06
-1.37186e-06
-1.53421e-06
-1.23158e-06
-1.82273e-06
-1.61918e-06
-9.83938e-07
-3.07207e-06
-2.3191e-06
-1.53848e-06
-1.21947e-06
-1.19205e-06
-7.46561e-07
-1.66502e-06
-1.27724e-06
-1.87621e-06
-1.29019e-06
-2.92397e-06
-1.93315e-06
-1.59348e-06
-1.28916e-06
-9.54499e-07
-1.2064e-06
-1.23803e-06
-1.3791e-06
-1.86555e-06
-8.03236e-07
2.40565e-05
1.96146e-05
1.79636e-05
1.57483e-05
1.18657e-05
9.06439e-06
6.06585e-06
4.13434e-06
3.71412e-06
2.21533e-06
1.79172e-05
1.34685e-05
1.1239e-05
8.65364e-06
6.91107e-06
4.10095e-06
2.98761e-06
2.22251e-06
1.00403e-06
6.11248e-07
1.37081e-05
9.26381e-06
8.07604e-06
6.30272e-06
3.89783e-06
2.86067e-06
1.53204e-06
3.90791e-07
6.81599e-07
-3.46097e-07
9.3063e-06
6.8056e-06
5.00953e-06
3.58878e-06
2.45284e-06
9.08402e-07
3.75321e-07
1.67306e-07
-7.53347e-07
-6.6173e-07
6.14113e-06
3.69942e-06
3.30983e-06
1.97324e-06
7.33836e-07
2.68009e-07
-2.8171e-07
-1.10425e-06
-6.76547e-07
-1.2862e-06
4.21078e-06
2.75424e-06
1.35629e-06
7.80597e-07
1.53752e-09
-6.36466e-07
-1.03849e-06
-9.57056e-07
-1.61166e-06
-1.4347e-06
2.21466e-06
8.93044e-07
7.11941e-07
-4.62846e-07
-8.4704e-07
-1.35829e-06
-1.18523e-06
-1.97053e-06
-1.36643e-06
-1.67425e-06
1.54227e-06
2.14184e-07
-5.93162e-07
-1.03555e-06
-1.77041e-06
-1.52274e-06
-2.22541e-06
-1.37157e-06
-1.87305e-06
-1.63439e-06
2.81287e-08
-1.86498e-07
-1.25026e-06
-1.7217e-06
-1.85353e-06
-2.49971e-06
-1.42466e-06
-2.08624e-06
-1.1576e-06
-1.12264e-06
4.14269e-07
-4.18552e-07
-8.63105e-07
-1.36638e-06
-1.79804e-06
-1.54221e-06
-1.53333e-06
-1.18296e-06
-3.2855e-07
-9.36232e-07
-3.95761e-05
-3.53438e-05
-3.27625e-05
-3.09746e-05
-2.6412e-05
-2.35314e-05
-2.07286e-05
-1.86e-05
-1.83576e-05
-1.40692e-05
-3.24253e-05
-2.61633e-05
-2.47766e-05
-2.08574e-05
-1.86614e-05
-1.55657e-05
-1.46148e-05
-1.42699e-05
-1.29093e-05
-1.05422e-05
-2.94121e-05
-2.34735e-05
-2.12331e-05
-1.86119e-05
-1.5415e-05
-1.37561e-05
-1.25179e-05
-1.17495e-05
-1.24101e-05
-9.30168e-06
-2.53902e-05
-2.04548e-05
-1.80183e-05
-1.56626e-05
-1.29697e-05
-1.08678e-05
-1.07426e-05
-1.09813e-05
-1.0138e-05
-8.79678e-06
-2.20662e-05
-1.72145e-05
-1.60832e-05
-1.30431e-05
-1.04692e-05
-9.51569e-06
-9.33163e-06
-9.16766e-06
-9.9718e-06
-7.82618e-06
-2.07175e-05
-1.59225e-05
-1.344e-05
-1.20043e-05
-9.50487e-06
-8.48866e-06
-8.53426e-06
-8.99661e-06
-8.68232e-06
-7.47088e-06
-1.74422e-05
-1.3927e-05
-1.30504e-05
-1.04585e-05
-9.30105e-06
-8.09681e-06
-8.208e-06
-8.10376e-06
-8.51516e-06
-7.05024e-06
-1.78397e-05
-1.25207e-05
-1.15561e-05
-1.00862e-05
-8.53566e-06
-7.95608e-06
-7.79282e-06
-7.92334e-06
-8.33637e-06
-6.63648e-06
-1.36905e-05
-1.25999e-05
-9.58703e-06
-9.39384e-06
-7.73855e-06
-7.59485e-06
-7.30884e-06
-7.86815e-06
-7.77578e-06
-6.43849e-06
-1.26786e-05
-9.25749e-06
-8.88417e-06
-7.51507e-06
-7.11619e-06
-6.53764e-06
-6.6623e-06
-6.45866e-06
-6.42831e-06
-4.86215e-06
8.5926e-06
4.73748e-06
1.22539e-06
-7.08677e-07
-5.52044e-06
-8.14479e-06
-1.11895e-05
-1.25604e-05
-1.34145e-05
-1.10877e-05
2.80748e-06
6.67572e-07
-5.277e-07
-4.53151e-06
-5.91381e-06
-8.71107e-06
-1.01712e-05
-1.12814e-05
-1.16023e-05
-9.61549e-06
1.83371e-07
-9.02888e-07
-2.77042e-06
-4.61295e-06
-6.84038e-06
-8.1481e-06
-9.68461e-06
-1.09751e-05
-1.1257e-05
-9.82148e-06
-2.64011e-06
-2.33626e-06
-4.17173e-06
-5.56217e-06
-6.57724e-06
-8.03099e-06
-9.47212e-06
-1.04631e-05
-1.13703e-05
-9.75456e-06
-5.35953e-06
-4.35949e-06
-4.84284e-06
-6.29738e-06
-6.92599e-06
-7.888e-06
-9.24742e-06
-1.08346e-05
-1.09882e-05
-9.99836e-06
-5.86375e-06
-5.23361e-06
-6.89476e-06
-6.93415e-06
-7.86306e-06
-8.38888e-06
-9.87217e-06
-1.06028e-05
-1.16539e-05
-9.85809e-06
-9.52372e-06
-6.94432e-06
-7.32997e-06
-9.11451e-06
-8.79025e-06
-9.87105e-06
-1.04422e-05
-1.17708e-05
-1.12914e-05
-1.02778e-05
-8.08738e-06
-8.70758e-06
-8.92054e-06
-9.76671e-06
-1.03581e-05
-1.0895e-05
-1.15689e-05
-1.14672e-05
-1.24592e-05
-9.89435e-06
-1.17693e-05
-7.27895e-06
-1.05649e-05
-1.00562e-05
-1.14309e-05
-1.13386e-05
-1.15471e-05
-1.24982e-05
-1.13662e-05
-9.59012e-06
-7.77153e-06
-7.09066e-06
-7.73965e-06
-9.02822e-06
-9.18523e-06
-9.57331e-06
-9.71096e-06
-9.3951e-06
-8.56463e-06
-7.06285e-06
-5.33376e-05
-4.73878e-05
-4.63071e-05
-4.38095e-05
-4.02776e-05
-3.72589e-05
-3.49887e-05
-3.26678e-05
-3.26462e-05
-2.55146e-05
-4.43702e-05
-3.62741e-05
-3.38607e-05
-3.14105e-05
-2.89684e-05
-2.63622e-05
-2.55693e-05
-2.57884e-05
-2.41158e-05
-1.95291e-05
-3.9238e-05
-3.08899e-05
-2.93125e-05
-2.7289e-05
-2.42205e-05
-2.28286e-05
-2.236e-05
-2.18729e-05
-2.28536e-05
-1.80136e-05
-3.39793e-05
-2.69384e-05
-2.52553e-05
-2.29258e-05
-2.05094e-05
-1.88213e-05
-1.93505e-05
-2.05429e-05
-2.01314e-05
-1.72385e-05
-3.07941e-05
-2.35131e-05
-2.24048e-05
-2.01305e-05
-1.72353e-05
-1.67138e-05
-1.77359e-05
-1.83931e-05
-1.95573e-05
-1.62288e-05
-2.83842e-05
-2.22834e-05
-2.07037e-05
-1.87829e-05
-1.67117e-05
-1.59093e-05
-1.68702e-05
-1.82296e-05
-1.85391e-05
-1.56794e-05
-2.73601e-05
-2.06919e-05
-2.01539e-05
-1.85725e-05
-1.68389e-05
-1.62149e-05
-1.72924e-05
-1.77502e-05
-1.82437e-05
-1.55319e-05
-2.56247e-05
-2.05901e-05
-1.92178e-05
-1.83392e-05
-1.67592e-05
-1.71667e-05
-1.68646e-05
-1.79185e-05
-1.87442e-05
-1.48527e-05
-2.41699e-05
-1.86332e-05
-1.8426e-05
-1.71948e-05
-1.70548e-05
-1.60499e-05
-1.72655e-05
-1.79716e-05
-1.77955e-05
-1.46322e-05
-1.95743e-05
-1.53408e-05
-1.51593e-05
-1.48007e-05
-1.40779e-05
-1.42847e-05
-1.44752e-05
-1.44068e-05
-1.43731e-05
-1.07462e-05
-1.61609e-05
-1.72776e-05
-2.03265e-05
-2.07996e-05
-2.33654e-05
-2.44232e-05
-2.64887e-05
-2.60381e-05
-2.7346e-05
-2.19123e-05
-1.6097e-05
-1.67272e-05
-1.69996e-05
-1.90027e-05
-1.95616e-05
-2.0358e-05
-2.11462e-05
-2.26186e-05
-2.14976e-05
-1.80078e-05
-1.70496e-05
-1.55407e-05
-1.6546e-05
-1.75025e-05
-1.77069e-05
-1.82075e-05
-1.94011e-05
-1.98341e-05
-2.08928e-05
-1.74711e-05
-1.72346e-05
-1.52617e-05
-1.63189e-05
-1.61108e-05
-1.5926e-05
-1.62911e-05
-1.73775e-05
-1.92387e-05
-1.95804e-05
-1.71015e-05
-1.93726e-05
-1.61939e-05
-1.56651e-05
-1.5953e-05
-1.48378e-05
-1.51369e-05
-1.70285e-05
-1.83772e-05
-1.92442e-05
-1.69362e-05
-1.94854e-05
-1.66866e-05
-1.74897e-05
-1.62655e-05
-1.5621e-05
-1.57489e-05
-1.69739e-05
-1.85882e-05
-1.94085e-05
-1.6778e-05
-2.25776e-05
-1.8506e-05
-1.80062e-05
-1.82189e-05
-1.69869e-05
-1.69651e-05
-1.80683e-05
-1.91102e-05
-1.92831e-05
-1.68831e-05
-2.22116e-05
-1.9633e-05
-1.93919e-05
-1.8872e-05
-1.8141e-05
-1.83558e-05
-1.85087e-05
-1.9162e-05
-1.99871e-05
-1.64845e-05
-2.35152e-05
-1.88228e-05
-1.95071e-05
-1.86986e-05
-1.86565e-05
-1.81903e-05
-1.84462e-05
-1.94547e-05
-1.8627e-05
-1.51482e-05
-1.86284e-05
-1.54567e-05
-1.5644e-05
-1.57925e-05
-1.5532e-05
-1.55266e-05
-1.5584e-05
-1.53707e-05
-1.42867e-05
-1.14996e-05
-5.60738e-05
-5.12659e-05
-5.20611e-05
-4.98307e-05
-4.70988e-05
-4.44787e-05
-4.2884e-05
-3.99372e-05
-4.07716e-05
-3.20381e-05
-4.75367e-05
-4.14105e-05
-3.90913e-05
-3.72575e-05
-3.53829e-05
-3.24233e-05
-3.19206e-05
-3.27764e-05
-3.01061e-05
-2.50746e-05
-4.33589e-05
-3.52076e-05
-3.447e-05
-3.27059e-05
-2.94391e-05
-2.84111e-05
-2.8055e-05
-2.73443e-05
-2.91316e-05
-2.32631e-05
-3.7951e-05
-3.16324e-05
-2.99919e-05
-2.76072e-05
-2.53156e-05
-2.34376e-05
-2.41987e-05
-2.62863e-05
-2.55021e-05
-2.24444e-05
-3.5872e-05
-2.83086e-05
-2.70789e-05
-2.49169e-05
-2.14901e-05
-2.111e-05
-2.26404e-05
-2.33843e-05
-2.52331e-05
-2.12566e-05
-3.37094e-05
-2.75567e-05
-2.60974e-05
-2.37136e-05
-2.13324e-05
-2.04549e-05
-2.1538e-05
-2.37527e-05
-2.38673e-05
-2.08017e-05
-3.37189e-05
-2.68892e-05
-2.59285e-05
-2.40675e-05
-2.18893e-05
-2.09768e-05
-2.24159e-05
-2.28024e-05
-2.39354e-05
-2.03747e-05
-3.29363e-05
-2.69238e-05
-2.56108e-05
-2.40376e-05
-2.19972e-05
-2.21719e-05
-2.16538e-05
-2.33734e-05
-2.38896e-05
-1.97536e-05
-3.11747e-05
-2.57505e-05
-2.42847e-05
-2.29889e-05
-2.20941e-05
-2.09734e-05
-2.20859e-05
-2.27657e-05
-2.27715e-05
-1.83763e-05
-2.58777e-05
-2.05037e-05
-2.01704e-05
-1.9347e-05
-1.85128e-05
-1.84745e-05
-1.85297e-05
-1.8578e-05
-1.80546e-05
-1.38869e-05
-4.11509e-05
-3.95555e-05
-4.25633e-05
-4.11663e-05
-4.1589e-05
-4.09377e-05
-4.11161e-05
-3.95407e-05
-4.07164e-05
-3.25659e-05
-3.6947e-05
-3.42962e-05
-3.26058e-05
-3.34525e-05
-3.26997e-05
-3.13331e-05
-3.18558e-05
-3.29769e-05
-3.07013e-05
-2.58481e-05
-3.43808e-05
-2.90773e-05
-2.99966e-05
-2.94266e-05
-2.77988e-05
-2.78228e-05
-2.79543e-05
-2.806e-05
-2.97597e-05
-2.44059e-05
-3.1353e-05
-2.69863e-05
-2.64695e-05
-2.53835e-05
-2.41702e-05
-2.3143e-05
-2.46106e-05
-2.68833e-05
-2.65806e-05
-2.35867e-05
-3.09617e-05
-2.48935e-05
-2.43578e-05
-2.34435e-05
-2.09049e-05
-2.12288e-05
-2.3025e-05
-2.44566e-05
-2.61707e-05
-2.26734e-05
-2.93138e-05
-2.4807e-05
-2.45477e-05
-2.26425e-05
-2.12975e-05
-2.07391e-05
-2.23577e-05
-2.47199e-05
-2.52698e-05
-2.21692e-05
-3.1456e-05
-2.51699e-05
-2.46364e-05
-2.41209e-05
-2.21206e-05
-2.19275e-05
-2.34271e-05
-2.43251e-05
-2.52479e-05
-2.19656e-05
-3.00912e-05
-2.61448e-05
-2.52894e-05
-2.43622e-05
-2.29897e-05
-2.33946e-05
-2.31503e-05
-2.48659e-05
-2.55866e-05
-2.1306e-05
-3.08607e-05
-2.47555e-05
-2.50327e-05
-2.37181e-05
-2.36148e-05
-2.25718e-05
-2.37464e-05
-2.4624e-05
-2.42875e-05
-1.97673e-05
-2.44987e-05
-2.00174e-05
-2.0088e-05
-2.00707e-05
-1.94765e-05
-1.97238e-05
-1.97903e-05
-1.98749e-05
-1.9035e-05
-1.4963e-05
-5.09116e-05
-4.745e-05
-5.02599e-05
-4.78227e-05
-4.702e-05
-4.54469e-05
-4.4717e-05
-4.24254e-05
-4.37638e-05
-3.4705e-05
-4.43292e-05
-4.01478e-05
-3.75781e-05
-3.78774e-05
-3.65477e-05
-3.41675e-05
-3.45174e-05
-3.5507e-05
-3.24843e-05
-2.75653e-05
-3.93959e-05
-3.28159e-05
-3.40001e-05
-3.2691e-05
-3.04485e-05
-3.03572e-05
-2.99285e-05
-2.96779e-05
-3.18269e-05
-2.5694e-05
-3.49373e-05
-3.00945e-05
-2.87848e-05
-2.77019e-05
-2.61932e-05
-2.45802e-05
-2.61761e-05
-2.85239e-05
-2.76711e-05
-2.47937e-05
-3.32145e-05
-2.64365e-05
-2.62941e-05
-2.49077e-05
-2.20431e-05
-2.25079e-05
-2.40495e-05
-2.53243e-05
-2.74231e-05
-2.35041e-05
-3.0848e-05
-2.61337e-05
-2.54132e-05
-2.35756e-05
-2.2218e-05
-2.13605e-05
-2.31654e-05
-2.5634e-05
-2.5909e-05
-2.28959e-05
-3.21613e-05
-2.55553e-05
-2.52246e-05
-2.47247e-05
-2.25673e-05
-2.25972e-05
-2.39799e-05
-2.48234e-05
-2.59544e-05
-2.25569e-05
-3.02738e-05
-2.62957e-05
-2.55208e-05
-2.45716e-05
-2.34294e-05
-2.3726e-05
-2.35958e-05
-2.5418e-05
-2.61003e-05
-2.18038e-05
-3.09007e-05
-2.48584e-05
-2.51598e-05
-2.40626e-05
-2.3928e-05
-2.29929e-05
-2.42032e-05
-2.5066e-05
-2.48051e-05
-2.02534e-05
-2.43851e-05
-2.00462e-05
-2.02374e-05
-2.03442e-05
-1.978e-05
-2.00859e-05
-2.01363e-05
-2.02717e-05
-1.94484e-05
-1.53069e-05
-7.20262e-05
-6.51766e-05
-6.63704e-05
-6.15989e-05
-5.77281e-05
-5.43064e-05
-5.13987e-05
-4.76849e-05
-4.90303e-05
-3.86748e-05
-6.09539e-05
-5.26069e-05
-4.86266e-05
-4.66784e-05
-4.41215e-05
-3.90665e-05
-3.89692e-05
-3.92297e-05
-3.49758e-05
-3.01301e-05
-5.18036e-05
-4.2365e-05
-4.3212e-05
-3.98673e-05
-3.57187e-05
-3.48094e-05
-3.27208e-05
-3.18584e-05
-3.43418e-05
-2.74518e-05
-4.51426e-05
-3.81715e-05
-3.48135e-05
-3.30927e-05
-3.01721e-05
-2.69155e-05
-2.82994e-05
-3.02389e-05
-2.87082e-05
-2.60981e-05
-4.02325e-05
-3.13777e-05
-3.16123e-05
-2.83701e-05
-2.43926e-05
-2.43866e-05
-2.5013e-05
-2.6038e-05
-2.82519e-05
-2.43231e-05
-3.69173e-05
-3.06314e-05
-2.81292e-05
-2.6177e-05
-2.37807e-05
-2.21973e-05
-2.38139e-05
-2.59653e-05
-2.62751e-05
-2.33838e-05
-3.57115e-05
-2.77677e-05
-2.76761e-05
-2.59406e-05
-2.35052e-05
-2.30848e-05
-2.40436e-05
-2.50762e-05
-2.59844e-05
-2.31381e-05
-3.34578e-05
-2.78765e-05
-2.65567e-05
-2.53295e-05
-2.37961e-05
-2.37913e-05
-2.38341e-05
-2.52742e-05
-2.66211e-05
-2.22139e-05
-3.20707e-05
-2.61018e-05
-2.54603e-05
-2.45929e-05
-2.39263e-05
-2.32511e-05
-2.41009e-05
-2.56317e-05
-2.5145e-05
-2.12065e-05
-2.57706e-05
-2.07698e-05
-2.10079e-05
-2.06957e-05
-2.01617e-05
-2.02926e-05
-2.05674e-05
-2.06973e-05
-2.00775e-05
-1.60549e-05
-2.32827e-05
-2.45979e-05
-2.84532e-05
-2.84688e-05
-3.08968e-05
-3.1935e-05
-3.36288e-05
-3.25768e-05
-3.47789e-05
-2.78793e-05
-2.35431e-05
-2.37601e-05
-2.32404e-05
-2.55747e-05
-2.60298e-05
-2.56464e-05
-2.69732e-05
-2.85208e-05
-2.5939e-05
-2.28382e-05
-2.30221e-05
-2.06632e-05
-2.28356e-05
-2.2789e-05
-2.25032e-05
-2.34691e-05
-2.36019e-05
-2.38303e-05
-2.59829e-05
-2.1459e-05
-2.27117e-05
-2.05531e-05
-2.01502e-05
-2.04479e-05
-1.99256e-05
-1.92558e-05
-2.09964e-05
-2.31071e-05
-2.2642e-05
-2.06904e-05
-2.32241e-05
-1.90453e-05
-1.9537e-05
-1.88662e-05
-1.72669e-05
-1.80633e-05
-1.93349e-05
-2.08476e-05
-2.23001e-05
-1.98842e-05
-2.25409e-05
-1.95216e-05
-1.93773e-05
-1.84099e-05
-1.78323e-05
-1.73351e-05
-1.9149e-05
-2.08211e-05
-2.1763e-05
-1.92479e-05
-2.42419e-05
-1.96476e-05
-1.95495e-05
-1.99749e-05
-1.83845e-05
-1.90155e-05
-1.96983e-05
-2.13265e-05
-2.13073e-05
-1.95384e-05
-2.2996e-05
-2.0366e-05
-2.04591e-05
-1.99006e-05
-1.9855e-05
-1.9833e-05
-2.06102e-05
-2.10151e-05
-2.26658e-05
-1.87498e-05
-2.41413e-05
-1.96453e-05
-2.0441e-05
-2.02183e-05
-2.0244e-05
-2.028e-05
-2.03899e-05
-2.21608e-05
-2.08915e-05
-1.78628e-05
-1.8767e-05
-1.58674e-05
-1.64175e-05
-1.69656e-05
-1.69657e-05
-1.71747e-05
-1.74266e-05
-1.72697e-05
-1.62272e-05
-1.34131e-05
-6.95061e-05
-6.24562e-05
-6.13132e-05
-5.69454e-05
-5.13714e-05
-4.7572e-05
-4.3788e-05
-3.973e-05
-4.12869e-05
-3.18834e-05
-5.89565e-05
-4.90868e-05
-4.51908e-05
-4.15417e-05
-3.86082e-05
-3.28998e-05
-3.24824e-05
-3.25236e-05
-2.80782e-05
-2.44422e-05
-5.00048e-05
-4.01818e-05
-3.9769e-05
-3.55052e-05
-3.06993e-05
-2.93889e-05
-2.67178e-05
-2.52682e-05
-2.78912e-05
-2.14678e-05
-4.34486e-05
-3.57997e-05
-3.13814e-05
-2.91849e-05
-2.56603e-05
-2.18423e-05
-2.26853e-05
-2.40214e-05
-2.19392e-05
-2.01442e-05
-3.68534e-05
-2.82918e-05
-2.84111e-05
-2.40462e-05
-2.00222e-05
-1.96018e-05
-1.93799e-05
-1.96091e-05
-2.17315e-05
-1.81141e-05
-3.38634e-05
-2.711e-05
-2.33945e-05
-2.17169e-05
-1.88413e-05
-1.69659e-05
-1.80728e-05
-1.94539e-05
-1.93041e-05
-1.71515e-05
-2.982e-05
-2.285e-05
-2.26833e-05
-2.00573e-05
-1.78695e-05
-1.73035e-05
-1.75947e-05
-1.82157e-05
-1.89695e-05
-1.67609e-05
-2.83355e-05
-2.18371e-05
-2.0455e-05
-1.89328e-05
-1.75621e-05
-1.70868e-05
-1.73142e-05
-1.80919e-05
-1.93215e-05
-1.58384e-05
-2.43889e-05
-2.04172e-05
-1.84574e-05
-1.81802e-05
-1.69528e-05
-1.67292e-05
-1.71099e-05
-1.83945e-05
-1.80986e-05
-1.54296e-05
-2.05392e-05
-1.59801e-05
-1.59993e-05
-1.51431e-05
-1.46884e-05
-1.45637e-05
-1.48202e-05
-1.48173e-05
-1.46103e-05
-1.14752e-05
4.79688e-06
1.35811e-06
-1.80571e-06
-3.26234e-06
-7.39092e-06
-9.97944e-06
-1.34436e-05
-1.37893e-05
-1.56554e-05
-1.30217e-05
7.902e-07
-2.82866e-06
-4.09278e-06
-7.1417e-06
-8.9346e-06
-1.05879e-05
-1.21104e-05
-1.37542e-05
-1.27971e-05
-1.19021e-05
-1.76272e-06
-3.74666e-06
-5.9939e-06
-7.33779e-06
-8.89912e-06
-1.03943e-05
-1.14199e-05
-1.21411e-05
-1.34813e-05
-1.17066e-05
-4.62101e-06
-5.57782e-06
-6.5587e-06
-7.91204e-06
-8.63092e-06
-9.34261e-06
-1.07301e-05
-1.22193e-05
-1.2327e-05
-1.15387e-05
-7.12708e-06
-6.76722e-06
-7.57084e-06
-8.17612e-06
-8.30607e-06
-9.26734e-06
-1.02824e-05
-1.15771e-05
-1.22874e-05
-1.13518e-05
-8.20095e-06
-7.84367e-06
-8.66872e-06
-8.78611e-06
-9.13889e-06
-9.29411e-06
-1.06643e-05
-1.15158e-05
-1.23551e-05
-1.10253e-05
-1.03201e-05
-9.10087e-06
-9.2702e-06
-1.03145e-05
-9.82632e-06
-1.07204e-05
-1.08222e-05
-1.23029e-05
-1.18796e-05
-1.12228e-05
-1.05114e-05
-9.81814e-06
-1.05958e-05
-1.05534e-05
-1.1252e-05
-1.09165e-05
-1.20742e-05
-1.15076e-05
-1.28397e-05
-1.06065e-05
-1.17749e-05
-1.00626e-05
-1.08168e-05
-1.13574e-05
-1.12756e-05
-1.20568e-05
-1.10999e-05
-1.26373e-05
-1.12116e-05
-9.75153e-06
-9.30384e-06
-8.20245e-06
-8.86158e-06
-9.34915e-06
-9.79986e-06
-9.60708e-06
-9.78678e-06
-9.35803e-06
-8.22732e-06
-7.24457e-06
-6.00856e-05
-5.27902e-05
-5.05353e-05
-4.61456e-05
-4.02858e-05
-3.62732e-05
-3.20153e-05
-2.92904e-05
-2.94453e-05
-2.29247e-05
-5.02949e-05
-3.9904e-05
-3.58668e-05
-3.21043e-05
-2.88317e-05
-2.39229e-05
-2.32848e-05
-2.26567e-05
-2.00058e-05
-1.70438e-05
-4.1418e-05
-3.19515e-05
-3.10111e-05
-2.69156e-05
-2.26709e-05
-2.12516e-05
-1.8826e-05
-1.79913e-05
-1.96037e-05
-1.48266e-05
-3.48552e-05
-2.76338e-05
-2.35482e-05
-2.15817e-05
-1.85702e-05
-1.53548e-05
-1.61246e-05
-1.67479e-05
-1.52065e-05
-1.37979e-05
-2.79969e-05
-2.04806e-05
-2.07301e-05
-1.70255e-05
-1.38864e-05
-1.3651e-05
-1.3158e-05
-1.33173e-05
-1.50083e-05
-1.20197e-05
-2.46751e-05
-1.91395e-05
-1.58418e-05
-1.46896e-05
-1.26023e-05
-1.09875e-05
-1.20351e-05
-1.30104e-05
-1.2676e-05
-1.11377e-05
-2.06549e-05
-1.46915e-05
-1.48307e-05
-1.27093e-05
-1.11102e-05
-1.09542e-05
-1.12647e-05
-1.15097e-05
-1.2437e-05
-1.06346e-05
-1.87417e-05
-1.37909e-05
-1.23357e-05
-1.14945e-05
-1.0483e-05
-1.05562e-05
-1.0563e-05
-1.16893e-05
-1.23492e-05
-9.83041e-06
-1.55097e-05
-1.18989e-05
-1.09621e-05
-1.05035e-05
-1.02738e-05
-9.77409e-06
-1.10187e-05
-1.15271e-05
-1.19009e-05
-1.00908e-05
-1.31002e-05
-9.80949e-06
-9.71492e-06
-9.27125e-06
-8.81209e-06
-9.12443e-06
-9.38247e-06
-9.56533e-06
-1.00181e-05
-7.27275e-06
2.23361e-05
1.82679e-05
1.49754e-05
1.36683e-05
8.52731e-06
5.53661e-06
2.04885e-06
-4.59649e-07
-7.77285e-07
-1.99028e-06
1.57877e-05
1.12561e-05
1.01599e-05
5.8411e-06
4.01772e-06
8.64752e-07
-8.10112e-07
-1.64174e-06
-3.01617e-06
-3.08881e-06
1.38852e-05
9.65501e-06
6.81117e-06
4.74239e-06
1.70023e-06
-1.61066e-07
-1.60262e-06
-3.44383e-06
-3.50737e-06
-4.06288e-06
9.76138e-06
7.12226e-06
5.1615e-06
2.66831e-06
6.70798e-07
-1.1593e-06
-2.81096e-06
-3.50009e-06
-4.51213e-06
-4.3828e-06
7.43025e-06
5.17942e-06
3.59002e-06
1.36831e-06
-3.4712e-07
-1.96365e-06
-2.7493e-06
-4.30394e-06
-4.54002e-06
-4.6829e-06
6.43398e-06
3.97364e-06
1.83932e-06
6.66224e-07
-1.35798e-06
-2.01742e-06
-3.53707e-06
-4.11973e-06
-4.84463e-06
-4.56003e-06
3.39209e-06
2.68911e-06
1.44894e-06
-1.13078e-06
-1.5398e-06
-3.27562e-06
-3.46621e-06
-4.61503e-06
-4.59882e-06
-4.59222e-06
4.64561e-06
1.07147e-06
6.36014e-08
-1.40821e-06
-2.93607e-06
-3.35458e-06
-4.22926e-06
-4.30126e-06
-4.81619e-06
-4.15073e-06
5.3997e-07
1.94404e-06
-1.86048e-06
-2.16423e-06
-3.76475e-06
-4.14095e-06
-4.17844e-06
-4.69591e-06
-4.08356e-06
-3.61749e-06
2.32908e-06
3.26289e-07
-6.55735e-07
-2.38101e-06
-2.90852e-06
-3.38045e-06
-3.40825e-06
-3.34085e-06
-2.69599e-06
-2.57324e-06
-4.85756e-05
-4.02821e-05
-3.60472e-05
-3.07045e-05
-2.35096e-05
-1.90277e-05
-1.38391e-05
-1.2436e-05
-1.13453e-05
-8.98775e-06
-3.71297e-05
-2.84263e-05
-2.46684e-05
-1.93501e-05
-1.58679e-05
-1.09127e-05
-1.0082e-05
-8.33634e-06
-7.43329e-06
-6.21345e-06
-2.86283e-05
-2.21348e-05
-2.01915e-05
-1.58688e-05
-1.18575e-05
-1.00532e-05
-7.21312e-06
-6.88599e-06
-7.36863e-06
-5.09704e-06
-2.30277e-05
-1.83253e-05
-1.43306e-05
-1.21964e-05
-9.28989e-06
-6.25155e-06
-6.56929e-06
-6.07954e-06
-4.86003e-06
-4.78413e-06
-1.66908e-05
-1.26208e-05
-1.22567e-05
-8.64777e-06
-6.13858e-06
-5.59675e-06
-4.21535e-06
-3.91201e-06
-5.28349e-06
-3.3909e-06
-1.47146e-05
-1.12057e-05
-7.90542e-06
-7.05003e-06
-4.7517e-06
-3.20414e-06
-3.33565e-06
-3.89919e-06
-2.64682e-06
-3.08289e-06
-9.81861e-06
-7.61091e-06
-7.37345e-06
-4.32113e-06
-3.39588e-06
-2.34302e-06
-2.15416e-06
-1.26802e-06
-3.0973e-06
-1.77642e-06
-9.96187e-06
-6.05986e-06
-4.798e-06
-3.49282e-06
-1.93622e-06
-1.13581e-06
-5.57379e-07
-1.79616e-06
-9.4076e-07
-1.42385e-06
-5.38175e-06
-6.08137e-06
-2.79551e-06
-2.68814e-06
-8.28978e-07
-5.01543e-07
-6.28311e-07
-1.59749e-08
-1.33126e-06
-5.93014e-07
-5.85895e-06
-3.86229e-06
-3.43121e-06
-1.93737e-06
-1.44058e-06
-8.85016e-07
-6.94616e-07
-1.02187e-06
-1.34414e-06
-6.64006e-07
4.55719e-05
3.81047e-05
3.55559e-05
3.17022e-05
2.6175e-05
2.23434e-05
1.86221e-05
1.4842e-05
1.53387e-05
1.05328e-05
3.53212e-05
2.67253e-05
2.33679e-05
1.9974e-05
1.75877e-05
1.32969e-05
1.19633e-05
1.14864e-05
8.4631e-06
6.94614e-06
2.68373e-05
1.94243e-05
1.84936e-05
1.56708e-05
1.2162e-05
1.07944e-05
8.95217e-06
6.98394e-06
7.97653e-06
5.03095e-06
2.03363e-05
1.55034e-05
1.27364e-05
1.11087e-05
9.18375e-06
6.86802e-06
6.25239e-06
6.41843e-06
4.94823e-06
4.15447e-06
1.51587e-05
1.01712e-05
1.02416e-05
8.05847e-06
6.06254e-06
5.33724e-06
5.0094e-06
4.1502e-06
4.63381e-06
3.25744e-06
1.23038e-05
9.08683e-06
7.02633e-06
6.2935e-06
5.00333e-06
4.20563e-06
3.99283e-06
4.07211e-06
3.86957e-06
2.81336e-06
9.73574e-06
6.15697e-06
6.24338e-06
4.92877e-06
4.23595e-06
3.74915e-06
4.00467e-06
3.84108e-06
3.63916e-06
3.0639e-06
8.477e-06
5.71387e-06
4.63439e-06
4.29632e-06
3.57938e-06
3.98125e-06
3.74769e-06
3.91208e-06
4.4851e-06
2.89923e-06
6.51594e-06
4.36829e-06
3.91715e-06
3.47967e-06
3.68296e-06
3.24205e-06
4.17702e-06
4.48504e-06
4.48165e-06
4.01211e-06
5.89778e-06
3.97798e-06
3.6388e-06
3.27981e-06
2.92133e-06
3.22302e-06
3.50597e-06
3.48443e-06
4.17156e-06
2.66898e-06
-1.89773e-05
-1.44811e-05
-1.11979e-05
-9.24253e-06
-4.96506e-06
-2.15046e-06
9.31404e-07
1.46523e-06
3.00551e-06
1.79013e-06
-1.40729e-05
-8.4713e-06
-7.16903e-06
-3.50793e-06
-1.53089e-06
7.21717e-07
1.97779e-06
3.17929e-06
2.46368e-06
2.14165e-06
-1.06438e-05
-7.21508e-06
-5.05705e-06
-2.93343e-06
-8.13311e-07
8.38762e-07
2.06122e-06
2.23058e-06
2.82937e-06
2.07393e-06
-8.04913e-06
-5.23463e-06
-3.39208e-06
-1.90298e-06
-2.48084e-07
1.04668e-06
1.82455e-06
2.62471e-06
2.58134e-06
2.10098e-06
-4.53691e-06
-2.98332e-06
-2.47001e-06
-6.39099e-07
4.33249e-07
1.35776e-06
2.23737e-06
2.61859e-06
2.68192e-06
2.26722e-06
-3.5155e-06
-1.9366e-06
-2.49686e-07
1.33674e-07
1.32424e-06
1.92131e-06
2.53522e-06
2.82598e-06
3.07323e-06
2.25423e-06
-2.98055e-07
2.52017e-07
3.02821e-07
1.83585e-06
2.04746e-06
2.81236e-06
3.098e-06
3.55215e-06
2.93218e-06
2.61895e-06
1.06793e-07
1.42054e-06
1.99438e-06
2.49988e-06
3.09204e-06
3.42154e-06
3.78911e-06
3.29769e-06
3.6886e-06
2.41203e-06
2.5427e-06
1.61083e-06
3.00932e-06
2.88408e-06
3.72009e-06
3.7972e-06
3.69738e-06
4.04554e-06
3.10231e-06
2.60372e-06
1.70908e-06
1.84108e-06
1.94443e-06
2.56498e-06
2.75347e-06
2.8822e-06
2.89784e-06
2.44732e-06
2.02819e-06
1.57509e-06
4.33413e-05
3.82256e-05
3.74276e-05
3.3854e-05
2.97395e-05
2.68947e-05
2.33678e-05
2.11123e-05
2.18269e-05
1.60791e-05
3.57803e-05
2.89822e-05
2.55579e-05
2.35753e-05
2.13435e-05
1.74714e-05
1.74704e-05
1.68386e-05
1.41098e-05