/*--------------------------------*- C++ -*----------------------------------*\
| =========                 |                                                 |
| \\      /  F ield         | OpenFOAM: The Open Source CFD Toolbox           |
|  \\    /   O peration     | Version:  2406                                  |
|   \\  /    A nd           | Website:  www.openfoam.com                      |
|    \\/     M anipulation  |                                                 |
\*---------------------------------------------------------------------------*/
FoamFile
{
    version     2.0;
    format      ascii;
    arch        "LSB;label=32;scalar=64";
    class       volScalarField;
    location    "1.2";
    object      magR;
}
// * * * * * * * * * * * * * * * * * * * * * * * * * * * * * * * * * * * * * //

dimensions      [0 2 -2 0 0 0 0];

internalField   uniform 0;

boundaryField
{
    walls
    {
        type            calculated;
        value           nonuniform List<scalar> 
2000
(
5.84369e-07
8.28591e-07
1.0951e-06
1.31566e-06
1.44047e-06
1.44047e-06
1.31566e-06
1.0951e-06
8.2859e-07
5.84368e-07
2.35128e-07
3.22824e-07
4.2616e-07
5.15496e-07
5.67306e-07
5.67306e-07
5.15494e-07
4.26158e-07
3.22822e-07
2.35126e-07
8.23441e-08
1.10271e-07
1.44707e-07
1.75737e-07
1.94065e-07
1.94064e-07
1.75734e-07
1.44703e-07
1.10267e-07
8.234e-08
1.07686e-07
1.45246e-07
1.90634e-07
2.3089e-07
2.54493e-07
2.5449e-07
2.30882e-07
1.90623e-07
1.45234e-07
1.07675e-07
8.3987e-08
1.12661e-07
1.47939e-07
1.79572e-07
1.98238e-07
1.98233e-07
1.79558e-07
1.47918e-07
1.12639e-07
8.39658e-08
9.10047e-08
1.22386e-07
1.60774e-07
1.95071e-07
2.15271e-07
2.15261e-07
1.95043e-07
1.60734e-07
1.22343e-07
9.09631e-08
8.52137e-08
1.14417e-07
1.50309e-07
1.8247e-07
2.01442e-07
2.01424e-07
1.82421e-07
1.50239e-07
1.14341e-07
8.51403e-08
8.71551e-08
1.1709e-07
1.53813e-07
1.86678e-07
2.06048e-07
2.06017e-07
1.86593e-07
1.53691e-07
1.16955e-07
8.70245e-08
8.57633e-08
1.15157e-07
1.5125e-07
1.83568e-07
2.02612e-07
2.02562e-07
1.8343e-07
1.51052e-07
1.14937e-07
8.55497e-08
8.63776e-08
1.15983e-07
1.5231e-07
1.84818e-07
2.03956e-07
2.03881e-07
1.8461e-07
1.52015e-07
1.15655e-07
8.60584e-08
8.61016e-08
1.15585e-07
1.51765e-07
1.84134e-07
2.03179e-07
2.03079e-07
1.83856e-07
1.51369e-07
1.15148e-07
8.56787e-08
8.63084e-08
1.15861e-07
1.52116e-07
1.84542e-07
2.03607e-07
2.03484e-07
1.84203e-07
1.51638e-07
1.15336e-07
8.58042e-08
8.62229e-08
1.15747e-07
1.51969e-07
1.84363e-07
2.03403e-07
2.03267e-07
1.83988e-07
1.51443e-07
1.15174e-07
8.56771e-08
8.62055e-08
1.15737e-07
1.51972e-07
1.84378e-07
2.03424e-07
2.03285e-07
1.83995e-07
1.51437e-07
1.1516e-07
8.56609e-08
8.60725e-08
1.15573e-07
1.51778e-07
1.84165e-07
2.03204e-07
2.03072e-07
1.83804e-07
1.51276e-07
1.15035e-07
8.55696e-08
8.59469e-08
1.15419e-07
1.51598e-07
1.83972e-07
2.03014e-07
2.029e-07
1.83662e-07
1.5117e-07
1.14963e-07
8.55242e-08
8.58023e-08
1.1524e-07
1.51385e-07
1.83742e-07
2.0279e-07
2.02706e-07
1.83514e-07
1.51073e-07
1.14911e-07
8.5502e-08
8.5675e-08
1.15088e-07
1.51216e-07
1.83571e-07
2.0264e-07
2.02597e-07
1.83457e-07
1.51064e-07
1.14936e-07
8.55424e-08
8.55499e-08
1.14947e-07
1.51068e-07
1.83437e-07
2.0254e-07
2.02547e-07
1.83458e-07
1.51109e-07
1.15003e-07
8.5616e-08
8.54296e-08
1.14814e-07
1.5094e-07
1.83331e-07
2.02475e-07
2.0253e-07
1.83487e-07
1.51167e-07
1.15074e-07
8.56863e-08
8.53124e-08
1.14681e-07
1.50803e-07
1.8321e-07
2.02385e-07
2.02479e-07
1.83469e-07
1.51171e-07
1.15088e-07
8.57045e-08
8.52074e-08
1.14552e-07
1.50656e-07
1.83059e-07
2.02246e-07
2.02359e-07
1.83371e-07
1.51093e-07
1.15025e-07
8.56562e-08
8.51221e-08
1.14437e-07
1.50509e-07
1.82889e-07
2.02066e-07
2.02183e-07
1.83209e-07
1.50952e-07
1.1491e-07
8.55656e-08
8.50612e-08
1.1435e-07
1.50387e-07
1.82736e-07
2.01892e-07
2.02004e-07
1.83042e-07
1.50809e-07
1.14798e-07
8.54822e-08
8.50228e-08
1.14296e-07
1.5031e-07
1.82636e-07
2.01775e-07
2.01884e-07
1.82934e-07
1.50725e-07
1.14742e-07
8.54475e-08
8.50064e-08
1.14278e-07
1.50289e-07
1.82609e-07
2.01745e-07
2.01858e-07
1.8292e-07
1.50727e-07
1.14759e-07
8.54739e-08
8.50263e-08
1.1431e-07
1.50334e-07
1.82663e-07
2.01807e-07
2.01926e-07
1.82993e-07
1.50804e-07
1.14836e-07
8.55455e-08
8.51273e-08
1.14436e-07
1.50481e-07
1.82823e-07
2.0197e-07
2.02085e-07
1.83141e-07
1.50934e-07
1.14947e-07
8.56353e-08
8.53729e-08
1.14721e-07
1.50792e-07
1.83138e-07
2.02268e-07
2.02347e-07
1.83358e-07
1.51101e-07
1.15067e-07
8.57158e-08
8.58009e-08
1.1521e-07
1.51315e-07
1.83653e-07
2.02733e-07
2.02732e-07
1.83646e-07
1.51293e-07
1.15174e-07
8.57606e-08
8.63689e-08
1.15861e-07
1.52016e-07
1.84341e-07
2.03344e-07
2.03217e-07
1.83981e-07
1.51483e-07
1.15245e-07
8.57522e-08
8.69362e-08
1.16522e-07
1.52743e-07
1.85066e-07
2.03989e-07
2.03717e-07
1.84305e-07
1.51639e-07
1.15269e-07
8.56952e-08
8.73037e-08
1.16972e-07
1.53266e-07
1.8561e-07
2.04483e-07
2.04097e-07
1.84536e-07
1.51729e-07
1.1525e-07
8.56174e-08
8.73056e-08
1.17013e-07
1.53365e-07
1.85757e-07
2.04639e-07
2.04218e-07
1.84595e-07
1.51725e-07
1.15202e-07
8.55527e-08
8.6906e-08
1.1659e-07
1.52958e-07
1.85404e-07
2.04355e-07
2.04e-07
1.84431e-07
1.51607e-07
1.15126e-07
8.55135e-08
8.62334e-08
1.15829e-07
1.52154e-07
1.84632e-07
2.03681e-07
2.03468e-07
1.84055e-07
1.51376e-07
1.15017e-07
8.54896e-08
8.55118e-08
1.1498e-07
1.51212e-07
1.83681e-07
2.02817e-07
2.02768e-07
1.83561e-07
1.51081e-07
1.14888e-07
8.54687e-08
8.49572e-08
1.14304e-07
1.50427e-07
1.82854e-07
2.02043e-07
2.02133e-07
1.83117e-07
1.50829e-07
1.14795e-07
8.54726e-08
8.4681e-08
1.13956e-07
1.50008e-07
1.82399e-07
2.01616e-07
2.01798e-07
1.82915e-07
1.5076e-07
1.14831e-07
8.55618e-08
8.47253e-08
1.1401e-07
1.50071e-07
1.82474e-07
2.0172e-07
2.01952e-07
1.8313e-07
1.51025e-07
1.15121e-07
8.58316e-08
8.5269e-08
1.14664e-07
1.50827e-07
1.83301e-07
2.02588e-07
2.02827e-07
1.83981e-07
1.5181e-07
1.15803e-07
8.63714e-08
8.66706e-08
1.16317e-07
1.5269e-07
1.85287e-07
2.04586e-07
2.04729e-07
1.85684e-07
1.53228e-07
1.1689e-07
8.71236e-08
8.92417e-08
1.19319e-07
1.56021e-07
1.88752e-07
2.07946e-07
2.07759e-07
1.88199e-07
1.55127e-07
1.18164e-07
8.78682e-08
9.31206e-08
1.2383e-07
1.6098e-07
1.93828e-07
2.12741e-07
2.11925e-07
1.915e-07
1.5749e-07
1.19664e-07
8.87031e-08
9.83062e-08
1.2985e-07
1.67577e-07
2.00529e-07
2.19012e-07
2.17333e-07
1.95798e-07
1.60647e-07
1.21817e-07
9.00871e-08
1.04669e-07
1.37309e-07
1.7585e-07
2.09045e-07
2.27139e-07
2.24556e-07
2.0182e-07
1.65402e-07
1.25397e-07
9.27041e-08
1.11847e-07
1.45895e-07
1.8559e-07
2.19274e-07
2.37111e-07
2.33628e-07
2.09578e-07
1.71689e-07
1.30251e-07
9.63538e-08
1.1795e-07
1.53808e-07
1.95303e-07
2.30275e-07
2.48613e-07
2.44754e-07
2.19573e-07
1.80067e-07
1.36841e-07
1.01384e-07
1.23067e-07
1.60606e-07
2.0374e-07
2.3977e-07
2.58315e-07
2.53773e-07
2.27232e-07
1.86049e-07
1.41191e-07
1.04484e-07
1.22931e-07
1.63162e-07
2.09808e-07
2.49431e-07
2.708e-07
2.67634e-07
2.40845e-07
1.98126e-07
1.51086e-07
1.12365e-07
5.84368e-07
8.28589e-07
1.09509e-06
1.31565e-06
1.44047e-06
1.44047e-06
1.31566e-06
1.0951e-06
8.28591e-07
5.84369e-07
2.35124e-07
3.22819e-07
4.26155e-07
5.1549e-07
5.67302e-07
5.67304e-07
5.15494e-07
4.2616e-07
3.22824e-07
2.35128e-07
8.23339e-08
1.1026e-07
1.44695e-07
1.75727e-07
1.94058e-07
1.94061e-07
1.75734e-07
1.44705e-07
1.1027e-07
8.23439e-08
1.07658e-07
1.45215e-07
1.90603e-07
2.30863e-07
2.54474e-07
2.54481e-07
2.30882e-07
1.9063e-07
1.45244e-07
1.07686e-07
8.39339e-08
1.12603e-07
1.4788e-07
1.79522e-07
1.98202e-07
1.98215e-07
1.79557e-07
1.4793e-07
1.12657e-07
8.39857e-08
9.09022e-08
1.22273e-07
1.6066e-07
1.94972e-07
2.152e-07
2.15224e-07
1.95039e-07
1.60754e-07
1.22376e-07
9.10017e-08
8.50453e-08
1.14232e-07
1.50122e-07
1.82308e-07
2.01324e-07
2.01363e-07
1.82415e-07
1.50275e-07
1.144e-07
8.52083e-08
8.68866e-08
1.16796e-07
1.53519e-07
1.86423e-07
2.05865e-07
2.05926e-07
1.86592e-07
1.53759e-07
1.17063e-07
8.71465e-08
8.53681e-08
1.14727e-07
1.50824e-07
1.83203e-07
2.02358e-07
2.02447e-07
1.8345e-07
1.51176e-07
1.15119e-07
8.57515e-08
8.58264e-08
1.15387e-07
1.51726e-07
1.84324e-07
2.03623e-07
2.03747e-07
1.84667e-07
1.52216e-07
1.15936e-07
8.63625e-08
8.53938e-08
1.14821e-07
1.51018e-07
1.83508e-07
2.02767e-07
2.02927e-07
1.83952e-07
1.51651e-07
1.15528e-07
8.60836e-08
8.54758e-08
1.14959e-07
1.51231e-07
1.838e-07
2.03122e-07
2.03313e-07
1.8433e-07
1.51984e-07
1.15796e-07
8.62883e-08
8.53383e-08
1.1478e-07
1.51013e-07
1.83557e-07
2.02876e-07
2.03085e-07
1.84134e-07
1.51827e-07
1.15678e-07
8.62026e-08
8.53609e-08
1.14804e-07
1.5104e-07
1.83589e-07
2.0291e-07
2.03117e-07
1.84158e-07
1.51837e-07
1.15674e-07
8.61883e-08
8.53523e-08
1.1477e-07
1.50969e-07
1.83481e-07
2.02769e-07
2.02954e-07
1.83987e-07
1.51672e-07
1.15525e-07
8.60615e-08
8.54003e-08
1.14806e-07
1.50981e-07
1.83457e-07
2.02705e-07
2.02853e-07
1.8386e-07
1.51535e-07
1.15393e-07
8.59431e-08
8.54374e-08
1.14829e-07
1.50974e-07
1.83407e-07
2.02606e-07
2.0271e-07
1.83689e-07
1.51359e-07
1.1523e-07
8.58028e-08
8.54747e-08
1.14857e-07
1.50981e-07
1.83377e-07
2.02529e-07
2.02589e-07
1.83537e-07
1.51198e-07
1.1508e-07
8.56743e-08
8.54964e-08
1.14869e-07
1.5097e-07
1.83329e-07
2.02436e-07
2.02453e-07
1.83374e-07
1.51027e-07
1.14924e-07
8.55431e-08
8.55208e-08
1.14882e-07
1.50959e-07
1.83282e-07
2.02345e-07
2.02322e-07
1.83216e-07
1.50864e-07
1.14775e-07
8.5417e-08
8.55606e-08
1.1491e-07
1.50962e-07
1.83246e-07
2.02266e-07
2.02204e-07
1.83074e-07
1.50717e-07
1.14639e-07
8.53002e-08
8.56207e-08
1.14962e-07
1.50994e-07
1.83245e-07
2.02226e-07
2.02128e-07
1.82973e-07
1.50606e-07
1.14532e-07
8.52043e-08
8.56796e-08
1.15019e-07
1.51038e-07
1.83267e-07
2.02219e-07
2.02091e-07
1.82914e-07
1.50534e-07
1.14456e-07
8.51322e-08
8.57022e-08
1.1504e-07
1.51056e-07
1.83276e-07
2.02213e-07
2.02068e-07
1.82874e-07
1.50484e-07
1.14402e-07
8.50808e-08
8.56623e-08
1.14993e-07
1.51006e-07
1.83226e-07
2.02163e-07
2.02017e-07
1.82822e-07
1.50434e-07
1.14357e-07
8.50423e-08
8.5564e-08
1.14876e-07
1.50878e-07
1.83099e-07
2.02047e-07
2.01917e-07
1.82742e-07
1.50373e-07
1.14315e-07
8.50154e-08
8.54463e-08
1.14731e-07
1.50712e-07
1.8293e-07
2.01893e-07
2.01795e-07
1.82659e-07
1.50328e-07
1.143e-07
8.5019e-08
8.53645e-08
1.1463e-07
1.50594e-07
1.82812e-07
2.01796e-07
2.0174e-07
1.82655e-07
1.5037e-07
1.14374e-07
8.51038e-08
8.53534e-08
1.14631e-07
1.50609e-07
1.82852e-07
2.01878e-07
2.01877e-07
1.82848e-07
1.50605e-07
1.14623e-07
8.53386e-08
8.54011e-08
1.14737e-07
1.50787e-07
1.83111e-07
2.02222e-07
2.02299e-07
1.83329e-07
1.51106e-07
1.15102e-07
8.5764e-08
8.54598e-08
1.14893e-07
1.51078e-07
1.83547e-07
2.02799e-07
2.02985e-07
1.84071e-07
1.51842e-07
1.15773e-07
8.63381e-08
8.54899e-08
1.15032e-07
1.51381e-07
1.84034e-07
2.03461e-07
2.0377e-07
1.84905e-07
1.52641e-07
1.16473e-07
8.69179e-08
8.54929e-08
1.15116e-07
1.51598e-07
1.84414e-07
2.03994e-07
2.04404e-07
1.8556e-07
1.53239e-07
1.16964e-07
8.73004e-08
8.5495e-08
1.15141e-07
1.51675e-07
1.84564e-07
2.0421e-07
2.0465e-07
1.8578e-07
1.53391e-07
1.17034e-07
8.73148e-08
8.55105e-08
1.15116e-07
1.51596e-07
1.84434e-07
2.04022e-07
2.04395e-07
1.85452e-07
1.53003e-07
1.1662e-07
8.69213e-08
8.55279e-08
1.15043e-07
1.51385e-07
1.84062e-07
2.03481e-07
2.03707e-07
1.84666e-07
1.52188e-07
1.1585e-07
8.62463e-08
8.5527e-08
1.14932e-07
1.51097e-07
1.83559e-07
2.02758e-07
2.0281e-07
1.83679e-07
1.51216e-07
1.1498e-07
8.55158e-08
8.55173e-08
1.14827e-07
1.50834e-07
1.83096e-07
2.02091e-07
2.01994e-07
1.82808e-07
1.50392e-07
1.14279e-07
8.49497e-08
8.55306e-08
1.14782e-07
1.50688e-07
1.82815e-07
2.01677e-07
2.01487e-07
1.82281e-07
1.49915e-07
1.13897e-07
8.46591e-08
8.56251e-08
1.14864e-07
1.5073e-07
1.82802e-07
2.01611e-07
2.01393e-07
1.82193e-07
1.49862e-07
1.13889e-07
8.46814e-08
8.59504e-08
1.15247e-07
1.5114e-07
1.83236e-07
2.02072e-07
2.01894e-07
1.82736e-07
1.50429e-07
1.14448e-07
8.51959e-08
8.66209e-08
1.16121e-07
1.52196e-07
1.84468e-07
2.03469e-07
2.03439e-07
1.84379e-07
1.52083e-07
1.16001e-07
8.65737e-08
8.74537e-08
1.17393e-07
1.53947e-07
1.86708e-07
2.06162e-07
2.0649e-07
1.87622e-07
1.55297e-07
1.18953e-07
8.91417e-08
8.7927e-08
1.1857e-07
1.56024e-07
1.89765e-07
2.10147e-07
2.11185e-07
1.92673e-07
1.60285e-07
1.23483e-07
9.30383e-08
8.70722e-08
1.18631e-07
1.57474e-07
1.92866e-07
2.14872e-07
2.17172e-07
1.99326e-07
1.66924e-07
1.29522e-07
9.82235e-08
8.34217e-08
1.15814e-07
1.56394e-07
1.94169e-07
2.18728e-07
2.2316e-07
2.06623e-07
1.74556e-07
1.3666e-07
1.04459e-07
7.7002e-08
1.0971e-07
1.51872e-07
1.92406e-07
2.2031e-07
2.27823e-07
2.13447e-07
1.8231e-07
1.44262e-07
1.11276e-07
6.8629e-08
1.00314e-07
1.42636e-07
1.84963e-07
2.15995e-07
2.27115e-07
2.159e-07
1.86835e-07
1.49646e-07
1.16648e-07
6.22706e-08
9.2711e-08
1.3456e-07
1.77941e-07
2.11408e-07
2.2566e-07
2.17332e-07
1.9022e-07
1.53886e-07
1.20947e-07
5.28981e-08
7.96874e-08
1.1756e-07
1.58498e-07
1.91874e-07
2.0853e-07
2.042e-07
1.81447e-07
1.48856e-07
1.1863e-07
5.84367e-07
8.28589e-07
1.09509e-06
1.31565e-06
1.44047e-06
1.44047e-06
1.31565e-06
1.09509e-06
8.28589e-07
5.84368e-07
2.35122e-07
3.22816e-07
4.26151e-07
5.15486e-07
5.67297e-07
5.67297e-07
5.15487e-07
4.26153e-07
3.22818e-07
2.35124e-07
8.233e-08
1.10254e-07
1.44688e-07
1.75717e-07
1.94046e-07
1.94047e-07
1.7572e-07
1.44691e-07
1.10258e-07
8.23335e-08
1.07647e-07
1.452e-07
1.90582e-07
2.30836e-07
2.54442e-07
2.54444e-07
2.30843e-07
1.90592e-07
1.4521e-07
1.07657e-07
8.39124e-08
1.12572e-07
1.4784e-07
1.79471e-07
1.98141e-07
1.98146e-07
1.79484e-07
1.47859e-07
1.12592e-07
8.39312e-08
9.08555e-08
1.22209e-07
1.60577e-07
1.94868e-07
2.15077e-07
2.15087e-07
1.94896e-07
1.60616e-07
1.22251e-07
9.08963e-08
8.49587e-08
1.14115e-07
1.49972e-07
1.82123e-07
2.0111e-07
2.01128e-07
1.82173e-07
1.50042e-07
1.14192e-07
8.50339e-08
8.67388e-08
1.16596e-07
1.53262e-07
1.8611e-07
2.05504e-07
2.05534e-07
1.86191e-07
1.53378e-07
1.16725e-07
8.68657e-08
8.51541e-08
1.14432e-07
1.50439e-07
1.82728e-07
2.01808e-07
2.01848e-07
1.82841e-07
1.50601e-07
1.14614e-07
8.5334e-08
8.55564e-08
1.15002e-07
1.51204e-07
1.83663e-07
2.02845e-07
2.02893e-07
1.83798e-07
1.51398e-07
1.15222e-07
8.57762e-08
8.51032e-08
1.14381e-07
1.5039e-07
1.82684e-07
2.01771e-07
2.0182e-07
1.82821e-07
1.50586e-07
1.14605e-07
8.53287e-08
8.52127e-08
1.14522e-07
1.50561e-07
1.82876e-07
2.01971e-07
2.02011e-07
1.82989e-07
1.50722e-07
1.14707e-07
8.54016e-08
8.51524e-08
1.14416e-07
1.50393e-07
1.82646e-07
2.01693e-07
2.01716e-07
1.8271e-07
1.50484e-07
1.14522e-07
8.52649e-08
8.52855e-08
1.14572e-07
1.50561e-07
1.82812e-07
2.01844e-07
2.01844e-07
1.82811e-07
1.50561e-07
1.14575e-07
8.52989e-08
8.53921e-08
1.14694e-07
1.5069e-07
1.82934e-07
2.01949e-07
2.01925e-07
1.82868e-07
1.50598e-07
1.14596e-07
8.53087e-08
8.55308e-08
1.14871e-07
1.50906e-07
1.83173e-07
2.02191e-07
2.02149e-07
1.83057e-07
1.50743e-07
1.14698e-07
8.53763e-08
8.56177e-08
1.14989e-07
1.51059e-07
1.83355e-07
2.02384e-07
2.02332e-07
1.83213e-07
1.50862e-07
1.1478e-07
8.54293e-08
8.56671e-08
1.15062e-07
1.51164e-07
1.8349e-07
2.02537e-07
2.02484e-07
1.83347e-07
1.50967e-07
1.14853e-07
8.54771e-08
8.56822e-08
1.15086e-07
1.51202e-07
1.83546e-07
2.02608e-07
2.02562e-07
1.8342e-07
1.51027e-07
1.14898e-07
8.55063e-08
8.57016e-08
1.15108e-07
1.51229e-07
1.83581e-07
2.02651e-07
2.02612e-07
1.83473e-07
1.51077e-07
1.1494e-07
8.55385e-08
8.57477e-08
1.1516e-07
1.51284e-07
1.8364e-07
2.02714e-07
2.02679e-07
1.83543e-07
1.51146e-07
1.15002e-07
8.55882e-08
8.58292e-08
1.15259e-07
1.51398e-07
1.83762e-07
2.0284e-07
2.02804e-07
1.83662e-07
1.51253e-07
1.15093e-07
8.56597e-08
8.59357e-08
1.15394e-07
1.5156e-07
1.83941e-07
2.03023e-07
2.02978e-07
1.83815e-07
1.51379e-07
1.15188e-07
8.57297e-08
8.60504e-08
1.1554e-07
1.51737e-07
1.84136e-07
2.03217e-07
2.03152e-07
1.83954e-07
1.51477e-07
1.15248e-07
8.57624e-08
8.6157e-08
1.1567e-07
1.51888e-07
1.84294e-07
2.03364e-07
2.03267e-07
1.84025e-07
1.51502e-07
1.15238e-07
8.57325e-08
8.62379e-08
1.1576e-07
1.51982e-07
1.8438e-07
2.03426e-07
2.03293e-07
1.84009e-07
1.51448e-07
1.15158e-07
8.56457e-08
8.62569e-08
1.15774e-07
1.51985e-07
1.84367e-07
2.0339e-07
2.0323e-07
1.83918e-07
1.5134e-07
1.15045e-07
8.55382e-08
8.61515e-08
1.1565e-07
1.51846e-07
1.8422e-07
2.03239e-07
2.0308e-07
1.83777e-07
1.51214e-07
1.14938e-07
8.54544e-08
8.58639e-08
1.15324e-07
1.51503e-07
1.83884e-07
2.02934e-07
2.02822e-07
1.83577e-07
1.51074e-07
1.14854e-07
8.54138e-08
8.54024e-08
1.14798e-07
1.50944e-07
1.83337e-07
2.02444e-07
2.02424e-07
1.83287e-07
1.50894e-07
1.14769e-07
8.53973e-08
8.4867e-08
1.14171e-07
1.50253e-07
1.82639e-07
2.01803e-07
2.01891e-07
1.82896e-07
1.50645e-07
1.14649e-07
8.53671e-08
8.44105e-08
1.13612e-07
1.49602e-07
1.81944e-07
2.01135e-07
2.01316e-07
1.82459e-07
1.50358e-07
1.14498e-07
8.53109e-08
8.41723e-08
1.1329e-07
1.49186e-07
1.8146e-07
2.00639e-07
2.00872e-07
1.82115e-07
1.50131e-07
1.14377e-07
8.52628e-08
8.42337e-08
1.13321e-07
1.49155e-07
1.81368e-07
2.00509e-07
2.00744e-07
1.82021e-07
1.50083e-07
1.14367e-07
8.52712e-08
8.4598e-08
1.13723e-07
1.49559e-07
1.81743e-07
2.00839e-07
2.01026e-07
1.82255e-07
1.5027e-07
1.14497e-07
8.53508e-08
8.51833e-08
1.14408e-07
1.50312e-07
1.82511e-07
2.01562e-07
2.01656e-07
1.82758e-07
1.50633e-07
1.1472e-07
8.54671e-08
8.58323e-08
1.15191e-07
1.51207e-07
1.83452e-07
2.02463e-07
2.02436e-07
1.83359e-07
1.51039e-07
1.14945e-07
8.55649e-08
8.63298e-08
1.15811e-07
1.51948e-07
1.84256e-07
2.03245e-07
2.03109e-07
1.83862e-07
1.51359e-07
1.15108e-07
8.56229e-08
8.6479e-08
1.16025e-07
1.52249e-07
1.84625e-07
2.03635e-07
2.03462e-07
1.84136e-07
1.51538e-07
1.15206e-07
8.56657e-08
8.60919e-08
1.15618e-07
1.51881e-07
1.84347e-07
2.03472e-07
2.03409e-07
1.84167e-07
1.5162e-07
1.15305e-07
8.57623e-08
8.47875e-08
1.14198e-07
1.50484e-07
1.83136e-07
2.02569e-07
2.02869e-07
1.83967e-07
1.51685e-07
1.15522e-07
8.60423e-08
8.22918e-08
1.1144e-07
1.477e-07
1.80636e-07
2.00617e-07
2.01603e-07
1.83383e-07
1.51657e-07
1.1585e-07
8.65481e-08
7.88261e-08
1.07475e-07
1.43509e-07
1.76646e-07
1.97258e-07
1.99158e-07
1.81935e-07
1.5109e-07
1.15926e-07
8.70097e-08
7.47777e-08
1.02623e-07
1.38082e-07
1.71103e-07
1.92164e-07
1.9497e-07
1.78911e-07
1.49232e-07
1.15055e-07
8.68435e-08
7.06401e-08
9.73444e-08
1.3173e-07
1.64065e-07
1.85058e-07
1.88426e-07
1.73422e-07
1.45042e-07
1.12183e-07
8.50867e-08
6.73168e-08
9.26113e-08
1.25321e-07
1.56118e-07
1.76074e-07
1.79137e-07
1.64607e-07
1.37331e-07
1.05982e-07
8.04263e-08
6.52442e-08
8.90957e-08
1.19761e-07
1.48324e-07
1.66303e-07
1.68113e-07
1.53326e-07
1.26801e-07
9.69927e-08
7.32288e-08
6.51219e-08
8.77206e-08
1.16278e-07
1.42151e-07
1.57383e-07
1.57075e-07
1.41318e-07
1.15134e-07
8.67295e-08
6.47158e-08
6.56497e-08
8.74942e-08
1.14604e-07
1.38566e-07
1.51777e-07
1.49875e-07
1.33326e-07
1.07288e-07
7.97085e-08
5.87531e-08
6.97204e-08
9.09163e-08
1.16209e-07
1.37427e-07
1.47389e-07
1.42614e-07
1.24215e-07
9.77272e-08
7.06884e-08
5.08128e-08
5.84369e-07
8.2859e-07
1.09509e-06
1.31566e-06
1.44047e-06
1.44047e-06
1.31565e-06
1.09509e-06
8.28589e-07
5.84367e-07
2.35126e-07
3.22821e-07
4.26157e-07
5.15491e-07
5.673e-07
5.67299e-07
5.15487e-07
4.26152e-07
3.22816e-07
2.35122e-07
8.23396e-08
1.10265e-07
1.44699e-07
1.75727e-07
1.94053e-07
1.94051e-07
1.7572e-07
1.44689e-07
1.10255e-07
8.23301e-08
1.07674e-07
1.45229e-07
1.90612e-07
2.30862e-07
2.5446e-07
2.54454e-07
2.30844e-07
1.90587e-07
1.45202e-07
1.07648e-07
8.39629e-08
1.12628e-07
1.47896e-07
1.7952e-07
1.98177e-07
1.98165e-07
1.79487e-07
1.4785e-07
1.12577e-07
8.39138e-08
9.09569e-08
1.2232e-07
1.60688e-07
1.94965e-07
2.15148e-07
2.15125e-07
1.94901e-07
1.60597e-07
1.22219e-07
9.08586e-08
8.51287e-08
1.14301e-07
1.50158e-07
1.82285e-07
2.01227e-07
2.01188e-07
1.82179e-07
1.50006e-07
1.14132e-07
8.49638e-08
8.7004e-08
1.16885e-07
1.53551e-07
1.86361e-07
2.05684e-07
2.05624e-07
1.86194e-07
1.53313e-07
1.16621e-07
8.67461e-08
8.55174e-08
1.14828e-07
1.50834e-07
1.83071e-07
2.02053e-07
2.0197e-07
1.82841e-07
1.50506e-07
1.14465e-07
8.51632e-08
8.6012e-08
1.15499e-07
1.51701e-07
1.84099e-07
2.03161e-07
2.03057e-07
1.83811e-07
1.51292e-07
1.15045e-07
8.55683e-08
8.56194e-08
1.14947e-07
1.50965e-07
1.83199e-07
2.0216e-07
2.02043e-07
1.82875e-07
1.50505e-07
1.14438e-07
8.51197e-08
8.57368e-08
1.15106e-07
1.5117e-07
1.83443e-07
2.02425e-07
2.02307e-07
1.83117e-07
1.5071e-07
1.14596e-07
8.52349e-08
8.56099e-08
1.14939e-07
1.50961e-07
1.83203e-07
2.02175e-07
2.02073e-07
1.82922e-07
1.50566e-07
1.14503e-07
8.51787e-08
8.56027e-08
1.1495e-07
1.51001e-07
1.83279e-07
2.02289e-07
2.02218e-07
1.83086e-07
1.50733e-07
1.14657e-07
8.5311e-08
8.55269e-08
1.14874e-07
1.50935e-07
1.83238e-07
2.02283e-07
2.02253e-07
1.83157e-07
1.50828e-07
1.14761e-07
8.54111e-08
8.54983e-08
1.1486e-07
1.50947e-07
1.83286e-07
2.02374e-07
2.02382e-07
1.8331e-07
1.50987e-07
1.14909e-07
8.55404e-08
8.54897e-08
1.14859e-07
1.5096e-07
1.8332e-07
2.02434e-07
2.02466e-07
1.8341e-07
1.51088e-07
1.15001e-07
8.56199e-08
8.55388e-08
1.1492e-07
1.51033e-07
1.83404e-07
2.02528e-07
2.02564e-07
1.83503e-07
1.51168e-07
1.15064e-07
8.56678e-08
8.56187e-08
1.15015e-07
1.51136e-07
1.83511e-07
2.02629e-07
2.02654e-07
1.83576e-07
1.51221e-07
1.15097e-07
8.56877e-08
8.56961e-08
1.15113e-07
1.5125e-07
1.83632e-07
2.02747e-07
2.02759e-07
1.8366e-07
1.51283e-07
1.15138e-07
8.57135e-08
8.57243e-08
1.1516e-07
1.5132e-07
1.83721e-07
2.02846e-07
2.02857e-07
1.83749e-07
1.51358e-07
1.15197e-07
8.57611e-08
8.56881e-08
1.15137e-07
1.5132e-07
1.83749e-07
2.02901e-07
2.02932e-07
1.83835e-07
1.51445e-07
1.1528e-07
8.58353e-08
8.56095e-08
1.15061e-07
1.5126e-07
1.83718e-07
2.02907e-07
2.02974e-07
1.83907e-07
1.51535e-07
1.15376e-07
8.59276e-08
8.55366e-08
1.14985e-07
1.51191e-07
1.83672e-07
2.02897e-07
2.03007e-07
1.83978e-07
1.51631e-07
1.15482e-07
8.60293e-08
8.55111e-08
1.1496e-07
1.51171e-07
1.83668e-07
2.02921e-07
2.03066e-07
1.84069e-07
1.51741e-07
1.15594e-07
8.61321e-08
8.5546e-08
1.15004e-07
1.51226e-07
1.83736e-07
2.03008e-07
2.03171e-07
1.84186e-07
1.5186e-07
1.15701e-07
8.62207e-08
8.56243e-08
1.151e-07
1.51339e-07
1.8386e-07
2.03134e-07
2.03291e-07
1.8429e-07
1.51941e-07
1.15755e-07
8.62537e-08
8.57125e-08
1.15202e-07
1.51452e-07
1.83968e-07
2.03219e-07
2.03336e-07
1.84286e-07
1.5189e-07
1.15673e-07
8.616e-08
8.57712e-08
1.15253e-07
1.51485e-07
1.83961e-07
2.03149e-07
2.03186e-07
1.84058e-07
1.51607e-07
1.15371e-07
8.5876e-08
8.57661e-08
1.15203e-07
1.51371e-07
1.8376e-07
2.02841e-07
2.0277e-07
1.83557e-07
1.51066e-07
1.14849e-07
8.54115e-08
8.5684e-08
1.15041e-07
1.511e-07
1.83362e-07
2.02312e-07
2.02131e-07
1.82857e-07
1.5037e-07
1.14219e-07
8.48731e-08
8.55483e-08
1.14806e-07
1.50736e-07
1.82861e-07
2.01688e-07
2.0143e-07
1.82144e-07
1.49711e-07
1.13661e-07
8.44184e-08
8.54116e-08
1.14583e-07
1.50399e-07
1.82415e-07
2.01163e-07
2.0088e-07
1.81632e-07
1.49288e-07
1.13343e-07
8.41853e-08
8.53303e-08
1.14457e-07
1.50214e-07
1.82182e-07
2.00914e-07
2.00663e-07
1.81488e-07
1.49236e-07
1.13367e-07
8.42494e-08
8.53281e-08
1.14472e-07
1.5025e-07
1.82253e-07
2.01042e-07
2.0087e-07
1.8178e-07
1.49593e-07
1.13746e-07
8.46099e-08
8.53876e-08
1.14609e-07
1.50493e-07
1.82613e-07
2.01527e-07
2.01466e-07
1.82451e-07
1.50283e-07
1.14396e-07
8.51847e-08
8.54701e-08
1.14806e-07
1.50847e-07
1.8314e-07
2.02219e-07
2.02277e-07
1.83313e-07
1.5112e-07
1.15142e-07
8.582e-08
8.55615e-08
1.15007e-07
1.51204e-07
1.83664e-07
2.0289e-07
2.03038e-07
1.84086e-07
1.51828e-07
1.15741e-07
8.63062e-08
8.56986e-08
1.15215e-07
1.51506e-07
1.8405e-07
2.03332e-07
2.03484e-07
1.84484e-07
1.5214e-07
1.1596e-07
8.64539e-08
8.59633e-08
1.15495e-07
1.51776e-07
1.84255e-07
2.03424e-07
2.03428e-07
1.84277e-07
1.51813e-07
1.15576e-07
8.60749e-08
8.6401e-08
1.15859e-07
1.51972e-07
1.84158e-07
2.02947e-07
2.02549e-07
1.83057e-07
1.50395e-07
1.14138e-07
8.4766e-08
8.68927e-08
1.16133e-07
1.5185e-07
1.83442e-07
2.01508e-07
2.00392e-07
1.8035e-07
1.47435e-07
1.11269e-07
8.22301e-08
8.72257e-08
1.16087e-07
1.51169e-07
1.81878e-07
1.98921e-07
1.96855e-07
1.76168e-07
1.43071e-07
1.07201e-07
7.87187e-08
8.75796e-08
1.15975e-07
1.50273e-07
1.79905e-07
1.95733e-07
1.92581e-07
1.71216e-07
1.37997e-07
1.02549e-07
7.47117e-08
8.84737e-08
1.16426e-07
1.49905e-07
1.78375e-07
1.92887e-07
1.88575e-07
1.66491e-07
1.33131e-07
9.80741e-08
7.08089e-08
9.05975e-08
1.18307e-07
1.51143e-07
1.78577e-07
1.91849e-07
1.86397e-07
1.63544e-07
1.29904e-07
9.49863e-08
6.79907e-08
9.37443e-08
1.21421e-07
1.53872e-07
1.80535e-07
1.928e-07
1.86368e-07
1.62772e-07
1.28728e-07
9.36571e-08
6.66057e-08
9.83274e-08
1.26518e-07
1.59249e-07
1.85766e-07
1.97448e-07
1.90161e-07
1.65624e-07
1.30719e-07
9.4901e-08
6.72362e-08
1.01037e-07
1.29414e-07
1.62237e-07
1.8866e-07
2.00084e-07
1.92476e-07
1.67621e-07
1.32441e-07
9.62993e-08
6.83039e-08
1.08839e-07
1.38991e-07
1.73604e-07
2.01284e-07
2.13098e-07
2.04945e-07
1.78714e-07
1.41687e-07
1.03396e-07
7.35975e-08
)
;
    }
    inlet
    {
        type            calculated;
        value           uniform 0;
    }
    outlet
    {
        type            calculated;
        value           uniform 0;
    }
}


// ************************************************************************* //
