/*--------------------------------*- C++ -*----------------------------------*\
| =========                 |                                                 |
| \\      /  F ield         | OpenFOAM: The Open Source CFD Toolbox           |
|  \\    /   O peration     | Version:  2406                                  |
|   \\  /    A nd           | Website:  www.openfoam.com                      |
|    \\/     M anipulation  |                                                 |
\*---------------------------------------------------------------------------*/
FoamFile
{
    version     2.0;
    format      ascii;
    arch        "LSB;label=32;scalar=64";
    class       volVectorField;
    location    "1.2";
    object      momentError;
}
// * * * * * * * * * * * * * * * * * * * * * * * * * * * * * * * * * * * * * //

dimensions      [0 1 -2 0 0 0 0];

internalField   nonuniform List<vector> 
25000
(
(-3.1276e-05 -6.93334e-05 -5.51305e-05)
(-3.04997e-05 -5.99364e-05 -5.92577e-05)
(-2.53702e-05 -5.67675e-05 -6.07252e-05)
(-1.89125e-05 -5.56152e-05 -5.95261e-05)
(-1.18317e-05 -5.49253e-05 -5.80281e-05)
(-3.8168e-06 -5.55097e-05 -5.79397e-05)
(5.60443e-06 -5.74582e-05 -5.90533e-05)
(1.57326e-05 -5.93862e-05 -5.91179e-05)
(2.85032e-05 -5.88973e-05 -5.56631e-05)
(4.35982e-05 -6.23722e-05 -4.91992e-05)
(-2.77723e-05 -6.82833e-05 -6.14966e-05)
(-3.46409e-05 -6.97411e-05 -6.57491e-05)
(-3.37758e-05 -6.98143e-05 -6.65412e-05)
(-2.78459e-05 -6.89094e-05 -6.44866e-05)
(-1.96324e-05 -6.77499e-05 -6.24469e-05)
(-1.02606e-05 -6.76684e-05 -6.2432e-05)
(2.92993e-07 -6.84593e-05 -6.41642e-05)
(1.0836e-05 -6.89518e-05 -6.50391e-05)
(2.01516e-05 -6.71427e-05 -6.19358e-05)
(2.65773e-05 -6.45411e-05 -5.52433e-05)
(-3.03684e-05 -6.31608e-05 -6.33376e-05)
(-3.75532e-05 -7.02748e-05 -6.71805e-05)
(-3.72713e-05 -7.25383e-05 -6.78163e-05)
(-3.10186e-05 -7.20214e-05 -6.55818e-05)
(-2.20756e-05 -7.07094e-05 -6.33563e-05)
(-1.19033e-05 -7.00572e-05 -6.34075e-05)
(-5.61704e-07 -7.00593e-05 -6.54408e-05)
(9.85548e-06 -6.93877e-05 -6.66223e-05)
(1.71569e-05 -6.6268e-05 -6.36225e-05)
(2.00046e-05 -5.98652e-05 -5.76203e-05)
(-3.4891e-05 -5.41122e-05 -6.1509e-05)
(-3.97423e-05 -6.24386e-05 -6.45946e-05)
(-3.84045e-05 -6.54917e-05 -6.51407e-05)
(-3.15061e-05 -6.53228e-05 -6.28567e-05)
(-2.19728e-05 -6.39767e-05 -6.05522e-05)
(-1.14762e-05 -6.2863e-05 -6.06143e-05)
(-8.99563e-08 -6.21286e-05 -6.27834e-05)
(1.01945e-05 -6.07469e-05 -6.41265e-05)
(1.65428e-05 -5.70372e-05 -6.13068e-05)
(1.83461e-05 -5.0143e-05 -5.61685e-05)
(-3.96809e-05 -4.38681e-05 -5.85951e-05)
(-4.19138e-05 -5.15454e-05 -6.1069e-05)
(-3.89689e-05 -5.43365e-05 -6.15659e-05)
(-3.10049e-05 -5.41694e-05 -5.9301e-05)
(-2.09435e-05 -5.2661e-05 -5.70039e-05)
(-1.02241e-05 -5.10907e-05 -5.70979e-05)
(1.18954e-06 -4.97032e-05 -5.93421e-05)
(1.1099e-05 -4.78956e-05 -6.08182e-05)
(1.67374e-05 -4.46535e-05 -5.82265e-05)
(1.77071e-05 -3.93035e-05 -5.3863e-05)
(-4.46042e-05 -3.44123e-05 -5.66852e-05)
(-4.42344e-05 -4.09828e-05 -5.90367e-05)
(-3.95733e-05 -4.29491e-05 -5.96716e-05)
(-3.03655e-05 -4.2352e-05 -5.75234e-05)
(-1.9385e-05 -4.04299e-05 -5.53218e-05)
(-8.24187e-06 -3.81961e-05 -5.55066e-05)
(3.19201e-06 -3.61119e-05 -5.78256e-05)
(1.28807e-05 -3.40526e-05 -5.9334e-05)
(1.78242e-05 -3.15535e-05 -5.67787e-05)
(1.79673e-05 -2.83975e-05 -5.26589e-05)
(-4.91135e-05 -2.5161e-05 -5.57671e-05)
(-4.61171e-05 -3.06679e-05 -5.85126e-05)
(-3.96032e-05 -3.14493e-05 -5.95118e-05)
(-2.8929e-05 -2.98734e-05 -5.75641e-05)
(-1.69725e-05 -2.71113e-05 -5.55227e-05)
(-5.32122e-06 -2.40443e-05 -5.58379e-05)
(6.19247e-06 -2.1178e-05 -5.82085e-05)
(1.55803e-05 -1.88661e-05 -5.96772e-05)
(1.99183e-05 -1.73728e-05 -5.69449e-05)
(1.94207e-05 -1.65526e-05 -5.25713e-05)
(-5.14529e-05 -1.52958e-05 -5.38476e-05)
(-4.55139e-05 -2.07982e-05 -5.71861e-05)
(-3.72492e-05 -2.03291e-05 -5.86114e-05)
(-2.54037e-05 -1.74342e-05 -5.68734e-05)
(-1.28541e-05 -1.35846e-05 -5.50154e-05)
(-1.14572e-06 -9.57083e-06 -5.54297e-05)
(1.00368e-05 -5.91465e-06 -5.7797e-05)
(1.88296e-05 -3.36552e-06 -5.92137e-05)
(2.2544e-05 -2.54145e-06 -5.63781e-05)
(2.16689e-05 -3.44683e-06 -5.15822e-05)
(-5.05136e-05 -4.4103e-06 -4.90162e-05)
(-4.04813e-05 -1.24908e-05 -5.2261e-05)
(-3.02514e-05 -1.14376e-05 -5.41294e-05)
(-1.81083e-05 -7.15123e-06 -5.26997e-05)
(-6.17709e-06 -2.19814e-06 -5.10525e-05)
(4.58412e-06 2.80807e-06 -5.14656e-05)
(1.46656e-05 7.44472e-06 -5.36294e-05)
(2.26651e-05 1.08041e-05 -5.49104e-05)
(2.63748e-05 1.23074e-05 -5.20116e-05)
(2.60086e-05 1.25476e-05 -4.72537e-05)
(-4.94831e-05 3.81583e-06 -4.61749e-05)
(-3.15464e-05 -6.40081e-06 -4.7543e-05)
(-1.84228e-05 -4.751e-06 -4.9503e-05)
(-6.72897e-06 5.00455e-07 -4.86959e-05)
(3.58436e-06 6.22121e-06 -4.75002e-05)
(1.27906e-05 1.21016e-05 -4.77805e-05)
(2.1727e-05 1.80631e-05 -4.93422e-05)
(2.98513e-05 2.31303e-05 -4.99326e-05)
(3.66891e-05 2.70121e-05 -4.69864e-05)
(4.06054e-05 3.23507e-05 -4.35946e-05)
(4.96389e-05 -0.00011037 -0.000200879)
(4.10275e-05 -9.06189e-05 -0.000211816)
(3.93037e-05 -8.04278e-05 -0.000230606)
(3.86706e-05 -7.21109e-05 -0.000236922)
(3.83573e-05 -6.34064e-05 -0.000237253)
(3.91562e-05 -5.55744e-05 -0.000234948)
(4.06686e-05 -4.81463e-05 -0.000228499)
(4.13794e-05 -4.05217e-05 -0.000211795)
(4.23311e-05 -3.1211e-05 -0.000174811)
(4.52402e-05 -3.13111e-05 -0.000125702)
(4.51065e-05 -9.25043e-05 -0.000226745)
(2.78517e-05 -9.10279e-05 -0.000260219)
(1.92671e-05 -9.17527e-05 -0.000290662)
(1.73174e-05 -8.82788e-05 -0.000299406)
(1.83072e-05 -8.28202e-05 -0.000299588)
(2.15508e-05 -7.79287e-05 -0.000299477)
(2.64713e-05 -7.31502e-05 -0.000297765)
(3.00083e-05 -6.6966e-05 -0.000284063)
(2.87664e-05 -5.6418e-05 -0.00024077)
(2.22638e-05 -4.90296e-05 -0.000176821)
(3.45907e-05 -8.06884e-05 -0.000257435)
(1.63999e-05 -8.84742e-05 -0.000303177)
(8.22213e-06 -9.31337e-05 -0.000332212)
(7.53604e-06 -9.11339e-05 -0.000335628)
(9.98305e-06 -8.72529e-05 -0.000332795)
(1.49468e-05 -8.39969e-05 -0.000333154)
(2.21843e-05 -8.13907e-05 -0.000335243)
(2.81995e-05 -7.75055e-05 -0.000327812)
(2.75385e-05 -6.83912e-05 -0.000288274)
(1.75036e-05 -5.72589e-05 -0.000217651)
(2.19139e-05 -6.86525e-05 -0.000274283)
(6.25633e-06 -7.76445e-05 -0.000322481)
(1.29982e-06 -8.29664e-05 -0.000346447)
(2.79157e-06 -8.24327e-05 -0.000346706)
(6.59261e-06 -8.0097e-05 -0.000342983)
(1.26295e-05 -7.79114e-05 -0.000343322)
(2.09269e-05 -7.62212e-05 -0.0003462)
(2.83605e-05 -7.37315e-05 -0.000341702)
(2.9379e-05 -6.68655e-05 -0.000307791)
(1.96122e-05 -5.75327e-05 -0.000238366)
(9.97111e-06 -5.62668e-05 -0.00028415)
(-2.72767e-06 -6.36773e-05 -0.000331566)
(-4.16602e-06 -6.88858e-05 -0.000352532)
(-1.24034e-07 -6.95873e-05 -0.000351686)
(5.40571e-06 -6.83838e-05 -0.000347672)
(1.25673e-05 -6.6887e-05 -0.000347763)
(2.16306e-05 -6.55903e-05 -0.000350343)
(2.99715e-05 -6.38423e-05 -0.000346348)
(3.20776e-05 -5.94407e-05 -0.000315352)
(2.25552e-05 -5.44768e-05 -0.000248493)
(-8.67288e-08 -4.42599e-05 -0.00029139)
(-1.01626e-05 -4.97278e-05 -0.000339223)
(-8.46377e-06 -5.45249e-05 -0.000360308)
(-1.62481e-06 -5.57434e-05 -0.000359039)
(5.98012e-06 -5.50521e-05 -0.000354405)
(1.45462e-05 -5.38256e-05 -0.00035395)
(2.45919e-05 -5.26576e-05 -0.000356081)
(3.35765e-05 -5.15334e-05 -0.000351613)
(3.60386e-05 -4.94522e-05 -0.000320056)
(2.63123e-05 -4.93997e-05 -0.000253121)
(-8.05795e-06 -3.19826e-05 -0.000296114)
(-1.51018e-05 -3.56373e-05 -0.000345213)
(-1.07299e-05 -3.94043e-05 -0.000369683)
(-1.0161e-06 -4.03986e-05 -0.000368785)
(8.87083e-06 -3.96468e-05 -0.00036328)
(1.89608e-05 -3.82974e-05 -0.000361957)
(2.98978e-05 -3.72781e-05 -0.000363346)
(3.9321e-05 -3.69362e-05 -0.000357341)
(4.1401e-05 -3.76941e-05 -0.000321813)
(3.14023e-05 -4.30601e-05 -0.000252437)
(-1.28091e-05 -1.87817e-05 -0.000293645)
(-1.52465e-05 -2.17902e-05 -0.0003398)
(-8.45868e-06 -2.34979e-05 -0.000369403)
(3.43326e-06 -2.32495e-05 -0.000371253)
(1.51043e-05 -2.19373e-05 -0.000365691)
(2.60953e-05 -2.0562e-05 -0.000363219)
(3.73041e-05 -2.00367e-05 -0.000362677)
(4.60801e-05 -2.14563e-05 -0.000352737)
(4.68901e-05 -2.58111e-05 -0.000310966)
(3.75981e-05 -3.60378e-05 -0.0002416)
(-1.32579e-05 -3.24398e-06 -0.00027573)
(-7.17633e-06 -8.55862e-06 -0.000307931)
(2.56297e-06 -8.16435e-06 -0.000337806)
(1.48232e-05 -5.73209e-06 -0.00034419)
(2.62495e-05 -3.74418e-06 -0.000340948)
(3.6473e-05 -2.7803e-06 -0.00033723)
(4.59734e-05 -3.95163e-06 -0.000332219)
(5.2506e-05 -8.22127e-06 -0.000315875)
(5.2625e-05 -1.61043e-05 -0.000271269)
(4.72324e-05 -2.81123e-05 -0.000211201)
(-8.46853e-06 1.41471e-05 -0.000268845)
(1.04723e-05 6.36808e-06 -0.00027269)
(2.5998e-05 7.32544e-06 -0.000287684)
(3.80837e-05 9.97005e-06 -0.000289506)
(4.75091e-05 1.10783e-05 -0.000285504)
(5.53947e-05 1.04719e-05 -0.000279607)
(6.22941e-05 7.28505e-06 -0.000270701)
(6.74784e-05 8.27543e-07 -0.000253264)
(7.13028e-05 -8.89879e-06 -0.000217479)
(7.48891e-05 -1.91039e-05 -0.000177142)
(7.83112e-05 -0.000253493 -0.000475335)
(7.73878e-05 -0.000217699 -0.000446289)
(8.42738e-05 -0.000196323 -0.000442197)
(8.99344e-05 -0.0001777 -0.000415077)
(9.44116e-05 -0.000160261 -0.000379257)
(0.000100016 -0.000145825 -0.000341049)
(0.000106189 -0.00013429 -0.00029666)
(0.000111712 -0.000124877 -0.000234096)
(0.000120312 -0.000112648 -0.000132318)
(0.000137537 -0.000109662 1.63654e-05)
(5.79315e-05 -0.000224346 -0.000494168)
(4.7497e-05 -0.000212046 -0.000509528)
(4.90387e-05 -0.000200806 -0.000531917)
(5.32719e-05 -0.000186561 -0.000521793)
(5.85158e-05 -0.000172233 -0.000499229)
(6.54081e-05 -0.000160172 -0.00047319)
(7.2599e-05 -0.000149985 -0.000439692)
(7.83184e-05 -0.000141272 -0.000384993)
(8.21641e-05 -0.000129923 -0.000280979)
(8.50791e-05 -0.000119862 -0.000128968)
(4.6341e-05 -0.000205507 -0.00053697)
(3.81835e-05 -0.000205286 -0.00057598)
(4.05269e-05 -0.000199774 -0.000605823)
(4.53524e-05 -0.000188736 -0.000600527)
(5.08639e-05 -0.000176956 -0.00058259)
(5.81513e-05 -0.000166739 -0.000561445)
(6.59224e-05 -0.000158227 -0.000533412)
(7.08054e-05 -0.000150165 -0.000483899)
(7.13814e-05 -0.00013941 -0.000382189)
(6.78535e-05 -0.000127076 -0.000226157)
(3.74564e-05 -0.000182561 -0.000558504)
(3.42749e-05 -0.000187101 -0.000607217)
(3.92772e-05 -0.000185169 -0.000640074)
(4.53565e-05 -0.000177083 -0.000637819)
(5.16711e-05 -0.000167246 -0.000621579)
(5.90604e-05 -0.000158518 -0.000602453)
(6.66517e-05 -0.000151561 -0.00057773)
(7.12289e-05 -0.000144589 -0.000531257)
(7.0103e-05 -0.000134839 -0.000433039)
(6.43324e-05 -0.000124589 -0.00027939)
(2.94435e-05 -0.0001558 -0.000573782)
(3.10923e-05 -0.000161499 -0.000625293)
(3.95421e-05 -0.000161505 -0.00065911)
(4.79869e-05 -0.00015565 -0.000657608)
(5.5499e-05 -0.00014743 -0.000640469)
(6.29045e-05 -0.000140129 -0.000621656)
(7.08237e-05 -0.000134543 -0.000600004)
(7.5246e-05 -0.000128937 -0.000555954)
(7.33362e-05 -0.000121697 -0.000460318)
(6.63424e-05 -0.000116719 -0.000310426)
(2.34908e-05 -0.000127631 -0.00059213)
(2.94912e-05 -0.000132779 -0.000641245)
(4.11596e-05 -0.000133701 -0.000674213)
(5.22369e-05 -0.000129589 -0.000672405)
(6.17718e-05 -0.000123385 -0.000655376)
(7.03093e-05 -0.000117334 -0.000636458)
(7.84677e-05 -0.000112199 -0.000614464)
(8.27553e-05 -0.000107888 -0.000570542)
(8.0136e-05 -0.000103503 -0.000475815)
(7.23756e-05 -0.000105293 -0.000329221)
(2.11096e-05 -9.81539e-05 -0.000614331)
(3.03527e-05 -0.000102366 -0.000655976)
(4.49389e-05 -0.000103678 -0.000686088)
(5.90624e-05 -0.000100762 -0.000682355)
(7.08679e-05 -9.57697e-05 -0.000665543)
(8.1329e-05 -9.06915e-05 -0.000646038)
(8.98769e-05 -8.6569e-05 -0.000621144)
(9.38013e-05 -8.37627e-05 -0.000575656)
(9.07195e-05 -8.29673e-05 -0.000480511)
(8.28326e-05 -9.21063e-05 -0.000337082)
(2.40299e-05 -6.66937e-05 -0.000632141)
(3.59346e-05 -7.07203e-05 -0.000658689)
(5.23808e-05 -7.16431e-05 -0.000683921)
(6.91703e-05 -6.95271e-05 -0.000675569)
(8.33677e-05 -6.57436e-05 -0.000655854)
(9.52471e-05 -6.19303e-05 -0.000634003)
(0.000104254 -5.93726e-05 -0.000606491)
(0.000108131 -5.88438e-05 -0.000559607)
(0.000104908 -6.20235e-05 -0.000463666)
(9.79893e-05 -7.80645e-05 -0.000325743)
(3.51723e-05 -3.19341e-05 -0.00062865)
(4.98874e-05 -3.81488e-05 -0.000625963)
(6.74966e-05 -3.86673e-05 -0.000642228)
(8.54897e-05 -3.67387e-05 -0.000627699)
(0.000100818 -3.45654e-05 -0.000602587)
(0.00011333 -3.27474e-05 -0.00057605)
(0.000122431 -3.25885e-05 -0.000544503)
(0.000126507 -3.49386e-05 -0.000494868)
(0.000124665 -4.21849e-05 -0.000400002)
(0.000122404 -6.29996e-05 -0.000275734)
(6.29968e-05 3.41126e-06 -0.000673925)
(8.30288e-05 -4.50492e-06 -0.000610974)
(0.000103575 -5.81915e-06 -0.000596029)
(0.000121912 -5.44149e-06 -0.000562256)
(0.000136962 -5.8961e-06 -0.000523399)
(0.000149366 -6.93192e-06 -0.00048618)
(0.000159025 -9.31542e-06 -0.00044701)
(0.000165192 -1.40878e-05 -0.000394856)
(0.000169778 -2.49474e-05 -0.000309359)
(0.000179954 -4.62428e-05 -0.000206391)
(0.000321814 -0.000338734 -0.00079665)
(0.000314015 -0.000288108 -0.000688583)
(0.000320446 -0.000264282 -0.000641825)
(0.000319596 -0.000244777 -0.000566246)
(0.000309452 -0.000223902 -0.000478308)
(0.000292466 -0.000202466 -0.000385385)
(0.000270372 -0.000178958 -0.000281476)
(0.000245043 -0.00015248 -0.000148363)
(0.000220975 -0.000118793 4.62491e-05)
(0.000207079 -9.72479e-05 0.000353571)
(0.000256134 -0.000271891 -0.000785574)
(0.000248463 -0.00024291 -0.000748001)
(0.000251524 -0.000234892 -0.000743284)
(0.000250783 -0.000225793 -0.000697427)
(0.000242057 -0.000214742 -0.000636556)
(0.000226516 -0.000202632 -0.00057117)
(0.000205677 -0.00018794 -0.000494916)
(0.000180641 -0.000170031 -0.000387768)
(0.000151689 -0.000145369 -0.000208686)
(0.000122011 -0.000124824 6.34957e-05)
(0.000215392 -0.000241096 -0.000835963)
(0.000211639 -0.000226497 -0.000832059)
(0.000218359 -0.000225842 -0.000834444)
(0.000221801 -0.000222 -0.000794738)
(0.000217235 -0.000216693 -0.000744797)
(0.000205066 -0.000209719 -0.00069135)
(0.000187043 -0.000199976 -0.000627763)
(0.000163791 -0.000187191 -0.000535747)
(0.000133588 -0.000168645 -0.000369565)
(9.78745e-05 -0.00015237 -0.000108808)
(0.000185361 -0.000215719 -0.000865365)
(0.000185582 -0.000207569 -0.000872989)
(0.000197885 -0.000210743 -0.000875882)
(0.000207592 -0.000211751 -0.000843778)
(0.000209323 -0.000212109 -0.000810596)
(0.000200911 -0.000208641 -0.000765044)
(0.000184135 -0.000199657 -0.000698323)
(0.000161819 -0.000189448 -0.000609409)
(0.000132198 -0.000175728 -0.00045479)
(9.64805e-05 -0.000166973 -0.000209091)
(0.000163722 -0.000189122 -0.000893234)
(0.00016721 -0.000183774 -0.000901987)
(0.000184783 -0.000189149 -0.000904952)
(0.000200574 -0.000194286 -0.000881845)
(0.000209419 -0.000199412 -0.000873749)
(0.000205497 -0.000197346 -0.0008357)
(0.000189724 -0.000188878 -0.000748869)
(0.000167429 -0.000180625 -0.000653702)
(0.00013895 -0.000172477 -0.000505493)
(0.000104534 -0.00017394 -0.000272481)
(0.000150808 -0.000160327 -0.000931465)
(0.000156235 -0.000155887 -0.000933795)
(0.000177121 -0.000161717 -0.000934229)
(0.000196922 -0.000167998 -0.000908806)
(0.000209294 -0.000173309 -0.000897196)
(0.00020911 -0.000173305 -0.000859162)
(0.000196334 -0.000168072 -0.000775949)
(0.000177144 -0.000164104 -0.00068348)
(0.000151129 -0.000162549 -0.000538577)
(0.000118993 -0.000175586 -0.000314169)
(0.000146368 -0.000127693 -0.000980909)
(0.000153273 -0.000123922 -0.000969331)
(0.000175276 -0.000128933 -0.000964902)
(0.000196338 -0.000134126 -0.000927062)
(0.000209287 -0.000138211 -0.000889615)
(0.000211573 -0.000139397 -0.000844132)
(0.000204449 -0.000140276 -0.000782045)
(0.000190841 -0.000142941 -0.0007001)
(0.000168488 -0.000149613 -0.000555624)
(0.000139748 -0.000175241 -0.000336004)
(0.000152465 -9.12749e-05 -0.00103156)
(0.00016107 -8.85407e-05 -0.000995264)
(0.000183448 -9.2193e-05 -0.000986863)
(0.000204403 -9.61304e-05 -0.000940258)
(0.000217647 -0.000100505 -0.000886942)
(0.000222411 -0.000105041 -0.000833721)
(0.000219935 -0.000111467 -0.000774445)
(0.000210445 -0.000121536 -0.0006922)
(0.00019144 -0.000137292 -0.000542357)
(0.000167712 -0.000175243 -0.000326506)
(0.000173296 -5.0321e-05 -0.00106261)
(0.000184687 -5.08999e-05 -0.000978822)
(0.000207066 -5.31263e-05 -0.000961758)
(0.000227494 -5.65455e-05 -0.000908596)
(0.000240556 -6.28221e-05 -0.000844817)
(0.000246335 -7.19404e-05 -0.000781045)
(0.000245696 -8.53133e-05 -0.000711876)
(0.000238468 -0.000103877 -0.000618998)
(0.000223759 -0.000130069 -0.000463057)
(0.00021088 -0.000179865 -0.000257803)
(0.000232209 -9.19641e-06 -0.00121465)
(0.000244598 -9.93306e-06 -0.00102464)
(0.000269626 -1.33198e-05 -0.00095563)
(0.000289833 -1.91428e-05 -0.000868932)
(0.000302858 -3.04371e-05 -0.000778275)
(0.000309533 -4.6379e-05 -0.000690892)
(0.000311141 -6.82212e-05 -0.000601623)
(0.000307667 -9.69711e-05 -0.000494611)
(0.000301545 -0.000137428 -0.000340019)
(0.000307662 -0.000200398 -0.000142345)
(0.000468554 -0.000643646 -0.00137816)
(0.000462836 -0.000531154 -0.00110319)
(0.000478584 -0.000469192 -0.000951958)
(0.000487388 -0.000419084 -0.000767713)
(0.000485237 -0.000370746 -0.000566053)
(0.000476627 -0.000324667 -0.000351968)
(0.000463003 -0.000279722 -0.000114511)
(0.000445588 -0.000237183 0.000175062)
(0.000430277 -0.000190949 0.000566046)
(0.000438919 -0.0001649 0.00122517)
(0.00033415 -0.000549454 -0.0012918)
(0.000332535 -0.000472884 -0.00113966)
(0.000351397 -0.000431562 -0.00106212)
(0.000364258 -0.000393785 -0.000935169)
(0.000366667 -0.000357183 -0.000788812)
(0.000360449 -0.000323445 -0.000634052)
(0.000347047 -0.00029108 -0.000460437)
(0.000328244 -0.000261547 -0.000237764)
(0.00030589 -0.000230748 9.33898e-05)
(0.000289985 -0.000207495 0.000631005)
(0.00026399 -0.00049646 -0.00133774)
(0.000277784 -0.000442504 -0.00123735)
(0.000304919 -0.000413466 -0.00117012)
(0.000325127 -0.000385189 -0.00105297)
(0.000333598 -0.00035911 -0.000927478)
(0.000330031 -0.000335305 -0.000797716)
(0.000316617 -0.000311996 -0.000654902)
(0.000295359 -0.000290655 -0.000468234)
(0.000266673 -0.000268626 -0.000170924)
(0.000239168 -0.000254005 0.000315699)
(0.000220429 -0.000445169 -0.00137469)
(0.000246817 -0.000405649 -0.00128848)
(0.000283587 -0.00038642 -0.00121759)
(0.000314235 -0.000369132 -0.00110633)
(0.000334424 -0.000355879 -0.00101133)
(0.000333552 -0.000340849 -0.000897411)
(0.00031476 -0.000319122 -0.000757877)
(0.000289317 -0.000302128 -0.000586566)
(0.000256148 -0.000286793 -0.000318114)
(0.000224502 -0.000283021 0.000122968)
(0.000189564 -0.000389278 -0.00142452)
(0.000227101 -0.000360556 -0.00133411)
(0.000273978 -0.000349955 -0.00125843)
(0.000317807 -0.00034552 -0.00115536)
(0.000353855 -0.000348918 -0.00110158)
(0.000357376 -0.00033787 -0.00102861)
(0.000330501 -0.000313083 -0.000837718)
(0.000297939 -0.000297868 -0.000660685)
(0.000261923 -0.000290161 -0.000410768)
(0.00022903 -0.00030058 -4.30284e-06)
(0.000171748 -0.000329362 -0.00150265)
(0.000217944 -0.00030832 -0.00139361)
(0.000270563 -0.000303404 -0.00131029)
(0.00032001 -0.000304675 -0.00120178)
(0.000360702 -0.000313225 -0.00113095)
(0.000369098 -0.00030719 -0.00105812)
(0.00034449 -0.000288672 -0.00088542)
(0.000314445 -0.000280603 -0.000715138)
(0.000279417 -0.000282367 -0.000474229)
(0.000247874 -0.000309039 -8.91155e-05)
(0.000169446 -0.000262933 -0.00161137)
(0.000220818 -0.000247981 -0.00146959)
(0.000274832 -0.000246513 -0.00137532)
(0.000320842 -0.000248153 -0.00124752)
(0.000355235 -0.00025361 -0.00114156)
(0.000367806 -0.000251788 -0.00102885)
(0.00035814 -0.00024968 -0.000903012)
(0.000338279 -0.000254828 -0.000751986)
(0.000308285 -0.000268569 -0.00051124)
(0.000280811 -0.000313335 -0.000135101)
(0.000187229 -0.000188768 -0.0017414)
(0.000241418 -0.000179895 -0.00154675)
(0.000294918 -0.000181249 -0.00144376)
(0.000339069 -0.000185408 -0.00130577)
(0.000370142 -0.000192075 -0.00117139)
(0.000385993 -0.000199437 -0.00104387)
(0.000386719 -0.000210303 -0.000914761)
(0.000374748 -0.000227532 -0.000755849)
(0.000350314 -0.000253495 -0.000502607)
(0.000329332 -0.000316307 -0.000127073)
(0.000234888 -0.000103797 -0.00187205)
(0.000286232 -0.00010415 -0.00158573)
(0.000338134 -0.000111111 -0.00146324)
(0.000381552 -0.000120792 -0.00131208)
(0.000412709 -0.000135077 -0.0011567)
(0.000430906 -0.000152526 -0.00100719)
(0.000436458 -0.00017522 -0.000854134)
(0.000429838 -0.000203868 -0.000670383)
(0.000412673 -0.000242969 -0.00040082)
(0.000406859 -0.000324306 -2.72856e-05)
(0.000354969 -1.8426e-05 -0.00227643)
(0.000398696 -2.51533e-05 -0.00178026)
(0.000450606 -4.30404e-05 -0.00155648)
(0.000494359 -6.34015e-05 -0.00133605)
(0.000526458 -8.91536e-05 -0.00112344)
(0.000547661 -0.000118977 -0.000922116)
(0.000558751 -0.000154405 -0.000721712)
(0.000559641 -0.00019642 -0.000497735)
(0.000555193 -0.000255178 -0.000207212)
(0.000576646 -0.000357071 0.000193434)
(0.000983709 -0.000808606 -0.00209953)
(0.000936508 -0.000605173 -0.00157959)
(0.000935361 -0.000487428 -0.00126188)
(0.000930895 -0.000398958 -0.000907612)
(0.000911008 -0.000318741 -0.000526305)
(0.000875398 -0.000247626 -0.000119884)
(0.00082294 -0.000183635 0.000327428)
(0.000754198 -0.000128818 0.000855282)
(0.000673332 -7.89953e-05 0.00153226)
(0.000616898 -6.62273e-05 0.00271753)
(0.000731748 -0.000678587 -0.00193088)
(0.000715084 -0.000514492 -0.00158756)
(0.000729479 -0.000437305 -0.00138031)
(0.000737451 -0.000378216 -0.00111949)
(0.000728034 -0.000325564 -0.00083306)
(0.000698612 -0.000279719 -0.0005307)
(0.000649257 -0.000238728 -0.000198453)
(0.000581809 -0.000204399 0.00020382)
(0.0004981 -0.000174204 0.000751399)
(0.000419306 -0.00016835 0.00166732)
(0.000595996 -0.000611396 -0.00198651)
(0.000607945 -0.000478274 -0.00170905)
(0.000639853 -0.000423307 -0.00151803)
(0.000661837 -0.00038353 -0.00127609)
(0.000664772 -0.000351011 -0.00102672)
(0.000641546 -0.000322377 -0.000768391)
(0.000593334 -0.000295745 -0.00049065)
(0.000526042 -0.000273809 -0.000148591)
(0.000439919 -0.000255731 0.000340556)
(0.000353019 -0.000264042 0.00114467)
(0.000508616 -0.000559819 -0.00205505)
(0.000537843 -0.000448015 -0.00178978)
(0.000586213 -0.000407757 -0.00159226)
(0.000627621 -0.00038513 -0.00135684)
(0.000653403 -0.000371863 -0.00115416)
(0.000635969 -0.000356924 -0.000922556)
(0.000578985 -0.000334749 -0.000661798)
(0.000507678 -0.000320569 -0.000348583)
(0.000421141 -0.000312884 9.33637e-05)
(0.000335648 -0.000337645 0.000809044)
(0.000448685 -0.000505827 -0.00216017)
(0.000491482 -0.000412036 -0.00187727)
(0.000555352 -0.000384125 -0.00166835)
(0.000620506 -0.000379318 -0.00143635)
(0.000678976 -0.000390693 -0.00127016)
(0.000667528 -0.000382975 -0.0011313)
(0.00059202 -0.000358123 -0.000796532)
(0.000512008 -0.000348002 -0.000482811)
(0.000426402 -0.000351749 -7.34081e-05)
(0.000345188 -0.000396448 0.000577679)
(0.000413975 -0.000446203 -0.0023195)
(0.000466176 -0.000366615 -0.0019942)
(0.000538532 -0.000346863 -0.00176812)
(0.000611402 -0.000349448 -0.00152546)
(0.000675194 -0.000369551 -0.0013208)
(0.000671569 -0.000372832 -0.001182)
(0.000601597 -0.000357199 -0.000887587)
(0.000528593 -0.000357878 -0.000585637)
(0.000449766 -0.00037565 -0.000192709)
(0.000376207 -0.000442504 0.000418603)
(0.000402724 -0.000375918 -0.00253732)
(0.000461857 -0.000308826 -0.00214403)
(0.000536005 -0.000294418 -0.00189389)
(0.000599543 -0.000297394 -0.00162381)
(0.000644762 -0.000313637 -0.00139986)
(0.000647536 -0.000324041 -0.0011703)
(0.000609207 -0.000333671 -0.000934683)
(0.000557073 -0.000354765 -0.000659488)
(0.000490736 -0.000390194 -0.0002685)
(0.000428414 -0.000482055 0.000326404)
(0.000418488 -0.000295484 -0.00280863)
(0.000483088 -0.000239251 -0.00231356)
(0.000558307 -0.00022964 -0.00203971)
(0.000617243 -0.000235854 -0.00175201)
(0.000652847 -0.000253521 -0.0014838)
(0.000660317 -0.000276944 -0.00122924)
(0.00064204 -0.000307062 -0.000977168)
(0.000605356 -0.000347408 -0.000686746)
(0.000551476 -0.000401512 -0.000278206)
(0.00050414 -0.000518509 0.000319001)
(0.000470183 -0.000202488 -0.00312081)
(0.000536355 -0.000158413 -0.00246349)
(0.000611643 -0.000154506 -0.00214697)
(0.000669851 -0.000167594 -0.00182867)
(0.000704768 -0.000195142 -0.00152033)
(0.000716233 -0.00023313 -0.00122641)
(0.000707061 -0.00028206 -0.00093244)
(0.00068068 -0.000341865 -0.000602329)
(0.000641206 -0.000418218 -0.000167756)
(0.000622999 -0.000563771 0.000441862)
(0.00062378 -0.000111966 -0.00396697)
(0.000681215 -6.77391e-05 -0.002936)
(0.000761118 -7.49901e-05 -0.00243713)
(0.000822597 -0.000100851 -0.00198896)
(0.000861866 -0.000144404 -0.00157327)
(0.000880608 -0.000201147 -0.00118402)
(0.000882623 -0.000271893 -0.000803216)
(0.000869462 -0.00035671 -0.000396046)
(0.000850246 -0.000469852 9.53318e-05)
(0.000874298 -0.000654925 0.000795962)
(0.00137473 -0.00120937 -0.0029404)
(0.00131559 -0.000878892 -0.002066)
(0.00132328 -0.000690965 -0.00149586)
(0.00133114 -0.00056148 -0.000887486)
(0.0013174 -0.000454505 -0.000238338)
(0.0012824 -0.00036688 0.000457586)
(0.00122329 -0.000295451 0.00122653)
(0.00114017 -0.000244847 0.00212631)
(0.00104001 -0.000211359 0.00325382)
(0.000988694 -0.000247642 0.00529006)
(0.000983899 -0.00110036 -0.00271442)
(0.000969544 -0.000822845 -0.0020795)
(0.00101076 -0.000680879 -0.00166899)
(0.00104438 -0.000576989 -0.00120471)
(0.00105342 -0.000492539 -0.000706583)
(0.00103351 -0.000425845 -0.000179917)
(0.000982821 -0.000374313 0.000396386)
(0.000904131 -0.000342528 0.00107777)
(0.000802971 -0.000329137 0.00196183)
(0.0007198 -0.000363485 0.00349022)
(0.000784081 -0.00103292 -0.00283859)
(0.000818446 -0.000797689 -0.00227778)
(0.000886959 -0.000683063 -0.00188744)
(0.000940935 -0.000601286 -0.00145275)
(0.00096771 -0.000539707 -0.00101179)
(0.000956025 -0.000491767 -0.000553365)
(0.000905421 -0.000454733 -6.3908e-05)
(0.00082456 -0.000435012 0.000522901)
(0.000718589 -0.000433179 0.00131052)
(0.00062516 -0.000483715 0.00262673)
(0.000662706 -0.000966403 -0.00300368)
(0.000727362 -0.000763471 -0.00244298)
(0.000818961 -0.000670931 -0.00203828)
(0.000898835 -0.000613745 -0.00160904)
(0.000957522 -0.000580252 -0.00123249)
(0.000951563 -0.000548452 -0.000812874)
(0.000883984 -0.000514274 -0.000360043)
(0.000794209 -0.00050163 0.000179583)
(0.000685099 -0.00051002 0.000892264)
(0.000592318 -0.000578924 0.00204846)
(0.000577897 -0.0008856 -0.00323306)
(0.000667317 -0.000712557 -0.00262861)
(0.000781818 -0.000641187 -0.00219866)
(0.000894638 -0.000612877 -0.00176066)
(0.0010012 -0.000617863 -0.0014098)
(0.00100175 -0.000595524 -0.00114873)
(0.00090168 -0.000552985 -0.000593535)
(0.000795829 -0.000542594 -6.42799e-05)
(0.000686009 -0.000563062 0.000593338)
(0.000598647 -0.000655186 0.00163327)
(0.00052496 -0.000792165 -0.00355064)
(0.000633387 -0.000642898 -0.00286238)
(0.000761066 -0.00058684 -0.00239691)
(0.000883577 -0.000571297 -0.0019377)
(0.000996122 -0.000588647 -0.00151397)
(0.00100739 -0.000583962 -0.00125142)
(0.000913359 -0.000554095 -0.000768785)
(0.000815568 -0.000557028 -0.000258834)
(0.000714144 -0.000593557 0.000368886)
(0.000637587 -0.000712292 0.00133519)
(0.000502348 -0.000682055 -0.0039678)
(0.000623632 -0.000552004 -0.00315312)
(0.000755599 -0.000506554 -0.00263848)
(0.000865212 -0.000492567 -0.00213698)
(0.000947192 -0.000502648 -0.0017169)
(0.000965775 -0.000509921 -0.00129568)
(0.000919995 -0.0005187 -0.000882385)
(0.000852555 -0.000549656 -0.000408816)
(0.000768849 -0.00060719 0.000211013)
(0.000708886 -0.000756416 0.00114295)
(0.000513563 -0.000556608 -0.00449096)
(0.000643192 -0.000441913 -0.00349454)
(0.000777329 -0.000405562 -0.00292799)
(0.000881841 -0.000398557 -0.0023918)
(0.000950511 -0.000412391 -0.00190401)
(0.000976371 -0.00043788 -0.0014429)
(0.000961286 -0.00047567 -0.000993002)
(0.000917489 -0.000530844 -0.000496557)
(0.000852462 -0.000609394 0.000143635)
(0.000814398 -0.000788602 0.00107425)
(0.00056797 -0.000414234 -0.00512513)
(0.000695826 -0.000314078 -0.0038551)
(0.000830207 -0.000288276 -0.00320738)
(0.000935877 -0.000293093 -0.00261003)
(0.00100675 -0.000321837 -0.00205102)
(0.00104155 -0.000367162 -0.0015246)
(0.00104329 -0.000428418 -0.00100765)
(0.00101779 -0.000505239 -0.000452325)
(0.000975528 -0.000607481 0.000225408)
(0.000979135 -0.000820158 0.00118031)
(0.000747537 -0.000287158 -0.00671635)
(0.000860325 -0.000181967 -0.0048098)
(0.000999333 -0.000170341 -0.00385261)
(0.00111256 -0.000192692 -0.00302979)
(0.00119404 -0.000241386 -0.00228511)
(0.00124465 -0.000308686 -0.00159648)
(0.00126848 -0.000393582 -0.000932833)
(0.00126807 -0.000495641 -0.000244973)
(0.00125998 -0.000638536 0.000543049)
(0.00132497 -0.000893691 0.0016689)
(0.00189988 -0.00152637 -0.00392032)
(0.00183076 -0.00114056 -0.00257058)
(0.00183999 -0.000896707 -0.00164129)
(0.00183919 -0.000711539 -0.00068127)
(0.00180261 -0.000551465 0.000334042)
(0.00172874 -0.00042097 0.00142382)
(0.00161322 -0.000320292 0.00262849)
(0.00145721 -0.000257328 0.00402779)
(0.0012674 -0.000234538 0.00575406)
(0.00112717 -0.000330024 0.00895837)
(0.00144323 -0.00135121 -0.00368654)
(0.00142935 -0.00101939 -0.002648)
(0.00147691 -0.000843885 -0.0019404)
(0.00150801 -0.000707176 -0.00118631)
(0.00150072 -0.000591153 -0.000390425)
(0.00144727 -0.000499166 0.000449578)
(0.00134522 -0.000432134 0.00136299)
(0.00119847 -0.000397784 0.00242229)
(0.00101357 -0.000398587 0.00374805)
(0.000846507 -0.000489564 0.00609974)
(0.00120021 -0.00126224 -0.00393552)
(0.00124266 -0.000977139 -0.00297373)
(0.00132512 -0.000840462 -0.00229218)
(0.00138403 -0.000738999 -0.00158148)
(0.00140254 -0.000659883 -0.00086712)
(0.00136204 -0.000597446 -0.000124348)
(0.0012619 -0.000552451 0.000662847)
(0.00111644 -0.000535807 0.00158615)
(0.000931192 -0.000551295 0.00276779)
(0.000758556 -0.000660402 0.0047645)
(0.00104012 -0.00119081 -0.0042499)
(0.00111422 -0.000942354 -0.00327116)
(0.0012264 -0.000834021 -0.00256785)
(0.00132232 -0.000767591 -0.00186261)
(0.00138722 -0.000729142 -0.00123451)
(0.00135686 -0.0006904 -0.000546247)
(0.00123619 -0.000651358 0.000178369)
(0.00108286 -0.000645303 0.00103202)
(0.000900483 -0.000674055 0.00210367)
(0.00073625 -0.000804048 0.00383874)