/*--------------------------------*- C++ -*----------------------------------*\
| =========                 |                                                 |
| \\      /  F ield         | OpenFOAM: The Open Source CFD Toolbox           |
|  \\    /   O peration     | Version:  2406                                  |
|   \\  /    A nd           | Website:  www.openfoam.com                      |
|    \\/     M anipulation  |                                                 |
\*---------------------------------------------------------------------------*/
FoamFile
{
    version     2.0;
    format      ascii;
    arch        "LSB;label=32;scalar=64";
    class       volScalarField;
    location    "1.2";
    object      nu;
}
// * * * * * * * * * * * * * * * * * * * * * * * * * * * * * * * * * * * * * //

dimensions      [0 2 -1 0 0 0 0];

internalField   nonuniform List<scalar> 
25000
(
0.00649252
0.00656621
0.00659827
0.0066045
0.00660262
0.00660262
0.0066045
0.00659827
0.00656621
0.00649252
0.00656621
0.00659262
0.00658044
0.00656683
0.00655947
0.00655947
0.00656682
0.00658044
0.00659262
0.00656621
0.00659827
0.00658044
0.00655571
0.00654081
0.00653481
0.0065348
0.00654081
0.00655571
0.00658044
0.00659827
0.0066045
0.00656683
0.00654081
0.00652904
0.00652556
0.00652556
0.00652904
0.00654081
0.00656682
0.0066045
0.00660262
0.00655947
0.00653481
0.00652556
0.00652371
0.00652371
0.00652556
0.0065348
0.00655947
0.00660262
0.00660262
0.00655947
0.00653481
0.00652556
0.00652371
0.00652371
0.00652556
0.0065348
0.00655947
0.00660262
0.0066045
0.00656683
0.00654081
0.00652904
0.00652556
0.00652556
0.00652904
0.00654081
0.00656682
0.0066045
0.00659827
0.00658044
0.00655571
0.00654081
0.00653481
0.00653481
0.00654081
0.00655571
0.00658044
0.00659827
0.00656621
0.00659262
0.00658044
0.00656683
0.00655947
0.00655947
0.00656683
0.00658044
0.00659262
0.00656621
0.00649252
0.00656621
0.00659827
0.0066045
0.00660262
0.00660262
0.0066045
0.00659827
0.00656621
0.00649252
0.00616048
0.00633618
0.00655019
0.00671907
0.00680784
0.00680784
0.00671908
0.00655021
0.0063362
0.0061605
0.00633618
0.00671078
0.00697555
0.00708518
0.00711328
0.00711328
0.00708518
0.00697555
0.00671079
0.0063362
0.00655019
0.00697555
0.00713288
0.00711484
0.00708405
0.00708405
0.00711483
0.00713288
0.00697555
0.00655021
0.00671906
0.00708518
0.00711484
0.00704193
0.00699707
0.00699707
0.00704192
0.00711483
0.00708518
0.00671908
0.00680783
0.00711329
0.00708406
0.00699708
0.00695034
0.00695034
0.00699707
0.00708404
0.00711328
0.00680784
0.00680783
0.00711329
0.00708406
0.00699708
0.00695034
0.00695034
0.00699707
0.00708405
0.00711328
0.00680784
0.00671906
0.00708518
0.00711485
0.00704194
0.00699708
0.00699707
0.00704193
0.00711484
0.00708518
0.00671907
0.00655019
0.00697555
0.00713289
0.00711485
0.00708406
0.00708405
0.00711484
0.00713288
0.00697555
0.0065502
0.00633618
0.00671077
0.00697555
0.00708518
0.00711328
0.00711328
0.00708518
0.00697555
0.00671079
0.00633619
0.00616048
0.00633618
0.00655019
0.00671906
0.00680783
0.00680783
0.00671907
0.0065502
0.00633619
0.00616049
0.00583443
0.00590605
0.00604067
0.00616693
0.00624291
0.00624292
0.00616696
0.00604071
0.00590609
0.00583447
0.00590605
0.00614406
0.00638752
0.0065824
0.00669195
0.00669197
0.00658243
0.00638757
0.0061441
0.00590609
0.00604067
0.00638751
0.0067352
0.00699949
0.00713423
0.00713425
0.00699953
0.00673526
0.00638757
0.00604071
0.00616692
0.00658238
0.00699947
0.00729501
0.00742075
0.00742076
0.00729505
0.00699954
0.00658244
0.00616696
0.00624288
0.00669192
0.0071342
0.00742073
0.00752181
0.00752182
0.00742077
0.00713426
0.00669198
0.00624293
0.00624288
0.00669191
0.00713419
0.00742072
0.00752181
0.00752182
0.00742077
0.00713425
0.00669197
0.00624292
0.00616691
0.00658237
0.00699946
0.00729499
0.00742073
0.00742075
0.00729503
0.00699952
0.00658243
0.00616695
0.00604066
0.0063875
0.00673518
0.00699946
0.00713421
0.00713422
0.00699951
0.00673524
0.00638755
0.0060407
0.00590604
0.00614404
0.0063875
0.00658238
0.00669193
0.00669194
0.00658241
0.00638754
0.00614408
0.00590607
0.00583442
0.00590604
0.00604066
0.00616691
0.00624289
0.0062429
0.00616694
0.00604069
0.00590607
0.00583445
0.00580623
0.00584226
0.0059449
0.00604706
0.00611054
0.00611056
0.00604711
0.00594497
0.00584234
0.0058063
0.00584226
0.00602293
0.00621807
0.00638577
0.00648732
0.00648735
0.00638585
0.00621816
0.00602302
0.00584234
0.00594489
0.00621806
0.00651388
0.00678203
0.00695493
0.00695498
0.00678214
0.006514
0.00621816
0.00594497
0.00604704
0.00638574
0.006782
0.00719897
0.00752514
0.00752523
0.00719914
0.00678215
0.00638586
0.00604712
0.0061105
0.00648725
0.00695484
0.00752503
0.00811334
0.00811353
0.00752528
0.00695502
0.00648738
0.00611058
0.00611049
0.00648724
0.00695482
0.00752499
0.00811325
0.00811345
0.00752524
0.006955
0.00648737
0.00611057
0.00604702
0.00638572
0.00678196
0.0071989
0.00752504
0.00752513
0.00719907
0.00678211
0.00638583
0.0060471
0.00594487
0.00621802
0.00651384
0.00678197
0.00695486
0.0069549
0.00678207
0.00651395
0.00621812
0.00594494
0.00584224
0.0060229
0.00621803
0.00638573
0.00648727
0.0064873
0.0063858
0.00621811
0.00602298
0.00584231
0.00580621
0.00584224
0.00594487
0.00604703
0.00611051
0.00611053
0.00604708
0.00594494
0.00584231
0.00580628
0.00577339
0.00579392
0.00588195
0.00597266
0.00602997
0.00603001
0.00597277
0.00588209
0.00579407
0.00577353
0.00579392
0.00594854
0.0061195
0.00627013
0.00636376
0.00636382
0.00627027
0.00611967
0.00594871
0.00579407
0.00588194
0.00611948
0.00638178
0.00663061
0.00680119
0.00680128
0.00663081
0.006382
0.00611968
0.0058821
0.00597263
0.00627007
0.00663055
0.00704459
0.00742163
0.00742185
0.00704493
0.00663084
0.00627029
0.00597279
0.00602988
0.00636363
0.006801
0.00742137
0.00837469
0.00837554
0.00742195
0.00680136
0.00636387
0.00603005
0.00602987
0.00636361
0.00680096
0.00742128
0.00837433
0.00837517
0.00742185
0.00680132
0.00636385
0.00603003
0.00597259
0.00627001
0.00663047
0.00704445
0.00742138
0.0074216
0.00704478
0.00663075
0.00627023
0.00597274
0.00588189
0.00611941
0.00638169
0.00663049
0.00680104
0.00680113
0.00663069
0.00638191
0.00611961
0.00588204
0.00579387
0.00594847
0.00611942
0.00627004
0.00636367
0.00636372
0.00627017
0.00611959
0.00594864
0.00579401
0.00577335
0.00579387
0.00588189
0.0059726
0.00602991
0.00602994
0.0059727
0.00588203
0.00579401
0.00577348
0.00577363
0.00578961
0.00587273
0.00595935
0.00601441
0.00601448
0.00595953
0.00587298
0.00578988
0.00577387
0.00578962
0.00593531
0.00609667
0.00623987
0.00632981
0.00632991
0.00624012
0.00609698
0.00593562
0.00578988
0.00587272
0.00609664
0.00634405
0.00658199
0.00674842
0.00674858
0.00658235
0.00634444
0.00609699
0.00587299
0.00595928
0.00623977
0.00658188
0.00698419
0.00736448
0.00736487
0.0069848
0.0065824
0.00624016
0.00595956
0.00601425
0.00632957
0.00674808
0.00736401
0.00839708
0.00839885
0.00736505
0.00674871
0.00633
0.00601454
0.00601422
0.00632953
0.00674801
0.00736384
0.0083963
0.00839806
0.00736488
0.00674864
0.00632996
0.00601451
0.0059592
0.00623967
0.00658173
0.00698393
0.00736402
0.00736441
0.00698453
0.00658224
0.00624006
0.00595948
0.00587261
0.00609651
0.00634389
0.00658178
0.00674815
0.00674831
0.00658213
0.00634427
0.00609686
0.00587289
0.00578951
0.00593519
0.00609653
0.00623971
0.00632963
0.00632972
0.00623995
0.00609683
0.00593549
0.00578977
0.00577353
0.00578951
0.00587262
0.00595923
0.00601429
0.00601436
0.00595941
0.00587287
0.00578977
0.00577377
0.0057658
0.00577908
0.00585979
0.0059445
0.00599854
0.00599865
0.00594481
0.0058602
0.00577952
0.00576621
0.00577909
0.0059205
0.00607779
0.00621778
0.00630602
0.00630618
0.00621819
0.0060783
0.00592101
0.00577952
0.00585976
0.00607774
0.00631887
0.00655172
0.00671565
0.00671592
0.00655232
0.00631952
0.00607832
0.00586022
0.00594438
0.0062176
0.00655153
0.00694693
0.00732479
0.00732546
0.00694795
0.00655239
0.00621826
0.00594486
0.00599827
0.00630562
0.00671508
0.007324
0.0083691
0.00837218
0.00732576
0.00671613
0.00630634
0.00599876
0.00599821
0.00630555
0.00671496
0.0073237
0.00836771
0.00837077
0.00732545
0.00671601
0.00630626
0.00599871
0.00594424
0.00621741
0.00655127
0.00694648
0.007324
0.00732466
0.00694748
0.00655212
0.00621807
0.00594472
0.00585957
0.0060775
0.00631857
0.00655134
0.00671518
0.00671544
0.00655193
0.00631922
0.00607809
0.00586003
0.00577888
0.00592026
0.00607753
0.00621749
0.0063057
0.00630586
0.00621789
0.00607804
0.00592078
0.00577932
0.00576561
0.00577888
0.00585958
0.00594429
0.00599832
0.00599843
0.00594459
0.00586
0.00577933
0.00576602
0.00576598
0.00577834
0.00585813
0.0059421
0.00599576
0.00599594
0.00594257
0.00585876
0.00577901
0.00576658
0.00577835
0.00591806
0.00607359
0.00621222
0.00629978
0.00630003
0.00621285
0.00607439
0.00591885
0.00577901
0.00585807
0.00607351
0.00631185
0.00654247
0.00670531
0.00670573
0.0065434
0.00631288
0.00607442
0.00585878
0.0059419
0.00621192
0.00654216
0.00693431
0.00731066
0.00731171
0.00693591
0.00654351
0.00621295
0.00594264
0.00599533
0.00629914
0.00670439
0.00730939
0.00835438
0.00835929
0.00731217
0.00670606
0.00630026
0.00599609
0.00599524
0.00629902
0.00670419
0.0073089
0.00835209
0.00835694
0.00731166
0.00670585
0.00630014
0.005996
0.00594167
0.00621162
0.00654173
0.00693356
0.00730936
0.00731039
0.00693513
0.00654305
0.00621264
0.0059424
0.00585776
0.00607313
0.00631137
0.00654184
0.00670452
0.00670493
0.00654275
0.00631237
0.00607402
0.00585845
0.00577801
0.00591767
0.00607316
0.00621173
0.00629925
0.00629949
0.00621234
0.00607393
0.00591845
0.00577866
0.00576566
0.005778
0.00585778
0.00594174
0.00599539
0.00599556
0.0059422
0.0058584
0.00577867
0.00576626
0.00576392
0.00577562
0.00585487
0.00593846
0.00599196
0.00599221
0.00593914
0.00585578
0.00577659
0.00576479
0.00577563
0.00591435
0.00606903
0.00620705
0.00629434
0.00629471
0.00620797
0.0060702
0.0059155
0.00577659
0.00585477
0.0060689
0.00630597
0.00653558
0.00669798
0.0066986
0.00653696
0.00630748
0.00607024
0.00585581
0.00593814
0.00620659
0.00653511
0.00692569
0.00730129
0.00730286
0.00692807
0.00653711
0.00620811
0.00593923
0.0059913
0.00629336
0.00669659
0.00729937
0.00834294
0.00835027
0.0073035
0.00669906
0.00629502
0.00599241
0.00599118
0.0062932
0.0066963
0.00729864
0.00833941
0.00834659
0.00730269
0.00669873
0.00629482
0.00599227
0.00593783
0.00620616
0.00653447
0.00692456
0.00729928
0.00730078
0.00692684
0.00653638
0.00620761
0.00593885
0.00585435
0.00606836
0.00630526
0.00653462
0.00669676
0.00669734
0.00653592
0.00630666
0.00606959
0.00585528
0.00577517
0.0059138
0.0060684
0.0062063
0.00629351
0.00629385
0.00620715
0.00606946
0.00591485
0.00577602
0.00576351
0.00577516
0.00585437
0.00593792
0.00599138
0.00599161
0.00593854
0.00585519
0.00577603
0.00576427
0.00576392
0.00577537
0.00585442
0.00593789
0.00599137
0.00599171
0.00593881
0.00585566
0.00577669
0.00576507
0.00577539
0.00591368
0.00606796
0.00620572
0.00629297
0.00629348
0.00620699
0.00606956
0.00591525
0.00577669
0.00585429
0.00606777
0.0063042
0.00653337
0.0066957
0.00669657
0.0065353
0.00630629
0.00606961
0.00585569
0.00593744
0.00620507
0.00653271
0.00692256
0.00729806
0.00730027
0.0069259
0.00653549
0.00620717
0.00593892
0.00599046
0.00629161
0.00669375
0.00729535
0.00833816
0.00834844
0.00730111
0.00669716
0.00629387
0.00599196
0.00599033
0.0062914
0.00669337
0.00729433
0.0083331
0.00834304
0.00729992
0.00669667
0.00629357
0.00599174
0.00593709
0.00620455
0.00653187
0.00692101
0.00729518
0.00729722
0.00692408
0.0065344
0.00620642
0.00593836
0.00585381
0.00606712
0.00630328
0.00653206
0.00669397
0.00669474
0.00653376
0.00630509
0.00606866
0.00585493
0.00577489
0.00591304
0.00606716
0.00620473
0.0062918
0.00629223
0.0062058
0.00606848
0.0059143
0.00577586
0.0057635
0.00577487
0.00585383
0.00593719
0.00599057
0.00599086
0.00593794
0.00585481
0.00577589
0.00576433
0.00576329
0.00577457
0.0058535
0.00593692
0.00599043
0.00599087
0.00593808
0.00585505
0.0057762
0.00576468
0.0057746
0.00591261
0.00606669
0.00620436
0.00629167
0.00629232
0.006206
0.00606873
0.00591459
0.00577619
0.00585334
0.00606645
0.00630255
0.00653155
0.00669397
0.00669511
0.00653407
0.00630526
0.00606879
0.00585508
0.00593636
0.00620353
0.00653069
0.00692017
0.00729581
0.00729873
0.00692456
0.0065343
0.00620622
0.00593821
0.00598931
0.00628992
0.00669142
0.00729225
0.00833451
0.00834805
0.00729978
0.00669584
0.00629278
0.00599115
0.00598918
0.0062897
0.00669098
0.00729096
0.00832782
0.00834067
0.00729813
0.00669516
0.00629238
0.00599087
0.00593603
0.00620298
0.00652972
0.00691825
0.00729203
0.0072946
0.00692207
0.00653281
0.00620521
0.00593747
0.00585291
0.00606579
0.00630153
0.00652997
0.00669174
0.00669266
0.00653199
0.00630364
0.00606753
0.00585409
0.00577419
0.00591201
0.00606585
0.00620321
0.00629021
0.0062907
0.00620443
0.00606731
0.00591335
0.00577514
0.00576302
0.00577417
0.00585293
0.00593616
0.00598949
0.0059898
0.00593697
0.00585397
0.00577519
0.00576378
0.00576322
0.0057744
0.00585329
0.0059367
0.00599026
0.00599078
0.00593805
0.00585506
0.00577623
0.00576471
0.00577447
0.00591233
0.00606631
0.00620395
0.00629133
0.00629211
0.0062059
0.00606869
0.0059146
0.00577621
0.00585314
0.00606603
0.00630195
0.00653088
0.00669345
0.00669484
0.00653393
0.00630517
0.00606876
0.00585509
0.0059361
0.00620299
0.00652985
0.00691915
0.00729503
0.00729863
0.00692451
0.0065342
0.00620614
0.00593819
0.00598903
0.00628932
0.0066904
0.0072907
0.00833267
0.00834932
0.00729988
0.00669568
0.00629264
0.00599109
0.00598894
0.00628913
0.00668995
0.00728923
0.00832459
0.00834006
0.00729779
0.00669484
0.00629215
0.00599075
0.00593588
0.00620253
0.00652889
0.00691701
0.00729054
0.00729353
0.00692139
0.00653235
0.00620492
0.00593731
0.00585288
0.00606552
0.00630099
0.00652919
0.00669087
0.00669189
0.00653139
0.00630321
0.00606725
0.00585394
0.00577428
0.00591193
0.0060656
0.00620281
0.00628974
0.00629024
0.00620404
0.00606702
0.00591316
0.00577503
0.00576323
0.00577426
0.00585292
0.00593605
0.00598932
0.00598962
0.00593681
0.00585385
0.00577511
0.00576373
0.00576306
0.00577415
0.00585297
0.00593637
0.00598995
0.00599049
0.00593779
0.0058548
0.00577596
0.00576443
0.00577425
0.00591199
0.00606589
0.00620351
0.00629094
0.00629179
0.00620563
0.00606842
0.00591432
0.00577593
0.00585289
0.00606563
0.00630141
0.00653029
0.00669296
0.00669453
0.0065337
0.00630493
0.00606849
0.00585482
0.00593583
0.00620254
0.0065292
0.00691835
0.0072944
0.00729852
0.00692441
0.00653399
0.00620588
0.00593792
0.00598878
0.00628885
0.00668965
0.00728957
0.00833126
0.00835025
0.00729991
0.00669545
0.00629235
0.0059908
0.00598875
0.00628873
0.00668926
0.00728808
0.00832239
0.00833963
0.00729749
0.00669449
0.00629181
0.00599044
0.00593579
0.00620226
0.0065284
0.00691624
0.00728957
0.00729277
0.00692084
0.00653189
0.00620452
0.00593697
0.0058529
0.00606539
0.0063007
0.00652874
0.00669031
0.00669132
0.00653087
0.00630275
0.00606686
0.0058536
0.00577439
0.00591193
0.00606548
0.00620258
0.00628941
0.00628986
0.00620365
0.00606665
0.00591281
0.00577472
0.00576341
0.00577436
0.00585294
0.00593598
0.00598916
0.00598939
0.00593655
0.00585358
0.00577484
0.00576348
0.00576312
0.00577415
0.00585291
0.00593625
0.0059898
0.00599033
0.0059376
0.00585459
0.00577573
0.00576419
0.0057743
0.00591196
0.00606577
0.00620333
0.00629074
0.00629159
0.00620542
0.0060682
0.00591407
0.00577568
0.00585293
0.00606557
0.00630124
0.00653004
0.00669271
0.00669433
0.00653351
0.00630471
0.00606824
0.00585458
0.00593589
0.00620248
0.00652899
0.00691801
0.00729408
0.0072984
0.00692428
0.0065338
0.00620565
0.0059377
0.00598888
0.00628884
0.00668948
0.00728917
0.0083306
0.00835052
0.00729984
0.00669526
0.00629213
0.00599059
0.00598893
0.00628882
0.00668921
0.00728783
0.00832181
0.00833944
0.00729727
0.00669424
0.00629156
0.00599022
0.00593605
0.00620246
0.00652849
0.00691621
0.00728939
0.00729251
0.00692055
0.00653161
0.00620426
0.00593675
0.00585323
0.00606569
0.00630091
0.00652885
0.00669028
0.00669117
0.00653064
0.0063025
0.00606661
0.00585338
0.00577477
0.00591229
0.00606577
0.00620277
0.00628948
0.00628982
0.00620352
0.00606646
0.00591261
0.00577453
0.00576379
0.00577473
0.00585325
0.00593621
0.00598929
0.00598942
0.00593648
0.00585346
0.00577469
0.00576332
0.00576321
0.0057742
0.00585289
0.00593616
0.00598963
0.00599009
0.00593731
0.00585427
0.0057754
0.00576389
0.00577438
0.00591199
0.00606573
0.0062032
0.00629051
0.00629129
0.00620506
0.00606781
0.00591368
0.00577534
0.00585302
0.00606562
0.0063012
0.00652989
0.00669243
0.00669395
0.00653308
0.00630427
0.00606783
0.00585422
0.00593602
0.00620257
0.006529
0.00691789
0.00729374
0.00729787
0.00692377
0.00653333
0.00620522
0.00593734
0.00598907
0.00628902
0.00668962
0.00728925
0.00833046
0.00834944
0.00729922
0.00669478
0.00629171
0.00599024
0.00598918
0.00628909
0.0066895
0.00728822
0.00832265
0.00833898
0.00729674
0.00669378
0.00629116
0.00598989
0.00593636
0.00620281
0.00652886
0.00691661
0.0072897
0.0072924
0.00692021
0.00653123
0.0062039
0.00593645
0.00585357
0.00606606
0.00630129
0.00652918
0.00669047
0.00669112
0.00653042
0.0063022
0.00606631
0.00585312
0.0057751
0.00591265
0.00606611
0.00620305
0.00628964
0.00628981
0.00620337
0.00606623
0.00591236
0.00577431
0.00576408
0.00577504
0.00585354
0.00593644
0.00598942
0.00598942
0.00593638
0.00585328
0.00577448
0.00576314
0.00576333
0.00577433
0.00585298
0.00593617
0.00598954
0.0059899
0.00593705
0.00585399
0.00577513
0.00576368
0.00577451
0.00591213
0.00606582
0.00620318
0.00629035
0.00629099
0.00620468
0.00606741
0.00591333
0.00577507
0.00585318
0.00606579
0.00630133
0.00652988
0.0066922
0.00669349
0.00653255
0.00630377
0.00606741
0.00585391
0.00593623
0.00620282
0.00652925
0.00691802
0.00729348
0.00729704
0.00692299
0.00653272
0.00620476
0.00593701
0.00598934
0.00628938
0.00669006
0.00728985
0.00833093
0.00834715
0.00729817
0.00669413
0.00629125
0.00598993
0.00598951
0.00628954
0.00669011
0.00728921
0.00832484
0.00833827
0.00729599
0.00669324
0.00629077
0.00598963
0.00593669
0.00620327
0.00652946
0.00691736
0.00729045
0.00729247
0.00691989
0.00653087
0.00620361
0.00593625
0.00585387
0.00606648
0.00630178
0.00652968
0.00669085
0.00669122
0.00653029
0.00630198
0.0060661
0.00585299
0.00577534
0.00591298
0.00606649
0.0062034
0.00628988
0.00628989
0.0062033
0.0060661
0.00591222
0.00577422
0.00576424
0.00577528
0.0058538
0.00593667
0.00598958
0.00598948
0.00593634
0.00585319
0.00577439
0.00576308
0.00576339
0.00577444
0.00585307
0.0059362
0.00598947
0.00598972
0.00593681
0.00585373
0.00577491
0.00576353
0.00577457
0.00591225
0.00606592
0.0062032
0.0062902
0.00629067
0.00620427
0.00606702
0.005913
0.00577486
0.00585328
0.00606596
0.0063015
0.00652994
0.00669197
0.00669296
0.00653192
0.00630322
0.006067
0.00585365
0.00593638
0.00620307
0.00652956
0.00691829
0.00729324
0.00729596
0.006922
0.00653202
0.0062043
0.00593673
0.00598954
0.00628973
0.00669062
0.00729072
0.00833179
0.00834395
0.00729679
0.00669338
0.0062908
0.00598968
0.00598972
0.00628994
0.00669079
0.0072905
0.00832784
0.00833736
0.00729509
0.00669268
0.00629043
0.00598946
0.00593688
0.00620364
0.00653004
0.00691821
0.00729139
0.00729263
0.00691961
0.00653058
0.00620341
0.00593618
0.00585399
0.00606674
0.00630218
0.00653017
0.00669127
0.00669138
0.00653023
0.00630187
0.00606603
0.005853
0.00577538
0.00591314
0.00606672
0.00620367
0.0062901
0.00628999
0.0062033
0.00606606
0.00591222
0.00577429
0.0057642
0.00577533
0.0058539
0.0059368
0.00598968
0.00598953
0.00593635
0.00585319
0.00577442
0.00576317
0.0057634
0.00577451
0.00585316
0.00593624
0.00598941
0.00598956
0.00593659
0.00585351
0.00577473
0.00576343
0.00577459
0.00591233
0.00606602
0.00620323
0.00629008
0.00629037
0.00620389
0.00606666
0.00591273
0.00577471
0.00585332
0.00606608
0.00630166
0.00653002
0.00669176
0.00669241
0.00653128
0.0063027
0.00606665
0.00585347
0.00593644
0.00620327
0.00652988
0.0069186
0.00729301
0.00729479
0.00692096
0.00653135
0.00620391
0.00593655
0.00598963
0.00629
0.00669115
0.00729165
0.00833277
0.00834043
0.00729536
0.0066927
0.00629047
0.00598956
0.00598981
0.00629023
0.00669141
0.0072918
0.0083311
0.00833657
0.00729428
0.00669225
0.00629025
0.00598944
0.00593691
0.00620385
0.00653051
0.00691902
0.00729237
0.00729292
0.00691949
0.00653047
0.00620341
0.00593629
0.00585395
0.00606685
0.00630245
0.00653058
0.00669169
0.00669163
0.00653032
0.00630193
0.00606615
0.00585321
0.00577527
0.00591314
0.00606683
0.00620385
0.00629029
0.00629015
0.00620343
0.0060662
0.0059124
0.00577455
0.00576404
0.00577524
0.00585389
0.00593684
0.00598976
0.00598962
0.00593646
0.00585334
0.00577461
0.00576343
0.00576341
0.00577455
0.00585321
0.00593626
0.00598934
0.00598939
0.00593635
0.00585327
0.00577453
0.0057633
0.00577459
0.00591238
0.00606608
0.00620324
0.00628994
0.00629007
0.00620351
0.0060663
0.00591246
0.00577454
0.00585331
0.00606615
0.00630177
0.00653007
0.00669154
0.00669185
0.00653065
0.00630221
0.00606633
0.0058533
0.00593645
0.00620338
0.00653011
0.00691884
0.00729275
0.00729362
0.00691996
0.00653074
0.00620358
0.00593641
0.00598964
0.00629016
0.00669155
0.00729243
0.00833352
0.00833705
0.00729406
0.00669213
0.00629024
0.00598951
0.00598979
0.00629037
0.00669185
0.0072929
0.00833409
0.00833615
0.00729371
0.006692
0.00629021
0.00598953
0.00593684
0.00620393
0.00653082
0.00691966
0.00729328
0.00729334
0.00691957
0.00653054
0.00620356
0.0059365
0.00585382
0.00606683
0.00630258
0.00653087
0.00669207
0.00669194
0.00653055
0.00630216
0.00606641
0.0058535
0.00577511
0.00591305
0.00606684
0.00620395
0.00629047
0.00629035
0.00620366
0.00606646
0.0059127
0.00577487
0.00576386
0.00577511
0.00585383
0.00593685
0.00598983
0.00598975
0.00593664
0.00585356
0.00577489
0.00576373
0.00576349
0.00577464
0.00585329
0.00593628
0.00598927
0.00598921
0.00593611
0.00585302
0.0057743
0.00576312
0.00577464
0.00591246
0.00606616
0.00620324
0.00628979
0.00628976
0.00620312
0.00606594
0.00591217
0.00577432
0.00585336
0.00606624
0.00630188
0.0065301
0.0066913
0.00669131
0.00653005
0.00630172
0.006066
0.00585309
0.00593648
0.00620348
0.0065303
0.00691901
0.00729243
0.00729251
0.00691904
0.00653018
0.00620328
0.00593626
0.00598964
0.00629026
0.00669184
0.00729302
0.00833389
0.00833405
0.00729297
0.00669167
0.00629005
0.00598945
0.00598976
0.00629046
0.00669217
0.00729375
0.00833665
0.0083362
0.0072934
0.00669188
0.00629022
0.00598961
0.00593678
0.00620396
0.00653103
0.00692017
0.00729412
0.00729389
0.00691979
0.00653071
0.00620374
0.00593669
0.00585375
0.00606682
0.00630268
0.00653112
0.00669244
0.00669231
0.00653085
0.00630243
0.00606667
0.00585374
0.00577503
0.00591301
0.00606686
0.00620406
0.00629066
0.00629059
0.00620391
0.00606672
0.00591296
0.0057751
0.00576377
0.00577505
0.0058538
0.00593688
0.00598993
0.00598989
0.00593682
0.00585376
0.00577509
0.00576392
0.00576367
0.00577482
0.00585343
0.00593635
0.00598923
0.00598906
0.00593589
0.00585278
0.00577408
0.00576293
0.00577481
0.00591263
0.0060663
0.00620329
0.00628968
0.00628947
0.00620275
0.00606558
0.00591186
0.00577408
0.0058535
0.0060664
0.00630203
0.00653015
0.00669109
0.0066908
0.00652947
0.00630125
0.00606564
0.00585284
0.0059366
0.00620365
0.0065305
0.00691916
0.0072921
0.00729149
0.00691819
0.00652963
0.00620293
0.00593603
0.00598974
0.00629042
0.00669212
0.00729348
0.008334
0.00833142
0.00729201
0.00669122
0.00628981
0.00598931
0.00598983
0.0062906
0.00669247
0.00729447
0.00833887
0.00833649
0.00729317
0.00669173
0.00629015
0.00598957
0.00593684
0.00620407
0.00653127
0.00692065
0.00729489
0.00729444
0.00692001
0.00653081
0.0062038
0.00593672
0.0058538
0.00606691
0.00630284
0.00653138
0.0066928
0.00669266
0.0065311
0.00630259
0.00606677
0.00585378
0.00577508
0.00591307
0.00606695
0.00620421
0.00629085
0.00629079
0.00620408
0.00606684
0.00591303
0.00577512
0.00576382
0.00577509
0.00585386
0.00593696
0.00599002
0.00598999
0.0059369
0.00585381
0.00577509
0.00576387
0.00576389
0.00577506
0.00585363
0.00593648
0.00598926
0.00598898
0.00593573
0.00585259
0.0057739
0.00576279
0.00577504
0.00591288
0.00606651
0.00620341
0.00628964
0.00628927
0.00620245
0.00606527
0.00591159
0.00577387
0.00585373
0.00606665
0.00630226
0.00653027
0.00669095
0.00669037
0.00652897
0.0063008
0.00606529
0.00585258
0.00593682
0.00620391
0.00653078
0.00691937
0.00729185
0.00729058
0.00691739
0.00652909
0.00620255
0.00593577
0.00598994
0.0062907
0.00669249
0.007294
0.00833418
0.00832899
0.00729105
0.00669072
0.00628948
0.00598907
0.00599003
0.00629087
0.00669288
0.00729524
0.00834101
0.00833659
0.0072928
0.00669145
0.00628992
0.00598938
0.00593703
0.00620432
0.00653161
0.00692118
0.00729563
0.00729485
0.00692005
0.0065307
0.00620365
0.00593656
0.00585398
0.00606712
0.0063031
0.0065317
0.00669313
0.00669289
0.00653117
0.00630254
0.00606664
0.00585362
0.00577525
0.00591325
0.00606714
0.00620439
0.00629101
0.00629089
0.00620408
0.00606675
0.00591287
0.00577492
0.00576396
0.00577523
0.00585398
0.00593706
0.00599008
0.00599
0.00593683
0.00585367
0.00577489
0.00576364
0.00576404
0.00577524
0.00585381
0.00593662
0.00598932
0.00598895
0.00593565
0.00585249
0.0057738
0.00576273
0.00577521
0.00591309
0.00606672
0.00620355
0.00628965
0.00628914
0.00620224
0.00606504
0.00591139
0.00577374
0.00585393
0.00606691
0.00630252
0.00653044
0.00669089
0.00669005
0.00652855
0.00630043
0.006065
0.00585238
0.00593705
0.00620422
0.00653114
0.00691967
0.00729176
0.00728981
0.00691667
0.00652856
0.00620218
0.00593551
0.00599021
0.00629106
0.00669298
0.00729469
0.00833477
0.00832662
0.00729003
0.00669013
0.00628908
0.0059888
0.00599031
0.00629125
0.00669343
0.0072962
0.00834326
0.0083361
0.00729217
0.00669098
0.00628956
0.00598911
0.0059373
0.00620468
0.00653209
0.00692182
0.00729634
0.00729501
0.00691982
0.00653039
0.00620334
0.0059363
0.00585423
0.00606743
0.00630345
0.00653208
0.00669343
0.00669296
0.00653103
0.00630229
0.00606636
0.00585336
0.00577547
0.00591351
0.00606739
0.00620461
0.00629114
0.00629087
0.00620393
0.00606651
0.00591259
0.00577466
0.00576414
0.00577542
0.00585414
0.00593717
0.00599012
0.00598993
0.00593666
0.00585342
0.00577461
0.00576338
0.00576397
0.00577524
0.00585385
0.00593666
0.00598933
0.00598893
0.00593559
0.00585243
0.00577376
0.00576274
0.00577519
0.00591315
0.00606681
0.00620363
0.00628966
0.00628905
0.00620209
0.00606489
0.00591128
0.00577371
0.00585397
0.00606704
0.0063027
0.00653058
0.00669087
0.00668981
0.00652823
0.00630014
0.0060648
0.00585228
0.00593717
0.00620444
0.00653145
0.00692
0.00729176
0.00728917
0.00691603
0.00652811
0.00620189
0.00593535
0.00599041
0.00629139
0.00669349
0.0072955
0.00833576
0.00832433
0.00728898
0.00668955
0.00628872
0.00598859
0.00599056
0.00629165
0.00669405
0.00729729
0.00834564
0.00833503
0.00729132
0.00669043
0.00628919
0.00598888
0.00593757
0.00620508
0.00653264
0.00692254
0.00729702
0.00729495
0.00691941
0.00652998
0.00620302
0.00593609
0.00585448
0.00606777
0.00630386
0.00653249
0.0066937
0.00669295
0.00653079
0.00630199
0.00606609
0.00585318
0.00577568
0.00591378
0.00606768
0.00620485
0.00629126
0.00629083
0.00620375
0.00606627
0.00591237
0.00577451
0.0057643
0.00577562
0.00585434
0.00593731
0.00599016
0.00598986
0.00593651
0.00585324
0.00577444
0.00576326
0.00576368
0.00577501
0.00585368
0.00593653
0.00598924
0.00598885
0.00593552
0.00585238
0.00577376
0.00576279
0.00577494
0.00591297
0.00606669
0.00620353
0.00628955
0.00628892
0.00620196
0.0060648
0.00591125
0.00577374
0.0058538
0.00606695
0.00630267
0.00653056
0.00669076
0.00668958
0.00652797
0.00629995
0.00606471
0.00585228
0.00593711
0.00620448
0.00653159
0.00692019
0.00729173
0.00728861
0.00691551
0.00652778
0.00620172
0.00593531
0.00599046
0.00629158
0.00669389
0.00729623
0.00833678
0.00832224
0.00728804
0.00668908
0.00628849
0.00598851
0.0059907
0.00629196
0.00669461
0.00729837
0.00834797
0.00833379
0.00729049
0.00668998
0.00628896
0.0059888
0.00593776
0.00620542
0.00653316
0.00692326
0.00729769
0.00729485
0.00691903
0.00652967
0.00620285
0.00593604
0.00585466
0.00606808
0.00630426
0.00653292
0.006694
0.00669296
0.00653062
0.00630181
0.00606599
0.00585318
0.00577584
0.00591403
0.00606797
0.00620512
0.00629143
0.00629085
0.00620368
0.00606619
0.00591233
0.00577456
0.00576444
0.00577582
0.00585455
0.0059375
0.00599028
0.00598989
0.00593649
0.00585322
0.00577446
0.00576336
0.00576329
0.00577463
0.00585333
0.00593624
0.00598901
0.00598869
0.00593543
0.00585235
0.00577378
0.00576287
0.00577455
0.00591259
0.00606635
0.00620324
0.0062893
0.00628873
0.00620184
0.00606475
0.00591127
0.00577382
0.00585347
0.00606664
0.0063024
0.00653031
0.0066905
0.00668932
0.00652778
0.00629986
0.00606471
0.00585236
0.00593687
0.0062043
0.00653148
0.0069201
0.00729149
0.0072881
0.00691515
0.00652761
0.0062017
0.00593538
0.00599035
0.00629157
0.00669403
0.00729661
0.00833725
0.00832059
0.00728741
0.00668884
0.00628845
0.00598858
0.0059907
0.0062921
0.00669498
0.00729919
0.00834992
0.00833304
0.00728998
0.00668977
0.00628894
0.00598888
0.00593782
0.00620562
0.00653355
0.00692387
0.00729833
0.00729492
0.00691887
0.00652959
0.00620288
0.00593616
0.00585476
0.00606828
0.00630458
0.00653332
0.00669433
0.0066931
0.00653065
0.00630185
0.00606609
0.00585335
0.00577594
0.00591421
0.00606822
0.00620539
0.00629166
0.00629101
0.00620378
0.00606631
0.0059125
0.00577478
0.00576452
0.00577597
0.00585474
0.0059377
0.00599046
0.00599004
0.00593663
0.00585338
0.00577466
0.0057636
0.00576298
0.00577428
0.00585297
0.00593591
0.00598875
0.00598854
0.00593539
0.00585241
0.0057739
0.00576302
0.0057742
0.00591219
0.00606593
0.00620284
0.00628898
0.00628853
0.00620177
0.0060648
0.00591139
0.00577397
0.00585313
0.00606624
0.00630198
0.00652989
0.00669011
0.00668906
0.00652769
0.00629991
0.00606485
0.00585253
0.00593658
0.00620397
0.00653114
0.00691971
0.00729099
0.00728771
0.00691503
0.00652766
0.00620184
0.00593556
0.00599013
0.00629137
0.00669387
0.00729648
0.00833674
0.00831972
0.00728727
0.00668891
0.0062886
0.00598877
0.00599056
0.00629202
0.00669502
0.0072995
0.00835107
0.00833329
0.00729001
0.00668988
0.00628912
0.00598909
0.00593774
0.00620562
0.00653369
0.00692421
0.00729884
0.00729524
0.00691904
0.00652977
0.0062031
0.00593639
0.00585469