/*--------------------------------*- C++ -*----------------------------------*\
| =========                 |                                                 |
| \\      /  F ield         | OpenFOAM: The Open Source CFD Toolbox           |
|  \\    /   O peration     | Version:  2406                                  |
|   \\  /    A nd           | Website:  www.openfoam.com                      |
|    \\/     M anipulation  |                                                 |
\*---------------------------------------------------------------------------*/
FoamFile
{
    version     2.0;
    format      ascii;
    arch        "LSB;label=32;scalar=64";
    class       volScalarField;
    location    "1.2";
    object      nut;
}
// * * * * * * * * * * * * * * * * * * * * * * * * * * * * * * * * * * * * * //

dimensions      [0 2 -1 0 0 0 0];

internalField   uniform 0;

boundaryField
{
    walls
    {
        type            nutUSpaldingWallFunction;
        value           nonuniform List<scalar> 
2000
(
3.17327e-09
4.55003e-09
5.99779e-09
7.18451e-09
7.85305e-09
7.85305e-09
7.18451e-09
5.99779e-09
4.55003e-09
3.17327e-09
1.87211e-09
2.63224e-09
3.46487e-09
4.16544e-09
4.56598e-09
4.56598e-09
4.16543e-09
3.46486e-09
2.63223e-09
1.8721e-09
9.826e-10
1.36014e-09
1.78345e-09
2.14893e-09
2.36035e-09
2.36034e-09
2.14891e-09
1.78342e-09
1.36011e-09
9.8257e-10
1.15804e-09
1.61004e-09
2.11132e-09
2.53979e-09
2.78647e-09
2.78645e-09
2.53974e-09
2.11125e-09
1.60995e-09
1.15796e-09
9.94501e-10
1.37801e-09
1.80756e-09
2.17728e-09
2.39101e-09
2.39097e-09
2.17717e-09
1.80741e-09
1.37784e-09
9.94347e-10
1.0446e-09
1.44969e-09
1.90206e-09
2.29054e-09
2.51484e-09
2.51477e-09
2.29033e-09
1.90177e-09
1.44937e-09
1.0443e-09
1.00337e-09
1.39112e-09
1.82523e-09
2.19872e-09
2.41459e-09
2.41446e-09
2.19836e-09
1.82471e-09
1.39055e-09
1.00284e-09
1.01731e-09
1.41093e-09
1.85118e-09
2.22964e-09
2.44826e-09
2.44804e-09
2.22902e-09
1.85028e-09
1.40994e-09
1.01637e-09
1.00733e-09
1.39662e-09
1.83222e-09
2.20681e-09
2.42317e-09
2.4228e-09
2.20579e-09
1.83076e-09
1.39498e-09
1.00579e-09
1.01174e-09
1.40275e-09
1.84008e-09
2.216e-09
2.433e-09
2.43246e-09
2.21448e-09
1.83789e-09
1.40031e-09
1.00945e-09
1.00976e-09
1.3998e-09
1.83604e-09
2.21098e-09
2.42732e-09
2.42659e-09
2.20893e-09
1.83311e-09
1.39655e-09
1.00672e-09
1.01124e-09
1.40185e-09
1.83864e-09
2.21398e-09
2.43045e-09
2.42955e-09
2.21148e-09
1.8351e-09
1.39795e-09
1.00762e-09
1.01063e-09
1.401e-09
1.83755e-09
2.21266e-09
2.42896e-09
2.42796e-09
2.2099e-09
1.83365e-09
1.39674e-09
1.00671e-09
1.0105e-09
1.40092e-09
1.83757e-09
2.21277e-09
2.42911e-09
2.42809e-09
2.20996e-09
1.83361e-09
1.39664e-09
1.00659e-09
1.00955e-09
1.39971e-09
1.83613e-09
2.2112e-09
2.4275e-09
2.42654e-09
2.20854e-09
1.83241e-09
1.39571e-09
1.00593e-09
1.00865e-09
1.39857e-09
1.8348e-09
2.20978e-09
2.42611e-09
2.42528e-09
2.2075e-09
1.83163e-09
1.39518e-09
1.00561e-09
1.00761e-09
1.39723e-09
1.83323e-09
2.20809e-09
2.42447e-09
2.42385e-09
2.20641e-09
1.83091e-09
1.39479e-09
1.00545e-09
1.00669e-09
1.39611e-09
1.83197e-09
2.20683e-09
2.42337e-09
2.42306e-09
2.20599e-09
1.83084e-09
1.39497e-09
1.00574e-09
1.00579e-09
1.39505e-09
1.83087e-09
2.20584e-09
2.42264e-09
2.42269e-09
2.206e-09
1.83117e-09
1.39547e-09
1.00627e-09
1.00492e-09
1.39407e-09
1.82992e-09
2.20506e-09
2.42216e-09
2.42257e-09
2.20621e-09
1.83161e-09
1.396e-09
1.00677e-09
1.00408e-09
1.39308e-09
1.8289e-09
2.20417e-09
2.4215e-09
2.42219e-09
2.20608e-09
1.83164e-09
1.39611e-09
1.0069e-09
1.00332e-09
1.39212e-09
1.82781e-09
2.20306e-09
2.42048e-09
2.42132e-09
2.20536e-09
1.83105e-09
1.39564e-09
1.00656e-09
1.00271e-09
1.39126e-09
1.82672e-09
2.20181e-09
2.41916e-09
2.42002e-09
2.20416e-09
1.83001e-09
1.39478e-09
1.0059e-09
1.00227e-09
1.39061e-09
1.82581e-09
2.20068e-09
2.41788e-09
2.41871e-09
2.20293e-09
1.82895e-09
1.39395e-09
1.0053e-09
1.00199e-09
1.39021e-09
1.82524e-09
2.19994e-09
2.41703e-09
2.41783e-09
2.20214e-09
1.82833e-09
1.39353e-09
1.00505e-09
1.00187e-09
1.39008e-09
1.82508e-09
2.19974e-09
2.41681e-09
2.41763e-09
2.20203e-09
1.82834e-09
1.39366e-09
1.00524e-09
1.00202e-09
1.39032e-09
1.82541e-09
2.20014e-09
2.41726e-09
2.41813e-09
2.20257e-09
1.82891e-09
1.39423e-09
1.00576e-09
1.00274e-09
1.39125e-09
1.82651e-09
2.20131e-09
2.41846e-09
2.4193e-09
2.20366e-09
1.82988e-09
1.39506e-09
1.0064e-09
1.00452e-09
1.39338e-09
1.82882e-09
2.20364e-09
2.42064e-09
2.42123e-09
2.20526e-09
1.83112e-09
1.39595e-09
1.00698e-09
1.0076e-09
1.39701e-09
1.83271e-09
2.20743e-09
2.42405e-09
2.42405e-09
2.20739e-09
1.83254e-09
1.39675e-09
1.00731e-09
1.01168e-09
1.40184e-09
1.8379e-09
2.2125e-09
2.42853e-09
2.4276e-09
2.20985e-09
1.83395e-09
1.39727e-09
1.00725e-09
1.01574e-09
1.40674e-09
1.84328e-09
2.21783e-09
2.43324e-09
2.43126e-09
2.21223e-09
1.83511e-09
1.39745e-09
1.00684e-09
1.01837e-09
1.41006e-09
1.84714e-09
2.22182e-09
2.43685e-09
2.43403e-09
2.21393e-09
1.83577e-09
1.39731e-09
1.00628e-09
1.01838e-09
1.41037e-09
1.84788e-09
2.2229e-09
2.43799e-09
2.43492e-09
2.21436e-09
1.83574e-09
1.39695e-09
1.00581e-09
1.01553e-09
1.40724e-09
1.84487e-09
2.22031e-09
2.43592e-09
2.43332e-09
2.21316e-09
1.83487e-09
1.39639e-09
1.00553e-09
1.0107e-09
1.4016e-09
1.83892e-09
2.21464e-09
2.43099e-09
2.42943e-09
2.2104e-09
1.83316e-09
1.39558e-09
1.00536e-09
1.00552e-09
1.3953e-09
1.83194e-09
2.20764e-09
2.42467e-09
2.42431e-09
2.20675e-09
1.83096e-09
1.39462e-09
1.00521e-09
1.00152e-09
1.39027e-09
1.82611e-09
2.20155e-09
2.41899e-09
2.41965e-09
2.20348e-09
1.82909e-09
1.39392e-09
1.00523e-09
9.99521e-10
1.38767e-09
1.82299e-09
2.19819e-09
2.41586e-09
2.41719e-09
2.20199e-09
1.82858e-09
1.3942e-09
1.00588e-09
9.99842e-10
1.38808e-09
1.82346e-09
2.19874e-09
2.41663e-09
2.41832e-09
2.20358e-09
1.83055e-09
1.39635e-09
1.00782e-09
1.00377e-09
1.39295e-09
1.82908e-09
2.20485e-09
2.42299e-09
2.42474e-09
2.20985e-09
1.83637e-09
1.40142e-09
1.01169e-09
1.01384e-09
1.40522e-09
1.84289e-09
2.21945e-09
2.43761e-09
2.43865e-09
2.22236e-09
1.84686e-09
1.40945e-09
1.01708e-09
1.03216e-09
1.42733e-09
1.86742e-09
2.24479e-09
2.46206e-09
2.4607e-09
2.24076e-09
1.86085e-09
1.41885e-09
1.0224e-09
1.05941e-09
1.46014e-09
1.90356e-09
2.28158e-09
2.49669e-09
2.49082e-09
2.26476e-09
1.87817e-09
1.42985e-09
1.02834e-09
1.09516e-09
1.50322e-09
1.95098e-09
2.3296e-09
2.54154e-09
2.52958e-09
2.29577e-09
1.90115e-09
1.44556e-09
1.03814e-09
1.13804e-09
1.55555e-09
2.00945e-09
2.38974e-09
2.59892e-09
2.58077e-09
2.33878e-09
1.93543e-09
1.47143e-09
1.0565e-09
1.18523e-09
1.61444e-09
2.07692e-09
2.46072e-09
2.66826e-09
2.64417e-09
2.39346e-09
1.98017e-09
1.50607e-09
1.08179e-09
1.22444e-09
1.66753e-09
2.14286e-09
2.53565e-09
2.74684e-09
2.72063e-09
2.46277e-09
2.03883e-09
1.5523e-09
1.11604e-09
1.25671e-09
1.7123e-09
2.19912e-09
2.59922e-09
2.81204e-09
2.78164e-09
2.51507e-09
2.08007e-09
1.58235e-09
1.13682e-09
1.25586e-09
1.72895e-09
2.23902e-09
2.66291e-09
2.89457e-09
2.87379e-09
2.60636e-09
2.16178e-09
1.64939e-09
1.1886e-09
3.17327e-09
4.55003e-09
5.99778e-09
7.18451e-09
7.85305e-09
7.85305e-09
7.18451e-09
5.99779e-09
4.55003e-09
3.17327e-09
1.87209e-09
2.63221e-09
3.46484e-09
4.16541e-09
4.56596e-09
4.56597e-09
4.16543e-09
3.46487e-09
2.63224e-09
1.87211e-09
9.82525e-10
1.36005e-09
1.78336e-09
2.14885e-09
2.3603e-09
2.36032e-09
2.14891e-09
1.78344e-09
1.36013e-09
9.82599e-10
1.15785e-09
1.60982e-09
2.11111e-09
2.53961e-09
2.78634e-09
2.78639e-09
2.53974e-09
2.11129e-09
1.61002e-09
1.15803e-09
9.94116e-10
1.37757e-09
1.80712e-09
2.1769e-09
2.39074e-09
2.39084e-09
2.17716e-09
1.80749e-09
1.37797e-09
9.94491e-10
1.04388e-09
1.44887e-09
1.90124e-09
2.28983e-09
2.51433e-09
2.5145e-09
2.2903e-09
1.90192e-09
1.44962e-09
1.04458e-09
1.00215e-09
1.38974e-09
1.82384e-09
2.19752e-09
2.41373e-09
2.41401e-09
2.19831e-09
1.82498e-09
1.39099e-09
1.00333e-09
1.01539e-09
1.40876e-09
1.84901e-09
2.22778e-09
2.44693e-09
2.44738e-09
2.22901e-09
1.85078e-09
1.41073e-09
1.01725e-09
1.00448e-09
1.39342e-09
1.82906e-09
2.20412e-09
2.42131e-09
2.42196e-09
2.20594e-09
1.83167e-09
1.39634e-09
1.00724e-09
1.00778e-09
1.39833e-09
1.83575e-09
2.21237e-09
2.43057e-09
2.43147e-09
2.21489e-09
1.83938e-09
1.4024e-09
1.01163e-09
1.00467e-09
1.39412e-09
1.8305e-09
2.20637e-09
2.4243e-09
2.42547e-09
2.20964e-09
1.8352e-09
1.39937e-09
1.00963e-09
1.00526e-09
1.39514e-09
1.83208e-09
2.20852e-09
2.4269e-09
2.4283e-09
2.21242e-09
1.83767e-09
1.40136e-09
1.0111e-09
1.00427e-09
1.39382e-09
1.83046e-09
2.20673e-09
2.4251e-09
2.42663e-09
2.21098e-09
1.8365e-09
1.40049e-09
1.01048e-09
1.00443e-09
1.394e-09
1.83066e-09
2.20696e-09
2.42535e-09
2.42686e-09
2.21115e-09
1.83658e-09
1.40045e-09
1.01038e-09
1.00437e-09
1.39374e-09
1.83014e-09
2.20617e-09
2.42432e-09
2.42567e-09
2.20989e-09
1.83535e-09
1.39935e-09
1.00947e-09
1.00471e-09
1.39401e-09
1.83022e-09
2.20599e-09
2.42385e-09
2.42493e-09
2.20896e-09
1.83434e-09
1.39837e-09
1.00862e-09
1.00498e-09
1.39418e-09
1.83017e-09
2.20562e-09
2.42312e-09
2.42388e-09
2.2077e-09
1.83303e-09
1.39716e-09
1.00761e-09
1.00525e-09
1.39439e-09
1.83022e-09
2.2054e-09
2.42256e-09
2.423e-09
2.20658e-09
1.83183e-09
1.39604e-09
1.00669e-09
1.0054e-09
1.39447e-09
1.83014e-09
2.20505e-09
2.42188e-09
2.422e-09
2.20538e-09
1.83057e-09
1.39489e-09
1.00574e-09
1.00558e-09
1.39457e-09
1.83006e-09
2.2047e-09
2.42121e-09
2.42104e-09
2.20421e-09
1.82935e-09
1.39378e-09
1.00483e-09
1.00587e-09
1.39478e-09
1.83008e-09
2.20444e-09
2.42063e-09
2.42018e-09
2.20317e-09
1.82826e-09
1.39276e-09
1.00399e-09
1.0063e-09
1.39517e-09
1.83032e-09
2.20443e-09
2.42033e-09
2.41962e-09
2.20243e-09
1.82744e-09
1.39197e-09
1.0033e-09
1.00672e-09
1.39559e-09
1.83065e-09
2.20459e-09
2.42028e-09
2.41935e-09
2.20199e-09
1.8269e-09
1.3914e-09
1.00278e-09
1.00689e-09
1.39575e-09
1.83078e-09
2.20466e-09
2.42024e-09
2.41918e-09
2.20169e-09
1.82653e-09
1.391e-09
1.00241e-09
1.0066e-09
1.3954e-09
1.83041e-09
2.20429e-09
2.41987e-09
2.4188e-09
2.20131e-09
1.82616e-09
1.39066e-09
1.00213e-09
1.00589e-09
1.39453e-09
1.82946e-09
2.20336e-09
2.41902e-09
2.41807e-09
2.20072e-09
1.82571e-09
1.39036e-09
1.00194e-09
1.00504e-09
1.39345e-09
1.82823e-09
2.20211e-09
2.41789e-09
2.41718e-09
2.20011e-09
1.82537e-09
1.39024e-09
1.00196e-09
1.00445e-09
1.3927e-09
1.82735e-09
2.20123e-09
2.41718e-09
2.41677e-09
2.20008e-09
1.82568e-09
1.39079e-09
1.00257e-09
1.00437e-09
1.39271e-09
1.82746e-09
2.20153e-09
2.41778e-09
2.41778e-09
2.2015e-09
1.82743e-09
1.39264e-09
1.00427e-09
1.00472e-09
1.39349e-09
1.82878e-09
2.20344e-09
2.42031e-09
2.42087e-09
2.20505e-09
1.83115e-09
1.39621e-09
1.00733e-09
1.00514e-09
1.39466e-09
1.83095e-09
2.20666e-09
2.42454e-09
2.4259e-09
2.21051e-09
1.83661e-09
1.40119e-09
1.01146e-09
1.00536e-09
1.39569e-09
1.83319e-09
2.21024e-09
2.42938e-09
2.43165e-09
2.21664e-09
1.84253e-09
1.40638e-09
1.01561e-09
1.00538e-09
1.39631e-09
1.8348e-09
2.21304e-09
2.43328e-09
2.43628e-09
2.22145e-09
1.84694e-09
1.41e-09
1.01835e-09
1.0054e-09
1.3965e-09
1.83537e-09
2.21414e-09
2.43486e-09
2.43807e-09
2.22307e-09
1.84807e-09
1.41052e-09
1.01845e-09
1.00551e-09
1.39631e-09
1.83479e-09
2.21318e-09
2.43349e-09
2.43621e-09
2.22066e-09
1.8452e-09
1.40746e-09
1.01563e-09
1.00563e-09
1.39577e-09
1.83322e-09
2.21044e-09
2.42953e-09
2.43118e-09
2.21488e-09
1.83917e-09
1.40176e-09
1.0108e-09
1.00563e-09
1.39495e-09
1.83109e-09
2.20675e-09
2.42423e-09
2.42461e-09
2.20763e-09
1.83197e-09
1.3953e-09
1.00554e-09
1.00556e-09
1.39416e-09
1.82913e-09
2.20333e-09
2.41935e-09
2.41863e-09
2.20121e-09
1.82585e-09
1.39008e-09
1.00146e-09
1.00565e-09
1.39383e-09
1.82805e-09
2.20126e-09
2.41631e-09
2.41491e-09
2.19731e-09
1.8223e-09
1.38724e-09
9.99363e-10
1.00633e-09
1.39444e-09
1.82836e-09
2.20116e-09
2.41582e-09
2.41422e-09
2.19667e-09
1.8219e-09
1.38718e-09
9.99524e-10
1.00867e-09
1.39728e-09
1.83141e-09
2.20437e-09
2.41921e-09
2.4179e-09
2.20067e-09
1.82612e-09
1.39134e-09
1.00324e-09
1.01348e-09
1.40377e-09
1.83924e-09
2.21343e-09
2.42944e-09
2.42922e-09
2.21278e-09
1.8384e-09
1.40288e-09
1.01314e-09
1.01944e-09
1.41316e-09
1.85217e-09
2.22986e-09
2.44909e-09
2.45148e-09
2.23654e-09
1.8621e-09
1.42465e-09
1.03145e-09
1.02282e-09
1.42183e-09
1.86743e-09
2.25216e-09
2.47799e-09
2.48549e-09
2.27325e-09
1.89852e-09
1.45764e-09
1.05883e-09
1.01672e-09
1.42227e-09
1.87805e-09
2.27464e-09
2.51199e-09
2.52843e-09
2.32102e-09
1.94632e-09
1.5009e-09
1.09459e-09
9.90396e-10
1.40149e-09
1.87014e-09
2.28404e-09
2.53951e-09
2.57092e-09
2.37272e-09
2.00037e-09
1.55104e-09
1.13665e-09
9.42998e-10
1.35577e-09
1.83683e-09
2.2713e-09
2.55074e-09
2.6037e-09
2.42044e-09
2.05435e-09
1.60334e-09
1.18152e-09
8.78806e-10
1.28341e-09
1.76755e-09
2.21705e-09
2.52002e-09
2.59875e-09
2.43745e-09
2.08545e-09
1.63974e-09
1.21614e-09
8.28005e-10
1.22292e-09
1.70554e-09
2.16509e-09
2.48708e-09
2.58853e-09
2.44734e-09
2.10851e-09
1.66804e-09
1.24339e-09
7.4929e-10
1.11463e-09
1.5701e-09
2.0169e-09
2.34363e-09
2.46628e-09
2.35563e-09
2.04838e-09
1.63442e-09
1.22874e-09
3.17327e-09
4.55003e-09
5.99778e-09
7.1845e-09
7.85304e-09
7.85304e-09
7.1845e-09
5.99778e-09
4.55003e-09
3.17327e-09
1.87208e-09
2.6322e-09
3.46483e-09
4.16539e-09
4.56593e-09
4.56593e-09
4.1654e-09
3.46484e-09
2.63221e-09
1.87209e-09
9.82497e-10
1.36001e-09
1.78331e-09
2.14878e-09
2.36021e-09
2.36022e-09
2.1488e-09
1.78333e-09
1.36004e-09
9.82523e-10
1.15778e-09
1.60972e-09
2.11097e-09
2.53943e-09
2.78612e-09
2.78614e-09
2.53948e-09
2.11103e-09
1.60979e-09
1.15784e-09
9.9396e-10
1.37734e-09
1.80682e-09
2.17652e-09
2.39029e-09
2.39033e-09
2.17662e-09
1.80696e-09
1.37749e-09
9.94096e-10
1.04355e-09
1.4484e-09
1.90063e-09
2.28907e-09
2.51345e-09
2.51352e-09
2.28927e-09
1.90091e-09
1.44871e-09
1.04383e-09
1.00153e-09
1.38886e-09
1.82272e-09
2.19616e-09
2.41215e-09
2.41228e-09
2.19652e-09
1.82325e-09
1.38944e-09
1.00207e-09
1.01433e-09
1.40728e-09
1.84711e-09
2.22548e-09
2.4443e-09
2.44452e-09
2.22608e-09
1.84797e-09
1.40824e-09
1.01524e-09
1.00294e-09
1.39123e-09
1.8262e-09
2.20062e-09
2.41727e-09
2.41757e-09
2.20145e-09
1.8274e-09
1.39258e-09
1.00423e-09
1.00584e-09
1.39547e-09
1.83188e-09
2.20751e-09
2.42487e-09
2.42523e-09
2.2085e-09
1.83332e-09
1.3971e-09
1.00742e-09
1.00257e-09
1.39084e-09
1.82583e-09
2.20029e-09
2.417e-09
2.41736e-09
2.2013e-09
1.82729e-09
1.39251e-09
1.0042e-09
1.00336e-09
1.39189e-09
1.8271e-09
2.20171e-09
2.41846e-09
2.41876e-09
2.20254e-09
1.8283e-09
1.39327e-09
1.00472e-09
1.00293e-09
1.39111e-09
1.82585e-09
2.20001e-09
2.41643e-09
2.41659e-09
2.20048e-09
1.82653e-09
1.3919e-09
1.00374e-09
1.00389e-09
1.39227e-09
1.82711e-09
2.20124e-09
2.41754e-09
2.41754e-09
2.20123e-09
1.8271e-09
1.39229e-09
1.00398e-09
1.00465e-09
1.39318e-09
1.82806e-09
2.20214e-09
2.4183e-09
2.41813e-09
2.20165e-09
1.82738e-09
1.39244e-09
1.00405e-09
1.00565e-09
1.3945e-09
1.82966e-09
2.2039e-09
2.42008e-09
2.41977e-09
2.20304e-09
1.82846e-09
1.3932e-09
1.00454e-09
1.00628e-09
1.39537e-09
1.8308e-09
2.20524e-09
2.42149e-09
2.42111e-09
2.20419e-09
1.82934e-09
1.39381e-09
1.00492e-09
1.00663e-09
1.39591e-09
1.83158e-09
2.20623e-09
2.42261e-09
2.42223e-09
2.20518e-09
1.83012e-09
1.39436e-09
1.00527e-09
1.00674e-09
1.39609e-09
1.83187e-09
2.20665e-09
2.42314e-09
2.4228e-09
2.20572e-09
1.83056e-09
1.39469e-09
1.00548e-09
1.00688e-09
1.39625e-09
1.83206e-09
2.2069e-09
2.42345e-09
2.42317e-09
2.20611e-09
1.83094e-09
1.39501e-09
1.00571e-09
1.00721e-09
1.39664e-09
1.83247e-09
2.20734e-09
2.42391e-09
2.42366e-09
2.20662e-09
1.83145e-09
1.39547e-09
1.00607e-09
1.0078e-09
1.39737e-09
1.83332e-09
2.20824e-09
2.42484e-09
2.42457e-09
2.2075e-09
1.83224e-09
1.39614e-09
1.00658e-09
1.00857e-09
1.39838e-09
1.83452e-09
2.20956e-09
2.42618e-09
2.42585e-09
2.20863e-09
1.83318e-09
1.39685e-09
1.00708e-09
1.00939e-09
1.39946e-09
1.83583e-09
2.21099e-09
2.4276e-09
2.42712e-09
2.20965e-09
1.8339e-09
1.39729e-09
1.00732e-09
1.01016e-09
1.40043e-09
1.83695e-09
2.21215e-09
2.42867e-09
2.42797e-09
2.21018e-09
1.83409e-09
1.39722e-09
1.0071e-09
1.01074e-09
1.4011e-09
1.83765e-09
2.21278e-09
2.42913e-09
2.42816e-09
2.21005e-09
1.83369e-09
1.39663e-09
1.00648e-09
1.01087e-09
1.4012e-09
1.83767e-09
2.21269e-09
2.42886e-09
2.42769e-09
2.20939e-09
1.83289e-09
1.39578e-09
1.00571e-09
1.01012e-09
1.40028e-09
1.83664e-09
2.21161e-09
2.42776e-09
2.42659e-09
2.20834e-09
1.83195e-09
1.39499e-09
1.0051e-09
1.00805e-09
1.39786e-09
1.83409e-09
2.20914e-09
2.42552e-09
2.4247e-09
2.20687e-09
1.83092e-09
1.39437e-09
1.00481e-09
1.00473e-09
1.39395e-09
1.82995e-09
2.20511e-09
2.42194e-09
2.42179e-09
2.20474e-09
1.82957e-09
1.39374e-09
1.00469e-09
1.00087e-09
1.38928e-09
1.82481e-09
2.19996e-09
2.41723e-09
2.41788e-09
2.20185e-09
1.82773e-09
1.39284e-09
1.00447e-09
9.97564e-10
1.38511e-09
1.81996e-09
2.19483e-09
2.41233e-09
2.41366e-09
2.19863e-09
1.82559e-09
1.39172e-09
1.00407e-09
9.95839e-10
1.38271e-09
1.81686e-09
2.19125e-09
2.40868e-09
2.41039e-09
2.19609e-09
1.8239e-09
1.39082e-09
1.00372e-09
9.96284e-10
1.38293e-09
1.81663e-09
2.19057e-09
2.40773e-09
2.40945e-09
2.1954e-09
1.82355e-09
1.39074e-09
1.00378e-09
9.98921e-10
1.38594e-09
1.81964e-09
2.19334e-09
2.41015e-09
2.41152e-09
2.19713e-09
1.82494e-09
1.39171e-09
1.00436e-09
1.00315e-09
1.39105e-09
1.82525e-09
2.19901e-09
2.41546e-09
2.41616e-09
2.20084e-09
1.82764e-09
1.39337e-09
1.00519e-09
1.00782e-09
1.39687e-09
1.8319e-09
2.20596e-09
2.42208e-09
2.42188e-09
2.20527e-09
1.83065e-09
1.39505e-09
1.0059e-09
1.0114e-09
1.40147e-09
1.8374e-09
2.21188e-09
2.4278e-09
2.4268e-09
2.20898e-09
1.83303e-09
1.39625e-09
1.00632e-09
1.01247e-09
1.40306e-09
1.83962e-09
2.21459e-09
2.43066e-09
2.42939e-09
2.21099e-09
1.83436e-09
1.39698e-09
1.00662e-09
1.00969e-09
1.40004e-09
1.8369e-09
2.21255e-09
2.42946e-09
2.429e-09
2.21122e-09
1.83496e-09
1.39771e-09
1.00732e-09
1.00029e-09
1.38948e-09
1.82653e-09
2.20362e-09
2.42285e-09
2.42505e-09
2.20975e-09
1.83545e-09
1.39933e-09
1.00933e-09
9.82154e-10
1.36883e-09
1.80575e-09
2.18514e-09
2.40852e-09
2.41576e-09
2.20545e-09
1.83524e-09
1.40176e-09
1.01296e-09
9.5661e-10
1.33879e-09
1.77418e-09
2.15544e-09
2.38373e-09
2.39777e-09
2.19476e-09
1.83103e-09
1.40232e-09
1.01626e-09
9.26214e-10
1.30143e-09
1.73278e-09
2.11374e-09
2.34581e-09
2.36675e-09
2.17233e-09
1.8172e-09
1.39586e-09
1.01507e-09
8.94481e-10
1.26001e-09
1.68349e-09
2.06004e-09
2.29228e-09
2.31775e-09
2.13125e-09
1.78577e-09
1.37441e-09
1.00245e-09
8.68467e-10
1.22212e-09
1.63283e-09
1.99831e-09
2.22343e-09
2.24705e-09
2.06421e-09
1.727e-09
1.32736e-09
9.68449e-10
8.51989e-10
1.19349e-09
1.58806e-09
1.93659e-09
2.14699e-09
2.16128e-09
1.97634e-09
1.64462e-09
1.25722e-09
9.14408e-10
8.51009e-10
1.18217e-09
1.5596e-09
1.8868e-09
2.07568e-09
2.07319e-09
1.88001e-09
1.55019e-09
1.17397e-09
8.47754e-10
8.55224e-10
1.1803e-09
1.54581e-09
1.8575e-09
2.03006e-09
2.01443e-09
1.81413e-09
1.48458e-09
1.11481e-09
7.99024e-10
8.87321e-10
1.20837e-09
1.55905e-09
1.84814e-09
1.9939e-09
1.95407e-09
1.73715e-09
1.40209e-09
1.03576e-09
7.3105e-10
3.17327e-09
4.55003e-09
5.99779e-09
7.18451e-09
7.85305e-09
7.85304e-09
7.1845e-09
5.99778e-09
4.55003e-09
3.17327e-09
1.8721e-09
2.63222e-09
3.46485e-09
4.16542e-09
4.56595e-09
4.56594e-09
4.1654e-09
3.46483e-09
2.6322e-09
1.87208e-09
9.82567e-10
1.36009e-09
1.78339e-09
2.14885e-09
2.36026e-09
2.36024e-09
2.1488e-09
1.78332e-09
1.36002e-09
9.82498e-10
1.15795e-09
1.60992e-09
2.11117e-09
2.5396e-09
2.78625e-09
2.7862e-09
2.53948e-09
2.111e-09
1.60973e-09
1.15778e-09
9.94326e-10
1.37776e-09
1.80724e-09
2.17689e-09
2.39055e-09
2.39047e-09
2.17664e-09
1.80689e-09
1.37738e-09
9.9397e-10
1.04426e-09
1.44921e-09
1.90144e-09
2.28978e-09
2.51396e-09
2.51379e-09
2.28931e-09
1.90078e-09
1.44848e-09
1.04357e-09
1.00276e-09
1.39025e-09
1.82411e-09
2.19736e-09
2.41301e-09
2.41273e-09
2.19657e-09
1.82298e-09
1.38899e-09
1.00157e-09
1.01623e-09
1.40942e-09
1.84924e-09
2.22732e-09
2.44561e-09
2.44517e-09
2.2261e-09
1.84749e-09
1.40747e-09
1.01438e-09
1.00556e-09
1.39417e-09
1.82913e-09
2.20315e-09
2.41907e-09
2.41846e-09
2.20145e-09
1.8267e-09
1.39147e-09
1.003e-09
1.00911e-09
1.39915e-09
1.83557e-09
2.21072e-09
2.42719e-09
2.42643e-09
2.2086e-09
1.83253e-09
1.39578e-09
1.00592e-09
1.00629e-09
1.39506e-09
1.8301e-09
2.20409e-09
2.41985e-09
2.41899e-09
2.2017e-09
1.82669e-09
1.39127e-09
1.00269e-09
1.00714e-09
1.39624e-09
1.83162e-09
2.20589e-09
2.42179e-09
2.42093e-09
2.20349e-09
1.82821e-09
1.39245e-09
1.00352e-09
1.00622e-09
1.395e-09
1.83008e-09
2.20412e-09
2.41996e-09
2.41922e-09
2.20205e-09
1.82714e-09
1.39176e-09
1.00311e-09
1.00617e-09
1.39508e-09
1.83037e-09
2.20468e-09
2.4208e-09
2.42028e-09
2.20326e-09
1.82838e-09
1.3929e-09
1.00407e-09
1.00562e-09
1.39452e-09
1.82988e-09
2.20438e-09
2.42075e-09
2.42053e-09
2.20378e-09
1.82908e-09
1.39367e-09
1.00479e-09
1.00542e-09
1.39441e-09
1.82997e-09
2.20473e-09
2.42142e-09
2.42148e-09
2.20491e-09
1.83027e-09
1.39477e-09
1.00572e-09
1.00536e-09
1.3944e-09
1.83006e-09
2.20498e-09
2.42186e-09
2.4221e-09
2.20564e-09
1.83102e-09
1.39546e-09
1.00629e-09
1.00571e-09
1.39486e-09
1.83061e-09
2.2056e-09
2.42255e-09
2.42281e-09
2.20633e-09
1.83161e-09
1.39593e-09
1.00664e-09
1.00629e-09
1.39556e-09
1.83138e-09
2.20639e-09
2.42329e-09
2.42347e-09
2.20687e-09
1.83201e-09
1.39618e-09
1.00678e-09
1.00684e-09
1.39629e-09
1.83222e-09
2.20728e-09
2.42416e-09
2.42424e-09
2.20749e-09
1.83246e-09
1.39648e-09
1.00697e-09
1.00705e-09
1.39664e-09
1.83274e-09
2.20794e-09
2.42488e-09
2.42496e-09
2.20814e-09
1.83302e-09
1.39692e-09
1.00731e-09
1.00678e-09
1.39647e-09
1.83274e-09
2.20814e-09
2.42528e-09
2.42551e-09
2.20877e-09
1.83367e-09
1.39753e-09
1.00784e-09
1.00622e-09
1.39591e-09
1.83229e-09
2.20791e-09
2.42533e-09
2.42582e-09
2.20931e-09
1.83433e-09
1.39824e-09
1.00851e-09
1.00569e-09
1.39534e-09
1.83178e-09
2.20758e-09
2.42526e-09
2.42606e-09
2.20983e-09
1.83505e-09
1.39903e-09
1.00924e-09
1.00551e-09
1.39515e-09
1.83163e-09
2.20754e-09
2.42543e-09
2.42649e-09
2.2105e-09
1.83586e-09
1.39987e-09
1.00998e-09
1.00576e-09
1.39548e-09
1.83204e-09
2.20805e-09
2.42607e-09
2.42726e-09
2.21136e-09
1.83674e-09
1.40066e-09
1.01061e-09
1.00633e-09
1.39619e-09
1.83288e-09
2.20896e-09
2.42699e-09
2.42814e-09
2.21212e-09
1.83734e-09
1.40106e-09
1.01085e-09
1.00696e-09
1.39695e-09
1.83372e-09
2.20976e-09
2.42761e-09
2.42846e-09
2.21209e-09
1.83697e-09
1.40044e-09
1.01018e-09
1.00738e-09
1.39733e-09
1.83396e-09
2.2097e-09
2.4271e-09
2.42737e-09
2.21042e-09
1.83487e-09
1.39821e-09
1.00814e-09
1.00735e-09
1.39696e-09
1.83312e-09
2.20822e-09
2.42485e-09
2.42432e-09
2.20672e-09
1.83086e-09
1.39433e-09
1.00479e-09
1.00675e-09
1.39575e-09
1.8311e-09
2.20529e-09
2.42097e-09
2.41964e-09
2.20157e-09
1.82568e-09
1.38964e-09
1.00091e-09
1.00578e-09
1.39401e-09
1.8284e-09
2.20159e-09
2.41639e-09
2.4145e-09
2.1963e-09
1.82078e-09
1.38547e-09
9.97622e-10
1.00479e-09
1.39235e-09
1.8259e-09
2.19831e-09
2.41253e-09
2.41045e-09
2.19252e-09
1.81762e-09
1.3831e-09
9.95934e-10
1.00421e-09
1.39141e-09
1.82452e-09
2.19658e-09
2.4107e-09
2.40885e-09
2.19145e-09
1.81723e-09
1.38328e-09
9.96398e-10
1.00419e-09
1.39152e-09
1.82479e-09
2.19711e-09
2.41165e-09
2.41038e-09
2.19361e-09
1.8199e-09
1.38611e-09
9.99007e-10
1.00462e-09
1.39255e-09
1.82659e-09
2.19977e-09
2.41521e-09
2.41476e-09
2.19857e-09
1.82504e-09
1.39095e-09
1.00316e-09
1.00522e-09
1.39401e-09
1.82923e-09
2.20366e-09
2.42028e-09
2.42071e-09
2.20493e-09
1.83125e-09
1.39651e-09
1.00773e-09
1.00587e-09
1.3955e-09
1.83188e-09
2.20751e-09
2.4252e-09
2.42628e-09
2.21062e-09
1.83651e-09
1.40095e-09
1.01123e-09
1.00686e-09
1.39705e-09
1.83412e-09
2.21036e-09
2.42844e-09
2.42955e-09
2.21355e-09
1.83882e-09
1.40258e-09
1.01229e-09
1.00876e-09
1.39913e-09
1.83612e-09
2.21187e-09
2.42911e-09
2.42914e-09
2.21202e-09
1.8364e-09
1.39973e-09
1.00957e-09
1.01191e-09
1.40182e-09
1.83757e-09
2.21115e-09
2.42562e-09
2.4227e-09
2.20304e-09
1.82587e-09
1.38903e-09
1.00014e-09
1.01543e-09
1.40386e-09
1.83667e-09
2.20588e-09
2.41507e-09
2.40686e-09
2.18302e-09
1.80377e-09
1.36754e-09
9.81703e-10
1.01781e-09
1.40351e-09
1.83162e-09
2.19434e-09
2.39602e-09
2.38074e-09
2.15187e-09
1.77087e-09
1.3367e-09
9.55812e-10
1.02033e-09
1.40268e-09
1.82496e-09
2.17972e-09
2.37241e-09
2.34893e-09
2.1146e-09
1.73212e-09
1.30085e-09
9.25714e-10
1.0267e-09
1.40603e-09
1.82222e-09
2.16835e-09
2.35122e-09
2.31887e-09
2.07865e-09
1.69444e-09
1.26579e-09
8.95791e-10
1.04173e-09
1.4199e-09
1.83142e-09
2.16985e-09
2.34346e-09
2.30242e-09
2.05602e-09
1.66915e-09
1.24122e-09
8.73785e-10
1.06374e-09
1.44268e-09
1.85161e-09
2.18439e-09
2.35056e-09
2.3022e-09
2.05007e-09
1.65988e-09
1.23055e-09
8.62841e-10
1.0953e-09
1.47948e-09
1.89099e-09
2.22296e-09
2.38513e-09
2.3308e-09
2.072e-09
1.67556e-09
1.24054e-09
8.67835e-10
1.11369e-09
1.50013e-09
1.91265e-09
2.24412e-09
2.4046e-09
2.34814e-09
2.08728e-09
1.68905e-09
1.2517e-09
8.76249e-10
1.1656e-09
1.5672e-09
1.99368e-09
2.33497e-09
2.49926e-09
2.44022e-09
2.17087e-09
1.76035e-09
1.30743e-09
9.1724e-10
)
;
    }
    inlet
    {
        type            calculated;
        value           uniform 0;
    }
    outlet
    {
        type            calculated;
        value           uniform 0;
    }
}


// ************************************************************************* //
