/*--------------------------------*- C++ -*----------------------------------*\
| =========                 |                                                 |
| \\      /  F ield         | OpenFOAM: The Open Source CFD Toolbox           |
|  \\    /   O peration     | Version:  2406                                  |
|   \\  /    A nd           | Website:  www.openfoam.com                      |
|    \\/     M anipulation  |                                                 |
\*---------------------------------------------------------------------------*/
FoamFile
{
    version     2.0;
    format      ascii;
    arch        "LSB;label=32;scalar=64";
    class       volScalarField;
    location    "1.2";
    object      p;
}
// * * * * * * * * * * * * * * * * * * * * * * * * * * * * * * * * * * * * * //

dimensions      [0 2 -2 0 0 0 0];

internalField   nonuniform List<scalar> 
25000
(
19.0641
19.0155
18.9842
18.9636
18.9535
18.9535
18.9636
18.9842
19.0155
19.0641
19.0155
18.9609
18.9241
18.9002
18.8883
18.8883
18.9002
18.9241
18.9609
19.0155
18.9842
18.9241
18.8826
18.8555
18.8422
18.8422
18.8555
18.8826
18.9241
18.9842
18.9636
18.9002
18.8555
18.8264
18.8122
18.8122
18.8264
18.8555
18.9002
18.9636
18.9535
18.8883
18.8422
18.8122
18.7975
18.7975
18.8122
18.8422
18.8883
18.9535
18.9535
18.8883
18.8422
18.8122
18.7975
18.7975
18.8122
18.8422
18.8883
18.9535
18.9636
18.9002
18.8555
18.8264
18.8122
18.8122
18.8264
18.8555
18.9002
18.9636
18.9842
18.9241
18.8826
18.8555
18.8422
18.8422
18.8555
18.8826
18.9241
18.9842
19.0155
18.9609
18.9241
18.9002
18.8883
18.8883
18.9002
18.9241
18.9609
19.0155
19.0641
19.0155
18.9842
18.9636
18.9535
18.9535
18.9636
18.9842
19.0155
19.0641
17.5921
17.6198
17.6392
17.6524
17.6592
17.6592
17.6524
17.6392
17.6198
17.5921
17.6198
17.6504
17.672
17.687
17.6948
17.6948
17.6869
17.672
17.6504
17.6198
17.6392
17.672
17.6965
17.7138
17.7229
17.7229
17.7138
17.6965
17.672
17.6392
17.6524
17.687
17.7138
17.733
17.7429
17.7429
17.733
17.7138
17.6869
17.6524
17.6592
17.6948
17.7229
17.7429
17.7532
17.7532
17.7429
17.7229
17.6948
17.6592
17.6592
17.6948
17.7229
17.7429
17.7532
17.7532
17.7429
17.7229
17.6948
17.6592
17.6524
17.687
17.7138
17.733
17.7429
17.7429
17.733
17.7138
17.6869
17.6524
17.6392
17.672
17.6965
17.7138
17.7229
17.7229
17.7138
17.6965
17.672
17.6392
17.6198
17.6504
17.672
17.687
17.6948
17.6948
17.6869
17.672
17.6504
17.6198
17.5921
17.6198
17.6392
17.6524
17.6592
17.6592
17.6524
17.6392
17.6198
17.5921
17.6831
17.6798
17.6782
17.6772
17.6768
17.6768
17.6772
17.6782
17.6798
17.683
17.6798
17.6767
17.6747
17.6733
17.6726
17.6726
17.6733
17.6747
17.6767
17.6798
17.6782
17.6747
17.6723
17.6707
17.67
17.67
17.6707
17.6723
17.6747
17.6782
17.6772
17.6733
17.6707
17.6693
17.6687
17.6687
17.6693
17.6707
17.6733
17.6772
17.6768
17.6726
17.67
17.6687
17.6684
17.6684
17.6687
17.67
17.6726
17.6768
17.6768
17.6726
17.67
17.6687
17.6684
17.6684
17.6687
17.67
17.6726
17.6768
17.6772
17.6733
17.6707
17.6693
17.6687
17.6687
17.6693
17.6707
17.6733
17.6772
17.6782
17.6747
17.6723
17.6707
17.67
17.67
17.6707
17.6723
17.6747
17.6782
17.6798
17.6767
17.6747
17.6733
17.6726
17.6726
17.6733
17.6747
17.6767
17.6798
17.6831
17.6798
17.6782
17.6772
17.6768
17.6768
17.6772
17.6782
17.6798
17.683
16.9873
16.9904
16.9926
16.9944
16.9953
16.9953
16.9944
16.9926
16.9903
16.9873
16.9904
16.9942
16.997
16.999
17.0001
17.0001
16.999
16.997
16.9942
16.9903
16.9926
16.997
17.0002
17.0026
17.0038
17.0038
17.0025
17.0002
16.997
16.9926
16.9944
16.999
17.0026
17.0051
17.0064
17.0064
17.0051
17.0025
16.999
16.9943
16.9953
17.0001
17.0038
17.0064
17.0079
17.0079
17.0064
17.0038
17.0001
16.9953
16.9953
17.0001
17.0038
17.0064
17.0079
17.0079
17.0064
17.0038
17.0001
16.9953
16.9944
16.999
17.0026
17.0051
17.0064
17.0064
17.0051
17.0025
16.999
16.9943
16.9926
16.997
17.0002
17.0026
17.0038
17.0038
17.0025
17.0002
16.997
16.9926
16.9904
16.9942
16.997
16.999
17.0001
17.0001
16.999
16.997
16.9942
16.9903
16.9873
16.9904
16.9926
16.9944
16.9953
16.9953
16.9944
16.9926
16.9903
16.9873
16.7547
16.7534
16.7526
16.7521
16.7518
16.7518
16.7521
16.7526
16.7534
16.7547
16.7534
16.7518
16.7507
16.7499
16.7495
16.7495
16.7498
16.7507
16.7518
16.7534
16.7526
16.7507
16.7492
16.7482
16.7476
16.7476
16.7481
16.7492
16.7506
16.7526
16.7521
16.7499
16.7482
16.7469
16.7463
16.7463
16.7469
16.7481
16.7498
16.752
16.7518
16.7495
16.7476
16.7463
16.7457
16.7457
16.7463
16.7476
16.7494
16.7518
16.7518
16.7495
16.7477
16.7463
16.7457
16.7457
16.7463
16.7476
16.7494
16.7518
16.7521
16.7499
16.7482
16.7469
16.7463
16.7463
16.7469
16.7481
16.7498
16.7521
16.7526
16.7507
16.7492
16.7482
16.7476
16.7476
16.7481
16.7492
16.7507
16.7526
16.7534
16.7518
16.7507
16.7499
16.7495
16.7495
16.7499
16.7507
16.7518
16.7534
16.7548
16.7534
16.7526
16.7521
16.7518
16.7518
16.7521
16.7526
16.7534
16.7547
16.3015
16.3023
16.3029
16.3033
16.3035
16.3035
16.3033
16.3029
16.3023
16.3014
16.3023
16.3033
16.3041
16.3046
16.3048
16.3048
16.3046
16.304
16.3033
16.3022
16.3029
16.3041
16.3049
16.3054
16.3057
16.3057
16.3054
16.3049
16.304
16.3028
16.3033
16.3046
16.3054
16.3059
16.3061
16.3061
16.3059
16.3054
16.3046
16.3033
16.3036
16.3049
16.3057
16.3061
16.3062
16.3062
16.3061
16.3057
16.3048
16.3035
16.3036
16.3049
16.3057
16.3061
16.3062
16.3062
16.3061
16.3057
16.3048
16.3035
16.3033
16.3046
16.3055
16.306
16.3061
16.3061
16.3059
16.3054
16.3046
16.3033
16.3029
16.3041
16.3049
16.3055
16.3057
16.3057
16.3054
16.3049
16.304
16.3029
16.3023
16.3033
16.3041
16.3046
16.3049
16.3048
16.3046
16.304
16.3033
16.3023
16.3015
16.3023
16.3029
16.3033
16.3036
16.3036
16.3033
16.3029
16.3023
16.3015
15.9702
15.9698
15.9696
15.9694
15.9693
15.9693
15.9694
15.9695
15.9698
15.9702
15.9698
15.9693
15.969
15.9687
15.9686
15.9686
15.9687
15.9689
15.9693
15.9698
15.9696
15.969
15.9685
15.9682
15.968
15.968
15.9681
15.9685
15.9689
15.9695
15.9694
15.9687
15.9682
15.9678
15.9675
15.9675
15.9677
15.9681
15.9687
15.9694
15.9693
15.9686
15.968
15.9675
15.9673
15.9673
15.9675
15.968
15.9685
15.9693
15.9693
15.9686
15.968
15.9675
15.9673
15.9673
15.9675
15.968
15.9686
15.9693
15.9694
15.9687
15.9682
15.9678
15.9675
15.9675
15.9677
15.9681
15.9687
15.9694
15.9696
15.969
15.9685
15.9682
15.968
15.968
15.9682
15.9685
15.969
15.9696
15.9699
15.9694
15.969
15.9687
15.9686
15.9686
15.9687
15.969
15.9693
15.9698
15.9703
15.9699
15.9696
15.9694
15.9693
15.9693
15.9694
15.9696
15.9698
15.9702
15.5811
15.5813
15.5814
15.5815
15.5816
15.5816
15.5815
15.5814
15.5812
15.581
15.5813
15.5816
15.5817
15.5819
15.5819
15.5819
15.5819
15.5817
15.5815
15.5812
15.5814
15.5818
15.582
15.5821
15.5822
15.5822
15.5821
15.5819
15.5817
15.5814
15.5816
15.5819
15.5821
15.5823
15.5823
15.5823
15.5822
15.5821
15.5819
15.5815
15.5816
15.582
15.5822
15.5823
15.5823
15.5823
15.5823
15.5822
15.5819
15.5816
15.5816
15.582
15.5822
15.5823
15.5823
15.5823
15.5823
15.5822
15.5819
15.5816
15.5816
15.5819
15.5821
15.5823
15.5823
15.5823
15.5823
15.5821
15.5819
15.5815
15.5815
15.5818
15.582
15.5821
15.5822
15.5822
15.5821
15.582
15.5817
15.5814
15.5813
15.5816
15.5818
15.5819
15.582
15.582
15.5819
15.5817
15.5815
15.5812
15.5811
15.5813
15.5814
15.5816
15.5816
15.5816
15.5815
15.5814
15.5813
15.581
15.2237
15.2236
15.2235
15.2235
15.2235
15.2235
15.2235
15.2235
15.2236
15.2237
15.2236
15.2235
15.2234
15.2233
15.2233
15.2233
15.2233
15.2234
15.2234
15.2236
15.2236
15.2234
15.2233
15.2232
15.2231
15.2231
15.2231
15.2232
15.2234
15.2235
15.2235
15.2233
15.2232
15.2231
15.223
15.223
15.223
15.2231
15.2233
15.2235
15.2235
15.2233
15.2231
15.223
15.2229
15.2229
15.223
15.2231
15.2233
15.2234
15.2235
15.2233
15.2231
15.223
15.2229
15.2229
15.223
15.2231
15.2233
15.2235
15.2235
15.2233
15.2232
15.2231
15.223
15.223
15.2231
15.2232
15.2233
15.2235
15.2236
15.2234
15.2233
15.2232
15.2231
15.2231
15.2232
15.2233
15.2234
15.2235
15.2236
15.2235
15.2234
15.2233
15.2233
15.2233
15.2233
15.2234
15.2235
15.2236
15.2237
15.2236
15.2236
15.2235
15.2235
15.2235
15.2235
15.2235
15.2236
15.2237
14.8512
14.8512
14.8513
14.8513
14.8513
14.8513
14.8513
14.8513
14.8512
14.8512
14.8513
14.8513
14.8514
14.8514
14.8514
14.8514
14.8514
14.8514
14.8513
14.8512
14.8513
14.8514
14.8514
14.8515
14.8515
14.8515
14.8515
14.8514
14.8514
14.8513
14.8513
14.8514
14.8515
14.8515
14.8515
14.8515
14.8515
14.8515
14.8514
14.8513
14.8513
14.8514
14.8515
14.8515
14.8515
14.8515
14.8515
14.8515
14.8514
14.8513
14.8513
14.8514
14.8515
14.8515
14.8515
14.8515
14.8515
14.8515
14.8514
14.8513
14.8513
14.8514
14.8515
14.8515
14.8515
14.8515
14.8515
14.8515
14.8514
14.8513
14.8513
14.8514
14.8514
14.8515
14.8515
14.8515
14.8515
14.8514
14.8514
14.8513
14.8512
14.8513
14.8514
14.8514
14.8514
14.8514
14.8514
14.8514
14.8513
14.8512
14.8512
14.8512
14.8513
14.8513
14.8513
14.8513
14.8513
14.8513
14.8513
14.8512
14.487
14.487
14.487
14.487
14.487
14.487
14.487
14.487
14.487
14.487
14.487
14.4869
14.4869
14.4869
14.4869
14.4869
14.4869
14.4869
14.487
14.487
14.487
14.4869
14.4869
14.4869
14.4869
14.4869
14.4869
14.4869
14.4869
14.487
14.4869
14.4869
14.4869
14.4868
14.4868
14.4868
14.4868
14.4869
14.4869
14.487
14.4869
14.4869
14.4868
14.4868
14.4868
14.4868
14.4868
14.4869
14.4869
14.487
14.4869
14.4869
14.4868
14.4868
14.4868
14.4868
14.4868
14.4869
14.4869
14.487
14.4869
14.4869
14.4868
14.4868
14.4868
14.4868
14.4868
14.4869
14.4869
14.487
14.4869
14.4869
14.4869
14.4868
14.4868
14.4868
14.4869
14.4869
14.4869
14.487
14.4869
14.4869
14.4869
14.4869
14.4869
14.4869
14.4869
14.4869
14.487
14.487
14.4869
14.4869
14.4869
14.4869
14.4869
14.4869
14.4869
14.487
14.487
14.487
14.1188
14.1189
14.1189
14.1189
14.1189
14.1189
14.1189
14.1189
14.1189
14.1189
14.1188
14.1189
14.1189
14.1189
14.1189
14.1189
14.1189
14.1189
14.1189
14.1189
14.1188
14.1189
14.1189
14.1189
14.1189
14.1189
14.119
14.119
14.1189
14.1189
14.1188
14.1189
14.1189
14.1189
14.1189
14.1189
14.119
14.119
14.119
14.1189
14.1188
14.1189
14.1189
14.1189
14.1189
14.1189
14.119
14.119
14.1189
14.1189
14.1188
14.1188
14.1189
14.1189
14.1189
14.1189
14.1189
14.1189
14.1189
14.1189
14.1188
14.1188
14.1189
14.1189
14.1189
14.1189
14.1189
14.1189
14.1189
14.1189
14.1188
14.1188
14.1188
14.1189
14.1189
14.1189
14.1189
14.1189
14.1189
14.1189
14.1188
14.1188
14.1188
14.1188
14.1189
14.1189
14.1189
14.1189
14.1189
14.1189
14.1187
14.1188
14.1188
14.1188
14.1188
14.1188
14.1189
14.1189
14.1189
14.1189
13.7528
13.7528
13.7529
13.7529
13.7529
13.7529
13.7529
13.7529
13.7529
13.753
13.7528
13.7528
13.7528
13.7528
13.7529
13.7529
13.7529
13.7529
13.7529
13.753
13.7528
13.7528
13.7528
13.7528
13.7528
13.7528
13.7529
13.7529
13.7529
13.753
13.7528
13.7528
13.7528
13.7528
13.7528
13.7528
13.7529
13.7529
13.7529
13.7529
13.7528
13.7528
13.7528
13.7528
13.7528
13.7528
13.7528
13.7529
13.7529
13.7529
13.7527
13.7527
13.7528
13.7528
13.7528
13.7528
13.7528
13.7529
13.7529
13.7529
13.7527
13.7527
13.7527
13.7528
13.7528
13.7528
13.7528
13.7528
13.7529
13.7529
13.7527
13.7527
13.7527
13.7528
13.7528
13.7528
13.7528
13.7528
13.7529
13.7529
13.7527
13.7527
13.7527
13.7528
13.7528
13.7528
13.7528
13.7528
13.7529
13.7529
13.7527
13.7527
13.7527
13.7528
13.7528
13.7528
13.7528
13.7528
13.7529
13.7529
13.3858
13.3858
13.3858
13.3859
13.3859
13.3859
13.3859
13.3859
13.3859
13.386
13.3858
13.3858
13.3858
13.3859
13.3859
13.3859
13.3859
13.3859
13.3859
13.386
13.3858
13.3858
13.3858
13.3858
13.3859
13.3859
13.3859
13.3859
13.3859
13.386
13.3858
13.3858
13.3858
13.3858
13.3859
13.3859
13.3859
13.3859
13.3859
13.3859
13.3858
13.3858
13.3858
13.3858
13.3859
13.3859
13.3859
13.3859
13.3859
13.3859
13.3857
13.3858
13.3858
13.3858
13.3858
13.3859
13.3859
13.3859
13.3859
13.3859
13.3857
13.3858
13.3858
13.3858
13.3858
13.3859
13.3859
13.3859
13.3859
13.3859
13.3857
13.3857
13.3858
13.3858
13.3858
13.3858
13.3859
13.3859
13.3859
13.3859
13.3857
13.3857
13.3858
13.3858
13.3858
13.3858
13.3858
13.3859
13.3859
13.3859
13.3857
13.3857
13.3857
13.3858
13.3858
13.3858
13.3858
13.3858
13.3859
13.3859
13.0193
13.0194
13.0194
13.0194
13.0194
13.0194
13.0194
13.0194
13.0195
13.0195
13.0193
13.0193
13.0194
13.0194
13.0194
13.0194
13.0194
13.0194
13.0195
13.0195
13.0193
13.0193
13.0193
13.0194
13.0194
13.0194
13.0194
13.0194
13.0195
13.0195
13.0193
13.0193
13.0193
13.0194
13.0194
13.0194
13.0194
13.0194
13.0194
13.0195
13.0193
13.0193
13.0193
13.0193
13.0194
13.0194
13.0194
13.0194
13.0194
13.0195
13.0193
13.0193
13.0193
13.0193
13.0194
13.0194
13.0194
13.0194
13.0194
13.0194
13.0193
13.0193
13.0193
13.0193
13.0193
13.0194
13.0194
13.0194
13.0194
13.0194
13.0193
13.0193
13.0193
13.0193
13.0193
13.0194
13.0194
13.0194
13.0194
13.0194
13.0193
13.0193
13.0193
13.0193
13.0193
13.0194
13.0194
13.0194
13.0194
13.0194
13.0193
13.0193
13.0193
13.0193
13.0193
13.0193
13.0194
13.0194
13.0194
13.0194
12.6526
12.6527
12.6527
12.6527
12.6527
12.6527
12.6527
12.6527
12.6527
12.6527
12.6526
12.6526
12.6527
12.6527
12.6527
12.6527
12.6527
12.6527
12.6527
12.6527
12.6526
12.6526
12.6527
12.6527
12.6527
12.6527
12.6527
12.6527
12.6527
12.6527
12.6526
12.6526
12.6527
12.6527
12.6527
12.6527
12.6527
12.6527
12.6527
12.6527
12.6526
12.6526
12.6527
12.6527
12.6527
12.6527
12.6527
12.6527
12.6527
12.6527
12.6526
12.6526
12.6526
12.6527
12.6527
12.6527
12.6527
12.6527
12.6527
12.6527
12.6526
12.6526
12.6526
12.6527
12.6527
12.6527
12.6527
12.6527
12.6527
12.6527
12.6526
12.6526
12.6526
12.6526
12.6527
12.6527
12.6527
12.6527
12.6527
12.6527
12.6526
12.6526
12.6526
12.6526
12.6526
12.6527
12.6527
12.6527
12.6527
12.6527
12.6526
12.6526
12.6526
12.6526
12.6526
12.6526
12.6527
12.6527
12.6527
12.6527
12.2861
12.2861
12.2861
12.2861
12.2861
12.2861
12.2861
12.2861
12.2861
12.2861
12.2861
12.2861
12.2861
12.2861
12.2861
12.2861
12.2861
12.2861
12.2861
12.2861
12.2861
12.2861
12.2861
12.2861
12.2861
12.2861
12.2861
12.2861
12.2861
12.2861
12.2861
12.2861
12.2861
12.2861
12.2861
12.2861
12.2861
12.2861
12.2861
12.2861
12.2861
12.2861
12.2861
12.2861
12.2861
12.2861
12.2861
12.2861
12.2861
12.2861
12.2861
12.2861
12.2861
12.2861
12.2861
12.2861
12.2861
12.2861
12.2861
12.2861
12.2861
12.2861
12.2861
12.2861
12.2861
12.2861
12.2861
12.2861
12.2861
12.2861
12.2861
12.2861
12.2861
12.2861
12.2861
12.2861
12.2861
12.2861
12.2861
12.2861
12.2861
12.2861
12.2861
12.2861
12.2861
12.2861
12.2861
12.2861
12.2861
12.2861
12.2861
12.2861
12.2861
12.2861
12.2861
12.2861
12.2861
12.2861
12.2861
12.286
11.9195
11.9195
11.9195
11.9195
11.9195
11.9194
11.9194
11.9194
11.9194
11.9194
11.9195
11.9195
11.9195
11.9195
11.9195
11.9194
11.9194
11.9194
11.9194
11.9194
11.9195
11.9195
11.9195
11.9195
11.9195
11.9194
11.9194
11.9194
11.9194
11.9194
11.9195
11.9195
11.9195
11.9195
11.9195
11.9194
11.9194
11.9194
11.9194
11.9194
11.9195
11.9195
11.9195
11.9195
11.9195
11.9194
11.9194
11.9194
11.9194
11.9194
11.9195
11.9195
11.9195
11.9195
11.9195
11.9194
11.9194
11.9194
11.9194
11.9194
11.9195
11.9195
11.9195
11.9195
11.9195
11.9194
11.9194
11.9194
11.9194
11.9194
11.9195
11.9195
11.9195
11.9195
11.9195
11.9194
11.9194
11.9194
11.9194
11.9194
11.9195
11.9195
11.9195
11.9195
11.9195
11.9194
11.9194
11.9194
11.9194
11.9194
11.9195
11.9195
11.9195
11.9195
11.9195
11.9194
11.9194
11.9194
11.9194
11.9194
11.5529
11.5529
11.5528
11.5528
11.5528
11.5528
11.5528
11.5528
11.5528
11.5528
11.5529
11.5529
11.5528
11.5528
11.5528
11.5528
11.5528
11.5528
11.5528
11.5528
11.5529
11.5529
11.5529
11.5528
11.5528
11.5528
11.5528
11.5528
11.5528
11.5528
11.5529
11.5529
11.5529
11.5528
11.5528
11.5528
11.5528
11.5528
11.5528
11.5528
11.5529
11.5529
11.5529
11.5529
11.5528
11.5528
11.5528
11.5528
11.5528
11.5528
11.5529
11.5529
11.5529
11.5529
11.5528
11.5528
11.5528
11.5528
11.5528
11.5528
11.5529
11.5529
11.5529
11.5529
11.5528
11.5528
11.5528
11.5528
11.5528
11.5528
11.5529
11.5529
11.5529
11.5529
11.5528
11.5528
11.5528
11.5528
11.5528
11.5528
11.5529
11.5529
11.5529
11.5529
11.5528
11.5528
11.5528
11.5528
11.5528
11.5528
11.5529
11.5529
11.5529
11.5529
11.5528
11.5528
11.5528
11.5528
11.5528
11.5528
11.1862
11.1862
11.1862
11.1862
11.1862
11.1862
11.1862
11.1862
11.1862
11.1862
11.1862
11.1862
11.1862
11.1862
11.1862
11.1862
11.1862
11.1862
11.1862
11.1862
11.1862
11.1862
11.1862
11.1862
11.1862
11.1862
11.1862
11.1862
11.1862
11.1862
11.1862
11.1862
11.1862
11.1862
11.1862
11.1862
11.1862
11.1862
11.1862
11.1862
11.1862
11.1862
11.1862
11.1862
11.1862
11.1862
11.1862
11.1862
11.1862
11.1862
11.1862
11.1862
11.1862
11.1862
11.1862
11.1862
11.1862
11.1862
11.1862
11.1862
11.1863
11.1862
11.1862
11.1862
11.1862
11.1862
11.1862
11.1862
11.1862
11.1862
11.1863
11.1862
11.1862
11.1862
11.1862
11.1862
11.1862
11.1862
11.1862
11.1862
11.1863
11.1862
11.1862
11.1862
11.1862
11.1862
11.1862
11.1862
11.1862
11.1862
11.1863
11.1862
11.1862
11.1862
11.1862
11.1862
11.1862
11.1862
11.1862
11.1862
10.8196
10.8196
10.8196
10.8196
10.8196
10.8196
10.8196
10.8196
10.8196
10.8196
10.8196
10.8196
10.8196
10.8196
10.8196
10.8196
10.8196
10.8196
10.8196
10.8196
10.8196
10.8196
10.8196
10.8196
10.8196
10.8196
10.8196
10.8196
10.8196
10.8196
10.8196
10.8196
10.8196
10.8196
10.8196
10.8196
10.8196
10.8196
10.8196
10.8196
10.8196
10.8196
10.8196
10.8196
10.8196
10.8196
10.8196
10.8196
10.8196
10.8196
10.8196
10.8196
10.8196
10.8196
10.8196
10.8196
10.8196
10.8196
10.8196
10.8196
10.8196
10.8196
10.8196
10.8196
10.8196
10.8196
10.8196
10.8196
10.8196
10.8196
10.8196
10.8196
10.8196
10.8196
10.8196
10.8196
10.8196
10.8196
10.8196
10.8196
10.8196
10.8196
10.8196
10.8196
10.8196
10.8196
10.8196
10.8196
10.8196
10.8196
10.8196
10.8196
10.8196
10.8196
10.8196
10.8196
10.8196
10.8196
10.8196
10.8196
10.4529
10.4529
10.4529
10.4529
10.4529
10.4529
10.4529
10.4529
10.4529
10.453
10.4529
10.4529
10.4529
10.4529
10.4529
10.4529
10.453
10.453
10.453
10.453
10.4529
10.4529
10.4529
10.453
10.453
10.453
10.453
10.453
10.453
10.453
10.4529
10.453
10.453
10.453
10.453
10.453
10.453
10.453
10.453
10.453
10.453
10.453
10.453
10.453
10.453
10.453
10.453
10.453
10.453
10.453
10.453
10.453
10.453
10.453
10.453
10.453
10.453
10.453
10.453
10.453
10.453
10.453
10.453
10.453
10.453
10.453
10.453
10.453
10.453
10.453
10.453
10.453
10.453
10.453
10.453
10.453
10.453
10.453
10.453
10.453
10.453
10.453
10.453
10.453
10.453
10.453
10.453
10.453
10.453
10.453
10.453
10.453
10.453
10.453
10.453
10.453
10.453
10.453
10.453
10.453
10.0863
10.0863
10.0863
10.0863
10.0863
10.0863
10.0863
10.0863
10.0863
10.0863
10.0863
10.0863
10.0863
10.0863
10.0863
10.0863
10.0863
10.0863
10.0863
10.0863
10.0863
10.0863
10.0863
10.0863
10.0863
10.0863
10.0863
10.0863
10.0863
10.0863
10.0863
10.0863
10.0863
10.0863
10.0863
10.0863
10.0863
10.0863
10.0863
10.0863
10.0863
10.0863
10.0863
10.0863
10.0863
10.0863
10.0863
10.0863
10.0863
10.0863
10.0863
10.0863
10.0863
10.0863
10.0863
10.0863
10.0863
10.0864
10.0864
10.0864
10.0863
10.0863
10.0863
10.0863
10.0864
10.0864
10.0864
10.0864
10.0864
10.0864
10.0863
10.0863
10.0863
10.0864
10.0864
10.0864
10.0864
10.0864
10.0864
10.0864
10.0863
10.0863
10.0864
10.0864
10.0864
10.0864
10.0864
10.0864
10.0864
10.0864
10.0863
10.0864
10.0864
10.0864
10.0864
10.0864
10.0864
10.0864
10.0864
10.0864
9.71977
9.71975
9.71974
9.71973
9.71972
9.71971
9.7197
9.71969
9.71969
9.71968
9.71976
9.71975
9.71974
9.71973
9.71972
9.71971
9.7197
9.71969
9.71969
9.71968
9.71976
9.71975
9.71974
9.71973
9.71972
9.71971
9.7197
9.7197
9.71969
9.71969
9.71975
9.71975
9.71974
9.71973
9.71972
9.71971
9.71971
9.7197
9.7197
9.71969
9.71975
9.71974
9.71974
9.71973
9.71973
9.71972
9.71971
9.71971
9.7197
9.7197
9.71974
9.71974
9.71974
9.71973
9.71973
9.71972
9.71971
9.71971
9.7197
9.7197
9.71974
9.71974
9.71973
9.71973
9.71973
9.71972
9.71972
9.71971
9.71971
9.7197
9.71973
9.71973
9.71973
9.71973
9.71973
9.71972
9.71972
9.71972
9.71971
9.71971
9.71972
9.71974
9.71973
9.71973
9.71973
9.71973
9.71972
9.71972
9.71971
9.71972
9.71973
9.71975
9.71974
9.71974
9.71973
9.71973
9.71972
9.71971
9.7197
9.71971
9.35319
9.35316
9.35314
9.35312
9.35311
9.35309
9.35308
9.35306
9.35306
9.35303
9.35319
9.35316
9.35314
9.35313
9.35311
9.35309
9.35307
9.35306
9.35304
9.35301
9.35318
9.35316
9.35314
9.35312
9.3531
9.35309
9.35307
9.35305
9.35304
9.35302
9.35317
9.35315
9.35314
9.35312
9.3531
9.35308
9.35307
9.35305
9.35304
9.35302
9.35316
9.35315
9.35313
9.35312
9.3531
9.35308
9.35307
9.35305
9.35304
9.35303
9.35315
9.35314
9.35313
9.35311
9.3531
9.35308
9.35307
9.35305
9.35304
9.35303
9.35314
9.35314
9.35312
9.35311
9.3531
9.35308
9.35307
9.35305
9.35304
9.35303
9.35314
9.35313
9.35312
9.35311
9.3531
9.35308
9.35307
9.35305
9.35304
9.35303
9.35313
9.35313
9.35312
9.35311
9.35309
9.35308
9.35307
9.35305
9.35304
9.35304
9.35313
9.35313
9.35312
9.35311
9.35309
9.35308
9.35306
9.35304
9.35302
9.35302
8.98658
8.98654
8.98652
8.9865
8.98648
8.98646
8.98644
8.98643
8.98642
8.98638
8.98658
8.98655
8.98653
8.98651
8.98648
8.98646
8.98643
8.98641
8.98639
8.98635
8.98658
8.98655
8.98653
8.98651
8.98648
8.98646
8.98643
8.98641
8.98639
8.98636
8.98657
8.98655
8.98653
8.98651
8.98648
8.98646
8.98643
8.98641
8.98639
8.98636
8.98657
8.98655
8.98653
8.98651
8.98648
8.98646
8.98643
8.98641
8.98639
8.98637
8.98657
8.98655
8.98653
8.98651
8.98648
8.98646
8.98643
8.98641
8.98639
8.98637
8.98657
8.98655
8.98653
8.98651
8.98648
8.98646
8.98643
8.98641
8.98639
8.98638
8.98656
8.98655
8.98653
8.98651
8.98648
8.98646
8.98643
8.98641
8.98639
8.98638
8.98656
8.98655
8.98653
8.98651
8.98648
8.98646
8.98643
8.98641
8.98639
8.98639
8.98655
8.98654
8.98652
8.9865
8.98648
8.98646
8.98643
8.98641
8.98638
8.98637
8.61991
8.61987
8.61985
8.61983
8.61981
8.61979
8.61977
8.61975
8.61974
8.61969
8.61994
8.6199
8.61987
8.61985
8.61982
8.61979
8.61977
8.61974
8.61972
8.61967
8.61994
8.61991
8.61989
8.61986
8.61983
8.6198
8.61977
8.61974
8.61972
8.61968
8.61995
8.61992
8.6199
8.61987
8.61984
8.61981
8.61978
8.61975
8.61973
8.6197
8.61996
8.61993
8.61991
8.61988
8.61985
8.61982
8.61979
8.61976
8.61974
8.61972
8.61997
8.61995
8.61992
8.61989
8.61986
8.61983
8.6198
8.61977
8.61975
8.61973
8.61998
8.61996
8.61993
8.61991
8.61987
8.61984
8.61981
8.61978
8.61976
8.61974
8.61999
8.61997
8.61995
8.61992
8.61988
8.61985
8.61982
8.61979
8.61977
8.61976
8.62
8.61998
8.61995
8.61992
8.61989
8.61986
8.61983
8.6198
8.61978
8.61977
8.62001
8.61998
8.61996
8.61993
8.6199
8.61987
8.61984
8.61981
8.61978
8.61976
8.25322
8.25316
8.25316
8.25314
8.25313
8.2531
8.25308
8.25306
8.25304
8.25298
8.25328
8.25323
8.2532
8.25318
8.25315
8.25312
8.25309
8.25306
8.25303
8.25298
8.25329
8.25326
8.25323
8.2532
8.25317
8.25314
8.2531
8.25307
8.25305
8.25301
8.25331
8.25328
8.25326
8.25323
8.2532
8.25316
8.25313
8.2531
8.25307
8.25304
8.25334
8.25332
8.25329
8.25326
8.25322
8.25319
8.25316
8.25313
8.2531
8.25308
8.25337
8.25335
8.25332
8.25329
8.25325
8.25322
8.25319
8.25315
8.25313
8.25311
8.2534
8.25338
8.25335
8.25332
8.25328
8.25325
8.25321
8.25318
8.25315
8.25314
8.25343
8.25341
8.25338
8.25335
8.25331
8.25327
8.25324
8.25321
8.25318
8.25316
8.25345
8.25343
8.2534
8.25337
8.25333
8.25329
8.25326
8.25323
8.2532
8.25318
8.25349
8.25346
8.25342
8.25339
8.25335
8.25331
8.25328
8.25325
8.25323
8.2532
7.88653
7.88645
7.88646
7.88645
7.88643
7.88641
7.88638
7.88636
7.88634
7.88627
7.88663
7.88655
7.88652
7.8865
7.88647
7.88643
7.8864
7.88637
7.88635
7.8863
7.88664
7.88659
7.88656
7.88653
7.8865
7.88647
7.88644
7.8864
7.88638
7.88635
7.88667
7.88664
7.88661
7.88658
7.88655
7.88651
7.88648
7.88644
7.88642
7.88639
7.88671
7.88668
7.88665
7.88662
7.88659
7.88656
7.88652
7.88649
7.88646
7.88644
7.88675
7.88673
7.8867
7.88666
7.88663
7.8866
7.88657
7.88653
7.88651
7.88649
7.88679
7.88677
7.88675
7.88671
7.88667
7.88664
7.88661
7.88658
7.88655
7.88653
7.88682
7.88682
7.88679
7.88676
7.88672
7.88668
7.88665
7.88662
7.88659
7.88656
7.88686
7.88685
7.88683
7.88679
7.88676
7.88672
7.88669
7.88665
7.88663
7.88659
7.88693
7.88691
7.88687
7.88683
7.88679
7.88675
7.88672
7.88669
7.88668
7.88664
7.51989
7.51979
7.51981
7.5198
7.51979
7.51977
7.51975
7.51973
7.51971
7.51964
7.52001
7.51991
7.51988
7.51985
7.51983
7.5198
7.51977
7.51974
7.51973
7.51969
7.52001
7.51995
7.51992
7.5199
7.51987
7.51984
7.51981
7.51978
7.51976
7.51974
7.52004
7.51999
7.51997
7.51994
7.51992
7.51989
7.51986
7.51983
7.51981
7.51979
7.52006
7.52004
7.52001
7.51998
7.51996
7.51994
7.51991
7.51988
7.51986
7.51984
7.52009
7.52008
7.52006
7.52003
7.52
7.51998
7.51996
7.51993
7.51991
7.51989
7.52012
7.52013
7.52011
7.52008
7.52005
7.52002
7.52
7.51998
7.51996
7.51993
7.52016
7.52017
7.52015
7.52013
7.5201
7.52007
7.52005
7.52002
7.52
7.51997
7.52019
7.52021
7.52019
7.52017
7.52014
7.52011
7.52009
7.52006
7.52004
7.51999
7.52028
7.52027
7.52023
7.5202
7.52017
7.52015
7.52013
7.52011
7.52011
7.52006
7.15327
7.15319
7.1532
7.1532
7.15321
7.15321
7.1532
7.15319
7.15318
7.15314
7.15337
7.15328
7.15326
7.15324
7.15323
7.15322
7.15321
7.1532
7.1532
7.15319
7.15335
7.1533
7.15329
7.15327
7.15326
7.15325
7.15324
7.15322
7.15322
7.15322
7.15336
7.15333
7.15331
7.1533
7.15329
7.15329
7.15327
7.15326
7.15325
7.15325
7.15336
7.15335
7.15334
7.15333
7.15332
7.15332
7.15331
7.15329
7.15329
7.15328
7.15337
7.15337
7.15337
7.15335
7.15334
7.15334
7.15334
7.15333
7.15332
7.15332
7.15338
7.1534
7.15339
7.15339
7.15337
7.15337
7.15337
7.15336
7.15336
7.15334
7.15339
7.15342
7.15342
7.15342
7.15341
7.1534
7.1534
7.1534
7.15339
7.15337
7.15341
7.15344
7.15345
7.15344
7.15344
7.15343
7.15343
7.15342
7.15342
7.15337
7.15348
7.15347
7.15347
7.15346
7.15346
7.15346
7.15346
7.15346
7.15349
7.15344
6.78667
6.78663
6.78666
6.78667
6.7867
6.78672
6.78675
6.78677
6.78677
6.78677
6.7867
6.78666
6.78667
6.78668
6.7867
6.78672
6.78674
6.78675
6.78677
6.7868
6.78667
6.78666
6.78667
6.78668
6.7867
6.78671
6.78673
6.78675
6.78677
6.78679
6.78665
6.78665
6.78666
6.78667
6.7867
6.78672
6.78673
6.78675
6.78676
6.78679
6.78663
6.78664
6.78665
6.78667
6.78669
6.78672
6.78673
6.78675
6.78676
6.78678
6.7866
6.78662
6.78664
6.78665
6.78667
6.7867
6.78673
6.78675
6.78676
6.78678
6.78657
6.78661
6.78663
6.78665
6.78667
6.7867
6.78672
6.78674
6.78676
6.78677
6.78656
6.78659
6.78662
6.78665
6.78667
6.7867
6.78672
6.78674
6.78676
6.78676
6.78655
6.78658
6.78662
6.78664
6.78667
6.7867
6.78672
6.78674
6.78676
6.78674
6.78656
6.78657
6.7866
6.78663
6.78666
6.78669
6.78673
6.78675
6.7868
6.78678
6.42004
6.42009
6.42012
6.42016
6.42021
6.42027
6.42032
6.42037
6.42041
6.42046
6.41998
6.42003
6.42007
6.42012
6.42017
6.42023
6.42029
6.42034
6.42039
6.42045
6.41994
6.41999
6.42003
6.42008
6.42013
6.42019
6.42024
6.4203
6.42034
6.4204
6.4199
6.41995
6.41999
6.42004
6.42009
6.42015
6.4202
6.42025
6.4203
6.42035
6.41985
6.41989
6.41994
6.41999
6.42004
6.4201
6.42015
6.4202
6.42025
6.42029
6.4198
6.41984
6.41989
6.41994
6.41999
6.42005
6.42011
6.42016
6.4202
6.42024
6.41974
6.41979
6.41984
6.41989
6.41994
6.42
6.42006
6.42011
6.42016
6.42019
6.41969
6.41974
6.41979
6.41985
6.4199
6.41996
6.42002
6.42007
6.42011
6.42015
6.41966
6.4197
6.41975
6.41981
6.41986
6.41992
6.41998
6.42003
6.42007
6.4201
6.41961
6.41964
6.4197
6.41976
6.41983
6.41989
6.41994
6.41999
6.42005
6.42008
6.0534
6.05354
6.05358
6.05364
6.05371
6.05378
6.05386
6.05393
6.054
6.05409
6.05326
6.0534
6.05348
6.05356
6.05364
6.05372
6.05381
6.05389
6.05396
6.05404
6.05323
6.05333
6.05341
6.05348
6.05357
6.05365
6.05374
6.05382
6.05389
6.05396
6.05317
6.05326
6.05333
6.05341
6.05349
6.05357
6.05366
6.05374
6.05381
6.05387
6.05311
6.05318
6.05325
6.05333
6.05341
6.05349
6.05357
6.05365
6.05372
6.05378
6.05304
6.0531
6.05317
6.05324
6.05332
6.05341
6.05349
6.05356
6.05363
6.05369
6.05297
6.05302
6.05308
6.05316
6.05324
6.05333
6.0534
6.05348
6.05355
6.05361
6.0529
6.05294
6.05301
6.05308
6.05317
6.05325
6.05333
6.0534
6.05347
6.05354
6.05284
6.05288
6.05294
6.05302
6.0531
6.05318
6.05325
6.05333
6.05339
6.05347
6.05275
6.05279
6.05287
6.05295
6.05304
6.05311
6.05319
6.05325
6.0533
6.05339
5.68677
5.68696
5.687
5.68706
5.68712
5.68719
5.68727
5.68735
5.68741
5.68753
5.68659
5.68677
5.68686
5.68695
5.68704
5.68713
5.68722
5.6873
5.68737
5.68745
5.68656
5.68669
5.68678
5.68686
5.68695
5.68705
5.68714
5.68723
5.6873
5.68736
5.6865
5.6866
5.68669
5.68677
5.68686
5.68695
5.68705
5.68713
5.68721
5.68727
5.68644
5.68652
5.6866
5.68669
5.68677
5.68685
5.68694
5.68703
5.68711
5.68717
5.68638
5.68643
5.68651
5.68659
5.68668
5.68676
5.68685
5.68693
5.68701
5.68707
5.68631
5.68635
5.68641
5.6865
5.68659
5.68667
5.68675
5.68683
5.68691
5.68699
5.68624
5.68627
5.68633
5.68641
5.68649
5.68658
5.68666
5.68674
5.68682
5.68691
5.68617
5.6862
5.68626
5.68633
5.68641
5.6865
5.68658
5.68665
5.68673
5.68685
5.68606
5.68612
5.68619
5.68627
5.68635
5.68642
5.68649
5.68655
5.68659
5.68672
5.32015
5.32032
5.32034
5.32039
5.32043
5.32047
5.32052
5.32058
5.32063
5.32072
5.31999
5.32016
5.32023
5.3203
5.32036
5.32043
5.32049
5.32055
5.3206
5.32064
5.31997
5.32008
5.32016
5.32023
5.32029
5.32036
5.32043
5.3205
5.32055
5.32058
5.31993
5.32001
5.32008
5.32015
5.32022
5.32028
5.32036
5.32043
5.32048
5.32052
5.31989
5.31995
5.32001
5.32008
5.32015
5.3202
5.32027
5.32034
5.3204
5.32044
5.31985
5.31989
5.31994
5.32001
5.32008
5.32013
5.32019
5.32026
5.32032
5.32037
5.3198
5.31982
5.31987
5.31993
5.32
5.32006
5.32012
5.32018
5.32024
5.32031
5.31975
5.31976
5.3198
5.31986
5.31992
5.31999
5.32005
5.32011
5.32017
5.32026
5.3197
5.31971
5.31975
5.3198
5.31986
5.31992
5.31998
5.32004
5.32009
5.32022
5.31961
5.31967
5.31971
5.31976
5.31981
5.31986
5.3199
5.31994
5.31995
5.32008
4.95355
4.95363
4.95363
4.95364
4.95364
4.95364
4.95365
4.95366
4.95368
4.95371
4.95346
4.95354
4.95357
4.9536
4.95361
4.95363
4.95364
4.95366
4.95366
4.95365
4.95346
4.95351
4.95354
4.95357
4.95358
4.9536
4.95363
4.95364
4.95365
4.95364
4.95345
4.95348
4.95351
4.95353
4.95355
4.95357
4.95359
4.95362
4.95363
4.95362
4.95345
4.95346
4.95348
4.95351
4.95352
4.95353
4.95356
4.95358
4.9536
4.9536
4.95344
4.95345
4.95346
4.95348
4.95351
4.95351
4.95352
4.95355
4.95357
4.95358
4.95344
4.95343
4.95343
4.95345
4.95347
4.95348
4.9535
4.95351
4.95353
4.95357
4.95342
4.95341
4.95341
4.95342
4.95343
4.95345
4.95346
4.95348
4.9535
4.95355
4.9534