/*--------------------------------*- C++ -*----------------------------------*\
| =========                 |                                                 |
| \\      /  F ield         | OpenFOAM: The Open Source CFD Toolbox           |
|  \\    /   O peration     | Version:  2406                                  |
|   \\  /    A nd           | Website:  www.openfoam.com                      |
|    \\/     M anipulation  |                                                 |
\*---------------------------------------------------------------------------*/
FoamFile
{
    version     2.0;
    format      ascii;
    arch        "LSB;label=32;scalar=64";
    class       surfaceScalarField;
    location    "1.2";
    object      phi;
}
// * * * * * * * * * * * * * * * * * * * * * * * * * * * * * * * * * * * * * //

dimensions      [0 3 -1 0 0 0 0];

oriented        oriented;

internalField   nonuniform List<scalar> 
73500
(
4.64641e-05
4.64637e-05
5.7055e-05
-5.14906e-05
-5.14903e-05
3.7697e-05
4.71303e-05
6.4902e-05
-5.23268e-05
2.65021e-05
4.75019e-05
7.06874e-05
-5.30513e-05
1.36511e-05
4.76219e-05
7.45178e-05
-5.33174e-05
4.50442e-10
4.76557e-05
7.64235e-05
-5.34357e-05
-1.36502e-05
4.76557e-05
7.64235e-05
-5.34357e-05
-2.65013e-05
4.76218e-05
7.45178e-05
-5.33174e-05
-3.76963e-05
4.75018e-05
7.06875e-05
-5.30513e-05
-4.64635e-05
4.71303e-05
6.49022e-05
-5.23268e-05
4.64637e-05
5.70552e-05
-5.14902e-05
-5.14903e-05
4.71307e-05
3.76965e-05
6.4902e-05
-5.23271e-05
3.80029e-05
3.80024e-05
7.284e-05
2.65052e-05
3.80946e-05
7.8274e-05
1.3584e-05
3.80735e-05
8.17193e-05
4.32753e-10
3.80403e-05
8.33963e-05
-1.35832e-05
3.80403e-05
8.33963e-05
-2.65044e-05
3.80735e-05
8.17193e-05
-3.80022e-05
3.80945e-05
7.82741e-05
-4.71301e-05
3.80024e-05
7.28401e-05
3.76965e-05
6.49022e-05
-5.23267e-05
4.75022e-05
2.65015e-05
7.06874e-05
-5.30516e-05
3.8095e-05
2.65047e-05
7.8274e-05
2.64306e-05
2.64301e-05
8.33162e-05
1.34984e-05
2.63343e-05
8.64277e-05
4.20184e-10
2.62719e-05
8.79143e-05
-1.34976e-05
2.62718e-05
8.79143e-05
-2.64298e-05
2.63342e-05
8.64278e-05
-3.80943e-05
2.64301e-05
8.33162e-05
-4.75016e-05
2.65047e-05
7.82741e-05
2.65015e-05
7.06875e-05
-5.30511e-05
4.76222e-05
1.36505e-05
7.45177e-05
-5.33177e-05
3.80739e-05
1.35835e-05
8.17192e-05
2.63348e-05
1.34979e-05
8.64277e-05
1.34201e-05
1.34196e-05
8.92797e-05
4.1324e-10
1.33735e-05
9.06223e-05
-1.34193e-05
1.33735e-05
9.06223e-05
-2.6334e-05
1.34196e-05
8.92797e-05
-3.80733e-05
1.34979e-05
8.64278e-05
-4.76217e-05
1.35834e-05
8.17193e-05
1.36505e-05
7.45179e-05
-5.33172e-05
4.76561e-05
-1.60604e-10
7.64234e-05
-5.3436e-05
3.80407e-05
-1.49557e-10
8.33962e-05
2.62724e-05
-1.47035e-10
8.79143e-05
1.33741e-05
-1.46148e-10
9.06222e-05
4.09732e-10
-1.45964e-10
9.18866e-05
-1.33733e-05
-1.46861e-10
9.18866e-05
-2.62716e-05
-1.48838e-10
9.06223e-05
-3.80401e-05
-1.5107e-10
8.79143e-05
-4.76555e-05
-1.54271e-10
8.33963e-05
-1.65979e-10
7.64235e-05
-5.34355e-05
4.76561e-05
-1.36508e-05
7.64234e-05
-5.3436e-05
3.80408e-05
-1.35838e-05
8.33962e-05
2.62724e-05
-1.34982e-05
8.79142e-05
1.33741e-05
-1.34199e-05
9.06222e-05
4.08787e-10
-1.33738e-05
9.18866e-05
-1.33733e-05
-1.33738e-05
9.18866e-05
-2.62716e-05
-1.34198e-05
9.06223e-05
-3.80401e-05
-1.34982e-05
8.79143e-05
-4.76555e-05
-1.35838e-05
8.33963e-05
-1.36508e-05
7.64235e-05
-5.34356e-05
4.76222e-05
-2.65018e-05
7.45177e-05
-5.33177e-05
3.80739e-05
-2.6505e-05
8.17192e-05
2.63348e-05
-2.64304e-05
8.64277e-05
1.34201e-05
-2.63345e-05
8.92796e-05
4.09779e-10
-2.62721e-05
9.06222e-05
-1.34193e-05
-2.62721e-05
9.06223e-05
-2.6334e-05
-2.63345e-05
8.92797e-05
-3.80733e-05
-2.64304e-05
8.64277e-05
-4.76217e-05
-2.6505e-05
8.17193e-05
-2.65018e-05
7.45178e-05
-5.33172e-05
4.75022e-05
-3.76968e-05
7.06874e-05
-5.30516e-05
3.8095e-05
-3.80027e-05
7.8274e-05
2.64306e-05
-3.80948e-05
8.33161e-05
1.34984e-05
-3.80737e-05
8.64277e-05
4.13679e-10
-3.80405e-05
8.79143e-05
-1.34976e-05
-3.80405e-05
8.79143e-05
-2.64299e-05
-3.80737e-05
8.64277e-05
-3.80943e-05
-3.80948e-05
8.33162e-05
-4.75017e-05
-3.80027e-05
7.82741e-05
-3.76968e-05
7.06875e-05
-5.30511e-05
4.71307e-05
-4.64639e-05
6.4902e-05
-5.23272e-05
3.80029e-05
-4.71305e-05
7.284e-05
2.65052e-05
-4.75021e-05
7.8274e-05
1.3584e-05
-4.76221e-05
8.17192e-05
4.218e-10
-4.76559e-05
8.33962e-05
-1.35832e-05
-4.76559e-05
8.33962e-05
-2.65045e-05
-4.76221e-05
8.17193e-05
-3.80022e-05
-4.7502e-05
7.82741e-05
-4.71301e-05
-4.71305e-05
7.28401e-05
-4.64639e-05
6.49021e-05
-5.23267e-05
4.64641e-05
5.7055e-05
-5.14905e-05
-5.14906e-05
3.7697e-05
6.4902e-05
-5.2327e-05
2.65021e-05
7.06874e-05
-5.30514e-05
1.36511e-05
7.45177e-05
-5.33175e-05
4.35998e-10
7.64234e-05
-5.34358e-05
-1.36502e-05
7.64235e-05
-5.34358e-05
-2.65013e-05
7.45178e-05
-5.33175e-05
-3.76963e-05
7.06875e-05
-5.30514e-05
-4.64635e-05
6.49021e-05
-5.2327e-05
5.70551e-05
-5.14902e-05
-5.14905e-05
1.74569e-05
1.74549e-05
5.59096e-05
-1.68839e-05
-1.68825e-05
1.56126e-05
1.95116e-05
6.58052e-05
-1.85705e-05
1.16389e-05
2.09095e-05
7.35987e-05
-1.98469e-05
6.20282e-06
2.18251e-05
7.89053e-05
-2.07765e-05
1.94464e-09
2.22678e-05
8.1579e-05
-2.12224e-05
-6.19902e-06
2.22678e-05
8.15791e-05
-2.12224e-05
-1.16353e-05
2.18251e-05
7.89056e-05
-2.07765e-05
-1.56095e-05
2.09095e-05
7.35992e-05
-1.98469e-05
-1.74543e-05
1.95117e-05
6.5806e-05
-1.85706e-05
1.74552e-05
5.59105e-05
-1.68821e-05
-1.68827e-05
1.95133e-05
1.56103e-05
6.58052e-05
-1.85718e-05
1.74872e-05
1.74852e-05
7.68925e-05
1.30101e-05
1.87067e-05
8.4954e-05
6.91102e-06
1.9467e-05
9.01765e-05
1.77273e-09
1.98337e-05
9.27397e-05
-6.90754e-06
1.98337e-05
9.27398e-05
-1.30068e-05
1.9467e-05
9.01767e-05
-1.74843e-05
1.87067e-05
8.49545e-05
-1.95109e-05
1.74852e-05
7.68932e-05
1.56105e-05
6.5806e-05
-1.85701e-05
2.0911e-05
1.16363e-05
7.35985e-05
-1.98481e-05
1.87085e-05
1.30078e-05
8.49539e-05
1.38932e-05
1.38911e-05
9.29472e-05
7.36814e-06
1.44287e-05
9.7991e-05
1.65037e-09
1.46894e-05
0.000100425
-7.3649e-06
1.46894e-05
0.000100425
-1.38901e-05
1.44287e-05
9.79913e-05
-1.87058e-05
1.3891e-05
9.29476e-05
-2.09088e-05
1.30078e-05
8.49545e-05
1.16364e-05
7.35993e-05
-1.98464e-05
2.18266e-05
6.20016e-06
7.8905e-05
-2.07776e-05
1.94688e-05
6.90861e-06
9.01763e-05
1.44307e-05
7.36591e-06
9.79909e-05
7.6437e-06
7.64157e-06
0.000102854
1.57198e-09
7.77595e-06
0.000105178
-7.64062e-06
7.77594e-06
0.000105178
-1.44278e-05
7.64155e-06
0.000102854
-1.94662e-05
7.36589e-06
9.79913e-05
-2.18244e-05
6.9086e-06
9.01768e-05
6.20019e-06
7.89057e-05
-2.07761e-05
2.22693e-05
-7.29149e-10
8.15786e-05
-2.12235e-05
1.98354e-05
-6.6263e-10
9.27394e-05
1.46914e-05
-6.24472e-10
0.000100425
7.77803e-06
-6.0342e-10
0.000105178
1.53212e-09
-5.95887e-10
0.00010744
-7.77503e-06
-6.01012e-10
0.00010744
-1.46885e-05
-6.18575e-10
0.000105178
-1.98329e-05
-6.49069e-10
0.000100425
-2.22672e-05
-6.95694e-10
9.27399e-05
-7.69983e-10
8.15793e-05
-2.1222e-05
2.22693e-05
-6.20158e-06
8.15785e-05
-2.12235e-05
1.98354e-05
-6.90991e-06
9.27393e-05
1.46914e-05
-7.36713e-06
0.000100425
7.77803e-06
-7.64276e-06
0.000105178
1.52697e-09
-7.77711e-06
0.00010744
-7.77503e-06
-7.77712e-06
0.00010744
-1.46885e-05
-7.64277e-06
0.000105178
-1.98329e-05
-7.36716e-06
0.000100425
-2.22672e-05
-6.90997e-06
9.27399e-05
-6.20169e-06
8.15793e-05
-2.1222e-05
2.18266e-05
-1.16377e-05
7.89048e-05
-2.07776e-05
1.94688e-05
-1.3009e-05
9.01762e-05
1.44307e-05
-1.38922e-05
9.79908e-05
7.64369e-06
-1.44298e-05
0.000102854
1.55607e-09
-1.46905e-05
0.000105178
-7.64064e-06
-1.46905e-05
0.000105178
-1.44278e-05
-1.44299e-05
0.000102854
-1.94662e-05
-1.38922e-05
9.79912e-05
-2.18244e-05
-1.30091e-05
9.01767e-05
-1.16378e-05
7.89056e-05
-2.0776e-05
2.0911e-05
-1.56115e-05
7.35983e-05
-1.9848e-05
1.87085e-05
-1.74863e-05
8.49537e-05
1.38931e-05
-1.87077e-05
9.29471e-05
7.36811e-06
-1.9468e-05
9.79909e-05
1.62212e-09
-1.98347e-05
0.000100425
-7.36493e-06
-1.98347e-05
0.000100425
-1.38901e-05
-1.9468e-05
9.79911e-05
-1.87058e-05
-1.87077e-05
9.29475e-05
-2.09088e-05
-1.74864e-05
8.49543e-05
-1.56117e-05
7.35991e-05
-1.98464e-05
1.95132e-05
-1.74559e-05
6.58049e-05
-1.85717e-05
1.74872e-05
-1.95125e-05
7.68922e-05
1.301e-05
-2.09103e-05
8.49538e-05
6.91096e-06
-2.18259e-05
9.01763e-05
1.7298e-09
-2.22686e-05
9.27395e-05
-6.90757e-06
-2.22686e-05
9.27395e-05
-1.30068e-05
-2.1826e-05
9.01765e-05
-1.74843e-05
-2.09104e-05
8.49542e-05
-1.95109e-05
-1.95126e-05
7.68929e-05
-1.74562e-05
6.58057e-05
-1.857e-05
1.74567e-05
5.59093e-05
-1.68831e-05
-1.68837e-05
1.56125e-05
6.58049e-05
-1.85712e-05
1.16387e-05
7.35984e-05
-1.98475e-05
6.20273e-06
7.8905e-05
-2.07771e-05
1.88828e-09
8.15787e-05
-2.1223e-05
-6.19904e-06
8.15788e-05
-2.1223e-05
-1.16353e-05
7.89053e-05
-2.07772e-05
-1.56095e-05
7.35989e-05
-1.98476e-05
-1.74542e-05
6.58056e-05
-1.85713e-05
5.59101e-05
-1.6882e-05
-1.68834e-05
9.76443e-06
9.75997e-06
5.42203e-05
-8.91915e-06
-8.91589e-06
9.00046e-06
1.14966e-05
6.53699e-05
-1.02972e-05
6.8892e-06
1.2759e-05
7.43727e-05
-1.14217e-05
3.73425e-06
1.36059e-05
8.06637e-05
-1.22093e-05
4.48006e-09
1.40271e-05
8.38842e-05
-1.26025e-05
-3.72551e-06
1.40271e-05
8.38845e-05
-1.26025e-05
-6.88109e-06
1.3606e-05
8.06647e-05
-1.22095e-05
-8.99339e-06
1.27592e-05
7.43743e-05
-1.1422e-05
-9.7587e-06
1.1497e-05
6.53721e-05
-1.02977e-05
9.76064e-06
5.42228e-05
-8.91513e-06
-8.91652e-06
1.15005e-05
8.99517e-06
6.53697e-05
-1.03002e-05
1.06903e-05
1.06856e-05
7.85136e-05
8.18083e-06
1.18585e-05
8.8364e-05
4.42285e-06
1.26103e-05
9.49301e-05
4.01047e-09
1.29787e-05
9.8207e-05
-4.41501e-06
1.29787e-05
9.82073e-05
-8.17351e-06
1.26104e-05
9.49309e-05
-1.06839e-05
1.18586e-05
8.83655e-05
-1.14952e-05
1.06859e-05
7.85156e-05
8.9957e-06
6.53721e-05
-1.02964e-05
1.27625e-05
6.88331e-06
7.43722e-05
-1.14243e-05
1.18627e-05
8.17562e-06
8.83638e-05
9.06132e-06
9.05658e-06
9.85506e-05
4.8887e-06
9.60479e-06
0.000105169
3.67437e-09
9.86887e-06
0.00010842
-4.88151e-06
9.86887e-06
0.00010842
-9.05458e-06
9.60479e-06
0.00010517
-1.18568e-05
9.05661e-06
9.85518e-05
-1.27577e-05
8.17576e-06
8.83656e-05
6.88365e-06
7.43745e-05
-1.14209e-05
1.36092e-05
3.72808e-06
8.06628e-05
-1.22118e-05
1.26143e-05
4.41736e-06
9.49294e-05
9.60927e-06
4.88366e-06
0.000105169
5.17272e-06
5.16796e-06
0.000111727
3.46079e-09
5.30156e-06
0.000114914
-5.16593e-06
5.30154e-06
0.000114915
-9.6029e-06
5.16793e-06
0.000111728
-1.26087e-05
4.88364e-06
0.00010517
-1.36046e-05
4.41738e-06
9.49312e-05
3.72819e-06
8.06651e-05
-1.22084e-05
1.40302e-05
-1.6788e-09
8.38829e-05
-1.26047e-05
1.29825e-05
-1.53774e-09
9.8206e-05
9.87322e-06
-1.45063e-09
0.000108419
5.30619e-06
-1.39807e-09
0.000114914
3.3514e-09
-1.37595e-09
0.000118045
-5.29961e-06
-1.38695e-09
0.000118046
-9.86704e-06
-1.43258e-09
0.000114915
-1.2977e-05
-1.51231e-09
0.00010842
-1.40258e-05
-1.63146e-09
9.82076e-05
-1.80931e-09
8.38851e-05
-1.26015e-05
1.40302e-05
-3.73136e-06
8.38827e-05
-1.26047e-05
1.29825e-05
-4.42036e-06
9.82059e-05
9.87321e-06
-4.8865e-06
0.000108419
5.30618e-06
-5.1707e-06
0.000114914
3.34187e-09
-5.30425e-06
0.000118045
-5.29962e-06
-5.30426e-06
0.000118046
-9.86705e-06
-5.17074e-06
0.000114915
-1.2977e-05
-4.8866e-06
0.00010842
-1.40257e-05
-4.42057e-06
9.82075e-05
-3.73172e-06
8.38849e-05
-1.26015e-05
1.36091e-05
-6.88635e-06
8.06624e-05
-1.22117e-05
1.26143e-05
-8.17842e-06
9.49291e-05
9.60923e-06
-9.05923e-06
0.000105169
5.17269e-06
-9.60736e-06
0.000111727
3.42978e-09
-9.8714e-06
0.000114914
-5.16596e-06
-9.87142e-06
0.000114914
-9.60292e-06
-9.60742e-06
0.000111728
-1.26087e-05
-9.05938e-06
0.00010517
-1.36045e-05
-8.17874e-06
9.49308e-05
-6.88693e-06
8.06647e-05
-1.22084e-05
1.27624e-05
-8.99781e-06
7.43716e-05
-1.14242e-05
1.18626e-05
-1.06881e-05
8.83632e-05
9.06124e-06
-1.18608e-05
9.85501e-05
4.88863e-06
-1.26126e-05
0.000105169
3.61691e-09
-1.29809e-05
0.000108419
-4.88155e-06
-1.29809e-05
0.00010842
-9.05459e-06
-1.26127e-05
0.000105169
-1.18567e-05
-1.1861e-05
9.85513e-05
-1.27576e-05
-1.06885e-05
8.8365e-05
-8.99856e-06
7.43739e-05
-1.14207e-05
1.15003e-05
-9.76211e-06
6.53689e-05
-1.02999e-05
1.06901e-05
-1.14986e-05
7.85129e-05
8.18066e-06
-1.27609e-05
8.83633e-05
4.42272e-06
-1.36077e-05
9.49294e-05
3.91643e-09
-1.40289e-05
9.82063e-05
-4.41505e-06
-1.40289e-05
9.82065e-05
-8.17349e-06
-1.36079e-05
9.49302e-05
-1.06838e-05
-1.27612e-05
8.83647e-05
-1.14951e-05
-1.14991e-05
7.85148e-05
-9.76296e-06
6.53713e-05
-1.02962e-05
9.76405e-06
5.42193e-05
-8.91741e-06
-8.91882e-06
9.00011e-06
6.5369e-05
-1.02987e-05
6.8889e-06
7.43718e-05
-1.14231e-05
3.73402e-06
8.06628e-05
-1.22107e-05
4.34866e-09
8.38833e-05
-1.26038e-05
-3.72553e-06
8.38836e-05
-1.26038e-05
-6.881e-06
8.06637e-05
-1.22109e-05
-8.99321e-06
7.43733e-05
-1.14234e-05
-9.75845e-06
6.5371e-05
-1.02992e-05
5.42217e-05
-8.91487e-06
-8.91817e-06
2.27988e-06
2.27068e-06
5.31013e-05
-1.71918e-06
-1.71243e-06
2.42777e-06
3.0445e-06
6.4361e-05
-2.18349e-06
2.02963e-06
3.69402e-06
7.37098e-05
-2.633e-06
1.15738e-06
4.15859e-06
8.03541e-05
-2.97669e-06
9.08858e-09
4.396e-06
8.37919e-05
-3.15544e-06
-1.13964e-06
4.3961e-06
8.37927e-05
-3.15556e-06
-2.01317e-06
4.15893e-06
8.03564e-05
-2.97709e-06
-2.41343e-06
3.69465e-06
7.37136e-05
-2.63368e-06
-2.2683e-06
3.04563e-06
6.4366e-05
-2.18473e-06
2.27238e-06
5.31072e-05
-1.71104e-06
-1.71402e-06
3.05261e-06
2.41686e-06
6.43605e-05
-2.18958e-06
3.29947e-06
3.28992e-06
7.80213e-05
2.75733e-06
3.97794e-06
8.86223e-05
1.56341e-06
4.44105e-06
9.58415e-05
8.05127e-09
4.66737e-06
9.9491e-05
-1.54766e-06
4.66742e-06
9.94917e-05
-2.74263e-06
4.44125e-06
9.58436e-05
-3.28654e-06
3.97836e-06
8.86257e-05
-3.04206e-06
3.29073e-06
7.8026e-05
2.41825e-06
6.43663e-05
-2.18204e-06
3.70114e-06
2.01754e-06
7.37085e-05
-2.6382e-06
3.98648e-06
2.74676e-06
8.86216e-05
3.31193e-06
3.30241e-06
9.99007e-05
1.86608e-06
3.65678e-06
0.000107399
7.31658e-09
3.81712e-06
0.000111129
-1.85174e-06
3.81713e-06
0.00011113
-3.29852e-06
3.65685e-06
0.000107401
-3.97467e-06
3.30262e-06
9.99037e-05
-3.69154e-06
2.74724e-06
8.86259e-05
2.01848e-06
7.37141e-05
-2.63137e-06
4.16512e-06
1.14478e-06
8.03519e-05
-2.98145e-06
4.44897e-06
1.55232e-06
9.58401e-05
3.66566e-06
1.85602e-06
0.000107399
2.05006e-06
2.04064e-06
0.000114959
6.85541e-09
2.11362e-06
0.000118661
-2.03662e-06
2.11361e-06
0.000118662
-3.65307e-06
2.04062e-06
0.000114961
-4.43786e-06
1.85605e-06
0.000107401
-4.15609e-06
1.55246e-06
9.58442e-05
1.14515e-06
8.03573e-05
-2.97497e-06
4.40217e-06
-3.43166e-09
8.37888e-05
-3.15986e-06
4.67495e-06
-3.08612e-09
9.94886e-05
3.8257e-06
-2.8652e-09
0.000111127
2.12277e-06
-2.7386e-09
0.000118661
6.62516e-09
-2.68787e-09
0.000122278
-2.10975e-06
-2.70874e-09
0.000122278
-3.81349e-06
-2.80338e-09
0.000118662
-4.66418e-06
-2.9777e-09
0.00011113
-4.39343e-06
-3.24917e-09
9.94926e-05
-3.64269e-09
8.3794e-05
-3.15359e-06
4.40212e-06
-1.15147e-06
8.37885e-05
-3.15981e-06
4.67492e-06
-1.55835e-06
9.94884e-05
3.82568e-06
-1.86163e-06
0.000111127
2.12275e-06
-2.046e-06
0.00011866
6.6116e-09
-2.1189e-06
0.000122278
-2.10977e-06
-2.11892e-06
0.000122278
-3.8135e-06
-2.04611e-06
0.000118662
-4.66417e-06
-1.86188e-06
0.00011113
-4.39339e-06
-1.55882e-06
9.94923e-05
-1.15226e-06
8.37937e-05
-3.15355e-06
4.16496e-06
-2.02375e-06
8.0351e-05
-2.98128e-06
4.44885e-06
-2.75238e-06
9.58393e-05
3.66558e-06
-3.30765e-06
0.000107398
2.05001e-06
-3.6618e-06
0.000114958
6.81186e-09
-3.82206e-06
0.000118661
-2.03665e-06
-3.8221e-06
0.000118661
-3.65306e-06
-3.66199e-06
0.00011496
-4.43779e-06
-3.30806e-06
0.000107401
-4.15597e-06
-2.75316e-06
9.58433e-05
-2.02507e-06
8.03563e-05
-2.97482e-06
3.70084e-06
-2.42226e-06
7.37071e-05
-2.63791e-06
3.98624e-06
-3.29485e-06
8.86203e-05
3.31175e-06
-3.98254e-06
9.98995e-05
1.86595e-06
-4.44547e-06
0.000107398
7.23665e-09
-4.67171e-06
0.000111128
-1.85177e-06
-4.6718e-06
0.000111128
-3.29848e-06
-4.44577e-06
0.0001074
-3.97453e-06
-3.98316e-06
9.99024e-05
-3.6913e-06
-3.29593e-06
8.86245e-05
-2.42398e-06
7.37126e-05
-2.63111e-06
3.05209e-06
-2.27503e-06
6.43586e-05
-2.18905e-06
3.29904e-06
-3.04852e-06
7.80196e-05
2.757e-06
-3.69774e-06
8.86206e-05
1.56318e-06
-4.16216e-06
9.58399e-05
7.92621e-09
-4.3995e-06
9.94893e-05
-1.54767e-06
-4.39963e-06
9.949e-05
-2.74251e-06
-4.16259e-06
9.58418e-05
-3.28627e-06
-3.69854e-06
8.86238e-05
-3.04165e-06
-3.04987e-06
7.80241e-05
-2.277e-06
6.43642e-05
-2.18156e-06
2.27912e-06
5.30992e-05
-1.71549e-06
-1.7185e-06
2.42707e-06
6.43589e-05
-2.18635e-06
2.02906e-06
7.37077e-05
-2.63563e-06
1.157e-06
8.03519e-05
-2.97923e-06
8.91929e-09
8.37898e-05
-3.15793e-06
-1.13959e-06
8.37905e-05
-3.15807e-06
-2.01288e-06
8.03542e-05
-2.9797e-06
-2.41296e-06
7.37113e-05
-2.63644e-06
-2.26769e-06
6.43636e-05
-2.18776e-06
5.31048e-05
-1.71045e-06
-1.71727e-06
1.81993e-06
1.80288e-06
5.26862e-05
-1.61003e-06
-1.59757e-06
1.73417e-06
2.20368e-06
6.41319e-05
-1.88878e-06
1.37153e-06
2.53013e-06
7.36816e-05
-2.13917e-06
7.65022e-07
2.76106e-06
8.05168e-05
-2.31721e-06
1.64564e-08
2.8777e-06
8.40709e-05
-2.40803e-06
-7.32902e-07
2.87791e-06
8.40725e-05
-2.40826e-06
-1.34173e-06
2.76176e-06
8.05215e-05
-2.31798e-06
-1.70821e-06
2.53144e-06
7.36892e-05
-2.1405e-06
-1.79892e-06
2.20596e-06
6.4142e-05
-1.89114e-06
1.80627e-06
5.26978e-05
-1.59525e-06
-1.60059e-06
2.21867e-06
1.71395e-06
6.41308e-05
-1.90003e-06
2.16158e-06
2.14392e-06
7.81382e-05
1.72384e-06
2.48757e-06
8.91026e-05
9.60517e-07
2.72069e-06
9.66453e-05
1.45618e-08
2.83127e-06
0.000100483
-9.32035e-07
2.8314e-06
0.000100485
-1.69727e-06
2.72116e-06
9.66494e-05
-2.13819e-06
2.48855e-06
8.91095e-05
-2.19956e-06
2.14569e-06
7.81477e-05
1.71689e-06
6.41424e-05
-1.88634e-06
2.54324e-06
1.34912e-06
7.36789e-05
-2.14877e-06
2.50327e-06
1.70432e-06
8.91012e-05
2.00058e-06
1.98312e-06
0.000100908
1.11048e-06
2.16103e-06
0.000108849
1.31732e-08
2.23262e-06
0.000112825
-1.08468e-06
2.23266e-06
0.000112826
-1.97645e-06
2.16126e-06
0.000108853
-2.48198e-06
1.9837e-06
0.000100914
-2.52591e-06
1.7055e-06
8.91101e-05
1.35129e-06
7.36902e-05
-2.13641e-06
2.77299e-06
7.41685e-07
8.05123e-05
-2.32594e-06
2.73513e-06
9.40066e-07
9.66422e-05
2.17722e-06
1.09206e-06
0.000108848
1.19928e-06
1.18212e-06
0.000116916
1.22955e-08
1.20604e-06
0.000120875
-1.17517e-06
1.20602e-06
0.000120876
-2.15463e-06
1.18216e-06
0.000116919
-2.7152e-06
1.09228e-06
0.000108853
-2.75678e-06
9.40605e-07
9.66507e-05
7.42795e-07
8.05233e-05
-2.31428e-06
2.88892e-06
-6.68567e-09
8.40643e-05
-2.41611e-06
2.84505e-06
-5.94135e-09
0.000100479
2.2482e-06
-5.44621e-09
0.000112822
1.22263e-06
-5.15464e-09
0.000120873
1.18656e-08
-5.02819e-09
0.0001247
-1.19931e-06
-5.04679e-09
0.000124701
-2.22633e-06
-5.21007e-09
0.000120876
-2.82576e-06
-5.52921e-09
0.000112827
-2.87326e-06
-6.02162e-09
0.000100487
-6.70435e-09
8.40751e-05
-2.40485e-06
2.88884e-06
-7.54727e-07
8.40637e-05
-2.41602e-06
2.845e-06
-9.51679e-07
0.000100478
2.24818e-06
-1.10272e-06
0.000112821
1.22264e-06
-1.19222e-06
0.000120873
1.18582e-08
-1.21591e-06
0.000124699
-1.19932e-06
-1.21593e-06
0.0001247
-2.22632e-06
-1.19237e-06
0.000120876
-2.82572e-06
-1.1031e-06
0.000112827
-2.87318e-06
-9.52377e-07
0.000100486
-7.55871e-07
8.40745e-05
-2.40476e-06
2.77271e-06
-1.36121e-06
8.05104e-05
-2.32562e-06
2.73494e-06
-1.71513e-06
9.66405e-05
2.17712e-06
-1.99306e-06
0.000108846
1.19923e-06
-2.17047e-06
0.000116915
1.22676e-08
-2.24185e-06
0.000120873
-1.17517e-06
-2.24193e-06
0.000120875
-2.15457e-06
-2.17081e-06
0.000116918
-2.71503e-06
-1.9938e-06
0.000108852
-2.75652e-06
-1.71646e-06
9.66489e-05
-1.3634e-06
8.05213e-05
-2.31398e-06
2.5427e-06
-1.72445e-06
7.36759e-05
-2.14822e-06
2.50287e-06
-2.15341e-06
8.90984e-05
2.00032e-06
-2.4963e-06
0.000100905
1.11033e-06
-2.72896e-06
0.000108847
1.31133e-08
-2.83936e-06
0.000112823
-1.08464e-06
-2.83953e-06
0.000112824
-1.97628e-06
-2.72954e-06
0.00010885
-2.48165e-06
-2.49742e-06
0.000100911
-2.52543e-06
-2.15531e-06
8.91072e-05
-1.7274e-06
7.36871e-05
-2.1359e-06
2.21773e-06
-1.81135e-06
6.41269e-05
-1.89905e-06
2.16085e-06
-2.21139e-06
7.81345e-05
1.72331e-06
-2.53718e-06
8.9099e-05
9.60202e-07
-2.76774e-06
9.66418e-05
1.44497e-08
-2.88421e-06
0.00010048
-9.31931e-07
-2.88446e-06
0.000100481
-1.69692e-06
-2.76853e-06
9.66458e-05
-2.1376e-06
-2.53863e-06
8.91057e-05
-2.19874e-06
-2.21378e-06
7.81437e-05
-1.81474e-06
6.41382e-05
-1.88545e-06
1.81854e-06
5.26816e-05
-1.60354e-06
-1.60875e-06
1.73296e-06
6.41274e-05
-1.89429e-06
1.37059e-06
7.3677e-05
-2.14416e-06
7.64451e-07
8.05123e-05
-2.32195e-06
1.62853e-08
8.40664e-05
-2.41265e-06
-7.32659e-07
8.40679e-05
-2.41291e-06
-1.34108e-06
8.05169e-05
-2.3228e-06
-1.70724e-06
7.36844e-05
-2.14559e-06
-1.79775e-06
6.41371e-05
-1.89673e-06
5.2693e-05
-1.59417e-06
-1.60653e-06
3.59624e-07
3.30268e-07
5.24702e-05
-2.47655e-07
-2.26276e-07
4.13092e-07
4.73075e-07
6.39084e-05
-3.03036e-07
3.67182e-07
6.05665e-07
7.35051e-05
-3.83286e-07
2.26415e-07
7.07336e-07
8.03978e-05
-4.47652e-07
2.70824e-08
7.61345e-07
8.3991e-05
-4.82155e-07
-1.73552e-07
7.61794e-07
8.39939e-05
-4.82597e-07
-3.18129e-07
7.08797e-07
8.04064e-05
-4.49124e-07
-3.70356e-07
6.0834e-07
7.35188e-05
-3.85797e-07
-3.25057e-07
4.77518e-07
6.39265e-05
-3.0738e-07
3.36665e-07
5.24912e-05
-2.23329e-07
-2.31763e-07
4.98867e-07
3.78277e-07
6.39063e-05
-3.22357e-07
5.84111e-07
5.53743e-07
7.79723e-05
5.18664e-07
7.09668e-07
8.9064e-05
3.12995e-07
8.24867e-07
9.67334e-05
2.41119e-08
8.83613e-07
0.00010065
-2.65833e-07
8.83948e-07
0.000100653
-4.74675e-07
8.25992e-07
9.67411e-05
-5.45391e-07
7.11842e-07
8.90767e-05
-4.67253e-07
5.57456e-07
7.79896e-05
3.84124e-07
6.39274e-05
-2.99684e-07
6.28134e-07
3.28678e-07
7.35001e-05
-3.99715e-07
7.36528e-07
4.85182e-07
8.90613e-05
6.51665e-07
6.21848e-07
0.000101081
3.88218e-07
7.19854e-07
0.000109218
2.18884e-08
7.65751e-07
0.000113309
-3.45357e-07
7.65943e-07
0.000113311
-6.11602e-07
7.20567e-07
0.000109224
-7.01207e-07
6.23349e-07
0.000101092
-5.99402e-07
4.87924e-07
8.90778e-05
3.33318e-07
7.35209e-05
-3.79223e-07
7.27656e-07
1.86418e-07
8.03894e-05
-4.62528e-07
8.49428e-07
2.78002e-07
9.67276e-05
7.47345e-07
3.56839e-07
0.000109215
4.41637e-07
4.12525e-07
0.000117529
2.04668e-08
4.35271e-07
0.000121626
-4.0153e-07
4.35342e-07
0.000121628
-7.09812e-07
4.12875e-07
0.000117535
-8.16334e-07
3.57661e-07
0.000109226
-7.00754e-07
2.79612e-07
9.67434e-05
1.89268e-07
8.04098e-05
-4.43178e-07
7.8032e-07
-1.24802e-08
8.39787e-05
-4.95831e-07
9.06888e-07
-1.08632e-08
0.000100641
7.92074e-07
-9.75013e-09
0.000113303
4.63308e-07
-9.07501e-09
0.000121624
1.97826e-08
-8.75474e-09
0.000125587
-4.24475e-07
-8.73132e-09
0.000125589
-7.55718e-07
-8.98794e-09
0.000121629
-8.74868e-07
-9.53818e-09
0.000113314
-7.54338e-07
-1.04074e-08
0.000100656
-1.16018e-08
8.39988e-05
-4.77153e-07
7.8015e-07
-2.10793e-07
8.39775e-05
-4.95643e-07
9.06776e-07
-2.99256e-07
0.00010064
7.92021e-07
-3.75929e-07
0.000113302
4.63295e-07
-4.30304e-07
0.000121623
1.97745e-08
-4.52451e-07
0.000125587
-4.24479e-07
-4.52475e-07
0.000125588
-7.55679e-07
-4.3048e-07
0.000121629
-8.74771e-07
-3.76328e-07
0.000113313
-7.54189e-07
-2.99956e-07
0.000100655
-2.11898e-07
8.39976e-05
-4.76994e-07
7.27088e-07
-3.51329e-07
8.03858e-05
-4.61891e-07
8.49032e-07
-5.05019e-07
9.67243e-05
7.47119e-07
-6.39689e-07
0.000109212
4.41537e-07
-7.36476e-07
0.000117526
2.04349e-08
-7.81814e-07
0.000121624
-4.01492e-07
-7.8196e-07
0.000121626
-7.09648e-07
-7.37016e-07
0.000117532
-8.16005e-07
-6.40767e-07
0.000109223
-7.00271e-07
-5.06861e-07
9.67401e-05
-3.54267e-07
8.04061e-05
-4.4265e-07
6.27051e-07
-3.98057e-07
7.34942e-05
-3.98612e-07
7.35711e-07
-5.71225e-07
8.90559e-05
6.51133e-07
-7.25392e-07
0.000101076
3.87934e-07
-8.39497e-07
0.000109213
2.18019e-08
-8.97722e-07
0.000113305
-3.45246e-07
-8.98012e-07
0.000113307
-6.11243e-07
-8.40447e-07
0.00010922
-7.00575e-07
-7.27146e-07
0.000101087
-5.98528e-07
-5.74065e-07
8.90723e-05
-4.02304e-07
7.35149e-05
-3.78343e-07
4.96964e-07
-3.46311e-07
6.38985e-05
-3.20375e-07
5.82604e-07
-4.87374e-07
7.7965e-05
5.17587e-07
-6.18446e-07
8.90571e-05
3.12363e-07
-7.19196e-07
9.67267e-05
2.39033e-08
-7.72746e-07
0.000100643
-2.65617e-07
-7.73149e-07
0.000100646
-4.74019e-07
-7.20483e-07
9.67343e-05
-5.4432e-07
-6.20721e-07
8.90696e-05
-4.65812e-07
-4.91003e-07
7.79821e-05
-3.51286e-07
6.39196e-05
-2.98154e-07
3.56733e-07
5.24612e-05
-2.37582e-07
-2.45035e-07
4.10548e-07
6.38994e-05
-3.1328e-07
3.65203e-07
7.34963e-05
-3.92367e-07
2.25196e-07
8.03892e-05
-4.56129e-07
2.66595e-08
8.39825e-05
-4.90289e-07
-1.73178e-07
8.39853e-05
-4.90693e-07
-3.17006e-07
8.03976e-05
-4.57453e-07
-3.68668e-07
7.35099e-05
-3.9455e-07
-3.23014e-07
6.39174e-05
-3.16969e-07
5.24821e-05
-2.21476e-07
-2.41962e-07
4.49423e-07
4.03217e-07
5.23864e-05
-4.01154e-07
-3.67721e-07
4.2793e-07
4.90575e-07
6.38731e-05
-4.33766e-07
3.45483e-07
5.62118e-07
7.35163e-05
-4.90823e-07
2.09254e-07
6.13434e-07
8.04515e-05
-5.30858e-07
4.10523e-08
6.40067e-07
8.40708e-05
-5.51687e-07
-1.29134e-07
6.40811e-07
8.40757e-05
-5.52388e-07
-2.71178e-07
6.15826e-07
8.04658e-05
-5.33165e-07
-3.6324e-07
5.66424e-07
7.35392e-05
-4.94706e-07
-3.97158e-07
4.97536e-07
6.39033e-05
-4.40344e-07
4.12961e-07
5.24213e-05
-3.64485e-07
-3.75779e-07
5.31577e-07
3.72989e-07
6.38693e-05
-4.64386e-07
5.13667e-07
4.65313e-07
7.80155e-05
4.14944e-07
5.40912e-07
8.9184e-05
2.46188e-07
5.9447e-07
9.69211e-05
3.69905e-08
6.21146e-07
0.000100878
-1.73849e-07
6.21743e-07
0.000100882
-3.47499e-07
5.9643e-07
9.69341e-05
-4.54338e-07
5.44597e-07
8.92054e-05
-4.83184e-07
4.71386e-07
7.80446e-05
3.82199e-07
6.39047e-05
-4.29744e-07
5.98004e-07
2.84674e-07
7.35075e-05
-5.17038e-07
5.83813e-07
3.61632e-07
8.91792e-05
4.72413e-07
4.24828e-07
0.000101308
2.7665e-07
4.68416e-07
0.000109539
3.37939e-08
4.87755e-07
0.000113685
-2.10483e-07
4.88141e-07
0.000113689
-4.10576e-07
4.69772e-07
0.000109551
-5.29308e-07
4.27549e-07
0.000101328
-5.53681e-07
3.66354e-07
8.92072e-05
2.92273e-07
7.35426e-05
-4.85463e-07
6.45874e-07
1.46095e-07
8.04368e-05
-5.54633e-07
6.33644e-07
1.90515e-07
9.69109e-05
5.1221e-07
2.26633e-07
0.000109534
2.9707e-07
2.50754e-07
0.000117962
3.16571e-08
2.59457e-07
0.00012212
-2.35026e-07
2.59649e-07
0.000122124
-4.54147e-07
2.51534e-07
0.000117973
-5.82445e-07
2.28309e-07
0.000109553
-6.04249e-07
1.93548e-07
9.6938e-05
1.51105e-07
8.04714e-05
-5.24706e-07
6.70245e-07
-2.139e-08
8.40495e-05
-5.73498e-07
6.5811e-07
-1.86003e-08
0.000100862
5.29517e-07
-1.65747e-08
0.000113675
3.03902e-07
-1.52912e-08
0.000122115
3.05598e-08
-1.46463e-08
0.000126135
-2.43898e-07
-1.45418e-08
0.000126138
-4.73336e-07
-1.49467e-08
0.000122125
-6.08627e-07
-1.58751e-08
0.000113693
-6.30084e-07
-1.73364e-08
0.000100889
-1.93006e-08
8.40838e-05
-5.44627e-07
6.69829e-07
-1.87894e-07
8.40473e-05
-5.73086e-07
6.57781e-07
-2.26927e-07
0.00010086
5.29293e-07
-2.59108e-07
0.000113673
3.03762e-07
-2.80732e-07
0.000122114
3.0444e-08
-2.88215e-07
0.000126134
-2.43989e-07
-2.882e-07
0.000126136
-4.73341e-07
-2.80822e-07
0.000122124
-6.08525e-07
-2.5938e-07
0.000113691
-6.29885e-07
-2.27437e-07
0.000100887
-1.88749e-07
8.40815e-05
-5.44396e-07
6.44515e-07
-3.23597e-07
8.04302e-05
-5.53266e-07
6.32546e-07
-3.95691e-07
9.69051e-05
5.11418e-07
-4.5524e-07
0.000109529
2.96532e-07
-4.96496e-07
0.000117957
3.12801e-08
-5.1468e-07
0.000122116
-2.35239e-07
-5.14858e-07
0.000122119
-4.54103e-07
-4.97155e-07
0.000117968
-5.82089e-07
-4.5655e-07
0.000109548
-6.03599e-07
-3.97898e-07
9.6932e-05
-3.27111e-07
8.04648e-05
-5.2394e-07
5.95481e-07
-4.07097e-07
7.34969e-05
-5.14676e-07
5.81677e-07
-4.95441e-07
8.91695e-05
4.70777e-07
-5.67819e-07
0.000101299
2.75496e-07
-6.1927e-07
0.000109531
3.30538e-08
-6.44859e-07
0.000113677
-2.10806e-07
-6.45244e-07
0.000113681
-4.10409e-07
-6.20522e-07
0.000109543
-5.28614e-07
-5.70088e-07
0.000101319
-5.52518e-07
-4.99047e-07
8.91974e-05
-4.12414e-07
7.35319e-05
-4.84208e-07
5.27342e-07
-4.31018e-07
6.38554e-05
-4.6031e-07
5.09984e-07
-5.15357e-07
7.80022e-05
4.11984e-07
-5.84118e-07
8.91714e-05
2.44054e-07
-6.33644e-07
9.6909e-05
3.5683e-08
-6.59307e-07
0.000100866
-1.74319e-07
-6.59839e-07
0.000100871
-3.47111e-07
-6.35331e-07
9.69219e-05
-4.53143e-07
-5.87053e-07
8.91926e-05
-4.81264e-07
-5.19976e-07
7.80312e-05
-4.37226e-07
6.38907e-05
-4.2755e-07
4.43219e-07
5.23702e-05
-3.87422e-07
-3.95867e-07
4.22077e-07
6.38569e-05
-4.5168e-07
3.40513e-07
7.35004e-05
-5.06601e-07
2.05621e-07
8.04359e-05
-5.45441e-07
3.88942e-08
8.40554e-05
-5.65518e-07
-1.29787e-07
8.40602e-05
-5.66025e-07
-2.70392e-07
8.045e-05
-5.47106e-07
-3.61329e-07
7.35231e-05
-5.09306e-07
-3.94473e-07
6.38869e-05
-4.56286e-07
5.2405e-05
-3.61923e-07
-3.92672e-07
1.12737e-07
4.85581e-08
5.23337e-05
-7.72653e-08
-3.13479e-08
1.32641e-07
8.28154e-08
6.38198e-05
-4.95015e-08
1.28127e-07
1.15e-07
7.34756e-05
-6.99362e-08
1.00026e-07
1.39768e-07
8.04258e-05
-8.59743e-08
5.65506e-08
1.53504e-07
8.40559e-05
-9.51342e-08
1.02579e-08
1.54517e-07
8.40634e-05
-9.60279e-08
-2.60834e-08
1.42967e-07
8.0448e-05
-8.88875e-08
-4.4157e-08
1.20578e-07
7.35114e-05
-7.47255e-08
-4.16608e-08
9.14955e-08
6.38667e-05
-5.74932e-08
6.01541e-08
5.23879e-05
-2.77025e-08
-4.06489e-08
1.41111e-07
5.57252e-08
6.38136e-05
-9.25751e-08
1.66917e-07
9.76674e-08
7.79748e-05
1.57256e-07
1.34929e-07
8.91737e-05
1.14768e-07
1.6296e-07
9.69404e-05
5.19174e-08
1.7802e-07
0.000100916
-1.32988e-08
1.78873e-07
0.000100923
-6.28402e-08
1.65678e-07
9.69609e-05
-8.41543e-08
1.39828e-07
8.92074e-05
-7.39664e-08
1.05349e-07
7.80205e-05
6.67647e-08
6.38689e-05
-4.47903e-08
1.66849e-07
4.26043e-08
7.34611e-05
-1.07475e-07
1.97239e-07
8.06295e-08
8.91658e-05
1.83169e-07
1.13898e-07
0.000101343
1.28002e-07
1.38656e-07
0.000109619
4.79663e-08
1.51336e-07
0.000113792
-3.41421e-08
1.51914e-07
0.000113798
-9.55933e-08
1.40585e-07
0.000109638
-1.2026e-07
1.17557e-07
0.000101375
-1.04513e-07
8.65974e-08
8.92102e-05
5.16289e-08
7.35165e-05
-6.32741e-08
1.87014e-07
1.10328e-08
8.04017e-05
-1.20384e-07
2.20183e-07
3.46602e-08
9.69237e-05
2.02702e-07
5.51703e-08
0.00010961
1.38275e-07
7.05382e-08
0.000118094
4.51197e-08
7.8116e-08
0.000122286
-4.98992e-08
7.84194e-08
0.000122292
-1.20112e-07