/*--------------------------------*- C++ -*----------------------------------*\
| =========                 |                                                 |
| \\      /  F ield         | OpenFOAM: The Open Source CFD Toolbox           |
|  \\    /   O peration     | Version:  2406                                  |
|   \\  /    A nd           | Website:  www.openfoam.com                      |
|    \\/     M anipulation  |                                                 |
\*---------------------------------------------------------------------------*/
FoamFile
{
    version     2.0;
    format      ascii;
    arch        "LSB;label=32;scalar=64";
    class       volSymmTensorField;
    location    "1.2";
    object      turbulenceProperties:devReff;
}
// * * * * * * * * * * * * * * * * * * * * * * * * * * * * * * * * * * * * * //

dimensions      [0 2 -2 0 0 0 0];

internalField   nonuniform List<symmTensor> 
25000
(
(0.0299561 -0.0224535 -0.0712225 0.0299563 -0.0712218 -0.0599124)
(0.0517355 -0.0117215 -0.0452868 0.0323427 -0.0646242 -0.0840782)
(0.059272 -0.00643009 -0.0276447 0.0382214 -0.0555026 -0.0974933)
(0.0629758 -0.00293753 -0.014856 0.0419237 -0.0491107 -0.1049)
(0.0645707 -0.000869076 -0.00466966 0.0437116 -0.0459723 -0.108282)
(0.0645708 0.000869162 0.0046683 0.0437116 -0.0459723 -0.108282)
(0.062976 0.00293759 0.0148546 0.0419238 -0.0491107 -0.1049)
(0.0592723 0.00643009 0.0276435 0.0382216 -0.0555026 -0.0974939)
(0.0517361 0.0117214 0.0452856 0.032343 -0.0646243 -0.0840791)
(0.0299568 0.0224532 0.0712216 0.0299567 -0.0712219 -0.0599135)
(0.0323425 -0.0117215 -0.0646249 0.0517357 -0.0452859 -0.0840782)
(0.0533622 -0.00548257 -0.0363886 0.0533625 -0.0363878 -0.106725)
(0.0599937 -0.0029888 -0.0199672 0.0562605 -0.0302355 -0.116254)
(0.0628635 -0.00133087 -0.0100329 0.057862 -0.0263914 -0.120725)
(0.0639856 -0.000367734 -0.00305352 0.0585801 -0.024558 -0.122566)
(0.0639857 0.000367829 0.0030523 0.0585802 -0.024558 -0.122566)
(0.0628637 0.00133095 0.0100317 0.057862 -0.0263914 -0.120726)
(0.059994 0.00298884 0.019966 0.0562605 -0.0302355 -0.116255)
(0.0533628 0.00548254 0.0363875 0.0533626 -0.0363879 -0.106725)
(0.0323432 0.0117214 0.064624 0.051736 -0.045286 -0.0840791)
(0.0382211 -0.00643018 -0.0555032 0.0592721 -0.0276438 -0.0974932)
(0.0562602 -0.00298883 -0.0302362 0.0599939 -0.0199664 -0.116254)
(0.0618152 -0.00158018 -0.0158058 0.0618154 -0.015805 -0.123631)
(0.0638589 -0.00065735 -0.00756112 0.0628413 -0.0135041 -0.1267)
(0.0645098 -0.000165294 -0.00223483 0.0632819 -0.0124683 -0.127792)
(0.0645099 0.00016536 0.00223371 0.0632819 -0.0124683 -0.127792)
(0.0638591 0.000657402 0.00756001 0.0628414 -0.0135041 -0.1267)
(0.0618156 0.0015802 0.0158047 0.0618155 -0.015805 -0.123631)
(0.0562607 0.00298882 0.0302352 0.0599939 -0.0199664 -0.116255)
(0.0382217 0.00643008 0.0555024 0.0592722 -0.0276439 -0.097494)
(0.0419233 -0.00293764 -0.0491113 0.0629759 -0.014855 -0.104899)
(0.0578617 -0.00133092 -0.0263921 0.0628636 -0.0100321 -0.120725)
(0.0628412 -0.000657368 -0.0135048 0.063859 -0.00756038 -0.1267)
(0.0644339 -0.000235829 -0.00630078 0.064434 -0.00630008 -0.128868)
(0.0648108 -4.81745e-05 -0.00183278 0.0646732 -0.00576745 -0.129484)
(0.0648109 4.821e-05 0.00183172 0.0646732 -0.00576744 -0.129484)
(0.0644341 0.000235856 0.00629973 0.064434 -0.00630008 -0.128868)
(0.0628415 0.000657378 0.0135037 0.063859 -0.00756037 -0.1267)
(0.0578622 0.00133091 0.0263911 0.0628636 -0.0100321 -0.120726)
(0.041924 0.00293757 0.0491105 0.062976 -0.0148551 -0.1049)
(0.0437112 -0.000869178 -0.0459728 0.0645707 -0.00466874 -0.108282)
(0.0585798 -0.00036779 -0.0245586 0.0639857 -0.00305271 -0.122566)
(0.0632817 -0.000165323 -0.012469 0.0645099 -0.00223409 -0.127792)
(0.0646731 -4.8188e-05 -0.00576812 0.0648109 -0.00183208 -0.129484)
(0.0649272 -6.30366e-06 -0.00166911 0.0649273 -0.00166843 -0.129854)
(0.0649273 6.31378e-06 0.00166809 0.0649273 -0.00166843 -0.129855)
(0.0646733 4.81956e-05 0.00576711 0.0648109 -0.00183207 -0.129484)
(0.063282 0.000165325 0.012468 0.0645099 -0.00223408 -0.127792)
(0.0585803 0.000367784 0.0245577 0.0639857 -0.0030527 -0.122566)
(0.0437118 0.000869152 0.0459721 0.0645708 -0.00466873 -0.108283)
(0.0437112 0.000869087 -0.0459728 0.0645707 0.0046692 -0.108282)
(0.0585798 0.000367777 -0.0245586 0.0639857 0.00305311 -0.122565)
(0.0632817 0.000165326 -0.012469 0.0645098 0.00223445 -0.127792)
(0.0646731 4.81874e-05 -0.00576812 0.0648109 0.00183242 -0.129484)
(0.0649272 6.30157e-06 -0.00166911 0.0649272 0.00166877 -0.129854)
(0.0649273 -6.31396e-06 0.00166809 0.0649272 0.00166877 -0.129855)
(0.0646733 -4.81962e-05 0.00576711 0.0648109 0.00183243 -0.129484)
(0.063282 -0.000165329 0.012468 0.0645098 0.00223447 -0.127792)
(0.0585803 -0.000367773 0.0245577 0.0639857 0.00305313 -0.122566)
(0.0437118 -0.000869072 0.0459721 0.0645707 0.00466924 -0.108283)
(0.0419233 0.00293756 -0.0491113 0.0629758 0.0148555 -0.104899)
(0.0578617 0.00133091 -0.0263921 0.0628635 0.0100325 -0.120725)
(0.0628411 0.000657371 -0.0135048 0.0638589 0.00756075 -0.1267)
(0.0644339 0.00023583 -0.00630077 0.0644339 0.00630043 -0.128868)
(0.0648109 4.81743e-05 -0.00183277 0.0646731 0.00576778 -0.129484)
(0.0648109 -4.82082e-05 0.00183173 0.0646731 0.00576779 -0.129484)
(0.0644341 -0.000235855 0.00629974 0.0644339 0.00630044 -0.128868)
(0.0628414 -0.000657381 0.0135038 0.0638589 0.00756076 -0.1267)
(0.0578621 -0.0013309 0.0263911 0.0628636 0.0100325 -0.120726)
(0.0419239 -0.0029375 0.0491105 0.0629759 0.0148556 -0.1049)
(0.038221 0.00643013 -0.0555032 0.059272 0.0276443 -0.097493)
(0.0562602 0.00298883 -0.0302362 0.0599938 0.0199668 -0.116254)
(0.0618152 0.00158018 -0.0158058 0.0618153 0.0158054 -0.123631)
(0.0638589 0.000657354 -0.00756111 0.0628412 0.0135044 -0.1267)
(0.0645098 0.0001653 -0.00223482 0.0632817 0.0124687 -0.127792)
(0.0645099 -0.000165352 0.00223373 0.0632818 0.0124687 -0.127792)
(0.063859 -0.000657394 0.00756003 0.0628413 0.0135044 -0.1267)
(0.0618155 -0.0015802 0.0158047 0.0618154 0.0158054 -0.123631)
(0.0562606 -0.00298881 0.0302352 0.0599939 0.0199668 -0.116254)
(0.0382216 -0.00643003 0.0555024 0.0592721 0.0276444 -0.0974938)
(0.0323423 0.0117215 -0.0646249 0.0517355 0.0452863 -0.0840779)
(0.0533622 0.00548258 -0.0363886 0.0533623 0.0363882 -0.106724)
(0.0599937 0.00298882 -0.0199671 0.0562603 0.0302359 -0.116254)
(0.0628635 0.00133089 -0.0100329 0.0578618 0.0263918 -0.120725)
(0.0639857 0.00036775 -0.0030535 0.0585799 0.0245583 -0.122566)
(0.0639857 -0.000367813 0.00305232 0.05858 0.0245583 -0.122566)
(0.0628636 -0.00133094 0.0100317 0.0578619 0.0263918 -0.120725)
(0.059994 -0.00298883 0.019966 0.0562604 0.0302359 -0.116254)
(0.0533627 -0.00548254 0.0363875 0.0533625 0.0363883 -0.106725)
(0.032343 -0.0117214 0.064624 0.0517358 0.0452865 -0.0840788)
(0.0299559 0.0224535 -0.0712225 0.0299561 0.0712221 -0.059912)
(0.0517354 0.0117215 -0.0452867 0.0323424 0.0646246 -0.0840779)
(0.0592719 0.00643013 -0.0276447 0.0382211 0.0555029 -0.097493)
(0.0629758 0.00293756 -0.0148559 0.0419234 0.049111 -0.104899)
(0.0645707 0.000869097 -0.00466963 0.0437113 0.0459726 -0.108282)
(0.0645707 -0.000869154 0.00466832 0.0437114 0.0459726 -0.108282)
(0.062976 -0.0029376 0.0148546 0.0419236 0.0491111 -0.1049)
(0.0592722 -0.00643011 0.0276435 0.0382214 0.055503 -0.0974936)
(0.0517359 -0.0117214 0.0452856 0.0323428 0.0646247 -0.0840787)
(0.0299567 -0.0224533 0.0712216 0.0299564 0.0712223 -0.0599131)
(-0.000347256 -0.017634 -0.109336 -0.000346479 -0.109334 0.000693735)
(0.0130356 -0.0158517 -0.0753257 0.000864569 -0.107229 -0.0139002)
(0.0225317 -0.0121471 -0.0477181 0.00293126 -0.0951953 -0.025463)
(0.0297989 -0.00758674 -0.0260288 0.00446553 -0.0852128 -0.0342644)
(0.0334958 -0.00254372 -0.00822333 0.00529162 -0.0798891 -0.0387874)
(0.0334961 0.00254442 0.00822002 0.00529192 -0.0798891 -0.038788)
(0.0297997 0.00758731 0.0260255 0.00446642 -0.0852126 -0.0342662)
(0.0225332 0.0121473 0.047715 0.00293264 -0.0951949 -0.0254659)
(0.0130379 0.0158516 0.0753227 0.000866297 -0.107229 -0.0139042)
(-0.000344239 0.0176332 0.109333 -0.000344648 -0.109334 0.000688887)
(0.000863848 -0.0158519 -0.107231 0.0130361 -0.0753238 -0.0138999)
(0.0167967 -0.0142715 -0.0636999 0.0167974 -0.0636982 -0.0335941)
(0.0286918 -0.0106813 -0.0347551 0.02008 -0.0526376 -0.0487718)
(0.0365376 -0.0064791 -0.0168866 0.0221466 -0.0444207 -0.0586842)
(0.0401445 -0.00215586 -0.00500015 0.0231483 -0.0401313 -0.0632929)
(0.0401448 0.00215647 0.00499725 0.0231485 -0.0401312 -0.0632933)
(0.0365384 0.00647962 0.0168837 0.0221471 -0.0444205 -0.0586855)
(0.0286933 0.0106816 0.0347522 0.0200808 -0.0526373 -0.0487741)
(0.016799 0.0142716 0.0636971 0.0167986 -0.0636978 -0.0335975)
(0.000866679 0.0158515 0.107228 0.0130375 -0.0753235 -0.0139042)
(0.00293029 -0.0121475 -0.0951966 0.0225318 -0.0477161 -0.0254621)
(0.0200791 -0.0106815 -0.0526392 0.0286922 -0.0347532 -0.0487712)
(0.0326127 -0.00764445 -0.0257201 0.0326132 -0.0257184 -0.0652259)
(0.0398863 -0.00449365 -0.0110629 0.0346351 -0.0198738 -0.0745214)
(0.0430418 -0.00147995 -0.00300763 0.0355702 -0.0170111 -0.078612)
(0.043042 0.00148039 0.00300508 0.0355703 -0.017011 -0.0786123)
(0.039887 0.00449404 0.0110603 0.0346354 -0.0198737 -0.0745224)
(0.032614 0.00764472 0.0257175 0.0326138 -0.0257182 -0.0652278)
(0.0200812 0.0106816 0.0526367 0.0286931 -0.034753 -0.0487743)
(0.00293308 0.0121472 0.0951944 0.0225331 -0.0477158 -0.0254662)
(0.00446423 -0.00758729 -0.0852142 0.0297986 -0.0260266 -0.0342629)
(0.0221455 -0.0064794 -0.0444223 0.0365376 -0.0168847 -0.0586831)
(0.0346344 -0.00449378 -0.0198754 0.0398865 -0.0110612 -0.0745209)
(0.0415444 -0.00260276 -0.00758203 0.0415447 -0.00758042 -0.0830891)
(0.0445168 -0.000856326 -0.00184313 0.0423566 -0.00592281 -0.0868734)
(0.044517 0.000856608 0.00184083 0.0423566 -0.00592279 -0.0868736)
(0.0415451 0.00260302 0.00757968 0.0415449 -0.00758035 -0.08309)
(0.0346357 0.00449396 0.019873 0.0398869 -0.011061 -0.0745226)
(0.0221475 0.00647947 0.0444199 0.0365384 -0.0168845 -0.0586859)
(0.00446698 0.00758712 0.0852121 0.0297998 -0.0260264 -0.0342668)
(0.00528992 -0.00254427 -0.0798906 0.0334953 -0.00822108 -0.0387852)
(0.023147 -0.00215623 -0.0401329 0.0401443 -0.00499817 -0.0632913)
(0.0355694 -0.00148017 -0.0170127 0.0430417 -0.00300587 -0.0786111)
(0.0423562 -0.000856428 -0.00592437 0.0445168 -0.00184152 -0.086873)
(0.0452763 -0.000282796 -0.00129303 0.0452764 -0.00129149 -0.0905526)
(0.0452765 0.000282925 0.00129084 0.0452764 -0.00129148 -0.0905529)
(0.0423568 0.000856549 0.00592214 0.044517 -0.00184149 -0.0868738)
(0.0355707 0.00148027 0.0170104 0.043042 -0.00300582 -0.0786127)
(0.023149 0.00215628 0.0401306 0.0401449 -0.00499809 -0.0632939)
(0.00529265 0.00254424 0.0798885 0.0334963 -0.00822098 -0.0387889)
(0.00528981 0.00254395 -0.0798906 0.0334951 0.00822235 -0.038785)
(0.0231469 0.00215608 -0.0401329 0.0401442 0.0049993 -0.0632911)
(0.0355694 0.00148011 -0.0170127 0.0430416 0.00300689 -0.078611)
(0.0423561 0.000856419 -0.00592438 0.0445167 0.00184247 -0.0868729)
(0.0452762 0.000282831 -0.00129303 0.0452763 0.0012924 -0.0905525)
(0.0452764 -0.000282847 0.00129085 0.0452763 0.00129239 -0.0905528)
(0.0423568 -0.000856429 0.00592215 0.0445169 0.00184246 -0.0868737)
(0.0355706 -0.0014801 0.0170104 0.0430419 0.00300688 -0.0786125)
(0.0231489 -0.00215605 0.0401306 0.0401448 0.00499929 -0.0632937)
(0.00529252 -0.00254387 0.0798885 0.0334962 0.00822234 -0.0387887)
(0.00446392 0.00758702 -0.0852143 0.0297983 0.0260279 -0.0342623)
(0.0221453 0.00647928 -0.0444224 0.0365373 0.0168858 -0.0586826)
(0.0346343 0.00449374 -0.0198755 0.0398862 0.0110622 -0.0745205)
(0.0415443 0.00260276 -0.00758205 0.0415444 0.00758138 -0.0830887)
(0.0445167 0.000856364 -0.00184314 0.0423563 0.00592374 -0.086873)
(0.0445169 -0.000856528 0.00184085 0.0423564 0.00592372 -0.0868733)
(0.041545 -0.0026029 0.00757972 0.0415446 0.00758133 -0.0830896)
(0.0346355 -0.00449382 0.0198731 0.0398866 0.0110621 -0.0745222)
(0.0221473 -0.00647926 0.04442 0.0365381 0.0168857 -0.0586853)
(0.00446661 -0.00758681 0.0852122 0.0297995 0.0260278 -0.0342661)
(0.00292979 0.0121473 -0.0951967 0.0225313 0.0477173 -0.0254611)
(0.0200787 0.0106814 -0.0526393 0.0286916 0.0347544 -0.0487703)
(0.0326124 0.00764444 -0.0257202 0.0326126 0.0257195 -0.0652251)
(0.0398861 0.00449367 -0.0110629 0.0346346 0.0198748 -0.0745207)
(0.0430416 0.00148 -0.00300763 0.0355697 0.017012 -0.0786114)
(0.0430419 -0.00148031 0.00300511 0.0355698 0.017012 -0.0786117)
(0.0398868 -0.00449394 0.0110604 0.0346349 0.0198747 -0.0745217)
(0.0326137 -0.0076446 0.0257176 0.0326133 0.0257193 -0.065227)
(0.0200808 -0.0106814 0.0526368 0.0286926 0.0347542 -0.0487734)
(0.00293248 -0.012147 0.0951946 0.0225326 0.0477171 -0.025465)
(0.000863203 0.0158519 -0.107231 0.0130353 0.075325 -0.0138985)
(0.0167962 0.0142715 -0.0637 0.0167966 0.0636993 -0.0335928)
(0.0286914 0.0106813 -0.0347551 0.0200791 0.0526387 -0.0487705)
(0.0365373 0.00647916 -0.0168866 0.0221457 0.0444217 -0.058683)
(0.0401443 0.00215593 -0.00500014 0.0231475 0.0401323 -0.0632918)
(0.0401445 -0.0021564 0.0049973 0.0231477 0.0401322 -0.0632922)
(0.0365381 -0.00647955 0.0168838 0.0221463 0.0444215 -0.0586843)
(0.0286928 -0.0106816 0.0347523 0.02008 0.0526384 -0.0487728)
(0.0167984 -0.0142716 0.0636972 0.0167977 0.063699 -0.0335961)
(0.00086591 -0.0158515 0.107229 0.0130367 0.0753247 -0.0139026)
(-0.000347954 0.0176342 -0.109336 -0.000347518 0.109335 0.000695472)
(0.013035 0.0158518 -0.0753258 0.000863568 0.10723 -0.0138985)
(0.0225312 0.0121472 -0.0477182 0.00293023 0.0951962 -0.0254614)
(0.0297984 0.00758687 -0.0260288 0.00446448 0.0852138 -0.0342629)
(0.0334953 0.0025438 -0.00822331 0.00529054 0.0798901 -0.0387859)
(0.0334956 -0.00254439 0.00822008 0.00529083 0.07989 -0.0387864)
(0.0297992 -0.00758734 0.0260256 0.00446532 0.0852135 -0.0342645)
(0.0225326 -0.0121474 0.0477151 0.00293154 0.0951959 -0.0254641)
(0.0130372 -0.0158517 0.0753228 0.000865212 0.10723 -0.0139024)
(-0.000345044 -0.0176335 0.109333 -0.000345831 0.109335 0.000690874)
(-0.00822476 -0.0156056 -0.149048 -0.00822287 -0.149045 0.0164476)
(0.00155428 -0.0119024 -0.115969 -0.00932431 -0.159401 0.00777004)
(0.00737308 -0.00905182 -0.080573 -0.0084595 -0.15371 0.00108642)
(0.0120087 -0.00568075 -0.0470897 -0.00775231 -0.146888 -0.00425637)
(0.0145492 -0.00192754 -0.0154528 -0.0073637 -0.142942 -0.00718547)
(0.0145498 0.00192917 0.0154435 -0.00736306 -0.142942 -0.00718673)
(0.0120106 0.00568214 0.0470805 -0.00775044 -0.146887 -0.00426012)
(0.00737626 0.00905263 0.080564 -0.00845661 -0.153708 0.00108036)
(0.00155918 0.0119025 0.115961 -0.00932071 -0.159398 0.00776153)
(-0.00821831 0.0156045 0.149041 -0.00821907 -0.149042 0.0164374)
(-0.00932588 -0.0119028 -0.159404 0.00155535 -0.115965 0.00777053)
(0.00210036 -0.00974273 -0.11147 0.00210178 -0.111466 -0.00420214)
(0.00979642 -0.00760042 -0.0712822 0.00392908 -0.103806 -0.0137255)
(0.0157396 -0.00480273 -0.0395923 0.00531088 -0.0973334 -0.0210505)
(0.0189158 -0.00163769 -0.0126819 0.00606873 -0.0938068 -0.0249846)
(0.0189165 0.00163916 0.012674 0.00606918 -0.0938065 -0.0249856)
(0.0157415 0.00480402 0.0395844 0.0053122 -0.0973325 -0.0210537)
(0.00979959 0.00760135 0.0712742 0.00393118 -0.103804 -0.0137308)
(0.00210504 0.0097432 0.111462 0.00210449 -0.111464 -0.00420953)
(-0.0093201 0.0119023 0.159397 0.0015587 -0.115963 0.0077614)
(-0.00846152 -0.00905259 -0.153713 0.00737313 -0.0805679 0.00108839)
(0.00392724 -0.00760076 -0.10381 0.00979701 -0.0712776 -0.0137243)
(0.0129922 -0.00582825 -0.0642892 0.0129932 -0.0642849 -0.0259854)
(0.0198435 -0.00363377 -0.0347118 0.0153287 -0.0594801 -0.0351722)
(0.0234342 -0.00123428 -0.0109326 0.0165651 -0.0569928 -0.0399992)
(0.0234348 0.00123543 0.0109255 0.0165655 -0.0569927 -0.0400002)
(0.0198454 0.00363477 0.0347046 0.0153299 -0.0594795 -0.0351752)
(0.0129954 0.00582899 0.0642821 0.012995 -0.0642838 -0.0259904)
(0.00393184 0.00760115 0.103803 0.00979937 -0.0712761 -0.0137312)
(-0.00845586 0.00905228 0.153707 0.00737621 -0.0805661 0.00107965)
(-0.00775504 -0.00568186 -0.146892 0.0120081 -0.0470841 -0.00425306)
(0.00530847 -0.00480338 -0.0973375 0.0157396 -0.0395874 -0.021048)
(0.0153272 -0.00363408 -0.0594844 0.0198438 -0.0347071 -0.035171)
(0.0227436 -0.00224543 -0.0316195 0.0227443 -0.031615 -0.0454879)
(0.0265162 -0.000760364 -0.00984506 0.0241651 -0.0300452 -0.0506813)
(0.0265168 0.000761106 0.00983844 0.0241654 -0.0300451 -0.0506822)
(0.0227455 0.00224607 0.0316128 0.0227452 -0.0316147 -0.0454907)
(0.0153304 0.00363456 0.0594777 0.0198453 -0.0347065 -0.0351757)
(0.00531304 0.00480363 0.0973308 0.0157416 -0.0395865 -0.0210546)
(-0.00774942 0.00568162 0.146885 0.0120108 -0.0470829 -0.00426139)
(-0.00736729 -0.00192865 -0.142946 0.0145478 -0.0154466 -0.00718056)
(0.00606568 -0.00163851 -0.0938112 0.018915 -0.0126766 -0.0249807)
(0.016563 -0.00123485 -0.0569972 0.0234337 -0.0109278 -0.0399967)
(0.024164 -0.000760658 -0.0300496 0.0265161 -0.00984045 -0.05068)
(0.0279114 -0.000257589 -0.00930135 0.0279116 -0.00929686 -0.055823)
(0.027912 0.000257894 0.009295 0.0279119 -0.00929682 -0.0558238)
(0.0241658 0.000760936 0.0300432 0.0265168 -0.00984032 -0.0506827)
(0.0165662 0.00123508 0.0569909 0.023435 -0.0109275 -0.0400012)
(0.00607025 0.00163867 0.0938048 0.0189168 -0.0126762 -0.0249871)
(-0.00736166 0.00192865 0.14294 0.0145503 -0.0154461 -0.00718867)
(-0.0073675 0.00192821 -0.142947 0.0145476 0.0154501 -0.0071801)
(0.00606551 0.00163828 -0.0938113 0.0189148 0.0126797 -0.0249803)
(0.0165629 0.0012347 -0.0569973 0.0234334 0.0109306 -0.0399963)
(0.0241639 0.000760574 -0.0300496 0.0265158 0.00984317 -0.0506797)
(0.0279113 0.00025761 -0.00930135 0.0279114 0.00929952 -0.0558227)
(0.0279119 -0.000257745 0.00929502 0.0279116 0.00929951 -0.0558235)
(0.0241657 -0.000760665 0.0300433 0.0265165 0.00984311 -0.0506823)
(0.0165661 -0.00123472 0.0569909 0.0234347 0.0109305 -0.0400008)
(0.00607006 -0.00163821 0.0938049 0.0189166 0.0126795 -0.0249866)
(-0.00736192 -0.00192801 0.142941 0.0145501 0.0154499 -0.00718816)
(-0.00775567 0.00568149 -0.146892 0.0120074 0.0470875 -0.00425169)
(0.00530796 0.0048032 -0.0973378 0.0157388 0.0395904 -0.0210468)
(0.0153268 0.00363398 -0.0594846 0.019843 0.03471 -0.0351698)
(0.0227432 0.00224538 -0.0316195 0.0227435 0.0316177 -0.0454867)
(0.0265159 0.000760408 -0.00984506 0.0241643 0.0300478 -0.0506802)
(0.0265165 -0.000760957 0.0098385 0.0241646 0.0300477 -0.050681)
(0.0227451 -0.00224583 0.031613 0.0227444 0.0316175 -0.0454895)
(0.0153299 -0.00363424 0.059478 0.0198445 0.0347095 -0.0351744)
(0.00531246 -0.00480322 0.0973312 0.0157408 0.0395898 -0.0210532)
(-0.00775016 -0.00568107 0.146886 0.01201 0.0470867 -0.00425986)
(-0.00846249 0.00905241 -0.153714 0.00737191 0.0805713 0.00109058)
(0.00392645 0.00760069 -0.10381 0.00979575 0.0712806 -0.0137222)
(0.0129915 0.00582823 -0.0642895 0.0129919 0.0642877 -0.0259834)
(0.0198429 0.0036338 -0.0347119 0.0153274 0.0594828 -0.0351702)
(0.0234336 0.00123437 -0.0109326 0.0165637 0.0569955 -0.0399973)
(0.0234342 -0.00123528 0.0109256 0.016564 0.0569953 -0.0399983)
(0.0198447 -0.00363455 0.0347049 0.0153285 0.0594823 -0.0351732)
(0.0129946 -0.00582873 0.0642825 0.0129937 0.0642868 -0.0259882)
(0.00393091 -0.00760084 0.103803 0.00979807 0.0712794 -0.013729)
(-0.00845703 -0.00905195 0.153707 0.00737491 0.0805698 0.00108212)
(-0.00932707 0.0119028 -0.159405 0.00155347 0.115968 0.0077736)
(0.00209936 0.00974279 -0.111471 0.0020999 0.111469 -0.00419926)
(0.00979555 0.00760051 -0.0712825 0.00392714 0.103809 -0.0137227)
(0.0157388 0.00480285 -0.0395925 0.00530888 0.0973361 -0.0210477)
(0.0189151 0.00163783 -0.0126819 0.0060667 0.0938095 -0.0249818)
(0.0189157 -0.00163901 0.0126742 0.00606715 0.0938092 -0.0249829)
(0.0157407 -0.00480387 0.0395848 0.0053102 0.0973353 -0.0210509)
(0.00979856 -0.00760118 0.0712748 0.00392921 0.103807 -0.0137278)
(0.00210384 -0.00974303 0.111463 0.00210255 0.111467 -0.0042064)
(-0.00932157 -0.0119022 0.159398 0.00155668 0.115966 0.00776489)
(-0.00822601 0.0156059 -0.149049 -0.00822524 0.149047 0.0164512)
(0.00155304 0.0119026 -0.11597 -0.00932648 0.159403 0.00777344)
(0.0073719 0.00905208 -0.0805734 -0.00846172 0.153712 0.00108982)
(0.0120076 0.005681 -0.0470899 -0.0077546 0.146891 -0.00425301)
(0.0145481 0.0019277 -0.0154527 -0.00736605 0.142945 -0.00718209)
(0.0145487 -0.00192911 0.0154438 -0.00736544 0.142945 -0.00718328)
(0.0120094 -0.00568219 0.047081 -0.00775282 0.146889 -0.00425657)
(0.00737491 -0.00905273 0.0805647 -0.00845898 0.153711 0.00108407)
(0.00155772 -0.0119026 0.115962 -0.00932308 0.159401 0.00776537)
(-0.00821984 -0.0156048 0.149042 -0.00822174 0.149045 0.0164416)
(-0.00222269 -0.00431774 -0.153909 -0.00221913 -0.153902 0.00444182)
(0.000155334 -0.00467625 -0.124351 -0.00299725 -0.169421 0.00284192)
(0.00278334 -0.00407368 -0.0893661 -0.00344296 -0.168127 0.000659622)
(0.00509201 -0.00273738 -0.053573 -0.00368458 -0.164346 -0.00140743)
(0.00640278 -0.000956416 -0.0178269 -0.00377529 -0.161924 -0.00262749)
(0.00640397 0.000959896 0.0178068 -0.00377398 -0.161923 -0.00262999)
(0.00509566 0.00274037 0.0535531 -0.00368076 -0.164343 -0.00141491)
(0.00278955 0.0040755 0.0893468 -0.00343703 -0.168122 0.000647479)
(0.00016507 0.00467667 0.124333 -0.00298984 -0.169415 0.00282477)
(-0.00220983 0.00431576 0.153894 -0.00221127 -0.153897 0.0044211)
(-0.00300003 -0.00467703 -0.169427 0.00015717 -0.124342 0.00284286)
(0.000238414 -0.00498102 -0.125042 0.000240903 -0.125034 -0.000479317)
(0.00410134 -0.00419772 -0.0842075 0.000460022 -0.121137 -0.00456137)
(0.00731877 -0.00275879 -0.048637 0.000770503 -0.117007 -0.00808928)
(0.00909521 -0.00095538 -0.0159169 0.00100822 -0.114611 -0.0101034)
(0.00909641 0.000958375 0.0158998 0.00100917 -0.11461 -0.0101056)
(0.00732241 0.00276142 0.04862 0.000773277 -0.117005 -0.00809568)
(0.00410745 0.00419967 0.0841905 0.000464429 -0.121133 -0.00457188)
(0.000247564 0.00498209 0.125025 0.000246635 -0.125029 -0.000494199)
(-0.00298877 0.00467633 0.169412 0.00016431 -0.124336 0.00282446)
(-0.00344663 -0.00407527 -0.168133 0.0027831 -0.0893553 0.000663531)
(0.000456666 -0.00419844 -0.121145 0.00410221 -0.0841978 -0.00455887)
(0.00525956 -0.00340131 -0.0799364 0.00526124 -0.0799273 -0.0105208)
(0.00917685 -0.00216533 -0.0454371 0.00629583 -0.076791 -0.0154727)
(0.0113316 -0.000735107 -0.0147613 0.00695881 -0.0751675 -0.0182904)
(0.0113327 0.000737466 0.0147461 0.00695964 -0.075167 -0.0182924)
(0.00918046 0.00216737 0.0454219 0.0062982 -0.0767895 -0.0154787)
(0.00526565 0.00340282 0.0799212 0.00526502 -0.0799248 -0.0105307)
(0.00046564 0.00419929 0.12113 0.00410718 -0.0841944 -0.00457282)
(-0.00343563 0.00407475 0.168119 0.00278968 -0.0893512 0.000645943)
(-0.00368971 -0.00273975 -0.164354 0.00509055 -0.0535608 -0.00140084)
(0.000765954 -0.00276019 -0.117016 0.00731846 -0.0486264 -0.00808441)
(0.00629301 -0.00216603 -0.0768 0.00917724 -0.0454273 -0.0154702)
(0.0108011 -0.00131246 -0.0435356 0.0108024 -0.0435261 -0.0216036)
(0.0133737 -0.00042611 -0.0141906 0.0118613 -0.0427211 -0.025235)
(0.013375 0.000427733 0.0141763 0.011862 -0.0427209 -0.025237)
(0.0108049 0.00131378 0.0435216 0.0108044 -0.0435254 -0.0216093)
(0.0062993 0.00216698 0.0767859 0.00918031 -0.0454259 -0.0154796)
(0.000774922 0.00276068 0.117001 0.00732263 -0.0486243 -0.00809755)
(-0.00367874 0.00273926 0.164341 0.00509631 -0.0535582 -0.00141757)
(-0.00378221 -0.000958842 -0.161933 0.00639991 -0.0178135 -0.0026177)
(0.00100233 -0.000957163 -0.11462 0.00909349 -0.0159054 -0.0100958)
(0.00695478 -0.00073635 -0.0751768 0.0113305 -0.0147509 -0.0182853)
(0.011859 -0.000426783 -0.0427306 0.0133733 -0.0141806 -0.0252323)
(0.0148932 -0.000133735 -0.0141371 0.0148937 -0.0141271 -0.0297869)
(0.0148947 0.00013447 0.0141231 0.0148944 -0.0141271 -0.0297891)
(0.0118629 0.000427372 0.0427171 0.0133751 -0.0141804 -0.025238)
(0.00696122 0.000736785 0.0751633 0.0113332 -0.0147503 -0.0182944)
(0.00101135 0.00095743 0.114607 0.00909722 -0.0159045 -0.0101086)
(-0.00377118 0.000958767 0.16192 0.00640519 -0.0178124 -0.00263401)
(-0.00378267 0.000957724 -0.161933 0.00639945 0.0178212 -0.00261678)
(0.00100198 0.000956461 -0.11462 0.00909301 0.0159122 -0.010095)
(0.00695446 0.000735916 -0.0751769 0.01133 0.0147571 -0.0182845)
(0.0118587 0.000426583 -0.0427306 0.0133727 0.0141866 -0.0252315)
(0.0148929 0.000133811 -0.014137 0.0148931 0.014133 -0.029786)
(0.0148943 -0.000134088 0.0141231 0.0148938 0.0141331 -0.0297882)
(0.0118626 -0.000426738 0.0427172 0.0133745 0.0141865 -0.0252372)
(0.00696086 -0.000735957 0.0751635 0.0113327 0.0147568 -0.0182935)
(0.00101095 -0.000956396 0.114607 0.00909672 0.0159117 -0.0101077)
(-0.0037717 -0.000957431 0.16192 0.00640469 0.0178207 -0.00263299)
(-0.00369106 0.00273881 -0.164355 0.00508913 0.0535684 -0.00139807)
(0.000764933 0.00275961 -0.117016 0.00731701 0.0486331 -0.00808195)
(0.0062921 0.00216571 -0.0768004 0.00917576 0.0454334 -0.0154679)
(0.0108004 0.00131237 -0.0435358 0.0108008 0.0435319 -0.0216012)
(0.0133729 0.000426232 -0.0141906 0.0118596 0.0427268 -0.0252325)
(0.0133742 -0.000427403 0.0141765 0.0118603 0.0427267 -0.0252345)
(0.0108041 -0.00131325 0.0435219 0.0108028 0.0435314 -0.0216068)
(0.00629828 -0.00216625 0.0767865 0.0091788 0.0454323 -0.0154771)
(0.000773758 -0.00275977 0.117002 0.00732112 0.0486315 -0.00809488)
(-0.00368026 -0.00273811 0.164342 0.00509479 0.0535664 -0.00141453)
(-0.00344871 0.00407475 -0.168135 0.0027807 0.0893625 0.000668007)
(0.000455058 0.00419807 -0.121146 0.00409979 0.0842044 -0.00455485)
(0.00525814 0.00340115 -0.079937 0.00525875 0.0799333 -0.0105169)
(0.00917566 0.00216535 -0.0454374 0.0062932 0.0767967 -0.0154689)
(0.0113305 0.000735274 -0.0147613 0.00695607 0.0751731 -0.0182865)
(0.0113316 -0.000737174 0.0147464 0.00695689 0.0751728 -0.0182885)
(0.00917915 -0.00216694 0.0454225 0.00629554 0.0767955 -0.0154747)
(0.00526404 -0.00340226 0.0799221 0.00526247 0.0799313 -0.0105265)
(0.000463787 -0.0041986 0.121131 0.00410466 0.0842015 -0.00456844)
(-0.00343799 -0.00407404 0.168121 0.00278711 0.0893592 0.000650874)
(-0.0030026 0.00467696 -0.169429 0.000153452 0.124348 0.00284915)
(0.000236356 0.00498092 -0.125043 0.000237291 0.12504 -0.000473647)
(0.00409953 0.00419774 -0.0842083 0.000456346 0.121143 -0.00455588)
(0.00731722 0.00275894 -0.0486374 0.000766724 0.117013 -0.00808395)
(0.00909378 0.000955585 -0.0159169 0.00100435 0.114617 -0.0100981)
(0.00909492 -0.000958132 0.0159002 0.00100528 0.114616 -0.0101002)
(0.00732069 -0.00276115 0.0486209 0.00076943 0.117011 -0.00809012)
(0.00410537 -0.00419931 0.0841919 0.000460638 0.12114 -0.00456601)
(0.000245163 -0.00498169 0.125027 0.000242847 0.125036 -0.000488009)
(-0.00299173 -0.00467612 0.169414 0.000160307 0.124344 0.00283143)
(-0.00222537 0.00431834 -0.153911 -0.00222393 0.153908 0.00444931)
(0.000152775 0.00467663 -0.124352 -0.00300155 0.169426 0.00284878)
(0.00278092 0.00407407 -0.0893669 -0.00344729 0.168132 0.00066637)
(0.00508983 0.00273778 -0.0535734 -0.003689 0.164352 -0.00140083)
(0.00640068 0.00095666 -0.0178268 -0.00377982 0.161929 -0.00262087)
(0.0064018 -0.000959814 0.0178075 -0.00377856 0.161929 -0.00262324)
(0.00509326 -0.00274047 0.0535543 -0.00368532 0.164349 -0.00140794)
(0.0027868 -0.00407565 0.0893484 -0.00344159 0.168128 0.000654791)
(0.000162098 -0.00467693 0.124335 -0.00299447 0.169421 0.00283237)
(-0.00221296 -0.00431643 0.153896 -0.00221654 0.153903 0.0044295)
(-0.00210973 -0.00322599 -0.158961 -0.00210282 -0.158948 0.00421254)
(-0.000302924 -0.00257277 -0.130747 -0.00260768 -0.177353 0.00291061)
(0.000886806 -0.00206873 -0.0954569 -0.00269942 -0.17836 0.00181262)
(0.00194418 -0.00134505 -0.0579274 -0.00275421 -0.176215 0.000810021)
(0.00256328 -0.000463143 -0.0194125 -0.00277143 -0.174645 0.000208149)
(0.00256537 0.000468961 0.0193718 -0.00276918 -0.174643 0.000203811)
(0.00195059 0.00135004 0.0578871 -0.00274764 -0.176209 0.000797044)
(0.000897711 0.0020717 0.0954175 -0.00268925 -0.178349 0.00179154)
(-0.000285786 0.00257338 0.130709 -0.00259498 -0.17734 0.00288076)
(-0.00208691 0.00322241 0.15893 -0.00208956 -0.158936 0.00417647)
(-0.00261286 -0.00257416 -0.177366 -0.000299465 -0.130728 0.00291232)
(-0.000491503 -0.00232188 -0.134218 -0.000487158 -0.134201 0.00097866)
(0.00119505 -0.00195973 -0.0925996 -0.00032899 -0.132491 -0.000866062)
(0.00269276 -0.00128677 -0.0545044 -0.000167005 -0.129843 -0.00252575)
(0.00355197 -0.000441701 -0.018029 -4.38966e-05 -0.12819 -0.00350807)
(0.00355404 0.000446909 0.0179943 -4.22231e-05 -0.128188 -0.00351182)
(0.00269903 0.00129132 0.0544698 -0.000162097 -0.129838 -0.00253694)
(0.00120561 0.00196307 0.092565 -0.000321181 -0.132483 -0.000884429)
(-0.000475594 0.00232366 0.134183 -0.000477008 -0.13419 0.000952602)
(-0.00259315 0.00257278 0.177335 -0.000286945 -0.130717 0.00288009)
(-0.00270604 -0.00207154 -0.178373 0.000886307 -0.0954353 0.00181974)
(-0.000334791 -0.00196105 -0.132508 0.00119639 -0.0925803 -0.000861601)
(0.0018017 -0.00162265 -0.0900904 0.0018045 -0.0900721 -0.0036062)
(0.00367353 -0.00102275 -0.05243 0.00234353 -0.0880364 -0.00601705)
(0.00472904 -0.000337886 -0.0172677 0.00271256 -0.0869096 -0.00744161)
(0.00473105 0.000342019 0.017237 0.00271407 -0.0869086 -0.00744513)
(0.00367969 0.00102625 0.0523994 0.0023478 -0.0880332 -0.0060275)
(0.00181218 0.00162519 0.0900594 0.00181133 -0.0900666 -0.00362351)
(-0.000319238 0.0019624 0.132477 0.00120542 -0.0925726 -0.000886181)
(-0.00268688 0.00207041 0.178344 0.000898239 -0.095426 0.00178864)
(-0.00276337 -0.00134929 -0.17623 0.00194142 -0.0579029 0.000821947)
(-0.000174928 -0.00128938 -0.12986 0.00269201 -0.054483 -0.00251708)
(0.00233866 -0.0010241 -0.0880547 0.00367409 -0.0524103 -0.00601276)
(0.00453748 -0.000573689 -0.0511809 0.00453969 -0.0511619 -0.00907717)
(0.00583084 -0.00016234 -0.0169755 0.00514294 -0.0505532 -0.0109738)
(0.00583301 0.00016513 0.0169469 0.00514422 -0.0505526 -0.0109772)
(0.00454393 0.000575808 0.0511527 0.00454318 -0.0511602 -0.00908711)
(0.00234953 0.00102555 0.088026 0.00367967 -0.0524071 -0.00602919)
(-0.000159327 0.00129 0.129831 0.00269967 -0.0544783 -0.00254034)