/*--------------------------------*- C++ -*----------------------------------*\
| =========                 |                                                 |
| \\      /  F ield         | OpenFOAM: The Open Source CFD Toolbox           |
|  \\    /   O peration     | Version:  2406                                  |
|   \\  /    A nd           | Website:  www.openfoam.com                      |
|    \\/     M anipulation  |                                                 |
\*---------------------------------------------------------------------------*/
FoamFile
{
    version     2.0;
    format      ascii;
    arch        "LSB;label=32;scalar=64";
    class       volSymmTensorField;
    location    "1.2";
    object      turbulenceProperties:R;
}
// * * * * * * * * * * * * * * * * * * * * * * * * * * * * * * * * * * * * * //

dimensions      [0 2 -2 0 0 0 0];

internalField   uniform (0 -0 -0 0 -0 0);

boundaryField
{
    walls
    {
        type            calculated;
        value           nonuniform List<symmTensor> 
2000
(
(-8.57814e-08 7.13917e-08 2.9652e-07 -5.45554e-08 -2.50416e-07 1.40337e-07)
(-1.48119e-07 9.04419e-08 4.68661e-07 -5.04316e-08 -2.88974e-07 1.9855e-07)
(-2.2472e-07 9.40333e-08 6.72755e-07 -3.32467e-08 -2.81248e-07 2.57967e-07)
(-2.95108e-07 7.27076e-08 8.5269e-07 -1.06401e-08 -2.06803e-07 3.05748e-07)
(-3.38005e-07 2.73264e-08 9.58426e-07 5.72816e-09 -7.62259e-08 3.32277e-07)
(-3.38005e-07 -2.73271e-08 9.58426e-07 5.72804e-09 7.62259e-08 3.32277e-07)
(-2.95107e-07 -7.27082e-08 8.5269e-07 -1.06404e-08 2.06803e-07 3.05748e-07)
(-2.2472e-07 -9.40336e-08 6.72754e-07 -3.32471e-08 2.81248e-07 2.57967e-07)
(-1.48118e-07 -9.04421e-08 4.68661e-07 -5.0432e-08 2.88974e-07 1.9855e-07)
(-8.57811e-08 -7.13917e-08 2.96519e-07 -5.45556e-08 2.50416e-07 1.40337e-07)
(-2.65033e-09 1.14312e-09 1.27213e-07 -1.93743e-10 -1.07008e-07 2.84407e-09)
(-4.96863e-09 8.58043e-10 1.94471e-07 2.50453e-10 -1.19434e-07 4.71818e-09)
(-6.63825e-09 9.81803e-10 2.78044e-07 -3.47367e-10 -1.15976e-07 6.98562e-09)
(-8.44009e-09 7.36089e-10 3.54169e-07 -5.23073e-10 -8.57661e-08 8.96316e-09)
(-9.51415e-09 3.14812e-10 3.99765e-07 -6.40666e-10 -3.17574e-08 1.01548e-08)
(-9.51387e-09 -3.16588e-10 3.99765e-07 -6.40956e-10 3.17575e-08 1.01548e-08)
(-8.43935e-09 -7.37522e-10 3.54168e-07 -5.23834e-10 8.5766e-08 8.96319e-09)
(-6.63735e-09 -9.82687e-10 2.78043e-07 -3.48295e-10 1.15976e-07 6.98564e-09)
(-4.96781e-09 -8.58452e-10 1.9447e-07 2.49596e-10 1.19434e-07 4.71821e-09)
(-2.64981e-09 -1.14319e-09 1.27212e-07 -1.94296e-10 1.07007e-07 2.8441e-09)
(-2.81372e-10 -9.69289e-12 4.46202e-08 -1.31783e-10 -3.74057e-08 4.13155e-10)
(-3.71865e-10 -6.89e-11 6.65025e-08 -2.67774e-10 -4.07056e-08 6.39639e-10)
(-3.80653e-10 -1.56339e-11 9.44615e-08 -5.35362e-10 -3.93247e-08 9.16015e-10)
(-4.69275e-10 2.98007e-11 1.20776e-07 -6.88442e-10 -2.92215e-08 1.15772e-09)
(-5.50615e-10 2.50005e-11 1.3679e-07 -7.51271e-10 -1.086e-08 1.30189e-09)
(-5.503e-10 -2.70225e-11 1.36789e-07 -7.51598e-10 1.08601e-08 1.3019e-09)
(-4.68459e-10 -3.14282e-11 1.20774e-07 -6.89294e-10 2.92211e-08 1.15775e-09)
(-3.79665e-10 1.46311e-11 9.44589e-08 -5.36395e-10 3.93236e-08 9.1606e-10)
(-3.70967e-10 6.84342e-11 6.64999e-08 -2.68722e-10 4.07041e-08 6.39689e-10)
(-2.808e-10 9.60326e-12 4.46179e-08 -1.32398e-10 3.74038e-08 4.13198e-10)
(-8.21955e-11 6.38837e-11 5.83272e-08 5.37449e-11 -4.89501e-08 2.84506e-11)
(-1.88279e-10 4.49691e-11 8.75762e-08 1.32302e-10 -5.36526e-08 5.59768e-11)
(-2.50324e-10 3.96704e-11 1.24438e-07 1.57455e-10 -5.18241e-08 9.28688e-11)
(-3.13835e-10 1.70417e-11 1.58685e-07 1.86559e-10 -3.83944e-08 1.27276e-10)
(-3.43957e-10 5.11821e-12 1.79389e-07 1.93903e-10 -1.4241e-08 1.50054e-10)
(-3.43205e-10 -9.93713e-12 1.79387e-07 1.93114e-10 1.42411e-08 1.50091e-10)
(-3.11884e-10 -2.0927e-11 1.5868e-07 1.84502e-10 3.83934e-08 1.27382e-10)
(-2.4796e-10 -4.20601e-11 1.24431e-07 1.54956e-10 5.18213e-08 9.30035e-11)
(-1.86154e-10 -4.60569e-11 8.7569e-08 1.30032e-10 5.36484e-08 5.61212e-11)
(-8.08689e-11 -6.40803e-11 5.8321e-08 5.22969e-11 4.8945e-08 2.8572e-11)
(-3.19231e-11 -1.07443e-11 4.55049e-08 -3.73442e-11 -3.81603e-08 6.92673e-11)
(-2.37562e-11 -1.18254e-11 6.7942e-08 -8.01611e-11 -4.15948e-08 1.03917e-10)
(-1.50922e-11 6.07028e-12 9.6572e-08 -1.28934e-10 -4.02091e-08 1.44026e-10)
(-2.80819e-11 1.65729e-11 1.23416e-07 -1.50179e-10 -2.98613e-08 1.78261e-10)
(-4.36355e-11 6.98246e-12 1.39736e-07 -1.54471e-10 -1.10944e-08 1.98107e-10)
(-4.25052e-11 -1.4272e-11 1.39732e-07 -1.55657e-10 1.10946e-08 1.98162e-10)
(-2.51491e-11 -2.24523e-11 1.23406e-07 -1.53271e-10 2.98594e-08 1.7842e-10)
(-1.15385e-11 -9.6961e-12 9.65586e-08 -1.32688e-10 4.02039e-08 1.44227e-10)
(-2.05468e-11 1.01574e-11 6.79285e-08 -8.35847e-11 4.15869e-08 1.04131e-10)
(-2.98905e-11 1.04246e-11 4.54934e-08 -3.95554e-11 3.81508e-08 6.94459e-11)
(-1.17079e-11 1.47167e-11 4.93003e-08 9.51075e-12 -4.13571e-08 2.19716e-12)
(-3.25455e-11 1.35712e-11 7.38004e-08 2.69117e-11 -4.5196e-08 5.63387e-12)
(-4.83311e-11 1.24012e-11 1.04948e-07 3.78712e-11 -4.37038e-08 1.04599e-11)
(-6.3862e-11 5.05014e-12 1.34067e-07 4.88588e-11 -3.24408e-08 1.50032e-11)
(-7.0863e-11 -2.63487e-12 1.51742e-07 5.27069e-11 -1.2048e-08 1.8156e-11)
(-6.88273e-11 -1.04766e-11 1.51735e-07 5.05697e-11 1.20484e-08 1.82576e-11)
(-5.85704e-11 -1.56439e-11 1.34047e-07 4.32743e-11 3.2437e-08 1.52961e-11)
(-4.19023e-11 -1.89466e-11 1.04922e-07 3.10668e-11 4.36936e-08 1.08356e-11)
(-2.6742e-11 -1.65721e-11 7.37739e-08 2.07045e-11 4.51804e-08 6.03744e-12)
(-8.04724e-12 -1.52787e-11 4.92776e-08 5.51066e-12 4.13384e-08 2.53658e-12)
(-6.08138e-12 -2.64374e-12 4.61671e-08 -1.07882e-11 -3.87207e-08 1.68695e-11)
(-5.01284e-12 -3.06221e-12 6.89986e-08 -2.04341e-11 -4.22473e-08 2.54469e-11)
(-4.61063e-12 -5.35233e-13 9.81176e-08 -3.08613e-11 -4.08566e-08 3.5472e-11)
(-8.26247e-12 -7.42933e-13 1.25407e-07 -3.5892e-11 -3.03452e-08 4.41545e-11)
(-1.09926e-11 -6.55243e-12 1.41994e-07 -3.82672e-11 -1.12741e-08 4.92598e-11)
(-7.84514e-12 -1.37711e-11 1.41981e-07 -4.15749e-11 1.12747e-08 4.942e-11)
(-8.34167e-14 -1.56802e-11 1.25373e-07 -4.45343e-11 3.03385e-08 4.46178e-11)
(5.32182e-12 -9.61969e-12 9.80719e-08 -4.1394e-11 4.08389e-08 3.60722e-11)
(3.93339e-12 -1.594e-12 6.89523e-08 -3.00317e-11 4.22199e-08 2.60983e-11)
(-4.72028e-13 1.76888e-12 4.6127e-08 -1.6951e-11 3.86876e-08 1.7423e-11)
(-1.27081e-12 3.97646e-12 4.72172e-08 2.13513e-12 -3.96048e-08 -8.64318e-13)
(-8.49211e-12 2.913e-12 7.0609e-08 9.00222e-12 -4.32365e-08 -5.10111e-13)
(-1.47954e-11 -5.65394e-13 1.00405e-07 1.4572e-11 -4.181e-08 2.23419e-13)
(-1.89249e-11 -6.74688e-12 1.28299e-07 1.77911e-11 -3.10449e-08 1.13381e-12)
(-1.85278e-11 -1.29722e-11 1.45241e-07 1.65974e-11 -1.15314e-08 1.93045e-12)
(-1.39137e-11 -1.68697e-11 1.45219e-07 1.17301e-11 1.15323e-08 2.18363e-12)
(-6.93237e-12 -1.73739e-11 1.2824e-07 5.06674e-12 3.10331e-08 1.86563e-12)
(-2.42991e-13 -1.43374e-11 1.00324e-07 -9.36463e-13 4.17788e-08 1.17945e-12)
(4.56315e-12 -9.71448e-12 7.05271e-08 -5.09277e-12 4.31881e-08 5.29617e-13)
(6.79842e-12 -5.22387e-12 4.7146e-08 -6.82351e-12 3.9546e-08 2.5086e-14)
(-7.26669e-13 -5.77217e-13 4.64644e-08 -2.37818e-12 -3.8971e-08 3.10485e-12)
(-2.64931e-12 -1.83582e-12 6.94444e-08 -2.25768e-12 -4.25206e-08 4.90699e-12)
(-4.95361e-12 -4.89382e-12 9.87322e-08 -2.16325e-12 -4.1112e-08 7.11686e-12)
(-6.01108e-12 -1.00063e-11 1.26161e-07 -3.2056e-12 -3.05268e-08 9.21668e-12)
(-4.06915e-12 -1.64459e-11 1.42819e-07 -6.55446e-12 -1.13384e-08 1.06236e-11)
(1.61915e-12 -2.04932e-11 1.42783e-07 -1.25818e-11 1.13395e-08 1.09627e-11)
(8.78394e-12 -1.98817e-11 1.26066e-07 -1.89769e-11 3.05074e-08 1.01929e-11)
(1.30083e-11 -1.35962e-11 9.86022e-08 -2.13968e-11 4.10613e-08 8.38853e-12)
(1.35103e-11 -6.64439e-12 6.93108e-08 -1.97948e-11 4.24415e-08 6.28446e-12)
(9.22675e-12 -9.90051e-13 4.63479e-08 -1.35054e-11 3.88748e-08 4.27867e-12)
(-8.03239e-13 9.0023e-13 4.67968e-08 2.22379e-12 -3.92505e-08 -1.42055e-12)
(-4.76571e-12 -9.09574e-13 6.99427e-08 6.51774e-12 -4.28259e-08 -1.75203e-12)
(-8.30547e-12 -5.60411e-12 9.94248e-08 1.02686e-11 -4.13999e-08 -1.96312e-12)
(-9.03768e-12 -1.20587e-11 1.2702e-07 1.09435e-11 -3.07338e-08 -1.90578e-12)
(-6.03039e-12 -1.80314e-11 1.43766e-07 7.64829e-12 -1.14128e-08 -1.61791e-12)
(-1.00696e-13 -2.06596e-11 1.43713e-07 1.33211e-12 1.14141e-08 -1.23141e-12)
(6.4397e-12 -1.93615e-11 1.26877e-07 -5.64353e-12 3.07044e-08 -7.96169e-13)
(1.05721e-11 -1.39308e-11 9.92303e-08 -1.00401e-11 4.13237e-08 -5.32013e-13)
(1.24352e-11 -8.17676e-12 6.97431e-08 -1.22195e-11 4.27075e-08 -2.15741e-13)
(9.88643e-12 -2.616e-12 4.66229e-08 -9.75836e-12 3.91067e-08 -1.28062e-13)
(-2.92646e-12 -7.31366e-13 4.66477e-08 2.89943e-12 -3.91246e-08 2.70277e-14)
(-4.89858e-12 -2.99707e-12 6.97032e-08 4.72282e-12 -4.2678e-08 1.75765e-13)
(-6.12041e-12 -7.011e-12 9.90688e-08 5.67794e-12 -4.12506e-08 4.42468e-13)
(-5.28908e-12 -1.18817e-11 1.26551e-07 4.46243e-12 -3.06193e-08 8.26643e-13)
(-1.95555e-12 -1.60343e-11 1.43219e-07 6.96085e-13 -1.13684e-08 1.25947e-12)
(3.1297e-12 -1.73723e-11 1.43148e-07 -4.7429e-12 1.13701e-08 1.6132e-12)
(8.08654e-12 -1.54598e-11 1.26358e-07 -9.92851e-12 3.05796e-08 1.84198e-12)
(1.0381e-11 -1.01947e-11 9.88085e-08 -1.21064e-11 4.11485e-08 1.72549e-12)
(1.05906e-11 -5.27096e-12 6.94374e-08 -1.21292e-11 4.25202e-08 1.53856e-12)
(7.01256e-12 -9.28878e-13 4.64172e-08 -8.15684e-12 3.8934e-08 1.14427e-12)
(-6.28224e-12 -9.58218e-13 4.67597e-08 6.78119e-12 -3.92187e-08 -4.98949e-13)
(-8.05066e-12 -4.02821e-12 6.98699e-08 8.77296e-12 -4.278e-08 -7.22307e-13)
(-7.75588e-12 -7.6907e-12 9.92985e-08 8.65857e-12 -4.13458e-08 -9.02691e-13)
(-5.70599e-12 -1.10546e-11 1.26831e-07 6.70646e-12 -3.06865e-08 -1.00047e-12)
(-2.13165e-12 -1.22868e-11 1.4352e-07 3.01662e-12 -1.13916e-08 -8.84968e-13)
(1.41777e-12 -1.1208e-11 1.43433e-07 -7.79049e-13 1.13936e-08 -6.38719e-13)
(3.79376e-12 -8.50544e-12 1.26597e-07 -3.50762e-12 3.06381e-08 -2.8614e-13)
(4.27282e-12 -4.94148e-12 9.89837e-08 -4.23797e-12 4.12222e-08 -3.48463e-14)
(3.9255e-12 -2.42374e-12 6.95507e-08 -4.11514e-12 4.25903e-08 1.89639e-13)
(1.91951e-12 -4.7314e-13 4.6485e-08 -2.12891e-12 3.89914e-08 2.09406e-13)
(-1.06227e-11 -2.02925e-12 4.67134e-08 9.99636e-12 -3.91798e-08 6.26364e-13)
(-1.14794e-11 -6.18027e-12 6.98011e-08 1.06957e-11 -4.27378e-08 7.83746e-13)
(-8.75503e-12 -9.17897e-12 9.92026e-08 7.73632e-12 -4.13058e-08 1.01871e-12)
(-5.05217e-12 -1.05979e-11 1.26709e-07 3.92076e-12 -3.06566e-08 1.13141e-12)
(-1.11276e-12 -8.61728e-12 1.43377e-07 -1.82646e-13 -1.13798e-08 1.2954e-12)
(9.37943e-13 -5.00404e-12 1.4328e-07 -2.32505e-12 1.1382e-08 1.38711e-12)
(6.59007e-13 -1.18882e-12 1.26449e-07 -2.07799e-12 3.0603e-08 1.41898e-12)
(-1.0855e-12 1.11395e-12 9.8856e-08 -2.31326e-13 4.11696e-08 1.31682e-12)
(-2.93773e-12 1.56181e-12 6.94525e-08 1.83862e-12 4.25305e-08 1.0991e-12)
(-4.03909e-12 8.27733e-13 4.64161e-08 3.2252e-12 3.89337e-08 8.13884e-13)
(-1.39904e-11 -2.4461e-12 4.67039e-08 1.2905e-11 -3.9172e-08 1.08547e-12)
(-1.48668e-11 -7.5696e-12 6.97948e-08 1.3472e-11 -4.27345e-08 1.39486e-12)
(-1.06385e-11 -1.02638e-11 9.92041e-08 8.81215e-12 -4.1307e-08 1.82633e-12)
(-5.87437e-12 -1.05191e-11 1.26719e-07 3.8929e-12 -3.06594e-08 1.98147e-12)
(-1.57685e-12 -6.11511e-12 1.43392e-07 -5.27889e-13 -1.1381e-08 2.10473e-12)
(-5.52239e-13 -4.96085e-13 1.43293e-07 -1.47399e-12 1.13833e-08 2.02622e-12)
(-2.73443e-12 4.21889e-12 1.26454e-07 9.27922e-13 3.06047e-08 1.80651e-12)
(-5.85311e-12 5.36625e-12 9.88523e-08 4.33539e-12 4.11687e-08 1.51772e-12)
(-8.47876e-12 4.18207e-12 6.94438e-08 7.38325e-12 4.25257e-08 1.09551e-12)
(-8.20599e-12 1.37919e-12 4.64072e-08 7.44965e-12 3.89264e-08 7.5634e-13)
(-1.44243e-11 -2.49786e-12 4.66317e-08 1.27747e-11 -3.91117e-08 1.64961e-12)
(-1.5275e-11 -7.67482e-12 6.96954e-08 1.30602e-11 -4.26744e-08 2.21487e-12)
(-1.051e-11 -9.75087e-12 9.90771e-08 7.54502e-12 -4.1255e-08 2.96498e-12)
(-5.74243e-12 -9.32265e-12 1.26572e-07 2.43512e-12 -3.06246e-08 3.30731e-12)
(-1.74336e-12 -4.11603e-12 1.43236e-07 -1.72219e-12 -1.13691e-08 3.46556e-12)
(-1.30902e-12 1.79737e-12 1.43143e-07 -1.90861e-12 1.13713e-08 3.21763e-12)
(-4.05682e-12 6.34331e-12 1.26322e-07 1.37913e-12 3.05729e-08 2.67768e-12)
(-7.27522e-12 6.70671e-12 9.8747e-08 5.21278e-12 4.1125e-08 2.06244e-12)
(-9.86871e-12 4.93276e-12 6.93684e-08 8.53815e-12 4.24797e-08 1.33056e-12)
(-8.73424e-12 1.46954e-12 4.63579e-08 7.89328e-12 3.88848e-08 8.40966e-13)
(-1.07665e-11 -1.73839e-12 4.65635e-08 9.05023e-12 -3.90548e-08 1.71625e-12)
(-1.1311e-11 -5.39681e-12 6.96025e-08 8.98269e-12 -4.26183e-08 2.32832e-12)
(-7.30169e-12 -6.01961e-12 9.89595e-08 4.18364e-12 -4.1207e-08 3.11805e-12)
(-4.04981e-12 -4.92039e-12 1.26439e-07 5.88153e-13 -3.05934e-08 3.46166e-12)
(-1.68644e-12 -4.72044e-13 1.43102e-07 -1.84216e-12 -1.13593e-08 3.5286e-12)
(-2.04139e-12 3.71414e-12 1.43022e-07 -1.06773e-12 1.1361e-08 3.10912e-12)
(-4.35239e-12 6.31992e-12 1.26224e-07 1.98273e-12 3.0549e-08 2.36966e-12)
(-6.31415e-12 5.53214e-12 9.86777e-08 4.70731e-12 4.10959e-08 1.60684e-12)
(-7.5416e-12 3.63349e-12 6.93252e-08 6.69998e-12 4.2453e-08 8.41614e-13)
(-5.64713e-12 8.21831e-13 4.63334e-08 5.23193e-12 3.8864e-08 4.15199e-13)
(-4.24337e-12 -5.85378e-13 4.6485e-08 2.58296e-12 -3.89892e-08 1.66041e-12)
(-3.65758e-12 -1.37379e-12 6.94939e-08 1.43133e-12 -4.25525e-08 2.22625e-12)
(-9.8104e-13 4.7403e-13 9.88203e-08 -1.89155e-12 -4.115e-08 2.87259e-12)
(-2.0726e-13 2.88705e-12 1.26281e-07 -2.88323e-12 -3.05562e-08 3.09049e-12)
(-7.2949e-13 5.92547e-12 1.42944e-07 -2.23186e-12 -1.13479e-08 2.96135e-12)
(-2.54595e-12 7.13118e-12 1.42885e-07 1.76758e-13 1.1349e-08 2.3692e-12)
(-4.29459e-12 6.42612e-12 1.26123e-07 2.77188e-12 3.05233e-08 1.52271e-12)
(-4.5456e-12 3.90315e-12 9.86152e-08 3.81407e-12 4.10688e-08 7.31528e-13)
(-3.76704e-12 1.73208e-12 6.92943e-08 3.67008e-12 4.24333e-08 9.69644e-14)
(-1.31415e-12 3.43987e-14 4.63217e-08 1.49025e-12 3.88535e-08 -1.76097e-13)
(1.88758e-12 4.56273e-13 4.64159e-08 -3.41627e-12 -3.89315e-08 1.52869e-12)
(4.09096e-12 2.64288e-12 6.94022e-08 -6.05646e-12 -4.2497e-08 1.9655e-12)
(5.66961e-12 7.1138e-12 9.87091e-08 -7.98238e-12 -4.11047e-08 2.31277e-12)
(4.2006e-12 1.13074e-11 1.26163e-07 -6.47585e-12 -3.05289e-08 2.27525e-12)
(6.95613e-13 1.34139e-11 1.42838e-07 -2.56438e-12 -1.13409e-08 1.86876e-12)
(-2.99994e-12 1.20407e-11 1.42808e-07 1.86611e-12 1.13413e-08 1.13383e-12)
(-4.83772e-12 8.16971e-12 1.26084e-07 4.53619e-12 3.05122e-08 3.01526e-13)
(-4.04407e-12 3.70268e-12 9.86097e-08 4.40199e-12 4.1065e-08 -3.57918e-13)
(-1.69481e-12 7.51458e-13 6.93096e-08 2.41817e-12 4.24414e-08 -7.23358e-13)
(1.18522e-12 -4.04003e-13 4.63439e-08 -4.13024e-13 3.88715e-08 -7.72191e-13)
(3.74813e-12 7.22139e-13 4.6348e-08 -5.2326e-12 -3.88749e-08 1.48447e-12)
(6.9379e-12 4.0616e-12 6.93163e-08 -8.77841e-12 -4.24453e-08 1.84051e-12)
(8.21358e-12 9.4795e-12 9.86127e-08 -1.01855e-11 -4.10657e-08 1.97189e-12)
(6.15485e-12 1.45902e-11 1.26071e-07 -7.90228e-12 -3.0508e-08 1.74743e-12)
(1.58742e-12 1.66289e-11 1.42768e-07 -2.7471e-12 -1.1337e-08 1.15968e-12)
(-2.98266e-12 1.46609e-11 1.42773e-07 2.60262e-12 1.13368e-08 3.80041e-13)
(-5.31505e-12 9.9283e-12 1.26086e-07 5.67883e-12 3.05108e-08 -3.63784e-13)
(-4.76649e-12 4.78757e-12 9.86392e-08 5.6162e-12 4.10757e-08 -8.49706e-13)
(-2.43894e-12 1.28321e-12 6.93509e-08 3.45298e-12 4.24654e-08 -1.01404e-12)
(3.17451e-13 -1.72907e-13 4.63842e-08 6.19565e-13 3.89045e-08 -9.37016e-13)
(5.63949e-14 6.14344e-14 4.62826e-08 -1.51656e-12 -3.88205e-08 1.46016e-12)
(2.69948e-12 1.82139e-12 6.92362e-08 -4.52201e-12 -4.23973e-08 1.82253e-12)
(4.44595e-12 5.51288e-12 9.85281e-08 -6.39465e-12 -4.10318e-08 1.9487e-12)
(3.84644e-12 9.57489e-12 1.25997e-07 -5.56999e-12 -3.04917e-08 1.72355e-12)
(1.12942e-12 1.20402e-11 1.42722e-07 -2.30693e-12 -1.13349e-08 1.1775e-12)
(-2.26933e-12 1.1748e-11 1.42761e-07 1.76572e-12 1.13343e-08 5.03611e-13)
(-4.78272e-12 9.29127e-12 1.26105e-07 4.88291e-12 3.05141e-08 -1.00188e-13)
(-5.48087e-12 5.67085e-12 9.86778e-08 5.9265e-12 4.10905e-08 -4.45627e-13)
(-4.90731e-12 2.65651e-12 6.93939e-08 5.48247e-12 4.24907e-08 -5.75155e-13)
(-3.02426e-12 5.19776e-13 4.64225e-08 3.55752e-12 3.89361e-08 -5.33269e-13)
(-6.05465e-12 -9.59477e-13 4.62189e-08 4.67771e-12 -3.87674e-08 1.37693e-12)
(-5.32309e-12 -2.34688e-12 6.91553e-08 3.50525e-12 -4.23487e-08 1.81783e-12)
(-2.96457e-12 -2.00342e-12 9.84384e-08 8.00319e-13 -4.09959e-08 2.16425e-12)
(-1.21655e-12 -4.69208e-13 1.25914e-07 -9.49155e-13 -3.04731e-08 2.16571e-12)
(-4.34332e-13 2.38776e-12 1.42659e-07 -1.47599e-12 -1.13314e-08 1.91032e-12)
(-1.30093e-12 4.86159e-12 1.42725e-07 -1.78993e-13 1.13301e-08 1.47992e-12)
(-3.50427e-12 6.43843e-12 1.26093e-07 2.4893e-12 3.05102e-08 1.01497e-12)
(-5.68789e-12 5.71271e-12 9.86808e-08 4.98603e-12 4.10911e-08 7.01866e-13)
(-7.62742e-12 4.04468e-12 6.94027e-08 7.21808e-12 4.24957e-08 4.0934e-13)
(-6.93457e-12 1.28302e-12 4.64325e-08 6.67939e-12 3.89442e-08 2.55186e-13)
(-8.41611e-12 -1.3136e-12 4.61619e-08 7.24393e-12 -3.87199e-08 1.17217e-12)
(-9.24729e-12 -4.39064e-12 6.90771e-08 7.57552e-12 -4.23017e-08 1.67177e-12)
(-6.82795e-12 -5.8842e-12 9.83419e-08 4.55795e-12 -4.09569e-08 2.27e-12)
(-4.05254e-12 -5.86393e-12 1.2581e-07 1.47151e-12 -3.04493e-08 2.58103e-12)
(-1.46703e-12 -2.64527e-12 1.4256e-07 -1.23666e-12 -1.13248e-08 2.70369e-12)
(-1.1493e-12 1.64573e-12 1.42641e-07 -1.41199e-12 1.13226e-08 2.5613e-12)
(-3.56586e-12 5.75209e-12 1.26026e-07 1.35975e-12 3.04936e-08 2.20611e-12)
(-6.89104e-12 6.53399e-12 9.86296e-08 5.04042e-12 4.10697e-08 1.85062e-12)
(-1.05318e-11 5.41048e-12 6.93649e-08 9.20913e-12 4.24727e-08 1.32264e-12)
(-1.02176e-11 1.83907e-12 4.64064e-08 9.26815e-12 3.89222e-08 9.49452e-13)
(-2.873e-12 -3.38353e-13 4.61157e-08 2.0046e-12 -3.86812e-08 8.68406e-13)
(-3.28754e-12 -1.34175e-12 6.90077e-08 1.94271e-12 -4.22597e-08 1.34482e-12)
(-1.71084e-12 -7.22997e-13 9.82459e-08 -3.17748e-13 -4.09176e-08 2.02858e-12)
(-6.81892e-13 1.03672e-12 1.25693e-07 -1.87584e-12 -3.04218e-08 2.55773e-12)
(-5.44657e-13 4.90662e-12 1.42433e-07 -2.39257e-12 -1.13154e-08 2.93723e-12)
(-2.64832e-12 8.75e-12 1.42517e-07 -3.61706e-13 1.13123e-08 3.01003e-12)
(-6.8815e-12 1.1454e-11 1.25915e-07 4.16702e-12 3.04666e-08 2.71448e-12)
(-1.08496e-11 1.0103e-11 9.85375e-08 8.5363e-12 4.10316e-08 2.31335e-12)
(-1.43901e-11 7.21168e-12 6.92951e-08 1.27673e-11 4.24302e-08 1.62274e-12)
(-1.28057e-11 2.16475e-12 4.63574e-08 1.16654e-11 3.8881e-08 1.14027e-12)
(9.39389e-12 1.72059e-12 4.60827e-08 -9.93843e-12 -3.86534e-08 5.44548e-13)
(1.18223e-11 6.38917e-12 6.89549e-08 -1.27188e-11 -4.22274e-08 8.96481e-13)
(1.19534e-11 1.29091e-11 9.81663e-08 -1.33378e-11 -4.08845e-08 1.38443e-12)
(8.8931e-12 1.98055e-11 1.25588e-07 -1.07974e-11 -3.03965e-08 1.90428e-12)
(2.57994e-12 2.47557e-11 1.42311e-07 -4.85208e-12 -1.13057e-08 2.27215e-12)
(-5.44094e-12 2.60137e-11 1.4239e-07 3.02677e-12 1.13023e-08 2.41416e-12)
(-1.30898e-11 2.34676e-11 1.258e-07 1.09384e-11 3.04388e-08 2.15143e-12)
(-1.73176e-11 1.64505e-11 9.84445e-08 1.55215e-11 4.09929e-08 1.79604e-12)
(-1.9108e-11 9.51283e-12 6.92277e-08 1.79727e-11 4.2389e-08 1.13526e-12)
(-1.48217e-11 2.33753e-12 4.63122e-08 1.40808e-11 3.8843e-08 7.40946e-13)
(2.23962e-11 3.85461e-12 4.6062e-08 -2.26411e-11 -3.86359e-08 2.44951e-13)
(2.85585e-11 1.49321e-11 6.89223e-08 -2.89695e-11 -4.22072e-08 4.10981e-13)
(2.71449e-11 2.79442e-11 9.81162e-08 -2.76533e-11 -4.08633e-08 5.08393e-13)
(1.97472e-11 4.0667e-11 1.25519e-07 -2.05722e-11 -3.03794e-08 8.24982e-13)
(6.32407e-12 4.65603e-11 1.42228e-07 -7.2852e-12 -1.12988e-08 9.61128e-13)
(-8.07337e-12 4.45745e-11 1.42306e-07 7.02024e-12 1.12958e-08 1.05313e-12)
(-1.91084e-11 3.58255e-11 1.25726e-07 1.8278e-11 3.0421e-08 8.30418e-13)
(-2.32562e-11 2.25826e-11 9.83897e-08 2.26258e-11 4.097e-08 6.30379e-13)
(-2.27876e-11 1.14002e-11 6.91937e-08 2.26105e-11 4.2368e-08 1.77024e-13)
(-1.57523e-11 2.36472e-12 4.62936e-08 1.57371e-11 3.88271e-08 1.51939e-14)
(3.00916e-11 5.09391e-12 4.6053e-08 -2.99632e-11 -3.86285e-08 -1.28428e-13)
(3.85502e-11 1.99788e-11 6.89118e-08 -3.83797e-11 -4.22005e-08 -1.70484e-13)
(3.57352e-11 3.61926e-11 9.81024e-08 -3.52416e-11 -4.08571e-08 -4.93578e-13)
(2.58542e-11 5.17063e-11 1.255e-07 -2.54087e-11 -3.03744e-08 -4.45495e-13)
(8.60997e-12 5.72188e-11 1.42207e-07 -8.02602e-12 -1.12966e-08 -5.83951e-13)
(-8.73792e-12 5.27344e-11 1.42287e-07 9.29207e-12 1.12946e-08 -5.54158e-13)
(-2.07762e-11 4.02259e-11 1.25716e-07 2.14486e-11 3.04186e-08 -6.7241e-13)
(-2.42217e-11 2.39998e-11 9.83909e-08 2.48556e-11 4.09703e-08 -6.33898e-13)
(-2.21276e-11 1.11952e-11 6.92044e-08 2.29046e-11 4.23741e-08 -7.77022e-13)
(-1.39855e-11 2.04495e-12 4.6308e-08 1.46458e-11 3.88389e-08 -6.60303e-13)
(3.00697e-11 5.11033e-12 4.60638e-08 -2.91913e-11 -3.86376e-08 -8.78457e-13)
(3.72891e-11 1.92223e-11 6.89315e-08 -3.61263e-11 -4.22122e-08 -1.16287e-12)
(3.26398e-11 3.25836e-11 9.8132e-08 -3.08366e-11 -4.08688e-08 -1.80313e-12)
(2.29139e-11 4.462e-11 1.25538e-07 -2.09812e-11 -3.03827e-08 -1.93265e-12)
(7.67982e-12 4.66047e-11 1.42251e-07 -5.50812e-12 -1.12994e-08 -2.17169e-12)
(-6.07567e-12 4.05392e-11 1.42335e-07 8.14557e-12 1.12989e-08 -2.0699e-12)
(-1.42957e-11 2.87391e-11 1.25767e-07 1.6242e-11 3.0431e-08 -1.94627e-12)
(-1.55049e-11 1.57717e-11 9.84413e-08 1.71228e-11 4.09911e-08 -1.61795e-12)
(-1.27496e-11 6.57602e-12 6.9251e-08 1.41523e-11 4.24024e-08 -1.40272e-12)
(-6.5516e-12 8.8387e-13 4.63469e-08 7.59748e-12 3.88713e-08 -1.04588e-12)
(2.38736e-11 4.19064e-12 4.61186e-08 -2.15567e-11 -3.86834e-08 -2.31695e-12)
(2.57836e-11 1.31358e-11 6.90075e-08 -2.28228e-11 -4.2258e-08 -2.96078e-12)
(1.81062e-11 1.72588e-11 9.82283e-08 -1.42559e-11 -4.09078e-08 -3.85037e-12)
(1.05522e-11 1.85045e-11 1.25648e-07 -6.51734e-12 -3.04081e-08 -4.03485e-12)
(3.19909e-12 1.23916e-11 1.42366e-07 9.04775e-13 -1.13075e-08 -4.10386e-12)
(4.27465e-13 4.5798e-12 1.42447e-07 3.25677e-12 1.13085e-08 -3.68423e-12)
(2.14585e-12 -2.34499e-12 1.25868e-07 9.25228e-13 3.04559e-08 -3.07108e-12)
(5.67666e-12 -4.98777e-12 9.85262e-08 -3.32794e-12 4.10265e-08 -2.34872e-12)
(8.61533e-12 -4.20064e-12 6.93178e-08 -6.95291e-12 4.24433e-08 -1.66242e-12)
(9.16584e-12 -1.58975e-12 4.63955e-08 -8.0752e-12 3.89122e-08 -1.09064e-12)
(1.41698e-11 2.71214e-12 4.62519e-08 -9.78894e-12 -3.87947e-08 -4.38085e-12)
(8.0501e-12 3.72461e-12 6.91804e-08 -2.51006e-12 -4.23619e-08 -5.54004e-12)
(-3.60465e-12 -5.56592e-12 9.84323e-08 1.03088e-11 -4.09904e-08 -6.70414e-12)
(-7.95626e-12 -2.02562e-11 1.25865e-07 1.48511e-11 -3.04584e-08 -6.89488e-12)
(-3.67876e-12 -3.8143e-11 1.42576e-07 1.02532e-11 -1.13223e-08 -6.5744e-12)
(9.68599e-12 -4.84709e-11 1.42632e-07 -4.10336e-12 1.13245e-08 -5.58263e-12)
(2.59892e-11 -4.81291e-11 1.26017e-07 -2.18029e-11 3.04929e-08 -4.18634e-12)
(3.63766e-11 -3.54276e-11 9.86351e-08 -3.34639e-11 4.10725e-08 -2.9127e-12)
(3.95093e-11 -1.99515e-11 6.93901e-08 -3.79244e-11 4.2488e-08 -1.58492e-12)
(3.13716e-11 -5.11407e-12 4.64388e-08 -3.05632e-11 3.89492e-08 -8.0845e-13)
(3.0679e-12 8.64964e-13 4.64845e-08 3.29165e-12 -3.89883e-08 -6.35955e-12)
(-1.05228e-11 -6.30136e-12 6.94766e-08 1.86098e-11 -4.254e-08 -8.08694e-12)
(-2.50499e-11 -2.83979e-11 9.87752e-08 3.46309e-11 -4.11294e-08 -9.58107e-12)
(-2.58069e-11 -5.81906e-11 1.2622e-07 3.56576e-11 -3.05406e-08 -9.85064e-12)
(-1.01039e-11 -8.68823e-11 1.42904e-07 1.92158e-11 -1.13455e-08 -9.11184e-12)
(1.86625e-11 -9.92858e-11 1.42903e-07 -1.12046e-11 1.13483e-08 -7.45786e-12)
(4.87297e-11 -9.18198e-11 1.26215e-07 -4.35935e-11 3.05423e-08 -5.13619e-12)
(6.53254e-11 -6.42283e-11 9.87594e-08 -6.20995e-11 4.11255e-08 -3.22584e-12)
(6.85512e-11 -3.48471e-11 6.94541e-08 -6.73578e-11 4.25284e-08 -1.19343e-12)
(5.14726e-11 -8.28832e-12 4.64624e-08 -5.12121e-11 3.89703e-08 -2.60482e-13)
(-8.02792e-12 -1.24336e-12 4.67932e-08 1.51297e-11 -3.92453e-08 -7.1018e-12)
(-2.48361e-11 -1.42208e-11 6.98709e-08 3.40162e-11 -4.27773e-08 -9.1801e-12)
(-3.83421e-11 -4.29023e-11 9.92341e-08 4.92481e-11 -4.13157e-08 -1.0906e-11)
(-3.54051e-11 -7.94324e-11 1.26694e-07 4.67619e-11 -3.06507e-08 -1.13568e-11)
(-1.29282e-11 -1.1132e-10 1.43335e-07 2.33282e-11 -1.13758e-08 -1.04e-11)
(2.31094e-11 -1.22801e-10 1.43245e-07 -1.47838e-11 1.13785e-08 -8.32567e-12)
(5.87136e-11 -1.10776e-10 1.26444e-07 -5.33522e-11 3.06004e-08 -5.36139e-12)
(7.69658e-11 -7.5844e-11 9.88829e-08 -7.39403e-11 4.11791e-08 -3.02554e-12)
(7.97248e-11 -4.06674e-11 6.9496e-08 -7.91631e-11 4.2556e-08 -5.61705e-13)
(5.77427e-11 -9.2156e-12 4.64569e-08 -5.81141e-11 3.89675e-08 3.71322e-13)
(-1.72883e-11 -3.30138e-12 4.71013e-08 2.29248e-11 -3.95021e-08 -5.63649e-12)
(-3.05695e-11 -1.75897e-11 7.02714e-08 3.81231e-11 -4.3019e-08 -7.55362e-12)
(-3.74562e-11 -4.24429e-11 9.97106e-08 4.6644e-11 -4.15098e-08 -9.18776e-12)
(-3.12039e-11 -7.18603e-11 1.27193e-07 4.10835e-11 -3.07672e-08 -9.87957e-12)
(-1.00048e-11 -9.4615e-11 1.4379e-07 1.91165e-11 -1.14078e-08 -9.11176e-12)
(1.9766e-11 -1.00498e-10 1.43597e-07 -1.25346e-11 1.14101e-08 -7.23148e-12)
(4.73938e-11 -8.84301e-11 1.26666e-07 -4.2992e-11 3.06572e-08 -4.40189e-12)
(6.0215e-11 -5.91451e-11 9.89839e-08 -5.80167e-11 4.12241e-08 -2.19828e-12)
(6.17626e-11 -3.15765e-11 6.95091e-08 -6.18503e-11 4.25665e-08 8.77143e-14)
(4.25422e-11 -6.68058e-12 4.6425e-08 -4.33564e-11 3.89429e-08 8.14131e-13)
(-2.20758e-11 -4.67176e-12 4.73008e-08 2.39581e-11 -3.96686e-08 -1.88229e-12)
(-2.5563e-11 -1.50029e-11 7.05431e-08 2.85416e-11 -4.31839e-08 -2.97861e-12)
(-2.13553e-11 -2.54018e-11 1.00052e-07 2.5372e-11 -4.16501e-08 -4.01669e-12)
(-1.30802e-11 -3.40653e-11 1.27568e-07 1.79352e-11 -3.08553e-08 -4.85499e-12)
(-1.74438e-12 -3.59902e-11 1.44138e-07 6.42957e-12 -1.14326e-08 -4.68519e-12)
(8.20548e-12 -3.21726e-11 1.43865e-07 -4.45335e-12 1.14344e-08 -3.75213e-12)
(1.46046e-11 -2.48722e-11 1.26824e-07 -1.25236e-11 3.06985e-08 -2.08099e-12)
(1.53673e-11 -1.44826e-11 9.90415e-08 -1.46175e-11 4.12509e-08 -7.49769e-13)
(1.49834e-11 -7.68839e-12 6.94969e-08 -1.55734e-11 4.25613e-08 5.89939e-13)
(6.79391e-12 -8.48938e-13 4.6382e-08 -7.68599e-12 3.89086e-08 8.92082e-13)
(-1.91474e-11 -4.51474e-12 4.73015e-08 1.61152e-11 -3.96699e-08 3.03222e-12)
(-9.88761e-12 -6.33448e-12 7.05676e-08 6.62198e-12 -4.32006e-08 3.26563e-12)
(5.87555e-12 4.18167e-12 1.00117e-07 -9.16817e-12 -4.16785e-08 3.29262e-12)
(1.36858e-11 2.36018e-11 1.27669e-07 -1.62795e-11 -3.08805e-08 2.59373e-12)
(9.1616e-12 4.77184e-11 1.44248e-07 -1.1173e-11 -1.14409e-08 2.01143e-12)
(-8.47707e-12 6.23014e-11 1.4395e-07 6.95343e-12 1.14426e-08 1.52364e-12)
(-3.03575e-11 6.15317e-11 1.26864e-07 2.9086e-11 3.071e-08 1.27151e-12)
(-4.4825e-11 4.53561e-11 9.90382e-08 4.36582e-11 4.12514e-08 1.16674e-12)
(-4.7716e-11 2.44198e-11 6.94671e-08 4.67568e-11 4.25445e-08 9.59235e-13)
(-3.97037e-11 6.69045e-12 4.63465e-08 3.90028e-11 3.88797e-08 7.00884e-13)
(-7.38355e-12 -2.42935e-12 4.70841e-08 2.14103e-13 -3.94895e-08 7.16945e-12)
(1.26256e-11 6.32927e-12 7.03103e-08 -2.14383e-11 -4.30474e-08 8.81271e-12)
(3.52833e-11 3.67419e-11 9.98491e-08 -4.53702e-11 -4.15718e-08 1.00869e-11)
(3.95128e-11 8.10723e-11 1.27425e-07 -4.9441e-11 -3.08255e-08 9.92819e-12)
(1.84392e-11 1.26324e-10 1.44048e-07 -2.72922e-11 -1.14274e-08 8.85302e-12)
(-2.45331e-11 1.48398e-10 1.43796e-07 1.74541e-11 1.14293e-08 7.079e-12)
(-7.13617e-11 1.39212e-10 1.26751e-07 6.65258e-11 3.06827e-08 4.83592e-12)
(-9.86818e-11 9.86e-11 9.89608e-08 9.5468e-11 4.12194e-08 3.21371e-12)
(-1.04146e-10 5.33304e-11 6.94212e-08 1.02829e-10 4.25164e-08 1.31683e-12)
(-8.0638e-11 1.32926e-11 4.63255e-08 8.0137e-11 3.88616e-08 5.0102e-13)
(9.79942e-12 1.01476e-12 4.67185e-08 -1.87234e-11 -3.91852e-08 8.92394e-12)
(3.45648e-11 1.88376e-11 6.98488e-08 -4.60858e-11 -4.27702e-08 1.1521e-11)
(5.6284e-11 6.06268e-11 9.93222e-08 -7.00199e-11 -4.13585e-08 1.37358e-11)
(5.46441e-11 1.16924e-10 1.26893e-07 -6.89999e-11 -3.07024e-08 1.43558e-11)
(2.23105e-11 1.6951e-10 1.43573e-07 -3.55922e-11 -1.1394e-08 1.32817e-11)
(-3.38569e-11 1.92128e-10 1.43421e-07 2.29595e-11 1.13967e-08 1.08974e-11)
(-9.21777e-11 1.77012e-10 1.26494e-07 8.48078e-11 3.06185e-08 7.3699e-12)
(-1.24483e-10 1.23604e-10 9.88109e-08 1.19765e-10 4.11557e-08 4.71828e-12)
(-1.3145e-10 6.7273e-11 6.93564e-08 1.29857e-10 4.24755e-08 1.59265e-12)
(-9.9066e-11 1.61694e-11 4.63133e-08 9.8656e-11 3.88497e-08 4.10006e-13)
(2.4787e-11 4.27544e-12 4.63266e-08 -3.26405e-11 -3.88584e-08 7.85352e-12)
(4.69367e-11 2.61038e-11 6.93352e-08 -5.75155e-11 -4.24601e-08 1.05788e-11)
(6.05436e-11 6.64621e-11 9.87056e-08 -7.35425e-11 -4.1107e-08 1.29989e-11)
(5.30346e-11 1.17086e-10 1.26238e-07 -6.72522e-11 -3.05492e-08 1.42176e-11)
(1.90716e-11 1.59773e-10 1.42963e-07 -3.25746e-11 -1.13503e-08 1.3503e-11)
(-3.26344e-11 1.74842e-10 1.42928e-07 2.1336e-11 1.13537e-08 1.12984e-11)
(-8.35205e-11 1.57777e-10 1.26154e-07 7.59076e-11 3.05335e-08 7.61289e-12)
(-1.09832e-10 1.08225e-10 9.86188e-08 1.05062e-10 4.10733e-08 4.77017e-12)
(-1.15647e-10 5.9059e-11 6.92793e-08 1.14274e-10 4.24263e-08 1.37345e-12)
(-8.43912e-11 1.356e-11 4.63031e-08 8.41964e-11 3.8839e-08 1.94813e-13)
(3.12406e-11 5.98039e-12 4.60256e-08 -3.60508e-11 -3.8607e-08 4.81026e-12)
(4.51717e-11 2.54865e-11 6.89261e-08 -5.19572e-11 -4.22119e-08 6.78541e-12)
(4.73227e-11 5.30092e-11 9.81921e-08 -5.58076e-11 -4.08963e-08 8.4849e-12)
(3.61651e-11 8.32594e-11 1.25669e-07 -4.58202e-11 -3.0415e-08 9.65516e-12)
(1.03283e-11 1.0277e-10 1.42417e-07 -1.95776e-11 -1.13107e-08 9.24931e-12)
(-2.13815e-11 1.04367e-10 1.42481e-07 1.36915e-11 1.13145e-08 7.69005e-12)
(-4.84852e-11 8.88194e-11 1.2585e-07 4.3609e-11 3.04566e-08 4.87613e-12)
(-5.93095e-11 5.75151e-11 9.84554e-08 5.66394e-11 4.10022e-08 2.67002e-12)
(-6.04062e-11 3.06662e-11 6.92241e-08 6.02947e-11 4.23902e-08 1.11471e-13)
(-3.93533e-11 5.93144e-12 4.63063e-08 3.99635e-11 3.88395e-08 -6.1019e-13)
(2.72269e-11 5.61974e-12 4.58759e-08 -2.81712e-11 -3.84817e-08 9.44281e-13)
(3.0022e-11 1.73343e-11 6.87161e-08 -3.15242e-11 -4.20836e-08 1.50219e-12)