/*--------------------------------*- C++ -*----------------------------------*\
| =========                 |                                                 |
| \\      /  F ield         | OpenFOAM: The Open Source CFD Toolbox           |
|  \\    /   O peration     | Version:  2406                                  |
|   \\  /    A nd           | Website:  www.openfoam.com                      |
|    \\/     M anipulation  |                                                 |
\*---------------------------------------------------------------------------*/
FoamFile
{
    version     2.0;
    format      ascii;
    arch        "LSB;label=32;scalar=64";
    class       volVectorField;
    location    "1.2";
    object      U;
}
// * * * * * * * * * * * * * * * * * * * * * * * * * * * * * * * * * * * * * //

dimensions      [0 1 -1 0 0 0 0];

internalField   nonuniform List<vector> 
25000
(
(0.148204 0.148203 1.126)
(0.121742 0.159741 1.15799)
(0.0896833 0.168689 1.17581)
(0.0549335 0.174337 1.18522)
(0.0184816 0.177166 1.18921)
(-0.0184787 0.177166 1.18921)
(-0.0549307 0.174337 1.18522)
(-0.0896807 0.168689 1.17581)
(-0.12174 0.159741 1.15799)
(-0.148202 0.148203 1.126)
(0.159743 0.12174 1.15799)
(0.129922 0.12992 1.18715)
(0.0949535 0.136258 1.19911)
(0.0577461 0.140367 1.20344)
(0.0193628 0.142382 1.20465)
(-0.0193601 0.142382 1.20465)
(-0.0577435 0.140367 1.20344)
(-0.094951 0.136258 1.19911)
(-0.12992 0.12992 1.18715)
(-0.159741 0.121741 1.15799)
(0.16869 0.0896814 1.17581)
(0.13626 0.0949517 1.19911)
(0.0990591 0.0990574 1.20625)
(0.0599543 0.101732 1.20696)
(0.0200506 0.103029 1.20625)
(-0.020048 0.103029 1.20625)
(-0.0599518 0.101732 1.20696)
(-0.0990568 0.0990575 1.20625)
(-0.136258 0.0949517 1.19911)
(-0.168689 0.0896816 1.17581)
(0.174338 0.0549315 1.18522)
(0.140369 0.0577443 1.20344)
(0.101734 0.0599525 1.20696)
(0.0613933 0.0613915 1.20524)
(0.0204972 0.0620857 1.20331)
(-0.0204947 0.0620857 1.20331)
(-0.0613908 0.0613915 1.20524)
(-0.101732 0.0599525 1.20696)
(-0.140367 0.0577443 1.20344)
(-0.174336 0.0549316 1.18522)
(0.177167 0.0184796 1.18921)
(0.142383 0.019361 1.20465)
(0.103031 0.0200488 1.20625)
(0.0620874 0.0204954 1.20331)
(0.0207119 0.0207101 1.2008)
(-0.0207094 0.0207101 1.2008)
(-0.0620849 0.0204954 1.20331)
(-0.103029 0.0200488 1.20625)
(-0.142381 0.019361 1.20465)
(-0.177165 0.0184796 1.18921)
(0.177167 -0.0184807 1.18921)
(0.142383 -0.019362 1.20465)
(0.103031 -0.0200498 1.20625)
(0.0620874 -0.0204964 1.20331)
(0.0207119 -0.0207111 1.2008)
(-0.0207094 -0.0207111 1.2008)
(-0.0620849 -0.0204964 1.20331)
(-0.103029 -0.0200498 1.20625)
(-0.142381 -0.019362 1.20465)
(-0.177165 -0.0184807 1.18921)
(0.174338 -0.0549326 1.18522)
(0.140369 -0.0577453 1.20344)
(0.101734 -0.0599535 1.20696)
(0.0613933 -0.0613925 1.20524)
(0.0204972 -0.0620866 1.20331)
(-0.0204947 -0.0620866 1.20331)
(-0.0613908 -0.0613925 1.20524)
(-0.101732 -0.0599535 1.20696)
(-0.140367 -0.0577453 1.20344)
(-0.174336 -0.0549327 1.18522)
(0.16869 -0.0896824 1.17581)
(0.13626 -0.0949526 1.19911)
(0.0990591 -0.0990584 1.20625)
(0.0599543 -0.101733 1.20696)
(0.0200506 -0.10303 1.20625)
(-0.020048 -0.10303 1.20625)
(-0.0599517 -0.101733 1.20696)
(-0.0990567 -0.0990584 1.20625)
(-0.136257 -0.0949527 1.19911)
(-0.168689 -0.0896826 1.17581)
(0.159742 -0.121741 1.15799)
(0.129922 -0.129921 1.18715)
(0.0949534 -0.136259 1.19911)
(0.0577461 -0.140368 1.20344)
(0.0193628 -0.142383 1.20465)
(-0.0193601 -0.142383 1.20465)
(-0.0577435 -0.140368 1.20344)
(-0.0949509 -0.136259 1.19911)
(-0.129919 -0.129921 1.18715)
(-0.159741 -0.121742 1.15799)
(0.148204 -0.148203 1.126)
(0.121742 -0.159742 1.15799)
(0.0896833 -0.16869 1.17581)
(0.0549335 -0.174338 1.18522)
(0.0184816 -0.177167 1.18921)
(-0.0184787 -0.177167 1.18921)
(-0.0549307 -0.174338 1.18522)
(-0.0896807 -0.16869 1.17581)
(-0.12174 -0.159742 1.15799)
(-0.148202 -0.148204 1.126)
(0.0508877 0.0508802 1.26779)
(0.0454929 0.0604792 1.35152)
(0.0364115 0.0683802 1.40592)
(0.0233743 0.0742036 1.43821)
(0.00804795 0.0772036 1.45314)
(-0.00803554 0.0772038 1.45314)
(-0.0233622 0.0742044 1.43821)
(-0.0364002 0.0683815 1.40592)
(-0.0454827 0.0604812 1.35153)
(-0.0508794 0.0508826 1.2678)
(0.0604859 0.0454845 1.35152)
(0.0552655 0.0552582 1.44013)
(0.0441364 0.0630669 1.48894)
(0.0282312 0.0685323 1.51468)
(0.00968958 0.0713436 1.52576)
(-0.00967839 0.0713438 1.52576)
(-0.0282203 0.0685328 1.51468)
(-0.0441262 0.0630678 1.48894)
(-0.0552563 0.0552595 1.44014)
(-0.0604783 0.0454864 1.35153)
(0.0683859 0.0364028 1.40592)
(0.0630734 0.0441288 1.48894)
(0.0501845 0.0501776 1.53198)
(0.031993 0.0543458 1.553)
(0.0109572 0.0564896 1.56141)
(-0.0109469 0.0564897 1.56142)
(-0.0319829 0.0543461 1.553)
(-0.0501751 0.0501781 1.53198)
(-0.063065 0.0441296 1.48894)
(-0.068379 0.036404 1.40592)
(0.0742087 0.0233655 1.43821)
(0.0685382 0.0282234 1.51468)
(0.0543522 0.0319858 1.553)
(0.0345593 0.0345526 1.57058)
(0.0118209 0.0358731 1.57707)
(-0.0118112 0.0358731 1.57707)
(-0.0345497 0.0345527 1.57058)
(-0.0543433 0.0319861 1.553)
(-0.0685302 0.0282238 1.51468)
(-0.0742021 0.0233661 1.43822)
(0.0772081 0.00803929 1.45313)
(0.0713491 0.00968182 1.52575)
(0.0564957 0.01095 1.56141)
(0.0358795 0.0118142 1.57707)
(0.0122671 0.0122605 1.58252)
(-0.0122576 0.0122605 1.58252)
(-0.0358703 0.0118142 1.57707)
(-0.056487 0.01095 1.56142)
(-0.0713414 0.00968187 1.52576)
(-0.0772017 0.0080394 1.45314)
(0.077208 -0.00804384 1.45313)
(0.0713491 -0.00968591 1.52575)
(0.0564956 -0.0109539 1.56141)
(0.0358795 -0.0118179 1.57707)
(0.0122671 -0.0122642 1.58252)
(-0.0122576 -0.0122642 1.58252)
(-0.0358703 -0.011818 1.57707)
(-0.0564869 -0.010954 1.56142)
(-0.0713413 -0.00968618 1.52576)
(-0.0772016 -0.00804423 1.45314)
(0.0742083 -0.0233699 1.43821)
(0.068538 -0.0282274 1.51468)
(0.054352 -0.0319896 1.553)
(0.0345591 -0.0345561 1.57058)
(0.0118209 -0.0358766 1.57707)
(-0.0118112 -0.0358767 1.57707)
(-0.0345497 -0.0345564 1.57058)
(-0.0543432 -0.0319899 1.553)
(-0.06853 -0.028228 1.51468)
(-0.0742017 -0.0233708 1.43821)
(0.0683854 -0.036407 1.40592)
(0.063073 -0.0441325 1.48894)
(0.0501842 -0.0501811 1.53198)
(0.0319927 -0.0543492 1.553)
(0.0109571 -0.0564929 1.56141)
(-0.0109469 -0.056493 1.56141)
(-0.0319828 -0.0543496 1.553)
(-0.0501749 -0.0501818 1.53198)
(-0.0630646 -0.0441336 1.48894)
(-0.0683784 -0.0364085 1.40592)
(0.060485 -0.0454883 1.35152)
(0.0552648 -0.0552616 1.44013)
(0.0441359 -0.0630701 1.48894)
(0.0282309 -0.0685353 1.51468)
(0.00968938 -0.0713466 1.52575)
(-0.00967845 -0.0713468 1.52575)
(-0.0282202 -0.068536 1.51468)
(-0.0441259 -0.0630711 1.48894)
(-0.0552558 -0.0552631 1.44014)
(-0.0604775 -0.0454904 1.35152)
(0.0508865 -0.0508833 1.26779)
(0.0454919 -0.060482 1.35152)
(0.0364108 -0.0683828 1.40592)
(0.0233738 -0.074206 1.43821)
(0.00804767 -0.077206 1.45313)
(-0.00803561 -0.0772063 1.45314)
(-0.0233621 -0.0742069 1.43821)
(-0.0363998 -0.0683843 1.40592)
(-0.045482 -0.0604842 1.35152)
(-0.0508784 -0.0508859 1.26779)
(0.0294487 0.0294312 1.13915)
(0.0273787 0.0362516 1.26399)
(0.0223967 0.0419268 1.35454)
(0.0146632 0.0461045 1.41276)
(0.00511092 0.0482962 1.44102)
(-0.00508249 0.0482969 1.44102)
(-0.0146356 0.0461067 1.41277)
(-0.022371 0.0419304 1.35456)
(-0.0273557 0.0362567 1.26402)
(-0.02943 0.0294374 1.13918)
(0.0362669 0.0273591 1.26399)
(0.0342771 0.0342601 1.41081)
(0.0281383 0.03994 1.50483)
(0.0184017 0.0439972 1.56049)
(0.00639656 0.0461047 1.58631)
(-0.00637141 0.0461052 1.58631)
(-0.0183773 0.0439987 1.5605)
(-0.0281154 0.0399425 1.50485)
(-0.0342566 0.0342638 1.41083)
(-0.0362502 0.027364 1.26402)
(0.0419399 0.0223765 1.35453)
(0.0399549 0.0281206 1.50483)
(0.0327581 0.0327423 1.59723)
(0.0213616 0.035951 1.64978)
(0.00741031 0.0375988 1.67351)
(-0.00738745 0.0375991 1.67351)
(-0.0213394 0.0359518 1.64979)
(-0.0327373 0.0327438 1.59724)
(-0.0399363 0.0281229 1.50485)
(-0.0419249 0.0223797 1.35456)
(0.0461158 0.0146427 1.41275)
(0.0440105 0.0183837 1.56049)
(0.0359654 0.0213454 1.64978)
(0.023388 0.023373 1.69966)
(0.00810385 0.0244092 1.72196)
(-0.00808242 0.0244094 1.72196)
(-0.0233672 0.0233734 1.69967)
(-0.0359459 0.0213461 1.64979)
(-0.0439932 0.0183849 1.5605)
(-0.0461018 0.0146444 1.41277)
(0.0483061 0.00509081 1.44101)
(0.0461168 0.00637874 1.5863)
(0.0376124 0.00739406 1.67351)
(0.0244236 0.0080886 1.72196)
(0.00845966 0.00844493 1.74358)
(-0.00843894 0.00844495 1.74358)
(-0.0244035 0.00808867 1.72196)
(-0.0375936 0.00739419 1.67352)
(-0.0461001 0.00637895 1.58631)
(-0.0482926 0.00509112 1.44103)
(0.0483057 -0.00510165 1.441)
(0.0461165 -0.0063886 1.5863)
(0.0376122 -0.0074033 1.67351)
(0.0244235 -0.00809745 1.72196)
(0.00845962 -0.0084536 1.74358)
(-0.00843894 -0.00845367 1.74358)
(-0.0244034 -0.00809767 1.72196)
(-0.0375934 -0.00740371 1.67352)
(-0.0460999 -0.00638928 1.58631)
(-0.0482923 -0.00510267 1.44103)
(0.0461148 -0.0146532 1.41275)
(0.0440097 -0.0183933 1.56048)
(0.0359649 -0.0213543 1.64977)
(0.0233877 -0.0233816 1.69966)
(0.00810372 -0.0244176 1.72196)
(-0.00808242 -0.0244178 1.72196)
(-0.0233671 -0.0233821 1.69967)
(-0.0359456 -0.0213553 1.64978)
(-0.0439925 -0.0183949 1.5605)
(-0.0461008 -0.0146556 1.41277)
(0.0419382 -0.0223863 1.35453)
(0.0399536 -0.0281295 1.50482)
(0.0327572 -0.0327507 1.59723)
(0.0213611 -0.035959 1.64977)
(0.00741006 -0.0376067 1.67351)
(-0.00738745 -0.037607 1.67351)
(-0.0213391 -0.03596 1.64978)
(-0.0327367 -0.0327525 1.59724)
(-0.0399352 -0.0281322 1.50484)
(-0.0419233 -0.0223901 1.35455)
(0.0362645 -0.0273679 1.26398)
(0.0342753 -0.0342681 1.4108)
(0.028137 -0.0399474 1.50482)
(0.0184009 -0.0440042 1.56049)
(0.00639615 -0.0461115 1.5863)
(-0.00637144 -0.0461121 1.5863)
(-0.0183769 -0.0440059 1.56049)
(-0.0281145 -0.0399502 1.50484)
(-0.0342551 -0.0342722 1.41082)
(-0.036248 -0.0273734 1.26401)
(0.0294458 -0.0294384 1.13914)
(0.0273763 -0.036258 1.26398)
(0.0223949 -0.0419327 1.35453)
(0.014662 -0.04611 1.41275)
(0.00511029 -0.0483016 1.44101)
(-0.00508254 -0.0483024 1.44101)
(-0.0146351 -0.0461124 1.41276)
(-0.0223698 -0.0419366 1.35455)
(-0.0273537 -0.0362635 1.26401)
(-0.0294274 -0.029445 1.13917)
(0.00590939 0.0058732 1.15248)
(0.00669405 0.008216 1.28428)
(0.00623867 0.0105392 1.38419)
(0.00439533 0.0124068 1.45073)
(0.00159852 0.0134287 1.48379)
(-0.00154048 0.0134303 1.4838)
(-0.00433912 0.0124118 1.45076)
(-0.00618624 0.0105474 1.38423)
(-0.00664705 0.00822754 1.28434)
(-0.00587131 0.00588713 1.15255)
(0.00824741 0.00665366 1.28427)
(0.00976841 0.00973373 1.4458)
(0.00911649 0.0125444 1.55604)
(0.00638327 0.014665 1.62466)
(0.00229892 0.0157906 1.65751)
(-0.00224806 0.0157918 1.65751)
(-0.00633395 0.0146685 1.62468)
(-0.00907038 0.0125503 1.55607)
(-0.00972712 0.00974213 1.44586)
(-0.00821382 0.00666469 1.28434)
(0.0105654 0.00619713 1.38417)
(0.0125743 0.00908065 1.55603)
(0.0116115 0.0115799 1.66971)
(0.00805217 0.0133733 1.73809)
(0.0028782 0.0142831 1.77003)
(-0.00283237 0.0142837 1.77003)
(-0.00800771 0.0133753 1.73811)
(-0.01157 0.0115834 1.66974)
(-0.0125375 0.00908588 1.55607)
(-0.0105358 0.00620439 1.38424)
(0.0124292 0.00435348 1.45071)
(0.0146914 0.00634698 1.62465)
(0.0134019 0.00801981 1.73808)
(0.00919292 0.00916312 1.80488)
(0.00326174 0.00969042 1.83542)
(-0.00321905 0.00969068 1.83543)
(-0.00915147 0.00916404 1.8049)
(-0.0133632 0.00802151 1.73811)
(-0.0146573 0.00634965 1.62469)
(-0.0124019 0.00435741 1.45077)
(0.0134479 0.00155758 1.48375)
(0.0158144 0.00226309 1.65748)
(0.0143098 0.00284589 1.77001)
(0.00971879 0.00323164 1.83542)
(0.00342564 0.00339664 1.86469)
(-0.00338448 0.00339667 1.86469)
(-0.00967876 0.00323177 1.83543)
(-0.0142725 0.00284617 1.77004)
(-0.0157816 0.00226357 1.65752)
(-0.0134217 0.00155838 1.48381)
(0.0134472 -0.00157934 1.48375)
(0.0158139 -0.00228246 1.65748)
(0.0143095 -0.00286376 1.77001)
(0.00971861 -0.00324865 1.83542)
(0.00342555 -0.00341331 1.86469)
(-0.00338448 -0.00341348 1.86469)
(-0.00967867 -0.00324919 1.83543)
(-0.0142722 -0.00286476 1.77004)
(-0.0157811 -0.00228401 1.65752)
(-0.013421 -0.00158152 1.48381)
(0.0124271 -0.00437455 1.4507)
(0.0146898 -0.00636577 1.62464)
(0.0134009 -0.00803713 1.73808)
(0.00919233 -0.00917962 1.80488)
(0.00326146 -0.0097066 1.83542)
(-0.00321905 -0.009707 1.83542)
(-0.00915113 -0.00918094 1.80489)
(-0.0133624 -0.00803954 1.7381)
(-0.0146558 -0.00636946 1.62468)
(-0.0123998 -0.00437982 1.45076)
(0.0105621 -0.0062168 1.38416)
(0.0125717 -0.00909822 1.55601)
(0.0116098 -0.0115961 1.66969)
(0.0080511 -0.0133886 1.73808)
(0.00287768 -0.0142981 1.77002)
(-0.00283237 -0.0142989 1.77002)
(-0.00800711 -0.013391 1.7381)
(-0.0115686 -0.0116003 1.66972)
(-0.0125351 -0.00910439 1.55606)
(-0.0105325 -0.00622528 1.38422)
(0.00824262 -0.00667132 1.28425)
(0.00976469 -0.00974944 1.44578)
(0.00911391 -0.0125587 1.55602)
(0.00638163 -0.0146785 1.62464)
(0.0022981 -0.0158037 1.65749)
(-0.00224807 -0.015805 1.6575)
(-0.00633305 -0.0146823 1.62466)
(-0.0090684 -0.0125651 1.55605)
(-0.00972379 -0.00975869 1.44583)
(-0.00820917 -0.00668341 1.28432)
(0.00590361 -0.00588753 1.15245)
(0.00668921 -0.00822872 1.28425)
(0.00623515 -0.0105505 1.38416)
(0.00439299 -0.0124173 1.45071)
(0.00159736 -0.0134389 1.48376)
(-0.00154046 -0.0134406 1.48377)
(-0.00433782 -0.0124226 1.45073)
(-0.00618355 -0.0105592 1.3842)
(-0.00664279 -0.00824093 1.28431)
(-0.00586583 -0.00590225 1.15252)
(0.00547439 0.00540751 1.11566)
(0.0052912 0.00682103 1.2531)
(0.004487 0.0080813 1.35939)
(0.00303524 0.00904401 1.43138)
(0.00110481 0.00956234 1.46754)
(-0.00100028 0.00956545 1.46756)
(-0.00293397 0.00905345 1.43144)
(-0.00439244 0.00809666 1.35949)
(-0.00520618 0.00684269 1.25323)
(-0.0054052 0.0054337 1.11584)
(0.00687911 0.00521642 1.25308)
(0.00683905 0.00677498 1.42456)
(0.00589076 0.00819144 1.545)
(0.00399904 0.00925834 1.62184)
(0.00144085 0.00981867 1.65921)
(-0.00134939 0.00982088 1.65922)
(-0.00391033 0.00926507 1.62188)
(-0.00580774 0.0082028 1.54509)
(-0.00676447 0.00679132 1.42468)
(-0.00681811 0.00523792 1.25324)
(0.00812972 0.00441014 1.35936)
(0.00824633 0.00582467 1.54499)
(0.00714621 0.00708837 1.67213)
(0.00483663 0.00799926 1.75082)
(0.00172716 0.00844563 1.78823)
(-0.0016451 0.00844692 1.78824)
(-0.004757 0.00800331 1.75086)
(-0.00707179 0.00709548 1.6722)
(-0.00818012 0.00583527 1.54509)
(-0.00807626 0.00442493 1.3595)
(0.00908516 0.00295785 1.43132)
(0.00930638 0.00393219 1.6218)
(0.0080513 0.00477741 1.75081)
(0.00539929 0.0053451 1.82889)
(0.00190844 0.00556304 1.86497)
(-0.00183224 0.0055636 1.86498)
(-0.00532528 0.0053471 1.82893)
(-0.00798227 0.00478115 1.75087)
(-0.00924542 0.00393807 1.6219)
(-0.00903614 0.00296656 1.43146)
(0.00959745 0.00102917 1.46746)
(0.00986179 0.0013749 1.65915)
(0.00849403 0.0016681 1.78819)
(0.00561449 0.00185372 1.86495)
(0.00195948 0.00190692 1.89882)
(-0.00188607 0.00190705 1.89883)
(-0.00554303 0.00185423 1.86498)
(-0.00842748 0.00166913 1.78825)
(-0.00980334 0.00137667 1.65924)
(-0.00955068 0.00103201 1.46759)
(0.00959614 -0.00107201 1.46746)
(0.00986087 -0.00141265 1.65914)
(0.00849348 -0.00170245 1.78819)
(0.00561425 -0.00188605 1.86495)
(0.0019594 -0.00193836 1.89881)
(-0.00188601 -0.00193858 1.89882)
(-0.0055428 -0.00188683 1.86498)
(-0.00842695 -0.00170386 1.78825)
(-0.00980241 -0.00141475 1.65924)
(-0.00954938 -0.00107481 1.46759)
(0.00908119 -0.00299932 1.4313)
(0.00930355 -0.00396874 1.62178)
(0.00804958 -0.00481068 1.75079)
(0.00539841 -0.00537643 1.82888)
(0.00190815 -0.00559358 1.86495)
(-0.00183203 -0.00559422 1.86496)
(-0.00532447 -0.0053787 1.82891)
(-0.0079806 -0.0048148 1.75085)
(-0.00924263 -0.00397495 1.62188)
(-0.00903225 -0.00300795 1.43143)
(0.00812325 -0.00444879 1.35932)
(0.00824157 -0.00585877 1.54496)
(0.00714319 -0.00711934 1.6721)
(0.00483497 -0.00802835 1.7508)
(0.00172657 -0.00847393 1.7882)
(-0.00164473 -0.00847531 1.78821)
(-0.00475553 -0.00803267 1.75083)
(-0.00706893 -0.00712682 1.67217)
(-0.00817549 -0.00586968 1.54506)
(-0.00806999 -0.00446346 1.35946)
(0.00687001 -0.00525106 1.25303)
(0.00683224 -0.00680544 1.42452)
(0.00588629 -0.00821876 1.54496)
(0.00399643 -0.00928378 1.6218)
(0.00143985 -0.00984329 1.65917)
(-0.00134888 -0.0098456 1.65918)
(-0.00390817 -0.00929079 1.62184)
(-0.00580366 -0.00823049 1.54504)
(-0.00675804 -0.00682204 1.42463)
(-0.00680944 -0.00527236 1.25318)
(0.00546345 -0.00543548 1.1156)
(0.00528234 -0.00684558 1.25304)
(0.00448084 -0.00810293 1.35934)
(0.00303144 -0.00906402 1.43132)
(0.00110328 -0.00958159 1.46749)
(-0.000999613 -0.00958482 1.46751)
(-0.00293098 -0.00907374 1.43138)
(-0.00438701 -0.00811868 1.35943)
(-0.00519804 -0.00686754 1.25317)
(-0.00539509 -0.00546147 1.11577)
(0.000870168 0.000755303 1.12188)
(0.00109646 0.00114833 1.25971)
(0.00110473 0.00158103 1.36706)
(0.00083623 0.00195099 1.44026)
(0.000362074 0.00216229 1.47723)
(-0.000189582 0.00216778 1.47726)
(-0.000669072 0.00196758 1.44037)
(-0.000948591 0.00160804 1.36725)
(-0.000955982 0.00118634 1.25997)
(-0.0007557 0.00080105 1.12221)
(0.00124811 0.00096801 1.25968)
(0.00166247 0.00155255 1.43264)
(0.00167574 0.00213991 1.55555)
(0.00124773 0.00261612 1.63483)
(0.000504409 0.00287981 1.67369)
(-0.000352499 0.00288386 1.67372)
(-0.00110039 0.00262844 1.63492)
(-0.00153783 0.00216064 1.55571)
(-0.00153854 0.00158224 1.43287)
(-0.0011466 0.0010068 1.25998)
(0.00166395 0.000972862 1.367)
(0.00223369 0.00156255 1.55551)
(0.00223113 0.00213255 1.68665)
(0.00163937 0.00257949 1.76897)
(0.000639365 0.00281648 1.80846)
(-0.000502613 0.002819 1.80848)
(-0.00150673 0.00258731 1.76905)
(-0.00210721 0.00214616 1.68679)
(-0.00212341 0.00158273 1.55572)
(-0.00157488 0.00100075 1.36728)
(0.00202111 0.000703672 1.44016)
(0.0026977 0.00113347 1.63476)
(0.00266766 0.00153862 1.76894)
(0.00193503 0.00184329 1.85138)
(0.00073842 0.00198009 1.88974)
(-0.000611268 0.00198136 1.88977)
(-0.00181169 0.00184754 1.85145)
(-0.00255271 0.00154637 1.76906)
(-0.00259621 0.00114556 1.63495)
(-0.00193951 0.000721373 1.44042)
(0.00222172 0.00023278 1.47707)
(0.00295251 0.000391947 1.67358)
(0.00289797 0.000539057 1.80839)
(0.00206676 0.000645859 1.88971)
(0.000773673 0.000685031 1.92555)
(-0.000651074 0.000685469 1.92557)
(-0.00194769 0.000647348 1.88978)
(-0.00278725 0.000541932 1.80851)
(-0.00285532 0.000396781 1.67376)
(-0.00214404 0.000240413 1.47732)
(0.00221929 -0.000311985 1.47706)
(0.0029508 -0.000460136 1.67357)
(0.00289695 -0.000599774 1.80838)
(0.00206628 -0.000702085 1.88971)
(0.000773503 -0.000739169 1.92554)
(-0.000650963 -0.000739472 1.92556)
(-0.00194726 -0.000703066 1.88977)
(-0.0027863 -0.000601383 1.8085)
(-0.00285372 -0.000462179 1.67375)
(-0.00214181 -0.000314119 1.47731)
(0.00201373 -0.000780497 1.44011)
(0.00269246 -0.00119962 1.63472)
(0.00266447 -0.00159748 1.76891)
(0.00193335 -0.00189778 1.85135)
(0.000737833 -0.00203261 1.88972)
(-0.000610907 -0.00203374 1.88974)
(-0.00181024 -0.00190151 1.85142)
(-0.00254979 -0.00160395 1.76903)
(-0.00259139 -0.00120888 1.63491)
(-0.00193282 -0.00079267 1.44037)
(0.00165184 -0.00104477 1.36693)
(0.00222479 -0.00162452 1.55545)
(0.0022255 -0.00218751 1.68659)
(0.00163625 -0.00263018 1.76892)
(0.000638194 -0.0028652 1.80841)
(-0.000502029 -0.00286757 1.80843)
(-0.00150421 -0.00263745 1.769)
(-0.00210228 -0.00219976 1.68673)
(-0.00211548 -0.00164179 1.55565)
(-0.00156412 -0.00106709 1.3672)
(0.0012308 -0.00103292 1.25958)
(0.0016495 -0.00160833 1.43255)
(0.00166721 -0.00218876 1.55546)
(0.0012427 -0.00266072 1.63475)
(0.000502345 -0.00292236 1.67361)
(-0.000351813 -0.00292625 1.67364)
(-0.00109678 -0.00267241 1.63484)
(-0.00153087 -0.00220799 1.55562)
(-0.00152753 -0.00163493 1.43277)
(-0.00113177 -0.00106605 1.25987)
(0.000848837 -0.000808281 1.12175)
(0.00107908 -0.0011939 1.25959)
(0.00109257 -0.00162024 1.36695)
(0.000828588 -0.00198653 1.44016)
(0.000358676 -0.00219594 1.47712)
(-0.000188953 -0.00220125 1.47716)
(-0.000664281 -0.00200244 1.44027)
(-0.000939499 -0.00164576 1.36713)
(-0.000942156 -0.00122892 1.25985)
(-0.000738447 -0.000848737 1.12207)
(0.00138683 0.00120662 1.11308)
(0.00133417 0.00152934 1.25228)
(0.00113997 0.00181498 1.36106)
(0.000807203 0.00203264 1.43543)
(0.000369613 0.00215373 1.47308)
(-0.000108564 0.00216226 1.47314)
(-0.00055428 0.00205835 1.43563)
(-0.00090383 0.00185666 1.36138)
(-0.00112193 0.00158746 1.25273)
(-0.00121414 0.00127544 1.11365)
(0.00168767 0.00113163 1.25222)
(0.00164875 0.00147388 1.42739)
(0.00142037 0.00178614 1.55244)
(0.000995743 0.00202619 1.63344)
(0.000427087 0.00215712 1.67327)
(-0.000194478 0.0021636 1.67333)
(-0.000770164 0.00204586 1.63361)
(-0.00120928 0.00181905 1.55272)
(-0.00145916 0.00152051 1.42779)
(-0.00153234 0.00119153 1.25275)
(0.00194729 0.000931649 1.36094)
(0.00193586 0.00124013 1.55238)
(0.00167978 0.00152244 1.68634)
(0.00116955 0.00173568 1.7709)
(0.000480784 0.00184677 1.81163)
(-0.000270049 0.00185096 1.81167)
(-0.000965152 0.00174862 1.77104)
(-0.00148882 0.0015448 1.68659)
(-0.00176591 0.00127286 1.55275)
(-0.00180988 0.00097594 1.36143)
(0.00214466 0.000597768 1.43524)
(0.00215634 0.000813878 1.63331)
(0.00187616 0.0010089 1.77084)
(0.00129619 0.00115021 1.85588)
(0.000518481 0.0012114 1.89562)
(-0.000322142 0.00121366 1.89566)
(-0.00110572 0.00115764 1.856)
(-0.00169861 0.0010223 1.77107)
(-0.00199951 0.000834402 1.63366)
(-0.00201842 0.000627011 1.43571)
(0.00224843 0.000165464 1.4728)
(0.00227263 0.000248252 1.67307)
(0.00197605 0.000321027 1.81151)
(0.00134877 0.000371339 1.89557)
(0.000528741 0.000388286 1.93271)
(-0.000339599 0.000389226 1.93275)
(-0.0011651 0.0003744 1.89568)
(-0.00180522 0.000326786 1.81172)
(-0.00212266 0.000257598 1.6734)
(-0.00212848 0.000179534 1.47325)
(0.00224386 -0.000301719 1.47277)
(0.00226925 -0.000365494 1.67305)
(0.00197389 -0.000424658 1.81149)
(0.00134756 -0.000466425 1.89555)
(0.000528127 -0.000479149 1.9327)
(-0.000339683 -0.000479426 1.93273)
(-0.00116461 -0.000467295 1.89567)
(-0.00180385 -0.000425965 1.8117)
(-0.00212018 -0.000366791 1.67338)
(-0.0021249 -0.000302414 1.47322)
(0.00213076 -0.000730163 1.43515)
(0.00214599 -0.000927816 1.63324)
(0.00186942 -0.00110954 1.77078)
(0.00129219 -0.0012425 1.85582)
(0.000516479 -0.00129961 1.89557)
(-0.000322411 -0.0013012 1.89561)
(-0.00110406 -0.00124767 1.85595)
(-0.00169441 -0.00111835 1.771)
(-0.00199206 -0.000940104 1.63358)
(-0.00200772 -0.000745818 1.43562)
(0.00192438 -0.00105601 1.36079)
(0.00191817 -0.00134727 1.55225)
(0.00166784 -0.00161675 1.68623)
(0.00116211 -0.0018218 1.7708)
(0.000476928 -0.0019288 1.81153)
(-0.000270705 -0.00193226 1.81158)
(-0.000962354 -0.00183231 1.77094)
(-0.00148184 -0.0016342 1.68648)
(-0.00175378 -0.00137135 1.55262)
(-0.00179284 -0.00108634 1.36129)
(0.00165484 -0.00124457 1.25202)
(0.00162283 -0.00157097 1.42721)
(0.00140215 -0.00187057 1.55228)
(0.000983786 -0.00210245 1.63329)
(0.000420539 -0.00222912 1.67313)
(-0.000196022 -0.00223475 1.67318)
(-0.000766477 -0.00211932 1.63346)
(-0.00119972 -0.00189798 1.55256)
(-0.00144264 -0.0016082 1.42761)
(-0.00150915 -0.00128986 1.25255)
(0.00134629 -0.00129954 1.11283)
(0.0012993 -0.00160956 1.25205)
(0.00111393 -0.00188358 1.36084)
(0.000789114 -0.0020941 1.43523)
(0.000359174 -0.00221115 1.47288)
(-0.000111713 -0.00221872 1.47295)
(-0.000549966 -0.00211668 1.43543)
(-0.000891888 -0.00191944 1.36117)
(-0.00110171 -0.00165804 1.2525)
(-0.00118775 -0.00135413 1.1134)
(0.000309954 6.04698e-05 1.1149)
(0.000383718 0.000158465 1.25421)
(0.000397049 0.000270779 1.36324)
(0.000344734 0.000367499 1.43789)
(0.000242161 0.000427885 1.47572)
(0.000117634 0.000439599 1.47582)
(3.30487e-06 0.000402558 1.4382)
(-7.32603e-05 0.000326886 1.36376)
(-9.45443e-05 0.000235059 1.25494)
(-7.67178e-05 0.000147957 1.11582)
(0.000382626 0.000100551 1.25412)
(0.000494866 0.000245009 1.42962)
(0.000507759 0.000390039 1.55519)
(0.000419709 0.000509201 1.63671)
(0.000258565 0.0005796 1.67686)
(6.81202e-05 0.000588743 1.67695)
(-0.000103319 0.000536661 1.63698)
(-0.000212571 0.000435147 1.55566)
(-0.000231221 0.000307145 1.43028)
(-0.000168265 0.000177211 1.25498)
(0.000460946 0.000104063 1.36303)
(0.000606938 0.000248814 1.55509)
(0.000616965 0.000388083 1.68987)
(0.000493944 0.000499941 1.77519)
(0.000276451 0.000563684 1.81637)
(2.28432e-05 0.000569721 1.81645)
(-0.000203985 0.00051834 1.77543)
(-0.000346709 0.000419075 1.69029)
(-0.000367457 0.000292573 1.5557)
(-0.000268483 0.000160426 1.36384)
(0.000529927 4.95144e-05 1.43756)
(0.000698952 0.000157993 1.63649)
(0.000705261 0.000260019 1.77509)
(0.00055349 0.00034005 1.86106)
(0.000291276 0.000381113 1.90134)
(-1.12966e-05 0.000384453 1.90141)
(-0.000282181 0.000350682 1.86128)
(-0.000452827 0.000278536 1.77547)
(-0.000476675 0.000185042 1.63706)
(-0.000351787 8.57367e-05 1.43833)
(0.000565719 -4.55521e-05 1.47525)
(0.000747965 1.3567e-06 1.67653)
(0.000752285 4.40177e-05 1.81616)
(0.000581597 7.6267e-05 1.90125)
(0.000295792 9.07624e-05 1.93894)
(-2.65929e-05 9.2145e-05 1.93899)
(-0.000320537 8.05447e-05 1.90145)
(-0.000509869 5.15978e-05 1.81653)
(-0.000535644 1.27827e-05 1.67708)
(-0.000396349 -2.99147e-05 1.476)
(0.000558175 -0.000154169 1.4752)
(0.000741823 -0.000177441 1.67648)
(0.000747879 -0.000201723 1.81613)
(0.000578643 -0.000221827 1.90122)
(0.000293867 -0.000230143 1.93891)
(-2.75468e-05 -0.000230606 1.93897)
(-0.000320466 -0.000223313 1.90142)
(-0.000508334 -0.000204258 1.81649)
(-0.000532324 -0.000180837 1.67703)
(-0.000391265 -0.000158441 1.47595)
(0.000507075 -0.000243731 1.43741)
(0.000680225 -0.000329313 1.63636)
(0.00069162 -0.000413371 1.77498)
(0.00054406 -0.000481453 1.86097)
(0.000285205 -0.000516462 1.90126)
(-1.43113e-05 -0.00051881 1.90132)
(-0.000281833 -0.000489 1.86118)
(-0.00044822 -0.000426288 1.77536)
(-0.000466811 -0.000347566 1.63693)
(-0.000336664 -0.000267633 1.43818)
(0.000423411 -0.000286761 1.36278)
(0.000575198 -0.000410269 1.55487)
(0.000593176 -0.000532193 1.68968)
(0.000476987 -0.000632265 1.77502)
(0.000265375 -0.000689795 1.81621)
(1.72697e-05 -0.000694614 1.81628)
(-0.000203617 -0.000646869 1.77525)
(-0.000339331 -0.000556397 1.69009)
(-0.000351684 -0.000443669 1.55548)
(-0.000244675 -0.000329009 1.36359)
(0.00032944 -0.00026683 1.25377)
(0.000449097 -0.000391806 1.42931)
(0.000472388 -0.000519633 1.55491)
(0.000393622 -0.000626932 1.63645)
(0.000241132 -0.00069069 1.67661)
(5.90723e-05 -0.000698218 1.6767)
(-0.000103504 -0.000649398 1.63671)
(-0.000202941 -0.000556047 1.55537)
(-0.000210231 -0.000441104 1.42997)
(-0.000136331 -0.000326651 1.25463)
(0.000245405 -0.000197978 1.11447)
(0.000323719 -0.000280749 1.25381)
(0.000348353 -0.000377041 1.36286)
(0.000307375 -0.00046322 1.43753)
(0.000216646 -0.000517099 1.47537)
(0.000103973 -0.000526782 1.47548)
(2.03116e-06 -0.000492046 1.43784)
(-6.18284e-05 -0.000422684 1.36338)
(-6.95385e-05 -0.000342229 1.25453)
(-4.12615e-05 -0.000266782 1.11538)
(0.000492777 0.000200095 1.11257)
(0.00050602 0.000285834 1.25227)
(0.000469761 0.000369778 1.3617)
(0.000393497 0.000436132 1.43669)
(0.000284571 0.000478925 1.47473)
(0.000159086 0.000492379 1.47489)
(3.42069e-05 0.000475874 1.43717)
(-7.47429e-05 0.00043169 1.3625)
(-0.000157692 0.000366814 1.25338)
(-0.000216576 0.000285728 1.11396)
(0.000560726 0.000167406 1.25212)
(0.000571639 0.000259882 1.42823)
(0.000524969 0.000347494 1.55437)
(0.000425655 0.00041712 1.63634)
(0.000286347 0.000459561 1.67677)
(0.000128651 0.000470127 1.67691)
(-2.48263e-05 0.000448315 1.63676)
(-0.000153254 0.00039697 1.55509)
(-0.0002433 0.000324364 1.42924)
(-0.000297649 0.000240673 1.25343)
(0.000610838 0.00011472 1.36137)
(0.000626575 0.0001977 1.55421)
(0.000572796 0.00027517 1.68971)
(0.000453287 0.000335415 1.77559)
(0.000286747 0.000370026 1.8171)
(0.000100405 0.000376903 1.81722)
(-7.89943e-05 0.000355907 1.77596)
(-0.000225535 0.000308118 1.69035)
(-0.00032142 0.000240923 1.55514)
(-0.000368274 0.000164724 1.36261)
(0.00064704 3.33796e-05 1.43616)
(0.000666193 9.28828e-05 1.636)
(0.000606867 0.000147642 1.77543)
(0.000471853 0.000188775 1.86205)
(0.000285485 0.000209321 1.90268)
(7.94371e-05 0.000212852 1.90279)
(-0.000118731 0.000199666 1.86238)
(-0.000279348 0.000165333 1.77602)
(-0.00037941 0.000115989 1.63688)
(-0.000418878 5.9578e-05 1.43735)
(0.00066114 -6.69973e-05 1.47399)
(0.000682934 -4.12274e-05 1.67623)
(0.000621028 -1.733e-05 1.81677)
(0.000476549 1.0836e-07 1.90253)
(0.000281025 7.61594e-06 1.94058)
(6.945e-05 8.65579e-06 1.94066)
(-0.000136985 2.94987e-06 1.90284)
(-0.000306353 -1.3329e-05 1.81733)
(-0.000408233 -3.7271e-05 1.67709)
(-0.000442704 -6.53396e-05 1.47514)
(0.000651035 -0.000172422 1.47391)
(0.000673737 -0.000183713 1.67617)
(0.000613688 -0.000193128 1.81671)
(0.000471048 -0.000199835 1.90248)
(0.00027702 -0.000201901 1.94054)
(6.69422e-05 -0.000203222 1.94062)
(-0.000137895 -0.000204267 1.90279)
(-0.000305068 -0.000201713 1.81727)
(-0.000404358 -0.000197769 1.67702)
(-0.000436334 -0.000194189 1.47506)
(0.000616736 -0.000265725 1.43594)
(0.000638479 -0.000311451 1.6358)
(0.000584456 -0.00035215 1.77525)
(0.000454665 -0.000382729 1.86189)
(0.000273046 -0.000397942 1.90254)
(7.16422e-05 -0.000401589 1.90264)
(-0.000121338 -0.000394562 1.86222)
(-0.000275541 -0.000373191 1.77584)
(-0.000367979 -0.000342915 1.63667)
(-0.000400014 -0.000309742 1.43709)
(0.000561907 -0.000332304 1.36099)
(0.000580649 -0.000403018 1.55387)
(0.000534794 -0.000467019 1.6894)
(0.000423468 -0.000516794 1.77531)
(0.000264967 -0.000545736 1.81682)
(8.67792e-05 -0.00055225 1.81694)
(-8.35936e-05 -0.000536745 1.77567)
(-0.000219653 -0.000500822 1.69003)
(-0.000303395 -0.000451202 1.55478)
(-0.000338882 -0.000395756 1.36219)
(0.000493684 -0.000363899 1.2516)
(0.000507989 -0.000445356 1.42775)
(0.000471075 -0.000519359 1.55393)
(0.00038236 -0.000578243 1.63592)
(0.0002544 -0.000614283 1.67635)
(0.000108653 -0.000623732 1.67649)
(-3.17673e-05 -0.000606627 1.63632)
(-0.000145779 -0.000566018 1.55461)
(-0.000219587 -0.000509877 1.42872)
(-0.000258622 -0.000444436 1.25285)
(0.000415687 -0.000361651 1.11191)
(0.000427366 -0.000440016 1.25165)
(0.000400524 -0.000510702 1.3611)
(0.000336299 -0.000567284 1.43611)
(0.000242051 -0.000603394 1.47416)
(0.000132601 -0.000614819 1.47432)
(2.51916e-05 -0.000601441 1.43657)