/*--------------------------------*- C++ -*----------------------------------*\
| =========                 |                                                 |
| \\      /  F ield         | OpenFOAM: The Open Source CFD Toolbox           |
|  \\    /   O peration     | Version:  2406                                  |
|   \\  /    A nd           | Website:  www.openfoam.com                      |
|    \\/     M anipulation  |                                                 |
\*---------------------------------------------------------------------------*/
FoamFile
{
    version     2.0;
    format      ascii;
    arch        "LSB;label=32;scalar=64";
    class       volScalarField;
    location    "0.6";
    object      nu;
}
// * * * * * * * * * * * * * * * * * * * * * * * * * * * * * * * * * * * * * //

dimensions      [0 2 -1 0 0 0 0];

internalField   nonuniform List<scalar> 
16000
(
0.00645757
0.00654634
0.00656668
0.00656817
0.00656817
0.00656668
0.00654634
0.00645757
0.00654634
0.00654978
0.0065324
0.0065244
0.0065244
0.0065324
0.00654978
0.00654634
0.00656668
0.0065324
0.00651205
0.00650635
0.00650635
0.00651205
0.0065324
0.00656668
0.00656817
0.0065244
0.00650635
0.00650341
0.00650341
0.00650635
0.0065244
0.00656817
0.00656817
0.0065244
0.00650635
0.00650341
0.00650341
0.00650635
0.0065244
0.00656817
0.00656668
0.0065324
0.00651205
0.00650635
0.00650635
0.00651205
0.0065324
0.00656668
0.00654634
0.00654978
0.0065324
0.0065244
0.0065244
0.0065324
0.00654978
0.00654634
0.00645757
0.00654634
0.00656668
0.00656817
0.00656817
0.00656668
0.00654634
0.00645757
0.00616699
0.00642798
0.00667096
0.00679986
0.00679986
0.00667096
0.00642798
0.00616699
0.00642798
0.00686819
0.00705264
0.00707256
0.00707256
0.00705264
0.00686819
0.00642798
0.00667096
0.00705264
0.00705019
0.00699294
0.00699294
0.00705019
0.00705264
0.00667096
0.00679986
0.00707256
0.00699294
0.00692276
0.00692276
0.00699294
0.00707256
0.00679986
0.00679986
0.00707256
0.00699294
0.00692276
0.00692276
0.00699294
0.00707256
0.00679986
0.00667096
0.00705264
0.00705019
0.00699294
0.00699294
0.00705019
0.00705264
0.00667096
0.00642798
0.00686819
0.00705264
0.00707256
0.00707256
0.00705264
0.00686819
0.00642798
0.00616699
0.00642798
0.00667096
0.00679986
0.00679986
0.00667096
0.00642798
0.00616699
0.0058248
0.00596624
0.00614476
0.00626259
0.00626259
0.00614476
0.00596624
0.0058248
0.00596624
0.0063094
0.00662976
0.0068198
0.0068198
0.00662976
0.0063094
0.00596624
0.00614476
0.00662976
0.00708108
0.00732182
0.00732182
0.00708108
0.00662976
0.00614476
0.00626259
0.0068198
0.00732182
0.00754555
0.00754555
0.00732182
0.0068198
0.00626259
0.00626259
0.0068198
0.00732182
0.00754555
0.00754555
0.00732182
0.0068198
0.00626259
0.00614476
0.00662976
0.00708108
0.00732182
0.00732182
0.00708108
0.00662976
0.00614477
0.00596624
0.0063094
0.00662976
0.0068198
0.0068198
0.00662976
0.0063094
0.00596624
0.0058248
0.00596624
0.00614476
0.00626259
0.00626259
0.00614477
0.00596624
0.0058248
0.0057955
0.00589045
0.00603164
0.00612976
0.00612976
0.00603164
0.00589045
0.0057955
0.00589045
0.00615776
0.00642849
0.00661073
0.00661073
0.0064285
0.00615777
0.00589045
0.00603164
0.00642849
0.00687707
0.00724573
0.00724573
0.00687707
0.0064285
0.00603164
0.00612976
0.00661073
0.00724573
0.00801088
0.00801089
0.00724574
0.00661073
0.00612976
0.00612976
0.00661073
0.00724573
0.00801089
0.00801089
0.00724574
0.00661073
0.00612976
0.00603164
0.0064285
0.00687707
0.00724574
0.00724574
0.00687707
0.0064285
0.00603164
0.00589045
0.00615776
0.0064285
0.00661073
0.00661073
0.0064285
0.00615777
0.00589045
0.0057955
0.00589045
0.00603164
0.00612976
0.00612976
0.00603164
0.00589045
0.0057955
0.00576751
0.0058449
0.00597047
0.00605952
0.00605952
0.00597047
0.0058449
0.00576751
0.0058449
0.00607984
0.0063229
0.00649285
0.00649285
0.0063229
0.00607984
0.0058449
0.00597047
0.0063229
0.00673835
0.0071156
0.00711561
0.00673835
0.0063229
0.00597047
0.00605952
0.00649285
0.0071156
0.00809877
0.00809879
0.00711561
0.00649286
0.00605952
0.00605952
0.00649285
0.00711561
0.00809879
0.00809881
0.00711562
0.00649286
0.00605952
0.00597047
0.0063229
0.00673835
0.00711561
0.00711562
0.00673836
0.00632291
0.00597047
0.0058449
0.00607984
0.0063229
0.00649286
0.00649286
0.00632291
0.00607985
0.0058449
0.00576751
0.0058449
0.00597047
0.00605952
0.00605952
0.00597047
0.0058449
0.00576751
0.00576386
0.0058348
0.00595433
0.00603983
0.00603984
0.00595434
0.0058348
0.00576386
0.0058348
0.006057
0.00628799
0.00645175
0.00645176
0.006288
0.006057
0.0058348
0.00595433
0.00628799
0.00668546
0.0070569
0.00705691
0.00668548
0.006288
0.00595434
0.00603983
0.00645175
0.0070569
0.00807033
0.00807038
0.00705692
0.00645177
0.00603984
0.00603984
0.00645175
0.00705691
0.00807038
0.00807043
0.00705693
0.00645177
0.00603984
0.00595434
0.006288
0.00668548
0.00705692
0.00705693
0.00668549
0.00628801
0.00595434
0.0058348
0.006057
0.006288
0.00645176
0.00645177
0.00628801
0.00605701
0.00583481
0.00576386
0.0058348
0.00595434
0.00603984
0.00603984
0.00595434
0.00583481
0.00576386
0.00575922
0.00582747
0.0059446
0.00602867
0.00602868
0.00594461
0.00582747
0.00575922
0.00582747
0.00604463
0.00627079
0.00643178
0.00643179
0.0062708
0.00604464
0.00582747
0.0059446
0.00627079
0.00666041
0.0070276
0.00702762
0.00666044
0.00627081
0.00594461
0.00602867
0.00643178
0.00702759
0.00804013
0.00804024
0.00702766
0.00643181
0.00602868
0.00602867
0.00643179
0.00702762
0.00804024
0.00804035
0.00702768
0.00643181
0.00602868
0.00594461
0.0062708
0.00666044
0.00702765
0.00702768
0.00666047
0.00627082
0.00594462
0.00582747
0.00604464
0.0062708
0.00643181
0.00643181
0.00627082
0.00604465
0.00582748
0.00575922
0.00582747
0.00594461
0.00602868
0.00602868
0.00594462
0.00582748
0.00575922
0.00575776
0.00582473
0.00594077
0.00602419
0.0060242
0.00594078
0.00582474
0.00575775
0.00582473
0.00603961
0.00626364
0.0064234
0.00642341
0.00626366
0.00603963
0.00582473
0.00594077
0.00626364
0.0066498
0.00701483
0.00701488
0.00664986
0.00626367
0.00594078
0.00602419
0.0064234
0.00701483
0.00802461
0.00802484
0.00701495
0.00642345
0.00602421
0.0060242
0.00642341
0.00701488
0.00802483
0.00802507
0.007015
0.00642347
0.00602422
0.00594078
0.00626366
0.00664985
0.00701495
0.007015
0.00664992
0.0062637
0.00594079
0.00582474
0.00603963
0.00626367
0.00642345
0.00642347
0.0062637
0.00603965
0.00582474
0.00575775
0.00582473
0.00594078
0.00602421
0.00602422
0.00594079
0.00582474
0.00575775
0.00575679
0.00582314
0.00593866
0.00602178
0.00602179
0.00593868
0.00582315
0.00575678
0.00582314
0.00603694
0.00626
0.00641921
0.00641923
0.00626005
0.00603697
0.00582314
0.00593866
0.00626
0.00664459
0.00700861
0.0070087
0.00664471
0.00626007
0.00593868
0.00602178
0.0064192
0.00700861
0.00801659
0.00801703
0.00700883
0.00641931
0.00602182
0.00602179
0.00641923
0.00700869
0.00801701
0.00801745
0.00700892
0.00641933
0.00602183
0.00593868
0.00626005
0.0066447
0.00700883
0.00700891
0.00664482
0.00626012
0.0059387
0.00582315
0.00603697
0.00626007
0.0064193
0.00641933
0.00626012
0.00603701
0.00582315
0.00575678
0.00582314
0.00593868
0.00602182
0.00602182
0.0059387
0.00582315
0.00575678
0.00575639
0.00582242
0.00593767
0.00602064
0.00602066
0.0059377
0.00582243
0.00575637
0.00582242
0.00603566
0.00625823
0.00641716
0.00641721
0.00625831
0.00603572
0.00582242
0.00593767
0.00625823
0.00664203
0.00700553
0.00700568
0.00664223
0.00625835
0.0059377
0.00602064
0.00641716
0.00700553
0.00801242
0.00801318
0.00700592
0.00641733
0.00602069
0.00602066
0.0064172
0.00700567
0.00801316
0.00801392
0.00700606
0.00641737
0.00602071
0.0059377
0.00625831
0.00664222
0.00700591
0.00700605
0.00664241
0.00625842
0.00593773
0.00582243
0.00603571
0.00625834
0.00641733
0.00641737
0.00625842
0.00603577
0.00582243
0.00575637
0.00582242
0.0059377
0.00602069
0.00602071
0.00593773
0.00582244
0.00575636
0.00575618
0.00582204
0.00593715
0.00602005
0.00602007
0.00593719
0.00582206
0.00575615
0.00582204
0.00603499
0.0062573
0.00641608
0.00641615
0.00625742
0.00603507
0.00582204
0.00593715
0.0062573
0.00664067
0.00700388
0.00700411
0.00664097
0.00625747
0.00593719
0.00602005
0.00641608
0.00700388
0.00801002
0.00801122
0.00700449
0.00641635
0.00602012
0.00602007
0.00641615
0.00700411
0.00801121
0.00801241
0.00700471
0.00641641
0.00602014
0.00593719
0.00625742
0.00664096
0.00700448
0.00700471
0.00664126
0.00625759
0.00593723
0.00582206
0.00603507
0.00625747
0.00641635
0.00641641
0.00625759
0.00603515
0.00582205
0.00575615
0.00582204
0.00593719
0.00602012
0.00602014
0.00593723
0.00582205
0.00575612
0.0057561
0.00582186
0.00593689
0.00601975
0.00601978
0.00593695
0.00582188
0.00575604
0.00582186
0.00603465
0.0062568
0.00641551
0.0064156
0.00625697
0.00603475
0.00582185
0.0059369
0.00625681
0.00663991
0.00700294
0.00700327
0.00664033
0.00625704
0.00593693
0.00601975
0.00641552
0.00700295
0.00800846
0.0080102
0.00700381
0.00641588
0.00601983
0.00601978
0.00641562
0.00700329
0.00801027
0.008012
0.00700415
0.00641598
0.00601987
0.00593696
0.00625699
0.00664035
0.00700384
0.00700416
0.00664077
0.00625722
0.00593699
0.00582189
0.00603476
0.00625705
0.00641589
0.00641599
0.00625722
0.00603486
0.00582187
0.00575605
0.00582185
0.00593694
0.00601984
0.00601987
0.00593699
0.00582187
0.00575599
0.00575608
0.00582179
0.00593677
0.00601959
0.00601963
0.00593683
0.0058218
0.00575599
0.00582179
0.00603447
0.00625652
0.00641518
0.0064153
0.00625674
0.00603459
0.00582175
0.00593677
0.00625653
0.00663945
0.00700233
0.00700277
0.00664
0.00625682
0.0059368
0.0060196
0.0064152
0.00700238
0.0080073
0.00800962
0.00700351
0.00641566
0.00601969
0.00601965
0.00641534
0.00700286
0.00800987
0.00801218
0.00700399
0.0064158
0.00601974
0.00593685
0.00625678
0.00664007
0.0070036
0.00700403
0.00664061
0.00625706
0.00593688
0.00582181
0.00603462
0.00625686
0.00641571
0.00641582
0.00625707
0.00603473
0.00582177
0.005756
0.00582176
0.00593682
0.00601971
0.00601975
0.00593688
0.00582177
0.00575591
0.00575609
0.00582176
0.00593671
0.00601952
0.00601956
0.00593678
0.00582176
0.00575598
0.00582176
0.00603438
0.00625637
0.00641498
0.00641512
0.00625661
0.00603451
0.0058217
0.00593671
0.00625638
0.00663916
0.00700191
0.00700244
0.00663982
0.00625671
0.00593674
0.00601954
0.00641503
0.00700201
0.00800639
0.00800923
0.00700338
0.00641557
0.00601963
0.00601959
0.00641521
0.00700265
0.0080098
0.00801265
0.00700401
0.00641574
0.00601968
0.00593681
0.0062567
0.00663997
0.00700358
0.00700411
0.00664062
0.00625702
0.00593682
0.00582178
0.00603456
0.00625679
0.00641566
0.0064158
0.00625703
0.00603468
0.00582172
0.00575597
0.00582171
0.00593676
0.00601966
0.0060197
0.00593683
0.00582171
0.00575585
0.00575612
0.00582177
0.0059367
0.00601949
0.00601953
0.00593676
0.00582176
0.00575598
0.00582176
0.00603434
0.00625628
0.00641485
0.00641501
0.00625654
0.00603447
0.00582168
0.0059367
0.0062563
0.00663898
0.00700161
0.0070022
0.0066397
0.00625665
0.0059367
0.00601951
0.00641494
0.00700177
0.00800567
0.00800891
0.00700332
0.00641553
0.00601959
0.00601957
0.00641515
0.00700256
0.00800992
0.00801317
0.0070041
0.00641574
0.00601965
0.0059368
0.00625667
0.00663996
0.00700367
0.00700426
0.00664068
0.00625702
0.0059368
0.00582176
0.00603454
0.00625678
0.00641567
0.00641582
0.00625704
0.00603466
0.00582168
0.00575595
0.00582169
0.00593673
0.00601963
0.00601967
0.0059368
0.00582167
0.00575581
0.00575614
0.00582179
0.00593671
0.00601949
0.00601953
0.00593676
0.00582177
0.00575599
0.00582178
0.00603434
0.00625624
0.00641479
0.00641495
0.00625651
0.00603445
0.00582167
0.0059367
0.00625627
0.00663888
0.00700142
0.00700204
0.00663963
0.00625661
0.00593668
0.00601951
0.00641491
0.00700165
0.00800519
0.00800862
0.00700327
0.0064155
0.00601957
0.00601957
0.00641515
0.00700255
0.00801012
0.00801357
0.00700417
0.00641574
0.00601963
0.0059368
0.00625668
0.00663999
0.00700378
0.00700439
0.00664073
0.00625702
0.00593678
0.00582176
0.00603453
0.00625678
0.00641569
0.00641585
0.00625704
0.00603464
0.00582165
0.00575593
0.00582167
0.00593672
0.00601961
0.00601965
0.00593677
0.00582164
0.00575577
0.00575616
0.00582181
0.00593673
0.0060195
0.00601954
0.00593677
0.00582178
0.005756
0.00582179
0.00603436
0.00625626
0.00641479
0.00641494
0.0062565
0.00603445
0.00582168
0.00593671
0.00625628
0.00663887
0.00700136
0.00700196
0.00663959
0.00625659
0.00593668
0.00601952
0.00641492
0.00700164
0.00800504
0.00800841
0.00700321
0.00641547
0.00601956
0.00601958
0.00641516
0.00700259
0.0080103
0.0080137
0.00700415
0.00641571
0.00601962
0.0059368
0.00625669
0.00664002
0.00700383
0.00700443
0.00664072
0.00625699
0.00593676
0.00582175
0.00603453
0.00625678
0.00641569
0.00641584
0.00625702
0.00603461
0.00582163
0.00575592
0.00582165
0.0059367
0.00601959
0.00601963
0.00593674
0.00582161
0.00575575
0.00575616
0.00582183
0.00593676
0.00601953
0.00601956
0.00593679
0.00582179
0.00575601
0.00582181
0.0060344
0.00625631
0.00641484
0.00641497
0.00625651
0.00603446
0.00582169
0.00593673
0.00625633
0.00663896
0.00700145
0.00700199
0.00663958
0.00625659
0.00593668
0.00601953
0.00641497
0.00700175
0.00800528
0.00800833
0.00700313
0.00641543
0.00601955
0.00601958
0.00641519
0.00700265
0.00801038
0.00801344
0.00700404
0.00641565
0.00601959
0.00593679
0.00625669
0.00664001
0.0070038
0.00700433
0.00664063
0.00625694
0.00593674
0.00582174
0.00603451
0.00625676
0.00641565
0.00641578
0.00625696
0.00603457
0.00582162
0.00575591
0.00582164
0.00593668
0.00601957
0.0060196
0.00593671
0.00582159
0.00575575
0.00575614
0.00582183
0.00593678
0.00601957
0.00601959
0.00593679
0.00582179
0.00575601
0.00582181
0.00603444
0.0062564
0.00641495
0.00641504
0.00625654
0.00603447
0.0058217
0.00593675
0.00625641
0.00663912
0.00700169
0.00700212
0.0066396
0.00625659
0.00593669
0.00601955
0.00641505
0.00700196
0.00800592
0.0080084
0.00700306
0.00641539
0.00601954
0.00601959
0.00641522
0.00700271
0.00801029
0.00801279
0.00700382
0.00641557
0.00601957
0.00593678
0.00625667
0.00663998
0.00700365
0.00700408
0.00664046
0.00625685
0.00593671
0.00582172
0.00603449
0.00625672
0.00641557
0.00641567
0.00625686
0.00603452
0.00582161
0.0057559
0.00582164
0.00593667
0.00601954
0.00601956
0.00593668
0.00582159
0.00575577
0.0057561
0.00582182
0.0059368
0.0060196
0.0060196
0.00593679
0.00582177
0.005756
0.0058218
0.00603449
0.00625651
0.00641509
0.00641515
0.00625659
0.00603449
0.00582171
0.00593677
0.00625651
0.00663935
0.00700206
0.00700235
0.00663966
0.00625661
0.0059367
0.00601957
0.00641514
0.00700224
0.00800688
0.00800864
0.007003
0.00641536
0.00601954
0.00601959
0.00641525
0.00700277
0.00801005
0.00801182
0.00700353
0.00641547
0.00601955
0.00593676
0.00625665
0.00663991
0.00700342
0.00700371
0.00664023
0.00625675
0.0059367
0.00582171
0.00603448
0.00625667
0.00641546
0.00641552
0.00625675
0.00603447
0.00582162
0.00575591
0.00582165
0.00593667
0.00601952
0.00601953
0.00593667
0.0058216
0.00575582
0.00575604
0.00582179
0.0059368
0.00601962
0.00601962
0.00593679
0.00582176
0.00575598
0.00582178
0.00603453
0.00625662
0.00641524
0.00641526
0.00625664
0.0060345
0.00582172
0.00593678
0.00625661
0.0066396
0.00700249
0.00700264
0.00663975
0.00625663
0.00593672
0.00601959
0.00641525
0.00700256
0.00800802
0.008009
0.00700295
0.00641533
0.00601954
0.00601958
0.00641528
0.00700281
0.00800969
0.00801067
0.00700321
0.00641536
0.00601954
0.00593674
0.00625663
0.00663983
0.00700313
0.00700328
0.00663998
0.00625665
0.00593669
0.0058217
0.00603446
0.00625662
0.00641534
0.00641537
0.00625665
0.00603444
0.00582164
0.00575593
0.00582167
0.00593668
0.00601951
0.00601951
0.00593667
0.00582163
0.00575588
0.00575598
0.00582176
0.00593679
0.00601962
0.00601962
0.00593677
0.00582173
0.00575596
0.00582175
0.00603455
0.00625671
0.00641538
0.00641537
0.00625668
0.00603451
0.00582173
0.00593678
0.00625669
0.00663984
0.00700291
0.00700293
0.00663983
0.00625665
0.00593674
0.0060196
0.00641534
0.00700287
0.00800917
0.0080094
0.00700292
0.00641531
0.00601955
0.00601958
0.00641531
0.00700285
0.00800928
0.00800952
0.0070029
0.00641528
0.00601953
0.00593673
0.00625661
0.00663974
0.00700284
0.00700286
0.00663974
0.00625657
0.00593669
0.0058217
0.00603445
0.00625658
0.00641524
0.00641523
0.00625656
0.00603442
0.00582167
0.00575595
0.0058217
0.0059367
0.00601951
0.00601951
0.00593668
0.00582167
0.00575594
0.00575593
0.00582172
0.00593677
0.00601962
0.00601961
0.00593675
0.00582171
0.00575594
0.00582173
0.00603456
0.00625677
0.00641548
0.00641546
0.00625672
0.00603452
0.00582172
0.00593677
0.00625675
0.00664003
0.00700326
0.00700318
0.00663991
0.00625667
0.00593675
0.0060196
0.00641541
0.00700312
0.00801014
0.00800978
0.00700291
0.00641529
0.00601956
0.00601957
0.00641532
0.00700287
0.00800892
0.00800855
0.00700266
0.00641521
0.00601953
0.00593672
0.00625659
0.00663967
0.00700259
0.00700252
0.00663956
0.00625652
0.00593669
0.0058217
0.00603445
0.00625655
0.00641516
0.00641513
0.0062565
0.00603441
0.0058217
0.00575598
0.00582172
0.00593672
0.00601952
0.00601951
0.0059367
0.00582171
0.00575599
0.00575589
0.00582169
0.00593676
0.00601961
0.0060196
0.00593673
0.00582169
0.00575593
0.0058217
0.00603456
0.00625681
0.00641555
0.00641551
0.00625673
0.00603452
0.00582172
0.00593677
0.00625679
0.00664015
0.00700351
0.00700336
0.00663996
0.00625669
0.00593676
0.0060196
0.00641545
0.0070033
0.00801086
0.00801006
0.0070029
0.00641529
0.00601957
0.00601956
0.00641533
0.00700288
0.00800865
0.00800785
0.00700249
0.00641517
0.00601953
0.00593671
0.00625658
0.00663963
0.00700242
0.00700227
0.00663944
0.00625648
0.0059367
0.0058217
0.00603445
0.00625654
0.00641511
0.00641507
0.00625646
0.00603441
0.00582172
0.00575599
0.00582174
0.00593674
0.00601953
0.00601952
0.00593672
0.00582174
0.00575603
0.00575587
0.00582167
0.00593674
0.0060196
0.00601959
0.00593672
0.00582167
0.00575592
0.00582169
0.00603455
0.00625683
0.00641559
0.00641553
0.00625674
0.00603451
0.00582172
0.00593676
0.00625681
0.00664022
0.00700365
0.00700346
0.00663999
0.00625669
0.00593676
0.0060196
0.00641547
0.0070034
0.00801128
0.00801022
0.00700289
0.00641528
0.00601957
0.00601956
0.00641534
0.00700289
0.00800848
0.00800743
0.00700239
0.00641515
0.00601954
0.00593671
0.00625658
0.0066396
0.00700233
0.00700213
0.00663937
0.00625647
0.00593671
0.00582171
0.00603445
0.00625653
0.00641509
0.00641504
0.00625645
0.00603442
0.00582174
0.005756
0.00582175
0.00593675
0.00601954
0.00601953
0.00593673
0.00582176
0.00575605
0.00575586
0.00582166
0.00593673
0.0060196
0.00601958
0.00593671
0.00582167
0.00575592
0.00582168
0.00603455
0.00625683
0.00641559
0.00641554
0.00625674
0.00603451
0.00582172
0.00593675
0.00625681
0.00664024
0.0070037
0.00700349
0.00663999
0.00625669
0.00593676
0.00601959
0.00641548
0.00700344
0.00801145
0.00801029
0.00700289
0.00641528
0.00601957
0.00601956
0.00641534
0.00700289
0.00800842
0.00800726
0.00700235
0.00641514
0.00601954
0.00593671
0.00625658
0.0066396
0.00700229
0.00700208
0.00663935
0.00625647
0.00593672
0.00582171
0.00603446
0.00625653
0.00641508
0.00641503
0.00625645
0.00603442
0.00582175
0.005756
0.00582176
0.00593676
0.00601955
0.00601954
0.00593674
0.00582177
0.00575606
0.00575586
0.00582166
0.00593673
0.00601959
0.00601958
0.00593671
0.00582167
0.00575592
0.00582168
0.00603454
0.00625682
0.00641558
0.00641553
0.00625673
0.00603451
0.00582172
0.00593675
0.0062568
0.00664023
0.0070037
0.00700349
0.00663999
0.00625669
0.00593676
0.00601959
0.00641547
0.00700343
0.00801145
0.00801029
0.00700289
0.00641528
0.00601957
0.00601956
0.00641534
0.00700289
0.00800842
0.00800726
0.00700235
0.00641515
0.00601954
0.00593671
0.00625658
0.0066396
0.00700229
0.00700209
0.00663935
0.00625647
0.00593672
0.00582171
0.00603446
0.00625653
0.00641509
0.00641504
0.00625645
0.00603443
0.00582175
0.005756
0.00582175
0.00593675
0.00601955
0.00601954
0.00593674
0.00582177
0.00575605
0.00575587
0.00582166
0.00593673
0.00601959
0.00601958
0.00593672
0.00582168
0.00575592
0.00582168
0.00603454
0.00625681
0.00641557
0.00641552
0.00625673
0.00603451
0.00582172
0.00593675
0.00625678
0.00664021
0.00700366
0.00700347
0.00663998
0.00625669
0.00593676
0.00601958
0.00641546
0.00700339
0.00801135
0.00801027
0.0070029
0.00641529
0.00601958
0.00601955
0.00641533
0.00700288
0.00800843
0.00800736
0.00700238
0.00641516
0.00601954
0.00593671
0.00625657
0.0066396
0.00700231
0.00700212
0.00663938
0.00625648
0.00593672
0.00582171
0.00603445
0.00625653
0.00641509
0.00641505
0.00625646
0.00603443
0.00582174
0.005756
0.00582175
0.00593675
0.00601955
0.00601954
0.00593674
0.00582176
0.00575605
0.00575588
0.00582167
0.00593673
0.00601959
0.00601958
0.00593672
0.00582168
0.00575592
0.00582168
0.00603453
0.00625679
0.00641555
0.00641551
0.00625673
0.00603451
0.00582172
0.00593675
0.00625677
0.00664018
0.00700361
0.00700345
0.00663998
0.00625669
0.00593676
0.00601958
0.00641544
0.00700334
0.00801121
0.00801026
0.00700292
0.00641529
0.00601958
0.00601955
0.00641531
0.00700285
0.00800842
0.00800749
0.00700242
0.00641517
0.00601955
0.0059367
0.00625657
0.00663959
0.00700232
0.00700216
0.0066394
0.00625649
0.00593672
0.00582171
0.00603445
0.00625653
0.00641509
0.00641506
0.00625647
0.00603443
0.00582174
0.00575599
0.00582174
0.00593674
0.00601954
0.00601954
0.00593673
0.00582176
0.00575604
0.00575588
0.00582167
0.00593673
0.00601959
0.00601958
0.00593672
0.00582168
0.00575592
0.00582169
0.00603453
0.00625678
0.00641554
0.00641551
0.00625673
0.00603451
0.00582172
0.00593674
0.00625676
0.00664014
0.00700357
0.00700343
0.00663999
0.0062567
0.00593676
0.00601958
0.00641542
0.00700329
0.00801106
0.00801029
0.00700295
0.00641531
0.00601958
0.00601955
0.0064153
0.00700281
0.00800839
0.00800763
0.00700247
0.00641519
0.00601955
0.0059367
0.00625656
0.00663957
0.00700233
0.00700219
0.00663943
0.0062565
0.00593672
0.0058217
0.00603444
0.00625652
0.00641509
0.00641506
0.00625648
0.00603443
0.00582173
0.00575599
0.00582174
0.00593674
0.00601954
0.00601953
0.00593673
0.00582175
0.00575603
0.00575589
0.00582167
0.00593673
0.00601959
0.00601958
0.00593672
0.00582168
0.00575592
0.00582169
0.00603452
0.00625677
0.00641553
0.00641551
0.00625674
0.00603451
0.00582171
0.00593674
0.00625674
0.00664011
0.00700353
0.00700343
0.00664
0.0062567
0.00593676
0.00601957
0.0064154
0.00700323
0.00801092
0.00801034
0.00700298
0.00641532
0.00601958
0.00601954
0.00641528
0.00700277
0.00800832
0.00800776
0.00700252
0.0064152
0.00601955
0.0059367
0.00625655
0.00663956
0.00700232
0.00700222
0.00663945
0.00625651
0.00593672
0.00582171
0.00603444
0.00625651
0.00641509
0.00641507
0.00625648
0.00603443
0.00582173
0.005756
0.00582174
0.00593673
0.00601954
0.00601953
0.00593673
0.00582175
0.00575602
0.00575589
0.00582167
0.00593672
0.00601958
0.00601958
0.00593672
0.00582168
0.00575591
0.00582169
0.00603452
0.00625676
0.00641552
0.0064155
0.00625674
0.00603451
0.00582171
0.00593674
0.00625673
0.00664008
0.00700349
0.00700343
0.00664001
0.0062567
0.00593675
0.00601957
0.00641538
0.00700318
0.00801079
0.0080104
0.00700301
0.00641533
0.00601957
0.00601954
0.00641526
0.00700273
0.00800825
0.00800787
0.00700256
0.00641521
0.00601955
0.0059367
0.00625654
0.00663954
0.00700231
0.00700225
0.00663947
0.00625652
0.00593671
0.00582171
0.00603443
0.00625651
0.00641509
0.00641507
0.00625649
0.00603443
0.00582173
0.005756
0.00582174
0.00593673
0.00601954
0.00601953
0.00593673
0.00582175
0.00575602
0.0057559
0.00582167
0.00593672
0.00601958
0.00601958
0.00593672
0.00582167
0.00575591
0.00582169
0.00603451
0.00625674
0.0064155
0.0064155
0.00625673
0.00603451
0.0058217
0.00593674
0.00625672
0.00664005
0.00700346
0.00700342
0.00664002
0.0062567
0.00593675
0.00601957
0.00641536
0.00700313
0.00801067
0.00801044
0.00700304
0.00641533
0.00601957
0.00601954
0.00641525
0.00700269
0.0080082
0.00800798
0.0070026
0.00641522
0.00601954
0.0059367
0.00625653
0.00663953
0.00700231
0.00700227
0.00663949
0.00625652
0.00593671
0.00582171
0.00603443
0.0062565
0.00641509
0.00641508
0.0062565
0.00603443
0.00582172
0.005756
0.00582174
0.00593673
0.00601954
0.00601953
0.00593673
0.00582174
0.00575601
0.0057559
0.00582167
0.00593672
0.00601957
0.00601957
0.00593672
0.00582167
0.0057559
0.00582169
0.00603451
0.00625673
0.00641549
0.00641549
0.00625673
0.00603451
0.0058217
0.00593674
0.00625671
0.00664003
0.00700343
0.00700341
0.00664001
0.0062567
0.00593674
0.00601957
0.00641535
0.00700309
0.00801056
0.00801046
0.00700306
0.00641534
0.00601957
0.00601954
0.00641524
0.00700267
0.00800817
0.00800807
0.00700263
0.00641523
0.00601954
0.0059367
0.00625653
0.00663952
0.00700231
0.0070023
0.00663951
0.00625653
0.00593671
0.00582171
0.00603443
0.0062565
0.00641509
0.00641509
0.0062565
0.00603443
0.00582172
0.005756
0.00582174
0.00593673
0.00601953
0.00601953
0.00593673
0.00582174
0.00575601
0.00575591
0.00582167
0.00593672
0.00601957
0.00601957
0.00593672
0.00582167
0.0057559
0.0058217
0.0060345
0.00625672
0.00641548
0.00641548
0.00625672
0.0060345
0.0058217
0.00593674
0.0062567
0.00664001
0.0070034
0.00700339
0.00664001
0.0062567
0.00593674
0.00601956
0.00641534
0.00700307
0.00801047
0.00801046
0.00700306
0.00641534
0.00601957
0.00601954
0.00641523
0.00700265
0.00800816
0.00800815
0.00700265
0.00641523
0.00601954
0.0059367
0.00625653
0.00663952
0.00700232
0.00700232
0.00663952
0.00625653
0.00593671
0.00582171
0.00603443
0.0062565
0.00641509
0.00641509
0.0062565
0.00603443
0.00582171
0.005756
0.00582174
0.00593673
0.00601953
0.00601953
0.00593673
0.00582174
0.005756
0.00575591
0.00582167
0.00593672
0.00601957
0.00601957
0.00593672
0.00582167
0.00575591
0.0058217
0.0060345
0.00625672
0.00641547
0.00641547
0.00625672
0.0060345
0.00582169
0.00593674
0.00625669
0.00663999
0.00700337
0.00700338
0.00664
0.0062567
0.00593674
0.00601956
0.00641533
0.00700304
0.0080104
0.00801044
0.00700306
0.00641534
0.00601956
0.00601954
0.00641523
0.00700264
0.00800817
0.00800821
0.00700267
0.00641524
0.00601954
0.0059367
0.00625653
0.00663952
0.00700233
0.00700234
0.00663953
0.00625653
0.0059367
0.00582171
0.00603443
0.0062565
0.00641509
0.0064151
0.00625651
0.00603443
0.00582171
0.005756
0.00582173
0.00593672
0.00601953
0.00601953
0.00593673
0.00582173
0.005756
0.00575591
0.00582167
0.00593672
0.00601957
0.00601957
0.00593672
0.00582167
0.00575591
0.0058217
0.0060345
0.00625671
0.00641546
0.00641547
0.00625672
0.0060345
0.0058217
0.00593674
0.00625669
0.00663998
0.00700335
0.00700337
0.00664
0.0062567
0.00593674
0.00601956
0.00641532
0.00700302
0.00801035
0.00801044
0.00700307
0.00641534
0.00601956
0.00601953
0.00641522
0.00700263
0.00800817
0.00800825
0.00700268
0.00641524
0.00601954
0.0059367
0.00625652
0.00663951
0.00700233
0.00700235
0.00663954
0.00625653
0.0059367
0.00582171
0.00603443
0.0062565
0.00641509
0.0064151
0.00625651
0.00603443
0.00582171
0.005756
0.00582173
0.00593672
0.00601953
0.00601953
0.00593672
0.00582173
0.005756
0.00575591
0.00582167
0.00593672
0.00601957
0.00601957
0.00593672
0.00582167
0.00575591
0.0058217
0.0060345
0.00625671
0.00641546
0.00641547
0.00625672
0.0060345
0.00582169
0.00593674
0.00625668
0.00663997
0.00700334
0.00700337
0.00664001
0.0062567
0.00593674
0.00601956
0.00641531
0.00700301
0.00801032
0.00801045
0.00700307
0.00641534
0.00601956
0.00601953
0.00641521
0.00700262
0.00800814
0.00800828
0.00700268
0.00641524
0.00601954
0.0059367
0.00625651
0.0066395
0.00700233
0.00700235
0.00663954
0.00625653
0.0059367
0.00582171
0.00603442
0.00625649
0.00641509
0.00641509
0.0062565
0.00603443
0.00582171
0.005756
0.00582173
0.00593672
0.00601952
0.00601953
0.00593672
0.00582173
0.00575599
0.00575591
0.00582167
0.00593671
0.00601957
0.00601957
0.00593672
0.00582167
0.0057559
0.0058217
0.0060345
0.00625671
0.00641546
0.00641547
0.00625672
0.0060345
0.00582169
0.00593674
0.00625668
0.00663997
0.00700334
0.00700338
0.00664001
0.0062567
0.00593674
0.00601956
0.00641531
0.007003
0.0080103
0.00801048
0.00700309
0.00641534
0.00601956
0.00601953
0.00641521
0.0070026
0.0080081
0.00800829
0.00700269
0.00641524
0.00601954
0.0059367
0.00625651
0.00663949
0.00700231
0.00700235
0.00663954
0.00625653
0.0059367
0.00582171
0.00603442
0.00625648
0.00641508
0.00641509
0.0062565
0.00603443
0.0058217
0.005756
0.00582173
0.00593672
0.00601952
0.00601952
0.00593672
0.00582173
0.00575599
0.00575591
0.00582167
0.00593671
0.00601957
0.00601957
0.00593672
0.00582167
0.0057559
0.0058217
0.00603449
0.00625671
0.00641546
0.00641547
0.00625673
0.0060345
0.00582169
0.00593673
0.00625667
0.00663996
0.00700334
0.00700339
0.00664002
0.0062567
0.00593674
0.00601955
0.0064153
0.00700298
0.00801029
0.00801052
0.0070031
0.00641535
0.00601956
0.00601953
0.0064152
0.00700258
0.00800806
0.00800829
0.0070027
0.00641524
0.00601954
0.0059367
0.0062565
0.00663948
0.0070023
0.00700234
0.00663954
0.00625653
0.0059367
0.00582171
0.00603442
0.00625648
0.00641508
0.00641509
0.0062565
0.00603443
0.0058217
0.005756
0.00582173
0.00593671
0.00601952
0.00601952
0.00593672
0.00582173
0.00575599
0.00575591
0.00582167
0.00593671
0.00601956
0.00601957
0.00593671
0.00582167
0.0057559
0.00582169
0.00603449
0.0062567
0.00641546
0.00641547
0.00625672
0.0060345
0.00582169
0.00593673
0.00625667
0.00663996
0.00700334
0.00700339
0.00664002
0.0062567
0.00593673
0.00601955
0.0064153
0.00700297
0.00801026
0.00801055
0.00700311
0.00641535
0.00601956
0.00601953
0.00641519
0.00700257
0.00800802
0.00800831
0.0070027
0.00641525
0.00601953
0.0059367
0.0062565
0.00663947
0.00700229
0.00700234
0.00663954
0.00625653
0.0059367
0.00582171
0.00603442
0.00625648
0.00641507
0.00641509
0.0062565
0.00603443
0.0058217
0.00575601
0.00582173
0.00593672
0.00601952
0.00601953
0.00593672
0.00582173
0.00575599
0.00575591
0.00582167
0.0059367
0.00601956
0.00601956
0.00593671
0.00582166
0.00575589
0.00582169
0.00603448
0.00625669
0.00641545
0.00641546
0.00625672
0.00603449
0.00582168
0.00593673
0.00625666
0.00663994
0.00700332
0.00700337
0.00664001
0.0062567
0.00593673
0.00601955
0.00641529
0.00700296
0.00801022
0.00801054
0.0070031
0.00641535
0.00601956
0.00601953
0.00641519
0.00700256
0.00800803
0.00800834
0.00700271
0.00641525
0.00601953
0.0059367
0.0062565
0.00663948
0.0070023
0.00700235
0.00663955
0.00625653
0.0059367
0.00582171
0.00603442
0.00625648
0.00641508
0.00641509
0.00625651
0.00603443