/*--------------------------------*- C++ -*----------------------------------*\
| =========                 |                                                 |
| \\      /  F ield         | OpenFOAM: The Open Source CFD Toolbox           |
|  \\    /   O peration     | Version:  2406                                  |
|   \\  /    A nd           | Website:  www.openfoam.com                      |
|    \\/     M anipulation  |                                                 |
\*---------------------------------------------------------------------------*/
FoamFile
{
    version     2.0;
    format      ascii;
    arch        "LSB;label=32;scalar=64";
    class       volVectorField;
    location    "0.6";
    object      U;
}
// * * * * * * * * * * * * * * * * * * * * * * * * * * * * * * * * * * * * * //

dimensions      [0 1 -1 0 0 0 0];

internalField   nonuniform List<vector> 
16000
(
(0.153132 0.153132 1.11474)
(0.117573 0.168169 1.1542)
(0.072459 0.17688 1.17285)
(0.0244946 0.180953 1.18018)
(-0.0244946 0.180953 1.18018)
(-0.0724589 0.17688 1.17285)
(-0.117573 0.168169 1.1542)
(-0.153132 0.153132 1.11474)
(0.168169 0.117573 1.1542)
(0.126109 0.126109 1.18728)
(0.0766337 0.131081 1.19757)
(0.0257137 0.133402 1.19978)
(-0.0257136 0.133402 1.19978)
(-0.0766337 0.131081 1.19757)
(-0.126109 0.126109 1.18728)
(-0.168169 0.117573 1.1542)
(0.17688 0.072459 1.17285)
(0.131081 0.0766337 1.19757)
(0.0792026 0.0792026 1.20176)
(0.0264749 0.0803911 1.20065)
(-0.0264749 0.0803911 1.20065)
(-0.0792026 0.0792026 1.20176)
(-0.131081 0.0766337 1.19757)
(-0.17688 0.072459 1.17285)
(0.180953 0.0244946 1.18018)
(0.133402 0.0257137 1.19978)
(0.0803911 0.0264749 1.20065)
(0.0268183 0.0268183 1.1979)
(-0.0268183 0.0268183 1.1979)
(-0.0803911 0.0264749 1.20065)
(-0.133402 0.0257137 1.19978)
(-0.180953 0.0244946 1.18018)
(0.180953 -0.0244946 1.18018)
(0.133402 -0.0257136 1.19978)
(0.0803911 -0.0264749 1.20065)
(0.0268183 -0.0268183 1.1979)
(-0.0268183 -0.0268183 1.1979)
(-0.0803911 -0.0264749 1.20065)
(-0.133402 -0.0257136 1.19978)
(-0.180953 -0.0244946 1.18018)
(0.17688 -0.0724589 1.17285)
(0.131081 -0.0766337 1.19757)
(0.0792026 -0.0792026 1.20176)
(0.0264749 -0.0803911 1.20065)
(-0.0264749 -0.0803911 1.20065)
(-0.0792026 -0.0792026 1.20176)
(-0.131081 -0.0766337 1.19757)
(-0.17688 -0.0724589 1.17285)
(0.168169 -0.117573 1.1542)
(0.126109 -0.126109 1.18728)
(0.0766337 -0.131081 1.19757)
(0.0257137 -0.133402 1.19978)
(-0.0257136 -0.133402 1.19978)
(-0.0766337 -0.131081 1.19757)
(-0.126109 -0.126109 1.18728)
(-0.168169 -0.117573 1.1542)
(0.153132 -0.153132 1.11474)
(0.117573 -0.168169 1.1542)
(0.072459 -0.17688 1.17285)
(0.0244946 -0.180953 1.18018)
(-0.0244946 -0.180953 1.18018)
(-0.0724589 -0.17688 1.17285)
(-0.117573 -0.168169 1.1542)
(-0.153132 -0.153132 1.11474)
(0.0494154 0.0494154 1.29062)
(0.0414003 0.0615755 1.3895)
(0.0279271 0.0703802 1.44408)
(0.00984088 0.075171 1.46809)
(-0.00984076 0.0751711 1.46809)
(-0.027927 0.0703803 1.44408)
(-0.0414002 0.0615756 1.3895)
(-0.0494153 0.0494154 1.29062)
(0.0615755 0.0414003 1.3895)
(0.0531611 0.0531611 1.48728)
(0.0357289 0.0616406 1.53241)
(0.0125459 0.0660227 1.54992)
(-0.0125458 0.0660227 1.54992)
(-0.0357287 0.0616406 1.53241)
(-0.053161 0.0531611 1.48728)
(-0.0615754 0.0414003 1.3895)
(0.0703803 0.0279271 1.44408)
(0.0616406 0.0357288 1.53241)
(0.0413007 0.0413007 1.57006)
(0.0144349 0.0441146 1.5832)
(-0.0144348 0.0441146 1.5832)
(-0.0413006 0.0413007 1.57006)
(-0.0616405 0.0357289 1.53241)
(-0.0703802 0.0279271 1.44408)
(0.075171 0.00984088 1.46809)
(0.0660227 0.0125459 1.54992)
(0.0441146 0.0144349 1.5832)
(0.0153734 0.0153734 1.59386)
(-0.0153733 0.0153734 1.59386)
(-0.0441145 0.0144349 1.5832)
(-0.0660226 0.0125459 1.54992)
(-0.075171 0.00984088 1.46809)
(0.0751711 -0.00984076 1.46809)
(0.0660227 -0.0125458 1.54992)
(0.0441146 -0.0144348 1.5832)
(0.0153734 -0.0153733 1.59386)
(-0.0153733 -0.0153733 1.59386)
(-0.0441145 -0.0144348 1.5832)
(-0.0660226 -0.0125458 1.54992)
(-0.075171 -0.00984077 1.46809)
(0.0703803 -0.027927 1.44408)
(0.0616406 -0.0357287 1.53241)
(0.0413007 -0.0413006 1.57006)
(0.0144349 -0.0441145 1.5832)
(-0.0144348 -0.0441145 1.5832)
(-0.0413006 -0.0413006 1.57006)
(-0.0616405 -0.0357287 1.53241)
(-0.0703802 -0.027927 1.44408)
(0.0615756 -0.0414002 1.3895)
(0.0531611 -0.053161 1.48728)
(0.0357289 -0.0616405 1.53241)
(0.0125459 -0.0660226 1.54992)
(-0.0125458 -0.0660226 1.54992)
(-0.0357287 -0.0616405 1.53241)
(-0.053161 -0.053161 1.48728)
(-0.0615755 -0.0414002 1.3895)
(0.0494154 -0.0494153 1.29062)
(0.0414003 -0.0615755 1.3895)
(0.0279271 -0.0703802 1.44408)
(0.00984089 -0.075171 1.46809)
(-0.00984076 -0.075171 1.46809)
(-0.027927 -0.0703802 1.44408)
(-0.0414002 -0.0615755 1.3895)
(-0.0494153 -0.0494153 1.29062)
(0.0295334 0.0295334 1.18369)
(0.0263057 0.0381218 1.33605)
(0.0179589 0.0440247 1.43119)
(0.0063813 0.0472238 1.47636)
(-0.00638094 0.0472238 1.47636)
(-0.0179586 0.0440248 1.43119)
(-0.0263054 0.0381218 1.33605)
(-0.0295332 0.0295335 1.18369)
(0.0381218 0.0263057 1.33605)
(0.0338701 0.0338701 1.50686)
(0.0231034 0.039333 1.60045)
(0.00819906 0.0422272 1.64148)
(-0.0081987 0.0422272 1.64148)
(-0.0231031 0.0393331 1.60045)
(-0.0338698 0.0338702 1.50686)
(-0.0381216 0.0263058 1.33605)
(0.0440247 0.0179589 1.43119)
(0.039333 0.0231034 1.60045)
(0.0268027 0.0268027 1.68906)
(0.00948482 0.0287131 1.72654)
(-0.00948446 0.0287131 1.72654)
(-0.0268024 0.0268027 1.68906)
(-0.0393328 0.0231034 1.60045)
(-0.0440245 0.017959 1.43119)
(0.0472238 0.00638129 1.47636)
(0.0422272 0.00819905 1.64148)
(0.0287131 0.0094848 1.72654)
(0.010153 0.010153 1.76219)
(-0.0101526 0.010153 1.76219)
(-0.0287128 0.00948481 1.72654)
(-0.0422269 0.00819906 1.64148)
(-0.0472236 0.0063813 1.47636)
(0.0472238 -0.00638095 1.47636)
(0.0422272 -0.00819871 1.64148)
(0.0287131 -0.00948447 1.72654)
(0.010153 -0.0101527 1.76219)
(-0.0101526 -0.0101527 1.76219)
(-0.0287128 -0.00948448 1.72654)
(-0.0422269 -0.00819872 1.64148)
(-0.0472236 -0.00638097 1.47636)
(0.0440248 -0.0179586 1.43119)
(0.0393331 -0.0231031 1.60045)
(0.0268027 -0.0268024 1.68906)
(0.00948482 -0.0287128 1.72654)
(-0.00948447 -0.0287128 1.72654)
(-0.0268024 -0.0268024 1.68906)
(-0.0393328 -0.0231031 1.60045)
(-0.0440245 -0.0179586 1.43119)
(0.0381218 -0.0263055 1.33605)
(0.0338702 -0.0338698 1.50686)
(0.0231034 -0.0393328 1.60045)
(0.00819907 -0.0422269 1.64148)
(-0.00819871 -0.0422269 1.64148)
(-0.0231031 -0.0393328 1.60045)
(-0.0338699 -0.0338699 1.50686)
(-0.0381216 -0.0263055 1.33605)
(0.0295335 -0.0295332 1.18369)
(0.0263058 -0.0381216 1.33605)
(0.017959 -0.0440245 1.43119)
(0.00638131 -0.0472236 1.47636)
(-0.00638095 -0.0472236 1.47636)
(-0.0179586 -0.0440245 1.43119)
(-0.0263055 -0.0381216 1.33605)
(-0.0295333 -0.0295333 1.18369)
(0.00607801 0.00607799 1.17735)
(0.00678744 0.00932604 1.34012)
(0.00531569 0.0121437 1.44755)
(0.00200475 0.013788 1.50053)
(-0.00200389 0.0137881 1.50053)
(-0.00531488 0.0121438 1.44756)
(-0.00678675 0.00932622 1.34012)
(-0.00607749 0.00607819 1.17735)
(0.00932606 0.00678742 1.34012)
(0.0106422 0.0106422 1.53328)
(0.00825274 0.0137678 1.64786)
(0.00308317 0.0154578 1.70082)
(-0.00308232 0.0154578 1.70082)
(-0.00825194 0.0137679 1.64786)
(-0.0106415 0.0106423 1.53329)
(-0.00932553 0.00678759 1.34012)
(0.0121437 0.00531566 1.44755)
(0.0137679 0.00825271 1.64786)
(0.0104762 0.0104761 1.76219)
(0.00386351 0.0115578 1.81303)
(-0.00386268 0.0115578 1.81303)
(-0.0104754 0.0104762 1.76219)
(-0.0137672 0.0082528 1.64786)
(-0.0121432 0.00531577 1.44756)
(0.013788 0.00200472 1.50053)
(0.0154578 0.00308315 1.70082)
(0.0115579 0.00386349 1.81303)
(0.00421194 0.00421191 1.8613)
(-0.00421112 0.00421192 1.8613)
(-0.0115571 0.0038635 1.81303)
(-0.0154571 0.00308317 1.70082)
(-0.0137876 0.00200476 1.50053)
(0.0137881 -0.00200392 1.50053)
(0.0154578 -0.00308235 1.70082)
(0.0115579 -0.0038627 1.81303)
(0.00421194 -0.00421114 1.8613)
(-0.00421112 -0.00421115 1.8613)
(-0.0115571 -0.00386272 1.81303)
(-0.0154571 -0.00308238 1.70082)
(-0.0137876 -0.00200396 1.50053)
(0.0121438 -0.00531491 1.44755)
(0.0137679 -0.00825197 1.64786)
(0.0104762 -0.0104754 1.76219)
(0.00386353 -0.0115571 1.81303)
(-0.00386269 -0.0115571 1.81303)
(-0.0104754 -0.0104755 1.76219)
(-0.0137673 -0.00825205 1.64786)
(-0.0121433 -0.00531502 1.44756)
(0.00932623 -0.00678677 1.34012)
(0.0106423 -0.0106415 1.53329)
(0.00825282 -0.0137672 1.64786)
(0.0030832 -0.0154571 1.70082)
(-0.00308235 -0.0154572 1.70082)
(-0.00825202 -0.0137673 1.64786)
(-0.0106416 -0.0106417 1.53329)
(-0.0093257 -0.00678694 1.34012)
(0.0060782 -0.0060775 1.17735)
(0.00678761 -0.00932555 1.34012)
(0.00531579 -0.0121432 1.44756)
(0.00200479 -0.0137876 1.50053)
(-0.00200393 -0.0137876 1.50053)
(-0.00531499 -0.0121433 1.44756)
(-0.00678691 -0.00932573 1.34012)
(-0.00607768 -0.0060777 1.17735)
(0.0042096 0.00420956 1.15879)
(0.00417812 0.00573736 1.32761)
(0.00305356 0.00697228 1.44156)
(0.0011226 0.00767993 1.49869)
(-0.00112068 0.00768002 1.49869)
(-0.00305177 0.00697254 1.44156)
(-0.00417658 0.00573777 1.32761)
(-0.00420845 0.00421002 1.15879)
(0.0057374 0.00417808 1.32761)
(0.00582767 0.00582763 1.53244)
(0.00432383 0.00720764 1.65824)
(0.00159376 0.00796413 1.71788)
(-0.00159187 0.0079642 1.71788)
(-0.00432206 0.00720785 1.65824)
(-0.00582616 0.00582795 1.53244)
(-0.00573625 0.00417847 1.32761)
(0.00697231 0.00305352 1.44156)
(0.00720768 0.00432378 1.65824)
(0.00533801 0.00533797 1.7871)
(0.00195041 0.00580588 1.84585)
(-0.00194857 0.00580592 1.84585)
(-0.00533629 0.00533809 1.7871)
(-0.00720621 0.00432398 1.65824)
(-0.00697121 0.00305377 1.44156)
(0.00767996 0.00112256 1.49869)
(0.00796417 0.00159371 1.71788)
(0.00580592 0.00195036 1.84585)
(0.00208417 0.00208412 1.90127)
(-0.00208237 0.00208414 1.90127)
(-0.00580423 0.0019504 1.84585)
(-0.00796272 0.00159377 1.71788)
(-0.00767888 0.00112264 1.4987)
(0.00768005 -0.00112073 1.49869)
(0.00796424 -0.00159191 1.71788)
(0.00580596 -0.00194862 1.84585)
(0.00208419 -0.00208242 1.90127)
(-0.00208239 -0.00208244 1.90127)
(-0.00580426 -0.00194866 1.84585)
(-0.00796279 -0.00159199 1.71789)
(-0.00767897 -0.00112083 1.4987)
(0.00697256 -0.00305181 1.44156)
(0.00720788 -0.0043221 1.65824)
(0.00533813 -0.00533633 1.7871)
(0.00195045 -0.00580427 1.84585)
(-0.00194861 -0.00580431 1.84585)
(-0.0053364 -0.00533646 1.7871)
(-0.00720641 -0.00432231 1.65824)
(-0.00697146 -0.00305208 1.44156)
(0.00573779 -0.00417662 1.32761)
(0.00582799 -0.00582619 1.53244)
(0.00432402 -0.00720624 1.65824)
(0.00159383 -0.00796276 1.71788)
(-0.00159193 -0.00796283 1.71789)
(-0.00432225 -0.00720645 1.65824)
(-0.00582647 -0.00582652 1.53244)
(-0.00573664 -0.00417702 1.32761)
(0.00421005 -0.00420847 1.15879)
(0.00417851 -0.00573628 1.32761)
(0.00305382 -0.00697124 1.44156)
(0.00112269 -0.00767891 1.4987)
(-0.00112077 -0.00767901 1.4987)
(-0.00305202 -0.0069715 1.44156)
(-0.00417697 -0.00573668 1.32761)
(-0.00420889 -0.00420893 1.15879)
(0.00130247 0.00130238 1.15562)
(0.00140586 0.00190413 1.3259)
(0.00109421 0.0024443 1.44188)
(0.000414945 0.00276726 1.50045)
(-0.000410792 0.00276746 1.50045)
(-0.00109035 0.00244488 1.44188)
(-0.00140255 0.00190502 1.3259)
(-0.0013 0.00130338 1.15562)
(0.00190421 0.00140575 1.3259)
(0.00214655 0.00214646 1.53423)
(0.00168887 0.00280481 1.66414)
(0.000638984 0.00317836 1.72646)
(-0.000634915 0.00317852 1.72646)
(-0.00168507 0.00280526 1.66415)
(-0.0021433 0.00214718 1.53424)
(-0.00190176 0.00140663 1.3259)
(0.00244437 0.0010941 1.44188)
(0.00280488 0.00168878 1.66414)
(0.00219208 0.00219199 1.7989)
(0.000818886 0.00243727 1.86114)
(-0.000814965 0.00243735 1.86114)
(-0.00218841 0.00219226 1.7989)
(-0.00280175 0.00168922 1.66415)
(-0.00244204 0.00109466 1.44189)
(0.00276731 0.00041484 1.50045)
(0.00317843 0.000638892 1.72646)
(0.00243734 0.000818802 1.86114)
(0.000888381 0.0008883 1.91993)
(-0.000884571 0.000888329 1.91993)
(-0.00243375 0.000818885 1.86114)
(-0.00317537 0.000639029 1.72646)
(-0.00276505 0.000415023 1.50046)
(0.0027675 -0.000410887 1.50045)
(0.00317858 -0.000635002 1.72646)
(0.00243743 -0.000815046 1.86114)
(0.00088841 -0.000884651 1.91993)
(-0.000884603 -0.000884686 1.91993)
(-0.00243384 -0.000815148 1.86114)
(-0.00317552 -0.00063517 1.72646)
(-0.00276525 -0.000411105 1.50046)
(0.00244492 -0.00109043 1.44188)
(0.00280532 -0.00168515 1.66414)
(0.00219234 -0.00218848 1.7989)
(0.000818971 -0.00243383 1.86114)
(-0.000815059 -0.00243392 1.86114)
(-0.00218868 -0.00218877 1.7989)
(-0.0028022 -0.00168562 1.66415)
(-0.0024426 -0.00109102 1.44189)
(0.00190505 -0.00140261 1.3259)
(0.00214724 -0.00214336 1.53424)
(0.0016893 -0.00280181 1.66415)
(0.00063912 -0.00317543 1.72646)
(-0.000635073 -0.00317559 1.72646)
(-0.00168552 -0.00280228 1.66415)
(-0.002144 -0.00214409 1.53424)
(-0.00190262 -0.0014035 1.32591)
(0.00130341 -0.00130004 1.15562)
(0.00140668 -0.0019018 1.3259)
(0.00109474 -0.00244208 1.44189)
(0.000415117 -0.0027651 1.50046)
(-0.000411002 -0.0027653 1.50046)
(-0.00109092 -0.00244267 1.44189)
(-0.00140341 -0.00190269 1.32591)
(-0.00130096 -0.00130104 1.15563)
(0.000793784 0.000793536 1.15295)
(0.000790909 0.00108302 1.32432)
(0.000584828 0.00132402 1.44145)
(0.000218818 0.00146588 1.50076)
(-0.000210235 0.0014663 1.50077)
(-0.000576855 0.00132523 1.44146)
(-0.000784092 0.00108484 1.32433)
(-0.000788715 0.000795567 1.15296)
(0.00108323 0.000790621 1.32432)
(0.00111109 0.00111085 1.53466)
(0.000836972 0.00139267 1.66656)
(0.000313627 0.00155575 1.73012)
(-0.000305145 0.00155608 1.73012)
(-0.000829065 0.00139365 1.66657)
(-0.00110433 0.00111237 1.53467)
(-0.00107816 0.000792441 1.32433)
(0.00132418 0.000584534 1.44145)
(0.00139285 0.000836732 1.66656)
(0.00105561 0.00105542 1.80408)
(0.000392563 0.00116722 1.86797)
(-0.000384376 0.00116742 1.86797)
(-0.00104796 0.00105601 1.80409)
(-0.00138633 0.000837687 1.66657)
(-0.00131935 0.000585736 1.44147)
(0.00146599 0.000218537 1.50076)
(0.00155589 0.000313396 1.73012)
(0.00116738 0.000392372 1.86797)
(0.000424317 0.000424152 1.92846)
(-0.000416374 0.000424221 1.92846)
(-0.00115991 0.000392568 1.86797)
(-0.00154952 0.000313716 1.73013)
(-0.0014613 0.00021896 1.50078)
(0.00146638 -0.00021049 1.50077)
(0.0015562 -0.000305359 1.73012)
(0.00116756 -0.000384557 1.86797)
(0.000424375 -0.000416535 1.92846)
(-0.000416448 -0.000416606 1.92846)
(-0.0011601 -0.000384758 1.86797)
(-0.00154984 -0.000305681 1.73013)
(-0.0014617 -0.000210895 1.50078)
(0.00132528 -0.000577074 1.44146)
(0.00139375 -0.000829251 1.66657)
(0.00105615 -0.00104812 1.80409)
(0.000392724 -0.00116006 1.86797)
(-0.000384592 -0.00116025 1.86797)
(-0.00104855 -0.00104871 1.80409)
(-0.00138727 -0.000830198 1.66658)
(-0.00132049 -0.000578248 1.44147)
(0.00108488 -0.000784266 1.32433)
(0.00111246 -0.00110448 1.53467)
(0.000837821 -0.00138646 1.66657)
(0.00031388 -0.00154965 1.73013)
(-0.000305501 -0.00154998 1.73013)
(-0.000830014 -0.00138742 1.66658)
(-0.00110579 -0.00110597 1.53468)
(-0.00107989 -0.000786043 1.32434)
(0.000795605 -0.000788836 1.15296)
(0.000792528 -0.00107826 1.32433)
(0.000585867 -0.00131944 1.44147)
(0.000219128 -0.00146139 1.50078)
(-0.000210703 -0.00146181 1.50078)
(-0.000578047 -0.00132062 1.44147)
(-0.00078585 -0.00108004 1.32434)
(-0.000790647 -0.000790807 1.15297)
(0.000343907 0.000343356 1.15208)
(0.000352838 0.000482597 1.3239)
(0.000267452 0.000601598 1.44152)
(0.000104805 0.000672286 1.50115)
(-8.84802e-05 0.000673064 1.50115)
(-0.000252331 0.000603793 1.44153)
(-0.00033997 0.000485871 1.32392)
(-0.000334392 0.000346899 1.1521)
(0.000483092 0.000352176 1.3239)
(0.000510793 0.000510221 1.5351)
(0.000391082 0.000648024 1.66788)
(0.000151142 0.00072779 1.73198)
(-0.000134594 0.000728426 1.73199)
(-0.000375692 0.000649864 1.66789)
(-0.000497686 0.000513023 1.53513)
(-0.000473319 0.000355458 1.32392)
(0.000601983 0.000266761 1.44152)
(0.000648479 0.000390488 1.66788)
(0.000496733 0.000496252 1.80661)
(0.000189134 0.000551232 1.87123)
(-0.000172939 0.000551619 1.87123)
(-0.000481618 0.000497412 1.80663)
(-0.000635627 0.000392311 1.6679)
(-0.000592502 0.000268992 1.44155)
(0.000672564 0.000104132 1.50115)
(0.000728137 0.000150562 1.73198)
(0.000551618 0.000188656 1.87123)
(0.000204822 0.000204425 1.93251)
(-0.000189028 0.000204571 1.93251)
(-0.000536784 0.000189067 1.87124)
(-0.00071552 0.000151222 1.73201)
(-0.000663292 0.000104976 1.50118)
(0.000673246 -8.90971e-05 1.50115)
(0.000728687 -0.000135131 1.73199)
(0.000551938 -0.000173391 1.87123)
(0.000204917 -0.000189416 1.93251)
(-0.000189186 -0.00018954 1.93251)
(-0.000537166 -0.000173735 1.87125)
(-0.000716128 -0.000135669 1.73201)
(-0.000664025 -8.97485e-05 1.50118)
(0.000603901 -0.000252862 1.44153)
(0.000650062 -0.000376162 1.66789)
(0.000497685 -0.000482021 1.80663)
(0.000189389 -0.000537142 1.87124)
(-0.00017339 -0.000537505 1.87124)
(-0.000482762 -0.000483105 1.80664)
(-0.000637391 -0.000377851 1.66791)
(-0.000594575 -0.000254892 1.44156)
(0.000485929 -0.000340397 1.32392)
(0.000513177 -0.000498064 1.53512)
(0.000392553 -0.000635954 1.6679)
(0.00015153 -0.000715819 1.732)
(-0.000135322 -0.000716424 1.73201)
(-0.000377494 -0.000637702 1.66791)
(-0.000500378 -0.000500712 1.53515)
(-0.000476416 -0.000343468 1.32394)
(0.000346932 -0.000334692 1.1521)
(0.000355577 -0.000473582 1.32392)
(0.000269198 -0.000592728 1.44155)
(0.00010526 -0.000663505 1.50118)
(-8.94122e-05 -0.000664247 1.50118)
(-0.000254536 -0.00059482 1.44156)
(-0.00034313 -0.000476687 1.32394)
(-0.00033776 -0.000338033 1.15212)
(0.000188874 0.000188067 1.15151)
(0.000191111 0.000258325 1.32358)
(0.000145661 0.000317056 1.44147)
(6.27948e-05 0.000352068 1.50127)
(-3.52905e-05 0.00035328 1.50128)
(-0.000120274 0.000320444 1.44149)
(-0.000169645 0.00026328 1.32362)
(-0.000173117 0.00019325 1.15155)
(0.000259129 0.000190075 1.32358)
(0.000268345 0.000267347 1.53526)
(0.000205686 0.000334041 1.66848)
(8.56428e-05 0.000372835 1.73286)
(-5.66421e-05 0.000373868 1.73287)
(-0.000178807 0.000336997 1.66851)
(-0.000245598 0.000271755 1.5353)
(-0.000242306 0.000195069 1.32363)
(0.000317738 0.000144526 1.44147)
(0.000334898 0.000204601 1.66848)
(0.000256393 0.000255451 1.80782)
(0.000103877 0.000281972 1.87279)
(-7.47858e-05 0.000282628 1.8728)
(-0.000229316 0.000257386 1.80785)
(-0.000311985 0.000207573 1.66852)
(-0.000300926 0.000148041 1.44152)
(0.000352594 6.16497e-05 1.50127)
(0.000373517 8.45503e-05 1.73286)
(0.000282747 0.000102919 1.87279)
(0.000111261 0.000110454 1.93445)
(-8.25705e-05 0.000110721 1.93446)
(-0.000255864 0.000103662 1.87282)
(-0.000350737 8.57145e-05 1.7329)
(-0.000335913 6.30864e-05 1.50132)
(0.00035364 -3.63683e-05 1.50127)
(0.000374377 -5.7677e-05 1.73287)
(0.000283246 -7.57045e-05 1.8728)
(0.000111394 -8.33616e-05 1.93446)
(-8.28563e-05 -8.35394e-05 1.93447)
(-0.000256513 -7.61859e-05 1.87282)
(-0.000351735 -5.8411e-05 1.73291)
(-0.000337074 -3.72157e-05 1.50133)
(0.000320658 -0.000121226 1.44149)
(0.000337352 -0.000179729 1.66851)
(0.000257865 -0.000230146 1.80785)
(0.000104223 -0.000256595 1.87282)
(-7.55918e-05 -0.00025716 1.87282)
(-0.000231235 -0.000231811 1.80787)
(-0.000314853 -0.000182264 1.66855)
(-0.000304184 -0.000124156 1.44155)
(0.000263375 -0.000170438 1.32362)
(0.000271974 -0.000246364 1.5353)
(0.000207919 -0.000312675 1.66852)
(8.61587e-05 -0.000351352 1.7329)
(-5.79152e-05 -0.000352289 1.73291)
(-0.000181772 -0.000315352 1.66855)
(-0.000249898 -0.000250325 1.53534)
(-0.000247091 -0.000174869 1.32367)
(0.000193265 -0.000173711 1.15155)
(0.00019516 -0.000242875 1.32363)
(0.000148234 -0.000301434 1.44152)
(6.33755e-05 -0.000336366 1.50132)
(-3.6866e-05 -0.000337484 1.50133)
(-0.000123798 -0.000304552 1.44155)
(-0.000174559 -0.000247399 1.32367)
(-0.000178198 -0.000178406 1.15159)
(9.49497e-05 9.45551e-05 1.15124)
(0.000100184 0.000130273 1.32344)
(8.16308e-05 0.00016071 1.44145)
(4.35729e-05 0.000179366 1.50133)
(-3.16181e-06 0.00018092 1.50135)
(-4.44884e-05 0.000165007 1.4415)
(-6.90213e-05 0.000136386 1.3235)
(-7.22568e-05 0.000100654 1.15132)
(0.000130865 9.95057e-05 1.32343)
(0.000140746 0.000139856 1.53534)
(0.000113814 0.000174665 1.66878)
(5.69507e-05 0.000195227 1.7333)
(-1.22409e-05 0.000196616 1.73332)
(-7.25492e-05 0.000178594 1.66883)
(-0.000106096 0.000145559 1.53541)
(-0.000105466 0.000105692 1.32353)
(0.000161346 8.07466e-05 1.44145)
(0.000175573 0.00011272 1.66878)
(0.000140466 0.000139381 1.80842)
(6.69811e-05 0.000153451 1.87357)
(-2.0722e-05 0.000154372 1.87359)
(-9.75606e-05 0.000142057 1.80847)
(-0.000139495 0.000116724 1.66886)
(-0.000135061 8.52786e-05 1.44155)
(0.000179931 4.2572e-05 1.50133)
(0.000196007 5.57587e-05 1.7333)
(0.00015438 6.58167e-05 1.87357)
(7.09455e-05 6.99502e-05 1.93542)
(-2.46521e-05 7.0352e-05 1.93544)
(-0.000111129 6.69212e-05 1.87362)
(-0.000159548 5.74422e-05 1.73338)
(-0.00015339 4.45601e-05 1.50143)
(0.000181337 -4.18946e-06 1.50135)
(0.000197183 -1.34346e-05 1.73331)
(0.000155062 -2.18777e-05 1.87359)
(7.11049e-05 -2.56412e-05 1.93544)
(-2.50998e-05 -2.58515e-05 1.93545)
(-0.000112089 -2.2426e-05 1.87363)
(-0.000160979 -1.42464e-05 1.73339)
(-0.000155001 -5.07102e-06 1.50145)
(0.000165236 -4.54748e-05 1.44149)
(0.000178903 -7.36688e-05 1.66883)
(0.000142456 -9.86336e-05 1.80847)
(6.73779e-05 -0.000112042 1.87362)
(-2.19684e-05 -0.000112774 1.87363)
(-0.000100369 -0.000100757 1.80851)
(-0.000143569 -7.68129e-05 1.6689)
(-0.000139546 -4.89366e-05 1.44159)
(0.000136408 -6.9933e-05 1.3235)
(0.00014558 -0.000107093 1.53541)
(0.000116782 -0.000140427 1.66886)
(5.7533e-05 -0.000160318 1.73337)
(-1.41651e-05 -0.000161521 1.73339)
(-7.68028e-05 -0.000143818 1.6689)
(-0.000112091 -0.000111973 1.53548)
(-0.000111934 -7.51336e-05 1.32359)
(0.000100489 -7.30391e-05 1.15132)
(0.000105414 -0.000106292 1.32352)
(8.49471e-05 -0.0001358 1.44154)
(4.42043e-05 -0.000153965 1.50143)
(-5.46108e-06 -0.000155353 1.50144)
(-4.93907e-05 -0.000139623 1.44159)
(-7.56715e-05 -0.000111683 1.32359)
(-7.89023e-05 -7.83312e-05 1.1514)
(5.55077e-05 5.70536e-05 1.15106)
(6.10264e-05 7.64451e-05 1.32332)
(5.43054e-05 9.28586e-05 1.4414)
(3.70862e-05 0.000103276 1.50133)
(1.42791e-05 0.000104881 1.50136)
(-7.32581e-06 9.7215e-05 1.44147)
(-2.19535e-05 8.24108e-05 1.32343)
(-2.72875e-05 6.25332e-05 1.15119)
(7.53874e-05 6.25554e-05 1.32332)
(8.39282e-05 8.48328e-05 1.53534)
(7.3558e-05 0.000103872 1.6689)
(4.71005e-05 0.000115438 1.73349)
(1.29649e-05 0.000116961 1.73352)
(-1.83811e-05 0.000108102 1.66898)
(-3.79933e-05 9.07633e-05 1.53546)
(-4.20394e-05 6.85855e-05 1.32347)
(9.22599e-05 5.56049e-05 1.4414)
(0.000103408 7.42055e-05 1.6689)
(8.90537e-05 8.93267e-05 1.8087)
(5.40411e-05 9.75063e-05 1.87395)
(1.03357e-05 9.85663e-05 1.87397)
(-2.95791e-05 9.23449e-05 1.80878)
(-5.37525e-05 7.85756e-05 1.66903)
(-5.63679e-05 6.02655e-05 1.44156)
(0.000102951 3.80861e-05 1.50133)
(0.00011514 4.74913e-05 1.73349)
(9.72873e-05 5.41445e-05 1.87395)
(5.67759e-05 5.69269e-05 1.9359)
(8.74522e-06 5.74256e-05 1.93592)
(-3.627e-05 5.54855e-05 1.87402)
(-6.40123e-05 4.94729e-05 1.73362)
(-6.59757e-05 4.03029e-05 1.5015)
(0.000104639 1.49478e-05 1.50136)
(0.000116583 1.31271e-05 1.73352)
(9.81254e-05 1.03112e-05 1.87397)
(5.69544e-05 8.8553e-06 1.93592)
(8.14111e-06 8.65988e-06 1.93595)
(-3.75159e-05 9.84171e-06 1.87405)
(-6.58185e-05 1.24631e-05 1.73365)
(-6.79431e-05 1.43035e-05 1.50152)
(9.68872e-05 -7.00679e-06 1.44147)
(0.000107453 -1.84371e-05 1.66897)
(9.14737e-05 -2.97079e-05 1.80878)
(5.4463e-05 -3.61707e-05 1.87402)
(8.68506e-06 -3.6935e-05 1.87405)
(-3.31684e-05 -3.1878e-05 1.80885)
(-5.88384e-05 -2.15315e-05 1.6691)
(-6.17963e-05 -1.0167e-05 1.44163)
(8.18549e-05 -2.2006e-05 1.32342)
(8.9699e-05 -3.8286e-05 1.53546)
(7.71158e-05 -5.40028e-05 1.66902)
(4.77196e-05 -6.39392e-05 1.73362)
(1.04761e-05 -6.51867e-05 1.73365)
(-2.37074e-05 -5.74438e-05 1.6691)
(-4.53271e-05 -4.30452e-05 1.53558)
(-4.97054e-05 -2.66928e-05 1.32357)
(6.17098e-05 -2.76697e-05 1.15119)
(6.70674e-05 -4.25591e-05 1.32346)
(5.8164e-05 -5.67509e-05 1.44156)
(3.77453e-05 -6.59702e-05 1.50149)
(1.14201e-05 -6.73419e-05 1.50152)
(-1.32495e-05 -6.04535e-05 1.44163)
(-2.98058e-05 -4.75531e-05 1.32357)
(-3.48529e-05 -3.20964e-05 1.15132)
(3.33933e-05 3.88939e-05 1.15094)
(3.93536e-05 5.04776e-05 1.32322)
(3.9251e-05 6.00571e-05 1.44134)
(3.3208e-05 6.62663e-05 1.5013)
(2.30631e-05 6.7481e-05 1.50134)
(1.19254e-05 6.3234e-05 1.44145)
(2.8011e-06 5.44743e-05 1.32338)
(-3.19843e-06 4.18096e-05 1.15113)
(4.55589e-05 4.57308e-05 1.32322)
(5.43517e-05 5.98714e-05 1.5353)
(5.33159e-05 7.15717e-05 1.66892)
(4.30073e-05 7.87676e-05 1.73356)
(2.71382e-05 8.004e-05 1.73361)
(1.07856e-05 7.50094e-05 1.66904)
(-1.48731e-06 6.43831e-05 1.53548)
(-7.56515e-06 4.97169e-05 1.32344)
(5.61253e-05 4.5671e-05 1.44134)
(6.70271e-05 5.88282e-05 1.66893)
(6.43139e-05 6.89771e-05 1.80881)
(4.95773e-05 7.45328e-05 1.87412)
(2.86087e-05 7.54778e-05 1.87416)
(7.60605e-06 7.16026e-05 1.80893)
(-7.45591e-06 6.24247e-05 1.66912)
(-1.34379e-05 4.90955e-05 1.44158)
(6.31874e-05 3.91716e-05 1.5013)
(7.49252e-05 4.81373e-05 1.73357)
(7.03295e-05 5.40517e-05 1.87412)
(5.23118e-05 5.65768e-05 1.93614)
(2.87625e-05 5.70637e-05 1.93617)
(4.90953e-06 5.53178e-05 1.87423)
(-1.23149e-05 4.99251e-05 1.73376)
(-1.82561e-05 4.0999e-05 1.50155)
(6.49934e-05 2.81716e-05 1.50134)
(7.65165e-05 3.1609e-05 1.73361)
(7.12652e-05 3.26772e-05 1.87416)
(5.25088e-05 3.28843e-05 1.93617)
(2.80584e-05 3.27506e-05 1.9362)
(3.49504e-06 3.24062e-05 1.87427)
(-1.43216e-05 3.12696e-05 1.7338)
(-2.0372e-05 2.79556e-05 1.50159)
(6.10138e-05 1.58741e-05 1.44145)
(7.14466e-05 1.43404e-05 1.66904)
(6.69958e-05 1.10522e-05 1.80893)
(5.00255e-05 8.70855e-06 1.87423)
(2.67166e-05 8.10115e-06 1.87427)
(3.57099e-06 9.37519e-06 1.80905)
(-1.30454e-05 1.21176e-05 1.66924)
(-1.91935e-05 1.39548e-05 1.44169)
(5.22111e-05 5.41174e-06 1.32339)
(6.05134e-05 9.21585e-07 1.53548)
(5.71838e-05 -4.90502e-06 1.66912)
(4.36655e-05 -9.14919e-06 1.73376)
(2.43614e-05 -1.01164e-05 1.7338)
(4.94942e-06 -7.48744e-06 1.66924)
(-9.34048e-06 -2.35709e-06 1.53566)
(-1.54649e-05 2.76303e-06 1.3236)
(3.93883e-05 -1.94642e-06 1.15113)
(4.55079e-05 -6.40198e-06 1.32344)
(4.3281e-05 -1.19708e-05 1.44158)
(3.39018e-05 -1.60235e-05 1.50155)
(2.00275e-05 -1.69979e-05 1.50159)
(5.74368e-06 -1.44807e-05 1.44169)
(-5.17975e-06 -9.45069e-06 1.3236)
(-1.05369e-05 -3.87491e-06 1.15132)
(2.16142e-05 3.23267e-05 1.15084)
(2.67816e-05 4.07455e-05 1.32313)
(2.91832e-05 4.71301e-05 1.44127)
(2.81941e-05 5.10176e-05 1.50125)
(2.40779e-05 5.14382e-05 1.5013)
(1.80202e-05 4.80254e-05 1.44142)
(1.16144e-05 4.12564e-05 1.32335)
(5.61248e-06 3.12175e-05 1.15109)
(3.00879e-05 3.99788e-05 1.32313)
(3.81296e-05 5.10006e-05 1.53524)
(4.12157e-05 5.94975e-05 1.6689)
(3.87394e-05 6.44661e-05 1.73357)
(3.19105e-05 6.50951e-05 1.73362)
(2.2963e-05 6.10462e-05 1.66906)
(1.42141e-05 5.25544e-05 1.53548)
(7.07949e-06 4.03345e-05 1.32343)
(3.76701e-05 4.3206e-05 1.44128)
(4.77687e-05 5.49157e-05 1.6689)
(5.05935e-05 6.33586e-05 1.80884)
(4.6001e-05 6.78163e-05 1.87418)
(3.64784e-05 6.83659e-05 1.87423)
(2.49176e-05 6.47883e-05 1.809)
(1.42203e-05 5.65766e-05 1.66916)
(6.3083e-06 4.41475e-05 1.4416)
(4.29274e-05 4.18486e-05 1.50126)
(5.39345e-05 5.21806e-05 1.73357)
(5.58746e-05 5.88111e-05 1.87418)
(4.92606e-05 6.16555e-05 1.93624)
(3.8137e-05 6.19946e-05 1.93629)
(2.49274e-05 5.96234e-05 1.87434)
(1.27919e-05 5.32122e-05 1.73384)
(4.54188e-06 4.26639e-05 1.50159)
(4.45791e-05 3.63035e-05 1.50132)
(5.54744e-05 4.41712e-05 1.73363)
(5.68163e-05 4.85264e-05 1.87424)
(4.94883e-05 5.02509e-05 1.93629)
(3.74521e-05 5.02112e-05 1.93634)
(2.35608e-05 4.85396e-05 1.8744)
(1.08981e-05 4.42731e-05 1.7339)
(2.64507e-06 3.66368e-05 1.50165)
(4.20464e-05 2.79903e-05 1.44143)
(5.19743e-05 3.32291e-05 1.66907)
(5.32528e-05 3.54409e-05 1.80901)
(4.65104e-05 3.60884e-05 1.87435)
(3.46973e-05 3.58196e-05 1.87441)
(2.10849e-05 3.47788e-05 1.80918)
(9.04415e-06 3.26135e-05 1.66934)
(1.26813e-06 2.80928e-05 1.44175)
(3.57577e-05 1.88416e-05 1.32337)
(4.37691e-05 2.18431e-05 1.5355)
(4.49317e-05 2.24362e-05 1.66918)
(3.94811e-05 2.20785e-05 1.73385)
(2.93973e-05 2.16886e-05 1.73391)
(1.76293e-05 2.15375e-05 1.66934)
(7.25013e-06 2.11655e-05 1.53575)
(5.16389e-07 1.93489e-05 1.32366)
(2.60679e-05 9.99182e-06 1.15111)
(3.19592e-05 1.17896e-05 1.32345)
(3.27946e-05 1.1703e-05 1.44162)
(2.8948e-05 1.11789e-05 1.50161)
(2.15283e-05 1.093e-05 1.50166)
(1.27855e-05 1.12687e-05 1.44176)
(5.12726e-06 1.18967e-05 1.32366)
(2.92017e-07 1.16847e-05 1.15136)
(1.39305e-05 2.89304e-05 1.15075)
(1.73275e-05 3.65558e-05 1.32304)
(1.97481e-05 4.17439e-05 1.44119)
(2.03473e-05 4.43374e-05 1.50119)
(1.87211e-05 4.37108e-05 1.50125)
(1.51326e-05 3.9699e-05 1.44137)
(1.04773e-05 3.27611e-05 1.32331)
(5.49931e-06 2.31896e-05 1.15106)
(2.01702e-05 3.67402e-05 1.32305)
(2.64932e-05 4.73412e-05 1.53517)
(3.05308e-05 5.49363e-05 1.66884)
(3.12316e-05 5.88419e-05 1.73353)
(2.85805e-05 5.85502e-05 1.7336)
(2.33669e-05 5.3852e-05 1.66905)
(1.68052e-05 4.49784e-05 1.53547)
(1.00947e-05 3.26285e-05 1.32341)
(2.5927e-05 4.12556e-05 1.44121)
(3.44292e-05 5.3688e-05 1.66886)
(3.91411e-05 6.22694e-05 1.80882)
(3.9143e-05 6.64786e-05 1.87418)
(3.52074e-05 6.64145e-05 1.87425)
(2.85283e-05 6.19027e-05 1.80902)
(2.04985e-05 5.26137e-05 1.66918)
(1.25438e-05 3.89794e-05 1.44161)
(2.98558e-05 4.20124e-05 1.50122)
(3.94916e-05 5.47033e-05 1.73355)
(4.40644e-05 6.29481e-05 1.87419)
(4.2932e-05 6.64987e-05 1.93628)
(3.80815e-05 6.65676e-05 1.93634)
(3.04978e-05 6.29819e-05 1.8744)
(2.15058e-05 5.45385e-05 1.73389)
(1.30453e-05 4.13923e-05 1.50163)
(3.08762e-05 3.86835e-05 1.50129)
(4.06077e-05 5.05396e-05 1.73364)
(4.48143e-05 5.79916e-05 1.87427)
(4.3165e-05 6.12561e-05 1.93635)
(3.75747e-05 6.13151e-05 1.93641)
(2.95012e-05 5.82891e-05 1.87448)
(2.0199e-05 5.10828e-05 1.73397)
(1.19083e-05 3.95509e-05 1.5017)
(2.84381e-05 3.1912e-05 1.44142)
(3.73405e-05 4.2215e-05 1.66909)
(4.11785e-05 4.87099e-05 1.80906)
(3.96388e-05 5.18467e-05 1.87442)
(3.39836e-05 5.20234e-05 1.87449)
(2.58417e-05 4.93601e-05 1.80926)
(1.70932e-05 4.36e-05 1.66942)
(9.73732e-06 3.43686e-05 1.44182)