/*--------------------------------*- C++ -*----------------------------------*\
| =========                 |                                                 |
| \\      /  F ield         | OpenFOAM: The Open Source CFD Toolbox           |
|  \\    /   O peration     | Version:  2406                                  |
|   \\  /    A nd           | Website:  www.openfoam.com                      |
|    \\/     M anipulation  |                                                 |
\*---------------------------------------------------------------------------*/
FoamFile
{
    version     2.0;
    format      ascii;
    arch        "LSB;label=32;scalar=64";
    class       volVectorField;
    location    "3.5";
    object      U;
}
// * * * * * * * * * * * * * * * * * * * * * * * * * * * * * * * * * * * * * //

dimensions      [0 1 -1 0 0 0 0];

internalField   nonuniform List<vector> 
16000
(
(0.153132 0.153132 1.11474)
(0.117573 0.168169 1.1542)
(0.072459 0.17688 1.17285)
(0.0244946 0.180953 1.18018)
(-0.0244946 0.180953 1.18018)
(-0.072459 0.17688 1.17285)
(-0.117573 0.168169 1.1542)
(-0.153132 0.153132 1.11474)
(0.168169 0.117573 1.1542)
(0.126109 0.126109 1.18728)
(0.0766337 0.131081 1.19757)
(0.0257137 0.133402 1.19978)
(-0.0257137 0.133402 1.19978)
(-0.0766337 0.131081 1.19757)
(-0.126109 0.126109 1.18728)
(-0.168169 0.117573 1.1542)
(0.17688 0.072459 1.17285)
(0.131081 0.0766337 1.19757)
(0.0792027 0.0792027 1.20176)
(0.0264749 0.0803911 1.20065)
(-0.0264749 0.0803911 1.20065)
(-0.0792027 0.0792027 1.20176)
(-0.131081 0.0766337 1.19757)
(-0.17688 0.072459 1.17285)
(0.180953 0.0244946 1.18018)
(0.133402 0.0257137 1.19978)
(0.0803911 0.0264749 1.20065)
(0.0268183 0.0268183 1.1979)
(-0.0268183 0.0268183 1.1979)
(-0.0803911 0.0264749 1.20065)
(-0.133402 0.0257137 1.19978)
(-0.180953 0.0244946 1.18018)
(0.180953 -0.0244946 1.18018)
(0.133402 -0.0257137 1.19978)
(0.0803911 -0.0264749 1.20065)
(0.0268183 -0.0268183 1.1979)
(-0.0268183 -0.0268183 1.1979)
(-0.0803911 -0.0264749 1.20065)
(-0.133402 -0.0257137 1.19978)
(-0.180953 -0.0244946 1.18018)
(0.17688 -0.072459 1.17285)
(0.131081 -0.0766337 1.19757)
(0.0792027 -0.0792027 1.20176)
(0.0264749 -0.0803911 1.20065)
(-0.0264749 -0.0803911 1.20065)
(-0.0792027 -0.0792027 1.20176)
(-0.131081 -0.0766337 1.19757)
(-0.17688 -0.072459 1.17285)
(0.168169 -0.117573 1.1542)
(0.126109 -0.126109 1.18728)
(0.0766337 -0.131081 1.19757)
(0.0257137 -0.133402 1.19978)
(-0.0257137 -0.133402 1.19978)
(-0.0766337 -0.131081 1.19757)
(-0.126109 -0.126109 1.18728)
(-0.168169 -0.117573 1.1542)
(0.153132 -0.153132 1.11474)
(0.117573 -0.168169 1.1542)
(0.072459 -0.17688 1.17285)
(0.0244946 -0.180953 1.18018)
(-0.0244946 -0.180953 1.18018)
(-0.072459 -0.17688 1.17285)
(-0.117573 -0.168169 1.1542)
(-0.153132 -0.153132 1.11474)
(0.0494154 0.0494154 1.29062)
(0.0414003 0.0615755 1.3895)
(0.0279271 0.0703803 1.44408)
(0.00984083 0.075171 1.46809)
(-0.00984083 0.075171 1.46809)
(-0.027927 0.0703803 1.44408)
(-0.0414003 0.0615755 1.3895)
(-0.0494154 0.0494154 1.29062)
(0.0615755 0.0414003 1.3895)
(0.0531611 0.0531611 1.48728)
(0.0357288 0.0616406 1.53241)
(0.0125458 0.0660227 1.54992)
(-0.0125458 0.0660227 1.54992)
(-0.0357288 0.0616406 1.53241)
(-0.0531611 0.0531611 1.48728)
(-0.0615755 0.0414003 1.3895)
(0.0703803 0.0279271 1.44408)
(0.0616406 0.0357288 1.53241)
(0.0413007 0.0413007 1.57006)
(0.0144349 0.0441146 1.5832)
(-0.0144349 0.0441146 1.5832)
(-0.0413007 0.0413007 1.57006)
(-0.0616406 0.0357288 1.53241)
(-0.0703803 0.0279271 1.44408)
(0.075171 0.00984083 1.46809)
(0.0660227 0.0125458 1.54992)
(0.0441146 0.0144349 1.5832)
(0.0153734 0.0153734 1.59386)
(-0.0153734 0.0153734 1.59386)
(-0.0441146 0.0144349 1.5832)
(-0.0660227 0.0125458 1.54992)
(-0.0751711 0.00984083 1.46809)
(0.075171 -0.00984083 1.46809)
(0.0660227 -0.0125458 1.54992)
(0.0441146 -0.0144349 1.5832)
(0.0153734 -0.0153734 1.59386)
(-0.0153734 -0.0153734 1.59386)
(-0.0441146 -0.0144349 1.5832)
(-0.0660227 -0.0125458 1.54992)
(-0.075171 -0.00984083 1.46809)
(0.0703803 -0.027927 1.44408)
(0.0616406 -0.0357288 1.53241)
(0.0413007 -0.0413007 1.57006)
(0.0144349 -0.0441146 1.5832)
(-0.0144349 -0.0441146 1.5832)
(-0.0413007 -0.0413007 1.57006)
(-0.0616406 -0.0357288 1.53241)
(-0.0703803 -0.027927 1.44408)
(0.0615755 -0.0414003 1.3895)
(0.0531611 -0.0531611 1.48728)
(0.0357288 -0.0616406 1.53241)
(0.0125458 -0.0660227 1.54992)
(-0.0125458 -0.0660227 1.54992)
(-0.0357288 -0.0616406 1.53241)
(-0.0531611 -0.0531611 1.48728)
(-0.0615755 -0.0414003 1.3895)
(0.0494154 -0.0494154 1.29062)
(0.0414003 -0.0615755 1.3895)
(0.027927 -0.0703803 1.44408)
(0.00984083 -0.075171 1.46809)
(-0.00984083 -0.075171 1.46809)
(-0.027927 -0.0703803 1.44408)
(-0.0414003 -0.0615755 1.3895)
(-0.0494154 -0.0494154 1.29062)
(0.0295334 0.0295334 1.18369)
(0.0263057 0.0381217 1.33605)
(0.0179588 0.0440247 1.43119)
(0.00638113 0.0472238 1.47636)
(-0.00638113 0.0472238 1.47636)
(-0.0179588 0.0440247 1.43119)
(-0.0263057 0.0381217 1.33605)
(-0.0295334 0.0295334 1.18369)
(0.0381217 0.0263057 1.33605)
(0.03387 0.03387 1.50686)
(0.0231033 0.0393329 1.60045)
(0.00819889 0.042227 1.64149)
(-0.00819889 0.042227 1.64149)
(-0.0231033 0.0393329 1.60045)
(-0.03387 0.03387 1.50686)
(-0.0381217 0.0263057 1.33605)
(0.0440247 0.0179588 1.43119)
(0.0393329 0.0231033 1.60045)
(0.0268026 0.0268026 1.68906)
(0.00948465 0.028713 1.72654)
(-0.00948465 0.028713 1.72654)
(-0.0268026 0.0268026 1.68906)
(-0.0393329 0.0231033 1.60045)
(-0.0440247 0.0179588 1.43119)
(0.0472238 0.00638113 1.47636)
(0.042227 0.00819889 1.64149)
(0.028713 0.00948465 1.72654)
(0.0101528 0.0101528 1.76219)
(-0.0101528 0.0101528 1.76219)
(-0.028713 0.00948465 1.72654)
(-0.042227 0.00819889 1.64149)
(-0.0472238 0.00638113 1.47636)
(0.0472238 -0.00638113 1.47636)
(0.042227 -0.00819889 1.64149)
(0.028713 -0.00948464 1.72654)
(0.0101528 -0.0101528 1.76219)
(-0.0101528 -0.0101528 1.76219)
(-0.028713 -0.00948464 1.72654)
(-0.042227 -0.00819889 1.64149)
(-0.0472238 -0.00638113 1.47636)
(0.0440247 -0.0179588 1.43119)
(0.0393329 -0.0231033 1.60045)
(0.0268026 -0.0268026 1.68906)
(0.00948465 -0.028713 1.72654)
(-0.00948465 -0.028713 1.72654)
(-0.0268026 -0.0268026 1.68906)
(-0.0393329 -0.0231033 1.60045)
(-0.0440247 -0.0179588 1.43119)
(0.0381217 -0.0263057 1.33605)
(0.03387 -0.03387 1.50686)
(0.0231033 -0.0393329 1.60045)
(0.00819889 -0.042227 1.64149)
(-0.00819889 -0.042227 1.64149)
(-0.0231033 -0.0393329 1.60045)
(-0.03387 -0.03387 1.50686)
(-0.0381217 -0.0263057 1.33605)
(0.0295334 -0.0295334 1.18369)
(0.0263057 -0.0381217 1.33605)
(0.0179588 -0.0440247 1.43119)
(0.00638113 -0.0472238 1.47636)
(-0.00638113 -0.0472238 1.47636)
(-0.0179588 -0.0440247 1.43119)
(-0.0263057 -0.0381217 1.33605)
(-0.0295334 -0.0295334 1.18369)
(0.00607788 0.00607788 1.17735)
(0.00678721 0.00932593 1.34012)
(0.00531535 0.0121436 1.44756)
(0.00200434 0.0137879 1.50053)
(-0.00200434 0.0137879 1.50053)
(-0.00531535 0.0121436 1.44756)
(-0.00678721 0.00932593 1.34012)
(-0.00607788 0.00607788 1.17735)
(0.00932593 0.00678721 1.34012)
(0.0106419 0.010642 1.53329)
(0.0082524 0.0137676 1.64786)
(0.00308277 0.0154575 1.70082)
(-0.00308277 0.0154575 1.70082)
(-0.0082524 0.0137676 1.64786)
(-0.010642 0.010642 1.53329)
(-0.00932593 0.00678721 1.34012)
(0.0121436 0.00531535 1.44756)
(0.0137676 0.0082524 1.64786)
(0.0104758 0.0104758 1.76219)
(0.00386311 0.0115575 1.81303)
(-0.00386311 0.0115575 1.81303)
(-0.0104758 0.0104758 1.76219)
(-0.0137676 0.0082524 1.64786)
(-0.0121436 0.00531535 1.44756)
(0.0137879 0.00200435 1.50053)
(0.0154575 0.00308277 1.70082)
(0.0115575 0.00386311 1.81303)
(0.00421153 0.00421154 1.8613)
(-0.00421153 0.00421154 1.8613)
(-0.0115575 0.00386311 1.81303)
(-0.0154575 0.00308277 1.70082)
(-0.0137879 0.00200435 1.50053)
(0.0137879 -0.00200434 1.50053)
(0.0154575 -0.00308276 1.70082)
(0.0115575 -0.0038631 1.81303)
(0.00421153 -0.00421153 1.8613)
(-0.00421153 -0.00421153 1.8613)
(-0.0115575 -0.0038631 1.81303)
(-0.0154575 -0.00308276 1.70082)
(-0.0137879 -0.00200434 1.50053)
(0.0121436 -0.00531535 1.44756)
(0.0137676 -0.00825239 1.64786)
(0.0104758 -0.0104758 1.76219)
(0.00386311 -0.0115575 1.81303)
(-0.00386311 -0.0115575 1.81303)
(-0.0104758 -0.0104758 1.76219)
(-0.0137676 -0.00825239 1.64786)
(-0.0121436 -0.00531535 1.44756)
(0.00932593 -0.00678721 1.34012)
(0.0106419 -0.0106419 1.53329)
(0.0082524 -0.0137676 1.64786)
(0.00308277 -0.0154575 1.70082)
(-0.00308277 -0.0154575 1.70082)
(-0.0082524 -0.0137676 1.64786)
(-0.010642 -0.0106419 1.53329)
(-0.00932593 -0.00678721 1.34012)
(0.00607788 -0.00607788 1.17735)
(0.00678721 -0.00932592 1.34012)
(0.00531535 -0.0121436 1.44756)
(0.00200434 -0.0137879 1.50053)
(-0.00200434 -0.0137879 1.50053)
(-0.00531535 -0.0121436 1.44756)
(-0.00678721 -0.00932593 1.34012)
(-0.00607788 -0.00607788 1.17735)
(0.00420928 0.00420929 1.15879)
(0.00417758 0.00573707 1.32761)
(0.00305281 0.00697193 1.44156)
(0.00112169 0.00767951 1.4987)
(-0.00112169 0.00767951 1.4987)
(-0.00305281 0.00697193 1.44156)
(-0.00417758 0.00573707 1.32761)
(-0.00420929 0.00420929 1.15879)
(0.00573707 0.00417758 1.32761)
(0.0058271 0.0058271 1.53244)
(0.00432306 0.00720708 1.65824)
(0.00159285 0.00796351 1.71788)
(-0.00159285 0.00796351 1.71788)
(-0.00432306 0.00720708 1.65824)
(-0.0058271 0.0058271 1.53244)
(-0.00573707 0.00417758 1.32761)
(0.00697193 0.00305281 1.44156)
(0.00720707 0.00432306 1.65824)
(0.00533722 0.00533722 1.7871)
(0.00194952 0.00580511 1.84585)
(-0.00194952 0.00580511 1.84585)
(-0.00533722 0.00533722 1.7871)
(-0.00720707 0.00432306 1.65824)
(-0.00697193 0.00305281 1.44156)
(0.00767951 0.00112169 1.4987)
(0.00796351 0.00159285 1.71788)
(0.00580511 0.00194952 1.84585)
(0.00208328 0.00208328 1.90127)
(-0.00208328 0.00208328 1.90127)
(-0.00580511 0.00194952 1.84585)
(-0.00796351 0.00159285 1.71788)
(-0.00767951 0.00112169 1.4987)
(0.00767951 -0.00112169 1.4987)
(0.00796351 -0.00159285 1.71788)
(0.00580511 -0.00194951 1.84585)
(0.00208328 -0.00208328 1.90127)
(-0.00208328 -0.00208328 1.90127)
(-0.00580511 -0.00194951 1.84585)
(-0.00796351 -0.00159285 1.71788)
(-0.00767951 -0.00112169 1.4987)
(0.00697193 -0.00305281 1.44156)
(0.00720707 -0.00432305 1.65824)
(0.00533722 -0.00533722 1.7871)
(0.00194952 -0.0058051 1.84585)
(-0.00194952 -0.0058051 1.84585)
(-0.00533722 -0.00533722 1.7871)
(-0.00720707 -0.00432305 1.65824)
(-0.00697193 -0.00305281 1.44156)
(0.00573707 -0.00417758 1.32761)
(0.0058271 -0.0058271 1.53244)
(0.00432306 -0.00720707 1.65824)
(0.00159285 -0.0079635 1.71788)
(-0.00159285 -0.0079635 1.71788)
(-0.00432306 -0.00720707 1.65824)
(-0.0058271 -0.0058271 1.53244)
(-0.00573707 -0.00417758 1.32761)
(0.00420928 -0.00420928 1.15879)
(0.00417758 -0.00573707 1.32761)
(0.00305281 -0.00697193 1.44156)
(0.00112169 -0.00767951 1.4987)
(-0.00112169 -0.00767951 1.4987)
(-0.00305281 -0.00697193 1.44156)
(-0.00417758 -0.00573707 1.32761)
(-0.00420928 -0.00420928 1.15879)
(0.00130174 0.00130174 1.15563)
(0.00140465 0.00190345 1.3259)
(0.00109256 0.00244352 1.44189)
(0.000412967 0.00276631 1.50046)
(-0.000412967 0.00276631 1.50046)
(-0.00109256 0.00244352 1.44189)
(-0.00140465 0.00190345 1.3259)
(-0.00130174 0.00130174 1.15563)
(0.00190345 0.00140465 1.3259)
(0.00214529 0.0021453 1.53424)
(0.0016872 0.00280356 1.66415)
(0.000637026 0.00317699 1.72646)
(-0.000637026 0.00317699 1.72646)
(-0.0016872 0.00280356 1.66415)
(-0.0021453 0.0021453 1.53424)
(-0.00190345 0.00140465 1.3259)
(0.00244352 0.00109257 1.44189)
(0.00280355 0.0016872 1.66415)
(0.00219038 0.00219038 1.7989)
(0.000816972 0.0024356 1.86114)
(-0.000816972 0.0024356 1.86114)
(-0.00219038 0.00219038 1.7989)
(-0.00280356 0.0016872 1.66415)
(-0.00244352 0.00109257 1.44189)
(0.00276631 0.00041297 1.50046)
(0.00317699 0.000637029 1.72646)
(0.0024356 0.000816975 1.86114)
(0.000886492 0.000886495 1.91993)
(-0.000886493 0.000886495 1.91993)
(-0.0024356 0.000816975 1.86114)
(-0.00317699 0.000637029 1.72646)
(-0.00276631 0.00041297 1.50046)
(0.00276631 -0.000412964 1.50046)
(0.00317699 -0.000637022 1.72646)
(0.0024356 -0.000816969 1.86114)
(0.000886492 -0.00088649 1.91993)
(-0.000886493 -0.00088649 1.91993)
(-0.0024356 -0.000816969 1.86114)
(-0.00317699 -0.000637022 1.72646)
(-0.00276631 -0.000412964 1.50046)
(0.00244352 -0.00109256 1.44189)
(0.00280355 -0.00168719 1.66415)
(0.00219038 -0.00219038 1.7989)
(0.000816972 -0.00243559 1.86114)
(-0.000816972 -0.00243559 1.86114)
(-0.00219038 -0.00219038 1.7989)
(-0.00280356 -0.00168719 1.66415)
(-0.00244352 -0.00109256 1.44189)
(0.00190345 -0.00140464 1.3259)
(0.00214529 -0.00214529 1.53424)
(0.0016872 -0.00280355 1.66415)
(0.000637026 -0.00317699 1.72646)
(-0.000637026 -0.00317699 1.72646)
(-0.0016872 -0.00280355 1.66415)
(-0.00214529 -0.00214529 1.53424)
(-0.00190345 -0.00140465 1.3259)
(0.00130174 -0.00130174 1.15563)
(0.00140465 -0.00190345 1.3259)
(0.00109256 -0.00244351 1.44189)
(0.000412967 -0.00276631 1.50046)
(-0.000412968 -0.00276631 1.50046)
(-0.00109256 -0.00244352 1.44189)
(-0.00140465 -0.00190345 1.3259)
(-0.00130174 -0.00130174 1.15563)
(0.000792204 0.000792205 1.15296)
(0.000788355 0.00108156 1.32433)
(0.000581398 0.00132234 1.44146)
(0.000214721 0.00146385 1.50077)
(-0.000214719 0.00146385 1.50077)
(-0.000581397 0.00132233 1.44146)
(-0.000788354 0.00108156 1.32433)
(-0.000792205 0.000792205 1.15296)
(0.00108156 0.000788357 1.32433)
(0.00110842 0.00110842 1.53467)
(0.000833461 0.00139004 1.66657)
(0.000309536 0.00155285 1.73013)
(-0.000309535 0.00155285 1.73013)
(-0.00083346 0.00139004 1.66657)
(-0.00110842 0.00110842 1.53467)
(-0.00108156 0.000788357 1.32433)
(0.00132233 0.000581402 1.44146)
(0.00139004 0.000833465 1.66657)
(0.00105205 0.00105206 1.80409)
(0.000388559 0.00116372 1.86797)
(-0.000388558 0.00116372 1.86797)
(-0.00105205 0.00105206 1.80409)
(-0.00139004 0.000833464 1.66657)
(-0.00132234 0.000581401 1.44146)
(0.00146384 0.000214724 1.50077)
(0.00155285 0.00030954 1.73013)
(0.00116372 0.000388563 1.86797)
(0.000420373 0.000420376 1.92846)
(-0.000420372 0.000420376 1.92846)
(-0.00116372 0.000388562 1.86797)
(-0.00155285 0.00030954 1.73013)
(-0.00146385 0.000214724 1.50077)
(0.00146384 -0.000214716 1.50077)
(0.00155285 -0.000309531 1.73013)
(0.00116372 -0.000388554 1.86797)
(0.000420373 -0.000420369 1.92846)
(-0.000420373 -0.000420369 1.92846)
(-0.00116372 -0.000388555 1.86797)
(-0.00155285 -0.000309531 1.73013)
(-0.00146385 -0.000214716 1.50077)
(0.00132233 -0.000581393 1.44146)
(0.00139004 -0.000833456 1.66657)
(0.00105205 -0.00105205 1.80409)
(0.000388559 -0.00116372 1.86797)
(-0.000388559 -0.00116372 1.86797)
(-0.00105205 -0.00105205 1.80409)
(-0.00139004 -0.000833456 1.66657)
(-0.00132233 -0.000581394 1.44146)
(0.00108156 -0.000788349 1.32433)
(0.00110841 -0.00110841 1.53467)
(0.00083346 -0.00139004 1.66657)
(0.000309535 -0.00155284 1.73013)
(-0.000309535 -0.00155284 1.73013)
(-0.00083346 -0.00139004 1.66657)
(-0.00110842 -0.00110841 1.53467)
(-0.00108156 -0.00078835 1.32433)
(0.000792201 -0.0007922 1.15296)
(0.000788352 -0.00108155 1.32433)
(0.000581397 -0.00132233 1.44146)
(0.00021472 -0.00146384 1.50077)
(-0.00021472 -0.00146384 1.50077)
(-0.000581398 -0.00132233 1.44146)
(-0.000788353 -0.00108156 1.32433)
(-0.000792203 -0.000792202 1.15296)
(0.000340736 0.000340737 1.1521)
(0.000347865 0.000479672 1.32392)
(0.000260863 0.000598211 1.44154)
(9.69832e-05 0.000668247 1.50117)
(-9.69837e-05 0.000668247 1.50117)
(-0.000260864 0.000598211 1.44154)
(-0.000347866 0.000479672 1.32392)
(-0.000340738 0.000340738 1.1521)
(0.000479667 0.000347868 1.32392)
(0.000505477 0.000505482 1.53513)
(0.000384178 0.00064285 1.6679)
(0.000143137 0.000722071 1.732)
(-0.000143138 0.000722071 1.732)
(-0.000384179 0.00064285 1.6679)
(-0.000505479 0.000505482 1.53513)
(-0.000479671 0.000347869 1.32392)
(0.000598205 0.000260867 1.44154)
(0.000642845 0.000384183 1.6679)
(0.000489664 0.000489669 1.80663)
(0.0001812 0.000544341 1.87124)
(-0.0001812 0.000544341 1.87124)
(-0.000489665 0.000489668 1.80663)
(-0.000642846 0.000384184 1.6679)
(-0.000598209 0.000260868 1.44154)
(0.00066824 9.69878e-05 1.50117)
(0.000722066 0.000143142 1.732)
(0.000544337 0.000181205 1.87124)
(0.000196974 0.000196978 1.93251)
(-0.000196975 0.000196978 1.93251)
(-0.000544337 0.000181205 1.87124)
(-0.000722067 0.000143142 1.732)
(-0.000668243 9.6988e-05 1.50117)
(0.00066824 -9.69793e-05 1.50117)
(0.000722066 -0.000143133 1.732)
(0.000544337 -0.000181196 1.87124)
(0.000196974 -0.000196971 1.93251)
(-0.000196975 -0.000196971 1.93251)
(-0.000544337 -0.000181196 1.87124)
(-0.000722067 -0.000143133 1.732)
(-0.000668243 -9.69792e-05 1.50117)
(0.000598205 -0.000260859 1.44154)
(0.000642845 -0.000384175 1.6679)
(0.000489664 -0.00048966 1.80663)
(0.0001812 -0.000544334 1.87124)
(-0.0001812 -0.000544334 1.87124)
(-0.000489664 -0.00048966 1.80663)
(-0.000642845 -0.000384175 1.6679)
(-0.000598207 -0.000260859 1.44154)
(0.000479667 -0.000347861 1.32392)
(0.000505477 -0.000505474 1.53513)
(0.000384178 -0.000642841 1.6679)
(0.000143137 -0.000722063 1.732)
(-0.000143138 -0.000722063 1.732)
(-0.000384179 -0.000642842 1.6679)
(-0.000505478 -0.000505474 1.53513)
(-0.000479668 -0.000347862 1.32392)
(0.000340734 -0.000340733 1.1521)
(0.000347864 -0.000479664 1.32392)
(0.000260863 -0.000598203 1.44154)
(9.69831e-05 -0.000668239 1.50117)
(-9.69839e-05 -0.000668239 1.50117)
(-0.000260864 -0.000598204 1.44154)
(-0.000347865 -0.000479666 1.32392)
(-0.000340735 -0.000340734 1.1521)
(0.000183378 0.00018338 1.15155)
(0.000182636 0.000252985 1.32363)
(0.0001345 0.000310879 1.44151)
(4.95863e-05 0.000344803 1.5013)
(-4.95831e-05 0.000344803 1.5013)
(-0.000134497 0.000310877 1.44151)
(-0.000182634 0.000252983 1.32363)
(-0.000183378 0.000183379 1.15155)
(0.000252981 0.00018264 1.32363)
(0.000258956 0.000258961 1.5353)
(0.000193546 0.000324769 1.66852)
(7.15911e-05 0.000362584 1.73289)
(-7.15884e-05 0.000362583 1.73289)
(-0.000193544 0.000324768 1.66852)
(-0.000258954 0.000258959 1.5353)
(-0.000252982 0.000182638 1.32363)
(0.000310874 0.000134504 1.44151)
(0.000324764 0.000193551 1.66852)
(0.000243696 0.000243701 1.80785)
(8.96179e-05 0.000269587 1.87281)
(-8.96159e-05 0.000269587 1.87281)
(-0.000243694 0.0002437 1.80785)
(-0.000324763 0.00019355 1.66852)
(-0.000310876 0.000134503 1.44151)
(0.000344798 4.95905e-05 1.5013)
(0.000362579 7.1596e-05 1.73289)
(0.000269583 8.96223e-05 1.87281)
(9.70176e-05 9.70216e-05 1.93446)
(-9.70162e-05 9.70214e-05 1.93446)
(-0.000269582 8.96217e-05 1.87281)
(-0.000362579 7.1595e-05 1.73289)
(-0.0003448 4.95894e-05 1.5013)
(0.000344797 -4.9579e-05 1.5013)
(0.000362579 -7.15837e-05 1.73289)
(0.000269583 -8.96117e-05 1.87281)
(9.70174e-05 -9.70124e-05 1.93446)
(-9.70164e-05 -9.70125e-05 1.93446)
(-0.000269582 -8.96122e-05 1.87281)
(-0.000362579 -7.15845e-05 1.73289)
(-0.0003448 -4.958e-05 1.5013)
(0.000310872 -0.000134493 1.44151)
(0.000324763 -0.000193539 1.66852)
(0.000243695 -0.00024369 1.80785)
(8.96173e-05 -0.000269578 1.87281)
(-8.96165e-05 -0.000269578 1.87281)
(-0.000243695 -0.000243691 1.80785)
(-0.000324763 -0.00019354 1.66852)
(-0.000310875 -0.000134494 1.44151)
(0.000252978 -0.00018263 1.32363)
(0.000258954 -0.000258949 1.5353)
(0.000193545 -0.000324759 1.66852)
(7.159e-05 -0.000362574 1.73289)
(-7.15894e-05 -0.000362574 1.73289)
(-0.000193545 -0.000324759 1.66852)
(-0.000258954 -0.00025895 1.5353)
(-0.00025298 -0.000182631 1.32363)
(0.000183374 -0.000183373 1.15155)
(0.000182633 -0.000252975 1.32363)
(0.000134498 -0.000310869 1.44151)
(4.95848e-05 -0.000344794 1.5013)
(-4.95844e-05 -0.000344794 1.5013)
(-0.000134498 -0.00031087 1.44151)
(-0.000182633 -0.000252977 1.32363)
(-0.000183376 -0.000183375 1.15155)
(8.67711e-05 8.67727e-05 1.15132)
(8.77095e-05 0.000121325 1.32351)
(6.52144e-05 0.000150477 1.44152)
(2.41382e-05 0.00016761 1.50139)
(-2.41365e-05 0.00016761 1.50139)
(-6.5213e-05 0.000150476 1.44152)
(-8.77087e-05 0.000121323 1.32351)
(-8.67718e-05 8.67723e-05 1.15132)
(0.000121318 8.77133e-05 1.32351)
(0.000126291 0.000126297 1.53541)
(9.51091e-05 0.000159577 1.66884)
(3.52684e-05 0.000178635 1.73335)
(-3.52669e-05 0.000178635 1.73335)
(-9.5108e-05 0.000159576 1.66884)
(-0.000126291 0.000126296 1.53541)
(-0.00012132 8.77128e-05 1.32351)
(0.00015047 6.5219e-05 1.44152)
(0.000159571 9.51146e-05 1.66884)
(0.000120352 0.000120357 1.80847)
(4.43135e-05 0.000133317 1.8736)
(-4.43125e-05 0.000133316 1.8736)
(-0.000120351 0.000120356 1.80847)
(-0.000159571 9.51139e-05 1.66884)
(-0.000150471 6.52185e-05 1.44152)
(0.000167602 2.41428e-05 1.50139)
(0.00017863 3.52737e-05 1.73335)
(0.000133312 4.43183e-05 1.8736)
(4.80029e-05 4.80073e-05 1.93544)
(-4.80023e-05 4.80072e-05 1.93544)
(-0.000133311 4.43179e-05 1.8736)
(-0.00017863 3.52731e-05 1.73335)
(-0.000167604 2.41423e-05 1.50139)
(0.000167602 -2.41323e-05 1.50139)
(0.00017863 -3.52621e-05 1.73335)
(0.000133312 -4.43081e-05 1.8736)
(4.80028e-05 -4.79983e-05 1.93544)
(-4.80024e-05 -4.79984e-05 1.93544)
(-0.000133311 -4.43084e-05 1.8736)
(-0.000178629 -3.52626e-05 1.73335)
(-0.000167603 -2.41327e-05 1.50139)
(0.000150469 -6.52093e-05 1.44152)
(0.000159571 -9.51037e-05 1.66884)
(0.000120351 -0.000120347 1.80847)
(4.43132e-05 -0.000133308 1.8736)
(-4.43129e-05 -0.000133308 1.8736)
(-0.000120351 -0.000120347 1.80847)
(-0.00015957 -9.5104e-05 1.66884)
(-0.00015047 -6.52096e-05 1.44152)
(0.000121317 -8.77045e-05 1.32351)
(0.00012629 -0.000126286 1.53541)
(9.51086e-05 -0.000159567 1.66884)
(3.52678e-05 -0.000178626 1.73335)
(-3.52676e-05 -0.000178626 1.73335)
(-9.51085e-05 -0.000159567 1.66884)
(-0.00012629 -0.000126287 1.53541)
(-0.000121317 -8.7705e-05 1.32351)
(8.67681e-05 -8.67671e-05 1.15132)
(8.77077e-05 -0.000121314 1.32351)
(6.52137e-05 -0.000150467 1.44152)
(2.41374e-05 -0.0001676 1.50139)
(-2.41374e-05 -0.0001676 1.50139)
(-6.52137e-05 -0.000150468 1.44152)
(-8.77078e-05 -0.000121316 1.32351)
(-8.67687e-05 -8.67679e-05 1.15132)
(4.52181e-05 4.52201e-05 1.15119)
(4.53636e-05 6.27489e-05 1.32345)
(3.35602e-05 7.7423e-05 1.44152)
(1.23976e-05 8.60286e-05 1.50143)
(-1.23926e-05 8.60275e-05 1.50143)
(-3.35558e-05 7.74197e-05 1.44152)
(-4.53595e-05 6.27435e-05 1.32345)
(-4.52157e-05 4.52165e-05 1.15119)
(6.27428e-05 4.53673e-05 1.32345)
(6.47563e-05 6.47616e-05 1.53546)
(4.85779e-05 8.1485e-05 1.669)
(1.79891e-05 9.10622e-05 1.73357)
(-1.7985e-05 9.10615e-05 1.73357)
(-4.85742e-05 8.14829e-05 1.669)
(-6.47534e-05 6.47582e-05 1.53546)
(-6.27423e-05 4.5364e-05 1.32345)
(7.74163e-05 3.35644e-05 1.44152)
(8.14797e-05 4.85829e-05 1.669)
(6.12726e-05 6.12774e-05 1.80878)
(2.25356e-05 6.7783e-05 1.874)
(-2.25328e-05 6.77826e-05 1.874)
(-6.12701e-05 6.1276e-05 1.80878)
(-8.1478e-05 4.85807e-05 1.669)
(-7.7417e-05 3.3562e-05 1.44152)
(8.60219e-05 1.24017e-05 1.50143)
(9.10571e-05 1.79939e-05 1.73357)
(6.77786e-05 2.254e-05 1.874)
(2.43786e-05 2.43826e-05 1.93593)
(-2.43768e-05 2.43822e-05 1.93593)
(-6.7777e-05 2.2539e-05 1.874)
(-9.10561e-05 1.79922e-05 1.73357)
(-8.60235e-05 1.23997e-05 1.50143)
(8.60212e-05 -1.23887e-05 1.50143)
(9.10566e-05 -1.79804e-05 1.73357)
(6.77783e-05 -2.25286e-05 1.874)
(2.43783e-05 -2.4373e-05 1.93593)
(-2.4377e-05 -2.43733e-05 1.93593)
(-6.77772e-05 -2.25294e-05 1.874)
(-9.10562e-05 -1.79818e-05 1.73357)
(-8.60234e-05 -1.23904e-05 1.50143)
(7.7414e-05 -3.35522e-05 1.44152)
(8.14781e-05 -4.857e-05 1.669)
(6.12715e-05 -6.12661e-05 1.80878)
(2.25346e-05 -6.77732e-05 1.874)
(-2.25337e-05 -6.77734e-05 1.874)
(-6.12708e-05 -6.12667e-05 1.80878)
(-8.1478e-05 -4.8571e-05 1.669)
(-7.74166e-05 -3.35535e-05 1.44152)
(6.27382e-05 -4.53553e-05 1.32345)
(6.47534e-05 -6.47488e-05 1.53546)
(4.85759e-05 -8.14737e-05 1.669)
(1.79873e-05 -9.10521e-05 1.73357)
(-1.79866e-05 -9.10523e-05 1.73357)
(-4.85754e-05 -8.14743e-05 1.669)
(-6.47534e-05 -6.47497e-05 1.53546)
(-6.27409e-05 -4.53568e-05 1.32345)
(4.52118e-05 -4.52112e-05 1.15119)
(4.5359e-05 -6.27355e-05 1.32345)
(3.35575e-05 -7.74108e-05 1.44152)
(1.23951e-05 -8.60177e-05 1.50143)
(-1.23948e-05 -8.6018e-05 1.50143)
(-3.35573e-05 -7.74118e-05 1.44152)
(-4.53595e-05 -6.27375e-05 1.32345)
(-4.52138e-05 -4.52133e-05 1.15119)
(2.23417e-05 2.23426e-05 1.15113)
(2.25623e-05 3.11676e-05 1.32341)
(1.67711e-05 3.86068e-05 1.44152)
(6.20861e-06 4.29809e-05 1.50145)
(-6.20873e-06 4.29808e-05 1.50145)
(-1.67714e-05 3.86065e-05 1.44152)
(-2.2563e-05 3.11672e-05 1.32341)
(-2.23431e-05 2.23433e-05 1.15113)
(3.11629e-05 2.25654e-05 1.32341)
(3.24199e-05 3.24243e-05 1.53548)
(2.44303e-05 4.09517e-05 1.66908)
(9.06393e-06 4.58415e-05 1.73369)
(-9.06414e-06 4.58415e-05 1.73369)
(-2.44307e-05 4.09515e-05 1.66908)
(-3.24208e-05 3.24241e-05 1.53548)
(-3.11656e-05 2.25658e-05 1.32341)
(3.86011e-05 1.67752e-05 1.44152)
(4.09473e-05 2.4435e-05 1.66908)
(3.09176e-05 3.09219e-05 1.80894)
(1.13896e-05 3.42528e-05 1.8742)
(-1.139e-05 3.42528e-05 1.8742)
(-3.09181e-05 3.09218e-05 1.80894)
(-4.09482e-05 2.44349e-05 1.66908)
(-3.86033e-05 1.67753e-05 1.44152)
(4.29749e-05 6.21289e-06 1.50145)
(4.58372e-05 9.06868e-06 1.73369)
(3.42488e-05 1.13939e-05 1.8742)
(1.23354e-05 1.23392e-05 1.93618)
(-1.23359e-05 1.23392e-05 1.93618)
(-3.42494e-05 1.13938e-05 1.8742)
(-4.58379e-05 9.06851e-06 1.73369)
(-4.29767e-05 6.21285e-06 1.50145)
(4.29748e-05 -6.20465e-06 1.50145)
(4.58371e-05 -9.05965e-06 1.73369)
(3.42488e-05 -1.1386e-05 1.8742)
(1.23354e-05 -1.23323e-05 1.93618)
(-1.2336e-05 -1.23324e-05 1.93618)
(-3.42494e-05 -1.13861e-05 1.8742)
(-4.58378e-05 -9.05984e-06 1.73369)
(-4.29763e-05 -6.20479e-06 1.50145)
(3.86008e-05 -1.67677e-05 1.44152)
(4.09471e-05 -2.44266e-05 1.66908)
(3.09175e-05 -3.09143e-05 1.80894)
(1.13896e-05 -3.42458e-05 1.8742)
(-1.13902e-05 -3.42459e-05 1.8742)
(-3.09182e-05 -3.09144e-05 1.80894)
(-4.09477e-05 -2.44268e-05 1.66908)
(-3.86019e-05 -1.67679e-05 1.44152)
(3.11619e-05 -2.25588e-05 1.32341)
(3.24195e-05 -3.24164e-05 1.53548)
(2.44302e-05 -4.09443e-05 1.66908)
(9.0637e-06 -4.58345e-05 1.73369)
(-9.06447e-06 -4.58346e-05 1.73369)
(-2.4431e-05 -4.09447e-05 1.66908)
(-3.24201e-05 -3.2417e-05 1.53548)
(-3.11628e-05 -2.25593e-05 1.32341)
(2.23393e-05 -2.23386e-05 1.15113)
(2.25612e-05 -3.116e-05 1.32341)
(1.67709e-05 -3.8599e-05 1.44152)
(6.20831e-06 -4.29732e-05 1.50145)
(-6.20915e-06 -4.29735e-05 1.50145)
(-1.67717e-05 -3.85998e-05 1.44152)
(-2.2562e-05 -3.11613e-05 1.32341)
(-2.23403e-05 -2.23395e-05 1.15113)
(1.14907e-05 1.14919e-05 1.1511)
(1.15727e-05 1.59837e-05 1.3234)
(8.58653e-06 1.97571e-05 1.44152)
(3.17731e-06 2.19749e-05 1.50146)
(-3.17534e-06 2.19745e-05 1.50146)
(-8.58485e-06 1.97557e-05 1.44152)
(-1.15716e-05 1.59818e-05 1.3234)
(-1.14912e-05 1.14915e-05 1.1511)
(1.59805e-05 1.15751e-05 1.3234)
(1.65713e-05 1.65747e-05 1.5355)
(1.24722e-05 2.09004e-05 1.66912)
(4.62656e-06 2.33837e-05 1.73375)
(-4.625e-06 2.33834e-05 1.73375)
(-1.2471e-05 2.08995e-05 1.66912)
(-1.65709e-05 1.65732e-05 1.5355)
(-1.59831e-05 1.15742e-05 1.3234)
(1.97537e-05 8.58955e-06 1.44152)
(2.08973e-05 1.24757e-05 1.66912)
(1.57691e-05 1.57723e-05 1.80902)
(5.80943e-06 1.74677e-05 1.8743)
(-5.80845e-06 1.74675e-05 1.8743)
(-1.57684e-05 1.57717e-05 1.80902)
(-2.08974e-05 1.24747e-05 1.66912)
(-1.97566e-05 8.58858e-06 1.44152)
(2.19715e-05 3.18049e-06 1.50146)
(2.33807e-05 4.63016e-06 1.73375)
(1.74648e-05 5.81265e-06 1.8743)
(6.29104e-06 6.29389e-06 1.9363)
(-6.2905e-06 6.29373e-06 1.9363)
(-1.74644e-05 5.81216e-06 1.8743)
(-2.3381e-05 4.62936e-06 1.73375)
(-2.19748e-05 3.17962e-06 1.50146)
(2.19712e-05 -3.1721e-06 1.50146)
(2.33804e-05 -4.62133e-06 1.73375)
(1.74646e-05 -5.80516e-06 1.8743)
(6.29091e-06 -6.28757e-06 1.9363)
(-6.29063e-06 -6.2877e-06 1.9363)
(-1.74645e-05 -5.80553e-06 1.8743)
(-2.3381e-05 -4.62196e-06 1.73375)
(-2.19748e-05 -3.17288e-06 1.50146)
(1.97527e-05 -8.5817e-06 1.44152)
(2.08965e-05 -1.24673e-05 1.66912)
(1.57686e-05 -1.57649e-05 1.80902)
(5.80898e-06 -1.74612e-05 1.8743)
(-5.80887e-06 -1.74613e-05 1.8743)
(-1.57687e-05 -1.57653e-05 1.80902)
(-2.08972e-05 -1.24678e-05 1.66912)
(-1.97563e-05 -8.58233e-06 1.44152)
(1.59787e-05 -1.1568e-05 1.3234)
(1.657e-05 -1.65667e-05 1.5355)
(1.24713e-05 -2.08933e-05 1.66912)
(4.62568e-06 -2.33773e-05 1.73375)
(-4.62578e-06 -2.33774e-05 1.73375)
(-1.24715e-05 -2.08937e-05 1.66912)
(-1.65706e-05 -1.65672e-05 1.5355)
(-1.5982e-05 -1.1569e-05 1.3234)
(1.1488e-05 -1.14875e-05 1.1511)
(1.15706e-05 -1.59766e-05 1.3234)
(8.58532e-06 -1.97504e-05 1.44152)
(3.17616e-06 -2.19689e-05 1.50146)
(-3.17637e-06 -2.19691e-05 1.50146)
(-8.58559e-06 -1.97512e-05 1.44152)
(-1.15714e-05 -1.59783e-05 1.3234)
(-1.14901e-05 -1.14896e-05 1.1511)
(5.80158e-06 5.80191e-06 1.15108)
(5.85502e-06 8.08682e-06 1.32339)
(4.34964e-06 1.00099e-05 1.44152)
(1.60955e-06 1.11415e-05 1.50146)
(-1.61191e-06 1.11419e-05 1.50146)
(-4.35197e-06 1.00109e-05 1.44152)
(-5.85776e-06 8.0885e-06 1.32339)
(-5.80473e-06 5.80435e-06 1.15108)
(8.08425e-06 5.85687e-06 1.32339)
(8.40369e-06 8.40628e-06 1.5355)
(6.333e-06 1.06139e-05 1.66915)
(2.34969e-06 1.1882e-05 1.73378)
(-2.35187e-06 1.18822e-05 1.73378)
(-6.33523e-06 1.06146e-05 1.66915)
(-8.40634e-06 8.40739e-06 1.5355)
(-8.08863e-06 5.85882e-06 1.32339)
(1.00067e-05 4.35231e-06 1.44152)
(1.06114e-05 6.33597e-06 1.66915)
(8.01673e-06 8.01939e-06 1.80906)
(2.95424e-06 8.88603e-06 1.87436)
(-2.956e-06 8.88616e-06 1.87436)
(-8.01854e-06 8.01983e-06 1.80906)
(-1.06135e-05 6.33676e-06 1.66915)
(-1.00102e-05 4.35346e-06 1.44152)
(1.11381e-05 1.61251e-06 1.50146)
(1.18795e-05 2.35287e-06 1.73378)
(8.88356e-06 2.95703e-06 1.87436)
(3.20094e-06 3.20338e-06 1.93637)
(-3.20235e-06 3.20347e-06 1.93637)
(-8.88502e-06 2.95736e-06 1.87436)
(-1.18811e-05 2.35352e-06 1.73378)
(-1.11408e-05 1.61343e-06 1.50146)
(1.11384e-05 -1.60897e-06 1.50146)
(1.18796e-05 -2.34871e-06 1.73378)
(8.8837e-06 -2.95323e-06 1.87436)
(3.20105e-06 -3.19991e-06 1.93637)
(-3.20227e-06 -3.19983e-06 1.93637)
(-8.88494e-06 -2.95297e-06 1.87436)
(-1.18809e-05 -2.34821e-06 1.73378)
(-1.11403e-05 -1.60828e-06 1.50146)
(1.00075e-05 -4.3492e-06 1.44152)
(1.06119e-05 -6.33216e-06 1.66915)
(8.01715e-06 -8.01577e-06 1.80906)
(2.95458e-06 -8.88251e-06 1.87436)
(-2.95575e-06 -8.88246e-06 1.87436)
(-8.01827e-06 -8.01562e-06 1.80906)
(-1.06129e-05 -6.33184e-06 1.66915)