/*--------------------------------*- C++ -*----------------------------------*\
| =========                 |                                                 |
| \\      /  F ield         | OpenFOAM: The Open Source CFD Toolbox           |
|  \\    /   O peration     | Version:  2406                                  |
|   \\  /    A nd           | Website:  www.openfoam.com                      |
|    \\/     M anipulation  |                                                 |
\*---------------------------------------------------------------------------*/
FoamFile
{
    version     2.0;
    format      ascii;
    arch        "LSB;label=32;scalar=64";
    class       surfaceScalarField;
    location    "0.8";
    object      phi;
}
// * * * * * * * * * * * * * * * * * * * * * * * * * * * * * * * * * * * * * //

dimensions      [0 3 -1 0 0 0 0];

oriented        oriented;

internalField   nonuniform List<scalar> 
46880
(
5.70227e-05
5.70227e-05
9.25627e-05
-6.58089e-05
-6.58089e-05
4.14847e-05
5.85524e-05
0.000107332
-6.81955e-05
2.17749e-05
5.89973e-05
0.000116854
-6.9121e-05
2.16999e-13
5.91027e-05
0.000121561
-6.94051e-05
-2.17749e-05
5.91027e-05
0.000121561
-6.94051e-05
-4.14847e-05
5.89973e-05
0.000116854
-6.9121e-05
-5.70227e-05
5.85524e-05
0.000107332
-6.81955e-05
5.70227e-05
9.25627e-05
-6.58089e-05
-6.58089e-05
5.85524e-05
4.14847e-05
0.000107332
-6.81955e-05
4.20291e-05
4.20291e-05
0.000121733
2.18254e-05
4.20503e-05
0.000130284
2.22004e-13
4.1986e-05
0.000134326
-2.18254e-05
4.1986e-05
0.000134326
-4.20291e-05
4.20503e-05
0.000130284
-5.85524e-05
4.20291e-05
0.000121733
4.14847e-05
0.000107332
-6.81955e-05
5.89973e-05
2.17749e-05
0.000116854
-6.9121e-05
4.20503e-05
2.18254e-05
0.000130284
2.17158e-05
2.17158e-05
0.000137965
1.89142e-13
2.16254e-05
0.00014148
-2.17158e-05
2.16254e-05
0.00014148
-4.20503e-05
2.17158e-05
0.000137965
-5.89973e-05
2.18254e-05
0.000130284
2.17749e-05
0.000116854
-6.9121e-05
5.91027e-05
9.18911e-13
0.000121561
-6.94051e-05
4.1986e-05
1.09208e-12
0.000134326
2.16254e-05
1.06253e-12
0.00014148
1.61913e-13
1.04109e-12
0.000144691
-2.16254e-05
1.01008e-12
0.000144691
-4.1986e-05
9.76607e-13
0.00014148
-5.91027e-05
9.84412e-13
0.000134326
8.33059e-13
0.000121561
-6.94051e-05
5.91027e-05
-2.17749e-05
0.000121561
-6.94051e-05
4.1986e-05
-2.18254e-05
0.000134326
2.16254e-05
-2.17158e-05
0.00014148
1.32914e-13
-2.16254e-05
0.000144691
-2.16254e-05
-2.16254e-05
0.000144691
-4.1986e-05
-2.17158e-05
0.00014148
-5.91027e-05
-2.18254e-05
0.000134326
-2.17749e-05
0.000121561
-6.94051e-05
5.89973e-05
-4.14846e-05
0.000116854
-6.9121e-05
4.20503e-05
-4.20291e-05
0.000130284
2.17158e-05
-4.20503e-05
0.000137965
9.46609e-14
-4.1986e-05
0.00014148
-2.17158e-05
-4.1986e-05
0.00014148
-4.20503e-05
-4.20503e-05
0.000137965
-5.89973e-05
-4.20291e-05
0.000130284
-4.14846e-05
0.000116854
-6.9121e-05
5.85524e-05
-5.70227e-05
0.000107332
-6.81955e-05
4.20291e-05
-5.85524e-05
0.000121733
2.18254e-05
-5.89973e-05
0.000130284
5.45312e-14
-5.91027e-05
0.000134326
-2.18254e-05
-5.91027e-05
0.000134326
-4.20291e-05
-5.89973e-05
0.000130284
-5.85524e-05
-5.85524e-05
0.000121733
-5.70227e-05
0.000107332
-6.81955e-05
5.70227e-05
9.25627e-05
-6.58089e-05
-6.58089e-05
4.14847e-05
0.000107332
-6.81955e-05
2.17749e-05
0.000116854
-6.9121e-05
2.87976e-14
0.000121561
-6.94051e-05
-2.17749e-05
0.000121561
-6.94051e-05
-4.14847e-05
0.000116854
-6.9121e-05
-5.70227e-05
0.000107332
-6.81955e-05
9.25627e-05
-6.58089e-05
-6.58089e-05
2.12981e-05
2.12981e-05
9.11553e-05
-2.05944e-05
-2.05944e-05
1.7387e-05
2.43165e-05
0.000110076
-2.31488e-05
9.64834e-06
2.60548e-05
0.000123205
-2.46671e-05
3.13806e-13
2.68715e-05
0.000129837
-2.54995e-05
-9.64834e-06
2.68715e-05
0.000129837
-2.54995e-05
-1.7387e-05
2.60548e-05
0.000123205
-2.46671e-05
-2.12981e-05
2.43165e-05
0.000110076
-2.31488e-05
2.12981e-05
9.11553e-05
-2.05944e-05
-2.05944e-05
2.43165e-05
1.7387e-05
0.000110076
-2.31488e-05
1.97648e-05
1.97648e-05
0.000130836
1.0936e-05
2.11179e-05
0.00014405
3.03863e-13
2.17195e-05
0.000150414
-1.0936e-05
2.17195e-05
0.000150414
-1.97648e-05
2.11179e-05
0.00014405
-2.43165e-05
1.97648e-05
0.000130836
1.7387e-05
0.000110076
-2.31488e-05
2.60548e-05
9.64834e-06
0.000123205
-2.46671e-05
2.11179e-05
1.0936e-05
0.00014405
1.1672e-05
1.1672e-05
0.000156857
2.68655e-13
1.19938e-05
0.000162878
-1.1672e-05
1.19938e-05
0.000162878
-2.11179e-05
1.1672e-05
0.000156857
-2.60548e-05
1.0936e-05
0.00014405
9.64834e-06
0.000123205
-2.46671e-05
2.68715e-05
9.46016e-13
0.000129837
-2.54995e-05
2.17195e-05
1.03781e-12
0.000150414
1.19938e-05
9.88703e-13
0.000162878
2.41785e-13
9.68577e-13
0.000168678
-1.19938e-05
9.41607e-13
0.000168678
-2.17195e-05
9.14301e-13
0.000162878
-2.68715e-05
9.4598e-13
0.000150414
8.7417e-13
0.000129837
-2.54995e-05
2.68715e-05
-9.64834e-06
0.000129837
-2.54995e-05
2.17195e-05
-1.0936e-05
0.000150414
1.19938e-05
-1.1672e-05
0.000162878
2.15635e-13
-1.19938e-05
0.000168678
-1.19938e-05
-1.19938e-05
0.000168678
-2.17195e-05
-1.1672e-05
0.000162878
-2.68715e-05
-1.0936e-05
0.000150414
-9.64834e-06
0.000129837
-2.54995e-05
2.60548e-05
-1.7387e-05
0.000123205
-2.46671e-05
2.11179e-05
-1.97648e-05
0.00014405
1.1672e-05
-2.11179e-05
0.000156857
1.83831e-13
-2.17195e-05
0.000162878
-1.1672e-05
-2.17195e-05
0.000162878
-2.11179e-05
-2.11179e-05
0.000156857
-2.60548e-05
-1.97648e-05
0.00014405
-1.7387e-05
0.000123205
-2.46671e-05
2.43165e-05
-2.12981e-05
0.000110076
-2.31488e-05
1.97648e-05
-2.43165e-05
0.000130836
1.0936e-05
-2.60548e-05
0.00014405
1.47928e-13
-2.68715e-05
0.000150414
-1.0936e-05
-2.68715e-05
0.000150414
-1.97648e-05
-2.60548e-05
0.00014405
-2.43165e-05
-2.43165e-05
0.000130836
-2.12981e-05
0.000110076
-2.31488e-05
2.12981e-05
9.11553e-05
-2.05944e-05
-2.05944e-05
1.7387e-05
0.000110076
-2.31488e-05
9.64834e-06
0.000123205
-2.46671e-05
1.24508e-13
0.000129837
-2.54995e-05
-9.64834e-06
0.000129837
-2.54995e-05
-1.7387e-05
0.000123205
-2.46671e-05
-2.12981e-05
0.000110076
-2.31488e-05
9.11553e-05
-2.05944e-05
-2.05944e-05
1.18127e-05
1.18127e-05
8.91259e-05
-1.0798e-05
-1.0798e-05
9.90265e-06
1.43956e-05
0.000110627
-1.30364e-05
5.62155e-06
1.59718e-05
0.000125963
-1.44489e-05
7.36116e-13
1.67467e-05
0.000133897
-1.51853e-05
-5.62154e-06
1.67467e-05
0.000133897
-1.51853e-05
-9.90265e-06
1.59718e-05
0.000125963
-1.44489e-05
-1.18127e-05
1.43956e-05
0.000110627
-1.30364e-05
1.18127e-05
8.91259e-05
-1.0798e-05
-1.0798e-05
1.43956e-05
9.90265e-06
0.000110627
-1.30364e-05
1.20477e-05
1.20477e-05
0.000135532
6.80902e-06
1.33212e-05
0.000151939
7.02442e-13
1.39201e-05
0.00016005
-6.80902e-06
1.39201e-05
0.00016005
-1.20477e-05
1.33212e-05
0.000151939
-1.43956e-05
1.20477e-05
0.000135532
9.90265e-06
0.000110627
-1.30364e-05
1.59718e-05
5.62155e-06
0.000125963
-1.44489e-05
1.33212e-05
6.80903e-06
0.000151939
7.49972e-06
7.49973e-06
0.0001685
6.36366e-13
7.81056e-06
0.000176487
-7.49972e-06
7.81056e-06
0.000176487
-1.33212e-05
7.49973e-06
0.0001685
-1.59718e-05
6.80903e-06
0.000151939
5.62155e-06
0.000125963
-1.44489e-05
1.67467e-05
1.40915e-12
0.000133897
-1.51853e-05
1.39201e-05
1.46299e-12
0.00016005
7.81056e-06
1.33478e-12
0.000176487
5.90763e-13
1.25828e-12
0.000184299
-7.81055e-06
1.22352e-12
0.000184299
-1.39201e-05
1.23067e-12
0.000176487
-1.67467e-05
1.31104e-12
0.00016005
1.25056e-12
0.000133897
-1.51853e-05
1.67467e-05
-5.62154e-06
0.000133897
-1.51853e-05
1.39201e-05
-6.80902e-06
0.00016005
7.81056e-06
-7.49972e-06
0.000176487
5.58494e-13
-7.81055e-06
0.000184299
-7.81055e-06
-7.81055e-06
0.000184299
-1.39201e-05
-7.49972e-06
0.000176487
-1.67467e-05
-6.80902e-06
0.00016005
-5.62154e-06
0.000133897
-1.51853e-05
1.59718e-05
-9.90265e-06
0.000125963
-1.44489e-05
1.33212e-05
-1.20476e-05
0.000151939
7.49972e-06
-1.33212e-05
0.0001685
5.27317e-13
-1.39201e-05
0.000176487
-7.49972e-06
-1.39201e-05
0.000176487
-1.33212e-05
-1.33212e-05
0.0001685
-1.59718e-05
-1.20476e-05
0.000151939
-9.90265e-06
0.000125963
-1.44489e-05
1.43956e-05
-1.18127e-05
0.000110627
-1.30364e-05
1.20477e-05
-1.43956e-05
0.000135532
6.80902e-06
-1.59718e-05
0.000151939
4.91011e-13
-1.67467e-05
0.00016005
-6.80902e-06
-1.67467e-05
0.00016005
-1.20477e-05
-1.59718e-05
0.000151939
-1.43956e-05
-1.43956e-05
0.000135532
-1.18127e-05
0.000110627
-1.30364e-05
1.18127e-05
8.91259e-05
-1.0798e-05
-1.0798e-05
9.90265e-06
0.000110627
-1.30364e-05
5.62155e-06
0.000125963
-1.44489e-05
4.61854e-13
0.000133897
-1.51853e-05
-5.62154e-06
0.000133897
-1.51853e-05
-9.90265e-06
0.000125963
-1.44489e-05
-1.18127e-05
0.000110627
-1.30364e-05
8.91259e-05
-1.0798e-05
-1.0798e-05
2.98521e-06
2.98521e-06
8.73785e-05
-2.11152e-06
-2.11152e-06
2.93654e-06
4.20871e-06
0.000109321
-2.85467e-06
1.80601e-06
5.10333e-06
0.000125443
-3.45295e-06
1.37196e-12
5.56796e-06
0.000133927
-3.79171e-06
-1.80601e-06
5.56796e-06
0.000133927
-3.79171e-06
-2.93654e-06
5.10333e-06
0.000125443
-3.45295e-06
-2.98521e-06
4.20871e-06
0.000109321
-2.85467e-06
2.98521e-06
8.73785e-05
-2.11152e-06
-2.11152e-06
4.20871e-06
2.93654e-06
0.000109321
-2.85467e-06
4.13753e-06
4.13754e-06
0.000135674
2.52404e-06
4.95623e-06
0.000153699
1.35931e-12
5.34154e-06
0.0001628
-2.52404e-06
5.34154e-06
0.0001628
-4.13753e-06
4.95623e-06
0.000153699
-4.20871e-06
4.13754e-06
0.000135674
2.93654e-06
0.000109321
-2.85467e-06
5.10333e-06
1.80602e-06
0.000125443
-3.45295e-06
4.95623e-06
2.52404e-06
0.000153699
2.98743e-06
2.98743e-06
0.000172437
1.30633e-12
3.17437e-06
0.000181642
-2.98743e-06
3.17437e-06
0.000181642
-4.95623e-06
2.98743e-06
0.000172437
-5.10333e-06
2.52404e-06
0.000153699
1.80602e-06
0.000125443
-3.45295e-06
5.56796e-06
2.10532e-12
0.000133927
-3.79171e-06
5.34154e-06
2.1971e-12
0.0001628
3.17437e-06
2.05927e-12
0.000181642
1.25791e-12
1.9401e-12
0.000190648
-3.17437e-06
1.91272e-12
0.000190648
-5.34154e-06
1.98151e-12
0.000181642
-5.56796e-06
2.10087e-12
0.0001628
2.03658e-12
0.000133927
-3.79171e-06
5.56796e-06
-1.80601e-06
0.000133927
-3.79171e-06
5.34154e-06
-2.52404e-06
0.0001628
3.17437e-06
-2.98743e-06
0.000181642
1.23375e-12
-3.17437e-06
0.000190648
-3.17437e-06
-3.17437e-06
0.000190648
-5.34154e-06
-2.98743e-06
0.000181642
-5.56796e-06
-2.52404e-06
0.0001628
-1.80601e-06
0.000133927
-3.79171e-06
5.10333e-06
-2.93653e-06
0.000125443
-3.45295e-06
4.95623e-06
-4.13753e-06
0.000153699
2.98743e-06
-4.95623e-06
0.000172437
1.22465e-12
-5.34154e-06
0.000181642
-2.98743e-06
-5.34154e-06
0.000181642
-4.95623e-06
-4.95623e-06
0.000172437
-5.10333e-06
-4.13753e-06
0.000153699
-2.93653e-06
0.000125443
-3.45295e-06
4.20871e-06
-2.98521e-06
0.000109321
-2.85467e-06
4.13753e-06
-4.20871e-06
0.000135674
2.52404e-06
-5.10333e-06
0.000153699
1.20187e-12
-5.56796e-06
0.0001628
-2.52404e-06
-5.56796e-06
0.0001628
-4.13753e-06
-5.10333e-06
0.000153699
-4.20871e-06
-4.20871e-06
0.000135674
-2.98521e-06
0.000109321
-2.85467e-06
2.98521e-06
8.73785e-05
-2.11152e-06
-2.11152e-06
2.93654e-06
0.000109321
-2.85467e-06
1.80601e-06
0.000125443
-3.45295e-06
1.17214e-12
0.000133927
-3.79171e-06
-1.80601e-06
0.000133927
-3.79171e-06
-2.93654e-06
0.000125443
-3.45295e-06
-2.98521e-06
0.000109321
-2.85467e-06
8.73785e-05
-2.11152e-06
-2.11152e-06
1.75855e-06
1.75855e-06
8.68359e-05
-1.48727e-06
-1.48727e-06
1.58508e-06
2.31764e-06
0.000109058
-1.88066e-06
9.44344e-07
2.7317e-06
0.000125519
-2.1672e-06
3.24033e-12
2.94525e-06
0.000134245
-2.31887e-06
-9.44338e-07
2.94525e-06
0.000134245
-2.31887e-06
-1.58507e-06
2.7317e-06
0.000125519
-2.1672e-06
-1.75855e-06
2.31764e-06
0.000109058
-1.88066e-06
1.75855e-06
8.68359e-05
-1.48727e-06
-1.48727e-06
2.31764e-06
1.58508e-06
0.000109058
-1.88066e-06
2.13339e-06
2.13339e-06
0.000136043
1.27625e-06
2.52942e-06
0.000154759
3.22597e-12
2.71286e-06
0.000164309
-1.27624e-06
2.71286e-06
0.000164309
-2.13338e-06
2.52942e-06
0.000154759
-2.31763e-06
2.13339e-06
0.000136043
1.58508e-06
0.000109058
-1.88066e-06
2.7317e-06
9.44344e-07
0.000125519
-2.1672e-06
2.52942e-06
1.27625e-06
0.000154759
1.50568e-06
1.50568e-06
0.000174485
3.09435e-12
1.58998e-06
0.00018427
-1.50567e-06
1.58998e-06
0.00018427
-2.52941e-06
1.50568e-06
0.000174485
-2.73169e-06
1.27625e-06
0.000154759
9.44344e-07
0.000125519
-2.1672e-06
2.94525e-06
3.90161e-12
0.000134245
-2.31887e-06
2.71285e-06
3.99975e-12
0.000164309
1.58998e-06
3.77886e-12
0.00018427
2.97416e-12
3.56634e-12
0.000193828
-1.58997e-06
3.5247e-12
0.000193828
-2.71285e-06
3.65042e-12
0.00018427
-2.94525e-06
3.80747e-12
0.000164309
3.69974e-12
0.000134245
-2.31887e-06
2.94525e-06
-9.44337e-07
0.000134245
-2.31887e-06
2.71285e-06
-1.27624e-06
0.000164309
1.58998e-06
-1.50567e-06
0.00018427
2.93634e-12
-1.58997e-06
0.000193828
-1.58997e-06
-1.58997e-06
0.000193828
-2.71285e-06
-1.50567e-06
0.00018427
-2.94525e-06
-1.27624e-06
0.000164309
-9.44337e-07
0.000134245
-2.31887e-06
2.7317e-06
-1.58507e-06
0.000125519
-2.1672e-06
2.52942e-06
-2.13338e-06
0.000154759
1.50568e-06
-2.52941e-06
0.000174485
2.96218e-12
-2.71285e-06
0.00018427
-1.50567e-06
-2.71285e-06
0.00018427
-2.52941e-06
-2.52941e-06
0.000174485
-2.73169e-06
-2.13338e-06
0.000154759
-1.58507e-06
0.000125519
-2.1672e-06
2.31764e-06
-1.75854e-06
0.000109058
-1.88066e-06
2.13339e-06
-2.31763e-06
0.000136043
1.27625e-06
-2.73169e-06
0.000154759
2.97336e-12
-2.94524e-06
0.000164309
-1.27624e-06
-2.94524e-06
0.000164309
-2.13338e-06
-2.73169e-06
0.000154759
-2.31763e-06
-2.31763e-06
0.000136043
-1.75855e-06
0.000109058
-1.88066e-06
1.75855e-06
8.68359e-05
-1.48727e-06
-1.48727e-06
1.58508e-06
0.000109058
-1.88066e-06
9.44344e-07
0.000125519
-2.1672e-06
2.91499e-12
0.000134245
-2.31887e-06
-9.44338e-07
0.000134245
-2.31887e-06
-1.58507e-06
0.000125519
-2.1672e-06
-1.75855e-06
0.000109058
-1.88066e-06
8.68359e-05
-1.48727e-06
-1.48727e-06
6.09097e-07
6.09097e-07
8.65409e-05
-4.6156e-07
-4.6156e-07
5.88225e-07
8.41818e-07
0.000108839
-6.01564e-07
3.62062e-07
1.02624e-06
0.000125434
-7.14693e-07
6.22343e-12
1.12581e-06
0.00013426
-7.78513e-07
-3.6205e-07
1.12581e-06
0.00013426
-7.78513e-07
-5.88215e-07
1.02624e-06
0.000125434
-7.14693e-07
-6.0909e-07
8.41819e-07
0.000108839
-6.01565e-07
6.09099e-07
8.65409e-05
-4.61556e-07
-4.61561e-07
8.41817e-07
5.88226e-07
0.000108839
-6.01564e-07
8.30749e-07
8.3075e-07
0.000136065
5.13712e-07
1.01888e-06
0.000155083
6.30933e-12
1.11174e-06
0.000164837
-5.137e-07
1.11174e-06
0.000164837
-8.30739e-07
1.01888e-06
0.000155083
-8.4181e-07
8.30751e-07
0.000136065
5.88227e-07
0.000108839
-6.0156e-07
1.02624e-06
3.62063e-07
0.000125434
-7.14693e-07
1.01888e-06
5.13713e-07
0.000155083
6.28558e-07
6.28559e-07
0.000175266
6.19351e-12
6.77042e-07
0.000185334
-6.28546e-07
6.77042e-07
0.000185334
-1.01887e-06
6.28559e-07
0.000175266
-1.02623e-06
5.13714e-07
0.000155083
3.62063e-07
0.000125434
-7.14689e-07
1.12581e-06
7.0097e-12
0.00013426
-7.78513e-07
1.11174e-06
7.21531e-12
0.000164837
6.77041e-07
6.98211e-12
0.000185334
6.05218e-12
6.72627e-12
0.000195182
-6.77029e-07
6.70176e-12
0.000195182
-1.11173e-06
6.91885e-12
0.000185334
-1.12581e-06
7.14419e-12
0.000164837
6.97561e-12
0.00013426
-7.78509e-07
1.12581e-06
-3.62049e-07
0.00013426
-7.78513e-07
1.11174e-06
-5.13699e-07
0.000164837
6.77041e-07
-6.28545e-07
0.000185334
6.032e-12
-6.77028e-07
0.000195182
-6.77029e-07
-6.77029e-07
0.000195182
-1.11173e-06
-6.28546e-07
0.000185334
-1.12581e-06
-5.137e-07
0.000164837
-3.6205e-07
0.00013426
-7.78509e-07
1.02624e-06
-5.88215e-07
0.000125434
-7.14693e-07
1.01888e-06
-8.30738e-07
0.000155083
6.28558e-07
-1.01887e-06
0.000175266
6.12718e-12
-1.11173e-06
0.000185334
-6.28546e-07
-1.11173e-06
0.000185334
-1.01887e-06
-1.01887e-06
0.000175266
-1.02623e-06
-8.30739e-07
0.000155083
-5.88216e-07
0.000125434
-7.14689e-07
8.41819e-07
-6.09089e-07
0.000108839
-6.01565e-07
8.3075e-07
-8.41809e-07
0.000136065
5.13713e-07
-1.02623e-06
0.000155083
6.18044e-12
-1.1258e-06
0.000164837
-5.13701e-07
-1.1258e-06
0.000164837
-8.3074e-07
-1.02623e-06
0.000155083
-8.41811e-07
-8.4181e-07
0.000136065
-6.0909e-07
0.000108839
-6.01561e-07
6.09098e-07
8.65409e-05
-4.61555e-07
-4.6156e-07
5.88227e-07
0.000108839
-6.01559e-07
3.62063e-07
0.000125434
-7.14688e-07
6.06058e-12
0.00013426
-7.78508e-07
-3.62051e-07
0.00013426
-7.78508e-07
-5.88217e-07
0.000125434
-7.14688e-07
-6.09091e-07
0.000108839
-6.0156e-07
8.65409e-05
-4.61556e-07
-4.61556e-07
3.37048e-07
3.37049e-07
8.64325e-05
-2.82884e-07
-2.82884e-07
3.05736e-07
4.42562e-07
0.000108783
-3.55844e-07
1.82782e-07
5.24023e-07
0.000125443
-4.10572e-07
1.2707e-11
5.68004e-07
0.000134315
-4.40399e-07
-1.82758e-07
5.68005e-07
0.000134315
-4.40399e-07
-3.05716e-07
5.24024e-07
0.000125443
-4.10573e-07
-3.37033e-07
4.42563e-07
0.000108783
-3.55846e-07
3.37051e-07
8.64326e-05
-2.82875e-07
-2.82886e-07
4.42561e-07
3.05737e-07
0.000108783
-3.55844e-07
4.11371e-07
4.11371e-07
0.000136127
2.48176e-07
4.93904e-07
0.000155277
1.29721e-11
5.35816e-07
0.000165117
-2.48151e-07
5.35816e-07
0.000165117
-4.11349e-07
4.93905e-07
0.000155277
-4.42545e-07
4.11373e-07
0.000136127
3.05739e-07
0.000108783
-3.55835e-07
5.24022e-07
1.82782e-07
0.000125443
-4.10571e-07
4.93903e-07
2.48176e-07
0.000155277
2.99361e-07
2.99361e-07
0.000175655
1.27649e-11
3.22843e-07
0.000185846
-2.99336e-07
3.22843e-07
0.000185846
-4.93882e-07
2.99362e-07
0.000175655
-5.24006e-07
2.48177e-07
0.000155277
1.82783e-07
0.000125443
-4.10563e-07
5.68004e-07
1.34253e-11
0.000134315
-4.40398e-07
5.35815e-07
1.3767e-11
0.000165117
3.22843e-07
1.33856e-11
0.000185846
1.24775e-11
1.29448e-11
0.000195828
-3.22819e-07
1.28896e-11
0.000195828
-5.35794e-07
1.32236e-11
0.000185846
-5.67988e-07
1.35047e-11
0.000165117
1.31277e-11
0.000134315
-4.40389e-07
5.68004e-07
-1.82757e-07
0.000134315
-4.40398e-07
5.35816e-07
-2.4815e-07
0.000165117
3.22843e-07
-2.99336e-07
0.000185846
1.24302e-11
-3.22818e-07
0.000195828
-3.22819e-07
-3.22818e-07
0.000195828
-5.35795e-07
-2.99336e-07
0.000185846
-5.67988e-07
-2.48151e-07
0.000165117
-1.82758e-07
0.000134315
-4.4039e-07
5.24024e-07
-3.05715e-07
0.000125443
-4.10573e-07
4.93904e-07
-4.11348e-07
0.000155277
2.99361e-07
-4.93881e-07
0.000175655
1.26132e-11
-5.35793e-07
0.000185846
-2.99337e-07
-5.35794e-07
0.000185846
-4.93883e-07
-4.93882e-07
0.000175655
-5.24008e-07
-4.1135e-07
0.000155277
-3.05717e-07
0.000125443
-4.10564e-07
4.42563e-07
-3.37032e-07
0.000108783
-3.55845e-07
4.11372e-07
-4.42544e-07
0.000136127
2.48176e-07
-5.24005e-07
0.000155277
1.26814e-11
-5.67987e-07
0.000165117
-2.48152e-07
-5.67987e-07
0.000165117
-4.11351e-07
-5.24007e-07
0.000155277
-4.42547e-07
-4.42546e-07
0.000136127
-3.37035e-07
0.000108783
-3.55836e-07
3.3705e-07
8.64326e-05
-2.82874e-07
-2.82885e-07
3.05738e-07
0.000108783
-3.55834e-07
1.82783e-07
0.000125443
-4.10561e-07
1.23436e-11
0.000134315
-4.40388e-07
-1.82759e-07
0.000134315
-4.40388e-07
-3.05718e-07
0.000125443
-4.10563e-07
-3.37035e-07
0.000108783
-3.55836e-07
8.64326e-05
-2.82876e-07
-2.82877e-07
1.51361e-07
1.51361e-07
8.63735e-05
-1.21844e-07
-1.21843e-07
1.40357e-07
2.02158e-07
0.000108747
-1.55434e-07
8.45894e-08
2.41384e-07
0.000125439
-1.81521e-07
2.39668e-11
2.62718e-07
0.000134333
-1.96093e-07
-8.45439e-08
2.62719e-07
0.000134333
-1.96094e-07
-1.40318e-07
2.41387e-07
0.000125439
-1.81523e-07
-1.51332e-07
2.02162e-07
0.000108747
-1.55437e-07
1.51366e-07
8.63735e-05
-1.21826e-07
-1.21846e-07
2.02157e-07
1.40358e-07
0.000108747
-1.55434e-07
1.9103e-07
1.91031e-07
0.00013615
1.15778e-07
2.30248e-07
0.000155363
2.47508e-11
2.50429e-07
0.000165245
-1.15731e-07
2.5043e-07
0.000165245
-1.90989e-07
2.3025e-07
0.000155363
-2.02127e-07
1.91034e-07
0.00013615
1.40362e-07
0.000108747
-1.55416e-07
2.41384e-07
8.45901e-08
0.000125439
-1.8152e-07
2.30247e-07
1.15779e-07
0.000155363
1.40077e-07
1.40077e-07
0.000175835
2.46035e-11
1.51676e-07
0.000186085
-1.4003e-07
1.51676e-07
0.000186085
-2.30206e-07
1.40078e-07
0.000175835
-2.41353e-07
1.1578e-07
0.000155363
8.45925e-08
0.000125439
-1.81502e-07
2.62717e-07
2.44297e-11
0.000134333
-1.96093e-07
2.50429e-07
2.5201e-11
0.000165245
1.51676e-07
2.48141e-11
0.000186085
2.42003e-11
2.42279e-11
0.000196131
-1.51629e-07
2.41851e-11
0.000196131
-2.50388e-07
2.47064e-11
0.000186085
-2.62687e-07
2.5044e-11
0.000165245
2.42811e-11
0.000134333
-1.96074e-07
2.62718e-07
-8.45436e-08
0.000134333
-1.96093e-07
2.5043e-07
-1.1573e-07
0.000165245
1.51676e-07
-1.4003e-07
0.000186085
2.41739e-11
-1.51629e-07
0.000196131
-1.5163e-07
-1.5163e-07
0.000196131
-2.50389e-07
-1.40031e-07
0.000186085
-2.62687e-07
-1.15732e-07
0.000165245
-8.45463e-08
0.000134333
-1.96075e-07
2.41386e-07
-1.40318e-07
0.000125439
-1.81522e-07
2.30249e-07
-1.90989e-07
0.000155363
1.40078e-07
-2.30206e-07
0.000175835
2.45295e-11
-2.50388e-07
0.000186085
-1.40031e-07
-2.50389e-07
0.000186085
-2.30208e-07
-2.30208e-07
0.000175835
-2.41355e-07
-1.90992e-07
0.000155363
-1.40322e-07
0.000125439
-1.81504e-07
2.02161e-07
-1.51331e-07
0.000108747
-1.55437e-07
1.91033e-07
-2.02126e-07
0.00013615
1.1578e-07
-2.41352e-07
0.000155363
2.46052e-11
-2.62686e-07
0.000165245
-1.15733e-07
-2.62687e-07
0.000165245
-1.90993e-07
-2.41355e-07
0.000155363
-2.0213e-07
-2.0213e-07
0.00013615
-1.51336e-07
0.000108747
-1.55418e-07
1.51365e-07
8.63735e-05
-1.21826e-07
-1.21846e-07
1.40361e-07
0.000108747
-1.55414e-07
8.4592e-08
0.000125439
-1.81501e-07
2.37925e-11
0.000134333
-1.96073e-07
-8.45467e-08
0.000134333
-1.96074e-07
-1.40323e-07
0.000125439
-1.81503e-07
-1.51336e-07
0.000108747
-1.55418e-07
8.63735e-05
-1.21829e-07
-1.21829e-07
7.90562e-08
7.90562e-08
8.63467e-05
-6.56362e-08
-6.56355e-08
7.18821e-08
1.04077e-07
0.000108733
-8.28936e-08
4.29186e-08
1.23099e-07
0.000125441
-9.59358e-08
4.54485e-11
1.33357e-07
0.000134345
-1.03118e-07
-4.28322e-08
1.33359e-07
0.000134345
-1.0312e-07
-7.18086e-08
1.23103e-07
0.000125441
-9.59389e-08
-7.90011e-08
1.04084e-07
0.000108733
-8.28985e-08
7.90636e-08
8.63467e-05
-6.56028e-08
-6.56406e-08
1.04077e-07
7.18821e-08
0.000108733
-8.28934e-08
9.64565e-08
9.64564e-08
0.000136165
5.79213e-08
1.15216e-07
0.000155409
4.72097e-11
1.2479e-07
0.000165311
-5.78312e-08
1.24791e-07
0.000165311
-9.6379e-08
1.15219e-07
0.000155409
-1.04019e-07
9.64617e-08
0.000136165
7.18889e-08
0.000108733
-8.2858e-08
1.23099e-07
4.29183e-08
0.000125441
-9.59355e-08
1.15216e-07
5.79209e-08
0.000155409
6.94627e-08
6.9462e-08
0.000175926
4.70109e-11
7.49468e-08
0.000186204
-6.93726e-08
7.49473e-08
0.000186204
-1.15138e-07
6.94636e-08
0.000175927
-1.2304e-07
5.79236e-08
0.000155409
4.29221e-08
0.000125441
-9.58998e-08
1.33357e-07
4.50035e-11
0.000134345
-1.03118e-07
1.24791e-07
4.66238e-11
0.000165311
7.49477e-08
4.61486e-11
0.000186204
4.62351e-11
4.51838e-11
0.000196281
-7.48585e-08
4.50633e-11
0.000196281
-1.24713e-07
4.57803e-11
0.000186204
-1.33298e-07
4.60228e-11
0.000165311
4.42892e-11
0.000134345
-1.03082e-07
1.33359e-07
-4.28326e-08
0.000134345
-1.03119e-07
1.24792e-07
-5.78317e-08
0.000165311
7.49483e-08
-6.93734e-08
0.000186204
4.61433e-11
-7.48594e-08
0.000196281
-7.48592e-08
-7.48601e-08
0.000196281
-1.24714e-07
-6.93757e-08
0.000186204
-1.333e-07
-5.78357e-08
0.000165311
-4.28378e-08
0.000134345
-1.03083e-07
1.23104e-07
-7.18089e-08
0.000125441
-9.5939e-08
1.1522e-07
-9.63792e-08
0.000155409
6.94645e-08
-1.15139e-07
0.000175927
4.67081e-11
-1.24713e-07
0.000186204
-6.9375e-08
-1.24715e-07
0.000186204
-1.15142e-07
-1.15143e-07
0.000175927
-1.23045e-07
-9.63857e-08
0.000155409
-7.1817e-08
0.000125441
-9.59032e-08
1.04084e-07
-7.90012e-08
0.000108733
-8.28987e-08
9.64622e-08
-1.04019e-07
0.000136165
5.79243e-08
-1.2304e-07
0.000155409
4.66581e-11
-1.33298e-07
0.000165311
-5.78352e-08
-1.333e-07
0.000165311
-9.63855e-08
-1.23045e-07
0.000155409
-1.04026e-07
-1.04026e-07
0.000136165
-7.90097e-08
0.000108733
-8.28632e-08
7.90638e-08
8.63467e-05
-6.56028e-08
-6.56404e-08
7.18892e-08
0.000108733
-8.28572e-08
4.29225e-08
0.000125441
-9.58992e-08
4.4741e-11
0.000134345
-1.03082e-07
-4.28375e-08
0.000134345
-1.03083e-07
-7.18168e-08
0.000125441
-9.59029e-08
-7.90094e-08
0.000108733
-8.28633e-08
8.63467e-05
-6.56075e-08
-6.56087e-08
3.81228e-08
3.81223e-08
8.63325e-05
-3.10503e-08
-3.10488e-08
3.50822e-08
5.06608e-08
0.000108725
-3.94889e-08
2.10809e-08
6.0246e-08
0.000125441
-4.5981e-08
8.11598e-11
6.54212e-08
0.00013435
-4.95886e-08
-2.09267e-08
6.54237e-08
0.00013435
-4.95906e-08
-3.49512e-08
6.02533e-08
0.000125441
-4.59864e-08
-3.80247e-08
5.06722e-08
0.000108725
-3.94977e-08
3.81355e-08
8.63326e-05
-3.09906e-08
-3.10572e-08
5.06612e-08
3.50815e-08
0.000108725
-3.94889e-08
4.74585e-08
4.74575e-08
0.000136171
2.86398e-08
5.68909e-08
0.000155432
8.52869e-11
6.16918e-08
0.000165344
-2.84771e-08
6.16938e-08
0.000165344
-4.73185e-08
5.6897e-08
0.000155432
-5.05558e-08
4.74673e-08
0.000136171
3.50939e-08
0.000108725
-3.9424e-08
6.02465e-08
2.10797e-08
0.000125441
-4.59807e-08
5.68922e-08
2.86382e-08
0.000155432
3.44255e-08
3.44236e-08
0.000175971
8.55972e-11
3.71639e-08
0.000186263
-3.42615e-08
3.71648e-08
0.000186263
-5.675e-08
3.44267e-08
0.000175971
-6.01389e-08
2.86436e-08
0.000155432
2.1087e-08
0.000125441
-4.59146e-08
6.54218e-08
7.95567e-11
0.00013435
-4.95884e-08
6.16933e-08
8.3356e-11
0.000165344
3.7166e-08
8.33512e-11
0.000186263
8.45362e-11
8.21158e-11
0.000196355
-3.70029e-08
8.19841e-11
0.000196355
-6.15509e-08
8.29704e-11
0.000186263
-6.53135e-08
8.27598e-11
0.000165344
7.89101e-11
0.000134351
-4.95213e-08
6.54245e-08
-2.09284e-08
0.00013435
-4.95905e-08
6.16955e-08
-2.84791e-08
0.000165344
3.7167e-08
-3.42638e-08
0.000186263
8.44234e-11
-3.70052e-08
0.000196355
-3.70041e-08
-3.70064e-08
0.000196355
-6.15532e-08
-3.42676e-08
0.000186263
-6.53162e-08
-2.84856e-08
0.000165344
-2.0937e-08
0.000134351
-4.95233e-08
6.02542e-08
-3.49527e-08
0.000125441
-4.59866e-08
5.68986e-08
-4.73202e-08
0.000155432
3.44288e-08
-5.67519e-08
0.000175971
8.52371e-11
-6.15528e-08
0.000186263
-3.42655e-08
-6.15551e-08
0.000186263
-5.67569e-08
-5.67586e-08
0.000175972
-6.01468e-08
-4.7331e-08
0.000155432
-3.49662e-08
0.000125441
-4.59203e-08
5.0673e-08
-3.80257e-08
0.000108725
-3.94981e-08
4.74686e-08
-5.05567e-08
0.000136171
2.86453e-08
-6.014e-08
0.000155432
8.46272e-11
-6.53147e-08
0.000165344
-2.84838e-08
-6.53175e-08
0.000165344
-4.73296e-08
-6.0148e-08
0.000155432
-5.0568e-08
-5.05692e-08
0.000136172
-3.80401e-08
0.000108725
-3.9433e-08
3.81361e-08
8.63326e-05
-3.09908e-08
-3.10577e-08
3.50947e-08
0.000108725
-3.9424e-08
2.10881e-08
0.000125441
-4.5915e-08
8.02813e-11
0.000134351
-4.95219e-08
-2.09356e-08
0.000134351
-4.95241e-08
-3.4965e-08
0.000125441
-4.59211e-08
-3.8039e-08
0.000108725
-3.9434e-08
8.63327e-05
-3.09989e-08
-3.09999e-08
1.97026e-08
1.97012e-08
8.63255e-05
-1.62107e-08
-1.62091e-08
1.80448e-08
2.60477e-08
0.000108721
-2.05351e-08
1.08619e-08
3.08859e-08
0.000125441
-2.38308e-08
1.39633e-10
3.34935e-08
0.000134353
-2.56523e-08
-1.05967e-08
3.34973e-08
0.000134353
-2.56552e-08
-1.78197e-08
3.0897e-08
0.000125441
-2.38386e-08
-1.95346e-08
2.60646e-08
0.000108722
-2.05476e-08
1.97206e-08
8.63257e-05
-1.61081e-08
-1.62205e-08
2.60494e-08
1.80426e-08
0.000108721
-2.05358e-08
2.43003e-08
2.42975e-08
0.000136175
1.46845e-08
2.9061e-08
0.000155443
1.49001e-10
3.14792e-08
0.00016536
-1.44004e-08
3.14824e-08
0.00016536
-2.40562e-08
2.90705e-08
0.000155443
-2.58658e-08
2.43126e-08
0.000136175
1.80614e-08
0.000108722
-2.04226e-08
3.08878e-08
1.08589e-08
0.000125441
-2.38315e-08
2.90642e-08
1.46808e-08
0.000155443
1.76049e-08
1.76008e-08
0.000175994
1.50922e-10
1.89774e-08
0.000186293
-1.73159e-08
1.89789e-08
0.000186293
-2.8814e-08
1.76058e-08
0.000175994
-3.06987e-08
1.46892e-08
0.000155443
1.08701e-08
0.000125441
-2.3715e-08
3.34956e-08
1.36262e-10
0.000134353
-2.56532e-08
3.14826e-08
1.44887e-10
0.00016536
1.89817e-08
1.46399e-10
0.000186293
1.49661e-10
1.45019e-10
0.000196393
-1.8693e-08
1.44818e-10
0.000196393
-3.12309e-08
1.45782e-10
0.000186293
-3.33045e-08
1.43883e-10
0.00016536
1.35138e-10
0.000134353
-2.55348e-08
3.34996e-08
-1.06e-08
0.000134353
-2.56562e-08
3.14858e-08
-1.44044e-08
0.00016536
1.89832e-08
-1.73203e-08
0.000186293
1.4938e-10
-1.86975e-08
0.000196393
-1.86951e-08
-1.86994e-08
0.000196393
-3.12347e-08
-1.73264e-08
0.000186293
-3.33089e-08
-1.44147e-08
0.00016536
-1.06134e-08
0.000134354
-2.5538e-08
3.08993e-08
-1.78226e-08
0.000125441
-2.38397e-08
2.90738e-08
-2.40596e-08
0.000155443
1.76098e-08
-2.88176e-08
0.000175994
1.50022e-10
-3.12346e-08
0.000186293
-1.73225e-08
-3.12382e-08
0.000186293
-2.88251e-08
-2.88282e-08
0.000175995
-3.07112e-08
-2.40765e-08
0.000155443
-1.78433e-08
0.000125441
-2.3724e-08
2.60666e-08
-1.95367e-08
0.000108722
-2.05487e-08
2.43154e-08
-2.58681e-08
0.000136175
1.46925e-08
-3.07011e-08
0.000155443
1.47394e-10
-3.3307e-08
0.00016536
-1.44115e-08
-3.33112e-08
0.00016536
-2.4074e-08
-3.07133e-08
0.000155443
-2.5885e-08
-2.58867e-08
0.000136175
-1.95579e-08
0.000108722
-2.04366e-08
1.97221e-08
8.63257e-05
-1.61096e-08
-1.62213e-08
1.80632e-08
0.000108722
-2.04234e-08
1.08723e-08
0.000125441
-2.37161e-08
1.37502e-10
0.000134353
-2.55359e-08
-1.06112e-08
0.000134354
-2.5539e-08
-1.78417e-08
0.000125441
-2.37249e-08
-1.95566e-08
0.000108722
-2.04376e-08
8.63258e-05
-1.61206e-08
-1.61222e-08
9.89361e-09
9.89247e-09
8.63219e-05
-8.05872e-09
-8.05738e-09
9.1473e-09
1.31157e-08
0.000108719
-1.02269e-08
5.59151e-09
1.55815e-08
0.000125441
-1.18917e-08
2.22916e-10
1.69149e-08
0.000134355
-1.28164e-08
-5.16851e-09
1.69204e-08
0.000134355
-1.28202e-08
-8.78892e-09
1.55973e-08
0.000125441
-1.1902e-08
-9.6266e-09
1.31394e-08
0.000108719
-1.02438e-08
9.91882e-09
8.63221e-05
-7.89579e-09
-8.07067e-09
1.31179e-08
9.14531e-09
0.000108719
-1.02281e-08
1.2344e-08
1.23404e-08
0.000136176
7.55645e-09
1.47786e-08
0.000155449
2.43666e-10
1.60202e-08
0.000165368
-7.0922e-09
1.60249e-08
0.000165369
-1.19461e-08
1.47926e-08
0.000155449
-1.28195e-08
1.23624e-08
0.000136177
9.17217e-09
0.00010872
-1.00438e-08
1.55845e-08
5.58849e-09
0.000125441
-1.18931e-08
1.47832e-08
7.55164e-09
0.000155449
9.05749e-09
9.05176e-09
0.000176006
2.50741e-10
9.76109e-09
0.000186308
-8.5777e-09
9.76346e-09
0.000186308
-1.43685e-08
9.05951e-09
0.000176006
-1.52718e-08
7.56467e-09
0.000155449