/*--------------------------------*- C++ -*----------------------------------*\
| =========                 |                                                 |
| \\      /  F ield         | OpenFOAM: The Open Source CFD Toolbox           |
|  \\    /   O peration     | Version:  2406                                  |
|   \\  /    A nd           | Website:  www.openfoam.com                      |
|    \\/     M anipulation  |                                                 |
\*---------------------------------------------------------------------------*/
FoamFile
{
    version     2.0;
    format      ascii;
    arch        "LSB;label=32;scalar=64";
    class       volVectorField;
    location    "0.8";
    object      U;
}
// * * * * * * * * * * * * * * * * * * * * * * * * * * * * * * * * * * * * * //

dimensions      [0 1 -1 0 0 0 0];

internalField   nonuniform List<vector> 
16000
(
(0.153132 0.153132 1.11474)
(0.117573 0.168169 1.1542)
(0.072459 0.17688 1.17285)
(0.0244946 0.180953 1.18018)
(-0.0244946 0.180953 1.18018)
(-0.072459 0.17688 1.17285)
(-0.117573 0.168169 1.1542)
(-0.153132 0.153132 1.11474)
(0.168169 0.117573 1.1542)
(0.126109 0.126109 1.18728)
(0.0766337 0.131081 1.19757)
(0.0257137 0.133402 1.19978)
(-0.0257137 0.133402 1.19978)
(-0.0766337 0.131081 1.19757)
(-0.126109 0.126109 1.18728)
(-0.168169 0.117573 1.1542)
(0.17688 0.072459 1.17285)
(0.131081 0.0766337 1.19757)
(0.0792027 0.0792027 1.20176)
(0.0264749 0.0803911 1.20065)
(-0.0264749 0.0803911 1.20065)
(-0.0792027 0.0792027 1.20176)
(-0.131081 0.0766337 1.19757)
(-0.17688 0.072459 1.17285)
(0.180953 0.0244946 1.18018)
(0.133402 0.0257137 1.19978)
(0.0803911 0.0264749 1.20065)
(0.0268183 0.0268183 1.1979)
(-0.0268183 0.0268183 1.1979)
(-0.0803911 0.0264749 1.20065)
(-0.133402 0.0257137 1.19978)
(-0.180953 0.0244946 1.18018)
(0.180953 -0.0244946 1.18018)
(0.133402 -0.0257137 1.19978)
(0.0803911 -0.0264749 1.20065)
(0.0268183 -0.0268183 1.1979)
(-0.0268183 -0.0268183 1.1979)
(-0.0803911 -0.0264749 1.20065)
(-0.133402 -0.0257137 1.19978)
(-0.180953 -0.0244946 1.18018)
(0.17688 -0.072459 1.17285)
(0.131081 -0.0766337 1.19757)
(0.0792027 -0.0792027 1.20176)
(0.0264749 -0.0803911 1.20065)
(-0.0264749 -0.0803911 1.20065)
(-0.0792027 -0.0792027 1.20176)
(-0.131081 -0.0766337 1.19757)
(-0.17688 -0.072459 1.17285)
(0.168169 -0.117573 1.1542)
(0.126109 -0.126109 1.18728)
(0.0766337 -0.131081 1.19757)
(0.0257137 -0.133402 1.19978)
(-0.0257137 -0.133402 1.19978)
(-0.0766337 -0.131081 1.19757)
(-0.126109 -0.126109 1.18728)
(-0.168169 -0.117573 1.1542)
(0.153132 -0.153132 1.11474)
(0.117573 -0.168169 1.1542)
(0.072459 -0.17688 1.17285)
(0.0244946 -0.180953 1.18018)
(-0.0244946 -0.180953 1.18018)
(-0.072459 -0.17688 1.17285)
(-0.117573 -0.168169 1.1542)
(-0.153132 -0.153132 1.11474)
(0.0494154 0.0494154 1.29062)
(0.0414003 0.0615755 1.3895)
(0.0279271 0.0703803 1.44408)
(0.00984083 0.075171 1.46809)
(-0.00984083 0.075171 1.46809)
(-0.027927 0.0703803 1.44408)
(-0.0414003 0.0615755 1.3895)
(-0.0494154 0.0494154 1.29062)
(0.0615755 0.0414003 1.3895)
(0.0531611 0.0531611 1.48728)
(0.0357288 0.0616406 1.53241)
(0.0125458 0.0660227 1.54992)
(-0.0125458 0.0660227 1.54992)
(-0.0357288 0.0616406 1.53241)
(-0.0531611 0.0531611 1.48728)
(-0.0615755 0.0414003 1.3895)
(0.0703803 0.0279271 1.44408)
(0.0616406 0.0357288 1.53241)
(0.0413007 0.0413007 1.57006)
(0.0144349 0.0441146 1.5832)
(-0.0144349 0.0441146 1.5832)
(-0.0413007 0.0413007 1.57006)
(-0.0616406 0.0357288 1.53241)
(-0.0703803 0.0279271 1.44408)
(0.075171 0.00984083 1.46809)
(0.0660227 0.0125458 1.54992)
(0.0441146 0.0144349 1.5832)
(0.0153734 0.0153734 1.59386)
(-0.0153734 0.0153734 1.59386)
(-0.0441146 0.0144349 1.5832)
(-0.0660227 0.0125458 1.54992)
(-0.0751711 0.00984083 1.46809)
(0.075171 -0.00984082 1.46809)
(0.0660227 -0.0125458 1.54992)
(0.0441146 -0.0144349 1.5832)
(0.0153734 -0.0153734 1.59386)
(-0.0153734 -0.0153734 1.59386)
(-0.0441146 -0.0144349 1.5832)
(-0.0660227 -0.0125458 1.54992)
(-0.0751711 -0.00984082 1.46809)
(0.0703803 -0.027927 1.44408)
(0.0616406 -0.0357288 1.53241)
(0.0413007 -0.0413007 1.57006)
(0.0144349 -0.0441146 1.5832)
(-0.0144349 -0.0441146 1.5832)
(-0.0413007 -0.0413007 1.57006)
(-0.0616406 -0.0357288 1.53241)
(-0.0703803 -0.027927 1.44408)
(0.0615755 -0.0414002 1.3895)
(0.0531611 -0.0531611 1.48728)
(0.0357288 -0.0616406 1.53241)
(0.0125458 -0.0660227 1.54992)
(-0.0125458 -0.0660227 1.54992)
(-0.0357288 -0.0616406 1.53241)
(-0.0531611 -0.0531611 1.48728)
(-0.0615755 -0.0414003 1.3895)
(0.0494154 -0.0494154 1.29062)
(0.0414003 -0.0615755 1.3895)
(0.0279271 -0.0703803 1.44408)
(0.00984083 -0.075171 1.46809)
(-0.00984083 -0.075171 1.46809)
(-0.027927 -0.0703803 1.44408)
(-0.0414003 -0.0615755 1.3895)
(-0.0494154 -0.0494154 1.29062)
(0.0295334 0.0295334 1.18369)
(0.0263057 0.0381217 1.33605)
(0.0179588 0.0440247 1.43119)
(0.00638113 0.0472238 1.47636)
(-0.00638113 0.0472238 1.47636)
(-0.0179588 0.0440247 1.43119)
(-0.0263057 0.0381217 1.33605)
(-0.0295334 0.0295334 1.18369)
(0.0381217 0.0263057 1.33605)
(0.03387 0.03387 1.50686)
(0.0231033 0.0393329 1.60045)
(0.00819889 0.0422271 1.64149)
(-0.00819889 0.0422271 1.64149)
(-0.0231033 0.0393329 1.60045)
(-0.03387 0.03387 1.50686)
(-0.0381217 0.0263057 1.33605)
(0.0440247 0.0179588 1.43119)
(0.0393329 0.0231033 1.60045)
(0.0268026 0.0268026 1.68906)
(0.00948465 0.028713 1.72654)
(-0.00948464 0.028713 1.72654)
(-0.0268026 0.0268026 1.68906)
(-0.0393329 0.0231033 1.60045)
(-0.0440247 0.0179588 1.43119)
(0.0472238 0.00638113 1.47636)
(0.0422271 0.00819889 1.64149)
(0.028713 0.00948465 1.72654)
(0.0101528 0.0101528 1.76219)
(-0.0101528 0.0101528 1.76219)
(-0.028713 0.00948465 1.72654)
(-0.042227 0.00819889 1.64149)
(-0.0472238 0.00638113 1.47636)
(0.0472238 -0.00638113 1.47636)
(0.0422271 -0.00819889 1.64149)
(0.028713 -0.00948464 1.72654)
(0.0101528 -0.0101528 1.76219)
(-0.0101528 -0.0101528 1.76219)
(-0.028713 -0.00948464 1.72654)
(-0.042227 -0.00819889 1.64149)
(-0.0472238 -0.00638113 1.47636)
(0.0440247 -0.0179588 1.43119)
(0.0393329 -0.0231033 1.60045)
(0.0268026 -0.0268026 1.68906)
(0.00948465 -0.028713 1.72654)
(-0.00948464 -0.028713 1.72654)
(-0.0268026 -0.0268026 1.68906)
(-0.0393329 -0.0231033 1.60045)
(-0.0440247 -0.0179588 1.43119)
(0.0381217 -0.0263057 1.33605)
(0.03387 -0.03387 1.50686)
(0.0231033 -0.0393329 1.60045)
(0.00819889 -0.042227 1.64149)
(-0.00819889 -0.042227 1.64149)
(-0.0231033 -0.0393329 1.60045)
(-0.03387 -0.03387 1.50686)
(-0.0381217 -0.0263057 1.33605)
(0.0295334 -0.0295334 1.18369)
(0.0263057 -0.0381217 1.33605)
(0.0179588 -0.0440247 1.43119)
(0.00638113 -0.0472238 1.47636)
(-0.00638113 -0.0472238 1.47636)
(-0.0179588 -0.0440247 1.43119)
(-0.0263057 -0.0381217 1.33605)
(-0.0295334 -0.0295334 1.18369)
(0.00607788 0.00607788 1.17735)
(0.00678721 0.00932593 1.34012)
(0.00531536 0.0121436 1.44756)
(0.00200435 0.0137879 1.50053)
(-0.00200434 0.0137879 1.50053)
(-0.00531535 0.0121436 1.44756)
(-0.00678721 0.00932593 1.34012)
(-0.00607788 0.00607788 1.17735)
(0.00932593 0.00678721 1.34012)
(0.010642 0.010642 1.53329)
(0.0082524 0.0137676 1.64786)
(0.00308277 0.0154575 1.70082)
(-0.00308276 0.0154575 1.70082)
(-0.00825239 0.0137676 1.64786)
(-0.0106419 0.010642 1.53329)
(-0.00932593 0.00678721 1.34012)
(0.0121436 0.00531536 1.44756)
(0.0137676 0.0082524 1.64786)
(0.0104758 0.0104758 1.76219)
(0.00386311 0.0115575 1.81303)
(-0.0038631 0.0115575 1.81303)
(-0.0104758 0.0104758 1.76219)
(-0.0137676 0.0082524 1.64786)
(-0.0121436 0.00531536 1.44756)
(0.0137879 0.00200435 1.50053)
(0.0154575 0.00308277 1.70082)
(0.0115575 0.00386311 1.81303)
(0.00421154 0.00421154 1.8613)
(-0.00421153 0.00421154 1.8613)
(-0.0115575 0.00386311 1.81303)
(-0.0154575 0.00308277 1.70082)
(-0.0137879 0.00200435 1.50053)
(0.0137879 -0.00200434 1.50053)
(0.0154575 -0.00308276 1.70082)
(0.0115575 -0.0038631 1.81303)
(0.00421154 -0.00421153 1.8613)
(-0.00421153 -0.00421153 1.8613)
(-0.0115575 -0.0038631 1.81303)
(-0.0154575 -0.00308276 1.70082)
(-0.0137879 -0.00200434 1.50053)
(0.0121436 -0.00531535 1.44756)
(0.0137676 -0.00825239 1.64786)
(0.0104758 -0.0104758 1.76219)
(0.00386311 -0.0115575 1.81303)
(-0.0038631 -0.0115575 1.81303)
(-0.0104758 -0.0104758 1.76219)
(-0.0137676 -0.00825239 1.64786)
(-0.0121436 -0.00531535 1.44756)
(0.00932593 -0.0067872 1.34012)
(0.010642 -0.0106419 1.53329)
(0.0082524 -0.0137676 1.64786)
(0.00308277 -0.0154575 1.70082)
(-0.00308276 -0.0154575 1.70082)
(-0.00825239 -0.0137676 1.64786)
(-0.0106419 -0.0106419 1.53329)
(-0.00932593 -0.00678721 1.34012)
(0.00607788 -0.00607788 1.17735)
(0.00678721 -0.00932592 1.34012)
(0.00531536 -0.0121436 1.44756)
(0.00200435 -0.0137879 1.50053)
(-0.00200434 -0.0137879 1.50053)
(-0.00531535 -0.0121436 1.44756)
(-0.00678721 -0.00932593 1.34012)
(-0.00607788 -0.00607788 1.17735)
(0.00420929 0.00420929 1.15879)
(0.00417759 0.00573707 1.32761)
(0.00305282 0.00697194 1.44156)
(0.0011217 0.00767951 1.4987)
(-0.00112168 0.00767951 1.4987)
(-0.0030528 0.00697194 1.44156)
(-0.00417757 0.00573708 1.32761)
(-0.00420928 0.00420929 1.15879)
(0.00573707 0.00417759 1.32761)
(0.00582711 0.00582711 1.53244)
(0.00432306 0.00720708 1.65824)
(0.00159286 0.00796351 1.71788)
(-0.00159284 0.00796351 1.71788)
(-0.00432305 0.00720708 1.65824)
(-0.0058271 0.00582711 1.53244)
(-0.00573707 0.00417759 1.32761)
(0.00697194 0.00305282 1.44156)
(0.00720708 0.00432306 1.65824)
(0.00533723 0.00533723 1.7871)
(0.00194952 0.00580511 1.84585)
(-0.00194951 0.00580511 1.84585)
(-0.00533722 0.00533723 1.7871)
(-0.00720707 0.00432307 1.65824)
(-0.00697193 0.00305282 1.44156)
(0.00767951 0.0011217 1.4987)
(0.00796351 0.00159286 1.71788)
(0.00580511 0.00194952 1.84585)
(0.00208329 0.00208329 1.90127)
(-0.00208328 0.00208329 1.90127)
(-0.0058051 0.00194952 1.84585)
(-0.0079635 0.00159286 1.71788)
(-0.00767951 0.0011217 1.4987)
(0.00767951 -0.00112168 1.4987)
(0.00796351 -0.00159284 1.71788)
(0.00580511 -0.00194951 1.84585)
(0.00208329 -0.00208327 1.90127)
(-0.00208328 -0.00208327 1.90127)
(-0.0058051 -0.00194951 1.84585)
(-0.0079635 -0.00159284 1.71788)
(-0.00767951 -0.00112168 1.4987)
(0.00697194 -0.0030528 1.44156)
(0.00720708 -0.00432305 1.65824)
(0.00533723 -0.00533721 1.7871)
(0.00194952 -0.0058051 1.84585)
(-0.00194951 -0.0058051 1.84585)
(-0.00533722 -0.00533721 1.7871)
(-0.00720707 -0.00432305 1.65824)
(-0.00697193 -0.0030528 1.44156)
(0.00573708 -0.00417757 1.32761)
(0.00582711 -0.00582709 1.53244)
(0.00432306 -0.00720707 1.65824)
(0.00159286 -0.0079635 1.71788)
(-0.00159284 -0.0079635 1.71788)
(-0.00432305 -0.00720707 1.65824)
(-0.0058271 -0.0058271 1.53244)
(-0.00573707 -0.00417757 1.32761)
(0.00420929 -0.00420928 1.15879)
(0.00417759 -0.00573706 1.32761)
(0.00305282 -0.00697192 1.44156)
(0.0011217 -0.0076795 1.4987)
(-0.00112168 -0.0076795 1.4987)
(-0.0030528 -0.00697193 1.44156)
(-0.00417758 -0.00573707 1.32761)
(-0.00420928 -0.00420928 1.15879)
(0.00130174 0.00130174 1.15563)
(0.00140466 0.00190346 1.3259)
(0.00109258 0.00244353 1.44189)
(0.000412982 0.00276632 1.50046)
(-0.000412951 0.00276632 1.50046)
(-0.00109255 0.00244353 1.44189)
(-0.00140463 0.00190346 1.3259)
(-0.00130173 0.00130175 1.15563)
(0.00190346 0.00140466 1.3259)
(0.0021453 0.00214531 1.53424)
(0.00168721 0.00280357 1.66415)
(0.000637041 0.003177 1.72646)
(-0.00063701 0.003177 1.72646)
(-0.00168718 0.00280357 1.66415)
(-0.00214528 0.00214531 1.53424)
(-0.00190344 0.00140466 1.3259)
(0.00244352 0.00109258 1.44189)
(0.00280357 0.00168721 1.66415)
(0.0021904 0.0021904 1.7989)
(0.000816987 0.00243561 1.86114)
(-0.000816956 0.00243561 1.86114)
(-0.00219037 0.0021904 1.7989)
(-0.00280354 0.00168722 1.66415)
(-0.00244351 0.00109258 1.44189)
(0.00276632 0.000412984 1.50046)
(0.003177 0.000637043 1.72646)
(0.00243561 0.000816989 1.86114)
(0.000886507 0.000886509 1.91993)
(-0.000886477 0.000886509 1.91993)
(-0.00243558 0.000816989 1.86114)
(-0.00317698 0.000637044 1.72646)
(-0.0027663 0.000412986 1.50046)
(0.00276632 -0.000412949 1.50046)
(0.003177 -0.000637007 1.72646)
(0.00243561 -0.000816954 1.86114)
(0.000886508 -0.000886476 1.91993)
(-0.000886478 -0.000886476 1.91993)
(-0.00243558 -0.000816955 1.86114)
(-0.00317698 -0.000637009 1.72646)
(-0.00276631 -0.00041295 1.50046)
(0.00244353 -0.00109254 1.44189)
(0.00280357 -0.00168718 1.66415)
(0.0021904 -0.00219036 1.7989)
(0.000816987 -0.00243558 1.86114)
(-0.000816957 -0.00243558 1.86114)
(-0.00219037 -0.00219037 1.7989)
(-0.00280355 -0.00168718 1.66415)
(-0.00244351 -0.00109255 1.44189)
(0.00190346 -0.00140463 1.3259)
(0.00214531 -0.00214528 1.53424)
(0.00168721 -0.00280354 1.66415)
(0.000637042 -0.00317698 1.72646)
(-0.000637011 -0.00317698 1.72646)
(-0.00168719 -0.00280354 1.66415)
(-0.00214528 -0.00214528 1.53424)
(-0.00190345 -0.00140464 1.3259)
(0.00130175 -0.00130173 1.15563)
(0.00140466 -0.00190344 1.3259)
(0.00109258 -0.0024435 1.44189)
(0.000412983 -0.0027663 1.50046)
(-0.000412953 -0.0027663 1.50046)
(-0.00109255 -0.00244351 1.44189)
(-0.00140464 -0.00190344 1.3259)
(-0.00130173 -0.00130173 1.15563)
(0.000792216 0.000792216 1.15296)
(0.000788374 0.00108157 1.32433)
(0.000581424 0.00132235 1.44146)
(0.000214751 0.00146386 1.50077)
(-0.000214687 0.00146387 1.50077)
(-0.000581364 0.00132236 1.44146)
(-0.000788323 0.00108158 1.32433)
(-0.00079218 0.00079223 1.15296)
(0.00108157 0.000788375 1.32433)
(0.00110844 0.00110844 1.53467)
(0.000833488 0.00139006 1.66657)
(0.000309567 0.00155287 1.73013)
(-0.000309502 0.00155288 1.73013)
(-0.000833428 0.00139007 1.66657)
(-0.00110839 0.00110845 1.53467)
(-0.00108154 0.000788386 1.32433)
(0.00132235 0.000581425 1.44146)
(0.00139006 0.000833489 1.66657)
(0.00105208 0.00105208 1.80409)
(0.00038859 0.00116375 1.86797)
(-0.000388526 0.00116375 1.86797)
(-0.00105202 0.00105208 1.80409)
(-0.00139001 0.000833495 1.66657)
(-0.00132231 0.000581433 1.44146)
(0.00146386 0.000214753 1.50077)
(0.00155287 0.000309569 1.73013)
(0.00116375 0.000388591 1.86797)
(0.000420403 0.000420404 1.92846)
(-0.000420342 0.000420405 1.92846)
(-0.00116369 0.000388592 1.86797)
(-0.00155282 0.00030957 1.73013)
(-0.00146383 0.000214755 1.50077)
(0.00146386 -0.000214685 1.50077)
(0.00155287 -0.0003095 1.73013)
(0.00116375 -0.000388525 1.86797)
(0.000420404 -0.00042034 1.92846)
(-0.000420342 -0.000420341 1.92846)
(-0.00116369 -0.000388527 1.86797)
(-0.00155283 -0.000309503 1.73013)
(-0.00146383 -0.000214688 1.50077)
(0.00132235 -0.000581362 1.44146)
(0.00139007 -0.000833425 1.66657)
(0.00105208 -0.00105202 1.80409)
(0.000388591 -0.00116369 1.86797)
(-0.000388528 -0.00116369 1.86797)
(-0.00105202 -0.00105202 1.80409)
(-0.00139002 -0.000833432 1.66657)
(-0.00132232 -0.000581371 1.44146)
(0.00108158 -0.00078832 1.32433)
(0.00110845 -0.00110838 1.53467)
(0.000833493 -0.00139001 1.66657)
(0.000309568 -0.00155282 1.73013)
(-0.000309505 -0.00155282 1.73013)
(-0.000833434 -0.00139002 1.66657)
(-0.0011084 -0.00110839 1.53467)
(-0.00108155 -0.000788334 1.32433)
(0.000792226 -0.000792176 1.15296)
(0.000788383 -0.00108153 1.32433)
(0.00058143 -0.00132231 1.44146)
(0.000214753 -0.00146382 1.50077)
(-0.00021469 -0.00146383 1.50077)
(-0.000581372 -0.00132232 1.44146)
(-0.000788334 -0.00108154 1.32433)
(-0.000792191 -0.000792192 1.15296)
(0.000340759 0.000340758 1.1521)
(0.000347902 0.000479695 1.32392)
(0.000260912 0.000598237 1.44154)
(9.70418e-05 0.000668277 1.50117)
(-9.69201e-05 0.000668283 1.50117)
(-0.0002608 0.000598253 1.44154)
(-0.000347806 0.000479718 1.32392)
(-0.00034069 0.000340785 1.1521)
(0.000479693 0.000347902 1.32392)
(0.000505518 0.000505518 1.53513)
(0.000384231 0.000642889 1.6679)
(0.000143197 0.000722114 1.732)
(-0.000143074 0.000722118 1.732)
(-0.000384116 0.000642901 1.6679)
(-0.00050542 0.000505538 1.53513)
(-0.000479623 0.000347926 1.32392)
(0.000598234 0.000260913 1.44154)
(0.000642888 0.000384231 1.6679)
(0.000489718 0.000489718 1.80663)
(0.00018126 0.000544393 1.87124)
(-0.000181138 0.000544395 1.87124)
(-0.000489604 0.000489726 1.80663)
(-0.000642792 0.000384244 1.6679)
(-0.000598166 0.000260929 1.44154)
(0.000668274 9.70428e-05 1.50117)
(0.000722113 0.000143198 1.732)
(0.000544393 0.000181261 1.87124)
(0.000197034 0.000197034 1.93251)
(-0.000196914 0.000197035 1.93251)
(-0.00054428 0.000181263 1.87124)
(-0.000722018 0.000143202 1.732)
(-0.000668206 9.7048e-05 1.50117)
(0.000668279 -9.69189e-05 1.50117)
(0.000722117 -0.000143072 1.732)
(0.000544395 -0.000181137 1.87124)
(0.000197035 -0.000196914 1.93251)
(-0.000196915 -0.000196915 1.93251)
(-0.000544283 -0.00018114 1.87124)
(-0.000722022 -0.000143077 1.732)
(-0.000668211 -9.69248e-05 1.50117)
(0.000598249 -0.000260798 1.44154)
(0.0006429 -0.000384114 1.6679)
(0.000489725 -0.000489603 1.80663)
(0.000181263 -0.00054428 1.87124)
(-0.000181141 -0.000544282 1.87124)
(-0.000489612 -0.000489611 1.80663)
(-0.000642804 -0.000384127 1.6679)
(-0.000598179 -0.000260814 1.44154)
(0.000479715 -0.000347804 1.32392)
(0.000505536 -0.000505418 1.53513)
(0.000384243 -0.00064279 1.6679)
(0.000143201 -0.000722016 1.732)
(-0.000143078 -0.000722021 1.732)
(-0.000384128 -0.000642803 1.6679)
(-0.000505439 -0.000505438 1.53513)
(-0.000479643 -0.000347828 1.32392)
(0.000340782 -0.000340687 1.1521)
(0.000347923 -0.000479618 1.32392)
(0.000260927 -0.000598162 1.44154)
(9.70466e-05 -0.000668203 1.50117)
(-9.69259e-05 -0.000668209 1.50117)
(-0.000260815 -0.000598178 1.44154)
(-0.000347828 -0.000479643 1.32392)
(-0.000340712 -0.000340714 1.1521)
(0.000183421 0.00018342 1.15155)
(0.000182705 0.000253029 1.32363)
(0.000134592 0.000310928 1.44151)
(4.96952e-05 0.000344861 1.5013)
(-4.94646e-05 0.000344871 1.5013)
(-0.000134378 0.000310956 1.44151)
(-0.000182523 0.000253069 1.32363)
(-0.000183289 0.000183465 1.15155)
(0.000253029 0.000182703 1.32363)
(0.000259031 0.00025903 1.5353)
(0.000193644 0.000324843 1.66852)
(7.17041e-05 0.000362665 1.73289)
(-7.14679e-05 0.000362673 1.73289)
(-0.000193424 0.000324866 1.66852)
(-0.000258845 0.000259064 1.5353)
(-0.000252893 0.000182745 1.32363)
(0.000310928 0.00013459 1.44151)
(0.000324845 0.000193642 1.66852)
(0.000243797 0.000243795 1.80785)
(8.97312e-05 0.000269686 1.87281)
(-8.9498e-05 0.00026969 1.87281)
(-0.00024358 0.000243809 1.80785)
(-0.000324661 0.000193664 1.66852)
(-0.000310795 0.000134617 1.44151)
(0.00034486 4.96939e-05 1.5013)
(0.000362666 7.17025e-05 1.73289)
(0.000269688 8.9729e-05 1.87281)
(9.71306e-05 9.71279e-05 1.93446)
(-9.69017e-05 9.71294e-05 1.93446)
(-0.000269473 8.9733e-05 1.87281)
(-0.000362484 7.17089e-05 1.73289)
(-0.000344729 4.97022e-05 1.5013)
(0.00034487 -4.94656e-05 1.5013)
(0.000362674 -7.14693e-05 1.73289)
(0.000269693 -8.95001e-05 1.87281)
(9.71321e-05 -9.69043e-05 1.93446)
(-9.69037e-05 -9.69064e-05 1.93446)
(-0.000269478 -8.95059e-05 1.87281)
(-0.000362492 -7.14787e-05 1.73289)
(-0.000344739 -4.94774e-05 1.5013)
(0.000310955 -0.000134379 1.44151)
(0.000324867 -0.000193425 1.66852)
(0.000243811 -0.000243581 1.80785)
(8.97354e-05 -0.000269475 1.87281)
(-8.95035e-05 -0.00026948 1.87281)
(-0.000243595 -0.000243597 1.80785)
(-0.000324684 -0.00019345 1.66852)
(-0.000310822 -0.000134409 1.44151)
(0.000253068 -0.000182523 1.32363)
(0.000259064 -0.000258844 1.5353)
(0.000193665 -0.00032466 1.66852)
(7.17104e-05 -0.000362485 1.73289)
(-7.1477e-05 -0.000362493 1.73289)
(-0.000193448 -0.000324685 1.66852)
(-0.00025888 -0.000258882 1.5353)
(-0.000252933 -0.000182568 1.32363)
(0.000183463 -0.000183287 1.15155)
(0.000182744 -0.000252888 1.32363)
(0.000134617 -0.000310791 1.44151)
(4.97031e-05 -0.000344726 1.5013)
(-4.94761e-05 -0.000344737 1.5013)
(-0.000134407 -0.000310821 1.44151)
(-0.000182565 -0.000252934 1.32363)
(-0.000183333 -0.000183336 1.15155)
(8.68502e-05 8.6846e-05 1.15132)
(8.7834e-05 0.000121405 1.32351)
(6.53798e-05 0.000150569 1.44152)
(2.43347e-05 0.000167717 1.50139)
(-2.39229e-05 0.000167735 1.50139)
(-6.49991e-05 0.000150619 1.44152)
(-8.75111e-05 0.00012148 1.32351)
(-8.66133e-05 8.69268e-05 1.15132)
(0.000121406 8.783e-05 1.32351)
(0.000126428 0.000126424 1.53541)
(9.52866e-05 0.000159715 1.66884)
(3.54742e-05 0.000178786 1.73335)
(-3.50474e-05 0.000178801 1.73335)
(-9.48906e-05 0.000159757 1.66884)
(-0.000126092 0.000126487 1.53541)
(-0.000121159 8.79042e-05 1.32351)
(0.000150569 6.53757e-05 1.44152)
(0.000159718 9.52821e-05 1.66884)
(0.000120537 0.000120532 1.80847)
(4.45212e-05 0.000133499 1.8736)
(-4.40963e-05 0.000133508 1.8736)
(-0.000120141 0.000120558 1.80847)
(-0.000159383 9.53225e-05 1.66884)
(-0.000150324 6.5425e-05 1.44152)
(0.000167716 2.43305e-05 1.50139)
(0.00017879 3.54694e-05 1.73335)
(0.000133504 4.45156e-05 1.8736)
(4.82105e-05 4.82045e-05 1.93544)
(-4.77918e-05 4.82075e-05 1.93544)
(-0.000133111 4.45237e-05 1.8736)
(-0.000178457 3.54822e-05 1.73335)
(-0.000167473 2.43467e-05 1.50139)
(0.000167734 -2.39269e-05 1.50139)
(0.000178804 -3.50522e-05 1.73335)
(0.000133513 -4.41019e-05 1.8736)
(4.82135e-05 -4.7798e-05 1.93544)
(-4.77953e-05 -4.78016e-05 1.93544)
(-0.00013312 -4.41119e-05 1.8736)
(-0.000178471 -3.5068e-05 1.73335)
(-0.000167491 -2.39463e-05 1.50139)
(0.000150618 -6.50024e-05 1.44152)
(0.000159759 -9.48946e-05 1.66884)
(0.000120562 -0.000120146 1.80847)
(4.45292e-05 -0.000133117 1.8736)
(-4.4106e-05 -0.000133126 1.8736)
(-0.000120168 -0.000120173 1.80847)
(-0.000159425 -9.49379e-05 1.66884)
(-0.000150373 -6.50546e-05 1.44152)
(0.000121479 -8.75128e-05 1.32351)
(0.000126489 -0.000126094 1.53541)
(9.5326e-05 -0.000159386 1.66884)
(3.54866e-05 -0.000178461 1.73335)
(-3.5063e-05 -0.000178476 1.73335)
(-9.49328e-05 -0.00015943 1.66884)
(-0.000126155 -0.00012616 1.53541)
(-0.000121231 -8.75897e-05 1.32351)
(8.69265e-05 -8.6613e-05 1.15132)
(8.79048e-05 -0.000121158 1.32351)
(6.5427e-05 -0.000150324 1.44152)
(2.43498e-05 -0.000167475 1.50139)
(-2.39424e-05 -0.000167494 1.50139)
(-6.50503e-05 -0.000150377 1.44152)
(-8.75851e-05 -0.000121236 1.32351)
(-8.66912e-05 -8.66961e-05 1.15132)
(4.53555e-05 4.53492e-05 1.15119)
(4.55783e-05 6.28932e-05 1.32344)
(3.38446e-05 7.75873e-05 1.44152)
(1.27351e-05 8.62196e-05 1.50143)
(-1.20266e-05 8.62488e-05 1.50143)
(-3.31904e-05 7.76688e-05 1.44152)
(-4.50242e-05 6.30126e-05 1.32345)
(-4.49489e-05 4.54771e-05 1.15119)
(6.28977e-05 4.55708e-05 1.32344)
(6.4995e-05 6.4987e-05 1.53546)
(4.88877e-05 8.17309e-05 1.669)
(1.83483e-05 9.13314e-05 1.73357)
(-1.76026e-05 9.13557e-05 1.73357)
(-4.81966e-05 8.18006e-05 1.669)
(-6.441e-05 6.50912e-05 1.53546)
(-6.24663e-05 4.56903e-05 1.32345)
(7.75913e-05 3.38362e-05 1.44152)
(8.17392e-05 4.88778e-05 1.669)
(6.15982e-05 6.15877e-05 1.80878)
(2.29014e-05 6.81077e-05 1.874)
(-2.21523e-05 6.81225e-05 1.874)
(-6.09011e-05 6.16315e-05 1.80878)
(-8.11496e-05 4.89452e-05 1.669)
(-7.71606e-05 3.39166e-05 1.44152)
(8.6223e-05 1.27263e-05 1.50143)
(9.13393e-05 1.83378e-05 1.73357)
(6.8118e-05 2.28901e-05 1.874)
(2.47457e-05 2.47341e-05 1.93593)
(-2.40046e-05 2.47393e-05 1.93593)
(-6.74237e-05 2.29038e-05 1.874)
(-9.07511e-05 1.83592e-05 1.73357)
(-8.57946e-05 1.27528e-05 1.50143)
(8.62517e-05 -1.20348e-05 1.50143)
(9.13629e-05 -1.76126e-05 1.73357)
(6.81324e-05 -2.21634e-05 1.874)
(2.47505e-05 -2.40161e-05 1.93593)
(-2.40108e-05 -2.40222e-05 1.93593)
(-6.74393e-05 -2.21803e-05 1.874)
(-9.0776e-05 -1.76391e-05 1.73357)
(-8.58243e-05 -1.2067e-05 1.50143)
(7.76714e-05 -3.31975e-05 1.44152)
(8.18071e-05 -4.82053e-05 1.669)
(6.16404e-05 -6.09109e-05 1.80878)
(2.29142e-05 -6.7434e-05 1.874)
(-2.21695e-05 -6.74498e-05 1.874)
(-6.09475e-05 -6.09576e-05 1.80878)
(-8.12212e-05 -4.82774e-05 1.669)
(-7.7244e-05 -3.32831e-05 1.44152)
(6.30144e-05 -4.50293e-05 1.32345)
(6.50962e-05 -6.44161e-05 1.53546)
(4.89524e-05 -8.11567e-05 1.669)
(1.83678e-05 -9.07589e-05 1.73357)
(-1.763e-05 -9.07842e-05 1.73357)
(-4.82687e-05 -8.12294e-05 1.669)
(-6.45178e-05 -6.45253e-05 1.53546)
(-6.25886e-05 -4.51543e-05 1.32345)
(4.54775e-05 -4.49514e-05 1.15119)
(4.56925e-05 -6.24674e-05 1.32345)
(3.39207e-05 -7.71627e-05 1.44152)
(1.27583e-05 -8.57974e-05 1.50143)
(-1.20606e-05 -8.58278e-05 1.50143)
(-3.32767e-05 -7.72481e-05 1.44152)
(-4.51481e-05 -6.25933e-05 1.32345)
(-4.50791e-05 -4.50849e-05 1.15119)
(2.25675e-05 2.25624e-05 1.15113)
(2.29107e-05 3.14164e-05 1.32341)
(1.72305e-05 3.88895e-05 1.44152)
(6.75244e-06 4.33063e-05 1.50145)
(-5.62103e-06 4.3352e-05 1.50145)
(-1.61882e-05 3.90168e-05 1.44152)
(-2.20323e-05 3.16013e-05 1.32341)
(-2.19254e-05 2.27537e-05 1.15113)
(3.14221e-05 2.29038e-05 1.32341)
(3.28153e-05 3.28051e-05 1.53548)
(2.49418e-05 4.137e-05 1.66908)
(9.65574e-06 4.62989e-05 1.73369)
(-8.43594e-06 4.63375e-05 1.73369)
(-2.38136e-05 4.14803e-05 1.66908)
(-3.18641e-05 3.29684e-05 1.53548)
(-3.07229e-05 2.30868e-05 1.32341)
(3.88958e-05 1.7222e-05 1.44152)
(4.13817e-05 2.49292e-05 1.66908)
(3.14619e-05 3.14474e-05 1.80893)
(1.20006e-05 3.48042e-05 1.8742)
(-1.07558e-05 3.48282e-05 1.8742)
(-3.03054e-05 3.15178e-05 1.80894)
(-4.04063e-05 2.50366e-05 1.66908)
(-3.81839e-05 1.73474e-05 1.44152)
(4.33122e-05 6.74301e-06 1.50145)
(4.63104e-05 9.64196e-06 1.73369)
(3.48186e-05 1.19849e-05 1.8742)
(1.2952e-05 1.29362e-05 1.93617)
(-1.17112e-05 1.29449e-05 1.93618)
(-3.36576e-05 1.20086e-05 1.8742)
(-4.5329e-05 9.67858e-06 1.73369)
(-4.25967e-05 6.78736e-06 1.50145)
(4.33572e-05 -5.63053e-06 1.50145)
(4.63479e-05 -8.44968e-06 1.73369)
(3.48415e-05 -1.07715e-05 1.8742)
(1.29598e-05 -1.1727e-05 1.93618)
(-1.17211e-05 -1.1736e-05 1.93618)
(-3.36825e-05 -1.07959e-05 1.8742)
(-4.53682e-05 -8.48737e-06 1.73369)
(-4.26427e-05 -5.67509e-06 1.50145)
(3.9021e-05 -1.61971e-05 1.44152)
(4.14888e-05 -2.38262e-05 1.66908)
(3.1529e-05 -3.03197e-05 1.80894)
(1.20212e-05 -3.36721e-05 1.8742)
(-1.07831e-05 -3.36962e-05 1.8742)
(-3.03788e-05 -3.03905e-05 1.80894)
(-4.05187e-05 -2.3934e-05 1.66909)
(-3.83122e-05 -1.63219e-05 1.44152)
(3.16038e-05 -2.20399e-05 1.32341)
(3.29739e-05 -3.18744e-05 1.53548)
(2.50438e-05 -4.04179e-05 1.66908)
(9.68701e-06 -4.53407e-05 1.73369)
(-8.47874e-06 -4.53793e-05 1.73369)
(-2.39264e-05 -4.0528e-05 1.66909)
(-3.20316e-05 -3.20372e-05 1.53549)
(-3.09098e-05 -2.22215e-05 1.32342)
(2.27539e-05 -2.19309e-05 1.15113)
(2.30873e-05 -3.0729e-05 1.32341)
(1.73486e-05 -3.81914e-05 1.44152)
(6.78913e-06 -4.26045e-05 1.50145)
(-5.67318e-06 -4.26499e-05 1.50145)
(-1.63207e-05 -3.83182e-05 1.44152)
(-2.22214e-05 -3.0913e-05 1.32342)
(-2.2121e-05 -2.21203e-05 1.15113)
(1.1831e-05 1.18444e-05 1.15109)
(1.20918e-05 1.63883e-05 1.32339)
(9.26863e-06 2.02159e-05 1.44151)
(3.98303e-06 2.24962e-05 1.50146)
(-2.30773e-06 2.25577e-05 1.50146)
(-7.72919e-06 2.03856e-05 1.44152)
(-1.08001e-05 1.66304e-05 1.3234)
(-1.08911e-05 1.20869e-05 1.1511)
(1.63813e-05 1.21042e-05 1.32339)
(1.71775e-05 1.71806e-05 1.53549)
(1.32544e-05 2.15708e-05 1.66912)
(5.53003e-06 2.41149e-05 1.73374)
(-3.66906e-06 2.41685e-05 1.73374)
(-1.15374e-05 2.17223e-05 1.66912)
(-1.57366e-05 1.74009e-05 1.5355)
(-1.53277e-05 1.23439e-05 1.3234)
(2.02149e-05 9.278e-06 1.44151)
(2.15739e-05 1.32536e-05 1.66912)
(1.66162e-05 1.66096e-05 1.80901)
(6.75958e-06 1.83491e-05 1.8743)
(-4.82433e-06 1.83831e-05 1.8743)
(-1.4822e-05 1.67086e-05 1.80902)
(-2.00665e-05 1.34019e-05 1.66913)
(-1.91197e-05 9.44614e-06 1.44152)
(2.24985e-05 3.98918e-06 1.50146)
(2.41206e-05 5.52629e-06 1.73374)
(1.83573e-05 6.75074e-06 1.8743)
(7.25782e-06 7.24804e-06 1.9363)
(-5.31169e-06 7.2609e-06 1.9363)
(-1.65396e-05 6.7852e-06 1.8743)
(-2.25893e-05 5.57872e-06 1.73375)
(-2.13869e-05 4.05091e-06 1.50146)
(2.25613e-05 -2.30449e-06 1.50146)
(2.41739e-05 -3.67466e-06 1.73374)
(1.839e-05 -4.83415e-06 1.8743)
(7.26849e-06 -5.32172e-06 1.9363)
(-5.3269e-06 -5.33398e-06 1.9363)
(-1.65766e-05 -4.867e-06 1.8743)
(-2.26466e-05 -3.72437e-06 1.73375)
(-2.14528e-05 -2.36137e-06 1.50146)
(2.03886e-05 -7.72892e-06 1.44152)
(2.17251e-05 -1.15443e-05 1.66912)
(1.67112e-05 -1.48317e-05 1.80902)
(6.7875e-06 -1.65486e-05 1.8743)
(-4.86605e-06 -1.65819e-05 1.8743)
(-1.49302e-05 -1.49286e-05 1.80902)
(-2.02294e-05 -1.16892e-05 1.66913)
(-1.93027e-05 -7.89172e-06 1.44152)
(1.66302e-05 -1.08034e-05 1.3234)
(1.73982e-05 -1.57442e-05 1.5355)
(1.33969e-05 -2.00753e-05 1.66913)
(5.5718e-06 -2.25961e-05 1.73375)
(-3.73361e-06 -2.26488e-05 1.73375)
(-1.17015e-05 -2.02243e-05 1.66913)
(-1.59763e-05 -1.59604e-05 1.5355)
(-1.55911e-05 -1.10376e-05 1.3234)
(1.20807e-05 -1.08971e-05 1.1511)
(1.23322e-05 -1.5334e-05 1.3234)
(9.42962e-06 -1.91257e-05 1.44152)
(4.03069e-06 -2.13897e-05 1.50146)
(-2.38478e-06 -2.14502e-05 1.50146)
(-7.91793e-06 -1.92928e-05 1.44152)
(-1.10655e-05 -1.55723e-05 1.3234)
(-1.11604e-05 -1.11349e-05 1.1511)
(6.26744e-06 6.33534e-06 1.15107)
(6.55717e-06 8.70627e-06 1.32338)
(5.26922e-06 1.07093e-05 1.44151)
(2.69355e-06 1.19233e-05 1.50146)
(-4.49285e-07 1.19959e-05 1.50146)
(-3.21345e-06 1.09075e-05 1.44151)
(-4.84253e-06 8.9819e-06 1.32339)
(-5.02606e-06 6.59668e-06 1.15108)
(8.6504e-06 6.6334e-06 1.32338)
(9.25283e-06 9.3112e-06 1.5355)
(7.42651e-06 1.16212e-05 1.66914)
(3.61084e-06 1.29759e-05 1.73377)
(-1.02223e-06 1.30415e-05 1.73377)
(-5.04551e-06 1.18047e-05 1.66914)
(-7.26602e-06 9.57196e-06 1.5355)
(-7.20563e-06 6.90524e-06 1.32339)
(1.06689e-05 5.34365e-06 1.44151)
(1.15786e-05 7.48189e-06 1.66914)
(9.22707e-06 9.26828e-06 1.80905)
(4.31113e-06 1.02041e-05 1.87435)
(-1.55413e-06 1.0247e-05 1.87435)
(-6.67749e-06 9.39171e-06 1.80906)
(-9.44638e-06 7.66298e-06 1.66915)
(-9.12584e-06 5.54099e-06 1.44152)
(1.18947e-05 2.76093e-06 1.50146)
(1.29431e-05 3.66026e-06 1.73377)
(1.01697e-05 4.34884e-06 1.87435)
(4.59562e-06 4.62945e-06 1.93637)
(-1.79153e-06 4.64658e-06 1.93637)
(-7.55613e-06 4.39432e-06 1.87436)
(-1.07499e-05 3.72831e-06 1.73378)
(-1.0307e-05 2.83837e-06 1.50147)
(1.19747e-05 -3.92967e-07 1.50146)
(1.30124e-05 -9.80911e-07 1.73377)
(1.02124e-05 -1.52122e-06 1.87435)
(4.60929e-06 -1.75934e-06 1.93637)
(-1.81261e-06 -1.77358e-06 1.93637)
(-7.60594e-06 -1.55831e-06 1.87436)
(-1.08255e-05 -1.03546e-06 1.73378)
(-1.03915e-05 -4.52073e-07 1.50147)
(1.08892e-05 -3.17159e-06 1.44151)
(1.17739e-05 -5.0146e-06 1.66914)
(9.35063e-06 -6.65091e-06 1.80906)
(4.34634e-06 -7.52641e-06 1.87436)
(-1.61129e-06 -7.56632e-06 1.87436)
(-6.82197e-06 -6.76559e-06 1.80906)