/*--------------------------------*- C++ -*----------------------------------*\
| =========                 |                                                 |
| \\      /  F ield         | OpenFOAM: The Open Source CFD Toolbox           |
|  \\    /   O peration     | Version:  2406                                  |
|   \\  /    A nd           | Website:  www.openfoam.com                      |
|    \\/     M anipulation  |                                                 |
\*---------------------------------------------------------------------------*/
FoamFile
{
    version     2.0;
    format      ascii;
    arch        "LSB;label=32;scalar=64";
    class       volScalarField;
    location    "450";
    object      div(phi);
}
// * * * * * * * * * * * * * * * * * * * * * * * * * * * * * * * * * * * * * //

dimensions      [0 0 -1 0 0 0 0];

internalField   nonuniform List<scalar> 
25000
(
-0.34789
0.0123622
0.00569611
0.00330335
0.00118713
0.000738134
0.000339078
0.000152566
0.000176668
6.64894e-05
0.00121877
-0.000118988
0.00184376
0.0014666
0.00127171
0.000552233
0.000342319
0.000283873
9.48472e-05
0.000145345
-0.00423208
-0.000501543
0.00143993
0.00136539
0.00106708
0.000764421
0.000472058
0.000250718
0.000213556
0.000226195
-0.00067001
-0.00049367
0.000217157
0.00109456
0.000998275
0.000712433
0.000461178
0.0003334
0.000188433
0.000206939
-0.0022114
-0.00101587
0.000534632
0.000638636
0.000769239
0.000616093
0.000469046
0.000311396
0.000209012
0.000208443
-0.000595374
-0.000383575
-0.000275117
0.00056034
0.000480074
0.000541477
0.000360677
0.000270683
0.000218753
0.00020824
-0.00102623
-0.000903955
7.91206e-05
-4.87291e-05
0.000365057
0.000184683
0.000206227
0.000189939
0.000134324
0.000185613
-0.000406708
-0.000554174
-0.000480524
-2.24728e-05
-2.80127e-05
5.15141e-05
8.6477e-05
2.8721e-05
9.5074e-05
0.000181459
-0.000961895
-0.000537211
-0.000472543
-5.32823e-05
-0.000129969
5.79936e-05
-9.83288e-05
3.33238e-05
-1.84846e-05
5.99693e-05
-0.00039277
-0.000122143
0.00022883
0.000147437
0.000252102
0.000128128
0.000149537
0.000123255
2.4815e-05
3.68922e-05
-0.00353114
-0.00102016
-2.84829e-05
0.000498668
0.000193561
0.000319425
0.000243656
0.000166479
0.00013188
0.000200454
-0.00208322
-0.00101985
8.5597e-05
1.34889e-05
0.000488908
0.000132834
0.000205919
0.00019412
0.000125365
0.000232233
-0.00262799
-0.000912746
6.17659e-05
0.000199254
0.000270591
0.000350199
0.000233249
0.000206306
0.000232014
0.000322147
-0.000838505
-0.000675987
-0.000532381
0.000182911
0.000337951
0.000276995
0.000295467
0.000269984
0.000204635
0.000308679
-0.00171344
-0.00105524
-5.95569e-05
-1.16958e-05
0.000220742
0.000308162
0.00026159
0.000241508
0.000286953
0.000260209
-0.000596153
-0.000526085
-0.000659585
5.76194e-05
7.43016e-05
0.00021105
0.000213727
0.00025111
0.000188877
0.000292665
-0.00106565
-0.00103936
-0.000253328
-0.000429648
8.56992e-06
-3.84622e-05
4.0946e-05
6.28546e-05
0.000203474
0.000181969
-0.000530231
-0.000723932
-0.000739703
-0.000310119
-0.000259111
-0.000177399
-5.79012e-05
-1.46515e-05
1.16085e-05
0.000223283
-0.00113083
-0.000707231
-0.000639431
-0.000204864
-0.000285212
-2.50971e-05
-0.00019384
-6.20707e-05
-2.37475e-05
-3.15135e-05
-0.000549358
-0.000260562
0.00013064
4.46485e-05
0.000203404
7.86968e-05
0.000138369
0.000141066
2.68261e-07
5.0116e-05
0.000454063
0.000146503
0.000295473
0.000361146
0.000346263
0.000301175
0.000329714
0.000231777
-5.53079e-05
0.000153007
0.000361218
0.000279948
0.000432107
0.000306206
0.00037848
0.000275948
0.000219459
0.00022008
0.000154617
0.000124899
0.000606898
0.000428284
0.00039668
0.000404325
0.000353258
0.000307141
0.000269642
0.000203887
0.000242453
0.000292697
0.000673038
0.000422291
0.000419803
0.000430068
0.000390536
0.000327484
0.000264872
0.000266477
0.000229226
0.000314926
0.000578935
0.000421837
0.000475776
0.000435359
0.000401105
0.000343903
0.000294701
0.000253712
0.000299157
0.000298104
0.000664922
0.000453245
0.000397716
0.000458832
0.00037099
0.000333443
0.000285283
0.000291788
0.000247359
0.000343661
0.000513547
0.000339113
0.000428015
0.000313289
0.000334712
0.000261117
0.000202216
0.00019684
0.000295596
0.000261841
0.000568755
0.000284742
0.000280586
0.000277013
0.000257962
0.00013337
0.000185643
0.000160447
0.000107035
0.000349898
9.07368e-05
0.000291619
0.000186227
0.000330325
0.000146737
0.000263505
5.56274e-05
7.8482e-05
0.000126359
-7.64578e-05
0.00040989
0.000174906
0.000455248
0.000315284
0.000364631
0.000236112
0.000240681
0.000201608
-8.58659e-05
0.000146177
0.000710019
0.000625774
0.000776625
0.00101079
0.00108323
0.00105134
0.0011556
0.000997383
0.00113671
0.00138649
0.000547081
0.000502697
0.000627301
0.000610533
0.000612388
0.000610224
0.000521081
0.000641845
0.000529231
0.000737058
0.000958348
0.000660917
0.000540553
0.00059065
0.000539514
0.000470114
0.00049055
0.000371986
0.000533658
0.00058643
0.000984209
0.000607886
0.000651932
0.000567002
0.000509434
0.000450203
0.000329271
0.000396323
0.000390351
0.000551293
0.00109856
0.000716386
0.000628117
0.000602001
0.000516348
0.000400852
0.000370823
0.000322894
0.000396921
0.000535056
0.00113612
0.000712947
0.000661156
0.000605397
0.000493924
0.000412339
0.000338666
0.000333305
0.000409953
0.000541062
0.00109282
0.000681086
0.000628562
0.000513353
0.000432082
0.000354514
0.000294706
0.000361344
0.000396899
0.000585801
0.00112341
0.000627048
0.000521796
0.00045325
0.000383117
0.000324559
0.000354381
0.000335894
0.000474782
0.000617545
0.000904767
0.000559912
0.000464001
0.000451514
0.000392667
0.00040469
0.000347089
0.000469607
0.000495145
0.000665629
0.00124296
0.000685208
0.000664176
0.000620024
0.00059717
0.000568306
0.000600482
0.00057894
0.000607104
0.000951539
0.00159178
0.00131644
0.0012323
0.00136439
0.00140773
0.00130542
0.001498
0.000973277
0.00153667
0.00143637
0.00112412
0.000748662
0.000888414
0.000760475
0.000815803
0.000715821
0.000542966
0.000745037
0.000443323
0.00102839
0.00113703
0.000806142
0.000674372
0.000726273
0.000633655
0.000538026
0.000524332
0.000304253
0.000545763
0.000758219
0.00115829
0.000690926
0.000728686
0.000653074
0.000590675
0.000490954
0.000289682
0.000381998
0.000365492
0.000694545
0.00120585
0.000766683
0.000709542
0.000685043
0.000590193
0.000427496
0.000355643
0.000303251
0.000372503
0.000707058
0.0012843
0.000799193
0.000724917
0.000715064
0.000550703
0.000461736
0.000331344
0.000276802
0.000467709
0.000690788
0.00125357
0.000751798
0.000749011
0.000559241
0.000518028
0.000369114
0.00023191
0.000416034
0.000329298
0.000805879
0.00135443
0.00073214
0.000606856
0.000543166
0.000436939
0.000309294
0.000415403
0.000216942
0.000624348
0.000734003
0.00128033
0.000722877
0.000506942
0.00056897
0.000404969
0.000512631
0.000251379
0.000623893
0.000386842
0.00113895
0.00152997
0.00103728
0.000849772
0.000760457
0.00077305
0.000654299
0.000722554
0.000623278
0.000815429
0.00110837
0.000318019
0.000456318
0.000579661
0.000799951
0.000912145
0.000834991
0.00104719
0.000574691
0.000945241
0.000906755
0.00027604
0.000214323
0.000475488
0.000389637
0.000510543
0.000470291
0.000315589
0.000490642
0.000273035
0.000736258
0.000586914
0.00041013
0.000305181
0.000434879
0.000412889
0.000338787
0.000366463
0.000203148
0.00037079
0.000605813
0.000646052
0.000366246
0.000476324
0.000432289
0.000409055
0.000379915
0.000200322
0.000273873
0.000308384
0.000569059
0.000878885
0.000549008
0.000482414
0.000515756
0.000474282
0.000328705
0.000295884
0.000277889
0.000293739
0.000619849
0.000928353
0.000588896
0.000587442
0.000592329
0.000454302
0.000424264
0.000296914
0.000236341
0.000435142
0.000609951
0.00101947
0.000648244
0.000647741
0.000500108
0.000501911
0.000344476
0.000220056
0.000406356
0.000285862
0.000708156
0.0011355
0.000644471
0.000591193
0.000529617
0.000441541
0.000289475
0.000412271
0.000173193
0.000538668
0.000653559
0.00110628
0.000731541
0.000489961
0.000590772
0.000357111
0.00051139
0.000173062
0.000538302
0.000288555
0.000880977
0.00137814
0.000859127
0.000778217
0.000644949
0.000690213
0.000527814
0.000599588
0.000483308
0.000570209
0.000872385
0.000736092
0.000703684
0.000714956
0.0008541
0.00089002
0.000826369
0.000881663
0.000857241
0.000975441
0.00109999
0.000639158
0.000396778
0.00050291
0.000446282
0.000382735
0.000461973
0.000351505
0.000406146
0.000521161
0.000597461
0.000860985
0.000576929
0.000368914
0.000444164
0.000419459
0.000297778
0.000388055
0.000382309
0.000370879
0.000509616
0.000809727
0.000433911
0.000558405
0.000437952
0.000376514
0.000406647
0.000290703
0.000313824
0.000427455
0.000443688
0.000924752
0.000606535
0.000463525
0.000493146
0.000448507
0.000320197
0.000359731
0.000372399
0.000341431
0.000473673
0.000892999
0.000536049
0.000574985
0.000503506
0.000421694
0.000408908
0.00034967
0.000329823
0.000445923
0.000465462
0.000965273
0.000593191
0.000527157
0.000479101
0.000419752
0.000354965
0.00035345
0.000414906
0.00039442
0.000522174
0.000944687
0.000561885
0.00049861
0.000447672
0.0003846
0.00038454
0.000378746
0.000389656
0.000515198
0.000535457
0.00100461
0.000508086
0.000463895
0.000410259
0.000402464
0.000364214
0.00040083
0.000482363
0.000482983
0.00070998
0.00108354
0.000656451
0.000545319
0.00051853
0.000482219
0.000496757
0.000524031
0.000555588
0.000709523
0.000792938
-0.00050757
-0.000320439
-0.000176708
-9.57913e-05
5.08801e-06
4.07633e-06
0.000127152
2.32925e-05
7.9719e-05
0.000104782
-0.000270976
-0.000248954
-0.000120829
-9.61489e-05
-5.28061e-05
4.06811e-05
-3.68939e-05
3.94682e-05
6.28045e-05
0.000141875
-7.36446e-05
-9.36641e-05
-0.000144947
-3.26835e-05
2.27948e-05
-1.49609e-05
7.33369e-05
5.50063e-05
6.19165e-05
0.000172479
2.0468e-05
-8.77577e-05
3.62456e-05
2.86491e-05
5.49888e-05
0.000123611
4.79961e-05
7.61526e-05
0.000151609
0.000179502
0.000199545
9.2232e-05
4.8659e-05
0.000134931
0.000160292
0.00010715
0.000141029
0.000159242
0.000132814
0.000241816
0.000207876
0.000122806
0.000190905
0.000191561
0.000183125
0.000200576
0.000170393
0.000145942
0.000232812
0.000261504
0.000368881
0.000194067
0.000208219
0.000216178
0.000211162
0.00018879
0.0001535
0.000224735
0.000191381
0.000295671
0.000332116
0.000235605
0.000223255
0.000221966
0.000218763
0.000172935
0.000213867
0.000156784
0.000252959
0.000300616
0.000456174
0.000212026
0.000237413
0.000250689
0.000204125
0.000235149
0.000145856
0.000233047
0.00018305
0.000326668
0.000470881
0.000297148
0.000308066
0.000299005
0.000305427
0.000264739
0.000267847
0.000239299
0.000247419
0.000345246
0.000862877
0.000633931
0.000522133
0.000507719
0.000396687
0.000289465
0.000318572
0.000263604
0.000302331
0.000450919
0.000470064
0.000301403
0.000387812
0.00022733
0.000173539
0.000181728
5.85588e-05
0.000110696
0.000191571
0.000257519
0.000524876
0.000416825
0.00025645
0.000277675
0.000218508
9.63013e-05
0.000153901
0.000130376
0.000125921
0.000243644
0.000423085
0.000301749
0.000378146
0.000274473
0.000210796
0.000213117
0.000102672
0.000116715
0.000186099
0.000220587
0.000465044
0.000409336
0.000314875
0.000313961
0.000266584
0.000159624
0.000167759
0.000161206
0.00015437
0.000239241
0.000491834
0.000358092
0.000374156
0.000328468
0.000234969
0.000216596
0.000157349
0.000143552
0.000199576
0.000248258
0.000468001
0.000413695
0.000350627
0.000263789
0.000230027
0.000153889
0.000120649
0.000154255
0.00017365
0.000243968
0.000604604
0.000332091
0.000315549
0.0002297
0.000174146
0.000105705
0.000120944
0.000107604
0.000174192
0.000254799
0.000422927
0.000383533
0.000183638
0.000219057
0.000102326
0.000132888
6.37411e-05
0.000131355
0.000149353
0.000248436
0.000672668
0.000391114
0.000317363
0.000221385
0.000215571
0.00016485
0.000179083
0.000186596
0.00021938
0.000312158
-0.000499825
-0.000318976
-0.00025404
-0.000226852
-0.000215903
-0.000234927
-0.000132188
-0.000293108
-0.000246664
-0.000246504
-0.000317178
-0.000209935
-9.55038e-05
-0.000161026
-9.70746e-05
-9.36581e-05
-0.000170691
-9.91281e-05
-0.00014616
-3.94505e-05
-0.000214408
-9.87933e-05
-0.00011365
-6.56937e-05
-5.80475e-05
-9.20371e-05
-5.63861e-05
-0.000106262
-7.85574e-05
4.35503e-06
-0.000126982
-7.18279e-05
-2.21898e-05
-2.00764e-05
-1.11833e-05
6.81533e-06
-6.49509e-05
-4.89662e-05
-2.80299e-05
3.06376e-05
-4.7673e-05
2.03526e-05
1.61569e-05
4.76925e-05
5.41994e-05
1.14228e-05
3.20245e-06
-7.06835e-07
-1.05568e-05
7.24515e-05
3.01393e-05
6.01142e-05
7.91994e-05
9.85381e-05
6.23879e-05
6.50554e-05
2.42373e-05
-4.06987e-06
4.2849e-05
9.23856e-05
7.00593e-05
0.000108587
0.000119788
7.24391e-05
9.02752e-05
4.0077e-05
-2.34143e-05
3.40631e-05
3.99967e-06
9.56686e-05
0.000178601
0.000103392
0.00011368
8.69877e-05
7.15911e-05
-2.17857e-05
3.58106e-05
-6.44491e-05
1.93862e-05
8.36428e-05
9.87795e-05
0.000169914
5.11315e-05
0.000130691
-1.55963e-06
8.54918e-05
-9.62605e-05
1.2585e-05
-6.36334e-05
3.97802e-05
0.000248688
0.000153908
0.000173518
0.000102613
0.000134513
3.81622e-05
4.47816e-05
-1.43536e-05
-6.85132e-05
2.57347e-05
0.000548263
0.00034394
0.000292099
0.000267561
0.00020694
0.000147597
0.000131911
0.000195925
0.000158042
0.000270043
0.000363928
0.000177858
0.00018567
0.000116143
6.02585e-05
8.51937e-05
3.54677e-05
3.12967e-05
0.000160432
0.000113985
0.000315315
0.000206363
0.000118939
0.000122469
9.77149e-05
3.21972e-05
7.6224e-05
0.000110554
6.56852e-05
0.000118886
0.000228884
0.000131063
0.000166427
0.00011271
8.47068e-05
0.000103665
7.22941e-05
6.74972e-05
0.000129951
0.000103925
0.000218138
0.000164731
0.000117872
0.00012578
0.000109948
7.3315e-05
9.28808e-05
0.000109382
9.90527e-05
0.000110619
0.000187542
0.000130474
0.000141849
0.000115163
9.44562e-05
9.38034e-05
8.98932e-05
9.81945e-05
0.000113253
0.000118082
0.0001985
0.000135178
0.00011407
9.7666e-05
7.88698e-05
6.84933e-05
8.22717e-05
8.19349e-05
0.000123239
0.000105261
0.000181693
0.000117753
9.5995e-05
7.81635e-05
5.94394e-05
6.39532e-05
5.05343e-05
0.000104136
9.21982e-05
0.000120187
0.000179414
9.58264e-05
7.97573e-05
6.02283e-05
6.08071e-05
3.75068e-05
8.01885e-05
6.4068e-05
0.000126606
0.00011399
0.000211157
0.000123418
0.000101306
9.07356e-05
7.31505e-05
8.36101e-05
8.49027e-05
0.000117978
0.000160468
0.000148796
-0.00065829
-0.000438021
-0.00035454
-0.000328936
-0.000279859
-0.000259594
-0.000212917
-0.000228542
-0.000252598
-0.000265707
-0.000410895
-0.000271485
-0.000219957
-0.000196428
-0.000155307
-0.000120967
-0.000124778
-0.000114232
-9.41793e-05
-0.000104377
-0.000334288
-0.000219335
-0.000199331
-0.000154196
-0.000116172
-0.000103838
-7.69075e-05
-6.37944e-05
-8.09405e-05
-5.44855e-05
-0.000258305
-0.000178589
-0.000138966
-0.000116087
-8.53543e-05
-4.99252e-05
-4.96073e-05
-4.99756e-05
-2.61379e-05
-3.17792e-05
-0.000175433
-0.000116881
-0.000111029
-7.18993e-05
-4.361e-05
-3.40149e-05
-2.21984e-05
-6.07294e-06
-2.00314e-05
-4.18007e-06
-0.000162764
-8.73602e-05
-5.78275e-05
-4.13648e-05
-2.45777e-05
-3.2751e-06
-2.13034e-06
-3.77423e-06
6.30349e-06
1.02383e-05
-8.05503e-05
-5.50985e-05
-3.19161e-05
-1.75082e-05
3.84069e-06
2.17616e-06
-4.06365e-06
1.07549e-05
2.98429e-06
9.14584e-06
-0.000102328
-1.89967e-05
-1.04334e-05
8.1157e-06
1.47419e-05
-3.48122e-06
1.24193e-05
-1.27439e-05
-5.91061e-06
2.65954e-06
-2.44767e-05
-1.25184e-05
1.53582e-05
2.91739e-05
6.61241e-06
2.90477e-05
-2.43924e-05
-3.37963e-06
-2.80529e-05
-2.61343e-05
-5.80634e-05
-1.92352e-05
1.4764e-05
1.71485e-05
2.88174e-05
1.27733e-06
-3.98942e-06
-2.71835e-05
-5.30719e-05
-5.95158e-05
0.000537877
0.000325537
0.00021315
0.000204823
0.000121545
8.35806e-05
4.45735e-05
8.61908e-05
6.60421e-05
0.000114106
0.000290614
0.000170384
0.00018361
9.40454e-05
6.27925e-05
4.38967e-05
3.03057e-05
1.78312e-05
7.79241e-05
4.38788e-05
0.000282705
0.000203566
0.0001265
0.000111185
6.96975e-05
3.38562e-05
3.79464e-05
5.13327e-05
3.40386e-05
4.03101e-05
0.000201691
0.000152343
0.000154985
0.000101283
6.52208e-05
5.20648e-05
3.7875e-05
3.67599e-05
4.67582e-05
3.63864e-05
0.000182934
0.000169615
0.000126847
9.51616e-05
6.79443e-05
4.01758e-05
4.37924e-05
3.63302e-05
4.9095e-05
2.54891e-05
0.000195069
0.00013594
0.000115269
9.45202e-05
4.72718e-05
4.3215e-05
2.77334e-05
4.96002e-05
2.07587e-05
3.61639e-05
0.000125387
0.000135579
0.000106881
4.86886e-05
4.43103e-05
1.06776e-05
2.67684e-05
-5.18349e-06
5.0063e-05
2.47261e-06
0.00018633
8.73278e-05
7.4701e-05
4.06697e-05
7.92321e-06
-2.98439e-06
-2.52024e-05
2.45584e-05
-2.09146e-05
1.02285e-05
5.97228e-05
0.000110296
9.15995e-06
2.12878e-05
-2.51548e-05
-2.81318e-05
-1.65355e-05
-4.46531e-05
1.41013e-05
-4.1247e-05
0.0001606
8.94983e-05
5.3707e-05
6.31579e-06
-3.06216e-06
-1.91568e-05
-2.53437e-05
-6.41849e-06
6.05268e-06
-4.08423e-05
-0.000671726
-0.000437362
-0.000393595
-0.000357228
-0.000325572
-0.000294209
-0.000261964
-0.000284563
-0.000290562
-0.000334704
-0.000444517
-0.000248213
-0.000193701
-0.000193084
-0.000145679
-0.000139175
-0.000127346
-0.000120667
-0.000139927
-0.00014497
-0.00032855
-0.00018615
-0.000173796
-0.000141747
-0.000120985
-0.000101143
-9.6955e-05
-0.00010128
-0.000101644
-0.000106679
-0.000235786
-0.000141216
-0.000115539
-0.000104003
-8.7969e-05
-7.3652e-05
-7.35649e-05
-7.1342e-05
-7.84478e-05
-7.99887e-05
-0.00016759
-7.97283e-05
-8.14055e-05
-7.18756e-05
-5.6286e-05
-5.33265e-05
-4.95952e-05
-5.35069e-05
-5.63744e-05
-6.36956e-05
-0.000116139
-6.08143e-05
-4.98593e-05
-3.5523e-05
-4.45319e-05
-2.73654e-05
-4.08474e-05
-3.77606e-05
-5.35407e-05
-4.87488e-05
-0.000110481
-3.27067e-05
-1.83913e-05
-3.56841e-05
-9.66479e-06
-3.10422e-05
-3.6717e-05
-4.45803e-05
-4.72158e-05
-6.15212e-05
-7.77518e-05
-2.85387e-05
-1.4695e-05
-8.1919e-06
-1.48297e-05
-4.01985e-05
-3.55258e-05
-6.14074e-05
-7.69688e-05
-6.9151e-05
-0.00011186
-5.38095e-06
-3.00022e-05
4.83155e-07
-4.68023e-05
-1.81922e-05
-8.19495e-05
-7.33012e-05
-9.52281e-05
-0.000121858
-0.000100023
-3.91774e-05
-1.74226e-05
-3.84329e-05
-2.49552e-05
-6.48056e-05
-7.47277e-05
-0.00010094
-0.000140937
-0.000162912
0.000433163
0.00028734
0.000158847
0.000155013
7.83716e-05
4.77872e-05
-7.0022e-06
9.07697e-05
3.05047e-05
8.75389e-05
0.000188109
0.000117383
0.000137653
5.77039e-05
1.4253e-05
1.91357e-05
1.77895e-05
-1.65786e-05
9.47588e-05
6.83112e-06
0.000208997
0.000177046
8.61167e-05
8.09945e-05
5.19203e-05
1.21675e-05
2.62634e-05
6.99342e-05
1.80844e-05
2.01478e-05
0.000148013
0.000116994
0.000144729
8.58027e-05
4.62835e-05
5.09492e-05
4.57895e-05
3.21916e-05
6.76197e-05
1.63211e-05
0.000142947
0.000160554
0.000106209
8.35079e-05
6.54362e-05
3.50788e-05
5.36741e-05
5.92409e-05
4.64037e-05
1.67913e-05
0.000150138
0.000107366
0.00011295
8.88385e-05
4.68571e-05
5.82717e-05
4.35259e-05
5.94256e-05
4.15796e-05
2.19687e-05
9.2929e-05
0.000130801
0.000103388
6.52341e-05
6.60106e-05
3.16947e-05
6.64663e-05
3.18478e-05
6.14281e-05
4.7045e-06
0.000139814
8.82615e-05
9.13099e-05
6.96832e-05
3.53315e-05
5.06415e-05
1.69626e-05
6.52678e-05
2.0827e-05
1.28701e-05
6.11587e-05
0.000112009
4.42941e-05
3.76934e-05
1.86705e-05
-1.1587e-06
4.14838e-05
5.52536e-06
5.67695e-05
-5.0195e-06
0.000127171
7.77106e-05
4.63346e-05
1.41104e-05
2.33814e-07
3.64178e-06
1.36897e-06
2.53929e-05
5.25064e-05
-4.03151e-06
-0.000704845
-0.000436407
-0.00038718
-0.000336591
-0.000297049
-0.000264625
-0.000246828
-0.000204846
-0.00025654
-0.000251272
-0.000446339
-0.000261008
-0.000205987
-0.000195178
-0.000167691
-0.000132159
-0.000120415
-0.00013481
-7.8088e-05
-0.000134826
-0.000313736
-0.00017731
-0.000179308
-0.000143806
-0.000113781
-0.000109435
-8.60255e-05
-5.27635e-05
-9.59174e-05
-8.32156e-05
-0.000230319
-0.000146423
-0.000105051
-0.000101726
-9.01247e-05
-5.39015e-05
-4.9158e-05
-6.00682e-05
-2.53476e-05
-6.52827e-05
-0.000166688
-7.28736e-05
-8.83777e-05
-6.84199e-05
-4.55293e-05
-4.68628e-05
-2.52853e-05
-8.11716e-06
-3.843e-05
-3.76117e-05
-0.00012801
-7.21051e-05
-4.05989e-05
-3.62148e-05
-3.46203e-05
-3.81588e-06
-1.0938e-05
-1.30542e-05
-6.4249e-06
-3.02897e-05
-0.000104578
-2.34032e-05
-1.91715e-05
-1.2317e-05
1.133e-05
-3.13569e-06
1.1522e-05
8.01896e-06
-1.16214e-05
-2.67331e-05
-8.4474e-05
-1.35096e-05
5.25884e-06
1.88262e-05
1.32313e-05
1.84482e-05
1.29778e-05
-1.51991e-06
-1.05265e-05
-3.01996e-05
-6.4194e-05
2.72307e-06
1.21657e-05
1.51439e-05
5.99775e-06
1.16236e-05
-6.32466e-06
-6.68002e-06
-2.2337e-05
-4.72537e-05
-8.34115e-05
-3.15385e-05
-1.59636e-05
-1.75157e-05
-1.11143e-05
-2.2649e-05
-2.6691e-05
-3.77128e-05
-5.18653e-05
-7.18878e-05
0.000250156
0.000151182
0.000100202
9.09597e-05
3.87255e-05
9.30772e-06
-2.60653e-05
3.82931e-05
-5.10313e-06
4.58024e-05
0.00012256
5.7835e-05
6.36392e-05
1.60594e-05
-1.1516e-05
-3.63229e-06
-1.75144e-05
-3.49827e-05
5.33528e-05
-1.07727e-05
0.000134807
7.83932e-05
2.38684e-05
2.73494e-05
9.51194e-06
-2.40134e-05
1.22121e-07
2.98587e-05
-1.04486e-05
4.18039e-06
6.26642e-05
4.01821e-05
6.12982e-05
1.9198e-05
7.57088e-07
1.74681e-05
5.2994e-06
1.27939e-06
3.95123e-05
7.57449e-07
7.18432e-05
7.22199e-05
2.78262e-05
2.5379e-05
1.82024e-05
-3.35257e-06
2.17099e-05
2.96365e-05
1.70523e-05
6.79644e-06
6.27101e-05
3.91743e-05
4.98228e-05
2.50539e-05
8.14925e-06
2.39247e-05
1.45562e-05
2.75194e-05
2.41841e-05
1.12369e-05
4.74012e-05
7.0241e-05
3.83736e-05
2.59549e-05
2.36176e-05
7.50009e-06
3.45339e-05
1.31603e-05
3.64699e-05
-2.07749e-06
7.19511e-05
4.52555e-05
4.62606e-05
2.67255e-05
1.07412e-05
2.35333e-05
6.88439e-08
3.89907e-05
6.78518e-06
8.35613e-06
4.05719e-05
6.03885e-05
2.0754e-05
9.17247e-06
1.69825e-06
-1.46922e-05
1.94502e-05
-1.07274e-05
3.30197e-05
-1.76922e-05
6.35527e-05
3.13508e-05
6.73734e-06
-1.00656e-05
-1.88083e-05
-1.19517e-05
-1.39046e-05
8.4621e-06
2.73796e-05
-9.08293e-06
-0.000445674
-0.000309052
-0.000256547
-0.000267715
-0.00025577
-0.000239378
-0.000219857
-0.000209565
-0.000229805
-0.000227718
-0.000306544
-0.000179744
-0.000162988
-0.000158695
-0.000135221
-0.000117194
-0.000126367
-0.00012194
-9.6072e-05
-0.000130267
-0.000269885
-0.000172665
-0.000158246
-0.000130725
-0.000112271
-0.000114822
-8.60915e-05
-7.8247e-05
-0.000106758
-8.9594e-05
-0.000237773
-0.000153361
-0.000123924
-0.000118892
-9.90228e-05
-6.2564e-05
-7.70143e-05
-7.81011e-05
-4.62255e-05
-7.9173e-05
-0.000192682
-0.000107676
-0.000118617
-8.68247e-05
-6.47814e-05
-6.9886e-05
-4.25805e-05
-3.17304e-05
-6.52109e-05
-4.89892e-05
-0.000169338
-0.000101711
-6.70308e-05
-6.87628e-05
-5.30386e-05
-2.23431e-05
-3.23808e-05
-4.0657e-05
-1.87614e-05
-4.53187e-05
-0.000127824
-4.75015e-05
-5.72424e-05
-3.24927e-05
-1.71732e-05
-2.09589e-05
-1.21384e-05
-5.07093e-06
-3.4011e-05
-3.38247e-05
-0.000105077
-3.97029e-05
-1.97029e-05
-1.46978e-05
-6.81311e-06
-1.16389e-06
-1.25873e-06
-2.00184e-05
-1.55722e-05
-3.11178e-05
-7.17808e-05
-1.86917e-05
-1.06036e-05
-8.39044e-06
-8.46878e-06
-3.91652e-06
-1.83337e-05
-1.57559e-05
-3.21931e-05
-4.67555e-05
-9.08406e-05
-4.942e-05
-3.9413e-05
-3.3723e-05
-2.54623e-05
-2.97383e-05
-3.20161e-05
-3.9384e-05
-5.11927e-05
-5.27471e-05
0.000499916
0.000293624
0.000257003
0.000186987
0.000115125
6.96354e-05
2.45025e-05
6.79546e-05
3.46166e-05
7.54912e-05
0.000303808
0.00014096
0.000103388
6.25019e-05
2.80428e-05
1.88122e-05
-5.64347e-06
-1.81125e-05
5.22535e-05
1.0173e-06
0.000186693
7.65796e-05
4.74032e-05
4.05808e-05
1.65672e-05
-1.66636e-05
5.20115e-06
2.5149e-05
-1.17802e-05
1.00743e-05
7.98955e-05
2.55396e-05
3.0281e-05
2.88206e-06
-3.34729e-06
1.16468e-05
-4.532e-06
-8.64357e-06
3.49277e-05
-3.9552e-06
4.81885e-05
1.09398e-05
-1.04178e-05
1.18543e-06
-1.95997e-06
-1.66263e-05
8.47773e-06
2.3107e-05
-1.16164e-06
7.61981e-06
9.3131e-06
-9.42332e-06
7.24262e-07
-1.81328e-05
-9.29321e-06
5.29409e-06
5.8087e-06
7.15105e-06
2.91252e-05
4.09444e-06
2.41265e-05
-1.52783e-06
-2.12845e-05
-4.33e-06
-9.43693e-06
-3.68643e-06
2.1502e-05
2.28782e-05
2.51858e-05
1.02117e-05
-1.40179e-06
-4.20504e-06
-1.17712e-05
-1.25497e-05
-1.03373e-05
2.09974e-05
9.00858e-06
4.10781e-05
3.53337e-05
2.43359e-05
3.26321e-05
-1.79612e-05
9.38818e-07
-2.32167e-05
1.111e-05
-1.15677e-05
4.19289e-05
2.33071e-05
5.67229e-05
3.17983e-05
1.05067e-05
-1.3416e-05
-2.38832e-05
-1.02298e-05
-1.60099e-05
1.13446e-05
1.85623e-05
4.41014e-05
7.55451e-05
5.27512e-05
-0.00035197
-0.000301841
-0.000209508
-0.000262207
-0.000242827
-0.000215448
-0.000202739
-0.000188972
-0.000176949
-0.000188218
-0.000208582
-0.000147931
-0.000178121
-0.000132669
-0.000116869
-0.000108541
-0.000109499
-0.000100485
-0.000104336
-0.000126375
-0.00028133
-0.000221737
-0.000162381
-0.000143236
-0.000122871
-0.000108534
-9.14917e-05
-9.50737e-05
-0.000106665
-0.000104994
-0.00024835
-0.000193902
-0.000180417
-0.000152005
-0.000115148
-8.77284e-05
-9.43217e-05
-9.50589e-05
-7.40002e-05
-0.000105885
-0.000232371
-0.000190799
-0.000169223
-0.000126827
-0.000101894
-9.11049e-05
-7.21437e-05
-6.2431e-05
-9.48502e-05
-7.96279e-05
-0.000235322
-0.000160242
-0.000132176
-0.000126507
-8.17255e-05
-6.25637e-05
-5.79873e-05
-7.55381e-05
-4.44691e-05
-8.24126e-05
-0.000158571
-0.000146261
-0.000133913
-7.72731e-05
-7.34515e-05
-4.65338e-05
-4.2902e-05
-2.59506e-05
-6.29865e-05
-5.62741e-05
-0.000216492
-0.00010622
-0.000105572
-7.59285e-05
-4.79073e-05
-2.21014e-05
-2.05917e-05
-3.3132e-05
-2.00634e-05
-4.97292e-05
-0.000106652
-0.000150325
-4.83081e-05
-7.31134e-05
-1.29413e-05
-3.16961e-05
-7.17858e-06
-1.554e-05
-2.7515e-05
-3.24868e-05
-0.00018829
-0.000116594
-9.98478e-05
-4.99716e-05
-5.08898e-05
-2.57424e-05
-3.05981e-05
-3.17057e-05
-3.24708e-05
-3.23649e-05
0.000649314
0.000356584
0.000313986
0.000242795
0.000104831
6.59969e-05
1.25977e-05
-1.51616e-05
2.49267e-05
2.69839e-05
0.000376436
0.000222008
0.00022158
0.000108249
9.20402e-05
1.16695e-05
-1.293e-05
-2.71759e-06
-3.30755e-05
-4.09613e-06
0.000223988
0.00016453
0.000143367
0.000112056
4.39723e-05
1.21243e-05
-1.4525e-05
-4.8847e-05
-2.71097e-05
-2.23045e-05
7.85265e-05
0.000123418
0.000107946
6.9765e-05
3.76787e-05
-6.66232e-06
-4.50333e-05
-4.5566e-05
-5.15413e-05
-4.12544e-05
3.3373e-05
9.54665e-05
8.64251e-05
5.294e-05
1.63822e-05
-2.31994e-05
-4.02975e-05
-5.92638e-05
-6.41941e-05
-4.40815e-05
5.47698e-05
7.90162e-05
5.88199e-05
4.71034e-05
-5.2383e-06
-2.04278e-05
-5.44738e-05
-7.06266e-05
-5.10653e-05
-5.41645e-05
-4.90088e-05
8.50378e-05
5.13604e-05
-4.12736e-06
-9.44055e-06
-5.3725e-05
-6.65615e-05
-5.94105e-05
-7.15521e-05
-4.61673e-05
8.31105e-05
9.20994e-06
2.54286e-05
-2.30193e-05
-4.86762e-05
-6.87654e-05
-6.42495e-05
-8.24825e-05
-4.83813e-05
-4.16378e-05
-0.000132151
7.90626e-05
-7.50866e-05
-3.10599e-05
-8.60755e-05
-6.18996e-05
-8.57146e-05
-5.67547e-05
-5.65935e-05
-3.31318e-05
4.04153e-05
5.01669e-05
3.40422e-06
-4.60934e-05
-3.9913e-05
-5.57207e-05
-4.29059e-05
-3.97215e-05
-3.09552e-05
-1.18893e-06
-0.000761666
-0.000625782
-0.000439304
-0.00042358
-0.000387499
-0.000309643
-0.000267293
-0.000318908
-0.000187716
-0.000217222
-0.000407548
-0.000247884
-0.000226445
-0.000187926
-0.00011426
-0.000166211
-0.0001245
-7.94214e-05
-0.000208693
-9.71696e-05
-0.000397362
-0.00027854
-0.000149717
-0.000152714
-0.000149818
-8.91532e-05
-0.000132784
-0.000179181
-8.63711e-05
-0.000116424
-0.000364628
-0.000152795
-0.000191534
-0.000133936
-0.000104939
-0.000146043
-0.000132127
-0.00010726
-0.00017512
-0.000102555
-0.000310875
-0.00018248
-0.000101267
-0.000121627
-0.000126388
-9.93748e-05
-0.000138836
-0.000161465
-0.000119986
-0.000115068
-0.000252335
-9.14842e-05
-0.000133698
-0.000104255
-0.000105043
-0.000136599
-0.000132071
-0.000138979
-0.000152406
-0.0001104
-0.000317476
-0.000125408
-0.000110996
-0.000139393
-0.000137076
-0.000125598
-0.000166453
-0.000151444
-0.000150563
-0.000112985
-0.000224993
-0.000152447
-0.000148079
-0.000151763
-0.000140345
-0.00016341
-0.000136753
-0.000168922
-0.000151983
-0.000108902
-0.000449587
-0.000152837
-0.000204518
-0.000154988
-0.000151552
-0.00011972
-0.000166639
-0.000143031
-0.00017062
-0.000123878
-0.000359868
-5.25142e-06
-7.07363e-05
-9.51442e-05
-8.10005e-05
-0.000106669
-0.00011376
-0.0001314
-0.000183389
-8.01282e-05
-3.91405e-05
0.000114429
3.49816e-05
-2.41198e-05
-9.98458e-05
-2.71109e-05
-0.000134267
-6.22851e-06
0.000135693
-9.52734e-05
0.000163261
7.54161e-05
-2.2576e-06
1.39091e-05
-3.86112e-05
-5.75306e-05
2.45919e-05
-7.31853e-06
-2.05924e-05
-3.69983e-05
6.12148e-05
2.4099e-05
5.50546e-05
-1.08272e-05
-3.53458e-05
1.18836e-05
-4.66954e-05
-2.17277e-05
-5.50896e-06
-0.000110855
6.36644e-06
4.27801e-05
-1.25601e-05
-1.08788e-05
-2.593e-05
-7.99107e-05
-8.30786e-06
-1.87698e-05
-9.26556e-05
-0.00012567
-7.50595e-05
-3.82106e-05
6.54519e-07
-5.68437e-05
-8.34703e-05
-3.76444e-05
-6.99059e-05
-9.41327e-05
-5.41374e-05
-0.000182903
-0.000103723
-4.68962e-05
-8.43512e-05
-8.66273e-05
-7.94e-05
-0.000122103
-8.11202e-05
-7.18586e-05
-0.000144673
-0.000199127
-0.000223947
-0.000115333
-0.000121387
-0.000120366
-0.000145909
-0.000101784
-8.29392e-05
-0.000140455
-0.000129032
-0.000213791
-0.000260572
-0.00018256
-0.000160845
-0.000159046
-0.000152411
-9.38775e-05
-0.000145385
-8.33357e-05
-0.000127724
-0.000243891
-0.000338324
-0.000217347
-0.000212428
-0.000222581
-0.000114968
-0.000190785
-4.51633e-05
-0.000125608
-0.000172385
-4.12697e-05
-0.000581507
-3.14237e-05
-0.000153275
-0.000139786
-0.00017042
-0.000111177
-0.000131707
-0.000108483
-1.5316e-05
-0.000370999
-0.000982016
-0.000415816
-0.000478498
-0.00051
-0.000505077
-0.000402024
-0.000455642
-0.000366787
-0.000139214
-0.000634536
-0.00041473
-0.000277098
-0.000304129
-0.000247112
-0.000236579
-0.000235708
-0.00012854
-0.00016755
-0.000214005
-0.000203344
-0.000435992
-0.000257223
-0.000187636
-0.00022538
-0.000196677
-0.000109098
-0.000161055
-0.000126274
-0.000127629
-0.00018949
-0.000306773
-0.000184391
-0.000228638
-0.000178829
-0.000157326
-0.000179114
-7.41827e-05
-8.89211e-05
-0.000182591
-0.000178474
-0.000376248
-0.000238109
-0.000179778
-0.000209246
-0.000190009
-0.000104779
-0.000133323
-0.000144839
-0.000115918
-0.000223314
-0.000356353
-0.000240304
-0.000246779
-0.000206812
-0.000170469
-0.000175465
-0.000127996
-0.000120812
-0.000200782
-0.000241672
-0.000418352
-0.000284521
-0.000238654
-0.000209087
-0.000180142
-0.000140351
-0.000130526
-0.000177351
-0.000213461
-0.000260363
-0.000480751