/*--------------------------------*- C++ -*----------------------------------*\
| =========                 |                                                 |
| \\      /  F ield         | OpenFOAM: The Open Source CFD Toolbox           |
|  \\    /   O peration     | Version:  2406                                  |
|   \\  /    A nd           | Website:  www.openfoam.com                      |
|    \\/     M anipulation  |                                                 |
\*---------------------------------------------------------------------------*/
FoamFile
{
    version     2.0;
    format      ascii;
    arch        "LSB;label=32;scalar=64";
    class       volScalarField;
    location    "450";
    object      magR;
}
// * * * * * * * * * * * * * * * * * * * * * * * * * * * * * * * * * * * * * //

dimensions      [0 2 -2 0 0 0 0];

internalField   nonuniform List<scalar> 
25000
(
4.68784e-05
4.31195e-05
3.75225e-05
3.72613e-05
3.70298e-05
3.70534e-05
3.7411e-05
3.80873e-05
4.15998e-05
4.35873e-05
4.31875e-05
4.00694e-05
3.67372e-05
3.50014e-05
3.41797e-05
3.42173e-05
3.51188e-05
3.6962e-05
4.03969e-05
4.16214e-05
3.75973e-05
3.67984e-05
3.4201e-05
3.2602e-05
3.18462e-05
3.1871e-05
3.26742e-05
3.4294e-05
3.69521e-05
3.81163e-05
3.72996e-05
3.50304e-05
3.26167e-05
3.10424e-05
3.0274e-05
3.02931e-05
3.10911e-05
3.26842e-05
3.51389e-05
3.74501e-05
3.70494e-05
3.42009e-05
3.18556e-05
3.02778e-05
2.95022e-05
2.95135e-05
3.03085e-05
3.19015e-05
3.42595e-05
3.71059e-05
3.70631e-05
3.42276e-05
3.18784e-05
3.02945e-05
2.95141e-05
2.95211e-05
3.03129e-05
3.19039e-05
3.42607e-05
3.71064e-05
3.7416e-05
3.51276e-05
3.26774e-05
3.10941e-05
3.0311e-05
3.0315e-05
3.1104e-05
3.26914e-05
3.51426e-05
3.74513e-05
3.80865e-05
3.69528e-05
3.42992e-05
3.26893e-05
3.19037e-05
3.19057e-05
3.26942e-05
3.43052e-05
3.69585e-05
3.81181e-05
4.15896e-05
4.04019e-05
3.69713e-05
3.51405e-05
3.42606e-05
3.42619e-05
3.51441e-05
3.69758e-05
4.04052e-05
4.1622e-05
4.35901e-05
4.16376e-05
3.81193e-05
3.7451e-05
3.71054e-05
3.71051e-05
3.74488e-05
3.81145e-05
4.16234e-05
4.35969e-05
6.07535e-05
5.76553e-05
5.41139e-05
5.36602e-05
5.30815e-05
5.30464e-05
5.34886e-05
5.43421e-05
5.81938e-05
5.99634e-05
5.76239e-05
5.46402e-05
5.2918e-05
5.20222e-05
5.1389e-05
5.13726e-05
5.19825e-05
5.29977e-05
5.52027e-05
5.82027e-05
5.40143e-05
5.29294e-05
5.09513e-05
5.02274e-05
4.98378e-05
4.9837e-05
5.02694e-05
5.10616e-05
5.29359e-05
5.43634e-05
5.35959e-05
5.19692e-05
5.02126e-05
4.93157e-05
4.88662e-05
4.88767e-05
4.93451e-05
5.0261e-05
5.19823e-05
5.35123e-05
5.30692e-05
5.13664e-05
4.98189e-05
4.88652e-05
4.84205e-05
4.84228e-05
4.8872e-05
4.98339e-05
5.13713e-05
5.30671e-05
5.30525e-05
5.13637e-05
4.98287e-05
4.88684e-05
4.84229e-05
4.84245e-05
4.88727e-05
4.98345e-05
5.13723e-05
5.30672e-05
5.35022e-05
5.1979e-05
5.02582e-05
4.93455e-05
4.88788e-05
4.88793e-05
4.93478e-05
5.02634e-05
5.19841e-05
5.35129e-05
5.4353e-05
5.29361e-05
5.10617e-05
5.02714e-05
4.98374e-05
4.98377e-05
5.02726e-05
5.10649e-05
5.29397e-05
5.43647e-05
5.81801e-05
5.52028e-05
5.29994e-05
5.19883e-05
5.13747e-05
5.13748e-05
5.19895e-05
5.30038e-05
5.52069e-05
5.81991e-05
5.9969e-05
5.8235e-05
5.43717e-05
5.35184e-05
5.30716e-05
5.30694e-05
5.35124e-05
5.4365e-05
5.82189e-05
5.99766e-05
5.51623e-05
5.13998e-05
4.95701e-05
4.81494e-05
4.73862e-05
4.74047e-05
4.7998e-05
4.93114e-05
5.16019e-05
5.51821e-05
5.13278e-05
4.82445e-05
4.73991e-05
4.66034e-05
4.60854e-05
4.60899e-05
4.65944e-05
4.73791e-05
4.82386e-05
5.15751e-05
4.94335e-05
4.74139e-05
4.59227e-05
4.52821e-05
4.48435e-05
4.48433e-05
4.53075e-05
4.60195e-05
4.7299e-05
4.93145e-05
4.80937e-05
4.65561e-05
4.5272e-05
4.45445e-05
4.40828e-05
4.4086e-05
4.45447e-05
4.52978e-05
4.65928e-05
4.80097e-05
4.73747e-05
4.60672e-05
4.48313e-05
4.40878e-05
4.36992e-05
4.36957e-05
4.408e-05
4.48474e-05
4.60974e-05
4.74216e-05
4.74e-05
4.6081e-05
4.48382e-05
4.40798e-05
4.36971e-05
4.36956e-05
4.40799e-05
4.48473e-05
4.60974e-05
4.74217e-05
4.7999e-05
4.65834e-05
4.52942e-05
4.4547e-05
4.40891e-05
4.40878e-05
4.45459e-05
4.52979e-05
4.6592e-05
4.80096e-05
4.93071e-05
4.72916e-05
4.60199e-05
4.53128e-05
4.48511e-05
4.48495e-05
4.53094e-05
4.60192e-05
4.72979e-05
4.93148e-05
5.15703e-05
4.82372e-05
4.73884e-05
4.66067e-05
4.61026e-05
4.60995e-05
4.65991e-05
4.73823e-05
4.82386e-05
5.15755e-05
5.518e-05
5.16112e-05
4.93328e-05
4.80207e-05
4.7429e-05
4.7425e-05
4.80097e-05
4.93203e-05
5.16074e-05
5.51857e-05
4.21628e-05
3.76893e-05
3.67882e-05
3.50093e-05
3.43977e-05
3.44466e-05
3.49388e-05
3.63356e-05
3.731e-05
4.18541e-05
3.7574e-05
3.47604e-05
3.42149e-05
3.33487e-05
3.29813e-05
3.30057e-05
3.34047e-05
3.42266e-05
3.45449e-05
3.72866e-05
3.66889e-05
3.42398e-05
3.30053e-05
3.22513e-05
3.17617e-05
3.17725e-05
3.2278e-05
3.31178e-05
3.41606e-05
3.63505e-05
3.50047e-05
3.33401e-05
3.2258e-05
3.15177e-05
3.10256e-05
3.10303e-05
3.15103e-05
3.22735e-05
3.34111e-05
3.49643e-05
3.441e-05
3.29882e-05
3.17697e-05
3.10391e-05
3.06255e-05
3.06225e-05
3.10295e-05
3.17877e-05
3.30261e-05
3.44705e-05
3.44486e-05
3.30107e-05
3.17817e-05
3.10342e-05
3.06273e-05
3.06246e-05
3.10304e-05
3.17879e-05
3.30254e-05
3.447e-05
3.49377e-05
3.34e-05
3.22759e-05
3.15201e-05
3.10415e-05
3.10385e-05
3.15138e-05
3.22739e-05
3.34083e-05
3.49621e-05
3.63224e-05
3.41491e-05
3.31243e-05
3.22921e-05
3.17932e-05
3.179e-05
3.2284e-05
3.31178e-05
3.41555e-05
3.63466e-05
3.72699e-05
3.45444e-05
3.42462e-05
3.34272e-05
3.30307e-05
3.30265e-05
3.34155e-05
3.42332e-05
3.45445e-05
3.72881e-05
4.18533e-05
3.73292e-05
3.6377e-05
3.49766e-05
3.44767e-05
3.44712e-05
3.49606e-05
3.63541e-05
3.73193e-05
4.18622e-05
3.26076e-05
2.83163e-05
2.74929e-05
2.58111e-05
2.5361e-05
2.54243e-05
2.58395e-05
2.71528e-05
2.78087e-05
3.19199e-05
2.82094e-05
2.56695e-05
2.49493e-05
2.39674e-05
2.36717e-05
2.37077e-05
2.4075e-05
2.50583e-05
2.55315e-05
2.77964e-05
2.74631e-05
2.49915e-05
2.37921e-05
2.28228e-05
2.22839e-05
2.23064e-05
2.28557e-05
2.39161e-05
2.5004e-05
2.71732e-05
2.58424e-05
2.39866e-05
2.28408e-05
2.19318e-05
2.13891e-05
2.13981e-05
2.19275e-05
2.28524e-05
2.40795e-05
2.58643e-05
2.53833e-05
2.36898e-05
2.2301e-05
2.14051e-05
2.09017e-05
2.09021e-05
2.13997e-05
2.23231e-05
2.37248e-05
2.54364e-05
2.54274e-05
2.3716e-05
2.23191e-05
2.14048e-05
2.09071e-05
2.09056e-05
2.1401e-05
2.2323e-05
2.37229e-05
2.54338e-05
2.58378e-05
2.40724e-05
2.28567e-05
2.19376e-05
2.14104e-05
2.14082e-05
2.1931e-05
2.28516e-05
2.40738e-05
2.58564e-05
2.71364e-05
2.49927e-05
2.39224e-05
2.28679e-05
2.23279e-05
2.23255e-05
2.28607e-05
2.39136e-05
2.49935e-05
2.71598e-05
2.7769e-05
2.55309e-05
2.50755e-05
2.40915e-05
2.37276e-05
2.37252e-05
2.40829e-05
2.50617e-05
2.55274e-05
2.77881e-05
3.1914e-05
2.78347e-05
2.71931e-05
2.58707e-05
2.54402e-05
2.54379e-05
2.58601e-05
2.71737e-05
2.78212e-05
3.19296e-05
2.70345e-05
2.34598e-05
2.25723e-05
2.12302e-05
2.09228e-05
2.09911e-05
2.13325e-05
2.24147e-05
2.30353e-05
2.61989e-05
2.3398e-05
2.13768e-05
2.05163e-05
1.9607e-05
1.9363e-05
1.94011e-05
1.97424e-05
2.07302e-05
2.13943e-05
2.30401e-05
2.25885e-05
2.05717e-05
1.95207e-05
1.85332e-05
1.80298e-05
1.80576e-05
1.85675e-05
1.96492e-05
2.06787e-05
2.24421e-05
2.1266e-05
1.96295e-05
1.8552e-05
1.76028e-05
1.70904e-05
1.71023e-05
1.76035e-05
1.85622e-05
1.97392e-05
2.13525e-05
2.09341e-05
1.93721e-05
1.80414e-05
1.71023e-05
1.65934e-05
1.6598e-05
1.71026e-05
1.80685e-05
1.94065e-05
2.09866e-05
2.09862e-05
1.94009e-05
1.80619e-05
1.71033e-05
1.66002e-05
1.66012e-05
1.71037e-05
1.80682e-05
1.94045e-05
2.09824e-05
2.13305e-05
1.97368e-05
1.85633e-05
1.76079e-05
1.71094e-05
1.71095e-05
1.7605e-05
1.85603e-05
1.97333e-05
2.13402e-05
2.24034e-05
2.06715e-05
1.96522e-05
1.85724e-05
1.80706e-05
1.80701e-05
1.85688e-05
1.96452e-05
2.06668e-05
2.24204e-05
2.30062e-05
2.13966e-05
2.07416e-05
1.97473e-05
1.94074e-05
1.94072e-05
1.97436e-05
2.07302e-05
2.13882e-05
2.30217e-05
2.61901e-05
2.30711e-05
2.24521e-05
2.13519e-05
2.0988e-05
2.0989e-05
2.13481e-05
2.24366e-05
2.30529e-05
2.62031e-05
2.42161e-05
2.15961e-05
2.07179e-05
1.96683e-05
1.94641e-05
1.9535e-05
1.98327e-05
2.07523e-05
2.13578e-05
2.34878e-05
2.15942e-05
2.00861e-05
1.9205e-05
1.8443e-05
1.82347e-05
1.82708e-05
1.85919e-05
1.95083e-05
2.02741e-05
2.13768e-05
2.07669e-05
1.92734e-05
1.84273e-05
1.75503e-05
1.71236e-05
1.71546e-05
1.75843e-05
1.85566e-05
1.94509e-05
2.07821e-05
1.97053e-05
1.84648e-05
1.75673e-05
1.67129e-05
1.62922e-05
1.63085e-05
1.67216e-05
1.7576e-05
1.85803e-05
1.98478e-05
1.9463e-05
1.82327e-05
1.71272e-05
1.62994e-05
1.588e-05
1.58898e-05
1.63075e-05
1.71596e-05
1.82659e-05
1.95184e-05
1.95238e-05
1.82616e-05
1.71488e-05
1.63024e-05
1.58891e-05
1.58934e-05
1.63089e-05
1.71601e-05
1.8265e-05
1.95141e-05
1.98299e-05
1.85807e-05
1.75732e-05
1.67206e-05
1.63123e-05
1.63147e-05
1.6723e-05
1.75754e-05
1.85771e-05
1.98348e-05
2.07455e-05
1.94466e-05
1.85556e-05
1.75834e-05
1.7161e-05
1.7163e-05
1.75856e-05
1.85545e-05
1.94419e-05
2.07568e-05
2.13373e-05
2.02733e-05
1.95095e-05
1.85861e-05
1.82662e-05
1.82691e-05
1.85904e-05
1.95078e-05
2.02689e-05
2.13514e-05
2.34824e-05
2.13965e-05
2.07803e-05
1.98396e-05
1.95173e-05
1.95215e-05
1.98462e-05
2.07762e-05
2.13821e-05
2.34876e-05
2.31493e-05
2.12975e-05
2.04835e-05
1.96773e-05
1.95268e-05
1.95855e-05
1.9858e-05
2.06516e-05
2.12569e-05
2.26132e-05
2.13342e-05
2.01952e-05
1.9394e-05
1.87701e-05
1.8565e-05
1.85912e-05
1.89008e-05
1.9724e-05
2.04929e-05
2.1274e-05
2.05483e-05
1.94701e-05
1.87731e-05
1.79916e-05
1.76165e-05
1.76476e-05
1.80188e-05
1.88811e-05
1.96525e-05
2.06657e-05
1.9707e-05
1.87864e-05
1.80058e-05
1.72298e-05
1.68732e-05
1.68939e-05
1.7245e-05
1.80064e-05
1.88789e-05
1.98601e-05
1.95128e-05
1.85516e-05
1.7612e-05
1.6876e-05
1.6531e-05
1.65454e-05
1.68909e-05
1.76462e-05
1.85745e-05
1.95529e-05
1.95696e-05
1.85746e-05
1.76333e-05
1.68811e-05
1.65422e-05
1.65492e-05
1.68927e-05
1.76476e-05
1.85751e-05
1.95497e-05
1.98529e-05
1.88845e-05
1.80013e-05
1.72399e-05
1.68949e-05
1.68996e-05
1.72471e-05
1.80082e-05
1.88802e-05
1.985e-05
2.06422e-05
1.96559e-05
1.88781e-05
1.80139e-05
1.76489e-05
1.76531e-05
1.80215e-05
1.88825e-05
1.965e-05
2.0644e-05
2.12358e-05
2.04911e-05
1.97158e-05
1.88878e-05
1.85776e-05
1.85827e-05
1.88989e-05
1.97238e-05
2.04904e-05
2.12477e-05
2.26017e-05
2.12833e-05
2.06572e-05
1.98491e-05
1.95524e-05
1.95597e-05
1.9867e-05
2.06712e-05
2.12818e-05
2.26102e-05
2.26378e-05
2.12623e-05
2.05728e-05
1.99678e-05
1.98342e-05
1.98727e-05
2.01278e-05
2.08033e-05
2.137e-05
2.22518e-05
2.13203e-05
2.0451e-05
1.97954e-05
1.92847e-05
1.90714e-05
1.90865e-05
1.93879e-05
2.01172e-05
2.08003e-05
2.13724e-05
2.06372e-05
1.98731e-05
1.92768e-05
1.8566e-05
1.82232e-05
1.82539e-05
1.85908e-05
1.93646e-05
2.00324e-05
2.07959e-05
1.99825e-05
1.92917e-05
1.85753e-05
1.78564e-05
1.75357e-05
1.75601e-05
1.78795e-05
1.85752e-05
1.93592e-05
2.01193e-05
1.98112e-05
1.90478e-05
1.82101e-05
1.75341e-05
1.72344e-05
1.72517e-05
1.75541e-05
1.8247e-05
1.90639e-05
1.98342e-05
1.98571e-05
1.90653e-05
1.82324e-05
1.75417e-05
1.72465e-05
1.72548e-05
1.75556e-05
1.82486e-05
1.90652e-05
1.98327e-05
2.0123e-05
1.93675e-05
1.85683e-05
1.78717e-05
1.75579e-05
1.75634e-05
1.78805e-05
1.85773e-05
1.93629e-05
2.01147e-05
2.07925e-05
2.00434e-05
1.93611e-05
1.8584e-05
1.8251e-05
1.82556e-05
1.85929e-05
1.93668e-05
2.00345e-05
2.07836e-05
2.135e-05
2.07996e-05
2.01034e-05
1.93726e-05
1.90691e-05
1.90741e-05
1.93851e-05
2.01155e-05
2.07999e-05
2.13533e-05
2.22398e-05
2.13778e-05
2.07888e-05
2.01105e-05
1.98348e-05
1.98425e-05
2.01334e-05
2.08157e-05
2.13915e-05
2.22518e-05
2.21013e-05
2.10301e-05
2.04931e-05
2.00348e-05
1.98954e-05
1.99133e-05
2.01547e-05
2.07286e-05
2.12135e-05
2.18158e-05
2.10859e-05
2.04477e-05
1.99435e-05
1.95111e-05
1.92889e-05
1.92946e-05
1.95857e-05
2.0236e-05
2.07985e-05
2.11937e-05
2.05406e-05
2.00148e-05
1.94901e-05
1.88344e-05
1.85148e-05
1.85442e-05
1.88589e-05
1.95619e-05
2.0141e-05
2.0698e-05
2.00295e-05
1.95063e-05
1.8839e-05
1.81717e-05
1.78733e-05
1.78989e-05
1.81997e-05
1.88412e-05
1.95529e-05
2.01376e-05
1.98662e-05
1.92582e-05
1.84963e-05
1.78692e-05
1.75978e-05
1.76153e-05
1.78896e-05
1.85332e-05
1.927e-05
1.98744e-05
1.98992e-05
1.92717e-05
1.852e-05
1.78783e-05
1.76094e-05
1.7617e-05
1.78906e-05
1.85346e-05
1.92715e-05
1.98744e-05
2.01484e-05
1.95625e-05
1.88352e-05
1.81919e-05
1.7894e-05
1.78988e-05
1.8199e-05
1.88428e-05
1.9558e-05
2.01379e-05
2.07109e-05
2.01577e-05
1.95605e-05
1.8853e-05
1.85384e-05
1.85419e-05
1.88596e-05
1.95641e-05
2.01468e-05
2.06953e-05
2.11871e-05
2.08004e-05
2.02217e-05
1.95723e-05
1.92772e-05
1.92806e-05
1.95822e-05
2.02328e-05
2.08006e-05
2.1184e-05
2.18012e-05
2.12045e-05
2.07007e-05
2.01345e-05
1.98761e-05
1.98828e-05
2.01566e-05
2.07319e-05
2.12277e-05
2.1816e-05
2.14897e-05
2.06026e-05
2.0213e-05
1.98546e-05
1.97019e-05
1.97043e-05
1.9933e-05
2.04208e-05
2.08039e-05
2.12555e-05
2.0646e-05
2.02165e-05
1.98345e-05
1.94521e-05
1.92267e-05
1.92271e-05
1.95066e-05
2.0095e-05
2.05431e-05
2.07646e-05
2.02389e-05
1.98984e-05
1.94239e-05
1.88133e-05
1.85134e-05
1.8542e-05
1.88417e-05
1.94886e-05
1.99948e-05
2.03738e-05
1.98332e-05
1.94384e-05
1.88136e-05
1.81932e-05
1.79109e-05
1.79367e-05
1.8226e-05
1.88232e-05
1.94729e-05
1.99116e-05
1.96707e-05
1.91921e-05
1.84909e-05
1.79047e-05
1.76513e-05
1.76682e-05
1.79247e-05
1.85284e-05
1.92038e-05
1.96699e-05
1.96919e-05
1.92034e-05
1.85158e-05
1.79145e-05
1.76617e-05
1.76686e-05
1.79251e-05
1.85293e-05
1.92051e-05
1.96709e-05
1.99242e-05
1.94802e-05
1.88167e-05
1.82177e-05
1.79292e-05
1.79335e-05
1.82236e-05
1.88236e-05
1.94777e-05
1.99157e-05
2.0396e-05
2.00117e-05
1.94877e-05
1.88362e-05
1.8534e-05
1.85365e-05
1.8841e-05
1.94903e-05
2.00019e-05
2.03794e-05
2.07714e-05
2.05446e-05
2.00807e-05
1.94955e-05
1.92114e-05
1.92135e-05
1.9503e-05
2.00907e-05
2.05463e-05
2.07646e-05
2.1245e-05
2.07843e-05
2.0387e-05
1.99139e-05
1.96726e-05
1.96778e-05
1.99332e-05
2.04174e-05
2.08114e-05
2.12578e-05
2.09296e-05
2.00735e-05
1.97981e-05
1.95057e-05
1.93403e-05
1.93317e-05
1.95465e-05
1.99635e-05
2.02541e-05
2.07146e-05
2.01022e-05
1.98466e-05
1.95522e-05
1.92027e-05
1.89787e-05
1.89765e-05
1.92435e-05
1.97819e-05
2.01341e-05
2.0202e-05
1.98068e-05
1.96096e-05
1.91724e-05
1.86007e-05
1.83178e-05
1.83453e-05
1.86345e-05
1.9236e-05
1.96802e-05
1.99073e-05
1.94752e-05
1.91836e-05
1.85982e-05
1.8019e-05
1.77483e-05
1.77734e-05
1.80551e-05
1.86166e-05
1.92112e-05
1.95244e-05
1.9311e-05
1.89439e-05
1.82938e-05
1.77411e-05
1.74989e-05
1.75147e-05
1.77601e-05
1.83316e-05
1.89564e-05
1.93022e-05
1.93218e-05
1.89545e-05
1.83197e-05
1.7751e-05
1.7508e-05
1.75143e-05
1.77602e-05
1.83319e-05
1.89568e-05
1.9303e-05
1.95367e-05
1.92173e-05
1.86103e-05
1.80475e-05
1.77648e-05
1.77687e-05
1.8052e-05
1.86159e-05
1.92145e-05
1.95287e-05
1.99324e-05
1.96974e-05
1.92366e-05
1.86311e-05
1.83377e-05
1.83391e-05
1.86336e-05
1.92372e-05
1.96866e-05
1.99156e-05
2.0214e-05
2.01362e-05
1.97699e-05
1.92366e-05
1.89646e-05
1.89652e-05
1.92409e-05
1.97769e-05
2.01362e-05
2.02062e-05
2.07041e-05
2.02283e-05
1.99275e-05
1.95302e-05
1.9306e-05
1.93099e-05
1.95462e-05
1.99553e-05
2.02549e-05
2.07164e-05
2.05555e-05
1.95107e-05
1.9302e-05
1.90543e-05
1.88838e-05
1.88704e-05
1.90711e-05
1.94295e-05
1.96581e-05
2.03399e-05
1.95319e-05
1.94012e-05
1.91672e-05
1.88449e-05
1.86282e-05
1.86266e-05
1.88819e-05
1.93776e-05
1.96531e-05
1.96024e-05
1.9303e-05
1.92217e-05
1.88186e-05
1.82846e-05
1.80178e-05
1.80442e-05
1.83248e-05
1.88878e-05
1.92783e-05
1.93738e-05
1.90229e-05
1.88242e-05
1.82799e-05
1.77387e-05
1.74783e-05
1.7502e-05
1.77771e-05
1.83087e-05
1.88536e-05
1.90535e-05
1.88588e-05
1.85949e-05
1.79928e-05
1.74702e-05
1.72365e-05
1.72509e-05
1.74881e-05
1.80318e-05
1.86121e-05
1.88494e-05
1.8863e-05
1.86064e-05
1.80192e-05
1.74797e-05
1.72442e-05
1.72498e-05
1.74878e-05
1.80316e-05
1.86114e-05
1.88491e-05
1.90612e-05
1.88559e-05
1.83017e-05
1.77702e-05
1.7493e-05
1.74961e-05
1.77734e-05
1.83067e-05
1.88542e-05
1.90553e-05
1.93963e-05
1.92929e-05
1.88894e-05
1.8324e-05
1.80378e-05
1.80381e-05
1.83242e-05
1.8888e-05
1.92817e-05
1.93803e-05
1.96151e-05
1.96541e-05
1.9368e-05
1.8879e-05
1.86194e-05
1.86189e-05
1.88804e-05
1.93719e-05
1.96526e-05
1.9607e-05
2.0331e-05
1.96303e-05
1.93955e-05
1.90592e-05
1.88524e-05
1.88553e-05
1.90718e-05
1.94191e-05
1.96543e-05
2.03414e-05
2.05061e-05
1.89951e-05
1.87833e-05
1.85627e-05
1.83942e-05
1.83814e-05
1.85693e-05
1.88841e-05
1.91088e-05
2.02807e-05
1.9012e-05
1.89292e-05
1.87395e-05
1.84437e-05
1.82383e-05
1.82391e-05
1.84831e-05
1.89405e-05
1.91544e-05
1.90553e-05
1.87817e-05
1.87914e-05
1.84258e-05
1.79297e-05
1.76776e-05
1.7702e-05
1.79748e-05
1.85036e-05
1.88448e-05
1.88337e-05
1.85333e-05
1.84219e-05
1.79235e-05
1.74181e-05
1.71662e-05
1.71871e-05
1.74553e-05
1.79607e-05
1.8459e-05
1.85572e-05
1.83727e-05
1.82062e-05
1.76522e-05
1.71576e-05
1.69306e-05
1.69429e-05
1.71728e-05
1.76914e-05
1.823e-05
1.83684e-05
1.83738e-05
1.82193e-05
1.76777e-05
1.71651e-05
1.69361e-05
1.6941e-05
1.71724e-05
1.7691e-05
1.82286e-05
1.83664e-05
1.85572e-05
1.84564e-05
1.79521e-05
1.74485e-05
1.71772e-05
1.71801e-05
1.74518e-05
1.79583e-05
1.84576e-05
1.85544e-05
1.8848e-05
1.88551e-05
1.85049e-05
1.79754e-05
1.76962e-05
1.76962e-05
1.7975e-05
1.85037e-05
1.88456e-05
1.88344e-05
1.9062e-05
1.91534e-05
1.89326e-05
1.84828e-05
1.82353e-05
1.82346e-05
1.84832e-05
1.89351e-05
1.91518e-05
1.90557e-05
2.02694e-05
1.90816e-05
1.88534e-05
1.85601e-05
1.8369e-05
1.83716e-05
1.85708e-05
1.88737e-05
1.91024e-05
2.02795e-05
2.07313e-05
1.85858e-05
1.82764e-05
1.80664e-05
1.79078e-05
1.79017e-05
1.80806e-05
1.83709e-05
1.86808e-05
2.04948e-05
1.86045e-05
1.84553e-05
1.83e-05
1.8035e-05
1.78462e-05
1.78516e-05
1.80851e-05
1.85063e-05
1.86719e-05
1.86329e-05
1.82773e-05
1.83516e-05
1.80302e-05
1.75736e-05
1.73359e-05
1.73582e-05
1.76229e-05
1.812e-05
1.84144e-05
1.83275e-05
1.80425e-05
1.80147e-05
1.75666e-05
1.70956e-05
1.68511e-05
1.68683e-05
1.7129e-05
1.761e-05
1.80637e-05
1.80727e-05
1.78904e-05
1.78159e-05
1.73103e-05
1.68421e-05
1.66206e-05
1.66302e-05
1.68532e-05
1.73483e-05
1.78468e-05
1.7896e-05
1.78938e-05
1.78318e-05
1.73336e-05
1.6846e-05
1.66231e-05
1.66275e-05
1.68528e-05
1.73479e-05
1.7845e-05
1.78925e-05
1.8067e-05
1.80568e-05
1.75992e-05
1.71211e-05
1.68567e-05
1.68599e-05
1.71259e-05
1.7608e-05
1.80611e-05
1.80657e-05
1.83355e-05
1.84209e-05
1.81198e-05
1.76229e-05
1.73514e-05
1.73518e-05
1.76239e-05
1.81204e-05
1.84133e-05
1.83226e-05
1.86357e-05
1.86707e-05
1.84998e-05
1.80849e-05
1.78495e-05
1.78492e-05
1.80855e-05
1.85014e-05
1.86677e-05
1.86286e-05
2.04841e-05
1.86582e-05
1.83453e-05
1.80724e-05
1.78938e-05
1.78963e-05
1.80816e-05
1.83614e-05
1.8674e-05
2.04912e-05
2.07192e-05
1.83592e-05
1.78219e-05
1.7596e-05
1.74485e-05
1.74521e-05
1.76278e-05
1.79254e-05
1.84497e-05
2.04794e-05
1.83793e-05
1.80033e-05
1.78712e-05
1.764e-05
1.74697e-05
1.74798e-05
1.77018e-05
1.80883e-05
1.8222e-05
1.84055e-05
1.78262e-05
1.79231e-05
1.76512e-05
1.7234e-05
1.70091e-05
1.70281e-05
1.7284e-05
1.77502e-05
1.79983e-05
1.78856e-05
1.7578e-05
1.76224e-05
1.72276e-05
1.67883e-05
1.6549e-05
1.65613e-05
1.68137e-05
1.72709e-05
1.768e-05
1.76195e-05
1.74353e-05
1.7442e-05
1.69844e-05
1.65398e-05
1.63221e-05
1.63283e-05
1.65444e-05
1.70169e-05
1.74752e-05
1.74487e-05
1.74443e-05
1.74597e-05
1.70031e-05
1.65381e-05
1.63205e-05
1.63242e-05
1.65438e-05
1.70166e-05
1.74733e-05
1.74443e-05
1.76138e-05
1.76719e-05
1.7258e-05
1.68034e-05
1.6546e-05
1.65498e-05
1.68102e-05
1.72689e-05
1.7677e-05
1.76097e-05
1.78921e-05
1.80036e-05
1.77475e-05
1.72805e-05
1.70173e-05
1.70186e-05
1.72838e-05
1.77501e-05
1.79964e-05
1.78765e-05
1.84081e-05
1.82232e-05
1.80824e-05
1.76987e-05
1.7475e-05
1.74751e-05
1.76997e-05
1.80824e-05
1.82168e-05
1.83974e-05
2.04705e-05
1.84344e-05
1.79047e-05
1.76177e-05
1.7444e-05
1.74461e-05
1.76241e-05
1.79143e-05
1.84415e-05
2.04723e-05
1.88008e-05
1.8361e-05
1.74607e-05
1.71759e-05
1.70317e-05
1.70449e-05
1.72271e-05
1.75782e-05
1.8455e-05
1.85758e-05
1.83813e-05
1.75981e-05
1.74661e-05
1.72671e-05
1.7115e-05
1.71286e-05
1.7338e-05
1.76922e-05
1.78216e-05
1.84127e-05
1.74667e-05
1.75187e-05
1.7296e-05
1.6916e-05
1.67022e-05
1.67173e-05
1.69631e-05
1.73985e-05
1.7603e-05
1.75394e-05
1.71623e-05
1.72525e-05
1.69102e-05
1.64996e-05
1.6264e-05
1.62711e-05
1.6515e-05
1.69483e-05
1.73129e-05
1.72148e-05
1.70211e-05
1.70888e-05
1.66773e-05
1.62542e-05
1.60394e-05
1.60423e-05
1.62518e-05
1.67023e-05
1.71201e-05
1.70395e-05
1.7037e-05
1.71064e-05
1.66896e-05
1.62456e-05
1.60332e-05
1.60364e-05
1.62505e-05
1.67017e-05
1.71185e-05
1.70355e-05
1.72138e-05
1.73048e-05
1.69321e-05
1.65e-05
1.62504e-05
1.62551e-05
1.65095e-05
1.69455e-05
1.73103e-05
1.72056e-05
1.75494e-05
1.76081e-05
1.73915e-05
1.6953e-05
1.66989e-05
1.67015e-05
1.69592e-05
1.73967e-05
1.76014e-05
1.75305e-05
1.84201e-05
1.78267e-05
1.76858e-05
1.7329e-05
1.7117e-05
1.71176e-05
1.73304e-05
1.76844e-05
1.78168e-05
1.84046e-05
1.85713e-05
1.84492e-05
1.75631e-05
1.72141e-05
1.70335e-05
1.70345e-05
1.72163e-05
1.75645e-05
1.84462e-05
1.85669e-05
1.35107e-05
1.85154e-05
1.72366e-05
1.6832e-05
1.66719e-05
1.66912e-05
1.68953e-05
1.73631e-05
1.86134e-05
1.34315e-05
1.85348e-05
1.7268e-05
1.7093e-05
1.69177e-05
1.67805e-05
1.67954e-05
1.69917e-05
1.73202e-05
1.74908e-05
1.85707e-05
1.72424e-05
1.71462e-05
1.69641e-05
1.66162e-05
1.64114e-05
1.64225e-05
1.66579e-05
1.70634e-05
1.72308e-05
1.73231e-05
1.68201e-05
1.69056e-05
1.66112e-05
1.62253e-05
1.59925e-05
1.59955e-05
1.62313e-05
1.66409e-05
1.69618e-05
1.6877e-05
1.66618e-05
1.67547e-05
1.6386e-05
1.59819e-05
1.57701e-05
1.57706e-05
1.59743e-05
1.64032e-05
1.67805e-05
1.66803e-05
1.66827e-05
1.677e-05
1.6391e-05
1.59669e-05
1.57598e-05
1.57633e-05
1.5972e-05
1.6402e-05
1.67795e-05
1.6678e-05
1.68833e-05
1.69546e-05
1.66207e-05
1.62107e-05
1.59693e-05
1.59752e-05
1.62233e-05
1.66367e-05
1.69606e-05
1.68718e-05
1.73391e-05
1.72362e-05
1.70513e-05
1.664e-05
1.63959e-05
1.63997e-05
1.66493e-05
1.70595e-05
1.72313e-05
1.73185e-05
1.85848e-05
1.75e-05
1.73126e-05
1.69761e-05
1.67755e-05
1.67765e-05
1.69782e-05
1.7311e-05
1.74885e-05
1.8566e-05
1.34298e-05
1.86166e-05
1.73537e-05
1.688e-05
1.66749e-05
1.66744e-05
1.68777e-05
1.73478e-05
1.86051e-05
1.34216e-05
2.881e-05
1.84122e-05
1.71714e-05
1.6587e-05
1.63834e-05
1.64043e-05
1.6652e-05
1.72969e-05
1.85081e-05
2.90939e-05
1.84307e-05
1.70377e-05
1.67581e-05
1.65905e-05
1.6463e-05
1.64774e-05
1.66621e-05
1.69778e-05
1.72504e-05
1.84649e-05
1.71765e-05
1.68127e-05
1.66525e-05
1.633e-05
1.61328e-05
1.61408e-05
1.63663e-05
1.67434e-05
1.68879e-05
1.72548e-05
1.65758e-05
1.65815e-05
1.63263e-05
1.59613e-05
1.57318e-05
1.57325e-05
1.59612e-05
1.63469e-05
1.66272e-05
1.66274e-05
1.63736e-05
1.64379e-05
1.61073e-05
1.57207e-05
1.55126e-05
1.55123e-05
1.57107e-05
1.61178e-05
1.64554e-05
1.63864e-05
1.63962e-05
1.64494e-05
1.61059e-05
1.57014e-05
1.55003e-05
1.55043e-05
1.57075e-05
1.61159e-05
1.64552e-05
1.63869e-05
1.66426e-05
1.66218e-05
1.63234e-05
1.59358e-05
1.57031e-05
1.57097e-05
1.59506e-05
1.63409e-05
1.66277e-05
1.66291e-05
1.72781e-05
1.68937e-05
1.67268e-05
1.63417e-05
1.61082e-05
1.61127e-05
1.6353e-05
1.67372e-05
1.6891e-05
1.72581e-05
1.84873e-05
1.72626e-05
1.69688e-05
1.6641e-05
1.64503e-05
1.64515e-05
1.66434e-05
1.69674e-05
1.72513e-05
1.84673e-05
2.909e-05
1.8519e-05
1.72928e-05
1.66363e-05
1.63838e-05
1.63818e-05
1.66298e-05
1.72815e-05
1.85016e-05
2.90915e-05
9.12897e-05
1.70528e-05
1.72189e-05
1.64576e-05
1.61821e-05
1.61994e-05
1.65124e-05
1.7331e-05
1.7134e-05
9.16743e-05
1.70676e-05
1.69134e-05
1.6471e-05
1.62857e-05
1.61602e-05
1.61723e-05
1.63491e-05
1.66731e-05
1.71038e-05
1.70921e-05
1.72236e-05
1.65273e-05
1.63581e-05
1.60538e-05
1.58628e-05
1.58688e-05
1.60852e-05
1.64367e-05
1.65829e-05
1.72868e-05
1.64473e-05
1.62804e-05
1.60519e-05
1.57046e-05
1.54794e-05
1.54798e-05
1.5702e-05
1.6064e-05
1.63098e-05
1.64823e-05
1.61741e-05
1.61379e-05
1.58389e-05
1.54688e-05
1.52659e-05
1.52659e-05
1.5459e-05
1.58441e-05
1.61441e-05
1.61742e-05
1.61948e-05
1.61452e-05
1.58337e-05
1.54485e-05
1.52539e-05
1.52584e-05
1.54552e-05
1.58413e-05
1.61445e-05
1.61777e-05
1.65083e-05
1.63092e-05
1.60406e-05
1.56754e-05
1.54511e-05
1.54575e-05
1.56895e-05
1.6056e-05
1.63116e-05
1.64913e-05
1.73181e-05
1.65914e-05
1.6419e-05
1.60584e-05
1.58352e-05
1.58392e-05
1.60684e-05
1.64279e-05
1.65878e-05
1.7298e-05
1.71248e-05
1.71191e-05
1.66649e-05
1.63266e-05
1.61424e-05
1.61427e-05
1.63269e-05
1.66617e-05
1.71067e-05
1.71029e-05
9.16613e-05
1.71521e-05
1.73315e-05
1.64987e-05
1.61769e-05
1.61733e-05
1.64883e-05
1.73163e-05
1.71288e-05
9.16713e-05
0.000216117
1.38706e-05
1.71595e-05
1.64185e-05
1.60642e-05
1.60746e-05
1.64551e-05
1.72486e-05
1.3926e-05
0.000216581
1.3879e-05
1.68334e-05
1.62379e-05
1.60014e-05
1.58696e-05
1.58786e-05
1.60543e-05
1.64178e-05
1.69941e-05
1.38898e-05
1.71633e-05
1.62963e-05
1.60768e-05
1.57832e-05
1.55976e-05
1.5603e-05
1.58116e-05
1.61422e-05
1.63285e-05
1.72053e-05
1.6409e-05
1.60003e-05
1.57837e-05
1.5452e-05
1.52326e-05
1.52347e-05
1.5451e-05
1.57903e-05
1.60138e-05
1.64237e-05
1.60593e-05
1.58518e-05
1.55776e-05
1.52243e-05
1.50281e-05
1.50294e-05
1.52172e-05
1.55803e-05
1.58488e-05
1.60463e-05
1.60759e-05
1.58561e-05
1.55718e-05
1.52068e-05
1.50193e-05
1.50241e-05
1.52135e-05
1.5577e-05
1.585e-05
1.60527e-05
1.64581e-05
1.60188e-05
1.57708e-05
1.54282e-05
1.52122e-05
1.52171e-05
1.54389e-05
1.57815e-05
1.60168e-05
1.64393e-05
1.72438e-05
1.63407e-05
1.61283e-05
1.57894e-05
1.55755e-05
1.55776e-05
1.57947e-05
1.61323e-05
1.63345e-05
1.72234e-05
1.39353e-05
1.70123e-05
1.64133e-05
1.60364e-05
1.58528e-05
1.58515e-05
1.60328e-05
1.64067e-05
1.69983e-05
1.39124e-05
0.000216555
1.39529e-05
1.72544e-05
1.64479e-05
1.60557e-05
1.60505e-05
1.64338e-05
1.72363e-05
1.39241e-05
0.000216575
0.000425064
1.99681e-05
1.64593e-05
1.63606e-05
1.59893e-05
1.59927e-05
1.63788e-05
1.65222e-05
2.00269e-05
0.00042562
1.9971e-05
1.66131e-05
1.60633e-05
1.57388e-05
1.55913e-05
1.55987e-05
1.57838e-05
1.62241e-05
1.67462e-05
1.99805e-05
1.64584e-05
1.61221e-05
1.58054e-05
1.55151e-05
1.5335e-05
1.53417e-05
1.55452e-05
1.58632e-05
1.61371e-05
1.6484e-05
1.63503e-05
1.57411e-05
1.55187e-05
1.52016e-05
1.499e-05
1.49957e-05
1.52073e-05
1.55264e-05
1.57464e-05
1.63504e-05
1.59867e-05
1.55794e-05
1.53211e-05
1.49853e-05
1.47977e-05
1.48016e-05
1.49843e-05
1.53265e-05
1.55741e-05
1.59674e-05
1.59989e-05
1.55828e-05
1.53186e-05
1.49746e-05
1.4795e-05
1.48003e-05
1.4982e-05
1.53238e-05
1.55763e-05
1.59763e-05
1.63872e-05
1.5755e-05
1.55135e-05
1.51929e-05
1.4985e-05
1.49879e-05
1.51993e-05
1.55194e-05
1.57516e-05
1.63717e-05
1.65271e-05
1.61527e-05
1.58575e-05
1.55345e-05
1.53284e-05
1.5328e-05
1.55335e-05
1.58555e-05
1.61451e-05
1.65091e-05
1.99939e-05
1.67678e-05
1.6227e-05
1.57766e-05
1.55846e-05
1.55816e-05
1.57686e-05
1.62163e-05
1.67525e-05
2.00021e-05
0.000425577
2.00327e-05
1.65376e-05
1.63815e-05
1.59825e-05
1.59763e-05
1.63646e-05
1.65155e-05
2.00313e-05
0.000425609
0.000730372
5.35504e-05
1.45046e-05
1.60103e-05
1.58285e-05
1.58281e-05
1.60194e-05
1.45487e-05
5.36766e-05
0.000731039
5.35766e-05
1.58866e-05
1.59373e-05
1.55031e-05
1.53314e-05
1.53394e-05
1.5548e-05
1.60906e-05
1.59978e-05
5.35728e-05
1.44989e-05
1.59981e-05
1.5548e-05
1.52508e-05
1.50763e-05
1.50869e-05
1.52888e-05
1.56072e-05
1.60063e-05
1.45194e-05
1.60016e-05
1.55101e-05
1.52575e-05
1.49532e-05
1.47515e-05
1.47627e-05
1.49707e-05
1.52734e-05
1.55154e-05
1.59965e-05
1.58292e-05
1.53258e-05
1.50685e-05
1.47504e-05
1.45729e-05
1.45807e-05
1.47588e-05
1.50818e-05
1.53244e-05
1.58105e-05
1.58379e-05
1.533e-05
1.50716e-05
1.4748e-05
1.45774e-05
1.4584e-05
1.47588e-05
1.50805e-05
1.53279e-05
1.58213e-05
1.60296e-05
1.5523e-05
1.52648e-05
1.49641e-05
1.47648e-05
1.47668e-05
1.49692e-05
1.52706e-05
1.55232e-05
1.60227e-05
1.45593e-05
1.60196e-05
1.56068e-05
1.52886e-05
1.50896e-05
1.50882e-05
1.5286e-05
1.56045e-05
1.60171e-05
1.45546e-05
5.35485e-05
1.60154e-05
1.6096e-05
1.55492e-05
1.53393e-05
1.53367e-05
1.55422e-05
1.60884e-05
1.60083e-05
5.35753e-05
0.000730971
5.36486e-05
1.457e-05
1.60289e-05
1.58281e-05
1.58229e-05
1.6015e-05
1.4551e-05
5.36672e-05
0.000731018
0.00112924
0.000121851
1.39002e-05
1.49407e-05
1.5297e-05
1.52955e-05
1.49467e-05
1.39202e-05
0.000122092
0.00113009
0.00012193
1.43627e-05
1.58203e-05
1.5296e-05
1.5091e-05
1.51013e-05
1.5345e-05
1.59734e-05
1.44392e-05
0.000121884
1.38949e-05
1.58842e-05
1.5311e-05
1.49906e-05
1.48194e-05
1.48346e-05
1.5039e-05
1.5377e-05
1.58919e-05
1.38883e-05
1.49361e-05
1.5309e-05
1.5001e-05
1.47059e-05
1.45141e-05
1.45309e-05
1.4736e-05
1.50276e-05
1.53181e-05
1.49301e-05
1.53036e-05
1.50929e-05
1.48183e-05
1.45165e-05
1.43492e-05
1.43607e-05
1.45344e-05
1.48404e-05
1.50968e-05
1.52867e-05
1.5309e-05
1.50977e-05
1.48265e-05
1.45216e-05
1.43599e-05
1.4368e-05
1.45364e-05
1.48402e-05
1.51003e-05
1.52973e-05
1.49557e-05
1.53209e-05
1.502e-05
1.47345e-05
1.45436e-05
1.45459e-05
1.47404e-05
1.50276e-05
1.5325e-05
1.49565e-05
1.39113e-05
1.58963e-05
1.5376e-05
1.5045e-05
1.48509e-05
1.485e-05
1.50442e-05
1.53773e-05
1.59e-05
1.39276e-05
0.000121857
1.44442e-05
1.59733e-05
1.53493e-05
1.51123e-05
1.51114e-05
1.53467e-05
1.59725e-05
1.44474e-05
0.00012188
0.00112996
0.000122048
1.39318e-05
1.49559e-05
1.53027e-05
1.53007e-05
1.49505e-05
1.392e-05
0.000122064
0.00113005
0.00160508
0.000236932
2.73791e-05
1.33129e-05
1.40796e-05
1.40791e-05
1.33194e-05
2.73979e-05
0.000237323
0.00160617
0.000237079
1.32978e-05
1.56139e-05
1.51146e-05
1.48775e-05
1.48898e-05
1.51676e-05
1.57663e-05
1.32807e-05
0.000236986
2.74044e-05
1.56818e-05
1.51115e-05
1.4746e-05
1.45741e-05
1.45926e-05
1.48019e-05
1.51829e-05
1.56885e-05
2.73283e-05
1.33205e-05
1.51347e-05
1.47601e-05
1.44695e-05
1.42868e-05
1.43072e-05
1.45078e-05
1.47935e-05
1.51458e-05
1.33081e-05
1.40977e-05
1.48873e-05
1.45796e-05
1.42925e-05
1.41348e-05
1.41483e-05
1.43157e-05
1.46063e-05
1.4894e-05
1.408e-05
1.41013e-05
1.48928e-05