/*--------------------------------*- C++ -*----------------------------------*\
| =========                 |                                                 |
| \\      /  F ield         | OpenFOAM: The Open Source CFD Toolbox           |
|  \\    /   O peration     | Version:  2406                                  |
|   \\  /    A nd           | Website:  www.openfoam.com                      |
|    \\/     M anipulation  |                                                 |
\*---------------------------------------------------------------------------*/
FoamFile
{
    version     2.0;
    format      ascii;
    arch        "LSB;label=32;scalar=64";
    class       volVectorField;
    location    "450";
    object      momentError;
}
// * * * * * * * * * * * * * * * * * * * * * * * * * * * * * * * * * * * * * //

dimensions      [0 1 -2 0 0 0 0];

internalField   nonuniform List<vector> 
25000
(
(-0.000232878 -0.00053597 -8.37771e-05)
(-0.000131961 -0.000331082 -7.15665e-05)
(-0.000233152 -0.000162351 -6.54307e-05)
(-0.000202648 -7.39371e-05 -4.01114e-05)
(-0.000158125 -2.71181e-05 -2.06108e-05)
(-0.000119423 -7.23041e-06 -7.37185e-06)
(-9.42466e-05 2.33836e-06 1.51786e-06)
(-7.66545e-05 1.03699e-05 8.3471e-06)
(-6.62413e-05 1.97968e-05 1.38143e-05)
(-5.38721e-05 1.66098e-05 1.76014e-05)
(-8.57516e-05 -0.00026215 -4.29087e-05)
(-7.80653e-05 -0.000280768 -4.64768e-05)
(-0.000126716 -0.000178527 -4.29119e-05)
(-0.000133238 -0.000100361 -3.15978e-05)
(-0.000118234 -5.04788e-05 -1.9127e-05)
(-9.83938e-05 -2.45701e-05 -8.77729e-06)
(-8.05446e-05 -9.74062e-06 -6.91701e-07)
(-6.64469e-05 -8.89403e-07 5.9561e-06)
(-5.773e-05 5.76244e-06 1.17126e-05)
(-4.95695e-05 1.05731e-05 1.68336e-05)
(-5.80965e-05 -0.000201323 -4.18975e-05)
(-3.50091e-05 -0.000190934 -3.24187e-05)
(-6.15562e-05 -0.000145384 -2.87349e-05)
(-8.10548e-05 -9.57105e-05 -2.31907e-05)
(-8.30979e-05 -5.86198e-05 -1.56969e-05)
(-7.60423e-05 -3.42704e-05 -8.05371e-06)
(-6.59753e-05 -1.95261e-05 -1.37331e-06)
(-5.63616e-05 -1.00161e-05 4.75031e-06)
(-4.83461e-05 -3.05231e-06 1.0367e-05)
(-4.15574e-05 3.27209e-06 1.56096e-05)
(-2.68303e-05 -0.000151481 -2.61545e-05)
(-1.47257e-05 -0.000142846 -2.22206e-05)
(-2.62344e-05 -0.000118585 -2.01492e-05)
(-4.46725e-05 -8.76178e-05 -1.7102e-05)
(-5.53912e-05 -6.02699e-05 -1.21626e-05)
(-5.6999e-05 -4.00377e-05 -6.49558e-06)
(-5.31471e-05 -2.60318e-05 -9.11671e-07)
(-4.66405e-05 -1.66221e-05 4.54105e-06)
(-4.03e-05 -9.96517e-06 9.83307e-06)
(-3.38653e-05 -3.93801e-06 1.4985e-05)
(-1.54305e-05 -0.000116065 -1.5449e-05)
(1.71102e-06 -0.000106947 -1.43936e-05)
(-6.21643e-06 -9.4323e-05 -1.38491e-05)
(-2.29845e-05 -7.62506e-05 -1.21912e-05)
(-3.55105e-05 -5.78202e-05 -8.68356e-06)
(-4.1104e-05 -4.17501e-05 -4.26149e-06)
(-4.12696e-05 -2.99054e-05 3.00008e-07)
(-3.88109e-05 -2.13512e-05 5.18382e-06)
(-3.38473e-05 -1.51217e-05 1.01198e-05)
(-2.80654e-05 -1.02429e-05 1.50394e-05)
(2.2989e-06 -8.71274e-05 -7.99211e-06)
(7.11173e-06 -8.22078e-05 -8.79818e-06)
(3.39241e-06 -7.56452e-05 -9.13673e-06)
(-8.88332e-06 -6.55752e-05 -8.13819e-06)
(-2.12083e-05 -5.29348e-05 -5.54588e-06)
(-2.88368e-05 -4.15393e-05 -2.075e-06)
(-3.21624e-05 -3.19986e-05 1.76895e-06)
(-3.12233e-05 -2.46106e-05 6.03326e-06)
(-2.86257e-05 -1.95074e-05 1.05372e-05)
(-2.43566e-05 -1.59993e-05 1.51695e-05)
(6.15294e-06 -7.09629e-05 -3.23543e-06)
(1.29218e-05 -6.59064e-05 -4.52183e-06)
(9.43213e-06 -6.1341e-05 -5.23e-06)
(-8.20064e-07 -5.52818e-05 -4.71013e-06)
(-1.15449e-05 -4.74343e-05 -2.63113e-06)
(-1.97542e-05 -3.94623e-05 1.89338e-07)
(-2.37728e-05 -3.21884e-05 3.3501e-06)
(-2.58677e-05 -2.68142e-05 7.08975e-06)
(-2.51059e-05 -2.31742e-05 1.11657e-05)
(-2.23918e-05 -2.1429e-05 1.54144e-05)
(1.66912e-05 -6.02814e-05 1.04971e-06)
(1.59906e-05 -5.28005e-05 -6.75728e-07)
(1.28986e-05 -4.96621e-05 -1.56615e-06)
(4.49611e-06 -4.46644e-05 -1.19991e-06)
(-5.28166e-06 -4.04376e-05 5.4361e-07)
(-1.29636e-05 -3.47813e-05 2.91986e-06)
(-1.87316e-05 -3.07755e-05 5.63931e-06)
(-2.15657e-05 -2.73295e-05 8.91169e-06)
(-2.31473e-05 -2.56904e-05 1.25814e-05)
(-2.33742e-05 -2.61592e-05 1.64506e-05)
(2.71596e-05 -5.22187e-05 4.7618e-06)
(2.25045e-05 -4.28931e-05 2.98066e-06)
(1.62565e-05 -3.74447e-05 1.94199e-06)
(7.84341e-06 -3.42448e-05 2.30576e-06)
(-1.52399e-06 -3.1046e-05 3.9124e-06)
(-9.2927e-06 -2.86981e-05 6.12164e-06)
(-1.53308e-05 -2.69183e-05 8.50103e-06)
(-1.98897e-05 -2.65598e-05 1.14885e-05)
(-2.37608e-05 -2.82403e-05 1.48112e-05)
(-2.77339e-05 -3.01445e-05 1.82156e-05)
(3.51138e-05 -3.78279e-05 7.59127e-06)
(2.8827e-05 -3.63502e-05 6.21538e-06)
(1.97756e-05 -2.96096e-05 5.44327e-06)
(1.02477e-05 -2.4716e-05 5.85169e-06)
(4.77565e-07 -2.31107e-05 7.54446e-06)
(-8.00094e-06 -2.21646e-05 9.63855e-06)
(-1.53602e-05 -2.31325e-05 1.18958e-05)
(-2.14772e-05 -2.63787e-05 1.4681e-05)
(-2.59872e-05 -3.15254e-05 1.76965e-05)
(-2.66585e-05 -3.18836e-05 1.98079e-05)
(-0.00061105 -0.000959551 0.000477815)
(0.00210588 -0.000319117 0.000156173)
(0.000872268 -0.000328812 4.24088e-05)
(0.000432828 -0.000244746 -2.96601e-05)
(0.00021635 -0.000156505 -6.57125e-05)
(0.00013368 -0.000119792 -8.37258e-05)
(9.80069e-05 -9.1342e-05 -9.10744e-05)
(9.03862e-05 -8.11653e-05 -9.27077e-05)
(0.000102505 -6.98319e-05 -9.04034e-05)
(0.000123114 -6.20449e-05 -8.33906e-05)
(0.000278306 0.0018301 0.000158638)
(0.000906273 0.000543611 5.60239e-05)
(0.000637111 9.63723e-05 -5.15369e-06)
(0.000399687 -5.60706e-05 -4.23687e-05)
(0.000236763 -7.68908e-05 -6.61414e-05)
(0.000146888 -7.18639e-05 -8.01282e-05)
(0.000108031 -6.18088e-05 -8.80112e-05)
(9.22469e-05 -5.45004e-05 -9.15898e-05)
(9.77484e-05 -5.10746e-05 -9.19361e-05)
(0.000108635 -5.29622e-05 -8.83334e-05)
(1.01387e-05 0.000776509 4.39305e-05)
(0.000433756 0.00041691 -8.3815e-06)
(0.000409014 0.000150195 -4.13121e-05)
(0.000305363 2.3503e-05 -5.84158e-05)
(0.000207576 -2.82633e-05 -7.07837e-05)
(0.000140791 -4.00546e-05 -7.96563e-05)
(0.000104462 -4.17914e-05 -8.59542e-05)
(9.1184e-05 -4.07399e-05 -8.98859e-05)
(9.40892e-05 -3.97814e-05 -9.20629e-05)
(0.00010223 -4.18128e-05 -9.13955e-05)
(-4.99228e-05 0.000433584 -1.8219e-05)
(0.000195683 0.000274854 -3.94175e-05)
(0.000259196 0.000129951 -5.64115e-05)
(0.000231514 3.84146e-05 -6.68247e-05)
(0.000172345 -6.98865e-06 -7.44155e-05)
(0.000125734 -2.4888e-05 -8.04444e-05)
(9.88316e-05 -3.05117e-05 -8.54023e-05)
(8.71524e-05 -3.17181e-05 -8.93869e-05)
(8.9045e-05 -3.29819e-05 -9.25067e-05)
(9.66449e-05 -3.59057e-05 -9.38712e-05)
(-8.95969e-05 0.000246335 -4.50989e-05)
(0.000107582 0.000180654 -5.46235e-05)
(0.000176499 9.66432e-05 -6.42204e-05)
(0.000172363 3.4904e-05 -7.09732e-05)
(0.000143515 -1.91722e-06 -7.66675e-05)
(0.000112127 -1.70979e-05 -8.12777e-05)
(9.19834e-05 -2.34892e-05 -8.55172e-05)
(8.39766e-05 -2.53432e-05 -8.91993e-05)
(8.5537e-05 -2.55853e-05 -9.25223e-05)
(9.23778e-05 -2.68151e-05 -9.48184e-05)
(-7.79815e-05 0.000173951 -5.64802e-05)
(4.80869e-05 0.000130307 -6.22042e-05)
(0.000120057 7.4976e-05 -6.76508e-05)
(0.000137057 2.99084e-05 -7.30946e-05)
(0.000120948 3.714e-06 -7.77936e-05)
(0.00010174 -1.12005e-05 -8.20082e-05)
(8.77239e-05 -1.63569e-05 -8.56447e-05)
(8.2665e-05 -1.7438e-05 -8.89633e-05)
(8.52993e-05 -1.69709e-05 -9.22467e-05)
(9.28992e-05 -1.56988e-05 -9.42306e-05)
(-9.37365e-05 0.000137514 -5.8904e-05)
(2.28493e-05 0.000107625 -6.4446e-05)
(8.55227e-05 7.15225e-05 -6.94268e-05)
(0.000106249 3.85202e-05 -7.40621e-05)
(0.000104556 1.65911e-05 -7.86815e-05)
(9.20195e-05 4.26752e-06 -8.24655e-05)
(8.54707e-05 -5.58637e-07 -8.59563e-05)
(8.3325e-05 -2.91634e-06 -8.88389e-05)
(8.73389e-05 -2.69754e-06 -9.11233e-05)
(9.68491e-05 -1.28967e-06 -9.22292e-05)
(-8.11558e-05 0.000124578 -5.62193e-05)
(-1.71953e-07 0.000112728 -6.38872e-05)
(6.00263e-05 8.33016e-05 -6.91041e-05)
(8.60012e-05 6.4745e-05 -7.43785e-05)
(8.83815e-05 4.37948e-05 -7.89715e-05)
(8.50912e-05 3.47465e-05 -8.30307e-05)
(8.1434e-05 2.62143e-05 -8.60543e-05)
(8.20146e-05 2.2582e-05 -8.81047e-05)
(8.87603e-05 1.91204e-05 -8.94195e-05)
(9.82297e-05 1.69149e-05 -8.82055e-05)
(-6.92658e-05 0.000130514 -5.02347e-05)
(-2.83918e-06 0.000129943 -6.01345e-05)
(4.49582e-05 0.000118191 -6.69437e-05)
(6.87985e-05 9.93562e-05 -7.34131e-05)
(7.49242e-05 8.41867e-05 -7.89497e-05)
(7.48469e-05 7.16919e-05 -8.31479e-05)
(7.50007e-05 6.2834e-05 -8.59941e-05)
(7.92237e-05 5.66627e-05 -8.71862e-05)
(8.65261e-05 5.0187e-05 -8.66916e-05)
(9.6449e-05 4.57444e-05 -8.32902e-05)
(-2.7639e-05 0.000132784 -3.96244e-05)
(4.61586e-06 0.000150762 -5.1806e-05)
(3.70347e-05 0.000144145 -6.15808e-05)
(5.30996e-05 0.000133493 -7.07213e-05)
(6.02823e-05 0.000117018 -7.76687e-05)
(6.3648e-05 0.000105934 -8.23766e-05)
(6.78933e-05 9.66866e-05 -8.46239e-05)
(7.17848e-05 8.87298e-05 -8.41492e-05)
(8.29505e-05 8.01416e-05 -8.16803e-05)
(9.00837e-05 7.36078e-05 -7.57935e-05)
(-0.000155703 -0.00023654 0.000289167)
(0.00116415 -5.58015e-05 0.000188532)
(0.00100871 -7.90559e-05 0.000118156)
(0.000514464 -6.23068e-05 1.44406e-06)
(0.000334374 -3.49383e-05 -7.8323e-05)
(0.000244964 -2.66148e-05 -0.000131421)
(0.000200233 -2.87432e-05 -0.00016829)
(0.000179919 -4.93674e-05 -0.000197393)
(0.000182377 -6.8189e-05 -0.000221973)
(0.00020499 -9.18786e-05 -0.000237765)
(4.64507e-06 0.0010545 0.000122427)
(0.000816523 0.000740922 8.48572e-05)
(0.000729275 0.000200397 3.8095e-05)
(0.000512456 6.21642e-05 -2.20746e-05)
(0.000348675 2.60836e-05 -7.58699e-05)
(0.000246434 1.57695e-05 -0.000119189)
(0.000189685 5.25402e-06 -0.000154602)
(0.00016005 -6.5985e-06 -0.000185178)
(0.000153844 -2.28495e-05 -0.000213294)
(0.000166848 -5.22608e-05 -0.000237307)
(3.57229e-05 0.000909347 6.33651e-05)
(0.000297957 0.000637108 1.30645e-05)
(0.000434315 0.000328149 -2.05219e-05)
(0.000395732 0.000160773 -4.99492e-05)
(0.000303077 8.14626e-05 -8.22495e-05)
(0.000223798 4.56085e-05 -0.000115198)
(0.000171415 2.5794e-05 -0.000146084)
(0.000142764 1.05459e-05 -0.00017595)
(0.000129931 -6.33442e-06 -0.000205441)
(0.000127764 -3.26118e-05 -0.000233224)
(-4.26619e-05 0.000512149 -1.9253e-05)
(0.000134575 0.00047209 -3.77102e-05)
(0.000253057 0.000323729 -5.27412e-05)
(0.000273227 0.000193093 -6.90981e-05)
(0.000234712 0.000110067 -9.08946e-05)
(0.00018696 6.43585e-05 -0.000116606)
(0.000149486 3.75093e-05 -0.000143982)
(0.000123205 2.01263e-05 -0.000172227)
(0.00010828 4.65567e-06 -0.000201832)
(9.58365e-05 -1.61682e-05 -0.000231289)
(-5.3887e-05 0.000367384 -6.82957e-05)
(5.99039e-05 0.000343703 -6.99554e-05)
(0.000150657 0.000264383 -7.4654e-05)
(0.000182907 0.000177822 -8.41149e-05)
(0.000173884 0.000112103 -0.000100683)
(0.000149023 6.92468e-05 -0.000122203)
(0.000124841 4.29751e-05 -0.00014632)
(0.000108076 2.63263e-05 -0.000172981)
(9.29672e-05 1.39157e-05 -0.00020187)
(7.64037e-05 2.31106e-06 -0.000231351)
(-7.28116e-05 0.000287558 -9.89529e-05)
(2.0463e-05 0.000261663 -9.34167e-05)
(8.81684e-05 0.000209179 -9.2081e-05)
(0.000122323 0.000151403 -9.85195e-05)
(0.000126282 0.000103004 -0.000111878)
(0.00011712 6.82683e-05 -0.000130397)
(0.000106075 4.53017e-05 -0.000152199)
(9.39721e-05 3.10277e-05 -0.000176847)
(8.4758e-05 2.37727e-05 -0.000204379)
(7.25152e-05 2.13518e-05 -0.000232844)
(-9.21125e-05 0.000248647 -0.000119518)
(-1.34033e-05 0.000215311 -0.000112294)
(4.65176e-05 0.000175019 -0.000109302)
(7.94605e-05 0.000133821 -0.00011359)
(9.13912e-05 9.79762e-05 -0.000125314)
(9.1283e-05 7.03586e-05 -0.000141654)
(8.79193e-05 5.10523e-05 -0.000161251)
(8.71303e-05 3.97967e-05 -0.000183927)
(8.43234e-05 3.62387e-05 -0.000209491)
(8.1212e-05 4.17914e-05 -0.000235934)
(-0.000120993 0.0002304 -0.000137315)
(-4.1162e-05 0.00019833 -0.000130946)
(1.43319e-05 0.000164976 -0.000127214)
(4.76712e-05 0.000132274 -0.00013122)
(6.29255e-05 0.000103399 -0.000141723)
(7.00404e-05 8.04421e-05 -0.000156714)
(7.59932e-05 6.43767e-05 -0.000174544)
(8.01793e-05 5.53536e-05 -0.000195054)
(8.81944e-05 5.34931e-05 -0.000218249)
(0.000100787 6.35879e-05 -0.000241176)
(-0.000141674 0.000228301 -0.000153681)
(-6.37188e-05 0.000202481 -0.000149544)
(-1.20855e-05 0.000171891 -0.000146696)
(1.93629e-05 0.000140273 -0.000151237)
(3.88274e-05 0.000112756 -0.000161652)
(5.16125e-05 9.31366e-05 -0.000175971)
(6.33249e-05 8.00943e-05 -0.00019223)
(7.76875e-05 7.58368e-05 -0.000210777)
(9.39355e-05 7.8165e-05 -0.000230804)
(0.000122129 9.04417e-05 -0.000249153)
(-0.000145867 0.000247013 -0.00016327)
(-8.39883e-05 0.000230304 -0.000164746)
(-4.2122e-05 0.00018698 -0.000165942)
(-1.08853e-05 0.000144246 -0.000172748)
(1.42403e-05 0.000113901 -0.000183956)
(3.61166e-05 9.70867e-05 -0.000197546)
(5.87997e-05 9.34645e-05 -0.000212312)
(8.06243e-05 0.000103239 -0.000227908)
(0.000105787 0.000116885 -0.000243858)
(0.000138228 0.000131542 -0.000253517)
(-9.38626e-05 -0.000372204 -0.000209816)
(0.000961797 -1.82563e-05 -4.03284e-05)
(0.000585122 -8.29595e-06 -7.13071e-06)
(7.94482e-05 5.38103e-05 -6.93561e-05)
(3.80484e-05 0.000107377 -0.000119036)
(1.5835e-05 0.000132921 -0.000152479)
(-1.25848e-05 0.000136326 -0.000179572)
(-4.62785e-05 0.000129505 -0.000205691)
(-6.79328e-05 0.000124653 -0.000231709)
(-8.75784e-05 0.000109731 -0.000253644)
(0.00023401 0.000759625 -0.000104769)
(0.000637509 0.000385445 -4.5379e-05)
(0.000425289 -4.93779e-05 -4.12127e-05)
(0.000231474 -1.64838e-06 -7.63709e-05)
(0.000127436 6.03284e-05 -0.000111188)
(5.2878e-05 9.26275e-05 -0.000141153)
(-2.02454e-06 0.000101829 -0.000167786)
(-4.71037e-05 0.000102209 -0.00019464)
(-8.18286e-05 9.71673e-05 -0.000223628)
(-0.000122113 7.39531e-05 -0.000252306)
(0.000143648 0.000578184 -6.20848e-05)
(0.000166233 0.000306386 -6.43715e-05)
(0.000280755 0.000122837 -7.14421e-05)
(0.000242763 8.07892e-05 -8.72242e-05)
(0.000150174 7.55277e-05 -0.000109261)
(6.48501e-05 7.68823e-05 -0.000134057)
(-7.81111e-08 7.68212e-05 -0.000159072)
(-4.99148e-05 7.44824e-05 -0.000186199)
(-9.4612e-05 6.84629e-05 -0.000215806)
(-0.000154373 5.18676e-05 -0.000247185)
(8.71199e-05 0.000189135 -0.000100599)
(0.00012842 0.000243578 -9.40987e-05)
(0.000208819 0.000184045 -9.12194e-05)
(0.000194438 0.000120774 -9.63066e-05)
(0.000127145 8.08874e-05 -0.000111029)
(5.42287e-05 6.15197e-05 -0.000131877)
(-5.62998e-06 5.08929e-05 -0.000155706)
(-5.68718e-05 4.47729e-05 -0.000182249)
(-0.000106465 3.80007e-05 -0.000212157)
(-0.000175617 2.73877e-05 -0.000244499)
(0.000109603 0.000159025 -0.000131884)
(0.000121595 0.000193584 -0.000115447)
(0.000157748 0.000158829 -0.000105463)
(0.000141879 0.000105161 -0.000105779)
(9.15835e-05 6.36434e-05 -0.000116543)
(3.46192e-05 3.76917e-05 -0.000134769)
(-1.7393e-05 2.37123e-05 -0.000156831)
(-6.35308e-05 1.54179e-05 -0.000182915)
(-0.000113888 9.91728e-06 -0.000212636)
(-0.00018663 4.37252e-06 -0.000244673)
(0.000113065 0.000121163 -0.000151523)
(0.000115425 0.000129449 -0.000131742)
(0.000120863 0.000103001 -0.00011929)
(9.97801e-05 6.44663e-05 -0.000117158)
(5.96609e-05 3.07558e-05 -0.000125723)
(1.43056e-05 7.79293e-06 -0.000141539)
(-2.78119e-05 -6.73652e-06 -0.000162298)
(-7.06664e-05 -1.45634e-05 -0.000187175)
(-0.000117724 -1.83333e-05 -0.000215825)
(-0.000188416 -1.94902e-05 -0.000247456)
(0.000110084 7.58119e-05 -0.000168695)
(0.00010008 6.83059e-05 -0.000148135)
(9.51036e-05 4.76079e-05 -0.000134236)
(7.01376e-05 2.13472e-05 -0.000131563)
(3.48193e-05 -3.37587e-06 -0.0001386)
(-2.63564e-06 -2.26841e-05 -0.000153021)
(-3.90985e-05 -3.59073e-05 -0.000171757)
(-7.42793e-05 -4.35912e-05 -0.000194975)
(-0.000116905 -4.62503e-05 -0.000222653)
(-0.000181823 -4.27486e-05 -0.000252798)
(9.42363e-05 2.87831e-05 -0.000187257)
(8.85028e-05 1.98186e-05 -0.000167388)
(7.70944e-05 5.63012e-06 -0.000153644)
(4.91372e-05 -1.42269e-05 -0.000150302)
(1.53979e-05 -3.29043e-05 -0.000156772)
(-1.79971e-05 -5.03722e-05 -0.000169455)
(-4.79388e-05 -6.24481e-05 -0.000186693)
(-7.96925e-05 -7.07639e-05 -0.000208273)
(-0.000113211 -7.32135e-05 -0.000233654)
(-0.000166267 -6.64811e-05 -0.000261636)
(8.70012e-05 -5.55314e-06 -0.000208443)
(8.05851e-05 -1.42569e-05 -0.000190614)
(6.41884e-05 -3.10684e-05 -0.000177445)
(3.1641e-05 -5.01844e-05 -0.000174267)
(-1.82047e-06 -6.85991e-05 -0.00018005)
(-3.24725e-05 -8.27518e-05 -0.000191793)
(-5.91892e-05 -9.33982e-05 -0.000207349)
(-8.40168e-05 -9.8021e-05 -0.000226802)
(-0.000108997 -9.75737e-05 -0.000250071)
(-0.000146011 -8.52043e-05 -0.000273487)
(8.12231e-05 -2.60451e-05 -0.000225875)
(6.62375e-05 -5.16715e-05 -0.000214832)
(4.50245e-05 -9.08979e-05 -0.000205025)
(1.27754e-05 -0.000119934 -0.000202996)
(-1.79432e-05 -0.000136034 -0.00020819)
(-4.46584e-05 -0.000143589 -0.000218348)
(-6.54609e-05 -0.000143508 -0.000232114)
(-8.46972e-05 -0.000135093 -0.000249139)
(-9.78782e-05 -0.00012406 -0.00026821)
(-0.000121112 -0.000107302 -0.00028283)
(0.000730723 0.000475456 -0.000147392)
(0.000774587 0.000523243 1.59941e-05)
(0.000267376 0.00029259 7.7579e-05)
(-0.000172838 0.000213509 5.92433e-05)
(-9.69894e-05 0.0002034 3.88761e-05)
(-7.68948e-05 0.000196928 2.7764e-05)
(-0.000112831 0.000197732 1.77876e-05)
(-0.000165466 0.000203374 8.11672e-06)
(-0.000211075 0.000213912 3.78604e-07)
(-0.000256401 0.000209352 -7.37783e-06)
(0.000718074 0.000580169 -1.81845e-05)
(0.000424757 0.000183695 4.03169e-05)
(0.000118782 -0.000139388 6.5914e-05)
(3.58672e-06 9.22255e-06 5.35746e-05)
(-8.43765e-06 0.000101972 3.90985e-05)
(-4.48177e-05 0.000132906 2.74817e-05)
(-9.63718e-05 0.000142502 1.84342e-05)
(-0.000157256 0.000148604 1.03407e-05)
(-0.000218477 0.000150433 2.8714e-06)
(-0.000303018 0.000133831 -4.04017e-06)
(0.000429692 0.000269178 5.37821e-05)
(6.40727e-05 2.04231e-05 5.74946e-05)
(0.000118227 -1.89365e-05 5.92983e-05)
(0.000101127 5.0359e-05 5.23163e-05)
(4.02779e-05 8.76061e-05 4.06438e-05)
(-2.71923e-05 9.92493e-05 2.94406e-05)
(-9.17606e-05 0.00010065 2.04764e-05)
(-0.000154607 0.000100836 1.26507e-05)
(-0.000225871 0.000100963 5.97063e-06)
(-0.000334168 9.28774e-05 -4.14498e-07)
(0.00030663 -7.95677e-05 5.01517e-05)
(0.000144577 3.16614e-05 5.24301e-05)
(0.000160506 6.96817e-05 5.48164e-05)
(0.000120117 7.60336e-05 5.17469e-05)
(4.54633e-05 7.19904e-05 4.2646e-05)
(-2.93405e-05 6.54609e-05 3.2053e-05)
(-9.42285e-05 5.85521e-05 2.27866e-05)
(-0.000158062 5.43921e-05 1.49404e-05)
(-0.000232519 5.07022e-05 8.43281e-06)
(-0.000344408 4.84965e-05 2.39609e-06)
(0.000306799 -7.74631e-06 3.79928e-05)
(0.000199446 5.96956e-05 4.55602e-05)
(0.000166795 7.05735e-05 5.06384e-05)
(0.000107289 5.4894e-05 4.96504e-05)
(3.20039e-05 3.74554e-05 4.29495e-05)
(-3.91119e-05 2.39145e-05 3.34546e-05)
(-0.000102278 1.45028e-05 2.45012e-05)
(-0.00016325 7.61289e-06 1.64164e-05)
(-0.000236142 4.14369e-06 9.69607e-06)
(-0.000346433 1.47733e-06 4.16658e-06)
(0.000300267 -1.79716e-06 3.28891e-05)
(0.000214406 2.37413e-05 4.14814e-05)
(0.000156205 2.25445e-05 4.6437e-05)
(8.7522e-05 4.99962e-06 4.69454e-05)
(1.49512e-05 -1.23564e-05 4.16238e-05)
(-5.1556e-05 -2.59359e-05 3.3592e-05)
(-0.000110058 -3.53128e-05 2.4826e-05)
(-0.000168474 -4.07551e-05 1.67692e-05)
(-0.000239789 -4.53638e-05 1.03282e-05)
(-0.000349043 -4.90867e-05 4.59255e-06)
(0.000292961 -5.0746e-05 2.85843e-05)
(0.00021478 -4.20523e-05 3.7627e-05)
(0.000146374 -4.35745e-05 4.35773e-05)
(7.0842e-05 -5.46427e-05 4.37236e-05)
(1.16508e-07 -6.77091e-05 3.95489e-05)
(-6.21902e-05 -7.86558e-05 3.18092e-05)
(-0.000116858 -8.64786e-05 2.38786e-05)
(-0.000172682 -9.22968e-05 1.62152e-05)
(-0.000242076 -9.59721e-05 9.28726e-06)
(-0.000350113 -9.87454e-05 3.69818e-06)
(0.000286265 -0.000116848 2.48243e-05)
(0.000214113 -0.000111345 3.40754e-05)
(0.000141272 -0.000110649 3.95622e-05)
(6.10457e-05 -0.000115797 4.01756e-05)
(-1.04519e-05 -0.000123727 3.57313e-05)
(-7.08349e-05 -0.000132662 2.88791e-05)
(-0.000123722 -0.00014016 2.12729e-05)
(-0.000176892 -0.000146198 1.34952e-05)
(-0.000240887 -0.0001498 7.16585e-06)
(-0.00034325 -0.000146745 1.09315e-06)
(0.00028251 -0.000175467 2.12909e-05)
(0.00021543 -0.00017956 3.04315e-05)
(0.000140009 -0.000185679 3.54563e-05)
(5.56055e-05 -0.000190562 3.58378e-05)
(-1.81107e-05 -0.000194483 3.14661e-05)
(-7.97032e-05 -0.000199298 2.49711e-05)
(-0.00013145 -0.000205023 1.72032e-05)
(-0.000182183 -0.000208307 9.96541e-06)
(-0.000236574 -0.000207481 2.86425e-06)
(-0.000318214 -0.000191425 -2.47918e-06)
(0.000268513 -0.000235111 1.73718e-05)
(0.000203453 -0.000281162 2.5998e-05)
(0.00013371 -0.00031777 3.00542e-05)
(5.36503e-05 -0.000321791 2.99268e-05)
(-1.9848e-05 -0.000313393 2.61913e-05)
(-8.42374e-05 -0.000304836 1.99058e-05)
(-0.000137435 -0.000299814 1.2324e-05)
(-0.000183817 -0.000294255 4.37413e-06)
(-0.000222276 -0.000280134 -2.39517e-06)
(-0.000274434 -0.000249982 -7.49733e-06)
(0.0008268 0.000711176 0.000127117)
(0.000292581 0.000583412 0.000235462)
(-0.000277428 0.000248982 0.000290108)
(-0.000521 0.000146436 0.000296119)
(-0.000285154 0.000136091 0.000293748)
(-0.000183219 0.000129958 0.000294523)
(-0.000182228 0.00014071 0.00029504)
(-0.000201546 0.000162701 0.000299104)
(-0.000215214 0.00018913 0.000308394)
(-0.000213072 0.000178155 0.000316494)
(0.00063418 0.000221311 0.000225459)
(-5.08119e-05 -0.000158368 0.000250368)
(-0.000336539 -0.00030058 0.000280583)
(-0.000309721 -5.0952e-05 0.000285803)
(-0.000190961 6.96045e-05 0.00028513)
(-0.000148055 0.000103668 0.000285113)
(-0.000153085 0.000121679 0.000287347)
(-0.000179158 0.000140878 0.000293857)
(-0.000214013 0.000153618 0.000306548)
(-0.000270145 0.000143926 0.000320374)
(0.000304552 -0.000190828 0.000298748)
(-0.000224245 -0.000319464 0.000287504)
(-0.000178579 -0.000188176 0.000290331)
(-0.000137203 -1.3311e-05 0.000288284)
(-0.000123321 6.25174e-05 0.000282783)
(-0.000123286 8.58839e-05 0.000280153)
(-0.000139081 9.38342e-05 0.00028246)
(-0.000166046 0.000101039 0.00029022)
(-0.000211105 0.000108374 0.000303865)
(-0.000295073 0.000106873 0.000320533)
(0.000230974 -0.00040787 0.000319134)
(-7.34531e-06 -0.000213333 0.000303771)
(-1.96725e-05 -7.09905e-05 0.000298143)
(-5.23343e-05 1.04502e-05 0.000291465)
(-8.77535e-05 4.92587e-05 0.000283901)
(-0.0001136 6.07926e-05 0.000280064)
(-0.000135487 6.12919e-05 0.00028177)
(-0.000163155 6.10951e-05 0.000289415)
(-0.000210835 6.06865e-05 0.000303673)
(-0.000296943 6.32473e-05 0.000321283)
(0.000271767 -0.000206237 0.000323272)
(0.00011623 -9.44642e-05 0.0003097)
(5.06449e-05 -3.13151e-05 0.000300585)
(-1.37481e-05 2.0187e-06 0.000292761)
(-7.07098e-05 1.96485e-05 0.000285918)
(-0.000109175 2.47193e-05 0.000282202)
(-0.000137075 2.26263e-05 0.000283845)
(-0.000165897 1.82849e-05 0.000291295)
(-0.000211036 1.6212e-05 0.000305033)
(-0.000292074 1.60381e-05 0.000322819)
(0.000279101 -0.000115985 0.000326853)
(0.000162654 -6.80572e-05 0.000313418)
(7.65561e-05 -3.84922e-05 0.00030252)
(-1.48342e-06 -2.68226e-05 0.000294772)
(-6.46396e-05 -2.05936e-05 0.000288899)
(-0.000109682 -2.07402e-05 0.00028614)
(-0.000141108 -2.41895e-05 0.000287648)
(-0.0001691 -2.78846e-05 0.000294701)
(-0.000213489 -3.29198e-05 0.000308119)
(-0.000290901 -3.57534e-05 0.000325349)
(0.000276357 -0.000114888 0.000329162)
(0.000181784 -9.24998e-05 0.00031712)
(8.75159e-05 -7.43512e-05 0.000306729)
(1.70783e-06 -6.79279e-05 0.000299158)
(-6.57089e-05 -6.71908e-05 0.000294257)
(-0.000113019 -7.00883e-05 0.000291749)
(-0.000144441 -7.36227e-05 0.000293487)
(-0.000174748 -7.97424e-05 0.000300051)
(-0.000217802 -8.46852e-05 0.000312513)
(-0.000290581 -8.79878e-05 0.000328935)
(0.000263543 -0.000138415 0.000333135)
(0.000189734 -0.000129835 0.000323484)
(9.44973e-05 -0.000119814 0.000313916)
(2.06405e-06 -0.000115162 0.00030704)
(-6.83643e-05 -0.000116559 0.000302432)
(-0.000116944 -0.000119715 0.000300497)
(-0.000151957 -0.000127024 0.000301877)
(-0.000181122 -0.000134127 0.00030771)
(-0.000220383 -0.00014074 0.000319136)
(-0.000285779 -0.000138468 0.000333456)
(0.000246592 -0.000159773 0.000340714)
(0.000188435 -0.000173042 0.000334125)
(9.49766e-05 -0.000178763 0.000325581)
(1.04068e-06 -0.00017981 0.000319252)
(-7.18829e-05 -0.000179275 0.000315065)
(-0.000125042 -0.000182592 0.000313217)
(-0.000161813 -0.000190505 0.000314152)
(-0.000191906 -0.000198458 0.000318933)
(-0.000223279 -0.000203317 0.000328533)
(-0.000263746 -0.000186399 0.000339647)
(0.000204175 -0.00017376 0.000345523)
(0.000163871 -0.000247706 0.000345239)
(8.43604e-05 -0.000288795 0.000339162)
(2.87169e-08 -0.000288791 0.000334066)
(-7.23828e-05 -0.000278302 0.000330376)
(-0.000131382 -0.000271351 0.000328473)
(-0.000174225 -0.000273245 0.000328679)
(-0.000202742 -0.000278717 0.000331401)
(-0.000216797 -0.00027273 0.000337864)
(-0.000218696 -0.000225312 0.00034242)
(0.000607249 0.000678955 0.000144492)
(-0.000145991 0.000437959 0.000226797)
(-0.000619428 9.53039e-05 0.00030939)
(-0.000665844 2.19283e-05 0.000358593)
(-0.000329425 2.55431e-05 0.000384581)
(-0.000179115 1.98921e-05 0.00039931)
(-0.000138247 2.14102e-05 0.000406004)
(-0.000107653 3.20852e-05 0.00041297)
(-7.4295e-05 4.56128e-05 0.000421985)
(-2.24678e-05 3.39097e-05 0.00042688)
(0.000313713 -6.29226e-05 0.000217225)
(-0.000426116 -0.000360489 0.00024584)
(-0.000604541 -0.000368798 0.000309931)
(-0.000458944 -9.08104e-05 0.00035285)
(-0.00025522 1.37236e-05 0.000377189)
(-0.000155408 3.16559e-05 0.000391193)
(-0.000114914 4.64676e-05 0.000400171)
(-8.92204e-05 6.23301e-05 0.000409676)
(-7.65821e-05 7.09285e-05 0.000423217)
(-7.79287e-05 5.66134e-05 0.000433992)
(2.93975e-05 -0.000463575 0.000308566)
(-0.000453538 -0.00047443 0.000311283)
(-0.000373032 -0.00025037 0.000340386)
(-0.000281736 -4.71744e-05 0.000362654)
(-0.000205435 2.48066e-05 0.000375585)
(-0.000140564 4.05765e-05 0.000385262)
(-0.000101388 4.61646e-05 0.000394366)
(-7.94403e-05 5.12243e-05 0.000405453)
(-7.85585e-05 5.21228e-05 0.000419838)
(-0.000108204 4.2325e-05 0.000433468)
(2.83234e-05 -0.000564041 0.000363574)
(-0.000169182 -0.000324621 0.000356205)
(-0.000171797 -0.000142007 0.000364126)
(-0.000181355 -3.41471e-05 0.000371639)
(-0.00016544 2.03855e-05 0.00037722)
(-0.00013109 3.697e-05 0.000383817)
(-0.000100304 3.83135e-05 0.000392192)
(-7.92565e-05 3.55966e-05 0.000403268)
(-8.30995e-05 3.01796e-05 0.000418218)
(-0.000117106 2.40317e-05 0.000432696)
(0.000105442 -0.00029539 0.000391907)
(-2.44873e-05 -0.000170863 0.000380017)
(-7.94711e-05 -9.17457e-05 0.000376611)
(-0.000117929 -3.43087e-05 0.000377157)
(-0.000132625 4.61304e-06 0.000379833)
(-0.000120355 2.04089e-05 0.000384894)
(-0.000100005 2.20954e-05 0.000392742)
(-8.49137e-05 1.77106e-05 0.000403766)
(-8.87059e-05 1.15373e-05 0.000418278)
(-0.000118261 6.28366e-06 0.000432652)
(0.000122176 -0.000165029 0.000407489)
(3.08133e-05 -0.000111059 0.000393267)
(-3.66308e-05 -6.78941e-05 0.000384429)
(-8.58688e-05 -3.74014e-05 0.000381951)
(-0.000110447 -1.39616e-05 0.000383456)
(-0.000112532 -2.71001e-06 0.000387986)
(-0.0001018 -8.34674e-07 0.000395372)
(-8.86149e-05 -3.74888e-06 0.000405965)
(-9.34785e-05 -9.26447e-06 0.000419977)
(-0.000118146 -1.30542e-05 0.000433811)
(0.000123515 -0.000132087 0.000414088)
(6.11826e-05 -0.000101641 0.000400866)
(-1.09066e-05 -7.0506e-05 0.000391182)
(-6.66084e-05 -4.96649e-05 0.000387771)
(-9.89959e-05 -3.5378e-05 0.000389023)
(-0.000107584 -2.78409e-05 0.000393333)
(-0.00010156 -2.58298e-05 0.0004004)
(-9.37856e-05 -2.83419e-05 0.000410249)
(-9.76934e-05 -3.22387e-05 0.000423563)
(-0.000114577 -3.26953e-05 0.000436364)
(0.000108751 -0.000114573 0.000417993)
(7.87992e-05 -0.000102315 0.000408212)
(7.67793e-06 -8.16033e-05 0.000399201)
(-5.43215e-05 -6.76606e-05 0.000396212)
(-9.00665e-05 -5.73694e-05 0.000397766)
(-0.000103963 -5.16839e-05 0.000402294)
(-0.000104021 -5.07015e-05 0.000408719)
(-9.69422e-05 -5.3117e-05 0.000417925)
(-9.9051e-05 -5.54963e-05 0.000429803)
(-0.000104735 -4.94945e-05 0.000440493)
(8.93696e-05 -9.3274e-05 0.00042254)
(8.25142e-05 -0.000105619 0.000417351)
(1.50701e-05 -0.000105032 0.000410601)
(-4.63662e-05 -9.87445e-05 0.000408595)
(-8.42865e-05 -9.0127e-05 0.000411004)
(-0.000102283 -8.41029e-05 0.000415474)
(-0.000106051 -8.1666e-05 0.000421766)
(-0.000102508 -8.2047e-05 0.000429441)
(-9.85259e-05 -8.06071e-05 0.000439743)
(-8.22099e-05 -6.22232e-05 0.000446637)
(5.02134e-05 -5.68724e-05 0.000421101)
(6.00191e-05 -0.000129058 0.000424385)
(7.41352e-06 -0.000159138 0.000422019)
(-4.2357e-05 -0.000154767 0.000422613)
(-7.64016e-05 -0.000141087 0.000425608)
(-9.74944e-05 -0.000126659 0.00043038)
(-0.000106384 -0.000114842 0.000435836)
(-0.000101396 -0.000104078 0.000441593)
(-8.63494e-05 -8.54542e-05 0.000447957)
(-3.80508e-05 -3.77833e-05 0.000447669)
(0.000347936 0.000508282 3.10406e-05)
(-0.000385095 0.000234216 0.000104087)
(-0.000694876 -4.30233e-05 0.000208512)
(-0.000622929 -6.46167e-05 0.000284736)
(-0.00029452 -3.82187e-05 0.000324108)
(-0.000174643 -3.30907e-05 0.000340229)
(-0.000147486 -2.2895e-05 0.000342091)
(-0.000109415 -4.81179e-06 0.000338938)
(-5.94942e-05 1.61396e-05 0.000333812)
(1.56601e-06 1.42774e-05 0.000323611)
(6.39523e-05 -0.000223173 8.23483e-05)
(-0.000558105 -0.000401701 0.000125176)
(-0.000627463 -0.000332143 0.000215941)
(-0.000442719 -8.14512e-05 0.000283104)
(-0.000243121 -1.25954e-05 0.000320653)
(-0.000154071 -7.03762e-06 0.000337568)
(-0.000116254 1.39614e-05 0.000342583)
(-7.94994e-05 3.90553e-05 0.000342823)
(-5.3924e-05 5.66033e-05 0.000341464)
(-5.75835e-05 4.82572e-05 0.000334854)
(-0.000127782 -0.000526367 0.000180613)
(-0.000493093 -0.00045244 0.000203954)
(-0.000396859 -0.000214817 0.000255346)
(-0.000305324 -4.1516e-05 0.000295692)
(-0.000221408 4.06565e-06 0.000320323)
(-0.000144207 1.08844e-05 0.000334157)
(-9.56348e-05 2.03631e-05 0.000339932)
(-6.26896e-05 3.15232e-05 0.000341629)
(-5.12673e-05 3.58958e-05 0.00034163)
(-8.13016e-05 2.84694e-05 0.000336672)
(-6.89582e-05 -0.000550619 0.000255598)
(-0.000209153 -0.000312316 0.000263968)
(-0.000214527 -0.000144944 0.000286652)
(-0.000223793 -4.93612e-05 0.000307319)
(-0.000190074 1.05098e-06 0.00032256)
(-0.000135536 1.69374e-05 0.000332846)
(-9.14735e-05 2.13493e-05 0.000338229)
(-5.9137e-05 2.21103e-05 0.000340405)
(-5.42861e-05 1.82223e-05 0.000340709)
(-8.42886e-05 1.18597e-05 0.000336488)
(2.43443e-05 -0.000292713 0.000298693)