/*--------------------------------*- C++ -*----------------------------------*\
| =========                 |                                                 |
| \\      /  F ield         | OpenFOAM: The Open Source CFD Toolbox           |
|  \\    /   O peration     | Version:  2406                                  |
|   \\  /    A nd           | Website:  www.openfoam.com                      |
|    \\/     M anipulation  |                                                 |
\*---------------------------------------------------------------------------*/
FoamFile
{
    version     2.0;
    format      ascii;
    arch        "LSB;label=32;scalar=64";
    class       volScalarField;
    location    "450";
    object      nuTilda;
}
// * * * * * * * * * * * * * * * * * * * * * * * * * * * * * * * * * * * * * //

dimensions      [0 2 -1 0 0 0 0];

internalField   nonuniform List<scalar> 
25000
(
3.96612e-05
3.97392e-05
3.9788e-05
3.98122e-05
3.98228e-05
3.98228e-05
3.98122e-05
3.97884e-05
3.97433e-05
3.96613e-05
3.97431e-05
3.98126e-05
3.98518e-05
3.98735e-05
3.9884e-05
3.9884e-05
3.98738e-05
3.98615e-05
3.98128e-05
3.97394e-05
3.97883e-05
3.98614e-05
3.98941e-05
3.99084e-05
3.99183e-05
3.99183e-05
3.99097e-05
3.98942e-05
3.98519e-05
3.97881e-05
3.98122e-05
3.98737e-05
3.99097e-05
3.99298e-05
3.99382e-05
3.9939e-05
3.99299e-05
3.99085e-05
3.98735e-05
3.98123e-05
3.98228e-05
3.9884e-05
3.99183e-05
3.9939e-05
3.99514e-05
3.99515e-05
3.99382e-05
3.99183e-05
3.9884e-05
3.98228e-05
3.98228e-05
3.9884e-05
3.99183e-05
3.99382e-05
3.99515e-05
3.99515e-05
3.99382e-05
3.99183e-05
3.9884e-05
3.98228e-05
3.98123e-05
3.98735e-05
3.99085e-05
3.99299e-05
3.99391e-05
3.99391e-05
3.99299e-05
3.99085e-05
3.98735e-05
3.98123e-05
3.97881e-05
3.98519e-05
3.98942e-05
3.99097e-05
3.99183e-05
3.99183e-05
3.99097e-05
3.98942e-05
3.98519e-05
3.97881e-05
3.97394e-05
3.98128e-05
3.98615e-05
3.98738e-05
3.9884e-05
3.9884e-05
3.98738e-05
3.98615e-05
3.98128e-05
3.97394e-05
3.96613e-05
3.97433e-05
3.97884e-05
3.98122e-05
3.98228e-05
3.98228e-05
3.98122e-05
3.97884e-05
3.97433e-05
3.96613e-05
3.89621e-05
3.921e-05
3.9358e-05
3.9433e-05
3.94656e-05
3.94656e-05
3.9433e-05
3.93596e-05
3.92202e-05
3.89621e-05
3.92199e-05
3.94355e-05
3.95544e-05
3.96197e-05
3.96512e-05
3.96512e-05
3.96213e-05
3.95797e-05
3.94357e-05
3.92103e-05
3.93595e-05
3.95796e-05
3.96806e-05
3.97256e-05
3.97546e-05
3.97549e-05
3.97292e-05
3.96808e-05
3.95545e-05
3.93581e-05
3.94329e-05
3.96212e-05
3.97291e-05
3.97892e-05
3.98149e-05
3.98171e-05
3.97893e-05
3.97257e-05
3.96198e-05
3.9433e-05
3.94656e-05
3.96512e-05
3.97548e-05
3.9817e-05
3.98536e-05
3.98537e-05
3.98149e-05
3.97547e-05
3.96512e-05
3.94656e-05
3.94656e-05
3.96512e-05
3.97546e-05
3.9815e-05
3.98537e-05
3.98537e-05
3.98149e-05
3.97547e-05
3.96512e-05
3.94656e-05
3.9433e-05
3.96198e-05
3.97257e-05
3.97893e-05
3.98172e-05
3.98172e-05
3.97893e-05
3.97257e-05
3.96198e-05
3.9433e-05
3.93581e-05
3.95545e-05
3.96808e-05
3.97292e-05
3.97549e-05
3.97549e-05
3.97292e-05
3.96808e-05
3.95545e-05
3.93581e-05
3.92103e-05
3.94357e-05
3.95797e-05
3.96213e-05
3.96512e-05
3.96512e-05
3.96213e-05
3.95797e-05
3.94357e-05
3.92103e-05
3.89621e-05
3.92202e-05
3.93596e-05
3.9433e-05
3.94656e-05
3.94656e-05
3.9433e-05
3.93596e-05
3.92202e-05
3.89621e-05
3.82543e-05
3.86786e-05
3.89261e-05
3.90532e-05
3.91084e-05
3.91084e-05
3.90533e-05
3.89295e-05
3.86933e-05
3.82541e-05
3.8693e-05
3.90584e-05
3.92578e-05
3.93667e-05
3.94188e-05
3.94189e-05
3.937e-05
3.92954e-05
3.90587e-05
3.86788e-05
3.89293e-05
3.92953e-05
3.94665e-05
3.95439e-05
3.95915e-05
3.9592e-05
3.95494e-05
3.94666e-05
3.92579e-05
3.89262e-05
3.90532e-05
3.93699e-05
3.95493e-05
3.96489e-05
3.96922e-05
3.96954e-05
3.96489e-05
3.9544e-05
3.93667e-05
3.90532e-05
3.91084e-05
3.94189e-05
3.95919e-05
3.96954e-05
3.97553e-05
3.97554e-05
3.96921e-05
3.95915e-05
3.94188e-05
3.91084e-05
3.91084e-05
3.94188e-05
3.95915e-05
3.96922e-05
3.97554e-05
3.97554e-05
3.96921e-05
3.95915e-05
3.94188e-05
3.91084e-05
3.90532e-05
3.93667e-05
3.9544e-05
3.96489e-05
3.96956e-05
3.96956e-05
3.96489e-05
3.9544e-05
3.93667e-05
3.90532e-05
3.89262e-05
3.92579e-05
3.94666e-05
3.95494e-05
3.9592e-05
3.9592e-05
3.95494e-05
3.94666e-05
3.92579e-05
3.89262e-05
3.86789e-05
3.90587e-05
3.92954e-05
3.937e-05
3.94189e-05
3.94189e-05
3.937e-05
3.92954e-05
3.90587e-05
3.86789e-05
3.82541e-05
3.86933e-05
3.89294e-05
3.90533e-05
3.91084e-05
3.91084e-05
3.90533e-05
3.89295e-05
3.86933e-05
3.82541e-05
3.75514e-05
3.8149e-05
3.84952e-05
3.86748e-05
3.87529e-05
3.87529e-05
3.86751e-05
3.85006e-05
3.81674e-05
3.7551e-05
3.8167e-05
3.86828e-05
3.89627e-05
3.91148e-05
3.91873e-05
3.91876e-05
3.91201e-05
3.90102e-05
3.86832e-05
3.81493e-05
3.85005e-05
3.901e-05
3.92522e-05
3.93633e-05
3.94289e-05
3.94298e-05
3.93704e-05
3.92523e-05
3.89628e-05
3.84954e-05
3.86751e-05
3.912e-05
3.93703e-05
3.95088e-05
3.95699e-05
3.95739e-05
3.95089e-05
3.93634e-05
3.91149e-05
3.86748e-05
3.87529e-05
3.91875e-05
3.94297e-05
3.95739e-05
3.96564e-05
3.96564e-05
3.95697e-05
3.94289e-05
3.91873e-05
3.87529e-05
3.87529e-05
3.91873e-05
3.94289e-05
3.95699e-05
3.96565e-05
3.96565e-05
3.95697e-05
3.94289e-05
3.91873e-05
3.87529e-05
3.86748e-05
3.91149e-05
3.93634e-05
3.95089e-05
3.95743e-05
3.95743e-05
3.95089e-05
3.93634e-05
3.91149e-05
3.86748e-05
3.84954e-05
3.89628e-05
3.92523e-05
3.93704e-05
3.94299e-05
3.94299e-05
3.93704e-05
3.92523e-05
3.89628e-05
3.84954e-05
3.81494e-05
3.86832e-05
3.90102e-05
3.91201e-05
3.91876e-05
3.91876e-05
3.91201e-05
3.90102e-05
3.86832e-05
3.81493e-05
3.75511e-05
3.81674e-05
3.85006e-05
3.86751e-05
3.87529e-05
3.87529e-05
3.86751e-05
3.85006e-05
3.81674e-05
3.7551e-05
3.68624e-05
3.76242e-05
3.80674e-05
3.82991e-05
3.84e-05
3.84e-05
3.82998e-05
3.8075e-05
3.76458e-05
3.68623e-05
3.76452e-05
3.83092e-05
3.86691e-05
3.88642e-05
3.89568e-05
3.89573e-05
3.88715e-05
3.87248e-05
3.83099e-05
3.76248e-05
3.80747e-05
3.87244e-05
3.90377e-05
3.91834e-05
3.92668e-05
3.92681e-05
3.91921e-05
3.9038e-05
3.86693e-05
3.80676e-05
3.82997e-05
3.88713e-05
3.91919e-05
3.93689e-05
3.94478e-05
3.94525e-05
3.9369e-05
3.91835e-05
3.88643e-05
3.82992e-05
3.84e-05
3.89572e-05
3.9268e-05
3.94524e-05
3.95568e-05
3.95568e-05
3.94474e-05
3.92668e-05
3.89568e-05
3.84e-05
3.84e-05
3.89568e-05
3.92669e-05
3.94478e-05
3.95569e-05
3.95569e-05
3.94474e-05
3.92668e-05
3.89568e-05
3.84e-05
3.82992e-05
3.88643e-05
3.91835e-05
3.9369e-05
3.9453e-05
3.9453e-05
3.9369e-05
3.91835e-05
3.88643e-05
3.82992e-05
3.80676e-05
3.86693e-05
3.9038e-05
3.91921e-05
3.92682e-05
3.92682e-05
3.91921e-05
3.9038e-05
3.86694e-05
3.80677e-05
3.76248e-05
3.83099e-05
3.87248e-05
3.88716e-05
3.89573e-05
3.89573e-05
3.88716e-05
3.87248e-05
3.83099e-05
3.76248e-05
3.68623e-05
3.76458e-05
3.80751e-05
3.82998e-05
3.84001e-05
3.84e-05
3.82998e-05
3.8075e-05
3.76458e-05
3.68623e-05
3.61888e-05
3.71047e-05
3.76426e-05
3.79262e-05
3.80497e-05
3.80498e-05
3.79273e-05
3.76526e-05
3.71289e-05
3.61891e-05
3.7128e-05
3.79373e-05
3.83767e-05
3.86146e-05
3.8727e-05
3.87278e-05
3.8624e-05
3.84392e-05
3.79384e-05
3.71055e-05
3.76521e-05
3.84386e-05
3.88229e-05
3.9004e-05
3.9105e-05
3.91066e-05
3.90141e-05
3.88234e-05
3.83772e-05
3.76431e-05
3.79271e-05
3.86237e-05
3.90138e-05
3.92289e-05
3.93256e-05
3.93309e-05
3.9229e-05
3.90042e-05
3.86148e-05
3.79264e-05
3.80498e-05
3.87277e-05
3.91065e-05
3.93307e-05
3.94563e-05
3.94564e-05
3.93251e-05
3.91049e-05
3.87271e-05
3.80498e-05
3.80497e-05
3.87271e-05
3.9105e-05
3.93256e-05
3.94564e-05
3.94564e-05
3.93251e-05
3.9105e-05
3.87271e-05
3.80498e-05
3.79263e-05
3.86148e-05
3.90042e-05
3.92291e-05
3.93315e-05
3.93315e-05
3.92291e-05
3.90042e-05
3.86149e-05
3.79264e-05
3.76431e-05
3.83772e-05
3.88234e-05
3.90141e-05
3.91068e-05
3.91068e-05
3.90141e-05
3.88234e-05
3.83772e-05
3.76431e-05
3.71055e-05
3.79384e-05
3.84393e-05
3.86241e-05
3.87279e-05
3.87279e-05
3.86241e-05
3.84393e-05
3.79384e-05
3.71055e-05
3.61891e-05
3.71289e-05
3.76527e-05
3.79274e-05
3.80499e-05
3.80499e-05
3.79274e-05
3.76527e-05
3.71289e-05
3.61892e-05
3.55274e-05
3.65888e-05
3.72194e-05
3.75544e-05
3.77006e-05
3.77007e-05
3.7556e-05
3.72316e-05
3.66151e-05
3.55279e-05
3.66141e-05
3.75659e-05
3.80846e-05
3.83654e-05
3.84975e-05
3.84986e-05
3.83769e-05
3.81528e-05
3.75674e-05
3.65897e-05
3.72309e-05
3.81519e-05
3.86075e-05
3.88246e-05
3.89431e-05
3.89451e-05
3.8836e-05
3.86081e-05
3.80854e-05
3.722e-05
3.75558e-05
3.83764e-05
3.88355e-05
3.90886e-05
3.92031e-05
3.92089e-05
3.90888e-05
3.88249e-05
3.83657e-05
3.75546e-05
3.77007e-05
3.84985e-05
3.89449e-05
3.92087e-05
3.9355e-05
3.93551e-05
3.92026e-05
3.8943e-05
3.84975e-05
3.77007e-05
3.77006e-05
3.84975e-05
3.89431e-05
3.92032e-05
3.93552e-05
3.93552e-05
3.92026e-05
3.8943e-05
3.84975e-05
3.77007e-05
3.75546e-05
3.83657e-05
3.88249e-05
3.90889e-05
3.92097e-05
3.92097e-05
3.90889e-05
3.8825e-05
3.83657e-05
3.75546e-05
3.722e-05
3.80853e-05
3.86081e-05
3.8836e-05
3.89454e-05
3.89455e-05
3.8836e-05
3.86081e-05
3.80854e-05
3.722e-05
3.65897e-05
3.75674e-05
3.81528e-05
3.83769e-05
3.84988e-05
3.84988e-05
3.83769e-05
3.81528e-05
3.75674e-05
3.65897e-05
3.55279e-05
3.66151e-05
3.72317e-05
3.75561e-05
3.77009e-05
3.77009e-05
3.75561e-05
3.72317e-05
3.66151e-05
3.55279e-05
3.48781e-05
3.60762e-05
3.67966e-05
3.71825e-05
3.73515e-05
3.73518e-05
3.71848e-05
3.6811e-05
3.61041e-05
3.48788e-05
3.61029e-05
3.71943e-05
3.77921e-05
3.81159e-05
3.82677e-05
3.82692e-05
3.81294e-05
3.78649e-05
3.71961e-05
3.60771e-05
3.68101e-05
3.78637e-05
3.8391e-05
3.86449e-05
3.87809e-05
3.87833e-05
3.86575e-05
3.83919e-05
3.77931e-05
3.67973e-05
3.71844e-05
3.81287e-05
3.86569e-05
3.89479e-05
3.90803e-05
3.90864e-05
3.89483e-05
3.86454e-05
3.81163e-05
3.71828e-05
3.73517e-05
3.8269e-05
3.8783e-05
3.90862e-05
3.92528e-05
3.92529e-05
3.90796e-05
3.87808e-05
3.82677e-05
3.73516e-05
3.73516e-05
3.82677e-05
3.87809e-05
3.90804e-05
3.9253e-05
3.9253e-05
3.90796e-05
3.87808e-05
3.82677e-05
3.73516e-05
3.71828e-05
3.81163e-05
3.86454e-05
3.89484e-05
3.90874e-05
3.90874e-05
3.89484e-05
3.86454e-05
3.81163e-05
3.71828e-05
3.67972e-05
3.77931e-05
3.83919e-05
3.86576e-05
3.87838e-05
3.87838e-05
3.86576e-05
3.83919e-05
3.77931e-05
3.67973e-05
3.60771e-05
3.71961e-05
3.78649e-05
3.81294e-05
3.82695e-05
3.82695e-05
3.81294e-05
3.78649e-05
3.71961e-05
3.60771e-05
3.48787e-05
3.6104e-05
3.6811e-05
3.71849e-05
3.73519e-05
3.73519e-05
3.71849e-05
3.6811e-05
3.61041e-05
3.48788e-05
3.4246e-05
3.55683e-05
3.63748e-05
3.68108e-05
3.70024e-05
3.70028e-05
3.68137e-05
3.63911e-05
3.55975e-05
3.42467e-05
3.55963e-05
3.68226e-05
3.74991e-05
3.7866e-05
3.80375e-05
3.80394e-05
3.78815e-05
3.75757e-05
3.68247e-05
3.55692e-05
3.639e-05
3.75742e-05
3.81735e-05
3.84649e-05
3.86184e-05
3.86212e-05
3.84786e-05
3.81746e-05
3.75004e-05
3.63755e-05
3.68132e-05
3.78806e-05
3.84778e-05
3.88068e-05
3.8957e-05
3.89635e-05
3.88073e-05
3.84655e-05
3.78665e-05
3.6811e-05
3.70026e-05
3.80391e-05
3.86208e-05
3.89632e-05
3.91498e-05
3.91499e-05
3.89563e-05
3.86182e-05
3.80375e-05
3.70025e-05
3.70024e-05
3.80375e-05
3.86184e-05
3.89571e-05
3.91501e-05
3.91501e-05
3.89563e-05
3.86182e-05
3.80375e-05
3.70025e-05
3.6811e-05
3.78665e-05
3.84655e-05
3.88074e-05
3.89647e-05
3.89647e-05
3.88074e-05
3.84655e-05
3.78665e-05
3.6811e-05
3.63754e-05
3.75004e-05
3.81746e-05
3.84786e-05
3.86218e-05
3.86218e-05
3.84787e-05
3.81746e-05
3.75004e-05
3.63755e-05
3.55692e-05
3.68247e-05
3.75757e-05
3.78815e-05
3.80397e-05
3.80397e-05
3.78815e-05
3.75757e-05
3.68247e-05
3.55692e-05
3.42466e-05
3.55974e-05
3.63911e-05
3.68137e-05
3.70029e-05
3.70029e-05
3.68137e-05
3.63911e-05
3.55974e-05
3.42466e-05
3.36409e-05
3.50684e-05
3.59555e-05
3.644e-05
3.66539e-05
3.66544e-05
3.64436e-05
3.59735e-05
3.50985e-05
3.36414e-05
3.50973e-05
3.64518e-05
3.7206e-05
3.76158e-05
3.7807e-05
3.78093e-05
3.76331e-05
3.72855e-05
3.64541e-05
3.50692e-05
3.59724e-05
3.72838e-05
3.79552e-05
3.82846e-05
3.84556e-05
3.84588e-05
3.82993e-05
3.79565e-05
3.72074e-05
3.59562e-05
3.6443e-05
3.76321e-05
3.82983e-05
3.86653e-05
3.88334e-05
3.88402e-05
3.86659e-05
3.82853e-05
3.76165e-05
3.64403e-05
3.66542e-05
3.78089e-05
3.84583e-05
3.88398e-05
3.90461e-05
3.90462e-05
3.88326e-05
3.84553e-05
3.78069e-05
3.66539e-05
3.66539e-05
3.7807e-05
3.84556e-05
3.88335e-05
3.90464e-05
3.90464e-05
3.88326e-05
3.84553e-05
3.78069e-05
3.66539e-05
3.64402e-05
3.76164e-05
3.82852e-05
3.8666e-05
3.88415e-05
3.88415e-05
3.8666e-05
3.82853e-05
3.76165e-05
3.64402e-05
3.59561e-05
3.72074e-05
3.79565e-05
3.82993e-05
3.84595e-05
3.84595e-05
3.82994e-05
3.79565e-05
3.72074e-05
3.59561e-05
3.50692e-05
3.6454e-05
3.72855e-05
3.76332e-05
3.78097e-05
3.78097e-05
3.76332e-05
3.72855e-05
3.64541e-05
3.50692e-05
3.36413e-05
3.50984e-05
3.59735e-05
3.64436e-05
3.66544e-05
3.66544e-05
3.64436e-05
3.59735e-05
3.50985e-05
3.36413e-05
3.30759e-05
3.45804e-05
3.55405e-05
3.60714e-05
3.6307e-05
3.63075e-05
3.60757e-05
3.55601e-05
3.46112e-05
3.30763e-05
3.46101e-05
3.60828e-05
3.6913e-05
3.73656e-05
3.75764e-05
3.7579e-05
3.73846e-05
3.69949e-05
3.60852e-05
3.45811e-05
3.5559e-05
3.6993e-05
3.77363e-05
3.8104e-05
3.82925e-05
3.82961e-05
3.81196e-05
3.77378e-05
3.69146e-05
3.55412e-05
3.60751e-05
3.73835e-05
3.81185e-05
3.85235e-05
3.87094e-05
3.87164e-05
3.85241e-05
3.81048e-05
3.73663e-05
3.60717e-05
3.63073e-05
3.75786e-05
3.82956e-05
3.8716e-05
3.89416e-05
3.89418e-05
3.87085e-05
3.82922e-05
3.75762e-05
3.63069e-05
3.63069e-05
3.75764e-05
3.82925e-05
3.87095e-05
3.8942e-05
3.8942e-05
3.87085e-05
3.82922e-05
3.75762e-05
3.63069e-05
3.60716e-05
3.73663e-05
3.81047e-05
3.85243e-05
3.87179e-05
3.87179e-05
3.85243e-05
3.81048e-05
3.73663e-05
3.60716e-05
3.55412e-05
3.69146e-05
3.77378e-05
3.81197e-05
3.82969e-05
3.82969e-05
3.81197e-05
3.77378e-05
3.69146e-05
3.55412e-05
3.45811e-05
3.60852e-05
3.69949e-05
3.73846e-05
3.75795e-05
3.75795e-05
3.73846e-05
3.69949e-05
3.60852e-05
3.45811e-05
3.30762e-05
3.46112e-05
3.55601e-05
3.60757e-05
3.63076e-05
3.63076e-05
3.60757e-05
3.55601e-05
3.46111e-05
3.30762e-05
3.25742e-05
3.41103e-05
3.51324e-05
3.57065e-05
3.59628e-05
3.59635e-05
3.57115e-05
3.51535e-05
3.41417e-05
3.25744e-05
3.41406e-05
3.57171e-05
3.66208e-05
3.71156e-05
3.73457e-05
3.73488e-05
3.71361e-05
3.67046e-05
3.57196e-05
3.41109e-05
3.51523e-05
3.67025e-05
3.7517e-05
3.79232e-05
3.81293e-05
3.81332e-05
3.79396e-05
3.75186e-05
3.66225e-05
3.51331e-05
3.57109e-05
3.71349e-05
3.79384e-05
3.83814e-05
3.85851e-05
3.85923e-05
3.83821e-05
3.7924e-05
3.71164e-05
3.57068e-05
3.59632e-05
3.73483e-05
3.81326e-05
3.85918e-05
3.88366e-05
3.88367e-05
3.85841e-05
3.81289e-05
3.73455e-05
3.59627e-05
3.59627e-05
3.73457e-05
3.81293e-05
3.85852e-05
3.8837e-05
3.8837e-05
3.85841e-05
3.81289e-05
3.73455e-05
3.59627e-05
3.57068e-05
3.71163e-05
3.7924e-05
3.83824e-05
3.85939e-05
3.85939e-05
3.83823e-05
3.79241e-05
3.71164e-05
3.57068e-05
3.51331e-05
3.66224e-05
3.75186e-05
3.79397e-05
3.81341e-05
3.81342e-05
3.79398e-05
3.75186e-05
3.66224e-05
3.51331e-05
3.41109e-05
3.57196e-05
3.67045e-05
3.71362e-05
3.73494e-05
3.73494e-05
3.71362e-05
3.67045e-05
3.57196e-05
3.41109e-05
3.25743e-05
3.41416e-05
3.51534e-05
3.57115e-05
3.59636e-05
3.59636e-05
3.57115e-05
3.51534e-05
3.41416e-05
3.25743e-05
3.21681e-05
3.36661e-05
3.47342e-05
3.53471e-05
3.56227e-05
3.56236e-05
3.53527e-05
3.47566e-05
3.36979e-05
3.2168e-05
3.3697e-05
3.53564e-05
3.63298e-05
3.68661e-05
3.71154e-05
3.71188e-05
3.6888e-05
3.64151e-05
3.5359e-05
3.36666e-05
3.47554e-05
3.64129e-05
3.72975e-05
3.77423e-05
3.79659e-05
3.79702e-05
3.77594e-05
3.72992e-05
3.63315e-05
3.47349e-05
3.53521e-05
3.68867e-05
3.77582e-05
3.82391e-05
3.84605e-05
3.84678e-05
3.82398e-05
3.77432e-05
3.68669e-05
3.53473e-05
3.56233e-05
3.71183e-05
3.79695e-05
3.84673e-05
3.87309e-05
3.87311e-05
3.84593e-05
3.79654e-05
3.7115e-05
3.56225e-05
3.56226e-05
3.71154e-05
3.79659e-05
3.84606e-05
3.87314e-05
3.87314e-05
3.84594e-05
3.79654e-05
3.7115e-05
3.56225e-05
3.53473e-05
3.68669e-05
3.77432e-05
3.82401e-05
3.84695e-05
3.84696e-05
3.82401e-05
3.77432e-05
3.68669e-05
3.53473e-05
3.47349e-05
3.63315e-05
3.72992e-05
3.77596e-05
3.79712e-05
3.79713e-05
3.77596e-05
3.72993e-05
3.63315e-05
3.47349e-05
3.36666e-05
3.53589e-05
3.6415e-05
3.6888e-05
3.71195e-05
3.71195e-05
3.6888e-05
3.64151e-05
3.53589e-05
3.36666e-05
3.2168e-05
3.36979e-05
3.47565e-05
3.53527e-05
3.56237e-05
3.56237e-05
3.53527e-05
3.47565e-05
3.36979e-05
3.2168e-05
3.19184e-05
3.32616e-05
3.43503e-05
3.49952e-05
3.52883e-05
3.52893e-05
3.50015e-05
3.43738e-05
3.32939e-05
3.19179e-05
3.3293e-05
3.50031e-05
3.60407e-05
3.66173e-05
3.68855e-05
3.68893e-05
3.66404e-05
3.61272e-05
3.50056e-05
3.32621e-05
3.43726e-05
3.6125e-05
3.7078e-05
3.75613e-05
3.78024e-05
3.7807e-05
3.75791e-05
3.70799e-05
3.60425e-05
3.43509e-05
3.50009e-05
3.66391e-05
3.75778e-05
3.80965e-05
3.83355e-05
3.8343e-05
3.80973e-05
3.75622e-05
3.66181e-05
3.49955e-05
3.52891e-05
3.68887e-05
3.78063e-05
3.83425e-05
3.86247e-05
3.86249e-05
3.83343e-05
3.78018e-05
3.6885e-05
3.52881e-05
3.52883e-05
3.68855e-05
3.78025e-05
3.83357e-05
3.86252e-05
3.86252e-05
3.83344e-05
3.78018e-05
3.6885e-05
3.52881e-05
3.49955e-05
3.66181e-05
3.75623e-05
3.80976e-05
3.83449e-05
3.83449e-05
3.80976e-05
3.75623e-05
3.66181e-05
3.49955e-05
3.43509e-05
3.60425e-05
3.70798e-05
3.75793e-05
3.78082e-05
3.78082e-05
3.75793e-05
3.70799e-05
3.60425e-05
3.43509e-05
3.32621e-05
3.50056e-05
3.61271e-05
3.66405e-05
3.68901e-05
3.68901e-05
3.66405e-05
3.61271e-05
3.50056e-05
3.32621e-05
3.19179e-05
3.32938e-05
3.43737e-05
3.50015e-05
3.52895e-05
3.52895e-05
3.50015e-05
3.43737e-05
3.32938e-05
3.19179e-05
3.19063e-05
3.29174e-05
3.39868e-05
3.4654e-05
3.49618e-05
3.4963e-05
3.4661e-05
3.40113e-05
3.29498e-05
3.19053e-05
3.2949e-05
3.46606e-05
3.57543e-05
3.63696e-05
3.66562e-05
3.66604e-05
3.63939e-05
3.58417e-05
3.46629e-05
3.29177e-05
3.40103e-05
3.58395e-05
3.68588e-05
3.73803e-05
3.76389e-05
3.76437e-05
3.73988e-05
3.68607e-05
3.57561e-05
3.39874e-05
3.46604e-05
3.63925e-05
3.73974e-05
3.79538e-05
3.82103e-05
3.82179e-05
3.79545e-05
3.73813e-05
3.63704e-05
3.46543e-05
3.49627e-05
3.66598e-05
3.76431e-05
3.82173e-05
3.8518e-05
3.85181e-05
3.8209e-05
3.76381e-05
3.66557e-05
3.49615e-05
3.49617e-05
3.66562e-05
3.76389e-05
3.82105e-05
3.85185e-05
3.85185e-05
3.8209e-05
3.76381e-05
3.66557e-05
3.49615e-05
3.46543e-05
3.63705e-05
3.73813e-05
3.7955e-05
3.82199e-05
3.82199e-05
3.79548e-05
3.73813e-05
3.63704e-05
3.46542e-05
3.39875e-05
3.57561e-05
3.68607e-05
3.7399e-05
3.76451e-05
3.76451e-05
3.7399e-05
3.68607e-05
3.57561e-05
3.39874e-05
3.29177e-05
3.46629e-05
3.58417e-05
3.6394e-05
3.66613e-05
3.66613e-05
3.6394e-05
3.58416e-05
3.46629e-05
3.29176e-05
3.19053e-05
3.29497e-05
3.40113e-05
3.4661e-05
3.49632e-05
3.49632e-05
3.4661e-05
3.40113e-05
3.29497e-05
3.19052e-05
3.22791e-05
3.26675e-05
3.36546e-05
3.4328e-05
3.46462e-05
3.46475e-05
3.43356e-05
3.368e-05
3.27001e-05
3.22778e-05
3.26994e-05
3.4334e-05
3.54718e-05
3.61234e-05
3.64279e-05
3.64324e-05
3.61487e-05
3.55598e-05
3.43362e-05
3.26676e-05
3.3679e-05
3.55577e-05
3.664e-05
3.71994e-05
3.74753e-05
3.74805e-05
3.72184e-05
3.66419e-05
3.54736e-05
3.36551e-05
3.4335e-05
3.61473e-05
3.7217e-05
3.78108e-05
3.80848e-05
3.80925e-05
3.78116e-05
3.72004e-05
3.61242e-05
3.43282e-05
3.46473e-05
3.64318e-05
3.74798e-05
3.80919e-05
3.84108e-05
3.84108e-05
3.80834e-05
3.74745e-05
3.64272e-05
3.46459e-05
3.46462e-05
3.64279e-05
3.74754e-05
3.8085e-05
3.84113e-05
3.84113e-05
3.80834e-05
3.74745e-05
3.64272e-05
3.46459e-05
3.43283e-05
3.61243e-05
3.72005e-05
3.78121e-05
3.80946e-05
3.80946e-05
3.78119e-05
3.72004e-05
3.61242e-05
3.43282e-05
3.36552e-05
3.54736e-05
3.66419e-05
3.72186e-05
3.7482e-05
3.7482e-05
3.72186e-05
3.66419e-05
3.54735e-05
3.36551e-05
3.26677e-05
3.43362e-05
3.55598e-05
3.61488e-05
3.64335e-05
3.64335e-05
3.61488e-05
3.55598e-05
3.43362e-05
3.26676e-05
3.22778e-05
3.27e-05
3.368e-05
3.43356e-05
3.46478e-05
3.46478e-05
3.43356e-05
3.36799e-05
3.27e-05
3.22777e-05
3.31976e-05
3.25651e-05
3.33697e-05
3.40246e-05
3.43463e-05
3.43479e-05
3.40328e-05
3.33959e-05
3.25979e-05
3.31958e-05
3.25972e-05
3.40315e-05
3.51948e-05
3.58792e-05
3.62008e-05
3.62056e-05
3.59053e-05
3.52833e-05
3.40336e-05
3.25651e-05
3.3395e-05
3.52813e-05
3.6422e-05
3.70187e-05
3.73118e-05
3.73172e-05
3.7038e-05
3.64238e-05
3.51966e-05
3.33702e-05
3.40322e-05
3.5904e-05
3.70367e-05
3.76677e-05
3.7959e-05
3.79668e-05
3.76684e-05
3.70196e-05
3.588e-05
3.40248e-05
3.43476e-05
3.62051e-05
3.73165e-05
3.79662e-05
3.8303e-05
3.83031e-05
3.79575e-05
3.73108e-05
3.62e-05
3.4346e-05
3.43463e-05
3.62008e-05
3.73119e-05
3.79593e-05
3.83036e-05
3.83036e-05
3.79576e-05
3.73108e-05
3.62e-05
3.4346e-05
3.40249e-05
3.58801e-05
3.70197e-05
3.7669e-05
3.79691e-05
3.79691e-05
3.76688e-05
3.70196e-05
3.588e-05
3.40248e-05
3.33702e-05
3.51966e-05
3.64239e-05
3.70383e-05
3.73188e-05
3.73189e-05
3.70384e-05
3.64239e-05
3.51965e-05
3.33702e-05
3.25652e-05
3.40336e-05
3.52833e-05
3.59055e-05
3.62068e-05
3.62068e-05
3.59055e-05
3.52833e-05
3.40336e-05
3.25651e-05
3.31959e-05
3.25978e-05
3.33959e-05
3.40328e-05
3.43482e-05
3.43482e-05
3.40327e-05
3.33958e-05
3.25978e-05
3.31957e-05
3.49062e-05
3.26827e-05
3.31571e-05
3.37548e-05
3.40696e-05
3.40712e-05
3.37635e-05
3.3184e-05
3.27157e-05
3.49051e-05
3.27147e-05
3.37666e-05
3.4926e-05
3.56379e-05
3.59753e-05
3.59804e-05
3.56648e-05
3.50149e-05
3.37686e-05
3.26826e-05
3.31831e-05
3.50129e-05
3.62051e-05
3.68381e-05
3.71483e-05
3.71539e-05
3.68579e-05
3.62069e-05
3.49277e-05
3.31574e-05
3.3763e-05
3.56634e-05
3.68565e-05
3.75245e-05
3.7833e-05
3.78408e-05
3.75251e-05
3.6839e-05
3.56386e-05
3.3755e-05
3.40711e-05
3.59799e-05
3.71532e-05
3.78403e-05
3.81949e-05
3.81949e-05
3.78314e-05
3.71471e-05
3.59744e-05
3.40691e-05
3.40696e-05
3.59754e-05
3.71484e-05
3.78333e-05
3.81955e-05
3.81954e-05
3.78315e-05
3.71472e-05
3.59744e-05
3.40691e-05
3.37551e-05
3.56387e-05
3.68392e-05
3.75258e-05
3.78432e-05
3.78432e-05
3.75256e-05
3.6839e-05
3.56386e-05
3.3755e-05
3.31575e-05
3.49278e-05
3.6207e-05
3.68582e-05
3.71557e-05
3.71557e-05
3.68583e-05
3.6207e-05
3.49277e-05
3.31575e-05
3.26827e-05
3.37686e-05
3.50149e-05
3.5665e-05
3.59818e-05
3.59818e-05
3.5665e-05
3.50149e-05
3.37685e-05
3.26826e-05
3.49052e-05
3.27155e-05
3.3184e-05
3.37636e-05
3.40717e-05
3.40717e-05
3.37635e-05
3.31838e-05
3.27156e-05
3.4905e-05
3.75522e-05
3.31281e-05
3.30543e-05
3.35353e-05
3.38269e-05
3.38287e-05
3.35446e-05
3.30818e-05
3.31613e-05
3.75515e-05
3.31599e-05
3.35586e-05
3.46696e-05
3.54005e-05
3.57521e-05
3.57575e-05
3.54281e-05
3.47587e-05
3.35605e-05
3.31278e-05
3.30809e-05
3.47567e-05
3.59899e-05
3.66579e-05
3.69849e-05
3.69907e-05
3.6678e-05
3.59917e-05
3.46712e-05
3.30545e-05
3.35441e-05
3.54268e-05
3.66767e-05
3.73811e-05
3.77067e-05
3.77146e-05
3.73817e-05
3.66587e-05
3.54012e-05
3.35355e-05
3.38285e-05
3.57569e-05
3.699e-05
3.77141e-05
3.80863e-05
3.80863e-05
3.7705e-05
3.69836e-05
3.5751e-05
3.38264e-05
3.38269e-05
3.57521e-05
3.6985e-05
3.7707e-05
3.80869e-05
3.80868e-05
3.77051e-05
3.69836e-05
3.5751e-05
3.38264e-05
3.35356e-05
3.54014e-05
3.6659e-05
3.73825e-05
3.77171e-05
3.77171e-05
3.73822e-05
3.66588e-05
3.54012e-05
3.35355e-05
3.30547e-05
3.46713e-05
3.59918e-05
3.66784e-05
3.69927e-05
3.69927e-05
3.66784e-05
3.59918e-05
3.46712e-05
3.30547e-05
3.31281e-05
3.35606e-05
3.47587e-05
3.54283e-05
3.5759e-05
3.5759e-05
3.54283e-05
3.47587e-05
3.35605e-05
3.31279e-05
3.75516e-05
3.31611e-05
3.30818e-05
3.35447e-05
3.38293e-05
3.38292e-05
3.35446e-05
3.30816e-05
3.31612e-05
3.75513e-05
4.14333e-05
3.40269e-05
3.31149e-05
3.33931e-05
3.36366e-05
3.36386e-05
3.34028e-05
3.3143e-05
3.40607e-05
4.14388e-05
3.40584e-05
3.3438e-05
3.44317e-05
3.5169e-05
3.5532e-05
3.55376e-05
3.51972e-05
3.4521e-05
3.344e-05
3.40267e-05
3.3142e-05
3.4519e-05
3.57773e-05
3.64782e-05
3.68216e-05
3.68276e-05
3.64986e-05
3.57791e-05
3.44334e-05
3.3115e-05
3.34023e-05
3.5196e-05
3.64973e-05
3.72376e-05
3.75802e-05
3.75881e-05
3.72382e-05
3.6479e-05
3.51697e-05
3.33931e-05
3.36385e-05
3.55371e-05
3.6827e-05
3.75877e-05
3.79773e-05
3.79772e-05
3.75784e-05
3.68202e-05
3.55308e-05
3.36361e-05
3.36367e-05
3.5532e-05
3.68218e-05
3.75806e-05
3.7978e-05
3.79778e-05
3.75786e-05
3.68202e-05
3.55308e-05
3.36361e-05
3.33933e-05
3.51699e-05
3.64793e-05
3.7239e-05
3.75908e-05
3.75908e-05
3.72388e-05
3.64791e-05
3.51697e-05
3.33932e-05
3.31152e-05
3.44334e-05
3.57792e-05
3.64991e-05
3.68298e-05
3.68298e-05
3.64991e-05
3.57792e-05
3.44334e-05
3.31153e-05
3.40272e-05
3.344e-05
3.4521e-05
3.51975e-05
3.55393e-05
3.55393e-05
3.51975e-05
3.4521e-05
3.34399e-05
3.40268e-05
4.14387e-05
3.40604e-05
3.31429e-05
3.34029e-05
3.36393e-05
3.36392e-05
3.34028e-05
3.31426e-05
3.40603e-05
4.14385e-05
4.65689e-05
3.55566e-05
3.34216e-05
3.33646e-05
3.35237e-05
3.35259e-05
3.33748e-05
3.34501e-05
3.55912e-05
4.65747e-05
3.55878e-05
3.34472e-05
3.42224e-05
3.49464e-05
3.53166e-05
3.53225e-05
3.49752e-05
3.43117e-05
3.34492e-05
3.55566e-05
3.34489e-05
3.43097e-05
3.55685e-05
3.62992e-05
3.66586e-05
3.66648e-05
3.632e-05
3.55703e-05
3.4224e-05
3.34215e-05
3.33743e-05
3.4974e-05
3.63187e-05
3.70941e-05
3.74536e-05
3.74615e-05
3.70947e-05
3.63e-05
3.49471e-05
3.33646e-05
3.35258e-05
3.5322e-05
3.66641e-05
3.7461e-05
3.78678e-05
3.78678e-05
3.74516e-05
3.66571e-05
3.53153e-05
3.35231e-05
3.35238e-05
3.53166e-05
3.66588e-05
3.74539e-05
3.78686e-05
3.78684e-05
3.74518e-05
3.66571e-05
3.53153e-05
3.35231e-05
3.33648e-05
3.49473e-05
3.63003e-05
3.70956e-05
3.74643e-05
3.74643e-05
3.70952e-05
3.63001e-05
3.49471e-05
3.33648e-05
3.34218e-05
3.4224e-05
3.55704e-05
3.63205e-05
3.66671e-05
3.66671e-05
3.63205e-05
3.55704e-05
3.4224e-05
3.34219e-05
3.55573e-05
3.34492e-05
3.43117e-05
3.49756e-05
3.53243e-05
3.53243e-05
3.49756e-05
3.43117e-05
3.34491e-05
3.55568e-05
4.65747e-05
3.55908e-05
3.345e-05
3.3375e-05
3.35266e-05
3.35265e-05
3.33747e-05
3.34495e-05
3.55906e-05
4.65743e-05
5.26462e-05
3.78798e-05
3.40642e-05
3.35045e-05
3.35261e-05
3.35284e-05
3.35152e-05
3.4093e-05
3.79155e-05
5.26521e-05
3.79106e-05
3.36514e-05
3.40572e-05
3.47375e-05
3.51083e-05
3.51145e-05
3.47668e-05
3.41466e-05
3.36535e-05
3.78801e-05
3.40915e-05
3.41446e-05
3.53658e-05
3.61214e-05
3.6496e-05
3.65023e-05
3.61424e-05
3.53675e-05
3.40587e-05
3.40639e-05
3.35146e-05
3.47656e-05
3.61411e-05
3.69506e-05
3.73267e-05
3.73346e-05
3.69511e-05
3.61221e-05
3.47381e-05
3.35043e-05
3.35282e-05
3.51139e-05
3.65017e-05
3.73342e-05
3.77581e-05
3.7758e-05
3.73247e-05
3.64943e-05
3.51069e-05
3.35253e-05
3.35261e-05
3.51084e-05
3.64961e-05
3.7327e-05
3.77588e-05
3.77586e-05
3.73248e-05
3.64943e-05
3.51069e-05
3.35253e-05
3.35046e-05
3.47384e-05
3.61225e-05
3.69521e-05
3.73375e-05
3.73375e-05
3.69517e-05
3.61222e-05
3.47381e-05
3.35047e-05
3.40643e-05
3.40588e-05
3.53676e-05
3.6143e-05
3.65048e-05
3.65048e-05
3.61429e-05
3.53676e-05
3.40588e-05
3.40645e-05
3.7881e-05
3.36535e-05
3.41466e-05
3.47672e-05
3.51164e-05
3.51164e-05
3.47672e-05
3.41466e-05
3.36534e-05
3.78806e-05
5.26524e-05
3.79152e-05
3.4093e-05
3.35153e-05
3.35291e-05
3.3529e-05
3.35149e-05
3.40923e-05
3.79148e-05
5.26518e-05
5.93989e-05
4.09792e-05
3.51658e-05
3.3886e-05
3.37005e-05
3.37029e-05
3.38971e-05
3.51952e-05
4.10173e-05
5.94064e-05
4.10104e-05
3.4108e-05
3.39561e-05
3.45497e-05
3.49112e-05
3.49175e-05
3.45794e-05
3.40455e-05
3.41102e-05
4.09805e-05
3.51928e-05
3.40436e-05
3.5172e-05
3.59453e-05
3.63339e-05
3.63403e-05
3.59665e-05
3.51736e-05
3.39575e-05
3.51655e-05
3.38964e-05
3.45783e-05
3.59653e-05
3.68072e-05
3.71996e-05
3.72076e-05
3.68076e-05
3.5946e-05
3.45501e-05
3.38857e-05
3.37028e-05
3.49171e-05
3.63397e-05
3.72072e-05
3.76479e-05
3.76478e-05
3.71975e-05
3.6332e-05
3.49096e-05
3.36995e-05
3.37004e-05
3.49113e-05
3.6334e-05
3.72e-05
3.76487e-05
3.76484e-05
3.71977e-05
3.6332e-05
3.49096e-05
3.36997e-05
3.3886e-05
3.45505e-05
3.59465e-05
3.68087e-05
3.72106e-05
3.72106e-05
3.68083e-05
3.59461e-05
3.45502e-05
3.38862e-05
3.51659e-05
3.39576e-05
3.51738e-05
3.59672e-05
3.63429e-05
3.63429e-05
3.59671e-05
3.51737e-05
3.39576e-05
3.51665e-05
4.09812e-05
3.41102e-05
3.40455e-05
3.45799e-05
3.49196e-05
3.49196e-05
3.45798e-05
3.40454e-05
3.41101e-05
4.09813e-05
5.94062e-05
4.10166e-05
3.5195e-05
3.38973e-05
3.37037e-05
3.37036e-05
3.38968e-05
3.51942e-05
4.10165e-05
5.94065e-05
6.66009e-05
4.53201e-05
3.68682e-05
3.45977e-05
3.41076e-05
3.41103e-05
3.46094e-05
3.68983e-05
4.53605e-05
6.66116e-05
4.53506e-05
3.49384e-05
3.39517e-05
3.43943e-05
3.47316e-05
3.47381e-05
3.44245e-05
3.40411e-05
3.49411e-05
4.53232e-05
3.68946e-05
3.40393e-05
3.4992e-05
3.57719e-05
3.61726e-05
3.61792e-05
3.57933e-05
3.49935e-05
3.3953e-05
3.68683e-05
3.46083e-05
3.44234e-05
3.57921e-05
3.6664e-05
3.70725e-05
3.70804e-05
3.66644e-05
3.57725e-05
3.43946e-05
3.45975e-05
3.411e-05
3.47377e-05
3.61787e-05
3.70801e-05
3.75375e-05
3.75373e-05
3.70703e-05
3.61706e-05
3.47298e-05
3.41066e-05
3.41075e-05
3.47317e-05
3.61728e-05
3.70729e-05
3.75383e-05
3.7538e-05
3.70705e-05
3.61707e-05
3.47298e-05
3.41068e-05
3.45976e-05
3.43952e-05
3.57731e-05
3.66656e-05
3.70836e-05
3.70835e-05
3.66651e-05
3.57726e-05
3.43947e-05
3.45982e-05
3.68682e-05
3.39533e-05
3.49938e-05
3.5794e-05
3.6182e-05
3.6182e-05
3.57939e-05
3.49936e-05
3.39531e-05
3.68695e-05
4.53227e-05
3.4941e-05
3.40413e-05
3.4425e-05
3.47404e-05
3.47403e-05
3.44249e-05
3.40411e-05
3.4941e-05
4.53239e-05
6.66093e-05
4.53584e-05
3.68977e-05
3.46095e-05
3.41111e-05
3.41109e-05
3.46087e-05
3.68967e-05
4.5359e-05
6.6611e-05
7.40459e-05
5.06171e-05
3.92435e-05
3.57498e-05
3.4846e-05
3.48489e-05
3.57621e-05
3.92743e-05
5.06578e-05
7.40595e-05
5.06453e-05
3.62496e-05
3.40831e-05
3.4287e-05
3.45791e-05
3.45858e-05
3.43177e-05
3.41729e-05
3.6253e-05
5.06221e-05
3.9269e-05
3.41708e-05
3.48326e-05
3.56027e-05
3.60128e-05
3.60195e-05
3.56241e-05
3.4834e-05
3.40844e-05
3.92443e-05
3.57604e-05
3.43165e-05
3.5623e-05
3.65211e-05
3.69452e-05
3.69531e-05
3.65214e-05
3.56031e-05
3.42873e-05
3.57496e-05
3.48485e-05
3.45854e-05
3.6019e-05
3.69528e-05
3.74267e-05
3.74264e-05
3.69429e-05
3.60107e-05
3.45771e-05
3.4845e-05