/*--------------------------------*- C++ -*----------------------------------*\
| =========                 |                                                 |
| \\      /  F ield         | OpenFOAM: The Open Source CFD Toolbox           |
|  \\    /   O peration     | Version:  2406                                  |
|   \\  /    A nd           | Website:  www.openfoam.com                      |
|    \\/     M anipulation  |                                                 |
\*---------------------------------------------------------------------------*/
FoamFile
{
    version     2.0;
    format      ascii;
    arch        "LSB;label=32;scalar=64";
    class       volScalarField;
    location    "450";
    object      p;
}
// * * * * * * * * * * * * * * * * * * * * * * * * * * * * * * * * * * * * * //

dimensions      [0 2 -2 0 0 0 0];

internalField   nonuniform List<scalar> 
25000
(
9.29962e-05
-0.00071381
-0.00137036
-0.00181574
-0.00203716
-0.00203201
-0.00179923
-0.00133851
-0.000650996
0.000256987
-0.000722507
-0.00173823
-0.00249811
-0.00300593
-0.00325736
-0.00325205
-0.00298879
-0.00246585
-0.00168474
-0.000649248
-0.00138056
-0.00250269
-0.00333394
-0.00388594
-0.00415905
-0.00415433
-0.00387124
-0.00330775
-0.0024636
-0.0013346
-0.00182529
-0.00301223
-0.00388879
-0.0044678
-0.00475417
-0.00475031
-0.00445592
-0.0038683
-0.00298363
-0.00179261
-0.00204626
-0.00326447
-0.00416337
-0.00475609
-0.00504924
-0.00504612
-0.00474667
-0.00414759
-0.00324294
-0.00202176
-0.00204049
-0.00325913
-0.00415952
-0.00475344
-0.00504754
-0.00504506
-0.004746
-0.00414718
-0.00324269
-0.00202162
-0.00180726
-0.00299586
-0.00387674
-0.00445986
-0.00474907
-0.00474711
-0.00445394
-0.00386708
-0.00298288
-0.00179219
-0.00134612
-0.00247268
-0.0033134
-0.00387262
-0.00415064
-0.00414907
-0.00386794
-0.00330569
-0.00246234
-0.00133387
-0.000658295
-0.00169123
-0.0024691
-0.00298798
-0.00324625
-0.00324499
-0.0029843
-0.00246297
-0.0016829
-0.000648145
0.000250123
-0.000655259
-0.0013397
-0.00179676
-0.00202502
-0.00202406
-0.00179388
-0.00133489
-0.000648595
0.000258527
-0.0173665
-0.0172697
-0.0171892
-0.0171121
-0.0170719
-0.0170727
-0.0171149
-0.0171981
-0.0173165
-0.0174575
-0.0172615
-0.0170986
-0.0170359
-0.0169959
-0.0169763
-0.016978
-0.017002
-0.0170524
-0.0171357
-0.0173161
-0.0171803
-0.0170313
-0.0169732
-0.016948
-0.0169383
-0.0169399
-0.016954
-0.0169867
-0.0170522
-0.0171974
-0.0171062
-0.0169913
-0.0169462
-0.016932
-0.016929
-0.0169302
-0.016936
-0.0169541
-0.0170018
-0.0171142
-0.0170688
-0.0169735
-0.0169367
-0.0169286
-0.0169291
-0.0169297
-0.0169307
-0.0169406
-0.0169782
-0.0170723
-0.0170717
-0.0169768
-0.0169394
-0.0169301
-0.0169299
-0.0169301
-0.0169309
-0.0169407
-0.0169784
-0.0170725
-0.0171154
-0.0170024
-0.0169545
-0.0169367
-0.0169313
-0.0169313
-0.0169365
-0.0169544
-0.0170021
-0.0171146
-0.0171997
-0.0170539
-0.0169882
-0.0169555
-0.0169418
-0.0169416
-0.0169549
-0.0169872
-0.0170527
-0.0171981
-0.017319
-0.0171381
-0.0170546
-0.017004
-0.0169801
-0.0169797
-0.017003
-0.0170531
-0.0171363
-0.0173169
-0.0174606
-0.0173192
-0.0172005
-0.017117
-0.0170747
-0.0170743
-0.0171158
-0.0171988
-0.0173172
-0.0174583
-0.0365113
-0.0362325
-0.0359837
-0.0358141
-0.035731
-0.0357316
-0.0358144
-0.0359722
-0.0362083
-0.0364967
-0.0362316
-0.0358931
-0.035621
-0.0354303
-0.0353363
-0.0353363
-0.0354288
-0.0356118
-0.0358721
-0.0362094
-0.0359849
-0.0356217
-0.0353408
-0.0351371
-0.035033
-0.0350327
-0.0351348
-0.0353345
-0.0356132
-0.0359746
-0.0358157
-0.0354318
-0.0351379
-0.03493
-0.0348231
-0.0348229
-0.0349291
-0.0351362
-0.0354315
-0.0358182
-0.0357313
-0.0353371
-0.0350339
-0.0348235
-0.0347157
-0.0347159
-0.034824
-0.0350352
-0.0353403
-0.0357368
-0.0357309
-0.0353366
-0.0350332
-0.0348234
-0.034716
-0.0347164
-0.0348246
-0.0350357
-0.0353408
-0.0357371
-0.035813
-0.0354284
-0.035135
-0.0349294
-0.0348242
-0.0348246
-0.0349308
-0.0351377
-0.0354327
-0.0358192
-0.0359703
-0.035611
-0.0353344
-0.0351363
-0.0350353
-0.0350357
-0.0351377
-0.035337
-0.0356152
-0.0359762
-0.0362061
-0.0358709
-0.0356128
-0.0354314
-0.0353403
-0.0353407
-0.0354327
-0.0356151
-0.0358747
-0.0362116
-0.0364944
-0.036208
-0.0359738
-0.0358177
-0.0357364
-0.0357368
-0.035819
-0.0359761
-0.0362115
-0.0364994
-0.0479057
-0.0477467
-0.0476069
-0.0475272
-0.047488
-0.0474869
-0.0475251
-0.0475962
-0.0477172
-0.0478685
-0.0477537
-0.0475808
-0.0474258
-0.0473244
-0.0472754
-0.0472738
-0.0473193
-0.0474135
-0.0475552
-0.0477183
-0.0476181
-0.0474314
-0.0472803
-0.04717
-0.047115
-0.0471131
-0.0471635
-0.0472672
-0.0474142
-0.0475981
-0.047538
-0.0473321
-0.0471735
-0.0470604
-0.0470032
-0.0470015
-0.0470549
-0.0471637
-0.0473203
-0.0475274
-0.0474965
-0.0472826
-0.0471196
-0.0470051
-0.0469468
-0.0469455
-0.0470011
-0.0471128
-0.0472745
-0.0474889
-0.0474934
-0.0472799
-0.0471175
-0.0470041
-0.0469465
-0.0469456
-0.0470013
-0.0471131
-0.0472748
-0.0474892
-0.0475299
-0.047324
-0.0471673
-0.0470574
-0.0470024
-0.0470018
-0.0470557
-0.0471646
-0.0473212
-0.0475281
-0.0475995
-0.0474169
-0.0472701
-0.0471657
-0.0471138
-0.0471135
-0.0471647
-0.0472686
-0.0474155
-0.0475993
-0.0477193
-0.0475573
-0.0474158
-0.0473213
-0.0472748
-0.0472747
-0.0473209
-0.0474152
-0.047557
-0.0477199
-0.0478697
-0.0477192
-0.0475984
-0.047527
-0.0474882
-0.0474882
-0.0475271
-0.0475984
-0.0477194
-0.0478706
-0.0539617
-0.0538706
-0.0537954
-0.0537627
-0.0537461
-0.0537465
-0.0537668
-0.053801
-0.0538678
-0.0539512
-0.0538762
-0.0537689
-0.0536726
-0.0536178
-0.0535913
-0.0535915
-0.0536192
-0.0536747
-0.0537676
-0.0538685
-0.0538032
-0.0536766
-0.0535769
-0.0535107
-0.0534796
-0.0534793
-0.0535099
-0.0535745
-0.053675
-0.053802
-0.053769
-0.0536224
-0.0535126
-0.0534397
-0.0534053
-0.053405
-0.0534385
-0.05351
-0.0536198
-0.0537681
-0.0537505
-0.0535948
-0.0534815
-0.0534059
-0.0533696
-0.0533694
-0.0534048
-0.0534793
-0.0535922
-0.053748
-0.0537494
-0.0535938
-0.0534806
-0.0534053
-0.0533693
-0.0533692
-0.0534048
-0.0534793
-0.0535921
-0.053748
-0.0537682
-0.0536202
-0.0535102
-0.0534383
-0.0534045
-0.0534045
-0.0534383
-0.0535099
-0.0536197
-0.0537679
-0.0538011
-0.0536745
-0.0535738
-0.053509
-0.0534784
-0.0534786
-0.0535095
-0.0535743
-0.0536749
-0.0538018
-0.0538668
-0.0537662
-0.0536732
-0.0536178
-0.0535905
-0.0535909
-0.0536189
-0.0536745
-0.0537676
-0.0538684
-0.0539492
-0.0538661
-0.0537992
-0.0537653
-0.0537457
-0.0537462
-0.0537667
-0.0538011
-0.0538681
-0.0539513
-0.0581169
-0.0580963
-0.0580796
-0.0580839
-0.0580854
-0.0580865
-0.0580906
-0.058093
-0.0581087
-0.0581236
-0.0580979
-0.0580659
-0.0580332
-0.0580207
-0.0580136
-0.0580147
-0.0580254
-0.0580428
-0.0580786
-0.0581083
-0.0580802
-0.0580336
-0.0579933
-0.057969
-0.0579579
-0.0579586
-0.0579718
-0.0579978
-0.058042
-0.0580916
-0.0580818
-0.0580193
-0.057968
-0.0579349
-0.0579197
-0.0579204
-0.057937
-0.0579711
-0.0580239
-0.0580885
-0.0580815
-0.0580101
-0.0579552
-0.0579182
-0.0579011
-0.0579017
-0.0579199
-0.0579574
-0.0580129
-0.0580842
-0.0580815
-0.0580099
-0.0579544
-0.0579173
-0.0579002
-0.0579008
-0.0579192
-0.0579568
-0.0580123
-0.0580836
-0.0580848
-0.0580196
-0.0579664
-0.0579327
-0.0579171
-0.0579179
-0.0579347
-0.057969
-0.0580221
-0.0580868
-0.0580865
-0.0580363
-0.0579915
-0.0579658
-0.0579536
-0.0579545
-0.0579681
-0.0579945
-0.0580392
-0.0580889
-0.0581017
-0.0580713
-0.0580351
-0.0580179
-0.0580084
-0.0580093
-0.0580205
-0.0580386
-0.0580749
-0.0581048
-0.0581159
-0.0581004
-0.0580842
-0.0580822
-0.0580794
-0.0580804
-0.058085
-0.0580881
-0.0581045
-0.0581197
-0.0622436
-0.0622627
-0.0622784
-0.0623012
-0.0623119
-0.0623136
-0.0623099
-0.0622974
-0.062287
-0.0622663
-0.062261
-0.0622819
-0.0622962
-0.0623133
-0.0623205
-0.0623223
-0.0623206
-0.0623113
-0.0623045
-0.0622856
-0.0622738
-0.0622939
-0.0623059
-0.0623177
-0.0623242
-0.0623259
-0.0623235
-0.0623158
-0.0623098
-0.0622946
-0.0622934
-0.062308
-0.0623149
-0.0623219
-0.0623266
-0.0623282
-0.0623269
-0.0623226
-0.0623183
-0.0623064
-0.0623028
-0.062313
-0.062319
-0.0623239
-0.0623278
-0.0623292
-0.062328
-0.0623248
-0.0623201
-0.0623103
-0.0623043
-0.0623139
-0.0623191
-0.0623236
-0.0623271
-0.0623283
-0.0623271
-0.062324
-0.0623195
-0.0623097
-0.0623006
-0.0623118
-0.062316
-0.0623212
-0.0623245
-0.0623256
-0.0623243
-0.0623203
-0.0623164
-0.0623048
-0.0622885
-0.0623026
-0.0623081
-0.0623164
-0.0623205
-0.0623215
-0.0623193
-0.062312
-0.0623066
-0.0622919
-0.0622786
-0.0622962
-0.0623023
-0.0623121
-0.0623156
-0.0623166
-0.0623149
-0.0623061
-0.0623001
-0.0622818
-0.0622583
-0.0622777
-0.0622876
-0.0623006
-0.062306
-0.0623068
-0.0623031
-0.0622912
-0.0622815
-0.0622615
-0.0669761
-0.0669954
-0.0670121
-0.0670319
-0.0670408
-0.0670429
-0.0670415
-0.0670334
-0.0670256
-0.0670084
-0.0669931
-0.0670188
-0.0670401
-0.0670594
-0.0670677
-0.0670699
-0.0670677
-0.0670571
-0.0670449
-0.0670241
-0.0670067
-0.0670372
-0.0670584
-0.0670761
-0.0670855
-0.0670878
-0.0670836
-0.0670709
-0.0670561
-0.0670313
-0.0670238
-0.0670535
-0.067073
-0.0670893
-0.0670984
-0.0671005
-0.067096
-0.0670834
-0.0670668
-0.06704
-0.0670319
-0.06706
-0.0670802
-0.0670957
-0.0671047
-0.0671066
-0.0671012
-0.0670883
-0.06707
-0.0670428
-0.0670339
-0.0670616
-0.0670811
-0.0670961
-0.0671046
-0.0671061
-0.0671007
-0.0670878
-0.0670697
-0.0670426
-0.0670323
-0.067059
-0.0670764
-0.0670906
-0.067098
-0.0670994
-0.0670946
-0.0670822
-0.0670658
-0.0670392
-0.0670243
-0.0670486
-0.0670636
-0.0670779
-0.0670846
-0.0670858
-0.0670814
-0.0670688
-0.0670544
-0.06703
-0.0670169
-0.067037
-0.0670493
-0.0670615
-0.0670663
-0.0670674
-0.0670647
-0.0670542
-0.0670425
-0.0670221
-0.0670003
-0.0670167
-0.0670251
-0.0670351
-0.0670393
-0.0670403
-0.0670381
-0.0670298
-0.0670223
-0.0670057
-0.0722146
-0.0722243
-0.072234
-0.0722455
-0.0722497
-0.0722514
-0.072253
-0.0722513
-0.0722507
-0.0722449
-0.072222
-0.0722374
-0.0722512
-0.0722628
-0.0722673
-0.0722692
-0.0722698
-0.0722654
-0.0722601
-0.0722504
-0.0722288
-0.0722483
-0.0722611
-0.0722723
-0.0722783
-0.0722804
-0.0722795
-0.072273
-0.0722658
-0.072252
-0.0722387
-0.0722576
-0.0722697
-0.0722806
-0.0722866
-0.0722888
-0.0722874
-0.0722804
-0.0722715
-0.0722557
-0.0722429
-0.0722611
-0.0722739
-0.0722845
-0.0722906
-0.0722925
-0.0722903
-0.0722829
-0.0722729
-0.0722564
-0.0722445
-0.0722627
-0.0722751
-0.0722854
-0.072291
-0.0722927
-0.0722904
-0.0722831
-0.0722731
-0.0722566
-0.072246
-0.072263
-0.0722738
-0.0722833
-0.0722879
-0.0722894
-0.0722877
-0.0722808
-0.0722721
-0.0722565
-0.0722441
-0.0722588
-0.0722674
-0.0722762
-0.0722801
-0.0722814
-0.0722802
-0.0722737
-0.0722668
-0.0722533
-0.0722437
-0.0722539
-0.0722607
-0.0722675
-0.07227
-0.0722711
-0.0722711
-0.0722664
-0.0722613
-0.072252
-0.0722384
-0.0722447
-0.0722473
-0.072252
-0.0722534
-0.0722545
-0.0722551
-0.0722527
-0.0722519
-0.0722464
-0.0777074
-0.0777103
-0.0777141
-0.0777189
-0.0777193
-0.0777201
-0.077723
-0.0777248
-0.0777281
-0.0777296
-0.0777085
-0.0777157
-0.0777219
-0.0777267
-0.0777278
-0.0777289
-0.0777308
-0.0777307
-0.0777307
-0.0777289
-0.0777107
-0.0777199
-0.0777248
-0.0777299
-0.0777323
-0.0777337
-0.0777347
-0.077733
-0.0777321
-0.0777275
-0.0777152
-0.0777236
-0.0777283
-0.0777336
-0.0777364
-0.0777379
-0.0777385
-0.0777363
-0.0777342
-0.0777284
-0.0777164
-0.0777247
-0.07773
-0.0777353
-0.0777381
-0.0777395
-0.0777396
-0.0777371
-0.0777343
-0.0777279
-0.0777174
-0.0777258
-0.077731
-0.0777361
-0.0777387
-0.07774
-0.0777401
-0.0777375
-0.0777348
-0.0777285
-0.07772
-0.0777275
-0.0777318
-0.0777363
-0.0777383
-0.0777394
-0.0777399
-0.0777377
-0.0777357
-0.07773
-0.0777212
-0.0777273
-0.0777301
-0.077734
-0.0777354
-0.0777364
-0.0777372
-0.0777354
-0.0777346
-0.0777302
-0.0777243
-0.0777275
-0.0777295
-0.0777319
-0.0777324
-0.0777332
-0.0777346
-0.0777341
-0.077734
-0.0777324
-0.0777259
-0.0777259
-0.0777249
-0.0777259
-0.0777256
-0.0777264
-0.0777284
-0.0777292
-0.0777321
-0.0777335
-0.083286
-0.0832845
-0.0832841
-0.0832844
-0.0832826
-0.0832827
-0.0832857
-0.0832887
-0.0832935
-0.0832983
-0.083284
-0.0832852
-0.0832856
-0.0832856
-0.0832845
-0.0832848
-0.0832871
-0.0832892
-0.0832923
-0.0832949
-0.0832836
-0.0832851
-0.0832841
-0.0832846
-0.0832846
-0.0832852
-0.083287
-0.083288
-0.083291
-0.0832923
-0.0832849
-0.0832854
-0.0832844
-0.0832854
-0.0832858
-0.0832865
-0.0832881
-0.0832888
-0.083291
-0.0832917
-0.0832845
-0.083285
-0.0832846
-0.0832857
-0.0832861
-0.0832868
-0.0832881
-0.0832886
-0.0832905
-0.0832909
-0.0832851
-0.0832858
-0.0832854
-0.0832865
-0.0832868
-0.0832874
-0.0832887
-0.0832892
-0.0832911
-0.0832915
-0.0832879
-0.0832882
-0.0832874
-0.0832881
-0.083288
-0.0832886
-0.0832901
-0.0832908
-0.0832929
-0.0832936
-0.0832905
-0.0832902
-0.0832885
-0.0832889
-0.0832883
-0.0832889
-0.0832905
-0.0832913
-0.0832942
-0.0832955
-0.0832949
-0.0832933
-0.0832916
-0.083291
-0.0832901
-0.0832905
-0.0832922
-0.0832938
-0.0832966
-0.0832992
-0.0832996
-0.0832959
-0.0832928
-0.0832915
-0.0832901
-0.0832904
-0.0832925
-0.0832946
-0.0832987
-0.0833033
-0.0888735
-0.0888698
-0.0888671
-0.0888652
-0.0888628
-0.0888626
-0.0888653
-0.0888687
-0.0888738
-0.0888798
-0.0888704
-0.0888676
-0.0888644
-0.0888619
-0.0888598
-0.0888597
-0.0888621
-0.0888652
-0.08887
-0.088875
-0.0888685
-0.0888648
-0.0888602
-0.088858
-0.0888566
-0.0888566
-0.0888589
-0.0888616
-0.0888669
-0.0888717
-0.0888679
-0.0888632
-0.0888585
-0.0888567
-0.0888554
-0.0888556
-0.0888577
-0.0888604
-0.0888654
-0.0888702
-0.0888667
-0.088862
-0.0888577
-0.0888559
-0.0888546
-0.0888548
-0.0888568
-0.0888594
-0.0888643
-0.088869
-0.0888668
-0.0888624
-0.0888582
-0.0888564
-0.0888551
-0.0888554
-0.0888574
-0.0888599
-0.0888648
-0.0888694
-0.0888692
-0.0888648
-0.0888606
-0.0888587
-0.0888572
-0.0888575
-0.0888596
-0.0888621
-0.0888669
-0.0888715
-0.088872
-0.0888677
-0.0888632
-0.0888613
-0.0888597
-0.0888599
-0.088862
-0.0888644
-0.0888695
-0.0888741
-0.0888766
-0.0888722
-0.0888684
-0.0888662
-0.0888646
-0.0888647
-0.0888666
-0.0888693
-0.0888735
-0.0888782
-0.0888822
-0.0888769
-0.088873
-0.0888707
-0.0888691
-0.0888692
-0.088871
-0.0888736
-0.088878
-0.0888837
-0.0944264
-0.0944222
-0.0944191
-0.0944169
-0.0944149
-0.094415
-0.0944172
-0.0944202
-0.0944248
-0.0944305
-0.0944228
-0.0944185
-0.0944144
-0.0944114
-0.0944095
-0.0944095
-0.0944118
-0.0944151
-0.0944202
-0.0944257
-0.0944202
-0.0944147
-0.0944092
-0.0944064
-0.0944047
-0.0944047
-0.0944071
-0.0944104
-0.0944164
-0.0944225
-0.0944188
-0.0944124
-0.0944067
-0.094404
-0.0944023
-0.0944024
-0.0944048
-0.0944083
-0.0944143
-0.0944206
-0.0944174
-0.094411
-0.0944055
-0.0944026
-0.0944008
-0.094401
-0.0944033
-0.0944068
-0.094413
-0.0944195
-0.0944173
-0.0944112
-0.0944057
-0.0944029
-0.0944011
-0.0944013
-0.0944037
-0.0944071
-0.0944133
-0.0944197
-0.0944192
-0.0944132
-0.094408
-0.0944052
-0.0944035
-0.0944037
-0.094406
-0.0944094
-0.0944152
-0.0944214
-0.0944219
-0.0944163
-0.0944111
-0.0944086
-0.0944068
-0.094407
-0.0944092
-0.0944123
-0.094418
-0.0944238
-0.094426
-0.0944211
-0.094417
-0.0944145
-0.0944129
-0.0944131
-0.0944149
-0.0944178
-0.0944224
-0.0944277
-0.0944315
-0.0944264
-0.0944228
-0.0944207
-0.0944194
-0.0944195
-0.0944211
-0.0944235
-0.0944275
-0.094433
-0.0999277
-0.0999237
-0.0999208
-0.0999191
-0.0999181
-0.0999186
-0.0999206
-0.0999233
-0.0999271
-0.0999322
-0.0999238
-0.0999193
-0.0999155
-0.0999132
-0.0999119
-0.0999124
-0.0999145
-0.0999177
-0.0999223
-0.0999276
-0.0999209
-0.0999154
-0.0999105
-0.0999081
-0.0999068
-0.099907
-0.0999093
-0.0999126
-0.0999184
-0.0999244
-0.0999193
-0.0999131
-0.099908
-0.0999055
-0.099904
-0.0999041
-0.0999064
-0.09991
-0.099916
-0.0999223
-0.0999182
-0.0999119
-0.0999066
-0.0999038
-0.0999021
-0.0999023
-0.0999046
-0.0999083
-0.0999145
-0.0999211
-0.0999182
-0.099912
-0.0999066
-0.0999038
-0.0999021
-0.0999023
-0.0999047
-0.0999083
-0.0999144
-0.099921
-0.0999197
-0.0999137
-0.0999085
-0.0999057
-0.0999041
-0.0999044
-0.0999067
-0.0999101
-0.0999159
-0.0999221
-0.0999221
-0.0999166
-0.0999115
-0.099909
-0.0999074
-0.0999077
-0.0999098
-0.0999129
-0.0999184
-0.0999242
-0.0999258
-0.0999211
-0.0999171
-0.0999147
-0.0999134
-0.0999137
-0.0999154
-0.0999181
-0.0999225
-0.0999275
-0.0999307
-0.0999263
-0.0999231
-0.0999211
-0.0999201
-0.0999203
-0.0999216
-0.0999239
-0.0999274
-0.0999322
-0.105374
-0.10537
-0.105367
-0.105366
-0.105367
-0.105368
-0.10537
-0.105372
-0.105375
-0.105379
-0.10537
-0.105365
-0.105362
-0.105361
-0.105361
-0.105361
-0.105364
-0.105366
-0.10537
-0.105375
-0.105367
-0.105362
-0.105358
-0.105356
-0.105356
-0.105356
-0.105358
-0.105361
-0.105367
-0.105372
-0.105366
-0.10536
-0.105356
-0.105354
-0.105353
-0.105353
-0.105355
-0.105359
-0.105364
-0.10537
-0.105366
-0.10536
-0.105355
-0.105352
-0.105351
-0.105351
-0.105353
-0.105357
-0.105363
-0.105369
-0.105366
-0.10536
-0.105355
-0.105352
-0.10535
-0.105351
-0.105353
-0.105356
-0.105362
-0.105368
-0.105368
-0.105362
-0.105356
-0.105354
-0.105352
-0.105352
-0.105355
-0.105358
-0.105363
-0.105369
-0.10537
-0.105364
-0.105359
-0.105357
-0.105355
-0.105356
-0.105357
-0.10536
-0.105365
-0.105371
-0.105373
-0.105368
-0.105365
-0.105362
-0.105361
-0.105361
-0.105363
-0.105365
-0.105369
-0.105374
-0.105377
-0.105373
-0.10537
-0.105368
-0.105367
-0.105367
-0.105368
-0.10537
-0.105373
-0.105378
-0.11077
-0.110767
-0.110765
-0.110764
-0.110765
-0.110766
-0.110768
-0.11077
-0.110773
-0.110777
-0.110766
-0.110762
-0.11076
-0.110759
-0.11076
-0.110761
-0.110763
-0.110765
-0.110768
-0.110773
-0.110764
-0.11076
-0.110757
-0.110756
-0.110755
-0.110756
-0.110758
-0.11076
-0.110765
-0.11077
-0.110764
-0.110759
-0.110755
-0.110753
-0.110752
-0.110753
-0.110755
-0.110758
-0.110763
-0.110768
-0.110764
-0.110759
-0.110755
-0.110752
-0.110751
-0.110751
-0.110753
-0.110756
-0.110761
-0.110767
-0.110766
-0.11076
-0.110755
-0.110752
-0.11075
-0.11075
-0.110752
-0.110756
-0.110761
-0.110766
-0.110767
-0.110761
-0.110756
-0.110753
-0.110752
-0.110752
-0.110754
-0.110757
-0.110762
-0.110767
-0.110769
-0.110764
-0.110759
-0.110756
-0.110755
-0.110755
-0.110756
-0.110759
-0.110764
-0.110768
-0.110772
-0.110768
-0.110764
-0.110761
-0.11076
-0.11076
-0.110761
-0.110763
-0.110767
-0.110771
-0.110776
-0.110772
-0.110769
-0.110767
-0.110766
-0.110766
-0.110766
-0.110768
-0.110771
-0.110774
-0.116122
-0.116119
-0.116117
-0.116117
-0.116118
-0.116119
-0.116121
-0.116122
-0.116125
-0.116128
-0.116119
-0.116115
-0.116114
-0.116113
-0.116113
-0.116114
-0.116116
-0.116118
-0.116121
-0.116125
-0.116117
-0.116114
-0.116111
-0.11611
-0.116109
-0.11611
-0.116111
-0.116114
-0.116118
-0.116122
-0.116118
-0.116113
-0.11611
-0.116108
-0.116107
-0.116107
-0.116109
-0.116111
-0.116116
-0.11612
-0.116119
-0.116114
-0.116109
-0.116107
-0.116105
-0.116105
-0.116107
-0.11611
-0.116114
-0.116119
-0.11612
-0.116115
-0.11611
-0.116107
-0.116105
-0.116105
-0.116107
-0.11611
-0.116114
-0.116119
-0.116122
-0.116116
-0.116111
-0.116108
-0.116107
-0.116107
-0.116108
-0.116111
-0.116115
-0.11612
-0.116124
-0.116119
-0.116114
-0.116111
-0.11611
-0.116109
-0.116111
-0.116113
-0.116117
-0.116122
-0.116127
-0.116123
-0.116119
-0.116116
-0.116115
-0.116114
-0.116115
-0.116117
-0.11612
-0.116124
-0.116131
-0.116127
-0.116124
-0.116122
-0.11612
-0.11612
-0.11612
-0.116121
-0.116124
-0.116127
-0.121434
-0.12143
-0.121428
-0.121428
-0.121428
-0.121429
-0.12143
-0.121431
-0.121434
-0.121437
-0.12143
-0.121427
-0.121425
-0.121424
-0.121424
-0.121425
-0.121426
-0.121427
-0.12143
-0.121434
-0.121429
-0.121426
-0.121423
-0.121421
-0.12142
-0.121421
-0.121422
-0.121424
-0.121427
-0.121431
-0.12143
-0.121426
-0.121422
-0.12142
-0.121418
-0.121418
-0.12142
-0.121422
-0.121426
-0.12143
-0.121431
-0.121426
-0.121422
-0.121419
-0.121417
-0.121417
-0.121419
-0.121421
-0.121425
-0.12143
-0.121433
-0.121427
-0.121422
-0.121419
-0.121418
-0.121417
-0.121419
-0.121421
-0.121425
-0.12143
-0.121434
-0.121429
-0.121424
-0.121421
-0.121419
-0.121419
-0.12142
-0.121423
-0.121426
-0.121431
-0.121437
-0.121431
-0.121427
-0.121424
-0.121422
-0.121422
-0.121423
-0.121425
-0.121428
-0.121433
-0.121439
-0.121435
-0.121431
-0.121429
-0.121427
-0.121427
-0.121427
-0.121429
-0.121431
-0.121435
-0.121444
-0.121439
-0.121436
-0.121434
-0.121433
-0.121432
-0.121432
-0.121433
-0.121435
-0.121439
-0.126708
-0.126703
-0.126701
-0.1267
-0.126699
-0.126699
-0.1267
-0.126701
-0.126703
-0.126708
-0.126704
-0.126701
-0.126698
-0.126696
-0.126695
-0.126695
-0.126696
-0.126697
-0.1267
-0.126704
-0.126703
-0.126699
-0.126696
-0.126693
-0.126692
-0.126692
-0.126693
-0.126694
-0.126698
-0.126701
-0.126703
-0.126699
-0.126695
-0.126692
-0.12669
-0.12669
-0.126691
-0.126693
-0.126696
-0.1267
-0.126704
-0.126699
-0.126694
-0.126691
-0.126689
-0.126689
-0.12669
-0.126692
-0.126696
-0.1267
-0.126705
-0.1267
-0.126695
-0.126692
-0.12669
-0.12669
-0.126691
-0.126693
-0.126697
-0.126701
-0.126707
-0.126702
-0.126697
-0.126694
-0.126692
-0.126692
-0.126693
-0.126695
-0.126698
-0.126703
-0.126709
-0.126704
-0.1267
-0.126697
-0.126695
-0.126695
-0.126695
-0.126697
-0.126701
-0.126705
-0.126712
-0.126708
-0.126704
-0.126702
-0.1267
-0.126699
-0.1267
-0.126701
-0.126704
-0.126708
-0.126717
-0.126712
-0.126709
-0.126707
-0.126705
-0.126704
-0.126704
-0.126705
-0.126708
-0.126713
-0.131947
-0.131941
-0.131938
-0.131935
-0.131934
-0.131933
-0.131933
-0.131934
-0.131937
-0.131944
-0.131941
-0.131938
-0.131935
-0.131932
-0.13193
-0.131929
-0.131929
-0.131931
-0.131934
-0.131938
-0.13194
-0.131936
-0.131931
-0.131928
-0.131926
-0.131926
-0.131926
-0.131928
-0.131931
-0.131935
-0.131939
-0.131935
-0.13193
-0.131926
-0.131924
-0.131924
-0.131925
-0.131927
-0.13193
-0.131934
-0.131939
-0.131934
-0.131929
-0.131926
-0.131924
-0.131924
-0.131925
-0.131927
-0.13193
-0.131935
-0.13194
-0.131935
-0.13193
-0.131927
-0.131925
-0.131925
-0.131926
-0.131928
-0.131931
-0.131936
-0.131941
-0.131937
-0.131932
-0.13193
-0.131928
-0.131927
-0.131928
-0.13193
-0.131933
-0.131937
-0.131943
-0.131939
-0.131935
-0.131933
-0.131931
-0.13193
-0.131931
-0.131932
-0.131936
-0.13194
-0.131946
-0.131942
-0.131939
-0.131937
-0.131936
-0.131935
-0.131935
-0.131936
-0.131939
-0.131943
-0.131954
-0.131946
-0.131943
-0.131942
-0.13194
-0.13194
-0.13194
-0.131941
-0.131943
-0.13195
-0.137153
-0.137144
-0.137141
-0.137138
-0.137135
-0.137134
-0.137134
-0.137136
-0.137139
-0.137148
-0.137144
-0.137141
-0.137137
-0.137133
-0.137131
-0.13713
-0.13713
-0.137132
-0.137135
-0.137139
-0.137142
-0.137138
-0.137133
-0.137129
-0.137127
-0.137126
-0.137127
-0.137129
-0.137133
-0.137137
-0.137141
-0.137136
-0.137131
-0.137127
-0.137125
-0.137125
-0.137126
-0.137128
-0.137131
-0.137136
-0.13714
-0.137135
-0.13713
-0.137127
-0.137125
-0.137125
-0.137126
-0.137128
-0.137131
-0.137136
-0.13714
-0.137135
-0.137131
-0.137128
-0.137127
-0.137126
-0.137127
-0.137129
-0.137132
-0.137137
-0.137141
-0.137137
-0.137133
-0.137131
-0.137129
-0.137129
-0.137129
-0.137131
-0.137134
-0.137139
-0.137143
-0.137139
-0.137136
-0.137134
-0.137132
-0.137132
-0.137132
-0.137134
-0.137137
-0.137142
-0.137146
-0.137142
-0.13714
-0.137138
-0.137137
-0.137136
-0.137137
-0.137138
-0.137141
-0.137145
-0.137155
-0.137146
-0.137144
-0.137142
-0.137141
-0.137141
-0.137141
-0.137143
-0.137145
-0.137155
-0.142326
-0.142315
-0.142312
-0.142308
-0.142305
-0.142304
-0.142304
-0.142306
-0.142309
-0.142321
-0.142315
-0.142311
-0.142307
-0.142303
-0.1423
-0.142299
-0.142299
-0.142302
-0.142305
-0.142309
-0.142312
-0.142307
-0.142302
-0.142298
-0.142296
-0.142295
-0.142296
-0.142298
-0.142302
-0.142307
-0.142309
-0.142305
-0.1423
-0.142296
-0.142294
-0.142294
-0.142295
-0.142297
-0.142301
-0.142305
-0.142308
-0.142303
-0.142299
-0.142296
-0.142294
-0.142294
-0.142295
-0.142297
-0.142301
-0.142305
-0.142307
-0.142303
-0.1423
-0.142297
-0.142296
-0.142296
-0.142296
-0.142298
-0.142302
-0.142306
-0.142308
-0.142304
-0.142302
-0.1423
-0.142298
-0.142298
-0.142299
-0.1423
-0.142304
-0.142308
-0.14231
-0.142307
-0.142304
-0.142302
-0.142301
-0.142301
-0.142302
-0.142303
-0.142306
-0.142311
-0.142313
-0.14231
-0.142307
-0.142306
-0.142305
-0.142305
-0.142306
-0.142307
-0.14231
-0.142314
-0.142324
-0.142313
-0.142311
-0.14231
-0.142309
-0.142309
-0.14231
-0.142312
-0.142314
-0.142326
-0.147466
-0.147454
-0.147451
-0.147447
-0.147444
-0.147444
-0.147444
-0.147447
-0.14745
-0.147462
-0.147454
-0.14745
-0.147445
-0.147441
-0.147439
-0.147438
-0.147439
-0.147442
-0.147446
-0.147451
-0.147451
-0.147446
-0.147441
-0.147437
-0.147435
-0.147435
-0.147436
-0.147439
-0.147443
-0.147448
-0.147448
-0.147443
-0.147438
-0.147435
-0.147433
-0.147433
-0.147435
-0.147437
-0.147441
-0.147445
-0.147446
-0.147442
-0.147437
-0.147435
-0.147433
-0.147433
-0.147435
-0.147437
-0.14744
-0.147445
-0.147446
-0.147442
-0.147438
-0.147436
-0.147435
-0.147435
-0.147436
-0.147438
-0.147441
-0.147445
-0.147446
-0.147443
-0.14744
-0.147438
-0.147437
-0.147437
-0.147438
-0.14744
-0.147443
-0.147447
-0.147449
-0.147445
-0.147442
-0.147441
-0.14744
-0.14744
-0.147441
-0.147442
-0.147445
-0.14745
-0.147452
-0.147448
-0.147445
-0.147444
-0.147443
-0.147443
-0.147444
-0.147446
-0.147449
-0.147453
-0.147463
-0.147452
-0.147449
-0.147447
-0.147447
-0.147447
-0.147448
-0.14745
-0.147453
-0.147465
-0.152576
-0.152564
-0.152562
-0.152558
-0.152556
-0.152556
-0.152558
-0.152562
-0.152565
-0.152577
-0.152565
-0.152559
-0.152556
-0.152553
-0.152551
-0.152551
-0.152553
-0.152556
-0.152559
-0.152565
-0.152562
-0.152556
-0.152552
-0.152548
-0.152547
-0.152547
-0.152549
-0.152552
-0.152556
-0.152562
-0.152558
-0.152553
-0.152549
-0.152546
-0.152545
-0.152546
-0.152547
-0.15255
-0.152554
-0.152559
-0.152556
-0.152552
-0.152548
-0.152546
-0.152545
-0.152545
-0.152547
-0.152549
-0.152553
-0.152557
-0.152556
-0.152552
-0.152549
-0.152547
-0.152546
-0.152546
-0.152548
-0.15255
-0.152553
-0.152557
-0.152556
-0.152553
-0.15255
-0.152549
-0.152548
-0.152548
-0.15255
-0.152552
-0.152555
-0.152559
-0.152559
-0.152555
-0.152553
-0.152551
-0.152551
-0.152551
-0.152552
-0.152554
-0.152557
-0.152562
-0.152562
-0.152557
-0.152555
-0.152554
-0.152554
-0.152554
-0.152555
-0.152558
-0.15256
-0.152565
-0.152574
-0.152562
-0.15256
-0.152557
-0.152557
-0.152558
-0.152559
-0.152563
-0.152565
-0.152577
-0.157657
-0.157647
-0.157645
-0.157642
-0.157641
-0.157642
-0.157644
-0.157649
-0.157651
-0.157663
-0.157647
-0.157641
-0.157639
-0.157636
-0.157636
-0.157637
-0.157639
-0.157642
-0.157645
-0.157651
-0.157645
-0.157639
-0.157635
-0.157633
-0.157632
-0.157633
-0.157635
-0.157638
-0.157642
-0.157649
-0.157641
-0.157636
-0.157633
-0.157631
-0.15763
-0.157631
-0.157633
-0.157636
-0.15764
-0.157645
-0.157639
-0.157635
-0.157632
-0.15763
-0.157629
-0.15763
-0.157632
-0.157635
-0.157639
-0.157643
-0.157638
-0.157635
-0.157632
-0.15763
-0.15763
-0.157631
-0.157632
-0.157635
-0.157638
-0.157642
-0.157639
-0.157635
-0.157633
-0.157632
-0.157631
-0.157632
-0.157634
-0.157636
-0.157639
-0.157643
-0.157642
-0.157637
-0.157635
-0.157634
-0.157633
-0.157634
-0.157636
-0.157638
-0.157641
-0.157646
-0.157644
-0.157639
-0.157637
-0.157636
-0.157636
-0.157637
-0.157638
-0.157641
-0.157643
-0.157648
-0.157654
-0.157644
-0.157643
-0.15764
-0.15764
-0.157641
-0.157642
-0.157646
-0.157648
-0.157659
-0.162713
-0.162703
-0.162703
-0.1627
-0.1627
-0.162701
-0.162703
-0.162707
-0.162708
-0.162719
-0.162702
-0.162697
-0.162696
-0.162694
-0.162694
-0.162695
-0.162697
-0.1627
-0.162702
-0.162708
-0.162702
-0.162695
-0.162693
-0.162691
-0.162691
-0.162692
-0.162694
-0.162697
-0.1627
-0.162707
-0.162697
-0.162693
-0.16269
-0.162689
-0.162689
-0.16269
-0.162691
-0.162694
-0.162698
-0.162703
-0.162696
-0.162692
-0.162689
-0.162688
-0.162688
-0.162688
-0.16269
-0.162693
-0.162696
-0.162701
-0.162695
-0.162691
-0.162689
-0.162688
-0.162688
-0.162688
-0.16269
-0.162692
-0.162695
-0.1627
-0.162696
-0.162692
-0.16269
-0.162689
-0.162688
-0.162689
-0.16269
-0.162693
-0.162695
-0.1627
-0.162699
-0.162693
-0.162691
-0.16269
-0.16269
-0.16269
-0.162692
-0.162694
-0.162696
-0.162703
-0.1627
-0.162694
-0.162693
-0.162692
-0.162692
-0.162693
-0.162694
-0.162696
-0.162697
-0.162703
-0.16271
-0.1627
-0.1627
-0.162696
-0.162696
-0.162697
-0.162698
-0.162702
-0.162703
-0.162713
-0.16775
-0.167739
-0.16774
-0.167738
-0.167738
-0.167739
-0.16774
-0.167744
-0.167743
-0.167754
-0.167738
-0.167733
-0.167732
-0.167732
-0.167732
-0.167733
-0.167734
-0.167736
-0.167737
-0.167742
-0.167738
-0.167731
-0.16773
-0.167729
-0.167729
-0.167729
-0.167731
-0.167733
-0.167735
-0.167743
-0.167734
-0.167729
-0.167728
-0.167727
-0.167726
-0.167727
-0.167728
-0.16773
-0.167733
-0.167739
-0.167733
-0.167728
-0.167726
-0.167725
-0.167725
-0.167725
-0.167727
-0.167729
-0.167732
-0.167737
-0.167733
-0.167728
-0.167726
-0.167725
-0.167724
-0.167725
-0.167726
-0.167728
-0.167731
-0.167736
-0.167733
-0.167728
-0.167726
-0.167725
-0.167724
-0.167725
-0.167726
-0.167728
-0.16773
-0.167735
-0.167737
-0.16773
-0.167728
-0.167726
-0.167726
-0.167726
-0.167727
-0.167729
-0.167731
-0.167738
-0.167736
-0.16773
-0.167729
-0.167728
-0.167728
-0.167728
-0.167729
-0.167731
-0.167731
-0.167737
-0.167747
-0.167736
-0.167737
-0.167733
-0.167732
-0.167733
-0.167734
-0.167737
-0.167737
-0.167748
-0.172768
-0.172755
-0.172757
-0.172756
-0.172756
-0.172757
-0.172757
-0.17276
-0.172757
-0.17277
-0.172754
-0.172749
-0.172749
-0.172749
-0.17275
-0.17275
-0.17275
-0.172752
-0.172752
-0.172757
-0.172755
-0.172748
-0.172748
-0.172747
-0.172747
-0.172747
-0.172748
-0.17275
-0.172751
-0.172758
-0.172752
-0.172746
-0.172745
-0.172744
-0.172744
-0.172744
-0.172745
-0.172747
-0.172748
-0.172754
-0.172751
-0.172746
-0.172744
-0.172743
-0.172742
-0.172742
-0.172743
-0.172745
-0.172747
-0.172753
-0.172751
-0.172745
-0.172743
-0.172742
-0.172741
-0.172741
-0.172742
-0.172744
-0.172746
-0.172752
-0.172751
-0.172745
-0.172743
-0.172742
-0.172741
-0.172741
-0.172742
-0.172744
-0.172745
-0.172751
-0.172754
-0.172746
-0.172745
-0.172743
-0.172742
-0.172742
-0.172743
-0.172745
-0.172746
-0.172753
-0.172752
-0.172747
-0.172746
-0.172744
-0.172744
-0.172744
-0.172744
-0.172746
-0.172746
-0.172751
-0.172765