/*--------------------------------*- C++ -*----------------------------------*\
| =========                 |                                                 |
| \\      /  F ield         | OpenFOAM: The Open Source CFD Toolbox           |
|  \\    /   O peration     | Version:  2406                                  |
|   \\  /    A nd           | Website:  www.openfoam.com                      |
|    \\/     M anipulation  |                                                 |
\*---------------------------------------------------------------------------*/
FoamFile
{
    version     2.0;
    format      ascii;
    arch        "LSB;label=32;scalar=64";
    class       surfaceScalarField;
    location    "450";
    object      phi;
}
// * * * * * * * * * * * * * * * * * * * * * * * * * * * * * * * * * * * * * //

dimensions      [0 3 -1 0 0 0 0];

oriented        oriented;

internalField   nonuniform List<scalar> 
73500
(
1.35309e-06
1.37992e-06
4.7631e-05
-1.99947e-06
-2.01679e-06
1.09185e-06
1.33259e-06
5.15862e-05
-1.69397e-06
7.438e-07
1.24887e-06
5.45978e-05
-1.54332e-06
3.74834e-07
1.18529e-06
5.66274e-05
-1.46515e-06
-4.98527e-09
1.15115e-06
5.76493e-05
-1.4251e-06
-3.86915e-07
1.15044e-06
5.76496e-05
-1.42352e-06
-7.6762e-07
1.18261e-06
5.66282e-05
-1.4581e-06
-1.14575e-06
1.24769e-06
5.45995e-05
-1.52568e-06
-1.51049e-06
1.35351e-06
5.15907e-05
-1.64069e-06
1.5097e-06
4.76416e-05
-1.83047e-06
-1.82934e-06
1.30685e-06
1.0972e-06
5.15854e-05
-1.66866e-06
9.91689e-07
1.00527e-06
5.52265e-05
6.68294e-07
9.39639e-07
5.80059e-05
3.34227e-07
8.91441e-07
5.9881e-05
-6.34504e-09
8.66488e-07
6.08255e-05
-3.49979e-07
8.66809e-07
6.08258e-05
-6.9268e-07
8.93722e-07
5.98821e-05
-1.03136e-06
9.48022e-07
5.8008e-05
-1.35412e-06
1.03035e-06
5.52304e-05
1.14477e-06
5.15907e-05
-1.64121e-06
1.23192e-06
7.41298e-07
5.45969e-05
-1.53903e-06
9.262e-07
6.73443e-07
5.80054e-05
6.19571e-07
6.28e-07
6.0609e-05
3.08337e-07
5.95253e-07
6.23671e-05
-6.2465e-09
5.78661e-07
6.32529e-05
-3.22462e-07
5.79568e-07
6.32532e-05
-6.37953e-07
5.98632e-07
6.2368e-05
-9.48985e-07
6.3611e-07
6.06109e-05
-1.24812e-06
6.90903e-07
5.80081e-05
7.66227e-07
5.45996e-05
-1.52565e-06
1.17579e-06
3.72003e-07
5.66267e-05
-1.46344e-06
8.81306e-07
3.35929e-07
5.98805e-05
5.86893e-07
3.12394e-07
6.23668e-05
2.91632e-07
2.97095e-07
6.40465e-05
-5.36163e-09
2.89375e-07
6.48931e-05
-3.03254e-07
2.90213e-07
6.48933e-05
-6.00496e-07
3.00105e-07
6.40472e-05
-8.94626e-07
3.19183e-07
6.23681e-05
-1.18265e-06
3.46772e-07
5.98823e-05
3.84563e-07
5.66284e-05
-1.4577e-06
1.14573e-06
-8.21851e-09
5.76487e-05
-1.4264e-06
8.58607e-07
-7.17365e-09
6.0825e-05
5.71733e-07
-4.16678e-09
6.32526e-05
2.83926e-07
-2.17811e-09
6.48929e-05
-4.52773e-09
-7.29275e-10
6.57198e-05
-2.93388e-07
-6.08835e-11
6.572e-05
-5.81631e-07
2.77326e-10
6.48935e-05
-8.67759e-07
3.71248e-10
6.32535e-05
-1.14987e-06
3.7564e-10
6.08262e-05
3.74565e-10
5.765e-05
-1.42229e-06
1.14713e-06
-3.89167e-07
5.76491e-05
-1.42374e-06
8.61611e-07
-3.50738e-07
6.08254e-05
5.73721e-07
-3.2204e-07
6.32529e-05
2.85393e-07
-3.01323e-07
6.48931e-05
-3.85448e-09
-2.90907e-07
6.57199e-05
-2.93069e-07
-2.90243e-07
6.57201e-05
-5.81574e-07
-2.99605e-07
6.48935e-05
-8.67798e-07
-3.18469e-07
6.32535e-05
-1.14991e-06
-3.46009e-07
6.08263e-05
-3.83813e-07
5.765e-05
-1.42235e-06
1.18058e-06
-7.69634e-07
5.66278e-05
-1.45898e-06
8.89607e-07
-6.9396e-07
5.98817e-05
5.94252e-07
-6.37979e-07
6.23678e-05
2.95834e-07
-5.99806e-07
6.40471e-05
-3.16607e-09
-5.8016e-07
6.48934e-05
-3.02433e-07
-5.79784e-07
6.48935e-05
-6.0029e-07
-5.98281e-07
6.40473e-05
-8.94696e-07
-6.35544e-07
6.23682e-05
-1.18278e-06
-6.90251e-07
5.98823e-05
-7.65532e-07
5.66284e-05
-1.45786e-06
1.24626e-06
-1.14706e-06
5.45992e-05
-1.52584e-06
9.45058e-07
-1.03276e-06
5.80078e-05
6.3241e-07
-9.49823e-07
6.06107e-05
3.15693e-07
-8.94884e-07
6.2368e-05
-2.7618e-09
-8.67411e-07
6.32534e-05
-3.21093e-07
-8.67022e-07
6.32535e-05
-6.3757e-07
-8.93522e-07
6.23682e-05
-9.49018e-07
-9.47683e-07
6.0611e-05
-1.24826e-06
-1.02993e-06
5.80082e-05
-1.14424e-06
5.45996e-05
-1.52577e-06
1.35189e-06
-1.51201e-06
5.15904e-05
-1.64093e-06
1.02788e-06
-1.35585e-06
5.52302e-05
6.87747e-07
-1.24968e-06
5.8008e-05
3.4389e-07
-1.18365e-06
5.98821e-05
-2.33152e-09
-1.15044e-06
6.08262e-05
-3.48241e-07
-1.14995e-06
6.08262e-05
-6.92157e-07
-1.18246e-06
5.98823e-05
-1.0313e-06
-1.2476e-06
5.80082e-05
-1.35417e-06
-1.35331e-06
5.52305e-05
-1.50944e-06
5.15908e-05
-1.64123e-06
1.50771e-06
4.76414e-05
-1.83149e-06
-1.82854e-06
1.14232e-06
5.15906e-05
-1.64287e-06
7.63593e-07
5.45995e-05
-1.52691e-06
3.82101e-07
5.66283e-05
-1.45892e-06
-1.7677e-09
5.76499e-05
-1.42303e-06
-3.85669e-07
5.76499e-05
-1.42282e-06
-7.67105e-07
5.66284e-05
-1.45787e-06
-1.14549e-06
5.45996e-05
-1.52554e-06
-1.51036e-06
5.15908e-05
-1.64076e-06
4.76417e-05
-1.83e-06
-1.82955e-06
2.13575e-06
2.14739e-06
4.8331e-05
-2.49123e-06
-2.4985e-06
1.52374e-06
1.86384e-06
5.23365e-05
-2.00416e-06
1.02555e-06
1.76289e-06
5.53881e-05
-2.05499e-06
5.15411e-07
1.71406e-06
5.74459e-05
-2.02122e-06
-7.53485e-09
1.6893e-06
5.84823e-05
-1.99886e-06
-5.31076e-07
1.69e-06
5.84826e-05
-1.99876e-06
-1.04595e-06
1.71604e-06
5.74467e-05
-2.01918e-06
-1.55013e-06
1.76655e-06
5.53892e-05
-2.05171e-06
-2.14861e-06
1.86186e-06
5.23383e-05
-2.01076e-06
2.14555e-06
4.83351e-05
-2.49506e-06
-2.49222e-06
1.85479e-06
1.53122e-06
5.2336e-05
-1.99345e-06
1.4536e-06
1.46124e-06
5.60281e-05
9.8951e-07
1.38998e-06
5.88431e-05
4.98456e-07
1.34439e-06
6.07418e-05
-7.22444e-09
1.32327e-06
6.16984e-05
-5.13659e-07
1.32385e-06
6.16987e-05
-1.00431e-06
1.34654e-06
6.07427e-05
-1.46545e-06
1.39178e-06
5.88444e-05
-1.86466e-06
1.4619e-06
5.60299e-05
1.54665e-06
5.23385e-05
-2.01303e-06
1.75673e-06
1.02853e-06
5.53875e-05
-2.05026e-06
1.38374e-06
9.94774e-07
5.88428e-05
9.49129e-07
9.54677e-07
6.14791e-05
4.79617e-07
9.2377e-07
6.32577e-05
-6.45741e-09
9.09081e-07
6.41538e-05
-4.92413e-07
9.09759e-07
6.41541e-05
-9.61267e-07
9.2552e-07
6.32585e-05
-1.39527e-06
9.56787e-07
6.14804e-05
-1.76912e-06
9.99789e-07
5.88446e-05
1.04164e-06
5.53895e-05
-2.05336e-06
1.70947e-06
5.16913e-07
5.74452e-05
-2.01831e-06
1.33956e-06
5.02203e-07
6.07414e-05
9.18685e-07
4.83587e-07
6.32575e-05
4.64676e-07
4.69027e-07
6.49557e-05
-5.75743e-09
4.61957e-07
6.58115e-05
-4.76254e-07
4.62524e-07
6.58117e-05
-9.30032e-07
4.70829e-07
6.49564e-05
-1.35006e-06
4.86911e-07
6.32587e-05
-1.71849e-06
5.07817e-07
6.07431e-05
5.25588e-07
5.74473e-05
-2.02065e-06
1.68621e-06
-7.23128e-09
5.84816e-05
-1.99884e-06
1.31867e-06
-5.62859e-09
6.16979e-05
9.046e-07
-3.3794e-09
6.41535e-05
4.57672e-07
-2.4489e-09
6.58113e-05
-5.23412e-09
-1.59225e-09
6.66468e-05
-4.68004e-07
-9.98801e-10
6.66471e-05
-9.14442e-07
-5.97854e-10
6.5812e-05
-1.32773e-06
-3.25023e-10
6.41546e-05
-1.69238e-06
-8.27172e-11
6.16995e-05
4.58134e-11
5.84834e-05
-1.99973e-06
1.68778e-06
-5.30702e-07
5.84819e-05
-1.99847e-06
1.32055e-06
-5.1236e-07
6.16981e-05
9.0553e-07
-4.90747e-07
6.41536e-05
4.58581e-07
-4.7365e-07
6.58114e-05
-4.63497e-09
-4.65193e-07
6.66469e-05
-4.6763e-07
-4.64556e-07
6.66472e-05
-9.14216e-07
-4.7202e-07
6.58121e-05
-1.32755e-06
-4.87517e-07
6.41547e-05
-1.69232e-06
-5.08109e-07
6.16995e-05
-5.25443e-07
5.84835e-05
-1.99966e-06
1.71467e-06
-1.04592e-06
5.7446e-05
-2.02006e-06
1.34352e-06
-1.00397e-06
6.0742e-05
9.22153e-07
-9.6016e-07
6.32579e-05
4.67077e-07
-9.28635e-07
6.4956e-05
-3.97364e-09
-9.12487e-07
6.58118e-05
-4.75084e-07
-9.12014e-07
6.5812e-05
-9.29306e-07
-9.2697e-07
6.49566e-05
-1.34968e-06
-9.57625e-07
6.32588e-05
-1.71813e-06
-1.0001e-06
6.07432e-05
-1.04163e-06
5.74474e-05
-2.02048e-06
1.76556e-06
-1.54983e-06
5.53885e-05
-2.05209e-06
1.3895e-06
-1.46554e-06
5.88437e-05
9.53639e-07
-1.39519e-06
6.14798e-05
4.83668e-07
-1.34969e-06
6.32583e-05
-3.46445e-09
-1.32689e-06
6.41543e-05
-4.90441e-07
-1.32648e-06
6.41545e-05
-9.59957e-07
-1.34816e-06
6.32588e-05
-1.3944e-06
-1.39281e-06
6.14806e-05
-1.76852e-06
-1.46252e-06
5.88448e-05
-1.5468e-06
5.53896e-05
-2.05286e-06
1.86065e-06
-2.14865e-06
5.23376e-05
-2.01136e-06
1.45976e-06
-1.86523e-06
5.60293e-05
9.96853e-07
-1.76985e-06
5.8844e-05
5.05001e-07
-1.71886e-06
6.07427e-05
-2.98734e-09
-1.69256e-06
6.16991e-05
-5.10552e-07
-1.69204e-06
6.16993e-05
-1.00234e-06
-1.71765e-06
6.07431e-05
-1.4641e-06
-1.76772e-06
5.88447e-05
-1.86358e-06
-1.86268e-06
5.60301e-05
-2.14609e-06
5.23386e-05
-2.01219e-06
2.14366e-06
4.83345e-05
-2.49484e-06
-2.49159e-06
1.54423e-06
5.23379e-05
-2.01366e-06
1.039e-06
5.5389e-05
-2.05388e-06
5.22961e-07
5.74469e-05
-2.02128e-06
-2.32927e-09
5.84831e-05
-2.00001e-06
-5.27636e-07
5.84832e-05
-1.99984e-06
-1.04351e-06
5.74472e-05
-2.02028e-06
-1.54829e-06
5.53896e-05
-2.05257e-06
-2.14704e-06
5.23386e-05
-2.01174e-06
4.83353e-05
-2.49344e-06
-2.49321e-06
1.62483e-06
1.62662e-06
4.88827e-05
-1.90381e-06
-1.89854e-06
1.14816e-06
1.40861e-06
5.29254e-05
-1.52058e-06
7.7763e-07
1.37439e-06
5.60067e-05
-1.62189e-06
3.88709e-07
1.34053e-06
5.80842e-05
-1.58912e-06
5.30648e-11
1.32413e-06
5.91299e-05
-1.58228e-06
-3.88262e-07
1.32402e-06
5.913e-05
-1.58248e-06
-7.76982e-07
1.34027e-06
5.80848e-05
-1.58887e-06
-1.15334e-06
1.37655e-06
5.60078e-05
-1.61833e-06
-1.62907e-06
1.40886e-06
5.29279e-05
-1.5228e-06
1.62895e-06
4.88878e-05
-1.90571e-06
-1.90474e-06
1.40838e-06
1.15004e-06
5.2925e-05
-1.52012e-06
1.09712e-06
1.09783e-06
5.66508e-05
7.57186e-07
1.06628e-06
5.94921e-05
3.85558e-07
1.04595e-06
6.14087e-05
2.75082e-10
1.03484e-06
6.23739e-05
-3.85141e-07
1.03471e-06
6.23741e-05
-7.57317e-07
1.04617e-06
6.14095e-05
-1.09737e-06
1.06797e-06
5.94935e-05
-1.40901e-06
1.09759e-06
5.66531e-05
1.15393e-06
5.2928e-05
-1.52332e-06
1.37473e-06
7.78241e-07
5.60064e-05
-1.62059e-06
1.06652e-06
7.57849e-07
5.9492e-05
7.30294e-07
7.30266e-07
6.21523e-05
3.71627e-07
7.15774e-07
6.39475e-05
9.61264e-11
7.09257e-07
6.48518e-05
-3.71779e-07
7.09414e-07
6.4852e-05
-7.31348e-07
7.16676e-07
6.39482e-05
-1.06777e-06
7.31753e-07
6.21535e-05
-1.37652e-06
7.57771e-07
5.94937e-05
7.77773e-07
5.60082e-05
-1.61837e-06
1.3405e-06
3.89082e-07
5.8084e-05
-1.5886e-06
1.04612e-06
3.86015e-07
6.14086e-05
7.15769e-07
3.71681e-07
6.39474e-05
3.63386e-07
3.63491e-07
6.56615e-05
-1.67909e-10
3.60253e-07
6.6525e-05
-3.63908e-07
3.60498e-07
6.65252e-05
-7.16379e-07
3.64239e-07
6.5662e-05
-1.04597e-06
3.72336e-07
6.39484e-05
-1.34012e-06
3.8574e-07
6.14099e-05
3.88989e-07
5.80853e-05
-1.58865e-06
1.32443e-06
4.52844e-10
5.91298e-05
-1.58267e-06
1.03489e-06
6.6333e-10
6.23738e-05
7.09177e-07
3.25598e-10
6.48517e-05
3.60054e-07
4.54025e-11
6.6525e-05
-1.35892e-10
2.05855e-10
6.73681e-05
-3.60304e-07
3.68732e-10
6.73683e-05
-7.09193e-07
4.65017e-10
6.65254e-05
-1.03452e-06
4.97917e-10
6.48524e-05
-1.32383e-06
5.45841e-10
6.23747e-05
5.38752e-10
5.91308e-05
-1.58202e-06
1.32431e-06
-3.87786e-07
5.913e-05
-1.5827e-06
1.03484e-06
-3.84699e-07
6.2374e-05
7.09297e-07
-3.71452e-07
6.48519e-05
3.60272e-07
-3.63481e-07
6.65251e-05
-2.02528e-11
-3.59836e-07
6.73682e-05
-3.60267e-07
-3.59715e-07
6.73684e-05
-7.09206e-07
-3.63289e-07
6.65255e-05
-1.0345e-06
-3.71287e-07
6.48525e-05
-1.32387e-06
-3.84722e-07
6.23748e-05
-3.87849e-07
5.91308e-05
-1.58203e-06
1.34062e-06
-7.76642e-07
5.80848e-05
-1.5894e-06
1.04626e-06
-7.56933e-07
6.14094e-05
7.16629e-07
-7.30948e-07
6.39481e-05
3.64004e-07
-7.15956e-07
6.56619e-05
1.00805e-10
-7.08682e-07
6.65254e-05
-3.63836e-07
-7.08616e-07
6.65255e-05
-7.16396e-07
-7.15805e-07
6.56622e-05
-1.04606e-06
-7.30827e-07
6.39485e-05
-1.34013e-06
-7.56714e-07
6.141e-05
-7.76702e-07
5.80854e-05
-1.58874e-06
1.377e-06
-1.15293e-06
5.60078e-05
-1.61884e-06
1.06811e-06
-1.09715e-06
5.94935e-05
7.31704e-07
-1.0675e-06
6.21534e-05
3.72152e-07
-1.04575e-06
6.39483e-05
2.26666e-10
-1.03415e-06
6.48524e-05
-3.71815e-07
-1.03418e-06
6.48524e-05
-7.31391e-07
-1.04551e-06
6.39485e-05
-1.06777e-06
-1.06723e-06
6.21537e-05
-1.37657e-06
-1.09683e-06
5.94939e-05
-1.15289e-06
5.60083e-05
-1.61834e-06
1.40927e-06
-1.6286e-06
5.29279e-05
-1.52369e-06
1.09776e-06
-1.40886e-06
5.66531e-05
7.5766e-07
-1.37659e-06
5.94937e-05
3.857e-07
-1.3401e-06
6.14098e-05
2.6449e-10
-1.32384e-06
6.23746e-05
-3.84962e-07
-1.3237e-06
6.23747e-05
-7.5724e-07
-1.33992e-06
6.14099e-05
-1.09734e-06
-1.37614e-06
5.94939e-05
-1.40886e-06
-1.40835e-06
5.66534e-05
-1.62834e-06
5.29283e-05
-1.52324e-06
1.62908e-06
4.88879e-05
-1.9051e-06
-1.90518e-06
1.15398e-06
5.29281e-05
-1.52359e-06
7.77835e-07
5.60082e-05
-1.61859e-06
3.88992e-07
5.80853e-05
-1.58893e-06
5.44158e-10
5.91307e-05
-1.58212e-06
-3.87971e-07
5.91307e-05
-1.58212e-06
-7.76921e-07
5.80853e-05
-1.58853e-06
-1.15328e-06
5.60083e-05
-1.61804e-06
-1.62885e-06
5.29282e-05
-1.5226e-06
4.88881e-05
-1.90508e-06
-1.90464e-06
1.13238e-06
1.13469e-06
4.92814e-05
-1.3332e-06
-1.33115e-06
8.19031e-07
1.01743e-06
5.33559e-05
-1.1333e-06
5.58868e-07
1.0262e-06
5.64619e-05
-1.21951e-06
2.76969e-07
1.00329e-06
5.85559e-05
-1.19079e-06
1.04599e-09
9.97341e-07
5.96098e-05
-1.1989e-06
-2.74686e-07
9.97376e-07
5.961e-05
-1.1992e-06
-5.54152e-07
1.00259e-06
5.85564e-05
-1.1922e-06
-8.16552e-07
1.02806e-06
5.64629e-05
-1.21861e-06
-1.1297e-06
1.01811e-06
5.33582e-05
-1.133e-06
1.13417e-06
4.9286e-05
-1.329e-06
-1.3305e-06
1.01488e-06
8.20556e-07
5.33554e-05
-1.13001e-06
7.86429e-07
7.87762e-07
5.711e-05
5.48455e-07
7.84947e-07
5.99728e-05
2.79589e-07
7.78595e-07
6.19037e-05
1.43772e-09
7.74891e-07
6.2876e-05
-2.76694e-07
7.74898e-07
6.28762e-05
-5.46439e-07
7.78582e-07
6.19045e-05
-7.84991e-07
7.87488e-07
5.99741e-05
-1.01407e-06
7.89247e-07
5.71122e-05
8.21451e-07
5.33583e-05
-1.13016e-06
1.02403e-06
5.59615e-07
5.64614e-05
-1.21601e-06
7.83644e-07
5.49068e-07
5.99726e-05
5.34933e-07
5.35423e-07
6.26518e-05
2.71855e-07
5.3094e-07
6.44597e-05
1.26482e-09
5.28382e-07
6.53703e-05
-2.69691e-07
5.28579e-07
6.53705e-05
-5.34063e-07
5.31966e-07
6.44604e-05
-7.83293e-07
5.38096e-07
6.2653e-05
-1.02392e-06
5.50553e-07
5.99743e-05
5.58774e-07
5.64632e-05
-1.21498e-06
1.00116e-06
2.77411e-07
5.85555e-05
-1.18826e-06
7.77017e-07
2.79766e-07
6.19035e-05
5.29997e-07
2.71913e-07
6.44596e-05
2.69224e-07
2.69564e-07
6.6185e-05
1.27171e-09
2.68403e-07
6.70543e-05
-2.66867e-07
2.68632e-07
6.70545e-05
-5.28047e-07
2.70379e-07
6.61856e-05
-7.74419e-07
2.73286e-07
6.44606e-05
-9.98213e-07
2.8037e-07
6.19048e-05
2.78355e-07
5.85568e-05
-1.18808e-06
9.95669e-07
1.2568e-09
5.96096e-05
-1.19681e-06
7.7356e-07
1.63951e-09
6.28757e-05
5.27421e-07
1.25007e-09
6.53701e-05
2.67934e-07
1.38987e-09
6.70542e-05
1.45708e-09
1.66811e-09
6.79027e-05
-2.65167e-07
1.74198e-09
6.79028e-05
-5.24806e-07
1.75355e-09
6.70547e-05
-7.70791e-07
1.68948e-09
6.53708e-05
-9.93067e-07
1.62748e-09
6.28767e-05
1.61394e-09
5.96106e-05
-1.1949e-06
9.95736e-07
-2.74547e-07
5.96098e-05
-1.19716e-06
7.73606e-07
-2.76477e-07
6.2876e-05
5.27654e-07
-2.6951e-07
6.53703e-05
2.68105e-07
-2.66697e-07
6.70543e-05
1.50314e-09
-2.64983e-07
6.79028e-05
-2.65181e-07
-2.6504e-07
6.79029e-05
-5.24894e-07
-2.66863e-07
6.70547e-05
-7.70867e-07
-2.69874e-07
6.53709e-05
-9.93112e-07
-2.77094e-07
6.28767e-05
-2.75144e-07
5.96106e-05
-1.1949e-06
1.00097e-06
-5.54168e-07
5.85563e-05
-1.19042e-06
7.77331e-07
-5.46095e-07
6.19043e-05
5.31022e-07
-5.33755e-07
6.44602e-05
2.69845e-07
-5.27762e-07
6.61855e-05
1.45485e-09
-5.24672e-07
6.70546e-05
-2.66985e-07
-5.24882e-07
6.70547e-05
-5.28294e-07
-5.28355e-07
6.61858e-05
-7.74684e-07
-5.34695e-07
6.44606e-05
-9.98382e-07
-5.47299e-07
6.19048e-05
-5.55561e-07
5.85569e-05
-1.18811e-06
1.02662e-06
-8.16312e-07
5.64628e-05
-1.217e-06
7.86159e-07
-7.84658e-07
5.9974e-05
5.37131e-07
-7.82893e-07
6.26528e-05
2.72628e-07
-7.74242e-07
6.44604e-05
1.33162e-09
-7.70782e-07
6.53707e-05
-2.7003e-07
-7.71079e-07
6.53708e-05
-5.34612e-07
-7.75011e-07
6.44606e-05
-7.83766e-07
-7.84162e-07
6.26532e-05
-1.02422e-06
-7.86212e-07
5.99744e-05
-8.18426e-07
5.64632e-05
-1.21493e-06
1.01655e-06
-1.12933e-06
5.33581e-05
-1.13186e-06
7.87895e-07
-1.01373e-06
5.71121e-05
5.49385e-07
-1.02376e-06
5.99741e-05
2.79582e-07
-9.98215e-07
6.19046e-05
1.10929e-09
-9.93325e-07
6.28766e-05
-2.77332e-07
-9.93632e-07
6.28766e-05
-5.47284e-07
-9.99115e-07
6.19048e-05
-7.85825e-07
-1.02503e-06
5.99744e-05
-1.0146e-06
-1.01534e-06
5.71124e-05
-1.13161e-06
5.33585e-05
-1.13025e-06
1.13255e-06
4.92859e-05
-1.32786e-06
-1.32973e-06
8.20003e-07
5.33582e-05
-1.12993e-06
5.57516e-07
5.6463e-05
-1.21474e-06
2.77371e-07
5.85567e-05
-1.18815e-06
8.9039e-10
5.96105e-05
-1.19528e-06
-2.75564e-07
5.96105e-05
-1.1957e-06
-5.55608e-07
5.85568e-05
-1.18925e-06
-8.18008e-07
5.64632e-05
-1.21635e-06
-1.13088e-06
5.33585e-05
-1.13147e-06
4.92862e-05
-1.32902e-06
-1.3298e-06
7.83582e-07
7.87228e-07
4.955e-05
-9.16099e-07
-9.20364e-07
5.92456e-07
7.32145e-07
5.36509e-05
-8.33339e-07
4.07129e-07
7.49381e-07
5.67777e-05
-8.7723e-07
2.01655e-07
7.31608e-07
5.88859e-05
-8.53089e-07
2.40191e-09
7.32279e-07
5.9947e-05
-8.67019e-07
-1.9697e-07
7.32475e-07
5.99471e-05
-8.67228e-07
-3.99017e-07
7.30356e-07
5.88862e-05
-8.5467e-07
-5.84059e-07
7.49794e-07
5.67784e-05
-8.78117e-07
-7.7342e-07
7.30293e-07
5.36529e-05
-8.32487e-07
7.8019e-07
4.95543e-05
-9.08453e-07
-9.10668e-07
7.27202e-07
5.94704e-07
5.36503e-05
-8.27268e-07
5.68774e-07
5.71345e-07
5.74308e-05
4.00902e-07
5.7814e-07
6.03139e-05
2.04872e-07
5.74433e-07
6.22588e-05
2.73056e-09
5.74413e-07
6.3238e-05
-1.99331e-07
5.74392e-07
6.32381e-05
-3.95968e-07
5.73565e-07
6.22592e-05
-5.64288e-07
5.79078e-07
6.03149e-05
-7.24231e-07
5.70721e-07
5.74327e-05
5.9143e-07
5.36529e-05
-8.27938e-07
7.45097e-07
4.08817e-07
5.67771e-05
-8.724e-07
5.75041e-07
4.02196e-07
6.03136e-05
3.96278e-07
3.97874e-07
6.30125e-05
2.02057e-07
3.9632e-07
6.48338e-05
2.23372e-09
3.94895e-07
6.57512e-05
-1.97787e-07
3.94926e-07
6.57513e-05
-3.93163e-07
3.96363e-07
6.48343e-05
-5.7276e-07
3.99134e-07
6.30133e-05
-7.43556e-07
4.0217e-07
6.03149e-05
4.06189e-07
5.67784e-05
-8.71873e-07
7.27594e-07
2.02515e-07
5.88853e-05
-8.48475e-07
5.71161e-07
2.05412e-07
6.22583e-05
3.94163e-07
2.02614e-07
6.48336e-05
2.01997e-07
2.02947e-07
6.65722e-05
2.22865e-09
2.02348e-07
6.74481e-05
-1.97675e-07
2.0234e-07
6.74482e-05
-3.905e-07
2.02953e-07
6.65726e-05
-5.67244e-07
2.03103e-07
6.48343e-05
-7.23544e-07
2.04923e-07
6.22592e-05
2.02619e-07
5.88861e-05
-8.477e-07
7.28701e-07
2.07786e-09
5.99465e-05
-8.62469e-07
5.71546e-07
2.61753e-09
6.32375e-05
3.929e-07
2.20796e-09
6.57509e-05
2.01346e-07
2.46648e-09
6.7448e-05
2.26788e-09
2.59946e-09
6.83031e-05
-1.97063e-07
2.49064e-09
6.83031e-05
-3.89183e-07
2.38859e-09
6.74483e-05
-5.68073e-07
2.22728e-09
6.57514e-05
-7.25697e-07
2.0288e-09
6.32381e-05
1.93666e-09
5.99471e-05
-8.59926e-07
7.2897e-07
-1.98129e-07
5.99467e-05
-8.6269e-07
5.71715e-07
-1.99899e-07
6.32377e-05
3.93063e-07
-1.98053e-07
6.5751e-05
2.01384e-07
-1.97719e-07
6.7448e-05
2.17726e-09
-1.97038e-07
6.83031e-05
-1.97178e-07
-1.9717e-07
6.83031e-05
-3.89364e-07
-1.98109e-07
6.74482e-05
-5.68293e-07
-1.98624e-07
6.57513e-05
-7.25814e-07
-2.00697e-07
6.32381e-05
-1.98746e-07
5.99471e-05
-8.60046e-07
7.27105e-07
-4.01089e-07
5.88858e-05
-8.50829e-07
5.71166e-07
-3.96736e-07
6.22588e-05
3.94711e-07
-3.93525e-07
6.4834e-05
2.02096e-07
-3.90608e-07
6.65724e-05
2.10584e-09
-3.89298e-07
6.74481e-05
-1.98084e-07
-3.89563e-07
6.74482e-05
-3.91074e-07
-3.91315e-07
6.65725e-05
-5.67779e-07
-3.94455e-07
6.48342e-05
-7.24063e-07
-3.97922e-07
6.22591e-05
-4.02076e-07
5.88861e-05
-8.48111e-07
7.47323e-07
-5.85841e-07
5.67781e-05
-8.74929e-07
5.76921e-07
-5.65266e-07
6.03146e-05
3.97726e-07
-5.73062e-07
6.3013e-05
2.02315e-07
-5.67533e-07
6.48341e-05
1.96027e-09
-5.68361e-07
6.57512e-05
-1.98579e-07
-5.68721e-07
6.57513e-05
-3.9419e-07
-5.68243e-07
6.48342e-05
-5.73819e-07
-5.74321e-07
6.30132e-05
-7.44314e-07
-5.66391e-07
6.03148e-05
-5.87415e-07
5.67783e-05
-8.7242e-07
7.28015e-07
-7.75009e-07
5.36526e-05
-8.30773e-07
5.69043e-07
-7.25091e-07
5.74324e-05
4.00764e-07
-7.44153e-07
6.03146e-05
2.042e-07
-7.24006e-07
6.2259e-05
1.69474e-09
-7.26289e-07
6.3238e-05
-2.00644e-07
-7.26526e-07
6.3238e-05
-3.97714e-07
-7.24874e-07
6.22591e-05
-5.65938e-07
-7.45066e-07
6.03148e-05
-7.2563e-07
-7.26056e-07
5.74326e-05
-7.76301e-07
5.36528e-05
-8.28766e-07
7.784e-07
4.9554e-05
-9.08576e-07
-9.10047e-07
5.89917e-07
5.36527e-05
-8.28969e-07
4.04894e-07
5.67782e-05
-8.72436e-07
2.01798e-07
5.8886e-05
-8.48471e-07
1.55291e-09
5.9947e-05
-8.60808e-07
-1.98734e-07
5.9947e-05
-8.61251e-07
-4.01772e-07
5.8886e-05
-8.49415e-07
-5.86774e-07
5.67783e-05
-8.73757e-07
-7.76021e-07
5.36528e-05
-8.29488e-07
4.95541e-05
-9.09084e-07
-9.091e-07
6.23109e-07
6.2623e-07
4.97637e-05
-7.28116e-07
-7.34353e-07
4.90033e-07
5.89552e-07
5.38847e-05
-6.89361e-07
3.35783e-07
5.91841e-07
5.70273e-05
-6.8591e-07
1.66581e-07
5.70561e-07
5.9146e-05
-6.59725e-07
1.55065e-09
5.70287e-07
6.02126e-05
-6.68697e-07
-1.64123e-07
5.70765e-07
6.02126e-05
-6.68701e-07
-3.30539e-07
5.69533e-07
5.91463e-05
-6.60916e-07
-4.83964e-07
5.92509e-07
5.70281e-05
-6.87527e-07
-6.13833e-07
5.88191e-07
5.38871e-05
-6.90607e-07
6.18738e-07
4.97684e-05
-7.2204e-07
-7.23002e-07
5.85375e-07
4.9202e-07
5.3884e-05
-6.8426e-07
4.60139e-07
4.62021e-07
5.76841e-05
3.22976e-07
4.61237e-07
6.05828e-05
1.6441e-07
4.50553e-07
6.25382e-05
1.90463e-09
4.49143e-07
6.35228e-05
-1.60477e-07
4.49396e-07
6.3523e-05
-3.19592e-07
4.49859e-07
6.25387e-05
-4.57157e-07
4.62191e-07
6.05839e-05
-5.83898e-07
4.61908e-07
5.76863e-05
4.89634e-07
5.38871e-05
-6.87495e-07
5.88252e-07
3.37404e-07
5.70264e-05
-6.81717e-07
4.58641e-07
3.23813e-07
6.05824e-05
3.17709e-07
3.18863e-07
6.32965e-05
1.61533e-07
3.13153e-07
6.51285e-05
1.3827e-09
3.10288e-07
6.60512e-05
-1.58851e-07
3.10425e-07
6.60514e-05
-3.15916e-07
3.13123e-07
6.5129e-05
-4.57572e-07
3.20155e-07
6.32975e-05
-5.8794e-07
3.24136e-07
6.05839e-05
3.3603e-07
5.7028e-05
-6.82683e-07
5.67073e-07
1.67043e-07
5.91452e-05
-6.55206e-07
4.47829e-07
1.64547e-07
6.25377e-05
3.11521e-07
1.61743e-07
6.51282e-05
1.60034e-07
1.60545e-07
6.68774e-05
1.56505e-09
1.59225e-07
6.77587e-05
-1.56907e-07
1.59281e-07
6.77588e-05
-3.09014e-07
1.60507e-07
6.68778e-05
-4.45291e-07
1.62415e-07
6.5129e-05
-5.64423e-07
1.64495e-07
6.25387e-05
1.68142e-07
5.91462e-05
-6.55348e-07
5.6715e-07
6.32902e-10
6.02119e-05
-6.64101e-07
4.46899e-07
1.33438e-09
6.35223e-05
3.08904e-07
9.43356e-10
6.60509e-05
1.58769e-07
1.42587e-09
6.77586e-05
1.67974e-09
1.56419e-09
6.8619e-05
-1.55671e-07
1.50141e-09
6.86191e-05
-3.06488e-07
1.49261e-09
6.77589e-05
-4.44833e-07
1.41876e-09
6.60514e-05
-5.65742e-07
1.26444e-09
6.35229e-05
1.18679e-09
6.02125e-05
-6.62822e-07
5.67696e-07
-1.66123e-07
6.02121e-05
-6.64259e-07
4.47275e-07
-1.61678e-07
6.35225e-05
3.09209e-07
-1.59573e-07
6.60511e-05
1.58897e-07
-1.57354e-07
6.77587e-05
1.66434e-09
-1.56025e-07
6.86191e-05
-1.55693e-07
-1.56033e-07
6.86191e-05
-3.06595e-07
-1.57439e-07
6.77588e-05
-4.45047e-07
-1.59578e-07
6.60514e-05
-5.65854e-07
-1.61733e-07
6.35229e-05
-1.65735e-07
6.02125e-05
-6.62998e-07
5.6681e-07
-3.33537e-07
5.91459e-05
-6.57269e-07
4.48113e-07
-3.21023e-07
6.25384e-05
3.12147e-07
-3.16773e-07
6.51287e-05
1.60267e-07
-3.09499e-07
6.68777e-05
1.73326e-09
-3.06845e-07
6.77588e-05
-1.57065e-07
-3.06972e-07
6.77588e-05
-3.0941e-07
-3.09779e-07
6.68778e-05
-4.45715e-07
-3.16973e-07
6.51289e-05
-5.64985e-07
-3.213e-07
6.25386e-05
-3.33292e-07
5.91462e-05
-6.55953e-07
5.90698e-07
-4.86782e-07
5.70279e-05
-6.84803e-07
4.60815e-07
-4.5879e-07
6.05837e-05
3.19507e-07
-4.58347e-07
6.32973e-05
1.62359e-07
-4.45845e-07
6.51289e-05
1.72582e-09
-4.45226e-07
6.60514e-05
-1.59147e-07
-4.45464e-07
6.60514e-05
-3.16574e-07
-4.46055e-07
6.51289e-05
-4.58471e-07
-4.58845e-07
6.32974e-05
-5.88697e-07
-4.5884e-07
6.05838e-05
-4.86784e-07
5.7028e-05
-6.83475e-07
5.8687e-07
-6.16257e-07
5.3887e-05
-6.89556e-07
4.61189e-07
-5.85331e-07
5.76863e-05
3.23676e-07
-5.88877e-07
6.05838e-05
1.64609e-07
-5.65034e-07
6.25387e-05
1.58652e-09
-5.66299e-07
6.35229e-05
-1.61208e-07
-5.66357e-07
6.35229e-05
-3.20937e-07
-5.65455e-07
6.25386e-05
-4.58523e-07
-5.89029e-07
6.05838e-05
-5.85156e-07
-5.852e-07
5.76862e-05
-6.15972e-07
5.3887e-05
-6.88396e-07
6.18193e-07
4.97684e-05
-7.22965e-07
-7.2333e-07
4.89187e-07
5.38871e-05
-6.89024e-07
3.35762e-07
5.70281e-05
-6.8365e-07
1.68269e-07
5.91463e-05
-6.56368e-07
1.62602e-09
6.02126e-05
-6.63662e-07
-1.65113e-07
6.02125e-05
-6.63942e-07
-3.3269e-07
5.91462e-05
-6.56661e-07
-4.86303e-07
5.70279e-05
-6.84036e-07
-6.16158e-07
5.3887e-05
-6.8838e-07
4.97683e-05
-7.22528e-07
-7.22143e-07
6.11593e-07
6.1169e-07
4.99749e-05
-7.15269e-07
-7.17844e-07
4.8687e-07
5.74934e-07
5.41142e-05
-6.78293e-07
3.31629e-07
5.63082e-07
5.7271e-05
-6.50006e-07
1.65158e-07
5.39458e-07
5.93992e-05
-6.24274e-07
-3.713e-10
5.36805e-07
6.04706e-05
-6.2727e-07
-1.6687e-07
5.37791e-07
6.04707e-05
-6.27531e-07
-3.31469e-07
5.39674e-07
5.93998e-05
-6.26584e-07
-4.85679e-07
5.65753e-07
5.72723e-05
-6.53959e-07
-6.0593e-07
5.76783e-07
5.41175e-05
-6.84951e-07
6.08736e-07
4.99806e-05
-7.12461e-07
-7.12268e-07
5.74692e-07
4.87691e-07
5.41135e-05
-6.78941e-07
4.51996e-07
4.51768e-07
5.79308e-05
3.1338e-07
4.42569e-07
6.08431e-05
1.58828e-07
4.25683e-07
6.28076e-05
3.45823e-10
4.22215e-07
6.37968e-05
-1.57777e-07
4.22949e-07
6.3797e-05
-3.127e-07
4.258e-07
6.28084e-05
-4.51334e-07
4.44571e-07
6.08446e-05
-5.74575e-07
4.5369e-07
5.79338e-05
4.88767e-07
5.41175e-05
-6.83802e-07
5.62774e-07
3.33158e-07
5.72702e-05
-6.50148e-07
4.42102e-07
3.13476e-07
6.08427e-05
3.06212e-07
3.06233e-07
6.35696e-05
1.5502e-07
2.96133e-07
6.54103e-05
9.51489e-11
2.91945e-07
6.63375e-05
-1.54783e-07
2.92264e-07
6.63377e-05
-3.06407e-07
2.96341e-07
6.5411e-05
-4.4246e-07
3.08064e-07
6.35709e-05
-5.6342e-07
3.14718e-07
6.08446e-05
3.33977e-07
5.72723e-05
-6.51847e-07
5.38715e-07
1.66159e-07
5.93985e-05
-6.23153e-07
4.24945e-07
1.58896e-07
6.28071e-05
2.95821e-07
1.5491e-07
6.54101e-05
1.51427e-07
1.5132e-07
6.71677e-05
5.19226e-10
1.49219e-07
6.80533e-05
-1.50189e-07
1.49364e-07
6.80535e-05
-2.94892e-07
1.51304e-07
6.71683e-05
-4.23929e-07
1.55788e-07
6.54111e-05
-5.37243e-07
1.59325e-07
6.28084e-05
1.68173e-07
5.93998e-05
-6.24047e-07
5.358e-07
-2.18094e-10
6.04699e-05
-6.25361e-07
4.21796e-07
3.89441e-10
6.37963e-05
2.91832e-07
-1.72396e-10
6.63371e-05
1.49489e-07
3.52301e-10
6.80532e-05
7.05311e-10
3.64076e-10
6.89178e-05
-1.48258e-07
3.12272e-10
6.8918e-05
-2.91099e-07
3.62731e-10
6.80536e-05
-4.21192e-07
3.97306e-10
6.63378e-05
-5.35669e-07
3.95933e-10
6.37972e-05
4.35801e-10
6.04708e-05
-6.25166e-07
5.36456e-07
-1.67404e-07
6.04702e-05
-6.25319e-07
4.22193e-07
-1.58061e-07
6.37965e-05
2.92143e-07
-1.54915e-07
6.63373e-05
1.4958e-07
-1.50381e-07
6.80533e-05
7.07246e-10
-1.48479e-07
6.89179e-05
-1.48229e-07
-1.4854e-07
6.8918e-05
-2.91131e-07
-1.50545e-07
6.80535e-05
-4.21315e-07
-1.55008e-07
6.63378e-05
-5.35699e-07
-1.58369e-07
6.37972e-05
-1.6728e-07
6.04708e-05
-6.25226e-07
5.3828e-07
-3.32436e-07
5.93993e-05
-6.24453e-07
4.25109e-07
-3.12978e-07
6.28079e-05
2.96098e-07
-3.06511e-07
6.54107e-05
1.51507e-07
-2.94944e-07
6.71681e-05
6.94181e-10
-2.91218e-07
6.80534e-05
-1.50222e-07
-2.91385e-07
6.80535e-05
-2.9505e-07
-2.95309e-07
6.71683e-05
-4.24119e-07
-3.07002e-07
6.5411e-05
-5.37535e-07
-3.13724e-07
6.28083e-05
-3.32891e-07
5.93997e-05
-6.24326e-07
5.64545e-07
-4.86692e-07
5.72719e-05
-6.52306e-07
4.43852e-07
-4.51539e-07
6.08442e-05
3.07749e-07
-4.425e-07
6.35706e-05
1.55878e-07
-4.23904e-07
6.54108e-05
6.05318e-10
-4.21288e-07
6.63377e-05
-1.5469e-07
-4.21478e-07
6.63377e-05
-3.06702e-07
-4.24425e-07
6.5411e-05
-4.42932e-07
-4.4332e-07
6.35709e-05
-5.63751e-07
-4.52491e-07
6.08445e-05
-4.87601e-07
5.72722e-05
-6.52164e-07
5.75753e-07
-6.06711e-07
5.41172e-05
-6.83803e-07
4.52937e-07
-5.74814e-07
5.79335e-05
3.14349e-07
-5.63396e-07
6.08444e-05
1.59151e-07
-5.3726e-07
6.28082e-05
4.70133e-10
-5.3573e-07
6.3797e-05
-1.58263e-07
-5.36005e-07
6.37971e-05
-3.13472e-07
-5.3794e-07
6.28083e-05
-4.52099e-07
-5.64351e-07
6.08445e-05
-5.75153e-07
-5.75844e-07
5.79337e-05
-6.07827e-07
5.41174e-05
-6.83857e-07
6.07983e-07
4.99802e-05
-7.12242e-07
-7.12212e-07
4.87916e-07
5.41172e-05
-6.83508e-07
3.3324e-07
5.72721e-05
-6.51584e-07
1.67737e-07
5.93996e-05
-6.23973e-07
1.94537e-10
6.04707e-05
-6.25238e-07
-1.67307e-07
6.04707e-05
-6.2558e-07
-3.32732e-07
5.93997e-05
-6.24883e-07
-4.87237e-07
5.72722e-05
-6.52941e-07
-6.07199e-07
5.41174e-05
-6.84846e-07
4.99804e-05
-7.12288e-07
-7.13354e-07
6.45705e-07
6.46753e-07
5.01977e-05
-7.57332e-07
-7.58843e-07
5.11877e-07
6.06562e-07
5.43558e-05
-7.14943e-07
3.48614e-07
5.88119e-07
5.75271e-05
-6.81328e-07
1.75333e-07
5.64483e-07
5.9665e-05
-6.5723e-07
2.10392e-10
5.59721e-07
6.07413e-05
-6.55303e-07
-1.7615e-07
5.60454e-07
6.07415e-05
-6.54836e-07
-3.4835e-07
5.63685e-07
5.96657e-05
-6.57108e-07
-5.11613e-07
5.88667e-07
5.75287e-05
-6.8167e-07
-6.41463e-07
6.06101e-07
5.43595e-05
-7.18082e-07
6.423e-07
5.02037e-05
-7.54201e-07
-7.52527e-07
6.06542e-07
5.13034e-07
5.43549e-05
-7.14799e-07
4.7704e-07
4.76582e-07
5.81897e-05
3.2862e-07
4.63616e-07
6.11157e-05
1.66858e-07
4.44176e-07
6.30895e-05
4.67783e-10
4.39476e-07
6.40833e-05
-1.65612e-07
4.40064e-07
6.40836e-05
-3.27648e-07
4.43609e-07
6.30904e-05
-4.76046e-07
4.64155e-07
6.11176e-05
-6.05988e-07
4.76672e-07
5.81933e-05
5.1306e-07
5.43596e-05
-7.18518e-07
5.87913e-07
3.49368e-07
5.75261e-05
-6.8028e-07
4.63591e-07
3.28142e-07
6.11152e-05
3.20996e-07
3.20402e-07
6.38551e-05
1.62622e-07
3.08275e-07
6.57045e-05
-1.32108e-10
3.03668e-07
6.66361e-05
-1.62722e-07
3.03925e-07
6.66364e-05
-3.21251e-07
3.07905e-07
6.57054e-05
-4.63968e-07
3.21158e-07
6.38568e-05
-5.88417e-07
3.28187e-07
6.11177e-05
3.49513e-07
5.75288e-05
-6.80951e-07
5.64179e-07
1.75148e-07
5.96641e-05
-6.55508e-07
4.44248e-07
1.6616e-07
6.30888e-05
3.08817e-07
1.61785e-07
6.57042e-05
1.5775e-07
1.56835e-07
6.74703e-05
2.33207e-10
1.5447e-07
6.83602e-05
-1.57013e-07
1.5456e-07
6.83604e-05
-3.08292e-07
1.56504e-07
6.74711e-05
-4.43676e-07
1.62225e-07
6.57056e-05
-5.63243e-07
1.65929e-07
6.30906e-05