/*--------------------------------*- C++ -*----------------------------------*\
| =========                 |                                                 |
| \\      /  F ield         | OpenFOAM: The Open Source CFD Toolbox           |
|  \\    /   O peration     | Version:  2406                                  |
|   \\  /    A nd           | Website:  www.openfoam.com                      |
|    \\/     M anipulation  |                                                 |
\*---------------------------------------------------------------------------*/
FoamFile
{
    version     2.0;
    format      ascii;
    arch        "LSB;label=32;scalar=64";
    class       volScalarField;
    location    "450";
    object      turbulenceProperties:k;
}
// * * * * * * * * * * * * * * * * * * * * * * * * * * * * * * * * * * * * * //

dimensions      [0 2 -2 0 0 0 0];

internalField   nonuniform List<scalar> 
25000
(
4.03858e-05
3.71462e-05
3.23226e-05
3.20977e-05
3.18985e-05
3.19188e-05
3.22268e-05
3.28093e-05
3.58358e-05
3.75506e-05
3.72048e-05
3.45194e-05
3.16466e-05
3.01507e-05
2.94426e-05
2.9475e-05
3.02518e-05
3.18401e-05
3.48013e-05
3.58544e-05
3.23871e-05
3.16992e-05
2.94609e-05
2.80832e-05
2.74319e-05
2.74533e-05
2.81454e-05
2.95409e-05
3.18317e-05
3.28342e-05
3.21308e-05
3.01757e-05
2.80958e-05
2.67394e-05
2.60774e-05
2.60937e-05
2.67813e-05
2.8154e-05
3.02692e-05
3.22604e-05
3.19154e-05
2.94609e-05
2.74401e-05
2.60806e-05
2.54123e-05
2.5422e-05
2.61071e-05
2.74796e-05
2.95114e-05
3.19642e-05
3.19272e-05
2.94839e-05
2.74597e-05
2.6095e-05
2.54226e-05
2.54286e-05
2.61108e-05
2.74816e-05
2.95124e-05
3.19645e-05
3.2231e-05
3.02595e-05
2.81481e-05
2.67839e-05
2.61092e-05
2.61127e-05
2.67924e-05
2.81602e-05
3.02724e-05
3.22615e-05
3.28085e-05
3.18323e-05
2.95454e-05
2.81583e-05
2.74815e-05
2.74833e-05
2.81626e-05
2.95506e-05
3.18373e-05
3.28357e-05
3.5827e-05
3.48056e-05
3.18481e-05
3.02705e-05
2.95123e-05
2.95134e-05
3.02737e-05
3.1852e-05
3.48084e-05
3.5855e-05
3.75529e-05
3.58684e-05
3.28368e-05
3.22613e-05
3.19637e-05
3.19634e-05
3.22593e-05
3.28327e-05
3.58561e-05
3.75588e-05
5.23535e-05
4.96782e-05
4.66238e-05
4.62313e-05
4.5732e-05
4.57018e-05
4.60834e-05
4.68203e-05
5.0142e-05
5.16732e-05
4.9651e-05
4.70755e-05
4.55893e-05
4.48163e-05
4.42702e-05
4.4256e-05
4.4782e-05
4.56575e-05
4.75602e-05
5.01499e-05
4.65381e-05
4.55986e-05
4.38925e-05
4.32681e-05
4.29319e-05
4.29312e-05
4.33041e-05
4.39875e-05
4.56047e-05
4.68387e-05
4.61759e-05
4.47706e-05
4.32552e-05
4.24815e-05
4.20938e-05
4.21028e-05
4.25068e-05
4.3297e-05
4.47819e-05
4.61039e-05
4.57214e-05
4.42507e-05
4.29156e-05
4.20929e-05
4.17092e-05
4.17112e-05
4.20989e-05
4.29285e-05
4.42549e-05
4.57196e-05
4.5707e-05
4.42484e-05
4.29241e-05
4.20958e-05
4.17113e-05
4.17126e-05
4.20994e-05
4.29291e-05
4.42558e-05
4.57197e-05
4.60952e-05
4.47791e-05
4.32946e-05
4.25072e-05
4.21046e-05
4.21051e-05
4.25092e-05
4.32991e-05
4.47835e-05
4.61044e-05
4.68298e-05
4.56049e-05
4.39876e-05
4.33059e-05
4.29315e-05
4.29318e-05
4.33069e-05
4.39904e-05
4.5608e-05
4.68398e-05
5.01304e-05
4.75603e-05
4.56589e-05
4.47871e-05
4.42579e-05
4.42579e-05
4.47881e-05
4.56627e-05
4.75638e-05
5.01468e-05
5.1678e-05
5.01775e-05
4.68459e-05
4.61091e-05
4.57235e-05
4.57216e-05
4.61039e-05
4.68401e-05
5.01636e-05
5.16845e-05
4.75496e-05
4.42986e-05
4.27172e-05
4.1491e-05
4.08325e-05
4.08484e-05
4.13606e-05
4.24943e-05
4.44726e-05
4.75667e-05
4.42364e-05
4.15734e-05
4.0841e-05
4.01534e-05
3.97063e-05
3.97101e-05
4.01456e-05
4.08232e-05
4.15683e-05
4.44497e-05
4.25994e-05
4.08531e-05
3.95656e-05
3.90121e-05
3.86334e-05
3.86332e-05
3.90338e-05
3.96489e-05
4.07547e-05
4.2497e-05
4.1443e-05
4.01126e-05
3.90033e-05
3.83748e-05
3.79763e-05
3.7979e-05
3.8375e-05
3.90256e-05
4.01442e-05
4.13706e-05
4.08227e-05
3.96906e-05
3.86229e-05
3.79806e-05
3.76448e-05
3.76418e-05
3.79739e-05
3.86367e-05
3.97166e-05
4.0863e-05
4.08445e-05
3.97025e-05
3.86288e-05
3.79737e-05
3.7643e-05
3.76417e-05
3.79738e-05
3.86367e-05
3.97166e-05
4.08631e-05
4.13615e-05
4.01362e-05
3.90225e-05
3.8377e-05
3.79816e-05
3.79806e-05
3.83759e-05
3.90257e-05
4.01436e-05
4.13706e-05
4.24906e-05
4.07485e-05
3.96493e-05
3.90385e-05
3.86399e-05
3.86386e-05
3.90355e-05
3.96487e-05
4.07538e-05
4.24973e-05
4.44455e-05
4.15671e-05
4.08312e-05
4.01562e-05
3.9721e-05
3.97184e-05
4.01497e-05
4.08259e-05
4.15683e-05
4.44501e-05
4.75649e-05
4.44805e-05
4.25127e-05
4.13802e-05
4.08694e-05
4.08659e-05
4.13707e-05
4.25019e-05
4.44772e-05
4.75699e-05
3.63557e-05
3.24896e-05
3.17082e-05
3.01725e-05
2.96444e-05
2.96866e-05
3.01118e-05
3.13179e-05
3.21622e-05
3.60893e-05
3.23899e-05
2.99582e-05
2.94842e-05
2.87359e-05
2.84184e-05
2.84395e-05
2.87841e-05
2.94937e-05
2.97726e-05
3.21423e-05
3.16225e-05
2.95051e-05
2.84383e-05
2.77873e-05
2.73647e-05
2.7374e-05
2.78101e-05
2.85352e-05
2.94375e-05
3.13308e-05
3.01685e-05
2.87285e-05
2.77929e-05
2.71535e-05
2.67288e-05
2.67328e-05
2.71471e-05
2.78063e-05
2.87897e-05
3.01337e-05
2.9655e-05
2.84243e-05
2.73715e-05
2.67404e-05
2.63831e-05
2.63805e-05
2.67321e-05
2.7387e-05
2.8457e-05
2.97071e-05
2.96883e-05
2.84438e-05
2.73819e-05
2.67362e-05
2.63846e-05
2.63823e-05
2.67329e-05
2.73872e-05
2.84564e-05
2.97067e-05
3.01108e-05
2.87801e-05
2.78085e-05
2.71555e-05
2.67424e-05
2.67398e-05
2.71501e-05
2.78067e-05
2.87872e-05
3.01318e-05
3.13066e-05
2.94275e-05
2.85408e-05
2.78223e-05
2.73918e-05
2.73891e-05
2.78154e-05
2.85352e-05
2.94331e-05
3.13274e-05
3.21279e-05
2.97722e-05
2.95106e-05
2.88034e-05
2.84609e-05
2.84573e-05
2.87933e-05
2.94993e-05
2.97723e-05
3.21435e-05
3.60886e-05
3.21788e-05
3.13536e-05
3.01443e-05
2.97125e-05
2.97078e-05
3.01305e-05
3.13338e-05
3.21702e-05
3.60963e-05
2.81249e-05
2.44153e-05
2.37011e-05
2.22486e-05
2.18597e-05
2.19143e-05
2.22731e-05
2.34075e-05
2.3977e-05
2.7531e-05
2.43228e-05
2.21265e-05
2.15024e-05
2.06544e-05
2.03988e-05
2.04298e-05
2.07471e-05
2.15959e-05
2.20077e-05
2.39666e-05
2.36753e-05
2.15382e-05
2.05018e-05
1.96653e-05
1.92003e-05
1.92197e-05
1.96936e-05
2.06087e-05
2.15495e-05
2.34252e-05
2.22756e-05
2.06709e-05
1.96808e-05
1.88961e-05
1.84279e-05
1.84356e-05
1.88923e-05
1.96909e-05
2.07511e-05
2.22945e-05
2.1879e-05
2.04144e-05
1.9215e-05
1.84416e-05
1.8007e-05
1.80074e-05
1.84369e-05
1.92341e-05
2.04445e-05
2.19248e-05
2.1917e-05
2.0437e-05
1.92306e-05
1.84413e-05
1.80117e-05
1.80104e-05
1.84381e-05
1.9234e-05
2.0443e-05
2.19225e-05
2.22717e-05
2.07449e-05
1.96945e-05
1.89011e-05
1.84462e-05
1.84443e-05
1.88953e-05
1.96901e-05
2.07461e-05
2.22877e-05
2.33934e-05
2.15398e-05
2.06142e-05
1.97041e-05
1.92382e-05
1.92361e-05
1.96979e-05
2.06065e-05
2.15405e-05
2.34136e-05
2.3943e-05
2.20071e-05
2.16107e-05
2.07613e-05
2.0447e-05
2.04449e-05
2.07539e-05
2.15988e-05
2.20041e-05
2.39594e-05
2.75259e-05
2.39994e-05
2.34423e-05
2.23e-05
2.19281e-05
2.1926e-05
2.22909e-05
2.34255e-05
2.39878e-05
2.75394e-05
2.33236e-05
2.0232e-05
1.94624e-05
1.83028e-05
1.80369e-05
1.80958e-05
1.8391e-05
1.93263e-05
1.98654e-05
2.2602e-05
2.01785e-05
1.84291e-05
1.76841e-05
1.68986e-05
1.66875e-05
1.67203e-05
1.70152e-05
1.78679e-05
1.84443e-05
1.98697e-05
1.94763e-05
1.77313e-05
1.68227e-05
1.59704e-05
1.5536e-05
1.55599e-05
1.59999e-05
1.69334e-05
1.78241e-05
1.935e-05
1.83337e-05
1.69179e-05
1.59865e-05
1.51672e-05
1.4725e-05
1.47353e-05
1.51678e-05
1.59954e-05
1.70125e-05
1.84082e-05
1.80466e-05
1.66953e-05
1.55459e-05
1.47353e-05
1.4296e-05
1.43e-05
1.47356e-05
1.55693e-05
1.67249e-05
1.80919e-05
1.80916e-05
1.67201e-05
1.55636e-05
1.47362e-05
1.43018e-05
1.43027e-05
1.47366e-05
1.55691e-05
1.67232e-05
1.80883e-05
1.83893e-05
1.70104e-05
1.59964e-05
1.51716e-05
1.47414e-05
1.47415e-05
1.51691e-05
1.59938e-05
1.70074e-05
1.83977e-05
1.93166e-05
1.78178e-05
1.6936e-05
1.60042e-05
1.55711e-05
1.55706e-05
1.60011e-05
1.693e-05
1.78137e-05
1.93313e-05
1.98405e-05
1.84462e-05
1.78778e-05
1.70194e-05
1.67257e-05
1.67256e-05
1.70162e-05
1.78679e-05
1.8439e-05
1.98539e-05
2.25945e-05
1.98963e-05
1.93585e-05
1.84078e-05
1.80931e-05
1.8094e-05
1.84044e-05
1.93452e-05
1.98806e-05
2.26057e-05
2.08967e-05
1.86282e-05
1.78663e-05
1.69589e-05
1.67818e-05
1.6843e-05
1.71006e-05
1.78959e-05
1.84224e-05
2.02679e-05
1.86265e-05
1.73191e-05
1.65558e-05
1.5897e-05
1.57166e-05
1.57477e-05
1.60253e-05
1.68168e-05
1.74812e-05
1.8439e-05
1.79085e-05
1.66143e-05
1.58819e-05
1.51246e-05
1.47561e-05
1.47828e-05
1.51538e-05
1.59934e-05
1.67677e-05
1.79216e-05
1.69908e-05
1.59158e-05
1.51392e-05
1.44013e-05
1.4038e-05
1.40521e-05
1.44087e-05
1.51467e-05
1.60154e-05
1.71137e-05
1.67809e-05
1.57149e-05
1.47592e-05
1.40442e-05
1.3682e-05
1.36904e-05
1.40513e-05
1.47871e-05
1.57435e-05
1.68287e-05
1.68333e-05
1.57398e-05
1.47779e-05
1.40468e-05
1.36898e-05
1.36935e-05
1.40524e-05
1.47876e-05
1.57427e-05
1.6825e-05
1.70982e-05
1.60157e-05
1.51444e-05
1.44079e-05
1.40554e-05
1.40574e-05
1.441e-05
1.51463e-05
1.60126e-05
1.71024e-05
1.78901e-05
1.6764e-05
1.59925e-05
1.51531e-05
1.47883e-05
1.479e-05
1.51549e-05
1.59915e-05
1.676e-05
1.78999e-05
1.84049e-05
1.74804e-05
1.68178e-05
1.60203e-05
1.57437e-05
1.57463e-05
1.6024e-05
1.68164e-05
1.74766e-05
1.84171e-05
2.02633e-05
1.84558e-05
1.792e-05
1.71066e-05
1.68277e-05
1.68313e-05
1.71123e-05
1.79165e-05
1.84434e-05
2.02677e-05
1.99804e-05
1.83742e-05
1.7667e-05
1.69692e-05
1.68382e-05
1.68889e-05
1.71249e-05
1.78119e-05
1.8339e-05
1.95176e-05
1.84057e-05
1.74157e-05
1.67207e-05
1.61807e-05
1.60029e-05
1.60254e-05
1.62932e-05
1.70048e-05
1.76724e-05
1.83539e-05
1.77229e-05
1.67859e-05
1.61814e-05
1.55061e-05
1.51819e-05
1.52087e-05
1.55294e-05
1.62745e-05
1.69436e-05
1.78242e-05
1.69948e-05
1.61946e-05
1.55183e-05
1.48476e-05
1.45395e-05
1.45573e-05
1.48607e-05
1.55189e-05
1.62745e-05
1.71268e-05
1.68262e-05
1.59913e-05
1.51781e-05
1.45419e-05
1.42435e-05
1.42559e-05
1.45547e-05
1.52075e-05
1.6011e-05
1.68608e-05
1.68751e-05
1.60111e-05
1.51964e-05
1.45462e-05
1.42531e-05
1.42592e-05
1.45562e-05
1.52088e-05
1.60115e-05
1.6858e-05
1.71206e-05
1.62793e-05
1.55144e-05
1.48563e-05
1.45582e-05
1.45622e-05
1.48625e-05
1.55204e-05
1.62756e-05
1.71181e-05
1.7804e-05
1.69465e-05
1.62719e-05
1.55253e-05
1.52098e-05
1.52135e-05
1.55318e-05
1.62757e-05
1.69415e-05
1.78055e-05
1.8321e-05
1.76709e-05
1.69976e-05
1.6282e-05
1.60137e-05
1.60181e-05
1.62916e-05
1.70046e-05
1.76703e-05
1.83312e-05
1.95078e-05
1.83617e-05
1.78168e-05
1.71173e-05
1.68603e-05
1.68666e-05
1.71328e-05
1.78288e-05
1.83604e-05
1.95151e-05
1.9543e-05
1.83472e-05
1.7747e-05
1.72222e-05
1.71057e-05
1.71388e-05
1.73602e-05
1.79457e-05
1.844e-05
1.92099e-05
1.83971e-05
1.76388e-05
1.70688e-05
1.6626e-05
1.64409e-05
1.64539e-05
1.67148e-05
1.73458e-05
1.79401e-05
1.84422e-05
1.78024e-05
1.71353e-05
1.66171e-05
1.60024e-05
1.57059e-05
1.57323e-05
1.60237e-05
1.66927e-05
1.72732e-05
1.79394e-05
1.72349e-05
1.66319e-05
1.60103e-05
1.53885e-05
1.51112e-05
1.51321e-05
1.54084e-05
1.60103e-05
1.66902e-05
1.73529e-05
1.70859e-05
1.64206e-05
1.56946e-05
1.51098e-05
1.48503e-05
1.48652e-05
1.5127e-05
1.57264e-05
1.64344e-05
1.71057e-05
1.71254e-05
1.64357e-05
1.57138e-05
1.51163e-05
1.48607e-05
1.48678e-05
1.51283e-05
1.57278e-05
1.64356e-05
1.71044e-05
1.7356e-05
1.66973e-05
1.60044e-05
1.54017e-05
1.51303e-05
1.51349e-05
1.54093e-05
1.60121e-05
1.66934e-05
1.73489e-05
1.79364e-05
1.72826e-05
1.66898e-05
1.60178e-05
1.57298e-05
1.57338e-05
1.60254e-05
1.66946e-05
1.7275e-05
1.79288e-05
1.84229e-05
1.79396e-05
1.73339e-05
1.67017e-05
1.6439e-05
1.64433e-05
1.67124e-05
1.73443e-05
1.79398e-05
1.84257e-05
1.91995e-05
1.84466e-05
1.79332e-05
1.73453e-05
1.71062e-05
1.71128e-05
1.7365e-05
1.79564e-05
1.84585e-05
1.92098e-05
1.90837e-05
1.815e-05
1.7681e-05
1.72824e-05
1.71608e-05
1.71762e-05
1.73859e-05
1.7884e-05
1.83081e-05
1.88371e-05
1.8198e-05
1.76385e-05
1.71985e-05
1.68229e-05
1.663e-05
1.6635e-05
1.68871e-05
1.74502e-05
1.79411e-05
1.82913e-05
1.77218e-05
1.72596e-05
1.68024e-05
1.6235e-05
1.59583e-05
1.59836e-05
1.6256e-05
1.68643e-05
1.73689e-05
1.78578e-05
1.72779e-05
1.68186e-05
1.62388e-05
1.56611e-05
1.54029e-05
1.54249e-05
1.56853e-05
1.62408e-05
1.68589e-05
1.73711e-05
1.71356e-05
1.66036e-05
1.59423e-05
1.53993e-05
1.51641e-05
1.51791e-05
1.54169e-05
1.59742e-05
1.66137e-05
1.71427e-05
1.71641e-05
1.66152e-05
1.59628e-05
1.54072e-05
1.5174e-05
1.51806e-05
1.54178e-05
1.59754e-05
1.66151e-05
1.71426e-05
1.73804e-05
1.68672e-05
1.62356e-05
1.56786e-05
1.54206e-05
1.54249e-05
1.56847e-05
1.62422e-05
1.68634e-05
1.73713e-05
1.78689e-05
1.73832e-05
1.68632e-05
1.62508e-05
1.59787e-05
1.59817e-05
1.62565e-05
1.68663e-05
1.73738e-05
1.78554e-05
1.82856e-05
1.79427e-05
1.74379e-05
1.68756e-05
1.66199e-05
1.66228e-05
1.68841e-05
1.74475e-05
1.79429e-05
1.82828e-05
1.88245e-05
1.83004e-05
1.786e-05
1.73684e-05
1.71442e-05
1.71499e-05
1.73875e-05
1.78869e-05
1.83204e-05
1.88373e-05
1.85588e-05
1.77841e-05
1.74419e-05
1.71293e-05
1.69961e-05
1.69982e-05
1.7197e-05
1.76211e-05
1.79576e-05
1.83565e-05
1.78214e-05
1.74415e-05
1.71065e-05
1.67738e-05
1.65779e-05
1.65782e-05
1.68206e-05
1.73306e-05
1.77233e-05
1.79239e-05
1.74642e-05
1.71611e-05
1.67469e-05
1.6218e-05
1.59582e-05
1.59828e-05
1.62424e-05
1.68027e-05
1.72448e-05
1.75807e-05
1.71108e-05
1.67618e-05
1.62181e-05
1.56807e-05
1.54361e-05
1.54583e-05
1.57089e-05
1.62265e-05
1.67916e-05
1.71785e-05
1.69692e-05
1.65481e-05
1.59388e-05
1.54308e-05
1.52109e-05
1.52254e-05
1.5448e-05
1.59711e-05
1.65583e-05
1.69685e-05
1.69875e-05
1.65578e-05
1.59603e-05
1.54392e-05
1.52198e-05
1.52258e-05
1.54484e-05
1.59719e-05
1.65593e-05
1.69694e-05
1.71894e-05
1.6798e-05
1.62209e-05
1.57018e-05
1.54518e-05
1.54556e-05
1.57069e-05
1.62269e-05
1.67958e-05
1.71821e-05
1.75999e-05
1.72594e-05
1.68019e-05
1.62376e-05
1.5976e-05
1.59781e-05
1.62418e-05
1.68041e-05
1.72509e-05
1.75855e-05
1.79297e-05
1.77245e-05
1.73183e-05
1.6811e-05
1.65647e-05
1.65665e-05
1.68175e-05
1.7327e-05
1.7726e-05
1.79239e-05
1.83475e-05
1.79408e-05
1.75919e-05
1.71805e-05
1.69709e-05
1.69753e-05
1.71971e-05
1.76182e-05
1.79641e-05
1.83586e-05
1.80778e-05
1.73301e-05
1.70864e-05
1.68306e-05
1.66863e-05
1.66789e-05
1.68658e-05
1.7229e-05
1.74858e-05
1.78921e-05
1.73547e-05
1.71247e-05
1.68649e-05
1.65604e-05
1.63656e-05
1.63638e-05
1.65954e-05
1.70625e-05
1.73727e-05
1.7441e-05
1.70938e-05
1.69139e-05
1.65315e-05
1.6036e-05
1.57907e-05
1.58144e-05
1.60649e-05
1.65864e-05
1.69753e-05
1.71806e-05
1.68043e-05
1.65437e-05
1.60337e-05
1.55314e-05
1.52968e-05
1.53184e-05
1.55626e-05
1.60496e-05
1.65677e-05
1.68467e-05
1.6661e-05
1.63356e-05
1.577e-05
1.52905e-05
1.50802e-05
1.50938e-05
1.5307e-05
1.58026e-05
1.63464e-05
1.66535e-05
1.66704e-05
1.63448e-05
1.57923e-05
1.52992e-05
1.50881e-05
1.50935e-05
1.53071e-05
1.58029e-05
1.63467e-05
1.66541e-05
1.68573e-05
1.65729e-05
1.60442e-05
1.5556e-05
1.5311e-05
1.53143e-05
1.55599e-05
1.6049e-05
1.65705e-05
1.68504e-05
1.72023e-05
1.69902e-05
1.65869e-05
1.60621e-05
1.58078e-05
1.5809e-05
1.60642e-05
1.65874e-05
1.69809e-05
1.71878e-05
1.74514e-05
1.73745e-05
1.70522e-05
1.65894e-05
1.63534e-05
1.6354e-05
1.65931e-05
1.70582e-05
1.73746e-05
1.74447e-05
1.78831e-05
1.74635e-05
1.71979e-05
1.68517e-05
1.66567e-05
1.66601e-05
1.68655e-05
1.72219e-05
1.74865e-05
1.78937e-05
1.77568e-05
1.68466e-05
1.66606e-05
1.64432e-05
1.62945e-05
1.6283e-05
1.64577e-05
1.67704e-05
1.69737e-05
1.75705e-05
1.68647e-05
1.67425e-05
1.65347e-05
1.62533e-05
1.60649e-05
1.60635e-05
1.62851e-05
1.67157e-05
1.69599e-05
1.69258e-05
1.66613e-05
1.65812e-05
1.62279e-05
1.57646e-05
1.55331e-05
1.55559e-05
1.57991e-05
1.62876e-05
1.66305e-05
1.67225e-05
1.64161e-05
1.62353e-05
1.57604e-05
1.52908e-05
1.50649e-05
1.50853e-05
1.53239e-05
1.57854e-05
1.62609e-05
1.64425e-05
1.62729e-05
1.60361e-05
1.55115e-05
1.50579e-05
1.48548e-05
1.48672e-05
1.50734e-05
1.55452e-05
1.6051e-05
1.62648e-05
1.62765e-05
1.60461e-05
1.55343e-05
1.50661e-05
1.48614e-05
1.48663e-05
1.50731e-05
1.5545e-05
1.60504e-05
1.62645e-05
1.64492e-05
1.62628e-05
1.57793e-05
1.53179e-05
1.50775e-05
1.50802e-05
1.53207e-05
1.57836e-05
1.62614e-05
1.64441e-05
1.67419e-05
1.66431e-05
1.62889e-05
1.57985e-05
1.55503e-05
1.55506e-05
1.57986e-05
1.62877e-05
1.66335e-05
1.67281e-05
1.69368e-05
1.69607e-05
1.67074e-05
1.62826e-05
1.60572e-05
1.60568e-05
1.62838e-05
1.67107e-05
1.69595e-05
1.69297e-05
1.75628e-05
1.69497e-05
1.67411e-05
1.64474e-05
1.62674e-05
1.62699e-05
1.64583e-05
1.67615e-05
1.69704e-05
1.75718e-05
1.77153e-05
1.64035e-05
1.6215e-05
1.6021e-05
1.58739e-05
1.58628e-05
1.60267e-05
1.63018e-05
1.65015e-05
1.75207e-05
1.64179e-05
1.63372e-05
1.61675e-05
1.59089e-05
1.57301e-05
1.57307e-05
1.59427e-05
1.63403e-05
1.65316e-05
1.64555e-05
1.62134e-05
1.62117e-05
1.58906e-05
1.54597e-05
1.52408e-05
1.52619e-05
1.54985e-05
1.59577e-05
1.62583e-05
1.62584e-05
1.59956e-05
1.58899e-05
1.54542e-05
1.50153e-05
1.47967e-05
1.48146e-05
1.50474e-05
1.54864e-05
1.59221e-05
1.60163e-05
1.58554e-05
1.57023e-05
1.52189e-05
1.47892e-05
1.45918e-05
1.46024e-05
1.48024e-05
1.52528e-05
1.57229e-05
1.58517e-05
1.58563e-05
1.57137e-05
1.52409e-05
1.47957e-05
1.45965e-05
1.46008e-05
1.48021e-05
1.52524e-05
1.57216e-05
1.58499e-05
1.60162e-05
1.59197e-05
1.5479e-05
1.50415e-05
1.48061e-05
1.48086e-05
1.50444e-05
1.54844e-05
1.59208e-05
1.60138e-05
1.62708e-05
1.62672e-05
1.59587e-05
1.5499e-05
1.52569e-05
1.52569e-05
1.54987e-05
1.59577e-05
1.62591e-05
1.6259e-05
1.64613e-05
1.65307e-05
1.63336e-05
1.59424e-05
1.57275e-05
1.57268e-05
1.59427e-05
1.63357e-05
1.65293e-05
1.64558e-05
1.75109e-05
1.6478e-05
1.62753e-05
1.60187e-05
1.58522e-05
1.58544e-05
1.60279e-05
1.62929e-05
1.6496e-05
1.75196e-05
1.79099e-05
1.60517e-05
1.57792e-05
1.55945e-05
1.54559e-05
1.54506e-05
1.56066e-05
1.58607e-05
1.61337e-05
1.77056e-05
1.60677e-05
1.59301e-05
1.57899e-05
1.55578e-05
1.53933e-05
1.53979e-05
1.56008e-05
1.59674e-05
1.61171e-05
1.60924e-05
1.57799e-05
1.5834e-05
1.55507e-05
1.51538e-05
1.49472e-05
1.49665e-05
1.51962e-05
1.56282e-05
1.58887e-05
1.58233e-05
1.55738e-05
1.55402e-05
1.51476e-05
1.47382e-05
1.45258e-05
1.45406e-05
1.4767e-05
1.51851e-05
1.55825e-05
1.55999e-05
1.54409e-05
1.53671e-05
1.49252e-05
1.4518e-05
1.43253e-05
1.43336e-05
1.45276e-05
1.49579e-05
1.53937e-05
1.54457e-05
1.54439e-05
1.53808e-05
1.49453e-05
1.45215e-05
1.43274e-05
1.43312e-05
1.45273e-05
1.49576e-05
1.53922e-05
1.54427e-05
1.5595e-05
1.55766e-05
1.51759e-05
1.47602e-05
1.45306e-05
1.45334e-05
1.47643e-05
1.51834e-05
1.55803e-05
1.55939e-05
1.58302e-05
1.58943e-05
1.5628e-05
1.51962e-05
1.49606e-05
1.4961e-05
1.51971e-05
1.56285e-05
1.58877e-05
1.58191e-05
1.60949e-05
1.6116e-05
1.59618e-05
1.56007e-05
1.53961e-05
1.53958e-05
1.56012e-05
1.59632e-05
1.61135e-05
1.60887e-05
1.76964e-05
1.61141e-05
1.58386e-05
1.55996e-05
1.54438e-05
1.5446e-05
1.56075e-05
1.58525e-05
1.61277e-05
1.77026e-05
1.78976e-05
1.58572e-05
1.53885e-05
1.51901e-05
1.50611e-05
1.50642e-05
1.52175e-05
1.54777e-05
1.59352e-05
1.76905e-05
1.58744e-05
1.55416e-05
1.54216e-05
1.52184e-05
1.50698e-05
1.50785e-05
1.52717e-05
1.56084e-05
1.57304e-05
1.58972e-05
1.5392e-05
1.54659e-05
1.52251e-05
1.48621e-05
1.46665e-05
1.46828e-05
1.4905e-05
1.53105e-05
1.55313e-05
1.54434e-05
1.51745e-05
1.52031e-05
1.48564e-05
1.44741e-05
1.42661e-05
1.42767e-05
1.4496e-05
1.48938e-05
1.52529e-05
1.52104e-05
1.50497e-05
1.50459e-05
1.46451e-05
1.42582e-05
1.40686e-05
1.4074e-05
1.42622e-05
1.46732e-05
1.50745e-05
1.50613e-05
1.50575e-05
1.50611e-05
1.46613e-05
1.42568e-05
1.40673e-05
1.40704e-05
1.42617e-05
1.46729e-05
1.50729e-05
1.50575e-05
1.52054e-05
1.52459e-05
1.48827e-05
1.44871e-05
1.42635e-05
1.42668e-05
1.4493e-05
1.48922e-05
1.52503e-05
1.5202e-05
1.54491e-05
1.55358e-05
1.53081e-05
1.4902e-05
1.46735e-05
1.46746e-05
1.49049e-05
1.53104e-05
1.55296e-05
1.54356e-05
1.58995e-05
1.57315e-05
1.56033e-05
1.52689e-05
1.50744e-05
1.50745e-05
1.52698e-05
1.56034e-05
1.5726e-05
1.58902e-05
1.76828e-05
1.5922e-05
1.54599e-05
1.52088e-05
1.50572e-05
1.50591e-05
1.52143e-05
1.54681e-05
1.59282e-05
1.76844e-05
1.6236e-05
1.58592e-05
1.50779e-05
1.48289e-05
1.47028e-05
1.47143e-05
1.48731e-05
1.51792e-05
1.59403e-05
1.60418e-05
1.58767e-05
1.51934e-05
1.50735e-05
1.4898e-05
1.47651e-05
1.47768e-05
1.49591e-05
1.52681e-05
1.53863e-05
1.59039e-05
1.5083e-05
1.51184e-05
1.492e-05
1.45889e-05
1.44028e-05
1.44158e-05
1.46293e-05
1.50084e-05
1.51916e-05
1.51459e-05
1.48172e-05
1.48853e-05
1.45837e-05
1.4226e-05
1.40212e-05
1.40273e-05
1.42393e-05
1.46167e-05
1.49376e-05
1.48625e-05
1.46937e-05
1.47425e-05
1.43813e-05
1.40127e-05
1.38256e-05
1.38281e-05
1.40107e-05
1.44029e-05
1.47695e-05
1.47096e-05
1.47074e-05
1.47577e-05
1.43919e-05
1.40054e-05
1.38202e-05
1.3823e-05
1.40095e-05
1.44023e-05
1.47681e-05
1.47061e-05
1.48616e-05
1.49306e-05
1.46027e-05
1.42264e-05
1.40094e-05
1.40135e-05
1.42346e-05
1.46143e-05
1.49353e-05
1.48546e-05
1.51546e-05
1.5196e-05
1.50024e-05
1.46206e-05
1.43999e-05
1.44021e-05
1.4626e-05
1.50068e-05
1.51902e-05
1.51382e-05
1.59103e-05
1.53908e-05
1.52626e-05
1.49513e-05
1.47668e-05
1.47673e-05
1.49525e-05
1.52614e-05
1.53822e-05
1.58969e-05
1.60379e-05
1.59353e-05
1.51662e-05
1.48618e-05
1.47044e-05
1.47053e-05
1.48638e-05
1.51675e-05
1.59327e-05
1.6034e-05
1.16611e-05
1.5992e-05
1.48854e-05
1.45333e-05
1.43936e-05
1.44102e-05
1.45878e-05
1.49945e-05
1.60765e-05
1.15927e-05
1.60086e-05
1.49097e-05
1.47529e-05
1.45979e-05
1.44777e-05
1.44906e-05
1.46616e-05
1.49485e-05
1.5102e-05
1.60398e-05
1.48903e-05
1.47983e-05
1.46349e-05
1.43313e-05
1.41529e-05
1.41624e-05
1.43672e-05
1.47205e-05
1.48718e-05
1.49601e-05
1.45229e-05
1.45873e-05
1.43269e-05
1.39903e-05
1.37879e-05
1.37904e-05
1.39955e-05
1.43526e-05
1.46359e-05
1.45721e-05
1.43849e-05
1.44555e-05
1.4131e-05
1.37787e-05
1.35941e-05
1.35945e-05
1.37722e-05
1.41458e-05
1.44777e-05
1.44009e-05
1.44029e-05
1.44686e-05
1.41353e-05
1.37658e-05
1.35852e-05
1.35882e-05
1.37702e-05
1.41448e-05
1.44769e-05
1.43988e-05
1.45776e-05
1.46297e-05
1.43351e-05
1.39777e-05
1.37678e-05
1.37729e-05
1.39886e-05
1.43489e-05
1.46349e-05
1.45676e-05
1.49739e-05
1.48764e-05
1.47101e-05
1.43517e-05
1.41395e-05
1.41428e-05
1.43597e-05
1.47172e-05
1.48722e-05
1.49561e-05
1.6052e-05
1.51099e-05
1.4942e-05
1.46481e-05
1.44733e-05
1.44742e-05
1.46499e-05
1.49405e-05
1.51e-05
1.60358e-05
1.15912e-05
1.60793e-05
1.49864e-05
1.45747e-05
1.43961e-05
1.43957e-05
1.45727e-05
1.49813e-05
1.60694e-05
1.15842e-05
2.48413e-05
1.59008e-05
1.48295e-05
1.43227e-05
1.41456e-05
1.41636e-05
1.43788e-05
1.49378e-05
1.59835e-05
2.50861e-05
1.59166e-05
1.47118e-05
1.44651e-05
1.43168e-05
1.42049e-05
1.42173e-05
1.43785e-05
1.46543e-05
1.48954e-05
1.59463e-05
1.48338e-05
1.45118e-05
1.43672e-05
1.40854e-05
1.39136e-05
1.39204e-05
1.41166e-05
1.44456e-05
1.45772e-05
1.49016e-05
1.4313e-05
1.43089e-05
1.40821e-05
1.37635e-05
1.35638e-05
1.35644e-05
1.37634e-05
1.41e-05
1.43484e-05
1.43576e-05
1.41372e-05
1.41833e-05
1.38915e-05
1.35542e-05
1.33728e-05
1.33725e-05
1.35456e-05
1.39007e-05
1.41984e-05
1.41482e-05
1.41567e-05
1.41932e-05
1.38904e-05
1.35376e-05
1.33621e-05
1.33656e-05
1.35429e-05
1.3899e-05
1.41982e-05
1.41486e-05
1.43708e-05
1.43437e-05
1.40797e-05
1.37415e-05
1.3539e-05
1.35447e-05
1.37542e-05
1.40948e-05
1.43489e-05
1.43591e-05
1.49217e-05
1.45821e-05
1.44313e-05
1.40954e-05
1.38923e-05
1.38962e-05
1.41051e-05
1.44403e-05
1.45798e-05
1.49044e-05
1.59657e-05
1.4906e-05
1.46466e-05
1.43602e-05
1.4194e-05
1.4195e-05
1.43623e-05
1.46453e-05
1.48962e-05
1.59484e-05
2.50827e-05
1.59928e-05
1.49343e-05
1.43652e-05
1.41459e-05
1.41442e-05
1.43597e-05
1.49245e-05
1.59779e-05
2.5084e-05
7.85777e-05
1.47226e-05
1.48703e-05
1.42117e-05
1.39727e-05
1.39876e-05
1.42589e-05
1.4967e-05
1.47925e-05
7.89085e-05
1.47352e-05
1.4605e-05
1.42184e-05
1.40549e-05
1.39448e-05
1.39552e-05
1.41095e-05
1.43925e-05
1.47694e-05
1.47566e-05
1.48742e-05
1.42666e-05
1.41143e-05
1.38481e-05
1.36816e-05
1.36867e-05
1.38751e-05
1.41821e-05
1.4315e-05
1.49289e-05
1.42027e-05
1.40502e-05
1.38464e-05
1.35429e-05
1.33468e-05
1.33472e-05
1.35407e-05
1.38569e-05
1.40757e-05
1.4233e-05
1.39658e-05
1.39255e-05
1.3661e-05
1.33377e-05
1.31606e-05
1.31606e-05
1.33293e-05
1.36654e-05
1.39309e-05
1.39658e-05
1.39836e-05
1.39319e-05
1.36565e-05
1.33202e-05
1.31503e-05
1.31542e-05
1.3326e-05
1.3663e-05
1.39313e-05
1.39689e-05
1.42554e-05
1.40752e-05
1.38367e-05
1.35177e-05
1.33224e-05
1.33279e-05
1.35299e-05
1.385e-05
1.40773e-05
1.42407e-05
1.4956e-05
1.43223e-05
1.41669e-05
1.3852e-05
1.36577e-05
1.36611e-05
1.38606e-05
1.41745e-05
1.43192e-05
1.49386e-05
1.47848e-05
1.47827e-05
1.43854e-05
1.40901e-05
1.39294e-05
1.39296e-05
1.40903e-05
1.43826e-05
1.47719e-05
1.47659e-05
7.88973e-05
1.48082e-05
1.49674e-05
1.42471e-05
1.39682e-05
1.39651e-05
1.42381e-05
1.49543e-05
1.47881e-05
7.8906e-05
0.000185507
1.1969e-05
1.48176e-05
1.4178e-05
1.38713e-05
1.38803e-05
1.42096e-05
1.48944e-05
1.20166e-05
0.000185905
1.19761e-05
1.45359e-05
1.40182e-05
1.38106e-05
1.36951e-05
1.37029e-05
1.38561e-05
1.41731e-05
1.46747e-05
1.19856e-05
1.48208e-05
1.40682e-05
1.38726e-05
1.36156e-05
1.34537e-05
1.34583e-05
1.364e-05
1.39291e-05
1.40964e-05
1.48571e-05
1.41697e-05
1.38096e-05
1.3616e-05
1.33258e-05
1.31348e-05
1.31365e-05
1.3325e-05
1.36218e-05
1.38213e-05
1.41825e-05
1.38671e-05
1.36797e-05
1.34364e-05
1.31275e-05
1.29562e-05
1.29574e-05
1.31215e-05
1.34387e-05
1.36772e-05
1.38559e-05
1.38814e-05
1.36835e-05
1.34315e-05
1.31125e-05
1.29487e-05
1.29528e-05
1.31183e-05
1.34359e-05
1.36781e-05
1.38615e-05
1.42121e-05
1.38257e-05
1.3605e-05
1.33053e-05
1.31171e-05
1.31213e-05
1.33145e-05
1.36141e-05
1.38239e-05
1.4196e-05
1.48904e-05
1.41069e-05
1.3917e-05
1.36209e-05
1.34346e-05
1.34364e-05
1.36254e-05
1.39206e-05
1.41015e-05
1.48728e-05
1.20248e-05
1.46904e-05
1.41692e-05
1.38407e-05
1.36805e-05
1.36794e-05
1.38376e-05
1.41635e-05
1.46783e-05
1.20051e-05
0.000185882
1.20398e-05
1.48994e-05
1.42033e-05
1.3864e-05
1.38595e-05
1.41912e-05
1.48838e-05
1.2015e-05
0.000185899
0.000363445
1.72151e-05
1.421e-05
1.41274e-05
1.38067e-05
1.38096e-05
1.4143e-05
1.42642e-05
1.72655e-05
0.00036392
1.72173e-05
1.43447e-05
1.38682e-05
1.3585e-05
1.34559e-05
1.34622e-05
1.36237e-05
1.40066e-05
1.44596e-05
1.72258e-05
1.42092e-05
1.39185e-05
1.36394e-05
1.33853e-05
1.3228e-05
1.32338e-05
1.34111e-05
1.36893e-05
1.39319e-05
1.42313e-05
1.41184e-05
1.35868e-05
1.33882e-05
1.31106e-05
1.29262e-05
1.29311e-05
1.31156e-05
1.3395e-05
1.35915e-05
1.41186e-05
1.38044e-05
1.34456e-05
1.3216e-05
1.29221e-05
1.27582e-05
1.27616e-05
1.29213e-05
1.32207e-05
1.34411e-05
1.37878e-05
1.38149e-05
1.34486e-05
1.32139e-05
1.29129e-05
1.27558e-05
1.27604e-05
1.29193e-05
1.32184e-05
1.3443e-05
1.37954e-05
1.41504e-05
1.3599e-05
1.33838e-05
1.31031e-05
1.29218e-05
1.29243e-05
1.31086e-05
1.33889e-05
1.3596e-05
1.4137e-05
1.42686e-05
1.39454e-05
1.36844e-05
1.34019e-05
1.32223e-05
1.32219e-05
1.3401e-05
1.36827e-05
1.39388e-05
1.4253e-05
1.72373e-05
1.44783e-05
1.40091e-05
1.36174e-05
1.34501e-05
1.34475e-05
1.36105e-05
1.39999e-05
1.44651e-05
1.72444e-05
0.000363883
1.72705e-05
1.42775e-05
1.41454e-05
1.38007e-05
1.37954e-05
1.41308e-05
1.42584e-05
1.72694e-05
0.00036391
0.000621503
4.61036e-05
1.25178e-05
1.38232e-05
1.36671e-05
1.36667e-05
1.3831e-05
1.25557e-05
4.62114e-05
0.000622067
4.61255e-05
1.37154e-05
1.37599e-05
1.33823e-05
1.32325e-05
1.32394e-05
1.34209e-05
1.38918e-05
1.38114e-05
4.61229e-05
1.25128e-05
1.3812e-05
1.34182e-05
1.31581e-05
1.30057e-05
1.30148e-05
1.31908e-05
1.34693e-05
1.38195e-05
1.25305e-05
1.38156e-05
1.33883e-05
1.31638e-05
1.28972e-05
1.27212e-05
1.27308e-05
1.29123e-05
1.31776e-05
1.3393e-05
1.38113e-05
1.36676e-05
1.32276e-05
1.29989e-05
1.27202e-05
1.25649e-05
1.25716e-05
1.27275e-05
1.30104e-05
1.32265e-05
1.36515e-05
1.36752e-05
1.32313e-05
1.30016e-05
1.27182e-05
1.25688e-05
1.25745e-05
1.27275e-05
1.30093e-05
1.32295e-05
1.36608e-05
1.38399e-05
1.33996e-05
1.31702e-05
1.29065e-05
1.27326e-05
1.27344e-05
1.29109e-05
1.31752e-05
1.33997e-05
1.38339e-05
1.2565e-05
1.38309e-05
1.34689e-05
1.31906e-05
1.3017e-05
1.30159e-05
1.31883e-05
1.3467e-05
1.38288e-05
1.25609e-05
4.6102e-05
1.38266e-05
1.38964e-05
1.3422e-05
1.32392e-05
1.3237e-05
1.3416e-05
1.38899e-05
1.38205e-05
4.6125e-05
0.000622009
4.61874e-05
1.25741e-05
1.38392e-05
1.36667e-05
1.36622e-05
1.38272e-05
1.25577e-05
4.62034e-05
0.000622049
0.000955812
0.000104668
1.19886e-05
1.28967e-05
1.32064e-05
1.32051e-05
1.29018e-05
1.20058e-05
0.000104873
0.000956527
0.000104734
1.23963e-05
1.36589e-05
1.32043e-05
1.30258e-05
1.30347e-05
1.32465e-05
1.37906e-05
1.24624e-05
0.000104696
1.19839e-05
1.37137e-05
1.32145e-05
1.29344e-05
1.27848e-05
1.27979e-05
1.29761e-05
1.32715e-05
1.37207e-05
1.19783e-05
1.28926e-05
1.32154e-05
1.29433e-05
1.26845e-05
1.25171e-05
1.25315e-05
1.27105e-05
1.29663e-05
1.32233e-05
1.28876e-05
1.32121e-05
1.30274e-05
1.27838e-05
1.25191e-05
1.23726e-05
1.23825e-05
1.25346e-05
1.28029e-05
1.30309e-05
1.31975e-05
1.32168e-05
1.30316e-05
1.27909e-05
1.25235e-05
1.23818e-05
1.23888e-05
1.25363e-05
1.28028e-05
1.30338e-05
1.32067e-05
1.29096e-05
1.32258e-05
1.29598e-05
1.27092e-05
1.25425e-05
1.25445e-05
1.27143e-05
1.29664e-05
1.32293e-05
1.29103e-05
1.19982e-05
1.37245e-05
1.32706e-05
1.29813e-05
1.28119e-05
1.28112e-05
1.29805e-05
1.32717e-05
1.37277e-05
1.20122e-05
0.000104673
1.24667e-05
1.37905e-05
1.32501e-05
1.30442e-05
1.30434e-05
1.32479e-05
1.37899e-05
1.24694e-05
0.000104692
0.000956417
0.000104835
1.20157e-05
1.29098e-05
1.32113e-05
1.32096e-05
1.29051e-05
1.20056e-05
0.000104848
0.000956495
0.00135133
0.00020286
2.35906e-05
1.14869e-05
1.21524e-05
1.21519e-05
1.14925e-05
2.36065e-05
0.00020319
0.00135223
0.000202982
1.14718e-05
1.34801e-05
1.30481e-05
1.28422e-05
1.28528e-05
1.30938e-05
1.36113e-05
1.1457e-05
0.000202906
2.36121e-05
1.35384e-05
1.3043e-05
1.27241e-05
1.2574e-05
1.25899e-05
1.27722e-05
1.31047e-05
1.35445e-05
2.35469e-05
1.14934e-05
1.30654e-05
1.27362e-05
1.24813e-05
1.23217e-05
1.23392e-05
1.25143e-05
1.27652e-05
1.3075e-05
1.14828e-05
1.2168e-05
1.28507e-05
1.25787e-05