/*--------------------------------*- C++ -*----------------------------------*\
| =========                 |                                                 |
| \\      /  F ield         | OpenFOAM: The Open Source CFD Toolbox           |
|  \\    /   O peration     | Version:  2406                                  |
|   \\  /    A nd           | Website:  www.openfoam.com                      |
|    \\/     M anipulation  |                                                 |
\*---------------------------------------------------------------------------*/
FoamFile
{
    version     2.0;
    format      ascii;
    arch        "LSB;label=32;scalar=64";
    class       volScalarField;
    location    "450";
    object      turbulenceProperties:epsilon;
}
// * * * * * * * * * * * * * * * * * * * * * * * * * * * * * * * * * * * * * //

dimensions      [0 2 -3 0 0 0 0];

internalField   nonuniform List<scalar> 
25000
(
1.24165e-06
1.05032e-06
7.95201e-07
7.84146e-07
7.74433e-07
7.75419e-07
7.90465e-07
8.19325e-07
9.77518e-07
1.07343e-06
1.05363e-06
9.06933e-07
7.62216e-07
6.91838e-07
6.59714e-07
6.61167e-07
6.96487e-07
7.71555e-07
9.21805e-07
9.78541e-07
7.98376e-07
7.64741e-07
6.60525e-07
6.00178e-07
5.72655e-07
5.73549e-07
6.02838e-07
6.64118e-07
7.7116e-07
8.20573e-07
7.85764e-07
6.92987e-07
6.00716e-07
5.44097e-07
5.17482e-07
5.18132e-07
5.45804e-07
6.03209e-07
6.97287e-07
7.92117e-07
7.75253e-07
6.60535e-07
5.72995e-07
5.17611e-07
4.91415e-07
4.9179e-07
5.18661e-07
5.74648e-07
6.62798e-07
7.77622e-07
7.75827e-07
6.61565e-07
5.73815e-07
5.18183e-07
4.91812e-07
4.92045e-07
5.1881e-07
5.74733e-07
6.62846e-07
7.7764e-07
7.90674e-07
6.96839e-07
6.02958e-07
5.45912e-07
5.18747e-07
5.18883e-07
5.46257e-07
6.03474e-07
6.97435e-07
7.9217e-07
8.1929e-07
7.71189e-07
6.64319e-07
6.03393e-07
5.74728e-07
5.748e-07
6.03576e-07
6.64552e-07
7.71428e-07
8.20649e-07
9.77047e-07
9.22033e-07
7.71943e-07
6.97349e-07
6.62842e-07
6.62892e-07
6.97492e-07
7.72132e-07
9.22183e-07
9.78573e-07
1.07356e-06
9.79296e-07
8.207e-07
7.92157e-07
7.776e-07
7.77586e-07
7.92062e-07
8.20495e-07
9.7863e-07
1.0739e-06
2.08815e-06
1.87976e-06
1.65545e-06
1.62755e-06
1.59253e-06
1.59043e-06
1.61716e-06
1.66943e-06
1.915e-06
2.03423e-06
1.87768e-06
1.68754e-06
1.58244e-06
1.5291e-06
1.492e-06
1.49104e-06
1.52676e-06
1.58712e-06
1.72246e-06
1.91562e-06
1.64936e-06
1.58303e-06
1.46659e-06
1.42507e-06
1.40296e-06
1.40291e-06
1.42744e-06
1.47295e-06
1.5835e-06
1.67075e-06
1.62366e-06
1.52598e-06
1.42422e-06
1.37361e-06
1.3486e-06
1.34918e-06
1.37524e-06
1.42698e-06
1.52675e-06
1.6186e-06
1.59179e-06
1.49069e-06
1.40189e-06
1.34854e-06
1.324e-06
1.32412e-06
1.34893e-06
1.40274e-06
1.49097e-06
1.59167e-06
1.59079e-06
1.49053e-06
1.40245e-06
1.34873e-06
1.32413e-06
1.32421e-06
1.34896e-06
1.40277e-06
1.49103e-06
1.59167e-06
1.61799e-06
1.52656e-06
1.42682e-06
1.37527e-06
1.34929e-06
1.34932e-06
1.3754e-06
1.42711e-06
1.52686e-06
1.61863e-06
1.67011e-06
1.58352e-06
1.47295e-06
1.42756e-06
1.40293e-06
1.40295e-06
1.42763e-06
1.47314e-06
1.58374e-06
1.67083e-06
1.91413e-06
1.72247e-06
1.58722e-06
1.5271e-06
1.49117e-06
1.49117e-06
1.52717e-06
1.58748e-06
1.72272e-06
1.91538e-06
2.0346e-06
1.91771e-06
1.67125e-06
1.61896e-06
1.59193e-06
1.59181e-06
1.6186e-06
1.67085e-06
1.91664e-06
2.03512e-06
1.72322e-06
1.49534e-06
1.39023e-06
1.31142e-06
1.27006e-06
1.27105e-06
1.30319e-06
1.37576e-06
1.50709e-06
1.72446e-06
1.49113e-06
1.31663e-06
1.2704e-06
1.22784e-06
1.20058e-06
1.20081e-06
1.22736e-06
1.26924e-06
1.3163e-06
1.50556e-06
1.38257e-06
1.2711e-06
1.19202e-06
1.15879e-06
1.13633e-06
1.13632e-06
1.16007e-06
1.19704e-06
1.26504e-06
1.37594e-06
1.30839e-06
1.22534e-06
1.15826e-06
1.12108e-06
1.09786e-06
1.09801e-06
1.1211e-06
1.15959e-06
1.22728e-06
1.30382e-06
1.26945e-06
1.19963e-06
1.13571e-06
1.0981e-06
1.07868e-06
1.07851e-06
1.09772e-06
1.13653e-06
1.2012e-06
1.27196e-06
1.2708e-06
1.20035e-06
1.13606e-06
1.09771e-06
1.07858e-06
1.0785e-06
1.09771e-06
1.13652e-06
1.2012e-06
1.27197e-06
1.30325e-06
1.22679e-06
1.15941e-06
1.12121e-06
1.09816e-06
1.0981e-06
1.12115e-06
1.1596e-06
1.22724e-06
1.30382e-06
1.37552e-06
1.26465e-06
1.19706e-06
1.16035e-06
1.13671e-06
1.13664e-06
1.16017e-06
1.19703e-06
1.26498e-06
1.37595e-06
1.50527e-06
1.31623e-06
1.26974e-06
1.22801e-06
1.20147e-06
1.20131e-06
1.22761e-06
1.26941e-06
1.3163e-06
1.50558e-06
1.72433e-06
1.50763e-06
1.37695e-06
1.30443e-06
1.27236e-06
1.27214e-06
1.30383e-06
1.37625e-06
1.50741e-06
1.72468e-06
1.00741e-06
8.04538e-07
7.66209e-07
6.93716e-07
6.69613e-07
6.71518e-07
6.90927e-07
7.47459e-07
7.88402e-07
9.92697e-07
7.99604e-07
6.83893e-07
6.62288e-07
6.29015e-07
6.15147e-07
6.16058e-07
6.3112e-07
6.62688e-07
6.75445e-07
7.87428e-07
7.62071e-07
6.632e-07
6.1597e-07
5.88018e-07
5.70226e-07
5.70613e-07
5.88981e-07
6.20173e-07
6.6019e-07
7.48076e-07
6.93534e-07
6.28684e-07
5.88252e-07
5.61404e-07
5.43938e-07
5.441e-07
5.61138e-07
5.88825e-07
6.31369e-07
6.91935e-07
6.70089e-07
6.15403e-07
5.70511e-07
5.44409e-07
5.29899e-07
5.29796e-07
5.44074e-07
5.71158e-07
6.16818e-07
6.72447e-07
6.71595e-07
6.16245e-07
5.70943e-07
5.4424e-07
5.29961e-07
5.29869e-07
5.44106e-07
5.71166e-07
6.16791e-07
6.72428e-07
6.90882e-07
6.30948e-07
5.88915e-07
5.61489e-07
5.4449e-07
5.44385e-07
5.61263e-07
5.8884e-07
6.31263e-07
6.91846e-07
7.46923e-07
6.59744e-07
6.20417e-07
5.89498e-07
5.71354e-07
5.71241e-07
5.89203e-07
6.20172e-07
6.59994e-07
7.47916e-07
7.86724e-07
6.75427e-07
6.63448e-07
6.31969e-07
6.16989e-07
6.16832e-07
6.31527e-07
6.62942e-07
6.75433e-07
7.87491e-07
9.9266e-07
7.89214e-07
7.49162e-07
6.92422e-07
6.72692e-07
6.72478e-07
6.91789e-07
7.4822e-07
7.88794e-07
9.9308e-07
6.02691e-07
4.54348e-07
4.28156e-07
3.77265e-07
3.64176e-07
3.65996e-07
3.78094e-07
4.17614e-07
4.38184e-07
5.77505e-07
4.50916e-07
3.73132e-07
3.52318e-07
3.25033e-07
3.17015e-07
3.1798e-07
3.27956e-07
3.55375e-07
3.69135e-07
4.37802e-07
4.27226e-07
3.53481e-07
3.20203e-07
2.94566e-07
2.80775e-07
2.81342e-07
2.95412e-07
3.23551e-07
3.53864e-07
4.18246e-07
3.7818e-07
3.2555e-07
2.95027e-07
2.71918e-07
2.58587e-07
2.58802e-07
2.71811e-07
2.95332e-07
3.28083e-07
3.78822e-07
3.64818e-07
3.17501e-07
2.81207e-07
2.5897e-07
2.46877e-07
2.46888e-07
2.58842e-07
2.81764e-07
3.18438e-07
3.66347e-07
3.66087e-07
3.18204e-07
2.81664e-07
2.58965e-07
2.47006e-07
2.4697e-07
2.58875e-07
2.81763e-07
3.18389e-07
3.6627e-07
3.78047e-07
3.27888e-07
2.95442e-07
2.72062e-07
2.59099e-07
2.59046e-07
2.71898e-07
2.95311e-07
3.27926e-07
3.78592e-07
4.17113e-07
3.53546e-07
3.23722e-07
2.95728e-07
2.81884e-07
2.81823e-07
2.95541e-07
3.23482e-07
3.53567e-07
4.17833e-07
4.36942e-07
3.69118e-07
3.55864e-07
3.28406e-07
3.18515e-07
3.18449e-07
3.28171e-07
3.55471e-07
3.69016e-07
4.37542e-07
5.77294e-07
4.39004e-07
4.18856e-07
3.79009e-07
3.66457e-07
3.66388e-07
3.78699e-07
4.18258e-07
4.38579e-07
5.77859e-07
4.14192e-07
3.11933e-07
2.88709e-07
2.55333e-07
2.47965e-07
2.49586e-07
2.57801e-07
2.84684e-07
3.00735e-07
3.8896e-07
3.10288e-07
2.58869e-07
2.38337e-07
2.17608e-07
2.12191e-07
2.13026e-07
2.20622e-07
2.43312e-07
2.59296e-07
3.00862e-07
2.89123e-07
2.39606e-07
2.15629e-07
1.94306e-07
1.83861e-07
1.84428e-07
1.95022e-07
2.18478e-07
2.42125e-07
2.85383e-07
2.56196e-07
2.18106e-07
1.94696e-07
1.75215e-07
1.65131e-07
1.65361e-07
1.75228e-07
1.94914e-07
2.20553e-07
2.58284e-07
2.48233e-07
2.12391e-07
1.84097e-07
1.6536e-07
1.55627e-07
1.55713e-07
1.65368e-07
1.8465e-07
2.13145e-07
2.4948e-07
2.49471e-07
2.13021e-07
1.84515e-07
1.65381e-07
1.55753e-07
1.55772e-07
1.6539e-07
1.84645e-07
2.131e-07
2.4938e-07
2.57753e-07
2.20499e-07
1.94938e-07
1.75316e-07
1.65498e-07
1.655e-07
1.75259e-07
1.94875e-07
2.20421e-07
2.57987e-07
2.84401e-07
2.41955e-07
2.18544e-07
1.95126e-07
1.84693e-07
1.84682e-07
1.95051e-07
2.18389e-07
2.41845e-07
2.84831e-07
2.99977e-07
2.59351e-07
2.43581e-07
2.20731e-07
2.13164e-07
2.13161e-07
2.20648e-07
2.43312e-07
2.59147e-07
3.00382e-07
3.88701e-07
3.01672e-07
2.85635e-07
2.58271e-07
2.49514e-07
2.49537e-07
2.58177e-07
2.85243e-07
3.01196e-07
3.89087e-07
3.32132e-07
2.64334e-07
2.43266e-07
2.19207e-07
2.14658e-07
2.16226e-07
2.22887e-07
2.44072e-07
2.58533e-07
3.12445e-07
2.64291e-07
2.28618e-07
2.08913e-07
1.92601e-07
1.88244e-07
1.88989e-07
1.95722e-07
2.15548e-07
2.32918e-07
2.5899e-07
2.44417e-07
2.10389e-07
1.92212e-07
1.74295e-07
1.6589e-07
1.6649e-07
1.74967e-07
1.9492e-07
2.14296e-07
2.44774e-07
2.20032e-07
1.93055e-07
1.7463e-07
1.57987e-07
1.50102e-07
1.50401e-07
1.58151e-07
1.74804e-07
1.9548e-07
2.23227e-07
2.14635e-07
1.88202e-07
1.65959e-07
1.50233e-07
1.42561e-07
1.42737e-07
1.50384e-07
1.66588e-07
1.88889e-07
2.15859e-07
2.15977e-07
1.88799e-07
1.6638e-07
1.50289e-07
1.42724e-07
1.42801e-07
1.5041e-07
1.66598e-07
1.88869e-07
2.15764e-07
2.22823e-07
1.95489e-07
1.74751e-07
1.58134e-07
1.50472e-07
1.50516e-07
1.58178e-07
1.74794e-07
1.95413e-07
2.22933e-07
2.43912e-07
2.14201e-07
1.949e-07
1.7495e-07
1.66614e-07
1.66653e-07
1.74993e-07
1.94876e-07
2.14098e-07
2.4418e-07
2.58035e-07
2.32898e-07
2.15575e-07
1.956e-07
1.88894e-07
1.88955e-07
1.95691e-07
2.15537e-07
2.32797e-07
2.58375e-07
3.12303e-07
2.59471e-07
2.44731e-07
2.23042e-07
2.15833e-07
2.15928e-07
2.23191e-07
2.44634e-07
2.59122e-07
3.12442e-07
3.03225e-07
2.57017e-07
2.37803e-07
2.19444e-07
2.16086e-07
2.17388e-07
2.23491e-07
2.41723e-07
2.56042e-07
2.89342e-07
2.57909e-07
2.31145e-07
2.13101e-07
1.99552e-07
1.95182e-07
1.95732e-07
2.02337e-07
2.20402e-07
2.3801e-07
2.56449e-07
2.39311e-07
2.14765e-07
1.99551e-07
1.8322e-07
1.75624e-07
1.76243e-07
1.83771e-07
2.01855e-07
2.1882e-07
2.42053e-07
2.20107e-07
1.99895e-07
1.83507e-07
1.67953e-07
1.61035e-07
1.61429e-07
1.68248e-07
1.83522e-07
2.01872e-07
2.2354e-07
2.15777e-07
1.949e-07
1.75535e-07
1.61088e-07
1.54521e-07
1.5479e-07
1.61373e-07
1.76216e-07
1.9538e-07
2.16665e-07
2.17034e-07
1.95382e-07
1.75958e-07
1.61185e-07
1.54729e-07
1.54861e-07
1.61407e-07
1.76245e-07
1.95393e-07
2.16593e-07
2.23378e-07
2.0199e-07
1.83417e-07
1.6815e-07
1.61448e-07
1.61537e-07
1.68289e-07
1.83559e-07
2.01899e-07
2.23312e-07
2.41504e-07
2.18894e-07
2.01789e-07
1.83672e-07
1.76269e-07
1.76354e-07
1.83827e-07
2.01884e-07
2.18764e-07
2.41546e-07
2.5553e-07
2.3797e-07
2.20217e-07
2.02058e-07
1.95446e-07
1.95553e-07
2.02296e-07
2.20398e-07
2.37953e-07
2.55815e-07
2.89049e-07
2.56677e-07
2.41855e-07
2.23291e-07
2.16652e-07
2.16815e-07
2.23695e-07
2.42182e-07
2.56642e-07
2.89267e-07
2.89604e-07
2.56052e-07
2.39861e-07
2.25981e-07
2.22966e-07
2.23831e-07
2.29618e-07
2.45267e-07
2.58663e-07
2.79814e-07
2.5746e-07
2.3705e-07
2.22055e-07
2.10692e-07
2.06025e-07
2.06351e-07
2.1295e-07
2.29324e-07
2.45216e-07
2.58711e-07
2.41366e-07
2.23793e-07
2.10457e-07
1.95155e-07
1.87974e-07
1.88608e-07
1.95673e-07
2.12378e-07
2.27406e-07
2.45091e-07
2.26315e-07
2.10843e-07
1.95347e-07
1.80432e-07
1.73967e-07
1.74448e-07
1.80899e-07
1.95347e-07
2.12323e-07
2.29424e-07
2.22449e-07
2.05516e-07
1.87705e-07
1.73934e-07
1.67983e-07
1.6832e-07
1.74332e-07
1.88466e-07
2.05863e-07
2.22965e-07
2.2348e-07
2.05894e-07
1.88165e-07
1.74085e-07
1.68218e-07
1.68379e-07
1.74362e-07
1.885e-07
2.05891e-07
2.22931e-07
2.29508e-07
2.12505e-07
1.95204e-07
1.80742e-07
1.74406e-07
1.74513e-07
1.80919e-07
1.95392e-07
2.12405e-07
2.29318e-07
2.4501e-07
2.27654e-07
2.12303e-07
1.9553e-07
1.88548e-07
1.88642e-07
1.95716e-07
2.12426e-07
2.27452e-07
2.44801e-07
2.5817e-07
2.45202e-07
2.29009e-07
2.12616e-07
2.05976e-07
2.06084e-07
2.12888e-07
2.29285e-07
2.45208e-07
2.58251e-07
2.79512e-07
2.5885e-07
2.44925e-07
2.29223e-07
2.22978e-07
2.23151e-07
2.29744e-07
2.45559e-07
2.59182e-07
2.79813e-07
2.75609e-07
2.50324e-07
2.37948e-07
2.27484e-07
2.24342e-07
2.24745e-07
2.30216e-07
2.43451e-07
2.54722e-07
2.68535e-07
2.51666e-07
2.36959e-07
2.25418e-07
2.15709e-07
2.10794e-07
2.1092e-07
2.17358e-07
2.32073e-07
2.45159e-07
2.54236e-07
2.39054e-07
2.27029e-07
2.15187e-07
2.00884e-07
1.94081e-07
1.94697e-07
2.01403e-07
2.16775e-07
2.29905e-07
2.4273e-07
2.27365e-07
2.15599e-07
2.00977e-07
1.869e-07
1.80767e-07
1.81283e-07
1.87478e-07
2.01029e-07
2.16633e-07
2.29825e-07
2.23685e-07
2.10124e-07
1.93693e-07
1.80682e-07
1.75174e-07
1.75521e-07
1.81096e-07
1.94468e-07
2.10381e-07
2.23869e-07
2.24428e-07
2.10418e-07
1.9419e-07
1.80868e-07
1.75404e-07
1.75556e-07
1.81117e-07
1.94497e-07
2.10415e-07
2.23868e-07
2.30071e-07
2.16846e-07
2.00899e-07
1.87316e-07
1.81182e-07
1.81281e-07
1.87464e-07
2.01063e-07
2.16748e-07
2.29831e-07
2.43032e-07
2.30286e-07
2.16745e-07
2.01276e-07
1.94577e-07
1.94651e-07
2.01417e-07
2.16826e-07
2.30038e-07
2.42667e-07
2.54078e-07
2.45203e-07
2.31745e-07
2.17062e-07
2.10537e-07
2.10612e-07
2.17282e-07
2.32e-07
2.45208e-07
2.54002e-07
2.68175e-07
2.54507e-07
2.42796e-07
2.29755e-07
2.23908e-07
2.24057e-07
2.3026e-07
2.43529e-07
2.55064e-07
2.6854e-07
2.60104e-07
2.40044e-07
2.31397e-07
2.23369e-07
2.19975e-07
2.2003e-07
2.25137e-07
2.36183e-07
2.44773e-07
2.54465e-07
2.41071e-07
2.3159e-07
2.22974e-07
2.14436e-07
2.09471e-07
2.09478e-07
2.15635e-07
2.28866e-07
2.39133e-07
2.43835e-07
2.31996e-07
2.24411e-07
2.13767e-07
2.00473e-07
1.94092e-07
1.94691e-07
2.01076e-07
2.15194e-07
2.26592e-07
2.35094e-07
2.22888e-07
2.14132e-07
2.00476e-07
1.87382e-07
1.81563e-07
1.82084e-07
1.88056e-07
2.00684e-07
2.14893e-07
2.24654e-07
2.19281e-07
2.08717e-07
1.9362e-07
1.81436e-07
1.76273e-07
1.7661e-07
1.81842e-07
1.94407e-07
2.08974e-07
2.19262e-07
2.19753e-07
2.08963e-07
1.94143e-07
1.81636e-07
1.7648e-07
1.76619e-07
1.81852e-07
1.94427e-07
2.09e-07
2.19284e-07
2.2494e-07
2.15055e-07
2.00545e-07
1.87887e-07
1.81931e-07
1.82019e-07
1.88008e-07
2.00693e-07
2.14999e-07
2.24747e-07
2.35607e-07
2.26976e-07
2.15174e-07
2.00958e-07
1.94524e-07
1.94577e-07
2.01061e-07
2.15231e-07
2.26754e-07
2.35223e-07
2.43993e-07
2.39166e-07
2.28541e-07
2.15391e-07
2.09136e-07
2.09182e-07
2.15557e-07
2.2877e-07
2.39207e-07
2.43834e-07
2.54215e-07
2.44313e-07
2.35403e-07
2.24707e-07
2.19323e-07
2.19437e-07
2.25142e-07
2.36106e-07
2.44949e-07
2.54522e-07
2.46269e-07
2.27638e-07
2.21876e-07
2.15523e-07
2.11932e-07
2.11743e-07
2.16428e-07
2.25607e-07
2.31769e-07
2.41236e-07
2.28306e-07
2.23126e-07
2.16667e-07
2.0899e-07
2.04126e-07
2.0408e-07
2.09877e-07
2.21791e-07
2.29636e-07
2.30561e-07
2.22078e-07
2.17944e-07
2.08297e-07
1.96003e-07
1.90048e-07
1.90618e-07
1.96712e-07
2.09681e-07
2.19513e-07
2.24331e-07
2.14852e-07
2.08572e-07
1.95947e-07
1.83844e-07
1.78314e-07
1.78817e-07
1.84582e-07
1.96338e-07
2.09174e-07
2.15937e-07
2.11289e-07
2.03379e-07
1.89549e-07
1.78167e-07
1.73271e-07
1.73584e-07
1.78552e-07
1.90335e-07
2.03646e-07
2.11098e-07
2.11527e-07
2.03606e-07
1.90086e-07
1.78369e-07
1.73452e-07
1.73577e-07
1.78553e-07
1.90341e-07
2.03655e-07
2.11115e-07
2.16209e-07
2.09306e-07
1.96204e-07
1.84427e-07
1.78643e-07
1.78721e-07
1.84518e-07
1.96323e-07
2.09245e-07
2.16032e-07
2.24898e-07
2.19897e-07
2.09695e-07
1.96641e-07
1.90459e-07
1.90489e-07
1.96694e-07
2.09707e-07
2.19656e-07
2.24518e-07
2.30836e-07
2.29684e-07
2.21523e-07
2.09725e-07
2.03822e-07
2.03836e-07
2.09819e-07
2.21678e-07
2.29686e-07
2.30657e-07
2.40992e-07
2.31179e-07
2.24793e-07
2.16067e-07
2.1118e-07
2.11266e-07
2.16421e-07
2.2542e-07
2.31787e-07
2.41278e-07
2.37148e-07
2.14799e-07
2.10757e-07
2.0558e-07
2.01982e-07
2.01697e-07
2.05945e-07
2.13558e-07
2.18078e-07
2.32199e-07
2.15285e-07
2.13136e-07
2.082e-07
2.01279e-07
1.96672e-07
1.96637e-07
2.0207e-07
2.12803e-07
2.18707e-07
2.16823e-07
2.10786e-07
2.09393e-07
2.00701e-07
1.89425e-07
1.83902e-07
1.84442e-07
1.90257e-07
2.0218e-07
2.1062e-07
2.12327e-07
2.04903e-07
2.00836e-07
1.89326e-07
1.782e-07
1.7296e-07
1.73426e-07
1.78972e-07
1.89925e-07
2.01466e-07
2.05562e-07
2.01449e-07
1.95968e-07
1.83392e-07
1.72797e-07
1.68142e-07
1.68423e-07
1.73154e-07
1.8419e-07
1.96331e-07
2.01247e-07
2.01537e-07
1.96211e-07
1.83931e-07
1.72987e-07
1.68293e-07
1.68402e-07
1.73148e-07
1.84184e-07
1.96316e-07
2.0124e-07
2.05729e-07
2.01515e-07
1.89779e-07
1.78833e-07
1.73248e-07
1.7331e-07
1.78898e-07
1.89883e-07
2.01478e-07
2.05601e-07
2.1282e-07
2.1094e-07
2.02214e-07
1.9024e-07
1.84311e-07
1.84318e-07
1.90244e-07
2.02183e-07
2.10696e-07
2.12469e-07
2.17105e-07
2.18729e-07
2.12592e-07
2.02009e-07
1.96484e-07
1.96475e-07
2.02038e-07
2.12678e-07
2.18696e-07
2.16925e-07
2.31995e-07
2.17461e-07
2.12811e-07
2.05688e-07
2.01312e-07
2.01373e-07
2.05959e-07
2.13331e-07
2.17992e-07
2.32234e-07
2.35747e-07
2.03347e-07
1.99427e-07
1.95008e-07
1.91568e-07
1.91301e-07
1.9515e-07
2.01582e-07
2.05809e-07
2.30595e-07
2.03729e-07
2.02787e-07
1.98979e-07
1.92797e-07
1.88531e-07
1.88546e-07
1.93622e-07
2.03281e-07
2.07642e-07
2.04639e-07
1.99402e-07
2.00093e-07
1.92423e-07
1.82165e-07
1.77048e-07
1.77538e-07
1.8308e-07
1.94051e-07
2.01223e-07
2.00497e-07
1.94393e-07
1.92342e-07
1.82036e-07
1.71842e-07
1.66863e-07
1.67269e-07
1.72578e-07
1.82794e-07
1.93117e-07
1.94894e-07
1.91121e-07
1.87866e-07
1.76539e-07
1.66695e-07
1.62251e-07
1.62487e-07
1.66993e-07
1.77326e-07
1.88359e-07
1.91032e-07
1.91143e-07
1.88138e-07
1.7705e-07
1.66843e-07
1.62357e-07
1.62452e-07
1.66985e-07
1.77316e-07
1.88329e-07
1.90989e-07
1.94894e-07
1.93061e-07
1.8262e-07
1.72443e-07
1.67076e-07
1.67133e-07
1.72508e-07
1.82747e-07
1.93087e-07
1.94835e-07
2.00803e-07
2.01442e-07
1.94077e-07
1.83092e-07
1.77421e-07
1.77421e-07
1.83085e-07
1.94053e-07
2.0124e-07
2.00513e-07
2.04783e-07
2.07621e-07
2.03114e-07
1.93615e-07
1.88469e-07
1.88454e-07
1.93623e-07
2.03167e-07
2.07586e-07
2.04646e-07
2.30337e-07
2.05223e-07
2.00928e-07
1.94956e-07
1.91043e-07
1.91098e-07
1.95181e-07
2.01361e-07
2.05673e-07
2.30565e-07
2.4094e-07
1.9445e-07
1.88644e-07
1.84609e-07
1.81482e-07
1.81358e-07
1.84901e-07
1.90612e-07
1.96466e-07
2.35474e-07
1.94864e-07
1.92645e-07
1.89711e-07
1.84334e-07
1.80509e-07
1.80618e-07
1.8536e-07
1.94028e-07
1.97195e-07
1.95438e-07
1.88675e-07
1.90797e-07
1.84253e-07
1.75017e-07
1.7029e-07
1.70728e-07
1.76e-07
1.86092e-07
1.92091e-07
1.89701e-07
1.84123e-07
1.8392e-07
1.74876e-07
1.65561e-07
1.60818e-07
1.61145e-07
1.66209e-07
1.75743e-07
1.84921e-07
1.84739e-07
1.8113e-07
1.79896e-07
1.69788e-07
1.60644e-07
1.56388e-07
1.56569e-07
1.60857e-07
1.70534e-07
1.8052e-07
1.81242e-07
1.81199e-07
1.80216e-07
1.70245e-07
1.60721e-07
1.56436e-07
1.56518e-07
1.6085e-07
1.70527e-07
1.80484e-07
1.81171e-07
1.84621e-07
1.84779e-07
1.75528e-07
1.66056e-07
1.60922e-07
1.60984e-07
1.66149e-07
1.75703e-07
1.84866e-07
1.84596e-07
1.89866e-07
1.92226e-07
1.86087e-07
1.75999e-07
1.70595e-07
1.70603e-07
1.76019e-07
1.861e-07
1.92068e-07
1.89599e-07
1.95497e-07
1.97168e-07
1.93892e-07
1.85357e-07
1.80576e-07
1.80568e-07
1.85369e-07
1.93925e-07
1.97107e-07
1.95347e-07
2.35228e-07
1.95991e-07
1.90082e-07
1.84734e-07
1.81198e-07
1.8125e-07
1.84922e-07
1.90415e-07
1.96322e-07
2.35392e-07
2.41055e-07
1.89563e-07
1.79219e-07
1.75002e-07
1.72195e-07
1.72265e-07
1.75638e-07
1.81319e-07
1.91459e-07
2.35505e-07
1.9e-07
1.832e-07
1.80872e-07
1.76325e-07
1.72961e-07
1.73163e-07
1.77566e-07
1.8531e-07
1.87679e-07
1.90521e-07
1.79316e-07
1.81942e-07
1.76584e-07
1.6833e-07
1.63947e-07
1.64313e-07
1.69307e-07
1.78571e-07
1.83454e-07
1.80501e-07
1.74648e-07
1.75976e-07
1.68203e-07
1.59682e-07
1.55123e-07
1.55353e-07
1.60165e-07
1.69051e-07
1.77125e-07
1.7547e-07
1.71934e-07
1.72415e-07
1.6347e-07
1.54951e-07
1.50843e-07
1.50957e-07
1.55037e-07
1.64097e-07
1.7307e-07
1.72198e-07
1.72113e-07
1.72763e-07
1.63831e-07
1.54921e-07
1.50813e-07
1.50881e-07
1.55026e-07
1.64091e-07
1.73034e-07
1.72111e-07
1.75357e-07
1.76963e-07
1.68799e-07
1.59969e-07
1.55066e-07
1.55138e-07
1.60099e-07
1.69013e-07
1.77065e-07
1.75276e-07
1.80633e-07
1.83561e-07
1.78516e-07
1.69239e-07
1.64103e-07
1.6413e-07
1.69304e-07
1.78569e-07
1.83415e-07
1.80319e-07
1.90575e-07
1.87704e-07
1.8519e-07
1.77503e-07
1.73068e-07
1.7307e-07
1.77522e-07
1.85191e-07
1.87573e-07
1.90351e-07
2.353e-07
1.91143e-07
1.80901e-07
1.75437e-07
1.72106e-07
1.72148e-07
1.75565e-07
1.81094e-07
1.9129e-07
2.35342e-07
1.99165e-07
1.89524e-07
1.7188e-07
1.66627e-07
1.63964e-07
1.6422e-07
1.67625e-07
1.74215e-07
1.91496e-07
1.94427e-07
1.89968e-07
1.74922e-07
1.72701e-07
1.68918e-07
1.65993e-07
1.66258e-07
1.70312e-07
1.77223e-07
1.79393e-07
1.90593e-07
1.72012e-07
1.73765e-07
1.6954e-07
1.62182e-07
1.58096e-07
1.58381e-07
1.63085e-07
1.71555e-07
1.7542e-07
1.73434e-07
1.66367e-07
1.68637e-07
1.62069e-07
1.54253e-07
1.49845e-07
1.49975e-07
1.54541e-07
1.62802e-07
1.69816e-07
1.67382e-07
1.6376e-07
1.65486e-07
1.57625e-07
1.49663e-07
1.45683e-07
1.45735e-07
1.49621e-07
1.58097e-07
1.66092e-07
1.64115e-07
1.64066e-07
1.65827e-07
1.57857e-07
1.49507e-07
1.45569e-07
1.45628e-07
1.49596e-07
1.58085e-07
1.66061e-07
1.64037e-07
1.67362e-07
1.69658e-07
1.62491e-07
1.54261e-07
1.49593e-07
1.49681e-07
1.5444e-07
1.62748e-07
1.69765e-07
1.67204e-07
1.73632e-07
1.75521e-07
1.71417e-07
1.62891e-07
1.58033e-07
1.58081e-07
1.6301e-07
1.71519e-07
1.75388e-07
1.73258e-07
1.90746e-07
1.79497e-07
1.77095e-07
1.70135e-07
1.66033e-07
1.66044e-07
1.70163e-07
1.77067e-07
1.79297e-07
1.90425e-07
1.94333e-07
1.91375e-07
1.73916e-07
1.67372e-07
1.64e-07
1.64019e-07
1.67415e-07
1.73945e-07
1.91312e-07
1.94239e-07
1.03291e-07
1.92813e-07
1.67383e-07
1.59907e-07
1.57008e-07
1.57373e-07
1.61115e-07
1.69863e-07
1.94883e-07
1.02083e-07
1.9324e-07
1.68305e-07
1.65333e-07
1.62116e-07
1.59544e-07
1.59829e-07
1.63542e-07
1.69783e-07
1.72676e-07
1.93965e-07
1.67509e-07
1.66387e-07
1.6308e-07
1.56486e-07
1.52646e-07
1.52852e-07
1.57273e-07
1.64994e-07
1.68011e-07
1.69066e-07
1.59684e-07
1.61889e-07
1.56392e-07
1.49181e-07
1.44901e-07
1.44953e-07
1.49292e-07
1.56951e-07
1.62962e-07
1.60763e-07
1.5682e-07
1.59056e-07
1.52174e-07
1.44707e-07
1.40848e-07
1.40858e-07
1.4457e-07
1.52493e-07
1.59544e-07
1.57168e-07
1.57212e-07
1.59345e-07
1.52267e-07
1.44437e-07
1.40665e-07
1.40727e-07
1.4453e-07
1.52471e-07
1.59526e-07
1.57123e-07
1.60883e-07
1.62824e-07
1.5657e-07
1.48912e-07
1.44479e-07
1.44585e-07
1.49144e-07
1.56872e-07
1.62939e-07
1.60664e-07
1.69379e-07
1.68114e-07
1.6476e-07
1.56934e-07
1.52358e-07
1.52428e-07
1.57109e-07
1.64919e-07
1.6802e-07
1.68977e-07
1.94261e-07
1.72857e-07
1.69633e-07
1.6324e-07
1.59449e-07
1.59469e-07
1.63281e-07
1.69601e-07
1.7263e-07
1.93869e-07
1.02057e-07
1.94951e-07
1.6968e-07
1.60825e-07
1.57065e-07
1.57056e-07
1.6078e-07
1.69564e-07
1.94711e-07
1.01933e-07
4.70337e-07
1.90974e-07
1.6606e-07
1.55189e-07
1.51527e-07
1.51914e-07
1.56411e-07
1.68512e-07
1.92991e-07
4.79651e-07
1.91379e-07
1.63748e-07
1.58846e-07
1.55864e-07
1.53535e-07
1.53805e-07
1.57217e-07
1.63063e-07
1.67862e-07
1.92069e-07
1.66174e-07
1.59907e-07
1.57121e-07
1.5114e-07
1.47512e-07
1.47658e-07
1.51813e-07
1.58842e-07
1.61316e-07
1.67678e-07
1.54982e-07
1.557e-07
1.51071e-07
1.44376e-07
1.40229e-07
1.4024e-07
1.44374e-07
1.51452e-07
1.56553e-07
1.55945e-07
1.51347e-07
1.53069e-07
1.47046e-07
1.40029e-07
1.36303e-07
1.36297e-07
1.39852e-07
1.47239e-07
1.53393e-07
1.51583e-07
1.51764e-07
1.53282e-07
1.47021e-07
1.39686e-07
1.36086e-07
1.36157e-07
1.39795e-07
1.47203e-07
1.5339e-07
1.51591e-07
1.56231e-07
1.56451e-07
1.51018e-07
1.43915e-07
1.39715e-07
1.39833e-07
1.44182e-07
1.51341e-07
1.56563e-07
1.55977e-07
1.68131e-07
1.61426e-07
1.58527e-07
1.51357e-07
1.47063e-07
1.47145e-07
1.51565e-07
1.58725e-07
1.61375e-07
1.67742e-07
1.92536e-07
1.68101e-07
1.62892e-07
1.56819e-07
1.533e-07
1.53321e-07
1.56863e-07
1.62865e-07
1.6788e-07
1.92119e-07
4.79521e-07
1.93217e-07
1.68432e-07
1.56116e-07
1.51534e-07
1.51498e-07
1.55995e-07
1.68212e-07
1.92855e-07
4.79573e-07
4.68433e-06
1.64248e-07
1.67014e-07
1.52711e-07
1.47748e-07
1.48064e-07
1.53733e-07
1.69213e-07
1.65829e-07
4.72379e-06
1.64546e-07
1.61308e-07
1.53374e-07
1.50141e-07
1.47907e-07
1.48129e-07
1.51319e-07
1.57192e-07
1.64961e-07
1.65006e-07
1.6712e-07
1.54453e-07
1.51589e-07
1.46064e-07
1.42617e-07
1.42725e-07
1.46637e-07
1.53048e-07
1.55467e-07
1.68334e-07
1.52523e-07
1.5005e-07
1.46031e-07
1.39777e-07
1.35775e-07
1.35783e-07
1.39731e-07
1.46249e-07
1.50586e-07
1.5317e-07
1.47603e-07
1.47498e-07
1.42188e-07
1.3559e-07
1.32015e-07
1.32015e-07
1.35419e-07
1.42281e-07
1.47611e-07
1.47603e-07
1.47981e-07
1.47632e-07
1.42094e-07
1.35234e-07
1.31808e-07
1.31887e-07
1.35351e-07
1.4223e-07
1.47619e-07
1.47667e-07
1.53652e-07
1.50576e-07
1.45824e-07
1.39258e-07
1.35279e-07
1.3539e-07
1.39509e-07
1.46104e-07
1.5062e-07
1.53337e-07
1.68945e-07
1.55626e-07
1.52721e-07
1.46149e-07
1.42121e-07
1.42192e-07
1.4633e-07
1.52886e-07
1.55558e-07
1.68553e-07
1.65638e-07
1.65258e-07
1.57037e-07
1.50903e-07
1.47581e-07
1.47586e-07
1.50908e-07
1.56976e-07
1.65017e-07
1.65214e-07
4.72245e-06
1.66181e-07
1.69221e-07
1.53479e-07
1.47655e-07
1.47589e-07
1.53286e-07
1.68924e-07
1.65729e-07
4.72349e-06
2.55719e-05
1.08967e-07
1.66028e-07
1.51971e-07
1.45554e-07
1.45745e-07
1.52656e-07
1.67772e-07
1.09844e-07
2.56809e-05
1.09103e-07
1.59791e-07
1.48995e-07
1.44896e-07
1.42596e-07
1.4276e-07
1.45861e-07
1.52346e-07
1.62858e-07
1.09269e-07
1.66116e-07
1.50099e-07
1.46389e-07
1.41171e-07
1.37886e-07
1.37982e-07
1.41682e-07
1.47583e-07
1.50663e-07
1.66915e-07
1.518e-07
1.44882e-07
1.41182e-07
1.35322e-07
1.31491e-07
1.31525e-07
1.35306e-07
1.41299e-07
1.4512e-07
1.52068e-07
1.45466e-07
1.42277e-07
1.37534e-07
1.31345e-07
1.27947e-07
1.2797e-07
1.31224e-07
1.3758e-07
1.42224e-07
1.4523e-07
1.45767e-07
1.42355e-07
1.37431e-07
1.31045e-07
1.27798e-07
1.27879e-07
1.3116e-07
1.37522e-07
1.42243e-07
1.45347e-07
1.52705e-07
1.45211e-07
1.40951e-07
1.34906e-07
1.31137e-07
1.31222e-07
1.35093e-07
1.41141e-07
1.45175e-07
1.52358e-07
1.67664e-07
1.50889e-07
1.47328e-07
1.41284e-07
1.37496e-07
1.37533e-07
1.41378e-07
1.47403e-07
1.50773e-07
1.67268e-07
1.09987e-07
1.63206e-07
1.52262e-07
1.45536e-07
1.42296e-07
1.42273e-07
1.45471e-07
1.5214e-07
1.62937e-07
1.09625e-07
2.56747e-05
1.10268e-07
1.67885e-07
1.52522e-07
1.45401e-07
1.45308e-07
1.52261e-07
1.67533e-07
1.09814e-07
2.56796e-05
9.42332e-05
2.25887e-07
1.53028e-07
1.50968e-07
1.44202e-07
1.44264e-07
1.51307e-07
1.5421e-07
2.27212e-07
9.44749e-05
2.25946e-07
1.55729e-07
1.4575e-07
1.40127e-07
1.37599e-07
1.3773e-07
1.40937e-07
1.48716e-07
1.58236e-07
2.26168e-07
1.53022e-07
1.4685e-07
1.41454e-07
1.36404e-07
1.33278e-07
1.33395e-07
1.36935e-07
1.42491e-07
1.47093e-07
1.53487e-07
1.50781e-07
1.40175e-07
1.36468e-07
1.30974e-07
1.27342e-07
1.2744e-07
1.31074e-07
1.36602e-07
1.40262e-07
1.50779e-07
1.44155e-07
1.37389e-07
1.33036e-07
1.27262e-07
1.24065e-07
1.24131e-07
1.27246e-07
1.33129e-07
1.37295e-07
1.43807e-07
1.44374e-07
1.37449e-07
1.32993e-07
1.27081e-07
1.2402e-07
1.24108e-07
1.27207e-07
1.33083e-07
1.37334e-07
1.43967e-07
1.51459e-07
1.40417e-07
1.36375e-07
1.30826e-07
1.27257e-07
1.27306e-07
1.30935e-07
1.36479e-07
1.40355e-07
1.51173e-07
1.54292e-07
1.47379e-07
1.4239e-07
1.36746e-07
1.33164e-07
1.33156e-07
1.36728e-07
1.42353e-07
1.47239e-07
1.53955e-07
2.26471e-07
1.58643e-07
1.48769e-07
1.40808e-07
1.37482e-07
1.3743e-07
1.40666e-07
1.48573e-07
1.58354e-07
2.26658e-07
9.44556e-05
2.27345e-07
1.54498e-07
1.51358e-07
1.44079e-07
1.43968e-07
1.51046e-07
1.54085e-07
2.27314e-07
9.44702e-05
0.000259742
1.61431e-06
1.19097e-07
1.44727e-07
1.41387e-07
1.41381e-07
1.44895e-07
1.19827e-07
1.62173e-06
0.000260195
1.61573e-06
1.4258e-07
1.43437e-07
1.35911e-07
1.33007e-07
1.33148e-07
1.36708e-07
1.46242e-07
1.44584e-07
1.61566e-06
1.19008e-07
1.44565e-07
1.36847e-07
1.3178e-07
1.28812e-07
1.28993e-07
1.32439e-07
1.37892e-07
1.44682e-07
1.19339e-07
1.44573e-07
1.36043e-07
1.31897e-07
1.26731e-07
1.23328e-07
1.23515e-07
1.27028e-07
1.32171e-07
1.36128e-07
1.44477e-07
1.414e-07
1.32911e-07
1.28679e-07
1.23309e-07
1.20334e-07
1.20463e-07
1.2345e-07
1.28904e-07
1.32885e-07
1.41066e-07
1.41555e-07
1.32983e-07
1.28731e-07
1.23269e-07
1.20407e-07
1.20517e-07
1.23449e-07
1.28884e-07
1.32946e-07
1.41258e-07
1.45076e-07
1.36262e-07
1.32022e-07
1.26915e-07
1.2355e-07
1.23584e-07
1.27002e-07
1.32122e-07
1.36265e-07
1.44951e-07
1.19996e-07
1.44922e-07
1.37885e-07
1.32435e-07
1.29038e-07
1.29016e-07
1.3239e-07
1.37845e-07
1.44877e-07
1.19919e-07
1.61419e-06
1.44902e-07
1.46339e-07
1.36729e-07
1.33145e-07
1.33101e-07
1.36607e-07
1.46201e-07
1.44773e-07
1.61581e-06
0.000260147
1.62005e-06
1.20178e-07
1.45068e-07
1.41381e-07
1.41289e-07
1.44816e-07
1.19864e-07
1.62117e-06
0.00026018
0.000571665
8.19299e-06
1.0951e-07
1.26243e-07
1.32193e-07
1.32168e-07
1.26346e-07
1.09826e-07
8.22346e-06
0.000572458
8.20211e-06
1.16736e-07
1.41337e-07
1.32262e-07
1.28828e-07
1.29006e-07
1.3312e-07
1.44117e-07
1.17984e-07
8.1972e-06
1.09426e-07
1.42512e-07
1.32671e-07
1.27302e-07
1.24449e-07
1.24704e-07
1.28128e-07
1.33819e-07
1.42619e-07
1.09322e-07
1.26167e-07
1.32496e-07
1.27482e-07
1.22571e-07
1.19393e-07
1.1967e-07
1.23074e-07
1.27931e-07
1.32644e-07
1.26064e-07
1.32307e-07
1.28862e-07
1.24431e-07
1.19433e-07
1.16675e-07
1.16863e-07
1.19728e-07
1.24801e-07
1.28927e-07
1.32015e-07
1.324e-07
1.28942e-07
1.24568e-07
1.19517e-07
1.1685e-07
1.16982e-07
1.19761e-07
1.24798e-07
1.28986e-07
1.32198e-07
1.26495e-07
1.32693e-07
1.27802e-07
1.23048e-07
1.1988e-07
1.19918e-07
1.23148e-07
1.27932e-07
1.32764e-07
1.2651e-07
1.09685e-07
1.42699e-07
1.338e-07
1.28231e-07
1.24979e-07
1.24965e-07
1.28216e-07
1.33822e-07
1.42764e-07
1.09942e-07
8.19364e-06
1.18065e-07
1.44115e-07
1.33194e-07
1.29194e-07
1.29179e-07
1.33149e-07
1.44101e-07
1.18117e-07
8.19657e-06
0.00057234
8.21759e-06
1.10008e-07
1.26502e-07
1.32291e-07
1.32258e-07
1.26411e-07
1.09823e-07
8.21964e-06
0.000572423
0.00105656
2.98079e-05
4.2387e-07
1.00401e-07
1.12162e-07
1.12155e-07
1.005e-07
4.24427e-07
2.98962e-05
0.00105782
2.98378e-05
1.0021e-07
1.37718e-07
1.29113e-07
1.25171e-07
1.2538e-07
1.30029e-07
1.4045e-07
9.99522e-08
2.98203e-05
4.24633e-07
1.38949e-07
1.29201e-07
1.23161e-07
1.20351e-07
1.20657e-07
1.24099e-07
1.30426e-07
1.39038e-07
4.22299e-07
1.00516e-07
1.29465e-07
1.234e-07
1.18658e-07
1.15686e-07
1.16016e-07
1.19288e-07
1.23957e-07
1.29646e-07
1.00328e-07
1.12451e-07
1.25339e-07
1.20443e-07
1.15778e-07
1.13222e-07