/*--------------------------------*- C++ -*----------------------------------*\
| =========                 |                                                 |
| \\      /  F ield         | OpenFOAM: The Open Source CFD Toolbox           |
|  \\    /   O peration     | Version:  2406                                  |
|   \\  /    A nd           | Website:  www.openfoam.com                      |
|    \\/     M anipulation  |                                                 |
\*---------------------------------------------------------------------------*/
FoamFile
{
    version     2.0;
    format      ascii;
    arch        "LSB;label=32;scalar=64";
    class       volSymmTensorField;
    location    "450";
    object      turbulenceProperties:R;
}
// * * * * * * * * * * * * * * * * * * * * * * * * * * * * * * * * * * * * * //

dimensions      [0 2 -2 0 0 0 0];

internalField   nonuniform List<symmTensor> 
25000
(
(2.86567e-05 -1.29861e-06 -5.84768e-07 2.86709e-05 -5.83154e-07 2.34441e-05)
(2.7051e-05 7.76429e-07 -4.11143e-07 2.58085e-05 -5.20782e-07 2.14329e-05)
(2.31726e-05 4.11898e-07 -2.94929e-07 2.29595e-05 -5.3981e-07 1.85131e-05)
(2.29561e-05 2.62108e-07 -1.72514e-07 2.28882e-05 -5.43229e-07 1.83512e-05)
(2.27775e-05 9.32245e-08 -5.57692e-08 2.27981e-05 -5.44266e-07 1.82214e-05)
(2.28005e-05 -8.82516e-08 5.99562e-08 2.28042e-05 -5.4456e-07 1.8233e-05)
(2.30866e-05 -2.56685e-07 1.75881e-07 2.29412e-05 -5.44118e-07 1.84257e-05)
(2.36355e-05 -4.1496e-07 2.93464e-07 2.31845e-05 -5.41647e-07 1.87985e-05)
(2.61756e-05 -6.87662e-07 4.15858e-07 2.4821e-05 -5.25837e-07 2.0675e-05)
(2.65575e-05 1.49608e-06 5.92294e-07 2.65557e-05 -5.91439e-07 2.19879e-05)
(2.58463e-05 7.6519e-07 -5.22002e-07 2.70991e-05 -4.10442e-07 2.14642e-05)
(2.46354e-05 2.99465e-07 -4.13249e-07 2.46471e-05 -4.12041e-07 1.97562e-05)
(2.2535e-05 2.65824e-07 -3.06996e-07 2.26708e-05 -4.17257e-07 1.80873e-05)
(2.14921e-05 1.70492e-07 -1.8446e-07 2.15979e-05 -4.25507e-07 1.72114e-05)
(2.101e-05 5.57254e-08 -6.03116e-08 2.10803e-05 -4.30444e-07 1.67949e-05)
(2.10393e-05 -6.18171e-08 6.33744e-08 2.10971e-05 -4.30856e-07 1.68137e-05)
(2.15846e-05 -1.83981e-07 1.86363e-07 2.16488e-05 -4.26952e-07 1.72703e-05)
(2.27012e-05 -3.17143e-07 3.06806e-07 2.27767e-05 -4.19631e-07 1.82024e-05)
(2.48286e-05 -4.76857e-07 4.11983e-07 2.48327e-05 -4.10852e-07 1.99413e-05)
(2.48323e-05 -6.8901e-07 5.26414e-07 2.61897e-05 -4.14544e-07 2.06868e-05)
(2.30085e-05 3.99181e-07 -5.40089e-07 2.32181e-05 -2.95418e-07 1.85476e-05)
(2.27034e-05 2.58305e-07 -4.18495e-07 2.25793e-05 -3.06962e-07 1.81157e-05)
(2.10513e-05 1.77842e-07 -3.09612e-07 2.1059e-05 -3.09048e-07 1.68116e-05)
(2.00607e-05 1.104e-07 -1.88123e-07 2.00977e-05 -3.11268e-07 1.6008e-05)
(1.96e-05 3.40132e-08 -6.20911e-08 1.96373e-05 -3.13175e-07 1.56265e-05)
(1.9618e-05 -4.63952e-08 6.43472e-08 1.96496e-05 -3.13452e-07 1.56391e-05)
(2.01116e-05 -1.30552e-07 1.89658e-07 2.01345e-05 -3.1202e-07 1.60446e-05)
(2.11082e-05 -2.17093e-07 3.10739e-07 2.11131e-05 -3.09382e-07 1.68606e-05)
(2.27653e-05 -3.17096e-07 4.2038e-07 2.26993e-05 -3.05158e-07 1.81988e-05)
(2.31994e-05 -4.1629e-07 5.42362e-07 2.36558e-05 -2.92041e-07 1.88132e-05)
(2.29165e-05 2.57086e-07 -5.42734e-07 2.29754e-05 -1.73678e-07 1.83697e-05)
(2.1614e-05 1.63126e-07 -4.25798e-07 2.1512e-05 -1.85077e-07 1.72255e-05)
(2.01021e-05 1.07122e-07 -3.11658e-07 2.00745e-05 -1.88238e-07 1.6015e-05)
(1.9125e-05 6.41798e-08 -1.89354e-07 1.91294e-05 -1.89358e-07 1.52244e-05)
(1.86516e-05 1.81847e-08 -6.27438e-08 1.86653e-05 -1.90137e-07 1.48379e-05)
(1.86639e-05 -3.02341e-08 6.47623e-08 1.86763e-05 -1.90284e-07 1.48474e-05)
(1.91543e-05 -8.03839e-08 1.91101e-07 1.91592e-05 -1.89597e-07 1.52491e-05)
(2.01351e-05 -1.29849e-07 3.13352e-07 2.01232e-05 -1.88114e-07 1.60497e-05)
(2.16549e-05 -1.84041e-07 4.2806e-07 2.16032e-05 -1.84722e-07 1.72802e-05)
(2.29603e-05 -2.58365e-07 5.44832e-07 2.31153e-05 -1.74203e-07 1.84453e-05)
(2.28148e-05 9.03972e-08 -5.43782e-07 2.27849e-05 -5.68198e-08 1.82312e-05)
(2.10942e-05 5.09538e-08 -4.30307e-07 2.10222e-05 -6.11394e-08 1.68055e-05)
(1.96408e-05 3.05875e-08 -3.13196e-07 1.9608e-05 -6.25759e-08 1.56312e-05)
(1.86645e-05 1.67591e-08 -1.90072e-07 1.86571e-05 -6.30395e-08 1.48397e-05)
(1.81863e-05 2.76215e-09 -6.30866e-08 1.81889e-05 -6.33573e-08 1.44495e-05)
(1.81928e-05 -1.22778e-08 6.49719e-08 1.81962e-05 -6.34521e-08 1.44552e-05)
(1.86809e-05 -2.81199e-08 1.91795e-07 1.86781e-05 -6.32546e-08 1.48551e-05)
(1.96612e-05 -4.36896e-08 3.14924e-07 1.96439e-05 -6.27895e-08 1.56542e-05)
(2.11136e-05 -6.08757e-08 4.32085e-07 2.10746e-05 -6.15876e-08 1.68345e-05)
(2.28277e-05 -9.04123e-08 5.45265e-07 2.28415e-05 -5.79529e-08 1.82591e-05)
(2.28134e-05 -8.95423e-08 -5.44017e-07 2.28032e-05 5.91776e-08 1.82379e-05)
(2.11045e-05 -6.50013e-08 -4.30582e-07 2.10443e-05 6.26476e-08 1.68189e-05)
(1.96533e-05 -4.92758e-08 -3.13292e-07 1.96232e-05 6.37818e-08 1.56428e-05)
(1.86753e-05 -3.19105e-08 -1.9006e-07 1.86665e-05 6.43281e-08 1.48482e-05)
(1.81946e-05 -1.29561e-08 -6.31611e-08 1.81951e-05 6.46046e-08 1.44555e-05)
(1.81983e-05 5.86331e-09 6.48648e-08 1.82e-05 6.45008e-08 1.44589e-05)
(1.86841e-05 2.42012e-08 1.91689e-07 1.86803e-05 6.40652e-08 1.48572e-05)
(1.9663e-05 4.12944e-08 3.14818e-07 1.96451e-05 6.33785e-08 1.56553e-05)
(2.11145e-05 5.93461e-08 4.32001e-07 2.10752e-05 6.19944e-08 1.68351e-05)
(2.28281e-05 8.94624e-08 5.45206e-07 2.28417e-05 5.82037e-08 1.82593e-05)
(2.29468e-05 -2.57822e-07 -5.43705e-07 2.30871e-05 1.75299e-07 1.84281e-05)
(2.16555e-05 -1.85999e-07 -4.26604e-07 2.15885e-05 1.85769e-07 1.72749e-05)
(2.01362e-05 -1.32536e-07 -3.1172e-07 2.01136e-05 1.89136e-07 1.60465e-05)
(1.91599e-05 -8.19377e-08 -1.89322e-07 1.91573e-05 1.90664e-07 1.52506e-05)
(1.86783e-05 -2.90139e-08 -6.29238e-08 1.86839e-05 1.91427e-07 1.48563e-05)
(1.86802e-05 2.38053e-08 6.44355e-08 1.8687e-05 1.91333e-07 1.48582e-05)
(1.91641e-05 7.6556e-08 1.90753e-07 1.91654e-05 1.9039e-07 1.52553e-05)
(2.01406e-05 1.27503e-07 3.13063e-07 2.01267e-05 1.88688e-07 1.60531e-05)
(2.16579e-05 1.82535e-07 4.27821e-07 2.1605e-05 1.85121e-07 1.72819e-05)
(2.29614e-05 2.57411e-07 5.44645e-07 2.31159e-05 1.74453e-07 1.84457e-05)
(2.31859e-05 -4.15287e-07 -5.41228e-07 2.36333e-05 2.93017e-07 1.8798e-05)
(2.27713e-05 -3.18069e-07 -4.18941e-07 2.26939e-05 3.06117e-07 1.81994e-05)
(2.11161e-05 -2.18489e-07 -3.09084e-07 2.11114e-05 3.10314e-07 1.68633e-05)
(2.01255e-05 -1.31062e-07 -1.87812e-07 2.0139e-05 3.13025e-07 1.60521e-05)
(1.96441e-05 -4.46433e-08 -6.2435e-08 1.96637e-05 3.1458e-07 1.56553e-05)
(1.9645e-05 4.06865e-08 6.37575e-08 1.96653e-05 3.14502e-07 1.56562e-05)
(2.01272e-05 1.27187e-07 1.89078e-07 2.01436e-05 3.12777e-07 1.60543e-05)
(2.1117e-05 2.15007e-07 3.1024e-07 2.11182e-05 3.09923e-07 1.68659e-05)
(2.27704e-05 3.15713e-07 4.1998e-07 2.27024e-05 3.05535e-07 1.82018e-05)
(2.3201e-05 4.15391e-07 5.42053e-07 2.36567e-05 2.92294e-07 1.88139e-05)
(2.48164e-05 -6.87437e-07 -5.25308e-07 2.61677e-05 4.15383e-07 2.067e-05)
(2.48366e-05 -4.77332e-07 -4.10529e-07 2.48307e-05 4.11642e-07 1.99439e-05)
(2.27116e-05 -3.18246e-07 -3.05103e-07 2.27776e-05 4.20415e-07 1.82071e-05)
(2.16037e-05 -1.85e-07 -1.84379e-07 2.16564e-05 4.27773e-07 1.7281e-05)
(2.10745e-05 -6.17268e-08 -6.12115e-08 2.11151e-05 4.31817e-07 1.68351e-05)
(2.1075e-05 5.86226e-08 6.2382e-08 2.11162e-05 4.31752e-07 1.68356e-05)
(2.16049e-05 1.82019e-07 1.85489e-07 2.16598e-05 4.27581e-07 1.72826e-05)
(2.27125e-05 3.15723e-07 3.06123e-07 2.27826e-05 4.20091e-07 1.8209e-05)
(2.48353e-05 4.75799e-07 4.11447e-07 2.48363e-05 4.11196e-07 1.99452e-05)
(2.48335e-05 6.88123e-07 5.26004e-07 2.61899e-05 4.14787e-07 2.06867e-05)
(2.65582e-05 1.49591e-06 -5.91072e-07 2.65589e-05 5.91893e-07 2.19887e-05)
(2.62001e-05 -6.90105e-07 -4.14357e-07 2.48422e-05 5.2623e-07 2.06944e-05)
(2.36573e-05 -4.17147e-07 -2.91718e-07 2.32015e-05 5.42064e-07 1.88147e-05)
(2.31154e-05 -2.59113e-07 -1.73834e-07 2.29614e-05 5.44577e-07 1.84457e-05)
(2.28407e-05 -9.11365e-08 -5.7559e-08 2.28279e-05 5.4505e-07 1.82588e-05)
(2.28404e-05 8.87696e-08 5.8599e-08 2.28278e-05 5.45016e-07 1.82586e-05)
(2.31139e-05 2.5676e-07 1.74829e-07 2.29603e-05 5.44466e-07 1.84444e-05)
(2.36541e-05 4.14853e-07 2.92636e-07 2.31993e-05 5.41905e-07 1.88119e-05)
(2.61908e-05 6.87964e-07 4.15199e-07 2.48348e-05 5.26034e-07 2.06867e-05)
(2.65628e-05 -1.49584e-06 5.91749e-07 2.65628e-05 5.91606e-07 2.19921e-05)
(3.70657e-05 -1.25736e-06 1.17051e-06 3.70418e-05 1.18138e-06 3.05995e-05)
(3.61232e-05 6.46004e-07 7.63301e-07 3.44139e-05 1.0891e-06 2.88193e-05)
(3.34332e-05 1.57328e-07 5.67363e-07 3.29859e-05 1e-06 2.68285e-05)
(3.31034e-05 1.63114e-07 3.49034e-07 3.28167e-05 9.61705e-07 2.65424e-05)
(3.27053e-05 5.84418e-08 1.13309e-07 3.25357e-05 9.38046e-07 2.62231e-05)
(3.26851e-05 -6.46913e-08 -1.23027e-07 3.25122e-05 9.37614e-07 2.62063e-05)
(3.2996e-05 -1.71952e-07 -3.59578e-07 3.27109e-05 9.60055e-07 2.64599e-05)
(3.36079e-05 -1.8564e-07 -5.97132e-07 3.30844e-05 9.98293e-07 2.69483e-05)
(3.64491e-05 -6.80547e-07 -8.32919e-07 3.47316e-05 1.0922e-06 2.91033e-05)
(3.65567e-05 1.3022e-06 -1.16286e-06 3.65565e-05 1.16177e-06 3.02332e-05)
(3.4402e-05 6.54199e-07 1.0811e-06 3.60992e-05 7.69935e-07 2.88008e-05)
(3.35541e-05 3.01218e-07 7.67648e-07 3.35476e-05 7.76447e-07 2.70493e-05)
(3.25172e-05 1.59804e-07 5.28551e-07 3.25421e-05 7.50948e-07 2.61193e-05)
(3.20549e-05 5.94729e-08 3.15749e-07 3.1947e-05 7.21648e-07 2.56306e-05)
(3.16916e-05 1.15443e-08 1.01493e-07 3.1552e-05 7.05829e-07 2.52967e-05)
(3.16786e-05 -2.74257e-08 -1.12576e-07 3.15444e-05 7.05979e-07 2.52891e-05)
(3.20217e-05 -7.51744e-08 -3.29601e-07 3.19299e-05 7.21997e-07 2.56125e-05)
(3.25568e-05 -1.57295e-07 -5.51314e-07 3.26008e-05 7.53385e-07 2.61573e-05)
(3.38861e-05 -3.6973e-07 -7.96966e-07 3.38916e-05 7.95385e-07 2.73427e-05)
(3.47341e-05 -6.82063e-07 -1.09205e-06 3.64555e-05 8.30512e-07 2.91101e-05)
(3.29239e-05 1.66822e-07 9.9686e-07 3.33727e-05 5.66681e-07 2.67794e-05)
(3.25568e-05 1.65716e-07 7.45813e-07 3.25208e-05 5.33385e-07 2.61196e-05)
(3.13552e-05 1.39975e-07 5.07431e-07 3.13491e-05 5.12452e-07 2.50807e-05)
(3.09654e-05 7.39615e-08 2.98946e-07 3.08845e-05 4.93494e-07 2.46862e-05)
(3.07426e-05 1.85177e-08 9.61174e-08 3.06459e-05 4.84052e-07 2.44753e-05)
(3.0739e-05 -2.95451e-08 -1.05912e-07 3.06481e-05 4.84845e-07 2.44753e-05)
(3.09841e-05 -8.08704e-08 -3.10605e-07 3.09164e-05 4.96391e-07 2.47078e-05)
(3.14165e-05 -1.3637e-07 -5.21128e-07 3.14208e-05 5.18886e-07 2.51377e-05)
(3.25556e-05 -1.56707e-07 -7.53167e-07 3.25222e-05 5.47787e-07 2.61316e-05)
(3.30943e-05 -1.87093e-07 -9.9876e-07 3.36241e-05 5.94792e-07 2.6959e-05)
(3.27732e-05 1.68237e-07 9.60376e-07 3.30678e-05 3.46514e-07 2.65108e-05)
(3.1916e-05 6.58775e-08 7.17699e-07 3.20216e-05 3.15985e-07 2.56036e-05)
(3.08801e-05 7.75249e-08 4.89608e-07 3.09525e-05 3.01237e-07 2.4678e-05)
(3.03832e-05 5.00438e-08 2.86581e-07 3.03791e-05 2.89196e-07 2.42007e-05)
(3.01292e-05 1.36364e-08 9.22736e-08 3.00952e-05 2.82788e-07 2.39633e-05)
(3.01341e-05 -1.97321e-08 -1.0001e-07 3.01031e-05 2.83739e-07 2.39684e-05)
(3.03976e-05 -5.31171e-08 -2.95184e-07 3.03998e-05 2.92172e-07 2.42162e-05)
(3.09075e-05 -7.9642e-08 -4.98436e-07 3.09821e-05 3.07352e-07 2.47044e-05)
(3.19244e-05 -7.39175e-08 -7.23257e-07 3.20267e-05 3.26331e-07 2.56127e-05)
(3.27207e-05 -1.73146e-07 -9.60471e-07 3.30155e-05 3.56511e-07 2.64715e-05)
(3.25244e-05 5.88105e-08 9.37593e-07 3.27015e-05 1.11362e-07 2.6217e-05)
(3.15372e-05 1.53289e-08 7.03338e-07 3.16791e-05 1.0071e-07 2.52851e-05)
(3.06357e-05 2.18639e-08 4.81072e-07 3.073e-05 9.67224e-08 2.44655e-05)
(3.0097e-05 1.49601e-08 2.8054e-07 3.01266e-05 9.36049e-08 2.39622e-05)
(2.98469e-05 3.19369e-09 9.06384e-08 2.98451e-05 9.20926e-08 2.37264e-05)
(2.98475e-05 -7.95501e-09 -9.66052e-08 2.98472e-05 9.28431e-08 2.37278e-05)
(3.00995e-05 -1.87705e-08 -2.8681e-07 3.01316e-05 9.60235e-08 2.39666e-05)
(3.06441e-05 -2.66179e-08 -4.87186e-07 3.07389e-05 1.01449e-07 2.4474e-05)
(3.15385e-05 -2.35879e-08 -7.0723e-07 3.16828e-05 1.07842e-07 2.52886e-05)
(3.25169e-05 -6.41863e-08 -9.37717e-07 3.27058e-05 1.18655e-07 2.62165e-05)
(3.25135e-05 -6.51692e-08 9.37377e-07 3.26912e-05 -1.24647e-07 2.62094e-05)
(3.1537e-05 -2.59352e-08 7.04403e-07 3.16753e-05 -1.13607e-07 2.52845e-05)
(3.06429e-05 -2.76412e-08 4.82758e-07 3.07343e-05 -1.06035e-07 2.4471e-05)
(3.00988e-05 -1.84789e-08 2.81846e-07 3.01282e-05 -9.94877e-08 2.39645e-05)
(2.98482e-05 -7.55178e-09 9.15164e-08 2.98467e-05 -9.58141e-08 2.37277e-05)
(2.98486e-05 3.20211e-09 -9.60611e-08 2.98481e-05 -9.52025e-08 2.37286e-05)
(3.01001e-05 1.44933e-08 -2.86485e-07 3.01318e-05 -9.75621e-08 2.3967e-05)
(3.06448e-05 2.31297e-08 -4.87004e-07 3.0739e-05 -1.02506e-07 2.44743e-05)
(3.15394e-05 2.08186e-08 -7.07125e-07 3.16831e-05 -1.0861e-07 2.52891e-05)
(3.25172e-05 6.19502e-08 -9.37659e-07 3.27057e-05 -1.19256e-07 2.62165e-05)
(3.27184e-05 -1.73125e-07 9.60112e-07 3.30051e-05 -3.60922e-07 2.64668e-05)
(3.19262e-05 -7.46496e-08 7.20836e-07 3.2021e-05 -3.30522e-07 2.56109e-05)
(3.09086e-05 -7.9839e-08 4.94741e-07 3.09778e-05 -3.10964e-07 2.47028e-05)
(3.04001e-05 -5.23827e-08 2.90782e-07 3.0398e-05 -2.95182e-07 2.42163e-05)
(3.01362e-05 -1.83769e-08 9.49496e-08 3.01036e-05 -2.86557e-07 2.39695e-05)
(3.0136e-05 1.45945e-08 -9.83706e-08 3.01045e-05 -2.86081e-07 2.39698e-05)
(3.04003e-05 4.87236e-08 -2.94213e-07 3.04006e-05 -2.93699e-07 2.42176e-05)
(3.091e-05 7.62182e-08 -4.97864e-07 3.09827e-05 -3.08397e-07 2.47055e-05)
(3.19263e-05 7.12489e-08 -7.22929e-07 3.20272e-05 -3.27086e-07 2.56135e-05)
(3.27216e-05 1.70948e-07 -9.6031e-07 3.30155e-05 -3.57097e-07 2.64717e-05)
(3.30908e-05 -1.86555e-07 9.98256e-07 3.36146e-05 -5.98162e-07 2.69542e-05)
(3.25598e-05 -1.56963e-07 7.50906e-07 3.25183e-05 -5.51029e-07 2.61318e-05)
(3.14202e-05 -1.35981e-07 5.17772e-07 3.14173e-05 -5.21803e-07 2.51377e-05)
(3.09885e-05 -7.919e-08 3.06406e-07 3.09145e-05 -4.98957e-07 2.47088e-05)
(3.07409e-05 -2.63519e-08 1.00609e-07 3.06465e-05 -4.8729e-07 2.44757e-05)
(3.07407e-05 2.32819e-08 -1.03159e-07 3.06471e-05 -4.8691e-07 2.44759e-05)
(3.09881e-05 7.62618e-08 -3.08962e-07 3.09165e-05 -4.9779e-07 2.47093e-05)
(3.14203e-05 1.33062e-07 -5.20163e-07 3.14212e-05 -5.19889e-07 2.51392e-05)
(3.25594e-05 1.54325e-07 -7.52602e-07 3.25233e-05 -5.48526e-07 2.61334e-05)
(3.30959e-05 1.85178e-07 -9.98491e-07 3.36243e-05 -5.95369e-07 2.69595e-05)
(3.47238e-05 -6.81193e-07 1.09132e-06 3.64384e-05 -8.33192e-07 2.90985e-05)
(3.38914e-05 -3.69875e-07 7.94662e-07 3.38864e-05 -7.97953e-07 2.73428e-05)
(3.25628e-05 -1.56841e-07 5.48142e-07 3.25969e-05 -7.55698e-07 2.61581e-05)
(3.20304e-05 -7.35864e-08 3.25618e-07 3.19284e-05 -7.23941e-07 2.56154e-05)
(3.16846e-05 -2.32782e-08 1.07257e-07 3.15408e-05 -7.07602e-07 2.52904e-05)
(3.16842e-05 2.09833e-08 -1.09068e-07 3.15413e-05 -7.07302e-07 2.52904e-05)
(3.20299e-05 7.13408e-08 -3.27492e-07 3.19304e-05 -7.23051e-07 2.56159e-05)
(3.25636e-05 1.54774e-07 -5.50016e-07 3.26016e-05 -7.54238e-07 2.61601e-05)
(3.38909e-05 3.67931e-07 -7.96164e-07 3.38922e-05 -7.96058e-07 2.73445e-05)
(3.47333e-05 6.80397e-07 -1.09164e-06 3.64525e-05 -8.31078e-07 2.91077e-05)
(3.65616e-05 1.29989e-06 1.16183e-06 3.6559e-05 -1.16425e-06 3.02353e-05)
(3.64762e-05 -6.83e-07 8.30597e-07 3.47544e-05 -1.0941e-06 2.91243e-05)
(3.36287e-05 -1.86689e-07 5.94192e-07 3.31002e-05 -9.99671e-07 2.69629e-05)
(3.30186e-05 -1.72661e-07 3.55987e-07 3.2725e-05 -9.61066e-07 2.64746e-05)
(3.2708e-05 -6.38099e-08 1.18272e-07 3.25201e-05 -9.38159e-07 2.62188e-05)
(3.27066e-05 6.21885e-08 -1.19547e-07 3.25189e-05 -9.37978e-07 2.62177e-05)
(3.30147e-05 1.71092e-07 -3.57337e-07 3.27216e-05 -9.6051e-07 2.64715e-05)
(3.36243e-05 1.85276e-07 -5.95634e-07 3.30965e-05 -9.98714e-07 2.69595e-05)
(3.64655e-05 6.80961e-07 -8.31927e-07 3.4746e-05 -1.09264e-06 2.91156e-05)
(3.65646e-05 -1.30161e-06 -1.16228e-06 3.65653e-05 -1.16225e-06 3.02391e-05)
(3.34709e-05 -3.54612e-07 1.53932e-06 3.34398e-05 1.54445e-06 2.81886e-05)
(3.17409e-05 3.81664e-07 1.07643e-06 3.08242e-05 1.42163e-06 2.60322e-05)
(3.02847e-05 -6.98321e-09 7.94951e-07 3.02409e-05 1.38094e-06 2.49088e-05)
(2.94271e-05 8.7773e-08 4.81099e-07 2.94376e-05 1.36411e-06 2.41173e-05)
(2.8945e-05 2.24327e-08 1.579e-07 2.90298e-05 1.34685e-06 2.36902e-05)
(2.89643e-05 -2.41787e-08 -1.64686e-07 2.90332e-05 1.34703e-06 2.36994e-05)
(2.93356e-05 -8.89577e-08 -4.83517e-07 2.93396e-05 1.36441e-06 2.40459e-05)
(3.01412e-05 1.14501e-08 -8.01968e-07 3.00597e-05 1.38235e-06 2.47877e-05)
(3.18537e-05 -3.91318e-07 -1.11613e-06 3.09429e-05 1.43116e-06 2.61485e-05)
(3.34662e-05 3.36043e-07 -1.54711e-06 3.34663e-05 1.54527e-06 2.82009e-05)
(3.07874e-05 3.98308e-07 1.42016e-06 3.16886e-05 1.07975e-06 2.59968e-05)
(2.94667e-05 1.82853e-07 1.08387e-06 2.94563e-05 1.08761e-06 2.42238e-05)
(2.8981e-05 2.68094e-08 7.88609e-07 2.90453e-05 1.07558e-06 2.36557e-05)
(2.85834e-05 -1.57271e-08 4.76535e-07 2.85526e-05 1.06642e-06 2.31708e-05)
(2.82837e-05 -9.32234e-09 1.56241e-07 2.82582e-05 1.06208e-06 2.28706e-05)
(2.82867e-05 -2.19963e-09 -1.62874e-07 2.82603e-05 1.06248e-06 2.28733e-05)
(2.85749e-05 -7.17843e-09 -4.81763e-07 2.8549e-05 1.06788e-06 2.31674e-05)
(2.89603e-05 -2.27174e-08 -7.95884e-07 2.90435e-05 1.07762e-06 2.36426e-05)
(2.94546e-05 -1.78316e-07 -1.0936e-06 2.9456e-05 1.09099e-06 2.4226e-05)
(3.0926e-05 -3.91412e-07 -1.43078e-06 3.18366e-05 1.11196e-06 2.61369e-05)
(3.01544e-05 6.34235e-09 1.38104e-06 3.02018e-05 7.93609e-07 2.48426e-05)
(2.90652e-05 3.76101e-08 1.07693e-06 2.89828e-05 7.92103e-07 2.36581e-05)
(2.81725e-05 4.4056e-08 7.7581e-07 2.81618e-05 7.77238e-07 2.27969e-05)
(2.78405e-05 1.98546e-08 4.70486e-07 2.77902e-05 7.64527e-07 2.23936e-05)
(2.75827e-05 4.74014e-09 1.55376e-07 2.75507e-05 7.60165e-07 2.21334e-05)
(2.75808e-05 -1.16837e-08 -1.60729e-07 2.7552e-05 7.60739e-07 2.21337e-05)
(2.78508e-05 -2.91402e-08 -4.75515e-07 2.78106e-05 7.66382e-07 2.24063e-05)
(2.82259e-05 -4.93283e-08 -7.81328e-07 2.82273e-05 7.7824e-07 2.28446e-05)
(2.89903e-05 -2.24213e-08 -1.07654e-06 2.89105e-05 7.90097e-07 2.36088e-05)
(3.00607e-05 1.04151e-08 -1.38335e-06 3.01439e-05 7.98675e-07 2.47894e-05)
(2.93965e-05 9.35054e-08 1.36356e-06 2.93988e-05 4.80262e-07 2.40907e-05)
(2.85255e-05 -5.86506e-09 1.06554e-06 2.85524e-05 4.76633e-07 2.31474e-05)
(2.77912e-05 2.51402e-08 7.63916e-07 2.78275e-05 4.71236e-07 2.23879e-05)
(2.74058e-05 1.06067e-08 4.61942e-07 2.73993e-05 4.62507e-07 2.19444e-05)
(2.71421e-05 1.32442e-09 1.5288e-07 2.71347e-05 4.58081e-07 2.16758e-05)
(2.71428e-05 -5.42569e-09 -1.57566e-07 2.71381e-05 4.58583e-07 2.16772e-05)
(2.74019e-05 -1.41921e-08 -4.66723e-07 2.74026e-05 4.63352e-07 2.19455e-05)
(2.78031e-05 -2.84119e-08 -7.69111e-07 2.78455e-05 4.71864e-07 2.24026e-05)
(2.85458e-05 -6.192e-09 -1.07011e-06 2.85753e-05 4.78117e-07 2.31674e-05)
(2.93449e-05 -9.02905e-08 -1.36583e-06 2.93448e-05 4.80172e-07 2.40516e-05)
(2.90172e-05 2.32081e-08 1.34631e-06 2.89436e-05 1.58012e-07 2.36846e-05)
(2.82456e-05 -4.10015e-09 1.06105e-06 2.82741e-05 1.5642e-07 2.28616e-05)
(2.7546e-05 9.23719e-09 7.59244e-07 2.75726e-05 1.55753e-07 2.21273e-05)
(2.7142e-05 3.00182e-09 4.57659e-07 2.71414e-05 1.53309e-07 2.16777e-05)
(2.69249e-05 -5.87314e-10 1.5179e-07 2.69217e-05 1.52186e-07 2.1443e-05)
(2.69215e-05 -2.20561e-09 -1.55966e-07 2.69204e-05 1.52481e-07 2.14416e-05)
(2.71342e-05 -4.8315e-09 -4.61895e-07 2.71385e-05 1.54053e-07 2.16752e-05)
(2.75536e-05 -1.00631e-08 -7.63974e-07 2.75835e-05 1.57085e-07 2.21364e-05)
(2.82621e-05 3.49072e-10 -1.06502e-06 2.82934e-05 1.5896e-07 2.28776e-05)
(2.90382e-05 -2.46414e-08 -1.34838e-06 2.898e-05 1.60919e-07 2.37078e-05)
(2.90272e-05 -2.35139e-08 1.34631e-06 2.89648e-05 -1.64588e-07 2.36968e-05)
(2.82529e-05 5.07193e-10 1.06156e-06 2.82833e-05 -1.62744e-07 2.28687e-05)
(2.75497e-05 -8.66847e-09 7.59906e-07 2.75769e-05 -1.60438e-07 2.21311e-05)
(2.71362e-05 -3.61354e-09 4.57896e-07 2.71366e-05 -1.57189e-07 2.16745e-05)
(2.69234e-05 -1.56575e-09 1.52091e-07 2.69203e-05 -1.55623e-07 2.14422e-05)
(2.69216e-05 7.14071e-11 -1.55669e-07 2.69201e-05 -1.55306e-07 2.14417e-05)
(2.71343e-05 3.04584e-09 -4.61643e-07 2.71382e-05 -1.56302e-07 2.16752e-05)
(2.75536e-05 8.65638e-09 -7.63761e-07 2.75833e-05 -1.58844e-07 2.21364e-05)
(2.82622e-05 -1.52947e-09 -1.06486e-06 2.82933e-05 -1.60322e-07 2.28777e-05)
(2.90384e-05 2.34104e-08 -1.34829e-06 2.898e-05 -1.61974e-07 2.37079e-05)
(2.93384e-05 -8.89549e-08 1.36391e-06 2.93384e-05 -4.83443e-07 2.40462e-05)
(2.85404e-05 -5.67226e-09 1.06671e-06 2.85698e-05 -4.8146e-07 2.31622e-05)
(2.78023e-05 -2.72635e-08 7.65257e-07 2.78423e-05 -4.75073e-07 2.24004e-05)
(2.74053e-05 -1.28026e-08 4.62862e-07 2.74022e-05 -4.66447e-07 2.19465e-05)
(2.71457e-05 -3.98447e-09 1.53738e-07 2.71387e-05 -4.61719e-07 2.16789e-05)
(2.71442e-05 3.38757e-09 -1.56692e-07 2.71385e-05 -4.61429e-07 2.16785e-05)
(2.74031e-05 1.26329e-08 -4.65946e-07 2.74025e-05 -4.65574e-07 2.19462e-05)
(2.78036e-05 2.71906e-08 -7.68491e-07 2.7845e-05 -4.73577e-07 2.24028e-05)
(2.85455e-05 5.17149e-09 -1.06965e-06 2.85745e-05 -4.79437e-07 2.3167e-05)
(2.9345e-05 8.90804e-08 -1.36557e-06 2.93445e-05 -4.81199e-07 2.40516e-05)
(3.00556e-05 1.11405e-08 1.38145e-06 3.01399e-05 -8.01718e-07 2.47858e-05)
(2.89862e-05 -2.21627e-08 1.07318e-06 2.89058e-05 -7.93164e-07 2.36049e-05)
(2.82277e-05 -4.83181e-08 7.77575e-07 2.82262e-05 -7.81219e-07 2.28446e-05)
(2.7856e-05 -2.73192e-08 4.71665e-07 2.78119e-05 -7.69326e-07 2.2409e-05)
(2.75867e-05 -9.2103e-09 1.56797e-07 2.75551e-05 -7.63759e-07 2.2138e-05)
(2.75853e-05 9.26933e-09 -1.59156e-07 2.75546e-05 -7.63497e-07 2.21374e-05)
(2.78528e-05 2.74808e-08 -4.74163e-07 2.78107e-05 -7.68503e-07 2.24075e-05)
(2.82264e-05 4.82222e-08 -7.80254e-07 2.82263e-05 -7.79882e-07 2.28447e-05)
(2.899e-05 2.16639e-08 -1.07576e-06 2.89093e-05 -7.91361e-07 2.36083e-05)
(3.00612e-05 -1.12212e-08 -1.38295e-06 3.01437e-05 -7.99671e-07 2.47896e-05)
(3.09228e-05 -3.91762e-07 1.4289e-06 3.18335e-05 -1.11482e-06 2.61349e-05)
(2.94545e-05 -1.7842e-07 1.09024e-06 2.94545e-05 -1.09372e-06 2.42251e-05)
(2.89676e-05 -2.19032e-08 7.92226e-07 2.90478e-05 -1.08022e-06 2.36469e-05)
(2.85846e-05 -5.33955e-09 4.77943e-07 2.85543e-05 -1.07032e-06 2.31735e-05)
(2.8297e-05 1.17249e-09 1.58758e-07 2.82651e-05 -1.06484e-06 2.288e-05)
(2.82947e-05 -8.95558e-10 -1.60542e-07 2.82634e-05 -1.06462e-06 2.28785e-05)
(2.85791e-05 5.5584e-09 -4.79864e-07 2.85503e-05 -1.06963e-06 2.317e-05)
(2.89632e-05 2.19492e-08 -7.94411e-07 2.90444e-05 -1.07906e-06 2.36442e-05)
(2.94551e-05 1.77903e-07 -1.0925e-06 2.94555e-05 -1.09215e-06 2.4226e-05)
(3.09268e-05 3.91177e-07 -1.43015e-06 3.18364e-05 -1.11289e-06 2.6137e-05)
(3.34664e-05 3.34947e-07 1.54497e-06 3.34636e-05 -1.54764e-06 2.81999e-05)
(3.18596e-05 -3.91206e-07 1.11284e-06 3.09491e-05 -1.43282e-06 2.61523e-05)
(3.01551e-05 1.13183e-08 7.98535e-07 3.00728e-05 -1.38365e-06 2.47976e-05)
(2.93514e-05 -8.9638e-08 4.79977e-07 2.93522e-05 -1.36565e-06 2.40567e-05)
(2.89843e-05 -2.41856e-08 1.60787e-07 2.90433e-05 -1.34815e-06 2.37112e-05)
(2.89817e-05 2.37361e-08 -1.62122e-07 2.90409e-05 -1.34804e-06 2.37093e-05)
(2.93443e-05 8.93566e-08 -4.81423e-07 2.93455e-05 -1.36528e-06 2.40515e-05)
(3.01472e-05 -1.10592e-08 -8.00219e-07 3.00649e-05 -1.383e-06 2.47918e-05)
(3.18572e-05 3.91692e-07 -1.11474e-06 3.09465e-05 -1.43173e-06 2.61508e-05)
(3.34686e-05 -3.35265e-07 -1.5461e-06 3.34688e-05 -1.54582e-06 2.82023e-05)
(2.53807e-05 5.59704e-08 1.37368e-06 2.5377e-05 1.37472e-06 2.19538e-05)
(2.29333e-05 1.1216e-07 9.77275e-07 2.26722e-05 1.27404e-06 1.93736e-05)
(2.22521e-05 -8.81455e-08 7.14197e-07 2.24075e-05 1.27787e-06 1.87568e-05)
(2.12055e-05 2.51532e-08 4.29854e-07 2.13609e-05 1.27308e-06 1.77785e-05)
(2.08348e-05 -1.03574e-08 1.42881e-07 2.10335e-05 1.26278e-06 1.74205e-05)
(2.08804e-05 1.32858e-08 -1.45799e-07 2.10493e-05 1.26285e-06 1.74434e-05)
(2.11817e-05 -2.22561e-08 -4.30536e-07 2.12974e-05 1.27327e-06 1.77443e-05)
(2.20013e-05 1.13827e-07 -7.16677e-07 2.20946e-05 1.27828e-06 1.85399e-05)
(2.27052e-05 -7.53205e-08 -1.00127e-06 2.24129e-05 1.27909e-06 1.92062e-05)
(2.51854e-05 -5.94326e-08 -1.37699e-06 2.51847e-05 1.37584e-06 2.18085e-05)
(2.2599e-05 1.22415e-07 1.27536e-06 2.28633e-05 9.78287e-07 1.93175e-05)
(2.11075e-05 4.92485e-08 9.90347e-07 2.11029e-05 9.90852e-07 1.77059e-05)
(2.08083e-05 -5.78608e-08 7.28337e-07 2.08868e-05 9.95079e-07 1.72733e-05)
(2.03442e-05 -4.21681e-08 4.39049e-07 2.03854e-05 9.98812e-07 1.67423e-05)
(2.01338e-05 -1.61414e-08 1.45352e-07 2.01954e-05 9.99679e-07 1.65077e-05)
(2.01534e-05 8.46637e-09 -1.48104e-07 2.0206e-05 9.99852e-07 1.65196e-05)
(2.03879e-05 1.41817e-08 -4.41456e-07 2.04108e-05 1.00047e-06 1.67694e-05)
(2.08181e-05 4.16371e-08 -7.33192e-07 2.08934e-05 9.99252e-07 1.72759e-05)
(2.09678e-05 -3.16194e-08 -9.94344e-07 2.09685e-05 9.92731e-07 1.76088e-05)
(2.23989e-05 -7.5352e-08 -1.2779e-06 2.26901e-05 9.97973e-07 1.91955e-05)
(2.2342e-05 -8.40868e-08 1.2794e-06 2.2195e-05 7.12477e-07 1.87081e-05)
(2.09083e-05 -5.01178e-08 9.9984e-07 2.082e-05 7.3054e-07 1.72818e-05)
(2.01817e-05 -3.37621e-08 7.25441e-07 2.01758e-05 7.24585e-07 1.65192e-05)
(1.97665e-05 -1.44838e-08 4.38708e-07 1.97622e-05 7.19109e-07 1.60459e-05)
(1.94723e-05 -3.92874e-09 1.45532e-07 1.95039e-05 7.17453e-07 1.57532e-05)
(1.94798e-05 -2.97117e-09 -1.47226e-07 1.95096e-05 7.1781e-07 1.57586e-05)
(1.97828e-05 -4.24354e-10 -4.4021e-07 1.97787e-05 7.20756e-07 1.60588e-05)
(2.02465e-05 8.41435e-09 -7.27567e-07 2.02498e-05 7.2593e-07 1.65742e-05)
(2.08489e-05 4.15473e-08 -9.96543e-07 2.07782e-05 7.28408e-07 1.72477e-05)
(2.21029e-05 1.12064e-07 -1.27864e-06 2.20113e-05 7.14808e-07 1.85473e-05)
(2.13528e-05 2.35969e-08 1.2732e-06 2.12083e-05 4.29434e-07 1.7776e-05)
(2.03797e-05 -3.79528e-08 9.99886e-07 2.03392e-05 4.38755e-07 1.6738e-05)
(1.97695e-05 -1.21943e-08 7.20517e-07 1.97677e-05 4.38279e-07 1.60487e-05)
(1.93637e-05 -1.60954e-08 4.35241e-07 1.93615e-05 4.34403e-07 1.55818e-05)
(1.90747e-05 -6.87441e-09 1.44545e-07 1.90936e-05 4.32551e-07 1.52893e-05)
(1.90772e-05 -1.61372e-10 -1.45854e-07 1.90971e-05 4.32896e-07 1.52913e-05)
(1.9356e-05 5.78763e-09 -4.36472e-07 1.93596e-05 4.34923e-07 1.55785e-05)
(1.97719e-05 1.8535e-10 -7.21968e-07 1.97833e-05 4.3838e-07 1.60575e-05)
(2.04112e-05 1.5046e-08 -1.00161e-06 2.03948e-05 4.39641e-07 1.67733e-05)
(2.13106e-05 -2.45346e-08 -1.27428e-06 2.12e-05 4.29123e-07 1.77568e-05)
(2.10385e-05 -1.34546e-08 1.26267e-06 2.08452e-05 1.43377e-07 1.74262e-05)
(2.01981e-05 -1.58654e-08 9.99913e-07 2.01394e-05 1.45524e-07 1.65111e-05)
(1.95095e-05 -3.24461e-09 7.18068e-07 1.94764e-05 1.45371e-07 1.57572e-05)
(1.91031e-05 -6.9094e-09 4.33438e-07 1.90821e-05 1.44142e-07 1.52956e-05)
(1.88634e-05 -4.01834e-09 1.4445e-07 1.88631e-05 1.43942e-07 1.50396e-05)
(1.88604e-05 -1.23719e-09 -1.4544e-07 1.88624e-05 1.44071e-07 1.50382e-05)
(1.9093e-05 1.04506e-09 -4.34315e-07 1.90797e-05 1.44439e-07 1.52916e-05)
(1.95144e-05 -1.28747e-09 -7.19541e-07 1.94932e-05 1.45788e-07 1.57665e-05)
(2.02133e-05 1.06274e-08 -1.00142e-06 2.01706e-05 1.46504e-07 1.653e-05)
(2.1058e-05 1.14072e-08 -1.26385e-06 2.09012e-05 1.44475e-07 1.7455e-05)
(2.10503e-05 1.20392e-08 1.2624e-06 2.08823e-05 -1.45212e-07 1.74439e-05)
(2.02084e-05 8.05848e-09 9.9982e-07 2.01572e-05 -1.47729e-07 1.6522e-05)
(1.95156e-05 -2.78889e-09 7.18119e-07 1.9485e-05 -1.47056e-07 1.57632e-05)
(1.90997e-05 -2.07193e-10 4.33266e-07 1.9079e-05 -1.45876e-07 1.52937e-05)
(1.8865e-05 -1.30169e-09 1.44533e-07 1.88636e-05 -1.45647e-07 1.50406e-05)
(1.88623e-05 -1.68349e-09 -1.45314e-07 1.8863e-05 -1.4554e-07 1.50394e-05)
(1.90939e-05 -2.54647e-09 -4.3419e-07 1.90798e-05 -1.45649e-07 1.52921e-05)
(1.95147e-05 6.2511e-10 -7.19415e-07 1.94932e-05 -1.4673e-07 1.57666e-05)
(2.02128e-05 -1.1003e-08 -1.00131e-06 2.01702e-05 -1.47204e-07 1.65297e-05)
(2.10576e-05 -1.22512e-08 -1.26381e-06 2.09009e-05 -1.44953e-07 1.74548e-05)
(2.12967e-05 -2.30923e-08 1.27282e-06 2.11815e-05 -4.29824e-07 1.77433e-05)
(2.04076e-05 1.37934e-08 9.99786e-07 2.03853e-05 -4.40651e-07 1.67672e-05)
(1.97776e-05 -5.15695e-10 7.2042e-07 1.97809e-05 -4.39524e-07 1.60584e-05)
(1.93659e-05 5.70774e-09 4.35293e-07 1.93618e-05 -4.36232e-07 1.55833e-05)
(1.90869e-05 1.0696e-09 1.44852e-07 1.9101e-05 -4.34382e-07 1.52969e-05)
(1.9084e-05 -2.51831e-09 -1.45504e-07 1.91001e-05 -4.34324e-07 1.52955e-05)
(1.93592e-05 -6.96915e-09 -4.36101e-07 1.93605e-05 -4.36078e-07 1.55804e-05)
(1.97727e-05 -6.54658e-10 -7.21626e-07 1.97829e-05 -4.39282e-07 1.60578e-05)
(2.04095e-05 -1.53196e-08 -1.00131e-06 2.0393e-05 -4.40311e-07 1.6772e-05)
(2.13091e-05 2.36109e-08 -1.27414e-06 2.11987e-05 -4.29612e-07 1.77558e-05)
(2.20867e-05 1.13454e-07 1.27717e-06 2.19933e-05 -7.15651e-07 1.85333e-05)
(2.08444e-05 4.1159e-08 9.94623e-07 2.0769e-05 -7.29433e-07 1.72416e-05)
(2.02546e-05 8.43779e-09 7.25938e-07 2.02501e-05 -7.27022e-07 1.65771e-05)
(1.97954e-05 3.22827e-10 4.38885e-07 1.97835e-05 -7.22008e-07 1.60658e-05)
(1.94963e-05 -1.13968e-09 1.46055e-07 1.95183e-05 -7.19255e-07 1.57689e-05)
(1.94936e-05 8.30108e-10 -1.46604e-07 1.95171e-05 -7.19219e-07 1.57674e-05)
(1.97881e-05 -4.95607e-10 -4.39601e-07 1.97807e-05 -7.21868e-07 1.6062e-05)
(2.02473e-05 -8.66563e-09 -7.26998e-07 2.02488e-05 -7.26791e-07 1.65742e-05)
(2.08457e-05 -4.15814e-08 -9.96078e-07 2.07751e-05 -7.29073e-07 1.72453e-05)
(2.21002e-05 -1.12467e-07 -1.27846e-06 2.20091e-05 -7.15307e-07 1.85455e-05)
(2.23887e-05 -7.54809e-08 1.27656e-06 2.26798e-05 -9.99113e-07 1.91873e-05)
(2.09688e-05 -3.16625e-08 9.92421e-07 2.09674e-05 -9.93847e-07 1.76081e-05)
(2.0833e-05 4.21026e-08 7.31557e-07 2.09031e-05 -1.00034e-06 1.72851e-05)
(2.04051e-05 1.54121e-08 4.40009e-07 2.04214e-05 -1.00155e-06 1.67804e-05)
(2.0173e-05 1.09166e-08 1.46679e-07 2.02169e-05 -1.00098e-06 1.6532e-05)
(2.01698e-05 -1.07062e-08 -1.47127e-07 2.02148e-05 -1.00094e-06 1.653e-05)
(2.03962e-05 -1.50583e-08 -4.40566e-07 2.04157e-05 -1.00142e-06 1.67748e-05)
(2.08226e-05 -4.15968e-08 -7.32441e-07 2.0897e-05 -1.00006e-06 1.72791e-05)