/*--------------------------------*- C++ -*----------------------------------*\
| =========                 |                                                 |
| \\      /  F ield         | OpenFOAM: The Open Source CFD Toolbox           |
|  \\    /   O peration     | Version:  2406                                  |
|   \\  /    A nd           | Website:  www.openfoam.com                      |
|    \\/     M anipulation  |                                                 |
\*---------------------------------------------------------------------------*/
FoamFile
{
    version     2.0;
    format      ascii;
    arch        "LSB;label=32;scalar=64";
    class       volScalarField;
    location    "450";
    object      turbulenceProperties:nuEff;
}
// * * * * * * * * * * * * * * * * * * * * * * * * * * * * * * * * * * * * * //

dimensions      [0 2 -1 0 0 0 0];

internalField   nonuniform List<scalar> 
25000
(
1.58872e-05
1.59284e-05
1.59543e-05
1.59672e-05
1.59728e-05
1.59728e-05
1.59672e-05
1.59545e-05
1.59306e-05
1.58872e-05
1.59305e-05
1.59674e-05
1.59883e-05
1.59998e-05
1.60055e-05
1.60055e-05
1.6e-05
1.59934e-05
1.59675e-05
1.59285e-05
1.59545e-05
1.59934e-05
1.60109e-05
1.60185e-05
1.60238e-05
1.60238e-05
1.60192e-05
1.60109e-05
1.59883e-05
1.59544e-05
1.59672e-05
1.6e-05
1.60192e-05
1.603e-05
1.60345e-05
1.60349e-05
1.603e-05
1.60185e-05
1.59999e-05
1.59672e-05
1.59728e-05
1.60055e-05
1.60238e-05
1.60349e-05
1.60415e-05
1.60416e-05
1.60345e-05
1.60238e-05
1.60055e-05
1.59728e-05
1.59728e-05
1.60055e-05
1.60238e-05
1.60345e-05
1.60416e-05
1.60416e-05
1.60345e-05
1.60238e-05
1.60055e-05
1.59728e-05
1.59672e-05
1.59999e-05
1.60185e-05
1.603e-05
1.60349e-05
1.60349e-05
1.603e-05
1.60185e-05
1.59999e-05
1.59672e-05
1.59544e-05
1.59883e-05
1.60109e-05
1.60192e-05
1.60238e-05
1.60238e-05
1.60192e-05
1.60109e-05
1.59883e-05
1.59544e-05
1.59285e-05
1.59675e-05
1.59934e-05
1.6e-05
1.60055e-05
1.60055e-05
1.6e-05
1.59934e-05
1.59675e-05
1.59285e-05
1.58872e-05
1.59306e-05
1.59545e-05
1.59672e-05
1.59728e-05
1.59728e-05
1.59672e-05
1.59545e-05
1.59306e-05
1.58872e-05
1.55255e-05
1.56521e-05
1.57285e-05
1.57675e-05
1.57845e-05
1.57845e-05
1.57675e-05
1.57294e-05
1.56574e-05
1.55255e-05
1.56572e-05
1.57688e-05
1.5831e-05
1.58653e-05
1.58819e-05
1.58819e-05
1.58661e-05
1.58442e-05
1.57689e-05
1.56523e-05
1.57293e-05
1.58442e-05
1.58974e-05
1.59212e-05
1.59366e-05
1.59367e-05
1.59231e-05
1.58975e-05
1.5831e-05
1.57286e-05
1.57675e-05
1.58661e-05
1.59231e-05
1.59549e-05
1.59686e-05
1.59698e-05
1.5955e-05
1.59213e-05
1.58653e-05
1.57675e-05
1.57845e-05
1.58819e-05
1.59367e-05
1.59697e-05
1.59892e-05
1.59893e-05
1.59686e-05
1.59366e-05
1.58819e-05
1.57845e-05
1.57845e-05
1.58819e-05
1.59366e-05
1.59686e-05
1.59893e-05
1.59893e-05
1.59686e-05
1.59366e-05
1.58819e-05
1.57845e-05
1.57675e-05
1.58653e-05
1.59213e-05
1.5955e-05
1.59698e-05
1.59698e-05
1.5955e-05
1.59213e-05
1.58653e-05
1.57675e-05
1.57286e-05
1.5831e-05
1.58975e-05
1.59231e-05
1.59367e-05
1.59367e-05
1.59231e-05
1.58975e-05
1.5831e-05
1.57286e-05
1.56523e-05
1.57689e-05
1.58442e-05
1.58661e-05
1.58819e-05
1.58819e-05
1.58661e-05
1.58442e-05
1.57689e-05
1.56523e-05
1.55255e-05
1.56573e-05
1.57294e-05
1.57675e-05
1.57845e-05
1.57845e-05
1.57675e-05
1.57294e-05
1.56574e-05
1.55255e-05
1.51741e-05
1.5383e-05
1.55073e-05
1.55718e-05
1.56e-05
1.56e-05
1.55719e-05
1.5509e-05
1.53903e-05
1.5174e-05
1.53902e-05
1.55745e-05
1.56767e-05
1.57331e-05
1.57601e-05
1.57602e-05
1.57347e-05
1.56961e-05
1.55746e-05
1.53831e-05
1.55089e-05
1.56961e-05
1.5785e-05
1.58255e-05
1.58504e-05
1.58507e-05
1.58284e-05
1.57851e-05
1.56768e-05
1.55073e-05
1.55718e-05
1.57347e-05
1.58283e-05
1.58807e-05
1.59035e-05
1.59052e-05
1.58807e-05
1.58255e-05
1.57331e-05
1.55718e-05
1.56e-05
1.57602e-05
1.58507e-05
1.59052e-05
1.5937e-05
1.5937e-05
1.59035e-05
1.58505e-05
1.57602e-05
1.56e-05
1.56e-05
1.57601e-05
1.58504e-05
1.59035e-05
1.5937e-05
1.5937e-05
1.59035e-05
1.58505e-05
1.57602e-05
1.56e-05
1.55718e-05
1.57331e-05
1.58255e-05
1.58807e-05
1.59053e-05
1.59053e-05
1.58807e-05
1.58255e-05
1.57331e-05
1.55718e-05
1.55074e-05
1.56768e-05
1.57851e-05
1.58284e-05
1.58507e-05
1.58507e-05
1.58284e-05
1.57851e-05
1.56768e-05
1.55074e-05
1.53831e-05
1.55746e-05
1.56961e-05
1.57347e-05
1.57602e-05
1.57602e-05
1.57347e-05
1.56961e-05
1.55746e-05
1.53831e-05
1.5174e-05
1.53903e-05
1.5509e-05
1.55719e-05
1.56e-05
1.56e-05
1.55719e-05
1.5509e-05
1.53903e-05
1.5174e-05
1.48396e-05
1.51231e-05
1.52921e-05
1.53811e-05
1.54201e-05
1.54201e-05
1.53812e-05
1.52947e-05
1.5132e-05
1.48394e-05
1.51318e-05
1.53851e-05
1.55258e-05
1.56033e-05
1.56404e-05
1.56406e-05
1.5606e-05
1.55499e-05
1.53853e-05
1.51232e-05
1.52946e-05
1.55498e-05
1.56738e-05
1.57313e-05
1.57654e-05
1.57658e-05
1.5735e-05
1.56739e-05
1.55259e-05
1.52921e-05
1.53812e-05
1.56059e-05
1.57349e-05
1.58071e-05
1.58391e-05
1.58412e-05
1.58071e-05
1.57313e-05
1.56033e-05
1.53811e-05
1.54201e-05
1.56406e-05
1.57658e-05
1.58412e-05
1.58846e-05
1.58846e-05
1.5839e-05
1.57654e-05
1.56405e-05
1.54201e-05
1.54201e-05
1.56404e-05
1.57654e-05
1.58391e-05
1.58847e-05
1.58847e-05
1.5839e-05
1.57654e-05
1.56405e-05
1.54201e-05
1.53811e-05
1.56033e-05
1.57313e-05
1.58071e-05
1.58414e-05
1.58414e-05
1.58071e-05
1.57313e-05
1.56033e-05
1.53811e-05
1.52921e-05
1.55259e-05
1.56739e-05
1.5735e-05
1.57659e-05
1.57659e-05
1.5735e-05
1.56739e-05
1.55259e-05
1.52921e-05
1.51232e-05
1.53853e-05
1.55499e-05
1.5606e-05
1.56406e-05
1.56406e-05
1.5606e-05
1.55499e-05
1.53853e-05
1.51232e-05
1.48394e-05
1.5132e-05
1.52947e-05
1.53813e-05
1.54201e-05
1.54201e-05
1.53813e-05
1.52947e-05
1.5132e-05
1.48394e-05
1.45256e-05
1.48736e-05
1.50837e-05
1.51959e-05
1.52452e-05
1.52452e-05
1.51962e-05
1.50874e-05
1.48837e-05
1.45255e-05
1.48834e-05
1.52008e-05
1.53782e-05
1.5476e-05
1.55228e-05
1.55231e-05
1.54797e-05
1.54061e-05
1.52012e-05
1.48738e-05
1.50872e-05
1.54059e-05
1.55639e-05
1.56384e-05
1.56814e-05
1.5682e-05
1.56429e-05
1.55641e-05
1.53784e-05
1.50839e-05
1.51962e-05
1.54796e-05
1.56428e-05
1.57342e-05
1.57752e-05
1.57777e-05
1.57342e-05
1.56385e-05
1.54761e-05
1.5196e-05
1.52452e-05
1.5523e-05
1.5682e-05
1.57776e-05
1.58322e-05
1.58322e-05
1.5775e-05
1.56814e-05
1.55228e-05
1.52452e-05
1.52452e-05
1.55228e-05
1.56814e-05
1.57752e-05
1.58323e-05
1.58323e-05
1.5775e-05
1.56814e-05
1.55228e-05
1.52452e-05
1.5196e-05
1.54761e-05
1.56385e-05
1.57342e-05
1.57779e-05
1.57779e-05
1.57342e-05
1.56385e-05
1.54761e-05
1.5196e-05
1.50839e-05
1.53784e-05
1.55641e-05
1.56429e-05
1.56821e-05
1.56821e-05
1.56429e-05
1.55641e-05
1.53784e-05
1.50839e-05
1.48738e-05
1.52012e-05
1.54061e-05
1.54797e-05
1.55231e-05
1.55231e-05
1.54797e-05
1.54061e-05
1.52012e-05
1.48738e-05
1.45255e-05
1.48837e-05
1.50874e-05
1.51963e-05
1.52453e-05
1.52453e-05
1.51963e-05
1.50874e-05
1.48837e-05
1.45255e-05
1.42317e-05
1.46344e-05
1.48822e-05
1.50162e-05
1.50752e-05
1.50753e-05
1.50167e-05
1.48869e-05
1.46454e-05
1.42318e-05
1.4645e-05
1.50215e-05
1.52338e-05
1.53512e-05
1.54072e-05
1.54076e-05
1.53558e-05
1.52645e-05
1.5022e-05
1.46348e-05
1.48866e-05
1.52642e-05
1.54553e-05
1.55468e-05
1.55983e-05
1.55991e-05
1.55519e-05
1.54555e-05
1.52341e-05
1.48824e-05
1.50166e-05
1.53557e-05
1.55518e-05
1.56618e-05
1.57117e-05
1.57145e-05
1.56619e-05
1.55469e-05
1.53513e-05
1.50162e-05
1.50753e-05
1.54075e-05
1.5599e-05
1.57144e-05
1.57797e-05
1.57797e-05
1.57115e-05
1.55982e-05
1.54072e-05
1.50753e-05
1.50753e-05
1.54072e-05
1.55983e-05
1.57118e-05
1.57797e-05
1.57797e-05
1.57115e-05
1.55982e-05
1.54072e-05
1.50753e-05
1.50162e-05
1.53513e-05
1.55469e-05
1.56619e-05
1.57148e-05
1.57148e-05
1.56619e-05
1.55469e-05
1.53513e-05
1.50162e-05
1.48824e-05
1.52341e-05
1.54555e-05
1.55519e-05
1.55992e-05
1.55992e-05
1.55519e-05
1.54555e-05
1.52341e-05
1.48824e-05
1.46348e-05
1.5022e-05
1.52645e-05
1.53559e-05
1.54076e-05
1.54076e-05
1.53559e-05
1.52645e-05
1.5022e-05
1.46348e-05
1.42318e-05
1.46454e-05
1.48869e-05
1.50167e-05
1.50753e-05
1.50753e-05
1.50167e-05
1.48869e-05
1.46454e-05
1.42319e-05
1.39556e-05
1.44047e-05
1.46866e-05
1.4841e-05
1.49094e-05
1.49095e-05
1.48417e-05
1.46921e-05
1.44162e-05
1.39558e-05
1.44157e-05
1.48464e-05
1.5092e-05
1.52283e-05
1.52932e-05
1.52937e-05
1.52339e-05
1.51249e-05
1.4847e-05
1.4405e-05
1.46918e-05
1.51244e-05
1.53476e-05
1.54561e-05
1.55159e-05
1.55169e-05
1.54618e-05
1.53479e-05
1.50924e-05
1.46868e-05
1.48416e-05
1.52337e-05
1.54616e-05
1.55899e-05
1.56486e-05
1.56515e-05
1.559e-05
1.54563e-05
1.52284e-05
1.48411e-05
1.49094e-05
1.52937e-05
1.55168e-05
1.56514e-05
1.5727e-05
1.5727e-05
1.56483e-05
1.55159e-05
1.52932e-05
1.49094e-05
1.49094e-05
1.52932e-05
1.55159e-05
1.56486e-05
1.57271e-05
1.57271e-05
1.56483e-05
1.55159e-05
1.52932e-05
1.49094e-05
1.48411e-05
1.52284e-05
1.54563e-05
1.55901e-05
1.56519e-05
1.5652e-05
1.55901e-05
1.54563e-05
1.52284e-05
1.48411e-05
1.46868e-05
1.50924e-05
1.53479e-05
1.54618e-05
1.55171e-05
1.55171e-05
1.54618e-05
1.53479e-05
1.50924e-05
1.46868e-05
1.4405e-05
1.4847e-05
1.51249e-05
1.52339e-05
1.52938e-05
1.52938e-05
1.52339e-05
1.51249e-05
1.4847e-05
1.44051e-05
1.39558e-05
1.44162e-05
1.46922e-05
1.48418e-05
1.49095e-05
1.49095e-05
1.48418e-05
1.46922e-05
1.44162e-05
1.39558e-05
1.36964e-05
1.41838e-05
1.44963e-05
1.46698e-05
1.47471e-05
1.47472e-05
1.46708e-05
1.45027e-05
1.41956e-05
1.36967e-05
1.41951e-05
1.46751e-05
1.49525e-05
1.51071e-05
1.51806e-05
1.51813e-05
1.51136e-05
1.4987e-05
1.4676e-05
1.41842e-05
1.45023e-05
1.49864e-05
1.52408e-05
1.53662e-05
1.54342e-05
1.54354e-05
1.53725e-05
1.52412e-05
1.4953e-05
1.44966e-05
1.46706e-05
1.51133e-05
1.53722e-05
1.55183e-05
1.55857e-05
1.55888e-05
1.55185e-05
1.53665e-05
1.51073e-05
1.46699e-05
1.47471e-05
1.51812e-05
1.54352e-05
1.55887e-05
1.56741e-05
1.56742e-05
1.55853e-05
1.54341e-05
1.51806e-05
1.47471e-05
1.47471e-05
1.51806e-05
1.54342e-05
1.55857e-05
1.56743e-05
1.56743e-05
1.55853e-05
1.54341e-05
1.51806e-05
1.47471e-05
1.46699e-05
1.51073e-05
1.53664e-05
1.55186e-05
1.55893e-05
1.55893e-05
1.55186e-05
1.53665e-05
1.51073e-05
1.46699e-05
1.44966e-05
1.4953e-05
1.52412e-05
1.53725e-05
1.54356e-05
1.54356e-05
1.53725e-05
1.52413e-05
1.4953e-05
1.44966e-05
1.41842e-05
1.46759e-05
1.4987e-05
1.51136e-05
1.51815e-05
1.51815e-05
1.51136e-05
1.4987e-05
1.4676e-05
1.41842e-05
1.36967e-05
1.41956e-05
1.45027e-05
1.46708e-05
1.47472e-05
1.47472e-05
1.46708e-05
1.45027e-05
1.41956e-05
1.36967e-05
1.34552e-05
1.39724e-05
1.43116e-05
1.45026e-05
1.45883e-05
1.45884e-05
1.45039e-05
1.43186e-05
1.39843e-05
1.34555e-05
1.39838e-05
1.45079e-05
1.48153e-05
1.49875e-05
1.50694e-05
1.50703e-05
1.49949e-05
1.48509e-05
1.45088e-05
1.39727e-05
1.43181e-05
1.48502e-05
1.51349e-05
1.52771e-05
1.5353e-05
1.53544e-05
1.52839e-05
1.51354e-05
1.48159e-05
1.43119e-05
1.45037e-05
1.49945e-05
1.52835e-05
1.54472e-05
1.5523e-05
1.55262e-05
1.54474e-05
1.52774e-05
1.49878e-05
1.45027e-05
1.45884e-05
1.50701e-05
1.53542e-05
1.55261e-05
1.56212e-05
1.56213e-05
1.55226e-05
1.53529e-05
1.50694e-05
1.45883e-05
1.45883e-05
1.50694e-05
1.5353e-05
1.5523e-05
1.56213e-05
1.56214e-05
1.55226e-05
1.53529e-05
1.50694e-05
1.45883e-05
1.45027e-05
1.49877e-05
1.52774e-05
1.54475e-05
1.55268e-05
1.55268e-05
1.54475e-05
1.52774e-05
1.49878e-05
1.45027e-05
1.43118e-05
1.48159e-05
1.51354e-05
1.52839e-05
1.53547e-05
1.53547e-05
1.52839e-05
1.51355e-05
1.48159e-05
1.43119e-05
1.39727e-05
1.45088e-05
1.48509e-05
1.49949e-05
1.50704e-05
1.50704e-05
1.49949e-05
1.48509e-05
1.45088e-05
1.39727e-05
1.34554e-05
1.39843e-05
1.43186e-05
1.45039e-05
1.45885e-05
1.45885e-05
1.45039e-05
1.43186e-05
1.39843e-05
1.34555e-05
1.32344e-05
1.37712e-05
1.41329e-05
1.43398e-05
1.44332e-05
1.44334e-05
1.43413e-05
1.41405e-05
1.37831e-05
1.32346e-05
1.37826e-05
1.43449e-05
1.46805e-05
1.48697e-05
1.49596e-05
1.49607e-05
1.48777e-05
1.47168e-05
1.43459e-05
1.37715e-05
1.414e-05
1.4716e-05
1.503e-05
1.51888e-05
1.52725e-05
1.52741e-05
1.5196e-05
1.50306e-05
1.46811e-05
1.41332e-05
1.43411e-05
1.48773e-05
1.51955e-05
1.53764e-05
1.54605e-05
1.54639e-05
1.53766e-05
1.51892e-05
1.48699e-05
1.43399e-05
1.44333e-05
1.49605e-05
1.52739e-05
1.54637e-05
1.55682e-05
1.55683e-05
1.54601e-05
1.52724e-05
1.49595e-05
1.44332e-05
1.44332e-05
1.49596e-05
1.52725e-05
1.54606e-05
1.55684e-05
1.55684e-05
1.54601e-05
1.52724e-05
1.49595e-05
1.44332e-05
1.43399e-05
1.48699e-05
1.51891e-05
1.53767e-05
1.54646e-05
1.54646e-05
1.53767e-05
1.51892e-05
1.48699e-05
1.43399e-05
1.41332e-05
1.46811e-05
1.50306e-05
1.5196e-05
1.52744e-05
1.52745e-05
1.5196e-05
1.50306e-05
1.46811e-05
1.41332e-05
1.37715e-05
1.43459e-05
1.47168e-05
1.48778e-05
1.49608e-05
1.49608e-05
1.48778e-05
1.47168e-05
1.43459e-05
1.37715e-05
1.32345e-05
1.37831e-05
1.41405e-05
1.43413e-05
1.44335e-05
1.44335e-05
1.43413e-05
1.41405e-05
1.37831e-05
1.32346e-05
1.3037e-05
1.35815e-05
1.3961e-05
1.41818e-05
1.42823e-05
1.42826e-05
1.41836e-05
1.3969e-05
1.35933e-05
1.30371e-05
1.35928e-05
1.41866e-05
1.45482e-05
1.47536e-05
1.48512e-05
1.48525e-05
1.47623e-05
1.45849e-05
1.41877e-05
1.35817e-05
1.39685e-05
1.4584e-05
1.49262e-05
1.51013e-05
1.51927e-05
1.51944e-05
1.51089e-05
1.49269e-05
1.45489e-05
1.39613e-05
1.41834e-05
1.47618e-05
1.51083e-05
1.5306e-05
1.53984e-05
1.54019e-05
1.53063e-05
1.51017e-05
1.47539e-05
1.41819e-05
1.42825e-05
1.48523e-05
1.51942e-05
1.54016e-05
1.55152e-05
1.55152e-05
1.53979e-05
1.51925e-05
1.48511e-05
1.42823e-05
1.42823e-05
1.48512e-05
1.51927e-05
1.53984e-05
1.55153e-05
1.55154e-05
1.53979e-05
1.51925e-05
1.48511e-05
1.42823e-05
1.41819e-05
1.47539e-05
1.51017e-05
1.53064e-05
1.54026e-05
1.54026e-05
1.53064e-05
1.51017e-05
1.47539e-05
1.41819e-05
1.39613e-05
1.45489e-05
1.49269e-05
1.51089e-05
1.51948e-05
1.51948e-05
1.51089e-05
1.49269e-05
1.45489e-05
1.39612e-05
1.35817e-05
1.41876e-05
1.45849e-05
1.47623e-05
1.48527e-05
1.48527e-05
1.47623e-05
1.45849e-05
1.41876e-05
1.35817e-05
1.30371e-05
1.35932e-05
1.3969e-05
1.41836e-05
1.42826e-05
1.42826e-05
1.41836e-05
1.3969e-05
1.35932e-05
1.30371e-05
1.28687e-05
1.34048e-05
1.37966e-05
1.40292e-05
1.4136e-05
1.41363e-05
1.40312e-05
1.38049e-05
1.34164e-05
1.28688e-05
1.3416e-05
1.40336e-05
1.44187e-05
1.46394e-05
1.47444e-05
1.47458e-05
1.46487e-05
1.44556e-05
1.40346e-05
1.34051e-05
1.38045e-05
1.44546e-05
1.48236e-05
1.50147e-05
1.51135e-05
1.51154e-05
1.50226e-05
1.48243e-05
1.44194e-05
1.37968e-05
1.4031e-05
1.46481e-05
1.5022e-05
1.52361e-05
1.53365e-05
1.53401e-05
1.52365e-05
1.50151e-05
1.46397e-05
1.40293e-05
1.41362e-05
1.47456e-05
1.51151e-05
1.53398e-05
1.54621e-05
1.54622e-05
1.5336e-05
1.51133e-05
1.47443e-05
1.41359e-05
1.4136e-05
1.47444e-05
1.51136e-05
1.53366e-05
1.54623e-05
1.54623e-05
1.5336e-05
1.51133e-05
1.47443e-05
1.41359e-05
1.40293e-05
1.46397e-05
1.50151e-05
1.52366e-05
1.53409e-05
1.53409e-05
1.52366e-05
1.50151e-05
1.46397e-05
1.40293e-05
1.37968e-05
1.44194e-05
1.48243e-05
1.50226e-05
1.51159e-05
1.51159e-05
1.50226e-05
1.48243e-05
1.44194e-05
1.37968e-05
1.3405e-05
1.40346e-05
1.44555e-05
1.46487e-05
1.47461e-05
1.47461e-05
1.46487e-05
1.44555e-05
1.40346e-05
1.3405e-05
1.28687e-05
1.34164e-05
1.38049e-05
1.40312e-05
1.41363e-05
1.41363e-05
1.40312e-05
1.38049e-05
1.34164e-05
1.28687e-05
1.27372e-05
1.32434e-05
1.36406e-05
1.38825e-05
1.39946e-05
1.3995e-05
1.38847e-05
1.36492e-05
1.32548e-05
1.27372e-05
1.32544e-05
1.38862e-05
1.42921e-05
1.45272e-05
1.46393e-05
1.46408e-05
1.4537e-05
1.4329e-05
1.38873e-05
1.32436e-05
1.36488e-05
1.4328e-05
1.47223e-05
1.4929e-05
1.50351e-05
1.50371e-05
1.49371e-05
1.47231e-05
1.42929e-05
1.36408e-05
1.38845e-05
1.45364e-05
1.49365e-05
1.51667e-05
1.52749e-05
1.52785e-05
1.5167e-05
1.49294e-05
1.45276e-05
1.38826e-05
1.39949e-05
1.46406e-05
1.50368e-05
1.52783e-05
1.54091e-05
1.54092e-05
1.52744e-05
1.50348e-05
1.46391e-05
1.39946e-05
1.39946e-05
1.46393e-05
1.50351e-05
1.5275e-05
1.54094e-05
1.54094e-05
1.52744e-05
1.50349e-05
1.46391e-05
1.39946e-05
1.38826e-05
1.45276e-05
1.49294e-05
1.51672e-05
1.52794e-05
1.52794e-05
1.51672e-05
1.49294e-05
1.45276e-05
1.38826e-05
1.36408e-05
1.42929e-05
1.47231e-05
1.49372e-05
1.50377e-05
1.50377e-05
1.49372e-05
1.47231e-05
1.42929e-05
1.36408e-05
1.32436e-05
1.38872e-05
1.4329e-05
1.4537e-05
1.46411e-05
1.46411e-05
1.4537e-05
1.4329e-05
1.38872e-05
1.32436e-05
1.27371e-05
1.32548e-05
1.36492e-05
1.38847e-05
1.39951e-05
1.39951e-05
1.38847e-05
1.36492e-05
1.32548e-05
1.27371e-05
1.26584e-05
1.3101e-05
1.34943e-05
1.37423e-05
1.38588e-05
1.38592e-05
1.37448e-05
1.35031e-05
1.31122e-05
1.26583e-05
1.31118e-05
1.37454e-05
1.41688e-05
1.44172e-05
1.45359e-05
1.45376e-05
1.44273e-05
1.42054e-05
1.37464e-05
1.31011e-05
1.35027e-05
1.42045e-05
1.46224e-05
1.48442e-05
1.49574e-05
1.49596e-05
1.48525e-05
1.46232e-05
1.41696e-05
1.34945e-05
1.37446e-05
1.44267e-05
1.48519e-05
1.50978e-05
1.52137e-05
1.52173e-05
1.50981e-05
1.48446e-05
1.44175e-05
1.37424e-05
1.38591e-05
1.45373e-05
1.49592e-05
1.52171e-05
1.53562e-05
1.53562e-05
1.52131e-05
1.49571e-05
1.45357e-05
1.38587e-05
1.38588e-05
1.45359e-05
1.49574e-05
1.52138e-05
1.53564e-05
1.53564e-05
1.52131e-05
1.49571e-05
1.45357e-05
1.38587e-05
1.37424e-05
1.44175e-05
1.48446e-05
1.50983e-05
1.52182e-05
1.52183e-05
1.50983e-05
1.48446e-05
1.44175e-05
1.37424e-05
1.34945e-05
1.41696e-05
1.46232e-05
1.48526e-05
1.49601e-05
1.49601e-05
1.48526e-05
1.46232e-05
1.41696e-05
1.34945e-05
1.31011e-05
1.37464e-05
1.42054e-05
1.44273e-05
1.45379e-05
1.45379e-05
1.44273e-05
1.42054e-05
1.37464e-05
1.31011e-05
1.26583e-05
1.31121e-05
1.35031e-05
1.37448e-05
1.38593e-05
1.38593e-05
1.37448e-05
1.35031e-05
1.31121e-05
1.26582e-05
1.26546e-05
1.29831e-05
1.33594e-05
1.36097e-05
1.37292e-05
1.37296e-05
1.36124e-05
1.33684e-05
1.29941e-05
1.26543e-05
1.29938e-05
1.36122e-05
1.40489e-05
1.43093e-05
1.44343e-05
1.44361e-05
1.43198e-05
1.40853e-05
1.36131e-05
1.29832e-05
1.3368e-05
1.40844e-05
1.4524e-05
1.47603e-05
1.48804e-05
1.48827e-05
1.47688e-05
1.45248e-05
1.40497e-05
1.33597e-05
1.36121e-05
1.43192e-05
1.47682e-05
1.50293e-05
1.51527e-05
1.51564e-05
1.50297e-05
1.47608e-05
1.43097e-05
1.36098e-05
1.37296e-05
1.44358e-05
1.48824e-05
1.51561e-05
1.53033e-05
1.53034e-05
1.51521e-05
1.48801e-05
1.4434e-05
1.37291e-05
1.37292e-05
1.44343e-05
1.48805e-05
1.51528e-05
1.53036e-05
1.53035e-05
1.51521e-05
1.48801e-05
1.4434e-05
1.37291e-05
1.36098e-05
1.43097e-05
1.47608e-05
1.50299e-05
1.51574e-05
1.51574e-05
1.50298e-05
1.47608e-05
1.43097e-05
1.36098e-05
1.33597e-05
1.40497e-05
1.45248e-05
1.47689e-05
1.48834e-05
1.48834e-05
1.47689e-05
1.45248e-05
1.40497e-05
1.33597e-05
1.29832e-05
1.36131e-05
1.40853e-05
1.43198e-05
1.44365e-05
1.44365e-05
1.43198e-05
1.40853e-05
1.36131e-05
1.29832e-05
1.26543e-05
1.29941e-05
1.33684e-05
1.36124e-05
1.37297e-05
1.37297e-05
1.36123e-05
1.33684e-05
1.29941e-05
1.26543e-05
1.27727e-05
1.28995e-05
1.32393e-05
1.34859e-05
1.36067e-05
1.36072e-05
1.34888e-05
1.32484e-05
1.29103e-05
1.27723e-05
1.29101e-05
1.34881e-05
1.3933e-05
1.42039e-05
1.43345e-05
1.43365e-05
1.42146e-05
1.39689e-05
1.3489e-05
1.28995e-05
1.3248e-05
1.3968e-05
1.44271e-05
1.46775e-05
1.48042e-05
1.48066e-05
1.46861e-05
1.44279e-05
1.39337e-05
1.32395e-05
1.34885e-05
1.4214e-05
1.46855e-05
1.49614e-05
1.50921e-05
1.50958e-05
1.49617e-05
1.46779e-05
1.42042e-05
1.3486e-05
1.36071e-05
1.43362e-05
1.48063e-05
1.50955e-05
1.52505e-05
1.52505e-05
1.50914e-05
1.48038e-05
1.43342e-05
1.36065e-05
1.36067e-05
1.43345e-05
1.48043e-05
1.50922e-05
1.52508e-05
1.52508e-05
1.50915e-05
1.48038e-05
1.43342e-05
1.36065e-05
1.3486e-05
1.42042e-05
1.46779e-05
1.4962e-05
1.50968e-05
1.50968e-05
1.49619e-05
1.46779e-05
1.42042e-05
1.3486e-05
1.32395e-05
1.39337e-05
1.44279e-05
1.46862e-05
1.48073e-05
1.48073e-05
1.46862e-05
1.4428e-05
1.39337e-05
1.32395e-05
1.28996e-05
1.3489e-05
1.39689e-05
1.42146e-05
1.43369e-05
1.43369e-05
1.42146e-05
1.39689e-05
1.3489e-05
1.28995e-05
1.27723e-05
1.29103e-05
1.32484e-05
1.34888e-05
1.36073e-05
1.36073e-05
1.34887e-05
1.32483e-05
1.29103e-05
1.27723e-05
1.30788e-05
1.28657e-05
1.31386e-05
1.33733e-05
1.34928e-05
1.34934e-05
1.33763e-05
1.31478e-05
1.28765e-05
1.30782e-05
1.28763e-05
1.33758e-05
1.38214e-05
1.4101e-05
1.42368e-05
1.42389e-05
1.41119e-05
1.38568e-05
1.33766e-05
1.28657e-05
1.31475e-05
1.3856e-05
1.4332e-05
1.45956e-05
1.47288e-05
1.47313e-05
1.46043e-05
1.43328e-05
1.38221e-05
1.31388e-05
1.33761e-05
1.41113e-05
1.46037e-05
1.4894e-05
1.50318e-05
1.50355e-05
1.48943e-05
1.4596e-05
1.41013e-05
1.33734e-05
1.34933e-05
1.42386e-05
1.4731e-05
1.50353e-05
1.51978e-05
1.51978e-05
1.50311e-05
1.47284e-05
1.42365e-05
1.34926e-05
1.34928e-05
1.42368e-05
1.47289e-05
1.50319e-05
1.51981e-05
1.51981e-05
1.50311e-05
1.47284e-05
1.42365e-05
1.34926e-05
1.33734e-05
1.41013e-05
1.45961e-05
1.48946e-05
1.50366e-05
1.50366e-05
1.48945e-05
1.4596e-05
1.41013e-05
1.33734e-05
1.31388e-05
1.38221e-05
1.43328e-05
1.46045e-05
1.47321e-05
1.47321e-05
1.46045e-05
1.43328e-05
1.38221e-05
1.31388e-05
1.28657e-05
1.33766e-05
1.38568e-05
1.41119e-05
1.42394e-05
1.42394e-05
1.41119e-05
1.38568e-05
1.33766e-05
1.28657e-05
1.30782e-05
1.28765e-05
1.31478e-05
1.33763e-05
1.34935e-05
1.34935e-05
1.33763e-05
1.31477e-05
1.28765e-05
1.30782e-05
1.37074e-05
1.29045e-05
1.30648e-05
1.32752e-05
1.33898e-05
1.33904e-05
1.32784e-05
1.30741e-05
1.29155e-05
1.3707e-05
1.29152e-05
1.32795e-05
1.37152e-05
1.40009e-05
1.41412e-05
1.41434e-05
1.40119e-05
1.37501e-05
1.32802e-05
1.29045e-05
1.30738e-05
1.37493e-05
1.42387e-05
1.45147e-05
1.46542e-05
1.46567e-05
1.45236e-05
1.42394e-05
1.37158e-05
1.3065e-05
1.32782e-05
1.40114e-05
1.4523e-05
1.48271e-05
1.49719e-05
1.49756e-05
1.48274e-05
1.45151e-05
1.40012e-05
1.32753e-05
1.33904e-05
1.41432e-05
1.46564e-05
1.49753e-05
1.51453e-05
1.51453e-05
1.49711e-05
1.46537e-05
1.41409e-05
1.33897e-05
1.33898e-05
1.41413e-05
1.46543e-05
1.4972e-05
1.51456e-05
1.51455e-05
1.49712e-05
1.46537e-05
1.41409e-05
1.33897e-05
1.32753e-05
1.40012e-05
1.45152e-05
1.48277e-05
1.49767e-05
1.49767e-05
1.48276e-05
1.45152e-05
1.40012e-05
1.32753e-05
1.3065e-05
1.37159e-05
1.42395e-05
1.45237e-05
1.46576e-05
1.46576e-05
1.45237e-05
1.42395e-05
1.37158e-05
1.3065e-05
1.29046e-05
1.32802e-05
1.37501e-05
1.4012e-05
1.4144e-05
1.4144e-05
1.4012e-05
1.37501e-05
1.32802e-05
1.29045e-05
1.3707e-05
1.29154e-05
1.30741e-05
1.32784e-05
1.33906e-05
1.33906e-05
1.32784e-05
1.30741e-05
1.29155e-05
1.37069e-05
1.484e-05
1.30549e-05
1.30296e-05
1.31969e-05
1.33012e-05
1.33019e-05
1.32001e-05
1.3039e-05
1.30663e-05
1.48396e-05
1.30658e-05
1.32051e-05
1.36157e-05
1.3904e-05
1.4048e-05
1.40503e-05
1.39152e-05
1.365e-05
1.32058e-05
1.30548e-05
1.30387e-05
1.36493e-05
1.41474e-05
1.4435e-05
1.45804e-05
1.4583e-05
1.44439e-05
1.41481e-05
1.36163e-05
1.30297e-05
1.32e-05
1.39147e-05
1.44433e-05
1.47607e-05
1.49123e-05
1.4916e-05
1.4761e-05
1.44353e-05
1.39043e-05
1.31969e-05
1.33018e-05
1.405e-05
1.45827e-05
1.49157e-05
1.50928e-05
1.50928e-05
1.49115e-05
1.45798e-05
1.40476e-05
1.3301e-05
1.33012e-05
1.4048e-05
1.45804e-05
1.49124e-05
1.50931e-05
1.50931e-05
1.49115e-05
1.45798e-05
1.40476e-05
1.33011e-05
1.3197e-05
1.39044e-05
1.44355e-05
1.47613e-05
1.49172e-05
1.49172e-05
1.47612e-05
1.44354e-05
1.39043e-05
1.31969e-05
1.30297e-05
1.36163e-05
1.41482e-05
1.4444e-05
1.45839e-05
1.45839e-05
1.4444e-05
1.41482e-05
1.36163e-05
1.30298e-05
1.30549e-05
1.32058e-05
1.365e-05
1.39153e-05
1.40509e-05
1.40509e-05
1.39153e-05
1.365e-05
1.32058e-05
1.30548e-05
1.48397e-05
1.30662e-05
1.3039e-05
1.32002e-05
1.33021e-05
1.33021e-05
1.32001e-05
1.30389e-05
1.30662e-05
1.48395e-05
1.68691e-05
1.33741e-05
1.30504e-05
1.31468e-05
1.32329e-05
1.32336e-05
1.31502e-05
1.306e-05
1.33865e-05
1.68723e-05
1.33857e-05
1.31626e-05
1.3525e-05
1.38111e-05
1.39575e-05
1.39598e-05
1.38224e-05
1.35588e-05
1.31632e-05
1.33741e-05
1.30597e-05
1.35581e-05
1.40585e-05
1.43564e-05
1.45074e-05
1.45101e-05
1.43653e-05
1.40592e-05
1.35256e-05
1.30504e-05
1.315e-05
1.38219e-05
1.43647e-05
1.46949e-05
1.4853e-05
1.48567e-05
1.46952e-05
1.43567e-05
1.38114e-05
1.31468e-05
1.32335e-05
1.39596e-05
1.45098e-05
1.48565e-05
1.50405e-05
1.50405e-05
1.48522e-05
1.45068e-05
1.3957e-05
1.32327e-05
1.32329e-05
1.39575e-05
1.45075e-05
1.48532e-05
1.50409e-05
1.50408e-05
1.48522e-05
1.45068e-05
1.3957e-05
1.32327e-05
1.31469e-05
1.38115e-05
1.43568e-05
1.46955e-05
1.4858e-05
1.4858e-05
1.46954e-05
1.43567e-05
1.38114e-05
1.31468e-05
1.30505e-05
1.35256e-05
1.40593e-05
1.43655e-05
1.4511e-05
1.45111e-05
1.43655e-05
1.40593e-05
1.35256e-05
1.30505e-05
1.33742e-05
1.31632e-05
1.35588e-05
1.38225e-05
1.39605e-05
1.39605e-05
1.38225e-05
1.35588e-05
1.31632e-05
1.33741e-05
1.68723e-05
1.33864e-05
1.306e-05
1.31502e-05
1.32338e-05
1.32338e-05
1.31502e-05
1.30599e-05
1.33864e-05
1.68721e-05
2.02485e-05
1.39675e-05
1.31568e-05
1.31368e-05
1.31928e-05
1.31935e-05
1.31404e-05
1.31668e-05
1.39817e-05
2.02528e-05
1.39803e-05
1.31658e-05
1.34464e-05
1.37231e-05
1.38702e-05
1.38726e-05
1.37345e-05
1.34798e-05
1.31665e-05
1.39675e-05
1.31664e-05
1.3479e-05
1.39724e-05
1.4279e-05
1.44353e-05
1.4438e-05
1.42879e-05
1.39732e-05
1.3447e-05
1.31567e-05
1.31402e-05
1.3734e-05
1.42874e-05
1.46296e-05
1.47942e-05
1.47978e-05
1.46299e-05
1.42793e-05
1.37234e-05
1.31368e-05
1.31935e-05
1.38724e-05
1.44377e-05
1.47976e-05
1.49884e-05
1.49884e-05
1.47933e-05
1.44346e-05
1.38697e-05
1.31925e-05
1.31928e-05
1.38702e-05
1.44354e-05
1.47943e-05
1.49887e-05
1.49886e-05
1.47933e-05
1.44346e-05
1.38697e-05
1.31926e-05
1.31369e-05
1.37235e-05
1.42795e-05
1.46303e-05
1.47991e-05
1.47991e-05
1.46302e-05
1.42794e-05
1.37234e-05
1.31369e-05
1.31568e-05
1.3447e-05
1.39732e-05
1.42881e-05
1.4439e-05
1.4439e-05
1.42881e-05
1.39732e-05
1.3447e-05
1.31569e-05
1.39678e-05
1.31665e-05
1.34798e-05
1.37346e-05
1.38733e-05
1.38733e-05
1.37346e-05
1.34798e-05
1.31665e-05
1.39676e-05
2.02528e-05
1.39816e-05
1.31668e-05
1.31404e-05
1.31938e-05
1.31938e-05
1.31404e-05
1.31666e-05
1.39815e-05
2.02525e-05
2.52471e-05
1.49941e-05
1.33879e-05
1.3186e-05
1.31936e-05
1.31944e-05
1.31898e-05
1.33985e-05
1.50111e-05
2.52525e-05
1.50087e-05
1.32382e-05
1.33853e-05
1.36418e-05
1.3787e-05
1.37894e-05
1.36532e-05
1.34183e-05
1.32389e-05
1.49942e-05
1.33979e-05
1.34175e-05
1.389e-05
1.4203e-05
1.43641e-05
1.43669e-05
1.42119e-05
1.38907e-05
1.33858e-05
1.33877e-05
1.31896e-05
1.36527e-05
1.42114e-05
1.4565e-05
1.47357e-05
1.47393e-05
1.45652e-05
1.42033e-05
1.36421e-05
1.31859e-05
1.31944e-05
1.37892e-05
1.43666e-05
1.47391e-05
1.49364e-05
1.49364e-05
1.47347e-05
1.43634e-05
1.37864e-05
1.31933e-05
1.31936e-05
1.3787e-05
1.43642e-05
1.47358e-05
1.49368e-05
1.49367e-05
1.47348e-05
1.43634e-05
1.37864e-05
1.31933e-05
1.3186e-05
1.36422e-05
1.42035e-05
1.45657e-05
1.47407e-05
1.47406e-05
1.45655e-05
1.42034e-05
1.36421e-05
1.3186e-05
1.33879e-05
1.33859e-05
1.38907e-05
1.42122e-05
1.43679e-05
1.43679e-05
1.42122e-05
1.38907e-05
1.33858e-05
1.3388e-05
1.49947e-05
1.32389e-05
1.34183e-05
1.36533e-05
1.37902e-05
1.37902e-05
1.36533e-05
1.34183e-05
1.32389e-05
1.49944e-05
2.52527e-05
1.50109e-05
1.33985e-05
1.31898e-05
1.31947e-05
1.31947e-05
1.31897e-05
1.33982e-05
1.50107e-05
2.52521e-05
3.19361e-05
1.66085e-05
1.38099e-05
1.33227e-05
1.32557e-05
1.32566e-05
1.33267e-05
1.38215e-05
1.66301e-05
3.19441e-05
1.66262e-05
1.3404e-05
1.33482e-05
1.35697e-05
1.37094e-05
1.37118e-05
1.35811e-05
1.33809e-05
1.34048e-05
1.66092e-05
1.38206e-05
1.33803e-05
1.38123e-05
1.41286e-05
1.42939e-05
1.42967e-05
1.41375e-05
1.3813e-05
1.33487e-05
1.38097e-05
1.33265e-05
1.35807e-05
1.4137e-05
1.4501e-05
1.46776e-05
1.46812e-05
1.45012e-05
1.41289e-05
1.35699e-05
1.33226e-05
1.32565e-05
1.37117e-05
1.42964e-05
1.4681e-05
1.48847e-05
1.48846e-05
1.46766e-05
1.42931e-05
1.37087e-05
1.32554e-05
1.32557e-05
1.37094e-05
1.4294e-05
1.46777e-05
1.4885e-05
1.48849e-05
1.46767e-05
1.42931e-05
1.37087e-05
1.32554e-05
1.33227e-05
1.35701e-05
1.41291e-05
1.45017e-05
1.46826e-05
1.46825e-05
1.45015e-05
1.4129e-05
1.35699e-05
1.33227e-05
1.38099e-05
1.33488e-05
1.3813e-05
1.41378e-05
1.42978e-05
1.42978e-05
1.41378e-05
1.3813e-05
1.33487e-05
1.38101e-05
1.66096e-05
1.34048e-05
1.3381e-05
1.35813e-05
1.37126e-05
1.37126e-05
1.35812e-05
1.33809e-05
1.34048e-05
1.66097e-05
3.1944e-05
1.66297e-05
1.38215e-05
1.33268e-05
1.32569e-05
1.32568e-05
1.33266e-05
1.38211e-05
1.66297e-05
3.19443e-05
4.01152e-05
1.93539e-05
1.45282e-05
1.35881e-05
1.34039e-05
1.34048e-05
1.35926e-05
1.45416e-05
1.93821e-05
4.0128e-05
1.93752e-05
1.372e-05
1.33466e-05
1.35108e-05
1.36396e-05
1.36421e-05
1.35222e-05
1.33794e-05
1.37211e-05
1.9356e-05
1.45399e-05
1.33787e-05
1.3741e-05
1.40563e-05
1.42248e-05
1.42276e-05
1.40651e-05
1.37416e-05
1.33471e-05
1.45282e-05
1.35921e-05
1.35218e-05
1.40646e-05
1.44377e-05
1.46199e-05
1.46234e-05
1.44378e-05
1.40565e-05
1.3511e-05
1.3588e-05
1.34047e-05
1.36419e-05
1.42274e-05
1.46233e-05
1.48331e-05
1.4833e-05
1.46189e-05
1.42239e-05
1.36389e-05
1.34035e-05
1.34038e-05
1.36396e-05
1.42249e-05
1.46201e-05
1.48335e-05
1.48333e-05
1.4619e-05
1.4224e-05
1.36389e-05
1.34035e-05
1.35881e-05
1.35112e-05
1.40567e-05
1.44384e-05
1.46249e-05
1.46248e-05
1.44381e-05
1.40565e-05
1.3511e-05
1.35883e-05
1.45282e-05
1.33472e-05
1.37417e-05
1.40654e-05
1.42288e-05
1.42288e-05
1.40654e-05
1.37417e-05
1.33471e-05
1.45287e-05
1.93557e-05
1.3721e-05
1.33794e-05
1.35224e-05
1.36429e-05
1.36429e-05
1.35224e-05
1.33793e-05
1.3721e-05
1.93565e-05
4.01253e-05
1.93806e-05
1.45413e-05
1.35926e-05
1.34051e-05
1.34051e-05
1.35923e-05
1.45409e-05
1.9381e-05
4.01273e-05
4.93526e-05
2.34625e-05
1.56693e-05
1.40471e-05
1.36839e-05
1.3685e-05
1.40522e-05
1.56852e-05
2.34973e-05
4.937e-05
2.34866e-05
1.42577e-05
1.33948e-05
1.34705e-05
1.3581e-05
1.35835e-05
1.3482e-05
1.3428e-05
1.42592e-05
2.34668e-05
1.56825e-05
1.34272e-05
1.36787e-05
1.39864e-05
1.4157e-05
1.41599e-05
1.39952e-05
1.36793e-05
1.33953e-05
1.56698e-05
1.40515e-05
1.34816e-05
1.39948e-05
1.43751e-05
1.45626e-05
1.45661e-05
1.43752e-05
1.39866e-05
1.34706e-05
1.4047e-05
1.36849e-05
1.35834e-05
1.41597e-05
1.4566e-05
1.47817e-05
1.47816e-05