/*--------------------------------*- C++ -*----------------------------------*\
| =========                 |                                                 |
| \\      /  F ield         | OpenFOAM: The Open Source CFD Toolbox           |
|  \\    /   O peration     | Version:  2406                                  |
|   \\  /    A nd           | Website:  www.openfoam.com                      |
|    \\/     M anipulation  |                                                 |
\*---------------------------------------------------------------------------*/
FoamFile
{
    version     2.0;
    format      ascii;
    arch        "LSB;label=32;scalar=64";
    class       volScalarField;
    location    "450";
    object      turbulenceProperties:I;
}
// * * * * * * * * * * * * * * * * * * * * * * * * * * * * * * * * * * * * * //

dimensions      [0 0 0 0 0 0 0];

internalField   nonuniform List<scalar> 
25000
(
0.00517224
0.0049615
0.00462893
0.00461334
0.00459928
0.00460073
0.00462258
0.00466358
0.00487304
0.00498704
0.00496543
0.00478417
0.0045816
0.00447254
0.00441998
0.0044224
0.00448001
0.00459552
0.00480353
0.0048743
0.00463356
0.00458542
0.00442144
0.00431736
0.00426726
0.00426892
0.00432211
0.00442739
0.00459491
0.00466535
0.00461574
0.00447441
0.00431833
0.00421334
0.00416112
0.00416242
0.00421663
0.00432277
0.00448129
0.00462499
0.00460051
0.00442136
0.0042679
0.00416138
0.00410798
0.00410876
0.00416348
0.00427096
0.00442511
0.00460399
0.00460135
0.00442307
0.00426942
0.00416252
0.0041088
0.00410929
0.00416378
0.00427111
0.00442519
0.00460401
0.00462289
0.00448058
0.00432233
0.00421684
0.00416365
0.00416392
0.0042175
0.00432324
0.00448153
0.00462506
0.00466354
0.00459496
0.00442773
0.0043231
0.00427111
0.00427124
0.00432343
0.00442811
0.00459531
0.00466546
0.00487245
0.00480383
0.0045961
0.00448139
0.00442519
0.00442527
0.00448162
0.00459638
0.00480402
0.00487434
0.0049872
0.00487525
0.00466554
0.00462505
0.00460396
0.00460393
0.00462491
0.00466524
0.00487442
0.00498759
0.00579833
0.00565294
0.00547994
0.00545929
0.00543096
0.00542914
0.00545047
0.00549133
0.00567886
0.00575964
0.00565145
0.00550848
0.00542477
0.0053812
0.00534961
0.00534872
0.00537905
0.00542864
0.00553644
0.0056793
0.00547497
0.00542535
0.00532707
0.00529178
0.00527254
0.00527247
0.00529391
0.00533268
0.00542549
0.00549238
0.00545608
0.0053785
0.00529101
0.00524629
0.00522368
0.00522422
0.00524779
0.00529345
0.00537901
0.00545165
0.00543038
0.00534847
0.00527156
0.00522363
0.00520116
0.00520127
0.00522395
0.00527227
0.00534861
0.00543014
0.00542949
0.00534829
0.00527205
0.00522379
0.00520129
0.00520136
0.00522398
0.0052723
0.00534866
0.00543014
0.0054512
0.0053789
0.00529335
0.00524783
0.00522432
0.00522434
0.00524792
0.00529357
0.0053791
0.00545167
0.00549191
0.00542554
0.0053327
0.00529401
0.00527246
0.00527247
0.00529405
0.00533284
0.00542568
0.00549244
0.00567823
0.00553647
0.00542873
0.00537934
0.00534879
0.00534879
0.00537938
0.00542893
0.00553663
0.00567911
0.00575993
0.00568088
0.00549282
0.00545197
0.00543038
0.00543026
0.00545165
0.00549246
0.00568006
0.00576026
0.00544004
0.00525618
0.00516558
0.00509365
0.00505442
0.00505539
0.00508559
0.00515202
0.00526632
0.00544051
0.00525252
0.00509803
0.00505746
0.00501775
0.00499123
0.00499146
0.00501721
0.00505628
0.00509758
0.00526495
0.00515849
0.00505823
0.0049827
0.00495095
0.00492846
0.00492844
0.00495228
0.00498787
0.00505202
0.00515217
0.00509072
0.00501522
0.0049504
0.00491368
0.00488975
0.00488992
0.00491365
0.00495175
0.0050171
0.00508616
0.00505384
0.00499027
0.0049278
0.00489003
0.00487005
0.00486984
0.00488957
0.00492863
0.00499182
0.00505624
0.00505517
0.00499099
0.00492817
0.00488958
0.00486992
0.00486983
0.00488956
0.00492862
0.00499182
0.00505625
0.00508566
0.00501664
0.00495158
0.00491379
0.00489007
0.00489
0.0049137
0.00495174
0.00501704
0.00508615
0.00515182
0.00505166
0.0049879
0.00495257
0.00492884
0.00492875
0.00495237
0.00498783
0.00505195
0.00515217
0.00526474
0.00509753
0.00505677
0.00501785
0.0049921
0.00499193
0.00501743
0.00505642
0.00509757
0.00526496
0.00544043
0.00526679
0.00515313
0.00508676
0.00505664
0.00505642
0.00508617
0.00515246
0.00526657
0.00544067
0.0047076
0.00445472
0.00440413
0.00429832
0.00426162
0.00426464
0.00429397
0.00437691
0.00443212
0.00468999
0.0044479
0.00428254
0.00425219
0.00420031
0.00417824
0.00417978
0.0042038
0.00425283
0.00426917
0.00443074
0.00439819
0.0042537
0.00417999
0.00413445
0.00410416
0.00410486
0.00413613
0.00418707
0.00424877
0.0043778
0.00429805
0.00419977
0.00413487
0.00408969
0.0040589
0.00405921
0.0040892
0.00413584
0.0042042
0.00429552
0.00426239
0.00417868
0.00410468
0.00405979
0.00403391
0.00403371
0.00405914
0.00410582
0.00418105
0.00426609
0.00426477
0.0041801
0.00410545
0.00405946
0.00403402
0.00403384
0.0040592
0.00410583
0.004181
0.00426606
0.00429391
0.00420351
0.00413601
0.00408984
0.00405993
0.00405973
0.00408942
0.00413586
0.00420402
0.00429538
0.00437613
0.00424806
0.00418749
0.00413703
0.00410618
0.00410597
0.00413651
0.00418706
0.00424845
0.00437756
0.00442976
0.00426915
0.00425405
0.00420521
0.00418134
0.00418107
0.00420447
0.00425323
0.00426914
0.00443082
0.00468995
0.00443326
0.00437939
0.00429628
0.00426648
0.00426614
0.00429529
0.00437801
0.00443266
0.00469043
0.0041151
0.00383774
0.00378382
0.00366776
0.00363641
0.00364094
0.00366975
0.00376026
0.00380301
0.00407109
0.0038305
0.00365738
0.00360834
0.00353837
0.00351736
0.00352002
0.00354628
0.00361612
0.00364743
0.00380218
0.00378179
0.00361136
0.00352651
0.00345584
0.00341573
0.00341745
0.0034583
0.00353565
0.00361223
0.00376168
0.00367
0.0035398
0.0034572
0.00338967
0.00334844
0.00334913
0.00338932
0.00345806
0.00354661
0.0036715
0.00363803
0.00351872
0.00341705
0.00334968
0.00331102
0.00331105
0.00334925
0.00341872
0.00352128
0.0036418
0.00364118
0.00352065
0.00341843
0.00334966
0.00331145
0.00331132
0.00334936
0.00341871
0.00352115
0.00364161
0.00366965
0.0035461
0.00345839
0.00339011
0.00335009
0.00334992
0.00338959
0.003458
0.00354619
0.00367095
0.00375915
0.00361143
0.00353612
0.00345923
0.00341909
0.0034189
0.00345868
0.00353546
0.00361148
0.00376075
0.00380033
0.0036474
0.00361737
0.0035475
0.0035215
0.00352131
0.00354686
0.00361636
0.00364714
0.00380162
0.00407073
0.0038048
0.00376306
0.00367196
0.00364208
0.00364191
0.00367121
0.00376171
0.00380387
0.00407171
0.00373137
0.00347837
0.00341376
0.00331194
0.00328851
0.00329387
0.00331989
0.00340174
0.00344654
0.00367285
0.0034738
0.00332315
0.00325773
0.00318614
0.00316698
0.00317008
0.00319709
0.00327455
0.00332438
0.00344692
0.00341502
0.00326209
0.00318004
0.00310013
0.00305851
0.00306086
0.00310297
0.00319044
0.00327052
0.00340382
0.00331477
0.00318799
0.00310171
0.00302292
0.00297939
0.00298043
0.00302296
0.00310253
0.00319684
0.00332144
0.00328943
0.00316775
0.00305951
0.00298044
0.00293654
0.00293694
0.00298045
0.00306177
0.00317052
0.00329352
0.00329352
0.00317008
0.00306124
0.00298052
0.00293713
0.00293722
0.00298055
0.00306175
0.00317035
0.00329319
0.00331976
0.00319666
0.00310265
0.00302335
0.00298105
0.00298105
0.0030231
0.00310238
0.00319636
0.00332049
0.00340091
0.00326997
0.0031907
0.00310339
0.00306196
0.00306191
0.00310309
0.00319012
0.00326958
0.00340218
0.0034444
0.00332457
0.00327547
0.0031975
0.0031706
0.00317058
0.00319719
0.00327455
0.00332391
0.00344555
0.00367225
0.00344924
0.00340459
0.00332141
0.00329364
0.00329371
0.00332111
0.00340341
0.00344787
0.00367315
0.00351788
0.0033243
0.0032576
0.00317513
0.00315917
0.00316491
0.00318833
0.00326021
0.00330568
0.00346416
0.00332419
0.00320849
0.00313923
0.0030776
0.00306082
0.00306383
0.00308995
0.00316378
0.0032233
0.00330716
0.0032615
0.00314479
0.00307711
0.00300441
0.00296835
0.00297103
0.00300728
0.00308782
0.00315917
0.00326256
0.00317815
0.00307944
0.00300588
0.00293331
0.00289686
0.0028983
0.00293404
0.00300657
0.00308899
0.00318955
0.00315913
0.00306068
0.00296868
0.00289751
0.00286069
0.00286157
0.00289821
0.00297145
0.00306342
0.00316356
0.00316404
0.00306309
0.00297055
0.00289777
0.0028615
0.00286189
0.00289834
0.0029715
0.00306334
0.00316322
0.00318813
0.00308906
0.00300636
0.00293397
0.00289865
0.00289886
0.00293416
0.00300653
0.00308873
0.0031885
0.00325971
0.00315884
0.00308776
0.00300721
0.00297158
0.00297175
0.00300739
0.00308765
0.00315844
0.00326058
0.00330413
0.00322325
0.0031639
0.00308948
0.00306345
0.00306369
0.00308983
0.00316375
0.00322288
0.0033052
0.00346379
0.00330869
0.00326242
0.0031889
0.00316348
0.00316382
0.00318942
0.00326209
0.00330757
0.00346416
0.00342523
0.00328745
0.00322552
0.00316248
0.00315092
0.00315564
0.00317692
0.00323862
0.00328405
0.0033849
0.00329032
0.00320366
0.00314127
0.00309157
0.00307526
0.00307741
0.00310226
0.00316773
0.00322697
0.00328539
0.00323067
0.00314741
0.0030926
0.00302893
0.00299786
0.00300049
0.00303116
0.00310141
0.00316203
0.00323973
0.00316492
0.00309294
0.00303013
0.00296552
0.00293536
0.00293715
0.00296678
0.00303013
0.00310047
0.00317709
0.00314984
0.00307419
0.0029975
0.00293561
0.00290613
0.00290739
0.00293688
0.00300036
0.00307602
0.003153
0.00315439
0.00307607
0.00299929
0.00293605
0.00290711
0.00290772
0.00293703
0.00300048
0.00307607
0.00315274
0.00317655
0.00310096
0.00302972
0.00296637
0.00293724
0.00293764
0.00296696
0.00303028
0.00310057
0.00317628
0.00323792
0.00316233
0.00310117
0.00303076
0.00300059
0.00300095
0.00303139
0.00310152
0.00316183
0.00323803
0.00328246
0.00322686
0.00316708
0.0031012
0.00307628
0.0030767
0.0031021
0.00316772
0.00322678
0.00328336
0.00338407
0.0032861
0.00323907
0.00317622
0.00315296
0.00315355
0.00317765
0.00324015
0.00328597
0.00338468
0.00337201
0.00326998
0.00321799
0.00317138
0.0031613
0.00316435
0.00318402
0.00323585
0.00327798
0.0033427
0.00327448
0.00320935
0.00315926
0.00311946
0.00310278
0.00310399
0.00312774
0.00318467
0.00323641
0.00327817
0.00322308
0.00316543
0.00311959
0.00306291
0.00303517
0.00303771
0.0030649
0.00312659
0.003178
0.00323528
0.0031726
0.00312006
0.00306368
0.0030052
0.00297879
0.00298084
0.00300711
0.00306361
0.00312542
0.00318333
0.00315951
0.0031009
0.0030341
0.00297866
0.00295377
0.00295524
0.00298033
0.00303712
0.00310214
0.00316126
0.00316314
0.00310231
0.00303594
0.00297929
0.0029548
0.0029555
0.00298046
0.00303726
0.00310224
0.00316114
0.00318366
0.00312613
0.00306307
0.00300647
0.00298066
0.00298111
0.00300719
0.00306378
0.00312572
0.00318296
0.00323504
0.00317889
0.00312634
0.00306435
0.00303746
0.00303783
0.00306506
0.00312677
0.00317816
0.00323432
0.00327648
0.00323638
0.00318358
0.00312651
0.00310257
0.00310297
0.0031275
0.00318453
0.00323638
0.00327671
0.00334182
0.00327858
0.00323472
0.00318264
0.00316131
0.00316192
0.00318444
0.00323681
0.00327962
0.00334269
0.00331631
0.00323692
0.00319675
0.00316183
0.00315135
0.00315275
0.00317124
0.00321494
0.00325072
0.00329439
0.00324125
0.00319409
0.00315618
0.00312299
0.00310576
0.00310621
0.00312889
0.00317907
0.00322113
0.00324922
0.0032005
0.00316181
0.00312206
0.00307045
0.00304494
0.00304734
0.00307238
0.0031277
0.00317165
0.00321257
0.00316147
0.00312263
0.00307082
0.00301732
0.00299314
0.00299526
0.00301961
0.00307094
0.00312626
0.00316987
0.00314908
0.00310332
0.00304343
0.00299279
0.00297065
0.00297211
0.00299447
0.00304642
0.0031042
0.00314965
0.00315167
0.00310439
0.00304537
0.00299355
0.00297162
0.00297225
0.00299456
0.00304653
0.00310433
0.00314964
0.00317076
0.00312707
0.00307047
0.00301897
0.00299484
0.00299524
0.00301955
0.00307107
0.00312667
0.00316989
0.0032136
0.00317298
0.00312761
0.0030719
0.00304686
0.00304714
0.00307242
0.00312788
0.0031721
0.00321236
0.00324873
0.00322129
0.00317796
0.00312782
0.00310478
0.00310505
0.0031286
0.00317881
0.00322129
0.00324846
0.0032933
0.00325004
0.00321277
0.00316963
0.00314979
0.00315031
0.00317137
0.00321519
0.0032518
0.0032944
0.00325471
0.00318876
0.00315984
0.00313271
0.00312116
0.00312134
0.00313884
0.00317592
0.00320402
0.00323651
0.00319215
0.00316098
0.00313264
0.00310348
0.00308603
0.00308604
0.00310775
0.00315297
0.00318617
0.00320101
0.00316192
0.00313766
0.00310195
0.00305413
0.00303033
0.00303266
0.00305637
0.00310702
0.00314515
0.00317227
0.00313106
0.0031024
0.00305415
0.00300473
0.002982
0.00298412
0.00300739
0.00305487
0.00310506
0.00313714
0.00311872
0.00308328
0.00302851
0.00298148
0.00296097
0.00296237
0.00298312
0.00303153
0.00308416
0.00311858
0.00312038
0.00308417
0.00303054
0.00298229
0.00296183
0.00296241
0.00298315
0.0030316
0.00308425
0.00311866
0.00313818
0.00310568
0.00305436
0.00300672
0.00298349
0.00298385
0.00300719
0.0030549
0.00310544
0.00313746
0.00317402
0.0031465
0.00310696
0.00305593
0.00303199
0.00303219
0.0030563
0.00310714
0.0031457
0.0031727
0.00320154
0.00318629
0.00315185
0.00310686
0.00308476
0.00308493
0.00310745
0.00315263
0.00318641
0.00320099
0.00323572
0.00320252
0.00317329
0.00313732
0.0031188
0.0031192
0.00313883
0.00317564
0.00320458
0.00323668
0.00319694
0.00313279
0.00311256
0.00309046
0.00307783
0.00307713
0.00309365
0.00312542
0.00314658
0.00318009
0.00313506
0.0031172
0.00309561
0.00306896
0.00305158
0.00305139
0.00307215
0.00311357
0.00313946
0.00314254
0.00311329
0.00310013
0.00306724
0.00302245
0.003
0.00300224
0.00302513
0.00307222
0.0031056
0.00312101
0.00308809
0.00306745
0.00302225
0.00297612
0.00295434
0.00295641
0.00297907
0.00302368
0.00306957
0.00309188
0.00307553
0.00304881
0.00299805
0.00295374
0.00293415
0.00293546
0.0029553
0.0030011
0.00304974
0.00307476
0.00307637
0.00304964
0.00300016
0.00295456
0.00293491
0.00293543
0.0029553
0.00300112
0.00304977
0.00307482
0.00309289
0.00307008
0.00302319
0.00297845
0.00295569
0.002956
0.0029788
0.00302362
0.00306982
0.00309221
0.00312301
0.00310697
0.00307228
0.00302486
0.0030016
0.00300171
0.00302505
0.0030723
0.00310609
0.00312165
0.00314349
0.00313963
0.00311263
0.00307158
0.0030504
0.00305045
0.00307192
0.00311316
0.00313962
0.00314286
0.00317929
0.00314457
0.00312258
0.00309234
0.00307506
0.00307537
0.0030936
0.00312475
0.00314662
0.00318021
0.00315353
0.00307425
0.00305907
0.00304031
0.00302716
0.00302608
0.00304161
0.00306903
0.00308558
0.00313657
0.00307595
0.00306772
0.00305072
0.00302606
0.00300917
0.00300902
0.00302896
0.00306725
0.00308734
0.00308122
0.00305919
0.00305504
0.00302463
0.00298265
0.00296141
0.00296357
0.00298587
0.00303009
0.00305942
0.00306463
0.00303785
0.00302442
0.00298227
0.00293906
0.00291804
0.00292
0.0029422
0.00298456
0.0030267
0.00304019
0.0030252
0.0030065
0.00295937
0.00291737
0.00289841
0.00289961
0.00291884
0.00296254
0.00300783
0.00302436
0.00302551
0.00300741
0.00296153
0.00291816
0.00289905
0.00289951
0.00291881
0.00296251
0.00300777
0.00302434
0.00304084
0.00302692
0.00298401
0.00294164
0.00291924
0.0029195
0.00294189
0.00298439
0.00302674
0.00304033
0.00306644
0.00306061
0.00303023
0.0029858
0.00296303
0.00296305
0.0029858
0.00303009
0.00305969
0.00306514
0.00308223
0.00308743
0.0030665
0.00302873
0.00300842
0.00300838
0.00302883
0.00306679
0.00308729
0.00308157
0.00313589
0.0030834
0.00306634
0.00304065
0.00302461
0.00302484
0.00304165
0.0030682
0.00308527
0.00313668
0.00313529
0.00301954
0.00300394
0.00298715
0.00297402
0.00297297
0.00298763
0.00301186
0.0030283
0.00311766
0.0030209
0.00301635
0.0030027
0.00297997
0.00296386
0.00296391
0.00298308
0.00301859
0.00303401
0.00302407
0.00300385
0.00300684
0.00297917
0.00293999
0.00291983
0.00292184
0.00294362
0.00298536
0.003011
0.00300784
0.00298482
0.00297823
0.00293948
0.00289897
0.00287854
0.00288028
0.00290203
0.00294247
0.00298114
0.00298665
0.00297232
0.00296128
0.00291775
0.00287783
0.00285932
0.00286035
0.00287908
0.00292094
0.00296315
0.0029719
0.00297239
0.00296233
0.00291985
0.00287845
0.00285978
0.00286019
0.00287904
0.0029209
0.00296303
0.00297174
0.00298669
0.00298096
0.00294179
0.00290147
0.00287945
0.00287969
0.00290173
0.00294228
0.00298102
0.00298642
0.00300902
0.00301185
0.00298547
0.00294368
0.00292135
0.00292134
0.00294364
0.00298536
0.00301107
0.0030079
0.00302462
0.00303395
0.00301798
0.00298305
0.00296359
0.00296352
0.00298307
0.00301816
0.0030338
0.0030241
0.0031168
0.00302615
0.00300942
0.00298688
0.00297195
0.00297216
0.00298774
0.00301103
0.00302779
0.00311755
0.00313815
0.00297343
0.00294986
0.00293374
0.00292128
0.00292077
0.00293484
0.00295735
0.00298078
0.00311985
0.00297496
0.00296501
0.00295396
0.00293352
0.00291864
0.00291906
0.00293752
0.0029704
0.00298214
0.00297696
0.00294997
0.00295811
0.00293375
0.00289752
0.00287842
0.00288026
0.00290152
0.00294095
0.00296306
0.00295386
0.00293184
0.00293189
0.00289695
0.00285903
0.0028391
0.00284053
0.00286178
0.00290046
0.00293579
0.0029342
0.0029199
0.00291618
0.00287632
0.00283835
0.00282019
0.002821
0.00283925
0.00287942
0.00291865
0.00292028
0.00292016
0.00291747
0.00287824
0.00283867
0.0028204
0.00282077
0.00283922
0.00287939
0.0029185
0.00291999
0.00293377
0.00293526
0.0028996
0.00286114
0.00283955
0.00283982
0.00286152
0.00290029
0.00293557
0.00293363
0.00295453
0.0029636
0.00294095
0.00290153
0.00287969
0.00287972
0.0029016
0.00294097
0.00296297
0.00295346
0.00297721
0.00298205
0.00296989
0.00293751
0.00291887
0.00291884
0.00293755
0.00297
0.0029818
0.00297662
0.00311905
0.00297898
0.0029553
0.00293417
0.00292011
0.00292031
0.00293491
0.00295658
0.00298022
0.00311958
0.00312306
0.0029422
0.00290013
0.00288255
0.00287088
0.00287116
0.00288511
0.00290842
0.00294919
0.0031046
0.00294383
0.00291558
0.00290629
0.00288841
0.00287492
0.00287574
0.0028934
0.00292371
0.00293302
0.00294567
0.00290051
0.00291048
0.00288992
0.00285668
0.00283853
0.0028401
0.00286076
0.00289792
0.00291648
0.00290519
0.00288112
0.00288698
0.00285615
0.00282064
0.00280104
0.00280206
0.00282274
0.00285968
0.00289161
0.00288441
0.00286982
0.00287267
0.00283648
0.00280027
0.00278233
0.00278284
0.00280063
0.00283915
0.00287533
0.00287086
0.00287055
0.00287411
0.00283803
0.00280012
0.00278219
0.00278249
0.00280057
0.00283912
0.00287518
0.00287049
0.00288399
0.00289098
0.00285864
0.00282188
0.00280076
0.00280108
0.00282244
0.00285952
0.00289136
0.00288362
0.00290575
0.00291693
0.00289771
0.00286048
0.00283918
0.00283929
0.00286074
0.0028979
0.00291632
0.00290445
0.0029459
0.00293313
0.00292325
0.00289314
0.00287533
0.00287533
0.00289321
0.00292324
0.0029326
0.00294502
0.00310394
0.00294798
0.00290674
0.00288427
0.00287047
0.00287065
0.00288479
0.00290751
0.00294854
0.00310406
0.00296149
0.00292949
0.00285814
0.00283561
0.0028241
0.00282518
0.00283978
0.00286763
0.00293675
0.00294342
0.00293113
0.0028701
0.0028607
0.00284531
0.00283323
0.00283434
0.00285108
0.00287899
0.00288805
0.00293339
0.00285867
0.00286499
0.00284827
0.00281788
0.00280055
0.00280179
0.00282174
0.0028566
0.00287177
0.00286447
0.00283452
0.00284412
0.0028174
0.00278409
0.00276469
0.00276528
0.00278535
0.00282052
0.00284902
0.00283875
0.00282325
0.00283109
0.00279848
0.00276386
0.00274607
0.00274631
0.00276363
0.00280052
0.00283361
0.00282471
0.00282455
0.00283253
0.00279949
0.00276313
0.00274554
0.00274581
0.00276352
0.00280047
0.00283348
0.00282437
0.0028387
0.00284839
0.0028192
0.0027841
0.00276352
0.00276391
0.00278489
0.00282028
0.0028488
0.002838
0.00286531
0.0028722
0.00285604
0.0028209
0.00280024
0.00280045
0.00282141
0.00285644
0.00287163
0.00286374
0.00293399
0.00288848
0.00287848
0.00285033
0.00283336
0.00283341
0.00285044
0.00287835
0.00288766
0.00293274
0.00294308
0.00293629
0.00286639
0.0028387
0.00282422
0.0028243
0.00283888
0.00286651
0.00293604
0.00294271
0.00249902
0.00292904
0.00282761
0.0027951
0.0027822
0.00278379
0.0028003
0.00283785
0.00293655
0.00249145
0.00293059
0.00283092
0.00281791
0.00280435
0.00279342
0.00279464
0.00281041
0.00283643
0.00284892
0.00293319
0.00282811
0.00282227
0.00280875
0.00278084
0.00276416
0.00276508
0.00278427
0.00281686
0.00282913
0.00283458
0.00279414
0.00280337
0.00278043
0.00274901
0.00272975
0.00272999
0.00274948
0.00278285
0.00280794
0.00279877
0.00278139
0.0027913
0.00276204
0.00272885
0.00271121
0.00271125
0.00272817
0.00276344
0.00279338
0.00278287
0.00278311
0.00279255
0.00276245
0.00272756
0.00271033
0.00271062
0.00272798
0.00276334
0.0027933
0.00278267
0.00279933
0.00280737
0.00278119
0.00274774
0.00272775
0.00272825
0.0027488
0.0027825
0.00280784
0.00279834
0.00283591
0.00282959
0.00281588
0.00278278
0.00276283
0.00276314
0.00278354
0.00281654
0.00282917
0.0028342
0.00293432
0.00284968
0.00283581
0.00280911
0.00279297
0.00279305
0.00280928
0.00283566
0.00284873
0.00293282
0.0024913
0.00293681
0.00283708
0.00279903
0.00278241
0.00278237
0.00279883
0.00283659
0.00293589
0.00249052
0.00363233
0.00290825
0.00281032
0.00276301
0.00274643
0.00274817
0.00276837
0.00282046
0.00291561
0.00364987
0.00290973
0.00280014
0.00277845
0.00276543
0.00275523
0.00275642
0.00277133
0.00279645
0.00281737
0.00291221
0.00281076
0.00278295
0.00277112
0.00274517
0.00272904
0.0027297
0.00274817
0.00277859
0.00278908
0.00281704
0.0027621
0.00276469
0.00274486
0.00271504
0.00269597
0.00269601
0.002715
0.00274654
0.00276842
0.00276632
0.00274564
0.00275315
0.0027269
0.00269501
0.00267762
0.00267758
0.00269414
0.00272775
0.00275456
0.00274665
0.00274751
0.0027541
0.00272677
0.00269335
0.00267655
0.00267689
0.00269386
0.00272758
0.00275454
0.00274669
0.00276762
0.002768
0.00274459
0.00271285
0.00269348
0.00269405
0.00271409
0.00274603
0.00276846
0.00276646
0.00281896
0.00278958
0.00277722
0.0027461
0.00272693
0.00272731
0.00274704
0.00277807
0.00278933
0.0028173
0.00291399
0.00281838
0.00279572
0.00276957
0.00275414
0.00275423
0.00276976
0.00279559
0.00281744
0.00291239
0.00364963
0.00291646
0.00282013
0.00276705
0.00274643
0.00274626
0.00276651
0.0028192
0.00291508
0.00364971
0.00643534
0.00278671
0.00280241
0.00274077
0.00271819
0.00271962
0.00274529
0.00281142
0.00279315
0.00644837
0.00278793
0.00277828
0.00274314
0.00272856
0.00271847
0.00271947
0.00273381
0.00275978
0.0027937
0.00278975
0.00280281
0.0027478
0.00273514
0.00271056
0.00269487
0.00269536
0.00271316
0.00274162
0.00275234
0.00280783
0.00273994
0.00272813
0.0027104
0.00268192
0.00266312
0.00266314
0.00268167
0.00271137
0.00273052
0.00274278
0.00271754
0.00271661
0.00269285
0.00266221
0.00264517
0.00264516
0.00266135
0.00269325
0.00271708
0.00271749
0.00271926
0.00271721
0.0026924
0.00266046
0.00264413
0.00264452
0.00266102
0.00269301
0.00271712
0.00271778
0.00274496
0.0027305
0.00270941
0.0026794
0.00266066
0.00266121
0.00268059
0.0027107
0.00273067
0.00274352
0.00281039
0.00275306
0.00274015
0.0027109
0.00269249
0.00269283
0.00271173
0.00274088
0.00275274
0.00280874
0.00279242
0.00279496
0.0027591
0.00273192
0.00271693
0.00271696
0.00273194
0.00275882
0.00279393
0.00279062
0.00644791
0.00279463
0.00281145
0.00274414
0.00271772
0.00271741
0.00274327
0.00281021
0.00279272
0.00644824
0.00985448
0.00250231
0.0027859
0.00272624
0.00269716
0.00269803
0.00272925
0.00279303
0.00250714
0.00986436
0.00250307
0.00276027
0.00271253
0.0026936
0.00268291
0.00268367
0.00269799
0.00272739
0.00277326
0.00250389
0.00278623
0.00271738
0.00270044
0.00267662
0.00266131
0.00266176
0.00267899
0.00270585
0.00272
0.00278953
0.00272548
0.00269351
0.00267667
0.00264936
0.00263097
0.00263114
0.00264925
0.00267719
0.00269459
0.00272663
0.00269677
0.00268142
0.00265962
0.00263025
0.00261371
0.00261383
0.00262962
0.00265981
0.00268113
0.00269563
0.00269814
0.00268178
0.00265911
0.00262874
0.00261295
0.00261336
0.0026293
0.00265953
0.00268123
0.00269617
0.00272951
0.00269504
0.00267555
0.0026473
0.00262919
0.00262961
0.0026482
0.00267643
0.00269484
0.00272793
0.00279266
0.00272102
0.00270469
0.0026771
0.0026594
0.00265957
0.00267754
0.00270502
0.00272049
0.00279099
0.002508
0.00277474
0.00272701
0.00269648
0.00268146
0.00268135
0.00269617
0.00272646
0.00277358
0.00250592
0.00986376
0.00250955
0.0027935
0.00272864
0.00269641
0.00269598
0.00272747
0.00279203
0.00250696
0.00986419
0.0137566
0.00298904
0.0027171
0.00271032
0.00267994
0.00268021
0.00271179
0.0027222
0.00299325
0.0137647
0.00298926
0.00273089
0.00268701
0.00266065
0.00264858
0.00264919
0.0026644
0.00270031
0.00274166
0.0029898
0.00271704
0.00269191
0.00266676
0.0026431
0.00262817
0.00262873
0.00264562
0.00267157
0.00269309
0.00271905
0.00270948
0.00266085
0.0026434
0.00261719
0.00259938
0.00259987
0.00261766
0.00264402
0.00266124
0.00270943
0.00267973
0.00264758
0.00262698
0.00259898
0.00258311
0.00258344
0.00259888
0.00262741
0.00264709
0.00267807
0.00268074
0.00264786
0.00262676
0.00259804
0.00258287
0.00258332
0.00259867
0.00262718
0.00264728
0.00267882
0.0027125
0.00266199
0.00264293
0.00261642
0.00259893
0.00259918
0.00261696
0.00264341
0.00266168
0.0027112
0.00272262
0.00269441
0.00267109
0.0026447
0.00262757
0.00262753
0.0026446
0.00267091
0.00269376
0.00272112
0.00299081
0.00274343
0.00270055
0.00266378
0.00264798
0.00264772
0.0026631
0.00269965
0.00274217
0.00299141
0.0137639
0.00299368
0.00272346
0.002712
0.00267933
0.00267881
0.0027106
0.00272163
0.00299358
0.0137644
0.0179567
0.00487299
0.00253998
0.00267024
0.00265566
0.00265562
0.00267096
0.00254376
0.00487843
0.0179638
0.00487418
0.00265959
0.00266577
0.00263015
0.00261597
0.00261665
0.0026339
0.00267844
0.00266874
0.00487375
0.00253949
0.00267083
0.00263444
0.00261007
0.00259553
0.00259643
0.00261327
0.00263939
0.00267145
0.0025412
0.00266952
0.00263075
0.00261063
0.00258539
0.00256834
0.0025693
0.00258687
0.00261196
0.00263115
0.00266904
0.00265573
0.00261551
0.00259487
0.00256824
0.00255318
0.00255386
0.00256896
0.00259598
0.00261535
0.00265413
0.00265645
0.00261586
0.00259512
0.00256803
0.00255357
0.00255414
0.00256895
0.00259587
0.00261564
0.00265503
0.00267182
0.00263181
0.00261124
0.0025863
0.00256947
0.00256965
0.00258673
0.00261171
0.00263181
0.00267122
0.0025447
0.00267257
0.00263936
0.00261324
0.00259664
0.00259653
0.00261301
0.00263915
0.00267235
0.00254427
0.00487265
0.00267021
0.00267889
0.002634
0.00261661
0.00261639
0.0026334
0.00267825
0.0026696
0.00487385
0.0179629
0.00487716
0.00254561
0.00267174
0.00265559
0.00265516
0.00267058
0.00254394
0.00487798
0.0179634
0.0222492
0.00731679
0.00247597
0.002569
0.0026002
0.00260006
0.00256948
0.00247767
0.00732357
0.0222563
0.00731914
0.00251843
0.00264547
0.00260226
0.0025852
0.00258607
0.00260638
0.00265811
0.00252499
0.00731737
0.0024755
0.00265078
0.00260403
0.00257755
0.00256322
0.00256452
0.00258166
0.00260958
0.00265135
0.00247483
0.00256862
0.00260338
0.00257844
0.00255383
0.00253757
0.00253902
0.00255642
0.00258068
0.00260409
0.00256805
0.00260077
0.00258538
0.00256313
0.00253777
0.00252353
0.00252454
0.00253932
0.00256501
0.00258567
0.00259929
0.00260122
0.00258578
0.00256383
0.00253822
0.00252447
0.00252518
0.0025395
0.00256499
0.00258596
0.00260019
0.00257027
0.00260435
0.00258005
0.0025563
0.00254013
0.00254032
0.0025568
0.00258068
0.00260467
0.00257031
0.0024769
0.00265174
0.00260949
0.00258217
0.00256591
0.00256584
0.00258209
0.00260959
0.00265202
0.00247832
0.00731661
0.00252544
0.0026581
0.00260673
0.00258699
0.00258692
0.0026065
0.00265802
0.0025257
0.00731722
0.022255
0.00732225
0.0024787
0.00257026
0.00260065
0.00260048
0.00256979
0.00247764
0.00732267
0.0222558
0.0264561
0.0101552
0.00346002
0.0024151
0.00248455
0.0024845
0.00241565
0.00346108
0.0101629
0.0264634
0.0101583
0.00241326
0.00261782
0.00257674
0.0025569
0.00255794
0.0025812
0.00263044
0.00241157
0.0101558
0.00346163
0.00262349
0.00257699
0.00254653
0.00253207
0.00253366
0.00255131
0.002583
0.00262398
0.0034567
0.0024158
0.00257845
0.00254775
0.0025234
0.00250785
0.00250962
0.00252672
0.00255059
0.00257934
0.00241462
0.00248617
0.00255776
0.00253256
0.00250835
0.00249488
0.00249607
0.00251036
0.00253484
0.00255829
0.00248455
0.00248647
0.00255822
0.0025336
0.0025093
0.00249623
0.00249695
0.00251067
0.00253486
0.00255848
0.00248534
0.00241689
0.00257942
0.00255017
0.00252706
0.0025115
0.00251164
0.00252745
0.00255068
0.00257963
0.00241684
0.00345769
0.00262394
0.00258295
0.00255234
0.00253602
0.00253593
0.00255222
0.00258302
0.00262412
0.00345905
0.0101554
0.00241194
0.00263017
0.00258184
0.00255968
0.00255967
0.00258178
0.00263027
0.00241213
0.010156
0.0264614
0.0101617
0.0034613
0.0024166
0.00248593
0.00248603
0.00241685
0.00346048
0.0101621
0.0264627
0.0304514
0.0133012
0.00520021
0.00262704
0.00236291
0.00236307
0.00262801
0.00520272
0.0133098
0.0304592
0.0133048
0.0029231
0.00256991
0.00255152
0.00253077
0.00253192
0.00255615
0.0025821
0.00291319
0.0133024
0.00520294
0.0025759
0.0025549
0.00251818
0.00250301
0.00250472
0.00252321
0.00256102
0.00257597
0.0051974
0.00262947
0.0025538
0.00251968
0.00249496
0.00247998
0.00248185
0.00249848
0.00252264
0.00255459
0.00262674
0.00236617
0.00253227
0.00250403
0.00248077
0.00246797
0.00246915
0.00248281
0.00250629
0.00253276
0.0023641
0.00236634
0.00253279
0.0025053
0.00248204
0.00246956
0.00247019
0.00248323
0.0025064
0.00253292
0.00236482
0.0026287
0.0025549
0.00252269
0.0024994
0.00248432
0.00248439
0.00249958
0.00252295
0.00255481
0.00262882
0.00519764
0.0025762
0.00256133
0.00252482
0.00250785
0.00250773
0.00252464
0.00256128
0.00257603
0.00519918
0.0133016
0.0029138
0.00258215
0.00255729
0.00253439
0.00253442
0.00255732
0.00258229
0.00291423
0.0133026
0.0304561
0.0133081
0.00520239
0.00262917
0.00236591
0.0023663
0.00262967
0.00520173
0.0133087
0.0304578
0.0341612
0.0166414
0.00731684
0.00369799
0.00270521
0.00270573
0.00369951
0.00732064
0.0166503
0.0341688
0.016645
0.00415685
0.00248806
0.00252031
0.00250381
0.00250504
0.00252517
0.00249957
0.00414886
0.0166432
0.00732007
0.00249446
0.00253799
0.00249283
0.00247622
0.00247794
0.00249793
0.00254414
0.0024939
0.00731467
0.00370041
0.00252304
0.0024945
0.00246844
0.00245384
0.00245568
0.00247189
0.00249739
0.00252385
0.00369768
0.0027083
0.00250567
0.00247753
0.00245482
0.00244257
0.00244364
0.00245664
0.00247962
0.00250617
0.00270688
0.00270801
0.00250625
0.00247889
0.0024562
0.00244422
0.00244471
0.00245714
0.00247981
0.0025063
0.00270735
0.00369804
0.00252432
0.00249779
0.00247318
0.00245841
0.00245841
0.00247322
0.00249791
0.00252403
0.00369898
0.00731427
0.00249446
0.00254474
0.00249984
0.0024814
0.00248129