/*--------------------------------*- C++ -*----------------------------------*\
| =========                 |                                                 |
| \\      /  F ield         | OpenFOAM: The Open Source CFD Toolbox           |
|  \\    /   O peration     | Version:  2406                                  |
|   \\  /    A nd           | Website:  www.openfoam.com                      |
|    \\/     M anipulation  |                                                 |
\*---------------------------------------------------------------------------*/
FoamFile
{
    version     2.0;
    format      ascii;
    arch        "LSB;label=32;scalar=64";
    class       volSymmTensorField;
    location    "450";
    object      turbulenceProperties:devReff;
}
// * * * * * * * * * * * * * * * * * * * * * * * * * * * * * * * * * * * * * //

dimensions      [0 2 -2 0 0 0 0];

internalField   nonuniform List<symmTensor> 
25000
(
(4.67618e-06 -3.50445e-06 -1.57806e-06 4.71445e-06 -1.57371e-06 -9.39063e-06)
(6.14448e-06 2.08611e-06 -1.10466e-06 2.8059e-06 -1.39924e-06 -8.95038e-06)
(4.35191e-06 1.10366e-06 -7.90249e-07 3.78097e-06 -1.4464e-06 -8.13287e-06)
(4.16792e-06 7.01357e-07 -4.61619e-07 3.98616e-06 -1.45359e-06 -8.15408e-06)
(4.04297e-06 2.49306e-07 -1.49141e-07 4.09816e-06 -1.45551e-06 -8.14113e-06)
(4.06819e-06 -2.36007e-07 1.60338e-07 4.07823e-06 -1.45629e-06 -8.14642e-06)
(4.28701e-06 -6.86847e-07 4.70627e-07 3.89794e-06 -1.45597e-06 -8.18495e-06)
(4.72281e-06 -1.11185e-06 7.86307e-07 3.51449e-06 -1.45129e-06 -8.23729e-06)
(6.1382e-06 -1.84718e-06 1.11707e-06 2.49933e-06 -1.41249e-06 -8.63753e-06)
(4.11202e-06 4.03731e-06 1.59836e-06 4.10735e-06 -1.59606e-06 -8.21937e-06)
(2.80198e-06 2.05546e-06 -1.4022e-06 6.1672e-06 -1.10253e-06 -8.96918e-06)
(4.34143e-06 8.01301e-07 -1.10576e-06 4.37277e-06 -1.10253e-06 -8.7142e-06)
(3.83747e-06 7.09731e-07 -8.19659e-07 4.20007e-06 -1.11405e-06 -8.03755e-06)
(3.71108e-06 4.54654e-07 -4.91902e-07 3.99334e-06 -1.1347e-06 -7.70442e-06)
(3.68214e-06 1.48517e-07 -1.60739e-07 3.86963e-06 -1.1472e-06 -7.55177e-06)
(3.70257e-06 -1.64752e-07 1.68902e-07 3.85669e-06 -1.14829e-06 -7.55926e-06)
(3.77787e-06 -4.90617e-07 4.9697e-07 3.94905e-06 -1.13854e-06 -7.72693e-06)
(3.93447e-06 -8.46293e-07 8.18709e-07 4.13596e-06 -1.11978e-06 -8.07043e-06)
(4.35542e-06 -1.27595e-06 1.10236e-06 4.36632e-06 -1.09934e-06 -8.72174e-06)
(2.49698e-06 -1.85121e-06 1.41435e-06 6.14403e-06 -1.11378e-06 -8.64101e-06)
(3.79699e-06 1.06957e-06 -1.44712e-06 4.35858e-06 -7.91546e-07 -8.15557e-06)
(4.19117e-06 6.89289e-07 -1.11676e-06 3.85991e-06 -8.19132e-07 -8.05108e-06)
(3.75751e-06 4.73711e-07 -8.24699e-07 3.77806e-06 -8.23196e-07 -7.53556e-06)
(3.56257e-06 2.93833e-07 -5.00695e-07 3.66119e-06 -8.28452e-07 -7.22376e-06)
(3.49017e-06 9.04781e-08 -1.65168e-07 3.58945e-06 -8.33073e-07 -7.07962e-06)
(3.50015e-06 -1.23415e-07 1.71169e-07 3.58405e-06 -8.33806e-07 -7.08419e-06)
(3.58757e-06 -3.47444e-07 5.04745e-07 3.64852e-06 -8.30394e-07 -7.23609e-06)
(3.76713e-06 -5.7826e-07 8.27699e-07 3.77998e-06 -8.24085e-07 -7.54712e-06)
(4.12278e-06 -8.46621e-07 1.12238e-06 3.94663e-06 -8.14747e-07 -8.06941e-06)
(3.50976e-06 -1.11543e-06 1.45323e-06 4.73287e-06 -7.82507e-07 -8.24263e-06)
(4.00305e-06 6.8792e-07 -1.45227e-06 4.16047e-06 -4.64734e-07 -8.16352e-06)
(3.99149e-06 4.35005e-07 -1.13547e-06 3.71972e-06 -4.9354e-07 -7.71121e-06)
(3.65011e-06 2.85091e-07 -8.29432e-07 3.57681e-06 -5.00969e-07 -7.22692e-06)
(3.45254e-06 1.70614e-07 -5.03376e-07 3.46415e-06 -5.03385e-07 -6.91669e-06)
(3.36579e-06 4.83193e-08 -1.66719e-07 3.40206e-06 -5.05223e-07 -6.76784e-06)
(3.36917e-06 -8.03327e-08 1.72075e-07 3.40218e-06 -5.05589e-07 -6.77135e-06)
(3.45621e-06 -2.13691e-07 5.08018e-07 3.46924e-06 -5.04019e-07 -6.92544e-06)
(3.63498e-06 -3.45597e-07 8.33995e-07 3.60342e-06 -5.0067e-07 -7.2384e-06)
(3.93467e-06 -4.90783e-07 1.14151e-06 3.7967e-06 -4.92599e-07 -7.73137e-06)
(3.88885e-06 -6.9134e-07 1.45788e-06 4.30374e-06 -4.66138e-07 -8.19259e-06)
(4.11263e-06 2.41745e-07 -1.45421e-06 4.03257e-06 -1.51951e-07 -8.1452e-06)
(3.87392e-06 1.35799e-07 -1.14683e-06 3.68215e-06 -1.62946e-07 -7.55606e-06)
(3.58438e-06 8.13653e-08 -8.33128e-07 3.49714e-06 -1.66457e-07 -7.08151e-06)
(3.39421e-06 4.45293e-08 -5.05027e-07 3.37434e-06 -1.67498e-07 -6.76855e-06)
(3.30498e-06 7.33408e-09 -1.67508e-07 3.31187e-06 -1.68227e-07 -6.61685e-06)
(3.30503e-06 -3.26e-08 1.72513e-07 3.31403e-06 -1.68478e-07 -6.61906e-06)
(3.39099e-06 -7.47187e-08 5.09628e-07 3.38364e-06 -1.68076e-07 -6.77463e-06)
(3.56828e-06 -1.16218e-07 8.37725e-07 3.52238e-06 -1.67025e-07 -7.09066e-06)
(3.83602e-06 -1.62243e-07 1.15157e-06 3.73228e-06 -1.6414e-07 -7.5683e-06)
(4.06024e-06 -2.41785e-07 1.45818e-06 4.09714e-06 -1.54981e-07 -8.15738e-06)
(4.08774e-06 -2.39459e-07 -1.45484e-06 4.06057e-06 1.58256e-07 -8.14831e-06)
(3.86076e-06 -1.73238e-07 -1.14757e-06 3.70022e-06 1.66965e-07 -7.56098e-06)
(3.58272e-06 -1.31078e-07 -8.33383e-07 3.50274e-06 1.69665e-07 -7.08546e-06)
(3.39759e-06 -8.47907e-08 -5.05018e-07 3.37404e-06 1.70929e-07 -6.77163e-06)
(3.30889e-06 -3.44011e-08 -1.67706e-07 3.31031e-06 1.71538e-07 -6.6192e-06)
(3.30813e-06 1.55683e-08 1.72229e-07 3.31257e-06 1.71262e-07 -6.6207e-06)
(3.39297e-06 6.43061e-08 5.09345e-07 3.38269e-06 1.7023e-07 -6.77566e-06)
(3.56945e-06 1.09847e-07 8.37441e-07 3.52183e-06 1.68592e-07 -7.09129e-06)
(3.83674e-06 1.58166e-07 1.15135e-06 3.73196e-06 1.65224e-07 -7.56869e-06)
(4.06057e-06 2.39245e-07 1.45802e-06 4.09703e-06 1.55651e-07 -8.1576e-06)
(3.90522e-06 -6.89888e-07 -1.45486e-06 4.28075e-06 4.69069e-07 -8.18597e-06)
(3.95346e-06 -4.96003e-07 -1.13763e-06 3.77482e-06 4.9539e-07 -7.72828e-06)
(3.64822e-06 -3.5275e-07 -8.29652e-07 3.58832e-06 5.03391e-07 -7.23654e-06)
(3.46641e-06 -2.17821e-07 -5.0329e-07 3.45955e-06 5.06858e-07 -6.92597e-06)
(3.38007e-06 -7.70906e-08 -1.6719e-07 3.39505e-06 5.08627e-07 -6.77512e-06)
(3.37903e-06 6.32512e-08 1.71207e-07 3.39706e-06 5.08375e-07 -6.77609e-06)
(3.46249e-06 2.03515e-07 5.07094e-07 3.46601e-06 5.06128e-07 -6.92851e-06)
(3.63868e-06 3.39354e-07 8.33227e-07 3.60162e-06 5.02199e-07 -7.2403e-06)
(3.93677e-06 4.86767e-07 1.14087e-06 3.79575e-06 4.93663e-07 -7.73252e-06)
(3.88983e-06 6.88789e-07 1.45738e-06 4.30341e-06 4.66807e-07 -8.19324e-06)
(3.51949e-06 -1.11274e-06 -1.45019e-06 4.71822e-06 7.85123e-07 -8.2377e-06)
(4.13777e-06 -8.49218e-07 -1.11854e-06 3.93114e-06 8.17306e-07 -8.0689e-06)
(3.78027e-06 -5.81977e-07 -8.2329e-07 3.76763e-06 8.26565e-07 -7.5479e-06)
(3.60164e-06 -3.48802e-07 -4.99832e-07 3.63759e-06 8.33068e-07 -7.23923e-06)
(3.51954e-06 -1.18755e-07 -1.66082e-07 3.57159e-06 8.36808e-07 -7.09113e-06)
(3.51877e-06 1.08229e-07 1.696e-07 3.57296e-06 8.366e-07 -7.09173e-06)
(3.59859e-06 3.38488e-07 5.03203e-07 3.64225e-06 8.32408e-07 -7.24084e-06)
(3.77344e-06 5.72702e-07 8.2637e-07 3.77664e-06 8.25524e-07 -7.55008e-06)
(4.12642e-06 8.42927e-07 1.12131e-06 3.9449e-06 8.15755e-07 -8.07131e-06)
(3.51132e-06 1.11302e-06 1.4524e-06 4.73236e-06 7.83184e-07 -8.24368e-06)
(2.50323e-06 -1.84698e-06 -1.41138e-06 6.13381e-06 1.11604e-06 -8.63704e-06)
(4.36914e-06 -1.27722e-06 -1.09847e-06 4.35328e-06 1.10145e-06 -8.72243e-06)
(3.94817e-06 -8.49238e-07 -8.14166e-07 4.1241e-06 1.12188e-06 -8.07227e-06)
(3.79544e-06 -4.93334e-07 -4.91677e-07 3.93611e-06 1.14073e-06 -7.73155e-06)
(3.73018e-06 -1.64511e-07 -1.63138e-07 3.83834e-06 1.15086e-06 -7.56853e-06)
(3.72959e-06 1.56238e-07 1.66257e-07 3.83941e-06 1.15068e-06 -7.569e-06)
(3.79323e-06 4.85383e-07 4.94639e-07 3.93965e-06 1.14022e-06 -7.73288e-06)
(3.94344e-06 8.42505e-07 8.16887e-07 4.13062e-06 1.12101e-06 -8.07407e-06)
(4.3607e-06 1.27312e-06 1.10093e-06 4.36343e-06 1.10026e-06 -8.72413e-06)
(2.49898e-06 1.84882e-06 1.41325e-06 6.14336e-06 1.11444e-06 -8.64234e-06)
(4.10986e-06 4.03687e-06 -1.59506e-06 4.1117e-06 1.59728e-06 -8.22156e-06)
(6.14571e-06 -1.85375e-06 -1.11304e-06 2.49804e-06 1.41355e-06 -8.64374e-06)
(4.73228e-06 -1.11771e-06 -7.81631e-07 3.51091e-06 1.45241e-06 -8.24319e-06)
(4.30241e-06 -6.93341e-07 -4.65149e-07 3.89037e-06 1.4572e-06 -8.19277e-06)
(4.09567e-06 -2.43722e-07 -1.53927e-07 4.06162e-06 1.4576e-06 -8.15729e-06)
(4.09551e-06 2.37392e-07 1.56708e-07 4.06192e-06 1.45751e-06 -8.15743e-06)
(4.30192e-06 6.87045e-07 4.67814e-07 3.891e-06 1.4569e-06 -8.19292e-06)
(4.73086e-06 1.11156e-06 7.84089e-07 3.51233e-06 1.45198e-06 -8.24319e-06)
(6.14247e-06 1.84799e-06 1.1153e-06 2.50013e-06 1.41302e-06 -8.6426e-06)
(4.11139e-06 -4.03666e-06 1.59689e-06 4.11163e-06 1.59651e-06 -8.22302e-06)
(6.07863e-06 -3.5329e-06 3.28888e-06 6.01147e-06 3.31941e-06 -1.20901e-05)
(8.31997e-06 1.78895e-06 2.11377e-06 3.58645e-06 3.01598e-06 -1.19064e-05)
(6.454e-06 4.31966e-07 1.55778e-06 5.22607e-06 2.74565e-06 -1.16801e-05)
(6.24022e-06 4.4593e-07 9.54208e-07 5.45651e-06 2.62916e-06 -1.16967e-05)
(6.05036e-06 1.59473e-07 3.09192e-07 5.58767e-06 2.5597e-06 -1.1638e-05)
(6.05027e-06 -1.76527e-07 -3.3571e-07 5.57838e-06 2.55852e-06 -1.16287e-05)
(6.21603e-06 -4.70092e-07 -9.83032e-07 5.43668e-06 2.62465e-06 -1.16527e-05)
(6.57348e-06 -5.09654e-07 -1.63936e-06 5.13626e-06 2.74071e-06 -1.17097e-05)
(8.36133e-06 -1.88349e-06 -2.3052e-06 3.60778e-06 3.02278e-06 -1.19691e-05)
(5.92287e-06 3.6589e-06 -3.26739e-06 5.92208e-06 3.26433e-06 -1.18449e-05)
(3.60174e-06 1.8106e-06 2.9921e-06 8.29884e-06 2.13091e-06 -1.19006e-05)
(5.93282e-06 8.23367e-07 2.09834e-06 5.91496e-06 2.12239e-06 -1.18478e-05)
(5.76749e-06 4.33865e-07 1.43501e-06 5.83509e-06 2.03881e-06 -1.16026e-05)
(5.88979e-06 1.60871e-07 8.54082e-07 5.59784e-06 1.95201e-06 -1.14876e-05)
(5.88132e-06 3.11713e-08 2.74044e-07 5.50446e-06 1.90583e-06 -1.13858e-05)
(5.8716e-06 -7.40531e-08 -3.0397e-07 5.50927e-06 1.90624e-06 -1.13809e-05)
(5.86114e-06 -2.03325e-07 -8.91474e-07 5.61281e-06 1.95279e-06 -1.14739e-05)
(5.74344e-06 -4.26439e-07 -1.49466e-06 5.8627e-06 2.04249e-06 -1.16061e-05)
(5.95698e-06 -1.01063e-06 -2.17845e-06 5.972e-06 2.17413e-06 -1.1929e-05)
(3.60244e-06 -1.88877e-06 -3.02411e-06 8.36923e-06 2.29986e-06 -1.19717e-05)
(5.21236e-06 4.57993e-07 2.73679e-06 6.44451e-06 1.55577e-06 -1.16569e-05)
(5.84988e-06 4.49272e-07 2.02198e-06 5.75228e-06 1.44606e-06 -1.16022e-05)
(5.64351e-06 3.77326e-07 1.36786e-06 5.62692e-06 1.3814e-06 -1.12704e-05)
(5.70033e-06 1.98871e-07 8.03819e-07 5.48291e-06 1.32693e-06 -1.11832e-05)
(5.69474e-06 4.97104e-08 2.58024e-07 5.43501e-06 1.29942e-06 -1.11297e-05)
(5.68619e-06 -7.93119e-08 -2.84314e-07 5.44209e-06 1.30154e-06 -1.11283e-05)
(5.68482e-06 -2.17404e-07 -8.35002e-07 5.50293e-06 1.33445e-06 -1.11878e-05)
(5.63785e-06 -3.67605e-07 -1.40477e-06 5.64952e-06 1.39873e-06 -1.12874e-05)
(5.84375e-06 -4.25452e-07 -2.04482e-06 5.75322e-06 1.48722e-06 -1.1597e-05)
(5.13007e-06 -5.13688e-07 -2.74223e-06 6.58491e-06 1.63308e-06 -1.1715e-05)
(5.43833e-06 4.59936e-07 2.62553e-06 6.24375e-06 9.47321e-07 -1.16821e-05)
(5.59596e-06 1.7818e-07 1.94117e-06 5.88148e-06 8.5465e-07 -1.14774e-05)
(5.49286e-06 2.08412e-07 1.31622e-06 5.68753e-06 8.09822e-07 -1.11804e-05)
(5.52516e-06 1.34081e-07 7.6783e-07 5.51425e-06 7.74836e-07 -1.10394e-05)
(5.5292e-06 3.64833e-08 2.46872e-07 5.43811e-06 7.5658e-07 -1.09673e-05)
(5.52569e-06 -5.27854e-08 -2.67537e-07 5.44273e-06 7.59031e-07 -1.09684e-05)
(5.51863e-06 -1.42315e-07 -7.90875e-07 5.52433e-06 7.82806e-07 -1.1043e-05)
(5.4928e-06 -2.14144e-07 -1.34021e-06 5.6935e-06 8.26417e-07 -1.11863e-05)
(5.59869e-06 -1.99942e-07 -1.95636e-06 5.87543e-06 8.82702e-07 -1.14741e-05)
(5.42617e-06 -4.73356e-07 -2.62578e-06 6.232e-06 9.74648e-07 -1.16582e-05)
(5.5761e-06 1.60479e-07 2.55846e-06 6.0593e-06 3.03881e-07 -1.16354e-05)
(5.49949e-06 4.13902e-08 1.89911e-06 5.8826e-06 2.71931e-07 -1.13821e-05)
(5.43689e-06 5.86923e-08 1.29141e-06 5.68978e-06 2.59646e-07 -1.11267e-05)
(5.44405e-06 4.00199e-08 7.50476e-07 5.5232e-06 2.50404e-07 -1.09672e-05)
(5.44816e-06 8.52605e-09 2.41974e-07 5.44335e-06 2.45856e-07 -1.08915e-05)
(5.44603e-06 -2.12371e-08 -2.57902e-07 5.44545e-06 2.47859e-07 -1.08915e-05)
(5.44068e-06 -5.02193e-08 -7.6734e-07 5.52663e-06 2.56904e-07 -1.09673e-05)
(5.43633e-06 -7.14548e-08 -1.30783e-06 5.69076e-06 2.72336e-07 -1.11271e-05)
(5.49523e-06 -6.36903e-08 -1.90961e-06 5.88487e-06 2.91186e-07 -1.13801e-05)
(5.55896e-06 -1.75149e-07 -2.5588e-06 6.07432e-06 3.23781e-07 -1.16333e-05)
(5.57244e-06 -1.77831e-07 2.55787e-06 6.05746e-06 -3.4013e-07 -1.16299e-05)
(5.50314e-06 -7.00284e-08 1.90198e-06 5.87647e-06 -3.06753e-07 -1.13796e-05)
(5.44093e-06 -7.42019e-08 1.29595e-06 5.68641e-06 -2.84649e-07 -1.11273e-05)
(5.44446e-06 -4.94388e-08 7.54059e-07 5.52295e-06 -2.66172e-07 -1.09674e-05)
(5.44772e-06 -2.01606e-08 2.44317e-07 5.44394e-06 -2.55791e-07 -1.08917e-05)
(5.44651e-06 8.54852e-09 -2.5645e-07 5.44522e-06 -2.54157e-07 -1.08917e-05)
(5.44144e-06 3.87758e-08 -7.66472e-07 5.52604e-06 -2.61021e-07 -1.09675e-05)
(5.43714e-06 6.20908e-08 -1.30735e-06 5.69015e-06 -2.75175e-07 -1.11273e-05)
(5.49613e-06 5.62128e-08 -1.90933e-06 5.88426e-06 -2.9326e-07 -1.13804e-05)
(5.55943e-06 1.69047e-07 -2.55864e-06 6.074e-06 -3.25419e-07 -1.16334e-05)
(5.43565e-06 -4.73298e-07 2.6248e-06 6.21959e-06 -9.86706e-07 -1.16552e-05)
(5.60865e-06 -2.01922e-07 1.94981e-06 5.86511e-06 -8.9404e-07 -1.14738e-05)
(5.50013e-06 -2.14674e-07 1.33027e-06 5.68622e-06 -8.36129e-07 -1.11863e-05)
(5.52445e-06 -1.40347e-07 7.79083e-07 5.51899e-06 -7.9087e-07 -1.10434e-05)
(5.52784e-06 -4.91601e-08 2.53999e-07 5.4408e-06 -7.66567e-07 -1.09686e-05)
(5.52645e-06 3.90418e-08 -2.63151e-07 5.44221e-06 -7.65292e-07 -1.09687e-05)
(5.52143e-06 1.30543e-07 -7.88274e-07 5.52223e-06 -7.86896e-07 -1.10437e-05)
(5.49577e-06 2.04938e-07 -1.33867e-06 5.69131e-06 -8.29227e-07 -1.11871e-05)
(5.601e-06 1.92723e-07 -1.95547e-06 5.87374e-06 -8.84746e-07 -1.14747e-05)
(5.42758e-06 4.67346e-07 -2.62534e-06 6.23106e-06 -9.7625e-07 -1.16586e-05)
(5.13694e-06 -5.1221e-07 2.74084e-06 6.57503e-06 -1.64233e-06 -1.1712e-05)
(5.85477e-06 -4.26147e-07 2.03868e-06 5.74207e-06 -1.49602e-06 -1.15968e-05)
(5.64772e-06 -3.66557e-07 1.39573e-06 5.63991e-06 -1.40659e-06 -1.12876e-05)
(5.69368e-06 -2.12887e-07 8.23713e-07 5.49456e-06 -1.34135e-06 -1.11882e-05)
(5.69068e-06 -7.074e-08 2.70078e-07 5.43718e-06 -1.3081e-06 -1.11279e-05)
(5.68961e-06 6.24987e-08 -2.76924e-07 5.43836e-06 -1.30708e-06 -1.1128e-05)
(5.69053e-06 2.05015e-07 -8.30584e-07 5.49806e-06 -1.33821e-06 -1.11886e-05)
(5.64316e-06 3.58687e-07 -1.40217e-06 5.64534e-06 -1.40143e-06 -1.12885e-05)
(5.848e-06 4.18985e-07 -2.04328e-06 5.75018e-06 -1.48923e-06 -1.15982e-05)
(5.13238e-06 5.08431e-07 -2.74149e-06 6.58331e-06 -1.63466e-06 -1.17157e-05)
(3.60971e-06 -1.88636e-06 3.02208e-06 8.35798e-06 -2.30728e-06 -1.19677e-05)
(5.97121e-06 -1.01103e-06 2.17215e-06 5.95756e-06 -2.18114e-06 -1.19288e-05)
(5.75703e-06 -4.25208e-07 1.48606e-06 5.84963e-06 -2.04876e-06 -1.16067e-05)
(5.87551e-06 -1.9903e-07 8.80702e-07 5.5996e-06 -1.95805e-06 -1.14751e-05)
(5.8845e-06 -6.28543e-08 2.89607e-07 5.49623e-06 -1.91062e-06 -1.13807e-05)
(5.88333e-06 5.66576e-08 -2.94498e-07 5.4975e-06 -1.90981e-06 -1.13808e-05)
(5.87236e-06 1.92956e-07 -8.8577e-07 5.60323e-06 -1.95564e-06 -1.14756e-05)
(5.75253e-06 4.19605e-07 -1.49114e-06 5.85546e-06 -2.0448e-06 -1.1608e-05)
(5.96365e-06 1.00571e-06 -2.17625e-06 5.96696e-06 -2.17596e-06 -1.19306e-05)
(3.60586e-06 1.88416e-06 -3.02297e-06 8.36665e-06 -2.30143e-06 -1.19725e-05)
(5.92757e-06 3.6524e-06 3.26449e-06 5.92034e-06 -3.27129e-06 -1.18479e-05)
(8.37091e-06 -1.89028e-06 2.29877e-06 3.60558e-06 -3.02803e-06 -1.19765e-05)
(6.58382e-06 -5.12536e-07 1.63129e-06 5.13275e-06 -2.74449e-06 -1.17166e-05)
(6.23111e-06 -4.72031e-07 9.73216e-07 5.42834e-06 -2.62741e-06 -1.16594e-05)
(6.07346e-06 -1.74122e-07 3.22734e-07 5.56062e-06 -2.56001e-06 -1.16341e-05)
(6.07297e-06 1.69697e-07 -3.26215e-07 5.56071e-06 -2.55951e-06 -1.16337e-05)
(6.22988e-06 4.67741e-07 -9.76908e-07 5.42841e-06 -2.62589e-06 -1.16583e-05)
(6.58215e-06 5.08654e-07 -1.63525e-06 5.13316e-06 -2.74186e-06 -1.17153e-05)
(8.36696e-06 1.88464e-06 -2.30245e-06 3.60782e-06 -3.02401e-06 -1.19748e-05)
(5.92382e-06 -3.65724e-06 -3.26575e-06 5.92566e-06 -3.26567e-06 -1.18495e-05)
(5.19418e-06 -1.03997e-06 4.51436e-06 5.10288e-06 4.52941e-06 -1.02971e-05)
(6.31107e-06 1.09068e-06 3.07611e-06 3.69145e-06 4.06259e-06 -1.00025e-05)
(5.0869e-06 -1.96631e-08 2.2384e-06 4.96352e-06 3.88841e-06 -1.00504e-05)
(4.93676e-06 2.45303e-07 1.34455e-06 4.96598e-06 3.81235e-06 -9.90274e-06)
(4.80075e-06 6.24909e-08 4.39864e-07 5.03681e-06 3.75193e-06 -9.83757e-06)
(4.8248e-06 -6.73547e-08 -4.58766e-07 5.01678e-06 3.75243e-06 -9.84158e-06)
(4.924e-06 -2.48613e-07 -1.3513e-06 4.93524e-06 3.81317e-06 -9.85924e-06)
(5.1002e-06 3.22344e-08 -2.25771e-06 4.87068e-06 3.89162e-06 -9.97087e-06)
(6.29666e-06 -1.11728e-06 -3.18675e-06 3.69613e-06 4.0862e-06 -9.99279e-06)
(5.14716e-06 9.85528e-07 -4.53728e-06 5.14747e-06 4.5319e-06 -1.02946e-05)
(3.70177e-06 1.13726e-06 4.05488e-06 6.27471e-06 3.08293e-06 -9.97648e-06)
(4.89237e-06 5.10871e-07 3.02822e-06 4.86342e-06 3.03865e-06 -9.75579e-06)
(4.84287e-06 7.40362e-08 2.1778e-06 5.02051e-06 2.97028e-06 -9.86338e-06)
(4.97945e-06 -4.31594e-08 1.30774e-06 4.89492e-06 2.92656e-06 -9.87438e-06)
(4.96018e-06 -2.55066e-08 4.27486e-07 4.89033e-06 2.90593e-06 -9.85051e-06)
(4.96121e-06 -6.01832e-09 -4.45631e-07 4.889e-06 2.907e-06 -9.85021e-06)
(4.96946e-06 -1.96959e-08 -1.32184e-06 4.89815e-06 2.93001e-06 -9.86761e-06)
(4.80803e-06 -6.25996e-08 -2.19312e-06 5.03726e-06 2.96947e-06 -9.84529e-06)
(4.86795e-06 -4.98188e-07 -3.05535e-06 4.87188e-06 3.04805e-06 -9.73983e-06)
(3.69457e-06 -1.11852e-06 -4.08869e-06 6.2966e-06 3.1776e-06 -9.99117e-06)
(4.94021e-06 1.78552e-08 3.88795e-06 5.07365e-06 2.23419e-06 -1.00139e-05)
(5.04218e-06 1.03638e-07 2.96759e-06 4.81528e-06 2.18272e-06 -9.85746e-06)
(4.89904e-06 1.20212e-07 2.11688e-06 4.86979e-06 2.12078e-06 -9.76883e-06)
(4.97786e-06 5.39368e-08 1.27812e-06 4.8412e-06 2.07691e-06 -9.81906e-06)
(4.95022e-06 1.28423e-08 4.20956e-07 4.8634e-06 2.05949e-06 -9.81362e-06)
(4.945e-06 -3.16534e-08 -4.35446e-07 4.86719e-06 2.06099e-06 -9.81218e-06)
(4.96508e-06 -7.91375e-08 -1.29138e-06 4.85589e-06 2.0813e-06 -9.82097e-06)
(4.8931e-06 -1.34597e-07 -2.13192e-06 4.89697e-06 2.1235e-06 -9.79007e-06)
(5.02725e-06 -6.19179e-08 -2.97294e-06 4.80684e-06 2.1819e-06 -9.83408e-06)
(4.86955e-06 2.93264e-08 -3.89518e-06 5.1038e-06 2.24887e-06 -9.97336e-06)
(4.94076e-06 2.61323e-07 3.8108e-06 4.94702e-06 1.34221e-06 -9.88778e-06)
(4.89417e-06 -1.60924e-08 2.92361e-06 4.96802e-06 1.30777e-06 -9.86219e-06)
(4.8585e-06 6.82749e-08 2.07462e-06 4.9571e-06 1.27976e-06 -9.8156e-06)
(4.92192e-06 2.86433e-08 1.24747e-06 4.9045e-06 1.249e-06 -9.82642e-06)
(4.91533e-06 3.56784e-09 4.11844e-07 4.89523e-06 1.23402e-06 -9.81056e-06)
(4.91135e-06 -1.46137e-08 -4.24391e-07 4.89853e-06 1.23516e-06 -9.80988e-06)
(4.91108e-06 -3.83254e-08 -1.26038e-06 4.91285e-06 1.25127e-06 -9.82393e-06)
(4.85176e-06 -7.71832e-08 -2.08935e-06 4.96717e-06 1.28186e-06 -9.81893e-06)
(4.89293e-06 -1.69925e-08 -2.93668e-06 4.97399e-06 1.31208e-06 -9.86692e-06)
(4.93123e-06 -2.52339e-07 -3.81713e-06 4.93083e-06 1.34196e-06 -9.86207e-06)
(5.02014e-06 6.46511e-08 3.75044e-06 4.81501e-06 4.40175e-07 -9.83515e-06)
(4.88442e-06 -1.12182e-08 2.90309e-06 4.96219e-06 4.27973e-07 -9.84661e-06)
(4.86944e-06 2.50254e-08 2.05695e-06 4.94148e-06 4.21966e-07 -9.81092e-06)
(4.90647e-06 8.08517e-09 1.23267e-06 4.90488e-06 4.12927e-07 -9.81135e-06)
(4.90804e-06 -1.57657e-09 4.07461e-07 4.89928e-06 4.08524e-07 -9.80733e-06)
(4.90428e-06 -5.92066e-09 -4.18668e-07 4.9015e-06 4.09313e-07 -9.80577e-06)
(4.89815e-06 -1.30157e-08 -1.24431e-06 4.90981e-06 4.15008e-07 -9.80797e-06)
(4.86516e-06 -2.72637e-08 -2.06981e-06 4.94624e-06 4.25586e-07 -9.8114e-06)
(4.8821e-06 9.55084e-10 -2.91396e-06 4.96794e-06 4.34926e-07 -9.85004e-06)
(5.00372e-06 -6.86437e-08 -3.75618e-06 4.8415e-06 4.48272e-07 -9.84522e-06)
(5.00758e-06 -6.55027e-08 3.75041e-06 4.83375e-06 -4.58495e-07 -9.84134e-06)
(4.88274e-06 1.38771e-09 2.9045e-06 4.96598e-06 -4.45279e-07 -9.84872e-06)
(4.86898e-06 -2.34852e-08 2.05879e-06 4.94256e-06 -4.34669e-07 -9.81154e-06)
(4.9041e-06 -9.73451e-09 1.23352e-06 4.90507e-06 -4.23451e-07 -9.80917e-06)
(4.90723e-06 -4.20303e-09 4.08268e-07 4.89897e-06 -4.17749e-07 -9.80621e-06)
(4.90476e-06 1.91682e-10 -4.17872e-07 4.9006e-06 -4.16898e-07 -9.80536e-06)
(4.8986e-06 8.20524e-09 -1.24363e-06 4.90911e-06 -4.21066e-07 -9.8077e-06)
(4.8655e-06 2.34525e-08 -2.06924e-06 4.94577e-06 -4.30352e-07 -9.81127e-06)
(4.88242e-06 -4.18473e-09 -2.91353e-06 4.96757e-06 -4.38651e-07 -9.84999e-06)
(5.00389e-06 6.52144e-08 -3.75594e-06 4.84135e-06 -4.51213e-07 -9.84524e-06)
(4.93014e-06 -2.48606e-07 3.81177e-06 4.93003e-06 -1.3511e-06 -9.86017e-06)
(4.89293e-06 -1.55662e-08 2.92734e-06 4.97349e-06 -1.32125e-06 -9.86642e-06)
(4.85544e-06 -7.40637e-08 2.07889e-06 4.96398e-06 -1.29058e-06 -9.81942e-06)
(4.91658e-06 -3.45731e-08 1.24995e-06 4.90824e-06 -1.25963e-06 -9.82482e-06)
(4.91432e-06 -1.07317e-08 4.14075e-07 4.8954e-06 -1.24359e-06 -9.80972e-06)
(4.91233e-06 9.12404e-09 -4.22033e-07 4.89678e-06 -1.24281e-06 -9.80911e-06)
(4.91263e-06 3.41149e-08 -1.25828e-06 4.91092e-06 -1.25727e-06 -9.82355e-06)
(4.85304e-06 7.38654e-08 -2.08767e-06 4.96562e-06 -1.28651e-06 -9.81866e-06)
(4.89351e-06 1.41919e-08 -2.93539e-06 4.97307e-06 -1.3157e-06 -9.86658e-06)
(4.93177e-06 2.48957e-07 -3.81641e-06 4.93024e-06 -1.34483e-06 -9.86201e-06)
(4.86699e-06 3.13688e-08 3.88982e-06 5.10437e-06 -2.25744e-06 -9.97135e-06)
(5.02754e-06 -6.12036e-08 2.96366e-06 4.80568e-06 -2.19037e-06 -9.83322e-06)
(4.89742e-06 -1.3184e-07 2.12169e-06 4.89334e-06 -2.13163e-06 -9.79076e-06)
(4.97073e-06 -7.41921e-08 1.28092e-06 4.85113e-06 -2.0893e-06 -9.82187e-06)
(4.949e-06 -2.49525e-08 4.24792e-07 4.86343e-06 -2.06917e-06 -9.81243e-06)
(4.9476e-06 2.51124e-08 -4.31184e-07 4.8643e-06 -2.06846e-06 -9.81189e-06)
(4.96732e-06 7.46309e-08 -1.28771e-06 4.85317e-06 -2.08706e-06 -9.82049e-06)
(4.8949e-06 1.31579e-07 -2.12899e-06 4.8947e-06 -2.12798e-06 -9.7896e-06)
(5.02816e-06 5.98262e-08 -2.97077e-06 4.80547e-06 -2.18539e-06 -9.83363e-06)
(4.87046e-06 -3.15962e-08 -3.89405e-06 5.10271e-06 -2.25168e-06 -9.97317e-06)
(3.69324e-06 -1.11952e-06 4.0833e-06 6.29571e-06 -3.18576e-06 -9.98895e-06)
(4.86996e-06 -4.98477e-07 3.04595e-06 4.87011e-06 -3.05569e-06 -9.74007e-06)
(4.8135e-06 -6.0356e-08 2.18304e-06 5.03447e-06 -2.97664e-06 -9.84797e-06)
(4.9766e-06 -1.46504e-08 1.31136e-06 4.89342e-06 -2.93669e-06 -9.87002e-06)
(4.96947e-06 3.208e-09 4.3437e-07 4.88212e-06 -2.91347e-06 -9.8516e-06)
(4.9682e-06 -2.45029e-09 -4.39252e-07 4.88254e-06 -2.91284e-06 -9.85075e-06)
(4.97355e-06 1.52509e-08 -1.31663e-06 4.89432e-06 -2.93482e-06 -9.86787e-06)
(4.81091e-06 6.04826e-08 -2.18906e-06 5.03493e-06 -2.97343e-06 -9.84585e-06)
(4.86942e-06 4.97034e-07 -3.05228e-06 4.87047e-06 -3.05129e-06 -9.73988e-06)
(3.69608e-06 1.11785e-06 -4.08689e-06 6.29541e-06 -3.18027e-06 -9.99149e-06)
(5.15107e-06 9.82315e-07 4.53101e-06 5.14301e-06 -4.53884e-06 -1.02941e-05)
(6.29833e-06 -1.11696e-06 3.17734e-06 3.69866e-06 -4.09094e-06 -9.99699e-06)
(5.1047e-06 3.18633e-08 2.24805e-06 4.8731e-06 -3.89528e-06 -9.9778e-06)
(4.9316e-06 -2.50514e-07 1.34141e-06 4.93395e-06 -3.81662e-06 -9.86556e-06)
(4.84163e-06 -6.73739e-08 4.47905e-07 5.00601e-06 -3.75555e-06 -9.84764e-06)
(4.84082e-06 6.61217e-08 -4.51623e-07 5.00566e-06 -3.75523e-06 -9.84648e-06)
(4.92953e-06 2.49728e-07 -1.34545e-06 4.93283e-06 -3.81558e-06 -9.86236e-06)
(5.1027e-06 -3.11339e-08 -2.25279e-06 4.87122e-06 -3.89344e-06 -9.97392e-06)
(6.29757e-06 1.11835e-06 -3.18276e-06 3.69751e-06 -4.08784e-06 -9.99508e-06)
(5.14809e-06 -9.83246e-07 -4.53432e-06 5.14862e-06 -4.53348e-06 -1.02967e-05)
(3.50638e-06 1.71622e-07 4.2121e-06 3.49499e-06 4.2153e-06 -7.00137e-06)
(3.75962e-06 3.3109e-07 2.88487e-06 2.9888e-06 3.7609e-06 -6.74842e-06)
(3.21706e-06 -2.54707e-07 2.06376e-06 3.66595e-06 3.69257e-06 -6.88301e-06)
(3.11724e-06 7.18967e-08 1.22868e-06 3.56137e-06 3.63891e-06 -6.67861e-06)
(3.04939e-06 -2.94667e-08 4.06494e-07 3.61472e-06 3.59257e-06 -6.6641e-06)
(3.0993e-06 3.77978e-08 -4.14796e-07 3.57978e-06 3.59279e-06 -6.67908e-06)
(3.16483e-06 -6.36148e-08 -1.2306e-06 3.49548e-06 3.63938e-06 -6.66032e-06)
(3.24303e-06 3.28809e-07 -2.07025e-06 3.51269e-06 3.69253e-06 -6.75572e-06)
(3.72626e-06 -2.22088e-07 -2.95233e-06 2.86447e-06 3.7715e-06 -6.59073e-06)
(3.4522e-06 -1.82242e-07 -4.22235e-06 3.45031e-06 4.21884e-06 -6.90251e-06)
(2.96563e-06 3.60957e-07 3.76059e-06 3.74481e-06 2.88462e-06 -6.71044e-06)
(3.24378e-06 1.40702e-07 2.8294e-06 3.23076e-06 2.83084e-06 -6.47454e-06)
(3.23731e-06 -1.62571e-07 2.0464e-06 3.45773e-06 2.79586e-06 -6.69504e-06)
(3.30509e-06 -1.17424e-07 1.2226e-06 3.41974e-06 2.78135e-06 -6.72483e-06)
(3.29464e-06 -4.47587e-08 4.03047e-07 3.46545e-06 2.77202e-06 -6.76009e-06)
(3.31002e-06 2.34761e-08 -4.10674e-07 3.45592e-06 2.77246e-06 -6.76595e-06)
(3.33661e-06 3.94791e-08 -1.22893e-06 3.40022e-06 2.78512e-06 -6.73682e-06)
(3.23794e-06 1.1666e-07 -2.05427e-06 3.44887e-06 2.79973e-06 -6.68681e-06)
(3.19798e-06 -9.03338e-08 -2.84075e-06 3.20019e-06 2.83615e-06 -6.39818e-06)
(2.8654e-06 -2.22431e-07 -3.77223e-06 3.72511e-06 2.94591e-06 -6.59052e-06)
(3.64055e-06 -2.42902e-07 3.69579e-06 3.21609e-06 2.05813e-06 -6.85664e-06)
(3.46947e-06 -1.40423e-07 2.80141e-06 3.22212e-06 2.04687e-06 -6.69159e-06)
(3.37791e-06 -9.32672e-08 2.00402e-06 3.36161e-06 2.00165e-06 -6.73953e-06)
(3.40807e-06 -3.97554e-08 1.20417e-06 3.39618e-06 1.97382e-06 -6.80426e-06)
(3.36126e-06 -1.07431e-08 3.97955e-07 3.44747e-06 1.96186e-06 -6.80874e-06)
(3.36455e-06 -8.12423e-09 -4.02567e-07 3.44611e-06 1.96275e-06 -6.81067e-06)
(3.40969e-06 -1.16429e-09 -1.2078e-06 3.39822e-06 1.97753e-06 -6.80791e-06)
(3.37861e-06 2.32443e-08 -2.00987e-06 3.38754e-06 2.00535e-06 -6.76615e-06)
(3.43895e-06 1.16734e-07 -2.79995e-06 3.24025e-06 2.04658e-06 -6.6792e-06)
(3.51299e-06 3.23819e-07 -3.69474e-06 3.24835e-06 2.06551e-06 -6.76134e-06)
(3.54553e-06 6.74474e-08 3.6392e-06 3.1326e-06 1.22746e-06 -6.67813e-06)
(3.41687e-06 -1.05654e-07 2.78351e-06 3.30425e-06 1.22142e-06 -6.72112e-06)
(3.40455e-06 -3.34574e-08 1.97688e-06 3.3997e-06 1.20251e-06 -6.80426e-06)
(3.43347e-06 -4.38123e-08 1.18474e-06 3.42751e-06 1.18246e-06 -6.86098e-06)
(3.4056e-06 -1.86474e-08 3.92092e-07 3.45692e-06 1.17333e-06 -6.86252e-06)
(3.40439e-06 -4.37636e-10 -3.95552e-07 3.45842e-06 1.174e-06 -6.86281e-06)
(3.42428e-06 1.57541e-08 -1.18809e-06 3.43394e-06 1.18387e-06 -6.85822e-06)
(3.38793e-06 5.08747e-10 -1.98166e-06 3.41922e-06 1.20327e-06 -6.80714e-06)
(3.39208e-06 4.18978e-08 -2.78913e-06 3.34618e-06 1.22425e-06 -6.73826e-06)
(3.49135e-06 -7.01283e-08 -3.64233e-06 3.17519e-06 1.22658e-06 -6.66654e-06)
(3.60894e-06 -3.82782e-08 3.59227e-06 3.05906e-06 4.07906e-07 -6.668e-06)
(3.46216e-06 -4.39927e-08 2.77263e-06 3.29939e-06 4.0352e-07 -6.76155e-06)
(3.45028e-06 -8.87192e-09 1.96346e-06 3.35975e-06 3.97497e-07 -6.81003e-06)
(3.46082e-06 -1.87381e-08 1.17547e-06 3.40409e-06 3.90908e-07 -6.86491e-06)
(3.44084e-06 -1.08469e-08 3.8992e-07 3.44008e-06 3.88549e-07 -6.88092e-06)
(3.43725e-06 -3.33959e-09 -3.92593e-07 3.44275e-06 3.88897e-07 -6.87999e-06)
(3.44938e-06 2.83486e-09 -1.17813e-06 3.41312e-06 3.91809e-07 -6.86249e-06)
(3.4355e-06 -3.52057e-09 -1.96757e-06 3.37763e-06 3.98654e-07 -6.81313e-06)
(3.44382e-06 2.94687e-08 -2.77683e-06 3.32562e-06 4.06241e-07 -6.76944e-06)
(3.56541e-06 3.24532e-08 -3.59564e-06 3.11942e-06 4.11028e-07 -6.68483e-06)
(3.57927e-06 3.42513e-08 3.59151e-06 3.10153e-06 -4.13124e-07 -6.68079e-06)
(3.45479e-06 2.23454e-08 2.77241e-06 3.31265e-06 -4.09639e-07 -6.76744e-06)
(3.44817e-06 -7.62618e-09 1.96368e-06 3.36455e-06 -4.02122e-07 -6.81273e-06)
(3.46e-06 -5.62029e-10 1.17527e-06 3.4039e-06 -3.95701e-07 -6.8639e-06)
(3.44245e-06 -3.51371e-09 3.90142e-07 3.43854e-06 -3.93149e-07 -6.88099e-06)
(3.43906e-06 -4.5443e-09 -3.92251e-07 3.44116e-06 -3.92862e-07 -6.88023e-06)
(3.45034e-06 -6.90761e-09 -1.1778e-06 3.4122e-06 -3.95092e-07 -6.86254e-06)
(3.43591e-06 1.70935e-09 -1.96723e-06 3.37721e-06 -4.01231e-07 -6.81313e-06)
(3.44371e-06 -3.05103e-08 -2.77654e-06 3.32555e-06 -4.08182e-07 -6.76926e-06)
(3.56519e-06 -3.48544e-08 -3.59551e-06 3.11948e-06 -4.12387e-07 -6.68467e-06)
(3.49545e-06 -6.60058e-08 3.63817e-06 3.16599e-06 -1.22859e-06 -6.66144e-06)
(3.39977e-06 3.84098e-08 2.78406e-06 3.33763e-06 -1.22706e-06 -6.7374e-06)
(3.39975e-06 -1.41548e-09 1.97741e-06 3.40896e-06 -1.2064e-06 -6.80871e-06)
(3.43584e-06 1.55366e-08 1.18487e-06 3.42471e-06 -1.18743e-06 -6.86055e-06)
(3.41318e-06 2.90066e-09 3.92827e-07 3.45163e-06 -1.17801e-06 -6.86481e-06)
(3.41011e-06 -6.82946e-09 -3.94596e-07 3.45387e-06 -1.17785e-06 -6.86398e-06)
(3.42752e-06 -1.89702e-08 -1.18708e-06 3.43108e-06 -1.18701e-06 -6.8586e-06)
(3.38942e-06 -1.7969e-09 -1.98072e-06 3.41764e-06 -1.20574e-06 -6.80706e-06)
(3.39171e-06 -4.26597e-08 -2.7883e-06 3.34583e-06 -1.22611e-06 -6.73754e-06)
(3.49079e-06 6.74882e-08 -3.64193e-06 3.17513e-06 -1.22798e-06 -6.66592e-06)
(3.51268e-06 3.27837e-07 3.69049e-06 3.24266e-06 -2.06794e-06 -6.75534e-06)
(3.44484e-06 1.15643e-07 2.79456e-06 3.23293e-06 -2.04946e-06 -6.67777e-06)
(3.39045e-06 2.3309e-08 2.00537e-06 3.37803e-06 -2.00837e-06 -6.76848e-06)
(3.42195e-06 8.85734e-10 1.20416e-06 3.38908e-06 -1.98096e-06 -6.81104e-06)
(3.37725e-06 -3.11627e-09 3.99363e-07 3.43743e-06 -1.96669e-06 -6.81468e-06)
(3.37467e-06 2.2698e-09 -4.00866e-07 3.43914e-06 -1.96659e-06 -6.81381e-06)
(3.41456e-06 -1.35979e-09 -1.20612e-06 3.39414e-06 -1.98058e-06 -6.8087e-06)
(3.3808e-06 -2.39384e-08 -2.0083e-06 3.38507e-06 -2.00773e-06 -6.76587e-06)
(3.43812e-06 -1.1683e-07 -2.79864e-06 3.23969e-06 -2.04845e-06 -6.6778e-06)
(3.51169e-06 -3.24983e-07 -3.69422e-06 3.24829e-06 -2.06695e-06 -6.75998e-06)
(2.86371e-06 -2.22811e-07 3.76828e-06 3.72281e-06 -2.94927e-06 -6.58652e-06)
(3.20168e-06 -9.04571e-08 2.83526e-06 3.19788e-06 -2.83933e-06 -6.39956e-06)
(3.24815e-06 1.17964e-07 2.04969e-06 3.44443e-06 -2.80277e-06 -6.69258e-06)