/*--------------------------------*- C++ -*----------------------------------*\
| =========                 |                                                 |
| \\      /  F ield         | OpenFOAM: The Open Source CFD Toolbox           |
|  \\    /   O peration     | Version:  2406                                  |
|   \\  /    A nd           | Website:  www.openfoam.com                      |
|    \\/     M anipulation  |                                                 |
\*---------------------------------------------------------------------------*/
FoamFile
{
    version     2.0;
    format      ascii;
    arch        "LSB;label=32;scalar=64";
    class       volScalarField;
    location    "450";
    object      turbulenceProperties:nut;
}
// * * * * * * * * * * * * * * * * * * * * * * * * * * * * * * * * * * * * * //

dimensions      [0 2 -1 0 0 0 0];

internalField   nonuniform List<scalar> 
25000
(
5.88716e-06
5.9284e-06
5.95432e-06
5.96718e-06
5.97281e-06
5.97281e-06
5.96719e-06
5.9545e-06
5.93058e-06
5.88721e-06
5.93048e-06
5.9674e-06
5.98827e-06
5.99984e-06
6.00547e-06
6.00547e-06
5.99999e-06
5.99343e-06
5.96747e-06
5.92851e-06
5.95446e-06
5.99338e-06
6.01086e-06
6.01852e-06
6.02378e-06
6.02381e-06
6.01921e-06
6.0109e-06
5.98832e-06
5.95436e-06
5.96717e-06
5.99996e-06
6.01919e-06
6.02997e-06
6.03447e-06
6.03491e-06
6.03e-06
6.01855e-06
5.99987e-06
5.9672e-06
5.97281e-06
6.00546e-06
6.0238e-06
6.0349e-06
6.04155e-06
6.04156e-06
6.03448e-06
6.0238e-06
6.00548e-06
5.97282e-06
5.97281e-06
6.00547e-06
6.02379e-06
6.03448e-06
6.04156e-06
6.04157e-06
6.03448e-06
6.0238e-06
6.00548e-06
5.97282e-06
5.9672e-06
5.99987e-06
6.01854e-06
6.02999e-06
6.03492e-06
6.03492e-06
6.03e-06
6.01855e-06
5.99987e-06
5.9672e-06
5.95436e-06
5.98831e-06
6.0109e-06
6.01921e-06
6.02381e-06
6.02381e-06
6.01921e-06
6.0109e-06
5.98832e-06
5.95436e-06
5.92851e-06
5.96747e-06
5.99343e-06
5.99998e-06
6.00548e-06
6.00548e-06
5.99999e-06
5.99343e-06
5.96747e-06
5.92851e-06
5.88721e-06
5.93058e-06
5.9545e-06
5.96719e-06
5.97282e-06
5.97282e-06
5.96719e-06
5.9545e-06
5.93058e-06
5.88721e-06
5.52552e-06
5.65211e-06
5.72855e-06
5.7675e-06
5.78451e-06
5.78451e-06
5.7675e-06
5.72937e-06
5.65735e-06
5.52553e-06
5.65722e-06
5.76881e-06
5.83098e-06
5.86531e-06
5.88188e-06
5.8819e-06
5.86611e-06
5.84425e-06
5.76892e-06
5.65225e-06
5.72932e-06
5.84418e-06
5.89742e-06
5.92122e-06
5.93658e-06
5.93671e-06
5.9231e-06
5.89748e-06
5.83104e-06
5.72859e-06
5.76748e-06
5.86607e-06
5.92305e-06
5.95495e-06
5.96862e-06
5.96977e-06
5.95499e-06
5.92127e-06
5.86534e-06
5.76751e-06
5.7845e-06
5.88188e-06
5.93668e-06
5.96974e-06
5.98924e-06
5.98927e-06
5.96861e-06
5.9366e-06
5.8819e-06
5.78451e-06
5.78451e-06
5.88189e-06
5.93659e-06
5.96863e-06
5.98926e-06
5.98928e-06
5.96861e-06
5.9366e-06
5.8819e-06
5.78451e-06
5.76751e-06
5.86534e-06
5.92126e-06
5.95498e-06
5.96981e-06
5.96982e-06
5.95499e-06
5.92127e-06
5.86534e-06
5.76751e-06
5.72859e-06
5.83104e-06
5.89748e-06
5.9231e-06
5.93672e-06
5.93672e-06
5.9231e-06
5.89748e-06
5.83104e-06
5.72859e-06
5.65225e-06
5.76892e-06
5.84425e-06
5.86611e-06
5.8819e-06
5.8819e-06
5.86611e-06
5.84425e-06
5.76892e-06
5.65225e-06
5.52553e-06
5.65735e-06
5.72937e-06
5.7675e-06
5.78451e-06
5.78451e-06
5.7675e-06
5.72937e-06
5.65735e-06
5.52553e-06
5.17411e-06
5.383e-06
5.50731e-06
5.57182e-06
5.60003e-06
5.60003e-06
5.57186e-06
5.50899e-06
5.39035e-06
5.17398e-06
5.3902e-06
5.5745e-06
5.67673e-06
5.73305e-06
5.76014e-06
5.76019e-06
5.73474e-06
5.69614e-06
5.57462e-06
5.38312e-06
5.50894e-06
5.69607e-06
5.785e-06
5.82549e-06
5.85045e-06
5.85071e-06
5.82835e-06
5.78506e-06
5.67678e-06
5.50735e-06
5.57185e-06
5.7347e-06
5.82831e-06
5.88065e-06
5.90354e-06
5.90522e-06
5.88069e-06
5.82553e-06
5.73308e-06
5.57183e-06
5.60002e-06
5.76018e-06
5.85068e-06
5.9052e-06
5.93695e-06
5.93697e-06
5.90347e-06
5.85045e-06
5.76015e-06
5.60003e-06
5.60003e-06
5.76014e-06
5.85045e-06
5.90354e-06
5.93697e-06
5.93698e-06
5.90347e-06
5.85045e-06
5.76015e-06
5.60003e-06
5.57183e-06
5.73307e-06
5.82552e-06
5.88069e-06
5.90532e-06
5.90533e-06
5.88069e-06
5.82553e-06
5.73308e-06
5.57183e-06
5.50735e-06
5.67678e-06
5.78505e-06
5.82835e-06
5.85073e-06
5.85073e-06
5.82836e-06
5.78506e-06
5.67678e-06
5.50735e-06
5.38312e-06
5.57462e-06
5.69614e-06
5.73474e-06
5.7602e-06
5.7602e-06
5.73474e-06
5.69614e-06
5.57462e-06
5.38312e-06
5.17399e-06
5.39034e-06
5.50899e-06
5.57186e-06
5.60003e-06
5.60003e-06
5.57186e-06
5.50899e-06
5.39035e-06
5.17399e-06
4.83959e-06
5.12307e-06
5.29207e-06
5.3811e-06
5.42011e-06
5.42011e-06
5.38125e-06
5.29473e-06
5.13195e-06
4.8394e-06
5.13178e-06
5.38509e-06
5.52581e-06
5.6033e-06
5.64045e-06
5.64058e-06
5.60597e-06
5.54993e-06
5.38528e-06
5.12322e-06
5.29465e-06
5.54984e-06
5.67382e-06
5.73128e-06
5.76541e-06
5.76584e-06
5.73499e-06
5.67389e-06
5.52588e-06
5.29213e-06
5.38123e-06
5.60592e-06
5.73493e-06
5.80709e-06
5.83912e-06
5.84123e-06
5.80712e-06
5.73132e-06
5.60332e-06
5.38112e-06
5.42011e-06
5.64056e-06
5.76581e-06
5.8412e-06
5.88463e-06
5.88465e-06
5.83898e-06
5.7654e-06
5.64045e-06
5.42012e-06
5.42012e-06
5.64045e-06
5.76541e-06
5.83912e-06
5.88466e-06
5.88466e-06
5.83898e-06
5.7654e-06
5.64046e-06
5.42013e-06
5.38112e-06
5.60332e-06
5.73132e-06
5.80714e-06
5.8414e-06
5.8414e-06
5.80714e-06
5.73133e-06
5.60333e-06
5.38112e-06
5.29214e-06
5.52588e-06
5.67389e-06
5.73499e-06
5.76588e-06
5.76588e-06
5.735e-06
5.6739e-06
5.52589e-06
5.29214e-06
5.12323e-06
5.38528e-06
5.54994e-06
5.60598e-06
5.64059e-06
5.64059e-06
5.60598e-06
5.54994e-06
5.38528e-06
5.12323e-06
4.83942e-06
5.13197e-06
5.29474e-06
5.38126e-06
5.42012e-06
5.42012e-06
5.38126e-06
5.29474e-06
5.13196e-06
4.83941e-06
4.52558e-06
4.87358e-06
5.08372e-06
5.19592e-06
5.24521e-06
5.24522e-06
5.19622e-06
5.0874e-06
4.88365e-06
4.52552e-06
4.88338e-06
5.20082e-06
5.37824e-06
5.47605e-06
5.52283e-06
5.52308e-06
5.47973e-06
5.40605e-06
5.20115e-06
4.87383e-06
5.08725e-06
5.40587e-06
5.56393e-06
5.63843e-06
5.68139e-06
5.68201e-06
5.64289e-06
5.56406e-06
5.37838e-06
5.08386e-06
5.19619e-06
5.47964e-06
5.6428e-06
5.73417e-06
5.77523e-06
5.77768e-06
5.73423e-06
5.63851e-06
5.47611e-06
5.19597e-06
5.24522e-06
5.52304e-06
5.68196e-06
5.77764e-06
5.83222e-06
5.83224e-06
5.77503e-06
5.68136e-06
5.52284e-06
5.24524e-06
5.24523e-06
5.52283e-06
5.68139e-06
5.77524e-06
5.83226e-06
5.83226e-06
5.77503e-06
5.68137e-06
5.52284e-06
5.24524e-06
5.19596e-06
5.4761e-06
5.6385e-06
5.73425e-06
5.77793e-06
5.77793e-06
5.73425e-06
5.63851e-06
5.47611e-06
5.19597e-06
5.08386e-06
5.37839e-06
5.56406e-06
5.6429e-06
5.68208e-06
5.68208e-06
5.6429e-06
5.56407e-06
5.37839e-06
5.08386e-06
4.87384e-06
5.20116e-06
5.40606e-06
5.47975e-06
5.52311e-06
5.52311e-06
5.47975e-06
5.40606e-06
5.20116e-06
4.87384e-06
4.52554e-06
4.88368e-06
5.08742e-06
5.19626e-06
5.24526e-06
5.24525e-06
5.19625e-06
5.08742e-06
4.88367e-06
4.52553e-06
4.23172e-06
4.63445e-06
4.88219e-06
5.01615e-06
5.07523e-06
5.07527e-06
5.01668e-06
4.88687e-06
4.6454e-06
4.23184e-06
4.64502e-06
5.02146e-06
5.2338e-06
5.35116e-06
5.40718e-06
5.40757e-06
5.35584e-06
5.2645e-06
5.02197e-06
4.6348e-06
4.88663e-06
5.26419e-06
5.45527e-06
5.54678e-06
5.59828e-06
5.59909e-06
5.55191e-06
5.45549e-06
5.23406e-06
4.88241e-06
5.01661e-06
5.35569e-06
5.55175e-06
5.66181e-06
5.71175e-06
5.71448e-06
5.6619e-06
5.5469e-06
5.35127e-06
5.01624e-06
5.07526e-06
5.40751e-06
5.59902e-06
5.71441e-06
5.77968e-06
5.77971e-06
5.7115e-06
5.59824e-06
5.4072e-06
5.07528e-06
5.07526e-06
5.40719e-06
5.59828e-06
5.71177e-06
5.77974e-06
5.77974e-06
5.7115e-06
5.59825e-06
5.4072e-06
5.07528e-06
5.01623e-06
5.35126e-06
5.54689e-06
5.66193e-06
5.71481e-06
5.71481e-06
5.66193e-06
5.54691e-06
5.35128e-06
5.01625e-06
4.8824e-06
5.23406e-06
5.45549e-06
5.55192e-06
5.59921e-06
5.59921e-06
5.55193e-06
5.4555e-06
5.23406e-06
4.88242e-06
4.63479e-06
5.02198e-06
5.26451e-06
5.35586e-06
5.40763e-06
5.40763e-06
5.35586e-06
5.26451e-06
5.02198e-06
4.63481e-06
4.23185e-06
4.64542e-06
4.8869e-06
5.01673e-06
5.07532e-06
5.07532e-06
5.01672e-06
4.8869e-06
4.64542e-06
4.23186e-06
3.95561e-06
4.40467e-06
4.68658e-06
4.84098e-06
4.90939e-06
4.90946e-06
4.84174e-06
4.69214e-06
4.41617e-06
3.95583e-06
4.41573e-06
4.84635e-06
5.092e-06
5.22826e-06
5.29319e-06
5.29375e-06
5.23389e-06
5.12489e-06
4.84703e-06
4.40505e-06
4.69183e-06
5.12444e-06
5.3476e-06
5.4561e-06
5.51591e-06
5.51693e-06
5.46182e-06
5.34793e-06
5.09237e-06
4.68683e-06
4.84163e-06
5.23366e-06
5.46159e-06
5.58988e-06
5.64857e-06
5.65153e-06
5.59002e-06
5.45628e-06
5.22842e-06
4.84108e-06
4.90943e-06
5.29366e-06
5.51681e-06
5.65143e-06
5.72698e-06
5.72702e-06
5.64828e-06
5.51586e-06
5.29321e-06
4.90944e-06
4.90941e-06
5.2932e-06
5.51592e-06
5.6486e-06
5.72706e-06
5.72707e-06
5.64829e-06
5.51586e-06
5.29321e-06
4.90944e-06
4.84106e-06
5.22841e-06
5.45626e-06
5.59006e-06
5.65194e-06
5.65195e-06
5.59006e-06
5.45628e-06
5.22843e-06
4.84108e-06
4.68682e-06
5.09237e-06
5.34793e-06
5.46184e-06
5.51709e-06
5.51709e-06
5.46185e-06
5.34794e-06
5.09238e-06
4.68684e-06
4.40504e-06
4.84704e-06
5.12491e-06
5.23392e-06
5.29384e-06
5.29383e-06
5.23392e-06
5.12491e-06
4.84704e-06
4.40506e-06
3.95583e-06
4.41619e-06
4.69218e-06
4.84179e-06
4.90951e-06
4.90951e-06
4.84178e-06
4.69216e-06
4.41618e-06
3.95583e-06
3.69643e-06
4.18381e-06
4.4963e-06
4.66978e-06
4.74709e-06
4.7472e-06
4.67081e-06
4.50267e-06
4.19565e-06
3.69671e-06
4.19515e-06
4.67512e-06
4.95251e-06
5.10707e-06
5.18062e-06
5.18135e-06
5.1136e-06
4.98701e-06
4.67595e-06
4.18421e-06
4.50228e-06
4.98642e-06
5.24081e-06
5.36623e-06
5.43417e-06
5.43538e-06
5.37248e-06
5.24125e-06
4.953e-06
4.49659e-06
4.67064e-06
5.11328e-06
5.37218e-06
5.51833e-06
5.58565e-06
5.58879e-06
5.51851e-06
5.36646e-06
5.10728e-06
4.6699e-06
4.74715e-06
5.18122e-06
5.43522e-06
5.58866e-06
5.67414e-06
5.6742e-06
5.58531e-06
5.4341e-06
5.18062e-06
4.74713e-06
4.7471e-06
5.18062e-06
5.43418e-06
5.58568e-06
5.67425e-06
5.67427e-06
5.58532e-06
5.4341e-06
5.18062e-06
4.74713e-06
4.66987e-06
5.10726e-06
5.36644e-06
5.51857e-06
5.58928e-06
5.5893e-06
5.51857e-06
5.36647e-06
5.10728e-06
4.66989e-06
4.49657e-06
4.95299e-06
5.24124e-06
5.37251e-06
5.4356e-06
5.4356e-06
5.37252e-06
5.24125e-06
4.953e-06
4.49659e-06
4.18419e-06
4.67595e-06
4.98701e-06
5.11362e-06
5.18146e-06
5.18146e-06
5.11362e-06
4.98701e-06
4.67596e-06
4.18421e-06
3.69668e-06
4.19563e-06
4.50268e-06
4.67084e-06
4.74725e-06
4.74724e-06
4.67083e-06
4.50267e-06
4.19564e-06
3.6967e-06
3.45523e-06
3.97235e-06
4.31156e-06
4.5026e-06
4.58828e-06
4.58843e-06
4.50389e-06
4.31859e-06
3.98429e-06
3.45547e-06
3.98379e-06
4.50786e-06
4.81528e-06
4.98752e-06
5.0694e-06
5.07031e-06
4.99487e-06
4.85089e-06
4.50879e-06
3.97271e-06
4.31815e-06
4.85019e-06
5.1349e-06
5.27713e-06
5.35304e-06
5.35444e-06
5.28386e-06
5.13545e-06
4.81587e-06
4.31185e-06
4.50368e-06
4.99447e-06
5.28348e-06
5.44715e-06
5.52297e-06
5.52625e-06
5.44738e-06
5.27742e-06
4.98777e-06
4.50271e-06
4.58835e-06
5.07014e-06
5.35424e-06
5.52608e-06
5.6212e-06
5.62126e-06
5.52258e-06
5.35295e-06
5.06938e-06
4.58831e-06
4.58827e-06
5.0694e-06
5.35304e-06
5.52301e-06
5.62133e-06
5.62135e-06
5.5226e-06
5.35295e-06
5.06938e-06
4.58831e-06
4.50268e-06
4.98774e-06
5.27739e-06
5.44745e-06
5.52682e-06
5.52684e-06
5.44745e-06
5.27743e-06
4.98777e-06
4.50271e-06
4.31183e-06
4.81585e-06
5.13543e-06
5.28389e-06
5.35471e-06
5.35472e-06
5.2839e-06
5.13545e-06
4.81587e-06
4.31185e-06
3.97269e-06
4.50878e-06
4.85089e-06
4.99489e-06
5.07045e-06
5.07045e-06
4.99489e-06
4.85089e-06
4.50879e-06
3.97271e-06
3.45543e-06
3.98426e-06
4.31859e-06
4.50391e-06
4.58848e-06
4.58847e-06
4.5039e-06
4.31859e-06
3.98428e-06
3.45545e-06
3.2344e-06
3.7712e-06
4.1329e-06
4.33978e-06
4.43323e-06
4.43343e-06
4.34134e-06
4.14048e-06
3.78312e-06
3.23459e-06
3.78263e-06
4.3449e-06
4.68045e-06
4.86966e-06
4.95958e-06
4.96066e-06
4.87774e-06
4.71678e-06
4.34589e-06
3.77152e-06
4.14001e-06
4.71598e-06
5.02999e-06
5.18882e-06
5.27253e-06
5.27412e-06
5.19598e-06
5.03062e-06
4.68111e-06
4.13319e-06
4.3411e-06
4.87728e-06
5.19552e-06
5.37638e-06
5.46054e-06
5.46394e-06
5.37665e-06
5.18916e-06
4.86994e-06
4.33989e-06
4.43334e-06
4.96046e-06
5.27388e-06
5.46374e-06
5.56819e-06
5.56826e-06
5.46011e-06
5.27241e-06
4.95953e-06
4.43324e-06
4.43322e-06
4.95957e-06
5.27254e-06
5.46059e-06
5.56835e-06
5.56837e-06
5.46013e-06
5.27241e-06
4.95953e-06
4.43323e-06
4.33987e-06
4.86992e-06
5.18914e-06
5.37673e-06
5.46458e-06
5.4646e-06
5.37673e-06
5.18917e-06
4.86994e-06
4.33989e-06
4.13317e-06
4.68109e-06
5.03061e-06
5.19601e-06
5.27444e-06
5.27445e-06
5.19602e-06
5.03063e-06
4.6811e-06
4.13318e-06
3.77149e-06
4.34588e-06
4.71677e-06
4.87776e-06
4.96083e-06
4.96083e-06
4.87776e-06
4.71677e-06
4.34588e-06
3.77151e-06
3.23454e-06
3.78307e-06
4.14046e-06
4.34134e-06
4.43347e-06
4.43347e-06
4.34134e-06
4.14046e-06
3.78309e-06
3.23456e-06
3.037e-06
3.58148e-06
3.96098e-06
4.1818e-06
4.28232e-06
4.28257e-06
4.18361e-06
3.969e-06
3.59327e-06
3.03713e-06
3.59282e-06
4.18663e-06
4.54818e-06
4.75358e-06
4.85122e-06
4.85247e-06
4.76231e-06
4.58491e-06
4.18766e-06
3.58175e-06
3.96852e-06
4.58404e-06
4.92618e-06
5.10134e-06
5.19269e-06
5.19444e-06
5.10886e-06
4.92688e-06
4.54889e-06
3.96126e-06
4.18336e-06
4.7618e-06
5.10835e-06
5.30603e-06
5.39838e-06
5.40187e-06
5.30633e-06
5.10172e-06
4.75389e-06
4.18191e-06
4.28247e-06
4.85225e-06
5.19417e-06
5.40165e-06
5.51516e-06
5.51523e-06
5.39791e-06
5.19253e-06
4.85114e-06
4.2823e-06
4.2823e-06
4.85122e-06
5.1927e-06
5.39844e-06
5.51534e-06
5.51536e-06
5.39793e-06
5.19253e-06
4.85114e-06
4.2823e-06
4.1819e-06
4.75387e-06
5.1017e-06
5.30644e-06
5.40259e-06
5.40261e-06
5.30642e-06
5.10173e-06
4.75388e-06
4.1819e-06
3.96125e-06
4.54888e-06
4.92687e-06
5.1089e-06
5.19483e-06
5.19483e-06
5.10892e-06
4.92688e-06
4.54888e-06
3.96125e-06
3.58173e-06
4.18765e-06
4.5849e-06
4.76233e-06
4.85268e-06
4.85268e-06
4.76233e-06
4.5849e-06
4.18764e-06
3.58173e-06
3.03709e-06
3.59324e-06
3.96898e-06
4.18361e-06
4.28261e-06
4.28261e-06
4.1836e-06
3.96897e-06
3.59323e-06
3.03709e-06
2.86869e-06
3.40483e-06
3.79657e-06
4.02918e-06
4.13597e-06
4.13627e-06
4.03123e-06
3.80494e-06
3.41645e-06
2.86875e-06
3.41604e-06
4.03356e-06
4.41867e-06
4.63939e-06
4.74442e-06
4.74584e-06
4.64868e-06
4.45556e-06
4.0346e-06
3.40507e-06
3.80447e-06
4.45465e-06
4.82357e-06
5.01472e-06
5.11354e-06
5.11544e-06
5.02256e-06
4.82434e-06
4.41941e-06
3.79684e-06
4.03097e-06
4.64813e-06
5.022e-06
5.23613e-06
5.3365e-06
5.34006e-06
5.23645e-06
5.01513e-06
4.63973e-06
4.02929e-06
4.13617e-06
4.7456e-06
5.11515e-06
5.33983e-06
5.46213e-06
5.4622e-06
5.33599e-06
5.11334e-06
4.74431e-06
4.13593e-06
4.13596e-06
4.74442e-06
5.11355e-06
5.33657e-06
5.46233e-06
5.46234e-06
5.33602e-06
5.11334e-06
4.74431e-06
4.13593e-06
4.02929e-06
4.63971e-06
5.01512e-06
5.23658e-06
5.34086e-06
5.34088e-06
5.23657e-06
5.01514e-06
4.63972e-06
4.02928e-06
3.79684e-06
4.41941e-06
4.82432e-06
5.02261e-06
5.11589e-06
5.1159e-06
5.02262e-06
4.82434e-06
4.41941e-06
3.79683e-06
3.40505e-06
4.03458e-06
4.45554e-06
4.64871e-06
4.74609e-06
4.74609e-06
4.6487e-06
4.45554e-06
4.03458e-06
3.40505e-06
2.86872e-06
3.41641e-06
3.80492e-06
4.03123e-06
4.13632e-06
4.13632e-06
4.03122e-06
3.80492e-06
3.41641e-06
2.86872e-06
2.7372e-06
3.2434e-06
3.64058e-06
3.88246e-06
3.99464e-06
3.99499e-06
3.88474e-06
3.64921e-06
3.2548e-06
2.73717e-06
3.25445e-06
3.88625e-06
4.29213e-06
4.52722e-06
4.63928e-06
4.64084e-06
4.53698e-06
4.32898e-06
3.88726e-06
3.2436e-06
3.64876e-06
4.32805e-06
4.72228e-06
4.929e-06
5.0351e-06
5.03714e-06
4.9371e-06
4.72308e-06
4.29289e-06
3.64084e-06
3.88448e-06
4.5364e-06
4.9365e-06
5.1667e-06
5.27493e-06
5.27854e-06
5.16704e-06
4.92942e-06
4.52756e-06
3.88257e-06
3.99489e-06
4.64059e-06
5.03683e-06
5.27829e-06
5.40913e-06
5.4092e-06
5.27438e-06
5.03485e-06
4.63912e-06
3.99458e-06
3.99462e-06
4.63927e-06
5.03511e-06
5.27501e-06
5.40935e-06
5.40935e-06
5.27441e-06
5.03485e-06
4.63912e-06
3.99458e-06
3.88257e-06
4.52756e-06
4.92942e-06
5.1672e-06
5.2794e-06
5.27943e-06
5.16717e-06
4.92943e-06
4.52756e-06
3.88256e-06
3.64083e-06
4.29289e-06
4.72307e-06
4.93716e-06
5.03765e-06
5.03766e-06
4.93718e-06
4.72308e-06
4.29289e-06
3.64083e-06
3.24358e-06
3.88725e-06
4.32897e-06
4.53701e-06
4.64115e-06
4.64115e-06
4.53701e-06
4.32897e-06
3.88725e-06
3.24358e-06
2.73715e-06
3.25477e-06
3.6492e-06
3.88474e-06
3.99506e-06
3.99506e-06
3.88474e-06
3.64919e-06
3.25478e-06
2.73715e-06
2.65841e-06
3.10097e-06
3.49426e-06
3.74232e-06
3.85882e-06
3.85923e-06
3.74481e-06
3.5031e-06
3.11216e-06
2.65827e-06
3.11185e-06
3.74544e-06
4.1688e-06
4.41716e-06
4.53586e-06
4.53757e-06
4.42731e-06
4.20545e-06
3.74642e-06
3.10113e-06
3.50268e-06
4.20452e-06
4.62238e-06
4.8442e-06
4.95739e-06
4.95956e-06
4.85251e-06
4.6232e-06
4.16956e-06
3.4945e-06
3.74455e-06
4.42672e-06
4.8519e-06
5.09776e-06
5.21367e-06
5.21732e-06
5.09811e-06
4.84463e-06
4.4175e-06
3.74242e-06
3.85913e-06
4.53731e-06
4.95924e-06
5.21706e-06
5.35618e-06
5.35624e-06
5.21307e-06
4.95709e-06
4.53566e-06
3.85874e-06
3.8588e-06
4.53586e-06
4.95741e-06
5.21375e-06
5.35642e-06
5.35641e-06
5.2131e-06
4.9571e-06
4.53566e-06
3.85874e-06
3.74244e-06
4.41751e-06
4.84464e-06
5.09829e-06
5.21824e-06
5.21826e-06
5.09825e-06
4.84464e-06
4.4175e-06
3.74242e-06
3.4945e-06
4.16956e-06
4.6232e-06
4.85259e-06
4.96014e-06
4.96015e-06
4.85261e-06
4.62321e-06
4.16955e-06
3.49449e-06
3.10112e-06
3.74641e-06
4.20544e-06
4.42735e-06
4.53792e-06
4.53792e-06
4.42735e-06
4.20544e-06
3.7464e-06
3.10111e-06
2.65826e-06
3.11213e-06
3.50308e-06
3.74481e-06
3.85931e-06
3.85931e-06
3.7448e-06
3.50307e-06
3.11213e-06
2.65825e-06
2.65463e-06
2.9831e-06
3.35944e-06
3.60968e-06
3.72918e-06
3.72965e-06
3.61235e-06
3.36842e-06
2.99407e-06
2.65432e-06
2.99382e-06
3.61219e-06
4.04895e-06
4.30933e-06
4.43425e-06
4.43609e-06
4.3198e-06
4.08527e-06
3.6131e-06
2.98321e-06
3.36804e-06
4.08437e-06
4.52397e-06
4.76035e-06
4.88044e-06
4.88271e-06
4.76884e-06
4.52479e-06
4.0497e-06
3.35966e-06
3.61211e-06
4.31921e-06
4.76822e-06
5.02932e-06
5.15272e-06
5.1564e-06
5.02966e-06
4.76077e-06
4.30967e-06
3.60977e-06
3.72955e-06
4.43584e-06
4.88239e-06
5.15614e-06
5.3033e-06
5.30335e-06
5.15208e-06
4.88008e-06
4.434e-06
3.72908e-06
3.72917e-06
4.43425e-06
4.88046e-06
5.15282e-06
5.30356e-06
5.30354e-06
5.15212e-06
4.88009e-06
4.434e-06
3.72908e-06
3.6098e-06
4.30969e-06
4.7608e-06
5.02988e-06
5.15738e-06
5.1574e-06
5.02982e-06
4.76079e-06
4.30966e-06
3.60976e-06
3.35967e-06
4.0497e-06
4.52479e-06
4.76894e-06
4.88336e-06
4.88337e-06
4.76894e-06
4.5248e-06
4.04969e-06
3.35965e-06
2.98321e-06
3.61309e-06
4.08526e-06
4.31984e-06
4.43649e-06
4.43649e-06
4.31984e-06
4.08526e-06
3.61308e-06
2.98319e-06
2.65433e-06
2.99405e-06
3.36841e-06
3.61235e-06
3.72974e-06
3.72974e-06
3.61234e-06
3.36839e-06
2.99405e-06
2.65431e-06
2.77273e-06
2.89949e-06
3.23929e-06
3.48591e-06
3.60667e-06
3.60719e-06
3.48875e-06
3.24838e-06
2.91031e-06
2.77229e-06
2.91008e-06
3.48814e-06
3.93296e-06
4.20387e-06
4.33454e-06
4.33649e-06
4.21459e-06
3.96886e-06
3.48899e-06
2.89954e-06
3.24803e-06
3.96799e-06
4.42713e-06
4.67747e-06
4.80425e-06
4.80662e-06
4.6861e-06
4.42795e-06
3.93368e-06
3.23947e-06
3.48853e-06
4.21402e-06
4.68548e-06
4.96138e-06
5.0921e-06
5.09579e-06
4.96171e-06
4.67788e-06
4.20419e-06
3.48599e-06
3.6071e-06
4.33624e-06
4.8063e-06
5.09554e-06
5.25051e-06
5.25055e-06
5.09141e-06
4.80384e-06
4.33424e-06
3.60655e-06
3.60666e-06
4.33454e-06
4.80428e-06
5.09221e-06
5.25079e-06
5.25076e-06
5.09146e-06
4.80384e-06
4.33424e-06
3.60654e-06
3.48602e-06
4.20423e-06
4.67793e-06
4.96196e-06
5.09684e-06
5.09685e-06
4.96189e-06
4.6779e-06
4.20419e-06
3.48599e-06
3.23949e-06
3.93369e-06
4.42795e-06
4.68621e-06
4.80733e-06
4.80734e-06
4.68622e-06
4.42796e-06
3.93367e-06
3.23948e-06
2.89956e-06
3.48898e-06
3.96886e-06
4.21465e-06
4.33694e-06
4.33694e-06
4.21465e-06
3.96885e-06
3.48897e-06
2.89952e-06
2.77231e-06
2.91029e-06
3.24836e-06
3.48875e-06
3.6073e-06
3.6073e-06
3.48874e-06
3.24834e-06
2.91029e-06
2.77227e-06
3.07882e-06
2.86571e-06
3.13861e-06
3.37329e-06
3.49278e-06
3.49335e-06
3.37628e-06
3.14778e-06
2.87648e-06
3.07819e-06
2.87625e-06
3.37581e-06
3.8214e-06
4.10096e-06
4.23682e-06
4.23888e-06
4.11188e-06
3.85683e-06
3.3766e-06
2.8657e-06
3.14747e-06
3.85599e-06
4.33198e-06
4.59559e-06
4.72883e-06
4.73129e-06
4.60433e-06
4.33278e-06
3.8221e-06
3.13876e-06
3.37607e-06
4.11132e-06
4.60371e-06
4.89395e-06
5.03182e-06
5.03551e-06
4.89428e-06
4.59599e-06
4.10127e-06
3.37336e-06
3.49327e-06
4.23864e-06
4.73097e-06
5.03526e-06
5.19782e-06
5.19785e-06
5.03108e-06
4.72836e-06
4.23647e-06
3.49264e-06
3.49278e-06
4.23683e-06
4.72887e-06
5.03193e-06
5.19811e-06
5.19807e-06
5.03113e-06
4.72837e-06
4.23647e-06
3.49264e-06
3.3734e-06
4.10132e-06
4.59606e-06
4.89455e-06
5.03661e-06
5.03662e-06
4.89447e-06
4.59601e-06
4.10127e-06
3.37336e-06
3.13879e-06
3.82211e-06
4.33279e-06
4.60446e-06
4.73207e-06
4.73208e-06
4.60447e-06
4.33279e-06
3.82209e-06
3.13878e-06
2.86574e-06
3.3766e-06
3.85682e-06
4.11195e-06
4.23938e-06
4.23938e-06
4.11195e-06
3.85682e-06
3.37658e-06
2.86569e-06
3.07822e-06
2.87646e-06
3.14778e-06
3.37629e-06
3.49349e-06
3.49349e-06
3.37628e-06
3.14774e-06
2.87646e-06
3.07816e-06
3.70741e-06
2.90454e-06
3.06484e-06
3.27521e-06
3.38981e-06
3.39044e-06
3.27835e-06
3.07411e-06
2.91548e-06
3.70698e-06
2.91517e-06
3.27945e-06
3.71517e-06
4.00087e-06
4.14124e-06
4.1434e-06
4.01194e-06
3.75007e-06
3.28018e-06
2.90449e-06
3.07381e-06
3.74927e-06
4.23866e-06
4.51474e-06
4.65421e-06
4.65674e-06
4.52356e-06
4.23944e-06
3.71584e-06
3.06497e-06
3.27816e-06
4.0114e-06
4.52296e-06
4.82706e-06
4.97187e-06
4.97556e-06
4.82736e-06
4.51513e-06
4.00117e-06
3.27528e-06
3.39037e-06
4.14317e-06
4.65643e-06
4.97533e-06
5.14525e-06
5.14527e-06
4.97109e-06
4.65369e-06
4.14085e-06
3.38966e-06
3.38982e-06
4.14126e-06
4.65425e-06
4.97199e-06
5.14556e-06
5.1455e-06
4.97115e-06
4.65369e-06
4.14085e-06
3.38966e-06
3.27533e-06
4.00123e-06
4.51522e-06
4.82767e-06
4.97672e-06
4.97672e-06
4.82757e-06
4.51516e-06
4.00117e-06
3.27529e-06
3.065e-06
3.71586e-06
4.23946e-06
4.52372e-06
4.65759e-06
4.65759e-06
4.52372e-06
4.23946e-06
3.71583e-06
3.065e-06
2.90455e-06
3.28018e-06
3.75007e-06
4.01203e-06
4.14396e-06
4.14396e-06
4.01203e-06
3.75007e-06
3.28017e-06
2.90449e-06
3.70701e-06
2.91545e-06
3.07411e-06
3.27838e-06
3.3906e-06
3.3906e-06
3.27835e-06
3.07406e-06
2.91546e-06
3.70694e-06
4.83995e-06
3.05488e-06
3.02961e-06
3.19687e-06
3.30122e-06
3.30189e-06
3.20015e-06
3.03902e-06
3.0663e-06
4.83961e-06
3.06583e-06
3.20513e-06
3.61566e-06
3.90404e-06
4.04802e-06
4.05026e-06
3.91522e-06
3.65002e-06
3.20581e-06
3.0548e-06
3.03872e-06
3.64925e-06
4.14739e-06
4.43498e-06
4.5804e-06
4.583e-06
4.44385e-06
4.14815e-06
3.6163e-06
3.02969e-06
3.19997e-06
3.9147e-06
4.44326e-06
4.76069e-06
4.91227e-06
4.91596e-06
4.76098e-06
4.43535e-06
3.90432e-06
3.19692e-06
3.30183e-06
4.05004e-06
4.5827e-06
4.91573e-06
5.09282e-06
5.09282e-06
4.91146e-06
4.57982e-06
4.04759e-06
3.30105e-06
3.30124e-06
4.04805e-06
4.58045e-06
4.91241e-06
5.09314e-06
5.09307e-06
4.91152e-06
4.57983e-06
4.04759e-06
3.30105e-06
3.19698e-06
3.9044e-06
4.43546e-06
4.76133e-06
4.91717e-06
4.91716e-06
4.76121e-06
4.43538e-06
3.90432e-06
3.19694e-06
3.02974e-06
3.61632e-06
4.14817e-06
4.44403e-06
4.5839e-06
4.58391e-06
4.44403e-06
4.14817e-06
3.61629e-06
3.02975e-06
3.0549e-06
3.20582e-06
3.65003e-06
3.91532e-06
4.05088e-06
4.05088e-06
3.91532e-06
3.65002e-06
3.2058e-06
3.05481e-06
4.83966e-06
3.06623e-06
3.03902e-06
3.20018e-06
3.30209e-06
3.30208e-06
3.20015e-06
3.03894e-06
3.06625e-06
4.83954e-06
6.86912e-06
3.37411e-06
3.05036e-06
3.14677e-06
3.23288e-06
3.2336e-06
3.15019e-06
3.05999e-06
3.38654e-06
6.87228e-06
3.3857e-06
3.16256e-06
3.52497e-06
3.8111e-06
3.95748e-06
3.9598e-06
3.82236e-06
3.55881e-06
3.16323e-06
3.37406e-06
3.05965e-06
3.55807e-06
4.05849e-06
4.35636e-06
4.50742e-06
4.51008e-06
4.36527e-06
4.05923e-06
3.52559e-06
3.05038e-06
3.15002e-06
3.82186e-06
4.3647e-06
4.69488e-06
4.85303e-06
4.85671e-06
4.69516e-06
4.35672e-06
3.81138e-06
3.1468e-06
3.23354e-06
3.95958e-06
4.50978e-06
4.85649e-06
5.04053e-06
5.04051e-06
4.85218e-06
4.50679e-06
3.95701e-06
3.23268e-06
3.23289e-06
3.95751e-06
4.50748e-06
4.85318e-06
5.04086e-06
5.04078e-06
4.85225e-06
4.5068e-06
3.95701e-06
3.23269e-06
3.14687e-06
3.81145e-06
4.35684e-06
4.69553e-06
4.85796e-06
4.85796e-06
4.6954e-06
4.35675e-06
3.81138e-06
3.14684e-06
3.05046e-06
3.52561e-06
4.05926e-06
4.36547e-06
4.51105e-06
4.51105e-06
4.36547e-06
4.05926e-06
3.52559e-06
3.05048e-06
3.37424e-06
3.16324e-06
3.55882e-06
3.82248e-06
3.96047e-06
3.96047e-06
3.82248e-06
3.55882e-06
3.16322e-06
3.3741e-06
6.87226e-06
3.38644e-06
3.05998e-06
3.15023e-06
3.23381e-06
3.2338e-06
3.15018e-06
3.05987e-06
3.38643e-06
6.87212e-06
1.02485e-05
3.96754e-06
3.15678e-06
3.13682e-06
3.19278e-06
3.19355e-06
3.1404e-06
3.16678e-06
3.9817e-06
1.02528e-05
3.9803e-06
3.16576e-06
3.44641e-06
3.72315e-06
3.87018e-06
3.87257e-06
3.73447e-06
3.47978e-06
3.16647e-06
3.96755e-06
3.16637e-06
3.47905e-06
3.97243e-06
4.27899e-06
4.43531e-06
4.43801e-06
4.28791e-06
3.97315e-06
3.44701e-06
3.15673e-06
3.14022e-06
3.73397e-06
4.28735e-06
4.62965e-06
4.79416e-06
4.79782e-06
4.6299e-06
4.27932e-06
3.72341e-06
3.13681e-06
3.19349e-06
3.87235e-06
4.43773e-06
4.79761e-06
4.9884e-06
4.98837e-06
4.79327e-06
4.43463e-06
3.86967e-06
3.19254e-06
3.19279e-06
3.87021e-06
4.43537e-06
4.79431e-06
4.98875e-06
4.98865e-06
4.79335e-06
4.43464e-06
3.86967e-06
3.19256e-06
3.1369e-06
3.72349e-06
4.27946e-06
4.63031e-06
4.79912e-06
4.79911e-06
4.63016e-06
4.27936e-06
3.72341e-06
3.13688e-06
3.15684e-06
3.44702e-06
3.97319e-06
4.28814e-06
4.43904e-06
4.43905e-06
4.28813e-06
3.97319e-06
3.44702e-06
3.15688e-06
3.96784e-06
3.16647e-06
3.47979e-06
3.7346e-06
3.87329e-06
3.87329e-06
3.7346e-06
3.47979e-06
3.16646e-06
3.96763e-06
1.02528e-05
3.98155e-06
3.16676e-06
3.14044e-06
3.19379e-06
3.19377e-06
3.14036e-06
3.16659e-06
3.98148e-06
1.02525e-05
1.52471e-05
4.99409e-06
3.38785e-06
3.18599e-06
3.1936e-06
3.19443e-06
3.18975e-06
3.39847e-06
5.01107e-06
1.52525e-05
5.00874e-06
3.23816e-06
3.38527e-06
3.64184e-06
3.78699e-06
3.78943e-06
3.65318e-06
3.41826e-06
3.23889e-06
4.99423e-06
3.39789e-06
3.41755e-06
3.89001e-06
4.20301e-06
4.36411e-06
4.36685e-06
4.21193e-06
3.8907e-06
3.38583e-06
3.38773e-06
3.18955e-06
3.65271e-06
4.21139e-06
4.56501e-06
4.73566e-06
4.7393e-06
4.56524e-06
4.20331e-06
3.64207e-06
3.18591e-06
3.19437e-06
3.78923e-06
4.36658e-06
4.73912e-06
4.93644e-06
4.93639e-06
4.73474e-06
4.36337e-06
3.78643e-06
3.19332e-06
3.1936e-06
3.78702e-06
4.36418e-06
4.73583e-06
4.9368e-06
4.93668e-06
4.73482e-06
4.36338e-06
3.78643e-06
3.19335e-06
3.18602e-06
3.64217e-06
4.20348e-06
4.56568e-06
4.74065e-06
4.74063e-06
4.56552e-06
4.20335e-06
3.64207e-06
3.18603e-06
3.38786e-06
3.38585e-06
3.89075e-06
4.21217e-06
4.36794e-06
4.36794e-06
4.21216e-06
3.89074e-06
3.38585e-06
3.38797e-06
4.99466e-06
3.23889e-06
3.41826e-06
3.65332e-06
3.79019e-06
3.79019e-06
3.65332e-06
3.41826e-06
3.23888e-06
4.99444e-06
1.52527e-05
5.0109e-06
3.39845e-06
3.1898e-06
3.19468e-06
3.19465e-06
3.18967e-06
3.39818e-06
5.01072e-06
1.52521e-05
2.19361e-05
6.60851e-06
3.80986e-06
3.32268e-06
3.25571e-06
3.2566e-06
3.32671e-06
3.82154e-06
6.63014e-06
2.19441e-05
6.62623e-06
3.40398e-06
3.3482e-06
3.56974e-06
3.70936e-06
3.71184e-06
3.58111e-06
3.38095e-06
3.4048e-06
6.60922e-06
3.82059e-06
3.38026e-06
3.81231e-06
4.12865e-06
4.29389e-06
4.29667e-06
4.13754e-06
3.81295e-06
3.34872e-06
3.80973e-06
3.32646e-06
3.58065e-06
4.13703e-06
4.501e-06
4.67756e-06
4.68117e-06
4.50119e-06
4.12891e-06
3.56992e-06
3.32256e-06
3.25653e-06
3.71166e-06
4.29642e-06
4.68101e-06
4.88467e-06
4.8846e-06
4.6766e-06
4.2931e-06
3.70873e-06
3.25537e-06
3.25569e-06
3.70939e-06
4.29397e-06
4.67774e-06
4.88504e-06
4.88491e-06
4.67668e-06
4.29311e-06
3.70873e-06
3.25542e-06
3.32268e-06
3.57006e-06
4.12912e-06
4.50168e-06
4.68257e-06
4.68254e-06
4.50149e-06
4.12895e-06
3.56993e-06
3.32274e-06
3.80987e-06
3.34877e-06
3.81302e-06
4.13781e-06
4.29781e-06
4.29781e-06
4.13779e-06
3.81299e-06
3.34873e-06
3.81013e-06
6.60964e-06
3.4048e-06
3.38096e-06
3.58126e-06
3.71264e-06
3.71264e-06
3.58124e-06
3.38094e-06
3.40479e-06
6.60971e-06
2.1944e-05
6.62972e-06
3.8215e-06
3.32677e-06
3.25688e-06
3.25683e-06
3.32658e-06
3.82114e-06
6.6297e-06
2.19443e-05
3.01152e-05
9.35387e-06
4.52817e-06
3.58811e-06
3.40385e-06
3.40483e-06
3.59257e-06
4.54158e-06
9.38208e-06
3.0128e-05
9.37517e-06
3.72001e-06
3.3466e-06
3.51084e-06
3.63956e-06
3.64209e-06
3.52224e-06
3.37936e-06
3.72109e-06
9.35605e-06
4.53993e-06
3.37867e-06
3.74104e-06
4.05627e-06
4.2248e-06
4.2276e-06
4.06512e-06
3.74163e-06
3.34707e-06
4.52821e-06
3.59214e-06
3.52181e-06
4.06464e-06
4.43766e-06
4.61986e-06
4.62344e-06
4.43783e-06
4.05649e-06
3.51096e-06
3.58799e-06
3.40473e-06
3.64193e-06
4.22737e-06
4.6233e-06
4.83309e-06
4.83301e-06
4.61886e-06
4.22395e-06
3.63886e-06
3.40348e-06
3.4038e-06
3.63961e-06
4.2249e-06
4.62006e-06
4.83348e-06
4.83333e-06
4.61895e-06
4.22397e-06
3.63887e-06
3.40355e-06
3.58805e-06
3.51116e-06
4.05674e-06
4.43836e-06
4.62489e-06
4.62485e-06
4.43815e-06
4.05654e-06
3.51098e-06
3.58827e-06
4.52817e-06
3.34717e-06
3.74175e-06
4.06543e-06
4.2288e-06
4.2288e-06
4.0654e-06
3.74169e-06
3.34711e-06
4.52875e-06
9.35571e-06
3.72103e-06
3.37941e-06
3.52242e-06
3.64294e-06
3.64293e-06
3.52238e-06
3.37935e-06
3.72105e-06
9.35651e-06
3.01253e-05
9.38061e-06
4.54133e-06
3.59259e-06
3.40513e-06
3.40505e-06
3.59231e-06
4.54089e-06
9.38104e-06
3.01273e-05
3.93526e-05
1.34625e-05
5.66934e-06
4.04708e-06
3.68394e-06
3.68504e-06
4.05219e-06
5.68522e-06
1.34973e-05
3.937e-05
1.34866e-05
4.25771e-06
3.39481e-06
3.47054e-06
3.58096e-06
3.58353e-06
3.48202e-06
3.428e-06
4.25916e-06
1.34668e-05
5.6825e-06
3.42724e-06
3.67869e-06
3.98641e-06
4.15705e-06
4.15986e-06
3.99523e-06
3.67926e-06
3.39529e-06
5.66976e-06
4.05148e-06
3.4816e-06
3.99478e-06
4.37507e-06
4.56258e-06
4.56614e-06
4.37521e-06
3.9866e-06
3.47063e-06
4.047e-06
3.68487e-06
3.58339e-06
4.15966e-06
4.56601e-06
4.78172e-06
4.78162e-06