/*--------------------------------*- C++ -*----------------------------------*\
| =========                 |                                                 |
| \\      /  F ield         | OpenFOAM: The Open Source CFD Toolbox           |
|  \\    /   O peration     | Version:  2406                                  |
|   \\  /    A nd           | Website:  www.openfoam.com                      |
|    \\/     M anipulation  |                                                 |
\*---------------------------------------------------------------------------*/
FoamFile
{
    version     2.0;
    format      ascii;
    arch        "LSB;label=32;scalar=64";
    class       volScalarField;
    location    "450";
    object      turbulenceProperties:L;
}
// * * * * * * * * * * * * * * * * * * * * * * * * * * * * * * * * * * * * * //

dimensions      [0 1 0 0 0 0 0];

internalField   nonuniform List<scalar> 
25000
(
0.0339647
0.0354186
0.0379721
0.0381062
0.0382256
0.0382134
0.0380298
0.0376895
0.0360606
0.0352236
0.0353909
0.0367453
0.0383791
0.0393209
0.0397915
0.0397696
0.0392551
0.0382628
0.0365962
0.036051
0.0379343
0.0383478
0.0397798
0.0407447
0.0412262
0.0412101
0.0406998
0.0397258
0.0382673
0.0376751
0.0380866
0.0393046
0.0407357
0.0417574
0.0422846
0.0422714
0.0417247
0.0406934
0.0392438
0.03801
0.0382155
0.0397792
0.04122
0.042282
0.0428352
0.042827
0.0422606
0.0411904
0.0397452
0.0381863
0.0382084
0.0397637
0.0412053
0.0422703
0.0428265
0.0428215
0.0422575
0.0411888
0.0397444
0.0381861
0.0380273
0.0392502
0.0406977
0.0417226
0.0422589
0.0422561
0.041716
0.040689
0.0392418
0.0380094
0.0376899
0.038267
0.0397228
0.0406904
0.0411889
0.0411876
0.0406873
0.0397194
0.038264
0.0376743
0.0360648
0.0365939
0.038258
0.039243
0.0397445
0.0397438
0.039241
0.0382557
0.0365924
0.0360507
0.0352225
0.0360442
0.0376737
0.0380095
0.0381866
0.0381868
0.0380107
0.037676
0.0360503
0.0352197
0.0298085
0.0306076
0.0315993
0.0317359
0.0319098
0.0319204
0.0317867
0.0315329
0.030466
0.0300041
0.0306163
0.0314501
0.0319632
0.0322404
0.03244
0.0324452
0.0322528
0.0319404
0.0312894
0.0304633
0.0316284
0.031961
0.0325805
0.0328168
0.0329464
0.0329466
0.0328033
0.0325453
0.0319578
0.0315267
0.0317549
0.0322569
0.0328218
0.0331222
0.0332756
0.0332721
0.0331123
0.0328059
0.0322528
0.0317797
0.0319135
0.0324471
0.0329526
0.033276
0.0334305
0.0334297
0.0332736
0.0329477
0.0324456
0.0319142
0.0319186
0.032448
0.0329494
0.0332748
0.0334297
0.0334292
0.0332734
0.0329475
0.0324453
0.0319141
0.0317827
0.0322538
0.0328068
0.0331122
0.0332714
0.0332712
0.0331114
0.0328051
0.0322522
0.0317795
0.0315297
0.0319578
0.0325453
0.0328026
0.0329465
0.0329464
0.0328022
0.0325443
0.0319567
0.0315263
0.0304693
0.0312894
0.0319399
0.032251
0.0324445
0.0324445
0.0322506
0.0319386
0.0312882
0.0304643
0.0300027
0.0304553
0.0315243
0.0317779
0.0319128
0.0319135
0.0317797
0.0315263
0.0304595
0.0300008
0.0312653
0.0323987
0.0329989
0.0334865
0.0337572
0.0337506
0.0335393
0.0330854
0.0323356
0.0312597
0.0324218
0.0334535
0.0337587
0.0340505
0.0342437
0.0342421
0.0340539
0.0337674
0.0334556
0.0323436
0.0330445
0.033755
0.0343065
0.0345523
0.0347233
0.0347234
0.0345429
0.0342704
0.0337944
0.0330842
0.0335059
0.034068
0.0345564
0.0348427
0.0350271
0.035026
0.0348426
0.0345463
0.0340544
0.0335352
0.0337612
0.0342505
0.0347281
0.0350253
0.035184
0.0351855
0.0350282
0.0347218
0.0342393
0.0337446
0.0337522
0.0342454
0.0347254
0.0350283
0.0351849
0.0351855
0.0350282
0.0347218
0.0342393
0.0337445
0.0335389
0.0340578
0.0345477
0.0348417
0.0350248
0.0350253
0.0348422
0.0345463
0.0340547
0.0335353
0.0330867
0.033797
0.0342703
0.0345409
0.0347204
0.034721
0.0345422
0.0342706
0.0337948
0.0330841
0.0323451
0.0334561
0.0337641
0.0340495
0.0342374
0.0342386
0.0340522
0.0337663
0.0334556
0.0323435
0.0312603
0.0323327
0.0330782
0.0335314
0.0337419
0.0337434
0.0335352
0.0330824
0.0323339
0.0312587
0.0357549
0.0378226
0.0382906
0.0392569
0.039607
0.0395789
0.0392965
0.0385286
0.0380148
0.0358866
0.037881
0.0393973
0.0397209
0.0402401
0.0404672
0.0404522
0.0402067
0.0397161
0.0395199
0.0380264
0.0383426
0.0397084
0.0404556
0.0409317
0.0412497
0.0412427
0.0409153
0.0403869
0.0397524
0.0385206
0.0392595
0.0402456
0.0409279
0.0414138
0.0417447
0.0417417
0.0414187
0.0409177
0.0402026
0.0392822
0.0396
0.0404629
0.0412446
0.0417358
0.042022
0.042024
0.0417421
0.0412329
0.0404397
0.0395653
0.0395778
0.0404491
0.0412367
0.0417389
0.0420208
0.0420226
0.0417414
0.0412327
0.0404401
0.0395655
0.0392971
0.0402093
0.0409162
0.0414122
0.0417343
0.0417363
0.0414164
0.0409175
0.0402042
0.0392834
0.0385354
0.0397591
0.0403829
0.0409063
0.0412294
0.0412314
0.0409114
0.0403869
0.0397553
0.0385226
0.0380349
0.0395202
0.0397047
0.0401931
0.0404369
0.0404395
0.0402002
0.0397123
0.0395201
0.0380257
0.035887
0.038005
0.0385067
0.0392753
0.0395617
0.0395648
0.0392843
0.0385188
0.0380101
0.0358832
0.0406652
0.04363
0.0442825
0.0457079
0.0461145
0.046057
0.0456828
0.0445594
0.0440268
0.0411015
0.0437127
0.045834
0.0465026
0.047454
0.0477539
0.0477177
0.0473481
0.0464035
0.0459576
0.0440365
0.0443067
0.0464655
0.0476371
0.0486464
0.0492362
0.0492114
0.0486118
0.0475133
0.0464517
0.0445425
0.0456802
0.0474353
0.0486277
0.0496364
0.0502676
0.0502574
0.0496413
0.0486148
0.0473433
0.0456608
0.0460942
0.0477356
0.0492173
0.0502492
0.0508584
0.0508579
0.0502552
0.0491929
0.0477004
0.046046
0.0460542
0.0477092
0.0491973
0.0502492
0.0508518
0.0508536
0.0502536
0.049193
0.0477023
0.0460484
0.0456842
0.0473504
0.0486103
0.0496299
0.050243
0.0502455
0.0496374
0.0486157
0.047349
0.0456678
0.0445728
0.0464622
0.0475071
0.0485988
0.0491877
0.0491904
0.0486065
0.0475159
0.0464615
0.0445535
0.0440582
0.0459581
0.0463876
0.0473319
0.0476976
0.0477001
0.0473404
0.0464004
0.0459613
0.044043
0.0411053
0.0440062
0.0445264
0.0456552
0.0460426
0.0460447
0.0456645
0.0445423
0.0440169
0.0410952
0.0446862
0.0479379
0.0488671
0.0503907
0.0507615
0.0506789
0.0502697
0.0490388
0.0483776
0.0453938
0.0480009
0.0502178
0.0512701
0.0524543
0.0527887
0.0527369
0.0522745
0.051007
0.0501971
0.0483729
0.0488495
0.0512031
0.0525796
0.0539722
0.0547266
0.0546846
0.0539229
0.0524074
0.0510684
0.0490088
0.0503482
0.0524246
0.0539455
0.0553947
0.056226
0.0562067
0.0553936
0.0539301
0.0522783
0.0502462
0.0507478
0.0527763
0.0547091
0.0562067
0.0570719
0.057064
0.0562059
0.0546681
0.0527296
0.0506843
0.0506847
0.0527372
0.0546781
0.0562048
0.0570603
0.0570586
0.056204
0.0546685
0.0527323
0.0506894
0.0502721
0.0522816
0.0539284
0.0553867
0.0561951
0.056195
0.0553913
0.0539327
0.0522862
0.0502606
0.0490511
0.0510774
0.0524035
0.0539158
0.054665
0.0546658
0.053921
0.0524127
0.0510832
0.0490325
0.0484086
0.0501945
0.0509929
0.052268
0.0527284
0.0527286
0.0522729
0.051007
0.0502043
0.0483923
0.0454014
0.04834
0.0489979
0.0502468
0.0506825
0.0506814
0.0502514
0.0490148
0.048359
0.0453902
0.0472592
0.0499789
0.0510099
0.0523508
0.052625
0.0525293
0.0521333
0.0509675
0.0502559
0.0479866
0.04998
0.0518034
0.0529838
0.0540749
0.0543875
0.0543338
0.0538582
0.0525718
0.0515626
0.0502347
0.0509495
0.0528911
0.054107
0.0554529
0.0561462
0.0560955
0.0553998
0.0539181
0.0526478
0.0509311
0.0523016
0.0540433
0.0554265
0.0568409
0.0575779
0.0575495
0.0568262
0.0554124
0.0538747
0.0521135
0.0526264
0.0543906
0.0561403
0.0575656
0.0583318
0.0583137
0.0575508
0.0560873
0.0543411
0.0525517
0.0525445
0.0543475
0.0561048
0.0575599
0.0583151
0.0583072
0.0575484
0.0560864
0.0543425
0.0525574
0.0521371
0.0538741
0.0554167
0.0568278
0.0575428
0.0575386
0.0568238
0.0554132
0.0538793
0.0521306
0.0509761
0.0526537
0.0539195
0.0554012
0.0560851
0.0560819
0.0553978
0.0539212
0.05266
0.0509621
0.0502811
0.0515637
0.0525701
0.0538666
0.0543407
0.0543363
0.0538604
0.0525724
0.0515693
0.0502645
0.047992
0.0502105
0.0509332
0.0521243
0.0525532
0.0525475
0.0521156
0.0509382
0.0502273
0.0479867
0.0483975
0.0503539
0.0513109
0.052342
0.0525412
0.0524623
0.0521033
0.0511012
0.0504002
0.0489678
0.0503088
0.0516663
0.0527206
0.0535947
0.0538939
0.0538559
0.0534095
0.0522784
0.0512896
0.0503817
0.0512294
0.0526182
0.0535982
0.0547599
0.0553463
0.0552977
0.0547191
0.0534446
0.0523727
0.0510841
0.0523025
0.0535718
0.0547388
0.0559731
0.0565697
0.0565354
0.0559486
0.0547374
0.05344
0.0521005
0.0525599
0.0539133
0.0553534
0.0565653
0.057164
0.0571391
0.05654
0.0552998
0.0538802
0.052506
0.0524837
0.05388
0.05532
0.0565565
0.0571447
0.0571326
0.056537
0.0552975
0.0538793
0.0525104
0.05211
0.0534322
0.0547452
0.0559567
0.0565337
0.0565259
0.0559451
0.0547346
0.0534383
0.0521138
0.0511131
0.0523683
0.053449
0.0547265
0.0552957
0.055289
0.054715
0.0534427
0.0523761
0.0511109
0.0504269
0.0512918
0.0522894
0.0534279
0.0538757
0.0538683
0.0534122
0.0522787
0.0512927
0.0504128
0.0489802
0.050369
0.0510942
0.052115
0.0525068
0.0524969
0.0520914
0.0510769
0.0503708
0.048971
0.0490192
0.0504321
0.0512164
0.0519688
0.0521381
0.0520877
0.0517616
0.0509311
0.0503024
0.0494423
0.0503611
0.0513508
0.0521826
0.0528706
0.0531681
0.0531471
0.0527299
0.0517634
0.0509177
0.050302
0.0511357
0.0520803
0.052887
0.0538989
0.0544097
0.054364
0.0538634
0.0527671
0.0518729
0.0509409
0.0519495
0.0528612
0.0538859
0.0549746
0.0554833
0.0554452
0.0549391
0.0538856
0.0527688
0.0517726
0.0521683
0.053201
0.0544293
0.0554861
0.0559782
0.0559501
0.0554542
0.0543741
0.0531786
0.0521382
0.0521081
0.0531766
0.0543959
0.0554739
0.0559586
0.0559452
0.0554518
0.0543717
0.0531767
0.0521401
0.0517679
0.0527575
0.0538955
0.0549511
0.0554486
0.0554401
0.0549376
0.0538825
0.0527637
0.0517786
0.0509452
0.0518588
0.0527717
0.0538732
0.0543683
0.0543615
0.0538604
0.0527641
0.0518702
0.050956
0.0503283
0.0509185
0.0517812
0.0527507
0.0531713
0.0531643
0.0527338
0.0517656
0.0509182
0.0503244
0.0494557
0.0502933
0.0509489
0.0517839
0.0521374
0.0521273
0.0517545
0.0509159
0.0502772
0.0494424
0.0497028
0.0507568
0.0513404
0.0518964
0.0520687
0.0520453
0.0517416
0.0510468
0.0505338
0.0500269
0.0506866
0.0513692
0.0519912
0.0525613
0.0528642
0.0528564
0.0524612
0.051613
0.050934
0.0505603
0.05128
0.0518973
0.0525925
0.0535075
0.0539731
0.0539304
0.0534732
0.0524959
0.0517356
0.0510856
0.0519031
0.0525678
0.0535014
0.0544888
0.0549499
0.054911
0.0544468
0.0534979
0.0525051
0.0517638
0.0521069
0.0529063
0.0540002
0.0549566
0.0553907
0.0553632
0.054925
0.0539462
0.0528902
0.0520962
0.0520637
0.0528878
0.0539655
0.0549423
0.0553725
0.0553605
0.0549234
0.0539442
0.052888
0.0520962
0.0517499
0.0524922
0.0535065
0.0544586
0.0549187
0.0549112
0.0544479
0.0534956
0.0524982
0.0517634
0.0510697
0.0517142
0.0524978
0.0534816
0.0539387
0.0539336
0.0534723
0.0524929
0.0517282
0.051089
0.0505682
0.0509318
0.0516312
0.052479
0.0528803
0.0528757
0.0524657
0.051617
0.0509315
0.050572
0.0500437
0.0505444
0.0510812
0.0517676
0.0520939
0.0520852
0.0517392
0.0510427
0.0505168
0.0500267
0.050508
0.0513378
0.0517269
0.0521518
0.0523398
0.0523365
0.0520489
0.0514614
0.0510849
0.0507855
0.05128
0.0516821
0.05214
0.0526418
0.0529486
0.0529481
0.0525681
0.0517989
0.0512695
0.0511371
0.0516922
0.0520542
0.0526796
0.053533
0.0539697
0.0539281
0.0534929
0.0525921
0.0519306
0.0515223
0.0521797
0.0526602
0.0535328
0.0544505
0.0548861
0.054847
0.0544016
0.0535189
0.0526138
0.0520771
0.0523811
0.0529963
0.0540026
0.0548959
0.0553004
0.055274
0.054865
0.0539478
0.0529801
0.0523823
0.052353
0.0529807
0.0539661
0.0548806
0.0552842
0.0552733
0.0548643
0.0539464
0.0529784
0.052381
0.0520605
0.0526038
0.0535282
0.0544139
0.0548585
0.0548519
0.0544051
0.0535183
0.0526072
0.0520717
0.0514942
0.0519086
0.0525933
0.0535007
0.0539397
0.0539361
0.0534939
0.0525898
0.0519213
0.0515152
0.0511288
0.0512677
0.0518174
0.0525831
0.0529697
0.0529668
0.0525729
0.0518044
0.0512655
0.0511371
0.050798
0.051109
0.051504
0.0520738
0.0523786
0.0523718
0.0520486
0.0514656
0.0510758
0.0507827
0.051285
0.0520762
0.0523054
0.0526425
0.0528479
0.0528596
0.052587
0.052086
0.0518389
0.0515505
0.0520345
0.0521875
0.052525
0.052986
0.0532945
0.0532975
0.0529294
0.052216
0.0518134
0.0519103
0.0522918
0.0524449
0.0530236
0.0538346
0.0542527
0.0542121
0.0537861
0.0529358
0.0523539
0.0521616
0.0526833
0.0530121
0.0538385
0.0547079
0.0551313
0.0550926
0.0546531
0.0538117
0.0529743
0.0526172
0.052888
0.0533434
0.0542884
0.0551429
0.055535
0.0555099
0.0551129
0.0542322
0.0533259
0.0529
0.0528731
0.0533285
0.0542499
0.0551271
0.0555204
0.0555105
0.0551128
0.0542318
0.0533253
0.0528989
0.0526007
0.052966
0.0538209
0.0546647
0.0551061
0.0551001
0.0546579
0.0538127
0.0529698
0.0526114
0.0521287
0.052331
0.052935
0.0537909
0.0542234
0.0542212
0.0537873
0.0529342
0.0523454
0.0521507
0.0518948
0.0518107
0.0522318
0.052939
0.0533143
0.0533134
0.0529331
0.0522226
0.0518106
0.0519049
0.0515635
0.0518719
0.0521331
0.052609
0.0528948
0.0528894
0.0525875
0.0520968
0.0518379
0.0515482
0.0518452
0.0528953
0.0530194
0.0532945
0.0535093
0.0535281
0.0532704
0.0528424
0.052691
0.0521193
0.0528613
0.052815
0.0530635
0.0534929
0.0537969
0.0537992
0.0534399
0.0527703
0.0524751
0.0527714
0.0530154
0.0529839
0.0535212
0.0542961
0.0546993
0.0546592
0.0542366
0.0534231
0.0529103
0.052921
0.053338
0.0535218
0.0543031
0.0551339
0.0555505
0.0555132
0.0550744
0.0542603
0.0534805
0.0532956
0.0535446
0.0538451
0.0547373
0.0555636
0.0559506
0.0559272
0.0555349
0.0546779
0.0538202
0.0535581
0.0535388
0.0538284
0.0546972
0.0555483
0.0559381
0.055929
0.0555353
0.0546784
0.0538212
0.0535585
0.0532848
0.0534772
0.0542707
0.0550851
0.0555275
0.0555225
0.0550801
0.0542633
0.0534797
0.0532931
0.0528903
0.0528903
0.0534208
0.0542378
0.054669
0.0546685
0.0542375
0.0534228
0.0529056
0.0529122
0.0527542
0.0524739
0.0527834
0.0534439
0.0538096
0.0538103
0.053442
0.0527781
0.0524758
0.0527652
0.0521308
0.0527283
0.0528888
0.053287
0.0535537
0.0535496
0.0532694
0.0528565
0.0526962
0.0521174
0.0519708
0.0536845
0.0537987
0.0540332
0.0542482
0.054267
0.0540228
0.0536517
0.0535183
0.0522588
0.0536545
0.0535067
0.0536831
0.0540805
0.0543746
0.0543733
0.0540219
0.0533919
0.0531909
0.0535996
0.0537978
0.0536035
0.0540923
0.0548302
0.055221
0.0551828
0.0547614
0.0539784
0.0535327
0.0537267
0.0540754
0.0541116
0.0548398
0.0556355
0.0560488
0.056015
0.0555761
0.0547829
0.054058
0.0540411
0.0542798
0.0544225
0.0552607
0.056063
0.0564488
0.0564283
0.056038
0.0551993
0.054387
0.0542862
0.0542783
0.0544029
0.0552208
0.0560506
0.0564396
0.0564314
0.0560386
0.0552001
0.0543891
0.0542893
0.0540412
0.054062
0.054796
0.055587
0.0560311
0.0560263
0.0555817
0.0547865
0.0540601
0.0540453
0.0537062
0.0535181
0.0539766
0.0547605
0.0551919
0.0551919
0.054761
0.0539783
0.0535316
0.0537257
0.0535901
0.0531923
0.053403
0.0540224
0.0543789
0.05438
0.0540218
0.0533995
0.0531946
0.0535991
0.0522734
0.0535565
0.0536952
0.0540363
0.0542853
0.0542814
0.0540207
0.0536664
0.0535272
0.0522605
0.0516908
0.0543447
0.0545967
0.054813
0.0550163
0.0550256
0.0547906
0.054452
0.0541992
0.0519885
0.0543104
0.0542316
0.0543451
0.0547016
0.0549767
0.0549683
0.0546245
0.0540345
0.0539157
0.0542758
0.0545914
0.054262
0.0546883
0.0553838
0.0557615
0.0557256
0.0553061
0.0545526
0.0541759
0.0545204
0.0548485
0.0547312
0.0553947
0.056155
0.0565666
0.056538
0.0561002
0.0553266
0.0546581
0.0548034
0.0550429
0.0550234
0.0558026
0.0565819
0.0569681
0.0569516
0.0565631
0.0557416
0.0549759
0.0550345
0.0550378
0.054999
0.0557651
0.0565751
0.0569638
0.0569563
0.0565637
0.0557421
0.0549787
0.0550399
0.0548121
0.0546685
0.0553434
0.0561131
0.0565575
0.0565521
0.0561053
0.0553297
0.0546621
0.054814
0.0545085
0.0541663
0.0545529
0.0553061
0.0557365
0.0557358
0.0553045
0.054552
0.0541775
0.0545277
0.0542717
0.0539176
0.054044
0.0546248
0.0549715
0.054972
0.0546239
0.0540417
0.0539218
0.0542821
0.052002
0.0542321
0.0544899
0.054803
0.0550377
0.0550338
0.0547891
0.0544661
0.0542092
0.051993
0.0516131
0.0547356
0.0553468
0.0555876
0.0557762
0.0557703
0.0555363
0.0551822
0.0545937
0.0519148
0.0546983
0.0549543
0.055018
0.0553253
0.0555766
0.0555602
0.0552269
0.0546788
0.0546232
0.0546666
0.0553358
0.0549304
0.0552803
0.055929
0.0562947
0.0562632
0.0558478
0.0551258
0.0548232
0.0552482
0.055615
0.0553513
0.0559393
0.0566647
0.0570775
0.0570565
0.0566219
0.0558693
0.0552626
0.0555505
0.0557972
0.0556204
0.0563357
0.0570934
0.0574825
0.0574716
0.0570854
0.0562818
0.0555679
0.0557759
0.0557829
0.0555925
0.0563046
0.0570961
0.0574853
0.0574788
0.0570864
0.0562823
0.0555708
0.055783
0.0555594
0.0552753
0.0558902
0.0566393
0.0570828
0.0570762
0.0566278
0.0558725
0.0552673
0.0555658
0.0552381
0.0548153
0.0551301
0.0558534
0.0562812
0.0562789
0.0558481
0.055126
0.0548262
0.0552622
0.0546627
0.0546214
0.0546877
0.0552318
0.0555678
0.0555676
0.0552303
0.0546877
0.0546309
0.0546788
0.0519261
0.0546162
0.055214
0.0555522
0.0557832
0.0557798
0.0555421
0.0551993
0.0546057
0.0519238
0.0539742
0.0547571
0.0559717
0.056312
0.0564982
0.056476
0.056227
0.0557791
0.0546096
0.0543004
0.0547192
0.0556314
0.0556809
0.0559369
0.0561624
0.0561398
0.0558204
0.0553145
0.0552811
0.0546801
0.055957
0.0555879
0.0558552
0.0564561
0.0568109
0.0567852
0.0563772
0.0556904
0.0554637
0.0558459
0.0563331
0.0559587
0.0564654
0.0571573
0.0575729
0.0575604
0.0571306
0.0564022
0.0558628
0.0562484
0.0565156
0.0562052
0.0568532
0.0575904
0.057983
0.0579778
0.0575944
0.0568107
0.0561541
0.0564852
0.0564894
0.0561765
0.0568324
0.0576054
0.0579943
0.0579884
0.0575968
0.0568118
0.0561567
0.056492
0.0562501
0.0558758
0.0564292
0.0571566
0.0575971
0.0575887
0.05714
0.0564069
0.055867
0.0562634
0.0558299
0.0554557
0.0557015
0.056394
0.0568164
0.056812
0.0563837
0.0556933
0.0554662
0.05586
0.0546692
0.0552731
0.0553245
0.055835
0.0561587
0.0561578
0.0558327
0.0553267
0.0552886
0.0546922
0.0543069
0.0546182
0.055803
0.0562482
0.0564949
0.0564932
0.0562446
0.0558007
0.0546227
0.0543135
0.0633471
0.0545007
0.0563786
0.0569323
0.0571493
0.057116
0.0568241
0.0561672
0.0543495
0.0635338
0.0544649
0.0562068
0.0563167
0.0565317
0.0567349
0.0567093
0.0564061
0.0559353
0.0558474
0.0544196
0.0563636
0.0562187
0.0564114
0.0569684
0.0573146
0.0572952
0.0568964
0.0562469
0.0560908
0.0562376
0.0569511
0.0565497
0.0569764
0.0576382
0.0580576
0.0580523
0.0576275
0.0569261
0.0564582
0.0568564
0.0571663
0.0567781
0.0573589
0.058077
0.0584728
0.0584719
0.0580907
0.057329
0.0567349
0.0571349
0.0571308
0.0567526
0.0573503
0.0581041
0.0584918
0.0584855
0.0580948
0.057331
0.0567366
0.057139
0.0568458
0.0564701
0.0569607
0.0576642
0.0580999
0.0580892
0.0576417
0.0569333
0.0564601
0.0568651
0.0562117
0.0560821
0.0562669
0.0569271
0.0573415
0.0573349
0.0569112
0.0562533
0.05609
0.0562451
0.0543989
0.0558328
0.0559476
0.0564321
0.0567429
0.0567412
0.0564286
0.0559503
0.0558511
0.0544264
0.0635378
0.0543448
0.0561823
0.0568497
0.0571438
0.0571447
0.0568536
0.0561919
0.0543616
0.0635572
0.0432548
0.0545551
0.0565079
0.0573933
0.0576932
0.0576561
0.0572795
0.0562965
0.0544067
0.0430433
0.0545211
0.0566246
0.0569102
0.0571092
0.0572971
0.0572716
0.0569836
0.0565289
0.0562741
0.0544772
0.0564937
0.056806
0.0569515
0.0574723
0.0578112
0.0577967
0.0574077
0.0567965
0.0566909
0.0563711
0.0574111
0.057122
0.0574781
0.0581138
0.0585355
0.0585343
0.0581139
0.0574426
0.0570462
0.0573236
0.0577101
0.0573404
0.0578568
0.0585564
0.0589532
0.0589539
0.0585749
0.057838
0.0573104
0.057688
0.0576706
0.0573208
0.0578593
0.0585923
0.0589767
0.058969
0.0585808
0.0578415
0.0573108
0.0576872
0.0572973
0.0570555
0.0574838
0.0581602
0.0585892
0.0585768
0.0581333
0.0574531
0.0570453
0.0573207
0.056333
0.0566812
0.0568246
0.0574509
0.0578551
0.0578469
0.0574311
0.056807
0.0566857
0.0563657
0.0544441
0.0562542
0.0565438
0.0570197
0.0573186
0.0573166
0.0570157
0.0565461
0.0562726
0.0544737
0.0430462
0.0543908
0.0563032
0.0573065
0.0576921
0.0576956
0.0573176
0.0563216
0.0544162
0.0430451
0.0244334
0.0565146
0.0564167
0.0576473
0.0580869
0.0580556
0.0575497
0.0562278
0.0563749
0.0243824
0.0564848
0.0568562
0.0574387
0.0576664
0.0578514
0.0578293
0.0575513
0.0570762
0.0565385
0.0564496
0.0564032
0.0573278
0.0574783
0.057973
0.0583062
0.0582949
0.0579154
0.0573407
0.0572442
0.0563058
0.0576636
0.0576727
0.0579754
0.0585886
0.0590106
0.0590097
0.0585934
0.0579546
0.0576237
0.0576041
0.0581009
0.057891
0.0583499
0.0590307
0.0594255
0.0594255
0.0590494
0.0583406
0.0578805
0.0581013
0.0580641
0.0578783
0.0583597
0.0590695
0.0594488
0.05944
0.0590567
0.0583458
0.0578796
0.058095
0.0575587
0.0576247
0.0579968
0.0586431
0.0590646
0.0590524
0.0586167
0.057969
0.0576205
0.0575884
0.0562548
0.0572296
0.0573715
0.0579636
0.0583567
0.0583494
0.0579457
0.0573559
0.0572358
0.0562875
0.0563956
0.0565131
0.0570903
0.0575908
0.0578827
0.0578822
0.0575903
0.0570958
0.0565337
0.0564318
0.0243842
0.0563451
0.0562272
0.0575734
0.0580958
0.0581022
0.0575916
0.0562519
0.0563835
0.0243828
0.0162352
0.0624413
0.0564503
0.0577219
0.0583222
0.0583028
0.0576554
0.0562986
0.0623135
0.0162183
0.0624193
0.0569892
0.0578825
0.0582033
0.058401
0.0583837
0.0581038
0.0575501
0.0567187
0.0623981
0.0564386
0.0577646
0.0579979
0.0584779
0.0588061
0.0587957
0.0584241
0.05788
0.0577213
0.0563752
0.0577366
0.0582018
0.0584757
0.0590682
0.0594869
0.0594829
0.05907
0.0584646
0.0581807
0.0577127
0.0583307
0.0584332
0.0588436
0.0595033
0.0598921
0.0598893
0.0595172
0.0588389
0.0584393
0.0583548
0.0583009
0.0584257
0.0588548
0.0595374
0.0599095
0.0599
0.0595244
0.0588451
0.0584373
0.0583431
0.0576524
0.0581716
0.0585007
0.0591137
0.0595269
0.0595173
0.0590933
0.058481
0.0581752
0.0576853
0.0563121
0.0576998
0.0579051
0.0584651
0.0588474
0.0588435
0.0584554
0.0578978
0.0577108
0.0563454
0.0622961
0.0566885
0.0575581
0.0581361
0.0584311
0.0584334
0.0581426
0.0575696
0.0567118
0.0623474
0.0162193
0.0622535
0.0562892
0.0576681
0.0583371
0.0583464
0.0576928
0.0563188
0.0623178
0.0162185
0.0120819
0.0519582
0.0575181
0.0577952
0.058458
0.0584514
0.0577611
0.0574037
0.0518823
0.0120746
0.0519548
0.0573258
0.0582241
0.0587147
0.0589437
0.0589291
0.0586269
0.0579196
0.0570971
0.051942
0.057515
0.0581029
0.0585142
0.0589924
0.0593152
0.0593019
0.0589338
0.0584072
0.0580905
0.0574751
0.0578115
0.0587065
0.0589843
0.0595565
0.0599676
0.059956
0.0595452
0.058971
0.0587005
0.0578133
0.0584625
0.0589657
0.0593419
0.0599769
0.0603553
0.0603472
0.0599789
0.0593318
0.0589764
0.0584984
0.0584406
0.0589597
0.0593469
0.0599984
0.0603608
0.06035
0.0599836
0.059337
0.0589722
0.0584821
0.0577482
0.0586843
0.0589955
0.0595734
0.0599774
0.0599717
0.059561
0.0589843
0.0586908
0.0577756
0.0574
0.0580623
0.0584177
0.0589542
0.0593275
0.0593283
0.0589561
0.0584214
0.058076
0.0574313
0.0519246
0.0570603
0.0579144
0.0586403
0.0589554
0.0589611
0.0586551
0.0579335
0.0570864
0.0519139
0.0120753
0.0518748
0.0573769
0.0577562
0.05847
0.0584814
0.0577861
0.0574154
0.0518765
0.0120747
0.00980177
0.0318637
0.0611048
0.0583506
0.0587197
0.05872
0.0583321
0.0610086
0.0318293
0.00979802
0.0318584
0.0585381
0.0584715
0.0591866
0.0594662
0.0594498
0.0590966
0.0581766
0.0583339
0.0318572
0.0611136
0.0583448
0.0590183
0.0595144
0.0598309
0.0598096
0.0594389
0.058906
0.058345
0.0610738
0.0583647
0.0591689
0.0594999
0.0600538
0.0604522
0.0604292
0.0600187
0.0594704
0.059163
0.0583759
0.0587181
0.0594763
0.0598461
0.0604544
0.0608182
0.060802
0.0604374
0.0598203
0.05948
0.0587533
0.0587023
0.0594688
0.0598403
0.0604595
0.060809
0.0607951
0.0604375
0.0598227
0.0594732
0.0587333
0.0583156
0.0591483
0.0594871
0.060032
0.0604249
0.0604207
0.0600217
0.0594759
0.059148
0.0583281
0.0609899
0.0583208
0.0589068
0.0594392
0.0598042
0.0598068
0.0594443
0.0589111
0.0583254
0.0609997
0.0318644
0.0583019
0.0581669
0.0590943
0.0594498
0.0594548
0.0591076
0.0581806
0.0583148
0.0318565
0.00979847
0.0318375
0.060964
0.0583147
0.0587199
0.0587295
0.0583401
0.061004
0.031832
0.00979818
0.00849374
0.0214764
0.0622848
0.0602828
0.0596556
0.0596581
0.0602691
0.062239
0.0214596
0.0084915
0.0214728
0.0614351
0.058688
0.0596099
0.0599625
0.0599411
0.0595098
0.0583905
0.0612717
0.0214739
0.0622958
0.0585544
0.0594953
0.0600434
0.0603577
0.0603264
0.0599448
0.0593672
0.0585555
0.0623115
0.0602907
0.0595799
0.0600207
0.0605626
0.0609474
0.060912
0.0605006
0.0599694
0.0595669
0.0603043
0.0596424
0.0599579
0.0603595
0.0609422
0.0612905
0.0612659
0.0609049
0.0603152
0.0599512
0.0596759
0.0596323
0.0599492
0.0603432
0.0609317
0.0612676
0.0612503
0.0609006
0.0603155
0.0599443
0.0596551
0.0602527
0.0595613
0.0599845
0.0605037
0.0608852
0.0608804
0.0604915
0.0599692
0.0595534
0.060251
0.0622599
0.0585473
0.0593692
0.0599327
0.0602931
0.0602948
0.0599345
0.0593668
0.0585406
0.0622235
0.0214762
0.0612611
0.0583906
0.0595015
0.059919
0.0599207
0.0595065
0.058392
0.0612544
0.0214744
0.00849179
0.0214633
0.0622131
0.0602505
0.059644
0.0596478
0.0602615
0.0622394
0.021462
0.00849159
0.00772557
0.0159274
0.0444179
0.0637165
0.0620624
0.062063
0.0636998
0.0444044
0.0159191
0.00772409
0.0159258
0.0637119
0.0590514
0.059984
0.0604137
0.0603877
0.059874
0.05875
0.0637527
0.0159262
0.0443988
0.0589083
0.0599079
0.0605552
0.0608751
0.0608361
0.0604386
0.0597666
0.0589105
0.0444591
0.0636974
0.0599393
0.0605241
0.0610622
0.0614338
0.0613898
0.0609815
0.0604577
0.0599222
0.0637281
0.0620221
0.0603927
0.0608632
0.0614212
0.0617541
0.0617245
0.0613719
0.0608083
0.0603804
0.0620617
0.0620147
0.0603826
0.0608384
0.0613982
0.0617206
0.0617027
0.0613645
0.0608077
0.0603758
0.0620421
0.0636689
0.059921
0.0604681
0.0609732
0.0613438
0.0613401
0.0609636
0.0604554
0.0599154
0.0636695
0.0444468
0.058912
0.0597681
0.0604142
0.060779
0.0607811
0.0604166
0.059766
0.0589073
0.0444289
0.0159268
0.0637434
0.0587562
0.059859
0.060346
0.0603461
0.0598603
0.0587538
0.063738
0.0159258
0.00772435
0.0159207
0.0444016
0.0636746
0.0620269
0.0620242
0.063668
0.0444118
0.0159201
0.00772413
0.00727195
0.0127424
0.029656
0.0582561
0.06486
0.064855
0.0582338
0.0296439
0.0127381
0.00727084
0.012742
0.0523491
0.0598623
0.0603495
0.0608205
0.0607916
0.0602336
0.0595628
0.0525246
0.0127413
0.029643
0.0597087
0.0602124
0.0610196
0.0613592
0.0613164
0.0608944
0.0600667
0.0597192
0.0296712
0.0582026
0.0602907
0.0609808
0.0615299
0.0618906
0.0618433
0.0614424
0.0609105
0.0602757
0.0582619
0.0647709
0.060784
0.0613339
0.0618706
0.0621892
0.0621592
0.0618198
0.0612785
0.0607725
0.0648268
0.0647662
0.0607721
0.0613032
0.0618392
0.0621489
0.0621331
0.0618092
0.0612758
0.0607687
0.064807
0.058219
0.0602689
0.0609097
0.0614201
0.0617816
0.0617799
0.0614152
0.0609029
0.0602706
0.0582157
0.02967
0.0597144
0.0600596
0.0608557
0.0612395
0.0612423
0.0608596
0.0600606
0.0597177
0.0296612
0.012742
0.052514
0.059562
0.0602068
0.0607317
0.0607309
0.0602058
0.0595583
0.0525059
0.0127411
0.00727119
0.0127393
0.0296456
0.0582081
0.064777
0.0647663
0.0581968
0.0296491
0.0127388
0.00727095
0.00700947
0.0108355
0.0214029
0.0412862
0.0563665
0.0563555
0.0412695
0.0213949
0.0108334
0.00700867
0.0108357
0.0367834
0.061503
0.0608523
0.0612497
0.0612181
0.0607287
0.0612052
0.0368529
0.0108346
0.0213964
0.061333
0.0603959
0.061424
0.0618025
0.0617585
0.0612951
0.0602481
0.0613567
0.0214087
0.0412601
0.0607815
0.0613804
0.0619645
0.0623181
0.0622709
0.0618774
0.0613107
0.0607659
0.0412889
0.0563026
0.0612035
0.0617694
0.0622931
0.0625996
0.062572
0.0622468
0.0617175
0.0611918
0.0563313
0.0563085
0.0611902
0.061736
0.0622584
0.0625571
0.0625446
0.0622342
0.0617128
0.0611886
0.0563214
0.0412853
0.060755
0.0613014
0.0618453
0.0622015
0.0622014
0.0618439
0.061298
0.0607613
0.0412744
0.0214099
0.0613435
0.0602343
0.061248
0.061672
0.0616747
0.0612516
0.060236
0.0613522
0.021405
0.0108353
0.0368561
0.0611966
0.0606936
0.0611476
0.0611458
0.0606892
0.0611871
0.03685
0.0108346
0.00700902
0.0108343
0.0213972
0.0412671
0.0563066
0.0562996
0.0412673
0.0213989
0.010834
0.00700883
0.00686805
0.00966526
0.0165868
0.0291418
0.0402159
0.0402097
0.0291325
0.0165822
0.00966439
0.00686753
0.00966584
0.0266048
0.0635231
0.0616974
0.0618571
0.0618229
0.0615636
0.0632528
0.0266294
0.0096646
0.0165838
0.0633284
0.0604802
0.0617663
0.0622087
0.0621649
0.0616355
0.0603293
0.063397
0.0165894
0.0291315
0.0616174
0.0617213
0.0623761
0.0627287
0.0626836
0.0622926
0.0616527
0.0615959
0.0291444
0.0402014
0.0618075
0.0621744
0.0627023
0.0630012
0.0629775
0.0626634
0.0621271
0.0617936
0.0402078
0.0402084
0.0617931
0.0621415
0.0626688
0.062961
0.062952
0.0626509
0.0621221
0.0617921
0.0402051
0.0291468
0.0615858
0.0616413
0.0622585
0.0626159
0.0626169
0.062259
0.0616391
0.0615949
0.0291393
0.0165907
0.063384
0.0603147
0.0615896
0.0620811
0.0620833
0.0615915
0.0603158
0.0633927
0.0165877
0.00966524
0.0266339
0.0632465
0.0615268
0.0617511
0.0617484
0.0615187
0.0632249
0.0266303
0.00966473
0.00686781
0.00966507
0.0165841
0.029135
0.0402039
0.0402035
0.029137
0.016585
0.00966486
0.00686769
0.00680631
0.00893807
0.0136431
0.0218707
0.0290394
0.0290362
0.0218655
0.0136409
0.0089379
0.00680604
0.00893877
0.0203399
0.0610529
0.0630381
0.0628212
0.062784
0.0628901
0.0608921
0.0203496
0.00893767
0.013642
0.0608424
0.0605292
0.0620383
0.0625724
0.0625297
0.0619067
0.0603742
0.0610344
0.0136446
0.0218663
0.0629498
0.0619962
0.0627663
0.0631267
0.0630847
0.0626881
0.0619283
0.0629198
0.021873
0.029037
0.0627751
0.0625447
0.0631028
0.0634008
0.0633816
0.0630721
0.0625016
0.0627566
0.0290394
0.0290415
0.0627597
0.0625147
0.0630744
0.0633666
0.0633609
0.063062
0.0624976
0.0627574
0.0290382
0.0218753
0.0629153
0.0619211
0.0626596
0.0630274
0.0630287
0.0626602
0.0619177
0.0629252
0.0218706
0.0136457
0.0610417
0.0603646
0.0618706
0.0624597
0.062461
0.0618703
0.0603637
0.0610364
0.0136438
0.00893816
0.0203532
0.0609084
0.0628601
0.0627202
0.0627165
0.0628473
0.0608773
0.0203508
0.00893779
0.0068062
0.00893842
0.0136423
0.0218681
0.0290383
0.0290389
0.0218697
0.0136428
0.00893827
0.00680615
0.00679844
0.00848613
0.011793
0.0173836
0.0221648
0.0221631
0.0173809
0.0117922
0.00848636
0.00679832
0.00848686
0.0163746
0.0493813
0.0644287
0.0642437
0.0642033
0.0642738
0.0493407
0.0163791
0.00848594
0.0117928
0.049253
0.060672
0.0622361
0.0628865
0.0628453
0.062105
0.0605133
0.0494407
0.011794
0.0173816
0.0643379
0.0621999
0.0631339
0.0635137