/*--------------------------------*- C++ -*----------------------------------*\
| =========                 |                                                 |
| \\      /  F ield         | OpenFOAM: The Open Source CFD Toolbox           |
|  \\    /   O peration     | Version:  2406                                  |
|   \\  /    A nd           | Website:  www.openfoam.com                      |
|    \\/     M anipulation  |                                                 |
\*---------------------------------------------------------------------------*/
FoamFile
{
    version     2.0;
    format      ascii;
    arch        "LSB;label=32;scalar=64";
    class       volVectorField;
    location    "450";
    object      U;
}
// * * * * * * * * * * * * * * * * * * * * * * * * * * * * * * * * * * * * * //

dimensions      [0 1 -1 0 0 0 0];

internalField   nonuniform List<vector> 
25000
(
(0.00535573 0.00537956 1.00318)
(0.00343921 0.00480664 1.00298)
(0.00249907 0.00460769 1.00282)
(0.00149836 0.00448093 1.0027)
(0.00048392 0.00441213 1.00264)
(-0.000530118 0.0044112 1.00264)
(-0.00155736 0.00447695 1.00271)
(-0.00261015 0.00460447 1.00283)
(-0.00370681 0.00482277 1.00301)
(-0.00533077 0.00532552 1.00325)
(0.00478186 0.00345381 1.00297)
(0.00344812 0.00346896 1.00271)
(0.00240655 0.0034086 1.00253)
(0.00142716 0.00334579 1.00241)
(0.000459553 0.00331161 1.00235)
(-0.000505986 0.00331324 1.00235)
(-0.00148527 0.00335229 1.00242)
(-0.00248971 0.00342884 1.00254)
(-0.00355056 0.00354374 1.00273)
(-0.00482718 0.00369968 1.00301)
(0.00459785 0.0024998 1.00281)
(0.00339159 0.00241649 1.00253)
(0.00235093 0.0023636 1.00233)
(0.00138487 0.00231988 1.00221)
(0.000446275 0.00229726 1.00215)
(-0.000485297 0.00230071 1.00215)
(-0.00142946 0.00233259 1.00221)
(-0.0024027 0.00239351 1.00234)
(-0.00343524 0.00248022 1.00254)
(-0.00460815 0.00260063 1.00283)
(0.00447503 0.00149496 1.0027)
(0.00333466 0.00143031 1.00241)
(0.00230909 0.00139186 1.00221)
(0.00135585 0.00136383 1.00208)
(0.000438416 0.0013502 1.00202)
(-0.000468648 0.00135384 1.00202)
(-0.00138818 0.00137612 1.00208)
(-0.00234164 0.00141684 1.00221)
(-0.00335829 0.00147196 1.00242)
(-0.00447986 0.00154431 1.00271)
(0.00440977 0.00048088 1.00264)
(0.00330402 0.000459855 1.00235)
(0.00228863 0.000449683 1.00215)
(0.001343 0.000443421 1.00202)
(0.000435901 0.000441299 1.00196)
(-0.000458912 0.000444282 1.00196)
(-0.00136627 0.000453125 1.00202)
(-0.00231052 0.000467766 1.00215)
(-0.00331922 0.000486737 1.00236)
(-0.00441288 0.000511217 1.00265)
(0.00440928 -0.000532813 1.00264)
(0.0033082 -0.000506772 1.00235)
(0.00229432 -0.000483793 1.00215)
(0.00134768 -0.000465617 1.00202)
(0.000439249 -0.000455179 1.00196)
(-0.000456786 -0.000452857 1.00196)
(-0.00136498 -0.000458471 1.00202)
(-0.00230972 -0.000471162 1.00215)
(-0.00331873 -0.000488945 1.00236)
(-0.00441256 -0.000512632 1.00265)
(0.0044762 -0.00155953 1.0027)
(0.00334862 -0.00148617 1.00242)
(0.00232766 -0.00142905 1.00221)
(0.00137113 -0.00138652 1.00208)
(0.000448639 -0.00136387 1.00202)
(-0.000462196 -0.00136217 1.00202)
(-0.00138425 -0.00138132 1.00208)
(-0.00233929 -0.00142017 1.00222)
(-0.00335682 -0.00147414 1.00242)
(-0.00447892 -0.00154573 1.00271)
(0.00460371 -0.00261189 1.00283)
(0.00342611 -0.00249098 1.00254)
(0.00238964 -0.00240299 1.00234)
(0.00141273 -0.00234122 1.00221)
(0.000463937 -0.00230934 1.00215)
(-0.000474557 -0.0023081 1.00215)
(-0.001423 -0.0023373 1.00221)
(-0.00239875 -0.00239665 1.00234)
(-0.00343275 -0.00248235 1.00254)
(-0.00460655 -0.00260207 1.00283)
(0.00482209 -0.00370841 1.00301)
(0.00354127 -0.00355205 1.00273)
(0.00247699 -0.0034363 1.00254)
(0.00146855 -0.00335876 1.00242)
(0.000483534 -0.00331916 1.00236)
(-0.000491862 -0.00331817 1.00236)
(-0.00147666 -0.00335583 1.00242)
(-0.00248441 -0.00343146 1.00254)
(-0.00354712 -0.00354568 1.00274)
(-0.00482499 -0.00370115 1.00301)
(0.00532429 -0.0053323 1.00325)
(0.0036972 -0.0048287 1.00301)
(0.00259778 -0.00460927 1.00283)
(0.00154146 -0.00448073 1.00271)
(0.000508532 -0.00441337 1.00265)
(-0.000515073 -0.00441273 1.00265)
(-0.00154792 -0.00447869 1.00271)
(-0.00260393 -0.00460601 1.00283)
(-0.00370259 -0.0048242 1.00301)
(-0.00532786 -0.00532699 1.00325)
(0.00705515 0.00704301 1.01883)
(0.00487543 0.00629779 1.018)
(0.00348071 0.00636319 1.01735)
(0.00204644 0.00634582 1.0169)
(0.000660932 0.00632904 1.01667)
(-0.000712446 0.00633195 1.01667)
(-0.00209326 0.0063548 1.01691)
(-0.00349975 0.00638353 1.01738)
(-0.00498675 0.00635371 1.01808)
(-0.0071148 0.00710595 1.01899)
(0.00630837 0.00486946 1.01799)
(0.00485629 0.00484707 1.01698)
(0.00354042 0.00485446 1.01624)
(0.00211796 0.00489687 1.01575)
(0.000690147 0.00492525 1.01551)
(-0.000730393 0.00492988 1.01551)
(-0.00215054 0.00491299 1.01577)
(-0.00355815 0.00487966 1.01628)
(-0.00487216 0.00486029 1.01703)
(-0.0063618 0.00497448 1.01808)
(0.00636698 0.00348506 1.01734)
(0.00486141 0.00353834 1.01624)
(0.00353392 0.00352961 1.01544)
(0.00213144 0.00353044 1.01492)
(0.00070024 0.00353731 1.01466)
(-0.000730389 0.00354103 1.01467)
(-0.00215615 0.00354117 1.01494)
(-0.00355669 0.00354196 1.01547)
(-0.00489122 0.00354301 1.01628)
(-0.00639129 0.00348426 1.01738)
(0.00634175 0.00205682 1.01689)
(0.00489894 0.00212351 1.01574)
(0.00353308 0.00213262 1.01492)
(0.00212884 0.00212922 1.01438)
(0.000702213 0.00212988 1.01411)
(-0.00072742 0.00213221 1.01412)
(-0.00215195 0.00213505 1.01439)
(-0.00355601 0.00213889 1.01494)
(-0.00492468 0.00213192 1.01577)
(-0.00636234 0.00207416 1.01692)
(0.00632461 0.000670529 1.01666)
(0.00492362 0.000697585 1.0155)
(0.00353709 0.000704706 1.01466)
(0.00212888 0.000705025 1.01411)
(0.000703483 0.000706113 1.01384)
(-0.000725429 0.000707838 1.01384)
(-0.00214946 0.000709723 1.01412)
(-0.00355719 0.000711549 1.01468)
(-0.00494283 0.000708742 1.01552)
(-0.00633941 0.000688536 1.01668)
(0.00632684 -0.000705322 1.01667)
(0.00492698 -0.000723845 1.01551)
(0.00353929 -0.00072526 1.01466)
(0.00213009 -0.00072346 1.01411)
(0.000705039 -0.000721997 1.01384)
(-0.000723853 -0.000720442 1.01384)
(-0.0021481 -0.000719193 1.01412)
(-0.00355598 -0.000718382 1.01468)
(-0.00494191 -0.000713521 1.01552)
(-0.00633876 -0.000691636 1.01668)
(0.00635076 -0.00208791 1.01691)
(0.00490946 -0.00214514 1.01576)
(0.00353847 -0.0021516 1.01493)
(0.00213238 -0.00214796 1.01439)
(0.000706553 -0.00214593 1.01412)
(-0.000722619 -0.00214465 1.01412)
(-0.00214761 -0.00214421 1.01439)
(-0.00355264 -0.00214547 1.01494)
(-0.00492203 -0.00213653 1.01577)
(-0.00636034 -0.00207719 1.01692)
(0.00637962 -0.00349573 1.01737)
(0.00487613 -0.00355419 1.01627)
(0.00353894 -0.00355279 1.01547)
(0.0021358 -0.00355265 1.01494)
(0.000708216 -0.00355398 1.01467)
(-0.00072192 -0.00355299 1.01468)
(-0.00214892 -0.00354961 1.01494)
(-0.00355093 -0.00354793 1.01548)
(-0.00488683 -0.00354721 1.01628)
(-0.00638802 -0.00348718 1.01739)
(0.00635044 -0.00498384 1.01807)
(0.00485684 -0.00486895 1.01703)
(0.00353984 -0.00488812 1.01628)
(0.00212862 -0.00492182 1.01577)
(0.000705213 -0.00494022 1.01552)
(-0.00071715 -0.00493948 1.01552)
(-0.00213998 -0.00491963 1.01577)
(-0.00355031 -0.00488445 1.01628)
(-0.00486629 -0.00486389 1.01704)
(-0.00635755 -0.00497714 1.01808)
(0.00710287 -0.00711176 1.01899)
(0.0049711 -0.00635835 1.01807)
(0.00348099 -0.00638821 1.01738)
(0.00207061 -0.00635978 1.01692)
(0.000684792 -0.00633722 1.01668)
(-0.000695393 -0.00633684 1.01668)
(-0.00208078 -0.00635855 1.01692)
(-0.00349042 -0.0063864 1.01739)
(-0.00497974 -0.00635602 1.01808)
(-0.00710957 -0.00710809 1.01899)
(0.0052917 0.00525962 1.03494)
(0.00372893 0.00469782 1.03389)
(0.00257114 0.00495003 1.03307)
(0.00148943 0.00497567 1.03252)
(0.000485603 0.0050005 1.03224)
(-0.000513065 0.00500201 1.03224)
(-0.00153071 0.00498069 1.03253)
(-0.00257477 0.00495977 1.03308)
(-0.00374435 0.00471387 1.03392)
(-0.00528866 0.00528571 1.03504)
(0.0047194 0.00371339 1.03388)
(0.00369099 0.00366817 1.03265)
(0.00269719 0.00373902 1.03173)
(0.0016043 0.0038255 1.03111)
(0.000528185 0.00387204 1.0308)
(-0.000546734 0.00387499 1.0308)
(-0.00162359 0.00383834 1.03112)
(-0.00270726 0.0037724 1.03175)
(-0.0036812 0.00367722 1.03268)
(-0.00471729 0.00374048 1.03392)
(0.00495847 0.00257637 1.03306)
(0.00375612 0.00268961 1.03173)
(0.00274208 0.00273017 1.03073)
(0.00164015 0.00276574 1.03006)
(0.000540839 0.00278478 1.02973)
(-0.000553131 0.00278679 1.02973)
(-0.00164956 0.00277308 1.03007)
(-0.00274923 0.00274419 1.03075)
(-0.00377646 0.00270203 1.03175)
(-0.00496358 0.00256947 1.03309)
(0.00497507 0.00150127 1.03251)
(0.00383399 0.00160849 1.0311)
(0.00277441 0.00163751 1.03006)
(0.00166365 0.00165993 1.02937)
(0.000550222 0.00167352 1.02902)
(-0.000559306 0.00167487 1.02902)
(-0.00167011 0.00166419 1.02937)
(-0.00277835 0.00164361 1.03007)
(-0.00384279 0.00161677 1.03112)
(-0.00498426 0.00152353 1.03253)
(0.00499929 0.00049497 1.03224)
(0.00387566 0.000534596 1.03079)
(0.00278992 0.000543031 1.02973)
(0.00167646 0.000550304 1.02902)
(0.000555896 0.000555706 1.02866)
(-0.00056265 0.000556681 1.02867)
(-0.00168094 0.000553148 1.02902)
(-0.00279286 0.000546467 1.02974)
(-0.00388051 0.000538471 1.03081)
(-0.00500543 0.000503175 1.03225)
(0.00499977 -0.000505426 1.03224)
(0.00387643 -0.00054035 1.0308)
(0.0027895 -0.000549171 1.02973)
(0.0016764 -0.000557054 1.02902)
(0.00055663 -0.000561159 1.02867)
(-0.000561942 -0.000560559 1.02867)
(-0.00168036 -0.000555668 1.02903)
(-0.00279233 -0.000547879 1.02974)
(-0.0038801 -0.000539048 1.03081)
(-0.00500508 -0.000502935 1.03225)
(0.00497858 -0.00152427 1.03252)
(0.00383845 -0.00161779 1.03111)
(0.00277423 -0.00164522 1.03007)
(0.00166468 -0.00166683 1.02937)
(0.000552467 -0.00167846 1.02902)
(-0.000557156 -0.00167821 1.02902)
(-0.00166832 -0.00166631 1.02938)
(-0.00277703 -0.0016448 1.03008)
(-0.00384168 -0.00161721 1.03112)
(-0.00498321 -0.00152329 1.03254)
(0.00495763 -0.00256942 1.03308)
(0.00377203 -0.00270219 1.03174)
(0.00274446 -0.0027446 1.03074)
(0.00164324 -0.00277464 1.03007)
(0.000545244 -0.0027897 1.02974)
(-0.000549721 -0.00278975 1.02974)
(-0.00164693 -0.00277469 1.03008)
(-0.00274709 -0.00274489 1.03075)
(-0.00377475 -0.00270215 1.03175)
(-0.00496187 -0.00256912 1.03309)
(0.00471228 -0.00373998 1.03391)
(0.00367693 -0.00367645 1.03268)
(0.00270185 -0.00377202 1.03175)
(0.00161572 -0.00383894 1.03112)
(0.000536598 -0.00387727 1.03081)
(-0.000541374 -0.00387737 1.03081)
(-0.0016196 -0.00383927 1.03112)
(-0.00270449 -0.00377252 1.03175)
(-0.00367916 -0.003677 1.03268)
(-0.00471543 -0.00373991 1.03392)
(0.0052849 -0.00528377 1.03503)
(0.00374045 -0.00471275 1.03392)
(0.00256893 -0.0049599 1.03309)
(0.00152192 -0.00498128 1.03253)
(0.000500807 -0.00500284 1.03225)
(-0.000505635 -0.00500279 1.03225)
(-0.00152594 -0.00498106 1.03253)
(-0.00257163 -0.00495995 1.03309)
(-0.00374219 -0.00471358 1.03392)
(-0.00528688 -0.00528519 1.03504)
(0.00360235 0.00358406 1.04577)
(0.00264946 0.00334158 1.04473)
(0.00176504 0.00366223 1.04394)
(0.00102515 0.0037086 1.04342)
(0.000332467 0.00377055 1.04315)
(-0.000361409 0.00377064 1.04315)
(-0.00108524 0.00370948 1.04342)
(-0.00180945 0.00366663 1.04395)
(-0.0026669 0.00333254 1.04475)
(-0.0035636 0.00356576 1.04584)
(0.00334631 0.00264523 1.04472)
(0.00265227 0.00264172 1.04354)
(0.00190833 0.00276603 1.04264)
(0.00113356 0.00285694 1.04204)
(0.000373666 0.00290425 1.04174)
(-0.000397246 0.00290655 1.04174)
(-0.00116749 0.00286588 1.04204)
(-0.00195041 0.00280654 1.04265)
(-0.00267335 0.00267549 1.04356)
(-0.00333155 0.00266937 1.04475)
(0.00365883 0.00177666 1.04394)
(0.00277065 0.00191003 1.04264)
(0.00200304 0.00200169 1.04167)
(0.00117821 0.00205783 1.04102)
(0.000385777 0.00208188 1.0407)
(-0.000405262 0.00208386 1.0407)
(-0.00120027 0.00206548 1.04102)
(-0.00202362 0.00202388 1.04168)
(-0.00280448 0.00195043 1.04265)
(-0.0036659 0.00180944 1.04395)
(0.00370306 0.00103484 1.04341)
(0.00285635 0.00114059 1.04204)
(0.00205682 0.00118173 1.04102)
(0.00121808 0.00122157 1.04034)
(0.000399658 0.00124156 1.04)
(-0.000414032 0.00124363 1.04001)
(-0.00123144 0.00122925 1.04034)
(-0.00206537 0.00119793 1.04103)
(-0.00286418 0.00116441 1.04205)
(-0.00370779 0.0010816 1.04343)
(0.00376803 0.000336683 1.04315)
(0.00290285 0.000378641 1.04174)
(0.00208028 0.000389873 1.0407)
(0.00123819 0.000403674 1.04)
(0.000407559 0.00041169 1.03966)
(-0.000417481 0.000413328 1.03966)
(-0.00124601 0.000409274 1.04001)
(-0.00208445 0.000399545 1.0407)
(-0.00290586 0.000390256 1.04175)
(-0.00376824 0.000352864 1.04316)
(0.00376896 -0.000358319 1.04315)
(0.0029054 -0.00039327 1.04174)
(0.00208193 -0.000401552 1.0407)
(0.0012402 -0.000410325 1.04001)
(0.000409317 -0.000413717 1.03966)
(-0.000416524 -0.000412735 1.03966)
(-0.0012455 -0.000407266 1.04001)
(-0.00208421 -0.000396856 1.0407)
(-0.00290572 -0.000387307 1.04175)
(-0.00376798 -0.000349623 1.04316)
(0.00370853 -0.00108285 1.04342)
(0.00286496 -0.00116458 1.04204)
(0.0020636 -0.00119738 1.04102)
(0.00122592 -0.00122845 1.04034)
(0.000405231 -0.00124304 1.04001)
(-0.000411026 -0.00124256 1.04001)
(-0.00122992 -0.001227 1.04035)
(-0.00206474 -0.00119519 1.04103)
(-0.00286383 -0.00116147 1.04205)
(-0.00370699 -0.00107844 1.04343)
(0.00366601 -0.00180736 1.04395)
(0.00280582 -0.00194803 1.04265)
(0.00202199 -0.00202116 1.04168)
(0.00119456 -0.00206309 1.04103)
(0.00039549 -0.00208223 1.0407)
(-0.000400687 -0.00208214 1.0407)
(-0.00119817 -0.00206277 1.04103)
(-0.00202275 -0.00202083 1.04168)
(-0.00280404 -0.00194734 1.04265)
(-0.00366449 -0.00180628 1.04395)
(0.0033319 -0.00266487 1.04475)
(0.00267485 -0.00267105 1.04356)
(0.00194835 -0.00280251 1.04265)
(0.00116079 -0.00286259 1.04205)
(0.000385986 -0.00290453 1.04175)
(-0.000391372 -0.00290459 1.04175)
(-0.00116469 -0.00286289 1.04205)
(-0.00194943 -0.00280317 1.04265)
(-0.00267312 -0.00267219 1.04356)
(-0.00333046 -0.00266612 1.04475)
(0.00356549 -0.00356062 1.04584)
(0.00266857 -0.00332983 1.04475)
(0.0018068 -0.00366515 1.04395)
(0.00107762 -0.00370765 1.04343)
(0.000348408 -0.00376829 1.04316)
(-0.000353871 -0.00376817 1.04316)
(-0.00108187 -0.00370729 1.04343)
(-0.00180862 -0.00366507 1.04395)
(-0.00266727 -0.00333085 1.04475)
(-0.00356388 -0.00356384 1.04585)
(0.002407 0.00240754 1.05225)
(0.00190038 0.00236564 1.05125)
(0.0012351 0.00263198 1.05053)
(0.00073519 0.00267263 1.05004)
(0.000235825 0.0027472 1.04979)
(-0.000260749 0.00274683 1.04979)
(-0.000796794 0.00267099 1.05004)
(-0.00130068 0.00263519 1.05054)
(-0.00193428 0.00234715 1.05129)
(-0.00235348 0.00235712 1.05233)
(0.00235498 0.00190809 1.05125)
(0.0019077 0.00191161 1.05012)
(0.00134993 0.00203832 1.04927)
(0.000814698 0.00210513 1.04871)
(0.00026958 0.00214425 1.04843)
(-0.000292735 0.0021458 1.04843)
(-0.000851391 0.00210775 1.04872)
(-0.00140557 0.00207349 1.04929)
(-0.0019503 0.00195456 1.05015)
(-0.00234503 0.00193876 1.05129)
(0.00262109 0.00124956 1.05052)
(0.00203018 0.00135994 1.04927)
(0.00146334 0.00147236 1.04835)
(0.000857014 0.00152664 1.04773)
(0.000281037 0.0015503 1.04743)
(-0.000303845 0.00155157 1.04743)
(-0.000885748 0.00153113 1.04774)
(-0.00149007 0.00149174 1.04836)
(-0.00206944 0.00140698 1.04929)
(-0.00263315 0.00130175 1.05054)
(0.00266505 0.000740334 1.05003)
(0.00209665 0.000822603 1.04871)
(0.00151684 0.000865465 1.04773)
(0.000897565 0.000907066 1.04709)
(0.000294675 0.000926189 1.04677)
(-0.000312781 0.000928156 1.04677)
(-0.000916086 0.000914543 1.04709)
(-0.00152951 0.000884019 1.04774)
(-0.00210401 0.000849279 1.04872)
(-0.00266781 0.000793823 1.05004)
(0.00274496 0.000234348 1.04979)
(0.00213887 0.000271941 1.04843)
(0.00154289 0.000285863 1.04743)
(0.000917718 0.000301413 1.04677)
(0.000301708 0.000308931 1.04644)
(-0.000315275 0.000310674 1.04644)
(-0.000929853 0.000307507 1.04677)
(-0.00155028 0.000297621 1.04743)
(-0.00214286 0.000286005 1.04843)
(-0.00274287 0.000252152 1.04979)
(0.00274641 -0.00026267 1.04979)
(0.00214281 -0.000292141 1.04843)
(0.0015459 -0.000301422 1.04743)
(0.000920957 -0.000308638 1.04677)
(0.000303923 -0.000310232 1.04644)
(-0.000314258 -0.000308982 1.04644)
(-0.000929459 -0.00030448 1.04677)
(-0.00155028 -0.000294311 1.04743)
(-0.00214299 -0.000282895 1.04843)
(-0.00274273 -0.000249343 1.04979)
(0.00267197 -0.000799471 1.05004)
(0.00210634 -0.000852422 1.04872)
(0.00152712 -0.000885383 1.04774)
(0.000908659 -0.000914292 1.04709)
(0.000301429 -0.000927116 1.04677)
(-0.000309523 -0.000926212 1.04677)
(-0.000914911 -0.000911511 1.04709)
(-0.00152946 -0.000880767 1.04774)
(-0.00210438 -0.000846217 1.04872)
(-0.00266747 -0.000790944 1.05004)
(0.00263692 -0.00130335 1.05053)
(0.00207315 -0.00140727 1.04929)
(0.00148874 -0.00149088 1.04836)
(0.000879181 -0.0015295 1.04774)
(0.000292354 -0.00154941 1.04743)
(-0.000298941 -0.00154889 1.04743)
(-0.000884066 -0.00152773 1.04774)
(-0.00149006 -0.00148829 1.04836)
(-0.00206998 -0.00140367 1.04929)
(-0.00263223 -0.00129871 1.05054)
(0.00234882 -0.00193649 1.05129)
(0.00195453 -0.00195205 1.05015)
(0.00140447 -0.00207102 1.04929)
(0.000845053 -0.00210525 1.04872)
(0.000281365 -0.00214355 1.04843)
(-0.00028712 -0.00214313 1.04843)
(-0.00084944 -0.00210418 1.04872)
(-0.00140557 -0.00206963 1.04929)
(-0.00195122 -0.00195065 1.05015)
(-0.00234464 -0.00193515 1.05129)
(0.0023589 -0.00235454 1.05233)
(0.0019386 -0.00234745 1.05129)
(0.00129904 -0.0026357 1.05054)
(0.000789946 -0.00267031 1.05004)
(0.000248129 -0.00274494 1.04979)
(-0.000253056 -0.00274444 1.04979)
(-0.000793945 -0.0026688 1.05004)
(-0.00130057 -0.00263358 1.05054)
(-0.00193579 -0.00234546 1.05129)
(-0.00235483 -0.00235496 1.05233)
(0.00187681 0.00188561 1.05677)
(0.00157294 0.00189705 1.05584)
(0.00101337 0.00205284 1.05516)
(0.000623651 0.00206796 1.0547)
(0.000196027 0.00212873 1.05447)
(-0.000219027 0.00212924 1.05447)
(-0.000682293 0.00206796 1.05471)
(-0.00108893 0.00206242 1.05518)
(-0.0016272 0.00188954 1.05589)
(-0.00183486 0.00183606 1.05688)
(0.00188429 0.00158407 1.05583)
(0.00154026 0.00154918 1.05477)
(0.00107108 0.00163494 1.05398)
(0.000659691 0.00165805 1.05345)
(0.000216421 0.0016789 1.05318)
(-0.000239094 0.00168031 1.05319)
(-0.00069521 0.00165635 1.05346)
(-0.00112935 0.00166319 1.054)
(-0.0015946 0.00159558 1.05481)
(-0.0018905 0.00162771 1.05589)
(0.0020444 0.0010244 1.05515)
(0.00162348 0.00108156 1.05397)
(0.00116395 0.00117494 1.0531)
(0.000683158 0.00120293 1.05252)
(0.0002238 0.00121746 1.05224)
(-0.000248813 0.00121836 1.05224)
(-0.000715327 0.00120491 1.05253)
(-0.00119222 0.00118975 1.05312)
(-0.00166284 0.00112644 1.054)
(-0.00206424 0.00108449 1.05518)
(0.00206475 0.000621996 1.05469)
(0.00164969 0.000663687 1.05344)
(0.00119239 0.000690349 1.05252)
(0.000707178 0.000715979 1.05191)
(0.000232454 0.000727467 1.05161)
(-0.000253003 0.000729562 1.05161)
(-0.00072877 0.000723126 1.05192)
(-0.00120753 0.00070942 1.05253)
(-0.00165689 0.000688996 1.05346)
(-0.00206955 0.000674247 1.05471)
(0.00213071 0.000189364 1.05446)
(0.00167554 0.000214354 1.05318)
(0.00121099 0.000225725 1.05223)
(0.00072019 0.000237224 1.05161)
(0.000236938 0.000242302 1.0513)
(-0.000252865 0.000244284 1.0513)
(-0.000735399 0.000243748 1.05161)
(-0.00122114 0.00023857 1.05224)
(-0.00168184 0.000228924 1.05319)
(-0.00213093 0.000206118 1.05447)
(0.00213258 -0.000224261 1.05446)
(0.00167971 -0.000241949 1.05318)
(0.00121431 -0.000249368 1.05223)
(0.000724059 -0.000251262 1.05161)
(0.000239497 -0.000249945 1.0513)
(-0.000251585 -0.000248345 1.0513)
(-0.0007348 -0.000246031 1.05161)
(-0.00122106 -0.000240294 1.05224)
(-0.00168197 -0.00023068 1.05319)
(-0.00213078 -0.000208352 1.05447)
(0.00207227 -0.000687602 1.0547)
(0.00165724 -0.000699209 1.05345)
(0.00120285 -0.000717846 1.05253)
(0.000719277 -0.000729529 1.05191)
(0.000239894 -0.000734831 1.05161)
(-0.000248951 -0.00073348 1.05161)
(-0.000727063 -0.000725496 1.05192)
(-0.0012071 -0.000711143 1.05253)
(-0.00165724 -0.000690706 1.05346)
(-0.00206932 -0.000676265 1.05471)
(0.00206697 -0.00109394 1.05517)
(0.00166486 -0.00113385 1.05399)
(0.00118874 -0.00119588 1.05311)
(0.000706987 -0.00121001 1.05253)
(0.000235896 -0.00122227 1.05224)
(-0.00024254 -0.00122131 1.05224)
(-0.000712495 -0.00120677 1.05253)
(-0.00119144 -0.00119111 1.05311)
(-0.00166322 -0.0011276 1.054)
(-0.00206339 -0.00108595 1.05518)
(0.00189327 -0.00163193 1.05588)
(0.00159721 -0.00159915 1.0548)
(0.00112615 -0.00166704 1.05399)
(0.000687663 -0.00166023 1.05346)
(0.00022738 -0.00168404 1.05319)
(-0.00023213 -0.00168317 1.05319)
(-0.000691794 -0.00165778 1.05346)
(-0.00112801 -0.00166364 1.054)
(-0.00159495 -0.00159532 1.05481)
(-0.00188989 -0.00162761 1.05589)
(0.00183945 -0.00183862 1.05687)
(0.00162926 -0.00189506 1.05588)
(0.00108439 -0.00206814 1.05518)
(0.000673842 -0.00207284 1.05471)
(0.000205744 -0.00213336 1.05447)
(-0.000208808 -0.00213263 1.05447)
(-0.000676852 -0.00207052 1.05471)
(-0.00108631 -0.00206456 1.05518)
(-0.00162731 -0.00189097 1.05589)
(-0.00183568 -0.0018364 1.05687)
(0.00185238 0.00185888 1.06099)
(0.00156865 0.00186751 1.06008)
(0.0010268 0.00194877 1.05943)
(0.000647663 0.00195281 1.05899)
(0.000202259 0.00199735 1.05877)
(-0.000220173 0.00199906 1.05877)
(-0.000695602 0.0019557 1.059)
(-0.00109696 0.00196545 1.05946)
(-0.00163182 0.0018761 1.06015)
(-0.00182891 0.00182584 1.06111)
(0.00186353 0.00157568 1.06007)
(0.00151495 0.00152009 1.05905)
(0.00105088 0.00157699 1.05829)
(0.000655711 0.0015716 1.05779)
(0.000213053 0.0015796 1.05754)
(-0.000231148 0.00158113 1.05754)
(-0.000683312 0.00156667 1.0578)
(-0.00109979 0.00159651 1.05832)
(-0.00156661 0.00156168 1.0591)
(-0.00188217 0.00162561 1.06015)
(0.00195037 0.00103045 1.05942)
(0.00157047 0.00105572 1.05829)
(0.00112238 0.00112844 1.05745)
(0.000664895 0.00113376 1.05691)
(0.000218148 0.00114131 1.05663)
(-0.000240553 0.00114201 1.05664)
(-0.000694306 0.0011333 1.05692)
(-0.00114545 0.00113662 1.05748)
(-0.00160255 0.00109038 1.05832)
(-0.00197335 0.00108474 1.05946)
(0.00195894 0.000639088 1.05897)
(0.00156992 0.000653089 1.05778)
(0.00112886 0.000666472 1.0569)
(0.000673384 0.000676611 1.05632)
(0.000222434 0.000681847 1.05604)
(-0.000240971 0.000683897 1.05604)
(-0.000693368 0.000682432 1.05633)
(-0.00114239 0.000683066 1.05692)
(-0.00157426 0.00067184 1.05781)
(-0.00196439 0.00068143 1.059)
(0.00200657 0.000192405 1.05875)
(0.0015828 0.000206478 1.05753)
(0.00114084 0.000215338 1.05663)
(0.000680209 0.000222376 1.05604)
(0.000225075 0.000225456 1.05574)
(-0.000239694 0.000227306 1.05574)
(-0.000695079 0.000228032 1.05604)
(-0.00115116 0.000226667 1.05664)
(-0.00158979 0.000217826 1.05754)
(-0.00200892 0.000203422 1.05877)
(0.00200806 -0.00022606 1.05876)
(0.00158594 -0.00023607 1.05753)
(0.00114332 -0.000244107 1.05663)
(0.000683754 -0.000242721 1.05604)
(0.000227355 -0.000240561 1.05574)
(-0.000238404 -0.000239046 1.05574)
(-0.000694264 -0.000237763 1.05604)
(-0.00115081 -0.00023529 1.05664)
(-0.00158969 -0.000225897 1.05754)
(-0.0020086 -0.000211634 1.05877)
(0.00196441 -0.000700142 1.05899)
(0.00157186 -0.000688005 1.0578)
(0.00113583 -0.000698477 1.05691)
(0.000683429 -0.000696439 1.05633)
(0.000228763 -0.000697141 1.05604)
(-0.000236894 -0.000695754 1.05604)
(-0.000691091 -0.000692345 1.05633)
(-0.00114112 -0.000691705 1.05692)
(-0.00157393 -0.000679894 1.0578)
(-0.0019638 -0.000689504 1.059)
(0.00197315 -0.00110046 1.05945)
(0.00160118 -0.00110426 1.05832)
(0.00113934 -0.00115009 1.05747)
(0.000684976 -0.00114626 1.05691)
(0.000228305 -0.00115396 1.05664)
(-0.000233827 -0.00115285 1.05664)
(-0.000690213 -0.00114267 1.05692)
(-0.00114317 -0.0011448 1.05748)
(-0.0016018 -0.00109778 1.05832)
(-0.00197191 -0.00109218 1.05946)
(0.00188135 -0.00163555 1.06014)
(0.00156514 -0.0015712 1.0591)
(0.0010933 -0.00160724 1.05832)
(0.000674635 -0.00157817 1.0578)
(0.000220433 -0.00159268 1.05754)
(-0.000223735 -0.00159173 1.05754)
(-0.00067821 -0.00157546 1.0578)
(-0.00109622 -0.00160343 1.05832)
(-0.00156524 -0.00156718 1.0591)
(-0.00188034 -0.00163079 1.06015)
(0.00182945 -0.00183236 1.0611)
(0.00162857 -0.00188563 1.06014)
(0.00108779 -0.00197604 1.05945)
(0.000685077 -0.00196655 1.059)
(0.000207031 -0.0020105 1.05877)
(-0.000208631 -0.00201003 1.05877)
(-0.000687456 -0.0019649 1.059)
(-0.00109094 -0.00197327 1.05946)
(-0.00162918 -0.00188241 1.06015)
(-0.00182801 -0.00183041 1.0611)
(0.0019845 0.00198655 1.06553)
(0.00165467 0.00198701 1.06463)
(0.00110682 0.00204265 1.06399)
(0.000706281 0.00204999 1.06354)
(0.000222181 0.00208405 1.06332)
(-0.000228715 0.00208565 1.06333)
(-0.000734536 0.0020516 1.06356)
(-0.00115642 0.00205773 1.06402)
(-0.00171041 0.00199942 1.06471)
(-0.00197113 0.0019623 1.06566)
(0.0019898 0.00165593 1.06461)
(0.00160756 0.00160734 1.0636)
(0.00112428 0.00165664 1.06286)
(0.00070439 0.00164212 1.06236)
(0.000228717 0.00164581 1.06211)
(-0.000236801 0.00164714 1.06212)
(-0.000717702 0.00163362 1.06238)
(-0.00115481 0.00166438 1.06289)
(-0.00164515 0.00163408 1.06367)
(-0.00201079 0.00169788 1.06471)
(0.00205093 0.00110235 1.06397)
(0.00165608 0.00112209 1.06285)
(0.00118475 0.00118423 1.06203)
(0.000709189 0.00117937 1.06149)
(0.000234236 0.00118515 1.06122)
(-0.000248458 0.00118554 1.06123)
(-0.000729886 0.0011761 1.06151)
(-0.00119783 0.00118395 1.06206)
(-0.0016766 0.00114061 1.0629)
(-0.00207045 0.00113942 1.06402)
(0.00206202 0.000691228 1.06353)
(0.0016473 0.000695068 1.06235)
(0.00118145 0.000704252 1.06149)
(0.000709971 0.0007065 1.06092)
(0.000236602 0.000709398 1.06064)
(-0.000248118 0.000711068 1.06064)
(-0.000723773 0.000709874 1.06093)
(-0.00119012 0.000715799 1.06151)
(-0.00164712 0.000703898 1.06238)
(-0.00206511 0.000718391 1.06356)
(0.00209776 0.000209505 1.06331)
(0.0016551 0.000218004 1.0621)
(0.00119134 0.000226527 1.06122)
(0.000714324 0.000231152 1.06063)
(0.00023861 0.000233403 1.06035)
(-0.000247819 0.000234701 1.06035)
(-0.00072515 0.000234719 1.06064)
(-0.00119932 0.000234309 1.06123)
(-0.00166125 0.000223798 1.06212)
(-0.00210033 0.000212408 1.06333)
(0.00209842 -0.00023586 1.06331)
(0.00165701 -0.000243862 1.06211)
(0.0011927 -0.000254987 1.06122)
(0.000716992 -0.000253438 1.06064)
(0.000240156 -0.000252625 1.06035)
(-0.000246799 -0.00025147 1.06035)
(-0.000724304 -0.000249678 1.06064)
(-0.00119878 -0.000247856 1.06123)
(-0.00166098 -0.000236374 1.06212)
(-0.00210001 -0.000224854 1.06333)
(0.00206394 -0.000739624 1.06355)
(0.00164332 -0.000723377 1.06237)
(0.0011839 -0.000735561 1.0615)
(0.000716471 -0.000728785 1.06093)
(0.000240571 -0.00072949 1.06064)
(-0.00024487 -0.000728222 1.06064)
(-0.000721425 -0.00072512 1.06093)
(-0.00118833 -0.000729418 1.06151)
(-0.00164631 -0.000716495 1.06238)
(-0.00206456 -0.000730782 1.06356)
(0.00206898 -0.00115972 1.06401)
(0.00167319 -0.00115953 1.06289)
(0.00119153 -0.00120298 1.06205)
(0.000722958 -0.00119471 1.0615)
(0.00024083 -0.00120303 1.06123)
(-0.000242506 -0.00120186 1.06123)
(-0.000725447 -0.00119086 1.06151)
(-0.00119459 -0.00119717 1.06206)
(-0.00167501 -0.00115268 1.0629)
(-0.00206908 -0.00115127 1.06402)
(0.00200812 -0.00171399 1.0647)
(0.00164143 -0.00164987 1.06366)
(0.00114833 -0.00168134 1.06289)
(0.00071183 -0.00165099 1.06238)
(0.000231169 -0.00166414 1.06212)
(-0.000230294 -0.00166306 1.06212)
(-0.0007121 -0.00164772 1.06238)
(-0.00114997 -0.00167628 1.0629)
(-0.00164251 -0.00164414 1.06367)
(-0.00200854 -0.00170729 1.06471)
(0.00196873 -0.00197455 1.06566)
(0.00170477 -0.00201385 1.0647)
(0.0011475 -0.00207256 1.06402)
(0.000727251 -0.00206662 1.06356)
(0.000220736 -0.0021013 1.06333)
(-0.000217803 -0.00210085 1.06333)
(-0.000725621 -0.00206486 1.06356)
(-0.00114843 -0.00206914 1.06402)
(-0.0017057 -0.002009 1.06471)
(-0.00196883 -0.00196994 1.06566)
(0.00208902 0.00208582 1.07043)
(0.00171583 0.00208559 1.06953)
(0.00116702 0.00214113 1.06888)
(0.000745956 0.00215632 1.06844)
(0.000234868 0.00218637 1.06821)
(-0.000233117 0.00218808 1.06822)
(-0.000757855 0.00215758 1.06845)
(-0.00119573 0.00215493 1.06892)
(-0.00175966 0.00210016 1.06961)
(-0.00208159 0.00206956 1.07057)
(0.00209523 0.00171102 1.06951)
(0.00168712 0.00168101 1.06849)
(0.00118872 0.0017306 1.06775)
(0.000743597 0.00171625 1.06725)
(0.000241275 0.0017208 1.067)
(-0.000240634 0.0017226 1.06701)
(-0.000744348 0.00170719 1.06727)
(-0.00120206 0.00173125 1.06779)
(-0.00170952 0.00169546 1.06857)
(-0.00211342 0.00174431 1.06961)
(0.00215559 0.00115614 1.06886)
(0.00173638 0.00118022 1.06774)
(0.00124339 0.00123647 1.06692)
(0.000749271 0.00122919 1.06638)
(0.000248733 0.00123597 1.06611)
(-0.000254163 0.00123657 1.06612)
(-0.000760627 0.00122511 1.0664)
(-0.00124689 0.00123138 1.06695)
(-0.0017462 0.00118663 1.06779)
(-0.00216856 0.0011782 1.06892)
(0.00217292 0.000727758 1.06842)
(0.00172755 0.000729742 1.06724)
(0.00123767 0.000739104 1.06638)
(0.000747692 0.000738564 1.06581)
(0.000250889 0.0007413 1.06552)
(-0.000254089 0.000742724 1.06553)
(-0.000753838 0.000740164 1.06582)
(-0.00124051 0.000746854 1.0664)
(-0.00172274 0.000731492 1.06727)
(-0.00217178 0.000743385 1.06846)
(0.00220295 0.000222101 1.0682)
(0.00173471 0.000228787 1.06699)
(0.00124762 0.00023795 1.0661)
(0.000751532 0.000241537 1.06552)
(0.000252903 0.000243528 1.06523)
(-0.000255275 0.000244254 1.06524)
(-0.000756537 0.000243009 1.06553)
(-0.00125143 0.000242349 1.06612)
(-0.0017382 0.000230125 1.06701)
(-0.00220339 0.000219309 1.06823)
(0.00220307 -0.000239797 1.06821)
(0.00173593 -0.000248038 1.067)
(0.00124815 -0.000261937 1.06611)
(0.000753292 -0.000261416 1.06552)
(0.000253625 -0.000262582 1.06524)
(-0.000254594 -0.000261903 1.06524)
(-0.000755728 -0.000259235 1.06553)
(-0.00125076 -0.000257029 1.06612)
(-0.00173773 -0.000243463 1.06701)
(-0.00220298 -0.00023203 1.06823)
(0.00217191 -0.00076217 1.06844)
(0.00171991 -0.000749528 1.06726)
(0.00123676 -0.000766214 1.06639)
(0.000750819 -0.000759331 1.06582)
(0.000252391 -0.000761854 1.06553)
(-0.000251928 -0.000760929 1.06553)
(-0.000751707 -0.000756736 1.06582)
(-0.00123835 -0.000761658 1.0664)
(-0.00172131 -0.000744886 1.06727)
(-0.00217095 -0.000756133 1.06846)
(0.00216804 -0.00119746 1.06891)
(0.00174286 -0.00120547 1.06778)
(0.00124238 -0.00125101 1.06695)