/*--------------------------------*- C++ -*----------------------------------*\
| =========                 |                                                 |
| \\      /  F ield         | OpenFOAM: The Open Source CFD Toolbox           |
|  \\    /   O peration     | Version:  2406                                  |
|   \\  /    A nd           | Website:  www.openfoam.com                      |
|    \\/     M anipulation  |                                                 |
\*---------------------------------------------------------------------------*/
FoamFile
{
    version     2.0;
    format      ascii;
    arch        "LSB;label=32;scalar=64";
    class       surfaceScalarField;
    location    "6.2";
    object      phi;
}
// * * * * * * * * * * * * * * * * * * * * * * * * * * * * * * * * * * * * * //

dimensions      [0 3 -1 0 0 0 0];

oriented        oriented;

internalField   nonuniform List<scalar> 
46880
(
5.70227e-05
5.70227e-05
9.25627e-05
-6.58089e-05
-6.58089e-05
4.14847e-05
5.85524e-05
0.000107332
-6.81955e-05
2.17749e-05
5.89973e-05
0.000116854
-6.9121e-05
1.9887e-13
5.91027e-05
0.000121561
-6.94051e-05
-2.17749e-05
5.91027e-05
0.000121561
-6.94051e-05
-4.14847e-05
5.89973e-05
0.000116854
-6.9121e-05
-5.70227e-05
5.85524e-05
0.000107332
-6.81955e-05
5.70227e-05
9.25627e-05
-6.58089e-05
-6.58089e-05
5.85524e-05
4.14847e-05
0.000107332
-6.81955e-05
4.20291e-05
4.20291e-05
0.000121733
2.18254e-05
4.20503e-05
0.000130284
2.06824e-13
4.1986e-05
0.000134326
-2.18254e-05
4.1986e-05
0.000134326
-4.20291e-05
4.20503e-05
0.000130284
-5.85524e-05
4.20291e-05
0.000121733
4.14847e-05
0.000107332
-6.81955e-05
5.89973e-05
2.17749e-05
0.000116854
-6.9121e-05
4.20503e-05
2.18254e-05
0.000130284
2.17158e-05
2.17158e-05
0.000137965
1.74357e-13
2.16254e-05
0.00014148
-2.17158e-05
2.16254e-05
0.00014148
-4.20503e-05
2.17158e-05
0.000137965
-5.89973e-05
2.18254e-05
0.000130284
2.17749e-05
0.000116854
-6.9121e-05
5.91027e-05
9.68889e-13
0.000121561
-6.94051e-05
4.1986e-05
1.17113e-12
0.000134326
2.16254e-05
1.15032e-12
0.00014148
1.46603e-13
1.12716e-12
0.000144691
-2.16254e-05
1.09411e-12
0.000144691
-4.1986e-05
1.05745e-12
0.00014148
-5.91027e-05
1.05669e-12
0.000134326
8.84588e-13
0.000121561
-6.94051e-05
5.91027e-05
-2.17749e-05
0.000121561
-6.94051e-05
4.1986e-05
-2.18254e-05
0.000134326
2.16254e-05
-2.17158e-05
0.00014148
1.13918e-13
-2.16254e-05
0.000144691
-2.16254e-05
-2.16254e-05
0.000144691
-4.1986e-05
-2.17158e-05
0.00014148
-5.91027e-05
-2.18254e-05
0.000134326
-2.17749e-05
0.000121561
-6.94051e-05
5.89973e-05
-4.14846e-05
0.000116854
-6.9121e-05
4.20503e-05
-4.20291e-05
0.000130284
2.17158e-05
-4.20503e-05
0.000137965
7.04845e-14
-4.1986e-05
0.00014148
-2.17158e-05
-4.1986e-05
0.00014148
-4.20503e-05
-4.20503e-05
0.000137965
-5.89973e-05
-4.20291e-05
0.000130284
-4.14846e-05
0.000116854
-6.9121e-05
5.85524e-05
-5.70227e-05
0.000107332
-6.81955e-05
4.20291e-05
-5.85524e-05
0.000121733
2.18254e-05
-5.89973e-05
0.000130284
2.73342e-14
-5.91027e-05
0.000134326
-2.18254e-05
-5.91027e-05
0.000134326
-4.20291e-05
-5.89973e-05
0.000130284
-5.85524e-05
-5.85524e-05
0.000121733
-5.70227e-05
0.000107332
-6.81955e-05
5.70227e-05
9.25627e-05
-6.58089e-05
-6.58089e-05
4.14847e-05
0.000107332
-6.81955e-05
2.17749e-05
0.000116854
-6.9121e-05
-8.73259e-15
0.000121561
-6.94051e-05
-2.17749e-05
0.000121561
-6.94051e-05
-4.14847e-05
0.000116854
-6.9121e-05
-5.70227e-05
0.000107332
-6.81955e-05
9.25627e-05
-6.58089e-05
-6.58089e-05
2.12981e-05
2.12981e-05
9.11553e-05
-2.05944e-05
-2.05944e-05
1.7387e-05
2.43165e-05
0.000110076
-2.31488e-05
9.64834e-06
2.60548e-05
0.000123205
-2.46671e-05
1.22882e-13
2.68715e-05
0.000129837
-2.54995e-05
-9.64834e-06
2.68715e-05
0.000129837
-2.54995e-05
-1.7387e-05
2.60548e-05
0.000123205
-2.46671e-05
-2.12981e-05
2.43165e-05
0.000110076
-2.31488e-05
2.12981e-05
9.11553e-05
-2.05944e-05
-2.05944e-05
2.43165e-05
1.7387e-05
0.000110076
-2.31488e-05
1.97648e-05
1.97648e-05
0.000130836
1.0936e-05
2.11179e-05
0.00014405
1.10499e-13
2.17195e-05
0.000150414
-1.0936e-05
2.17195e-05
0.000150414
-1.97648e-05
2.11179e-05
0.00014405
-2.43165e-05
1.97648e-05
0.000130836
1.7387e-05
0.000110076
-2.31488e-05
2.60548e-05
9.64834e-06
0.000123205
-2.46671e-05
2.11179e-05
1.0936e-05
0.00014405
1.1672e-05
1.1672e-05
0.000156857
7.57182e-14
1.19938e-05
0.000162878
-1.1672e-05
1.19938e-05
0.000162878
-2.11179e-05
1.1672e-05
0.000156857
-2.60548e-05
1.0936e-05
0.00014405
9.64834e-06
0.000123205
-2.46671e-05
2.68715e-05
8.35489e-13
0.000129837
-2.54995e-05
2.17195e-05
9.53052e-13
0.000150414
1.19938e-05
9.11885e-13
0.000162878
4.94066e-14
8.90553e-13
0.000168678
-1.19938e-05
8.62357e-13
0.000168678
-2.17195e-05
8.37256e-13
0.000162878
-2.68715e-05
8.65936e-13
0.000150414
7.78263e-13
0.000129837
-2.54995e-05
2.68715e-05
-9.64834e-06
0.000129837
-2.54995e-05
2.17195e-05
-1.0936e-05
0.000150414
1.19938e-05
-1.1672e-05
0.000162878
2.2763e-14
-1.19938e-05
0.000168678
-1.19938e-05
-1.19938e-05
0.000168678
-2.17195e-05
-1.1672e-05
0.000162878
-2.68715e-05
-1.0936e-05
0.000150414
-9.64834e-06
0.000129837
-2.54995e-05
2.60548e-05
-1.7387e-05
0.000123205
-2.46671e-05
2.11179e-05
-1.97648e-05
0.00014405
1.1672e-05
-2.11179e-05
0.000156857
-1.37817e-14
-2.17195e-05
0.000162878
-1.1672e-05
-2.17195e-05
0.000162878
-2.11179e-05
-2.11179e-05
0.000156857
-2.60548e-05
-1.97648e-05
0.00014405
-1.7387e-05
0.000123205
-2.46671e-05
2.43165e-05
-2.12981e-05
0.000110076
-2.31488e-05
1.97648e-05
-2.43165e-05
0.000130836
1.0936e-05
-2.60548e-05
0.00014405
-5.26676e-14
-2.68715e-05
0.000150414
-1.0936e-05
-2.68715e-05
0.000150414
-1.97648e-05
-2.60548e-05
0.00014405
-2.43165e-05
-2.43165e-05
0.000130836
-2.12981e-05
0.000110076
-2.31488e-05
2.12981e-05
9.11553e-05
-2.05944e-05
-2.05944e-05
1.7387e-05
0.000110076
-2.31488e-05
9.64834e-06
0.000123205
-2.46671e-05
-8.13375e-14
0.000129837
-2.54995e-05
-9.64834e-06
0.000129837
-2.54995e-05
-1.7387e-05
0.000123205
-2.46671e-05
-2.12981e-05
0.000110076
-2.31488e-05
9.11553e-05
-2.05944e-05
-2.05944e-05
1.18127e-05
1.18127e-05
8.91259e-05
-1.0798e-05
-1.0798e-05
9.90265e-06
1.43956e-05
0.000110627
-1.30364e-05
5.62154e-06
1.59718e-05
0.000125963
-1.44489e-05
2.24022e-13
1.67467e-05
0.000133897
-1.51853e-05
-5.62154e-06
1.67467e-05
0.000133897
-1.51853e-05
-9.90265e-06
1.59718e-05
0.000125963
-1.44489e-05
-1.18127e-05
1.43956e-05
0.000110627
-1.30364e-05
1.18127e-05
8.91259e-05
-1.0798e-05
-1.0798e-05
1.43956e-05
9.90265e-06
0.000110627
-1.30364e-05
1.20477e-05
1.20477e-05
0.000135532
6.80902e-06
1.33212e-05
0.000151939
1.76441e-13
1.39201e-05
0.00016005
-6.80902e-06
1.39201e-05
0.00016005
-1.20477e-05
1.33212e-05
0.000151939
-1.43956e-05
1.20477e-05
0.000135532
9.90265e-06
0.000110627
-1.30364e-05
1.59718e-05
5.62155e-06
0.000125963
-1.44489e-05
1.33212e-05
6.80902e-06
0.000151939
7.49972e-06
7.49972e-06
0.0001685
1.05588e-13
7.81056e-06
0.000176487
-7.49972e-06
7.81056e-06
0.000176487
-1.33212e-05
7.49972e-06
0.0001685
-1.59718e-05
6.80902e-06
0.000151939
5.62155e-06
0.000125963
-1.44489e-05
1.67467e-05
1.00033e-12
0.000133897
-1.51853e-05
1.39201e-05
1.06748e-12
0.00016005
7.81056e-06
9.38574e-13
0.000176487
5.76415e-14
8.56953e-13
0.000184299
-7.81056e-06
8.16543e-13
0.000184299
-1.39201e-05
8.21134e-13
0.000176487
-1.67467e-05
8.98618e-13
0.00016005
8.31819e-13
0.000133897
-1.51853e-05
1.67467e-05
-5.62154e-06
0.000133897
-1.51853e-05
1.39201e-05
-6.80902e-06
0.00016005
7.81056e-06
-7.49972e-06
0.000176487
1.96055e-14
-7.81055e-06
0.000184299
-7.81056e-06
-7.81055e-06
0.000184299
-1.39201e-05
-7.49972e-06
0.000176487
-1.67467e-05
-6.80902e-06
0.00016005
-5.62154e-06
0.000133897
-1.51853e-05
1.59718e-05
-9.90265e-06
0.000125963
-1.44489e-05
1.33212e-05
-1.20476e-05
0.000151939
7.49972e-06
-1.33212e-05
0.0001685
-2.50095e-14
-1.39201e-05
0.000176487
-7.49972e-06
-1.39201e-05
0.000176487
-1.33212e-05
-1.33212e-05
0.0001685
-1.59718e-05
-1.20476e-05
0.000151939
-9.90265e-06
0.000125963
-1.44489e-05
1.43956e-05
-1.18127e-05
0.000110627
-1.30364e-05
1.20477e-05
-1.43956e-05
0.000135532
6.80902e-06
-1.59718e-05
0.000151939
-6.91854e-14
-1.67467e-05
0.00016005
-6.80902e-06
-1.67467e-05
0.00016005
-1.20477e-05
-1.59718e-05
0.000151939
-1.43956e-05
-1.43956e-05
0.000135532
-1.18127e-05
0.000110627
-1.30364e-05
1.18127e-05
8.91259e-05
-1.0798e-05
-1.0798e-05
9.90265e-06
0.000110627
-1.30364e-05
5.62154e-06
0.000125963
-1.44489e-05
-9.90157e-14
0.000133897
-1.51853e-05
-5.62154e-06
0.000133897
-1.51853e-05
-9.90265e-06
0.000125963
-1.44489e-05
-1.18127e-05
0.000110627
-1.30364e-05
8.91259e-05
-1.0798e-05
-1.0798e-05
2.98521e-06
2.98521e-06
8.73785e-05
-2.11152e-06
-2.11152e-06
2.93654e-06
4.20871e-06
0.000109321
-2.85467e-06
1.80601e-06
5.10333e-06
0.000125443
-3.45295e-06
3.26534e-14
5.56796e-06
0.000133927
-3.79171e-06
-1.80601e-06
5.56796e-06
0.000133927
-3.79171e-06
-2.93654e-06
5.10333e-06
0.000125443
-3.45295e-06
-2.98521e-06
4.20871e-06
0.000109321
-2.85467e-06
2.98521e-06
8.73785e-05
-2.11152e-06
-2.11152e-06
4.20871e-06
2.93654e-06
0.000109321
-2.85467e-06
4.13753e-06
4.13753e-06
0.000135674
2.52404e-06
4.95623e-06
0.000153699
1.10801e-14
5.34154e-06
0.0001628
-2.52404e-06
5.34154e-06
0.0001628
-4.13753e-06
4.95623e-06
0.000153699
-4.20871e-06
4.13753e-06
0.000135674
2.93654e-06
0.000109321
-2.85467e-06
5.10333e-06
1.80601e-06
0.000125443
-3.45295e-06
4.95623e-06
2.52404e-06
0.000153699
2.98743e-06
2.98743e-06
0.000172437
-2.34199e-14
3.17437e-06
0.000181642
-2.98743e-06
3.17437e-06
0.000181642
-4.95623e-06
2.98743e-06
0.000172437
-5.10333e-06
2.52404e-06
0.000153699
1.80601e-06
0.000125443
-3.45295e-06
5.56796e-06
9.36633e-13
0.000133927
-3.79171e-06
5.34154e-06
1.04747e-12
0.0001628
3.17437e-06
9.30405e-13
0.000181642
-5.42985e-14
8.28223e-13
0.000190648
-3.17437e-06
8.04893e-13
0.000190648
-5.34154e-06
8.64221e-13
0.000181642
-5.56796e-06
9.73447e-13
0.0001628
9.05861e-13
0.000133927
-3.79171e-06
5.56796e-06
-1.80601e-06
0.000133927
-3.79171e-06
5.34154e-06
-2.52404e-06
0.0001628
3.17437e-06
-2.98743e-06
0.000181642
-7.78225e-14
-3.17437e-06
0.000190648
-3.17437e-06
-3.17437e-06
0.000190648
-5.34154e-06
-2.98743e-06
0.000181642
-5.56796e-06
-2.52404e-06
0.0001628
-1.80601e-06
0.000133927
-3.79171e-06
5.10333e-06
-2.93654e-06
0.000125443
-3.45295e-06
4.95623e-06
-4.13753e-06
0.000153699
2.98743e-06
-4.95623e-06
0.000172437
-1.04483e-13
-5.34154e-06
0.000181642
-2.98743e-06
-5.34154e-06
0.000181642
-4.95623e-06
-4.95623e-06
0.000172437
-5.10333e-06
-4.13753e-06
0.000153699
-2.93654e-06
0.000125443
-3.45295e-06
4.20871e-06
-2.98521e-06
0.000109321
-2.85467e-06
4.13753e-06
-4.20871e-06
0.000135674
2.52404e-06
-5.10333e-06
0.000153699
-1.41352e-13
-5.56796e-06
0.0001628
-2.52404e-06
-5.56796e-06
0.0001628
-4.13753e-06
-5.10333e-06
0.000153699
-4.20871e-06
-4.20871e-06
0.000135674
-2.98521e-06
0.000109321
-2.85467e-06
2.98521e-06
8.73785e-05
-2.11152e-06
-2.11152e-06
2.93654e-06
0.000109321
-2.85467e-06
1.80601e-06
0.000125443
-3.45295e-06
-1.63666e-13
0.000133927
-3.79171e-06
-1.80601e-06
0.000133927
-3.79171e-06
-2.93654e-06
0.000125443
-3.45295e-06
-2.98521e-06
0.000109321
-2.85467e-06
8.73785e-05
-2.11152e-06
-2.11152e-06
1.75855e-06
1.75855e-06
8.68359e-05
-1.48727e-06
-1.48727e-06
1.58507e-06
2.31764e-06
0.000109058
-1.88066e-06
9.44341e-07
2.7317e-06
0.000125519
-2.1672e-06
3.2291e-13
2.94525e-06
0.000134245
-2.31887e-06
-9.44341e-07
2.94525e-06
0.000134245
-2.31887e-06
-1.58507e-06
2.7317e-06
0.000125519
-2.1672e-06
-1.75855e-06
2.31764e-06
0.000109058
-1.88066e-06
1.75855e-06
8.68359e-05
-1.48727e-06
-1.48727e-06
2.31764e-06
1.58508e-06
0.000109058
-1.88066e-06
2.13338e-06
2.13339e-06
0.000136043
1.27625e-06
2.52942e-06
0.000154759
2.70209e-13
2.71285e-06
0.000164309
-1.27625e-06
2.71285e-06
0.000164309
-2.13338e-06
2.52942e-06
0.000154759
-2.31764e-06
2.13339e-06
0.000136043
1.58507e-06
0.000109058
-1.88066e-06
2.7317e-06
9.44342e-07
0.000125519
-2.1672e-06
2.52941e-06
1.27625e-06
0.000154759
1.50567e-06
1.50567e-06
0.000174485
1.74116e-13
1.58998e-06
0.00018427
-1.50567e-06
1.58998e-06
0.00018427
-2.52941e-06
1.50567e-06
0.000174485
-2.7317e-06
1.27625e-06
0.000154759
9.44342e-07
0.000125519
-2.1672e-06
2.94525e-06
1.2462e-12
0.000134245
-2.31887e-06
2.71285e-06
1.35463e-12
0.000164309
1.58997e-06
1.17752e-12
0.00018427
1.01412e-13
1.00838e-12
0.000193828
-1.58997e-06
9.64342e-13
0.000193828
-2.71285e-06
1.04212e-12
0.00018427
-2.94525e-06
1.15604e-12
0.000164309
1.04917e-12
0.000134245
-2.31887e-06
2.94525e-06
-9.4434e-07
0.000134245
-2.31887e-06
2.71285e-06
-1.27624e-06
0.000164309
1.58997e-06
-1.50567e-06
0.00018427
5.82326e-14
-1.58997e-06
0.000193828
-1.58997e-06
-1.58997e-06
0.000193828
-2.71285e-06
-1.50567e-06
0.00018427
-2.94525e-06
-1.27624e-06
0.000164309
-9.4434e-07
0.000134245
-2.31887e-06
2.7317e-06
-1.58507e-06
0.000125519
-2.1672e-06
2.52941e-06
-2.13338e-06
0.000154759
1.50567e-06
-2.52941e-06
0.000174485
2.57424e-14
-2.71285e-06
0.00018427
-1.50567e-06
-2.71285e-06
0.00018427
-2.52941e-06
-2.52941e-06
0.000174485
-2.7317e-06
-2.13338e-06
0.000154759
-1.58507e-06
0.000125519
-2.1672e-06
2.31764e-06
-1.75855e-06
0.000109058
-1.88066e-06
2.13338e-06
-2.31763e-06
0.000136043
1.27625e-06
-2.73169e-06
0.000154759
-6.26317e-15
-2.94525e-06
0.000164309
-1.27625e-06
-2.94525e-06
0.000164309
-2.13338e-06
-2.7317e-06
0.000154759
-2.31764e-06
-2.31763e-06
0.000136043
-1.75855e-06
0.000109058
-1.88066e-06
1.75855e-06
8.68359e-05
-1.48727e-06
-1.48727e-06
1.58507e-06
0.000109058
-1.88066e-06
9.44341e-07
0.000125519
-2.1672e-06
-3.85017e-14
0.000134245
-2.31887e-06
-9.44341e-07
0.000134245
-2.31887e-06
-1.58507e-06
0.000125519
-2.1672e-06
-1.75855e-06
0.000109058
-1.88066e-06
8.68359e-05
-1.48727e-06
-1.48727e-06
6.09094e-07
6.09094e-07
8.65409e-05
-4.61558e-07
-4.61558e-07
5.88221e-07
8.41815e-07
0.000108839
-6.01562e-07
3.62056e-07
1.02624e-06
0.000125434
-7.14691e-07
-2.55786e-14
1.12581e-06
0.00013426
-7.78511e-07
-3.62056e-07
1.12581e-06
0.00013426
-7.78511e-07
-5.88221e-07
1.02624e-06
0.000125434
-7.14691e-07
-6.09094e-07
8.41815e-07
0.000108839
-6.01562e-07
6.09094e-07
8.65409e-05
-4.61559e-07
-4.61558e-07
8.41814e-07
5.88222e-07
0.000108839
-6.01562e-07
8.30744e-07
8.30745e-07
0.000136065
5.13706e-07
1.01887e-06
0.000155083
-3.74147e-14
1.11174e-06
0.000164837
-5.13707e-07
1.11174e-06
0.000164837
-8.30744e-07
1.01887e-06
0.000155083
-8.41814e-07
8.30745e-07
0.000136065
5.88222e-07
0.000108839
-6.01563e-07
1.02624e-06
3.62058e-07
0.000125434
-7.1469e-07
1.01887e-06
5.13708e-07
0.000155083
6.28552e-07
6.28553e-07
0.000175266
-6.67674e-14
6.77036e-07
0.000185334
-6.28552e-07
6.77036e-07
0.000185334
-1.01887e-06
6.28553e-07
0.000175266
-1.02624e-06
5.13708e-07
0.000155083
3.62058e-07
0.000125434
-7.14692e-07
1.12581e-06
1.24739e-12
0.00013426
-7.7851e-07
1.11173e-06
1.42363e-12
0.000164837
6.77035e-07
1.29199e-12
0.000185334
-8.47551e-14
1.15414e-12
0.000195182
-6.77035e-07
1.13957e-12
0.000195182
-1.11173e-06
1.25887e-12
0.000185334
-1.12581e-06
1.40709e-12
0.000164837
1.29136e-12
0.00013426
-7.78511e-07
1.12581e-06
-3.62055e-07
0.00013426
-7.7851e-07
1.11173e-06
-5.13705e-07
0.000164837
6.77035e-07
-6.28551e-07
0.000185334
-9.88149e-14
-6.77034e-07
0.000195182
-6.77035e-07
-6.77034e-07
0.000195182
-1.11173e-06
-6.28551e-07
0.000185334
-1.12581e-06
-5.13705e-07
0.000164837
-3.62055e-07
0.00013426
-7.78511e-07
1.02624e-06
-5.8822e-07
0.000125434
-7.1469e-07
1.01887e-06
-8.30743e-07
0.000155083
6.28552e-07
-1.01887e-06
0.000175266
-1.13094e-13
-1.11173e-06
0.000185334
-6.28552e-07
-1.11173e-06
0.000185334
-1.01887e-06
-1.01887e-06
0.000175266
-1.02624e-06
-8.30743e-07
0.000155083
-5.8822e-07
0.000125434
-7.14691e-07
8.41814e-07
-6.09093e-07
0.000108839
-6.01562e-07
8.30744e-07
-8.41813e-07
0.000136065
5.13706e-07
-1.02624e-06
0.000155083
-1.34034e-13
-1.12581e-06
0.000164837
-5.13707e-07
-1.12581e-06
0.000164837
-8.30744e-07
-1.02624e-06
0.000155083
-8.41814e-07
-8.41813e-07
0.000136065
-6.09093e-07
0.000108839
-6.01563e-07
6.09094e-07
8.65409e-05
-4.61558e-07
-4.61558e-07
5.88221e-07
0.000108839
-6.01562e-07
3.62056e-07
0.000125434
-7.1469e-07
-1.47174e-13
0.00013426
-7.7851e-07
-3.62057e-07
0.00013426
-7.7851e-07
-5.88221e-07
0.000125434
-7.1469e-07
-6.09094e-07
0.000108839
-6.01562e-07
8.65409e-05
-4.61558e-07
-4.61558e-07
3.37042e-07
3.37043e-07
8.64326e-05
-2.8288e-07
-2.8288e-07
3.05727e-07
4.42556e-07
0.000108783
-3.55841e-07
1.82771e-07
5.24016e-07
0.000125443
-4.10568e-07
2.57745e-13
5.67997e-07
0.000134315
-4.40394e-07
-1.8277e-07
5.67997e-07
0.000134315
-4.40394e-07
-3.05727e-07
5.24016e-07
0.000125443
-4.10568e-07
-3.37042e-07
4.42555e-07
0.000108783
-3.5584e-07
3.37043e-07
8.64326e-05
-2.82881e-07
-2.8288e-07
4.42554e-07
3.05729e-07
0.000108783
-3.5584e-07
4.11361e-07
4.11363e-07
0.000136127
2.48164e-07
4.93895e-07
0.000155277
2.13432e-13
5.35806e-07
0.000165117
-2.48164e-07
5.35806e-07
0.000165117
-4.11361e-07
4.93895e-07
0.000155277
-4.42554e-07
4.11362e-07
0.000136127
3.05728e-07
0.000108783
-3.55841e-07
5.24015e-07
1.82772e-07
0.000125443
-4.10567e-07
4.93893e-07
2.48166e-07
0.000155277
2.99349e-07
2.9935e-07
0.000175655
1.26005e-13
3.22832e-07
0.000185846
-2.99349e-07
3.22832e-07
0.000185846
-4.93893e-07
2.9935e-07
0.000175655
-5.24015e-07
2.48165e-07
0.000155277
1.82772e-07
0.000125443
-4.10568e-07
5.67996e-07
1.80178e-12
0.000134315
-4.40393e-07
5.35805e-07
1.9723e-12
0.000165117
3.22831e-07
1.74331e-12
0.000185846
6.08012e-14
1.52114e-12
0.000195828
-3.22831e-07
1.47358e-12
0.000195828
-5.35805e-07
1.60783e-12
0.000185846
-5.67996e-07
1.76145e-12
0.000165117
1.58499e-12
0.000134315
-4.40394e-07
5.67996e-07
-1.82769e-07
0.000134315
-4.40393e-07
5.35805e-07
-2.48162e-07
0.000165117
3.22831e-07
-2.99347e-07
0.000185846
1.61019e-14
-3.22829e-07
0.000195828
-3.22831e-07
-3.22829e-07
0.000195828
-5.35805e-07
-2.99347e-07
0.000185846
-5.67996e-07
-2.48162e-07
0.000165117
-1.82769e-07
0.000134315
-4.40394e-07
5.24015e-07
-3.05726e-07
0.000125443
-4.10567e-07
4.93893e-07
-4.11359e-07
0.000155277
2.99349e-07
-4.93891e-07
0.000175655
-1.79788e-14
-5.35803e-07
0.000185846
-2.99349e-07
-5.35803e-07
0.000185846
-4.93893e-07
-4.93892e-07
0.000175655
-5.24015e-07
-4.11359e-07
0.000155277
-3.05726e-07
0.000125443
-4.10568e-07
4.42554e-07
-3.3704e-07
0.000108783
-3.55839e-07
4.11361e-07
-4.42552e-07
0.000136127
2.48164e-07
-5.24013e-07
0.000155277
-6.3121e-14
-5.67994e-07
0.000165117
-2.48164e-07
-5.67994e-07
0.000165117
-4.11361e-07
-5.24013e-07
0.000155277
-4.42554e-07
-4.42553e-07
0.000136127
-3.3704e-07
0.000108783
-3.5584e-07
3.37042e-07
8.64326e-05
-2.8288e-07
-2.82879e-07
3.05727e-07
0.000108783
-3.55839e-07
1.8277e-07
0.000125443
-4.10567e-07
-8.87352e-14
0.000134315
-4.40393e-07
-1.8277e-07
0.000134315
-4.40393e-07
-3.05727e-07
0.000125443
-4.10567e-07
-3.37042e-07
0.000108783
-3.5584e-07
8.64326e-05
-2.8288e-07
-2.8288e-07
1.51348e-07
1.5135e-07
8.63735e-05
-1.21836e-07
-1.21836e-07
1.40339e-07
2.02145e-07
0.000108747
-1.55427e-07
8.45677e-08
2.41371e-07
0.000125439
-1.81513e-07
-1.14331e-13
2.62704e-07
0.000134333
-1.96085e-07
-8.4568e-08
2.62704e-07
0.000134333
-1.96085e-07
-1.4034e-07
2.41371e-07
0.000125439
-1.81513e-07
-1.51349e-07
2.02145e-07
0.000108747
-1.55427e-07
1.5135e-07
8.63735e-05
-1.21837e-07
-1.21836e-07
2.02143e-07
1.40341e-07
0.000108747
-1.55425e-07
1.91011e-07
1.91013e-07
0.00013615
1.15755e-07
2.30229e-07
0.000155363
-1.00063e-13
2.50411e-07
0.000165245
-1.15755e-07
2.50411e-07
0.000165245
-1.91011e-07
2.30229e-07
0.000155363
-2.02144e-07
1.91013e-07
0.00013615
1.40341e-07
0.000108747
-1.55427e-07
2.41369e-07
8.45697e-08
0.000125439
-1.81511e-07
2.30227e-07
1.15757e-07
0.000155363
1.40054e-07
1.40056e-07
0.000175835
-1.01828e-13
1.51654e-07
0.000186085
-1.40054e-07
1.51654e-07
0.000186085
-2.30228e-07
1.40056e-07
0.000175835
-2.4137e-07
1.15757e-07
0.000155363
8.45698e-08
0.000125439
-1.81512e-07
2.62702e-07
1.70572e-12
0.000134333
-1.96083e-07
2.50409e-07
1.93992e-12
0.000165245
1.51653e-07
1.77043e-12
0.000186085
-1.01446e-13
1.59592e-12
0.000196131
-1.51653e-07
1.58341e-12
0.000196131
-2.50409e-07
1.75698e-12
0.000186085
-2.62703e-07
1.94539e-12
0.000165245
1.77113e-12
0.000134333
-1.96084e-07
2.62702e-07
-8.45664e-08
0.000134333
-1.96083e-07
2.50409e-07
-1.15754e-07
0.000165245
1.51653e-07
-1.40052e-07
0.000186085
-1.12817e-13
-1.51651e-07
0.000196131
-1.51653e-07
-1.51651e-07
0.000196131
-2.50409e-07
-1.40052e-07
0.000186085
-2.62703e-07
-1.15754e-07
0.000165245
-8.45663e-08
0.000134333
-1.96084e-07
2.41369e-07
-1.40338e-07
0.000125439
-1.81511e-07
2.30228e-07
-1.9101e-07
0.000155363
1.40054e-07
-2.30226e-07
0.000175835
-1.25317e-13
-2.50407e-07
0.000186085
-1.40054e-07
-2.50407e-07
0.000186085
-2.30228e-07
-2.30226e-07
0.000175835
-2.4137e-07
-1.9101e-07
0.000155363
-1.40338e-07
0.000125439
-1.81512e-07
2.02144e-07
-1.51347e-07
0.000108747
-1.55425e-07
1.91011e-07
-2.02142e-07
0.00013615
1.15755e-07
-2.41368e-07
0.000155363
-1.55935e-13
-2.62701e-07
0.000165245
-1.15756e-07
-2.62701e-07
0.000165245
-1.91012e-07
-2.41368e-07
0.000155363
-2.02144e-07
-2.02142e-07
0.00013615
-1.51347e-07
0.000108747
-1.55426e-07
1.51348e-07
8.63735e-05
-1.21836e-07
-1.21835e-07
1.4034e-07
0.000108747
-1.55425e-07
8.45679e-08
0.000125439
-1.81511e-07
-1.71108e-13
0.000134333
-1.96083e-07
-8.45682e-08
0.000134333
-1.96083e-07
-1.4034e-07
0.000125439
-1.81511e-07
-1.51348e-07
0.000108747
-1.55425e-07
8.63735e-05
-1.21836e-07
-1.21836e-07
7.9033e-08
7.90344e-08
8.63467e-05
-6.56222e-08
-6.56223e-08
7.18496e-08
1.04054e-07
0.000108733
-8.28794e-08
4.28782e-08
1.23074e-07
0.000125441
-9.59204e-08
6.11607e-13
1.3333e-07
0.000134345
-1.03102e-07
-4.2877e-08
1.3333e-07
0.000134345
-1.03102e-07
-7.18487e-08
1.23073e-07
0.000125441
-9.592e-08
-7.90324e-08
1.04053e-07
0.000108733
-8.28786e-08
7.90337e-08
8.63467e-05
-6.56222e-08
-6.56221e-08
1.04052e-07
7.18513e-08
0.000108733
-8.2878e-08
9.6421e-08
9.64231e-08
0.000136165
5.78784e-08
1.15181e-07
0.000155409
5.65174e-13
1.24754e-07
0.000165311
-5.78774e-08
1.24754e-07
0.000165311
-9.64203e-08
1.15181e-07
0.000155409
-1.04051e-07
9.64226e-08
0.000136165
7.18507e-08
0.000108733
-8.28789e-08
1.23072e-07
4.28799e-08
0.000125441
-9.59188e-08
1.15179e-07
5.78804e-08
0.000155409
6.94189e-08
6.94208e-08
0.000175927
4.17128e-13
7.49053e-08
0.000186204
-6.94182e-08
7.49052e-08
0.000186204
-1.15179e-07
6.94205e-08
0.000175927
-1.23072e-07
5.788e-08
0.000155409
4.28794e-08
0.000125441
-9.59198e-08
1.33328e-07
2.26654e-12
0.000134345
-1.031e-07
1.24752e-07
2.47112e-12
0.000165311
7.49036e-08
2.17584e-12
0.000186204
2.97149e-13
1.88925e-12
0.000196281
-7.49031e-08
1.81515e-12
0.000196281
-1.24752e-07
1.94887e-12
0.000186204
-1.33328e-07
2.11023e-12
0.000165311
1.86811e-12
0.000134345
-1.03101e-07
1.33328e-07
-4.28755e-08
0.000134345
-1.031e-07
1.24752e-07
-5.78756e-08
0.000165311
7.49036e-08
-6.94165e-08
0.000186204
2.24491e-13
-7.49015e-08
0.000196281
-7.49032e-08
-7.49015e-08
0.000196281
-1.24752e-07
-6.94167e-08
0.000186204
-1.33329e-07
-5.78759e-08
0.000165311
-4.28758e-08
0.000134345
-1.03101e-07
1.23072e-07
-7.18472e-08
0.000125441
-9.59188e-08
1.15179e-07
-9.64185e-08
0.000155409
6.94188e-08
-1.15177e-07
0.000175927
1.79429e-13
-1.2475e-07
0.000186204
-6.94185e-08
-1.2475e-07
0.000186204
-1.15179e-07
-1.15177e-07
0.000175927
-1.23072e-07
-9.64188e-08
0.000155409
-7.18473e-08
0.000125441
-9.59198e-08
1.04051e-07
-7.90311e-08
0.000108733
-8.28776e-08
9.64209e-08
-1.0405e-07
0.000136165
5.78781e-08
-1.2307e-07
0.000155409
1.38448e-13
-1.33327e-07
0.000165311
-5.78779e-08
-1.33327e-07
0.000165311
-9.64207e-08
-1.2307e-07
0.000155409
-1.04051e-07
-1.0405e-07
0.000136165
-7.90312e-08
0.000108733
-8.28784e-08
7.90325e-08
8.63467e-05
-6.56213e-08
-6.56209e-08
7.18492e-08
0.000108733
-8.28772e-08
4.28778e-08
0.000125441
-9.59182e-08
8.23011e-14
0.000134345
-1.031e-07
-4.28776e-08
0.000134345
-1.031e-07
-7.18491e-08
0.000125441
-9.59185e-08
-7.90323e-08
0.000108733
-8.28776e-08
8.63467e-05
-6.56213e-08
-6.56216e-08
3.80806e-08
3.80823e-08
8.63326e-05
-3.10247e-08
-3.10245e-08
3.50232e-08
5.06166e-08
0.000108725
-3.94624e-08
2.10079e-08
6.01987e-08
0.000125441
-4.59522e-08
3.18099e-13
6.5371e-08
0.00013435
-4.95576e-08
-2.10073e-08
6.53709e-08
0.00013435
-4.95575e-08
-3.50228e-08
6.01984e-08
0.000125441
-4.59519e-08
-3.80804e-08
5.06162e-08
0.000108725
-3.94618e-08
3.8082e-08
8.63326e-05
-3.10249e-08
-3.10243e-08
5.06143e-08
3.50254e-08
0.000108725
-3.94606e-08
4.73936e-08
4.73961e-08
0.000136171
2.85615e-08
5.68266e-08
0.000155432
3.00265e-13
6.16252e-08
0.000165344
-2.8561e-08
6.16251e-08
0.000165344
-4.73933e-08
5.68264e-08
0.000155432
-5.06143e-08
4.73958e-08
0.000136171
3.50251e-08
0.000108725
-3.94615e-08
6.01962e-08
2.101e-08
0.000125441
-4.59499e-08
5.68242e-08
2.85639e-08
0.000155432
3.43453e-08
3.43475e-08
0.000175971
1.96233e-13
3.70869e-08
0.000186263
-3.4345e-08
3.70869e-08
0.000186263
-5.68241e-08
3.43473e-08
0.000175971
-6.01963e-08
2.85637e-08
0.000155432
2.10098e-08
0.000125441
-4.59508e-08
6.53687e-08
2.07347e-12
0.00013435
-4.95553e-08
6.1623e-08
2.32694e-12
0.000165344
3.7085e-08
2.09347e-12
0.000186263
1.20436e-13
1.85739e-12
0.000196355
-3.70848e-08
1.80906e-12
0.000196355
-6.16229e-08
1.96517e-12
0.000186263
-6.53688e-08
2.14075e-12
0.000165344
1.9201e-12
0.00013435
-4.95561e-08
6.53688e-08
-2.10059e-08
0.00013435
-4.95554e-08
6.16231e-08
-2.85593e-08
0.000165344
3.7085e-08
-3.43433e-08
0.000186263
7.2747e-14
-3.70832e-08
0.000196355
-3.70849e-08
-3.70832e-08
0.000196355
-6.1623e-08
-3.43434e-08
0.000186263
-6.53688e-08
-2.85595e-08
0.000165344
-2.10061e-08
0.00013435
-4.95561e-08
6.01965e-08
-3.50216e-08
0.000125441
-4.59502e-08
5.68244e-08
-4.73918e-08
0.000155432
3.43453e-08
-5.68226e-08
0.000175971
4.89464e-14
-6.16215e-08
0.000186263
-3.43452e-08
-6.16215e-08
0.000186263
-5.68243e-08
-5.68227e-08
0.000175971
-6.01964e-08
-4.7392e-08
0.000155432
-3.50218e-08
0.000125441
-4.59507e-08
5.06144e-08
-3.80793e-08
0.000108725
-3.94605e-08
4.73938e-08
-5.06128e-08
0.000136171
2.85615e-08
-6.0195e-08
0.000155432
2.55182e-14
-6.53675e-08
0.000165344
-2.85615e-08
-6.53675e-08
0.000165344
-4.73937e-08
-6.01952e-08
0.000155432
-5.06143e-08
-5.06131e-08
0.000136171
-3.80795e-08
0.000108725
-3.94609e-08
3.80805e-08
8.63326e-05
-3.10236e-08
-3.10235e-08
3.50233e-08
0.000108725
-3.946e-08
2.10078e-08
0.000125441
-4.59496e-08
-1.82327e-14
0.00013435
-4.95551e-08
-2.10079e-08
0.00013435
-4.95552e-08
-3.50233e-08
0.000125441
-4.59499e-08
-3.80804e-08
0.000108725
-3.94604e-08
8.63326e-05
-3.1024e-08
-3.10238e-08
1.96295e-08
1.96311e-08
8.63257e-05
-1.6166e-08
-1.6166e-08
1.79429e-08
2.59691e-08
0.000108722
-2.04876e-08
1.07363e-08
3.08014e-08
0.000125441
-2.37791e-08
9.44771e-13
3.34041e-08
0.000134353
-2.55969e-08
-1.07345e-08
3.34038e-08
0.000134353
-2.55966e-08
-1.79415e-08
3.08007e-08
0.000125441
-2.37783e-08
-1.96285e-08
2.5968e-08
0.000108722
-2.04863e-08
1.96299e-08
8.63257e-05
-1.61656e-08
-1.61653e-08
2.59669e-08
1.79448e-08
0.000108722
-2.04858e-08
2.41868e-08
2.41891e-08
0.000136175
1.45478e-08
2.89465e-08
0.000155443
8.34524e-13
3.13604e-08
0.00016536
-1.45463e-08
3.13603e-08
0.00016536
-2.41857e-08
2.8946e-08
0.000155443
-2.59662e-08
2.41882e-08
0.000136175
1.79438e-08
0.000108722
-2.04862e-08
3.07992e-08
1.0738e-08
0.000125441
-2.37771e-08
2.89444e-08
1.45499e-08
0.000155443
1.74636e-08
1.74656e-08
0.000175994
5.79615e-13
1.88402e-08
0.000186293
-1.74626e-08
1.884e-08
0.000186293
-2.89436e-08
1.74651e-08
0.000175994
-3.07988e-08
1.45492e-08
0.000155443
1.07372e-08
0.000125441
-2.37778e-08
3.3402e-08
2.52647e-12
0.000134353
-2.5595e-08
3.13585e-08
2.69217e-12
0.00016536
1.88384e-08
2.31146e-12
0.000186293
3.86363e-13
1.95757e-12
0.000196393
-1.88377e-08
1.84227e-12
0.000196393
-3.1358e-08
1.95456e-12
0.000186293
-3.34018e-08
2.09202e-12
0.00016536
1.83799e-12
0.000134353
-2.55958e-08
3.3402e-08
-1.07331e-08
0.000134353
-2.55949e-08
3.13585e-08
-1.45446e-08
0.00016536
1.88384e-08
-1.7461e-08
0.000186293
2.71754e-13
-1.88362e-08
0.000196393
-1.88379e-08
-1.88363e-08
0.000196393
-3.13582e-08
-1.74613e-08
0.000186293
-3.34019e-08
-1.45451e-08
0.00016536
-1.07336e-08
0.000134353
-2.55959e-08
3.0799e-08
-1.79402e-08
0.000125441
-2.37769e-08
2.89442e-08
-2.4184e-08
0.000155443
1.74634e-08
-2.89421e-08
0.000175994
2.05908e-13
-3.13565e-08
0.000186293
-1.7463e-08
-3.13566e-08
0.000186293
-2.8944e-08
-2.89423e-08
0.000175994
-3.0799e-08
-2.41844e-08
0.000155443
-1.79404e-08
0.000125441
-2.37779e-08
2.59664e-08
-1.96273e-08
0.000108722
-2.04851e-08
2.41864e-08
-2.59646e-08
0.000136175
1.45473e-08
-3.07973e-08
0.000155443
1.47144e-13
-3.34003e-08
0.00016536
-1.4547e-08
-3.34004e-08
0.00016536
-2.41863e-08
-3.07975e-08
0.000155443
-2.59664e-08
-2.5965e-08
0.000136175
-1.96275e-08
0.000108722
-2.04859e-08
1.96287e-08
8.63257e-05
-1.61647e-08
-1.61642e-08
1.79423e-08
0.000108722
-2.04847e-08
1.07355e-08
0.000125441
-2.37763e-08
8.08519e-14
0.000134353
-2.55944e-08
-1.07354e-08
0.000134353
-2.55944e-08
-1.79422e-08
0.000125441
-2.37766e-08
-1.96286e-08
0.000108722
-2.04851e-08
8.63257e-05
-1.61646e-08
-1.6165e-08
9.77391e-09
9.77526e-09
8.63221e-05
-7.98451e-09
-7.9843e-09
8.98181e-09
1.29826e-08
0.00010872
-1.01454e-08
5.38862e-09
1.54378e-08
0.000125441
-1.18031e-08
-1.43756e-14
1.67631e-08
0.000134355
-1.27221e-08
-5.38863e-09
1.67631e-08
0.000134355
-1.27221e-08
-8.98191e-09
1.54377e-08
0.000125441
-1.1803e-08
-9.77409e-09
1.29825e-08
0.00010872
-1.01453e-08
9.77523e-09
8.63221e-05
-7.98492e-09
-7.9844e-09
1.29807e-08
8.98367e-09
0.00010872
-1.01442e-08
1.21562e-08
1.21583e-08
0.000136177
7.3309e-09
1.45846e-08
0.000155449
-1.98848e-14
1.58187e-08
0.000165369
-7.33099e-09
1.58187e-08
0.000165369
-1.21564e-08
1.45845e-08
0.000155449
-1.29811e-08
1.21582e-08
0.000136177
8.98364e-09
0.00010872
-1.01452e-08
1.54359e-08
5.39051e-09
0.000125441
-1.18015e-08
1.45826e-08
7.33299e-09
0.000155449
8.82138e-09
8.82329e-09
0.000176006
-6.81741e-14
9.52824e-09
0.000186308
-8.82153e-09
9.52822e-09
0.000186308
-1.45829e-08
8.82322e-09
0.000176006