/*--------------------------------*- C++ -*----------------------------------*\
| =========                 |                                                 |
| \\      /  F ield         | OpenFOAM: The Open Source CFD Toolbox           |
|  \\    /   O peration     | Version:  2406                                  |
|   \\  /    A nd           | Website:  www.openfoam.com                      |
|    \\/     M anipulation  |                                                 |
\*---------------------------------------------------------------------------*/
FoamFile
{
    version     2.0;
    format      ascii;
    arch        "LSB;label=32;scalar=64";
    class       volScalarField;
    location    "250";
    object      div(phi);
}
// * * * * * * * * * * * * * * * * * * * * * * * * * * * * * * * * * * * * * //

dimensions      [0 0 -1 0 0 0 0];

internalField   nonuniform List<scalar> 
25000
(
0.155329
0.0128456
0.00413575
0.00203796
-0.000131171
-0.000367983
-0.00049976
-0.000755821
-0.000647054
-0.000900756
-0.000484246
-0.00170237
0.00122751
0.000739799
0.000602837
4.53899e-05
-0.000245903
-0.000196922
-0.000348266
-0.00035325
-0.00654083
-0.00117543
0.000819374
0.000980359
0.000692266
0.000275931
0.000127588
-0.000177044
-0.000255796
-0.000270991
-0.00143404
-0.00117423
7.27479e-05
0.000948517
0.000778445
0.000561897
8.21288e-05
-2.66766e-05
-8.03548e-05
-0.000209909
-0.00304666
-0.00112927
0.00050483
0.000664371
0.000804319
0.00042572
0.00036648
0.000119917
-7.84305e-05
-7.8899e-05
-0.000616605
-0.00045043
-0.000165048
0.000770117
0.000517587
0.000657089
0.000266513
0.000120138
0.000106904
-2.31032e-05
-0.00123732
-0.000831505
0.00030404
5.43783e-05
0.000566627
0.000186769
0.000210191
0.000163885
-9.89247e-06
6.13148e-06
-0.000255595
-0.000495972
-0.000401457
0.000134178
5.08695e-05
9.2454e-05
0.000122907
-0.000107945
1.44251e-05
-2.12432e-05
-0.00112776
-0.000550333
-0.00050331
3.57035e-05
-0.000167099
0.000106043
-0.000245514
-1.52872e-05
-0.000169962
-0.00010753
-0.000330881
5.34946e-06
0.000301972
0.000159983
0.000288937
4.86181e-05
8.3672e-05
-7.36576e-05
-0.000154405
-0.00020165
-0.00173448
0.000138231
0.000664688
0.00111504
0.000406629
0.000434481
0.000320487
-1.65026e-05
0.000141717
0.000117696
-0.000967343
-0.000702451
0.000619123
0.000171212
0.000681441
0.00012487
0.000107624
0.000140263
-1.94881e-05
0.000230465
-0.0024199
-0.000601934
0.000402228
0.000462245
0.000392382
0.000357251
0.00020403
5.78865e-05
0.000105073
0.000169389
-0.00030347
-0.000501193
-0.000353542
0.000411971
0.000478545
0.000342886
0.00020589
0.000155963
9.92203e-05
0.00019069
-0.00177063
-0.000996211
0.000204597
0.000164686
0.000379961
0.000330406
0.000259513
0.000176355
0.000154997
0.000213271
-0.000243179
-0.000388314
-0.000603766
0.000288587
0.000159278
0.000322174
0.000196746
0.000168303
0.000166064
0.000249189
-0.00112069
-0.00107787
-7.00993e-05
-0.000435647
0.000125493
-7.07091e-05
7.46524e-06
6.29625e-05
9.62519e-05
0.000210185
-0.000321918
-0.000738367
-0.000819575
-0.000285422
-0.000315808
-0.000209731
-7.15952e-05
-0.00013672
3.41103e-05
0.00016578
-0.00125821
-0.000789595
-0.000795022
-0.000238259
-0.000393656
-5.88015e-05
-0.000331905
-4.8219e-05
-8.04868e-05
8.93057e-05
-0.000369206
-0.000105366
0.000197724
9.27057e-05
0.000273794
7.51142e-05
0.000163239
6.84598e-05
7.12212e-05
0.000124488
-0.000394565
-0.000113703
-8.33386e-05
4.73051e-05
8.9845e-05
-9.49008e-06
0.000169487
-0.000227481
-0.000203659
-0.000153862
1.71735e-05
3.15112e-05
0.000304628
0.000140017
0.000221848
0.000137204
-4.37309e-05
-1.33328e-05
-0.000150865
0.000157669
0.000172069
0.000255985
0.000220478
0.000301856
0.000254069
0.000131236
0.000107938
-3.84927e-05
-2.79225e-05
0.000162193
0.000357277
0.000233838
0.000361163
0.000354133
0.000307539
0.000260407
6.94206e-05
5.03802e-05
2.27206e-05
0.000221136
0.000411547
0.000375131
0.000412727
0.000423392
0.000393499
0.000257154
0.000169315
9.7228e-05
8.42707e-05
0.000271891
0.000582826
0.000413329
0.000439709
0.00049854
0.000367516
0.000310443
0.000182053
0.000124883
0.000109028
0.000331185
0.000473742
0.000407619
0.000468619
0.000331703
0.000338981
0.000212539
5.44338e-05
8.56202e-05
8.74592e-05
0.000296258
0.000615515
0.000310864
0.000317334
0.000269316
0.000236756
1.63642e-05
9.88818e-05
-6.26831e-05
1.69253e-05
0.000262378
0.000256338
0.000296434
0.000118044
0.000303099
2.20265e-05
0.000203596
-0.000179283
3.6753e-06
-0.000120875
0.000113095
0.000518685
0.000446883
0.000446733
0.000350151
0.000420589
0.00021745
0.000241171
0.000111798
-2.20962e-06
0.00023663
0.00239326
0.00147196
0.00141166
0.00133462
0.00118826
0.000993249
0.00107966
0.000615772
0.000880633
0.00127794
0.00141097
0.000735559
0.000816549
0.000659736
0.000686246
0.000496505
0.000257322
0.000412244
2.46676e-05
0.000730686
0.00110154
0.000618554
0.00067102
0.000657477
0.000523146
0.000408444
0.000308396
3.60431e-05
0.000221128
0.000536705
0.000940083
0.000579727
0.000559538
0.000569008
0.000523919
0.000358539
0.000137303
0.000177132
5.05983e-06
0.000497513
0.000801061
0.000485322
0.000619158
0.0005765
0.000476673
0.000361009
0.000175771
4.60004e-05
0.000122501
0.000453116
0.000956182
0.000625512
0.000508083
0.000568836
0.00044565
0.000268842
0.000160986
9.09674e-05
7.52819e-05
0.000496478
0.000774553
0.00042607
0.000496536
0.000308426
0.000236341
0.000168201
-5.38619e-05
1.44893e-05
6.6113e-05
0.000497388
0.00100022
0.00033826
0.000229732
0.000160586
0.000116863
-5.8228e-05
-3.64646e-06
-5.2551e-05
7.60809e-05
0.000561559
0.000435893
0.000206465
3.63651e-06
0.000141857
-2.27509e-06
8.68551e-05
-0.000119656
4.56467e-05
2.24314e-05
0.000535355
0.00116659
0.00069224
0.000641479
0.000544758
0.000554194
0.000444386
0.000441881
0.000450296
0.000340635
0.00107767
0.00197422
0.00107384
0.00125908
0.00118776
0.00122805
0.000989865
0.00121421
0.000424198
0.000698687
0.00116632
0.00112511
0.000562819
0.000656414
0.000623882
0.00075469
0.000534464
0.000198517
0.000400123
-0.000227806
0.000754041
0.000827317
0.000328508
0.000495324
0.000562586
0.000474395
0.000389359
0.00024209
-0.000146032
8.78631e-05
0.000585786
0.000670769
0.000339242
0.000344451
0.000431558
0.000459745
0.00028589
4.8835e-06
4.74874e-05
-0.000152299
0.000528833
0.000661539
0.000240498
0.000428334
0.000463327
0.000395683
0.000292323
4.4474e-05
-8.12114e-05
-2.71471e-05
0.00050831
0.000765654
0.000465661
0.000365208
0.000461851
0.00038644
0.000191055
5.75253e-05
-7.66382e-05
8.12385e-07
0.000538032
0.00078595
0.000257035
0.000380563
0.000230783
0.000177724
0.000112019
-0.000230675
-4.23081e-05
-9.51137e-05
0.000573546
0.000921761
0.000266357
0.000134736
0.000110327
9.6925e-05
-0.000170889
-2.4715e-05
-0.000255251
2.53255e-05
0.000656643
0.000511529
9.763e-05
-2.08263e-05
0.000141981
-3.82401e-05
0.000140528
-0.000295329
3.7193e-05
-0.000148863
0.000603935
0.00123254
0.000621574
0.000672759
0.000561937
0.000613685
0.000429646
0.000446861
0.000408219
0.000173977
0.00124687
0.00117477
0.00060879
0.000894954
0.000875468
0.000985856
0.000756451
0.00101807
0.000210236
0.000460604
0.000751195
0.000663759
0.000319589
0.000467644
0.000466519
0.000648829
0.000450071
0.00015683
0.000340937
-0.000240347
0.00061706
0.000448573
0.000120123
0.000308307
0.000421892
0.000376937
0.000328428
0.000211794
-0.000137952
7.95299e-05
0.000490333
0.00035109
0.0001587
0.000197376
0.000311208
0.000373362
0.00024464
1.10905e-05
6.23417e-05
-0.000117389
0.000473463
0.000420032
0.000102119
0.00028747
0.000359095
0.000328503
0.000263728
5.92291e-05
-4.27252e-05
2.29801e-05
0.000464926
0.000493657
0.000322188
0.000264006
0.000377175
0.000333229
0.000183731
8.01855e-05
-1.9361e-05
3.19318e-05
0.000509111
0.000592662
0.000168792
0.000311188
0.000194729
0.000180194
0.000126599
-0.000181281
-5.85327e-06
-3.8239e-05
0.000513821
0.000675606
0.000211619
0.000125271
0.000115947
0.000127204
-0.000154794
2.38527e-05
-0.000224734
2.44563e-05
0.000567661
0.000431341
0.000123096
8.09456e-06
0.000204968
-3.46104e-05
0.00020267
-0.000297993
4.68769e-05
-0.000161826
0.000462855
0.000975597
0.000488837
0.000589483
0.000476746
0.000571802
0.000351154
0.000393409
0.00030764
8.22806e-05
0.000940847
0.00192906
0.00119791
0.00122638
0.00118029
0.00116233
0.00102407
0.00108923
0.000799154
0.00095751
0.0012031
0.0012361
0.000644916
0.000619109
0.000615665
0.000618366
0.000540607
0.000374585
0.000479231
0.000236609
0.000640891
0.000985173
0.000475355
0.000514776
0.000532277
0.00046469
0.000403818
0.000369945
0.000194905
0.000296603
0.000488266
0.000814566
0.000428095
0.000414391
0.000427281
0.000429225
0.000349128
0.00022439
0.000252319
0.000162495
0.000436249
0.000729614
0.000335714
0.000421363
0.000431462
0.000376461
0.000332435
0.000238744
0.000175209
0.00021117
0.000401484
0.000735086
0.000437578
0.000364048
0.000385789
0.000372093
0.000257927
0.000233025
0.000188691
0.000201577
0.000417933
0.000744796
0.000267606
0.000322484
0.000271051
0.000198795
0.000219674
0.000108483
0.000165273
0.00019459
0.000439583
0.000706486
0.000278683
0.00015631
0.000157068
0.000153608
0.000114071
0.000133687
0.00015656
0.000235308
0.00049957
0.000576755
8.37517e-05
0.000129617
0.000124765
0.000170442
0.00015033
0.000149839
0.000209621
0.000239667
0.000548992
0.000865895
0.000451281
0.000439917
0.000446603
0.000419526
0.000426395
0.000421902
0.00047149
0.00046356
0.000898502
-0.000299756
-0.00030168
-7.58713e-06
-3.14792e-05
0.000152112
7.11908e-05
0.000240493
-9.05728e-05
-6.63608e-05
1.22076e-05
-6.11601e-05
-5.76436e-05
-2.41755e-05
9.26618e-05
0.000161809
0.000152477
1.45084e-05
6.5711e-05
-0.000127296
0.000144957
-0.000158259
-0.000172608
-4.94599e-05
5.21294e-05
9.44104e-05
8.04028e-05
7.04589e-05
-4.81322e-05
-2.58046e-05
0.000164386
-4.20651e-05
-0.000129907
-5.03977e-05
2.93731e-05
9.58621e-05
0.00010363
1.04234e-05
1.33653e-05
-1.02207e-06
0.000172617
4.30083e-05
-8.53688e-05
-4.05888e-06
9.25769e-05
0.000121026
0.000110965
5.72319e-05
4.98658e-05
2.74679e-05
0.000213954
8.09599e-05
2.49131e-05
5.96375e-05
0.000104383
0.000156205
0.000114482
9.93251e-05
4.19796e-05
9.55197e-05
0.000237684
0.000249532
-3.58152e-05
5.83841e-05
0.000111801
9.32115e-05
0.000130219
7.50156e-06
9.98328e-05
5.48773e-05
0.000257622
9.05641e-05
6.07638e-05
7.76449e-06
6.92941e-05
0.000123195
3.18763e-05
0.000112415
1.67602e-06
9.74559e-05
0.000276798
0.000240111
-0.000131615
8.83831e-05
0.000102261
0.000108504
0.00016909
-5.17471e-06
0.000109132
9.13791e-06
0.00022893
0.000167358
0.000110715
0.000191788
0.000248932
0.000274185
0.000220736
0.000223396
0.000181591
7.99102e-05
0.000389656
0.0021598
0.00139052
0.00113785
0.00101293
0.000763568
0.000639426
0.000596144
0.000429399
0.000564127
0.000656818
0.00110484
0.00074933
0.000771325
0.00051825
0.000514191
0.00032873
0.000248165
0.000310634
0.000155193
0.000369406
0.000859217
0.000662489
0.000617621
0.000541685
0.000389782
0.00031888
0.000252567
0.000128187
0.0002315
0.000265767
0.000688706
0.000592183
0.000520847
0.000467235
0.000389923
0.000263232
0.000176557
0.000202794
0.000101916
0.000248788
0.00052675
0.000493748
0.000536475
0.00043246
0.000338319
0.000265637
0.000190533
0.00010749
0.000181548
0.000199527
0.000658681
0.00052758
0.000411904
0.000433805
0.000295115
0.000214139
0.000155974
0.000161336
0.000100825
0.000228989
0.000402725
0.000434564
0.000434096
0.000239746
0.00021557
0.000129268
7.30138e-05
4.7487e-05
0.000141834
0.000186393
0.000715314
0.00030225
0.000275721
0.000170079
0.000103217
9.52998e-06
1.67432e-05
4.94714e-05
5.35387e-05
0.00022047
0.000180278
0.000400862
3.14717e-05
0.000163653
-1.54567e-05
4.88813e-05
-3.05928e-05
6.75805e-06
7.46116e-05
0.000158355
0.000709281
0.000427273
0.000365835
0.000217289
0.000227521
0.000152016
0.000155653
0.000174157
0.00016609
0.000316424
-0.000877294
-0.000500245
-0.000348679
-0.000285854
-0.000216608
-0.000236167
-0.000106853
-0.000415833
-0.000352825
-0.00041474
-0.000528494
-0.000174451
-2.88727e-05
-7.3978e-05
4.45479e-05
-4.1273e-05
-0.000114426
-6.1326e-05
-0.000277247
-6.92212e-05
-0.00035953
-0.000105689
-3.67475e-05
9.20575e-06
-1.33285e-06
-5.24189e-06
-5.25933e-05
-0.000174059
-0.000109744
-4.07866e-05
-0.000221004
-2.99795e-05
-3.69137e-06
3.31493e-05
4.28793e-05
-7.93951e-07
-7.85088e-05
-7.02714e-05
-0.000136146
-7.59701e-06
-0.000125389
2.56073e-05
7.14523e-05
7.34053e-05
6.49664e-05
2.87943e-05
-3.65553e-05
-7.90331e-05
-6.83229e-05
1.35406e-05
1.21646e-05
9.67855e-05
8.94275e-05
0.000132304
7.20828e-05
4.15424e-05
-1.85744e-05
-5.81219e-05
-5.72608e-05
4.07923e-05
-1.18225e-05
0.000126951
0.000151301
6.91813e-05
9.02459e-05
2.14963e-05
-9.49135e-05
-4.77926e-05
-8.31032e-05
2.50917e-05
0.0001811
8.92576e-05
0.000121497
7.49412e-05
6.51359e-05
-9.83066e-05
-1.05335e-05
-0.000174428
-9.37061e-05
1.97172e-05
-4.96992e-05
0.000194943
-5.87861e-06
0.000140718
-7.45643e-05
8.34492e-05
-0.000220882
-6.98612e-05
-0.000201284
-8.27085e-05
0.000175276
0.000136373
0.000174661
6.58646e-05
0.000135756
-1.65245e-05
5.22589e-06
-8.6319e-05
-0.000210015
-4.80731e-05
0.00127354
0.000815201
0.000666168
0.000607718
0.000485247
0.000443259
0.000373989
0.000424937
0.000480316
0.000566771
0.000777018
0.000440292
0.000391279
0.0003052
0.000267329
0.000196828
0.000201132
0.000204895
0.000216844
0.000249254
0.000612407
0.000375298
0.000351942
0.000284984
0.000212153
0.000188004
0.000160255
0.000155953
0.000186841
0.000178784
0.000482498
0.000338021
0.000266791
0.000240245
0.000197411
0.000139779
0.000141388
0.000144645
0.000127173
0.000149492
0.000331695
0.000237339
0.000266078
0.000200561
0.000153385
0.000139478
0.000116877
0.000103356
0.000136297
0.000114926
0.000344685
0.000246828
0.00017222
0.000174392
0.000132562
9.38721e-05
0.000104156
0.000114928
9.8314e-05
0.000115272
0.000207564
0.000153805
0.000161266
9.68364e-05
7.14131e-05
6.91456e-05
8.54744e-05
6.72884e-05
0.000125581
0.00011176
0.000269759
0.000112234
7.54468e-05
5.38803e-05
2.74391e-05
6.06523e-05
3.29456e-05
0.000122282
0.000108499
0.00013405
8.896e-05
8.89968e-05
2.077e-05
1.9613e-05
4.64062e-05
3.41824e-06
0.000114246
7.55358e-05
0.00016967
0.000182142
0.000242024
0.000157874
0.000118582
0.000104972
7.76273e-05
0.000118102
0.000116289
0.00017201
0.000240781
0.000258461
-0.0010152
-0.000662874
-0.000487316
-0.00046817
-0.000354339
-0.000344102
-0.000265065
-0.00036691
-0.000409268
-0.000446986
-0.000593135
-0.000275118
-0.000213625
-0.000159766
-0.000114065
-0.000104889
-0.000134656
-0.000147927
-0.000188622
-0.000165461
-0.000511393
-0.00026255
-0.000200492
-0.000144082
-0.000101435
-9.79122e-05
-0.000103613
-0.000120748
-0.000154344
-9.79944e-05
-0.000391594
-0.000222172
-0.000157294
-0.000118782
-9.1205e-05
-6.5885e-05
-9.27694e-05
-0.000115626
-8.20402e-05
-8.59171e-05
-0.000285814
-0.00014923
-0.000134577
-8.51704e-05
-5.29893e-05
-6.32318e-05
-6.96399e-05
-5.15319e-05
-0.000105852
-3.7862e-05
-0.000251753
-0.000126316
-6.68227e-05
-5.02712e-05
-3.60975e-05
-1.85424e-05
-3.85528e-05
-8.28435e-05
-2.37524e-05
-4.17517e-05
-0.000160455
-6.41452e-05
-4.58721e-05
-7.9605e-06
9.01938e-06
-2.46921e-06
-4.52824e-05
7.58523e-06
-7.89078e-05
-8.1026e-06
-0.00016534
-3.6993e-05
-1.46911e-06
1.46436e-05
3.29988e-05
-1.20065e-05
3.24244e-05
-8.14687e-05
-6.47347e-06
-2.33797e-05
-9.19411e-05
-2.66371e-05
1.78728e-05
4.1797e-05
8.70131e-06
5.96855e-05
-6.00833e-05
2.00658e-05
-8.53898e-05
-1.82819e-05
-0.00015172
-4.62002e-05
-1.29522e-05
-3.78319e-06
2.28199e-05
-1.60942e-05
-3.38764e-06
-5.24972e-05
-9.93154e-05
-3.71126e-05
0.00147689
0.000913597
0.000670319
0.000591008
0.000380368
0.000328571
0.00023903
0.000228029
0.000322675
0.000334981
0.000783703
0.000486628
0.000466638
0.00027928
0.000262487
0.000122029
0.0001275
0.000148092
8.80161e-05
0.000148623
0.000640402
0.000438834
0.000395419
0.000298586
0.000181286
0.000154536
9.52926e-05
4.8082e-05
0.000126191
7.324e-05
0.000479185
0.000407576
0.000303172
0.000252156
0.000184117
8.51406e-05
6.94964e-05
8.6599e-05
1.66742e-05
6.1842e-05
0.000327064
0.000304796
0.00031946
0.000205867
0.000131804
9.77121e-05
5.53382e-05
3.46792e-06
7.19368e-05
1.35436e-05
0.000403864
0.000315754
0.000201332
0.00020328
9.77509e-05
4.90519e-05
2.62948e-05
4.8987e-05
-1.04114e-05
2.85556e-05
0.000167912
0.000247326
0.000219707
6.80175e-05
5.30161e-05
-3.04466e-06
-5.46118e-06
-5.15659e-05
3.86204e-05
-8.61465e-06
0.000410323
0.000133753
0.000116679
2.8199e-05
-2.72994e-05
-5.82408e-05
-7.86585e-05
-8.68028e-06
-4.3458e-05
9.83287e-06
-9.0046e-06
0.000233406
-6.58934e-05
1.28299e-05
-9.44518e-05
-7.80594e-05
-5.98066e-05
-8.47462e-05
9.06395e-06
-2.25271e-05
0.000335698
0.000198571
0.000125
1.72614e-05
9.24557e-06
-1.66325e-05
-2.16611e-05
8.53823e-06
3.46855e-05
1.37093e-05
-0.000844098
-0.000562825
-0.000449747
-0.000460106
-0.000421264
-0.000430076
-0.000357131
-0.000526857
-0.00052878
-0.000612875
-0.000520793
-0.0001846
-0.000105164
-0.000150768
-9.27467e-05
-0.00015017
-0.000195904
-0.000187495
-0.000293157
-0.000226725
-0.000465514
-0.000167077
-0.000123476
-9.83722e-05
-9.98146e-05
-0.000111458
-0.000141611
-0.000203576
-0.000192966
-0.000166214
-0.000317757
-0.000131507
-9.62064e-05
-7.43591e-05
-7.24343e-05
-8.4777e-05
-0.000138424
-0.000147793
-0.000164296
-0.000135461
-0.0002685
-7.15108e-05
-5.42399e-05
-4.67468e-05
-3.94463e-05
-7.22631e-05
-0.00010113
-0.000119042
-0.00014163
-0.000100246
-0.000154072
-4.5364e-05
-2.5694e-05
1.47614e-06
-3.61918e-05
-3.46005e-05
-8.22679e-05
-0.000120328
-0.000102001
-8.73297e-05
-0.000185287
-5.79906e-06
1.39511e-05
-2.25478e-05
5.50438e-06
-4.54941e-05
-0.000114986
-8.05078e-05
-0.000136363
-8.84759e-05
-7.45903e-05
-3.11377e-05
7.24184e-06
-5.37083e-06
-6.74916e-06
-0.000106238
-4.93611e-05
-0.0001811
-0.000127083
-0.000101402
-0.000218316
2.27246e-05
-6.40352e-05
2.86081e-05
-9.99539e-05
3.22833e-06
-0.00020225
-0.000106573
-0.000213214
-0.000173999
-0.000160076
-4.19418e-05
-6.42242e-06
-6.00735e-05
-1.1937e-05
-0.000108957
-9.74204e-05
-0.000167145
-0.000257361
-0.000202117
0.00175731
0.00111067
0.000810403
0.000669904
0.000428821
0.000349834
0.000215496
0.000323398
0.000310025
0.000386989
0.00092048
0.000545692
0.000509063
0.000293319
0.000222713
0.000115676
0.000120854
9.18786e-05
0.000187944
0.000139263
0.000662742
0.000502215
0.000416934
0.000311855
0.000201878
0.000137886
0.000107104
0.000138589
0.000127382
0.000106183
0.000538525
0.000418245
0.000343837
0.000281387
0.000195041
0.000131389
0.000123371
0.000106986
0.000120521
8.41719e-05
0.000343178
0.000327476
0.000331019
0.000232135
0.000172306
0.000122782
0.000109588
0.000101986
0.000104227
6.49646e-05
0.000405499
0.000300374
0.000223781
0.000223972
0.000130798
0.000110954
9.4724e-05
9.78718e-05
8.96164e-05
6.07664e-05
0.000191775
0.00023794
0.000228308
0.000116516
0.000111649
5.73748e-05
9.17661e-05
6.58976e-05
0.000100098
6.08806e-05
0.000364844
0.000150849
0.000140033
9.31362e-05
3.34974e-05
6.46335e-05
2.93268e-05
0.000101164
9.06843e-05
7.31205e-05
6.72787e-05
0.000210979
1.94784e-05
5.01365e-05
1.98004e-05
-6.06621e-06
8.44764e-05
5.72018e-05
0.000138168
0.000118266
0.000327411
0.0002079
0.000143566
7.79624e-05
5.35446e-05
7.01897e-05
7.35099e-05
0.000114099
0.000185465
0.000145919
-0.0012007
-0.000704715
-0.000585532
-0.000506009
-0.000418175
-0.00039017
-0.000330307
-0.000340357
-0.00042439
-0.000403832
-0.000679323
-0.00034616
-0.000239391
-0.000232112
-0.000197689
-0.000165018
-0.000181713
-0.000203499
-0.000140133
-0.000170606
-0.000496668
-0.000208746
-0.000197992
-0.000158185
-0.000119299
-0.000136852
-0.000117781
-8.37202e-05
-0.000147288
-8.36645e-05
-0.000308364
-0.000170328
-0.000109291
-9.18959e-05
-8.93443e-05
-5.21005e-05
-7.23982e-05
-0.000100415
-3.38809e-05
-7.01348e-05
-0.000243318
-7.55668e-05
-7.86774e-05
-5.29788e-05
-2.65631e-05
-5.16947e-05
-4.3258e-05
-9.3661e-06
-7.602e-05
-1.77526e-05
-0.000160803
-7.33194e-05
-2.51698e-05
-1.12657e-05
-2.01421e-05
8.616e-06
-1.23996e-05
-5.02313e-05
1.02825e-05
-2.33232e-05
-0.000140177
-1.8015e-05
-3.70465e-06
8.47044e-06
3.51135e-05
7.58839e-06
-1.33232e-05
3.3459e-05
-4.51572e-05
3.08075e-06
-9.94076e-05
-1.46419e-05
1.85392e-05
3.59758e-05
3.77824e-05
1.01324e-05
4.45071e-05
-4.6973e-05
1.27327e-05
-1.12939e-05
-9.93684e-05
-7.9627e-07
1.68454e-05
4.54423e-05
1.13477e-05
5.65937e-05
-4.06591e-05
2.74678e-05
-5.83616e-05
-1.91891e-05
-0.000124107
-2.9683e-05
-8.14452e-07
-4.16966e-06
2.10347e-05
-1.58596e-05
-2.43239e-06
-4.20622e-05
-7.775e-05
-3.94298e-05
0.00102623
0.000638984
0.000444516
0.000398794
0.000258239
0.000231389
0.000138462
0.000241005
0.000257195
0.000285267
0.000579951
0.000295361
0.000260504
0.000151335
0.000108306
5.83155e-05
8.42307e-05
8.07468e-05
0.000143535
0.000100547
0.000484571
0.000295924
0.000234522
0.000166066
0.000100602
7.91324e-05
6.92893e-05
9.22683e-05
0.000116353
6.37726e-05
0.00036861
0.000262184
0.000198764
0.000151875
0.000104399
6.36678e-05
7.68255e-05
9.09269e-05
7.39708e-05
5.7457e-05
0.000255415
0.000203526
0.000194711
0.000126256
8.24971e-05
6.80435e-05
6.8171e-05
5.07258e-05
9.72581e-05
2.35195e-05
0.000272902
0.000190392
0.00012616
0.000114361
6.26062e-05
4.1981e-05
4.7489e-05
8.35422e-05
3.3907e-05
3.5561e-05
0.000134861
0.000141574
0.000120204
4.67608e-05
2.83532e-05
1.45371e-05
4.79956e-05
-2.07842e-06
8.74445e-05
1.46067e-06
0.000229775
7.88273e-05
6.25963e-05
1.53534e-05
-1.35344e-05
2.81972e-06
-3.44482e-05
7.17323e-05
4.28573e-06
2.26901e-05
2.80631e-05
0.000110572
-2.25499e-05
-6.45339e-06
-2.85381e-05
-5.73533e-05
3.32075e-05
-3.67039e-05
7.719e-05
-7.73057e-06
0.00017321
0.000104343
5.64179e-05
1.36705e-05
-8.82992e-06
9.24306e-06
-2.56607e-06
4.43149e-05
8.64105e-05
9.69611e-06
-0.00107721
-0.000719093
-0.000599532
-0.000542804
-0.000455873
-0.000415374
-0.000355622
-0.000367116
-0.000407032
-0.000417759
-0.000679349
-0.000348035
-0.000276807
-0.000250549
-0.000214963
-0.000177344
-0.00018459
-0.000184977
-0.00016453
-0.000189582
-0.000522862
-0.000268151
-0.00025338
-0.000202783
-0.000159028
-0.000155278
-0.000129909
-0.000118918
-0.000143164
-0.000125095
-0.000398071
-0.000234365
-0.000171079
-0.000155196
-0.000133447
-9.284e-05
-0.000105269
-0.000104809
-7.93167e-05
-0.000100881
-0.000290166
-0.000139629
-0.000153733
-0.000112579
-8.31171e-05
-8.89464e-05
-6.96885e-05
-5.90508e-05
-8.08645e-05
-6.90544e-05
-0.000245101
-0.000137052
-8.24937e-05
-7.70953e-05
-6.88864e-05
-4.14845e-05
-5.41955e-05
-6.03521e-05
-4.7581e-05
-5.79601e-05
-0.000184333
-6.1514e-05
-6.62596e-05
-4.41921e-05
-2.50313e-05
-3.42627e-05
-4.86029e-05
-3.60284e-05
-5.73811e-05
-6.32296e-05
-0.000150627
-6.04213e-05
-2.15352e-05
-2.32558e-05
-7.786e-06
-4.62842e-05
-2.22591e-05
-7.14917e-05
-6.89103e-05
-6.17124e-05
-0.000124196
-1.70156e-05
-2.89798e-05
5.24034e-06
-4.60351e-05
-9.50429e-07
-8.85712e-05
-6.28454e-05
-0.000103313
-0.000128203
-0.00014236
-7.65385e-05
-4.80685e-05
-6.06132e-05
-3.34465e-05
-7.22344e-05
-6.9524e-05
-9.51785e-05
-0.000144446
-0.000133613
0.000947878
0.000572666
0.000434274
0.000363829
0.000261977
0.000221301
0.000125274
0.000247632
0.000217346
0.000249123
0.000581281
0.000242815
0.000172235
0.000120667
6.41982e-05
4.64685e-05
7.05533e-05
4.34475e-05
0.000148778
6.89142e-05
0.000402192
0.000180891
0.000137441
8.95341e-05
5.40651e-05
3.87372e-05
4.29135e-05
9.41251e-05
7.80568e-05
4.86112e-05
0.000280247
0.000127795
8.4747e-05
5.94306e-05
3.67478e-05
2.86138e-05
5.59035e-05
5.48605e-05
8.24624e-05
3.32154e-05
0.000164612
5.73368e-05
5.90626e-05
3.09929e-05
1.56207e-05
2.01219e-05
3.85464e-05
5.2918e-05
6.43337e-05
1.79399e-05
0.000119215
4.29353e-05
9.11155e-06
2.55128e-06
2.49124e-06
3.76338e-06
3.01001e-05
5.32523e-05
4.81326e-05
1.39659e-05
7.37631e-05
-1.53864e-05
-1.08766e-05
-1.87202e-05
-2.58947e-05
-6.01346e-06
4.79073e-05
2.64657e-05
7.24046e-05
1.15279e-05
3.34325e-05
-1.66074e-05
-4.63865e-05
-3.49136e-05
-4.31088e-05
2.9499e-05
-6.01523e-06
9.27835e-05
5.51499e-05
2.40392e-05
3.0207e-05
-5.67481e-05
-2.8076e-05
-6.63e-05
9.86652e-06
-5.02631e-05
9.42131e-05
2.94797e-05
0.000122373
6.15034e-05
3.61976e-05
-8.83309e-06
-2.90735e-05
-9.46705e-06
-3.71112e-05
2.21209e-05
1.99741e-05
6.87622e-05
0.000140036
5.20694e-05
-0.00109564
-0.00080388
-0.000639551
-0.000624178
-0.000496134
-0.000457576
-0.000407422
-0.000379143
-0.000442818
-0.000425649
-0.000581726
-0.000357235
-0.000358348
-0.000257931
-0.000259209
-0.000196401
-0.000208756
-0.000230601
-0.000180632
-0.000239412
-0.00056305
-0.000361178
-0.000311035
-0.00026461
-0.00020247
-0.000197456
-0.000168943
-0.000142597
-0.000198329
-0.00017323
-0.000399024
-0.000330446
-0.000267661
-0.000231332
-0.000194159
-0.000136998
-0.000141834
-0.000160869
-0.000105457
-0.000161833
-0.000342933
-0.000265534
-0.000255915
-0.000194201
-0.00014905
-0.000140789
-0.000117203
-8.86181e-05
-0.000141437
-0.000117511
-0.000335413
-0.000249397
-0.000189278
-0.000183055
-0.000125821
-9.67238e-05
-8.92981e-05
-0.000116172
-7.18692e-05
-0.000120584
-0.000217517
-0.000236569
-0.000199122
-0.00011228
-0.000105239
-6.79821e-05
-7.47534e-05
-4.76031e-05
-0.000101316
-9.63087e-05
-0.000370333
-0.000163515
-0.000168611
-0.000103823
-6.30557e-05
-4.52355e-05
-3.60739e-05
-7.40125e-05
-6.08443e-05
-9.96326e-05
-0.000157263
-0.00028691
-6.03272e-05
-0.000108912
-2.46451e-05
-4.5302e-05
-4.40454e-05
-4.88982e-05
-8.46385e-05
-9.81705e-05
-0.000361607
-0.00021564
-0.000178469
-9.7828e-05
-0.000101524
-7.91697e-05
-8.92637e-05
-0.000101073
-0.000122245
-0.000120435
0.0011431
0.000935243
0.000584328
0.000515364
0.000216377
0.000137522
1.3015e-05
2.04713e-06
1.60608e-05
1.59411e-05
0.00050143
0.000447818
0.000499148
0.000181619
0.000151524
-1.24294e-05
-2.7466e-05
-3.41349e-05
-3.67601e-05
-2.67396e-05
0.000360871
0.000487505
0.000371388
0.000260631
0.000115811
4.4048e-05
-1.78003e-05
-4.66299e-05
-1.70889e-05
-5.17656e-05
0.0002674
0.000393484
0.000327956
0.000239011
0.000129156
2.98636e-05
-1.69668e-05
-2.85128e-05
-5.69459e-05
-5.80341e-05
6.83795e-05
0.000332967
0.000318499
0.00018842
0.000108749
2.56739e-05
-1.3797e-05
-5.93068e-05
-4.63739e-05
-7.73976e-05
0.000213621
0.000275109
0.000202776
0.000214121
5.05486e-05
3.09433e-05
-4.24301e-05
-5.39763e-05
-6.93525e-05
-8.03514e-05
-0.000135026
0.000264485
0.000243738
5.44032e-05
8.07786e-05
-5.24495e-05
-5.90587e-05
-8.53299e-05
-8.02712e-05
-8.97601e-05
0.000251634
9.49105e-05
0.000157175
5.98111e-05
-3.261e-05
-8.53302e-05
-9.40116e-05
-0.00011904
-8.94173e-05
-9.70472e-05
-0.00030658
0.00032423
-9.6361e-05
4.21425e-05
-0.000148502
-8.32265e-05
-0.000153707
-0.000107784
-0.000100462
-9.01851e-05
0.000119204
0.000169154
0.000104227
-4.58014e-05
-3.71335e-05
-0.000102431
-9.10773e-05
-9.99484e-05
-8.51783e-05
-8.70706e-05
-0.00139335
-0.000770604
-0.00080527
-0.000686702
-0.000673655
-0.000616242
-0.000551674
-0.00060178
-0.000585679
-0.000549657
-0.000923093
-0.00036654
-0.000211435
-0.000328493
-0.000271199
-0.000305243
-0.000314791
-0.000301528
-0.000322878
-0.00027566
-0.000678192
-0.000147492
-0.000185161
-0.000187759
-0.000200054
-0.000221862
-0.00023853
-0.000252599
-0.000247694
-0.000220526
-0.000445289
-0.000113339
-8.47837e-05
-0.000106963
-0.000146835
-0.000161158
-0.000202055
-0.000213635
-0.000208288
-0.000195599
-0.000420387
-1.5751e-05
-4.79826e-05
-8.69152e-05
-9.57613e-05
-0.000148614
-0.000169955
-0.000179228
-0.000205298
-0.000167331
-0.000262778
-5.88817e-05
-3.22425e-05
-2.07292e-05
-0.000106355
-8.94019e-05
-0.000157252
-0.000194625
-0.00016645
-0.000167838
-0.000404307
4.05169e-05
2.47151e-05
-4.5262e-05
-4.52028e-06
-0.000103328
-0.000166042
-0.00013686
-0.000215554
-0.000162805
-0.000174961
-4.99285e-05
6.27319e-05
4.68533e-06
-2.13156e-05
-0.000143282
-8.77297e-05
-0.000254559
-0.00017701
-0.000181859
-0.000391956
0.00017574
-7.2533e-05
6.0865e-05
-0.000157076
-2.48172e-05
-0.000271209
-0.000144184
-0.000278756
-0.00022072
-0.00027337
-8.19183e-05
-5.43497e-05
-0.000151738
-9.42187e-05
-0.000206248
-0.000180244
-0.000244875
-0.000316966
-0.000210713
0.000372445
0.000341541
0.000127435
0.000109094
-6.23462e-05
-5.08976e-05
-0.000205095
3.00984e-05
-7.03859e-05
-0.000136414
0.000166802
0.000179203
0.000153717
2.57738e-06
-7.73931e-05
-0.000109891
-2.94394e-05
-0.000105271
6.73356e-05
-0.000176223
0.000182472
0.000250098
0.000147057
4.36832e-05
-1.96586e-05
-4.34125e-05
-6.19903e-05
3.5184e-05
-3.24641e-05
-0.000169584
0.000142674
0.000204995
0.000140395
6.48958e-05
-1.94581e-05
-4.59541e-05
9.06926e-06
-3.9984e-05
1.16451e-05
-0.000181303
5.94996e-06
0.00017082
0.000110128
8.01939e-06
-2.96024e-05
-5.0238e-05
-3.07325e-05
-6.0578e-06
-5.80144e-05
-0.000181732
1.72991e-05
6.74768e-05
4.15075e-05
7.14102e-06
-5.76224e-05
-3.33904e-05
-3.48741e-05
-4.57409e-05
-2.7585e-05
-0.000225838
-0.000200153
9.87179e-05
4.59047e-05
2.82583e-06
1.25983e-05
-3.75186e-05
3.82973e-05
1.15037e-05
-6.36615e-05
-0.000188392
-0.000108906
3.55228e-06
6.56869e-05
3.30354e-05
-1.53514e-05
5.37236e-05
1.42315e-05
7.03244e-06
1.4174e-05
-0.000246403
-0.00024764
0.000147114
1.10112e-05
-2.37881e-06
-4.63356e-06
-4.55311e-05
5.92464e-05
3.39791e-05
3.5003e-05
-9.67324e-05
-0.00030261
-0.000112368
-0.000141167
-0.000155857
-0.000180043
-0.000143502
-0.00012726
-0.000158615
-3.05278e-05
-0.00033906
-0.001062
-0.000700656
-0.000739718
-0.000694821
-0.000698449
-0.000603441
-0.000644294
-0.000395113
-0.000538956
-0.000633603
-0.000770506
-0.000332384
-0.000292829
-0.000337612
-0.000356044
-0.000303425
-0.000201414
-0.000292752
-5.86553e-05
-0.000389958
-0.000612613
-0.00019905
-0.000237288
-0.000259851
-0.000228048
-0.000215779
-0.00018332
-4.33874e-05
-0.000161758
-0.000299992
-0.000453262
-0.000177712
-0.000161907
-0.000179826
-0.0002046
-0.000148163
-6.489e-05
-0.000124025
-1.28811e-05
-0.000268241
-0.000438891
-0.000108045
-0.000157919
-0.000185365
-0.000155879
-0.000141246
-8.09568e-05
-1.14665e-05
-9.84888e-05
-0.000217874
-0.000385378
-0.000181301
-0.000137461
-0.000149814
-0.000157806
-8.10015e-05
-5.72687e-05
-6.30252e-05
-2.37844e-05
-0.00025116
-0.000465571
-8.07151e-05
-0.000112658
-9.22893e-05
-4.24529e-05
-6.52178e-05
2.54731e-05
1.89921e-05
-7.07009e-05
-0.00022293