/*--------------------------------*- C++ -*----------------------------------*\
| =========                 |                                                 |
| \\      /  F ield         | OpenFOAM: The Open Source CFD Toolbox           |
|  \\    /   O peration     | Version:  2406                                  |
|   \\  /    A nd           | Website:  www.openfoam.com                      |
|    \\/     M anipulation  |                                                 |
\*---------------------------------------------------------------------------*/
FoamFile
{
    version     2.0;
    format      ascii;
    arch        "LSB;label=32;scalar=64";
    class       volScalarField;
    location    "250";
    object      magR;
}
// * * * * * * * * * * * * * * * * * * * * * * * * * * * * * * * * * * * * * //

dimensions      [0 2 -2 0 0 0 0];

internalField   nonuniform List<scalar> 
25000
(
4.3415e-05
4.15054e-05
3.81429e-05
3.74613e-05
3.7123e-05
3.7131e-05
3.748e-05
3.81501e-05
4.16645e-05
4.35923e-05
4.15352e-05
4.05108e-05
3.70134e-05
3.51709e-05
3.42785e-05
3.42746e-05
3.51534e-05
3.69834e-05
4.04127e-05
4.16256e-05
3.81736e-05
3.70423e-05
3.43401e-05
3.27141e-05
3.19219e-05
3.19193e-05
3.27047e-05
3.43135e-05
3.69654e-05
3.8124e-05
3.74809e-05
3.51812e-05
3.272e-05
3.11239e-05
3.03336e-05
3.03336e-05
3.11184e-05
3.27024e-05
3.51504e-05
3.74596e-05
3.71344e-05
3.42886e-05
3.19253e-05
3.03354e-05
2.95474e-05
2.95471e-05
3.03321e-05
3.19178e-05
3.42702e-05
3.71167e-05
3.71342e-05
3.42804e-05
3.19226e-05
3.03331e-05
2.95469e-05
2.9547e-05
3.03325e-05
3.19183e-05
3.42706e-05
3.71186e-05
3.74798e-05
3.51586e-05
3.27054e-05
3.11194e-05
3.03334e-05
3.0334e-05
3.11192e-05
3.27034e-05
3.5152e-05
3.7465e-05
3.81454e-05
3.69717e-05
3.43173e-05
3.2706e-05
3.1919e-05
3.19191e-05
3.27058e-05
3.43155e-05
3.69677e-05
3.81328e-05
4.16499e-05
4.0417e-05
3.69858e-05
3.5153e-05
3.42715e-05
3.42715e-05
3.5153e-05
3.69843e-05
4.04143e-05
4.16375e-05
4.35975e-05
4.16319e-05
3.8124e-05
3.74589e-05
3.71158e-05
3.71184e-05
3.74652e-05
3.81339e-05
4.16466e-05
4.35896e-05
6.03626e-05
5.83347e-05
5.43227e-05
5.34849e-05
5.30485e-05
5.3051e-05
5.34986e-05
5.43553e-05
5.82141e-05
5.99584e-05
5.83309e-05
5.51325e-05
5.28932e-05
5.19579e-05
5.13561e-05
5.13623e-05
5.19812e-05
5.29996e-05
5.52068e-05
5.82011e-05
5.42983e-05
5.29456e-05
5.1036e-05
5.02454e-05
4.98234e-05
4.98282e-05
5.0267e-05
5.10627e-05
5.29392e-05
5.43654e-05
5.34757e-05
5.19546e-05
5.02516e-05
4.93344e-05
4.88647e-05
4.88725e-05
4.93437e-05
5.0262e-05
5.19843e-05
5.35156e-05
5.30475e-05
5.13521e-05
4.98221e-05
4.88692e-05
4.8418e-05
4.842e-05
4.88707e-05
4.98346e-05
5.13732e-05
5.30701e-05
5.30534e-05
5.1361e-05
4.98269e-05
4.88676e-05
4.84203e-05
4.84217e-05
4.88718e-05
4.98353e-05
5.13737e-05
5.30704e-05
5.35031e-05
5.19779e-05
5.02585e-05
4.93442e-05
4.88765e-05
4.88773e-05
4.9347e-05
5.02641e-05
5.19857e-05
5.35164e-05
5.43556e-05
5.29373e-05
5.10628e-05
5.02706e-05
4.98358e-05
4.98364e-05
5.02725e-05
5.10662e-05
5.29417e-05
5.43668e-05
5.81907e-05
5.52073e-05
5.30022e-05
5.19882e-05
5.13737e-05
5.13742e-05
5.19895e-05
5.30047e-05
5.52099e-05
5.82011e-05
5.9961e-05
5.82304e-05
5.43707e-05
5.35169e-05
5.30711e-05
5.30707e-05
5.3516e-05
5.43697e-05
5.82273e-05
5.99653e-05
5.52662e-05
5.15358e-05
4.9262e-05
4.79869e-05
4.74034e-05
4.74026e-05
4.79932e-05
4.93071e-05
5.1601e-05
5.51704e-05
5.15619e-05
4.81626e-05
4.72537e-05
4.65622e-05
4.60731e-05
4.6076e-05
4.65812e-05
4.73687e-05
4.82295e-05
5.15694e-05
4.92532e-05
4.7332e-05
4.59825e-05
4.52656e-05
4.4821e-05
4.48259e-05
4.52903e-05
4.60043e-05
4.72852e-05
4.93034e-05
4.79792e-05
4.65648e-05
4.52749e-05
4.45143e-05
4.40524e-05
4.4062e-05
4.45246e-05
4.52811e-05
4.65779e-05
4.79988e-05
4.73987e-05
4.60689e-05
4.48205e-05
4.40584e-05
4.36662e-05
4.36684e-05
4.40576e-05
4.48295e-05
4.60827e-05
4.74101e-05
4.74012e-05
4.60745e-05
4.48235e-05
4.40549e-05
4.36683e-05
4.36695e-05
4.40583e-05
4.483e-05
4.60832e-05
4.74104e-05
4.79928e-05
4.65725e-05
4.5278e-05
4.4524e-05
4.40646e-05
4.40653e-05
4.45266e-05
4.52825e-05
4.65792e-05
4.79995e-05
4.93003e-05
4.72838e-05
4.60035e-05
4.52922e-05
4.48303e-05
4.48309e-05
4.52939e-05
4.60068e-05
4.72875e-05
4.93047e-05
5.15673e-05
4.82309e-05
4.73705e-05
4.65859e-05
4.60835e-05
4.60835e-05
4.65862e-05
4.73718e-05
4.82317e-05
5.15691e-05
5.5166e-05
5.16063e-05
4.93124e-05
4.80007e-05
4.74116e-05
4.74111e-05
4.79999e-05
4.93125e-05
5.16057e-05
5.51714e-05
4.18959e-05
3.72635e-05
3.63164e-05
3.49437e-05
3.44425e-05
3.44413e-05
3.49392e-05
3.63369e-05
3.73079e-05
4.18503e-05
3.72803e-05
3.44979e-05
3.41223e-05
3.33758e-05
3.29927e-05
3.29952e-05
3.33902e-05
3.42114e-05
3.45266e-05
3.72708e-05
3.63145e-05
3.41971e-05
3.30774e-05
3.22342e-05
3.17539e-05
3.17577e-05
3.22564e-05
3.30944e-05
3.4135e-05
3.63273e-05
3.49411e-05
3.3383e-05
3.22445e-05
3.14752e-05
3.0995e-05
3.10026e-05
3.14823e-05
3.22466e-05
3.33841e-05
3.49405e-05
3.44421e-05
3.29926e-05
3.17555e-05
3.10012e-05
3.05875e-05
3.05881e-05
3.09973e-05
3.17585e-05
3.29988e-05
3.44467e-05
3.44423e-05
3.29951e-05
3.1757e-05
3.09974e-05
3.05885e-05
3.05886e-05
3.09973e-05
3.17583e-05
3.29984e-05
3.44467e-05
3.49389e-05
3.33811e-05
3.22457e-05
3.14828e-05
3.10044e-05
3.10039e-05
3.14823e-05
3.22457e-05
3.33828e-05
3.49406e-05
3.63284e-05
3.41328e-05
3.30937e-05
3.22574e-05
3.17597e-05
3.17592e-05
3.22562e-05
3.30929e-05
3.41329e-05
3.63277e-05
3.72752e-05
3.45258e-05
3.42121e-05
3.33923e-05
3.29988e-05
3.29981e-05
3.33902e-05
3.42103e-05
3.45248e-05
3.72731e-05
4.18548e-05
3.73084e-05
3.63399e-05
3.49429e-05
3.4447e-05
3.44455e-05
3.49391e-05
3.63352e-05
3.73046e-05
4.18509e-05
3.19781e-05
2.77967e-05
2.71566e-05
2.58465e-05
2.54085e-05
2.54089e-05
2.58358e-05
2.71514e-05
2.78018e-05
3.1923e-05
2.78117e-05
2.55066e-05
2.49669e-05
2.40416e-05
2.36897e-05
2.36926e-05
2.40542e-05
2.50348e-05
2.55031e-05
2.77694e-05
2.71617e-05
2.50337e-05
2.38727e-05
2.28128e-05
2.22887e-05
2.22908e-05
2.28297e-05
2.3886e-05
2.49689e-05
2.71411e-05
2.58432e-05
2.405e-05
2.28224e-05
2.18944e-05
2.13655e-05
2.13697e-05
2.18958e-05
2.28199e-05
2.40451e-05
2.58331e-05
2.54061e-05
2.36895e-05
2.22908e-05
2.13709e-05
2.08684e-05
2.08674e-05
2.1364e-05
2.22887e-05
2.36912e-05
2.54076e-05
2.54065e-05
2.36907e-05
2.22897e-05
2.13658e-05
2.08678e-05
2.08669e-05
2.13634e-05
2.22879e-05
2.36901e-05
2.54066e-05
2.58321e-05
2.40429e-05
2.28195e-05
2.18956e-05
2.13695e-05
2.13687e-05
2.18937e-05
2.28172e-05
2.40422e-05
2.5831e-05
2.71385e-05
2.49649e-05
2.38838e-05
2.2828e-05
2.22891e-05
2.22885e-05
2.28261e-05
2.38819e-05
2.49643e-05
2.71378e-05
2.77688e-05
2.55008e-05
2.5034e-05
2.40523e-05
2.36907e-05
2.369e-05
2.40501e-05
2.50312e-05
2.54993e-05
2.77682e-05
3.19233e-05
2.78009e-05
2.71527e-05
2.58347e-05
2.54075e-05
2.54064e-05
2.58311e-05
2.71473e-05
2.77964e-05
3.1921e-05
2.62888e-05
2.30519e-05
2.24303e-05
2.13344e-05
2.09652e-05
2.09666e-05
2.13252e-05
2.24118e-05
2.30301e-05
2.61968e-05
2.30741e-05
2.13795e-05
2.06444e-05
1.97073e-05
1.93803e-05
1.93833e-05
1.97213e-05
2.07078e-05
2.13669e-05
2.3007e-05
2.24385e-05
2.0708e-05
1.96149e-05
1.85353e-05
1.8045e-05
1.80459e-05
1.8547e-05
1.96242e-05
2.06469e-05
2.24063e-05
2.13314e-05
1.97164e-05
1.85444e-05
1.7583e-05
1.70799e-05
1.70826e-05
1.758e-05
1.85367e-05
1.97106e-05
2.13233e-05
2.09615e-05
1.93797e-05
1.80471e-05
1.7085e-05
1.65767e-05
1.65751e-05
1.7077e-05
1.80424e-05
1.93796e-05
2.09626e-05
2.09631e-05
1.93807e-05
1.80445e-05
1.70794e-05
1.65758e-05
1.65745e-05
1.70762e-05
1.80417e-05
1.93787e-05
2.09615e-05
2.13224e-05
1.97103e-05
1.85378e-05
1.75803e-05
1.70824e-05
1.70813e-05
1.75777e-05
1.85347e-05
1.97085e-05
2.13211e-05
2.24022e-05
2.06444e-05
1.96233e-05
1.85451e-05
1.80435e-05
1.80428e-05
1.85431e-05
1.96209e-05
2.06433e-05
2.24026e-05
2.30043e-05
2.13669e-05
2.07085e-05
1.97187e-05
1.93795e-05
1.9379e-05
1.97167e-05
2.07055e-05
2.13644e-05
2.30046e-05
2.62015e-05
2.30383e-05
2.24195e-05
2.13255e-05
2.09628e-05
2.09617e-05
2.13213e-05
2.24117e-05
2.30298e-05
2.6196e-05
2.3564e-05
2.13659e-05
2.07518e-05
1.98217e-05
1.95011e-05
1.95046e-05
1.98259e-05
2.07536e-05
2.13634e-05
2.3489e-05
2.14005e-05
2.02448e-05
1.94119e-05
1.85528e-05
1.82484e-05
1.82531e-05
1.85756e-05
1.94927e-05
2.0254e-05
2.13446e-05
2.07675e-05
1.94798e-05
1.85296e-05
1.7559e-05
1.71459e-05
1.71488e-05
1.75738e-05
1.8543e-05
1.94302e-05
2.07509e-05
1.98246e-05
1.85661e-05
1.75696e-05
1.67098e-05
1.6295e-05
1.63e-05
1.67102e-05
1.75637e-05
1.85653e-05
1.98279e-05
1.94987e-05
1.82489e-05
1.71484e-05
1.63003e-05
1.58812e-05
1.58812e-05
1.62957e-05
1.71475e-05
1.82521e-05
1.95044e-05
1.95018e-05
1.82501e-05
1.71464e-05
1.6296e-05
1.58814e-05
1.58811e-05
1.62952e-05
1.7147e-05
1.82516e-05
1.95033e-05
1.98235e-05
1.85626e-05
1.75628e-05
1.67094e-05
1.63008e-05
1.63003e-05
1.67088e-05
1.75626e-05
1.8564e-05
1.98254e-05
2.07433e-05
1.94255e-05
1.85404e-05
1.75712e-05
1.71479e-05
1.71479e-05
1.75715e-05
1.85411e-05
1.94278e-05
2.07465e-05
2.13381e-05
2.02505e-05
1.94906e-05
1.85722e-05
1.82507e-05
1.82513e-05
1.85731e-05
1.94919e-05
2.02524e-05
2.13403e-05
2.3496e-05
2.13736e-05
2.07621e-05
1.98275e-05
1.95029e-05
1.95025e-05
1.98255e-05
2.07572e-05
2.13667e-05
2.3488e-05
2.26574e-05
2.12449e-05
2.063e-05
1.98395e-05
1.9546e-05
1.95477e-05
1.98471e-05
2.06481e-05
2.1263e-05
2.26151e-05
2.12853e-05
2.04594e-05
1.9622e-05
1.88633e-05
1.85668e-05
1.85704e-05
1.88852e-05
1.97089e-05
2.04739e-05
2.12407e-05
2.06524e-05
1.96964e-05
1.88629e-05
1.79967e-05
1.76385e-05
1.76427e-05
1.80125e-05
1.88733e-05
1.96403e-05
2.06401e-05
1.98457e-05
1.88796e-05
1.80094e-05
1.72365e-05
1.68837e-05
1.68909e-05
1.72399e-05
1.80021e-05
1.88742e-05
1.98485e-05
1.95435e-05
1.85679e-05
1.76418e-05
1.68894e-05
1.65439e-05
1.65452e-05
1.68872e-05
1.76427e-05
1.85703e-05
1.95467e-05
1.95454e-05
1.85679e-05
1.76403e-05
1.68863e-05
1.65453e-05
1.65457e-05
1.68872e-05
1.76429e-05
1.85704e-05
1.9546e-05
1.98453e-05
1.88724e-05
1.80012e-05
1.72395e-05
1.6893e-05
1.68933e-05
1.72403e-05
1.80027e-05
1.88748e-05
1.98469e-05
2.06346e-05
1.96379e-05
1.88718e-05
1.80114e-05
1.76443e-05
1.7645e-05
1.80132e-05
1.88744e-05
1.9641e-05
2.06375e-05
2.12345e-05
2.04721e-05
1.97076e-05
1.88843e-05
1.85705e-05
1.85715e-05
1.88867e-05
1.97108e-05
2.04747e-05
2.12369e-05
2.26164e-05
2.12697e-05
2.06524e-05
1.98484e-05
1.95459e-05
1.95464e-05
1.98491e-05
2.06519e-05
2.12663e-05
2.26121e-05
2.22729e-05
2.13377e-05
2.07676e-05
2.01101e-05
1.98359e-05
1.9834e-05
2.01144e-05
2.07917e-05
2.13688e-05
2.22468e-05
2.13815e-05
2.07708e-05
2.00152e-05
1.93561e-05
1.90649e-05
1.90663e-05
1.93743e-05
2.01026e-05
2.07843e-05
2.13413e-05
2.07937e-05
2.00959e-05
1.93556e-05
1.85717e-05
1.82449e-05
1.82494e-05
1.85871e-05
1.93608e-05
2.00289e-05
2.07795e-05
2.01168e-05
1.93743e-05
1.85854e-05
1.78729e-05
1.7551e-05
1.75594e-05
1.78772e-05
1.85753e-05
1.93623e-05
2.01159e-05
1.9834e-05
1.90662e-05
1.82476e-05
1.75566e-05
1.72539e-05
1.72552e-05
1.75542e-05
1.8248e-05
1.90658e-05
1.98337e-05
1.98344e-05
1.90649e-05
1.82465e-05
1.75538e-05
1.72552e-05
1.72556e-05
1.75542e-05
1.8248e-05
1.90656e-05
1.98331e-05
2.01155e-05
1.93621e-05
1.85756e-05
1.78775e-05
1.75612e-05
1.75614e-05
1.78775e-05
1.85756e-05
1.93617e-05
2.01144e-05
2.07786e-05
2.00287e-05
1.9361e-05
1.85872e-05
1.82511e-05
1.82514e-05
1.85878e-05
1.93612e-05
2.0028e-05
2.07777e-05
2.13414e-05
2.07843e-05
2.01033e-05
1.93758e-05
1.90674e-05
1.90676e-05
1.9376e-05
2.01034e-05
2.07829e-05
2.13391e-05
2.22503e-05
2.13727e-05
2.07943e-05
2.01171e-05
1.98337e-05
1.98336e-05
2.01171e-05
2.07939e-05
2.13703e-05
2.22471e-05
2.18263e-05
2.11695e-05
2.06857e-05
2.01427e-05
1.98828e-05
1.98768e-05
2.01385e-05
2.0707e-05
2.12008e-05
2.18069e-05
2.12099e-05
2.07744e-05
2.01356e-05
1.95586e-05
1.9275e-05
1.92741e-05
1.95718e-05
2.02193e-05
2.07828e-05
2.11705e-05
2.07106e-05
2.02184e-05
1.95578e-05
1.88401e-05
1.85327e-05
1.85367e-05
1.88541e-05
1.95583e-05
2.01418e-05
2.06919e-05
2.0145e-05
1.9576e-05
1.88544e-05
1.8193e-05
1.78879e-05
1.7896e-05
1.81965e-05
1.88418e-05
1.95589e-05
2.01404e-05
1.98793e-05
1.92755e-05
1.85353e-05
1.78934e-05
1.76169e-05
1.76179e-05
1.78899e-05
1.85349e-05
1.92739e-05
1.98767e-05
1.98781e-05
1.92733e-05
1.85341e-05
1.789e-05
1.76178e-05
1.76181e-05
1.78901e-05
1.85352e-05
1.92737e-05
1.98758e-05
2.01396e-05
1.95592e-05
1.88431e-05
1.81973e-05
1.78974e-05
1.78977e-05
1.81974e-05
1.88427e-05
1.95585e-05
2.01375e-05
2.06911e-05
2.0143e-05
1.95601e-05
1.88556e-05
1.85387e-05
1.85388e-05
1.88558e-05
1.95597e-05
2.01412e-05
2.06884e-05
2.11691e-05
2.07841e-05
2.0222e-05
1.95757e-05
1.92768e-05
1.92763e-05
1.95749e-05
2.02207e-05
2.07815e-05
2.11658e-05
2.18064e-05
2.12037e-05
2.071e-05
2.01432e-05
1.98775e-05
1.98762e-05
2.01411e-05
2.07071e-05
2.11992e-05
2.18025e-05
2.12481e-05
2.07469e-05
2.0375e-05
1.99273e-05
1.96834e-05
1.9676e-05
1.99198e-05
2.03957e-05
2.07842e-05
2.12398e-05
2.07852e-05
2.05285e-05
2.00021e-05
1.94878e-05
1.92151e-05
1.92132e-05
1.94988e-05
2.00836e-05
2.05353e-05
2.07522e-05
2.0398e-05
2.00859e-05
1.9493e-05
1.88286e-05
1.85345e-05
1.85382e-05
1.88421e-05
1.94913e-05
2.00049e-05
2.03804e-05
1.99261e-05
1.95041e-05
1.8842e-05
1.8224e-05
1.79291e-05
1.7937e-05
1.82274e-05
1.88294e-05
1.94863e-05
1.99234e-05
1.96788e-05
1.9214e-05
1.8535e-05
1.79334e-05
1.76735e-05
1.76745e-05
1.79301e-05
1.8536e-05
1.92147e-05
1.96789e-05
1.96764e-05
1.92105e-05
1.85333e-05
1.79292e-05
1.76736e-05
1.76745e-05
1.79303e-05
1.85362e-05
1.92143e-05
1.9678e-05
1.99183e-05
1.94821e-05
1.88283e-05
1.82266e-05
1.79372e-05
1.79379e-05
1.82284e-05
1.88304e-05
1.94852e-05
1.99202e-05
2.0376e-05
2.0001e-05
1.94908e-05
1.88425e-05
1.85391e-05
1.85395e-05
1.8844e-05
1.94927e-05
2.00035e-05
2.03768e-05
2.07492e-05
2.05309e-05
2.00841e-05
1.95026e-05
1.92164e-05
1.9216e-05
1.95027e-05
2.00855e-05
2.05337e-05
2.07485e-05
2.12418e-05
2.07836e-05
2.03983e-05
1.99257e-05
1.96789e-05
1.96769e-05
1.99231e-05
2.03961e-05
2.07822e-05
2.12368e-05
2.07071e-05
2.02031e-05
1.99272e-05
1.95524e-05
1.93215e-05
1.93116e-05
1.95364e-05
1.99376e-05
2.02314e-05
2.07006e-05
2.02386e-05
2.01355e-05
1.97016e-05
1.92344e-05
1.89717e-05
1.89682e-05
1.92392e-05
1.97725e-05
2.01287e-05
2.01989e-05
1.99485e-05
1.97841e-05
1.92484e-05
1.86271e-05
1.83413e-05
1.83439e-05
1.86376e-05
1.9241e-05
1.96931e-05
1.99213e-05
1.95492e-05
1.92496e-05
1.86403e-05
1.80577e-05
1.77686e-05
1.77756e-05
1.80592e-05
1.86252e-05
1.92266e-05
1.954e-05
1.93171e-05
1.89712e-05
1.83425e-05
1.77731e-05
1.75225e-05
1.75229e-05
1.77683e-05
1.83419e-05
1.89697e-05
1.93139e-05
1.93118e-05
1.89665e-05
1.83401e-05
1.77682e-05
1.75222e-05
1.75228e-05
1.77686e-05
1.83422e-05
1.89693e-05
1.93126e-05
1.95328e-05
1.92225e-05
1.86247e-05
1.80593e-05
1.77759e-05
1.77764e-05
1.80606e-05
1.86263e-05
1.92256e-05
1.95356e-05
1.99132e-05
1.96894e-05
1.92418e-05
1.86398e-05
1.83458e-05
1.83459e-05
1.86406e-05
1.92435e-05
1.96922e-05
1.9916e-05
2.01909e-05
2.01252e-05
1.97754e-05
1.92458e-05
1.8973e-05
1.8972e-05
1.92448e-05
1.97758e-05
2.01279e-05
2.01932e-05
2.06946e-05
2.02273e-05
1.99397e-05
1.95435e-05
1.9315e-05
1.93129e-05
1.95405e-05
1.99386e-05
2.0229e-05
2.06949e-05
2.03242e-05
1.96089e-05
1.94003e-05
1.90827e-05
1.88675e-05
1.88574e-05
1.90637e-05
1.9404e-05
1.96335e-05
2.03207e-05
1.96465e-05
1.96677e-05
1.93081e-05
1.88798e-05
1.86291e-05
1.86257e-05
1.88835e-05
1.93729e-05
1.96523e-05
1.96024e-05
1.94241e-05
1.93921e-05
1.89079e-05
1.83239e-05
1.80457e-05
1.80482e-05
1.83339e-05
1.88978e-05
1.92949e-05
1.93902e-05
1.90837e-05
1.88983e-05
1.8338e-05
1.77856e-05
1.75017e-05
1.75083e-05
1.77862e-05
1.83215e-05
1.88717e-05
1.90699e-05
1.88685e-05
1.8633e-05
1.80488e-05
1.7507e-05
1.7263e-05
1.72627e-05
1.75006e-05
1.80461e-05
1.86286e-05
1.88624e-05
1.88616e-05
1.86277e-05
1.80469e-05
1.75024e-05
1.72628e-05
1.72626e-05
1.75005e-05
1.80458e-05
1.86275e-05
1.88608e-05
1.90633e-05
1.88692e-05
1.83231e-05
1.77884e-05
1.75097e-05
1.7509e-05
1.77869e-05
1.83214e-05
1.88688e-05
1.90645e-05
1.93824e-05
1.92923e-05
1.89011e-05
1.83386e-05
1.80517e-05
1.80505e-05
1.83362e-05
1.88986e-05
1.92915e-05
1.93836e-05
1.95965e-05
1.96506e-05
1.93794e-05
1.88933e-05
1.8633e-05
1.86308e-05
1.88889e-05
1.93755e-05
1.96496e-05
1.95967e-05
2.03169e-05
1.96313e-05
1.94101e-05
1.90748e-05
1.88643e-05
1.88614e-05
1.90696e-05
1.94066e-05
1.9632e-05
2.03178e-05
2.02682e-05
1.9072e-05
1.88643e-05
1.85847e-05
1.83828e-05
1.83719e-05
1.85609e-05
1.88577e-05
1.90829e-05
2.0262e-05
1.91092e-05
1.91794e-05
1.88775e-05
1.84828e-05
1.82436e-05
1.82405e-05
1.84851e-05
1.89346e-05
1.91509e-05
1.90552e-05
1.88909e-05
1.89615e-05
1.8525e-05
1.79745e-05
1.77037e-05
1.77063e-05
1.79846e-05
1.85126e-05
1.88575e-05
1.88464e-05
1.85893e-05
1.85034e-05
1.79899e-05
1.74647e-05
1.71865e-05
1.71927e-05
1.74648e-05
1.79725e-05
1.84731e-05
1.85683e-05
1.83866e-05
1.82503e-05
1.77091e-05
1.71928e-05
1.69542e-05
1.69535e-05
1.71849e-05
1.77047e-05
1.82437e-05
1.83769e-05
1.83771e-05
1.82444e-05
1.77072e-05
1.71883e-05
1.69541e-05
1.69532e-05
1.71846e-05
1.77041e-05
1.82424e-05
1.83747e-05
1.85604e-05
1.84714e-05
1.79753e-05
1.74682e-05
1.71946e-05
1.71933e-05
1.74649e-05
1.79716e-05
1.84699e-05
1.85611e-05
1.88355e-05
1.88556e-05
1.85169e-05
1.79904e-05
1.77107e-05
1.77089e-05
1.79865e-05
1.85131e-05
1.88538e-05
1.88366e-05
1.90447e-05
1.91509e-05
1.8943e-05
1.84962e-05
1.82489e-05
1.82462e-05
1.84907e-05
1.89377e-05
1.91487e-05
1.90456e-05
2.02543e-05
1.90838e-05
1.88669e-05
1.85735e-05
1.8379e-05
1.8376e-05
1.85672e-05
1.88614e-05
1.90818e-05
2.02551e-05
2.04737e-05
1.86465e-05
1.83531e-05
1.80923e-05
1.79042e-05
1.78949e-05
1.80705e-05
1.83436e-05
1.86535e-05
2.04671e-05
1.86872e-05
1.87032e-05
1.84469e-05
1.80845e-05
1.78591e-05
1.78576e-05
1.809e-05
1.85028e-05
1.86698e-05
1.8629e-05
1.83835e-05
1.85318e-05
1.81427e-05
1.76248e-05
1.73627e-05
1.73662e-05
1.76368e-05
1.81314e-05
1.84269e-05
1.83356e-05
1.81006e-05
1.8107e-05
1.76403e-05
1.71414e-05
1.68702e-05
1.68765e-05
1.7142e-05
1.76238e-05
1.80773e-05
1.80792e-05
1.79096e-05
1.78665e-05
1.73679e-05
1.68764e-05
1.6644e-05
1.66429e-05
1.68681e-05
1.73634e-05
1.78605e-05
1.79016e-05
1.78998e-05
1.78605e-05
1.73664e-05
1.68721e-05
1.66438e-05
1.66424e-05
1.68674e-05
1.73627e-05
1.78594e-05
1.78995e-05
1.80696e-05
1.80745e-05
1.76263e-05
1.71455e-05
1.68784e-05
1.68765e-05
1.71415e-05
1.76226e-05
1.8074e-05
1.80724e-05
1.83232e-05
1.84236e-05
1.81351e-05
1.76421e-05
1.73703e-05
1.73682e-05
1.76379e-05
1.81313e-05
1.84231e-05
1.83259e-05
1.86189e-05
1.86696e-05
1.85111e-05
1.81004e-05
1.7866e-05
1.78636e-05
1.80953e-05
1.85065e-05
1.86687e-05
1.86205e-05
2.0463e-05
1.86577e-05
1.8356e-05
1.80843e-05
1.79037e-05
1.79011e-05
1.80786e-05
1.83508e-05
1.86563e-05
2.0463e-05
2.04602e-05
1.84217e-05
1.79071e-05
1.76314e-05
1.74501e-05
1.74424e-05
1.76118e-05
1.78959e-05
1.84215e-05
2.04475e-05
1.84647e-05
1.82523e-05
1.80241e-05
1.76925e-05
1.7481e-05
1.74815e-05
1.7702e-05
1.80812e-05
1.82165e-05
1.83993e-05
1.79399e-05
1.81082e-05
1.77654e-05
1.72793e-05
1.70267e-05
1.70309e-05
1.72934e-05
1.77564e-05
1.80045e-05
1.78874e-05
1.76409e-05
1.77154e-05
1.7295e-05
1.68222e-05
1.65583e-05
1.65644e-05
1.68228e-05
1.72796e-05
1.76864e-05
1.76178e-05
1.74547e-05
1.7488e-05
1.70322e-05
1.65647e-05
1.6338e-05
1.63365e-05
1.65554e-05
1.70272e-05
1.74825e-05
1.74468e-05
1.74452e-05
1.7483e-05
1.70307e-05
1.65601e-05
1.63375e-05
1.63357e-05
1.65547e-05
1.70267e-05
1.7482e-05
1.74453e-05
1.76088e-05
1.76847e-05
1.72822e-05
1.6826e-05
1.65656e-05
1.65638e-05
1.68219e-05
1.72786e-05
1.76847e-05
1.76121e-05
1.78744e-05
1.80022e-05
1.77596e-05
1.72976e-05
1.70342e-05
1.70324e-05
1.72941e-05
1.77568e-05
1.80023e-05
1.78779e-05
1.83869e-05
1.82174e-05
1.80885e-05
1.77104e-05
1.74887e-05
1.74868e-05
1.77065e-05
1.8085e-05
1.82168e-05
1.83899e-05
2.04414e-05
1.84278e-05
1.79081e-05
1.76233e-05
1.74493e-05
1.74476e-05
1.76192e-05
1.7904e-05
1.84263e-05
2.04423e-05
1.85331e-05
1.84197e-05
1.75513e-05
1.72166e-05
1.70335e-05
1.70296e-05
1.72061e-05
1.75482e-05
1.84265e-05
1.85302e-05
1.84654e-05
1.78495e-05
1.76229e-05
1.73194e-05
1.71224e-05
1.71253e-05
1.73347e-05
1.76842e-05
1.78167e-05
1.84029e-05
1.75855e-05
1.77066e-05
1.74082e-05
1.69535e-05
1.67111e-05
1.67158e-05
1.69691e-05
1.74015e-05
1.76061e-05
1.7536e-05
1.72271e-05
1.73426e-05
1.69687e-05
1.65217e-05
1.62658e-05
1.62713e-05
1.65214e-05
1.6953e-05
1.73148e-05
1.72068e-05
1.7038e-05
1.71287e-05
1.67154e-05
1.62715e-05
1.6051e-05
1.60488e-05
1.62607e-05
1.6709e-05
1.71229e-05
1.70318e-05
1.70314e-05
1.71247e-05
1.67138e-05
1.62662e-05
1.60496e-05
1.60475e-05
1.62596e-05
1.67085e-05
1.71229e-05
1.70315e-05
1.72019e-05
1.73149e-05
1.6956e-05
1.65241e-05
1.62712e-05
1.62691e-05
1.65195e-05
1.69519e-05
1.73141e-05
1.72042e-05
1.75273e-05
1.7605e-05
1.74037e-05
1.69712e-05
1.67167e-05
1.67149e-05
1.69676e-05
1.74005e-05
1.76043e-05
1.75296e-05
1.83947e-05
1.78177e-05
1.76893e-05
1.73392e-05
1.71296e-05
1.71281e-05
1.73357e-05
1.76857e-05
1.78165e-05
1.83962e-05
1.85282e-05
1.84331e-05
1.75581e-05
1.72134e-05
1.70346e-05
1.70335e-05
1.72104e-05
1.75545e-05
1.84317e-05
1.85285e-05
1.34261e-05
1.85803e-05
1.73346e-05
1.68754e-05
1.66696e-05
1.66679e-05
1.68695e-05
1.73344e-05
1.85854e-05
1.34117e-05
1.86246e-05
1.75174e-05
1.72463e-05
1.69628e-05
1.67776e-05
1.67816e-05
1.69808e-05
1.73088e-05
1.74839e-05
1.85594e-05
1.73661e-05
1.73271e-05
1.70651e-05
1.66395e-05
1.64067e-05
1.64113e-05
1.66551e-05
1.70587e-05
1.72277e-05
1.73154e-05
1.68831e-05
1.69842e-05
1.66543e-05
1.62323e-05
1.59839e-05
1.59885e-05
1.62302e-05
1.66372e-05
1.69558e-05
1.68627e-05
1.66718e-05
1.67821e-05
1.64104e-05
1.59893e-05
1.57749e-05
1.57721e-05
1.5977e-05
1.64023e-05
1.67756e-05
1.66655e-05
1.66674e-05
1.6779e-05
1.64081e-05
1.59831e-05
1.57728e-05
1.57705e-05
1.59761e-05
1.64022e-05
1.67763e-05
1.66663e-05
1.68621e-05
1.69584e-05
1.66407e-05
1.62323e-05
1.59874e-05
1.59856e-05
1.62282e-05
1.66368e-05
1.69572e-05
1.68629e-05
1.73103e-05
1.72288e-05
1.70602e-05
1.66552e-05
1.64103e-05
1.64089e-05
1.66524e-05
1.70576e-05
1.72276e-05
1.73114e-05
1.85517e-05
1.74855e-05
1.73109e-05
1.69813e-05
1.67831e-05
1.6782e-05
1.69789e-05
1.73079e-05
1.74837e-05
1.85527e-05
1.34046e-05
1.8591e-05
1.73398e-05
1.6871e-05
1.66689e-05
1.66684e-05
1.6869e-05
1.73365e-05
1.85884e-05
1.34065e-05
2.92863e-05
1.84643e-05
1.72615e-05
1.6621e-05
1.63709e-05
1.63726e-05
1.66238e-05
1.72709e-05
1.84788e-05
2.92203e-05
1.85075e-05
1.72724e-05
1.6899e-05
1.66238e-05
1.64492e-05
1.64551e-05
1.66468e-05
1.69665e-05
1.72453e-05
1.84499e-05
1.72903e-05
1.69782e-05
1.67393e-05
1.63411e-05
1.61184e-05
1.61234e-05
1.63579e-05
1.67352e-05
1.68835e-05
1.72453e-05
1.66273e-05
1.6645e-05
1.63557e-05
1.59582e-05
1.5718e-05
1.57223e-05
1.59557e-05
1.63387e-05
1.66187e-05
1.66116e-05
1.63727e-05
1.64534e-05
1.61216e-05
1.57231e-05
1.55155e-05
1.55126e-05
1.57106e-05
1.61134e-05
1.64479e-05
1.63696e-05
1.63711e-05
1.64509e-05
1.6119e-05
1.57165e-05
1.55134e-05
1.55113e-05
1.57101e-05
1.61137e-05
1.64493e-05
1.63715e-05
1.6614e-05
1.66217e-05
1.63418e-05
1.59574e-05
1.57213e-05
1.57199e-05
1.59544e-05
1.63391e-05
1.66215e-05
1.66151e-05
1.72446e-05
1.68847e-05
1.67351e-05
1.63565e-05
1.61219e-05
1.61211e-05
1.6355e-05
1.67339e-05
1.68849e-05
1.72455e-05
1.8446e-05
1.72453e-05
1.6965e-05
1.66441e-05
1.64557e-05
1.64553e-05
1.66434e-05
1.69641e-05
1.72453e-05
1.84468e-05
2.92179e-05
1.84822e-05
1.72716e-05
1.66213e-05
1.63733e-05
1.63734e-05
1.66208e-05
1.72699e-05
1.84807e-05
2.92189e-05
9.20659e-05
1.70915e-05
1.72948e-05
1.64771e-05
1.61582e-05
1.61613e-05
1.64836e-05
1.73079e-05
1.71034e-05
9.19225e-05
1.71301e-05
1.71246e-05
1.65926e-05
1.63043e-05
1.61351e-05
1.61416e-05
1.63286e-05
1.66606e-05
1.70975e-05
1.70754e-05
1.73218e-05
1.66705e-05
1.64283e-05
1.60535e-05
1.58395e-05
1.58444e-05
1.60696e-05
1.64234e-05
1.65758e-05
1.72759e-05
1.6483e-05
1.63263e-05
1.6069e-05
1.56941e-05
1.54612e-05
1.5465e-05
1.56902e-05
1.60501e-05
1.62982e-05
1.64664e-05
1.616e-05
1.61404e-05
1.58441e-05
1.54671e-05
1.52658e-05
1.52627e-05
1.54539e-05
1.58345e-05
1.61333e-05
1.61559e-05
1.61585e-05
1.61373e-05
1.58406e-05
1.54601e-05
1.5264e-05
1.5262e-05
1.54538e-05
1.58351e-05
1.61347e-05
1.6158e-05
1.64701e-05
1.6302e-05
1.60532e-05
1.56922e-05
1.5465e-05
1.54639e-05
1.56899e-05
1.6051e-05
1.63015e-05
1.64708e-05
1.72767e-05
1.65772e-05
1.64222e-05
1.60676e-05
1.58435e-05
1.58432e-05
1.60673e-05
1.64223e-05
1.65779e-05
1.72777e-05
1.70707e-05
1.70959e-05
1.66557e-05
1.63236e-05
1.61416e-05
1.61418e-05
1.63244e-05
1.66566e-05
1.70972e-05
1.70731e-05
9.19165e-05
1.71027e-05
1.7302e-05
1.6476e-05
1.61597e-05
1.61607e-05
1.64779e-05
1.73035e-05
1.7103e-05
9.19195e-05
0.000217244
1.39043e-05
1.72129e-05
1.64198e-05
1.60311e-05
1.60351e-05
1.64285e-05
1.72267e-05
1.39143e-05
0.000216984
1.39355e-05
1.70172e-05
1.63419e-05
1.60114e-05
1.58417e-05
1.5848e-05
1.60347e-05
1.64073e-05
1.69878e-05
1.38899e-05
1.72394e-05
1.64202e-05
1.61381e-05
1.57824e-05
1.55763e-05
1.55803e-05
1.57958e-05
1.61294e-05
1.63226e-05
1.71927e-05
1.64286e-05
1.60361e-05
1.57991e-05
1.54454e-05
1.52194e-05
1.52223e-05
1.54388e-05
1.5776e-05
1.60038e-05
1.64098e-05
1.60365e-05
1.58502e-05
1.5583e-05
1.52265e-05
1.50316e-05
1.50279e-05
1.52113e-05
1.55698e-05
1.58387e-05
1.60296e-05
1.60351e-05
1.58464e-05
1.55789e-05
1.52196e-05
1.50305e-05
1.5028e-05
1.52117e-05
1.55703e-05
1.58397e-05
1.60312e-05
1.64172e-05
1.60107e-05
1.57816e-05
1.54434e-05
1.52245e-05
1.5223e-05
1.54394e-05
1.57767e-05
1.60061e-05
1.64141e-05
1.71986e-05
1.63273e-05
1.61306e-05
1.57961e-05
1.55815e-05
1.55806e-05
1.57941e-05
1.61277e-05
1.63238e-05
1.71954e-05
1.3894e-05
1.69896e-05
1.64044e-05
1.60315e-05
1.58494e-05
1.58491e-05
1.60306e-05
1.64025e-05
1.69868e-05
1.38906e-05
0.000216979
1.39143e-05
1.72203e-05
1.64214e-05
1.60349e-05
1.60358e-05
1.64229e-05
1.72217e-05
1.39132e-05
0.00021698
0.000426591
2.01025e-05
1.64916e-05
1.6347e-05
1.59515e-05
1.59547e-05
1.63534e-05
1.64988e-05
2.01191e-05
0.000426189
2.01286e-05
1.6765e-05
1.61498e-05
1.57431e-05
1.55651e-05
1.55711e-05
1.57661e-05
1.62139e-05
1.67359e-05
2.00739e-05
1.65141e-05
1.62278e-05
1.58606e-05
1.55176e-05
1.5319e-05
1.53225e-05
1.55298e-05
1.58502e-05
1.61301e-05
1.64688e-05
1.63568e-05
1.57698e-05
1.5536e-05
1.52022e-05
1.49833e-05
1.49857e-05
1.51942e-05
1.55111e-05
1.57362e-05
1.63369e-05
1.59583e-05
1.5576e-05
1.53288e-05
1.49922e-05
1.48037e-05
1.47997e-05
1.4976e-05
1.53138e-05
1.55632e-05
1.59505e-05
1.5957e-05
1.55724e-05
1.53247e-05
1.49861e-05
1.48038e-05
1.48009e-05
1.49771e-05
1.53145e-05
1.5564e-05
1.59515e-05
1.63462e-05
1.57458e-05
1.55197e-05
1.5202e-05
1.49913e-05
1.49893e-05
1.51967e-05
1.55126e-05
1.57387e-05
1.63404e-05
1.64802e-05
1.61398e-05
1.58556e-05
1.55344e-05
1.53277e-05
1.53263e-05
1.55307e-05
1.58502e-05
1.61326e-05
1.64716e-05
2.00701e-05
1.67451e-05
1.62162e-05
1.57673e-05
1.55762e-05
1.55752e-05
1.57646e-05
1.62112e-05
1.67371e-05
2.00775e-05
0.000426193
2.01056e-05
1.65006e-05
1.6352e-05
1.59578e-05
1.59576e-05
1.63505e-05
1.64971e-05
2.01164e-05
0.000426188
0.000732311
5.38056e-05
1.4519e-05
1.59847e-05
1.57903e-05
1.57953e-05
1.59971e-05
1.45334e-05
5.38514e-05
0.000731776
5.38653e-05
1.60015e-05
1.60117e-05
1.55089e-05
1.53145e-05
1.53221e-05
1.55369e-05
1.60833e-05
1.59863e-05
5.37382e-05
1.45338e-05
1.60904e-05
1.5604e-05
1.52647e-05
1.50738e-05
1.50784e-05
1.528e-05
1.55984e-05
1.60004e-05
1.45077e-05
1.59942e-05
1.55362e-05
1.5283e-05
1.49675e-05
1.47572e-05
1.47606e-05
1.49623e-05
1.52621e-05
1.55083e-05
1.59833e-05
1.57959e-05
1.53239e-05
1.50824e-05
1.47657e-05
1.45851e-05
1.45822e-05
1.47524e-05
1.50714e-05
1.53163e-05
1.57949e-05
1.57961e-05
1.53206e-05
1.50785e-05
1.47602e-05
1.45861e-05
1.45842e-05
1.4754e-05
1.50725e-05
1.53175e-05
1.57965e-05
1.59899e-05
1.5514e-05
1.52679e-05
1.4969e-05
1.47674e-05
1.47662e-05
1.49664e-05
1.5265e-05
1.55124e-05
1.59892e-05
1.45194e-05
1.60083e-05
1.56026e-05
1.52843e-05
1.5085e-05
1.50844e-05
1.52833e-05
1.56012e-05
1.60065e-05
1.45165e-05
5.37224e-05
1.59946e-05
1.60854e-05
1.55384e-05
1.53286e-05
1.53286e-05
1.55385e-05
1.60849e-05
1.59934e-05
5.37349e-05
0.000731782
5.38123e-05
1.45371e-05
1.59987e-05
1.58016e-05
1.58015e-05
1.5998e-05
1.45359e-05
5.38285e-05
0.000731774
0.00113156
0.000122276
1.39449e-05
1.49186e-05
1.52675e-05
1.52735e-05
1.49336e-05
1.39632e-05
0.000122353
0.00113098
0.000122408
1.44332e-05
1.5891e-05
1.53107e-05
1.50888e-05
1.50975e-05
1.53422e-05
1.59688e-05
1.44314e-05
0.000122132
1.39442e-05
1.5968e-05
1.53726e-05
1.50192e-05
1.48328e-05
1.48386e-05
1.50377e-05
1.53724e-05
1.5886e-05
1.39209e-05
1.49198e-05
1.53349e-05
1.50359e-05
1.47343e-05
1.45323e-05
1.45369e-05
1.47326e-05
1.502e-05
1.5313e-05
1.49182e-05
1.52662e-05
1.50926e-05
1.48377e-05
1.45388e-05
1.4366e-05
1.43645e-05
1.45293e-05
1.48317e-05
1.50908e-05
1.52717e-05
1.52667e-05
1.50882e-05
1.48326e-05
1.45325e-05
1.43664e-05
1.43659e-05
1.45302e-05
1.48322e-05
1.50915e-05
1.52734e-05
1.49176e-05
1.53101e-05
1.5018e-05
1.47335e-05
1.45406e-05
1.45408e-05
1.4735e-05
1.50214e-05
1.53157e-05
1.49241e-05
1.39241e-05
1.58841e-05
1.53683e-05
1.50355e-05
1.48409e-05
1.48419e-05
1.50388e-05
1.53734e-05
1.58904e-05
1.39326e-05
0.000122132
1.44266e-05
1.59618e-05
1.53364e-05
1.50985e-05
1.51e-05
1.53408e-05
1.59679e-05
1.44341e-05
0.000122129
0.00113096
0.000122309
1.39476e-05
1.49266e-05
1.52736e-05
1.52749e-05
1.49299e-05
1.39448e-05
0.00012231
0.00113097
0.00160774
0.000237573
2.74885e-05
1.33182e-05
1.40666e-05
1.40738e-05
1.33342e-05
2.75174e-05
0.000237689
0.00160718
0.000237801
1.32956e-05
1.56855e-05
1.51405e-05
1.48898e-05
1.48988e-05
1.51726e-05
1.57643e-05
1.32981e-05
0.000237338
2.75101e-05
1.57595e-05
1.51809e-05
1.47894e-05
1.46029e-05
1.46089e-05
1.48087e-05
1.51825e-05
1.56828e-05
2.74305e-05
1.33087e-05
1.51622e-05
1.48047e-05
1.45108e-05
1.43164e-05
1.43214e-05
1.45102e-05
1.47902e-05
1.51424e-05
1.33099e-05
1.40606e-05
1.48906e-05
1.46051e-05
1.43213e-05
1.4156e-05