/*--------------------------------*- C++ -*----------------------------------*\
| =========                 |                                                 |
| \\      /  F ield         | OpenFOAM: The Open Source CFD Toolbox           |
|  \\    /   O peration     | Version:  2406                                  |
|   \\  /    A nd           | Website:  www.openfoam.com                      |
|    \\/     M anipulation  |                                                 |
\*---------------------------------------------------------------------------*/
FoamFile
{
    version     2.0;
    format      ascii;
    arch        "LSB;label=32;scalar=64";
    class       volVectorField;
    location    "250";
    object      momentError;
}
// * * * * * * * * * * * * * * * * * * * * * * * * * * * * * * * * * * * * * //

dimensions      [0 1 -2 0 0 0 0];

internalField   nonuniform List<vector> 
25000
(
(-0.000394428 -0.000745495 -0.000210778)
(-0.00133606 -0.000733852 -0.000141371)
(-0.000898972 -0.000324162 -7.09364e-05)
(-0.000607244 -0.000153537 -3.26497e-05)
(-0.000429283 -7.02826e-05 -8.82148e-06)
(-0.000317704 -3.12444e-05 4.16012e-06)
(-0.000251508 -1.03605e-05 1.1136e-05)
(-0.000204044 5.93352e-06 1.66639e-05)
(-0.000173378 3.01313e-05 2.06657e-05)
(-0.000130951 5.97764e-06 2.39506e-05)
(-0.00044998 -0.00148347 -0.000125936)
(-0.000703308 -0.000930169 -8.99967e-05)
(-0.000552147 -0.000481467 -5.24332e-05)
(-0.000425978 -0.000253495 -2.61589e-05)
(-0.000329731 -0.000130181 -7.36349e-06)
(-0.000260728 -6.69009e-05 3.7387e-06)
(-0.000212747 -3.18904e-05 1.02364e-05)
(-0.000176249 -1.04114e-05 1.53062e-05)
(-0.000153013 2.82102e-06 1.95001e-05)
(-0.000121843 5.3629e-06 2.39314e-05)
(-0.000192958 -0.000845754 -6.12166e-05)
(-0.000318572 -0.000613457 -4.8459e-05)
(-0.000303368 -0.000390078 -3.11044e-05)
(-0.000272586 -0.000240519 -1.54549e-05)
(-0.000235725 -0.000145301 -2.48848e-06)
(-0.000201256 -8.79134e-05 6.12969e-06)
(-0.000172453 -5.37554e-05 1.14237e-05)
(-0.000147713 -3.19629e-05 1.5964e-05)
(-0.000129525 -1.78977e-05 1.99517e-05)
(-0.000114738 -9.70064e-06 2.41245e-05)
(-0.000102294 -0.0005183 -2.94162e-05)
(-0.000161074 -0.000413655 -2.4426e-05)
(-0.000171578 -0.000298325 -1.55621e-05)
(-0.000173863 -0.000206834 -6.11709e-06)
(-0.000166758 -0.000139816 2.78875e-06)
(-0.000154198 -9.46532e-05 9.10216e-06)
(-0.00013943 -6.50947e-05 1.3294e-05)
(-0.00012333 -4.5143e-05 1.71303e-05)
(-0.000110421 -3.19638e-05 2.0683e-05)
(-0.000101316 -2.23802e-05 2.46358e-05)
(-6.09986e-05 -0.000348842 -1.12105e-05)
(-8.19125e-05 -0.00029046 -9.12502e-06)
(-9.90892e-05 -0.000227342 -4.32345e-06)
(-0.000113448 -0.000171908 1.42378e-06)
(-0.000119431 -0.000126844 7.67501e-06)
(-0.000118172 -9.31645e-05 1.23756e-05)
(-0.000112506 -6.96329e-05 1.55304e-05)
(-0.000104233 -5.28736e-05 1.87764e-05)
(-9.51411e-05 -4.10833e-05 2.19401e-05)
(-8.88968e-05 -3.21245e-05 2.56261e-05)
(-2.93619e-05 -0.000250128 -1.12803e-06)
(-4.48466e-05 -0.000215779 -8.94005e-07)
(-6.10726e-05 -0.000178611 1.91289e-06)
(-7.70493e-05 -0.000144427 5.95642e-06)
(-8.80267e-05 -0.00011363 1.06394e-05)
(-9.30949e-05 -8.96683e-05 1.4237e-05)
(-9.35461e-05 -7.19359e-05 1.66985e-05)
(-8.93523e-05 -5.83195e-05 1.94053e-05)
(-8.43489e-05 -4.8635e-05 2.21776e-05)
(-7.98095e-05 -4.13796e-05 2.55905e-05)
(-1.71724e-05 -0.000194409 3.27259e-06)
(-2.43906e-05 -0.000169806 3.1331e-06)
(-3.98425e-05 -0.000145136 5.27098e-06)
(-5.59937e-05 -0.000122545 8.251e-06)
(-6.83538e-05 -0.000101886 1.21383e-05)
(-7.63779e-05 -8.52347e-05 1.50089e-05)
(-7.95746e-05 -7.22351e-05 1.69093e-05)
(-7.96362e-05 -6.25473e-05 1.91623e-05)
(-7.79757e-05 -5.54655e-05 2.15823e-05)
(-7.39248e-05 -5.01503e-05 2.466e-05)
(-2.84502e-06 -0.000155347 6.98489e-06)
(-1.33459e-05 -0.00013466 6.30605e-06)
(-2.80127e-05 -0.000117587 8.03709e-06)
(-4.3196e-05 -0.000101743 1.06275e-05)
(-5.5988e-05 -8.88241e-05 1.39373e-05)
(-6.49125e-05 -7.75053e-05 1.63344e-05)
(-7.08941e-05 -7.02773e-05 1.7766e-05)
(-7.28636e-05 -6.42308e-05 1.96147e-05)
(-7.42216e-05 -6.04137e-05 2.16607e-05)
(-7.07573e-05 -5.70082e-05 2.44899e-05)
(1.68564e-05 -0.000127727 9.13717e-06)
(-5.0407e-06 -0.000107782 8.90977e-06)
(-2.14794e-05 -9.28919e-05 1.06096e-05)
(-3.69183e-05 -8.26282e-05 1.3013e-05)
(-4.95911e-05 -7.4232e-05 1.60235e-05)
(-5.94351e-05 -6.89395e-05 1.808e-05)
(-6.65356e-05 -6.65083e-05 1.91521e-05)
(-7.0265e-05 -6.57302e-05 2.0646e-05)
(-7.44234e-05 -6.68902e-05 2.23231e-05)
(-7.20284e-05 -6.41766e-05 2.47629e-05)
(9.67073e-06 -8.97361e-05 1.12991e-05)
(-1.90533e-06 -7.82541e-05 1.18733e-05)
(-1.93917e-05 -7.57548e-05 1.36881e-05)
(-3.48683e-05 -6.90804e-05 1.59755e-05)
(-4.75564e-05 -6.44799e-05 1.89212e-05)
(-5.8185e-05 -6.1472e-05 2.07665e-05)
(-6.67017e-05 -6.15047e-05 2.16051e-05)
(-7.14138e-05 -6.35368e-05 2.29999e-05)
(-7.44572e-05 -6.93308e-05 2.44112e-05)
(-6.07292e-05 -5.73934e-05 2.56275e-05)
(-0.00147158 -0.00219227 -0.00143793)
(-0.00297939 -0.00203198 -0.00107995)
(-0.00213427 -0.00111581 -0.000830371)
(-0.00157482 -0.000656604 -0.000656339)
(-0.00120002 -0.000375983 -0.000531406)
(-0.000914177 -0.000241397 -0.000443462)
(-0.000704814 -0.000155476 -0.000378683)
(-0.000529917 -0.00011097 -0.000328986)
(-0.000364785 -7.87342e-05 -0.000289692)
(-0.000202112 -7.70324e-05 -0.000254899)
(-0.00102597 -0.00335596 -0.000988195)
(-0.00152371 -0.00213682 -0.000859183)
(-0.00133795 -0.00130836 -0.000724322)
(-0.00113119 -0.000814109 -0.000607118)
(-0.000940137 -0.000502808 -0.000511443)
(-0.000771114 -0.000323762 -0.000437303)
(-0.000613097 -0.000215642 -0.000379789)
(-0.000474699 -0.000154492 -0.000334704)
(-0.000343061 -0.000128849 -0.000298432)
(-0.000236791 -0.000138323 -0.000265074)
(-0.000699204 -0.00207152 -0.000741137)
(-0.000803502 -0.00158188 -0.000689632)
(-0.000812528 -0.00113665 -0.000617449)
(-0.00077803 -0.000780883 -0.000543776)
(-0.000711321 -0.00053838 -0.000476106)
(-0.000622809 -0.000370799 -0.000418039)
(-0.000523326 -0.000264987 -0.000370654)
(-0.000421486 -0.000200463 -0.000331489)
(-0.000321661 -0.000166683 -0.000299185)
(-0.000251341 -0.000161388 -0.000269114)
(-0.000443505 -0.00137939 -0.000591439)
(-0.000491972 -0.00116812 -0.000568559)
(-0.000505746 -0.000922033 -0.000530019)
(-0.000525871 -0.000700595 -0.000485076)
(-0.000529616 -0.000521779 -0.00043859)
(-0.000498745 -0.000387273 -0.000395394)
(-0.000440597 -0.000290855 -0.000357207)
(-0.000368699 -0.000226509 -0.00032462)
(-0.000296608 -0.000188973 -0.000296971)
(-0.000244399 -0.000170108 -0.000270481)
(-0.000340992 -0.000993853 -0.000488647)
(-0.000298831 -0.000870737 -0.000481489)
(-0.000325329 -0.000739966 -0.000461828)
(-0.000370991 -0.000604913 -0.000434711)
(-0.000397678 -0.000484606 -0.000403515)
(-0.00039611 -0.000379328 -0.000371639)
(-0.000366613 -0.000298052 -0.000342368)
(-0.000321319 -0.000238713 -0.000315507)
(-0.000267628 -0.000197208 -0.000291791)
(-0.000227132 -0.000169763 -0.000268848)
(-0.000230243 -0.000719769 -0.000418028)
(-0.00022291 -0.000660864 -0.000418481)
(-0.000230691 -0.000590972 -0.000408903)
(-0.000265987 -0.000515046 -0.000393138)
(-0.000303373 -0.00043206 -0.000372342)
(-0.000315718 -0.000358235 -0.000349802)
(-0.000304965 -0.000292429 -0.000326924)
(-0.000272593 -0.000238363 -0.000305149)
(-0.000233417 -0.000196397 -0.000285274)
(-0.000201498 -0.000163503 -0.00026472)
(-0.000210018 -0.000534534 -0.000365689)
(-0.000165822 -0.000500172 -0.000370718)
(-0.000175817 -0.000461231 -0.000367781)
(-0.000208194 -0.000418763 -0.000358998)
(-0.000237812 -0.000369247 -0.00034569)
(-0.000256341 -0.000318639 -0.0003293)
(-0.000248499 -0.000267182 -0.00031215)
(-0.000228297 -0.000223925 -0.000294367)
(-0.000197072 -0.000184106 -0.000276942)
(-0.000168504 -0.000148556 -0.000258217)
(-0.000164984 -0.000384249 -0.000324444)
(-0.000152984 -0.000350179 -0.000333582)
(-0.00015121 -0.000339014 -0.000334479)
(-0.000172761 -0.000309969 -0.000330721)
(-0.000199719 -0.000289897 -0.000322106)
(-0.000211145 -0.000254707 -0.000310682)
(-0.000209126 -0.000225452 -0.000297142)
(-0.00018996 -0.000190963 -0.00028216)
(-0.000159961 -0.000157905 -0.000266867)
(-0.000134048 -0.000123426 -0.000248727)
(-0.000141697 -0.000239035 -0.000291176)
(-0.000136308 -0.000207593 -0.000303253)
(-0.000144097 -0.000201451 -0.000307515)
(-0.000161652 -0.000203041 -0.000306951)
(-0.00018041 -0.000195733 -0.000301829)
(-0.000188139 -0.000185193 -0.000293353)
(-0.000181131 -0.000168307 -0.000282429)
(-0.000158445 -0.000145704 -0.000269348)
(-0.000127825 -0.000120162 -0.000254986)
(-9.56256e-05 -8.55872e-05 -0.000237218)
(-7.92373e-05 -9.83751e-05 -0.000261261)
(-0.000137035 -8.72235e-05 -0.000275728)
(-0.000157016 -0.000115399 -0.000282389)
(-0.000170664 -0.000124681 -0.000284632)
(-0.000180074 -0.000134318 -0.000281937)
(-0.000179801 -0.000131522 -0.000275486)
(-0.000165632 -0.000124222 -0.000265764)
(-0.000140107 -0.000110517 -0.000252998)
(-9.91031e-05 -8.91049e-05 -0.000238753)
(-6.10078e-05 -5.51543e-05 -0.000221147)
(0.000369589 0.00044426 -0.000836437)
(0.000807713 0.000316377 -0.000769049)
(0.00041799 6.34123e-05 -0.000703015)
(0.000224274 -4.47273e-05 -0.000649459)
(0.000102223 -7.25301e-05 -0.000609246)
(3.69715e-05 -8.86359e-05 -0.000580559)
(1.33069e-05 -9.15217e-05 -0.000559801)
(2.21633e-05 -0.000111747 -0.00054867)
(5.24826e-05 -0.000126784 -0.000545254)
(0.000107013 -0.000153716 -0.000542232)
(0.000195569 0.000839906 -0.000728939)
(0.000296784 0.000377691 -0.000692349)
(0.000215619 0.000149947 -0.000652804)
(0.000134548 2.49657e-05 -0.000616146)
(6.83554e-05 -3.27474e-05 -0.000587484)
(2.19492e-05 -5.79155e-05 -0.000563962)
(4.8419e-06 -7.07667e-05 -0.000547547)
(8.93026e-06 -8.22339e-05 -0.000538912)
(3.25183e-05 -0.000100471 -0.000537918)
(7.06357e-05 -0.000134224 -0.000540354)
(2.47255e-05 0.000357548 -0.000652791)
(9.78207e-05 0.000217821 -0.000630463)
(9.06191e-05 9.9986e-05 -0.000607047)
(6.06094e-05 2.55393e-05 -0.000583814)
(2.89412e-05 -2.15382e-05 -0.000563674)
(2.86774e-06 -4.48769e-05 -0.000546703)
(-9.14532e-06 -5.88879e-05 -0.000534176)
(-5.19875e-06 -7.09332e-05 -0.000528213)
(9.13608e-06 -8.78818e-05 -0.000528945)
(2.4163e-05 -0.00011846 -0.000533211)
(-6.44498e-05 0.000177355 -0.000602509)
(-2.11004e-06 0.000114351 -0.000584743)
(1.83218e-05 5.268e-05 -0.000568887)
(1.53694e-05 6.86808e-06 -0.000555437)
(2.11718e-07 -2.39103e-05 -0.000542645)
(-1.40347e-05 -4.25764e-05 -0.000531133)
(-2.02362e-05 -5.3893e-05 -0.000522672)
(-1.74057e-05 -6.25394e-05 -0.000519331)
(-9.23465e-06 -7.42819e-05 -0.000521924)
(-7.92136e-06 -9.30158e-05 -0.000527709)
(-0.000102687 8.7355e-05 -0.000564627)
(-4.79446e-05 5.56603e-05 -0.000550922)
(-2.16239e-05 1.92351e-05 -0.000541058)
(-1.60409e-05 -9.79888e-06 -0.000532211)
(-1.93253e-05 -3.15264e-05 -0.000524887)
(-2.59182e-05 -4.44802e-05 -0.000518112)
(-2.79506e-05 -5.17776e-05 -0.000513381)
(-2.36533e-05 -5.59742e-05 -0.000512671)
(-1.86774e-05 -6.02721e-05 -0.000516918)
(-2.3445e-05 -6.66816e-05 -0.000524301)
(-0.00012077 4.71277e-05 -0.000540907)
(-7.82613e-05 2.51471e-05 -0.000527939)
(-4.89276e-05 2.0436e-07 -0.000518709)
(-3.57272e-05 -2.19665e-05 -0.000514124)
(-3.41655e-05 -3.65032e-05 -0.000510318)
(-3.37465e-05 -4.64349e-05 -0.000507468)
(-3.12028e-05 -4.98761e-05 -0.000505661)
(-2.50553e-05 -4.91532e-05 -0.000507341)
(-1.87516e-05 -4.54592e-05 -0.000513473)
(-2.20935e-05 -3.96602e-05 -0.000522056)
(-0.000145827 4.23851e-05 -0.000522908)
(-9.63721e-05 1.91427e-05 -0.000511251)
(-6.90898e-05 -2.24202e-06 -0.000504869)
(-5.35251e-05 -2.1062e-05 -0.000501017)
(-4.44118e-05 -3.37622e-05 -0.000500323)
(-3.96414e-05 -4.12152e-05 -0.000499556)
(-3.10315e-05 -4.17558e-05 -0.000500572)
(-1.96912e-05 -3.76115e-05 -0.000504225)
(-9.48814e-06 -2.6965e-05 -0.000511738)
(-5.11774e-06 -1.0286e-05 -0.000521293)
(-0.000169231 6.03917e-05 -0.000514528)
(-0.000121705 3.7821e-05 -0.000504605)
(-8.93487e-05 1.2041e-05 -0.000497986)
(-6.86449e-05 -4.3717e-06 -0.000496235)
(-5.54758e-05 -1.95348e-05 -0.000496176)
(-4.23234e-05 -2.45351e-05 -0.000497579)
(-2.80827e-05 -2.54946e-05 -0.000499887)
(-1.08534e-05 -1.72443e-05 -0.000504862)
(8.03611e-06 -2.47755e-06 -0.000513549)
(2.73186e-05 2.39677e-05 -0.000523296)
(-0.000194916 9.27714e-05 -0.000512154)
(-0.000144687 7.2506e-05 -0.000505638)
(-0.000113264 4.37742e-05 -0.00050056)
(-8.79234e-05 1.78834e-05 -0.000499252)
(-6.66176e-05 1.7619e-06 -0.000499838)
(-4.63024e-05 -5.90611e-06 -0.000501849)
(-2.38749e-05 -4.4979e-06 -0.000504834)
(3.27834e-06 7.56932e-06 -0.000510629)
(3.04752e-05 2.74707e-05 -0.000519425)
(6.85978e-05 5.82896e-05 -0.000528456)
(-0.000196778 0.000142804 -0.000511496)
(-0.000175486 0.00012208 -0.000511983)
(-0.000148657 6.84332e-05 -0.000508725)
(-0.000114398 3.09154e-05 -0.000507598)
(-8.21311e-05 7.15141e-06 -0.000508542)
(-4.98571e-05 1.09807e-06 -0.000510421)
(-1.51659e-05 9.15037e-06 -0.000513441)
(2.1955e-05 3.39404e-05 -0.000518735)
(5.81755e-05 6.64487e-05 -0.000526631)
(0.000103054 0.000101713 -0.000530208)
(-0.00016018 -0.000160841 -0.000406419)
(-0.00019577 -9.82704e-05 -0.000459949)
(-0.000132316 -1.42082e-05 -0.000478549)
(-0.000134597 3.86304e-05 -0.00048864)
(-0.000164745 6.53881e-05 -0.00049746)
(-0.000189092 8.24969e-05 -0.00050696)
(-0.000211691 9.1958e-05 -0.000519205)
(-0.000229359 9.70316e-05 -0.000537425)
(-0.000230753 0.000106627 -0.000560838)
(-0.000228711 9.88464e-05 -0.000582262)
(-8.95076e-05 -0.000204318 -0.000482592)
(-7.32299e-05 -7.83692e-05 -0.000480285)
(-8.14208e-05 -3.18653e-05 -0.000480535)
(-0.0001125 -1.15607e-05 -0.000483337)
(-0.000145005 5.6289e-06 -0.000489784)
(-0.000174083 1.96973e-05 -0.000498263)
(-0.000197387 2.86611e-05 -0.000510445)
(-0.000215313 3.71103e-05 -0.000527563)
(-0.000226238 4.0251e-05 -0.000551452)
(-0.000259555 2.77676e-05 -0.000577814)
(1.32573e-05 -0.00012513 -0.000510596)
(-2.54838e-05 -7.4691e-05 -0.000494352)
(-6.29277e-05 -5.46658e-05 -0.000486415)
(-9.64383e-05 -4.17871e-05 -0.000483981)
(-0.000131479 -2.90485e-05 -0.000486872)
(-0.000162179 -1.90807e-05 -0.00049388)
(-0.000187792 -1.09371e-05 -0.000505012)
(-0.000208207 -4.90111e-06 -0.000521706)
(-0.000228991 -3.22593e-06 -0.00054394)
(-0.000284556 -1.25602e-05 -0.000570374)
(6.09632e-05 -0.000106582 -0.000526105)
(-3.68647e-06 -8.6564e-05 -0.000504785)
(-4.90922e-05 -7.30583e-05 -0.000492231)
(-8.76752e-05 -6.3932e-05 -0.000486992)
(-0.000122192 -5.64968e-05 -0.000487768)
(-0.00015459 -4.96002e-05 -0.000493553)
(-0.000180638 -4.38538e-05 -0.000503935)
(-0.000203461 -3.80809e-05 -0.000519465)
(-0.000231937 -3.64327e-05 -0.000541135)
(-0.000298863 -3.92613e-05 -0.000567053)
(9.10024e-05 -0.000118822 -0.00053825)
(8.56879e-06 -0.000104178 -0.000514313)
(-4.04538e-05 -9.43123e-05 -0.000499348)
(-8.04566e-05 -8.78768e-05 -0.000492107)
(-0.000117432 -8.32639e-05 -0.000491775)
(-0.000148968 -7.90384e-05 -0.000496656)
(-0.000175159 -7.34052e-05 -0.000506346)
(-0.000199415 -6.87384e-05 -0.000521524)
(-0.000231672 -6.5103e-05 -0.000542362)
(-0.000304713 -6.41036e-05 -0.000567998)
(9.89466e-05 -0.000135751 -0.000549803)
(1.95154e-05 -0.000125809 -0.000524631)
(-3.36007e-05 -0.000119594 -0.000507892)
(-7.7383e-05 -0.000115962 -0.000499767)
(-0.000113713 -0.000112835 -0.00049841)
(-0.000144493 -0.000108573 -0.000502701)
(-0.000169885 -0.000104487 -0.000511713)
(-0.000194719 -9.8687e-05 -0.000526358)
(-0.000227952 -9.3398e-05 -0.000546833)
(-0.000301292 -8.84953e-05 -0.000572279)
(0.000103236 -0.000151079 -0.000562496)
(2.11874e-05 -0.000147447 -0.000537133)
(-3.19655e-05 -0.000145763 -0.000519917)
(-7.4441e-05 -0.000143711 -0.000510502)
(-0.000110232 -0.000140639 -0.000508609)
(-0.000140336 -0.000137778 -0.000511829)
(-0.000164854 -0.000132782 -0.0005204)
(-0.000187988 -0.0001277 -0.000534458)
(-0.000220302 -0.000120583 -0.000554782)
(-0.000289051 -0.000112296 -0.000579975)
(9.24617e-05 -0.00016579 -0.000579857)
(1.82483e-05 -0.00016534 -0.000554826)
(-3.21934e-05 -0.000166705 -0.000536581)
(-7.31305e-05 -0.000166684 -0.000526532)
(-0.00010779 -0.000165841 -0.000523387)
(-0.000136228 -0.000163036 -0.000525966)
(-0.000159411 -0.000159643 -0.000533701)
(-0.000182122 -0.000154357 -0.00054746)
(-0.000209457 -0.000147339 -0.00056754)
(-0.000268164 -0.000134136 -0.000592364)
(8.13603e-05 -0.000170283 -0.000602028)
(1.0259e-05 -0.000173069 -0.000578506)
(-3.73442e-05 -0.000183364 -0.000559568)
(-7.48544e-05 -0.000189754 -0.000548304)
(-0.000106535 -0.000193141 -0.000543899)
(-0.000133804 -0.000192395 -0.000545626)
(-0.000156052 -0.000189991 -0.000552584)
(-0.000175675 -0.000184103 -0.000566102)
(-0.000197444 -0.000175566 -0.000586121)
(-0.000239574 -0.000156357 -0.000609603)
(6.95764e-05 -0.000168514 -0.000621517)
(-7.87438e-06 -0.000192781 -0.000605502)
(-5.23757e-05 -0.000223382 -0.000586744)
(-8.22072e-05 -0.00024364 -0.000574391)
(-0.00010987 -0.000253721 -0.000569052)
(-0.000133806 -0.000254818 -0.00056963)
(-0.000153776 -0.000249106 -0.000576152)
(-0.00017094 -0.000237763 -0.000589118)
(-0.000183229 -0.000223204 -0.000608159)
(-0.000205084 -0.000194024 -0.000624181)
(0.000330024 0.000213982 -0.000256464)
(0.000311477 0.000210643 -0.000237332)
(0.000209132 0.000166491 -0.000224191)
(7.52489e-05 0.000126971 -0.000213664)
(-5.14673e-05 0.000112515 -0.00020651)
(-0.000154995 0.000112137 -0.000203015)
(-0.000250914 0.000131638 -0.000204527)
(-0.000330564 0.000162821 -0.000211575)
(-0.000376431 0.000208009 -0.000221724)
(-0.000411082 0.000223661 -0.000232236)
(0.000348906 0.000163139 -0.000258626)
(0.000258339 0.00011894 -0.000239304)
(0.0001618 6.77205e-05 -0.000227058)
(5.14928e-05 3.47429e-05 -0.000218002)
(-5.20996e-05 2.68721e-05 -0.000211357)
(-0.000145084 3.03423e-05 -0.000208287)
(-0.000223365 4.23455e-05 -0.000208777)
(-0.000295689 6.57951e-05 -0.000212917)
(-0.000354799 8.96623e-05 -0.00022114)
(-0.000453317 9.35026e-05 -0.00023044)
(0.000335045 7.9358e-05 -0.00026384)
(0.000217058 4.25913e-05 -0.000246525)
(0.000127856 4.52844e-06 -0.000232994)
(3.82325e-05 -1.45272e-05 -0.00022292)
(-5.26755e-05 -2.12529e-05 -0.000216303)
(-0.000137159 -1.94434e-05 -0.000212697)
(-0.000212109 -1.1262e-05 -0.000212389)
(-0.00027652 1.71928e-06 -0.000215382)
(-0.000343395 1.75012e-05 -0.00022097)
(-0.000466724 2.45462e-05 -0.000228306)
(0.000314891 -3.23348e-06 -0.000266959)
(0.000188888 -2.59222e-05 -0.000251609)
(0.000108139 -4.26827e-05 -0.000238393)
(2.85552e-05 -5.6145e-05 -0.000227611)
(-5.54847e-05 -6.26903e-05 -0.000220606)
(-0.000134752 -6.26678e-05 -0.000216894)
(-0.000202484 -5.78599e-05 -0.000215955)
(-0.000266878 -4.80172e-05 -0.000217766)
(-0.000338668 -3.94065e-05 -0.000222207)
(-0.000468712 -3.11304e-05 -0.000228102)
(0.000304006 -8.27211e-05 -0.000270481)
(0.00018275 -8.71191e-05 -0.000256025)
(0.000100365 -9.41726e-05 -0.000242503)
(2.00422e-05 -0.000101943 -0.000232041)
(-5.83713e-05 -0.0001069 -0.000224953)
(-0.000132331 -0.000106738 -0.000220842)
(-0.000198231 -0.000102071 -0.000219601)
(-0.000259859 -9.66049e-05 -0.000220935)
(-0.00033382 -8.9286e-05 -0.000224446)
(-0.000467462 -8.54204e-05 -0.000229485)
(0.000302107 -0.00015144 -0.0002721)
(0.000178591 -0.000149433 -0.000258542)
(9.43793e-05 -0.0001514 -0.000246266)
(1.65476e-05 -0.000154873 -0.000235885)
(-5.99999e-05 -0.000155775 -0.000228858)
(-0.000130023 -0.0001539 -0.000224716)
(-0.000192879 -0.00015013 -0.000223232)
(-0.000255102 -0.000144142 -0.00022437)
(-0.000330583 -0.000140945 -0.000227498)
(-0.000465385 -0.000140061 -0.000232305)
(0.000302069 -0.000221345 -0.000274365)
(0.000180215 -0.000212718 -0.000261628)
(9.41474e-05 -0.000208577 -0.000249205)
(1.52272e-05 -0.000206318 -0.000239511)
(-5.75606e-05 -0.000203426 -0.000232572)
(-0.000126709 -0.000199941 -0.000228577)
(-0.00018837 -0.000195617 -0.000227211)
(-0.000250258 -0.000193083 -0.000228187)
(-0.000327474 -0.000191724 -0.000231717)
(-0.000461282 -0.000194696 -0.000236719)
(0.000313118 -0.000290068 -0.00027796)
(0.000184508 -0.000271155 -0.000265071)
(9.82382e-05 -0.000262413 -0.000253072)
(2.03988e-05 -0.000253317 -0.000243237)
(-5.39729e-05 -0.000247693 -0.000236675)
(-0.000122084 -0.000243466 -0.000232917)
(-0.000185405 -0.000241767 -0.000231583)
(-0.000249429 -0.000242751 -0.000233344)
(-0.000324968 -0.000246379 -0.000237248)
(-0.000455488 -0.000248919 -0.00024304)
(0.00032281 -0.000340167 -0.00028343)
(0.000196079 -0.000325364 -0.0002704)
(0.00010801 -0.000315302 -0.000257662)
(2.83483e-05 -0.00030685 -0.000247549)
(-4.81061e-05 -0.000300433 -0.00024102)
(-0.000120715 -0.000297084 -0.000237318)
(-0.000187257 -0.000298949 -0.000237069)
(-0.000253112 -0.00030365 -0.000239308)
(-0.000324367 -0.000310049 -0.000244782)
(-0.000436377 -0.000300339 -0.000251693)
(0.00032145 -0.00039645 -0.000288512)
(0.000199986 -0.000417989 -0.000277003)
(0.000117625 -0.00042303 -0.000263174)
(3.75375e-05 -0.000415831 -0.000252512)
(-4.35808e-05 -0.000407955 -0.000245515)
(-0.000122148 -0.000402368 -0.000242334)
(-0.00019567 -0.00040182 -0.000242753)
(-0.000264996 -0.000408237 -0.000246551)
(-0.000319441 -0.000411371 -0.00025355)
(-0.000388439 -0.000381711 -0.00025986)
(0.000328681 0.000195937 0.000286985)
(0.000307266 0.000185637 0.000264)
(0.000210928 0.000115075 0.000240061)
(8.93642e-05 6.09434e-05 0.000227715)
(-2.74161e-05 4.14592e-05 0.000225222)
(-0.000136121 4.25529e-05 0.000228649)
(-0.00024575 7.46722e-05 0.000235861)
(-0.000335336 0.000126129 0.000246308)
(-0.000377392 0.000194353 0.000259399)
(-0.000387117 0.00021159 0.000270263)
(0.000364463 0.000121325 0.000263803)
(0.000259595 8.41085e-05 0.000245671)
(0.000161996 3.53556e-05 0.000226196)
(6.51481e-05 7.56313e-06 0.000215222)
(-3.02012e-05 -2.31452e-06 0.00021231)
(-0.000124494 9.98783e-07 0.000215654)
(-0.000208425 1.83679e-05 0.000223303)
(-0.000285579 5.5296e-05 0.000234704)
(-0.000345452 9.32534e-05 0.0002497)
(-0.000437253 0.000106023 0.000265507)
(0.000347631 4.78388e-05 0.000240821)
(0.000223863 1.27414e-05 0.000226324)
(0.000138651 -1.42134e-05 0.000213108)
(5.62411e-05 -2.72473e-05 0.000205045)
(-3.11782e-05 -3.40544e-05 0.000202706)
(-0.000114906 -3.23763e-05 0.000206018)
(-0.000191188 -2.13646e-05 0.000214113)
(-0.000257069 -1.65325e-06 0.000226212)
(-0.00032362 2.34749e-05 0.000241831)
(-0.000442745 3.94526e-05 0.000260531)
(0.00032754 -1.74521e-05 0.000226415)
(0.000206427 -3.56751e-05 0.000214009)
(0.000126857 -4.63921e-05 0.000204284)
(4.86987e-05 -5.69704e-05 0.000198261)
(-3.3681e-05 -6.30023e-05 0.000196893)
(-0.000112006 -6.33391e-05 0.000200699)
(-0.000179056 -5.78372e-05 0.000209059)
(-0.000241843 -4.49196e-05 0.000221349)
(-0.000311599 -3.1399e-05 0.000237766)
(-0.000435619 -1.65697e-05 0.000257755)
(0.000318796 -7.52677e-05 0.000219572)
(0.000202681 -7.90776e-05 0.000208061)
(0.000121255 -8.47949e-05 0.000199502)
(4.19262e-05 -9.20693e-05 0.000195015)
(-3.66114e-05 -9.71579e-05 0.000194821)
(-0.000109983 -9.80244e-05 0.000199113)
(-0.000173962 -9.43709e-05 0.000207719)
(-0.000232988 -8.89012e-05 0.00022015)
(-0.000302672 -7.99439e-05 0.000236628)
(-0.000426523 -7.23483e-05 0.000257135)
(0.000314588 -0.000127201 0.000218284)
(0.00019919 -0.000126871 0.00020717)
(0.00011526 -0.000129366 0.00019956)
(3.71852e-05 -0.000134202 0.000195976)
(-3.93279e-05 -0.000136872 0.000196605)
(-0.000109339 -0.000137749 0.000201358)
(-0.000170497 -0.000137013 0.000209916)
(-0.000228504 -0.000133114 0.000222168)
(-0.000298144 -0.000131419 0.000238436)
(-0.000420455 -0.000130126 0.000258774)
(0.000313847 -0.00018529 0.000221617)
(0.000197994 -0.000179095 0.000211172)
(0.000112881 -0.000176893 0.000204199)
(3.38215e-05 -0.00017693 0.000201433)
(-4.03974e-05 -0.000177402 0.000202509)
(-0.000110091 -0.000178748 0.000207314)
(-0.000169099 -0.000178128 0.000215731)
(-0.000226936 -0.000180877 0.000227445)
(-0.000297678 -0.000183328 0.000243129)
(-0.000416088 -0.000188331 0.000262557)
(0.000317103 -0.000242605 0.000228657)
(0.00020031 -0.000230493 0.000219412)
(0.000114221 -0.00022439 0.000213326)
(3.49196e-05 -0.00021827 0.000210934)
(-4.17519e-05 -0.00021744 0.000212224)
(-0.000109924 -0.000216906 0.000216956)
(-0.000171989 -0.000222528 0.000224918)
(-0.000232033 -0.000229466 0.000236144)
(-0.000299636 -0.000239747 0.00025082)
(-0.000413828 -0.000246577 0.000268568)
(0.000313506 -0.000283218 0.000239622)
(0.000204814 -0.000282018 0.000231738)
(0.0001205 -0.000274801 0.00022641)
(3.85413e-05 -0.000268171 0.000224431)
(-3.98444e-05 -0.000264197 0.000225871)
(-0.000115249 -0.000265735 0.000230432)
(-0.00018148 -0.00027578 0.000237996)
(-0.000243046 -0.000289175 0.000248422)
(-0.000307939 -0.000305637 0.000262087)
(-0.000398877 -0.000298725 0.000276756)
(0.000281504 -0.000323077 0.000249087)
(0.000200489 -0.000362429 0.000245202)
(0.000127487 -0.000367349 0.000241984)
(4.60173e-05 -0.000359649 0.000241214)
(-3.94739e-05 -0.000353017 0.000243072)
(-0.000123125 -0.00035376 0.000247517)
(-0.000198949 -0.000364337 0.000254483)
(-0.00026722 -0.000385746 0.000263811)
(-0.000311118 -0.000402563 0.000275256)
(-0.000351687 -0.000366093 0.000284334)
(0.000148125 5.35161e-05 0.00055221)
(0.000137188 2.98644e-05 0.000523857)
(8.73229e-05 -2.85286e-05 0.000493315)
(3.74274e-05 -6.91769e-05 0.000476749)
(-1.40552e-05 -8.65511e-05 0.000471032)
(-6.789e-05 -8.86191e-05 0.000473071)
(-0.000123522 -7.27447e-05 0.000481021)
(-0.000162749 -4.44188e-05 0.000495768)
(-0.000170736 -9.16354e-06 0.000513784)
(-0.000146546 3.32922e-06 0.000527616)
(0.000151846 -1.09354e-05 0.00053224)
(9.63362e-05 -3.78842e-05 0.000506645)
(5.47415e-05 -6.23999e-05 0.000481844)
(1.83721e-05 -7.83598e-05 0.000467595)
(-2.05922e-05 -8.84329e-05 0.000462178)
(-6.35959e-05 -9.07579e-05 0.000464611)
(-0.000102734 -8.15023e-05 0.000473108)
(-0.000135568 -6.09986e-05 0.000487072)
(-0.000155234 -4.19877e-05 0.000506432)
(-0.000180621 -4.14232e-05 0.000525274)
(0.000146512 -6.21212e-05 0.000511477)
(8.37032e-05 -7.21054e-05 0.000490535)
(4.82319e-05 -7.73431e-05 0.000472165)
(1.36629e-05 -8.16068e-05 0.000460065)
(-2.50925e-05 -8.75081e-05 0.000455353)
(-6.11977e-05 -8.95139e-05 0.000457865)
(-9.45685e-05 -8.46714e-05 0.000466686)
(-0.00012236 -7.48473e-05 0.00048112)
(-0.000148767 -6.40813e-05 0.000500078)
(-0.000196281 -6.26352e-05 0.00052204)
(0.000149204 -8.71136e-05 0.000500259)
(8.5656e-05 -8.62138e-05 0.000481185)
(4.80148e-05 -8.42836e-05 0.000465645)
(1.04242e-05 -8.74553e-05 0.000455258)
(-2.74862e-05 -8.99339e-05 0.000451517)
(-6.12909e-05 -9.0606e-05 0.000454758)
(-8.96015e-05 -8.84429e-05 0.000464003)
(-0.00011645 -8.26251e-05 0.000478322)
(-0.000146818 -7.73734e-05 0.000497998)
(-0.000201947 -7.44769e-05 0.000521253)
(0.000153782 -0.000101155 0.000494966)
(9.12708e-05 -9.70468e-05 0.000476771)
(4.93582e-05 -9.63673e-05 0.000462321)
(9.53906e-06 -9.7281e-05 0.000453565)
(-2.75767e-05 -9.743e-05 0.000451216)
(-5.99676e-05 -9.66838e-05 0.000455128)
(-8.7593e-05 -9.42068e-05 0.000464806)
(-0.000113064 -9.13688e-05 0.000479414)
(-0.000144827 -8.76406e-05 0.000498963)
(-0.000202141 -8.58779e-05 0.000522735)
(0.000153839 -0.000112886 0.00049338)
(9.16791e-05 -0.000110785 0.000476014)
(4.85098e-05 -0.000109749 0.000462973)
(9.87268e-06 -0.000109634 0.000455668)
(-2.66593e-05 -0.000108357 0.000454612)
(-5.81425e-05 -0.000106348 0.000459321)
(-8.46791e-05 -0.000104142 0.000469216)
(-0.000110615 -0.000100943 0.000483801)
(-0.000143006 -9.90905e-05 0.000503186)
(-0.000199458 -9.8158e-05 0.000526663)
(0.000151198 -0.000131464 0.000494781)
(9.24248e-05 -0.000127307 0.000479161)
(4.95475e-05 -0.00012392 0.000467615)
(1.04103e-05 -0.000121372 0.000462081)
(-2.44927e-05 -0.000118732 0.000462059)
(-5.57195e-05 -0.000116145 0.00046749)
(-8.19859e-05 -0.000113341 0.00047772)
(-0.000107549 -0.000111684 0.000491846)
(-0.000140652 -0.000110511 0.000510833)
(-0.000193947 -0.000110329 0.000533263)
(0.000148553 -0.000147433 0.000499348)
(9.39974e-05 -0.000141512 0.000486384)
(5.18002e-05 -0.000136596 0.000476757)
(1.3633e-05 -0.00013115 0.000472592)
(-2.19232e-05 -0.000127151 0.000473778)
(-5.25566e-05 -0.000123968 0.000480012)
(-7.94929e-05 -0.000122612 0.000489884)
(-0.000106213 -0.000122413 0.000504243)
(-0.000137706 -0.000123178 0.000522204)
(-0.000185297 -0.000121008 0.000542706)
(0.000140013 -0.000151284 0.00050755)
(9.51886e-05 -0.000153448 0.000497628)
(5.60212e-05 -0.00014958 0.000490352)
(1.79313e-05 -0.000144389 0.000487385)
(-1.78855e-05 -0.000139339 0.000489992)
(-5.08775e-05 -0.000136227 0.000496156)
(-7.94846e-05 -0.000136294 0.000507107)
(-0.000106025 -0.000137761 0.000520528)
(-0.000134041 -0.000138365 0.000538104)
(-0.000166691 -0.000126493 0.000555188)
(0.0001172 -0.000150482 0.000513072)
(8.91689e-05 -0.000177277 0.000509896)
(5.87917e-05 -0.000183286 0.000506005)
(2.32083e-05 -0.000179791 0.000505682)
(-1.40175e-05 -0.000173498 0.000509024)
(-4.9849e-05 -0.000168368 0.000516326)
(-8.14699e-05 -0.000165209 0.00052681)
(-0.000108111 -0.000164658 0.000540028)
(-0.000123513 -0.000158549 0.000555446)
(-0.000128537 -0.000127367 0.000565592)
(3.85284e-05 -8.1684e-06 0.000559213)
(4.09234e-05 -3.72461e-05 0.000536231)
(2.40874e-05 -8.06999e-05 0.00051)
(1.36038e-05 -0.000101417 0.000493423)
(-8.3048e-06 -0.000108799 0.000483155)
(-4.06472e-05 -0.00010411 0.000476821)
(-7.30117e-05 -8.90679e-05 0.00047426)
(-9.2837e-05 -6.47444e-05 0.000475888)
(-9.14392e-05 -3.83733e-05 0.000479685)
(-6.83027e-05 -2.38101e-05 0.000480881)
(3.62301e-05 -4.83357e-05 0.000544999)
(1.5273e-05 -6.17002e-05 0.000527228)
(7.66549e-06 -7.14328e-05 0.000507993)
(1.76307e-06 -8.11189e-05 0.000494755)
(-1.26777e-05 -9.05641e-05 0.000486301)
(-3.43398e-05 -9.18892e-05 0.000481484)
(-5.60033e-05 -8.1691e-05 0.000479952)
(-7.06632e-05 -6.46784e-05 0.000481661)
(-7.67033e-05 -4.81911e-05 0.000486238)
(-8.03374e-05 -4.39728e-05 0.00049014)
(3.857e-05 -7.54442e-05 0.00053233)
(1.58935e-05 -7.21122e-05 0.000519404)
(6.74038e-06 -6.90549e-05 0.000505743)
(-3.64166e-06 -7.32443e-05 0.000494704)
(-1.79627e-05 -7.92157e-05 0.000487558)
(-3.19116e-05 -8.10222e-05 0.000484068)
(-4.64875e-05 -7.53875e-05 0.000483545)
(-5.8792e-05 -6.5627e-05 0.000486017)
(-6.83742e-05 -5.5296e-05 0.000491034)
(-8.43924e-05 -5.05991e-05 0.000497135)