/*--------------------------------*- C++ -*----------------------------------*\
| =========                 |                                                 |
| \\      /  F ield         | OpenFOAM: The Open Source CFD Toolbox           |
|  \\    /   O peration     | Version:  2406                                  |
|   \\  /    A nd           | Website:  www.openfoam.com                      |
|    \\/     M anipulation  |                                                 |
\*---------------------------------------------------------------------------*/
FoamFile
{
    version     2.0;
    format      ascii;
    arch        "LSB;label=32;scalar=64";
    class       volScalarField;
    location    "250";
    object      nuTilda;
}
// * * * * * * * * * * * * * * * * * * * * * * * * * * * * * * * * * * * * * //

dimensions      [0 2 -1 0 0 0 0];

internalField   nonuniform List<scalar> 
25000
(
3.96612e-05
3.97393e-05
3.97881e-05
3.98122e-05
3.98228e-05
3.98228e-05
3.98122e-05
3.97884e-05
3.97433e-05
3.96613e-05
3.97433e-05
3.98127e-05
3.98519e-05
3.98735e-05
3.9884e-05
3.9884e-05
3.98738e-05
3.98615e-05
3.98128e-05
3.97394e-05
3.97883e-05
3.98615e-05
3.98942e-05
3.99085e-05
3.99183e-05
3.99183e-05
3.99097e-05
3.98942e-05
3.98519e-05
3.97881e-05
3.98122e-05
3.98738e-05
3.99097e-05
3.99299e-05
3.99383e-05
3.9939e-05
3.99299e-05
3.99085e-05
3.98735e-05
3.98123e-05
3.98228e-05
3.9884e-05
3.99183e-05
3.9939e-05
3.99515e-05
3.99515e-05
3.99382e-05
3.99183e-05
3.9884e-05
3.98228e-05
3.98228e-05
3.9884e-05
3.99183e-05
3.99383e-05
3.99515e-05
3.99515e-05
3.99382e-05
3.99183e-05
3.9884e-05
3.98228e-05
3.98122e-05
3.98735e-05
3.99085e-05
3.99299e-05
3.99391e-05
3.99391e-05
3.99299e-05
3.99085e-05
3.98735e-05
3.98123e-05
3.97881e-05
3.98519e-05
3.98942e-05
3.99097e-05
3.99183e-05
3.99183e-05
3.99097e-05
3.98942e-05
3.98519e-05
3.97881e-05
3.97394e-05
3.98128e-05
3.98615e-05
3.98738e-05
3.9884e-05
3.9884e-05
3.98738e-05
3.98615e-05
3.98128e-05
3.97394e-05
3.96613e-05
3.97433e-05
3.97884e-05
3.98122e-05
3.98228e-05
3.98228e-05
3.98122e-05
3.97884e-05
3.97433e-05
3.96613e-05
3.89621e-05
3.92102e-05
3.93581e-05
3.9433e-05
3.94656e-05
3.94656e-05
3.9433e-05
3.93596e-05
3.92202e-05
3.89621e-05
3.92202e-05
3.94357e-05
3.95545e-05
3.96198e-05
3.96512e-05
3.96512e-05
3.96213e-05
3.95797e-05
3.94357e-05
3.92103e-05
3.93596e-05
3.95797e-05
3.96807e-05
3.97257e-05
3.97546e-05
3.97549e-05
3.97292e-05
3.96808e-05
3.95545e-05
3.93581e-05
3.9433e-05
3.96213e-05
3.97292e-05
3.97893e-05
3.9815e-05
3.98171e-05
3.97893e-05
3.97257e-05
3.96198e-05
3.9433e-05
3.94656e-05
3.96512e-05
3.97549e-05
3.98171e-05
3.98537e-05
3.98537e-05
3.98149e-05
3.97547e-05
3.96512e-05
3.94656e-05
3.94656e-05
3.96512e-05
3.97547e-05
3.9815e-05
3.98537e-05
3.98537e-05
3.98149e-05
3.97547e-05
3.96512e-05
3.94656e-05
3.9433e-05
3.96198e-05
3.97257e-05
3.97893e-05
3.98172e-05
3.98172e-05
3.97893e-05
3.97257e-05
3.96198e-05
3.9433e-05
3.93581e-05
3.95545e-05
3.96808e-05
3.97292e-05
3.97549e-05
3.97549e-05
3.97292e-05
3.96808e-05
3.95545e-05
3.93581e-05
3.92103e-05
3.94357e-05
3.95797e-05
3.96213e-05
3.96512e-05
3.96512e-05
3.96213e-05
3.95797e-05
3.94357e-05
3.92103e-05
3.89621e-05
3.92202e-05
3.93596e-05
3.9433e-05
3.94656e-05
3.94656e-05
3.9433e-05
3.93596e-05
3.92202e-05
3.89621e-05
3.82541e-05
3.86788e-05
3.89262e-05
3.90532e-05
3.91084e-05
3.91084e-05
3.90533e-05
3.89295e-05
3.86933e-05
3.82541e-05
3.86933e-05
3.90586e-05
3.92579e-05
3.93667e-05
3.94188e-05
3.94189e-05
3.937e-05
3.92954e-05
3.90587e-05
3.86789e-05
3.89294e-05
3.92954e-05
3.94666e-05
3.9544e-05
3.95915e-05
3.9592e-05
3.95494e-05
3.94666e-05
3.92579e-05
3.89262e-05
3.90532e-05
3.93699e-05
3.95494e-05
3.96489e-05
3.96922e-05
3.96954e-05
3.96489e-05
3.9544e-05
3.93668e-05
3.90532e-05
3.91084e-05
3.94189e-05
3.9592e-05
3.96954e-05
3.97554e-05
3.97554e-05
3.96921e-05
3.95915e-05
3.94189e-05
3.91085e-05
3.91084e-05
3.94188e-05
3.95915e-05
3.96923e-05
3.97554e-05
3.97554e-05
3.96921e-05
3.95915e-05
3.94189e-05
3.91085e-05
3.90532e-05
3.93667e-05
3.9544e-05
3.96489e-05
3.96956e-05
3.96956e-05
3.96489e-05
3.9544e-05
3.93668e-05
3.90532e-05
3.89262e-05
3.92579e-05
3.94666e-05
3.95494e-05
3.9592e-05
3.9592e-05
3.95494e-05
3.94666e-05
3.92579e-05
3.89262e-05
3.86789e-05
3.90587e-05
3.92954e-05
3.937e-05
3.94189e-05
3.9419e-05
3.937e-05
3.92954e-05
3.90587e-05
3.86789e-05
3.82541e-05
3.86933e-05
3.89295e-05
3.90533e-05
3.91085e-05
3.91085e-05
3.90533e-05
3.89295e-05
3.86934e-05
3.82541e-05
3.7551e-05
3.81493e-05
3.84953e-05
3.86748e-05
3.87529e-05
3.87529e-05
3.86751e-05
3.85006e-05
3.81674e-05
3.75511e-05
3.81674e-05
3.86831e-05
3.89627e-05
3.91149e-05
3.91873e-05
3.91876e-05
3.91201e-05
3.90102e-05
3.86832e-05
3.81494e-05
3.85006e-05
3.90101e-05
3.92523e-05
3.93633e-05
3.9429e-05
3.94298e-05
3.93704e-05
3.92523e-05
3.89628e-05
3.84954e-05
3.86751e-05
3.912e-05
3.93704e-05
3.95089e-05
3.95699e-05
3.95739e-05
3.95089e-05
3.93634e-05
3.91149e-05
3.86749e-05
3.87529e-05
3.91876e-05
3.94298e-05
3.95739e-05
3.96564e-05
3.96564e-05
3.95697e-05
3.94289e-05
3.91874e-05
3.87529e-05
3.87529e-05
3.91873e-05
3.9429e-05
3.957e-05
3.96565e-05
3.96565e-05
3.95697e-05
3.94289e-05
3.91874e-05
3.87529e-05
3.86748e-05
3.91149e-05
3.93634e-05
3.95089e-05
3.95743e-05
3.95743e-05
3.95089e-05
3.93634e-05
3.91149e-05
3.86749e-05
3.84954e-05
3.89628e-05
3.92523e-05
3.93705e-05
3.94299e-05
3.94299e-05
3.93705e-05
3.92523e-05
3.89628e-05
3.84954e-05
3.81494e-05
3.86832e-05
3.90102e-05
3.91201e-05
3.91876e-05
3.91876e-05
3.91201e-05
3.90102e-05
3.86832e-05
3.81494e-05
3.75511e-05
3.81674e-05
3.85007e-05
3.86751e-05
3.87529e-05
3.87529e-05
3.86751e-05
3.85007e-05
3.81675e-05
3.75511e-05
3.68622e-05
3.76247e-05
3.80675e-05
3.82992e-05
3.84e-05
3.84e-05
3.82998e-05
3.8075e-05
3.76458e-05
3.68624e-05
3.76457e-05
3.83098e-05
3.86693e-05
3.88643e-05
3.89568e-05
3.89573e-05
3.88715e-05
3.87248e-05
3.83099e-05
3.76248e-05
3.8075e-05
3.87247e-05
3.90379e-05
3.91835e-05
3.92669e-05
3.92681e-05
3.91921e-05
3.9038e-05
3.86694e-05
3.80677e-05
3.82998e-05
3.88715e-05
3.91921e-05
3.9369e-05
3.94478e-05
3.94525e-05
3.9369e-05
3.91835e-05
3.88644e-05
3.82993e-05
3.84e-05
3.89573e-05
3.92681e-05
3.94525e-05
3.95568e-05
3.95568e-05
3.94474e-05
3.92668e-05
3.89568e-05
3.84001e-05
3.84e-05
3.89568e-05
3.92669e-05
3.94479e-05
3.95569e-05
3.95569e-05
3.94474e-05
3.92668e-05
3.89568e-05
3.84001e-05
3.82992e-05
3.88643e-05
3.91835e-05
3.9369e-05
3.9453e-05
3.9453e-05
3.9369e-05
3.91836e-05
3.88644e-05
3.82993e-05
3.80677e-05
3.86694e-05
3.9038e-05
3.91921e-05
3.92682e-05
3.92682e-05
3.91921e-05
3.9038e-05
3.86694e-05
3.80677e-05
3.76248e-05
3.83099e-05
3.87248e-05
3.88716e-05
3.89573e-05
3.89573e-05
3.88716e-05
3.87248e-05
3.83099e-05
3.76249e-05
3.68624e-05
3.76458e-05
3.80751e-05
3.82999e-05
3.84001e-05
3.84001e-05
3.82999e-05
3.80751e-05
3.76459e-05
3.68624e-05
3.6189e-05
3.71053e-05
3.7643e-05
3.79262e-05
3.80497e-05
3.80498e-05
3.79273e-05
3.76526e-05
3.71289e-05
3.61892e-05
3.71289e-05
3.79383e-05
3.83771e-05
3.86148e-05
3.87271e-05
3.87278e-05
3.8624e-05
3.84393e-05
3.79384e-05
3.71056e-05
3.76526e-05
3.84392e-05
3.88233e-05
3.90042e-05
3.91051e-05
3.91066e-05
3.90141e-05
3.88234e-05
3.83772e-05
3.76432e-05
3.79273e-05
3.8624e-05
3.9014e-05
3.9229e-05
3.93257e-05
3.93309e-05
3.9229e-05
3.90042e-05
3.86149e-05
3.79264e-05
3.80498e-05
3.87278e-05
3.91066e-05
3.93309e-05
3.94564e-05
3.94564e-05
3.93251e-05
3.91049e-05
3.87271e-05
3.80498e-05
3.80498e-05
3.87271e-05
3.91051e-05
3.93257e-05
3.94565e-05
3.94564e-05
3.93251e-05
3.9105e-05
3.87271e-05
3.80498e-05
3.79264e-05
3.86149e-05
3.90042e-05
3.92291e-05
3.93315e-05
3.93315e-05
3.92291e-05
3.90042e-05
3.86149e-05
3.79264e-05
3.76431e-05
3.83772e-05
3.88234e-05
3.90141e-05
3.91068e-05
3.91068e-05
3.90141e-05
3.88234e-05
3.83772e-05
3.76432e-05
3.71055e-05
3.79384e-05
3.84393e-05
3.86241e-05
3.87279e-05
3.87279e-05
3.86241e-05
3.84393e-05
3.79384e-05
3.71056e-05
3.61893e-05
3.7129e-05
3.76527e-05
3.79274e-05
3.80499e-05
3.80499e-05
3.79274e-05
3.76527e-05
3.7129e-05
3.61893e-05
3.55278e-05
3.65896e-05
3.72198e-05
3.75545e-05
3.77006e-05
3.77007e-05
3.7556e-05
3.72316e-05
3.66151e-05
3.5528e-05
3.66151e-05
3.75673e-05
3.80852e-05
3.83656e-05
3.84976e-05
3.84986e-05
3.83768e-05
3.81528e-05
3.75674e-05
3.65898e-05
3.72316e-05
3.81527e-05
3.8608e-05
3.88249e-05
3.89432e-05
3.89451e-05
3.88359e-05
3.86081e-05
3.80853e-05
3.722e-05
3.75561e-05
3.83768e-05
3.88359e-05
3.90888e-05
3.92032e-05
3.92089e-05
3.90888e-05
3.88249e-05
3.83657e-05
3.75546e-05
3.77008e-05
3.84987e-05
3.89451e-05
3.92089e-05
3.93551e-05
3.9355e-05
3.92025e-05
3.8943e-05
3.84975e-05
3.77007e-05
3.77007e-05
3.84976e-05
3.89432e-05
3.92033e-05
3.93552e-05
3.93551e-05
3.92025e-05
3.8943e-05
3.84975e-05
3.77007e-05
3.75546e-05
3.83657e-05
3.88249e-05
3.9089e-05
3.92097e-05
3.92097e-05
3.90889e-05
3.88249e-05
3.83657e-05
3.75546e-05
3.722e-05
3.80854e-05
3.86081e-05
3.8836e-05
3.89454e-05
3.89454e-05
3.8836e-05
3.86081e-05
3.80854e-05
3.722e-05
3.65898e-05
3.75674e-05
3.81528e-05
3.83769e-05
3.84988e-05
3.84988e-05
3.83769e-05
3.81528e-05
3.75674e-05
3.65898e-05
3.55281e-05
3.66152e-05
3.72317e-05
3.75561e-05
3.77009e-05
3.77009e-05
3.75561e-05
3.72317e-05
3.66152e-05
3.5528e-05
3.48787e-05
3.6077e-05
3.67971e-05
3.71826e-05
3.73515e-05
3.73517e-05
3.71848e-05
3.68109e-05
3.61041e-05
3.48789e-05
3.6104e-05
3.7196e-05
3.7793e-05
3.81162e-05
3.82678e-05
3.82692e-05
3.81294e-05
3.78649e-05
3.71961e-05
3.60771e-05
3.68109e-05
3.78648e-05
3.83918e-05
3.86453e-05
3.87811e-05
3.87834e-05
3.86575e-05
3.83918e-05
3.77931e-05
3.67973e-05
3.71848e-05
3.81293e-05
3.86574e-05
3.89483e-05
3.90804e-05
3.90864e-05
3.89482e-05
3.86454e-05
3.81163e-05
3.71828e-05
3.73518e-05
3.82692e-05
3.87834e-05
3.90864e-05
3.92529e-05
3.92529e-05
3.90796e-05
3.87807e-05
3.82677e-05
3.73516e-05
3.73516e-05
3.82678e-05
3.87811e-05
3.90805e-05
3.92531e-05
3.9253e-05
3.90796e-05
3.87808e-05
3.82677e-05
3.73516e-05
3.71828e-05
3.81163e-05
3.86454e-05
3.89484e-05
3.90874e-05
3.90874e-05
3.89483e-05
3.86454e-05
3.81163e-05
3.71828e-05
3.67973e-05
3.77931e-05
3.83919e-05
3.86575e-05
3.87837e-05
3.87837e-05
3.86575e-05
3.83919e-05
3.77931e-05
3.67973e-05
3.60771e-05
3.71961e-05
3.78649e-05
3.81294e-05
3.82694e-05
3.82694e-05
3.81294e-05
3.78649e-05
3.71961e-05
3.60771e-05
3.48789e-05
3.61041e-05
3.6811e-05
3.71849e-05
3.73518e-05
3.73518e-05
3.71848e-05
3.6811e-05
3.61041e-05
3.48789e-05
3.42466e-05
3.55691e-05
3.63753e-05
3.68109e-05
3.70024e-05
3.70027e-05
3.68136e-05
3.6391e-05
3.55974e-05
3.42467e-05
3.55974e-05
3.68246e-05
3.75003e-05
3.78664e-05
3.80376e-05
3.80394e-05
3.78814e-05
3.75756e-05
3.68247e-05
3.55692e-05
3.6391e-05
3.75756e-05
3.81745e-05
3.84655e-05
3.86186e-05
3.86212e-05
3.84785e-05
3.81746e-05
3.75003e-05
3.63755e-05
3.68136e-05
3.78814e-05
3.84785e-05
3.88073e-05
3.89572e-05
3.89635e-05
3.88072e-05
3.84654e-05
3.78665e-05
3.6811e-05
3.70027e-05
3.80394e-05
3.86212e-05
3.89635e-05
3.915e-05
3.91499e-05
3.89562e-05
3.86182e-05
3.80374e-05
3.70024e-05
3.70024e-05
3.80376e-05
3.86186e-05
3.89573e-05
3.91501e-05
3.915e-05
3.89562e-05
3.86182e-05
3.80374e-05
3.70024e-05
3.6811e-05
3.78665e-05
3.84655e-05
3.88074e-05
3.89646e-05
3.89646e-05
3.88073e-05
3.84655e-05
3.78665e-05
3.6811e-05
3.63754e-05
3.75003e-05
3.81746e-05
3.84786e-05
3.86217e-05
3.86217e-05
3.84786e-05
3.81746e-05
3.75004e-05
3.63755e-05
3.55692e-05
3.68247e-05
3.75756e-05
3.78814e-05
3.80396e-05
3.80397e-05
3.78814e-05
3.75756e-05
3.68247e-05
3.55693e-05
3.42467e-05
3.55975e-05
3.6391e-05
3.68137e-05
3.70028e-05
3.70028e-05
3.68137e-05
3.63911e-05
3.55975e-05
3.42468e-05
3.36415e-05
3.50692e-05
3.59561e-05
3.64401e-05
3.66539e-05
3.66543e-05
3.64435e-05
3.59734e-05
3.50985e-05
3.36415e-05
3.50985e-05
3.6454e-05
3.72073e-05
3.76164e-05
3.78071e-05
3.78093e-05
3.7633e-05
3.72854e-05
3.6454e-05
3.50693e-05
3.59734e-05
3.72854e-05
3.79564e-05
3.82852e-05
3.84558e-05
3.84588e-05
3.82992e-05
3.79564e-05
3.72074e-05
3.59561e-05
3.64435e-05
3.7633e-05
3.82992e-05
3.86659e-05
3.88337e-05
3.88402e-05
3.86658e-05
3.82852e-05
3.76164e-05
3.64402e-05
3.66543e-05
3.78093e-05
3.84588e-05
3.88402e-05
3.90463e-05
3.90461e-05
3.88325e-05
3.84552e-05
3.78069e-05
3.66539e-05
3.66539e-05
3.78071e-05
3.84558e-05
3.88337e-05
3.90464e-05
3.90463e-05
3.88325e-05
3.84552e-05
3.78069e-05
3.66539e-05
3.64402e-05
3.76164e-05
3.82853e-05
3.86661e-05
3.88414e-05
3.88414e-05
3.86659e-05
3.82852e-05
3.76164e-05
3.64402e-05
3.59561e-05
3.72073e-05
3.79564e-05
3.82993e-05
3.84594e-05
3.84594e-05
3.82993e-05
3.79565e-05
3.72074e-05
3.59561e-05
3.50692e-05
3.6454e-05
3.72854e-05
3.76331e-05
3.78096e-05
3.78096e-05
3.76331e-05
3.72854e-05
3.6454e-05
3.50693e-05
3.36414e-05
3.50985e-05
3.59734e-05
3.64435e-05
3.66544e-05
3.66544e-05
3.64435e-05
3.59735e-05
3.50985e-05
3.36415e-05
3.30764e-05
3.45811e-05
3.55412e-05
3.60716e-05
3.63069e-05
3.63074e-05
3.60756e-05
3.556e-05
3.46112e-05
3.30763e-05
3.46112e-05
3.60852e-05
3.69145e-05
3.73663e-05
3.75765e-05
3.7579e-05
3.73845e-05
3.69948e-05
3.60852e-05
3.45811e-05
3.55601e-05
3.69948e-05
3.77377e-05
3.81047e-05
3.82928e-05
3.82961e-05
3.81195e-05
3.77377e-05
3.69145e-05
3.55412e-05
3.60756e-05
3.73845e-05
3.81195e-05
3.85242e-05
3.87097e-05
3.87164e-05
3.8524e-05
3.81047e-05
3.73662e-05
3.60716e-05
3.63074e-05
3.7579e-05
3.82961e-05
3.87164e-05
3.89419e-05
3.89417e-05
3.87084e-05
3.82921e-05
3.75761e-05
3.63069e-05
3.63069e-05
3.75765e-05
3.82928e-05
3.87097e-05
3.89421e-05
3.89419e-05
3.87084e-05
3.82921e-05
3.75761e-05
3.63069e-05
3.60716e-05
3.73663e-05
3.81048e-05
3.85244e-05
3.87178e-05
3.87178e-05
3.85242e-05
3.81047e-05
3.73662e-05
3.60716e-05
3.55411e-05
3.69145e-05
3.77377e-05
3.81196e-05
3.82968e-05
3.82968e-05
3.81196e-05
3.77377e-05
3.69145e-05
3.55412e-05
3.45811e-05
3.60851e-05
3.69948e-05
3.73845e-05
3.75794e-05
3.75794e-05
3.73845e-05
3.69948e-05
3.60852e-05
3.45811e-05
3.30763e-05
3.46112e-05
3.556e-05
3.60756e-05
3.63075e-05
3.63075e-05
3.60756e-05
3.55601e-05
3.46112e-05
3.30763e-05
3.25745e-05
3.41109e-05
3.51331e-05
3.57067e-05
3.59627e-05
3.59634e-05
3.57114e-05
3.51534e-05
3.41416e-05
3.25745e-05
3.41417e-05
3.57196e-05
3.66224e-05
3.71163e-05
3.73459e-05
3.73488e-05
3.7136e-05
3.67045e-05
3.57196e-05
3.41109e-05
3.51534e-05
3.67045e-05
3.75185e-05
3.7924e-05
3.81296e-05
3.81332e-05
3.79395e-05
3.75185e-05
3.66224e-05
3.51331e-05
3.57114e-05
3.7136e-05
3.79395e-05
3.83822e-05
3.85854e-05
3.85923e-05
3.8382e-05
3.79239e-05
3.71163e-05
3.57067e-05
3.59634e-05
3.73488e-05
3.81332e-05
3.85923e-05
3.88369e-05
3.88367e-05
3.85839e-05
3.81287e-05
3.73454e-05
3.59626e-05
3.59627e-05
3.73459e-05
3.81296e-05
3.85855e-05
3.88371e-05
3.88369e-05
3.8584e-05
3.81287e-05
3.73454e-05
3.59626e-05
3.57067e-05
3.71163e-05
3.7924e-05
3.83824e-05
3.85938e-05
3.85938e-05
3.83822e-05
3.79239e-05
3.71163e-05
3.57067e-05
3.51331e-05
3.66224e-05
3.75185e-05
3.79396e-05
3.8134e-05
3.8134e-05
3.79396e-05
3.75185e-05
3.66224e-05
3.51331e-05
3.41109e-05
3.57195e-05
3.67045e-05
3.71361e-05
3.73492e-05
3.73493e-05
3.71361e-05
3.67045e-05
3.57196e-05
3.41109e-05
3.25745e-05
3.41416e-05
3.51534e-05
3.57114e-05
3.59635e-05
3.59635e-05
3.57114e-05
3.51534e-05
3.41416e-05
3.25745e-05
3.21683e-05
3.36667e-05
3.47349e-05
3.53473e-05
3.56226e-05
3.56234e-05
3.53526e-05
3.47565e-05
3.36979e-05
3.21681e-05
3.36979e-05
3.53589e-05
3.63315e-05
3.68668e-05
3.71155e-05
3.71188e-05
3.68878e-05
3.64149e-05
3.53589e-05
3.36666e-05
3.47565e-05
3.6415e-05
3.72992e-05
3.77432e-05
3.79662e-05
3.79702e-05
3.77593e-05
3.72991e-05
3.63314e-05
3.47349e-05
3.53526e-05
3.68878e-05
3.77594e-05
3.82399e-05
3.84608e-05
3.84678e-05
3.82397e-05
3.7743e-05
3.68668e-05
3.53473e-05
3.56234e-05
3.71188e-05
3.79702e-05
3.84679e-05
3.87312e-05
3.8731e-05
3.84592e-05
3.79652e-05
3.71149e-05
3.56225e-05
3.56226e-05
3.71155e-05
3.79662e-05
3.84609e-05
3.87315e-05
3.87312e-05
3.84592e-05
3.79652e-05
3.71149e-05
3.56225e-05
3.53472e-05
3.68668e-05
3.77432e-05
3.82401e-05
3.84695e-05
3.84694e-05
3.82399e-05
3.77431e-05
3.68668e-05
3.53473e-05
3.47348e-05
3.63314e-05
3.72991e-05
3.77595e-05
3.79711e-05
3.79711e-05
3.77595e-05
3.72991e-05
3.63314e-05
3.47349e-05
3.36666e-05
3.53588e-05
3.64149e-05
3.68879e-05
3.71194e-05
3.71194e-05
3.68879e-05
3.6415e-05
3.53589e-05
3.36666e-05
3.21681e-05
3.36979e-05
3.47565e-05
3.53526e-05
3.56236e-05
3.56236e-05
3.53526e-05
3.47565e-05
3.36979e-05
3.21682e-05
3.19184e-05
3.32622e-05
3.43509e-05
3.49954e-05
3.52882e-05
3.52892e-05
3.50014e-05
3.43737e-05
3.32939e-05
3.19182e-05
3.32939e-05
3.50056e-05
3.60424e-05
3.66181e-05
3.68856e-05
3.68892e-05
3.66403e-05
3.6127e-05
3.50056e-05
3.32621e-05
3.43737e-05
3.61271e-05
3.70798e-05
3.75623e-05
3.78028e-05
3.7807e-05
3.7579e-05
3.70797e-05
3.60424e-05
3.43509e-05
3.50014e-05
3.66403e-05
3.75791e-05
3.80974e-05
3.83359e-05
3.8343e-05
3.80971e-05
3.75621e-05
3.6618e-05
3.49954e-05
3.52892e-05
3.68892e-05
3.7807e-05
3.83431e-05
3.86251e-05
3.86248e-05
3.83341e-05
3.78016e-05
3.68849e-05
3.52881e-05
3.52882e-05
3.68856e-05
3.78027e-05
3.8336e-05
3.86253e-05
3.8625e-05
3.83342e-05
3.78016e-05
3.68849e-05
3.52881e-05
3.49954e-05
3.66181e-05
3.75623e-05
3.80977e-05
3.83448e-05
3.83448e-05
3.80974e-05
3.75621e-05
3.6618e-05
3.49954e-05
3.43508e-05
3.60424e-05
3.70798e-05
3.75792e-05
3.78081e-05
3.78081e-05
3.75792e-05
3.70798e-05
3.60424e-05
3.43509e-05
3.32621e-05
3.50055e-05
3.6127e-05
3.66404e-05
3.68899e-05
3.68899e-05
3.66404e-05
3.6127e-05
3.50055e-05
3.32621e-05
3.19181e-05
3.32938e-05
3.43736e-05
3.50014e-05
3.52894e-05
3.52894e-05
3.50014e-05
3.43737e-05
3.32939e-05
3.19182e-05
3.19062e-05
3.29178e-05
3.39874e-05
3.46542e-05
3.49617e-05
3.49628e-05
3.46608e-05
3.40112e-05
3.29498e-05
3.19057e-05
3.29498e-05
3.46629e-05
3.57561e-05
3.63705e-05
3.66564e-05
3.66603e-05
3.63937e-05
3.58415e-05
3.46628e-05
3.29177e-05
3.40113e-05
3.58416e-05
3.68606e-05
3.73814e-05
3.76392e-05
3.76438e-05
3.73986e-05
3.68605e-05
3.5756e-05
3.39874e-05
3.46608e-05
3.63937e-05
3.73987e-05
3.79547e-05
3.82107e-05
3.82179e-05
3.79544e-05
3.73811e-05
3.63703e-05
3.46542e-05
3.49628e-05
3.66603e-05
3.76438e-05
3.8218e-05
3.85183e-05
3.8518e-05
3.82088e-05
3.7638e-05
3.66555e-05
3.49615e-05
3.49617e-05
3.66564e-05
3.76392e-05
3.82108e-05
3.85186e-05
3.85183e-05
3.82088e-05
3.7638e-05
3.66555e-05
3.49615e-05
3.46542e-05
3.63704e-05
3.73814e-05
3.7955e-05
3.82198e-05
3.82198e-05
3.79547e-05
3.73812e-05
3.63703e-05
3.46542e-05
3.39873e-05
3.5756e-05
3.68606e-05
3.73989e-05
3.7645e-05
3.7645e-05
3.73988e-05
3.68606e-05
3.5756e-05
3.39874e-05
3.29177e-05
3.46628e-05
3.58415e-05
3.63938e-05
3.66612e-05
3.66612e-05
3.63938e-05
3.58416e-05
3.46628e-05
3.29177e-05
3.19057e-05
3.29497e-05
3.40112e-05
3.46609e-05
3.49631e-05
3.49631e-05
3.46609e-05
3.40112e-05
3.29498e-05
3.19057e-05
3.22795e-05
3.2668e-05
3.36552e-05
3.43283e-05
3.46461e-05
3.46474e-05
3.43355e-05
3.36799e-05
3.27002e-05
3.22785e-05
3.27003e-05
3.43363e-05
3.54736e-05
3.61243e-05
3.64281e-05
3.64324e-05
3.61485e-05
3.55597e-05
3.43362e-05
3.26677e-05
3.368e-05
3.55598e-05
3.66419e-05
3.72005e-05
3.74757e-05
3.74805e-05
3.72182e-05
3.66418e-05
3.54735e-05
3.36551e-05
3.43355e-05
3.61486e-05
3.72184e-05
3.78118e-05
3.80852e-05
3.80925e-05
3.78114e-05
3.72002e-05
3.61241e-05
3.43282e-05
3.46474e-05
3.64324e-05
3.74805e-05
3.80926e-05
3.84111e-05
3.84108e-05
3.80832e-05
3.74743e-05
3.64271e-05
3.46458e-05
3.46461e-05
3.64281e-05
3.74757e-05
3.80853e-05
3.84114e-05
3.84111e-05
3.80832e-05
3.74743e-05
3.64271e-05
3.46458e-05
3.43282e-05
3.61242e-05
3.72005e-05
3.78121e-05
3.80946e-05
3.80945e-05
3.78117e-05
3.72002e-05
3.61241e-05
3.43282e-05
3.36551e-05
3.54735e-05
3.66418e-05
3.72185e-05
3.74819e-05
3.74818e-05
3.72185e-05
3.66418e-05
3.54735e-05
3.36551e-05
3.26678e-05
3.43361e-05
3.55597e-05
3.61486e-05
3.64333e-05
3.64333e-05
3.61486e-05
3.55597e-05
3.43361e-05
3.26677e-05
3.22786e-05
3.27001e-05
3.36799e-05
3.43355e-05
3.46477e-05
3.46477e-05
3.43355e-05
3.36799e-05
3.27002e-05
3.22786e-05
3.31987e-05
3.25658e-05
3.33703e-05
3.40248e-05
3.43463e-05
3.43477e-05
3.40326e-05
3.33959e-05
3.25981e-05
3.31971e-05
3.25983e-05
3.40337e-05
3.51966e-05
3.58801e-05
3.6201e-05
3.62056e-05
3.59052e-05
3.52832e-05
3.40335e-05
3.25653e-05
3.3396e-05
3.52833e-05
3.64239e-05
3.70198e-05
3.73122e-05
3.73172e-05
3.70379e-05
3.64237e-05
3.51965e-05
3.33702e-05
3.40326e-05
3.59053e-05
3.70381e-05
3.76687e-05
3.79595e-05
3.79668e-05
3.76683e-05
3.70194e-05
3.58799e-05
3.40247e-05
3.43477e-05
3.62056e-05
3.73172e-05
3.79669e-05
3.83034e-05
3.8303e-05
3.79573e-05
3.73106e-05
3.61999e-05
3.43459e-05
3.43462e-05
3.6201e-05
3.73122e-05
3.79596e-05
3.83038e-05
3.83034e-05
3.79574e-05
3.73106e-05
3.61999e-05
3.43459e-05
3.40248e-05
3.588e-05
3.70197e-05
3.7669e-05
3.7969e-05
3.79689e-05
3.76686e-05
3.70194e-05
3.58799e-05
3.40248e-05
3.33702e-05
3.51965e-05
3.64238e-05
3.70382e-05
3.73187e-05
3.73187e-05
3.70382e-05
3.64237e-05
3.51965e-05
3.33702e-05
3.25654e-05
3.40335e-05
3.52832e-05
3.59054e-05
3.62066e-05
3.62066e-05
3.59054e-05
3.52832e-05
3.40335e-05
3.25653e-05
3.31971e-05
3.25979e-05
3.33959e-05
3.40327e-05
3.43481e-05
3.43481e-05
3.40327e-05
3.33958e-05
3.2598e-05
3.31971e-05
3.49101e-05
3.2684e-05
3.31577e-05
3.37551e-05
3.40695e-05
3.40712e-05
3.37634e-05
3.3184e-05
3.27161e-05
3.49073e-05
3.27165e-05
3.37688e-05
3.49278e-05
3.56388e-05
3.59755e-05
3.59804e-05
3.56646e-05
3.50148e-05
3.37686e-05
3.2683e-05
3.31842e-05
3.50149e-05
3.6207e-05
3.68392e-05
3.71487e-05
3.71539e-05
3.68578e-05
3.62068e-05
3.49276e-05
3.31575e-05
3.37635e-05
3.56647e-05
3.68579e-05
3.75255e-05
3.78335e-05
3.78408e-05
3.7525e-05
3.68388e-05
3.56385e-05
3.37549e-05
3.40712e-05
3.59804e-05
3.7154e-05
3.7841e-05
3.81953e-05
3.81948e-05
3.78312e-05
3.7147e-05
3.59743e-05
3.40691e-05
3.40695e-05
3.59755e-05
3.71487e-05
3.78336e-05
3.81956e-05
3.81952e-05
3.78313e-05
3.7147e-05
3.59743e-05
3.40691e-05
3.3755e-05
3.56387e-05
3.68392e-05
3.75258e-05
3.78432e-05
3.7843e-05
3.75254e-05
3.68389e-05
3.56385e-05
3.3755e-05
3.31575e-05
3.49277e-05
3.62069e-05
3.68581e-05
3.71556e-05
3.71556e-05
3.68581e-05
3.62068e-05
3.49276e-05
3.31576e-05
3.26831e-05
3.37685e-05
3.50148e-05
3.56648e-05
3.59816e-05
3.59816e-05
3.56648e-05
3.50148e-05
3.37685e-05
3.2683e-05
3.49073e-05
3.27159e-05
3.3184e-05
3.37635e-05
3.40716e-05
3.40716e-05
3.37634e-05
3.31839e-05
3.2716e-05
3.49072e-05
3.75577e-05
3.31301e-05
3.30551e-05
3.35356e-05
3.38269e-05
3.38287e-05
3.35445e-05
3.30819e-05
3.3162e-05
3.75539e-05
3.31627e-05
3.35608e-05
3.46714e-05
3.54014e-05
3.57523e-05
3.57574e-05
3.54279e-05
3.47585e-05
3.35605e-05
3.31285e-05
3.30821e-05
3.47587e-05
3.59918e-05
3.6659e-05
3.69853e-05
3.69907e-05
3.66779e-05
3.59916e-05
3.46711e-05
3.30547e-05
3.35446e-05
3.54281e-05
3.66781e-05
3.73821e-05
3.77072e-05
3.77146e-05
3.73816e-05
3.66585e-05
3.5401e-05
3.35354e-05
3.38287e-05
3.57575e-05
3.69908e-05
3.77148e-05
3.80867e-05
3.80862e-05
3.77048e-05
3.69834e-05
3.57509e-05
3.38263e-05
3.38269e-05
3.57523e-05
3.69853e-05
3.77073e-05
3.8087e-05
3.80866e-05
3.77049e-05
3.69834e-05
3.57509e-05
3.38263e-05
3.35355e-05
3.54013e-05
3.6659e-05
3.73825e-05
3.77171e-05
3.77169e-05
3.7382e-05
3.66586e-05
3.54011e-05
3.35355e-05
3.30547e-05
3.46712e-05
3.59917e-05
3.66783e-05
3.69925e-05
3.69925e-05
3.66783e-05
3.59916e-05
3.46711e-05
3.30549e-05
3.31288e-05
3.35605e-05
3.47586e-05
3.54282e-05
3.57588e-05
3.57588e-05
3.54282e-05
3.47586e-05
3.35605e-05
3.31286e-05
3.75538e-05
3.31617e-05
3.30819e-05
3.35446e-05
3.38291e-05
3.38291e-05
3.35445e-05
3.30817e-05
3.31618e-05
3.75539e-05
4.14528e-05
3.40305e-05
3.31159e-05
3.33934e-05
3.36367e-05
3.36386e-05
3.34028e-05
3.31432e-05
3.40618e-05
4.14456e-05
3.4063e-05
3.34405e-05
3.44335e-05
3.51699e-05
3.55322e-05
3.55376e-05
3.51971e-05
3.45209e-05
3.34401e-05
3.40279e-05
3.31435e-05
3.45211e-05
3.57792e-05
3.64793e-05
3.68221e-05
3.68277e-05
3.64985e-05
3.57789e-05
3.44333e-05
3.31153e-05
3.34029e-05
3.51972e-05
3.64987e-05
3.72387e-05
3.75807e-05
3.75881e-05
3.72381e-05
3.64788e-05
3.51695e-05
3.33932e-05
3.36387e-05
3.55377e-05
3.68277e-05
3.75884e-05
3.79776e-05
3.79771e-05
3.75782e-05
3.682e-05
3.55307e-05
3.36361e-05
3.36367e-05
3.55322e-05
3.68221e-05
3.75809e-05
3.79781e-05
3.79776e-05
3.75783e-05
3.682e-05
3.55307e-05
3.36361e-05
3.33933e-05
3.51698e-05
3.64793e-05
3.72391e-05
3.75907e-05
3.75906e-05
3.72385e-05
3.64789e-05
3.51695e-05
3.33933e-05
3.31154e-05
3.44334e-05
3.57791e-05
3.6499e-05
3.68296e-05
3.68296e-05
3.64989e-05
3.5779e-05
3.44333e-05
3.31156e-05
3.40283e-05
3.34401e-05
3.45209e-05
3.51974e-05
3.55391e-05
3.55391e-05
3.51974e-05
3.45209e-05
3.34401e-05
3.40281e-05
4.14455e-05
3.40614e-05
3.31431e-05
3.34029e-05
3.36392e-05
3.36392e-05
3.34028e-05
3.31429e-05
3.40616e-05
4.14456e-05
4.65927e-05
3.55627e-05
3.3423e-05
3.33651e-05
3.35239e-05
3.3526e-05
3.3375e-05
3.34505e-05
3.5593e-05
4.65829e-05
3.55953e-05
3.345e-05
3.42242e-05
3.49473e-05
3.53168e-05
3.53225e-05
3.49751e-05
3.43116e-05
3.34495e-05
3.55585e-05
3.34511e-05
3.43118e-05
3.55704e-05
3.63004e-05
3.66591e-05
3.66648e-05
3.63198e-05
3.55702e-05
3.42239e-05
3.34219e-05
3.33751e-05
3.49752e-05
3.632e-05
3.70951e-05
3.7454e-05
3.74615e-05
3.70945e-05
3.62998e-05
3.49469e-05
3.33647e-05
3.3526e-05
3.53225e-05
3.66649e-05
3.74617e-05
3.78682e-05
3.78677e-05
3.74514e-05
3.66569e-05
3.53152e-05
3.35231e-05
3.35238e-05
3.53168e-05
3.66591e-05
3.74542e-05
3.78687e-05
3.78682e-05
3.74516e-05
3.66569e-05
3.53152e-05
3.35232e-05
3.33649e-05
3.49472e-05
3.63003e-05
3.70956e-05
3.74642e-05
3.7464e-05
3.7095e-05
3.62999e-05
3.4947e-05
3.3365e-05
3.34222e-05
3.42239e-05
3.55703e-05
3.63204e-05
3.66669e-05
3.66669e-05
3.63203e-05
3.55702e-05
3.4224e-05
3.34224e-05
3.55593e-05
3.34494e-05
3.43116e-05
3.49754e-05
3.53241e-05
3.53241e-05
3.49754e-05
3.43117e-05
3.34494e-05
3.55588e-05
4.65834e-05
3.55927e-05
3.34504e-05
3.3375e-05
3.35266e-05
3.35266e-05
3.33749e-05
3.345e-05
3.55926e-05
4.65828e-05
5.26705e-05
3.78883e-05
3.40662e-05
3.35052e-05
3.35263e-05
3.35285e-05
3.35155e-05
3.40937e-05
3.79179e-05
5.26596e-05
3.79213e-05
3.36549e-05
3.40591e-05
3.47385e-05
3.51086e-05
3.51145e-05
3.47668e-05
3.41466e-05
3.3654e-05
3.78826e-05
3.40947e-05
3.41468e-05
3.53676e-05
3.61226e-05
3.64964e-05
3.65023e-05
3.61423e-05
3.53674e-05
3.40588e-05
3.40646e-05
3.35158e-05
3.47668e-05
3.61425e-05
3.69516e-05
3.73272e-05
3.73346e-05
3.6951e-05
3.6122e-05
3.4738e-05
3.35047e-05
3.35286e-05
3.51144e-05
3.65024e-05
3.73349e-05
3.77584e-05
3.77579e-05
3.73244e-05
3.64941e-05
3.51068e-05
3.35254e-05
3.35263e-05
3.51085e-05
3.64964e-05
3.73273e-05
3.77589e-05
3.77584e-05
3.73246e-05
3.64941e-05
3.51068e-05
3.35255e-05
3.3505e-05
3.47383e-05
3.61225e-05
3.69521e-05
3.73374e-05
3.73373e-05
3.69515e-05
3.6122e-05
3.4738e-05
3.3505e-05
3.40652e-05
3.40587e-05
3.53675e-05
3.61428e-05
3.65046e-05
3.65046e-05
3.61427e-05
3.53674e-05
3.40588e-05
3.40654e-05
3.78843e-05
3.36539e-05
3.41465e-05
3.4767e-05
3.51162e-05
3.51162e-05
3.4767e-05
3.41466e-05
3.3654e-05
3.78833e-05
5.26614e-05
3.7918e-05
3.40937e-05
3.35156e-05
3.35292e-05
3.35292e-05
3.35153e-05
3.40931e-05
3.79175e-05
5.26599e-05
5.94233e-05
4.09899e-05
3.51687e-05
3.38869e-05
3.37008e-05
3.37032e-05
3.38975e-05
3.51961e-05
4.10201e-05
5.94132e-05
4.1024e-05
3.41122e-05
3.39581e-05
3.45507e-05
3.49115e-05
3.49176e-05
3.45794e-05
3.40456e-05
3.41109e-05
4.09834e-05
3.51975e-05
3.40458e-05
3.51738e-05
3.59465e-05
3.63343e-05
3.63404e-05
3.59664e-05
3.51735e-05
3.39576e-05
3.51666e-05
3.38981e-05
3.45794e-05
3.59666e-05
3.68082e-05
3.72001e-05
3.72076e-05
3.68075e-05
3.59458e-05
3.45501e-05
3.38863e-05
3.37034e-05
3.49175e-05
3.63404e-05
3.72079e-05
3.76483e-05
3.76477e-05
3.71973e-05
3.63318e-05
3.49095e-05
3.36999e-05
3.37008e-05
3.49113e-05
3.63343e-05
3.72003e-05
3.76488e-05
3.76482e-05
3.71975e-05
3.63318e-05
3.49095e-05
3.37e-05
3.38867e-05
3.45504e-05
3.59464e-05
3.68087e-05
3.72105e-05
3.72103e-05
3.68081e-05
3.59459e-05
3.45501e-05
3.38868e-05
3.51674e-05
3.39576e-05
3.51736e-05
3.5967e-05
3.63427e-05
3.63427e-05
3.59669e-05
3.51736e-05
3.39576e-05
3.51679e-05
4.09855e-05
3.41109e-05
3.40454e-05
3.45797e-05
3.49194e-05
3.49194e-05
3.45796e-05
3.40454e-05
3.41109e-05
4.09849e-05
5.94151e-05
4.10204e-05
3.51963e-05
3.38978e-05
3.3704e-05
3.37039e-05
3.38974e-05
3.51955e-05
4.10201e-05
5.94144e-05
6.66253e-05
4.53336e-05
3.68723e-05
3.45993e-05
3.41081e-05
3.41106e-05
3.46104e-05
3.68997e-05
4.53643e-05
6.66178e-05
4.53676e-05
3.49438e-05
3.3954e-05
3.43954e-05
3.4732e-05
3.47383e-05
3.44245e-05
3.40414e-05
3.49421e-05
4.53272e-05
3.69012e-05
3.40418e-05
3.49938e-05
3.57731e-05
3.61731e-05
3.61793e-05
3.57932e-05
3.49934e-05
3.39532e-05
3.68701e-05
3.46111e-05
3.44246e-05
3.57935e-05
3.6665e-05
3.7073e-05
3.70804e-05
3.66642e-05
3.57723e-05
3.43946e-05
3.45986e-05
3.4111e-05
3.47382e-05
3.61794e-05
3.70807e-05
3.75378e-05
3.75372e-05
3.707e-05
3.61704e-05
3.47297e-05
3.41072e-05
3.41082e-05
3.47318e-05
3.61731e-05
3.70731e-05
3.75384e-05
3.75377e-05
3.70702e-05
3.61704e-05
3.47297e-05
3.41074e-05
3.45989e-05
3.43951e-05
3.5773e-05
3.66655e-05
3.70834e-05
3.70833e-05
3.66648e-05
3.57724e-05
3.43946e-05
3.45995e-05
3.68705e-05
3.39533e-05
3.49936e-05
3.57938e-05
3.61818e-05
3.61817e-05
3.57937e-05
3.49934e-05
3.39532e-05
3.68717e-05
4.53284e-05
3.49422e-05
3.40413e-05
3.44248e-05
3.47401e-05
3.47401e-05
3.44247e-05
3.40412e-05
3.49422e-05
4.53289e-05
6.66178e-05
4.53637e-05
3.68998e-05
3.46108e-05
3.41117e-05
3.41115e-05
3.46101e-05
3.68989e-05
4.53638e-05
6.66185e-05
7.40705e-05
5.06331e-05
3.92486e-05
3.57522e-05
3.48469e-05
3.48496e-05
3.57636e-05
3.9276e-05
5.06625e-05
7.40653e-05
5.06653e-05
3.62563e-05
3.40857e-05
3.42882e-05
3.45795e-05
3.45859e-05
3.43177e-05
3.41731e-05
3.62545e-05
5.0627e-05
3.92772e-05
3.41737e-05
3.48345e-05
3.56038e-05
3.60133e-05
3.60196e-05
3.5624e-05
3.4834e-05
3.40847e-05
3.92464e-05
3.57644e-05
3.43179e-05
3.56244e-05
3.65222e-05
3.69457e-05
3.69532e-05
3.65213e-05
3.56029e-05
3.42872e-05
3.57515e-05
3.485e-05
3.45859e-05
3.60197e-05
3.69535e-05
3.7427e-05