/*--------------------------------*- C++ -*----------------------------------*\
| =========                 |                                                 |
| \\      /  F ield         | OpenFOAM: The Open Source CFD Toolbox           |
|  \\    /   O peration     | Version:  2406                                  |
|   \\  /    A nd           | Website:  www.openfoam.com                      |
|    \\/     M anipulation  |                                                 |
\*---------------------------------------------------------------------------*/
FoamFile
{
    version     2.0;
    format      ascii;
    arch        "LSB;label=32;scalar=64";
    class       volScalarField;
    location    "250";
    object      p;
}
// * * * * * * * * * * * * * * * * * * * * * * * * * * * * * * * * * * * * * //

dimensions      [0 2 -2 0 0 0 0];

internalField   nonuniform List<scalar> 
25000
(
-6.89008e-06
-0.000930293
-0.00162818
-0.00209514
-0.00233111
-0.00233604
-0.00211052
-0.00165526
-0.00097185
-6.69344e-05
-0.000935049
-0.00197581
-0.00276176
-0.00328808
-0.00355273
-0.00355691
-0.00330071
-0.00278311
-0.00200608
-0.000973788
-0.00163321
-0.0027638
-0.00360981
-0.0041747
-0.00445812
-0.00446145
-0.00418461
-0.00362604
-0.0027858
-0.00165997
-0.00209901
-0.00329047
-0.00417564
-0.00476351
-0.00505764
-0.00506024
-0.00477118
-0.00418791
-0.00330679
-0.00211878
-0.00233385
-0.00355478
-0.00445917
-0.00505799
-0.00535692
-0.00535896
-0.0050639
-0.00446859
-0.00356714
-0.00234871
-0.00233765
-0.00355826
-0.00446228
-0.00506056
-0.00535902
-0.00536059
-0.00506519
-0.00446959
-0.00356791
-0.00234933
-0.00211128
-0.00330142
-0.004185
-0.00477132
-0.00506387
-0.00506515
-0.00477498
-0.00419085
-0.0033091
-0.00212061
-0.00165523
-0.00278318
-0.00362601
-0.00418774
-0.00446839
-0.00446941
-0.00419076
-0.00363081
-0.00278954
-0.00166297
-0.000971238
-0.00200554
-0.00278527
-0.00330622
-0.00356664
-0.00356752
-0.00330887
-0.00278943
-0.00201107
-0.000977829
-6.57461e-05
-0.000972576
-0.00165879
-0.00211769
-0.00234779
-0.00234863
-0.00212016
-0.00166273
-0.000977757
-7.17711e-05
-0.0177694
-0.0176295
-0.017514
-0.0174337
-0.0173943
-0.0173964
-0.0174401
-0.0175249
-0.0176446
-0.0177866
-0.0176313
-0.0174524
-0.0173709
-0.0173225
-0.0173007
-0.0173025
-0.0173277
-0.0173796
-0.0174642
-0.0176458
-0.0175166
-0.0173721
-0.0173074
-0.0172759
-0.0172637
-0.0172652
-0.0172802
-0.0173142
-0.0173812
-0.0175277
-0.0174362
-0.0173241
-0.0172767
-0.0172592
-0.0172547
-0.0172559
-0.0172626
-0.0172821
-0.0173313
-0.0174451
-0.0173966
-0.0173025
-0.0172648
-0.0172551
-0.017255
-0.0172559
-0.0172579
-0.0172692
-0.0173083
-0.0174038
-0.0173982
-0.0173041
-0.0172664
-0.0172566
-0.0172562
-0.017257
-0.0172588
-0.01727
-0.017309
-0.0174043
-0.0174416
-0.0173292
-0.0172814
-0.0172635
-0.0172584
-0.0172591
-0.0172653
-0.0172844
-0.0173333
-0.0174468
-0.017526
-0.0173808
-0.0173153
-0.0172829
-0.0172697
-0.0172703
-0.0172845
-0.0173179
-0.0173843
-0.0175305
-0.0176455
-0.0174651
-0.017382
-0.0173319
-0.0173087
-0.0173092
-0.0173334
-0.0173844
-0.0174683
-0.0176495
-0.0177873
-0.0176463
-0.0175281
-0.0174453
-0.0174039
-0.0174044
-0.0174468
-0.0175306
-0.0176495
-0.017791
-0.0368235
-0.0365382
-0.0363066
-0.0361523
-0.0360724
-0.0360742
-0.0361576
-0.0363159
-0.0365522
-0.0368407
-0.0365385
-0.0362039
-0.035947
-0.035767
-0.0356771
-0.0356788
-0.0357719
-0.0359554
-0.0362158
-0.0365533
-0.0363071
-0.0359472
-0.0356705
-0.0354733
-0.0353733
-0.0353748
-0.0354778
-0.035678
-0.0359569
-0.0363186
-0.0361527
-0.0357671
-0.0354733
-0.035268
-0.0351636
-0.0351649
-0.0352719
-0.0354796
-0.0357753
-0.0361624
-0.0360725
-0.0356772
-0.0353732
-0.0351635
-0.0350569
-0.035058
-0.0351669
-0.0353786
-0.0356843
-0.0360811
-0.0360738
-0.0356785
-0.0353746
-0.0351647
-0.0350579
-0.0350589
-0.0351676
-0.0353792
-0.0356848
-0.0360816
-0.0361568
-0.0357713
-0.0354773
-0.0352716
-0.0351666
-0.0351675
-0.0352742
-0.0354815
-0.035777
-0.0361639
-0.0363146
-0.0359544
-0.0356773
-0.0354791
-0.0353782
-0.035379
-0.0354814
-0.0356811
-0.0359597
-0.0363211
-0.0365505
-0.0362145
-0.035956
-0.0357746
-0.0356837
-0.0356844
-0.0357768
-0.0359596
-0.0362195
-0.0365566
-0.0368386
-0.0365516
-0.0363173
-0.0361613
-0.0360803
-0.036081
-0.0361635
-0.0363209
-0.0365565
-0.0368445
-0.0482052
-0.0480561
-0.0479371
-0.0478672
-0.0478299
-0.0478318
-0.0478725
-0.0479456
-0.0480682
-0.0482206
-0.0480577
-0.0478959
-0.0477553
-0.0476621
-0.0476174
-0.0476191
-0.0476671
-0.0477631
-0.0479062
-0.0480703
-0.0479395
-0.0477564
-0.0476102
-0.0475074
-0.0474574
-0.0474589
-0.0475118
-0.0476173
-0.0477655
-0.0479502
-0.0478698
-0.0476637
-0.0475081
-0.0474001
-0.0473471
-0.0473484
-0.047404
-0.0475144
-0.0476721
-0.0478799
-0.0478325
-0.0476192
-0.0474584
-0.0473475
-0.0472923
-0.0472935
-0.047351
-0.0474641
-0.0476268
-0.0478419
-0.047834
-0.0476207
-0.0474599
-0.0473489
-0.0472937
-0.0472948
-0.0473521
-0.047465
-0.0476276
-0.0478426
-0.0478744
-0.0476685
-0.0475128
-0.0474045
-0.0473512
-0.0473522
-0.0474073
-0.0475173
-0.0476747
-0.0478822
-0.0479471
-0.0477642
-0.0476181
-0.0475148
-0.0474643
-0.0474651
-0.0475173
-0.0476221
-0.0477697
-0.0479541
-0.0480693
-0.0479071
-0.0477661
-0.0476724
-0.0476269
-0.0476276
-0.0476746
-0.0477697
-0.047912
-0.0480755
-0.0482215
-0.0480708
-0.0479505
-0.0478799
-0.0478417
-0.0478424
-0.0478819
-0.0479538
-0.0480754
-0.0482271
-0.0542934
-0.05421
-0.0541426
-0.0541081
-0.0540886
-0.0540897
-0.0541109
-0.0541466
-0.054215
-0.0542996
-0.0542118
-0.0541104
-0.0540171
-0.0539616
-0.0539346
-0.0539356
-0.0539644
-0.054021
-0.0541153
-0.0542172
-0.0541456
-0.0540185
-0.053918
-0.0538537
-0.0538235
-0.0538243
-0.0538561
-0.0539218
-0.0540234
-0.0541513
-0.0541119
-0.053964
-0.0538547
-0.0537836
-0.0537505
-0.0537513
-0.0537859
-0.0538584
-0.053969
-0.0541181
-0.0540926
-0.0539373
-0.053825
-0.0537511
-0.0537161
-0.0537169
-0.0537533
-0.0538287
-0.0539423
-0.0540989
-0.0540936
-0.0539383
-0.053826
-0.0537521
-0.0537172
-0.053718
-0.0537543
-0.0538296
-0.0539431
-0.0540996
-0.0541145
-0.0539668
-0.0538577
-0.0537868
-0.0537537
-0.0537544
-0.0537889
-0.0538611
-0.0539714
-0.0541203
-0.0541495
-0.0540231
-0.0539231
-0.0538591
-0.053829
-0.0538297
-0.0538611
-0.0539264
-0.0540275
-0.054155
-0.0542173
-0.0541168
-0.0540243
-0.0539694
-0.0539423
-0.053943
-0.0539713
-0.0540274
-0.054121
-0.0542224
-0.0543013
-0.0542183
-0.0541517
-0.054118
-0.0540985
-0.0540991
-0.0541199
-0.0541547
-0.0542224
-0.0543062
-0.0584594
-0.0584428
-0.0584251
-0.0584216
-0.0584177
-0.0584178
-0.0584217
-0.0584249
-0.0584419
-0.0584578
-0.0584438
-0.0584128
-0.058376
-0.058358
-0.0583476
-0.0583477
-0.0583584
-0.0583764
-0.058413
-0.0584434
-0.0584272
-0.0583771
-0.0583325
-0.0583062
-0.0582933
-0.0582934
-0.0583066
-0.058333
-0.0583779
-0.0584281
-0.0584248
-0.05836
-0.0583071
-0.058273
-0.0582569
-0.0582571
-0.0582736
-0.0583079
-0.0583612
-0.0584264
-0.0584214
-0.05835
-0.0582946
-0.0582574
-0.0582398
-0.0582401
-0.0582582
-0.0582958
-0.0583516
-0.0584234
-0.0584217
-0.0583503
-0.058295
-0.0582579
-0.0582404
-0.0582407
-0.0582589
-0.0582965
-0.0583522
-0.058424
-0.0584256
-0.058361
-0.0583082
-0.0582745
-0.0582586
-0.058259
-0.0582756
-0.0583099
-0.058363
-0.0584281
-0.0584283
-0.0583787
-0.0583344
-0.0583087
-0.0582962
-0.0582966
-0.0583099
-0.0583362
-0.058381
-0.058431
-0.0584447
-0.0584148
-0.058379
-0.0583617
-0.0583518
-0.0583522
-0.058363
-0.0583809
-0.0584173
-0.0584475
-0.0584599
-0.0584448
-0.0584288
-0.0584266
-0.0584233
-0.0584237
-0.0584279
-0.0584309
-0.0584476
-0.058463
-0.0625895
-0.0626086
-0.0626177
-0.0626299
-0.0626344
-0.0626344
-0.06263
-0.062618
-0.0626087
-0.0625892
-0.062609
-0.0626269
-0.062633
-0.0626422
-0.0626449
-0.0626449
-0.0626425
-0.0626335
-0.0626276
-0.0626098
-0.0626191
-0.0626337
-0.0626393
-0.062647
-0.0626501
-0.0626503
-0.0626474
-0.0626399
-0.0626347
-0.0626204
-0.0626322
-0.0626436
-0.0626476
-0.062652
-0.0626543
-0.0626545
-0.0626526
-0.0626484
-0.0626447
-0.0626336
-0.0626374
-0.0626467
-0.0626512
-0.0626547
-0.0626569
-0.0626571
-0.0626554
-0.0626521
-0.0626479
-0.0626387
-0.0626379
-0.0626472
-0.0626516
-0.0626552
-0.0626574
-0.0626576
-0.0626559
-0.0626526
-0.0626484
-0.0626392
-0.0626338
-0.062645
-0.062649
-0.0626535
-0.0626558
-0.0626561
-0.0626542
-0.06265
-0.0626462
-0.0626351
-0.0626217
-0.0626361
-0.0626416
-0.0626494
-0.0626527
-0.0626529
-0.0626501
-0.0626425
-0.0626372
-0.0626229
-0.0626122
-0.0626302
-0.0626364
-0.0626457
-0.0626484
-0.0626487
-0.0626463
-0.0626372
-0.0626312
-0.0626132
-0.0625925
-0.0626122
-0.062622
-0.0626345
-0.0626392
-0.0626394
-0.0626351
-0.0626228
-0.0626132
-0.0625934
-0.0673193
-0.0673361
-0.0673444
-0.0673542
-0.0673579
-0.0673583
-0.0673558
-0.0673474
-0.0673401
-0.0673241
-0.0673366
-0.0673574
-0.0673701
-0.0673819
-0.0673861
-0.0673865
-0.0673833
-0.0673726
-0.0673611
-0.0673412
-0.0673459
-0.0673707
-0.0673857
-0.0673993
-0.0674052
-0.0674056
-0.0674007
-0.067388
-0.0673738
-0.0673498
-0.0673561
-0.0673829
-0.0673997
-0.067413
-0.0674193
-0.0674198
-0.0674144
-0.0674018
-0.0673857
-0.0673595
-0.0673602
-0.0673874
-0.0674058
-0.0674195
-0.0674265
-0.0674269
-0.0674208
-0.0674078
-0.0673899
-0.0673631
-0.0673609
-0.067388
-0.0674064
-0.0674201
-0.067427
-0.0674275
-0.0674213
-0.0674082
-0.0673903
-0.0673634
-0.0673583
-0.0673849
-0.0674016
-0.0674148
-0.067421
-0.0674214
-0.0674159
-0.0674032
-0.0673869
-0.0673605
-0.0673497
-0.0673741
-0.0673888
-0.0674022
-0.067408
-0.0674083
-0.0674032
-0.0673902
-0.0673758
-0.0673516
-0.0673421
-0.0673624
-0.0673745
-0.067386
-0.06739
-0.0673902
-0.0673868
-0.0673758
-0.0673638
-0.0673436
-0.0673257
-0.0673423
-0.0673504
-0.0673597
-0.067363
-0.0673633
-0.0673603
-0.0673514
-0.0673436
-0.0673271
-0.0725475
-0.0725543
-0.0725571
-0.0725615
-0.0725625
-0.0725632
-0.0725636
-0.0725609
-0.0725599
-0.0725544
-0.0725545
-0.0725655
-0.0725725
-0.0725791
-0.072581
-0.0725816
-0.0725811
-0.0725761
-0.0725706
-0.072561
-0.0725574
-0.0725726
-0.0725812
-0.0725895
-0.0725927
-0.0725933
-0.0725915
-0.0725846
-0.0725773
-0.0725634
-0.0725619
-0.0725792
-0.0725894
-0.0725981
-0.0726018
-0.0726025
-0.0726001
-0.0725928
-0.0725836
-0.0725674
-0.0725631
-0.0725811
-0.0725926
-0.0726017
-0.0726061
-0.0726067
-0.0726037
-0.0725959
-0.0725854
-0.0725684
-0.0725638
-0.0725818
-0.0725933
-0.0726024
-0.0726067
-0.0726073
-0.0726043
-0.0725964
-0.0725859
-0.0725688
-0.072564
-0.0725812
-0.0725914
-0.0726
-0.0726036
-0.0726043
-0.0726018
-0.0725944
-0.0725851
-0.0725688
-0.0725611
-0.0725761
-0.0725845
-0.0725927
-0.0725958
-0.0725963
-0.0725944
-0.0725872
-0.0725797
-0.0725656
-0.0725599
-0.0725704
-0.0725772
-0.0725835
-0.0725853
-0.0725858
-0.0725851
-0.0725797
-0.0725739
-0.0725641
-0.0725543
-0.0725607
-0.0725631
-0.0725672
-0.0725682
-0.0725687
-0.0725687
-0.0725656
-0.0725641
-0.0725583
-0.0780306
-0.0780304
-0.0780293
-0.0780298
-0.0780289
-0.0780293
-0.078031
-0.0780315
-0.0780339
-0.0780349
-0.0780305
-0.0780339
-0.0780356
-0.0780375
-0.0780374
-0.0780377
-0.0780386
-0.0780375
-0.0780369
-0.0780345
-0.0780291
-0.0780355
-0.0780378
-0.0780411
-0.0780418
-0.0780422
-0.0780423
-0.0780398
-0.0780383
-0.0780329
-0.0780295
-0.0780372
-0.0780409
-0.0780447
-0.0780459
-0.0780462
-0.0780459
-0.078043
-0.0780401
-0.0780332
-0.0780285
-0.0780369
-0.0780414
-0.0780456
-0.0780472
-0.0780476
-0.0780469
-0.0780436
-0.0780399
-0.0780323
-0.0780286
-0.078037
-0.0780416
-0.0780458
-0.0780474
-0.0780478
-0.0780471
-0.0780438
-0.0780401
-0.0780324
-0.0780298
-0.0780376
-0.0780414
-0.0780453
-0.0780465
-0.0780469
-0.0780467
-0.0780437
-0.0780407
-0.0780337
-0.0780297
-0.0780361
-0.0780386
-0.0780421
-0.0780429
-0.0780434
-0.0780435
-0.0780409
-0.0780392
-0.0780337
-0.0780316
-0.0780349
-0.0780368
-0.0780389
-0.078039
-0.0780394
-0.0780403
-0.0780391
-0.0780382
-0.0780356
-0.0780322
-0.0780321
-0.0780309
-0.0780316
-0.078031
-0.0780315
-0.0780331
-0.0780334
-0.0780355
-0.0780364
-0.0835925
-0.0835893
-0.0835864
-0.083585
-0.0835833
-0.0835834
-0.0835853
-0.0835871
-0.0835906
-0.0835945
-0.0835892
-0.0835883
-0.0835868
-0.0835861
-0.0835848
-0.0835849
-0.0835864
-0.0835874
-0.0835895
-0.083591
-0.083586
-0.0835866
-0.0835851
-0.0835853
-0.0835846
-0.0835847
-0.0835857
-0.0835859
-0.0835879
-0.0835879
-0.0835845
-0.0835858
-0.0835852
-0.0835859
-0.0835854
-0.0835855
-0.0835863
-0.0835861
-0.0835872
-0.0835865
-0.0835829
-0.0835846
-0.0835844
-0.0835853
-0.0835851
-0.0835853
-0.0835858
-0.0835854
-0.0835861
-0.0835849
-0.0835829
-0.0835847
-0.0835845
-0.0835854
-0.0835852
-0.0835854
-0.083586
-0.0835855
-0.0835862
-0.083585
-0.0835847
-0.083586
-0.0835856
-0.0835862
-0.0835858
-0.0835859
-0.0835867
-0.0835865
-0.0835875
-0.0835867
-0.0835863
-0.083587
-0.0835856
-0.083586
-0.0835853
-0.0835854
-0.0835864
-0.0835865
-0.0835883
-0.0835882
-0.0835897
-0.0835888
-0.0835874
-0.0835869
-0.0835859
-0.083586
-0.0835873
-0.0835882
-0.0835901
-0.0835915
-0.0835935
-0.0835901
-0.0835872
-0.083586
-0.0835845
-0.0835847
-0.0835864
-0.083588
-0.0835914
-0.0835951
-0.0891673
-0.0891624
-0.0891584
-0.0891559
-0.089154
-0.0891541
-0.089156
-0.0891586
-0.0891629
-0.0891682
-0.0891624
-0.0891586
-0.0891547
-0.0891521
-0.0891503
-0.0891503
-0.0891522
-0.0891547
-0.0891587
-0.089163
-0.0891582
-0.0891545
-0.08915
-0.089148
-0.0891463
-0.0891463
-0.0891481
-0.0891502
-0.0891548
-0.0891588
-0.0891555
-0.0891518
-0.0891479
-0.0891461
-0.0891444
-0.0891445
-0.0891462
-0.0891482
-0.0891524
-0.0891562
-0.0891533
-0.0891499
-0.0891461
-0.0891443
-0.0891428
-0.0891429
-0.0891445
-0.0891464
-0.0891505
-0.0891543
-0.089153
-0.0891497
-0.0891459
-0.0891442
-0.0891427
-0.0891428
-0.0891444
-0.0891463
-0.0891504
-0.0891541
-0.0891545
-0.0891511
-0.0891474
-0.0891457
-0.0891441
-0.0891442
-0.0891459
-0.0891479
-0.0891519
-0.0891557
-0.0891566
-0.0891531
-0.0891491
-0.0891474
-0.0891458
-0.0891458
-0.0891476
-0.0891496
-0.0891541
-0.0891579
-0.0891604
-0.0891567
-0.0891532
-0.0891511
-0.0891496
-0.0891497
-0.0891515
-0.0891539
-0.0891578
-0.0891618
-0.0891654
-0.0891605
-0.0891567
-0.0891546
-0.089153
-0.0891531
-0.089155
-0.0891575
-0.0891617
-0.0891669
-0.0947028
-0.0946983
-0.0946949
-0.0946925
-0.0946912
-0.0946914
-0.0946932
-0.0946957
-0.0946996
-0.0947048
-0.0946979
-0.0946936
-0.0946894
-0.0946867
-0.0946852
-0.0946855
-0.0946874
-0.0946903
-0.0946948
-0.0946997
-0.0946938
-0.0946889
-0.0946839
-0.0946814
-0.0946797
-0.09468
-0.0946822
-0.0946851
-0.0946905
-0.0946959
-0.094691
-0.0946859
-0.094681
-0.0946785
-0.0946768
-0.0946771
-0.0946793
-0.0946823
-0.0946877
-0.0946934
-0.0946891
-0.094684
-0.094679
-0.0946765
-0.0946748
-0.0946751
-0.0946773
-0.0946804
-0.094686
-0.0946918
-0.0946888
-0.0946838
-0.0946789
-0.0946765
-0.0946748
-0.0946751
-0.0946773
-0.0946803
-0.0946859
-0.0946918
-0.0946902
-0.0946853
-0.0946807
-0.0946784
-0.0946768
-0.094677
-0.0946792
-0.0946822
-0.0946876
-0.0946933
-0.0946925
-0.0946879
-0.0946833
-0.0946811
-0.0946796
-0.0946799
-0.094682
-0.0946849
-0.0946903
-0.0946957
-0.0946962
-0.0946921
-0.0946884
-0.0946862
-0.094685
-0.0946853
-0.0946872
-0.0946901
-0.0946946
-0.0946995
-0.0947012
-0.0946967
-0.0946935
-0.0946917
-0.0946906
-0.094691
-0.0946928
-0.0946954
-0.0946994
-0.0947046
-0.100191
-0.100187
-0.100184
-0.100182
-0.100181
-0.100181
-0.100183
-0.100186
-0.100189
-0.100194
-0.100187
-0.100182
-0.100178
-0.100175
-0.100174
-0.100174
-0.100176
-0.100179
-0.100184
-0.100189
-0.100183
-0.100177
-0.100172
-0.100169
-0.100168
-0.100168
-0.10017
-0.100174
-0.100179
-0.100185
-0.10018
-0.100174
-0.100169
-0.100166
-0.100164
-0.100165
-0.100167
-0.10017
-0.100176
-0.100182
-0.100178
-0.100172
-0.100167
-0.100164
-0.100162
-0.100162
-0.100165
-0.100168
-0.100174
-0.100181
-0.100178
-0.100172
-0.100166
-0.100164
-0.100162
-0.100162
-0.100164
-0.100168
-0.100174
-0.100181
-0.100179
-0.100173
-0.100168
-0.100165
-0.100164
-0.100164
-0.100166
-0.10017
-0.100175
-0.100182
-0.100181
-0.100176
-0.100171
-0.100168
-0.100167
-0.100167
-0.100169
-0.100172
-0.100178
-0.100184
-0.100184
-0.10018
-0.100176
-0.100173
-0.100172
-0.100173
-0.100175
-0.100178
-0.100182
-0.100188
-0.100189
-0.100184
-0.100181
-0.100179
-0.100179
-0.100179
-0.100181
-0.100183
-0.100187
-0.100192
-0.105618
-0.105615
-0.105612
-0.105611
-0.105611
-0.105611
-0.105613
-0.105615
-0.105618
-0.105622
-0.105614
-0.10561
-0.105607
-0.105605
-0.105604
-0.105605
-0.105607
-0.105609
-0.105613
-0.105618
-0.105611
-0.105606
-0.105602
-0.105599
-0.105598
-0.105599
-0.105601
-0.105604
-0.105609
-0.105614
-0.105608
-0.105603
-0.105599
-0.105596
-0.105595
-0.105596
-0.105598
-0.105601
-0.105606
-0.105612
-0.105607
-0.105602
-0.105597
-0.105594
-0.105593
-0.105593
-0.105595
-0.105599
-0.105604
-0.105611
-0.105607
-0.105602
-0.105597
-0.105594
-0.105593
-0.105593
-0.105595
-0.105599
-0.105604
-0.10561
-0.105608
-0.105603
-0.105598
-0.105596
-0.105594
-0.105595
-0.105597
-0.1056
-0.105605
-0.105611
-0.105611
-0.105606
-0.105601
-0.105599
-0.105597
-0.105598
-0.1056
-0.105603
-0.105608
-0.105613
-0.105614
-0.105609
-0.105606
-0.105604
-0.105603
-0.105603
-0.105605
-0.105608
-0.105612
-0.105616
-0.105618
-0.105614
-0.105611
-0.10561
-0.105609
-0.105609
-0.105611
-0.105613
-0.105616
-0.105621
-0.111004
-0.111
-0.110997
-0.110995
-0.110995
-0.110995
-0.110997
-0.110999
-0.111001
-0.111005
-0.110999
-0.110995
-0.110991
-0.110989
-0.110988
-0.110989
-0.11099
-0.110993
-0.110996
-0.111001
-0.110996
-0.11099
-0.110986
-0.110984
-0.110983
-0.110983
-0.110985
-0.110987
-0.110992
-0.110997
-0.110993
-0.110988
-0.110983
-0.110981
-0.110979
-0.110979
-0.110981
-0.110984
-0.110989
-0.110995
-0.110992
-0.110986
-0.110981
-0.110978
-0.110977
-0.110977
-0.110979
-0.110982
-0.110987
-0.110993
-0.110992
-0.110986
-0.110981
-0.110978
-0.110976
-0.110976
-0.110978
-0.110982
-0.110987
-0.110993
-0.110992
-0.110987
-0.110982
-0.110979
-0.110978
-0.110978
-0.11098
-0.110983
-0.110988
-0.110994
-0.110994
-0.110989
-0.110984
-0.110982
-0.11098
-0.110981
-0.110983
-0.110985
-0.11099
-0.110996
-0.110997
-0.110993
-0.110989
-0.110987
-0.110986
-0.110986
-0.110987
-0.11099
-0.110994
-0.110999
-0.111001
-0.110997
-0.110994
-0.110992
-0.110992
-0.110992
-0.110993
-0.110995
-0.110999
-0.111003
-0.116335
-0.116331
-0.116329
-0.116328
-0.116327
-0.116328
-0.116329
-0.116331
-0.116333
-0.116337
-0.11633
-0.116327
-0.116324
-0.116322
-0.116322
-0.116322
-0.116323
-0.116326
-0.116329
-0.116333
-0.116327
-0.116323
-0.116319
-0.116317
-0.116316
-0.116317
-0.116318
-0.116321
-0.116325
-0.11633
-0.116325
-0.116321
-0.116317
-0.116315
-0.116313
-0.116314
-0.116315
-0.116318
-0.116323
-0.116328
-0.116325
-0.11632
-0.116315
-0.116313
-0.116312
-0.116312
-0.116314
-0.116316
-0.116321
-0.116327
-0.116325
-0.11632
-0.116315
-0.116313
-0.116311
-0.116312
-0.116313
-0.116316
-0.116321
-0.116327
-0.116326
-0.116321
-0.116317
-0.116314
-0.116313
-0.116313
-0.116315
-0.116318
-0.116323
-0.116328
-0.116328
-0.116324
-0.116319
-0.116317
-0.116316
-0.116316
-0.116318
-0.11632
-0.116325
-0.11633
-0.116331
-0.116327
-0.116324
-0.116322
-0.116321
-0.116321
-0.116322
-0.116325
-0.116328
-0.116333
-0.116335
-0.116332
-0.116329
-0.116327
-0.116327
-0.116327
-0.116328
-0.11633
-0.116333
-0.116336
-0.121629
-0.121625
-0.121622
-0.121621
-0.12162
-0.121621
-0.121622
-0.121624
-0.121627
-0.121631
-0.121625
-0.12162
-0.121617
-0.121615
-0.121615
-0.121615
-0.121617
-0.121619
-0.121622
-0.121626
-0.121622
-0.121617
-0.121613
-0.121611
-0.12161
-0.12161
-0.121612
-0.121614
-0.121618
-0.121623
-0.12162
-0.121615
-0.121611
-0.121608
-0.121607
-0.121607
-0.121609
-0.121611
-0.121616
-0.121621
-0.121619
-0.121614
-0.121609
-0.121607
-0.121605
-0.121605
-0.121607
-0.12161
-0.121615
-0.12162
-0.12162
-0.121614
-0.121609
-0.121607
-0.121605
-0.121605
-0.121607
-0.12161
-0.121615
-0.12162
-0.121621
-0.121615
-0.121611
-0.121608
-0.121607
-0.121607
-0.121609
-0.121611
-0.121616
-0.121621
-0.121623
-0.121618
-0.121613
-0.121611
-0.12161
-0.12161
-0.121611
-0.121614
-0.121618
-0.121623
-0.121626
-0.121621
-0.121618
-0.121615
-0.121614
-0.121614
-0.121616
-0.121618
-0.121622
-0.121626
-0.12163
-0.121625
-0.121622
-0.121621
-0.12162
-0.12162
-0.121621
-0.121623
-0.121626
-0.12163
-0.126879
-0.126874
-0.126871
-0.126869
-0.126869
-0.12687
-0.126871
-0.126873
-0.126875
-0.126881
-0.126873
-0.126869
-0.126866
-0.126865
-0.126864
-0.126865
-0.126866
-0.126868
-0.126871
-0.126875
-0.126871
-0.126866
-0.126863
-0.126861
-0.12686
-0.12686
-0.126862
-0.126864
-0.126868
-0.126873
-0.12687
-0.126865
-0.126861
-0.126859
-0.126858
-0.126858
-0.12686
-0.126862
-0.126866
-0.126871
-0.12687
-0.126864
-0.12686
-0.126858
-0.126857
-0.126857
-0.126858
-0.126861
-0.126865
-0.12687
-0.12687
-0.126865
-0.126861
-0.126858
-0.126857
-0.126857
-0.126859
-0.126861
-0.126866
-0.126871
-0.126872
-0.126867
-0.126862
-0.12686
-0.126859
-0.126859
-0.12686
-0.126863
-0.126867
-0.126872
-0.126874
-0.126869
-0.126865
-0.126863
-0.126862
-0.126862
-0.126863
-0.126865
-0.126869
-0.126873
-0.126877
-0.126873
-0.126869
-0.126867
-0.126866
-0.126866
-0.126867
-0.126869
-0.126872
-0.126876
-0.126882
-0.126877
-0.126874
-0.126872
-0.126871
-0.126871
-0.126872
-0.126874
-0.126876
-0.126881
-0.132098
-0.13209
-0.132087
-0.132086
-0.132085
-0.132086
-0.132087
-0.13209
-0.132093
-0.1321
-0.13209
-0.132086
-0.132083
-0.132081
-0.132081
-0.132081
-0.132083
-0.132085
-0.132089
-0.132093
-0.132088
-0.132083
-0.13208
-0.132078
-0.132077
-0.132077
-0.132079
-0.132081
-0.132085
-0.13209
-0.132087
-0.132082
-0.132078
-0.132076
-0.132074
-0.132075
-0.132076
-0.132079
-0.132083
-0.132088
-0.132086
-0.132081
-0.132077
-0.132075
-0.132073
-0.132073
-0.132075
-0.132078
-0.132082
-0.132087
-0.132087
-0.132082
-0.132077
-0.132075
-0.132074
-0.132074
-0.132075
-0.132078
-0.132082
-0.132087
-0.132088
-0.132083
-0.132079
-0.132076
-0.132075
-0.132075
-0.132077
-0.132079
-0.132083
-0.132088
-0.13209
-0.132086
-0.132081
-0.132079
-0.132078
-0.132078
-0.132079
-0.132082
-0.132086
-0.13209
-0.132093
-0.132089
-0.132086
-0.132083
-0.132082
-0.132082
-0.132083
-0.132086
-0.132089
-0.132093
-0.132101
-0.132093
-0.13209
-0.132088
-0.132087
-0.132087
-0.132088
-0.13209
-0.132093
-0.1321
-0.137277
-0.137268
-0.137265
-0.137264
-0.137265
-0.137266
-0.137267
-0.13727
-0.137273
-0.137282
-0.137267
-0.137264
-0.137262
-0.13726
-0.13726
-0.137261
-0.137263
-0.137265
-0.137269
-0.137273
-0.137265
-0.137261
-0.137258
-0.137257
-0.137256
-0.137257
-0.137259
-0.137262
-0.137266
-0.13727
-0.137264
-0.13726
-0.137257
-0.137255
-0.137254
-0.137255
-0.137257
-0.13726
-0.137264
-0.137269
-0.137264
-0.137259
-0.137256
-0.137254
-0.137253
-0.137254
-0.137256
-0.137259
-0.137263
-0.137268
-0.137264
-0.13726
-0.137256
-0.137254
-0.137254
-0.137254
-0.137256
-0.137259
-0.137263
-0.137268
-0.137265
-0.137261
-0.137258
-0.137256
-0.137255
-0.137256
-0.137258
-0.13726
-0.137264
-0.137269
-0.137268
-0.137264
-0.13726
-0.137259
-0.137258
-0.137258
-0.13726
-0.137263
-0.137266
-0.137271
-0.137271
-0.137267
-0.137264
-0.137263
-0.137262
-0.137263
-0.137264
-0.137266
-0.13727
-0.137274
-0.13728
-0.137271
-0.137269
-0.137267
-0.137267
-0.137267
-0.137268
-0.137271
-0.137274
-0.137283
-0.142434
-0.142423
-0.14242
-0.142419
-0.142419
-0.142419
-0.14242
-0.142423
-0.142426
-0.142437
-0.142422
-0.142419
-0.142416
-0.142414
-0.142414
-0.142414
-0.142416
-0.142418
-0.142421
-0.142425
-0.142419
-0.142415
-0.142412
-0.142411
-0.14241
-0.14241
-0.142412
-0.142414
-0.142418
-0.142423
-0.142417
-0.142413
-0.14241
-0.142408
-0.142407
-0.142408
-0.142409
-0.142412
-0.142416
-0.14242
-0.142416
-0.142412
-0.142409
-0.142407
-0.142406
-0.142406
-0.142408
-0.142411
-0.142415
-0.142419
-0.142416
-0.142412
-0.142408
-0.142407
-0.142406
-0.142406
-0.142408
-0.14241
-0.142414
-0.142419
-0.142417
-0.142413
-0.142409
-0.142408
-0.142407
-0.142407
-0.142409
-0.142411
-0.142415
-0.14242
-0.142419
-0.142415
-0.142411
-0.14241
-0.142409
-0.142409
-0.142411
-0.142413
-0.142417
-0.142422
-0.142422
-0.142418
-0.142415
-0.142413
-0.142413
-0.142413
-0.142415
-0.142417
-0.14242
-0.142424
-0.142433
-0.142422
-0.142419
-0.142417
-0.142417
-0.142417
-0.142419
-0.142421
-0.142424
-0.142435
-0.147555
-0.147544
-0.147542
-0.14754
-0.14754
-0.14754
-0.147541
-0.147544
-0.147546
-0.147557
-0.147543
-0.14754
-0.147537
-0.147536
-0.147536
-0.147536
-0.147537
-0.147539
-0.147542
-0.147546
-0.147541
-0.147537
-0.147534
-0.147533
-0.147532
-0.147533
-0.147534
-0.147536
-0.147539
-0.147543
-0.147538
-0.147535
-0.147532
-0.147531
-0.14753
-0.14753
-0.147532
-0.147534
-0.147537
-0.147541
-0.147538
-0.147534
-0.147531
-0.147529
-0.147529
-0.147529
-0.14753
-0.147532
-0.147536
-0.14754
-0.147538
-0.147534
-0.147531
-0.147529
-0.147528
-0.147529
-0.14753
-0.147532
-0.147536
-0.14754
-0.147539
-0.147535
-0.147532
-0.14753
-0.147529
-0.14753
-0.147531
-0.147533
-0.147536
-0.14754
-0.147541
-0.147537
-0.147534
-0.147532
-0.147531
-0.147532
-0.147533
-0.147535
-0.147538
-0.147543
-0.147544
-0.14754
-0.147537
-0.147536
-0.147535
-0.147535
-0.147536
-0.147538
-0.147541
-0.147545
-0.147556
-0.147544
-0.147542
-0.147539
-0.147539
-0.147539
-0.14754
-0.147542
-0.147545
-0.147556
-0.152654
-0.152643
-0.152642
-0.152639
-0.152639
-0.152639
-0.15264
-0.152643
-0.152645
-0.152657
-0.152643
-0.152639
-0.152637
-0.152636
-0.152635
-0.152635
-0.152636
-0.152638
-0.15264
-0.152645
-0.152641
-0.152637
-0.152634
-0.152632
-0.152632
-0.152632
-0.152633
-0.152635
-0.152638
-0.152643
-0.152638
-0.152635
-0.152632
-0.15263
-0.15263
-0.15263
-0.152631
-0.152633
-0.152636
-0.15264
-0.152638
-0.152634
-0.152631
-0.152629
-0.152628
-0.152628
-0.15263
-0.152632
-0.152635
-0.152639
-0.152638
-0.152634
-0.152631
-0.152629
-0.152628
-0.152628
-0.152629
-0.152632
-0.152635
-0.152639
-0.152639
-0.152635
-0.152632
-0.15263
-0.152629
-0.152629
-0.15263
-0.152632
-0.152636
-0.15264
-0.152642
-0.152637
-0.152634
-0.152632
-0.152631
-0.152631
-0.152632
-0.152634
-0.152638
-0.152642
-0.152644
-0.15264
-0.152637
-0.152635
-0.152634
-0.152634
-0.152635
-0.152637
-0.15264
-0.152645
-0.152656
-0.152644
-0.152642
-0.152639
-0.152638
-0.152638
-0.152639
-0.152642
-0.152645
-0.152656
-0.157728
-0.157718
-0.157717
-0.157714
-0.157713
-0.157714
-0.157715
-0.157718
-0.15772
-0.157731
-0.157718
-0.157713
-0.157711
-0.15771
-0.15771
-0.15771
-0.157711
-0.157713
-0.157715
-0.15772
-0.157716
-0.157711
-0.157709
-0.157707
-0.157707
-0.157707
-0.157708
-0.15771
-0.157713
-0.157718
-0.157713
-0.15771
-0.157707
-0.157706
-0.157705
-0.157705
-0.157706
-0.157708
-0.157711
-0.157715
-0.157713
-0.157709
-0.157706
-0.157705
-0.157704
-0.157704
-0.157705
-0.157707
-0.15771
-0.157714
-0.157713
-0.157709
-0.157706
-0.157705
-0.157704
-0.157704
-0.157705
-0.157707
-0.15771
-0.157714
-0.157714
-0.15771
-0.157707
-0.157706
-0.157705
-0.157705
-0.157706
-0.157708
-0.157711
-0.157715
-0.157717
-0.157712
-0.157709
-0.157708
-0.157707
-0.157707
-0.157708
-0.15771
-0.157713
-0.157719
-0.157719
-0.157714
-0.157712
-0.157711
-0.15771
-0.15771
-0.157711
-0.157713
-0.157715
-0.15772
-0.157729
-0.157719
-0.157718
-0.157714
-0.157714
-0.157714
-0.157715
-0.157718
-0.15772
-0.157731
-0.162784
-0.162773
-0.162773
-0.162769
-0.162768
-0.162768
-0.162769
-0.162773
-0.162773
-0.162784
-0.162773
-0.162767
-0.162766
-0.162765
-0.162764
-0.162764
-0.162765
-0.162766
-0.162768
-0.162774
-0.162773
-0.162766
-0.162764
-0.162762
-0.162761
-0.162761
-0.162762
-0.162764
-0.162767
-0.162773
-0.162769
-0.162765
-0.162763
-0.162761
-0.16276
-0.16276
-0.162761
-0.162763
-0.162765
-0.16277
-0.162769
-0.162765
-0.162762
-0.16276
-0.162759
-0.162759
-0.16276
-0.162762
-0.162765
-0.162769
-0.162769
-0.162765
-0.162762
-0.16276
-0.162759
-0.162759
-0.16276
-0.162762
-0.162765
-0.162769
-0.162769
-0.162765
-0.162763
-0.162761
-0.16276
-0.16276
-0.162761
-0.162763
-0.162765
-0.162769
-0.162773
-0.162767
-0.162765
-0.162763
-0.162762
-0.162762
-0.162763
-0.162764
-0.162766
-0.162773
-0.162773
-0.162767
-0.162766
-0.162765
-0.162764
-0.162764
-0.162765
-0.162766
-0.162767
-0.162773
-0.162783
-0.162773
-0.162773
-0.162769
-0.162768
-0.162768
-0.162769
-0.162772
-0.162773
-0.162783
-0.167822
-0.16781
-0.16781
-0.167807
-0.167805
-0.167805
-0.167806
-0.167809
-0.167808
-0.16782
-0.16781
-0.167804
-0.167803
-0.167801
-0.1678
-0.1678
-0.1678
-0.167802
-0.167803
-0.167809
-0.167811
-0.167804
-0.167802
-0.167799
-0.167798
-0.167798
-0.167799
-0.167801
-0.167802
-0.16781
-0.167808
-0.167803
-0.1678
-0.167798
-0.167797
-0.167796
-0.167797
-0.167799
-0.167801
-0.167806
-0.167807
-0.167802
-0.167799
-0.167797
-0.167796
-0.167796
-0.167797
-0.167798
-0.167801
-0.167806
-0.167807
-0.167802
-0.167799
-0.167797
-0.167796
-0.167796
-0.167797
-0.167799
-0.167801
-0.167806
-0.167808
-0.167803
-0.1678
-0.167798
-0.167797
-0.167797
-0.167798
-0.167799
-0.167801
-0.167806
-0.167811
-0.167804
-0.167802
-0.1678
-0.167799
-0.167799
-0.1678
-0.167801
-0.167803
-0.16781
-0.16781
-0.167804
-0.167804
-0.167802
-0.167802
-0.167801
-0.167802
-0.167803
-0.167803
-0.167809
-0.167821
-0.16781
-0.167811
-0.167807
-0.167806
-0.167806
-0.167807
-0.16781
-0.167809
-0.16782
-0.172845
-0.172831
-0.172832
-0.172829
-0.172828
-0.172827
-0.172828
-0.172831
-0.172829
-0.172843
-0.172832
-0.172825
-0.172824
-0.172822
-0.172821
-0.172821
-0.172821
-0.172823
-0.172824
-0.17283
-0.172833
-0.172825
-0.172823
-0.17282
-0.172819
-0.172819
-0.17282
-0.172822
-0.172824
-0.172832
-0.17283
-0.172823
-0.172821
-0.172819
-0.172818
-0.172817
-0.172818
-0.17282
-0.172822
-0.172829
-0.172829
-0.172823
-0.172821
-0.172818
-0.172817
-0.172817
-0.172818
-0.172819
-0.172822
-0.172828
-0.172829
-0.172823
-0.172821
-0.172818
-0.172817
-0.172817
-0.172818
-0.17282
-0.172822
-0.172828
-0.172829
-0.172823
-0.172821
-0.172819
-0.172818
-0.172818
-0.172819
-0.17282
-0.172822
-0.172828
-0.172832
-0.172824
-0.172823
-0.172821
-0.17282
-0.17282
-0.172821
-0.172822
-0.172823
-0.172831
-0.172831
-0.172825
-0.172824
-0.172823
-0.172822
-0.172822
-0.172822
-0.172824
-0.172824
-0.172829
-0.172844
-0.172831
-0.172832
-0.172829
-0.172828
-0.172828
-0.172829
-0.172831
-0.17283