/*--------------------------------*- C++ -*----------------------------------*\
| =========                 |                                                 |
| \\      /  F ield         | OpenFOAM: The Open Source CFD Toolbox           |
|  \\    /   O peration     | Version:  2406                                  |
|   \\  /    A nd           | Website:  www.openfoam.com                      |
|    \\/     M anipulation  |                                                 |
\*---------------------------------------------------------------------------*/
FoamFile
{
    version     2.0;
    format      ascii;
    arch        "LSB;label=32;scalar=64";
    class       surfaceScalarField;
    location    "250";
    object      phi;
}
// * * * * * * * * * * * * * * * * * * * * * * * * * * * * * * * * * * * * * //

dimensions      [0 3 -1 0 0 0 0];

oriented        oriented;

internalField   nonuniform List<scalar> 
73500
(
1.61284e-06
1.64384e-06
4.76492e-05
-1.79617e-06
-1.81585e-06
1.219e-06
1.41688e-06
5.15969e-05
-1.65538e-06
8.19661e-07
1.27905e-06
5.46043e-05
-1.53208e-06
4.2544e-07
1.19921e-06
5.6632e-05
-1.46121e-06
3.09365e-08
1.1586e-06
5.76527e-05
-1.42419e-06
-3.60268e-07
1.15506e-06
5.7652e-05
-1.42381e-06
-7.47231e-07
1.18594e-06
5.663e-05
-1.45884e-06
-1.13034e-06
1.25022e-06
5.46008e-05
-1.52651e-06
-1.49931e-06
1.35578e-06
5.15916e-05
-1.64139e-06
1.51236e-06
4.76423e-05
-1.8241e-06
-1.82972e-06
1.38821e-06
1.22203e-06
5.15964e-05
-1.62542e-06
1.06861e-06
1.08149e-06
5.52356e-05
7.26607e-07
9.80499e-07
5.80124e-05
3.7743e-07
9.14016e-07
5.98858e-05
2.59166e-08
8.79791e-07
6.0829e-05
-3.25385e-07
8.75303e-07
6.08284e-05
-6.73823e-07
8.99469e-07
5.9884e-05
-1.01686e-06
9.52359e-07
5.80095e-05
-1.34308e-06
1.03402e-06
5.52315e-05
1.14845e-06
5.15915e-05
-1.63301e-06
1.26203e-06
8.13231e-07
5.46039e-05
-1.52816e-06
9.68395e-07
7.29225e-07
5.80122e-05
6.58843e-07
6.64697e-07
6.06146e-05
3.4136e-07
6.18791e-07
6.23714e-05
2.04791e-08
5.93994e-07
6.32562e-05
-3.0123e-07
5.89789e-07
6.32557e-05
-6.21042e-07
6.05897e-07
6.237e-05
-9.35635e-07
6.41475e-07
6.06124e-05
-1.23757e-06
6.95141e-07
5.80093e-05
7.70024e-07
5.46005e-05
-1.51716e-06
1.19088e-06
4.18895e-07
5.66317e-05
-1.46025e-06
9.0561e-07
3.75759e-07
5.98856e-05
6.13104e-07
3.42295e-07
6.23714e-05
3.16031e-07
3.18337e-07
6.40502e-05
1.58471e-08
3.04328e-07
6.48961e-05
-2.85309e-07
3.00921e-07
6.48957e-05
-5.85784e-07
3.07748e-07
6.40491e-05
-8.82674e-07
3.24919e-07
6.23696e-05
-1.17284e-06
3.51327e-07
5.98834e-05
3.88274e-07
5.66293e-05
-1.44965e-06
1.15457e-06
2.41434e-08
5.76526e-05
-1.42645e-06
8.73955e-07
2.19327e-08
6.0829e-05
5.89747e-07
1.93578e-08
6.32562e-05
3.02038e-07
1.58784e-08
6.48961e-05
1.23303e-08
1.29226e-08
6.57225e-05
-2.78609e-07
1.00507e-08
6.57222e-05
-5.6893e-07
7.95214e-09
6.48953e-05
-8.57091e-07
6.21226e-09
6.3255e-05
-1.14099e-06
4.86395e-09
6.08274e-05
3.94937e-09
5.76509e-05
-1.41486e-06
1.1534e-06
-3.65323e-07
5.7652e-05
-1.42449e-06
8.72099e-07
-3.29073e-07
6.08285e-05
5.86652e-07
-3.03605e-07
6.32558e-05
2.99184e-07
-2.86222e-07
6.48958e-05
9.45579e-09
-2.78971e-07
6.57222e-05
-2.80747e-07
-2.80795e-07
6.5722e-05
-5.70737e-07
-2.92326e-07
6.48952e-05
-8.585e-07
-3.12825e-07
6.32549e-05
-1.14195e-06
-3.41569e-07
6.08274e-05
-3.80419e-07
5.76509e-05
-1.41562e-06
1.1854e-06
-7.51953e-07
5.66301e-05
-1.46041e-06
8.97421e-07
-6.77545e-07
5.98841e-05
6.0414e-07
-6.23426e-07
6.23701e-05
3.06539e-07
-5.87462e-07
6.40493e-05
7.66737e-09
-5.69811e-07
6.48954e-05
-2.92276e-07
-5.71382e-07
6.48952e-05
-5.91089e-07
-5.91517e-07
6.40488e-05
-8.86591e-07
-6.30114e-07
6.23695e-05
-1.1758e-06
-6.86066e-07
5.98833e-05
-7.62406e-07
5.66293e-05
-1.45184e-06
1.25049e-06
-1.1337e-06
5.4601e-05
-1.52726e-06
9.515e-07
-1.02035e-06
5.80097e-05
6.40346e-07
-9.38499e-07
6.06126e-05
3.24491e-07
-8.8485e-07
6.23698e-05
6.16483e-09
-8.58682e-07
6.32551e-05
-3.12539e-07
-8.59653e-07
6.3255e-05
-6.29672e-07
-8.87324e-07
6.23695e-05
-9.42103e-07
-9.42714e-07
6.06121e-05
-1.24221e-06
-1.026e-06
5.80091e-05
-1.14147e-06
5.46004e-05
-1.52055e-06
1.35582e-06
-1.50265e-06
5.15919e-05
-1.64266e-06
1.03367e-06
-1.34686e-06
5.52318e-05
6.94628e-07
-1.24109e-06
5.80095e-05
3.51483e-07
-1.17563e-06
5.98837e-05
5.28933e-09
-1.14325e-06
6.08276e-05
-3.40806e-07
-1.14357e-06
6.08275e-05
-6.85454e-07
-1.17702e-06
5.98834e-05
-1.02536e-06
-1.24295e-06
5.80091e-05
-1.34913e-06
-1.34961e-06
5.52313e-05
-1.50684e-06
5.15914e-05
-1.637e-06
1.51179e-06
4.76426e-05
-1.82646e-06
-1.82931e-06
1.14818e-06
5.15918e-05
-1.63664e-06
7.70193e-07
5.46007e-05
-1.52014e-06
3.89001e-07
5.66295e-05
-1.45241e-06
5.11936e-09
5.76511e-05
-1.41692e-06
-3.79145e-07
5.7651e-05
-1.41733e-06
-7.61198e-07
5.66293e-05
-1.4529e-06
-1.1405e-06
5.46004e-05
-1.5212e-06
-1.50636e-06
5.15914e-05
-1.63711e-06
4.76422e-05
-1.82698e-06
-1.82694e-06
2.14149e-06
2.15119e-06
4.83364e-05
-2.48765e-06
-2.49551e-06
1.54648e-06
1.8667e-06
5.23402e-05
-2.01467e-06
1.0442e-06
1.77072e-06
5.53915e-05
-2.05416e-06
5.3101e-07
1.72028e-06
5.74494e-05
-2.02194e-06
6.12317e-09
1.69353e-06
5.84855e-05
-2.00055e-06
-5.19171e-07
1.69341e-06
5.84855e-05
-2.00062e-06
-1.0358e-06
1.71901e-06
5.74493e-05
-2.02098e-06
-1.54207e-06
1.76919e-06
5.53914e-05
-2.05357e-06
-2.14249e-06
1.86461e-06
5.23403e-05
-2.01253e-06
2.14855e-06
4.83368e-05
-2.49176e-06
-2.4935e-06
1.85931e-06
1.55106e-06
5.234e-05
-2.00472e-06
1.46135e-06
1.46688e-06
5.60318e-05
1.00231e-06
1.39688e-06
5.88467e-05
5.11992e-07
1.35142e-06
6.07454e-05
5.48246e-09
1.32897e-06
6.17017e-05
-5.02484e-07
1.32839e-06
6.17017e-05
-9.94854e-07
1.3503e-06
6.07453e-05
-1.45773e-06
1.39515e-06
5.88467e-05
-1.85872e-06
1.46515e-06
5.6032e-05
1.55022e-06
5.23402e-05
-2.00865e-06
1.76535e-06
1.0449e-06
5.53911e-05
-2.05168e-06
1.3918e-06
1.00476e-06
5.88465e-05
9.5901e-07
9.62627e-07
6.14827e-05
4.90721e-07
9.31142e-07
6.32611e-05
4.53128e-09
9.15292e-07
6.41571e-05
-4.82376e-07
9.14849e-07
6.41571e-05
-9.52509e-07
9.29785e-07
6.32611e-05
-1.388e-06
9.60436e-07
6.14827e-05
-1.76319e-06
1.00315e-06
5.88467e-05
1.04497e-06
5.53914e-05
-2.04848e-06
1.71711e-06
5.30875e-07
5.7449e-05
-2.021e-06
1.34782e-06
5.13423e-07
6.07451e-05
9.27632e-07
4.92351e-07
6.32609e-05
4.74368e-07
4.7667e-07
6.4959e-05
3.90548e-09
4.68442e-07
6.58146e-05
-4.67208e-07
4.67906e-07
6.58146e-05
-9.22065e-07
4.75223e-07
6.49591e-05
-1.34329e-06
4.90622e-07
6.32611e-05
-1.71281e-06
5.11093e-07
6.07452e-05
5.28551e-07
5.74492e-05
-2.01582e-06
1.69188e-06
4.5396e-09
5.8485e-05
-2.00206e-06
1.32572e-06
4.81337e-09
6.17013e-05
9.12532e-07
5.47996e-09
6.41568e-05
4.66137e-07
5.10318e-09
6.58145e-05
3.30496e-09
4.88805e-09
6.66498e-05
-4.59978e-07
4.35437e-09
6.66499e-05
-9.07228e-07
3.84178e-09
6.58146e-05
-1.3215e-06
3.3416e-09
6.4157e-05
-1.68713e-06
2.94243e-09
6.17016e-05
2.64873e-09
5.84853e-05
-1.99517e-06
1.69267e-06
-5.20318e-07
5.8485e-05
-2.00134e-06
1.32665e-06
-5.02898e-07
6.17013e-05
9.12326e-07
-4.82605e-07
6.41567e-05
4.65968e-07
-4.66421e-07
6.58144e-05
2.75975e-09
-4.59019e-07
6.66498e-05
-4.60535e-07
-4.59294e-07
6.66498e-05
-9.07815e-07
-4.67722e-07
6.58145e-05
-1.32201e-06
-4.84062e-07
6.41569e-05
-1.68754e-06
-5.05285e-07
6.17015e-05
-5.23261e-07
5.84853e-05
-1.99548e-06
1.71891e-06
-1.0374e-06
5.74488e-05
-2.02303e-06
1.34875e-06
-9.96e-07
6.07448e-05
9.2822e-07
-9.52843e-07
6.32607e-05
4.73413e-07
-9.22208e-07
6.49587e-05
2.50907e-09
-9.06789e-07
6.58144e-05
-4.68969e-07
-9.07201e-07
6.58144e-05
-9.23767e-07
-9.22991e-07
6.49589e-05
-1.34479e-06
-9.54379e-07
6.3261e-05
-1.71398e-06
-9.97686e-07
6.07452e-05
-1.03987e-06
5.74491e-05
-2.01674e-06
1.76953e-06
-1.54281e-06
5.53909e-05
-2.05475e-06
1.39434e-06
-1.45905e-06
5.88462e-05
9.58982e-07
-1.38916e-06
6.14823e-05
4.89359e-07
-1.34418e-06
6.32607e-05
2.1513e-09
-1.32197e-06
6.41567e-05
-4.8514e-07
-1.3222e-06
6.41568e-05
-9.55155e-07
-1.34454e-06
6.32609e-05
-1.39033e-06
-1.38999e-06
6.14826e-05
-1.76498e-06
-1.46041e-06
5.88466e-05
-1.54561e-06
5.53913e-05
-2.04976e-06
1.86439e-06
-2.14354e-06
5.23398e-05
-2.01411e-06
1.46443e-06
-1.86051e-06
5.60315e-05
1.00185e-06
-1.76517e-06
5.88463e-05
5.10209e-07
-1.71435e-06
6.07449e-05
2.00191e-09
-1.68843e-06
6.17013e-05
-5.05885e-07
-1.68833e-06
6.17014e-05
-9.98351e-07
-1.71451e-06
6.07451e-05
-1.46072e-06
-1.76512e-06
5.88465e-05
-1.86089e-06
-1.86087e-06
5.60318e-05
-2.14505e-06
5.23401e-05
-2.00997e-06
2.14756e-06
4.83363e-05
-2.4923e-06
-2.49323e-06
1.54919e-06
5.23398e-05
-2.01038e-06
1.04402e-06
5.5391e-05
-2.04983e-06
5.27855e-07
5.74489e-05
-2.01729e-06
2.26318e-09
5.84851e-05
-1.99621e-06
-5.23557e-07
5.84851e-05
-1.99645e-06
-1.04007e-06
5.7449e-05
-2.01729e-06
-1.54569e-06
5.53912e-05
-2.05013e-06
-2.14506e-06
5.23401e-05
-2.01003e-06
4.83366e-05
-2.49211e-06
-2.49219e-06
1.62919e-06
1.62954e-06
4.88883e-05
-1.90683e-06
-1.90451e-06
1.15508e-06
1.40973e-06
5.29287e-05
-1.52436e-06
7.79881e-07
1.37726e-06
5.60089e-05
-1.61971e-06
3.92181e-07
1.34085e-06
5.80862e-05
-1.58986e-06
4.51049e-09
1.32462e-06
5.91317e-05
-1.58293e-06
-3.83588e-07
1.32462e-06
5.91318e-05
-1.58285e-06
-7.72211e-07
1.34094e-06
5.80864e-05
-1.58911e-06
-1.14922e-06
1.3771e-06
5.60094e-05
-1.61854e-06
-1.62542e-06
1.4097e-06
5.29294e-05
-1.523e-06
1.6299e-06
4.88891e-05
-1.90333e-06
-1.90465e-06
1.41032e-06
1.15484e-06
5.29289e-05
-1.52446e-06
1.09915e-06
1.09863e-06
5.66542e-05
7.60037e-07
1.06898e-06
5.94948e-05
3.8862e-07
1.04696e-06
6.1411e-05
4.09535e-09
1.03551e-06
6.23759e-05
-3.80794e-07
1.03555e-06
6.2376e-05
-7.52913e-07
1.04703e-06
6.14112e-05
-1.09324e-06
1.06891e-06
5.94952e-05
-1.40535e-06
1.09872e-06
5.66547e-05
1.15544e-06
5.29295e-05
-1.51982e-06
1.37785e-06
7.78861e-07
5.60092e-05
-1.61958e-06
1.06964e-06
7.59014e-07
5.94949e-05
7.33938e-07
7.32956e-07
6.21549e-05
3.75124e-07
7.17801e-07
6.39498e-05
3.88141e-09
7.10541e-07
6.48539e-05
-3.67686e-07
7.10529e-07
6.4854e-05
-7.27113e-07
7.17811e-07
6.395e-05
-1.06368e-06
7.32874e-07
6.21552e-05
-1.37266e-06
7.58972e-07
5.94954e-05
7.79134e-07
5.60097e-05
-1.61432e-06
1.34162e-06
3.90671e-07
5.80865e-05
-1.59022e-06
1.04776e-06
3.87257e-07
6.14112e-05
7.18809e-07
3.73813e-07
6.39499e-05
3.67024e-07
3.65745e-07
6.56637e-05
3.7288e-09
3.62069e-07
6.65272e-05
-3.59749e-07
3.6207e-07
6.65272e-05
-7.12238e-07
3.65625e-07
6.56639e-05
-1.04198e-06
3.73629e-07
6.39502e-05
-1.33628e-06
3.87019e-07
6.14116e-05
3.90228e-07
5.80869e-05
-1.5846e-06
1.32548e-06
2.59944e-09
5.91321e-05
-1.58354e-06
1.0364e-06
2.37211e-09
6.23762e-05
7.11606e-07
2.34357e-09
6.48541e-05
3.63339e-07
2.33069e-09
6.65272e-05
3.66767e-09
2.3427e-09
6.73703e-05
-3.56282e-07
2.24974e-09
6.73703e-05
-7.05174e-07
2.14642e-09
6.65274e-05
-1.03063e-06
2.00134e-09
6.48543e-05
-1.32015e-06
1.86332e-09
6.23765e-05
1.72299e-09
5.91324e-05
-1.5781e-06
1.32567e-06
-3.85483e-07
5.91322e-05
-1.58349e-06
1.03655e-06
-3.82568e-07
6.23763e-05
7.11692e-07
-3.69207e-07
6.48542e-05
3.63393e-07
-3.61057e-07
6.65273e-05
3.56535e-09
-3.57478e-07
6.73704e-05
-3.56429e-07
-3.57547e-07
6.73704e-05
-7.05395e-07
-3.61357e-07
6.65274e-05
-1.03086e-06
-3.69651e-07
6.48544e-05
-1.32039e-06
-3.83316e-07
6.23765e-05
-3.86745e-07
5.91324e-05
-1.57832e-06
1.34202e-06
-7.74418e-07
5.80869e-05
-1.59014e-06
1.04825e-06
-7.54585e-07
6.14116e-05
7.19147e-07
-7.2852e-07
6.39503e-05
3.67029e-07
-7.13422e-07
6.56641e-05
3.53394e-09
-7.06203e-07
6.65275e-05
-3.6024e-07
-7.06293e-07
6.65275e-05
-7.12898e-07
-7.13795e-07
6.56641e-05
-1.04269e-06
-7.29073e-07
6.39504e-05
-1.33697e-06
-7.55402e-07
6.14117e-05
-7.75723e-07
5.8087e-05
-1.58527e-06
1.37866e-06
-1.15096e-06
5.60098e-05
-1.61969e-06
1.07034e-06
-1.09488e-06
5.94956e-05
7.34386e-07
-1.06502e-06
6.21555e-05
3.75193e-07
-1.0432e-06
6.39504e-05
3.5271e-09
-1.03163e-06
6.48544e-05
-3.68498e-07
-1.03186e-06
6.48544e-05
-7.2816e-07
-1.0434e-06
6.39504e-05
-1.06484e-06
-1.06554e-06
6.21556e-05
-1.37375e-06
-1.09552e-06
5.94956e-05
-1.15229e-06
5.60099e-05
-1.61527e-06
1.4113e-06
-1.62695e-06
5.29298e-05
-1.52482e-06
1.10046e-06
-1.40698e-06
5.66551e-05
7.60574e-07
-1.37423e-06
5.94956e-05
3.88842e-07
-1.33759e-06
6.14118e-05
3.41695e-09
-1.3214e-06
6.23766e-05
-3.81799e-07
-1.32136e-06
6.23766e-05
-7.54443e-07
-1.33786e-06
6.14117e-05
-1.09478e-06
-1.37431e-06
5.94956e-05
-1.40675e-06
-1.4071e-06
5.66551e-05
-1.62753e-06
5.29298e-05
-1.52097e-06
1.63146e-06
4.88895e-05
-1.90471e-06
-1.90597e-06
1.15724e-06
5.29298e-05
-1.52189e-06
7.81001e-07
5.601e-05
-1.61598e-06
3.92145e-07
5.80871e-05
-1.58617e-06
3.65997e-09
5.91325e-05
-1.57938e-06
-3.85052e-07
5.91325e-05
-1.57952e-06
-7.74331e-07
5.80871e-05
-1.58609e-06
-1.15127e-06
5.60099e-05
-1.61581e-06
-1.62718e-06
5.29298e-05
-1.52088e-06
4.88895e-05
-1.90367e-06
-1.90346e-06
1.13157e-06
1.13492e-06
4.92862e-05
-1.32969e-06
-1.33019e-06
8.19713e-07
1.01911e-06
5.33585e-05
-1.13405e-06
5.58659e-07
1.02875e-06
5.64633e-05
-1.21903e-06
2.80164e-07
1.00294e-06
5.8557e-05
-1.19227e-06
5.05084e-09
9.97725e-07
5.96107e-05
-1.19893e-06
-2.70393e-07
9.97632e-07
5.96107e-05
-1.19889e-06
-5.49601e-07
1.00275e-06
5.85571e-05
-1.19177e-06
-8.12296e-07
1.02805e-06
5.64635e-05
-1.21814e-06
-1.12603e-06
1.01829e-06
5.33588e-05
-1.13218e-06
1.13438e-06
4.92865e-05
-1.32614e-06
-1.32926e-06
1.01608e-06
8.22442e-07
5.33586e-05
-1.13049e-06
7.87958e-07
7.90447e-07
5.71126e-05
5.50515e-07
7.88305e-07
5.99746e-05
2.81794e-07
7.79173e-07
6.1905e-05
4.62368e-09
7.7548e-07
6.2877e-05
-2.72944e-07
7.75379e-07
6.2877e-05
-5.42448e-07
7.78967e-07
6.19051e-05
-7.80893e-07
7.87911e-07
5.99747e-05
-1.01035e-06
7.8971e-07
5.71128e-05
8.22183e-07
5.33589e-05
-1.12603e-06
1.02577e-06
5.60291e-07
5.64636e-05
-1.21557e-06
7.85952e-07
5.51935e-07
5.99747e-05
5.37905e-07
5.39365e-07
6.26535e-05
2.74519e-07
5.33002e-07
6.4461e-05
4.30546e-09
5.29643e-07
6.53713e-05
-2.66207e-07
5.29599e-07
6.53713e-05
-5.30323e-07
5.32798e-07
6.44611e-05
-7.79526e-07
5.3882e-07
6.26536e-05
-1.02019e-06
5.51415e-07
5.99748e-05
5.598e-07
5.64637e-05
-1.21066e-06
1.00009e-06
2.80599e-07
5.85573e-05
-1.18907e-06
7.77019e-07
2.82348e-07
6.19053e-05
5.31584e-07
2.75007e-07
6.44611e-05
2.71472e-07
2.72041e-07
6.61863e-05
4.09983e-09
2.70277e-07
6.70552e-05
-2.63584e-07
2.7016e-07
6.70553e-05
-5.24548e-07
2.71716e-07
6.61863e-05
-7.70779e-07
2.7451e-07
6.44612e-05
-9.94635e-07
2.81509e-07
6.19053e-05
2.79609e-07
5.85574e-05
-1.18381e-06
9.95062e-07
4.41002e-09
5.96111e-05
-1.19604e-06
7.73335e-07
4.19721e-09
6.28772e-05
5.28335e-07
4.2086e-09
6.53714e-05
2.69698e-07
4.08077e-09
6.70553e-05
3.89949e-09
3.96806e-09
6.79036e-05
-2.6214e-07
3.82561e-09
6.79036e-05
-5.21521e-07
3.57706e-09
6.70553e-05
-7.67401e-07
3.33303e-09
6.53715e-05
-9.896e-07
3.18565e-09
6.28773e-05
3.06269e-09
5.96111e-05
-1.19075e-06
9.9519e-07
-2.71383e-07
5.96111e-05
-1.19614e-06
7.73518e-07
-2.73607e-07
6.28773e-05
5.28347e-07
-2.66635e-07
6.53715e-05
2.69649e-07
-2.63783e-07
6.70554e-05
3.74823e-09
-2.62272e-07
6.79037e-05
-2.62436e-07
-2.62561e-07
6.79037e-05
-5.21853e-07
-2.64528e-07
6.70554e-05
-7.67672e-07
-2.67762e-07
6.53715e-05
-9.89866e-07
-2.75223e-07
6.28773e-05
-2.73465e-07
5.96111e-05
-1.1909e-06
1.0005e-06
-5.51164e-07
5.85575e-05
-1.18954e-06
7.7729e-07
-5.43221e-07
6.19054e-05
5.31736e-07
-5.30842e-07
6.44613e-05
2.71247e-07
-5.2486e-07
6.61864e-05
3.50758e-09
-5.21863e-07
6.70554e-05
-2.644e-07
-5.2214e-07
6.70554e-05
-5.25506e-07
-5.25846e-07
6.61864e-05
-7.71762e-07
-5.3235e-07
6.44613e-05
-9.95353e-07
-5.45159e-07
6.19054e-05
-5.5371e-07
5.85574e-05
-1.18438e-06
1.02636e-06
-8.1332e-07
5.64638e-05
-1.21602e-06
7.86365e-07
-7.81855e-07
5.9975e-05
5.37884e-07
-7.80094e-07
6.26538e-05
2.73996e-07
-7.71477e-07
6.44613e-05
3.32357e-09
-7.68017e-07
6.53715e-05
-2.67652e-07
-7.68423e-07
6.53715e-05
-5.31989e-07
-7.72388e-07
6.44613e-05
-7.81026e-07
-7.81667e-07
6.26538e-05
-1.02143e-06
-7.83901e-07
5.9975e-05
-8.16428e-07
5.64638e-05
-1.21136e-06
1.01637e-06
-1.12711e-06
5.3359e-05
-1.13091e-06
7.88397e-07
-1.01135e-06
5.7113e-05
5.5024e-07
-1.02126e-06
5.9975e-05
2.81065e-07
-9.95637e-07
6.19054e-05
3.04581e-09
-9.90751e-07
6.28773e-05
-2.74926e-07
-9.90988e-07
6.28773e-05
-5.44757e-07
-9.96517e-07
6.19054e-05
-7.83221e-07
-1.02243e-06
5.9975e-05
-1.0121e-06
-1.01287e-06
5.7113e-05
-1.1295e-06
5.3359e-05
-1.12713e-06
1.13236e-06
4.92867e-05
-1.32642e-06
-1.32802e-06
8.20596e-07
5.3359e-05
-1.12735e-06
5.5857e-07
5.64638e-05
-1.21169e-06
2.78956e-07
5.85574e-05
-1.18516e-06
2.98207e-09
5.96111e-05
-1.19216e-06
-2.73115e-07
5.96111e-05
-1.19253e-06
-5.53015e-07
5.85574e-05
-1.18601e-06
-8.15415e-07
5.64638e-05
-1.21293e-06
-1.1287e-06
5.3359e-05
-1.1281e-06
4.92867e-05
-1.32653e-06
-1.32682e-06
7.75595e-07
7.81815e-07
4.9553e-05
-9.08416e-07
-9.12076e-07
5.86777e-07
7.31243e-07
5.36516e-05
-8.3333e-07
4.03566e-07
7.50261e-07
5.6777e-05
-8.78049e-07
2.02734e-07
7.30201e-07
5.88848e-05
-8.54526e-07
4.87247e-09
7.32204e-07
5.99458e-05
-8.66612e-07
-1.93309e-07
7.32045e-07
5.99458e-05
-8.66639e-07
-3.9423e-07
7.29891e-07
5.88848e-05
-8.53966e-07
-5.78725e-07
7.49104e-07
5.6777e-05
-8.77235e-07
-7.68743e-07
7.29489e-07
5.36516e-05
-8.30894e-07
7.79454e-07
4.9553e-05
-9.04199e-07
-9.08308e-07
7.24928e-07
5.92602e-07
5.36516e-05
-8.26428e-07
5.66591e-07
5.72e-07
5.74314e-05
3.99769e-07
5.79652e-07
6.03135e-05
2.04811e-07
5.73869e-07
6.22578e-05
4.5138e-09
5.74539e-07
6.32367e-05
-1.96202e-07
5.74312e-07
6.32367e-05
-3.91889e-07
5.73399e-07
6.22578e-05
-5.5951e-07
5.78894e-07
6.03135e-05
-7.19504e-07
5.70424e-07
5.74314e-05
5.9129e-07
5.36516e-05
-8.22552e-07
7.44161e-07
4.07788e-07
5.67771e-05
-8.71123e-07
5.74517e-07
4.03539e-07
6.03135e-05
3.96613e-07
4.0033e-07
6.30119e-05
2.02792e-07
3.97192e-07
6.48329e-05
4.13403e-09
3.95673e-07
6.575e-05
-1.94823e-07
3.95571e-07
6.575e-05
-3.89417e-07
3.96822e-07
6.48328e-05
-5.68555e-07
3.99452e-07
6.30118e-05
-7.391e-07
4.02539e-07
6.03135e-05
4.0668e-07
5.6777e-05
-8.66547e-07
7.24253e-07
2.04837e-07
5.88849e-05
-8.47408e-07
5.69025e-07
2.0694e-07
6.22579e-05
3.93579e-07
2.04801e-07
6.48329e-05
2.02401e-07
2.04501e-07
6.65712e-05
3.88537e-09
2.0375e-07
6.74469e-05
-1.94982e-07
2.03592e-07
6.74468e-05
-3.87094e-07
2.04096e-07
6.65712e-05
-5.6331e-07
2.04131e-07
6.48328e-05
-7.1938e-07
2.0583e-07
6.22578e-05
2.03628e-07
5.88847e-05
-8.42516e-07
7.26527e-07
4.74524e-09
5.99459e-05
-8.59752e-07
5.69769e-07
4.67109e-09
6.32368e-05
3.92254e-07
4.77504e-09
6.575e-05
2.0166e-07
4.70387e-09
6.74469e-05
3.65796e-09
4.61808e-09
6.83018e-05
-1.946e-07
4.48301e-09
6.83018e-05
-3.8605e-07
4.18245e-09
6.74468e-05
-5.64466e-07
3.88642e-09
6.57499e-05
-7.21715e-07
3.60685e-09
6.32367e-05
3.3965e-09
5.99457e-05
-8.54922e-07
7.2666e-07
-1.94955e-07
5.99459e-05
-8.6e-07
5.70003e-07
-1.97112e-07
6.32369e-05
3.92335e-07
-1.95207e-07
6.57501e-05
2.01645e-07
-1.94947e-07
6.74469e-05
3.51817e-09
-1.94361e-07
6.83018e-05
-1.94948e-07
-1.94632e-07
6.83018e-05
-3.86446e-07
-1.95605e-07
6.74468e-05
-5.64885e-07
-1.96285e-07
6.57499e-05
-7.22085e-07
-1.9857e-07
6.32367e-05
-1.96789e-07
5.99457e-05
-8.55247e-07
7.24928e-07
-3.97478e-07
5.8885e-05
-8.48138e-07
5.69482e-07
-3.93549e-07
6.22579e-05
3.93941e-07
-3.90398e-07
6.48329e-05
2.02322e-07
-3.87546e-07
6.65712e-05
3.29684e-09
-3.86342e-07
6.74469e-05
-1.95917e-07
-3.86563e-07
6.74468e-05
-3.88351e-07
-3.88475e-07
6.65711e-05
-5.64606e-07
-3.9168e-07
6.48328e-05
-7.20512e-07
-3.95219e-07
6.22577e-05
-3.99693e-07
5.88847e-05
-8.43627e-07
7.4523e-07
-5.81907e-07
5.67772e-05
-8.72182e-07
5.75379e-07
-5.61711e-07
6.03136e-05
3.96954e-07
-5.69807e-07
6.30119e-05
2.02467e-07
-5.64411e-07
6.48329e-05
3.17118e-09
-5.65257e-07
6.575e-05
-1.96566e-07
-5.65682e-07
6.57499e-05
-3.91528e-07
-5.65128e-07
6.48328e-05
-5.70679e-07
-5.71189e-07
6.30118e-05
-7.40982e-07
-5.63345e-07
6.03134e-05
-5.84421e-07
5.6777e-05
-8.68046e-07
7.25937e-07
-7.71562e-07
5.36517e-05
-8.27962e-07
5.67507e-07
-7.21543e-07
5.74315e-05
3.99981e-07
-7.40914e-07
6.03136e-05
2.04416e-07
-7.20918e-07
6.22578e-05
2.86797e-09
-7.23224e-07
6.32367e-05
-1.98505e-07
-7.23373e-07
6.32367e-05
-3.94983e-07
-7.217e-07
6.22578e-05
-5.62793e-07
-7.41791e-07
6.03135e-05
-7.22229e-07
-7.22597e-07
5.74313e-05
-7.73335e-07
5.36516e-05
-8.2468e-07
7.76219e-07
4.95531e-05
-9.0503e-07
-9.06852e-07
5.88174e-07
5.36517e-05
-8.24921e-07
4.04158e-07
5.67771e-05
-8.68745e-07
2.02101e-07
5.88848e-05
-8.44987e-07
2.88702e-09
5.99458e-05
-8.57244e-07
-1.96508e-07
5.99458e-05
-8.57616e-07
-3.98885e-07
5.88848e-05
-8.45661e-07
-5.83306e-07
5.6777e-05
-8.69717e-07
-7.7296e-07
5.36516e-05
-8.25188e-07
4.9553e-05
-9.05364e-07
-9.04908e-07
6.14121e-07
6.21323e-07
4.97662e-05
-7.20654e-07
-7.2577e-07
4.84435e-07
5.90037e-07
5.38847e-05
-6.92216e-07
3.32779e-07
5.94047e-07
5.70255e-05
-6.8894e-07
1.67546e-07
5.70707e-07
5.91437e-05
-6.62378e-07
3.38979e-09
5.71833e-07
6.021e-05
-6.69615e-07
-1.61137e-07
5.71683e-07
6.02099e-05
-6.69591e-07
-3.26433e-07
5.70449e-07
5.91436e-05
-6.61673e-07
-4.79366e-07
5.93168e-07
5.70254e-05
-6.88155e-07
-6.0971e-07
5.88818e-07
5.38846e-05
-6.90492e-07
6.19381e-07
4.9766e-05
-7.18555e-07
-7.22141e-07
5.83137e-07
4.91699e-07
5.38846e-05
-6.85167e-07
4.5762e-07
4.63905e-07
5.76837e-05
3.21424e-07
4.63654e-07
6.05812e-05
1.63861e-07
4.51238e-07
6.2536e-05
3.09464e-09
4.50707e-07
6.35202e-05
-1.58091e-07
4.50512e-07
6.35202e-05
-3.16281e-07
4.50909e-07
6.25359e-05
-4.5316e-07
4.63224e-07
6.05811e-05
-5.79952e-07
4.62813e-07
5.76836e-05
4.90744e-07
5.38845e-05
-6.82993e-07
5.87363e-07
3.38253e-07
5.70254e-05
-6.8125e-07
4.57851e-07
3.26111e-07
6.05811e-05
3.17539e-07
3.21984e-07
6.32946e-05
1.61819e-07
3.14791e-07
6.51261e-05
2.77184e-09
3.12161e-07
6.60485e-05
-1.56527e-07
3.12101e-07
6.60485e-05
-3.12886e-07
3.14593e-07
6.5126e-05
-4.54153e-07
3.21456e-07
6.32945e-05
-5.84229e-07
3.25502e-07
6.0581e-05
3.37484e-07
5.70253e-05
-6.78216e-07
5.64009e-07
1.70569e-07
5.91436e-05
-6.54173e-07
4.45711e-07
1.66781e-07
6.25359e-05
3.10497e-07
1.64532e-07
6.51261e-05
1.59828e-07
1.62588e-07
6.68749e-05
2.59621e-09
1.61344e-07
6.77559e-05
-1.54927e-07
1.61244e-07
6.77559e-05
-3.0635e-07
1.62384e-07
6.68748e-05
-4.42091e-07
1.6419e-07
6.5126e-05
-5.60987e-07
1.66096e-07
6.25358e-05
1.69853e-07
5.91434e-05
-6.5097e-07
5.65403e-07
3.84489e-09
6.02099e-05
-6.61669e-07
4.45279e-07
3.84975e-09
6.35201e-05
3.08089e-07
3.98739e-09
6.60485e-05
1.58621e-07
3.99946e-09
6.77559e-05
2.46047e-09
4.00561e-09
6.86161e-05
-1.53908e-07
3.94728e-09
6.86161e-05
-3.04082e-07
3.73084e-09
6.77558e-05
-4.41969e-07
3.50504e-09
6.60484e-05
-5.62438e-07
3.29188e-09
6.352e-05
3.08157e-09
6.02097e-05
-6.58601e-07
5.65544e-07
-1.62608e-07
6.02099e-05
-6.61923e-07
4.4554e-07
-1.58678e-07
6.35202e-05
3.08243e-07
-1.56511e-07
6.60485e-05
1.58684e-07
-1.54449e-07
6.77559e-05
2.40341e-09
-1.53191e-07
6.86161e-05
-1.54169e-07
-1.53342e-07
6.86161e-05
-3.04415e-07
-1.54782e-07
6.77558e-05
-4.42335e-07
-1.57075e-07
6.60484e-05
-5.62806e-07
-1.59477e-07
6.352e-05
-1.63606e-07
6.02097e-05
-6.58946e-07
5.64759e-07
-3.29835e-07
5.91436e-05
-6.5487e-07
4.46343e-07
-3.17881e-07
6.25359e-05
3.11109e-07
-3.13666e-07
6.51261e-05
1.60019e-07
-3.06515e-07
6.68749e-05
2.29694e-09
-3.03989e-07
6.77558e-05
-1.5561e-07
-3.04079e-07
6.77558e-05
-3.07407e-07
-3.07062e-07
6.68748e-05
-4.43269e-07
-3.14349e-07
6.51259e-05
-5.6209e-07
-3.18739e-07
6.25357e-05
-3.31011e-07
5.91434e-05
-6.5219e-07
5.88647e-07
-4.83031e-07
5.70255e-05
-6.82332e-07
4.59128e-07
-4.5547e-07
6.05812e-05
3.18402e-07
-4.55353e-07
6.32947e-05
1.62004e-07
-4.43011e-07
6.51261e-05
2.29314e-09
-4.42445e-07
6.60485e-05
-1.57865e-07
-4.42771e-07
6.60484e-05
-3.1467e-07
-4.43323e-07
6.51259e-05
-4.56071e-07
-4.56121e-07
6.32945e-05
-5.86038e-07
-4.56229e-07
6.0581e-05
-4.84247e-07
5.70253e-05
-6.79846e-07
5.84824e-07
-6.12932e-07
5.38848e-05
-6.87061e-07
4.59391e-07
-5.82103e-07
5.76838e-05
3.22468e-07
-5.8604e-07
6.05812e-05
1.64257e-07
-5.62397e-07
6.25359e-05
2.07465e-09
-5.63716e-07
6.35201e-05
-1.59826e-07
-5.63727e-07
6.35201e-05
-3.18991e-07
-5.62858e-07
6.25358e-05
-4.56142e-07
-5.86372e-07
6.0581e-05
-5.82492e-07
-5.82424e-07
5.76835e-05
-6.13609e-07
5.38845e-05
-6.85066e-07
6.15871e-07
4.97663e-05
-7.19501e-07
-7.20614e-07
4.87168e-07
5.38848e-05
-6.8546e-07
3.34567e-07
5.70255e-05
-6.80584e-07
1.67949e-07
5.91436e-05
-6.53483e-07
2.22443e-09
6.02098e-05
-6.60754e-07
-1.63701e-07
6.02098e-05
-6.61028e-07
-3.30629e-07
5.91434e-05
-6.5371e-07
-4.83662e-07
5.70253e-05
-6.80927e-07
-6.13712e-07
5.38844e-05
-6.85062e-07
4.97659e-05
-7.19514e-07
-7.1898e-07
6.04102e-07
6.08634e-07
4.99776e-05
-7.08863e-07
-7.11682e-07
4.83587e-07
5.77019e-07
5.41144e-05
-6.83729e-07
3.30347e-07
5.66676e-07
5.72691e-05
-6.54339e-07
1.66619e-07
5.41259e-07
5.93965e-05
-6.27757e-07
1.10427e-09
5.39951e-07
6.04676e-05
-6.29427e-07
-1.64636e-07
5.40131e-07
6.04676e-05
-6.29769e-07
-3.2851e-07
5.41995e-07
5.93967e-05
-6.28754e-07
-4.82431e-07
5.67794e-07
5.72693e-05
-6.56023e-07
-6.02995e-07
5.78811e-07
5.41146e-05
-6.86346e-07
6.10514e-07
4.99779e-05
-7.10161e-07
-7.1291e-07
5.73106e-07
4.8936e-07
5.41144e-05
-6.81033e-07
4.50153e-07
4.54637e-07
5.79305e-05
3.1233e-07
4.45884e-07
6.08412e-05
1.58427e-07
4.27643e-07
6.28049e-05
1.19998e-09
4.25149e-07
6.37937e-05
-1.562e-07
4.25264e-07
6.37937e-05
-3.1051e-07
4.28068e-07
6.2805e-05
-4.48649e-07
4.46771e-07
6.08414e-05
-5.72004e-07
4.55661e-07
5.79307e-05
4.90737e-07
5.41146e-05
-6.80939e-07
5.62546e-07
3.35496e-07
5.7269e-05
-6.50174e-07
4.41843e-07
3.16377e-07
6.08412e-05
3.06323e-07
3.09896e-07
6.35674e-05
1.55415e-07
2.9852e-07
6.54074e-05
1.21202e-09
2.94834e-07
6.63342e-05
-1.53131e-07
2.949e-07
6.63342e-05
-3.04361e-07
2.98761e-07
6.54075e-05
-4.40279e-07
3.10248e-07
6.35675e-05
-5.61085e-07
3.16892e-07
6.08413e-05
3.36076e-07
5.72692e-05
-6.49212e-07
5.3671e-07
1.70357e-07
5.93964e-05
-6.22628e-07
4.23601e-07
1.61539e-07
6.28049e-05
2.95078e-07
1.58118e-07
6.54074e-05
1.5117e-07
1.53782e-07
6.71646e-05
1.20023e-09
1.51948e-07
6.80498e-05
-1.4891e-07
1.51919e-07
6.80498e-05
-2.93176e-07
1.5378e-07
6.71646e-05
-4.21891e-07
1.58132e-07
6.54074e-05
-5.35171e-07
1.61436e-07
6.28049e-05
1.70314e-07
5.93965e-05
-6.21491e-07
5.35226e-07
3.13959e-09
6.04674e-05
-6.23912e-07
4.2105e-07
3.086e-09
6.37936e-05
2.91498e-07
3.11434e-09
6.63341e-05
1.49387e-07
3.08878e-09
6.80498e-05
1.16546e-09
3.05069e-09
6.89142e-05
-1.47162e-07
2.98485e-09
6.89142e-05
-2.89595e-07
2.83249e-09
6.80498e-05
-4.19449e-07
2.69576e-09
6.63341e-05
-5.33688e-07
2.60046e-09
6.37936e-05
2.52445e-09
6.04674e-05
-6.22706e-07
5.35335e-07
-1.63935e-07
6.04674e-05
-6.24116e-07
4.21235e-07
-1.55159e-07
6.37936e-05
2.91597e-07
-1.51907e-07
6.63341e-05
1.49391e-07
-1.47589e-07
6.80498e-05
1.10341e-09
-1.45758e-07
6.89142e-05
-1.47361e-07
-1.45975e-07
6.89142e-05
-2.89841e-07
-1.48054e-07
6.80497e-05
-4.19701e-07
-1.52673e-07
6.63341e-05
-5.33924e-07
-1.56242e-07
6.37935e-05
-1.65246e-07
6.04674e-05
-6.22889e-07
5.37252e-07
-3.29041e-07
5.93964e-05
-6.23255e-07
4.24083e-07
-3.10206e-07
6.28048e-05
2.95484e-07
-3.03725e-07
6.54073e-05
1.51284e-07
-2.92329e-07
6.71645e-05
9.19343e-10
-2.88745e-07
6.80497e-05
-1.4945e-07
-2.88942e-07
6.80497e-05
-2.93929e-07
-2.93034e-07
6.71645e-05
-4.22732e-07
-3.04831e-07
6.54073e-05
-5.35914e-07
-3.11631e-07
6.28048e-05
-3.30917e-07
5.93963e-05
-6.22217e-07
5.63465e-07
-4.83428e-07
5.7269e-05
-6.51019e-07
4.42859e-07
-4.48852e-07
6.08411e-05
3.0702e-07
-4.40095e-07
6.35672e-05
1.55539e-07
-4.2165e-07
6.54073e-05
7.80229e-10
-4.19138e-07
6.6334e-05
-1.54076e-07
-4.19386e-07
6.6334e-05
-3.05713e-07
-4.22385e-07
6.54073e-05
-4.41646e-07
-4.41298e-07
6.35672e-05
-5.62306e-07
-4.50546e-07
6.08411e-05
-4.85656e-07
5.72689e-05
-6.50177e-07
5.74621e-07
-6.0396e-07
5.41143e-05
-6.82462e-07
4.51765e-07
-5.72379e-07
5.79304e-05
3.13468e-07
-5.61361e-07
6.08411e-05
1.58751e-07
-5.35434e-07
6.28047e-05
6.01357e-10
-5.3392e-07
6.37935e-05
-1.57625e-07
-5.34187e-07
6.37935e-05
-3.12467e-07
-5.36144e-07
6.28047e-05
-4.50849e-07
-5.62522e-07
6.08411e-05
-5.73768e-07
-5.73944e-07
5.79304e-05
-6.06116e-07
5.41143e-05
-6.82017e-07
6.06435e-07
4.99775e-05
-7.09495e-07
-7.10558e-07
4.86507e-07
5.41143e-05
-6.81046e-07
3.32351e-07
5.72689e-05
-6.49651e-07
1.6739e-07
5.93963e-05
-6.22162e-07
3.93802e-10
6.04673e-05
-6.23408e-07
-1.666e-07
6.04673e-05
-6.23726e-07
-3.31611e-07
5.93963e-05
-6.23052e-07
-4.85767e-07
5.72689e-05
-6.51011e-07
-6.05868e-07
5.41143e-05
-6.82738e-07
4.99776e-05
-7.10676e-07
-7.11233e-07
6.39977e-07
6.44045e-07
5.02003e-05
-7.52639e-07
-7.54664e-07
5.10529e-07
6.08259e-07
5.43559e-05
-7.20942e-07
3.48627e-07
5.91211e-07
5.75249e-05
-6.85172e-07
1.77143e-07
5.66066e-07
5.9662e-05
-6.60103e-07
1.66997e-09
5.62643e-07
6.07379e-05
-6.57146e-07
-1.74123e-07
5.62446e-07
6.0738e-05
-6.56826e-07
-3.45817e-07
5.65649e-07
5.96622e-05
-6.58907e-07
-5.08866e-07
5.90321e-07
5.75252e-05
-6.83366e-07
-6.38959e-07
6.07529e-07
5.43562e-05
-7.19152e-07
6.43172e-07
5.02006e-05
-7.51805e-07
-7.53082e-07
6.05094e-07
5.14989e-07
5.43558e-05
-7.1761e-07
4.75545e-07
4.78789e-07
5.81894e-05
3.27873e-07
4.66413e-07
6.11136e-05
1.66667e-07
4.45996e-07
6.30864e-05
1.2774e-09
4.42309e-07
6.40798e-05
-1.64257e-07
4.42197e-07
6.40799e-05
-3.25826e-07
4.45654e-07
6.30866e-05
-4.73873e-07
4.65944e-07
6.11139e-05
-6.03788e-07
4.78077e-07
5.81897e-05
5.14092e-07
5.43562e-05
-7.1607e-07
5.87799e-07
3.5159e-07
5.75247e-05
-6.80445e-07
4.63508e-07
3.30332e-07
6.11135e-05
3.212e-07
3.23423e-07
6.38526e-05
1.63159e-07
3.10334e-07
6.57013e-05
1.0249e-09
3.06463e-07
6.66324e-05
-1.61214e-07
3.06368e-07
6.66325e-05
-3.19494e-07
3.10123e-07
6.57015e-05
-4.62117e-07
3.23033e-07
6.38529e-05
-5.86531e-07
3.29776e-07
6.11139e-05
3.50825e-07
5.75252e-05
-6.78964e-07
5.62742e-07
1.78781e-07
5.96617e-05
-6.55307e-07
4.43231e-07
1.68143e-07
6.30863e-05
3.08215e-07
1.64528e-07
6.57012e-05
1.57543e-07
1.58894e-07
6.74668e-05
8.6543e-10
1.5695e-07
6.83563e-05
-1.55879e-07
1.56878e-07
6.83563e-05
-3.0681e-07
1.5871e-07
6.7467e-05
-4.42008e-07
1.64186e-07
6.57015e-05
-5.61604e-07
1.67599e-07
6.30867e-05
1.77994e-07
5.96622e-05