/*--------------------------------*- C++ -*----------------------------------*\
| =========                 |                                                 |
| \\      /  F ield         | OpenFOAM: The Open Source CFD Toolbox           |
|  \\    /   O peration     | Version:  2406                                  |
|   \\  /    A nd           | Website:  www.openfoam.com                      |
|    \\/     M anipulation  |                                                 |
\*---------------------------------------------------------------------------*/
FoamFile
{
    version     2.0;
    format      ascii;
    arch        "LSB;label=32;scalar=64";
    class       volScalarField;
    location    "250";
    object      turbulenceProperties:epsilon;
}
// * * * * * * * * * * * * * * * * * * * * * * * * * * * * * * * * * * * * * //

dimensions      [0 2 -3 0 0 0 0];

internalField   nonuniform List<scalar> 
25000
(
1.065e-06
9.73093e-07
8.21719e-07
7.9259e-07
7.78339e-07
7.78674e-07
7.93385e-07
8.22029e-07
9.80563e-07
1.07367e-06
9.74484e-07
9.27014e-07
7.73722e-07
6.98556e-07
6.63533e-07
6.63386e-07
6.97863e-07
7.72451e-07
9.22526e-07
9.78739e-07
8.23042e-07
7.74914e-07
6.65908e-07
6.04312e-07
5.75383e-07
5.75289e-07
6.03962e-07
6.64873e-07
7.71715e-07
8.20906e-07
7.93421e-07
6.98968e-07
6.0453e-07
5.46959e-07
5.1952e-07
5.19521e-07
5.46765e-07
6.0388e-07
6.97742e-07
7.9252e-07
7.78814e-07
6.63928e-07
5.75505e-07
5.19582e-07
4.92922e-07
4.92911e-07
5.1947e-07
5.75234e-07
6.63212e-07
7.78072e-07
7.78809e-07
6.63607e-07
5.75408e-07
5.19503e-07
4.92905e-07
4.92907e-07
5.19483e-07
5.75253e-07
6.63229e-07
7.78152e-07
7.93375e-07
6.98071e-07
6.0399e-07
5.46801e-07
5.19514e-07
5.19533e-07
5.46792e-07
6.03918e-07
6.97806e-07
7.92748e-07
8.21827e-07
7.71977e-07
6.65023e-07
6.04011e-07
5.75277e-07
5.75283e-07
6.04002e-07
6.64951e-07
7.71812e-07
8.21285e-07
9.79885e-07
9.22725e-07
7.7255e-07
6.97846e-07
6.63265e-07
6.63265e-07
6.97845e-07
7.72489e-07
9.226e-07
9.79299e-07
1.07393e-06
9.79028e-07
8.20905e-07
7.92488e-07
7.78035e-07
7.78146e-07
7.92756e-07
8.2133e-07
9.79718e-07
1.07354e-06
2.06137e-06
1.92432e-06
1.66825e-06
1.61694e-06
1.59055e-06
1.5907e-06
1.61777e-06
1.67025e-06
1.91633e-06
2.03389e-06
1.92403e-06
1.71808e-06
1.58095e-06
1.52532e-06
1.49008e-06
1.49044e-06
1.52668e-06
1.58723e-06
1.72272e-06
1.91551e-06
1.66675e-06
1.584e-06
1.47147e-06
1.42609e-06
1.40215e-06
1.40242e-06
1.4273e-06
1.47301e-06
1.5837e-06
1.67087e-06
1.61638e-06
1.52512e-06
1.42643e-06
1.37465e-06
1.34852e-06
1.34894e-06
1.37517e-06
1.42703e-06
1.52687e-06
1.61879e-06
1.59049e-06
1.48986e-06
1.40207e-06
1.34876e-06
1.32386e-06
1.32397e-06
1.34885e-06
1.40278e-06
1.49108e-06
1.59185e-06
1.59084e-06
1.49037e-06
1.40234e-06
1.34868e-06
1.32398e-06
1.32406e-06
1.34891e-06
1.40282e-06
1.49111e-06
1.59186e-06
1.61804e-06
1.52649e-06
1.42684e-06
1.37519e-06
1.34916e-06
1.34921e-06
1.37535e-06
1.42715e-06
1.52695e-06
1.61884e-06
1.67027e-06
1.58359e-06
1.47301e-06
1.42751e-06
1.40284e-06
1.40288e-06
1.42762e-06
1.47321e-06
1.58385e-06
1.67096e-06
1.91483e-06
1.72275e-06
1.58739e-06
1.5271e-06
1.49111e-06
1.49113e-06
1.52717e-06
1.58754e-06
1.72291e-06
1.91551e-06
2.03406e-06
1.91741e-06
1.6712e-06
1.61887e-06
1.5919e-06
1.59188e-06
1.61882e-06
1.67114e-06
1.9172e-06
2.03435e-06
1.72972e-06
1.50326e-06
1.37301e-06
1.30259e-06
1.27098e-06
1.27094e-06
1.30293e-06
1.37551e-06
1.50703e-06
1.72372e-06
1.50475e-06
1.31216e-06
1.26262e-06
1.22567e-06
1.19993e-06
1.20008e-06
1.22666e-06
1.26868e-06
1.31581e-06
1.50522e-06
1.37251e-06
1.26672e-06
1.19511e-06
1.15794e-06
1.13519e-06
1.13544e-06
1.15919e-06
1.19625e-06
1.26431e-06
1.37532e-06
1.30217e-06
1.2258e-06
1.15841e-06
1.11957e-06
1.09635e-06
1.09682e-06
1.12008e-06
1.15873e-06
1.2265e-06
1.30324e-06
1.27073e-06
1.19972e-06
1.13517e-06
1.09664e-06
1.07705e-06
1.07716e-06
1.0966e-06
1.13562e-06
1.20043e-06
1.27134e-06
1.27087e-06
1.20001e-06
1.13532e-06
1.09647e-06
1.07716e-06
1.07721e-06
1.09664e-06
1.13565e-06
1.20046e-06
1.27136e-06
1.30291e-06
1.22621e-06
1.15858e-06
1.12005e-06
1.09695e-06
1.09698e-06
1.12019e-06
1.15881e-06
1.22656e-06
1.30327e-06
1.37514e-06
1.26423e-06
1.19621e-06
1.15929e-06
1.13566e-06
1.13569e-06
1.15938e-06
1.19638e-06
1.26443e-06
1.37539e-06
1.5051e-06
1.31588e-06
1.26878e-06
1.22691e-06
1.20047e-06
1.20047e-06
1.22692e-06
1.26885e-06
1.31593e-06
1.5052e-06
1.72345e-06
1.50735e-06
1.37581e-06
1.30334e-06
1.27142e-06
1.2714e-06
1.3033e-06
1.37582e-06
1.50731e-06
1.72379e-06
9.94681e-07
7.86455e-07
7.46673e-07
6.9112e-07
6.71356e-07
6.7131e-07
6.90941e-07
7.4751e-07
7.88315e-07
9.92517e-07
7.87149e-07
6.73608e-07
6.58709e-07
6.30035e-07
6.15573e-07
6.15665e-07
6.30574e-07
6.62101e-07
6.7473e-07
7.86763e-07
7.46589e-07
6.61546e-07
6.18661e-07
5.87392e-07
5.69944e-07
5.70079e-07
5.88193e-07
6.19296e-07
6.592e-07
7.47123e-07
6.91017e-07
6.30302e-07
5.8776e-07
5.59889e-07
5.42867e-07
5.43127e-07
5.60142e-07
5.87844e-07
6.30349e-07
6.90993e-07
6.71341e-07
6.15569e-07
5.7e-07
5.43078e-07
5.28585e-07
5.28607e-07
5.42946e-07
5.70111e-07
6.158e-07
6.71522e-07
6.71351e-07
6.15662e-07
5.70055e-07
5.42952e-07
5.28622e-07
5.28625e-07
5.42947e-07
5.70101e-07
6.15785e-07
6.71522e-07
6.90929e-07
6.30236e-07
5.87812e-07
5.60159e-07
5.43189e-07
5.43174e-07
5.60142e-07
5.87813e-07
6.30298e-07
6.90998e-07
7.47168e-07
6.59114e-07
6.1927e-07
5.88229e-07
5.70151e-07
5.70132e-07
5.88186e-07
6.19239e-07
6.59118e-07
7.47137e-07
7.86946e-07
6.74698e-07
6.62126e-07
6.30653e-07
6.15798e-07
6.15774e-07
6.30574e-07
6.62056e-07
6.74659e-07
7.86858e-07
9.92732e-07
7.88337e-07
7.47636e-07
6.91086e-07
6.71532e-07
6.71472e-07
6.90938e-07
7.47442e-07
7.88175e-07
9.92546e-07
5.79616e-07
4.37813e-07
4.17737e-07
3.783e-07
3.65544e-07
3.65554e-07
3.77987e-07
4.17574e-07
4.37969e-07
5.77619e-07
4.3828e-07
3.68414e-07
3.52815e-07
3.27051e-07
3.17499e-07
3.17575e-07
3.2739e-07
3.54709e-07
3.68313e-07
4.36955e-07
4.1789e-07
3.54677e-07
3.22376e-07
2.9431e-07
2.80895e-07
2.80947e-07
2.94741e-07
3.22737e-07
3.52874e-07
4.17257e-07
3.78204e-07
3.27275e-07
2.94551e-07
2.70993e-07
2.58015e-07
2.58114e-07
2.71027e-07
2.94491e-07
3.27144e-07
3.77909e-07
3.65475e-07
3.17491e-07
2.80947e-07
2.58143e-07
2.46091e-07
2.46069e-07
2.57981e-07
2.80897e-07
3.17538e-07
3.65517e-07
3.65487e-07
3.17524e-07
2.8092e-07
2.58022e-07
2.46079e-07
2.46057e-07
2.57965e-07
2.80876e-07
3.17508e-07
3.65487e-07
3.77878e-07
3.27086e-07
2.94481e-07
2.71022e-07
2.58109e-07
2.58089e-07
2.70974e-07
2.94423e-07
3.27065e-07
3.77848e-07
4.17178e-07
3.5276e-07
3.22678e-07
2.94695e-07
2.80907e-07
2.8089e-07
2.94648e-07
3.22625e-07
3.52742e-07
4.17157e-07
4.36934e-07
3.68246e-07
3.54685e-07
3.27337e-07
3.17525e-07
3.17506e-07
3.27277e-07
3.54607e-07
3.68204e-07
4.36915e-07
5.7763e-07
4.37941e-07
4.17614e-07
3.77956e-07
3.65514e-07
3.65482e-07
3.7785e-07
4.17446e-07
4.37798e-07
5.77548e-07
3.91637e-07
3.01171e-07
2.85083e-07
2.57847e-07
2.48972e-07
2.49004e-07
2.57624e-07
2.8461e-07
3.00601e-07
3.88901e-07
3.0175e-07
2.58937e-07
2.41322e-07
2.1984e-07
2.12571e-07
2.12635e-07
2.20149e-07
2.42786e-07
2.58631e-07
2.99998e-07
2.85289e-07
2.42791e-07
2.17717e-07
1.94351e-07
1.8417e-07
1.8419e-07
1.94593e-07
2.17924e-07
2.41379e-07
2.84473e-07
2.57774e-07
2.2004e-07
1.94538e-07
1.74821e-07
1.64929e-07
1.64979e-07
1.74761e-07
1.9438e-07
2.19914e-07
2.57579e-07
2.48883e-07
2.12558e-07
1.84213e-07
1.65027e-07
1.55313e-07
1.55284e-07
1.64873e-07
1.84119e-07
2.12554e-07
2.4891e-07
2.48922e-07
2.12578e-07
1.84162e-07
1.6492e-07
1.55296e-07
1.55271e-07
1.64858e-07
1.84104e-07
2.12535e-07
2.48883e-07
2.57557e-07
2.19907e-07
1.94402e-07
1.74767e-07
1.64975e-07
1.64953e-07
1.74716e-07
1.94337e-07
2.19866e-07
2.57525e-07
2.84369e-07
2.41322e-07
2.17903e-07
1.94553e-07
1.84139e-07
1.84125e-07
1.94511e-07
2.17849e-07
2.41296e-07
2.84379e-07
2.99929e-07
2.5863e-07
2.42804e-07
2.20092e-07
2.12552e-07
2.12541e-07
2.20048e-07
2.42732e-07
2.58571e-07
2.99937e-07
3.8904e-07
3.00814e-07
2.84806e-07
2.57632e-07
2.48915e-07
2.4889e-07
2.5753e-07
2.84609e-07
3.00592e-07
3.88877e-07
3.14478e-07
2.58726e-07
2.44062e-07
2.2264e-07
2.15476e-07
2.15554e-07
2.22734e-07
2.44103e-07
2.58669e-07
3.12477e-07
2.59567e-07
2.32244e-07
2.13439e-07
1.94902e-07
1.88527e-07
1.88624e-07
1.95378e-07
2.15204e-07
2.32455e-07
2.58211e-07
2.44431e-07
2.14918e-07
1.94352e-07
1.74468e-07
1.66322e-07
1.66378e-07
1.74757e-07
1.94635e-07
2.1384e-07
2.4404e-07
2.22703e-07
1.95178e-07
1.74675e-07
1.57929e-07
1.50155e-07
1.50244e-07
1.57936e-07
1.74561e-07
1.95165e-07
2.22779e-07
2.15423e-07
1.88537e-07
1.66371e-07
1.5025e-07
1.42582e-07
1.42582e-07
1.50167e-07
1.66353e-07
1.88604e-07
2.15549e-07
2.1549e-07
1.88562e-07
1.66332e-07
1.50172e-07
1.42586e-07
1.4258e-07
1.50158e-07
1.66345e-07
1.88592e-07
2.15525e-07
2.22681e-07
1.95108e-07
1.74543e-07
1.57922e-07
1.50259e-07
1.5025e-07
1.5791e-07
1.74538e-07
1.95136e-07
2.22722e-07
2.43861e-07
2.13737e-07
1.94579e-07
1.74706e-07
1.6636e-07
1.6636e-07
1.74712e-07
1.94595e-07
2.13787e-07
2.43937e-07
2.58055e-07
2.32374e-07
2.15156e-07
1.95307e-07
1.88573e-07
1.88586e-07
1.95327e-07
2.15185e-07
2.32418e-07
2.58109e-07
3.12663e-07
2.58916e-07
2.44303e-07
2.22769e-07
2.15514e-07
2.15505e-07
2.22726e-07
2.44188e-07
2.58748e-07
3.12451e-07
2.90473e-07
2.55748e-07
2.41219e-07
2.23076e-07
2.16511e-07
2.1655e-07
2.23247e-07
2.41641e-07
2.56189e-07
2.89392e-07
2.56727e-07
2.37232e-07
2.1814e-07
2.01538e-07
1.9522e-07
1.95295e-07
2.02004e-07
2.20065e-07
2.37569e-07
2.55648e-07
2.41742e-07
2.19784e-07
2.01465e-07
1.83324e-07
1.76063e-07
1.76146e-07
1.83643e-07
2.01687e-07
2.18547e-07
2.41456e-07
2.23214e-07
2.01883e-07
1.83579e-07
1.68083e-07
1.61235e-07
1.61372e-07
1.68149e-07
1.83435e-07
2.01771e-07
2.23278e-07
2.16457e-07
1.95242e-07
1.76128e-07
1.61343e-07
1.54762e-07
1.54785e-07
1.61302e-07
1.76148e-07
1.95294e-07
2.16527e-07
2.16497e-07
1.95242e-07
1.76099e-07
1.61285e-07
1.54787e-07
1.54794e-07
1.61303e-07
1.76151e-07
1.95295e-07
2.16512e-07
2.23205e-07
2.01731e-07
1.83416e-07
1.68141e-07
1.61412e-07
1.61418e-07
1.68156e-07
1.83447e-07
2.01783e-07
2.23243e-07
2.41327e-07
2.18493e-07
2.01655e-07
1.83621e-07
1.76178e-07
1.76191e-07
1.83657e-07
2.01712e-07
2.18562e-07
2.41393e-07
2.55497e-07
2.37528e-07
2.20034e-07
2.01984e-07
1.95296e-07
1.95317e-07
2.02034e-07
2.20105e-07
2.37588e-07
2.55557e-07
2.89424e-07
2.5635e-07
2.41743e-07
2.23276e-07
2.1651e-07
2.16521e-07
2.23291e-07
2.4173e-07
2.56268e-07
2.89316e-07
2.80342e-07
2.57874e-07
2.44423e-07
2.29213e-07
2.23004e-07
2.2296e-07
2.29312e-07
2.44994e-07
2.58634e-07
2.79687e-07
2.58939e-07
2.44522e-07
2.27015e-07
2.12256e-07
2.05885e-07
2.05914e-07
2.12653e-07
2.28992e-07
2.4484e-07
2.57961e-07
2.45041e-07
2.2884e-07
2.12181e-07
1.95275e-07
1.88423e-07
1.88515e-07
1.95595e-07
2.12296e-07
2.27325e-07
2.44705e-07
2.29367e-07
2.12653e-07
1.9556e-07
1.80766e-07
1.74271e-07
1.74435e-07
1.80852e-07
1.9535e-07
2.12391e-07
2.29347e-07
2.22961e-07
2.05912e-07
1.88478e-07
1.7438e-07
1.68362e-07
1.68388e-07
1.74333e-07
1.88486e-07
2.05904e-07
2.22953e-07
2.2297e-07
2.05885e-07
1.88456e-07
1.74325e-07
1.68389e-07
1.68396e-07
1.74333e-07
1.88486e-07
2.059e-07
2.22941e-07
2.29337e-07
2.12386e-07
1.95356e-07
1.80859e-07
1.74471e-07
1.74475e-07
1.80859e-07
1.95357e-07
2.12378e-07
2.2931e-07
2.44683e-07
2.27321e-07
2.12301e-07
1.95598e-07
1.88551e-07
1.88556e-07
1.95609e-07
2.12305e-07
2.27305e-07
2.44661e-07
2.57963e-07
2.44839e-07
2.29007e-07
2.12685e-07
2.05939e-07
2.05944e-07
2.1269e-07
2.29009e-07
2.44806e-07
2.57907e-07
2.79775e-07
2.58726e-07
2.45055e-07
2.29373e-07
2.22954e-07
2.22951e-07
2.29373e-07
2.45044e-07
2.5867e-07
2.79696e-07
2.68792e-07
2.53656e-07
2.42442e-07
2.2994e-07
2.24059e-07
2.23923e-07
2.29847e-07
2.42943e-07
2.54418e-07
2.68315e-07
2.54636e-07
2.44591e-07
2.29783e-07
2.16759e-07
2.10491e-07
2.1047e-07
2.1705e-07
2.31692e-07
2.4479e-07
2.5368e-07
2.43028e-07
2.3167e-07
2.16685e-07
2.01004e-07
1.94458e-07
1.94541e-07
2.01301e-07
2.16696e-07
2.29925e-07
2.42587e-07
2.29994e-07
2.17144e-07
2.01306e-07
1.87339e-07
1.81061e-07
1.81224e-07
1.87412e-07
2.01042e-07
2.16766e-07
2.2989e-07
2.23979e-07
2.10501e-07
1.94512e-07
1.8117e-07
1.75554e-07
1.75574e-07
1.81102e-07
1.94504e-07
2.10467e-07
2.2392e-07
2.23952e-07
2.10455e-07
1.94487e-07
1.81105e-07
1.75571e-07
1.75578e-07
1.81107e-07
1.9451e-07
2.10464e-07
2.23901e-07
2.29871e-07
2.16773e-07
2.0107e-07
1.87427e-07
1.81253e-07
1.81259e-07
1.87431e-07
2.01061e-07
2.16758e-07
2.29823e-07
2.42567e-07
2.29951e-07
2.16736e-07
2.01332e-07
1.94582e-07
1.94586e-07
2.01336e-07
2.16727e-07
2.29911e-07
2.42506e-07
2.53646e-07
2.44819e-07
2.31753e-07
2.17138e-07
2.10529e-07
2.10519e-07
2.17119e-07
2.31722e-07
2.44758e-07
2.53568e-07
2.68304e-07
2.54486e-07
2.43013e-07
2.29953e-07
2.23938e-07
2.2391e-07
2.29904e-07
2.42947e-07
2.54378e-07
2.68207e-07
2.54289e-07
2.43419e-07
2.3512e-07
2.25008e-07
2.19563e-07
2.19398e-07
2.2484e-07
2.35605e-07
2.4431e-07
2.5409e-07
2.44332e-07
2.38791e-07
2.26757e-07
2.15223e-07
2.09219e-07
2.09177e-07
2.15463e-07
2.28607e-07
2.3895e-07
2.43544e-07
2.35657e-07
2.28661e-07
2.1529e-07
2.008e-07
1.94535e-07
1.94612e-07
2.01084e-07
2.15253e-07
2.26822e-07
2.35246e-07
2.24982e-07
2.15581e-07
2.01083e-07
1.88017e-07
1.81932e-07
1.82091e-07
1.88086e-07
2.00817e-07
2.15189e-07
2.24921e-07
2.1946e-07
2.09193e-07
1.94545e-07
1.82018e-07
1.76716e-07
1.76736e-07
1.81952e-07
1.94566e-07
2.09209e-07
2.19462e-07
2.19406e-07
2.09118e-07
1.9451e-07
1.81934e-07
1.76718e-07
1.76735e-07
1.81956e-07
1.94572e-07
2.09202e-07
2.19444e-07
2.24806e-07
2.15096e-07
2.00792e-07
1.8807e-07
1.82095e-07
1.82108e-07
1.88107e-07
2.00837e-07
2.15166e-07
2.24847e-07
2.35144e-07
2.26733e-07
2.15241e-07
2.01093e-07
1.9463e-07
1.94638e-07
2.01124e-07
2.15284e-07
2.2679e-07
2.35163e-07
2.43473e-07
2.38849e-07
2.2862e-07
2.15548e-07
2.09246e-07
2.09238e-07
2.15549e-07
2.2865e-07
2.38913e-07
2.43457e-07
2.54137e-07
2.44295e-07
2.35664e-07
2.24974e-07
2.19463e-07
2.19419e-07
2.24914e-07
2.35614e-07
2.44263e-07
2.54019e-07
2.41061e-07
2.30587e-07
2.24781e-07
2.16556e-07
2.11519e-07
2.11303e-07
2.16203e-07
2.2502e-07
2.31249e-07
2.40911e-07
2.31415e-07
2.29669e-07
2.19991e-07
2.09679e-07
2.03976e-07
2.03899e-07
2.09784e-07
2.2158e-07
2.29515e-07
2.30491e-07
2.25269e-07
2.21842e-07
2.09952e-07
1.96558e-07
1.90535e-07
1.90589e-07
1.96778e-07
2.0979e-07
2.19803e-07
2.24647e-07
2.16487e-07
2.10009e-07
1.96835e-07
1.84635e-07
1.78721e-07
1.7886e-07
1.84665e-07
1.96519e-07
2.09508e-07
2.16282e-07
2.11424e-07
2.03965e-07
1.90559e-07
1.7881e-07
1.73739e-07
1.73748e-07
1.78716e-07
1.90548e-07
2.03934e-07
2.11353e-07
2.11308e-07
2.03863e-07
1.90511e-07
1.78714e-07
1.73733e-07
1.73745e-07
1.78721e-07
1.90554e-07
2.03925e-07
2.11326e-07
2.16124e-07
2.0942e-07
1.96508e-07
1.84667e-07
1.78866e-07
1.78877e-07
1.84693e-07
1.96542e-07
2.09487e-07
2.16185e-07
2.24465e-07
2.1972e-07
2.09808e-07
1.96824e-07
1.90628e-07
1.90629e-07
1.9684e-07
2.09844e-07
2.19782e-07
2.24528e-07
2.30307e-07
2.29433e-07
2.21645e-07
2.09928e-07
2.04004e-07
2.03982e-07
2.09905e-07
2.21655e-07
2.29496e-07
2.3036e-07
2.4077e-07
2.31157e-07
2.25069e-07
2.16361e-07
2.11377e-07
2.11331e-07
2.16294e-07
2.25044e-07
2.31194e-07
2.40777e-07
2.31842e-07
2.16968e-07
2.12908e-07
2.06194e-07
2.01634e-07
2.01418e-07
2.05785e-07
2.12997e-07
2.17531e-07
2.3176e-07
2.1782e-07
2.19033e-07
2.11272e-07
2.02026e-07
1.9669e-07
1.96619e-07
2.02105e-07
2.127e-07
2.18689e-07
2.16824e-07
2.13439e-07
2.13121e-07
2.0261e-07
1.90239e-07
1.84473e-07
1.84524e-07
1.90446e-07
2.02394e-07
2.10984e-07
2.12686e-07
2.06217e-07
2.02421e-07
1.90531e-07
1.79142e-07
1.73423e-07
1.73552e-07
1.79155e-07
1.90191e-07
2.01853e-07
2.05916e-07
2.01656e-07
1.96773e-07
1.84535e-07
1.73526e-07
1.68658e-07
1.68654e-07
1.73402e-07
1.84482e-07
1.96679e-07
2.01524e-07
2.01508e-07
1.96661e-07
1.84498e-07
1.73436e-07
1.68655e-07
1.68652e-07
1.73399e-07
1.84476e-07
1.96657e-07
2.0149e-07
2.05775e-07
2.01798e-07
1.90223e-07
1.792e-07
1.73579e-07
1.73566e-07
1.79169e-07
1.90187e-07
2.0179e-07
2.058e-07
2.12516e-07
2.10927e-07
2.02464e-07
1.90543e-07
1.84595e-07
1.8457e-07
1.90493e-07
2.0241e-07
2.10909e-07
2.12541e-07
2.16693e-07
2.18651e-07
2.12842e-07
2.02315e-07
1.96773e-07
1.96726e-07
2.0222e-07
2.12757e-07
2.18629e-07
2.16697e-07
2.31675e-07
2.17483e-07
2.13133e-07
2.06024e-07
2.01566e-07
2.01504e-07
2.05911e-07
2.13056e-07
2.17499e-07
2.31694e-07
2.3031e-07
2.04996e-07
2.01151e-07
1.95471e-07
1.91329e-07
1.91105e-07
1.94973e-07
2.01019e-07
2.05252e-07
2.30168e-07
2.05818e-07
2.08184e-07
2.01922e-07
1.93615e-07
1.8864e-07
1.88575e-07
1.93663e-07
2.03156e-07
2.07566e-07
2.04636e-07
2.01728e-07
2.03734e-07
1.945e-07
1.83077e-07
1.77571e-07
1.77624e-07
1.8328e-07
1.94238e-07
2.01494e-07
2.00769e-07
1.9557e-07
1.94048e-07
1.83388e-07
1.72763e-07
1.67258e-07
1.67377e-07
1.72765e-07
1.83035e-07
1.93412e-07
1.95127e-07
1.91409e-07
1.88778e-07
1.77679e-07
1.67379e-07
1.62705e-07
1.62692e-07
1.67229e-07
1.77592e-07
1.88641e-07
1.91208e-07
1.91212e-07
1.88656e-07
1.77643e-07
1.67294e-07
1.62704e-07
1.62686e-07
1.67222e-07
1.77581e-07
1.88615e-07
1.91161e-07
1.9496e-07
1.93375e-07
1.83092e-07
1.72832e-07
1.67414e-07
1.67388e-07
1.72767e-07
1.83017e-07
1.93345e-07
1.94976e-07
2.00537e-07
2.01452e-07
1.9433e-07
1.83399e-07
1.77712e-07
1.77675e-07
1.83319e-07
1.9425e-07
2.01416e-07
2.0056e-07
2.04409e-07
2.07567e-07
2.03337e-07
1.93896e-07
1.88748e-07
1.88693e-07
1.93782e-07
2.03223e-07
2.07518e-07
2.0443e-07
2.29994e-07
2.05271e-07
2.01216e-07
1.95237e-07
1.91252e-07
1.9119e-07
1.95105e-07
2.01099e-07
2.05229e-07
2.30011e-07
2.34991e-07
1.95721e-07
1.90232e-07
1.85139e-07
1.81409e-07
1.81221e-07
1.84696e-07
1.90046e-07
1.95891e-07
2.34839e-07
1.966e-07
1.97856e-07
1.92769e-07
1.85346e-07
1.80768e-07
1.80739e-07
1.8546e-07
1.93954e-07
1.97151e-07
1.95356e-07
1.90874e-07
1.94564e-07
1.86559e-07
1.76038e-07
1.70817e-07
1.70885e-07
1.76276e-07
1.86326e-07
1.92353e-07
1.8987e-07
1.85311e-07
1.8581e-07
1.76346e-07
1.6645e-07
1.61183e-07
1.61301e-07
1.66462e-07
1.76019e-07
1.85199e-07
1.8487e-07
1.81519e-07
1.80918e-07
1.7092e-07
1.613e-07
1.56828e-07
1.56808e-07
1.61142e-07
1.70832e-07
1.80798e-07
1.81356e-07
1.8132e-07
1.80798e-07
1.7089e-07
1.61219e-07
1.56825e-07
1.568e-07
1.6113e-07
1.70818e-07
1.80774e-07
1.81314e-07
1.84676e-07
1.85142e-07
1.76069e-07
1.6653e-07
1.61336e-07
1.61301e-07
1.66451e-07
1.75994e-07
1.85132e-07
1.84732e-07
1.89612e-07
1.92284e-07
1.86401e-07
1.76382e-07
1.70965e-07
1.70924e-07
1.76299e-07
1.86324e-07
1.92272e-07
1.89668e-07
1.95143e-07
1.97146e-07
1.94129e-07
1.85674e-07
1.80909e-07
1.80861e-07
1.8557e-07
1.94032e-07
1.97127e-07
1.95177e-07
2.34744e-07
1.95979e-07
1.90302e-07
1.84977e-07
1.814e-07
1.81346e-07
1.84861e-07
1.90194e-07
1.9595e-07
2.34745e-07
2.35066e-07
1.90856e-07
1.80935e-07
1.75708e-07
1.72227e-07
1.72075e-07
1.7532e-07
1.80721e-07
1.90875e-07
2.34773e-07
1.91771e-07
1.88305e-07
1.83979e-07
1.77375e-07
1.73186e-07
1.73196e-07
1.7757e-07
1.85165e-07
1.87565e-07
1.90392e-07
1.81612e-07
1.85719e-07
1.78876e-07
1.69216e-07
1.64285e-07
1.64366e-07
1.69492e-07
1.78697e-07
1.8358e-07
1.80538e-07
1.759e-07
1.77838e-07
1.69523e-07
1.60327e-07
1.55299e-07
1.55411e-07
1.60339e-07
1.69221e-07
1.77254e-07
1.75437e-07
1.72317e-07
1.73325e-07
1.64391e-07
1.55416e-07
1.51137e-07
1.51109e-07
1.55244e-07
1.64295e-07
1.73217e-07
1.72161e-07
1.7213e-07
1.73225e-07
1.64362e-07
1.55332e-07
1.51127e-07
1.51094e-07
1.55231e-07
1.64286e-07
1.73205e-07
1.72131e-07
1.75258e-07
1.77219e-07
1.69272e-07
1.60401e-07
1.55434e-07
1.554e-07
1.60323e-07
1.69203e-07
1.77221e-07
1.75323e-07
1.80276e-07
1.83533e-07
1.7876e-07
1.69574e-07
1.64431e-07
1.64396e-07
1.69504e-07
1.78704e-07
1.83535e-07
1.80347e-07
1.90136e-07
1.87584e-07
1.85316e-07
1.77737e-07
1.73339e-07
1.73302e-07
1.7766e-07
1.85242e-07
1.87572e-07
1.90198e-07
2.34634e-07
1.91006e-07
1.80969e-07
1.75549e-07
1.7221e-07
1.72177e-07
1.75468e-07
1.80886e-07
1.90974e-07
2.34654e-07
1.93536e-07
1.9074e-07
1.7367e-07
1.67418e-07
1.64e-07
1.63924e-07
1.67216e-07
1.73621e-07
1.90904e-07
1.93474e-07
1.91711e-07
1.79957e-07
1.75818e-07
1.69944e-07
1.66137e-07
1.66192e-07
1.70247e-07
1.77064e-07
1.79295e-07
1.90391e-07
1.7436e-07
1.77513e-07
1.71746e-07
1.62901e-07
1.58264e-07
1.58353e-07
1.63202e-07
1.71614e-07
1.75482e-07
1.73366e-07
1.67624e-07
1.70403e-07
1.63194e-07
1.54668e-07
1.49878e-07
1.49979e-07
1.54662e-07
1.62892e-07
1.69853e-07
1.67226e-07
1.64086e-07
1.66259e-07
1.58345e-07
1.49982e-07
1.45893e-07
1.45853e-07
1.49784e-07
1.58224e-07
1.66147e-07
1.63967e-07
1.63959e-07
1.66181e-07
1.58314e-07
1.49885e-07
1.45868e-07
1.4583e-07
1.49765e-07
1.58214e-07
1.66146e-07
1.63961e-07
1.67132e-07
1.69855e-07
1.62949e-07
1.54712e-07
1.49976e-07
1.49937e-07
1.54626e-07
1.62871e-07
1.69839e-07
1.67176e-07
1.73194e-07
1.75459e-07
1.71658e-07
1.6324e-07
1.58369e-07
1.58336e-07
1.63171e-07
1.71594e-07
1.75445e-07
1.7324e-07
1.90222e-07
1.79316e-07
1.77165e-07
1.70336e-07
1.66277e-07
1.66247e-07
1.70268e-07
1.77093e-07
1.7929e-07
1.90253e-07
1.93432e-07
1.91039e-07
1.73817e-07
1.67358e-07
1.64021e-07
1.63999e-07
1.67301e-07
1.73747e-07
1.91012e-07
1.93439e-07
1.02002e-07
1.94167e-07
1.69291e-07
1.60732e-07
1.56966e-07
1.56934e-07
1.60623e-07
1.69303e-07
1.94299e-07
1.01783e-07
1.95118e-07
1.73201e-07
1.68313e-07
1.62981e-07
1.59489e-07
1.59567e-07
1.63331e-07
1.69558e-07
1.7254e-07
1.9373e-07
1.69921e-07
1.69917e-07
1.65027e-07
1.56925e-07
1.52558e-07
1.52645e-07
1.5722e-07
1.64904e-07
1.67949e-07
1.68917e-07
1.60884e-07
1.63397e-07
1.57205e-07
1.49309e-07
1.44744e-07
1.44827e-07
1.49272e-07
1.56881e-07
1.62846e-07
1.6049e-07
1.57008e-07
1.59576e-07
1.52627e-07
1.44841e-07
1.40934e-07
1.40884e-07
1.4462e-07
1.52477e-07
1.5945e-07
1.56889e-07
1.56924e-07
1.59516e-07
1.52585e-07
1.44729e-07
1.40898e-07
1.40856e-07
1.44603e-07
1.52476e-07
1.59465e-07
1.56904e-07
1.60479e-07
1.62897e-07
1.56947e-07
1.4931e-07
1.44806e-07
1.44773e-07
1.49234e-07
1.56873e-07
1.62873e-07
1.60494e-07
1.68817e-07
1.67971e-07
1.64932e-07
1.57221e-07
1.52625e-07
1.526e-07
1.57168e-07
1.64882e-07
1.67948e-07
1.68837e-07
1.9357e-07
1.72571e-07
1.696e-07
1.63342e-07
1.59595e-07
1.59574e-07
1.63296e-07
1.69541e-07
1.72535e-07
1.9359e-07
1.01676e-07
1.94415e-07
1.69407e-07
1.60653e-07
1.56953e-07
1.56944e-07
1.60615e-07
1.69343e-07
1.9436e-07
1.01704e-07
4.86016e-07
1.92058e-07
1.67808e-07
1.55825e-07
1.51296e-07
1.51327e-07
1.55882e-07
1.68007e-07
1.9238e-07
4.83828e-07
1.92979e-07
1.68291e-07
1.61527e-07
1.56489e-07
1.53277e-07
1.53389e-07
1.56928e-07
1.62847e-07
1.67762e-07
1.91757e-07
1.68383e-07
1.63072e-07
1.58764e-07
1.51345e-07
1.47248e-07
1.4734e-07
1.51657e-07
1.58686e-07
1.61232e-07
1.67492e-07
1.55947e-07
1.56895e-07
1.51617e-07
1.4432e-07
1.39981e-07
1.40058e-07
1.44275e-07
1.51301e-07
1.56394e-07
1.55649e-07
1.5133e-07
1.53357e-07
1.47306e-07
1.40072e-07
1.36353e-07
1.36302e-07
1.39851e-07
1.47157e-07
1.53254e-07
1.51272e-07
1.51299e-07
1.53309e-07
1.4726e-07
1.39956e-07
1.36317e-07
1.3628e-07
1.39841e-07
1.47163e-07
1.53279e-07
1.51307e-07
1.55693e-07
1.5645e-07
1.51358e-07
1.44306e-07
1.4004e-07
1.40014e-07
1.44251e-07
1.51308e-07
1.56446e-07
1.55715e-07
1.67479e-07
1.61254e-07
1.58684e-07
1.51631e-07
1.47313e-07
1.47298e-07
1.51604e-07
1.58662e-07
1.61258e-07
1.67496e-07
1.91676e-07
1.67762e-07
1.62818e-07
1.56878e-07
1.534e-07
1.53394e-07
1.56865e-07
1.62801e-07
1.67763e-07
1.91693e-07
4.83747e-07
1.92451e-07
1.6802e-07
1.55834e-07
1.51341e-07
1.51343e-07
1.55826e-07
1.67987e-07
1.92419e-07
4.83781e-07
4.764e-06
1.64995e-07
1.6849e-07
1.53072e-07
1.47312e-07
1.4737e-07
1.53197e-07
1.68762e-07
1.65239e-07
4.74929e-06
1.65755e-07
1.65363e-07
1.55649e-07
1.50485e-07
1.47446e-07
1.47567e-07
1.50939e-07
1.56955e-07
1.6484e-07
1.64684e-07
1.69033e-07
1.57142e-07
1.52893e-07
1.46058e-07
1.42199e-07
1.42286e-07
1.46353e-07
1.52802e-07
1.55334e-07
1.68122e-07
1.53187e-07
1.50898e-07
1.46341e-07
1.39591e-07
1.35457e-07
1.35522e-07
1.39521e-07
1.45997e-07
1.50372e-07
1.52873e-07
1.47345e-07
1.47544e-07
1.42281e-07
1.35559e-07
1.32014e-07
1.31961e-07
1.35328e-07
1.42108e-07
1.47413e-07
1.4727e-07
1.47318e-07
1.47487e-07
1.42218e-07
1.35438e-07
1.31984e-07
1.31949e-07
1.35328e-07
1.42119e-07
1.47439e-07
1.47307e-07
1.52943e-07
1.50442e-07
1.46052e-07
1.39557e-07
1.35522e-07
1.35504e-07
1.39517e-07
1.46013e-07
1.50434e-07
1.52956e-07
1.68137e-07
1.55359e-07
1.5278e-07
1.46317e-07
1.4227e-07
1.42264e-07
1.46311e-07
1.52781e-07
1.55373e-07
1.68158e-07
1.64594e-07
1.6481e-07
1.56863e-07
1.50847e-07
1.47566e-07
1.4757e-07
1.50863e-07
1.56881e-07
1.64834e-07
1.64639e-07
4.74867e-06
1.65225e-07
1.68646e-07
1.53057e-07
1.4734e-07
1.47359e-07
1.53092e-07
1.68676e-07
1.65231e-07
4.74898e-06
2.58352e-05
1.09498e-07
1.67065e-07
1.51996e-07
1.44956e-07
1.45029e-07
1.52161e-07
1.67347e-07
1.0966e-07
2.5775e-05
1.09994e-07
1.63301e-07
1.5091e-07
1.45076e-07
1.42095e-07
1.4221e-07
1.45506e-07
1.5215e-07
1.62736e-07
1.09271e-07
1.67593e-07
1.5239e-07
1.47508e-07
1.41157e-07
1.3751e-07
1.3758e-07
1.41399e-07
1.47349e-07
1.50554e-07
1.66672e-07
1.52165e-07
1.4553e-07
1.41457e-07
1.35206e-07
1.31263e-07
1.31312e-07
1.35091e-07
1.41044e-07
1.44938e-07
1.51811e-07
1.45053e-07
1.42249e-07
1.37629e-07
1.31385e-07
1.28007e-07
1.27943e-07
1.31123e-07
1.37395e-07
1.42042e-07
1.44927e-07
1.45028e-07
1.4218e-07
1.37556e-07
1.31266e-07
1.27988e-07
1.27945e-07
1.31129e-07
1.37404e-07
1.42059e-07
1.44957e-07
1.51947e-07
1.45064e-07
1.41143e-07
1.35171e-07
1.3135e-07
1.31323e-07
1.35102e-07
1.41055e-07
1.4498e-07
1.5189e-07
1.66785e-07
1.50641e-07
1.4737e-07
1.41404e-07
1.37601e-07
1.37586e-07
1.41368e-07
1.47318e-07
1.50576e-07
1.66724e-07
1.09336e-07
1.62771e-07
1.52097e-07
1.45448e-07
1.42236e-07
1.4223e-07
1.45432e-07
1.52062e-07
1.62716e-07
1.09282e-07
2.57737e-05
1.09659e-07
1.67223e-07
1.52031e-07
1.45026e-07
1.45042e-07
1.52057e-07
1.6725e-07
1.09641e-07
2.57741e-05
9.48904e-05
2.28936e-07
1.53629e-07
1.50716e-07
1.43521e-07
1.43579e-07
1.5084e-07
1.53773e-07
2.2931e-07
9.47212e-05
2.29526e-07
1.58591e-07
1.47326e-07
1.40203e-07
1.37136e-07
1.37244e-07
1.4062e-07
1.48528e-07
1.58042e-07
2.28286e-07
1.5406e-07
1.48784e-07
1.42444e-07
1.36448e-07
1.33e-07
1.33061e-07
1.36664e-07
1.42258e-07
1.46965e-07
1.53205e-07
1.50902e-07
1.40687e-07
1.36773e-07
1.30985e-07
1.27228e-07
1.27268e-07
1.30847e-07
1.36333e-07
1.40081e-07
1.5053e-07
1.43643e-07
1.37329e-07
1.33169e-07
1.27379e-07
1.24165e-07
1.24098e-07
1.27104e-07
1.32909e-07
1.37102e-07
1.43502e-07
1.43619e-07
1.37265e-07
1.33098e-07
1.27276e-07
1.24167e-07
1.24118e-07
1.27123e-07
1.32922e-07
1.37116e-07
1.43521e-07
1.50701e-07
1.40252e-07
1.36485e-07
1.30982e-07
1.27364e-07
1.27329e-07
1.30891e-07
1.36359e-07
1.40126e-07
1.50595e-07
1.53417e-07
1.47142e-07
1.42355e-07
1.36744e-07
1.33151e-07
1.33127e-07
1.36679e-07
1.42257e-07
1.4701e-07
1.53258e-07
2.28201e-07
1.58215e-07
1.48571e-07
1.40642e-07
1.37333e-07
1.37316e-07
1.40594e-07
1.48479e-07
1.58065e-07
2.28368e-07
9.47212e-05
2.29002e-07
1.53808e-07
1.50814e-07
1.43635e-07
1.43632e-07
1.50785e-07
1.53742e-07
2.29247e-07
9.47203e-05
0.000261053
1.62968e-06
1.19333e-07
1.44265e-07
1.40706e-07
1.40796e-07
1.44492e-07
1.19575e-07
1.6323e-06
0.000260701
1.63312e-06
1.4465e-07
1.44779e-07
1.36013e-07
1.32715e-07
1.32848e-07
1.36514e-07
1.4611e-07
1.44376e-07
1.62564e-06
1.19582e-07
1.46239e-07
1.37837e-07
1.3202e-07
1.28768e-07
1.28848e-07
1.32286e-07
1.37738e-07
1.44575e-07
1.19147e-07
1.4444e-07
1.36501e-07
1.32338e-07
1.26972e-07
1.23424e-07
1.2348e-07
1.26884e-07
1.31974e-07
1.36004e-07
1.44238e-07
1.40806e-07
1.32879e-07
1.28916e-07
1.23565e-07
1.20536e-07
1.20487e-07
1.23343e-07
1.28727e-07
1.32745e-07
1.40788e-07
1.4081e-07
1.3282e-07
1.28849e-07
1.23474e-07
1.20552e-07
1.20521e-07
1.2337e-07
1.28746e-07
1.32766e-07
1.40817e-07
1.44358e-07
1.36104e-07
1.32075e-07
1.26999e-07
1.23594e-07
1.23573e-07
1.26953e-07
1.32025e-07
1.36076e-07
1.44346e-07
1.1934e-07
1.44718e-07
1.37811e-07
1.32361e-07
1.2896e-07
1.2895e-07
1.32344e-07
1.37786e-07
1.44686e-07
1.19292e-07
1.62467e-06
1.44525e-07
1.46147e-07
1.3654e-07
1.3296e-07
1.32961e-07
1.36542e-07
1.46139e-07
1.44504e-07
1.62543e-06
0.0002607
1.62993e-06
1.19635e-07
1.44522e-07
1.40909e-07
1.40907e-07
1.44509e-07
1.19616e-07
1.63091e-06
0.000260696
0.000573857
8.24949e-06
1.10216e-07
1.2587e-07
1.31684e-07
1.31788e-07
1.26126e-07
1.10505e-07
8.25839e-06
0.000573314
8.2657e-06
1.17887e-07
1.42603e-07
1.32517e-07
1.2879e-07
1.2894e-07
1.3307e-07
1.44035e-07
1.17857e-07
8.2304e-06
1.10205e-07
1.44021e-07
1.33741e-07
1.27789e-07
1.24674e-07
1.24771e-07
1.28107e-07
1.33737e-07
1.42514e-07
1.09837e-07
1.25893e-07
1.32944e-07
1.28075e-07
1.23045e-07
1.19694e-07
1.19769e-07
1.23017e-07
1.27802e-07
1.32556e-07
1.25863e-07
1.31661e-07
1.28857e-07
1.24757e-07
1.198e-07
1.1695e-07
1.16924e-07
1.19643e-07
1.24655e-07
1.28823e-07
1.31756e-07
1.31669e-07
1.28781e-07
1.24671e-07
1.19697e-07
1.16956e-07
1.16948e-07
1.19659e-07
1.24664e-07
1.28836e-07
1.31784e-07
1.25852e-07
1.32507e-07
1.27769e-07
1.23032e-07
1.1983e-07
1.19834e-07
1.23057e-07
1.27826e-07
1.32604e-07
1.25963e-07
1.09887e-07
1.42479e-07
1.33667e-07
1.28069e-07
1.24811e-07
1.24827e-07
1.28125e-07
1.33756e-07
1.42593e-07
1.10021e-07
8.2304e-06
1.17778e-07
1.43909e-07
1.32971e-07
1.28957e-07
1.28983e-07
1.33047e-07
1.44018e-07
1.17901e-07
8.2299e-06
0.000573299
8.25247e-06
1.10258e-07
1.26007e-07
1.31789e-07
1.31811e-07
1.26063e-07
1.10213e-07
8.25261e-06
0.000573303
0.00105974
2.99654e-05
4.2726e-07
1.0048e-07
1.11955e-07
1.1207e-07
1.00723e-07
4.28135e-07
2.99872e-05
0.00105908
3.00149e-05
1.00177e-07
1.38985e-07
1.29557e-07
1.2538e-07
1.25532e-07
1.30116e-07
1.40415e-07
1.00214e-07
2.99077e-05
4.27908e-07
1.40329e-07
1.30392e-07
1.23888e-07
1.20826e-07
1.20927e-07
1.24214e-07
1.30419e-07
1.38937e-07
4.25462e-07
1.00338e-07
1.29937e-07
1.24146e-07
1.19337e-07
1.16166e-07
1.16247e-07
1.19328e-07
1.23901e-07
1.29588e-07
1.00355e-07
1.1186e-07
1.25394e-07
1.20864e-07
1.16245e-07
1.13561e-07
1.13545e-07
1.16112e-07