/*--------------------------------*- C++ -*----------------------------------*\
| =========                 |                                                 |
| \\      /  F ield         | OpenFOAM: The Open Source CFD Toolbox           |
|  \\    /   O peration     | Version:  2406                                  |
|   \\  /    A nd           | Website:  www.openfoam.com                      |
|    \\/     M anipulation  |                                                 |
\*---------------------------------------------------------------------------*/
FoamFile
{
    version     2.0;
    format      ascii;
    arch        "LSB;label=32;scalar=64";
    class       volScalarField;
    location    "250";
    object      turbulenceProperties:nut;
}
// * * * * * * * * * * * * * * * * * * * * * * * * * * * * * * * * * * * * * //

dimensions      [0 2 -1 0 0 0 0];

internalField   nonuniform List<scalar> 
25000
(
5.88716e-06
5.92848e-06
5.95434e-06
5.96719e-06
5.97281e-06
5.97281e-06
5.96719e-06
5.9545e-06
5.93058e-06
5.88722e-06
5.93056e-06
5.96745e-06
5.98831e-06
5.99986e-06
6.00547e-06
6.00547e-06
5.99998e-06
5.99343e-06
5.96747e-06
5.92852e-06
5.95449e-06
5.99342e-06
6.01089e-06
6.01854e-06
6.02379e-06
6.02381e-06
6.01921e-06
6.0109e-06
5.98831e-06
5.95436e-06
5.96718e-06
5.99998e-06
6.01921e-06
6.02999e-06
6.03448e-06
6.03491e-06
6.02999e-06
6.01854e-06
5.99987e-06
5.9672e-06
5.97281e-06
6.00547e-06
6.02381e-06
6.03491e-06
6.04156e-06
6.04156e-06
6.03448e-06
6.02379e-06
6.00548e-06
5.97282e-06
5.97281e-06
6.00547e-06
6.02379e-06
6.03448e-06
6.04156e-06
6.04156e-06
6.03448e-06
6.02379e-06
6.00548e-06
5.97282e-06
5.96719e-06
5.99987e-06
6.01854e-06
6.02999e-06
6.03492e-06
6.03492e-06
6.02999e-06
6.01854e-06
5.99987e-06
5.9672e-06
5.95436e-06
5.98831e-06
6.0109e-06
6.01921e-06
6.02381e-06
6.02381e-06
6.01921e-06
6.0109e-06
5.98831e-06
5.95436e-06
5.92851e-06
5.96747e-06
5.99343e-06
5.99998e-06
6.00547e-06
6.00547e-06
5.99998e-06
5.99343e-06
5.96747e-06
5.92851e-06
5.88721e-06
5.93058e-06
5.9545e-06
5.96719e-06
5.97282e-06
5.97282e-06
5.96719e-06
5.9545e-06
5.93058e-06
5.88722e-06
5.52553e-06
5.65223e-06
5.72858e-06
5.7675e-06
5.78451e-06
5.78451e-06
5.7675e-06
5.72937e-06
5.65736e-06
5.52554e-06
5.65734e-06
5.7689e-06
5.83103e-06
5.86533e-06
5.88189e-06
5.8819e-06
5.86611e-06
5.84425e-06
5.76893e-06
5.65226e-06
5.72936e-06
5.84423e-06
5.89747e-06
5.92125e-06
5.93659e-06
5.93671e-06
5.9231e-06
5.89748e-06
5.83105e-06
5.7286e-06
5.7675e-06
5.8661e-06
5.92309e-06
5.95498e-06
5.96864e-06
5.96977e-06
5.95498e-06
5.92126e-06
5.86534e-06
5.76752e-06
5.78451e-06
5.8819e-06
5.93671e-06
5.96976e-06
5.98926e-06
5.98926e-06
5.9686e-06
5.9366e-06
5.8819e-06
5.78452e-06
5.78451e-06
5.88189e-06
5.9366e-06
5.96864e-06
5.98927e-06
5.98927e-06
5.9686e-06
5.9366e-06
5.8819e-06
5.78452e-06
5.76751e-06
5.86534e-06
5.92126e-06
5.95498e-06
5.96981e-06
5.96981e-06
5.95499e-06
5.92126e-06
5.86534e-06
5.76752e-06
5.72859e-06
5.83104e-06
5.89748e-06
5.9231e-06
5.93672e-06
5.93672e-06
5.9231e-06
5.89748e-06
5.83105e-06
5.7286e-06
5.65226e-06
5.76893e-06
5.84425e-06
5.86611e-06
5.8819e-06
5.88191e-06
5.86611e-06
5.84425e-06
5.76893e-06
5.65226e-06
5.52554e-06
5.65736e-06
5.72937e-06
5.76751e-06
5.78452e-06
5.78452e-06
5.76751e-06
5.72938e-06
5.65736e-06
5.52555e-06
5.17398e-06
5.3831e-06
5.50733e-06
5.57182e-06
5.60003e-06
5.60003e-06
5.57187e-06
5.509e-06
5.39035e-06
5.174e-06
5.39033e-06
5.5746e-06
5.67677e-06
5.73307e-06
5.76015e-06
5.7602e-06
5.73474e-06
5.69614e-06
5.57463e-06
5.38314e-06
5.50898e-06
5.69612e-06
5.78504e-06
5.82552e-06
5.85046e-06
5.85071e-06
5.82835e-06
5.78506e-06
5.67679e-06
5.50737e-06
5.57186e-06
5.73473e-06
5.82834e-06
5.88068e-06
5.90355e-06
5.90522e-06
5.88069e-06
5.82553e-06
5.73308e-06
5.57184e-06
5.60002e-06
5.76019e-06
5.85071e-06
5.90522e-06
5.93697e-06
5.93697e-06
5.90346e-06
5.85045e-06
5.76016e-06
5.60005e-06
5.60003e-06
5.76015e-06
5.85046e-06
5.90356e-06
5.93698e-06
5.93698e-06
5.90347e-06
5.85045e-06
5.76016e-06
5.60005e-06
5.57183e-06
5.73308e-06
5.82553e-06
5.88069e-06
5.90533e-06
5.90533e-06
5.88069e-06
5.82553e-06
5.73308e-06
5.57184e-06
5.50735e-06
5.67679e-06
5.78506e-06
5.82836e-06
5.85073e-06
5.85073e-06
5.82836e-06
5.78506e-06
5.67679e-06
5.50737e-06
5.38312e-06
5.57463e-06
5.69614e-06
5.73475e-06
5.76021e-06
5.76021e-06
5.73475e-06
5.69615e-06
5.57463e-06
5.38314e-06
5.17399e-06
5.39035e-06
5.509e-06
5.57187e-06
5.60004e-06
5.60004e-06
5.57188e-06
5.50901e-06
5.39036e-06
5.174e-06
4.83941e-06
5.1232e-06
5.29211e-06
5.3811e-06
5.42011e-06
5.42011e-06
5.38125e-06
5.29474e-06
5.13197e-06
4.83942e-06
5.13194e-06
5.38525e-06
5.52586e-06
5.60331e-06
5.64045e-06
5.64058e-06
5.60597e-06
5.54994e-06
5.38529e-06
5.12324e-06
5.29472e-06
5.54991e-06
5.67388e-06
5.73131e-06
5.76542e-06
5.76584e-06
5.73499e-06
5.6739e-06
5.52589e-06
5.29216e-06
5.38125e-06
5.60596e-06
5.73498e-06
5.80712e-06
5.83913e-06
5.84123e-06
5.80713e-06
5.73133e-06
5.60334e-06
5.38114e-06
5.42012e-06
5.64058e-06
5.76584e-06
5.84123e-06
5.88465e-06
5.88465e-06
5.83898e-06
5.7654e-06
5.64047e-06
5.42014e-06
5.42012e-06
5.64046e-06
5.76543e-06
5.83914e-06
5.88466e-06
5.88466e-06
5.83898e-06
5.7654e-06
5.64047e-06
5.42015e-06
5.38112e-06
5.60333e-06
5.73133e-06
5.80714e-06
5.8414e-06
5.8414e-06
5.80714e-06
5.73133e-06
5.60334e-06
5.38114e-06
5.29214e-06
5.52589e-06
5.6739e-06
5.735e-06
5.76589e-06
5.76589e-06
5.735e-06
5.67391e-06
5.5259e-06
5.29216e-06
5.12323e-06
5.38529e-06
5.54995e-06
5.60599e-06
5.6406e-06
5.6406e-06
5.60599e-06
5.54995e-06
5.3853e-06
5.12325e-06
4.83942e-06
5.13198e-06
5.29475e-06
5.38127e-06
5.42014e-06
5.42014e-06
5.38127e-06
5.29475e-06
5.13198e-06
4.83943e-06
4.5255e-06
4.87379e-06
5.08381e-06
5.19592e-06
5.24521e-06
5.24522e-06
5.19623e-06
5.08741e-06
4.88367e-06
4.52556e-06
4.88365e-06
5.20111e-06
5.37835e-06
5.47608e-06
5.52283e-06
5.52308e-06
5.47974e-06
5.40606e-06
5.20117e-06
4.87386e-06
5.0874e-06
5.40603e-06
5.56404e-06
5.63849e-06
5.6814e-06
5.68201e-06
5.64289e-06
5.56407e-06
5.3784e-06
5.08389e-06
5.19624e-06
5.47973e-06
5.64288e-06
5.73422e-06
5.77525e-06
5.77768e-06
5.73423e-06
5.63851e-06
5.47612e-06
5.19599e-06
5.24525e-06
5.52308e-06
5.68201e-06
5.77768e-06
5.83224e-06
5.83224e-06
5.77503e-06
5.68137e-06
5.52285e-06
5.24527e-06
5.24524e-06
5.52285e-06
5.68142e-06
5.77526e-06
5.83227e-06
5.83226e-06
5.77503e-06
5.68137e-06
5.52285e-06
5.24527e-06
5.19597e-06
5.47611e-06
5.63851e-06
5.73426e-06
5.77793e-06
5.77793e-06
5.73425e-06
5.63852e-06
5.47612e-06
5.19599e-06
5.08387e-06
5.3784e-06
5.56407e-06
5.64291e-06
5.68209e-06
5.68209e-06
5.64291e-06
5.56408e-06
5.3784e-06
5.08389e-06
4.87385e-06
5.20117e-06
5.40607e-06
5.47976e-06
5.52312e-06
5.52312e-06
5.47976e-06
5.40608e-06
5.20118e-06
4.87387e-06
4.52556e-06
4.88369e-06
5.08744e-06
5.19627e-06
5.24527e-06
5.24527e-06
5.19627e-06
5.08744e-06
4.8837e-06
4.52558e-06
4.23178e-06
4.63473e-06
4.88234e-06
5.01618e-06
5.07523e-06
5.07527e-06
5.01668e-06
4.88688e-06
4.64542e-06
4.23189e-06
4.64539e-06
5.02192e-06
5.23401e-06
5.35123e-06
5.40719e-06
5.40758e-06
5.35584e-06
5.26451e-06
5.02199e-06
4.63483e-06
4.88687e-06
5.26447e-06
5.45545e-06
5.54688e-06
5.59831e-06
5.5991e-06
5.55191e-06
5.45549e-06
5.23407e-06
4.88244e-06
5.0167e-06
5.35583e-06
5.55189e-06
5.6619e-06
5.71178e-06
5.71448e-06
5.66189e-06
5.5469e-06
5.35128e-06
5.01626e-06
5.0753e-06
5.40758e-06
5.5991e-06
5.71448e-06
5.77971e-06
5.7797e-06
5.71149e-06
5.59824e-06
5.4072e-06
5.0753e-06
5.07528e-06
5.40722e-06
5.59832e-06
5.7118e-06
5.77975e-06
5.77973e-06
5.7115e-06
5.59825e-06
5.40721e-06
5.0753e-06
5.01624e-06
5.35127e-06
5.54691e-06
5.66194e-06
5.71481e-06
5.71481e-06
5.66193e-06
5.54691e-06
5.35128e-06
5.01626e-06
4.88242e-06
5.23406e-06
5.4555e-06
5.55193e-06
5.59921e-06
5.59921e-06
5.55193e-06
5.4555e-06
5.23407e-06
4.88244e-06
4.63482e-06
5.02199e-06
5.26452e-06
5.35586e-06
5.40763e-06
5.40763e-06
5.35586e-06
5.26452e-06
5.022e-06
4.63483e-06
4.2319e-06
4.64544e-06
4.88692e-06
5.01673e-06
5.07532e-06
5.07532e-06
5.01673e-06
4.88692e-06
4.64545e-06
4.23191e-06
3.95578e-06
4.405e-06
4.68677e-06
4.84101e-06
4.90938e-06
4.90944e-06
4.84173e-06
4.69214e-06
4.41618e-06
3.95587e-06
4.41617e-06
4.84699e-06
5.09232e-06
5.22838e-06
5.29321e-06
5.29374e-06
5.23388e-06
5.12489e-06
4.84704e-06
4.40507e-06
4.69214e-06
5.12486e-06
5.34789e-06
5.45625e-06
5.51595e-06
5.51693e-06
5.46181e-06
5.34793e-06
5.09237e-06
4.68684e-06
4.84175e-06
5.23388e-06
5.4618e-06
5.59002e-06
5.64863e-06
5.65153e-06
5.59e-06
5.45627e-06
5.22842e-06
4.84109e-06
4.90948e-06
5.29375e-06
5.51693e-06
5.65153e-06
5.72703e-06
5.72701e-06
5.64826e-06
5.51585e-06
5.2932e-06
4.90945e-06
4.90943e-06
5.29324e-06
5.51597e-06
5.64865e-06
5.72708e-06
5.72705e-06
5.64827e-06
5.51585e-06
5.2932e-06
4.90945e-06
4.84107e-06
5.22842e-06
5.45628e-06
5.59007e-06
5.65194e-06
5.65194e-06
5.59005e-06
5.45627e-06
5.22843e-06
4.84109e-06
4.68684e-06
5.09238e-06
5.34793e-06
5.46184e-06
5.51708e-06
5.51708e-06
5.46184e-06
5.34794e-06
5.09238e-06
4.68685e-06
4.40507e-06
4.84705e-06
5.12491e-06
5.23391e-06
5.29382e-06
5.29382e-06
5.23391e-06
5.12491e-06
4.84705e-06
4.40508e-06
3.95589e-06
4.41622e-06
4.69218e-06
4.84178e-06
4.90951e-06
4.90951e-06
4.84178e-06
4.69218e-06
4.41621e-06
3.95588e-06
3.69666e-06
4.18416e-06
4.49652e-06
4.66982e-06
4.74708e-06
4.74717e-06
4.67079e-06
4.50265e-06
4.19564e-06
3.69674e-06
4.19563e-06
4.67591e-06
4.95294e-06
5.10723e-06
5.18065e-06
5.18134e-06
5.11358e-06
4.98699e-06
4.67595e-06
4.18423e-06
4.50265e-06
4.98696e-06
5.2412e-06
5.36643e-06
5.43423e-06
5.43538e-06
5.37247e-06
5.24123e-06
4.95298e-06
4.49659e-06
4.67081e-06
5.11357e-06
5.37246e-06
5.51852e-06
5.58573e-06
5.58879e-06
5.51849e-06
5.36644e-06
5.10727e-06
4.66989e-06
4.74721e-06
5.18135e-06
5.43539e-06
5.58879e-06
5.67422e-06
5.67418e-06
5.58528e-06
5.43408e-06
5.18061e-06
4.74713e-06
4.74712e-06
5.18067e-06
5.43425e-06
5.58575e-06
5.67427e-06
5.67423e-06
5.58529e-06
5.43408e-06
5.18061e-06
4.74713e-06
4.66988e-06
5.10727e-06
5.36646e-06
5.51858e-06
5.58927e-06
5.58927e-06
5.51854e-06
5.36645e-06
5.10727e-06
4.66989e-06
4.49658e-06
4.95298e-06
5.24124e-06
5.3725e-06
5.43558e-06
5.43558e-06
5.3725e-06
5.24124e-06
4.95299e-06
4.49659e-06
4.18422e-06
4.67595e-06
4.987e-06
5.1136e-06
5.18144e-06
5.18144e-06
5.1136e-06
4.987e-06
4.67595e-06
4.18423e-06
3.69674e-06
4.19566e-06
4.50268e-06
4.67083e-06
4.74723e-06
4.74723e-06
4.67083e-06
4.50268e-06
4.19566e-06
3.69674e-06
3.45544e-06
3.97268e-06
4.3118e-06
4.50264e-06
4.58826e-06
4.5884e-06
4.50385e-06
4.31856e-06
3.98427e-06
3.45549e-06
3.98426e-06
4.50875e-06
4.81581e-06
4.98772e-06
5.06943e-06
5.07029e-06
4.99483e-06
4.85086e-06
4.50877e-06
3.97272e-06
4.31855e-06
4.85084e-06
5.1354e-06
5.27739e-06
5.35312e-06
5.35444e-06
5.28383e-06
5.13542e-06
4.81584e-06
4.31185e-06
4.50386e-06
4.99483e-06
5.28383e-06
5.4474e-06
5.52307e-06
5.52625e-06
5.44735e-06
5.27739e-06
4.98774e-06
4.5027e-06
4.58841e-06
5.07029e-06
5.35444e-06
5.52625e-06
5.62129e-06
5.62124e-06
5.52254e-06
5.35291e-06
5.06935e-06
4.58829e-06
4.58828e-06
5.06945e-06
5.35313e-06
5.52309e-06
5.62136e-06
5.62131e-06
5.52255e-06
5.35291e-06
5.06936e-06
4.58829e-06
4.50267e-06
4.98774e-06
5.27741e-06
5.44747e-06
5.52681e-06
5.5268e-06
5.44742e-06
5.2774e-06
4.98775e-06
4.5027e-06
4.31183e-06
4.81584e-06
5.13542e-06
5.28387e-06
5.35468e-06
5.35468e-06
5.28387e-06
5.13543e-06
4.81585e-06
4.31185e-06
3.9727e-06
4.50877e-06
4.85087e-06
4.99486e-06
5.07041e-06
5.07041e-06
4.99486e-06
4.85088e-06
4.50878e-06
3.97273e-06
3.45548e-06
3.98428e-06
4.31858e-06
4.50388e-06
4.58845e-06
4.58845e-06
4.50389e-06
4.31859e-06
3.9843e-06
3.4555e-06
3.2346e-06
3.77151e-06
4.13315e-06
4.33984e-06
4.43321e-06
4.43339e-06
4.3413e-06
4.14045e-06
3.7831e-06
3.23462e-06
3.7831e-06
4.34586e-06
4.68106e-06
4.86991e-06
4.95962e-06
4.96064e-06
4.8777e-06
4.71674e-06
4.34587e-06
3.77153e-06
4.14045e-06
4.71673e-06
5.03058e-06
5.18914e-06
5.27264e-06
5.27412e-06
5.19594e-06
5.03059e-06
4.68108e-06
4.13318e-06
4.3413e-06
4.8777e-06
5.19594e-06
5.37667e-06
5.46066e-06
5.46394e-06
5.37661e-06
5.18912e-06
4.86991e-06
4.33988e-06
4.43339e-06
4.96063e-06
5.27411e-06
5.46395e-06
5.56831e-06
5.56824e-06
5.46006e-06
5.27237e-06
4.9595e-06
4.43322e-06
4.43322e-06
4.95962e-06
5.27264e-06
5.46068e-06
5.56838e-06
5.56832e-06
5.46007e-06
5.27237e-06
4.9595e-06
4.43322e-06
4.33985e-06
4.86991e-06
5.18915e-06
5.37675e-06
5.46457e-06
5.46456e-06
5.37668e-06
5.18913e-06
4.86991e-06
4.33987e-06
4.13315e-06
4.68107e-06
5.03059e-06
5.19598e-06
5.27441e-06
5.27441e-06
5.19598e-06
5.03059e-06
4.68108e-06
4.13318e-06
3.7715e-06
4.34586e-06
4.71674e-06
4.87772e-06
4.96079e-06
4.96079e-06
4.87772e-06
4.71675e-06
4.34587e-06
3.77153e-06
3.2346e-06
3.78309e-06
4.14045e-06
4.34131e-06
4.43344e-06
4.43344e-06
4.34132e-06
4.14046e-06
3.78311e-06
3.23463e-06
3.03715e-06
3.58176e-06
3.96124e-06
4.18187e-06
4.28229e-06
4.28252e-06
4.18356e-06
3.96895e-06
3.59324e-06
3.03714e-06
3.59325e-06
4.18764e-06
4.54885e-06
4.75386e-06
4.85127e-06
4.85244e-06
4.76225e-06
4.58486e-06
4.18762e-06
3.58175e-06
3.96896e-06
4.58486e-06
4.92684e-06
5.10171e-06
5.19281e-06
5.19444e-06
5.10882e-06
4.92684e-06
4.54885e-06
3.96124e-06
4.18356e-06
4.76226e-06
5.10882e-06
5.30636e-06
5.39852e-06
5.40187e-06
5.30628e-06
5.10167e-06
4.75385e-06
4.18188e-06
4.28252e-06
4.85244e-06
5.19444e-06
5.40188e-06
5.51529e-06
5.5152e-06
5.39784e-06
5.19248e-06
4.8511e-06
4.28227e-06
4.28229e-06
4.85127e-06
5.19281e-06
5.39854e-06
5.51538e-06
5.51529e-06
5.39786e-06
5.19248e-06
4.8511e-06
4.28227e-06
4.18187e-06
4.75386e-06
5.10172e-06
5.30645e-06
5.40257e-06
5.40256e-06
5.30637e-06
5.10168e-06
4.75385e-06
4.18188e-06
3.96123e-06
4.54884e-06
4.92684e-06
5.10887e-06
5.19478e-06
5.19478e-06
5.10887e-06
4.92684e-06
4.54885e-06
3.96124e-06
3.58174e-06
4.18762e-06
4.58486e-06
4.76228e-06
4.85263e-06
4.85263e-06
4.76228e-06
4.58486e-06
4.18763e-06
3.58175e-06
3.03714e-06
3.59324e-06
3.96896e-06
4.18357e-06
4.28257e-06
4.28257e-06
4.18358e-06
3.96896e-06
3.59325e-06
3.03714e-06
2.8688e-06
3.40508e-06
3.79683e-06
4.02926e-06
4.13595e-06
4.13623e-06
4.03118e-06
3.8049e-06
3.41643e-06
2.86879e-06
3.41645e-06
4.03459e-06
4.41939e-06
4.63971e-06
4.74448e-06
4.74581e-06
4.64863e-06
4.45551e-06
4.03457e-06
3.40507e-06
3.80491e-06
4.45552e-06
4.8243e-06
5.01513e-06
5.11367e-06
5.11544e-06
5.02251e-06
4.82429e-06
4.41938e-06
3.79683e-06
4.03119e-06
4.64863e-06
5.02252e-06
5.2365e-06
5.33667e-06
5.34007e-06
5.2364e-06
5.01507e-06
4.63968e-06
4.02926e-06
4.13623e-06
4.74581e-06
5.11544e-06
5.34009e-06
5.46227e-06
5.46217e-06
5.33592e-06
5.11327e-06
4.74426e-06
4.13591e-06
4.13595e-06
4.74448e-06
5.11367e-06
5.33669e-06
5.46237e-06
5.46227e-06
5.33594e-06
5.11328e-06
4.74426e-06
4.13591e-06
4.02926e-06
4.6397e-06
5.01513e-06
5.2366e-06
5.34083e-06
5.34082e-06
5.2365e-06
5.01508e-06
4.63968e-06
4.02926e-06
3.79681e-06
4.41937e-06
4.82429e-06
5.02257e-06
5.11584e-06
5.11584e-06
5.02256e-06
4.82429e-06
4.41937e-06
3.79682e-06
3.40506e-06
4.03456e-06
4.4555e-06
4.64865e-06
4.74604e-06
4.74604e-06
4.64866e-06
4.45551e-06
4.03456e-06
3.40506e-06
2.86877e-06
3.41642e-06
3.8049e-06
4.03119e-06
4.13628e-06
4.13628e-06
4.03119e-06
3.8049e-06
3.41643e-06
2.86878e-06
2.73724e-06
3.24361e-06
3.64082e-06
3.88254e-06
3.99461e-06
3.99494e-06
3.88469e-06
3.64917e-06
3.25479e-06
2.7372e-06
3.25479e-06
3.88725e-06
4.29287e-06
4.52755e-06
4.63934e-06
4.64081e-06
4.53691e-06
4.32892e-06
3.88723e-06
3.24359e-06
3.64917e-06
4.32894e-06
4.72305e-06
4.92944e-06
5.03525e-06
5.03714e-06
4.93704e-06
4.72302e-06
4.29285e-06
3.64082e-06
3.88468e-06
4.53692e-06
4.93706e-06
5.16711e-06
5.27511e-06
5.27855e-06
5.16698e-06
4.92936e-06
4.52751e-06
3.88254e-06
3.99493e-06
4.64081e-06
5.03714e-06
5.27858e-06
5.40928e-06
5.40917e-06
5.2743e-06
5.03478e-06
4.63907e-06
3.99455e-06
3.9946e-06
4.63933e-06
5.03524e-06
5.27513e-06
5.4094e-06
5.40928e-06
5.27432e-06
5.03479e-06
4.63907e-06
3.99455e-06
3.88252e-06
4.52753e-06
4.92944e-06
5.16721e-06
5.27938e-06
5.27936e-06
5.1671e-06
4.92938e-06
4.52751e-06
3.88254e-06
3.64079e-06
4.29284e-06
4.72303e-06
4.93712e-06
5.0376e-06
5.0376e-06
4.93711e-06
4.72303e-06
4.29285e-06
3.64082e-06
3.24358e-06
3.88721e-06
4.32892e-06
4.53695e-06
4.64108e-06
4.64109e-06
4.53695e-06
4.32893e-06
3.88723e-06
3.24359e-06
2.7372e-06
3.25477e-06
3.64916e-06
3.8847e-06
3.99501e-06
3.99502e-06
3.8847e-06
3.64918e-06
3.25479e-06
2.73721e-06
2.65841e-06
3.10115e-06
3.49449e-06
3.7424e-06
3.85879e-06
3.85918e-06
3.74476e-06
3.50306e-06
3.11216e-06
2.65834e-06
3.11216e-06
3.74642e-06
4.16955e-06
4.41751e-06
4.53593e-06
4.53754e-06
4.42725e-06
4.2054e-06
3.74639e-06
3.10114e-06
3.50307e-06
4.20542e-06
4.62318e-06
4.84466e-06
4.95755e-06
4.95956e-06
4.85246e-06
4.62315e-06
4.16953e-06
3.49449e-06
3.74475e-06
4.42726e-06
4.85249e-06
5.09819e-06
5.21386e-06
5.21732e-06
5.09804e-06
4.84457e-06
4.41746e-06
3.7424e-06
3.85917e-06
4.53754e-06
4.95956e-06
5.21736e-06
5.35634e-06
5.35621e-06
5.21299e-06
4.95702e-06
4.53561e-06
3.85872e-06
3.85878e-06
4.53592e-06
4.95755e-06
5.21388e-06
5.35647e-06
5.35634e-06
5.21301e-06
4.95703e-06
4.53561e-06
3.85872e-06
3.74239e-06
4.41749e-06
4.84466e-06
5.0983e-06
5.21822e-06
5.21819e-06
5.09818e-06
4.84458e-06
4.41746e-06
3.7424e-06
3.49447e-06
4.16951e-06
4.62316e-06
4.85255e-06
4.96008e-06
4.96008e-06
4.85254e-06
4.62316e-06
4.16952e-06
3.49449e-06
3.10112e-06
3.74637e-06
4.20539e-06
4.42729e-06
4.53786e-06
4.53786e-06
4.42729e-06
4.2054e-06
3.74639e-06
3.10114e-06
2.65833e-06
3.11213e-06
3.50305e-06
3.74476e-06
3.85926e-06
3.85927e-06
3.74477e-06
3.50306e-06
3.11216e-06
2.65834e-06
2.65461e-06
2.98326e-06
3.35965e-06
3.60975e-06
3.72915e-06
3.72959e-06
3.6123e-06
3.36839e-06
2.99408e-06
2.65446e-06
2.99409e-06
3.6131e-06
4.04968e-06
4.30968e-06
4.43432e-06
4.43606e-06
4.31973e-06
4.08521e-06
3.61307e-06
2.98322e-06
3.36839e-06
4.08524e-06
4.52477e-06
4.76082e-06
4.8806e-06
4.88271e-06
4.76878e-06
4.52473e-06
4.04965e-06
3.35964e-06
3.61229e-06
4.31975e-06
4.76882e-06
5.02976e-06
5.15292e-06
5.1564e-06
5.02959e-06
4.76071e-06
4.30962e-06
3.60975e-06
3.72958e-06
4.43606e-06
4.88272e-06
5.15645e-06
5.30347e-06
5.30332e-06
5.15199e-06
4.88001e-06
4.43395e-06
3.72906e-06
3.72913e-06
4.43431e-06
4.8806e-06
5.15295e-06
5.30361e-06
5.30346e-06
5.15202e-06
4.88001e-06
4.43395e-06
3.72906e-06
3.60974e-06
4.30966e-06
4.76082e-06
5.02989e-06
5.15736e-06
5.15732e-06
5.02974e-06
4.76073e-06
4.30962e-06
3.60975e-06
3.35962e-06
4.04965e-06
4.52475e-06
4.76889e-06
4.8833e-06
4.8833e-06
4.76888e-06
4.52475e-06
4.04965e-06
3.35965e-06
2.98322e-06
3.61305e-06
4.08521e-06
4.31978e-06
4.43642e-06
4.43642e-06
4.31979e-06
4.08522e-06
3.61307e-06
2.98321e-06
2.65445e-06
2.99405e-06
3.36838e-06
3.61231e-06
3.72969e-06
3.7297e-06
3.61231e-06
3.36838e-06
2.99408e-06
2.65445e-06
2.77285e-06
2.89968e-06
3.2395e-06
3.48599e-06
3.60665e-06
3.60714e-06
3.4887e-06
3.24835e-06
2.91034e-06
2.77254e-06
2.91039e-06
3.48901e-06
3.93369e-06
4.20423e-06
4.33462e-06
4.33647e-06
4.21453e-06
3.96881e-06
3.48896e-06
2.89957e-06
3.24837e-06
3.96886e-06
4.42795e-06
4.67796e-06
4.80442e-06
4.80662e-06
4.68604e-06
4.42789e-06
3.93364e-06
3.23947e-06
3.48871e-06
4.21455e-06
4.68609e-06
4.96184e-06
5.09231e-06
5.0958e-06
4.96165e-06
4.67782e-06
4.20415e-06
3.48597e-06
3.60713e-06
4.33647e-06
4.80664e-06
5.09586e-06
5.25069e-06
5.25052e-06
5.09133e-06
4.80376e-06
4.33419e-06
3.60652e-06
3.60663e-06
4.3346e-06
4.80442e-06
5.09235e-06
5.25084e-06
5.25067e-06
5.09136e-06
4.80376e-06
4.33419e-06
3.60652e-06
3.48597e-06
4.2042e-06
4.67795e-06
4.96197e-06
5.09681e-06
5.09677e-06
4.96181e-06
4.67784e-06
4.20415e-06
3.48597e-06
3.23946e-06
3.93364e-06
4.42791e-06
4.68617e-06
4.80727e-06
4.80726e-06
4.68615e-06
4.4279e-06
3.93364e-06
3.23948e-06
2.89958e-06
3.48894e-06
3.96881e-06
4.21459e-06
4.33688e-06
4.33688e-06
4.21459e-06
3.96881e-06
3.48895e-06
2.89957e-06
2.77254e-06
2.9103e-06
3.24833e-06
3.48871e-06
3.60725e-06
3.60725e-06
3.48871e-06
3.24833e-06
2.91034e-06
2.77254e-06
3.07918e-06
2.86594e-06
3.13882e-06
3.37337e-06
3.49276e-06
3.49331e-06
3.37623e-06
3.14777e-06
2.87655e-06
3.07864e-06
2.87663e-06
3.37664e-06
3.82212e-06
4.10132e-06
4.2369e-06
4.23886e-06
4.11181e-06
3.85677e-06
3.37657e-06
2.86576e-06
3.1478e-06
3.85683e-06
4.33279e-06
4.59608e-06
4.72901e-06
4.7313e-06
4.60427e-06
4.33271e-06
3.82206e-06
3.13876e-06
3.37624e-06
4.11184e-06
4.60433e-06
4.89442e-06
5.03203e-06
5.03552e-06
4.89421e-06
4.59592e-06
4.10122e-06
3.37333e-06
3.4933e-06
4.23886e-06
4.73132e-06
5.03559e-06
5.198e-06
5.19781e-06
5.03099e-06
4.72828e-06
4.23642e-06
3.49261e-06
3.49275e-06
4.23689e-06
4.72901e-06
5.03207e-06
5.19817e-06
5.19798e-06
5.03103e-06
4.72829e-06
4.23642e-06
3.49261e-06
3.37335e-06
4.10129e-06
4.59607e-06
4.89456e-06
5.03658e-06
5.03654e-06
4.89438e-06
4.59594e-06
4.10122e-06
3.37334e-06
3.13876e-06
3.82206e-06
4.33275e-06
4.60441e-06
4.732e-06
4.732e-06
4.60439e-06
4.33273e-06
3.82206e-06
3.13879e-06
2.86579e-06
3.37656e-06
3.85677e-06
4.11189e-06
4.23932e-06
4.23932e-06
4.11189e-06
3.85678e-06
3.37657e-06
2.86576e-06
3.07863e-06
2.8765e-06
3.14775e-06
3.37625e-06
3.49344e-06
3.49344e-06
3.37625e-06
3.14774e-06
2.87654e-06
3.07863e-06
3.70894e-06
2.90495e-06
3.06507e-06
3.27531e-06
3.38981e-06
3.39041e-06
3.27832e-06
3.07412e-06
2.91562e-06
3.70783e-06
2.91576e-06
3.28027e-06
3.71588e-06
4.00124e-06
4.14133e-06
4.14338e-06
4.01189e-06
3.75002e-06
3.28017e-06
2.90462e-06
3.07417e-06
3.75009e-06
4.23947e-06
4.51525e-06
4.6544e-06
4.65675e-06
4.5235e-06
4.23938e-06
3.7158e-06
3.06498e-06
3.27834e-06
4.01193e-06
4.52358e-06
4.82753e-06
4.97209e-06
4.97557e-06
4.82729e-06
4.51506e-06
4.00112e-06
3.27526e-06
3.39041e-06
4.1434e-06
4.65678e-06
4.97565e-06
5.14544e-06
5.14523e-06
4.971e-06
4.6536e-06
4.1408e-06
3.38964e-06
3.3898e-06
4.14132e-06
4.65439e-06
4.97213e-06
5.14561e-06
5.14541e-06
4.97104e-06
4.65361e-06
4.1408e-06
3.38964e-06
3.27529e-06
4.00121e-06
4.51523e-06
4.82768e-06
4.97668e-06
4.97663e-06
4.82748e-06
4.51508e-06
4.00112e-06
3.27528e-06
3.06499e-06
3.71581e-06
4.23942e-06
4.52367e-06
4.65752e-06
4.65751e-06
4.52364e-06
4.2394e-06
3.7158e-06
3.06502e-06
2.90468e-06
3.28016e-06
3.75003e-06
4.01197e-06
4.14389e-06
4.14389e-06
4.01197e-06
3.75003e-06
3.28017e-06
2.90464e-06
3.70785e-06
2.91555e-06
3.0741e-06
3.27834e-06
3.39056e-06
3.39056e-06
3.27833e-06
3.07408e-06
2.9156e-06
3.70781e-06
4.84253e-06
3.05556e-06
3.02988e-06
3.19699e-06
3.30123e-06
3.30187e-06
3.20013e-06
3.03906e-06
3.06654e-06
4.84077e-06
3.06677e-06
3.20592e-06
3.61634e-06
3.9044e-06
4.04811e-06
4.05025e-06
3.91516e-06
3.64997e-06
3.20581e-06
3.05502e-06
3.03913e-06
3.65004e-06
4.14818e-06
4.43548e-06
4.58059e-06
4.58301e-06
4.44379e-06
4.14808e-06
3.61626e-06
3.02974e-06
3.20016e-06
3.91521e-06
4.44388e-06
4.76117e-06
4.91249e-06
4.91597e-06
4.76091e-06
4.43527e-06
3.90426e-06
3.19692e-06
3.30188e-06
4.05026e-06
4.58304e-06
4.91606e-06
5.093e-06
5.09278e-06
4.91136e-06
4.57973e-06
4.04753e-06
3.30103e-06
3.30122e-06
4.04811e-06
4.58059e-06
4.91255e-06
5.09319e-06
5.09298e-06
4.91141e-06
4.57974e-06
4.04753e-06
3.30104e-06
3.19696e-06
3.90437e-06
4.43547e-06
4.76133e-06
4.91713e-06
4.91707e-06
4.76112e-06
4.4353e-06
3.90427e-06
3.19695e-06
3.02976e-06
3.61628e-06
4.14813e-06
4.44398e-06
4.58384e-06
4.58383e-06
4.44395e-06
4.14811e-06
3.61626e-06
3.0298e-06
3.05511e-06
3.20581e-06
3.64998e-06
3.91526e-06
4.05081e-06
4.05081e-06
3.91525e-06
3.64998e-06
3.2058e-06
3.05506e-06
4.84072e-06
3.06642e-06
3.03904e-06
3.20016e-06
3.30205e-06
3.30204e-06
3.20013e-06
3.03899e-06
3.06648e-06
4.84075e-06
6.88042e-06
3.37544e-06
3.0507e-06
3.1469e-06
3.2329e-06
3.23359e-06
3.15019e-06
3.06007e-06
3.38697e-06
6.87625e-06
3.38742e-06
3.16342e-06
3.52565e-06
3.81147e-06
3.95758e-06
3.95979e-06
3.82231e-06
3.55878e-06
3.16328e-06
3.37449e-06
3.06018e-06
3.55885e-06
4.05927e-06
4.35687e-06
4.50761e-06
4.51009e-06
4.36522e-06
4.05917e-06
3.52556e-06
3.05048e-06
3.15023e-06
3.82236e-06
4.36531e-06
4.69536e-06
4.85325e-06
4.85672e-06
4.69508e-06
4.35664e-06
3.81132e-06
3.14681e-06
3.2336e-06
3.95981e-06
4.51013e-06
4.85682e-06
5.04071e-06
5.04047e-06
4.85208e-06
4.5067e-06
3.95695e-06
3.23268e-06
3.23289e-06
3.95758e-06
4.50762e-06
4.85331e-06
5.04091e-06
5.04068e-06
4.85213e-06
4.50671e-06
3.95695e-06
3.23269e-06
3.14686e-06
3.81144e-06
4.35685e-06
4.69554e-06
4.85792e-06
4.85786e-06
4.6953e-06
4.35667e-06
3.81132e-06
3.14686e-06
3.05052e-06
3.52558e-06
4.05923e-06
4.36542e-06
4.51098e-06
4.51097e-06
4.36539e-06
4.0592e-06
3.52556e-06
3.05058e-06
3.37465e-06
3.16327e-06
3.55879e-06
3.82242e-06
3.9604e-06
3.9604e-06
3.82242e-06
3.55878e-06
3.16327e-06
3.37457e-06
6.87619e-06
3.38681e-06
3.06004e-06
3.15022e-06
3.23379e-06
3.23378e-06
3.15018e-06
3.05996e-06
3.38688e-06
6.87623e-06
1.0266e-05
3.97003e-06
3.15729e-06
3.13699e-06
3.19282e-06
3.19356e-06
3.14044e-06
3.16695e-06
3.98246e-06
1.02589e-05
3.98341e-06
3.16676e-06
3.44708e-06
3.72351e-06
3.87029e-06
3.87256e-06
3.73442e-06
3.47976e-06
3.16657e-06
3.96832e-06
3.16715e-06
3.47981e-06
3.97319e-06
4.27949e-06
4.4355e-06
4.43803e-06
4.28786e-06
3.9731e-06
3.44699e-06
3.15691e-06
3.1405e-06
3.73445e-06
4.28795e-06
4.63011e-06
4.79438e-06
4.79783e-06
4.62983e-06
4.27924e-06
3.72336e-06
3.13686e-06
3.19358e-06
3.87256e-06
4.43806e-06
4.79793e-06
4.98858e-06
4.98833e-06
4.79317e-06
4.43454e-06
3.86962e-06
3.19257e-06
3.19281e-06
3.87027e-06
4.4355e-06
4.79445e-06
4.98879e-06
4.98855e-06
4.79323e-06
4.43455e-06
3.86962e-06
3.19258e-06
3.13694e-06
3.72347e-06
4.27947e-06
4.63031e-06
4.79908e-06
4.79901e-06
4.63006e-06
4.27928e-06
3.72337e-06
3.13694e-06
3.15701e-06
3.44699e-06
3.97315e-06
4.28808e-06
4.43897e-06
4.43896e-06
4.28805e-06
3.97313e-06
3.447e-06
3.15708e-06
3.96867e-06
3.16655e-06
3.47976e-06
3.73454e-06
3.87322e-06
3.87322e-06
3.73454e-06
3.47977e-06
3.16657e-06
3.96847e-06
1.02592e-05
3.98231e-06
3.1669e-06
3.14047e-06
3.19378e-06
3.19377e-06
3.1404e-06
3.16678e-06
3.9823e-06
1.02588e-05
1.52692e-05
4.99814e-06
3.3886e-06
3.18624e-06
3.19367e-06
3.19447e-06
3.18986e-06
3.39871e-06
5.01219e-06
1.52592e-05
5.0138e-06
3.2394e-06
3.38597e-06
3.64221e-06
3.78711e-06
3.78944e-06
3.65316e-06
3.41828e-06
3.23908e-06
4.9954e-06
3.39908e-06
3.41833e-06
3.89076e-06
4.2035e-06
4.3643e-06
4.36688e-06
4.21188e-06
3.89066e-06
3.38585e-06
3.38799e-06
3.18998e-06
3.65318e-06
4.21197e-06
4.56547e-06
4.73589e-06
4.73932e-06
4.56517e-06
4.20324e-06
3.64203e-06
3.18605e-06
3.19451e-06
3.78942e-06
4.36691e-06
4.73943e-06
4.93662e-06
4.93636e-06
4.73464e-06
4.36328e-06
3.78638e-06
3.19338e-06
3.19367e-06
3.78707e-06
4.3643e-06
4.73596e-06
4.93684e-06
4.93659e-06
4.7347e-06
4.36329e-06
3.78638e-06
3.1934e-06
3.18616e-06
3.64213e-06
4.20348e-06
4.56567e-06
4.7406e-06
4.74053e-06
4.56541e-06
4.20327e-06
3.64204e-06
3.18617e-06
3.38821e-06
3.38582e-06
3.8907e-06
4.21211e-06
4.36786e-06
4.36785e-06
4.21208e-06
3.89068e-06
3.38585e-06
3.38828e-06
4.9962e-06
3.23905e-06
3.41823e-06
3.65326e-06
3.79012e-06
3.79012e-06
3.65327e-06
3.41825e-06
3.23907e-06
4.99576e-06
1.52608e-05
5.01227e-06
3.39872e-06
3.18991e-06
3.19472e-06
3.1947e-06
3.1898e-06
3.39849e-06
5.01201e-06
1.52595e-05
2.19622e-05
6.61456e-06
3.81099e-06
3.32299e-06
3.25581e-06
3.25668e-06
3.32686e-06
3.82192e-06
6.63175e-06
2.19514e-05
6.63393e-06
3.40555e-06
3.34894e-06
3.57012e-06
3.70948e-06
3.71186e-06
3.5811e-06
3.38099e-06
3.40507e-06
6.61092e-06
3.82248e-06
3.38108e-06
3.81304e-06
4.12913e-06
4.29409e-06
4.2967e-06
4.13749e-06
3.81292e-06
3.34876e-06
3.81017e-06
3.32707e-06
3.58111e-06
4.13759e-06
4.50145e-06
4.67778e-06
4.68119e-06
4.50113e-06
4.12884e-06
3.56989e-06
3.32276e-06
3.25676e-06
3.71183e-06
4.29673e-06
4.68131e-06
4.88484e-06
4.88457e-06
4.6765e-06
4.29301e-06
3.70868e-06
3.2555e-06
3.25584e-06
3.70942e-06
4.29408e-06
4.67786e-06
4.88508e-06
4.88481e-06
4.67657e-06
4.29302e-06
3.70868e-06
3.25554e-06
3.32292e-06
3.57001e-06
4.1291e-06
4.50166e-06
4.68251e-06
4.68244e-06
4.50138e-06
4.12887e-06
3.5699e-06
3.32296e-06
3.81049e-06
3.34874e-06
3.81296e-06
4.13774e-06
4.29773e-06
4.29771e-06
4.1377e-06
3.81293e-06
3.34875e-06
3.81066e-06
6.61209e-06
3.40507e-06
3.38094e-06
3.58119e-06
3.71256e-06
3.71256e-06
3.58118e-06
3.38094e-06
3.40506e-06
6.61177e-06
2.19535e-05
6.63193e-06
3.822e-06
3.32697e-06
3.25699e-06
3.25695e-06
3.3268e-06
3.82167e-06
6.63172e-06
2.19527e-05
3.01444e-05
9.3633e-06
4.52999e-06
3.5887e-06
3.40402e-06
3.40496e-06
3.59293e-06
4.54224e-06
9.38475e-06
3.01354e-05
9.38706e-06
3.72212e-06
3.34743e-06
3.51124e-06
3.6397e-06
3.64213e-06
3.52224e-06
3.37944e-06
3.72148e-06
9.35887e-06
4.54288e-06
3.3796e-06
3.74178e-06
4.05676e-06
4.22501e-06
4.22764e-06
4.06508e-06
3.74161e-06
3.34713e-06
4.52899e-06
3.5932e-06
3.52228e-06
4.0652e-06
4.43812e-06
4.62008e-06
4.62346e-06
4.43776e-06
4.05642e-06
3.51094e-06
3.58845e-06
3.40508e-06
3.6421e-06
4.22768e-06
4.6236e-06
4.83327e-06
4.83297e-06
4.61876e-06
4.22386e-06
3.63882e-06
3.40371e-06
3.40405e-06
3.63964e-06
4.225e-06
4.62017e-06
4.83351e-06
4.83323e-06
4.61884e-06
4.22387e-06
3.63882e-06
3.40377e-06
3.58856e-06
3.51112e-06
4.05672e-06
4.43833e-06
4.62483e-06
4.62474e-06
4.43803e-06
4.05646e-06
3.51095e-06
3.58876e-06
4.5292e-06
3.34718e-06
3.74168e-06
4.06535e-06
4.22871e-06
4.22869e-06
4.0653e-06
3.74163e-06
3.34716e-06
4.5297e-06
9.35968e-06
3.72148e-06
3.37941e-06
3.52235e-06
3.64285e-06
3.64285e-06
3.52232e-06
3.37937e-06
3.72149e-06
9.36002e-06
3.01355e-05
9.38432e-06
4.54228e-06
3.59309e-06
3.40536e-06
3.40529e-06
3.59282e-06
4.54185e-06
9.38444e-06
3.01363e-05
3.9384e-05
1.34762e-05
5.67199e-06
4.04807e-06
3.68425e-06
3.68531e-06
4.05283e-06
5.68611e-06
1.35013e-05
3.93775e-05
1.35036e-05
4.26057e-06
3.39575e-06
3.47097e-06
3.58111e-06
3.58358e-06
3.48204e-06
3.4281e-06
4.25978e-06
1.3471e-05
5.68674e-06
3.42832e-06
3.67944e-06
3.9869e-06
4.15725e-06
4.1599e-06
3.99519e-06
3.67923e-06
3.39538e-06
5.67083e-06
4.05315e-06
3.48211e-06
3.99533e-06
4.37552e-06
4.56281e-06
4.56616e-06
4.37515e-06
3.98653e-06
3.47062e-06
4.04778e-06
3.68546e-06
3.58357e-06
4.15996e-06
4.56631e-06