/*--------------------------------*- C++ -*----------------------------------*\
| =========                 |                                                 |
| \\      /  F ield         | OpenFOAM: The Open Source CFD Toolbox           |
|  \\    /   O peration     | Version:  2406                                  |
|   \\  /    A nd           | Website:  www.openfoam.com                      |
|    \\/     M anipulation  |                                                 |
\*---------------------------------------------------------------------------*/
FoamFile
{
    version     2.0;
    format      ascii;
    arch        "LSB;label=32;scalar=64";
    class       volScalarField;
    location    "250";
    object      turbulenceProperties:L;
}
// * * * * * * * * * * * * * * * * * * * * * * * * * * * * * * * * * * * * * //

dimensions      [0 1 0 0 0 0 0];

internalField   nonuniform List<scalar> 
25000
(
0.0352931
0.0361013
0.037662
0.0380043
0.0381775
0.0381734
0.0379948
0.0376584
0.0360325
0.0352216
0.0360886
0.0365447
0.0382356
0.039226
0.0397341
0.0397364
0.0392358
0.0382517
0.036589
0.0360491
0.0376469
0.0382213
0.0396991
0.0406749
0.0411772
0.0411789
0.0406808
0.0397146
0.0382604
0.0376713
0.0379944
0.0392202
0.0406713
0.0417026
0.0422431
0.0422431
0.0417063
0.0406821
0.0392374
0.0380052
0.0381717
0.0397282
0.041175
0.0422419
0.0428024
0.0428026
0.0422441
0.0411799
0.039739
0.0381808
0.0381718
0.039733
0.0411768
0.0422434
0.0428028
0.0428027
0.0422438
0.0411795
0.0397387
0.0381798
0.0379949
0.0392328
0.0406803
0.0417056
0.0422432
0.0422429
0.0417058
0.0406815
0.0392365
0.0380024
0.0376608
0.0382572
0.0397123
0.04068
0.0411791
0.041179
0.0406801
0.0397134
0.0382592
0.037667
0.0360386
0.0365871
0.0382505
0.039236
0.0397382
0.0397382
0.039236
0.0382512
0.0365883
0.036044
0.0352195
0.0360466
0.0376713
0.0380056
0.0381813
0.0381799
0.0380024
0.0376665
0.0360403
0.0352227
0.0299048
0.0304289
0.0315385
0.0317878
0.0319198
0.031919
0.0317837
0.0315291
0.0304607
0.0300053
0.0304302
0.0313093
0.0319707
0.0322604
0.0324504
0.0324484
0.0322532
0.0319398
0.0312883
0.0304638
0.0315456
0.0319561
0.0325535
0.032811
0.0329511
0.0329496
0.0328041
0.032545
0.0319568
0.0315261
0.0317906
0.0322615
0.0328091
0.0331159
0.0332761
0.0332735
0.0331128
0.0328055
0.0322522
0.0317787
0.0319201
0.0324516
0.0329516
0.0332747
0.0334314
0.0334307
0.033274
0.0329474
0.032445
0.0319133
0.0319183
0.0324488
0.03295
0.0332751
0.0334306
0.0334301
0.0332737
0.0329472
0.0324448
0.0319132
0.0317824
0.0322541
0.0328067
0.0331126
0.0332722
0.0332719
0.0331117
0.0328048
0.0322517
0.0317785
0.0315289
0.0319574
0.032545
0.0328029
0.0329471
0.0329469
0.0328023
0.0325439
0.0319561
0.0315257
0.0304665
0.0312881
0.031939
0.032251
0.0324448
0.0324447
0.0322506
0.0319383
0.0312874
0.0304638
0.0300047
0.0304565
0.0315246
0.0317783
0.031913
0.0319131
0.0317786
0.0315249
0.0304573
0.0300036
0.0312359
0.032356
0.0331019
0.0335432
0.0337511
0.0337513
0.033541
0.0330868
0.0323359
0.031263
0.0323482
0.0334819
0.0338106
0.0340656
0.0342483
0.0342473
0.0340588
0.0337711
0.0334587
0.0323454
0.0331049
0.0337842
0.0342843
0.0345586
0.034732
0.0347302
0.0345495
0.0342761
0.0337993
0.0330879
0.0335458
0.0340648
0.0345553
0.0348545
0.0350392
0.0350355
0.0348505
0.0345527
0.0340599
0.033539
0.0337527
0.0342499
0.0347322
0.035037
0.0351973
0.0351965
0.0350371
0.0347287
0.0342448
0.0337487
0.0337518
0.0342478
0.0347311
0.0350382
0.0351965
0.035196
0.0350368
0.0347285
0.0342446
0.0337486
0.0335411
0.0340618
0.0345539
0.0348507
0.0350345
0.0350342
0.0348497
0.0345522
0.0340594
0.0335388
0.033089
0.0337998
0.0342764
0.0345487
0.0347284
0.0347282
0.0345481
0.0342752
0.0337985
0.0330875
0.0323461
0.0334582
0.0337705
0.0340571
0.0342445
0.0342445
0.034057
0.03377
0.0334579
0.0323455
0.0312642
0.0323342
0.033085
0.0335383
0.0337482
0.0337483
0.0335386
0.033085
0.0323344
0.0312627
0.0358687
0.0380382
0.0385387
0.0392937
0.0395813
0.039582
0.0392963
0.0385279
0.0380159
0.0358883
0.0380299
0.0395468
0.0397747
0.0402238
0.0404601
0.0404586
0.0402154
0.0397249
0.0395304
0.0380345
0.0385398
0.0397332
0.0404116
0.0409427
0.0412548
0.0412524
0.040929
0.0404012
0.0397673
0.0385329
0.0392952
0.0402197
0.0409365
0.0414418
0.0417653
0.0417604
0.0414371
0.0409348
0.0402188
0.0392956
0.0395815
0.0404602
0.0412538
0.0417614
0.0420481
0.0420477
0.0417637
0.0412518
0.0404564
0.0395789
0.0395814
0.0404587
0.0412528
0.0417636
0.0420474
0.0420473
0.0417637
0.041252
0.0404567
0.0395789
0.0392965
0.0402206
0.0409353
0.0414368
0.0417592
0.0417595
0.0414371
0.0409353
0.0402196
0.0392955
0.0385323
0.0397686
0.0404016
0.0409283
0.0412511
0.0412514
0.0409291
0.0404021
0.0397685
0.0385327
0.0380323
0.0395309
0.0397245
0.0402141
0.0404565
0.0404569
0.0402154
0.0397255
0.0395314
0.0380333
0.0358863
0.0380156
0.0385263
0.0392942
0.0395787
0.0395796
0.0392963
0.0385288
0.0380175
0.035888
0.0410641
0.0440362
0.0445561
0.0456766
0.0460713
0.0460709
0.045686
0.0445605
0.0440322
0.0410995
0.0440244
0.0459801
0.0464862
0.0473806
0.0477357
0.0477329
0.0473686
0.0464252
0.0459832
0.0440578
0.0445521
0.0464263
0.0475566
0.048657
0.0492309
0.0492287
0.0486395
0.0475433
0.0464843
0.0445689
0.0456795
0.0473727
0.0486473
0.0496788
0.0502954
0.0502908
0.0496772
0.0486495
0.0473773
0.0456884
0.0460734
0.047736
0.0492287
0.0502894
0.050899
0.0509001
0.0502971
0.0492308
0.0477342
0.0460721
0.0460731
0.0477348
0.0492298
0.0502951
0.0508996
0.0509008
0.0502978
0.0492317
0.0477353
0.0460731
0.0456893
0.0473794
0.0486499
0.0496774
0.0502911
0.050292
0.0496796
0.0486523
0.0473801
0.0456902
0.044571
0.046488
0.0475455
0.0486413
0.0492305
0.0492312
0.0486433
0.0475474
0.0464886
0.0445716
0.0440584
0.0459853
0.0464261
0.0473705
0.0477347
0.0477354
0.0473726
0.0464286
0.0459866
0.0440588
0.0410993
0.0440329
0.0445594
0.045687
0.0460722
0.0460732
0.0456902
0.0445639
0.0440365
0.0411008
0.0453161
0.0483605
0.0490217
0.0502674
0.0507101
0.0507084
0.0502784
0.049042
0.048383
0.0453956
0.0483368
0.0502145
0.0511108
0.0523207
0.0527651
0.0527611
0.0523026
0.0510346
0.0502294
0.0484077
0.0490128
0.0510343
0.0524532
0.0539691
0.0547037
0.0547023
0.0539526
0.0524407
0.0511078
0.049048
0.050271
0.052309
0.0539564
0.0554259
0.0562432
0.0562392
0.0554306
0.0539671
0.0523163
0.0502805
0.0507146
0.052766
0.0547006
0.0562351
0.0571007
0.0571033
0.056248
0.0547075
0.0527662
0.0507132
0.0507126
0.0527647
0.0547043
0.056244
0.0571023
0.0571045
0.0562492
0.0547086
0.0527673
0.0507146
0.0502816
0.0523167
0.0539655
0.0554302
0.0562396
0.0562414
0.0554342
0.0539701
0.0523191
0.0502832
0.0490525
0.0511108
0.052442
0.0539555
0.0547061
0.0547071
0.0539584
0.0524452
0.0511122
0.049052
0.0484105
0.0502294
0.0510337
0.0523059
0.0527663
0.052767
0.0523086
0.0510374
0.0502323
0.0484102
0.0453915
0.0483744
0.0490336
0.0502779
0.050713
0.0507143
0.0502829
0.0490421
0.0483833
0.0453963
0.0479089
0.0502475
0.0509683
0.0521478
0.052575
0.0525703
0.0521423
0.0509659
0.0502493
0.0479854
0.0502058
0.0516
0.0527006
0.0539146
0.0543671
0.0543601
0.0538819
0.0525928
0.0515883
0.0502725
0.0509488
0.0526102
0.0539574
0.0554391
0.0561097
0.056105
0.0554165
0.0539379
0.0526759
0.0509694
0.0521441
0.0538957
0.055423
0.0568461
0.0575729
0.0575646
0.0568455
0.0554317
0.0538965
0.0521397
0.0525782
0.0543664
0.0561056
0.057564
0.0583296
0.0583295
0.0575716
0.056107
0.0543615
0.0525705
0.0525741
0.0543646
0.0561088
0.0575712
0.0583292
0.0583298
0.0575725
0.0561077
0.0543624
0.052572
0.0521454
0.0539004
0.0554331
0.0568468
0.0575632
0.057564
0.0568478
0.0554335
0.0538984
0.052143
0.0509787
0.0526822
0.0539418
0.0554205
0.0561065
0.0561065
0.0554201
0.0539406
0.0526791
0.0509748
0.0502801
0.0515928
0.0525957
0.0538868
0.0543638
0.0543629
0.0538855
0.0525939
0.0515903
0.0502775
0.0479782
0.0502373
0.0509555
0.0521402
0.0525727
0.0525732
0.0521428
0.0509615
0.0502455
0.0479863
0.0489201
0.0504161
0.0511282
0.0521276
0.0525154
0.052513
0.0521175
0.0511055
0.050393
0.0489657
0.0503666
0.0513316
0.0524135
0.0534622
0.0538912
0.0538861
0.0534314
0.0522985
0.0513134
0.0504211
0.0511002
0.0523152
0.0534705
0.0547522
0.0553118
0.0553053
0.0547286
0.0534557
0.0523891
0.0511157
0.0521194
0.0534394
0.0547334
0.0559623
0.0565521
0.0565404
0.0559568
0.0547439
0.0534467
0.0521158
0.0525187
0.0538897
0.0553068
0.0565429
0.0571417
0.0571395
0.0565462
0.0553051
0.0538861
0.0525144
0.0525162
0.0538897
0.055309
0.0565477
0.0571394
0.0571387
0.0565461
0.0553049
0.053886
0.0525153
0.05212
0.0534494
0.0547453
0.0559575
0.0565369
0.0565364
0.0559562
0.054743
0.053446
0.0521178
0.0511225
0.0523923
0.0534579
0.0547303
0.0553029
0.0553018
0.0547276
0.0534541
0.0523881
0.051119
0.0504285
0.0513156
0.0523003
0.0534328
0.053886
0.0538845
0.0534294
0.0522961
0.0513124
0.0504256
0.0489644
0.0503851
0.0511001
0.0521159
0.0525154
0.0525147
0.052115
0.0511008
0.0503891
0.0489689
0.049419
0.0503427
0.0509757
0.0517845
0.0521359
0.0521385
0.0517789
0.0509453
0.0503038
0.049448
0.0502889
0.0509539
0.0518952
0.052773
0.0531771
0.0531753
0.0527483
0.0517821
0.0509373
0.0503385
0.0509429
0.0517908
0.0527793
0.0538906
0.0543772
0.0543707
0.0538687
0.0527721
0.0518775
0.050961
0.0517758
0.0527484
0.0538712
0.0549492
0.0554591
0.0554463
0.0549427
0.0538854
0.0527646
0.051777
0.0521384
0.0531754
0.0543734
0.0554506
0.0559467
0.0559445
0.0554541
0.0543727
0.0531759
0.0521389
0.0521378
0.0531772
0.0543749
0.0554548
0.0559445
0.0559439
0.0554541
0.0543727
0.0531762
0.0521396
0.0517776
0.0527649
0.053885
0.0549422
0.0554434
0.0554431
0.0549422
0.0538849
0.0527654
0.0517791
0.0509622
0.0518777
0.0527718
0.0538686
0.0543681
0.0543677
0.0538678
0.0527716
0.0518786
0.0509633
0.0503384
0.0509373
0.0517813
0.0527463
0.0531737
0.0531734
0.052746
0.0517812
0.050939
0.0503411
0.0494441
0.0502993
0.0509421
0.0517754
0.0521388
0.052139
0.0517755
0.0509427
0.050302
0.0494476
0.0500149
0.0505893
0.0511008
0.0517572
0.0520851
0.052093
0.0517624
0.0510734
0.0505489
0.0500371
0.050538
0.0509636
0.0517425
0.0524975
0.0528833
0.0528846
0.0524798
0.0516342
0.0509532
0.050588
0.051069
0.0516354
0.0525014
0.0534995
0.0539469
0.0539412
0.0534799
0.0525007
0.0517345
0.0510931
0.0517541
0.0524741
0.0534796
0.0544569
0.0549276
0.0549155
0.0544516
0.053497
0.052497
0.0517601
0.0520898
0.0528826
0.0539432
0.0549196
0.0553607
0.055359
0.0549245
0.0539437
0.0528848
0.0520932
0.0520914
0.0528855
0.0539449
0.0549243
0.0553593
0.0553587
0.0549241
0.0539433
0.052885
0.0520943
0.0517611
0.0524966
0.0534951
0.0544505
0.0549133
0.0549129
0.0544502
0.0534957
0.0524976
0.0517639
0.0510942
0.051733
0.0524983
0.0534779
0.0539384
0.0539381
0.0534777
0.0524989
0.0517353
0.0510974
0.0505897
0.0509517
0.0516308
0.0524745
0.0528809
0.0528815
0.0524756
0.0516325
0.0509549
0.0505936
0.0500377
0.0505455
0.0510698
0.0517564
0.0520922
0.0520938
0.0517591
0.0510732
0.0505508
0.0500422
0.0507942
0.0511589
0.0515208
0.0520566
0.0523643
0.0523741
0.0520661
0.051493
0.0511091
0.0508042
0.051108
0.0512878
0.0519211
0.0525935
0.0529645
0.0529671
0.0525786
0.0518136
0.0512793
0.0511523
0.0514901
0.0518106
0.0525862
0.0535111
0.0539389
0.0539336
0.0534924
0.0525885
0.0519174
0.0515139
0.0520579
0.0525714
0.0534925
0.0544045
0.0548583
0.0548465
0.0543995
0.05351
0.0525956
0.0520616
0.0523704
0.0529661
0.0539383
0.0548519
0.0552657
0.0552642
0.0548567
0.0539368
0.0529651
0.0523703
0.0523737
0.0529709
0.0539407
0.0548581
0.0552656
0.0552642
0.0548564
0.0539364
0.0529656
0.0523714
0.0520683
0.0526013
0.0535117
0.0544006
0.0548462
0.0548452
0.054398
0.0535087
0.052597
0.0520659
0.0515195
0.0519225
0.0525892
0.0534918
0.0539324
0.0539318
0.0534897
0.0525866
0.0519192
0.0515185
0.0511561
0.0512847
0.0518129
0.0525735
0.0529627
0.0529633
0.0525734
0.0518112
0.0512813
0.0511569
0.0508018
0.0511099
0.0514898
0.0520583
0.0523702
0.0523729
0.0520618
0.0514925
0.0511116
0.0508077
0.0515598
0.0519088
0.0521355
0.0525796
0.0528737
0.0528871
0.0526007
0.0521199
0.051868
0.0515678
0.0518587
0.0518116
0.0523254
0.0529424
0.0533043
0.0533093
0.0529353
0.0522284
0.0518203
0.0519142
0.0521055
0.052213
0.0529188
0.0537966
0.0542179
0.0542142
0.0537816
0.0529289
0.0523366
0.0521433
0.0525834
0.0529211
0.0537777
0.0546492
0.0550999
0.0550894
0.054647
0.0537992
0.0529532
0.0525962
0.0528795
0.053305
0.0542163
0.0550932
0.0554976
0.0554968
0.0551003
0.054217
0.0533071
0.052884
0.0528868
0.0533117
0.0542197
0.0551005
0.055498
0.0554971
0.0550998
0.0542166
0.0533076
0.0528857
0.0526059
0.0529588
0.0538
0.0546469
0.0550889
0.0550881
0.0546449
0.0537976
0.0529545
0.0526021
0.0521538
0.0523416
0.0529278
0.0537784
0.0542114
0.0542113
0.0537773
0.0529255
0.0523379
0.0521502
0.0519246
0.0518249
0.0522246
0.0529263
0.0533024
0.0533039
0.0529277
0.052224
0.0518214
0.0519216
0.0515753
0.0518731
0.0521171
0.0525911
0.0528825
0.0528854
0.0525952
0.0521185
0.0518711
0.051575
0.0521393
0.0527626
0.0528849
0.0532547
0.0535323
0.0535467
0.0532807
0.0528772
0.0527241
0.0521439
0.0527066
0.0524556
0.0528695
0.0534434
0.0537956
0.0538004
0.0534375
0.0527767
0.0524762
0.0527713
0.0528498
0.0527506
0.0533947
0.0542379
0.0546569
0.0546532
0.0542231
0.0534089
0.0528875
0.0528987
0.0532528
0.0534167
0.054217
0.0550614
0.0555133
0.0555031
0.0550603
0.0542413
0.0534549
0.0532727
0.0535308
0.0537899
0.0546524
0.0555052
0.0559077
0.0559081
0.055515
0.0546563
0.0537964
0.0535397
0.0535407
0.0537976
0.0546551
0.0555122
0.055908
0.0559082
0.0555152
0.0546567
0.0537979
0.0535419
0.0532818
0.0534585
0.054239
0.0550569
0.055501
0.0555021
0.0550593
0.0542416
0.053459
0.0532802
0.0529092
0.0528911
0.0534043
0.0542162
0.0546479
0.0546498
0.0542198
0.0534078
0.0528922
0.0529077
0.0527793
0.0524785
0.0527679
0.0534237
0.0537899
0.0537931
0.0534299
0.0527732
0.0524798
0.0527791
0.0521487
0.052727
0.0528688
0.0532653
0.0535368
0.053541
0.0532726
0.0528735
0.0527261
0.0521476
0.0522748
0.0535762
0.053683
0.0540012
0.0542651
0.054281
0.0540351
0.0536892
0.0535546
0.0522829
0.0535177
0.0531563
0.0534863
0.0540232
0.0543667
0.0543713
0.0540191
0.0534002
0.0531958
0.0535997
0.0536419
0.0533623
0.0539472
0.0547618
0.0551803
0.0551762
0.0547465
0.0539654
0.0535147
0.0537085
0.0539938
0.0539922
0.0547384
0.0555612
0.0560158
0.0560059
0.0555611
0.054765
0.0540374
0.054025
0.0542594
0.0543566
0.0551719
0.0560057
0.0564094
0.0564106
0.0560182
0.0551787
0.0543666
0.0542737
0.0542734
0.0543655
0.0551747
0.0560127
0.0564096
0.0564111
0.0560187
0.0551795
0.0543685
0.054277
0.0540366
0.05404
0.0547607
0.0555557
0.0560028
0.056005
0.0555609
0.0547663
0.0540421
0.0540355
0.0537241
0.0535175
0.053959
0.0547376
0.0551693
0.0551722
0.0547435
0.0539646
0.0535199
0.0537225
0.0536146
0.0531958
0.0533883
0.0540028
0.0543588
0.0543627
0.0540107
0.0533958
0.0531989
0.0536133
0.0522928
0.0535533
0.053676
0.0540168
0.0542705
0.0542749
0.054026
0.0536839
0.0535561
0.0522919
0.052015
0.0542561
0.0544823
0.0547737
0.0550218
0.055036
0.0548059
0.0544925
0.0542389
0.0520235
0.05419
0.0538707
0.0541282
0.0546267
0.054957
0.0549591
0.0546172
0.0540396
0.0539188
0.0542815
0.0544333
0.0539972
0.0545184
0.0553033
0.0557184
0.0557128
0.0552844
0.0545355
0.0541575
0.0545083
0.0547603
0.0545915
0.0552789
0.0560799
0.0565346
0.0565242
0.0560789
0.0553048
0.0546375
0.0547937
0.0550134
0.0549455
0.05571
0.0565243
0.0569281
0.05693
0.0565381
0.0557172
0.0549547
0.0550259
0.0550286
0.0549547
0.0557124
0.0565313
0.0569285
0.0569307
0.0565392
0.0557184
0.0549566
0.055029
0.0548081
0.0546417
0.0553009
0.0560732
0.0565212
0.0565243
0.0560798
0.0553068
0.0546425
0.0548039
0.0545268
0.0541623
0.05453
0.0552761
0.0557063
0.0557097
0.0552826
0.0545356
0.0541631
0.0545227
0.0542963
0.0539191
0.0540275
0.0546015
0.0549461
0.0549498
0.0546091
0.0540342
0.0539204
0.0542939
0.0520287
0.0542329
0.0544742
0.0547851
0.0550224
0.0550265
0.0547936
0.0544819
0.0542348
0.0520287
0.0519387
0.0546425
0.055215
0.0555316
0.0557736
0.0557858
0.0555615
0.0552278
0.0546354
0.0519551
0.0545714
0.0545777
0.0547841
0.0552431
0.0555586
0.0555576
0.0552266
0.0546896
0.0546315
0.0546758
0.05516
0.0546487
0.0551023
0.0558557
0.0562656
0.0562587
0.0558326
0.0551162
0.0548139
0.0552454
0.0555157
0.0552058
0.05583
0.0566076
0.0570613
0.0570511
0.0566065
0.0558553
0.0552526
0.0555531
0.0557662
0.0555472
0.0562566
0.0570506
0.0574545
0.0574571
0.0570664
0.0562648
0.0555562
0.055779
0.0557814
0.0555555
0.0562591
0.0570583
0.0574555
0.0574585
0.0570676
0.0562656
0.0555571
0.0557814
0.0555673
0.0552553
0.0558511
0.0566011
0.057049
0.0570521
0.056608
0.0558568
0.0552552
0.0555621
0.0552654
0.0548174
0.0551113
0.0558258
0.0562532
0.0562561
0.0558316
0.0551156
0.0548172
0.05526
0.0546942
0.0546301
0.0546785
0.0552137
0.055546
0.055549
0.0552196
0.0546839
0.054631
0.0546898
0.0519627
0.054626
0.0552089
0.0555434
0.0557748
0.0557774
0.0555498
0.0552152
0.0546283
0.0519616
0.0543623
0.0546695
0.0558268
0.0562454
0.0564951
0.0565014
0.0562613
0.0558268
0.0546518
0.0543669
0.0545942
0.0552378
0.0554323
0.0558523
0.0561502
0.0561453
0.0558258
0.0553269
0.0552887
0.0546946
0.0557675
0.055292
0.0556749
0.0563937
0.0567958
0.0567877
0.0563672
0.0556856
0.0554588
0.0558513
0.056227
0.055813
0.0563678
0.057119
0.0575697
0.0575601
0.0571195
0.0563945
0.0558598
0.0562616
0.0564875
0.0561397
0.0567884
0.0575597
0.0579621
0.0579661
0.0575787
0.0567994
0.0561495
0.056498
0.0564986
0.0561466
0.0567912
0.057569
0.0579646
0.0579684
0.0575805
0.0568003
0.0561495
0.0564985
0.0562695
0.0558596
0.0563895
0.0571149
0.0575603
0.057564
0.0571228
0.0563962
0.0558609
0.0562658
0.0558652
0.0554606
0.055682
0.0563638
0.0567862
0.0567892
0.0563698
0.0556872
0.0554617
0.0558615
0.0547068
0.0552871
0.055319
0.0558185
0.0561381
0.0561406
0.0558241
0.0553247
0.0552891
0.0547046
0.0543699
0.0546422
0.055811
0.0562494
0.0564931
0.0564949
0.0562542
0.0558166
0.0546441
0.0543694
0.0635458
0.0544052
0.0562189
0.0568591
0.0571532
0.0571558
0.0568675
0.0562136
0.0543902
0.0635803
0.054333
0.055805
0.0560656
0.0564565
0.0567398
0.0567326
0.0564243
0.0559539
0.0558584
0.054436
0.0561623
0.0559243
0.0562441
0.0569285
0.0573228
0.0573146
0.0569012
0.0562546
0.056096
0.0562501
0.0568445
0.0564186
0.0569026
0.0576258
0.0580733
0.0580649
0.0576295
0.0569325
0.0564682
0.0568805
0.0571491
0.0567317
0.0573163
0.0580635
0.0584639
0.0584691
0.0580858
0.0573305
0.0567433
0.0571603
0.057157
0.0567374
0.0573203
0.0580747
0.0584677
0.0584721
0.0580874
0.0573306
0.056742
0.0571589
0.0568815
0.0564637
0.0569265
0.0576257
0.0580671
0.0580704
0.0576331
0.0569332
0.0564659
0.0568802
0.0562584
0.0560941
0.0562522
0.056901
0.0573164
0.0573187
0.0569058
0.0562565
0.056096
0.0562566
0.0544472
0.0558559
0.0559504
0.0564233
0.05673
0.0567318
0.0564273
0.0559553
0.0558588
0.0544458
0.063597
0.0543822
0.0562049
0.0568649
0.0571541
0.0571549
0.0568683
0.0562102
0.054386
0.0635926
0.0429016
0.0544777
0.05636
0.0573346
0.0577152
0.0577119
0.057328
0.0563388
0.0544497
0.0429501
0.0544073
0.0562382
0.0566724
0.057052
0.0573212
0.0573104
0.0570099
0.0565477
0.0562825
0.0544993
0.0563073
0.0565282
0.0568034
0.0574527
0.057837
0.0578278
0.0574224
0.0568104
0.0566983
0.0563867
0.057322
0.0570129
0.0574262
0.0581194
0.0585614
0.0585533
0.058124
0.0574569
0.0570607
0.0573509
0.0577117
0.0573133
0.0578312
0.0585518
0.0589478
0.0589533
0.058575
0.057846
0.0573235
0.0577176
0.0577149
0.0573182
0.0578359
0.058564
0.0589518
0.0589557
0.058576
0.0578454
0.0573211
0.0577142
0.0573467
0.0570556
0.0574515
0.0581208
0.0585552
0.0585579
0.0581264
0.0574562
0.057056
0.0573447
0.0563878
0.0566963
0.0568106
0.0574249
0.0578305
0.057832
0.0574275
0.0568126
0.056696
0.0563863
0.054505
0.0562825
0.0565502
0.0570144
0.0573093
0.0573099
0.0570156
0.0565517
0.0562824
0.0545038
0.0429519
0.0544447
0.0563377
0.0573324
0.0577105
0.0577104
0.0573331
0.0563405
0.0544469
0.0429511
0.0243315
0.05645
0.0562926
0.0576132
0.0581299
0.0581239
0.0575999
0.0562653
0.056425
0.02435
0.0563809
0.0565041
0.0572274
0.0576333
0.0578965
0.0578842
0.0575874
0.0570977
0.0565489
0.056477
0.0562427
0.0570807
0.0573553
0.0579735
0.058349
0.0583399
0.0579434
0.0573639
0.0572565
0.0563235
0.0576008
0.0575914
0.0579446
0.0586081
0.0590452
0.059038
0.0586154
0.0579796
0.0576442
0.057632
0.0581264
0.0578865
0.0583403
0.0590341
0.0594256
0.0594316
0.0590593
0.0583584
0.0578999
0.0581341
0.0581294
0.0578925
0.058347
0.0590473
0.0594291
0.059433
0.0590593
0.0583572
0.0578973
0.0581305
0.0576254
0.0576375
0.0579741
0.0586116
0.059038
0.05904
0.0586159
0.057978
0.0576383
0.0576242
0.0563222
0.0572542
0.0573659
0.057947
0.0583414
0.058342
0.0579475
0.0573658
0.0572529
0.0563204
0.0564847
0.0565515
0.0571061
0.0575962
0.0578842
0.0578838
0.0575947
0.0571045
0.0565494
0.0564808
0.0243507
0.0564263
0.056275
0.0576131
0.0581267
0.0581249
0.0576098
0.0562725
0.0564257
0.0243503
0.0161953
0.062365
0.0563623
0.0577195
0.0583822
0.0583746
0.0577022
0.0563343
0.0623394
0.0162041
0.0622918
0.0566801
0.0576978
0.0581851
0.0584524
0.0584401
0.0581392
0.0575687
0.0567293
0.0623977
0.0563135
0.057546
0.0578874
0.0584793
0.0588463
0.0588385
0.0584532
0.057903
0.0577318
0.0563956
0.0577018
0.0581368
0.0584472
0.0590809
0.0595127
0.059507
0.0590935
0.0584911
0.0581989
0.0577372
0.0583721
0.0584361
0.0588334
0.0594988
0.059885
0.0598925
0.0595286
0.0588587
0.058458
0.0583853
0.058375
0.0584437
0.0588414
0.0595123
0.0598873
0.0598923
0.0595279
0.0588578
0.0584562
0.0583823
0.0577241
0.0581863
0.0584808
0.0590847
0.0595027
0.0595057
0.0590923
0.0584899
0.0581948
0.0577296
0.056386
0.0577235
0.0579009
0.0584527
0.0588362
0.0588379
0.0584564
0.0579061
0.0577297
0.0563911
0.0623884
0.0567263
0.0575737
0.058145
0.0584373
0.0584379
0.0581466
0.057577
0.056731
0.0623961
0.0162043
0.0623396
0.0563447
0.0577145
0.0583748
0.0583732
0.0577121
0.0563425
0.0623421
0.0162042
0.0120627
0.0517843
0.0574615
0.0578192
0.0585273
0.058521
0.0578057
0.0574443
0.0517632
0.0120673
0.0517511
0.0570648
0.0580675
0.0587066
0.0589934
0.0589812
0.0586599
0.0579378
0.0571144
0.0518211
0.0574174
0.0579129
0.058412
0.0589876
0.0593462
0.059339
0.0589631
0.0584312
0.0581031
0.0575014
0.0577997
0.0586529
0.0589513
0.0595554
0.059981
0.0599761
0.059571
0.059
0.0587195
0.0578371
0.0585144
0.058972
0.059327
0.0599631
0.0603431
0.0603513
0.0599956
0.0593564
0.0589972
0.0585293
0.0585173
0.0589795
0.0593352
0.0599754
0.0603428
0.0603488
0.0599934
0.059355
0.0589956
0.0585274
0.0578206
0.0587015
0.0589836
0.0595556
0.0599648
0.0599689
0.059566
0.0589972
0.0587148
0.0578308
0.0574815
0.0580856
0.0584213
0.0589544
0.0593289
0.0593316
0.0589614
0.0584313
0.0580986
0.0574964
0.051826
0.0570989
0.0579336
0.0586576
0.0589714
0.0589732
0.0586626
0.0579426
0.0571124
0.0518165
0.0120674
0.0517807
0.0574411
0.0578082
0.0585152
0.0585155
0.057811
0.0574473
0.0517668
0.0120673
0.00979114
0.0317889
0.0610742
0.0583972
0.0587906
0.0587809
0.0583727
0.0610405
0.0317778
0.00979374
0.031774
0.0583269
0.0583352
0.0591754
0.0594989
0.0594833
0.0591176
0.0581897
0.0583548
0.0318083
0.0610395
0.0581769
0.0589119
0.0594874
0.059836
0.0598264
0.0594561
0.0589225
0.0583558
0.0610983
0.0583779
0.059119
0.0594502
0.0600252
0.0604405
0.0604334
0.0600356
0.0594926
0.0591765
0.0584
0.0587798
0.0594798
0.0598185
0.060423
0.0607928
0.060799
0.0604505
0.0598409
0.0594957
0.0587823
0.0587798
0.0594871
0.0598266
0.0604344
0.0607908
0.0607947
0.0604472
0.0598387
0.0594933
0.0587792
0.0583878
0.0591655
0.0594812
0.0600221
0.0604194
0.060422
0.0600274
0.0594868
0.0591686
0.0583891
0.0610735
0.0583414
0.0589146
0.0594476
0.0598132
0.0598144
0.0594496
0.0589173
0.0583446
0.0610795
0.0318132
0.0583397
0.0581861
0.0591148
0.0594705
0.0594704
0.0591145
0.0581869
0.0583418
0.0318094
0.00979389
0.0317893
0.0610329
0.0583697
0.058769
0.0587692
0.058371
0.0610355
0.0317845
0.00979387
0.00848722
0.0214406
0.0621847
0.0603273
0.0597131
0.0597009
0.0602953
0.062143
0.0214372
0.00848874
0.0214327
0.061284
0.058557
0.0595811
0.0599669
0.0599487
0.0595154
0.0583988
0.0612881
0.0214525
0.0621852
0.0584001
0.0593757
0.0599861
0.0603304
0.0603183
0.0599473
0.0593762
0.0585663
0.0622383
0.060323
0.0595295
0.059951
0.0605041
0.0609091
0.0608993
0.0605076
0.0599846
0.0595767
0.0603282
0.0597153
0.0599583
0.06032
0.0608954
0.0612545
0.0612579
0.0609156
0.0603328
0.0599632
0.0597051
0.0597148
0.059968
0.0603308
0.0609087
0.0612537
0.0612548
0.0609136
0.0603317
0.0599618
0.0597019
0.0603295
0.0595822
0.0599884
0.0605058
0.0608916
0.0608911
0.0605027
0.0599817
0.0595714
0.0603161
0.0622313
0.0585698
0.059384
0.0599517
0.0603133
0.0603113
0.0599451
0.0593741
0.0585582
0.0622123
0.0214526
0.0612984
0.0584116
0.0595264
0.0599465
0.0599435
0.059518
0.0584005
0.0612823
0.021453
0.0084888
0.021441
0.0621778
0.0603095
0.0597007
0.0596982
0.0603028
0.0621842
0.0214409
0.00848883
0.00772126
0.0159078
0.0443297
0.0637037
0.0620909
0.0620747
0.0636643
0.044308
0.0159074
0.00772215
0.015904
0.0637168
0.0589161
0.0599323
0.0603885
0.0603694
0.0598641
0.0587536
0.063711
0.015915
0.0443139
0.0587626
0.0597704
0.060466
0.0608152
0.0608021
0.0604246
0.0597673
0.0589212
0.0443764
0.0637253
0.0598846
0.0604328
0.0609751
0.0613702
0.0613592
0.0609764
0.0604645
0.0599289
0.0637236
0.0621038
0.0603861
0.06081
0.0613595
0.0617079
0.0617101
0.0613775
0.0608207
0.0603888
0.0620875
0.0620997
0.0603974
0.0608232
0.0613753
0.0617092
0.0617093
0.0613779
0.0608219
0.0603894
0.0620847
0.0637169
0.0599411
0.0604763
0.0609829
0.0613586
0.0613573
0.060978
0.0604679
0.0599299
0.063708
0.0443598
0.0589344
0.059785
0.0604391
0.0608068
0.0608042
0.0604316
0.0597746
0.0589236
0.0443547
0.0159139
0.0637219
0.0587764
0.059885
0.0603774
0.0603744
0.0598772
0.0587669
0.0637226
0.0159141
0.00772218
0.0159085
0.0443184
0.0637051
0.0620891
0.0620858
0.0636989
0.0443342
0.0159087
0.00772215
0.00726894
0.0127308
0.0296145
0.0581198
0.0647982
0.0647816
0.0580945
0.0296019
0.0127312
0.00726938
0.0127291
0.0524277
0.0597155
0.0602768
0.0607742
0.060757
0.060215
0.0595642
0.0524415
0.0127346
0.0295991
0.059568
0.060058
0.0609067
0.0612777
0.0612661
0.0608706
0.0600637
0.059733
0.029633
0.0581283
0.0602295
0.0608726
0.061424
0.0618125
0.0618027
0.06143
0.0609126
0.0602838
0.0581684
0.0648109
0.06077
0.0612712
0.0618014
0.06214
0.0621429
0.0618224
0.0612877
0.0607807
0.06481
0.0648045
0.0607826
0.0612862
0.0618188
0.0621423
0.0621429
0.0618231
0.0612888
0.060781
0.0648032
0.0581354
0.0602883
0.0609203
0.0614356
0.0618034
0.0618023
0.0614322
0.0609158
0.0602834
0.0581372
0.0296259
0.0597376
0.060077
0.060884
0.0612725
0.0612703
0.0608783
0.0600709
0.0597338
0.0296224
0.0127341
0.0524259
0.0595817
0.0602336
0.060766
0.0607641
0.0602289
0.0595778
0.0524343
0.012734
0.00726951
0.0127318
0.029604
0.058118
0.0647999
0.0647989
0.058128
0.0296108
0.0127319
0.00726942
0.00700727
0.0108281
0.0213815
0.0412069
0.0562346
0.0562239
0.0411916
0.0213744
0.0108289
0.00700749
0.0108276
0.036802
0.061347
0.0607657
0.0611946
0.0611788
0.0607081
0.0612021
0.0368093
0.0108302
0.0213721
0.061204
0.0602294
0.0612985
0.0617122
0.0617018
0.0612666
0.0602428
0.0613715
0.0213895
0.0411919
0.0607131
0.0612605
0.0618496
0.0622349
0.0622259
0.0618595
0.061308
0.0607748
0.0412232
0.0562219
0.0611822
0.0616998
0.0622211
0.0625506
0.062554
0.0622444
0.0617209
0.0611987
0.0562385
0.0562244
0.061196
0.0617155
0.0622384
0.0625521
0.0625529
0.0622437
0.0617206
0.0611981
0.0562304
0.0412108
0.0607729
0.0613095
0.0618601
0.0622229
0.0622219
0.0618576
0.0613072
0.060771
0.0412077
0.0213869
0.061365
0.0602483
0.061273
0.0617022
0.0617004
0.0612683
0.0602445
0.0613642
0.0213847
0.0108301
0.0368046
0.0612111
0.060718
0.06118
0.0611787
0.0607146
0.061209
0.0368071
0.0108299
0.00700768
0.0108293
0.0213755
0.0411934
0.0562206
0.0562248
0.0412033
0.0213789
0.0108294
0.00700758
0.00686641
0.0096604
0.0165745
0.0291062
0.0401496
0.0401448
0.0290975
0.0165709
0.00966131
0.00686655
0.00966046
0.0266033
0.0633844
0.0616031
0.061804
0.0617893
0.0615479
0.0632388
0.026608
0.00966158
0.0165692
0.0632454
0.0603068
0.0616387
0.0621221
0.0621124
0.0616089
0.0603244
0.0634048
0.0165785
0.0290941
0.061541
0.0615951
0.0622615
0.0626502
0.0626416
0.0622734
0.0616471
0.0616062
0.0291115
0.0401363
0.0617802
0.0621012
0.0626323
0.0629568
0.0629604
0.0626571
0.0621255
0.0618004
0.0401485
0.040142
0.0617958
0.0621176
0.0626488
0.0629566
0.0629576
0.062655
0.0621248
0.0618008
0.0401449
0.0291075
0.0616038
0.0616451
0.062269
0.0626332
0.0626326
0.0622678
0.0616446
0.0616038
0.0291048
0.0165773
0.0633905
0.0603252
0.061608
0.0621048
0.0621037
0.0616049
0.060323
0.0633922
0.016576
0.00966159
0.0266069
0.0632391
0.0615477
0.0617802
0.0617798
0.0615458
0.0632401
0.0266077
0.00966146
0.00686673
0.00966158
0.0165716
0.029097
0.0401392
0.0401426
0.0291026
0.0165734
0.00966164
0.00686665
0.006805
0.00893466
0.0136354
0.0218521
0.0290081
0.0290056
0.0218473
0.013634
0.00893563
0.00680517
0.00893501
0.0203346
0.0610113
0.0629419
0.0627795
0.0627654
0.0628872
0.0608554
0.0203377
0.00893541
0.0136328
0.0608676
0.060354
0.0619178
0.0624998
0.0624904
0.0618889
0.0603734
0.0610112
0.0136378
0.0218448
0.0628653
0.0618683
0.0626601
0.0630612
0.0630526
0.062673
0.0619232
0.0629315
0.0218547
0.029001
0.0627424
0.0624706
0.0630388
0.0633647
0.0633686
0.0630651
0.0624977
0.0627657
0.0290077
0.0290052
0.0627601
0.0624874
0.0630539
0.0633622
0.0633641
0.0630622
0.0624976
0.0627686
0.0290058
0.0218533
0.0629327
0.0619192
0.0626633
0.0630382
0.0630387
0.0626649
0.0619216
0.0629353
0.0218511
0.0136373
0.0609976
0.0603711
0.0618808
0.0624748
0.062475
0.0618808
0.0603715
0.060998
0.0136364
0.0089355
0.0203378
0.0608448
0.062873
0.0627445
0.0627455
0.0628746
0.0608525
0.0203377
0.00893536
0.00680529
0.00893585
0.0136344
0.021847
0.0290029
0.0290049
0.0218502
0.0136355
0.00893586
0.00680525
0.00679734
0.00848358
0.0117878
0.0173725
0.0221475
0.0221461
0.01737
0.0117875
0.00848456
0.00679752
0.00848408
0.0163694
0.0494037
0.064341
0.0642204
0.0642073
0.0642891
0.0493005
0.0163717
0.00848412
0.0117866
0.0493051
0.060502
0.06213
0.0628347
0.0628252
0.0621009
0.0605207
0.0494007
0.0117893
0.0173682
0.0642532
0.0620768
0.0630432
0.0634676
0.0634587
0.0630557