/*--------------------------------*- C++ -*----------------------------------*\
| =========                 |                                                 |
| \\      /  F ield         | OpenFOAM: The Open Source CFD Toolbox           |
|  \\    /   O peration     | Version:  2406                                  |
|   \\  /    A nd           | Website:  www.openfoam.com                      |
|    \\/     M anipulation  |                                                 |
\*---------------------------------------------------------------------------*/
FoamFile
{
    version     2.0;
    format      ascii;
    arch        "LSB;label=32;scalar=64";
    class       volScalarField;
    location    "250";
    object      turbulenceProperties:I;
}
// * * * * * * * * * * * * * * * * * * * * * * * * * * * * * * * * * * * * * //

dimensions      [0 0 0 0 0 0 0];

internalField   nonuniform List<scalar> 
25000
(
0.00497716
0.00486746
0.00466695
0.00462566
0.00460503
0.00460553
0.00462683
0.00466741
0.00487682
0.00498732
0.00486921
0.00481027
0.0045987
0.0044833
0.00442632
0.00442608
0.0044822
0.00459684
0.00480446
0.00487454
0.00466883
0.00460049
0.00443034
0.00432473
0.00427231
0.00427213
0.00432411
0.00442863
0.00459573
0.00466582
0.00462687
0.00448397
0.00432512
0.00421884
0.00416518
0.00416519
0.00421847
0.00432396
0.00448201
0.00462557
0.00460573
0.00442698
0.00427253
0.00416531
0.0041111
0.00411108
0.00416509
0.00427204
0.0044258
0.00460465
0.00460573
0.00442645
0.00427235
0.00416515
0.00411107
0.00411107
0.00416511
0.00427207
0.00442582
0.00460476
0.00462681
0.00448253
0.00432415
0.00421854
0.00416518
0.00416521
0.00421852
0.00432403
0.00448212
0.0046259
0.00466713
0.00459612
0.00442888
0.0043242
0.00427211
0.00427212
0.00432418
0.00442876
0.00459588
0.00466636
0.00487597
0.00480472
0.00459699
0.00448218
0.00442588
0.00442588
0.00448218
0.0045969
0.00480456
0.00487524
0.00498761
0.00487491
0.00466582
0.00462552
0.00460459
0.00460475
0.00462591
0.00466643
0.00487577
0.00498716
0.00577878
0.00568575
0.00549033
0.00545024
0.00542918
0.0054293
0.00545093
0.00549195
0.00567982
0.00575937
0.00568555
0.00553291
0.00542329
0.00537774
0.0053478
0.00534812
0.00537894
0.0054287
0.00553662
0.0056792
0.00548909
0.00542595
0.00533132
0.00529261
0.00527169
0.00527194
0.00529373
0.0053327
0.00542563
0.00549247
0.00544977
0.00537757
0.00529293
0.00524718
0.00522353
0.00522394
0.00524768
0.00529347
0.0053791
0.00545179
0.00542913
0.00534759
0.00527162
0.00522376
0.00520097
0.00520108
0.00522385
0.00527228
0.00534868
0.00543028
0.00542943
0.00534805
0.00527188
0.00522368
0.00520109
0.00520117
0.0052239
0.00527231
0.00534871
0.00543029
0.00545116
0.00537877
0.0052933
0.0052477
0.00522415
0.00522419
0.00524785
0.00529359
0.00537917
0.00545183
0.00549198
0.00542554
0.00533271
0.00529393
0.00527234
0.00527237
0.00529402
0.00533289
0.00542576
0.00549254
0.00567869
0.00553664
0.00542883
0.0053793
0.00534871
0.00534873
0.00537936
0.00542896
0.00553677
0.0056792
0.0057595
0.00568062
0.00549274
0.00545186
0.00543033
0.00543031
0.00545181
0.00549268
0.00568046
0.0057597
0.00544475
0.00526301
0.00514946
0.00508498
0.00505528
0.00505523
0.00508529
0.00515176
0.00526624
0.0054399
0.00526432
0.00509361
0.00504963
0.00501546
0.00499051
0.00499065
0.00501646
0.00505568
0.00509708
0.00526464
0.00514899
0.00505377
0.00498586
0.00494999
0.00492718
0.00492744
0.00495131
0.00498701
0.00505127
0.00515156
0.00508457
0.00501559
0.00495049
0.00491196
0.00488803
0.00488855
0.00491251
0.00495081
0.00501627
0.00508557
0.00505503
0.00499028
0.00492715
0.00488835
0.00486816
0.00486828
0.0048883
0.00492763
0.004991
0.00505561
0.00505515
0.00499057
0.0049273
0.00488816
0.00486828
0.00486834
0.00488834
0.00492765
0.00499102
0.00505562
0.00508527
0.00501599
0.00495064
0.00491248
0.00488868
0.00488872
0.00491262
0.00495088
0.00501634
0.00508561
0.00515141
0.00505119
0.00498697
0.00495141
0.00492767
0.0049277
0.00495149
0.00498714
0.00505138
0.00515163
0.00526453
0.00509715
0.00505577
0.0050167
0.00499104
0.00499104
0.00501671
0.00505584
0.00509719
0.00526461
0.00543969
0.0052665
0.00515203
0.00508567
0.00505569
0.00505566
0.00508563
0.00515203
0.00526646
0.00543995
0.00469241
0.00442944
0.00437579
0.0042943
0.0042644
0.00426432
0.004294
0.00437699
0.004432
0.00468979
0.00443041
0.00426631
0.00424642
0.00420201
0.00417897
0.00417912
0.0042029
0.00425189
0.00426805
0.00442981
0.00437566
0.00425103
0.00418455
0.00413335
0.00410366
0.0041039
0.00413475
0.0041856
0.00424718
0.00437641
0.00429413
0.00420246
0.004134
0.00408694
0.00405691
0.00405739
0.00408739
0.00413412
0.00420251
0.00429407
0.00426437
0.00417895
0.00410376
0.0040573
0.00403141
0.00403145
0.00405705
0.00410395
0.00417933
0.00426463
0.00426437
0.00417911
0.00410385
0.00405706
0.00403147
0.00403148
0.00405705
0.00410393
0.0041793
0.00426463
0.00429397
0.00420232
0.00413407
0.00408741
0.0040575
0.00405747
0.00408738
0.00413406
0.00420242
0.00429407
0.00437648
0.00424704
0.00418555
0.00413481
0.00410402
0.00410398
0.00413473
0.00418549
0.00424704
0.00437643
0.00443007
0.00426799
0.00425193
0.00420302
0.00417933
0.00417928
0.00420289
0.00425181
0.00426793
0.00442994
0.00469003
0.00443202
0.00437716
0.00429421
0.00426465
0.00426455
0.00429398
0.00437688
0.0044318
0.00468981
0.0040749
0.00380229
0.00376061
0.00367031
0.00363987
0.00363989
0.00366954
0.00376023
0.0038026
0.00407135
0.0038033
0.00364573
0.00360962
0.00354389
0.00351874
0.00351895
0.0035448
0.00361448
0.00364546
0.0038004
0.00376095
0.00361441
0.0035325
0.00345512
0.00341614
0.00341629
0.00345639
0.00353347
0.00360976
0.00375951
0.00367007
0.0035445
0.00345584
0.00338682
0.00334663
0.00334695
0.00338692
0.00345565
0.00354413
0.00366935
0.00363969
0.00351872
0.0034163
0.00334705
0.00330842
0.00330835
0.00334651
0.00341614
0.00351884
0.00363979
0.00363972
0.00351881
0.00341621
0.00334665
0.00330838
0.00330831
0.00334646
0.00341607
0.00351876
0.00363972
0.00366927
0.00354397
0.00345562
0.00338691
0.00334693
0.00334687
0.00338676
0.00345545
0.00354391
0.0036692
0.00375934
0.00360947
0.00353331
0.00345625
0.00341617
0.00341611
0.00345611
0.00353317
0.00360942
0.00375929
0.00380035
0.00364529
0.00361441
0.00354465
0.00351881
0.00351875
0.00354449
0.00361421
0.00364518
0.00380031
0.00407137
0.00380254
0.00376032
0.00366946
0.00363978
0.0036397
0.0036692
0.00375994
0.00380223
0.00407123
0.00367927
0.00344792
0.00340304
0.00332014
0.00329194
0.00329204
0.00331941
0.00340162
0.00344626
0.00367282
0.00344956
0.00332333
0.00326791
0.00319434
0.00316847
0.00316871
0.00319547
0.00327287
0.00332234
0.00344455
0.00340365
0.00327289
0.00318775
0.00310038
0.00305987
0.00305995
0.00310135
0.00318851
0.0032681
0.00340121
0.0033199
0.00319508
0.00310113
0.00302129
0.00297855
0.00297879
0.00302103
0.00310049
0.00319461
0.00331927
0.00329164
0.00316842
0.00306005
0.002979
0.00293513
0.002935
0.0029783
0.00305966
0.00316841
0.00329173
0.00329177
0.0031685
0.00305984
0.00297851
0.00293505
0.00293494
0.00297823
0.00305959
0.00316834
0.00329164
0.0033192
0.00319459
0.00310058
0.00302106
0.00297877
0.00297867
0.00302084
0.00310032
0.00319444
0.0033191
0.0034009
0.0032679
0.00318843
0.00310119
0.00305974
0.00305968
0.00310102
0.00318823
0.00326782
0.00340093
0.00344435
0.00332234
0.00327293
0.00319526
0.0031684
0.00316836
0.0031951
0.00327269
0.00332215
0.00344437
0.00367314
0.00344687
0.0034022
0.00331944
0.00329175
0.00329166
0.00331911
0.00340161
0.00344624
0.00367276
0.00346992
0.00330645
0.00326031
0.00318757
0.00316228
0.00316256
0.0031879
0.00326044
0.00330624
0.00346438
0.00330911
0.00322109
0.00315613
0.00308682
0.00306206
0.00306246
0.0030887
0.00316264
0.00322182
0.00330479
0.00326154
0.00316159
0.00308569
0.00300523
0.00297038
0.00297063
0.00300648
0.0030868
0.0031576
0.00326023
0.0031878
0.00308792
0.00300613
0.00293312
0.00289721
0.00289764
0.00293315
0.00300563
0.00308786
0.00318806
0.00316208
0.0030621
0.0029706
0.00289768
0.00286089
0.00286089
0.00289727
0.00297051
0.00306237
0.00316254
0.00316233
0.00306221
0.00297042
0.00289729
0.00286091
0.00286088
0.00289723
0.00297048
0.00306233
0.00316246
0.00318772
0.00308764
0.00300556
0.00293308
0.00289772
0.00289768
0.00293303
0.00300553
0.00308775
0.00318786
0.00325963
0.00315723
0.00308658
0.00300626
0.00297055
0.00297055
0.00300629
0.00308665
0.00315741
0.00325988
0.0033043
0.00322154
0.00316247
0.00308842
0.00306225
0.0030623
0.0030885
0.00316257
0.00322169
0.00330447
0.0034649
0.00330703
0.0032611
0.00318803
0.00316242
0.00316238
0.00318787
0.00326072
0.00330649
0.00346431
0.00338836
0.00328328
0.00323708
0.00317558
0.00315257
0.00315271
0.00317618
0.00323847
0.00328465
0.00338518
0.00328639
0.00322447
0.00315971
0.00309931
0.00307551
0.0030758
0.0031011
0.00316665
0.00322561
0.00328295
0.00323882
0.00316564
0.00310004
0.00302943
0.00299983
0.00300018
0.00303075
0.00310088
0.00316117
0.00323786
0.00317607
0.00310064
0.00303049
0.00296617
0.00293637
0.002937
0.00296646
0.00302989
0.0031002
0.00317629
0.00315238
0.0030756
0.00300011
0.00293687
0.00290737
0.00290748
0.00293667
0.00300018
0.0030758
0.00315262
0.00315252
0.0030756
0.00299998
0.0029366
0.00290749
0.00290752
0.00293668
0.0030002
0.0030758
0.00315257
0.00317603
0.00310005
0.00302981
0.00296643
0.00293718
0.0029372
0.00296649
0.00302993
0.00310025
0.00317616
0.00323743
0.00316098
0.00310076
0.00303066
0.00300032
0.00300037
0.00303081
0.00310097
0.00316123
0.00323764
0.00328247
0.00322547
0.00316654
0.00310102
0.00307581
0.00307589
0.00310122
0.00316679
0.00322567
0.00328265
0.00338528
0.00328517
0.00323881
0.00317628
0.00315256
0.0031526
0.00317633
0.00323877
0.00328491
0.00338496
0.00334442
0.00327565
0.00323321
0.00318273
0.00316153
0.00316137
0.00318307
0.00323507
0.00327801
0.00334245
0.00327899
0.00323425
0.00317676
0.0031253
0.00310235
0.00310245
0.00312676
0.00318364
0.00323529
0.00327592
0.00323523
0.00318311
0.00312599
0.00306345
0.00303707
0.00303744
0.00306471
0.00312641
0.00317784
0.00323413
0.00318326
0.00312676
0.00306457
0.00300667
0.00298018
0.00298089
0.00300702
0.00306374
0.00312579
0.00318319
0.00316138
0.00310245
0.00303729
0.00298065
0.00295553
0.00295565
0.00298045
0.00303732
0.00310241
0.00316134
0.00316141
0.00310235
0.0030372
0.00298041
0.00295565
0.00295568
0.00298044
0.00303732
0.0031024
0.0031613
0.00318316
0.00312578
0.00306376
0.00300705
0.00298104
0.00298105
0.00300705
0.00306376
0.00312574
0.00318306
0.00323406
0.00317783
0.00312643
0.00306471
0.00303758
0.0030376
0.00306476
0.00312644
0.00317777
0.00323398
0.00327593
0.00323529
0.00318369
0.00312688
0.00310255
0.00310256
0.00312689
0.00318369
0.00323518
0.00327575
0.00334271
0.00327831
0.00323527
0.00318328
0.00316135
0.00316133
0.00318328
0.00323523
0.00327813
0.00334248
0.00329529
0.00324749
0.00321174
0.0031704
0.00315044
0.00314996
0.00317007
0.00321338
0.00324987
0.00329383
0.00325056
0.00321938
0.00317134
0.00312684
0.00310472
0.00310464
0.00312788
0.00317788
0.00322004
0.00324756
0.00321366
0.00317781
0.00312749
0.00307096
0.0030465
0.00304682
0.0030721
0.00312753
0.00317183
0.00321222
0.00317057
0.00312822
0.00307211
0.00301915
0.00299443
0.00299511
0.00301945
0.0030711
0.00312686
0.00317022
0.00315015
0.00310476
0.0030467
0.00299489
0.00297235
0.00297243
0.0029946
0.00304667
0.00310463
0.00314994
0.00315006
0.00310459
0.00304661
0.00299462
0.00297242
0.00297245
0.00299462
0.0030467
0.00310462
0.00314988
0.00317015
0.00312688
0.00307121
0.00301951
0.00299523
0.00299525
0.00301952
0.00307117
0.00312683
0.00316998
0.00321215
0.00317192
0.00312767
0.00307221
0.00304698
0.00304699
0.00307223
0.00312764
0.00317178
0.00321195
0.00324745
0.00322013
0.00317809
0.00312819
0.00310486
0.00310482
0.00312813
0.00317798
0.00321993
0.0032472
0.00329379
0.00325008
0.0032136
0.00317043
0.00315001
0.00314991
0.00317026
0.00321338
0.00324974
0.0032935
0.00323605
0.00319975
0.00317247
0.00313849
0.00311976
0.00311917
0.0031379
0.00317407
0.00320261
0.00323542
0.00320268
0.00318514
0.00314583
0.00310636
0.00308517
0.00308502
0.00310722
0.00315218
0.00318566
0.00320016
0.00317425
0.00315236
0.00310746
0.00305541
0.00303213
0.00303243
0.00305649
0.00310733
0.00314605
0.00317289
0.00313839
0.00310764
0.00305649
0.00300732
0.00298358
0.00298423
0.0030076
0.00305548
0.00310624
0.00313818
0.00311939
0.00308507
0.00303217
0.00298394
0.00296291
0.00296299
0.00298366
0.00303225
0.00308513
0.0031194
0.0031192
0.00308479
0.00303203
0.00298359
0.00296291
0.00296298
0.00298368
0.00303227
0.0030851
0.00311933
0.00313778
0.0031059
0.00305538
0.00300754
0.00298425
0.0029843
0.00300768
0.00305555
0.00310615
0.00313792
0.00317254
0.00314574
0.00310728
0.00305653
0.0030325
0.00303253
0.00305664
0.00310744
0.00314594
0.00317261
0.00319992
0.00318533
0.00315222
0.00310752
0.00308527
0.00308523
0.00310753
0.00315232
0.00318554
0.00319987
0.00323557
0.00320256
0.00317427
0.00313836
0.0031194
0.00311925
0.00313815
0.0031741
0.00320245
0.00323519
0.00317959
0.00314272
0.00312267
0.00309419
0.00307639
0.0030756
0.00309292
0.00312347
0.0031449
0.00317911
0.00314546
0.00313966
0.00310738
0.00307151
0.00305107
0.00305078
0.00307189
0.00311292
0.00313913
0.00314239
0.00312433
0.00311383
0.0030733
0.00302462
0.00300198
0.00300219
0.00302546
0.00307271
0.00310671
0.0031222
0.00309394
0.00307271
0.00302568
0.00297936
0.00295609
0.00295666
0.00297948
0.00302447
0.00307089
0.00309321
0.00307604
0.00305103
0.00300207
0.00295646
0.00293619
0.00293623
0.00295606
0.00300203
0.00305091
0.00307578
0.00307562
0.00305065
0.00300188
0.00295606
0.00293617
0.00293622
0.00295609
0.00300205
0.00305088
0.00307568
0.00309264
0.00307056
0.00302442
0.00297949
0.00295669
0.00295673
0.0029796
0.00302456
0.00307081
0.00309286
0.00312157
0.00310642
0.00307277
0.00302564
0.00300235
0.00300235
0.0030257
0.0030729
0.00310664
0.00312179
0.00314177
0.00313885
0.00311314
0.00307241
0.00305117
0.00305109
0.00307233
0.00311318
0.00313907
0.00314195
0.00317865
0.00314459
0.00312364
0.00309348
0.00307587
0.0030757
0.00309324
0.00312355
0.00314471
0.00317866
0.00313543
0.0030818
0.00306681
0.0030426
0.0030259
0.00302509
0.00304109
0.00306709
0.00308372
0.00313517
0.00308474
0.00308856
0.00306187
0.00302888
0.00300928
0.00300901
0.00302917
0.00306695
0.00308735
0.0030813
0.00306868
0.00306847
0.00303177
0.00298587
0.00296375
0.00296396
0.00298668
0.00303096
0.00306082
0.00306601
0.00304268
0.00303035
0.00298701
0.00294297
0.00292005
0.00292059
0.00294303
0.00298568
0.00302823
0.00304158
0.00302598
0.0030096
0.002964
0.00292048
0.00290069
0.00290067
0.00291996
0.00296379
0.00300924
0.00302549
0.00302543
0.00300917
0.00296385
0.0029201
0.00290067
0.00290066
0.00291995
0.00296376
0.00300916
0.00302536
0.00304106
0.00302803
0.0029858
0.00294321
0.0029207
0.00292065
0.00294308
0.00298567
0.003028
0.00304115
0.0030654
0.00306062
0.00303123
0.00298706
0.00296424
0.00296414
0.00298686
0.00303103
0.00306055
0.00306549
0.00308084
0.00308722
0.00306747
0.00302995
0.0030096
0.00300942
0.0030296
0.00306716
0.00308714
0.00308085
0.00313488
0.00308356
0.00306758
0.00304197
0.00302564
0.00302541
0.00304155
0.0030673
0.00308361
0.00313495
0.00311675
0.00302545
0.00301036
0.00298893
0.00297313
0.00297226
0.00298701
0.00300982
0.00302632
0.00311629
0.00302839
0.00303605
0.00301368
0.00298313
0.00296432
0.00296407
0.0029833
0.00301819
0.0030338
0.00302414
0.00301247
0.00302033
0.00298715
0.00294367
0.00292202
0.00292224
0.00294448
0.00298614
0.00301209
0.00300893
0.00298929
0.00298478
0.00294492
0.00290287
0.00288028
0.0028808
0.00290288
0.0029435
0.00298235
0.00298762
0.00297344
0.00296487
0.00292246
0.00288081
0.00286136
0.0028613
0.00288016
0.00292211
0.00296433
0.00297266
0.00297268
0.00296439
0.00292232
0.00288044
0.00286136
0.00286128
0.00288013
0.00292206
0.00296423
0.00297248
0.00298697
0.00298221
0.00294373
0.00290316
0.00288096
0.00288085
0.00290289
0.00294344
0.00298209
0.00298704
0.00300806
0.00301193
0.0029865
0.00294497
0.0029226
0.00292245
0.00294465
0.00298619
0.0030118
0.00300815
0.0030233
0.0030338
0.00301886
0.0029842
0.00296475
0.00296453
0.00298376
0.00301844
0.00303363
0.00302338
0.0031157
0.00302639
0.00301056
0.00298803
0.00297283
0.00297259
0.00298752
0.00301012
0.00302624
0.00311576
0.00311829
0.00297809
0.00295598
0.00293584
0.00292101
0.00292026
0.00293407
0.00295521
0.00297865
0.00311781
0.00298133
0.00298468
0.00296572
0.00293753
0.0029197
0.00291958
0.00293796
0.00297017
0.00298203
0.00297672
0.00295842
0.0029725
0.00294284
0.00290173
0.00288067
0.00288096
0.00290271
0.00294193
0.00296412
0.00295458
0.00293651
0.00293935
0.002903
0.00286287
0.00284074
0.00284126
0.00286292
0.00290166
0.00293695
0.00293478
0.00292146
0.00292031
0.0028811
0.00284126
0.00282221
0.00282212
0.00284056
0.00288074
0.00291983
0.0029208
0.00292066
0.00291983
0.00288098
0.0028409
0.0028222
0.00282208
0.00284051
0.00288068
0.00291973
0.00292064
0.00293401
0.00293672
0.00290186
0.00286322
0.00284142
0.00284126
0.00286288
0.00290156
0.00293669
0.00293423
0.00295358
0.00296386
0.00294223
0.00290315
0.0028813
0.00288112
0.00290281
0.00294192
0.00296382
0.0029538
0.0029759
0.00298201
0.00297084
0.00293881
0.00292028
0.00292008
0.0029384
0.00297047
0.00298194
0.00297603
0.0031175
0.00297899
0.00295621
0.00293519
0.00292098
0.00292076
0.00293474
0.00295579
0.00297888
0.0031175
0.00310318
0.002947
0.00290698
0.00288544
0.00287103
0.00287039
0.00288384
0.00290606
0.00294699
0.00310224
0.00295043
0.0029355
0.0029186
0.00289268
0.00287586
0.0028759
0.00289345
0.00292318
0.00293262
0.00294523
0.00290963
0.00292536
0.00289919
0.00286042
0.00284
0.00284035
0.00286158
0.00289847
0.00291702
0.00290539
0.00288621
0.00289454
0.00286171
0.00282349
0.00280185
0.00280235
0.00282354
0.00286044
0.00289219
0.00288433
0.0028714
0.00287644
0.00284046
0.00280238
0.00278371
0.00278358
0.0028016
0.00284005
0.00287599
0.00287076
0.00287063
0.00287603
0.00284034
0.002802
0.00278366
0.00278351
0.00280154
0.00284001
0.00287594
0.00287063
0.0028836
0.00289204
0.00286066
0.00282382
0.00280246
0.00280231
0.00282347
0.00286037
0.00289205
0.00288387
0.00290433
0.00291684
0.00289873
0.00286193
0.00284063
0.00284048
0.00286163
0.0028985
0.00291685
0.00290462
0.00294424
0.0029327
0.00292378
0.00289413
0.0028765
0.00287634
0.00289382
0.00292349
0.00293265
0.00294448
0.00310178
0.0029475
0.00290706
0.00288478
0.00287096
0.00287082
0.00288445
0.00290672
0.00294737
0.00310185
0.00294007
0.00293398
0.00286548
0.00283894
0.00282426
0.00282393
0.00283808
0.00286521
0.00293452
0.00293985
0.0029376
0.00289035
0.00287343
0.00284959
0.00283385
0.00283408
0.00285083
0.00287839
0.0028877
0.00293265
0.00286825
0.0028802
0.00285742
0.00282098
0.0028013
0.00280169
0.00282228
0.00285688
0.00287206
0.00286423
0.0028398
0.00285148
0.00282224
0.00278595
0.00276486
0.00276532
0.00278592
0.00282094
0.00284921
0.00283814
0.00282463
0.00283436
0.00280165
0.00276534
0.00274709
0.0027469
0.00276442
0.00280112
0.00283389
0.00282412
0.00282409
0.00283403
0.00280152
0.00276489
0.00274697
0.00274679
0.00276434
0.00280108
0.00283389
0.0028241
0.00283774
0.00284922
0.00282119
0.00278615
0.00276531
0.00276513
0.00278577
0.00282086
0.00284915
0.00283792
0.00286352
0.00287197
0.00285707
0.00282245
0.00280177
0.00280162
0.00282215
0.0028568
0.00287192
0.00286371
0.002932
0.00288778
0.0028788
0.00285121
0.00283444
0.00283431
0.00285092
0.0028785
0.00288768
0.00293212
0.00293969
0.00293504
0.00286602
0.00283868
0.00282435
0.00282426
0.00283844
0.00286574
0.00293494
0.00293972
0.00249097
0.00293398
0.00283555
0.00279868
0.00278201
0.00278187
0.00279819
0.00283554
0.00293438
0.00248965
0.00293746
0.00285111
0.00283044
0.00280806
0.00279318
0.00279351
0.00280953
0.00283552
0.0028484
0.00293234
0.00283811
0.00283701
0.00281703
0.00278277
0.00276377
0.00276416
0.00278407
0.00281651
0.00282891
0.00283399
0.00279932
0.00280981
0.002784
0.00274959
0.00272902
0.00272941
0.00274942
0.00278258
0.00280748
0.00279763
0.0027822
0.00279355
0.00276408
0.00272948
0.00271164
0.00271141
0.00272844
0.0027634
0.00279301
0.00278167
0.00278183
0.00279329
0.00276389
0.00272895
0.00271147
0.00271127
0.00272836
0.0027634
0.00279308
0.00278174
0.00279758
0.0028077
0.00278287
0.0027496
0.00272931
0.00272916
0.00274925
0.00278254
0.0028076
0.00279764
0.00283358
0.002829
0.00281663
0.00278407
0.00276407
0.00276396
0.00278384
0.00281642
0.00282891
0.00283366
0.00293174
0.00284853
0.00283569
0.00280958
0.00279364
0.00279355
0.00280938
0.00283545
0.00284838
0.00293181
0.002489
0.00293482
0.00283597
0.00279832
0.00278196
0.00278192
0.00279815
0.00283571
0.00293462
0.00248917
0.00366195
0.00291219
0.00281762
0.00276582
0.00274539
0.00274553
0.00276605
0.00281838
0.00291333
0.00365784
0.00291558
0.00281919
0.00279002
0.00276817
0.00275407
0.00275457
0.00277008
0.00279556
0.00281698
0.00291107
0.00281995
0.00279651
0.00277828
0.00274608
0.00272783
0.00272825
0.00274749
0.00277794
0.00278875
0.00281629
0.00276634
0.00276993
0.0027473
0.00271477
0.00269479
0.00269516
0.00271456
0.00274589
0.00276776
0.00276504
0.00274554
0.00275443
0.00272809
0.00269522
0.00267788
0.00267763
0.00269416
0.00272741
0.00275397
0.00274528
0.0027454
0.00275422
0.00272788
0.00269467
0.0026777
0.00267752
0.00269412
0.00272743
0.00275409
0.00274544
0.00276524
0.002768
0.00274615
0.0027147
0.00269507
0.00269495
0.00271444
0.00274592
0.00276799
0.00276534
0.00281624
0.00278885
0.00277793
0.00274737
0.00272812
0.00272805
0.00274725
0.00277783
0.00278887
0.00281631
0.00291076
0.00281698
0.00279543
0.00276986
0.00275462
0.00275459
0.0027698
0.00279536
0.00281699
0.00291082
0.00365769
0.0029136
0.00281843
0.00276584
0.00274559
0.0027456
0.00276581
0.0028183
0.00291348
0.00365776
0.00646216
0.00278971
0.00280851
0.00274238
0.00271618
0.00271645
0.00274292
0.00280958
0.00279069
0.00645718
0.00279285
0.00279542
0.00275318
0.0027301
0.00271636
0.00271691
0.00273212
0.00275877
0.00279322
0.00278842
0.00281069
0.00275958
0.00274095
0.00271052
0.0026929
0.00269331
0.00271187
0.00274054
0.00275179
0.00280699
0.00274287
0.00273193
0.00271181
0.00268102
0.00266157
0.00266189
0.00268069
0.00271024
0.00272959
0.00274149
0.00271633
0.0027168
0.00269328
0.00266207
0.00264518
0.00264492
0.00266093
0.00269247
0.00271621
0.00271599
0.00271621
0.00271654
0.00269299
0.00266147
0.00264503
0.00264486
0.00266093
0.00269252
0.00271633
0.00271617
0.0027418
0.0027299
0.00271049
0.00268086
0.00266189
0.0026618
0.00268066
0.00271031
0.00272987
0.00274186
0.00280705
0.0027519
0.00274044
0.0027117
0.00269323
0.0026932
0.00271168
0.00274045
0.00275196
0.00280714
0.00278804
0.0027931
0.00275837
0.0027317
0.0027169
0.00271692
0.00273177
0.00275845
0.0027932
0.00278823
0.00645698
0.00279064
0.0028091
0.00274229
0.00271631
0.0027164
0.00274245
0.00280922
0.00279066
0.00645708
0.00987949
0.00250522
0.00279018
0.00272634
0.00269439
0.00269472
0.00272706
0.00279129
0.00250612
0.00987367
0.00250801
0.00277515
0.00272113
0.00269442
0.00268056
0.00268109
0.00269637
0.00272654
0.00277277
0.00250394
0.00279231
0.0027276
0.00270553
0.00267654
0.0026595
0.00265984
0.00267768
0.00270481
0.00271954
0.00278855
0.00272707
0.00269648
0.00267794
0.00264879
0.00262984
0.00263009
0.00264823
0.00267601
0.00269379
0.00272552
0.00269484
0.00268127
0.00266007
0.00263045
0.00261404
0.00261371
0.00262915
0.00265895
0.00268032
0.00269426
0.00269472
0.00268096
0.00265972
0.00262986
0.00261394
0.00261372
0.00262918
0.00265899
0.0026804
0.0026944
0.00272613
0.00269437
0.00267648
0.00264862
0.00263028
0.00263015
0.00264828
0.00267607
0.00269398
0.00272588
0.00278902
0.00271993
0.00270491
0.0026777
0.00265994
0.00265986
0.00267753
0.00270467
0.00271964
0.00278877
0.00250431
0.00277292
0.0027263
0.00269611
0.00268122
0.00268119
0.00269603
0.00272615
0.00277269
0.002504
0.00987356
0.00250612
0.00279078
0.00272648
0.00269471
0.00269479
0.0027266
0.00279089
0.00250602
0.0098736
0.0137804
0.00299893
0.0027197
0.00270918
0.00267677
0.00267704
0.00270972
0.0027203
0.00300018
0.0137741
0.00300086
0.00274321
0.00269418
0.00266099
0.00264635
0.00264687
0.00266292
0.00269949
0.00274086
0.00299683
0.00272155
0.00270064
0.00267137
0.00264329
0.0026268
0.0026271
0.00264433
0.0026705
0.00269255
0.00271784
0.00270999
0.00266323
0.00264485
0.00261724
0.00259881
0.00259902
0.00261656
0.00264275
0.00266042
0.00270836
0.00267733
0.00264728
0.00262763
0.00259958
0.00258365
0.0025833
0.00259818
0.00262636
0.0026462
0.00267669
0.00267723
0.00264698
0.00262728
0.00259905
0.00258366
0.0025834
0.00259828
0.00262642
0.00264627
0.00267678
0.00270912
0.00266123
0.00264348
0.00261723
0.00259951
0.00259933
0.00261678
0.00264288
0.00266063
0.00270865
0.00271877
0.00269335
0.00267096
0.00264471
0.00262754
0.00262743
0.00264441
0.0026705
0.00269275
0.00271808
0.00299654
0.0027416
0.00269969
0.00266303
0.0026473
0.00264722
0.0026628
0.00269927
0.00274096
0.0029971
0.0137741
0.00299917
0.00272045
0.0027096
0.0026773
0.00267729
0.00270948
0.00272016
0.00299998
0.0137741
0.0179796
0.00488437
0.00254119
0.00266809
0.00265247
0.00265289
0.00266912
0.00254245
0.00488645
0.0179732
0.00488703
0.00266906
0.00267193
0.00263062
0.00261454
0.00261519
0.00263299
0.00267787
0.00266781
0.00488135
0.00254247
0.00267844
0.00263915
0.00261124
0.00259532
0.00259572
0.00261254
0.00263868
0.002671
0.00254021
0.00266887
0.00263292
0.00261279
0.00258661
0.00256885
0.00256914
0.00258617
0.00261102
0.00263059
0.00266798
0.00265293
0.00261534
0.00259606
0.00256958
0.00255427
0.00255401
0.00256843
0.00259512
0.0026147
0.00265286
0.00265295
0.00261506
0.00259572
0.00256911
0.00255435
0.00255419
0.00256857
0.00259521
0.0026148
0.00265299
0.00266853
0.00263106
0.00261151
0.00258675
0.00256973
0.00256962
0.00258652
0.00261127
0.00263093
0.00266847
0.00254123
0.00267165
0.00263903
0.00261291
0.00259628
0.00259623
0.00261282
0.00263891
0.00267151
0.00254098
0.00488061
0.00266849
0.00267803
0.00263312
0.00261574
0.00261574
0.00263313
0.002678
0.0026684
0.00488119
0.0179732
0.00488466
0.00254277
0.00266926
0.00265342
0.00265341
0.0026692
0.00254267
0.0048854
0.0179732
0.0222712
0.00732921
0.0024799
0.00256709
0.0025977
0.00259821
0.00256838
0.00248153
0.00733149
0.0222655
0.00733309
0.00252449
0.00265131
0.00260349
0.00258501
0.00258576
0.00260616
0.00265776
0.00252435
0.00732494
0.00247983
0.00265768
0.00260922
0.00257999
0.00256438
0.00256488
0.00258157
0.00260921
0.0026509
0.00247778
0.00256719
0.00260553
0.00258141
0.0025563
0.00253917
0.00253957
0.00255615
0.00258006
0.00260369
0.00256706
0.00259758
0.00258534
0.0025648
0.00253973
0.00252503
0.00252489
0.0025389
0.00256429
0.00258519
0.00259806
0.00259763
0.00258497
0.00256436
0.00253919
0.00252506
0.00252502
0.00253899
0.00256433
0.00258525
0.0025982
0.002567
0.00260345
0.00257989
0.00255623
0.00253988
0.00253991
0.00255636
0.00258018
0.00260392
0.00256757
0.00247806
0.00265074
0.00260887
0.00258138
0.00256508
0.00256516
0.00258167
0.0026093
0.00265126
0.00247881
0.00732494
0.00252392
0.00265717
0.00260567
0.00258584
0.00258597
0.00260604
0.00265768
0.00252458
0.00732483
0.0222653
0.00733016
0.00248013
0.00256777
0.00259821
0.00259832
0.00256806
0.00247988
0.00733019
0.0222654
0.026477
0.0101685
0.00346686
0.00241557
0.00248341
0.00248404
0.00241702
0.00346867
0.0101709
0.0264725
0.0101733
0.00241294
0.00262375
0.00257893
0.00255796
0.00255873
0.00258165
0.00263031
0.00241318
0.0101635
0.0034682
0.0026299
0.00258286
0.00255026
0.00253457
0.00253509
0.00255192
0.002583
0.00262354
0.00346321
0.0024147
0.00258076
0.00255157
0.002527
0.00251045
0.00251089
0.00252695
0.00255033
0.00257909
0.00241481
0.00248288
0.00255802
0.00253476
0.00251088
0.00249676
0.00249667
0.00251016
0.00253435
0.00255797
0.00248355
0.00248306
0.00255759
0.00253423
0.00251025
0.0024967
0.0024967
0.00251015
0.0025343
0.00255794
0.00248366
0.00241507
0.00257855
0.00254983
0.00252668
0.00251091
0.00251097
0.00252688
0.00255019
0.00257904
0.0024154
0.00346451
0.00262295
0.00258224
0.0025513
0.00253489
0.00253499
0.00255162
0.00258268
0.00262343
0.0034649
0.0101642
0.00241277
0.00262929
0.00258075
0.00255838
0.0025585
0.00258108
0.00262972
0.00241274
0.0101641
0.0264717
0.0101701
0.00346785
0.00241547
0.00248346
0.00248359
0.00241571
0.00346661
0.01017
0.0264722
0.030471
0.0133151
0.00520756
0.00263319
0.00236516
0.00236576
0.00263433
0.00521023
0.0133179
0.0304678
0.0133204
0.0029186
0.00257614
0.00255457
0.0025327
0.00253337
0.00255696
0.00258206
0.00291784
0.0133103
0.00521074
0.00258188
0.00256141
0.00252282
0.00250634
0.00250679
0.00252422
0.00256118
0.0025754
0.00520425
0.00263279
0.00255634
0.00252413
0.00249925
0.00248312
0.0024835
0.00249901
0.00252258
0.00255428
0.00263099
0.00236469
0.00253283
0.00250658
0.00248355
0.00246993
0.00246982
0.00248272
0.00250594
0.00253245
0.00236474
0.00236493
0.00253235
0.00250599
0.00248286
0.00246984
0.00246982
0.0024827
0.0025059
0.00253243
0.00236498
0.00263249
0.00255408
0.00252226
0.00249878
0.00248346
0.00248351
0.00249891
0.00252245
0.00255429
0.0026324
0.0052055
0.0025752
0.00256061
0.00252366
0.00250652
0.00250661
0.00252389
0.00256087
0.00257537
0.00520616
0.0133109
0.00291871
0.0025813
0.00255617
0.00253298
0.00253306
0.00255637
0.00258147
0.00291825
0.0133111
0.0304663
0.013317
0.00520985
0.00263327
0.00236509
0.00236513
0.00263281
0.00520863
0.0133169
0.0304672
0.0341795
0.0166555
0.00732451
0.00370511
0.00271156
0.00271208
0.00370655
0.00732798
0.0166584
0.0341772
0.0166609
0.00415466
0.0024943
0.00252387
0.00250606
0.00250666
0.00252604
0.00249971
0.00415383
0.0166511
0.00732883
0.00249962
0.00254494
0.00249791
0.00247984
0.00248023
0.00249911
0.00254439
0.00249332
0.0073216
0.00370651
0.00252582
0.00249934
0.00247301
0.00245713
0.00245746
0.00247262
0.00249753
0.0025235
0.00370364
0.00271217
0.00250651
0.00248031
0.00245765
0.00244448
0.00244435
0.00245676
0.0024795
0.00250591
0.00271137
0.00271205
0.002506
0.0024797
0.00245699
0.00244442
0.0024444
0.00245679
0.00247951
0.00250594
0.00271176
0.00370475
0.00252357
0.00249746
0.00247259
0.00245758
0.00245762
0.00247269
0.00249756
0.00252365
0.00370504
0.0073225
0.00249358
0.00254415
0.00249884
0.0024802
0.00248028