/*--------------------------------*- C++ -*----------------------------------*\
| =========                 |                                                 |
| \\      /  F ield         | OpenFOAM: The Open Source CFD Toolbox           |
|  \\    /   O peration     | Version:  2406                                  |
|   \\  /    A nd           | Website:  www.openfoam.com                      |
|    \\/     M anipulation  |                                                 |
\*---------------------------------------------------------------------------*/
FoamFile
{
    version     2.0;
    format      ascii;
    arch        "LSB;label=32;scalar=64";
    class       volScalarField;
    location    "250";
    object      turbulenceProperties:k;
}
// * * * * * * * * * * * * * * * * * * * * * * * * * * * * * * * * * * * * * //

dimensions      [0 2 -2 0 0 0 0];

internalField   nonuniform List<scalar> 
25000
(
3.74029e-05
3.57545e-05
3.28571e-05
3.22701e-05
3.19789e-05
3.19858e-05
3.22862e-05
3.28633e-05
3.58916e-05
3.75549e-05
3.57801e-05
3.48995e-05
3.18846e-05
3.02967e-05
2.95277e-05
2.95244e-05
3.02817e-05
3.18586e-05
3.48149e-05
3.58581e-05
3.28836e-05
3.19094e-05
2.95807e-05
2.81798e-05
2.74972e-05
2.74949e-05
2.81716e-05
2.95577e-05
3.18432e-05
3.28409e-05
3.2287e-05
3.03057e-05
2.81848e-05
2.68096e-05
2.61287e-05
2.61287e-05
2.68049e-05
2.81697e-05
3.02791e-05
3.22686e-05
3.19886e-05
2.95365e-05
2.75001e-05
2.61302e-05
2.54513e-05
2.5451e-05
2.61274e-05
2.74936e-05
2.95206e-05
3.19734e-05
3.19885e-05
2.95294e-05
2.74978e-05
2.61282e-05
2.54508e-05
2.54509e-05
2.61277e-05
2.74941e-05
2.95209e-05
3.1975e-05
3.22861e-05
3.02862e-05
2.81722e-05
2.68057e-05
2.61285e-05
2.6129e-05
2.68055e-05
2.81706e-05
3.02805e-05
3.22733e-05
3.28593e-05
3.18486e-05
2.95611e-05
2.81728e-05
2.74946e-05
2.74948e-05
2.81725e-05
2.95595e-05
3.18452e-05
3.28485e-05
3.5879e-05
3.48186e-05
3.18606e-05
3.02813e-05
2.95217e-05
2.95217e-05
3.02813e-05
3.18594e-05
3.48163e-05
3.58683e-05
3.75593e-05
3.58634e-05
3.28409e-05
3.2268e-05
3.19726e-05
3.19749e-05
3.22734e-05
3.28494e-05
3.58761e-05
3.75525e-05
5.20168e-05
5.02636e-05
4.68037e-05
4.60802e-05
4.57035e-05
4.57057e-05
4.60921e-05
4.68317e-05
5.01595e-05
5.16688e-05
5.02601e-05
4.74997e-05
4.55679e-05
4.47609e-05
4.42418e-05
4.42471e-05
4.47809e-05
4.56591e-05
4.75637e-05
5.01485e-05
4.67826e-05
4.56126e-05
4.39655e-05
4.32835e-05
4.29195e-05
4.29236e-05
4.3302e-05
4.39885e-05
4.56076e-05
4.68404e-05
4.60723e-05
4.4758e-05
4.32888e-05
4.24976e-05
4.20925e-05
4.20992e-05
4.25056e-05
4.32978e-05
4.47837e-05
4.61066e-05
4.57027e-05
4.42384e-05
4.29183e-05
4.20963e-05
4.17071e-05
4.17088e-05
4.20977e-05
4.29292e-05
4.42565e-05
4.57222e-05
4.57078e-05
4.4246e-05
4.29225e-05
4.2095e-05
4.1709e-05
4.17102e-05
4.20986e-05
4.29297e-05
4.4257e-05
4.57224e-05
4.60959e-05
4.47781e-05
4.32949e-05
4.2506e-05
4.21026e-05
4.21033e-05
4.25085e-05
4.32997e-05
4.47849e-05
4.61073e-05
4.68321e-05
4.56059e-05
4.39885e-05
4.33052e-05
4.29301e-05
4.29307e-05
4.33068e-05
4.39915e-05
4.56097e-05
4.68417e-05
5.01395e-05
4.75641e-05
4.56613e-05
4.4787e-05
4.4257e-05
4.42574e-05
4.47881e-05
4.56635e-05
4.75664e-05
5.01484e-05
5.16711e-05
5.01735e-05
4.6845e-05
4.61078e-05
4.5723e-05
4.57227e-05
4.6107e-05
4.68442e-05
5.01708e-05
5.16748e-05
4.76393e-05
4.44158e-05
4.24518e-05
4.1351e-05
4.08473e-05
4.08466e-05
4.13564e-05
4.24905e-05
4.44717e-05
4.75566e-05
4.4438e-05
4.15028e-05
4.07157e-05
4.01179e-05
3.96957e-05
3.96981e-05
4.01342e-05
4.08141e-05
4.15605e-05
4.44448e-05
4.24442e-05
4.07826e-05
3.9617e-05
3.89979e-05
3.86141e-05
3.86182e-05
3.9019e-05
3.96358e-05
4.07429e-05
4.24874e-05
4.13444e-05
4.01201e-05
3.90058e-05
3.83488e-05
3.79501e-05
3.79583e-05
3.83576e-05
3.90112e-05
4.01314e-05
4.13613e-05
4.08433e-05
3.96921e-05
3.86136e-05
3.79552e-05
3.76163e-05
3.76182e-05
3.79546e-05
3.86214e-05
3.97039e-05
4.08531e-05
4.08455e-05
3.96969e-05
3.86162e-05
3.79523e-05
3.76181e-05
3.76192e-05
3.79552e-05
3.86218e-05
3.97043e-05
4.08533e-05
4.13561e-05
4.01268e-05
3.90086e-05
3.83571e-05
3.79606e-05
3.79612e-05
3.83594e-05
3.90124e-05
4.01326e-05
4.13619e-05
4.24848e-05
4.07417e-05
3.96351e-05
3.90207e-05
3.86221e-05
3.86225e-05
3.90221e-05
3.96379e-05
4.07449e-05
4.24885e-05
4.4443e-05
4.15616e-05
4.08157e-05
4.01383e-05
3.97046e-05
3.97046e-05
4.01385e-05
4.08168e-05
4.15624e-05
4.44445e-05
4.75529e-05
4.44763e-05
4.24951e-05
4.13629e-05
4.08544e-05
4.0854e-05
4.13623e-05
4.24952e-05
4.44757e-05
4.75575e-05
3.61253e-05
3.21224e-05
3.13014e-05
3.0116e-05
2.9683e-05
2.9682e-05
3.01121e-05
3.1319e-05
3.21604e-05
3.6086e-05
3.21366e-05
2.9732e-05
2.94044e-05
2.87592e-05
2.84282e-05
2.84304e-05
2.87716e-05
2.94806e-05
2.97568e-05
3.21287e-05
3.12997e-05
2.94683e-05
2.85004e-05
2.77725e-05
2.73579e-05
2.73612e-05
2.77915e-05
2.8515e-05
2.94154e-05
3.13108e-05
3.01137e-05
2.87654e-05
2.77813e-05
2.71168e-05
2.67024e-05
2.67089e-05
2.7123e-05
2.77832e-05
2.87664e-05
3.01132e-05
2.96827e-05
2.84281e-05
2.73593e-05
2.67077e-05
2.63503e-05
2.63509e-05
2.67044e-05
2.73619e-05
2.84335e-05
2.96866e-05
2.96829e-05
2.84303e-05
2.73606e-05
2.67045e-05
2.63513e-05
2.63513e-05
2.67044e-05
2.73617e-05
2.84331e-05
2.96866e-05
3.01118e-05
2.87638e-05
2.77824e-05
2.71234e-05
2.67104e-05
2.67101e-05
2.71229e-05
2.77824e-05
2.87652e-05
3.01133e-05
3.13118e-05
2.94134e-05
2.85144e-05
2.77924e-05
2.73629e-05
2.73625e-05
2.77914e-05
2.85137e-05
2.94135e-05
3.13111e-05
3.21324e-05
2.97561e-05
2.94812e-05
2.87734e-05
2.84335e-05
2.84329e-05
2.87716e-05
2.94796e-05
2.97552e-05
3.21306e-05
3.60899e-05
3.21609e-05
3.13216e-05
3.01152e-05
2.96869e-05
2.96856e-05
3.0112e-05
3.13175e-05
3.21576e-05
3.60865e-05
2.75812e-05
2.39669e-05
2.34109e-05
2.22791e-05
2.19007e-05
2.1901e-05
2.22699e-05
2.34064e-05
2.39711e-05
2.75337e-05
2.39796e-05
2.19861e-05
2.15175e-05
2.07184e-05
2.04143e-05
2.04168e-05
2.07292e-05
2.15756e-05
2.19832e-05
2.39434e-05
2.34152e-05
2.15746e-05
2.05713e-05
1.96567e-05
1.92044e-05
1.92062e-05
1.96712e-05
2.05828e-05
2.15193e-05
2.33975e-05
2.22763e-05
2.07256e-05
1.96649e-05
1.88639e-05
1.84075e-05
1.84111e-05
1.88651e-05
1.96628e-05
2.07213e-05
2.22676e-05
2.18987e-05
2.04141e-05
1.92062e-05
1.84121e-05
1.79783e-05
1.79775e-05
1.84062e-05
1.92044e-05
2.04156e-05
2.18999e-05
2.1899e-05
2.04151e-05
1.92052e-05
1.84077e-05
1.79779e-05
1.79771e-05
1.84057e-05
1.92037e-05
2.04147e-05
2.1899e-05
2.22667e-05
2.07195e-05
1.96625e-05
1.88649e-05
1.84109e-05
1.84102e-05
1.88632e-05
1.96605e-05
2.07188e-05
2.22658e-05
2.33953e-05
2.15159e-05
2.05809e-05
1.96697e-05
1.92048e-05
1.92042e-05
1.96681e-05
2.05792e-05
2.15153e-05
2.33947e-05
2.39428e-05
2.19811e-05
2.15749e-05
2.07275e-05
2.04152e-05
2.04146e-05
2.07256e-05
2.15725e-05
2.19799e-05
2.39423e-05
2.75339e-05
2.39703e-05
2.34075e-05
2.2269e-05
2.18998e-05
2.18989e-05
2.22659e-05
2.34028e-05
2.39664e-05
2.7532e-05
2.26796e-05
1.98799e-05
1.93398e-05
1.83927e-05
1.80735e-05
1.80747e-05
1.83847e-05
1.93237e-05
1.9861e-05
2.26003e-05
1.98989e-05
1.84315e-05
1.77945e-05
1.6985e-05
1.67024e-05
1.6705e-05
1.6997e-05
1.78486e-05
1.84206e-05
1.98412e-05
1.93468e-05
1.78488e-05
1.69039e-05
1.59723e-05
1.5549e-05
1.55498e-05
1.59823e-05
1.6912e-05
1.77966e-05
1.93191e-05
1.83901e-05
1.69928e-05
1.598e-05
1.51501e-05
1.4716e-05
1.47183e-05
1.51475e-05
1.59735e-05
1.69879e-05
1.83831e-05
1.80703e-05
1.67019e-05
1.55508e-05
1.47204e-05
1.42816e-05
1.42803e-05
1.47135e-05
1.55468e-05
1.67018e-05
1.80712e-05
1.80717e-05
1.67027e-05
1.55487e-05
1.47156e-05
1.42808e-05
1.42797e-05
1.47129e-05
1.55462e-05
1.6701e-05
1.80703e-05
1.83823e-05
1.69876e-05
1.59744e-05
1.51478e-05
1.47181e-05
1.47171e-05
1.51456e-05
1.59717e-05
1.6986e-05
1.83812e-05
1.93156e-05
1.77945e-05
1.69112e-05
1.59806e-05
1.55477e-05
1.55471e-05
1.59789e-05
1.69091e-05
1.77935e-05
1.93159e-05
1.98389e-05
1.84206e-05
1.78493e-05
1.69948e-05
1.67017e-05
1.67013e-05
1.69931e-05
1.78466e-05
1.84185e-05
1.98392e-05
2.26043e-05
1.9868e-05
1.93304e-05
1.8385e-05
1.80714e-05
1.80705e-05
1.83814e-05
1.93237e-05
1.98607e-05
2.25996e-05
2.03337e-05
1.84296e-05
1.78955e-05
1.70911e-05
1.68137e-05
1.68168e-05
1.70948e-05
1.7897e-05
1.84273e-05
2.02689e-05
1.84593e-05
1.74559e-05
1.67342e-05
1.59917e-05
1.57284e-05
1.57325e-05
1.60112e-05
1.68034e-05
1.74638e-05
1.84112e-05
1.7909e-05
1.67922e-05
1.59701e-05
1.51321e-05
1.47753e-05
1.47778e-05
1.51447e-05
1.59816e-05
1.67499e-05
1.78948e-05
1.70936e-05
1.6003e-05
1.51412e-05
1.43986e-05
1.40405e-05
1.40447e-05
1.43989e-05
1.51362e-05
1.60024e-05
1.70965e-05
1.68117e-05
1.57288e-05
1.47775e-05
1.4045e-05
1.3683e-05
1.3683e-05
1.40411e-05
1.47767e-05
1.57316e-05
1.68166e-05
1.68143e-05
1.57299e-05
1.47758e-05
1.40413e-05
1.36832e-05
1.36829e-05
1.40407e-05
1.47763e-05
1.57312e-05
1.68156e-05
1.70927e-05
1.60001e-05
1.51354e-05
1.43983e-05
1.40454e-05
1.4045e-05
1.43978e-05
1.51352e-05
1.60013e-05
1.70943e-05
1.78882e-05
1.67459e-05
1.59793e-05
1.51425e-05
1.4777e-05
1.4777e-05
1.51428e-05
1.598e-05
1.67479e-05
1.7891e-05
1.84057e-05
1.74608e-05
1.68015e-05
1.60083e-05
1.57304e-05
1.57309e-05
1.60091e-05
1.68026e-05
1.74624e-05
1.84076e-05
2.02749e-05
1.84361e-05
1.79043e-05
1.70961e-05
1.68152e-05
1.68149e-05
1.70944e-05
1.79001e-05
1.84301e-05
2.02681e-05
1.95557e-05
1.83288e-05
1.77935e-05
1.7109e-05
1.68548e-05
1.68563e-05
1.71156e-05
1.78089e-05
1.83442e-05
1.95193e-05
1.83635e-05
1.76435e-05
1.69173e-05
1.6261e-05
1.60044e-05
1.60075e-05
1.62798e-05
1.69918e-05
1.7656e-05
1.83252e-05
1.78126e-05
1.69809e-05
1.62588e-05
1.55105e-05
1.52009e-05
1.52045e-05
1.55241e-05
1.62677e-05
1.69331e-05
1.78022e-05
1.71143e-05
1.6275e-05
1.55213e-05
1.48534e-05
1.45485e-05
1.45547e-05
1.48563e-05
1.55152e-05
1.62704e-05
1.71168e-05
1.68527e-05
1.60053e-05
1.52037e-05
1.45534e-05
1.42547e-05
1.42557e-05
1.45515e-05
1.52046e-05
1.60075e-05
1.68554e-05
1.68542e-05
1.60053e-05
1.52024e-05
1.45508e-05
1.42558e-05
1.42561e-05
1.45516e-05
1.52047e-05
1.60075e-05
1.68548e-05
1.7114e-05
1.62688e-05
1.55144e-05
1.48559e-05
1.45565e-05
1.45568e-05
1.48566e-05
1.55157e-05
1.62709e-05
1.71154e-05
1.77974e-05
1.6931e-05
1.62664e-05
1.55231e-05
1.52059e-05
1.52065e-05
1.55246e-05
1.62687e-05
1.69337e-05
1.77999e-05
1.83198e-05
1.76545e-05
1.69906e-05
1.6279e-05
1.60075e-05
1.60084e-05
1.62811e-05
1.69933e-05
1.76567e-05
1.83219e-05
1.95204e-05
1.835e-05
1.78127e-05
1.71167e-05
1.68547e-05
1.68552e-05
1.71173e-05
1.78122e-05
1.83471e-05
1.95167e-05
1.9228e-05
1.84123e-05
1.7915e-05
1.73449e-05
1.71072e-05
1.71055e-05
1.73486e-05
1.79357e-05
1.84389e-05
1.92055e-05
1.84498e-05
1.79147e-05
1.72584e-05
1.66876e-05
1.64353e-05
1.64365e-05
1.67032e-05
1.73332e-05
1.79263e-05
1.84154e-05
1.79374e-05
1.73274e-05
1.6685e-05
1.60073e-05
1.57246e-05
1.57285e-05
1.60205e-05
1.66895e-05
1.72702e-05
1.79253e-05
1.73507e-05
1.67032e-05
1.6019e-05
1.54027e-05
1.51244e-05
1.51315e-05
1.54064e-05
1.60104e-05
1.66929e-05
1.735e-05
1.71055e-05
1.64364e-05
1.57269e-05
1.51291e-05
1.4867e-05
1.48682e-05
1.51271e-05
1.57272e-05
1.64361e-05
1.71052e-05
1.71059e-05
1.64353e-05
1.5726e-05
1.51267e-05
1.48682e-05
1.48685e-05
1.51271e-05
1.57272e-05
1.64359e-05
1.71047e-05
1.73496e-05
1.66927e-05
1.60106e-05
1.54067e-05
1.51331e-05
1.51333e-05
1.54067e-05
1.60107e-05
1.66924e-05
1.73486e-05
1.79245e-05
1.727e-05
1.66897e-05
1.60206e-05
1.57299e-05
1.57302e-05
1.6021e-05
1.66899e-05
1.72694e-05
1.79237e-05
1.84155e-05
1.79263e-05
1.73338e-05
1.67044e-05
1.64375e-05
1.64377e-05
1.67046e-05
1.73339e-05
1.79251e-05
1.84135e-05
1.92085e-05
1.84422e-05
1.7938e-05
1.73509e-05
1.71052e-05
1.71051e-05
1.73509e-05
1.79375e-05
1.84402e-05
1.92058e-05
1.88461e-05
1.82704e-05
1.78471e-05
1.73755e-05
1.71499e-05
1.71447e-05
1.73719e-05
1.78654e-05
1.82972e-05
1.88294e-05
1.8305e-05
1.79203e-05
1.73642e-05
1.68638e-05
1.6618e-05
1.66172e-05
1.68751e-05
1.74359e-05
1.79276e-05
1.82713e-05
1.78685e-05
1.74351e-05
1.68608e-05
1.62399e-05
1.59738e-05
1.59772e-05
1.62519e-05
1.68612e-05
1.73696e-05
1.78525e-05
1.73775e-05
1.68788e-05
1.62521e-05
1.56795e-05
1.54154e-05
1.54224e-05
1.56826e-05
1.62414e-05
1.68641e-05
1.73735e-05
1.71469e-05
1.66184e-05
1.5976e-05
1.54201e-05
1.51805e-05
1.51814e-05
1.54172e-05
1.59756e-05
1.66171e-05
1.71446e-05
1.71458e-05
1.66166e-05
1.59749e-05
1.54173e-05
1.51813e-05
1.51816e-05
1.54174e-05
1.59759e-05
1.6617e-05
1.71439e-05
1.73729e-05
1.68644e-05
1.62425e-05
1.56832e-05
1.54237e-05
1.54239e-05
1.56834e-05
1.62421e-05
1.68638e-05
1.7371e-05
1.78518e-05
1.73706e-05
1.68628e-05
1.62531e-05
1.59789e-05
1.5979e-05
1.62533e-05
1.68625e-05
1.73691e-05
1.78495e-05
1.827e-05
1.79287e-05
1.74382e-05
1.68785e-05
1.66195e-05
1.66191e-05
1.68778e-05
1.7437e-05
1.79264e-05
1.82672e-05
1.8829e-05
1.82997e-05
1.78679e-05
1.73759e-05
1.71453e-05
1.71442e-05
1.73741e-05
1.78655e-05
1.82958e-05
1.88256e-05
1.83502e-05
1.79086e-05
1.75817e-05
1.71921e-05
1.69802e-05
1.69738e-05
1.71856e-05
1.75995e-05
1.79407e-05
1.8343e-05
1.79415e-05
1.77106e-05
1.72511e-05
1.68045e-05
1.6568e-05
1.65663e-05
1.68138e-05
1.73208e-05
1.77165e-05
1.79132e-05
1.76014e-05
1.73228e-05
1.68064e-05
1.62312e-05
1.59764e-05
1.59796e-05
1.62427e-05
1.6805e-05
1.72535e-05
1.75864e-05
1.7191e-05
1.68184e-05
1.62426e-05
1.57072e-05
1.54518e-05
1.54586e-05
1.57101e-05
1.62319e-05
1.68032e-05
1.71887e-05
1.69762e-05
1.6567e-05
1.59768e-05
1.54555e-05
1.523e-05
1.52308e-05
1.54526e-05
1.59777e-05
1.65676e-05
1.69763e-05
1.69741e-05
1.6564e-05
1.59753e-05
1.54519e-05
1.52301e-05
1.52308e-05
1.54528e-05
1.59779e-05
1.65673e-05
1.69755e-05
1.71843e-05
1.67996e-05
1.62309e-05
1.57095e-05
1.54588e-05
1.54593e-05
1.5711e-05
1.62327e-05
1.68023e-05
1.71859e-05
1.75826e-05
1.72501e-05
1.68045e-05
1.62431e-05
1.59803e-05
1.59806e-05
1.62443e-05
1.68062e-05
1.72523e-05
1.75833e-05
1.79106e-05
1.77128e-05
1.73213e-05
1.68171e-05
1.65691e-05
1.65687e-05
1.68172e-05
1.73224e-05
1.77151e-05
1.791e-05
1.83447e-05
1.79401e-05
1.76017e-05
1.71907e-05
1.69763e-05
1.69746e-05
1.71884e-05
1.75998e-05
1.79389e-05
1.83404e-05
1.78856e-05
1.7442e-05
1.71978e-05
1.68709e-05
1.66701e-05
1.66616e-05
1.6857e-05
1.72066e-05
1.74662e-05
1.78801e-05
1.74725e-05
1.73739e-05
1.69938e-05
1.65876e-05
1.63596e-05
1.63565e-05
1.65917e-05
1.70544e-05
1.73681e-05
1.74384e-05
1.72161e-05
1.70645e-05
1.65971e-05
1.60587e-05
1.58109e-05
1.58132e-05
1.60676e-05
1.65907e-05
1.69865e-05
1.71927e-05
1.68681e-05
1.66006e-05
1.607e-05
1.55648e-05
1.53143e-05
1.53202e-05
1.55661e-05
1.60571e-05
1.65809e-05
1.68602e-05
1.66663e-05
1.63592e-05
1.58119e-05
1.53181e-05
1.51005e-05
1.51009e-05
1.5314e-05
1.58115e-05
1.63579e-05
1.66635e-05
1.66618e-05
1.63551e-05
1.58099e-05
1.5314e-05
1.51003e-05
1.51008e-05
1.53143e-05
1.58117e-05
1.63576e-05
1.66625e-05
1.6854e-05
1.65774e-05
1.60566e-05
1.55662e-05
1.53205e-05
1.5321e-05
1.55673e-05
1.6058e-05
1.658e-05
1.68564e-05
1.71857e-05
1.69833e-05
1.65914e-05
1.60695e-05
1.58148e-05
1.58148e-05
1.60702e-05
1.65928e-05
1.69857e-05
1.71882e-05
1.74314e-05
1.7365e-05
1.70569e-05
1.65974e-05
1.63607e-05
1.63598e-05
1.65965e-05
1.70573e-05
1.73674e-05
1.74334e-05
1.78748e-05
1.74627e-05
1.72085e-05
1.68632e-05
1.66645e-05
1.66626e-05
1.68606e-05
1.72075e-05
1.74641e-05
1.78751e-05
1.7557e-05
1.69314e-05
1.67453e-05
1.64678e-05
1.62804e-05
1.62717e-05
1.64513e-05
1.67484e-05
1.69524e-05
1.75539e-05
1.69637e-05
1.69725e-05
1.66562e-05
1.62835e-05
1.60657e-05
1.60627e-05
1.62865e-05
1.67116e-05
1.69592e-05
1.69258e-05
1.67658e-05
1.67282e-05
1.63049e-05
1.57984e-05
1.55572e-05
1.55593e-05
1.5807e-05
1.62962e-05
1.66449e-05
1.67366e-05
1.64686e-05
1.62992e-05
1.58105e-05
1.53312e-05
1.50851e-05
1.50907e-05
1.53317e-05
1.57964e-05
1.62765e-05
1.64567e-05
1.62813e-05
1.6069e-05
1.55598e-05
1.50896e-05
1.48776e-05
1.48774e-05
1.50842e-05
1.55576e-05
1.60652e-05
1.6276e-05
1.62754e-05
1.60645e-05
1.55582e-05
1.50857e-05
1.48774e-05
1.48773e-05
1.50841e-05
1.55573e-05
1.60643e-05
1.62746e-05
1.6451e-05
1.62743e-05
1.57977e-05
1.53336e-05
1.50919e-05
1.50913e-05
1.53323e-05
1.57963e-05
1.62739e-05
1.6452e-05
1.673e-05
1.66426e-05
1.6299e-05
1.5811e-05
1.55623e-05
1.55613e-05
1.5809e-05
1.62969e-05
1.66419e-05
1.67309e-05
1.69207e-05
1.69577e-05
1.67172e-05
1.6295e-05
1.6069e-05
1.60671e-05
1.62911e-05
1.67139e-05
1.69569e-05
1.69208e-05
1.75507e-05
1.69506e-05
1.67537e-05
1.64609e-05
1.62776e-05
1.62751e-05
1.64564e-05
1.67507e-05
1.69512e-05
1.75514e-05
1.75098e-05
1.64699e-05
1.62849e-05
1.60399e-05
1.5864e-05
1.58547e-05
1.60194e-05
1.6279e-05
1.64791e-05
1.75045e-05
1.65019e-05
1.65531e-05
1.62866e-05
1.59426e-05
1.57346e-05
1.57319e-05
1.59444e-05
1.63353e-05
1.65285e-05
1.64554e-05
1.63077e-05
1.63585e-05
1.59761e-05
1.54984e-05
1.52633e-05
1.52656e-05
1.55069e-05
1.59654e-05
1.62693e-05
1.62694e-05
1.60439e-05
1.59602e-05
1.55115e-05
1.50555e-05
1.48141e-05
1.48194e-05
1.50555e-05
1.54966e-05
1.59342e-05
1.60258e-05
1.58673e-05
1.57404e-05
1.52679e-05
1.48195e-05
1.46122e-05
1.46115e-05
1.48128e-05
1.52642e-05
1.57347e-05
1.5859e-05
1.58592e-05
1.57353e-05
1.52664e-05
1.48157e-05
1.46121e-05
1.46113e-05
1.48126e-05
1.52637e-05
1.57336e-05
1.58571e-05
1.60189e-05
1.59327e-05
1.5499e-05
1.50585e-05
1.48211e-05
1.48199e-05
1.50556e-05
1.54959e-05
1.59315e-05
1.60196e-05
1.626e-05
1.62676e-05
1.59691e-05
1.5512e-05
1.52694e-05
1.52678e-05
1.55086e-05
1.59659e-05
1.62661e-05
1.6261e-05
1.64463e-05
1.65286e-05
1.63426e-05
1.5954e-05
1.57391e-05
1.57368e-05
1.59493e-05
1.6338e-05
1.65266e-05
1.64471e-05
1.74978e-05
1.64799e-05
1.6287e-05
1.60302e-05
1.58608e-05
1.58582e-05
1.60248e-05
1.62822e-05
1.64782e-05
1.74985e-05
1.76874e-05
1.61041e-05
1.58455e-05
1.56168e-05
1.54528e-05
1.54448e-05
1.5598e-05
1.58371e-05
1.611e-05
1.76817e-05
1.61391e-05
1.61441e-05
1.59167e-05
1.56005e-05
1.54043e-05
1.5403e-05
1.56051e-05
1.59644e-05
1.61153e-05
1.60891e-05
1.58716e-05
1.59895e-05
1.56477e-05
1.51979e-05
1.49704e-05
1.49733e-05
1.52081e-05
1.5638e-05
1.58995e-05
1.58304e-05
1.56239e-05
1.56198e-05
1.52112e-05
1.47777e-05
1.45423e-05
1.45477e-05
1.47782e-05
1.51971e-05
1.55943e-05
1.56055e-05
1.54575e-05
1.54107e-05
1.49748e-05
1.45476e-05
1.43454e-05
1.43445e-05
1.45405e-05
1.4971e-05
1.54056e-05
1.54506e-05
1.5449e-05
1.54056e-05
1.49736e-05
1.4544e-05
1.43452e-05
1.43441e-05
1.45399e-05
1.49704e-05
1.54046e-05
1.54488e-05
1.55973e-05
1.55919e-05
1.51993e-05
1.47812e-05
1.45493e-05
1.45477e-05
1.47777e-05
1.5196e-05
1.55914e-05
1.55996e-05
1.58196e-05
1.58966e-05
1.56411e-05
1.52127e-05
1.49768e-05
1.4975e-05
1.52091e-05
1.56379e-05
1.58962e-05
1.5822e-05
1.60803e-05
1.61151e-05
1.59716e-05
1.5614e-05
1.54103e-05
1.54082e-05
1.56097e-05
1.59676e-05
1.61143e-05
1.60817e-05
1.76782e-05
1.61136e-05
1.58478e-05
1.56098e-05
1.54524e-05
1.54501e-05
1.5605e-05
1.58433e-05
1.61124e-05
1.76782e-05
1.76739e-05
1.59112e-05
1.5462e-05
1.52207e-05
1.50625e-05
1.50559e-05
1.52037e-05
1.54522e-05
1.59109e-05
1.76629e-05
1.59482e-05
1.57566e-05
1.55535e-05
1.52637e-05
1.50795e-05
1.50799e-05
1.52718e-05
1.56023e-05
1.57257e-05
1.58919e-05
1.54902e-05
1.56256e-05
1.53236e-05
1.49011e-05
1.46816e-05
1.46852e-05
1.49132e-05
1.53159e-05
1.55366e-05
1.5445e-05
1.52288e-05
1.52833e-05
1.49145e-05
1.45033e-05
1.42742e-05
1.42794e-05
1.45038e-05
1.49013e-05
1.52585e-05
1.52089e-05
1.50664e-05
1.50856e-05
1.46863e-05
1.42796e-05
1.40823e-05
1.4081e-05
1.42717e-05
1.46821e-05
1.50809e-05
1.50597e-05
1.50583e-05
1.50812e-05
1.4685e-05
1.42757e-05
1.40819e-05
1.40804e-05
1.42711e-05
1.46816e-05
1.50804e-05
1.50583e-05
1.52012e-05
1.5257e-05
1.49036e-05
1.45066e-05
1.42805e-05
1.42789e-05
1.45031e-05
1.49005e-05
1.5257e-05
1.5204e-05
1.54338e-05
1.55346e-05
1.53186e-05
1.49168e-05
1.46881e-05
1.46865e-05
1.49137e-05
1.53162e-05
1.55347e-05
1.54368e-05
1.58812e-05
1.57265e-05
1.56086e-05
1.5279e-05
1.50862e-05
1.50845e-05
1.52757e-05
1.56055e-05
1.57259e-05
1.58838e-05
1.76577e-05
1.59163e-05
1.54628e-05
1.52136e-05
1.50618e-05
1.50603e-05
1.52101e-05
1.54592e-05
1.5915e-05
1.76585e-05
1.60049e-05
1.591e-05
1.51562e-05
1.48641e-05
1.47044e-05
1.4701e-05
1.48549e-05
1.51533e-05
1.59157e-05
1.60023e-05
1.59493e-05
1.54104e-05
1.52088e-05
1.49432e-05
1.47715e-05
1.47739e-05
1.49562e-05
1.52613e-05
1.53821e-05
1.58955e-05
1.51856e-05
1.52806e-05
1.50167e-05
1.46211e-05
1.44104e-05
1.44145e-05
1.46345e-05
1.5011e-05
1.51943e-05
1.5143e-05
1.48731e-05
1.49631e-05
1.46342e-05
1.42451e-05
1.40228e-05
1.40275e-05
1.42448e-05
1.46207e-05
1.49392e-05
1.48555e-05
1.47083e-05
1.47769e-05
1.44141e-05
1.40276e-05
1.38356e-05
1.38337e-05
1.40184e-05
1.44086e-05
1.47719e-05
1.4703e-05
1.47026e-05
1.47734e-05
1.44127e-05
1.40231e-05
1.38344e-05
1.38326e-05
1.40175e-05
1.44082e-05
1.47719e-05
1.47027e-05
1.48514e-05
1.49393e-05
1.46233e-05
1.42471e-05
1.40273e-05
1.40255e-05
1.42432e-05
1.46198e-05
1.49386e-05
1.48533e-05
1.51354e-05
1.51933e-05
1.50129e-05
1.46363e-05
1.44152e-05
1.44137e-05
1.46332e-05
1.50101e-05
1.51927e-05
1.51374e-05
1.58884e-05
1.5383e-05
1.52656e-05
1.49601e-05
1.47777e-05
1.47763e-05
1.49571e-05
1.52625e-05
1.53819e-05
1.58897e-05
1.60006e-05
1.59213e-05
1.51619e-05
1.48612e-05
1.47053e-05
1.47044e-05
1.48587e-05
1.51588e-05
1.59202e-05
1.60009e-05
1.1588e-05
1.60481e-05
1.497e-05
1.45707e-05
1.43916e-05
1.43901e-05
1.45656e-05
1.49698e-05
1.60524e-05
1.15756e-05
1.60862e-05
1.5125e-05
1.48852e-05
1.46368e-05
1.44752e-05
1.44787e-05
1.46522e-05
1.49386e-05
1.50961e-05
1.603e-05
1.49971e-05
1.49544e-05
1.4722e-05
1.43514e-05
1.41488e-05
1.41528e-05
1.43647e-05
1.47165e-05
1.48691e-05
1.49535e-05
1.45774e-05
1.46551e-05
1.4364e-05
1.39963e-05
1.37805e-05
1.37844e-05
1.39946e-05
1.43494e-05
1.46307e-05
1.45597e-05
1.43935e-05
1.44791e-05
1.4152e-05
1.37851e-05
1.35982e-05
1.35958e-05
1.37745e-05
1.41451e-05
1.44735e-05
1.43881e-05
1.43897e-05
1.44764e-05
1.41501e-05
1.37798e-05
1.35965e-05
1.35944e-05
1.37737e-05
1.4145e-05
1.44741e-05
1.43888e-05
1.45592e-05
1.4633e-05
1.43524e-05
1.39964e-05
1.37834e-05
1.37818e-05
1.39928e-05
1.4349e-05
1.46319e-05
1.45599e-05
1.49491e-05
1.48701e-05
1.47178e-05
1.43648e-05
1.41519e-05
1.41508e-05
1.43624e-05
1.47155e-05
1.48691e-05
1.495e-05
1.60234e-05
1.50975e-05
1.49405e-05
1.46527e-05
1.44799e-05
1.4479e-05
1.46506e-05
1.49379e-05
1.50959e-05
1.60243e-05
1.15695e-05
1.60572e-05
1.49744e-05
1.45669e-05
1.4391e-05
1.43906e-05
1.45652e-05
1.49716e-05
1.60549e-05
1.15711e-05
2.52519e-05
1.59458e-05
1.49074e-05
1.43521e-05
1.41348e-05
1.41362e-05
1.43545e-05
1.49154e-05
1.59581e-05
2.51951e-05
1.59829e-05
1.49145e-05
1.45867e-05
1.43455e-05
1.4193e-05
1.41981e-05
1.43652e-05
1.46445e-05
1.4891e-05
1.59333e-05
1.49321e-05
1.46546e-05
1.44421e-05
1.4095e-05
1.39011e-05
1.39054e-05
1.41094e-05
1.44385e-05
1.45733e-05
1.48934e-05
1.43575e-05
1.43637e-05
1.41075e-05
1.37608e-05
1.35519e-05
1.35556e-05
1.37587e-05
1.40929e-05
1.43411e-05
1.4344e-05
1.41364e-05
1.41966e-05
1.39038e-05
1.35563e-05
1.33752e-05
1.33727e-05
1.35456e-05
1.38968e-05
1.41919e-05
1.41337e-05
1.4135e-05
1.41945e-05
1.39017e-05
1.35507e-05
1.33734e-05
1.33716e-05
1.35451e-05
1.38971e-05
1.41931e-05
1.41354e-05
1.4346e-05
1.43437e-05
1.40956e-05
1.37601e-05
1.35547e-05
1.35535e-05
1.37575e-05
1.40933e-05
1.43435e-05
1.4347e-05
1.48928e-05
1.45744e-05
1.44385e-05
1.41082e-05
1.39041e-05
1.39034e-05
1.41069e-05
1.44374e-05
1.45745e-05
1.48935e-05
1.593e-05
1.4891e-05
1.46432e-05
1.43629e-05
1.41986e-05
1.41983e-05
1.43623e-05
1.46424e-05
1.4891e-05
1.59307e-05
2.51929e-05
1.59611e-05
1.4916e-05
1.43523e-05
1.41369e-05
1.4137e-05
1.43519e-05
1.49145e-05
1.59598e-05
2.51938e-05
7.9245e-05
1.4756e-05
1.49358e-05
1.42284e-05
1.3952e-05
1.39547e-05
1.4234e-05
1.49471e-05
1.47662e-05
7.91218e-05
1.47892e-05
1.47873e-05
1.43234e-05
1.4071e-05
1.39231e-05
1.39287e-05
1.40918e-05
1.43816e-05
1.4764e-05
1.47421e-05
1.4959e-05
1.43902e-05
1.41749e-05
1.38479e-05
1.36615e-05
1.36656e-05
1.38617e-05
1.41706e-05
1.43089e-05
1.49195e-05
1.42336e-05
1.40898e-05
1.38611e-05
1.35339e-05
1.33312e-05
1.33344e-05
1.35305e-05
1.3845e-05
1.40657e-05
1.42192e-05
1.39535e-05
1.39277e-05
1.36654e-05
1.33362e-05
1.31606e-05
1.31579e-05
1.33249e-05
1.36571e-05
1.39216e-05
1.39501e-05
1.39523e-05
1.3925e-05
1.36624e-05
1.33303e-05
1.3159e-05
1.31573e-05
1.33248e-05
1.36577e-05
1.39228e-05
1.39518e-05
1.42224e-05
1.40689e-05
1.38476e-05
1.35322e-05
1.33344e-05
1.33335e-05
1.35303e-05
1.38457e-05
1.40686e-05
1.4223e-05
1.49202e-05
1.43101e-05
1.41696e-05
1.386e-05
1.36649e-05
1.36646e-05
1.38597e-05
1.41697e-05
1.43107e-05
1.49211e-05
1.47381e-05
1.47626e-05
1.43774e-05
1.40874e-05
1.39287e-05
1.39289e-05
1.40882e-05
1.43782e-05
1.47637e-05
1.47401e-05
7.91167e-05
1.47655e-05
1.49419e-05
1.42275e-05
1.39533e-05
1.39542e-05
1.42291e-05
1.49433e-05
1.47658e-05
7.91193e-05
0.000186471
1.1998e-05
1.48637e-05
1.41791e-05
1.38428e-05
1.38462e-05
1.41865e-05
1.48755e-05
1.20066e-05
0.000186249
1.20248e-05
1.46946e-05
1.41079e-05
1.38192e-05
1.3671e-05
1.36764e-05
1.38392e-05
1.4164e-05
1.46692e-05
1.19857e-05
1.48864e-05
1.41751e-05
1.39255e-05
1.36149e-05
1.34353e-05
1.34387e-05
1.36264e-05
1.3918e-05
1.40913e-05
1.48463e-05
1.41867e-05
1.38404e-05
1.36292e-05
1.33201e-05
1.31234e-05
1.31259e-05
1.33144e-05
1.36095e-05
1.38127e-05
1.41705e-05
1.38474e-05
1.36783e-05
1.34411e-05
1.31295e-05
1.29593e-05
1.2956e-05
1.31164e-05
1.34297e-05
1.36685e-05
1.38414e-05
1.38462e-05
1.36751e-05
1.34376e-05
1.31236e-05
1.29583e-05
1.29561e-05
1.31167e-05
1.34301e-05
1.36693e-05
1.38428e-05
1.41768e-05
1.38187e-05
1.36142e-05
1.33184e-05
1.31277e-05
1.31264e-05
1.3315e-05
1.361e-05
1.38146e-05
1.41742e-05
1.48513e-05
1.40953e-05
1.3919e-05
1.36267e-05
1.34397e-05
1.3439e-05
1.3625e-05
1.39165e-05
1.40923e-05
1.48486e-05
1.19892e-05
1.46708e-05
1.41615e-05
1.38365e-05
1.36776e-05
1.36774e-05
1.38357e-05
1.41598e-05
1.46683e-05
1.19863e-05
0.000186245
1.20065e-05
1.487e-05
1.41805e-05
1.38461e-05
1.38468e-05
1.41817e-05
1.48712e-05
1.20056e-05
0.000186246
0.000364745
1.73309e-05
1.42379e-05
1.41156e-05
1.3774e-05
1.37768e-05
1.41211e-05
1.4244e-05
1.7345e-05
0.000364404
1.73532e-05
1.44758e-05
1.39429e-05
1.35886e-05
1.34333e-05
1.34385e-05
1.36083e-05
1.39978e-05
1.44508e-05
1.73063e-05
1.42572e-05
1.40098e-05
1.36871e-05
1.33874e-05
1.32142e-05
1.32172e-05
1.33978e-05
1.36781e-05
1.39258e-05
1.42183e-05
1.4124e-05
1.36116e-05
1.34032e-05
1.31111e-05
1.29204e-05
1.29224e-05
1.31042e-05
1.33818e-05
1.35827e-05
1.41069e-05
1.37798e-05
1.34427e-05
1.32226e-05
1.29281e-05
1.27633e-05
1.27599e-05
1.29141e-05
1.32097e-05
1.34316e-05
1.37732e-05
1.37787e-05
1.34396e-05
1.32191e-05
1.29228e-05
1.27634e-05
1.27609e-05
1.29151e-05
1.32103e-05
1.34323e-05
1.3774e-05
1.41149e-05
1.3591e-05
1.33892e-05
1.3111e-05
1.29273e-05
1.29255e-05
1.31064e-05
1.33831e-05
1.35849e-05
1.411e-05
1.42281e-05
1.39342e-05
1.36828e-05
1.34018e-05
1.32217e-05
1.32205e-05
1.33986e-05
1.36781e-05
1.3928e-05
1.42207e-05
1.7303e-05
1.44587e-05
1.39998e-05
1.36094e-05
1.34428e-05
1.3442e-05
1.36071e-05
1.39955e-05
1.44518e-05
1.73094e-05
0.000364407
1.73334e-05
1.42456e-05
1.41199e-05
1.37794e-05
1.37793e-05
1.41186e-05
1.42425e-05
1.73427e-05
0.000364403
0.000623142
4.63231e-05
1.25302e-05
1.38011e-05
1.36341e-05
1.36384e-05
1.38117e-05
1.25425e-05
4.63619e-05
0.000622691
4.63737e-05
1.38146e-05
1.38241e-05
1.33873e-05
1.32179e-05
1.32245e-05
1.34114e-05
1.38855e-05
1.38015e-05
4.62653e-05
1.25429e-05
1.38916e-05
1.34666e-05
1.31701e-05
1.30034e-05
1.30074e-05
1.31831e-05
1.34618e-05
1.38144e-05
1.25204e-05
1.38092e-05
1.34108e-05
1.31857e-05
1.29094e-05
1.27261e-05
1.2729e-05
1.2905e-05
1.31678e-05
1.33869e-05
1.37999e-05
1.36389e-05
1.3226e-05
1.30109e-05
1.27334e-05
1.25755e-05
1.25729e-05
1.2722e-05
1.30014e-05
1.32195e-05
1.36381e-05
1.36391e-05
1.32232e-05
1.30076e-05
1.27287e-05
1.25763e-05
1.25747e-05
1.27234e-05
1.30024e-05
1.32205e-05
1.36395e-05
1.38056e-05
1.33918e-05
1.31728e-05
1.29108e-05
1.27349e-05
1.27338e-05
1.29085e-05
1.31703e-05
1.33904e-05
1.3805e-05
1.25306e-05
1.38212e-05
1.34654e-05
1.31869e-05
1.30131e-05
1.30126e-05
1.3186e-05
1.34641e-05
1.38196e-05
1.25281e-05
4.62516e-05
1.38086e-05
1.38873e-05
1.34127e-05
1.323e-05
1.32301e-05
1.34128e-05
1.38869e-05
1.38076e-05
4.62623e-05
0.000622696
4.63282e-05
1.25457e-05
1.38131e-05
1.36438e-05
1.36437e-05
1.38125e-05
1.25447e-05
4.63422e-05
0.000622689
0.000957764
0.000105032
1.20272e-05
1.28776e-05
1.3181e-05
1.31861e-05
1.28905e-05
1.20428e-05
0.000105096
0.000957273
0.000105144
1.24572e-05
1.37199e-05
1.3217e-05
1.30239e-05
1.30314e-05
1.3244e-05
1.37867e-05
1.24556e-05
0.000104909
1.20265e-05
1.3786e-05
1.32677e-05
1.29591e-05
1.27964e-05
1.28013e-05
1.2975e-05
1.32675e-05
1.37156e-05
1.20065e-05
1.28786e-05
1.32377e-05
1.29734e-05
1.2709e-05
1.25328e-05
1.25367e-05
1.27075e-05
1.29597e-05
1.32189e-05
1.28773e-05
1.31797e-05
1.30272e-05
1.28006e-05
1.25384e-05
1.23871e-05
1.23858e-05
1.25302e-05
1.27954e-05
1.30256e-05
1.31846e-05
1.31802e-05
1.30234e-05
1.27962e-05
1.2533e-05
1.23874e-05
1.2387e-05
1.2531e-05
1.27959e-05
1.30263e-05
1.3186e-05
1.28767e-05
1.32165e-05
1.29581e-05
1.27083e-05
1.25399e-05
1.25401e-05
1.27096e-05
1.2961e-05
1.32213e-05
1.28824e-05
1.20092e-05
1.3714e-05
1.3264e-05
1.29731e-05
1.28033e-05
1.28042e-05
1.29759e-05
1.32684e-05
1.37194e-05
1.20165e-05
0.000104909
1.24514e-05
1.37806e-05
1.32391e-05
1.30322e-05
1.30335e-05
1.32428e-05
1.37859e-05
1.2458e-05
0.000104906
0.000957261
0.000105059
1.20294e-05
1.28844e-05
1.31861e-05
1.31873e-05
1.28873e-05
1.20269e-05
0.000105059
0.000957268
0.00135354
0.000203407
2.36848e-05
1.14915e-05
1.21412e-05
1.21473e-05
1.15053e-05
2.37094e-05
0.000203502
0.00135308
0.000203598
1.14699e-05
1.35419e-05
1.30705e-05
1.28529e-05
1.28606e-05
1.30981e-05
1.36096e-05
1.1472e-05
0.000203207
2.37031e-05
1.36054e-05
1.3103e-05
1.27616e-05
1.25987e-05
1.26039e-05
1.27782e-05
1.31044e-05
1.35396e-05
2.36349e-05
1.14832e-05
1.30891e-05
1.27747e-05
1.25169e-05
1.23472e-05
1.23515e-05
1.25164e-05
1.27623e-05
1.30721e-05
1.14843e-05
1.21359e-05
1.28535e-05
1.26006e-05
1.23514e-05
1.22065e-05