/*--------------------------------*- C++ -*----------------------------------*\
| =========                 |                                                 |
| \\      /  F ield         | OpenFOAM: The Open Source CFD Toolbox           |
|  \\    /   O peration     | Version:  2406                                  |
|   \\  /    A nd           | Website:  www.openfoam.com                      |
|    \\/     M anipulation  |                                                 |
\*---------------------------------------------------------------------------*/
FoamFile
{
    version     2.0;
    format      ascii;
    arch        "LSB;label=32;scalar=64";
    class       volSymmTensorField;
    location    "250";
    object      turbulenceProperties:R;
}
// * * * * * * * * * * * * * * * * * * * * * * * * * * * * * * * * * * * * * //

dimensions      [0 2 -2 0 0 0 0];

internalField   nonuniform List<symmTensor> 
25000
(
(2.64307e-05 -1.52768e-06 -5.93388e-07 2.64385e-05 -5.93004e-07 2.19366e-05)
(2.61338e-05 6.89468e-07 -4.11981e-07 2.47406e-05 -5.25751e-07 2.06346e-05)
(2.36895e-05 4.23944e-07 -2.90608e-07 2.31956e-05 -5.41941e-07 1.88292e-05)
(2.31319e-05 2.6189e-07 -1.73371e-07 2.29569e-05 -5.4449e-07 1.84513e-05)
(2.28573e-05 9.18561e-08 -5.74371e-08 2.2833e-05 -5.44938e-07 1.82675e-05)
(2.28595e-05 -8.93455e-08 5.85503e-08 2.28406e-05 -5.44902e-07 1.82714e-05)
(2.31346e-05 -2.58041e-07 1.74678e-07 2.2978e-05 -5.44347e-07 1.84599e-05)
(2.36765e-05 -4.1688e-07 2.92475e-07 2.32204e-05 -5.41838e-07 1.88298e-05)
(2.62161e-05 -6.90465e-07 4.15102e-07 2.48596e-05 -5.2609e-07 2.07074e-05)
(2.65625e-05 1.49143e-06 5.9197e-07 2.65605e-05 -5.91818e-07 2.19868e-05)
(2.47557e-05 6.86168e-07 -5.26066e-07 2.61559e-05 -4.11949e-07 2.06486e-05)
(2.48945e-05 5.00969e-07 -4.09682e-07 2.49028e-05 -4.09449e-07 2.00017e-05)
(2.27367e-05 3.30076e-07 -3.04266e-07 2.2802e-05 -4.18724e-07 1.82305e-05)
(2.16242e-05 1.91144e-07 -1.8413e-07 2.1673e-05 -4.26836e-07 1.72963e-05)
(2.10882e-05 6.48773e-08 -6.12392e-08 2.11234e-05 -4.31101e-07 1.68437e-05)
(2.10857e-05 -5.72654e-08 6.2181e-08 2.11214e-05 -4.31191e-07 1.68417e-05)
(2.16134e-05 -1.81545e-07 1.852e-07 2.1663e-05 -4.27147e-07 1.7287e-05)
(2.27197e-05 -3.15844e-07 3.05792e-07 2.27849e-05 -4.19776e-07 1.82126e-05)
(2.4842e-05 -4.76425e-07 4.11151e-07 2.48389e-05 -4.11023e-07 1.99489e-05)
(2.4838e-05 -6.8939e-07 5.2591e-07 2.619e-05 -4.14807e-07 2.06882e-05)
(2.3216e-05 4.17051e-07 -5.4202e-07 2.37082e-05 -2.9076e-07 1.88429e-05)
(2.28171e-05 3.27156e-07 -4.1923e-07 2.27585e-05 -3.04529e-07 1.8243e-05)
(2.11371e-05 2.23964e-07 -3.08982e-07 2.11407e-05 -3.08976e-07 1.68837e-05)
(2.01399e-05 1.34235e-07 -1.87843e-07 2.01552e-05 -3.11963e-07 1.60645e-05)
(1.96563e-05 4.63121e-08 -6.26744e-08 1.9674e-05 -3.13793e-07 1.56641e-05)
(1.96552e-05 -3.98133e-08 6.33791e-08 1.9672e-05 -3.13892e-07 1.56627e-05)
(2.01358e-05 -1.26868e-07 1.88613e-07 2.01481e-05 -3.12326e-07 1.60593e-05)
(2.11242e-05 -2.14998e-07 3.09754e-07 2.11214e-05 -3.09617e-07 1.68698e-05)
(2.27763e-05 -3.16027e-07 4.19519e-07 2.2705e-05 -3.05378e-07 1.82051e-05)
(2.32062e-05 -4.15772e-07 5.41764e-07 2.36589e-05 -2.92306e-07 1.88166e-05)
(2.29711e-05 2.5909e-07 -5.44504e-07 2.31422e-05 -1.73528e-07 1.84606e-05)
(2.16782e-05 1.88105e-07 -4.2692e-07 2.1632e-05 -1.84209e-07 1.73012e-05)
(2.01567e-05 1.33102e-07 -3.12004e-07 2.01458e-05 -1.87907e-07 1.60672e-05)
(1.91761e-05 8.1792e-08 -1.8963e-07 1.9178e-05 -1.89676e-07 1.52652e-05)
(1.86921e-05 2.88741e-08 -6.338e-08 1.86979e-05 -1.90628e-07 1.48673e-05)
(1.86928e-05 -2.38237e-08 6.38684e-08 1.86974e-05 -1.9073e-07 1.48672e-05)
(1.91746e-05 -7.65196e-08 1.90124e-07 1.91729e-05 -1.89954e-07 1.52623e-05)
(2.0149e-05 -1.27508e-07 3.12416e-07 2.0132e-05 -1.88397e-07 1.60584e-05)
(2.1664e-05 -1.82631e-07 4.27213e-07 2.16085e-05 -1.84964e-07 1.72856e-05)
(2.29679e-05 -2.57389e-07 5.44211e-07 2.31197e-05 -1.7443e-07 1.84496e-05)
(2.28418e-05 9.04954e-08 -5.44977e-07 2.28624e-05 -5.75563e-08 1.82731e-05)
(2.11298e-05 6.27561e-08 -4.31123e-07 2.10944e-05 -6.1324e-08 1.68488e-05)
(1.9675e-05 4.50253e-08 -3.13773e-07 1.96595e-05 -6.27387e-08 1.56657e-05)
(1.86978e-05 2.83732e-08 -1.90597e-07 1.86946e-05 -6.34427e-08 1.48681e-05)
(1.82149e-05 1.0775e-08 -6.37975e-08 1.82159e-05 -6.38598e-08 1.44718e-05)
(1.82152e-05 -6.97376e-09 6.41163e-08 1.82151e-05 -6.39269e-08 1.44716e-05)
(1.86973e-05 -2.46712e-08 1.90889e-07 1.86909e-05 -6.36492e-08 1.48666e-05)
(1.96729e-05 -4.14739e-08 3.14037e-07 1.96524e-05 -6.31041e-08 1.5662e-05)
(2.11216e-05 -5.94178e-08 4.31274e-07 2.108e-05 -6.18362e-08 1.68396e-05)
(2.28359e-05 -8.92524e-08 5.44671e-07 2.28467e-05 -5.81523e-08 1.82642e-05)
(2.28436e-05 -8.97663e-08 -5.4493e-07 2.28605e-05 5.84722e-08 1.8273e-05)
(2.11253e-05 -5.87159e-08 -4.31208e-07 2.10889e-05 6.21132e-08 1.68446e-05)
(1.96737e-05 -4.09391e-08 -3.13869e-07 1.96575e-05 6.3316e-08 1.56643e-05)
(1.86963e-05 -2.44266e-08 -1.90666e-07 1.86931e-05 6.37999e-08 1.48671e-05)
(1.82143e-05 -7.20582e-09 -6.38679e-08 1.82158e-05 6.40527e-08 1.44716e-05)
(1.82148e-05 9.98933e-09 6.40663e-08 1.82153e-05 6.39993e-08 1.44716e-05)
(1.86973e-05 2.70651e-08 1.90855e-07 1.86914e-05 6.36464e-08 1.48668e-05)
(1.9673e-05 4.3282e-08 3.14012e-07 1.96529e-05 6.30541e-08 1.56623e-05)
(2.11216e-05 6.07432e-08 4.31255e-07 2.10805e-05 6.17548e-08 1.68398e-05)
(2.2837e-05 9.06955e-08 5.44656e-07 2.28479e-05 5.80442e-08 1.82652e-05)
(2.29785e-05 -2.58321e-07 -5.44431e-07 2.31338e-05 1.74636e-07 1.84598e-05)
(2.16667e-05 -1.82498e-07 -4.27147e-07 2.1616e-05 1.85142e-07 1.72897e-05)
(2.01484e-05 -1.27678e-07 -3.12268e-07 2.01362e-05 1.88544e-07 1.60598e-05)
(1.91731e-05 -7.71054e-08 -1.89911e-07 1.91756e-05 1.90071e-07 1.52628e-05)
(1.86913e-05 -2.49893e-08 -6.35953e-08 1.86986e-05 1.90848e-07 1.48671e-05)
(1.8692e-05 2.69353e-08 6.37138e-08 1.86986e-05 1.9081e-07 1.48674e-05)
(1.9174e-05 7.89043e-08 1.90018e-07 1.91743e-05 1.89958e-07 1.52628e-05)
(2.01487e-05 1.29242e-07 3.12346e-07 2.01334e-05 1.88355e-07 1.6059e-05)
(2.16643e-05 1.83884e-07 4.27158e-07 2.16101e-05 1.84892e-07 1.72865e-05)
(2.2971e-05 2.58781e-07 5.44165e-07 2.31231e-05 1.74331e-07 1.84524e-05)
(2.32176e-05 -4.16662e-07 -5.41902e-07 2.36735e-05 2.92443e-07 1.88275e-05)
(2.27774e-05 -3.16196e-07 -4.19441e-07 2.27116e-05 3.05511e-07 1.82082e-05)
(2.11238e-05 -2.15635e-07 -3.09599e-07 2.11266e-05 3.09724e-07 1.68718e-05)
(2.01339e-05 -1.28008e-07 -1.88378e-07 2.01516e-05 3.12429e-07 1.606e-05)
(1.96527e-05 -4.18404e-08 -6.30536e-08 1.9674e-05 3.14006e-07 1.56626e-05)
(1.96532e-05 4.30418e-08 6.31145e-08 1.96737e-05 3.1398e-07 1.56627e-05)
(2.01347e-05 1.29112e-07 1.88435e-07 2.01504e-05 3.12338e-07 1.606e-05)
(2.11239e-05 2.16627e-07 3.09633e-07 2.1124e-05 3.09588e-07 1.6871e-05)
(2.27765e-05 3.17125e-07 4.19426e-07 2.27075e-05 3.05323e-07 1.82064e-05)
(2.32111e-05 4.17075e-07 5.41684e-07 2.36646e-05 2.92225e-07 1.88212e-05)
(2.48507e-05 -6.89557e-07 -5.25993e-07 2.62067e-05 4.1494e-07 2.07007e-05)
(2.48417e-05 -4.76622e-07 -4.11035e-07 2.48445e-05 4.11149e-07 1.99511e-05)
(2.27179e-05 -3.16771e-07 -3.05622e-07 2.27895e-05 4.19884e-07 1.82139e-05)
(2.16098e-05 -1.83123e-07 -1.84932e-07 2.16659e-05 4.27227e-07 1.72869e-05)
(2.10805e-05 -5.98483e-08 -6.17919e-08 2.11227e-05 4.31277e-07 1.68402e-05)
(2.10808e-05 6.03588e-08 6.18064e-08 2.11224e-05 4.31251e-07 1.68403e-05)
(2.16107e-05 1.83595e-07 1.84946e-07 2.1665e-05 4.27153e-07 1.72869e-05)
(2.27183e-05 3.17213e-07 3.05628e-07 2.27873e-05 4.19761e-07 1.82132e-05)
(2.48415e-05 4.77291e-07 4.11022e-07 2.48413e-05 4.10993e-07 1.99498e-05)
(2.48443e-05 6.90172e-07 5.25805e-07 2.6198e-05 4.14762e-07 2.06944e-05)
(2.6563e-05 1.49292e-06 -5.919e-07 2.65653e-05 5.92028e-07 2.19903e-05)
(2.61945e-05 -6.89404e-07 -4.14957e-07 2.48417e-05 5.26166e-07 2.06907e-05)
(2.3659e-05 -4.16081e-07 -2.923e-07 2.3206e-05 5.4183e-07 1.88167e-05)
(2.31193e-05 -2.5778e-07 -1.74403e-07 2.29674e-05 5.44258e-07 1.84493e-05)
(2.28462e-05 -8.96761e-08 -5.81158e-08 2.28353e-05 5.44709e-07 1.82638e-05)
(2.28478e-05 9.02963e-08 5.80867e-08 2.28369e-05 5.44686e-07 1.82651e-05)
(2.31233e-05 2.58407e-07 1.74374e-07 2.29711e-05 5.44182e-07 1.84525e-05)
(2.36654e-05 4.16803e-07 2.92267e-07 2.32117e-05 5.417e-07 1.88216e-05)
(2.62042e-05 6.9031e-07 4.14932e-07 2.48497e-05 5.25972e-07 2.06983e-05)
(2.65599e-05 -1.49162e-06 5.91771e-07 2.65595e-05 5.91752e-07 2.19856e-05)
(3.68166e-05 -1.26818e-06 1.16265e-06 3.68091e-05 1.16391e-06 3.04079e-05)
(3.65207e-05 6.81859e-07 8.3301e-07 3.48368e-05 1.09306e-06 2.91697e-05)
(3.35782e-05 1.77763e-07 5.96032e-07 3.30919e-05 9.98776e-07 2.69372e-05)
(3.29865e-05 1.67821e-07 3.57771e-07 3.27166e-05 9.60246e-07 2.64574e-05)
(3.26874e-05 6.09519e-08 1.20033e-07 3.25126e-05 9.37279e-07 2.62071e-05)
(3.26917e-05 -6.40859e-08 -1.17993e-07 3.25114e-05 9.37152e-07 2.62083e-05)
(3.30045e-05 -1.72655e-07 -3.55989e-07 3.27152e-05 9.59744e-07 2.64644e-05)
(3.36177e-05 -1.87034e-07 -5.94451e-07 3.30914e-05 9.98012e-07 2.69543e-05)
(3.64623e-05 -6.82581e-07 -8.309e-07 3.47436e-05 1.09191e-06 2.9113e-05)
(3.65544e-05 1.29979e-06 -1.16106e-06 3.65544e-05 1.16136e-06 3.02289e-05)
(3.48377e-05 6.85687e-07 1.09253e-06 3.65167e-05 8.34394e-07 2.91658e-05)
(3.38498e-05 3.42261e-07 7.96177e-07 3.38439e-05 7.9717e-07 2.73057e-05)
(3.24907e-05 1.40698e-07 5.48684e-07 3.25349e-05 7.5317e-07 2.61102e-05)
(3.20065e-05 6.52039e-08 3.27444e-07 3.19147e-05 7.23255e-07 2.56006e-05)
(3.16691e-05 1.81615e-08 1.09057e-07 3.15334e-05 7.07071e-07 2.52811e-05)
(3.16738e-05 -2.45356e-08 -1.07433e-07 3.15364e-05 7.06856e-07 2.5284e-05)
(3.20232e-05 -7.40896e-08 -3.26083e-07 3.19271e-05 7.22677e-07 2.56116e-05)
(3.25603e-05 -1.57204e-07 -5.48827e-07 3.26e-05 7.53912e-07 2.61579e-05)
(3.38904e-05 -3.70237e-07 -7.95187e-07 3.38926e-05 7.95745e-07 2.73444e-05)
(3.47344e-05 -6.82659e-07 -1.09061e-06 3.64538e-05 8.30726e-07 2.91088e-05)
(3.30767e-05 1.82672e-07 9.98344e-07 3.35634e-05 5.96133e-07 2.69252e-05)
(3.25722e-05 1.43637e-07 7.54014e-07 3.25217e-05 5.50395e-07 2.61312e-05)
(3.14045e-05 1.25431e-07 5.1985e-07 3.14016e-05 5.20451e-07 2.51248e-05)
(3.09704e-05 7.18581e-08 3.08456e-07 3.09001e-05 4.97904e-07 2.46965e-05)
(3.07302e-05 2.10665e-08 1.02599e-07 3.06401e-05 4.86717e-07 2.44688e-05)
(3.07331e-05 -2.72498e-08 -1.01384e-07 3.06431e-05 4.86531e-07 2.44711e-05)
(3.09835e-05 -7.94497e-08 -3.07473e-07 3.09141e-05 4.97524e-07 2.47064e-05)
(3.14185e-05 -1.35771e-07 -5.18948e-07 3.14204e-05 5.19666e-07 2.5138e-05)
(3.25587e-05 -1.56699e-07 -7.51635e-07 3.25234e-05 5.48302e-07 2.6133e-05)
(3.30961e-05 -1.87308e-07 -9.97508e-07 3.36251e-05 5.95105e-07 2.69597e-05)
(3.27095e-05 1.69962e-07 9.59952e-07 3.29821e-05 3.57565e-07 2.6453e-05)
(3.19139e-05 6.75325e-08 7.22777e-07 3.20035e-05 3.27646e-07 2.55986e-05)
(3.09059e-05 7.27035e-08 4.97529e-07 3.09728e-05 3.08877e-07 2.46989e-05)
(3.03928e-05 4.63882e-08 2.93445e-07 3.03915e-05 2.93833e-07 2.42108e-05)
(3.01263e-05 1.35353e-08 9.72987e-08 3.00958e-05 2.85754e-07 2.39629e-05)
(3.01309e-05 -1.86033e-08 -9.63907e-08 3.01011e-05 2.85669e-07 2.39663e-05)
(3.03973e-05 -5.19962e-08 -2.92622e-07 3.03986e-05 2.93449e-07 2.42154e-05)
(3.0909e-05 -7.88726e-08 -4.96636e-07 3.0982e-05 3.08214e-07 2.47046e-05)
(3.19265e-05 -7.34476e-08 -7.21977e-07 3.20274e-05 3.26906e-07 2.56134e-05)
(3.27234e-05 -1.7281e-07 -9.59361e-07 3.30171e-05 3.56896e-07 2.64728e-05)
(3.2511e-05 6.19684e-08 9.37276e-07 3.26878e-05 1.19781e-07 2.62066e-05)
(3.15312e-05 1.9658e-08 7.06682e-07 3.16666e-05 1.09019e-07 2.5279e-05)
(3.06401e-05 2.19456e-08 4.86298e-07 3.07286e-05 1.02728e-07 2.4468e-05)
(3.00996e-05 1.38466e-08 2.85466e-07 3.01284e-05 9.75294e-08 2.39647e-05)
(2.98447e-05 3.27192e-09 9.44733e-08 2.9844e-05 9.47115e-08 2.37253e-05)
(2.98455e-05 -7.0656e-09 -9.37573e-08 2.98457e-05 9.46042e-08 2.37263e-05)
(3.00991e-05 -1.77098e-08 -2.84754e-07 3.01306e-05 9.72247e-08 2.39658e-05)
(3.06453e-05 -2.57145e-08 -4.85719e-07 3.07389e-05 1.02288e-07 2.44742e-05)
(3.15403e-05 -2.28672e-08 -7.06163e-07 3.16835e-05 1.08443e-07 2.52893e-05)
(3.25195e-05 -6.35688e-08 -9.36715e-07 3.27072e-05 1.19095e-07 2.62177e-05)
(3.25123e-05 -6.38053e-08 9.37158e-07 3.26937e-05 -1.18234e-07 2.62095e-05)
(3.15356e-05 -2.36411e-08 7.06642e-07 3.16731e-05 -1.07548e-07 2.52834e-05)
(3.06426e-05 -2.65791e-08 4.86222e-07 3.0732e-05 -1.01371e-07 2.44704e-05)
(3.00985e-05 -1.82458e-08 2.85324e-07 3.01273e-05 -9.62769e-08 2.39643e-05)
(2.98463e-05 -6.94244e-09 9.43891e-08 2.98453e-05 -9.36245e-08 2.37264e-05)
(2.98468e-05 4.22405e-09 -9.3847e-08 2.98465e-05 -9.37e-08 2.37271e-05)
(3.00999e-05 1.56145e-08 -2.84832e-07 3.0131e-05 -9.65068e-08 2.39663e-05)
(3.06458e-05 2.41913e-08 -4.85785e-07 3.07392e-05 -1.01726e-07 2.44745e-05)
(3.15407e-05 2.17352e-08 -7.06213e-07 3.16837e-05 -1.08006e-07 2.52896e-05)
(3.25198e-05 6.27571e-08 -9.36753e-07 3.27073e-05 -1.1876e-07 2.62178e-05)
(3.27178e-05 -1.72557e-07 9.59845e-07 3.30074e-05 -3.56189e-07 2.64667e-05)
(3.19248e-05 -7.35678e-08 7.22437e-07 3.20212e-05 -3.26159e-07 2.56103e-05)
(3.09088e-05 -7.89422e-08 4.97149e-07 3.0978e-05 -3.07434e-07 2.47029e-05)
(3.03991e-05 -5.16946e-08 2.93229e-07 3.03973e-05 -2.92613e-07 2.42156e-05)
(3.01346e-05 -1.75593e-08 9.7059e-08 3.01025e-05 -2.84757e-07 2.39682e-05)
(3.01348e-05 1.56703e-08 -9.66584e-08 3.01033e-05 -2.84813e-07 2.39686e-05)
(3.04e-05 4.99125e-08 -2.92864e-07 3.03999e-05 -2.92778e-07 2.42169e-05)
(3.09109e-05 7.74096e-08 -4.96824e-07 3.09829e-05 -3.07688e-07 2.47056e-05)
(3.19277e-05 7.23761e-08 -7.22121e-07 3.2028e-05 -3.26494e-07 2.56141e-05)
(3.27242e-05 1.72051e-07 -9.59474e-07 3.30174e-05 -3.56576e-07 2.64731e-05)
(3.30916e-05 -1.86932e-07 9.97946e-07 3.36177e-05 -5.94546e-07 2.69548e-05)
(3.25596e-05 -1.56532e-07 7.52129e-07 3.25202e-05 -5.47742e-07 2.61321e-05)
(3.14205e-05 -1.35435e-07 5.195e-07 3.14185e-05 -5.1905e-07 2.5138e-05)
(3.09878e-05 -7.8647e-08 3.08139e-07 3.09144e-05 -4.9686e-07 2.47082e-05)
(3.07398e-05 -2.55585e-08 1.02147e-07 3.06458e-05 -4.85747e-07 2.44747e-05)
(3.07399e-05 2.42841e-08 -1.01842e-07 3.06464e-05 -4.85786e-07 2.4475e-05)
(3.09883e-05 7.74742e-08 -3.07861e-07 3.09163e-05 -4.96943e-07 2.47091e-05)
(3.14217e-05 1.34422e-07 -5.1925e-07 3.14217e-05 -5.1921e-07 2.51397e-05)
(3.2561e-05 1.55757e-07 -7.5186e-07 3.25244e-05 -5.4794e-07 2.61342e-05)
(3.30974e-05 1.86733e-07 -9.97678e-07 3.36257e-05 -5.94806e-07 2.69603e-05)
(3.47295e-05 -6.82071e-07 1.09101e-06 3.64462e-05 -8.30316e-07 2.91033e-05)
(3.38929e-05 -3.70051e-07 7.95665e-07 3.38908e-05 -7.95364e-07 2.73446e-05)
(3.25641e-05 -1.5681e-07 5.49417e-07 3.25994e-05 -7.53508e-07 2.61592e-05)
(3.20301e-05 -7.32255e-08 3.26826e-07 3.19288e-05 -7.22203e-07 2.56151e-05)
(3.16839e-05 -2.26753e-08 1.08345e-07 3.15405e-05 -7.06257e-07 2.52896e-05)
(3.1684e-05 2.18682e-08 -1.08083e-07 3.15409e-05 -7.0626e-07 2.52898e-05)
(3.20304e-05 7.246e-08 -3.26595e-07 3.19302e-05 -7.22225e-07 2.56157e-05)
(3.25649e-05 1.56147e-07 -5.4922e-07 3.26017e-05 -7.5355e-07 2.61603e-05)
(3.38934e-05 3.69533e-07 -7.95466e-07 3.38935e-05 -7.95454e-07 2.73458e-05)
(3.47351e-05 6.82165e-07 -1.09079e-06 3.64533e-05 -8.30471e-07 2.91085e-05)
(3.65563e-05 1.29947e-06 1.16138e-06 3.65558e-05 -1.16125e-06 3.02301e-05)
(3.64732e-05 -6.8329e-07 8.31381e-07 3.47524e-05 -1.0918e-06 2.91214e-05)
(3.36286e-05 -1.87243e-07 5.95083e-07 3.30995e-05 -9.97851e-07 2.69621e-05)
(3.30179e-05 -1.72633e-07 3.56821e-07 3.27242e-05 -9.59542e-07 2.64735e-05)
(3.27078e-05 -6.33871e-08 1.1905e-07 3.25201e-05 -9.36847e-07 2.62182e-05)
(3.27075e-05 6.29037e-08 -1.18788e-07 3.25199e-05 -9.3684e-07 2.6218e-05)
(3.30172e-05 1.7213e-07 -3.56597e-07 3.27239e-05 -9.5951e-07 2.64729e-05)
(3.36277e-05 1.86753e-07 -5.94912e-07 3.30992e-05 -9.97817e-07 2.69615e-05)
(3.64709e-05 6.82719e-07 -8.31239e-07 3.47511e-05 -1.09178e-06 2.91196e-05)
(3.65588e-05 -1.2995e-06 -1.16126e-06 3.65587e-05 -1.16127e-06 3.02321e-05)
(3.35266e-05 -3.28872e-07 1.54385e-06 3.35146e-05 1.54289e-06 2.82372e-05)
(3.18117e-05 3.88592e-07 1.1056e-06 3.09084e-05 1.42605e-06 2.61114e-05)
(3.01068e-05 -1.42456e-08 7.93848e-07 3.00358e-05 1.3803e-06 2.47609e-05)
(2.93278e-05 8.81738e-08 4.77304e-07 2.93353e-05 1.36377e-06 2.40388e-05)
(2.89666e-05 2.28294e-08 1.59131e-07 2.903e-05 1.34679e-06 2.3698e-05)
(2.89664e-05 -2.47427e-08 -1.63264e-07 2.90289e-05 1.34699e-06 2.3698e-05)
(2.93333e-05 -9.03362e-08 -4.8216e-07 2.93362e-05 1.36445e-06 2.40433e-05)
(3.0139e-05 9.52811e-09 -8.0065e-07 3.00569e-05 1.38238e-06 2.47852e-05)
(3.18526e-05 -3.93504e-07 -1.11492e-06 3.09432e-05 1.4312e-06 2.61477e-05)
(3.34593e-05 3.33446e-07 -1.54566e-06 3.34599e-05 1.54511e-06 2.8194e-05)
(3.09274e-05 3.93804e-07 1.4295e-06 3.18254e-05 1.10641e-06 2.61233e-05)
(2.94127e-05 1.69572e-07 1.08771e-06 2.94084e-05 1.08663e-06 2.41846e-05)
(2.88828e-05 1.81507e-08 7.87382e-07 2.89644e-05 1.0723e-06 2.35843e-05)
(2.85562e-05 3.24024e-09 4.76225e-07 2.85286e-05 1.06732e-06 2.3151e-05)
(2.82776e-05 -3.16455e-09 1.57671e-07 2.82488e-05 1.06294e-06 2.28649e-05)
(2.82792e-05 -6.49482e-10 -1.61256e-07 2.82504e-05 1.06328e-06 2.28666e-05)
(2.85673e-05 -6.96791e-09 -4.80285e-07 2.85401e-05 1.0687e-06 2.31609e-05)
(2.89544e-05 -2.3574e-08 -7.94614e-07 2.90365e-05 1.07842e-06 2.36374e-05)
(2.94489e-05 -1.79685e-07 -1.09255e-06 2.94504e-05 1.09171e-06 2.42216e-05)
(3.09228e-05 -3.93131e-07 -1.4298e-06 3.18327e-05 1.11257e-06 2.6134e-05)
(3.00299e-05 -9.87698e-09 1.38158e-06 3.01016e-05 7.94183e-07 2.47569e-05)
(2.90167e-05 2.0264e-08 1.07684e-06 2.89308e-05 7.89657e-07 2.36177e-05)
(2.82056e-05 4.68432e-08 7.77354e-07 2.82034e-05 7.76835e-07 2.2825e-05)
(2.78261e-05 2.57311e-08 4.7101e-07 2.77839e-05 7.65854e-07 2.23859e-05)
(2.75671e-05 7.43211e-09 1.56444e-07 2.75381e-05 7.61513e-07 2.21228e-05)
(2.75697e-05 -1.1013e-08 -1.59324e-07 2.75413e-05 7.61897e-07 2.21254e-05)
(2.78403e-05 -2.91907e-08 -4.74184e-07 2.77999e-05 7.67364e-07 2.23979e-05)
(2.82167e-05 -4.99724e-08 -7.80169e-07 2.82177e-05 7.79062e-07 2.28372e-05)
(2.89817e-05 -2.33711e-08 -1.07558e-06 2.89022e-05 7.90777e-07 2.3602e-05)
(3.00539e-05 9.57277e-09 -1.38243e-06 3.01374e-05 7.99218e-07 2.47837e-05)
(2.93291e-05 9.03804e-08 1.36434e-06 2.93241e-05 4.77536e-07 2.40357e-05)
(2.85309e-05 5.28035e-09 1.06828e-06 2.85571e-05 4.76273e-07 2.31521e-05)
(2.77912e-05 2.66083e-08 7.66698e-07 2.78307e-05 4.7099e-07 2.23897e-05)
(2.73844e-05 1.18864e-08 4.63489e-07 2.73831e-05 4.63214e-07 2.19301e-05)
(2.7122e-05 2.48762e-09 1.54127e-07 2.71171e-05 4.59172e-07 2.16612e-05)
(2.71276e-05 -5.2237e-09 -1.56311e-07 2.71235e-05 4.59628e-07 2.16656e-05)
(2.73896e-05 -1.4429e-08 -4.65568e-07 2.739e-05 4.64242e-07 2.19356e-05)
(2.7793e-05 -2.88616e-08 -7.68125e-07 2.7835e-05 4.72585e-07 2.23943e-05)
(2.85367e-05 -6.62436e-09 -1.06928e-06 2.85662e-05 4.78678e-07 2.31599e-05)
(2.93386e-05 -9.04042e-08 -1.36494e-06 2.93381e-05 4.80591e-07 2.4046e-05)
(2.90257e-05 2.40018e-08 1.34717e-06 2.89649e-05 1.59354e-07 2.36961e-05)
(2.82459e-05 -1.64774e-09 1.06342e-06 2.82751e-05 1.57704e-07 2.28631e-05)
(2.75385e-05 8.43034e-09 7.61932e-07 2.7566e-05 1.56354e-07 2.21226e-05)
(2.7122e-05 2.91763e-09 4.59563e-07 2.71248e-05 1.54022e-07 2.16637e-05)
(2.69032e-05 -8.56765e-11 1.53212e-07 2.69024e-05 1.53057e-07 2.14271e-05)
(2.69043e-05 -1.97316e-09 -1.54749e-07 2.69039e-05 1.53319e-07 2.14282e-05)
(2.71204e-05 -4.78486e-09 -4.60867e-07 2.71246e-05 1.54776e-07 2.16641e-05)
(2.75429e-05 -1.01494e-08 -7.63119e-07 2.75723e-05 1.57672e-07 2.21275e-05)
(2.82532e-05 2.89733e-10 -1.0643e-06 2.82843e-05 1.59417e-07 2.28702e-05)
(2.90317e-05 -2.4488e-08 -1.34754e-06 2.89727e-05 1.61255e-07 2.37018e-05)
(2.90269e-05 -2.42833e-08 1.34726e-06 2.89664e-05 -1.63065e-07 2.36976e-05)
(2.82491e-05 3.57043e-10 1.06362e-06 2.82785e-05 -1.61175e-07 2.28661e-05)
(2.754e-05 -1.01574e-08 7.62174e-07 2.75679e-05 -1.59337e-07 2.21244e-05)
(2.71195e-05 -4.72304e-09 4.59724e-07 2.71224e-05 -1.56333e-07 2.16627e-05)
(2.69045e-05 -1.76322e-09 1.53469e-07 2.69035e-05 -1.54835e-07 2.14282e-05)
(2.69051e-05 1.96931e-10 -1.54553e-07 2.69044e-05 -1.54636e-07 2.14289e-05)
(2.7121e-05 3.25843e-09 -4.60725e-07 2.71249e-05 -1.55748e-07 2.16645e-05)
(2.75433e-05 8.92696e-09 -7.63019e-07 2.75725e-05 -1.58401e-07 2.21278e-05)
(2.82536e-05 -1.25609e-09 -1.06424e-06 2.82845e-05 -1.5998e-07 2.28705e-05)
(2.90319e-05 2.37336e-08 -1.3475e-06 2.89728e-05 -1.61716e-07 2.37019e-05)
(2.93352e-05 -9.00799e-08 1.36467e-06 2.93339e-05 -4.82015e-07 2.40433e-05)
(2.85341e-05 -6.40557e-09 1.06865e-06 2.85622e-05 -4.80072e-07 2.31574e-05)
(2.7792e-05 -2.86187e-08 7.67235e-07 2.78322e-05 -4.73954e-07 2.23929e-05)
(2.73901e-05 -1.3975e-08 4.64438e-07 2.73888e-05 -4.65603e-07 2.19354e-05)
(2.71297e-05 -4.51957e-09 1.54962e-07 2.71244e-05 -4.61054e-07 2.1667e-05)
(2.713e-05 3.38797e-09 -1.55712e-07 2.7125e-05 -4.60907e-07 2.16674e-05)
(2.73913e-05 1.29461e-08 -4.65137e-07 2.73908e-05 -4.65175e-07 2.19367e-05)
(2.77943e-05 2.77276e-08 -7.67835e-07 2.78354e-05 -4.7328e-07 2.23951e-05)
(2.85378e-05 5.75377e-09 -1.0691e-06 2.85667e-05 -4.79218e-07 2.31606e-05)
(2.93391e-05 8.97351e-08 -1.36483e-06 2.93384e-05 -4.81039e-07 2.40463e-05)
(3.00521e-05 9.44058e-09 1.38213e-06 3.01351e-05 -8.00345e-07 2.47824e-05)
(2.89816e-05 -2.32458e-08 1.07497e-06 2.89003e-05 -7.91898e-07 2.36014e-05)
(2.82172e-05 -4.96303e-08 7.79262e-07 2.82161e-05 -7.80188e-07 2.28369e-05)
(2.78425e-05 -2.8556e-08 4.72995e-07 2.77998e-05 -7.6853e-07 2.2399e-05)
(2.75733e-05 -9.83357e-09 1.57823e-07 2.75429e-05 -7.63173e-07 2.21279e-05)
(2.75735e-05 9.13923e-09 -1.5832e-07 2.75434e-05 -7.63067e-07 2.21281e-05)
(2.78433e-05 2.78719e-08 -4.7347e-07 2.78012e-05 -7.68207e-07 2.23998e-05)
(2.8219e-05 4.89998e-08 -7.79688e-07 2.82185e-05 -7.7969e-07 2.28384e-05)
(2.89837e-05 2.271e-08 -1.07529e-06 2.8903e-05 -7.91263e-07 2.36031e-05)
(3.00548e-05 -9.89777e-09 -1.38226e-06 3.0138e-05 -7.99611e-07 2.47843e-05)
(3.09216e-05 -3.93283e-07 1.42943e-06 3.18311e-05 -1.11341e-06 2.61332e-05)
(2.94509e-05 -1.79884e-07 1.0919e-06 2.94501e-05 -1.09257e-06 2.42224e-05)
(2.89566e-05 -2.33605e-08 7.93662e-07 2.90364e-05 -1.07929e-06 2.36384e-05)
(2.85716e-05 -6.33583e-09 4.79008e-07 2.85415e-05 -1.06961e-06 2.31634e-05)
(2.82852e-05 6.20384e-10 1.59574e-07 2.82534e-05 -1.06431e-06 2.28706e-05)
(2.82851e-05 -9.52639e-10 -1.59876e-07 2.82535e-05 -1.06423e-06 2.28706e-05)
(2.85716e-05 5.94269e-09 -4.79305e-07 2.8542e-05 -1.06938e-06 2.31635e-05)
(2.89573e-05 2.28438e-08 -7.93955e-07 2.90375e-05 -1.07891e-06 2.36389e-05)
(2.94513e-05 1.79208e-07 -1.09213e-06 2.94508e-05 -1.0921e-06 2.42226e-05)
(3.09232e-05 3.92879e-07 -1.42952e-06 3.18321e-05 -1.11285e-06 2.61337e-05)
(3.34571e-05 3.33701e-07 1.5452e-06 3.34567e-05 -1.54563e-06 2.8192e-05)
(3.18569e-05 -3.93831e-07 1.11422e-06 3.09453e-05 -1.43173e-06 2.61505e-05)
(3.01433e-05 9.63647e-09 7.99648e-07 3.00592e-05 -1.38288e-06 2.47877e-05)
(2.93395e-05 -9.01144e-08 4.80797e-07 2.93394e-05 -1.36496e-06 2.40469e-05)
(2.89738e-05 -2.41509e-08 1.6143e-07 2.90324e-05 -1.34752e-06 2.37025e-05)
(2.89735e-05 2.40473e-08 -1.61584e-07 2.90323e-05 -1.34747e-06 2.37023e-05)
(2.93388e-05 8.9955e-08 -4.80958e-07 2.93393e-05 -1.36478e-06 2.40465e-05)
(3.01431e-05 -9.90098e-09 -7.99831e-07 3.00597e-05 -1.38258e-06 2.47876e-05)
(3.18563e-05 3.93277e-07 -1.11439e-06 3.09454e-05 -1.43136e-06 2.61498e-05)
(3.34607e-05 -3.33583e-07 -1.54524e-06 3.346e-05 -1.5452e-06 2.81944e-05)
(2.52147e-05 6.46375e-08 1.37487e-06 2.52106e-05 1.37304e-06 2.18254e-05)
(2.26751e-05 7.67349e-08 9.95007e-07 2.23896e-05 1.27441e-06 1.91801e-05)
(2.19872e-05 -1.11485e-07 7.12354e-07 2.20871e-05 1.27631e-06 1.85285e-05)
(2.11856e-05 2.44252e-08 4.27456e-07 2.1301e-05 1.27252e-06 1.77454e-05)
(2.08821e-05 -1.19249e-08 1.43027e-07 2.10433e-05 1.26246e-06 1.74406e-05)
(2.08814e-05 1.19187e-08 -1.46254e-07 2.10421e-05 1.26266e-06 1.74404e-05)
(2.11832e-05 -2.3961e-08 -4.30738e-07 2.12965e-05 1.27319e-06 1.77444e-05)
(2.20021e-05 1.11759e-07 -7.16725e-07 2.20954e-05 1.27826e-06 1.85404e-05)
(2.27026e-05 -7.72896e-08 -1.00113e-06 2.24131e-05 1.27917e-06 1.92052e-05)
(2.51824e-05 -6.25938e-08 -1.37638e-06 2.51831e-05 1.37576e-06 2.18066e-05)
(2.23989e-05 7.90897e-08 1.27857e-06 2.26859e-05 9.95677e-07 1.91885e-05)
(2.0941e-05 2.9446e-08 9.9156e-07 2.09399e-05 9.90034e-07 1.75831e-05)
(2.07543e-05 -4.16834e-08 7.27211e-07 2.08272e-05 9.93713e-07 1.72273e-05)
(2.03724e-05 -1.63452e-08 4.38544e-07 2.03912e-05 9.99478e-07 1.67549e-05)
(2.01489e-05 -1.20568e-08 1.45444e-07 2.01946e-05 9.99781e-07 1.65129e-05)
(2.01503e-05 1.02272e-08 -1.48218e-07 2.01959e-05 1.00012e-06 1.65145e-05)
(2.03808e-05 1.47052e-08 -4.41463e-07 2.03999e-05 1.00086e-06 1.67626e-05)
(2.08098e-05 4.10156e-08 -7.33146e-07 2.08827e-05 9.99724e-07 1.72687e-05)
(2.09564e-05 -3.26701e-08 -9.94214e-07 2.09569e-05 9.93292e-07 1.76003e-05)
(2.23897e-05 -7.68675e-08 -1.27755e-06 2.26795e-05 9.98476e-07 1.91881e-05)
(2.20846e-05 -1.10324e-07 1.27804e-06 2.19869e-05 7.12478e-07 1.85278e-05)
(2.08751e-05 -4.09052e-08 9.99356e-07 2.08012e-05 7.29545e-07 1.72602e-05)
(2.0224e-05 -8.59396e-09 7.2567e-07 2.02234e-05 7.24671e-07 1.65534e-05)
(1.97582e-05 -1.24623e-09 4.3788e-07 1.97494e-05 7.19698e-07 1.60375e-05)
(1.94714e-05 1.42011e-10 1.45233e-07 1.94952e-05 7.17792e-07 1.57493e-05)
(1.94734e-05 -1.56656e-09 -1.47366e-07 1.94976e-05 7.1818e-07 1.57513e-05)
(1.97713e-05 -1.69561e-10 -4.40222e-07 1.97634e-05 7.21133e-07 1.60484e-05)
(2.02334e-05 7.91453e-09 -7.27465e-07 2.02338e-05 7.2631e-07 1.65629e-05)
(2.08336e-05 4.08085e-08 -9.96336e-07 2.07617e-05 7.28803e-07 1.72355e-05)
(2.20893e-05 1.11716e-07 -1.27822e-06 2.19962e-05 7.15162e-07 1.85361e-05)
(2.12982e-05 2.48306e-08 1.27328e-06 2.11846e-05 4.2748e-07 1.77446e-05)
(2.03955e-05 -1.54317e-08 1.00097e-06 2.03769e-05 4.38349e-07 1.67584e-05)
(1.97562e-05 -8.09013e-10 7.21078e-07 1.97644e-05 4.37523e-07 1.6042e-05)
(1.93366e-05 -6.76567e-09 4.35022e-07 1.93362e-05 4.34312e-07 1.55609e-05)
(1.90575e-05 -2.21414e-09 1.44375e-07 1.90731e-05 4.32628e-07 1.52743e-05)
(1.9062e-05 1.51205e-09 -1.45931e-07 1.90781e-05 4.33065e-07 1.52777e-05)
(1.93403e-05 6.16324e-09 -4.36449e-07 1.93407e-05 4.35142e-07 1.55649e-05)
(1.97565e-05 -9.32143e-11 -7.21857e-07 1.97654e-05 4.38602e-07 1.60445e-05)
(2.03953e-05 1.46047e-08 -1.0014e-06 2.03773e-05 4.39847e-07 1.67602e-05)
(2.12968e-05 -2.4461e-08 -1.27381e-06 2.11844e-05 4.29264e-07 1.77452e-05)
(2.10422e-05 -1.19488e-08 1.26288e-06 2.08825e-05 1.43168e-07 1.74407e-05)
(2.01939e-05 -1.15235e-08 1.00057e-06 2.01491e-05 1.45313e-07 1.65133e-05)
(1.94961e-05 5.79871e-10 7.18627e-07 1.94722e-05 1.44885e-07 1.57503e-05)
(1.90773e-05 -2.00362e-09 4.33448e-07 1.90612e-05 1.43954e-07 1.5277e-05)
(1.88399e-05 -7.18155e-10 1.44405e-07 1.88398e-05 1.43898e-07 1.5021e-05)
(1.88402e-05 3.14902e-10 -1.45432e-07 1.88403e-05 1.44116e-07 1.50214e-05)
(1.90743e-05 1.64803e-09 -4.34256e-07 1.90587e-05 1.44526e-07 1.52758e-05)
(1.94975e-05 -1.24682e-09 -7.19421e-07 1.94741e-05 1.45882e-07 1.57522e-05)
(2.01972e-05 1.04596e-08 -1.00122e-06 2.0153e-05 1.46578e-07 1.65168e-05)
(2.10444e-05 1.15307e-08 -1.26337e-06 2.08855e-05 1.44505e-07 1.74433e-05)
(2.10424e-05 1.16535e-08 1.26296e-06 2.08823e-05 -1.46065e-07 1.74411e-05)
(2.01953e-05 1.04694e-08 1.00066e-06 2.01504e-05 -1.48201e-07 1.65148e-05)
(1.94969e-05 -1.24404e-09 7.18748e-07 1.9473e-05 -1.47519e-07 1.57513e-05)
(1.90747e-05 1.75242e-09 4.33496e-07 1.90585e-05 -1.46159e-07 1.52758e-05)
(1.88406e-05 4.37792e-10 1.44595e-07 1.88403e-05 -1.45769e-07 1.50216e-05)
(1.88405e-05 -6.52144e-10 -1.45258e-07 1.88405e-05 -1.45609e-07 1.50217e-05)
(1.90743e-05 -1.97849e-09 -4.34112e-07 1.90586e-05 -1.45679e-07 1.52759e-05)
(1.94973e-05 8.95231e-10 -7.19307e-07 1.9474e-05 -1.46762e-07 1.57521e-05)
(2.0197e-05 -1.09262e-08 -1.00114e-06 2.01528e-05 -1.47248e-07 1.65166e-05)
(2.10445e-05 -1.20552e-08 -1.26332e-06 2.08855e-05 -1.45016e-07 1.74433e-05)
(2.12963e-05 -2.42271e-08 1.27335e-06 2.11829e-05 -4.30536e-07 1.77444e-05)
(2.03937e-05 1.48368e-08 1.00082e-06 2.03751e-05 -4.41186e-07 1.67588e-05)
(1.97564e-05 9.91101e-11 7.21169e-07 1.97644e-05 -4.39993e-07 1.60441e-05)
(1.9341e-05 6.4452e-09 4.35637e-07 1.93405e-05 -4.36593e-07 1.55652e-05)
(1.90632e-05 1.87556e-09 1.45019e-07 1.90788e-05 -4.34632e-07 1.52789e-05)
(1.90628e-05 -1.85441e-09 -1.45405e-07 1.90787e-05 -4.34512e-07 1.52786e-05)
(1.93403e-05 -6.45488e-09 -4.36009e-07 1.93405e-05 -4.36239e-07 1.5565e-05)
(1.9756e-05 -2.15705e-10 -7.21526e-07 1.97647e-05 -4.39441e-07 1.60441e-05)
(2.03944e-05 -1.50448e-08 -1.00116e-06 2.03765e-05 -4.40496e-07 1.67596e-05)
(2.1297e-05 2.39628e-08 -1.27365e-06 2.11844e-05 -4.29777e-07 1.77452e-05)
(2.20905e-05 1.11532e-07 1.27773e-06 2.19963e-05 -7.16205e-07 1.85367e-05)
(2.08324e-05 4.10417e-08 9.95716e-07 2.07599e-05 -7.29894e-07 1.72345e-05)
(2.02333e-05 8.22104e-09 7.26713e-07 2.02328e-05 -7.27469e-07 1.65627e-05)
(1.97723e-05 2.71602e-10 4.39314e-07 1.97633e-05 -7.22364e-07 1.60491e-05)
(1.94748e-05 -8.93803e-10 1.46283e-07 1.94982e-05 -7.19563e-07 1.57528e-05)
(1.94744e-05 1.16485e-09 -1.46465e-07 1.9498e-05 -7.19475e-07 1.57525e-05)
(1.97712e-05 -3.56851e-11 -4.39503e-07 1.9763e-05 -7.22118e-07 1.60485e-05)
(2.02324e-05 -8.14442e-09 -7.26931e-07 2.02328e-05 -7.27067e-07 1.65623e-05)
(2.08321e-05 -4.10527e-08 -9.95972e-07 2.07605e-05 -7.29395e-07 1.72345e-05)
(2.20894e-05 -1.11731e-07 -1.27799e-06 2.19965e-05 -7.15639e-07 1.85363e-05)
(2.23931e-05 -7.74237e-08 1.27703e-06 2.26815e-05 -9.99298e-07 1.91903e-05)
(2.09562e-05 -3.25852e-08 9.93564e-07 2.09559e-05 -9.94155e-07 1.76001e-05)
(2.08106e-05 4.13233e-08 7.32339e-07 2.08826e-05 -1.00062e-06 1.72692e-05)
(2.03826e-05 1.51296e-08 4.4045e-07 2.04004e-05 -1.00184e-06 1.67638e-05)
(2.01529e-05 1.09516e-08 1.46932e-07 2.01973e-05 -1.00124e-06 1.65167e-05)
(2.01524e-05 -1.04822e-08 -1.46975e-07 2.0197e-05 -1.00118e-06 1.65164e-05)
(2.0381e-05 -1.47158e-08 -4.405e-07 2.03995e-05 -1.00167e-06 1.67628e-05)
(2.08091e-05 -4.10747e-08 -7.32434e-07 2.08819e-05 -1.00034e-06 1.72682e-05)