/*--------------------------------*- C++ -*----------------------------------*\
| =========                 |                                                 |
| \\      /  F ield         | OpenFOAM: The Open Source CFD Toolbox           |
|  \\    /   O peration     | Version:  2406                                  |
|   \\  /    A nd           | Website:  www.openfoam.com                      |
|    \\/     M anipulation  |                                                 |
\*---------------------------------------------------------------------------*/
FoamFile
{
    version     2.0;
    format      ascii;
    arch        "LSB;label=32;scalar=64";
    class       volSymmTensorField;
    location    "250";
    object      turbulenceProperties:devReff;
}
// * * * * * * * * * * * * * * * * * * * * * * * * * * * * * * * * * * * * * //

dimensions      [0 2 -2 0 0 0 0];

internalField   nonuniform List<symmTensor> 
25000
(
(4.03565e-06 -4.12263e-06 -1.60132e-06 4.05661e-06 -1.60029e-06 -8.09226e-06)
(6.17267e-06 1.85245e-06 -1.1069e-06 2.42953e-06 -1.41257e-06 -8.6022e-06)
(4.78214e-06 1.13593e-06 -7.78669e-07 3.45878e-06 -1.4521e-06 -8.24092e-06)
(4.33093e-06 7.00774e-07 -4.63911e-07 3.86274e-06 -1.45696e-06 -8.19367e-06)
(4.11306e-06 2.45646e-07 -1.53601e-07 4.04813e-06 -1.4573e-06 -8.16119e-06)
(4.10679e-06 -2.38932e-07 1.56578e-07 4.05627e-06 -1.45721e-06 -8.16306e-06)
(4.30914e-06 -6.90474e-07 4.6741e-07 3.89024e-06 -1.45658e-06 -8.19937e-06)
(4.73623e-06 -1.11699e-06 7.83659e-07 3.51402e-06 -1.4518e-06 -8.25025e-06)
(6.14704e-06 -1.85471e-06 1.11504e-06 2.50314e-06 -1.41317e-06 -8.65018e-06)
(4.11775e-06 4.02477e-06 1.59749e-06 4.1124e-06 -1.59708e-06 -8.23015e-06)
(2.42364e-06 1.84317e-06 -1.41311e-06 6.185e-06 -1.10657e-06 -8.60865e-06)
(4.35656e-06 1.34047e-06 -1.09621e-06 4.37874e-06 -1.09559e-06 -8.73531e-06)
(3.95231e-06 8.81276e-07 -8.12365e-07 4.12667e-06 -1.11796e-06 -8.07898e-06)
(3.80373e-06 5.09726e-07 -4.9102e-07 3.9338e-06 -1.13825e-06 -7.73753e-06)
(3.73948e-06 1.72908e-07 -1.63212e-07 3.83327e-06 -1.14895e-06 -7.57275e-06)
(3.73862e-06 -1.52621e-07 1.65722e-07 3.83374e-06 -1.14919e-06 -7.57236e-06)
(3.80158e-06 -4.84121e-07 4.93867e-07 3.93391e-06 -1.13906e-06 -7.73549e-06)
(3.95104e-06 -8.42827e-07 8.16005e-07 4.1251e-06 -1.12017e-06 -8.07615e-06)
(4.36714e-06 -1.2748e-06 1.10014e-06 4.35861e-06 -1.0998e-06 -8.72575e-06)
(2.50566e-06 -1.85223e-06 1.41299e-06 6.13825e-06 -1.11449e-06 -8.64391e-06)
(3.46614e-06 1.11745e-06 -1.45229e-06 4.78502e-06 -7.79064e-07 -8.25116e-06)
(4.12077e-06 8.73014e-07 -1.11871e-06 3.96442e-06 -8.12635e-07 -8.08519e-06)
(3.77327e-06 5.96561e-07 -8.23019e-07 3.78285e-06 -8.23004e-07 -7.55612e-06)
(3.60208e-06 3.57272e-07 -4.99949e-07 3.64272e-06 -8.30301e-07 -7.2448e-06)
(3.52426e-06 1.23194e-07 -1.66719e-07 3.57121e-06 -8.34716e-07 -7.09547e-06)
(3.5252e-06 -1.05906e-07 1.68594e-07 3.56998e-06 -8.34977e-07 -7.09517e-06)
(3.60534e-06 -3.3764e-07 5.01964e-07 3.63825e-06 -8.31208e-07 -7.2436e-06)
(3.77983e-06 -5.7268e-07 8.25074e-07 3.77246e-06 -8.24709e-07 -7.5523e-06)
(4.1317e-06 -8.43767e-07 1.12008e-06 3.94131e-06 -8.15336e-07 -8.07301e-06)
(3.51628e-06 -1.11404e-06 1.45162e-06 4.72917e-06 -7.83215e-07 -8.24545e-06)
(3.87059e-06 6.93281e-07 -1.457e-06 4.32817e-06 -4.64333e-07 -8.19876e-06)
(3.93173e-06 5.01615e-07 -1.13846e-06 3.80852e-06 -4.91225e-07 -7.74025e-06)
(3.63763e-06 3.54231e-07 -8.3035e-07 3.60848e-06 -5.00086e-07 -7.24611e-06)
(3.4639e-06 2.17434e-07 -5.04107e-07 3.46894e-06 -5.04231e-07 -6.93285e-06)
(3.38245e-06 7.67225e-08 -1.6841e-07 3.39797e-06 -5.06526e-07 -6.78042e-06)
(3.38408e-06 -6.33002e-08 1.697e-07 3.3964e-06 -5.06774e-07 -6.78048e-06)
(3.46821e-06 -2.03418e-07 5.05423e-07 3.46382e-06 -5.0497e-07 -6.93203e-06)
(3.64418e-06 -3.39367e-07 8.31505e-07 3.59891e-06 -5.01425e-07 -7.24309e-06)
(3.94124e-06 -4.87022e-07 1.13925e-06 3.79333e-06 -4.93244e-07 -7.73457e-06)
(3.89469e-06 -6.88728e-07 1.45622e-06 4.30081e-06 -4.66745e-07 -8.1955e-06)
(4.05419e-06 2.42008e-07 -1.45741e-06 4.10947e-06 -1.5392e-07 -8.16365e-06)
(3.83457e-06 1.67254e-07 -1.14901e-06 3.7404e-06 -1.63438e-07 -7.57498e-06)
(3.56866e-06 1.19771e-07 -8.34661e-07 3.52759e-06 -1.6689e-07 -7.09625e-06)
(3.39467e-06 7.53883e-08 -5.06421e-07 3.3861e-06 -1.68569e-07 -6.78077e-06)
(3.31194e-06 2.86098e-08 -1.69395e-07 3.31467e-06 -1.69561e-07 -6.62661e-06)
(3.31342e-06 -1.85167e-08 1.70242e-07 3.31313e-06 -1.69739e-07 -6.62655e-06)
(3.39867e-06 -6.5555e-08 5.07221e-07 3.38149e-06 -1.69125e-07 -6.78016e-06)
(3.57469e-06 -1.10324e-07 8.35365e-07 3.52001e-06 -1.67862e-07 -7.09471e-06)
(3.841e-06 -1.58357e-07 1.14941e-06 3.73019e-06 -1.64802e-07 -7.57119e-06)
(4.06564e-06 -2.38683e-07 1.45659e-06 4.0946e-06 -1.55514e-07 -8.16024e-06)
(4.05926e-06 -2.40058e-07 -1.45728e-06 4.10442e-06 1.56369e-07 -8.16368e-06)
(3.83523e-06 -1.56486e-07 -1.14923e-06 3.7382e-06 1.65541e-07 -7.57343e-06)
(3.56938e-06 -1.08901e-07 -8.34918e-07 3.52644e-06 1.68426e-07 -7.09582e-06)
(3.39445e-06 -6.4905e-08 -5.06626e-07 3.38597e-06 1.69525e-07 -6.78042e-06)
(3.31128e-06 -1.91329e-08 -1.69582e-07 3.31524e-06 1.70073e-07 -6.62652e-06)
(3.31259e-06 2.65237e-08 1.70109e-07 3.3139e-06 1.69931e-07 -6.62649e-06)
(3.39789e-06 7.1916e-08 5.0713e-07 3.38228e-06 1.69118e-07 -6.78017e-06)
(3.57404e-06 1.15134e-07 8.35297e-07 3.52069e-06 1.67729e-07 -7.09474e-06)
(3.84044e-06 1.6189e-07 1.14936e-06 3.73077e-06 1.64586e-07 -7.57121e-06)
(4.06562e-06 2.42543e-07 1.45655e-06 4.09489e-06 1.55225e-07 -8.16052e-06)
(3.89177e-06 -6.91224e-07 -1.4568e-06 4.30748e-06 4.67296e-07 -8.19925e-06)
(3.93577e-06 -4.86668e-07 -1.13907e-06 3.8006e-06 4.9372e-07 -7.73638e-06)
(3.63809e-06 -3.3982e-07 -8.31112e-07 3.60564e-06 5.01815e-07 -7.24373e-06)
(3.46277e-06 -2.04975e-07 -5.04855e-07 3.46943e-06 5.05281e-07 -6.9322e-06)
(3.38042e-06 -6.63971e-08 -1.68974e-07 3.39996e-06 5.07089e-07 -6.78038e-06)
(3.38147e-06 7.15678e-08 1.69289e-07 3.39896e-06 5.06987e-07 -6.78043e-06)
(3.4657e-06 2.09757e-07 5.0514e-07 3.46628e-06 5.0498e-07 -6.93198e-06)
(3.64198e-06 3.43982e-07 8.31319e-07 3.6011e-06 5.01312e-07 -7.24308e-06)
(3.93964e-06 4.90365e-07 1.1391e-06 3.79507e-06 4.93052e-07 -7.73471e-06)
(3.89461e-06 6.92454e-07 1.45609e-06 4.30169e-06 4.6648e-07 -8.1963e-06)
(3.51386e-06 -1.11642e-06 -1.452e-06 4.73545e-06 7.83584e-07 -8.24931e-06)
(4.12507e-06 -8.44217e-07 -1.11987e-06 3.94926e-06 8.1569e-07 -8.07433e-06)
(3.77274e-06 -5.74375e-07 -8.24662e-07 3.78021e-06 8.24995e-07 -7.55295e-06)
(3.59838e-06 -3.40675e-07 -5.01339e-07 3.64531e-06 8.31483e-07 -7.24368e-06)
(3.51916e-06 -1.11299e-07 -1.67728e-07 3.57578e-06 8.35281e-07 -7.09494e-06)
(3.52007e-06 1.14495e-07 1.6789e-07 3.57485e-06 8.35212e-07 -7.09492e-06)
(3.60083e-06 3.43612e-07 5.0149e-07 3.64267e-06 8.31241e-07 -7.24349e-06)
(3.77607e-06 5.77018e-07 8.24752e-07 3.77629e-06 8.24633e-07 -7.55236e-06)
(4.12877e-06 8.46698e-07 1.11983e-06 3.94445e-06 8.15187e-07 -8.07322e-06)
(3.51583e-06 1.11753e-06 1.45141e-06 4.73097e-06 7.83e-07 -8.2468e-06)
(2.5022e-06 -1.85268e-06 -1.41322e-06 6.14568e-06 1.11485e-06 -8.64788e-06)
(4.35953e-06 -1.27532e-06 -1.09983e-06 4.36699e-06 1.10013e-06 -8.72652e-06)
(3.94262e-06 -8.45302e-07 -8.1555e-07 4.13359e-06 1.12046e-06 -8.07622e-06)
(3.79281e-06 -4.8833e-07 -4.93153e-07 3.94218e-06 1.13927e-06 -7.735e-06)
(3.72953e-06 -1.59505e-07 -1.64685e-07 3.84191e-06 1.14942e-06 -7.57144e-06)
(3.73036e-06 1.60865e-07 1.64723e-07 3.84107e-06 1.14935e-06 -7.57142e-06)
(3.79497e-06 4.89588e-07 4.9319e-07 3.93998e-06 1.13908e-06 -7.73495e-06)
(3.94581e-06 8.46481e-07 8.15567e-07 4.13006e-06 1.12013e-06 -8.07587e-06)
(4.36309e-06 1.27711e-06 1.09979e-06 4.36266e-06 1.09971e-06 -8.72575e-06)
(2.50428e-06 1.85433e-06 1.41271e-06 6.14131e-06 1.11437e-06 -8.64559e-06)
(4.11115e-06 4.02879e-06 -1.5973e-06 4.11745e-06 1.59764e-06 -8.2286e-06)
(6.13934e-06 -1.85186e-06 -1.11465e-06 2.50539e-06 1.41337e-06 -8.64473e-06)
(4.72951e-06 -1.11485e-06 -7.8319e-07 3.5157e-06 1.45178e-06 -8.24521e-06)
(4.30078e-06 -6.89775e-07 -4.66673e-07 3.89443e-06 1.45634e-06 -8.19521e-06)
(4.09458e-06 -2.39816e-07 -1.55416e-07 4.06542e-06 1.45669e-06 -8.16e-06)
(4.0949e-06 2.41475e-07 1.55339e-07 4.06561e-06 1.45663e-06 -8.16051e-06)
(4.30179e-06 6.91453e-07 4.66595e-07 3.89463e-06 1.45614e-06 -8.19642e-06)
(4.73127e-06 1.11678e-06 7.83101e-07 3.51583e-06 1.45143e-06 -8.24711e-06)
(6.14274e-06 1.85429e-06 1.11458e-06 2.50424e-06 1.41285e-06 -8.64699e-06)
(4.11505e-06 -4.02527e-06 1.59695e-06 4.11405e-06 1.5969e-06 -8.22911e-06)
(6.00939e-06 -3.5633e-06 3.26679e-06 5.98823e-06 3.27034e-06 -1.19976e-05)
(8.33987e-06 1.88821e-06 2.30678e-06 3.67677e-06 3.02691e-06 -1.20166e-05)
(6.52307e-06 4.88071e-07 1.63649e-06 5.18781e-06 2.74227e-06 -1.17109e-05)
(6.19579e-06 4.58798e-07 9.78093e-07 5.45798e-06 2.62517e-06 -1.16538e-05)
(6.05344e-06 1.66323e-07 3.27541e-07 5.5764e-06 2.5576e-06 -1.16298e-05)
(6.06118e-06 -1.74875e-07 -3.21973e-07 5.56918e-06 2.55726e-06 -1.16304e-05)
(6.22345e-06 -4.72014e-07 -9.73221e-07 5.43265e-06 2.6238e-06 -1.16561e-05)
(6.57948e-06 -5.13482e-07 -1.632e-06 5.13456e-06 2.73993e-06 -1.1714e-05)
(8.36545e-06 -1.88912e-06 -2.29961e-06 3.60895e-06 3.02198e-06 -1.19744e-05)
(5.92442e-06 3.65213e-06 -3.26232e-06 5.92447e-06 3.26316e-06 -1.18489e-05)
(3.68368e-06 1.89772e-06 3.02371e-06 8.33032e-06 2.30928e-06 -1.2014e-05)
(5.96797e-06 9.35546e-07 2.17629e-06 5.95193e-06 2.17901e-06 -1.19199e-05)
(5.73437e-06 3.81991e-07 1.48966e-06 5.85417e-06 2.04483e-06 -1.15885e-05)
(5.85859e-06 1.76372e-07 8.85714e-07 5.61035e-06 1.95636e-06 -1.14689e-05)
(5.87173e-06 4.90386e-08 2.94468e-07 5.50521e-06 1.90919e-06 -1.13769e-05)
(5.87464e-06 -6.62494e-08 -2.90084e-07 5.50383e-06 1.9086e-06 -1.13785e-05)
(5.86711e-06 -2.00391e-07 -8.81959e-07 5.60711e-06 1.95463e-06 -1.14742e-05)
(5.74989e-06 -4.26193e-07 -1.48792e-06 5.85756e-06 2.04392e-06 -1.16075e-05)
(5.96231e-06 -1.01202e-06 -2.17358e-06 5.96842e-06 2.17511e-06 -1.19307e-05)
(3.60576e-06 -1.89042e-06 -3.02012e-06 8.36708e-06 2.30045e-06 -1.19728e-05)
(5.18396e-06 5.01508e-07 2.74085e-06 6.52018e-06 1.63662e-06 -1.17041e-05)
(5.8663e-06 3.89414e-07 2.0442e-06 5.72943e-06 1.49217e-06 -1.15957e-05)
(5.64524e-06 3.38117e-07 1.40133e-06 5.63734e-06 1.40295e-06 -1.12826e-05)
(5.68616e-06 1.93214e-07 8.29386e-07 5.49711e-06 1.33878e-06 -1.11833e-05)
(5.68342e-06 5.65523e-08 2.75425e-07 5.44161e-06 1.30658e-06 -1.1125e-05)
(5.68396e-06 -7.31503e-08 -2.72159e-07 5.44218e-06 1.30606e-06 -1.11261e-05)
(5.68707e-06 -2.13585e-07 -8.26582e-07 5.50057e-06 1.3375e-06 -1.11876e-05)
(5.64155e-06 -3.65991e-07 -1.3989e-06 5.64678e-06 1.40083e-06 -1.12883e-05)
(5.84715e-06 -4.25432e-07 -2.04066e-06 5.75131e-06 1.48862e-06 -1.15985e-05)
(5.13194e-06 -5.14279e-07 -2.73878e-06 6.58449e-06 1.63394e-06 -1.17164e-05)
(5.45321e-06 4.6465e-07 2.62437e-06 6.19819e-06 9.77532e-07 -1.16514e-05)
(5.61283e-06 1.82656e-07 1.9549e-06 5.85532e-06 8.86188e-07 -1.14682e-05)
(5.50211e-06 1.95449e-07 1.33751e-06 5.68214e-06 8.30357e-07 -1.11843e-05)
(5.52228e-06 1.24286e-07 7.86218e-07 5.5186e-06 7.87258e-07 -1.10409e-05)
(5.52378e-06 3.62128e-08 2.60315e-07 5.44214e-06 7.64514e-07 -1.09659e-05)
(5.52358e-06 -4.9766e-08 -2.57855e-07 5.44383e-06 7.64196e-07 -1.09674e-05)
(5.51973e-06 -1.39312e-07 -7.84013e-07 5.52334e-06 7.86228e-07 -1.10431e-05)
(5.49536e-06 -2.12075e-07 -1.33537e-06 5.6918e-06 8.28736e-07 -1.11872e-05)
(5.60109e-06 -1.98671e-07 -1.9529e-06 5.87418e-06 8.84259e-07 -1.14753e-05)
(5.42853e-06 -4.72437e-07 -2.62275e-06 6.23133e-06 9.75699e-07 -1.16599e-05)
(5.57351e-06 1.69097e-07 2.5576e-06 6.05599e-06 3.26853e-07 -1.16295e-05)
(5.50527e-06 5.30793e-08 1.90813e-06 5.87101e-06 2.94365e-07 -1.13763e-05)
(5.44374e-06 5.89116e-08 1.30544e-06 5.68115e-06 2.75768e-07 -1.11249e-05)
(5.4449e-06 3.70413e-08 7.63653e-07 5.52179e-06 2.60902e-07 -1.09667e-05)
(5.44618e-06 8.73491e-09 2.52211e-07 5.44433e-06 2.52847e-07 -1.08905e-05)
(5.44526e-06 -1.88627e-08 -2.50299e-07 5.44574e-06 2.5256e-07 -1.0891e-05)
(5.44155e-06 -4.73815e-08 -7.61841e-07 5.52593e-06 2.60118e-07 -1.09675e-05)
(5.43824e-06 -6.90298e-08 -1.3039e-06 5.68961e-06 2.74588e-07 -1.11278e-05)
(5.49726e-06 -6.17444e-08 -1.90673e-06 5.8839e-06 2.92811e-07 -1.13812e-05)
(5.56141e-06 -1.73463e-07 -2.55606e-06 6.07342e-06 3.24981e-07 -1.16348e-05)
(5.56798e-06 -1.74109e-07 2.55727e-06 6.06289e-06 -3.22632e-07 -1.16309e-05)
(5.50343e-06 -6.38341e-08 1.90803e-06 5.87489e-06 -2.90394e-07 -1.13783e-05)
(5.44301e-06 -7.13507e-08 1.30525e-06 5.68303e-06 -2.72127e-07 -1.1126e-05)
(5.44482e-06 -4.88153e-08 7.63364e-07 5.52188e-06 -2.57581e-07 -1.09667e-05)
(5.44698e-06 -1.85339e-08 2.51986e-07 5.44411e-06 -2.49945e-07 -1.08911e-05)
(5.44617e-06 1.12768e-08 -2.50539e-07 5.44529e-06 -2.50146e-07 -1.08915e-05)
(5.44228e-06 4.17755e-08 -7.62048e-07 5.5255e-06 -2.58198e-07 -1.09678e-05)
(5.43878e-06 6.49408e-08 -1.30407e-06 5.68928e-06 -2.7308e-07 -1.11281e-05)
(5.49767e-06 5.86879e-08 -1.90687e-06 5.88366e-06 -2.91631e-07 -1.13813e-05)
(5.56164e-06 1.71249e-07 -2.55617e-06 6.07331e-06 -3.24068e-07 -1.16349e-05)
(5.43273e-06 -4.71745e-07 2.62407e-06 6.22429e-06 -9.73767e-07 -1.1657e-05)
(5.60649e-06 -1.98996e-07 1.95414e-06 5.86732e-06 -8.82239e-07 -1.14738e-05)
(5.50022e-06 -2.12262e-07 1.33675e-06 5.6862e-06 -8.26637e-07 -1.11864e-05)
(5.52409e-06 -1.38503e-07 7.85638e-07 5.51914e-06 -7.83987e-07 -1.10432e-05)
(5.52713e-06 -4.69727e-08 2.59642e-07 5.44132e-06 -7.61752e-07 -1.09684e-05)
(5.52645e-06 4.19194e-08 -2.5857e-07 5.44224e-06 -7.61901e-07 -1.09687e-05)
(5.52215e-06 1.33729e-07 -7.8466e-07 5.52186e-06 -7.84429e-07 -1.1044e-05)
(5.49715e-06 2.08141e-07 -1.33588e-06 5.69067e-06 -8.27321e-07 -1.11878e-05)
(5.60227e-06 1.95772e-07 -1.95329e-06 5.87343e-06 -8.83143e-07 -1.14757e-05)
(5.42924e-06 4.70363e-07 -2.62306e-06 6.23094e-06 -9.74824e-07 -1.16602e-05)
(5.13494e-06 -5.13246e-07 2.73999e-06 6.57943e-06 -1.6324e-06 -1.17144e-05)
(5.85244e-06 -4.24979e-07 2.042e-06 5.74551e-06 -1.4871e-06 -1.1598e-05)
(5.64692e-06 -3.65085e-07 1.40039e-06 5.64149e-06 -1.39917e-06 -1.12884e-05)
(5.69289e-06 -2.11427e-07 8.28371e-07 5.49569e-06 -1.33571e-06 -1.11886e-05)
(5.69015e-06 -6.86102e-08 2.74206e-07 5.43792e-06 -1.30396e-06 -1.11281e-05)
(5.68965e-06 6.51889e-08 -2.73388e-07 5.4386e-06 -1.30406e-06 -1.11283e-05)
(5.69142e-06 2.08274e-07 -8.27624e-07 5.49772e-06 -1.33593e-06 -1.11891e-05)
(5.64464e-06 3.62353e-07 -1.39971e-06 5.64473e-06 -1.3996e-06 -1.12894e-05)
(5.84928e-06 4.22874e-07 -2.04127e-06 5.74991e-06 -1.48764e-06 -1.15992e-05)
(5.13314e-06 5.12699e-07 -2.73925e-06 6.58382e-06 -1.63312e-06 -1.1717e-05)
(3.60869e-06 -1.88879e-06 3.02123e-06 8.36273e-06 -2.29932e-06 -1.19714e-05)
(5.9683e-06 -1.01151e-06 2.17489e-06 5.96254e-06 -2.17407e-06 -1.19308e-05)
(5.75622e-06 -4.25125e-07 1.48952e-06 5.8519e-06 -2.04282e-06 -1.16081e-05)
(5.87485e-06 -1.98053e-07 8.83968e-07 5.60102e-06 -1.95335e-06 -1.14759e-05)
(5.88428e-06 -6.12263e-08 2.92547e-07 5.49696e-06 -1.90699e-06 -1.13812e-05)
(5.88388e-06 5.90469e-08 -2.91837e-07 5.4975e-06 -1.90699e-06 -1.13814e-05)
(5.87371e-06 1.95983e-07 -8.83344e-07 5.60258e-06 -1.95341e-06 -1.14763e-05)
(5.75452e-06 4.23328e-07 -1.48898e-06 5.85433e-06 -2.04294e-06 -1.16089e-05)
(5.96571e-06 1.01009e-06 -2.17434e-06 5.96598e-06 -2.17431e-06 -1.19317e-05)
(3.60773e-06 1.88905e-06 -3.02061e-06 8.36582e-06 -2.29974e-06 -1.19736e-05)
(5.92563e-06 3.65121e-06 3.26322e-06 5.92418e-06 -3.26284e-06 -1.18498e-05)
(8.36974e-06 -1.89108e-06 2.30094e-06 3.60737e-06 -3.02168e-06 -1.19771e-05)
(6.5849e-06 -5.14056e-07 1.63373e-06 5.13237e-06 -2.73949e-06 -1.17173e-05)
(6.23152e-06 -4.71954e-07 9.75495e-07 5.42856e-06 -2.62324e-06 -1.16601e-05)
(6.07361e-06 -1.72968e-07 3.24857e-07 5.56135e-06 -2.55642e-06 -1.1635e-05)
(6.07339e-06 1.71649e-07 -3.24143e-07 5.56156e-06 -2.5564e-06 -1.16349e-05)
(6.2309e-06 4.70577e-07 -9.74882e-07 5.42914e-06 -2.62316e-06 -1.166e-05)
(6.584e-06 5.12709e-07 -1.63327e-06 5.13329e-06 -2.7394e-06 -1.17173e-05)
(8.36842e-06 1.8895e-06 -2.30055e-06 3.6087e-06 -3.02162e-06 -1.19771e-05)
(5.92565e-06 -3.65129e-06 -3.26289e-06 5.92539e-06 -3.26291e-06 -1.1851e-05)
(5.18256e-06 -9.64499e-07 4.52773e-06 5.14735e-06 4.5249e-06 -1.03299e-05)
(6.29024e-06 1.11047e-06 3.15944e-06 3.709e-06 4.07516e-06 -9.99924e-06)
(5.08423e-06 -4.01121e-08 2.23529e-06 4.88436e-06 3.88658e-06 -9.96859e-06)
(4.92015e-06 2.46423e-07 1.33394e-06 4.94111e-06 3.8114e-06 -9.86126e-06)
(4.83336e-06 6.35961e-08 4.43292e-07 5.01008e-06 3.75176e-06 -9.84343e-06)
(4.83393e-06 -6.8926e-08 -4.54804e-07 5.0081e-06 3.75232e-06 -9.84204e-06)
(4.92538e-06 -2.52465e-07 -1.34751e-06 4.93351e-06 3.81326e-06 -9.85889e-06)
(5.10101e-06 2.68236e-08 -2.254e-06 4.87007e-06 3.89169e-06 -9.97108e-06)
(6.29499e-06 -1.12352e-06 -3.18328e-06 3.69854e-06 4.08631e-06 -9.99354e-06)
(5.14672e-06 9.77912e-07 -4.53301e-06 5.14826e-06 4.53141e-06 -1.0295e-05)
(3.71745e-06 1.12438e-06 4.08147e-06 6.28148e-06 3.15899e-06 -9.99892e-06)
(4.87286e-06 4.73759e-07 3.03889e-06 4.86087e-06 3.03589e-06 -9.73373e-06)
(4.80218e-06 5.01243e-08 2.17441e-06 5.02772e-06 2.96122e-06 -9.8299e-06)
(4.96967e-06 8.89208e-09 1.30689e-06 4.89392e-06 2.92901e-06 -9.8636e-06)
(4.96285e-06 -8.65842e-09 4.31398e-07 4.88391e-06 2.90827e-06 -9.84676e-06)
(4.96255e-06 -1.77702e-09 -4.41204e-07 4.88386e-06 2.90919e-06 -9.84641e-06)
(4.96935e-06 -1.91183e-08 -1.31779e-06 4.89494e-06 2.93226e-06 -9.86429e-06)
(4.80832e-06 -6.49598e-08 -2.18962e-06 5.03462e-06 2.97165e-06 -9.84294e-06)
(4.86675e-06 -5.0201e-07 -3.05241e-06 4.87093e-06 3.05007e-06 -9.73768e-06)
(3.69471e-06 -1.12343e-06 -4.08588e-06 6.29514e-06 3.17933e-06 -9.98985e-06)
(4.88092e-06 -2.78059e-08 3.88945e-06 5.08272e-06 2.2358e-06 -9.96363e-06)
(5.03801e-06 5.5839e-08 2.96732e-06 4.8014e-06 2.17596e-06 -9.83941e-06)
(4.89573e-06 1.27816e-07 2.12108e-06 4.88978e-06 2.11967e-06 -9.78551e-06)
(4.96444e-06 6.99008e-08 1.27954e-06 4.84985e-06 2.08051e-06 -9.81429e-06)
(4.94289e-06 2.01356e-08 4.2385e-07 4.86435e-06 2.06314e-06 -9.80724e-06)
(4.94227e-06 -2.98363e-08 -4.31641e-07 4.86526e-06 2.06413e-06 -9.80753e-06)
(4.96322e-06 -7.92747e-08 -1.28777e-06 4.85356e-06 2.08397e-06 -9.81678e-06)
(4.89202e-06 -1.36354e-07 -2.12876e-06 4.8946e-06 2.12574e-06 -9.78662e-06)
(5.02546e-06 -6.45407e-08 -2.97028e-06 4.8057e-06 2.18378e-06 -9.83116e-06)
(4.86817e-06 2.69545e-08 -3.89257e-06 5.10324e-06 2.2504e-06 -9.97141e-06)
(4.93593e-06 2.52589e-07 3.81297e-06 4.92185e-06 1.33459e-06 -9.85778e-06)
(4.89539e-06 1.4488e-08 2.93112e-06 4.96723e-06 1.30678e-06 -9.86262e-06)
(4.854e-06 7.22616e-08 2.08216e-06 4.96116e-06 1.27909e-06 -9.81515e-06)
(4.91093e-06 3.20989e-08 1.25165e-06 4.90744e-06 1.2509e-06 -9.81837e-06)
(4.90789e-06 6.7014e-09 4.15202e-07 4.89487e-06 1.23696e-06 -9.80276e-06)
(4.90757e-06 -1.40696e-08 -4.21011e-07 4.89642e-06 1.23797e-06 -9.80399e-06)
(4.90906e-06 -3.89653e-08 -1.25726e-06 4.91026e-06 1.25368e-06 -9.81932e-06)
(4.85067e-06 -7.84048e-08 -2.08667e-06 4.96466e-06 1.28382e-06 -9.81533e-06)
(4.89141e-06 -1.8179e-08 -2.93438e-06 4.97249e-06 1.31362e-06 -9.8639e-06)
(4.93096e-06 -2.52656e-07 -3.81465e-06 4.92949e-06 1.34313e-06 -9.86045e-06)
(5.00532e-06 6.68619e-08 3.75283e-06 4.8361e-06 4.43914e-07 -9.84141e-06)
(4.88248e-06 -4.5083e-09 2.90958e-06 4.96248e-06 4.31486e-07 -9.84496e-06)
(4.866e-06 2.28394e-08 2.06422e-06 4.94063e-06 4.23593e-07 -9.80663e-06)
(4.89791e-06 7.85839e-09 1.2378e-06 4.9056e-06 4.14846e-07 -9.80351e-06)
(4.90079e-06 -2.29987e-10 4.11277e-07 4.89842e-06 4.1086e-07 -9.79921e-06)
(4.90024e-06 -5.29666e-09 -4.15402e-07 4.8992e-06 4.11563e-07 -9.79944e-06)
(4.89589e-06 -1.289e-08 -1.24154e-06 4.90716e-06 4.16953e-07 -9.80305e-06)
(4.864e-06 -2.74974e-08 -2.06749e-06 4.94372e-06 4.27175e-07 -9.80772e-06)
(4.88105e-06 7.92727e-10 -2.91199e-06 4.96611e-06 4.36174e-07 -9.84716e-06)
(5.00398e-06 -6.82161e-08 -3.75383e-06 4.83955e-06 4.49207e-07 -9.84353e-06)
(5.00486e-06 -6.76462e-08 3.75308e-06 4.83636e-06 -4.54251e-07 -9.84121e-06)
(4.88252e-06 9.76894e-10 2.91015e-06 4.96303e-06 -4.40985e-07 -9.84555e-06)
(4.86546e-06 -2.7519e-08 2.06493e-06 4.94122e-06 -4.31687e-07 -9.80669e-06)
(4.89739e-06 -1.27234e-08 1.23845e-06 4.90528e-06 -4.21145e-07 -9.80267e-06)
(4.90109e-06 -4.73312e-09 4.11965e-07 4.89827e-06 -4.15632e-07 -9.79936e-06)
(4.90062e-06 5.28633e-10 -4.14875e-07 4.89888e-06 -4.15098e-07 -9.7995e-06)
(4.89634e-06 8.77794e-09 -1.24116e-06 4.90678e-06 -4.19574e-07 -9.80312e-06)
(4.8644e-06 2.41855e-08 -2.06722e-06 4.9434e-06 -4.2915e-07 -9.8078e-06)
(4.88138e-06 -3.43674e-09 -2.91182e-06 4.96587e-06 -4.37714e-07 -9.84726e-06)
(5.00411e-06 6.61148e-08 -3.75373e-06 4.83948e-06 -4.50491e-07 -9.84359e-06)
(4.93107e-06 -2.5175e-07 3.8139e-06 4.92739e-06 -1.34711e-06 -9.85846e-06)
(4.89277e-06 -1.75786e-08 2.93267e-06 4.96971e-06 -1.31744e-06 -9.86248e-06)
(4.8527e-06 -7.77451e-08 2.08426e-06 4.96188e-06 -1.28754e-06 -9.81458e-06)
(4.91132e-06 -3.77391e-08 1.25421e-06 4.90769e-06 -1.25735e-06 -9.81901e-06)
(4.90918e-06 -1.21729e-08 4.17373e-07 4.89487e-06 -1.2418e-06 -9.80406e-06)
(4.90889e-06 9.12512e-09 -4.19393e-07 4.89529e-06 -1.2414e-06 -9.80418e-06)
(4.91049e-06 3.49607e-08 -1.25609e-06 4.90906e-06 -1.25619e-06 -9.81955e-06)
(4.85194e-06 7.53242e-08 -2.08589e-06 4.96364e-06 -1.2857e-06 -9.81558e-06)
(4.8924e-06 1.57898e-08 -2.93389e-06 4.97175e-06 -1.3151e-06 -9.86415e-06)
(4.9313e-06 2.50786e-07 -3.81435e-06 4.9293e-06 -1.34438e-06 -9.8606e-06)
(4.8681e-06 2.65823e-08 3.89173e-06 5.10191e-06 -2.25357e-06 -9.97001e-06)
(5.02751e-06 -6.41945e-08 2.96858e-06 4.80291e-06 -2.18687e-06 -9.83041e-06)
(4.89455e-06 -1.35421e-07 2.12629e-06 4.89159e-06 -2.12881e-06 -9.78614e-06)
(4.9664e-06 -7.7551e-08 1.28454e-06 4.85041e-06 -2.08714e-06 -9.81681e-06)
(4.94507e-06 -2.6641e-08 4.27572e-07 4.86266e-06 -2.06758e-06 -9.80772e-06)
(4.94479e-06 2.47599e-08 -4.28919e-07 4.86309e-06 -2.06729e-06 -9.80788e-06)
(4.96579e-06 7.56931e-08 -1.28583e-06 4.8515e-06 -2.08626e-06 -9.81729e-06)
(4.89415e-06 1.337e-07 -2.12745e-06 4.89298e-06 -2.12746e-06 -9.78713e-06)
(5.02718e-06 6.2715e-08 -2.96948e-06 4.80446e-06 -2.18512e-06 -9.83164e-06)
(4.86864e-06 -2.78696e-08 -3.89211e-06 5.10299e-06 -2.2515e-06 -9.97163e-06)
(3.69481e-06 -1.12387e-06 4.08483e-06 6.29399e-06 -3.18176e-06 -9.9888e-06)
(4.86994e-06 -5.02567e-07 3.05059e-06 4.86773e-06 -3.05247e-06 -9.73767e-06)
(4.81166e-06 -6.43716e-08 2.187e-06 5.03152e-06 -2.97405e-06 -9.84318e-06)
(4.97375e-06 -1.7384e-08 1.31428e-06 4.89126e-06 -2.93476e-06 -9.86501e-06)
(4.96713e-06 1.6974e-09 4.36603e-07 4.88015e-06 -2.91202e-06 -9.84728e-06)
(4.96688e-06 -2.60647e-09 -4.37429e-07 4.88046e-06 -2.91179e-06 -9.84733e-06)
(4.97322e-06 1.63053e-08 -1.3151e-06 4.892e-06 -2.93411e-06 -9.86522e-06)
(4.81137e-06 6.29477e-08 -2.1878e-06 5.03238e-06 -2.97301e-06 -9.84376e-06)
(4.86983e-06 5.00679e-07 -3.05123e-06 4.86856e-06 -3.05114e-06 -9.73838e-06)
(3.69649e-06 1.12271e-06 -4.08506e-06 6.29375e-06 -3.18015e-06 -9.99025e-06)
(5.14739e-06 9.78661e-07 4.53167e-06 5.1462e-06 -4.53293e-06 -1.02936e-05)
(6.29857e-06 -1.12445e-06 3.18128e-06 3.69574e-06 -4.08782e-06 -9.99431e-06)
(5.10466e-06 2.71287e-08 2.25118e-06 4.86788e-06 -3.89309e-06 -9.97254e-06)
(4.93045e-06 -2.51845e-07 1.3437e-06 4.93036e-06 -3.81469e-06 -9.86081e-06)
(4.84027e-06 -6.72772e-08 4.49697e-07 5.00364e-06 -3.7538e-06 -9.84391e-06)
(4.84002e-06 6.69886e-08 -4.50124e-07 5.00384e-06 -3.75364e-06 -9.84386e-06)
(4.92969e-06 2.514e-07 -1.34415e-06 4.93112e-06 -3.81418e-06 -9.86081e-06)
(5.1039e-06 -2.78733e-08 -2.25169e-06 4.86898e-06 -3.89226e-06 -9.97288e-06)
(6.29787e-06 1.12287e-06 -3.18175e-06 3.69707e-06 -4.08678e-06 -9.99494e-06)
(5.14898e-06 -9.78312e-07 -4.53178e-06 5.14683e-06 -4.53166e-06 -1.02958e-05)
(3.46861e-06 1.98202e-07 4.21584e-06 3.45586e-06 4.21024e-06 -6.92446e-06)
(3.71995e-06 2.26514e-07 2.93717e-06 2.8771e-06 3.76193e-06 -6.59705e-06)
(3.23536e-06 -3.22149e-07 2.05842e-06 3.52378e-06 3.68804e-06 -6.75913e-06)
(3.16774e-06 6.9816e-08 1.22182e-06 3.49784e-06 3.63731e-06 -6.66558e-06)
(3.11084e-06 -3.39263e-08 4.06908e-07 3.56935e-06 3.59169e-06 -6.68019e-06)
(3.11074e-06 3.39084e-08 -4.16089e-07 3.56798e-06 3.59224e-06 -6.67872e-06)
(3.16835e-06 -6.84879e-08 -1.23118e-06 3.49233e-06 3.63917e-06 -6.66068e-06)
(3.24333e-06 3.22835e-07 -2.07038e-06 3.51288e-06 3.69247e-06 -6.75621e-06)
(3.72189e-06 -2.27894e-07 -2.9519e-06 2.86834e-06 3.77172e-06 -6.59024e-06)
(3.44965e-06 -1.91935e-07 -4.22047e-06 3.45198e-06 4.21857e-06 -6.90163e-06)
(2.87318e-06 2.33202e-07 3.76997e-06 3.71969e-06 2.93583e-06 -6.59287e-06)
(3.1987e-06 8.4125e-08 2.83281e-06 3.1957e-06 2.82845e-06 -6.3944e-06)
(3.2349e-06 -1.17117e-07 2.04323e-06 3.4399e-06 2.79201e-06 -6.6748e-06)
(3.34047e-06 -4.55158e-08 1.2212e-06 3.39274e-06 2.78321e-06 -6.73321e-06)
(3.31854e-06 -3.34325e-08 4.03303e-07 3.44516e-06 2.7723e-06 -6.76371e-06)
(3.31837e-06 2.83587e-08 -4.1099e-07 3.44484e-06 2.77321e-06 -6.76321e-06)
(3.33984e-06 4.09364e-08 -1.22895e-06 3.39287e-06 2.78622e-06 -6.73271e-06)
(3.23913e-06 1.14918e-07 -2.05414e-06 3.44325e-06 2.80105e-06 -6.68237e-06)
(3.19553e-06 -9.33356e-08 -2.84038e-06 3.19695e-06 2.83775e-06 -6.39248e-06)
(2.86496e-06 -2.26904e-07 -3.77118e-06 3.72065e-06 2.94739e-06 -6.58561e-06)
(3.51886e-06 -3.18691e-07 3.69185e-06 3.2366e-06 2.05812e-06 -6.75546e-06)
(3.44522e-06 -1.14609e-07 2.80002e-06 3.23798e-06 2.04406e-06 -6.6832e-06)
(3.38059e-06 -2.37405e-08 2.00464e-06 3.37882e-06 2.00188e-06 -6.75942e-06)
(3.41225e-06 -3.42065e-09 1.20189e-06 3.38808e-06 1.97543e-06 -6.80033e-06)
(3.37104e-06 3.88327e-10 3.97136e-07 3.43599e-06 1.96279e-06 -6.80703e-06)
(3.37047e-06 -4.28353e-09 -4.02949e-07 3.43654e-06 1.96376e-06 -6.80701e-06)
(3.41196e-06 -4.6522e-10 -1.20783e-06 3.39041e-06 1.97856e-06 -6.80237e-06)
(3.37946e-06 2.18635e-08 -2.00959e-06 3.38058e-06 2.0064e-06 -6.76004e-06)
(3.43715e-06 1.14658e-07 -2.79937e-06 3.23517e-06 2.04769e-06 -6.67232e-06)
(3.51207e-06 3.22812e-07 -3.69353e-06 3.24313e-06 2.06652e-06 -6.75519e-06)
(3.4939e-06 7.09734e-08 3.63942e-06 3.1694e-06 1.22187e-06 -6.6633e-06)
(3.39221e-06 -4.29591e-08 2.7865e-06 3.34056e-06 1.22028e-06 -6.73276e-06)
(3.38939e-06 -2.21968e-09 1.97841e-06 3.41181e-06 1.20043e-06 -6.8012e-06)
(3.42613e-06 -1.84163e-08 1.18414e-06 3.42517e-06 1.18221e-06 -6.8513e-06)
(3.40653e-06 -6.00604e-09 3.91629e-07 3.44907e-06 1.17354e-06 -6.8556e-06)
(3.40641e-06 4.10064e-09 -3.95761e-07 3.45001e-06 1.17446e-06 -6.85642e-06)
(3.42526e-06 1.67765e-08 -1.18803e-06 3.42634e-06 1.18447e-06 -6.8516e-06)
(3.38822e-06 -2.55854e-10 -1.98135e-06 3.41243e-06 1.20387e-06 -6.80065e-06)
(3.39077e-06 4.06691e-08 -2.78854e-06 3.34079e-06 1.22482e-06 -6.73156e-06)
(3.49113e-06 -6.99179e-08 -3.64099e-06 3.16968e-06 1.22698e-06 -6.66081e-06)
(3.56683e-06 -3.39941e-08 3.59286e-06 3.11246e-06 4.07311e-07 -6.67929e-06)
(3.44329e-06 -3.19532e-08 2.77445e-06 3.3192e-06 4.02932e-07 -6.76249e-06)
(3.43582e-06 1.58557e-09 1.96498e-06 3.3707e-06 3.96166e-07 -6.80651e-06)
(3.44998e-06 -5.43375e-09 1.1755e-06 3.40627e-06 3.90398e-07 -6.85625e-06)
(3.4364e-06 -1.93854e-09 3.89797e-07 3.43594e-06 3.8843e-07 -6.87234e-06)
(3.43599e-06 8.50026e-10 -3.92569e-07 3.43625e-06 3.89017e-07 -6.87224e-06)
(3.44871e-06 4.47049e-09 -1.17798e-06 3.4064e-06 3.92044e-07 -6.85511e-06)
(3.43509e-06 -3.40942e-09 -1.96725e-06 3.37121e-06 3.98912e-07 -6.8063e-06)
(3.44275e-06 2.90035e-08 -2.77629e-06 3.32012e-06 4.06447e-07 -6.76287e-06)
(3.56567e-06 3.28043e-08 -3.59426e-06 3.11363e-06 4.11112e-07 -6.6793e-06)
(3.567e-06 3.31538e-08 3.59308e-06 3.11149e-06 -4.15551e-07 -6.67848e-06)
(3.44344e-06 2.90306e-08 2.77473e-06 3.31893e-06 -4.10946e-07 -6.76237e-06)
(3.43581e-06 -3.40179e-09 1.9654e-06 3.37043e-06 -4.03387e-07 -6.80624e-06)
(3.44959e-06 4.75358e-09 1.17589e-06 3.40565e-06 -3.96468e-07 -6.85524e-06)
(3.4364e-06 1.18175e-09 3.9031e-07 3.43576e-06 -3.93479e-07 -6.87216e-06)
(3.43602e-06 -1.76036e-09 -3.921e-07 3.43606e-06 -3.93048e-07 -6.87208e-06)
(3.44874e-06 -5.3669e-09 -1.17758e-06 3.40622e-06 -3.95172e-07 -6.85496e-06)
(3.43502e-06 2.44799e-09 -1.96693e-06 3.37115e-06 -4.01317e-07 -6.80616e-06)
(3.44265e-06 -3.02972e-08 -2.77607e-06 3.32008e-06 -4.08303e-07 -6.76273e-06)
(3.56575e-06 -3.42968e-08 -3.5941e-06 3.11353e-06 -4.12567e-07 -6.67928e-06)
(3.49235e-06 -6.92496e-08 3.63966e-06 3.16804e-06 -1.23062e-06 -6.66039e-06)
(3.39119e-06 4.13153e-08 2.78694e-06 3.33953e-06 -1.22855e-06 -6.73071e-06)
(3.38915e-06 2.72037e-10 1.97946e-06 3.41109e-06 -1.20769e-06 -6.80024e-06)
(3.42632e-06 1.7544e-08 1.18581e-06 3.42497e-06 -1.18841e-06 -6.85129e-06)
(3.40687e-06 5.08636e-09 3.9328e-07 3.44915e-06 -1.17869e-06 -6.85602e-06)
(3.4065e-06 -5.02902e-09 -3.94326e-07 3.4494e-06 -1.17836e-06 -6.85591e-06)
(3.42534e-06 -1.75703e-08 -1.18682e-06 3.42583e-06 -1.18745e-06 -6.85117e-06)
(3.38815e-06 -5.92067e-10 -1.98044e-06 3.41209e-06 -1.20617e-06 -6.80024e-06)
(3.39041e-06 -4.18945e-08 -2.78789e-06 3.3407e-06 -1.22663e-06 -6.73111e-06)
(3.49128e-06 6.8494e-08 -3.64052e-06 3.16957e-06 -1.22845e-06 -6.66085e-06)
(3.51369e-06 3.22282e-07 3.69213e-06 3.24159e-06 -2.06954e-06 -6.75529e-06)
(3.43754e-06 1.15313e-07 2.79763e-06 3.23382e-06 -2.05076e-06 -6.67137e-06)
(3.38038e-06 2.27103e-08 2.00751e-06 3.37901e-06 -2.0096e-06 -6.75939e-06)
(3.41322e-06 7.45188e-10 1.20534e-06 3.38866e-06 -1.98194e-06 -6.80188e-06)
(3.37119e-06 -2.44396e-09 3.99986e-07 3.43507e-06 -1.96753e-06 -6.80626e-06)
(3.3708e-06 3.18511e-09 -4.00484e-07 3.43539e-06 -1.96729e-06 -6.80619e-06)
(3.41218e-06 -9.79083e-11 -1.20585e-06 3.38955e-06 -1.98126e-06 -6.80173e-06)
(3.37922e-06 -2.24986e-08 -2.00811e-06 3.38017e-06 -2.00849e-06 -6.75939e-06)
(3.43651e-06 -1.15344e-07 -2.79834e-06 3.23511e-06 -2.04935e-06 -6.67162e-06)
(3.5118e-06 -3.22856e-07 -3.69286e-06 3.24341e-06 -2.0679e-06 -6.75521e-06)
(2.86765e-06 -2.28546e-07 3.76965e-06 3.71909e-06 -2.94982e-06 -6.58674e-06)
(3.1964e-06 -9.30929e-08 2.83852e-06 3.19544e-06 -2.84021e-06 -6.39184e-06)
(3.24015e-06 1.1578e-07 2.05188e-06 3.44191e-06 -2.80357e-06 -6.68206e-06)