/*--------------------------------*- C++ -*----------------------------------*\
| =========                 |                                                 |
| \\      /  F ield         | OpenFOAM: The Open Source CFD Toolbox           |
|  \\    /   O peration     | Version:  2406                                  |
|   \\  /    A nd           | Website:  www.openfoam.com                      |
|    \\/     M anipulation  |                                                 |
\*---------------------------------------------------------------------------*/
FoamFile
{
    version     2.0;
    format      ascii;
    arch        "LSB;label=32;scalar=64";
    class       volVectorField;
    location    "250";
    object      U;
}
// * * * * * * * * * * * * * * * * * * * * * * * * * * * * * * * * * * * * * //

dimensions      [0 1 -1 0 0 0 0];

internalField   nonuniform List<vector> 
25000
(
(0.00534925 0.00535645 1.00326)
(0.00374008 0.00484899 1.00302)
(0.00262803 0.00461694 1.00284)
(0.00156443 0.0044825 1.00271)
(0.00052682 0.00441217 1.00265)
(-0.000500523 0.00441035 1.00265)
(-0.0015361 0.00447585 1.00271)
(-0.00259436 0.00460314 1.00283)
(-0.00369509 0.00482173 1.00301)
(-0.00532233 0.00532483 1.00325)
(0.00483593 0.00374396 1.00302)
(0.00356276 0.00357002 1.00274)
(0.00249734 0.00344459 1.00255)
(0.00148687 0.00336206 1.00242)
(0.000499501 0.00331961 1.00236)
(-0.000478197 0.00331731 1.00236)
(-0.0014652 0.0033544 1.00242)
(-0.00247481 0.00342992 1.00255)
(-0.00353926 0.00354442 1.00274)
(-0.00481832 0.00370045 1.00301)
(0.00461206 0.00262643 1.00283)
(0.00343861 0.00249987 1.00255)
(0.00240455 0.00240811 1.00235)
(0.00142799 0.00234367 1.00222)
(0.000478309 0.00231043 1.00216)
(-0.000461657 0.00230831 1.00215)
(-0.00141178 0.00233713 1.00222)
(-0.00238915 0.00239635 1.00235)
(-0.00342463 0.00248214 1.00255)
(-0.00459943 0.00260215 1.00283)
(0.00448009 0.00156139 1.00271)
(0.00335837 0.00148682 1.00242)
(0.00234066 0.0014293 1.00222)
(0.00138527 0.00138696 1.00209)
(0.00046249 0.00136447 1.00202)
(-0.000449586 0.00136278 1.00202)
(-0.00137315 0.00138184 1.00209)
(-0.00232973 0.00142063 1.00222)
(-0.0033486 0.00147458 1.00242)
(-0.00447161 0.00154623 1.00271)
(0.00441183 0.000523865 1.00265)
(0.00331736 0.000498222 1.00236)
(0.0023082 0.00047823 1.00216)
(0.00136305 0.000462984 1.00202)
(0.00045383 0.00045446 1.00196)
(-0.000443784 0.000453155 1.00196)
(-0.00135375 0.000459172 1.00202)
(-0.00230009 0.000471999 1.00215)
(-0.00331047 0.000489806 1.00236)
(-0.00440523 0.000513486 1.00265)
(0.00441028 -0.00050316 1.00265)
(0.0033163 -0.000479858 1.00236)
(0.00230694 -0.000462401 1.00215)
(0.00136172 -0.000449769 1.00202)
(0.000452649 -0.000443733 1.00196)
(-0.000444771 -0.000444649 1.00196)
(-0.00135449 -0.000452519 1.00202)
(-0.00230068 -0.000466772 1.00215)
(-0.00331087 -0.000485634 1.00236)
(-0.00440552 -0.000510094 1.00265)
(0.00447645 -0.00153832 1.00271)
(0.00335398 -0.0014668 1.00242)
(0.00233638 -0.0014128 1.00222)
(0.00138123 -0.00137371 1.00209)
(0.000458857 -0.00135402 1.00202)
(-0.000452568 -0.00135464 1.00202)
(-0.00137548 -0.00137557 1.00209)
(-0.0023314 -0.00141572 1.00222)
(-0.00334978 -0.00147066 1.00242)
(-0.00447249 -0.00154303 1.00271)
(0.00460379 -0.00259625 1.00283)
(0.00343006 -0.00247643 1.00255)
(0.00239606 -0.0023903 1.00235)
(0.00142036 -0.00233059 1.00222)
(0.000471926 -0.00230066 1.00215)
(-0.000466719 -0.00230109 1.00215)
(-0.00141558 -0.00233164 1.00222)
(-0.00239191 -0.00239211 1.00235)
(-0.00342653 -0.00247876 1.00255)
(-0.00460077 -0.00259933 1.00283)
(0.00482254 -0.0036967 1.00301)
(0.00354473 -0.00354093 1.00274)
(0.00248219 -0.0034261 1.00255)
(0.00147464 -0.00334977 1.00242)
(0.00048999 -0.00331138 1.00236)
(-0.000485368 -0.00331151 1.00236)
(-0.00147039 -0.0033502 1.00242)
(-0.00247854 -0.00342678 1.00255)
(-0.00354176 -0.00354194 1.00274)
(-0.00482006 -0.00369836 1.00301)
(0.00532517 -0.00532367 1.00325)
(0.00370079 -0.00482022 1.00301)
(0.00260247 -0.0046011 1.00283)
(0.00154664 -0.00447306 1.00271)
(0.000513998 -0.00440634 1.00265)
(-0.000509539 -0.00440635 1.00265)
(-0.00154251 -0.00447299 1.00271)
(-0.0025989 -0.00460101 1.00283)
(-0.00369809 -0.00482008 1.00301)
(-0.00532378 -0.0053238 1.00325)
(0.00708681 0.00707881 1.01899)
(0.00492974 0.00632871 1.01808)
(0.00345574 0.0063706 1.01738)
(0.00205621 0.00634804 1.01692)
(0.000676578 0.00632852 1.01669)
(-0.000699698 0.00632991 1.01669)
(-0.00208262 0.00635279 1.01692)
(-0.00349097 0.00638175 1.01739)
(-0.00497966 0.00635279 1.01808)
(-0.00710892 0.00710567 1.019)
(0.00633799 0.00492634 1.01808)
(0.00483878 0.00483281 1.01704)
(0.00352587 0.00486579 1.01628)
(0.00211943 0.00490661 1.01578)
(0.000700062 0.0049291 1.01553)
(-0.000719337 0.00493105 1.01553)
(-0.00214024 0.00491315 1.01578)
(-0.00354936 0.00487955 1.01628)
(-0.00486481 0.00486051 1.01704)
(-0.00635557 0.00497518 1.01808)
(0.0063747 0.00345751 1.01738)
(0.00487034 0.00352425 1.01628)
(0.0035332 0.0035309 1.01548)
(0.00213184 0.00353634 1.01494)
(0.000706601 0.00354172 1.01468)
(-0.000721484 0.00354367 1.01468)
(-0.00214701 0.00354259 1.01495)
(-0.00354822 0.00354278 1.01548)
(-0.00488375 0.00354372 1.01628)
(-0.0063846 0.00348511 1.01739)
(0.00634999 0.00205878 1.01692)
(0.00490937 0.00211979 1.01578)
(0.00353828 0.00213117 1.01494)
(0.00213281 0.00213194 1.0144)
(0.000708438 0.00213342 1.01413)
(-0.00071946 0.00213508 1.01413)
(-0.00214355 0.00213707 1.0144)
(-0.00354808 0.00214025 1.01495)
(-0.00491745 0.00213291 1.01578)
(-0.00635568 0.00207488 1.01692)
(0.00632926 0.000678864 1.01669)
(0.00493064 0.000701169 1.01552)
(0.00354303 0.000706871 1.01468)
(0.00213415 0.000708336 1.01413)
(0.000709933 0.000709777 1.01385)
(-0.000718012 0.000711048 1.01385)
(-0.00214178 0.000712169 1.01413)
(-0.00354975 0.000713306 1.01468)
(-0.00493598 0.000709958 1.01553)
(-0.00633305 0.000689306 1.01669)
(0.00633027 -0.000697829 1.01669)
(0.00493185 -0.000718078 1.01553)
(0.00354446 -0.000720797 1.01468)
(0.00213554 -0.000719102 1.01413)
(0.00071115 -0.000717801 1.01385)
(-0.000717065 -0.000716875 1.01385)
(-0.00214109 -0.000716375 1.01413)
(-0.00354922 -0.00071634 1.01468)
(-0.0049356 -0.000712144 1.01553)
(-0.00633277 -0.000690837 1.01669)
(0.00635304 -0.00208114 1.01692)
(0.00491351 -0.00213904 1.01578)
(0.00354302 -0.00214621 1.01495)
(0.00213731 -0.002143 1.0144)
(0.00071216 -0.00214139 1.01413)
(-0.000716578 -0.00214075 1.01413)
(-0.00214142 -0.0021411 1.0144)
(-0.00354658 -0.00214316 1.01495)
(-0.00491635 -0.00213503 1.01578)
(-0.00635486 -0.00207639 1.01692)
(0.00638184 -0.00348974 1.01739)
(0.00487969 -0.00354833 1.01628)
(0.00354294 -0.00354742 1.01548)
(0.00214031 -0.00354749 1.01495)
(0.000713203 -0.00354928 1.01468)
(-0.000716589 -0.00354884 1.01468)
(-0.00214349 -0.00354623 1.01495)
(-0.00354572 -0.0035454 1.01548)
(-0.00488195 -0.00354565 1.01628)
(-0.0063833 -0.00348655 1.01739)
(0.00635275 -0.00497861 1.01808)
(0.00486047 -0.00486384 1.01704)
(0.0035437 -0.00488294 1.01628)
(0.00213282 -0.0049168 1.01578)
(0.000709741 -0.00493548 1.01553)
(-0.000712459 -0.00493521 1.01553)
(-0.00213539 -0.00491603 1.01578)
(-0.00354599 -0.00488167 1.01628)
(-0.0048624 -0.00486213 1.01704)
(-0.00635397 -0.0049765 1.01808)
(0.00710561 -0.00710798 1.019)
(0.00497508 -0.00635467 1.01808)
(0.00348496 -0.00638373 1.01739)
(0.00207463 -0.00635495 1.01692)
(0.000688953 -0.00633247 1.01669)
(-0.000691251 -0.00633235 1.01669)
(-0.00207681 -0.00635456 1.01692)
(-0.00348692 -0.00638306 1.01739)
(-0.00497678 -0.00635376 1.01808)
(-0.0071069 -0.0071067 1.019)
(0.00527889 0.00526902 1.03502)
(0.00372369 0.00469978 1.03391)
(0.00255911 0.00495093 1.03308)
(0.0015153 0.00497359 1.03253)
(0.000495843 0.0049966 1.03225)
(-0.000508553 0.00499732 1.03225)
(-0.00152739 0.0049764 1.03254)
(-0.00257243 0.00495595 1.03309)
(-0.00374256 0.00471119 1.03392)
(-0.00528637 0.00528344 1.03504)
(0.00470865 0.00371953 1.03391)
(0.00366951 0.00366332 1.03267)
(0.00269524 0.00376253 1.03174)
(0.00161051 0.00383073 1.03112)
(0.000532998 0.00387058 1.03081)
(-0.000543339 0.00387181 1.03081)
(-0.00162025 0.00383467 1.03112)
(-0.00270423 0.00376888 1.03175)
(-0.00367832 0.00367462 1.03268)
(-0.00471365 0.00373863 1.03392)
(0.00495497 0.0025586 1.03308)
(0.00376771 0.0026922 1.03174)
(0.00273931 0.0027355 1.03075)
(0.0016393 0.00276639 1.03007)
(0.000542934 0.00278262 1.02974)
(-0.000550535 0.00278386 1.02974)
(-0.00164641 0.00276996 1.03008)
(-0.00274564 0.0027413 1.03075)
(-0.00377261 0.00269977 1.03175)
(-0.00495885 0.00256783 1.03309)
(0.00497588 0.00151606 1.03253)
(0.00383429 0.00160929 1.03112)
(0.00276973 0.00163707 1.03007)
(0.00166159 0.00165902 1.02938)
(0.000551274 0.00167143 1.02903)
(-0.000556734 0.00167238 1.02903)
(-0.0016666 0.00166176 1.02938)
(-0.00277435 0.00164142 1.03008)
(-0.00383845 0.00161495 1.03113)
(-0.00497925 0.0015219 1.03254)
(0.00499726 0.000496864 1.03225)
(0.00387303 0.000532833 1.03081)
(0.00278536 0.000541828 1.02974)
(0.00167373 0.000549689 1.02903)
(0.000556369 0.000554639 1.02867)
(-0.000560246 0.000555382 1.02867)
(-0.00167737 0.000551737 1.02903)
(-0.00278859 0.000545083 1.02974)
(-0.00387596 0.000537167 1.03081)
(-0.00500042 0.000501857 1.03226)
(0.00499787 -0.000507619 1.03225)
(0.00387334 -0.000543076 1.03081)
(0.00278589 -0.000550968 1.02974)
(0.0016744 -0.000557635 1.02903)
(0.000556983 -0.000561358 1.02867)
(-0.000559645 -0.00056083 1.02867)
(-0.00167686 -0.000556039 1.02903)
(-0.00278817 -0.000548454 1.02974)
(-0.00387564 -0.000539805 1.03081)
(-0.00500018 -0.000503898 1.03226)
(0.00497646 -0.00152667 1.03254)
(0.00383581 -0.00161989 1.03113)
(0.00277158 -0.00164643 1.03008)
(0.0016634 -0.00166697 1.02938)
(0.000553182 -0.00167798 1.02903)
(-0.000554931 -0.00167758 1.02903)
(-0.00166505 -0.00166583 1.02938)
(-0.00277313 -0.00164462 1.03008)
(-0.00383751 -0.00161749 1.03113)
(-0.00497855 -0.00152392 1.03254)
(0.00495629 -0.00257185 1.03309)
(0.00376975 -0.00270369 1.03175)
(0.00274261 -0.00274536 1.03075)
(0.00164282 -0.00277421 1.03008)
(0.000546314 -0.0027887 1.02974)
(-0.00054745 -0.00278843 1.02974)
(-0.00164389 -0.00277353 1.03008)
(-0.00274369 -0.00274414 1.03075)
(-0.00377113 -0.00270209 1.03175)
(-0.0049578 -0.00256982 1.03309)
(0.00471154 -0.00374211 1.03392)
(0.00367551 -0.0036777 1.03269)
(0.00270097 -0.00377192 1.03175)
(0.00161616 -0.00383792 1.03113)
(0.000538167 -0.00387562 1.03081)
(-0.000538991 -0.00387552 1.03081)
(-0.00161689 -0.00383757 1.03113)
(-0.00270167 -0.00377128 1.03175)
(-0.00367645 -0.00367662 1.03269)
(-0.00471263 -0.00374052 1.03393)
(0.0052845 -0.00528627 1.03504)
(0.00373988 -0.0047132 1.03393)
(0.00256906 -0.00495818 1.03309)
(0.00152289 -0.00497862 1.03254)
(0.000502619 -0.00499997 1.03226)
(-0.00050331 -0.00499989 1.03226)
(-0.00152344 -0.00497844 1.03254)
(-0.00256941 -0.00495772 1.03309)
(-0.00374028 -0.00471244 1.03393)
(-0.00528494 -0.00528478 1.03504)
(0.00356094 0.0035568 1.04583)
(0.0026579 0.00332537 1.04474)
(0.00180275 0.00366046 1.04394)
(0.00107508 0.00370274 1.04342)
(0.00034739 0.00376405 1.04315)
(-0.000352832 0.00376417 1.04315)
(-0.00107998 0.00370354 1.04342)
(-0.0018068 0.00366124 1.04395)
(-0.0026657 0.003328 1.04475)
(-0.00356194 0.00356118 1.04584)
(0.00332681 0.00265756 1.04474)
(0.00266803 0.00266685 1.04355)
(0.00194399 0.00279787 1.04264)
(0.00115868 0.00285809 1.04204)
(0.00038578 0.0029011 1.04174)
(-0.000390104 0.00290161 1.04174)
(-0.00116275 0.00286018 1.04204)
(-0.00194732 0.00280081 1.04265)
(-0.00267118 0.0026705 1.04355)
(-0.00332831 0.00266488 1.04475)
(0.00365969 0.00180393 1.04394)
(0.00279846 0.00194404 1.04264)
(0.00201712 0.00201683 1.04167)
(0.00119309 0.00205916 1.04102)
(0.000395993 0.00207906 1.0407)
(-0.000399002 0.00207955 1.0407)
(-0.00119579 0.00206064 1.04102)
(-0.00202017 0.0020192 1.04168)
(-0.00280158 0.00194633 1.04265)
(-0.00366209 0.00180583 1.04395)
(0.00370135 0.00107669 1.04342)
(0.00285783 0.00115947 1.04204)
(0.00205918 0.00119339 1.04102)
(0.0012249 0.00122505 1.04034)
(0.000406371 0.00124041 1.04)
(-0.000408741 0.00124068 1.04)
(-0.00122705 0.00122575 1.04034)
(-0.0020616 0.00119446 1.04102)
(-0.00286083 0.00116132 1.04205)
(-0.00370398 0.00107878 1.04342)
(0.00376215 0.000348817 1.04315)
(0.00290032 0.000386863 1.04174)
(0.00207875 0.000396696 1.0407)
(0.00124012 0.000406842 1.04)
(0.000411394 0.000411802 1.03966)
(-0.000413448 0.00041197 1.03966)
(-0.00124201 0.00040723 1.04)
(-0.0020806 0.000397342 1.0407)
(-0.00290229 0.000388154 1.04174)
(-0.00376446 0.000350899 1.04316)
(0.00376254 -0.000351663 1.04316)
(0.00290057 -0.000389025 1.04174)
(0.00207896 -0.000398146 1.0407)
(0.00124024 -0.000408105 1.04)
(0.000411499 -0.000412923 1.03966)
(-0.00041332 -0.000412853 1.03966)
(-0.0012419 -0.000407888 1.04001)
(-0.00208046 -0.000397775 1.0407)
(-0.00290212 -0.000388333 1.04174)
(-0.00376425 -0.000350679 1.04316)
(0.00370186 -0.00107886 1.04342)
(0.00285907 -0.00116162 1.04204)
(0.0020599 -0.00119484 1.04102)
(0.00122514 -0.00122629 1.04034)
(0.000406655 -0.00124144 1.04001)
(-0.000408409 -0.00124145 1.04001)
(-0.0012267 -0.0012263 1.04034)
(-0.00206125 -0.00119484 1.04102)
(-0.00286037 -0.00116146 1.04205)
(-0.00370335 -0.00107854 1.04343)
(0.00365987 -0.00180542 1.04395)
(0.00279962 -0.001946 1.04265)
(0.00201827 -0.00201904 1.04168)
(0.00119364 -0.00206067 1.04102)
(0.000396562 -0.00207995 1.0407)
(-0.000398413 -0.00208001 1.0407)
(-0.00119529 -0.00206098 1.04102)
(-0.00201962 -0.0020194 1.04168)
(-0.00280085 -0.00194637 1.04265)
(-0.00366105 -0.0018057 1.04395)
(0.00332637 -0.00266414 1.04475)
(0.00266916 -0.00266965 1.04356)
(0.0019452 -0.00280014 1.04265)
(0.00116021 -0.00285974 1.04205)
(0.000387093 -0.00290153 1.04174)
(-0.00038923 -0.0029017 1.04174)
(-0.00116212 -0.00286022 1.04205)
(-0.00194668 -0.00280086 1.04265)
(-0.00267044 -0.00267044 1.04356)
(-0.00332757 -0.0026649 1.04475)
(0.00356007 -0.00356041 1.04584)
(0.00266367 -0.00332671 1.04475)
(0.00180449 -0.00366046 1.04395)
(0.00107725 -0.00370283 1.04343)
(0.000349439 -0.00376376 1.04316)
(-0.000351939 -0.00376393 1.04316)
(-0.0010795 -0.00370341 1.04343)
(-0.00180621 -0.00366139 1.04395)
(-0.00266494 -0.00332781 1.04475)
(-0.00356123 -0.0035613 1.04584)
(0.0023577 0.00235935 1.05231)
(0.00193243 0.00234637 1.05127)
(0.00129749 0.00263154 1.05052)
(0.00078916 0.00266552 1.05002)
(0.000249396 0.00274054 1.04978)
(-0.000249703 0.00274012 1.04978)
(-0.000789875 0.00266466 1.05003)
(-0.00129629 0.002629 1.05052)
(-0.00193165 0.00234122 1.05127)
(-0.00235027 0.00235059 1.05231)
(0.00234278 0.00193421 1.05127)
(0.00194688 0.00194919 1.05013)
(0.00140098 0.00206635 1.04927)
(0.000844692 0.00210108 1.0487)
(0.000283366 0.0021404 1.04842)
(-0.000283626 0.00214022 1.04842)
(-0.000845368 0.00210147 1.0487)
(-0.00140145 0.00206695 1.04927)
(-0.00194734 0.00194813 1.05014)
(-0.00234083 0.00193243 1.05127)
(0.00262838 0.00129861 1.05052)
(0.00206425 0.00140267 1.04927)
(0.00148493 0.00148661 1.04834)
(0.000879721 0.00152625 1.04772)
(0.000294881 0.00154705 1.04741)
(-0.00029522 0.00154687 1.04742)
(-0.000879927 0.00152598 1.04772)
(-0.00148595 0.00148662 1.04834)
(-0.00206631 0.00140212 1.04928)
(-0.00262901 0.00129711 1.05052)
(0.00266271 0.000790281 1.05003)
(0.00209892 0.000846079 1.0487)
(0.00152449 0.000881187 1.04772)
(0.000910041 0.000911512 1.04707)
(0.000304674 0.000925582 1.04675)
(-0.000305452 0.000925398 1.04675)
(-0.000910579 0.000911011 1.04708)
(-0.0015253 0.000880393 1.04772)
(-0.00210066 0.000845875 1.0487)
(-0.00266401 0.000790681 1.05003)
(0.0027379 0.000249985 1.04978)
(0.00213844 0.000284299 1.04842)
(0.00154538 0.000296004 1.04742)
(0.000924093 0.000305893 1.04675)
(0.000308452 0.000309689 1.04642)
(-0.000309515 0.000309583 1.04642)
(-0.000924935 0.000305531 1.04675)
(-0.00154612 0.000295403 1.04742)
(-0.00213934 0.000283888 1.04842)
(-0.00273921 0.000250222 1.04978)
(0.00273801 -0.000249471 1.04978)
(0.00213846 -0.000283106 1.04842)
(0.00154534 -0.000294492 1.04742)
(0.000924022 -0.000304608 1.04675)
(0.00030836 -0.000308597 1.04642)
(-0.000309618 -0.000308697 1.04642)
(-0.000925055 -0.000304913 1.04675)
(-0.00154622 -0.000295027 1.04742)
(-0.00213939 -0.000283675 1.04842)
(-0.00273917 -0.000250028 1.04978)
(0.0026627 -0.000789869 1.05003)
(0.00209996 -0.000845041 1.0487)
(0.00152464 -0.000879417 1.04772)
(0.000909713 -0.000909989 1.04708)
(0.000304374 -0.000924297 1.04675)
(-0.000305828 -0.000924403 1.04675)
(-0.000910967 -0.000910326 1.04708)
(-0.0015256 -0.000879959 1.04773)
(-0.0021008 -0.000845576 1.0487)
(-0.00266395 -0.000790356 1.05003)
(0.00262781 -0.00129621 1.05052)
(0.00206571 -0.00140103 1.04928)
(0.00148538 -0.00148543 1.04834)
(0.000879157 -0.00152474 1.04772)
(0.000294253 -0.0015456 1.04742)
(-0.000295943 -0.00154572 1.04742)
(-0.000880616 -0.00152516 1.04773)
(-0.00148643 -0.00148604 1.04834)
(-0.0020665 -0.00140171 1.04928)
(-0.00262872 -0.00129679 1.05052)
(0.00234021 -0.00193134 1.05127)
(0.00194703 -0.0019467 1.05014)
(0.00140091 -0.00206551 1.04928)
(0.000844587 -0.00210004 1.0487)
(0.000282672 -0.00213882 1.04842)
(-0.000284667 -0.00213898 1.04842)
(-0.000846354 -0.0021005 1.0487)
(-0.00140218 -0.00206632 1.04928)
(-0.00194781 -0.00194761 1.05014)
(-0.00234102 -0.00193221 1.05127)
(0.00235046 -0.0023498 1.05231)
(0.00193165 -0.00234015 1.05127)
(0.00129584 -0.00262817 1.05052)
(0.000789167 -0.00266355 1.05003)
(0.000248872 -0.00273887 1.04978)
(-0.000251165 -0.00273895 1.04978)
(-0.000791288 -0.00266383 1.05003)
(-0.00129738 -0.00262878 1.05052)
(-0.0019324 -0.00234091 1.05127)
(-0.00235071 -0.00235061 1.05231)
(0.0018355 0.00183787 1.05684)
(0.00162194 0.00188761 1.05585)
(0.00108055 0.00205916 1.05515)
(0.000670788 0.00206474 1.05468)
(0.000204841 0.00212634 1.05444)
(-0.000208305 0.00212625 1.05444)
(-0.000675865 0.00206511 1.05468)
(-0.00108469 0.00205932 1.05515)
(-0.0016253 0.00188633 1.05586)
(-0.00183294 0.00183201 1.05684)
(0.00188584 0.00162305 1.05585)
(0.00158849 0.00159025 1.05478)
(0.00112185 0.00165797 1.05396)
(0.000686086 0.00165306 1.05343)
(0.00022775 0.0016783 1.05316)
(-0.000230784 0.00167819 1.05316)
(-0.000690029 0.00165372 1.05343)
(-0.00112615 0.00166003 1.05397)
(-0.00159304 0.00159203 1.05478)
(-0.00188773 0.00162419 1.05586)
(0.00205841 0.0010811 1.05515)
(0.00165678 0.00112318 1.05396)
(0.00118573 0.00118702 1.05308)
(0.000707147 0.0012032 1.0525)
(0.000237228 0.00121694 1.05221)
(-0.000240346 0.0012168 1.05221)
(-0.000710216 0.00120312 1.0525)
(-0.00118928 0.00118781 1.05309)
(-0.00166128 0.00112463 1.05397)
(-0.00206137 0.00108299 1.05515)
(0.00206414 0.000671609 1.05468)
(0.00165192 0.000687204 1.05343)
(0.00120186 0.000708432 1.0525)
(0.000721083 0.00072243 1.05189)
(0.000242604 0.000729762 1.05158)
(-0.000245933 0.000729686 1.05158)
(-0.00072412 0.000722413 1.05189)
(-0.00120463 0.000708526 1.0525)
(-0.00165507 0.000688239 1.05343)
(-0.0020669 0.000673945 1.05468)
(0.00212581 0.000205297 1.05444)
(0.00167752 0.000228492 1.05316)
(0.00121586 0.000238231 1.05221)
(0.000728466 0.000243792 1.05158)
(0.000244163 0.000245389 1.05127)
(-0.000247411 0.000245413 1.05127)
(-0.000731388 0.00024393 1.05158)
(-0.00121836 0.000238446 1.05221)
(-0.00167978 0.000228914 1.05316)
(-0.00212827 0.000206405 1.05444)
(0.00212587 -0.000207637 1.05444)
(0.00167751 -0.000230107 1.05316)
(0.00121587 -0.000239573 1.05221)
(0.000728549 -0.000245037 1.05158)
(0.000244221 -0.000246419 1.05127)
(-0.000247401 -0.000246395 1.05127)
(-0.000731403 -0.000244958 1.05158)
(-0.00121837 -0.000239498 1.05221)
(-0.00167977 -0.000229971 1.05316)
(-0.00212819 -0.000207446 1.05444)
(0.00206441 -0.000675183 1.05468)
(0.00165301 -0.00068938 1.05343)
(0.00120224 -0.000709543 1.0525)
(0.000721331 -0.000723438 1.05189)
(0.000242815 -0.000730631 1.05158)
(-0.000245947 -0.000730611 1.05158)
(-0.000724184 -0.000723385 1.05189)
(-0.00120465 -0.000709504 1.0525)
(-0.00165508 -0.000689177 1.05343)
(-0.0020668 -0.000674792 1.05468)
(0.00205895 -0.001084 1.05515)
(0.00165931 -0.00112541 1.05397)
(0.00118691 -0.00118862 1.05309)
(0.000707472 -0.00120398 1.0525)
(0.00023737 -0.00121771 1.05221)
(-0.000240457 -0.00121769 1.05221)
(-0.000710297 -0.001204 1.0525)
(-0.00118926 -0.00118866 1.05309)
(-0.00166118 -0.00112539 1.05397)
(-0.00206094 -0.00108371 1.05515)
(0.00188575 -0.00162456 1.05586)
(0.00159121 -0.00159216 1.05478)
(0.00112362 -0.00166039 1.05397)
(0.000687137 -0.00165436 1.05343)
(0.000227834 -0.00167908 1.05316)
(-0.000230947 -0.00167912 1.05316)
(-0.000690067 -0.00165449 1.05343)
(-0.00112607 -0.00166074 1.05397)
(-0.00159299 -0.0015926 1.05478)
(-0.00188742 -0.00162481 1.05586)
(0.00183204 -0.00183223 1.05684)
(0.00162353 -0.00188679 1.05586)
(0.00108187 -0.00206036 1.05515)
(0.000672682 -0.00206619 1.05468)
(0.000205292 -0.00212751 1.05444)
(-0.000208486 -0.00212751 1.05444)
(-0.000675808 -0.00206613 1.05468)
(-0.00108459 -0.00206056 1.05515)
(-0.00162527 -0.00188722 1.05586)
(-0.00183282 -0.00183286 1.05684)
(0.00182165 0.00182166 1.06106)
(0.00161998 0.00187027 1.06011)
(0.00108225 0.00196174 1.05942)
(0.000680361 0.00195428 1.05896)
(0.000203777 0.00199977 1.05873)
(-0.000211343 0.0020003 1.05873)
(-0.000689607 0.00195665 1.05896)
(-0.00109172 0.00196559 1.05942)
(-0.00162897 0.00187531 1.06011)
(-0.00182658 0.00182381 1.06107)
(0.00187281 0.00161928 1.0601)
(0.00155693 0.00155627 1.05906)
(0.00108887 0.00159365 1.05828)
(0.000671842 0.00156696 1.05776)
(0.000218685 0.00158293 1.0575)
(-0.000225082 0.0015832 1.05751)
(-0.00067904 0.0015684 1.05777)
(-0.00109659 0.0015972 1.05828)
(-0.00156498 0.00156134 1.05906)
(-0.00187878 0.00162509 1.06011)
(0.0019646 0.00108192 1.05942)
(0.00159475 0.00108877 1.05828)
(0.00113687 0.00113662 1.05744)
(0.000684072 0.00113497 1.05688)
(0.000227811 0.00114427 1.0566)
(-0.000233767 0.00114443 1.0566)
(-0.000690061 0.0011356 1.05688)
(-0.00114284 0.00113846 1.05744)
(-0.00160113 0.00109208 1.05828)
(-0.00197001 0.00108672 1.05942)
(0.00195696 0.000680505 1.05896)
(0.00156805 0.000671945 1.05776)
(0.00113518 0.000684265 1.05688)
(0.000684321 0.00068458 1.0563)
(0.000229937 0.000687428 1.056)
(-0.000235586 0.000687552 1.056)
(-0.000689817 0.000685249 1.0563)
(-0.00114008 0.000685454 1.05688)
(-0.00157267 0.000674156 1.05777)
(-0.00196135 0.000684154 1.05896)
(0.002002 0.000204179 1.05873)
(0.00158425 0.000218934 1.0575)
(0.00114476 0.000228127 1.0566)
(0.000687251 0.00023039 1.056)
(0.000230535 0.000230991 1.05571)
(-0.000235726 0.000231133 1.05571)
(-0.000692179 0.000230985 1.056)
(-0.00114914 0.00022918 1.0566)
(-0.00158807 0.000220283 1.05751)
(-0.00200582 0.000206137 1.05873)
(0.00200206 -0.000209893 1.05873)
(0.00158421 -0.000224168 1.0575)
(0.00114485 -0.000233142 1.0566)
(0.000687439 -0.000235028 1.056)
(0.00023068 -0.000235164 1.05571)
(-0.000235605 -0.000235064 1.05571)
(-0.000692032 -0.000234647 1.056)
(-0.00114899 -0.000232515 1.0566)
(-0.00158792 -0.0002233 1.05751)
(-0.00200561 -0.000208895 1.05873)
(0.00195746 -0.000687751 1.05896)
(0.00156888 -0.000677812 1.05777)
(0.00113572 -0.000689187 1.05688)
(0.000684997 -0.000689186 1.0563)
(0.000230509 -0.000691586 1.056)
(-0.000235207 -0.00069149 1.056)
(-0.000689388 -0.000688838 1.0563)
(-0.00113961 -0.000688698 1.05688)
(-0.00157231 -0.000677058 1.05777)
(-0.00196099 -0.000686777 1.05896)
(0.00196601 -0.0010898 1.05942)
(0.00159718 -0.00109515 1.05828)
(0.00113825 -0.00114187 1.05744)
(0.000685039 -0.0011393 1.05688)
(0.000228634 -0.0011485 1.0566)
(-0.00023309 -0.00114837 1.0566)
(-0.000689236 -0.00113908 1.05688)
(-0.00114202 -0.00114154 1.05744)
(-0.00160041 -0.00109477 1.05828)
(-0.00196923 -0.00108918 1.05942)
(0.00187488 -0.00162712 1.06011)
(0.00156077 -0.0015634 1.05906)
(0.00109148 -0.00159985 1.05828)
(0.000673548 -0.0015717 1.05777)
(0.000219646 -0.00158717 1.05751)
(-0.000223964 -0.00158717 1.05751)
(-0.000677742 -0.00157168 1.05777)
(-0.00109531 -0.0016 1.05828)
(-0.00156402 -0.00156372 1.05906)
(-0.0018778 -0.00162726 1.06011)
(0.0018236 -0.00182502 1.06107)
(0.00162437 -0.00187699 1.06011)
(0.00108583 -0.00196835 1.05942)
(0.000683301 -0.00196 1.05896)
(0.00020536 -0.00200449 1.05873)
(-0.000209721 -0.00200456 1.05873)
(-0.00068764 -0.00196006 1.05896)
(-0.00109004 -0.00196873 1.05942)
(-0.00162772 -0.00187782 1.06011)
(-0.00182571 -0.00182603 1.06107)
(0.00196087 0.00196008 1.06562)
(0.00169754 0.00199688 1.06466)
(0.00114282 0.00205782 1.06397)
(0.000722781 0.00205365 1.06351)
(0.00021647 0.00208939 1.06329)
(-0.000222257 0.00208971 1.06329)
(-0.000729207 0.00205514 1.06352)
(-0.00114988 0.0020603 1.06398)
(-0.00170513 0.00200075 1.06466)
(-0.00196589 0.00196253 1.06562)
(0.00199998 0.00169639 1.06466)
(0.00163516 0.00163381 1.06362)
(0.00114481 0.00166664 1.06285)
(0.000708653 0.00163794 1.06234)
(0.000228127 0.00165213 1.06208)
(-0.000233206 0.00165241 1.06208)
(-0.000714068 0.00163883 1.06234)
(-0.00115061 0.00166853 1.06285)
(-0.00164152 0.00163708 1.06363)
(-0.00200481 0.00170049 1.06467)
(0.00206066 0.00114154 1.06397)
(0.00166818 0.00114375 1.06285)
(0.00118924 0.00118822 1.06202)
(0.000721092 0.00118135 1.06146)
(0.000239003 0.001191 1.06119)
(-0.000243719 0.00119122 1.06119)
(-0.000726014 0.00118183 1.06147)
(-0.00119411 0.00118919 1.06202)
(-0.00167324 0.00114562 1.06285)
(-0.00206509 0.00114453 1.06398)
(0.00205665 0.00072127 1.06351)
(0.00163979 0.000707384 1.06234)
(0.00118247 0.000720136 1.06146)
(0.000715958 0.000715127 1.06089)
(0.000240295 0.00071751 1.0606)
(-0.000244717 0.000717605 1.0606)
(-0.000720632 0.000715712 1.06089)
(-0.00118684 0.000721046 1.06147)
(-0.00164378 0.000708844 1.06234)
(-0.0020603 0.000723518 1.06352)
(0.00209202 0.000215552 1.06329)
(0.00165432 0.000227091 1.06208)
(0.00119252 0.000238085 1.06119)
(0.000718482 0.000239565 1.0606)
(0.000241368 0.000240642 1.06031)
(-0.000245436 0.000240721 1.06031)
(-0.000722605 0.000240041 1.0606)
(-0.0011965 0.000239058 1.06119)
(-0.00165796 0.000228271 1.06208)
(-0.0020955 0.000216975 1.06329)
(0.00209197 -0.000221947 1.06329)
(0.00165429 -0.000233395 1.06208)
(0.00119266 -0.000244191 1.06119)
(0.000718639 -0.000245238 1.0606)
(0.000241453 -0.000245957 1.06031)
(-0.000245334 -0.000245863 1.06031)
(-0.000722428 -0.000244843 1.0606)
(-0.00119632 -0.000243479 1.06119)
(-0.00165781 -0.000232348 1.06208)
(-0.00209533 -0.000220815 1.06329)
(0.00205683 -0.000728648 1.06352)
(0.00164026 -0.000713964 1.06234)
(0.00118301 -0.000726195 1.06147)
(0.000716626 -0.000720974 1.06089)
(0.000240755 -0.000722932 1.0606)
(-0.000244321 -0.000722764 1.0606)
(-0.000720116 -0.000720433 1.06089)
(-0.00118632 -0.000725362 1.06147)
(-0.00164343 -0.000712816 1.06234)
(-0.0020601 -0.000727281 1.06352)
(0.00206173 -0.00114937 1.06398)
(0.00166964 -0.00115042 1.06285)
(0.00119016 -0.00119419 1.06202)
(0.000721913 -0.00118698 1.06147)
(0.00023979 -0.0011966 1.06119)
(-0.000242934 -0.00119642 1.06119)
(-0.000725017 -0.0011864 1.06147)
(-0.00119321 -0.00119334 1.06202)
(-0.00167259 -0.00114938 1.06285)
(-0.00206469 -0.00114808 1.06398)
(0.00200172 -0.00170473 1.06466)
(0.00163784 -0.0016412 1.06362)
(0.00114642 -0.00167301 1.06285)
(0.000709698 -0.00164363 1.06234)
(0.000229021 -0.00165771 1.06208)
(-0.000231781 -0.0016576 1.06208)
(-0.000712496 -0.0016432 1.06234)
(-0.00114928 -0.00167244 1.06285)
(-0.00164057 -0.00164053 1.06363)
(-0.00200418 -0.0017037 1.06467)
(0.00196368 -0.00196581 1.06562)
(0.00170127 -0.00200436 1.06466)
(0.00114527 -0.00206458 1.06398)
(0.000724351 -0.00205979 1.06352)
(0.000217742 -0.00209482 1.06329)
(-0.000220256 -0.00209478 1.06329)
(-0.000726928 -0.00205942 1.06352)
(-0.00114804 -0.00206409 1.06398)
(-0.00170376 -0.00200391 1.06467)
(-0.0019651 -0.00196526 1.06562)
(0.00207003 0.00206826 1.07053)
(0.00174836 0.00209937 1.06957)
(0.00118576 0.00215666 1.06888)
(0.000750688 0.00216138 1.06841)
(0.000224737 0.00219385 1.06818)
(-0.000228835 0.00219437 1.06818)
(-0.000754304 0.00216341 1.06841)
(-0.0011898 0.00215998 1.06888)
(-0.00175372 0.00210428 1.06957)
(-0.00207518 0.002073 1.07053)
(0.00210353 0.00174662 1.06957)
(0.00170144 0.00169931 1.06852)
(0.00119511 0.00173699 1.06775)
(0.000739276 0.00171396 1.06723)
(0.000236269 0.00172981 1.06697)
(-0.000239302 0.00173042 1.06697)
(-0.000742084 0.00171534 1.06723)
(-0.00119803 0.00173883 1.06775)
(-0.00170522 0.00170227 1.06853)
(-0.00210716 0.00175071 1.06957)
(0.00216062 0.00118389 1.06888)
(0.00173922 0.00119326 1.06775)
(0.00124031 0.00123857 1.06691)
(0.000755147 0.00123266 1.06636)
(0.00024934 0.00124429 1.06608)
(-0.000251476 0.00124475 1.06608)
(-0.000757584 0.00123363 1.06636)
(-0.00124284 0.00123968 1.06691)
(-0.001742 0.00119482 1.06775)
(-0.00216345 0.00118638 1.06888)
(0.00216531 0.0007488 1.06841)
(0.0017166 0.000737366 1.06723)
(0.00123459 0.000753487 1.06636)
(0.000749254 0.000747681 1.06578)
(0.000251074 0.00075126 1.06549)
(-0.000252676 0.000751408 1.06549)
(-0.000751419 0.000748395 1.06578)
(-0.00123687 0.000754492 1.06636)
(-0.0017187 0.000738692 1.06723)
(-0.00216729 0.000750538 1.06842)
(0.00219696 0.000224032 1.06818)
(0.00173247 0.00023509 1.06697)
(0.00124645 0.000248041 1.06608)
(0.000752949 0.000249818 1.06549)
(0.000253128 0.000251837 1.0652)
(-0.000254416 0.000251872 1.0652)
(-0.000754531 0.000250174 1.06549)
(-0.00124834 0.00024888 1.06608)
(-0.0017344 0.000236191 1.06697)
(-0.00219884 0.000225276 1.06818)
(0.00219695 -0.000228268 1.06818)
(0.00173255 -0.000239356 1.06697)
(0.00124664 -0.000251972 1.06608)
(0.000753015 -0.000253358 1.06549)
(0.000253134 -0.000255208 1.0652)
(-0.000254352 -0.000255177 1.0652)
(-0.000754378 -0.000253148 1.06549)
(-0.00124817 -0.000251505 1.06608)
(-0.00173422 -0.000238488 1.06697)
(-0.0021986 -0.000227235 1.06818)
(0.0021655 -0.000753519 1.06841)
(0.00171696 -0.000741724 1.06723)
(0.00123518 -0.000757608 1.06636)
(0.000749784 -0.000751662 1.06578)
(0.000251317 -0.000754876 1.06549)
(-0.000252357 -0.000754795 1.06549)
(-0.000750917 -0.00075133 1.06578)
(-0.0012364 -0.00075706 1.06636)
(-0.00171829 -0.00074092 1.06723)
(-0.00216679 -0.000752437 1.06842)
(0.00216156 -0.00118889 1.06888)
(0.0017401 -0.00119757 1.06775)
(0.00124094 -0.00124263 1.06691)
(0.00075575 -0.00123681 1.06636)