/*--------------------------------*- C++ -*----------------------------------*\
| =========                 |                                                 |
| \\      /  F ield         | OpenFOAM: The Open Source CFD Toolbox           |
|  \\    /   O peration     | Version:  2406                                  |
|   \\  /    A nd           | Website:  www.openfoam.com                      |
|    \\/     M anipulation  |                                                 |
\*---------------------------------------------------------------------------*/
FoamFile
{
    version     2.0;
    format      ascii;
    arch        "LSB;label=32;scalar=64";
    class       volScalarField;
    location    "0.9";
    object      div(phi);
}
// * * * * * * * * * * * * * * * * * * * * * * * * * * * * * * * * * * * * * //

dimensions      [0 0 -1 0 0 0 0];

internalField   nonuniform List<scalar> 
25000
(
0.000956535
0.000881331
0.000892491
0.000878218
0.000862102
0.000842573
0.000830557
0.000818091
0.000820761
0.000680644
0.000849845
0.000753164
0.000759579
0.000754696
0.000736059
0.00070883
0.000698609
0.000695961
0.000667242
0.000540341
0.000818989
0.000728176
0.000744052
0.000747439
0.000722411
0.000696801
0.000684104
0.000674085
0.000661372
0.000532507
0.00079312
0.000695514
0.000720171
0.000723631
0.000703511
0.000673901
0.000665098
0.000665293
0.00064031
0.000525442
0.000767295
0.000667989
0.000692315
0.000702258
0.000680382
0.000659075
0.000650442
0.000644567
0.000629865
0.000513837
0.000743334
0.000640352
0.000665111
0.000672838
0.000658731
0.000634045
0.000626499
0.000628552
0.000611517
0.000496183
0.000718796
0.000610319
0.000631114
0.000642027
0.000619426
0.000602962
0.000606518
0.000601745
0.000583919
0.000480431
0.000683706
0.00058048
0.000597523
0.000595036
0.000582456
0.00058065
0.000567518
0.000573562
0.000571731
0.000455237
0.000644727
0.000536905
0.000540989
0.00054505
0.000539458
0.000526118
0.00053251
0.000542149
0.000519462
0.000418763
0.000525292
0.000417937
0.000429102
0.000431002
0.000427765
0.000429443
0.000430021
0.000425176
0.000411487
0.000321264
0.000906857
0.000832367
0.000824223
0.000796087
0.000776191
0.000759787
0.000764732
0.00077167
0.000788218
0.000667707
0.000791124
0.000677504
0.000671126
0.000658117
0.000641532
0.000623656
0.000622491
0.000634425
0.000636381
0.000534619
0.000753597
0.000646596
0.000649584
0.000653787
0.000635836
0.000614373
0.000609679
0.000611293
0.000615236
0.000523889
0.000729099
0.00061715
0.000638084
0.000645
0.000629204
0.000607676
0.000599396
0.000601048
0.000595462
0.00051134
0.000717188
0.000603482
0.000622484
0.000636981
0.00062059
0.000600571
0.00059344
0.00058987
0.000582033
0.000501318
0.000707481
0.000589564
0.000611779
0.000620822
0.000608331
0.000587882
0.000578313
0.000577602
0.000575301
0.000488866
0.000713564
0.000581067
0.000592203
0.000602056
0.000581701
0.000563441
0.000564691
0.000565101
0.000557071
0.000484971
0.000700855
0.000573719
0.000576651
0.000568124
0.000552599
0.000547162
0.000538946
0.000544056
0.000566223
0.000470354
0.00069095
0.000558334
0.000545201
0.000539561
0.00052358
0.000513522
0.000514652
0.000540901
0.000530039
0.000439383
0.00057226
0.000451419
0.000455205
0.00044679
0.000439093
0.000435784
0.000440172
0.000439197
0.000427485
0.000336036
0.00129909
0.00117645
0.00115373
0.00108847
0.00102767
0.000982556
0.00096378
0.000941116
0.000963798
0.00078705
0.00111438
0.000936101
0.000887204
0.000837338
0.000791325
0.000742392
0.000738838
0.000757749
0.000737211
0.000618653
0.00101146
0.000834067
0.000804311
0.000763107
0.000708313
0.000678791
0.000668654
0.000673881
0.00070476
0.000588213
0.000936791
0.000758626
0.000726077
0.000694928
0.000654522
0.000613922
0.000614973
0.000640993
0.000644965
0.00056726
0.000874103
0.000695415
0.000679409
0.000652171
0.00061085
0.00058842
0.000584329
0.000598797
0.000626756
0.00054554
0.000839448
0.000669324
0.000644037
0.000622735
0.000591276
0.000561539
0.000563728
0.000589372
0.000608079
0.000529529
0.000818309
0.000642962
0.000628135
0.000604976
0.000567361
0.00054809
0.000560825
0.000580762
0.000596925
0.000524043
0.000790149
0.000636955
0.00061674
0.000588056
0.000558228
0.000554242
0.000554336
0.00057922
0.000612169
0.000507208
0.000757505
0.000612922
0.000591517
0.000575206
0.000554045
0.000541628
0.000553647
0.000586545
0.000578356
0.000476912
0.00061845
0.000491936
0.000496209
0.000485312
0.000474656
0.000473421
0.000479997
0.00048029
0.000468502
0.000362442
0.000819621
0.000782993
0.00081079
0.000799066
0.000807938
0.000809831
0.000830883
0.000815679
0.000839814
0.000679059
0.000738252
0.000657906
0.00064554
0.000646164
0.000639708
0.00062704
0.000645774
0.000675496
0.000653989
0.00055014
0.000697405
0.0005991
0.000604596
0.000592724
0.00057101
0.000571821
0.000584393
0.000602572
0.000633939
0.000530293
0.000678638
0.000568019
0.000556184
0.00054194
0.000519076
0.000506089
0.000534516
0.000576735
0.000586456
0.000516249
0.000665146
0.000540418
0.000533344
0.000512515
0.00047853
0.000480282
0.00050721
0.000543474
0.00057374
0.000502097
0.000658315
0.000538799
0.000527708
0.000504884
0.000480771
0.000471543
0.000500044
0.000540505
0.000564139
0.000490797
0.000671728
0.000539062
0.000532972
0.000521689
0.000490723
0.00048773
0.000512286
0.000543215
0.000556283
0.000488086
0.000657021
0.000550205
0.000543699
0.000526714
0.000508929
0.000510395
0.000520296
0.000542178
0.000572155
0.000471836
0.000652322
0.000534183
0.000535019
0.000527661
0.000515286
0.000510415
0.000517513
0.000550058
0.000534081
0.000436383
0.000527729
0.000433769
0.000447229
0.00044717
0.000442753
0.000441723
0.00044602
0.000442084
0.000421467
0.000327776
0.00138745
0.00125944
0.00124907
0.00117469
0.00109915
0.00103568
0.000992814
0.000936467
0.000951007
0.000753963
0.0011738
0.000998941
0.000940529
0.000881602
0.000827907
0.000754539
0.000746724
0.000756146
0.000708643
0.000592289
0.00103788
0.000857639
0.000833009
0.000775056
0.000698879
0.000669236
0.000650979
0.000647321
0.000681872
0.00055335
0.00094105
0.000768941
0.000717855
0.00066566
0.000600782
0.000552474
0.000573952
0.000611011
0.000602603
0.00053134
0.000858511
0.000679292
0.000655303
0.00058832
0.00051251
0.000500943
0.000523245
0.000550132
0.000588593
0.000502693
0.000817488
0.00065153
0.000604929
0.000556905
0.000498369
0.000473842
0.00050264
0.000545398
0.000556851
0.000487094
0.000780157
0.000613355
0.00059515
0.000550872
0.000502028
0.00048607
0.000507923
0.000527791
0.000550659
0.000474809
0.000752161
0.000601404
0.000578088
0.000542634
0.000507485
0.000500085
0.000501716
0.0005299
0.000551618
0.000457067
0.000699877
0.000574803
0.000543816
0.000528972
0.000500226
0.000488644
0.000498497
0.000523455
0.000518591
0.000420725
0.000571463
0.000452963
0.000456225
0.000440325
0.000428431
0.000423892
0.000427415
0.000427313
0.00041388
0.000317657
0.000544411
0.000543824
0.000587732
0.000589203
0.000614665
0.00062591
0.000656271
0.000645921
0.000668622
0.000541477
0.000511137
0.00047878
0.000482432
0.000497044
0.000505871
0.000502326
0.000525041
0.000552786
0.000534214
0.000451762
0.000502384
0.000445301
0.000464367
0.000464929
0.000455757
0.000464989
0.00048122
0.000500204
0.000526572
0.000441432
0.000508388
0.000437706
0.000435283
0.000430326
0.000413463
0.00040927
0.000443666
0.00048409
0.000491876
0.000434055
0.000517592
0.000427136
0.000426475
0.000408692
0.000375969
0.000385016
0.000421598
0.000459163
0.00048559
0.000424422
0.000524015
0.000436333
0.000431081
0.000410497
0.000386178
0.000384838
0.000420344
0.000459956
0.000478011
0.0004174
0.000547253
0.000445334
0.000443908
0.000435549
0.000410153
0.000410749
0.000434252
0.000462021
0.000473345
0.000412584
0.000542853
0.000458924
0.000458026
0.000445496
0.000432718
0.000431721
0.000443221
0.000459521
0.000480827
0.000398611
0.000541917
0.00045004
0.000450845
0.000449689
0.000435465
0.000435604
0.000433876
0.000461049
0.000444464
0.000359333
0.000439602
0.00036323
0.00037822
0.000377818
0.000376417
0.000371475
0.000373297
0.000367657
0.000343476
0.000270152
0.00127556
0.00115814
0.00114196
0.00107995
0.00100869
0.000950713
0.000907804
0.000864987
0.00087238
0.000694566
0.00110173
0.000926704
0.000871354
0.000815203
0.00075787
0.000693889
0.000684453
0.000690665
0.000654897
0.000541294
0.00098465
0.000806767
0.000776442
0.000719947
0.000646415
0.000614403
0.000599337
0.000598582
0.000625574
0.000507062
0.000887719
0.000719271
0.000672307
0.000618531
0.00055286
0.00050805
0.000528928
0.0005613
0.000556577
0.000486028
0.000803724
0.000632767
0.000608289
0.000542813
0.000467711
0.000455809
0.000480159
0.000507021
0.000540236
0.000459905
0.000755554
0.000600551
0.000557973
0.000509576
0.000453604
0.000430904
0.000461067
0.000500378
0.000512542
0.000444423
0.00071749
0.000559715
0.000542905
0.000503766
0.0004561
0.000443771
0.000467076
0.000485536
0.00050607
0.000434853
0.000680619
0.000545845
0.000523113
0.000492225
0.000460289
0.000459056
0.000459221
0.000489867
0.000509884
0.000418728
0.000634923
0.000512298
0.000491999
0.000474458
0.000456531
0.000442033
0.000462699
0.000483833
0.00048313
0.00039197
0.000512577
0.000405992
0.000407964
0.00039737
0.000385444
0.000387751
0.000393324
0.000396398
0.000389997
0.000294821
0.000329925
0.000344377
0.000389325
0.00039378
0.00043226
0.000452509
0.000490007
0.000497037
0.000512596
0.000421942
0.000325029
0.000315103
0.000323589
0.000353483
0.000367703
0.000380408
0.000404442
0.000429204
0.000426156
0.000357445
0.000318489
0.000295216
0.000323883
0.000335555
0.000342231
0.000356181
0.000378595
0.000402845
0.000419414
0.000357252
0.00034144
0.00029946
0.000310543
0.000318942
0.000315427
0.000322911
0.000355953
0.000389885
0.000404758
0.000353613
0.000354473
0.000300495
0.000311081
0.000310211
0.000293587
0.000306422
0.000342568
0.000380031
0.000397883
0.000351151
0.000363831
0.000313389
0.000323537
0.00031524
0.000307083
0.000311843
0.000346714
0.000379728
0.000400261
0.000346223
0.000393467
0.000323311
0.0003346
0.000344329
0.000328419
0.000338077
0.000361222
0.00038883
0.000395389
0.000346171
0.000378846
0.000343728
0.000349969
0.000353492
0.000352555
0.000360013
0.000371833
0.000387568
0.000407218
0.000334871
0.000399184
0.000323484
0.000356966
0.000357658
0.000363103
0.000362315
0.000369535
0.000391572
0.000377469
0.000305554
0.000311338
0.000274732
0.00029426
0.000308349
0.000309662
0.000313093
0.000315151
0.000311601
0.00029224
0.000228114
0.00124746
0.00110259
0.00104923
0.000966086
0.000858296
0.000780989
0.000720561
0.000664157
0.00066702
0.000528087
0.00102936
0.000854683
0.000797306
0.000705682
0.000642318
0.000557835
0.000535073
0.000531145
0.000491555
0.000411003
0.000905759
0.000741809
0.000693936
0.000624716
0.000538205
0.000494543
0.000465101
0.000451491
0.000473018
0.000380341
0.000808278
0.000654369
0.000595019
0.000531297
0.000457796
0.000402229
0.000405799
0.000424567
0.000411267
0.000363525
0.000721429
0.000570393
0.00053676
0.000459901
0.000382521
0.000357969
0.000365113
0.000375286
0.000401418
0.000339558
0.000685887
0.000537593
0.000480448
0.000431904
0.000363604
0.000335522
0.000345216
0.000370899
0.00037266
0.000327876
0.000624565
0.000495124
0.000469798
0.000408695
0.000365365
0.000335155
0.00034402
0.000350379
0.000367377
0.000314911
0.000614849
0.000467667
0.000441193
0.000397765
0.000355484
0.000337432
0.000332865
0.000347786
0.00036119
0.000301618
0.000532616
0.000456417
0.000392851
0.000380461
0.000335137
0.000326108
0.000320914
0.000338633
0.000336792
0.000273379
0.000450139
0.00034344
0.000336837
0.0003057
0.000292185
0.000278237
0.00027933
0.000278186
0.000270142
0.000208499
-1.71644e-05
4.23178e-05
8.728e-05
0.000121771
0.000170324
0.000202604
0.00024884
0.000256046
0.000270386
0.000229697
4.77414e-05
9.2489e-05
0.000128458
0.000151175
0.000181036
0.000199065
0.000218944
0.000241053
0.000241854
0.000210477
0.000114092
0.000134316
0.000153705
0.000173382
0.00018706
0.000200082
0.000219898
0.000237528
0.000247182
0.000218657
0.000171453
0.000165192
0.000179341
0.000186948
0.000187529
0.000196704
0.000215317
0.00023771
0.000248472
0.000221306
0.000219411
0.000197506
0.000198501
0.000198225
0.000188914
0.000193434
0.000216405
0.000240179
0.000248249
0.000224583
0.000252578
0.000217971
0.000222848
0.00021673
0.000203198
0.000207732
0.000223444
0.000242473
0.000255017
0.00022474
0.000280695
0.000243197
0.000243065
0.000237594
0.000229426
0.00022405
0.000233302
0.000251485
0.000251245
0.00022334
0.000300141
0.000254654
0.000260159
0.000252472
0.000244321
0.000236084
0.000245522
0.000242576
0.000256647
0.000216181
0.000296838
0.000264348
0.000254625
0.000261372
0.000240825
0.000248213
0.000226698
0.000247888
0.000228824
0.00018574
0.000248806
0.000207642
0.000219407
0.000213761
0.000216104
0.000202905
0.000201878
0.000193071
0.000169836
0.00014206
0.000965251
0.000855942
0.000819302
0.000764653
0.000684037
0.000623298
0.000572823
0.000533391
0.000530573
0.000423613
0.000820194
0.000668584
0.000624025
0.000556502
0.0005029
0.000440779
0.000420733
0.000415817
0.000391568
0.000323847
0.000725057
0.000584072
0.000544486
0.000490958
0.000423594
0.000386831
0.000365573
0.000357533
0.000370825
0.000300166
0.000639607
0.000510089
0.000466121
0.000416003
0.000357927
0.000315569
0.000318506
0.000331529
0.000326043
0.000285266
0.000561061
0.000439
0.000415206
0.000357509
0.000297715
0.000278106
0.00028506
0.0002957
0.000313529
0.000267467
0.000520711
0.000408012
0.000367443
0.000330797
0.000281348
0.000260098
0.00026984
0.000288635
0.00029533
0.00025642
0.000470792
0.000367582
0.000353489
0.000312725
0.000279765
0.000260194
0.000269893
0.000278051
0.000288493
0.000250513
0.00044743
0.000348426
0.000328027
0.00030215
0.00027227
0.000266251
0.000262759
0.000277083
0.000292501
0.000239962
0.000394367
0.000326666
0.000297619
0.00028513
0.000263711
0.000253506
0.000260953
0.000276566
0.000276239
0.000228374
0.000325053
0.000252662
0.000250303
0.000234607
0.000224544
0.000221471
0.000225775
0.000227484
0.000227847
0.000172728
-0.000159406
-0.000103003
-6.19336e-05
-3.12012e-05
2.58205e-05
6.13032e-05
0.000109971
0.000130488
0.000136479
0.000126813
-9.29579e-05
-4.09885e-05
-7.16293e-06
2.95871e-05
6.07092e-05
9.33217e-05
0.000112582
0.000130553
0.000145591
0.000125345
-4.03229e-05
9.70494e-08
2.59368e-05
5.5262e-05
8.31451e-05
0.000100005
0.000125261
0.00014761
0.000147342
0.000141078
1.65713e-05
3.31097e-05
5.99838e-05
7.90945e-05
9.30739e-05
0.000114233
0.000131203
0.000147104
0.000166614
0.000145058
6.3177e-05
7.14535e-05
8.13884e-05
9.90493e-05
0.00010664
0.000115844
0.000138637
0.00016336
0.000162325
0.000155011
8.98912e-05
9.0963e-05
0.000112409
0.000117189
0.000122205
0.000134067
0.000149738
0.000162113
0.000180744
0.000155363
0.000128148
0.000118318
0.000128328
0.000143689
0.00014517
0.000150613
0.000161056
0.000181549
0.000174415
0.000161174
0.000133476
0.000137257
0.000149561
0.000158138
0.000162909
0.000166041
0.000176764
0.000173118
0.000189994
0.000155944
0.000159968
0.000137419
0.000161485
0.000167905
0.000170449
0.000176704
0.000167539
0.00018662
0.000168782
0.000140818
0.000124108
0.000118693
0.000133362
0.000143381
0.000148687
0.00014648
0.000147968
0.000142025
0.000126686
0.000105552
0.000803911
0.000694617
0.000646154
0.000590495
0.000502232
0.000442025
0.000388787
0.000348147
0.000347564
0.000274053
0.000662394
0.000531862
0.000490265
0.000414093
0.000366282
0.000300829
0.000279054
0.000271037
0.000246034
0.000207282
0.000582715
0.000460708
0.00041788
0.000363971
0.000298874
0.000263853
0.000237282
0.000222663
0.000236158
0.000186244
0.000506392
0.000399764
0.000350751
0.000302337
0.00024968
0.000206906
0.000201895
0.000208052
0.000195765
0.000176191
0.000439452
0.000337462
0.000311134
0.000253613
0.000201303
0.000180316
0.000176465
0.000174867
0.000192236
0.000159038
0.000411402
0.000312616
0.000264576
0.000232398
0.000183913
0.000162252
0.000161022
0.000172967
0.000168724
0.000152541
0.000354526
0.000274594
0.000254467
0.000204723
0.000178117
0.000153757
0.000155018
0.000152227
0.000167391
0.000140864
0.000351034
0.000248525
0.00022567
0.000193392
0.000162683
0.000147968
0.000141663
0.000151766
0.000155408
0.000133984
0.000279281
0.000242881
0.000186889
0.000178824
0.000144095
0.000137968
0.000133517
0.000139525
0.000145842
0.000117791
0.000244492
0.000176294
0.000166742
0.000139946
0.000129644
0.000118496
0.000118323
0.000119634
0.000119276
9.15356e-05
-0.000227319
-0.000181292
-0.000154981
-0.0001346
-9.25619e-05
-6.60707e-05
-2.57277e-05
-1.2623e-05
-8.98458e-06
7.49794e-06
-0.000170058
-0.000110998
-7.92103e-05
-5.722e-05
-2.80667e-05
-4.87341e-06
6.85515e-06
1.87512e-05
3.07515e-05
3.33155e-05
-0.000121226
-6.78081e-05
-4.82542e-05
-2.37877e-05
1.87716e-07
1.24364e-05
2.95861e-05
4.3528e-05
4.09718e-05
5.09842e-05
-6.158e-05
-3.26574e-05
-1.12059e-05
5.90083e-06
1.93292e-05
3.63692e-05
4.32397e-05
5.13323e-05
6.32484e-05
5.87553e-05
-1.73045e-05
6.99195e-06
1.47112e-05
2.94729e-05
3.95073e-05
4.43236e-05
5.58442e-05
6.88592e-05
6.62006e-05
6.85885e-05
1.64973e-05
2.72855e-05
4.19082e-05
4.929e-05
5.19568e-05
6.09387e-05
6.58007e-05
7.11151e-05
7.87713e-05
7.29365e-05
4.10125e-05
5.04846e-05
5.82091e-05
6.44603e-05
6.96391e-05
6.90997e-05
7.0023e-05
8.06389e-05
7.73496e-05
7.2382e-05
5.77214e-05
6.19012e-05
7.18614e-05
7.63202e-05
7.91062e-05
7.26305e-05
8.07377e-05
7.21537e-05
7.74521e-05
7.09739e-05
6.44915e-05
6.87963e-05
7.50858e-05
8.58817e-05
7.62159e-05
8.61735e-05
6.36978e-05
7.48926e-05
6.19369e-05
4.94582e-05
5.44444e-05
5.70327e-05
6.85115e-05
6.94988e-05
7.49758e-05
6.42508e-05
6.1872e-05
5.53022e-05
3.71278e-05
4.06992e-05
0.000851913
0.000726696
0.000660869
0.000588531
0.000485209
0.000415975
0.000354284
0.000319726
0.00030692
0.000245905
0.000678627
0.00053701
0.000490789
0.000402583
0.000347323
0.000278502
0.000252773
0.000238087
0.000223417
0.000182299
0.000575645
0.000461495
0.000413312
0.000354349
0.000285685
0.000244468
0.000216862
0.000205598
0.000209165
0.00016691
0.000498953
0.000393603
0.000344678
0.000294128
0.000237925
0.000195621
0.000187539
0.000187608
0.000181193
0.000156998
0.000419212
0.000328294
0.000303094
0.000244613
0.000192777
0.000168681
0.000164202
0.000163842
0.000172731
0.000144289
0.000391159
0.000299473
0.000253934
0.000222979
0.000173761
0.000154126
0.000150836
0.000157957
0.000158471
0.000137022
0.000328275
0.000259274
0.000243088
0.000194416
0.000170252
0.000144116
0.00014685
0.000145901
0.000153351
0.000131097
0.000324222
0.0002331
0.000212636
0.000184586
0.000153138
0.000143035
0.000136095
0.00014332
0.000151763
0.000124442
0.000254244
0.000225948
0.000176453
0.000167972
0.000138343
0.000130887
0.000130709
0.000139639
0.000143047
0.000118452
0.000224477
0.000164806
0.000156741
0.0001324
0.000122365
0.00011416
0.000116557
0.000117536
0.00012194
9.03546e-05
-0.000355587
-0.000276616
-0.000240354
-0.000196782
-0.000140881
-0.00010251
-5.74049e-05
-2.75798e-05
-3.10585e-05
-3.90345e-06
-0.000252622
-0.000178797
-0.000134808
-0.000104023
-7.14976e-05
-3.44383e-05
-1.90723e-05
-7.31491e-06
1.98986e-05
1.79066e-05
-0.000171591
-0.000107167
-8.94235e-05
-5.90813e-05
-2.79249e-05
-1.42061e-05
9.85964e-06
3.2051e-05
2.2962e-05
3.98839e-05
-9.98358e-05
-6.54432e-05
-3.76644e-05
-1.94056e-05
-3.28452e-06
2.04603e-05
2.91396e-05
3.53624e-05
5.63604e-05
4.67986e-05
-4.81224e-05
-1.60735e-05
-9.68504e-06
9.14365e-06
2.34329e-05
2.90524e-05
4.40558e-05
6.14423e-05
5.34742e-05
6.02481e-05
-1.3189e-05
2.5849e-06
2.23324e-05
3.01368e-05
3.66806e-05
4.96523e-05
5.62109e-05
5.99494e-05
7.45874e-05
6.30071e-05
1.53479e-05
3.06911e-05
3.74867e-05
4.90999e-05
5.63113e-05
5.85301e-05
6.40176e-05
7.78946e-05
6.96062e-05
6.82466e-05
3.11256e-05
4.27211e-05
5.47412e-05
6.22598e-05
6.69762e-05
6.83874e-05
7.64017e-05
6.94646e-05
8.02016e-05
6.64666e-05
4.60838e-05
5.02619e-05
6.27368e-05
7.08607e-05
7.05819e-05
7.81787e-05
6.6517e-05
7.95384e-05
6.64761e-05
5.59415e-05
3.7729e-05
4.37144e-05
5.41165e-05
5.94372e-05
6.51925e-05
6.12795e-05
6.22135e-05
5.73696e-05
4.62323e-05
4.27817e-05
0.00048764
0.000411885
0.000372572
0.000337451
0.000275454
0.000234942
0.000194254
0.000178128
0.000172404
0.000137774
0.000398531
0.000305384
0.000275123
0.000224018
0.000187913
0.000149515
0.000134445
0.000126658
0.000121084
9.75552e-05
0.000346227
0.000263656
0.000229898
0.000193406
0.00015202
0.000127786
0.000112274
0.000105654
0.000112072
8.58913e-05
0.000290702
0.000221173
0.000189066
0.000156313
0.000123271
9.81699e-05
9.40227e-05
9.59321e-05
9.07522e-05
8.0417e-05
0.000240352
0.000179478
0.000161464
0.000125478
9.50467e-05
8.23692e-05
7.9215e-05
7.66507e-05
8.92238e-05
6.89748e-05
0.000217366
0.000159429
0.000128712
0.000108942
8.18541e-05
6.89246e-05
6.83818e-05
7.61983e-05
7.12617e-05
6.56688e-05
0.000174257
0.000130206
0.000117437
8.80851e-05
7.22645e-05
6.06446e-05
6.32103e-05
5.74016e-05
7.35568e-05
5.54329e-05
0.000166963
0.000110731
9.53432e-05
7.66611e-05
6.00511e-05
5.48155e-05
4.83826e-05
6.27699e-05
5.83969e-05
5.27408e-05
0.000120691
0.000102214
7.1568e-05
6.47582e-05
4.94034e-05
4.2344e-05
5.01659e-05
4.53904e-05
5.95668e-05
4.32077e-05
0.000106714
7.31729e-05
6.53841e-05
5.10283e-05
4.34324e-05
4.1249e-05
4.05898e-05
4.5368e-05
5.03645e-05
3.36799e-05
-0.000424284
-0.000361429
-0.000332528
-0.00029794
-0.000242316
-0.000203686
-0.000160404
-0.000129186
-0.000128344
-8.77455e-05
-0.000337578
-0.000259316
-0.000224708
-0.000187381
-0.000154832
-0.000114019
-9.81271e-05
-8.71123e-05
-6.20627e-05
-4.99374e-05
-0.000268357
-0.000199468
-0.000178972
-0.000145617
-0.000108395
-8.98743e-05
-6.64673e-05
-4.82764e-05
-5.41908e-05
-2.95362e-05
-0.000207465
-0.000156993
-0.000127152
-0.000103466
-7.83061e-05
-5.1176e-05
-4.38391e-05
-3.88947e-05
-2.32547e-05
-2.02491e-05
-0.00015296
-0.000107167
-9.83558e-05
-7.07177e-05
-4.70568e-05
-3.71906e-05
-2.60308e-05
-1.55317e-05
-1.94505e-05
-8.77732e-06
-0.0001228
-8.79183e-05
-6.40246e-05
-5.10665e-05
-3.36571e-05
-2.01304e-05
-1.50605e-05
-1.21878e-05
-6.28899e-06
-3.08456e-06
-8.83737e-05
-5.81984e-05
-5.21362e-05
-3.30736e-05
-2.20753e-05
-1.31453e-05
-1.02384e-05
-4.14073e-06
-4.19116e-06
-3.11123e-06
-7.40032e-05
-4.61911e-05
-3.33418e-05
-2.38745e-05
-1.18216e-05
-1.01482e-05
-3.7987e-06
-5.6332e-06
-7.61742e-06
-1.16212e-06
-4.99437e-05
-3.62886e-05
-2.19108e-05
-1.32742e-05
-9.04784e-06
-1.62106e-06
-9.23339e-06
-8.61588e-06
-1.15675e-05
-1.41848e-05
-4.26816e-05
-2.49922e-05
-1.74072e-05
-1.01111e-05
-3.92812e-06
-5.6549e-06
-7.45364e-06
-9.3048e-06
-1.90712e-05
-9.17417e-06
0.000416845
0.000346437
0.00031277
0.000276968
0.000223196
0.000186322
0.000147686
0.000137186
0.000128271
0.00010269
0.00033489
0.000247854
0.000215766
0.000176802
0.000143505
0.000112129
9.92753e-05
8.97561e-05
8.8253e-05
6.77314e-05
0.000272654
0.000200198
0.000175574
0.000144796
0.000111842
9.23733e-05
7.90959e-05
7.51478e-05
7.77179e-05
5.82837e-05
0.000218593
0.000160224
0.000134171
0.000110631
8.62266e-05
6.70283e-05
6.48853e-05
6.44541e-05
6.23269e-05
5.28924e-05
0.000166559
0.000117522
0.00010826
8.27926e-05
6.14681e-05
5.36419e-05
5.10573e-05
5.02532e-05
5.86941e-05
4.41693e-05
0.000139423
9.92914e-05
7.76617e-05
6.50941e-05
4.96216e-05
4.0316e-05
4.25503e-05
4.78359e-05
4.62819e-05
4.04155e-05
0.000105708
6.9661e-05
6.45281e-05
4.81894e-05
3.75693e-05
3.38544e-05
3.84701e-05
3.52976e-05
4.71625e-05
3.50938e-05
8.89746e-05
5.68053e-05
4.45042e-05
3.67049e-05
2.78469e-05
3.14226e-05
2.64587e-05
4.18046e-05
3.99612e-05
3.32331e-05
6.32515e-05
4.14106e-05
3.23658e-05
2.50892e-05
2.57741e-05
1.78086e-05
3.5519e-05
3.08852e-05
4.48953e-05
3.43049e-05
5.22276e-05
3.33951e-05
2.84425e-05
2.43699e-05
1.89358e-05
2.45245e-05
2.64094e-05
3.27925e-05
4.25882e-05
2.51605e-05
-0.000399378
-0.000344472
-0.000315115
-0.000290579
-0.000239251
-0.000207123
-0.000171754
-0.000141772
-0.000145682
-0.000103302
-0.000318517
-0.000253763
-0.000228865
-0.000187254
-0.000161096
-0.000123009
-0.000110311
-0.000104186
-7.96433e-05
-6.75045e-05
-0.000280038
-0.000213979
-0.000187493
-0.000156503
-0.000119767
-0.000102406
-8.22965e-05
-6.56655e-05
-7.50583e-05
-4.8244e-05
-0.000226929
-0.000178507
-0.000148434
-0.0001205
-9.33634e-05
-6.6962e-05
-6.03016e-05
-5.9363e-05
-4.35627e-05
-4.06903e-05
-0.000190675
-0.000141189
-0.000123768
-9.21384e-05
-6.53744e-05
-5.38637e-05
-4.50386e-05
-3.52146e-05
-4.27313e-05
-2.86986e-05
-0.000170187
-0.000124302
-9.61914e-05
-7.82778e-05
-5.35263e-05
-4.01268e-05
-3.3905e-05
-3.46434e-05
-2.69276e-05
-2.44865e-05
-0.000138565
-0.000106263
-8.96666e-05
-6.08907e-05
-4.80054e-05
-3.3e-05
-3.00196e-05
-2.30814e-05
-2.67404e-05
-2.06003e-05
-0.000143419
-8.89084e-05
-7.60687e-05
-5.52845e-05
-3.749e-05
-2.87465e-05
-2.2951e-05
-2.35765e-05
-2.36967e-05
-1.86381e-05
-0.000104664
-9.77654e-05
-5.41809e-05
-4.81682e-05
-2.72982e-05
-2.37324e-05
-2.08457e-05
-2.20802e-05
-2.40716e-05
-2.12774e-05
-0.00010047
-6.08305e-05
-5.02994e-05
-3.12267e-05
-2.52874e-05
-1.91396e-05
-2.00998e-05
-2.01749e-05
-2.47276e-05
-1.67216e-05
0.000419278
0.000337242
0.000281445
0.000234027
0.000155646
0.000108262
6.0894e-05
3.44706e-05
2.70934e-05
1.75342e-05
0.000305711
0.000230143
0.000202167
0.000134442
0.000101237
5.05935e-05
3.01168e-05
1.59047e-05
3.67011e-06
4.48316e-06
0.000245076
0.000189986
0.000154482
0.000114056
6.91493e-05
4.22433e-05
1.68973e-05
1.31657e-06
3.25651e-06
-4.85126e-06
0.000197323
0.000152524
0.000116136
8.4011e-05
5.11947e-05
2.12369e-05
6.96537e-06
-1.03661e-06
-1.28482e-05
-8.00087e-06
0.000147022
0.000113334
9.62387e-05
5.79539e-05
3.06706e-05
1.25902e-05
-2.21258e-06
-1.54128e-05
-1.11602e-05
-1.61925e-05
0.000136378
9.68098e-05
6.17607e-05
4.69954e-05
1.57872e-05
1.77837e-06
-1.20351e-05
-1.54425e-05
-2.51172e-05
-1.73766e-05
8.33479e-05
6.98216e-05
5.67227e-05
1.75256e-05
8.45526e-06
-1.36874e-05
-2.04488e-05
-3.15183e-05
-2.40984e-05
-2.50863e-05
9.81111e-05
4.53414e-05
3.21e-05
9.85977e-06
-1.11296e-05
-2.51018e-05
-3.25091e-05
-3.29858e-05
-3.69135e-05
-2.56013e-05
3.51331e-05
5.55995e-05
1.24724e-06
8.36167e-07
-2.93694e-05
-3.03405e-05
-4.06983e-05
-4.27541e-05
-3.49419e-05
-2.93812e-05
5.30437e-05
2.589e-05
1.5333e-05
-9.66085e-06
-1.58898e-05
-2.76612e-05
-2.91551e-05
-2.85367e-05
-2.42937e-05
-1.90852e-05
-0.000457567
-0.000388305
-0.000368466
-0.000333288
-0.000295982
-0.000266742
-0.000236608
-0.000221171
-0.000221366
-0.000168159
-0.0003656
-0.000281063
-0.000242598
-0.000225466
-0.000195594
-0.000172556
-0.000165683
-0.000161976
-0.000148277
-0.000117238
-0.000290044
-0.000213188
-0.000201107
-0.000177409
-0.000152094
-0.000141616
-0.000132132
-0.000126704
-0.000134879
-0.000100156
-0.000228223
-0.000170862
-0.000151362
-0.000135072
-0.000118
-0.000103035
-0.000107722
-0.000113024
-0.000107514
-9.12269e-05
-0.00018031
-0.000125696
-0.000121018
-0.000104608
-8.65387e-05
-8.61932e-05
-8.90881e-05
-9.14695e-05
-0.000101672
-8.01903e-05
-0.000145215
-0.000107792
-9.59398e-05
-8.40847e-05
-7.79089e-05
-7.0506e-05
-8.00768e-05
-8.85593e-05
-8.90864e-05
-7.39712e-05
-0.000129587
-8.40992e-05
-8.15215e-05
-7.93772e-05
-6.70558e-05
-7.21908e-05
-8.01141e-05
-8.10846e-05
-8.85893e-05
-7.26417e-05
-0.000100068
-8.05945e-05
-7.11946e-05
-6.9373e-05
-6.67348e-05
-7.59049e-05
-7.30067e-05
-8.87268e-05
-9.03064e-05
-6.91889e-05
-0.000101219
-5.88299e-05
-7.09492e-05
-5.99362e-05
-7.30668e-05
-6.28164e-05
-8.75692e-05
-8.48655e-05
-9.29853e-05
-7.53714e-05
-7.08469e-05
-5.3701e-05
-5.08488e-05
-5.67738e-05
-5.18553e-05
-6.37162e-05
-6.65005e-05
-7.20558e-05
-8.08785e-05
-5.29061e-05
0.000263604
0.000208239
0.000171596
0.000143378
8.90483e-05
5.43945e-05
1.62867e-05
-2.33408e-06
-1.07685e-05
-1.22914e-05
0.000200056
0.00013908
0.000118321
7.36193e-05
4.79391e-05
1.27671e-05
-3.99603e-06
-1.72968e-05
-2.49653e-05
-2.14991e-05
0.000157285
0.000111499
8.61668e-05
5.75283e-05
2.62392e-05
6.19176e-06
-1.36878e-05
-2.60732e-05
-2.75769e-05
-2.89111e-05
0.000116597
8.29626e-05
5.74899e-05
3.56965e-05
1.3552e-05
-7.97147e-06
-1.99104e-05
-2.95575e-05
-3.7727e-05
-3.22892e-05
7.4489e-05
5.07828e-05
4.10367e-05
1.60723e-05
-1.08136e-06
-1.40476e-05
-2.73552e-05
-3.83674e-05
-3.88869e-05
-3.74889e-05
5.80489e-05
3.64987e-05
1.35647e-05
5.15529e-06
-1.30183e-05
-2.31989e-05
-3.42216e-05
-4.07634e-05
-4.61242e-05
-3.94661e-05
1.94422e-05
1.18986e-05
6.60388e-06
-1.67146e-05
-2.13658e-05
-3.5026e-05
-4.06704e-05
-4.83993e-05
-4.72945e-05
-4.12921e-05
1.94269e-05
-3.27369e-06
-1.33482e-05
-2.32586e-05
-3.60376e-05
-4.16875e-05
-4.77995e-05
-4.94643e-05
-4.98025e-05
-4.1257e-05
-1.62995e-05
-4.00572e-06
-2.90186e-05
-3.16828e-05
-4.40703e-05
-4.70494e-05
-4.89084e-05
-5.02876e-05
-4.51486e-05
-3.36108e-05
-2.25828e-06
-1.10276e-05
-1.7654e-05
-3.02621e-05
-3.46832e-05
-3.88273e-05
-3.82216e-05
-3.69816e-05
-2.87437e-05
-2.4348e-05
-0.000451464
-0.000397691
-0.000379565
-0.000354257
-0.000315565
-0.000287995
-0.000260152
-0.000241904
-0.000244166
-0.000187571
-0.000375752
-0.000301681
-0.000273198
-0.000247378
-0.000219932
-0.000193273
-0.000185969
-0.000184519
-0.000168961
-0.00013731
-0.000327289
-0.000252813
-0.000234629
-0.000208848
-0.000178717
-0.000165363
-0.000155062
-0.000148504
-0.000159191
-0.000120542
-0.000276314
-0.0002159
-0.0001928
-0.000169879
-0.000146333
-0.000127535
-0.000130447
-0.000137624
-0.000129456
-0.000112983
-0.000239406
-0.000178026
-0.000165877
-0.000140376
-0.000115057
-0.000110614
-0.000112846
-0.000113661
-0.000126856
-0.000100496
-0.000214667
-0.000162384
-0.000141834
-0.000123834
-0.000106259
-9.62228e-05
-0.000102771
-0.000113274
-0.00010983
-9.574e-05
-0.000194388
-0.000142472
-0.000131843
-0.000115729
-9.93056e-05
-9.60252e-05
-0.000101564
-9.99586e-05
-0.000111408
-8.94184e-05
-0.000180043
-0.000133037
-0.000120586
-0.000107164
-9.64077e-05
-9.61585e-05
-9.23502e-05
-0.000106369
-0.000104598
-8.60129e-05
-0.000160073
-0.000121864
-0.000107905
-9.84419e-05
-9.35243e-05
-8.54777e-05
-9.83481e-05
-9.60422e-05
-0.000103928
-8.07345e-05
-0.000129821
-9.42253e-05
-8.83511e-05
-8.2228e-05
-7.57324e-05
-7.8487e-05
-7.89958e-05
-8.25791e-05
-8.54839e-05
-5.98876e-05