/*--------------------------------*- C++ -*----------------------------------*\
| =========                 |                                                 |
| \\      /  F ield         | OpenFOAM: The Open Source CFD Toolbox           |
|  \\    /   O peration     | Version:  2406                                  |
|   \\  /    A nd           | Website:  www.openfoam.com                      |
|    \\/     M anipulation  |                                                 |
\*---------------------------------------------------------------------------*/
FoamFile
{
    version     2.0;
    format      ascii;
    arch        "LSB;label=32;scalar=64";
    class       volScalarField;
    location    "0.9";
    object      magR;
}
// * * * * * * * * * * * * * * * * * * * * * * * * * * * * * * * * * * * * * //

dimensions      [0 2 -2 0 0 0 0];

internalField   uniform 0;

boundaryField
{
    walls
    {
        type            calculated;
        value           nonuniform List<scalar> 
2000
(
5.84404e-07
8.28644e-07
1.09517e-06
1.31574e-06
1.44057e-06
1.44057e-06
1.31574e-06
1.09516e-06
8.28636e-07
5.84397e-07
2.35217e-07
3.22949e-07
4.26324e-07
5.1569e-07
5.67514e-07
5.67507e-07
5.1567e-07
4.26295e-07
3.2292e-07
2.3519e-07
8.24856e-08
1.10451e-07
1.44923e-07
1.75978e-07
1.94313e-07
1.94297e-07
1.75937e-07
1.44864e-07
1.10387e-07
8.24241e-08
1.0804e-07
1.45683e-07
1.91139e-07
2.31432e-07
2.55033e-07
2.54992e-07
2.31317e-07
1.90977e-07
1.45508e-07
1.07875e-07
8.45963e-08
1.13398e-07
1.48773e-07
1.8045e-07
1.99097e-07
1.99021e-07
1.80243e-07
1.48484e-07
1.13087e-07
8.43039e-08
9.21186e-08
1.23727e-07
1.62283e-07
1.96645e-07
2.16799e-07
2.16653e-07
1.96244e-07
1.61719e-07
1.23114e-07
9.15371e-08
8.69775e-08
1.16519e-07
1.52659e-07
1.84899e-07
2.03773e-07
2.03514e-07
1.84181e-07
1.51634e-07
1.15384e-07
8.58751e-08
8.98395e-08
1.20262e-07
1.57335e-07
1.90284e-07
2.09458e-07
2.09004e-07
1.89022e-07
1.55522e-07
1.18234e-07
8.78508e-08
8.93631e-08
1.19392e-07
1.55938e-07
1.88336e-07
2.07064e-07
2.06378e-07
1.86431e-07
1.53212e-07
1.1635e-07
8.63879e-08
9.06787e-08
1.21057e-07
1.57948e-07
1.90549e-07
2.09268e-07
2.0836e-07
1.88033e-07
1.54377e-07
1.1711e-07
8.6857e-08
9.05883e-08
1.2092e-07
1.5774e-07
1.90227e-07
2.08791e-07
2.07716e-07
1.87264e-07
1.5357e-07
1.1636e-07
8.62337e-08
9.04487e-08
1.20823e-07
1.57699e-07
1.90216e-07
2.08739e-07
2.07551e-07
1.86948e-07
1.53127e-07
1.15869e-07
8.57848e-08
8.96428e-08
1.19837e-07
1.5652e-07
1.88878e-07
2.07283e-07
2.06034e-07
1.85451e-07
1.51743e-07
1.14695e-07
8.4854e-08
8.88238e-08
1.18799e-07
1.55235e-07
1.87399e-07
2.05699e-07
2.04462e-07
1.84008e-07
1.50521e-07
1.13744e-07
8.41461e-08
8.80404e-08
1.17787e-07
1.53963e-07
1.85939e-07
2.0419e-07
2.03073e-07
1.8288e-07
1.49721e-07
1.13252e-07
8.38636e-08
8.73847e-08
1.17018e-07
1.53111e-07
1.85096e-07
2.03491e-07
2.02648e-07
1.82797e-07
1.49954e-07
1.13679e-07
8.43461e-08
8.65415e-08
1.16163e-07
1.52381e-07
1.84636e-07
2.03435e-07
2.03056e-07
1.83631e-07
1.51075e-07
1.14883e-07
8.5474e-08
8.53767e-08
1.14992e-07
1.51427e-07
1.84113e-07
2.03493e-07
2.03707e-07
1.84748e-07
1.52444e-07
1.16269e-07
8.67354e-08
8.40757e-08
1.13566e-07
1.5008e-07
1.83089e-07
2.02969e-07
2.03708e-07
1.85157e-07
1.53061e-07
1.16918e-07
8.73319e-08
8.29674e-08
1.12191e-07
1.48521e-07
1.81544e-07
2.0161e-07
2.02624e-07
1.84326e-07
1.52407e-07
1.1638e-07
8.6893e-08
8.22493e-08
1.11156e-07
1.47115e-07
1.79857e-07
1.99775e-07
2.00789e-07
1.82604e-07
1.5087e-07
1.15075e-07
8.58256e-08
8.19401e-08
1.1061e-07
1.46212e-07
1.78582e-07
1.98201e-07
1.99074e-07
1.8093e-07
1.49393e-07
1.13878e-07
8.48965e-08
8.18797e-08
1.1047e-07
1.45903e-07
1.78037e-07
1.97435e-07
1.98187e-07
1.80075e-07
1.487e-07
1.13403e-07
8.46024e-08
8.18695e-08
1.10518e-07
1.45998e-07
1.78125e-07
1.97502e-07
1.98253e-07
1.80191e-07
1.48907e-07
1.13702e-07
8.49502e-08
8.18352e-08
1.10605e-07
1.46249e-07
1.78527e-07
1.98031e-07
1.98863e-07
1.80845e-07
1.49566e-07
1.14339e-07
8.55444e-08
8.19789e-08
1.10873e-07
1.4666e-07
1.79075e-07
1.9868e-07
1.99554e-07
1.81521e-07
1.50177e-07
1.14883e-07
8.60189e-08
8.30141e-08
1.12054e-07
1.4791e-07
1.80304e-07
1.99821e-07
2.00561e-07
1.82377e-07
1.50872e-07
1.15448e-07
8.64483e-08
8.57623e-08
1.15106e-07
1.51068e-07
1.83311e-07
2.02487e-07
2.02775e-07
1.84103e-07
1.52121e-07
1.1627e-07
8.68932e-08
9.03596e-08
1.20241e-07
1.5646e-07
1.88507e-07
2.07077e-07
2.06475e-07
1.86782e-07
1.53807e-07
1.1709e-07
8.70773e-08
9.57641e-08
1.26347e-07
1.62968e-07
1.94825e-07
2.12576e-07
2.10681e-07
1.89476e-07
1.55089e-07
1.17246e-07
8.65677e-08
9.99135e-08
1.31165e-07
1.68241e-07
2.00006e-07
2.16993e-07
2.13809e-07
1.91098e-07
1.55381e-07
1.16594e-07
8.54904e-08
1.00554e-07
1.32252e-07
1.69822e-07
2.01854e-07
2.18653e-07
2.14867e-07
1.91351e-07
1.54934e-07
1.15712e-07
8.4505e-08
9.67955e-08
1.28436e-07
1.6631e-07
1.98949e-07
2.16385e-07
2.1312e-07
1.89983e-07
1.53871e-07
1.14941e-07
8.40177e-08
9.0265e-08
1.2123e-07
1.5892e-07
1.92107e-07
2.10667e-07
2.08828e-07
1.87143e-07
1.52285e-07
1.14345e-07
8.40593e-08
8.39548e-08
1.1385e-07
1.50781e-07
1.83964e-07
2.03399e-07
2.03097e-07
1.83248e-07
1.50092e-07
1.13525e-07
8.40876e-08
8.00749e-08
1.08998e-07
1.45003e-07
1.77709e-07
1.9743e-07
1.98118e-07
1.79694e-07
1.47973e-07
1.12601e-07
8.38981e-08
7.85755e-08
1.06884e-07
1.42201e-07
1.74376e-07
1.94008e-07
1.95099e-07
1.77442e-07
1.46573e-07
1.11919e-07
8.36437e-08
7.88479e-08
1.07135e-07
1.42379e-07
1.74468e-07
1.94129e-07
1.95433e-07
1.78143e-07
1.47655e-07
1.13231e-07
8.49288e-08
7.80682e-08
1.06955e-07
1.43064e-07
1.76079e-07
1.9659e-07
1.98598e-07
1.81861e-07
1.51666e-07
1.1728e-07
8.8534e-08
7.94338e-08
1.09081e-07
1.46237e-07
1.8064e-07
2.02814e-07
2.06563e-07
1.91329e-07
1.61919e-07
1.27385e-07
9.7236e-08
9.09877e-08
1.22573e-07
1.61621e-07
1.98048e-07
2.22288e-07
2.27798e-07
2.13264e-07
1.82819e-07
1.45222e-07
1.10589e-07
1.15626e-07
1.51097e-07
1.9338e-07
2.31945e-07
2.56674e-07
2.60604e-07
2.41998e-07
2.05267e-07
1.59978e-07
1.1825e-07
1.56827e-07
1.97939e-07
2.44e-07
2.8303e-07
3.03987e-07
2.99941e-07
2.70256e-07
2.21503e-07
1.66014e-07
1.17744e-07
2.21347e-07
2.69081e-07
3.18411e-07
3.55377e-07
3.68528e-07
3.52172e-07
3.08464e-07
2.47069e-07
1.82843e-07
1.2951e-07
3.17509e-07
3.73219e-07
4.26456e-07
4.60711e-07
4.65036e-07
4.35737e-07
3.78016e-07
3.03891e-07
2.29179e-07
1.6699e-07
4.38524e-07
5.07097e-07
5.70254e-07
6.07186e-07
6.06759e-07
5.66073e-07
4.92157e-07
3.99039e-07
3.04135e-07
2.23535e-07
5.35071e-07
6.21924e-07
7.00709e-07
7.45989e-07
7.44139e-07
6.91717e-07
5.97125e-07
4.78206e-07
3.56954e-07
2.55991e-07
5.5038e-07
6.57096e-07
7.51692e-07
8.09839e-07
8.13247e-07
7.57083e-07
6.50273e-07
5.1495e-07
3.78222e-07
2.67481e-07
5.70606e-07
7.0131e-07
7.98743e-07
8.45919e-07
8.29638e-07
7.52901e-07
6.30739e-07
4.89677e-07
3.55814e-07
2.52852e-07
4.81991e-07
6.58819e-07
8.04135e-07
8.87428e-07
8.99517e-07
8.44135e-07
7.3985e-07
6.12464e-07
4.87802e-07
3.86579e-07
5.84383e-07
8.28617e-07
1.09514e-06
1.31572e-06
1.44055e-06
1.44055e-06
1.31574e-06
1.09516e-06
8.28644e-07
5.84405e-07
2.35144e-07
3.22864e-07
4.26234e-07
5.15611e-07
5.67458e-07
5.6748e-07
5.15671e-07
4.26317e-07
3.22948e-07
2.35218e-07
8.2316e-08
1.10263e-07
1.44734e-07
1.75815e-07
1.94197e-07
1.9424e-07
1.75933e-07
1.449e-07
1.10441e-07
8.2484e-08
1.07568e-07
1.45159e-07
1.90613e-07
2.30978e-07
2.54708e-07
2.54824e-07
2.31295e-07
1.91062e-07
1.45645e-07
1.0803e-07
8.37716e-08
1.12481e-07
1.47844e-07
1.79633e-07
1.98496e-07
1.98691e-07
1.80169e-07
1.48603e-07
1.1331e-07
8.45686e-08
9.06844e-08
1.22128e-07
1.60653e-07
1.95197e-07
2.15721e-07
2.16049e-07
1.96105e-07
1.61943e-07
1.23549e-07
9.20611e-08
8.47997e-08
1.14125e-07
1.50248e-07
1.82786e-07
2.02239e-07
2.02724e-07
1.84131e-07
1.52168e-07
1.16265e-07
8.68945e-08
8.64983e-08
1.16664e-07
1.53814e-07
1.87309e-07
2.07444e-07
2.08175e-07
1.89349e-07
1.56743e-07
1.19963e-07
8.97416e-08
8.46259e-08
1.14369e-07
1.51141e-07
1.84433e-07
2.04626e-07
2.05671e-07
1.87353e-07
1.55335e-07
1.191e-07
8.92687e-08
8.45477e-08
1.14562e-07
1.51784e-07
1.8562e-07
2.06325e-07
2.07719e-07
1.89502e-07
1.57334e-07
1.20777e-07
9.05921e-08
8.36145e-08
1.1345e-07
1.50577e-07
1.84471e-07
2.05371e-07
2.07026e-07
1.89057e-07
1.57072e-07
1.20629e-07
9.05069e-08
8.34462e-08
1.13196e-07
1.50263e-07
1.84178e-07
2.05156e-07
2.06906e-07
1.88994e-07
1.57012e-07
1.20533e-07
9.03815e-08
8.33922e-08
1.12934e-07
1.49722e-07
1.83377e-07
2.04159e-07
2.05813e-07
1.87899e-07
1.55993e-07
1.1963e-07
8.96148e-08
8.37147e-08
1.13138e-07
1.49704e-07
1.83075e-07
2.03565e-07
2.04992e-07
1.86953e-07
1.55038e-07
1.18747e-07
8.88476e-08
8.40265e-08
1.13378e-07
1.49775e-07
1.82872e-07
2.03041e-07
2.04187e-07
1.8598e-07
1.54041e-07
1.17842e-07
8.8086e-08
8.42656e-08
1.13597e-07
1.49904e-07
1.82795e-07
2.02683e-07
2.03542e-07
1.85135e-07
1.53132e-07
1.17003e-07
8.73859e-08
8.44031e-08
1.13695e-07
1.49893e-07
1.8256e-07
2.02146e-07
2.0269e-07
1.84046e-07
1.51947e-07
1.15892e-07
8.6442e-08
8.46287e-08
1.13838e-07
1.49846e-07
1.82205e-07
2.01406e-07
2.01565e-07
1.82636e-07
1.50419e-07
1.14443e-07
8.51871e-08
8.5161e-08
1.14274e-07
1.50025e-07
1.81991e-07
2.00724e-07
2.00447e-07
1.81209e-07
1.48874e-07
1.1297e-07
8.38939e-08
8.60663e-08
1.15143e-07
1.5068e-07
1.82276e-07
2.00553e-07
1.99845e-07
1.80292e-07
1.4781e-07
1.11902e-07
8.29149e-08
8.70077e-08
1.16138e-07
1.51609e-07
1.82996e-07
2.0095e-07
1.99894e-07
1.80041e-07
1.47369e-07
1.11363e-07
8.23667e-08
8.73714e-08
1.16574e-07
1.52121e-07
1.83505e-07
2.0136e-07
2.0013e-07
1.80085e-07
1.47263e-07
1.11164e-07
8.21449e-08
8.68156e-08
1.15992e-07
1.51618e-07
1.8312e-07
2.0108e-07
1.99906e-07
1.79883e-07
1.47074e-07
1.11011e-07
8.20354e-08
8.54906e-08
1.14457e-07
1.50013e-07
1.81605e-07
1.99777e-07
1.9887e-07
1.79125e-07
1.46562e-07
1.10716e-07
8.18835e-08
8.39471e-08
1.12529e-07
1.47789e-07
1.79327e-07
1.97693e-07
1.97177e-07
1.77906e-07
1.45791e-07
1.10305e-07
8.16921e-08
8.2911e-08
1.11104e-07
1.45951e-07
1.77295e-07
1.95748e-07
1.95593e-07
1.76831e-07
1.45221e-07
1.10116e-07
8.17144e-08
8.29864e-08
1.11111e-07
1.45775e-07
1.76993e-07
1.95478e-07
1.95562e-07
1.7717e-07
1.45921e-07
1.1104e-07
8.26815e-08
8.40682e-08
1.12697e-07
1.4783e-07
1.79401e-07
1.9818e-07
1.98513e-07
1.80319e-07
1.49132e-07
1.14115e-07
8.54263e-08
8.52127e-08
1.1483e-07
1.512e-07
1.83907e-07
2.0362e-07
2.04541e-07
1.86557e-07
1.55168e-07
1.1959e-07
9.01128e-08
8.54046e-08
1.16128e-07
1.54168e-07
1.88683e-07
2.10039e-07
2.12066e-07
1.94485e-07
1.62774e-07
1.2631e-07
9.57177e-08
8.45369e-08
1.15976e-07
1.55396e-07
1.9172e-07
2.14893e-07
2.18253e-07
2.01197e-07
1.69168e-07
1.31774e-07
1.00109e-07
8.35389e-08
1.15005e-07
1.54841e-07
1.92069e-07
2.16296e-07
2.20469e-07
2.03645e-07
1.7126e-07
1.33156e-07
1.00898e-07
8.32896e-08
1.14118e-07
1.53177e-07
1.89832e-07
2.13625e-07
2.17444e-07
2.00215e-07
1.67458e-07
1.29164e-07
9.71275e-08
8.38201e-08
1.13701e-07
1.51227e-07
1.86104e-07
2.08102e-07
2.10445e-07
1.92273e-07
1.59286e-07
1.21472e-07
9.04344e-08
8.43457e-08
1.13291e-07
1.49161e-07
1.81851e-07
2.01545e-07
2.02048e-07
1.82967e-07
1.50172e-07
1.13472e-07
8.38671e-08
8.44406e-08
1.1274e-07
1.47445e-07
1.78441e-07
1.9633e-07
1.9546e-07
1.75917e-07
1.43636e-07
1.08153e-07
7.97646e-08
8.41107e-08
1.12162e-07
1.46425e-07
1.76617e-07
1.93634e-07
1.92135e-07
1.72515e-07
1.40692e-07
1.05981e-07
7.82159e-08
8.46121e-08
1.12596e-07
1.4672e-07
1.76608e-07
1.93329e-07
1.91655e-07
1.72083e-07
1.40483e-07
1.06042e-07
7.84356e-08
8.57397e-08
1.13326e-07
1.46754e-07
1.75985e-07
1.92137e-07
1.90117e-07
1.70402e-07
1.38834e-07
1.04577e-07
7.72676e-08
9.02481e-08
1.17344e-07
1.49386e-07
1.7714e-07
1.92031e-07
1.89397e-07
1.69717e-07
1.38641e-07
1.0501e-07
7.81693e-08
1.03676e-07
1.32166e-07
1.64271e-07
1.91399e-07
2.05483e-07
2.02394e-07
1.82625e-07
1.51511e-07
1.17374e-07
8.95109e-08
1.22756e-07
1.56731e-07
1.93007e-07
2.22945e-07
2.38583e-07
2.35997e-07
2.15635e-07
1.82742e-07
1.45542e-07
1.14131e-07
1.39619e-07
1.85923e-07
2.33936e-07
2.73352e-07
2.95265e-07
2.95338e-07
2.74075e-07
2.37203e-07
1.93755e-07
1.55586e-07
1.42251e-07
2.09209e-07
2.8156e-07
3.42782e-07
3.80353e-07
3.88021e-07
3.66748e-07
3.23805e-07
2.70462e-07
2.21279e-07
9.9037e-08
1.85757e-07
2.98062e-07
4.05817e-07
4.83376e-07
5.15549e-07
5.02236e-07
4.53772e-07
3.86664e-07
3.20317e-07
2.92083e-08
9.75361e-08
2.25842e-07
3.85223e-07
5.29438e-07
6.19037e-07
6.40703e-07
6.02968e-07
5.2832e-07
4.43951e-07
3.08635e-09
2.83042e-08
1.09475e-07
2.55418e-07
4.31914e-07
5.83422e-07
6.68065e-07
6.74543e-07
6.19509e-07
5.35631e-07
5.59926e-10
3.95525e-09
2.85675e-08
1.01476e-07
2.28501e-07
3.81136e-07
5.10269e-07
5.7824e-07
5.75998e-07
5.29135e-07
1.02477e-09
5.96808e-10
6.26419e-09
3.50788e-08
1.05708e-07
2.19826e-07
3.5025e-07
4.55547e-07
5.04353e-07
5.05205e-07
3.32549e-09
5.79827e-10
3.44454e-11
3.46417e-09
2.09432e-08
6.22665e-08
1.28752e-07
2.08426e-07
2.84733e-07
3.44824e-07
5.84381e-07
8.28614e-07
1.09513e-06
1.31571e-06
1.44053e-06
1.44053e-06
1.31571e-06
1.09514e-06
8.2862e-07
5.84386e-07
2.35125e-07
3.22836e-07
4.26197e-07
5.15556e-07
5.67385e-07
5.67391e-07
5.15572e-07
4.26218e-07
3.22858e-07
2.35145e-07
8.22784e-08
1.10205e-07
1.44651e-07
1.75698e-07
1.94043e-07
1.94054e-07
1.75726e-07
1.4469e-07
1.10244e-07
8.23129e-08
1.07452e-07
1.44985e-07
1.9037e-07
2.30646e-07
2.54283e-07
2.54316e-07
2.30732e-07
1.90487e-07
1.45103e-07
1.07557e-07
8.34585e-08
1.12053e-07
1.4729e-07
1.78937e-07
1.97659e-07
1.97734e-07
1.7914e-07
1.47574e-07
1.12354e-07
8.37396e-08
8.98869e-08
1.21092e-07
1.59376e-07
1.93681e-07
2.13992e-07
2.1416e-07
1.94147e-07
1.60042e-07
1.21826e-07
9.05978e-08
8.3394e-08
1.12304e-07
1.48005e-07
1.80147e-07
1.99274e-07
1.99547e-07
1.80908e-07
1.49103e-07
1.13545e-07
8.46215e-08
8.45545e-08
1.14031e-07
1.50416e-07
1.83172e-07
2.02697e-07
2.03044e-07
1.84148e-07
1.51828e-07
1.15651e-07
8.61805e-08
8.25991e-08
1.11346e-07
1.46889e-07
1.78913e-07
1.98005e-07
1.98327e-07
1.79823e-07
1.48206e-07
1.12877e-07
8.41632e-08
8.29754e-08
1.1174e-07
1.47247e-07
1.79186e-07
1.98154e-07
1.98347e-07
1.79732e-07
1.48039e-07
1.12685e-07
8.39845e-08
8.3021e-08
1.11553e-07
1.46679e-07
1.78188e-07
1.96782e-07
1.96758e-07
1.78122e-07
1.46588e-07
1.11494e-07
8.30579e-08
8.41269e-08
1.12779e-07
1.47899e-07
1.79267e-07
1.97621e-07
1.97331e-07
1.78457e-07
1.46746e-07
1.11522e-07
8.30063e-08
8.53096e-08
1.1417e-07
1.49407e-07
1.80739e-07
1.98918e-07
1.98365e-07
1.79205e-07
1.47237e-07
1.11796e-07
8.31304e-08
8.64896e-08
1.15698e-07
1.51279e-07
1.82811e-07
2.00993e-07
2.00244e-07
1.80742e-07
1.48379e-07
1.1256e-07
8.36137e-08
8.70727e-08
1.1656e-07
1.52485e-07
1.84296e-07
2.026e-07
2.0177e-07
1.82022e-07
1.4933e-07
1.13196e-07
8.40152e-08
8.70273e-08
1.16652e-07
1.52818e-07
1.84894e-07
2.03391e-07
2.02616e-07
1.82784e-07
1.49919e-07
1.13605e-07
8.42775e-08
8.65463e-08
1.16134e-07
1.52348e-07
1.84572e-07
2.03259e-07
2.02654e-07
1.82934e-07
1.50109e-07
1.13792e-07
8.44232e-08
8.61305e-08
1.15601e-07
1.51734e-07
1.83997e-07
2.0283e-07
2.02449e-07
1.82958e-07
1.50306e-07
1.14074e-07
8.46935e-08
8.61431e-08
1.15554e-07
1.51625e-07
1.839e-07
2.02847e-07
2.02671e-07
1.83409e-07
1.50931e-07
1.14751e-07
8.53124e-08
8.66225e-08
1.16145e-07
1.52326e-07
1.84711e-07
2.0379e-07
2.0376e-07
1.84615e-07
1.52176e-07
1.15914e-07
8.63129e-08
8.73812e-08
1.17181e-07
1.53672e-07
1.86306e-07
2.0555e-07
2.05568e-07
1.86351e-07
1.53724e-07
1.17196e-07
8.73303e-08
8.82315e-08
1.18351e-07
1.55204e-07
1.88105e-07
2.07454e-07
2.07366e-07
1.87854e-07
1.54825e-07
1.17903e-07
8.77513e-08
8.9116e-08
1.19451e-07
1.56514e-07
1.89512e-07
2.08773e-07
2.08382e-07
1.88415e-07
1.54897e-07
1.17603e-07
8.72602e-08
9.00053e-08
1.20404e-07
1.57438e-07
1.90284e-07
2.09228e-07
2.08389e-07
1.87923e-07
1.53981e-07
1.16444e-07
8.60508e-08
9.08661e-08
1.21243e-07
1.58096e-07
1.90629e-07
2.0914e-07
2.07831e-07
1.86941e-07
1.52717e-07
1.1506e-07
8.47039e-08
9.11757e-08
1.21535e-07
1.58266e-07
1.90584e-07
2.08802e-07
2.07205e-07
1.86094e-07
1.51776e-07
1.14113e-07
8.38403e-08
8.96603e-08
1.19959e-07
1.56762e-07
1.89221e-07
2.07612e-07
2.06205e-07
1.85318e-07
1.5126e-07
1.13851e-07
8.37982e-08
8.56885e-08
1.15653e-07
1.52521e-07
1.85397e-07
2.04484e-07
2.03898e-07
1.83874e-07
1.50612e-07
1.13894e-07
8.43066e-08
8.05738e-08
1.09746e-07
1.4622e-07
1.79264e-07
1.99104e-07
1.99667e-07
1.80989e-07
1.49011e-07
1.13411e-07
8.45649e-08
7.65963e-08
1.04689e-07
1.40175e-07
1.72732e-07
1.92785e-07
1.94209e-07
1.76817e-07
1.46215e-07
1.11871e-07
8.3908e-08
7.5141e-08
1.02357e-07
1.36694e-07
1.68291e-07
1.87885e-07
1.89501e-07
1.72828e-07
1.43198e-07
1.09821e-07
8.26024e-08
7.62962e-08
1.03288e-07
1.36993e-07
1.67827e-07
1.86765e-07
1.88058e-07
1.71392e-07
1.41986e-07
1.08842e-07
8.18069e-08
7.95465e-08
1.07042e-07
1.40922e-07
1.71608e-07
1.90134e-07
1.90903e-07
1.73656e-07
1.43674e-07
1.09885e-07
8.23198e-08
8.42096e-08
1.12756e-07
1.47528e-07
1.78677e-07
1.97103e-07
1.97231e-07
1.78894e-07
1.4761e-07
1.12443e-07
8.38047e-08
8.91693e-08
1.18933e-07
1.54881e-07
1.86709e-07
2.05081e-07
2.04368e-07
1.84586e-07
1.51617e-07
1.14859e-07
8.50758e-08
9.33151e-08
1.24118e-07
1.61116e-07
1.93475e-07
2.11634e-07
2.09925e-07
1.8865e-07
1.54091e-07
1.16076e-07
8.54904e-08
9.53242e-08
1.2669e-07
1.64302e-07
1.96889e-07
2.14748e-07
2.12223e-07
1.89919e-07
1.54422e-07
1.15892e-07
8.50627e-08
9.41647e-08
1.25303e-07
1.62824e-07
1.95447e-07
2.13463e-07
2.11205e-07
1.89293e-07
1.54246e-07
1.16153e-07
8.5492e-08
9.16663e-08
1.21983e-07
1.58708e-07
1.91161e-07
2.09824e-07
2.08977e-07
1.88776e-07
1.5523e-07
1.17857e-07
8.72231e-08
8.06979e-08
1.11097e-07
1.49081e-07
1.84067e-07
2.06048e-07
2.08754e-07
1.91639e-07
1.60205e-07
1.23466e-07
9.25029e-08
5.52048e-08
8.37263e-08
1.23272e-07
1.63747e-07
1.93987e-07
2.05628e-07
1.96261e-07
1.70135e-07
1.3588e-07
1.05133e-07
3.55722e-08
5.75642e-08
9.14236e-08
1.30239e-07
1.64725e-07
1.85528e-07
1.87656e-07
1.72212e-07
1.45784e-07
1.19301e-07
2.33466e-08
3.69189e-08
5.98947e-08
8.89775e-08
1.18959e-07
1.42665e-07
1.54516e-07
1.52536e-07
1.39782e-07
1.24328e-07
1.24338e-08
1.91278e-08
3.13193e-08
4.82168e-08
6.76697e-08
8.62789e-08
1.00499e-07
1.0796e-07
1.09405e-07
1.09278e-07
9.18152e-09
1.26559e-08
1.77771e-08
2.44624e-08
3.12428e-08
3.75272e-08
4.25931e-08
4.63809e-08
5.0303e-08
5.76847e-08
1.08518e-08
1.27547e-08
1.43011e-08
1.5292e-08
1.45786e-08
1.27181e-08
1.02668e-08
7.958e-09
6.95069e-09
8.73739e-09
1.42233e-08
1.48864e-08
1.45112e-08
1.28458e-08
9.61485e-09
6.16738e-09
3.51507e-09
1.86085e-09
1.18646e-09
5.94227e-10
2.60464e-08
2.51873e-08
2.24815e-08
1.76416e-08
1.13427e-08
5.83135e-09
2.5441e-09
1.33301e-09
1.66271e-09
1.50799e-09
4.54791e-08
4.37215e-08
3.80514e-08
2.8936e-08
1.77973e-08
8.27784e-09
2.66208e-09
7.84652e-10
1.11705e-09
1.81214e-09
1.08956e-07
9.88808e-08
7.88802e-08
5.27621e-08
2.73263e-08
9.40041e-09
1.31744e-09
2.94151e-12
8.41304e-10
3.3853e-09
5.84399e-07
8.28635e-07
1.09515e-06
1.31572e-06
1.44054e-06
1.44054e-06
1.31571e-06
1.09513e-06
8.28612e-07
5.84379e-07
2.3519e-07
3.2291e-07
4.26272e-07
5.15621e-07
5.6743e-07
5.6741e-07
5.15568e-07
4.26199e-07
3.22836e-07
2.35123e-07
8.24187e-08
1.10361e-07
1.44808e-07
1.75834e-07
1.94142e-07
1.94106e-07
1.75736e-07
1.44671e-07
1.10215e-07
8.22801e-08
1.07857e-07
1.45435e-07
1.90825e-07
2.31045e-07
2.54578e-07
2.54482e-07
2.30782e-07
1.90452e-07
1.45028e-07
1.07466e-07
8.42651e-08
1.12943e-07
1.48186e-07
1.79722e-07
1.98239e-07
1.9806e-07
1.79224e-07
1.47472e-07
1.12148e-07
8.34895e-08
9.14481e-08
1.22802e-07
1.61084e-07
1.95162e-07
2.15057e-07
2.14708e-07
1.94191e-07
1.59692e-07
1.21249e-07
8.99347e-08
8.57052e-08
1.14806e-07
1.50475e-07
1.82255e-07
2.00732e-07
2.00198e-07
1.80774e-07
1.48364e-07
1.12468e-07
8.34355e-08
8.7563e-08
1.1727e-07
1.53597e-07
1.85875e-07
2.0454e-07
2.03827e-07
1.83906e-07
1.50808e-07
1.14201e-07
8.45901e-08
8.59867e-08
1.15013e-07
1.50537e-07
1.82095e-07
2.00297e-07
1.99504e-07
1.79908e-07
1.47447e-07
1.11612e-07
8.26674e-08
8.6385e-08
1.15528e-07
1.51181e-07
1.82854e-07
2.01131e-07
2.00368e-07
1.80746e-07
1.48205e-07
1.12232e-07
8.31267e-08
8.5775e-08
1.14791e-07
1.50337e-07
1.81982e-07
2.00335e-07
1.9975e-07
1.8037e-07
1.48074e-07
1.12277e-07
8.32548e-08
8.54196e-08
1.14561e-07
1.50357e-07
1.82346e-07
2.01076e-07
2.00824e-07
1.81666e-07
1.49442e-07
1.13563e-07
8.43758e-08
8.46253e-08
1.13804e-07
1.49789e-07
1.82116e-07
2.01284e-07
2.01468e-07
1.82652e-07
1.50612e-07
1.14756e-07
8.54833e-08
8.40398e-08
1.13266e-07
1.49434e-07
1.82084e-07
2.01669e-07
2.02258e-07
1.83737e-07
1.51819e-07
1.15934e-07
8.65426e-08
8.38153e-08
1.13026e-07
1.49229e-07
1.82005e-07
2.01796e-07
2.02608e-07
1.84255e-07
1.524e-07
1.1649e-07
8.70334e-08
8.42832e-08
1.13492e-07
1.49635e-07
1.82341e-07
2.0207e-07
2.0283e-07
1.84413e-07
1.52476e-07
1.16482e-07
8.69744e-08
8.538e-08
1.14648e-07
1.50705e-07
1.832e-07
2.02635e-07
2.03085e-07
1.84385e-07
1.52233e-07
1.16106e-07
8.65604e-08
8.66698e-08
1.16117e-07
1.52208e-07
1.84546e-07
2.03657e-07
2.03703e-07
1.84613e-07
1.52166e-07
1.15853e-07
8.62445e-08
8.73698e-08
1.17061e-07
1.53359e-07
1.85762e-07
2.0476e-07
2.0456e-07
1.85176e-07
1.52478e-07
1.15993e-07
8.63047e-08
8.70548e-08
1.1691e-07
1.53467e-07
1.86127e-07
2.05303e-07
2.05164e-07
1.85752e-07
1.52985e-07
1.16438e-07
8.67072e-08
8.60779e-08
1.15921e-07
1.52601e-07
1.85514e-07
2.05015e-07
2.05189e-07
1.86032e-07
1.53431e-07
1.16985e-07
8.72823e-08
8.52001e-08
1.1492e-07
1.51557e-07
1.84592e-07
2.0438e-07
2.0494e-07
1.86175e-07
1.53877e-07
1.17615e-07
8.79595e-08
8.49469e-08
1.14587e-07
1.51165e-07
1.84248e-07
2.04236e-07
2.05116e-07
1.86694e-07
1.54652e-07
1.18496e-07
8.88018e-08
8.53528e-08
1.15066e-07
1.51716e-07
1.84904e-07
2.05055e-07
2.06137e-07
1.87886e-07
1.55913e-07
1.1967e-07
8.98009e-08
8.60419e-08
1.15973e-07
1.52867e-07
1.86273e-07
2.06593e-07
2.07771e-07
1.89512e-07
1.5742e-07
1.20939e-07
9.0819e-08
8.66286e-08
1.16808e-07
1.54e-07
1.87624e-07
2.08035e-07
2.0914e-07
1.90667e-07
1.58287e-07
1.21512e-07
9.11969e-08
8.70431e-08
1.17288e-07
1.54541e-07
1.88074e-07
2.08209e-07
2.08845e-07
1.89819e-07
1.56951e-07
1.19919e-07
8.9617e-08
8.71486e-08
1.17089e-07
1.53897e-07
1.8677e-07
2.0604e-07
2.0571e-07
1.85829e-07
1.52442e-07
1.15419e-07
8.55235e-08
8.66909e-08
1.1597e-07
1.51842e-07
1.83572e-07
2.01589e-07
2.00134e-07
1.79527e-07
1.46009e-07
1.09491e-07
8.03917e-08
8.55127e-08
1.14018e-07
1.48852e-07
1.79471e-07
1.9646e-07
1.94333e-07
1.73598e-07
1.40529e-07
1.04852e-07
7.65909e-08
8.39773e-08
1.11818e-07
1.45851e-07
1.75793e-07
1.92393e-07
1.90343e-07
1.70146e-07
1.37921e-07
1.03074e-07
7.53781e-08
8.28385e-08
1.10297e-07
1.43939e-07
1.73736e-07
1.90559e-07
1.89135e-07
1.69801e-07
1.38433e-07
1.04128e-07
7.66283e-08
8.25896e-08
1.1009e-07
1.43841e-07
1.73967e-07
1.91396e-07
1.90793e-07
1.72285e-07
1.41513e-07
1.07382e-07
7.97423e-08
8.32977e-08
1.11392e-07
1.45893e-07
1.76856e-07
1.95175e-07
1.95363e-07
1.77378e-07
1.46719e-07
1.12276e-07
8.41231e-08
8.42015e-08
1.13228e-07
1.48969e-07
1.81199e-07
2.00653e-07
2.01592e-07
1.83847e-07
1.52878e-07
1.17743e-07
8.87916e-08
8.47155e-08
1.14617e-07
1.51657e-07
1.85258e-07
2.05917e-07
2.0757e-07
1.89932e-07
1.58482e-07
1.22547e-07
9.27386e-08
8.47311e-08
1.15115e-07
1.5297e-07
1.87515e-07
2.09021e-07
2.11156e-07
1.93535e-07
1.61673e-07
1.25134e-07
9.47086e-08
8.58705e-08
1.1615e-07
1.53742e-07
1.87904e-07
2.08985e-07
2.1072e-07
1.92782e-07
1.60729e-07
1.24139e-07
9.37288e-08
8.92838e-08
1.19199e-07
1.55752e-07
1.88193e-07
2.07423e-07
2.07688e-07
1.89034e-07
1.57093e-07
1.21109e-07
9.14432e-08
9.67739e-08
1.25631e-07
1.59604e-07
1.87969e-07
2.02386e-07
1.9812e-07
1.76152e-07
1.42762e-07
1.07226e-07
7.95166e-08
1.05766e-07
1.31158e-07
1.58927e-07
1.78982e-07
1.84048e-07
1.71381e-07
1.43829e-07
1.08871e-07
7.58049e-08
5.27665e-08
1.07388e-07
1.27109e-07
1.46951e-07
1.58025e-07
1.54921e-07
1.37156e-07
1.0903e-07
7.77375e-08
5.09289e-08
3.34948e-08
1.03709e-07
1.20714e-07
1.37606e-07
1.45616e-07
1.40202e-07
1.2155e-07
9.41871e-08
6.46893e-08
4.0111e-08
2.39729e-08
1.14971e-07
1.33786e-07
1.51887e-07
1.59071e-07
1.50322e-07
1.26231e-07
9.2827e-08
5.84209e-08
3.16932e-08
1.52918e-08
1.49343e-07
1.71195e-07
1.90197e-07
1.94393e-07
1.78453e-07
1.44712e-07
1.01978e-07
6.08596e-08
3.09241e-08
1.33499e-08
1.96999e-07
2.21573e-07
2.41204e-07
2.42154e-07
2.18898e-07
1.7569e-07
1.23454e-07
7.44744e-08
3.85768e-08
1.71717e-08
2.20273e-07
2.4508e-07
2.64862e-07
2.64826e-07
2.39479e-07
1.9376e-07
1.38781e-07
8.68008e-08
4.7321e-08
2.2674e-08
2.29969e-07
2.58033e-07
2.81901e-07
2.86399e-07
2.65389e-07
2.2291e-07
1.68804e-07
1.14512e-07
6.98104e-08
3.85769e-08
2.17593e-07
2.41533e-07
2.63531e-07
2.72273e-07
2.6094e-07
2.30708e-07
1.87262e-07
1.39522e-07
9.5749e-08
6.18788e-08
3.68288e-07
4.10837e-07
4.45433e-07
4.59493e-07
4.46358e-07
4.05291e-07
3.42041e-07
2.68719e-07
1.96705e-07
1.38803e-07
)
;
    }
    inlet
    {
        type            calculated;
        value           uniform 0;
    }
    outlet
    {
        type            calculated;
        value           uniform 0;
    }
}


// ************************************************************************* //
