/*--------------------------------*- C++ -*----------------------------------*\
| =========                 |                                                 |
| \\      /  F ield         | OpenFOAM: The Open Source CFD Toolbox           |
|  \\    /   O peration     | Version:  2406                                  |
|   \\  /    A nd           | Website:  www.openfoam.com                      |
|    \\/     M anipulation  |                                                 |
\*---------------------------------------------------------------------------*/
FoamFile
{
    version     2.0;
    format      ascii;
    arch        "LSB;label=32;scalar=64";
    class       volVectorField;
    location    "0.9";
    object      momentError;
}
// * * * * * * * * * * * * * * * * * * * * * * * * * * * * * * * * * * * * * //

dimensions      [0 1 -2 0 0 0 0];

internalField   nonuniform List<vector> 
25000
(
(0.00119277 0.000706627 0.00012831)
(0.000745354 0.000923333 0.000424213)
(0.000543324 0.000884972 0.00049503)
(0.000442334 0.000817953 0.000555298)
(0.000345112 0.000765404 0.000614872)
(0.000247094 0.000725823 0.000650944)
(0.000146049 0.000700368 0.000663889)
(-1.19257e-05 0.000693116 0.000677699)
(-0.000289115 0.000721309 0.000686995)
(-0.00062151 0.000617737 0.000421706)
(0.00125501 0.000284377 0.000428276)
(0.000725541 0.000357293 0.000836357)
(0.000460647 0.00027905 0.000942362)
(0.000358804 0.000228985 0.00102473)
(0.000275536 0.000196048 0.00109729)
(0.000191152 0.000161122 0.00113579)
(0.000100016 0.000132403 0.00114151)
(-5.80574e-05 0.00013982 0.00113979)
(-0.000396988 0.00023312 0.00112348)
(-0.000847293 0.000206864 0.000756816)
(0.00115527 0.000105152 0.000530379)
(0.000614592 9.15947e-05 0.00097602)
(0.000365837 1.63458e-05 0.00110174)
(0.000278668 -1.24974e-05 0.00119588)
(0.000208215 -2.56419e-05 0.00127297)
(0.000138502 -4.41132e-05 0.00130907)
(6.8119e-05 -6.17308e-05 0.00130524)
(-5.91537e-05 -4.38223e-05 0.00128657)
(-0.000345693 5.8606e-05 0.00124997)
(-0.000755337 9.43122e-05 0.0008471)
(0.00107146 4.2516e-05 0.00062212)
(0.000546566 2.14467e-05 0.00109686)
(0.000320896 -4.4842e-05 0.00123836)
(0.000245784 -6.66931e-05 0.00133918)
(0.000182184 -6.95695e-05 0.00141704)
(0.000118812 -7.38249e-05 0.00145067)
(5.87437e-05 -7.64052e-05 0.00144085)
(-4.28081e-05 -5.03709e-05 0.00141013)
(-0.000276839 3.99201e-05 0.00135518)
(-0.000629655 6.78742e-05 0.000923146)
(0.00102313 -2.24742e-05 0.000710138)
(0.000503168 -3.38045e-05 0.00120829)
(0.000295222 -8.85954e-05 0.00136092)
(0.000233837 -0.0001066 0.00146456)
(0.000178052 -0.000103034 0.00154062)
(0.000120222 -9.62392e-05 0.00157108)
(6.83141e-05 -8.60444e-05 0.00155692)
(-1.76483e-05 -5.56968e-05 0.00151817)
(-0.000219778 1.33672e-05 0.00144937)
(-0.000545739 1.92413e-05 0.000993219)
(0.00100119 -0.000112899 0.00077067)
(0.00047128 -0.000111521 0.00128317)
(0.000274398 -0.000153045 0.00144242)
(0.00022806 -0.000166046 0.00154747)
(0.000184537 -0.000156141 0.00162135)
(0.000135403 -0.000139237 0.00164781)
(9.07867e-05 -0.0001192 0.00162873)
(1.51405e-05 -8.76336e-05 0.0015839)
(-0.000173334 -3.99646e-05 0.00150688)
(-0.000495642 -5.3336e-05 0.00103687)
(0.000996358 -0.000222406 0.000805556)
(0.000452316 -0.000207355 0.00132322)
(0.000262811 -0.000228796 0.00148321)
(0.000232825 -0.000229831 0.00158784)
(0.000203966 -0.000209974 0.00165911)
(0.000163729 -0.000183938 0.00168064)
(0.000125594 -0.000155639 0.001656)
(5.40064e-05 -0.00012662 0.00160692)
(-0.000138807 -0.000107066 0.00152748)
(-0.000473783 -0.000138906 0.00105395)
(0.00100835 -0.000374725 0.000833816)
(0.000475646 -0.000353102 0.00134658)
(0.000291013 -0.000338948 0.00149827)
(0.000267927 -0.00031455 0.00159729)
(0.00024373 -0.00028096 0.00166354)
(0.000204872 -0.00024826 0.00168017)
(0.000164283 -0.00021998 0.00165225)
(8.17568e-05 -0.000206194 0.00160332)
(-0.000134663 -0.000224404 0.00152844)
(-0.000490978 -0.000265212 0.0010618)
(0.00100227 -0.000643615 0.000837974)
(0.000569641 -0.000632684 0.00133569)
(0.000394568 -0.000556403 0.00146878)
(0.000353534 -0.000489798 0.00155347)
(0.000309226 -0.000442538 0.00161117)
(0.00024978 -0.00041632 0.00162444)
(0.000185395 -0.000410574 0.00159815)
(7.46241e-05 -0.000433704 0.00155686)
(-0.000177139 -0.000489755 0.00149411)
(-0.000542287 -0.000460608 0.0010471)
(0.00075305 -0.00105357 0.00050724)
(0.000538738 -0.000998196 0.000921342)
(0.000463567 -0.000856604 0.00102428)
(0.000422553 -0.000763397 0.00108722)
(0.000365479 -0.000724636 0.00113194)
(0.000295337 -0.000729508 0.00114348)
(0.000220667 -0.000769423 0.00112505)
(0.000109875 -0.000837594 0.00109856)
(-0.000100119 -0.000885472 0.00105475)
(-0.000439307 -0.000714148 0.000692157)
(0.00238503 0.00049171 0.000870365)
(0.00181016 0.000924952 0.00184968)
(0.00160802 0.00100154 0.00172358)
(0.00151848 0.000987734 0.00162474)
(0.0014233 0.000969871 0.00165398)
(0.00130417 0.000945983 0.00175281)
(0.00114892 0.0009309 0.00194032)
(0.000889054 0.000935432 0.00230826)
(0.000457591 0.000987684 0.00280547)
(-5.09674e-05 0.000927102 0.00240935)
(0.00216259 0.00020862 0.00171745)
(0.00157061 0.000351607 0.0025141)
(0.00129204 0.000256595 0.00214726)
(0.00118615 0.000204186 0.00196623)
(0.00110331 0.000177452 0.00197645)
(0.00101479 0.000147056 0.00204202)
(0.000898745 0.000131191 0.00217912)
(0.000668112 0.000172742 0.0025455)
(0.000193907 0.000334744 0.00319861)
(-0.00043894 0.000369382 0.00286929)
(0.00192063 0.000153446 0.00150841)
(0.00131613 0.000124475 0.00206425)
(0.00104722 -1.57516e-05 0.00166423)
(0.000942337 -7.32641e-05 0.00156031)
(0.000869779 -9.58493e-05 0.00162187)
(0.00080788 -0.000118631 0.00167192)
(0.000735258 -0.000131365 0.00173013)
(0.000564604 -8.28988e-05 0.00199288)
(0.000166697 9.06543e-05 0.0026357)
(-0.000428697 0.000181508 0.00246076)
(0.00175275 0.000158632 0.00133014)
(0.00113801 0.000112224 0.00181537)
(0.000889676 -2.63751e-05 0.00149)
(0.000798531 -9.15846e-05 0.00146727)
(0.000739367 -0.000117481 0.00156379)
(0.000694984 -0.000136476 0.00160683)
(0.000649361 -0.000146206 0.00161741)
(0.00052252 -0.000106296 0.00178961)
(0.000194086 3.20354e-05 0.00234033)
(-0.000345846 8.29743e-05 0.00218056)
(0.00166297 0.000146887 0.00126959)
(0.00101708 0.000121273 0.00176082)
(0.000784329 3.36162e-07 0.00149145)
(0.000714403 -6.59499e-05 0.00150854)
(0.000673067 -9.49679e-05 0.00161863)
(0.000643425 -0.000112497 0.00166001)
(0.000616413 -0.000121159 0.00165476)
(0.000519716 -9.75509e-05 0.0017845)
(0.000233559 -1.38958e-05 0.00227076)
(-0.000283309 -2.77862e-05 0.00207823)
(0.00162481 9.7563e-05 0.00125346)
(0.00094272 9.82472e-05 0.00175413)
(0.000718744 5.8045e-10 0.00148222)
(0.0006713 -6.1105e-05 0.00150278)
(0.000650079 -8.97285e-05 0.00161877)
(0.000637034 -0.00010491 0.00166379)
(0.000626144 -0.000113894 0.00165945)
(0.000548583 -0.000108964 0.00178897)
(0.000282691 -8.28566e-05 0.00227387)
(-0.000229414 -0.000161379 0.00206592)
(0.0016239 1.89683e-05 0.00127916)
(0.00092286 4.04351e-05 0.00179706)
(0.000703539 -2.95969e-05 0.00146286)
(0.000675966 -7.71901e-05 0.00144787)
(0.000673803 -9.82959e-05 0.00156041)
(0.000673826 -0.000109364 0.00161437)
(0.000672048 -0.000121996 0.00162912)
(0.000602057 -0.00014086 0.00180143)
(0.000335021 -0.000178019 0.00234677)
(-0.000178942 -0.000319565 0.00213703)
(0.00166502 -0.00012283 0.00141985)
(0.000996039 -0.000101269 0.00203904)
(0.000785854 -0.000129478 0.00162929)
(0.000764786 -0.000150579 0.001533)
(0.000762818 -0.000158755 0.0016159)
(0.000756132 -0.00016843 0.00168299)
(0.000743206 -0.00019274 0.00174843)
(0.000655814 -0.000247819 0.00200982)
(0.000364638 -0.000353967 0.00263662)
(-0.000143649 -0.000537983 0.00236663)
(0.00171 -0.000389315 0.00159866)
(0.00119641 -0.00041873 0.00249728)
(0.00101454 -0.000391019 0.00213845)
(0.000972468 -0.000371262 0.00197294)
(0.000935168 -0.000369647 0.00200536)
(0.000885602 -0.000391107 0.00208595)
(0.000822732 -0.000448736 0.00222368)
(0.000684139 -0.000554894 0.00257207)
(0.000361034 -0.000718737 0.00317726)
(-9.79332e-05 -0.000854126 0.0026941)
(0.00159823 -0.000780404 0.000525502)
(0.00134081 -0.000815137 0.00168375)
(0.00129624 -0.000768957 0.00160762)
(0.00125748 -0.000752265 0.0015513)
(0.00119033 -0.000785185 0.00160982)
(0.00110276 -0.000853834 0.00171503)
(0.00100055 -0.000961655 0.00188035)
(0.000842765 -0.0011076 0.00219171)
(0.000581354 -0.00126344 0.00259478)
(0.000213375 -0.00127785 0.00197173)
(0.0032946 -0.000603634 0.000555577)
(0.00272215 8.12551e-05 0.00317619)
(0.00257989 0.000254485 0.00349881)
(0.00258662 0.000288347 0.00380973)
(0.00262027 0.000318964 0.00433594)
(0.0026377 0.000354359 0.00500534)
(0.00257839 0.000409836 0.00588909)
(0.00234488 0.000481826 0.00715747)
(0.00189024 0.000595809 0.00871633)
(0.00140548 0.000547007 0.00920902)
(0.00264102 -0.00085689 0.00267228)
(0.00206745 -0.000588483 0.00468516)
(0.0018554 -0.000672119 0.00428962)
(0.0018587 -0.000713543 0.0041003)
(0.00193642 -0.000709833 0.00428907)
(0.00201727 -0.000683777 0.00473057)
(0.00200952 -0.000615296 0.00549163)
(0.00179331 -0.00048009 0.00678074)
(0.00127299 -0.000219908 0.00857389)
(0.000621831 -0.00011382 0.00888891)
(0.00214831 -0.000880407 0.00248157)
(0.00162976 -0.000881761 0.00381556)
(0.00145313 -0.00107263 0.00302324)
(0.00147815 -0.00115149 0.00262739)
(0.00159071 -0.00115979 0.00268448)
(0.00172732 -0.00112803 0.00302969)
(0.00178285 -0.00104595 0.00372424)
(0.0016205 -0.000878341 0.0050151)
(0.00115429 -0.000576435 0.00699291)
(0.000539153 -0.000396763 0.00757846)
(0.00180203 -0.00079883 0.00220972)
(0.0013458 -0.000874183 0.00315371)
(0.00122367 -0.00108487 0.0021778)
(0.00128091 -0.00117543 0.00169376)
(0.00142828 -0.00118611 0.00170799)
(0.00160849 -0.00115151 0.00201097)
(0.00170986 -0.00107304 0.00264777)
(0.0015976 -0.000921826 0.00390611)
(0.00118843 -0.000662929 0.00592693)
(0.000630161 -0.000538053 0.00663397)
(0.00160359 -0.000672246 0.00206479)
(0.00117503 -0.000743147 0.00284573)
(0.00110107 -0.000921125 0.00179157)
(0.00119283 -0.000993178 0.00127916)
(0.00137091 -0.000992006 0.00129661)
(0.00158469 -0.000959934 0.00158848)
(0.00171722 -0.000907085 0.00217593)
(0.0016343 -0.000809509 0.00339542)
(0.00126012 -0.000648596 0.00540946)
(0.000722528 -0.000634666 0.00612536)
(0.00153564 -0.000543357 0.0019331)
(0.00111951 -0.00057904 0.00272977)
(0.00108228 -0.000701517 0.00167174)
(0.00120602 -0.00073969 0.00115551)
(0.00140527 -0.000719096 0.00116743)
(0.00163135 -0.000694788 0.00145838)
(0.00176913 -0.000679942 0.00204737)
(0.00169632 -0.00065227 0.0032592)
(0.0013369 -0.000605967 0.00525219)
(0.000804415 -0.00071754 0.005903)
(0.0015876 -0.000422075 0.00181405)
(0.0011829 -0.000430127 0.00280254)
(0.00117399 -0.000502163 0.00181402)
(0.0013261 -0.000513807 0.00132514)
(0.00152944 -0.000484949 0.00133603)
(0.00173675 -0.000471364 0.0016358)
(0.00185496 -0.000491442 0.00226198)
(0.00177351 -0.000529698 0.00348648)
(0.00141442 -0.000596122 0.00543875)
(0.000884387 -0.000824117 0.00594611)
(0.00175903 -0.000346653 0.00183314)
(0.00138451 -0.000360272 0.00323511)
(0.00138983 -0.000394705 0.00241856)
(0.00154724 -0.000395067 0.00201964)
(0.00173163 -0.000379156 0.00207886)
(0.00189684 -0.00038798 0.00241385)
(0.00197342 -0.000442855 0.00307166)
(0.00186558 -0.00054271 0.00428714)
(0.00149388 -0.000704952 0.00614026)
(0.000969619 -0.00100976 0.00637664)
(0.00204177 -0.000357182 0.00184069)
(0.001753 -0.00043876 0.00394617)
(0.0017633 -0.000453958 0.0035092)
(0.00189093 -0.000456244 0.00330783)
(0.00202206 -0.000475909 0.00348616)
(0.00211825 -0.000532679 0.00388923)
(0.00213128 -0.000644872 0.00456455)
(0.00198427 -0.000811521 0.00571199)
(0.00160728 -0.00104375 0.00730214)
(0.00113847 -0.00132422 0.00708212)
(0.00244061 -0.00047524 -0.000730916)
(0.00228831 -0.000594284 0.00212192)
(0.00237248 -0.000637039 0.00241113)
(0.00248101 -0.000687615 0.00268316)
(0.00256219 -0.000788307 0.00314986)
(0.00260306 -0.000935967 0.00370886)
(0.00257914 -0.00113722 0.00440872)
(0.00243647 -0.00137976 0.00540821)
(0.0021467 -0.00163799 0.00660635)
(0.00180351 -0.00180296 0.00624206)
(0.00673106 -0.00206438 -0.000751964)
(0.00592811 -0.000622433 0.00407761)
(0.00578806 4.49699e-05 0.00527791)
(0.00579434 0.000424321 0.00636315)
(0.00575768 0.000719861 0.00774278)
(0.00560941 0.000947936 0.00935235)
(0.00529538 0.00113537 0.0112998)
(0.00474617 0.00128412 0.0138452)
(0.00392602 0.00144445 0.0168648)
(0.00311325 0.00143553 0.0192565)
(0.00517968 -0.00179906 0.00297417)
(0.00466013 -0.000898079 0.0067831)
(0.00457142 -0.000697111 0.00689928)
(0.00461097 -0.000567038 0.00714142)
(0.00461006 -0.000438964 0.00785765)
(0.0044913 -0.000310754 0.00895263)
(0.0041828 -0.000150985 0.0105339)
(0.00361514 5.84239e-05 0.0128654)
(0.00274025 0.000378654 0.0158684)
(0.00180235 0.000508848 0.0173286)
(0.00428285 -0.00150908 0.00299842)
(0.00395575 -0.000961189 0.00581589)
(0.00396628 -0.000971247 0.00533747)
(0.00405054 -0.000992576 0.00516659)
(0.0040915 -0.00098499 0.00551312)
(0.00401466 -0.000916971 0.00637293)
(0.00373021 -0.000762645 0.00785549)
(0.00318279 -0.000525272 0.0101575)
(0.00235573 -0.000173789 0.0133253)
(0.00147013 -2.46389e-05 0.0148729)
(0.00370889 -0.00126703 0.0026772)
(0.00347418 -0.000856169 0.00492391)
(0.00356939 -0.000947774 0.00411703)
(0.00372499 -0.00106256 0.00360352)
(0.00385592 -0.00114598 0.00354938)
(0.00385075 -0.00112772 0.00426062)
(0.0035828 -0.000976989 0.00587338)
(0.00304771 -0.00075811 0.00827958)
(0.00226777 -0.000468968 0.0115034)
(0.00144317 -0.000422783 0.0130634)
(0.0033767 -0.00104792 0.00238357)
(0.00317395 -0.000704988 0.00439499)
(0.00333399 -0.000811677 0.00339629)
(0.00356197 -0.000957737 0.00260805)
(0.00379102 -0.00108228 0.0021761)
(0.00385701 -0.00109326 0.00276144)
(0.00359277 -0.000993025 0.00464002)
(0.00305532 -0.000847706 0.00723043)
(0.00230666 -0.00067908 0.0104898)
(0.00150667 -0.000779853 0.011982)
(0.00323946 -0.000854877 0.00199242)
(0.00305221 -0.0005511 0.00407416)
(0.00325653 -0.000633909 0.00309033)
(0.00352368 -0.000753356 0.00232811)
(0.0037667 -0.000853002 0.00194828)
(0.00384203 -0.000906839 0.0025246)
(0.00359664 -0.000905889 0.0043301)
(0.00310701 -0.000883575 0.00686584)
(0.00241035 -0.000861638 0.0100686)
(0.00163802 -0.00111647 0.0114188)
(0.00326799 -0.00066265 0.00151768)
(0.00310113 -0.000405206 0.00396886)
(0.00332702 -0.000467421 0.00319795)
(0.00358687 -0.00056337 0.00272916)
(0.00377281 -0.000654345 0.00271741)
(0.00380426 -0.000739066 0.00339914)
(0.00360715 -0.000840164 0.00490295)
(0.0032012 -0.000943108 0.00717095)
(0.00257548 -0.00106834 0.0102231)
(0.00184821 -0.00147206 0.0113514)
(0.00347067 -0.000490229 0.00111044)
(0.00333855 -0.000295686 0.00425465)
(0.00356783 -0.00035125 0.00380721)
(0.00379923 -0.00045148 0.00365173)
(0.00392369 -0.000569641 0.00398883)
(0.0039141 -0.00071374 0.00479025)
(0.00374302 -0.000895856 0.00615001)
(0.00339336 -0.00110612 0.00825436)
(0.00282415 -0.00136464 0.0111414)
(0.00216136 -0.00189304 0.0119459)
(0.00387604 -0.000352871 0.000493674)
(0.0038011 -0.000259074 0.00474406)
(0.00402021 -0.000321172 0.00487051)
(0.00421384 -0.000447672 0.00508684)
(0.00428685 -0.00062757 0.00573983)
(0.00423556 -0.000853197 0.00671066)
(0.00405666 -0.00113197 0.00808394)
(0.00372851 -0.00145438 0.0101044)
(0.00321673 -0.00184484 0.0126817)
(0.00269895 -0.00245971 0.0130195)
(0.0047559 -0.000255947 -0.00441983)
(0.00470119 -0.000195658 0.0012471)
(0.00497087 -0.000330526 0.00254998)
(0.00515726 -0.000548228 0.00359462)
(0.00521583 -0.000850174 0.00482691)
(0.00516114 -0.0012065 0.00616863)
(0.00500634 -0.00161896 0.00770554)
(0.00473143 -0.00208019 0.00967087)
(0.00434168 -0.00262683 0.0119145)
(0.00404485 -0.00332367 0.0124682)
(0.0100114 -0.00650608 -0.00435538)
(0.00877524 -0.00357263 0.00309372)
(0.00843646 -0.0021646 0.00548929)
(0.00837896 -0.00133159 0.00783757)
(0.0083483 -0.000699648 0.0107263)
(0.008257 -0.000216145 0.0141064)
(0.00800671 0.000179377 0.0181493)
(0.00748909 0.000489417 0.0232685)
(0.00665662 0.000776204 0.0294215)
(0.00593599 0.000700214 0.0366386)
(0.00729765 -0.00609695 0.000699778)
(0.00647964 -0.00393833 0.00673755)
(0.00631609 -0.00312039 0.00766857)
(0.00638 -0.00255243 0.00879241)
(0.00645498 -0.00208294 0.0105981)
(0.00643143 -0.00169347 0.0129928)
(0.00620231 -0.00132762 0.01614)
(0.00567529 -0.000971269 0.0204487)
(0.0047906 -0.000547458 0.025921)
(0.00387241 -0.000436753 0.030719)
(0.00570877 -0.00569887 0.000492872)
(0.00531125 -0.0040493 0.00533064)
(0.00537002 -0.00350991 0.00559339)
(0.00555101 -0.00312739 0.00620914)
(0.00571244 -0.00281217 0.00743608)
(0.00573801 -0.00250452 0.0093954)
(0.00551453 -0.00215514 0.0122322)
(0.00498804 -0.00178519 0.0162503)
(0.00414056 -0.0013481 0.0216425)
(0.00326406 -0.00123506 0.0259843)
(0.00468084 -0.00530156 -0.000302836)
(0.00456245 -0.00390946 0.00395713)
(0.00482577 -0.003514 0.00392475)
(0.00517088 -0.00329164 0.00410508)
(0.00551594 -0.00314278 0.00460822)
(0.00561575 -0.00292163 0.00630317)
(0.00532773 -0.00254399 0.00930145)
(0.00476502 -0.00218997 0.0133645)
(0.00394262 -0.00183049 0.0186133)
(0.0031294 -0.00185001 0.0225592)
(0.00402651 -0.00485439 -0.00119949)
(0.00409509 -0.00363754 0.00295939)
(0.00454272 -0.00332362 0.00277791)
(0.00508642 -0.00323414 0.00257563)
(0.00567081 -0.00326311 0.0024157)
(0.00585508 -0.00308156 0.00352544)
(0.00544286 -0.00268933 0.00729112)
(0.00479122 -0.002385 0.0116552)
(0.003976 -0.00216307 0.0168238)
(0.00318881 -0.00237451 0.0204084)
(0.00368956 -0.00437693 -0.0023817)
(0.00389358 -0.00327743 0.0021225)
(0.00446577 -0.00298653 0.00208552)
(0.00510338 -0.00291158 0.00198748)
(0.00572042 -0.00296432 0.00208079)
(0.00592116 -0.00285813 0.00319091)
(0.00552334 -0.00260287 0.00668273)
(0.00492236 -0.00244791 0.0109328)
(0.00415785 -0.00240215 0.0159604)
(0.0034041 -0.00282341 0.0192254)
(0.00362808 -0.00384023 -0.0038683)
(0.00393727 -0.00283726 0.00142629)
(0.004576 -0.00255368 0.00182585)
(0.00518001 -0.00245213 0.00230016)
(0.00565401 -0.00246286 0.00299001)
(0.00581995 -0.00242558 0.00466352)
(0.00560305 -0.00240658 0.00743993)
(0.00515862 -0.00246308 0.0111775)
(0.0044864 -0.002613 0.0159984)
(0.00378885 -0.00325434 0.0189784)
(0.00384006 -0.00326873 -0.00553514)
(0.00425101 -0.00235592 0.00104317)
(0.00492491 -0.00208331 0.00198608)
(0.00550799 -0.00200102 0.00298645)
(0.00589309 -0.00203277 0.00437856)
(0.00603886 -0.00212904 0.00630153)
(0.00592932 -0.00229421 0.00890768)
(0.00558682 -0.00253275 0.0124804)
(0.00498984 -0.00287215 0.0171928)
(0.00437235 -0.00371957 0.0198956)
(0.00433844 -0.0026823 -0.00785865)
(0.00485848 -0.0018783 0.000665385)
(0.00555319 -0.00162982 0.00252726)
(0.00612553 -0.00160143 0.00414784)
(0.00648403 -0.00173668 0.00613935)
(0.00662202 -0.00198137 0.00844481)
(0.00654767 -0.00232522 0.011234)
(0.00625747 -0.00274977 0.0148911)
(0.0057438 -0.0032968 0.0193857)
(0.00533215 -0.00433224 0.0217768)
(0.00547014 -0.00228083 -0.0177032)
(0.0060846 -0.00140843 -0.0060871)
(0.00690743 -0.00122913 -0.00206224)
(0.00753896 -0.00132247 0.00111594)
(0.00794175 -0.00162845 0.00427352)
(0.00813597 -0.00207234 0.00744249)
(0.00814589 -0.0026341 0.0108266)
(0.00796047 -0.00329195 0.0148189)
(0.00762368 -0.00412543 0.019328)
(0.00755215 -0.00536463 0.0227649)
(0.0154726 -0.0109008 -0.0056015)
(0.0138524 -0.00653677 0.00390999)
(0.0133471 -0.00408762 0.00753129)
(0.0131323 -0.00247479 0.0113508)
(0.0128677 -0.00123726 0.0161333)
(0.0124369 -0.000319029 0.0218464)
(0.0117203 0.000341151 0.0286963)
(0.0106117 0.000715409 0.0372273)
(0.0090454 0.000819516 0.0474852)
(0.00758702 0.000139299 0.0617153)
(0.0114415 -0.00992165 -0.00098638)
(0.010535 -0.0063394 0.00714281)
(0.0104202 -0.00463376 0.00914837)
(0.0104662 -0.00342468 0.0115208)
(0.0104098 -0.0024746 0.0148986)
(0.0101149 -0.00175364 0.0191925)
(0.00948196 -0.00121152 0.0245717)
(0.0084413 -0.000863927 0.0315896)
(0.00695085 -0.000696215 0.0402492)
(0.00541703 -0.0012271 0.0498664)
(0.00921032 -0.00926208 -0.00258439)
(0.00891072 -0.0061857 0.0045261)
(0.00912644 -0.00484 0.00592991)
(0.00936692 -0.00391956 0.00779179)
(0.00946257 -0.00323045 0.0104566)
(0.00923941 -0.00267647 0.0141433)
(0.0086061 -0.00221542 0.0189991)
(0.00757864 -0.00190077 0.0254713)
(0.00615153 -0.00175249 0.0338047)
(0.00470144 -0.00234926 0.0421617)
(0.00777352 -0.00874987 -0.00481136)
(0.00780672 -0.00596025 0.00204581)
(0.00829129 -0.00481669 0.00331988)
(0.00879233 -0.004144 0.00478666)
(0.00919359 -0.00371603 0.00652969)
(0.00905562 -0.00331972 0.00985656)
(0.00828619 -0.00287602 0.0147758)
(0.00720227 -0.00261881 0.0211805)
(0.00581789 -0.00257008 0.0291607)
(0.00446659 -0.00332585 0.0365433)
(0.00676624 -0.00821227 -0.00717313)
(0.00703137 -0.00566473 1.6371e-05)
(0.00776226 -0.00467355 0.00133593)
(0.00858277 -0.00423298 0.0025015)
(0.00940814 -0.00411102 0.00368243)
(0.00935555 -0.00380345 0.00576541)
(0.00832093 -0.0033489 0.0117914)
(0.00711566 -0.00316138 0.0184866)
(0.00577186 -0.00326174 0.0262198)
(0.0045071 -0.00422457 0.0328136)
(0.0060996 -0.00764976 -0.00998209)
(0.00654289 -0.00528896 -0.00188043)
(0.00743998 -0.00438499 -0.000153116)
(0.00837454 -0.00401745 0.00126603)
(0.00922748 -0.00399896 0.00300823)
(0.00922942 -0.00385276 0.00513119)
(0.00825873 -0.00356645 0.0105993)
(0.00716302 -0.00355299 0.0171059)
(0.00594259 -0.00384101 0.0245714)
(0.00480291 -0.00503041 0.0305509)
(0.00568784 -0.00702366 -0.0133623)
(0.00629042 -0.00481485 -0.00373969)
(0.00728573 -0.0039663 -0.00122737)
(0.00813094 -0.00358963 0.00102175)
(0.0087123 -0.00353603 0.00322576)
(0.00872783 -0.00351804 0.00659325)
(0.00815681 -0.00357503 0.0111745)
(0.00735641 -0.00383635 0.0169995)
(0.00633531 -0.00434335 0.0241652)
(0.00537409 -0.00578534 0.0296883)
(0.0055096 -0.00638247 -0.0173432)
(0.00627583 -0.00428658 -0.0054896)
(0.00735851 -0.00348375 -0.00205505)
(0.00818683 -0.00314313 0.00097612)
(0.00864925 -0.00311271 0.00421531)
(0.00869979 -0.00327355 0.0080003)
(0.00838007 -0.00359445 0.0125311)
(0.00779813 -0.00409545 0.0182179)
(0.00697254 -0.00482318 0.0252637)
(0.00625051 -0.00651643 0.0304566)
(0.0055069 -0.00578096 -0.0227755)
(0.00645988 -0.00376286 -0.00771521)
(0.00763034 -0.00298656 -0.00283009)
(0.00850523 -0.0027134 0.00121041)
(0.00900005 -0.00279385 0.00542471)
(0.00912859 -0.0031257 0.00987559)
(0.00895486 -0.00366623 0.0147982)
(0.00853728 -0.00439163 0.0207183)
(0.00793762 -0.00537598 0.0275677)
(0.00764722 -0.00735905 0.0325398)
(0.00609301 -0.00554054 -0.040556)
(0.00716289 -0.00329168 -0.0198111)
(0.00856141 -0.00253621 -0.011354)
(0.00962109 -0.00238369 -0.00469453)
(0.0103101 -0.00263808 0.00153287)
(0.0106549 -0.00317387 0.00752919)
(0.0107314 -0.00394462 0.0136225)
(0.0105735 -0.00492722 0.0203513)
(0.0103151 -0.00631419 0.0276587)
(0.0105886 -0.00872598 0.034588)
(0.0174544 -0.013417 -0.00661483)
(0.0164529 -0.00946728 0.00598304)
(0.0162742 -0.00707038 0.0118351)
(0.0161482 -0.005324 0.017985)
(0.0157823 -0.00389107 0.0255036)
(0.0151337 -0.00281839 0.0344809)
(0.0140904 -0.00211551 0.0452657)
(0.0125526 -0.00188555 0.058614)
(0.0104698 -0.00224471 0.074739)
(0.00861118 -0.00424324 0.099636)
(0.0131196 -0.0128401 -0.00332478)
(0.0126189 -0.00944154 0.00779578)
(0.0128339 -0.00770235 0.0116353)
(0.0130646 -0.00632123 0.0159351)
(0.0130645 -0.00516876 0.0215803)
(0.0127197 -0.004302 0.0285421)
(0.011917 -0.00374075 0.0370698)
(0.0105788 -0.0035755 0.0478402)
(0.00865416 -0.00386425 0.060993)
(0.00670493 -0.00551655 0.077986)
(0.0105763 -0.0124479 -0.0072791)
(0.0106747 -0.00950936 0.00304694)
(0.0112612 -0.00809934 0.00629911)
(0.0117738 -0.00698941 0.0100461)
(0.0120451 -0.00611114 0.0148278)
(0.0118753 -0.00542866 0.0210008)
(0.0111558 -0.00495979 0.0286932)
(0.00990231 -0.00484494 0.0386099)
(0.008104 -0.00515121 0.0510429)
(0.00629744 -0.00678986 0.0654748)
(0.00876035 -0.0120031 -0.0118513)
(0.00922987 -0.00938565 -0.00143026)
(0.0101361 -0.00819796 0.00185695)
(0.0110017 -0.00737744 0.00527727)
(0.0117164 -0.00684074 0.00896631)
(0.0117029 -0.00632725 0.01471)
(0.0108518 -0.0058327 0.0222965)
(0.00958208 -0.0057569 0.0319936)
(0.00789519 -0.00615077 0.0437562)
(0.00628027 -0.00790079 0.0562675)
(0.00731153 -0.0113619 -0.0165194)
(0.00805894 -0.00904329 -0.00531081)
(0.00927731 -0.00805631 -0.00175099)
(0.0105691 -0.00756584 0.00152842)
(0.0118828 -0.00748799 0.00482843)
(0.0120326 -0.00706974 0.00856982)
(0.0108683 -0.00644887 0.0176594)
(0.00949055 -0.00639279 0.0275522)
(0.00791888 -0.00692438 0.0387866)
(0.00650429 -0.00886206 0.0497597)
(0.00620869 -0.010583 -0.0217477)
(0.00714904 -0.00849283 -0.00905557)
(0.00857015 -0.0076232 -0.0048091)
(0.0100151 -0.00722818 -0.00108491)
(0.0113903 -0.0072572 0.00324516)
(0.0116885 -0.00703769 0.00711589)
(0.0106721 -0.00660619 0.0152005)
(0.00948552 -0.0067383 0.024789)
(0.00812817 -0.0074645 0.0355182)
(0.0069613 -0.00963509 0.045297)
(0.00540694 -0.00965516 -0.0278306)
(0.00647006 -0.00773977 -0.0128632)
(0.00799005 -0.00692931 -0.00746615)
(0.00934286 -0.00647731 -0.00263491)
(0.0103982 -0.00636617 0.00192259)
(0.0107615 -0.00630026 0.00782089)
(0.0103443 -0.00636463 0.0149092)
(0.00959143 -0.00684652 0.0235882)
(0.00854266 -0.00781474 0.0338065)
(0.00768274 -0.0102596 0.0426691)
(0.0049207 -0.00863457 -0.035017)
(0.00605399 -0.00684965 -0.0168278)
(0.00762686 -0.0060882 -0.0101346)
(0.00896803 -0.00565968 -0.00424981)
(0.00991905 -0.00554426 0.00167838)
(0.0103787 -0.00567863 0.0081601)
(0.0103456 -0.00608828 0.0153708)
(0.00992911 -0.00685202 0.0238734)
(0.00918068 -0.00805314 0.0338322)
(0.00868486 -0.0107571 0.0419909)
(0.0047451 -0.00760026 -0.0446192)
(0.00589294 -0.00590907 -0.02187)
(0.00746784 -0.00518027 -0.0132547)
(0.00884195 -0.00482968 -0.00597953)
(0.00986013 -0.00483633 0.00131095)
(0.0104669 -0.00517084 0.00873308)
(0.0106801 -0.00584023 0.0165626)
(0.0105393 -0.00685231 0.0253699)
(0.0101371 -0.00831768 0.0350521)
(0.0102439 -0.0112842 0.0427091)
(0.00542643 -0.0070987 -0.0725216)
(0.00644362 -0.00521916 -0.0411331)
(0.00808085 -0.0044842 -0.0275258)
(0.00958927 -0.004232 -0.0165392)
(0.0108332 -0.00439953 -0.00633649)
(0.0117434 -0.00494408 0.00336179)
(0.0123418 -0.00586439 0.0129439)
(0.0126246 -0.00715494 0.0230296)
(0.012767 -0.00904956 0.0335099)
(0.0136206 -0.012434 0.0435575)
(0.0161302 -0.00805517 -0.0144217)
(0.016391 -0.00732949 0.00524864)
(0.0170429 -0.00642016 0.0160239)
(0.0172288 -0.00541576 0.0264526)
(0.0167703 -0.00438593 0.038173)
(0.0157138 -0.00359386 0.0515612)
(0.0140466 -0.00322896 0.0672205)
(0.0117728 -0.00351055 0.0861707)
(0.00889448 -0.00469556 0.108861)
(0.00625021 -0.00816267 0.14635)
(0.0135307 -0.00752915 -0.010375)
(0.0140997 -0.00715301 0.00649158)
(0.0149494 -0.00689241 0.0139959)
(0.0153802 -0.0062935 0.0215725)
(0.0152349 -0.00556019 0.0305363)
(0.0144763 -0.00496149 0.0410234)
(0.0130788 -0.00470059 0.0534116)
(0.0110521 -0.0049839 0.0685639)
(0.00842998 -0.00597867 0.0865999)
(0.00588738 -0.00891674 0.112094)
(0.0119421 -0.00719457 -0.0157875)
(0.0128549 -0.00722713 -0.00014552)
(0.0139626 -0.00731126 0.00634489)
(0.0146413 -0.00701434 0.0130102)
(0.0147858 -0.00658184 0.020757)
(0.0142284 -0.00618129 0.030155)
(0.0129306 -0.0060012 0.0413704)
(0.0110159 -0.00630589 0.0552904)
(0.00854913 -0.00725407 0.0722103)
(0.00621561 -0.0100814 0.0934949)
(0.0106311 -0.006754 -0.0220334)
(0.011653 -0.00707861 -0.00656406)
(0.012961 -0.00741019 -0.000235042)
(0.0139893 -0.0074558 0.00593494)
(0.0146512 -0.00743916 0.0122713)
(0.0143038 -0.00726721 0.0210764)
(0.0128875 -0.00707671 0.0319689)
(0.0109957 -0.0074069 0.0454816)
(0.00869359 -0.00839596 0.0613944)
(0.00658419 -0.0112323 0.0795325)
(0.00948612 -0.00606178 -0.0284166)
(0.0105006 -0.00668255 -0.0123135)
(0.0119812 -0.00725066 -0.0058422)
(0.0134432 -0.00768682 0.00018347)
(0.014841 -0.0082345 0.00619623)
(0.0147219 -0.00824281 0.0120664)
(0.0129607 -0.00792766 0.0249005)
(0.0110093 -0.00825689 0.0384195)
(0.00890972 -0.00933309 0.053434)
(0.00707618 -0.0122522 0.069042)
(0.0085824 -0.00519635 -0.0354298)
(0.00948723 -0.00607997 -0.017877)
(0.0110109 -0.0068017 -0.0108032)
(0.0125638 -0.00737164 -0.00439324)
(0.014028 -0.00806889 0.00305342)
(0.0141241 -0.00833795 0.00916149)
(0.0126066 -0.00823266 0.0202986)
(0.010965 -0.00875044 0.0333205)
(0.0092034 -0.009982 0.0474951)
(0.00773172 -0.0130446 0.0610675)
(0.00797897 -0.00415614 -0.0434427)
(0.00868753 -0.00527823 -0.0235101)
(0.0101114 -0.00609192 -0.0153057)
(0.0114368 -0.00661815 -0.0077587)
(0.0124644 -0.00715577 -0.000540224)
(0.0126696 -0.00756834 0.00825543)
(0.0119643 -0.0080097 0.0182379)
(0.0109303 -0.00889795 0.0299901)
(0.0096301 -0.0103414 0.0432843)
(0.00860982 -0.0136076 0.0551914)
(0.0078041 -0.00300208 -0.0528092)
(0.0082251 -0.00430939 -0.0293867)
(0.00947985 -0.00520208 -0.0199488)
(0.0106455 -0.00576262 -0.011384)
(0.011478 -0.00628014 -0.00270668)
(0.0118114 -0.00686682 0.00665012)
(0.0116322 -0.00766507 0.0167633)
(0.0110787 -0.00883136 0.0281519)
(0.010231 -0.0104719 0.0408571)
(0.00973712 -0.0139389 0.0513597)
(0.00832288 -0.0017972 -0.0651473)
(0.00826058 -0.00324271 -0.0366136)
(0.00923024 -0.0041891 -0.0253251)
(0.0102575 -0.00483967 -0.0154126)
(0.011073 -0.00546937 -0.00532251)
(0.0115564 -0.00622883 0.0049791)
(0.0116927 -0.00725944 0.0156741)
(0.0115175 -0.00863756 0.0272652)
(0.0111524 -0.0105134 0.0394176)
(0.0114291 -0.014243 0.0487482)
(0.0107877 -0.000911696 -0.100275)
(0.00984565 -0.00247199 -0.0614495)
(0.0103644 -0.00350305 -0.0447105)
(0.0112052 -0.00423428 -0.0307416)
(0.0120623 -0.00497741 -0.0174235)
(0.0127749 -0.00588361 -0.00457084)
(0.0133027 -0.00709764 0.00808175)
(0.0135997 -0.00869344 0.0210676)
(0.0138442 -0.0110222 0.0340958)
(0.0149225 -0.0152729 0.0456096)
(0.00429214 0.0056039 -0.0356914)
(0.00678618 0.00039692 -0.00346837)
(0.00888216 -0.00223724 0.0156622)
(0.0100024 -0.00359152 0.033023)
(0.0101654 -0.00427523 0.0509166)
(0.00950522 -0.00475949 0.0701146)
(0.00812058 -0.00542126 0.0914791)
(0.00611755 -0.00657327 0.116282)
(0.00357907 -0.00861242 0.145164)
(0.00131486 -0.0132334 0.194307)
(0.00621994 0.00470836 -0.0261754)
(0.00822616 -0.000249787 0.00011722)