/*--------------------------------*- C++ -*----------------------------------*\
| =========                 |                                                 |
| \\      /  F ield         | OpenFOAM: The Open Source CFD Toolbox           |
|  \\    /   O peration     | Version:  2406                                  |
|   \\  /    A nd           | Website:  www.openfoam.com                      |
|    \\/     M anipulation  |                                                 |
\*---------------------------------------------------------------------------*/
FoamFile
{
    version     2.0;
    format      ascii;
    arch        "LSB;label=32;scalar=64";
    class       volScalarField;
    location    "0.9";
    object      p;
}
// * * * * * * * * * * * * * * * * * * * * * * * * * * * * * * * * * * * * * //

dimensions      [0 2 -2 0 0 0 0];

internalField   nonuniform List<scalar> 
25000
(
19.1848
19.1362
19.1049
19.0843
19.0742
19.0742
19.0843
19.1049
19.1361
19.1847
19.1362
19.0816
19.0448
19.0208
19.009
19.009
19.0208
19.0448
19.0815
19.1361
19.105
19.0448
19.0033
18.9762
18.9628
18.9628
18.9761
19.0032
19.0448
19.1049
19.0844
19.0209
18.9762
18.9471
18.9329
18.9328
18.9471
18.9761
19.0208
19.0843
19.0743
19.009
18.9628
18.9329
18.9182
18.9181
18.9328
18.9628
19.009
19.0742
19.0743
19.009
18.9628
18.9329
18.9182
18.9181
18.9328
18.9628
19.009
19.0742
19.0844
19.0209
18.9762
18.9471
18.9329
18.9328
18.9471
18.9761
19.0208
19.0843
19.105
19.0448
19.0033
18.9762
18.9628
18.9628
18.9761
19.0032
19.0448
19.1049
19.1362
19.0816
19.0448
19.0208
19.009
19.009
19.0208
19.0448
19.0815
19.1361
19.1848
19.1362
19.1049
19.0843
19.0742
19.0742
19.0843
19.1049
19.1361
19.1847
17.7127
17.7405
17.7598
17.773
17.7798
17.7798
17.773
17.7597
17.7404
17.7126
17.7405
17.771
17.7926
17.8076
17.8153
17.8153
17.8075
17.7926
17.7709
17.7404
17.7598
17.7927
17.8171
17.8344
17.8435
17.8435
17.8344
17.817
17.7926
17.7597
17.7731
17.8076
17.8344
17.8536
17.8635
17.8635
17.8536
17.8344
17.8075
17.773
17.7799
17.8154
17.8435
17.8635
17.8738
17.8738
17.8635
17.8435
17.8153
17.7798
17.7799
17.8154
17.8435
17.8635
17.8738
17.8738
17.8635
17.8435
17.8153
17.7798
17.7731
17.8076
17.8344
17.8536
17.8635
17.8635
17.8536
17.8344
17.8075
17.773
17.7598
17.7927
17.8171
17.8344
17.8435
17.8435
17.8344
17.8171
17.7926
17.7597
17.7405
17.771
17.7927
17.8076
17.8154
17.8154
17.8076
17.7926
17.771
17.7404
17.7127
17.7405
17.7598
17.7731
17.7799
17.7799
17.773
17.7598
17.7404
17.7126
17.8037
17.8004
17.7987
17.7978
17.7973
17.7973
17.7977
17.7986
17.8003
17.8035
17.8004
17.7973
17.7953
17.7938
17.7931
17.7931
17.7938
17.7952
17.7972
17.8002
17.7988
17.7953
17.7929
17.7913
17.7906
17.7905
17.7912
17.7928
17.7951
17.7986
17.7978
17.7939
17.7913
17.7898
17.7892
17.7892
17.7897
17.7912
17.7937
17.7977
17.7974
17.7932
17.7906
17.7893
17.7889
17.7889
17.7892
17.7905
17.793
17.7972
17.7974
17.7932
17.7906
17.7893
17.7889
17.7889
17.7892
17.7905
17.7931
17.7972
17.7979
17.7939
17.7913
17.7898
17.7892
17.7892
17.7898
17.7912
17.7937
17.7977
17.7988
17.7953
17.7929
17.7913
17.7906
17.7906
17.7913
17.7928
17.7952
17.7986
17.8005
17.7974
17.7953
17.7939
17.7931
17.7931
17.7938
17.7952
17.7972
17.8003
17.8037
17.8004
17.7988
17.7978
17.7973
17.7973
17.7978
17.7987
17.8003
17.8035
17.1079
17.1109
17.1132
17.1149
17.1158
17.1158
17.1148
17.113
17.1107
17.1077
17.111
17.1148
17.1176
17.1196
17.1206
17.1206
17.1195
17.1174
17.1146
17.1107
17.1133
17.1176
17.1208
17.1231
17.1243
17.1243
17.123
17.1207
17.1174
17.113
17.115
17.1197
17.1232
17.1257
17.127
17.1269
17.1256
17.123
17.1194
17.1147
17.116
17.1208
17.1244
17.127
17.1284
17.1284
17.1269
17.1243
17.1205
17.1157
17.116
17.1208
17.1244
17.127
17.1285
17.1284
17.1269
17.1243
17.1206
17.1157
17.1151
17.1197
17.1232
17.1257
17.127
17.127
17.1256
17.123
17.1195
17.1148
17.1134
17.1177
17.1209
17.1232
17.1244
17.1244
17.1231
17.1207
17.1175
17.1131
17.1111
17.115
17.1177
17.1197
17.1207
17.1207
17.1196
17.1175
17.1147
17.1108
17.1081
17.1111
17.1133
17.115
17.1159
17.1159
17.1149
17.1132
17.1109
17.1078
16.8755
16.8741
16.8733
16.8727
16.8724
16.8724
16.8726
16.8731
16.8738
16.8751
16.8742
16.8725
16.8714
16.8705
16.8701
16.87
16.8704
16.8711
16.8722
16.8738
16.8734
16.8714
16.8699
16.8688
16.8683
16.8682
16.8687
16.8697
16.8711
16.873
16.8729
16.8706
16.8689
16.8676
16.8669
16.8669
16.8675
16.8687
16.8703
16.8725
16.8726
16.8703
16.8684
16.867
16.8663
16.8663
16.8669
16.8682
16.8699
16.8723
16.8727
16.8703
16.8684
16.867
16.8663
16.8663
16.8669
16.8682
16.87
16.8723
16.873
16.8707
16.869
16.8677
16.867
16.867
16.8675
16.8687
16.8704
16.8726
16.8735
16.8715
16.87
16.8689
16.8684
16.8683
16.8688
16.8698
16.8712
16.8731
16.8743
16.8727
16.8715
16.8707
16.8702
16.8702
16.8705
16.8713
16.8724
16.8739
16.8757
16.8743
16.8735
16.8729
16.8726
16.8725
16.8728
16.8732
16.874
16.8753
16.4223
16.423
16.4236
16.424
16.4242
16.4242
16.4239
16.4234
16.4228
16.4219
16.4232
16.4242
16.4249
16.4253
16.4256
16.4255
16.4252
16.4246
16.4239
16.4228
16.4238
16.4249
16.4257
16.4262
16.4265
16.4264
16.4261
16.4255
16.4246
16.4234
16.4243
16.4255
16.4263
16.4268
16.4269
16.4269
16.4266
16.4261
16.4252
16.4239
16.4245
16.4258
16.4266
16.427
16.427
16.427
16.4269
16.4264
16.4255
16.4242
16.4246
16.4259
16.4267
16.4271
16.4271
16.427
16.4269
16.4265
16.4255
16.4242
16.4244
16.4256
16.4265
16.4269
16.4271
16.427
16.4268
16.4262
16.4253
16.424
16.424
16.4252
16.426
16.4265
16.4267
16.4266
16.4263
16.4257
16.4248
16.4236
16.4234
16.4245
16.4251
16.4256
16.4258
16.4258
16.4255
16.4249
16.4241
16.423
16.4227
16.4234
16.424
16.4244
16.4246
16.4245
16.4243
16.4238
16.4232
16.4223
16.0914
16.0909
16.0907
16.0904
16.0903
16.0903
16.0903
16.0905
16.0907
16.091
16.0911
16.0905
16.0901
16.0898
16.0896
16.0896
16.0897
16.0899
16.0902
16.0906
16.0909
16.0902
16.0897
16.0893
16.0891
16.089
16.0891
16.0894
16.0899
16.0904
16.0907
16.09
16.0894
16.0889
16.0886
16.0886
16.0888
16.0891
16.0896
16.0903
16.0906
16.0898
16.0892
16.0887
16.0884
16.0884
16.0886
16.089
16.0896
16.0903
16.0906
16.0899
16.0892
16.0887
16.0884
16.0884
16.0886
16.0891
16.0896
16.0903
16.0907
16.09
16.0894
16.089
16.0887
16.0887
16.0889
16.0893
16.0898
16.0904
16.0909
16.0903
16.0898
16.0894
16.0892
16.0892
16.0893
16.0897
16.0901
16.0907
16.0912
16.0907
16.0903
16.09
16.0898
16.0898
16.0899
16.0902
16.0905
16.0909
16.0917
16.0912
16.0909
16.0907
16.0906
16.0906
16.0907
16.0908
16.0911
16.0914
15.7027
15.7028
15.7029
15.703
15.7031
15.7031
15.703
15.7028
15.7026
15.7023
15.703
15.7031
15.7033
15.7034
15.7035
15.7034
15.7033
15.7032
15.7029
15.7026
15.7031
15.7033
15.7036
15.7037
15.7037
15.7037
15.7036
15.7034
15.7032
15.7028
15.7032
15.7035
15.7037
15.7038
15.7039
15.7038
15.7038
15.7036
15.7033
15.703
15.7032
15.7035
15.7038
15.7039
15.7039
15.7039
15.7038
15.7037
15.7034
15.7031
15.7032
15.7035
15.7038
15.7039
15.7039
15.7039
15.7039
15.7037
15.7035
15.7031
15.7031
15.7034
15.7037
15.7038
15.7039
15.7039
15.7038
15.7037
15.7035
15.7031
15.7029
15.7033
15.7035
15.7037
15.7038
15.7038
15.7037
15.7036
15.7033
15.703
15.7028
15.7031
15.7033
15.7035
15.7036
15.7036
15.7035
15.7034
15.7032
15.7028
15.7026
15.7028
15.703
15.7031
15.7032
15.7032
15.7032
15.7031
15.703
15.7027
15.346
15.3459
15.3458
15.3457
15.3457
15.3457
15.3457
15.3458
15.3458
15.3459
15.3459
15.3457
15.3456
15.3455
15.3455
15.3455
15.3455
15.3456
15.3457
15.3458
15.3457
15.3456
15.3454
15.3453
15.3453
15.3453
15.3453
15.3454
15.3456
15.3458
15.3456
15.3454
15.3453
15.3452
15.3451
15.3451
15.3452
15.3453
15.3455
15.3457
15.3455
15.3453
15.3452
15.3451
15.345
15.3451
15.3451
15.3453
15.3454
15.3457
15.3454
15.3452
15.3451
15.345
15.345
15.345
15.3451
15.3453
15.3454
15.3457
15.3454
15.3452
15.3451
15.345
15.345
15.3451
15.3452
15.3453
15.3455
15.3457
15.3454
15.3452
15.3451
15.3451
15.3451
15.3451
15.3452
15.3454
15.3455
15.3457
15.3454
15.3453
15.3452
15.3452
15.3452
15.3453
15.3454
15.3455
15.3456
15.3457
15.3454
15.3453
15.3453
15.3453
15.3454
15.3454
15.3455
15.3457
15.3458
15.3459
14.974
14.9741
14.9741
14.9742
14.9743
14.9744
14.9744
14.9744
14.9744
14.9744
14.9738
14.974
14.9741
14.9742
14.9743
14.9744
14.9745
14.9745
14.9745
14.9745
14.9738
14.974
14.9741
14.9742
14.9743
14.9744
14.9745
14.9745
14.9745
14.9745
14.9738
14.974
14.9741
14.9742
14.9743
14.9744
14.9745
14.9745
14.9745
14.9745
14.9737
14.9739
14.974
14.9741
14.9742
14.9743
14.9744
14.9745
14.9745
14.9745
14.9736
14.9738
14.9739
14.9741
14.9742
14.9743
14.9744
14.9744
14.9745
14.9744
14.9735
14.9737
14.9738
14.974
14.9741
14.9742
14.9743
14.9744
14.9744
14.9744
14.9734
14.9735
14.9737
14.9738
14.974
14.9741
14.9742
14.9743
14.9743
14.9743
14.9733
14.9734
14.9735
14.9737
14.9738
14.974
14.9741
14.9741
14.9742
14.9742
14.9731
14.9731
14.9733
14.9735
14.9737
14.9738
14.9739
14.974
14.9741
14.9741
14.6104
14.6106
14.6106
14.6107
14.6108
14.6109
14.611
14.6112
14.6112
14.6115
14.6101
14.6103
14.6104
14.6105
14.6107
14.6108
14.611
14.6111
14.6113
14.6115
14.61
14.6102
14.6103
14.6104
14.6105
14.6107
14.6108
14.611
14.6112
14.6114
14.6099
14.6101
14.6102
14.6103
14.6104
14.6106
14.6107
14.6109
14.6111
14.6113
14.6099
14.6099
14.61
14.6102
14.6103
14.6105
14.6106
14.6108
14.611
14.6112
14.6098
14.6098
14.6099
14.61
14.6102
14.6104
14.6105
14.6107
14.6109
14.6111
14.6097
14.6097
14.6098
14.6099
14.6101
14.6103
14.6105
14.6107
14.6109
14.611
14.6096
14.6096
14.6097
14.6099
14.61
14.6102
14.6104
14.6106
14.6108
14.611
14.6096
14.6095
14.6097
14.6098
14.61
14.6102
14.6104
14.6106
14.6108
14.6109
14.6093
14.6094
14.6096
14.6097
14.6099
14.6102
14.6104
14.6106
14.6108
14.6109
14.2428
14.2432
14.2433
14.2434
14.2436
14.2437
14.2438
14.2439
14.244
14.2443
14.2425
14.2429
14.2431
14.2433
14.2435
14.2437
14.2439
14.244
14.2441
14.2444
14.2425
14.2428
14.243
14.2432
14.2434
14.2436
14.2438
14.244
14.2441
14.2443
14.2425
14.2428
14.243
14.2432
14.2434
14.2436
14.2437
14.2439
14.2441
14.2442
14.2425
14.2427
14.2429
14.2431
14.2433
14.2435
14.2437
14.2439
14.244
14.2441
14.2424
14.2426
14.2428
14.243
14.2432
14.2434
14.2436
14.2438
14.2439
14.2441
14.2424
14.2425
14.2427
14.2429
14.2431
14.2433
14.2435
14.2437
14.2439
14.244
14.2423
14.2424
14.2426
14.2428
14.243
14.2432
14.2435
14.2436
14.2438
14.2439
14.2422
14.2424
14.2425
14.2427
14.2429
14.2432
14.2434
14.2435
14.2437
14.2439
14.2421
14.2422
14.2424
14.2426
14.2428
14.2431
14.2433
14.2435
14.2436
14.2438
13.8779
13.8782
13.8783
13.8784
13.8785
13.8786
13.8786
13.8787
13.8788
13.8791
13.8776
13.8779
13.8781
13.8782
13.8784
13.8785
13.8787
13.8788
13.879
13.8792
13.8776
13.8778
13.878
13.8782
13.8783
13.8785
13.8786
13.8788
13.8789
13.8791
13.8776
13.8778
13.8779
13.8781
13.8782
13.8784
13.8786
13.8787
13.8789
13.8791
13.8776
13.8777
13.8779
13.878
13.8782
13.8783
13.8785
13.8787
13.8788
13.879
13.8776
13.8777
13.8778
13.878
13.8782
13.8783
13.8785
13.8786
13.8788
13.8789
13.8776
13.8777
13.8778
13.8779
13.8781
13.8783
13.8784
13.8786
13.8787
13.8789
13.8776
13.8777
13.8778
13.8779
13.878
13.8782
13.8784
13.8785
13.8787
13.8788
13.8776
13.8776
13.8777
13.8779
13.878
13.8782
13.8783
13.8785
13.8786
13.8788
13.8775
13.8776
13.8778
13.8779
13.878
13.8781
13.8783
13.8784
13.8786
13.8788
13.512
13.5122
13.5122
13.5123
13.5123
13.5124
13.5124
13.5124
13.5124
13.5126
13.5119
13.5121
13.5122
13.5122
13.5123
13.5124
13.5125
13.5125
13.5126
13.5127
13.5119
13.512
13.5121
13.5122
13.5123
13.5124
13.5125
13.5126
13.5126
13.5127
13.5119
13.512
13.5121
13.5122
13.5123
13.5124
13.5125
13.5125
13.5126
13.5127
13.512
13.512
13.5121
13.5122
13.5123
13.5124
13.5124
13.5125
13.5126
13.5126
13.512
13.5121
13.5121
13.5122
13.5123
13.5124
13.5124
13.5125
13.5126
13.5126
13.5121
13.5121
13.5122
13.5122
13.5123
13.5124
13.5124
13.5125
13.5125
13.5125
13.5121
13.5121
13.5122
13.5122
13.5123
13.5123
13.5124
13.5124
13.5125
13.5125
13.5122
13.5122
13.5122
13.5122
13.5123
13.5123
13.5123
13.5124
13.5124
13.5124
13.5122
13.5122
13.5123
13.5123
13.5123
13.5123
13.5123
13.5123
13.5124
13.5124
13.1471
13.1471
13.1471
13.1471
13.147
13.147
13.1469
13.1469
13.1469
13.1469
13.1471
13.1471
13.1471
13.147
13.147
13.147
13.147
13.1469
13.1469
13.1469
13.1471
13.1471
13.1471
13.147
13.147
13.147
13.147
13.147
13.1469
13.1469
13.1471
13.1471
13.1471
13.1471
13.147
13.147
13.147
13.1469
13.1469
13.1469
13.1472
13.1472
13.1471
13.1471
13.147
13.147
13.1469
13.1469
13.1469
13.1468
13.1473
13.1472
13.1471
13.1471
13.1471
13.147
13.1469
13.1469
13.1468
13.1468
13.1473
13.1473
13.1472
13.1471
13.1471
13.147
13.1469
13.1468
13.1468
13.1467
13.1474
13.1473
13.1472
13.1472
13.1471
13.147
13.1469
13.1468
13.1467
13.1466
13.1475
13.1474
13.1473
13.1472
13.1471
13.147
13.1469
13.1468
13.1467
13.1466
13.1475
13.1474
13.1473
13.1472
13.1471
13.147
13.1469
13.1468
13.1467
13.1465
12.7816
12.7815
12.7815
12.7814
12.7814
12.7813
12.7813
12.7812
12.7812
12.7812
12.7817
12.7816
12.7815
12.7815
12.7814
12.7813
12.7813
12.7812
12.7811
12.781
12.7818
12.7817
12.7816
12.7815
12.7814
12.7813
12.7813
12.7812
12.7811
12.781
12.7818
12.7817
12.7816
12.7815
12.7814
12.7813
12.7812
12.7812
12.7811
12.781
12.7819
12.7818
12.7817
12.7816
12.7814
12.7813
12.7812
12.7811
12.781
12.7809
12.7819
12.7818
12.7817
12.7816
12.7815
12.7813
12.7812
12.7811
12.7809
12.7808
12.782
12.7819
12.7818
12.7816
12.7815
12.7813
12.7812
12.781
12.7809
12.7807
12.7821
12.782
12.7818
12.7817
12.7815
12.7813
12.7811
12.781
12.7808
12.7806
12.7822
12.782
12.7818
12.7817
12.7815
12.7813
12.7811
12.781
12.7808
12.7805
12.7822
12.782
12.7818
12.7817
12.7815
12.7813
12.7812
12.781
12.7808
12.7805
12.4163
12.4162
12.4161
12.4161
12.4161
12.416
12.416
12.416
12.4161
12.416
12.4163
12.4163
12.4162
12.4161
12.4161
12.416
12.416
12.4159
12.4159
12.4158
12.4164
12.4163
12.4162
12.4162
12.4161
12.416
12.4159
12.4159
12.4158
12.4157
12.4165
12.4164
12.4163
12.4162
12.4161
12.416
12.4159
12.4158
12.4157
12.4156
12.4165
12.4164
12.4163
12.4162
12.4161
12.416
12.4159
12.4158
12.4157
12.4156
12.4166
12.4165
12.4163
12.4162
12.4161
12.416
12.4158
12.4157
12.4156
12.4155
12.4166
12.4165
12.4164
12.4162
12.4161
12.4159
12.4158
12.4156
12.4155
12.4154
12.4167
12.4165
12.4164
12.4162
12.4161
12.4159
12.4158
12.4156
12.4154
12.4153
12.4168
12.4165
12.4164
12.4162
12.4161
12.4159
12.4157
12.4156
12.4154
12.4152
12.4167
12.4164
12.4163
12.4162
12.4161
12.4159
12.4158
12.4156
12.4154
12.4152
12.0503
12.0504
12.0504
12.0504
12.0505
12.0505
12.0506
12.0506
12.0507
12.0507
12.0504
12.0504
12.0504
12.0504
12.0505
12.0505
12.0505
12.0506
12.0506
12.0506
12.0505
12.0505
12.0505
12.0505
12.0505
12.0505
12.0505
12.0505
12.0505
12.0505
12.0506
12.0506
12.0505
12.0505
12.0505
12.0505
12.0505
12.0505
12.0505
12.0504
12.0506
12.0506
12.0506
12.0506
12.0505
12.0505
12.0505
12.0505
12.0504
12.0504
12.0507
12.0507
12.0506
12.0506
12.0506
12.0505
12.0505
12.0504
12.0504
12.0504
12.0508
12.0507
12.0507
12.0506
12.0506
12.0505
12.0505
12.0504
12.0504
12.0503
12.0508
12.0507
12.0507
12.0506
12.0506
12.0505
12.0505
12.0504
12.0504
12.0503
12.0508
12.0507
12.0507
12.0506
12.0506
12.0505
12.0505
12.0504
12.0504
12.0504
12.0508
12.0506
12.0506
12.0506
12.0506
12.0506
12.0505
12.0505
12.0504
12.0503
11.6845
11.6847
11.6847
11.6848
11.6849
11.685
11.6851
11.6851
11.6852
11.6854
11.6845
11.6847
11.6848
11.6848
11.6849
11.685
11.6851
11.6852
11.6853
11.6854
11.6846
11.6847
11.6848
11.6849
11.685
11.6851
11.6851
11.6852
11.6853
11.6854
11.6847
11.6848
11.6849
11.6849
11.685
11.6851
11.6852
11.6853
11.6853
11.6854
11.6848
11.6849
11.6849
11.685
11.6851
11.6852
11.6852
11.6853
11.6854
11.6854
11.6849
11.685
11.685
11.6851
11.6852
11.6852
11.6853
11.6854
11.6854
11.6855
11.685
11.685
11.6851
11.6851
11.6852
11.6853
11.6853
11.6854
11.6855
11.6856
11.685
11.685
11.6851
11.6852
11.6852
11.6853
11.6854
11.6855
11.6856
11.6857
11.685
11.6851
11.6851
11.6852
11.6853
11.6854
11.6855
11.6855
11.6856
11.6858
11.685
11.6851
11.6852
11.6852
11.6853
11.6854
11.6855
11.6856
11.6856
11.6857
11.3187
11.3189
11.319
11.3191
11.3191
11.3192
11.3193
11.3193
11.3194
11.3196
11.3188
11.3189
11.319
11.3191
11.3192
11.3193
11.3194
11.3195
11.3196
11.3198
11.3189
11.319
11.3191
11.3192
11.3193
11.3194
11.3195
11.3196
11.3197
11.3199
11.319
11.3191
11.3192
11.3193
11.3194
11.3195
11.3196
11.3197
11.3199
11.32
11.319
11.3191
11.3193
11.3194
11.3195
11.3196
11.3197
11.3199
11.32
11.3201
11.3191
11.3192
11.3193
11.3195
11.3196
11.3197
11.3198
11.32
11.3201
11.3202
11.3192
11.3193
11.3194
11.3196
11.3197
11.3198
11.32
11.3201
11.3202
11.3203
11.3192
11.3194
11.3195
11.3196
11.3198
11.3199
11.3201
11.3202
11.3203
11.3205
11.3192
11.3194
11.3196
11.3197
11.3199
11.32
11.3202
11.3203
11.3204
11.3207
11.3194
11.3196
11.3197
11.3198
11.32
11.3201
11.3202
11.3204
11.3204
11.3207
10.9538
10.9538
10.9538
10.9538
10.9538
10.9538
10.9538
10.9538
10.9538
10.954
10.9538
10.9538
10.9538
10.9539
10.9539
10.9539
10.9539
10.954
10.954
10.9541
10.9538
10.9538
10.9539
10.9539
10.9539
10.954
10.954
10.9541
10.9542
10.9542
10.9538
10.9539
10.9539
10.954
10.954
10.9541
10.9541
10.9542
10.9543
10.9544
10.9538
10.9539
10.954
10.954
10.9541
10.9541
10.9542
10.9543
10.9544
10.9545
10.9538
10.9539
10.954
10.9541
10.9542
10.9542
10.9543
10.9544
10.9545
10.9546
10.9538
10.954
10.9541
10.9542
10.9543
10.9543
10.9544
10.9545
10.9546
10.9547
10.9539
10.954
10.9541
10.9542
10.9543
10.9544
10.9545
10.9546
10.9547
10.9548
10.9538
10.9541
10.9542
10.9543
10.9544
10.9545
10.9546
10.9547
10.9548
10.955
10.954
10.9543
10.9544
10.9545
10.9545
10.9546
10.9547
10.9547
10.9547
10.955
10.589
10.5888
10.5887
10.5886
10.5885
10.5884
10.5883
10.5883
10.5883
10.5882
10.589
10.5888
10.5887
10.5886
10.5885
10.5884
10.5884
10.5883
10.5883
10.5881
10.5889
10.5888
10.5887
10.5886
10.5886
10.5885
10.5884
10.5884
10.5883
10.5883
10.5888
10.5887
10.5887
10.5886
10.5886
10.5885
10.5885
10.5884
10.5884
10.5884
10.5887
10.5887
10.5886
10.5886
10.5886
10.5885
10.5885
10.5885
10.5885
10.5884
10.5886
10.5886
10.5886
10.5886
10.5886
10.5886
10.5885
10.5885
10.5885
10.5885
10.5886
10.5886
10.5886
10.5886
10.5886
10.5886
10.5886
10.5886
10.5885
10.5885
10.5885
10.5886
10.5886
10.5886
10.5886
10.5886
10.5886
10.5886
10.5886
10.5886
10.5885
10.5886
10.5886
10.5887
10.5887
10.5887
10.5886
10.5886
10.5886
10.5887
10.5885
10.5887
10.5887
10.5887
10.5887
10.5887
10.5886
10.5886
10.5885
10.5886
10.2243
10.2239
10.2238
10.2236
10.2234
10.2232
10.2231
10.223
10.223
10.2226
10.2242
10.2239
10.2237
10.2235
10.2233
10.2232
10.223
10.2228
10.2227
10.2223
10.2241
10.2238
10.2237
10.2235
10.2233
10.2231
10.2229
10.2228
10.2226
10.2224
10.2239
10.2237
10.2236
10.2234
10.2232
10.223
10.2229
10.2227
10.2226
10.2224
10.2237
10.2236
10.2234
10.2233
10.2231
10.223
10.2228
10.2227
10.2226
10.2224
10.2236
10.2235
10.2233
10.2232
10.2231
10.2229
10.2228
10.2227
10.2225
10.2224
10.2234
10.2233
10.2232
10.2231
10.223
10.2229
10.2227
10.2226
10.2225
10.2224
10.2233
10.2233
10.2232
10.2231
10.223
10.2228
10.2227
10.2226
10.2224
10.2224
10.2232
10.2232
10.2231
10.223
10.2229
10.2228
10.2227
10.2225
10.2224
10.2224
10.2231
10.2231
10.2231
10.223
10.2229
10.2227
10.2226
10.2224
10.2222
10.2222
9.85871
9.85836
9.85816
9.85797
9.85779
9.85763
9.85751
9.85739
9.85735
9.85687
9.85862
9.85836
9.85816
9.85795
9.85774
9.85752
9.85733
9.85714
9.85694
9.85645
9.8585
9.85829
9.8581
9.85789
9.85766
9.85743
9.85722
9.85703
9.85683
9.85649
9.85837
9.85819
9.85801
9.85779
9.85756
9.85734
9.85713
9.85694
9.85675
9.85649
9.85824
9.85808
9.85789
9.85769
9.85747
9.85726
9.85707
9.85687
9.85669
9.8565
9.85811
9.85796
9.85778
9.85759
9.85741
9.85721
9.85701
9.8568
9.85663
9.85649
9.858
9.85784
9.85768
9.8575
9.85733
9.85714
9.85694
9.85674
9.85657
9.85649
9.8579
9.85773
9.85757
9.85741
9.85724
9.85706
9.85687
9.85668
9.85652
9.85647
9.8578
9.85762
9.85748
9.85733
9.85717
9.857
9.85681
9.85664
9.85648
9.85651
9.85756
9.85744
9.85736
9.85724
9.8571
9.85694
9.85674
9.85654
9.85629
9.85628
9.49246
9.4922
9.49208
9.49194
9.4918
9.49167
9.49157
9.49146
9.49141
9.49099
9.49247
9.49229
9.49215
9.49198
9.4918
9.49162
9.49144
9.49126
9.49108
9.49065
9.49246
9.49232
9.49217
9.49199
9.49179
9.49158
9.49139
9.4912
9.49102
9.49071
9.49247
9.49233
9.49217
9.49198
9.49176
9.49155
9.49135
9.49117
9.49099
9.49075
9.49248
9.49234
9.49217
9.49196
9.49175
9.49155
9.49135
9.49116
9.49098
9.49082
9.49249
9.49234
9.49216
9.49196
9.49177
9.49158
9.49137
9.49116
9.491
9.49088
9.4925
9.49234
9.49216
9.49196
9.49177
9.49158
9.49137
9.49117
9.49101
9.49096
9.49249
9.49232
9.49214
9.49195
9.49176
9.49157
9.49137
9.49118
9.49104
9.49103
9.49244
9.49228
9.4921
9.49193
9.49175
9.49156
9.49138
9.49121
9.49107
9.49114
9.49231
9.49219
9.49205
9.4919
9.49173
9.49156
9.49137
9.49118
9.49095
9.49097
9.1256
9.12533
9.12535
9.1253
9.12523
9.12512
9.12502
9.12491
9.12487
9.12452
9.12594
9.1257
9.12562
9.1255
9.12536
9.12521
9.12505
9.12489
9.12475
9.12442
9.12605
9.1259
9.1258
9.12567
9.12551
9.12533
9.12516
9.12499
9.12485
9.12463
9.12624
9.12612
9.126
9.12585
9.12567
9.12549
9.12531
9.12513
9.12498
9.1248
9.12647
9.12636
9.12621
9.12604
9.12585
9.12567
9.12548
9.1253
9.12515
9.12502
9.12672
9.12661
9.12644
9.12624
9.12605
9.12587
9.12567
9.12548
9.12532
9.12523
9.12695
9.12685
9.12667
9.12646
9.12625
9.12605
9.12584
9.12565
9.1255
9.12545
9.12715
9.12705
9.12687
9.12665
9.12643
9.12621
9.126
9.12581
9.12566
9.12564
9.12727
9.12722
9.12703
9.12681
9.12658
9.12636
9.12615
9.12597
9.12582
9.12584
9.12754
9.12746
9.12721
9.12696
9.12671
9.12648
9.12626
9.12606
9.12585
9.12583
8.75904
8.75851
8.75865
8.75865
8.7586
8.75848
8.75836
8.75821
8.75812
8.75772
8.75989
8.75933
8.7592
8.75907
8.75891
8.75873
8.75854
8.75836
8.75822
8.75793
8.76004
8.7597
8.75956
8.75941
8.75924
8.75905
8.75884
8.75865
8.75851
8.75833
8.76036
8.76012
8.75997
8.7598
8.75962
8.75942
8.75921
8.759
8.75884
8.75869
8.76074
8.76058
8.76041
8.7602
8.76
8.75982
8.75959
8.75938
8.75921
8.75909
8.76118
8.76107
8.76088
8.76063
8.76039
8.76019
8.75997
8.75975
8.75958
8.75947
8.76161
8.76155
8.76135
8.76108
8.76081
8.76056
8.76033
8.76011
8.75994
8.75983
8.76202
8.762
8.76179
8.76151
8.76121
8.76093
8.76067
8.76044
8.76026
8.76013
8.76234
8.7624
8.76217
8.76188
8.76157
8.76126
8.76098
8.76074
8.76055
8.76038
8.76316
8.76305
8.76264
8.76225
8.76188
8.76154
8.76124
8.761
8.76082
8.76061
8.39314
8.39223
8.39238
8.39236
8.39232
8.3922
8.39206
8.39188
8.39173
8.39124
8.39434
8.39338
8.39314
8.39293
8.39274
8.39252
8.39231
8.3921
8.39195
8.39169
8.39442
8.39384
8.3936
8.39338
8.39318
8.39295
8.39271
8.39249
8.39233
8.39218
8.39472
8.39431
8.39408
8.39386
8.39367
8.39347
8.39321
8.39297
8.3928
8.39267
8.39505
8.39481
8.39459
8.39435
8.39415
8.39398
8.39373
8.39348
8.3933
8.39317
8.39546
8.39535
8.39514
8.39487
8.39461
8.39442
8.39421
8.39398
8.3938
8.39366
8.39588
8.39589
8.39571
8.39544
8.39514
8.39488
8.39467
8.39445
8.39426
8.39407
8.39635
8.39642
8.39626
8.39599
8.39568
8.39538
8.39513
8.39489
8.39469
8.39442
8.39678
8.39691
8.39674
8.39646
8.39614
8.39582
8.39554
8.39528
8.39506
8.39462
8.39783
8.39768
8.39729
8.39693
8.39654
8.39619
8.39592
8.3957
8.39563
8.39517
8.02798
8.02697
8.02701
8.02692
8.02691
8.02685
8.02677
8.02662
8.02644
8.02601
8.02895
8.02796
8.02765
8.02742
8.02724
8.02708
8.02692
8.02676
8.02666
8.02654
8.02889
8.02827
8.02799
8.02777
8.02759
8.02742
8.02722
8.02705
8.02695
8.02691
8.029
8.02856
8.02832
8.02811
8.02797
8.02783
8.02763
8.02744
8.02733
8.02729
8.02904
8.02882
8.02863
8.02843
8.02831
8.02823
8.02806
8.02787
8.02775
8.02769
8.02914
8.0291
8.02896
8.02877
8.02859
8.02852
8.02843
8.02829
8.02817
8.02807
8.02929
8.02939
8.02933
8.02917
8.029
8.02887
8.02878
8.02867
8.02856
8.02838
8.02954
8.0297
8.02969
8.02958
8.02942
8.02927
8.02915
8.02904
8.02893
8.02863
8.02983
8.02998
8.03
8.02991
8.02977
8.02962
8.02949
8.02936
8.02925
8.02869
8.0305
8.03037
8.03029
8.03019
8.03005
8.02992
8.02985
8.02982
8.02996
8.02943
7.66271
7.66221
7.66218
7.66212
7.6622
7.66232
7.66241
7.66244
7.66236
7.66227
7.66289
7.66246
7.66233
7.66225
7.66226
7.66231
7.66237
7.66241
7.66248
7.66268
7.6627
7.66245
7.66235
7.6623
7.66232
7.66236
7.66239
7.66242
7.6625
7.66269
7.66254
7.66239
7.66234
7.66232
7.66238
7.66246
7.66248
7.66251
7.66258
7.66274
7.66227
7.66226
7.66226
7.66228
7.66237
7.66253
7.66258
7.66262
7.66268
7.66279
7.66199
7.6621
7.66218
7.66222
7.66229
7.66248
7.66263
7.66271
7.66279
7.66285
7.66176
7.66196
7.66212
7.66223
7.66234
7.6625
7.66267
7.6628
7.66289
7.66286
7.66163
7.66186
7.66209
7.66226
7.66242
7.66258
7.66274
7.66288
7.66299
7.66287
7.66163
7.66175
7.66203
7.66226
7.66245
7.66263
7.6628
7.66294
7.66306
7.6627
7.6615
7.66146
7.66182
7.66214
7.66243
7.66267
7.66295
7.66319
7.66359
7.6633
7.29684
7.2973
7.29734
7.29748
7.29776
7.29813
7.29849
7.29881
7.29897
7.29943
7.29602
7.29656
7.29681
7.29708
7.29743
7.29782
7.29821
7.29857
7.29891
7.29952
7.29575
7.29616
7.29644
7.29674
7.29709
7.29748
7.29786
7.29821
7.29856
7.29904
7.2954
7.29574
7.29604
7.29636
7.29673
7.29712
7.2975
7.29785
7.29819
7.29861
7.29493
7.29524
7.29556
7.2959
7.2963
7.29675
7.29713
7.29749
7.29782
7.29816
7.2944
7.2947
7.29505
7.29541
7.29581
7.29629
7.29674
7.29712
7.29746
7.29774
7.29391
7.29418
7.29456
7.29497
7.29542
7.29589
7.29636
7.29676
7.29711
7.29733
7.29347
7.2937
7.29411
7.29456
7.29504
7.29553
7.296
7.29642
7.29679
7.29698
7.29318
7.29324
7.29368
7.29417
7.29469
7.29519
7.29567
7.2961
7.29648
7.29655
7.29234
7.29238
7.29304
7.29367
7.29431
7.2949
7.29546
7.29595
7.29652
7.29666
6.93057
6.93203
6.93228
6.93271
6.93321
6.93382
6.93443
6.93505
6.93551
6.9365
6.92899
6.93047
6.93116
6.93182
6.93252
6.93325
6.93397
6.93465
6.93525
6.93616
6.9287
6.92976
6.93045
6.93113
6.93184
6.93257
6.93331
6.93399
6.93459
6.9353
6.92827
6.92909
6.92975
6.93043
6.93112
6.93182
6.93254
6.93323
6.93384
6.93445
6.92779
6.9284
6.92902
6.92969
6.93038
6.93108
6.93176
6.93243
6.93303
6.93356
6.92723
6.92768
6.92825
6.92891
6.92961
6.93032
6.931
6.93165
6.93223
6.93272
6.92668
6.92697
6.9275
6.92815
6.92886
6.92958
6.93026
6.93089
6.93146
6.93194
6.9261
6.92631
6.92681
6.92744
6.92814
6.92886
6.92954
6.93017
6.93075
6.93127
6.92564
6.9257
6.92618
6.9268
6.9275
6.92821
6.92889
6.92951
6.9301
6.93064
6.92453
6.9247
6.9254
6.92613
6.92691
6.92766
6.92836
6.92895
6.92953
6.9301
6.56428
6.56621
6.56666
6.56729
6.56786
6.56851
6.56919
6.5699
6.57054
6.5717
6.5625
6.56437
6.56529
6.56616
6.567
6.56784
6.56868
6.56946
6.57014
6.57102
6.56218
6.56351
6.56441
6.56528
6.56614
6.56701
6.5679
6.56872
6.56941
6.5701
6.56172
6.56275
6.56358
6.56443
6.56525
6.56608
6.56696
6.56779
6.5685
6.56912
6.56132
6.56204
6.56279
6.56361
6.56441
6.56517
6.56597
6.56679
6.56749
6.56809
6.56086
6.56133
6.56198
6.56276
6.56357
6.56432
6.56505
6.56581
6.56649
6.56708
6.56037
6.56064
6.56118
6.56189
6.56268
6.56345
6.56417
6.56487
6.56553
6.56618
6.55981
6.55999
6.56045
6.56109
6.56183
6.56258
6.5633
6.56399
6.56464
6.56539
6.55928
6.55941
6.55982
6.56041
6.5611
6.56182
6.56253
6.56319
6.56383
6.56479
6.55834
6.55869
6.5592
6.5598
6.56049
6.56119
6.56181
6.56235
6.56275
6.5637
6.19843
6.19995
6.20043
6.201
6.20142
6.20186
6.20231
6.20284
6.20339
6.20413
6.19712
6.19856
6.19934
6.20007
6.20071
6.20133
6.20194
6.20252
6.20298
6.20338
6.19678
6.19782
6.19857
6.1993
6.19998
6.20065
6.20134
6.20198
6.20248
6.20284
6.19636
6.19718
6.19787
6.19857
6.19921
6.19986
6.20057
6.20125
6.2018
6.20218
6.19607
6.19663
6.19724
6.19791
6.19854
6.19909
6.19975
6.20043
6.20101
6.20145
6.19577
6.19612
6.19662
6.19726
6.19792
6.19845
6.199
6.19963
6.2002
6.20071
6.19544
6.19563
6.19601
6.19656
6.19718
6.19775
6.19829
6.19887
6.19942
6.20007
6.19504
6.19517
6.19545
6.19592
6.19647
6.19704
6.1976
6.19815
6.19869
6.19949
6.19457
6.1948
6.19502
6.19541
6.1959
6.19644
6.19697
6.19749
6.19802
6.19917
6.19411
6.1946
6.19479
6.1951
6.19549
6.19593
6.1963
6.19664
6.19677
6.19788
5.83225
5.83265
5.83291
5.83318
5.8333
5.83334
5.83341
5.83352
5.83375
5.8337
5.83193
5.83228
5.83258
5.83286
5.83304
5.83317
5.8333
5.83341
5.83344
5.83311
5.83168
5.83196
5.83224
5.83251
5.83272
5.83291
5.83311
5.83329
5.83337
5.83317
5.83141
5.83166
5.83192
5.83217
5.83237
5.83256
5.83281
5.83305
5.83319
5.83312
5.83129
5.83145
5.83166
5.83192
5.83211
5.83222
5.83247
5.83273
5.83293
5.83302
5.83121
5.83129
5.83144
5.83168
5.83192
5.83202
5.83217
5.83242
5.83264
5.83286
5.8311
5.83113
5.83121
5.83139
5.83159
5.83176
5.83191
5.83213
5.83237
5.83276
5.83095
5.83099
5.831
5.83111
5.83128
5.83145
5.83163
5.83184
5.83208
5.83263
5.83068
5.83093
5.83089
5.83094
5.83106
5.83121
5.83137
5.83157
5.8318
5.83274
5.8308
5.83129
5.8311
5.83102
5.83098
5.83099
5.83098
5.83101
5.83084
5.83177
5.46592
5.46512
5.46498
5.46484
5.46462
5.46433
5.46404
5.46374
5.46358
5.46288
5.46662
5.46582
5.46549
5.46521
5.46489
5.46453
5.46417
5.46381
5.46342
5.46255
5.46666
5.46606
5.46573
5.46543
5.46509
5.46474
5.46439
5.46406
5.46369
5.46304
5.4667
5.46625
5.46593
5.46562
5.46528
5.46493
5.46461
5.46431
5.46398
5.46348
5.46681
5.46647
5.46617
5.46587
5.46552
5.46512
5.46483
5.46456
5.46428
5.46395
5.46699
5.46672
5.46642
5.46613
5.46583
5.46542
5.46508
5.46481
5.46456
5.46437
5.46716
5.46696
5.46666
5.46635
5.46602
5.46567
5.46533
5.46505
5.46483
5.46478
5.46733
5.4672
5.46688
5.46655
5.46621
5.46587
5.46554
5.46528
5.46506
5.4651
5.46737
5.46747
5.46714
5.46679
5.46642
5.46607
5.46574
5.46548
5.46526
5.46557
5.46794
5.46821
5.4677
5.46722
5.4667
5.46623
5.46578
5.46543
5.46497
5.46529
5.09888
5.09743
5.0969
5.09638
5.09592
5.09542
5.09492
5.09437
5.09391
5.09304
5.10034
5.09887
5.09802
5.09728
5.09658
5.09588
5.09521
5.09455
5.09391
5.09296
5.10088
5.09969
5.09882
5.09802
5.09724
5.09646
5.0957
5.09498
5.09431
5.09349
5.10141
5.10041
5.09957
5.09874
5.09793
5.09711
5.0963
5.09554
5.09483
5.09409
5.10188
5.10109
5.1003
5.09947
5.09863
5.09777
5.09696
5.09616
5.09545
5.09478
5.10239
5.10177
5.10103
5.1002
5.09937
5.09848
5.09762
5.09681
5.09609
5.09547
5.10288
5.10241
5.10172
5.10092
5.10004
5.09914
5.09827
5.09745
5.09672
5.09612
5.1034
5.10301
5.10236
5.10157
5.10069
5.09978
5.09889
5.09806
5.0973
5.09668
5.1038
5.10356
5.10293
5.10216
5.10128