/*--------------------------------*- C++ -*----------------------------------*\
| =========                 |                                                 |
| \\      /  F ield         | OpenFOAM: The Open Source CFD Toolbox           |
|  \\    /   O peration     | Version:  2406                                  |
|   \\  /    A nd           | Website:  www.openfoam.com                      |
|    \\/     M anipulation  |                                                 |
\*---------------------------------------------------------------------------*/
FoamFile
{
    version     2.0;
    format      ascii;
    arch        "LSB;label=32;scalar=64";
    class       surfaceScalarField;
    location    "0.9";
    object      phi;
}
// * * * * * * * * * * * * * * * * * * * * * * * * * * * * * * * * * * * * * //

dimensions      [0 3 -1 0 0 0 0];

oriented        oriented;

internalField   nonuniform List<scalar> 
73500
(
4.64708e-05
4.64649e-05
5.70551e-05
-5.14957e-05
-5.14914e-05
3.77042e-05
4.7132e-05
6.49028e-05
-5.23279e-05
2.65093e-05
4.75036e-05
7.06887e-05
-5.30525e-05
1.3658e-05
4.76235e-05
7.45194e-05
-5.33185e-05
6.80522e-09
4.76572e-05
7.64255e-05
-5.34367e-05
-1.36447e-05
4.76571e-05
7.64258e-05
-5.34365e-05
-2.64969e-05
4.76231e-05
7.45203e-05
-5.33181e-05
-3.76932e-05
4.75029e-05
7.06901e-05
-5.30519e-05
-4.64616e-05
4.71313e-05
6.49047e-05
-5.23275e-05
4.64645e-05
5.70574e-05
-5.14894e-05
-5.14911e-05
4.71374e-05
3.76971e-05
6.49025e-05
-5.2332e-05
3.80102e-05
3.80037e-05
7.28414e-05
2.65125e-05
3.8096e-05
7.8276e-05
1.3591e-05
3.80749e-05
8.17217e-05
6.69702e-09
3.80416e-05
8.33989e-05
-1.35779e-05
3.80414e-05
8.33992e-05
-2.65003e-05
3.80744e-05
8.17224e-05
-3.79993e-05
3.80953e-05
7.82772e-05
-4.71283e-05
3.8003e-05
7.28431e-05
3.76967e-05
6.49048e-05
-5.23258e-05
4.75088e-05
2.65014e-05
7.06882e-05
-5.30564e-05
3.81022e-05
2.65053e-05
7.82758e-05
2.64378e-05
2.64309e-05
8.33186e-05
1.35053e-05
2.6335e-05
8.64305e-05
6.61461e-09
2.62725e-05
8.79173e-05
-1.34924e-05
2.62724e-05
8.79175e-05
-2.64258e-05
2.63346e-05
8.64311e-05
-3.80915e-05
2.64303e-05
8.33196e-05
-4.74999e-05
2.65047e-05
7.82773e-05
2.6501e-05
7.06903e-05
-5.30502e-05
4.76288e-05
1.36495e-05
7.45187e-05
-5.33226e-05
3.8081e-05
1.35831e-05
8.17212e-05
2.63419e-05
1.34978e-05
8.64302e-05
1.34269e-05
1.34196e-05
8.92826e-05
6.54606e-09
1.33735e-05
9.06254e-05
-1.34141e-05
1.33734e-05
9.06256e-05
-2.633e-05
1.34193e-05
8.92832e-05
-3.80704e-05
1.34975e-05
8.64312e-05
-4.76199e-05
1.35828e-05
8.17226e-05
1.36492e-05
7.45206e-05
-5.33164e-05
4.76627e-05
-1.91177e-09
7.64244e-05
-5.3441e-05
3.80478e-05
-1.38115e-09
8.33982e-05
2.62795e-05
-1.09963e-09
8.79168e-05
1.33808e-05
-9.816e-10
9.06252e-05
6.48627e-09
-9.65088e-10
9.18898e-05
-1.33681e-05
-1.01101e-09
9.189e-05
-2.62676e-05
-1.10615e-09
9.06258e-05
-3.80373e-05
-1.25745e-09
8.79178e-05
-4.76538e-05
-1.51827e-09
8.33995e-05
-2.00144e-09
7.64262e-05
-5.34347e-05
4.76627e-05
-1.36533e-05
7.64243e-05
-5.34411e-05
3.80479e-05
-1.35858e-05
8.33981e-05
2.62795e-05
-1.35e-05
8.79167e-05
1.33808e-05
-1.34215e-05
9.06251e-05
6.43959e-09
-1.33754e-05
9.18897e-05
-1.33682e-05
-1.33754e-05
9.18899e-05
-2.62677e-05
-1.34215e-05
9.06257e-05
-3.80373e-05
-1.34999e-05
8.79177e-05
-4.76538e-05
-1.35858e-05
8.33995e-05
-1.36532e-05
7.64261e-05
-5.34347e-05
4.7629e-05
-2.65049e-05
7.45184e-05
-5.33229e-05
3.80811e-05
-2.65078e-05
8.17209e-05
2.63419e-05
-2.64329e-05
8.643e-05
1.34268e-05
-2.63369e-05
8.92824e-05
6.38946e-09
-2.62744e-05
9.06252e-05
-1.34143e-05
-2.62744e-05
9.06254e-05
-2.63301e-05
-2.63368e-05
8.9283e-05
-3.80705e-05
-2.64328e-05
8.6431e-05
-4.762e-05
-2.65076e-05
8.17223e-05
-2.65047e-05
7.45202e-05
-5.33164e-05
4.75091e-05
-3.77003e-05
7.06877e-05
-5.30569e-05
3.81022e-05
-3.8006e-05
7.82754e-05
2.64377e-05
-3.80979e-05
8.33182e-05
1.35051e-05
-3.80766e-05
8.64301e-05
6.33749e-09
-3.80434e-05
8.7917e-05
-1.34926e-05
-3.80433e-05
8.79172e-05
-2.6426e-05
-3.80766e-05
8.64307e-05
-3.80916e-05
-3.80977e-05
8.33192e-05
-4.74999e-05
-3.80058e-05
7.82769e-05
-3.77e-05
7.06897e-05
-5.30503e-05
4.71375e-05
-4.64675e-05
6.49019e-05
-5.23325e-05
3.801e-05
-4.71339e-05
7.28408e-05
2.65122e-05
-4.75053e-05
7.82755e-05
1.35906e-05
-4.76252e-05
8.17211e-05
6.31352e-09
-4.76589e-05
8.33984e-05
-1.35782e-05
-4.76589e-05
8.33986e-05
-2.65006e-05
-4.76251e-05
8.17218e-05
-3.79994e-05
-4.75052e-05
7.82766e-05
-4.71283e-05
-4.71339e-05
7.28424e-05
-4.64674e-05
6.4904e-05
-5.23257e-05
4.64705e-05
5.70543e-05
-5.14934e-05
-5.14959e-05
3.77037e-05
6.4902e-05
-5.23298e-05
2.65088e-05
7.06879e-05
-5.30543e-05
1.36575e-05
7.45187e-05
-5.33204e-05
6.37572e-09
7.64247e-05
-5.34387e-05
-1.3645e-05
7.6425e-05
-5.34387e-05
-2.64971e-05
7.45195e-05
-5.33204e-05
-3.76933e-05
7.06892e-05
-5.30543e-05
-4.64616e-05
6.49038e-05
-5.23301e-05
5.70565e-05
-5.14892e-05
-5.14938e-05
1.74782e-05
1.74512e-05
5.59063e-05
-1.68991e-05
-1.68798e-05
1.56378e-05
1.95091e-05
6.5804e-05
-1.85682e-05
1.16664e-05
2.09076e-05
7.35995e-05
-1.98453e-05
6.23133e-06
2.18233e-05
7.89079e-05
-2.0775e-05
3.00863e-08
2.22658e-05
8.15835e-05
-2.12208e-05
-6.17253e-06
2.22655e-05
8.15852e-05
-2.12207e-05
-1.16117e-05
2.18226e-05
7.89132e-05
-2.07747e-05
-1.55898e-05
2.09068e-05
7.36082e-05
-1.98452e-05
-1.74393e-05
1.95091e-05
6.58159e-05
-1.85692e-05
1.74526e-05
5.59205e-05
-1.68721e-05
-1.68816e-05
1.95332e-05
1.56053e-05
6.58029e-05
-1.8586e-05
1.75105e-05
1.74816e-05
7.6893e-05
1.30354e-05
1.87037e-05
8.49566e-05
6.93703e-06
1.94641e-05
9.01808e-05
2.73676e-08
1.98305e-05
9.27455e-05
-6.88345e-06
1.98302e-05
9.27469e-05
-1.29852e-05
1.94631e-05
9.01851e-05
-1.74662e-05
1.87025e-05
8.4964e-05
-1.94969e-05
1.74808e-05
7.69034e-05
1.56058e-05
6.58163e-05
-1.85605e-05
2.09295e-05
1.163e-05
7.35969e-05
-1.98613e-05
1.87302e-05
1.3003e-05
8.49553e-05
1.39166e-05
1.38868e-05
9.29507e-05
7.39228e-06
1.44245e-05
9.7996e-05
2.54036e-08
1.4685e-05
0.000100431
-7.34252e-06
1.46847e-05
0.000100432
-1.387e-05
1.44236e-05
9.79997e-05
-1.86889e-05
1.38855e-05
9.2957e-05
-2.08956e-05
1.30018e-05
8.49646e-05
1.16296e-05
7.36093e-05
-1.98374e-05
2.18443e-05
6.19293e-06
7.89037e-05
-2.07905e-05
1.94894e-05
6.90256e-06
9.01779e-05
1.4453e-05
7.36041e-06
9.79946e-05
7.66657e-06
7.63621e-06
0.000102859
2.40856e-08
7.77047e-06
0.000105184
-7.61938e-06
7.77019e-06
0.000105185
-1.44087e-05
7.6354e-06
0.000102862
-1.945e-05
7.3592e-06
9.80003e-05
-2.18118e-05
6.90118e-06
9.01864e-05
6.19165e-06
7.89152e-05
-2.07673e-05
2.22865e-05
-8.54757e-09
8.15771e-05
-2.12362e-05
1.98554e-05
-7.66643e-09
9.2741e-05
1.47129e-05
-7.16079e-09
0.000100428
7.8002e-06
-6.94953e-09
0.000105183
2.33673e-08
-6.96446e-09
0.000107446
-7.75441e-06
-7.17442e-09
0.000107447
-1.467e-05
-7.5766e-09
0.000105186
-1.98171e-05
-8.20205e-09
0.000100434
-2.22549e-05
-9.14765e-09
9.2749e-05
-1.05754e-08
8.15881e-05
-2.12134e-05
2.22865e-05
-6.20964e-06
8.15767e-05
-2.12362e-05
1.98553e-05
-6.91756e-06
9.27406e-05
1.47128e-05
-7.37443e-06
0.000100428
7.80004e-06
-7.64984e-06
0.000105182
2.31939e-08
-7.78415e-06
0.000107445
-7.75457e-06
-7.7843e-06
0.000107446
-1.46701e-05
-7.65032e-06
0.000105185
-1.98172e-05
-7.37533e-06
0.000100433
-2.22549e-05
-6.91914e-06
9.27485e-05
-6.21235e-06
8.15875e-05
-2.12134e-05
2.18441e-05
-1.16455e-05
7.89023e-05
-2.07905e-05
1.9489e-05
-1.30169e-05
9.01767e-05
1.44525e-05
-1.38999e-05
9.79935e-05
7.66604e-06
-1.44374e-05
0.000102858
2.35414e-08
-1.4698e-05
0.000105183
-7.61987e-06
-1.46981e-05
0.000105184
-1.44091e-05
-1.44378e-05
0.000102861
-1.94502e-05
-1.39008e-05
9.7999e-05
-2.18119e-05
-1.30187e-05
9.01849e-05
-1.16489e-05
7.89132e-05
-2.07672e-05
2.09291e-05
-1.56188e-05
7.35947e-05
-1.98612e-05
1.87295e-05
-1.74939e-05
8.49532e-05
1.39157e-05
-1.87153e-05
9.29488e-05
7.39129e-06
-1.94756e-05
9.79942e-05
2.44333e-08
-1.98422e-05
0.000100429
-7.34335e-06
-1.98423e-05
0.000100431
-1.38706e-05
-1.9476e-05
9.79976e-05
-1.86892e-05
-1.87164e-05
9.29547e-05
-2.08956e-05
-1.7496e-05
8.49619e-05
-1.56227e-05
7.36061e-05
-1.98372e-05
1.9532e-05
-1.7462e-05
6.58e-05
-1.85855e-05
1.7509e-05
-1.9519e-05
7.68902e-05
1.30337e-05
-2.09172e-05
8.49539e-05
6.93542e-06
-2.18329e-05
9.01781e-05
2.59333e-08
-2.22757e-05
9.27427e-05
-6.88458e-06
-2.22759e-05
9.2744e-05
-1.2986e-05
-2.18335e-05
9.0182e-05
-1.74664e-05
-2.09186e-05
8.49605e-05
-1.94966e-05
-1.95218e-05
7.68995e-05
-1.74665e-05
6.58119e-05
-1.85598e-05
1.74759e-05
5.59028e-05
-1.68874e-05
-1.6898e-05
1.5635e-05
6.58005e-05
-1.85757e-05
1.16637e-05
7.35958e-05
-1.98528e-05
6.22895e-06
7.89042e-05
-2.07827e-05
2.81957e-08
8.15796e-05
-2.12288e-05
-6.17381e-06
8.15811e-05
-2.1229e-05
-1.16123e-05
7.89089e-05
-2.07835e-05
-1.55898e-05
7.36035e-05
-1.98543e-05
-1.74386e-05
6.58108e-05
-1.85791e-05
5.59152e-05
-1.68712e-05
-1.6892e-05
9.81032e-06
9.74727e-06
5.42092e-05
-8.9516e-06
-8.90639e-06
9.05572e-06
1.14866e-05
6.53632e-05
-1.02888e-05
6.95116e-06
1.27509e-05
7.43709e-05
-1.14153e-05
3.79974e-06
1.35984e-05
8.06669e-05
-1.22035e-05
7.04564e-08
1.40198e-05
8.38925e-05
-1.25971e-05
-3.66222e-06
1.40197e-05
8.38979e-05
-1.25974e-05
-6.82351e-06
1.35986e-05
8.06829e-05
-1.22048e-05
-8.94439e-06
1.27519e-05
7.43969e-05
-1.14178e-05
-9.72024e-06
1.14903e-05
6.5398e-05
-1.02946e-05
9.75478e-06
5.42502e-05
-8.88892e-06
-8.91434e-06
1.15421e-05
8.98014e-06
6.53602e-05
-1.033e-05
1.07401e-05
1.06739e-05
7.85099e-05
8.23602e-06
1.18482e-05
8.83654e-05
4.48088e-06
1.26004e-05
9.49358e-05
6.2393e-08
1.29687e-05
9.82169e-05
-4.35886e-06
1.29683e-05
9.82213e-05
-8.12213e-06
1.25996e-05
9.49491e-05
-1.06397e-05
1.18476e-05
8.83877e-05
-1.14603e-05
1.06749e-05
7.8541e-05
8.98486e-06
6.53994e-05
-1.02722e-05
1.28003e-05
6.86662e-06
7.43637e-05
-1.14513e-05
1.19079e-05
8.16198e-06
8.83614e-05
9.11135e-06
9.04422e-06
9.85531e-05
4.94125e-06
9.5927e-06
0.000105176
5.65649e-08
9.8565e-06
0.00010843
-4.83048e-06
9.85591e-06
0.000108434
-9.0077e-06
9.59117e-06
0.000105187
-1.18163e-05
9.04236e-06
9.85725e-05
-1.27257e-05
8.16093e-06
8.83895e-05
6.86816e-06
7.44003e-05
-1.13987e-05
1.36445e-05
3.71081e-06
8.06544e-05
-1.22374e-05
1.26565e-05
4.40239e-06
9.49273e-05
9.65589e-06
4.86966e-06
0.000105172
5.22166e-06
5.15414e-06
0.000111734
5.27502e-08
5.28745e-06
0.000114924
-5.11827e-06
5.28681e-06
0.000114927
-9.55898e-06
5.15238e-06
0.000111743
-1.25707e-05
4.86713e-06
0.000105189
-1.35745e-05
4.39965e-06
9.4953e-05
3.70885e-06
8.06887e-05
-1.21875e-05
1.40642e-05
-1.86377e-08
8.38738e-05
-1.26295e-05
1.30231e-05
-1.71519e-08
9.82033e-05
9.91806e-06
-1.64901e-08
0.000108421
5.35324e-06
-1.63494e-08
0.00011492
5.06971e-08
-1.65671e-08
0.000118054
-5.25376e-06
-1.7128e-08
0.000118057
-9.82468e-06
-1.80574e-08
0.000114929
-1.29403e-05
-1.93855e-08
0.000108437
-1.39966e-05
-2.12507e-08
9.82276e-05
-2.38859e-08
8.39066e-05
-1.25811e-05
1.4064e-05
-3.74706e-06
8.38723e-05
-1.26293e-05
1.30228e-05
-4.4358e-06
9.8202e-05
9.91775e-06
-4.90186e-06
0.00010842
5.35289e-06
-5.18612e-06
0.000114919
5.03323e-08
-5.31991e-06
0.000118053
-5.25412e-06
-5.32041e-06
0.000118056
-9.82497e-06
-5.18778e-06
0.000114927
-1.29405e-05
-4.90508e-06
0.000108436
-1.39965e-05
-4.4412e-06
9.8226e-05
-3.75541e-06
8.39046e-05
-1.2581e-05
1.36436e-05
-6.89994e-06
8.06501e-05
-1.22368e-05
1.26555e-05
-8.19282e-06
9.49234e-05
9.65484e-06
-9.07405e-06
0.000105168
5.22055e-06
-9.62247e-06
0.00011173
5.15956e-08
-9.88684e-06
0.00011492
-5.11935e-06
-9.88738e-06
0.000114923
-9.5598e-06
-9.62433e-06
0.000111739
-1.25711e-05
-9.07786e-06
0.000105184
-1.35744e-05
-8.19963e-06
9.4948e-05
-6.91116e-06
8.06828e-05
-1.2187e-05
1.27985e-05
-9.00868e-06
7.43568e-05
-1.14502e-05
1.19059e-05
-1.07005e-05
8.8355e-05
9.10926e-06
-1.18742e-05
9.8547e-05
4.93913e-06
-1.26265e-05
0.00010517
5.45126e-08
-1.29954e-05
0.000108424
-4.83227e-06
-1.2996e-05
0.000108427
-9.00901e-06
-1.26289e-05
0.00010518
-1.18169e-05
-1.18789e-05
9.8565e-05
-1.27255e-05
-1.07088e-05
8.8381e-05
-9.02201e-06
7.43907e-05
-1.13981e-05
1.15389e-05
-9.76972e-06
6.53514e-05
-1.03278e-05
1.07366e-05
-1.15079e-05
7.85012e-05
8.23244e-06
-1.27716e-05
8.83568e-05
4.47745e-06
-1.36194e-05
9.49273e-05
5.93136e-08
-1.40414e-05
9.82082e-05
-4.36132e-06
-1.40423e-05
9.82122e-05
-8.12374e-06
-1.36225e-05
9.49393e-05
-1.06402e-05
-1.27775e-05
8.8377e-05
-1.14596e-05
-1.1518e-05
7.85293e-05
-9.78452e-06
6.53865e-05
-1.02707e-05
9.80527e-06
5.41992e-05
-8.92185e-06
-8.94838e-06
9.05018e-06
6.53529e-05
-1.03043e-05
6.94568e-06
7.43603e-05
-1.14305e-05
3.79481e-06
8.06559e-05
-1.22192e-05
6.64045e-08
8.38809e-05
-1.26133e-05
-3.66509e-06
8.38857e-05
-1.26143e-05
-6.82498e-06
8.06699e-05
-1.22226e-05
-8.94451e-06
7.4383e-05
-1.14365e-05
-9.71913e-06
6.53832e-05
-1.03149e-05
5.42351e-05
-8.88737e-06
-8.93549e-06
2.36894e-06
2.23266e-06
5.30759e-05
-1.78289e-06
-1.68386e-06
2.53535e-06
3.01489e-06
6.43433e-05
-2.15976e-06
2.15096e-06
3.67081e-06
7.37016e-05
-2.61536e-06
1.28643e-06
4.13894e-06
8.03564e-05
-2.96206e-06
1.40016e-07
4.37853e-06
8.38055e-05
-3.14326e-06
-1.01295e-06
4.37992e-06
8.38177e-05
-3.145e-06
-1.89671e-06
4.14384e-06
8.03928e-05
-2.96813e-06
-2.31317e-06
3.68065e-06
7.37607e-05
-2.62619e-06
-2.1885e-06
3.03336e-06
6.44216e-05
-2.17994e-06
2.26212e-06
5.31676e-05
-1.65574e-06
-1.71099e-06
3.13169e-06
2.3736e-06
6.43362e-05
-2.24711e-06
3.39435e-06
3.25636e-06
7.80072e-05
2.86346e-06
3.95039e-06
8.86181e-05
1.676e-06
4.41667e-06
9.58471e-05
1.22329e-07
4.64454e-06
9.95061e-05
-1.4366e-06
4.64521e-06
9.95165e-05
-2.6398e-06
4.41939e-06
9.58783e-05
-3.197e-06
3.95684e-06
8.86702e-05
-2.97013e-06
3.2698e-06
7.80792e-05
2.39852e-06
6.44254e-05
-2.13143e-06
3.77164e-06
1.97159e-06
7.36846e-05
-2.68904e-06
4.07158e-06
2.71044e-06
8.86088e-05
3.40713e-06
3.27159e-06
9.98978e-05
1.96701e-06
3.62865e-06
0.000107405
1.09803e-07
3.79e-06
0.000111143
-1.75188e-06
3.79003e-06
0.000111152
-3.20574e-06
3.62942e-06
0.000107432
-3.8937e-06
3.27472e-06
9.9944e-05
-3.62665e-06
2.71882e-06
8.86748e-05
1.98971e-06
7.37695e-05
-2.58587e-06
4.2305e-06
1.09918e-06
8.03268e-05
-3.02897e-06
4.52801e-06
1.51491e-06
9.58267e-05
3.7541e-06
1.82322e-06
0.000107395
2.14376e-06
2.01005e-06
0.000114964
1.01961e-07
2.08375e-06
0.000118673
-1.94383e-06
2.08336e-06
0.000118681
-3.56668e-06
2.00953e-06
0.000114987
-4.36239e-06
1.8237e-06
0.000107437
-4.09563e-06
1.51831e-06
9.58882e-05
1.10867e-06
8.04076e-05
-2.93232e-06
4.46501e-06
-4.64174e-08
8.37613e-05
-3.20537e-06
4.75114e-06
-3.99687e-08
9.94734e-05
3.91105e-06
-3.63153e-08
0.000111122
2.21311e-06
-3.4565e-08
0.000118664
9.81103e-08
-3.40109e-08
0.000122288
-2.02039e-06
-3.44122e-08
0.000122294
-3.73021e-06
-3.57077e-08
0.000118685
-4.59139e-06
-3.78739e-08
0.000111162
-4.33506e-06
-4.11451e-08
9.95321e-05
-4.57544e-08
8.38395e-05
-3.11231e-06
4.46478e-06
-1.18972e-06
8.37573e-05
-3.205e-06
4.75106e-06
-1.59295e-06
9.947e-05
3.91104e-06
-1.89418e-06
0.000111119
2.21306e-06
-2.07766e-06
0.000118661
9.79329e-08
-2.15041e-06
0.000122286
-2.02069e-06
-2.15085e-06
0.000122292
-3.73044e-06
-2.07942e-06
0.000118682
-4.59144e-06
-1.89774e-06
0.000111158
-4.33487e-06
-1.59865e-06
9.95283e-05
-1.19778e-06
8.38349e-05
-3.11201e-06
4.22955e-06
-2.05536e-06
8.03153e-05
-3.02759e-06
4.52748e-06
-2.78286e-06
9.58167e-05
3.75376e-06
-3.33748e-06
0.000107386
2.14336e-06
-3.69153e-06
0.000114956
1.01322e-07
-3.85212e-06
0.000118665
-1.9446e-06
-3.85295e-06
0.000118673
-3.56725e-06
-3.69453e-06
0.000114979
-4.36243e-06
-3.34359e-06
0.000107427
-4.09499e-06
-2.79331e-06
9.58765e-05
-2.07176e-06
8.03942e-05
-2.93127e-06
3.76931e-06
-2.44611e-06
7.36661e-05
-2.68647e-06
4.0699e-06
-3.31945e-06
8.85923e-05
3.4058e-06
-4.00779e-06
9.98827e-05
1.96575e-06
-4.47145e-06
0.000107391
1.08476e-07
-4.69868e-06
0.000111129
-1.75311e-06
-4.70012e-06
0.000111137
-3.20648e-06
-4.47628e-06
0.000107417
-3.89354e-06
-4.01697e-06
9.99268e-05
-3.62542e-06
-3.33463e-06
8.86555e-05
-2.46902e-06
7.37478e-05
-2.58425e-06
3.1265e-06
-2.29049e-06
6.43123e-05
-2.24168e-06
3.39015e-06
-3.06561e-06
7.79849e-05
2.86003e-06
-3.71669e-06
8.85971e-05
1.67315e-06
-4.18268e-06
9.58267e-05
1.19971e-07
-4.42174e-06
9.94857e-05
-1.43826e-06
-4.42382e-06
9.94953e-05
-2.6404e-06
-4.18941e-06
9.58558e-05
-3.1962e-06
-3.72884e-06
8.86459e-05
-2.96771e-06
-3.08539e-06
7.80527e-05
-2.31799e-06
6.43969e-05
-2.12818e-06
2.35959e-06
5.30484e-05
-1.7236e-06
-1.77469e-06
2.52696e-06
6.43164e-05
-2.19558e-06
2.14392e-06
7.36754e-05
-2.64774e-06
1.28106e-06
8.03303e-05
-2.99322e-06
1.36336e-07
8.3779e-05
-3.17407e-06
-1.01476e-06
8.37903e-05
-3.17632e-06
-1.89644e-06
8.03638e-05
-3.00065e-06
-2.31099e-06
7.37299e-05
-2.66024e-06
-2.18475e-06
6.43892e-05
-2.21678e-06
5.31345e-05
-1.65201e-06
-1.74954e-06
1.97652e-06
1.71195e-06
5.26437e-05
-1.72347e-06
-1.53025e-06
1.92146e-06
2.13259e-06
6.41015e-05
-1.83315e-06
1.58143e-06
2.47513e-06
7.36669e-05
-2.0977e-06
9.87353e-07
2.71612e-06
8.05206e-05
-2.28364e-06
2.41535e-07
2.83938e-06
8.40952e-05
-2.38075e-06
-5.15421e-07
2.84377e-06
8.41185e-05
-2.38516e-06
-1.14209e-06
2.73071e-06
8.05895e-05
-2.29845e-06
-1.5365e-06
2.50279e-06
7.3778e-05
-2.12363e-06
-1.66249e-06
2.1801e-06
6.42479e-05
-1.87845e-06
1.7831e-06
5.28143e-05
-1.50115e-06
-1.58972e-06
2.35759e-06
1.60932e-06
6.40864e-05
-2.00275e-06
2.32673e-06
2.06318e-06
7.81096e-05
1.90784e-06
2.42327e-06
8.90911e-05
1.15542e-06
2.66645e-06
9.66513e-05
2.12451e-07
2.78297e-06
0.000100508
-7.3957e-07
2.78634e-06
0.000100528
-1.51893e-06
2.67816e-06
9.6712e-05
-1.98273e-06
2.44688e-06
8.91917e-05
-2.07464e-06
2.10515e-06
7.82476e-05
1.67796e-06
6.42558e-05
-1.79871e-06
2.66614e-06
1.23726e-06
7.36312e-05
-2.23847e-06
2.65076e-06
1.61775e-06
8.90715e-05
2.16528e-06
1.91282e-06
0.000100896
1.28513e-06
2.10025e-06
0.000108854
1.90795e-07
2.17686e-06
0.000112845
-9.11202e-07
2.17902e-06
0.000112863
-1.81494e-06
2.10857e-06
0.000108907
-2.34063e-06
1.93099e-06
0.000100987
-2.4123e-06
1.65211e-06
8.92011e-05
1.29699e-06
7.3796e-05
-2.05667e-06
2.88607e-06
6.29784e-07
8.04593e-05
-2.40898e-06
2.87149e-06
8.51852e-07
9.6609e-05
2.32987e-06
1.01886e-06
0.000108833
1.36122e-06
1.11757e-06
0.000116917
1.77027e-07
1.14582e-06
0.00012089
-1.01395e-06
1.14704e-06
0.000120905
-2.00414e-06
1.12311e-06
0.000116964
-2.58324e-06
1.03175e-06
0.000108917
-2.65057e-06
8.77148e-07
9.67319e-05
6.75012e-07
8.06193e-05
-2.23904e-06
2.99685e-06
-1.13291e-07
8.40042e-05
-2.49471e-06
2.97609e-06
-9.21453e-08
0.00010044
2.39544e-06
-7.87131e-08
0.000112802
1.37882e-06
-7.10095e-08
0.00012087
1.70352e-07
-6.71455e-08
0.000124711
-1.04391e-06
-6.60336e-08
0.000124723
-2.08108e-06
-6.71888e-08
0.000120914
-2.69835e-06
-7.04411e-08
0.000112882
-2.77054e-06
-7.6093e-08
0.000100559
-8.44961e-08
8.41613e-05
-2.33176e-06
2.99586e-06
-8.51277e-07
8.39946e-05
-2.49325e-06
2.97574e-06
-1.0322e-06
0.000100432
2.39551e-06
-1.17299e-06
0.000112795
1.379e-06
-1.25665e-06
0.000120865
1.70268e-07
-1.27759e-06
0.000124706
-1.04428e-06
-1.27666e-06
0.000124718
-2.08134e-06
-1.25466e-06
0.000120908
-2.69825e-06
-1.16947e-06
0.000112876
-2.77004e-06
-1.02575e-06
0.000100551
-8.39635e-07
8.41522e-05
-2.33102e-06
2.88232e-06
-1.44383e-06
8.0431e-05
-2.40377e-06
2.86962e-06
-1.78641e-06
9.6585e-05
2.32928e-06
-2.05685e-06
0.000108812
1.36106e-06
-2.2301e-06
0.000116899
1.7659e-07
-2.29983e-06
0.000120873
-1.01465e-06
-2.29991e-06
0.000120888
-2.0045e-06
-2.23111e-06
0.000116946
-2.58269e-06
-2.0591e-06
0.000108896
-2.6488e-06
-1.78995e-06
9.67082e-05
-1.44884e-06
8.05922e-05
-2.23652e-06
2.65782e-06
-1.79062e-06
7.35856e-05
-2.22889e-06
2.64545e-06
-2.21229e-06
8.90319e-05
2.16226e-06
-2.55025e-06
0.000100861
1.28335e-06
-2.78043e-06
0.000108822
1.89416e-07
-2.89045e-06
0.000112815
-9.1225e-07
-2.89188e-06
0.000112832
-1.81507e-06
-2.78521e-06
0.000108875
-2.33916e-06
-2.55876e-06
0.000100952
-2.40894e-06
-2.22536e-06
8.9162e-05
-1.80894e-06
7.37525e-05
-2.05258e-06
2.34058e-06
-1.85967e-06
6.40263e-05
-1.98409e-06
2.31427e-06
-2.25514e-06
7.80553e-05
1.89921e-06
-2.57845e-06
8.90416e-05
1.14975e-06
-2.80816e-06
9.66051e-05
2.08863e-07
-2.92559e-06
0.000100463
-7.41235e-07
-2.92821e-06
0.000100483
-1.51835e-06
-2.81646e-06
9.66654e-05
-1.97952e-06
-2.59255e-06
8.9142e-05
-2.06845e-06
-2.27688e-06
7.81943e-05
-1.88754e-06
6.41988e-05
-1.79096e-06
1.94743e-06
5.25732e-05
-1.63468e-06
-1.69615e-06
1.89695e-06
6.40344e-05
-1.92178e-06
1.56256e-06
7.36041e-05
-2.17181e-06
9.74545e-07
8.0461e-05
-2.34985e-06
2.34107e-07
8.40372e-05
-2.44234e-06
-5.17884e-07
8.40603e-05
-2.44526e-06
-1.13983e-06
8.05296e-05
-2.35936e-06
-1.53027e-06
7.37156e-05
-2.18685e-06
-1.65313e-06
6.41831e-05
-1.94698e-06
5.27484e-05
-1.49186e-06
-1.66214e-06
6.00278e-07
1.56106e-07
5.24097e-05
-4.2205e-07
-9.93269e-08
7.00473e-07
3.31556e-07
6.38658e-05
-1.94948e-07
6.87837e-07
4.93679e-07
7.34872e-05
-3.00046e-07
5.6381e-07
6.15637e-07
8.04097e-05
-3.79403e-07
3.66041e-07
6.83864e-07
8.40366e-05
-4.26102e-07
1.51264e-07
6.93486e-07
8.40758e-05
-4.34609e-07
-2.26491e-08
6.46357e-07
8.05256e-05
-4.07051e-07
-1.18736e-07
5.48878e-07
7.36737e-05
-3.47105e-07
-1.27468e-07
4.19439e-07
6.41111e-05
-2.7257e-07
2.78245e-07
5.26944e-05
-8.86549e-08
-1.96183e-07
7.14144e-07
1.75357e-07
6.38362e-05
-4.82161e-07
8.39584e-07
3.91422e-07
7.79254e-05
8.02511e-07
5.7898e-07
8.90439e-05
6.12515e-07
7.15832e-07
9.67423e-05
3.26836e-07
7.88631e-07
0.00010069
2.71848e-08
7.97325e-07
0.000100725
-2.04592e-07
7.43975e-07
9.68474e-05
-3.11431e-07
6.3118e-07
8.92175e-05
-2.80835e-07
4.75613e-07
7.8162e-05
2.99798e-07
6.41246e-05
-1.70255e-07
8.18806e-07
1.09445e-07
7.34184e-05
-5.3896e-07
9.65311e-07
3.10763e-07
8.90067e-05
9.06868e-07
4.80054e-07
0.000101054
6.58417e-07
5.99593e-07
0.000109219
2.9613e-07
6.5846e-07
0.000113339
-7.82259e-08
6.65443e-07
0.00011337
-3.63563e-07
6.2297e-07
0.000109315
-4.84789e-07
5.25005e-07
0.000101216
-4.26175e-07
3.85511e-07
8.92338e-05
2.24328e-07
7.37044e-05
-2.58131e-07
9.0204e-07
-3.54175e-08
8.02937e-05
-5.90429e-07
1.06016e-06
1.00176e-07
9.66625e-05
9.83575e-07
2.10533e-07
0.00010918
6.92469e-07
2.86619e-07
0.000117522
2.75683e-07
3.21102e-07
0.000121645
-1.52059e-07
3.2641e-07
0.000121673
-4.772e-07
3.05086e-07
0.000117609
-6.12523e-07
2.46724e-07
0.000109332
-5.36771e-07
1.61141e-07
9.68817e-05
5.8976e-08
8.05758e-05
-3.26967e-07
9.445e-07
-2.26655e-07
8.38669e-05
-6.14838e-07
1.10738e-06
-1.84875e-07
0.000100563
1.01837e-06
-1.55047e-07
0.000113258
7.04281e-07
-1.3595e-07
0.000121608
2.65007e-07
-1.25169e-07
0.000125597
-1.84082e-07
-1.20676e-07
0.00012562
-5.31041e-07
-1.21509e-07
0.000121688
-6.77545e-07
-1.27569e-07
0.000113404
-5.94897e-07
-1.39392e-07
0.000100778
-1.57402e-07
8.4147e-05
-3.63214e-07
9.39716e-07
-4.08399e-07
8.38476e-05
-6.09817e-07
1.1037e-06
-4.62755e-07
0.000100547
1.01578e-06
-5.14731e-07
0.000113244
7.02408e-07
-5.53315e-07
0.000121596
2.63264e-07
-5.66852e-07
0.000125588
-1.85747e-07
-5.63289e-07
0.000125611
-5.32128e-07
-5.4313e-07
0.000121677
-6.77761e-07
-4.96401e-07
0.000113391
-5.94161e-07
-4.3366e-07
0.000100763
-3.6608e-07
8.41295e-05
-3.61874e-07
8.86205e-07
-5.25099e-07
8.02365e-05
-5.73721e-07
1.04769e-06
-6.51775e-07
9.66136e-05
9.7445e-07
-7.66217e-07
0.000109138
6.8569e-07
-8.50102e-07
0.000117485
2.70102e-07
-8.88837e-07
0.000121612
-1.56603e-07
-8.87138e-07
0.00012164
-4.79966e-07
-8.45441e-07
0.000117573
-6.12744e-07
-7.5799e-07
0.000109291
-5.3409e-07
-6.39242e-07
9.68362e-05
-5.0879e-07
8.0524e-05
-3.22292e-07
7.88581e-07
-5.42624e-07
7.33254e-05
-5.09646e-07
9.40204e-07
-6.95729e-07
8.89253e-05
8.87535e-07
-8.3412e-07
0.000100982
6.43913e-07
-9.38287e-07
0.000109155
2.85145e-07
-9.92054e-07
0.000113278
-8.60667e-08
-9.92415e-07
0.00011331
-3.67628e-07
-9.39555e-07
0.000109252
-4.84301e-07
-8.35834e-07
0.000101147
-4.20861e-07
-6.98119e-07
8.91585e-05
-5.46746e-07
7.36208e-05
-2.50359e-07
6.61652e-07
-4.58047e-07
6.37122e-05
-4.31082e-07
7.94349e-07
-5.84717e-07
7.78126e-05
7.65998e-07
-7.04492e-07
8.89414e-05
5.84816e-07
-7.98361e-07
9.66474e-05
3.06988e-07
-8.49601e-07
0.000100599
1.4719e-08
-8.51587e-07
0.000100635
-2.09554e-07
-8.04581e-07
9.67557e-05
-3.08768e-07
-7.14325e-07
8.91208e-05
-2.70494e-07
-5.99862e-07
7.80588e-05
-4.76579e-07
6.40143e-05
-1.55381e-07
5.20032e-07
5.22628e-05
-3.14375e-07
-3.52483e-07
6.2538e-07
6.37248e-05
-3.79724e-07
6.23851e-07
7.33549e-05
-4.52915e-07
5.14874e-07
8.02852e-05
-5.12725e-07
3.3234e-07
8.39172e-05
-5.46191e-07
1.32361e-07
8.3958e-05
-5.48488e-07
-2.75381e-08
8.04062e-05
-5.20447e-07
-1.11771e-07
7.35507e-05
-4.64379e-07
-1.11188e-07
6.39841e-05
-4.00788e-07
5.25656e-05
-7.02288e-08
-3.34272e-07
7.71801e-07
1.66561e-07
5.23017e-05
-6.29873e-07
-1.98059e-07
8.17041e-07
2.83703e-07
6.38173e-05
-2.78137e-07
7.80935e-07
3.8821e-07
7.35003e-05
-3.62758e-07
6.65892e-07
4.64608e-07
8.04828e-05
-4.20264e-07
4.96024e-07
5.10029e-07
8.41551e-05
-4.56353e-07
3.01648e-07
5.22731e-07
8.42166e-05
-4.66966e-07
1.1466e-07
5.03823e-07
8.06646e-05
-4.53811e-07
-4.0485e-08
4.54524e-07
7.3793e-05
-4.16844e-07
-1.48908e-07
3.80933e-07
6.42026e-05
-3.62211e-07
2.88106e-07
5.27484e-05
-1.98563e-07
-2.91164e-07
8.29194e-07
9.26394e-08
6.37649e-05
-6.8179e-07
8.69745e-07
2.24143e-07
7.79464e-05
8.11101e-07
3.35965e-07
8.91568e-05
6.62765e-07
4.17333e-07
9.69398e-05
4.55192e-07
4.63357e-07
0.000100946
2.27183e-07
4.75305e-07
0.000101002
1.78007e-08
4.54551e-07
9.71077e-05
-1.42318e-07
4.00381e-07
8.94333e-05
-2.38853e-07
3.18598e-07
7.83223e-05
2.16932e-07
6.42213e-05
-2.63261e-07
8.65919e-07
-2.25797e-08
7.33799e-05
-7.1005e-07
9.07058e-07
9.93957e-08
8.90922e-05
8.33121e-07
2.01049e-07
0.000101265
6.57446e-07
2.73128e-07
0.000109541
4.18403e-07
3.10845e-07
0.000113732
1.61692e-07
3.20733e-07
0.000113783
-6.78834e-08
3.04694e-07
0.000109696
-2.33268e-07
2.57151e-07
0.000101526
-3.19485e-07
1.83185e-07
8.94569e-05
9.03579e-08
7.38362e-05
-3.23614e-07
8.9093e-07
-1.68485e-07
8.02832e-05
-7.32555e-07
9.30952e-07
-7.92483e-08
9.68028e-05
8.45674e-07
-5.22911e-09
0.000109473
6.50607e-07
4.6456e-08
0.000117945
3.90418e-07
7.20913e-08
0.000122145
1.14456e-07
7.97286e-08
0.000122191
-1.29884e-07
7.1527e-08
0.000118087
-3.00038e-07
3.96399e-08
0.000109721
-3.78636e-07
-1.26283e-08
9.71574e-05
-8.0791e-08
8.07354e-05
-3.66057e-07
8.97671e-07
-3.27977e-07
8.3868e-05
-7.37431e-07
9.36868e-07
-2.84436e-07
0.00010073
8.44859e-07
-2.47555e-07
0.000113594
6.3999e-07
-2.21054e-07
0.000122082
3.72519e-07
-2.0509e-07
0.000126143
9.12076e-08
-1.9863e-07
0.000126181
-1.60647e-07
-2.01525e-07
0.000122215
-3.34673e-07
-2.14346e-07
0.000113834
-4.09382e-07
-2.3766e-07
0.000101079
-2.71377e-07
8.43167e-05
-3.87457e-07
8.85039e-07
-4.73121e-07
8.38363e-05
-7.26828e-07
9.24739e-07
-4.78406e-07
0.000100702
8.34287e-07
-4.80672e-07
0.000113569
6.31091e-07
-4.80523e-07
0.00012206
3.64689e-07
-4.75193e-07
0.000126126
8.44759e-08
-4.70072e-07
0.000126164
-1.65397e-07
-4.66766e-07
0.000122193
-3.37026e-07
-4.59498e-07
0.000113809
-4.09367e-07
-4.52334e-07
0.000101051
-4.49004e-07
8.42846e-05
-3.85861e-07
8.51418e-07
-5.76674e-07
8.01891e-05
-6.98883e-07
8.92775e-07
-6.23358e-07
9.67186e-05
8.11999e-07
-6.58647e-07
0.000109398
6.22028e-07
-6.81945e-07
0.000117878
3.66214e-07
-6.89957e-07
0.000122084
9.49008e-08
-6.87271e-07
0.00012213
-1.4335e-07
-6.75271e-07
0.000118021
-3.06374e-07
-6.50036e-07
0.000109646
-3.77716e-07
-6.17073e-07
9.70735e-05
-5.82031e-07
8.06404e-05
-3.60078e-07
7.96638e-07
-6.19825e-07
7.32269e-05
-6.53566e-07
8.38719e-07
-6.90845e-07
8.8952e-05
7.71675e-07
-7.44596e-07
0.000101137
6.05217e-07
-7.81992e-07
0.000109422
3.75637e-07
-8.00119e-07
0.000113619
1.28994e-07
-7.99873e-07
0.00011367
-8.91204e-08
-7.82257e-07
0.000109578
-2.42084e-07
-7.47219e-07
0.000101399
-3.16244e-07
-7.0067e-07
8.93175e-05
-6.45238e-07
7.36821e-05
-3.13423e-07
7.22967e-07
-5.97976e-07
6.35612e-05
-5.92509e-07
7.64026e-07
-6.70943e-07
7.77528e-05
7.14353e-07
-7.26483e-07
8.8974e-05
5.80671e-07
-7.66002e-07
9.67663e-05
3.90123e-07
-7.86842e-07
0.000100778
1.80545e-07
-7.8828e-07
0.000100834
-9.38949e-09
-7.71289e-07
9.69358e-05
-1.50264e-07
-7.37041e-07
8.92526e-05
-2.28535e-07
-6.92675e-07
7.81301e-05
-6.33888e-07
6.40167e-05
-2.41473e-07
6.28596e-07
5.20616e-05
-5.0416e-07
-5.20233e-07
6.67086e-07
6.35772e-05
-5.60935e-07
6.39583e-07
7.32657e-05
-6.08937e-07
5.4645e-07
8.02552e-05
-6.41975e-07
4.04666e-07
8.39324e-05
-6.59379e-07
2.41327e-07
8.39948e-05
-6.60829e-07
8.57251e-08
8.04394e-05
-6.47966e-07
-4.19613e-08
7.35615e-05
-6.19278e-07
-1.28625e-07
6.39646e-05
-5.85677e-07
5.25081e-05
-1.70667e-07
-5.33763e-07
4.58393e-07
-1.56828e-07
5.22026e-05
-3.1139e-07
1.09579e-07
5.63665e-07
-1.26337e-07
6.37365e-05
1.0261e-07
6.19448e-07
-8.34093e-08
7.34567e-05
7.20522e-08
6.1889e-07
-4.67381e-08
8.0481e-05
5.00211e-08
5.72168e-07
-2.18851e-08
8.41916e-05
3.30516e-08
4.93471e-07
-1.43663e-08
8.4283e-05
2.76463e-08
3.99609e-07
-2.56358e-08
8.07512e-05
3.40068e-08
3.04855e-07
-5.5413e-08
7.38919e-05
5.23444e-08
2.20914e-07
-9.90672e-08
6.43091e-05
7.74829e-08
-1.48436e-07
5.28654e-05
1.45317e-07
1.0787e-07
4.80581e-07
-1.94127e-07
6.36534e-05
-3.31085e-07
5.84791e-07
-1.53123e-07
7.78697e-05
6.29182e-07
-1.0416e-07
8.91339e-05
6.13541e-07
-6.18931e-08
9.69714e-05
5.51333e-07
-3.49509e-08
0.000101022
4.61612e-07
-2.8061e-08
0.000101106
3.64195e-07
-4.28325e-08
9.72233e-05
2.74741e-07
-7.9501e-08
8.95478e-05
2.01789e-07
-1.33547e-07
7.84306e-05
-1.96163e-07
6.43314e-05
1.40111e-07
4.8552e-07
-2.35453e-07
7.32667e-05
-3.30339e-07
5.90048e-07
-1.9684e-07
8.9032e-05
6.26483e-07
-1.5089e-07
0.000101276
5.97717e-07
-1.11268e-07
0.00010962
5.21387e-07
-8.74829e-08
0.000113862
4.20952e-07
-8.26929e-08
0.000113939
3.1933e-07
-9.81592e-08
0.000109853
2.33859e-07
-1.35711e-07
0.000101668
1.71916e-07
-1.91395e-07
8.95776e-05
-2.5806e-07
7.39447e-05
1.26058e-07
4.84383e-07
-2.74557e-07
8.01702e-05
-3.3151e-07
5.86541e-07
-2.52954e-07
9.67575e-05
6.17035e-07
-2.21042e-07
0.000109513
5.78904e-07
-1.91851e-07
0.000118065
4.91859e-07
-1.74642e-07
0.00012232
3.83429e-07
-1.72356e-07
0.00012239
2.79304e-07
-1.86055e-07
0.00011828
1.97502e-07