/*--------------------------------*- C++ -*----------------------------------*\
| =========                 |                                                 |
| \\      /  F ield         | OpenFOAM: The Open Source CFD Toolbox           |
|  \\    /   O peration     | Version:  2406                                  |
|   \\  /    A nd           | Website:  www.openfoam.com                      |
|    \\/     M anipulation  |                                                 |
\*---------------------------------------------------------------------------*/
FoamFile
{
    version     2.0;
    format      ascii;
    arch        "LSB;label=32;scalar=64";
    class       volScalarField;
    location    "0.9";
    object      turbulenceProperties:nuEff;
}
// * * * * * * * * * * * * * * * * * * * * * * * * * * * * * * * * * * * * * //

dimensions      [0 2 -1 0 0 0 0];

internalField   nonuniform List<scalar> 
25000
(
0.00649241
0.0065661
0.00659816
0.00660439
0.00660251
0.00660251
0.00660438
0.00659814
0.00656609
0.00649243
0.0065661
0.00659252
0.00658033
0.00656671
0.00655935
0.00655935
0.00656669
0.00658031
0.00659249
0.00656609
0.00659816
0.00658034
0.0065556
0.00654069
0.00653468
0.00653468
0.00654067
0.00655557
0.0065803
0.00659814
0.0066044
0.00656672
0.0065407
0.00652892
0.00652543
0.00652542
0.00652891
0.00654067
0.00656669
0.00660437
0.00660252
0.00655937
0.00653469
0.00652543
0.00652358
0.00652357
0.00652542
0.00653467
0.00655933
0.00660249
0.00660252
0.00655937
0.00653469
0.00652543
0.00652358
0.00652357
0.00652542
0.00653467
0.00655933
0.00660249
0.0066044
0.00656672
0.0065407
0.00652892
0.00652543
0.00652542
0.00652891
0.00654067
0.00656669
0.00660437
0.00659816
0.00658033
0.0065556
0.00654069
0.00653468
0.00653468
0.00654068
0.00655557
0.0065803
0.00659814
0.00656609
0.00659251
0.00658033
0.00656671
0.00655935
0.00655935
0.0065667
0.00658031
0.00659249
0.00656609
0.0064924
0.0065661
0.00659816
0.00660439
0.00660251
0.00660251
0.00660438
0.00659814
0.00656609
0.00649242
0.00616023
0.0063359
0.00654989
0.00671876
0.00680754
0.00680758
0.00671888
0.00655009
0.00633613
0.00616045
0.00633589
0.00671046
0.00697524
0.00708487
0.00711295
0.00711293
0.00708485
0.00697532
0.00671068
0.00633613
0.00654987
0.00697522
0.00713262
0.00711459
0.00708377
0.00708372
0.00711446
0.00713251
0.00697532
0.00655009
0.0067187
0.00708487
0.00711462
0.00704172
0.00699683
0.00699679
0.00704158
0.00711444
0.00708484
0.00671889
0.00680745
0.007113
0.00708386
0.00699689
0.00695013
0.00695008
0.00699676
0.00708367
0.00711291
0.0068076
0.00680744
0.00711301
0.00708388
0.0069969
0.00695014
0.0069501
0.00699677
0.00708369
0.00711291
0.00680759
0.00671867
0.00708488
0.00711466
0.00704176
0.00699687
0.00699683
0.00704163
0.00711449
0.00708485
0.00671885
0.00654981
0.00697519
0.00713264
0.00711464
0.00708383
0.00708378
0.00711452
0.00713255
0.00697529
0.00655002
0.00633582
0.00671039
0.00697519
0.00708486
0.00711297
0.00711296
0.00708485
0.00697527
0.00671059
0.00633604
0.00616016
0.00633582
0.00654981
0.00671868
0.00680746
0.0068075
0.00671879
0.00654999
0.00633603
0.00616036
0.005834
0.00590561
0.00604025
0.00616658
0.00624268
0.00624285
0.00616704
0.00604087
0.00590626
0.00583462
0.00590561
0.0061436
0.00638711
0.00658208
0.00669178
0.006692
0.00658265
0.00638787
0.00614438
0.00590626
0.00604022
0.00638704
0.00673478
0.00699917
0.00713408
0.00713432
0.00699984
0.00673568
0.0063879
0.00604088
0.00616643
0.00658185
0.00699897
0.00729459
0.00742047
0.00742069
0.00729526
0.00699993
0.00658275
0.0061671
0.00624235
0.00669131
0.0071336
0.00742021
0.00752142
0.00752161
0.00742082
0.00713454
0.00669222
0.006243
0.0062423
0.00669126
0.00713353
0.00742013
0.00752135
0.00752154
0.00742074
0.00713446
0.00669214
0.00624294
0.00616632
0.0065817
0.00699878
0.00729437
0.00742026
0.00742047
0.00729501
0.00699969
0.00658255
0.00616694
0.00604008
0.00638685
0.00673453
0.00699887
0.00713375
0.00713397
0.00699948
0.00673535
0.00638762
0.00604066
0.00590548
0.00614343
0.00638688
0.0065818
0.00669147
0.00669166
0.0065823
0.00638755
0.00614409
0.00590602
0.0058339
0.00590548
0.0060401
0.00616639
0.00624245
0.00624259
0.00616677
0.00604061
0.00590602
0.00583439
0.00580553
0.00584152
0.00594421
0.00604652
0.00611025
0.00611059
0.00604742
0.00594543
0.00584283
0.00580674
0.00584156
0.00602219
0.00621741
0.0063853
0.00648719
0.00648765
0.00638647
0.0062189
0.00602369
0.00584282
0.00594419
0.0062173
0.0065132
0.00678157
0.00695497
0.00695568
0.00678321
0.00651505
0.00621896
0.00594546
0.00604628
0.00638489
0.00678113
0.00719821
0.00752507
0.00752641
0.00720071
0.00678342
0.00638669
0.00604756
0.00610965
0.00648625
0.00695365
0.00752351
0.0081121
0.00811495
0.00752712
0.0069563
0.00648812
0.00611091
0.00610956
0.00648611
0.00695342
0.00752303
0.00811101
0.00811382
0.00752659
0.00695604
0.00648795
0.00611079
0.00604604
0.00638456
0.00678062
0.00719736
0.00752372
0.00752501
0.00719974
0.0067828
0.00638626
0.00604724
0.00594388
0.00621691
0.00651267
0.00678084
0.00695404
0.00695468
0.00678234
0.00651436
0.00621842
0.00594503
0.00584127
0.00602184
0.00621698
0.00638478
0.00648657
0.00648698
0.00638581
0.00621829
0.00602315
0.00584237
0.00580531
0.00584128
0.00594393
0.00604619
0.00610987
0.00611015
0.00604695
0.00594497
0.00584238
0.00580633
0.00577242
0.00579286
0.00588096
0.00597191
0.00602967
0.00603028
0.00597355
0.00588317
0.00579525
0.00577463
0.00579293
0.00594746
0.00611852
0.00626947
0.00636372
0.00636455
0.00627159
0.00612122
0.00595017
0.00579526
0.0058809
0.00611833
0.0063807
0.00662991
0.00680144
0.00680278
0.00663294
0.00638406
0.00612134
0.00588327
0.00597145
0.0062687
0.00662909
0.00704329
0.00742182
0.00742493
0.00704824
0.00663333
0.006272
0.00597385
0.0060285
0.00636193
0.00679886
0.00741832
0.00837139
0.00838332
0.00742645
0.00680396
0.00636543
0.00603091
0.00602826
0.00636162
0.00679836
0.00741711
0.00836658
0.00837834
0.00742517
0.00680342
0.00636511
0.00603068
0.00597083
0.00626792
0.00662797
0.00704141
0.00741861
0.00742163
0.00704624
0.00663214
0.00627118
0.00597324
0.00588007
0.00611736
0.00637952
0.00662837
0.00679953
0.00680081
0.00663128
0.00638276
0.00612032
0.00588245
0.00579206
0.00594652
0.00611751
0.00626835
0.00636249
0.00636328
0.00627036
0.00612009
0.00594917
0.00579439
0.00577163
0.00579208
0.00588021
0.00597116
0.00602889
0.00602946
0.0059727
0.00588232
0.00579442
0.00577385
0.00577261
0.0057884
0.00587158
0.00595852
0.00601426
0.00601522
0.00596108
0.00587502
0.00579209
0.00577594
0.00578846
0.00593397
0.00609545
0.00623912
0.00633003
0.00633138
0.00624253
0.00609976
0.00593829
0.00579211
0.00587138
0.00609507
0.00634255
0.00658106
0.00674905
0.00675128
0.00658605
0.00634803
0.00609997
0.00587522
0.0059576
0.00623771
0.0065796
0.00698214
0.00736498
0.00737043
0.00699052
0.00658671
0.00624322
0.0059616
0.00601211
0.00632684
0.0067445
0.00735873
0.00839099
0.00841521
0.00737302
0.00675322
0.0063328
0.00601624
0.00601161
0.00632619
0.00674351
0.00735639
0.00838075
0.00840457
0.00737062
0.00675225
0.00633222
0.00601581
0.00595626
0.00623607
0.00657736
0.00697854
0.00735891
0.0073643
0.0069869
0.00658455
0.00624174
0.00596047
0.00586953
0.00609296
0.00634007
0.00657802
0.00674541
0.00674764
0.00658306
0.00634569
0.00609812
0.0058737
0.0057864
0.00593179
0.00609318
0.00623676
0.00632759
0.00632896
0.00624027
0.0060977
0.00593644
0.00579049
0.00577057
0.0057864
0.0058697
0.00595676
0.00601258
0.00601359
0.00595947
0.00587344
0.00579054
0.00577448
0.00576476
0.00577778
0.00585861
0.00594383
0.00599887
0.00600031
0.00594765
0.00586376
0.00578332
0.00576973
0.0057778
0.00591894
0.00607642
0.00621714
0.00630688
0.00630892
0.00622233
0.00608298
0.00592552
0.00578334
0.00585808
0.00607569
0.00631691
0.00655066
0.00671704
0.00672051
0.00655841
0.00632541
0.00608329
0.00586402
0.00594209
0.00621466
0.00654819
0.00694394
0.00732592
0.00733463
0.00695719
0.00655939
0.00622331
0.00594835
0.00599518
0.0063015
0.00670952
0.00731567
0.0083595
0.00839987
0.00733855
0.00672337
0.00631093
0.00600166
0.00599435
0.00630041
0.0067078
0.00731165
0.0083416
0.00838084
0.00733439
0.00672165
0.00630988
0.00600088
0.00593985
0.00621184
0.00654429
0.00693767
0.00731537
0.00732394
0.00695087
0.00655555
0.00622063
0.00594626
0.00585496
0.00607199
0.00631247
0.00654517
0.0067105
0.00671399
0.00655304
0.00632117
0.00607985
0.00586115
0.00577425
0.00591502
0.00607221
0.00621267
0.00630225
0.00630437
0.00621809
0.00607911
0.005922
0.00578019
0.00576126
0.00577415
0.00585501
0.00594033
0.00599549
0.00599704
0.00594445
0.00586063
0.00578024
0.00576679
0.00576444
0.00577658
0.00585672
0.00594161
0.00599682
0.0059989
0.00594716
0.00586428
0.00578477
0.00577182
0.00577654
0.00591595
0.00607188
0.00621172
0.00630158
0.00630459
0.00621937
0.00608156
0.00592567
0.00578473
0.00585571
0.00607066
0.00630919
0.00654125
0.00670786
0.00671301
0.00655277
0.00632179
0.00608189
0.00586449
0.00593869
0.00620777
0.00653738
0.00693011
0.0073128
0.00732589
0.0069499
0.00655401
0.00622053
0.00594789
0.00599109
0.0062933
0.00669631
0.00729715
0.00834059
0.00840179
0.00733127
0.00671675
0.00630705
0.0060004
0.00599009
0.00629184
0.00669385
0.00729107
0.00831254
0.00837039
0.00732437
0.00671389
0.00630527
0.00599907
0.00593598
0.00620399
0.00653177
0.00692056
0.00729604
0.00730838
0.00693937
0.00654756
0.00621597
0.00594435
0.00585194
0.00606575
0.00630283
0.00653284
0.00669731
0.00670217
0.00654367
0.00631456
0.006076
0.00585959
0.00577235
0.00591087
0.00606592
0.00620488
0.00629404
0.00629688
0.00621205
0.00607485
0.00591957
0.0057793
0.00576059
0.00577212
0.00585179
0.00593631
0.00599128
0.00599327
0.00594155
0.00585875
0.00577937
0.00576672
0.00576109
0.00577262
0.00585263
0.00593777
0.00599362
0.00599654
0.00594558
0.00586328
0.00578417
0.00577144
0.00577258
0.00591098
0.0060664
0.00620638
0.00629709
0.00630133
0.00621715
0.00608005
0.00592465
0.00578404
0.00585112
0.00606462
0.00630206
0.00653389
0.00670179
0.00670908
0.00655014
0.00631977
0.00608035
0.00586335
0.00593358
0.0062007
0.00652835
0.00691987
0.00730462
0.00732311
0.00694769
0.00655158
0.00621837
0.00594619
0.00598571
0.00628553
0.00668556
0.00728259
0.00832448
0.00841048
0.00732987
0.00671358
0.00630408
0.00599804
0.00598485
0.00628402
0.00668266
0.00727458
0.00828495
0.00836268
0.00731927
0.00670918
0.00630139
0.00599608
0.00593128
0.00619688
0.00652181
0.00690742
0.0072809
0.00729692
0.00693159
0.0065417
0.00621149
0.00594096
0.00584807
0.00605985
0.00629487
0.00652316
0.00668705
0.00669305
0.00653635
0.00630881
0.00607154
0.0058562
0.00576946
0.0059064
0.00606007
0.00619801
0.00628684
0.00629014
0.00620623
0.00607003
0.00591568
0.00577624
0.00575884
0.00576923
0.00584795
0.00593176
0.00598645
0.00598862
0.00593739
0.00585522
0.00577645
0.00576436
0.00575951
0.00577065
0.00585075
0.00593639
0.00599308
0.00599687
0.00594647
0.00586435
0.00578513
0.00577205
0.00577079
0.00590855
0.0060638
0.00620426
0.00629612
0.00630168
0.00621831
0.0060814
0.00592586
0.0057849
0.0058491
0.00606163
0.00629847
0.00653062
0.00670031
0.00670993
0.00655194
0.00632143
0.00608164
0.00586425
0.00593141
0.00619719
0.00652354
0.00691457
0.00730211
0.00732648
0.00695095
0.0065535
0.00621952
0.00594694
0.00598368
0.00628183
0.00667972
0.00727385
0.00831447
0.00842646
0.00733449
0.00671508
0.0063047
0.00599838
0.00598331
0.00628076
0.00667699
0.00726479
0.00826515
0.00836101
0.00731978
0.00670906
0.0063011
0.00599586
0.00593053
0.0061946
0.0065176
0.00690091
0.00727276
0.00729162
0.00692899
0.00654014
0.00621046
0.0059403
0.00584821
0.00605878
0.00629243
0.00651947
0.00668277
0.00668931
0.00653367
0.00630696
0.0060703
0.00585537
0.00577047
0.00590652
0.00605926
0.00619638
0.00628473
0.00628803
0.00620446
0.00606869
0.00591471
0.00577555
0.00576059
0.00577038
0.00584847
0.00593166
0.00598589
0.00598786
0.00593667
0.00585463
0.00577602
0.005764
0.00575795
0.00576844
0.00584833
0.00593418
0.00599143
0.00599583
0.00594575
0.00586358
0.0057841
0.00577067
0.00576901
0.00590598
0.00606089
0.0062016
0.00629437
0.00630097
0.00621812
0.00608111
0.00592517
0.00578377
0.00584719
0.00605876
0.00629497
0.00652727
0.00669843
0.00671006
0.00655273
0.00632177
0.00608129
0.00586335
0.00592956
0.00619418
0.00651939
0.00690985
0.00729954
0.00732905
0.00695336
0.00655439
0.00621932
0.00594611
0.00598221
0.00627908
0.00667526
0.00726689
0.00830561
0.00843944
0.00733813
0.00671574
0.0063042
0.00599736
0.00598259
0.00627887
0.00667341
0.00725825
0.00825149
0.00835999
0.00731992
0.00670833
0.0062999
0.00599445
0.00593079
0.00619396
0.00651574
0.00689753
0.00726805
0.00728809
0.00692672
0.00653824
0.00620863
0.00593852
0.00584944
0.00605933
0.00629214
0.00651826
0.00668077
0.00668699
0.00653142
0.00630484
0.00606827
0.00585344
0.00577248
0.00590803
0.00606012
0.00619652
0.00628412
0.00628681
0.00620288
0.00606692
0.00591285
0.00577369
0.00576309
0.0057725
0.00585008
0.00593265
0.00598617
0.00598747
0.00593576
0.00585338
0.00577455
0.00576239
0.00575809
0.00576793
0.00584728
0.00593285
0.00599011
0.00599465
0.00594459
0.00586224
0.0057825
0.00576886
0.00576903
0.00590523
0.00605948
0.00619991
0.00629288
0.00629991
0.00621721
0.00607999
0.00592371
0.00578207
0.00584727
0.00605794
0.00629328
0.00652515
0.0066968
0.00670949
0.00655247
0.0063211
0.00608008
0.00586184
0.00592989
0.00619355
0.00651762
0.0069071
0.00729735
0.00732976
0.0069541
0.0065541
0.00621827
0.00594472
0.00598308
0.0062791
0.00667403
0.00726382
0.00830011
0.0084449
0.00733939
0.00671528
0.00630298
0.00599589
0.00598431
0.00628002
0.00667364
0.0072572
0.00824821
0.0083598
0.00731916
0.00670698
0.00629822
0.00599271
0.00593343
0.0061963
0.00651755
0.00689869
0.00726826
0.00728711
0.00692503
0.00653626
0.00620654
0.00593648
0.0058528
0.00606257
0.00629498
0.00652045
0.00668189
0.00668672
0.00653005
0.0063029
0.00606608
0.00585125
0.00577624
0.00591172
0.00606343
0.00619914
0.0062857
0.0062871
0.00620203
0.0060653
0.0059108
0.0057715
0.00576679
0.00577615
0.0058534
0.00593534
0.00598791
0.00598807
0.00593529
0.0058521
0.00577272
0.00576032
0.00575893
0.00576837
0.00584708
0.00593199
0.00598875
0.00599298
0.00594271
0.00586022
0.00578042
0.00576693
0.00576981
0.00590554
0.00605907
0.00619874
0.00629115
0.00629789
0.00621503
0.00607766
0.00592132
0.0057799
0.00584826
0.00605841
0.0062929
0.0065238
0.00669472
0.00670719
0.00655013
0.00631863
0.00607757
0.00585955
0.00593131
0.00619454
0.00651776
0.00690602
0.00729483
0.00732677
0.00695146
0.00655146
0.00621564
0.00594236
0.00598517
0.00628103
0.0066755
0.00726461
0.00829878
0.00843827
0.00733583
0.00671224
0.00630013
0.00599339
0.00598716
0.00628306
0.00667684
0.0072612
0.00825568
0.00835738
0.0073154
0.00670357
0.0062951
0.00599002
0.00593685
0.00620016
0.00652171
0.00690314
0.00727201
0.00728691
0.00692231
0.00653299
0.00620333
0.00593366
0.00585645
0.00606669
0.0062992
0.00652431
0.0066844
0.00668684
0.00652817
0.00630005
0.00606299
0.00584842
0.00577975
0.00591561
0.00606724
0.00620236
0.00628765
0.0062873
0.00620063
0.00606287
0.00590793
0.00576877
0.00576976
0.00577938
0.00585647
0.00593784
0.00598939
0.00598819
0.00593413
0.00585001
0.00577014
0.00575778
0.00575991
0.00576945
0.00584777
0.00593205
0.00598809
0.00599175
0.00594118
0.00585863
0.005779
0.00576596
0.00577082
0.00590662
0.00605971
0.00619855
0.00628996
0.00629589
0.00621265
0.00607529
0.00591927
0.00577847
0.00584959
0.00605982
0.00629384
0.00652368
0.006693
0.00670411
0.0065467
0.00631549
0.00607498
0.00585774
0.00593318
0.00619669
0.00651972
0.00690701
0.00729293
0.00732106
0.00694628
0.00654746
0.00621258
0.00594023
0.00598768
0.00628422
0.00667933
0.00726938
0.00830293
0.00842084
0.00732816
0.00670751
0.00629674
0.00599107
0.00599017
0.00628712
0.00668226
0.00726961
0.00827281
0.00835189
0.00730912
0.00669902
0.00629171
0.00598767
0.00593996
0.00620441
0.00652713
0.0069098
0.00727825
0.00728707
0.006919
0.00652935
0.00620024
0.00593144
0.00585921
0.00607046
0.00630365
0.0065288
0.00668755
0.00668718
0.00652623
0.00629728
0.00606034
0.00584645
0.00578186
0.00591853
0.00607049
0.00620531
0.00628947
0.00628741
0.00619923
0.0060607
0.00590572
0.00576711
0.00577103
0.00578129
0.00585853
0.00593962
0.00599036
0.00598805
0.00593297
0.00584827
0.00576832
0.0057564
0.00576015
0.00577018
0.00584851
0.00593243
0.00598785
0.0059909
0.00594002
0.00585756
0.00577828
0.00576586
0.0057711
0.00590743
0.00606052
0.00619881
0.00628919
0.00629411
0.00621043
0.00607328
0.00591787
0.00577793
0.00585014
0.00606099
0.00629512
0.00652422
0.00669168
0.00670077
0.00654288
0.00631236
0.0060729
0.00585678
0.00593417
0.00619858
0.00652221
0.00690919
0.00729175
0.00731387
0.00693976
0.00654307
0.00620991
0.00593895
0.00598913
0.00628698
0.00668373
0.00727629
0.00831105
0.00839712
0.00731824
0.00670236
0.00629386
0.00598972
0.00599177
0.00629032
0.00668775
0.00727968
0.00829486
0.0083439
0.00730182
0.00669462
0.00628918
0.00598657
0.00594121
0.0062072
0.00653175
0.00691642
0.00728493
0.00728721
0.00691592
0.00652652
0.00619846
0.00593082
0.00585973
0.00607227
0.00630659
0.00653231
0.0066902
0.00668749
0.00652483
0.00629562
0.00605929
0.00584637
0.00578153
0.00591925
0.0060719
0.0062069
0.00629049
0.00628738
0.00619839
0.00605974
0.00590523
0.00576748
0.00576997
0.00578102
0.00585876
0.00594
0.0059905
0.00598773
0.00593234
0.00584773
0.00576822
0.00575707
0.00575979
0.00577036
0.00584895
0.00593275
0.00598769
0.00599016
0.00593896
0.00585658
0.00577767
0.00576579
0.00577072
0.00590766
0.00606106
0.00619911
0.00628861
0.00629251
0.00620839
0.00607153
0.00591681
0.00577767
0.00584984
0.00606148
0.00629611
0.0065249
0.00669063
0.00669756
0.0065392
0.00630961
0.00607141
0.00585642
0.00593405
0.00619953
0.00652422
0.00691153
0.00729095
0.00730657
0.00693331
0.00653927
0.00620818
0.00593864
0.00598911
0.00628838
0.0066872
0.00728299
0.00831971
0.00837309
0.00730884
0.00669832
0.0062924
0.00598979
0.00599152
0.00629165
0.0066916
0.00728847
0.00831614
0.0083369
0.00729615
0.00669208
0.00628866
0.00598737
0.00594037
0.00620777
0.00653426
0.00692126
0.00729065
0.00728807
0.00691467
0.00652595
0.00619907
0.00593247
0.00585813
0.00607179
0.00630738
0.00653412
0.00669206
0.00668832
0.00652506
0.00629624
0.00606078
0.00584872
0.00577928
0.00591786
0.00607138
0.00620704
0.00629091
0.0062878
0.00619899
0.00606093
0.00590723
0.00577027
0.00576734
0.00577907
0.00585746
0.00593929
0.00599024
0.00598786
0.005933
0.0058491
0.00577042
0.00576003
0.00575964
0.00577044
0.00584916
0.0059328
0.00598718
0.0059889
0.00593718
0.00585465
0.00577588
0.00576427
0.00577043
0.0059077
0.00606131
0.00619913
0.00628775
0.00629052
0.00620583
0.0060691
0.00591486
0.00577625
0.0058494
0.00606155
0.00629664
0.00652525
0.00668939
0.00669415
0.0065353
0.00630659
0.00606952
0.0058554
0.00593343
0.00619966
0.00652535
0.00691312
0.00728975
0.00729954
0.00692732
0.00653592
0.00620672
0.00593832
0.00598817
0.00628842
0.00668899
0.00728756
0.0083252
0.00835272
0.00730155
0.00669578
0.00629206
0.00599054
0.00599007
0.00629119
0.0066931
0.00729395
0.00833225
0.00833457
0.00729383
0.00669195
0.00628996
0.00598943
0.0059383
0.00620651
0.00653446
0.00692358
0.00729481
0.00729049
0.00691617
0.00652799
0.00620187
0.0059357
0.00585556
0.0060698
0.0063064
0.00653436
0.00669334
0.00669016
0.00652738
0.00629926
0.00606444
0.0058527
0.00577649
0.00591546
0.00606972
0.00620631
0.00629119
0.0062891
0.00620131
0.00606418
0.00591121
0.00577457
0.00576463
0.00577664
0.00585562
0.00593823
0.00599013
0.00598883
0.00593508
0.0058522
0.0057743
0.00576426
0.00576067
0.00577133
0.0058498
0.00593291
0.00598638
0.00598702
0.00593445
0.00585151
0.00577263
0.0057611
0.00577127
0.00590848
0.00606191
0.00619916
0.00628657
0.00628788
0.0062023
0.00606542
0.00591139
0.0057731
0.00584994
0.00606217
0.00629734
0.00652545
0.00668778
0.00669022
0.00653067
0.00630259
0.00606634
0.00585284
0.0059335
0.0062
0.0065262
0.00691401
0.00728777
0.00729253
0.00692136
0.0065322
0.00620449
0.00593685
0.00598761
0.00628823
0.00668974
0.00728987
0.00832607
0.00833641
0.00729612
0.0066939
0.00629161
0.00599062
0.00598884
0.00629025
0.00669311
0.00729635
0.00834282
0.00833841
0.00729467
0.00669329
0.00629172
0.00599119
0.0059366
0.00620492
0.00653356
0.0069242
0.00729804
0.00729486
0.00692003
0.00653159
0.0062053
0.00593874
0.00585373
0.00606794
0.00630503
0.00653408
0.00669471
0.00669315
0.00653129
0.00630349
0.00606859
0.00585637
0.00577482
0.00591369
0.00606832
0.00620578
0.00629196
0.00629133
0.0062047
0.00606822
0.00591538
0.00577831
0.00576328
0.00577518
0.00585445
0.00593773
0.00599066
0.00599056
0.00593788
0.00585568
0.005778
0.00576761
0.00576335
0.00577372
0.00585159
0.00593377
0.00598597
0.00598523
0.00593162
0.00584816
0.00576916
0.0057578
0.0057738
0.00591077
0.00606367
0.00619989
0.00628564
0.00628512
0.00619836
0.00606113
0.00590722
0.0057693
0.00585212
0.00606423
0.00629908
0.00652621
0.00668625
0.00668601
0.00652545
0.00629769
0.00606208
0.00584919
0.00593513
0.00620163
0.00652784
0.00691508
0.00728546
0.00728532
0.0069149
0.00652754
0.00620097
0.00593396
0.00598851
0.00628914
0.00669092
0.00729151
0.00832419
0.00832172
0.00729086
0.00669125
0.0062898
0.00598907
0.00598906
0.00629035
0.00669342
0.00729788
0.00835128
0.00834581
0.00729629
0.00669403
0.00629206
0.00599111
0.00593646
0.00620454
0.00653326
0.00692483
0.00730141
0.00730026
0.00692421
0.00653444
0.00620711
0.00593964
0.00585362
0.00606753
0.00630464
0.0065344
0.00669657
0.00669651
0.00653498
0.00630663
0.00607081
0.00585753
0.00577497
0.00591349
0.00606811
0.00620607
0.00629322
0.0062936
0.00620746
0.00607078
0.00591725
0.00577918
0.00576364
0.0057752
0.00585444
0.00593803
0.00599156
0.00599209
0.00593972
0.00585734
0.00577907
0.0057678
0.00576696
0.00577729
0.00585461
0.00593581
0.00598665
0.00598452
0.00592991
0.00584598
0.00576692
0.00575592
0.00577744
0.00591445
0.00606681
0.00620187
0.00628578
0.0062833
0.00619525
0.0060576
0.00590383
0.00576646
0.00585559
0.00606781
0.00630229
0.00652821
0.00668569
0.0066825
0.00652062
0.00629295
0.00605792
0.00584578
0.00593822
0.0062049
0.00653106
0.00691746
0.00728409
0.00727845
0.00690817
0.00652223
0.00619671
0.0059305
0.00599103
0.00629183
0.00669382
0.00729474
0.008324
0.0083061
0.00728416
0.00668698
0.00628636
0.00598611
0.00599101
0.00629232
0.00669555
0.0073012
0.00836189
0.00835066
0.00729546
0.00669233
0.00628997
0.00598887
0.00593806
0.00620601
0.00653469
0.00692689
0.00730542
0.00730448
0.00692606
0.00653446
0.00620595
0.00593782
0.00585508
0.00606878
0.00630574
0.00653573
0.00669856
0.00669877
0.00653642
0.00630677
0.00606973
0.00585561
0.00577636
0.00591462
0.00606903
0.00620698
0.00629429
0.00629463
0.00620791
0.00607027
0.00591569
0.00577681
0.00576488
0.00577615
0.00585513
0.00593856
0.005992
0.00599227
0.00593929
0.00585601
0.00577679
0.0057648
0.00576939
0.00578027
0.00585755
0.00593822
0.00598813
0.00598496
0.00592957
0.0058453
0.00576629
0.00575576
0.00578028
0.00591791
0.00607025
0.00620456
0.00628701
0.00628283
0.00619364
0.00605562
0.0059021
0.00576544
0.0058587
0.00607161
0.00630618
0.00653127
0.00668647
0.0066804
0.0065171
0.00628942
0.00605503
0.00584382
0.00594145
0.00620889
0.00653546
0.0069215
0.00728473
0.00727284
0.00690195
0.00651722
0.00619289
0.0059278
0.00599418
0.00629574
0.00669858
0.00730095
0.00832976
0.008289
0.00727566
0.0066815
0.00628224
0.00598304
0.00599388
0.00629582
0.00669986
0.00730774
0.00837678
0.00834699
0.00729035
0.00668799
0.00628618
0.00598575
0.00594055
0.00620889
0.00653793
0.00693074
0.00730966
0.00730546
0.00692412
0.00653138
0.00620255
0.00593471
0.00585715
0.00607103
0.00630797
0.00653779
0.00670007
0.00669891
0.00653488
0.00630404
0.00606642
0.00585239
0.00577798
0.00591632
0.00607049
0.00620801
0.00629461
0.00629391
0.006206
0.00606736
0.00591222
0.00577342
0.00576606
0.00577731
0.00585596
0.00593891
0.00599164
0.00599101
0.00593704
0.00585293
0.00577322
0.00576133
0.00576852
0.00578037
0.0058583
0.00593924
0.005989
0.00598545
0.00592974
0.00584542
0.00576663
0.0057567
0.00578013
0.00591885
0.00607184
0.00620623
0.00628806
0.00628293
0.00619307
0.00605498
0.00590188
0.005766
0.00585937
0.00607345
0.00630877
0.00653383
0.00668763
0.00667938
0.00651498
0.00628746
0.00605386
0.00584366
0.00594294
0.00621166
0.00653936
0.00692594
0.00728682
0.00726875
0.00689697
0.00651351
0.00619057
0.00592678
0.00599632
0.00629926
0.00670384
0.00730921
0.00834148
0.00827183
0.00726667
0.00667626
0.00627901
0.00598131
0.0059963
0.00629952
0.00670533
0.00731684
0.00839497
0.00833434
0.00728209
0.00668268
0.00628263
0.00598365
0.00594281
0.00621213
0.00654216
0.00693586
0.00731365
0.00730318
0.00691949
0.00652707
0.0061992
0.00593257
0.00585898
0.00607353
0.00631077
0.0065403
0.00670111
0.00669751
0.00653179
0.00630058
0.00606343
0.00585043
0.00577932
0.00591812
0.00607225
0.00620918
0.00629462
0.00629247
0.00620348
0.00606448
0.00590967
0.00577177
0.00576703
0.00577859
0.00585704
0.0059394
0.00599124
0.00598963
0.00593495
0.00585064
0.00577125
0.00576017
0.00576437
0.00577705
0.00585587
0.00593763
0.00598799
0.00598482
0.00592941
0.00584544
0.00576712
0.00575777
0.00577661
0.00591623
0.00607014
0.00620524
0.00628738
0.00628228
0.00619254
0.00605485
0.00590237
0.00576719
0.00585687
0.00607196
0.00630829
0.00653394
0.00668742
0.00667825
0.00651361
0.00628668
0.00605399
0.00584468
0.00594172
0.00621165
0.00654071
0.00692837
0.00728803
0.00726542
0.00689345
0.00651147
0.00619001
0.0059274
0.00599641
0.00630082
0.00670754
0.00731654
0.00835364
0.00825653
0.00725917
0.00667272
0.00627769
0.00598146
0.00599735
0.00630213
0.00671029
0.00732628
0.00841378
0.008319
0.00727403
0.0066787
0.00628097
0.00598356
0.00594426
0.00621491
0.00654646
0.00694151
0.00731777
0.00730015
0.00691501
0.00652402
0.00619782
0.00593262
0.00586042
0.00607596
0.00631391
0.00654338
0.00670262
0.00669646
0.00652955
0.00629874
0.0060627
0.00585092
0.00578065
0.00592017
0.00607455
0.00621109
0.00629547
0.00629207
0.00620245
0.0060637
0.0059097
0.00577283
0.0057683
0.00578039
0.00585887
0.00594084
0.00599197
0.00598966
0.00593473
0.00585074
0.00577204
0.00576183
0.00575903
0.00577181
0.00585114
0.00593369
0.00598501
0.00598279
0.00592825
0.00584501
0.00576727
0.00575831
0.0057714
0.00591111
0.00606553
0.00620136
0.00628437
0.00628019
0.00619137
0.00605454
0.00590276
0.00576803
0.00585241
0.00606769
0.00630452
0.00653072
0.00668459
0.00667592
0.00651222
0.00628637
0.00605456
0.00584584
0.0059385
0.00620889
0.00653871
0.00692696
0.00728586
0.00726162
0.00689104
0.0065108
0.00619058
0.00592871
0.00599474
0.00630006
0.00670835
0.00731987
0.00835851
0.00824415
0.00725449
0.0066714
0.00627812
0.00598281
0.00599712
0.00630317
0.00671352
0.00733383
0.00843115
0.00830954
0.00726938
0.00667732
0.00628144
0.00598501
0.005945
0.00621694
0.00655022
0.00694714
0.00732293
0.00729956
0.00691324
0.00652355
0.00619871
0.00593436
0.00586171
0.00607831
0.00631726
0.0065472
0.00670552
0.00669744
0.00652971
0.0062994
0.00606423
0.00585309
0.00578225
0.00592256
0.00607747
0.00621407
0.00629785
0.00629363
0.00620369
0.00606526
0.00591183
0.00577543
0.00576999
0.00578268
0.00586146
0.00594339
0.00599416
0.00599148
0.00593651
0.00585281
0.00577455
0.00576469
0.00575522
0.00576724
0.00584628
0.00592906
0.00598118
0.00598017
0.00592684
0.00584454
0.00576737
0.00575851
0.00576718
0.005906
0.00606002
0.00619599
0.00627982
0.00627707
0.00618977
0.00605408
0.00590293
0.00576834
0.00584844
0.0060628
0.00629907
0.00652503
0.00667938
0.00667235
0.00651062
0.00628616
0.00605506
0.00584652
0.00593532
0.00620504
0.00653435
0.00692176
0.00727947
0.00725686
0.00688945
0.00651094
0.00619149
0.00592981
0.00599281
0.00629802
0.00670652
0.00731795
0.00835137
0.00823529
0.007253
0.00667193
0.0062794
0.00598425
0.00599658
0.00630315
0.00671477
0.00733806
0.00844538
0.00831133
0.00726948
0.00667837
0.00628307
0.00598669
0.00594563
0.00621838
0.00655307
0.00695207
0.00732927
0.00730293
0.00691487
0.00652526
0.0062007
0.00593625
0.0058631
0.00608048
0.00632042
0.00655128
0.00670967
0.00670058
0.00653208
0.00630165
0.00606652
0.00585514
0.00578405
0.00592494
0.00608044
0.00621745
0.00630119
0.00629658
0.0062063
0.00606775
0.00591423
0.0057775
0.00577171
0.00578482
0.00586399
0.00594616
0.00599691
0.00599406
0.00593892
0.00585512
0.00577669
0.00576651
0.0057548
0.00576565
0.0058437
0.00592602
0.00597848
0.00597854
0.00592648
0.00584512
0.00576841
0.00575952
0.00576587
0.00590335
0.00605624
0.0061916
0.00627585
0.00627458
0.00618896
0.00605443
0.00590376
0.0057691
0.00584681
0.00605968
0.0062945
0.00651933
0.00667386
0.00666902
0.00650978
0.00628668
0.00605599
0.0058473
0.00593377
0.00620212
0.00652979
0.00691495
0.00727099
0.00725252
0.00688923
0.00651203
0.00619271
0.00593071
0.00599173
0.00629603
0.00670334
0.00731196
0.00833457
0.00823157
0.00725474
0.00667383
0.00628095
0.00598526
0.00599613
0.00630246
0.00671407
0.00733812
0.00845292
0.00832371
0.00727367
0.00668086
0.00628479
0.0059877
0.0059457
0.00621868
0.00655407
0.00695469
0.00733477
0.00730889
0.00691869
0.0065278
0.00620241
0.00593714
0.00586339
0.00608116
0.00632182
0.00655375
0.00671318
0.00670424
0.00653509
0.0063039
0.00606803
0.00585581
0.00578419
0.00592542
0.0060815
0.00621922
0.00630355
0.0062991
0.00620856
0.0060695
0.00591535
0.00577787
0.00577126
0.00578464
0.00586432
0.00594706
0.00599828
0.00599563
0.00594037
0.00585618
0.00577721
0.00576637
0.00575797
0.00576809
0.00584525
0.00592692
0.00597941
0.00598025
0.00592927
0.00584879
0.00577257
0.0057637
0.00576779
0.00590439
0.00605627
0.00619093
0.00627542
0.00627544
0.00619137
0.00605785
0.00590757
0.00577277
0.00584765
0.00605941
0.0062929
0.00651665
0.00667151
0.00666904
0.00651212
0.00629001
0.00605941
0.00585036
0.00593364
0.00620079
0.00652674
0.00690967
0.00726511
0.00725239
0.00689251
0.00651562
0.0061958
0.00593315
0.00599069
0.00629392
0.0066994
0.00730401
0.00831627
0.00823767
0.00726073
0.00667781
0.00628363
0.00598703
0.00599417
0.00629975
0.00671024
0.00733224
0.00844642
0.00834107
0.00728075
0.00668454
0.00628688
0.00598878
0.0059427
0.00621534
0.00655057
0.00695163
0.0073348
0.00731371
0.00692288
0.00653039
0.00620379