/*--------------------------------*- C++ -*----------------------------------*\
| =========                 |                                                 |
| \\      /  F ield         | OpenFOAM: The Open Source CFD Toolbox           |
|  \\    /   O peration     | Version:  2406                                  |
|   \\  /    A nd           | Website:  www.openfoam.com                      |
|    \\/     M anipulation  |                                                 |
\*---------------------------------------------------------------------------*/
FoamFile
{
    version     2.0;
    format      ascii;
    arch        "LSB;label=32;scalar=64";
    class       volSymmTensorField;
    location    "0.9";
    object      turbulenceProperties:R;
}
// * * * * * * * * * * * * * * * * * * * * * * * * * * * * * * * * * * * * * //

dimensions      [0 2 -2 0 0 0 0];

internalField   uniform (0 -0 -0 0 -0 0);

boundaryField
{
    walls
    {
        type            calculated;
        value           nonuniform List<symmTensor> 
2000
(
(-8.57822e-08 7.13948e-08 2.96538e-07 -5.45592e-08 -2.50432e-07 1.40341e-07)
(-1.4812e-07 9.04478e-08 4.68693e-07 -5.04366e-08 -2.88994e-07 1.98557e-07)
(-2.24726e-07 9.40403e-08 6.72801e-07 -3.32495e-08 -2.81268e-07 2.57976e-07)
(-2.95118e-07 7.27126e-08 8.5275e-07 -1.06397e-08 -2.06818e-07 3.05758e-07)
(-3.38018e-07 2.73266e-08 9.58493e-07 5.73044e-09 -7.62308e-08 3.32288e-07)
(-3.38017e-07 -2.73322e-08 9.58491e-07 5.72948e-09 7.62317e-08 3.32287e-07)
(-2.95115e-07 -7.2717e-08 8.52745e-07 -1.06423e-08 2.06817e-07 3.05757e-07)
(-2.24722e-07 -9.40427e-08 6.72795e-07 -3.32525e-08 2.81266e-07 2.57974e-07)
(-1.48116e-07 -9.04491e-08 4.68688e-07 -5.04401e-08 2.88991e-07 1.98556e-07)
(-8.57778e-08 -7.1395e-08 2.96534e-07 -5.45628e-08 2.50429e-07 1.40341e-07)
(-2.64654e-09 1.14448e-09 1.2726e-07 -1.96896e-10 -1.07049e-07 2.84344e-09)
(-4.9666e-09 8.60252e-10 1.94546e-07 2.49052e-10 -1.19481e-07 4.71755e-09)
(-6.63961e-09 9.82338e-10 2.7815e-07 -3.4529e-10 -1.16021e-07 6.9849e-09)
(-8.44361e-09 7.32541e-10 3.54302e-07 -5.18854e-10 -8.57982e-08 8.96246e-09)
(-9.5172e-09 3.05984e-10 3.99912e-07 -6.37004e-10 -3.17685e-08 1.01542e-08)
(-9.51346e-09 -3.29292e-10 3.99907e-07 -6.40842e-10 3.17695e-08 1.01543e-08)
(-8.43383e-09 -7.51394e-10 3.54288e-07 -5.28943e-10 8.5796e-08 8.96278e-09)
(-6.62775e-09 -9.93809e-10 2.78132e-07 -3.575e-10 1.16014e-07 6.98525e-09)
(-4.95562e-09 -8.65598e-10 1.94528e-07 2.37665e-10 1.1947e-07 4.71795e-09)
(-2.63905e-09 -1.14549e-09 1.27246e-07 -2.04826e-10 1.07036e-07 2.84388e-09)
(-2.75513e-10 -8.4935e-12 4.46968e-08 -1.36575e-10 -3.747e-08 4.12088e-10)
(-3.67586e-10 -6.66067e-11 6.66112e-08 -2.7072e-10 -4.07718e-08 6.38306e-10)
(-3.79917e-10 -1.50749e-11 9.46026e-08 -5.34436e-10 -3.93827e-08 9.14353e-10)
(-4.70711e-10 2.62086e-11 1.20942e-07 -6.85216e-10 -2.92608e-08 1.15593e-09)
(-5.51629e-10 1.57544e-11 1.36964e-07 -7.48498e-10 -1.0873e-08 1.30013e-09)
(-5.47814e-10 -4.02791e-11 1.36953e-07 -7.525e-10 1.08739e-08 1.30031e-09)
(-4.60879e-10 -4.58365e-11 1.20913e-07 -6.95583e-10 2.92554e-08 1.15646e-09)
(-3.68222e-10 3.23206e-12 9.45637e-08 -5.46775e-10 3.93679e-08 9.14996e-10)
(-3.57078e-10 6.11735e-11 6.65722e-08 -2.81895e-10 4.07489e-08 6.38973e-10)
(-2.68716e-10 7.42286e-12 4.46632e-08 -1.43968e-10 3.74424e-08 4.12685e-10)
(-6.71202e-11 6.7042e-11 5.85186e-08 4.1942e-11 -4.91106e-08 2.51782e-11)
(-1.77424e-10 5.07854e-11 8.78402e-08 1.2572e-10 -5.38128e-08 5.17047e-11)
(-2.48385e-10 4.10068e-11 1.24769e-07 1.60795e-10 -5.19592e-08 8.75892e-11)
(-3.16951e-10 8.71759e-12 1.59058e-07 1.95303e-10 -3.84822e-08 1.21648e-10)
(-3.46086e-10 -1.62688e-11 1.7977e-07 2.01567e-10 -1.42689e-08 1.44519e-10)
(-3.37272e-10 -4.03738e-11 1.7974e-07 1.92214e-10 1.4271e-08 1.45059e-10)
(-2.94254e-10 -5.39972e-11 1.58978e-07 1.71081e-10 3.84671e-08 1.23173e-10)
(-2.21427e-10 -6.8232e-11 1.24662e-07 1.31927e-10 5.19182e-08 8.94993e-11)
(-1.53835e-10 -6.27865e-11 8.77336e-08 1.00192e-10 5.375e-08 5.36423e-11)
(-5.27681e-11 -6.90855e-11 5.84286e-08 2.59801e-11 4.90363e-08 2.6788e-11)
(-1.34684e-11 -7.29405e-12 4.58354e-08 -5.13511e-11 -3.84367e-08 6.48195e-11)
(-1.10612e-11 -5.75459e-12 6.83881e-08 -8.70111e-11 -4.18644e-08 9.80723e-11)
(-1.44262e-11 4.6321e-12 9.71186e-08 -1.223e-10 -4.04317e-08 1.36726e-10)
(-3.36062e-11 4.25874e-13 1.2402e-07 -1.36807e-10 -3.00024e-08 1.70413e-10)
(-4.64386e-11 -2.84478e-11 1.40341e-07 -1.43903e-10 -1.11381e-08 1.90341e-10)
(-3.23615e-11 -6.24833e-11 1.40287e-07 -1.58763e-10 1.11418e-08 1.91125e-10)
(2.73265e-12 -7.33735e-11 1.23876e-07 -1.75369e-10 2.9975e-08 1.72637e-10)
(2.90853e-11 -4.90276e-11 9.69272e-08 -1.68616e-10 4.03581e-08 1.3953e-10)
(2.75007e-11 -1.42427e-11 6.81984e-08 -1.28476e-10 4.17527e-08 1.00975e-10)
(1.05951e-11 3.56939e-12 4.56759e-08 -7.78527e-11 3.83051e-08 6.72575e-11)
(6.22059e-12 1.84298e-11 4.99047e-08 -9.11245e-13 -4.18622e-08 -5.30934e-12)
(-2.70783e-11 1.57777e-11 7.4612e-08 3.12741e-11 -4.56858e-08 -4.19575e-12)
(-6.13036e-11 -3.89591e-12 1.05937e-07 6.29343e-11 -4.41059e-08 -1.63069e-12)
(-8.26605e-11 -4.01617e-11 1.35151e-07 8.05414e-11 -3.26933e-08 2.11916e-12)
(-7.88111e-11 -8.02753e-11 1.52819e-07 7.32338e-11 -1.21253e-08 5.57735e-12)
(-4.98508e-11 -1.06239e-10 1.52716e-07 4.27754e-11 1.21319e-08 7.07539e-12)
(-7.51257e-12 -1.10263e-10 1.34872e-07 1.06894e-12 3.26397e-08 6.44363e-12)
(2.964e-11 -8.86418e-11 1.05564e-07 -3.36592e-11 4.39623e-08 4.01919e-12)
(5.38765e-11 -5.753e-11 7.42388e-08 -5.57613e-11 4.54659e-08 1.88489e-12)
(5.65079e-11 -2.59951e-11 4.95874e-08 -5.64519e-11 4.16005e-08 -5.59313e-14)
(-1.71842e-13 -1.22231e-12 4.71244e-08 -7.03726e-12 -3.952e-08 7.2091e-12)
(-1.86091e-11 -1.1562e-11 7.02714e-08 5.69891e-12 -4.30145e-08 1.29102e-11)
(-3.96429e-11 -4.10668e-11 9.96572e-08 1.9383e-11 -4.14822e-08 2.02599e-11)
(-4.50162e-11 -8.56173e-11 1.2708e-07 1.69595e-11 -3.07346e-08 2.80566e-11)
(-2.49175e-11 -1.34801e-10 1.43638e-07 -8.98106e-12 -1.13918e-08 3.38985e-11)
(2.09736e-11 -1.61737e-10 1.43454e-07 -5.72383e-11 1.14006e-08 3.62647e-11)
(7.4425e-11 -1.54402e-10 1.26581e-07 -1.09358e-10 3.06363e-08 3.49329e-11)
(1.05769e-10 -1.07719e-10 9.8981e-08 -1.35079e-10 4.12202e-08 2.93102e-11)
(1.12163e-10 -5.65459e-11 6.958e-08 -1.34992e-10 4.26065e-08 2.28286e-11)
(8.18648e-11 -1.15593e-11 4.65231e-08 -9.77662e-11 3.90239e-08 1.59014e-11)
(-1.57535e-11 1.86323e-12 4.86747e-08 2.80568e-11 -4.08208e-08 -1.23032e-11)
(-4.98149e-11 -2.04592e-11 7.25305e-08 6.51472e-11 -4.43943e-08 -1.53323e-11)
(-7.72027e-11 -7.01356e-11 1.02712e-07 9.46902e-11 -4.27475e-08 -1.74874e-11)
(-7.57096e-11 -1.34186e-10 1.30783e-07 9.31417e-11 -3.16226e-08 -1.74321e-11)
(-3.88013e-11 -1.89844e-10 1.47646e-07 5.4132e-11 -1.17028e-08 -1.53307e-11)
(2.30289e-11 -2.10641e-10 1.47323e-07 -1.09488e-11 1.17137e-08 -1.20802e-11)
(8.61252e-11 -1.91829e-10 1.29907e-07 -7.81772e-11 3.1446e-08 -7.94809e-12)
(1.21649e-10 -1.33875e-10 1.01517e-07 -1.1653e-10 4.22818e-08 -5.1189e-12)
(1.32404e-10 -7.47637e-11 7.12957e-08 -1.30609e-10 4.3664e-08 -1.79474e-12)
(1.00833e-10 -2.0297e-11 4.759e-08 -1.00226e-10 3.99256e-08 -6.06241e-13)
(-4.16718e-11 -7.92731e-12 4.84193e-08 4.82554e-11 -4.06011e-08 -6.58358e-12)
(-7.00646e-11 -3.94046e-11 7.20096e-08 7.79567e-11 -4.40659e-08 -7.89213e-12)
(-8.45887e-11 -9.26874e-11 1.01804e-07 9.28399e-11 -4.23596e-08 -8.25118e-12)
(-7.11898e-11 -1.55407e-10 1.29446e-07 7.82885e-11 -3.12903e-08 -7.09871e-12)
(-2.54841e-11 -2.03661e-10 1.45959e-07 2.97862e-11 -1.1561e-08 -4.30213e-12)
(3.90082e-11 -2.15681e-10 1.45471e-07 -3.79991e-11 1.15735e-08 -1.00906e-12)
(9.90482e-11 -1.88892e-10 1.28125e-07 -1.01625e-10 3.10201e-08 2.57682e-12)
(1.27443e-10 -1.25813e-10 1.00008e-07 -1.31398e-10 4.16569e-08 3.9553e-12)
(1.31066e-10 -6.65047e-11 7.0159e-08 -1.36431e-10 4.29692e-08 5.36491e-12)
(9.27058e-11 -1.41975e-11 4.67971e-08 -9.71935e-11 3.92614e-08 4.48775e-12)
(-7.62165e-11 -1.28582e-11 4.91327e-08 8.24968e-11 -4.11981e-08 -6.28026e-12)
(-1.02636e-10 -5.40794e-11 7.30157e-08 1.11358e-10 -4.46778e-08 -8.72137e-12)
(-1.02779e-10 -1.07158e-10 1.03118e-07 1.13206e-10 -4.29005e-08 -1.04269e-11)
(-7.74437e-11 -1.60932e-10 1.30968e-07 8.86693e-11 -3.16511e-08 -1.12256e-11)
(-2.63706e-11 -1.88721e-10 1.47514e-07 3.60784e-11 -1.16768e-08 -9.70779e-12)
(3.06264e-11 -1.82471e-10 1.46868e-07 -2.35867e-11 1.16916e-08 -7.0397e-12)
(7.45726e-11 -1.46962e-10 1.29224e-07 -7.1323e-11 3.12925e-08 -3.2496e-12)
(8.94806e-11 -9.12094e-11 1.00767e-07 -8.86664e-11 4.19781e-08 -8.14166e-13)
(8.68194e-11 -4.59065e-11 7.06154e-08 -8.84502e-11 4.32528e-08 1.63082e-12)
(5.5538e-11 -9.25756e-12 4.70498e-08 -5.73316e-11 3.94763e-08 1.79361e-12)
(-1.15913e-10 -2.11644e-11 4.9084e-08 1.14007e-10 -4.11566e-08 1.90577e-12)
(-1.36416e-10 -7.26571e-11 7.29337e-08 1.34616e-10 -4.46265e-08 1.79941e-12)
(-1.16813e-10 -1.21747e-10 1.02983e-07 1.14148e-10 -4.28424e-08 2.66477e-12)
(-7.77461e-11 -1.61666e-10 1.30748e-07 7.48519e-11 -3.15942e-08 2.89426e-12)
(-2.22726e-11 -1.63562e-10 1.47177e-07 1.75944e-11 -1.16446e-08 4.67812e-12)
(2.36626e-11 -1.35311e-10 1.46414e-07 -3.01577e-11 1.16623e-08 6.49512e-12)
(4.56617e-11 -8.80372e-11 1.28694e-07 -5.41452e-11 3.11712e-08 8.48349e-12)
(4.08405e-11 -4.0736e-11 1.00238e-07 -4.98416e-11 4.17639e-08 9.00108e-12)
(2.36857e-11 -1.18762e-11 7.01617e-08 -3.22888e-11 4.29788e-08 8.60303e-12)
(-1.18687e-12 1.65519e-12 4.67118e-08 -5.48315e-12 3.91935e-08 6.67001e-12)
(-1.44689e-10 -2.51314e-11 4.90073e-08 1.37776e-10 -4.10944e-08 6.91327e-12)
(-1.66562e-10 -8.5913e-11 7.28731e-08 1.57994e-10 -4.45932e-08 8.56748e-12)
(-1.34487e-10 -1.33819e-10 1.02955e-07 1.22626e-10 -4.28337e-08 1.18616e-11)
(-8.59873e-11 -1.65368e-10 1.3074e-07 7.27148e-11 -3.15928e-08 1.32725e-11)
(-2.61771e-11 -1.46949e-10 1.47141e-07 1.06487e-11 -1.16389e-08 1.55284e-11)
(1.20473e-11 -9.98873e-11 1.46297e-07 -2.86305e-11 1.1659e-08 1.65832e-11)
(1.68741e-11 -4.12059e-11 1.28475e-07 -3.35966e-11 3.11262e-08 1.67224e-11)
(-2.73186e-12 -8.97905e-13 9.99455e-08 -1.27763e-11 4.16504e-08 1.55081e-11)
(-3.14699e-11 1.52101e-11 6.9863e-08 1.8893e-11 4.28021e-08 1.25769e-11)
(-4.6924e-11 8.81398e-12 4.6468e-08 3.76421e-11 3.89903e-08 9.28198e-12)
(-1.38054e-10 -2.32971e-11 4.85696e-08 1.27608e-10 -4.07295e-08 1.04454e-11)
(-1.60516e-10 -8.13092e-11 7.22761e-08 1.46473e-10 -4.42328e-08 1.40429e-11)
(-1.27142e-10 -1.2219e-10 1.02183e-07 1.07197e-10 -4.25175e-08 1.99451e-11)
(-8.20871e-11 -1.47652e-10 1.29819e-07 5.89386e-11 -3.13733e-08 2.31485e-11)
(-2.78712e-11 -1.23883e-10 1.46115e-07 1.7817e-12 -1.15572e-08 2.60895e-11)
(3.50611e-12 -7.61377e-11 1.45227e-07 -2.9721e-11 1.15778e-08 2.62149e-11)
(2.72651e-12 -2.05243e-11 1.27445e-07 -2.67546e-11 3.08834e-08 2.4028e-11)
(-1.75186e-11 1.15431e-11 9.90402e-08 -2.82477e-12 4.12805e-08 2.03434e-11)
(-4.58787e-11 2.20192e-11 6.91526e-08 3.10493e-11 4.23725e-08 1.48293e-11)
(-5.27012e-11 9.25851e-12 4.59636e-08 4.23523e-11 3.85675e-08 1.03489e-11)
(-8.47137e-11 -1.30301e-11 4.81251e-08 7.48316e-11 -4.03584e-08 9.88208e-12)
(-1.02814e-10 -4.98139e-11 7.16486e-08 8.90419e-11 -4.3853e-08 1.37721e-11)
(-8.10789e-11 -7.20424e-11 1.01343e-07 6.11371e-11 -4.21723e-08 1.99418e-11)
(-5.61984e-11 -8.80629e-11 1.28802e-07 3.27725e-11 -3.11314e-08 2.34259e-11)
(-2.43312e-11 -7.41151e-11 1.44998e-07 -1.36723e-12 -1.1471e-08 2.56984e-11)
(-4.52292e-12 -4.84681e-11 1.44119e-07 -1.98928e-11 1.14894e-08 2.44157e-11)
(-1.03469e-12 -1.83382e-11 1.26453e-07 -1.94171e-11 3.06448e-08 2.04518e-11)
(-6.28322e-12 -1.55422e-12 9.82415e-08 -9.10092e-12 4.09498e-08 1.53841e-11)
(-1.75357e-11 6.49552e-12 6.85781e-08 7.87929e-12 4.20225e-08 9.65643e-12)
(-1.54856e-11 1.64519e-12 4.55805e-08 9.57447e-12 3.82453e-08 5.91111e-12)
(-4.21592e-13 1.48335e-12 4.77003e-08 -7.98383e-12 -4.00029e-08 8.40543e-12)
(-6.55009e-13 3.29266e-12 7.10369e-08 -1.0715e-11 -4.34811e-08 1.137e-11)
(6.0206e-12 1.60846e-11 1.00512e-07 -2.12003e-11 -4.18299e-08 1.51797e-11)
(-3.54408e-13 2.24464e-11 1.27798e-07 -1.63465e-11 -3.08933e-08 1.67009e-11)
(-8.48025e-12 2.31215e-11 1.43934e-07 -7.80891e-12 -1.13923e-08 1.62892e-11)
(-1.27674e-11 1.20521e-11 1.43141e-07 -1.3251e-13 1.14053e-08 1.28999e-11)
(-6.81376e-12 -3.32411e-12 1.2568e-07 -1.08291e-12 3.0451e-08 7.89667e-12)
(8.16299e-12 -1.42626e-11 9.77216e-08 -1.10545e-11 4.07273e-08 2.89152e-12)
(2.4298e-11 -1.48717e-11 6.82833e-08 -2.36254e-11 4.18372e-08 -6.72545e-13)
(3.59297e-11 -8.07201e-12 4.5429e-08 -3.3855e-11 3.81151e-08 -2.07473e-12)
(7.49658e-11 1.35505e-11 4.73443e-08 -8.37744e-11 -3.97058e-08 8.80859e-12)
(1.03313e-10 5.65959e-11 7.05717e-08 -1.13783e-10 -4.31996e-08 1.04693e-11)
(1.03687e-10 1.13066e-10 9.99537e-08 -1.1421e-10 -4.16027e-08 1.05232e-11)
(7.04211e-11 1.57573e-10 1.27217e-07 -7.88301e-11 -3.07599e-08 8.40894e-12)
(1.68417e-11 1.60617e-10 1.43441e-07 -2.05622e-11 -1.13629e-08 3.72054e-12)
(-2.54385e-11 1.21954e-10 1.42842e-07 2.78447e-11 1.13693e-08 -2.40621e-12)
(-3.39469e-11 5.9891e-11 1.25626e-07 4.20652e-11 3.04241e-08 -8.11832e-12)
(-1.13112e-11 9.66057e-12 9.78785e-08 2.33851e-11 4.07792e-08 -1.20739e-11)
(2.77829e-11 -1.54868e-11 6.8546e-08 -1.52641e-11 4.19873e-08 -1.25188e-11)
(5.31774e-11 -1.13896e-11 4.56928e-08 -4.2168e-11 3.83315e-08 -1.10094e-11)
(9.5338e-11 1.56496e-11 4.68857e-08 -1.07672e-10 -3.93248e-08 1.23335e-11)
(1.4931e-10 7.96837e-11 7.00525e-08 -1.63162e-10 -4.28893e-08 1.3852e-11)
(1.58339e-10 1.66257e-10 9.94732e-08 -1.69798e-10 -4.14128e-08 1.14598e-11)
(1.19431e-10 2.4816e-10 1.26898e-07 -1.25747e-10 -3.06945e-08 6.31611e-12)
(3.94656e-11 2.74323e-10 1.434e-07 -3.73513e-11 -1.13737e-08 -2.11427e-12)
(-3.78528e-11 2.37438e-10 1.43131e-07 4.85264e-11 1.13761e-08 -1.06737e-11)
(-7.62389e-11 1.55167e-10 1.26202e-07 9.3384e-11 3.05459e-08 -1.71451e-11)
(-6.79254e-11 7.19948e-11 9.86163e-08 8.80652e-11 4.10693e-08 -2.01398e-11)
(-2.65854e-11 1.46185e-11 6.92783e-08 4.53474e-11 4.24218e-08 -1.8762e-11)
(1.19908e-11 -3.68416e-12 4.63067e-08 3.54836e-12 3.88406e-08 -1.55392e-11)
(3.49274e-11 4.82831e-12 4.62519e-08 -5.04648e-11 -3.87989e-08 1.55373e-11)
(8.62065e-11 4.70167e-11 6.93414e-08 -1.04603e-10 -4.24661e-08 1.83963e-11)
(1.10518e-10 1.17728e-10 9.8845e-08 -1.27653e-10 -4.11671e-08 1.71348e-11)
(9.57557e-11 1.99357e-10 1.26534e-07 -1.07926e-10 -3.06237e-08 1.217e-11)
(3.72424e-11 2.48318e-10 1.43439e-07 -4.07038e-11 -1.13944e-08 3.46141e-12)
(-3.64675e-11 2.44339e-10 1.43591e-07 4.18573e-11 1.13952e-08 -5.38976e-12)
(-9.21895e-11 1.91967e-10 1.26974e-07 1.04252e-10 3.0716e-08 -1.20628e-11)
(-1.09256e-10 1.16241e-10 9.9515e-08 1.23943e-10 4.14287e-08 -1.46876e-11)
(-9.27157e-11 5.04705e-11 7.01192e-08 1.06717e-10 4.2925e-08 -1.4001e-11)
(-5.60623e-11 9.51644e-12 4.69928e-08 6.75398e-11 3.94105e-08 -1.14775e-11)
(-6.59741e-11 -1.16094e-11 4.55444e-08 5.07136e-11 -3.82108e-08 1.52604e-11)
(-4.76654e-11 -2.16544e-11 6.84753e-08 2.77722e-11 -4.19493e-08 1.98931e-11)
(-1.44736e-11 -7.16716e-12 9.79591e-08 -8.20491e-12 -4.08166e-08 2.26785e-11)
(8.33474e-12 2.94388e-11 1.25826e-07 -2.9657e-11 -3.04724e-08 2.13223e-11)
(8.7126e-12 8.00578e-11 1.43069e-07 -2.53548e-11 -1.13839e-08 1.66422e-11)
(-1.88801e-11 1.16752e-10 1.43593e-07 8.37021e-12 1.13796e-08 1.05099e-11)
(-6.24308e-11 1.28098e-10 1.27258e-07 5.75224e-11 3.07729e-08 4.90835e-12)
(-9.71889e-11 1.01997e-10 9.99207e-08 9.50955e-11 4.15898e-08 2.09343e-12)
(-1.17706e-10 6.3501e-11 7.05125e-08 1.17591e-10 4.31609e-08 1.14882e-13)
(-1.00992e-10 1.87521e-11 4.73175e-08 1.01138e-10 3.96797e-08 -1.46666e-13)
(-1.07651e-10 -1.72941e-11 4.49424e-08 9.63595e-11 -3.77089e-08 1.12913e-11)
(-1.2273e-10 -5.99288e-11 6.76413e-08 1.06161e-10 -4.1449e-08 1.6569e-11)
(-9.52801e-11 -8.70133e-11 9.69361e-08 7.20372e-11 -4.04057e-08 2.32429e-11)
(-5.70413e-11 -9.37961e-11 1.2476e-07 3.04457e-11 -3.02319e-08 2.65956e-11)
(-1.77871e-11 -5.68406e-11 1.42109e-07 -1.00001e-11 -1.13238e-08 2.77872e-11)
(-6.66713e-12 -1.69399e-12 1.4283e-07 -1.93799e-11 1.13073e-08 2.6047e-11)
(-3.13472e-11 5.29863e-11 1.26688e-07 9.03823e-12 3.06294e-08 2.2309e-11)
(-7.02936e-11 6.85775e-11 9.9494e-08 5.13436e-11 4.14115e-08 1.89501e-11)
(-1.13946e-10 5.95155e-11 7.01874e-08 1.00088e-10 4.29637e-08 1.38585e-11)
(-1.13637e-10 2.10042e-11 4.708e-08 1.0324e-10 3.94798e-08 1.03974e-11)
(-2.12299e-11 -1.84816e-12 4.45534e-08 1.54732e-11 -3.73827e-08 5.75671e-12)
(-3.36429e-11 -1.42365e-11 6.70159e-08 2.36844e-11 -4.10701e-08 9.95855e-12)
(-2.42384e-11 -1.55109e-11 9.60162e-08 7.19341e-12 -4.00292e-08 1.7045e-11)
(-1.54677e-11 -8.82347e-12 1.23599e-07 -7.56788e-12 -2.99597e-08 2.30356e-11)
(-8.88675e-12 2.18569e-11 1.40815e-07 -1.90589e-11 -1.12291e-08 2.79457e-11)
(-2.14659e-11 5.9218e-11 1.41537e-07 -8.28297e-12 1.11994e-08 2.97489e-11)
(-5.70372e-11 9.18089e-11 1.25505e-07 2.93284e-11 3.0342e-08 2.77087e-11)
(-9.48547e-11 8.73784e-11 9.84899e-08 7.05808e-11 4.0996e-08 2.42738e-11)
(-1.32723e-10 6.64189e-11 6.93986e-08 1.15063e-10 4.24845e-08 1.76605e-11)
(-1.21971e-10 2.08012e-11 4.65016e-08 1.09094e-10 3.8995e-08 1.28775e-11)
(1.49949e-10 2.67998e-11 4.43869e-08 -1.51237e-10 -3.72407e-08 1.28737e-12)
(1.78623e-10 9.43576e-11 6.66874e-08 -1.82048e-10 -4.08662e-08 3.42479e-12)
(1.67429e-10 1.75694e-10 9.54274e-08 -1.74604e-10 -3.97809e-08 7.17461e-12)
(1.17999e-10 2.52721e-10 1.22723e-07 -1.30564e-10 -2.97453e-08 1.25652e-11)
(3.40286e-11 2.94378e-10 1.39706e-07 -5.11537e-11 -1.1139e-08 1.71251e-11)
(-5.92146e-11 2.91747e-10 1.40327e-07 3.90888e-11 1.11051e-08 2.01258e-11)
(-1.3875e-10 2.49237e-10 1.24353e-07 1.1968e-10 3.00653e-08 1.90696e-11)
(-1.77626e-10 1.68074e-10 9.75243e-08 1.60953e-10 4.05958e-08 1.66728e-11)
(-1.89567e-10 9.36699e-11 6.86758e-08 1.78656e-10 4.20435e-08 1.09111e-11)
(-1.44201e-10 2.22043e-11 4.59983e-08 1.36876e-10 3.85726e-08 7.32561e-12)
(2.92367e-10 4.94885e-11 4.4355e-08 -2.91824e-10 -3.72114e-08 -5.42287e-13)
(3.72382e-10 1.92887e-10 6.66051e-08 -3.72127e-10 -4.08099e-08 -2.55018e-13)
(3.50004e-10 3.55906e-10 9.52279e-08 -3.48638e-10 -3.96896e-08 -1.36624e-12)
(2.53249e-10 5.11946e-10 1.22349e-07 -2.54416e-10 -2.96456e-08 1.16689e-12)
(8.24744e-11 5.74706e-10 1.39165e-07 -8.48065e-11 -1.10879e-08 2.33209e-12)
(-9.40139e-11 5.38428e-10 1.39701e-07 8.97037e-11 1.10611e-08 4.31015e-12)
(-2.22244e-10 4.20697e-10 1.23765e-07 2.18694e-10 2.99254e-08 3.55007e-12)
(-2.65415e-10 2.58627e-10 9.70719e-08 2.62364e-10 4.04072e-08 3.05112e-12)
(-2.51931e-10 1.25813e-10 6.83902e-08 2.52146e-10 4.18668e-08 -2.1447e-13)
(-1.70906e-10 2.52552e-11 4.58397e-08 1.71981e-10 3.84379e-08 -1.0748e-12)
(3.25183e-10 5.36852e-11 4.43494e-08 -3.24792e-10 -3.72066e-08 -3.90493e-13)
(4.31629e-10 2.22293e-10 6.66352e-08 -4.30652e-10 -4.08246e-08 -9.76972e-13)
(4.10661e-10 4.13405e-10 9.52917e-08 -4.05276e-10 -3.971e-08 -5.38475e-12)
(3.04992e-10 6.04855e-10 1.22411e-07 -2.99347e-10 -2.96525e-08 -5.64482e-12)
(1.05284e-10 6.8283e-10 1.39213e-07 -9.73835e-11 -1.10842e-08 -7.90071e-12)
(-1.03836e-10 6.39688e-10 1.39746e-07 1.11402e-10 1.10697e-08 -7.56605e-12)
(-2.54118e-10 4.94841e-10 1.23844e-07 2.62404e-10 2.99457e-08 -8.28632e-12)
(-3.01927e-10 2.99946e-10 9.72076e-08 3.0891e-10 4.04614e-08 -6.98278e-12)
(-2.80272e-10 1.41981e-10 6.85721e-08 2.88141e-10 4.19742e-08 -7.86882e-12)
(-1.85248e-10 2.78106e-11 4.60296e-08 1.91712e-10 3.85942e-08 -6.46384e-12)
(2.67031e-10 4.34954e-11 4.43297e-08 -2.65843e-10 -3.71928e-08 -1.18883e-12)
(3.62159e-10 1.85794e-10 6.66879e-08 -3.60077e-10 -4.08575e-08 -2.08219e-12)
(3.45282e-10 3.44701e-10 9.54564e-08 -3.38123e-10 -3.97775e-08 -7.15891e-12)
(2.62253e-10 5.12298e-10 1.22689e-07 -2.53898e-10 -2.97165e-08 -8.35519e-12)
(9.51948e-11 5.86261e-10 1.39586e-07 -8.36872e-11 -1.111e-08 -1.15075e-11)
(-8.55283e-11 5.58331e-10 1.40177e-07 9.70636e-11 1.11069e-08 -1.15353e-11)
(-2.21141e-10 4.40085e-10 1.24294e-07 2.32856e-10 3.00557e-08 -1.17148e-11)
(-2.69608e-10 2.7204e-10 9.76385e-08 2.78869e-10 4.06397e-08 -9.26006e-12)
(-2.57749e-10 1.32612e-10 6.89576e-08 2.66751e-10 4.22077e-08 -9.00234e-12)
(-1.7491e-10 2.74935e-11 4.63527e-08 1.81682e-10 3.88628e-08 -6.77271e-12)
(1.91454e-10 3.21825e-11 4.44063e-08 -1.83279e-10 -3.72601e-08 -8.17514e-12)
(2.40647e-10 1.232e-10 6.68492e-08 -2.30508e-10 -4.0957e-08 -1.01397e-11)
(2.09997e-10 2.0652e-10 9.57259e-08 -1.95387e-10 -3.98885e-08 -1.46104e-11)
(1.54139e-10 2.9295e-10 1.23067e-07 -1.39379e-10 -2.98048e-08 -1.47604e-11)
(5.67462e-11 3.21156e-10 1.40045e-07 -4.09531e-11 -1.11419e-08 -1.57932e-11)
(-4.15217e-11 2.99621e-10 1.40665e-07 5.55378e-11 1.11508e-08 -1.40161e-11)
(-1.13725e-10 2.3397e-10 1.24758e-07 1.26136e-10 3.01729e-08 -1.24109e-11)
(-1.39036e-10 1.43428e-10 9.80365e-08 1.48124e-10 4.08088e-08 -9.0881e-12)
(-1.35742e-10 7.13257e-11 6.92847e-08 1.43686e-10 4.24101e-08 -7.94372e-12)
(-8.84981e-11 1.4247e-11 4.66098e-08 9.39359e-11 3.90787e-08 -5.43781e-12)
(1.28942e-10 2.41719e-11 4.49685e-08 -1.03909e-10 -3.77291e-08 -2.50331e-11)
(1.05903e-10 5.31684e-11 6.75665e-08 -7.53264e-11 -4.13866e-08 -3.05763e-11)
(3.37727e-11 2.46056e-11 9.65465e-08 2.47357e-12 -4.02177e-08 -3.62463e-11)
(-3.41821e-12 -2.90339e-11 1.23915e-07 3.89902e-11 -2.99972e-08 -3.5572e-11)
(-5.95585e-12 -1.10596e-10 1.40851e-07 3.9201e-11 -1.11941e-08 -3.32452e-11)
(3.59955e-11 -1.6399e-10 1.41374e-07 -8.29043e-12 1.12171e-08 -2.7705e-11)
(9.69477e-11 -1.75069e-10 1.25344e-07 -7.55228e-11 3.03229e-08 -2.14249e-11)
(1.41836e-10 -1.36448e-10 9.84885e-08 -1.26576e-10 4.10025e-08 -1.52601e-11)
(1.55878e-10 -7.77901e-11 6.96238e-08 -1.45939e-10 4.26222e-08 -9.93842e-12)
(1.35076e-10 -2.23988e-11 4.68405e-08 -1.29501e-10 3.9276e-08 -5.57535e-12)
(4.03302e-11 1.11136e-11 4.64633e-08 7.07399e-12 -3.8971e-08 -4.74042e-11)
(-6.75886e-11 -3.8743e-11 6.94184e-08 1.26254e-10 -4.24946e-08 -5.86656e-11)
(-1.87599e-10 -2.072e-10 9.86178e-08 2.55561e-10 -4.10506e-08 -6.7962e-11)
(-2.00571e-10 -4.38371e-10 1.25987e-07 2.68842e-10 -3.04715e-08 -6.82706e-11)
(-8.40438e-11 -6.66723e-10 1.4273e-07 1.46707e-10 -1.13222e-08 -6.26631e-11)
(1.39417e-10 -7.72275e-10 1.42931e-07 -8.76223e-11 1.13551e-08 -5.17946e-11)
(3.79849e-10 -7.23512e-10 1.26526e-07 -3.42629e-10 3.0618e-08 -3.72203e-11)
(5.22053e-10 -5.15881e-10 9.92992e-08 -4.96844e-10 4.13462e-08 -2.52086e-11)
(5.56302e-10 -2.83409e-10 7.01146e-08 -5.44547e-10 4.29288e-08 -1.17543e-11)
(4.35196e-10 -7.15025e-11 4.70763e-08 -4.30622e-10 3.94822e-08 -4.57395e-12)
(-1.05432e-10 -1.45516e-11 4.89636e-08 1.68599e-10 -4.10484e-08 -6.31666e-11)
(-2.78425e-10 -1.52658e-10 7.25317e-08 3.57812e-10 -4.43618e-08 -7.9387e-11)
(-4.09751e-10 -4.4326e-10 1.02152e-07 5.01677e-10 -4.24792e-08 -9.19261e-11)
(-3.77255e-10 -8.13089e-10 1.29565e-07 4.7135e-10 -3.12987e-08 -9.40954e-11)
(-1.46168e-10 -1.13594e-09 1.45965e-07 2.31599e-10 -1.15499e-08 -8.5431e-11)
(2.2463e-10 -1.25696e-09 1.45534e-07 -1.55707e-10 1.15817e-08 -6.89233e-11)
(5.95815e-10 -1.13977e-09 1.28361e-07 -5.50489e-10 3.10748e-08 -4.53257e-11)
(7.9534e-10 -7.88538e-10 1.00393e-07 -7.68076e-10 4.18121e-08 -2.72643e-11)
(8.31638e-10 -4.25201e-10 7.06022e-08 -8.24943e-10 4.32374e-08 -6.69457e-12)
(6.19552e-10 -1.00505e-10 4.71682e-08 -6.20717e-10 3.95726e-08 1.165e-12)
(-2.70969e-10 -4.69195e-11 5.19016e-08 3.29449e-10 -4.34914e-08 -5.848e-11)
(-4.50003e-10 -2.46744e-10 7.6231e-08 5.25359e-10 -4.65872e-08 -7.53557e-11)
(-5.28175e-10 -5.71156e-10 1.06415e-07 6.15608e-10 -4.42102e-08 -8.74336e-11)
(-4.38969e-10 -9.50693e-10 1.33915e-07 5.29965e-10 -3.23099e-08 -9.09963e-11)
(-1.55568e-10 -1.23544e-09 1.49843e-07 2.36432e-10 -1.1823e-08 -8.08644e-11)
(2.35602e-10 -1.30321e-09 1.48497e-07 -1.73357e-10 1.18452e-08 -6.2245e-11)
(5.95468e-10 -1.13767e-09 1.30207e-07 -5.59989e-10 3.15447e-08 -3.54796e-11)
(7.65078e-10 -7.59426e-10 1.01223e-07 -7.48673e-10 4.21787e-08 -1.64044e-11)
(7.80063e-10 -4.00051e-10 7.06892e-08 -7.84312e-10 4.33083e-08 4.24934e-12)
(5.4925e-10 -8.77096e-11 4.68848e-08 -5.58447e-10 3.93508e-08 9.19651e-12)
(-3.68325e-10 -6.96679e-11 5.41557e-08 3.9448e-10 -4.53692e-08 -2.61546e-11)
(-4.70525e-10 -2.59705e-10 7.91464e-08 5.08274e-10 -4.83499e-08 -3.77485e-11)
(-4.40026e-10 -4.7957e-10 1.09867e-07 4.85533e-10 -4.56205e-08 -4.55075e-11)
(-3.16227e-10 -6.99187e-10 1.37485e-07 3.67344e-10 -3.31439e-08 -5.11169e-11)
(-9.33127e-11 -8.0743e-10 1.52962e-07 1.38267e-10 -1.204e-08 -4.49539e-11)
(1.48483e-10 -7.81965e-10 1.50703e-07 -1.1576e-10 1.20507e-08 -3.27228e-11)
(3.37863e-10 -6.38429e-10 1.31319e-07 -3.24046e-10 3.18424e-08 -1.38163e-11)
(4.03936e-10 -4.00608e-10 1.01408e-07 -4.02619e-10 4.22821e-08 -1.3168e-12)
(3.98365e-10 -2.05834e-10 7.02899e-08 -4.10072e-10 4.30843e-08 1.17063e-11)
(2.50436e-10 -3.87135e-11 4.62958e-08 -2.6289e-10 3.88707e-08 1.24546e-11)
(-3.20063e-10 -6.5931e-11 5.45e-08 2.94937e-10 -4.56646e-08 2.51265e-11)
(-2.8511e-10 -1.59733e-10 7.97965e-08 2.60581e-10 -4.87617e-08 2.45295e-11)
(-1.36971e-10 -1.55942e-10 1.10897e-07 1.12656e-10 -4.60595e-08 2.43153e-11)
(-2.78506e-11 -8.94413e-11 1.38757e-07 1.11798e-11 -3.34537e-08 1.66708e-11)
(2.38138e-11 5.39476e-11 1.54135e-07 -3.70753e-11 -1.2125e-08 1.32614e-11)
(-1.53604e-11 1.6778e-10 1.51449e-07 4.48241e-12 1.21259e-08 1.0878e-11)
(-1.01283e-10 2.10131e-10 1.3149e-07 8.93375e-11 3.19031e-08 1.19451e-11)
(-1.74101e-10 1.7507e-10 1.0111e-07 1.62126e-10 4.21771e-08 1.19751e-11)
(-1.89404e-10 9.49243e-11 6.97524e-08 1.77102e-10 4.27688e-08 1.23021e-11)
(-1.78744e-10 3.07012e-11 4.57588e-08 1.69525e-10 3.84271e-08 9.21926e-12)
(-9.34616e-11 -2.67871e-11 5.24518e-08 2.44472e-11 -4.39714e-08 6.90144e-11)
(7.98636e-11 3.89285e-11 7.74742e-08 -1.61727e-10 -4.73885e-08 8.18631e-11)
(2.91644e-10 3.04273e-10 1.08586e-07 -3.83046e-10 -4.51471e-08 9.14017e-11)
(3.29545e-10 6.76717e-10 1.36749e-07 -4.15514e-10 -3.30077e-08 8.59684e-11)
(1.53326e-10 1.05064e-09 1.5253e-07 -2.27292e-10 -1.20211e-08 7.39658e-11)
(-2.01414e-10 1.218e-09 1.50214e-07 1.44704e-10 1.20189e-08 5.67099e-11)
(-5.76508e-10 1.12371e-09 1.30545e-07 5.3887e-10 3.16746e-08 3.76378e-11)
(-7.85728e-10 7.84118e-10 1.0041e-07 7.61635e-10 4.18888e-08 2.40931e-11)
(-8.11055e-10 4.14284e-10 6.9283e-08 8.01095e-10 4.24827e-08 9.95926e-12)
(-6.23865e-10 1.02768e-10 4.5494e-08 6.20308e-10 3.82019e-08 3.55727e-12)
(2.25056e-10 3.32401e-11 4.88996e-08 -3.05966e-10 -4.102e-08 8.091e-11)
(4.72676e-10 2.53499e-10 7.31015e-08 -5.75598e-10 -4.47675e-08 1.02922e-10)
(6.53257e-10 6.94313e-10 1.03737e-07 -7.73536e-10 -4.31906e-08 1.2028e-10)
(5.90188e-10 1.24675e-09 1.32028e-07 -7.13191e-10 -3.1922e-08 1.23003e-10)
(2.32088e-10 1.71729e-09 1.4849e-07 -3.42531e-10 -1.17425e-08 1.10443e-10)
(-3.26353e-10 1.8794e-09 1.47183e-07 2.38576e-10 1.17509e-08 8.77769e-11)
(-8.72928e-10 1.68306e-09 1.28589e-07 8.16298e-10 3.11856e-08 5.66298e-11)
(-1.15787e-09 1.15208e-09 9.93728e-08 1.12317e-09 4.14458e-08 3.46966e-11)
(-1.19959e-09 6.14408e-10 6.89226e-08 1.19017e-09 4.22526e-08 9.41976e-12)
(-8.9688e-10 1.46832e-10 4.55198e-08 8.96091e-10 3.82114e-08 7.88862e-13)
(4.46897e-10 7.81904e-11 4.54718e-08 -5.07269e-10 -3.81614e-08 6.03719e-11)
(6.77983e-10 3.67214e-10 6.86345e-08 -7.60448e-10 -4.20659e-08 8.24644e-11)
(7.56396e-10 8.09702e-10 9.84078e-08 -8.56924e-10 -4.10126e-08 1.00528e-10)
(6.16726e-10 1.32496e-09 1.26421e-07 -7.28395e-10 -3.06069e-08 1.11669e-10)
(2.16137e-10 1.70334e-09 1.43364e-07 -3.21617e-10 -1.13723e-08 1.0548e-10)
(-3.25518e-10 1.79396e-09 1.43147e-07 2.3684e-10 1.14011e-08 8.86784e-11)
(-8.27356e-10 1.57461e-09 1.25918e-07 7.68284e-10 3.0518e-08 5.90723e-11)
(-1.07574e-09 1.06395e-09 9.7949e-08 1.03778e-09 4.08356e-08 3.79584e-11)
(-1.12479e-09 5.75769e-10 6.84349e-08 1.11439e-09 4.19405e-08 1.04009e-11)
(-8.25536e-10 1.34015e-10 4.55439e-08 8.23525e-10 3.82154e-08 2.01111e-12)
(4.29485e-10 7.96292e-11 4.33686e-08 -4.5838e-10 -3.63999e-08 2.88951e-11)
(5.74127e-10 3.14676e-10 6.57071e-08 -6.18465e-10 -4.02789e-08 4.43389e-11)
(5.5193e-10 5.99052e-10 9.46351e-08 -6.08291e-10 -3.94525e-08 5.6361e-11)
(4.06141e-10 8.99294e-10 1.22124e-07 -4.75395e-10 -2.95826e-08 6.9254e-11)
(1.18228e-10 1.06119e-09 1.39161e-07 -1.87151e-10 -1.10589e-08 6.89228e-11)
(-2.07531e-10 1.0493e-09 1.39646e-07 1.46081e-10 1.11012e-08 6.14506e-11)
(-4.77272e-10 8.81255e-10 1.23488e-07 4.34818e-10 2.99097e-08 4.24543e-11)
(-5.88903e-10 5.72544e-10 9.65789e-08 5.60208e-10 4.0247e-08 2.86947e-11)
(-6.16894e-10 3.13827e-10 6.78897e-08 6.08513e-10 4.15935e-08 8.38143e-12)
(-4.26562e-10 6.6794e-11 4.54514e-08 4.23694e-10 3.81239e-08 2.86731e-12)
(2.21397e-10 4.41216e-11 4.25591e-08 -2.25458e-10 -3.57173e-08 4.06072e-12)
(2.6202e-10 1.48358e-10 6.44364e-08 -2.71848e-10 -3.94962e-08 9.8282e-12)
(1.91986e-10 2.19817e-10 9.28085e-08 -2.04389e-10 -3.86921e-08 1.24024e-11)
(1.02328e-10 2.61343e-10 1.19835e-07 -1.20995e-10 -2.90357e-08 1.86668e-11)
(2.25276e-12 2.06761e-10 1.36752e-07 -2.05422e-11 -1.0883e-08 1.82894e-11)
(-4.42377e-11 1.09813e-10 1.37524e-07 2.90297e-11 1.09111e-08 1.5208e-11)
(-2.91822e-11 1.78573e-11 1.2195e-07 2.23747e-11 2.95141e-08 6.80752e-12)
(2.68119e-11 -4.01175e-11 9.56759e-08 -2.72631e-11 3.98497e-08 4.51141e-13)
(5.71476e-11 -3.24196e-11 6.74875e-08 -4.98445e-11 4.1332e-08 -7.30311e-12)
(1.07976e-10 -2.32126e-11 4.53201e-08 -1.00365e-10 3.80028e-08 -7.61099e-12)
(1.79971e-11 5.01888e-12 4.27074e-08 -1.99218e-11 -3.58409e-08 1.92469e-12)
(1.94897e-11 1.55069e-11 6.45901e-08 -1.77387e-11 -3.95865e-08 -1.751e-12)
(-2.88613e-11 -2.15786e-11 9.29258e-08 3.95464e-11 -3.8738e-08 -1.06852e-11)
(-5.97761e-11 -1.05889e-10 1.19898e-07 7.8287e-11 -2.90519e-08 -1.85108e-11)
(-4.36612e-11 -2.51458e-10 1.36836e-07 7.10878e-11 -1.08981e-08 -2.74266e-11)
(5.87715e-11 -3.83466e-10 1.3776e-07 -2.3912e-11 1.09131e-08 -3.48595e-11)
(2.27749e-10 -4.47145e-10 1.22436e-07 -1.88255e-10 2.96088e-08 -3.94943e-11)
(3.81444e-10 -3.807e-10 9.63892e-08 -3.39013e-10 4.01222e-08 -4.2431e-11)
(4.84692e-10 -2.49153e-10 6.82855e-08 -4.4582e-10 4.18018e-08 -3.8872e-11)
(4.64612e-10 -8.37052e-11 4.60172e-08 -4.32253e-10 3.85832e-08 -3.23589e-11)
(-1.91043e-10 -3.08481e-11 4.22766e-08 1.95158e-10 -3.54961e-08 -4.11502e-12)