/*--------------------------------*- C++ -*----------------------------------*\
| =========                 |                                                 |
| \\      /  F ield         | OpenFOAM: The Open Source CFD Toolbox           |
|  \\    /   O peration     | Version:  2406                                  |
|   \\  /    A nd           | Website:  www.openfoam.com                      |
|    \\/     M anipulation  |                                                 |
\*---------------------------------------------------------------------------*/
FoamFile
{
    version     2.0;
    format      ascii;
    arch        "LSB;label=32;scalar=64";
    class       volScalarField;
    location    "0.9";
    object      turbulenceProperties:nut;
}
// * * * * * * * * * * * * * * * * * * * * * * * * * * * * * * * * * * * * * //

dimensions      [0 2 -1 0 0 0 0];

internalField   uniform 0;

boundaryField
{
    walls
    {
        type            nutUSpaldingWallFunction;
        value           nonuniform List<scalar> 
2000
(
3.17339e-09
4.55022e-09
5.99804e-09
7.18482e-09
7.85338e-09
7.85337e-09
7.18479e-09
5.99801e-09
4.55019e-09
3.17337e-09
1.87254e-09
2.63286e-09
3.46569e-09
4.1664e-09
4.567e-09
4.56697e-09
4.1663e-09
3.46555e-09
2.63271e-09
1.87241e-09
9.83634e-10
1.3615e-09
1.78508e-09
2.15073e-09
2.36219e-09
2.36208e-09
2.15042e-09
1.78464e-09
1.36101e-09
9.83185e-10
1.16036e-09
1.613e-09
2.11474e-09
2.54345e-09
2.79009e-09
2.78981e-09
2.54267e-09
2.11365e-09
1.61181e-09
1.15927e-09
9.98913e-10
1.38352e-09
1.8138e-09
2.18379e-09
2.39735e-09
2.39679e-09
2.18226e-09
1.81163e-09
1.3812e-09
9.96798e-10
1.05241e-09
1.45939e-09
1.91298e-09
2.30184e-09
2.52576e-09
2.52472e-09
2.29897e-09
1.9089e-09
1.45496e-09
1.04834e-09
1.01604e-09
1.40672e-09
1.84266e-09
2.21661e-09
2.43167e-09
2.42978e-09
2.21133e-09
1.83507e-09
1.3983e-09
1.00813e-09
1.03638e-09
1.43423e-09
1.87704e-09
2.25594e-09
2.47301e-09
2.46972e-09
2.24675e-09
1.86375e-09
1.41936e-09
1.02227e-09
1.03302e-09
1.42786e-09
1.86681e-09
2.24176e-09
2.45566e-09
2.45067e-09
2.22783e-09
1.84674e-09
1.40546e-09
1.01181e-09
1.0423e-09
1.44003e-09
1.88151e-09
2.25786e-09
2.47164e-09
2.46506e-09
2.23954e-09
1.85533e-09
1.41108e-09
1.01517e-09
1.04167e-09
1.43903e-09
1.88e-09
2.25552e-09
2.46818e-09
2.46039e-09
2.23393e-09
1.84939e-09
1.40554e-09
1.01071e-09
1.04068e-09
1.43832e-09
1.8797e-09
2.25544e-09
2.46781e-09
2.45919e-09
2.23161e-09
1.84611e-09
1.4019e-09
1.00748e-09
1.03499e-09
1.43112e-09
1.87107e-09
2.24571e-09
2.45724e-09
2.44816e-09
2.22065e-09
1.83588e-09
1.39319e-09
1.00077e-09
1.02919e-09
1.42351e-09
1.86165e-09
2.23491e-09
2.44572e-09
2.4367e-09
2.21005e-09
1.8268e-09
1.3861e-09
9.9565e-10
1.02362e-09
1.41607e-09
1.85229e-09
2.22423e-09
2.43471e-09
2.42654e-09
2.20174e-09
1.82085e-09
1.38242e-09
9.93602e-10
1.01895e-09
1.4104e-09
1.846e-09
2.21805e-09
2.4296e-09
2.42343e-09
2.20113e-09
1.82259e-09
1.38561e-09
9.97099e-10
1.01291e-09
1.40408e-09
1.8406e-09
2.21467e-09
2.42919e-09
2.42642e-09
2.20727e-09
1.83092e-09
1.39458e-09
1.00524e-09
1.00454e-09
1.39539e-09
1.83353e-09
2.21082e-09
2.42962e-09
2.43118e-09
2.21549e-09
1.84107e-09
1.40487e-09
1.0143e-09
9.9514e-10
1.38477e-09
1.82352e-09
2.20328e-09
2.42578e-09
2.43119e-09
2.21849e-09
1.84563e-09
1.40966e-09
1.01857e-09
9.87085e-10
1.37447e-09
1.81189e-09
2.19187e-09
2.41582e-09
2.42325e-09
2.21239e-09
1.8408e-09
1.40569e-09
1.01543e-09
9.81843e-10
1.36669e-09
1.80137e-09
2.17937e-09
2.40232e-09
2.40979e-09
2.1997e-09
1.8294e-09
1.39601e-09
1.00777e-09
9.79581e-10
1.36258e-09
1.79458e-09
2.16989e-09
2.3907e-09
2.39715e-09
2.18732e-09
1.8184e-09
1.38709e-09
1.00108e-09
9.79138e-10
1.36152e-09
1.79226e-09
2.16582e-09
2.38503e-09
2.3906e-09
2.18098e-09
1.81323e-09
1.38355e-09
9.98952e-10
9.79063e-10
1.36188e-09
1.79298e-09
2.16648e-09
2.38553e-09
2.39108e-09
2.18184e-09
1.81478e-09
1.38578e-09
1.00146e-09
9.78812e-10
1.36254e-09
1.79486e-09
2.16948e-09
2.38944e-09
2.39559e-09
2.18669e-09
1.8197e-09
1.39053e-09
1.00575e-09
9.79866e-10
1.36456e-09
1.79795e-09
2.17355e-09
2.39424e-09
2.40069e-09
2.1917e-09
1.82425e-09
1.39458e-09
1.00916e-09
9.87425e-10
1.37345e-09
1.80733e-09
2.18268e-09
2.40266e-09
2.40811e-09
2.19802e-09
1.82942e-09
1.39878e-09
1.01225e-09
1.00732e-09
1.39624e-09
1.83087e-09
2.20492e-09
2.42225e-09
2.42436e-09
2.21075e-09
1.83868e-09
1.40487e-09
1.01543e-09
1.04005e-09
1.43407e-09
1.87063e-09
2.24301e-09
2.45575e-09
2.45137e-09
2.2304e-09
1.85113e-09
1.41093e-09
1.01675e-09
1.07772e-09
1.47826e-09
1.91793e-09
2.28877e-09
2.49551e-09
2.48185e-09
2.25006e-09
1.86057e-09
1.41208e-09
1.0131e-09
1.10609e-09
1.51254e-09
1.95571e-09
2.32588e-09
2.52715e-09
2.50436e-09
2.26184e-09
1.86272e-09
1.40727e-09
1.00536e-09
1.11043e-09
1.5202e-09
1.96695e-09
2.33902e-09
2.53898e-09
2.51195e-09
2.26367e-09
1.85943e-09
1.40074e-09
9.98251e-10
1.08482e-09
1.49318e-09
1.94193e-09
2.31834e-09
2.52281e-09
2.49941e-09
2.25374e-09
1.8516e-09
1.39501e-09
9.94721e-10
1.03939e-09
1.44128e-09
1.8886e-09
2.26915e-09
2.48174e-09
2.46844e-09
2.23304e-09
1.83988e-09
1.39058e-09
9.9502e-10
9.94263e-10
1.38688e-09
1.82873e-09
2.20972e-09
2.42893e-09
2.42672e-09
2.20444e-09
1.82361e-09
1.38445e-09
9.95224e-10
9.65864e-10
1.35037e-09
1.78548e-09
2.16338e-09
2.385e-09
2.39009e-09
2.17815e-09
1.80779e-09
1.37755e-09
9.9385e-10
9.54747e-10
1.33427e-09
1.76427e-09
2.13843e-09
2.35959e-09
2.36771e-09
2.16139e-09
1.7973e-09
1.37243e-09
9.92004e-10
9.56773e-10
1.33619e-09
1.76561e-09
2.13912e-09
2.36049e-09
2.37019e-09
2.16662e-09
1.80541e-09
1.38226e-09
1.00131e-09
9.50969e-10
1.33482e-09
1.77082e-09
2.1512e-09
2.37878e-09
2.39364e-09
2.19422e-09
1.83531e-09
1.41233e-09
1.02713e-09
9.61123e-10
1.351e-09
1.79477e-09
2.18517e-09
2.42463e-09
2.452e-09
2.2635e-09
1.91034e-09
1.48566e-09
1.08783e-09
1.04448e-09
1.45104e-09
1.90818e-09
2.31187e-09
2.56473e-09
2.60349e-09
2.41912e-09
2.05781e-09
1.60983e-09
1.17702e-09
1.20961e-09
1.64946e-09
2.12989e-09
2.54688e-09
2.80105e-09
2.82725e-09
2.61395e-09
2.20916e-09
1.70816e-09
1.22634e-09
1.45788e-09
1.94621e-09
2.45603e-09
2.8773e-09
3.10707e-09
3.08165e-09
2.797e-09
2.31467e-09
1.74739e-09
1.22314e-09
1.80053e-09
2.34906e-09
2.89115e-09
3.30805e-09
3.49622e-09
3.40027e-09
3.03311e-09
2.47489e-09
1.85387e-09
1.29661e-09
2.24594e-09
2.87051e-09
3.45807e-09
3.87856e-09
4.03193e-09
3.87426e-09
3.43563e-09
2.8096e-09
2.12901e-09
1.51504e-09
2.73737e-09
3.46377e-09
4.13222e-09
4.59371e-09
4.74605e-09
4.54833e-09
4.03871e-09
3.32003e-09
2.53209e-09
1.81142e-09
3.09241e-09
3.92541e-09
4.68847e-09
5.21169e-09
5.37867e-09
5.14308e-09
4.54687e-09
3.70953e-09
2.79319e-09
1.96834e-09
3.14638e-09
4.06008e-09
4.89479e-09
5.48086e-09
5.6797e-09
5.43586e-09
4.7909e-09
3.88176e-09
2.89406e-09
2.02203e-09
3.21673e-09
4.22535e-09
5.08032e-09
5.62922e-09
5.74954e-09
5.41739e-09
4.70213e-09
3.76385e-09
2.78776e-09
1.95354e-09
2.90068e-09
4.06656e-09
5.10136e-09
5.79706e-09
6.04188e-09
5.811e-09
5.18538e-09
4.31716e-09
3.38244e-09
2.53389e-09
3.17332e-09
4.55013e-09
5.99793e-09
7.18472e-09
7.8533e-09
7.85333e-09
7.18479e-09
5.99803e-09
4.55022e-09
3.1734e-09
1.87218e-09
2.63244e-09
3.46524e-09
4.16601e-09
4.56673e-09
4.56684e-09
4.16631e-09
3.46565e-09
2.63285e-09
1.87255e-09
9.82395e-10
1.36008e-09
1.78366e-09
2.14951e-09
2.36133e-09
2.36165e-09
2.1504e-09
1.78491e-09
1.36142e-09
9.83622e-10
1.15726e-09
1.60944e-09
2.11118e-09
2.54039e-09
2.78791e-09
2.78868e-09
2.54252e-09
2.11423e-09
1.61274e-09
1.1603e-09
9.92938e-10
1.37665e-09
1.80685e-09
2.17773e-09
2.39292e-09
2.39435e-09
2.18171e-09
1.81253e-09
1.38286e-09
9.98713e-10
1.04234e-09
1.44782e-09
1.90119e-09
2.29144e-09
2.51806e-09
2.5204e-09
2.29797e-09
1.91053e-09
1.45811e-09
1.05201e-09
1.00038e-09
1.38894e-09
1.82478e-09
2.20105e-09
2.42044e-09
2.42399e-09
2.21096e-09
1.83903e-09
1.40483e-09
1.01544e-09
1.0126e-09
1.40779e-09
1.85119e-09
2.23425e-09
2.45841e-09
2.46372e-09
2.24914e-09
1.87271e-09
1.43204e-09
1.03569e-09
9.99124e-10
1.39076e-09
1.83141e-09
2.21318e-09
2.4379e-09
2.44552e-09
2.23458e-09
1.86239e-09
1.42572e-09
1.03235e-09
9.98559e-10
1.39219e-09
1.83618e-09
2.22189e-09
2.45028e-09
2.46041e-09
2.25025e-09
1.87703e-09
1.43798e-09
1.04169e-09
9.91794e-10
1.3839e-09
1.82722e-09
2.21345e-09
2.44333e-09
2.45538e-09
2.24701e-09
1.87512e-09
1.4369e-09
1.04109e-09
9.9057e-10
1.382e-09
1.82489e-09
2.2113e-09
2.44176e-09
2.4545e-09
2.24655e-09
1.87468e-09
1.4362e-09
1.04021e-09
9.90178e-10
1.38004e-09
1.82086e-09
2.2054e-09
2.43448e-09
2.44656e-09
2.23857e-09
1.86721e-09
1.4296e-09
1.0348e-09
9.92521e-10
1.38156e-09
1.82072e-09
2.20317e-09
2.43014e-09
2.44057e-09
2.23166e-09
1.8602e-09
1.42313e-09
1.02936e-09
9.94783e-10
1.38336e-09
1.82125e-09
2.20168e-09
2.42631e-09
2.43469e-09
2.22453e-09
1.85286e-09
1.41648e-09
1.02395e-09
9.96515e-10
1.385e-09
1.82222e-09
2.20111e-09
2.42368e-09
2.42998e-09
2.21833e-09
1.84615e-09
1.41029e-09
1.01896e-09
9.97511e-10
1.38573e-09
1.82213e-09
2.19938e-09
2.41975e-09
2.42373e-09
2.21033e-09
1.83739e-09
1.40207e-09
1.0122e-09
9.99143e-10
1.38679e-09
1.82178e-09
2.19676e-09
2.41432e-09
2.41548e-09
2.19993e-09
1.82605e-09
1.39131e-09
1.00318e-09
1.00299e-09
1.39005e-09
1.82312e-09
2.19517e-09
2.40931e-09
2.40726e-09
2.18939e-09
1.81453e-09
1.38031e-09
9.93821e-10
1.0095e-09
1.39652e-09
1.82798e-09
2.19728e-09
2.40805e-09
2.40284e-09
2.1826e-09
1.80658e-09
1.3723e-09
9.86702e-10
1.01625e-09
1.40389e-09
1.83488e-09
2.20259e-09
2.41097e-09
2.40319e-09
2.18073e-09
1.80328e-09
1.36825e-09
9.82702e-10
1.01885e-09
1.40712e-09
1.83867e-09
2.20635e-09
2.41398e-09
2.40493e-09
2.18106e-09
1.80248e-09
1.36675e-09
9.8108e-10
1.01488e-09
1.40281e-09
1.83495e-09
2.20351e-09
2.41192e-09
2.40328e-09
2.17956e-09
1.80106e-09
1.3656e-09
9.80279e-10
1.00536e-09
1.39141e-09
1.82302e-09
2.19232e-09
2.40233e-09
2.39565e-09
2.17392e-09
1.79722e-09
1.36338e-09
9.79166e-10
9.94205e-10
1.37701e-09
1.80642e-09
2.17543e-09
2.38695e-09
2.38312e-09
2.16485e-09
1.79142e-09
1.36027e-09
9.77764e-10
9.86672e-10
1.3663e-09
1.79263e-09
2.16029e-09
2.37253e-09
2.37138e-09
2.15683e-09
1.78712e-09
1.35884e-09
9.77927e-10
9.87221e-10
1.36635e-09
1.7913e-09
2.15803e-09
2.37053e-09
2.37115e-09
2.15936e-09
1.7924e-09
1.36582e-09
9.84999e-10
9.95082e-10
1.37826e-09
1.80673e-09
2.17598e-09
2.39055e-09
2.39301e-09
2.18279e-09
1.81646e-09
1.38886e-09
1.0049e-09
1.00336e-09
1.39419e-09
1.83185e-09
2.2093e-09
2.43054e-09
2.43727e-09
2.22875e-09
1.86116e-09
1.42931e-09
1.03831e-09
1.00475e-09
1.40382e-09
1.85379e-09
2.24429e-09
2.47721e-09
2.49184e-09
2.28632e-09
1.91653e-09
1.47799e-09
1.0774e-09
9.98482e-10
1.4027e-09
1.86282e-09
2.26635e-09
2.51213e-09
2.53613e-09
2.33435e-09
1.96231e-09
1.51683e-09
1.10742e-09
9.91244e-10
1.39548e-09
1.85874e-09
2.26887e-09
2.52217e-09
2.55188e-09
2.35171e-09
1.97714e-09
1.52655e-09
1.11275e-09
9.8943e-10
1.38888e-09
1.84648e-09
2.25264e-09
2.50303e-09
2.53036e-09
2.32736e-09
1.95013e-09
1.49835e-09
1.0871e-09
9.93286e-10
1.38577e-09
1.83204e-09
2.22544e-09
2.46318e-09
2.48014e-09
2.27035e-09
1.89126e-09
1.44305e-09
1.04058e-09
9.97095e-10
1.38271e-09
1.81667e-09
2.19414e-09
2.41534e-09
2.41903e-09
2.20238e-09
1.82421e-09
1.38407e-09
9.93625e-10
9.9778e-10
1.37859e-09
1.80384e-09
2.16883e-09
2.37685e-09
2.37039e-09
2.14999e-09
1.77515e-09
1.34395e-09
9.63569e-10
9.95389e-10
1.37425e-09
1.79619e-09
2.15522e-09
2.3568e-09
2.3456e-09
2.12441e-09
1.75277e-09
1.32735e-09
9.52068e-10
9.9902e-10
1.37751e-09
1.7984e-09
2.15516e-09
2.35452e-09
2.34201e-09
2.12116e-09
1.75117e-09
1.32782e-09
9.53705e-10
1.00715e-09
1.38297e-09
1.79866e-09
2.1505e-09
2.34561e-09
2.33047e-09
2.10843e-09
1.73855e-09
1.31656e-09
9.44982e-10
1.03926e-09
1.41281e-09
1.81836e-09
2.15914e-09
2.34483e-09
2.32507e-09
2.10324e-09
1.73708e-09
1.31989e-09
9.51719e-10
1.13141e-09
1.51958e-09
1.9273e-09
2.26402e-09
2.44415e-09
2.42157e-09
2.19986e-09
1.83417e-09
1.41303e-09
1.03406e-09
1.25473e-09
1.68683e-09
2.12735e-09
2.48585e-09
2.67837e-09
2.66055e-09
2.43561e-09
2.05733e-09
1.61204e-09
1.19999e-09
1.35767e-09
1.87288e-09
2.39336e-09
2.81653e-09
3.05206e-09
3.05254e-09
2.82114e-09
2.41385e-09
1.92089e-09
1.45079e-09
1.3733e-09
2.01329e-09
2.68111e-09
3.23554e-09
3.56441e-09
3.60831e-09
3.37244e-09
2.92102e-09
2.35642e-09
1.80018e-09
1.10009e-09
1.87179e-09
2.7763e-09
3.58821e-09
4.12852e-09
4.29489e-09
4.08916e-09
3.59215e-09
2.93344e-09
2.2581e-09
5.20583e-10
1.26114e-09
2.34198e-09
3.47539e-09
4.36543e-09
4.80465e-09
4.74752e-09
4.27597e-09
3.55193e-09
2.75811e-09
1.30934e-10
5.90409e-10
1.50206e-09
2.70106e-09
3.85285e-09
4.63301e-09
4.87069e-09
4.58029e-09
3.91604e-09
3.09439e-09
4.5528e-11
1.76065e-10
6.58738e-10
1.53342e-09
2.60734e-09
3.5683e-09
4.1288e-09
4.1674e-09
3.745e-09
3.07128e-09
6.65228e-11
5.45967e-11
2.59387e-10
7.99308e-10
1.62518e-09
2.5462e-09
3.27792e-09
3.60029e-09
3.45195e-09
2.98522e-09
1.37632e-10
5.43005e-11
9.63977e-12
1.92998e-10
6.02366e-10
1.17507e-09
1.77481e-09
2.22921e-09
2.43132e-09
2.362e-09
3.17331e-09
4.55011e-09
5.99792e-09
7.18468e-09
7.85325e-09
7.85326e-09
7.1847e-09
5.99794e-09
4.55014e-09
3.17333e-09
1.87209e-09
2.6323e-09
3.46505e-09
4.16574e-09
4.56637e-09
4.5664e-09
4.16582e-09
3.46516e-09
2.63241e-09
1.87219e-09
9.8212e-10
1.35964e-09
1.78303e-09
2.14863e-09
2.36019e-09
2.36027e-09
2.14885e-09
1.78332e-09
1.35993e-09
9.82372e-10
1.15649e-09
1.60826e-09
2.10953e-09
2.53814e-09
2.78506e-09
2.78528e-09
2.53873e-09
2.11032e-09
1.60906e-09
1.15719e-09
9.90663e-10
1.37345e-09
1.8027e-09
2.17255e-09
2.38673e-09
2.38728e-09
2.17406e-09
1.80483e-09
1.3757e-09
9.92706e-10
1.03672e-09
1.44028e-09
1.89191e-09
2.28052e-09
2.50567e-09
2.50688e-09
2.28388e-09
1.89675e-09
1.44562e-09
1.04173e-09
9.90191e-10
1.37532e-09
1.80804e-09
2.18152e-09
2.39864e-09
2.40064e-09
2.18716e-09
1.81625e-09
1.38461e-09
9.99091e-10
9.98607e-10
1.38824e-09
1.82602e-09
2.20389e-09
2.42378e-09
2.42633e-09
2.21108e-09
1.83651e-09
1.40028e-09
1.01032e-09
9.84399e-10
1.36812e-09
1.79967e-09
2.17235e-09
2.38926e-09
2.39164e-09
2.17911e-09
1.80954e-09
1.37961e-09
9.95773e-10
9.87143e-10
1.37109e-09
1.80236e-09
2.17438e-09
2.39036e-09
2.39178e-09
2.17843e-09
1.80829e-09
1.37817e-09
9.94477e-10
9.87475e-10
1.36968e-09
1.79809e-09
2.16695e-09
2.3802e-09
2.38002e-09
2.16646e-09
1.79741e-09
1.36924e-09
9.87742e-10
9.9551e-10
1.37888e-09
1.80724e-09
2.17498e-09
2.38642e-09
2.38427e-09
2.16896e-09
1.7986e-09
1.36945e-09
9.87367e-10
1.00406e-09
1.38928e-09
1.81851e-09
2.18591e-09
2.396e-09
2.39192e-09
2.17452e-09
1.80229e-09
1.3715e-09
9.88271e-10
1.01254e-09
1.40064e-09
1.83243e-09
2.20123e-09
2.41129e-09
2.40577e-09
2.18593e-09
1.81083e-09
1.37724e-09
9.91786e-10
1.01672e-09
1.40701e-09
1.84137e-09
2.21217e-09
2.42307e-09
2.41699e-09
2.1954e-09
1.81793e-09
1.382e-09
9.94701e-10
1.01639e-09
1.4077e-09
1.84383e-09
2.21656e-09
2.42887e-09
2.4232e-09
2.20103e-09
1.82232e-09
1.38506e-09
9.96602e-10
1.01295e-09
1.40386e-09
1.84035e-09
2.2142e-09
2.4279e-09
2.42348e-09
2.20213e-09
1.82374e-09
1.38646e-09
9.97657e-10
1.00997e-09
1.39991e-09
1.83581e-09
2.20997e-09
2.42476e-09
2.42197e-09
2.20231e-09
1.82521e-09
1.38856e-09
9.99612e-10
1.01006e-09
1.39957e-09
1.835e-09
2.20926e-09
2.42489e-09
2.4236e-09
2.20564e-09
1.82985e-09
1.3936e-09
1.00408e-09
1.01349e-09
1.40394e-09
1.84019e-09
2.21522e-09
2.43179e-09
2.43157e-09
2.21452e-09
1.83909e-09
1.40224e-09
1.01128e-09
1.01892e-09
1.41161e-09
1.85014e-09
2.22692e-09
2.44463e-09
2.44477e-09
2.22725e-09
1.85053e-09
1.41172e-09
1.01856e-09
1.02498e-09
1.42022e-09
1.86142e-09
2.24007e-09
2.45849e-09
2.45785e-09
2.23824e-09
1.85863e-09
1.41693e-09
1.02156e-09
1.03126e-09
1.4283e-09
1.87103e-09
2.25032e-09
2.46805e-09
2.46522e-09
2.24233e-09
1.85916e-09
1.41472e-09
1.01806e-09
1.03756e-09
1.43526e-09
1.87779e-09
2.25593e-09
2.47135e-09
2.46527e-09
2.23874e-09
1.85242e-09
1.40616e-09
1.00939e-09
1.04362e-09
1.44138e-09
1.88259e-09
2.25844e-09
2.47071e-09
2.46123e-09
2.23156e-09
1.84308e-09
1.3959e-09
9.99688e-10
1.0458e-09
1.44351e-09
1.88383e-09
2.25811e-09
2.46826e-09
2.45668e-09
2.22537e-09
1.83612e-09
1.38885e-09
9.93433e-10
1.03512e-09
1.43201e-09
1.87284e-09
2.2482e-09
2.45963e-09
2.44941e-09
2.21967e-09
1.83229e-09
1.38689e-09
9.93127e-10
1.00679e-09
1.4003e-09
1.84164e-09
2.22025e-09
2.43685e-09
2.43257e-09
2.20905e-09
1.82748e-09
1.38721e-09
9.9681e-10
9.69545e-10
1.35604e-09
1.79464e-09
2.17496e-09
2.39737e-09
2.40152e-09
2.18775e-09
1.81555e-09
1.38361e-09
9.98679e-10
9.39945e-10
1.31742e-09
1.74882e-09
2.12605e-09
2.35046e-09
2.36108e-09
2.15672e-09
1.7946e-09
1.37207e-09
9.93921e-10
9.28967e-10
1.29937e-09
1.72208e-09
2.09239e-09
2.31367e-09
2.32584e-09
2.12678e-09
1.77183e-09
1.35661e-09
9.84419e-10
9.37687e-10
1.30659e-09
1.72439e-09
2.08886e-09
2.30521e-09
2.31497e-09
2.11593e-09
1.76263e-09
1.34919e-09
9.78599e-10
9.61955e-10
1.33548e-09
1.75452e-09
2.11757e-09
2.3306e-09
2.33637e-09
2.13301e-09
1.77543e-09
1.35709e-09
9.82353e-10
9.9611e-10
1.37871e-09
1.80447e-09
2.1706e-09
2.38258e-09
2.38353e-09
2.17221e-09
1.80508e-09
1.37636e-09
9.93171e-10
1.03164e-09
1.42449e-09
1.85904e-09
2.22987e-09
2.44122e-09
2.43601e-09
2.2143e-09
1.83494e-09
1.39441e-09
1.00237e-09
1.06076e-09
1.46222e-09
1.90455e-09
2.27904e-09
2.48872e-09
2.47639e-09
2.24404e-09
1.85323e-09
1.40344e-09
1.00536e-09
1.07469e-09
1.48071e-09
1.92753e-09
2.30359e-09
2.5111e-09
2.49296e-09
2.25327e-09
1.85566e-09
1.40207e-09
1.00228e-09
1.06666e-09
1.47076e-09
1.91689e-09
2.29324e-09
2.50188e-09
2.48563e-09
2.24873e-09
1.85437e-09
1.404e-09
1.00538e-09
1.04924e-09
1.44676e-09
1.88705e-09
2.2623e-09
2.47565e-09
2.46953e-09
2.24496e-09
1.86161e-09
1.41659e-09
1.0178e-09
9.70454e-10
1.36623e-09
1.81605e-09
2.21045e-09
2.44823e-09
2.46789e-09
2.26574e-09
1.89792e-09
1.45751e-09
1.05509e-09
7.69121e-10
1.14887e-09
1.61636e-09
2.05751e-09
2.35933e-09
2.44511e-09
2.29901e-09
1.96911e-09
1.54557e-09
1.14111e-09
5.87651e-10
9.13307e-10
1.34592e-09
1.78822e-09
2.1344e-09
2.29574e-09
2.2367e-09
1.98378e-09
1.61362e-09
1.23296e-09
4.54055e-10
6.95773e-10
1.03875e-09
1.41597e-09
1.7485e-09
1.95441e-09
1.98564e-09
1.84165e-09
1.57256e-09
1.26448e-09
3.08612e-10
4.65003e-10
6.9816e-10
9.72749e-10
1.23746e-09
1.4361e-09
1.52559e-09
1.49018e-09
1.35335e-09
1.16834e-09
2.56121e-10
3.60766e-10
4.93084e-10
6.41406e-10
7.70251e-10
8.61941e-10
9.01371e-10
8.87949e-10
8.4075e-10
7.89881e-10
2.83732e-10
3.62424e-10
4.31347e-10
4.80583e-10
4.82279e-10
4.4353e-10
3.76399e-10
3.01167e-10
2.49907e-10
2.4847e-10
3.34984e-10
3.98564e-10
4.35349e-10
4.31886e-10
3.7343e-10
2.84071e-10
1.9436e-10
1.22804e-10
8.40309e-11
4.74922e-11
4.85352e-10
5.50264e-10
5.69588e-10
5.24931e-10
4.13562e-10
2.74614e-10
1.59274e-10
9.98495e-11
1.03441e-10
8.44239e-11
6.8291e-10
7.71532e-10
7.865e-10
7.11201e-10
5.45556e-10
3.40987e-10
1.64186e-10
7.21633e-11
8.1132e-11
9.46711e-11
1.16621e-09
1.27196e-09
1.22941e-09
1.02786e-09
7.09877e-10
3.69082e-10
1.06888e-10
1.75009e-12
6.85294e-11
1.39197e-10
3.17338e-09
4.55019e-09
5.998e-09
7.18475e-09
7.85329e-09
7.85327e-09
7.18469e-09
5.99791e-09
4.55011e-09
3.17331e-09
1.87241e-09
2.63267e-09
3.46543e-09
4.16606e-09
4.56659e-09
4.56649e-09
4.1658e-09
3.46506e-09
2.6323e-09
1.87208e-09
9.83145e-10
1.36081e-09
1.78422e-09
2.14966e-09
2.36092e-09
2.36065e-09
2.14892e-09
1.78318e-09
1.35971e-09
9.82132e-10
1.15916e-09
1.61132e-09
2.11262e-09
2.54083e-09
2.78703e-09
2.78639e-09
2.53906e-09
2.11009e-09
1.60855e-09
1.15658e-09
9.96516e-10
1.38012e-09
1.80941e-09
2.17839e-09
2.39102e-09
2.38969e-09
2.17469e-09
1.80407e-09
1.37416e-09
9.90889e-10
1.04771e-09
1.4527e-09
1.90431e-09
2.29119e-09
2.5133e-09
2.5108e-09
2.2842e-09
1.89421e-09
1.44142e-09
1.03706e-09
1.00691e-09
1.39401e-09
1.82647e-09
2.19713e-09
2.40937e-09
2.40544e-09
2.18617e-09
1.81073e-09
1.37655e-09
9.90493e-10
1.02022e-09
1.41226e-09
1.84959e-09
2.22376e-09
2.43727e-09
2.43206e-09
2.2093e-09
1.82894e-09
1.3895e-09
9.98864e-10
1.00893e-09
1.39555e-09
1.82693e-09
2.19595e-09
2.40617e-09
2.40033e-09
2.17975e-09
1.80386e-09
1.37012e-09
9.84897e-10
1.01179e-09
1.39938e-09
1.83171e-09
2.20155e-09
2.4123e-09
2.40668e-09
2.18596e-09
1.80953e-09
1.37478e-09
9.88245e-10
1.00741e-09
1.3939e-09
1.82544e-09
2.19511e-09
2.40644e-09
2.40213e-09
2.18317e-09
1.80856e-09
1.37512e-09
9.89178e-10
1.00485e-09
1.39219e-09
1.82559e-09
2.19779e-09
2.41189e-09
2.41004e-09
2.19277e-09
1.81877e-09
1.38475e-09
9.97314e-10
9.99118e-10
1.38655e-09
1.82136e-09
2.1961e-09
2.41342e-09
2.41478e-09
2.20006e-09
1.82748e-09
1.39364e-09
1.00531e-09
9.94879e-10
1.38253e-09
1.81871e-09
2.19586e-09
2.41625e-09
2.42057e-09
2.20805e-09
1.83644e-09
1.40238e-09
1.01292e-09
9.93251e-10
1.38073e-09
1.81718e-09
2.19527e-09
2.41718e-09
2.42314e-09
2.21187e-09
1.84074e-09
1.4065e-09
1.01644e-09
9.96643e-10
1.38421e-09
1.82021e-09
2.19776e-09
2.41919e-09
2.42477e-09
2.21303e-09
1.8413e-09
1.40644e-09
1.01601e-09
1.00457e-09
1.39284e-09
1.82817e-09
2.2041e-09
2.42333e-09
2.42663e-09
2.21282e-09
1.83951e-09
1.40365e-09
1.01305e-09
1.01383e-09
1.40374e-09
1.83932e-09
2.21401e-09
2.43082e-09
2.43116e-09
2.2145e-09
1.83901e-09
1.40178e-09
1.01078e-09
1.01884e-09
1.41072e-09
1.84783e-09
2.22293e-09
2.43888e-09
2.43741e-09
2.21863e-09
1.84132e-09
1.40282e-09
1.01122e-09
1.01659e-09
1.4096e-09
1.84863e-09
2.22561e-09
2.44284e-09
2.44182e-09
2.22286e-09
1.84507e-09
1.40611e-09
1.0141e-09
1.00959e-09
1.40229e-09
1.84223e-09
2.22112e-09
2.44074e-09
2.44201e-09
2.22491e-09
1.84836e-09
1.41015e-09
1.01822e-09
1.00327e-09
1.39486e-09
1.8345e-09
2.21435e-09
2.4361e-09
2.44019e-09
2.22596e-09
1.85165e-09
1.4148e-09
1.02305e-09
1.00144e-09
1.39238e-09
1.83159e-09
2.21182e-09
2.43505e-09
2.44147e-09
2.22976e-09
1.85736e-09
1.42128e-09
1.02904e-09
1.00437e-09
1.39594e-09
1.83567e-09
2.21664e-09
2.44103e-09
2.44891e-09
2.23848e-09
1.86662e-09
1.4299e-09
1.03611e-09
1.00933e-09
1.40267e-09
1.8442e-09
2.22668e-09
2.45223e-09
2.46079e-09
2.25032e-09
1.87765e-09
1.43917e-09
1.04329e-09
1.01354e-09
1.40885e-09
1.85256e-09
2.23656e-09
2.4627e-09
2.47071e-09
2.25871e-09
1.88399e-09
1.44334e-09
1.04595e-09
1.01651e-09
1.41239e-09
1.85654e-09
2.23985e-09
2.46396e-09
2.46858e-09
2.25256e-09
1.87423e-09
1.43171e-09
1.03481e-09
1.01726e-09
1.41092e-09
1.8518e-09
2.23032e-09
2.44821e-09
2.4458e-09
2.22342e-09
1.84105e-09
1.39856e-09
1.0056e-09
1.01398e-09
1.40264e-09
1.83661e-09
2.20684e-09
2.41566e-09
2.40496e-09
2.17691e-09
1.79305e-09
1.35411e-09
9.68203e-10
1.00552e-09
1.38814e-09
1.81437e-09
2.1765e-09
2.37781e-09
2.36201e-09
2.13258e-09
1.75152e-09
1.31868e-09
9.39906e-10
9.94424e-10
1.37167e-09
1.79187e-09
2.14906e-09
2.34753e-09
2.33217e-09
2.10649e-09
1.73154e-09
1.30493e-09
9.30763e-10
9.86143e-10
1.36021e-09
1.77744e-09
2.13362e-09
2.3338e-09
2.32309e-09
2.10388e-09
1.73547e-09
1.31309e-09
9.40186e-10
9.84326e-10
1.35865e-09
1.7767e-09
2.13535e-09
2.34007e-09
2.33555e-09
2.12268e-09
1.75903e-09
1.33807e-09
9.63404e-10
9.89486e-10
1.36847e-09
1.79218e-09
2.15701e-09
2.36827e-09
2.36967e-09
2.16091e-09
1.79839e-09
1.37511e-09
9.95481e-10
9.96049e-10
1.38224e-09
1.81524e-09
2.18931e-09
2.40878e-09
2.41568e-09
2.20886e-09
1.84427e-09
1.41575e-09
1.02896e-09
9.99771e-10
1.3926e-09
1.83524e-09
2.21924e-09
2.44731e-09
2.45933e-09
2.25337e-09
1.88541e-09
1.45085e-09
1.05674e-09
9.99884e-10
1.3963e-09
1.84496e-09
2.23576e-09
2.46985e-09
2.48528e-09
2.27947e-09
1.90857e-09
1.46954e-09
1.07043e-09
1.0081e-09
1.40398e-09
1.85065e-09
2.2386e-09
2.46958e-09
2.48212e-09
2.27403e-09
1.90174e-09
1.46237e-09
1.06364e-09
1.03245e-09
1.42644e-09
1.86543e-09
2.2407e-09
2.45824e-09
2.46017e-09
2.24683e-09
1.87526e-09
1.4404e-09
1.04767e-09
1.08465e-09
1.47308e-09
1.89352e-09
2.23902e-09
2.42145e-09
2.39005e-09
2.1517e-09
1.7685e-09
1.33687e-09
9.61722e-10
1.14529e-09
1.51243e-09
1.88858e-09
2.17278e-09
2.28452e-09
2.18685e-09
1.90035e-09
1.49794e-09
1.08103e-09
7.4813e-10
1.15601e-09
1.48366e-09
1.80009e-09
2.01318e-09
2.05567e-09
1.90785e-09
1.60373e-09
1.21866e-09
8.47313e-10
5.66389e-10
1.13159e-09
1.43748e-09
1.72906e-09
1.91478e-09
1.93366e-09
1.77168e-09
1.46612e-09
1.08885e-09
7.31974e-10
4.61477e-10
1.20533e-09
1.53089e-09
1.83681e-09
2.02118e-09
2.01782e-09
1.81293e-09
1.45284e-09
1.02269e-09
6.33434e-10
3.50306e-10
1.41476e-09
1.78046e-09
2.10813e-09
2.28532e-09
2.24133e-09
1.97107e-09
1.5388e-09
1.04843e-09
6.23787e-10
3.22197e-10
1.67637e-09
2.08534e-09
2.43855e-09
2.61474e-09
2.54035e-09
2.22e-09
1.73012e-09
1.18661e-09
7.14369e-10
3.75959e-10
1.79509e-09
2.21829e-09
2.58254e-09
2.76228e-09
2.68432e-09
2.35743e-09
1.85893e-09
1.30353e-09
8.09764e-10
4.45843e-10
1.84312e-09
2.28943e-09
2.68315e-09
2.89812e-09
2.8588e-09
2.56892e-09
2.09603e-09
1.5448e-09
1.02766e-09
6.17449e-10
1.7817e-09
2.1986e-09
2.57463e-09
2.80967e-09
2.82934e-09
2.62363e-09
2.23368e-09
1.74361e-09
1.24717e-09
8.24725e-10
2.45967e-09
3.04451e-09
3.55161e-09
3.8723e-09
3.93193e-09
3.70605e-09
3.23141e-09
2.60562e-09
1.93875e-09
1.35283e-09
)
;
    }
    inlet
    {
        type            calculated;
        value           uniform 0;
    }
    outlet
    {
        type            calculated;
        value           uniform 0;
    }
}


// ************************************************************************* //
