/*--------------------------------*- C++ -*----------------------------------*\
| =========                 |                                                 |
| \\      /  F ield         | OpenFOAM: The Open Source CFD Toolbox           |
|  \\    /   O peration     | Version:  2406                                  |
|   \\  /    A nd           | Website:  www.openfoam.com                      |
|    \\/     M anipulation  |                                                 |
\*---------------------------------------------------------------------------*/
FoamFile
{
    version     2.0;
    format      ascii;
    arch        "LSB;label=32;scalar=64";
    class       volSymmTensorField;
    location    "0.9";
    object      turbulenceProperties:devReff;
}
// * * * * * * * * * * * * * * * * * * * * * * * * * * * * * * * * * * * * * //

dimensions      [0 2 -2 0 0 0 0];

internalField   nonuniform List<symmTensor> 
25000
(
(0.0299535 -0.0224594 -0.0712357 0.0299562 -0.0712254 -0.0599097)
(0.0517372 -0.011725 -0.0452999 0.0323423 -0.0646296 -0.0840795)
(0.0592762 -0.00643207 -0.0276569 0.0382217 -0.0555086 -0.0974979)
(0.0629816 -0.00293848 -0.0148674 0.0419248 -0.0491169 -0.104906)
(0.0645776 -0.000869279 -0.00468031 0.0437135 -0.0459786 -0.108291)
(0.0645787 0.000869545 0.00465868 0.0437142 -0.0459786 -0.108293)
(0.0629849 0.00293842 0.0148463 0.0419271 -0.049117 -0.104912)
(0.0592822 0.00643126 0.027637 0.0382253 -0.0555089 -0.0975075)
(0.0517471 0.0117228 0.0452818 0.0323468 -0.0646303 -0.0840939)
(0.0299667 0.0224554 0.0712216 0.0299611 -0.0712269 -0.0599278)
(0.0323398 -0.0117262 -0.0646387 0.0517392 -0.0452877 -0.084079)
(0.0533639 -0.00548492 -0.0364014 0.0533666 -0.0363908 -0.10673)
(0.0599983 -0.00298992 -0.0199785 0.0562647 -0.0302389 -0.116263)
(0.0628697 -0.00133134 -0.0100434 0.0578664 -0.026395 -0.120736)
(0.0639932 -0.000367688 -0.0030631 0.0585847 -0.0245616 -0.122578)
(0.0639944 0.000368313 0.00304367 0.0585848 -0.0245616 -0.122579)
(0.0628732 0.00133176 0.0100243 0.057867 -0.0263949 -0.12074)
(0.0600043 0.00298984 0.0199603 0.0562657 -0.0302389 -0.11627)
(0.0533736 0.0054838 0.0363848 0.0533678 -0.0363912 -0.106741)
(0.0323525 0.0117233 0.0646254 0.0517416 -0.0452887 -0.0840941)
(0.0382187 -0.00643428 -0.0555168 0.059277 -0.0276441 -0.0974957)
(0.0562618 -0.0029908 -0.0302485 0.0599999 -0.0199674 -0.116262)
(0.0618197 -0.00158099 -0.0158165 0.0618215 -0.0158064 -0.123641)
(0.0638651 -0.000657585 -0.00757078 0.0628475 -0.0135056 -0.126713)
(0.0645174 -0.000165121 -0.00224363 0.0632879 -0.0124698 -0.127805)
(0.0645185 0.000165846 0.00222582 0.0632879 -0.0124697 -0.127806)
(0.0638684 0.00065809 0.00755321 0.0628475 -0.0135053 -0.126716)
(0.0618254 0.00158104 0.0157996 0.0618217 -0.0158061 -0.123647)
(0.0562707 0.00299 0.0302331 0.0600002 -0.0199673 -0.116271)
(0.0382305 0.00643194 0.0555044 0.0592785 -0.0276444 -0.097509)
(0.0419211 -0.00294122 -0.0491247 0.0629816 -0.0148541 -0.104903)
(0.0578634 -0.00133275 -0.026404 0.0628705 -0.0100319 -0.120734)
(0.0628455 -0.000658128 -0.013515 0.0638661 -0.00756046 -0.126712)
(0.06444 -0.000236018 -0.00630996 0.0644411 -0.00630028 -0.128881)
(0.0648183 -4.79851e-05 -0.00184107 0.0646802 -0.00576763 -0.129498)
(0.0648194 4.86581e-05 0.00182432 0.0646801 -0.00576753 -0.129499)
(0.0644431 0.000236465 0.0062934 0.0644409 -0.00629998 -0.128884)
(0.0628509 0.000658157 0.013499 0.063866 -0.00756003 -0.126717)
(0.0578716 0.00133211 0.0263893 0.0628704 -0.0100315 -0.120742)
(0.0419323 0.00293947 0.0491127 0.0629823 -0.014854 -0.104915)
(0.0437089 -0.000871947 -0.0459862 0.0645768 -0.00466689 -0.108286)
(0.0585815 -0.000369315 -0.0245704 0.063993 -0.00305144 -0.122574)
(0.0632859 -0.000165985 -0.0124791 0.0645174 -0.00223315 -0.127803)
(0.0646791 -4.83411e-05 -0.00577706 0.0648185 -0.00183128 -0.129498)
(0.0649346 -6.12128e-06 -0.00167714 0.0649347 -0.00166764 -0.129869)
(0.0649356 6.72042e-06 0.00166096 0.0649346 -0.00166755 -0.12987)
(0.064682 4.87409e-05 0.00576105 0.0648182 -0.00183101 -0.1295)
(0.063291 0.000166027 0.0124636 0.0645172 -0.00223274 -0.127808)
(0.0585893 0.000368873 0.0245561 0.0639928 -0.00305096 -0.122582)
(0.0437196 0.000870864 0.0459743 0.0645772 -0.00466641 -0.108297)
(0.0437088 0.000867224 -0.0459863 0.0645766 0.00467195 -0.108285)
(0.0585816 0.000366688 -0.0245705 0.0639928 0.00305534 -0.122574)
(0.063286 0.000164873 -0.0124791 0.0645173 0.00223636 -0.127803)
(0.0646791 4.81356e-05 -0.00577704 0.0648184 0.00183417 -0.129497)
(0.0649345 6.51705e-06 -0.00167708 0.0649347 0.00167048 -0.129869)
(0.0649354 -5.92424e-06 0.00166105 0.0649347 0.00167056 -0.12987)
(0.0646818 -4.77098e-05 0.00576115 0.0648183 0.00183441 -0.1295)
(0.0632907 -0.000164742 0.0124637 0.0645173 0.00223675 -0.127808)
(0.0585889 -0.000366899 0.0245562 0.0639929 0.00305588 -0.122582)
(0.0437191 -0.000867677 0.0459743 0.0645772 0.00467272 -0.108296)
(0.0419206 0.00293675 -0.0491249 0.0629812 0.0148591 -0.104902)
(0.0578634 0.00133036 -0.0264041 0.06287 0.0100357 -0.120733)
(0.0628455 0.000657224 -0.0135151 0.0638658 0.0075637 -0.126711)
(0.0644399 0.000235974 -0.00630986 0.0644409 0.00630324 -0.128881)
(0.0648181 4.84926e-05 -0.00184086 0.0646802 0.00577056 -0.129498)
(0.0648189 -4.7805e-05 0.0018246 0.0646803 0.00577065 -0.129499)
(0.0644424 -0.000235424 0.00629369 0.0644412 0.00630348 -0.128884)
(0.0628499 -0.000656916 0.0134993 0.0638664 0.00756412 -0.126716)
(0.0578704 -0.00133028 0.0263895 0.0628708 0.0100364 -0.120741)
(0.0419308 -0.00293649 0.0491126 0.0629825 0.0148602 -0.104913)
(0.0382177 0.00643047 -0.055517 0.0592765 0.0276489 -0.0974942)
(0.0562616 0.0029889 -0.0302486 0.0599993 0.0199712 -0.116261)
(0.0618195 0.00158047 -0.0158164 0.0618212 0.0158097 -0.123641)
(0.0638647 0.00065781 -0.00757055 0.0628474 0.0135087 -0.126712)
(0.0645169 0.000165788 -0.00224324 0.0632881 0.012473 -0.127805)
(0.0645176 -0.00016491 0.00222629 0.0632883 0.0124731 -0.127806)
(0.0638671 -0.000657014 0.0075537 0.0628482 0.013509 -0.126715)
(0.0618236 -0.00157985 0.0158 0.0618226 0.0158103 -0.123646)
(0.0562685 -0.00298844 0.0302333 0.0600011 0.0199722 -0.11627)
(0.0382279 -0.00642961 0.0555042 0.0592788 0.0276504 -0.0975067)
(0.0323382 0.0117236 -0.0646387 0.0517383 0.0452923 -0.0840765)
(0.0533631 0.0054838 -0.0364013 0.0533659 0.0363946 -0.106729)
(0.0599975 0.00298991 -0.0199782 0.0562644 0.0302423 -0.116262)
(0.0628688 0.00133185 -0.0100429 0.0578664 0.0263983 -0.120735)
(0.0639921 0.00036846 -0.00306248 0.058585 0.0245649 -0.122577)
(0.0639928 -0.000367372 0.00304434 0.0585854 0.0245651 -0.122578)
(0.062871 -0.00133072 0.0100249 0.0578678 0.0263988 -0.120739)
(0.0600015 -0.0029887 0.0199608 0.0562667 0.0302433 -0.116268)
(0.0533699 -0.00548248 0.0363849 0.0533691 0.0363962 -0.106739)
(0.0323483 -0.0117215 0.064625 0.0517422 0.0452945 -0.0840905)
(0.0299514 0.0224589 -0.0712352 0.0299547 0.0712293 -0.0599061)
(0.0517353 0.011725 -0.0452993 0.0323417 0.064633 -0.084077)
(0.0592742 0.00643271 -0.0276562 0.0382215 0.0555118 -0.0974958)
(0.0629797 0.00293925 -0.0148666 0.0419248 0.0491201 -0.104904)
(0.0645757 0.000870013 -0.00467944 0.0437135 0.0459818 -0.108289)
(0.0645765 -0.000868873 0.00465949 0.0437143 0.045982 -0.108291)
(0.0629821 -0.00293783 0.014847 0.0419272 0.0491207 -0.104909)
(0.0592787 -0.00643054 0.0276374 0.0382255 0.0555129 -0.0975042)
(0.0517426 -0.0117222 0.0452819 0.0323472 0.0646349 -0.0840898)
(0.0299619 -0.0224552 0.071221 0.0299607 0.0712319 -0.0599226)
(-0.000363752 -0.0176408 -0.109371 -0.000350503 -0.10935 0.000714256)
(0.013027 -0.0158531 -0.0753588 0.000860903 -0.107249 -0.0138879)
(0.0225306 -0.0121449 -0.0477471 0.00293031 -0.0952144 -0.0254609)
(0.0298026 -0.00758184 -0.0260555 0.00446825 -0.0852303 -0.0342709)
(0.0335042 -0.00253759 -0.00824866 0.0052985 -0.079905 -0.0388027)
(0.0335089 0.00255083 0.00819612 0.00530306 -0.0799034 -0.038812)
(0.0298173 0.00759307 0.0260037 0.00448172 -0.0852258 -0.0342991)
(0.0225559 0.0121515 0.047697 0.0029513 -0.0952072 -0.0255072)
(0.0130665 0.0158535 0.0753121 0.000886817 -0.107241 -0.0139533)
(-0.000312981 0.0176314 0.109333 -0.000322646 -0.109344 0.000635627)
(0.000848864 -0.0158567 -0.107267 0.0130365 -0.0753328 -0.0138854)
(0.0167885 -0.0142717 -0.0637311 0.0168006 -0.0637075 -0.0335891)
(0.028691 -0.0106786 -0.0347806 0.0200852 -0.052646 -0.0487762)
(0.0365417 -0.00647472 -0.0169096 0.022154 -0.044428 -0.0586957)
(0.040153 -0.00215063 -0.00502193 0.0231579 -0.0401376 -0.0633109)
(0.0401574 0.00216195 0.00497646 0.0231603 -0.0401364 -0.0633177)
(0.0365557 0.00648482 0.0168642 0.0221614 -0.0444245 -0.0587171)
(0.028716 0.0106861 0.0347357 0.0200978 -0.0526404 -0.0488138)
(0.0168272 0.0142752 0.0636883 0.0168174 -0.0637007 -0.0336446)
(0.000896202 0.0158528 0.107232 0.0130581 -0.075326 -0.0139543)
(0.00291559 -0.0121519 -0.095232 0.0225336 -0.0477186 -0.0254491)
(0.0200711 -0.0106819 -0.0526682 0.0286977 -0.0347549 -0.0487688)
(0.032612 -0.00764245 -0.0257431 0.0326204 -0.0257195 -0.0652324)
(0.0398904 -0.00449029 -0.0110832 0.0346436 -0.0198745 -0.074534)
(0.0430497 -0.00147591 -0.00302655 0.0355799 -0.0170112 -0.0786296)
(0.0430536 0.0014847 0.00298714 0.0355812 -0.0170104 -0.0786348)
(0.0399027 0.00449825 0.0110434 0.0346479 -0.019872 -0.0745505)
(0.0326348 0.00764858 0.025703 0.0326284 -0.0257154 -0.0652631)
(0.0201077 0.0106852 0.0526292 0.0287099 -0.0347495 -0.0488176)
(0.00296131 0.0121495 0.0951993 0.0225516 -0.0477124 -0.0255129)
(0.00444935 -0.00759154 -0.0852488 0.0298011 -0.0260248 -0.0342505)
(0.0221378 -0.00648055 -0.0444499 0.0365439 -0.0168825 -0.0586817)
(0.0346336 -0.00449288 -0.0198968 0.0398944 -0.0110589 -0.0745279)
(0.041548 -0.0026007 -0.00760059 0.0415533 -0.00757817 -0.0831013)
(0.0445241 -0.000853612 -0.00186016 0.0423657 -0.00592032 -0.0868898)
(0.0445277 0.000859705 0.00182492 0.0423664 -0.00591973 -0.0868941)
(0.0415595 0.00260628 0.00756487 0.0415556 -0.00757648 -0.0831151)
(0.0346547 0.00449724 0.0198605 0.039899 -0.0110562 -0.0745537)
(0.0221719 0.00648295 0.0444138 0.0365524 -0.0168787 -0.0587244)
(0.00449356 0.00759022 0.0852179 0.0298157 -0.0260202 -0.0343092)
(0.00527431 -0.00254743 -0.079925 0.0334974 -0.00821613 -0.0387718)
(0.0231393 -0.00215774 -0.04016 0.0401503 -0.00499357 -0.0632896)
(0.0355683 -0.00148028 -0.0170334 0.0430493 -0.00300159 -0.0786176)
(0.0423594 -0.000855605 -0.00594217 0.0445249 -0.00183745 -0.0868844)
(0.0452831 -0.000281327 -0.00130909 0.0452848 -0.00128737 -0.0905679)
(0.0452866 0.000284882 0.00127604 0.0452853 -0.00128704 -0.0905718)
(0.0423704 0.000858884 0.0059085 0.0445265 -0.00183649 -0.0868969)
(0.0355884 0.00148295 0.0169991 0.0430526 -0.00300002 -0.078641)
(0.0231717 0.00215955 0.0401256 0.040157 -0.00499133 -0.0633287)
(0.00531737 0.00254788 0.0798951 0.0335101 -0.00821331 -0.0388275)
(0.00527331 0.00254209 -0.0799255 0.0334961 0.00823011 -0.0387694)
(0.0231389 0.00215447 -0.0401603 0.0401489 0.00500605 -0.0632878)
(0.0355681 0.00147923 -0.0170335 0.0430482 0.00301304 -0.0786162)
(0.0423592 0.00085619 -0.00594219 0.044524 0.00184832 -0.0868831)
(0.0452827 0.00028321 -0.00130902 0.0452839 0.00129812 -0.0905667)
(0.0452861 -0.00028193 0.00127622 0.0452845 0.00129817 -0.0905706)
(0.0423697 -0.000855019 0.00590878 0.0445258 0.00184852 -0.0868955)
(0.0355874 -0.00147812 0.0169994 0.0430518 0.00301351 -0.0786392)
(0.0231703 -0.00215327 0.0401261 0.040156 0.0050068 -0.0633263)
(0.00531531 -0.00254017 0.0798957 0.0335089 0.00823113 -0.0388242)
(0.0044464 0.00758691 -0.0852502 0.0297972 0.0260386 -0.0342436)
(0.0221365 0.00647795 -0.0444508 0.0365398 0.016895 -0.0586764)
(0.0346326 0.00449242 -0.0198971 0.0398909 0.0110705 -0.0745235)
(0.0415471 0.00260171 -0.0076006 0.0415503 0.00758925 -0.0830974)
(0.044523 0.000855761 -0.00185988 0.042363 0.00593135 -0.086886)
(0.0445261 -0.000856628 0.00182549 0.042364 0.00593115 -0.0868901)
(0.0415573 -0.00260245 0.0075657 0.0415533 0.00758878 -0.0831105)
(0.0346515 -0.00449267 0.0198616 0.0398965 0.0110699 -0.074548)
(0.0221676 -0.00647721 0.0444153 0.0365493 0.0168943 -0.058717)
(0.00448749 -0.00758336 0.0852198 0.0298119 0.026038 -0.0342994)
(0.00291106 0.012149 -0.0952343 0.0225272 0.0477321 -0.0254383)
(0.0200688 0.0106807 -0.0526695 0.0286909 0.0347674 -0.0487597)
(0.0326099 0.00764313 -0.0257435 0.0326145 0.0257314 -0.0652243)
(0.0398883 0.00449214 -0.011083 0.0346384 0.019886 -0.0745267)
(0.0430474 0.00147853 -0.00302598 0.0355752 0.0170227 -0.0786225)
(0.0430505 -0.00148148 0.00298814 0.0355768 0.0170223 -0.0786273)
(0.0398985 -0.0044946 0.0110449 0.0346435 0.0198848 -0.074542)
(0.032629 -0.00764454 0.0257049 0.0326237 0.0257296 -0.0652527)
(0.0201002 -0.0106805 0.0526317 0.0287044 0.0347654 -0.0488047)
(0.00295159 -0.0121448 0.0952024 0.0225452 0.0477299 -0.0254968)
(0.000843265 0.0158562 -0.10727 0.0130275 0.0753458 -0.0138708)
(0.0167848 0.0142723 -0.0637325 0.0167915 0.0637201 -0.0335763)
(0.028687 0.0106808 -0.0347811 0.0200767 0.0526583 -0.0487637)
(0.0365377 0.00647758 -0.0169094 0.0221461 0.0444403 -0.0586838)
(0.0401485 0.00215372 -0.005021 0.0231504 0.04015 -0.063299)
(0.0401521 -0.00215877 0.00497801 0.0231529 0.0401492 -0.063305)
(0.0365489 -0.00648166 0.0168664 0.0221539 0.0444382 -0.0587028)
(0.0287072 -0.0106829 0.0347385 0.0200898 0.0526552 -0.048797)
(0.0168165 -0.014272 0.0636917 0.016809 0.0637167 -0.0336254)
(0.000883226 -0.0158503 0.107235 0.0130484 0.075343 -0.0139316)
(-0.000369238 0.0176443 -0.109372 -0.000362252 0.109361 0.00073149)
(0.013022 0.0158563 -0.0753598 0.000850211 0.107261 -0.0138722)
(0.0225245 0.0121488 -0.0477474 0.00291996 0.0952262 -0.0254445)
(0.0297962 0.00758571 -0.026055 0.00445779 0.0852424 -0.0342539)
(0.0334972 0.00254083 -0.00824736 0.00528771 0.0799174 -0.0387849)
(0.033501 -0.00254833 0.00819823 0.00529192 0.0799163 -0.0387929)
(0.0298081 -0.00759146 0.0260065 0.00447023 0.0852392 -0.0342783)
(0.0225449 -0.0121504 0.0477005 0.00293945 0.0952212 -0.0254844)
(0.0130538 -0.0158533 0.0753158 0.000874791 0.107255 -0.0139286)
(-0.000326949 -0.0176337 0.109336 -0.000336879 0.109358 0.000663827)
(-0.00826262 -0.0156157 -0.149131 -0.00823516 -0.149082 0.0164978)
(0.00153033 -0.0119011 -0.116051 -0.00933581 -0.159445 0.00780548)
(0.00736258 -0.00904365 -0.0806474 -0.00846472 -0.153749 0.00110215)
(0.0120071 -0.00566731 -0.0471604 -0.00774891 -0.146919 -0.00425823)
(0.0145567 -0.00191212 -0.015522 -0.00735047 -0.142965 -0.00720623)
(0.0145667 0.00194456 0.015375 -0.00733998 -0.142957 -0.00722676)
(0.0120376 0.00569569 0.0470137 -0.00771815 -0.146895 -0.00431946)
(0.00741394 0.00906237 0.0805025 -0.00841685 -0.15371 0.00100291)
(0.00161058 0.0119073 0.115911 -0.00927632 -0.159396 0.00766575)
(-0.00815808 0.0156011 0.149012 -0.0081712 -0.149037 0.0163293)
(-0.00935844 -0.0119084 -0.159488 0.00154789 -0.115987 0.00781055)
(0.00207802 -0.00973873 -0.111544 0.00210002 -0.111487 -0.00417804)
(0.00978617 -0.007591 -0.0713443 0.00393271 -0.103821 -0.0137189)
(0.015738 -0.00478993 -0.0396499 0.00532096 -0.0973422 -0.021059)
(0.0189231 -0.00162346 -0.0127389 0.00608562 -0.0938095 -0.0250088)
(0.0189333 0.00165327 0.0126162 0.00609277 -0.0938037 -0.0250261)
(0.0157684 0.00481671 0.0395266 0.00534215 -0.0973246 -0.0211106)
(0.00983682 0.00761166 0.0712199 0.00396649 -0.103792 -0.0138033)
(0.00215397 0.00975064 0.111419 0.00214335 -0.111448 -0.00429732)
(-0.00926574 0.0119039 0.159374 0.00160253 -0.115944 0.00766322)
(-0.00849351 -0.0090577 -0.153792 0.00736659 -0.0805743 0.00112691)
(0.0039051 -0.00759749 -0.103876 0.00979758 -0.0712802 -0.0137027)
(0.0129816 -0.00582035 -0.0643428 0.0129984 -0.0642827 -0.02598)
(0.0198415 -0.00362314 -0.0347612 0.0153392 -0.0594735 -0.0351807)
(0.0234408 -0.00122245 -0.0109821 0.0165807 -0.0569824 -0.0400215)
(0.0234507 0.00124716 0.0108748 0.0165863 -0.0569788 -0.040037)
(0.0198715 0.00364533 0.0346532 0.0153559 -0.0594623 -0.0352274)
(0.0130318 0.00583775 0.0642335 0.0130254 -0.0642632 -0.0260573)
(0.00397888 0.00760798 0.103765 0.00983272 -0.0712521 -0.0138116)
(-0.00840374 0.009055 0.153689 0.00741386 -0.0805394 0.000989882)
(-0.00778776 -0.00568714 -0.146966 0.0120025 -0.0470782 -0.00421474)
(0.00528573 -0.00480197 -0.0973978 0.0157408 -0.0395793 -0.0210265)
(0.0153152 -0.00362895 -0.0595328 0.019849 -0.0346964 -0.0351641)
(0.0227402 -0.00223811 -0.0316642 0.0227532 -0.031602 -0.0454935)
(0.0265211 -0.000751963 -0.00989003 0.0241775 -0.0300301 -0.0506986)
(0.0265307 0.000769653 0.00979206 0.0241815 -0.0300281 -0.0507123)
(0.0227699 0.00225404 0.0315656 0.0227657 -0.0315955 -0.0455356)
(0.0153655 0.00364153 0.0594335 0.0198699 -0.0346848 -0.0352354)
(0.00535793 0.00480958 0.0972978 0.0157689 -0.0395618 -0.0211269)
(-0.00769972 0.00568524 0.146873 0.0120418 -0.0470553 -0.0043421)
(-0.00740171 -0.00193239 -0.14302 0.0145411 -0.0154313 -0.00713942)
(0.00604189 -0.0016386 -0.0938691 0.0189146 -0.012662 -0.0249565)
(0.0165496 -0.00123268 -0.0570434 0.0234369 -0.0109131 -0.0399865)
(0.0241594 -0.000757077 -0.0300921 0.0265223 -0.00982541 -0.0506816)
(0.0279149 -0.00025309 -0.00934407 0.0279205 -0.00928125 -0.0558354)
(0.027924 0.000262924 0.00925101 0.0279235 -0.00928041 -0.0558475)
(0.024188 0.000766162 0.0299985 0.0265323 -0.00982263 -0.0507203)
(0.0165993 0.00124026 0.0569493 0.0234546 -0.0109081 -0.0400539)
(0.00611271 0.00164386 0.0937749 0.0189393 -0.0126544 -0.025052)
(-0.00731482 0.00193347 0.142931 0.014576 -0.0154209 -0.00726118)
(-0.00740367 0.0019262 -0.143021 0.0145378 0.0154737 -0.0071341)
(0.00604059 0.00163697 -0.09387 0.018911 0.0126993 -0.0249516)
(0.0165484 0.00123415 -0.0570438 0.0234333 0.0109478 -0.0399817)
(0.0241583 0.000760534 -0.0300922 0.0265188 0.009859 -0.0506771)
(0.0279139 0.000258228 -0.00934387 0.0279172 0.00931467 -0.0558311)
(0.0279227 -0.000256241 0.00925146 0.0279203 0.00931461 -0.055843)
(0.0241863 -0.00075827 0.0299993 0.0265289 0.00985863 -0.0507152)
(0.0165968 -0.00123152 0.0569507 0.0234512 0.010947 -0.040048)
(0.00610983 -0.00163414 0.093777 0.0189357 0.0126978 -0.0250456)
(-0.0073185 -0.00192267 0.142934 0.0145723 0.0154718 -0.00725381)
(-0.0077935 0.00568195 -0.14697 0.0119927 0.0471193 -0.00419919)
(0.00528185 0.00480124 -0.0974003 0.0157304 0.0396158 -0.0210122)
(0.0153116 0.00363126 -0.0595341 0.0198385 0.0347306 -0.0351501)
(0.0227369 0.00224229 -0.0316645 0.0227428 0.0316352 -0.0454797)
(0.0265177 0.000757542 -0.00988942 0.0241673 0.0300633 -0.050685)
(0.0265266 -0.000762907 0.00979362 0.0241715 0.0300622 -0.050698)
(0.0227643 -0.00224646 0.0315684 0.0227555 0.0316316 -0.0455198)
(0.0153583 -0.00363337 0.0594379 0.0198597 0.034724 -0.0352179)
(0.00534938 -0.00480071 0.0973043 0.0157585 0.0396057 -0.0211079)
(-0.00771048 -0.00567568 0.146881 0.0120307 0.0471063 -0.00432023)
(-0.00850219 0.00905492 -0.153797 0.00735108 0.0806127 0.00115111)
(0.00389889 0.00759839 -0.103879 0.00978135 0.0713152 -0.0136802)
(0.0129757 0.00582403 -0.0643447 0.0129818 0.0643158 -0.0259575)
(0.0198359 0.00362837 -0.0347615 0.0153221 0.059506 -0.035158)
(0.0234347 0.0012286 -0.0109808 0.0165635 0.0570153 -0.0399983)
(0.0234434 -0.00124043 0.0108778 0.0165692 0.057013 -0.0400126)
(0.0198623 -0.00363831 0.0346583 0.0153388 0.0594987 -0.0352011)
(0.0130201 -0.00583061 0.0642413 0.0130087 0.064303 -0.0260288)
(0.00396503 -0.00760076 0.103777 0.00981582 0.0712967 -0.0137808)
(-0.00842057 -0.00904858 0.153704 0.00739562 0.0805903 0.00102495)
(-0.00936891 0.0119081 -0.159493 0.00152607 0.116021 0.00784285)
(0.00206991 0.00974127 -0.111548 0.00207831 0.11152 -0.00414822)
(0.0097783 0.00759587 -0.0713462 0.00391054 0.103853 -0.0136888)
(0.0157303 0.00479593 -0.0396498 0.00529822 0.0973742 -0.0210285)
(0.0189147 0.00162973 -0.0127364 0.00606237 0.0938424 -0.0249771)
(0.0189233 -0.00164704 0.0126215 0.00606917 0.0938384 -0.0249925)
(0.0157561 -0.00481076 0.0395348 0.00531835 0.097362 -0.0210745)
(0.00982141 -0.00760591 0.0712315 0.00394254 0.103833 -0.0137639)
(0.00213557 -0.00974538 0.111435 0.0021191 0.111494 -0.00425467)
(-0.00928742 -0.0119006 0.159393 0.00157554 0.115994 0.00771188)
(-0.00827295 0.0156194 -0.149131 -0.00826166 0.149107 0.0165346)
(0.00152038 0.0119058 -0.116052 -0.00936008 0.159472 0.0078397)
(0.00735206 0.00904953 -0.0806474 -0.00848947 0.153777 0.00113741)
(0.0119965 0.00567359 -0.0471584 -0.00777474 0.146948 -0.00422179)
(0.0145451 0.00191757 -0.0155172 -0.00737756 0.142997 -0.00716758)
(0.0145534 -0.00194017 0.0153831 -0.00736813 0.142991 -0.00718527)
(0.0120217 -0.00569274 0.0470254 -0.0077471 0.146932 -0.00427465)
(0.0073949 -0.00906013 0.0805175 -0.0084466 0.15375 0.00105171)
(0.00158881 -0.0119067 0.115929 -0.00930689 0.159438 0.00771808)
(-0.00818137 -0.0156046 0.149029 -0.00820681 0.14908 0.0163882)
(-0.00228564 -0.00433179 -0.15406 -0.00224348 -0.15396 0.00452912)
(0.000111522 -0.00467334 -0.124508 -0.00302113 -0.169492 0.00290961)
(0.00276056 -0.00405814 -0.0895152 -0.00345474 -0.168189 0.000694182)
(0.00508286 -0.0027115 -0.053719 -0.00367977 -0.164392 -0.00140309)
(0.00640839 -0.000926403 -0.017973 -0.00375141 -0.161952 -0.00265697)
(0.00642573 0.000990392 0.01766 -0.00373091 -0.161934 -0.00269482)
(0.00513593 0.00276764 0.0534078 -0.00361957 -0.164338 -0.00151636)
(0.00285062 0.0040951 0.0892088 -0.00336071 -0.168101 0.000510089)
(0.000254295 0.00468599 0.124213 -0.00290302 -0.16938 0.00264873)
(-0.00209751 0.00430528 0.153808 -0.00211776 -0.153856 0.00421527)
(-0.00305289 -0.00468981 -0.16958 0.00013321 -0.124374 0.00291968)
(0.000195437 -0.00497854 -0.125184 0.0002287 -0.125065 -0.000424137)
(0.00407702 -0.0041847 -0.0843333 0.000459 -0.121159 -0.00453603)
(0.00730824 -0.00273797 -0.0487568 0.000782795 -0.117015 -0.00809103)
(0.00909961 -0.000930346 -0.0160373 0.00103468 -0.114606 -0.0101343)
(0.00911721 0.000984514 0.0157766 0.0010495 -0.114592 -0.0101667)
(0.00736137 0.00278604 0.0484954 0.000826482 -0.116975 -0.00818786)
(0.00416599 0.00422071 0.0840698 0.000528839 -0.121091 -0.00469483)
(0.000329968 0.00499785 0.12492 0.000319708 -0.124976 -0.000649676)
(-0.00289039 0.00467836 0.169336 0.000248372 -0.124275 0.00264202)
(-0.00350167 -0.00409152 -0.168276 0.00275642 -0.0893579 0.000745249)
(0.000411981 -0.00419997 -0.121272 0.00409076 -0.0841962 -0.00450274)
(0.00523347 -0.0033931 -0.0800449 0.00526019 -0.0799176 -0.0104937)
(0.00916541 -0.00215003 -0.0455394 0.00630639 -0.0767722 -0.0154718)
(0.0113352 -0.00071557 -0.0148653 0.0069813 -0.0751398 -0.0183165)
(0.0113528 0.000758182 0.0146382 0.00699404 -0.0751316 -0.0183468)
(0.00921841 0.00218692 0.0453118 0.00634299 -0.0767463 -0.0155614)
(0.00532272 0.00342007 0.0798138 0.00531875 -0.0798728 -0.0106415)
(0.000544214 0.0042134 0.121037 0.00416816 -0.0841334 -0.00471238)
(-0.00334234 0.00407921 0.168056 0.00286122 -0.0892811 0.000481124)
(-0.00375037 -0.00275872 -0.16449 0.00506484 -0.0535389 -0.00131447)
(0.000717704 -0.00276626 -0.117132 0.00730775 -0.0486036 -0.00802546)
(0.00626306 -0.00216364 -0.0768976 0.00917571 -0.0454007 -0.0154388)
(0.0107869 -0.00130388 -0.043627 0.0108098 -0.0434944 -0.0215968)
(0.0133755 -0.000413137 -0.0142855 0.011878 -0.0426846 -0.0252535)
(0.0133945 0.000442246 0.0140768 0.0118887 -0.0426808 -0.0252832)
(0.0108425 0.00132751 0.0434207 0.0108393 -0.0434808 -0.0216818)
(0.00635543 0.00217957 0.076688 0.00922216 -0.0453751 -0.0155776)
(0.000850205 0.00277184 0.116918 0.00737097 -0.048566 -0.00822118)
(-0.00359012 0.00274477 0.164288 0.00515421 -0.0534911 -0.00156409)
(-0.00385035 -0.000975637 -0.162066 0.00637228 -0.017772 -0.00252193)
(0.000949667 -0.000966027 -0.114732 0.00908001 -0.0158686 -0.0100297)
(0.00692086 -0.0007393 -0.0752695 0.0113253 -0.0147155 -0.0182462)
(0.0118415 -0.000425334 -0.0428164 0.013375 -0.0141443 -0.0252165)
(0.0148919 -0.000128626 -0.0142281 0.0149026 -0.0140884 -0.0297945)
(0.0149131 0.000141811 0.0140264 0.0149136 -0.0140885 -0.0298266)
(0.0118994 0.000435347 0.0426212 0.0134013 -0.01414 -0.0253007)
(0.00701542 0.00074502 0.0750709 0.0113652 -0.0147063 -0.0183806)
(0.00108311 0.000966004 0.11453 0.00913534 -0.0158547 -0.0102184)
(-0.00368754 0.000966253 0.161875 0.00645214 -0.0177544 -0.00276461)
(-0.00385787 0.000944328 -0.162069 0.0063663 0.0178796 -0.00250843)
(0.000945237 0.000945901 -0.114734 0.00907333 0.0159597 -0.0100186)
(0.00691754 0.00072857 -0.0752704 0.0113184 0.0147973 -0.0182359)
(0.0118389 0.000421454 -0.0428163 0.0133673 0.014222 -0.0252062)
(0.014889 0.0001305 -0.0142269 0.014894 0.0141656 -0.029783)
(0.0149099 -0.000134955 0.0140269 0.014905 0.0141665 -0.0298148)
(0.011896 -0.000425033 0.0426229 0.0133937 0.0142203 -0.0252897)
(0.00701129 -0.0007323 0.075074 0.0113581 0.0147923 -0.0183694)
(0.00107828 -0.000950885 0.114535 0.0091281 0.0159512 -0.0102064)
(-0.00369407 -0.000949281 0.161881 0.00644467 0.0178676 -0.0027506)
(-0.00377239 0.00273057 -0.164498 0.00504674 0.0536423 -0.00127435)
(0.000704613 0.00274843 -0.117138 0.00728791 0.0486918 -0.00799252)
(0.00625359 0.00215493 -0.0769005 0.00915497 0.0454799 -0.0154086)
(0.0107799 0.00130186 -0.0436273 0.0107877 0.0435691 -0.0215677)
(0.013369 0.000415935 -0.0142835 0.0118548 0.0427577 -0.0252238)
(0.0133872 -0.00043586 0.0140802 0.0118655 0.0427552 -0.0252527)
(0.0108335 -0.00131839 0.0434268 0.0108171 0.0435592 -0.0216506)
(0.00634373 -0.00216808 0.0766978 0.0092008 0.0454604 -0.0155445)
(0.000836089 -0.0027582 0.116933 0.0073493 0.048662 -0.00818539)
(-0.00360907 -0.00273007 0.164307 0.00513157 0.0536031 -0.00152249)
(-0.00353599 0.00407097 -0.168289 0.00272622 0.0894529 0.000809767)
(0.000390861 0.0041866 -0.12128 0.00405848 0.0842791 -0.00444934)
(0.00521818 0.0033877 -0.080049 0.00522631 0.079993 -0.0104445)
(0.00915443 0.00215033 -0.0455397 0.0062706 0.0768439 -0.015425)
(0.0113257 0.000719476 -0.0148619 0.0069442 0.0752111 -0.0182699)
(0.0113421 -0.000751964 0.0146454 0.00695681 0.0752048 -0.0182989)
(0.00920462 -0.00217893 0.0453236 0.00630664 0.076824 -0.0155113)
(0.00530434 -0.00341042 0.0798312 0.00528336 0.0799579 -0.0105877)
(0.000521812 -0.00420256 0.121061 0.00413251 0.084229 -0.00465432)
(-0.00337163 -0.00407005 0.168087 0.00282366 0.0893904 0.00054797)
(-0.00309608 0.0046795 -0.169591 8.62589e-05 0.124457 0.00300982)
(0.000167225 0.00497114 -0.125192 0.00018218 0.125141 -0.000349405)
(0.00405631 0.00418333 -0.0843368 0.000411385 0.121229 -0.00446769)
(0.00729297 0.00274082 -0.0487556 0.000733799 0.117083 -0.00802676)
(0.00908625 0.000935252 -0.0160308 0.000984502 0.114674 -0.0100708)
(0.00910264 -0.000978562 0.0157889 0.000998892 0.114664 -0.0101015)
(0.00734308 -0.00277951 0.0485139 0.000776044 0.117052 -0.00811912)
(0.00414216 -0.00421333 0.0840952 0.000478404 0.121176 -0.00462056)
(0.000300662 -0.00499042 0.124953 0.000268576 0.12507 -0.000569238)
(-0.00292739 -0.00467498 0.169376 0.000192972 0.124379 0.00273442)
(-0.00233268 0.00433713 -0.154063 -0.00230469 0.154023 0.00463738)
(7.44929e-05 0.0046767 -0.12451 -0.00307579 0.169551 0.0030013)
(0.00273148 0.00406432 -0.0895145 -0.00351049 0.168246 0.000779006)
(0.00506043 0.00271907 -0.0537131 -0.00373726 0.16445 -0.00132317)
(0.00638859 0.000932684 -0.017961 -0.00381061 0.162013 -0.00257798)
(0.00640493 -0.000985731 0.0176789 -0.00379104 0.161999 -0.0026139)
(0.00511133 -0.00276514 0.0534337 -0.0036801 0.164409 -0.00143122)
(0.00282032 -0.00409338 0.0892413 -0.00342202 0.168178 0.000601703)
(0.000219057 -0.00468665 0.12425 -0.00296578 0.169465 0.00274672)
(-0.00213714 -0.00431371 0.153845 -0.00218889 0.153942 0.00432603)
(-0.00219886 -0.00325649 -0.159199 -0.00212244 -0.15901 0.0043213)
(-0.000360595 -0.00257716 -0.13101 -0.00263701 -0.177441 0.00299761)
(0.000859853 -0.00205292 -0.0957203 -0.00271201 -0.178437 0.00185215)
(0.00193504 -0.00131208 -0.0581957 -0.00274144 -0.176267 0.000806397)
(0.00257529 -0.000423957 -0.0196889 -0.00272886 -0.174665 0.000153569)
(0.00260275 0.000508466 0.0190872 -0.00269687 -0.17463 9.41141e-05)
(0.00201911 0.00138405 0.0575983 -0.00264767 -0.17616 0.000628556)
(0.0010023 0.0020937 0.0951333 -0.00256637 -0.178264 0.00156408)
(-0.00013205 0.00258076 0.130447 -0.00245646 -0.177221 0.00258851)
(-0.00189071 0.00320003 0.158724 -0.00194159 -0.158806 0.00383231)
(-0.00268613 -0.00260733 -0.177613 -0.00033162 -0.130752 0.00301775)
(-0.000552395 -0.00233015 -0.134464 -0.000506225 -0.134231 0.00105862)
(0.0011601 -0.00194955 -0.0928292 -0.000331325 -0.132509 -0.000828771)
(0.00267632 -0.00126177 -0.0547302 -0.000147929 -0.129839 -0.00252839)
(0.00355732 -0.000408055 -0.0182605 -1.58302e-06 -0.128161 -0.00355574)
(0.00358511 0.000483451 0.0177543 2.28006e-05 -0.128134 -0.00360791)
(0.00276036 0.00132593 0.054223 -7.62775e-05 -0.129757 -0.00268408)
(0.00130073 0.00199246 0.0923177 -0.000217138 -0.132373 -0.0010836)
(-0.000338019 0.00234525 0.133949 -0.000358932 -0.134052 0.000696951)
(-0.00242335 0.00257302 0.177139 -0.000152159 -0.130556 0.00257551)
(-0.00278655 -0.00211422 -0.178614 0.000837273 -0.0954123 0.00194928)
(-0.000402366 -0.00197826 -0.132735 0.00116961 -0.0925581 -0.000767245)
(0.00176065 -0.00162151 -0.0902944 0.0017952 -0.0900412 -0.00355585)
(0.00365315 -0.00100701 -0.0526265 0.00235477 -0.0879916 -0.00600792)
(0.00473108 -0.000312307 -0.0174695 0.00274487 -0.0868482 -0.00747595)
(0.00475848 0.000371404 0.0170266 0.00276715 -0.0868313 -0.00752564)
(0.00373689 0.00105474 0.0521826 0.00241825 -0.0879382 -0.00615514)
(0.00190238 0.00165089 0.0898406 0.0018971 -0.0899506 -0.00379948)
(-0.000190429 0.00198367 0.13227 0.0013039 -0.0924329 -0.00111347)
(-0.00252854 0.00207683 0.178174 0.00101464 -0.095261 0.0015139)
(-0.00285919 -0.00140044 -0.176468 0.00188915 -0.0578373 0.000970048)
(-0.000253597 -0.00131634 -0.130075 0.00266347 -0.0544239 -0.00240987)
(0.00228739 -0.00103404 -0.0882429 0.00366192 -0.0523499 -0.00594931)
(0.00451044 -0.000569994 -0.0513583 0.00454421 -0.0510955 -0.00905465)
(0.00582885 -0.000147678 -0.0171606 0.00516457 -0.050479 -0.0109934)
(0.0058591 0.000184543 0.0167534 0.00518341 -0.0504701 -0.0110425)
(0.0045997 0.000594959 0.0509556 0.00459611 -0.0510675 -0.0091958)
(0.00243724 0.00104436 0.0878272 0.0037451 -0.0522997 -0.00618233)