/*--------------------------------*- C++ -*----------------------------------*\
| =========                 |                                                 |
| \\      /  F ield         | OpenFOAM: The Open Source CFD Toolbox           |
|  \\    /   O peration     | Version:  2406                                  |
|   \\  /    A nd           | Website:  www.openfoam.com                      |
|    \\/     M anipulation  |                                                 |
\*---------------------------------------------------------------------------*/
FoamFile
{
    version     2.0;
    format      ascii;
    arch        "LSB;label=32;scalar=64";
    class       volVectorField;
    location    "0.9";
    object      U;
}
// * * * * * * * * * * * * * * * * * * * * * * * * * * * * * * * * * * * * * //

dimensions      [0 1 -1 0 0 0 0];

internalField   nonuniform List<vector> 
25000
(
(0.148228 0.148205 1.12601)
(0.121768 0.159746 1.158)
(0.0897087 0.168695 1.17582)
(0.054958 0.174344 1.18523)
(0.0185043 0.177174 1.18923)
(-0.0184584 0.177174 1.18923)
(-0.0549136 0.174345 1.18524)
(-0.0896674 0.168697 1.17583)
(-0.121731 0.159749 1.15801)
(-0.148199 0.148209 1.12602)
(0.159766 0.121742 1.158)
(0.129948 0.129925 1.18717)
(0.0949793 0.136265 1.19913)
(0.0577708 0.140375 1.20346)
(0.0193854 0.142389 1.20467)
(-0.0193405 0.142389 1.20467)
(-0.0577275 0.140375 1.20346)
(-0.094939 0.136265 1.19914)
(-0.129912 0.129927 1.18717)
(-0.159738 0.121745 1.15801)
(0.168714 0.089682 1.17582)
(0.136286 0.0949554 1.19913)
(0.099085 0.0990627 1.20628)
(0.0599789 0.101738 1.20698)
(0.0200729 0.103036 1.20628)
(-0.0200289 0.103036 1.20628)
(-0.0599365 0.101738 1.20699)
(-0.0990456 0.0990627 1.20628)
(-0.136251 0.094956 1.19914)
(-0.168686 0.0896837 1.17583)
(0.174362 0.0549304 1.18523)
(0.140395 0.057746 1.20346)
(0.10176 0.0599556 1.20698)
(0.0614178 0.0613953 1.20526)
(0.0205193 0.0620896 1.20334)
(-0.020476 0.0620895 1.20334)
(-0.061376 0.0613949 1.20527)
(-0.101721 0.0599553 1.20699)
(-0.14036 0.057746 1.20346)
(-0.174334 0.0549312 1.18524)
(0.177191 0.0184765 1.18923)
(0.142409 0.0193602 1.20467)
(0.103057 0.0200492 1.20628)
(0.0621118 0.0204963 1.20334)
(0.0207338 0.0207111 1.20083)
(-0.020691 0.0207109 1.20083)
(-0.0620704 0.0204959 1.20334)
(-0.103018 0.0200486 1.20628)
(-0.142375 0.0193598 1.20467)
(-0.177163 0.0184766 1.18923)
(0.177192 -0.0184856 1.18923)
(0.142409 -0.0193653 1.20467)
(0.103057 -0.0200524 1.20628)
(0.0621117 -0.0204987 1.20334)
(0.0207336 -0.0207134 1.20083)
(-0.0206912 -0.0207136 1.20083)
(-0.0620706 -0.0204993 1.20334)
(-0.103019 -0.0200531 1.20628)
(-0.142375 -0.0193661 1.20467)
(-0.177163 -0.0184863 1.18923)
(0.174363 -0.0549392 1.18523)
(0.140395 -0.057751 1.20346)
(0.10176 -0.0599588 1.20698)
(0.0614175 -0.0613977 1.20527)
(0.0205187 -0.062092 1.20334)
(-0.0204766 -0.0620923 1.20334)
(-0.0613765 -0.0613986 1.20527)
(-0.101721 -0.05996 1.20699)
(-0.14036 -0.0577524 1.20346)
(-0.174333 -0.0549408 1.18524)
(0.168715 -0.0896905 1.17582)
(0.136286 -0.0949603 1.19913)
(0.0990847 -0.099066 1.20628)
(0.0599782 -0.101741 1.20698)
(0.0200719 -0.103039 1.20628)
(-0.02003 -0.103039 1.20628)
(-0.0599373 -0.101742 1.20699)
(-0.0990459 -0.099068 1.20628)
(-0.13625 -0.0949628 1.19914)
(-0.168685 -0.0896932 1.17583)
(0.159766 -0.12175 1.158)
(0.129947 -0.12993 1.18717)
(0.0949783 -0.136268 1.19913)
(0.0577694 -0.140378 1.20346)
(0.0193838 -0.142393 1.20467)
(-0.019342 -0.142394 1.20467)
(-0.0577286 -0.14038 1.20346)
(-0.0949394 -0.136272 1.19914)
(-0.129911 -0.129934 1.18717)
(-0.159736 -0.121755 1.158)
(0.148226 -0.148213 1.126)
(0.121766 -0.159751 1.158)
(0.0897065 -0.1687 1.17582)
(0.0549558 -0.174348 1.18523)
(0.0185023 -0.177178 1.18923)
(-0.0184602 -0.177179 1.18923)
(-0.0549148 -0.174352 1.18524)
(-0.0896677 -0.168705 1.17583)
(-0.12173 -0.159758 1.158)
(-0.148196 -0.148219 1.12601)
(0.0509606 0.0508574 1.2678)
(0.0455784 0.0604626 1.35155)
(0.0365027 0.0683694 1.40597)
(0.0234683 0.074197 1.43828)
(0.00814151 0.0772007 1.45321)
(-0.00794539 0.077204 1.45322)
(-0.0232784 0.0742071 1.4383)
(-0.0363258 0.0683861 1.40602)
(-0.0454209 0.060487 1.35163)
(-0.0508351 0.0508882 1.26789)
(0.060553 0.0454612 1.35155)
(0.0553442 0.0552425 1.44019)
(0.0442201 0.063056 1.48901)
(0.0283167 0.0685247 1.51476)
(0.00977415 0.0713385 1.52585)
(-0.00959742 0.0713403 1.52585)
(-0.0281454 0.0685304 1.51478)
(-0.0440601 0.0630658 1.48905)
(-0.0552018 0.0552574 1.44025)
(-0.0604393 0.0454827 1.35163)
(0.0684479 0.03638 1.40596)
(0.0631461 0.0441127 1.489)
(0.050262 0.0501655 1.53206)
(0.0320721 0.0543361 1.55309)
(0.0110352 0.0564812 1.56151)
(-0.0108724 0.0564819 1.56152)
(-0.0319143 0.0543384 1.55311)
(-0.0501147 0.0501698 1.53209)
(-0.0630155 0.04412 1.48905)
(-0.0683436 0.0363916 1.40603)
(0.0742677 0.0233426 1.43825)
(0.0686071 0.0282061 1.51474)
(0.0544256 0.0319717 1.55309)
(0.0346341 0.0345401 1.57067)
(0.0118946 0.0358613 1.57717)
(-0.011741 0.0358613 1.57718)
(-0.0344852 0.0345401 1.57069)
(-0.0542866 0.0319722 1.55312)
(-0.0684837 0.0282077 1.51479)
(-0.0741684 0.0233462 1.43831)
(0.0772654 0.00801653 1.45317)
(0.0714158 0.0096631 1.52582)
(0.0565667 0.0109336 1.5615)
(0.0359519 0.0117988 1.57717)
(0.0123384 0.0122454 1.58262)
(-0.0121898 0.0122449 1.58262)
(-0.0358078 0.0117973 1.57718)
(-0.056432 0.0109313 1.56153)
(-0.071296 0.00966016 1.52586)
(-0.0771683 0.00801309 1.45323)
(0.0772646 -0.00806592 1.45317)
(0.071415 -0.00970566 1.52582)
(0.0565659 -0.0109723 1.5615)
(0.0359512 -0.0118358 1.57716)
(0.0123377 -0.0122824 1.58262)
(-0.0121903 -0.0122834 1.58262)
(-0.0358081 -0.0118388 1.57718)
(-0.0564319 -0.0109773 1.56152)
(-0.0712954 -0.00971283 1.52586)
(-0.077167 -0.00807589 1.45323)
(0.0742652 -0.0233903 1.43824)
(0.0686047 -0.0282473 1.51474)
(0.0544232 -0.0320093 1.55308)
(0.0346317 -0.0345762 1.57067)
(0.0118924 -0.0358975 1.57717)
(-0.0117428 -0.0358991 1.57717)
(-0.0344862 -0.0345809 1.57068)
(-0.0542864 -0.0320173 1.55311)
(-0.0684818 -0.0282592 1.51478)
(-0.0741644 -0.0234072 1.4383)
(0.0684433 -0.0364245 1.40594)
(0.0631415 -0.0441513 1.48899)
(0.0502575 -0.050201 1.53205)
(0.0320678 -0.0543704 1.55308)
(0.0110313 -0.0565158 1.5615)
(-0.0108755 -0.0565182 1.56151)
(-0.031916 -0.0543776 1.5531)
(-0.0501143 -0.0502131 1.53208)
(-0.0630121 -0.0441691 1.48904)
(-0.0683369 -0.0364491 1.40601)
(0.0605451 -0.0455015 1.35153)
(0.0553361 -0.0552775 1.44017)
(0.0442125 -0.0630885 1.489)
(0.0283098 -0.0685566 1.51475)
(0.00976812 -0.0713708 1.52583)
(-0.00960197 -0.0713743 1.52584)
(-0.0281478 -0.0685671 1.51477)
(-0.0440594 -0.0631064 1.48903)
(-0.0551968 -0.0553033 1.44023)
(-0.0604294 -0.0455357 1.3516)
(0.0509483 -0.050891 1.26777)
(0.0455655 -0.0604926 1.35153)
(0.0364909 -0.0683976 1.40595)
(0.023458 -0.0742251 1.43825)
(0.00813316 -0.0772295 1.45319)
(-0.00795122 -0.0772342 1.4532)
(-0.023281 -0.0742396 1.43828)
(-0.0363244 -0.0684217 1.40599)
(-0.0454143 -0.0605273 1.3516)
(-0.0508235 -0.0509333 1.26786)
(0.0296062 0.0293642 1.13906)
(0.0275659 0.0361974 1.26398)
(0.0225991 0.0418861 1.35459)
(0.0148752 0.0460745 1.41286)
(0.00532565 0.0482767 1.44117)
(-0.00487186 0.0482869 1.44122)
(-0.0144363 0.0461056 1.41302)
(-0.0221907 0.0419367 1.35486)
(-0.0272015 0.0362691 1.26437)
(-0.0293146 0.0294521 1.13956)
(0.0364076 0.0272924 1.26394)
(0.034443 0.0342085 1.41084)
(0.0283171 0.0398989 1.50492)
(0.018588 0.0439638 1.56063)
(0.00658471 0.0460777 1.58648)
(-0.00618709 0.0460836 1.58652)
(-0.0182029 0.0439821 1.56075)
(-0.0279578 0.03993 1.50514)
(-0.0341226 0.0342544 1.41117)
(-0.0361505 0.0273557 1.26438)
(0.0420642 0.0223143 1.35451)
(0.0401028 0.0280714 1.50489)
(0.0329185 0.0327007 1.59734)
(0.0215288 0.0359141 1.64992)
(0.00757919 0.0375651 1.67369)
(-0.00722183 0.0375676 1.67372)
(-0.0211825 0.035922 1.65002)
(-0.0325954 0.0327152 1.59752)
(-0.0398164 0.0280945 1.50516)
(-0.0418362 0.0223498 1.35489)
(0.0462299 0.0145843 1.41273)
(0.0441462 0.0183355 1.56055)
(0.0361134 0.0213025 1.64988)
(0.0235426 0.0233328 1.6998)
(0.00826013 0.0243702 1.72213)
(-0.0079288 0.0243704 1.72215)
(-0.0232212 0.0233338 1.69989)
(-0.0358134 0.0213053 1.65004)
(-0.0438811 0.0183417 1.56079)
(-0.0460182 0.0145968 1.41308)
(0.0484135 0.00503715 1.44099)
(0.0462454 0.00633182 1.58636)
(0.0377535 0.00735026 1.67361)
(0.0245712 0.00804595 1.72209)
(0.00860915 0.00840211 1.74374)
(-0.00829159 0.00840087 1.74376)
(-0.0242629 0.00804233 1.72217)
(-0.0374653 0.00734452 1.67375)
(-0.0459908 0.00632442 1.58658)
(-0.0482097 0.00502916 1.44131)
(0.0484103 -0.00514904 1.44097)
(0.0462428 -0.00643289 1.58634)
(0.0377513 -0.00744669 1.6736)
(0.0245695 -0.0081412 1.72208)
(0.00860771 -0.00849865 1.74373)
(-0.00829265 -0.00850114 1.74375)
(-0.0242634 -0.00814885 1.72216)
(-0.0374648 -0.00746005 1.67374)
(-0.0459889 -0.00645269 1.58657)
(-0.0482062 -0.00517594 1.44129)
(0.0462201 -0.0146918 1.41269)
(0.044138 -0.0184326 1.56051)
(0.0361068 -0.0213953 1.64985)
(0.023537 -0.0234247 1.69977)
(0.00825559 -0.0244636 1.7221)
(-0.0079321 -0.0244676 1.72212)
(-0.0232226 -0.0234371 1.69986)
(-0.0358119 -0.0214172 1.65)
(-0.0438753 -0.0184658 1.56074)
(-0.0460076 -0.0147383 1.41302)
(0.0420478 -0.0224132 1.35444)
(0.0400883 -0.0281608 1.50482)
(0.0329065 -0.0327863 1.59728)
(0.0215188 -0.0359992 1.64987)
(0.00757098 -0.0376519 1.67364)
(-0.00722769 -0.0376581 1.67367)
(-0.021185 -0.0360183 1.64996)
(-0.0325929 -0.0328196 1.59745)
(-0.0398071 -0.0282102 1.50508)
(-0.0418194 -0.0224809 1.35479)
(0.0363835 -0.0273798 1.26384)
(0.0344213 -0.0342873 1.41076)
(0.0282987 -0.0399739 1.50484)
(0.0185724 -0.0440384 1.56055)
(0.0065721 -0.0461539 1.5864)
(-0.00619594 -0.0461634 1.58644)
(-0.0182067 -0.0440673 1.56066)
(-0.0279546 -0.040023 1.50504)
(-0.0341101 -0.0343581 1.41105)
(-0.0361275 -0.0274726 1.26424)
(0.0295759 -0.0294343 1.13894)
(0.0275366 -0.0362613 1.26386)
(0.0225736 -0.0419465 1.35447)
(0.0148534 -0.0461346 1.41275)
(0.00530842 -0.048338 1.44106)
(-0.0048835 -0.0483512 1.4411)
(-0.0144409 -0.0461745 1.41289)
(-0.0221866 -0.042012 1.35471)
(-0.0271866 -0.0363541 1.2642)
(-0.0292896 -0.0295466 1.13937)
(0.00622113 0.00569381 1.15217)
(0.00706024 0.00807223 1.28413)
(0.00663338 0.0104322 1.38417)
(0.00480985 0.012329 1.45085)
(0.00202051 0.013378 1.48403)
(-0.00112324 0.0134035 1.48417)
(-0.00393995 0.0124067 1.45126)
(-0.00582018 0.0105599 1.38487)
(-0.00632813 0.0082551 1.2851)
(-0.00562531 0.0059213 1.15342)
(0.00851812 0.00647209 1.28404)
(0.0100851 0.0095933 1.44574)
(0.00945845 0.0124356 1.5561)
(0.00674166 0.01458 1.62483)
(0.00266353 0.0157248 1.65778)
(-0.00188753 0.015742 1.65788)
(-0.00598881 0.0146326 1.62516)
(-0.00875358 0.0125257 1.55666)
(-0.00945201 0.00972625 1.44656)
(-0.00800211 0.0066542 1.28514)
(0.0107985 0.00602775 1.38398)
(0.0128519 0.008949 1.556)
(0.0119147 0.0114734 1.6698)
(0.00837067 0.0132837 1.73827)
(0.00320239 0.0142053 1.77028)
(-0.00251155 0.0142146 1.77037)
(-0.00770031 0.0133132 1.73853)
(-0.0112882 0.0115265 1.67027)
(-0.0122948 0.00903181 1.55671)
(-0.0103508 0.00615049 1.38496)
(0.0126387 0.00419654 1.45053)
(0.0149434 0.00622253 1.62463)
(0.0136801 0.00791512 1.73817)
(0.00948621 0.00907018 1.80505)
(0.00356058 0.00960416 1.83565)
(-0.00292282 0.00960773 1.83572)
(-0.00886697 0.00908297 1.80527)
(-0.0131022 0.00794045 1.73858)
(-0.0144331 0.00626598 1.62526)
(-0.0122301 0.00426786 1.45141)
(0.0136422 0.0014164 1.48356)
(0.0160522 0.00214698 1.65745)
(0.0145752 0.00274409 1.77008)
(0.00999977 0.00313729 1.83557)
(0.00371206 0.0033054 1.86489)
(-0.00310013 0.00330546 1.86495)
(-0.00940463 0.00313827 1.83577)
(-0.0140202 0.00274799 1.77046)
(-0.0155641 0.00215745 1.65804)
(-0.0132531 0.00143998 1.48439)
(0.0136352 -0.0017013 1.48353)
(0.0160478 -0.00238744 1.65742)
(0.0145727 -0.00296008 1.77006)
(0.00999839 -0.00334172 1.83554)
(0.00371113 -0.00350648 1.86487)
(-0.00310065 -0.00350939 1.86493)
(-0.00940442 -0.00335079 1.83574)
(-0.0140183 -0.00297528 1.77043)
(-0.0155597 -0.00240734 1.658)
(-0.013246 -0.00172274 1.48434)
(0.0126171 -0.00447179 1.45042)
(0.0149294 -0.00645467 1.62453)
(0.0136717 -0.00812353 1.73809)
(0.00948112 -0.00926755 1.80497)
(0.00355729 -0.00979872 1.83558)
(-0.00292449 -0.00980515 1.83565)
(-0.00886594 -0.00928837 1.80519)
(-0.0130963 -0.00815993 1.73848)
(-0.0144201 -0.00650705 1.62513)
(-0.0122091 -0.00454008 1.45126)
(0.0107625 -0.00628336 1.3838)
(0.0128271 -0.00916431 1.55584)
(0.0118989 -0.011666 1.66965)
(0.0083603 -0.0134657 1.73813)
(0.0031956 -0.0143846 1.77015)
(-0.00251485 -0.0143967 1.77023)
(-0.00769857 -0.0135029 1.73838)
(-0.0112786 -0.0117295 1.67009)
(-0.0122738 -0.00925488 1.5565)
(-0.0103177 -0.00640133 1.38471)
(0.0084646 -0.00670024 1.2838)
(0.0100468 -0.0097843 1.44552)
(0.00943266 -0.0126041 1.55589)
(0.00672385 -0.0147378 1.62463)
(0.00265176 -0.0158796 1.65757)
(-0.00189328 -0.0158992 1.65767)
(-0.00598672 -0.0147972 1.62492)
(-0.00874056 -0.0127031 1.5564)
(-0.00942375 -0.00992296 1.44626)
(-0.00795711 -0.00687521 1.28479)
(0.00615134 -0.00587677 1.15188)
(0.00700534 -0.00822535 1.28385)
(0.00659411 -0.010565 1.3839)
(0.0047818 -0.0124525 1.45058)
(0.00200222 -0.0134984 1.48375)
(-0.00113187 -0.0135259 1.48387)
(-0.00393711 -0.0125354 1.45093)
(-0.0058035 -0.0106993 1.3845)
(-0.00629382 -0.00841208 1.2847)
(-0.00557514 -0.00609653 1.15297)
(0.00604276 0.00501317 1.115)
(0.00594193 0.00650602 1.25269)
(0.00517607 0.00784626 1.35925)
(0.00375112 0.00887095 1.43149)
(0.00182892 0.00944423 1.46792)
(-0.000287018 0.00949412 1.46822)
(-0.00225373 0.00902308 1.43239)
(-0.00377052 0.0080984 1.36074)
(-0.00466611 0.00686998 1.25479)
(-0.00499046 0.00546892 1.11766)
(0.00737338 0.00479916 1.2525)
(0.00740054 0.00645289 1.42427)
(0.00648715 0.00794441 1.54496)
(0.00461907 0.00906734 1.62202)
(0.00206957 0.00967148 1.6596)
(-0.000728176 0.00970835 1.65984)
(-0.0033157 0.00918123 1.62274)
(-0.00526194 0.00814107 1.54621)
(-0.00629047 0.00674517 1.42608)
(-0.00645363 0.00519953 1.2549)
(0.00854973 0.00400795 1.35881)
(0.00873373 0.0055155 1.54473)
(0.00767185 0.0068446 1.67211)
(0.00538611 0.00780046 1.751)
(0.0022859 0.00827795 1.78858)
(-0.00109148 0.00830122 1.78877)
(-0.00422546 0.00787455 1.7516)
(-0.0065834 0.00697839 1.67317)
(-0.00775822 0.00572407 1.54632)
(-0.00775367 0.0043135 1.36097)
(0.00945521 0.00257569 1.43076)
(0.00974344 0.00363653 1.62154)
(0.0085305 0.00453865 1.75077)
(0.00590378 0.00514234 1.82903)
(0.00242286 0.00538205 1.86526)
(-0.0013211 0.0053945 1.86542)
(-0.00483275 0.00518596 1.82955)
(-0.00752886 0.0046225 1.75171)
(-0.00885396 0.00377576 1.62297)
(-0.0087343 0.00279375 1.43276)
(0.00993246 0.000676511 1.46685)
(0.010269 0.00109709 1.65884)
(0.00894885 0.00143775 1.78812)
(0.00609726 0.00165134 1.86505)
(0.00245251 0.00171944 1.89906)
(-0.00139495 0.00172543 1.89919)
(-0.00506737 0.0016726 1.86551)
(-0.00798813 0.00148129 1.78899)
(-0.00942214 0.00117541 1.6602)
(-0.00925244 0.000808712 1.46875)
(0.00991245 -0.00138697 1.46674)
(0.0102568 -0.00166632 1.65876)
(0.00894284 -0.00191898 1.78805)
(0.00609504 -0.00208268 1.86499)
(0.00245172 -0.00212657 1.89901)
(-0.00139493 -0.00212596 1.89914)
(-0.00506603 -0.00208097 1.86545)
(-0.00798354 -0.00191213 1.78891)
(-0.00941304 -0.0016455 1.66011)
(-0.00923833 -0.0013381 1.46864)
(0.00939339 -0.00326601 1.43045)
(0.00970504 -0.00418892 1.62129)
(0.00851039 -0.00500484 1.75056)
(0.00589452 -0.00555978 1.82885)
(0.00241927 -0.00577654 1.86509)
(-0.00132083 -0.00578259 1.86525)
(-0.00482728 -0.00558075 1.82935)
(-0.00751449 -0.00503863 1.75148)
(-0.00882652 -0.00422947 1.6227)
(-0.00869213 -0.00330403 1.43242)
(0.00844527 -0.00465667 1.3583)
(0.00866496 -0.00603375 1.54431)
(0.00763294 -0.00727926 1.67174)
(0.00536566 -0.00818734 1.75067)
(0.0022767 -0.00864196 1.78826)
(-0.00109218 -0.00865898 1.78845)
(-0.00421611 -0.0082391 1.75125)
(-0.00655939 -0.00736333 1.67277)
(-0.00771346 -0.00614436 1.54586)
(-0.00768661 -0.00478502 1.36042)
(0.00721686 -0.00538918 1.2518)
(0.00729256 -0.00692181 1.42367)
(0.00642101 -0.00833091 1.54443)
(0.00458021 -0.00940613 1.62153)
(0.00204957 -0.00998674 1.65912)
(-0.000732882 -0.0100173 1.65935)
(-0.00330386 -0.00949747 1.62222)
(-0.00522911 -0.00847759 1.54562)
(-0.00622935 -0.00711642 1.42542)
(-0.00636192 -0.00561671 1.25413)
(0.00583665 -0.00549654 1.11413)
(0.00578422 -0.00688942 1.25192)
(0.00507019 -0.00815515 1.35854)
(0.00368308 -0.00913833 1.43083)
(0.001791 -0.00969008 1.46727)
(-0.000299439 -0.0097343 1.46755)
(-0.00224031 -0.00926993 1.43167)
(-0.003729 -0.00836265 1.35996)
(-0.00459076 -0.0071665 1.25392)
(-0.0048859 -0.00580113 1.1167)
(0.00176408 3.38417e-05 1.12087)
(0.00211217 0.000554696 1.25908)
(0.00216904 0.00112656 1.36683)
(0.00193016 0.00160698 1.44045)
(0.00145667 0.00191508 1.47787)
(0.000877274 0.00200001 1.47839)
(0.000337172 0.00186458 1.44203)
(-4.03788e-05 0.00155018 1.36945)
(-0.000181075 0.00115555 1.26273)
(-0.000173552 0.000764038 1.12547)
(0.00203293 0.000182641 1.25868)
(0.00254498 0.000926487 1.43206)
(0.00260434 0.00165104 1.55537)
(0.00220525 0.00223424 1.63503)
(0.00146821 0.00258189 1.67428)
(0.000593171 0.00265021 1.67471)
(-0.000201517 0.00244312 1.63636)
(-0.00071959 0.00200611 1.55764)
(-0.000836723 0.00143995 1.43531)
(-0.000615708 0.000857008 1.26294)
(0.00232892 0.000197209 1.36595)
(0.00299927 0.000948902 1.55492)
(0.00305101 0.00164469 1.68645)
(0.00249198 0.00218376 1.76912)
(0.00150274 0.00248634 1.80894)
(0.00034931 0.00253446 1.80931)
(-0.000692244 0.00233363 1.77026)
(-0.00136236 0.00190779 1.68844)
(-0.00148466 0.00134272 1.55785)
(-0.00109094 0.000741718 1.36989)
(0.00259878 -4.72209e-05 1.439)
(0.00337771 0.000539835 1.63409)
(0.00341127 0.00106002 1.76867)
(0.00271695 0.00144351 1.85144)
(0.00153527 0.00163099 1.8901)
(0.000179002 0.00166188 1.89041)
(-0.00105208 0.00154446 1.85243)
(-0.00185478 0.0012442 1.77047)
(-0.00199518 0.000827382 1.6368)
(-0.00147712 0.000369125 1.44272)
(0.0027307 -0.000473147 1.47575)
(0.00357453 -0.000170767 1.67279)
(0.00359563 7.80277e-05 1.80802)
(0.00281012 0.000250786 1.88969)
(0.00153545 0.000328547 1.9258)
(0.000108092 0.000347591 1.92605)
(-0.00121328 0.000312691 1.89059)
(-0.00210862 0.000194368 1.80972)
(-0.00226559 1.83509e-05 1.67539)
(-0.00168059 -0.000188973 1.47937)
(0.00268183 -0.000957679 1.47552)
(0.00354022 -0.000980512 1.6726)
(0.00357454 -0.0010337 1.80788)
(0.00279799 -0.00108313 1.88957)
(0.00152806 -0.00109306 1.92571)
(0.00010434 -0.00108476 1.92596)
(-0.0012131 -0.00105665 1.89047)
(-0.00210178 -0.000980472 1.80957)
(-0.00224983 -0.00088588 1.67522)
(-0.00165481 -0.000803927 1.47916)
(0.00244858 -0.00134901 1.4383)
(0.00327093 -0.00166312 1.63353)
(0.00334409 -0.00199107 1.76821)
(0.00267624 -0.00225282 1.85106)
(0.00151114 -0.00237363 1.88975)
(0.000167498 -0.00237715 1.89006)
(-0.00104996 -0.00226496 1.85205)
(-0.00183364 -0.00200506 1.77002)
(-0.00194771 -0.00166679 1.63627)
(-0.00139975 -0.00132913 1.44209)
(0.00207618 -0.00152002 1.36477)
(0.00281121 -0.00201429 1.55396)
(0.00292734 -0.00252359 1.68565)
(0.00241329 -0.00294261 1.76842)
(0.00145528 -0.00317802 1.80829)
(0.000326474 -0.00319835 1.80866)
(-0.000689594 -0.00300235 1.76956)
(-0.00132754 -0.00261477 1.68766)
(-0.00140711 -0.00212399 1.55696)
(-0.000967244 -0.00163377 1.36884)
(0.00165888 -0.00140023 1.25702)
(0.0022567 -0.00190666 1.43068)
(0.00240464 -0.00244862 1.55418)
(0.00207068 -0.00291268 1.63397)
(0.00138364 -0.00319155 1.67328)
(0.000550362 -0.00323109 1.67372)
(-0.000202615 -0.00302854 1.63532)
(-0.000672998 -0.00262846 1.5565)
(-0.000730195 -0.00213441 1.43403)
(-0.000445076 -0.00165161 1.26147)
(0.00127889 -0.0010485 1.11875)
(0.00170244 -0.00137628 1.25723)
(0.00186439 -0.00178328 1.36521)
(0.00171229 -0.00215954 1.43899)
(0.00131469 -0.00240396 1.47649)
(0.000801884 -0.00246125 1.47702)
(0.000327008 -0.00232815 1.44061)
(1.65186e-05 -0.0020432 1.36793)
(-4.8461e-05 -0.00171292 1.26106)
(2.47122e-05 -0.00139998 1.12363)
(0.00257879 0.0002332 1.11169)
(0.00271439 0.000674202 1.25144)
(0.00259445 0.00112462 1.36084)
(0.00229701 0.00148445 1.43588)
(0.00184624 0.00173545 1.47425)
(0.00131094 0.00184968 1.4751)
(0.000760259 0.00182563 1.43845)
(0.000254514 0.00166934 1.36512)
(-0.000166781 0.0014095 1.25741)
(-0.000528688 0.00105632 1.11919)
(0.00277085 5.32787e-05 1.25068)
(0.00288317 0.000555346 1.42648)
(0.00272353 0.00103061 1.55215)
(0.00233398 0.00141081 1.63377)
(0.00176308 0.00165721 1.67423)
(0.00110208 0.0017513 1.67496)
(0.000444963 0.00169306 1.63599)
(-0.000123839 0.00149254 1.55593)
(-0.00055388 0.00118381 1.43189)
(-0.000874202 0.000808826 1.25774)
(0.00288072 -0.000151668 1.35917)
(0.00302082 0.000322816 1.55131)
(0.00284313 0.000756481 1.68589)
(0.00237477 0.00109284 1.77104)
(0.00169373 0.00129645 1.81232)
(0.0009175 0.00136413 1.81296)
(0.000159006 0.0012988 1.77298)
(-0.000474485 0.00110146 1.68928)
(-0.000913374 0.000802247 1.55628)
(-0.00118184 0.000444648 1.36582)
(0.00295592 -0.000464377 1.4332)
(0.00311702 -8.46724e-05 1.63202)
(0.00292735 0.000250494 1.77021)
(0.00239915 0.000498776 1.85582)
(0.00163866 0.000632785 1.89606)
(0.000784059 0.000677005 1.89661)
(-4.82967e-05 0.000638117 1.85755)
(-0.000734634 0.00048985 1.77332)
(-0.00117928 0.000255942 1.6367)
(-0.00139794 -3.1196e-05 1.43954)
(0.00295227 -0.000843418 1.47041)
(0.00313526 -0.000611664 1.67152)
(0.00294597 -0.000414235 1.81065)
(0.00238341 -0.000273502 1.89532)
(0.00158935 -0.000200339 1.93296)
(0.000716759 -0.000172907 1.9334)
(-0.000144627 -0.000188885 1.89691)
(-0.000864519 -0.000268427 1.81363)
(-0.0013088 -0.000403065 1.67604)
(-0.0014925 -0.000581456 1.47662)
(0.0028634 -0.0012338 1.46997)
(0.00306064 -0.0011687 1.67116)
(0.00289037 -0.00112181 1.81036)
(0.00234354 -0.00109037 1.89508)
(0.00156024 -0.00106246 1.93277)
(0.000697023 -0.00105045 1.93322)
(-0.000154525 -0.0010552 1.89668)
(-0.000860065 -0.00106274 1.81335)
(-0.00128616 -0.0010864 1.67571)
(-0.00145013 -0.00113977 1.47621)
(0.00268636 -0.00156181 1.43185)
(0.00288908 -0.00165403 1.63093)
(0.00275527 -0.0017501 1.7693)
(0.00227299 -0.00182829 1.85505)
(0.00154778 -0.00186207 1.89538)
(0.000723728 -0.00186616 1.89593)
(-7.58622e-05 -0.00184502 1.85681)
(-0.000720244 -0.00177986 1.77247)
(-0.00111095 -0.00169863 1.63569)
(-0.00127066 -0.00163461 1.43833)
(0.0024361 -0.00176577 1.3569)
(0.00263292 -0.0019742 1.54942)
(0.00254256 -0.00217772 1.68429)
(0.00214933 -0.00234634 1.76963)
(0.00153115 -0.00244788 1.81103)
(0.000811346 -0.00247313 1.81168)
(0.000112287 -0.00242293 1.77163)
(-0.000450447 -0.00230333 1.68778)
(-0.000801455 -0.00214791 1.55455)
(-0.000978324 -0.00199553 1.36378)
(0.00213964 -0.00181433 1.24746)
(0.00232197 -0.00207591 1.42372)
(0.00227591 -0.00232691 1.54976)
(0.00198916 -0.00254064 1.63162)
(0.00151256 -0.00268112 1.67222)
(0.00094046 -0.00272903 1.67298)
(0.000375615 -0.00268292 1.63393)
(-9.02797e-05 -0.00255516 1.5537)
(-0.000397981 -0.00238405 1.42938)
(-0.000592333 -0.00219421 1.25487)
(0.00181047 -0.00170377 1.10755)
(0.00197808 -0.00196088 1.24775)
(0.0019795 -0.00220633 1.35755)
(0.00180798 -0.00241878 1.43289)
(0.00148891 -0.00256867 1.47143)
(0.00108385 -0.00263514 1.47233)
(0.000668023 -0.00261594 1.4356)
(0.000302066 -0.00251574 1.36209)
(3.32317e-05 -0.00237643 1.2541)
(-0.000199275 -0.00216879 1.11555)
(0.00153126 -0.000817955 1.11286)
(0.00188165 -0.000723461 1.25306)
(0.00202968 -0.000514836 1.36308)
(0.00204075 -0.000309607 1.43878)
(0.00192406 -0.000133533 1.47773)
(0.00171843 -2.41464e-05 1.47903)
(0.00145751 5.95045e-06 1.44271)
(0.00117183 -4.70695e-05 1.36965)
(0.00088853 -0.00016758 1.26222)
(0.000591161 -0.000340969 1.12437)
(0.00156611 -0.000886994 1.25177)
(0.00191509 -0.000718637 1.42824)
(0.00205231 -0.00048762 1.55478)
(0.0020242 -0.000264848 1.63725)
(0.00186027 -9.35508e-05 1.67839)
(0.00160979 -4.79157e-06 1.67953)
(0.00131995 -1.05026e-05 1.6407)
(0.0010308 -0.000110759 1.56064)
(0.000771492 -0.000288517 1.4366)
(0.000530241 -0.000512946 1.26263)
(0.00152839 -0.000897863 1.36028)
(0.00190303 -0.000730728 1.55337)
(0.00204037 -0.000518652 1.68912)
(0.00198191 -0.000320454 1.77534)
(0.00177383 -0.000179578 1.8174)
(0.00147964 -0.000119443 1.8184)
(0.00115951 -0.000148469 1.77841)
(0.00086366 -0.000267546 1.69443)
(0.000626089 -0.000460767 1.56111)
(0.0004438 -0.000701894 1.37055)
(0.00148488 -0.000930726 1.43433)
(0.00186811 -0.000806728 1.63437)
(0.00200694 -0.000644823 1.77397)
(0.00192851 -0.000496297 1.86084)
(0.00168847 -0.000400355 1.90192)
(0.00136321 -0.000367613 1.90279)
(0.00102216 -0.000402055 1.86359)
(0.00072384 -0.000515917 1.77888)
(0.000510021 -0.000696051 1.64167)
(0.000383037 -0.000923252 1.44415)
(0.00140927 -0.000963821 1.47149)
(0.00180037 -0.00091865 1.67395)
(0.00194791 -0.000833888 1.81465)
(0.00186388 -0.00075256 1.90068)
(0.00161317 -0.000703048 1.93915)
(0.00128447 -0.000691079 1.93987)
(0.000941778 -0.000725119 1.90322)
(0.000647992 -0.00081747 1.81935)
(0.000459292 -0.000963312 1.68101)
(0.000376638 -0.0011531 1.48103)
(0.00130715 -0.000981364 1.47082)
(0.0016969 -0.00102786 1.67338)
(0.00185814 -0.00103105 1.81416)
(0.00179138 -0.00102241 1.90025)
(0.00155674 -0.00101462 1.93881)
(0.00124437 -0.00102225 1.93953)
(0.000919279 -0.00105569 1.90279)
(0.000649633 -0.0011186 1.81884)
(0.000489962 -0.00121938 1.68041)
(0.000436607 -0.00135864 1.48031)
(0.00118293 -0.000952945 1.43232)
(0.00156033 -0.00108491 1.63262)
(0.00173678 -0.00117018 1.77244)
(0.00170665 -0.00123071 1.85949)
(0.00151627 -0.00127005 1.90068)
(0.00124202 -0.00129703 1.90156)
(0.0009584 -0.00132497 1.86223)
(0.000731245 -0.00135946 1.77733)
(0.00060371 -0.00141714 1.63985)
(0.000564057 -0.00150669 1.44197)
(0.00105236 -0.000856397 1.35688)
(0.00140578 -0.00104475 1.55037)
(0.00159507 -0.00118823 1.68644)
(0.00161023 -0.00130113 1.7729)
(0.00148502 -0.00138292 1.81509)
(0.00128 -0.00143296 1.81608)
(0.00106052 -0.00146053 1.77595)
(0.000882816 -0.00147986 1.6917)
(0.000784618 -0.00150999 1.55798)
(0.000736284 -0.00156005 1.36689)
(0.00094487 -0.000679725 1.24699)
(0.00125692 -0.000878461 1.4239)
(0.00145063 -0.0010443 1.5508)
(0.00151418 -0.00118364 1.63354)
(0.00146546 -0.00129184 1.67482)
(0.0013452 -0.00136497 1.67595)
(0.00120197 -0.00140964 1.63696)
(0.00107761 -0.00143776 1.55658)
(0.00100698 -0.00147231 1.43207)
(0.000944571 -0.00151096 1.25747)
(0.000875072 -0.000453439 1.10678)
(0.00112805 -0.000602504 1.24733)
(0.00131542 -0.000747114 1.35768)
(0.00142382 -0.000879463 1.43364)
(0.0014526 -0.0009931 1.47273)
(0.00142029 -0.00108084 1.47403)
(0.00135593 -0.00114786 1.43752)
(0.00127918 -0.00119579 1.3641)
(0.00121878 -0.00126136 1.2562)
(0.00109294 -0.00129531 1.11778)
(0.00128293 -5.25125e-05 1.10924)
(0.0016243 -0.000196391 1.25039)
(0.00179841 -0.00020301 1.36141)
(0.00183511 -0.000157763 1.43803)
(0.00173828 -9.28984e-05 1.47775)
(0.0015367 -4.98967e-05 1.47965)
(0.00125665 -5.60147e-05 1.44375)
(0.000926408 -0.000127579 1.37097)
(0.000572899 -0.000271763 1.26371)
(0.000227127 -0.00047724 1.12592)
(0.00148643 -0.000134421 1.24843)
(0.00180684 -0.000285252 1.42604)
(0.00195975 -0.000316597 1.55369)
(0.00196459 -0.000284672 1.63712)
(0.00184015 -0.000236441 1.67902)
(0.00161891 -0.00021241 1.68068)
(0.00132889 -0.00024063 1.64217)
(0.000994751 -0.000337911 1.56225)
(0.000636774 -0.000504935 1.43822)
(0.000275648 -0.000720492 1.26417)
(0.00156003 -0.000196599 1.35717)
(0.00187049 -0.000377922 1.55155)
(0.00200598 -0.000436429 1.68851)
(0.00198631 -0.000430092 1.77575)
(0.00184118 -0.000409362 1.81856)
(0.00160813 -0.000410195 1.82003)
(0.00131596 -0.000457115 1.78025)
(0.000988098 -0.000567377 1.69627)
(0.000643813 -0.000739612 1.56281)
(0.000299642 -0.00095498 1.37202)
(0.00157986 -0.000249675 1.43138)
(0.00186558 -0.000472922 1.63279)
(0.00198331 -0.000570522 1.77368)
(0.00194654 -0.00060095 1.86161)
(0.00178986 -0.000615014 1.90342)
(0.00155587 -0.000642504 1.90471)
(0.00127192 -0.000703137 1.86565)
(0.000959217 -0.00081925 1.78084)
(0.000639718 -0.000988862 1.64336)
(0.000325259 -0.00119579 1.44546)
(0.00155682 -0.000284201 1.46855)
(0.00181635 -0.000561006 1.67241)
(0.0019225 -0.00070843 1.81444)
(0.00187934 -0.000782468 1.90156)
(0.00172322 -0.000829316 1.94075)
(0.00150214 -0.000878076 1.9418)
(0.00123657 -0.000952956 1.90526)
(0.000944084 -0.001071 1.82123)
(0.000654754 -0.00123099 1.68252)
(0.000374277 -0.00142008 1.48206)
(0.0015113 -0.00029723 1.46774)
(0.00174288 -0.000628902 1.67165)
(0.00184263 -0.000829379 1.81373)
(0.0018072 -0.000948165 1.9009)
(0.00166561 -0.00102434 1.94018)
(0.00146287 -0.00109369 1.94123)
(0.00121873 -0.00118144 1.90456)
(0.000956312 -0.00129688 1.8204)
(0.000701915 -0.00144116 1.68155)
(0.000452904 -0.00160435 1.4809)
(0.00145966 -0.000277672 1.42895)
(0.00166042 -0.000656507 1.63048)
(0.00175376 -0.000906046 1.77149)
(0.00173394 -0.00106875 1.85956)
(0.00161859 -0.00117915 1.90146)
(0.00144045 -0.00126824 1.9027)
(0.00122649 -0.00136286 1.86342)
(0.00100219 -0.00147092 1.77829)
(0.000785976 -0.00159518 1.6404)
(0.000564464 -0.00172767 1.44198)
(0.00141364 -0.000223294 1.35312)
(0.00158488 -0.000625257 1.54763)
(0.00166889 -0.00090946 1.68473)
(0.00166548 -0.00110833 1.77209)
(0.00158192 -0.00125105 1.81493)
(0.00144116 -0.00136174 1.8163)
(0.00126749 -0.00146223 1.77624)
(0.00108229 -0.00156326 1.69182)
(0.000900913 -0.00166786 1.55776)
(0.000693542 -0.00176476 1.36619)
(0.00140215 -0.000131404 1.24281)
(0.00153645 -0.000523879 1.42047)
(0.00160369 -0.000822138 1.54818)
(0.00161423 -0.00104269 1.63166)
(0.00156394 -0.00120911 1.67351)
(0.00146502 -0.00133936 1.675)
(0.00133421 -0.00145135 1.63614)
(0.00118609 -0.00155277 1.55569)
(0.00103728 -0.00165049 1.43095)
(0.000848242 -0.00171917 1.25602)
(0.00140595 -7.32439e-05 1.10226)
(0.00151846 -0.000405227 1.24325)
(0.00156788 -0.000682229 1.35414)
(0.00158734 -0.000892696 1.43065)
(0.00156454 -0.00106103 1.47022)
(0.0015032 -0.0011951 1.47185)
(0.00141107 -0.00130984 1.43552)
(0.00129005 -0.00140292 1.36215)
(0.00115765 -0.00149636 1.25418)
(0.000944475 -0.00151533 1.11564)
(3.25221e-05 0.000733459 1.10775)
(0.000350889 0.00029289 1.2496)
(0.000624697 -1.38722e-05 1.36143)