/*--------------------------------*- C++ -*----------------------------------*\
| =========                 |                                                 |
| \\      /  F ield         | OpenFOAM: The Open Source CFD Toolbox           |
|  \\    /   O peration     | Version:  2406                                  |
|   \\  /    A nd           | Website:  www.openfoam.com                      |
|    \\/     M anipulation  |                                                 |
\*---------------------------------------------------------------------------*/
FoamFile
{
    version     2.0;
    format      ascii;
    arch        "LSB;label=32;scalar=64";
    class       surfaceScalarField;
    location    "8.3";
    object      phi;
}
// * * * * * * * * * * * * * * * * * * * * * * * * * * * * * * * * * * * * * //

dimensions      [0 3 -1 0 0 0 0];

oriented        oriented;

internalField   nonuniform List<scalar> 
46880
(
5.70227e-05
5.70227e-05
9.25627e-05
-6.58089e-05
-6.58089e-05
4.14847e-05
5.85524e-05
0.000107332
-6.81955e-05
2.17749e-05
5.89973e-05
0.000116854
-6.9121e-05
2.17959e-13
5.91027e-05
0.000121561
-6.94051e-05
-2.17749e-05
5.91027e-05
0.000121561
-6.94051e-05
-4.14847e-05
5.89973e-05
0.000116854
-6.9121e-05
-5.70227e-05
5.85524e-05
0.000107332
-6.81955e-05
5.70227e-05
9.25627e-05
-6.58089e-05
-6.58089e-05
5.85524e-05
4.14847e-05
0.000107332
-6.81955e-05
4.20291e-05
4.20291e-05
0.000121733
2.18254e-05
4.20503e-05
0.000130284
2.1594e-13
4.1986e-05
0.000134326
-2.18254e-05
4.1986e-05
0.000134326
-4.20291e-05
4.20503e-05
0.000130284
-5.85524e-05
4.20291e-05
0.000121733
4.14847e-05
0.000107332
-6.81955e-05
5.89973e-05
2.17749e-05
0.000116854
-6.9121e-05
4.20503e-05
2.18254e-05
0.000130284
2.17158e-05
2.17158e-05
0.000137965
1.74869e-13
2.16254e-05
0.00014148
-2.17158e-05
2.16254e-05
0.00014148
-4.20503e-05
2.17158e-05
0.000137965
-5.89973e-05
2.18254e-05
0.000130284
2.17749e-05
0.000116854
-6.9121e-05
5.91027e-05
8.78316e-13
0.000121561
-6.94051e-05
4.1986e-05
1.07385e-12
0.000134326
2.16254e-05
1.0429e-12
0.00014148
1.41798e-13
1.01725e-12
0.000144691
-2.16254e-05
9.82207e-13
0.000144691
-4.1986e-05
9.46995e-13
0.00014148
-5.91027e-05
9.50065e-13
0.000134326
7.67868e-13
0.000121561
-6.94051e-05
5.91027e-05
-2.17749e-05
0.000121561
-6.94051e-05
4.1986e-05
-2.18254e-05
0.000134326
2.16254e-05
-2.17158e-05
0.00014148
1.07108e-13
-2.16254e-05
0.000144691
-2.16254e-05
-2.16254e-05
0.000144691
-4.1986e-05
-2.17158e-05
0.00014148
-5.91027e-05
-2.18254e-05
0.000134326
-2.17749e-05
0.000121561
-6.94051e-05
5.89973e-05
-4.14846e-05
0.000116854
-6.9121e-05
4.20503e-05
-4.20291e-05
0.000130284
2.17158e-05
-4.20503e-05
0.000137965
6.56458e-14
-4.1986e-05
0.00014148
-2.17158e-05
-4.1986e-05
0.00014148
-4.20503e-05
-4.20503e-05
0.000137965
-5.89973e-05
-4.20291e-05
0.000130284
-4.14846e-05
0.000116854
-6.9121e-05
5.85524e-05
-5.70227e-05
0.000107332
-6.81955e-05
4.20291e-05
-5.85524e-05
0.000121733
2.18254e-05
-5.89973e-05
0.000130284
2.9102e-14
-5.91027e-05
0.000134326
-2.18254e-05
-5.91027e-05
0.000134326
-4.20291e-05
-5.89973e-05
0.000130284
-5.85524e-05
-5.85524e-05
0.000121733
-5.70227e-05
0.000107332
-6.81955e-05
5.70227e-05
9.25627e-05
-6.58089e-05
-6.58089e-05
4.14847e-05
0.000107332
-6.81955e-05
2.17749e-05
0.000116854
-6.9121e-05
5.92026e-15
0.000121561
-6.94051e-05
-2.17749e-05
0.000121561
-6.94051e-05
-4.14847e-05
0.000116854
-6.9121e-05
-5.70227e-05
0.000107332
-6.81955e-05
9.25627e-05
-6.58089e-05
-6.58089e-05
2.12981e-05
2.12981e-05
9.11553e-05
-2.05944e-05
-2.05944e-05
1.7387e-05
2.43165e-05
0.000110076
-2.31488e-05
9.64834e-06
2.60548e-05
0.000123205
-2.46671e-05
1.38706e-13
2.68715e-05
0.000129837
-2.54995e-05
-9.64834e-06
2.68715e-05
0.000129837
-2.54995e-05
-1.7387e-05
2.60548e-05
0.000123205
-2.46671e-05
-2.12981e-05
2.43165e-05
0.000110076
-2.31488e-05
2.12981e-05
9.11553e-05
-2.05944e-05
-2.05944e-05
2.43165e-05
1.7387e-05
0.000110076
-2.31488e-05
1.97648e-05
1.97648e-05
0.000130836
1.0936e-05
2.11179e-05
0.00014405
1.21353e-13
2.17195e-05
0.000150414
-1.0936e-05
2.17195e-05
0.000150414
-1.97648e-05
2.11179e-05
0.00014405
-2.43165e-05
1.97648e-05
0.000130836
1.7387e-05
0.000110076
-2.31488e-05
2.60548e-05
9.64834e-06
0.000123205
-2.46671e-05
2.11179e-05
1.0936e-05
0.00014405
1.1672e-05
1.1672e-05
0.000156857
8.17459e-14
1.19938e-05
0.000162878
-1.1672e-05
1.19938e-05
0.000162878
-2.11179e-05
1.1672e-05
0.000156857
-2.60548e-05
1.0936e-05
0.00014405
9.64834e-06
0.000123205
-2.46671e-05
2.68715e-05
7.31608e-13
0.000129837
-2.54995e-05
2.17195e-05
8.40335e-13
0.000150414
1.19938e-05
7.88649e-13
0.000162878
5.25058e-14
7.66565e-13
0.000168678
-1.19938e-05
7.38342e-13
0.000168678
-2.17195e-05
7.15802e-13
0.000162878
-2.68715e-05
7.52688e-13
0.000150414
6.6184e-13
0.000129837
-2.54995e-05
2.68715e-05
-9.64834e-06
0.000129837
-2.54995e-05
2.17195e-05
-1.0936e-05
0.000150414
1.19938e-05
-1.1672e-05
0.000162878
2.64463e-14
-1.19938e-05
0.000168678
-1.19938e-05
-1.19938e-05
0.000168678
-2.17195e-05
-1.1672e-05
0.000162878
-2.68715e-05
-1.0936e-05
0.000150414
-9.64834e-06
0.000129837
-2.54995e-05
2.60548e-05
-1.7387e-05
0.000123205
-2.46671e-05
2.11179e-05
-1.97648e-05
0.00014405
1.1672e-05
-2.11179e-05
0.000156857
-8.51207e-15
-2.17195e-05
0.000162878
-1.1672e-05
-2.17195e-05
0.000162878
-2.11179e-05
-2.11179e-05
0.000156857
-2.60548e-05
-1.97648e-05
0.00014405
-1.7387e-05
0.000123205
-2.46671e-05
2.43165e-05
-2.12981e-05
0.000110076
-2.31488e-05
1.97648e-05
-2.43165e-05
0.000130836
1.0936e-05
-2.60548e-05
0.00014405
-4.10227e-14
-2.68715e-05
0.000150414
-1.0936e-05
-2.68715e-05
0.000150414
-1.97648e-05
-2.60548e-05
0.00014405
-2.43165e-05
-2.43165e-05
0.000130836
-2.12981e-05
0.000110076
-2.31488e-05
2.12981e-05
9.11553e-05
-2.05944e-05
-2.05944e-05
1.7387e-05
0.000110076
-2.31488e-05
9.64834e-06
0.000123205
-2.46671e-05
-5.76091e-14
0.000129837
-2.54995e-05
-9.64834e-06
0.000129837
-2.54995e-05
-1.7387e-05
0.000123205
-2.46671e-05
-2.12981e-05
0.000110076
-2.31488e-05
9.11553e-05
-2.05944e-05
-2.05944e-05
1.18127e-05
1.18127e-05
8.91259e-05
-1.0798e-05
-1.0798e-05
9.90265e-06
1.43956e-05
0.000110627
-1.30364e-05
5.62154e-06
1.59718e-05
0.000125963
-1.44489e-05
2.41936e-13
1.67467e-05
0.000133897
-1.51853e-05
-5.62154e-06
1.67467e-05
0.000133897
-1.51853e-05
-9.90265e-06
1.59718e-05
0.000125963
-1.44489e-05
-1.18127e-05
1.43956e-05
0.000110627
-1.30364e-05
1.18127e-05
8.91259e-05
-1.0798e-05
-1.0798e-05
1.43956e-05
9.90265e-06
0.000110627
-1.30364e-05
1.20477e-05
1.20477e-05
0.000135532
6.80902e-06
1.33212e-05
0.000151939
1.8547e-13
1.39201e-05
0.00016005
-6.80902e-06
1.39201e-05
0.00016005
-1.20477e-05
1.33212e-05
0.000151939
-1.43956e-05
1.20477e-05
0.000135532
9.90265e-06
0.000110627
-1.30364e-05
1.59718e-05
5.62155e-06
0.000125963
-1.44489e-05
1.33212e-05
6.80902e-06
0.000151939
7.49972e-06
7.49972e-06
0.0001685
1.06728e-13
7.81056e-06
0.000176487
-7.49972e-06
7.81056e-06
0.000176487
-1.33212e-05
7.49972e-06
0.0001685
-1.59718e-05
6.80902e-06
0.000151939
5.62155e-06
0.000125963
-1.44489e-05
1.67467e-05
9.06662e-13
0.000133897
-1.51853e-05
1.39201e-05
9.65199e-13
0.00016005
7.81056e-06
8.28419e-13
0.000176487
5.4574e-14
7.47308e-13
0.000184299
-7.81056e-06
7.06212e-13
0.000184299
-1.39201e-05
7.10426e-13
0.000176487
-1.67467e-05
7.91196e-13
0.00016005
7.1544e-13
0.000133897
-1.51853e-05
1.67467e-05
-5.62154e-06
0.000133897
-1.51853e-05
1.39201e-05
-6.80902e-06
0.00016005
7.81056e-06
-7.49972e-06
0.000176487
1.58595e-14
-7.81055e-06
0.000184299
-7.81056e-06
-7.81055e-06
0.000184299
-1.39201e-05
-7.49972e-06
0.000176487
-1.67467e-05
-6.80902e-06
0.00016005
-5.62154e-06
0.000133897
-1.51853e-05
1.59718e-05
-9.90265e-06
0.000125963
-1.44489e-05
1.33212e-05
-1.20476e-05
0.000151939
7.49972e-06
-1.33212e-05
0.0001685
-2.65858e-14
-1.39201e-05
0.000176487
-7.49972e-06
-1.39201e-05
0.000176487
-1.33212e-05
-1.33212e-05
0.0001685
-1.59718e-05
-1.20476e-05
0.000151939
-9.90265e-06
0.000125963
-1.44489e-05
1.43956e-05
-1.18127e-05
0.000110627
-1.30364e-05
1.20477e-05
-1.43956e-05
0.000135532
6.80902e-06
-1.59718e-05
0.000151939
-6.43598e-14
-1.67467e-05
0.00016005
-6.80902e-06
-1.67467e-05
0.00016005
-1.20477e-05
-1.59718e-05
0.000151939
-1.43956e-05
-1.43956e-05
0.000135532
-1.18127e-05
0.000110627
-1.30364e-05
1.18127e-05
8.91259e-05
-1.0798e-05
-1.0798e-05
9.90265e-06
0.000110627
-1.30364e-05
5.62154e-06
0.000125963
-1.44489e-05
-8.06006e-14
0.000133897
-1.51853e-05
-5.62154e-06
0.000133897
-1.51853e-05
-9.90265e-06
0.000125963
-1.44489e-05
-1.18127e-05
0.000110627
-1.30364e-05
8.91259e-05
-1.0798e-05
-1.0798e-05
2.98521e-06
2.98521e-06
8.73785e-05
-2.11152e-06
-2.11152e-06
2.93654e-06
4.20871e-06
0.000109321
-2.85467e-06
1.80601e-06
5.10333e-06
0.000125443
-3.45295e-06
7.50495e-14
5.56796e-06
0.000133927
-3.79171e-06
-1.80601e-06
5.56796e-06
0.000133927
-3.79171e-06
-2.93654e-06
5.10333e-06
0.000125443
-3.45295e-06
-2.98521e-06
4.20871e-06
0.000109321
-2.85467e-06
2.98521e-06
8.73785e-05
-2.11152e-06
-2.11152e-06
4.20871e-06
2.93654e-06
0.000109321
-2.85467e-06
4.13753e-06
4.13753e-06
0.000135674
2.52404e-06
4.95623e-06
0.000153699
5.00526e-14
5.34154e-06
0.0001628
-2.52404e-06
5.34154e-06
0.0001628
-4.13753e-06
4.95623e-06
0.000153699
-4.20871e-06
4.13753e-06
0.000135674
2.93654e-06
0.000109321
-2.85467e-06
5.10333e-06
1.80601e-06
0.000125443
-3.45295e-06
4.95623e-06
2.52404e-06
0.000153699
2.98743e-06
2.98743e-06
0.000172437
7.19594e-15
3.17437e-06
0.000181642
-2.98743e-06
3.17437e-06
0.000181642
-4.95623e-06
2.98743e-06
0.000172437
-5.10333e-06
2.52404e-06
0.000153699
1.80601e-06
0.000125443
-3.45295e-06
5.56796e-06
8.66955e-13
0.000133927
-3.79171e-06
5.34154e-06
9.73882e-13
0.0001628
3.17437e-06
8.49718e-13
0.000181642
-2.60811e-14
7.46469e-13
0.000190648
-3.17437e-06
7.20239e-13
0.000190648
-5.34154e-06
7.76459e-13
0.000181642
-5.56796e-06
8.86632e-13
0.0001628
8.08576e-13
0.000133927
-3.79171e-06
5.56796e-06
-1.80601e-06
0.000133927
-3.79171e-06
5.34154e-06
-2.52404e-06
0.0001628
3.17437e-06
-2.98743e-06
0.000181642
-5.24104e-14
-3.17437e-06
0.000190648
-3.17437e-06
-3.17437e-06
0.000190648
-5.34154e-06
-2.98743e-06
0.000181642
-5.56796e-06
-2.52404e-06
0.0001628
-1.80601e-06
0.000133927
-3.79171e-06
5.10333e-06
-2.93654e-06
0.000125443
-3.45295e-06
4.95623e-06
-4.13753e-06
0.000153699
2.98743e-06
-4.95623e-06
0.000172437
-7.99279e-14
-5.34154e-06
0.000181642
-2.98743e-06
-5.34154e-06
0.000181642
-4.95623e-06
-4.95623e-06
0.000172437
-5.10333e-06
-4.13753e-06
0.000153699
-2.93654e-06
0.000125443
-3.45295e-06
4.20871e-06
-2.98521e-06
0.000109321
-2.85467e-06
4.13753e-06
-4.20871e-06
0.000135674
2.52404e-06
-5.10333e-06
0.000153699
-1.15258e-13
-5.56796e-06
0.0001628
-2.52404e-06
-5.56796e-06
0.0001628
-4.13753e-06
-5.10333e-06
0.000153699
-4.20871e-06
-4.20871e-06
0.000135674
-2.98521e-06
0.000109321
-2.85467e-06
2.98521e-06
8.73785e-05
-2.11152e-06
-2.11152e-06
2.93654e-06
0.000109321
-2.85467e-06
1.80601e-06
0.000125443
-3.45295e-06
-1.29215e-13
0.000133927
-3.79171e-06
-1.80601e-06
0.000133927
-3.79171e-06
-2.93654e-06
0.000125443
-3.45295e-06
-2.98521e-06
0.000109321
-2.85467e-06
8.73785e-05
-2.11152e-06
-2.11152e-06
1.75855e-06
1.75855e-06
8.68359e-05
-1.48727e-06
-1.48727e-06
1.58507e-06
2.31764e-06
0.000109058
-1.88066e-06
9.44341e-07
2.7317e-06
0.000125519
-2.1672e-06
3.70924e-13
2.94525e-06
0.000134245
-2.31887e-06
-9.44341e-07
2.94525e-06
0.000134245
-2.31887e-06
-1.58507e-06
2.7317e-06
0.000125519
-2.1672e-06
-1.75855e-06
2.31764e-06
0.000109058
-1.88066e-06
1.75855e-06
8.68359e-05
-1.48727e-06
-1.48727e-06
2.31764e-06
1.58508e-06
0.000109058
-1.88066e-06
2.13339e-06
2.13339e-06
0.000136043
1.27625e-06
2.52942e-06
0.000154759
3.06288e-13
2.71285e-06
0.000164309
-1.27625e-06
2.71285e-06
0.000164309
-2.13338e-06
2.52941e-06
0.000154759
-2.31764e-06
2.13339e-06
0.000136043
1.58507e-06
0.000109058
-1.88066e-06
2.7317e-06
9.44342e-07
0.000125519
-2.1672e-06
2.52941e-06
1.27625e-06
0.000154759
1.50567e-06
1.50567e-06
0.000174485
1.97737e-13
1.58998e-06
0.00018427
-1.50567e-06
1.58998e-06
0.00018427
-2.52941e-06
1.50567e-06
0.000174485
-2.7317e-06
1.27625e-06
0.000154759
9.44342e-07
0.000125519
-2.1672e-06
2.94525e-06
1.23568e-12
0.000134245
-2.31887e-06
2.71285e-06
1.33123e-12
0.000164309
1.58997e-06
1.1421e-12
0.00018427
1.17206e-13
9.70364e-13
0.000193828
-1.58997e-06
9.2064e-13
0.000193828
-2.71285e-06
9.9477e-13
0.00018427
-2.94525e-06
1.10632e-12
0.000164309
9.8704e-13
0.000134245
-2.31887e-06
2.94525e-06
-9.4434e-07
0.000134245
-2.31887e-06
2.71285e-06
-1.27624e-06
0.000164309
1.58997e-06
-1.50567e-06
0.00018427
6.86866e-14
-1.58997e-06
0.000193828
-1.58997e-06
-1.58997e-06
0.000193828
-2.71285e-06
-1.50567e-06
0.00018427
-2.94525e-06
-1.27624e-06
0.000164309
-9.4434e-07
0.000134245
-2.31887e-06
2.7317e-06
-1.58507e-06
0.000125519
-2.1672e-06
2.52941e-06
-2.13338e-06
0.000154759
1.50567e-06
-2.52941e-06
0.000174485
3.49758e-14
-2.71285e-06
0.00018427
-1.50567e-06
-2.71285e-06
0.00018427
-2.52941e-06
-2.52941e-06
0.000174485
-2.7317e-06
-2.13338e-06
0.000154759
-1.58507e-06
0.000125519
-2.1672e-06
2.31764e-06
-1.75855e-06
0.000109058
-1.88066e-06
2.13338e-06
-2.31763e-06
0.000136043
1.27625e-06
-2.7317e-06
0.000154759
5.16019e-15
-2.94525e-06
0.000164309
-1.27625e-06
-2.94525e-06
0.000164309
-2.13338e-06
-2.7317e-06
0.000154759
-2.31764e-06
-2.31763e-06
0.000136043
-1.75855e-06
0.000109058
-1.88066e-06
1.75855e-06
8.68359e-05
-1.48727e-06
-1.48727e-06
1.58507e-06
0.000109058
-1.88066e-06
9.44341e-07
0.000125519
-2.1672e-06
-1.68604e-14
0.000134245
-2.31887e-06
-9.44341e-07
0.000134245
-2.31887e-06
-1.58507e-06
0.000125519
-2.1672e-06
-1.75855e-06
0.000109058
-1.88066e-06
8.68359e-05
-1.48727e-06
-1.48727e-06
6.09094e-07
6.09095e-07
8.65409e-05
-4.61558e-07
-4.61558e-07
5.88221e-07
8.41815e-07
0.000108839
-6.01562e-07
3.62056e-07
1.02624e-06
0.000125434
-7.14691e-07
-9.15548e-16
1.12581e-06
0.00013426
-7.78511e-07
-3.62056e-07
1.12581e-06
0.00013426
-7.78511e-07
-5.88221e-07
1.02624e-06
0.000125434
-7.14691e-07
-6.09094e-07
8.41815e-07
0.000108839
-6.01562e-07
6.09095e-07
8.65409e-05
-4.61559e-07
-4.61558e-07
8.41814e-07
5.88222e-07
0.000108839
-6.01562e-07
8.30744e-07
8.30745e-07
0.000136065
5.13706e-07
1.01887e-06
0.000155083
-1.3466e-14
1.11174e-06
0.000164837
-5.13707e-07
1.11174e-06
0.000164837
-8.30744e-07
1.01887e-06
0.000155083
-8.41814e-07
8.30745e-07
0.000136065
5.88222e-07
0.000108839
-6.01563e-07
1.02624e-06
3.62058e-07
0.000125434
-7.1469e-07
1.01887e-06
5.13708e-07
0.000155083
6.28552e-07
6.28553e-07
0.000175266
-4.15135e-14
6.77036e-07
0.000185334
-6.28552e-07
6.77036e-07
0.000185334
-1.01887e-06
6.28553e-07
0.000175266
-1.02624e-06
5.13708e-07
0.000155083
3.62058e-07
0.000125434
-7.14691e-07
1.12581e-06
1.24456e-12
0.00013426
-7.7851e-07
1.11173e-06
1.42321e-12
0.000164837
6.77035e-07
1.2875e-12
0.000185334
-6.0188e-14
1.14937e-12
0.000195182
-6.77035e-07
1.13328e-12
0.000195182
-1.11173e-06
1.25562e-12
0.000185334
-1.12581e-06
1.40301e-12
0.000164837
1.2787e-12
0.00013426
-7.78511e-07
1.12581e-06
-3.62055e-07
0.00013426
-7.7851e-07
1.11173e-06
-5.13705e-07
0.000164837
6.77035e-07
-6.28551e-07
0.000185334
-7.57707e-14
-6.77034e-07
0.000195182
-6.77035e-07
-6.77034e-07
0.000195182
-1.11173e-06
-6.28551e-07
0.000185334
-1.12581e-06
-5.13705e-07
0.000164837
-3.62055e-07
0.00013426
-7.78511e-07
1.02624e-06
-5.8822e-07
0.000125434
-7.1469e-07
1.01887e-06
-8.30743e-07
0.000155083
6.28552e-07
-1.01887e-06
0.000175266
-8.9188e-14
-1.11173e-06
0.000185334
-6.28552e-07
-1.11173e-06
0.000185334
-1.01887e-06
-1.01887e-06
0.000175266
-1.02624e-06
-8.30743e-07
0.000155083
-5.8822e-07
0.000125434
-7.14691e-07
8.41814e-07
-6.09093e-07
0.000108839
-6.01562e-07
8.30744e-07
-8.41813e-07
0.000136065
5.13706e-07
-1.02624e-06
0.000155083
-1.06467e-13
-1.12581e-06
0.000164837
-5.13707e-07
-1.12581e-06
0.000164837
-8.30744e-07
-1.02624e-06
0.000155083
-8.41814e-07
-8.41813e-07
0.000136065
-6.09093e-07
0.000108839
-6.01563e-07
6.09094e-07
8.65409e-05
-4.61558e-07
-4.61558e-07
5.88221e-07
0.000108839
-6.01562e-07
3.62056e-07
0.000125434
-7.1469e-07
-1.12148e-13
0.00013426
-7.7851e-07
-3.62057e-07
0.00013426
-7.7851e-07
-5.88221e-07
0.000125434
-7.1469e-07
-6.09094e-07
0.000108839
-6.01562e-07
8.65409e-05
-4.61558e-07
-4.61558e-07
3.37042e-07
3.37043e-07
8.64326e-05
-2.8288e-07
-2.8288e-07
3.05728e-07
4.42556e-07
0.000108783
-3.55841e-07
1.82771e-07
5.24016e-07
0.000125443
-4.10568e-07
3.08858e-13
5.67997e-07
0.000134315
-4.40394e-07
-1.8277e-07
5.67997e-07
0.000134315
-4.40394e-07
-3.05727e-07
5.24016e-07
0.000125443
-4.10568e-07
-3.37042e-07
4.42555e-07
0.000108783
-3.5584e-07
3.37043e-07
8.64326e-05
-2.82881e-07
-2.8288e-07
4.42554e-07
3.05729e-07
0.000108783
-3.5584e-07
4.11361e-07
4.11363e-07
0.000136127
2.48164e-07
4.93895e-07
0.000155277
2.55646e-13
5.35806e-07
0.000165117
-2.48163e-07
5.35806e-07
0.000165117
-4.11361e-07
4.93895e-07
0.000155277
-4.42554e-07
4.11362e-07
0.000136127
3.05729e-07
0.000108783
-3.55841e-07
5.24015e-07
1.82772e-07
0.000125443
-4.10567e-07
4.93893e-07
2.48166e-07
0.000155277
2.99349e-07
2.99351e-07
0.000175655
1.53966e-13
3.22832e-07
0.000185846
-2.99349e-07
3.22832e-07
0.000185846
-4.93893e-07
2.9935e-07
0.000175655
-5.24015e-07
2.48165e-07
0.000155277
1.82772e-07
0.000125443
-4.10568e-07
5.67996e-07
1.90796e-12
0.000134315
-4.40393e-07
5.35805e-07
2.06765e-12
0.000165117
3.22831e-07
1.82209e-12
0.000185846
8.01849e-14
1.59108e-12
0.000195828
-3.22831e-07
1.53301e-12
0.000195828
-5.35805e-07
1.6687e-12
0.000185846
-5.67996e-07
1.81188e-12
0.000165117
1.62068e-12
0.000134315
-4.40394e-07
5.67996e-07
-1.82769e-07
0.000134315
-4.40393e-07
5.35805e-07
-2.48162e-07
0.000165117
3.22831e-07
-2.99347e-07
0.000185846
2.55615e-14
-3.22829e-07
0.000195828
-3.22831e-07
-3.22829e-07
0.000195828
-5.35805e-07
-2.99347e-07
0.000185846
-5.67996e-07
-2.48162e-07
0.000165117
-1.82769e-07
0.000134315
-4.40394e-07
5.24015e-07
-3.05726e-07
0.000125443
-4.10567e-07
4.93893e-07
-4.11359e-07
0.000155277
2.99349e-07
-4.93891e-07
0.000175655
-1.17984e-14
-5.35803e-07
0.000185846
-2.99349e-07
-5.35803e-07
0.000185846
-4.93893e-07
-4.93891e-07
0.000175655
-5.24015e-07
-4.11359e-07
0.000155277
-3.05726e-07
0.000125443
-4.10568e-07
4.42554e-07
-3.3704e-07
0.000108783
-3.55839e-07
4.11361e-07
-4.42552e-07
0.000136127
2.48164e-07
-5.24013e-07
0.000155277
-5.98704e-14
-5.67994e-07
0.000165117
-2.48164e-07
-5.67994e-07
0.000165117
-4.11361e-07
-5.24013e-07
0.000155277
-4.42554e-07
-4.42553e-07
0.000136127
-3.37041e-07
0.000108783
-3.5584e-07
3.37042e-07
8.64326e-05
-2.8288e-07
-2.82879e-07
3.05727e-07
0.000108783
-3.55839e-07
1.8277e-07
0.000125443
-4.10566e-07
-7.68267e-14
0.000134315
-4.40393e-07
-1.8277e-07
0.000134315
-4.40393e-07
-3.05727e-07
0.000125443
-4.10567e-07
-3.37042e-07
0.000108783
-3.5584e-07
8.64326e-05
-2.8288e-07
-2.8288e-07
1.51348e-07
1.5135e-07
8.63735e-05
-1.21836e-07
-1.21836e-07
1.40339e-07
2.02145e-07
0.000108747
-1.55427e-07
8.45677e-08
2.41371e-07
0.000125439
-1.81513e-07
-1.3573e-13
2.62704e-07
0.000134333
-1.96085e-07
-8.4568e-08
2.62704e-07
0.000134333
-1.96085e-07
-1.4034e-07
2.41371e-07
0.000125439
-1.81513e-07
-1.51349e-07
2.02145e-07
0.000108747
-1.55427e-07
1.5135e-07
8.63735e-05
-1.21837e-07
-1.21836e-07
2.02143e-07
1.40341e-07
0.000108747
-1.55425e-07
1.91011e-07
1.91013e-07
0.00013615
1.15755e-07
2.30229e-07
0.000155363
-1.042e-13
2.50411e-07
0.000165245
-1.15755e-07
2.50411e-07
0.000165245
-1.91011e-07
2.30229e-07
0.000155363
-2.02144e-07
1.91013e-07
0.00013615
1.40341e-07
0.000108747
-1.55427e-07
2.41369e-07
8.45698e-08
0.000125439
-1.81511e-07
2.30227e-07
1.15757e-07
0.000155363
1.40054e-07
1.40056e-07
0.000175835
-9.80884e-14
1.51654e-07
0.000186085
-1.40054e-07
1.51654e-07
0.000186085
-2.30228e-07
1.40056e-07
0.000175835
-2.4137e-07
1.15757e-07
0.000155363
8.45699e-08
0.000125439
-1.81512e-07
2.62702e-07
1.73218e-12
0.000134333
-1.96083e-07
2.50409e-07
1.9841e-12
0.000165245
1.51653e-07
1.81784e-12
0.000186085
-8.98256e-14
1.64753e-12
0.000196131
-1.51653e-07
1.63704e-12
0.000196131
-2.50409e-07
1.82402e-12
0.000186085
-2.62702e-07
2.00911e-12
0.000165245
1.82986e-12
0.000134333
-1.96084e-07
2.62702e-07
-8.45664e-08
0.000134333
-1.96083e-07
2.50409e-07
-1.15754e-07
0.000165245
1.51653e-07
-1.40052e-07
0.000186085
-9.92539e-14
-1.51651e-07
0.000196131
-1.51653e-07
-1.51651e-07
0.000196131
-2.50409e-07
-1.40052e-07
0.000186085
-2.62702e-07
-1.15754e-07
0.000165245
-8.45663e-08
0.000134333
-1.96084e-07
2.41369e-07
-1.40338e-07
0.000125439
-1.81511e-07
2.30228e-07
-1.9101e-07
0.000155363
1.40054e-07
-2.30226e-07
0.000175835
-1.04558e-13
-2.50407e-07
0.000186085
-1.40054e-07
-2.50407e-07
0.000186085
-2.30228e-07
-2.30226e-07
0.000175835
-2.4137e-07
-1.9101e-07
0.000155363
-1.40338e-07
0.000125439
-1.81512e-07
2.02144e-07
-1.51347e-07
0.000108747
-1.55425e-07
1.91011e-07
-2.02142e-07
0.00013615
1.15755e-07
-2.41368e-07
0.000155363
-1.31539e-13
-2.62701e-07
0.000165245
-1.15756e-07
-2.62701e-07
0.000165245
-1.91011e-07
-2.41368e-07
0.000155363
-2.02144e-07
-2.02142e-07
0.00013615
-1.51348e-07
0.000108747
-1.55426e-07
1.51348e-07
8.63735e-05
-1.21836e-07
-1.21835e-07
1.4034e-07
0.000108747
-1.55425e-07
8.45679e-08
0.000125439
-1.81511e-07
-1.36946e-13
0.000134333
-1.96083e-07
-8.45682e-08
0.000134333
-1.96083e-07
-1.4034e-07
0.000125439
-1.81511e-07
-1.51348e-07
0.000108747
-1.55425e-07
8.63735e-05
-1.21836e-07
-1.21836e-07
7.90332e-08
7.90347e-08
8.63467e-05
-6.56224e-08
-6.56226e-08
7.18498e-08
1.04054e-07
0.000108733
-8.28796e-08
4.28783e-08
1.23074e-07
0.000125441
-9.59205e-08
7.33344e-13
1.3333e-07
0.000134345
-1.03102e-07
-4.28769e-08
1.3333e-07
0.000134345
-1.03102e-07
-7.18487e-08
1.23073e-07
0.000125441
-9.592e-08
-7.90325e-08
1.04053e-07
0.000108733
-8.28787e-08
7.90339e-08
8.63467e-05
-6.56223e-08
-6.56223e-08
1.04052e-07
7.18516e-08
0.000108733
-8.28781e-08
9.64211e-08
9.64234e-08
0.000136165
5.78785e-08
1.15182e-07
0.000155409
6.64369e-13
1.24754e-07
0.000165311
-5.78773e-08
1.24754e-07
0.000165311
-9.64202e-08
1.15181e-07
0.000155409
-1.04051e-07
9.64227e-08
0.000136165
7.18509e-08
0.000108733
-8.28788e-08
1.23072e-07
4.28802e-08
0.000125441
-9.59188e-08
1.15179e-07
5.78807e-08
0.000155409
6.9419e-08
6.9421e-08
0.000175927
4.87665e-13
7.49054e-08
0.000186204
-6.94181e-08
7.49053e-08
0.000186204
-1.15179e-07
6.94207e-08
0.000175927
-1.23072e-07
5.78801e-08
0.000155409
4.28796e-08
0.000125441
-9.59197e-08
1.33328e-07
2.48032e-12
0.000134345
-1.031e-07
1.24752e-07
2.67001e-12
0.000165311
7.49036e-08
2.35144e-12
0.000186204
3.47352e-13
2.04727e-12
0.000196281
-7.4903e-08
1.95529e-12
0.000196281
-1.24752e-07
2.08268e-12
0.000186204
-1.33328e-07
2.22719e-12
0.000165311
1.95965e-12
0.000134345
-1.03101e-07
1.33328e-07
-4.28754e-08
0.000134345
-1.031e-07
1.24752e-07
-5.78754e-08
0.000165311
7.49036e-08
-6.94164e-08
0.000186204
2.56826e-13
-7.49013e-08
0.000196281
-7.49031e-08
-7.49014e-08
0.000196281
-1.24752e-07
-6.94166e-08
0.000186204
-1.33328e-07
-5.78758e-08
0.000165311
-4.28757e-08
0.000134345
-1.03101e-07
1.23072e-07
-7.18472e-08
0.000125441
-9.59188e-08
1.15179e-07
-9.64185e-08
0.000155409
6.94189e-08
-1.15177e-07
0.000175927
2.03167e-13
-1.2475e-07
0.000186204
-6.94185e-08
-1.2475e-07
0.000186204
-1.15179e-07
-1.15177e-07
0.000175927
-1.23072e-07
-9.64187e-08
0.000155409
-7.18474e-08
0.000125441
-9.59197e-08
1.04051e-07
-7.90312e-08
0.000108733
-8.28777e-08
9.64209e-08
-1.0405e-07
0.000136165
5.78781e-08
-1.2307e-07
0.000155409
1.59894e-13
-1.33327e-07
0.000165311
-5.78779e-08
-1.33327e-07
0.000165311
-9.64207e-08
-1.2307e-07
0.000155409
-1.04051e-07
-1.0405e-07
0.000136165
-7.90313e-08
0.000108733
-8.28784e-08
7.90326e-08
8.63467e-05
-6.56214e-08
-6.5621e-08
7.18493e-08
0.000108733
-8.28772e-08
4.28778e-08
0.000125441
-9.59181e-08
1.08238e-13
0.000134345
-1.031e-07
-4.28776e-08
0.000134345
-1.031e-07
-7.18492e-08
0.000125441
-9.59184e-08
-7.90324e-08
0.000108733
-8.28776e-08
8.63467e-05
-6.56213e-08
-6.56217e-08
3.80807e-08
3.80825e-08
8.63326e-05
-3.10249e-08
-3.10246e-08
3.50233e-08
5.06168e-08
0.000108725
-3.94625e-08
2.1008e-08
6.01988e-08
0.000125441
-4.59522e-08
3.72907e-13
6.53711e-08
0.00013435
-4.95576e-08
-2.10072e-08
6.5371e-08
0.00013435
-4.95575e-08
-3.50228e-08
6.01984e-08
0.000125441
-4.59519e-08
-3.80805e-08
5.06163e-08
0.000108725
-3.94619e-08
3.80822e-08
8.63326e-05
-3.1025e-08
-3.10244e-08
5.06143e-08
3.50255e-08
0.000108725
-3.94606e-08
4.73936e-08
4.73963e-08
0.000136171
2.85616e-08
5.68267e-08
0.000155432
3.58846e-13
6.16253e-08
0.000165344
-2.8561e-08
6.16252e-08
0.000165344
-4.73933e-08
5.68265e-08
0.000155432
-5.06143e-08
4.7396e-08
0.000136171
3.50253e-08
0.000108725
-3.94613e-08
6.01962e-08
2.10101e-08
0.000125441
-4.59499e-08
5.68242e-08
2.8564e-08
0.000155432
3.43453e-08
3.43476e-08
0.000175971
2.46195e-13
3.7087e-08
0.000186263
-3.43449e-08
3.7087e-08
0.000186263
-5.6824e-08
3.43474e-08
0.000175971
-6.01962e-08
2.85638e-08
0.000155432
2.10099e-08
0.000125441
-4.59506e-08
6.53686e-08
2.18095e-12
0.00013435
-4.95552e-08
6.1623e-08
2.4485e-12
0.000165344
3.7085e-08
2.2135e-12
0.000186263
1.66836e-13
1.97454e-12
0.000196355
-3.70847e-08
1.92114e-12
0.000196355
-6.16228e-08
2.08355e-12
0.000186263
-6.53686e-08
2.24912e-12
0.000165344
2.01727e-12
0.00013435
-4.95558e-08
6.53687e-08
-2.10059e-08
0.00013435
-4.95553e-08
6.16231e-08
-2.85592e-08
0.000165344
3.7085e-08
-3.43432e-08
0.000186263
1.14076e-13
-3.70831e-08
0.000196355
-3.70848e-08
-3.70831e-08
0.000196355
-6.16229e-08
-3.43433e-08
0.000186263
-6.53687e-08
-2.85594e-08
0.000165344
-2.1006e-08
0.00013435
-4.95558e-08
6.01964e-08
-3.50216e-08
0.000125441
-4.59501e-08
5.68244e-08
-4.73918e-08
0.000155432
3.43453e-08
-5.68225e-08
0.000175971
9.18731e-14
-6.16214e-08
0.000186263
-3.43452e-08
-6.16214e-08
0.000186263
-5.68242e-08
-5.68226e-08
0.000175971
-6.01963e-08
-4.7392e-08
0.000155432
-3.50218e-08
0.000125441
-4.59504e-08
5.06144e-08
-3.80794e-08
0.000108725
-3.94605e-08
4.73938e-08
-5.06128e-08
0.000136171
2.85615e-08
-6.0195e-08
0.000155432
7.55717e-14
-6.53674e-08
0.000165344
-2.85614e-08
-6.53675e-08
0.000165344
-4.73937e-08
-6.01951e-08
0.000155432
-5.06143e-08
-5.06131e-08
0.000136171
-3.80796e-08
0.000108725
-3.94607e-08
3.80805e-08
8.63326e-05
-3.10237e-08
-3.10235e-08
3.50233e-08
0.000108725
-3.94599e-08
2.10079e-08
0.000125441
-4.59495e-08
3.7759e-14
0.00013435
-4.9555e-08
-2.10078e-08
0.00013435
-4.95551e-08
-3.50232e-08
0.000125441
-4.59498e-08
-3.80804e-08
0.000108725
-3.94603e-08
8.63326e-05
-3.10239e-08
-3.10238e-08
1.96298e-08
1.96315e-08
8.63257e-05
-1.61662e-08
-1.61663e-08
1.79432e-08
2.59695e-08
0.000108722
-2.04878e-08
1.07365e-08
3.08017e-08
0.000125441
-2.37792e-08
1.16208e-12
3.34042e-08
0.000134353
-2.5597e-08
-1.07343e-08
3.3404e-08
0.000134353
-2.55967e-08
-1.79414e-08
3.08008e-08
0.000125441
-2.37784e-08
-1.96285e-08
2.59681e-08
0.000108722
-2.04863e-08
1.96301e-08
8.63257e-05
-1.61656e-08
-1.61655e-08
2.59671e-08
1.79452e-08
0.000108722
-2.04859e-08
2.4187e-08
2.41895e-08
0.000136175
1.4548e-08
2.89468e-08
0.000155443
1.00606e-12
3.13606e-08
0.00016536
-1.45461e-08
3.13604e-08
0.00016536
-2.41855e-08
2.89461e-08
0.000155443
-2.59661e-08
2.41883e-08
0.000136175
1.79439e-08
0.000108722
-2.04862e-08
3.07992e-08
1.07384e-08
0.000125441
-2.37771e-08
2.89445e-08
1.45502e-08
0.000155443
1.74638e-08
1.74658e-08
0.000175994
7.00416e-13
1.88404e-08
0.000186293
-1.74624e-08
1.88402e-08
0.000186293
-2.89435e-08
1.74653e-08
0.000175994
-3.07987e-08
1.45493e-08
0.000155443
1.07373e-08
0.000125441
-2.37777e-08
3.3402e-08
2.82589e-12
0.000134353
-2.55949e-08
3.13586e-08
2.95854e-12
0.00016536
1.88385e-08
2.5381e-12
0.000186293
4.6946e-13
2.15176e-12
0.000196393
-1.88376e-08
2.00456e-12
0.000196393
-3.13579e-08
2.09995e-12
0.000186293
-3.34017e-08
2.20887e-12
0.00016536
1.92268e-12
0.000134353
-2.55957e-08
3.34019e-08
-1.07329e-08
0.000134353
-2.55949e-08
3.13585e-08
-1.45444e-08
0.00016536
1.88384e-08
-1.74608e-08
0.000186293
3.22991e-13
-1.8836e-08
0.000196393
-1.88378e-08
-1.88362e-08
0.000196393
-3.13581e-08
-1.74612e-08
0.000186293
-3.34018e-08
-1.4545e-08
0.00016536
-1.07335e-08
0.000134353
-2.55958e-08
3.0799e-08
-1.79401e-08
0.000125441
-2.37768e-08
2.89442e-08
-2.41839e-08
0.000155443
1.74634e-08
-2.89419e-08
0.000175994
2.39674e-13
-3.13564e-08
0.000186293
-1.7463e-08
-3.13564e-08
0.000186293
-2.8944e-08
-2.89422e-08
0.000175994
-3.0799e-08
-2.41844e-08
0.000155443
-1.79405e-08
0.000125441
-2.37778e-08
2.59664e-08
-1.96273e-08
0.000108722
-2.04851e-08
2.41865e-08
-2.59646e-08
0.000136175
1.45473e-08
-3.07972e-08
0.000155443
1.69007e-13
-3.34002e-08
0.00016536
-1.4547e-08
-3.34003e-08
0.00016536
-2.41863e-08
-3.07975e-08
0.000155443
-2.59664e-08
-2.5965e-08
0.000136175
-1.96275e-08
0.000108722
-2.04859e-08
1.96287e-08
8.63257e-05
-1.61647e-08
-1.61643e-08
1.79423e-08
0.000108722
-2.04846e-08
1.07356e-08
0.000125441
-2.37762e-08
1.02369e-13
0.000134353
-2.55942e-08
-1.07354e-08
0.000134353
-2.55943e-08
-1.79422e-08
0.000125441
-2.37764e-08
-1.96286e-08
0.000108722
-2.04851e-08
8.63257e-05
-1.61646e-08
-1.6165e-08
9.77393e-09
9.7752e-09
8.63221e-05
-7.98459e-09
-7.98428e-09
8.98177e-09
1.29825e-08
0.00010872
-1.01453e-08
5.38857e-09
1.54376e-08
0.000125441
-1.18029e-08
-5.55515e-14
1.67629e-08
0.000134355
-1.27219e-08
-5.38864e-09
1.67629e-08
0.000134355
-1.27219e-08
-8.98193e-09
1.54376e-08
0.000125441
-1.18029e-08
-9.77415e-09
1.29824e-08
0.00010872
-1.01452e-08
9.77526e-09
8.63221e-05
-7.98491e-09
-7.98443e-09
1.29807e-08
8.98362e-09
0.00010872
-1.01441e-08
1.21561e-08
1.21582e-08
0.000136177
7.33085e-09
1.45845e-08
0.000155449
-4.09877e-14
1.58186e-08
0.000165369
-7.33098e-09
1.58186e-08
0.000165369
-1.21563e-08
1.45845e-08
0.000155449
-1.29811e-08
1.21582e-08
0.000136177
8.98366e-09
0.00010872
-1.0145e-08
1.54357e-08
5.39046e-09
0.000125441
-1.18013e-08
1.45825e-08
7.33296e-09
0.000155449
8.82132e-09
8.82324e-09
0.000176006
-8.07938e-14
9.5282e-09
0.000186308
-8.82149e-09
9.52818e-09
0.000186308
-1.45828e-08
8.82318e-09
0.000176006
-1.54361e-08