/*--------------------------------*- C++ -*----------------------------------*\
| =========                 |                                                 |
| \\      /  F ield         | OpenFOAM: The Open Source CFD Toolbox           |
|  \\    /   O peration     | Version:  2406                                  |
|   \\  /    A nd           | Website:  www.openfoam.com                      |
|    \\/     M anipulation  |                                                 |
\*---------------------------------------------------------------------------*/
FoamFile
{
    version     2.0;
    format      ascii;
    arch        "LSB;label=32;scalar=64";
    class       volVectorField;
    location    "0.7";
    object      U;
}
// * * * * * * * * * * * * * * * * * * * * * * * * * * * * * * * * * * * * * //

dimensions      [0 1 -1 0 0 0 0];

internalField   nonuniform List<vector> 
16000
(
(0.153132 0.153132 1.11474)
(0.117573 0.168169 1.1542)
(0.072459 0.17688 1.17285)
(0.0244946 0.180953 1.18018)
(-0.0244946 0.180953 1.18018)
(-0.072459 0.17688 1.17285)
(-0.117573 0.168169 1.1542)
(-0.153132 0.153132 1.11474)
(0.168169 0.117573 1.1542)
(0.126109 0.126109 1.18728)
(0.0766337 0.131081 1.19757)
(0.0257137 0.133402 1.19978)
(-0.0257137 0.133402 1.19978)
(-0.0766337 0.131081 1.19757)
(-0.126109 0.126109 1.18728)
(-0.168169 0.117573 1.1542)
(0.17688 0.072459 1.17285)
(0.131081 0.0766337 1.19757)
(0.0792027 0.0792027 1.20176)
(0.0264749 0.0803911 1.20065)
(-0.0264749 0.0803911 1.20065)
(-0.0792027 0.0792027 1.20176)
(-0.131081 0.0766337 1.19757)
(-0.17688 0.072459 1.17285)
(0.180953 0.0244946 1.18018)
(0.133402 0.0257137 1.19978)
(0.0803911 0.0264749 1.20065)
(0.0268183 0.0268183 1.1979)
(-0.0268183 0.0268183 1.1979)
(-0.0803911 0.0264749 1.20065)
(-0.133402 0.0257137 1.19978)
(-0.180953 0.0244946 1.18018)
(0.180953 -0.0244946 1.18018)
(0.133402 -0.0257137 1.19978)
(0.0803911 -0.0264749 1.20065)
(0.0268183 -0.0268183 1.1979)
(-0.0268183 -0.0268183 1.1979)
(-0.0803911 -0.0264749 1.20065)
(-0.133402 -0.0257137 1.19978)
(-0.180953 -0.0244946 1.18018)
(0.17688 -0.072459 1.17285)
(0.131081 -0.0766337 1.19757)
(0.0792027 -0.0792027 1.20176)
(0.0264749 -0.0803911 1.20065)
(-0.0264749 -0.0803911 1.20065)
(-0.0792027 -0.0792027 1.20176)
(-0.131081 -0.0766337 1.19757)
(-0.17688 -0.072459 1.17285)
(0.168169 -0.117573 1.1542)
(0.126109 -0.126109 1.18728)
(0.0766337 -0.131081 1.19757)
(0.0257137 -0.133402 1.19978)
(-0.0257137 -0.133402 1.19978)
(-0.0766337 -0.131081 1.19757)
(-0.126109 -0.126109 1.18728)
(-0.168169 -0.117573 1.1542)
(0.153132 -0.153132 1.11474)
(0.117573 -0.168169 1.1542)
(0.072459 -0.17688 1.17285)
(0.0244946 -0.180953 1.18018)
(-0.0244946 -0.180953 1.18018)
(-0.072459 -0.17688 1.17285)
(-0.117573 -0.168169 1.1542)
(-0.153132 -0.153132 1.11474)
(0.0494154 0.0494154 1.29062)
(0.0414003 0.0615755 1.3895)
(0.0279271 0.0703803 1.44408)
(0.00984083 0.0751711 1.46809)
(-0.00984082 0.0751711 1.46809)
(-0.027927 0.0703803 1.44408)
(-0.0414002 0.0615755 1.3895)
(-0.0494154 0.0494154 1.29062)
(0.0615755 0.0414003 1.3895)
(0.0531611 0.0531611 1.48728)
(0.0357288 0.0616406 1.53241)
(0.0125458 0.0660227 1.54992)
(-0.0125458 0.0660227 1.54992)
(-0.0357288 0.0616406 1.53241)
(-0.0531611 0.0531611 1.48728)
(-0.0615755 0.0414003 1.3895)
(0.0703803 0.0279271 1.44408)
(0.0616406 0.0357288 1.53241)
(0.0413007 0.0413007 1.57006)
(0.0144349 0.0441146 1.5832)
(-0.0144349 0.0441146 1.5832)
(-0.0413007 0.0413007 1.57006)
(-0.0616406 0.0357288 1.53241)
(-0.0703803 0.0279271 1.44408)
(0.0751711 0.00984083 1.46809)
(0.0660227 0.0125458 1.54992)
(0.0441146 0.0144349 1.5832)
(0.0153734 0.0153734 1.59386)
(-0.0153734 0.0153734 1.59386)
(-0.0441146 0.0144349 1.5832)
(-0.0660227 0.0125458 1.54992)
(-0.075171 0.00984083 1.46809)
(0.0751711 -0.00984082 1.46809)
(0.0660227 -0.0125458 1.54992)
(0.0441146 -0.0144348 1.5832)
(0.0153734 -0.0153734 1.59386)
(-0.0153734 -0.0153734 1.59386)
(-0.0441146 -0.0144348 1.5832)
(-0.0660227 -0.0125458 1.54992)
(-0.075171 -0.00984082 1.46809)
(0.0703803 -0.027927 1.44408)
(0.0616406 -0.0357288 1.53241)
(0.0413007 -0.0413006 1.57006)
(0.0144349 -0.0441146 1.5832)
(-0.0144349 -0.0441146 1.5832)
(-0.0413007 -0.0413006 1.57006)
(-0.0616406 -0.0357288 1.53241)
(-0.0703803 -0.027927 1.44408)
(0.0615755 -0.0414002 1.3895)
(0.0531611 -0.0531611 1.48728)
(0.0357288 -0.0616406 1.53241)
(0.0125458 -0.0660227 1.54992)
(-0.0125458 -0.0660227 1.54992)
(-0.0357288 -0.0616406 1.53241)
(-0.0531611 -0.0531611 1.48728)
(-0.0615755 -0.0414002 1.3895)
(0.0494154 -0.0494154 1.29062)
(0.0414003 -0.0615755 1.3895)
(0.0279271 -0.0703802 1.44408)
(0.00984083 -0.075171 1.46809)
(-0.00984082 -0.075171 1.46809)
(-0.027927 -0.0703803 1.44408)
(-0.0414002 -0.0615755 1.3895)
(-0.0494154 -0.0494154 1.29062)
(0.0295334 0.0295334 1.18369)
(0.0263057 0.0381217 1.33605)
(0.0179588 0.0440247 1.43119)
(0.00638115 0.0472238 1.47636)
(-0.00638111 0.0472238 1.47636)
(-0.0179588 0.0440247 1.43119)
(-0.0263056 0.0381218 1.33605)
(-0.0295334 0.0295334 1.18369)
(0.0381217 0.0263057 1.33605)
(0.03387 0.03387 1.50686)
(0.0231033 0.0393329 1.60045)
(0.0081989 0.0422271 1.64149)
(-0.00819887 0.0422271 1.64149)
(-0.0231033 0.039333 1.60045)
(-0.03387 0.03387 1.50686)
(-0.0381217 0.0263057 1.33605)
(0.0440247 0.0179588 1.43119)
(0.0393329 0.0231033 1.60045)
(0.0268026 0.0268026 1.68906)
(0.00948466 0.028713 1.72654)
(-0.00948463 0.028713 1.72654)
(-0.0268025 0.0268026 1.68906)
(-0.0393329 0.0231033 1.60045)
(-0.0440247 0.0179588 1.43119)
(0.0472238 0.00638115 1.47636)
(0.0422271 0.00819891 1.64149)
(0.028713 0.00948466 1.72654)
(0.0101528 0.0101528 1.76219)
(-0.0101528 0.0101528 1.76219)
(-0.0287129 0.00948466 1.72654)
(-0.042227 0.00819891 1.64149)
(-0.0472238 0.00638115 1.47636)
(0.0472238 -0.00638111 1.47636)
(0.0422271 -0.00819887 1.64149)
(0.028713 -0.00948463 1.72654)
(0.0101528 -0.0101528 1.76219)
(-0.0101528 -0.0101528 1.76219)
(-0.0287129 -0.00948463 1.72654)
(-0.042227 -0.00819887 1.64149)
(-0.0472238 -0.00638112 1.47636)
(0.0440247 -0.0179588 1.43119)
(0.0393329 -0.0231033 1.60045)
(0.0268026 -0.0268025 1.68906)
(0.00948466 -0.0287129 1.72654)
(-0.00948463 -0.0287129 1.72654)
(-0.0268025 -0.0268025 1.68906)
(-0.0393329 -0.0231033 1.60045)
(-0.0440247 -0.0179588 1.43119)
(0.0381218 -0.0263056 1.33605)
(0.03387 -0.03387 1.50686)
(0.0231033 -0.0393329 1.60045)
(0.0081989 -0.042227 1.64149)
(-0.00819887 -0.042227 1.64149)
(-0.0231033 -0.0393329 1.60045)
(-0.03387 -0.03387 1.50686)
(-0.0381217 -0.0263056 1.33605)
(0.0295334 -0.0295334 1.18369)
(0.0263057 -0.0381217 1.33605)
(0.0179588 -0.0440247 1.43119)
(0.00638115 -0.0472237 1.47636)
(-0.00638112 -0.0472237 1.47636)
(-0.0179588 -0.0440247 1.43119)
(-0.0263056 -0.0381217 1.33605)
(-0.0295334 -0.0295334 1.18369)
(0.00607789 0.00607789 1.17735)
(0.00678723 0.00932594 1.34012)
(0.00531538 0.0121436 1.44756)
(0.00200438 0.0137879 1.50053)
(-0.00200431 0.0137879 1.50053)
(-0.00531531 0.0121436 1.44756)
(-0.00678717 0.00932596 1.34012)
(-0.00607785 0.00607791 1.17735)
(0.00932594 0.00678723 1.34012)
(0.010642 0.010642 1.53329)
(0.00825243 0.0137676 1.64786)
(0.0030828 0.0154575 1.70082)
(-0.00308273 0.0154575 1.70082)
(-0.00825236 0.0137676 1.64786)
(-0.0106419 0.010642 1.53329)
(-0.0093259 0.00678725 1.34012)
(0.0121436 0.00531538 1.44756)
(0.0137676 0.00825243 1.64786)
(0.0104758 0.0104758 1.76219)
(0.00386314 0.0115575 1.81303)
(-0.00386307 0.0115575 1.81303)
(-0.0104758 0.0104758 1.76219)
(-0.0137676 0.00825243 1.64786)
(-0.0121435 0.00531539 1.44756)
(0.0137879 0.00200438 1.50053)
(0.0154575 0.0030828 1.70082)
(0.0115575 0.00386314 1.81303)
(0.00421157 0.00421157 1.8613)
(-0.0042115 0.00421157 1.8613)
(-0.0115575 0.00386314 1.81303)
(-0.0154574 0.0030828 1.70082)
(-0.0137878 0.00200438 1.50053)
(0.0137879 -0.00200431 1.50053)
(0.0154575 -0.00308273 1.70082)
(0.0115575 -0.00386307 1.81303)
(0.00421157 -0.0042115 1.8613)
(-0.0042115 -0.0042115 1.8613)
(-0.0115575 -0.00386307 1.81303)
(-0.0154575 -0.00308273 1.70082)
(-0.0137878 -0.00200431 1.50053)
(0.0121436 -0.00531531 1.44756)
(0.0137676 -0.00825236 1.64786)
(0.0104758 -0.0104758 1.76219)
(0.00386314 -0.0115575 1.81303)
(-0.00386307 -0.0115575 1.81303)
(-0.0104758 -0.0104758 1.76219)
(-0.0137676 -0.00825237 1.64786)
(-0.0121436 -0.00531532 1.44756)
(0.00932596 -0.00678717 1.34012)
(0.010642 -0.0106419 1.53329)
(0.00825243 -0.0137676 1.64786)
(0.0030828 -0.0154574 1.70082)
(-0.00308273 -0.0154575 1.70082)
(-0.00825237 -0.0137676 1.64786)
(-0.0106419 -0.0106419 1.53329)
(-0.00932591 -0.00678719 1.34012)
(0.00607791 -0.00607785 1.17735)
(0.00678724 -0.0093259 1.34012)
(0.00531539 -0.0121435 1.44756)
(0.00200438 -0.0137878 1.50053)
(-0.00200431 -0.0137878 1.50053)
(-0.00531532 -0.0121436 1.44756)
(-0.00678719 -0.00932591 1.34012)
(-0.00607787 -0.00607787 1.17735)
(0.00420932 0.00420931 1.15879)
(0.00417763 0.0057371 1.32761)
(0.00305288 0.00697197 1.44156)
(0.00112177 0.00767955 1.4987)
(-0.0011216 0.00767956 1.4987)
(-0.00305272 0.00697199 1.44156)
(-0.0041775 0.00573713 1.32761)
(-0.00420922 0.00420935 1.15879)
(0.0057371 0.00417763 1.32761)
(0.00582716 0.00582715 1.53244)
(0.00432313 0.00720713 1.65824)
(0.00159293 0.00796357 1.71788)
(-0.00159276 0.00796357 1.71788)
(-0.00432297 0.00720714 1.65824)
(-0.00582702 0.00582718 1.53244)
(-0.00573701 0.00417766 1.32761)
(0.00697197 0.00305288 1.44156)
(0.00720713 0.00432312 1.65824)
(0.00533729 0.00533729 1.7871)
(0.0019496 0.00580518 1.84585)
(-0.00194943 0.00580518 1.84585)
(-0.00533714 0.0053373 1.7871)
(-0.007207 0.00432314 1.65824)
(-0.00697188 0.0030529 1.44156)
(0.00767955 0.00112177 1.4987)
(0.00796357 0.00159293 1.71788)
(0.00580518 0.00194959 1.84585)
(0.00208336 0.00208336 1.90127)
(-0.0020832 0.00208336 1.90127)
(-0.00580503 0.0019496 1.84585)
(-0.00796344 0.00159293 1.71788)
(-0.00767946 0.00112178 1.4987)
(0.00767956 -0.00112161 1.4987)
(0.00796357 -0.00159277 1.71788)
(0.00580518 -0.00194944 1.84585)
(0.00208336 -0.00208321 1.90127)
(-0.0020832 -0.00208321 1.90127)
(-0.00580503 -0.00194944 1.84585)
(-0.00796345 -0.00159277 1.71788)
(-0.00767947 -0.00112161 1.4987)
(0.00697199 -0.00305272 1.44156)
(0.00720715 -0.00432297 1.65824)
(0.0053373 -0.00533714 1.7871)
(0.0019496 -0.00580503 1.84585)
(-0.00194944 -0.00580503 1.84585)
(-0.00533715 -0.00533715 1.7871)
(-0.00720702 -0.00432299 1.65824)
(-0.0069719 -0.00305275 1.44156)
(0.00573713 -0.0041775 1.32761)
(0.00582718 -0.00582702 1.53244)
(0.00432314 -0.007207 1.65824)
(0.00159294 -0.00796344 1.71788)
(-0.00159277 -0.00796345 1.71788)
(-0.00432299 -0.00720702 1.65824)
(-0.00582705 -0.00582705 1.53244)
(-0.00573704 -0.00417753 1.32761)
(0.00420935 -0.00420922 1.15879)
(0.00417766 -0.005737 1.32761)
(0.0030529 -0.00697187 1.44156)
(0.00112178 -0.00767946 1.4987)
(-0.00112161 -0.00767947 1.4987)
(-0.00305274 -0.0069719 1.44156)
(-0.00417753 -0.00573704 1.32761)
(-0.00420925 -0.00420926 1.15879)
(0.0013018 0.0013018 1.15562)
(0.00140475 0.00190351 1.3259)
(0.0010927 0.00244359 1.44189)
(0.000413134 0.0027664 1.50046)
(-0.000412785 0.00276641 1.50046)
(-0.00109238 0.00244364 1.44189)
(-0.00140448 0.00190358 1.3259)
(-0.0013016 0.00130188 1.15563)
(0.00190352 0.00140475 1.3259)
(0.0021454 0.0021454 1.53424)
(0.00168734 0.00280367 1.66415)
(0.000637193 0.00317711 1.72646)
(-0.000636846 0.00317712 1.72646)
(-0.00168702 0.0028037 1.66415)
(-0.00214513 0.00214546 1.53424)
(-0.00190332 0.00140482 1.3259)
(0.00244359 0.0010927 1.44189)
(0.00280367 0.00168734 1.66415)
(0.00219053 0.00219052 1.7989)
(0.000817137 0.00243574 1.86114)
(-0.000816799 0.00243575 1.86114)
(-0.00219021 0.00219055 1.7989)
(-0.0028034 0.00168737 1.66415)
(-0.0024434 0.00109274 1.44189)
(0.0027664 0.000413127 1.50046)
(0.00317712 0.000637187 1.72646)
(0.00243575 0.000817131 1.86114)
(0.000886656 0.00088665 1.91993)
(-0.000886326 0.000886653 1.91993)
(-0.00243544 0.000817138 1.86114)
(-0.00317685 0.000637199 1.72646)
(-0.00276621 0.000413142 1.50046)
(0.00276642 -0.000412791 1.50046)
(0.00317713 -0.000636852 1.72646)
(0.00243575 -0.000816805 1.86114)
(0.000886658 -0.000886332 1.91993)
(-0.000886329 -0.000886335 1.91993)
(-0.00243544 -0.000816813 1.86114)
(-0.00317686 -0.000636865 1.72646)
(-0.00276622 -0.000412808 1.50046)
(0.00244364 -0.00109238 1.44189)
(0.00280371 -0.00168702 1.66415)
(0.00219055 -0.00219022 1.7989)
(0.000817144 -0.00243544 1.86114)
(-0.000816807 -0.00243545 1.86114)
(-0.00219024 -0.00219024 1.7989)
(-0.00280344 -0.00168706 1.66415)
(-0.00244344 -0.00109243 1.44189)
(0.00190359 -0.00140448 1.3259)
(0.00214546 -0.00214513 1.53424)
(0.00168738 -0.00280341 1.66415)
(0.000637205 -0.00317685 1.72646)
(-0.000636859 -0.00317687 1.72646)
(-0.00168705 -0.00280344 1.66415)
(-0.00214518 -0.00214519 1.53424)
(-0.00190338 -0.00140455 1.3259)
(0.00130188 -0.0013016 1.15563)
(0.00140482 -0.00190331 1.3259)
(0.00109275 -0.0024434 1.44189)
(0.000413148 -0.00276621 1.50046)
(-0.000412801 -0.00276622 1.50046)
(-0.00109242 -0.00244344 1.44189)
(-0.00140454 -0.00190339 1.3259)
(-0.00130167 -0.00130168 1.15563)
(0.000792334 0.000792322 1.15296)
(0.000788564 0.00108169 1.32433)
(0.000581679 0.00132248 1.44146)
(0.000215056 0.00146402 1.50077)
(-0.000214353 0.00146405 1.50077)
(-0.000581027 0.00132257 1.44146)
(-0.000788008 0.00108183 1.32433)
(-0.000791922 0.00079248 1.15296)
(0.0010817 0.000788551 1.32433)
(0.00110864 0.00110863 1.53467)
(0.000833751 0.00139026 1.66657)
(0.000309874 0.00155309 1.73013)
(-0.000309173 0.00155312 1.73013)
(-0.000833098 0.00139034 1.66657)
(-0.00110808 0.00110874 1.53467)
(-0.00108128 0.000788691 1.32433)
(0.00132249 0.000581665 1.44146)
(0.00139027 0.000833739 1.66657)
(0.00105235 0.00105234 1.80409)
(0.000388893 0.00116402 1.86797)
(-0.000388209 0.00116403 1.86797)
(-0.00105171 0.00105238 1.80409)
(-0.00138973 0.000833811 1.66657)
(-0.00132209 0.000581756 1.44146)
(0.00146403 0.000215042 1.50077)
(0.0015531 0.000309862 1.73013)
(0.00116403 0.000388881 1.86797)
(0.000420704 0.000420692 1.92846)
(-0.000420036 0.000420697 1.92846)
(-0.0011634 0.000388895 1.86797)
(-0.00155257 0.000309884 1.73013)
(-0.00146364 0.000215072 1.50077)
(0.00146406 -0.000214365 1.50077)
(0.00155313 -0.000309184 1.73013)
(0.00116404 -0.000388221 1.86797)
(0.000420709 -0.000420048 1.92846)
(-0.000420042 -0.000420054 1.92846)
(-0.00116341 -0.000388238 1.86797)
(-0.00155259 -0.000309212 1.73013)
(-0.00146367 -0.000214401 1.50077)
(0.00132258 -0.000581036 1.44146)
(0.00139035 -0.000833107 1.66657)
(0.00105239 -0.00105172 1.80409)
(0.000388907 -0.00116341 1.86797)
(-0.000388225 -0.00116343 1.86797)
(-0.00105176 -0.00105177 1.80409)
(-0.00138981 -0.000833185 1.66657)
(-0.00132218 -0.000581133 1.44146)
(0.00108183 -0.000788013 1.32433)
(0.00110875 -0.00110809 1.53467)
(0.000833821 -0.00138974 1.66657)
(0.000309896 -0.00155258 1.73013)
(-0.000309199 -0.0015526 1.73013)
(-0.000833172 -0.00138982 1.66657)
(-0.00110819 -0.00110821 1.53467)
(-0.00108142 -0.000788159 1.32433)
(0.000792483 -0.000791924 1.15296)
(0.000788697 -0.00108128 1.32433)
(0.000581766 -0.00132209 1.44146)
(0.000215084 -0.00146364 1.50077)
(-0.000214387 -0.00146367 1.50077)
(-0.000581119 -0.00132219 1.44146)
(-0.000788145 -0.00108143 1.32433)
(-0.000792073 -0.000792087 1.15296)
(0.000340992 0.000340965 1.1521)
(0.000348274 0.000479922 1.32392)
(0.00026141 0.000598496 1.44154)
(9.76355e-05 0.000668584 1.50116)
(-9.62716e-05 0.000668649 1.50116)
(-0.000260145 0.000598679 1.44154)
(-0.000347197 0.000480198 1.32392)
(-0.000340194 0.000341269 1.1521)
(0.000479943 0.000348244 1.32392)
(0.000505912 0.000505887 1.53512)
(0.000384747 0.000643285 1.66789)
(0.000143799 0.000722549 1.732)
(-0.000142429 0.0007226 1.732)
(-0.000383472 0.000643434 1.6679)
(-0.000504826 0.000506116 1.53513)
(-0.000479135 0.000348517 1.32392)
(0.000598511 0.000261379 1.44154)
(0.000643306 0.000384721 1.66789)
(0.000490246 0.000490223 1.80663)
(0.000181856 0.000544917 1.87124)
(-0.000180516 0.000544947 1.87124)
(-0.000488995 0.000490313 1.80663)
(-0.000642243 0.000384865 1.6679)
(-0.00059773 0.000261558 1.44154)
(0.000668595 9.76064e-05 1.50116)
(0.000722566 0.000143773 1.732)
(0.000544939 0.000181832 1.87124)
(0.000197625 0.000197602 1.93251)
(-0.000196315 0.000197612 1.93251)
(-0.000543708 0.000181861 1.87124)
(-0.000721521 0.00014382 1.732)
(-0.000667829 9.76663e-05 1.50117)
(0.000668656 -9.62977e-05 1.50116)
(0.000722615 -0.000142452 1.732)
(0.000544967 -0.000180538 1.87124)
(0.000197635 -0.000196337 1.93251)
(-0.000196326 -0.000196349 1.93251)
(-0.000543738 -0.000180571 1.87124)
(-0.00072157 -0.000142505 1.732)
(-0.000667891 -9.63648e-05 1.50117)
(0.000598685 -0.000260167 1.44154)
(0.000643448 -0.000383492 1.6679)
(0.000490333 -0.000489015 1.80663)
(0.000181883 -0.000543729 1.87124)
(-0.000180547 -0.00054376 1.87124)
(-0.000489086 -0.000489109 1.80663)
(-0.000642388 -0.000383642 1.6679)
(-0.000597904 -0.000260352 1.44154)
(0.000480203 -0.000347212 1.32392)
(0.000506129 -0.00050484 1.53513)
(0.000384884 -0.000642258 1.6679)
(0.000143843 -0.000721536 1.732)
(-0.00014248 -0.000721589 1.732)
(-0.000383616 -0.000642409 1.6679)
(-0.000505048 -0.000505073 1.53513)
(-0.000479396 -0.000347489 1.32392)
(0.000341275 -0.000340202 1.1521)
(0.000348529 -0.00047914 1.32392)
(0.000261577 -0.000597737 1.44154)
(9.76897e-05 -0.000667838 1.50117)
(-9.63382e-05 -0.000667903 1.50117)
(-0.000260324 -0.000597921 1.44154)
(-0.000347462 -0.000479417 1.32392)
(-0.000340484 -0.000340508 1.1521)
(0.000183863 0.000183809 1.15155)
(0.000183402 0.000253462 1.32362)
(0.000135518 0.000311425 1.44151)
(5.07975e-05 0.000345447 1.5013)
(-4.82643e-05 0.000345564 1.5013)
(-0.000133173 0.000311754 1.44151)
(-0.000181408 0.000253954 1.32363)
(-0.000182391 0.000184343 1.15155)
(0.000253508 0.000183338 1.32362)
(0.000259779 0.000259724 1.5353)
(0.000194619 0.000325597 1.66851)
(7.28384e-05 0.000363493 1.73288)
(-7.02554e-05 0.000363588 1.73288)
(-0.000192219 0.000325871 1.66852)
(-0.000257739 0.000260141 1.5353)
(-0.000251993 0.000183827 1.32363)
(0.000311461 0.000135452 1.44151)
(0.000325643 0.000194561 1.66851)
(0.000244802 0.000244752 1.80784)
(9.08625e-05 0.000270684 1.87281)
(-8.8318e-05 0.000270741 1.87281)
(-0.00024243 0.000244922 1.80785)
(-0.000323629 0.000194828 1.66852)
(-0.000309982 0.000135778 1.44151)
(0.000345474 5.07335e-05 1.5013)
(0.000363531 7.27814e-05 1.73288)
(0.000270728 9.08121e-05 1.87281)
(9.82548e-05 9.82092e-05 1.93446)
(-9.57609e-05 9.82294e-05 1.93446)
(-0.000268388 9.08679e-05 1.87281)
(-0.000361543 7.28702e-05 1.73289)
(-0.000344019 5.08464e-05 1.5013)
(0.000345583 -4.83224e-05 1.5013)
(0.000363619 -7.03082e-05 1.73288)
(0.00027078 -8.83658e-05 1.87281)
(9.82724e-05 -9.58056e-05 1.93446)
(-9.5783e-05 -9.5827e-05 1.93446)
(-0.000268445 -8.84252e-05 1.87281)
(-0.000361636 -7.04021e-05 1.73289)
(-0.000344131 -4.84386e-05 1.5013)
(0.000311768 -0.000133222 1.44151)
(0.000325898 -0.000192264 1.66851)
(0.000244959 -0.000242472 1.80785)
(9.09103e-05 -0.000268428 1.87281)
(-8.83802e-05 -0.000268486 1.87281)
(-0.0002426 -0.000242644 1.80785)
(-0.000323897 -0.000192534 1.66852)
(-0.000310298 -0.000133549 1.44151)
(0.000253964 -0.000181445 1.32363)
(0.000260165 -0.000257773 1.5353)
(0.000194862 -0.000323662 1.66852)
(7.29124e-05 -0.000361576 1.73289)
(-7.03557e-05 -0.000361671 1.73289)
(-0.000192487 -0.000323936 1.66852)
(-0.000258146 -0.00025819 1.5353)
(-0.000252465 -0.000181933 1.32363)
(0.000184353 -0.000182415 1.15155)
(0.000183848 -0.000252012 1.32363)
(0.00013581 -0.00031 1.44151)
(5.08873e-05 -0.000344039 1.5013)
(-4.83918e-05 -0.000344156 1.5013)
(-0.0001335 -0.000310328 1.44151)
(-0.000181886 -0.000252501 1.32363)
(-0.000182906 -0.000182946 1.15156)
(8.76307e-05 8.75438e-05 1.15131)
(8.90456e-05 0.000122194 1.32351)
(6.69793e-05 0.000151474 1.44151)
(2.62309e-05 0.000168776 1.50139)
(-2.1868e-05 0.000168969 1.50139)
(-6.295e-05 0.000152013 1.44152)
(-8.56343e-05 0.000122988 1.32351)
(-8.51229e-05 8.83856e-05 1.15132)
(0.000122273 8.89387e-05 1.32351)
(0.00012776 0.000127661 1.5354)
(9.70142e-05 0.000161072 1.66884)
(3.74765e-05 0.000180278 1.73334)
(-3.2916e-05 0.000180438 1.73334)
(-9.27859e-05 0.000161531 1.66884)
(-0.000124179 0.000128352 1.53541)
(-0.000119624 8.97304e-05 1.32352)
(0.000151539 6.68646e-05 1.44151)
(0.000161157 9.69071e-05 1.66884)
(0.000122341 0.000122247 1.80847)
(4.65485e-05 0.000135298 1.8736)
(-4.19876e-05 0.000135396 1.8736)
(-0.000118096 0.000122539 1.80847)
(-0.000157564 9.73585e-05 1.66885)
(-0.000148904 6.74044e-05 1.44152)
(0.000168826 2.61167e-05 1.50139)
(0.000180348 3.7369e-05 1.73334)
(0.000135379 4.64524e-05 1.8736)
(5.02375e-05 5.01524e-05 1.93544)
(-4.57374e-05 5.01891e-05 1.93544)
(-0.000131162 4.65533e-05 1.8736)
(-0.000176774 3.75278e-05 1.73335)
(-0.000166212 2.63141e-05 1.50139)
(0.000169004 -2.19741e-05 1.50139)
(0.000180494 -3.30172e-05 1.73334)
(0.000135466 -4.20798e-05 1.8736)
(5.02655e-05 -4.58212e-05 1.93544)
(-4.57774e-05 -4.58554e-05 1.93544)
(-0.000131261 -4.21737e-05 1.87361)
(-0.000176931 -3.3163e-05 1.73335)
(-0.000166398 -2.21491e-05 1.5014)
(0.000152036 -6.30419e-05 1.44152)
(0.000161575 -9.28749e-05 1.66884)
(0.000122599 -0.000118178 1.80847)
(4.66233e-05 -0.000131239 1.8736)
(-4.20995e-05 -0.000131334 1.87361)
(-0.000118389 -0.000118461 1.80847)
(-0.000158014 -9.33109e-05 1.66885)
(-0.000149427 -6.3557e-05 1.44153)
(0.000123003 -8.57082e-05 1.32351)
(0.000128386 -0.000124251 1.53541)
(9.74092e-05 -0.00015763 1.66884)
(3.75906e-05 -0.000176838 1.73335)
(-3.30936e-05 -0.000176994 1.73335)
(-9.32415e-05 -0.000158078 1.66885)
(-0.000124859 -0.000124922 1.53542)
(-0.000120395 -8.64727e-05 1.32352)
(8.83958e-05 -8.51749e-05 1.15132)
(8.97539e-05 -0.000119672 1.32351)
(6.74428e-05 -0.00014895 1.44152)
(2.63655e-05 -0.000166257 1.50139)
(-2.20896e-05 -0.000166444 1.5014)
(-6.34959e-05 -0.000149475 1.44153)
(-8.64166e-05 -0.000120443 1.32352)
(-8.59462e-05 -8.59896e-05 1.15133)
(4.65967e-05 4.65256e-05 1.15118)
(4.74768e-05 6.42429e-05 1.32343)
(3.63379e-05 7.91309e-05 1.44151)
(1.56804e-05 8.79984e-05 1.50142)
(-8.85053e-06 8.82738e-05 1.50142)
(-3.00481e-05 7.98964e-05 1.44151)
(-4.21788e-05 6.53503e-05 1.32344)
(-4.27231e-05 4.76621e-05 1.15119)
(6.43232e-05 4.73754e-05 1.32343)
(6.71567e-05 6.70437e-05 1.53545)
(5.16774e-05 8.40073e-05 1.66899)
(2.1572e-05 9.38296e-05 1.73356)
(-1.41859e-05 9.40668e-05 1.73357)
(-4.48486e-05 8.46827e-05 1.669)
(-6.14032e-05 6.80393e-05 1.53546)
(-6.00908e-05 4.84827e-05 1.32345)
(7.92077e-05 3.62178e-05 1.44151)
(8.41153e-05 5.15452e-05 1.66899)
(6.45728e-05 6.44466e-05 1.80877)
(2.62383e-05 7.11199e-05 1.87399)
(-1.86918e-05 7.12706e-05 1.874)
(-5.75643e-05 6.48876e-05 1.80878)
(-7.82083e-05 5.22148e-05 1.669)
(-7.48947e-05 3.69942e-05 1.44152)
(8.80634e-05 1.55521e-05 1.50142)
(9.39219e-05 2.14325e-05 1.73356)
(7.12298e-05 2.61051e-05 1.87399)
(2.81136e-05 2.79962e-05 1.93592)
(-2.05942e-05 2.80551e-05 1.93593)
(-6.41971e-05 2.62661e-05 1.874)
(-8.79826e-05 2.16809e-05 1.73358)
(-8.37334e-05 1.58519e-05 1.50143)
(8.8322e-05 -8.97662e-06 1.50142)
(9.41383e-05 -1.43224e-05 1.73357)
(7.13594e-05 -1.88225e-05 1.874)
(2.81527e-05 -2.07105e-05 1.93593)
(-2.06601e-05 -2.07585e-05 1.93593)
(-6.43527e-05 -1.89518e-05 1.874)
(-8.82228e-05 -1.45193e-05 1.73358)
(-8.40114e-05 -9.2041e-06 1.50144)
(7.99266e-05 -3.01645e-05 1.44151)
(8.4731e-05 -4.49737e-05 1.669)
(6.4952e-05 -5.76838e-05 1.80878)
(2.63406e-05 -6.43042e-05 1.874)
(-1.88751e-05 -6.44436e-05 1.874)
(-5.80217e-05 -5.80918e-05 1.80879)
(-7.88954e-05 -4.55898e-05 1.66901)
(-7.56712e-05 -3.08683e-05 1.44153)
(6.53614e-05 -4.22815e-05 1.32344)
(6.80619e-05 -6.15107e-05 1.53546)
(5.22499e-05 -7.83092e-05 1.669)
(2.17252e-05 -8.80716e-05 1.73358)
(-1.44724e-05 -8.82967e-05 1.73358)
(-4.55488e-05 -7.89495e-05 1.66901)
(-6.24243e-05 -6.24509e-05 1.53547)
(-6.12207e-05 -4.33193e-05 1.32346)
(4.76564e-05 -4.28063e-05 1.15119)
(4.84762e-05 -6.01733e-05 1.32345)
(3.69922e-05 -7.49697e-05 1.44152)
(1.58553e-05 -8.37966e-05 1.50143)
(-9.19902e-06 -8.40599e-05 1.50144)
(-3.08677e-05 -7.57014e-05 1.44153)
(-4.33286e-05 -6.12273e-05 1.32346)
(-4.39023e-05 -4.38826e-05 1.1512)
(2.43062e-05 2.44108e-05 1.15111)
(2.55377e-05 3.35608e-05 1.32339)
(2.06717e-05 4.13237e-05 1.4415)
(1.08104e-05 4.60543e-05 1.50143)
(-1.26359e-06 4.6392e-05 1.50144)
(-1.19111e-05 4.22529e-05 1.44151)
(-1.82076e-05 3.48705e-05 1.32341)
(-1.89812e-05 2.56917e-05 1.15113)
(3.35013e-05 2.56283e-05 1.32339)
(3.5939e-05 3.59707e-05 1.53546)
(2.89661e-05 4.48971e-05 1.66907)
(1.42999e-05 5.01489e-05 1.73367)
(-3.53263e-06 5.0452e-05 1.73368)
(-1.90459e-05 4.57507e-05 1.66908)
(-2.76354e-05 3.71989e-05 1.53548)
(-2.74368e-05 2.69395e-05 1.32342)
(4.13023e-05 2.07351e-05 1.4415)
(4.49013e-05 2.89682e-05 1.66907)
(3.58679e-05 3.58401e-05 1.80892)
(1.69429e-05 3.94478e-05 1.87419)
(-5.64317e-06 3.96472e-05 1.8742)
(-2.54041e-05 3.64165e-05 1.80894)
(-3.61286e-05 2.98233e-05 1.66909)
(-3.49321e-05 2.1688e-05 1.44152)
(4.60516e-05 1.08449e-05 1.50143)
(5.01614e-05 1.42774e-05 1.73367)
(3.94744e-05 1.68981e-05 1.87419)
(1.80017e-05 1.79662e-05 1.93617)
(-6.59939e-06 1.80491e-05 1.93618)
(-2.88356e-05 1.71221e-05 1.87421)
(-4.12162e-05 1.46159e-05 1.7337)
(-3.95587e-05 1.12383e-05 1.50146)
(4.63902e-05 -1.25643e-06 1.50144)
(5.045e-05 -3.57322e-06 1.73368)
(3.96476e-05 -5.69762e-06 1.8742)
(1.80509e-05 -6.63782e-06 1.93618)
(-6.69645e-06 -6.69448e-06 1.93618)
(-2.9055e-05 -5.84569e-06 1.87421)
(-4.15465e-05 -3.79251e-06 1.7337)
(-3.99301e-05 -1.49614e-06 1.50146)
(4.22368e-05 -1.1931e-05 1.44151)
(4.57164e-05 -1.91012e-05 1.66908)
(3.6371e-05 -2.54631e-05 1.80894)
(1.70684e-05 -2.8871e-05 1.87421)
(-5.91e-06 -2.90441e-05 1.87421)
(-2.60429e-05 -2.59635e-05 1.80895)
(-3.70657e-05 -1.98378e-05 1.6691)
(-3.59618e-05 -1.27343e-05 1.44154)
(3.48264e-05 -1.82559e-05 1.32341)
(3.71172e-05 -2.77052e-05 1.53548)
(2.97138e-05 -3.61913e-05 1.66909)
(1.44855e-05 -4.12465e-05 1.7337)
(-3.94189e-06 -4.15235e-05 1.7337)
(-2.00072e-05 -3.69695e-05 1.6691)
(-2.90049e-05 -2.88181e-05 1.5355)
(-2.89102e-05 -1.94281e-05 1.32343)
(2.5616e-05 -1.9052e-05 1.15113)
(2.68023e-05 -2.75174e-05 1.32342)
(2.15025e-05 -3.4997e-05 1.44152)
(1.10159e-05 -3.95849e-05 1.50146)
(-1.74683e-06 -3.98987e-05 1.50146)
(-1.30055e-05 -3.5858e-05 1.44154)
(-1.97078e-05 -2.87233e-05 1.32343)
(-2.04726e-05 -2.02172e-05 1.15115)
(1.39472e-05 1.45242e-05 1.15106)
(1.52556e-05 1.95294e-05 1.32336)
(1.34144e-05 2.37487e-05 1.44149)
(8.87422e-06 2.63927e-05 1.50143)
(2.92895e-06 2.67303e-05 1.50144)
(-2.62974e-06 2.46607e-05 1.44151)
(-6.2999e-06 2.07648e-05 1.32339)
(-7.48604e-06 1.563e-05 1.1511)
(1.90357e-05 1.59055e-05 1.32336)
(2.11437e-05 2.16774e-05 1.53546)
(1.83707e-05 2.66038e-05 1.6691)
(1.14383e-05 2.95646e-05 1.73373)
(2.55145e-06 2.98858e-05 1.73373)
(-5.53379e-06 2.74929e-05 1.66912)
(-1.04782e-05 2.29128e-05 1.5355)
(-1.13095e-05 1.71399e-05 1.3234)
(2.3371e-05 1.40527e-05 1.44149)
(2.61828e-05 1.88876e-05 1.6691)
(2.24004e-05 2.28203e-05 1.80899)
(1.32576e-05 2.4926e-05 1.87429)
(1.88633e-06 2.51469e-05 1.8743)
(-8.42397e-06 2.34473e-05 1.80902)
(-1.45366e-05 1.97889e-05 1.66913)
(-1.49719e-05 1.49991e-05 1.44153)
(2.61067e-05 9.45388e-06 1.50143)
(2.92152e-05 1.19068e-05 1.73373)
(2.45499e-05 1.36519e-05 1.87429)
(1.39958e-05 1.43738e-05 1.9363)
(1.5104e-06 1.44725e-05 1.9363)
(-1.01218e-05 1.39128e-05 1.87431)
(-1.71472e-05 1.22903e-05 1.73376)
(-1.7399e-05 9.87722e-06 1.50148)
(2.65015e-05 3.41362e-06 1.50144)
(2.95597e-05 2.94925e-06 1.73373)
(2.47575e-05 2.2382e-06 1.8743)
(1.40516e-05 1.87394e-06 1.9363)
(1.38296e-06 1.81921e-06 1.93631)
(-1.03982e-05 2.10335e-06 1.87432)
(-1.75532e-05 2.75749e-06 1.73377)
(-1.78414e-05 3.22362e-06 1.50148)
(2.44496e-05 -2.26944e-06 1.44151)
(2.7146e-05 -5.23014e-06 1.66912)
(2.29971e-05 -8.13278e-06 1.80902)
(1.33942e-05 -9.78621e-06 1.87431)
(1.54152e-06 -9.96403e-06 1.87432)
(-9.21909e-06 -8.63657e-06 1.80904)
(-1.5676e-05 -5.94484e-06 1.66915)
(-1.61869e-05 -2.99221e-06 1.44155)
(2.05327e-05 -6.08411e-06 1.32339)
(2.25091e-05 -1.02918e-05 1.5355)
(1.92425e-05 -1.43323e-05 1.66913)
(1.16377e-05 -1.6868e-05 1.73376)
(2.0331e-06 -1.71485e-05 1.73377)
(-6.70762e-06 -1.51054e-05 1.66915)
(-1.21107e-05 -1.13543e-05 1.53553)
(-1.30121e-05 -7.118e-06 1.32343)
(1.53604e-05 -7.41312e-06 1.1511)
(1.66684e-05 -1.12481e-05 1.3234)
(1.43502e-05 -1.4872e-05 1.44153)
(9.0874e-06 -1.72051e-05 1.50148)
(2.3378e-06 -1.75082e-05 1.50148)
(-3.92137e-06 -1.56864e-05 1.44155)
(-8.02651e-06 -1.23398e-05 1.32343)
(-9.13735e-06 -8.36156e-06 1.15113)
(8.48455e-06 9.87969e-06 1.15103)
(9.82443e-06 1.29177e-05 1.32334)
(9.55792e-06 1.5412e-05 1.44147)
(7.7646e-06 1.69936e-05 1.50143)
(4.96823e-06 1.72428e-05 1.50144)
(2.01512e-06 1.60586e-05 1.4415)
(-3.02347e-07 1.37153e-05 1.32338)
(-1.66706e-06 1.04204e-05 1.15108)
(1.15912e-05 1.14977e-05 1.32334)
(1.36269e-05 1.51822e-05 1.53546)
(1.30887e-05 1.82236e-05 1.66911)
(1.01656e-05 2.00613e-05 1.73374)
(5.86692e-06 2.03242e-05 1.73375)
(1.55317e-06 1.89304e-05 1.66914)
(-1.56666e-06 1.60988e-05 1.5355)
(-2.93393e-06 1.22821e-05 1.32339)
(1.42814e-05 1.12973e-05 1.44147)
(1.68566e-05 1.47071e-05 1.66911)
(1.5882e-05 1.73427e-05 1.80903)
(1.18107e-05 1.87622e-05 1.87434)
(6.18645e-06 1.89556e-05 1.87435)
(6.63475e-07 1.78782e-05 1.80906)
(-3.16743e-06 1.5435e-05 1.66915)
(-4.48415e-06 1.19755e-05 1.44153)
(1.6056e-05 9.42776e-06 1.50143)
(1.88573e-05 1.17263e-05 1.73375)
(1.74105e-05 1.32579e-05 1.87434)
(1.251e-05 1.39048e-05 1.93636)
(6.23248e-06 1.40006e-05 1.93637)
(-2.54403e-08 1.35031e-05 1.87437)
(-4.40502e-06 1.20716e-05 1.73379)
(-5.69728e-06 9.77771e-06 1.50149)
(1.646e-05 6.43227e-06 1.50144)
(1.92218e-05 7.26954e-06 1.73376)
(1.76326e-05 7.53452e-06 1.87435)
(1.25678e-05 7.59202e-06 1.93637)
(6.08602e-06 7.55334e-06 1.93637)
(-3.31636e-07 7.45152e-06 1.87438)
(-4.84294e-06 7.16431e-06 1.7338)
(-6.15624e-06 6.35948e-06 1.5015)
(1.5369e-05 3.1833e-06 1.4415)
(1.78638e-05 2.70629e-06 1.66914)
(1.65141e-05 1.82928e-06 1.80906)
(1.19466e-05 1.22762e-06 1.87437)
(5.79701e-06 1.08927e-06 1.87438)
(-2.07488e-07 1.44969e-06 1.80909)
(-4.38189e-06 2.20811e-06 1.66918)