/*--------------------------------*- C++ -*----------------------------------*\
| =========                 |                                                 |
| \\      /  F ield         | OpenFOAM: The Open Source CFD Toolbox           |
|  \\    /   O peration     | Version:  2406                                  |
|   \\  /    A nd           | Website:  www.openfoam.com                      |
|    \\/     M anipulation  |                                                 |
\*---------------------------------------------------------------------------*/
FoamFile
{
    version     2.0;
    format      ascii;
    arch        "LSB;label=32;scalar=64";
    class       volScalarField;
    location    "1.8";
    object      div(phi);
}
// * * * * * * * * * * * * * * * * * * * * * * * * * * * * * * * * * * * * * //

dimensions      [0 0 -1 0 0 0 0];

internalField   nonuniform List<scalar> 
25000
(
1.03389e-07
9.08214e-08
9.02042e-08
8.62213e-08
8.16955e-08
7.91612e-08
7.60859e-08
7.44952e-08
7.6943e-08
6.30532e-08
8.67048e-08
7.38345e-08
7.19412e-08
7.03878e-08
6.74588e-08
6.27927e-08
6.24438e-08
6.20772e-08
5.80013e-08
4.76017e-08
7.78271e-08
6.68359e-08
6.83995e-08
6.70991e-08
6.33528e-08
6.10953e-08
5.84984e-08
5.73727e-08
5.72589e-08
4.55793e-08
7.18047e-08
6.19611e-08
6.26495e-08
6.26659e-08
6.01532e-08
5.6214e-08
5.59956e-08
5.60386e-08
5.3899e-08
4.44476e-08
6.64483e-08
5.63468e-08
5.89198e-08
5.88382e-08
5.62458e-08
5.44863e-08
5.35088e-08
5.33715e-08
5.27026e-08
4.31641e-08
6.2795e-08
5.33093e-08
5.45227e-08
5.51654e-08
5.36196e-08
5.12293e-08
5.12196e-08
5.17421e-08
5.11569e-08
4.13773e-08
5.93647e-08
4.92774e-08
5.11048e-08
5.16367e-08
4.94353e-08
4.83917e-08
4.95732e-08
4.95846e-08
4.86298e-08
4.04238e-08
5.60962e-08
4.64191e-08
4.75107e-08
4.71039e-08
4.59487e-08
4.68987e-08
4.57532e-08
4.76611e-08
4.83205e-08
3.83426e-08
5.19431e-08
4.24722e-08
4.24484e-08
4.253e-08
4.28088e-08
4.12995e-08
4.40883e-08
4.50071e-08
4.42009e-08
3.59764e-08
4.28995e-08
3.34462e-08
3.3984e-08
3.41802e-08
3.37207e-08
3.49113e-08
3.53619e-08
3.57173e-08
3.57322e-08
2.76407e-08
2.64018e-08
2.72041e-08
2.79457e-08
3.19853e-08
3.55673e-08
3.70796e-08
4.12963e-08
4.5718e-08
4.31065e-08
4.16188e-08
2.65501e-08
2.20762e-08
2.65292e-08
2.73061e-08
2.79945e-08
3.25845e-08
3.22455e-08
3.38181e-08
4.0869e-08
3.32632e-08
3.41745e-08
2.99119e-08
2.80562e-08
3.16349e-08
3.34803e-08
3.16436e-08
3.56972e-08
3.96374e-08
3.69589e-08
3.59899e-08
3.78822e-08
3.0187e-08
3.4962e-08
3.5363e-08
3.51576e-08
3.78088e-08
3.73885e-08
3.77689e-08
4.23774e-08
3.58959e-08
4.26032e-08
3.58443e-08
3.56751e-08
3.82432e-08
3.88891e-08
3.73716e-08
3.92468e-08
4.18362e-08
4.04481e-08
3.69626e-08
4.45065e-08
3.55997e-08
3.84812e-08
3.89888e-08
3.88455e-08
3.92668e-08
3.96605e-08
4.03095e-08
4.21779e-08
3.67447e-08
4.68554e-08
3.70805e-08
3.72086e-08
3.88244e-08
3.78034e-08
3.75545e-08
3.87034e-08
3.99683e-08
4.10052e-08
3.57004e-08
4.59796e-08
3.66134e-08
3.6707e-08
3.64749e-08
3.62222e-08
3.67026e-08
3.66892e-08
3.88258e-08
4.00287e-08
3.50409e-08
4.53318e-08
3.39609e-08
3.48364e-08
3.44593e-08
3.44856e-08
3.39457e-08
3.50558e-08
3.6483e-08
3.75738e-08
3.0323e-08
3.69311e-08
2.91047e-08
2.94277e-08
2.96238e-08
2.93091e-08
2.963e-08
2.99097e-08
3.07561e-08
2.94301e-08
2.39663e-08
3.64558e-08
3.35048e-08
3.36532e-08
3.4452e-08
3.54281e-08
3.60033e-08
3.85881e-08
4.12215e-08
4.08274e-08
3.73699e-08
3.30727e-08
2.59117e-08
2.75046e-08
2.66319e-08
2.66667e-08
2.85491e-08
2.90164e-08
3.08967e-08
3.57484e-08
2.95405e-08
3.40444e-08
2.83234e-08
2.66314e-08
2.74674e-08
2.77188e-08
2.64049e-08
2.94502e-08
3.33157e-08
3.26109e-08
3.1438e-08
3.45517e-08
2.70935e-08
2.85441e-08
2.79118e-08
2.71845e-08
2.89359e-08
2.92724e-08
3.08617e-08
3.65648e-08
3.10527e-08
3.65542e-08
2.95358e-08
2.81653e-08
2.9093e-08
2.91086e-08
2.7821e-08
3.03343e-08
3.41697e-08
3.40697e-08
3.25994e-08
3.76068e-08
2.95999e-08
3.04981e-08
2.9881e-08
2.91879e-08
3.03131e-08
3.11469e-08
3.26795e-08
3.76552e-08
3.22713e-08
4.01991e-08
3.18921e-08
3.08704e-08
3.1033e-08
3.03139e-08
2.97976e-08
3.19656e-08
3.54302e-08
3.61012e-08
3.27605e-08
4.06716e-08
3.25485e-08
3.21547e-08
3.13056e-08
3.04847e-08
3.16866e-08
3.2676e-08
3.45375e-08
3.82316e-08
3.20476e-08
3.99088e-08
3.14024e-08
3.13304e-08
3.08127e-08
3.07285e-08
3.05406e-08
3.20037e-08
3.49388e-08
3.51526e-08
2.89142e-08
3.26642e-08
2.60245e-08
2.63951e-08
2.6399e-08
2.6204e-08
2.67759e-08
2.75431e-08
2.81526e-08
2.73687e-08
2.18099e-08
4.19311e-08
3.89302e-08
3.60355e-08
3.87113e-08
3.78226e-08
3.44833e-08
3.67696e-08
4.05259e-08
3.38143e-08
3.60605e-08
3.7942e-08
2.86628e-08
3.33619e-08
2.86256e-08
2.59137e-08
3.0103e-08
2.62929e-08
2.69891e-08
3.84794e-08
2.91029e-08
4.64002e-08
3.78583e-08
2.9228e-08
3.12517e-08
3.037e-08
2.47362e-08
3.08133e-08
3.65275e-08
3.10522e-08
3.43927e-08
4.42967e-08
3.26021e-08
3.71759e-08
3.15427e-08
2.8178e-08
3.19686e-08
3.00451e-08
3.13415e-08
4.20705e-08
3.3715e-08
5.06098e-08
4.05634e-08
3.31462e-08
3.34309e-08
3.16882e-08
2.7466e-08
3.29388e-08
3.88529e-08
3.62807e-08
3.7086e-08
5.00353e-08
3.73341e-08
3.94042e-08
3.47964e-08
3.12288e-08
3.38533e-08
3.37458e-08
3.56133e-08
4.35652e-08
3.64534e-08
5.50534e-08
4.36626e-08
3.91087e-08
3.78176e-08
3.61037e-08
3.31624e-08
3.64165e-08
4.11466e-08
4.04147e-08
3.73116e-08
5.51714e-08
4.34472e-08
4.24559e-08
3.97473e-08
3.68348e-08
3.74562e-08
3.82295e-08
3.88929e-08
4.40426e-08
3.66008e-08
5.44914e-08
4.23786e-08
4.07238e-08
3.86779e-08
3.66607e-08
3.61924e-08
3.60481e-08
4.05001e-08
3.97677e-08
3.25298e-08
4.42702e-08
3.36981e-08
3.28346e-08
3.12582e-08
3.05125e-08
3.00652e-08
3.13239e-08
3.18324e-08
3.08313e-08
2.51201e-08
7.98126e-09
1.02467e-08
1.20162e-08
1.7155e-08
2.10074e-08
2.3568e-08
3.0566e-08
3.66304e-08
3.41378e-08
3.45827e-08
1.27352e-08
9.9037e-09
1.82815e-08
1.59617e-08
1.9639e-08
2.40811e-08
2.48786e-08
2.75085e-08
3.85668e-08
2.9395e-08
2.24783e-08
2.19275e-08
1.97465e-08
2.35677e-08
2.54883e-08
2.34614e-08
3.06397e-08
3.77587e-08
3.38804e-08
3.53227e-08
2.79988e-08
2.33404e-08
2.81786e-08
2.70924e-08
2.61538e-08
3.14811e-08
3.23392e-08
3.46122e-08
4.55504e-08
3.57522e-08
3.59675e-08
3.21522e-08
2.93159e-08
3.10439e-08
3.09071e-08
2.87553e-08
3.63193e-08
4.35482e-08
4.06287e-08
4.02937e-08
4.00898e-08
3.3438e-08
3.69667e-08
3.54046e-08
3.23504e-08
3.74069e-08
3.86003e-08
4.0891e-08
5.01446e-08
3.9883e-08
4.71907e-08
4.18581e-08
4.13068e-08
4.0412e-08
4.15468e-08
3.80854e-08
4.32188e-08
4.92153e-08
4.60849e-08
4.26808e-08
5.23357e-08
4.48579e-08
4.63439e-08
4.60457e-08
4.2977e-08
4.51375e-08
4.66336e-08
4.5571e-08
5.3432e-08
4.14022e-08
5.27955e-08
4.73836e-08
4.59785e-08
4.62364e-08
4.39225e-08
4.45235e-08
4.35066e-08
5.03888e-08
4.70445e-08
3.91605e-08
4.57103e-08
3.7083e-08
3.84935e-08
3.69992e-08
3.71741e-08
3.632e-08
3.81036e-08
3.73452e-08
3.65566e-08
2.85347e-08
9.28591e-08
8.6255e-08
7.90406e-08
8.34332e-08
7.79228e-08
6.73801e-08
6.83457e-08
7.1233e-08
5.54124e-08
5.86103e-08
8.26445e-08
6.43132e-08
7.47905e-08
6.02213e-08
5.31491e-08
5.74759e-08
4.63271e-08
4.54914e-08
6.63995e-08
4.71251e-08
9.61143e-08
8.11735e-08
6.13395e-08
6.42601e-08
5.9309e-08
4.49176e-08
5.53453e-08
6.33432e-08
5.06235e-08
5.69481e-08
8.83828e-08
6.6407e-08
7.59331e-08
6.1925e-08
5.25234e-08
5.82742e-08
5.18953e-08
5.27714e-08
7.2037e-08
5.50061e-08
9.78973e-08
8.12585e-08
6.47726e-08
6.36407e-08
5.70945e-08
4.67249e-08
5.77958e-08
6.71392e-08
5.92056e-08
6.17932e-08
9.49108e-08
7.20213e-08
7.67853e-08
6.57451e-08
5.53171e-08
6.07922e-08
5.79855e-08
5.9806e-08
7.47161e-08
5.97499e-08
1.03093e-07
8.52484e-08
7.64786e-08
7.16745e-08
6.86488e-08
5.86516e-08
6.4502e-08
7.24598e-08
6.6498e-08
6.29504e-08
1.04214e-07
8.42723e-08
8.31781e-08
7.75678e-08
6.88698e-08
6.87576e-08
6.88693e-08
6.55323e-08
7.72747e-08
6.14049e-08
1.02292e-07
8.44759e-08
7.88664e-08
7.48821e-08
6.77177e-08
6.67392e-08
6.23835e-08
7.30696e-08
6.7861e-08
5.68613e-08
8.46278e-08
6.45351e-08
6.2952e-08
5.76339e-08
5.59333e-08
5.2789e-08
5.56383e-08
5.5006e-08
5.39381e-08
4.40278e-08
3.49272e-08
4.10853e-08
4.52108e-08
5.42981e-08
5.66533e-08
5.58733e-08
6.35706e-08
6.70739e-08
5.91064e-08
5.6207e-08
3.48264e-08
3.0963e-08
4.79561e-08
3.95641e-08
4.56117e-08
4.9189e-08
4.718e-08
4.96054e-08
6.665e-08
4.79585e-08
5.17015e-08
4.99036e-08
4.36127e-08
5.07335e-08
5.11331e-08
4.49089e-08
5.61014e-08
6.53604e-08
5.63724e-08
5.80622e-08
5.79864e-08
4.88955e-08
5.84562e-08
5.36573e-08
5.02119e-08
5.80029e-08
5.64897e-08
5.90976e-08
7.70406e-08
5.8023e-08
7.40391e-08
6.54926e-08
5.75806e-08
6.00179e-08
5.74612e-08
5.09943e-08
6.43239e-08
7.46911e-08
6.63931e-08
6.64632e-08
7.99713e-08
6.60075e-08
7.27474e-08
6.78615e-08
5.93056e-08
6.85282e-08
6.6677e-08
6.89664e-08
8.49965e-08
6.46019e-08
9.46472e-08
8.38278e-08
8.14897e-08
7.72614e-08
7.95279e-08
6.79864e-08
7.67371e-08
8.58817e-08
7.50696e-08
7.12211e-08
1.05215e-07
8.96625e-08
9.19829e-08
9.02061e-08
8.06056e-08
8.28769e-08
8.35056e-08
7.62897e-08
9.25651e-08
6.81705e-08
1.06912e-07
9.7485e-08
9.08241e-08
9.01214e-08
8.16108e-08
8.19892e-08
7.51093e-08
8.97499e-08
7.8723e-08
6.71797e-08
9.39264e-08
7.36889e-08
7.53738e-08
6.93496e-08
6.87343e-08
6.39337e-08
6.70373e-08
6.31675e-08
6.20394e-08
4.85966e-08
1.94949e-07
1.84215e-07
1.75984e-07
1.80422e-07
1.67432e-07
1.46103e-07
1.42596e-07
1.38924e-07
1.13681e-07
1.07286e-07
1.7294e-07
1.40142e-07
1.55175e-07
1.28975e-07
1.17076e-07
1.16545e-07
9.79301e-08
9.47226e-08
1.2181e-07
8.66222e-08
1.85868e-07
1.57586e-07
1.27538e-07
1.29656e-07
1.17475e-07
9.35158e-08
1.06395e-07
1.15722e-07
9.67545e-08
9.96355e-08
1.69545e-07
1.30848e-07
1.43278e-07
1.19787e-07
1.02505e-07
1.07736e-07
9.73967e-08
9.86102e-08
1.25489e-07
9.57615e-08
1.81086e-07
1.49041e-07
1.2311e-07
1.18906e-07
1.05044e-07
8.77371e-08
1.04599e-07
1.17633e-07
1.0482e-07
1.05181e-07
1.74967e-07
1.34113e-07
1.40024e-07
1.21158e-07
1.01612e-07
1.09129e-07
1.0317e-07
1.05751e-07
1.28112e-07
1.0059e-07
1.88769e-07
1.54733e-07
1.4094e-07
1.30401e-07
1.24811e-07
1.0518e-07
1.14464e-07
1.2602e-07
1.13158e-07
1.06746e-07
1.92043e-07
1.54663e-07
1.51954e-07
1.41834e-07
1.24264e-07
1.23021e-07
1.21757e-07
1.13096e-07
1.34214e-07
1.03068e-07
1.89514e-07
1.57201e-07
1.44546e-07
1.37209e-07
1.22316e-07
1.19845e-07
1.0989e-07
1.2925e-07
1.166e-07
9.87705e-08
1.5961e-07
1.19813e-07
1.16789e-07
1.05495e-07
1.01677e-07
9.42411e-08
9.86618e-08
9.53868e-08
9.37958e-08
7.56019e-08
1.09467e-07
1.24018e-07
1.33395e-07
1.47379e-07
1.48857e-07
1.43755e-07
1.52458e-07
1.51453e-07
1.38129e-07
1.19427e-07
1.05465e-07
9.84252e-08
1.24257e-07
1.09715e-07
1.16524e-07
1.17789e-07
1.13226e-07
1.16391e-07
1.38653e-07
1.01177e-07
1.24289e-07
1.19748e-07
1.10353e-07
1.19892e-07
1.1635e-07
1.0489e-07
1.20638e-07
1.32846e-07
1.20659e-07
1.1405e-07
1.27691e-07
1.10883e-07
1.26165e-07
1.16713e-07
1.08386e-07
1.17222e-07
1.15272e-07
1.20959e-07
1.46554e-07
1.1226e-07
1.44906e-07
1.30146e-07
1.18973e-07
1.21154e-07
1.13075e-07
1.02567e-07
1.2408e-07
1.40015e-07
1.28346e-07
1.23292e-07
1.50115e-07
1.26991e-07
1.38784e-07
1.29793e-07
1.14557e-07
1.27399e-07
1.25105e-07
1.30063e-07
1.5525e-07
1.18395e-07
1.69107e-07
1.51799e-07
1.49876e-07
1.43484e-07
1.45245e-07
1.26288e-07
1.41211e-07
1.56213e-07
1.37873e-07
1.29753e-07
1.84134e-07
1.59423e-07
1.65019e-07
1.62591e-07
1.46378e-07
1.51101e-07
1.52027e-07
1.40748e-07
1.69744e-07
1.2424e-07
1.84902e-07
1.70233e-07
1.61481e-07
1.60928e-07
1.48666e-07
1.49039e-07
1.3992e-07
1.66229e-07
1.46753e-07
1.25895e-07
1.6434e-07
1.31486e-07
1.352e-07
1.26398e-07
1.25645e-07
1.19119e-07
1.25674e-07
1.19579e-07
1.18813e-07
9.24638e-08
3.24413e-07
3.12782e-07
3.06535e-07
3.09937e-07
2.9245e-07
2.63941e-07
2.58785e-07
2.49673e-07
2.20552e-07
1.90325e-07
2.84768e-07
2.39576e-07
2.56559e-07
2.25249e-07
2.09482e-07
2.05649e-07
1.84647e-07
1.82399e-07
2.12285e-07
1.54564e-07
2.89798e-07
2.49184e-07
2.1615e-07
2.17342e-07
1.99239e-07
1.7004e-07
1.86542e-07
1.98192e-07
1.78538e-07
1.674e-07
2.62836e-07
2.10583e-07
2.2558e-07
1.96578e-07
1.72939e-07
1.77484e-07
1.68374e-07
1.7411e-07
2.07038e-07
1.60515e-07
2.68451e-07
2.24694e-07
1.95951e-07
1.89459e-07
1.68248e-07
1.4824e-07
1.73375e-07
1.92296e-07
1.786e-07
1.70305e-07
2.57366e-07
2.03768e-07
2.13078e-07
1.88665e-07
1.63805e-07
1.72928e-07
1.69514e-07
1.76077e-07
2.07054e-07
1.61676e-07
2.70863e-07
2.26655e-07
2.12024e-07
2.01758e-07
1.92636e-07
1.6982e-07
1.85854e-07
2.03476e-07
1.85089e-07
1.72085e-07
2.73568e-07
2.25745e-07
2.25898e-07
2.14813e-07
1.93231e-07
1.9659e-07
1.95816e-07
1.87058e-07
2.19896e-07
1.65886e-07
2.6873e-07
2.2631e-07
2.15517e-07
2.07032e-07
1.9379e-07
1.89646e-07
1.84148e-07
2.12957e-07
1.94436e-07
1.64945e-07
2.28592e-07
1.77715e-07
1.75851e-07
1.65035e-07
1.60614e-07
1.5534e-07
1.63218e-07
1.59457e-07
1.59002e-07
1.25275e-07
2.80057e-07
2.78102e-07
2.85658e-07
2.88825e-07
2.84737e-07
2.73212e-07
2.78105e-07
2.71208e-07
2.57685e-07
2.07286e-07
2.60665e-07
2.25956e-07
2.38774e-07
2.2155e-07
2.19622e-07
2.14946e-07
2.10381e-07
2.14198e-07
2.3212e-07
1.72541e-07
2.64785e-07
2.28647e-07
2.17088e-07
2.17524e-07
2.04959e-07
1.90117e-07
2.0521e-07
2.17368e-07
2.0891e-07
1.80822e-07
2.56619e-07
2.10805e-07
2.16948e-07
2.00788e-07
1.83876e-07
1.87389e-07
1.89426e-07
2.0007e-07
2.24833e-07
1.75999e-07
2.61746e-07
2.16195e-07
2.01406e-07
1.9465e-07
1.76082e-07
1.65357e-07
1.91338e-07
2.11005e-07
2.03003e-07
1.83407e-07
2.59428e-07
2.0868e-07
2.14147e-07
1.96443e-07
1.76791e-07
1.85595e-07
1.89558e-07
1.99147e-07
2.26693e-07
1.74871e-07
2.73363e-07
2.27087e-07
2.19197e-07
2.12281e-07
2.044e-07
1.88129e-07
2.07093e-07
2.25114e-07
2.06289e-07
1.87356e-07
2.79837e-07
2.31294e-07
2.33152e-07
2.25985e-07
2.08281e-07
2.16616e-07
2.17402e-07
2.11058e-07
2.44495e-07
1.7973e-07
2.75695e-07
2.32538e-07
2.25684e-07
2.1994e-07
2.12991e-07
2.0881e-07
2.09984e-07
2.38275e-07
2.17431e-07
1.83344e-07
2.36909e-07
1.86432e-07
1.87387e-07
1.80781e-07
1.77338e-07
1.75699e-07
1.83193e-07
1.77993e-07
1.77051e-07
1.3563e-07
4.42033e-07
4.25044e-07
4.24973e-07
4.19715e-07
4.06367e-07
3.83958e-07
3.80657e-07
3.72999e-07
3.54731e-07
2.86003e-07
4.05206e-07
3.4582e-07
3.43963e-07
3.23331e-07
3.027e-07
2.97395e-07
2.86759e-07
2.89975e-07
3.0831e-07
2.32679e-07
3.93864e-07
3.31978e-07
3.09008e-07
3.0019e-07
2.78329e-07
2.56227e-07
2.7101e-07
2.83331e-07
2.77324e-07
2.35413e-07
3.67507e-07
2.94952e-07
2.96042e-07
2.69022e-07
2.42309e-07
2.40542e-07
2.44016e-07
2.58777e-07
2.82269e-07
2.2671e-07
3.55717e-07
2.8778e-07
2.65579e-07
2.50238e-07
2.21476e-07
2.10133e-07
2.37213e-07
2.59074e-07
2.58573e-07
2.27417e-07
3.4244e-07
2.68539e-07
2.68477e-07
2.40823e-07
2.18752e-07
2.20101e-07
2.31118e-07
2.46272e-07
2.71247e-07
2.16701e-07
3.44397e-07
2.75246e-07
2.59569e-07
2.53917e-07
2.33727e-07
2.25095e-07
2.44277e-07
2.6228e-07
2.53391e-07
2.23423e-07
3.3536e-07
2.70282e-07
2.66932e-07
2.54582e-07
2.39586e-07
2.48546e-07
2.49335e-07
2.54676e-07
2.82505e-07
2.15284e-07
3.2403e-07
2.54353e-07
2.54597e-07
2.43147e-07
2.44138e-07
2.35335e-07
2.48967e-07
2.71117e-07
2.58529e-07
2.13508e-07
2.68083e-07
2.11555e-07
2.0907e-07
2.07481e-07
2.01471e-07
2.06152e-07
2.12714e-07
2.12005e-07
2.09873e-07
1.60668e-07
4.79555e-07
4.56753e-07
4.61876e-07
4.44503e-07
4.38995e-07
4.36699e-07
4.3832e-07
4.34066e-07
4.43465e-07
3.36615e-07
4.44174e-07
3.84674e-07
3.62039e-07
3.59613e-07
3.44489e-07
3.34638e-07
3.46853e-07
3.58656e-07
3.49482e-07
2.74587e-07
4.12171e-07
3.45885e-07
3.4807e-07
3.27947e-07
3.07355e-07
3.04755e-07
3.10105e-07
3.1901e-07
3.37311e-07
2.61171e-07
3.98398e-07
3.26751e-07
3.07818e-07
2.94486e-07
2.71474e-07
2.59376e-07
2.81487e-07
3.04341e-07
3.04769e-07
2.53779e-07
3.66025e-07
2.92421e-07
2.9022e-07
2.65881e-07
2.35166e-07
2.39519e-07
2.60039e-07
2.79125e-07
2.9747e-07
2.42217e-07
3.5802e-07
2.8495e-07
2.71984e-07
2.5168e-07
2.36422e-07
2.27494e-07
2.54145e-07
2.7636e-07
2.85457e-07
2.32753e-07
3.41552e-07
2.6916e-07
2.6207e-07
2.59622e-07
2.33767e-07
2.42358e-07
2.60312e-07
2.74096e-07
2.78848e-07
2.34189e-07
3.27658e-07
2.62001e-07
2.58342e-07
2.48757e-07
2.43829e-07
2.55634e-07
2.59389e-07
2.78425e-07
2.94549e-07
2.25258e-07
3.05592e-07
2.36921e-07
2.45352e-07
2.38012e-07
2.50585e-07
2.41447e-07
2.70582e-07
2.82077e-07
2.77579e-07
2.24275e-07
2.49602e-07
2.04507e-07
2.05729e-07
2.13122e-07
2.08436e-07
2.21512e-07
2.25807e-07
2.27503e-07
2.24236e-07
1.65394e-07
5.72917e-07
5.4495e-07
5.53576e-07
5.27868e-07
5.25781e-07
5.29758e-07
5.29018e-07
5.32981e-07
5.55097e-07
4.2056e-07
5.25977e-07
4.62001e-07
4.17017e-07
4.33662e-07
4.07231e-07
4.01697e-07
4.24794e-07
4.42076e-07
4.18824e-07
3.38438e-07
4.74414e-07
3.959e-07
4.08704e-07
3.79399e-07
3.58944e-07
3.66575e-07
3.677e-07
3.77235e-07
4.1304e-07
3.10374e-07
4.56265e-07
3.75666e-07
3.45544e-07
3.36864e-07
3.13729e-07
2.9457e-07
3.31722e-07
3.63412e-07
3.4836e-07
3.0107e-07
4.03765e-07
3.19587e-07
3.26547e-07
2.94902e-07
2.59894e-07
2.77296e-07
2.93878e-07
3.13789e-07
3.52436e-07
2.7538e-07
3.93276e-07
3.11744e-07
2.89735e-07
2.69033e-07
2.62155e-07
2.40893e-07
2.86142e-07
3.18475e-07
3.12617e-07
2.66693e-07
3.57857e-07
2.7301e-07
2.66283e-07
2.72569e-07
2.33792e-07
2.6596e-07
2.82217e-07
2.92095e-07
3.19804e-07
2.56378e-07
3.26482e-07
2.57876e-07
2.50356e-07
2.41306e-07
2.50432e-07
2.65052e-07
2.71049e-07
3.13503e-07
3.09742e-07
2.47576e-07
2.96355e-07
2.08332e-07
2.37011e-07
2.27523e-07
2.59597e-07
2.45581e-07
2.98261e-07
2.90711e-07
3.04143e-07
2.37057e-07
2.26846e-07
1.96144e-07
1.9755e-07
2.1967e-07
2.13943e-07
2.3973e-07
2.39388e-07
2.47827e-07
2.41688e-07
1.74235e-07
7.34077e-07
6.7539e-07
6.76871e-07
6.24856e-07
6.17676e-07
6.33011e-07
6.26764e-07
6.33045e-07
6.82109e-07
5.04403e-07
6.56189e-07
5.74054e-07
4.94009e-07
5.22108e-07
4.86237e-07
4.7056e-07
5.12025e-07
5.35306e-07
4.79141e-07
3.99776e-07
5.6599e-07
4.66149e-07
4.94807e-07
4.4483e-07
4.16764e-07
4.38401e-07
4.24513e-07
4.27789e-07
4.897e-07
3.49078e-07
5.43539e-07
4.49837e-07
3.93517e-07
3.89731e-07
3.62264e-07
3.26071e-07
3.80971e-07
4.20333e-07
3.77467e-07
3.38503e-07
4.60901e-07
3.57723e-07
3.77949e-07
3.28784e-07
2.85016e-07
3.16064e-07
3.21978e-07
3.37496e-07
3.99767e-07
2.9543e-07
4.47751e-07
3.54422e-07
3.12335e-07
2.92461e-07
2.87944e-07
2.49892e-07
3.1268e-07
3.53793e-07
3.26187e-07
2.89031e-07
3.86063e-07
2.86744e-07
2.81601e-07
2.86698e-07
2.34263e-07
2.86112e-07
2.97799e-07
2.99979e-07
3.51013e-07
2.67369e-07
3.4187e-07
2.62802e-07
2.50117e-07
2.3642e-07
2.55645e-07
2.67982e-07
2.75933e-07
3.39593e-07
3.14075e-07
2.59354e-07
2.94962e-07
2.0012e-07
2.31363e-07
2.22386e-07
2.62915e-07
2.46532e-07
3.18014e-07
2.91612e-07
3.22099e-07
2.42297e-07
2.14837e-07
1.91928e-07
1.93638e-07
2.23322e-07
2.17014e-07
2.52399e-07
2.48089e-07
2.62589e-07
2.54863e-07
1.76969e-07
6.16211e-07
5.76318e-07
5.95077e-07
5.54202e-07
5.71972e-07
6.11694e-07
6.17412e-07
6.42955e-07
7.05814e-07
5.24093e-07
5.63465e-07
5.108e-07
4.25528e-07
4.85454e-07
4.58037e-07
4.58353e-07
5.19872e-07
5.51533e-07
4.87639e-07
4.17466e-07
4.86098e-07
4.01513e-07
4.52067e-07
4.07076e-07
3.94635e-07
4.37281e-07
4.25215e-07
4.3484e-07
5.11747e-07
3.59797e-07
4.81878e-07
4.08143e-07
3.49794e-07
3.62588e-07
3.47949e-07
3.14876e-07
3.87589e-07
4.35019e-07
3.80308e-07
3.52112e-07
4.08011e-07
3.15584e-07
3.50179e-07
3.0506e-07
2.6931e-07
3.17362e-07
3.21252e-07
3.39252e-07
4.17918e-07
3.00789e-07
4.05677e-07
3.25977e-07
2.81977e-07
2.70515e-07
2.79408e-07
2.36521e-07
3.16323e-07
3.6615e-07
3.24222e-07
2.99066e-07
3.448e-07
2.5184e-07
2.51464e-07
2.66889e-07
2.10836e-07
2.84517e-07
2.95096e-07
2.93477e-07
3.65019e-07
2.67219e-07
2.98377e-07
2.29891e-07
2.17845e-07
2.07501e-07
2.4122e-07
2.55156e-07
2.66085e-07
3.48811e-07
3.01831e-07
2.6045e-07
2.5525e-07
1.59347e-07
2.04871e-07
1.97715e-07
2.51471e-07
2.33451e-07
3.20415e-07
2.75042e-07
3.21101e-07
2.31544e-07
1.72355e-07
1.67631e-07
1.71844e-07
2.13177e-07
2.07497e-07
2.51083e-07
2.40924e-07
2.59433e-07
2.47398e-07
1.6631e-07
8.43805e-07
7.64542e-07
7.68437e-07
7.00505e-07
6.94083e-07
7.17561e-07
7.01887e-07
7.21963e-07
7.86459e-07
5.89104e-07
7.36401e-07
6.538e-07
5.43692e-07
5.89813e-07
5.39255e-07
5.21954e-07
5.78445e-07
6.04263e-07
5.27234e-07
4.57182e-07
6.14761e-07
5.06014e-07
5.47098e-07
4.83686e-07
4.53954e-07
4.88574e-07
4.62342e-07
4.66249e-07
5.49745e-07
3.85936e-07
5.79906e-07
4.87791e-07
4.16251e-07
4.1727e-07
3.88991e-07
3.40992e-07
4.14614e-07
4.61087e-07
3.95489e-07
3.73455e-07
4.80343e-07
3.71107e-07
4.00195e-07
3.403e-07
2.92684e-07
3.38692e-07
3.33886e-07
3.4836e-07
4.3621e-07
3.11651e-07
4.62107e-07
3.70164e-07
3.14459e-07
2.95765e-07
2.96148e-07
2.42458e-07
3.24483e-07
3.76867e-07
3.25291e-07
3.09021e-07
3.87524e-07
2.82927e-07
2.7714e-07
2.83059e-07
2.1691e-07
2.9084e-07
2.96417e-07
2.8899e-07
3.72839e-07
2.68493e-07
3.30119e-07
2.53071e-07
2.35109e-07
2.14561e-07
2.44922e-07
2.50451e-07
2.59096e-07
3.50122e-07
2.92231e-07
2.60851e-07
2.79443e-07
1.81404e-07
2.14375e-07
2.02873e-07
2.47608e-07
2.26831e-07
3.15885e-07
2.61778e-07
3.18065e-07
2.24874e-07
1.83073e-07
1.72879e-07
1.73328e-07
2.09379e-07
2.0051e-07
2.43652e-07
2.31673e-07
2.54056e-07
2.44427e-07
1.60889e-07
5.06608e-07
4.65487e-07
4.8752e-07
4.4747e-07
4.71981e-07
5.20519e-07
5.28642e-07
5.67648e-07
6.26136e-07
4.75547e-07
4.41642e-07
4.15328e-07
3.38328e-07
4.02675e-07
3.86081e-07
3.89469e-07
4.58915e-07
4.88715e-07
4.27944e-07
3.79708e-07
3.71208e-07
3.12595e-07
3.72534e-07
3.35659e-07
3.33017e-07
3.844e-07
3.71345e-07
3.86796e-07
4.61725e-07
3.26261e-07
3.73902e-07
3.3395e-07
2.82096e-07
3.04039e-07
2.98904e-07
2.70442e-07
3.47406e-07
3.93024e-07
3.35895e-07
3.22642e-07
3.25166e-07
2.56202e-07
2.9539e-07
2.57923e-07
2.31672e-07
2.83753e-07
2.84808e-07
3.02484e-07
3.8159e-07
2.72213e-07
3.3087e-07
2.79071e-07
2.39424e-07
2.36421e-07
2.4605e-07
2.06929e-07
2.84662e-07
3.35496e-07
2.85435e-07
2.75414e-07
2.90864e-07
2.20842e-07
2.25044e-07
2.35565e-07
1.86878e-07
2.55956e-07
2.64183e-07
2.56771e-07
3.34516e-07
2.37328e-07
2.59694e-07
2.08672e-07
1.99852e-07
1.87245e-07
2.17817e-07
2.22602e-07
2.31632e-07
3.13906e-07
2.53968e-07
2.31173e-07
2.2903e-07
1.62161e-07
1.90491e-07
1.87192e-07
2.22461e-07
2.07313e-07
2.80391e-07
2.27681e-07
2.77104e-07
1.89135e-07
1.51527e-07
1.50999e-07
1.57719e-07
1.89689e-07
1.84299e-07
2.1836e-07
2.04034e-07
2.20316e-07
2.05943e-07
1.3278e-07
8.4472e-07
7.60446e-07
7.60841e-07
6.96412e-07
6.68827e-07
6.61915e-07
6.29595e-07
6.42253e-07
6.72141e-07
5.28972e-07
7.05413e-07
6.27818e-07
5.45367e-07
5.58545e-07
5.03669e-07
4.75181e-07
5.0586e-07
5.16091e-07
4.64351e-07
4.05577e-07
5.89333e-07
4.96677e-07
5.13805e-07
4.61275e-07
4.24523e-07
4.35945e-07
4.10708e-07
4.17328e-07
4.72424e-07
3.52476e-07
5.28246e-07
4.55004e-07
4.06493e-07
3.92852e-07
3.59012e-07
3.16558e-07
3.6901e-07
4.03259e-07
3.58274e-07
3.3984e-07
4.53836e-07
3.65706e-07
3.75642e-07
3.25338e-07
2.78708e-07
3.05116e-07
3.02997e-07
3.17751e-07
3.84214e-07
2.91056e-07
4.25809e-07
3.54703e-07
3.14603e-07
2.91655e-07
2.76297e-07
2.35156e-07
2.92356e-07
3.37333e-07
2.98971e-07
2.8794e-07
3.81533e-07
2.9993e-07
2.9116e-07
2.81828e-07
2.28216e-07
2.68341e-07
2.74052e-07
2.6729e-07
3.35231e-07
2.51528e-07
3.40543e-07
2.78795e-07
2.64097e-07
2.38043e-07
2.46293e-07
2.39546e-07
2.42016e-07
3.10754e-07
2.66247e-07
2.43159e-07
3.0663e-07
2.39435e-07
2.42749e-07
2.31503e-07
2.40431e-07
2.2428e-07
2.77059e-07
2.40359e-07
2.82476e-07
2.02607e-07
2.11888e-07
1.8915e-07
1.90501e-07
2.0395e-07
1.95348e-07
2.17508e-07
2.09151e-07
2.25429e-07
2.18352e-07
1.48276e-07
2.88316e-07
2.6957e-07
2.89128e-07
2.70778e-07
2.83709e-07
3.11234e-07
3.18235e-07
3.48557e-07
3.6769e-07
3.03049e-07
2.2026e-07
2.25497e-07
2.06966e-07
2.33053e-07
2.38165e-07
2.35904e-07
2.79199e-07
2.93912e-07
2.72151e-07
2.45652e-07
1.87905e-07
1.79459e-07
2.18217e-07
2.0957e-07
2.11621e-07
2.41822e-07
2.38519e-07
2.5863e-07
2.92397e-07
2.26857e-07
1.90548e-07
1.96337e-07
1.82084e-07
1.97751e-07
1.98323e-07
1.87753e-07
2.34041e-07
2.61967e-07
2.38328e-07
2.28119e-07
1.91406e-07
1.72641e-07
1.959e-07
1.82738e-07
1.6985e-07
1.96868e-07
2.05783e-07
2.22372e-07
2.63544e-07
2.05077e-07
2.03008e-07
1.95014e-07
1.843e-07
1.86859e-07
1.81896e-07
1.70035e-07
2.07481e-07
2.43001e-07
2.17878e-07
2.08492e-07
2.05461e-07
1.88212e-07
1.98506e-07
1.933e-07
1.76165e-07
1.94721e-07
2.06707e-07
2.03129e-07
2.44309e-07
1.85844e-07
2.11744e-07
1.93495e-07
1.96706e-07
1.89328e-07
1.91447e-07
1.87365e-07
1.89622e-07
2.28185e-07
1.99162e-07
1.79231e-07
1.98829e-07
1.95604e-07
1.91813e-07
1.98051e-07
1.90388e-07
1.86968e-07
2.03519e-07
1.85043e-07
2.02124e-07
1.42511e-07
1.49259e-07
1.46158e-07
1.60545e-07
1.64606e-07
1.64426e-07
1.67407e-07
1.60197e-07
1.61993e-07
1.50178e-07
1.01938e-07
7.95304e-07
6.84259e-07
6.57834e-07
5.94798e-07
5.26659e-07
4.69225e-07
4.16324e-07
3.95413e-07
3.79035e-07
3.22948e-07
6.27247e-07
5.2131e-07
4.79593e-07
4.28548e-07
3.74687e-07
3.24072e-07
3.06361e-07
2.92919e-07
2.75802e-07
2.39992e-07
5.38857e-07
4.38167e-07
4.03318e-07
3.63715e-07
3.12481e-07
2.82462e-07
2.58273e-07
2.56961e-07
2.62377e-07
2.21303e-07
4.5682e-07
3.72036e-07
3.45837e-07
3.02915e-07
2.58804e-07
2.24126e-07
2.28122e-07
2.35329e-07
2.25512e-07
2.10092e-07
4.26038e-07
3.32685e-07
3.01159e-07
2.60512e-07
2.13688e-07
1.99818e-07
1.98155e-07
2.04445e-07
2.22111e-07
1.91559e-07
3.92832e-07
3.10582e-07
2.80663e-07
2.44344e-07
2.02756e-07
1.82291e-07
1.85476e-07
2.04049e-07
1.95941e-07
1.84891e-07
3.88436e-07
2.9978e-07
2.76329e-07
2.37106e-07
2.06201e-07
1.82994e-07
1.85164e-07
1.8151e-07
1.99613e-07
1.6854e-07
3.66975e-07
2.90824e-07
2.64723e-07
2.33725e-07
2.01161e-07
1.81117e-07
1.71731e-07
1.83186e-07
1.78077e-07
1.5818e-07
3.45439e-07
2.82297e-07
2.44328e-07
2.2625e-07
1.88057e-07
1.77102e-07
1.64516e-07
1.66801e-07
1.67846e-07
1.30776e-07
2.53432e-07
1.92222e-07
1.86689e-07
1.63201e-07
1.52242e-07
1.37057e-07
1.34513e-07
1.32567e-07
1.29717e-07
9.61579e-08
-1.11603e-07
-8.77181e-08
-6.26038e-08
-3.69608e-08
-1.62247e-08
3.44783e-09
2.2668e-08
4.14136e-08
2.91366e-08
5.50412e-08
-9.764e-08
-5.6743e-08
-1.64714e-08
-2.04466e-08
1.00425e-08
1.46595e-08
2.6681e-08
3.02449e-08
4.85276e-08
4.7046e-08
-4.25358e-08
-1.27046e-08
-6.81362e-09
1.50369e-08
2.53706e-08
3.13998e-08
4.39135e-08
6.14088e-08
4.83141e-08
6.44986e-08
-8.18767e-09
1.48075e-08
3.29129e-08
3.59383e-08
4.22586e-08
5.40693e-08
5.71197e-08
6.17884e-08
7.82739e-08
6.76135e-08
5.82239e-08
6.15252e-08
5.38821e-08
6.24451e-08
6.32042e-08
5.74672e-08
7.37634e-08
8.47639e-08
7.29023e-08
8.00398e-08
8.87107e-08
8.49691e-08
9.25157e-08
9.00822e-08
7.39633e-08
8.93819e-08
7.91184e-08
8.60852e-08
9.70008e-08
8.10194e-08
1.32749e-07
1.26731e-07
1.25141e-07
1.06953e-07
1.17057e-07
8.70796e-08
1.00687e-07
1.04517e-07
9.10829e-08
8.61463e-08
1.6486e-07
1.43868e-07
1.42488e-07
1.39552e-07
1.15187e-07
1.12553e-07
1.06235e-07
9.33105e-08
1.0366e-07
8.17096e-08
1.66574e-07
1.70923e-07
1.44718e-07
1.46685e-07
1.16928e-07
1.178e-07
9.00482e-08
1.05956e-07
8.51709e-08
6.67582e-08
1.31653e-07
1.09118e-07
1.16859e-07
9.90363e-08
9.92342e-08
7.92537e-08
7.92866e-08
6.62028e-08
6.06801e-08
4.45879e-08
4.97936e-07
4.1765e-07
3.82637e-07
3.52727e-07
2.86077e-07
2.20533e-07
1.76373e-07
1.46728e-07
1.05349e-07
1.17884e-07
3.8064e-07
3.00471e-07
3.00437e-07
2.26271e-07
1.83872e-07
1.45572e-07
9.81516e-08
7.7214e-08
9.43857e-08
7.36083e-08
3.34774e-07
2.80986e-07
2.18272e-07
2.00666e-07
1.56486e-07
1.03073e-07
9.6612e-08
9.1671e-08
5.62632e-08
8.33842e-08
2.66865e-07
2.08111e-07
2.13177e-07
1.61912e-07
1.20948e-07
1.08875e-07
7.39847e-08
6.20119e-08
9.1569e-08
6.96059e-08
2.52787e-07
2.13753e-07
1.6604e-07
1.4572e-07
1.14419e-07
7.28012e-08
8.15297e-08
8.64622e-08
5.47997e-08
8.38478e-08
2.30555e-07
1.78354e-07
1.74626e-07
1.40204e-07
9.84677e-08
1.03494e-07
7.3175e-08
6.51793e-08
9.74224e-08
7.44315e-08
2.27999e-07
1.95205e-07
1.7039e-07
1.39384e-07
1.32227e-07
8.4536e-08
9.20476e-08
1.02825e-07
7.28952e-08
8.93696e-08
2.23715e-07
1.83184e-07
1.7036e-07
1.53708e-07
1.16788e-07
1.12409e-07
1.02067e-07
8.03336e-08
1.12288e-07
8.68283e-08
2.05314e-07
1.85336e-07
1.55132e-07
1.41409e-07
1.12661e-07
1.07107e-07
8.39529e-08
1.14613e-07
9.23368e-08
8.70073e-08
1.48833e-07
1.14583e-07
1.09387e-07
8.72343e-08
8.23483e-08
6.78722e-08
7.76771e-08
7.30675e-08
8.08963e-08
6.72375e-08
-4.44453e-07
-3.88815e-07
-3.70649e-07
-3.23919e-07
-2.89976e-07
-2.66876e-07
-2.31536e-07
-2.0659e-07
-2.33698e-07
-1.47508e-07
-3.97981e-07
-3.20539e-07
-2.54233e-07
-2.53353e-07
-2.1019e-07
-1.79112e-07
-1.83244e-07
-1.80586e-07
-1.31481e-07
-1.16002e-07
-3.05673e-07
-2.29533e-07
-2.31331e-07
-1.87037e-07
-1.57794e-07
-1.59945e-07
-1.25955e-07
-1.08502e-07
-1.50263e-07
-7.73061e-08
-2.51467e-07
-1.92838e-07
-1.48996e-07
-1.40515e-07
-1.20358e-07
-8.14194e-08
-1.03988e-07
-1.12181e-07
-6.40125e-08
-7.60762e-08
-1.6896e-07
-1.11115e-07
-1.22004e-07
-8.90476e-08
-6.40063e-08
-8.27033e-08
-5.63477e-08
-4.4989e-08
-9.40079e-08
-3.78301e-08
-1.30153e-07
-9.3284e-08
-6.10456e-08
-5.47615e-08
-5.42267e-08
-1.67616e-08
-4.40278e-08
-5.84962e-08
-1.65261e-08
-3.7321e-08
-8.28791e-08
-3.36831e-08
-3.46666e-08
-2.81675e-08
7.91391e-10
-2.78751e-08
-9.91141e-09
6.16243e-09
-3.98608e-08
-7.26622e-09
-4.65083e-08
-1.85579e-08
-4.64386e-09
8.74257e-09
-1.36124e-09
1.63942e-08
1.26489e-08
-1.50959e-08
1.52866e-08
-1.84179e-09
-2.81728e-08
1.08005e-08
8.88455e-09
1.39154e-08
1.29463e-08
1.6124e-08
9.33837e-10
2.63262e-08
-1.36199e-09
6.19354e-09
-2.49864e-08
-8.13836e-09
-1.94989e-09
-4.16041e-09
1.6162e-09
-3.58001e-09
4.35641e-09
-4.381e-09
-4.27387e-10
2.26275e-09
1.19448e-07
6.71626e-08
2.94515e-08
1.61148e-08
-3.2735e-08
-8.79999e-08
-1.20149e-07
-1.38828e-07
-1.86236e-07
-1.15227e-07
5.27149e-08
8.67309e-09
2.02112e-08
-3.84582e-08
-6.80944e-08
-8.16561e-08
-1.34314e-07
-1.56084e-07
-1.20388e-07
-1.09301e-07
3.97512e-08
2.49129e-08
-3.5308e-08
-3.78575e-08
-5.96122e-08
-1.09011e-07
-1.03926e-07
-1.1076e-07
-1.59343e-07
-8.72614e-08
-2.00762e-09
-2.53756e-08
-9.60452e-09
-4.73362e-08
-6.93214e-08
-6.1564e-08
-1.10503e-07