/*--------------------------------*- C++ -*----------------------------------*\
| =========                 |                                                 |
| \\      /  F ield         | OpenFOAM: The Open Source CFD Toolbox           |
|  \\    /   O peration     | Version:  2406                                  |
|   \\  /    A nd           | Website:  www.openfoam.com                      |
|    \\/     M anipulation  |                                                 |
\*---------------------------------------------------------------------------*/
FoamFile
{
    version     2.0;
    format      ascii;
    arch        "LSB;label=32;scalar=64";
    class       volScalarField;
    location    "1.8";
    object      magR;
}
// * * * * * * * * * * * * * * * * * * * * * * * * * * * * * * * * * * * * * //

dimensions      [0 2 -2 0 0 0 0];

internalField   uniform 0;

boundaryField
{
    walls
    {
        type            calculated;
        value           nonuniform List<scalar> 
2000
(
5.84368e-07
8.28589e-07
1.09509e-06
1.31565e-06
1.44047e-06
1.44047e-06
1.31565e-06
1.09509e-06
8.28589e-07
5.84368e-07
2.35124e-07
3.22818e-07
4.26153e-07
5.15488e-07
5.67298e-07
5.67298e-07
5.15487e-07
4.26153e-07
3.22818e-07
2.35124e-07
8.23358e-08
1.10261e-07
1.44695e-07
1.75724e-07
1.94052e-07
1.94052e-07
1.75724e-07
1.44695e-07
1.10261e-07
8.23358e-08
1.07665e-07
1.4522e-07
1.90604e-07
2.30858e-07
2.54462e-07
2.54462e-07
2.30858e-07
1.90604e-07
1.4522e-07
1.07665e-07
8.39474e-08
1.12613e-07
1.47885e-07
1.79516e-07
1.98184e-07
1.98184e-07
1.79516e-07
1.47885e-07
1.12613e-07
8.39472e-08
9.09278e-08
1.22294e-07
1.6067e-07
1.94964e-07
2.15168e-07
2.15168e-07
1.94964e-07
1.6067e-07
1.22294e-07
9.09275e-08
8.50846e-08
1.14263e-07
1.50136e-07
1.82292e-07
2.0127e-07
2.0127e-07
1.82291e-07
1.50136e-07
1.14263e-07
8.50842e-08
8.69442e-08
1.16839e-07
1.53532e-07
1.86388e-07
2.0577e-07
2.0577e-07
1.86388e-07
1.53531e-07
1.16838e-07
8.69434e-08
8.54491e-08
1.14783e-07
1.50833e-07
1.83139e-07
2.02204e-07
2.02203e-07
1.83138e-07
1.50832e-07
1.14782e-07
8.54478e-08
8.59422e-08
1.15466e-07
1.51732e-07
1.84223e-07
2.03394e-07
2.03394e-07
1.84222e-07
1.51731e-07
1.15464e-07
8.59402e-08
8.55552e-08
1.14934e-07
1.51033e-07
1.83381e-07
2.0247e-07
2.02469e-07
1.83379e-07
1.51031e-07
1.14931e-07
8.55522e-08
8.56866e-08
1.15115e-07
1.51272e-07
1.83669e-07
2.02786e-07
2.02785e-07
1.83666e-07
1.51268e-07
1.15111e-07
8.56823e-08
8.55871e-08
1.14978e-07
1.51092e-07
1.83451e-07
2.02547e-07
2.02545e-07
1.83448e-07
1.51087e-07
1.14972e-07
8.55813e-08
8.5623e-08
1.15028e-07
1.51157e-07
1.83529e-07
2.02632e-07
2.0263e-07
1.83524e-07
1.5115e-07
1.1502e-07
8.56157e-08
8.5598e-08
1.14993e-07
1.51111e-07
1.83474e-07
2.02571e-07
2.02569e-07
1.83468e-07
1.51103e-07
1.14984e-07
8.55895e-08
8.56076e-08
1.15006e-07
1.51129e-07
1.83495e-07
2.02594e-07
2.02592e-07
1.83489e-07
1.5112e-07
1.14997e-07
8.55985e-08
8.56004e-08
1.14997e-07
1.51116e-07
1.8348e-07
2.02578e-07
2.02575e-07
1.83474e-07
1.51107e-07
1.14987e-07
8.55913e-08
8.56013e-08
1.14998e-07
1.51119e-07
1.83484e-07
2.02582e-07
2.0258e-07
1.83478e-07
1.51111e-07
1.1499e-07
8.55932e-08
8.55971e-08
1.14993e-07
1.51112e-07
1.83476e-07
2.02575e-07
2.02573e-07
1.83472e-07
1.51106e-07
1.14986e-07
8.55908e-08
8.55948e-08
1.1499e-07
1.51109e-07
1.83474e-07
2.02572e-07
2.02571e-07
1.83471e-07
1.51105e-07
1.14986e-07
8.55907e-08
8.55911e-08
1.14986e-07
1.51104e-07
1.83468e-07
2.02566e-07
2.02566e-07
1.83467e-07
1.51102e-07
1.14984e-07
8.55898e-08
8.55881e-08
1.14982e-07
1.511e-07
1.83464e-07
2.02563e-07
2.02563e-07
1.83464e-07
1.51101e-07
1.14984e-07
8.55897e-08
8.55852e-08
1.14979e-07
1.51096e-07
1.83459e-07
2.02559e-07
2.02559e-07
1.83462e-07
1.511e-07
1.14983e-07
8.55894e-08
8.55829e-08
1.14976e-07
1.51093e-07
1.83456e-07
2.02555e-07
2.02557e-07
1.8346e-07
1.51099e-07
1.14982e-07
8.55893e-08
8.55808e-08
1.14973e-07
1.5109e-07
1.83453e-07
2.02553e-07
2.02554e-07
1.83458e-07
1.51097e-07
1.14982e-07
8.55889e-08
8.5579e-08
1.14971e-07
1.51087e-07
1.8345e-07
2.0255e-07
2.02552e-07
1.83456e-07
1.51096e-07
1.14981e-07
8.55882e-08
8.55775e-08
1.14969e-07
1.51085e-07
1.83448e-07
2.02547e-07
2.0255e-07
1.83454e-07
1.51094e-07
1.14979e-07
8.55875e-08
8.55765e-08
1.14968e-07
1.51083e-07
1.83446e-07
2.02545e-07
2.02548e-07
1.83453e-07
1.51093e-07
1.14979e-07
8.55869e-08
8.55761e-08
1.14967e-07
1.51082e-07
1.83445e-07
2.02544e-07
2.02547e-07
1.83452e-07
1.51092e-07
1.14978e-07
8.55868e-08
8.55768e-08
1.14968e-07
1.51083e-07
1.83445e-07
2.02545e-07
2.02547e-07
1.83452e-07
1.51093e-07
1.14979e-07
8.55873e-08
8.5579e-08
1.1497e-07
1.51086e-07
1.83448e-07
2.02547e-07
2.0255e-07
1.83454e-07
1.51095e-07
1.1498e-07
8.55884e-08
8.55832e-08
1.14975e-07
1.51091e-07
1.83454e-07
2.02553e-07
2.02554e-07
1.83458e-07
1.51098e-07
1.14982e-07
8.55898e-08
8.55898e-08
1.14983e-07
1.511e-07
1.83462e-07
2.0256e-07
2.02561e-07
1.83463e-07
1.51101e-07
1.14985e-07
8.55911e-08
8.55981e-08
1.14993e-07
1.51111e-07
1.83473e-07
2.02571e-07
2.02569e-07
1.8347e-07
1.51105e-07
1.14987e-07
8.5592e-08
8.56071e-08
1.15004e-07
1.51122e-07
1.83485e-07
2.02582e-07
2.02579e-07
1.83476e-07
1.51109e-07
1.14989e-07
8.55923e-08
8.56147e-08
1.15013e-07
1.51133e-07
1.83496e-07
2.02592e-07
2.02587e-07
1.83482e-07
1.51113e-07
1.1499e-07
8.55921e-08
8.5619e-08
1.15018e-07
1.5114e-07
1.83504e-07
2.02599e-07
2.02592e-07
1.83486e-07
1.51114e-07
1.1499e-07
8.55915e-08
8.56186e-08
1.15018e-07
1.5114e-07
1.83505e-07
2.026e-07
2.02594e-07
1.83486e-07
1.51114e-07
1.14989e-07
8.55907e-08
8.56135e-08
1.15013e-07
1.51135e-07
1.835e-07
2.02596e-07
2.0259e-07
1.83484e-07
1.51112e-07
1.14988e-07
8.559e-08
8.56051e-08
1.15003e-07
1.51125e-07
1.8349e-07
2.02587e-07
2.02583e-07
1.83479e-07
1.51109e-07
1.14987e-07
8.55895e-08
8.55963e-08
1.14993e-07
1.51113e-07
1.83479e-07
2.02577e-07
2.02575e-07
1.83473e-07
1.51106e-07
1.14986e-07
8.55899e-08
8.55912e-08
1.14987e-07
1.51106e-07
1.83471e-07
2.0257e-07
2.02569e-07
1.8347e-07
1.51105e-07
1.14986e-07
8.55917e-08
8.55942e-08
1.1499e-07
1.51109e-07
1.83473e-07
2.02572e-07
2.02572e-07
1.83473e-07
1.51109e-07
1.14991e-07
8.55957e-08
8.56105e-08
1.15008e-07
1.51128e-07
1.83493e-07
2.0259e-07
2.02588e-07
1.83487e-07
1.51121e-07
1.15e-07
8.56029e-08
8.56443e-08
1.15047e-07
1.51171e-07
1.83535e-07
2.0263e-07
2.02623e-07
1.83516e-07
1.51143e-07
1.15016e-07
8.56134e-08
8.57006e-08
1.15113e-07
1.51244e-07
1.8361e-07
2.02702e-07
2.02686e-07
1.83567e-07
1.51181e-07
1.15043e-07
8.56305e-08
8.57763e-08
1.15202e-07
1.51342e-07
1.83711e-07
2.02796e-07
2.02768e-07
1.83634e-07
1.51231e-07
1.15077e-07
8.56521e-08
8.58846e-08
1.15335e-07
1.51495e-07
1.83875e-07
2.02958e-07
2.02915e-07
1.83757e-07
1.51326e-07
1.15145e-07
8.56982e-08
8.59759e-08
1.15441e-07
1.51612e-07
1.83992e-07
2.03068e-07
2.03011e-07
1.83834e-07
1.51386e-07
1.15189e-07
8.57288e-08
8.61679e-08
1.15691e-07
1.51923e-07
1.84347e-07
2.03437e-07
2.03363e-07
1.84143e-07
1.51636e-07
1.15376e-07
8.58643e-08
5.84368e-07
8.28589e-07
1.09509e-06
1.31565e-06
1.44047e-06
1.44047e-06
1.31565e-06
1.09509e-06
8.28589e-07
5.84368e-07
2.35124e-07
3.22818e-07
4.26153e-07
5.15487e-07
5.67298e-07
5.67298e-07
5.15487e-07
4.26153e-07
3.22818e-07
2.35124e-07
8.23357e-08
1.10261e-07
1.44695e-07
1.75724e-07
1.94052e-07
1.94052e-07
1.75724e-07
1.44695e-07
1.10261e-07
8.23358e-08
1.07665e-07
1.4522e-07
1.90604e-07
2.30858e-07
2.54462e-07
2.54462e-07
2.30858e-07
1.90604e-07
1.4522e-07
1.07665e-07
8.39471e-08
1.12613e-07
1.47885e-07
1.79516e-07
1.98184e-07
1.98184e-07
1.79516e-07
1.47885e-07
1.12613e-07
8.39474e-08
9.09272e-08
1.22293e-07
1.6067e-07
1.94963e-07
2.15168e-07
2.15168e-07
1.94964e-07
1.6067e-07
1.22294e-07
9.09278e-08
8.50837e-08
1.14262e-07
1.50135e-07
1.82291e-07
2.01269e-07
2.01269e-07
1.82291e-07
1.50136e-07
1.14263e-07
8.50846e-08
8.69425e-08
1.16837e-07
1.5353e-07
1.86387e-07
2.05769e-07
2.05769e-07
1.86388e-07
1.53532e-07
1.16839e-07
8.69441e-08
8.54464e-08
1.1478e-07
1.5083e-07
1.83136e-07
2.02202e-07
2.02203e-07
1.83138e-07
1.50833e-07
1.14783e-07
8.5449e-08
8.59381e-08
1.15461e-07
1.51728e-07
1.84219e-07
2.03392e-07
2.03393e-07
1.84222e-07
1.51732e-07
1.15466e-07
8.59421e-08
8.55493e-08
1.14927e-07
1.51027e-07
1.83375e-07
2.02466e-07
2.02468e-07
1.83379e-07
1.51032e-07
1.14933e-07
8.5555e-08
8.56784e-08
1.15106e-07
1.51263e-07
1.83661e-07
2.02781e-07
2.02782e-07
1.83666e-07
1.51271e-07
1.15115e-07
8.56864e-08
8.55764e-08
1.14966e-07
1.5108e-07
1.83441e-07
2.0254e-07
2.02542e-07
1.83448e-07
1.5109e-07
1.14977e-07
8.55868e-08
8.56098e-08
1.15013e-07
1.51142e-07
1.83517e-07
2.02623e-07
2.02626e-07
1.83525e-07
1.51154e-07
1.15026e-07
8.56227e-08
8.55828e-08
1.14976e-07
1.51094e-07
1.8346e-07
2.02561e-07
2.02565e-07
1.83469e-07
1.51108e-07
1.14992e-07
8.55975e-08
8.55914e-08
1.14988e-07
1.51111e-07
1.83479e-07
2.02583e-07
2.02587e-07
1.8349e-07
1.51125e-07
1.15005e-07
8.56071e-08
8.55843e-08
1.14979e-07
1.51098e-07
1.83464e-07
2.02567e-07
2.0257e-07
1.83475e-07
1.51113e-07
1.14995e-07
8.55999e-08
8.55869e-08
1.14982e-07
1.51102e-07
1.83469e-07
2.02571e-07
2.02575e-07
1.83479e-07
1.51116e-07
1.14997e-07
8.56009e-08
8.55855e-08
1.1498e-07
1.51099e-07
1.83464e-07
2.02566e-07
2.02569e-07
1.83472e-07
1.5111e-07
1.14992e-07
8.55968e-08
8.55868e-08
1.14981e-07
1.511e-07
1.83465e-07
2.02565e-07
2.02567e-07
1.8347e-07
1.51107e-07
1.14989e-07
8.55945e-08
8.55869e-08
1.14981e-07
1.51098e-07
1.83462e-07
2.02562e-07
2.02563e-07
1.83465e-07
1.51103e-07
1.14985e-07
8.55909e-08
8.55876e-08
1.14981e-07
1.51098e-07
1.83461e-07
2.0256e-07
2.0256e-07
1.83462e-07
1.51099e-07
1.14982e-07
8.55881e-08
8.55878e-08
1.14981e-07
1.51097e-07
1.8346e-07
2.02557e-07
2.02557e-07
1.83458e-07
1.51095e-07
1.14978e-07
8.55852e-08
8.55881e-08
1.14981e-07
1.51097e-07
1.83458e-07
2.02555e-07
2.02554e-07
1.83455e-07
1.51092e-07
1.14975e-07
8.55828e-08
8.55883e-08
1.14981e-07
1.51096e-07
1.83457e-07
2.02553e-07
2.02552e-07
1.83452e-07
1.51089e-07
1.14973e-07
8.55807e-08
8.55886e-08
1.14981e-07
1.51096e-07
1.83456e-07
2.02552e-07
2.0255e-07
1.8345e-07
1.51087e-07
1.14971e-07
8.5579e-08
8.55889e-08
1.14981e-07
1.51096e-07
1.83456e-07
2.02551e-07
2.02548e-07
1.83448e-07
1.51085e-07
1.14969e-07
8.55777e-08
8.55889e-08
1.14981e-07
1.51095e-07
1.83455e-07
2.0255e-07
2.02547e-07
1.83447e-07
1.51084e-07
1.14968e-07
8.55767e-08
8.55886e-08
1.1498e-07
1.51095e-07
1.83454e-07
2.02549e-07
2.02546e-07
1.83446e-07
1.51084e-07
1.14968e-07
8.55763e-08
8.55879e-08
1.1498e-07
1.51094e-07
1.83454e-07
2.02549e-07
2.02546e-07
1.83447e-07
1.51084e-07
1.14968e-07
8.55769e-08
8.55869e-08
1.14979e-07
1.51093e-07
1.83453e-07
2.02549e-07
2.02547e-07
1.83448e-07
1.51086e-07
1.1497e-07
8.55789e-08
8.5586e-08
1.14978e-07
1.51093e-07
1.83454e-07
2.02551e-07
2.0255e-07
1.83452e-07
1.5109e-07
1.14975e-07
8.5583e-08
8.55854e-08
1.14978e-07
1.51094e-07
1.83456e-07
2.02555e-07
2.02555e-07
1.83459e-07
1.51097e-07
1.14982e-07
8.55893e-08
8.55854e-08
1.14979e-07
1.51097e-07
1.83461e-07
2.02561e-07
2.02564e-07
1.83468e-07
1.51108e-07
1.14991e-07
8.55976e-08
8.55858e-08
1.14981e-07
1.51101e-07
1.83467e-07
2.0257e-07
2.02575e-07
1.8348e-07
1.51119e-07
1.15002e-07
8.56065e-08
8.55868e-08
1.14983e-07
1.51105e-07
1.83474e-07
2.02579e-07
2.02586e-07
1.83492e-07
1.5113e-07
1.15011e-07
8.56142e-08
8.55879e-08
1.14986e-07
1.51109e-07
1.8348e-07
2.02587e-07
2.02594e-07
1.835e-07
1.51138e-07
1.15017e-07
8.56187e-08
8.55889e-08
1.14987e-07
1.51112e-07
1.83483e-07
2.02591e-07
2.02598e-07
1.83503e-07
1.51139e-07
1.15018e-07
8.56185e-08
8.55895e-08
1.14987e-07
1.51111e-07
1.83483e-07
2.02589e-07
2.02595e-07
1.83499e-07
1.51135e-07
1.15013e-07
8.56135e-08
8.55896e-08
1.14987e-07
1.51109e-07
1.83478e-07
2.02583e-07
2.02587e-07
1.8349e-07
1.51125e-07
1.15003e-07
8.56052e-08
8.55892e-08
1.14985e-07
1.51105e-07
1.83472e-07
2.02574e-07
2.02577e-07
1.83478e-07
1.51113e-07
1.14993e-07
8.55964e-08
8.55887e-08
1.14983e-07
1.51101e-07
1.83466e-07
2.02566e-07
2.02567e-07
1.83469e-07
1.51105e-07
1.14986e-07
8.55911e-08
8.55884e-08
1.14982e-07
1.51099e-07
1.83463e-07
2.02564e-07
2.02565e-07
1.83468e-07
1.51106e-07
1.14988e-07
8.55938e-08
8.5588e-08
1.14983e-07
1.51101e-07
1.83468e-07
2.02571e-07
2.02576e-07
1.83483e-07
1.51122e-07
1.15005e-07
8.56096e-08
8.55868e-08
1.14985e-07
1.51108e-07
1.83481e-07
2.02592e-07
2.02606e-07
1.83518e-07
1.5116e-07
1.15042e-07
8.56428e-08
8.55802e-08
1.14984e-07
1.51117e-07
1.83503e-07
2.0263e-07
2.02657e-07
1.83579e-07
1.51226e-07
1.15104e-07
8.5698e-08
8.55675e-08
1.1498e-07
1.51127e-07
1.83533e-07
2.02681e-07
2.02728e-07
1.83664e-07
1.51315e-07
1.15189e-07
8.57722e-08
8.55255e-08
1.14947e-07
1.51115e-07
1.83551e-07
2.02736e-07
2.02818e-07
1.83778e-07
1.51438e-07
1.15306e-07
8.58765e-08
8.54923e-08
1.14924e-07
1.51112e-07
1.83576e-07
2.02791e-07
2.02899e-07
1.83877e-07
1.51542e-07
1.15405e-07
8.5964e-08
8.53451e-08
1.14781e-07
1.50999e-07
1.83521e-07
2.02813e-07
2.02999e-07
1.84036e-07
1.5173e-07
1.15594e-07
8.6136e-08
5.84368e-07
8.28589e-07
1.09509e-06
1.31565e-06
1.44047e-06
1.44047e-06
1.31565e-06
1.09509e-06
8.28589e-07
5.84368e-07
2.35124e-07
3.22818e-07
4.26153e-07
5.15487e-07
5.67298e-07
5.67298e-07
5.15487e-07
4.26153e-07
3.22818e-07
2.35124e-07
8.23357e-08
1.10261e-07
1.44695e-07
1.75724e-07
1.94052e-07
1.94052e-07
1.75724e-07
1.44695e-07
1.10261e-07
8.23357e-08
1.07664e-07
1.45219e-07
1.90604e-07
2.30858e-07
2.54462e-07
2.54462e-07
2.30858e-07
1.90604e-07
1.45219e-07
1.07665e-07
8.3947e-08
1.12613e-07
1.47885e-07
1.79516e-07
1.98184e-07
1.98184e-07
1.79516e-07
1.47885e-07
1.12613e-07
8.39471e-08
9.0927e-08
1.22293e-07
1.60669e-07
1.94963e-07
2.15167e-07
2.15167e-07
1.94963e-07
1.6067e-07
1.22293e-07
9.09272e-08
8.50832e-08
1.14262e-07
1.50134e-07
1.8229e-07
2.01268e-07
2.01268e-07
1.8229e-07
1.50135e-07
1.14262e-07
8.50836e-08
8.69417e-08
1.16836e-07
1.53529e-07
1.86385e-07
2.05767e-07
2.05767e-07
1.86386e-07
1.53529e-07
1.16837e-07
8.69424e-08
8.5445e-08
1.14779e-07
1.50828e-07
1.83133e-07
2.02198e-07
2.02199e-07
1.83134e-07
1.50829e-07
1.1478e-07
8.54462e-08
8.59359e-08
1.15458e-07
1.51724e-07
1.84214e-07
2.03386e-07
2.03386e-07
1.84216e-07
1.51726e-07
1.1546e-07
8.59378e-08
8.55461e-08
1.14923e-07
1.51021e-07
1.83368e-07
2.02458e-07
2.02458e-07
1.8337e-07
1.51024e-07
1.14926e-07
8.55488e-08
8.5674e-08
1.151e-07
1.51255e-07
1.83651e-07
2.02769e-07
2.0277e-07
1.83653e-07
1.51259e-07
1.15104e-07
8.56777e-08
8.55707e-08
1.14958e-07
1.51069e-07
1.83428e-07
2.02524e-07
2.02525e-07
1.83431e-07
1.51074e-07
1.14963e-07
8.55754e-08
8.56031e-08
1.15003e-07
1.51129e-07
1.835e-07
2.02603e-07
2.02605e-07
1.83503e-07
1.51134e-07
1.15009e-07
8.56086e-08
8.55753e-08
1.14965e-07
1.51079e-07
1.8344e-07
2.02538e-07
2.02539e-07
1.83444e-07
1.51085e-07
1.14972e-07
8.55814e-08
8.55838e-08
1.14977e-07
1.51094e-07
1.83458e-07
2.02558e-07
2.02559e-07
1.83462e-07
1.511e-07
1.14983e-07
8.55899e-08
8.55774e-08
1.14968e-07
1.51082e-07
1.83443e-07
2.02541e-07
2.02542e-07
1.83447e-07
1.51087e-07
1.14974e-07
8.55828e-08
8.55812e-08
1.14973e-07
1.51088e-07
1.8345e-07
2.02548e-07
2.02549e-07
1.83453e-07
1.51092e-07
1.14977e-07
8.55856e-08
8.55816e-08
1.14973e-07
1.51088e-07
1.83449e-07
2.02547e-07
2.02547e-07
1.83451e-07
1.51091e-07
1.14976e-07
8.55845e-08
8.55848e-08
1.14977e-07
1.51093e-07
1.83454e-07
2.02552e-07
2.02552e-07
1.83455e-07
1.51094e-07
1.14978e-07
8.55861e-08
8.5587e-08
1.1498e-07
1.51096e-07
1.83458e-07
2.02555e-07
2.02555e-07
1.83457e-07
1.51095e-07
1.14979e-07
8.55866e-08
8.55897e-08
1.14983e-07
1.511e-07
1.83462e-07
2.0256e-07
2.02559e-07
1.83461e-07
1.51098e-07
1.14981e-07
8.55876e-08
8.55918e-08
1.14986e-07
1.51103e-07
1.83466e-07
2.02563e-07
2.02562e-07
1.83463e-07
1.511e-07
1.14982e-07
8.55882e-08
8.55939e-08
1.14988e-07
1.51106e-07
1.83469e-07
2.02566e-07
2.02565e-07
1.83466e-07
1.51101e-07
1.14983e-07
8.55888e-08
8.55958e-08
1.14991e-07
1.51109e-07
1.83472e-07
2.02569e-07
2.02568e-07
1.83467e-07
1.51103e-07
1.14984e-07
8.55892e-08
8.55977e-08
1.14993e-07
1.51111e-07
1.83474e-07
2.02572e-07
2.0257e-07
1.83469e-07
1.51104e-07
1.14985e-07
8.55898e-08
8.55994e-08
1.14995e-07
1.51114e-07
1.83477e-07
2.02574e-07
2.02572e-07
1.83471e-07
1.51105e-07
1.14986e-07
8.55902e-08
8.56008e-08
1.14997e-07
1.51116e-07
1.83479e-07
2.02576e-07
2.02574e-07
1.83472e-07
1.51106e-07
1.14986e-07
8.55905e-08
8.56015e-08
1.14998e-07
1.51117e-07
1.8348e-07
2.02578e-07
2.02575e-07
1.83473e-07
1.51106e-07
1.14986e-07
8.55903e-08
8.56011e-08
1.14997e-07
1.51116e-07
1.8348e-07
2.02577e-07
2.02575e-07
1.83473e-07
1.51106e-07
1.14985e-07
8.55895e-08
8.55989e-08
1.14995e-07
1.51114e-07
1.83477e-07
2.02575e-07
2.02572e-07
1.8347e-07
1.51104e-07
1.14984e-07
8.55884e-08
8.55946e-08
1.1499e-07
1.51108e-07
1.83472e-07
2.02569e-07
2.02568e-07
1.83467e-07
1.51101e-07
1.14982e-07
8.5587e-08
8.55882e-08
1.14982e-07
1.511e-07
1.83463e-07
2.02561e-07
2.02561e-07
1.83461e-07
1.51097e-07
1.14979e-07
8.55857e-08
8.55801e-08
1.14972e-07
1.51089e-07
1.83452e-07
2.02551e-07
2.02552e-07
1.83455e-07
1.51093e-07
1.14977e-07
8.55845e-08
8.55716e-08
1.14962e-07
1.51078e-07
1.8344e-07
2.0254e-07
2.02543e-07
1.83448e-07
1.51088e-07
1.14974e-07
8.55837e-08
8.55644e-08
1.14954e-07
1.51068e-07
1.8343e-07
2.0253e-07
2.02534e-07
1.83441e-07
1.51084e-07
1.14973e-07
8.55835e-08
8.55603e-08
1.14948e-07
1.51061e-07
1.83423e-07
2.02523e-07
2.02528e-07
1.83437e-07
1.51082e-07
1.14972e-07
8.55838e-08
8.55605e-08
1.14948e-07
1.5106e-07
1.83421e-07
2.02521e-07
2.02527e-07
1.83437e-07
1.51083e-07
1.14973e-07
8.55848e-08
8.55651e-08
1.14953e-07
1.51065e-07
1.83426e-07
2.02525e-07
2.02531e-07
1.8344e-07
1.51085e-07
1.14975e-07
8.55861e-08
8.55726e-08
1.14962e-07
1.51075e-07
1.83435e-07
2.02534e-07
2.02538e-07
1.83446e-07
1.51089e-07
1.14977e-07
8.55874e-08
8.558e-08
1.14971e-07
1.51085e-07
1.83446e-07
2.02544e-07
2.02547e-07
1.83453e-07
1.51094e-07
1.1498e-07
8.55884e-08
8.55828e-08
1.14975e-07
1.5109e-07
1.83452e-07
2.02551e-07
2.02553e-07
1.83458e-07
1.51097e-07
1.14982e-07
8.55889e-08
8.55761e-08
1.14968e-07
1.51084e-07
1.83448e-07
2.02548e-07
2.02552e-07
1.83457e-07
1.51097e-07
1.14981e-07
8.55887e-08
8.5555e-08
1.14944e-07
1.5106e-07
1.83425e-07
2.02529e-07
2.02537e-07
1.83446e-07
1.5109e-07
1.14977e-07
8.55867e-08
8.5516e-08
1.14899e-07
1.51012e-07
1.83379e-07
2.02488e-07
2.02504e-07
1.83422e-07
1.51074e-07
1.14967e-07
8.55818e-08
8.54561e-08
1.14829e-07
1.50935e-07
1.83301e-07
2.02416e-07
2.02442e-07
1.83374e-07
1.51039e-07
1.14945e-07
8.55686e-08
8.5381e-08
1.14741e-07
1.50837e-07
1.832e-07
2.02321e-07
2.02359e-07
1.83306e-07
1.50989e-07
1.1491e-07
8.55465e-08
8.52817e-08
1.14617e-07
1.50691e-07
1.8304e-07
2.02159e-07
2.02207e-07
1.83175e-07
1.50883e-07
1.14832e-07
8.54915e-08
8.52053e-08
1.14525e-07
1.50586e-07
1.82929e-07
2.02048e-07
2.02104e-07
1.83084e-07
1.50807e-07
1.14771e-07
8.54457e-08
8.50481e-08
1.14311e-07
1.50305e-07
1.82592e-07
2.0168e-07
2.01735e-07
1.82744e-07
1.50518e-07
1.14544e-07
8.5274e-08
5.84368e-07
8.28589e-07
1.09509e-06
1.31565e-06
1.44047e-06
1.44047e-06
1.31565e-06
1.09509e-06
8.28589e-07
5.84368e-07
2.35124e-07
3.22818e-07
4.26153e-07
5.15487e-07
5.67298e-07
5.67298e-07
5.15487e-07
4.26153e-07
3.22818e-07
2.35124e-07
8.23358e-08
1.10261e-07
1.44695e-07
1.75724e-07
1.94052e-07
1.94052e-07
1.75724e-07
1.44695e-07
1.10261e-07
8.23357e-08
1.07665e-07
1.4522e-07
1.90604e-07
2.30858e-07
2.54462e-07
2.54462e-07
2.30858e-07
1.90604e-07
1.45219e-07
1.07664e-07
8.39472e-08
1.12613e-07
1.47885e-07
1.79516e-07
1.98184e-07
1.98184e-07
1.79516e-07
1.47885e-07
1.12613e-07
8.3947e-08
9.09275e-08
1.22294e-07
1.6067e-07
1.94963e-07
2.15167e-07
2.15167e-07
1.94963e-07
1.60669e-07
1.22293e-07
9.0927e-08
8.50841e-08
1.14263e-07
1.50135e-07
1.82291e-07
2.01269e-07
2.01268e-07
1.8229e-07
1.50135e-07
1.14262e-07
8.50832e-08
8.69433e-08
1.16838e-07
1.5353e-07
1.86387e-07
2.05768e-07
2.05768e-07
1.86386e-07
1.53529e-07
1.16836e-07
8.69417e-08
8.54476e-08
1.14781e-07
1.50831e-07
1.83136e-07
2.022e-07
2.022e-07
1.83134e-07
1.50828e-07
1.14779e-07
8.54451e-08
8.59399e-08
1.15463e-07
1.51728e-07
1.84218e-07
2.03389e-07
2.03388e-07
1.84216e-07
1.51725e-07
1.15459e-07
8.59361e-08
8.55517e-08
1.14929e-07
1.51027e-07
1.83374e-07
2.02462e-07
2.0246e-07
1.8337e-07
1.51022e-07
1.14923e-07
8.55462e-08
8.56816e-08
1.15108e-07
1.51264e-07
1.83658e-07
2.02774e-07
2.02772e-07
1.83654e-07
1.51257e-07
1.15101e-07
8.56742e-08
8.55804e-08
1.14969e-07
1.5108e-07
1.83437e-07
2.02531e-07
2.02529e-07
1.83431e-07
1.51071e-07
1.14959e-07
8.5571e-08
8.56146e-08
1.15016e-07
1.51142e-07
1.83511e-07
2.02612e-07
2.02609e-07
1.83504e-07
1.51132e-07
1.15005e-07
8.56034e-08
8.55881e-08
1.14979e-07
1.51094e-07
1.83453e-07
2.02547e-07
2.02544e-07
1.83445e-07
1.51082e-07
1.14967e-07
8.55757e-08
8.5597e-08
1.14992e-07
1.51109e-07
1.83472e-07
2.02568e-07
2.02565e-07
1.83463e-07
1.51098e-07
1.14979e-07
8.55843e-08
8.55899e-08
1.14982e-07
1.51097e-07
1.83457e-07
2.02551e-07
2.02549e-07
1.83449e-07
1.51086e-07
1.1497e-07
8.55778e-08
8.55919e-08
1.14985e-07
1.51101e-07
1.83462e-07
2.02558e-07
2.02555e-07
1.83455e-07
1.51091e-07
1.14974e-07
8.55816e-08
8.55897e-08
1.14982e-07
1.51098e-07
1.83459e-07
2.02555e-07
2.02553e-07
1.83453e-07
1.51091e-07
1.14974e-07
8.55819e-08
8.55901e-08
1.14983e-07
1.511e-07
1.83461e-07
2.02558e-07
2.02557e-07
1.83458e-07
1.51095e-07
1.14978e-07
8.5585e-08
8.55895e-08
1.14983e-07
1.511e-07
1.83462e-07
2.02559e-07
2.02559e-07
1.8346e-07
1.51097e-07
1.1498e-07
8.55872e-08
8.55897e-08
1.14984e-07
1.51101e-07
1.83464e-07
2.02562e-07
2.02562e-07
1.83464e-07
1.51101e-07
1.14984e-07
8.55898e-08
8.55898e-08
1.14984e-07
1.51102e-07
1.83465e-07
2.02564e-07
2.02565e-07
1.83467e-07
1.51104e-07
1.14986e-07
8.55919e-08
8.55899e-08
1.14984e-07
1.51103e-07
1.83467e-07
2.02567e-07
2.02568e-07
1.8347e-07
1.51107e-07
1.14989e-07
8.5594e-08
8.55897e-08
1.14985e-07
1.51103e-07
1.83468e-07
2.02569e-07
2.0257e-07
1.83472e-07
1.51109e-07
1.14991e-07
8.55959e-08
8.55893e-08
1.14984e-07
1.51104e-07
1.83469e-07
2.0257e-07
2.02572e-07
1.83474e-07
1.51111e-07
1.14993e-07
8.55977e-08
8.55887e-08
1.14984e-07
1.51103e-07
1.83469e-07
2.02571e-07
2.02573e-07
1.83476e-07
1.51113e-07
1.14995e-07
8.55993e-08
8.55883e-08
1.14984e-07
1.51103e-07
1.8347e-07
2.02572e-07
2.02574e-07
1.83478e-07
1.51115e-07
1.14996e-07
8.56006e-08
8.55883e-08
1.14984e-07
1.51104e-07
1.8347e-07
2.02572e-07
2.02575e-07
1.83479e-07
1.51116e-07
1.14997e-07
8.56013e-08
8.55889e-08
1.14984e-07
1.51104e-07
1.83471e-07
2.02573e-07
2.02576e-07
1.83479e-07
1.51116e-07
1.14997e-07
8.5601e-08
8.55898e-08
1.14985e-07
1.51105e-07
1.83471e-07
2.02572e-07
2.02575e-07
1.83477e-07
1.51114e-07
1.14995e-07
8.55989e-08
8.55908e-08
1.14986e-07
1.51105e-07
1.8347e-07
2.02571e-07
2.02572e-07
1.83474e-07
1.51109e-07
1.1499e-07
8.55948e-08
8.55914e-08
1.14986e-07
1.51104e-07
1.83468e-07
2.02567e-07
2.02566e-07
1.83467e-07
1.51102e-07
1.14983e-07
8.55885e-08
8.55912e-08
1.14985e-07
1.51101e-07
1.83463e-07
2.0256e-07
2.02558e-07
1.83457e-07
1.51092e-07
1.14974e-07
8.55805e-08
8.55903e-08
1.14982e-07
1.51097e-07
1.83457e-07
2.02551e-07
2.02547e-07
1.83446e-07
1.51081e-07
1.14964e-07
8.5572e-08
8.5589e-08
1.1498e-07
1.51092e-07
1.8345e-07
2.02542e-07
2.02537e-07
1.83435e-07
1.5107e-07
1.14955e-07
8.55647e-08
8.55876e-08
1.14977e-07
1.51088e-07
1.83444e-07
2.02534e-07
2.02528e-07
1.83426e-07
1.51063e-07
1.14949e-07
8.55605e-08
8.55867e-08
1.14976e-07
1.51086e-07
1.83441e-07
2.02531e-07
2.02524e-07
1.83423e-07
1.51062e-07
1.14949e-07
8.55606e-08
8.55865e-08
1.14976e-07
1.51086e-07
1.83441e-07
2.02532e-07
2.02527e-07
1.83427e-07
1.51066e-07
1.14953e-07
8.55652e-08
8.55872e-08
1.14977e-07
1.51089e-07
1.83446e-07
2.02538e-07
2.02534e-07
1.83435e-07
1.51075e-07
1.14962e-07
8.55726e-08
8.55889e-08
1.14981e-07
1.51095e-07
1.83453e-07
2.02547e-07
2.02545e-07
1.83446e-07
1.51085e-07
1.14971e-07
8.558e-08
8.55918e-08
1.14985e-07
1.51101e-07
1.83461e-07
2.02556e-07
2.02553e-07
1.83453e-07
1.51091e-07
1.14975e-07
8.55829e-08
8.55959e-08
1.1499e-07
1.51106e-07
1.83465e-07
2.02559e-07
2.02554e-07
1.83451e-07
1.51086e-07
1.14969e-07
8.55764e-08
8.56015e-08
1.14994e-07
1.51108e-07
1.83464e-07
2.02552e-07
2.02541e-07
1.83433e-07
1.51064e-07
1.14946e-07
8.55555e-08
8.56082e-08
1.14998e-07
1.51107e-07
1.83454e-07
2.02532e-07
2.0251e-07
1.83393e-07
1.5102e-07
1.14903e-07
8.55169e-08
8.56188e-08
1.15003e-07
1.51102e-07
1.83435e-07
2.02496e-07
2.02457e-07
1.83329e-07
1.50951e-07
1.14837e-07
8.54579e-08
8.56314e-08
1.15008e-07
1.51093e-07
1.83407e-07
2.02445e-07
2.02387e-07
1.83244e-07
1.50862e-07
1.14753e-07
8.53844e-08
8.56652e-08
1.15033e-07
1.511e-07
1.83386e-07
2.02392e-07
2.02303e-07
1.83139e-07
1.50749e-07
1.14645e-07
8.52892e-08
8.56846e-08
1.15043e-07
1.51093e-07
1.83357e-07
2.02339e-07
2.02229e-07
1.83052e-07
1.5066e-07
1.14563e-07
8.52171e-08
8.57944e-08
1.15147e-07
1.51172e-07
1.83391e-07
2.02314e-07
2.02147e-07
1.82927e-07
1.50515e-07
1.14417e-07
8.50838e-08
)
;
    }
    inlet
    {
        type            calculated;
        value           uniform 0;
    }
    outlet
    {
        type            calculated;
        value           uniform 0;
    }
}


// ************************************************************************* //
