/*--------------------------------*- C++ -*----------------------------------*\
| =========                 |                                                 |
| \\      /  F ield         | OpenFOAM: The Open Source CFD Toolbox           |
|  \\    /   O peration     | Version:  2406                                  |
|   \\  /    A nd           | Website:  www.openfoam.com                      |
|    \\/     M anipulation  |                                                 |
\*---------------------------------------------------------------------------*/
FoamFile
{
    version     2.0;
    format      ascii;
    arch        "LSB;label=32;scalar=64";
    class       volVectorField;
    location    "1.8";
    object      momentError;
}
// * * * * * * * * * * * * * * * * * * * * * * * * * * * * * * * * * * * * * //

dimensions      [0 1 -2 0 0 0 0];

internalField   nonuniform List<vector> 
25000
(
(3.73817e-07 2.79559e-07 6.51305e-07)
(3.66969e-07 2.69667e-07 6.89204e-07)
(3.075e-07 2.85394e-07 7.05651e-07)
(2.31347e-07 2.92754e-07 7.01858e-07)
(1.53829e-07 2.98558e-07 6.92587e-07)
(7.59122e-08 3.08993e-07 6.93919e-07)
(-7.71006e-09 3.23333e-07 7.06597e-07)
(-8.63538e-08 3.39234e-07 7.13117e-07)
(-1.67184e-07 3.43994e-07 6.95174e-07)
(-2.81636e-07 3.58476e-07 6.82731e-07)
(3.51309e-07 2.78806e-07 6.89571e-07)
(3.63943e-07 3.09516e-07 7.1603e-07)
(3.10425e-07 3.29751e-07 7.16275e-07)
(2.32356e-07 3.36803e-07 6.99194e-07)
(1.50571e-07 3.40952e-07 6.81441e-07)
(6.66828e-08 3.49466e-07 6.79518e-07)
(-2.22193e-08 3.61306e-07 6.94296e-07)
(-1.02109e-07 3.69551e-07 7.09094e-07)
(-1.73429e-07 3.62547e-07 7.02485e-07)
(-2.55856e-07 3.58891e-07 6.87457e-07)
(3.73242e-07 2.24241e-07 7.04876e-07)
(3.78448e-07 2.67725e-07 7.14367e-07)
(3.21163e-07 2.91242e-07 7.04126e-07)
(2.41104e-07 2.98971e-07 6.79958e-07)
(1.57057e-07 3.02119e-07 6.57227e-07)
(7.03443e-08 3.07497e-07 6.53174e-07)
(-2.15567e-08 3.1471e-07 6.68869e-07)
(-1.04745e-07 3.1585e-07 6.88227e-07)
(-1.78764e-07 3.00965e-07 6.91654e-07)
(-2.66462e-07 2.8297e-07 6.8978e-07)
(3.9425e-07 1.5293e-07 6.96403e-07)
(3.90184e-07 1.96002e-07 6.93488e-07)
(3.26776e-07 2.19977e-07 6.76913e-07)
(2.44311e-07 2.28616e-07 6.48802e-07)
(1.59669e-07 2.30674e-07 6.23412e-07)
(7.21833e-08 2.32728e-07 6.18052e-07)
(-2.05653e-08 2.35124e-07 6.33832e-07)
(-1.05283e-07 2.31852e-07 6.55095e-07)
(-1.81888e-07 2.15668e-07 6.64169e-07)
(-2.71413e-07 1.94706e-07 6.74322e-07)
(4.14634e-07 8.38349e-08 6.80663e-07)
(4.01733e-07 1.2297e-07 6.70908e-07)
(3.31653e-07 1.461e-07 6.50474e-07)
(2.45645e-07 1.5513e-07 6.20065e-07)
(1.58888e-07 1.56377e-07 5.93445e-07)
(7.10093e-08 1.55239e-07 5.87581e-07)
(-2.14776e-08 1.53213e-07 6.03405e-07)
(-1.06238e-07 1.46902e-07 6.25707e-07)
(-1.82503e-07 1.31891e-07 6.37977e-07)
(-2.69508e-07 1.11873e-07 6.55067e-07)
(4.40018e-07 1.97317e-08 6.73735e-07)
(4.19093e-07 5.45675e-08 6.62545e-07)
(3.40966e-07 7.63122e-08 6.41058e-07)
(2.48996e-07 8.50325e-08 6.09935e-07)
(1.58363e-07 8.48993e-08 5.82994e-07)
(6.80944e-08 8.04105e-08 5.77142e-07)
(-2.51911e-08 7.3937e-08 5.93227e-07)
(-1.09967e-07 6.45101e-08 6.15975e-07)
(-1.85643e-07 5.04662e-08 6.29034e-07)
(-2.70366e-07 3.10055e-08 6.47734e-07)
(4.70964e-07 -4.46583e-08 6.75224e-07)
(4.4008e-07 -1.35474e-08 6.67575e-07)
(3.53183e-07 4.80879e-09 6.4804e-07)
(2.534e-07 1.12715e-08 6.17774e-07)
(1.56417e-07 8.10321e-09 5.91446e-07)
(6.28861e-08 -5.85927e-10 5.86223e-07)
(-3.19705e-08 -1.22799e-08 6.02666e-07)
(-1.17078e-07 -2.49276e-08 6.2521e-07)
(-1.90956e-07 -3.75238e-08 6.36968e-07)
(-2.73874e-07 -5.68086e-08 6.52339e-07)
(4.97853e-07 -1.04779e-07 6.68629e-07)
(4.53487e-07 -7.58499e-08 6.70219e-07)
(3.57027e-07 -6.36721e-08 6.55632e-07)
(2.5052e-07 -6.31174e-08 6.28222e-07)
(1.49249e-07 -7.11587e-08 6.0408e-07)
(5.37291e-08 -8.50643e-08 6.00059e-07)
(-4.08708e-08 -1.02149e-07 6.16521e-07)
(-1.23422e-07 -1.17375e-07 6.38107e-07)
(-1.94492e-07 -1.28409e-07 6.45976e-07)
(-2.75302e-07 -1.49747e-07 6.52578e-07)
(5.13304e-07 -1.59285e-07 6.38041e-07)
(4.47797e-07 -1.3083e-07 6.52815e-07)
(3.43353e-07 -1.29753e-07 6.47822e-07)
(2.35279e-07 -1.38275e-07 6.26793e-07)
(1.3458e-07 -1.52933e-07 6.06976e-07)
(4.19413e-08 -1.72436e-07 6.04602e-07)
(-4.77575e-08 -1.95e-07 6.20173e-07)
(-1.24977e-07 -2.14759e-07 6.37895e-07)
(-1.91846e-07 -2.30097e-07 6.3689e-07)
(-2.66189e-07 -2.65957e-07 6.32515e-07)
(5.65135e-07 -1.98952e-07 6.07491e-07)
(4.48167e-07 -1.83034e-07 6.27071e-07)
(3.3115e-07 -2.04206e-07 6.37643e-07)
(2.24553e-07 -2.24514e-07 6.29307e-07)
(1.27727e-07 -2.45433e-07 6.17077e-07)
(3.93226e-08 -2.70474e-07 6.16957e-07)
(-4.63268e-08 -3.00421e-07 6.29261e-07)
(-1.23119e-07 -3.30047e-07 6.37814e-07)
(-1.97043e-07 -3.58707e-07 6.25046e-07)
(-2.69639e-07 -4.2764e-07 6.26474e-07)
(7.45342e-07 2.92952e-07 2.00389e-06)
(7.48936e-07 3.18824e-07 2.25331e-06)
(7.02608e-07 3.62241e-07 2.51674e-06)
(6.22219e-07 3.84773e-07 2.66656e-06)
(5.18636e-07 4.00119e-07 2.74476e-06)
(4.00472e-07 4.12537e-07 2.78751e-06)
(2.7094e-07 4.20739e-07 2.79818e-06)
(1.45754e-07 4.24711e-07 2.74335e-06)
(2.29367e-08 4.1307e-07 2.58252e-06)
(-1.47419e-07 4.13891e-07 2.53217e-06)
(6.50937e-07 2.52295e-07 2.22851e-06)
(6.96595e-07 3.54068e-07 2.61222e-06)
(6.68836e-07 4.19291e-07 2.92005e-06)
(5.8238e-07 4.43592e-07 3.05001e-06)
(4.66564e-07 4.53092e-07 3.09622e-06)
(3.35063e-07 4.60404e-07 3.12817e-06)
(1.92444e-07 4.63895e-07 3.14538e-06)
(6.02279e-08 4.53092e-07 3.07689e-06)
(-4.96172e-08 4.07851e-07 2.83363e-06)
(-1.80389e-07 3.63982e-07 2.59497e-06)
(6.56703e-07 1.72968e-07 2.46947e-06)
(7.05422e-07 2.95581e-07 2.90372e-06)
(6.63705e-07 3.60635e-07 3.17606e-06)
(5.64753e-07 3.80043e-07 3.2468e-06)
(4.44627e-07 3.84085e-07 3.25603e-06)
(3.11094e-07 3.86604e-07 3.28375e-06)
(1.65221e-07 3.87603e-07 3.33001e-06)
(2.46904e-08 3.74639e-07 3.31107e-06)
(-9.48686e-08 3.23306e-07 3.08585e-06)
(-2.2463e-07 2.5009e-07 2.76708e-06)
(6.75249e-07 7.59292e-08 2.58942e-06)
(7.10611e-07 1.86548e-07 3.01573e-06)
(6.49611e-07 2.44383e-07 3.2328e-06)
(5.43921e-07 2.64143e-07 3.26823e-06)
(4.23925e-07 2.67846e-07 3.26206e-06)
(2.92382e-07 2.66199e-07 3.2853e-06)
(1.49235e-07 2.6051e-07 3.33989e-06)
(7.53099e-09 2.43217e-07 3.35242e-06)
(-1.19343e-07 1.97457e-07 3.17571e-06)
(-2.4756e-07 1.2502e-07 2.84575e-06)
(6.94667e-07 -2.1587e-08 2.6297e-06)
(7.1847e-07 6.72491e-08 3.03789e-06)
(6.43218e-07 1.18844e-07 3.22452e-06)
(5.31465e-07 1.40385e-07 3.24791e-06)
(4.10099e-07 1.44784e-07 3.23674e-06)
(2.79315e-07 1.39858e-07 3.2565e-06)
(1.38376e-07 1.27752e-07 3.31016e-06)
(-8.99125e-10 1.04946e-07 3.3316e-06)
(-1.28505e-07 6.3218e-08 3.18381e-06)
(-2.51336e-07 4.58869e-10 2.86464e-06)
(7.17351e-07 -1.14213e-07 2.624e-06)
(7.35865e-07 -4.84612e-08 3.03845e-06)
(6.5237e-07 -4.2662e-09 3.22873e-06)
(5.33156e-07 1.73119e-08 3.25319e-06)
(4.06598e-07 2.08905e-08 3.24146e-06)
(2.73517e-07 1.16871e-08 3.25975e-06)
(1.32872e-07 -6.57143e-09 3.31112e-06)
(-4.69867e-09 -3.42711e-08 3.32947e-06)
(-1.28678e-07 -7.28166e-08 3.17833e-06)
(-2.44105e-07 -1.24452e-07 2.8551e-06)
(7.40119e-07 -1.98538e-07 2.56933e-06)
(7.57046e-07 -1.58108e-07 3.01406e-06)
(6.72219e-07 -1.26967e-07 3.24177e-06)
(5.45273e-07 -1.10003e-07 3.28024e-06)
(4.10927e-07 -1.10612e-07 3.27221e-06)
(2.73867e-07 -1.25659e-07 3.29087e-06)
(1.32268e-07 -1.51069e-07 3.33847e-06)
(-3.24206e-09 -1.82918e-07 3.34223e-06)
(-1.18057e-07 -2.13548e-07 3.15672e-06)
(-2.24554e-07 -2.5175e-07 2.8143e-06)
(7.5574e-07 -2.63109e-07 2.42633e-06)
(7.62946e-07 -2.44308e-07 2.89162e-06)
(6.82966e-07 -2.3602e-07 3.18039e-06)
(5.55193e-07 -2.32948e-07 3.25564e-06)
(4.17185e-07 -2.42896e-07 3.26154e-06)
(2.78758e-07 -2.65878e-07 3.28131e-06)
(1.38692e-07 -2.97798e-07 3.31651e-06)
(1.0626e-08 -3.28276e-07 3.28533e-06)
(-9.04259e-08 -3.43308e-07 3.04729e-06)
(-1.90824e-07 -3.72356e-07 2.70579e-06)
(7.62357e-07 -3.039e-07 2.14503e-06)
(7.34126e-07 -2.93133e-07 2.57017e-06)
(6.58101e-07 -3.12719e-07 2.89811e-06)
(5.44865e-07 -3.34137e-07 3.03228e-06)
(4.17591e-07 -3.60361e-07 3.07342e-06)
(2.88606e-07 -3.91766e-07 3.09479e-06)
(1.60835e-07 -4.24796e-07 3.09841e-06)
(5.02951e-08 -4.47941e-07 3.01549e-06)
(-3.52864e-08 -4.55329e-07 2.75525e-06)
(-1.29808e-07 -5.04259e-07 2.48347e-06)
(8.53738e-07 -3.48838e-07 1.86239e-06)
(7.3975e-07 -3.38107e-07 2.16234e-06)
(6.44864e-07 -3.81453e-07 2.45062e-06)
(5.47709e-07 -4.2179e-07 2.60596e-06)
(4.43557e-07 -4.61783e-07 2.67855e-06)
(3.3664e-07 -5.01218e-07 2.70865e-06)
(2.30537e-07 -5.39561e-07 2.70141e-06)
(1.33878e-07 -5.72926e-07 2.62491e-06)
(4.34677e-08 -6.07186e-07 2.43609e-06)
(-5.4358e-08 -7.18181e-07 2.33811e-06)
(1.22395e-06 8.6992e-08 2.82686e-06)
(1.19781e-06 1.90958e-07 3.39252e-06)
(1.15757e-06 2.87755e-07 3.96006e-06)
(1.08996e-06 3.49618e-07 4.32472e-06)
(9.90202e-07 4.00265e-07 4.57066e-06)
(8.62405e-07 4.42867e-07 4.76111e-06)
(7.095e-07 4.77462e-07 4.91089e-06)
(5.48513e-07 5.04475e-07 4.97383e-06)
(3.79737e-07 5.09539e-07 4.88251e-06)
(1.64206e-07 5.18882e-07 5.16217e-06)
(9.96749e-07 9.60076e-08 3.22943e-06)
(1.03486e-06 2.69064e-07 3.97936e-06)
(1.03247e-06 3.74175e-07 4.64247e-06)
(9.77532e-07 4.29298e-07 5.03029e-06)
(8.7673e-07 4.63857e-07 5.25533e-06)
(7.38556e-07 4.85485e-07 5.39106e-06)
(5.74459e-07 4.94741e-07 5.45015e-06)
(4.084e-07 4.86335e-07 5.37329e-06)
(2.48615e-07 4.41547e-07 5.06586e-06)
(5.63522e-08 3.89904e-07 4.94863e-06)
(9.39984e-07 5.77507e-08 3.63484e-06)
(9.98621e-07 2.46046e-07 4.50743e-06)
(1.00573e-06 3.49073e-07 5.22887e-06)
(9.53104e-07 3.97683e-07 5.63711e-06)
(8.4907e-07 4.20023e-07 5.85568e-06)
(7.03427e-07 4.2593e-07 5.96965e-06)
(5.31089e-07 4.16984e-07 5.98899e-06)
(3.55955e-07 3.87259e-07 5.84464e-06)
(1.83899e-07 3.19938e-07 5.43457e-06)
(-1.92705e-08 2.25417e-07 5.10716e-06)
(9.23894e-07 -1.17475e-08 3.81401e-06)
(9.83587e-07 1.61719e-07 4.76119e-06)
(9.88014e-07 2.54702e-07 5.51842e-06)
(9.31971e-07 2.95987e-07 5.94095e-06)
(8.22937e-07 3.07688e-07 6.1506e-06)
(6.7319e-07 3.02216e-07 6.25543e-06)
(4.98257e-07 2.81383e-07 6.25888e-06)
(3.20804e-07 2.39743e-07 6.06999e-06)
(1.44336e-07 1.66747e-07 5.59445e-06)
(-5.73927e-08 5.96067e-08 5.14119e-06)
(9.22319e-07 -8.86296e-08 3.84507e-06)
(9.79251e-07 5.40168e-08 4.83859e-06)
(9.76558e-07 1.29023e-07 5.61481e-06)
(9.11575e-07 1.59239e-07 6.03561e-06)
(7.95617e-07 1.60772e-07 6.2268e-06)
(6.45965e-07 1.46585e-07 6.33004e-06)
(4.70985e-07 1.19062e-07 6.33958e-06)
(2.96421e-07 7.38128e-08 6.13482e-06)
(1.24202e-07 4.4405e-09 5.6245e-06)
(-6.66547e-08 -1.0203e-07 5.10163e-06)
(9.31311e-07 -1.63967e-07 3.77744e-06)
(9.84262e-07 -5.81061e-08 4.80084e-06)
(9.74201e-07 -6.15736e-09 5.59134e-06)
(9.01909e-07 1.08869e-08 6.01841e-06)
(7.80642e-07 5.18605e-09 6.21079e-06)
(6.2935e-07 -1.84869e-08 6.31258e-06)
(4.56524e-07 -5.38728e-08 6.31859e-06)
(2.86859e-07 -9.91688e-08 6.10646e-06)
(1.23054e-07 -1.60094e-07 5.5836e-06)
(-5.40989e-08 -2.60554e-07 5.03453e-06)
(9.46182e-07 -2.28367e-07 3.60185e-06)
(9.91766e-07 -1.59495e-07 4.6377e-06)
(9.75678e-07 -1.3389e-07 5.43789e-06)
(8.99495e-07 -1.34283e-07 5.87997e-06)
(7.7649e-07 -1.53669e-07 6.09488e-06)
(6.23702e-07 -1.86394e-07 6.19525e-06)
(4.56046e-07 -2.26755e-07 6.18587e-06)
(2.94406e-07 -2.71484e-07 5.9739e-06)
(1.43923e-07 -3.22943e-07 5.4616e-06)
(-1.73752e-08 -4.1893e-07 4.9299e-06)
(9.64113e-07 -2.70441e-07 3.25471e-06)
(9.92874e-07 -2.30362e-07 4.27344e-06)
(9.69097e-07 -2.31496e-07 5.06456e-06)
(8.90387e-07 -2.52142e-07 5.50576e-06)
(7.70803e-07 -2.87773e-07 5.73415e-06)
(6.25142e-07 -3.31496e-07 5.84045e-06)
(4.68314e-07 -3.78601e-07 5.83682e-06)
(3.20667e-07 -4.25263e-07 5.65443e-06)
(1.88919e-07 -4.70212e-07 5.18541e-06)
(4.56131e-08 -5.70472e-07 4.7261e-06)
(9.89623e-07 -2.86353e-07 2.6381e-06)
(9.8139e-07 -2.62183e-07 3.58387e-06)
(9.47461e-07 -2.89241e-07 4.3364e-06)
(8.72405e-07 -3.31504e-07 4.76652e-06)
(7.65091e-07 -3.84474e-07 5.00395e-06)
(6.37583e-07 -4.41378e-07 5.12796e-06)
(5.02076e-07 -4.99559e-07 5.15421e-06)
(3.77843e-07 -5.53855e-07 5.02535e-06)
(2.71941e-07 -6.0655e-07 4.63903e-06)
(1.58809e-07 -7.408e-07 4.33791e-06)
(1.15423e-06 -3.07798e-07 1.87646e-06)
(1.05926e-06 -2.90221e-07 2.7124e-06)
(1.00218e-06 -3.46701e-07 3.39836e-06)
(9.33369e-07 -4.09666e-07 3.82152e-06)
(8.45788e-07 -4.79572e-07 4.08586e-06)
(7.4445e-07 -5.53173e-07 4.26033e-06)
(6.36712e-07 -6.31267e-07 4.36272e-06)
(5.33577e-07 -7.12344e-07 4.34897e-06)
(4.38329e-07 -8.08724e-07 4.14299e-06)
(3.50696e-07 -1.02715e-06 4.16017e-06)
(1.90185e-06 -4.75602e-07 3.17659e-06)
(1.84268e-06 -1.95736e-07 4.20019e-06)
(1.80999e-06 8.04521e-09 5.17861e-06)
(1.75869e-06 1.45303e-07 5.87905e-06)
(1.67544e-06 2.58964e-07 6.4268e-06)
(1.56037e-06 3.51528e-07 6.90376e-06)
(1.40915e-06 4.23274e-07 7.33018e-06)
(1.2311e-06 4.72177e-07 7.65889e-06)
(1.02894e-06 4.88045e-07 7.80936e-06)
(8.17063e-07 4.83371e-07 8.76784e-06)
(1.42734e-06 -4.40406e-07 3.7878e-06)
(1.44684e-06 -1.19312e-07 4.96757e-06)
(1.46898e-06 6.9799e-08 6.01691e-06)
(1.44672e-06 1.85822e-07 6.69706e-06)
(1.37895e-06 2.69518e-07 7.17048e-06)
(1.26612e-06 3.28162e-07 7.52341e-06)
(1.11186e-06 3.6235e-07 7.77448e-06)
(9.32498e-07 3.63342e-07 7.86601e-06)
(7.37738e-07 3.11671e-07 7.67089e-06)
(5.18445e-07 2.35271e-07 7.95602e-06)
(1.2556e-06 -4.46855e-07 4.33002e-06)
(1.32029e-06 -1.37753e-07 5.64091e-06)
(1.36466e-06 2.97127e-08 6.73845e-06)
(1.35716e-06 1.23527e-07 7.43409e-06)
(1.29979e-06 1.80541e-07 7.90105e-06)
(1.18504e-06 2.1044e-07 8.20003e-06)
(1.01964e-06 2.18377e-07 8.35218e-06)
(8.25897e-07 1.94544e-07 8.33744e-06)
(6.11642e-07 1.16408e-07 8.01279e-06)
(3.7051e-07 -1.49227e-08 7.96615e-06)
(1.17518e-06 -4.78841e-07 4.53091e-06)
(1.26069e-06 -2.08559e-07 5.93237e-06)
(1.31762e-06 -6.83832e-08 7.08129e-06)
(1.32726e-06 5.18426e-09 7.86659e-06)
(1.28442e-06 4.51315e-08 8.43184e-06)
(1.16533e-06 5.15758e-08 8.68994e-06)
(9.83137e-07 3.67438e-08 8.67791e-06)
(7.72857e-07 -1.68677e-09 8.53177e-06)
(5.46145e-07 -8.72972e-08 8.11219e-06)
(3.05282e-07 -2.40848e-07 7.86373e-06)
(1.13056e-06 -5.09916e-07 4.50671e-06)
(1.23317e-06 -2.92183e-07 5.98184e-06)
(1.30105e-06 -1.8515e-07 7.18788e-06)
(1.33005e-06 -1.3571e-07 8.11211e-06)
(1.30169e-06 -1.1813e-07 8.90224e-06)
(1.1703e-06 -1.22689e-07 9.11733e-06)
(9.68764e-07 -1.48542e-07 8.85547e-06)
(7.50959e-07 -1.95109e-07 8.56408e-06)
(5.22477e-07 -2.81554e-07 8.06738e-06)
(2.95128e-07 -4.47414e-07 7.69514e-06)
(1.11502e-06 -5.33659e-07 4.31933e-06)
(1.22852e-06 -3.71041e-07 5.85524e-06)
(1.29833e-06 -2.99543e-07 7.09009e-06)
(1.32568e-06 -2.75755e-07 8.0304e-06)
(1.29233e-06 -2.82897e-07 8.83187e-06)
(1.16135e-06 -3.02326e-07 9.04623e-06)
(9.61043e-07 -3.27556e-07 8.77056e-06)
(7.50199e-07 -3.78902e-07 8.46069e-06)
(5.34256e-07 -4.6433e-07 7.93687e-06)
(3.28207e-07 -6.3893e-07 7.50713e-06)
(1.12448e-06 -5.35791e-07 3.95478e-06)
(1.24101e-06 -4.2751e-07 5.53697e-06)
(1.30394e-06 -3.92477e-07 6.7713e-06)
(1.30854e-06 -3.92909e-07 7.60248e-06)
(1.25853e-06 -4.2072e-07 8.18889e-06)
(1.13855e-06 -4.50802e-07 8.44323e-06)
(9.64624e-07 -4.89749e-07 8.40171e-06)
(7.75437e-07 -5.50999e-07 8.20304e-06)
(5.85801e-07 -6.36199e-07 7.7048e-06)
(4.07934e-07 -8.23447e-07 7.28517e-06)
(1.16257e-06 -5.02784e-07 3.32888e-06)
(1.26988e-06 -4.41023e-07 4.93663e-06)
(1.32517e-06 -4.42725e-07 6.17008e-06)
(1.31661e-06 -4.68584e-07 6.93668e-06)
(1.25635e-06 -5.12984e-07 7.43046e-06)
(1.14716e-06 -5.65778e-07 7.72093e-06)
(1.00127e-06 -6.28194e-07 7.83039e-06)
(8.42995e-07 -7.02152e-07 7.7366e-06)
(6.86696e-07 -7.90006e-07 7.28973e-06)
(5.42115e-07 -9.97933e-07 6.95664e-06)
(1.24679e-06 -4.19384e-07 2.29514e-06)
(1.31918e-06 -3.95205e-07 3.87943e-06)
(1.36593e-06 -4.35553e-07 5.09975e-06)
(1.35932e-06 -4.93315e-07 5.86916e-06)
(1.30785e-06 -5.65915e-07 6.37505e-06)
(1.21854e-06 -6.45596e-07 6.7119e-06)
(1.10294e-06 -7.3275e-07 6.90198e-06)
(9.79914e-07 -8.244e-07 6.88816e-06)
(8.64053e-07 -9.30972e-07 6.53259e-06)
(7.76226e-07 -1.19134e-06 6.41245e-06)
(1.57963e-06 -3.29071e-07 8.41325e-07)
(1.55943e-06 -3.24401e-07 2.46822e-06)
(1.58664e-06 -4.1266e-07 3.68374e-06)
(1.58859e-06 -5.07014e-07 4.50714e-06)
(1.55837e-06 -6.13276e-07 5.09878e-06)
(1.49966e-06 -7.26859e-07 5.55031e-06)
(1.4209e-06 -8.50292e-07 5.88562e-06)
(1.33195e-06 -9.84501e-07 6.05741e-06)
(1.24712e-06 -1.158e-06 5.96803e-06)
(1.22592e-06 -1.52711e-06 6.31535e-06)
(3.40579e-06 -1.34468e-06 2.60074e-06)
(3.30044e-06 -7.90916e-07 4.65986e-06)
(3.29016e-06 -4.13487e-07 6.43325e-06)
(3.25984e-06 -1.528e-07 7.80223e-06)
(3.16947e-06 6.54815e-08 8.9681e-06)
(3.01027e-06 2.45187e-07 1.00564e-05)
(2.77156e-06 3.88128e-07 1.11066e-05)
(2.46532e-06 4.88438e-07 1.20782e-05)
(2.10293e-06 5.33812e-07 1.28957e-05)
(1.76109e-06 5.06753e-07 1.53475e-05)
(2.52783e-06 -1.13375e-06 3.66362e-06)
(2.56056e-06 -5.71762e-07 5.77497e-06)
(2.63819e-06 -2.58463e-07 7.52844e-06)
(2.66212e-06 -5.80005e-08 8.75672e-06)
(2.60942e-06 9.09671e-08 9.71405e-06)
(2.46732e-06 1.98215e-07 1.05291e-05)
(2.23417e-06 2.67889e-07 1.12356e-05)
(1.93125e-06 2.8537e-07 1.17715e-05)
(1.57534e-06 2.28589e-07 1.19775e-05)
(1.19692e-06 1.0847e-07 1.31888e-05)
(2.16153e-06 -1.03358e-06 4.378e-06)
(2.28081e-06 -5.14216e-07 6.60223e-06)
(2.40712e-06 -2.49917e-07 8.36237e-06)
(2.46496e-06 -9.85954e-08 9.54404e-06)
(2.439e-06 -6.84315e-09 1.04344e-05)
(2.30179e-06 4.47598e-08 1.11335e-05)
(2.05569e-06 6.70938e-08 1.167e-05)
(1.73621e-06 3.96381e-08 1.20534e-05)
(1.35929e-06 -6.41669e-08 1.20673e-05)
(9.50444e-07 -2.68673e-07 1.27015e-05)
(1.97253e-06 -9.92342e-07 4.55423e-06)
(2.13299e-06 -5.36169e-07 6.8739e-06)
(2.29135e-06 -3.18133e-07 8.66288e-06)
(2.39047e-06 -2.10646e-07 9.92455e-06)
(2.41534e-06 -1.6564e-07 1.09352e-05)
(2.27579e-06 -1.61952e-07 1.15527e-05)
(1.98552e-06 -1.64985e-07 1.18023e-05)
(1.63666e-06 -2.18356e-07 1.20252e-05)
(1.248e-06 -3.44411e-07 1.19158e-05)
(8.46752e-07 -5.97785e-07 1.2197e-05)
(1.86621e-06 -9.56406e-07 4.36849e-06)
(2.05663e-06 -5.79441e-07 6.79516e-06)
(2.24284e-06 -4.13379e-07 8.65448e-06)
(2.39397e-06 -3.52578e-07 1.01585e-05)
(2.49329e-06 -3.53948e-07 1.16783e-05)
(2.34709e-06 -3.688e-07 1.20648e-05)
(1.98733e-06 -3.90458e-07 1.18712e-05)
(1.59942e-06 -4.59946e-07 1.18586e-05)
(1.21056e-06 -6.00848e-07 1.16334e-05)
(8.35064e-07 -8.93842e-07 1.16888e-05)
(1.82403e-06 -9.12924e-07 3.90612e-06)
(2.03279e-06 -6.1778e-07 6.458e-06)
(2.22603e-06 -5.04479e-07 8.37096e-06)
(2.37907e-06 -4.82387e-07 9.90523e-06)
(2.4699e-06 -5.16682e-07 1.15134e-05)
(2.32345e-06 -5.56051e-07 1.18994e-05)
(1.96671e-06 -5.95061e-07 1.16132e-05)
(1.59799e-06 -6.80356e-07 1.15657e-05)
(1.23566e-06 -8.34666e-07 1.12886e-05)
(8.99079e-07 -1.16413e-06 1.12236e-05)
(1.83657e-06 -8.3823e-07 3.14479e-06)
(2.05011e-06 -6.24522e-07 5.83946e-06)
(2.22993e-06 -5.63788e-07 7.79336e-06)
(2.3298e-06 -5.73928e-07 9.15373e-06)
(2.34687e-06 -6.31402e-07 1.02215e-05)
(2.21064e-06 -6.86598e-07 1.08338e-05)
(1.94208e-06 -7.65842e-07 1.10128e-05)
(1.64221e-06 -8.82045e-07 1.11234e-05)
(1.33095e-06 -1.05343e-06 1.08574e-05)
(1.04518e-06 -1.42478e-06 1.07764e-05)
(1.91243e-06 -7.17138e-07 1.95529e-06)
(2.11486e-06 -5.75386e-07 4.80503e-06)
(2.27946e-06 -5.6597e-07 6.82542e-06)
(2.34931e-06 -6.12681e-07 8.14666e-06)
(2.32739e-06 -6.95676e-07 9.08967e-06)
(2.20755e-06 -7.9459e-07 9.77558e-06)
(2.00728e-06 -9.14967e-07 1.02328e-05)
(1.76792e-06 -1.06392e-06 1.04589e-05)
(1.51315e-06 -1.25615e-06 1.02301e-05)
(1.28747e-06 -1.67608e-06 1.0251e-05)
(2.08487e-06 -5.2832e-07 1.07957e-07)
(2.24037e-06 -4.51237e-07 3.09446e-06)
(2.38887e-06 -4.95742e-07 5.17825e-06)
(2.45479e-06 -5.87639e-07 6.57932e-06)
(2.43872e-06 -7.14865e-07 7.60056e-06)
(2.34683e-06 -8.61799e-07 8.38732e-06)
(2.19541e-06 -1.03113e-06 8.97766e-06)
(2.01237e-06 -1.2215e-06 9.30404e-06)
(1.82469e-06 -1.45684e-06 9.1858e-06)
(1.70477e-06 -1.96222e-06 9.50806e-06)
(2.66989e-06 -3.12319e-07 -2.9099e-06)
(2.69979e-06 -2.73885e-07 5.11531e-07)
(2.82625e-06 -3.93476e-07 2.77652e-06)
(2.9022e-06 -5.44613e-07 4.40014e-06)
(2.91378e-06 -7.28952e-07 5.65925e-06)
(2.86609e-06 -9.36133e-07 6.69939e-06)
(2.77365e-06 -1.17094e-06 7.56558e-06)
(2.65166e-06 -1.43541e-06 8.20894e-06)
(2.5333e-06 -1.78301e-06 8.51509e-06)
(2.55166e-06 -2.44636e-06 9.58082e-06)
(5.44868e-06 -3.03756e-06 4.06516e-07)
(5.26066e-06 -2.02924e-06 4.03977e-06)
(5.27551e-06 -1.40006e-06 6.98541e-06)
(5.26942e-06 -9.68981e-07 9.40154e-06)
(5.172e-06 -6.09404e-07 1.15751e-05)
(4.97386e-06 -3.13261e-07 1.36799e-05)
(4.66018e-06 -7.30218e-08 1.57837e-05)
(4.24285e-06 9.88184e-08 1.7883e-05)
(3.74345e-06 2.00672e-07 1.99557e-05)
(3.35682e-06 1.42339e-07 2.50522e-05)
(3.94997e-06 -2.68702e-06 2.06528e-06)
(3.96149e-06 -1.75343e-06 5.5215e-06)
(4.109e-06 -1.26018e-06 8.2824e-06)
(4.1935e-06 -9.29352e-07 1.03663e-05)
(4.16809e-06 -6.72494e-07 1.21172e-05)
(4.01197e-06 -4.77643e-07 1.3706e-05)
(3.71838e-06 -3.39087e-07 1.51855e-05)
(3.3105e-06 -2.77713e-07 1.65148e-05)
(2.81451e-06 -3.1016e-07 1.75457e-05)
(2.33201e-06 -4.67319e-07 2.05153e-05)
(3.26566e-06 -2.48784e-06 2.89898e-06)
(3.43717e-06 -1.66644e-06 6.42529e-06)
(3.67322e-06 -1.26519e-06 9.15156e-06)
(3.82184e-06 -1.016e-06 1.11175e-05)
(3.85197e-06 -8.49162e-07 1.27122e-05)
(3.71364e-06 -7.3518e-07 1.40917e-05)
(3.40659e-06 -6.6357e-07 1.52905e-05)
(2.98127e-06 -6.66361e-07 1.63693e-05)
(2.46002e-06 -7.66831e-07 1.7082e-05)
(1.93297e-06 -1.04203e-06 1.90861e-05)
(2.88421e-06 -2.34307e-06 2.95575e-06)
(3.14599e-06 -1.64119e-06 6.58614e-06)
(3.45231e-06 -1.32254e-06 9.33047e-06)
(3.68367e-06 -1.15609e-06 1.13581e-05)
(3.81545e-06 -1.08298e-06 1.30334e-05)
(3.68237e-06 -1.03774e-06 1.42781e-05)
(3.30055e-06 -9.87436e-07 1.50796e-05)
(2.83191e-06 -1.02422e-06 1.59562e-05)
(2.29859e-06 -1.16413e-06 1.64759e-05)
(1.78307e-06 -1.5219e-06 1.78747e-05)
(2.64625e-06 -2.18275e-06 2.47071e-06)
(2.98105e-06 -1.61278e-06 6.26193e-06)
(3.35307e-06 -1.38183e-06 9.09998e-06)
(3.68806e-06 -1.30902e-06 1.14502e-05)
(3.98024e-06 -1.34397e-06 1.37658e-05)
(3.8522e-06 -1.33071e-06 1.44797e-05)
(3.33951e-06 -1.28006e-06 1.48768e-05)
(2.80163e-06 -1.33012e-06 1.54508e-05)
(2.26849e-06 -1.50165e-06 1.5791e-05)
(1.78917e-06 -1.93787e-06 1.67944e-05)
(2.52771e-06 -1.99578e-06 1.54773e-06)
(2.91244e-06 -1.5515e-06 5.56302e-06)
(3.31376e-06 -1.39974e-06 8.49411e-06)
(3.66789e-06 -1.38473e-06 1.08977e-05)
(3.96198e-06 -1.46623e-06 1.34386e-05)
(3.85039e-06 -1.50823e-06 1.41533e-05)
(3.34851e-06 -1.49516e-06 1.43205e-05)
(2.84082e-06 -1.57669e-06 1.48352e-05)
(2.34729e-06 -1.78431e-06 1.50843e-05)
(1.92415e-06 -2.29912e-06 1.58656e-05)
(2.51988e-06 -1.74779e-06 1.52156e-07)
(2.93096e-06 -1.42435e-06 4.45771e-06)
(3.32457e-06 -1.34381e-06 7.49065e-06)
(3.60625e-06 -1.36244e-06 9.70656e-06)
(3.76964e-06 -1.44997e-06 1.1499e-05)
(3.67609e-06 -1.52426e-06 1.27396e-05)
(3.34614e-06 -1.61511e-06 1.34107e-05)
(2.95978e-06 -1.77102e-06 1.40816e-05)
(2.54311e-06 -2.0274e-06 1.43229e-05)
(2.1955e-06 -2.63264e-06 1.50515e-05)
(2.64395e-06 -1.42011e-06 -1.89617e-06)
(3.05648e-06 -1.20477e-06 2.76638e-06)
(3.43608e-06 -1.19347e-06 5.94485e-06)
(3.67917e-06 -1.25991e-06 8.16489e-06)
(3.77931e-06 -1.38009e-06 9.86378e-06)
(3.71464e-06 -1.52443e-06 1.12301e-05)
(3.5058e-06 -1.70023e-06 1.22971e-05)
(3.21656e-06 -1.92845e-06 1.30999e-05)
(2.88202e-06 -2.24012e-06 1.33832e-05)
(2.62632e-06 -2.94283e-06 1.4245e-05)
(2.96717e-06 -9.75319e-07 -4.9197e-06)
(3.32337e-06 -8.64484e-07 1.54619e-07)
(3.68254e-06 -9.30008e-07 3.4911e-06)
(3.9213e-06 -1.06271e-06 5.88547e-06)
(4.02943e-06 -1.25247e-06 7.76075e-06)
(4.00672e-06 -1.47733e-06 9.31332e-06)
(3.87319e-06 -1.74261e-06 1.05996e-05)
(3.66623e-06 -2.05108e-06 1.15611e-05)
(3.42939e-06 -2.44761e-06 1.20119e-05)
(3.34215e-06 -3.29372e-06 1.3304e-05)
(3.97505e-06 -4.94841e-07 -1.03674e-05)
(4.16691e-06 -4.3787e-07 -4.13786e-06)
(4.50146e-06 -6.15204e-07 -2.96714e-07)
(4.75577e-06 -8.41914e-07 2.58924e-06)
(4.90307e-06 -1.12676e-06 4.94298e-06)
(4.94609e-06 -1.45352e-06 6.97348e-06)
(4.90357e-06 -1.82996e-06 8.75301e-06)
(4.7933e-06 -2.26126e-06 1.0252e-05)
(4.67325e-06 -2.84339e-06 1.13745e-05)
(4.82171e-06 -3.9226e-06 1.38057e-05)
(8.86933e-06 -5.55864e-06 -4.30489e-06)
(8.55448e-06 -3.86158e-06 2.04292e-06)
(8.60312e-06 -2.80463e-06 6.94501e-06)
(8.62562e-06 -2.05518e-06 1.11415e-05)
(8.49723e-06 -1.41818e-06 1.50582e-05)
(8.19707e-06 -8.86726e-07 1.89514e-05)
(7.70025e-06 -4.52848e-07 2.29486e-05)
(7.02016e-06 -1.40191e-07 2.71186e-05)
(6.18906e-06 4.71734e-08 3.1549e-05)
(5.54935e-06 -7.87966e-08 4.13594e-05)
(6.48088e-06 -4.75513e-06 -1.6871e-06)
(6.5025e-06 -3.2605e-06 4.0413e-06)
(6.75832e-06 -2.48295e-06 8.4375e-06)
(6.92426e-06 -1.93739e-06 1.19564e-05)
(6.91198e-06 -1.49603e-06 1.50763e-05)
(6.67963e-06 -1.14963e-06 1.80342e-05)
(6.21459e-06 -8.90673e-07 2.09247e-05)
(5.54941e-06 -7.53585e-07 2.37534e-05)
(4.71975e-06 -7.59135e-07 2.6421e-05)
(3.92559e-06 -1.0034e-06 3.26009e-05)
(5.35258e-06 -4.30469e-06 -7.69454e-07)
(5.64268e-06 -3.01708e-06 4.92985e-06)
(6.0511e-06 -2.40884e-06 9.21471e-06)
(6.32663e-06 -2.01607e-06 1.24991e-05)
(6.40699e-06 -1.73882e-06 1.53104e-05)
(6.2071e-06 -1.53589e-06 1.78955e-05)
(5.72409e-06 -1.39466e-06 2.03066e-05)
(5.03463e-06 -1.36374e-06 2.26963e-05)
(4.1725e-06 -1.47555e-06 2.48231e-05)
(3.3151e-06 -1.89007e-06 2.93885e-05)
(4.70951e-06 -3.97928e-06 -9.7917e-07)
(5.1445e-06 -2.88014e-06 4.83448e-06)
(5.67233e-06 -2.40611e-06 9.12374e-06)
(6.08922e-06 -2.15854e-06 1.24411e-05)
(6.34789e-06 -2.04816e-06 1.52384e-05)
(6.1631e-06 -1.95901e-06 1.75969e-05)
(5.55884e-06 -1.86431e-06 1.94484e-05)
(4.80572e-06 -1.8971e-06 2.15402e-05)
(3.92973e-06 -2.08176e-06 2.33325e-05)
(3.09263e-06 -2.63274e-06 2.68597e-05)
(4.30716e-06 -3.64102e-06 -2.00382e-06)
(4.85083e-06 -2.74066e-06 4.06764e-06)
(5.48814e-06 -2.40134e-06 8.48922e-06)
(6.08283e-06 -2.3114e-06 1.22209e-05)
(6.62695e-06 -2.39613e-06 1.57803e-05)
(6.45599e-06 -2.37028e-06 1.71666e-05)
(5.62442e-06 -2.27152e-06 1.87203e-05)
(4.76577e-06 -2.33394e-06 2.04145e-05)
(3.89503e-06 -2.58489e-06 2.19067e-05)
(3.11409e-06 -3.27415e-06 2.47403e-05)
(4.10667e-06 -3.26643e-06 -3.72547e-06)
(4.72166e-06 -2.55178e-06 2.75687e-06)
(5.40593e-06 -2.32842e-06 7.34148e-06)
(6.03118e-06 -2.32735e-06 1.11622e-05)
(6.58392e-06 -2.48625e-06 1.51492e-05)
(6.45052e-06 -2.57249e-06 1.65362e-05)
(5.64254e-06 -2.53997e-06 1.76503e-05)
(4.83529e-06 -2.66628e-06 1.92416e-05)
(4.03173e-06 -2.99303e-06 2.05718e-05)
(3.34016e-06 -3.82538e-06 2.29989e-05)
(4.0932e-06 -2.8019e-06 -6.2055e-06)
(4.74239e-06 -2.26477e-06 8.49583e-07)
(5.41294e-06 -2.14386e-06 5.64949e-06)
(5.92123e-06 -2.18856e-06 9.29927e-06)
(6.24374e-06 -2.34705e-06 1.22991e-05)
(6.13943e-06 -2.49216e-06 1.46459e-05)
(5.63481e-06 -2.64676e-06 1.62636e-05)
(5.02805e-06 -2.91002e-06 1.79842e-05)
(4.35077e-06 -3.33465e-06 1.92748e-05)
(3.78137e-06 -4.32964e-06 2.157e-05)
(4.29662e-06 -2.22912e-06 -9.70849e-06)
(4.94676e-06 -1.85107e-06 -1.90543e-06)
(5.59299e-06 -1.82807e-06 3.18349e-06)
(6.03603e-06 -1.94265e-06 6.91446e-06)
(6.2487e-06 -2.15071e-06 9.90512e-06)
(6.18796e-06 -2.40289e-06 1.24615e-05)
(5.88373e-06 -2.70835e-06 1.46344e-05)
(5.43402e-06 -3.10223e-06 1.65247e-05)
(4.889e-06 -3.63257e-06 1.78706e-05)
(4.47007e-06 -4.79736e-06 2.03259e-05)
(4.81348e-06 -1.50406e-06 -1.47059e-05)
(5.38542e-06 -1.28191e-06 -5.95511e-06)
(5.99888e-06 -1.36624e-06 -5.21432e-07)
(6.42861e-06 -1.57605e-06 3.55053e-06)
(6.64537e-06 -1.88983e-06 6.88875e-06)
(6.64434e-06 -2.27022e-06 9.77707e-06)
(6.4551e-06 -2.72506e-06 1.23142e-05)
(6.13276e-06 -3.25731e-06 1.4468e-05)
(5.74465e-06 -3.93606e-06 1.60672e-05)
(5.60353e-06 -5.3333e-06 1.91248e-05)
(6.38076e-06 -7.44456e-07 -2.44347e-05)
(6.72351e-06 -5.92521e-07 -1.32062e-05)
(7.31031e-06 -8.37781e-07 -6.64943e-06)
(7.76085e-06 -1.18721e-06 -1.5855e-06)
(8.03166e-06 -1.64668e-06 2.66474e-06)
(8.12697e-06 -2.18681e-06 6.42049e-06)
(8.07723e-06 -2.81936e-06 9.81591e-06)
(7.90836e-06 -3.5503e-06 1.28674e-05)
(7.71641e-06 -4.53186e-06 1.55286e-05)
(7.963e-06 -6.29659e-06 2.0353e-05)
(1.32682e-05 -8.78962e-06 -1.20799e-05)
(1.28254e-05 -6.22194e-06 -1.71044e-06)
(1.29404e-05 -4.67127e-06 6.09608e-06)
(1.30117e-05 -3.58573e-06 1.30068e-05)
(1.28476e-05 -2.66577e-06 1.96293e-05)
(1.24279e-05 -1.9036e-06 2.63234e-05)
(1.17196e-05 -1.28499e-06 3.33008e-05)
(1.07393e-05 -8.508e-07 4.07504e-05)
(9.54e-06 -5.9804e-07 4.89419e-05)
(8.70816e-06 -8.83536e-07 6.61443e-05)
(9.63988e-06 -7.79092e-06 -8.1968e-06)
(9.66819e-06 -5.53975e-06 8.66298e-07)
(1.00975e-05 -4.40738e-06 7.65587e-06)
(1.03976e-05 -3.61102e-06 1.33561e-05)
(1.04281e-05 -2.962e-06 1.86105e-05)
(1.01327e-05 -2.44786e-06 2.37353e-05)
(9.49044e-06 -2.05944e-06 2.88803e-05)
(8.54155e-06 -1.84737e-06 3.41332e-05)
(7.34264e-06 -1.83241e-06 3.94866e-05)
(6.25285e-06 -2.22334e-06 5.07871e-05)
(7.87273e-06 -7.20343e-06 -7.37379e-06)
(8.31737e-06 -5.27901e-06 1.51535e-06)
(8.98488e-06 -4.40116e-06 8.08388e-06)
(9.46179e-06 -3.82802e-06 1.33822e-05)
(9.65055e-06 -3.41621e-06 1.81019e-05)
(9.42173e-06 -3.10178e-06 2.26137e-05)
(8.76718e-06 -2.87103e-06 2.69876e-05)
(7.79527e-06 -2.79783e-06 3.15225e-05)
(6.55646e-06 -2.91929e-06 3.60148e-05)
(5.37667e-06 -3.53028e-06 4.47436e-05)
(6.8322e-06 -6.72151e-06 -8.1495e-06)
(7.51152e-06 -5.08883e-06 8.77291e-07)
(8.37265e-06 -4.41556e-06 7.44388e-06)
(9.07921e-06 -4.0663e-06 1.27387e-05)
(9.55719e-06 -3.91431e-06 1.7285e-05)
(9.36948e-06 -3.7578e-06 2.14367e-05)
(8.54302e-06 -3.57852e-06 2.50342e-05)
(7.48508e-06 -3.58673e-06 2.91328e-05)
(6.23237e-06 -3.81089e-06 3.30819e-05)
(5.08034e-06 -4.61433e-06 4.01267e-05)
(6.14869e-06 -6.16814e-06 -1.01101e-05)
(7.01228e-06 -4.83526e-06 -6.70588e-07)
(8.05561e-06 -4.36526e-06 6.0938e-06)
(9.04983e-06 -4.26695e-06 1.19277e-05)
(9.98785e-06 -4.44108e-06 1.73965e-05)
(9.83794e-06 -4.37898e-06 1.99065e-05)
(8.67016e-06 -4.15844e-06 2.34058e-05)
(7.46343e-06 -4.19686e-06 2.69892e-05)
(6.22185e-06 -4.5223e-06 3.04587e-05)
(5.14938e-06 -5.53479e-06 3.63588e-05)
(5.77503e-06 -5.52719e-06 -1.31236e-05)
(6.76438e-06 -4.46393e-06 -2.98378e-06)
(7.89586e-06 -4.15889e-06 4.05433e-06)
(8.95201e-06 -4.18594e-06 1.00384e-05)