/*--------------------------------*- C++ -*----------------------------------*\
| =========                 |                                                 |
| \\      /  F ield         | OpenFOAM: The Open Source CFD Toolbox           |
|  \\    /   O peration     | Version:  2406                                  |
|   \\  /    A nd           | Website:  www.openfoam.com                      |
|    \\/     M anipulation  |                                                 |
\*---------------------------------------------------------------------------*/
FoamFile
{
    version     2.0;
    format      ascii;
    arch        "LSB;label=32;scalar=64";
    class       volScalarField;
    location    "1.8";
    object      nu;
}
// * * * * * * * * * * * * * * * * * * * * * * * * * * * * * * * * * * * * * //

dimensions      [0 2 -1 0 0 0 0];

internalField   nonuniform List<scalar> 
25000
(
0.00649252
0.00656621
0.00659827
0.0066045
0.00660263
0.00660263
0.0066045
0.00659827
0.00656621
0.00649252
0.00656621
0.00659262
0.00658044
0.00656683
0.00655948
0.00655948
0.00656683
0.00658044
0.00659262
0.00656621
0.00659827
0.00658044
0.00655571
0.00654081
0.00653481
0.00653481
0.00654081
0.00655571
0.00658044
0.00659827
0.0066045
0.00656683
0.00654081
0.00652904
0.00652556
0.00652556
0.00652904
0.00654081
0.00656683
0.0066045
0.00660263
0.00655948
0.00653481
0.00652556
0.00652371
0.00652371
0.00652556
0.00653481
0.00655948
0.00660263
0.00660263
0.00655948
0.00653481
0.00652556
0.00652371
0.00652371
0.00652556
0.00653481
0.00655948
0.00660263
0.0066045
0.00656683
0.00654081
0.00652904
0.00652556
0.00652556
0.00652904
0.00654081
0.00656683
0.0066045
0.00659827
0.00658044
0.00655571
0.00654081
0.00653481
0.00653481
0.00654081
0.00655571
0.00658044
0.00659827
0.00656621
0.00659262
0.00658044
0.00656683
0.00655948
0.00655948
0.00656683
0.00658044
0.00659262
0.00656621
0.00649252
0.00656621
0.00659827
0.0066045
0.00660263
0.00660263
0.0066045
0.00659827
0.00656621
0.00649252
0.00616049
0.00633619
0.0065502
0.00671907
0.00680784
0.00680784
0.00671907
0.0065502
0.00633619
0.00616049
0.00633619
0.00671079
0.00697555
0.00708518
0.00711328
0.00711328
0.00708518
0.00697555
0.00671079
0.00633619
0.0065502
0.00697555
0.00713288
0.00711484
0.00708405
0.00708405
0.00711484
0.00713288
0.00697555
0.0065502
0.00671907
0.00708518
0.00711484
0.00704193
0.00699708
0.00699708
0.00704193
0.00711484
0.00708518
0.00671907
0.00680784
0.00711328
0.00708405
0.00699708
0.00695034
0.00695034
0.00699708
0.00708405
0.00711328
0.00680784
0.00680784
0.00711328
0.00708405
0.00699708
0.00695034
0.00695034
0.00699708
0.00708405
0.00711328
0.00680784
0.00671907
0.00708518
0.00711484
0.00704193
0.00699708
0.00699708
0.00704193
0.00711484
0.00708518
0.00671907
0.0065502
0.00697555
0.00713288
0.00711484
0.00708405
0.00708405
0.00711484
0.00713288
0.00697555
0.0065502
0.00633619
0.00671079
0.00697555
0.00708518
0.00711328
0.00711328
0.00708518
0.00697555
0.00671079
0.00633619
0.00616049
0.00633619
0.0065502
0.00671907
0.00680784
0.00680784
0.00671907
0.0065502
0.00633619
0.00616049
0.00583445
0.00590607
0.00604069
0.00616694
0.00624291
0.00624291
0.00616694
0.00604069
0.00590607
0.00583445
0.00590607
0.00614407
0.00638753
0.0065824
0.00669195
0.00669195
0.0065824
0.00638753
0.00614407
0.00590607
0.00604069
0.00638753
0.00673522
0.00699949
0.00713422
0.00713422
0.00699949
0.00673522
0.00638753
0.00604069
0.00616694
0.0065824
0.00699949
0.00729502
0.00742075
0.00742075
0.00729502
0.00699949
0.0065824
0.00616694
0.00624291
0.00669195
0.00713422
0.00742075
0.00752182
0.00752182
0.00742075
0.00713422
0.00669195
0.00624291
0.00624291
0.00669195
0.00713422
0.00742075
0.00752182
0.00752182
0.00742075
0.00713422
0.00669195
0.00624291
0.00616694
0.0065824
0.00699949
0.00729502
0.00742075
0.00742075
0.00729502
0.00699949
0.0065824
0.00616694
0.00604069
0.00638753
0.00673522
0.00699949
0.00713422
0.00713422
0.00699949
0.00673522
0.00638753
0.00604069
0.00590607
0.00614407
0.00638753
0.0065824
0.00669195
0.00669195
0.0065824
0.00638753
0.00614407
0.00590607
0.00583445
0.00590607
0.00604069
0.00616694
0.00624291
0.00624291
0.00616694
0.00604069
0.00590607
0.00583445
0.00580626
0.00584229
0.00594493
0.00604708
0.00611054
0.00611054
0.00604708
0.00594493
0.00584229
0.00580626
0.00584229
0.00602296
0.00621809
0.00638579
0.00648731
0.00648731
0.00638579
0.00621809
0.00602296
0.00584229
0.00594493
0.00621809
0.00651391
0.00678205
0.00695491
0.00695491
0.00678205
0.00651391
0.00621809
0.00594493
0.00604708
0.00638579
0.00678205
0.00719901
0.00752513
0.00752513
0.00719901
0.00678205
0.00638579
0.00604708
0.00611054
0.00648731
0.00695491
0.00752513
0.00811339
0.00811339
0.00752513
0.00695491
0.00648731
0.00611054
0.00611054
0.00648731
0.00695491
0.00752513
0.00811339
0.00811339
0.00752513
0.00695491
0.00648731
0.00611054
0.00604708
0.00638579
0.00678205
0.00719901
0.00752513
0.00752513
0.00719901
0.00678205
0.00638579
0.00604708
0.00594493
0.00621809
0.00651391
0.00678205
0.00695491
0.00695491
0.00678205
0.00651391
0.00621809
0.00594493
0.00584229
0.00602296
0.00621809
0.00638579
0.00648731
0.00648731
0.00638579
0.00621809
0.00602296
0.00584229
0.00580626
0.00584229
0.00594493
0.00604708
0.00611054
0.00611054
0.00604708
0.00594493
0.00584229
0.00580626
0.00577345
0.00579397
0.005882
0.00597269
0.00602996
0.00602996
0.00597269
0.005882
0.00579398
0.00577345
0.00579397
0.00594859
0.00611955
0.00627015
0.00636374
0.00636374
0.00627015
0.00611955
0.00594859
0.00579398
0.005882
0.00611955
0.00638184
0.00663065
0.00680115
0.00680115
0.00663065
0.00638184
0.00611955
0.005882
0.00597269
0.00627015
0.00663065
0.00704468
0.0074216
0.0074216
0.00704468
0.00663065
0.00627015
0.00597269
0.00602996
0.00636374
0.00680115
0.0074216
0.00837491
0.00837492
0.0074216
0.00680115
0.00636374
0.00602996
0.00602996
0.00636374
0.00680115
0.0074216
0.00837491
0.00837492
0.0074216
0.00680115
0.00636374
0.00602996
0.00597269
0.00627015
0.00663064
0.00704468
0.0074216
0.0074216
0.00704468
0.00663065
0.00627015
0.00597269
0.005882
0.00611954
0.00638184
0.00663064
0.00680115
0.00680115
0.00663065
0.00638184
0.00611955
0.005882
0.00579397
0.00594859
0.00611954
0.00627015
0.00636374
0.00636374
0.00627015
0.00611955
0.00594859
0.00579398
0.00577345
0.00579397
0.005882
0.00597269
0.00602996
0.00602996
0.00597269
0.005882
0.00579398
0.00577345
0.00577371
0.0057897
0.00587281
0.00595939
0.00601439
0.00601439
0.00595939
0.00587281
0.0057897
0.00577371
0.0057897
0.0059354
0.00609675
0.00623991
0.00632977
0.00632977
0.00623991
0.00609675
0.00593541
0.0057897
0.00587281
0.00609675
0.00634416
0.00658206
0.00674835
0.00674836
0.00658206
0.00634416
0.00609675
0.00587281
0.00595939
0.00623991
0.00658206
0.00698435
0.00736443
0.00736443
0.00698436
0.00658206
0.00623991
0.00595939
0.00601439
0.00632976
0.00674835
0.00736443
0.00839755
0.00839756
0.00736444
0.00674836
0.00632977
0.00601439
0.00601439
0.00632976
0.00674835
0.00736443
0.00839755
0.00839756
0.00736443
0.00674836
0.00632977
0.00601439
0.00595939
0.00623991
0.00658205
0.00698435
0.00736443
0.00736443
0.00698435
0.00658206
0.00623991
0.00595939
0.00587281
0.00609675
0.00634416
0.00658205
0.00674835
0.00674835
0.00658206
0.00634416
0.00609675
0.00587281
0.0057897
0.0059354
0.00609675
0.00623991
0.00632977
0.00632977
0.00623991
0.00609675
0.0059354
0.0057897
0.00577371
0.0057897
0.00587281
0.00595939
0.00601439
0.00601439
0.00595939
0.00587281
0.0057897
0.00577371
0.00576592
0.00577921
0.0058599
0.00594456
0.0059985
0.0059985
0.00594456
0.0058599
0.00577921
0.00576592
0.00577921
0.00592064
0.00607791
0.00621783
0.00630594
0.00630594
0.00621784
0.00607791
0.00592064
0.00577921
0.0058599
0.00607791
0.00631904
0.00655182
0.00671554
0.00671554
0.00655182
0.00631904
0.00607792
0.0058599
0.00594456
0.00621783
0.00655182
0.0069472
0.00732471
0.00732472
0.0069472
0.00655182
0.00621784
0.00594456
0.00599849
0.00630594
0.00671553
0.00732471
0.00836991
0.00836993
0.00732472
0.00671554
0.00630594
0.0059985
0.00599849
0.00630594
0.00671553
0.00732471
0.00836991
0.00836992
0.00732472
0.00671554
0.00630594
0.0059985
0.00594456
0.00621783
0.00655182
0.0069472
0.00732471
0.00732471
0.0069472
0.00655182
0.00621783
0.00594456
0.0058599
0.00607791
0.00631904
0.00655182
0.00671553
0.00671553
0.00655182
0.00631904
0.00607791
0.0058599
0.00577921
0.00592064
0.00607791
0.00621783
0.00630594
0.00630594
0.00621783
0.00607791
0.00592064
0.00577921
0.00576592
0.00577921
0.0058599
0.00594456
0.00599849
0.00599849
0.00594456
0.0058599
0.00577921
0.00576592
0.00576613
0.00577851
0.00585827
0.00594216
0.00599567
0.00599567
0.00594216
0.00585827
0.00577851
0.00576613
0.00577851
0.00591826
0.00607376
0.00621228
0.00629964
0.00629964
0.00621229
0.00607377
0.00591826
0.00577851
0.00585827
0.00607376
0.00631211
0.00654261
0.00670512
0.00670512
0.00654261
0.00631212
0.00607377
0.00585827
0.00594216
0.00621228
0.0065426
0.00693471
0.00731052
0.00731052
0.00693472
0.00654261
0.00621229
0.00594216
0.00599567
0.00629963
0.00670511
0.00731051
0.00835564
0.00835568
0.00731053
0.00670512
0.00629964
0.00599568
0.00599567
0.00629963
0.00670511
0.00731051
0.00835563
0.00835566
0.00731052
0.00670512
0.00629964
0.00599568
0.00594216
0.00621228
0.0065426
0.00693471
0.00731051
0.00731052
0.00693472
0.00654261
0.00621228
0.00594216
0.00585827
0.00607376
0.00631211
0.0065426
0.00670511
0.00670511
0.00654261
0.00631211
0.00607377
0.00585827
0.00577851
0.00591825
0.00607376
0.00621228
0.00629963
0.00629964
0.00621228
0.00607377
0.00591826
0.00577851
0.00576613
0.00577851
0.00585827
0.00594216
0.00599567
0.00599567
0.00594216
0.00585827
0.00577851
0.00576613
0.00576413
0.00577585
0.00585506
0.00593852
0.0059918
0.0059918
0.00593852
0.00585506
0.00577586
0.00576413
0.00577585
0.00591462
0.00606927
0.00620711
0.0062941
0.0062941
0.00620712
0.00606927
0.00591463
0.00577586
0.00585506
0.00606927
0.00630633
0.00653576
0.00669767
0.00669767
0.00653577
0.00630634
0.00606927
0.00585506
0.00593852
0.00620711
0.00653576
0.00692628
0.00730104
0.00730105
0.00692629
0.00653577
0.00620712
0.00593852
0.00599179
0.00629409
0.00669766
0.00730103
0.00834477
0.00834482
0.00730105
0.00669767
0.0062941
0.0059918
0.00599179
0.00629409
0.00669765
0.00730102
0.00834474
0.00834479
0.00730105
0.00669767
0.0062941
0.0059918
0.00593852
0.00620711
0.00653575
0.00692627
0.00730103
0.00730104
0.00692629
0.00653576
0.00620712
0.00593852
0.00585505
0.00606926
0.00630633
0.00653575
0.00669766
0.00669766
0.00653576
0.00630634
0.00606927
0.00585506
0.00577585
0.00591462
0.00606926
0.00620711
0.00629409
0.0062941
0.00620711
0.00606927
0.00591463
0.00577586
0.00576412
0.00577585
0.00585505
0.00593852
0.0059918
0.0059918
0.00593852
0.00585506
0.00577586
0.00576413
0.00576421
0.00577571
0.00585468
0.00593796
0.00599113
0.00599114
0.00593796
0.00585469
0.00577572
0.00576421
0.00577571
0.00591406
0.00606828
0.0062058
0.00629262
0.00629262
0.00620581
0.0060683
0.00591407
0.00577572
0.00585468
0.00606828
0.0063047
0.00653361
0.00669524
0.00669524
0.00653362
0.00630472
0.0060683
0.00585469
0.00593795
0.0062058
0.0065336
0.00692337
0.00729767
0.00729769
0.0069234
0.00653362
0.00620581
0.00593797
0.00599113
0.00629261
0.00669522
0.00729765
0.00834065
0.00834073
0.00729769
0.00669525
0.00629262
0.00599114
0.00599113
0.00629261
0.00669522
0.00729764
0.00834061
0.00834069
0.00729769
0.00669525
0.00629262
0.00599114
0.00593795
0.00620579
0.0065336
0.00692336
0.00729765
0.00729767
0.00692338
0.00653362
0.00620581
0.00593796
0.00585468
0.00606828
0.00630469
0.0065336
0.00669522
0.00669523
0.00653361
0.00630471
0.00606829
0.00585469
0.0057757
0.00591406
0.00606828
0.0062058
0.00629261
0.00629261
0.00620581
0.00606829
0.00591407
0.00577571
0.0057642
0.0057757
0.00585468
0.00593795
0.00599113
0.00599113
0.00593796
0.00585469
0.00577571
0.00576421
0.00576369
0.00577503
0.00585386
0.00593703
0.00599015
0.00599015
0.00593704
0.00585387
0.00577504
0.0057637
0.00577503
0.00591313
0.00606713
0.00620449
0.00629121
0.00629122
0.0062045
0.00606715
0.00591315
0.00577504
0.00585386
0.00606713
0.00630323
0.00653188
0.00669336
0.00669337
0.0065319
0.00630325
0.00606715
0.00585387
0.00593702
0.00620448
0.00653187
0.00692124
0.00729528
0.0072953
0.00692128
0.0065319
0.0062045
0.00593704
0.00599014
0.0062912
0.00669334
0.00729525
0.00833772
0.00833783
0.00729531
0.00669338
0.00629122
0.00599015
0.00599013
0.00629119
0.00669333
0.00729524
0.00833766
0.00833777
0.0072953
0.00669337
0.00629122
0.00599015
0.00593702
0.00620447
0.00653186
0.00692123
0.00729525
0.00729527
0.00692126
0.00653189
0.0062045
0.00593703
0.00585385
0.00606712
0.00630322
0.00653186
0.00669334
0.00669335
0.00653188
0.00630324
0.00606714
0.00585387
0.00577502
0.00591312
0.00606713
0.00620448
0.0062912
0.0062912
0.00620449
0.00606714
0.00591314
0.00577503
0.00576369
0.00577502
0.00585385
0.00593702
0.00599014
0.00599014
0.00593703
0.00585386
0.00577503
0.0057637
0.00576372
0.00577499
0.00585377
0.00593689
0.00598998
0.00598999
0.0059369
0.00585378
0.00577501
0.00576373
0.00577499
0.00591299
0.00606688
0.00620415
0.00629083
0.00629084
0.00620417
0.00606691
0.00591301
0.00577501
0.00585376
0.00606688
0.00630281
0.00653132
0.00669274
0.00669275
0.00653135
0.00630284
0.00606691
0.00585378
0.00593688
0.00620414
0.00653131
0.00692049
0.00729441
0.00729445
0.00692054
0.00653136
0.00620418
0.0059369
0.00598997
0.00629081
0.00669271
0.00729437
0.0083366
0.00833677
0.00729446
0.00669276
0.00629085
0.00598999
0.00598996
0.00629081
0.0066927
0.00729435
0.00833652
0.00833668
0.00729444
0.00669275
0.00629084
0.00598999
0.00593687
0.00620413
0.0065313
0.00692047
0.00729437
0.0072944
0.00692052
0.00653134
0.00620417
0.00593689
0.00585376
0.00606687
0.0063028
0.0065313
0.00669271
0.00669272
0.00653133
0.00630283
0.0060669
0.00585377
0.00577498
0.00591298
0.00606687
0.00620414
0.00629082
0.00629082
0.00620416
0.00606689
0.005913
0.005775
0.00576371
0.00577498
0.00585376
0.00593688
0.00598997
0.00598997
0.00593689
0.00585377
0.005775
0.00576372
0.00576358
0.00577481
0.00585355
0.00593664
0.00598972
0.00598973
0.00593666
0.00585358
0.00577484
0.0057636
0.00577481
0.00591275
0.00606659
0.00620381
0.00629047
0.00629048
0.00620384
0.00606662
0.00591278
0.00577484
0.00585355
0.00606658
0.00630243
0.00653087
0.00669225
0.00669227
0.00653091
0.00630247
0.00606662
0.00585358
0.00593664
0.0062038
0.00653086
0.00691993
0.00729379
0.00729383
0.00692
0.00653091
0.00620384
0.00593666
0.00598971
0.00629044
0.00669221
0.00729373
0.00833581
0.00833603
0.00729385
0.00669228
0.00629049
0.00598974
0.0059897
0.00629044
0.0066922
0.00729371
0.0083357
0.00833592
0.00729383
0.00669227
0.00629048
0.00598973
0.00593663
0.00620379
0.00653084
0.0069199
0.00729373
0.00729377
0.00691997
0.00653089
0.00620383
0.00593665
0.00585354
0.00606657
0.00630241
0.00653084
0.00669221
0.00669223
0.00653088
0.00630245
0.0060666
0.00585356
0.0057748
0.00591273
0.00606657
0.00620379
0.00629045
0.00629045
0.00620381
0.0060666
0.00591276
0.00577482
0.00576357
0.0057748
0.00585354
0.00593663
0.00598971
0.00598971
0.00593665
0.00585356
0.00577482
0.00576359
0.00576359
0.0057748
0.00585353
0.00593661
0.00598968
0.00598969
0.00593663
0.00585356
0.00577483
0.00576361
0.00577481
0.00591271
0.00606652
0.00620372
0.00629037
0.00629038
0.00620375
0.00606656
0.00591275
0.00577483
0.00585352
0.00606651
0.00630232
0.00653073
0.00669209
0.00669211
0.00653077
0.00630237
0.00606656
0.00585356
0.0059366
0.00620371
0.00653071
0.00691973
0.00729356
0.00729362
0.00691982
0.00653078
0.00620376
0.00593663
0.00598966
0.00629034
0.00669204
0.00729349
0.00833551
0.00833579
0.00729364
0.00669213
0.00629039
0.0059897
0.00598966
0.00629033
0.00669203
0.00729346
0.00833537
0.00833564
0.00729361
0.00669211
0.00629039
0.00598969
0.00593659
0.00620369
0.00653069
0.00691969
0.00729348
0.00729354
0.00691977
0.00653075
0.00620374
0.00593662
0.00585351
0.0060665
0.00630229
0.00653069
0.00669204
0.00669206
0.00653074
0.00630234
0.00606654
0.00585354
0.00577479
0.00591269
0.0060665
0.0062037
0.00629034
0.00629035
0.00620373
0.00606653
0.00591273
0.00577482
0.00576358
0.00577479
0.00585351
0.00593659
0.00598966
0.00598967
0.00593661
0.00585354
0.00577482
0.0057636
0.00576355
0.00577476
0.00585347
0.00593654
0.00598962
0.00598962
0.00593657
0.0058535
0.00577479
0.00576358
0.00577476
0.00591265
0.00606644
0.00620363
0.00629028
0.00629029
0.00620367
0.00606648
0.00591269
0.00577479
0.00585347
0.00606643
0.00630221
0.00653061
0.00669196
0.00669199
0.00653066
0.00630227
0.00606648
0.0058535
0.00593653
0.00620361
0.00653059
0.00691958
0.0072934
0.00729347
0.00691969
0.00653067
0.00620367
0.00593657
0.00598959
0.00629024
0.0066919
0.00729331
0.00833529
0.00833563
0.0072935
0.00669201
0.0062903
0.00598963
0.00598959
0.00629023
0.00669189
0.00729328
0.00833512
0.00833545
0.00729346
0.00669199
0.0062903
0.00598963
0.00593652
0.0062036
0.00653056
0.00691953
0.0072933
0.00729337
0.00691963
0.00653064
0.00620365
0.00593656
0.00585346
0.00606642
0.00630219
0.00653057
0.00669191
0.00669193
0.00653062
0.00630224
0.00606646
0.00585348
0.00577475
0.00591263
0.00606642
0.00620361
0.00629024
0.00629026
0.00620364
0.00606645
0.00591266
0.00577477
0.00576355
0.00577475
0.00585346
0.00593653
0.00598959
0.0059896
0.00593655
0.00585348
0.00577477
0.00576356
0.00576355
0.00577475
0.00585346
0.00593653
0.0059896
0.00598961
0.00593656
0.0058535
0.00577479
0.00576358
0.00577476
0.00591264
0.00606642
0.00620361
0.00629025
0.00629027
0.00620365
0.00606647
0.00591268
0.00577479
0.00585346
0.00606642
0.00630218
0.00653057
0.00669192
0.00669195
0.00653063
0.00630225
0.00606647
0.0058535
0.00593652
0.00620359
0.00653054
0.00691953
0.00729334
0.00729342
0.00691965
0.00653064
0.00620365
0.00593656
0.00598958
0.00629021
0.00669185
0.00729324
0.0083352
0.00833559
0.00729345
0.00669197
0.00629028
0.00598962
0.00598958
0.0062902
0.00669184
0.0072932
0.008335
0.00833538
0.00729341
0.00669195
0.00629027
0.00598962
0.00593651
0.00620358
0.00653052
0.00691947
0.00729323
0.00729331
0.00691958
0.0065306
0.00620363
0.00593655
0.00585345
0.0060664
0.00630216
0.00653052
0.00669186
0.00669189
0.00653058
0.00630221
0.00606644
0.00585348
0.00577475
0.00591262
0.0060664
0.00620358
0.00629022
0.00629023
0.00620361
0.00606644
0.00591265
0.00577477
0.00576355
0.00577475
0.00585345
0.00593652
0.00598958
0.00598959
0.00593654
0.00585348
0.00577477
0.00576356
0.00576355
0.00577474
0.00585345
0.00593652
0.00598959
0.0059896
0.00593654
0.00585348
0.00577477
0.00576356
0.00577475
0.00591262
0.0060664
0.00620359
0.00629023
0.00629024
0.00620362
0.00606645
0.00591266
0.00577477
0.00585345
0.0060664
0.00630216
0.00653054
0.00669189
0.00669192
0.0065306
0.00630222
0.00606645
0.00585348
0.00593651
0.00620357
0.00653051
0.00691949
0.0072933
0.00729339
0.00691961
0.00653061
0.00620363
0.00593654
0.00598956
0.00629018
0.00669182
0.00729319
0.00833514
0.00833556
0.00729342
0.00669194
0.00629026
0.0059896
0.00598956
0.00629018
0.0066918
0.00729315
0.00833493
0.00833533
0.00729337
0.00669192
0.00629025
0.0059896
0.0059365
0.00620355
0.00653049
0.00691943
0.00729319
0.00729326
0.00691954
0.00653057
0.00620361
0.00593653
0.00585344
0.00606638
0.00630213
0.00653049
0.00669183
0.00669185
0.00653055
0.00630218
0.00606642
0.00585346
0.00577474
0.00591261
0.00606638
0.00620356
0.00629019
0.0062902
0.00620359
0.00606642
0.00591263
0.00577475
0.00576354
0.00577474
0.00585344
0.0059365
0.00598957
0.00598957
0.00593652
0.00585346
0.00577476
0.00576355
0.00576355
0.00577474
0.00585345
0.00593651
0.00598958
0.00598959
0.00593654
0.00585347
0.00577477
0.00576356
0.00577475
0.00591262
0.0060664
0.00620358
0.00629022
0.00629023
0.00620362
0.00606644
0.00591265
0.00577476
0.00585345
0.00606639
0.00630215
0.00653052
0.00669188
0.00669191
0.00653059
0.00630221
0.00606644
0.00585347
0.00593651
0.00620356
0.0065305
0.00691947
0.00729328
0.00729337
0.0069196
0.00653059
0.00620362
0.00593654
0.00598956
0.00629018
0.00669181
0.00729318
0.00833512
0.00833554
0.0072934
0.00669193
0.00629025
0.0059896
0.00598956
0.00629017
0.00669179
0.00729314
0.00833491
0.00833531
0.00729335
0.00669191
0.00629024
0.00598959
0.0059365
0.00620355
0.00653048
0.00691942
0.00729317
0.00729325
0.00691953
0.00653056
0.0062036
0.00593652
0.00585344
0.00606638
0.00630213
0.00653049
0.00669182
0.00669184
0.00653054
0.00630218
0.00606641
0.00585346
0.00577474
0.00591261
0.00606638
0.00620356
0.00629019
0.0062902
0.00620358
0.00606641
0.00591263
0.00577475
0.00576355
0.00577474
0.00585344
0.0059365
0.00598957
0.00598957
0.00593652
0.00585346
0.00577475
0.00576355
0.00576355
0.00577474
0.00585344
0.00593651
0.00598957
0.00598958
0.00593653
0.00585346
0.00577476
0.00576355
0.00577475
0.00591262
0.00606639
0.00620357
0.00629021
0.00629022
0.0062036
0.00606642
0.00591264
0.00577475
0.00585345
0.00606639
0.00630214
0.00653052
0.00669186
0.00669189
0.00653057
0.0063022
0.00606643
0.00585346
0.00593651
0.00620356
0.0065305
0.00691947
0.00729327
0.00729335
0.00691958
0.00653058
0.00620361
0.00593653
0.00598956
0.00629018
0.0066918
0.00729317
0.00833511
0.0083355
0.00729338
0.00669191
0.00629023
0.00598959
0.00598956
0.00629017
0.00669179
0.00729314
0.00833492
0.00833529
0.00729334
0.00669189
0.00629023
0.00598958
0.0059365
0.00620355
0.00653048
0.00691942
0.00729317
0.00729324
0.00691952
0.00653055
0.00620359
0.00593652
0.00585344
0.00606638
0.00630213
0.00653049
0.00669181
0.00669184
0.00653053
0.00630217
0.00606641
0.00585345
0.00577475
0.00591261
0.00606638
0.00620356
0.00629019
0.00629019
0.00620358
0.0060664
0.00591262
0.00577475
0.00576355
0.00577474
0.00585344
0.00593651
0.00598957
0.00598957
0.00593651
0.00585345
0.00577475
0.00576355
0.00576355
0.00577474
0.00585344
0.00593651
0.00598957
0.00598958
0.00593652
0.00585346
0.00577475
0.00576355
0.00577475
0.00591262
0.00606639
0.00620357
0.00629021
0.00629021
0.00620359
0.00606641
0.00591263
0.00577475
0.00585345
0.00606639
0.00630214
0.00653051
0.00669186
0.00669188
0.00653056
0.00630218
0.00606641
0.00585345
0.00593651
0.00620356
0.0065305
0.00691947
0.00729326
0.00729333
0.00691956
0.00653056
0.0062036
0.00593652
0.00598957
0.00629018
0.00669181
0.00729318
0.00833511
0.00833545
0.00729335
0.00669189
0.00629022
0.00598958
0.00598957
0.00629018
0.0066918
0.00729315
0.00833496
0.00833528
0.00729332
0.00669188
0.00629022
0.00598958
0.00593651
0.00620356
0.00653049
0.00691943
0.00729318
0.00729324
0.00691951
0.00653054
0.00620358
0.00593651
0.00585345
0.00606639
0.00630214
0.00653049
0.00669182
0.00669184
0.00653053
0.00630216
0.0060664
0.00585345
0.00577475
0.00591262
0.00606639
0.00620356
0.00629019
0.0062902
0.00620358
0.0060664
0.00591262
0.00577475
0.00576356
0.00577475
0.00585345
0.00593651
0.00598957
0.00598957
0.00593651
0.00585345
0.00577475
0.00576355
0.00576355
0.00577474
0.00585345
0.00593651
0.00598957
0.00598957
0.00593651
0.00585345
0.00577474
0.00576354
0.00577475
0.00591262
0.00606639
0.00620357
0.0062902
0.00629021
0.00620358
0.0060664
0.00591262
0.00577474
0.00585345
0.00606639
0.00630215
0.00653051
0.00669185
0.00669186
0.00653054
0.00630217
0.0060664
0.00585345
0.00593651
0.00620357
0.0065305
0.00691947
0.00729325
0.0072933
0.00691953
0.00653055
0.00620358
0.00593651
0.00598957
0.00629019
0.00669182
0.00729319
0.00833512
0.00833538
0.00729332
0.00669188
0.00629021
0.00598957
0.00598957
0.00629019
0.00669182
0.00729318
0.00833502
0.00833526
0.0072933
0.00669187
0.00629021
0.00598957
0.00593651
0.00620357
0.0065305
0.00691945
0.0072932
0.00729324
0.0069195
0.00653053
0.00620358
0.00593651
0.00585345
0.0060664
0.00630215
0.0065305
0.00669183
0.00669184
0.00653052
0.00630216
0.0060664
0.00585345
0.00577475
0.00591262
0.0060664
0.00620357
0.00629019
0.0062902
0.00620358
0.0060664
0.00591262
0.00577474
0.00576356
0.00577475
0.00585345
0.00593651
0.00598957
0.00598957
0.00593651
0.00585345
0.00577475
0.00576355
0.00576355
0.00577475
0.00585345
0.00593651
0.00598957
0.00598957
0.00593651
0.00585344
0.00577474
0.00576354
0.00577475
0.00591262
0.00606639
0.00620357
0.0062902
0.0062902
0.00620357
0.00606639
0.00591261
0.00577474
0.00585345
0.0060664
0.00630215
0.00653051
0.00669184
0.00669185
0.00653053
0.00630216
0.00606639
0.00585344
0.00593651
0.00620357
0.00653051
0.00691947
0.00729324
0.00729327
0.00691951
0.00653053
0.00620357
0.00593651
0.00598957
0.00629019
0.00669183
0.00729321
0.00833514
0.00833529
0.00729329
0.00669186
0.0062902
0.00598957
0.00598957
0.0062902
0.00669183
0.00729321
0.0083351
0.00833525
0.00729328
0.00669186
0.0062902
0.00598957
0.00593652
0.00620358
0.00653051
0.00691947
0.00729323
0.00729325
0.0069195
0.00653053
0.00620358
0.00593651
0.00585346
0.0060664
0.00630216
0.00653052
0.00669184
0.00669185
0.00653053
0.00630216
0.0060664
0.00585345
0.00577476
0.00591263
0.0060664
0.00620358
0.0062902
0.0062902
0.00620358
0.0060664
0.00591262
0.00577475
0.00576356
0.00577476
0.00585346
0.00593652
0.00598957
0.00598957
0.00593652
0.00585345
0.00577475
0.00576355
0.00576355
0.00577475
0.00585345
0.00593651
0.00598956
0.00598956
0.0059365
0.00585344
0.00577473
0.00576354
0.00577475
0.00591262
0.0060664
0.00620357
0.00629019
0.00629019
0.00620356
0.00606639
0.00591261
0.00577473
0.00585345
0.0060664
0.00630215
0.00653051
0.00669184
0.00669184
0.00653051
0.00630214
0.00606639
0.00585344
0.00593651
0.00620357
0.00653052
0.00691948
0.00729323
0.00729324
0.00691948
0.00653051
0.00620356
0.0059365
0.00598957
0.0062902
0.00669184
0.00729323
0.00833515
0.00833521
0.00729325
0.00669184
0.00629019
0.00598956
0.00598958
0.0062902
0.00669185
0.00729324
0.00833518
0.00833523
0.00729326
0.00669185
0.0062902
0.00598957
0.00593652
0.00620358
0.00653053
0.00691949
0.00729325
0.00729326
0.0069195
0.00653052
0.00620357
0.00593651
0.00585346
0.00606641
0.00630216
0.00653053
0.00669185
0.00669185
0.00653053
0.00630216
0.0060664
0.00585345
0.00577476
0.00591263
0.00606641
0.00620358
0.00629021
0.00629021
0.00620358
0.0060664
0.00591262
0.00577475
0.00576356
0.00577476
0.00585346
0.00593652
0.00598958
0.00598958
0.00593652
0.00585345
0.00577475
0.00576355
0.00576355
0.00577475
0.00585345
0.00593651
0.00598956
0.00598956
0.0059365
0.00585343
0.00577473
0.00576354
0.00577475
0.00591262
0.0060664
0.00620357
0.00629019
0.00629018
0.00620356
0.00606638
0.0059126
0.00577473
0.00585345
0.0060664
0.00630215
0.00653051
0.00669183
0.00669182
0.0065305
0.00630213
0.00606638
0.00585343
0.00593651
0.00620358
0.00653052
0.00691948
0.00729322
0.00729321
0.00691946
0.0065305
0.00620356
0.0059365
0.00598958
0.00629021
0.00669185
0.00729325
0.00833517
0.00833513
0.00729322
0.00669183
0.00629019
0.00598956
0.00598958
0.00629021
0.00669186
0.00729327
0.00833526
0.00833522
0.00729324
0.00669184
0.00629019
0.00598956
0.00593652
0.00620359
0.00653054
0.00691951
0.00729328
0.00729327
0.0069195
0.00653052
0.00620357
0.00593651
0.00585346
0.00606641
0.00630217
0.00653054
0.00669186
0.00669186
0.00653053
0.00630216
0.0060664
0.00585345
0.00577476
0.00591264
0.00606641
0.00620359
0.00629021
0.00629021
0.00620358
0.0060664
0.00591262
0.00577475
0.00576356
0.00577476
0.00585346
0.00593652
0.00598958
0.00598958
0.00593652
0.00585345
0.00577475
0.00576355
0.00576355
0.00577475
0.00585345
0.00593651
0.00598956
0.00598956
0.00593649
0.00585343
0.00577473
0.00576353
0.00577475
0.00591262
0.0060664
0.00620357
0.00629018
0.00629018
0.00620355
0.00606637
0.0059126
0.00577473
0.00585345
0.0060664
0.00630215
0.00653051
0.00669182
0.00669181
0.00653049
0.00630212
0.00606637
0.00585343
0.00593652
0.00620358
0.00653052
0.00691948
0.00729322
0.00729319
0.00691944
0.00653049
0.00620355
0.00593649
0.00598958
0.00629021
0.00669186
0.00729327
0.00833518
0.00833506
0.0072932
0.00669182
0.00629018
0.00598956
0.00598958
0.00629022
0.00669187
0.0072933
0.00833533
0.00833521
0.00729323
0.00669183
0.00629019
0.00598956
0.00593653
0.00620359
0.00653055
0.00691953
0.0072933
0.00729328
0.00691949
0.00653052
0.00620357
0.00593651
0.00585347
0.00606642
0.00630218
0.00653055
0.00669187
0.00669186
0.00653053
0.00630216
0.0060664
0.00585345
0.00577476
0.00591264
0.00606642
0.0062036
0.00629022
0.00629021
0.00620358
0.0060664
0.00591262
0.00577475
0.00576356
0.00577476
0.00585347
0.00593653
0.00598958
0.00598958
0.00593652
0.00585345
0.00577475
0.00576355
0.00576355
0.00577475
0.00585345
0.00593651
0.00598956
0.00598955
0.00593649
0.00585343
0.00577473
0.00576353
0.00577475
0.00591262
0.0060664
0.00620357
0.00629018
0.00629017
0.00620354
0.00606637
0.0059126
0.00577473
0.00585345
0.0060664
0.00630216
0.00653051
0.00669182
0.0066918
0.00653048
0.00630212
0.00606637
0.00585343
0.00593652
0.00620358
0.00653053
0.00691949
0.00729321
0.00729317
0.00691943
0.00653048
0.00620354
0.00593649
0.00598958
0.00629021
0.00669187
0.00729328
0.00833518
0.00833499
0.00729317
0.0066918
0.00629017
0.00598955
0.00598959
0.00629022
0.00669188
0.00729332
0.00833539
0.0083352
0.00729322
0.00669182
0.00629018
0.00598956
0.00593653
0.0062036
0.00653056
0.00691955
0.00729332
0.00729328
0.00691949
0.00653051
0.00620357
0.00593651
0.00585347
0.00606642
0.00630219
0.00653056
0.00669188
0.00669187
0.00653053
0.00630216
0.0060664
0.00585345
0.00577476
0.00591264
0.00606642
0.0062036
0.00629022
0.00629021
0.00620358
0.0060664
0.00591262
0.00577475
0.00576356
0.00577476
0.00585347
0.00593653
0.00598958
0.00598958
0.00593652
0.00585345
0.00577475
0.00576355
0.00576355
0.00577475
0.00585345
0.00593651
0.00598956
0.00598955
0.00593649
0.00585343
0.00577473
0.00576353
0.00577475
0.00591262
0.0060664
0.00620357
0.00629018
0.00629017
0.00620354
0.00606637
0.00591259
0.00577473
0.00585345
0.0060664
0.00630216
0.00653051
0.00669182
0.0066918
0.00653047
0.00630211
0.00606637
0.00585343
0.00593652
0.00620358
0.00653053
0.00691949
0.0072932
0.00729315
0.00691941
0.00653047
0.00620354
0.00593649
0.00598958
0.00629022
0.00669187
0.00729329
0.00833519
0.00833494
0.00729315
0.00669179
0.00629017
0.00598955
0.00598959
0.00629023
0.00669189
0.00729334
0.00833544
0.00833519
0.0072932
0.00669181
0.00629018
0.00598956
0.00593653
0.00620361
0.00653057
0.00691956
0.00729334
0.00729329
0.00691949
0.00653051
0.00620356
0.00593651