/*--------------------------------*- C++ -*----------------------------------*\
| =========                 |                                                 |
| \\      /  F ield         | OpenFOAM: The Open Source CFD Toolbox           |
|  \\    /   O peration     | Version:  2406                                  |
|   \\  /    A nd           | Website:  www.openfoam.com                      |
|    \\/     M anipulation  |                                                 |
\*---------------------------------------------------------------------------*/
FoamFile
{
    version     2.0;
    format      ascii;
    arch        "LSB;label=32;scalar=64";
    class       surfaceScalarField;
    location    "1.8";
    object      phi;
}
// * * * * * * * * * * * * * * * * * * * * * * * * * * * * * * * * * * * * * //

dimensions      [0 3 -1 0 0 0 0];

oriented        oriented;

internalField   nonuniform List<scalar> 
73500
(
4.64638e-05
4.64638e-05
5.7055e-05
-5.14904e-05
-5.14904e-05
3.76966e-05
4.71304e-05
6.4902e-05
-5.23269e-05
2.65017e-05
4.75019e-05
7.06874e-05
-5.30513e-05
1.36506e-05
4.76219e-05
7.45177e-05
-5.33174e-05
2.30775e-12
4.76558e-05
7.64234e-05
-5.34357e-05
-1.36506e-05
4.76558e-05
7.64234e-05
-5.34357e-05
-2.65017e-05
4.76219e-05
7.45177e-05
-5.33174e-05
-3.76966e-05
4.75019e-05
7.06874e-05
-5.30513e-05
-4.64638e-05
4.71304e-05
6.4902e-05
-5.23269e-05
4.64638e-05
5.7055e-05
-5.14904e-05
-5.14904e-05
4.71304e-05
3.76966e-05
6.4902e-05
-5.23269e-05
3.80025e-05
3.80025e-05
7.284e-05
2.65048e-05
3.80946e-05
7.8274e-05
1.35836e-05
3.80736e-05
8.17192e-05
2.17115e-12
3.80404e-05
8.33962e-05
-1.35836e-05
3.80404e-05
8.33962e-05
-2.65048e-05
3.80736e-05
8.17192e-05
-3.80025e-05
3.80946e-05
7.8274e-05
-4.71304e-05
3.80025e-05
7.284e-05
3.76966e-05
6.4902e-05
-5.23269e-05
4.75019e-05
2.65017e-05
7.06874e-05
-5.30513e-05
3.80947e-05
2.65048e-05
7.8274e-05
2.64302e-05
2.64302e-05
8.33162e-05
1.3498e-05
2.63344e-05
8.64277e-05
2.10322e-12
2.6272e-05
8.79142e-05
-1.3498e-05
2.6272e-05
8.79142e-05
-2.64302e-05
2.63344e-05
8.64277e-05
-3.80946e-05
2.64302e-05
8.33162e-05
-4.75019e-05
2.65048e-05
7.8274e-05
2.65017e-05
7.06874e-05
-5.30513e-05
4.76219e-05
1.36506e-05
7.45177e-05
-5.33174e-05
3.80736e-05
1.35836e-05
8.17192e-05
2.63344e-05
1.3498e-05
8.64277e-05
1.34197e-05
1.34197e-05
8.92796e-05
2.06892e-12
1.33737e-05
9.06222e-05
-1.34197e-05
1.33737e-05
9.06222e-05
-2.63344e-05
1.34197e-05
8.92796e-05
-3.80736e-05
1.3498e-05
8.64277e-05
-4.76219e-05
1.35836e-05
8.17192e-05
1.36506e-05
7.45177e-05
-5.33174e-05
4.76558e-05
-1.04644e-12
7.64234e-05
-5.34357e-05
3.80404e-05
-1.05406e-12
8.33962e-05
2.6272e-05
-1.0501e-12
8.79142e-05
1.33737e-05
-1.04824e-12
9.06222e-05
2.04949e-12
-1.05147e-12
9.18866e-05
-1.33737e-05
-1.05711e-12
9.18866e-05
-2.6272e-05
-1.06554e-12
9.06222e-05
-3.80404e-05
-1.07776e-12
8.79142e-05
-4.76558e-05
-1.08734e-12
8.33962e-05
-1.07037e-12
7.64234e-05
-5.34357e-05
4.76558e-05
-1.36506e-05
7.64234e-05
-5.34357e-05
3.80404e-05
-1.35836e-05
8.33962e-05
2.6272e-05
-1.3498e-05
8.79142e-05
1.33737e-05
-1.34197e-05
9.06222e-05
2.04501e-12
-1.33737e-05
9.18866e-05
-1.33737e-05
-1.33737e-05
9.18866e-05
-2.6272e-05
-1.34197e-05
9.06222e-05
-3.80404e-05
-1.3498e-05
8.79142e-05
-4.76558e-05
-1.35836e-05
8.33962e-05
-1.36506e-05
7.64234e-05
-5.34357e-05
4.76219e-05
-2.65017e-05
7.45177e-05
-5.33174e-05
3.80736e-05
-2.65048e-05
8.17192e-05
2.63344e-05
-2.64302e-05
8.64277e-05
1.34197e-05
-2.63344e-05
8.92796e-05
2.0545e-12
-2.6272e-05
9.06222e-05
-1.34197e-05
-2.6272e-05
9.06222e-05
-2.63344e-05
-2.63344e-05
8.92796e-05
-3.80736e-05
-2.64302e-05
8.64277e-05
-4.76219e-05
-2.65048e-05
8.17192e-05
-2.65017e-05
7.45177e-05
-5.33174e-05
4.75019e-05
-3.76966e-05
7.06874e-05
-5.30513e-05
3.80947e-05
-3.80025e-05
7.8274e-05
2.64302e-05
-3.80946e-05
8.33162e-05
1.3498e-05
-3.80736e-05
8.64277e-05
2.08351e-12
-3.80404e-05
8.79142e-05
-1.3498e-05
-3.80404e-05
8.79142e-05
-2.64302e-05
-3.80736e-05
8.64277e-05
-3.80946e-05
-3.80946e-05
8.33162e-05
-4.75019e-05
-3.80025e-05
7.8274e-05
-3.76966e-05
7.06874e-05
-5.30513e-05
4.71304e-05
-4.64638e-05
6.4902e-05
-5.23269e-05
3.80025e-05
-4.71304e-05
7.284e-05
2.65048e-05
-4.75019e-05
7.8274e-05
1.35836e-05
-4.76219e-05
8.17192e-05
2.14811e-12
-4.76558e-05
8.33962e-05
-1.35836e-05
-4.76558e-05
8.33962e-05
-2.65048e-05
-4.76219e-05
8.17192e-05
-3.80025e-05
-4.75019e-05
7.8274e-05
-4.71304e-05
-4.71304e-05
7.284e-05
-4.64638e-05
6.4902e-05
-5.23269e-05
4.64638e-05
5.7055e-05
-5.14904e-05
-5.14904e-05
3.76966e-05
6.4902e-05
-5.23269e-05
2.65017e-05
7.06874e-05
-5.30513e-05
1.36506e-05
7.45177e-05
-5.33174e-05
2.27107e-12
7.64234e-05
-5.34357e-05
-1.36506e-05
7.64234e-05
-5.34357e-05
-2.65017e-05
7.45177e-05
-5.33174e-05
-3.76966e-05
7.06874e-05
-5.30513e-05
-4.64638e-05
6.4902e-05
-5.23269e-05
5.7055e-05
-5.14904e-05
-5.14904e-05
1.74555e-05
1.74555e-05
5.59098e-05
-1.68829e-05
-1.68829e-05
1.5611e-05
1.95121e-05
6.58054e-05
-1.85709e-05
1.16371e-05
2.09099e-05
7.35987e-05
-1.98472e-05
6.20091e-06
2.18255e-05
7.89052e-05
-2.07768e-05
9.94048e-12
2.22682e-05
8.15788e-05
-2.12227e-05
-6.20089e-06
2.22682e-05
8.15788e-05
-2.12227e-05
-1.1637e-05
2.18255e-05
7.89052e-05
-2.07768e-05
-1.5611e-05
2.09099e-05
7.35987e-05
-1.98472e-05
-1.74555e-05
1.95121e-05
6.58054e-05
-1.85709e-05
1.74555e-05
5.59098e-05
-1.68829e-05
-1.68829e-05
1.95121e-05
1.5611e-05
6.58054e-05
-1.85709e-05
1.74858e-05
1.74857e-05
7.68926e-05
1.30085e-05
1.87072e-05
8.4954e-05
6.90928e-06
1.94675e-05
9.01764e-05
9.07802e-12
1.98342e-05
9.27395e-05
-6.90927e-06
1.98342e-05
9.27395e-05
-1.30084e-05
1.94675e-05
9.01764e-05
-1.74857e-05
1.87072e-05
8.4954e-05
-1.95121e-05
1.74857e-05
7.68926e-05
1.5611e-05
6.58054e-05
-1.85709e-05
2.09099e-05
1.1637e-05
7.35987e-05
-1.98472e-05
1.87072e-05
1.30084e-05
8.4954e-05
1.38916e-05
1.38916e-05
9.29473e-05
7.36653e-06
1.44293e-05
9.7991e-05
8.53496e-12
1.469e-05
0.000100425
-7.36652e-06
1.469e-05
0.000100425
-1.38916e-05
1.44293e-05
9.7991e-05
-1.87072e-05
1.38916e-05
9.29473e-05
-2.09099e-05
1.30084e-05
8.4954e-05
1.1637e-05
7.35987e-05
-1.98472e-05
2.18255e-05
6.2009e-06
7.89052e-05
-2.07768e-05
1.94675e-05
6.90927e-06
9.01764e-05
1.44293e-05
7.36652e-06
9.7991e-05
7.64218e-06
7.64216e-06
0.000102854
8.20523e-12
7.77653e-06
0.000105178
-7.64216e-06
7.77653e-06
0.000105178
-1.44293e-05
7.64216e-06
0.000102854
-1.94675e-05
7.36652e-06
9.7991e-05
-2.18255e-05
6.90927e-06
9.01764e-05
6.2009e-06
7.89052e-05
-2.07768e-05
2.22682e-05
-4.55389e-12
8.15788e-05
-2.12227e-05
1.98342e-05
-4.24187e-12
9.27395e-05
1.469e-05
-4.0025e-12
0.000100425
7.77654e-06
-3.84016e-12
0.000105178
8.05373e-12
-3.76059e-12
0.00010744
-7.77653e-06
-3.76201e-12
0.00010744
-1.469e-05
-3.84211e-12
0.000105178
-1.98342e-05
-4.00601e-12
0.000100425
-2.22682e-05
-4.25134e-12
9.27395e-05
-4.5613e-12
8.15788e-05
-2.12227e-05
2.22682e-05
-6.20091e-06
8.15788e-05
-2.12227e-05
1.98342e-05
-6.90928e-06
9.27395e-05
1.469e-05
-7.36653e-06
0.000100425
7.77654e-06
-7.64217e-06
0.000105178
8.05753e-12
-7.77654e-06
0.00010744
-7.77653e-06
-7.77654e-06
0.00010744
-1.469e-05
-7.64217e-06
0.000105178
-1.98342e-05
-7.36653e-06
0.000100425
-2.22682e-05
-6.90928e-06
9.27395e-05
-6.20091e-06
8.15788e-05
-2.12227e-05
2.18255e-05
-1.16371e-05
7.89052e-05
-2.07768e-05
1.94675e-05
-1.30084e-05
9.01764e-05
1.44293e-05
-1.38916e-05
9.7991e-05
7.64218e-06
-1.44293e-05
0.000102854
8.21879e-12
-1.469e-05
0.000105178
-7.64216e-06
-1.469e-05
0.000105178
-1.44293e-05
-1.44293e-05
0.000102854
-1.94675e-05
-1.38916e-05
9.7991e-05
-2.18255e-05
-1.30084e-05
9.01764e-05
-1.16371e-05
7.89052e-05
-2.07768e-05
2.09099e-05
-1.5611e-05
7.35987e-05
-1.98472e-05
1.87072e-05
-1.74857e-05
8.4954e-05
1.38916e-05
-1.87072e-05
9.29473e-05
7.36653e-06
-1.94675e-05
9.7991e-05
8.55154e-12
-1.98342e-05
0.000100425
-7.36652e-06
-1.98342e-05
0.000100425
-1.38916e-05
-1.94675e-05
9.7991e-05
-1.87072e-05
-1.87072e-05
9.29473e-05
-2.09099e-05
-1.74857e-05
8.4954e-05
-1.5611e-05
7.35987e-05
-1.98472e-05
1.95121e-05
-1.74555e-05
6.58054e-05
-1.85709e-05
1.74858e-05
-1.95121e-05
7.68926e-05
1.30085e-05
-2.09099e-05
8.4954e-05
6.90928e-06
-2.18255e-05
9.01764e-05
9.08997e-12
-2.22682e-05
9.27395e-05
-6.90927e-06
-2.22682e-05
9.27395e-05
-1.30084e-05
-2.18255e-05
9.01764e-05
-1.74857e-05
-2.09099e-05
8.4954e-05
-1.95121e-05
-1.95121e-05
7.68926e-05
-1.74555e-05
6.58054e-05
-1.85709e-05
1.74555e-05
5.59098e-05
-1.68829e-05
-1.68829e-05
1.5611e-05
6.58054e-05
-1.85709e-05
1.16371e-05
7.35987e-05
-1.98472e-05
6.20091e-06
7.89052e-05
-2.07768e-05
9.90843e-12
8.15788e-05
-2.12227e-05
-6.20089e-06
8.15788e-05
-2.12227e-05
-1.1637e-05
7.89052e-05
-2.07768e-05
-1.5611e-05
7.35987e-05
-1.98472e-05
-1.74555e-05
6.58054e-05
-1.85709e-05
5.59098e-05
-1.68829e-05
-1.68829e-05
9.7614e-06
9.76138e-06
5.42209e-05
-8.91697e-06
-8.91696e-06
8.9968e-06
1.14977e-05
6.53704e-05
-1.02982e-05
6.88507e-06
1.276e-05
7.43729e-05
-1.14225e-05
3.72985e-06
1.36068e-05
8.06636e-05
-1.221e-05
2.30538e-11
1.4028e-05
8.38838e-05
-1.26031e-05
-3.72981e-06
1.4028e-05
8.38838e-05
-1.26031e-05
-6.88502e-06
1.36068e-05
8.06636e-05
-1.22101e-05
-8.99677e-06
1.276e-05
7.43729e-05
-1.14225e-05
-9.76137e-06
1.14978e-05
6.53704e-05
-1.02982e-05
9.76138e-06
5.4221e-05
-8.91695e-06
-8.91696e-06
1.14978e-05
8.99677e-06
6.53704e-05
-1.02982e-05
1.0687e-05
1.0687e-05
7.85141e-05
8.17715e-06
1.18597e-05
8.83642e-05
4.41893e-06
1.26115e-05
9.493e-05
2.08724e-11
1.29798e-05
9.82066e-05
-4.41889e-06
1.29798e-05
9.82066e-05
-8.17711e-06
1.26115e-05
9.493e-05
-1.0687e-05
1.18597e-05
8.83643e-05
-1.14977e-05
1.0687e-05
7.85141e-05
8.99678e-06
6.53704e-05
-1.02982e-05
1.27601e-05
6.88503e-06
7.43729e-05
-1.14225e-05
1.18597e-05
8.17712e-06
8.83642e-05
9.05796e-06
9.05794e-06
9.85508e-05
4.88513e-06
9.60609e-06
0.000105169
1.94081e-11
9.87014e-06
0.00010842
-4.88509e-06
9.87014e-06
0.00010842
-9.05793e-06
9.60609e-06
0.000105169
-1.18597e-05
9.05794e-06
9.85508e-05
-1.276e-05
8.17712e-06
8.83643e-05
6.88504e-06
7.43729e-05
-1.14225e-05
1.36069e-05
3.72982e-06
8.06636e-05
-1.22101e-05
1.26115e-05
4.4189e-06
9.493e-05
9.60611e-06
4.8851e-06
0.000105169
5.16935e-06
5.16933e-06
0.000111727
1.84925e-11
5.30291e-06
0.000114914
-5.16932e-06
5.30291e-06
0.000114914
-9.60608e-06
5.16933e-06
0.000111727
-1.26115e-05
4.8851e-06
0.000105169
-1.36068e-05
4.4189e-06
9.493e-05
3.72982e-06
8.06636e-05
-1.221e-05
1.4028e-05
-1.03341e-11
8.38838e-05
-1.26031e-05
1.29798e-05
-9.44581e-12
9.82066e-05
9.87016e-06
-8.76231e-12
0.00010842
5.30293e-06
-8.31227e-12
0.000114914
1.80397e-11
-8.09413e-12
0.000118045
-5.3029e-06
-8.10838e-12
0.000118045
-9.87013e-06
-8.35057e-12
0.000114914
-1.29798e-05
-8.82089e-12
0.00010842
-1.4028e-05
-9.52541e-12
9.82067e-05
-1.04367e-11
8.38838e-05
-1.26031e-05
1.4028e-05
-3.72984e-06
8.38838e-05
-1.26031e-05
1.29798e-05
-4.41892e-06
9.82066e-05
9.87016e-06
-4.88512e-06
0.00010842
5.30293e-06
-5.16934e-06
0.000114914
1.80341e-11
-5.30292e-06
0.000118045
-5.3029e-06
-5.30292e-06
0.000118045
-9.87013e-06
-5.16935e-06
0.000114914
-1.29798e-05
-4.88512e-06
0.00010842
-1.4028e-05
-4.41892e-06
9.82067e-05
-3.72984e-06
8.38838e-05
-1.26031e-05
1.36069e-05
-6.88505e-06
8.06636e-05
-1.22101e-05
1.26115e-05
-8.17713e-06
9.493e-05
9.60611e-06
-9.05795e-06
0.000105169
5.16935e-06
-9.6061e-06
0.000111727
1.84779e-11
-9.87015e-06
0.000114914
-5.16932e-06
-9.87015e-06
0.000114914
-9.60608e-06
-9.6061e-06
0.000111727
-1.26115e-05
-9.05796e-06
0.000105169
-1.36068e-05
-8.17714e-06
9.493e-05
-6.88506e-06
8.06636e-05
-1.221e-05
1.27601e-05
-8.99679e-06
7.43729e-05
-1.14225e-05
1.18597e-05
-1.0687e-05
8.83642e-05
9.05796e-06
-1.18597e-05
9.85508e-05
4.88513e-06
-1.26115e-05
0.000105169
1.93772e-11
-1.29798e-05
0.00010842
-4.88509e-06
-1.29798e-05
0.00010842
-9.05793e-06
-1.26115e-05
0.000105169
-1.18597e-05
-1.18597e-05
9.85508e-05
-1.276e-05
-1.0687e-05
8.83642e-05
-8.99679e-06
7.43729e-05
-1.14225e-05
1.14978e-05
-9.76139e-06
6.53704e-05
-1.02982e-05
1.0687e-05
-1.14978e-05
7.85141e-05
8.17714e-06
-1.27601e-05
8.83642e-05
4.41893e-06
-1.36069e-05
9.493e-05
2.08106e-11
-1.4028e-05
9.82066e-05
-4.41889e-06
-1.4028e-05
9.82066e-05
-8.17711e-06
-1.36069e-05
9.493e-05
-1.0687e-05
-1.27601e-05
8.83642e-05
-1.14977e-05
-1.14978e-05
7.85141e-05
-9.76139e-06
6.53704e-05
-1.02981e-05
9.7614e-06
5.42209e-05
-8.91697e-06
-8.91697e-06
8.9968e-06
6.53704e-05
-1.02982e-05
6.88506e-06
7.43729e-05
-1.14225e-05
3.72985e-06
8.06636e-05
-1.22101e-05
2.29064e-11
8.38838e-05
-1.26031e-05
-3.72981e-06
8.38838e-05
-1.26031e-05
-6.88502e-06
8.06636e-05
-1.22101e-05
-8.99676e-06
7.43729e-05
-1.14225e-05
-9.76137e-06
6.53704e-05
-1.02982e-05
5.4221e-05
-8.91695e-06
-8.91697e-06
2.27376e-06
2.27371e-06
5.3103e-05
-1.71479e-06
-1.71475e-06
2.42034e-06
3.04707e-06
6.43623e-05
-2.18553e-06
2.02123e-06
3.69618e-06
7.37105e-05
-2.63463e-06
1.14845e-06
4.16051e-06
8.0354e-05
-2.97811e-06
4.73152e-11
4.39775e-06
8.37911e-05
-3.15668e-06
-1.14836e-06
4.39775e-06
8.37911e-05
-3.15668e-06
-2.02115e-06
4.16051e-06
8.0354e-05
-2.97811e-06
-2.42027e-06
3.69618e-06
7.37105e-05
-2.63463e-06
-2.2737e-06
3.04708e-06
6.43623e-05
-2.18554e-06
2.27372e-06
5.3103e-05
-1.71475e-06
-1.71476e-06
3.04711e-06
2.42028e-06
6.43623e-05
-2.18556e-06
3.29286e-06
3.29281e-06
7.80226e-05
2.74991e-06
3.98046e-06
8.86229e-05
1.55552e-06
4.44335e-06
9.58416e-05
4.23662e-11
4.66953e-06
9.94903e-05
-1.55544e-06
4.66953e-06
9.94903e-05
-2.74983e-06
4.44335e-06
9.58416e-05
-3.29279e-06
3.98046e-06
8.86229e-05
-3.04706e-06
3.29281e-06
7.80226e-05
2.42029e-06
6.43623e-05
-2.18552e-06
3.69622e-06
2.02117e-06
7.37105e-05
-2.63466e-06
3.98051e-06
2.74985e-06
8.86229e-05
3.3052e-06
3.30515e-06
9.99014e-05
1.85892e-06
3.65932e-06
0.0001074
3.89586e-11
3.81958e-06
0.000111129
-1.85885e-06
3.81958e-06
0.000111129
-3.30513e-06
3.65932e-06
0.0001074
-3.98044e-06
3.30515e-06
9.99014e-05
-3.69617e-06
2.74985e-06
8.86229e-05
2.02117e-06
7.37105e-05
-2.63462e-06
4.16055e-06
1.14838e-06
8.0354e-05
-2.97814e-06
4.44339e-06
1.55546e-06
9.58416e-05
3.65937e-06
1.85887e-06
0.0001074
2.04337e-06
2.04332e-06
0.000114959
3.68505e-11
2.11625e-06
0.000118661
-2.0433e-06
2.11625e-06
0.000118661
-3.65931e-06
2.04332e-06
0.000114959
-4.44333e-06
1.85887e-06
0.0001074
-4.1605e-06
1.55546e-06
9.58416e-05
1.14839e-06
8.0354e-05
-2.9781e-06
4.39779e-06
-2.14393e-11
8.37911e-05
-3.15671e-06
4.66958e-06
-1.93822e-11
9.94903e-05
3.81963e-06
-1.78784e-11
0.000111129
2.1163e-06
-1.69161e-11
0.000118661
3.5818e-11
-1.64481e-11
0.000122278
-2.11623e-06
-1.64778e-11
0.000122278
-3.81956e-06
-1.69977e-11
0.000118661
-4.66952e-06
-1.80107e-11
0.000111129
-4.39774e-06
-1.95705e-11
9.94904e-05
-2.16717e-11
8.37911e-05
-3.15667e-06
4.39779e-06
-1.14842e-06
8.37911e-05
-3.15671e-06
4.66958e-06
-1.5555e-06
9.94903e-05
3.81963e-06
-1.8589e-06
0.000111129
2.1163e-06
-2.04335e-06
0.000118661
3.57968e-11
-2.11628e-06
0.000122278
-2.11623e-06
-2.11628e-06
0.000122278
-3.81956e-06
-2.04336e-06
0.000118661
-4.66952e-06
-1.8589e-06
0.000111129
-4.39774e-06
-1.5555e-06
9.94903e-05
-1.14843e-06
8.37911e-05
-3.15667e-06
4.16055e-06
-2.0212e-06
8.0354e-05
-2.97814e-06
4.44339e-06
-2.74988e-06
9.58415e-05
3.65937e-06
-3.30518e-06
0.0001074
2.04337e-06
-3.65935e-06
0.000114959
3.67927e-11
-3.81961e-06
0.000118661
-2.0433e-06
-3.81961e-06
0.000118661
-3.65931e-06
-3.65936e-06
0.000114959
-4.44333e-06
-3.30519e-06
0.0001074
-4.1605e-06
-2.74989e-06
9.58416e-05
-2.02121e-06
8.0354e-05
-2.9781e-06
3.69622e-06
-2.42032e-06
7.37105e-05
-2.63465e-06
3.9805e-06
-3.29284e-06
8.86229e-05
3.3052e-06
-3.98049e-06
9.99014e-05
1.85892e-06
-4.44337e-06
0.0001074
3.88413e-11
-4.66956e-06
0.000111129
-1.85885e-06
-4.66956e-06
0.000111129
-3.30513e-06
-4.44337e-06
0.0001074
-3.98044e-06
-3.98049e-06
9.99014e-05
-3.69617e-06
-3.29284e-06
8.86229e-05
-2.42033e-06
7.37105e-05
-2.63462e-06
3.04711e-06
-2.27374e-06
6.43622e-05
-2.18556e-06
3.29286e-06
-3.04709e-06
7.80226e-05
2.7499e-06
-3.6962e-06
8.86229e-05
1.55552e-06
-4.16053e-06
9.58415e-05
4.21622e-11
-4.39777e-06
9.94903e-05
-1.55544e-06
-4.39777e-06
9.94903e-05
-2.74983e-06
-4.16053e-06
9.58416e-05
-3.29279e-06
-3.69621e-06
8.86229e-05
-3.04706e-06
-3.0471e-06
7.80226e-05
-2.27375e-06
6.43623e-05
-2.18552e-06
2.27376e-06
5.3103e-05
-1.71477e-06
-1.71478e-06
2.42034e-06
6.43623e-05
-2.18555e-06
2.02123e-06
7.37105e-05
-2.63464e-06
1.14845e-06
8.0354e-05
-2.97813e-06
4.69616e-11
8.37911e-05
-3.1567e-06
-1.14836e-06
8.37911e-05
-3.1567e-06
-2.02114e-06
8.0354e-05
-2.97813e-06
-2.42027e-06
7.37105e-05
-2.63465e-06
-2.2737e-06
6.43623e-05
-2.18555e-06
5.3103e-05
-1.71474e-06
-1.71478e-06
1.80884e-06
1.80874e-06
5.26895e-05
-1.60207e-06
-1.602e-06
1.72072e-06
2.20863e-06
6.41344e-05
-1.89267e-06
1.35633e-06
2.53428e-06
7.36829e-05
-2.14229e-06
7.48852e-07
2.76471e-06
8.05167e-05
-2.31992e-06
8.83526e-11
2.88101e-06
8.40693e-05
-2.4104e-06
-7.4868e-07
2.88101e-06
8.40693e-05
-2.4104e-06
-1.35617e-06
2.76472e-06
8.05167e-05
-2.31992e-06
-1.72058e-06
2.53429e-06
7.36829e-05
-2.1423e-06
-1.80873e-06
2.20865e-06
6.41345e-05
-1.89269e-06
1.80876e-06
5.26896e-05
-1.60199e-06
-1.60202e-06
2.20872e-06
1.72061e-06
6.41344e-05
-1.89274e-06
2.14962e-06
2.14952e-06
7.81408e-05
1.71041e-06
2.49241e-06
8.9104e-05
9.46254e-07
2.72504e-06
9.66454e-05
7.9004e-11
2.83535e-06
0.000100482
-9.461e-07
2.83535e-06
0.000100482
-1.71027e-06
2.72504e-06
9.66454e-05
-2.14949e-06
2.49242e-06
8.9104e-05
-2.20861e-06
2.14953e-06
7.81409e-05
1.72063e-06
6.41345e-05
-1.89266e-06
2.53436e-06
1.3562e-06
7.36829e-05
-2.14234e-06
2.4925e-06
1.7103e-06
8.9104e-05
1.98848e-06
1.98838e-06
0.000100909
1.09761e-06
2.16586e-06
0.00010885
7.23162e-11
2.23723e-06
0.000112824
-1.09747e-06
2.23723e-06
0.000112824
-1.98834e-06
2.16586e-06
0.00010885
-2.49238e-06
1.98838e-06
0.00010091
-2.53426e-06
1.71031e-06
8.9104e-05
1.35621e-06
7.36829e-05
-2.14228e-06
2.76478e-06
7.48722e-07
8.05167e-05
-2.31997e-06
2.72512e-06
9.46139e-07
9.66454e-05
2.16595e-06
1.0975e-06
0.00010885
1.18728e-06
1.18719e-06
0.000116917
6.81155e-11
1.21095e-06
0.000120875
-1.18715e-06
1.21095e-06
0.000120875
-2.16582e-06
1.18719e-06
0.000116917
-2.72501e-06
1.09751e-06
0.00010885
-2.76469e-06
9.46142e-07
9.66454e-05
7.48728e-07
8.05167e-05
-2.31991e-06
2.88108e-06
-4.00138e-11
8.40692e-05
-2.41045e-06
2.83543e-06
-3.60718e-11
0.000100482
2.23732e-06
-3.31213e-11
0.000112824
1.21104e-06
-3.1225e-11
0.000120875
6.60549e-11
-3.02959e-11
0.0001247
-1.21091e-06
-3.03471e-11
0.0001247
-2.2372e-06
-3.13743e-11
0.000120875
-2.83532e-06
-3.33738e-11
0.000112824
-2.88099e-06
-3.6431e-11
0.000100482
-4.04795e-11
8.40693e-05
-2.41038e-06
2.88108e-06
-7.488e-07
8.40692e-05
-2.41045e-06
2.83543e-06
-9.4621e-07
0.000100482
2.23732e-06
-1.09757e-06
0.000112824
1.21104e-06
-1.18725e-06
0.000120875
6.6012e-11
-1.21101e-06
0.0001247
-1.21091e-06
-1.21101e-06
0.0001247
-2.2372e-06
-1.18725e-06
0.000120875
-2.83532e-06
-1.09757e-06
0.000112824
-2.88099e-06
-9.46214e-07
0.000100482
-7.48807e-07
8.40693e-05
-2.41038e-06
2.76478e-06
-1.35627e-06
8.05167e-05
-2.31997e-06
2.72512e-06
-1.71037e-06
9.66454e-05
2.16595e-06
-1.98844e-06
0.00010885
1.18728e-06
-2.16591e-06
0.000116917
6.79894e-11
-2.23729e-06
0.000120875
-1.18715e-06
-2.23729e-06
0.000120875
-2.16582e-06
-2.16591e-06
0.000116917
-2.72501e-06
-1.98844e-06
0.00010885
-2.76469e-06
-1.71037e-06
9.66454e-05
-1.35629e-06
8.05167e-05
-2.3199e-06
2.53435e-06
-1.72067e-06
7.36828e-05
-2.14234e-06
2.4925e-06
-2.14958e-06
8.9104e-05
1.98847e-06
-2.49246e-06
0.000100909
1.09761e-06
-2.72509e-06
0.00010885
7.20698e-11
-2.8354e-06
0.000112824
-1.09747e-06
-2.8354e-06
0.000112824
-1.98834e-06
-2.7251e-06
0.00010885
-2.49238e-06
-2.49247e-06
0.00010091
-2.53426e-06
-2.14959e-06
8.9104e-05
-1.72069e-06
7.36829e-05
-2.14227e-06
2.20871e-06
-1.80879e-06
6.41344e-05
-1.89273e-06
2.14962e-06
-2.20868e-06
7.81408e-05
1.71041e-06
-2.53433e-06
8.9104e-05
9.46252e-07
-2.76475e-06
9.66454e-05
7.85831e-11
-2.88105e-06
0.000100482
-9.46099e-07
-2.88105e-06
0.000100482
-1.71026e-06
-2.76476e-06
9.66454e-05
-2.14949e-06
-2.53433e-06
8.9104e-05
-2.20861e-06
-2.20869e-06
7.81408e-05
-1.80881e-06
6.41345e-05
-1.89266e-06
1.80883e-06
5.26895e-05
-1.60204e-06
-1.60207e-06
1.72072e-06
6.41344e-05
-1.89271e-06
1.35632e-06
7.36829e-05
-2.14232e-06
7.48849e-07
8.05167e-05
-2.31995e-06
8.7664e-11
8.40692e-05
-2.41043e-06
-7.48678e-07
8.40693e-05
-2.41043e-06
-1.35616e-06
8.05167e-05
-2.31995e-06
-1.72058e-06
7.36829e-05
-2.14233e-06
-1.80872e-06
6.41344e-05
-1.89272e-06
5.26895e-05
-1.60199e-06
-1.60206e-06
3.41231e-07
3.41065e-07
5.2476e-05
-2.34458e-07
-2.34337e-07
3.90817e-07
4.8218e-07
6.39128e-05
-3.10108e-07
3.42045e-07
6.13237e-07
7.35074e-05
-3.88943e-07
1.99749e-07
7.13899e-07
8.03976e-05
-4.5253e-07
1.54196e-10
7.67207e-07
8.3988e-05
-4.86375e-07
-1.99449e-07
7.67209e-07
8.39881e-05
-4.86377e-07
-3.41767e-07
7.13906e-07
8.03977e-05
-4.52538e-07
-3.90575e-07
6.1325e-07
7.35074e-05
-3.88957e-07
-3.41035e-07
4.82203e-07
6.39129e-05
-3.10131e-07
3.41096e-07
5.24761e-05
-2.34321e-07
-2.34365e-07
4.82329e-07
3.9062e-07
6.39127e-05
-3.10219e-07
5.64234e-07
5.64059e-07
7.7977e-05
4.96377e-07
7.18457e-07
8.90666e-05
2.89345e-07
8.32651e-07
9.67337e-05
1.38112e-10
8.90777e-07
0.000100648
-2.89075e-07
8.90778e-07
0.000100648
-4.96125e-07
8.32656e-07
9.67337e-05
-5.64013e-07
7.18467e-07
8.90667e-05
-4.82149e-07
5.64077e-07
7.79771e-05
3.90647e-07
6.39129e-05
-3.1009e-07
6.13368e-07
3.41827e-07
7.35073e-05
-3.89039e-07
7.18614e-07
4.96184e-07
8.90666e-05
6.31533e-07
6.31358e-07
0.000101084
3.66815e-07
7.28429e-07
0.000109219
1.26326e-10
7.7382e-07
0.000113308
-3.66568e-07
7.73821e-07
0.000113308
-6.31302e-07
7.28432e-07
0.000109219
-7.1841e-07
6.31365e-07
0.000101084
-6.13203e-07
4.96196e-07
8.90667e-05
3.41847e-07
7.35074e-05
-3.88922e-07
7.14019e-07
1.99522e-07
8.03976e-05
-4.52618e-07
8.32795e-07
2.89143e-07
9.67336e-05
7.2859e-07
3.66632e-07
0.000109219
4.21665e-07
4.21494e-07
0.000117531
1.18835e-10
4.43835e-07
0.000121626
-4.21433e-07
4.43835e-07
0.000121626
-7.28373e-07
4.21495e-07
0.000117531
-8.32604e-07
3.66635e-07
0.000109219
-7.13863e-07
2.89148e-07
9.67337e-05
1.99532e-07
8.03977e-05
-4.52507e-07
7.67319e-07
-7.05329e-11
8.3988e-05
-4.86456e-07
8.90915e-07
-6.34901e-11
0.000100648
7.73976e-07
-5.82889e-11
0.000113308
4.44001e-07
-5.49842e-11
0.000121626
1.15199e-10
-5.34228e-11
0.000125588
-4.43775e-07
-5.3527e-11
0.000125588
-7.73765e-07
-5.52887e-11
0.000121626
-8.90728e-07
-5.87992e-11
0.000113308
-7.67168e-07
-6.41939e-11
0.000100648
-7.13585e-11
8.39881e-05
-4.86348e-07
7.67318e-07
-1.9966e-07
8.3988e-05
-4.86455e-07
8.90914e-07
-2.89267e-07
0.000100648
7.73976e-07
-3.66746e-07
0.000113308
4.44001e-07
-4.21602e-07
0.000121626
1.15107e-10
-4.4394e-07
0.000125588
-4.43775e-07
-4.4394e-07
0.000125588
-7.73764e-07
-4.21603e-07
0.000121626
-8.90728e-07
-3.6675e-07
0.000113308
-7.67167e-07
-2.89274e-07
0.000100648
-1.99671e-07
8.39881e-05
-4.86347e-07
7.14015e-07
-3.41954e-07
8.03975e-05
-4.52614e-07
8.32792e-07
-4.96299e-07
9.67336e-05
7.28589e-07
-6.31465e-07
0.000109218
4.21665e-07
-7.28529e-07
0.000117531
1.18562e-10
-7.73919e-07
0.000121626
-4.21432e-07
-7.73919e-07
0.000121626
-7.28371e-07
-7.28533e-07
0.000117531
-8.32601e-07
-6.31472e-07
0.000109219
-7.1386e-07
-4.96313e-07
9.67337e-05
-3.41976e-07
8.03977e-05
-4.52503e-07
6.13361e-07
-3.90731e-07
7.35073e-05
-3.89033e-07
7.18608e-07
-5.64161e-07
8.90666e-05
6.31529e-07
-7.18551e-07
0.000101084
3.66813e-07
-8.32739e-07
0.000109218
1.25802e-10
-8.90863e-07
0.000113308
-3.66567e-07
-8.90865e-07
0.000113308
-6.31299e-07
-8.32745e-07
0.000109219
-7.18406e-07
-7.18562e-07
0.000101084
-6.13197e-07
-5.64179e-07
8.90667e-05
-3.9076e-07
7.35074e-05
-3.88916e-07
4.82318e-07
-3.41154e-07
6.39127e-05
-3.10208e-07
5.64225e-07
-4.82263e-07
7.7977e-05
4.9637e-07
-6.13313e-07
8.90666e-05
2.89341e-07
-7.13971e-07
9.67336e-05
1.37265e-10
-7.67276e-07
0.000100648
-2.89072e-07
-7.67279e-07
0.000100648
-4.9612e-07
-7.13979e-07
9.67337e-05
-5.64005e-07
-6.13327e-07
8.90667e-05
-4.82139e-07
-4.82286e-07
7.79771e-05
-3.41187e-07
6.39128e-05
-3.1008e-07
3.41215e-07
5.2476e-05
-2.344e-07
-2.34445e-07
3.90803e-07
6.39127e-05
-3.10167e-07
3.42035e-07
7.35073e-05
-3.88998e-07
1.99743e-07
8.03976e-05
-4.52582e-07
1.52943e-10
8.3988e-05
-4.86425e-07
-1.99445e-07
8.3988e-05
-4.86427e-07
-3.41758e-07
8.03976e-05
-4.5259e-07
-3.90563e-07
7.35074e-05
-3.89011e-07
-3.41021e-07
6.39128e-05
-3.1019e-07
5.24761e-05
-2.34309e-07
-2.34429e-07
4.21286e-07
4.21012e-07
5.23955e-05
-3.81016e-07
-3.80818e-07
3.939e-07
5.05776e-07
6.38798e-05
-4.45443e-07
3.07168e-07
5.74858e-07
7.35195e-05
-5.00297e-07
1.68723e-07
6.24496e-07
8.04506e-05
-5.39085e-07
2.54455e-10
6.49949e-07
8.40654e-05
-5.58853e-07
-1.68227e-07
6.49953e-07
8.40654e-05
-5.58857e-07
-3.06708e-07
6.24508e-07
8.04507e-05
-5.39098e-07
-3.93501e-07
5.7488e-07
7.35197e-05
-5.00318e-07
-4.20964e-07
5.05812e-07
6.388e-05
-4.4548e-07
4.21063e-07
5.23957e-05
-3.8079e-07
-3.80862e-07
5.06022e-07
3.93573e-07
6.38798e-05
-4.45627e-07
4.83e-07
4.82709e-07
7.80231e-05
3.80622e-07
5.55781e-07
8.91881e-05
2.09843e-07
6.07608e-07
9.69213e-05
2.29074e-10
6.33189e-07
0.000100874
-2.09395e-07
6.33192e-07
0.000100874
-3.80204e-07
6.07617e-07
9.69214e-05
-4.82633e-07
5.55798e-07
8.91882e-05
-5.05724e-07
4.82738e-07
7.80233e-05
3.93619e-07
6.388e-05
-4.45414e-07
5.75075e-07
3.06805e-07
7.35195e-05
-5.00456e-07
5.56042e-07
3.803e-07
8.91881e-05
4.41252e-07
4.40962e-07
0.000101313
2.43574e-07
4.82889e-07
0.000109541
2.09958e-10
5.01292e-07
0.000113683
-2.43164e-07
5.01293e-07
0.000113683
-4.40869e-07
4.82894e-07
0.000109541
-5.55704e-07
4.40973e-07
0.000101313
-5.74801e-07
3.8032e-07
8.91882e-05
3.06839e-07
7.35197e-05
-5.00261e-07
6.24695e-07
1.68346e-07
8.04506e-05
-5.39231e-07
6.07849e-07
2.09507e-07
9.69213e-05
4.83159e-07
2.43269e-07
0.000109541
2.66165e-07
2.6588e-07
0.000117965
1.97565e-10
2.73803e-07
0.00012212
-2.65778e-07
2.73803e-07
0.00012212
-4.82797e-07
2.65881e-07
0.000117965
-6.07531e-07
2.43274e-07
0.000109541
-6.24436e-07
2.09516e-07
9.69214e-05
1.68363e-07
8.04508e-05
-5.39046e-07
6.50136e-07
-1.18255e-10
8.40653e-05
-5.58988e-07
6.33419e-07
-1.06686e-10
0.000100874
5.01552e-07
-9.79899e-11
0.000113683
2.74079e-07
-9.24054e-11
0.00012212
1.91488e-10
-8.97498e-11
0.000126136
-2.73703e-07
-8.99131e-11
0.000126136
-5.012e-07
-9.28885e-11
0.00012212
-6.33109e-07
-9.87869e-11
0.000113683
-6.49886e-07
-1.07731e-10
0.000100874
-1.19428e-10
8.40655e-05
-5.58809e-07
6.50135e-07
-1.68577e-07
8.40653e-05
-5.58987e-07
6.33417e-07
-2.09715e-07
0.000100874
5.01551e-07
-2.43461e-07
0.000113683
2.74079e-07
-2.66061e-07
0.00012212
1.9134e-10
-2.73979e-07
0.000126135
-2.73703e-07
-2.73979e-07
0.000126136
-5.01199e-07
-2.66063e-07
0.00012212
-6.33108e-07
-2.43467e-07
0.000113683
-6.49884e-07
-2.09727e-07
0.000100874
-1.68596e-07
8.40655e-05
-5.58807e-07
6.24689e-07
-3.07019e-07
8.04505e-05
-5.39225e-07
6.07845e-07
-3.80494e-07
9.69212e-05
4.83156e-07
-4.41141e-07
0.000109541
2.66164e-07
-4.83058e-07
0.000117965
1.9711e-10
-5.01457e-07
0.00012212
-2.65778e-07
-5.01458e-07
0.00012212
-4.82795e-07
-4.83064e-07
0.000117965
-6.07527e-07
-4.41154e-07
0.000109541
-6.24431e-07
-3.80516e-07
9.69214e-05
-3.07055e-07
8.04507e-05
-5.3904e-07
5.75064e-07
-3.93759e-07
7.35194e-05
-5.00445e-07
5.56033e-07
-4.8288e-07
8.9188e-05
4.41246e-07
-5.55938e-07
0.000101313
2.43571e-07
-6.07757e-07
0.000109541
2.09081e-10
-6.33334e-07
0.000113683
-2.43162e-07
-6.33337e-07
0.000113683
-4.40864e-07
-6.07767e-07
0.000109541
-5.55696e-07
-5.55956e-07
0.000101313
-5.74791e-07
-4.8291e-07
8.91882e-05
-3.93806e-07
7.35196e-05
-5.00251e-07
5.06004e-07
-4.21162e-07
6.38797e-05
-4.45609e-07
4.82985e-07
-5.05915e-07
7.8023e-05
3.8061e-07
-5.74985e-07
8.9188e-05
2.09836e-07
-6.24617e-07
9.69213e-05
2.27621e-10
-6.50067e-07
0.000100874
-2.09391e-07
-6.50071e-07
0.000100874
-3.80196e-07
-6.24629e-07
9.69213e-05
-4.8262e-07
-5.75008e-07
8.91881e-05
-5.05708e-07
-5.05952e-07
7.80232e-05
-4.21214e-07
6.38799e-05
-4.45397e-07
4.21261e-07
5.23954e-05
-3.80923e-07
-3.80995e-07
3.93877e-07
6.38797e-05
-4.45543e-07
3.07149e-07
7.35194e-05
-5.00388e-07
1.68712e-07
8.04506e-05
-5.39172e-07
2.52272e-10
8.40653e-05
-5.58938e-07
-1.6822e-07
8.40653e-05
-5.58941e-07
-3.06693e-07
8.04506e-05
-5.39185e-07
-3.93481e-07
7.35196e-05
-5.00409e-07
-4.20941e-07
6.38799e-05
-4.4558e-07
5.23957e-05
-3.8077e-07
-3.80968e-07
7.41343e-08
7.37061e-08
5.23471e-05
-4.98601e-08
-4.95515e-08
8.57067e-08
1.05009e-07
6.38295e-05
-6.62582e-08
7.51784e-08
1.34078e-07
7.34799e-05
-8.39257e-08
4.40679e-08
1.56627e-07
8.04235e-05
-9.83978e-08
3.95845e-10
1.68747e-07
8.40465e-05
-1.06181e-07
-4.32958e-08
1.68753e-07
8.40466e-05
-1.06186e-07
-7.44636e-08
1.56646e-07
8.04237e-05
-9.84169e-08
-8.50861e-08
1.34112e-07
7.34801e-05
-8.39577e-08
-7.36348e-08
1.05064e-07
6.38298e-05
-6.63132e-08
7.37839e-08
5.23475e-05
-4.95108e-08
-4.96181e-08
1.05395e-07
8.51951e-08
6.38295e-05
-6.65452e-08
1.23844e-07
1.23386e-07
7.79863e-05
1.08966e-07
1.57394e-07
8.91797e-05
6.36653e-08
1.83068e-07
9.69402e-05
3.58925e-10
1.96574e-07
0.00010091
-6.29637e-08
1.96578e-07
0.00010091
-1.08313e-07
1.83082e-07
9.69403e-05
-1.23271e-07
1.57421e-07
8.91799e-05
-1.04929e-07
1.23431e-07
7.79866e-05
8.52646e-08
6.38298e-05
-6.62133e-08
1.34421e-07
7.46102e-08
7.34798e-05
-8.41756e-08
1.57807e-07
1.0846e-07
8.91796e-05
1.38868e-07
1.38408e-07
0.000101351
8.10009e-08
1.60854e-07
0.000109621
3.30395e-10
1.72173e-07
0.000113788
-8.03544e-08
1.72176e-07
0.000113788
-1.38265e-07
1.60863e-07
0.000109621
-1.57277e-07
1.38426e-07
0.000101351
-1.33992e-07
1.08491e-07
8.91799e-05
7.46623e-08
7.34802e-05
-8.38706e-08
1.56942e-07
4.34765e-08
8.04234e-05
-9.86279e-08
1.8345e-07
6.31348e-08
9.69401e-05
1.61283e-07
8.05168e-08
0.000109621
9.42131e-08
9.37592e-08
0.000118099
3.11554e-10
1.0019e-07
0.000122285
-9.36028e-08
1.0019e-07
0.000122285
-1.60713e-07
9.37623e-08
0.000118099
-1.82949e-07
8.05244e-08
0.000109621
-1.56536e-07
6.31498e-08
9.69404e-05
4.35029e-08