/*--------------------------------*- C++ -*----------------------------------*\
| =========                 |                                                 |
| \\      /  F ield         | OpenFOAM: The Open Source CFD Toolbox           |
|  \\    /   O peration     | Version:  2406                                  |
|   \\  /    A nd           | Website:  www.openfoam.com                      |
|    \\/     M anipulation  |                                                 |
\*---------------------------------------------------------------------------*/
FoamFile
{
    version     2.0;
    format      ascii;
    arch        "LSB;label=32;scalar=64";
    class       volScalarField;
    location    "1.8";
    object      turbulenceProperties:nut;
}
// * * * * * * * * * * * * * * * * * * * * * * * * * * * * * * * * * * * * * //

dimensions      [0 2 -1 0 0 0 0];

internalField   uniform 0;

boundaryField
{
    walls
    {
        type            nutUSpaldingWallFunction;
        value           nonuniform List<scalar> 
2000
(
3.17327e-09
4.55003e-09
5.99778e-09
7.1845e-09
7.85304e-09
7.85304e-09
7.1845e-09
5.99778e-09
4.55003e-09
3.17327e-09
1.87209e-09
2.63221e-09
3.46484e-09
4.1654e-09
4.56594e-09
4.56594e-09
4.1654e-09
3.46484e-09
2.63221e-09
1.87209e-09
9.82539e-10
1.36006e-09
1.78336e-09
2.14883e-09
2.36025e-09
2.36025e-09
2.14883e-09
1.78336e-09
1.36006e-09
9.82539e-10
1.15789e-09
1.60986e-09
2.11112e-09
2.53958e-09
2.78626e-09
2.78626e-09
2.53958e-09
2.11112e-09
1.60985e-09
1.15789e-09
9.94213e-10
1.37765e-09
1.80716e-09
2.17686e-09
2.39061e-09
2.39061e-09
2.17686e-09
1.80716e-09
1.37765e-09
9.94212e-10
1.04406e-09
1.44902e-09
1.90131e-09
2.28976e-09
2.5141e-09
2.5141e-09
2.28976e-09
1.90131e-09
1.44902e-09
1.04405e-09
1.00244e-09
1.38997e-09
1.82395e-09
2.1974e-09
2.41333e-09
2.41333e-09
2.1974e-09
1.82395e-09
1.38997e-09
1.00243e-09
1.0158e-09
1.40908e-09
1.84911e-09
2.22752e-09
2.44624e-09
2.44624e-09
2.22752e-09
1.8491e-09
1.40907e-09
1.01579e-09
1.00506e-09
1.39384e-09
1.82913e-09
2.20365e-09
2.42018e-09
2.42017e-09
2.20364e-09
1.82912e-09
1.39383e-09
1.00506e-09
1.00861e-09
1.39891e-09
1.8358e-09
2.21163e-09
2.42889e-09
2.42889e-09
2.21162e-09
1.83578e-09
1.3989e-09
1.0086e-09
1.00583e-09
1.39496e-09
1.83061e-09
2.20543e-09
2.42213e-09
2.42212e-09
2.20542e-09
1.83059e-09
1.39494e-09
1.00581e-09
1.00677e-09
1.39631e-09
1.83239e-09
2.20755e-09
2.42444e-09
2.42443e-09
2.20753e-09
1.83236e-09
1.39628e-09
1.00674e-09
1.00606e-09
1.39529e-09
1.83105e-09
2.20595e-09
2.42269e-09
2.42268e-09
2.20592e-09
1.83101e-09
1.39524e-09
1.00602e-09
1.00632e-09
1.39566e-09
1.83153e-09
2.20652e-09
2.42331e-09
2.4233e-09
2.20649e-09
1.83148e-09
1.3956e-09
1.00626e-09
1.00614e-09
1.3954e-09
1.83119e-09
2.20612e-09
2.42287e-09
2.42285e-09
2.20607e-09
1.83113e-09
1.39533e-09
1.00607e-09
1.00621e-09
1.3955e-09
1.83132e-09
2.20627e-09
2.42303e-09
2.42302e-09
2.20623e-09
1.83126e-09
1.39543e-09
1.00614e-09
1.00615e-09
1.39543e-09
1.83123e-09
2.20616e-09
2.42291e-09
2.4229e-09
2.20612e-09
1.83116e-09
1.39536e-09
1.00609e-09
1.00616e-09
1.39544e-09
1.83125e-09
2.20619e-09
2.42294e-09
2.42293e-09
2.20615e-09
1.83119e-09
1.39537e-09
1.0061e-09
1.00613e-09
1.3954e-09
1.8312e-09
2.20613e-09
2.42289e-09
2.42288e-09
2.2061e-09
1.83115e-09
1.39535e-09
1.00608e-09
1.00611e-09
1.39538e-09
1.83118e-09
2.20611e-09
2.42287e-09
2.42287e-09
2.20609e-09
1.83115e-09
1.39535e-09
1.00608e-09
1.00609e-09
1.39535e-09
1.83114e-09
2.20607e-09
2.42283e-09
2.42283e-09
2.20606e-09
1.83113e-09
1.39533e-09
1.00608e-09
1.00607e-09
1.39532e-09
1.83111e-09
2.20604e-09
2.4228e-09
2.42281e-09
2.20605e-09
1.83112e-09
1.39533e-09
1.00608e-09
1.00604e-09
1.39529e-09
1.83108e-09
2.20601e-09
2.42277e-09
2.42278e-09
2.20603e-09
1.8311e-09
1.39532e-09
1.00607e-09
1.00603e-09
1.39527e-09
1.83105e-09
2.20598e-09
2.42275e-09
2.42276e-09
2.20602e-09
1.8311e-09
1.39532e-09
1.00607e-09
1.00601e-09
1.39525e-09
1.83103e-09
2.20596e-09
2.42273e-09
2.42274e-09
2.206e-09
1.83109e-09
1.39531e-09
1.00607e-09
1.006e-09
1.39524e-09
1.83101e-09
2.20594e-09
2.42271e-09
2.42273e-09
2.20599e-09
1.83108e-09
1.39531e-09
1.00607e-09
1.00599e-09
1.39522e-09
1.831e-09
2.20592e-09
2.42269e-09
2.42271e-09
2.20597e-09
1.83107e-09
1.3953e-09
1.00606e-09
1.00598e-09
1.39521e-09
1.83098e-09
2.20591e-09
2.42268e-09
2.4227e-09
2.20596e-09
1.83106e-09
1.39529e-09
1.00606e-09
1.00598e-09
1.39521e-09
1.83098e-09
2.2059e-09
2.42267e-09
2.42269e-09
2.20595e-09
1.83105e-09
1.39529e-09
1.00606e-09
1.00598e-09
1.39521e-09
1.83098e-09
2.20591e-09
2.42267e-09
2.42269e-09
2.20596e-09
1.83105e-09
1.39529e-09
1.00606e-09
1.006e-09
1.39523e-09
1.831e-09
2.20593e-09
2.42269e-09
2.42271e-09
2.20597e-09
1.83107e-09
1.3953e-09
1.00607e-09
1.00603e-09
1.39527e-09
1.83104e-09
2.20597e-09
2.42273e-09
2.42274e-09
2.206e-09
1.83109e-09
1.39532e-09
1.00608e-09
1.00608e-09
1.39533e-09
1.83111e-09
2.20603e-09
2.42279e-09
2.42279e-09
2.20604e-09
1.83112e-09
1.39534e-09
1.00609e-09
1.00614e-09
1.3954e-09
1.83119e-09
2.20611e-09
2.42286e-09
2.42285e-09
2.20609e-09
1.83115e-09
1.39535e-09
1.00609e-09
1.0062e-09
1.39548e-09
1.83127e-09
2.2062e-09
2.42294e-09
2.42292e-09
2.20613e-09
1.83118e-09
1.39537e-09
1.0061e-09
1.00626e-09
1.39555e-09
1.83135e-09
2.20628e-09
2.42302e-09
2.42298e-09
2.20618e-09
1.8312e-09
1.39537e-09
1.00609e-09
1.00629e-09
1.39559e-09
1.8314e-09
2.20633e-09
2.42307e-09
2.42302e-09
2.2062e-09
1.83121e-09
1.39538e-09
1.00609e-09
1.00628e-09
1.39559e-09
1.83141e-09
2.20634e-09
2.42308e-09
2.42303e-09
2.20621e-09
1.83121e-09
1.39537e-09
1.00608e-09
1.00625e-09
1.39555e-09
1.83137e-09
2.20631e-09
2.42305e-09
2.42301e-09
2.20619e-09
1.8312e-09
1.39536e-09
1.00608e-09
1.00619e-09
1.39547e-09
1.83129e-09
2.20623e-09
2.42299e-09
2.42296e-09
2.20615e-09
1.83117e-09
1.39535e-09
1.00608e-09
1.00612e-09
1.3954e-09
1.83121e-09
2.20615e-09
2.42291e-09
2.42289e-09
2.20611e-09
1.83115e-09
1.39534e-09
1.00608e-09
1.00609e-09
1.39535e-09
1.83115e-09
2.20609e-09
2.42286e-09
2.42285e-09
2.20608e-09
1.83114e-09
1.39535e-09
1.00609e-09
1.00611e-09
1.39537e-09
1.83117e-09
2.20611e-09
2.42287e-09
2.42287e-09
2.20611e-09
1.83117e-09
1.39538e-09
1.00612e-09
1.00623e-09
1.39551e-09
1.83132e-09
2.20625e-09
2.42301e-09
2.42299e-09
2.20621e-09
1.83126e-09
1.39545e-09
1.00617e-09
1.00647e-09
1.3958e-09
1.83163e-09
2.20657e-09
2.4233e-09
2.42325e-09
2.20643e-09
1.83143e-09
1.39557e-09
1.00625e-09
1.00687e-09
1.39629e-09
1.83218e-09
2.20712e-09
2.42382e-09
2.42371e-09
2.2068e-09
1.83171e-09
1.39577e-09
1.00637e-09
1.00742e-09
1.39696e-09
1.83291e-09
2.20786e-09
2.42452e-09
2.42431e-09
2.20729e-09
1.83208e-09
1.39602e-09
1.00653e-09
1.0082e-09
1.39794e-09
1.83404e-09
2.20907e-09
2.4257e-09
2.42539e-09
2.2082e-09
1.83279e-09
1.39653e-09
1.00686e-09
1.00885e-09
1.39873e-09
1.8349e-09
2.20993e-09
2.4265e-09
2.42609e-09
2.20877e-09
1.83323e-09
1.39686e-09
1.00708e-09
1.01023e-09
1.40058e-09
1.83721e-09
2.21254e-09
2.42921e-09
2.42867e-09
2.21104e-09
1.83509e-09
1.39824e-09
1.00805e-09
3.17327e-09
4.55003e-09
5.99778e-09
7.1845e-09
7.85304e-09
7.85304e-09
7.1845e-09
5.99778e-09
4.55003e-09
3.17327e-09
1.87209e-09
2.63221e-09
3.46484e-09
4.1654e-09
4.56594e-09
4.56594e-09
4.1654e-09
3.46484e-09
2.63221e-09
1.87209e-09
9.82539e-10
1.36006e-09
1.78336e-09
2.14883e-09
2.36025e-09
2.36025e-09
2.14883e-09
1.78336e-09
1.36006e-09
9.82539e-10
1.15789e-09
1.60985e-09
2.11112e-09
2.53958e-09
2.78626e-09
2.78626e-09
2.53958e-09
2.11112e-09
1.60986e-09
1.15789e-09
9.94211e-10
1.37765e-09
1.80716e-09
2.17686e-09
2.39061e-09
2.39061e-09
2.17686e-09
1.80716e-09
1.37765e-09
9.94213e-10
1.04405e-09
1.44902e-09
1.90131e-09
2.28976e-09
2.5141e-09
2.5141e-09
2.28976e-09
1.90131e-09
1.44902e-09
1.04406e-09
1.00243e-09
1.38996e-09
1.82394e-09
2.19739e-09
2.41332e-09
2.41332e-09
2.1974e-09
1.82395e-09
1.38997e-09
1.00244e-09
1.01579e-09
1.40906e-09
1.84909e-09
2.22751e-09
2.44623e-09
2.44623e-09
2.22752e-09
1.8491e-09
1.40908e-09
1.0158e-09
1.00505e-09
1.39382e-09
1.8291e-09
2.20363e-09
2.42016e-09
2.42017e-09
2.20364e-09
1.82912e-09
1.39384e-09
1.00506e-09
1.00858e-09
1.39888e-09
1.83577e-09
2.2116e-09
2.42887e-09
2.42888e-09
2.21162e-09
1.83579e-09
1.39891e-09
1.00861e-09
1.00579e-09
1.39491e-09
1.83056e-09
2.20539e-09
2.4221e-09
2.42211e-09
2.20542e-09
1.8306e-09
1.39495e-09
1.00583e-09
1.00671e-09
1.39624e-09
1.83232e-09
2.2075e-09
2.4244e-09
2.42441e-09
2.20753e-09
1.83237e-09
1.3963e-09
1.00677e-09
1.00598e-09
1.3952e-09
1.83096e-09
2.20588e-09
2.42264e-09
2.42266e-09
2.20593e-09
1.83103e-09
1.39528e-09
1.00606e-09
1.00622e-09
1.39555e-09
1.83142e-09
2.20643e-09
2.42325e-09
2.42327e-09
2.20649e-09
1.83151e-09
1.39565e-09
1.00631e-09
1.00603e-09
1.39528e-09
1.83107e-09
2.20601e-09
2.42279e-09
2.42282e-09
2.20608e-09
1.83117e-09
1.39539e-09
1.00613e-09
1.00609e-09
1.39537e-09
1.83119e-09
2.20616e-09
2.42296e-09
2.42298e-09
2.20623e-09
1.8313e-09
1.39549e-09
1.0062e-09
1.00604e-09
1.39529e-09
1.83109e-09
2.20605e-09
2.42283e-09
2.42286e-09
2.20612e-09
1.8312e-09
1.39541e-09
1.00615e-09
1.00606e-09
1.39532e-09
1.83112e-09
2.20608e-09
2.42287e-09
2.42289e-09
2.20615e-09
1.83122e-09
1.39543e-09
1.00616e-09
1.00605e-09
1.3953e-09
1.8311e-09
2.20605e-09
2.42283e-09
2.42285e-09
2.2061e-09
1.83118e-09
1.39539e-09
1.00613e-09
1.00606e-09
1.39531e-09
1.8311e-09
2.20605e-09
2.42282e-09
2.42284e-09
2.20609e-09
1.83116e-09
1.39537e-09
1.00611e-09
1.00606e-09
1.39531e-09
1.8311e-09
2.20603e-09
2.4228e-09
2.42281e-09
2.20605e-09
1.83113e-09
1.39534e-09
1.00609e-09
1.00606e-09
1.39531e-09
1.83109e-09
2.20602e-09
2.42278e-09
2.42279e-09
2.20603e-09
1.8311e-09
1.39532e-09
1.00606e-09
1.00606e-09
1.39531e-09
1.83109e-09
2.20601e-09
2.42277e-09
2.42276e-09
2.206e-09
1.83107e-09
1.39529e-09
1.00604e-09
1.00606e-09
1.39531e-09
1.83108e-09
2.206e-09
2.42275e-09
2.42274e-09
2.20598e-09
1.83105e-09
1.39527e-09
1.00603e-09
1.00607e-09
1.39531e-09
1.83108e-09
2.20599e-09
2.42274e-09
2.42272e-09
2.20596e-09
1.83103e-09
1.39525e-09
1.00601e-09
1.00607e-09
1.39531e-09
1.83108e-09
2.20599e-09
2.42273e-09
2.42271e-09
2.20594e-09
1.83101e-09
1.39524e-09
1.006e-09
1.00607e-09
1.39531e-09
1.83108e-09
2.20598e-09
2.42272e-09
2.4227e-09
2.20593e-09
1.831e-09
1.39522e-09
1.00599e-09
1.00607e-09
1.39531e-09
1.83107e-09
2.20598e-09
2.42271e-09
2.42269e-09
2.20592e-09
1.83099e-09
1.39522e-09
1.00598e-09
1.00607e-09
1.39531e-09
1.83107e-09
2.20597e-09
2.42271e-09
2.42269e-09
2.20591e-09
1.83099e-09
1.39521e-09
1.00598e-09
1.00606e-09
1.3953e-09
1.83106e-09
2.20597e-09
2.4227e-09
2.42268e-09
2.20591e-09
1.83099e-09
1.39522e-09
1.00598e-09
1.00606e-09
1.39529e-09
1.83106e-09
2.20596e-09
2.4227e-09
2.42269e-09
2.20593e-09
1.831e-09
1.39523e-09
1.006e-09
1.00605e-09
1.39529e-09
1.83106e-09
2.20597e-09
2.42272e-09
2.42271e-09
2.20595e-09
1.83103e-09
1.39526e-09
1.00603e-09
1.00605e-09
1.39529e-09
1.83106e-09
2.20599e-09
2.42274e-09
2.42275e-09
2.206e-09
1.83109e-09
1.39532e-09
1.00607e-09
1.00605e-09
1.3953e-09
1.83108e-09
2.20602e-09
2.42279e-09
2.42281e-09
2.20608e-09
1.83116e-09
1.39539e-09
1.00613e-09
1.00605e-09
1.39531e-09
1.83111e-09
2.20607e-09
2.42286e-09
2.42289e-09
2.20616e-09
1.83125e-09
1.39547e-09
1.0062e-09
1.00606e-09
1.39533e-09
1.83115e-09
2.20612e-09
2.42293e-09
2.42297e-09
2.20625e-09
1.83133e-09
1.39554e-09
1.00625e-09
1.00606e-09
1.39534e-09
1.83118e-09
2.20616e-09
2.42298e-09
2.42304e-09
2.20631e-09
1.83139e-09
1.39558e-09
1.00629e-09
1.00607e-09
1.39536e-09
1.83119e-09
2.20619e-09
2.42301e-09
2.42306e-09
2.20633e-09
1.8314e-09
1.39558e-09
1.00628e-09
1.00608e-09
1.39536e-09
1.83119e-09
2.20618e-09
2.423e-09
2.42304e-09
2.2063e-09
1.83136e-09
1.39554e-09
1.00625e-09
1.00608e-09
1.39535e-09
1.83117e-09
2.20615e-09
2.42295e-09
2.42299e-09
2.20624e-09
1.83129e-09
1.39548e-09
1.00619e-09
1.00607e-09
1.39534e-09
1.83114e-09
2.2061e-09
2.42289e-09
2.42291e-09
2.20615e-09
1.83121e-09
1.3954e-09
1.00612e-09
1.00607e-09
1.39532e-09
1.83112e-09
2.20606e-09
2.42283e-09
2.42284e-09
2.20608e-09
1.83114e-09
1.39535e-09
1.00609e-09
1.00607e-09
1.39532e-09
1.8311e-09
2.20604e-09
2.42281e-09
2.42282e-09
2.20608e-09
1.83115e-09
1.39536e-09
1.00611e-09
1.00606e-09
1.39532e-09
1.83112e-09
2.20607e-09
2.42286e-09
2.4229e-09
2.20618e-09
1.83127e-09
1.39549e-09
1.00622e-09
1.00606e-09
1.39534e-09
1.83117e-09
2.20617e-09
2.42302e-09
2.42312e-09
2.20644e-09
1.83156e-09
1.39576e-09
1.00646e-09
1.00601e-09
1.39533e-09
1.83124e-09
2.20633e-09
2.42329e-09
2.4235e-09
2.20689e-09
1.83204e-09
1.39623e-09
1.00686e-09
1.00592e-09
1.3953e-09
1.83131e-09
2.20655e-09
2.42367e-09
2.42402e-09
2.20752e-09
1.8327e-09
1.39685e-09
1.00739e-09
1.00561e-09
1.39506e-09
1.83122e-09
2.20669e-09
2.42407e-09
2.42467e-09
2.20835e-09
1.83362e-09
1.39773e-09
1.00814e-09
1.00538e-09
1.39489e-09
1.83119e-09
2.20686e-09
2.42447e-09
2.42527e-09
2.20908e-09
1.83439e-09
1.39846e-09
1.00877e-09
1.00431e-09
1.39382e-09
1.83036e-09
2.20646e-09
2.42464e-09
2.426e-09
2.21025e-09
1.83578e-09
1.39986e-09
1.01e-09
3.17327e-09
4.55003e-09
5.99778e-09
7.1845e-09
7.85304e-09
7.85304e-09
7.1845e-09
5.99778e-09
4.55003e-09
3.17327e-09
1.87209e-09
2.63221e-09
3.46484e-09
4.1654e-09
4.56594e-09
4.56594e-09
4.1654e-09
3.46484e-09
2.63221e-09
1.87209e-09
9.82539e-10
1.36006e-09
1.78336e-09
2.14883e-09
2.36025e-09
2.36025e-09
2.14883e-09
1.78336e-09
1.36006e-09
9.82539e-10
1.15789e-09
1.60985e-09
2.11112e-09
2.53957e-09
2.78625e-09
2.78625e-09
2.53958e-09
2.11112e-09
1.60985e-09
1.15789e-09
9.9421e-10
1.37765e-09
1.80715e-09
2.17686e-09
2.39061e-09
2.39061e-09
2.17686e-09
1.80716e-09
1.37765e-09
9.94211e-10
1.04405e-09
1.44901e-09
1.9013e-09
2.28976e-09
2.51409e-09
2.51409e-09
2.28976e-09
1.90131e-09
1.44901e-09
1.04405e-09
1.00243e-09
1.38996e-09
1.82393e-09
2.19739e-09
2.41331e-09
2.41331e-09
2.19739e-09
1.82394e-09
1.38996e-09
1.00243e-09
1.01578e-09
1.40906e-09
1.84908e-09
2.2275e-09
2.44621e-09
2.44622e-09
2.2275e-09
1.84909e-09
1.40906e-09
1.01579e-09
1.00504e-09
1.39381e-09
1.82909e-09
2.20361e-09
2.42014e-09
2.42014e-09
2.20361e-09
1.82909e-09
1.39381e-09
1.00504e-09
1.00857e-09
1.39886e-09
1.83574e-09
2.21157e-09
2.42883e-09
2.42884e-09
2.21158e-09
1.83575e-09
1.39887e-09
1.00858e-09
1.00576e-09
1.39488e-09
1.83052e-09
2.20534e-09
2.42204e-09
2.42204e-09
2.20535e-09
1.83054e-09
1.3949e-09
1.00578e-09
1.00668e-09
1.3962e-09
1.83226e-09
2.20742e-09
2.42431e-09
2.42432e-09
2.20744e-09
1.83228e-09
1.39622e-09
1.00671e-09
1.00594e-09
1.39514e-09
1.83088e-09
2.20578e-09
2.42252e-09
2.42253e-09
2.2058e-09
1.83091e-09
1.39518e-09
1.00597e-09
1.00617e-09
1.39548e-09
1.83132e-09
2.20631e-09
2.4231e-09
2.42311e-09
2.20633e-09
1.83136e-09
1.39552e-09
1.00621e-09
1.00597e-09
1.39519e-09
1.83095e-09
2.20587e-09
2.42262e-09
2.42263e-09
2.20589e-09
1.83099e-09
1.39524e-09
1.00602e-09
1.00603e-09
1.39528e-09
1.83107e-09
2.206e-09
2.42277e-09
2.42278e-09
2.20603e-09
1.83111e-09
1.39533e-09
1.00608e-09
1.00599e-09
1.39521e-09
1.83098e-09
2.20589e-09
2.42265e-09
2.42266e-09
2.20592e-09
1.83101e-09
1.39525e-09
1.00603e-09
1.00602e-09
1.39525e-09
1.83102e-09
2.20594e-09
2.4227e-09
2.42271e-09
2.20596e-09
1.83105e-09
1.39528e-09
1.00605e-09
1.00602e-09
1.39525e-09
1.83102e-09
2.20593e-09
2.42269e-09
2.42269e-09
2.20595e-09
1.83104e-09
1.39527e-09
1.00604e-09
1.00604e-09
1.39528e-09
1.83105e-09
2.20597e-09
2.42273e-09
2.42273e-09
2.20598e-09
1.83106e-09
1.39529e-09
1.00605e-09
1.00606e-09
1.3953e-09
1.83108e-09
2.206e-09
2.42275e-09
2.42275e-09
2.206e-09
1.83107e-09
1.3953e-09
1.00605e-09
1.00608e-09
1.39533e-09
1.83111e-09
2.20603e-09
2.42278e-09
2.42278e-09
2.20602e-09
1.83109e-09
1.39531e-09
1.00606e-09
1.00609e-09
1.39535e-09
1.83113e-09
2.20605e-09
2.42281e-09
2.4228e-09
2.20604e-09
1.8311e-09
1.39532e-09
1.00607e-09
1.00611e-09
1.39536e-09
1.83115e-09
2.20608e-09
2.42283e-09
2.42282e-09
2.20605e-09
1.83112e-09
1.39533e-09
1.00607e-09
1.00612e-09
1.39538e-09
1.83117e-09
2.2061e-09
2.42285e-09
2.42284e-09
2.20607e-09
1.83113e-09
1.39533e-09
1.00607e-09
1.00613e-09
1.3954e-09
1.83119e-09
2.20612e-09
2.42287e-09
2.42286e-09
2.20608e-09
1.83114e-09
1.39534e-09
1.00608e-09
1.00615e-09
1.39541e-09
1.83121e-09
2.20614e-09
2.42289e-09
2.42287e-09
2.20609e-09
1.83115e-09
1.39534e-09
1.00608e-09
1.00616e-09
1.39543e-09
1.83122e-09
2.20616e-09
2.42291e-09
2.42289e-09
2.20611e-09
1.83115e-09
1.39535e-09
1.00608e-09
1.00616e-09
1.39543e-09
1.83123e-09
2.20616e-09
2.42291e-09
2.4229e-09
2.20611e-09
1.83116e-09
1.39535e-09
1.00608e-09
1.00616e-09
1.39543e-09
1.83123e-09
2.20616e-09
2.42291e-09
2.42289e-09
2.20611e-09
1.83115e-09
1.39534e-09
1.00608e-09
1.00614e-09
1.39541e-09
1.83121e-09
2.20614e-09
2.42289e-09
2.42287e-09
2.20609e-09
1.83114e-09
1.39533e-09
1.00607e-09
1.00611e-09
1.39537e-09
1.83117e-09
2.2061e-09
2.42285e-09
2.42284e-09
2.20606e-09
1.83112e-09
1.39532e-09
1.00606e-09
1.00607e-09
1.39532e-09
1.83111e-09
2.20604e-09
2.4228e-09
2.42279e-09
2.20602e-09
1.83109e-09
1.3953e-09
1.00605e-09
1.00601e-09
1.39525e-09
1.83103e-09
2.20596e-09
2.42272e-09
2.42273e-09
2.20597e-09
1.83105e-09
1.39528e-09
1.00604e-09
1.00595e-09
1.39517e-09
1.83094e-09
2.20587e-09
2.42264e-09
2.42266e-09
2.20592e-09
1.83102e-09
1.39526e-09
1.00603e-09
1.00589e-09
1.39511e-09
1.83087e-09
2.20579e-09
2.42256e-09
2.4226e-09
2.20588e-09
1.83099e-09
1.39525e-09
1.00603e-09
1.00586e-09
1.39507e-09
1.83082e-09
2.20574e-09
2.42251e-09
2.42255e-09
2.20585e-09
1.83098e-09
1.39525e-09
1.00603e-09
1.00587e-09
1.39507e-09
1.83081e-09
2.20573e-09
2.4225e-09
2.42254e-09
2.20584e-09
1.83098e-09
1.39525e-09
1.00604e-09
1.0059e-09
1.3951e-09
1.83085e-09
2.20576e-09
2.42253e-09
2.42257e-09
2.20587e-09
1.831e-09
1.39526e-09
1.00605e-09
1.00595e-09
1.39517e-09
1.83092e-09
2.20583e-09
2.4226e-09
2.42263e-09
2.20591e-09
1.83103e-09
1.39528e-09
1.00606e-09
1.00601e-09
1.39523e-09
1.83099e-09
2.20591e-09
2.42267e-09
2.42269e-09
2.20596e-09
1.83106e-09
1.3953e-09
1.00607e-09
1.00603e-09
1.39526e-09
1.83103e-09
2.20596e-09
2.42272e-09
2.42274e-09
2.206e-09
1.83109e-09
1.39532e-09
1.00607e-09
1.00598e-09
1.39521e-09
1.83099e-09
2.20592e-09
2.4227e-09
2.42273e-09
2.20599e-09
1.83109e-09
1.39531e-09
1.00607e-09
1.00583e-09
1.39503e-09
1.83081e-09
2.20575e-09
2.42256e-09
2.42262e-09
2.20591e-09
1.83103e-09
1.39528e-09
1.00605e-09
1.00555e-09
1.3947e-09
1.83045e-09
2.20542e-09
2.42226e-09
2.42237e-09
2.20573e-09
1.83091e-09
1.39521e-09
1.00602e-09
1.00511e-09
1.39418e-09
1.82988e-09
2.20484e-09
2.42173e-09
2.42192e-09
2.20538e-09
1.83065e-09
1.39504e-09
1.00592e-09
1.00457e-09
1.39352e-09
1.82915e-09
2.2041e-09
2.42103e-09
2.42131e-09
2.20488e-09
1.83028e-09
1.39478e-09
1.00577e-09
1.00386e-09
1.3926e-09
1.82807e-09
2.20292e-09
2.41984e-09
2.4202e-09
2.20391e-09
1.8295e-09
1.3942e-09
1.00537e-09
1.00331e-09
1.39192e-09
1.82729e-09
2.2021e-09
2.41903e-09
2.41944e-09
2.20324e-09
1.82893e-09
1.39375e-09
1.00504e-09
1.00217e-09
1.39032e-09
1.8252e-09
2.19962e-09
2.41633e-09
2.41673e-09
2.20074e-09
1.82678e-09
1.39206e-09
1.0038e-09
3.17327e-09
4.55003e-09
5.99778e-09
7.1845e-09
7.85304e-09
7.85304e-09
7.1845e-09
5.99778e-09
4.55003e-09
3.17327e-09
1.87209e-09
2.63221e-09
3.46484e-09
4.1654e-09
4.56594e-09
4.56594e-09
4.1654e-09
3.46484e-09
2.63221e-09
1.87209e-09
9.82539e-10
1.36006e-09
1.78336e-09
2.14883e-09
2.36025e-09
2.36025e-09
2.14883e-09
1.78336e-09
1.36006e-09
9.82539e-10
1.15789e-09
1.60985e-09
2.11112e-09
2.53958e-09
2.78626e-09
2.78625e-09
2.53958e-09
2.11112e-09
1.60985e-09
1.15789e-09
9.94212e-10
1.37765e-09
1.80716e-09
2.17686e-09
2.39061e-09
2.39061e-09
2.17686e-09
1.80715e-09
1.37765e-09
9.9421e-10
1.04405e-09
1.44902e-09
1.90131e-09
2.28976e-09
2.51409e-09
2.51409e-09
2.28976e-09
1.9013e-09
1.44901e-09
1.04405e-09
1.00243e-09
1.38997e-09
1.82394e-09
2.19739e-09
2.41332e-09
2.41332e-09
2.19739e-09
1.82394e-09
1.38996e-09
1.00243e-09
1.01579e-09
1.40907e-09
1.8491e-09
2.22751e-09
2.44622e-09
2.44622e-09
2.2275e-09
1.84908e-09
1.40906e-09
1.01578e-09
1.00505e-09
1.39383e-09
1.82911e-09
2.20362e-09
2.42015e-09
2.42014e-09
2.20361e-09
1.82909e-09
1.39381e-09
1.00504e-09
1.0086e-09
1.39889e-09
1.83577e-09
2.21159e-09
2.42885e-09
2.42885e-09
2.21158e-09
1.83574e-09
1.39886e-09
1.00857e-09
1.0058e-09
1.39492e-09
1.83057e-09
2.20538e-09
2.42206e-09
2.42206e-09
2.20535e-09
1.83053e-09
1.39488e-09
1.00576e-09
1.00674e-09
1.39626e-09
1.83232e-09
2.20747e-09
2.42435e-09
2.42434e-09
2.20744e-09
1.83227e-09
1.3962e-09
1.00668e-09
1.00601e-09
1.39522e-09
1.83096e-09
2.20584e-09
2.42257e-09
2.42255e-09
2.2058e-09
1.8309e-09
1.39515e-09
1.00594e-09
1.00626e-09
1.39557e-09
1.83142e-09
2.20639e-09
2.42316e-09
2.42314e-09
2.20634e-09
1.83134e-09
1.39549e-09
1.00618e-09
1.00606e-09
1.3953e-09
1.83106e-09
2.20596e-09
2.42269e-09
2.42267e-09
2.2059e-09
1.83097e-09
1.39521e-09
1.00598e-09
1.00613e-09
1.39539e-09
1.83118e-09
2.2061e-09
2.42284e-09
2.42282e-09
2.20604e-09
1.83109e-09
1.39529e-09
1.00604e-09
1.00608e-09
1.39532e-09
1.83108e-09
2.20599e-09
2.42272e-09
2.4227e-09
2.20593e-09
1.831e-09
1.39523e-09
1.00599e-09
1.00609e-09
1.39534e-09
1.83111e-09
2.20603e-09
2.42277e-09
2.42275e-09
2.20598e-09
1.83104e-09
1.39526e-09
1.00602e-09
1.00608e-09
1.39532e-09
1.83109e-09
2.20601e-09
2.42275e-09
2.42273e-09
2.20597e-09
1.83104e-09
1.39526e-09
1.00602e-09
1.00608e-09
1.39533e-09
1.8311e-09
2.20602e-09
2.42277e-09
2.42276e-09
2.206e-09
1.83107e-09
1.39529e-09
1.00604e-09
1.00608e-09
1.39532e-09
1.8311e-09
2.20603e-09
2.42278e-09
2.42278e-09
2.20601e-09
1.83109e-09
1.39531e-09
1.00606e-09
1.00608e-09
1.39533e-09
1.83111e-09
2.20604e-09
2.4228e-09
2.4228e-09
2.20604e-09
1.83111e-09
1.39533e-09
1.00608e-09
1.00608e-09
1.39533e-09
1.83112e-09
2.20605e-09
2.42282e-09
2.42282e-09
2.20606e-09
1.83113e-09
1.39535e-09
1.00609e-09
1.00608e-09
1.39534e-09
1.83113e-09
2.20607e-09
2.42283e-09
2.42284e-09
2.20609e-09
1.83116e-09
1.39537e-09
1.00611e-09
1.00608e-09
1.39534e-09
1.83113e-09
2.20607e-09
2.42285e-09
2.42286e-09
2.2061e-09
1.83117e-09
1.39538e-09
1.00612e-09
1.00607e-09
1.39534e-09
1.83113e-09
2.20608e-09
2.42286e-09
2.42287e-09
2.20612e-09
1.83119e-09
1.3954e-09
1.00613e-09
1.00607e-09
1.39533e-09
1.83113e-09
2.20608e-09
2.42286e-09
2.42288e-09
2.20613e-09
1.83121e-09
1.39541e-09
1.00615e-09
1.00607e-09
1.39533e-09
1.83113e-09
2.20609e-09
2.42287e-09
2.42289e-09
2.20614e-09
1.83122e-09
1.39542e-09
1.00616e-09
1.00607e-09
1.39533e-09
1.83113e-09
2.20609e-09
2.42287e-09
2.4229e-09
2.20615e-09
1.83122e-09
1.39543e-09
1.00616e-09
1.00607e-09
1.39533e-09
1.83114e-09
2.20609e-09
2.42288e-09
2.4229e-09
2.20615e-09
1.83122e-09
1.39543e-09
1.00616e-09
1.00608e-09
1.39534e-09
1.83114e-09
2.20609e-09
2.42288e-09
2.42289e-09
2.20614e-09
1.83121e-09
1.39541e-09
1.00614e-09
1.00608e-09
1.39535e-09
1.83115e-09
2.20609e-09
2.42286e-09
2.42287e-09
2.20611e-09
1.83118e-09
1.39538e-09
1.00611e-09
1.00609e-09
1.39535e-09
1.83114e-09
2.20607e-09
2.42283e-09
2.42283e-09
2.20606e-09
1.83112e-09
1.39533e-09
1.00607e-09
1.00609e-09
1.39534e-09
1.83112e-09
2.20604e-09
2.42279e-09
2.42277e-09
2.20599e-09
1.83105e-09
1.39526e-09
1.00601e-09
1.00608e-09
1.39532e-09
1.83109e-09
2.20599e-09
2.42272e-09
2.42269e-09
2.20591e-09
1.83097e-09
1.39518e-09
1.00595e-09
1.00607e-09
1.3953e-09
1.83105e-09
2.20594e-09
2.42265e-09
2.42261e-09
2.20583e-09
1.83089e-09
1.39512e-09
1.0059e-09
1.00606e-09
1.39528e-09
1.83102e-09
2.20589e-09
2.4226e-09
2.42255e-09
2.20577e-09
1.83084e-09
1.39508e-09
1.00587e-09
1.00605e-09
1.39527e-09
1.831e-09
2.20587e-09
2.42257e-09
2.42252e-09
2.20574e-09
1.83082e-09
1.39507e-09
1.00587e-09
1.00605e-09
1.39527e-09
1.831e-09
2.20588e-09
2.42258e-09
2.42254e-09
2.20577e-09
1.83085e-09
1.39511e-09
1.0059e-09
1.00606e-09
1.39528e-09
1.83103e-09
2.20591e-09
2.42263e-09
2.4226e-09
2.20583e-09
1.83092e-09
1.39517e-09
1.00595e-09
1.00607e-09
1.39531e-09
1.83107e-09
2.20596e-09
2.42269e-09
2.42267e-09
2.20591e-09
1.83099e-09
1.39523e-09
1.00601e-09
1.00609e-09
1.39534e-09
1.83111e-09
2.20602e-09
2.42275e-09
2.42273e-09
2.20596e-09
1.83104e-09
1.39526e-09
1.00603e-09
1.00612e-09
1.39537e-09
1.83115e-09
2.20605e-09
2.42278e-09
2.42274e-09
2.20595e-09
1.831e-09
1.39522e-09
1.00598e-09
1.00616e-09
1.39541e-09
1.83117e-09
2.20605e-09
2.42273e-09
2.42265e-09
2.20581e-09
1.83084e-09
1.39505e-09
1.00583e-09
1.00621e-09
1.39544e-09
1.83116e-09
2.20597e-09
2.42258e-09
2.42242e-09
2.20552e-09
1.83052e-09
1.39473e-09
1.00555e-09
1.00629e-09
1.39547e-09
1.83112e-09
2.20583e-09
2.42231e-09
2.42203e-09
2.20505e-09
1.83e-09
1.39424e-09
1.00513e-09
1.00638e-09
1.39551e-09
1.83105e-09
2.20562e-09
2.42195e-09
2.42152e-09
2.20442e-09
1.82934e-09
1.39361e-09
1.0046e-09
1.00662e-09
1.39569e-09
1.83111e-09
2.20547e-09
2.42155e-09
2.4209e-09
2.20365e-09
1.8285e-09
1.39281e-09
1.00391e-09
1.00676e-09
1.39577e-09
1.83105e-09
2.20525e-09
2.42116e-09
2.42036e-09
2.20301e-09
1.82784e-09
1.3922e-09
1.00339e-09
1.00755e-09
1.39654e-09
1.83164e-09
2.2055e-09
2.42098e-09
2.41975e-09
2.20209e-09
1.82676e-09
1.39112e-09
1.00243e-09
)
;
    }
    inlet
    {
        type            calculated;
        value           uniform 0;
    }
    outlet
    {
        type            calculated;
        value           uniform 0;
    }
}


// ************************************************************************* //
