/*--------------------------------*- C++ -*----------------------------------*\
| =========                 |                                                 |
| \\      /  F ield         | OpenFOAM: The Open Source CFD Toolbox           |
|  \\    /   O peration     | Version:  2406                                  |
|   \\  /    A nd           | Website:  www.openfoam.com                      |
|    \\/     M anipulation  |                                                 |
\*---------------------------------------------------------------------------*/
FoamFile
{
    version     2.0;
    format      ascii;
    arch        "LSB;label=32;scalar=64";
    class       volSymmTensorField;
    location    "1.8";
    object      turbulenceProperties:R;
}
// * * * * * * * * * * * * * * * * * * * * * * * * * * * * * * * * * * * * * //

dimensions      [0 2 -2 0 0 0 0];

internalField   uniform (0 -0 -0 0 -0 0);

boundaryField
{
    walls
    {
        type            calculated;
        value           nonuniform List<symmTensor> 
2000
(
(-8.57814e-08 7.13915e-08 2.96519e-07 -5.45552e-08 -2.50416e-07 1.40337e-07)
(-1.48118e-07 9.04417e-08 4.6866e-07 -5.04315e-08 -2.88973e-07 1.9855e-07)
(-2.2472e-07 9.40331e-08 6.72753e-07 -3.32467e-08 -2.81247e-07 2.57967e-07)
(-2.95107e-07 7.27076e-08 8.52688e-07 -1.06402e-08 -2.06803e-07 3.05748e-07)
(-3.38005e-07 2.73266e-08 9.58424e-07 5.72803e-09 -7.62257e-08 3.32277e-07)
(-3.38005e-07 -2.73266e-08 9.58424e-07 5.72803e-09 7.62257e-08 3.32277e-07)
(-2.95107e-07 -7.27076e-08 8.52688e-07 -1.06402e-08 2.06803e-07 3.05748e-07)
(-2.2472e-07 -9.40331e-08 6.72753e-07 -3.32467e-08 2.81247e-07 2.57967e-07)
(-1.48118e-07 -9.04417e-08 4.6866e-07 -5.04315e-08 2.88973e-07 1.9855e-07)
(-8.57814e-08 -7.13915e-08 2.96519e-07 -5.45552e-08 2.50416e-07 1.40337e-07)
(-2.65059e-09 1.14305e-09 1.2721e-07 -1.93539e-10 -1.07006e-07 2.84413e-09)
(-4.96873e-09 8.57955e-10 1.94467e-07 2.50487e-10 -1.19432e-07 4.71825e-09)
(-6.63814e-09 9.81871e-10 2.78039e-07 -3.47562e-10 -1.15974e-07 6.9857e-09)
(-8.43987e-09 7.36466e-10 3.54163e-07 -5.23384e-10 -8.57648e-08 8.96326e-09)
(-9.51402e-09 3.1557e-10 3.9976e-07 -6.40896e-10 -3.1757e-08 1.01549e-08)
(-9.51402e-09 -3.15581e-10 3.9976e-07 -6.40898e-10 3.1757e-08 1.01549e-08)
(-8.43987e-09 -7.36475e-10 3.54163e-07 -5.23389e-10 8.57648e-08 8.96326e-09)
(-6.63813e-09 -9.81877e-10 2.78039e-07 -3.47568e-10 1.15974e-07 6.9857e-09)
(-4.96873e-09 -8.57957e-10 1.94467e-07 2.50482e-10 1.19432e-07 4.71825e-09)
(-2.65058e-09 -1.14305e-09 1.2721e-07 -1.93543e-10 1.07006e-07 2.84413e-09)
(-2.81688e-10 -9.7543e-12 4.46157e-08 -1.31544e-10 -3.74019e-08 4.13232e-10)
(-3.72024e-10 -6.89742e-11 6.64963e-08 -2.67714e-10 -4.07018e-08 6.39738e-10)
(-3.80579e-10 -1.55251e-11 9.44537e-08 -5.35558e-10 -3.93214e-08 9.16136e-10)
(-4.69094e-10 3.02516e-11 1.20767e-07 -6.88757e-10 -2.92194e-08 1.15785e-09)
(-5.5053e-10 2.58728e-11 1.36781e-07 -7.51491e-10 -1.08594e-08 1.30202e-09)
(-5.50528e-10 -2.58851e-11 1.36781e-07 -7.51493e-10 1.08594e-08 1.30202e-09)
(-4.69089e-10 -3.02614e-11 1.20767e-07 -6.88762e-10 2.92194e-08 1.15785e-09)
(-3.80573e-10 1.5519e-11 9.44537e-08 -5.35564e-10 3.93214e-08 9.16137e-10)
(-3.72018e-10 6.89715e-11 6.64963e-08 -2.67719e-10 4.07018e-08 6.39738e-10)
(-2.81684e-10 9.75375e-12 4.46156e-08 -1.31548e-10 3.74019e-08 4.13232e-10)
(-8.3017e-11 6.37116e-11 5.83154e-08 5.43382e-11 -4.89402e-08 2.86788e-11)
(-1.88712e-10 4.47487e-11 8.75602e-08 1.32436e-10 -5.36429e-08 5.62758e-11)
(-2.50158e-10 3.99099e-11 1.24419e-07 1.56922e-10 -5.1816e-08 9.32362e-11)
(-3.13403e-10 1.81076e-11 1.58663e-07 1.85729e-10 -3.83893e-08 1.27674e-10)
(-3.4375e-10 7.19434e-12 1.79367e-07 1.93301e-10 -1.42394e-08 1.5045e-10)
(-3.43746e-10 -7.22433e-12 1.79367e-07 1.93296e-10 1.42394e-08 1.5045e-10)
(-3.13391e-10 -1.81318e-11 1.58663e-07 1.85716e-10 3.83893e-08 1.27675e-10)
(-2.50144e-10 -3.99249e-11 1.24418e-07 1.56907e-10 5.18159e-08 9.3237e-11)
(-1.88699e-10 -4.47555e-11 8.75601e-08 1.32422e-10 5.36429e-08 5.62767e-11)
(-8.30085e-11 -6.37129e-11 5.83153e-08 5.4329e-11 4.89402e-08 2.86795e-11)
(-3.31095e-11 -1.09645e-11 4.54834e-08 -3.64897e-11 -3.81423e-08 6.95992e-11)
(-2.44091e-11 -1.21151e-11 6.79132e-08 -7.99444e-11 -4.15774e-08 1.04353e-10)
(-1.48675e-11 6.46855e-12 9.65369e-08 -1.29697e-10 -4.01948e-08 1.44565e-10)
(-2.74683e-11 1.81996e-11 1.23377e-07 -1.51376e-10 -2.98523e-08 1.78844e-10)
(-4.33602e-11 1.01274e-11 1.39698e-07 -1.55325e-10 -1.10917e-08 1.98685e-10)
(-4.33532e-11 -1.01729e-11 1.39698e-07 -1.55333e-10 1.10917e-08 1.98686e-10)
(-2.745e-11 -1.82363e-11 1.23377e-07 -1.51395e-10 2.98523e-08 1.78845e-10)
(-1.48452e-11 -6.49138e-12 9.65369e-08 -1.29721e-10 4.01948e-08 1.44566e-10)
(-2.43889e-11 1.21046e-11 6.79131e-08 -7.99658e-11 4.15774e-08 1.04355e-10)
(-3.30965e-11 1.09624e-11 4.54833e-08 -3.65038e-11 3.81423e-08 6.96003e-11)
(-1.35301e-11 1.43593e-11 4.92586e-08 1.07397e-11 -4.13222e-08 2.79041e-12)
(-3.34166e-11 1.31829e-11 7.37447e-08 2.69996e-11 -4.51624e-08 6.41705e-12)
(-4.77056e-11 1.33064e-11 1.0488e-07 3.6278e-11 -4.36763e-08 1.14276e-11)
(-6.26417e-11 8.1426e-12 1.33993e-07 4.6594e-11 -3.24236e-08 1.60477e-11)
(-7.03274e-11 3.08017e-12 1.51669e-07 5.1137e-11 -1.20427e-08 1.91904e-11)
(-7.03146e-11 -3.1626e-12 1.51669e-07 5.11235e-11 1.20427e-08 1.9191e-11)
(-6.26085e-11 -8.20927e-12 1.33993e-07 4.6559e-11 3.24235e-08 1.60495e-11)
(-4.76651e-11 -1.33478e-11 1.0488e-07 3.62351e-11 4.36762e-08 1.14299e-11)
(-3.33798e-11 -1.3202e-11 7.37445e-08 2.69603e-11 4.51623e-08 6.41949e-12)
(-1.35064e-11 -1.4363e-11 4.92584e-08 1.0714e-11 4.13221e-08 2.79244e-12)
(-8.13326e-12 -3.02926e-12 4.6097e-08 -9.58098e-12 -3.86621e-08 1.77142e-11)
(-5.64092e-12 -3.25389e-12 6.89054e-08 -2.09198e-11 -4.21911e-08 2.65607e-11)
(-3.17626e-12 1.37131e-12 9.80048e-08 -3.36699e-11 -4.08107e-08 3.68461e-11)
(-6.16269e-12 4.49187e-12 1.25284e-07 -3.94717e-11 -3.03165e-08 4.56344e-11)
(-1.01392e-11 2.46849e-12 1.41873e-07 -4.05756e-11 -1.12654e-08 5.07148e-11)
(-1.01194e-11 -2.59615e-12 1.41873e-07 -4.05963e-11 1.12654e-08 5.07158e-11)
(-6.11121e-12 -4.59519e-12 1.25284e-07 -3.9526e-11 3.03165e-08 4.56372e-11)
(-3.11345e-12 -1.43549e-12 9.80045e-08 -3.37362e-11 4.08106e-08 3.68497e-11)
(-5.58383e-12 3.22419e-12 6.89052e-08 -2.09807e-11 4.21909e-08 2.65645e-11)
(-8.09655e-12 3.02346e-12 4.60968e-08 -9.62086e-12 3.86619e-08 1.77174e-11)
(-3.25253e-12 3.58819e-12 4.71027e-08 2.92967e-12 -3.95092e-08 3.22865e-13)
(-8.36338e-12 3.16754e-12 7.0457e-08 7.30779e-12 -4.31448e-08 1.05559e-12)
(-1.19649e-11 2.94683e-12 1.00221e-07 9.81813e-12 -4.17353e-08 2.14679e-12)
(-1.549e-11 1.59212e-12 1.28099e-07 1.22942e-11 -3.09983e-08 3.19579e-12)
(-1.72087e-11 5.12872e-13 1.45045e-07 1.32739e-11 -1.15173e-08 3.93481e-12)
(-1.71777e-11 -7.13097e-13 1.45045e-07 1.32414e-11 1.15173e-08 3.93635e-12)
(-1.54092e-11 -1.75433e-12 1.28099e-07 1.2209e-11 3.09983e-08 3.20022e-12)
(-1.18662e-11 -3.04767e-12 1.0022e-07 9.71377e-12 4.17351e-08 2.15248e-12)
(-8.27349e-12 -3.21429e-12 7.04565e-08 7.21178e-12 4.31446e-08 1.06171e-12)
(-3.19492e-12 -3.59726e-12 4.71023e-08 2.8669e-12 3.95089e-08 3.2802e-13)
(-2.03204e-12 -8.17556e-13 4.62938e-08 -2.48221e-12 -3.88286e-08 4.51425e-12)
(-1.37777e-12 -8.94602e-13 6.92184e-08 -5.39352e-12 -4.23843e-08 6.77129e-12)
(-7.37699e-13 2.41195e-13 9.84593e-08 -8.66795e-12 -4.1001e-08 9.40565e-12)
(-1.45792e-12 1.01807e-12 1.25866e-07 -1.021e-11 -3.04579e-08 1.16679e-11)
(-2.43261e-12 4.91982e-13 1.42531e-07 -1.05481e-11 -1.13178e-08 1.29808e-11)
(-2.38784e-12 -7.81358e-13 1.42531e-07 -1.05952e-11 1.13178e-08 1.2983e-11)
(-1.3412e-12 -1.25263e-12 1.25865e-07 -1.03332e-11 3.04578e-08 1.16744e-11)
(-5.95175e-13 -3.87046e-13 9.84585e-08 -8.81886e-12 4.10007e-08 9.41404e-12)
(-1.24788e-12 8.26895e-13 6.92176e-08 -5.5325e-12 4.23838e-08 6.78038e-12)
(-1.94916e-12 8.04471e-13 4.62931e-08 -2.57277e-12 3.8828e-08 4.52193e-12)
(-7.78769e-13 9.28228e-13 4.65605e-08 7.57012e-13 -3.90532e-08 2.17568e-14)
(-2.1104e-12 8.1744e-13 6.96296e-08 1.92949e-12 -4.2637e-08 1.80908e-13)
(-3.06824e-12 7.1488e-13 9.90462e-08 2.63919e-12 -4.12458e-08 4.29052e-13)
(-3.97136e-12 3.06906e-13 1.26611e-07 3.29754e-12 -3.06383e-08 6.73827e-13)
(-4.38059e-12 -2.8042e-14 1.4337e-07 3.52933e-12 -1.13845e-08 8.5126e-13)
(-4.31945e-12 -3.67526e-13 1.4337e-07 3.46499e-12 1.13845e-08 8.54455e-13)
(-3.81194e-12 -6.27697e-13 1.2661e-07 3.12884e-12 3.06382e-08 6.83103e-13)
(-2.87363e-12 -9.14308e-13 9.9045e-08 2.43261e-12 4.12453e-08 4.41022e-13)
(-1.93306e-12 -9.10035e-13 6.96283e-08 1.73912e-12 4.26363e-08 1.93935e-13)
(-6.66388e-13 -9.45955e-13 4.65594e-08 6.33587e-13 3.90523e-08 3.28009e-14)
(-4.86562e-13 -2.12727e-13 4.63511e-08 -6.62504e-13 -3.8877e-08 1.14907e-12)
(-3.32037e-13 -2.36936e-13 6.93088e-08 -1.39267e-12 -4.24401e-08 1.72471e-12)
(-1.96446e-13 1.60833e-14 9.85899e-08 -2.20024e-12 -4.10556e-08 2.39669e-12)
(-3.87123e-13 1.53239e-13 1.26032e-07 -2.58806e-12 -3.04983e-08 2.97518e-12)
(-6.10036e-13 -5.85964e-14 1.42719e-07 -2.70226e-12 -1.13327e-08 3.3123e-12)
(-5.34352e-13 -4.3216e-13 1.42718e-07 -2.78214e-12 1.13328e-08 3.31649e-12)
(-1.8974e-13 -5.51351e-13 1.26031e-07 -2.79761e-12 3.0498e-08 2.98735e-12)
(4.43212e-14 -2.63475e-13 9.85881e-08 -2.45674e-12 4.10549e-08 2.41241e-12)
(-1.1276e-13 1.22054e-13 6.9307e-08 -1.62907e-12 4.24389e-08 1.74183e-12)
(-3.48819e-13 1.90913e-13 4.63495e-08 -8.1476e-13 3.88757e-08 1.16358e-12)
(-1.69492e-13 2.46396e-13 4.64222e-08 1.88776e-13 -3.89369e-08 -1.92842e-14)
(-5.43397e-13 2.09304e-13 6.94182e-08 5.31262e-13 -4.25073e-08 1.21351e-14)
(-8.31241e-13 1.33702e-13 9.87459e-08 7.65388e-13 -4.11207e-08 6.58528e-14)
(-1.07268e-12 -4.41175e-14 1.2623e-07 9.50189e-13 -3.05462e-08 1.22488e-13)
(-1.14647e-12 -2.08208e-13 1.42941e-07 9.79825e-13 -1.13504e-08 1.66644e-13)
(-1.06273e-12 -3.36585e-13 1.42941e-07 8.91031e-13 1.13504e-08 1.71694e-13)
(-8.54153e-13 -3.98166e-13 1.26228e-07 7.17047e-13 3.05458e-08 1.37106e-13)
(-5.64837e-13 -4.08496e-13 9.87432e-08 4.80105e-13 4.11196e-08 8.47322e-14)
(-3.00462e-13 -3.37207e-13 6.94155e-08 2.67806e-13 4.25057e-08 3.26555e-14)
(-1.83435e-14 -2.70498e-13 4.64198e-08 2.02508e-14 3.89349e-08 -1.90729e-15)
(-1.04186e-13 -5.3231e-14 4.63683e-08 -1.76505e-13 -3.88916e-08 2.80691e-13)
(-8.73698e-14 -6.89351e-14 6.93356e-08 -3.36239e-13 -4.24566e-08 4.23609e-13)
(-8.42158e-14 -4.71508e-14 9.86281e-08 -5.07118e-13 -4.10716e-08 5.91334e-13)
(-1.37567e-13 -7.36753e-14 1.26081e-07 -6.00574e-13 -3.051e-08 7.38141e-13)
(-1.65819e-13 -1.94634e-13 1.42773e-07 -6.60124e-13 -1.1337e-08 8.25943e-13)
(-8.64242e-14 -3.24743e-13 1.42772e-07 -7.44914e-13 1.1337e-08 8.31338e-13)
(6.98927e-14 -3.48662e-13 1.26078e-07 -8.23582e-13 3.05095e-08 7.53689e-13)
(1.68769e-13 -2.15494e-13 9.86246e-08 -7.80127e-13 4.10702e-08 6.11359e-13)
(1.44218e-13 -5.40022e-14 6.9332e-08 -5.89488e-13 4.24544e-08 4.4527e-13)
(3.84757e-14 3.0129e-14 4.63652e-08 -3.37424e-13 3.88889e-08 2.98948e-13)
(-3.81655e-14 6.37473e-14 4.63878e-08 5.82079e-14 -3.89079e-08 -2.00424e-14)
(-1.4977e-13 4.503e-14 6.93654e-08 1.67816e-13 -4.24749e-08 -1.80459e-14)
(-2.42955e-13 -6.08604e-15 9.86705e-08 2.53652e-13 -4.10892e-08 -1.06972e-14)
(-3.0368e-13 -9.21633e-14 1.26134e-07 3.03472e-13 -3.05229e-08 2.086e-16)
(-3.0054e-13 -1.7353e-13 1.42833e-07 2.89155e-13 -1.13418e-08 1.13849e-14)
(-2.40579e-13 -2.22931e-13 1.42832e-07 2.24275e-13 1.13418e-08 1.63044e-14)
(-1.46353e-13 -2.31688e-13 1.26131e-07 1.32032e-13 3.05223e-08 1.43215e-14)
(-5.05586e-14 -1.96113e-13 9.8666e-08 4.32046e-14 4.10875e-08 7.35394e-15)
(2.8704e-14 -1.41239e-13 6.93609e-08 -3.00282e-14 4.24721e-08 1.32424e-15)
(7.07128e-14 -8.19785e-14 4.63838e-08 -6.68494e-14 3.89046e-08 -3.8634e-15)
(-4.8299e-14 -2.00987e-14 4.63742e-08 -1.86431e-14 -3.88965e-08 6.6942e-14)
(-4.28606e-14 -3.35573e-14 6.93446e-08 -5.78034e-14 -4.2462e-08 1.00664e-13)
(-3.68669e-14 -3.95737e-14 9.86406e-08 -1.03359e-13 -4.10768e-08 1.40226e-13)
(-3.85479e-14 -5.1899e-14 1.26096e-07 -1.37015e-13 -3.05137e-08 1.75563e-13)
(-3.38506e-14 -8.07498e-14 1.4279e-07 -1.63967e-13 -1.13384e-08 1.97818e-13)
(-6.73973e-15 -1.05166e-13 1.42788e-07 -1.94533e-13 1.13384e-08 2.01273e-13)
(3.3963e-14 -1.02943e-13 1.26092e-07 -2.19369e-13 3.05129e-08 1.85406e-13)
(5.34622e-14 -5.91714e-14 9.86354e-08 -2.06059e-13 4.10747e-08 1.52597e-13)
(4.6032e-14 -1.66277e-14 6.93392e-08 -1.59772e-13 4.24589e-08 1.1374e-13)
(5.90046e-15 9.97963e-15 4.63696e-08 -8.35155e-14 3.88927e-08 7.76151e-14)
(-6.75872e-14 3.91108e-15 4.63794e-08 6.86246e-14 -3.89009e-08 -1.03734e-15)
(-8.1106e-14 -1.33046e-14 6.93526e-08 8.18316e-14 -4.2467e-08 -7.25539e-16)
(-7.32724e-14 -1.77891e-14 9.86521e-08 7.2928e-14 -4.10816e-08 3.44316e-16)
(-6.44111e-14 -8.42605e-15 1.26111e-07 6.29393e-14 -3.05173e-08 1.4718e-15)
(-6.09368e-14 2.0693e-14 1.42806e-07 5.76173e-14 -1.13396e-08 3.31948e-15)
(-7.31559e-14 4.79294e-14 1.42805e-07 6.87579e-14 1.13397e-08 4.39808e-15)
(-9.33003e-14 5.77195e-14 1.26106e-07 8.87829e-14 3.05164e-08 4.51733e-15)
(-1.04267e-13 4.34454e-14 9.86464e-08 1.00502e-13 4.10793e-08 3.76526e-15)
(-9.80188e-14 1.82957e-14 6.93468e-08 9.53802e-14 4.24635e-08 2.63855e-15)
(-7.56428e-14 -4.63102e-15 4.63745e-08 7.43837e-14 3.88968e-08 1.25912e-15)
(-1.08331e-13 -2.43894e-14 4.63755e-08 7.51595e-14 -3.88976e-08 3.31712e-14)
(-8.05551e-14 -4.55009e-14 6.93467e-08 3.46864e-14 -4.24634e-08 4.58687e-14)
(-2.18468e-14 -2.13396e-14 9.86438e-08 -3.79349e-14 -4.10781e-08 5.97817e-14)
(1.44582e-14 3.86359e-14 1.261e-07 -8.38161e-14 -3.05148e-08 6.93579e-14)
(1.21463e-14 1.23913e-13 1.42795e-07 -8.62017e-14 -1.13387e-08 7.40554e-14)
(-3.68753e-14 1.85641e-13 1.42793e-07 -3.52866e-14 1.13388e-08 7.21619e-14)
(-1.09017e-13 2.03421e-13 1.26096e-07 4.49975e-14 3.05139e-08 6.40191e-14)
(-1.64937e-13 1.63529e-13 9.86382e-08 1.12709e-13 4.10759e-08 5.22283e-14)
(-1.93841e-13 1.01615e-13 6.9341e-08 1.56288e-13 4.246e-08 3.75526e-14)
(-1.69925e-13 3.18945e-14 4.63706e-08 1.44408e-13 3.88935e-08 2.55167e-14)
(-1.40687e-13 -2.18295e-14 4.6376e-08 1.15716e-13 -3.8898e-08 2.4971e-14)
(-1.13829e-13 -4.89152e-14 6.93477e-08 8.10962e-14 -4.2464e-08 3.27328e-14)
(-3.86583e-14 -1.39928e-14 9.86456e-08 -2.29745e-15 -4.10789e-08 4.09558e-14)
(7.36613e-15 6.97868e-14 1.26103e-07 -5.12335e-14 -3.05154e-08 4.38674e-14)
(1.74021e-15 1.96121e-13 1.42797e-07 -4.51545e-14 -1.1339e-08 4.34143e-14)
(-7.33683e-14 2.87962e-13 1.42796e-07 3.49723e-14 1.1339e-08 3.8396e-14)
(-1.82722e-13 3.11181e-13 1.26099e-07 1.52853e-13 3.05146e-08 2.98685e-14)
(-2.59282e-13 2.38956e-13 9.86404e-08 2.37188e-13 4.10768e-08 2.20932e-14)
(-2.9146e-13 1.40356e-13 6.93425e-08 2.78807e-13 4.24609e-08 1.26527e-14)
(-2.33911e-13 3.44345e-14 4.63716e-08 2.26497e-13 3.88944e-08 7.41384e-15)
(-1.55911e-13 -2.8649e-14 4.63737e-08 1.1613e-13 -3.88961e-08 3.97811e-14)
(-1.19327e-13 -5.71102e-14 6.93445e-08 6.58811e-14 -4.2462e-08 5.34463e-14)
(-2.77686e-14 -9.59688e-15 9.86414e-08 -4.04453e-14 -4.10772e-08 6.82139e-14)
(2.35429e-14 9.107e-14 1.26098e-07 -9.86966e-14 -3.05142e-08 7.51537e-14)
(1.37198e-14 2.3549e-13 1.42792e-07 -8.93086e-14 -1.13386e-08 7.55888e-14)
(-7.36323e-14 3.35473e-13 1.42791e-07 5.85678e-15 1.13386e-08 6.77755e-14)
(-1.97341e-13 3.58347e-13 1.26095e-07 1.43814e-13 3.05136e-08 5.35272e-14)
(-2.826e-13 2.74022e-13 9.86373e-08 2.43205e-13 4.10755e-08 3.93954e-14)
(-3.2245e-13 1.64191e-13 6.93404e-08 2.9921e-13 4.24596e-08 2.32398e-14)
(-2.56042e-13 4.27361e-14 4.63703e-08 2.42261e-13 3.88933e-08 1.37806e-14)
(-1.43821e-13 -2.29109e-14 4.63725e-08 1.04757e-13 -3.88951e-08 3.90644e-14)
(-1.11561e-13 -4.68825e-14 6.93429e-08 5.91198e-14 -4.24611e-08 5.24413e-14)
(-2.54086e-14 4.88591e-15 9.86395e-08 -4.15148e-14 -4.10764e-08 6.69234e-14)
(1.7404e-14 1.03285e-13 1.26096e-07 -9.03154e-14 -3.05137e-08 7.29114e-14)
(2.55343e-15 2.40581e-13 1.42791e-07 -7.43967e-14 -1.13385e-08 7.18432e-14)
(-8.35256e-14 3.30431e-13 1.4279e-07 2.15572e-14 1.13385e-08 6.19684e-14)
(-1.99705e-13 3.45495e-13 1.26094e-07 1.53936e-13 3.05133e-08 4.57697e-14)
(-2.73696e-13 2.5757e-13 9.86368e-08 2.42805e-13 4.10753e-08 3.08907e-14)
(-3.05177e-13 1.51562e-13 6.93402e-08 2.90085e-13 4.24595e-08 1.50925e-14)
(-2.3105e-13 3.56364e-14 4.63703e-08 2.23905e-13 3.88933e-08 7.14486e-15)
(-1.12553e-13 -1.75171e-14 4.63705e-08 7.19127e-14 -3.88934e-08 4.06401e-14)
(-8.19692e-14 -3.16745e-14 6.93401e-08 2.70313e-14 -4.24594e-08 5.4938e-14)
(-8.78251e-15 2.20322e-14 9.8636e-08 -6.14437e-14 -4.1075e-08 7.02262e-14)
(1.982e-14 1.09299e-13 1.26092e-07 -9.66416e-14 -3.05128e-08 7.68216e-14)
(-7.87222e-16 2.20824e-13 1.42787e-07 -7.46551e-14 -1.13382e-08 7.54423e-14)
(-7.57334e-14 2.85347e-13 1.42786e-07 1.12185e-14 1.13382e-08 6.45149e-14)
(-1.68665e-13 2.87924e-13 1.26091e-07 1.2172e-13 3.05127e-08 4.6945e-14)
(-2.22193e-13 2.08797e-13 9.8635e-08 1.91572e-13 4.10745e-08 3.0621e-14)
(-2.43537e-13 1.21897e-13 6.93392e-08 2.29315e-13 4.24588e-08 1.42214e-14)
(-1.76239e-13 2.73435e-14 4.63698e-08 1.70261e-13 3.88928e-08 5.97749e-15)
(-7.97602e-14 -1.02838e-14 4.63689e-08 4.36329e-14 -3.88921e-08 3.61273e-14)
(-5.53486e-14 -1.60638e-14 6.9338e-08 6.58588e-15 -4.24581e-08 4.87627e-14)
(-1.31946e-15 3.19483e-14 9.86334e-08 -6.05417e-14 -4.10739e-08 6.18612e-14)
(1.26484e-14 9.88765e-14 1.26089e-07 -7.96908e-14 -3.05122e-08 6.70424e-14)
(-9.21352e-15 1.76325e-13 1.42784e-07 -5.55162e-14 -1.1338e-08 6.47298e-14)
(-6.53455e-14 2.13277e-13 1.42784e-07 1.14538e-14 1.1338e-08 5.38916e-14)
(-1.28091e-13 2.06574e-13 1.2609e-07 9.05444e-14 3.05123e-08 3.75466e-14)
(-1.58638e-13 1.44344e-13 9.86341e-08 1.35851e-13 4.10742e-08 2.27873e-14)
(-1.69357e-13 8.31866e-14 6.93389e-08 1.60488e-13 4.24586e-08 8.86858e-15)
(-1.14645e-13 1.64721e-14 4.63697e-08 1.12413e-13 3.88928e-08 2.23154e-15)
(-6.35641e-14 -7.4706e-15 4.63673e-08 3.1661e-14 -3.88907e-08 3.1903e-14)
(-4.60484e-14 -1.21606e-14 6.93358e-08 3.02696e-15 -4.24568e-08 4.30214e-14)
(-7.34238e-15 2.28326e-14 9.86307e-08 -4.68078e-14 -4.10728e-08 5.41502e-14)
(-2.70007e-16 6.59445e-14 1.26086e-07 -5.8069e-14 -3.05115e-08 5.8339e-14)
(-1.51117e-14 1.12533e-13 1.42781e-07 -4.07684e-14 -1.13378e-08 5.58801e-14)
(-4.82084e-14 1.30302e-13 1.42782e-07 1.9994e-15 1.13378e-08 4.6209e-14)
(-8.28303e-14 1.24328e-13 1.26088e-07 5.06951e-14 3.05118e-08 3.21352e-14)
(-9.73275e-14 8.57669e-14 9.86332e-08 7.78526e-14 4.10737e-08 1.9475e-14)
(-1.05332e-13 5.16073e-14 6.93384e-08 9.74819e-14 4.24583e-08 7.85043e-15)
(-6.87438e-14 9.78006e-15 4.63696e-08 6.66617e-14 3.88926e-08 2.08212e-15)
(-6.93738e-14 -8.23474e-15 4.6366e-08 4.24201e-14 -3.88897e-08 2.69537e-14)
(-6.23924e-14 -2.12784e-14 6.93341e-08 2.59936e-14 -4.24558e-08 3.63988e-14)
(-3.32269e-14 -5.98322e-15 9.86286e-08 -1.25867e-14 -4.10719e-08 4.58136e-14)
(-2.38805e-14 1.25984e-14 1.26084e-07 -2.54119e-14 -3.05109e-08 4.92924e-14)
(-2.33257e-14 3.84032e-14 1.42779e-07 -2.40867e-14 -1.13376e-08 4.74124e-14)
(-3.2834e-14 5.11673e-14 1.4278e-07 -6.88435e-15 1.13376e-08 3.97184e-14)
(-4.71253e-14 5.77293e-14 1.26087e-07 1.85715e-14 3.05115e-08 2.85537e-14)
(-5.53643e-14 4.4675e-14 9.86325e-08 3.6948e-14 4.10734e-08 1.84163e-14)
(-6.84429e-14 3.29505e-14 6.93381e-08 5.95884e-14 4.24581e-08 8.8545e-15)
(-4.90214e-14 7.16127e-15 4.63695e-08 4.53846e-14 3.88926e-08 3.63687e-15)
(-8.20913e-14 -1.07532e-14 4.63649e-08 5.90591e-14 -3.88887e-08 2.30322e-14)
(-8.45083e-14 -3.42663e-14 6.93325e-08 5.30915e-14 -4.24548e-08 3.14168e-14)
(-5.90799e-14 -3.59767e-14 9.86266e-08 1.88686e-14 -4.10711e-08 4.02113e-14)
(-4.33961e-14 -3.43844e-14 1.26082e-07 -5.54521e-16 -3.05104e-08 4.39507e-14)
(-2.80472e-14 -1.66628e-14 1.42777e-07 -1.5463e-14 -1.13375e-08 4.35101e-14)
(-2.19432e-14 1.46918e-15 1.42778e-07 -1.61849e-14 1.13374e-08 3.81281e-14)
(-2.81459e-14 2.40691e-14 1.26085e-07 -1.34661e-15 3.05112e-08 2.94925e-14)
(-3.92367e-14 2.95062e-14 9.86316e-08 1.80662e-14 4.10731e-08 2.11705e-14)
(-6.17516e-14 2.99583e-14 6.93377e-08 4.93222e-14 4.24578e-08 1.24295e-14)
(-5.37937e-14 8.79464e-15 4.63693e-08 4.68272e-14 3.88924e-08 6.96648e-15)
(-7.53044e-14 -9.76307e-15 4.63639e-08 5.6118e-14 -3.88879e-08 1.91864e-14)
(-8.23378e-14 -3.43265e-14 6.93312e-08 5.56486e-14 -4.2454e-08 2.66891e-14)
(-6.04144e-14 -4.01396e-14 9.8625e-08 2.5151e-14 -4.10704e-08 3.52634e-14)
(-4.43831e-14 -4.1804e-14 1.2608e-07 4.64144e-15 -3.051e-08 3.97416e-14)
(-2.69449e-14 -2.31845e-14 1.42775e-07 -1.40277e-14 -1.13373e-08 4.09727e-14)
(-2.0663e-14 5.30139e-16 1.42777e-07 -1.70771e-14 1.13373e-08 3.77401e-14)
(-3.10249e-14 2.99566e-14 1.26084e-07 7.56023e-17 3.05109e-08 3.09492e-14)
(-4.85384e-14 3.82439e-14 9.86307e-08 2.47904e-14 4.10727e-08 2.3748e-14)
(-7.70586e-14 3.7408e-14 6.93371e-08 6.19434e-14 4.24575e-08 1.51152e-14)
(-7.05132e-14 1.16444e-14 4.63689e-08 6.1209e-14 3.88921e-08 9.30418e-15)
(-2.66895e-14 -1.78548e-15 4.63631e-08 1.20816e-14 -3.88873e-08 1.46079e-14)
(-2.85935e-14 -8.02636e-15 6.93301e-08 7.66923e-15 -4.24533e-08 2.09243e-14)
(-1.52461e-14 2.00947e-15 9.86235e-08 -1.33679e-14 -4.10698e-08 2.8614e-14)
(-1.28903e-14 1.39935e-14 1.26078e-07 -2.06725e-14 -3.05096e-08 3.35628e-14)
(-1.50368e-14 3.57328e-14 1.42773e-07 -2.0847e-14 -1.13372e-08 3.58838e-14)
(-2.73963e-14 5.41249e-14 1.42775e-07 -6.89506e-15 1.13372e-08 3.42913e-14)
(-5.0626e-14 7.01826e-14 1.26083e-07 2.18065e-14 3.05105e-08 2.88195e-14)
(-7.19169e-14 6.17845e-14 9.86297e-08 4.93964e-14 4.10723e-08 2.25205e-14)
(-9.67677e-14 4.7216e-14 6.93364e-08 8.25586e-14 4.24571e-08 1.42091e-14)
(-8.17506e-14 1.30638e-14 4.63685e-08 7.30433e-14 3.88917e-08 8.70725e-15)
(6.34869e-14 1.34966e-14 4.63626e-08 -7.11914e-14 -3.88868e-08 7.7045e-15)
(7.31416e-14 4.31899e-14 6.93293e-08 -8.50123e-14 -4.24528e-08 1.18706e-14)
(6.76815e-14 8.17967e-14 9.86224e-08 -8.47414e-14 -4.10694e-08 1.70599e-14)
(4.17309e-14 1.14068e-13 1.26077e-07 -6.32472e-14 -3.05093e-08 2.15163e-14)
(3.37275e-15 1.29528e-13 1.42772e-07 -2.72729e-14 -1.13371e-08 2.39002e-14)
(-3.57212e-14 1.25328e-13 1.42774e-07 1.2183e-14 1.13371e-08 2.35382e-14)
(-6.83365e-14 1.09011e-13 1.26082e-07 4.87727e-14 3.05103e-08 1.95638e-14)
(-8.34878e-14 7.43957e-14 9.86289e-08 6.86898e-14 4.10719e-08 1.4798e-14)
(-9.28306e-14 4.49281e-14 6.93358e-08 8.46688e-14 4.24567e-08 8.16174e-15)
(-6.63479e-14 9.52243e-15 4.63682e-08 6.21e-14 3.88915e-08 4.24783e-15)
(1.71158e-13 3.18159e-14 4.63623e-08 -1.67872e-13 -3.88866e-08 -3.2863e-15)
(1.8948e-13 1.01297e-13 6.9329e-08 -1.86633e-13 -4.24526e-08 -2.84705e-15)
(1.52791e-13 1.61107e-13 9.86219e-08 -1.50469e-13 -4.10692e-08 -2.32158e-15)
(9.22727e-14 1.99238e-13 1.26076e-07 -9.26166e-14 -3.05091e-08 3.43972e-16)
(1.99247e-14 1.86209e-13 1.42771e-07 -2.18516e-14 -1.1337e-08 1.92691e-15)
(-3.15354e-14 1.42802e-13 1.42773e-07 2.85452e-14 1.1337e-08 2.99022e-15)
(-5.23967e-14 8.86816e-14 1.26081e-07 5.05829e-14 3.05101e-08 1.81384e-15)
(-4.56652e-14 4.0389e-14 9.86285e-08 4.54548e-14 4.10718e-08 2.1036e-16)
(-3.11421e-14 1.4015e-14 6.93356e-08 3.35624e-14 4.24566e-08 -2.42029e-15)
(-2.96636e-15 -1.73751e-15 4.63681e-08 6.16334e-15 3.88914e-08 -3.19698e-15)
(2.57249e-13 4.68752e-14 4.63627e-08 -2.37249e-13 -3.88869e-08 -2.00001e-14)
(2.6574e-13 1.38122e-13 6.93294e-08 -2.4066e-13 -4.24529e-08 -2.50801e-14)
(1.85174e-13 1.84396e-13 9.86223e-08 -1.54214e-13 -4.10693e-08 -3.09598e-14)
(9.69508e-14 1.8634e-13 1.26077e-07 -6.59546e-14 -3.05092e-08 -3.09962e-14)
(1.96854e-14 1.10017e-13 1.42771e-07 1.03885e-14 -1.13371e-08 -3.00739e-14)
(-8.23515e-16 1.66327e-14 1.42773e-07 2.72053e-14 1.1337e-08 -2.63818e-14)
(3.12798e-14 -5.90183e-14 1.26081e-07 -8.90945e-15 3.05102e-08 -2.23703e-14)
(8.03211e-14 -7.98469e-14 9.86288e-08 -6.16789e-14 4.10719e-08 -1.86422e-14)
(1.20612e-13 -6.23669e-14 6.9336e-08 -1.05976e-13 4.24568e-08 -1.46356e-14)
(1.25718e-13 -2.32152e-14 4.63684e-08 -1.14617e-13 3.88916e-08 -1.11009e-14)
(2.90528e-13 5.31348e-14 4.63639e-08 -2.4751e-13 -3.88879e-08 -4.30185e-14)
(2.61088e-13 1.31796e-13 6.93309e-08 -2.05681e-13 -4.24538e-08 -5.54072e-14)
(1.27757e-13 1.12888e-13 9.86241e-08 -5.89626e-14 -4.10701e-08 -6.87944e-14)
(2.9756e-14 2.13845e-14 1.26078e-07 4.21555e-14 -3.05096e-08 -7.19115e-14)
(-5.23724e-15 -1.55498e-13 1.42773e-07 7.57054e-14 -1.13372e-08 -7.04682e-14)
(6.45259e-14 -3.01073e-13 1.42775e-07 -2.45803e-15 1.13372e-08 -6.20679e-14)
(1.9894e-13 -3.65848e-13 1.26083e-07 -1.49204e-13 3.05105e-08 -4.9736e-14)
(3.09568e-13 -3.01537e-13 9.86299e-08 -2.71276e-13 4.10724e-08 -3.82921e-14)
(3.71046e-13 -1.88567e-13 6.93368e-08 -3.45901e-13 4.24573e-08 -2.51452e-14)
(3.19552e-13 -5.43683e-14 4.6369e-08 -3.02885e-13 3.88921e-08 -1.6667e-14)
(2.60178e-13 4.84566e-14 4.63662e-08 -1.90148e-13 -3.88898e-08 -7.00297e-14)
(1.6782e-13 7.83843e-14 6.9334e-08 -7.69903e-14 -4.24556e-08 -9.083e-14)
(-1.80127e-14 -5.09435e-14 9.86277e-08 1.29805e-13 -4.10715e-08 -1.11792e-13)
(-1.04052e-13 -2.82222e-13 1.26082e-07 2.21906e-13 -3.05105e-08 -1.17855e-13)
(-5.23591e-14 -5.8198e-13 1.42777e-07 1.66577e-13 -1.13374e-08 -1.14218e-13)
(1.56222e-13 -7.71996e-13 1.42778e-07 -5.72566e-14 1.13374e-08 -9.89654e-14)
(4.28001e-13 -7.91868e-13 1.26085e-07 -3.52422e-13 3.05112e-08 -7.55787e-14)
(6.09329e-13 -5.93988e-13 9.86318e-08 -5.54603e-13 4.10731e-08 -5.47255e-14)
(6.83377e-13 -3.46688e-13 6.93381e-08 -6.52392e-13 4.24581e-08 -3.0985e-14)
(5.47036e-13 -9.02254e-14 4.63698e-08 -5.29212e-13 3.88928e-08 -1.78234e-14)
(1.81292e-13 3.44092e-14 4.63698e-08 -8.6315e-14 -3.88928e-08 -9.49773e-14)
(2.30806e-14 -3.09158e-15 6.93386e-08 1.00765e-13 -4.24584e-08 -1.23846e-13)
(-1.98356e-13 -2.51631e-13 9.86333e-08 3.4984e-13 -4.10738e-08 -1.51485e-13)
(-2.55078e-13 -6.23199e-13 1.26088e-07 4.15401e-13 -3.05119e-08 -1.60323e-13)
(-1.01687e-13 -1.02946e-12 1.42782e-07 2.55287e-13 -1.13378e-08 -1.536e-13)
(2.48316e-13 -1.24348e-12 1.42783e-07 -1.17617e-13 1.13379e-08 -1.30699e-13)
(6.4824e-13 -1.20154e-12 1.26089e-07 -5.52734e-13 3.05121e-08 -9.55052e-14)
(8.86708e-13 -8.65e-13 9.86342e-08 -8.216e-13 4.10742e-08 -6.5108e-14)
(9.62867e-13 -4.88478e-13 6.93395e-08 -9.31648e-13 4.2459e-08 -3.12196e-14)
(7.37744e-13 -1.19467e-13 4.63705e-08 -7.23295e-13 3.88934e-08 -1.44499e-14)
(8.30088e-14 1.50994e-14 4.63743e-08 2.56043e-14 -3.88966e-08 -1.08613e-13)
(-1.11309e-13 -7.96761e-14 6.93446e-08 2.54142e-13 -4.2462e-08 -1.42833e-13)
(-3.31189e-13 -4.02302e-13 9.86404e-08 5.05994e-13 -4.10767e-08 -1.74805e-13)
(-3.50675e-13 -8.48369e-13 1.26096e-07 5.36883e-13 -3.05136e-08 -1.86208e-13)
(-1.25559e-13 -1.29196e-12 1.4279e-07 3.02737e-13 -1.13384e-08 -1.77178e-13)
(3.02043e-13 -1.49495e-12 1.42789e-07 -1.53516e-13 1.13384e-08 -1.48527e-13)
(7.59039e-13 -1.40204e-12 1.26093e-07 -6.54616e-13 3.05132e-08 -1.04422e-13)
(1.01149e-12 -9.85643e-13 9.86369e-08 -9.44466e-13 4.10753e-08 -6.70221e-14)
(1.07877e-12 -5.47419e-13 6.93408e-08 -1.05243e-12 4.24598e-08 -2.63368e-14)
(7.98181e-13 -1.27395e-13 4.63709e-08 -7.90243e-13 3.88938e-08 -7.9375e-15)
(-3.55239e-15 -4.52364e-15 4.63792e-08 1.05436e-13 -3.89006e-08 -1.01884e-13)
(-1.74886e-13 -1.18467e-13 6.9351e-08 3.11022e-13 -4.24659e-08 -1.36136e-13)
(-3.40461e-13 -4.21354e-13 9.86481e-08 5.08829e-13 -4.10798e-08 -1.68368e-13)
(-3.2449e-13 -8.15745e-13 1.26104e-07 5.06245e-13 -3.05156e-08 -1.81756e-13)
(-9.93065e-14 -1.18058e-12 1.42797e-07 2.72347e-13 -1.13389e-08 -1.7304e-13)
(2.81843e-13 -1.32521e-12 1.42795e-07 -1.3819e-13 1.1339e-08 -1.43653e-13)
(6.69325e-13 -1.21811e-12 1.26098e-07 -5.71543e-13 3.05143e-08 -9.77817e-14)
(8.67126e-13 -8.39759e-13 9.86395e-08 -8.08208e-13 4.10764e-08 -5.89185e-14)
(9.1417e-13 -4.63437e-13 6.93419e-08 -8.96269e-13 4.24605e-08 -1.79018e-14)
(6.4793e-13 -1.01302e-13 4.63711e-08 -6.47338e-13 3.8894e-08 -5.91267e-16)
(-5.73663e-14 -1.99623e-14 4.63833e-08 1.27807e-13 -3.89041e-08 -7.04411e-14)
(-1.37545e-13 -1.01451e-13 6.93565e-08 2.35025e-13 -4.24693e-08 -9.74799e-14)
(-1.95501e-13 -2.72344e-13 9.8655e-08 3.19732e-13 -4.10826e-08 -1.24231e-13)
(-1.53411e-13 -4.67979e-13 1.26112e-07 2.91434e-13 -3.05174e-08 -1.38024e-13)
(-1.72243e-14 -6.2438e-13 1.42805e-07 1.50207e-13 -1.13394e-08 -1.32983e-13)
(1.72098e-13 -6.62084e-13 1.42801e-07 -6.22419e-14 1.13395e-08 -1.09857e-13)
(3.45413e-13 -5.88373e-13 1.26102e-07 -2.73011e-13 3.05153e-08 -7.24023e-14)
(4.13684e-13 -3.88316e-13 9.86415e-08 -3.73757e-13 4.10773e-08 -3.99272e-14)
(4.29185e-13 -2.15928e-13 6.93425e-08 -4.2182e-13 4.24609e-08 -7.36498e-15)
(2.64291e-13 -3.79144e-14 4.6371e-08 -2.69892e-13 3.88939e-08 5.60144e-15)
(-6.90041e-14 -2.7686e-14 4.63856e-08 8.73688e-14 -3.8906e-08 -1.83646e-14)
(-8.67493e-15 -3.16355e-14 6.93598e-08 3.98035e-14 -4.24713e-08 -3.11285e-14)
(7.33415e-14 1.67015e-14 9.86593e-08 -2.7074e-14 -4.10844e-08 -4.62675e-14)
(1.27394e-13 1.30208e-13 1.26117e-07 -6.96348e-14 -3.05185e-08 -5.77589e-14)
(1.02587e-13 2.7521e-13 1.42809e-07 -4.37033e-14 -1.13398e-08 -5.88838e-14)
(-1.004e-14 3.75772e-13 1.42805e-07 5.8608e-14 1.13398e-08 -4.8568e-14)
(-1.57733e-13 3.77411e-13 1.26104e-07 1.87414e-13 3.05159e-08 -2.96813e-14)
(-2.71076e-13 2.90671e-13 9.86427e-08 2.8262e-13 4.10779e-08 -1.1544e-14)
(-2.95793e-13 1.54306e-13 6.93427e-08 2.91947e-13 4.24611e-08 3.84544e-15)
(-2.86372e-13 5.16897e-14 4.63706e-08 2.76899e-13 3.88936e-08 9.47311e-15)
(-3.97578e-14 -2.54131e-14 4.63854e-08 -1.73976e-15 -3.89059e-08 4.14976e-14)
(1.66918e-13 6.855e-14 6.93599e-08 -2.14125e-13 -4.24713e-08 4.72074e-14)
(3.81035e-13 3.58687e-13 9.86599e-08 -4.29129e-13 -4.10847e-08 4.8094e-14)
(4.30062e-13 8.01166e-13 1.26118e-07 -4.7219e-13 -3.05188e-08 4.2128e-14)
(2.20656e-13 1.25494e-12 1.42811e-07 -2.55215e-13 -1.13399e-08 3.45587e-14)
(-2.15628e-13 1.48769e-12 1.42806e-07 1.87024e-13 1.13399e-08 2.86032e-14)
(-6.98875e-13 1.40269e-12 1.26105e-07 6.7623e-13 3.05161e-08 2.26443e-14)
(-9.93886e-13 1.00376e-12 9.86427e-08 9.72741e-13 4.10779e-08 2.1145e-14)
(-1.05841e-12 5.4357e-13 6.93423e-08 1.04443e-12 4.24609e-08 1.39716e-14)
(-8.4881e-13 1.42091e-13 4.63702e-08 8.38067e-13 3.88933e-08 1.07429e-14)
(2.25416e-14 -1.28128e-14 4.63826e-08 -1.13119e-13 -3.89036e-08 9.0577e-14)