/*--------------------------------*- C++ -*----------------------------------*\
| =========                 |                                                 |
| \\      /  F ield         | OpenFOAM: The Open Source CFD Toolbox           |
|  \\    /   O peration     | Version:  2406                                  |
|   \\  /    A nd           | Website:  www.openfoam.com                      |
|    \\/     M anipulation  |                                                 |
\*---------------------------------------------------------------------------*/
FoamFile
{
    version     2.0;
    format      ascii;
    arch        "LSB;label=32;scalar=64";
    class       volSymmTensorField;
    location    "1.8";
    object      turbulenceProperties:devReff;
}
// * * * * * * * * * * * * * * * * * * * * * * * * * * * * * * * * * * * * * //

dimensions      [0 2 -2 0 0 0 0];

internalField   nonuniform List<symmTensor> 
25000
(
(0.0299563 -0.0224532 -0.0712219 0.0299563 -0.0712219 -0.0599127)
(0.0517356 -0.0117214 -0.0452861 0.0323427 -0.0646243 -0.0840783)
(0.059272 -0.0064301 -0.0276441 0.0382213 -0.0555026 -0.0974933)
(0.0629759 -0.00293756 -0.0148553 0.0419236 -0.0491107 -0.104899)
(0.0645707 -0.00086912 -0.00466897 0.0437114 -0.0459723 -0.108282)
(0.0645707 0.00086912 0.00466897 0.0437114 -0.0459723 -0.108282)
(0.0629759 0.00293756 0.0148553 0.0419236 -0.0491107 -0.104899)
(0.059272 0.0064301 0.0276441 0.0382213 -0.0555026 -0.0974933)
(0.0517356 0.0117214 0.0452861 0.0323427 -0.0646243 -0.0840783)
(0.0299563 0.0224532 0.0712219 0.0299563 -0.0712219 -0.0599127)
(0.0323427 -0.0117214 -0.0646243 0.0517356 -0.0452861 -0.0840783)
(0.0533624 -0.00548257 -0.036388 0.0533624 -0.036388 -0.106725)
(0.0599938 -0.00298884 -0.0199665 0.0562603 -0.0302356 -0.116254)
(0.0628635 -0.00133092 -0.0100323 0.0578618 -0.0263915 -0.120725)
(0.0639856 -0.000367782 -0.00305291 0.0585799 -0.0245581 -0.122566)
(0.0639856 0.000367783 0.0030529 0.0585799 -0.0245581 -0.122566)
(0.0628635 0.00133092 0.0100323 0.0578618 -0.0263915 -0.120725)
(0.0599938 0.00298884 0.0199665 0.0562603 -0.0302356 -0.116254)
(0.0533624 0.00548257 0.036388 0.0533624 -0.036388 -0.106725)
(0.0323427 0.0117214 0.0646243 0.0517356 -0.0452861 -0.0840783)
(0.0382213 -0.0064301 -0.0555026 0.059272 -0.0276441 -0.0974933)
(0.0562603 -0.00298884 -0.0302356 0.0599938 -0.0199665 -0.116254)
(0.0618153 -0.0015802 -0.0158052 0.0618153 -0.0158052 -0.123631)
(0.0638589 -0.000657378 -0.00756055 0.0628412 -0.0135042 -0.1267)
(0.0645098 -0.000165326 -0.00223427 0.0632817 -0.0124685 -0.127792)
(0.0645098 0.000165327 0.00223426 0.0632817 -0.0124685 -0.127792)
(0.0638589 0.000657378 0.00756054 0.0628412 -0.0135042 -0.1267)
(0.0618153 0.0015802 0.0158052 0.0618153 -0.0158052 -0.123631)
(0.0562603 0.00298884 0.0302356 0.0599938 -0.0199665 -0.116254)
(0.0382213 0.0064301 0.0555026 0.059272 -0.0276441 -0.0974933)
(0.0419235 -0.00293756 -0.0491107 0.0629759 -0.0148553 -0.104899)
(0.0578618 -0.00133092 -0.0263915 0.0628635 -0.0100323 -0.120725)
(0.0628412 -0.000657378 -0.0135042 0.0638589 -0.00756054 -0.1267)
(0.0644339 -0.000235843 -0.00630023 0.0644339 -0.00630023 -0.128868)
(0.0648108 -4.81913e-05 -0.00183224 0.0646731 -0.00576759 -0.129484)
(0.0648108 4.81915e-05 0.00183224 0.0646731 -0.00576759 -0.129484)
(0.0644339 0.000235843 0.00630023 0.0644339 -0.00630023 -0.128868)
(0.0628412 0.000657378 0.0135042 0.0638589 -0.00756054 -0.1267)
(0.0578618 0.00133092 0.0263915 0.0628635 -0.0100323 -0.120725)
(0.0419236 0.00293756 0.0491107 0.0629759 -0.0148553 -0.104899)
(0.0437114 -0.00086912 -0.0459723 0.0645707 -0.00466897 -0.108282)
(0.0585799 -0.000367783 -0.0245581 0.0639856 -0.0030529 -0.122566)
(0.0632817 -0.000165327 -0.0124685 0.0645098 -0.00223426 -0.127791)
(0.0646731 -4.81914e-05 -0.00576759 0.0648108 -0.00183224 -0.129484)
(0.0649272 -6.30791e-06 -0.00166859 0.0649272 -0.00166859 -0.129854)
(0.0649272 6.30801e-06 0.00166859 0.0649272 -0.00166859 -0.129854)
(0.0646731 4.81915e-05 0.00576759 0.0648108 -0.00183224 -0.129484)
(0.0632817 0.000165327 0.0124685 0.0645098 -0.00223426 -0.127792)
(0.0585799 0.000367783 0.0245581 0.0639856 -0.0030529 -0.122566)
(0.0437114 0.00086912 0.0459723 0.0645707 -0.00466897 -0.108282)
(0.0437114 0.00086912 -0.0459723 0.0645707 0.00466897 -0.108282)
(0.0585799 0.000367783 -0.0245581 0.0639856 0.0030529 -0.122566)
(0.0632817 0.000165327 -0.0124685 0.0645098 0.00223427 -0.127791)
(0.0646731 4.81914e-05 -0.00576759 0.0648108 0.00183224 -0.129484)
(0.0649272 6.30795e-06 -0.00166859 0.0649272 0.00166859 -0.129854)
(0.0649272 -6.30793e-06 0.00166859 0.0649272 0.00166859 -0.129854)
(0.0646731 -4.81914e-05 0.00576759 0.0648108 0.00183224 -0.129484)
(0.0632817 -0.000165327 0.0124685 0.0645098 0.00223427 -0.127792)
(0.0585799 -0.000367783 0.0245581 0.0639856 0.0030529 -0.122566)
(0.0437114 -0.00086912 0.0459723 0.0645707 0.00466897 -0.108282)
(0.0419235 0.00293756 -0.0491107 0.0629759 0.0148553 -0.104899)
(0.0578618 0.00133092 -0.0263915 0.0628635 0.0100323 -0.120725)
(0.0628412 0.000657378 -0.0135042 0.0638589 0.00756055 -0.1267)
(0.0644339 0.000235843 -0.00630023 0.0644339 0.00630023 -0.128868)
(0.0648108 4.81914e-05 -0.00183224 0.0646731 0.00576759 -0.129484)
(0.0648108 -4.81914e-05 0.00183224 0.0646731 0.00576759 -0.129484)
(0.0644339 -0.000235843 0.00630023 0.0644339 0.00630023 -0.128868)
(0.0628412 -0.000657378 0.0135042 0.0638589 0.00756055 -0.1267)
(0.0578618 -0.00133092 0.0263915 0.0628635 0.0100323 -0.120725)
(0.0419236 -0.00293756 0.0491107 0.0629759 0.0148553 -0.104899)
(0.0382213 0.0064301 -0.0555026 0.059272 0.0276441 -0.0974933)
(0.0562603 0.00298884 -0.0302356 0.0599938 0.0199665 -0.116254)
(0.0618153 0.0015802 -0.0158052 0.0618153 0.0158052 -0.123631)
(0.0638589 0.000657378 -0.00756055 0.0628412 0.0135042 -0.1267)
(0.0645098 0.000165326 -0.00223427 0.0632817 0.0124685 -0.127791)
(0.0645098 -0.000165327 0.00223426 0.0632817 0.0124685 -0.127791)
(0.0638589 -0.000657378 0.00756054 0.0628412 0.0135042 -0.1267)
(0.0618153 -0.0015802 0.0158052 0.0618153 0.0158052 -0.123631)
(0.0562603 -0.00298884 0.0302356 0.0599938 0.0199665 -0.116254)
(0.0382213 -0.0064301 0.0555026 0.059272 0.0276441 -0.0974933)
(0.0323427 0.0117214 -0.0646243 0.0517356 0.0452861 -0.0840783)
(0.0533624 0.00548257 -0.036388 0.0533624 0.036388 -0.106725)
(0.0599938 0.00298884 -0.0199665 0.0562603 0.0302356 -0.116254)
(0.0628635 0.00133092 -0.0100323 0.0578618 0.0263915 -0.120725)
(0.0639856 0.000367783 -0.00305291 0.0585799 0.0245581 -0.122566)
(0.0639856 -0.000367783 0.0030529 0.0585799 0.0245581 -0.122566)
(0.0628635 -0.00133092 0.0100323 0.0578618 0.0263915 -0.120725)
(0.0599938 -0.00298884 0.0199665 0.0562603 0.0302356 -0.116254)
(0.0533624 -0.00548257 0.036388 0.0533624 0.036388 -0.106725)
(0.0323427 -0.0117214 0.0646243 0.0517356 0.0452861 -0.0840783)
(0.0299563 0.0224532 -0.0712219 0.0299563 0.0712219 -0.0599127)
(0.0517356 0.0117214 -0.0452861 0.0323427 0.0646243 -0.0840783)
(0.059272 0.0064301 -0.0276441 0.0382213 0.0555026 -0.0974933)
(0.0629759 0.00293756 -0.0148553 0.0419235 0.0491107 -0.104899)
(0.0645707 0.00086912 -0.00466897 0.0437114 0.0459723 -0.108282)
(0.0645707 -0.00086912 0.00466897 0.0437114 0.0459723 -0.108282)
(0.0629759 -0.00293756 0.0148553 0.0419235 0.0491107 -0.104899)
(0.059272 -0.0064301 0.0276441 0.0382213 0.0555026 -0.0974933)
(0.0517356 -0.0117214 0.0452861 0.0323427 0.0646243 -0.0840783)
(0.0299563 -0.0224532 0.0712219 0.0299563 0.0712219 -0.0599127)
(-0.000346204 -0.0176335 -0.109334 -0.000346199 -0.109334 0.000692403)
(0.0130362 -0.0158517 -0.0753241 0.000864821 -0.107229 -0.0139011)
(0.0225321 -0.0121473 -0.0477166 0.0029313 -0.0951952 -0.0254634)
(0.029799 -0.00758707 -0.0260272 0.00446531 -0.0852128 -0.0342643)
(0.0334956 -0.00254408 -0.0082217 0.00529111 -0.0798892 -0.0387867)
(0.0334956 0.00254409 0.00822168 0.00529111 -0.0798892 -0.0387867)
(0.029799 0.00758707 0.0260272 0.00446532 -0.0852128 -0.0342643)
(0.0225321 0.0121473 0.0477166 0.00293131 -0.0951952 -0.0254634)
(0.0130363 0.0158517 0.0753241 0.000864829 -0.107229 -0.0139011)
(-0.000346188 0.0176335 0.109334 -0.00034619 -0.109334 0.000692379)
(0.000864816 -0.0158517 -0.107229 0.0130362 -0.0753241 -0.0139011)
(0.0167974 -0.0142716 -0.0636985 0.0167974 -0.0636985 -0.0335948)
(0.0286922 -0.0106815 -0.0347538 0.0200798 -0.052638 -0.048772)
(0.0365378 -0.00647937 -0.0168852 0.0221462 -0.0444211 -0.058684)
(0.0401445 -0.00215617 -0.00499873 0.0231478 -0.0401318 -0.0632923)
(0.0401445 0.00215617 0.00499872 0.0231478 -0.0401318 -0.0632923)
(0.0365378 0.00647937 0.0168852 0.0221462 -0.0444211 -0.058684)
(0.0286923 0.0106815 0.0347537 0.0200798 -0.052638 -0.048772)
(0.0167974 0.0142716 0.0636985 0.0167974 -0.0636985 -0.0335948)
(0.000864831 0.0158517 0.107229 0.0130363 -0.0753241 -0.0139011)
(0.0029313 -0.0121473 -0.0951952 0.0225321 -0.0477166 -0.0254634)
(0.0200798 -0.0106815 -0.052638 0.0286922 -0.0347538 -0.048772)
(0.0326131 -0.00764458 -0.0257189 0.0326131 -0.0257189 -0.0652262)
(0.0398865 -0.00449384 -0.0110617 0.0346349 -0.0198743 -0.0745214)
(0.0430418 -0.00148017 -0.00300638 0.0355699 -0.0170116 -0.0786117)
(0.0430418 0.00148017 0.00300637 0.0355699 -0.0170116 -0.0786117)
(0.0398865 0.00449384 0.0110617 0.0346349 -0.0198743 -0.0745214)
(0.0326131 0.00764458 0.0257189 0.0326131 -0.0257189 -0.0652262)
(0.0200798 0.0106815 0.052638 0.0286923 -0.0347538 -0.048772)
(0.00293131 0.0121473 0.0951952 0.0225321 -0.0477166 -0.0254634)
(0.00446531 -0.00758707 -0.0852128 0.029799 -0.0260272 -0.0342643)
(0.0221462 -0.00647937 -0.0444211 0.0365378 -0.0168852 -0.058684)
(0.0346349 -0.00449384 -0.0198743 0.0398865 -0.0110617 -0.0745214)
(0.0415446 -0.00260287 -0.00758091 0.0415446 -0.0075809 -0.0830892)
(0.0445168 -0.000856458 -0.001842 0.0423564 -0.00592329 -0.0868732)
(0.0445168 0.000856459 0.00184199 0.0423564 -0.00592329 -0.0868732)
(0.0415446 0.00260287 0.0075809 0.0415446 -0.0075809 -0.0830892)
(0.0346349 0.00449384 0.0198743 0.0398865 -0.0110617 -0.0745214)
(0.0221462 0.00647937 0.0444211 0.0365378 -0.0168852 -0.058684)
(0.00446532 0.00758707 0.0852128 0.029799 -0.0260272 -0.0342643)
(0.0052911 -0.00254409 -0.0798892 0.0334956 -0.00822169 -0.0387867)
(0.0231478 -0.00215617 -0.0401318 0.0401445 -0.00499872 -0.0632923)
(0.0355699 -0.00148017 -0.0170116 0.0430418 -0.00300637 -0.0786117)
(0.0423564 -0.000856458 -0.0059233 0.0445168 -0.00184199 -0.0868732)
(0.0452763 -0.00028285 -0.00129195 0.0452763 -0.00129194 -0.0905526)
(0.0452763 0.00028285 0.00129194 0.0452763 -0.00129194 -0.0905526)
(0.0423564 0.000856459 0.00592329 0.0445168 -0.00184199 -0.0868732)
(0.0355699 0.00148017 0.0170116 0.0430418 -0.00300637 -0.0786117)
(0.0231478 0.00215617 0.0401318 0.0401445 -0.00499872 -0.0632923)
(0.00529111 0.00254409 0.0798892 0.0334956 -0.00822169 -0.0387867)
(0.0052911 0.00254409 -0.0798892 0.0334956 0.00822169 -0.0387867)
(0.0231478 0.00215617 -0.0401318 0.0401445 0.00499873 -0.0632923)
(0.0355699 0.00148017 -0.0170116 0.0430418 0.00300638 -0.0786117)
(0.0423564 0.000856458 -0.0059233 0.0445168 0.001842 -0.0868732)
(0.0452763 0.00028285 -0.00129195 0.0452763 0.00129195 -0.0905526)
(0.0452763 -0.00028285 0.00129194 0.0452763 0.00129195 -0.0905526)
(0.0423564 -0.000856458 0.00592329 0.0445168 0.001842 -0.0868732)
(0.0355699 -0.00148017 0.0170116 0.0430418 0.00300638 -0.0786117)
(0.0231478 -0.00215617 0.0401318 0.0401445 0.00499873 -0.0632923)
(0.00529111 -0.00254408 0.0798892 0.0334956 0.00822169 -0.0387867)
(0.00446531 0.00758707 -0.0852128 0.029799 0.0260272 -0.0342643)
(0.0221462 0.00647937 -0.0444211 0.0365378 0.0168852 -0.058684)
(0.0346349 0.00449384 -0.0198743 0.0398865 0.0110617 -0.0745214)
(0.0415446 0.00260287 -0.00758091 0.0415446 0.00758091 -0.0830892)
(0.0445168 0.000856458 -0.001842 0.0423564 0.00592329 -0.0868732)
(0.0445168 -0.000856459 0.00184199 0.0423564 0.00592329 -0.0868732)
(0.0415446 -0.00260287 0.0075809 0.0415446 0.00758091 -0.0830892)
(0.0346349 -0.00449384 0.0198743 0.0398865 0.0110617 -0.0745214)
(0.0221462 -0.00647937 0.0444211 0.0365378 0.0168852 -0.058684)
(0.00446532 -0.00758707 0.0852128 0.029799 0.0260272 -0.0342643)
(0.00293129 0.0121473 -0.0951952 0.0225321 0.0477166 -0.0254634)
(0.0200798 0.0106815 -0.052638 0.0286922 0.0347538 -0.048772)
(0.0326131 0.00764458 -0.0257189 0.0326131 0.0257189 -0.0652262)
(0.0398865 0.00449384 -0.0110617 0.0346349 0.0198743 -0.0745214)
(0.0430418 0.00148017 -0.00300638 0.0355699 0.0170116 -0.0786117)
(0.0430418 -0.00148017 0.00300637 0.0355699 0.0170116 -0.0786117)
(0.0398865 -0.00449384 0.0110617 0.0346349 0.0198743 -0.0745214)
(0.0326131 -0.00764458 0.0257189 0.0326131 0.0257189 -0.0652262)
(0.0200798 -0.0106815 0.052638 0.0286922 0.0347538 -0.048772)
(0.00293131 -0.0121473 0.0951952 0.0225321 0.0477166 -0.0254634)
(0.000864813 0.0158517 -0.107229 0.0130362 0.0753241 -0.0139011)
(0.0167974 0.0142716 -0.0636985 0.0167974 0.0636985 -0.0335948)
(0.0286922 0.0106815 -0.0347538 0.0200798 0.052638 -0.048772)
(0.0365378 0.00647937 -0.0168852 0.0221462 0.0444211 -0.058684)
(0.0401445 0.00215617 -0.00499873 0.0231478 0.0401318 -0.0632923)
(0.0401445 -0.00215617 0.00499872 0.0231478 0.0401318 -0.0632923)
(0.0365378 -0.00647937 0.0168852 0.0221462 0.0444211 -0.058684)
(0.0286922 -0.0106815 0.0347537 0.0200798 0.052638 -0.048772)
(0.0167974 -0.0142716 0.0636985 0.0167974 0.0636985 -0.0335948)
(0.000864827 -0.0158517 0.107229 0.0130362 0.0753241 -0.0139011)
(-0.000346208 0.0176335 -0.109334 -0.000346206 0.109334 0.000692414)
(0.0130362 0.0158517 -0.0753241 0.000864814 0.107229 -0.0139011)
(0.0225321 0.0121473 -0.0477166 0.0029313 0.0951952 -0.0254634)
(0.029799 0.00758707 -0.0260272 0.00446531 0.0852128 -0.0342643)
(0.0334956 0.00254408 -0.0082217 0.0052911 0.0798892 -0.0387867)
(0.0334956 -0.00254409 0.00822168 0.0052911 0.0798892 -0.0387867)
(0.029799 -0.00758707 0.0260272 0.00446531 0.0852128 -0.0342643)
(0.0225321 -0.0121473 0.0477166 0.0029313 0.0951952 -0.0254634)
(0.0130363 -0.0158517 0.0753241 0.000864823 0.107229 -0.0139011)
(-0.000346193 -0.0176335 0.109334 -0.000346197 0.109334 0.00069239)
(-0.00822232 -0.015605 -0.149044 -0.00822231 -0.149044 0.0164446)
(0.00155588 -0.0119025 -0.115965 -0.00932374 -0.1594 0.00776787)
(0.00737391 -0.00905233 -0.0805688 -0.00845934 -0.15371 0.00108544)
(0.012009 -0.00568153 -0.0470853 -0.00775271 -0.146888 -0.00425626)
(0.0145489 -0.00192838 -0.0154482 -0.00736474 -0.142943 -0.00718414)
(0.0145489 0.00192839 0.0154482 -0.00736473 -0.142943 -0.00718415)
(0.012009 0.00568154 0.0470853 -0.0077527 -0.146888 -0.00425628)
(0.00737392 0.00905233 0.0805688 -0.00845933 -0.153709 0.00108541)
(0.0015559 0.0119025 0.115965 -0.00932373 -0.1594 0.00776783)
(-0.00822228 0.015605 0.149044 -0.00822229 -0.149044 0.0164446)
(-0.00932375 -0.0119025 -0.1594 0.00155588 -0.115965 0.00776787)
(0.00210197 -0.00974299 -0.111467 0.00210198 -0.111467 -0.00420395)
(0.0097974 -0.00760092 -0.0712786 0.00392891 -0.103807 -0.0137263)
(0.0157401 -0.0048034 -0.0395887 0.00531028 -0.0973344 -0.0210504)
(0.0189157 -0.00163843 -0.012678 0.00606767 -0.0938081 -0.0249834)
(0.0189157 0.00163844 0.012678 0.00606767 -0.0938081 -0.0249834)
(0.0157401 0.0048034 0.0395886 0.00531029 -0.0973344 -0.0210504)
(0.00979742 0.00760092 0.0712786 0.00392892 -0.103807 -0.0137263)
(0.00210199 0.00974299 0.111467 0.00210199 -0.111467 -0.00420399)
(-0.00932372 0.0119025 0.1594 0.0015559 -0.115965 0.00776782)
(-0.00845935 -0.00905233 -0.15371 0.00737391 -0.0805688 0.00108545)
(0.0039289 -0.00760092 -0.103807 0.0097974 -0.0712786 -0.0137263)
(0.0129933 -0.0058286 -0.0642861 0.0129933 -0.0642861 -0.0259865)
(0.019844 -0.00363425 -0.0347085 0.0153284 -0.0594814 -0.0351725)
(0.0234341 -0.00123485 -0.0109292 0.0165644 -0.0569944 -0.0399985)
(0.0234341 0.00123485 0.0109292 0.0165644 -0.0569944 -0.0399985)
(0.019844 0.00363425 0.0347084 0.0153284 -0.0594814 -0.0351725)
(0.0129933 0.0058286 0.064286 0.0129933 -0.064286 -0.0259865)
(0.00392893 0.00760092 0.103807 0.00979742 -0.0712786 -0.0137263)
(-0.00845932 0.00905233 0.153709 0.00737392 -0.0805688 0.0010854)
(-0.00775272 -0.00568154 -0.146888 0.012009 -0.0470853 -0.00425624)
(0.00531027 -0.0048034 -0.0973345 0.0157401 -0.0395886 -0.0210503)
(0.0153284 -0.00363425 -0.0594815 0.019844 -0.0347084 -0.0351724)
(0.0227443 -0.0022457 -0.0316164 0.0227443 -0.0316164 -0.0454885)
(0.0265163 -0.000760714 -0.00984184 0.0241648 -0.0300466 -0.050681)
(0.0265163 0.000760717 0.00984181 0.0241648 -0.0300466 -0.050681)
(0.0227443 0.0022457 0.0316164 0.0227443 -0.0316164 -0.0454885)
(0.0153284 0.00363425 0.0594814 0.019844 -0.0347084 -0.0351725)
(0.00531029 0.0048034 0.0973344 0.0157401 -0.0395886 -0.0210504)
(-0.00775269 0.00568153 0.146888 0.012009 -0.0470853 -0.00425628)
(-0.00736476 -0.00192839 -0.142943 0.0145489 -0.0154482 -0.00718412)
(0.00606766 -0.00163844 -0.0938082 0.0189157 -0.012678 -0.0249834)
(0.0165644 -0.00123485 -0.0569944 0.0234341 -0.0109292 -0.0399985)
(0.0241648 -0.000760716 -0.0300467 0.0265163 -0.00984182 -0.050681)
(0.0279116 -0.000257712 -0.00929826 0.0279116 -0.00929823 -0.0558232)
(0.0279116 0.000257713 0.00929822 0.0279116 -0.00929823 -0.0558232)
(0.0241648 0.000760717 0.0300466 0.0265163 -0.00984182 -0.050681)
(0.0165644 0.00123485 0.0569944 0.0234341 -0.0109292 -0.0399985)
(0.00606768 0.00163844 0.0938081 0.0189157 -0.012678 -0.0249834)
(-0.00736472 0.00192839 0.142943 0.0145489 -0.0154482 -0.00718416)
(-0.00736476 0.00192839 -0.142943 0.0145489 0.0154482 -0.00718411)
(0.00606766 0.00163843 -0.0938082 0.0189157 0.012678 -0.0249834)
(0.0165644 0.00123485 -0.0569944 0.0234341 0.0109292 -0.0399985)
(0.0241648 0.000760715 -0.0300467 0.0265163 0.00984184 -0.050681)
(0.0279116 0.000257712 -0.00929826 0.0279116 0.00929825 -0.0558232)
(0.0279116 -0.000257713 0.00929822 0.0279116 0.00929825 -0.0558232)
(0.0241648 -0.000760715 0.0300466 0.0265163 0.00984184 -0.050681)
(0.0165644 -0.00123485 0.0569944 0.0234341 0.0109292 -0.0399985)
(0.00606768 -0.00163843 0.0938081 0.0189157 0.012678 -0.0249834)
(-0.00736473 -0.00192838 0.142943 0.0145489 0.0154482 -0.00718416)
(-0.00775273 0.00568153 -0.146888 0.012009 0.0470853 -0.00425623)
(0.00531027 0.0048034 -0.0973345 0.0157401 0.0395887 -0.0210503)
(0.0153284 0.00363425 -0.0594815 0.019844 0.0347085 -0.0351724)
(0.0227442 0.0022457 -0.0316164 0.0227442 0.0316164 -0.0454885)
(0.0265163 0.000760714 -0.00984184 0.0241648 0.0300467 -0.050681)
(0.0265163 -0.000760717 0.00984181 0.0241648 0.0300467 -0.050681)
(0.0227443 -0.0022457 0.0316164 0.0227443 0.0316164 -0.0454885)
(0.0153284 -0.00363425 0.0594814 0.019844 0.0347085 -0.0351725)
(0.00531029 -0.0048034 0.0973344 0.0157401 0.0395886 -0.0210504)
(-0.0077527 -0.00568153 0.146888 0.012009 0.0470853 -0.00425628)
(-0.00845936 0.00905233 -0.15371 0.0073739 0.0805688 0.00108546)
(0.0039289 0.00760092 -0.103807 0.0097974 0.0712786 -0.0137263)
(0.0129933 0.0058286 -0.0642861 0.0129933 0.0642861 -0.0259865)
(0.019844 0.00363425 -0.0347085 0.0153284 0.0594815 -0.0351724)
(0.0234341 0.00123485 -0.0109292 0.0165644 0.0569944 -0.0399985)
(0.0234341 -0.00123485 0.0109292 0.0165644 0.0569944 -0.0399985)
(0.019844 -0.00363425 0.0347084 0.0153284 0.0594815 -0.0351725)
(0.0129933 -0.0058286 0.064286 0.0129933 0.0642861 -0.0259865)
(0.00392892 -0.00760092 0.103807 0.00979741 0.0712786 -0.0137263)
(-0.00845933 -0.00905233 0.153709 0.00737391 0.0805688 0.00108542)
(-0.00932376 0.0119025 -0.1594 0.00155587 0.115965 0.00776789)
(0.00210196 0.00974299 -0.111467 0.00210197 0.111467 -0.00420393)
(0.0097974 0.00760092 -0.0712786 0.0039289 0.103807 -0.0137263)
(0.0157401 0.0048034 -0.0395887 0.00531027 0.0973344 -0.0210503)
(0.0189157 0.00163843 -0.012678 0.00606766 0.0938082 -0.0249834)
(0.0189157 -0.00163844 0.012678 0.00606766 0.0938082 -0.0249834)
(0.0157401 -0.0048034 0.0395886 0.00531028 0.0973344 -0.0210504)
(0.00979741 -0.00760092 0.0712786 0.00392891 0.103807 -0.0137263)
(0.00210199 -0.00974299 0.111467 0.00210198 0.111467 -0.00420397)
(-0.00932373 -0.0119025 0.1594 0.00155589 0.115965 0.00776784)
(-0.00822232 0.015605 -0.149044 -0.00822232 0.149044 0.0164446)
(0.00155587 0.0119025 -0.115965 -0.00932376 0.1594 0.00776789)
(0.0073739 0.00905233 -0.0805688 -0.00845936 0.15371 0.00108546)
(0.012009 0.00568153 -0.0470853 -0.00775272 0.146888 -0.00425624)
(0.0145489 0.00192838 -0.0154482 -0.00736475 0.142943 -0.00718412)
(0.0145489 -0.00192839 0.0154482 -0.00736475 0.142943 -0.00718413)
(0.012009 -0.00568154 0.0470853 -0.00775271 0.146888 -0.00425626)
(0.00737391 -0.00905233 0.0805688 -0.00845934 0.15371 0.00108543)
(0.00155589 -0.0119025 0.115965 -0.00932374 0.1594 0.00776785)
(-0.00822229 -0.015605 0.149044 -0.0082223 0.149044 0.0164446)
(-0.0022178 -0.00431691 -0.153901 -0.00221778 -0.153901 0.00443558)
(0.000158671 -0.00467656 -0.124342 -0.00299585 -0.169419 0.00283718)
(0.00278503 -0.00407469 -0.089357 -0.00344231 -0.168126 0.00065728)
(0.0050926 -0.00273897 -0.0535635 -0.00368503 -0.164347 -0.00140757)
(0.00640222 -0.000958183 -0.017817 -0.00377702 -0.161925 -0.0026252)
(0.00640223 0.000958198 0.0178169 -0.00377702 -0.161925 -0.00262521)
(0.00509262 0.00273898 0.0535634 -0.00368501 -0.164347 -0.00140761)
(0.00278507 0.00407469 0.0893569 -0.00344228 -0.168126 0.000657218)
(0.000158722 0.00467656 0.124342 -0.00299581 -0.169419 0.00283709)
(-0.00221773 0.0043169 0.153901 -0.00221774 -0.153901 0.00443547)
(-0.00299587 -0.00467657 -0.169419 0.000158683 -0.124342 0.00283719)
(0.000241736 -0.00498144 -0.125034 0.00024175 -0.125034 -0.000483486)
(0.00410332 -0.00419862 -0.0841998 0.000460154 -0.121138 -0.00456347)
(0.0073197 -0.00276007 -0.048629 0.000769757 -0.117009 -0.00808945)
(0.00909502 -0.000956864 -0.0159086 0.00100652 -0.114614 -0.0101015)
(0.00909503 0.000956877 0.0159085 0.00100653 -0.114614 -0.0101016)
(0.00731972 0.00276009 0.0486289 0.000769771 -0.117009 -0.00808949)
(0.00410335 0.00419863 0.0841997 0.000460177 -0.121138 -0.00456353)
(0.000241784 0.00498144 0.125034 0.00024178 -0.125034 -0.000483564)
(-0.00299581 0.00467656 0.169419 0.000158719 -0.124342 0.00283709)
(-0.00344234 -0.00407469 -0.168126 0.00278503 -0.089357 0.000657302)
(0.000460136 -0.00419862 -0.121138 0.00410332 -0.0841997 -0.00456346)
(0.00526171 -0.0034019 -0.0799295 0.00526172 -0.0799295 -0.0105234)
(0.00917792 -0.00216626 -0.04543 0.00629554 -0.0767936 -0.0154735)
(0.0113315 -0.000736257 -0.0147539 0.0069577 -0.0751705 -0.0182892)
(0.0113315 0.000736267 0.0147538 0.0069577 -0.0751705 -0.0182892)
(0.00917794 0.00216627 0.04543 0.00629555 -0.0767936 -0.0154735)
(0.00526175 0.00340191 0.0799294 0.00526174 -0.0799294 -0.0105235)
(0.000460184 0.00419862 0.121138 0.00410335 -0.0841997 -0.00456353)
(-0.00344228 0.00407469 0.168126 0.00278507 -0.089357 0.000657209)
(-0.00368505 -0.00273898 -0.164347 0.00509259 -0.0535634 -0.00140753)
(0.000769733 -0.00276008 -0.117009 0.00731969 -0.048629 -0.00808943)
(0.00629552 -0.00216626 -0.0767936 0.00917792 -0.04543 -0.0154734)
(0.0108025 -0.00131298 -0.0435291 0.0108025 -0.043529 -0.021605)
(0.0133738 -0.000426875 -0.0141837 0.0118607 -0.0427242 -0.0252345)
(0.0133739 0.000426881 0.0141836 0.0118607 -0.0427242 -0.0252346)
(0.0108025 0.00131299 0.043529 0.0108025 -0.043529 -0.021605)
(0.00629556 0.00216627 0.0767935 0.00917793 -0.04543 -0.0154735)
(0.000769781 0.00276008 0.117009 0.00731972 -0.048629 -0.0080895)
(-0.003685 0.00273898 0.164347 0.00509262 -0.0535634 -0.00140762)
(-0.00377706 -0.000958194 -0.161925 0.00640221 -0.017817 -0.00262515)
(0.00100649 -0.000956873 -0.114614 0.00909501 -0.0159085 -0.0101015)
(0.00695768 -0.000736263 -0.0751706 0.0113315 -0.0147538 -0.0182892)
(0.0118607 -0.000426878 -0.0427243 0.0133738 -0.0141836 -0.0252345)
(0.0148937 -0.000134029 -0.0141303 0.0148937 -0.0141302 -0.0297874)
(0.0148937 0.000134032 0.0141302 0.0148937 -0.0141302 -0.0297874)
(0.0118607 0.00042688 0.0427242 0.0133739 -0.0141836 -0.0252346)
(0.00695771 0.000736264 0.0751705 0.0113315 -0.0147538 -0.0182892)
(0.00100654 0.000956873 0.114614 0.00909503 -0.0159085 -0.0101016)
(-0.003777 0.000958193 0.161925 0.00640223 -0.017817 -0.00262523)
(-0.00377706 0.000958188 -0.161925 0.0064022 0.017817 -0.00262514)
(0.00100649 0.000956868 -0.114614 0.00909501 0.0159085 -0.0101015)
(0.00695768 0.000736259 -0.0751706 0.0113315 0.0147539 -0.0182892)
(0.0118607 0.000426875 -0.0427243 0.0133738 0.0141836 -0.0252345)
(0.0148937 0.000134028 -0.0141303 0.0148937 0.0141303 -0.0297874)
(0.0148937 -0.00013403 0.0141302 0.0148937 0.0141303 -0.0297874)
(0.0118607 -0.000426877 0.0427242 0.0133738 0.0141836 -0.0252346)
(0.00695771 -0.00073626 0.0751705 0.0113315 0.0147539 -0.0182892)
(0.00100654 -0.000956868 0.114614 0.00909503 0.0159085 -0.0101016)
(-0.003777 -0.000958187 0.161925 0.00640223 0.017817 -0.00262523)
(-0.00368506 0.00273898 -0.164347 0.00509258 0.0535635 -0.00140752)
(0.000769726 0.00276008 -0.117009 0.00731969 0.048629 -0.00808941)
(0.00629552 0.00216626 -0.0767936 0.00917791 0.04543 -0.0154734)
(0.0108025 0.00131298 -0.0435291 0.0108025 0.043529 -0.021605)
(0.0133738 0.000426874 -0.0141837 0.0118607 0.0427243 -0.0252345)
(0.0133738 -0.00042688 0.0141836 0.0118607 0.0427243 -0.0252345)
(0.0108025 -0.00131299 0.043529 0.0108025 0.043529 -0.021605)
(0.00629555 -0.00216626 0.0767935 0.00917793 0.04543 -0.0154735)
(0.000769774 -0.00276008 0.117009 0.00731971 0.048629 -0.00808948)
(-0.003685 -0.00273897 0.164347 0.00509261 0.0535635 -0.00140761)
(-0.00344235 0.00407469 -0.168126 0.00278502 0.089357 0.00065733)
(0.000460126 0.00419862 -0.121138 0.00410331 0.0841998 -0.00456343)
(0.0052617 0.0034019 -0.0799295 0.00526171 0.0799295 -0.0105234)
(0.00917791 0.00216626 -0.04543 0.00629552 0.0767936 -0.0154734)
(0.0113315 0.000736257 -0.0147539 0.00695768 0.0751706 -0.0182892)
(0.0113315 -0.000736266 0.0147538 0.00695769 0.0751706 -0.0182892)
(0.00917793 -0.00216627 0.04543 0.00629553 0.0767936 -0.0154735)
(0.00526174 -0.00340191 0.0799294 0.00526173 0.0799295 -0.0105235)
(0.000460174 -0.00419862 0.121138 0.00410333 0.0841997 -0.00456351)
(-0.00344229 -0.00407469 0.168126 0.00278505 0.089357 0.000657238)
(-0.00299588 0.00467657 -0.169419 0.000158659 0.124342 0.00283722)
(0.000241723 0.00498144 -0.125034 0.000241728 0.125034 -0.000483451)
(0.00410331 0.00419862 -0.0841998 0.000460133 0.121138 -0.00456344)
(0.00731969 0.00276007 -0.048629 0.000769735 0.117009 -0.00808942)
(0.00909501 0.000956865 -0.0159086 0.0010065 0.114614 -0.0101015)
(0.00909502 -0.000956876 0.0159085 0.0010065 0.114614 -0.0101015)
(0.00731971 -0.00276008 0.0486289 0.000769749 0.117009 -0.00808946)
(0.00410334 -0.00419862 0.0841997 0.000460155 0.121138 -0.00456349)
(0.000241771 -0.00498144 0.125034 0.000241757 0.125034 -0.000483528)
(-0.00299583 -0.00467656 0.169419 0.000158695 0.124342 0.00283713)
(-0.00221781 0.00431691 -0.153901 -0.00221781 0.153901 0.00443562)
(0.000158656 0.00467657 -0.124342 -0.00299588 0.169419 0.00283722)
(0.00278502 0.00407469 -0.089357 -0.00344234 0.168126 0.000657321)
(0.00509258 0.00273897 -0.0535635 -0.00368505 0.164347 -0.00140753)
(0.00640221 0.000958183 -0.017817 -0.00377705 0.161925 -0.00262516)
(0.00640222 -0.000958198 0.0178169 -0.00377704 0.161925 -0.00262517)
(0.0050926 -0.00273899 0.0535634 -0.00368503 0.164347 -0.00140757)
(0.00278505 -0.0040747 0.0893569 -0.00344231 0.168126 0.00065726)
(0.000158706 -0.00467657 0.124342 -0.00299584 0.169419 0.00283714)
(-0.00221775 -0.0043169 0.153901 -0.00221777 0.153901 0.00443552)
(-0.00210105 -0.00322454 -0.158946 -0.00210101 -0.158946 0.00420206)
(-0.000297018 -0.00257327 -0.13073 -0.00260556 -0.177351 0.00290258)
(0.000889831 -0.00207039 -0.0954387 -0.00269853 -0.178359 0.0018087)
(0.00194529 -0.00134773 -0.0579083 -0.00275515 -0.176216 0.000809861)
(0.00256241 -0.000466102 -0.0193926 -0.00277457 -0.174648 0.000212162)
(0.00256242 0.000466129 0.0193924 -0.00277456 -0.174648 0.000212138)
(0.00194532 0.00134775 0.0579081 -0.00275511 -0.176216 0.000809791)
(0.000889892 0.0020704 0.0954385 -0.00269848 -0.178359 0.00180859)
(-0.000296923 0.00257327 0.130729 -0.0026055 -0.177351 0.00290242)
(-0.00210093 0.00322452 0.158946 -0.00210094 -0.158946 0.00420187)
(-0.0026056 -0.00257328 -0.177351 -0.000296996 -0.130729 0.00290259)
(-0.000485705 -0.0023225 -0.134202 -0.00048568 -0.134202 0.000971385)
(0.00119851 -0.00196121 -0.0925839 -0.000328698 -0.132493 -0.000869816)
(0.00269442 -0.00128896 -0.0544881 -0.000168221 -0.129846 -0.0025262)
(0.00355173 -0.000444271 -0.0180121 -4.67874e-05 -0.128195 -0.00350494)
(0.00355174 0.000444294 0.0180119 -4.67783e-05 -0.128195 -0.00350496)
(0.00269446 0.00128898 0.0544879 -0.000168194 -0.129846 -0.00252626)
(0.00119857 0.00196122 0.0925837 -0.000328655 -0.132493 -0.000869917)
(-0.000485617 0.00232251 0.134202 -0.000485625 -0.134202 0.000971242)
(-0.00260549 0.00257327 0.177351 -0.00029693 -0.130729 0.00290242)
(-0.00269857 -0.0020704 -0.178359 0.00088983 -0.0954386 0.00180874)
(-0.00032873 -0.00196121 -0.132494 0.00119852 -0.0925838 -0.000869791)
(0.00180549 -0.00162354 -0.0900762 0.0018055 -0.0900761 -0.00361099)
(0.00367546 -0.00102429 -0.0524156 0.00234315 -0.0880413 -0.00601861)
(0.00472909 -0.000339881 -0.0172527 0.00271071 -0.0869155 -0.0074398)
(0.0047291 0.0003399 0.0172525 0.00271072 -0.0869154 -0.00743982)
(0.00367549 0.0010243 0.0524154 0.00234317 -0.0880412 -0.00601867)
(0.00180555 0.00162355 0.090076 0.00180554 -0.0900761 -0.00361109)
(-0.000328643 0.00196122 0.132493 0.00119857 -0.0925837 -0.000869926)
(-0.00269847 0.00207039 0.178359 0.000889893 -0.0954385 0.00180857)
(-0.0027552 -0.00134775 -0.176216 0.00194527 -0.0579082 0.00080993)
(-0.000168265 -0.00128897 -0.129846 0.00269442 -0.054488 -0.00252615)
(0.00234312 -0.00102429 -0.0880414 0.00367546 -0.0524155 -0.00601859)
(0.00453994 -0.000574434 -0.0511675 0.00453995 -0.0511674 -0.00907988)
(0.00583127 -0.00016363 -0.0169615 0.00514202 -0.0505591 -0.0109733)
(0.00583128 0.000163642 0.0169613 0.00514202 -0.0505591 -0.0109733)
(0.00453997 0.000574443 0.0511674 0.00453997 -0.0511674 -0.00907994)
(0.00234319 0.0010243 0.0880412 0.00367549 -0.0524155 -0.00601868)
(-0.000168177 0.00128897 0.129846 0.00269446 -0.054488 -0.00252628)