/*--------------------------------*- C++ -*----------------------------------*\
| =========                 |                                                 |
| \\      /  F ield         | OpenFOAM: The Open Source CFD Toolbox           |
|  \\    /   O peration     | Version:  2406                                  |
|   \\  /    A nd           | Website:  www.openfoam.com                      |
|    \\/     M anipulation  |                                                 |
\*---------------------------------------------------------------------------*/
FoamFile
{
    version     2.0;
    format      ascii;
    arch        "LSB;label=32;scalar=64";
    class       volVectorField;
    location    "1.8";
    object      U;
}
// * * * * * * * * * * * * * * * * * * * * * * * * * * * * * * * * * * * * * //

dimensions      [0 1 -1 0 0 0 0];

internalField   nonuniform List<vector> 
25000
(
(0.148203 0.148203 1.126)
(0.121741 0.159741 1.15799)
(0.089682 0.168689 1.17581)
(0.0549321 0.174337 1.18522)
(0.0184801 0.177166 1.18921)
(-0.0184801 0.177166 1.18921)
(-0.0549321 0.174337 1.18522)
(-0.089682 0.168689 1.17581)
(-0.121741 0.159741 1.15799)
(-0.148203 0.148203 1.126)
(0.159741 0.121741 1.15799)
(0.129921 0.129921 1.18715)
(0.0949522 0.136258 1.19911)
(0.0577448 0.140368 1.20344)
(0.0193615 0.142382 1.20465)
(-0.0193615 0.142382 1.20465)
(-0.0577448 0.140368 1.20344)
(-0.0949521 0.136258 1.19911)
(-0.129921 0.129921 1.18715)
(-0.159741 0.121741 1.15799)
(0.168689 0.089682 1.17581)
(0.136258 0.0949521 1.19911)
(0.0990579 0.0990579 1.20625)
(0.059953 0.101733 1.20696)
(0.0200493 0.10303 1.20625)
(-0.0200493 0.10303 1.20625)
(-0.059953 0.101733 1.20696)
(-0.0990579 0.0990579 1.20625)
(-0.136258 0.0949521 1.19911)
(-0.168689 0.089682 1.17581)
(0.174337 0.0549321 1.18522)
(0.140368 0.0577448 1.20344)
(0.101733 0.059953 1.20696)
(0.061392 0.061392 1.20524)
(0.0204959 0.0620861 1.20331)
(-0.0204959 0.0620861 1.20331)
(-0.061392 0.061392 1.20524)
(-0.101733 0.059953 1.20696)
(-0.140368 0.0577448 1.20344)
(-0.174337 0.0549321 1.18522)
(0.177166 0.0184801 1.18921)
(0.142382 0.0193615 1.20465)
(0.10303 0.0200493 1.20625)
(0.0620861 0.0204959 1.20331)
(0.0207106 0.0207106 1.2008)
(-0.0207106 0.0207106 1.2008)
(-0.0620861 0.0204959 1.20331)
(-0.10303 0.0200493 1.20625)
(-0.142382 0.0193615 1.20465)
(-0.177166 0.0184801 1.18921)
(0.177166 -0.0184801 1.18921)
(0.142382 -0.0193615 1.20465)
(0.10303 -0.0200493 1.20625)
(0.0620861 -0.0204959 1.20331)
(0.0207106 -0.0207106 1.2008)
(-0.0207106 -0.0207106 1.2008)
(-0.0620861 -0.0204959 1.20331)
(-0.10303 -0.0200493 1.20625)
(-0.142382 -0.0193615 1.20465)
(-0.177166 -0.0184801 1.18921)
(0.174337 -0.0549321 1.18522)
(0.140368 -0.0577448 1.20344)
(0.101733 -0.059953 1.20696)
(0.061392 -0.061392 1.20524)
(0.0204959 -0.0620861 1.20331)
(-0.0204959 -0.0620861 1.20331)
(-0.061392 -0.061392 1.20524)
(-0.101733 -0.059953 1.20696)
(-0.140368 -0.0577448 1.20344)
(-0.174337 -0.0549321 1.18522)
(0.168689 -0.089682 1.17581)
(0.136258 -0.0949522 1.19911)
(0.0990579 -0.0990579 1.20625)
(0.059953 -0.101733 1.20696)
(0.0200493 -0.10303 1.20625)
(-0.0200493 -0.10303 1.20625)
(-0.059953 -0.101733 1.20696)
(-0.0990579 -0.0990579 1.20625)
(-0.136258 -0.0949522 1.19911)
(-0.168689 -0.089682 1.17581)
(0.159741 -0.121741 1.15799)
(0.129921 -0.129921 1.18715)
(0.0949522 -0.136258 1.19911)
(0.0577448 -0.140368 1.20344)
(0.0193615 -0.142382 1.20465)
(-0.0193615 -0.142382 1.20465)
(-0.0577448 -0.140368 1.20344)
(-0.0949521 -0.136258 1.19911)
(-0.129921 -0.129921 1.18715)
(-0.159741 -0.121741 1.15799)
(0.148203 -0.148203 1.126)
(0.121741 -0.159741 1.15799)
(0.089682 -0.168689 1.17581)
(0.0549321 -0.174337 1.18522)
(0.0184801 -0.177166 1.18921)
(-0.0184801 -0.177166 1.18921)
(-0.0549321 -0.174337 1.18522)
(-0.089682 -0.168689 1.17581)
(-0.121741 -0.159741 1.15799)
(-0.148203 -0.148203 1.126)
(0.0508829 0.0508828 1.26779)
(0.0454873 0.0604814 1.35152)
(0.0364056 0.068382 1.40592)
(0.0233681 0.074205 1.43821)
(0.00804171 0.0772047 1.45313)
(-0.00804165 0.0772047 1.45313)
(-0.023368 0.074205 1.43821)
(-0.0364055 0.068382 1.40592)
(-0.0454873 0.0604815 1.35152)
(-0.0508828 0.0508828 1.26779)
(0.0604815 0.0454873 1.35152)
(0.0552605 0.0552605 1.44013)
(0.0441311 0.0630689 1.48894)
(0.0282256 0.068534 1.51468)
(0.00968397 0.0713451 1.52575)
(-0.00968391 0.0713451 1.52575)
(-0.0282256 0.068534 1.51468)
(-0.0441311 0.0630689 1.48894)
(-0.0552605 0.0552605 1.44013)
(-0.0604814 0.0454873 1.35152)
(0.068382 0.0364055 1.40592)
(0.0630689 0.0441311 1.48894)
(0.0501796 0.0501796 1.53198)
(0.0319879 0.0543477 1.553)
(0.010952 0.0564912 1.56141)
(-0.010952 0.0564912 1.56141)
(-0.0319878 0.0543477 1.553)
(-0.0501796 0.0501796 1.53198)
(-0.0630689 0.0441311 1.48894)
(-0.068382 0.0364055 1.40592)
(0.0742051 0.0233681 1.43821)
(0.0685341 0.0282256 1.51468)
(0.0543477 0.0319878 1.553)
(0.0345545 0.0345544 1.57058)
(0.0118161 0.0358749 1.57707)
(-0.011816 0.0358749 1.57707)
(-0.0345544 0.0345544 1.57058)
(-0.0543476 0.0319878 1.553)
(-0.068534 0.0282256 1.51468)
(-0.074205 0.0233681 1.43821)
(0.0772047 0.00804167 1.45313)
(0.0713452 0.00968393 1.52575)
(0.0564913 0.010952 1.56141)
(0.0358749 0.011816 1.57707)
(0.0122624 0.0122624 1.58252)
(-0.0122623 0.0122624 1.58252)
(-0.0358749 0.011816 1.57707)
(-0.0564912 0.010952 1.56141)
(-0.0713451 0.00968393 1.52575)
(-0.0772047 0.00804167 1.45313)
(0.0772047 -0.00804169 1.45313)
(0.0713452 -0.00968395 1.52575)
(0.0564913 -0.010952 1.56141)
(0.0358749 -0.0118161 1.57707)
(0.0122624 -0.0122624 1.58252)
(-0.0122623 -0.0122624 1.58252)
(-0.0358749 -0.0118161 1.57707)
(-0.0564912 -0.010952 1.56141)
(-0.0713451 -0.00968395 1.52575)
(-0.0772047 -0.0080417 1.45313)
(0.0742051 -0.0233681 1.43821)
(0.0685341 -0.0282256 1.51468)
(0.0543477 -0.0319879 1.553)
(0.0345545 -0.0345544 1.57058)
(0.0118161 -0.0358749 1.57707)
(-0.011816 -0.0358749 1.57707)
(-0.0345544 -0.0345544 1.57058)
(-0.0543476 -0.0319879 1.553)
(-0.068534 -0.0282256 1.51468)
(-0.074205 -0.0233681 1.43821)
(0.068382 -0.0364055 1.40592)
(0.0630689 -0.0441311 1.48894)
(0.0501796 -0.0501796 1.53198)
(0.0319879 -0.0543477 1.553)
(0.010952 -0.0564913 1.56141)
(-0.010952 -0.0564913 1.56141)
(-0.0319878 -0.0543477 1.553)
(-0.0501796 -0.0501796 1.53198)
(-0.0630689 -0.0441311 1.48894)
(-0.068382 -0.0364056 1.40592)
(0.0604815 -0.0454873 1.35152)
(0.0552605 -0.0552605 1.44013)
(0.0441311 -0.0630689 1.48894)
(0.0282256 -0.068534 1.51468)
(0.00968397 -0.0713452 1.52575)
(-0.00968391 -0.0713452 1.52575)
(-0.0282256 -0.0685341 1.51468)
(-0.0441311 -0.0630689 1.48894)
(-0.0552605 -0.0552605 1.44013)
(-0.0604814 -0.0454873 1.35152)
(0.0508829 -0.0508828 1.26779)
(0.0454873 -0.0604815 1.35152)
(0.0364056 -0.068382 1.40592)
(0.0233681 -0.074205 1.43821)
(0.00804171 -0.0772047 1.45313)
(-0.00804165 -0.0772047 1.45313)
(-0.023368 -0.074205 1.43821)
(-0.0364055 -0.068382 1.40592)
(-0.0454873 -0.0604815 1.35152)
(-0.0508828 -0.0508828 1.26779)
(0.0294379 0.0294378 1.13916)
(0.0273661 0.0362572 1.264)
(0.0223832 0.0419314 1.35454)
(0.014649 0.0461082 1.41276)
(0.00509664 0.0482991 1.44101)
(-0.00509649 0.0482991 1.44101)
(-0.0146489 0.0461082 1.41276)
(-0.022383 0.0419314 1.35454)
(-0.027366 0.0362572 1.264)
(-0.0294378 0.0294378 1.13916)
(0.0362573 0.027366 1.264)
(0.034266 0.0342659 1.41081)
(0.0281264 0.039945 1.50483)
(0.0183893 0.0440015 1.56049)
(0.00638397 0.0461083 1.5863)
(-0.00638384 0.0461083 1.5863)
(-0.0183891 0.0440015 1.56049)
(-0.0281262 0.039945 1.50483)
(-0.0342659 0.034266 1.41081)
(-0.0362572 0.027366 1.264)
(0.0419315 0.0223831 1.35454)
(0.039945 0.0281263 1.50483)
(0.0327474 0.0327473 1.59723)
(0.0213504 0.0359555 1.64978)
(0.00739889 0.0376029 1.67351)
(-0.00739877 0.0376029 1.67351)
(-0.0213503 0.0359555 1.64978)
(-0.0327473 0.0327473 1.59723)
(-0.0399449 0.0281263 1.50483)
(-0.0419314 0.0223831 1.35454)
(0.0461082 0.0146489 1.41276)
(0.0440015 0.0183892 1.56049)
(0.0359555 0.0213503 1.64978)
(0.0233776 0.0233775 1.69966)
(0.00809318 0.0244136 1.72196)
(-0.00809307 0.0244136 1.72196)
(-0.0233775 0.0233775 1.69966)
(-0.0359554 0.0213503 1.64978)
(-0.0440014 0.0183892 1.56049)
(-0.0461082 0.0146489 1.41276)
(0.0482991 0.00509653 1.44101)
(0.0461084 0.00638387 1.5863)
(0.037603 0.00739881 1.67351)
(0.0244136 0.0080931 1.72196)
(0.00844937 0.00844929 1.74358)
(-0.00844925 0.00844929 1.74358)
(-0.0244135 0.0080931 1.72196)
(-0.0376029 0.00739881 1.67351)
(-0.0461083 0.00638387 1.5863)
(-0.048299 0.00509653 1.44101)
(0.0482991 -0.00509659 1.44101)
(0.0461084 -0.00638393 1.5863)
(0.037603 -0.00739886 1.67351)
(0.0244136 -0.00809315 1.72196)
(0.00844937 -0.00844934 1.74358)
(-0.00844925 -0.00844934 1.74358)
(-0.0244135 -0.00809315 1.72196)
(-0.0376029 -0.00739886 1.67351)
(-0.0461083 -0.00638393 1.5863)
(-0.048299 -0.0050966 1.44101)
(0.0461082 -0.014649 1.41276)
(0.0440015 -0.0183892 1.56049)
(0.0359555 -0.0213504 1.64978)
(0.0233776 -0.0233776 1.69966)
(0.00809318 -0.0244136 1.72196)
(-0.00809307 -0.0244136 1.72196)
(-0.0233775 -0.0233776 1.69966)
(-0.0359554 -0.0213504 1.64978)
(-0.0440014 -0.0183892 1.56049)
(-0.0461082 -0.014649 1.41276)
(0.0419315 -0.0223831 1.35454)
(0.039945 -0.0281263 1.50483)
(0.0327474 -0.0327474 1.59723)
(0.0213504 -0.0359555 1.64978)
(0.00739889 -0.037603 1.67351)
(-0.00739877 -0.037603 1.67351)
(-0.0213503 -0.0359555 1.64978)
(-0.0327473 -0.0327474 1.59723)
(-0.0399449 -0.0281263 1.50483)
(-0.0419314 -0.0223831 1.35454)
(0.0362573 -0.027366 1.264)
(0.034266 -0.034266 1.41081)
(0.0281264 -0.039945 1.50483)
(0.0183892 -0.0440015 1.56049)
(0.00638397 -0.0461084 1.5863)
(-0.00638383 -0.0461084 1.5863)
(-0.0183891 -0.0440015 1.56049)
(-0.0281262 -0.039945 1.50483)
(-0.0342659 -0.034266 1.41081)
(-0.0362572 -0.027366 1.264)
(0.0294379 -0.0294379 1.13916)
(0.0273661 -0.0362573 1.264)
(0.0223832 -0.0419314 1.35454)
(0.014649 -0.0461082 1.41276)
(0.00509663 -0.0482991 1.44101)
(-0.00509649 -0.0482991 1.44101)
(-0.0146489 -0.0461082 1.41276)
(-0.022383 -0.0419314 1.35454)
(-0.0273659 -0.0362573 1.264)
(-0.0294378 -0.0294379 1.13916)
(0.00588747 0.00588727 1.1525)
(0.0066683 0.00822799 1.28429)
(0.00621098 0.0105487 1.38419)
(0.00436643 0.0124143 1.45073)
(0.00156934 0.0134343 1.48378)
(-0.00156904 0.0134343 1.48378)
(-0.00436613 0.0124143 1.45073)
(-0.00621071 0.0105488 1.38419)
(-0.00666806 0.00822805 1.28429)
(-0.00588727 0.00588735 1.1525)
(0.00822817 0.00666808 1.28429)
(0.00974599 0.0097458 1.44582)
(0.00909235 0.0125545 1.55604)
(0.00635806 0.0146734 1.62466)
(0.00227341 0.0157976 1.6575)
(-0.00227314 0.0157976 1.6575)
(-0.00635781 0.0146734 1.62466)
(-0.00909211 0.0125545 1.55604)
(-0.00974577 0.00974584 1.44582)
(-0.00822799 0.00666814 1.28429)
(0.0105489 0.00621075 1.38419)
(0.0125546 0.00909215 1.55604)
(0.01159 0.0115898 1.66971)
(0.0080296 0.013382 1.73809)
(0.00285526 0.0142909 1.77002)
(-0.00285502 0.0142909 1.77002)
(-0.00802937 0.013382 1.73809)
(-0.0115898 0.0115899 1.66971)
(-0.0125544 0.00909218 1.55604)
(-0.0105487 0.00621079 1.38419)
(0.0124144 0.0043662 1.45073)
(0.0146736 0.00635786 1.62466)
(0.0133821 0.00802942 1.73809)
(0.00917204 0.00917187 1.80489)
(0.00324043 0.00969863 1.83542)
(-0.0032402 0.00969863 1.83542)
(-0.00917182 0.00917188 1.80489)
(-0.0133819 0.00802943 1.73809)
(-0.0146734 0.00635788 1.62466)
(-0.0124143 0.00436622 1.45073)
(0.0134344 0.00156912 1.48378)
(0.0157977 0.00227321 1.6575)
(0.014291 0.00285508 1.77002)
(0.00969879 0.00324026 1.83542)
(0.00340514 0.00340498 1.86469)
(-0.00340492 0.00340498 1.86469)
(-0.00969858 0.00324026 1.83542)
(-0.0142908 0.00285509 1.77002)
(-0.0157976 0.00227321 1.6575)
(-0.0134343 0.00156913 1.48378)
(0.0134344 -0.00156926 1.48378)
(0.0157977 -0.00227333 1.6575)
(0.014291 -0.00285519 1.77002)
(0.00969879 -0.00324037 1.83542)
(0.00340514 -0.00340508 1.86469)
(-0.00340492 -0.00340508 1.86469)
(-0.00969857 -0.00324037 1.83542)
(-0.0142908 -0.0028552 1.77002)
(-0.0157975 -0.00227334 1.6575)
(-0.0134342 -0.00156926 1.48378)
(0.0124144 -0.00436633 1.45073)
(0.0146736 -0.00635798 1.62466)
(0.0133821 -0.00802953 1.73809)
(0.00917204 -0.00917198 1.80489)
(0.00324043 -0.00969873 1.83542)
(-0.0032402 -0.00969873 1.83542)
(-0.00917182 -0.00917198 1.80489)
(-0.0133819 -0.00802954 1.73809)
(-0.0146734 -0.006358 1.62466)
(-0.0124142 -0.00436635 1.45073)
(0.0105488 -0.00621087 1.38419)
(0.0125546 -0.00909226 1.55604)
(0.01159 -0.0115899 1.66971)
(0.0080296 -0.0133821 1.73809)
(0.00285526 -0.014291 1.77002)
(-0.00285502 -0.014291 1.77002)
(-0.00802936 -0.0133821 1.73809)
(-0.0115898 -0.01159 1.66971)
(-0.0125544 -0.00909229 1.55604)
(-0.0105487 -0.00621092 1.38419)
(0.00822814 -0.00666819 1.28429)
(0.00974597 -0.0097459 1.44582)
(0.00909233 -0.0125545 1.55604)
(0.00635806 -0.0146735 1.62466)
(0.0022734 -0.0157977 1.6575)
(-0.00227314 -0.0157977 1.6575)
(-0.0063578 -0.0146735 1.62466)
(-0.00909209 -0.0125546 1.55604)
(-0.00974575 -0.00974594 1.44582)
(-0.00822796 -0.00666825 1.28429)
(0.00588744 -0.00588736 1.1525)
(0.00666827 -0.00822807 1.28429)
(0.00621096 -0.0105488 1.38419)
(0.00436641 -0.0124143 1.45073)
(0.00156934 -0.0134343 1.48378)
(-0.00156904 -0.0134344 1.48378)
(-0.00436612 -0.0124144 1.45073)
(-0.00621069 -0.0105488 1.38419)
(-0.00666803 -0.00822814 1.28429)
(-0.00588724 -0.00588744 1.1525)
(0.00543463 0.00543426 1.11571)
(0.00524466 0.00684389 1.25313)
(0.00443709 0.00809959 1.35941)
(0.0029832 0.00905851 1.43137)
(0.00105229 0.00957327 1.46752)
(-0.00105173 0.00957329 1.46752)
(-0.00298266 0.00905857 1.43137)
(-0.00443659 0.00809968 1.35941)
(-0.0052442 0.00684401 1.25313)
(-0.00543426 0.0054344 1.11571)
(0.00684422 0.00524424 1.25313)
(0.00679862 0.00679826 1.42459)
(0.00584734 0.00821072 1.54502)
(0.00395375 0.00927437 1.62184)
(0.001395 0.009832 1.65919)
(-0.0013945 0.00983201 1.65919)
(-0.00395327 0.00927441 1.62184)
(-0.00584689 0.00821078 1.54502)
(-0.00679822 0.00679835 1.4246)
(-0.00684389 0.00524436 1.25313)
(0.00809987 0.00443667 1.35941)
(0.00821103 0.00584697 1.54502)
(0.00710774 0.00710741 1.67214)
(0.00479626 0.00801583 1.75082)
(0.00168612 0.0084604 1.78822)
(-0.00168567 0.0084604 1.78822)
(-0.00479582 0.00801586 1.75083)
(-0.00710733 0.00710745 1.67214)
(-0.00821067 0.00584703 1.54502)
(-0.00809958 0.00443674 1.35941)
(0.00905875 0.00298277 1.43137)
(0.00927464 0.00395337 1.62184)
(0.00801613 0.00479593 1.75082)
(0.00536208 0.00536177 1.8289)
(0.00187044 0.00557856 1.86496)
(-0.00187001 0.00557857 1.86496)
(-0.00536167 0.00536178 1.8289)
(-0.00801575 0.00479595 1.75083)
(-0.00927431 0.00395341 1.62184)
(-0.00905848 0.00298282 1.43138)
(0.00957348 0.00105187 1.46752)
(0.00983225 0.00139463 1.65919)
(0.00846067 0.00168579 1.78822)
(0.00557886 0.00187013 1.86496)
(0.00192295 0.00192265 1.89882)
(-0.00192254 0.00192265 1.89882)
(-0.00557846 0.00187013 1.86496)
(-0.0084603 0.0016858 1.78822)
(-0.00983192 0.00139464 1.65919)
(-0.00957322 0.00105188 1.46752)
(0.00957347 -0.00105212 1.46752)
(0.00983224 -0.00139486 1.65919)
(0.00846067 -0.001686 1.78822)
(0.00557886 -0.00187032 1.86496)
(0.00192295 -0.00192284 1.89882)
(-0.00192254 -0.00192284 1.89882)
(-0.00557846 -0.00187032 1.86496)
(-0.0084603 -0.001686 1.78822)
(-0.00983192 -0.00139487 1.65919)
(-0.00957321 -0.00105214 1.46752)
(0.00905873 -0.00298302 1.43137)
(0.00927463 -0.00395359 1.62183)
(0.00801612 -0.00479613 1.75082)
(0.00536207 -0.00536196 1.8289)
(0.00187043 -0.00557875 1.86496)
(-0.00187001 -0.00557875 1.86496)
(-0.00536167 -0.00536197 1.8289)
(-0.00801574 -0.00479615 1.75083)
(-0.00927429 -0.00395363 1.62184)
(-0.00905846 -0.00298307 1.43137)
(0.00809983 -0.0044369 1.35941)
(0.008211 -0.00584717 1.54502)
(0.00710772 -0.0071076 1.67214)
(0.00479625 -0.00801601 1.75082)
(0.00168612 -0.00846057 1.78822)
(-0.00168567 -0.00846057 1.78822)
(-0.00479582 -0.00801603 1.75082)
(-0.00710731 -0.00710764 1.67214)
(-0.00821064 -0.00584723 1.54502)
(-0.00809954 -0.00443698 1.35941)
(0.00684417 -0.00524445 1.25313)
(0.00679858 -0.00679844 1.42459)
(0.00584731 -0.00821089 1.54502)
(0.00395373 -0.00927452 1.62183)
(0.00139499 -0.00983215 1.65919)
(-0.0013945 -0.00983216 1.65919)
(-0.00395325 -0.00927456 1.62184)
(-0.00584686 -0.00821095 1.54502)
(-0.00679818 -0.00679853 1.4246)
(-0.00684384 -0.00524456 1.25313)
(0.00543457 -0.00543443 1.11571)
(0.0052446 -0.00684405 1.25313)
(0.00443706 -0.00809973 1.35941)
(0.00298318 -0.00905864 1.43137)
(0.00105228 -0.0095734 1.46752)
(-0.00105172 -0.00957341 1.46752)
(-0.00298264 -0.00905869 1.43137)
(-0.00443655 -0.00809981 1.35941)
(-0.00524415 -0.00684416 1.25313)
(-0.0054342 -0.00543457 1.11571)
(0.000803646 0.000802997 1.12198)
(0.00101888 0.00118901 1.25978)
(0.00102185 0.00161342 1.3671)
(0.000750056 0.00197654 1.44026)
(0.000275324 0.00218149 1.47719)
(-0.000274343 0.00218152 1.47719)
(-0.000749107 0.00197663 1.44026)
(-0.00102096 0.00161357 1.3671)
(-0.00101808 0.00118922 1.25978)
(-0.000803004 0.000803241 1.12198)
(0.00118958 0.00101815 1.25978)
(0.00159486 0.00159423 1.4327)
(0.00160331 0.00217407 1.55558)
(0.00117232 0.00264419 1.63483)
(0.000428201 0.00290286 1.67366)
(-0.000427332 0.00290288 1.67366)
(-0.00117148 0.00264426 1.63483)
(-0.00160252 0.00217418 1.55558)
(-0.00159416 0.00159439 1.4327)
(-0.00118901 0.00101835 1.25978)
(0.0016139 0.0010211 1.3671)
(0.00217462 0.00160266 1.55558)
(0.00216686 0.00216628 1.68669)
(0.001572 0.00260843 1.76898)
(0.000570937 0.0028419 1.80844)
(-0.000570149 0.00284192 1.80844)
(-0.00157124 0.00260847 1.76898)
(-0.00216615 0.00216636 1.68669)
(-0.00217399 0.00160276 1.55558)
(-0.0016134 0.00102124 1.3671)
(0.00197696 0.000749302 1.44026)
(0.00264467 0.00117166 1.63483)
(0.00260894 0.00157141 1.76898)
(0.0018729 0.00187236 1.85139)
(0.000674965 0.0020068 1.88974)
(-0.000674228 0.0020068 1.88974)
(-0.00187219 0.00187238 1.85139)
(-0.00260828 0.00157145 1.76898)
(-0.00264408 0.00117172 1.63483)
(-0.00197649 0.000749383 1.44026)
(0.00218185 0.000274589 1.47719)
(0.00290329 0.000427552 1.67366)
(0.00284238 0.000570351 1.80844)
(0.00200731 0.00067442 1.88974)
(0.000712649 0.000712125 1.92555)
(-0.000711936 0.000712127 1.92555)
(-0.00200662 0.000674426 1.88974)
(-0.00284174 0.000570362 1.80844)
(-0.00290273 0.000427569 1.67366)
(-0.0021814 0.000274613 1.47719)
(0.00218183 -0.000275038 1.47719)
(0.00290328 -0.000427952 1.67366)
(0.00284238 -0.000570715 1.80844)
(0.00200731 -0.000674762 1.88974)
(0.000712648 -0.000712457 1.92555)
(-0.000711936 -0.000712459 1.92555)
(-0.00200662 -0.00067477 1.88974)
(-0.00284174 -0.000570729 1.80844)
(-0.00290272 -0.000427974 1.67366)
(-0.00218138 -0.000275068 1.47719)
(0.00197691 -0.000749737 1.44026)
(0.00264464 -0.00117205 1.63483)
(0.00260892 -0.00157177 1.76898)
(0.00187289 -0.00187269 1.85139)
(0.000674961 -0.00200712 1.88974)
(-0.000674226 -0.00200713 1.88974)
(-0.00187218 -0.00187272 1.85139)
(-0.00260826 -0.00157181 1.76898)
(-0.00264405 -0.00117211 1.63483)
(-0.00197644 -0.000749823 1.44026)
(0.00161383 -0.00102151 1.36709)
(0.00217456 -0.00160302 1.55558)
(0.00216682 -0.00216661 1.68669)
(0.00157198 -0.00260873 1.76898)
(0.000570929 -0.0028422 1.80844)
(-0.000570144 -0.00284222 1.80844)
(-0.00157122 -0.00260878 1.76898)
(-0.00216612 -0.00216669 1.68669)
(-0.00217393 -0.00160313 1.55558)
(-0.00161333 -0.00102165 1.3671)
(0.00118949 -0.00101851 1.25977)
(0.00159478 -0.00159455 1.4327)
(0.00160326 -0.00217436 1.55558)
(0.00117229 -0.00264446 1.63483)
(0.000428189 -0.00290312 1.67366)
(-0.000427326 -0.00290315 1.67366)
(-0.00117145 -0.00264453 1.63483)
(-0.00160248 -0.00217448 1.55558)
(-0.00159408 -0.00159471 1.4327)
(-0.00118892 -0.00101872 1.25978)
(0.000803532 -0.000803293 1.12197)
(0.00101878 -0.00118928 1.25977)
(0.00102178 -0.00161366 1.36709)
(0.000750013 -0.00197676 1.44026)
(0.000275307 -0.0021817 1.47719)
(-0.000274334 -0.00218173 1.47719)
(-0.000749071 -0.00197685 1.44026)
(-0.0010209 -0.00161381 1.3671)
(-0.00101799 -0.00118949 1.25978)
(-0.000802893 -0.000803539 1.12198)
(0.00128451 0.00128344 1.11324)
(0.00121519 0.00159566 1.25238)
(0.00101334 0.00186831 1.36111)
(0.000676066 0.00207516 1.43543)
(0.000238126 0.00218625 1.47301)
(-0.000236506 0.0021863 1.47301)
(-0.000674499 0.00207532 1.43543)
(-0.00101188 0.00186856 1.36111)
(-0.00121388 0.001596 1.25239)
(-0.00128345 0.00128384 1.11324)
(0.0015966 0.00121398 1.25238)
(0.0015441 0.00154305 1.42749)
(0.00130868 0.00184317 1.55249)
(0.000879838 0.00207325 1.63344)
(0.000310287 0.002196 1.67322)
(-0.000308846 0.00219603 1.67322)
(-0.000878442 0.00207336 1.63344)
(-0.00130737 0.00184336 1.5525)
(-0.00154293 0.00154331 1.4275)
(-0.00159566 0.00121432 1.25239)
(0.00186911 0.0010121 1.36111)
(0.00184408 0.00130759 1.55249)
(0.00158027 0.00157931 1.6864)
(0.00106549 0.00178441 1.77092)
(0.000375296 0.00188954 1.8116)
(-0.000373986 0.00188956 1.8116)
(-0.00106422 0.00178448 1.77092)
(-0.00157908 0.00157943 1.6864)
(-0.00184303 0.00130776 1.5525)
(-0.00186827 0.00101233 1.36111)
(0.00207585 0.000674815 1.43543)
(0.00207405 0.00087874 1.63344)
(0.00178528 0.00106451 1.77092)
(0.00120018 0.00119928 1.85591)
(0.000420509 0.00125627 1.89561)
(-0.000419283 0.00125628 1.89561)
(-0.001199 0.00119932 1.85591)
(-0.00178417 0.00106458 1.77092)
(-0.00207308 0.000878837 1.63344)
(-0.00207507 0.000674951 1.43543)
(0.00218684 0.000236906 1.47301)
(0.00219671 0.000309207 1.67322)
(0.00189034 0.000374319 1.8116)
(0.00125712 0.000419601 1.89561)
(0.000434644 0.000433771 1.93272)
(-0.000433458 0.000433774 1.93272)
(-0.00125597 0.000419611 1.89561)
(-0.00188927 0.000374338 1.8116)
(-0.00219578 0.000309236 1.67322)
(-0.00218609 0.000236948 1.47301)
(0.00218682 -0.000237659 1.47301)
(0.0021967 -0.000309878 1.67322)
(0.00189033 -0.000374931 1.8116)
(0.00125712 -0.000420174 1.89561)
(0.000434642 -0.000434327 1.93272)
(-0.000433457 -0.000434331 1.93272)
(-0.00125597 -0.000420187 1.89561)
(-0.00188926 -0.000374955 1.8116)
(-0.00219576 -0.000309914 1.67322)
(-0.00218607 -0.000237708 1.47301)
(0.00207578 -0.000675544 1.43542)
(0.002074 -0.000879391 1.63344)
(0.00178524 -0.00106511 1.77092)
(0.00120017 -0.00119984 1.85591)
(0.000420502 -0.00125681 1.89561)
(-0.000419279 -0.00125682 1.89561)
(-0.00119898 -0.00119988 1.85591)
(-0.00178414 -0.00106517 1.77092)
(-0.00207303 -0.000879494 1.63344)
(-0.002075 -0.000675686 1.43543)
(0.001869 -0.00101278 1.3611)
(0.00184399 -0.0013082 1.55249)
(0.00158021 -0.00157986 1.6864)
(0.00106546 -0.00178493 1.77092)
(0.000375284 -0.00189004 1.8116)
(-0.000373979 -0.00189006 1.8116)
(-0.0010642 -0.001785 1.77092)
(-0.00157903 -0.00157998 1.6864)
(-0.00184295 -0.00130838 1.5525)
(-0.00186816 -0.00101302 1.36111)
(0.00159644 -0.00121459 1.25238)
(0.00154397 -0.00154359 1.42749)
(0.00130859 -0.00184366 1.55249)
(0.000879787 -0.00207371 1.63344)
(0.000310268 -0.00219644 1.67322)
(-0.000308835 -0.00219647 1.67322)
(-0.000878399 -0.00207382 1.63344)
(-0.0013073 -0.00184385 1.55249)
(-0.00154281 -0.00154385 1.4275)
(-0.0015955 -0.00121493 1.25238)
(0.00128432 -0.00128394 1.11323)
(0.00121503 -0.0015961 1.25238)
(0.00101323 -0.00186871 1.3611)
(0.000675994 -0.00207553 1.43543)
(0.000238097 -0.00218661 1.47301)
(-0.000236492 -0.00218666 1.47301)
(-0.00067444 -0.00207568 1.43543)
(-0.00101178 -0.00186895 1.36111)
(-0.00121373 -0.00159644 1.25238)
(-0.00128327 -0.00128434 1.11324)
(0.000169415 0.000167749 1.11514)
(0.000219146 0.000253608 1.25437)
(0.000221454 0.000348909 1.36331)
(0.000163037 0.000430965 1.43786)
(6.06009e-05 0.000477558 1.4756)
(-5.80828e-05 0.000477637 1.4756)
(-0.000160601 0.0004312 1.43786)
(-0.000219187 0.000349287 1.36331)
(-0.000217119 0.00025413 1.25437)
(-0.000167778 0.000168358 1.11514)
(0.000255093 0.000217264 1.25437)
(0.000347433 0.000345783 1.42979)
(0.000350061 0.000474807 1.55528)
(0.000256207 0.000580208 1.63671)
(9.42795e-05 0.000639038 1.67678)
(-9.20214e-05 0.000639096 1.67678)
(-0.000254021 0.000580383 1.63671)
(-0.000348021 0.000475097 1.55528)
(-0.000345611 0.000346188 1.42979)
(-0.000253613 0.000217776 1.25437)
(0.000350169 0.000219508 1.3633)
(0.000476242 0.00034835 1.55528)
(0.00047504 0.000473524 1.68998)
(0.000345665 0.000573999 1.77522)
(0.000126469 0.000629146 1.81632)
(-0.000124408 0.000629182 1.81632)
(-0.000343669 0.000574109 1.77522)
(-0.000473181 0.000473712 1.68998)
(-0.000474595 0.00034862 1.55528)
(-0.000348848 0.000219866 1.36331)
(0.000432048 0.000161075 1.43786)
(0.000581472 0.000254475 1.6367)
(0.000575371 0.000344111 1.77522)
(0.000416331 0.000414901 1.86112)
(0.000151488 0.000449846 1.90133)
(-0.000149555 0.000449864 1.90133)
(-0.000414458 0.000414959 1.86112)
(-0.000573629 0.000344213 1.77522)
(-0.00057994 0.000254627 1.63671)
(-0.000430823 0.000161287 1.43787)
(0.000478488 5.86877e-05 1.47559)
(0.000640174 9.25743e-05 1.67677)
(0.00063042 0.000124922 1.81632)
(0.000451202 0.000150046 1.90133)
(0.000161879 0.000160491 1.93895)
(-0.000160008 0.000160496 1.93895)
(-0.000449388 0.000150062 1.90133)
(-0.000628736 0.000124951 1.81633)
(-0.000638699 9.26197e-05 1.67678)
(-0.000477313 5.8753e-05 1.4756)
(0.00047845 -5.98895e-05 1.47559)
(0.000640145 -9.36501e-05 1.67677)
(0.000630402 -0.000125904 1.81632)
(0.000451192 -0.000150969 1.90133)
(0.000161875 -0.000161386 1.93895)
(-0.000160007 -0.000161393 1.93895)
(-0.00044938 -0.000150991 1.90133)
(-0.000628719 -0.000125942 1.81632)
(-0.000638671 -9.37068e-05 1.67678)
(-0.000477275 -5.99668e-05 1.4756)
(0.000431934 -0.000162238 1.43786)
(0.000581386 -0.000255517 1.6367)
(0.000575314 -0.000345063 1.77522)
(0.000416299 -0.000415796 1.86112)
(0.000151476 -0.000450714 1.90133)
(-0.00014955 -0.000450734 1.90133)
(-0.000414432 -0.000415858 1.86112)
(-0.000573578 -0.000345173 1.77522)
(-0.000579858 -0.00025568 1.63671)
(-0.000430711 -0.000162461 1.43786)
(0.000349984 -0.000220592 1.3633)
(0.000476098 -0.000349323 1.55528)
(0.000474944 -0.000474411 1.68998)
(0.000345608 -0.000574831 1.77522)
(0.000126446 -0.000629952 1.81632)
(-0.000124398 -0.00062999 1.81632)
(-0.000343624 -0.000574945 1.77522)
(-0.000473095 -0.000474605 1.68998)
(-0.00047446 -0.000349601 1.55528)
(-0.000348668 -0.000220958 1.36331)
(0.000254836 -0.000218235 1.25437)
(0.00034723 -0.000346654 1.42979)
(0.000349921 -0.000475594 1.55528)
(0.000256122 -0.00058094 1.6367)
(9.42445e-05 -0.000639744 1.67677)
(-9.20075e-05 -0.000639803 1.67677)
(-0.000253955 -0.000581117 1.63671)
(-0.000347899 -0.000475887 1.55528)
(-0.000345423 -0.000347063 1.42979)
(-0.000253366 -0.000218751 1.25437)
(0.000169112 -0.000168537 1.11513)
(0.000218886 -0.000254319 1.25437)
(0.000221266 -0.000349542 1.3633)
(0.000162917 -0.000431552 1.43786)
(6.05507e-05 -0.000478121 1.47559)
(-5.80645e-05 -0.0004782 1.47559)
(-0.000160511 -0.000431788 1.43786)
(-0.000219026 -0.000349921 1.36331)
(-0.000216883 -0.000254841 1.25437)
(-0.000167491 -0.000169145 1.11514)
(0.000325825 0.00032337 1.11291)
(0.000306544 0.000401518 1.25249)
(0.000254272 0.000469118 1.36179)
(0.000169359 0.000520021 1.43663)
(6.05772e-05 0.000547325 1.47452)
(-5.68727e-05 0.000547439 1.47453)
(-0.000165777 0.000520364 1.43663)
(-0.000250943 0.000469668 1.36179)
(-0.000303573 0.000402273 1.2525)
(-0.000323428 0.000324243 1.11292)
(0.000403724 0.000303761 1.25249)
(0.000386978 0.000384516 1.42848)
(0.000325299 0.000457146 1.55449)
(0.000217792 0.000512327 1.63633)
(7.75446e-05 0.000541754 1.67662)
(-7.41901e-05 0.00054184 1.67663)
(-0.000214545 0.000512585 1.63633)
(-0.000322274 0.000457571 1.5545)
(-0.00038428 0.000385107 1.42848)
(-0.000401535 0.0003045 1.2525)
(0.000471002 0.000251387 1.36178)
(0.000459299 0.00032274 1.55449)
(0.000389636 0.000387354 1.68987)
(0.000261359 0.000435838 1.77563)
(9.26835e-05 0.000460903 1.81702)
(-8.96019e-05 0.000460957 1.81702)
(-0.000258376 0.000436002 1.77563)
(-0.000386859 0.000387632 1.68987)
(-0.000456844 0.000323136 1.5545)
(-0.000469034 0.000251907 1.36179)
(0.000521648 0.000166445 1.43663)
(0.000514233 0.000215197 1.63633)
(0.00043791 0.000259018 1.77563)
(0.000293077 0.000290917 1.86213)
(0.00010332 0.00030494 1.90266)
(-0.00010042 0.000304966 1.90266)
(-0.000290268 0.000291003 1.86213)
(-0.000435299 0.00025917 1.77563)
(-0.000511939 0.000215421 1.63633)
(-0.000519814 0.000166753 1.43664)
(0.000548727 5.77346e-05 1.47452)
(0.00054347 7.49891e-05 1.67662)
(0.000462831 9.03518e-05 1.81702)
(0.000306992 0.000101139 1.90266)
(0.00010682 0.000104719 1.9406)
(-0.00010401 0.000104727 1.9406)
(-0.000304268 0.000101163 1.90266)
(-0.000460302 9.0394e-05 1.81702)
(-0.000541258 7.50543e-05 1.67663)
(-0.000546965 5.78276e-05 1.47453)
(0.000548668 -5.95571e-05 1.47452)
(0.000543426 -7.6631e-05 1.67662)
(0.000462801 -9.18569e-05 1.81702)
(0.000306976 -0.000102557 1.90266)
(0.000106813 -0.000106096 1.9406)
(-0.000104009 -0.000106107 1.9406)
(-0.000304257 -0.00010259 1.90266)
(-0.000460277 -9.19162e-05 1.81702)
(-0.000541217 -7.67177e-05 1.67663)
(-0.00054691 -5.96733e-05 1.47453)
(0.000521472 -0.00016821 1.43663)
(0.000514098 -0.000216787 1.63633)
(0.00043782 -0.000260476 1.77563)
(0.000293024 -0.00029229 1.86213)
(0.000103297 -0.000306276 1.90266)
(-0.000100415 -0.000306305 1.90266)
(-0.000290232 -0.000292386 1.86213)
(-0.000435225 -0.000260643 1.77563)
(-0.000511817 -0.000217031 1.63633)
(-0.000519648 -0.000168537 1.43663)
(0.000470718 -0.000253031 1.36178)
(0.000459074 -0.000324225 1.55449)
(0.000389482 -0.000388713 1.68987)
(0.000261265 -0.000437116 1.77563)
(9.2642e-05 -0.000462144 1.81702)
(-8.95938e-05 -0.0004622 1.81702)
(-0.000258314 -0.000437288 1.77563)
(-0.000386734 -0.000389003 1.68987)
(-0.000456644 -0.000324635 1.5545)
(-0.000468769 -0.000253565 1.36179)
(0.00040333 -0.000305235 1.25249)
(0.000386661 -0.000385846 1.42847)
(0.000325075 -0.000458351 1.55449)
(0.00021765 -0.000513451 1.63633)
(7.748e-05 -0.00054284 1.67662)
(-7.41799e-05 -0.000542927 1.67662)
(-0.000214456 -0.000513713 1.63633)
(-0.000322098 -0.000458782 1.5545)
(-0.000384005 -0.000386442 1.42848)
(-0.000401172 -0.000305978 1.2525)
(0.00032536 -0.000324568 1.1129)
(0.000306139 -0.000402605 1.25249)
(0.000253972 -0.00047009 1.36178)
(0.00016916 -0.000520924 1.43663)
(6.0484e-05 -0.000548192 1.47452)
(-5.68614e-05 -0.000548306 1.47452)
(-0.000165657 -0.000521265 1.43663)
(-0.000250714 -0.000470637 1.36179)
(-0.000303231 -0.000403354 1.2525)