/*--------------------------------*- C++ -*----------------------------------*\
| =========                 |                                                 |
| \\      /  F ield         | OpenFOAM: The Open Source CFD Toolbox           |
|  \\    /   O peration     | Version:  2406                                  |
|   \\  /    A nd           | Website:  www.openfoam.com                      |
|    \\/     M anipulation  |                                                 |
\*---------------------------------------------------------------------------*/
FoamFile
{
    version     2.0;
    format      ascii;
    arch        "LSB;label=32;scalar=64";
    class       volScalarField;
    location    "0.2";
    object      nu;
}
// * * * * * * * * * * * * * * * * * * * * * * * * * * * * * * * * * * * * * //

dimensions      [0 2 -1 0 0 0 0];

internalField   nonuniform List<scalar> 
16000
(
0.00651039
0.0066285
0.00671495
0.00676764
0.00676151
0.00670025
0.0066127
0.00650133
0.00662809
0.00675949
0.00693448
0.00707004
0.00705543
0.00690323
0.00673018
0.00660913
0.0067143
0.0069345
0.00730515
0.00764244
0.00760242
0.00723857
0.00688468
0.00668453
0.00676687
0.0070707
0.00764526
0.00834554
0.00823804
0.00753308
0.00700291
0.00672963
0.00676037
0.00705593
0.00760675
0.00824529
0.00815243
0.00750149
0.00699049
0.00672414
0.00669845
0.00690213
0.00723923
0.00753517
0.00750233
0.00718124
0.00685704
0.00667121
0.00661034
0.0067276
0.00688238
0.0070013
0.00698943
0.00685649
0.00670306
0.00659432
0.00649876
0.00660597
0.00668139
0.00672701
0.00672236
0.00667029
0.00659411
0.00649206
0.00687436
0.00770528
0.00733722
0.00710119
0.00709492
0.00730696
0.00756039
0.00680518
0.00771094
0.00686789
0.00656738
0.00653041
0.00652575
0.00656421
0.00686771
0.00754339
0.00734291
0.00656638
0.0064819
0.00660257
0.00658442
0.00646352
0.00656662
0.00729696
0.00710554
0.00652724
0.00659894
0.00697189
0.00691512
0.00655472
0.00651735
0.00708571
0.00710166
0.00652076
0.00657601
0.00690689
0.00685857
0.00653637
0.00651264
0.00708178
0.00732382
0.00656029
0.00645471
0.00654526
0.00653202
0.00644228
0.00656353
0.00727806
0.00759363
0.00687159
0.0065623
0.00651162
0.00650977
0.00656373
0.0068735
0.00745076
0.00680993
0.00757172
0.0073116
0.0070915
0.00708806
0.00728676
0.00745447
0.00674908
0.00667236
0.00860171
0.00769197
0.00721716
0.00719651
0.00761581
0.00819927
0.006628
0.00852706
0.00679913
0.00638222
0.00634391
0.00633137
0.00636516
0.00680728
0.00849456
0.00762969
0.006375
0.00626414
0.00644215
0.006403
0.00622237
0.00636104
0.00772253
0.00717208
0.00633583
0.00645184
0.00724996
0.00704063
0.00635688
0.00629879
0.00719082
0.00714167
0.00631843
0.00642076
0.00712636
0.00695604
0.00633369
0.00628494
0.0071638
0.00752248
0.00633715
0.00621565
0.00636759
0.00633655
0.00618252
0.00632955
0.00761554
0.0083475
0.00675253
0.00633201
0.00628199
0.00627371
0.00632256
0.00676604
0.00833309
0.00665943
0.00879218
0.00761942
0.0071332
0.00712139
0.00756971
0.00829165
0.00661597
0.00641545
0.00731925
0.0084302
0.00822387
0.00799964
0.0079591
0.00722569
0.00637444
0.00733465
0.00743783
0.0067558
0.00665772
0.00662144
0.00668622
0.00737554
0.00731164
0.00843919
0.00674369
0.00648402
0.00658364
0.00652122
0.00639314
0.00667316
0.00862791
0.008196
0.00665092
0.00660457
0.00702206
0.00684891
0.00644302
0.00653766
0.00804637
0.00797884
0.0066108
0.0065594
0.00693183
0.00677885
0.00640875
0.00650601
0.00789725
0.00804594
0.00664312
0.00639334
0.00646771
0.00641659
0.00631693
0.00658928
0.00825264
0.00736709
0.0072671
0.00662605
0.00651616
0.00648967
0.00657577
0.00724083
0.00737317
0.00642735
0.00748557
0.00890714
0.00794096
0.00781201
0.00820021
0.00738247
0.00638948
0.00625433
0.00681709
0.00748063
0.00798997
0.0078018
0.00731741
0.00674749
0.00619637
0.00683286
0.00907259
0.00767394
0.00739615
0.00725281
0.00736441
0.00842514
0.00676813
0.00754297
0.00765873
0.00705254
0.00710244
0.00693262
0.00680825
0.0073839
0.007508
0.00815855
0.00738504
0.00711577
0.00749546
0.00712269
0.00674298
0.00705529
0.00805907
0.00795081
0.00724045
0.00695637
0.00716441
0.0069199
0.00665996
0.00698153
0.00794588
0.00741954
0.0073178
0.00679917
0.0067483
0.00665766
0.00664453
0.00719607
0.00746527
0.00681651
0.00847715
0.00731582
0.00701692
0.00695218
0.00717443
0.008608
0.0067815
0.00623292
0.00684251
0.00765884
0.00822016
0.00802632
0.00750837
0.00679278
0.00618217
0.00624703
0.00672611
0.00722466
0.00753061
0.00741122
0.00706713
0.00662077
0.00615496
0.00673323
0.0083328
0.00855611
0.00813327
0.0076807
0.00768056
0.00792708
0.00660989
0.0072539
0.00866365
0.00771598
0.00794861
0.00734159
0.00711862
0.00791331
0.00713295
0.00755938
0.00810393
0.0078411
0.00966994
0.00747265
0.00697434
0.00746468
0.00747062
0.0074168
0.00766866
0.00727606
0.00739698
0.00702394
0.00684467
0.00738064
0.00740837
0.00706386
0.00770489
0.00710282
0.00694554
0.00683444
0.00692638
0.0078317
0.00705196
0.00661605
0.00793253
0.00789818
0.0074391
0.00736903
0.00784189
0.00828233
0.00655014
0.00615075
0.00660563
0.00712551
0.00746432
0.0074217
0.00706711
0.00655368
0.00607612
0.00633801
0.00685195
0.00735918
0.0076079
0.00741051
0.00708123
0.00666631
0.00619279
0.00685045
0.00839095
0.00830422
0.00806145
0.00752043
0.007431
0.00771597
0.00663393
0.00736313
0.00833123
0.00784058
0.00819726
0.00731892
0.00704048
0.00765924
0.00710853
0.00754945
0.00785199
0.0077392
0.00831231
0.00724807
0.00688809
0.00736517
0.00736818
0.00732911
0.00744381
0.00712303
0.00710747
0.00684342
0.00677411
0.00735584
0.00728552
0.00700009
0.00749312
0.0070224
0.00685063
0.00677416
0.00694423
0.0079564
0.00695334
0.00658435
0.00767586
0.00781521
0.00745801
0.00745851
0.00815525
0.00803812
0.00648207
0.00613416
0.00655132
0.00701424
0.00731466
0.00728689
0.00695953
0.00647914
0.00603382
0.00645309
0.00706268
0.00769234
0.00794788
0.00754241
0.00717693
0.00677225
0.00625519
0.00705331
0.00874187
0.00811213
0.00798478
0.00736236
0.00721893
0.00765419
0.00672948
0.00763988
0.00798103
0.00776971
0.00830599
0.00721472
0.00688705
0.00737626
0.00721172
0.00768764
0.00752745
0.00748521
0.00781785
0.00704017
0.00673272
0.00713496
0.00741921
0.00735269
0.00716825
0.00690188
0.00686291
0.00665641
0.00661937
0.00713745
0.00730615
0.00703477
0.00724331
0.00682705
0.00667514
0.00662073
0.00679601
0.00769863
0.00697403
0.00662429
0.00765887
0.00756722
0.00726864
0.00729884
0.0079914
0.00822917
0.00649188
0.00614659
0.00657779
0.00705709
0.00737194
0.00734197
0.00698907
0.00648459
0.00602501
0.00651688
0.00720644
0.00799329
0.00832826
0.00767728
0.00728068
0.006871
0.00630337
0.00719539
0.00870087
0.00788928
0.00785593
0.00727343
0.00711928
0.00766347
0.00682765
0.00788254
0.0077395
0.0076301
0.0084209
0.0071769
0.0068022
0.00723105
0.00735372
0.00780764
0.00734242
0.00737125
0.00786396
0.00700656
0.00664866
0.00698222
0.00752217
0.00739727
0.00700921
0.00678441
0.00678039
0.00657287
0.00650718
0.00694781
0.00737789
0.00710427
0.00708918
0.0066884
0.0065549
0.00649623
0.00663392
0.00739165
0.00705016
0.00668943
0.00772822
0.00736777
0.00707432
0.00708183
0.00761426
0.00869321
0.00654059
0.00616901
0.00663875
0.00717493
0.00753287
0.0074924
0.00708987
0.00653161
0.00603939
0.00650086
0.00720156
0.00801912
0.00845228
0.0078078
0.00739538
0.00693149
0.00632028
0.00719056
0.00855998
0.00769354
0.0076475
0.00723622
0.00712561
0.00779326
0.00688764
0.00794519
0.00760533
0.0074212
0.00807711
0.00717326
0.00679233
0.00721029
0.00749122
0.00792101
0.0072669
0.0073287
0.0083052
0.00712911
0.00665543
0.0069314
0.00766202
0.00749484
0.00696624
0.00677031
0.00684524
0.0066101
0.00647876
0.00684785
0.00748429
0.00721017
0.00704404
0.00663831
0.00652631
0.00645173
0.00653556
0.00717209
0.00716443
0.00676025
0.0078696
0.00725597
0.00695386
0.00692406
0.00730709
0.00902279
0.00661354
0.0061938
0.00671176
0.00733135
0.00774688
0.00768154
0.0072311
0.00660495
0.00607313
0.00643519
0.00710087
0.00787196
0.00837925
0.00795068
0.00750078
0.00693642
0.00630821
0.00708977
0.00861094
0.0076114
0.00749929
0.00724953
0.00722387
0.00808367
0.00689427
0.00786333
0.00757903
0.00724983
0.00765409
0.00716406
0.00683591
0.00729407
0.00758197
0.0080694
0.00727072
0.0072841
0.00899612
0.00733891
0.00673275
0.00697672
0.00784212
0.00767377
0.007017
0.00682943
0.00701722
0.0067567
0.00653761
0.00685356
0.00763252
0.00734487
0.00710242
0.0066712
0.00658956
0.00650055
0.00653057
0.00709502
0.00729275
0.00681512
0.00811451
0.0072515
0.00694025
0.00687992
0.00716902
0.00878858
0.00669207
0.00621456
0.00677184
0.00747056
0.00794927
0.00784
0.00736008
0.00668339
0.00611563
0.00635913
0.00698112
0.0077052
0.00825858
0.00805175
0.00753987
0.00689364
0.00627893
0.00697268
0.00880431
0.00762804
0.00744122
0.00730263
0.00738874
0.00855963
0.00686011
0.00772865
0.00763106
0.00715288
0.00738229
0.0071452
0.00690635
0.00745412
0.00759262
0.00820838
0.00732679
0.00722918
0.00871382
0.00753416
0.0068434
0.00709429
0.00803552
0.00790938
0.00713217
0.00692731
0.00725202
0.0069822
0.006661
0.00695289
0.00782431
0.00746748
0.00724892
0.00676442
0.00672021
0.00662536
0.00660998
0.00715511
0.00740404
0.00683835
0.00853075
0.0073482
0.00702558
0.00694761
0.00718898
0.00872302
0.00674887
0.00622619
0.00680193
0.00754184
0.00809682
0.0079517
0.00743469
0.00673919
0.00615394
0.0062925
0.00687716
0.00756224
0.0081246
0.00805191
0.00750088
0.00683174
0.00624552
0.00687351
0.00902015
0.00770478
0.00744284
0.00737605
0.00758781
0.00917654
0.00681089
0.00759139
0.00772303
0.00710904
0.00723022
0.00712504
0.00698195
0.00765231
0.00753364
0.00822811
0.00740587
0.00718716
0.00817263
0.00764552
0.00695561
0.00725217
0.00814259
0.00809573
0.00728142
0.00703355
0.00751812
0.00725653
0.0068197
0.00711955
0.00799767
0.00752433
0.0074618
0.00689179
0.00688923
0.00679973
0.00674806
0.00732554
0.00746352
0.00683135
0.00921969
0.00752207
0.00718384
0.00710086
0.00732987
0.00895072
0.00677227
0.00622958
0.00680386
0.00753411
0.00814509
0.00801091
0.00745119
0.00676326
0.00618134
0.00623931
0.00679473
0.00744496
0.00798794
0.00797119
0.00742437
0.00677149
0.0062146
0.00679551
0.00909576
0.00781398
0.00747685
0.0074555
0.00779363
0.00944621
0.00676169
0.00746451
0.00782463
0.00709666
0.00714762
0.00711126
0.00705179
0.0078475
0.00743681
0.00809484
0.00748527
0.00716202
0.00785729
0.00767025
0.00705579
0.00742062
0.00807261
0.00810737
0.00743926
0.00713114
0.00777359
0.00756025
0.00699254
0.00732731
0.00803605
0.00749844
0.0077196
0.00703353
0.00707635
0.00700411
0.0069222
0.00758144
0.00745184
0.00680387
0.00992373
0.00774869
0.00739248
0.0073165
0.00756156
0.0092493
0.00676748
0.00622632
0.00678629
0.0074692
0.00806737
0.00798507
0.0074207
0.00676201
0.00619734
0.00619756
0.00672954
0.00734583
0.00785333
0.00785506
0.00734033
0.00671831
0.00618772
0.00673311
0.00896983
0.00794746
0.00753353
0.00754102
0.00799804
0.00907828
0.00671662
0.00735032
0.00792847
0.00710726
0.00711051
0.00711214
0.00711764
0.00801464
0.00733014
0.00789517
0.00755955
0.00715504
0.00767951
0.00765971
0.00714633
0.00757942
0.0078795
0.00795744
0.00759197
0.00721707
0.00797236
0.00787948
0.00717051
0.00755893
0.00791618
0.00741462
0.00800799
0.00717955
0.00726836
0.00722813
0.0071207
0.00791523
0.00738378
0.00676297
0.00935789
0.00801292
0.00763884
0.00758567
0.00787684
0.00912483
0.00674396
0.00621661
0.00675516
0.00737434
0.0079019
0.00787373
0.00735674
0.0067434
0.00620307
0.00616395
0.00667598
0.00725816
0.00772284
0.00772926
0.00725768
0.00667058
0.0061648
0.00668068
0.00874196
0.00811507
0.00761583
0.00764376
0.00821403
0.008667
0.00667442
0.00724894
0.00805046
0.00714081
0.00710933
0.00713479
0.00718987
0.00815383
0.0072304
0.00770709
0.00764156
0.00716823
0.00758597
0.00765794
0.00723601
0.0077326
0.00768518
0.00776131
0.00774512
0.00729619
0.00809145
0.00820515
0.00735352
0.0078149
0.00773612
0.00730567
0.00833048
0.0073284
0.00745565
0.00746753
0.00734214
0.0083538
0.00729047
0.00671316
0.00872237
0.0083049
0.00792094
0.00791728
0.00830218
0.00870752
0.00670979
0.00620087
0.00671404
0.0072703
0.00771569
0.00771801
0.007274
0.00671326
0.00619996
0.00613572
0.00662912
0.00717696
0.00759656
0.00760342
0.00717769
0.00662614
0.00614542
0.00663368
0.008499
0.00833566
0.00772875
0.00777413
0.00846385
0.0083511
0.0066339
0.00715845
0.00820759
0.00719859
0.00713845
0.00718208
0.00727726
0.00827264
0.00714267
0.0075465
0.00774284
0.00720273
0.00754805
0.00768138
0.00733414
0.00788683
0.00752413
0.00758117
0.0079102
0.00737635
0.00815036
0.0085374
0.00754678
0.00810132
0.00756849
0.00719481
0.00869304
0.00748166
0.00763458
0.0077231
0.00759135
0.00896958
0.00719523
0.00665854
0.0083016
0.00858179
0.0082359
0.00833837
0.00890151
0.0083372
0.00666988
0.00618141
0.00666574
0.00716946
0.00754612
0.00756136
0.00718614
0.00667526
0.00619075
0.00611159
0.00658432
0.0070995
0.00747624
0.00748084
0.00709952
0.00658409
0.0061284
0.00658833
0.00826634
0.00863186
0.00787583
0.0079372
0.00876857
0.00810752
0.00659525
0.0070769
0.00840028
0.00728013
0.00719199
0.00725161
0.0073833
0.00837651
0.00706639
0.00741196
0.00786847
0.00725683
0.00754691
0.00772584
0.00744283
0.00804442
0.00739426
0.00742982
0.00809052
0.00746329
0.00818704
0.00887505
0.00775239
0.00841898
0.00742717
0.00709216
0.00904701
0.0076421
0.00780912
0.00800199
0.00787388
0.00990347
0.00710619
0.00660378
0.00800917
0.00876078
0.00856955
0.00890569
0.00970807
0.00804644
0.00662643
0.00616056
0.0066162
0.00707874
0.00740305
0.00742025
0.00710064
0.00663198
0.00617918
0.00609069
0.00654112
0.00702607
0.00736485
0.00736672
0.00702437
0.00654356
0.00611212
0.00654478
0.00805362
0.00905434
0.00806614
0.00814365
0.00914017
0.00790966
0.00655751
0.0070032
0.00861033
0.00738399
0.00726433
0.00733632
0.00750653
0.00845368
0.00699804
0.00729901
0.00801566
0.00732849
0.00757015
0.00777682
0.0075561
0.00819647
0.00728652
0.00730612
0.0082846
0.00756255
0.00823224
0.00918308
0.00796289
0.00873743
0.00731006
0.00700418
0.0092397
0.00781495
0.00799187
0.00831634
0.00819826
0.0103896
0.00702666
0.00655476
0.00779722
0.00878416
0.0088938
0.00979665
0.0100061
0.00782771
0.00658467
0.00614093
0.006571
0.00700143
0.00728737
0.00730254
0.00702344
0.00659034
0.0061657
0.00607213
0.00650089
0.00695802
0.00726416
0.0072631
0.00695304
0.0065034
0.00609494
0.00650492
0.00786863
0.00973315
0.00831448
0.00840581
0.00949577
0.00774197
0.00651909
0.00693721
0.00878361
0.00750957
0.0073518
0.00742991
0.00764265
0.00847729
0.00693404
0.00720364
0.00817027
0.00741613
0.00761041
0.00782046
0.00766354
0.00831754
0.00719303
0.00720547
0.00847317
0.00767985
0.00830348
0.00936914
0.00815936
0.00894755
0.00721034
0.0069317
0.00913175
0.00800868
0.00820468
0.00869281
0.00856858
0.00951099
0.00695569
0.00651372
0.00763817
0.00868011
0.00913643
0.0114344
0.00934391
0.00765837
0.00654474
0.00612457
0.00653232
0.00693736
0.00719485
0.00720682
0.00695589
0.00655112
0.00615109
0.0060558
0.00646304
0.00689534
0.00717433
0.00717025
0.00688568
0.00646295
0.00607632
0.0064685
0.00770924
0.0109686
0.00864375
0.00873637
0.00956
0.0075983
0.00647976
0.0068783
0.00882163
0.00765654
0.0074524
0.00752921
0.00778784
0.00843673
0.00687322
0.00712218
0.00830736
0.00751832
0.00766319
0.00785188
0.0077578
0.00838253
0.00710994
0.00712227
0.00861389
0.00781796
0.00840107
0.00935751
0.00831529
0.00893681
0.00712328
0.00687172
0.00886016
0.0082307
0.0084697
0.00917456
0.00895664
0.00891629
0.00689069
0.00647988
0.00751326
0.00852151
0.00918379
0.0103762
0.00882401
0.00752013
0.00650568
0.00611192
0.0064997
0.00688349
0.0071187
0.00712619
0.00689553
0.00651361
0.00613602
0.00604155
0.0064273
0.00683797
0.00709498
0.00708861
0.00682419
0.00642371
0.00605715
0.0064349
0.00757113
0.0108005
0.00910628
0.00916655
0.00930067
0.00747588
0.00644097
0.00682522
0.00870358
0.0078251
0.00756572
0.0076345
0.00794133
0.0083506
0.0068165
0.00705118
0.00839762
0.00763301
0.0077251
0.0078763
0.00784037
0.00839146
0.00703637
0.00705085
0.00866077
0.0079734
0.00850738
0.00921033
0.00841639
0.00877981
0.0070464
0.00681976
0.00857945
0.00847629
0.00879484
0.00978125
0.00924742
0.00853638
0.00683053
0.00645077
0.00740823
0.00834878
0.00901715
0.00940879
0.0084707
0.00740231
0.0064686
0.00610177
0.00647092
0.00683566
0.00705274
0.00705607
0.0068403
0.00647878
0.00612058
0.00602885
0.00639441
0.00678688
0.00702649
0.00701931
0.00677097
0.00638811
0.00603914
0.00640424
0.00745371
0.00967469
0.00982435
0.00973242
0.00898145
0.00737429
0.00640526
0.00677704
0.00851849
0.00801788
0.00769342
0.00775062
0.00810745
0.00824763
0.00676585
0.00698808
0.00842576
0.00775789
0.00779488
0.00790671
0.00792224
0.00836507
0.00697276
0.00698686
0.00860666
0.00813457
0.00859656
0.00904816
0.00847957
0.00860176
0.00697911
0.00677172
0.00833281
0.00870696
0.00913063
0.0102363
0.00930717
0.00826882
0.0067757
0.00642346
0.00731351
0.00817741
0.00875486
0.00889037
0.00821467
0.00730011
0.00643435
0.00609202
0.00644323
0.00679005
0.00699266
0.00699361
0.0067891
0.00644651
0.00610511
0.00601731
0.00636438
0.00674302
0.00696895
0.00696187
0.00672639
0.00635783
0.00602386
0.00637606
0.00735611
0.009077
0.0110441
0.0102935
0.00871159
0.00729115
0.00637464
0.00673316
0.00833722
0.00824297
0.00784032
0.00788524
0.00829166
0.00814608
0.00672256
0.0069316
0.00840221
0.00789307
0.00787587
0.00795764
0.00801756
0.00832199
0.00691915
0.00692821
0.00849273
0.00828859
0.00865965
0.00894198
0.00853917
0.00844758
0.00692162
0.00672543
0.00812479
0.00885507
0.00934675
0.010076
0.00920746
0.00807254
0.00672717
0.00639588
0.00722484
0.00801631
0.00850222
0.00854702
0.0080215
0.00721194
0.00640291
0.00608092
0.00641478
0.00674468
0.00693528
0.00693482
0.00674202
0.00641607
0.00608989
0.00600698
0.00633785
0.00670327
0.00692028
0.00691395
0.00668857
0.00633337
0.006012
0.00635018
0.00727009
0.0087016
0.0109211
0.0102001
0.00848856
0.00722053
0.00634944
0.00669323
0.00818325
0.00849814
0.00801323
0.00804652
0.00849578
0.00805056
0.00668597
0.00688119
0.00834931
0.00804305
0.00797394
0.00803774
0.00813655
0.00827096
0.00687393
0.00687475
0.00836421
0.00843127
0.0087117
0.00890569
0.0086165
0.00831986
0.00687259
0.00668099
0.00795407
0.00888658
0.00937269
0.00974515
0.00906905
0.00792244
0.00668452
0.00636753
0.00714275
0.00787243
0.00829022
0.00830566
0.0078718
0.00713584
0.00637403
0.00606787
0.00638527
0.00669993
0.00688095
0.00688033
0.00669847
0.00638706
0.00607502
0.00599797
0.00631564
0.00666432
0.00687705
0.00687265
0.00665523
0.00631321
0.00600287
0.00632682
0.00718878
0.00841947
0.00988462
0.00965529
0.00829779
0.00715742
0.00632815
0.00665668
0.00805009
0.00876957
0.00821867
0.00824343
0.00872038
0.00795745
0.00665372
0.006836
0.00827852
0.00820986
0.0080912
0.00814586
0.00827995
0.00820984
0.00683409
0.00682646
0.00824048
0.00856393
0.00876697
0.00891668
0.00870653
0.00820676
0.00682928
0.00663936
0.00781436
0.00883214
0.0092864
0.00947984
0.00892572
0.00779976
0.00664619
0.00633943
0.00706857
0.00774849
0.0081215
0.00812929
0.00775019
0.00706853
0.0063473
0.00605362
0.00635583
0.00665706
0.00683065
0.00683065
0.00665767
0.00635935
0.00606058
0.00598958
0.00629492
0.00662943
0.00683915
0.00683546
0.00662394
0.0062945
0.00599471
0.006305
0.00711802
0.00820865
0.00928972
0.00919735
0.00813294
0.00709816
0.00630821
0.00662238
0.00792661
0.00907443
0.00847242
0.00848483
0.00895114
0.00786247
0.00662283
0.0067944
0.00818802
0.00838689
0.00822253
0.00826975
0.00843404
0.00813238
0.00679627
0.00678248
0.00811999
0.00867738
0.00882107
0.00893533
0.00877832
0.00809589
0.00678871
0.0066011
0.00769563
0.00872934
0.00916152
0.00926024
0.00877275
0.00769139
0.00661036
0.00631302
0.00700208
0.00764069
0.00798352
0.00798873
0.00764436
0.00700678
0.00632211
0.00603964
0.00632802
0.00661711
0.00678453
0.00678508
0.00661927
0.00633295
0.00604666
0.00598107
0.00627412
0.00659619
0.00680177
0.00679752
0.0065923
0.00627475
0.00598572
0.00628379
0.00705307
0.0080368
0.00889858
0.00884705
0.0079831
0.00703934
0.00628743
0.00658914
0.00780739
0.00932691
0.00876315
0.00875368
0.00912838
0.00776493
0.00659113
0.00675466
0.00807686
0.0085507
0.00835407
0.00838863
0.00856957
0.00803804
0.0067583
0.00674143
0.00799661
0.00874157
0.00885166
0.00892259
0.00879319
0.00798208
0.00674897
0.00656594
0.0075885
0.00859091
0.00900757
0.00904894
0.00860551
0.0075904
0.00657572
0.00628905
0.00694183
0.00754225
0.00786048
0.00786347
0.00754632
0.00694872
0.0062979
0.00602722
0.00630284
0.00658045
0.00674177
0.00674251
0.00658325
0.00630802
0.00603343
0.00597223
0.00625322
0.00656191
0.00675795
0.00675566
0.006559
0.00625316
0.005975
0.0062627
0.00698783
0.00787168
0.00858449
0.00855656
0.00783954
0.00697899
0.0062649
0.00655622
0.00769027
0.00934724
0.00902865
0.00901044
0.00917461
0.00766647
0.00655789
0.00671553
0.00795151
0.00865756
0.00846055
0.00847754
0.00865397
0.00793331
0.00671942
0.00670195
0.00786886
0.00872112
0.00882946
0.00885728
0.0087355
0.00786682
0.00670925
0.0065331
0.00748676
0.00842284
0.00881748
0.00882859
0.00842845
0.00749392
0.00654166
0.00626749
0.00688598
0.00744796
0.00774283
0.00774468
0.00745264
0.00689337
0.0062744
0.00601689
0.00628043
0.0065467
0.00670156
0.00670232
0.00654934
0.00628463
0.00602112
0.00596246
0.00623113
0.00652675
0.00671545
0.00671398
0.0065243
0.00622966
0.00596251
0.00624123
0.00692502
0.00773056
0.00835148
0.00833794
0.00771404
0.00691933
0.00624088
0.00652319
0.00757759
0.00916138
0.00929056
0.00927347
0.00910171
0.00757071
0.00652359
0.00667642
0.00782209
0.00867404
0.00852721
0.00853082
0.00867733
0.00782633
0.00667997
0.00666306
0.00774078
0.00861441
0.00874461
0.00874692
0.00862414
0.00775364
0.00666949
0.00650152
0.00738835
0.00824101
0.00860487
0.008607
0.00825241
0.00740109
0.00650793
0.00624757
0.00683288
0.00735634
0.00762911
0.00763117
0.00736262
0.00684005
0.00625151
0.00600829
0.00626006
0.00651497
0.00666329
0.00666402
0.00651705
0.00626255
0.0060097
0.0059517
0.00620801
0.0064915
0.00667404
0.0066733
0.0064895
0.00620526
0.00594909
0.00621921
0.00686505
0.00760757
0.00816674
0.0081646
0.00760444
0.00686209
0.00621637
0.00649018
0.00747262
0.00891764
0.00952777
0.00956144
0.00897078
0.00748051
0.00648934
0.00663749
0.00769876
0.00861519
0.00856256
0.00856573
0.00865736
0.00772306
0.00664081
0.00662451
0.00761901
0.00846415
0.00862389
0.00862177
0.00849297
0.00764567
0.00663016
0.00647042
0.00729459
0.00806584
0.00839899
0.00840272
0.00808812
0.00731248
0.00647468
0.00622818
0.00678156
0.00726829
0.00752076
0.00752387
0.0072768
0.00678848
0.00622914
0.00600038
0.00624059
0.0064843
0.00662613
0.00662688
0.00648589
0.00624136
0.00599891
0.00594051
0.00618484
0.00645682
0.00663289
0.0066329
0.00645559
0.00618146
0.00593601
0.00619696
0.00680764
0.00749545
0.00800649
0.00801307
0.00750329
0.00680744
0.00619254
0.00645756
0.00737683
0.00869491
0.0097296
0.00990191
0.00881788
0.00739596
0.00645619
0.00659932
0.00758806
0.00852692
0.00859178
0.00860766
0.0086173
0.00762656
0.00660284
0.00658667
0.00750925
0.00831562
0.00850701
0.00851251
0.00836832
0.00754562
0.00659198
0.00643952
0.00720802
0.00791119
0.00822058
0.00822913
0.00794307
0.00722961
0.00644228
0.00620843
0.00673211
0.00718641
0.00742176
0.00742609
0.00719699
0.00673902
0.00620721
0.00599193
0.00622092
0.00645418
0.00659006
0.00659088
0.00645552
0.00622049
0.00598828
0.0059296
0.0061625
0.00642363
0.00659357
0.00659427
0.00642342
0.00615928
0.00592422
0.00617507
0.00675356
0.00739367
0.00786452
0.00787657
0.00740896
0.00675601
0.00617025
0.00642586
0.00729042
0.00850738
0.00989757
0.0103263
0.00865663
0.00731644
0.00642476
0.00656257
0.00749217
0.00844561
0.00864646
0.00868399
0.00857403
0.00753809
0.00656666
0.00655015
0.00741419
0.00819363
0.00842237
0.0084389
0.00826453
0.00745539
0.00655554
0.00640896
0.0071303
0.00778319
0.00807907
0.00809209
0.00782105
0.00715381
0.00641108
0.00618796
0.00668493
0.00711254
0.00733506
0.00734031
0.00712457
0.00669201
0.00618566
0.00598214
0.00620043
0.00642433
0.00655525
0.00655617
0.00642569
0.00619946
0.00597734
0.00591964
0.00614174
0.00639245
0.00655632
0.00655763
0.00639333
0.00613914
0.00591417
0.00615416
0.00670304
0.00730019
0.00773559
0.00775059
0.00731957
0.00670768
0.00614973
0.00639555
0.00721211
0.00834482
0.00992336
0.0105672
0.00849178
0.00724115
0.00639516
0.00652772
0.00740955
0.00838129
0.00874863
0.00881633
0.00853227
0.00745758
0.00653244
0.00651548
0.00733321
0.00810275
0.00838105
0.00840837
0.0081847
0.00737538
0.00652114
0.00637922
0.0070617
0.00768098
0.00797416
0.00799041
0.00772147
0.00708555
0.00638126
0.00616694
0.00664039
0.00704705
0.00726083
0.00726668
0.00705978
0.00664761
0.00616443
0.00597085
0.00617904
0.00639478
0.00652168
0.0065227
0.00639627
0.00617802
0.00596576
0.00591096
0.00612281
0.00636329
0.00652039
0.00652189
0.00636491
0.00612091
0.00590573
0.00613454
0.00665566
0.00721221
0.00761464
0.00763123
0.00723268
0.00666161
0.00613072
0.00636682
0.0071396
0.00819382
0.00970322
0.0101893
0.00832676
0.00716899
0.00636715
0.00649489
0.00733638
0.00832469
0.00889932
0.00901243
0.00848537
0.00738362
0.00650007
0.00648293
0.00726337
0.00803507
0.00837839
0.00841628
0.00812316
0.00730449
0.00648879
0.00635076
0.00700117
0.00759938
0.0078991
0.00791747
0.00764041
0.00702441
0.00635291
0.00614592
0.00659871
0.00698924
0.00719784
0.00720393
0.00700203
0.0066059
0.00614354
0.00595854
0.00615719
0.00636579
0.00648951
0.00649058
0.0063674
0.00615631
0.00595359
0.00590321
0.00610529
0.00633595
0.00648646
0.00648804
0.00633812
0.00610394
0.00589822
0.00611605
0.00661122
0.00713069
0.00750309
0.00752061
0.00715104
0.00661802
0.00611277
0.00633954
0.00707156
0.0080491
0.00935057
0.00963245
0.0081665
0.00710033
0.00634043
0.00646389
0.00726908
0.00826396
0.00907927
0.00926275
0.00842744
0.00731492
0.00646938
0.00645246
0.00720125
0.00797898
0.00840101
0.00845109
0.00807131
0.00724104
0.00645843
0.0063239
0.00694704
0.00753141
0.00784363
0.00786373
0.00757242
0.00696948
0.00632614
0.00612549
0.0065599
0.00693751
0.00714324
0.00714943
0.00695014
0.00656696
0.00612327
0.00594595
0.00613563
0.00633781
0.00645888
0.00645999
0.0063395
0.00613488
0.00594118
0.00589586
0.00608857
0.00630999
0.00645438
0.00645613
0.00631258
0.00608765
0.00589102
0.0060983
0.0065692
0.00705552
0.00740029
0.00741664
0.00707589
0.00657666
0.00609541
0.00631345
0.00700742
0.00791085
0.00900621
0.00918688
0.00801381
0.00703585
0.00631482
0.00643454
0.00720553
0.00819215
0.00924381
0.00952206
0.00835577
0.0072507
0.00644036
0.00642396
0.00714428
0.0079249
0.00843061
0.00849517
0.00802149
0.00718355
0.00643012
0.0062988
0.00689778
0.00747085
0.00779745
0.00781942
0.00751242
0.00691988
0.00630114
0.00610616
0.00652392
0.00689031
0.00709415
0.0071005
0.00690297
0.00653097
0.00610403
0.0059338
0.00611508
0.00631136
0.00643004
0.00643119
0.00631313
0.00611444
0.0059291
0.0058886
0.00607236
0.00628536
0.00642453
0.00642652
0.0062884
0.00607182
0.00588377
0.00608118
0.0065297
0.00698742
0.00730905
0.00732478
0.00700829
0.00653799
0.00607858
0.00628862
0.00694755
0.00778477
0.00872845
0.00886377
0.00787915
0.00697642
0.00629049
0.00640691
0.0071455
0.00811151
0.00935345
0.00975346
0.00827597
0.00719128
0.00641323
0.00639743
0.00709126
0.00786889
0.00845329
0.008535
0.00797083
0.00713126
0.00640394
0.00627553
0.00685238
0.00741409
0.0077538
0.00777809
0.00745728
0.00687488
0.00627802
0.0060882
0.00649065
0.00684662
0.00704874
0.00705545
0.00685975
0.00649794
0.00608609
0.00592254
0.00609598
0.00628671
0.00640318
0.00640442
0.00628869
0.00609546
0.00591776
0.0058816
0.00605692
0.00626233
0.00639715
0.00639944
0.00626589
0.0060567
0.00587657
0.00606503
0.0064932
0.00692649
0.00722962
0.00724523
0.00694846
0.00650247
0.00606256
0.00626544
0.00689261
0.00767308
0.00851123
0.00862622
0.00776373
0.00692273
0.00626777
0.0063813
0.00708954
0.00802753
0.00938911
0.00991683
0.00819586
0.00713719
0.00638819
0.00637296
0.00704194
0.00781114
0.00846281
0.00856477
0.00792031
0.00708386
0.0063799
0.00625408
0.00681037
0.00735997
0.00771025
0.00773749
0.00740601
0.00683398
0.00625672
0.00607167
0.00645987
0.00680594
0.00700626
0.00701358
0.00682004
0.00646769
0.00606946
0.00591229
0.00607838
0.00626392
0.00637832
0.00637975
0.00626622
0.00607799
0.00590725
0.00587521
0.00604279
0.00624146
0.00637263
0.00637523
0.00624553
0.00604274
0.00586969
0.00605038
0.00646047
0.00687304
0.00716148
0.00717752
0.00689647
0.00647071
0.00604775
0.00624445
0.00684344
0.00757637
0.00834023
0.00844726
0.00766688
0.00687529
0.00624704
0.00635808
0.00703855
0.0079459
0.00936243
0.0100037
0.00812185
0.007089
0.00636544
0.00635069
0.0069967
0.00775415
0.00846044
0.00858642
0.00787276
0.00704142
0.00635798
0.0062345
0.00677182
0.00730912
0.0076677
0.00769867
0.00735913
0.00679701
0.00623712
0.00605659
0.00643162
0.00676838
0.00696697
0.00697513
0.00678385
0.00644005
0.00605404
0.00590309
0.00606231
0.00624299
0.00635552
0.00635718
0.00624567
0.00606196
0.00589752
0.00586968
0.00603041
0.0062232
0.00635124
0.0063541
0.00622765
0.00603028
0.00586337
0.00603765
0.00643214
0.00682733
0.00710392
0.00712063
0.00685228
0.00644309
0.00603451
0.00622613
0.00680084
0.00749464
0.00820447
0.00830987
0.0075871
0.00683447
0.00622863
0.00633766
0.00699362
0.00787126
0.00929986
0.0100331
0.00805771
0.00704723
0.00634523
0.00633098
0.00695644
0.00770105
0.00845083
0.00860448
0.00783081
0.00700432
0.00633837
0.0062171
0.00673746
0.00726312
0.00762841
0.00766373
0.00731778
0.00676429
0.00621941
0.00604321
0.00640642
0.00673476
0.0069318
0.00694091
0.00675169
0.0064153
0.00604001
0.00589505
0.00604803
0.00622429
0.00633514
0.00633701
0.00622727
0.0060475
0.00588867
0.00586526
0.00602028
0.00620814
0.00633351
0.00633656
0.00621278
0.00601986
0.00585803
0.00602727
0.00640897
0.00679008
0.00705725
0.00707466
0.00681631
0.0064203
0.00602339
0.00621106
0.00676592
0.00742874
0.00809915
0.00820573
0.00752381
0.00680102
0.00621319
0.00632073
0.00695634
0.00780829
0.00922968
0.0100334
0.00800596
0.00701287
0.00632824
0.00631454
0.0069228
0.00765575
0.00844049
0.00862364
0.00779686
0.00697365
0.00632179
0.00620258
0.00670875
0.00722446
0.00759544
0.00763529
0.00728371
0.00673698
0.00620435
0.00603209