/*--------------------------------*- C++ -*----------------------------------*\
| =========                 |                                                 |
| \\      /  F ield         | OpenFOAM: The Open Source CFD Toolbox           |
|  \\    /   O peration     | Version:  2406                                  |
|   \\  /    A nd           | Website:  www.openfoam.com                      |
|    \\/     M anipulation  |                                                 |
\*---------------------------------------------------------------------------*/
FoamFile
{
    version     2.0;
    format      ascii;
    arch        "LSB;label=32;scalar=64";
    class       volScalarField;
    location    "0.2";
    object      p;
}
// * * * * * * * * * * * * * * * * * * * * * * * * * * * * * * * * * * * * * //

dimensions      [0 2 -2 0 0 0 0];

internalField   nonuniform List<scalar> 
16000
(
21.1424
21.0891
21.0566
21.0399
21.0401
21.0571
21.0897
21.1428
21.0891
21.025
20.985
20.9651
20.9653
20.9856
21.0256
21.0896
21.0565
20.985
20.94
20.9179
20.9182
20.9407
20.9857
21.0572
21.0398
20.9649
20.9178
20.8947
20.895
20.9185
20.9658
21.0406
21.0399
20.9651
20.918
20.8949
20.8952
20.9187
20.966
21.0408
21.0568
20.9853
20.9404
20.9184
20.9186
20.9411
20.9862
21.0576
21.0894
21.0254
20.9855
20.9656
20.9658
20.9861
21.0262
21.0901
21.1426
21.0895
21.0571
21.0405
21.0406
21.0575
21.09
21.1432
19.8714
19.9043
19.9242
19.9337
19.9343
19.9254
19.9062
19.8729
19.9044
19.9395
19.9604
19.9702
19.9707
19.9616
19.9413
19.9062
19.9242
19.9604
19.9817
19.992
19.9925
19.9831
19.9623
19.9264
19.9338
19.9704
19.9921
20.0029
20.0034
19.9935
19.9725
19.9363
19.9342
19.9709
19.9927
20.0035
20.0041
19.9942
19.973
19.9368
19.9252
19.9617
19.9833
19.9938
19.9943
19.9847
19.9637
19.9275
19.906
19.9412
19.9625
19.9726
19.9731
19.9637
19.943
19.9079
19.8728
19.9062
19.9264
19.9362
19.9367
19.9274
19.9078
19.8741
19.7241
19.7167
19.7117
19.7092
19.7096
19.7131
19.7186
19.7271
19.717
19.7061
19.6992
19.6964
19.6969
19.7007
19.7077
19.7194
19.7119
19.6994
19.6934
19.6918
19.6922
19.6948
19.7013
19.7147
19.7093
19.6969
19.6922
19.6917
19.6922
19.6935
19.699
19.7123
19.7097
19.6976
19.693
19.6926
19.6931
19.6944
19.6998
19.7129
19.7133
19.7014
19.6957
19.6943
19.6948
19.6972
19.7036
19.7163
19.7185
19.708
19.7019
19.6996
19.7001
19.7033
19.71
19.7214
19.7269
19.7195
19.7149
19.7124
19.7128
19.7161
19.722
19.7302
19.1384
19.1431
19.1462
19.1477
19.1485
19.1483
19.1465
19.1427
19.1435
19.1488
19.1493
19.1494
19.1501
19.1512
19.1514
19.1474
19.1465
19.1495
19.149
19.1494
19.1505
19.1515
19.1526
19.1506
19.148
19.1499
19.1499
19.1508
19.1521
19.1529
19.1534
19.1525
19.1488
19.1511
19.1516
19.1527
19.1539
19.1544
19.1545
19.1534
19.1487
19.1521
19.153
19.1541
19.1549
19.1552
19.1552
19.1529
19.1472
19.1521
19.1536
19.1544
19.1552
19.1555
19.155
19.1513
19.1437
19.148
19.151
19.1529
19.1537
19.1533
19.1517
19.1483
18.6718
18.6744
18.6772
18.6784
18.6789
18.6788
18.6773
18.6754
18.6748
18.6793
18.6806
18.681
18.6816
18.682
18.6813
18.6782
18.6777
18.6809
18.6802
18.6802
18.6814
18.6826
18.6834
18.6812
18.679
18.6815
18.6806
18.6804
18.6823
18.6838
18.6846
18.6828
18.6799
18.6824
18.6824
18.6829
18.6843
18.6852
18.6855
18.6837
18.6801
18.683
18.6839
18.6849
18.6857
18.6858
18.6856
18.6838
18.6794
18.6824
18.6843
18.6854
18.686
18.6858
18.6847
18.6826
18.6784
18.6802
18.6822
18.6834
18.6841
18.6842
18.683
18.6816
18.2135
18.2154
18.2173
18.2183
18.2188
18.2187
18.2177
18.2156
18.2158
18.2199
18.2222
18.2229
18.2231
18.2228
18.2211
18.2178
18.2183
18.2225
18.2238
18.2241
18.2249
18.225
18.2238
18.2207
18.22
18.2235
18.2244
18.2247
18.2261
18.2265
18.2254
18.2227
18.221
18.2242
18.2257
18.2266
18.2275
18.2274
18.2262
18.2237
18.2215
18.2242
18.226
18.2273
18.2277
18.2272
18.2259
18.2239
18.2215
18.2231
18.225
18.2264
18.2269
18.2263
18.2248
18.2232
18.2202
18.2214
18.2231
18.2243
18.2248
18.2246
18.2236
18.222
17.78
17.7803
17.7804
17.7804
17.7805
17.7806
17.7809
17.78
17.7805
17.7826
17.7835
17.7835
17.7829
17.7822
17.7816
17.7802
17.7814
17.7836
17.785
17.7853
17.7845
17.7834
17.7825
17.7815
17.7821
17.7837
17.7851
17.7858
17.785
17.7839
17.7831
17.7827
17.7828
17.7835
17.7845
17.7849
17.7846
17.7839
17.7835
17.7837
17.7836
17.7833
17.7838
17.7841
17.784
17.7837
17.7837
17.7845
17.7846
17.7836
17.7837
17.7841
17.7843
17.7841
17.7841
17.785
17.7843
17.7839
17.7844
17.785
17.7853
17.7854
17.7852
17.7849
17.3498
17.3491
17.348
17.3474
17.347
17.3471
17.3479
17.3477
17.3487
17.3493
17.3495
17.3491
17.348
17.3472
17.3471
17.3468
17.3482
17.3492
17.3503
17.3503
17.3489
17.3475
17.347
17.3472
17.3481
17.3485
17.3496
17.3499
17.3487
17.3473
17.3471
17.3479
17.3483
17.3477
17.3481
17.3482
17.3475
17.3469
17.3472
17.3487
17.349
17.3476
17.3473
17.3471
17.3469
17.3469
17.3476
17.3495
17.3503
17.3485
17.348
17.3479
17.348
17.3481
17.3488
17.3502
17.3504
17.3495
17.3497
17.3501
17.3504
17.3505
17.3502
17.3503
16.9165
16.915
16.9134
16.9123
16.9116
16.9116
16.9123
16.9123
16.9142
16.9133
16.9132
16.9126
16.9115
16.9107
16.9108
16.9108
16.9126
16.9126
16.9135
16.9132
16.9118
16.9105
16.9101
16.9105
16.9118
16.9117
16.9124
16.9123
16.9112
16.91
16.9099
16.9106
16.9115
16.9107
16.9108
16.9108
16.91
16.9094
16.9098
16.911
16.9118
16.9105
16.91
16.9098
16.9094
16.9094
16.9103
16.9116
16.9127
16.9113
16.9107
16.9106
16.9106
16.9108
16.9114
16.9119
16.9127
16.9121
16.9123
16.9125
16.9127
16.9126
16.9119
16.9116
16.4809
16.4792
16.4774
16.4763
16.4756
16.4753
16.4755
16.4755
16.4784
16.4765
16.476
16.4755
16.4746
16.474
16.4739
16.4739
16.4762
16.4755
16.4759
16.4753
16.4742
16.4734
16.473
16.473
16.4751
16.4746
16.4747
16.4742
16.4734
16.4727
16.4725
16.4727
16.4744
16.4736
16.4734
16.4732
16.4726
16.472
16.4722
16.4726
16.4742
16.4733
16.4727
16.4724
16.4721
16.4719
16.4725
16.4728
16.4742
16.4736
16.4732
16.4729
16.4728
16.4729
16.4732
16.4724
16.474
16.4737
16.4738
16.4739
16.4738
16.4735
16.4724
16.4715
16.043
16.0415
16.0399
16.0389
16.0383
16.0378
16.0375
16.0375
16.0408
16.0385
16.0379
16.0375
16.0368
16.0363
16.0361
16.0361
16.0387
16.0374
16.0374
16.0368
16.0359
16.0355
16.0352
16.0349
16.0374
16.0367
16.0362
16.0353
16.0348
16.0346
16.0346
16.0342
16.0366
16.0357
16.035
16.0345
16.0341
16.0339
16.0341
16.0337
16.036
16.0354
16.0347
16.0342
16.0339
16.0338
16.0342
16.0334
16.0351
16.0353
16.0349
16.0346
16.0343
16.0343
16.0342
16.0324
16.0345
16.0346
16.0345
16.0345
16.0342
16.0336
16.0323
16.031
15.6029
15.6017
15.6006
15.5998
15.5991
15.5986
15.5979
15.5977
15.6013
15.5989
15.5983
15.598
15.5974
15.597
15.5967
15.5967
15.5994
15.5978
15.5974
15.5969
15.5962
15.5959
15.5957
15.5953
15.5981
15.5971
15.5963
15.5955
15.5949
15.595
15.5951
15.5944
15.5971
15.5963
15.5953
15.5944
15.5941
15.5942
15.5945
15.5937
15.5961
15.5959
15.595
15.5944
15.5941
15.5941
15.5945
15.593
15.5947
15.5955
15.5951
15.5946
15.5943
15.5943
15.594
15.5915
15.5938
15.5941
15.5939
15.5937
15.5932
15.5926
15.5913
15.5899
15.1616
15.1608
15.1601
15.1595
15.1589
15.1582
15.1573
15.157
15.1604
15.1584
15.1578
15.1576
15.1572
15.1567
15.1563
15.1562
15.1589
15.1573
15.1568
15.1564
15.1558
15.1555
15.1553
15.1549
15.1576
15.1566
15.1558
15.155
15.1544
15.1545
15.1546
15.154
15.1565
15.1558
15.1548
15.1538
15.1534
15.1537
15.154
15.1531
15.1554
15.1554
15.1544
15.1537
15.1534
15.1535
15.1538
15.1521
15.1537
15.1547
15.1543
15.1537
15.1534
15.1535
15.1531
15.1504
15.1525
15.1528
15.1526
15.1523
15.1518
15.1512
15.1501
15.1488
14.7208
14.7203
14.7199
14.7194
14.7189
14.7183
14.7173
14.7168
14.7199
14.7182
14.7179
14.7177
14.7173
14.7168
14.7162
14.7162
14.7187
14.7173
14.7167
14.7164
14.7159
14.7155
14.7153
14.715
14.7175
14.7166
14.7158
14.7152
14.7146
14.7145
14.7146
14.714
14.7164
14.7158
14.7149
14.7139
14.7135
14.7137
14.714
14.7131
14.7153
14.7153
14.7144
14.7136
14.7133
14.7135
14.7137
14.712
14.7136
14.7143
14.714
14.7135
14.7132
14.7133
14.7128
14.7103
14.7124
14.7125
14.7122
14.7118
14.7114
14.7109
14.71
14.7089
14.2815
14.2812
14.2811
14.2808
14.2803
14.2797
14.2788
14.2782
14.281
14.2797
14.2794
14.2793
14.2789
14.2784
14.2778
14.2778
14.28
14.2789
14.2784
14.2781
14.2776
14.2772
14.2771
14.2768
14.279
14.2783
14.2776
14.277
14.2765
14.2763
14.2764
14.2758
14.278
14.2775
14.2767
14.2758
14.2753
14.2756
14.2758
14.2749
14.277
14.2769
14.2761
14.2754
14.2751
14.2753
14.2754
14.2739
14.2756
14.2758
14.2756
14.2752
14.2749
14.275
14.2744
14.2725
14.2746
14.2746
14.2741
14.2737
14.2733
14.2729
14.2722
14.2714
13.8448
13.8447
13.8447
13.8444
13.844
13.8434
13.8425
13.842
13.8445
13.8436
13.8434
13.8433
13.8429
13.8425
13.8419
13.8417
13.8437
13.843
13.8425
13.8422
13.8418
13.8415
13.8413
13.8409
13.843
13.8424
13.8418
13.8413
13.8408
13.8407
13.8407
13.8401
13.8422
13.8418
13.8411
13.8403
13.8398
13.84
13.8402
13.8394
13.8412
13.8411
13.8405
13.8398
13.8395
13.8397
13.8398
13.8385
13.8402
13.8402
13.84
13.8396
13.8394
13.8394
13.8388
13.8374
13.8394
13.8394
13.8388
13.8384
13.838
13.8377
13.8372
13.8366
13.4111
13.4112
13.4112
13.411
13.4106
13.41
13.4093
13.4088
13.4109
13.4105
13.4104
13.4102
13.41
13.4096
13.409
13.4086
13.4105
13.41
13.4097
13.4094
13.4091
13.4088
13.4086
13.408
13.41
13.4096
13.4091
13.4086
13.4082
13.4081
13.4081
13.4074
13.4093
13.4091
13.4085
13.4078
13.4073
13.4075
13.4077
13.4069
13.4086
13.4085
13.408
13.4074
13.407
13.4073
13.4073
13.4061
13.4077
13.4077
13.4076
13.4072
13.407
13.407
13.4064
13.4053
13.4072
13.4071
13.4066
13.4063
13.4059
13.4055
13.4052
13.4047
12.9808
12.981
12.981
12.9808
12.9805
12.98
12.9794
12.979
12.9808
12.9806
12.9806
12.9804
12.9802
12.9798
12.9793
12.9789
12.9805
12.9804
12.9801
12.9798
12.9796
12.9794
12.9791
12.9785
12.9802
12.98
12.9796
12.9792
12.9789
12.9788
12.9788
12.9781
12.9798
12.9796
12.9791
12.9785
12.978
12.9783
12.9784
12.9776
12.9791
12.9791
12.9788
12.9782
12.9779
12.9781
12.978
12.977
12.9784
12.9784
12.9784
12.9781
12.9779
12.9777
12.9772
12.9764
12.9779
12.9779
12.9776
12.9773
12.977
12.9766
12.9763
12.976
12.5539
12.5541
12.5541
12.5541
12.5539
12.5535
12.553
12.5527
12.5539
12.554
12.5541
12.554
12.5538
12.5535
12.553
12.5527
12.5539
12.5539
12.5538
12.5535
12.5534
12.5532
12.5529
12.5524
12.5537
12.5537
12.5534
12.5531
12.5528
12.5528
12.5527
12.5522
12.5534
12.5534
12.553
12.5525
12.5521
12.5523
12.5523
12.5518
12.5529
12.5529
12.5528
12.5523
12.552
12.5521
12.5519
12.5514
12.5523
12.5524
12.5525
12.5523
12.552
12.5518
12.5514
12.551
12.5518
12.5519
12.5518
12.5516
12.5513
12.5511
12.5508
12.5506
12.1303
12.1305
12.1306
12.1307
12.1306
12.1303
12.1301
12.1299
12.1304
12.1306
12.1309
12.1308
12.1306
12.1303
12.13
12.13
12.1304
12.1307
12.1306
12.1304
12.1303
12.1302
12.13
12.1298
12.1303
12.1305
12.1304
12.1301
12.1299
12.1299
12.1298
12.1296
12.1301
12.1302
12.13
12.1296
12.1293
12.1294
12.1294
12.1293
12.1297
12.1298
12.1299
12.1295
12.1291
12.1292
12.1291
12.1292
12.1291
12.1294
12.1296
12.1294
12.1291
12.129
12.1291
12.1289
12.1288
12.1289
12.129
12.1289
12.1288
12.1288
12.1287
12.1286
11.7097
11.7099
11.7102
11.7105
11.7105
11.7104
11.7104
11.7103
11.7099
11.7102
11.7106
11.7107
11.7106
11.7103
11.7103
11.7104
11.71
11.7104
11.7106
11.7104
11.7104
11.7104
11.7102
11.7103
11.7099
11.7103
11.7104
11.7101
11.7101
11.7101
11.7101
11.7101
11.7097
11.7101
11.7101
11.7097
11.7095
11.7097
11.7098
11.71
11.7094
11.7097
11.7099
11.7095
11.7093
11.7095
11.7096
11.7098
11.709
11.7094
11.7095
11.7094
11.7093
11.7094
11.7096
11.7096
11.7087
11.7089
11.7091
11.7092
11.7095
11.7095
11.7095
11.7094
11.2924
11.2927
11.2931
11.2934
11.2934
11.2935
11.2935
11.2935
11.2926
11.2929
11.2932
11.2935
11.2935
11.2934
11.2935
11.2937
11.2927
11.2932
11.2934
11.2933
11.2933
11.2934
11.2934
11.2937
11.2926
11.2931
11.2932
11.2931
11.2931
11.2932
11.2933
11.2935
11.2924
11.2928
11.293
11.2927
11.2927
11.2929
11.2931
11.2934
11.2922
11.2926
11.2927
11.2925
11.2923
11.2926
11.2929
11.2933
11.2919
11.2923
11.2924
11.2924
11.2924
11.2927
11.293
11.2931
11.2917
11.2919
11.2922
11.2924
11.2927
11.2928
11.2929
11.2929
10.8781
10.8784
10.8788
10.8789
10.8791
10.8793
10.8794
10.8794
10.8782
10.8787
10.8789
10.8793
10.8793
10.8793
10.8795
10.8796
10.8783
10.8788
10.8791
10.8791
10.8792
10.8793
10.8794
10.8797
10.8782
10.8787
10.8789
10.8789
10.879
10.8792
10.8793
10.8796
10.8781
10.8785
10.8787
10.8786
10.8786
10.8788
10.8791
10.8796
10.878
10.8783
10.8785
10.8783
10.8783
10.8786
10.8791
10.8794
10.8778
10.8782
10.8783
10.8783
10.8785
10.8788
10.8791
10.8792
10.8777
10.878
10.8783
10.8785
10.8788
10.879
10.8792
10.8791
10.4665
10.4668
10.4671
10.4673
10.4675
10.4677
10.4678
10.4677
10.4667
10.4671
10.4674
10.4676
10.4677
10.4679
10.468
10.468
10.4668
10.4672
10.4676
10.4677
10.4678
10.4679
10.468
10.4681
10.4668
10.4671
10.4674
10.4675
10.4676
10.4677
10.4679
10.4682
10.4668
10.467
10.4672
10.4672
10.4672
10.4675
10.4678
10.4682
10.4668
10.467
10.467
10.467
10.467
10.4673
10.4678
10.4682
10.4668
10.467
10.4671
10.4671
10.4673
10.4676
10.4679
10.468
10.4668
10.467
10.4673
10.4675
10.4677
10.4679
10.468
10.468
10.0576
10.0578
10.0582
10.0584
10.0586
10.0586
10.0586
10.0586
10.0578
10.0582
10.0584
10.0584
10.0586
10.0589
10.0589
10.0588
10.058
10.0583
10.0586
10.0587
10.0589
10.059
10.059
10.0591
10.0581
10.0583
10.0585
10.0586
10.0587
10.0588
10.059
10.0592
10.0581
10.0582
10.0583
10.0583
10.0584
10.0586
10.059
10.0593
10.0582
10.0583
10.0583
10.0582
10.0583
10.0586
10.0591
10.0594
10.0583
10.0585
10.0585
10.0586
10.0587
10.059
10.0592
10.0594
10.0584
10.0587
10.0589
10.0591
10.0593
10.0594
10.0594
10.0594
9.65109
9.65127
9.65158
9.65184
9.65191
9.65189
9.65181
9.65177
9.6513
9.65157
9.65177
9.65176
9.65193
9.65211
9.6521
9.65202
9.65153
9.65173
9.652
9.65208
9.65219
9.65227
9.65224
9.65229
9.65171
9.65182
9.65195
9.65197
9.65205
9.6522
9.65232
9.6525
9.65188
9.65188
9.65186
9.65183
9.65189
9.65209
9.65239
9.65268
9.65205
9.65204
9.65193
9.65188
9.65195
9.65219
9.65257
9.65283
9.65219
9.65231
9.65232
9.65235
9.65246
9.65263
9.65284
9.65293
9.6523
9.65252
9.65275
9.65291
9.65303
9.65307
9.65306
9.65299
9.24661
9.24677
9.247
9.24721
9.24729
9.24727
9.24724
9.24724
9.24682
9.24704
9.2472
9.24723
9.24733
9.24745
9.24748
9.24746
9.24711
9.24723
9.24744
9.24753
9.24758
9.24761
9.24762
9.24773
9.24736
9.24739
9.24746
9.24746
9.24751
9.24762
9.24774
9.24796
9.24757
9.24753
9.24745
9.2474
9.24744
9.24761
9.24789
9.24819
9.24776
9.24775
9.24762
9.24757
9.24762
9.24782
9.24815
9.24839
9.24789
9.24801
9.24806
9.2481
9.24819
9.24831
9.24845
9.24852
9.24797
9.2482
9.24845
9.24861
9.24871
9.24872
9.24866
9.24858
8.84401
8.84413
8.84432
8.84447
8.84455
8.84458
8.8446
8.84465
8.84416
8.84431
8.84438
8.8444
8.84446
8.8446
8.84474
8.84483
8.84442
8.84446
8.84454
8.84462
8.84465
8.84467
8.84481
8.84506
8.84464
8.84462
8.84463
8.84462
8.84464
8.84474
8.84493
8.84525
8.84483
8.84479
8.84469
8.84463
8.84465
8.8448
8.84511
8.84545
8.84496
8.845
8.8449
8.84485
8.8449
8.84508
8.84538
8.84562
8.84503
8.8452
8.84529
8.84536
8.84544
8.84554
8.84565
8.84572
8.84508
8.8453
8.84557
8.84575
8.84585
8.84586
8.8458
8.84575
8.44285
8.44299
8.44319
8.44335
8.44347
8.44355
8.44362
8.44369
8.44296
8.44307
8.44308
8.44309
8.44317
8.44338
8.44364
8.44383
8.44315
8.44314
8.4431
8.44316
8.44322
8.44331
8.44362
8.44399
8.4433
8.44325
8.4432
8.4432
8.44325
8.44337
8.44368
8.4441
8.44341
8.44339
8.4433
8.44326
8.4433
8.44348
8.44383
8.44422
8.44346
8.44356
8.44351
8.44349
8.44356
8.44375
8.44405
8.44429
8.44345
8.44367
8.44382
8.44392
8.44402
8.44413
8.44424
8.4443
8.44345
8.44367
8.44395
8.44416
8.44429
8.44433
8.44431
8.44427
8.04311
8.04324
8.04346
8.04363
8.04377
8.04387
8.04395
8.04403
8.04316
8.04323
8.04321
8.04321
8.04332
8.04356
8.04388
8.04413
8.04324
8.0432
8.04304
8.04308
8.04317
8.04334
8.04378
8.04422
8.04328
8.0432
8.04308
8.04308
8.04315
8.04334
8.04376
8.04425
8.04328
8.04327
8.04316
8.04314
8.04321
8.04343
8.04384
8.04426
8.04324
8.04336
8.04334
8.04333
8.04343
8.04364
8.04397
8.04423
8.04316
8.0434
8.04356
8.04366
8.04378
8.04392
8.04406
8.04413
8.04313
8.04333
8.04358
8.04378
8.04393
8.04402
8.04406
8.04407
7.64454
7.64469
7.64494
7.64514
7.64529
7.64539
7.64543
7.64549
7.64458
7.64464
7.64462
7.64463
7.64476
7.64502
7.64533
7.64558
7.64458
7.64453
7.64433
7.64433
7.64445
7.6447
7.6452
7.64562
7.64455
7.64444
7.64427
7.64426
7.64436
7.64461
7.64509
7.64559
7.64448
7.64445
7.64431
7.64429
7.6444
7.64465
7.6451
7.64552
7.64439
7.6445
7.64446
7.64445
7.64456
7.64481
7.64516
7.64541
7.64428
7.6445
7.64462
7.64471
7.64483
7.64501
7.64518
7.64525
7.64425
7.64441
7.64462
7.64479
7.64494
7.64506
7.64515
7.64517
7.24716
7.24729
7.24753
7.24772
7.24783
7.24788
7.24787
7.2479
7.24719
7.24724
7.24722
7.24722
7.24732
7.24755
7.2478
7.24798
7.24718
7.24712
7.24689
7.24682
7.24694
7.24721
7.24769
7.24804
7.24712
7.24698
7.24676
7.2467
7.2468
7.24708
7.24756
7.24799
7.24703
7.24694
7.24676
7.24671
7.24681
7.24708
7.24752
7.24791
7.24694
7.24697
7.24688
7.24683
7.24693
7.24719
7.24754
7.24779
7.24683
7.24699
7.24705
7.24708
7.24719
7.24738
7.24756
7.24763
7.24683
7.24696
7.2471
7.24721
7.24733
7.24745
7.24755
7.24758
6.85081
6.85092
6.85114
6.8513
6.85138
6.85137
6.85132
6.85132
6.85089
6.85095
6.85095
6.85092
6.85098
6.85116
6.85134
6.85144
6.85096
6.8509
6.85069
6.85056
6.85063
6.8509
6.85132
6.85155
6.85095
6.8508
6.85055
6.85046
6.85054
6.8508
6.85122
6.85156
6.85092
6.85078
6.85056
6.85047
6.85055
6.8508
6.85121
6.85153
6.85088
6.85085
6.85069
6.85061
6.85069
6.85093
6.85126
6.85146
6.85085
6.85094
6.85093
6.85091
6.85099
6.85116
6.85133
6.85138
6.8509
6.851
6.85109
6.85115
6.85123
6.85132
6.85139
6.85139
6.45564
6.4557
6.45586
6.45597
6.456
6.45595
6.45587
6.45587
6.45578
6.45584
6.45583
6.45577
6.45579
6.45591
6.45602
6.45604
6.45595
6.4559
6.45568
6.45546
6.45547
6.45576
6.45611
6.45625
6.45604
6.45587
6.4556
6.45546
6.4555
6.45573
6.45609
6.45635
6.4561
6.45592
6.45565
6.45551
6.45556
6.45578
6.45614
6.45641
6.45616
6.45606
6.45586
6.45573
6.45577
6.45598
6.45627
6.45646
6.45622
6.45624
6.45618
6.45612
6.45616
6.4563
6.45644
6.45649
6.45632
6.45641
6.45647
6.45649
6.45653
6.45659
6.4566
6.45658
6.06154
6.06158
6.0617
6.06177
6.06178
6.06173
6.06165
6.06165
6.06175
6.06182
6.0618
6.06174
6.06175
6.06183
6.0619
6.06187
6.06203
6.06199
6.06177
6.0615
6.06147
6.06178
6.06207
6.06216
6.06223
6.06207
6.06178
6.0616
6.0616
6.06182
6.06215
6.06236
6.06241
6.06222
6.06193
6.06175
6.06176
6.06197
6.06229
6.06253
6.06257
6.06244
6.06222
6.06206
6.06208
6.06226
6.06252
6.06268
6.06272
6.06272
6.06263
6.06255
6.06257
6.06268
6.06279
6.06283
6.06288
6.06297
6.06304
6.06305
6.06307
6.06308
6.06305
6.06298
5.66855
5.66855
5.66861
5.66866
5.66865
5.66859
5.66853
5.66855
5.66878
5.66884
5.6688
5.66873
5.66872
5.66878
5.66883
5.6688
5.66913
5.66908
5.66883
5.66853
5.66849
5.66878
5.66906
5.66915
5.6694
5.66924
5.66892
5.66868
5.66866
5.66887
5.66922
5.66942
5.66965
5.66945
5.66915
5.66894
5.66892
5.66912
5.66944
5.66966
5.66988
5.66974
5.66951
5.66935
5.66934
5.6695
5.66974
5.66989
5.67009
5.67007
5.66998
5.6699
5.6699
5.66999
5.67008
5.67011
5.67028
5.67037
5.67046
5.67048
5.67048
5.67046
5.67039
5.67031
5.27647
5.27646
5.2765
5.27654
5.27653
5.27649
5.27644
5.27649
5.27672
5.27678
5.27672
5.27665
5.27664
5.2767
5.27676
5.27675
5.27709
5.27704
5.27678
5.27648
5.27644
5.27672
5.27701
5.27711
5.2774
5.27724
5.27691
5.27664
5.2766
5.27684
5.2772
5.2774
5.27768
5.2775
5.27719
5.27697
5.27695
5.27715
5.27746
5.27768
5.27794
5.27781
5.27761
5.27745
5.27744
5.27758
5.2778
5.27794
5.27817
5.27816
5.2781
5.27803
5.27803
5.27809
5.27816
5.27818
5.27836
5.27846
5.27855
5.27858
5.27859
5.27857
5.27848
5.27839
4.88531
4.88528
4.88532
4.88534
4.88533
4.8853
4.88527
4.88534
4.88554
4.88558
4.88552
4.88544
4.88543
4.88549
4.88557
4.88558
4.88589
4.88583
4.88556
4.88527
4.88523
4.8855
4.8858
4.88592
4.88619
4.88603
4.88569
4.88539
4.88534
4.88561
4.886
4.88621
4.88645
4.88628
4.88598
4.88575
4.88572
4.88593
4.88626
4.88648
4.88669
4.88659
4.88639
4.88625
4.88624
4.88637
4.88658
4.88673
4.88691
4.88691
4.88686
4.88681
4.88681
4.88687
4.88694
4.88697
4.8871
4.88719
4.88729
4.88732
4.88733
4.88732
4.88725
4.88718
4.49487
4.49485
4.49491
4.49495
4.49496
4.49495
4.49494
4.49501
4.49508
4.49513
4.49509
4.49503
4.49503
4.49511
4.4952
4.49524
4.4954
4.49535
4.49512
4.49486
4.49483
4.49509
4.4954
4.49555
4.49567
4.49555
4.49523
4.49491
4.49487
4.49517
4.49558
4.49581
4.49591
4.49577
4.49549
4.49526
4.49525
4.49548
4.49581
4.49604
4.49613
4.49605
4.49588
4.49575
4.49575
4.4959
4.49611
4.49627
4.49633
4.49635
4.49631
4.49627
4.49629
4.49636
4.49644
4.49648
4.49651
4.4966
4.49669
4.49673
4.49676
4.49677
4.49673
4.49668
4.1051
4.10509
4.10516
4.10522
4.10525
4.10525
4.10526
4.10535
4.10528
4.10533
4.10532
4.10528
4.1053
4.10539
4.10549
4.10555
4.10555
4.10552
4.10533
4.10511
4.1051
4.10536
4.10566
4.10583
4.10578
4.10568
4.10541
4.1051
4.10507
4.10541
4.10582
4.10605
4.10598
4.10588
4.10563
4.10542
4.10542
4.10567
4.10602
4.10626
4.10617
4.10612
4.10598
4.10587
4.10589
4.10605
4.10628
4.10645
4.10635
4.10638
4.10637
4.10635
4.10638
4.10647
4.10657
4.10663
4.10653
4.10661
4.1067
4.10676
4.1068
4.10684
4.10684
4.10681
3.71584
3.71584
3.71594
3.71602
3.71607
3.7161
3.71612
3.71622
3.71599
3.71606
3.71608
3.71608
3.71613
3.71622
3.71633
3.7164
3.71622
3.71622
3.71609
3.71593
3.71595
3.71619
3.71648
3.71664
3.71641
3.71636
3.71614
3.71589
3.71588
3.71622
3.71661
3.71684
3.71659
3.71652
3.71633
3.71616
3.71618
3.71645
3.71678
3.71701
3.71675
3.71673
3.71663
3.71656
3.7166
3.71678
3.71701
3.71717
3.71691
3.71697
3.71697
3.71697
3.71703
3.71714
3.71725
3.71732
3.71709
3.71716
3.71726
3.71733
3.7174
3.71746
3.71749
3.71748
3.32707
3.32707
3.32717
3.32726
3.32732
3.32735
3.32737
3.32748
3.32719
3.32725
3.3273
3.32733
3.32739
3.32747
3.32757
3.32764
3.32737
3.32739
3.32732
3.32723
3.32726
3.32747
3.32771
3.32785
3.32753
3.32751
3.32737
3.32718
3.3272
3.3275
3.32783
3.32802
3.32767
3.32764
3.32752
3.3274
3.32744
3.32768
3.32797
3.32816
3.32781
3.32782
3.32776
3.32772
3.32778
3.32795
3.32815
3.32829
3.32796
3.32802
3.32804
3.32806
3.32813
3.32824
3.32835
3.32841
3.32813
3.3282
3.32829
3.32836
3.32844
3.32851
3.32855
3.32857
2.93869
2.93867
2.93876
2.93884
2.9389
2.93892
2.93895
2.93905
2.93878
2.93884
2.93891
2.93896
2.93902
2.93908
2.93913
2.93919
2.93894
2.93898
2.93897
2.93895
2.939
2.93914
2.93929
2.93937
2.93907
2.93909
2.93904
2.93896
2.939
2.9392
2.93941
2.93952
2.9392
2.93921
2.93916
2.93911
2.93917
2.93934
2.93953
2.93965
2.93933
2.93936
2.93935
2.93934
2.93941
2.93953
2.93967
2.93976
2.93947
2.93952
2.93956
2.93959
2.93965
2.93974
2.93983
2.93986
2.93964
2.93968
2.93976
2.93982
2.93989
2.93995
2.94
2.94001
2.55068
2.55063
2.55068
2.55073
2.55077
2.55079
2.55082
2.55092
2.55075
2.55079
2.55086
2.55093
2.55097
2.55099
2.551
2.55103
2.55088
2.55094
2.55101
2.55107
2.55111
2.55115
2.55117
2.55118
2.551
2.55106
2.55112
2.55116
2.55121
2.55128
2.55131
2.55132
2.55111
2.55118
2.55123
2.55127
2.55132
2.55139
2.55142
2.55143
2.55124
2.55129
2.55134
2.55138
2.55143
2.55149
2.55153
2.55154
2.55138
2.55143
2.55147
2.55151
2.55156
2.55161
2.55164
2.55165
2.55155
2.55157
2.55162
2.55166
2.55171
2.55176
2.55179
2.55181
2.16297
2.1629
2.1629
2.16293
2.16295
2.16298
2.16302
2.16314
2.16301
2.16302
2.16309
2.16316
2.1632
2.16319
2.16317
2.16321
2.16309
2.16317
2.16331
2.16346
2.16351
2.16344
2.16334
2.16331
2.16318
2.16329
2.16347
2.16365
2.16373
2.16363
2.16348
2.16341
2.16328
2.16339
2.16356
2.1637
2.16377
2.16371
2.16358
2.16351
2.16339
2.16347
2.16359
2.16369
2.16373
2.16371
2.16365
2.16361
2.16353
2.16357
2.16362
2.16368
2.16371
2.16373
2.16373
2.16372
2.16369
2.16369
2.1637
2.16373
2.16376
2.16381
2.16385
2.16388
1.7752
1.7751
1.77507
1.77507
1.7751
1.77515
1.77522
1.77535
1.77517
1.77513
1.77518
1.77526
1.77529
1.77528
1.77528
1.77535
1.77514
1.7752
1.77538
1.77559
1.77566
1.77553
1.77538
1.77536
1.77515
1.77527
1.77553
1.77584
1.77595
1.77573
1.77547
1.77538
1.7752
1.77532
1.77556
1.7758
1.77589
1.77574
1.77553
1.77543
1.77527
1.77536
1.77551
1.77565
1.7757
1.77565
1.77554
1.77549
1.7754
1.77541
1.77546
1.77552
1.77555
1.77557
1.77557
1.77558
1.77555
1.7755
1.77547
1.77547
1.77551
1.77557
1.77566
1.77572
1.38579
1.38571
1.38568
1.38569
1.38573
1.38579
1.38587
1.386
1.38563
1.38556
1.3856
1.38568
1.38573
1.38575
1.38578
1.38588
1.38544
1.38544
1.38561
1.38585
1.38594
1.38583
1.38572
1.38575
1.38528
1.38534
1.3856
1.38596
1.38611
1.38588
1.38566
1.38563
1.38519
1.38526
1.38548
1.38575
1.38587
1.38574
1.38558
1.38554
1.38517
1.38518
1.38531
1.38545
1.38552
1.38552
1.38547
1.38548
1.38521
1.38516
1.38516
1.3852
1.38526
1.38533
1.3854
1.38547
1.3853
1.3852
1.38511
1.38509
1.38514
1.38525
1.3854
1.38553
0.992311
0.992256
0.992215
0.992196
0.992185
0.99218
0.992174
0.992211
0.992168
0.992065
0.992045
0.992071
0.992078
0.992068
0.992062
0.992108
0.991958
0.991877
0.991939
0.992081
0.992127
0.992026
0.99194
0.991943
0.991772
0.991712
0.991823
0.992066
0.992167
0.99197
0.991814
0.991786
0.991644
0.991584
0.991663
0.991819
0.99189
0.991799
0.991693
0.991659
0.991585
0.991492
0.991492
0.991537
0.991573
0.991582
0.991567
0.991567
0.991595
0.991467
0.991377
0.991347
0.991364
0.991419
0.991482
0.991528
0.991669
0.991527
0.991366
0.99128
0.991279
0.991356
0.991475
0.991578
0.595179
0.595343
0.595472
0.595574
0.595612
0.595571
0.595456
0.595365
0.594915
0.595019
0.595166
0.595316
0.595403
0.595403
0.595319
0.595195
0.594547
0.594595
0.594745
0.594949
0.59508
0.59509
0.595037
0.594928
0.594144
0.594129
0.594246
0.594474
0.594627
0.59467
0.59465
0.59459
0.593775
0.593693
0.593738
0.593888
0.594042
0.594158
0.59422
0.594226
0.593487
0.593338
0.593294
0.593356
0.593489
0.593657
0.593799
0.59388
0.593301
0.593128
0.593006
0.593
0.5931
0.593272
0.59346
0.593603
0.59315
0.593066
0.592908
0.592845
0.592898
0.593046
0.593231
0.593379
0.196252
0.196061
0.195796
0.195524
0.195222
0.19491
0.194635
0.19444
0.196954
0.19681
0.196604
0.196348
0.196027
0.195662
0.195299
0.194956
0.19767
0.197567
0.197392
0.197145
0.196796
0.196381
0.195956
0.195516
0.198324
0.198256
0.198105
0.19786
0.197481
0.197059
0.196588
0.196089
0.198906
0.198863
0.198723
0.198469
0.198103
0.197676
0.197188
0.196659
0.199399
0.199372
0.199242
0.198987
0.198641
0.198227
0.197742
0.197211
0.199794
0.199788
0.199662
0.199423
0.199098
0.198704
0.198242
0.197739
0.200011
0.200103
0.199986
0.199751
0.19944
0.199069
0.198627
0.198119
21.1986
21.2336
21.2731
21.3127
21.3519
21.3909
21.4308
21.4688
21.1591
21.1978
21.2403
21.2851
21.3309
21.3769
21.4238
21.4679
21.1347
21.1765
21.2208
21.2683
21.3175
21.3673
21.4184
21.4663
21.1217
21.1645
21.2095
21.2583
21.3093
21.3612
21.4145
21.4645
21.1217
21.1646
21.2096
21.2583
21.3093
21.3613
21.4146
21.4646
21.1349
21.1766
21.221
21.2685
21.3177
21.3675
21.4186
21.4666
21.1594
21.1981
21.2406
21.2854
21.3312
21.3772
21.4242
21.4683
21.1989
21.2339
21.2733
21.313
21.3522
21.3912
21.4311
21.4691
19.8474
19.8363
19.8248
19.8139
19.8047
19.7979
19.7925
19.7867
19.8724
19.8566
19.8417
19.8279
19.8162
19.8075
19.801
19.7943
19.8876
19.8687
19.8523
19.8369
19.8234
19.8133
19.8057
19.7984
19.8959
19.8757
19.8585
19.8423
19.8279
19.8169
19.8088
19.8011
19.8961
19.8759
19.8587
19.8425
19.8282
19.8172
19.8091
19.8014
19.8882
19.8692
19.8528
19.8374
19.824
19.814
19.8066
19.7994
19.8736
19.8576
19.8427
19.829
19.8175
19.8089
19.8025
19.7961
19.8478
19.8366
19.8253
19.8147
19.8058
19.7992
19.7941
19.7885
19.7379
19.7411
19.7425
19.7435
19.7438
19.7434
19.742
19.7401
19.7331
19.7376
19.74
19.7417
19.7426
19.7425
19.7411
19.7391
19.7299
19.7353
19.7383
19.7404
19.7417
19.7417
19.7403
19.7382
19.7283
19.7341
19.7374
19.7398
19.7413
19.7414
19.7401
19.7379
19.7288
19.7346
19.7381
19.7405
19.7421
19.7423
19.741
19.7389
19.7313
19.7368
19.7401
19.7424
19.7439
19.7441
19.743
19.7411
19.7354
19.7402
19.7429
19.745
19.7462
19.7465
19.7455
19.7439
19.7402
19.7437
19.7458
19.7474
19.7483
19.7484
19.7475
19.7462
19.1435
19.1407
19.137
19.134
19.1315
19.1293
19.1272
19.1252
19.1452
19.1425
19.1395
19.1368
19.1344
19.1322
19.13
19.128
19.1467
19.1439
19.1413
19.139
19.1367
19.1345
19.1323
19.1301
19.1482
19.1456
19.1432
19.1409
19.1387
19.1365
19.1342
19.132
19.1491
19.1466
19.1442
19.142
19.1399
19.1378
19.1356
19.1335
19.1493
19.1467
19.1444
19.1422
19.1402
19.1382
19.1363
19.1344
19.1493
19.1469
19.1443
19.142
19.14
19.1382
19.1364
19.1348
19.1477
19.1454
19.1426
19.1404
19.1385
19.1369
19.1354
19.1339
18.6794
18.6782
18.6758
18.6737
18.6719
18.6701
18.6682
18.6662
18.6792
18.6782
18.6765
18.6748
18.6733
18.6717
18.6698
18.6678
18.6806
18.6795
18.678
18.6766
18.6751
18.6736
18.6717
18.6697
18.6813
18.6802
18.679
18.6778
18.6764
18.675
18.6732
18.6711
18.6822
18.6812
18.6801
18.679
18.6777
18.6763
18.6746
18.6726
18.6831
18.6822
18.681
18.6798
18.6786
18.6772
18.6756
18.6738
18.6836
18.6828
18.6815
18.6803
18.6791
18.6778
18.6763
18.6747
18.6837
18.6827
18.6811
18.6797
18.6786
18.6774
18.6759
18.6744
18.2186
18.2183
18.217
18.2159
18.215
18.2142
18.2135
18.2128
18.2181
18.2173
18.2163
18.2154
18.2148
18.2143
18.2138
18.2132
18.22
18.2192
18.2182
18.2175
18.2169
18.2164
18.2159
18.2154
18.2211
18.2201
18.2193
18.2186
18.2181
18.2177
18.2172
18.2168
18.2219
18.221
18.2203
18.2197
18.2193
18.2189
18.2185
18.2181
18.2224
18.2215
18.2209
18.2204
18.22
18.2197
18.2193
18.2189
18.2227
18.222
18.2213
18.2209
18.2205
18.2202
18.2199
18.2196
18.2218
18.2212
18.2207
18.2203
18.22
18.2198
18.2196
18.2193
17.7834
17.7842
17.7841
17.7839
17.7837
17.7836
17.7836
17.7838
17.7816
17.7816
17.7815
17.7815
17.7817
17.7819
17.7822
17.7825
17.7829
17.7831
17.783
17.7831
17.7832
17.7835
17.7838
17.7841
17.7833
17.7834
17.7834
17.7835
17.7837
17.784
17.7844
17.7848
17.7838
17.7839
17.7841
17.7843
17.7846
17.7849
17.7853
17.7857
17.7842
17.7843
17.7845
17.7848
17.7852
17.7856
17.786
17.7864
17.785
17.7851
17.7853
17.7856
17.786
17.7864
17.7868
17.7872
17.784
17.7842
17.7847
17.7852
17.7857
17.7862
17.7867
17.7871
17.3508
17.3518
17.3521
17.3522
17.3522
17.3523
17.3525
17.3528
17.3485
17.3488
17.349
17.3492
17.3495
17.3498
17.3503