/*--------------------------------*- C++ -*----------------------------------*\
| =========                 |                                                 |
| \\      /  F ield         | OpenFOAM: The Open Source CFD Toolbox           |
|  \\    /   O peration     | Version:  2406                                  |
|   \\  /    A nd           | Website:  www.openfoam.com                      |
|    \\/     M anipulation  |                                                 |
\*---------------------------------------------------------------------------*/
FoamFile
{
    version     2.0;
    format      ascii;
    arch        "LSB;label=32;scalar=64";
    class       surfaceScalarField;
    location    "0.2";
    object      phi;
}
// * * * * * * * * * * * * * * * * * * * * * * * * * * * * * * * * * * * * * //

dimensions      [0 3 -1 0 0 0 0];

oriented        oriented;

internalField   nonuniform List<scalar> 
46880
(
4.36436e-05
4.36664e-05
9.64379e-05
-5.43782e-05
-5.43795e-05
2.9828e-05
4.15835e-05
0.000108563
-5.41797e-05
1.5332e-05
3.92872e-05
0.000115471
-5.32416e-05
9.2207e-07
3.78275e-05
0.00011857
-5.25044e-05
-1.36303e-05
3.78897e-05
0.00011869
-5.25441e-05
-2.84762e-05
3.94459e-05
0.000115783
-5.33633e-05
-4.27076e-05
4.17979e-05
0.00010895
-5.43655e-05
4.39087e-05
9.67872e-05
-5.38059e-05
-5.46075e-05
4.15659e-05
2.98677e-05
0.00010857
-5.41857e-05
2.68121e-05
2.68499e-05
0.000118174
1.32913e-05
2.40807e-05
0.00012186
1.19693e-06
2.24507e-05
0.000122855
-1.10968e-05
2.25132e-05
0.000123054
-2.51127e-05
2.42304e-05
0.000122365
-4.04357e-05
2.70381e-05
0.000118769
3.00762e-05
0.000109109
-5.35605e-05
3.92855e-05
1.53711e-05
0.000115485
-5.32538e-05
2.40699e-05
1.33319e-05
0.000121867
1.15749e-05
1.15804e-05
0.000122291
1.45211e-06
1.05883e-05
0.000121389
-8.92053e-06
1.06182e-05
0.000121671
-2.20532e-05
1.16485e-05
0.000123011
-3.8011e-05
1.3432e-05
0.000122697
1.54979e-05
0.000116184
-5.25966e-05
3.78371e-05
9.46037e-07
0.000118589
-5.25182e-05
2.24607e-05
1.22612e-06
0.000122866
1.06087e-05
1.45108e-06
0.000121385
1.58986e-06
1.56716e-06
0.00011948
-7.70819e-06
1.55431e-06
0.000119802
-2.03007e-05
1.41711e-06
0.000122228
-3.65159e-05
1.18806e-06
0.000123843
9.37555e-07
0.000119387
-5.18596e-05
3.78957e-05
-1.36336e-05
0.000118718
-5.25508e-05
2.25192e-05
-1.10927e-05
0.000123079
1.06294e-05
-8.92853e-06
0.000121673
1.56042e-06
-7.71925e-06
0.000119795
-7.78632e-06
-7.77042e-06
0.000120111
-2.04088e-05
-9.05457e-06
0.000122498
-3.66203e-05
-1.12489e-05
0.000124032
-1.3767e-05
0.000119496
-5.19284e-05
3.94328e-05
-2.85157e-05
0.00011582
-5.33509e-05
2.42098e-05
-2.51499e-05
0.000122413
1.16171e-05
-2.20832e-05
0.000123043
1.36674e-06
-2.03085e-05
0.000122244
-9.1324e-06
-2.03744e-05
0.000122507
-2.23492e-05
-2.22522e-05
0.00012371
-3.82943e-05
-2.53486e-05
0.000123178
-2.8705e-05
0.000116463
-5.2799e-05
4.17559e-05
-4.27876e-05
0.000108992
-5.43249e-05
2.69815e-05
-4.05209e-05
0.000118832
1.33438e-05
-3.80757e-05
0.000122763
1.06383e-06
-3.65411e-05
0.000123897
-1.14021e-05
-3.65918e-05
0.000124067
-2.55112e-05
-3.82039e-05
0.000123194
-4.08278e-05
-4.0683e-05
0.000119337
-4.29666e-05
0.000109447
-5.38622e-05
4.38446e-05
9.68204e-05
-5.39268e-05
-5.45356e-05
2.99815e-05
0.000109156
-5.36622e-05
1.53516e-05
0.000116245
-5.26702e-05
7.42085e-07
0.000119445
-5.18931e-05
-1.39868e-05
0.000119535
-5.19147e-05
-2.89163e-05
0.000116481
-5.27353e-05
-4.31418e-05
0.000109451
-5.37574e-05
9.70854e-05
-5.41629e-05
-5.40408e-05
3.66964e-07
-2.34321e-07
0.000101961
-3.03633e-06
-2.61967e-06
-7.85372e-07
-3.40862e-06
0.00011404
-9.16153e-07
3.22756e-07
-6.28603e-06
0.000119954
6.94712e-07
3.11064e-06
-7.88047e-06
0.000122121
1.54192e-06
5.51947e-06
-7.68168e-06
0.00012255
1.41318e-06
5.66985e-06
-5.77152e-06
0.00012109
3.14472e-07
3.25134e-06
-2.69212e-06
0.000115544
-1.48249e-06
4.96092e-07
0.000103467
-7.14843e-07
-3.2094e-06
-2.71287e-06
-1.58141e-06
0.000113975
-1.34482e-06
-4.32022e-06
-5.30577e-06
0.000121678
-1.79805e-06
-8.5399e-06
0.000121592
3.59478e-06
-1.02138e-05
0.000119796
8.57835e-06
-1.0034e-05
0.000120423
9.96327e-06
-8.03728e-06
0.000123245
6.8495e-06
-4.61324e-06
0.000123804
-8.5688e-07
0.000116068
1.24349e-06
-5.58891e-06
-5.82968e-07
0.000119774
3.02083e-07
-7.4638e-06
-2.97923e-06
0.000121415
-3.65404e-06
-4.99865e-06
0.00011494
3.9093e-06
-5.94178e-06
0.000109554
1.10334e-05
-5.83474e-06
0.000110348
1.35876e-05
-4.66887e-06
0.000117088
1.00054e-05
-2.51217e-06
0.000124178
-7.26441e-08
0.000122392
3.01375e-06
-7.26388e-06
2.23187e-06
0.000121805
1.23357e-06
-9.20635e-06
2.45502e-06
0.000119374
-4.62146e-06
2.56979e-06
0.000109232
4.01257e-06
2.64179e-06
0.000102262
1.22428e-05
2.67602e-06
0.000103061
1.55415e-05
2.6566e-06
0.000111604
1.18071e-05
2.56943e-06
0.000122496
2.3745e-06
0.000124742
4.00505e-06
-7.22626e-06
4.81286e-06
0.000122157
1.20581e-06
-9.20591e-06
7.67996e-06
0.000119834
-4.65538e-06
9.95655e-06
0.000109736
3.98412e-06
1.10752e-05
0.000102722
1.22135e-05
1.10374e-05
0.000103521
1.54769e-05
9.81316e-06
0.000112078
1.17093e-05
7.46323e-06
0.000122906
4.59623e-06
0.000125051
3.93218e-06
-5.47407e-06
5.16948e-06
0.000120733
2.04426e-07
-7.42325e-06
9.35772e-06
0.000122685
-3.70963e-06
1.28816e-05
0.000116405
3.80386e-06
1.47621e-05
0.000111043
1.0878e-05
1.4665e-05
0.000111805
1.33487e-05
1.26048e-05
0.000118448
9.71687e-06
8.96806e-06
0.000125305
4.75929e-06
0.000123227
2.7898e-06
-2.52164e-06
2.9111e-06
0.000115285
-1.51238e-06
-4.22036e-06
6.45647e-06
0.000123431
-1.8571e-06
9.59293e-06
0.000123689
3.38517e-06
1.13882e-05
0.000122028
8.23285e-06
1.1287e-05
0.000122598
9.50708e-06
9.33957e-06
0.000125185
6.36584e-06
6.09227e-06
0.000125354
2.51078e-06
0.000117195
8.66394e-07
5.64375e-07
0.000103307
-9.47616e-07
-3.19244e-06
-6.72073e-07
0.00011584
1.00852e-06
2.34758e-07
0.000122138
2.79279e-06
2.77608e-06
0.00012449
3.80112e-06
4.98411e-06
0.000124856
3.75783e-06
5.04015e-06
0.000123113
2.65191e-06
2.66626e-06
0.000117149
7.68978e-07
0.000104624
-1.14811e-06
-1.21321e-06
6.31398e-06
4.33067e-06
0.000102224
-6.07115e-06
-4.8362e-06
5.87101e-06
5.16254e-06
0.000115119
-5.79826e-06
5.24294e-06
5.87355e-06
0.000121229
-6.52058e-06
4.4653e-06
6.40345e-06
0.00012354
-7.04541e-06
3.22626e-06
6.72506e-06
0.000124323
-7.25938e-06
1.33091e-06
6.71572e-06
0.000123365
-7.0957e-06
-8.32918e-07
6.26056e-06
0.000118067
-6.61984e-06
5.44498e-06
0.000105342
-2.61212e-06
-5.54136e-06
6.89485e-06
3.36407e-06
0.000114908
-6.86204e-06
6.1642e-06
3.86833e-06
0.000123703
5.42496e-06
4.33133e-06
0.000123873
4.80375e-06
4.78951e-06
0.000122031
3.72955e-06
5.15203e-06
0.00012307
1.69949e-06
5.26365e-06
0.000126728
-9.05929e-07
5.03385e-06
0.000127636
4.5534e-06
0.000119043
-2.98955e-06
7.01345e-06
2.59777e-06
0.000120675
-7.14885e-06
5.94134e-06
2.97113e-06
0.000123384
5.18276e-06
3.46653e-06
0.000116564
4.79448e-06
3.98316e-06
0.000110748
4.02622e-06
4.2631e-06
0.000112005
2.1148e-06
4.1913e-06
0.000120072
-8.19585e-07
3.89159e-06
0.000128255
3.56088e-06
0.000125705
-3.14049e-06
6.76213e-06
2.22576e-06
0.000122602
-7.1874e-06
5.42323e-06
2.79588e-06
0.000120888
4.73197e-06
3.46908e-06
0.000109921
4.62333e-06
4.01004e-06
0.000102344
4.22733e-06
4.11998e-06
0.0001036
2.52987e-06
3.76943e-06
0.000113723
-5.68685e-07
3.20224e-06
0.000126284
2.64099e-06
0.000128197
-3.10374e-06
6.47612e-06
1.76406e-06
0.000123147
-7.00366e-06
5.09972e-06
2.56892e-06
0.000121437
4.50882e-06
3.39842e-06
0.000110398
4.61663e-06
3.91837e-06
0.000102706
4.43094e-06
3.85385e-06
0.000103973
2.84825e-06
3.23953e-06
0.000114191
-2.83905e-07
2.43225e-06
0.000126808
1.60846e-06
0.000128719
-2.91885e-06
6.25803e-06
6.69839e-07
0.000122222
-6.65281e-06
5.08823e-06
1.36236e-06
0.000125061
4.58355e-06
2.15068e-06
0.000118157
4.76814e-06
2.58909e-06
0.000112188
4.56859e-06
2.42516e-06
0.000113433
2.91775e-06
1.72616e-06
0.000121612
-8.12184e-08
8.94172e-07
0.000129842
2.39872e-07
0.000127173
-2.6589e-06
5.92066e-06
-9.27629e-07
0.000117155
-6.19386e-06
5.09308e-06
-7.45767e-07
0.000126367
4.66124e-06
-4.46736e-07
0.000126718
4.70438e-06
-2.76022e-07
0.00012485
4.30011e-06
-4.25219e-07
0.000125852
2.60009e-06
-8.44285e-07
0.000129455
-4.21622e-08
-1.25869e-06
0.000130149
-1.41176e-06
0.00012116
-2.35533e-06
5.31142e-06
0.000104755
-2.42864e-06
-5.25814e-06
4.85278e-06
0.000118194
-2.64106e-06
4.52133e-06
0.000124746
-2.72324e-06
4.24423e-06
0.000127286
-2.79455e-06
3.54364e-06
0.000128026
-2.8944e-06
2.03327e-06
0.000126779
-3.00055e-06
-5.19561e-08
0.000121013
-3.0376e-06
0.000107747
-1.86087e-06
-2.72591e-06
1.19927e-05
9.56493e-06
9.79114e-05
-9.3685e-06
-7.87653e-06
1.20121e-05
1.29433e-05
0.000112309
-1.01531e-05
9.39869e-06
1.61856e-05
0.000119889
-1.22321e-05
4.90483e-06
1.83018e-05
0.000123307
-1.35745e-05
-1.55574e-07
1.89042e-05
0.000124424
-1.39446e-05
-4.29241e-06
1.77206e-05
0.000122984
-1.32022e-05
-6.32835e-06
1.49561e-05
0.000116671
-1.15242e-05
1.15763e-05
0.000102612
-6.01125e-06
-9.16332e-06
1.4482e-05
9.07701e-06
0.000112054
-1.11398e-05
1.46238e-05
1.28969e-05
0.000123607
1.09693e-05
1.64799e-05
0.000127234
4.79483e-06
1.87363e-05
0.000127771
-1.88006e-06
1.94029e-05
0.000129246
-6.94572e-06
1.81424e-05
0.000131371
-8.80159e-06
1.50027e-05
0.000129445
1.11731e-05
0.000118287
-7.64241e-06
1.62581e-05
6.56315e-06
0.000119218
-1.22873e-05
1.62509e-05
9.6127e-06
0.000126676
1.16384e-05
1.25524e-05
0.000125104
4.21074e-06
1.4376e-05
0.000122536
-3.54389e-06
1.48785e-05
0.000124284
-9.21957e-06
1.37946e-05
0.000130095
-1.09156e-05
1.11754e-05
0.000133778
8.12252e-06
0.00012678
-8.94046e-06
1.68503e-05
2.84656e-06
0.000122176
-1.27072e-05
1.65429e-05
4.33602e-06
0.000126473
1.14289e-05
5.97131e-06
0.000121616
3.60109e-06
7.02294e-06
0.000117525
-4.39707e-06
7.16924e-06
0.000119308
-1.02316e-05
6.32276e-06
0.000127029
-1.18987e-05
4.79182e-06
0.000134334
3.31394e-06
0.000130567
-9.46019e-06
1.65225e-05
-1.05639e-06
0.00012298
-1.24526e-05
1.62093e-05
-1.26393e-06
0.00012735
1.12334e-05
-1.12326e-06
0.000122468
3.62451e-06
-9.43659e-07
0.000118282
-4.16172e-06
-1.20316e-06
0.000120131
-9.85562e-06
-1.74478e-06
0.000127952
-1.1533e-05
-1.98963e-06
0.000135267
-1.74601e-06
0.00013142
-9.17463e-06
1.53372e-05
-4.13075e-06
0.000121529
-1.15691e-05
1.53181e-05
-5.53845e-06
0.000129355
1.10956e-05
-6.60249e-06
0.000127859
4.29148e-06
-7.21276e-06
0.000125261
-2.84908e-06
-7.70381e-06
0.000127075
-8.14883e-06
-7.79335e-06
0.000132961
-9.87665e-06
-6.97268e-06
0.000136553
-5.51616e-06
0.000129196
-8.12935e-06
1.32429e-05
-5.54268e-06
0.000115493
-1.01688e-05
1.34224e-05
-7.16137e-06
0.000127811
1.02833e-05
-8.63949e-06
0.000131894
4.92154e-06
-9.6233e-06
0.000132622
-9.5064e-07
-1.01119e-05
0.000134133
-5.52259e-06
-9.85795e-06
0.000136092
-7.35467e-06
-8.68138e-06
0.00013369
-7.03932e-06
0.000121843
-6.51442e-06
1.07423e-05
0.000101869
-5.09733e-06
-8.30191e-06
1.0853e-05
0.000117197
-6.27442e-06
8.75527e-06
0.000125529
-7.32474e-06
5.02082e-06
0.000129403
-8.00568e-06
7.10496e-07
0.000130547
-8.32288e-06
-2.93437e-06
0.000128699
-8.13277e-06
-4.87611e-06
0.000121658
-7.38452e-06
0.000106692
-4.74871e-06
-6.11176e-06
9.86638e-06
9.52131e-06
9.35064e-05
-7.59826e-06
-7.3845e-06
1.02004e-05
1.24934e-05
0.000108766
-9.28402e-06
8.37791e-06
1.50887e-05
0.000117548
-1.09257e-05
4.91239e-06
1.69765e-05
0.000121945
-1.21492e-05
7.73764e-07
1.77747e-05
0.000123442
-1.26544e-05
-2.80431e-06
1.7186e-05
0.000121691
-1.23147e-05
-4.73553e-06
1.52876e-05
0.000114582
-1.12676e-05
1.23527e-05
9.96632e-05
-4.78484e-06
-9.35436e-06
1.17291e-05
9.98954e-06
0.00010876
-8.90329e-06
1.21012e-05
1.35012e-05
0.000122228
9.38115e-06
1.6615e-05
0.000128427
4.42454e-06
1.86577e-05
0.000131046
-1.18061e-06
1.9527e-05
0.000133099
-5.53616e-06
1.87756e-05
0.000134137
-7.21376e-06
1.62721e-05
0.000130138
1.27468e-05
0.000117049
-6.37025e-06
1.29141e-05
8.56937e-06
0.000117456
-9.73174e-06
1.31915e-05
1.15981e-05
0.000128301
9.58874e-06
1.42363e-05
0.000131085
3.4052e-06
1.58015e-05
0.000131576
-3.20692e-06
1.64236e-05
0.000134
-8.05886e-06
1.56928e-05
0.00013803
-9.40376e-06
1.33959e-05
0.000137999
1.02916e-05
0.000127616
-7.78441e-06
1.35878e-05
5.66565e-06
0.000121706
-1.0215e-05
1.36199e-05
7.33929e-06
0.000130699
9.41547e-06
8.7657e-06
0.000131291
2.48069e-06
9.40521e-06
0.000130856
-4.61154e-06
9.54995e-06
0.000133273
-9.69435e-06
8.89649e-06
0.000138908
-1.08359e-05
7.35722e-06
0.000141515
5.63631e-06
0.000133015
-8.628e-06
1.38196e-05
2.07601e-06
0.000123063
-1.0313e-05
1.39133e-05
2.08348e-06
0.000132513
9.6301e-06
2.12221e-06
0.000133395
2.51562e-06
1.89534e-06
0.000132906
-4.82289e-06
1.40818e-06
0.000135611
-9.96033e-06
7.9872e-07
0.000141187
-1.1028e-05
2.65019e-07
0.000143427
2.63108e-07
0.000134468
-8.70281e-06
1.35589e-05
-1.1717e-06
0.000121263
-1.00453e-05
1.39136e-05
-2.36218e-06
0.000133446
1.01243e-05
-3.46148e-06
0.000137232
3.4679e-06
-4.45449e-06
0.000138267
-3.6196e-06
-5.2965e-06
0.000140867
-8.61753e-06
-5.65067e-06
0.000144408
-9.86074e-06
-5.24179e-06
0.000143303
-4.08194e-06
0.000131659
-7.97876e-06
1.26071e-05
-3.11485e-06
0.000114251
-9.42184e-06
1.30564e-05
-4.56328e-06
0.000129562
1.01407e-05
-5.96664e-06
0.000137315
4.61731e-06
-7.20805e-06
0.000140899
-1.53326e-06
-8.04257e-06
0.000143029
-6.06942e-06
-8.17217e-06
0.000143149
-7.69422e-06
-7.49284e-06
0.000137566
-6.13067e-06
0.000122843
-6.64551e-06
1.08159e-05
9.9527e-05
-3.47421e-06
-8.11437e-06
1.12441e-05
0.000116739
-4.53397e-06
9.21521e-06
0.000127222
-5.63106e-06
5.26933e-06
0.000132654
-6.5136e-06
6.31023e-07
0.000134218
-7.07525e-06
-3.22627e-06
0.000131537
-7.1525e-06
-5.18485e-06
0.000122813
-6.68966e-06
0.000105981
-4.97973e-06
-5.6253e-06
2.71054e-06
5.93301e-06
9.02087e-05
-1.66973e-06
-3.67606e-06
3.80375e-06
6.95252e-06
0.00010497
-4.24978e-06
4.62231e-06
7.75922e-06
0.000113709
-4.7388e-06
4.88666e-06
8.58597e-06
0.000118396
-5.30166e-06
4.45303e-06
9.39682e-06
0.000120353
-5.87417e-06
3.39416e-06
9.99337e-06
0.000119087
-6.33119e-06
2.10864e-06
1.00513e-05
0.000112386
-6.56974e-06
9.15184e-06
9.78496e-05
8.05503e-07
-6.03511e-06
3.11091e-06
7.98534e-06
0.000105489
-1.89189e-06
4.12092e-06
9.29242e-06
0.000118878
4.52945e-06
1.03387e-05
0.000125439
4.16599e-06
1.11915e-05
0.000128804
3.11729e-06
1.20081e-05
0.000131537
1.76556e-06
1.2506e-05
0.000132976
6.64131e-07
1.21718e-05
0.000129119
1.09329e-05
0.000115939
-7.05247e-09
3.52498e-06
9.28993e-06
0.00011488
-2.25347e-06
4.38924e-06
1.05234e-05
0.000126206
4.22403e-06
1.13534e-05
0.000130236
3.04885e-06
1.18018e-05
0.000132141
1.34657e-06
1.23379e-05
0.000135372
-2.87476e-07
1.26504e-05
0.000139519
-1.13874e-06
1.21305e-05
0.000138892
1.08378e-05
0.000127798
-1.22529e-06
4.23596e-06
9.40772e-06
0.000120146
-2.79313e-06
4.91402e-06
1.01467e-05
0.000130398
4.14827e-06
1.03424e-05
0.000133067
2.13621e-06
1.01527e-05
0.000134517
-2.57738e-07
1.01415e-05
0.000137864
-2.22292e-06
1.01621e-05
0.000143362
-2.82769e-06
9.66703e-06
0.000144583
8.79697e-06
0.00013454
-2.31196e-06
5.29833e-06
8.28491e-06
0.000122425
-3.5374e-06
5.97104e-06
8.27343e-06
0.000133713
4.77528e-06
7.75287e-06
0.00013718
2.03163e-06
6.97622e-06
0.000138826
-1.11713e-06
6.29592e-06
0.000142606
-3.4179e-06
5.9406e-06
0.00014771
-3.92714e-06
5.67082e-06
0.000147932
5.52737e-06
0.000136863
-3.05235e-06
6.48448e-06
6.24983e-06
0.000121139
-4.3252e-06
7.28664e-06
5.66147e-06
0.000135255
5.9813e-06
4.56369e-06
0.000141726
2.89579e-06
3.30782e-06
0.000145021
-7.34003e-07
2.26937e-06
0.000148523
-3.35018e-06
1.78402e-06
0.000151181
-4.06312e-06
1.84202e-06
0.000147845
2.20362e-06
0.000134153
-3.23282e-06
7.29271e-06
4.0032e-06
0.000114156
-4.95138e-06
8.14573e-06
3.24226e-06
0.000131129
7.04445e-06
2.06329e-06
0.000140916
4.13847e-06
8.01211e-07
0.000146312
5.85321e-07
-2.24701e-07
0.000149076
-2.12551e-06
-6.8294e-07
0.000148327
-3.27025e-06
-5.87598e-07
0.00014114
-9.17022e-08
0.000124734
-2.86593e-06
7.1832e-06
9.92235e-05
1.93602e-06
-4.81252e-06
8.14707e-06
0.000117559
1.45825e-06
7.39089e-06
0.000129499
5.42905e-07
5.09778e-06
0.000136093
-3.44765e-07
2.1017e-06
0.000138057
-1.06743e-06
-5.08425e-07
0.000134887
-1.42284e-06
-1.9541e-06
0.000125039
-1.36821e-06
0.000106992
-2.0678e-06
-9.88265e-07
-2.52192e-06
3.18777e-06
8.80929e-05
2.5066e-06
-1.05666e-06
-1.02975e-06
2.32402e-06
0.000101648
-4.9409e-07
1.63713e-06
1.50092e-06
0.000109532
9.30062e-09
4.64608e-06
1.41734e-06
0.000113999
-2.87805e-08
6.98893e-06
2.29036e-06
0.000116412
-6.92399e-07
7.79561e-06
3.96369e-06
0.000116141
-1.82433e-06
6.92964e-06
5.73008e-06
0.000110632
-3.11068e-06
6.66725e-06
9.71663e-05
4.63064e-06
-3.68497e-06
-3.13301e-06
6.07642e-06
0.000102754
2.97935e-06
-1.80957e-06
5.09363e-06
0.000114785
6.8052e-07
4.01209e-06
0.000120438
3.59633e-06
3.66136e-06
0.000123644
5.90111e-06
4.52368e-06
0.000126998
6.76663e-06
6.3665e-06
0.000129708
6.12475e-06
8.21463e-06
0.000127277
9.21577e-06
0.000115232
4.28337e-06
-3.06646e-06
9.0921e-06
0.000112139
2.79157e-06
-2.06782e-06
8.08187e-06
0.000122219
-6.69147e-08
6.74838e-06
0.000125499
2.27437e-06
5.91286e-06
0.000127548
4.11782e-06
6.55072e-06
0.000131502
4.82694e-06
8.23854e-06
0.000136938
4.36332e-06
9.86331e-06
0.000137707
1.07325e-05
0.000127584
3.06038e-06
-2.12678e-06
1.129e-05
0.000118057
2.01735e-06
-1.40609e-06
1.03181e-05
0.000127441
-1.50563e-07
8.77613e-06
0.000129784
1.24727e-06
7.51176e-06
0.000131521
2.20681e-06
7.57691e-06
0.000135878
2.52633e-06
8.73503e-06
0.000142546
2.27462e-06
9.97376e-06
0.000144724
1.06832e-05
0.000135206
1.65733e-06
-3.66478e-07
1.19671e-05
0.000121418
6.95466e-07
2.49424e-07
1.10074e-05
0.000132408
8.28483e-07
9.332e-06
0.000136045
1.07048e-06
7.73455e-06
0.000138361
9.42902e-07
7.1852e-06
0.000143125
6.55166e-07
7.68209e-06
0.00014905
4.47342e-07
8.51803e-06
0.000149596
9.15904e-06
0.000138473
3.61111e-07
1.83176e-06
1.08578e-05
0.000121261
-8.44483e-07
2.52936e-06
9.95339e-06
0.000135612
2.61349e-06
8.27002e-06
0.000142704
1.89252e-06
6.57407e-06
0.000146903
7.6042e-07
5.64001e-06
0.0001512
-1.8613e-07
5.65047e-06
0.000154159
-6.11952e-07
6.21029e-06
0.000150578
6.74889e-06
0.000136431
-4.80357e-07
3.75138e-06
8.41421e-06
0.000115101
-2.25274e-06
4.56956e-06
7.70247e-06
0.000132561
4.41693e-06
6.23732e-06
0.000143102
3.20584e-06
4.77162e-06
0.000149325
1.48803e-06
3.81579e-06
0.000152618
4.06478e-08
3.59098e-06
0.000151834
-7.48188e-07
3.91216e-06
0.000144227
4.27701e-06
0.000127235
-7.77215e-07
4.71895e-06
0.000100553
5.16751e-06
-2.80139e-06
5.74593e-06
0.000119378
4.85625e-06
5.62773e-06
0.000131984
3.87034e-06
4.37244e-06
0.000139198
2.9224e-06
2.52293e-06
0.000141493
2.22931e-06
8.00159e-07
0.000138242
1.95868e-06
-2.72098e-07
0.000127956
2.0677e-06
0.000109295
-5.26755e-07
2.22809e-06
-4.72718e-06
8.96439e-07
8.71609e-05
4.14023e-06
6.22475e-07
-3.42554e-06
-1.27081e-06
9.97118e-05
1.90529e-06
-4.72569e-07
-3.2194e-06
0.000106782
3.01695e-06
3.23557e-06
-3.92044e-06
0.000110918
3.29323e-06
6.46339e-06
-2.95291e-06
0.0001136
2.53693e-06
8.02874e-06
-5.21892e-07
0.000114124
9.73741e-07
7.55993e-06
2.40699e-06
0.000109626
-9.31889e-07
4.5913e-06
9.70562e-05
5.26596e-06
-2.18721e-06
-5.85123e-06
3.43908e-06
0.000101194
4.86815e-06
-4.89413e-06
6.46345e-07
0.00011191
-2.1168e-06
-2.04522e-06
0.000116486
1.63568e-06
-3.25586e-06
0.000119227
5.07459e-06
-2.3035e-06
0.00012291
6.94142e-06
6.16845e-07
0.000126703
6.80068e-06
4.18457e-06
0.00012564
6.90896e-06
0.000114766
4.94934e-06
-6.01265e-06
6.49951e-06
0.000110344
4.7476e-06
-5.55811e-06
3.4637e-06
0.000118947
-3.34474e-06
2.83398e-07
0.000120957
-1.4699e-07
-1.45779e-06
0.000122552
2.95288e-06
-7.37979e-07
0.000126837
4.8116e-06
2.20655e-06
0.00013349
4.92315e-06
5.87089e-06
0.000135909
8.69393e-06
0.000127072
3.65032e-06
-5.0698e-06
9.16794e-06
0.000116582
3.87649e-06
-5.0234e-06
6.31793e-06
0.00012454
-3.61218e-06
3.01078e-06
0.000125645
-1.36031e-06
8.88196e-07
0.000126923
8.77955e-07
1.17066e-06
0.000131731
2.34693e-06
3.64451e-06
0.000139639
2.6574e-06
6.86167e-06
0.000143423
9.37349e-06
0.000135083
2.10066e-06
-3.07533e-06
1.05517e-05
0.000120768
2.34208e-06
-3.18328e-06
8.16496e-06
0.000130669
-2.57162e-06
5.12819e-06
0.000133316
-1.49644e-06
2.88144e-06
0.000135293
-4.06078e-07
2.65139e-06
0.000140554
3.49344e-07
4.34374e-06
0.000147596
6.39761e-07
6.76004e-06
0.000149407
8.76846e-06
0.000139082
6.35814e-07
-5.11253e-07
1.01226e-05
0.000121643
5.5847e-07
-4.81481e-07
8.3186e-06
0.000135428
-4.29354e-07
5.79689e-06
0.000141983
-4.57567e-07
3.74623e-06
0.000146066
-5.40798e-07
3.1346e-06
0.000150801
-6.16824e-07
4.03742e-06
0.000154541
-6.19242e-07
5.64992e-06
0.000151691
7.10616e-06
0.000137841
-3.66825e-07
1.81905e-06
8.13142e-06
0.000116348
-1.07486e-06
2.12581e-06
6.94819e-06
0.000133625
1.90831e-06
5.02721e-06
0.000144089
1.16409e-06
3.40652e-06
0.000150409
1.95564e-07
2.70637e-06
0.000154015
-6.04374e-07
3.05866e-06
0.000153613
-9.70291e-07
4.07489e-06
0.000146168
4.94557e-06
0.000129245
-8.19765e-07
3.21635e-06
0.000102237
5.08664e-06
-1.85592e-06
3.84911e-06
0.000121126
4.56801e-06
3.6412e-06
0.000133808
3.41131e-06
2.63723e-06
0.000141177
2.4317e-06
1.25755e-06
0.000143674
1.90496e-06
3.34349e-08
0.000140579
1.94537e-06
-6.62371e-07
0.000130324
2.40283e-06
0.000111471
-6.61559e-07
2.76882e-06
-4.94803e-06
-1.4705e-06
8.76395e-05
4.05916e-06
1.88081e-06
-4.34996e-06
-4.19319e-06
9.98792e-05
3.4277e-06
-2.3314e-06
-6.61941e-06
0.000106617
4.7661e-06
5.00244e-07
-7.65335e-06
0.000110509
5.23017e-06
3.22946e-06
-6.81066e-06
0.000113127
4.55523e-06
4.86943e-06
-4.26428e-06
0.000113771
2.97734e-06
4.95999e-06
-9.61854e-07
0.000109514
9.8314e-07
1.79239e-06
9.7198e-05
3.6032e-06
-5.77427e-07
-6.20716e-06
-2.59734e-07
0.000101399
4.79135e-06
-6.09901e-06
-3.95273e-06
0.000111562
-4.33236e-06
-7.41093e-06
0.000115511
-1.49117e-06
-9.02983e-06
0.000117763
1.517e-06
-8.21048e-06
0.000121302
3.60109e-06
-4.98273e-06
0.000125337
4.12814e-06
-6.15588e-07
0.000124766
3.06361e-06
0.000114425
3.1978e-06
-6.64304e-06
1.58433e-06
0.000110331
4.81213e-06
-7.12041e-06
-2.61938e-06
0.000118091
-5.90972e-06
-6.74411e-06
0.000119079
-3.51187e-06
-8.82954e-06
0.000119954
-6.81085e-07
-8.20376e-06
0.000123999
1.56132e-06
-4.75052e-06
0.000131015
2.43621e-06
1.02574e-07
0.000134316
4.20882e-06
0.000126305
2.05768e-06
-6.07064e-06
3.53973e-06
0.000116532
4.16505e-06
-6.98015e-06
-5.65952e-07
0.000123396
-6.44622e-06
-4.82933e-06
0.000123197
-4.75846e-06
-7.23526e-06
0.000123641
-2.51797e-06
-6.79785e-06
0.000128085
-5.34151e-07
-3.56949e-06
0.000136474
5.28897e-07
1.00564e-06
0.000141457
4.88427e-06
0.00013419
7.46794e-07
-4.48164e-06
4.93603e-06
0.000120933
2.92012e-06
-5.56304e-06
1.48948e-06
0.000129695
-5.70247e-06
-2.29514e-06
0.000130921
-4.84189e-06
-4.66358e-06
0.000131861
-3.44019e-06
-4.51985e-06
0.000136874
-2.05724e-06
-1.96138e-06
0.000144605
-1.07753e-06
1.69327e-06
0.00014774
4.85892e-06
0.000138473
-4.43102e-07
-2.26498e-06
5.23866e-06
0.000122193
1.41235e-06
-3.13978e-06
2.72511e-06
0.000135068
-3.6667e-06
-1.91543e-07
0.000140407
-3.65774e-06
-2.17881e-06
0.000143572
-3.22e-06
-2.34551e-06
0.000148188
-2.61658e-06
-6.92576e-07
0.000152669
-1.98494e-06
1.81381e-06
0.000150938
4.122e-06
0.000137808
-1.21489e-06
-1.14105e-07
4.43953e-06
0.000117272
-1.05714e-08
-5.42525e-07
2.84337e-06
0.000133935
-1.15206e-06
8.12294e-07
0.000143695
-1.7538e-06
-6.4426e-07
0.000149477
-2.19269e-06
-9.61974e-07
0.000153071
-2.37513e-06
-8.54234e-08
0.000153188
-2.15478e-06
1.48581e-06
0.000146276
2.91519e-06
0.00012983
-1.5329e-06
1.34384e-06
0.000103346
2.80193e-06
-8.15303e-07
1.34601e-06
0.000121919
2.04774e-06
8.5341e-07
0.000134194
9.18533e-07
1.75721e-09
0.000141302
8.17361e-08
-9.15317e-07
0.000143821
-1.9154e-07
-1.55888e-06
0.000140986
1.51206e-07
-1.72165e-06
0.000131074
8.98141e-07
0.000112427
-1.30471e-06
1.54246e-06
-3.99199e-06
-3.42292e-06
8.93948e-05
3.02701e-06
2.63253e-06
-4.25701e-06
-5.83552e-06
0.000102007
3.97297e-06
-3.69385e-06
-7.98401e-06
0.000108896
5.14125e-06
-2.47585e-06
-9.03942e-06
0.000112661
5.67019e-06
-9.56583e-07
-8.56888e-06
0.000114886
5.2905e-06
3.65268e-07
-6.65647e-06
0.000114959
4.14686e-06
1.06303e-06
-3.9499e-06
0.000110161
2.60508e-06
-1.40832e-06
9.74607e-05
1.04762e-06
1.16099e-06
-5.04972e-06
-3.84031e-06
0.000103286
3.58014e-06
-5.76951e-06
-7.24386e-06
0.00011369
-5.46822e-06
-1.03734e-05
0.000117599
-4.29706e-06
-1.19113e-05
0.000119463
-2.54403e-06
-1.14522e-05
0.000122432
-7.86586e-07
-8.8983e-06
0.000125821
3.34609e-07
-5.05079e-06
0.000124746
-1.50697e-06
0.000114216
6.42016e-07
-5.64881e-06
-3.71699e-06
0.000112085
3.77114e-06
-6.85995e-06
-7.75724e-06
0.000119816
-6.9472e-06
-1.15255e-05
0.000120319
-5.98336e-06
-1.33307e-05
0.000120409
-4.23803e-06
-1.29724e-05
0.000123774
-2.23514e-06
-1.0094e-05
0.000130208
-7.55831e-07
-5.54678e-06
0.000133333
-1.36149e-06
0.00012546
-5.56721e-08
-5.61524e-06
-3.06724e-06
0.000117936
3.56221e-06
-7.15995e-06
-7.1735e-06
0.000124357
-7.61723e-06
-1.10759e-05
0.000123204
-6.97903e-06
-1.30505e-05
0.000122722
-5.44206e-06
-1.2648e-05
0.000126223
-3.48949e-06
-9.71843e-06
0.000134146
-1.85866e-06
-5.16563e-06
0.000139445
-1.00696e-06
0.000132783
-8.06277e-07
-4.8735e-06
-2.09921e-06
0.000121882
2.95629e-06
-6.5686e-06
-5.62184e-06
0.000129838
-7.4112e-06
-9.06977e-06
0.000129758
-7.08848e-06
-1.09283e-05
0.000129416
-5.86706e-06
-1.0539e-05
0.000133544
-4.22263e-06
-7.94303e-06
0.000141185
-2.68855e-06
-4.0895e-06
0.00014513
-5.96267e-07
0.000136812
-1.43745e-06
-3.59875e-06
-1.14537e-06
0.000122733
2.10416e-06
-5.10498e-06
-3.71194e-06
0.000134664
-6.09346e-06
-6.26281e-06
0.000138588
-6.16119e-06
-7.71186e-06
0.000140424
-5.41495e-06
-7.47649e-06
0.00014438
-4.26723e-06
-5.59959e-06
0.000149178
-3.03099e-06
-2.8667e-06
0.000148479
-2.91387e-07
0.000136274
-1.80212e-06
-2.15364e-06
-4.93917e-07
0.000117555
1.21939e-06
-3.1876e-06
-2.10365e-06
0.000133361
-4.06262e-06
-3.7412e-06
0.000142048
-4.4415e-06
-4.709e-06
0.000146853
-4.28752e-06
-4.63304e-06
0.000150073
-3.77519e-06
-3.51653e-06
0.000150593
-2.95147e-06
-1.83392e-06
0.000144419
-1.91963e-07
0.00012869
-1.91139e-06
-9.5217e-07
0.000103504
-2.16286e-07
5.16751e-07
-1.56367e-06
0.000121467
-1.03946e-06
-2.22373e-06
0.00013299
-1.87745e-06
-2.74649e-06
0.000139512
-2.39605e-06
-3.00685e-06
0.00014184
-2.39233e-06
-2.90491e-06
0.000139243
-1.87544e-06
-2.44277e-06
0.000129841
-1.0631e-06
0.00011175
-1.66835e-06
-2.89278e-07
-2.51037e-06
-4.49873e-06
9.18846e-05
1.68082e-06
2.83849e-06
-3.41075e-06
-6.07815e-06
0.000105277
3.70839e-06
-4.13757e-06
-7.45067e-06
0.000112618
4.45513e-06
-4.47326e-06
-8.25533e-06
0.000116345
4.90667e-06
-4.24746e-06
-8.18364e-06
0.000117994
4.84928e-06
-3.45203e-06
-7.24699e-06
0.000117096
4.31441e-06
-2.37492e-06
-5.70831e-06
0.000111296
3.49637e-06
-3.95656e-06
9.78201e-05
-1.24083e-06
2.46308e-06
-3.15083e-06
-6.20243e-06
0.000106174
1.9669e-06
-4.34916e-06
-8.50725e-06
0.000117317
-5.27791e-06
-1.05578e-05
0.000121635
-5.69999e-06
-1.16535e-05
0.000123284
-5.36266e-06
-1.15617e-05
0.000125473
-4.26966e-06
-1.01929e-05
0.000127674
-2.87933e-06
-7.78211e-06
0.00012543
-5.2492e-06
0.000114221
-1.5917e-06
-3.71507e-06
-7.56254e-06
0.00011491
2.24978e-06
-5.19312e-06
-1.04301e-05
0.000123217
-6.28906e-06
-1.29314e-05
0.000123788
-6.70361e-06
-1.40881e-05
0.000123259
-6.26742e-06
-1.39798e-05
0.000125756
-4.94959e-06
-1.23215e-05
0.000131019
-3.28894e-06
-9.2456e-06
0.000133135
-6.07321e-06
0.000124798
-1.80284e-06
-4.11267e-06
-8.171e-06
0.000120217
2.44009e-06
-5.7668e-06
-1.12394e-05
0.000126821
-6.91134e-06
-1.38415e-05
0.000125259
-7.26101e-06
-1.49589e-05
0.000123943
-6.72939e-06
-1.47147e-05
0.000126427
-5.30444e-06
-1.28431e-05
0.000133243
-3.54186e-06
-9.53489e-06
0.000137971
-6.1785e-06
0.000131307
-1.96063e-06
-4.21081e-06
-7.80407e-06
0.000123249
2.47736e-06
-5.96109e-06
-1.05489e-05
0.000130898
-7.17489e-06
-1.2881e-05
0.000130011
-7.45165e-06
-1.38925e-05
0.000128626
-6.76534e-06
-1.34633e-05
0.000131606
-5.31874e-06
-1.15571e-05
0.000138452
-3.60748e-06
-8.53366e-06
0.000142417
-5.57084e-06
0.000134618
-2.02177e-06
-4.00501e-06
-6.51261e-06
0.000123109
2.33804e-06
-5.65468e-06
-8.5684e-06
0.000134333
-6.8201e-06
-1.02602e-05
0.000137133
-7.03713e-06
-1.09773e-05
0.000137725
-6.31413e-06
-1.05337e-05
0.000140727
-4.99103e-06
-8.97147e-06
0.000145269
-3.44153e-06
-6.70082e-06
0.000145097
-4.44663e-06
0.000133702
-1.99343e-06
-3.49898e-06
-4.72401e-06
0.000117193
2.07239e-06
-4.80809e-06
-6.03662e-06
0.000132138
-5.7573e-06
-7.02568e-06
0.000139763
-5.9519e-06
-7.42544e-06
0.000143495
-5.4023e-06
-7.08765e-06
0.000146077
-4.40419e-06
-6.04782e-06
0.000146671
-3.1638e-06
-4.64318e-06
0.000141121
-3.16629e-06
0.000126159
-1.91272e-06
-2.77044e-06
0.00010278
-2.80619e-06
1.57685e-06
-3.80289e-06
0.000120025
-3.56219e-06
-4.51164e-06
0.000130685
-4.01178e-06
-4.70159e-06
0.000136465
-4.18827e-06
-4.38101e-06
0.000138412
-3.98024e-06
-3.64757e-06
0.000135906
-3.44478e-06
-2.6948e-06
0.000126995
-2.74944e-06
0.000109623
-1.71857e-06
-2.01531e-06
-1.1073e-06
-4.77785e-06
9.45275e-05
5.32395e-07
2.70982e-06
-2.26611e-06
-5.50186e-06
0.000108823
3.11466e-06
-3.73987e-06
-6.05027e-06
0.000116725
3.41714e-06
-5.08495e-06
-6.48898e-06
0.000120475
3.70357e-06
-5.79777e-06
-6.67848e-06
0.000121537
3.84808e-06
-5.5288e-06
-6.58463e-06
0.000119601
3.81088e-06
-4.39057e-06
-6.17081e-06
0.000112686
3.64294e-06
-5.30273e-06
9.83035e-05
-2.64153e-06
3.07033e-06
-1.35599e-06
-7.14328e-06
0.000109304
5.91499e-07
-2.65854e-06
-8.24336e-06
0.000121361
-4.26297e-06
-9.1165e-06
0.000126306
-5.73235e-06
-9.64425e-06
0.000127908
-6.45705e-06
-9.81185e-06
0.000129331
-6.05272e-06
-9.52679e-06
0.000130212
-4.74026e-06
-8.62845e-06
0.000126575
-7.35015e-06
0.000114491
-2.96277e-06
-1.7952e-06
-9.3228e-06
0.000118002
8.83205e-07
-3.18574e-06
-1.08083e-05
0.000127172
-4.79643e-06
-1.19143e-05
0.000128197
-6.13776e-06
-1.23714e-05
0.000127327
-6.72683e-06
-1.24484e-05
0.000128982
-6.16285e-06
-1.19751e-05
0.000132903
-4.67364e-06
-1.06063e-05
0.000133624
-8.8393e-06
0.000124466
-2.85285e-06