/*--------------------------------*- C++ -*----------------------------------*\
| =========                 |                                                 |
| \\      /  F ield         | OpenFOAM: The Open Source CFD Toolbox           |
|  \\    /   O peration     | Version:  2406                                  |
|   \\  /    A nd           | Website:  www.openfoam.com                      |
|    \\/     M anipulation  |                                                 |
\*---------------------------------------------------------------------------*/
FoamFile
{
    version     2.0;
    format      ascii;
    arch        "LSB;label=32;scalar=64";
    class       volVectorField;
    location    "0.2";
    object      U;
}
// * * * * * * * * * * * * * * * * * * * * * * * * * * * * * * * * * * * * * //

dimensions      [0 1 -1 0 0 0 0];

internalField   nonuniform List<vector> 
16000
(
(0.121716 0.121758 1.13142)
(0.0871413 0.126415 1.16734)
(0.0512888 0.126481 1.18288)
(0.0183411 0.125505 1.18849)
(-0.0136397 0.125786 1.18843)
(-0.0471605 0.127255 1.18264)
(-0.0839099 0.127466 1.16675)
(-0.11944 0.122906 1.13057)
(0.126387 0.0872396 1.16747)
(0.0842919 0.0843835 1.19459)
(0.0468411 0.0794693 1.20059)
(0.0167561 0.0760623 1.20055)
(-0.0107492 0.0763667 1.20058)
(-0.0416848 0.0802513 1.20055)
(-0.080462 0.0853705 1.19422)
(-0.123887 0.0882508 1.16667)
(0.126487 0.0513995 1.18318)
(0.0794385 0.0469508 1.20078)
(0.0419069 0.0419308 1.19959)
(0.0151492 0.0388102 1.19538)
(-0.00793271 0.0390293 1.19554)
(-0.0358269 0.0424737 1.19982)
(-0.0751464 0.0476347 1.20065)
(-0.123899 0.0521096 1.18248)
(0.125534 0.0184264 1.18893)
(0.0760784 0.0168472 1.20094)
(0.0388506 0.015151 1.19561)
(0.0141721 0.0141085 1.18908)
(-0.00631791 0.0141592 1.18931)
(-0.032276 0.0152773 1.19603)
(-0.0715668 0.0170305 1.20097)
(-0.122959 0.0186687 1.18829)
(0.125803 -0.0136074 1.18897)
(0.0763782 -0.0106994 1.20115)
(0.0390539 -0.00794012 1.196)
(0.0141919 -0.00636438 1.18956)
(-0.00648409 -0.00647902 1.18977)
(-0.032614 -0.00822911 1.19638)
(-0.0719883 -0.0110649 1.20114)
(-0.123342 -0.013887 1.1883)
(0.127218 -0.0472133 1.18321)
(0.0802096 -0.0417186 1.20121)
(0.0424126 -0.0358629 1.20043)
(0.0151832 -0.0322902 1.19649)
(-0.00838591 -0.0325402 1.19661)
(-0.0367263 -0.0364868 1.20057)
(-0.0762838 -0.0424884 1.20095)
(-0.124964 -0.0478921 1.18241)
(0.127337 -0.0840842 1.1673)
(0.0852377 -0.0806349 1.19485)
(0.0474496 -0.0752758 1.20128)
(0.0167648 -0.0716047 1.20151)
(-0.0114203 -0.0718861 1.20149)
(-0.0429226 -0.0759991 1.2011)
(-0.0819892 -0.0815241 1.19431)
(-0.125363 -0.0849266 1.16633)
(0.122679 -0.119771 1.13096)
(0.0880197 -0.124199 1.16715)
(0.0517842 -0.124132 1.183)
(0.0182232 -0.12306 1.18876)
(-0.0144332 -0.123273 1.18864)
(-0.0484925 -0.124705 1.1826)
(-0.0855202 -0.124939 1.1664)
(-0.121056 -0.120539 1.12993)
(0.0014418 -0.000383713 1.38381)
(-0.00442323 -0.00566413 1.41367)
(-0.0030306 -0.0112889 1.40867)
(0.0037057 -0.0146854 1.3989)
(0.0121713 -0.0137542 1.40167)
(0.0176063 -0.00873257 1.41606)
(0.0167655 -0.00205637 1.42351)
(0.00784453 0.00349467 1.39379)
(-0.00381042 -0.00667768 1.41371)
(-0.0124192 -0.0149119 1.40428)
(-0.0101588 -0.023613 1.35156)
(0.00160924 -0.0285942 1.31186)
(0.0164265 -0.0276686 1.31602)
(0.0265441 -0.0211064 1.36248)
(0.0258223 -0.0114921 1.41807)
(0.0137052 -0.00307611 1.4274)
(-0.00963038 -0.00554765 1.40873)
(-0.0211064 -0.0131945 1.35152)
(-0.017148 -0.0204545 1.25298)
(-0.000547017 -0.0241839 1.18836)
(0.0199508 -0.023576 1.19379)
(0.0347679 -0.0186911 1.26745)
(0.0351587 -0.0107182 1.3695)
(0.0196036 -0.00292177 1.42535)
(-0.0134203 0.00124385 1.39892)
(-0.0264238 -0.00148821 1.31167)
(-0.0210944 -0.00408155 1.18802)
(-0.00178925 -0.00529126 1.11172)
(0.0216247 -0.00504152 1.1176)
(0.039233 -0.00334753 1.20428)
(0.0407662 -0.000441101 1.33208)
(0.0233453 0.00241765 1.41729)
(-0.0129731 0.0101259 1.40175)
(-0.0260781 0.0138223 1.31591)
(-0.0210013 0.016864 1.19329)
(-0.00183809 0.0183648 1.11718)
(0.0215312 0.018284 1.12298)
(0.0389657 0.0165662 1.20927)
(0.0402429 0.0133558 1.33588)
(0.0227346 0.00969507 1.41972)
(-0.00836121 0.0160923 1.41634)
(-0.020081 0.0247147 1.36281)
(-0.0167367 0.0325756 1.26744)
(-0.000630821 0.0367598 1.2041)
(0.0195125 0.0363397 1.20922)
(0.0338081 0.0313342 1.28099)
(0.0335978 0.0229566 1.37955)
(0.0178558 0.0143325 1.4318)
(-0.00197082 0.0156881 1.42401)
(-0.0109144 0.0246357 1.41883)
(-0.0094448 0.0338508 1.37023)
(0.00147134 0.0392999 1.33262)
(0.0155125 0.0386324 1.33626)
(0.0247992 0.032051 1.37974)
(0.0233658 0.0221902 1.4308)
(0.0110325 0.013148 1.43588)
(0.00339509 0.0070481 1.39429)
(-0.00284526 0.012897 1.42809)
(-0.00230715 0.0188355 1.42622)
(0.00337422 0.0225808 1.41809)
(0.0107933 0.0219561 1.42027)
(0.0153038 0.0171274 1.43204)
(0.0138247 0.0104615 1.4359)
(0.00474655 0.00437765 1.40222)
(0.01721 0.011513 1.37211)
(0.0154528 0.0146559 1.40005)
(0.0136617 0.017084 1.38524)
(0.0121917 0.0190953 1.36761)
(0.0104872 0.0205516 1.37444)
(0.00744392 0.0210258 1.40409)
(0.00275902 0.0201147 1.42715)
(-0.00330374 0.0171165 1.40254)
(0.0194562 0.00852328 1.39848)
(0.0167456 0.0106963 1.37896)
(0.0143401 0.01255 1.29818)
(0.0127921 0.0141887 1.23776)
(0.01129 0.0156229 1.24669)
(0.00819644 0.0164034 1.32262)
(0.00232573 0.01592 1.41302)
(-0.00483339 0.0140631 1.43582)
(0.0200558 0.00640593 1.3811)
(0.0166559 0.00767868 1.29448)
(0.013762 0.00910831 1.14616)
(0.0123961 0.0106609 1.05041)
(0.0114165 0.0118333 1.06099)
(0.00876138 0.0121938 1.17565)
(0.00261438 0.0117418 1.33558)
(-0.00559473 0.0107215 1.42459)
(0.0199043 0.00565328 1.36059)
(0.0156567 0.0068491 1.22924)
(0.0125643 0.00836409 1.04434)
(0.0115759 0.00977575 0.936313)
(0.0113016 0.0103968 0.94636)
(0.00926779 0.00999169 1.07578)
(0.00332887 0.00899637 1.27406)
(-0.00578799 0.00792699 1.40779)
(0.0196579 0.0056696 1.36567)
(0.0150934 0.0072267 1.23462)
(0.0120108 0.00893382 1.04927)
(0.0113408 0.0101201 0.940095)
(0.0115006 0.0100459 0.950169)
(0.00978326 0.00878685 1.08036)
(0.00383477 0.00711209 1.27885)
(-0.00559608 0.00552975 1.41229)
(0.0194345 0.00474109 1.39567)
(0.0152933 0.00640555 1.31043)
(0.0123348 0.00811 1.1618)
(0.0117599 0.00899488 1.06477)
(0.0118947 0.00835512 1.07495)
(0.00998889 0.00646398 1.19007)
(0.00376401 0.0042945 1.34972)
(-0.00520333 0.00246805 1.43744)
(0.0187063 0.00176147 1.42027)
(0.0153411 0.00228295 1.40392)
(0.0127185 0.00339393 1.32451)
(0.0119535 0.00393756 1.26382)
(0.0116165 0.00299742 1.27203)
(0.00925146 0.000876831 1.34695)
(0.00318825 -0.00113955 1.43523)
(-0.00452942 -0.00188991 1.45499)
(0.0163486 -0.00309296 1.39769)
(0.0142389 -0.00387349 1.42947)
(0.0123531 -0.00422588 1.41791)
(0.0113229 -0.00481053 1.40138)
(0.0102264 -0.00582684 1.40737)
(0.00763828 -0.00706388 1.43459)
(0.00303517 -0.00778283 1.45389)
(-0.00307841 -0.00707603 1.42516)
(0.0274169 0.0205117 1.34126)
(0.0290247 0.0299175 1.3899)
(0.0254078 0.0388246 1.38881)
(0.0175831 0.0449536 1.38151)
(0.00735335 0.0470804 1.39211)
(-0.0025855 0.0443745 1.41889)
(-0.00972431 0.0375517 1.43439)
(-0.0131662 0.0283699 1.39394)
(0.034507 0.0208126 1.38629)
(0.0368851 0.0317834 1.39801)
(0.0317894 0.0430332 1.34955)
(0.0196494 0.0507325 1.30881)
(0.00444937 0.052992 1.32166)
(-0.00963627 0.0489391 1.38637)
(-0.0182719 0.0396331 1.45268)
(-0.0206005 0.0288529 1.44971)
(0.0396321 0.0174525 1.38016)
(0.0433459 0.0275017 1.3427)
(0.0362001 0.0375625 1.2381)
(0.0200627 0.0438912 1.16655)
(0.000964164 0.0457995 1.18125)
(-0.0165029 0.0423409 1.28075)
(-0.0265981 0.033633 1.40628)
(-0.0270525 0.0237311 1.4524)
(0.0419835 0.0111121 1.36751)
(0.0461875 0.0172878 1.29332)
(0.0372031 0.0235286 1.15596)
(0.019254 0.0274268 1.07099)
(-0.00125464 0.0284327 1.08565)
(-0.0201345 0.0259566 1.20101)
(-0.0312034 0.0203768 1.36169)
(-0.0305405 0.0143141 1.44545)
(0.0416772 0.00338159 1.37452)
(0.0457358 0.00458392 1.29943)
(0.0368747 0.00632064 1.16061)
(0.0191957 0.00753834 1.07431)
(-0.00111127 0.00722197 1.08915)
(-0.0197044 0.0055954 1.20584)
(-0.0306745 0.00375938 1.36787)
(-0.0302088 0.00255568 1.45253)
(0.0385874 -0.00385077 1.40099)
(0.0421371 -0.00719446 1.36268)
(0.0351956 -0.0100209 1.2552)
(0.0198519 -0.0117281 1.18114)
(0.00154185 -0.0131039 1.19599)
(-0.0151675 -0.0134192 1.29797)
(-0.025136 -0.0114068 1.42613)
(-0.0259133 -0.00806347 1.47315)
(0.0330891 -0.00877039 1.41912)
(0.0353705 -0.0143963 1.43312)
(0.0305927 -0.0202741 1.38428)
(0.0194393 -0.0243381 1.34182)
(0.00528203 -0.0262122 1.35462)
(-0.00791009 -0.0251138 1.4206)
(-0.0163285 -0.0206879 1.48712)
(-0.0189347 -0.0151745 1.48201)
(0.0260641 -0.0108337 1.3832)
(0.0276015 -0.0162477 1.4355)
(0.0244316 -0.0214535 1.43705)
(0.0174772 -0.0253658 1.43148)
(0.00804502 -0.0272999 1.44195)
(-0.00112883 -0.0264484 1.46692)
(-0.00792213 -0.0229199 1.47947)
(-0.0114535 -0.0176505 1.43547)
(0.0215619 0.0206196 1.27264)
(0.024 0.0284867 1.34672)
(0.0218673 0.0356155 1.3688)
(0.0163362 0.0411016 1.37658)
(0.00861538 0.043635 1.39096)
(0.000570112 0.042467 1.4099)
(-0.00559828 0.0380102 1.4084)
(-0.00869981 0.0304388 1.34531)
(0.0269321 0.0233049 1.34411)
(0.0295814 0.0326679 1.39172)
(0.0263517 0.0416891 1.38486)
(0.0171723 0.0484543 1.37236)
(0.00504978 0.0512586 1.39045)
(-0.00674181 0.048965 1.4369)
(-0.0139309 0.0422303 1.46867)
(-0.015904 0.033134 1.4324)
(0.0310055 0.0221071 1.36204)
(0.0341597 0.0313958 1.37973)
(0.0293218 0.0401301 1.33549)
(0.0164651 0.0456412 1.30076)
(0.000643209 0.0479697 1.32125)
(-0.0142903 0.0457788 1.39544)
(-0.0224473 0.0385899 1.46864)
(-0.0229899 0.0292051 1.46355)
(0.0338599 0.0177266 1.36529)
(0.0374358 0.0240409 1.36062)
(0.0306625 0.0295483 1.29283)
(0.0153171 0.0324453 1.24788)
(-0.0026334 0.0336788 1.26842)
(-0.0195646 0.0319833 1.35672)
(-0.0287281 0.0268105 1.45708)
(-0.0278742 0.0203309 1.47487)
(0.0351354 0.0110717 1.37627)
(0.0390111 0.0128559 1.37291)
(0.0320061 0.0142591 1.30532)
(0.0159589 0.0145508 1.25952)
(-0.00323891 0.013887 1.28117)
(-0.020833 0.0123798 1.37045)
(-0.0301783 0.0101602 1.47045)
(-0.0290673 0.00832892 1.48686)
(0.0345263 0.00378258 1.39433)
(0.0383418 0.00103595 1.41726)
(0.0326063 -0.00182299 1.37501)
(0.0178711 -0.00447203 1.34099)
(-0.000539089 -0.00659517 1.36263)
(-0.0172108 -0.0073953 1.43709)
(-0.026019 -0.00639741 1.50836)
(-0.0260968 -0.00364174 1.49834)
(0.0319967 -0.00191759 1.395)
(0.0349901 -0.00687478 1.45136)
(0.0306756 -0.0125144 1.45015)
(0.0191541 -0.0175022 1.44102)
(0.00403885 -0.0203168 1.45988)
(-0.00999716 -0.0199486 1.50399)
(-0.018129 -0.0168289 1.52992)
(-0.020028 -0.0123645 1.48665)
(0.0270011 -0.0050149 1.33626)
(0.0296702 -0.0099436 1.42005)
(0.0263486 -0.0154453 1.4501)
(0.0186212 -0.020154 1.46279)
(0.00818777 -0.0229083 1.47792)
(-0.00213756 -0.0228644 1.49315)
(-0.00966011 -0.0201804 1.48468)
(-0.0127999 -0.0156233 1.41256)
(0.00336798 0.0127342 1.22087)
(0.00640486 0.0147757 1.30094)
(0.00950022 0.0166597 1.33254)
(0.0118441 0.0190168 1.34869)
(0.0129618 0.0216564 1.36777)
(0.0127456 0.0239955 1.38667)
(0.0113889 0.0252104 1.38087)
(0.00859405 0.0235251 1.31241)
(0.00438275 0.0181309 1.30341)
(0.00750795 0.0210238 1.36444)
(0.00983441 0.0236198 1.37289)
(0.0107833 0.0263531 1.37524)
(0.0101203 0.0290621 1.40021)
(0.00826313 0.0309413 1.44348)
(0.00626942 0.0309248 1.46591)
(0.00454196 0.0285477 1.41692)
(0.0063143 0.0222328 1.33721)
(0.00920744 0.0253738 1.37533)
(0.0103871 0.0280608 1.35902)
(0.00916059 0.0301114 1.34651)
(0.00614525 0.0322135 1.37481)
(0.00230375 0.0334492 1.44182)
(-0.000377055 0.0323079 1.49468)
(-0.00137802 0.029133 1.46922)
(0.00934921 0.0241799 1.35469)
(0.012143 0.0266533 1.37975)
(0.011795 0.0280203 1.34873)
(0.0081623 0.0282977 1.33219)
(0.0026896 0.029218 1.35929)
(-0.00341484 0.0297848 1.4381)
(-0.00690886 0.0284971 1.51005)
(-0.00702048 0.0257001 1.49787)
(0.0132599 0.0235832 1.37404)
(0.0162107 0.0242463 1.40548)
(0.0148758 0.0235648 1.37858)
(0.00915316 0.0222464 1.36097)
(0.00104288 0.0211318 1.39263)
(-0.00688776 0.0207684 1.47021)
(-0.0111332 0.0199884 1.53679)
(-0.010882 0.0189829 1.51837)
(0.0171828 0.0207953 1.39246)
(0.0203081 0.0191891 1.4483)
(0.0186452 0.0161785 1.44586)
(0.0119535 0.0128068 1.44093)
(0.00245492 0.0102667 1.47158)
(-0.00656386 0.00931629 1.53127)
(-0.0114086 0.00967368 1.56887)
(-0.0118395 0.0107996 1.52737)
(0.0199621 0.0168437 1.38626)
(0.0227897 0.013828 1.47027)
(0.0211279 0.00926272 1.49848)
(0.0149217 0.00455641 1.51324)
(0.00584183 0.00129203 1.53903)
(-0.00284683 0.000460394 1.56996)
(-0.0082239 0.00160378 1.57221)
(-0.00995331 0.0035419 1.50376)
(0.0197651 0.0119715 1.31786)
(0.0228928 0.00924753 1.42176)
(0.0214777 0.0046974 1.47365)
(0.0165414 0.000212647 1.50192)
(0.00936612 -0.00298757 1.52173)
(0.00197915 -0.00405016 1.52976)
(-0.00363479 -0.00311038 1.505)
(-0.00631227 -0.00113008 1.41367)
(-0.00954143 0.00703136 1.18555)
(-0.00640804 0.00402776 1.25516)
(9.75579e-05 0.0013513 1.2814)
(0.0079983 0.00114672 1.29804)
(0.015567 0.00397469 1.32269)
(0.0210755 0.0092651 1.35085)
(0.0231381 0.0151741 1.35575)
(0.0204264 0.0183982 1.29779)
(-0.0113545 0.0137048 1.26532)
(-0.00842871 0.0102724 1.31694)
(-0.00242105 0.006988 1.32134)
(0.00525978 0.00621739 1.32596)
(0.0126876 0.00897752 1.35827)
(0.0180513 0.0146294 1.41257)
(0.0199891 0.020665 1.44639)
(0.0183123 0.0244513 1.40619)
(-0.0105358 0.0206985 1.30363)
(-0.00844308 0.0173784 1.33536)
(-0.00360211 0.0138718 1.31854)
(0.0026567 0.0123516 1.3126)
(0.00852585 0.0144796 1.34928)
(0.0128099 0.0195069 1.42648)
(0.0141072 0.024603 1.48837)
(0.0128377 0.0277453 1.46847)
(-0.00694267 0.026758 1.33113)
(-0.00549274 0.0238545 1.35485)
(-0.0022922 0.0199788 1.32901)
(0.00142224 0.0171867 1.32042)
(0.00454604 0.0182687 1.35921)
(0.00664105 0.0221132 1.44665)
(0.00704634 0.0260125 1.5219)
(0.00630963 0.0283154 1.50962)
(-0.000926268 0.0305352 1.36272)
(0.000366412 0.0277847 1.39861)
(0.00181961 0.0234814 1.38185)
(0.00269237 0.0196945 1.37648)
(0.0025359 0.0190585 1.41929)
(0.00175283 0.0212321 1.50199)
(0.000853952 0.0239624 1.56538)
(0.000346759 0.0259401 1.54105)
(0.00614945 0.0310836 1.3922)
(0.00770664 0.028086 1.45667)
(0.00784059 0.0233653 1.46779)
(0.00622641 0.0187786 1.47717)
(0.00316157 0.0165593 1.51698)
(-0.000204891 0.0170895 1.57668)
(-0.00254729 0.0190716 1.60639)
(-0.00352266 0.0211548 1.55635)
(0.0123503 0.0283899 1.39345)
(0.0140752 0.02524 1.48733)
(0.0133729 0.0200948 1.52803)
(0.0103917 0.015116 1.55496)
(0.00568373 0.0121493 1.58712)
(0.000823114 0.0118878 1.61568)
(-0.00278386 0.0134774 1.61113)
(-0.00468177 0.0152907 1.53345)
(0.0151609 0.0221527 1.32896)
(0.0177132 0.0199751 1.44077)
(0.0168372 0.0153336 1.50311)
(0.0135571 0.0108367 1.54029)
(0.00867047 0.00785816 1.56437)
(0.00336692 0.00709908 1.57084)
(-0.00106537 0.0081414 1.53963)
(-0.00355315 0.00938717 1.44033)
(-0.0141345 0.00217822 1.16404)
(-0.0116403 -0.00380949 1.21965)
(-0.00499955 -0.00904942 1.23618)
(0.00367959 -0.0107169 1.25007)
(0.0126857 -0.00786256 1.27936)
(0.0198887 -0.00109272 1.31861)
(0.0233254 0.00724322 1.3378)
(0.0213554 0.0132923 1.29379)
(-0.0170835 0.00781919 1.23641)
(-0.0152765 0.000104032 1.2718)
(-0.00935994 -0.00700265 1.26522)
(-0.000656203 -0.0100556 1.2668)
(0.00871239 -0.00730342 1.30482)
(0.016531 0.000724365 1.37307)
(0.0203509 0.0106665 1.42407)
(0.0195233 0.0185266 1.39934)
(-0.0168933 0.0142938 1.27385)
(-0.0164561 0.00589145 1.28944)
(-0.0119452 -0.00230377 1.26137)
(-0.00454173 -0.00632379 1.25382)
(0.00362054 -0.00415646 1.29672)
(0.010951 0.00382619 1.3886)
(0.0145436 0.0139153 1.46904)
(0.0141811 0.0219778 1.46401)
(-0.0134757 0.0207326 1.30767)
(-0.0141804 0.0127515 1.3175)
(-0.0114939 0.0041924 1.2824)
(-0.00637535 -0.000831675 1.27278)
(-0.000580163 0.000487355 1.31996)
(0.00479287 0.00753742 1.42157)
(0.00755347 0.0166352 1.51287)
(0.00759357 0.0238847 1.51251)
(-0.00715484 0.0257641 1.35121)
(-0.00820066 0.0187611 1.37788)
(-0.00744629 0.0105354 1.35555)
(-0.00515895 0.00490704 1.35164)
(-0.00239101 0.00505522 1.40276)
(6.53558e-05 0.010431 1.4971)
(0.00125987 0.0177054 1.57154)
(0.00129307 0.0237203 1.55411)
(0.000598282 0.0278668 1.3949)
(1.26879e-05 0.0220192 1.45573)
(-0.000587322 0.0147633 1.46582)
(-0.000968041 0.00916471 1.47871)
(-0.00135979 0.0079663 1.52538)
(-0.00191687 0.0112015 1.59239)
(-0.00263066 0.0163783 1.62743)
(-0.00320463 0.0212624 1.57946)
(0.00763691 0.0264526 1.40887)
(0.00773805 0.0216766 1.5023)
(0.00644523 0.0152708 1.54522)
(0.00430059 0.0100749 1.57629)
(0.00153816 0.00810198 1.61318)
(-0.0013747 0.00969369 1.64512)
(-0.00376731 0.0133539 1.6416)
(-0.00514243 0.0169876 1.5643)
(0.011432 0.0209563 1.35292)
(0.0127581 0.0179707 1.46569)
(0.0114197 0.0128371 1.53047)
(0.00859238 0.00851249 1.57105)
(0.00482636 0.00635593 1.59827)
(0.000781065 0.00683935 1.60659)
(-0.00275211 0.00928924 1.57567)
(-0.00462096 0.0114508 1.47474)
(-0.0129767 -0.00298027 1.16052)
(-0.0119823 -0.00977374 1.20782)
(-0.00789112 -0.0156428 1.21796)
(-0.0020728 -0.0180198 1.22896)
(0.00455649 -0.0158699 1.25962)
(0.0104759 -0.00963388 1.30427)
(0.0139839 -0.0013879 1.33103)
(0.0136574 0.00551674 1.29466)
(-0.0160242 -0.000404935 1.22714)
(-0.0160489 -0.00963207 1.25187)
(-0.0129489 -0.0181364 1.23623)
(-0.00730694 -0.0223243 1.23309)
(-0.000307017 -0.0202691 1.2723)
(0.00654815 -0.0121877 1.34777)
(0.0109417 -0.00121339 1.40923)
(0.0117931 0.0083114 1.39461)
(-0.0166032 0.0029842 1.26215)
(-0.0182637 -0.00782008 1.26486)
(-0.0166501 -0.0182003 1.22493)
(-0.0119528 -0.023277 1.21185)
(-0.00566299 -0.0216474 1.25517)
(0.00126243 -0.0129293 1.35535)
(0.00602407 -0.000496135 1.44951)
(0.00751231 0.0102874 1.45645)
(-0.0145841 0.00699664 1.29794)
(-0.0176153 -0.00400935 1.29379)
(-0.0175012 -0.014889 1.24552)
(-0.0142768 -0.0206044 1.22959)
(-0.00939022 -0.0193881 1.27723)
(-0.00361871 -0.0109313 1.38793)
(0.000698903 0.00132334 1.49436)
(0.00248163 0.0119411 1.50662)
(-0.0101016 0.0109284 1.34795)
(-0.0135322 0.00100323 1.36191)
(-0.0149095 -0.0093026 1.32672)
(-0.0135976 -0.0153445 1.31578)
(-0.0104779 -0.0144109 1.36839)
(-0.00669581 -0.00694495 1.47249)
(-0.00373251 0.00365104 1.56117)
(-0.00220471 0.0128592 1.5544)
(-0.00411104 0.0135028 1.40075)
(-0.00688739 0.00558639 1.45249)
(-0.00901527 -0.00293721 1.45273)
(-0.00954552 -0.00835989 1.46011)
(-0.00868551 -0.00821172 1.5087)
(-0.00732881 -0.00271214 1.5843)
(-0.00618517 0.00521997 1.63004)
(-0.00549081 0.0124942 1.5885)
(0.00168437 0.0138563 1.42359)
(9.75985e-05 0.0079818 1.51107)
(-0.00200697 0.0014421 1.54899)
(-0.00377635 -0.00294792 1.57744)
(-0.00501843 -0.00347863 1.61616)
(-0.00602412 -0.00011014 1.65363)
(-0.00673415 0.00527392 1.65465)
(-0.00683215 0.0105759 1.58213)
(0.00537137 0.0113047 1.37369)
(0.00517549 0.00767269 1.48308)
(0.00343504 0.00299264 1.54479)
(0.00120711 -0.000320157 1.58427)
(-0.00118048 -0.00122058 1.61287)
(-0.00350299 0.000483055 1.6243)
(-0.00547828 0.0040307 1.59703)
(-0.00607894 0.00726767 1.49814)
(-0.00880283 -0.00719044 1.17685)
(-0.00960104 -0.0127512 1.22377)
(-0.00909999 -0.0175489 1.23243)
(-0.00757229 -0.0199996 1.241)
(-0.00501998 -0.0192129 1.26884)
(-0.0018977 -0.015306 1.31057)
(0.000925564 -0.00946894 1.33514)
(0.00250173 -0.00355855 1.29762)
(-0.011161 -0.0083358 1.24146)
(-0.0129233 -0.0161784 1.26401)
(-0.0133594 -0.0234353 1.24433)
(-0.0122002 -0.0274911 1.23615)
(-0.00943432 -0.0267573 1.27116)
(-0.00540915 -0.0210507 1.34382)
(-0.00147851 -0.0123081 1.40445)
(0.00102879 -0.0038811 1.3911)
(-0.0124214 -0.00893407 1.27361)
(-0.0155053 -0.018718 1.27113)
(-0.0171021 -0.0280194 1.22284)
(-0.0162913 -0.0326889 1.20161)
(-0.0135566 -0.0320155 1.2397)
(-0.00907893 -0.0252382 1.33781)
(-0.00436807 -0.0142602 1.4349)
(-0.00116244 -0.00393218 1.44645)
(-0.0123967 -0.00855647 1.30664)
(-0.0166487 -0.0191689 1.29359)
(-0.018985 -0.0289704 1.23321)
(-0.0185223 -0.0336344 1.20814)
(-0.0160348 -0.0329312 1.24813)
(-0.0116475 -0.0258 1.35796)
(-0.00683537 -0.0141672 1.47171)
(-0.00344664 -0.00323899 1.4926)
(-0.0109866 -0.00703814 1.35499)
(-0.0156072 -0.0169314 1.35754)
(-0.0185975 -0.0261889 1.30744)
(-0.0187089 -0.0309255 1.28404)
(-0.0164122 -0.0296736 1.33028)
(-0.0125484 -0.022567 1.43699)
(-0.00841623 -0.0118058 1.53665)
(-0.00537827 -0.00188326 1.54055)
(-0.00834698 -0.00482429 1.40763)
(-0.0123826 -0.0126491 1.44806)
(-0.0153845 -0.0201259 1.43349)
(-0.0160958 -0.0240061 1.42861)
(-0.014543 -0.0227863 1.47289)
(-0.011774 -0.0167615 1.55398)
(-0.0087934 -0.00816827 1.61133)
(-0.00660325 -0.000373521 1.57876)
(-0.00520988 -0.00275211 1.43143)
(-0.0079475 -0.00818628 1.50938)
(-0.0102723 -0.0132011 1.53683)
(-0.0113344 -0.0157786 1.5568)
(-0.010941 -0.0149118 1.59343)
(-0.00974815 -0.0107734 1.63605)
(-0.00841329 -0.00511508 1.64408)
(-0.00694238 0.000490499 1.57861)
(-0.00238837 -0.00147233 1.38256)
(-0.00397804 -0.00486359 1.48508)
(-0.00560361 -0.00791967 1.53942)
(-0.00672005 -0.00949333 1.57392)
(-0.00722334 -0.00904462 1.6016)
(-0.00723265 -0.00666558 1.61599)
(-0.00700873 -0.00308012 1.59399)
(-0.00602429 0.000453233 1.50028)
(-0.00386565 -0.0095374 1.20732)
(-0.00596031 -0.0128315 1.25961)
(-0.00845919 -0.0156049 1.27036)
(-0.0107156 -0.0175466 1.27704)
(-0.0119892 -0.0180459 1.29894)
(-0.0118085 -0.0169528 1.33157)
(-0.0101424 -0.0145017 1.34679)
(-0.00726427 -0.0107487 1.30168)
(-0.00512451 -0.0136244 1.27309)
(-0.00786385 -0.0184108 1.29987)
(-0.010975 -0.0227787 1.28108)
(-0.0136777 -0.025684 1.26877)
(-0.0149615 -0.0261753 1.296)
(-0.0141729 -0.0238469 1.35818)
(-0.0115531 -0.0192117 1.40877)
(-0.00821794 -0.0138087 1.38955)
(-0.00665685 -0.0174715 1.30248)
(-0.010034 -0.0239056 1.30189)
(-0.0137469 -0.0299229 1.25042)
(-0.0162796 -0.0331862 1.22104)
(-0.0171232 -0.0333178 1.25065)
(-0.0157444 -0.0298496 1.33876)
(-0.0122345 -0.0229984 1.4284)
(-0.00826218 -0.0157343 1.43704)
(-0.00828019 -0.0202742 1.32931)
(-0.0123257 -0.0278318 1.31394)
(-0.0160492 -0.034235 1.24567)
(-0.0179061 -0.0369384 1.21148)
(-0.0180336 -0.0367466 1.24052)
(-0.0160221 -0.0326115 1.34107)
(-0.0119564 -0.0246428 1.45218)
(-0.00785503 -0.0162634 1.4752)
(-0.00968963 -0.0212047 1.36918)
(-0.0139965 -0.0286074 1.36492)
(-0.0174898 -0.0346331 1.3033)
(-0.0188402 -0.0370713 1.26755)
(-0.0180066 -0.0360316 1.3027)
(-0.0152096 -0.0312376 1.40367)
(-0.0109928 -0.023216 1.50645)
(-0.00712857 -0.0151097 1.51728)
(-0.010438 -0.0198854 1.4132)
(-0.014438 -0.0258228 1.44383)
(-0.0173718 -0.0306887 1.41535)
(-0.0182171 -0.0324634 1.39674)
(-0.0167447 -0.0308295 1.43206)
(-0.0136085 -0.0260008 1.51254)
(-0.00963159 -0.0190011 1.57724)
(-0.00635177 -0.0124894 1.55327)
(-0.0102704 -0.0168016 1.4305)
(-0.0132948 -0.0207227 1.49813)
(-0.0152842 -0.0234297 1.51364)
(-0.0156584 -0.0240517 1.52243)
(-0.0141901 -0.0223505 1.55332)
(-0.0114531 -0.0185994 1.59791)
(-0.00849333 -0.0139792 1.6128)
(-0.00571787 -0.00933296 1.55442)
(-0.00872929 -0.0123964 1.37792)
(-0.0112205 -0.0149994 1.47208)
(-0.0124532 -0.0161031 1.51714)
(-0.0124948 -0.015969 1.54428)
(-0.0113845 -0.0145489 1.56863)
(-0.00942016 -0.0121353 1.58426)
(-0.00719594 -0.00929089 1.56705)
(-0.00486533 -0.00626363 1.48011)
(0.000174143 -0.0102632 1.24323)
(-0.00240071 -0.0114487 1.30336)
(-0.00653246 -0.0122301 1.31795)
(-0.0110419 -0.0133711 1.32331)
(-0.0147599 -0.0145985 1.33827)
(-0.0167046 -0.0156248 1.35964)
(-0.0162614 -0.0160426 1.36273)
(-0.013046 -0.0144624 1.30717)
(-0.000138068 -0.0158544 1.31173)
(-0.00305855 -0.0176366 1.34578)
(-0.00744152 -0.0190831 1.33097)
(-0.0124163 -0.0205121 1.31621)
(-0.01636 -0.0217 1.33487)
(-0.0180488 -0.0221861 1.38356)
(-0.0169367 -0.021424 1.41982)
(-0.0137207 -0.0192897 1.39118)
(-0.00162549 -0.0213929 1.33851)
(-0.00459614 -0.024204 1.34412)
(-0.00910047 -0.0266902 1.29412)
(-0.0136046 -0.0282064 1.2589)
(-0.0169583 -0.028886 1.27953)
(-0.018075 -0.0284254 1.35442)
(-0.0161613 -0.0259757 1.43061)
(-0.0123906 -0.0225082 1.43119)
(-0.00414239 -0.025918 1.35758)
(-0.00728089 -0.0298437 1.3452)
(-0.0113173 -0.0325493 1.27451)
(-0.0145922 -0.0333475 1.23218)
(-0.016703 -0.0335443 1.2521)
(-0.0168742 -0.0323854 1.33973)
(-0.0141787 -0.0287915 1.44076)
(-0.010255 -0.0240526 1.45958)
(-0.00723831 -0.0283189 1.38548)
(-0.0105157 -0.0325724 1.37971)
(-0.013758 -0.0351528 1.31249)
(-0.0159011 -0.0354766 1.26843)
(-0.0164423 -0.0348537 1.29202)
(-0.0151456 -0.0328087 1.38194)
(-0.0116883 -0.0285494 1.47971)
(-0.00780042 -0.0234346 1.4915)
(-0.0101994 -0.0278306 1.41621)
(-0.013427 -0.0313725 1.4409)
(-0.0157784 -0.0335148 1.40351)
(-0.0167399 -0.0335393 1.37425)
(-0.0158608 -0.0320808 1.39933)
(-0.0132671 -0.0292299 1.47356)
(-0.00928068 -0.0248967 1.53865)
(-0.00563814 -0.0205523 1.51961)
(-0.0121833 -0.0245292 1.42258)
(-0.0148751 -0.0267801 1.48175)
(-0.0163137 -0.0274764 1.4877)
(-0.0162925 -0.0267334 1.48634)
(-0.0145481 -0.0249124 1.50959)
(-0.0113443 -0.0222594 1.55178)
(-0.00766235 -0.019298 1.56967)
(-0.00425749 -0.0161703 1.51695)
(-0.0117854 -0.0185383 1.36321)
(-0.0145921 -0.0203199 1.44993)
(-0.0154275 -0.0199459 1.4864)
(-0.014816 -0.0187474 1.50577)
(-0.0128601 -0.0169957 1.52495)
(-0.00986843 -0.0150408 1.53928)
(-0.00652511 -0.0132379 1.52466)
(-0.00350343 -0.0110583 1.44353)
(0.00268627 -0.0097675 1.2778)
(0.000232952 -0.00954003 1.34592)
(-0.00430071 -0.00892445 1.36473)
(-0.00955689 -0.00931767 1.36934)
(-0.0142569 -0.0107471 1.37812)
(-0.0172792 -0.0128974 1.38912)
(-0.017776 -0.0150559 1.3806)
(-0.0149034 -0.0150259 1.31456)
(0.00292118 -0.0155599 1.34926)
(0.000276044 -0.01528 1.39105)
(-0.00427391 -0.0146861 1.38136)
(-0.00999267 -0.0148983 1.36571)
(-0.0150656 -0.016302 1.37688)
(-0.0180947 -0.0184757 1.41265)
(-0.0181572 -0.020255 1.43457)
(-0.0155742 -0.020503 1.3961)
(0.001603 -0.0213442 1.37351)
(-0.000797973 -0.0215182 1.38682)
(-0.00520196 -0.0214225 1.34102)
(-0.0103884 -0.0215115 1.30287)
(-0.014906 -0.0224635 1.31552)
(-0.0174346 -0.0239798 1.37747)
(-0.0168165 -0.0247213 1.43887)
(-0.0137444 -0.024259 1.42939)
(-0.00114597 -0.0261775 1.38468)
(-0.00340274 -0.0272997 1.3781)
(-0.0071401 -0.0273058 1.30911)
(-0.0110066 -0.0267679 1.26154)
(-0.0141767 -0.0272069 1.27414)
(-0.0156746 -0.0281254 1.34909)
(-0.0142288 -0.0279349 1.43697)
(-0.0109422 -0.0263061 1.44778)
(-0.00481225 -0.0289649 1.40028)
(-0.00711624 -0.0306764 1.39664)
(-0.00986654 -0.030777 1.32871)
(-0.0123347 -0.0298234 1.28023)
(-0.0137447 -0.0295387 1.29454)
(-0.013656 -0.0296001 1.37207)
(-0.0111855 -0.0284924 1.45994)
(-0.0077839 -0.0261405 1.46781)
(-0.00864349 -0.0289446 1.41699)
(-0.011031 -0.0305061 1.43926)
(-0.0127649 -0.0306905 1.39809)
(-0.0137975 -0.0296906 1.36234)
(-0.01355 -0.0286554 1.3784)
(-0.0117794 -0.0276108 1.44351)
(-0.00836789 -0.0257516 1.50336)
(-0.00496335 -0.0235119 1.48501)
(-0.0116217 -0.025944 1.41136)
(-0.0137686 -0.0269055 1.46458)
(-0.014726 -0.0263287 1.4646)
(-0.0145644 -0.0249496 1.45578)
(-0.0130178 -0.0234473 1.47143)
(-0.0100709 -0.0220058 1.50815)
(-0.00649399 -0.020644 1.52478)
(-0.00314466 -0.0189416 1.47517)
(-0.0119205 -0.0198007 1.34414)
(-0.0145873 -0.0209617 1.42541)
(-0.0151172 -0.0197856 1.45507)
(-0.0142398 -0.0182157 1.46762)
(-0.0121009 -0.0166288 1.481)
(-0.00894047 -0.0153312 1.49198)
(-0.00540001 -0.0145092 1.47746)
(-0.00238143 -0.0131217 1.39986)
(0.00379292 -0.00823291 1.30731)
(0.00169231 -0.00722513 1.38246)
(-0.00253934 -0.00587333 1.4052)
(-0.00759932 -0.00574909 1.40957)
(-0.0123073 -0.00709188 1.41356)
(-0.0155984 -0.00961335 1.41623)
(-0.0166077 -0.012494 1.3979)
(-0.0143043 -0.0133717 1.32279)
(0.00430094 -0.013395 1.38141)
(0.00204345 -0.0120017 1.43033)
(-0.00211871 -0.0103063 1.42559)
(-0.00762651 -0.00976325 1.41006)
(-0.0127902 -0.0111109 1.41538)
(-0.0162464 -0.0140028 1.44032)
(-0.0169819 -0.0170078 1.45022)
(-0.0150806 -0.0185547 1.40261)
(0.00324311 -0.0185609 1.40341)
(0.00130831 -0.0172506 1.42428)
(-0.00262391 -0.0156602 1.38369)
(-0.00770532 -0.0148879 1.34465)
(-0.0124425 -0.0158838 1.35098)
(-0.0155131 -0.0183893 1.40166)
(-0.0156823 -0.0209019 1.44952)
(-0.0133532 -0.0221951 1.43011)
(0.000716533 -0.0229326 1.40764)
(-0.000938003 -0.0223535 1.40762)
(-0.00421744 -0.0208124 1.34251)
(-0.00814847 -0.0195774 1.29254)
(-0.0116811 -0.020104 1.29922)
(-0.0138043 -0.0221157 1.3631)
(-0.0132144 -0.0239292 1.43766)
(-0.0106181 -0.0242807 1.43936)
(-0.00278809 -0.0255519 1.41246)
(-0.00442285 -0.0256273 1.41271)
(-0.00675513 -0.0243332 1.34702)
(-0.00931094 -0.0228239 1.2968)
(-0.011189 -0.0227513 1.30431)
(-0.0118725 -0.0239916 1.37018)
(-0.0102537 -0.0248408 1.44648)
(-0.00748336 -0.0243826 1.44807)
(-0.00656714 -0.0257761 1.41676)
(-0.00833226 -0.0260413 1.43882)
(-0.00968222 -0.0251335 1.39746)
(-0.0108203 -0.0237141 1.35849)
(-0.0111126 -0.0230553 1.36741)
(-0.0101122 -0.0231749 1.42284)
(-0.00746461 -0.0229804 1.47462)
(-0.00458766 -0.0222493 1.45411)
(-0.00967224 -0.0233584 1.40013)
(-0.011353 -0.0235313 1.44984)
(-0.0120619 -0.0223461 1.44675)
(-0.0119794 -0.0208261 1.43299)
(-0.0108575 -0.0197161 1.4421)
(-0.00850742 -0.0191611 1.4722)
(-0.00550979 -0.0189098 1.48509)
(-0.0026224 -0.0182043 1.43612)
(-0.0103138 -0.017952 1.32542)
(-0.0126087 -0.0187129 1.40323)
(-0.0129827 -0.0172628 1.42796)
(-0.0121517 -0.0157314 1.43513)
(-0.0102707 -0.0144816 1.44311)
(-0.00749068 -0.0137414 1.44989)
(-0.00435385 -0.0135887 1.43373)
(-0.00176024 -0.0127639 1.35755)
(0.00384863 -0.00592999 1.33034)
(0.00209998 -0.00456607 1.41125)
(-0.00156039 -0.00296016 1.43741)
(-0.00601254 -0.00258041 1.44181)
(-0.01023 -0.00374958 1.44227)
(-0.0132897 -0.00621024 1.43849)
(-0.0144084 -0.00914235 1.41209)
(-0.0126096 -0.0104675 1.32963)
(0.00452829 -0.0100684 1.40683)
(0.00264204 -0.00820924 1.46207)
(-0.000961966 -0.00610202 1.46158)
(-0.00586837 -0.00522086 1.44665)
(-0.0106017 -0.00641441 1.44756)
(-0.0139132 -0.00938251 1.46384)
(-0.0148894 -0.0127073 1.46444)
(-0.0134779 -0.0147689 1.40824)
(0.00385963 -0.0142928 1.42737)
(0.00227397 -0.0123374 1.45512)
(-0.00112765 -0.0101054 1.41984)
(-0.00579561 -0.0089578 1.3811)
(-0.0102971 -0.00987933 1.38254)
(-0.0133989 -0.0126497 1.4237)
(-0.0139379 -0.0158318 1.45987)
(-0.0121679 -0.0178573 1.43133)
(0.00186502 -0.0179904 1.42629)
(0.000587525 -0.0165924 1.43273)