/*--------------------------------*- C++ -*----------------------------------*\
| =========                 |                                                 |
| \\      /  F ield         | OpenFOAM: The Open Source CFD Toolbox           |
|  \\    /   O peration     | Version:  2406                                  |
|   \\  /    A nd           | Website:  www.openfoam.com                      |
|    \\/     M anipulation  |                                                 |
\*---------------------------------------------------------------------------*/
FoamFile
{
    version     2.0;
    format      ascii;
    arch        "LSB;label=32;scalar=64";
    class       volVectorField;
    location    "6.1";
    object      U;
}
// * * * * * * * * * * * * * * * * * * * * * * * * * * * * * * * * * * * * * //

dimensions      [0 1 -1 0 0 0 0];

internalField   nonuniform List<vector> 
16000
(
(0.153132 0.153132 1.11474)
(0.117573 0.168169 1.1542)
(0.072459 0.17688 1.17285)
(0.0244946 0.180953 1.18018)
(-0.0244946 0.180953 1.18018)
(-0.072459 0.17688 1.17285)
(-0.117573 0.168169 1.1542)
(-0.153132 0.153132 1.11474)
(0.168169 0.117573 1.1542)
(0.126109 0.126109 1.18728)
(0.0766337 0.131081 1.19757)
(0.0257137 0.133402 1.19978)
(-0.0257137 0.133402 1.19978)
(-0.0766337 0.131081 1.19757)
(-0.126109 0.126109 1.18728)
(-0.168169 0.117573 1.1542)
(0.17688 0.072459 1.17285)
(0.131081 0.0766337 1.19757)
(0.0792027 0.0792027 1.20176)
(0.0264749 0.0803911 1.20065)
(-0.0264749 0.0803911 1.20065)
(-0.0792027 0.0792027 1.20176)
(-0.131081 0.0766337 1.19757)
(-0.17688 0.072459 1.17285)
(0.180953 0.0244946 1.18018)
(0.133402 0.0257137 1.19978)
(0.0803911 0.0264749 1.20065)
(0.0268183 0.0268183 1.1979)
(-0.0268183 0.0268183 1.1979)
(-0.0803911 0.0264749 1.20065)
(-0.133402 0.0257137 1.19978)
(-0.180953 0.0244946 1.18018)
(0.180953 -0.0244946 1.18018)
(0.133402 -0.0257137 1.19978)
(0.0803911 -0.0264749 1.20065)
(0.0268183 -0.0268183 1.1979)
(-0.0268183 -0.0268183 1.1979)
(-0.0803911 -0.0264749 1.20065)
(-0.133402 -0.0257137 1.19978)
(-0.180953 -0.0244946 1.18018)
(0.17688 -0.072459 1.17285)
(0.131081 -0.0766337 1.19757)
(0.0792027 -0.0792027 1.20176)
(0.0264749 -0.0803911 1.20065)
(-0.0264749 -0.0803911 1.20065)
(-0.0792027 -0.0792027 1.20176)
(-0.131081 -0.0766337 1.19757)
(-0.17688 -0.072459 1.17285)
(0.168169 -0.117573 1.1542)
(0.126109 -0.126109 1.18728)
(0.0766337 -0.131081 1.19757)
(0.0257137 -0.133402 1.19978)
(-0.0257137 -0.133402 1.19978)
(-0.0766337 -0.131081 1.19757)
(-0.126109 -0.126109 1.18728)
(-0.168169 -0.117573 1.1542)
(0.153132 -0.153132 1.11474)
(0.117573 -0.168169 1.1542)
(0.072459 -0.17688 1.17285)
(0.0244946 -0.180953 1.18018)
(-0.0244946 -0.180953 1.18018)
(-0.072459 -0.17688 1.17285)
(-0.117573 -0.168169 1.1542)
(-0.153132 -0.153132 1.11474)
(0.0494154 0.0494154 1.29062)
(0.0414003 0.0615755 1.3895)
(0.0279271 0.0703803 1.44408)
(0.00984083 0.075171 1.46809)
(-0.00984083 0.075171 1.46809)
(-0.027927 0.0703803 1.44408)
(-0.0414003 0.0615755 1.3895)
(-0.0494154 0.0494154 1.29062)
(0.0615755 0.0414003 1.3895)
(0.0531611 0.0531611 1.48728)
(0.0357288 0.0616406 1.53241)
(0.0125458 0.0660227 1.54992)
(-0.0125458 0.0660227 1.54992)
(-0.0357288 0.0616406 1.53241)
(-0.0531611 0.0531611 1.48728)
(-0.0615755 0.0414003 1.3895)
(0.0703803 0.0279271 1.44408)
(0.0616406 0.0357288 1.53241)
(0.0413007 0.0413007 1.57006)
(0.0144349 0.0441146 1.5832)
(-0.0144349 0.0441146 1.5832)
(-0.0413007 0.0413007 1.57006)
(-0.0616406 0.0357288 1.53241)
(-0.0703803 0.0279271 1.44408)
(0.075171 0.00984083 1.46809)
(0.0660227 0.0125458 1.54992)
(0.0441146 0.0144349 1.5832)
(0.0153734 0.0153734 1.59386)
(-0.0153734 0.0153734 1.59386)
(-0.0441146 0.0144349 1.5832)
(-0.0660227 0.0125458 1.54992)
(-0.075171 0.00984083 1.46809)
(0.075171 -0.00984083 1.46809)
(0.0660227 -0.0125458 1.54992)
(0.0441146 -0.0144349 1.5832)
(0.0153734 -0.0153734 1.59386)
(-0.0153734 -0.0153734 1.59386)
(-0.0441146 -0.0144349 1.5832)
(-0.0660227 -0.0125458 1.54992)
(-0.075171 -0.00984083 1.46809)
(0.0703803 -0.027927 1.44408)
(0.0616406 -0.0357288 1.53241)
(0.0413007 -0.0413007 1.57006)
(0.0144349 -0.0441146 1.5832)
(-0.0144349 -0.0441146 1.5832)
(-0.0413007 -0.0413007 1.57006)
(-0.0616406 -0.0357288 1.53241)
(-0.0703803 -0.027927 1.44408)
(0.0615755 -0.0414003 1.3895)
(0.0531611 -0.0531611 1.48728)
(0.0357288 -0.0616406 1.53241)
(0.0125458 -0.0660227 1.54992)
(-0.0125458 -0.0660227 1.54992)
(-0.0357288 -0.0616406 1.53241)
(-0.0531611 -0.0531611 1.48728)
(-0.0615755 -0.0414003 1.3895)
(0.0494154 -0.0494154 1.29062)
(0.0414003 -0.0615755 1.3895)
(0.027927 -0.0703803 1.44408)
(0.00984083 -0.075171 1.46809)
(-0.00984083 -0.075171 1.46809)
(-0.027927 -0.0703803 1.44408)
(-0.0414003 -0.0615755 1.3895)
(-0.0494154 -0.0494154 1.29062)
(0.0295334 0.0295334 1.18369)
(0.0263057 0.0381217 1.33605)
(0.0179588 0.0440247 1.43119)
(0.00638113 0.0472238 1.47636)
(-0.00638113 0.0472238 1.47636)
(-0.0179588 0.0440247 1.43119)
(-0.0263057 0.0381217 1.33605)
(-0.0295334 0.0295334 1.18369)
(0.0381217 0.0263057 1.33605)
(0.03387 0.03387 1.50686)
(0.0231033 0.0393329 1.60045)
(0.00819889 0.042227 1.64149)
(-0.00819889 0.042227 1.64149)
(-0.0231033 0.0393329 1.60045)
(-0.03387 0.03387 1.50686)
(-0.0381217 0.0263057 1.33605)
(0.0440247 0.0179588 1.43119)
(0.0393329 0.0231033 1.60045)
(0.0268026 0.0268026 1.68906)
(0.00948465 0.028713 1.72654)
(-0.00948465 0.028713 1.72654)
(-0.0268026 0.0268026 1.68906)
(-0.0393329 0.0231033 1.60045)
(-0.0440247 0.0179588 1.43119)
(0.0472238 0.00638113 1.47636)
(0.042227 0.00819889 1.64149)
(0.028713 0.00948465 1.72654)
(0.0101528 0.0101528 1.76219)
(-0.0101528 0.0101528 1.76219)
(-0.028713 0.00948465 1.72654)
(-0.042227 0.00819889 1.64149)
(-0.0472238 0.00638113 1.47636)
(0.0472238 -0.00638113 1.47636)
(0.042227 -0.00819889 1.64149)
(0.028713 -0.00948464 1.72654)
(0.0101528 -0.0101528 1.76219)
(-0.0101528 -0.0101528 1.76219)
(-0.028713 -0.00948464 1.72654)
(-0.042227 -0.00819889 1.64149)
(-0.0472238 -0.00638113 1.47636)
(0.0440247 -0.0179588 1.43119)
(0.0393329 -0.0231033 1.60045)
(0.0268026 -0.0268026 1.68906)
(0.00948465 -0.028713 1.72654)
(-0.00948465 -0.028713 1.72654)
(-0.0268026 -0.0268026 1.68906)
(-0.0393329 -0.0231033 1.60045)
(-0.0440247 -0.0179588 1.43119)
(0.0381217 -0.0263057 1.33605)
(0.03387 -0.03387 1.50686)
(0.0231033 -0.0393329 1.60045)
(0.00819889 -0.042227 1.64149)
(-0.00819889 -0.042227 1.64149)
(-0.0231033 -0.0393329 1.60045)
(-0.03387 -0.03387 1.50686)
(-0.0381217 -0.0263057 1.33605)
(0.0295334 -0.0295334 1.18369)
(0.0263057 -0.0381217 1.33605)
(0.0179588 -0.0440247 1.43119)
(0.00638113 -0.0472238 1.47636)
(-0.00638113 -0.0472238 1.47636)
(-0.0179588 -0.0440247 1.43119)
(-0.0263057 -0.0381217 1.33605)
(-0.0295334 -0.0295334 1.18369)
(0.00607788 0.00607788 1.17735)
(0.00678721 0.00932593 1.34012)
(0.00531535 0.0121436 1.44756)
(0.00200434 0.0137879 1.50053)
(-0.00200434 0.0137879 1.50053)
(-0.00531535 0.0121436 1.44756)
(-0.00678721 0.00932593 1.34012)
(-0.00607788 0.00607788 1.17735)
(0.00932593 0.00678721 1.34012)
(0.0106419 0.010642 1.53329)
(0.0082524 0.0137676 1.64786)
(0.00308277 0.0154575 1.70082)
(-0.00308277 0.0154575 1.70082)
(-0.0082524 0.0137676 1.64786)
(-0.010642 0.010642 1.53329)
(-0.00932593 0.00678721 1.34012)
(0.0121436 0.00531535 1.44756)
(0.0137676 0.0082524 1.64786)
(0.0104758 0.0104758 1.76219)
(0.00386311 0.0115575 1.81303)
(-0.00386311 0.0115575 1.81303)
(-0.0104758 0.0104758 1.76219)
(-0.0137676 0.0082524 1.64786)
(-0.0121436 0.00531535 1.44756)
(0.0137879 0.00200435 1.50053)
(0.0154575 0.00308277 1.70082)
(0.0115575 0.00386311 1.81303)
(0.00421153 0.00421154 1.8613)
(-0.00421153 0.00421154 1.8613)
(-0.0115575 0.00386311 1.81303)
(-0.0154575 0.00308277 1.70082)
(-0.0137879 0.00200435 1.50053)
(0.0137879 -0.00200434 1.50053)
(0.0154575 -0.00308276 1.70082)
(0.0115575 -0.0038631 1.81303)
(0.00421153 -0.00421153 1.8613)
(-0.00421153 -0.00421153 1.8613)
(-0.0115575 -0.0038631 1.81303)
(-0.0154575 -0.00308276 1.70082)
(-0.0137879 -0.00200434 1.50053)
(0.0121436 -0.00531535 1.44756)
(0.0137676 -0.00825239 1.64786)
(0.0104758 -0.0104758 1.76219)
(0.00386311 -0.0115575 1.81303)
(-0.00386311 -0.0115575 1.81303)
(-0.0104758 -0.0104758 1.76219)
(-0.0137676 -0.00825239 1.64786)
(-0.0121436 -0.00531535 1.44756)
(0.00932593 -0.00678721 1.34012)
(0.0106419 -0.0106419 1.53329)
(0.0082524 -0.0137676 1.64786)
(0.00308277 -0.0154575 1.70082)
(-0.00308277 -0.0154575 1.70082)
(-0.0082524 -0.0137676 1.64786)
(-0.010642 -0.0106419 1.53329)
(-0.00932593 -0.00678721 1.34012)
(0.00607788 -0.00607788 1.17735)
(0.00678721 -0.00932592 1.34012)
(0.00531535 -0.0121436 1.44756)
(0.00200434 -0.0137879 1.50053)
(-0.00200434 -0.0137879 1.50053)
(-0.00531535 -0.0121436 1.44756)
(-0.00678721 -0.00932593 1.34012)
(-0.00607788 -0.00607788 1.17735)
(0.00420928 0.00420929 1.15879)
(0.00417758 0.00573707 1.32761)
(0.00305281 0.00697193 1.44156)
(0.00112169 0.00767951 1.4987)
(-0.00112169 0.00767951 1.4987)
(-0.00305281 0.00697193 1.44156)
(-0.00417758 0.00573707 1.32761)
(-0.00420929 0.00420928 1.15879)
(0.00573707 0.00417758 1.32761)
(0.0058271 0.00582711 1.53244)
(0.00432306 0.00720708 1.65824)
(0.00159285 0.00796351 1.71788)
(-0.00159285 0.00796351 1.71788)
(-0.00432306 0.00720708 1.65824)
(-0.0058271 0.0058271 1.53244)
(-0.00573707 0.00417758 1.32761)
(0.00697193 0.00305281 1.44156)
(0.00720707 0.00432306 1.65824)
(0.00533722 0.00533722 1.7871)
(0.00194952 0.00580511 1.84585)
(-0.00194952 0.00580511 1.84585)
(-0.00533722 0.00533722 1.7871)
(-0.00720707 0.00432306 1.65824)
(-0.00697193 0.00305281 1.44156)
(0.00767951 0.00112169 1.4987)
(0.00796351 0.00159285 1.71788)
(0.00580511 0.00194952 1.84585)
(0.00208328 0.00208329 1.90127)
(-0.00208328 0.00208328 1.90127)
(-0.00580511 0.00194952 1.84585)
(-0.00796351 0.00159285 1.71788)
(-0.00767951 0.00112169 1.4987)
(0.00767951 -0.00112169 1.4987)
(0.00796351 -0.00159285 1.71788)
(0.00580511 -0.00194951 1.84585)
(0.00208328 -0.00208328 1.90127)
(-0.00208328 -0.00208328 1.90127)
(-0.00580511 -0.00194951 1.84585)
(-0.00796351 -0.00159285 1.71788)
(-0.00767951 -0.00112169 1.4987)
(0.00697193 -0.00305281 1.44156)
(0.00720707 -0.00432305 1.65824)
(0.00533722 -0.00533722 1.7871)
(0.00194952 -0.0058051 1.84585)
(-0.00194952 -0.0058051 1.84585)
(-0.00533722 -0.00533722 1.7871)
(-0.00720707 -0.00432305 1.65824)
(-0.00697193 -0.00305281 1.44156)
(0.00573707 -0.00417758 1.32761)
(0.0058271 -0.0058271 1.53244)
(0.00432306 -0.00720707 1.65824)
(0.00159285 -0.0079635 1.71788)
(-0.00159285 -0.0079635 1.71788)
(-0.00432306 -0.00720707 1.65824)
(-0.0058271 -0.0058271 1.53244)
(-0.00573707 -0.00417758 1.32761)
(0.00420928 -0.00420928 1.15879)
(0.00417758 -0.00573707 1.32761)
(0.00305281 -0.00697193 1.44156)
(0.00112169 -0.00767951 1.4987)
(-0.00112169 -0.00767951 1.4987)
(-0.00305281 -0.00697193 1.44156)
(-0.00417758 -0.00573707 1.32761)
(-0.00420928 -0.00420928 1.15879)
(0.00130174 0.00130174 1.15563)
(0.00140465 0.00190345 1.3259)
(0.00109256 0.00244352 1.44189)
(0.000412967 0.00276631 1.50046)
(-0.000412967 0.00276631 1.50046)
(-0.00109256 0.00244352 1.44189)
(-0.00140465 0.00190345 1.3259)
(-0.00130174 0.00130174 1.15563)
(0.00190345 0.00140465 1.3259)
(0.00214529 0.0021453 1.53424)
(0.0016872 0.00280356 1.66415)
(0.000637026 0.00317699 1.72646)
(-0.000637026 0.00317699 1.72646)
(-0.0016872 0.00280356 1.66415)
(-0.0021453 0.0021453 1.53424)
(-0.00190345 0.00140465 1.3259)
(0.00244352 0.00109257 1.44189)
(0.00280355 0.0016872 1.66415)
(0.00219038 0.00219038 1.7989)
(0.000816972 0.0024356 1.86114)
(-0.000816972 0.0024356 1.86114)
(-0.00219038 0.00219038 1.7989)
(-0.00280356 0.0016872 1.66415)
(-0.00244352 0.00109257 1.44189)
(0.00276631 0.00041297 1.50046)
(0.00317699 0.000637029 1.72646)
(0.0024356 0.000816975 1.86114)
(0.000886492 0.000886495 1.91993)
(-0.000886493 0.000886495 1.91993)
(-0.0024356 0.000816975 1.86114)
(-0.00317699 0.000637029 1.72646)
(-0.00276631 0.00041297 1.50046)
(0.00276631 -0.000412964 1.50046)
(0.00317699 -0.000637022 1.72646)
(0.0024356 -0.000816969 1.86114)
(0.000886492 -0.00088649 1.91993)
(-0.000886493 -0.00088649 1.91993)
(-0.0024356 -0.000816969 1.86114)
(-0.00317699 -0.000637022 1.72646)
(-0.00276631 -0.000412964 1.50046)
(0.00244352 -0.00109256 1.44189)
(0.00280355 -0.00168719 1.66415)
(0.00219038 -0.00219038 1.7989)
(0.000816972 -0.00243559 1.86114)
(-0.000816972 -0.00243559 1.86114)
(-0.00219038 -0.00219038 1.7989)
(-0.00280356 -0.00168719 1.66415)
(-0.00244352 -0.00109256 1.44189)
(0.00190345 -0.00140464 1.3259)
(0.00214529 -0.00214529 1.53424)
(0.0016872 -0.00280355 1.66415)
(0.000637026 -0.00317699 1.72646)
(-0.000637026 -0.00317699 1.72646)
(-0.0016872 -0.00280355 1.66415)
(-0.00214529 -0.00214529 1.53424)
(-0.00190345 -0.00140465 1.3259)
(0.00130174 -0.00130174 1.15563)
(0.00140465 -0.00190345 1.3259)
(0.00109256 -0.00244351 1.44189)
(0.000412967 -0.00276631 1.50046)
(-0.000412967 -0.00276631 1.50046)
(-0.00109256 -0.00244352 1.44189)
(-0.00140465 -0.00190345 1.3259)
(-0.00130174 -0.00130174 1.15563)
(0.000792204 0.000792205 1.15296)
(0.000788355 0.00108156 1.32433)
(0.000581398 0.00132234 1.44146)
(0.000214721 0.00146385 1.50077)
(-0.000214719 0.00146385 1.50077)
(-0.000581397 0.00132234 1.44146)
(-0.000788354 0.00108156 1.32433)
(-0.000792205 0.000792205 1.15296)
(0.00108156 0.000788358 1.32433)
(0.00110842 0.00110842 1.53467)
(0.000833461 0.00139004 1.66657)
(0.000309536 0.00155285 1.73013)
(-0.000309535 0.00155285 1.73013)
(-0.00083346 0.00139004 1.66657)
(-0.00110842 0.00110842 1.53467)
(-0.00108156 0.000788357 1.32433)
(0.00132233 0.000581402 1.44146)
(0.00139004 0.000833465 1.66657)
(0.00105205 0.00105206 1.80409)
(0.000388559 0.00116372 1.86797)
(-0.000388558 0.00116372 1.86797)
(-0.00105205 0.00105206 1.80409)
(-0.00139004 0.000833464 1.66657)
(-0.00132234 0.000581401 1.44146)
(0.00146384 0.000214725 1.50077)
(0.00155285 0.00030954 1.73013)
(0.00116372 0.000388563 1.86797)
(0.000420373 0.000420376 1.92846)
(-0.000420372 0.000420376 1.92846)
(-0.00116372 0.000388563 1.86797)
(-0.00155285 0.00030954 1.73013)
(-0.00146385 0.000214724 1.50077)
(0.00146384 -0.000214715 1.50077)
(0.00155285 -0.00030953 1.73013)
(0.00116372 -0.000388554 1.86797)
(0.000420373 -0.000420369 1.92846)
(-0.000420372 -0.000420369 1.92846)
(-0.00116372 -0.000388555 1.86797)
(-0.00155285 -0.000309531 1.73013)
(-0.00146385 -0.000214716 1.50077)
(0.00132233 -0.000581393 1.44146)
(0.00139004 -0.000833456 1.66657)
(0.00105205 -0.00105205 1.80409)
(0.000388559 -0.00116372 1.86797)
(-0.000388559 -0.00116372 1.86797)
(-0.00105205 -0.00105205 1.80409)
(-0.00139004 -0.000833456 1.66657)
(-0.00132233 -0.000581394 1.44146)
(0.00108156 -0.000788349 1.32433)
(0.00110841 -0.00110841 1.53467)
(0.00083346 -0.00139004 1.66657)
(0.000309535 -0.00155284 1.73013)
(-0.000309535 -0.00155284 1.73013)
(-0.00083346 -0.00139004 1.66657)
(-0.00110842 -0.00110841 1.53467)
(-0.00108156 -0.00078835 1.32433)
(0.000792201 -0.0007922 1.15296)
(0.000788352 -0.00108155 1.32433)
(0.000581397 -0.00132233 1.44146)
(0.00021472 -0.00146384 1.50077)
(-0.00021472 -0.00146384 1.50077)
(-0.000581398 -0.00132233 1.44146)
(-0.000788353 -0.00108156 1.32433)
(-0.000792203 -0.000792202 1.15296)
(0.000340735 0.000340736 1.1521)
(0.000347864 0.000479672 1.32392)
(0.000260863 0.000598211 1.44154)
(9.69831e-05 0.000668247 1.50117)
(-9.69838e-05 0.000668247 1.50117)
(-0.000260864 0.000598211 1.44154)
(-0.000347866 0.000479672 1.32392)
(-0.000340738 0.000340738 1.1521)
(0.000479667 0.000347868 1.32392)
(0.000505477 0.000505482 1.53513)
(0.000384178 0.00064285 1.6679)
(0.000143137 0.000722071 1.732)
(-0.000143138 0.000722071 1.732)
(-0.000384179 0.00064285 1.6679)
(-0.000505479 0.000505482 1.53513)
(-0.000479671 0.000347869 1.32392)
(0.000598205 0.000260867 1.44154)
(0.000642845 0.000384184 1.6679)
(0.000489664 0.000489669 1.80663)
(0.0001812 0.000544341 1.87124)
(-0.0001812 0.000544341 1.87124)
(-0.000489665 0.000489669 1.80663)
(-0.000642846 0.000384184 1.6679)
(-0.000598208 0.000260868 1.44154)
(0.00066824 9.69879e-05 1.50117)
(0.000722066 0.000143142 1.732)
(0.000544337 0.000181205 1.87124)
(0.000196974 0.000196979 1.93251)
(-0.000196975 0.000196979 1.93251)
(-0.000544337 0.000181205 1.87124)
(-0.000722067 0.000143143 1.732)
(-0.000668243 9.69882e-05 1.50117)
(0.00066824 -9.69792e-05 1.50117)
(0.000722066 -0.000143133 1.732)
(0.000544337 -0.000181196 1.87124)
(0.000196974 -0.000196971 1.93251)
(-0.000196975 -0.000196971 1.93251)
(-0.000544337 -0.000181196 1.87124)
(-0.000722067 -0.000143133 1.732)
(-0.000668242 -9.6979e-05 1.50117)
(0.000598205 -0.000260859 1.44154)
(0.000642845 -0.000384174 1.6679)
(0.000489664 -0.00048966 1.80663)
(0.0001812 -0.000544333 1.87124)
(-0.0001812 -0.000544333 1.87124)
(-0.000489664 -0.00048966 1.80663)
(-0.000642845 -0.000384174 1.6679)
(-0.000598207 -0.000260859 1.44154)
(0.000479666 -0.000347861 1.32392)
(0.000505477 -0.000505474 1.53513)
(0.000384178 -0.000642841 1.6679)
(0.000143137 -0.000722063 1.732)
(-0.000143138 -0.000722063 1.732)
(-0.000384179 -0.000642842 1.6679)
(-0.000505478 -0.000505474 1.53513)
(-0.000479668 -0.000347861 1.32392)
(0.000340734 -0.000340733 1.1521)
(0.000347864 -0.000479664 1.32392)
(0.000260863 -0.000598203 1.44154)
(9.69832e-05 -0.000668238 1.50117)
(-9.69838e-05 -0.000668239 1.50117)
(-0.000260863 -0.000598204 1.44154)
(-0.000347864 -0.000479666 1.32392)
(-0.000340735 -0.000340734 1.1521)
(0.000183378 0.00018338 1.15155)
(0.000182636 0.000252986 1.32363)
(0.0001345 0.00031088 1.44151)
(4.95865e-05 0.000344804 1.5013)
(-4.95829e-05 0.000344803 1.5013)
(-0.000134497 0.000310878 1.44151)
(-0.000182634 0.000252983 1.32363)
(-0.000183378 0.000183379 1.15155)
(0.000252981 0.00018264 1.32363)
(0.000258956 0.000258961 1.5353)
(0.000193546 0.000324769 1.66852)
(7.15914e-05 0.000362584 1.73289)
(-7.15882e-05 0.000362584 1.73289)
(-0.000193544 0.000324768 1.66852)
(-0.000258954 0.000258959 1.5353)
(-0.000252982 0.000182638 1.32363)
(0.000310874 0.000134505 1.44151)
(0.000324764 0.000193552 1.66852)
(0.000243696 0.000243701 1.80785)
(8.96181e-05 0.000269588 1.87281)
(-8.96158e-05 0.000269588 1.87281)
(-0.000243694 0.0002437 1.80785)
(-0.000324763 0.00019355 1.66852)
(-0.000310876 0.000134503 1.44151)
(0.000344798 4.9591e-05 1.5013)
(0.000362579 7.15965e-05 1.73289)
(0.000269583 8.96228e-05 1.87281)
(9.70177e-05 9.70219e-05 1.93446)
(-9.70161e-05 9.70217e-05 1.93446)
(-0.000269582 8.9622e-05 1.87281)
(-0.000362579 7.15953e-05 1.73289)
(-0.0003448 4.95897e-05 1.5013)
(0.000344797 -4.95786e-05 1.5013)
(0.000362579 -7.15833e-05 1.73289)
(0.000269583 -8.96113e-05 1.87281)
(9.70175e-05 -9.70121e-05 1.93446)
(-9.70163e-05 -9.70123e-05 1.93446)
(-0.000269582 -8.96119e-05 1.87281)
(-0.000362579 -7.15843e-05 1.73289)
(-0.0003448 -4.95797e-05 1.5013)
(0.000310873 -0.000134493 1.44151)
(0.000324763 -0.000193539 1.66852)
(0.000243696 -0.00024369 1.80785)
(8.96174e-05 -0.000269578 1.87281)
(-8.96165e-05 -0.000269578 1.87281)
(-0.000243695 -0.00024369 1.80785)
(-0.000324763 -0.00019354 1.66852)
(-0.000310875 -0.000134494 1.44151)
(0.000252978 -0.000182629 1.32363)
(0.000258954 -0.000258949 1.5353)
(0.000193545 -0.000324759 1.66852)
(7.15901e-05 -0.000362574 1.73289)
(-7.15894e-05 -0.000362574 1.73289)
(-0.000193545 -0.000324759 1.66852)
(-0.000258954 -0.00025895 1.5353)
(-0.00025298 -0.000182631 1.32363)
(0.000183374 -0.000183373 1.15155)
(0.000182633 -0.000252975 1.32363)
(0.000134498 -0.000310869 1.44151)
(4.95849e-05 -0.000344794 1.5013)
(-4.95844e-05 -0.000344794 1.5013)
(-0.000134498 -0.00031087 1.44151)
(-0.000182633 -0.000252977 1.32363)
(-0.000183376 -0.000183375 1.15155)
(8.67709e-05 8.67727e-05 1.15132)
(8.77094e-05 0.000121325 1.32351)
(6.52143e-05 0.000150478 1.44152)
(2.41382e-05 0.000167611 1.50139)
(-2.41363e-05 0.00016761 1.50139)
(-6.52128e-05 0.000150477 1.44152)
(-8.77085e-05 0.000121323 1.32351)
(-8.67714e-05 8.67723e-05 1.15132)
(0.000121318 8.77136e-05 1.32351)
(0.000126291 0.000126297 1.53541)
(9.51091e-05 0.000159577 1.66884)
(3.52685e-05 0.000178636 1.73335)
(-3.52668e-05 0.000178635 1.73335)
(-9.51078e-05 0.000159576 1.66884)
(-0.00012629 0.000126296 1.53541)
(-0.00012132 8.7713e-05 1.32351)
(0.000150469 6.52193e-05 1.44152)
(0.000159571 9.5115e-05 1.66884)
(0.000120352 0.000120357 1.80847)
(4.43135e-05 0.000133317 1.8736)
(-4.43124e-05 0.000133317 1.8736)
(-0.000120351 0.000120357 1.80847)
(-0.000159571 9.51143e-05 1.66884)
(-0.000150471 6.52188e-05 1.44152)
(0.000167602 2.4143e-05 1.50139)
(0.00017863 3.5274e-05 1.73335)
(0.000133312 4.43186e-05 1.8736)
(4.8003e-05 4.80076e-05 1.93544)
(-4.80022e-05 4.80075e-05 1.93544)
(-0.000133311 4.43182e-05 1.8736)
(-0.000178629 3.52735e-05 1.73335)
(-0.000167603 2.41426e-05 1.50139)
(0.000167602 -2.41321e-05 1.50139)
(0.00017863 -3.52619e-05 1.73335)
(0.000133312 -4.43078e-05 1.8736)
(4.80029e-05 -4.79981e-05 1.93544)
(-4.80024e-05 -4.79982e-05 1.93544)
(-0.000133311 -4.43081e-05 1.8736)
(-0.000178629 -3.52623e-05 1.73335)
(-0.000167603 -2.41324e-05 1.50139)
(0.000150469 -6.52091e-05 1.44152)
(0.000159571 -9.51035e-05 1.66884)
(0.000120351 -0.000120347 1.80847)
(4.43132e-05 -0.000133307 1.8736)
(-4.43128e-05 -0.000133307 1.8736)
(-0.000120351 -0.000120347 1.80847)
(-0.00015957 -9.51038e-05 1.66884)
(-0.000150469 -6.52094e-05 1.44152)
(0.000121317 -8.77043e-05 1.32351)
(0.00012629 -0.000126286 1.53541)
(9.51087e-05 -0.000159567 1.66884)
(3.52679e-05 -0.000178626 1.73335)
(-3.52675e-05 -0.000178626 1.73335)
(-9.51084e-05 -0.000159567 1.66884)
(-0.00012629 -0.000126287 1.53541)
(-0.000121317 -8.77048e-05 1.32351)
(8.67678e-05 -8.67668e-05 1.15132)
(8.77077e-05 -0.000121314 1.32351)
(6.52137e-05 -0.000150467 1.44152)
(2.41375e-05 -0.0001676 1.50139)
(-2.41373e-05 -0.0001676 1.50139)
(-6.52135e-05 -0.000150467 1.44152)
(-8.77076e-05 -0.000121315 1.32351)
(-8.67682e-05 -8.67674e-05 1.15132)
(4.52186e-05 4.52207e-05 1.15119)
(4.53642e-05 6.27498e-05 1.32345)
(3.35607e-05 7.74237e-05 1.44152)
(1.2398e-05 8.60292e-05 1.50143)
(-1.23922e-05 8.60279e-05 1.50143)
(-3.35554e-05 7.742e-05 1.44152)
(-4.53593e-05 6.27437e-05 1.32345)
(-4.52154e-05 4.52165e-05 1.15119)
(6.27432e-05 4.53682e-05 1.32345)
(6.47567e-05 6.47625e-05 1.53546)
(4.85782e-05 8.14857e-05 1.669)
(1.79895e-05 9.10627e-05 1.73357)
(-1.79846e-05 9.1062e-05 1.73357)
(-4.85739e-05 8.14833e-05 1.669)
(-6.47533e-05 6.47586e-05 1.53546)
(-6.27422e-05 4.53643e-05 1.32345)
(7.74166e-05 3.35652e-05 1.44152)
(8.148e-05 4.85836e-05 1.669)
(6.12729e-05 6.1278e-05 1.80878)
(2.25358e-05 6.77835e-05 1.874)
(-2.25325e-05 6.7783e-05 1.874)
(-6.127e-05 6.12764e-05 1.80878)
(-8.1478e-05 4.8581e-05 1.669)
(-7.74169e-05 3.35623e-05 1.44152)
(8.60221e-05 1.24023e-05 1.50143)
(9.10574e-05 1.79946e-05 1.73357)
(6.77788e-05 2.25406e-05 1.874)
(2.43788e-05 2.4383e-05 1.93593)
(-2.43766e-05 2.43826e-05 1.93593)
(-6.77769e-05 2.25393e-05 1.874)
(-9.10561e-05 1.79925e-05 1.73357)
(-8.60234e-05 1.23999e-05 1.50143)
(8.60213e-05 -1.23882e-05 1.50143)
(9.10568e-05 -1.79799e-05 1.73357)
(6.77784e-05 -2.25282e-05 1.874)
(2.43784e-05 -2.43727e-05 1.93593)
(-2.4377e-05 -2.4373e-05 1.93593)
(-6.77771e-05 -2.25291e-05 1.874)
(-9.10562e-05 -1.79815e-05 1.73357)
(-8.60234e-05 -1.23902e-05 1.50143)
(7.7414e-05 -3.35517e-05 1.44152)
(8.14783e-05 -4.85696e-05 1.669)
(6.12716e-05 -6.12658e-05 1.80878)
(2.25347e-05 -6.77729e-05 1.874)
(-2.25336e-05 -6.77732e-05 1.874)
(-6.12707e-05 -6.12665e-05 1.80878)
(-8.14781e-05 -4.85708e-05 1.669)
(-7.74166e-05 -3.35532e-05 1.44152)
(6.27381e-05 -4.53551e-05 1.32345)
(6.47534e-05 -6.47485e-05 1.53546)
(4.85759e-05 -8.14735e-05 1.669)
(1.79873e-05 -9.10519e-05 1.73357)
(-1.79866e-05 -9.10521e-05 1.73357)
(-4.85754e-05 -8.14741e-05 1.669)
(-6.47535e-05 -6.47496e-05 1.53546)
(-6.27409e-05 -4.53567e-05 1.32345)
(4.52115e-05 -4.52108e-05 1.15119)
(4.53591e-05 -6.27353e-05 1.32345)
(3.35576e-05 -7.74106e-05 1.44152)
(1.23952e-05 -8.60175e-05 1.50143)
(-1.23947e-05 -8.60178e-05 1.50143)
(-3.35573e-05 -7.74117e-05 1.44152)
(-4.53595e-05 -6.27373e-05 1.32345)
(-4.52137e-05 -4.52131e-05 1.15119)
(2.23413e-05 2.23423e-05 1.15113)
(2.2562e-05 3.11674e-05 1.32341)
(1.67709e-05 3.86066e-05 1.44152)
(6.2085e-06 4.29808e-05 1.50145)
(-6.20872e-06 4.29808e-05 1.50145)
(-1.67713e-05 3.86064e-05 1.44152)
(-2.25629e-05 3.11671e-05 1.32341)
(-2.23427e-05 2.2343e-05 1.15113)
(3.11626e-05 2.25653e-05 1.32341)
(3.24197e-05 3.24243e-05 1.53548)
(2.44302e-05 4.09517e-05 1.66908)
(9.06387e-06 4.58415e-05 1.73369)
(-9.06414e-06 4.58415e-05 1.73369)
(-2.44307e-05 4.09516e-05 1.66908)
(-3.24207e-05 3.24242e-05 1.53548)
(-3.11652e-05 2.25658e-05 1.32341)
(3.86008e-05 1.67752e-05 1.44152)
(4.09472e-05 2.44351e-05 1.66908)
(3.09175e-05 3.0922e-05 1.80894)
(1.13896e-05 3.42529e-05 1.8742)
(-1.139e-05 3.42529e-05 1.8742)
(-3.09181e-05 3.09219e-05 1.80894)
(-4.09481e-05 2.4435e-05 1.66908)
(-3.86029e-05 1.67753e-05 1.44152)
(4.29747e-05 6.21295e-06 1.50145)
(4.58371e-05 9.06879e-06 1.73369)
(3.42487e-05 1.1394e-05 1.8742)
(1.23354e-05 1.23393e-05 1.93618)
(-1.23359e-05 1.23393e-05 1.93618)
(-3.42493e-05 1.13939e-05 1.8742)
(-4.58378e-05 9.06867e-06 1.73369)
(-4.29763e-05 6.21298e-06 1.50145)
(4.29746e-05 -6.20454e-06 1.50145)
(4.5837e-05 -9.05953e-06 1.73369)
(3.42487e-05 -1.13859e-05 1.8742)
(1.23354e-05 -1.23322e-05 1.93618)
(-1.2336e-05 -1.23322e-05 1.93618)
(-3.42493e-05 -1.1386e-05 1.8742)
(-4.58377e-05 -9.05968e-06 1.73369)
(-4.29758e-05 -6.20462e-06 1.50145)
(3.86006e-05 -1.67675e-05 1.44152)
(4.0947e-05 -2.44265e-05 1.66908)
(3.09175e-05 -3.09142e-05 1.80894)
(1.13895e-05 -3.42457e-05 1.8742)
(-1.13902e-05 -3.42458e-05 1.8742)
(-3.09181e-05 -3.09143e-05 1.80894)
(-4.09476e-05 -2.44266e-05 1.66908)
(-3.86014e-05 -1.67677e-05 1.44152)
(3.11617e-05 -2.25586e-05 1.32341)
(3.24194e-05 -3.24163e-05 1.53548)
(2.44301e-05 -4.09443e-05 1.66908)
(9.06369e-06 -4.58344e-05 1.73369)
(-9.06444e-06 -4.58345e-05 1.73369)
(-2.44309e-05 -4.09446e-05 1.66908)
(-3.24199e-05 -3.24168e-05 1.53548)
(-3.11623e-05 -2.25591e-05 1.32341)
(2.23389e-05 -2.23382e-05 1.15113)
(2.2561e-05 -3.11598e-05 1.32341)
(1.67708e-05 -3.85988e-05 1.44152)
(6.20829e-06 -4.2973e-05 1.50145)
(-6.20909e-06 -4.29733e-05 1.50145)
(-1.67716e-05 -3.85995e-05 1.44152)
(-2.25618e-05 -3.1161e-05 1.32341)
(-2.23397e-05 -2.2339e-05 1.15113)
(1.14908e-05 1.14921e-05 1.1511)
(1.1573e-05 1.59841e-05 1.3234)
(8.58676e-06 1.97574e-05 1.44152)
(3.17753e-06 2.19751e-05 1.50146)
(-3.17517e-06 2.19746e-05 1.50146)
(-8.58471e-06 1.97558e-05 1.44152)
(-1.15716e-05 1.59818e-05 1.3234)
(-1.14911e-05 1.14914e-05 1.1511)
(1.59807e-05 1.15755e-05 1.3234)
(1.65716e-05 1.65751e-05 1.5355)
(1.24725e-05 2.09008e-05 1.66912)
(4.62673e-06 2.3384e-05 1.73375)
(-4.62489e-06 2.33836e-05 1.73375)
(-1.2471e-05 2.08997e-05 1.66912)
(-1.6571e-05 1.65734e-05 1.5355)
(-1.59831e-05 1.15744e-05 1.3234)
(1.97538e-05 8.58988e-06 1.44152)
(2.08975e-05 1.24761e-05 1.66912)
(1.57693e-05 1.57726e-05 1.80902)
(5.80955e-06 1.74679e-05 1.8743)
(-5.80838e-06 1.74677e-05 1.8743)
(-1.57684e-05 1.57718e-05 1.80902)
(-2.08974e-05 1.24748e-05 1.66912)
(-1.97567e-05 8.58865e-06 1.44152)
(2.19716e-05 3.1808e-06 1.50146)
(2.33808e-05 4.63046e-06 1.73375)
(1.74649e-05 5.8129e-06 1.8743)
(6.29113e-06 6.29409e-06 1.9363)
(-6.29046e-06 6.2939e-06 1.9363)
(-1.74645e-05 5.81231e-06 1.8743)
(-2.33811e-05 4.62949e-06 1.73375)
(-2.19749e-05 3.1797e-06 1.50146)
(2.19713e-05 -3.17182e-06 1.50146)
(2.33806e-05 -4.62108e-06 1.73375)
(1.74647e-05 -5.80495e-06 1.8743)
(6.29097e-06 -6.2874e-06 1.9363)
(-6.29062e-06 -6.28755e-06 1.9363)
(-1.74646e-05 -5.80541e-06 1.8743)
(-2.33811e-05 -4.62185e-06 1.73375)
(-2.19749e-05 -3.1728e-06 1.50146)
(1.97527e-05 -8.58147e-06 1.44152)
(2.08966e-05 -1.24672e-05 1.66912)
(1.57687e-05 -1.57648e-05 1.80902)
(5.80901e-06 -1.74611e-05 1.8743)
(-5.80888e-06 -1.74612e-05 1.8743)
(-1.57687e-05 -1.57652e-05 1.80902)
(-2.08973e-05 -1.24677e-05 1.66912)
(-1.97564e-05 -8.58225e-06 1.44152)
(1.59786e-05 -1.15679e-05 1.3234)
(1.65701e-05 -1.65666e-05 1.5355)
(1.24714e-05 -2.08933e-05 1.66912)
(4.6257e-06 -2.33772e-05 1.73375)
(-4.62581e-06 -2.33773e-05 1.73375)
(-1.24716e-05 -2.08936e-05 1.66912)
(-1.65708e-05 -1.65672e-05 1.5355)
(-1.59821e-05 -1.1569e-05 1.3234)
(1.14878e-05 -1.14873e-05 1.1511)
(1.15707e-05 -1.59765e-05 1.3234)
(8.58533e-06 -1.97503e-05 1.44152)
(3.17616e-06 -2.19688e-05 1.50146)
(-3.17639e-06 -2.1969e-05 1.50146)
(-8.58564e-06 -1.97511e-05 1.44152)
(-1.15715e-05 -1.59782e-05 1.3234)
(-1.149e-05 -1.14895e-05 1.1511)
(5.80105e-06 5.80126e-06 1.15108)
(5.85464e-06 8.08627e-06 1.32339)
(4.34929e-06 1.00095e-05 1.44152)
(1.60929e-06 1.11412e-05 1.50146)
(-1.61207e-06 1.11417e-05 1.50146)
(-4.35202e-06 1.00107e-05 1.44152)
(-5.85776e-06 8.08829e-06 1.32339)
(-5.80442e-06 5.80405e-06 1.15108)
(8.08381e-06 5.85643e-06 1.32339)
(8.40341e-06 8.40595e-06 1.5355)
(6.33275e-06 1.06137e-05 1.66915)
(2.3495e-06 1.18818e-05 1.73378)
(-2.352e-06 1.18821e-05 1.73378)
(-6.33529e-06 1.06145e-05 1.66915)
(-8.40634e-06 8.40732e-06 1.5355)
(-8.08835e-06 5.85871e-06 1.32339)
(1.00064e-05 4.35195e-06 1.44152)
(1.06112e-05 6.33571e-06 1.66915)
(8.01655e-06 8.01919e-06 1.80906)
(2.95411e-06 8.88588e-06 1.87436)
(-2.95609e-06 8.88606e-06 1.87436)
(-8.01857e-06 8.01975e-06 1.80906)
(-1.06135e-05 6.3367e-06 1.66915)
(-1.00099e-05 4.35336e-06 1.44152)
(1.11378e-05 1.61225e-06 1.50146)
(1.18793e-05 2.35268e-06 1.73378)
(8.88343e-06 2.95688e-06 1.87436)
(3.20085e-06 3.20328e-06 1.93637)
(-3.2024e-06 3.2034e-06 1.93637)
(-8.88503e-06 2.95731e-06 1.87436)
(-1.1881e-05 2.35349e-06 1.73378)
(-1.11404e-05 1.61339e-06 1.50146)
(1.11381e-05 -1.60915e-06 1.50146)
(1.18795e-05 -2.34886e-06 1.73378)
(8.88361e-06 -2.95334e-06 1.87436)
(3.20099e-06 -3.19999e-06 1.93637)
(-3.2023e-06 -3.19989e-06 1.93637)
(-8.88492e-06 -2.953e-06 1.87436)
(-1.18808e-05 -2.34823e-06 1.73378)
(-1.114e-05 -1.60827e-06 1.50146)
(1.00073e-05 -4.3493e-06 1.44152)
(1.06118e-05 -6.33227e-06 1.66915)
(8.01708e-06 -8.01587e-06 1.80906)
(2.95454e-06 -8.88258e-06 1.87436)
(-2.95576e-06 -8.88251e-06 1.87436)
(-8.01822e-06 -8.01565e-06 1.80906)
(-1.06128e-05 -6.33183e-06 1.66915)