/*--------------------------------*- C++ -*----------------------------------*\
| =========                 |                                                 |
| \\      /  F ield         | OpenFOAM: The Open Source CFD Toolbox           |
|  \\    /   O peration     | Version:  2406                                  |
|   \\  /    A nd           | Website:  www.openfoam.com                      |
|    \\/     M anipulation  |                                                 |
\*---------------------------------------------------------------------------*/
FoamFile
{
    version     2.0;
    format      ascii;
    arch        "LSB;label=32;scalar=64";
    class       volScalarField;
    location    "1.3";
    object      div(phi);
}
// * * * * * * * * * * * * * * * * * * * * * * * * * * * * * * * * * * * * * //

dimensions      [0 0 -1 0 0 0 0];

internalField   nonuniform List<scalar> 
25000
(
-1.24623e-05
-1.13898e-05
-1.14389e-05
-1.11437e-05
-1.08166e-05
-1.05283e-05
-1.02723e-05
-1.01735e-05
-1.02142e-05
-8.38908e-06
-1.09012e-05
-9.61478e-06
-9.58976e-06
-9.47767e-06
-9.1272e-06
-8.74402e-06
-8.63024e-06
-8.56188e-06
-8.20121e-06
-6.55273e-06
-1.03262e-05
-9.15045e-06
-9.28247e-06
-9.25057e-06
-8.87057e-06
-8.5225e-06
-8.33453e-06
-8.21165e-06
-8.04585e-06
-6.39517e-06
-9.82712e-06
-8.59889e-06
-8.87502e-06
-8.84906e-06
-8.53914e-06
-8.13267e-06
-8.04114e-06
-8.03133e-06
-7.73083e-06
-6.25821e-06
-9.40033e-06
-8.16965e-06
-8.40901e-06
-8.4908e-06
-8.17461e-06
-7.89468e-06
-7.80519e-06
-7.73729e-06
-7.54804e-06
-6.09635e-06
-8.99242e-06
-7.727e-06
-8.02805e-06
-8.06634e-06
-7.87054e-06
-7.55781e-06
-7.48629e-06
-7.51862e-06
-7.3284e-06
-5.85567e-06
-8.68304e-06
-7.36876e-06
-7.56166e-06
-7.70215e-06
-7.38001e-06
-7.18848e-06
-7.28385e-06
-7.21177e-06
-6.98689e-06
-5.6933e-06
-8.21308e-06
-6.96974e-06
-7.1827e-06
-7.10106e-06
-6.93619e-06
-6.95448e-06
-6.77409e-06
-6.89882e-06
-6.87992e-06
-5.39043e-06
-7.79312e-06
-6.48161e-06
-6.48356e-06
-6.48407e-06
-6.42989e-06
-6.22632e-06
-6.42593e-06
-6.51563e-06
-6.27518e-06
-5.01916e-06
-6.3034e-06
-4.96828e-06
-5.05777e-06
-5.06857e-06
-5.00546e-06
-5.08259e-06
-5.1125e-06
-5.07985e-06
-4.99559e-06
-3.80523e-06
-9.83388e-06
-9.12579e-06
-9.02958e-06
-8.68498e-06
-8.47258e-06
-8.40409e-06
-8.48141e-06
-8.69391e-06
-8.97006e-06
-7.49016e-06
-8.60502e-06
-7.48107e-06
-7.35835e-06
-7.27651e-06
-7.09535e-06
-6.92301e-06
-7.02907e-06
-7.18721e-06
-7.20105e-06
-5.96167e-06
-8.26135e-06
-7.16299e-06
-7.25031e-06
-7.27383e-06
-7.07158e-06
-6.89502e-06
-6.85556e-06
-6.90307e-06
-6.97424e-06
-5.81671e-06
-8.09988e-06
-6.93217e-06
-7.14214e-06
-7.22768e-06
-7.05163e-06
-6.80075e-06
-6.78082e-06
-6.81191e-06
-6.72557e-06
-5.6796e-06
-8.0157e-06
-6.79901e-06
-7.0266e-06
-7.17552e-06
-6.97051e-06
-6.77429e-06
-6.72457e-06
-6.68328e-06
-6.59816e-06
-5.568e-06
-7.97132e-06
-6.68588e-06
-6.93607e-06
-7.01698e-06
-6.88186e-06
-6.63959e-06
-6.57817e-06
-6.58564e-06
-6.52664e-06
-5.43345e-06
-8.09269e-06
-6.63597e-06
-6.73535e-06
-6.86392e-06
-6.58648e-06
-6.41079e-06
-6.48997e-06
-6.44475e-06
-6.35769e-06
-5.4188e-06
-8.0006e-06
-6.56494e-06
-6.60285e-06
-6.46925e-06
-6.28052e-06
-6.28399e-06
-6.1378e-06
-6.28165e-06
-6.47171e-06
-5.25858e-06
-7.93941e-06
-6.43086e-06
-6.25178e-06
-6.12933e-06
-5.9959e-06
-5.79413e-06
-5.97835e-06
-6.17689e-06
-6.10264e-06
-4.96958e-06
-6.57405e-06
-5.17349e-06
-5.1687e-06
-5.07411e-06
-4.93584e-06
-4.96213e-06
-4.99336e-06
-4.98945e-06
-4.92359e-06
-3.71841e-06
-1.5311e-05
-1.37854e-05
-1.3333e-05
-1.24908e-05
-1.1604e-05
-1.09186e-05
-1.05028e-05
-1.03548e-05
-1.03821e-05
-8.47925e-06
-1.28616e-05
-1.07154e-05
-1.00745e-05
-9.39724e-06
-8.62564e-06
-8.09982e-06
-7.94342e-06
-8.02838e-06
-7.95725e-06
-6.48921e-06
-1.15795e-05
-9.54527e-06
-8.97911e-06
-8.44549e-06
-7.7468e-06
-7.25898e-06
-7.14184e-06
-7.22968e-06
-7.40622e-06
-6.15605e-06
-1.04661e-05
-8.44494e-06
-8.13587e-06
-7.62745e-06
-7.05366e-06
-6.58958e-06
-6.53511e-06
-6.7396e-06
-6.85605e-06
-5.87829e-06
-9.67125e-06
-7.76505e-06
-7.42992e-06
-7.09044e-06
-6.564e-06
-6.22008e-06
-6.1821e-06
-6.34297e-06
-6.56103e-06
-5.6514e-06
-9.12269e-06
-7.27218e-06
-7.04295e-06
-6.68699e-06
-6.29139e-06
-5.93531e-06
-5.94332e-06
-6.18882e-06
-6.39821e-06
-5.46159e-06
-8.85008e-06
-7.02408e-06
-6.73353e-06
-6.50138e-06
-5.99493e-06
-5.77804e-06
-5.93637e-06
-6.10974e-06
-6.27584e-06
-5.40864e-06
-8.4482e-06
-6.84216e-06
-6.63308e-06
-6.22894e-06
-5.88565e-06
-5.85531e-06
-5.80427e-06
-6.13628e-06
-6.42935e-06
-5.24908e-06
-8.12582e-06
-6.57267e-06
-6.29827e-06
-6.03211e-06
-5.82265e-06
-5.61081e-06
-5.87864e-06
-6.14493e-06
-6.12642e-06
-4.95735e-06
-6.541e-06
-5.18281e-06
-5.14521e-06
-5.01762e-06
-4.85711e-06
-4.91002e-06
-4.98767e-06
-5.03648e-06
-4.9804e-06
-3.74828e-06
-4.93225e-06
-5.01412e-06
-5.36845e-06
-5.55226e-06
-5.90943e-06
-6.28487e-06
-6.62717e-06
-6.8489e-06
-6.98072e-06
-5.61888e-06
-4.53808e-06
-4.22402e-06
-4.31292e-06
-4.49661e-06
-4.63276e-06
-4.77589e-06
-5.14592e-06
-5.46051e-06
-5.49671e-06
-4.4586e-06
-4.61693e-06
-4.11579e-06
-4.27704e-06
-4.30709e-06
-4.30649e-06
-4.45343e-06
-4.72649e-06
-5.04987e-06
-5.27233e-06
-4.34335e-06
-4.80039e-06
-4.14136e-06
-4.13499e-06
-4.13129e-06
-4.04576e-06
-4.08479e-06
-4.44334e-06
-4.83107e-06
-5.0035e-06
-4.24592e-06
-4.933e-06
-4.12645e-06
-4.13907e-06
-4.05075e-06
-3.86314e-06
-3.94911e-06
-4.29183e-06
-4.66576e-06
-4.891e-06
-4.17252e-06
-5.05186e-06
-4.23764e-06
-4.22859e-06
-4.09936e-06
-3.96321e-06
-3.97413e-06
-4.29184e-06
-4.66599e-06
-4.87979e-06
-4.09773e-06
-5.26872e-06
-4.37521e-06
-4.35488e-06
-4.33446e-06
-4.11546e-06
-4.15406e-06
-4.47766e-06
-4.7291e-06
-4.84207e-06
-4.11011e-06
-5.29398e-06
-4.50359e-06
-4.53391e-06
-4.41566e-06
-4.30595e-06
-4.43683e-06
-4.50407e-06
-4.79261e-06
-4.99083e-06
-3.98758e-06
-5.29051e-06
-4.47463e-06
-4.48447e-06
-4.43961e-06
-4.42328e-06
-4.34032e-06
-4.59311e-06
-4.7818e-06
-4.70097e-06
-3.72264e-06
-4.33108e-06
-3.61973e-06
-3.74503e-06
-3.78608e-06
-3.74285e-06
-3.82018e-06
-3.85032e-06
-3.82624e-06
-3.69655e-06
-2.71712e-06
-1.2598e-05
-1.1303e-05
-1.0937e-05
-1.02111e-05
-9.27041e-06
-8.42122e-06
-7.73681e-06
-7.28429e-06
-7.05298e-06
-5.62964e-06
-1.02702e-05
-8.46776e-06
-7.88348e-06
-7.19777e-06
-6.39572e-06
-5.83592e-06
-5.52427e-06
-5.44081e-06
-5.27609e-06
-4.22922e-06
-8.97368e-06
-7.30368e-06
-6.72129e-06
-6.15076e-06
-5.4209e-06
-4.92478e-06
-4.77924e-06
-4.76092e-06
-4.81446e-06
-3.94895e-06
-7.81129e-06
-6.19502e-06
-5.83937e-06
-5.1814e-06
-4.49861e-06
-4.11083e-06
-4.13092e-06
-4.30273e-06
-4.36285e-06
-3.71532e-06
-6.99691e-06
-5.50939e-06
-5.0632e-06
-4.47895e-06
-3.80889e-06
-3.57292e-06
-3.7275e-06
-3.93031e-06
-4.10273e-06
-3.5166e-06
-6.43844e-06
-4.99619e-06
-4.65837e-06
-4.11387e-06
-3.60056e-06
-3.37711e-06
-3.53597e-06
-3.78971e-06
-3.93565e-06
-3.36146e-06
-6.07103e-06
-4.71425e-06
-4.38091e-06
-4.04804e-06
-3.5643e-06
-3.41779e-06
-3.56785e-06
-3.70379e-06
-3.83647e-06
-3.27897e-06
-5.66582e-06
-4.46919e-06
-4.24421e-06
-3.86712e-06
-3.57086e-06
-3.51217e-06
-3.47916e-06
-3.71028e-06
-3.86221e-06
-3.15063e-06
-5.28971e-06
-4.17239e-06
-3.91741e-06
-3.67108e-06
-3.48413e-06
-3.31731e-06
-3.49501e-06
-3.63165e-06
-3.64682e-06
-2.92449e-06
-4.16392e-06
-3.21102e-06
-3.11367e-06
-2.97827e-06
-2.83282e-06
-2.85486e-06
-2.89391e-06
-2.94213e-06
-2.91682e-06
-2.1864e-06
1.47627e-06
8.50807e-07
4.353e-07
3.61723e-08
-5.12146e-07
-1.02586e-06
-1.48575e-06
-1.79959e-06
-1.93971e-06
-1.57594e-06
9.78423e-07
4.77874e-07
1.58549e-07
-2.32345e-07
-6.35744e-07
-9.80851e-07
-1.34797e-06
-1.59675e-06
-1.71692e-06
-1.3818e-06
3.40044e-07
4.17905e-08
-2.75147e-07
-5.30281e-07
-8.17069e-07
-1.1067e-06
-1.39326e-06
-1.64485e-06
-1.75113e-06
-1.45069e-06
-3.12409e-07
-4.4169e-07
-5.81625e-07
-8.01838e-07
-9.69821e-07
-1.17906e-06
-1.45772e-06
-1.67796e-06
-1.79977e-06
-1.49253e-06
-7.96235e-07
-7.67319e-07
-9.0711e-07
-1.01565e-06
-1.08482e-06
-1.24879e-06
-1.51754e-06
-1.74214e-06
-1.82501e-06
-1.53405e-06
-1.15958e-06
-1.06572e-06
-1.15824e-06
-1.21787e-06
-1.26405e-06
-1.38597e-06
-1.61267e-06
-1.79959e-06
-1.89292e-06
-1.54655e-06
-1.46782e-06
-1.28933e-06
-1.36641e-06
-1.45196e-06
-1.45464e-06
-1.55472e-06
-1.74555e-06
-1.87037e-06
-1.89903e-06
-1.56531e-06
-1.6545e-06
-1.45589e-06
-1.53937e-06
-1.57647e-06
-1.60993e-06
-1.72119e-06
-1.78043e-06
-1.89705e-06
-1.94123e-06
-1.5088e-06
-1.75106e-06
-1.51921e-06
-1.5993e-06
-1.64643e-06
-1.69919e-06
-1.69226e-06
-1.80187e-06
-1.84171e-06
-1.78301e-06
-1.35878e-06
-1.47574e-06
-1.28046e-06
-1.3802e-06
-1.447e-06
-1.45337e-06
-1.4872e-06
-1.46381e-06
-1.41566e-06
-1.31149e-06
-9.26434e-07
-6.92634e-06
-5.95259e-06
-5.54689e-06
-5.08149e-06
-4.40496e-06
-3.78665e-06
-3.29377e-06
-3.01562e-06
-2.83356e-06
-2.29961e-06
-5.65472e-06
-4.46507e-06
-4.06649e-06
-3.53936e-06
-2.92908e-06
-2.5843e-06
-2.2589e-06
-2.13824e-06
-2.10081e-06
-1.65754e-06
-4.85912e-06
-3.83046e-06
-3.31017e-06
-2.93401e-06
-2.44967e-06
-2.04643e-06
-1.91853e-06
-1.847e-06
-1.81416e-06
-1.51806e-06
-3.98051e-06
-3.03107e-06
-2.83719e-06
-2.35938e-06
-1.91101e-06
-1.66597e-06
-1.56478e-06
-1.57908e-06
-1.6263e-06
-1.38791e-06
-3.38215e-06
-2.61674e-06
-2.27654e-06
-1.91848e-06
-1.53046e-06
-1.33248e-06
-1.34918e-06
-1.39758e-06
-1.46623e-06
-1.27894e-06
-2.92612e-06
-2.18372e-06
-1.98326e-06
-1.6426e-06
-1.34513e-06
-1.19532e-06
-1.21336e-06
-1.29078e-06
-1.36092e-06
-1.19634e-06
-2.58161e-06
-1.94399e-06
-1.71288e-06
-1.51057e-06
-1.23995e-06
-1.14764e-06
-1.17163e-06
-1.20898e-06
-1.30748e-06
-1.13278e-06
-2.25347e-06
-1.7037e-06
-1.54999e-06
-1.32975e-06
-1.17685e-06
-1.12153e-06
-1.09194e-06
-1.21071e-06
-1.27861e-06
-1.087e-06
-1.99055e-06
-1.47144e-06
-1.32872e-06
-1.17136e-06
-1.08553e-06
-1.00177e-06
-1.10442e-06
-1.15719e-06
-1.23908e-06
-1.01757e-06
-1.49595e-06
-1.09149e-06
-9.9091e-07
-9.10378e-07
-8.35177e-07
-8.67321e-07
-9.13507e-07
-9.93204e-07
-1.0407e-06
-8.04244e-07
6.28032e-06
5.42142e-06
5.10553e-06
4.61659e-06
3.95156e-06
3.33316e-06
2.78942e-06
2.38878e-06
2.20967e-06
1.73206e-06
5.31583e-06
4.25709e-06
3.80241e-06
3.27755e-06
2.70326e-06
2.21367e-06
1.8768e-06
1.6885e-06
1.49277e-06
1.20473e-06
4.46676e-06
3.51132e-06
3.09171e-06
2.65606e-06
2.13654e-06
1.75364e-06
1.49248e-06
1.32011e-06
1.28287e-06
1.02492e-06
3.66339e-06
2.79263e-06
2.48671e-06
2.05328e-06
1.62461e-06
1.29434e-06
1.15104e-06
1.09823e-06
1.01496e-06
8.86015e-07
3.06277e-06
2.27294e-06
1.97126e-06
1.59582e-06
1.20773e-06
1.00519e-06
9.16041e-07
8.67794e-07
8.79064e-07
7.64804e-07
2.65723e-06
1.90978e-06
1.63768e-06
1.31859e-06
1.024e-06
8.34089e-07
7.73584e-07
7.7177e-07
7.65552e-07
6.7801e-07
2.37084e-06
1.66812e-06
1.42219e-06
1.17716e-06
9.25971e-07
7.76648e-07
7.2482e-07
7.06181e-07
7.08623e-07
6.41207e-07
2.12764e-06
1.48965e-06
1.28104e-06
1.04351e-06
8.52426e-07
7.39486e-07
6.76942e-07
6.84936e-07
7.21333e-07
6.12069e-07
1.92262e-06
1.34685e-06
1.10111e-06
9.24195e-07
7.64762e-07
6.74323e-07
6.62493e-07
7.00997e-07
6.99708e-07
6.01857e-07
1.4985e-06
9.7452e-07
8.26881e-07
6.81359e-07
5.85166e-07
5.46859e-07
5.6396e-07
5.8729e-07
6.21927e-07
4.92617e-07
-1.9323e-06
-1.05014e-06
-4.09271e-07
1.38687e-08
6.48011e-07
1.21697e-06
1.66458e-06
1.94089e-06
2.13729e-06
1.69068e-06
-1.09182e-06
-3.25154e-07
-3.30324e-08
4.70157e-07
9.02102e-07
1.14533e-06
1.55521e-06
1.77598e-06
1.75334e-06
1.46476e-06
-7.11374e-07
-1.42753e-07
4.15884e-07
6.52783e-07
9.36092e-07
1.28809e-06
1.47252e-06
1.67403e-06
1.83832e-06
1.45835e-06
-1.43695e-07
3.20046e-07
4.5186e-07
8.05253e-07
1.02499e-06
1.16668e-06
1.49072e-06
1.71042e-06
1.71538e-06
1.47407e-06
9.95553e-08
3.76409e-07
7.38497e-07
8.99584e-07
1.00005e-06
1.23563e-06
1.45114e-06
1.64266e-06
1.7612e-06
1.46094e-06
3.56177e-07
6.65393e-07
8.32373e-07
1.01689e-06
1.1518e-06
1.25394e-06
1.51264e-06
1.70874e-06
1.75127e-06
1.45752e-06
5.76102e-07
7.55624e-07
1.01226e-06
1.20919e-06
1.26898e-06
1.4368e-06
1.62544e-06
1.74718e-06
1.78053e-06
1.49407e-06
7.19009e-07
9.48689e-07
1.14854e-06
1.31282e-06
1.43206e-06
1.59161e-06
1.67713e-06
1.81867e-06
1.86572e-06
1.46572e-06
9.00858e-07
1.01686e-06
1.27264e-06
1.4146e-06
1.57528e-06
1.61307e-06
1.77759e-06
1.84231e-06
1.78486e-06
1.40228e-06
8.05183e-07
9.39237e-07
1.1433e-06
1.31517e-06
1.38908e-06
1.48733e-06
1.51087e-06
1.48912e-06
1.41476e-06
1.01947e-06
1.08185e-05
9.77776e-06
9.56404e-06
8.86928e-06
8.15684e-06
7.58656e-06
7.05367e-06
6.70017e-06
6.7089e-06
5.24916e-06
9.08146e-06
7.64421e-06
6.99497e-06
6.58926e-06
5.93797e-06
5.37594e-06
5.27913e-06
5.24595e-06
4.87807e-06
4.01136e-06
7.59782e-06
6.30753e-06
6.12501e-06
5.55507e-06
4.94421e-06
4.68676e-06
4.45135e-06
4.40394e-06
4.6429e-06
3.64009e-06
6.55313e-06
5.41223e-06
4.99066e-06
4.61526e-06
4.09071e-06
3.66384e-06
3.85527e-06
4.0712e-06
3.90914e-06
3.43163e-06
5.50455e-06
4.42942e-06
4.34807e-06
3.83752e-06
3.26937e-06
3.24103e-06
3.33183e-06
3.48469e-06
3.79625e-06
3.13422e-06
4.93972e-06
4.03295e-06
3.73723e-06
3.4145e-06
3.09196e-06
2.84402e-06
3.12844e-06
3.42628e-06
3.41707e-06
2.98652e-06
4.45056e-06
3.52963e-06
3.45744e-06
3.29892e-06
2.90547e-06
2.95505e-06
3.09325e-06
3.18835e-06
3.41104e-06
2.87493e-06
4.01652e-06
3.34202e-06
3.23896e-06
3.05897e-06
2.94872e-06
2.96395e-06
2.98328e-06
3.29644e-06
3.35822e-06
2.77206e-06
3.74018e-06
3.00466e-06
3.02694e-06
2.92126e-06
2.93591e-06
2.83233e-06
3.11881e-06
3.1936e-06
3.26455e-06
2.62125e-06
2.92873e-06
2.43408e-06
2.46197e-06
2.49892e-06
2.43828e-06
2.55626e-06
2.60954e-06
2.68724e-06
2.67117e-06
1.99768e-06
5.00827e-06
5.12422e-06
5.52381e-06
5.37625e-06
5.57476e-06
5.88977e-06
6.03265e-06
6.11282e-06
6.47242e-06
4.95013e-06
4.84524e-06
4.56087e-06
4.26444e-06
4.56924e-06
4.60383e-06
4.47206e-06
4.94649e-06
5.18993e-06
4.77381e-06
3.9985e-06
4.35354e-06
3.89009e-06
4.36931e-06
4.12756e-06
4.01526e-06
4.30643e-06
4.26817e-06
4.40367e-06
4.87035e-06
3.671e-06
4.4954e-06
3.96934e-06
3.61408e-06
3.74664e-06
3.62242e-06
3.40741e-06
3.9414e-06
4.32622e-06
4.04923e-06
3.58417e-06
4.04242e-06
3.30786e-06
3.62159e-06
3.3229e-06
3.01868e-06
3.30459e-06
3.48936e-06
3.71425e-06
4.16316e-06
3.28717e-06
4.03913e-06
3.44108e-06
3.20291e-06
3.15938e-06
3.07837e-06
2.92002e-06
3.40998e-06
3.81891e-06
3.68951e-06
3.20287e-06
3.82693e-06
3.0469e-06
3.19908e-06
3.20867e-06
2.94336e-06
3.20154e-06
3.41206e-06
3.50837e-06
3.79315e-06
3.07684e-06
3.63714e-06
3.09285e-06
3.08872e-06
3.07636e-06
3.12994e-06
3.23795e-06
3.31855e-06
3.70432e-06
3.65128e-06
2.96302e-06
3.49163e-06
2.83274e-06
3.04191e-06
3.07679e-06
3.22835e-06
3.16977e-06
3.51255e-06
3.49773e-06
3.53436e-06
2.74356e-06
2.79489e-06
2.44816e-06
2.61185e-06
2.78453e-06
2.77831e-06
2.92429e-06
2.90653e-06
2.91505e-06
2.77362e-06
2.01263e-06
1.24154e-05
1.14811e-05
1.14954e-05
1.07733e-05
1.02292e-05
9.92535e-06
9.47882e-06
9.18203e-06
9.52033e-06
7.27252e-06
1.10101e-05
9.434e-06
8.54863e-06
8.38178e-06
7.77011e-06
7.14751e-06
7.37341e-06
7.4868e-06
6.78008e-06
5.66993e-06
9.40319e-06
7.80755e-06
7.90274e-06
7.15307e-06
6.51207e-06
6.49014e-06
6.16416e-06
6.13268e-06
6.73689e-06
5.05316e-06
8.60233e-06
7.09903e-06
6.36388e-06
6.09632e-06
5.53387e-06
4.94031e-06
5.4477e-06
5.85612e-06
5.4e-06
4.82951e-06
7.31454e-06
5.73599e-06
5.833e-06
5.10234e-06
4.39068e-06
4.56287e-06
4.64301e-06
4.82501e-06
5.47267e-06
4.30257e-06
6.82563e-06
5.47648e-06
4.91604e-06
4.58792e-06
4.24958e-06
3.84255e-06
4.3888e-06
4.88421e-06
4.66393e-06
4.13084e-06
6.12799e-06
4.64907e-06
4.62361e-06
4.41984e-06
3.86359e-06
4.09882e-06
4.26444e-06
4.32113e-06
4.78517e-06
3.88058e-06
5.57426e-06
4.464e-06
4.25813e-06
4.0446e-06
3.98575e-06
4.00162e-06
4.04801e-06
4.57777e-06
4.49343e-06
3.71899e-06
5.12898e-06
3.9148e-06
4.01324e-06
3.89951e-06
3.99082e-06
3.84189e-06
4.29185e-06
4.24432e-06
4.39939e-06
3.44545e-06
4.01022e-06
3.29779e-06
3.35262e-06
3.46315e-06
3.371e-06
3.54527e-06
3.53457e-06
3.61529e-06
3.50907e-06
2.57985e-06
9.58869e-06
9.29485e-06
9.6416e-06
9.20654e-06
9.14191e-06
9.30132e-06
9.20417e-06
9.14453e-06
9.65353e-06
7.31348e-06
8.88359e-06
7.97529e-06
7.31384e-06
7.53234e-06
7.26682e-06
6.87812e-06
7.39508e-06
7.65131e-06
6.91827e-06
5.80189e-06
7.76248e-06
6.67451e-06
7.1343e-06
6.58826e-06
6.20625e-06
6.45865e-06
6.24351e-06
6.3089e-06
7.02663e-06
5.19607e-06
7.51029e-06
6.41976e-06
5.79304e-06
5.79196e-06
5.43384e-06
4.95471e-06
5.64512e-06
6.14653e-06
5.6309e-06
5.03131e-06
6.5223e-06
5.2301e-06
5.55741e-06
4.9647e-06
4.38875e-06
4.72134e-06
4.86626e-06
5.09242e-06
5.81635e-06
4.49991e-06
6.27939e-06
5.21525e-06
4.75221e-06
4.58159e-06
4.36389e-06
4.01196e-06
4.67163e-06
5.23577e-06
4.95524e-06
4.36367e-06
5.74023e-06
4.46916e-06
4.60296e-06
4.50929e-06
4.02504e-06
4.36337e-06
4.57937e-06
4.64048e-06
5.1404e-06
4.11243e-06
5.30729e-06
4.41164e-06
4.31305e-06
4.20542e-06
4.23237e-06
4.29936e-06
4.38133e-06
4.9515e-06
4.82008e-06
3.95253e-06
4.96371e-06
3.92631e-06
4.16041e-06
4.14007e-06
4.30171e-06
4.18363e-06
4.66569e-06
4.58951e-06
4.72269e-06
3.65688e-06
3.9159e-06
3.37635e-06
3.54148e-06
3.74016e-06
3.68979e-06
3.88815e-06
3.8556e-06
3.90638e-06
3.73522e-06
2.71898e-06
1.21106e-05
1.13469e-05
1.14969e-05
1.08303e-05
1.04335e-05
1.03066e-05
9.98393e-06
9.76503e-06
1.02031e-05
7.75849e-06
1.071e-05
9.33837e-06
8.5392e-06
8.51952e-06
8.07189e-06
7.49562e-06
7.90099e-06
8.08872e-06
7.3192e-06
6.13139e-06
9.15005e-06
7.7268e-06
8.03049e-06
7.35394e-06
6.80963e-06
6.93848e-06
6.64728e-06
6.67444e-06
7.37862e-06
5.49428e-06
8.52121e-06
7.19617e-06
6.49806e-06
6.36688e-06
5.88559e-06
5.32102e-06
5.96902e-06
6.45551e-06
5.94318e-06
5.3024e-06
7.35532e-06
5.87345e-06
6.10678e-06
5.4235e-06
4.74467e-06
5.0094e-06
5.14453e-06
5.36685e-06
6.09464e-06
4.75043e-06
6.98041e-06
5.7598e-06
5.24873e-06
4.99804e-06
4.67364e-06
4.29272e-06
4.91883e-06
5.48681e-06
5.2246e-06
4.59556e-06
6.4128e-06
5.01448e-06
5.09341e-06
4.89981e-06
4.36965e-06
4.61872e-06
4.8319e-06
4.89205e-06
5.38633e-06
4.3371e-06
5.9846e-06
4.94044e-06
4.79975e-06
4.61495e-06
4.54737e-06
4.5648e-06
4.62699e-06
5.16964e-06
5.07918e-06
4.1586e-06
5.61386e-06
4.50172e-06
4.59545e-06
4.52759e-06
4.57353e-06
4.43782e-06
4.86271e-06
4.82864e-06
4.94551e-06
3.8511e-06
4.47484e-06
3.75717e-06
3.88043e-06
3.98857e-06
3.90333e-06
4.05219e-06
4.02694e-06
4.07147e-06
3.91618e-06
2.86361e-06
1.27931e-05
1.19861e-05
1.20536e-05
1.13836e-05
1.08543e-05
1.05704e-05
1.01589e-05
9.87709e-06
1.0175e-05
7.79471e-06
1.114e-05
9.75056e-06
9.04407e-06
8.84137e-06
8.27881e-06
7.66799e-06
7.89336e-06
8.02304e-06
7.34418e-06
6.07332e-06
9.73601e-06
8.24142e-06
8.31421e-06
7.67335e-06
7.02256e-06
6.96762e-06
6.70066e-06
6.68938e-06
7.247e-06
5.47624e-06
8.91711e-06
7.50513e-06
6.94e-06
6.61256e-06
6.02424e-06
5.46146e-06
5.95611e-06
6.38257e-06
5.97718e-06
5.2479e-06
7.92428e-06
6.36168e-06
6.37542e-06
5.68854e-06
4.93088e-06
5.04024e-06
5.20623e-06
5.41444e-06
6.00463e-06
4.76117e-06
7.45745e-06
6.11845e-06
5.67036e-06
5.28006e-06
4.82354e-06
4.46697e-06
4.96298e-06
5.46678e-06
5.29828e-06
4.59044e-06
7.03921e-06
5.56813e-06
5.51068e-06
5.22553e-06
4.65807e-06
4.73537e-06
4.94338e-06
5.01095e-06
5.3802e-06
4.39066e-06
6.63375e-06
5.4658e-06
5.30728e-06
5.0087e-06
4.804e-06
4.76047e-06
4.77327e-06
5.20447e-06
5.20175e-06
4.21342e-06
6.28642e-06
5.13201e-06
5.04e-06
4.89605e-06
4.78304e-06
4.61789e-06
4.93519e-06
4.97706e-06
5.01604e-06
3.94065e-06
5.02101e-06
4.10662e-06
4.16823e-06
4.15679e-06
4.03405e-06
4.11652e-06
4.11166e-06
4.1341e-06
4.0082e-06
2.93838e-06
7.13575e-06
6.91382e-06
7.23672e-06
7.02932e-06
6.98434e-06
7.08331e-06
7.07318e-06
7.03865e-06
7.30855e-06
5.6672e-06
6.39973e-06
5.82231e-06
5.59151e-06
5.61886e-06
5.55997e-06
5.27719e-06
5.65524e-06
5.86073e-06
5.47855e-06
4.5556e-06
5.76761e-06
5.05699e-06
5.33113e-06
5.07737e-06
4.82265e-06
4.9787e-06
4.93556e-06
5.07287e-06
5.49953e-06
4.23704e-06
5.57547e-06
4.88137e-06
4.60527e-06
4.55717e-06
4.31069e-06
4.05873e-06
4.53978e-06
4.93416e-06
4.72805e-06
4.13413e-06
5.26892e-06
4.34607e-06
4.4631e-06
4.12611e-06
3.69903e-06
3.8653e-06
4.11585e-06
4.36056e-06
4.78217e-06
3.85747e-06
5.18425e-06
4.41749e-06
4.22254e-06
4.04677e-06
3.75206e-06
3.62379e-06
4.01436e-06
4.44405e-06
4.3851e-06
3.76027e-06
5.22805e-06
4.31163e-06
4.36531e-06
4.17159e-06
3.87302e-06
3.8719e-06
4.11403e-06
4.21421e-06
4.42848e-06
3.65893e-06
5.21613e-06
4.43562e-06
4.41037e-06
4.23353e-06
4.03787e-06
4.02093e-06
4.04859e-06
4.303e-06
4.37872e-06
3.50637e-06
5.14513e-06
4.4606e-06
4.30016e-06
4.25791e-06
4.05742e-06
3.98002e-06
4.09064e-06
4.21701e-06
4.13512e-06
3.25959e-06
4.25896e-06
3.50012e-06
3.61594e-06
3.54681e-06
3.47779e-06
3.45518e-06
3.45107e-06
3.3981e-06
3.26e-06
2.39941e-06
1.08194e-05
9.80724e-06
9.61782e-06
9.07662e-06
8.33426e-06
7.73268e-06
7.18428e-06
6.81102e-06
6.75879e-06
5.33156e-06
9.13177e-06
7.74603e-06
7.30154e-06
6.7042e-06
6.07192e-06
5.48089e-06
5.31721e-06
5.27959e-06
4.97563e-06
4.06726e-06
8.08328e-06
6.71045e-06
6.30091e-06
5.80984e-06
5.13268e-06
4.77831e-06
4.57347e-06
4.51813e-06
4.70829e-06
3.73029e-06
7.0233e-06
5.76498e-06
5.46513e-06
4.9052e-06
4.3028e-06
3.87086e-06
3.98021e-06
4.1832e-06
4.06492e-06
3.53215e-06
6.38955e-06
5.11892e-06
4.77277e-06
4.24157e-06
3.58021e-06
3.42377e-06
3.54206e-06
3.66066e-06
3.92708e-06
3.26045e-06
5.86206e-06
4.71404e-06
4.43268e-06
3.9603e-06
3.42033e-06
3.19269e-06
3.32051e-06
3.59864e-06
3.59973e-06
3.1121e-06
5.68722e-06
4.55573e-06
4.32278e-06
3.91311e-06
3.49055e-06
3.24283e-06
3.35711e-06
3.39645e-06
3.5368e-06
2.99246e-06
5.45892e-06
4.43337e-06
4.25907e-06
3.8752e-06
3.48631e-06
3.31389e-06
3.24822e-06
3.37091e-06
3.4984e-06
2.84268e-06
5.20391e-06
4.3947e-06
3.96123e-06
3.7621e-06
3.34783e-06
3.21908e-06
3.17217e-06
3.33307e-06
3.26519e-06
2.62905e-06
4.22039e-06
3.24754e-06
3.19654e-06
2.93506e-06
2.79374e-06
2.67335e-06
2.69204e-06
2.6679e-06
2.62055e-06
1.98159e-06
-7.69619e-07
-3.29594e-07
4.97737e-08
2.7557e-07
6.40576e-07
1.01296e-06
1.33457e-06
1.51443e-06
1.68864e-06
1.36815e-06
-5.58017e-07
-9.67788e-08
1.81397e-07
4.10341e-07
7.9328e-07
9.00767e-07
1.238e-06
1.42188e-06
1.41763e-06
1.22528e-06
-2.454e-07
6.95242e-08
4.09314e-07
6.08606e-07
7.93568e-07
1.06191e-06
1.20354e-06
1.3764e-06
1.53672e-06
1.24289e-06
1.53956e-07
4.26224e-07
5.42125e-07
7.46136e-07
9.01104e-07
1.00205e-06
1.25459e-06
1.4463e-06
1.45866e-06
1.28365e-06
5.80402e-07
6.37054e-07
7.8801e-07
9.05135e-07
9.43034e-07
1.08762e-06
1.2704e-06
1.40764e-06
1.52653e-06
1.27634e-06
8.40466e-07
9.24674e-07
1.04096e-06
1.12183e-06
1.09628e-06
1.20015e-06
1.31316e-06
1.48705e-06
1.50988e-06
1.28053e-06
1.26483e-06
1.23573e-06
1.35964e-06
1.32473e-06
1.38525e-06
1.30899e-06
1.44792e-06
1.50304e-06
1.50882e-06
1.27938e-06
1.57543e-06
1.48862e-06
1.58343e-06
1.58835e-06
1.47979e-06
1.46544e-06
1.48142e-06
1.45925e-06
1.54363e-06
1.20989e-06
1.76777e-06
1.79271e-06
1.64948e-06
1.71341e-06
1.50353e-06
1.53565e-06
1.38163e-06
1.50713e-06
1.35879e-06
1.07356e-06
1.6002e-06
1.32172e-06
1.43903e-06
1.3396e-06
1.34669e-06
1.21871e-06
1.20495e-06
1.10072e-06
1.00617e-06
7.5525e-07
6.27563e-06
5.28081e-06
4.86052e-06
4.34859e-06
3.55647e-06
2.83292e-06
2.24246e-06
1.83319e-06
1.62469e-06
1.33622e-06
4.89985e-06
3.83003e-06
3.48977e-06
2.84806e-06
2.2789e-06
1.79145e-06
1.39089e-06
1.19385e-06
1.10532e-06
8.82818e-07
3.96376e-06
3.11972e-06
2.61339e-06
2.26117e-06
1.7511e-06
1.31756e-06
1.10027e-06
9.4603e-07
8.58333e-07
7.67626e-07
2.95563e-06
2.27069e-06
2.1212e-06
1.66445e-06
1.25992e-06
9.89538e-07
7.85488e-07
7.13551e-07
7.37808e-07
6.41569e-07
2.36814e-06
1.86185e-06
1.54179e-06
1.26386e-06
9.30469e-07
6.85575e-07
6.27133e-07
5.9265e-07
5.62619e-07
5.78606e-07
1.88459e-06
1.42967e-06
1.30437e-06
1.02741e-06
7.28563e-07
6.19591e-07
4.86536e-07
4.71351e-07
5.51754e-07
5.02895e-07
1.6303e-06
1.29299e-06
1.12059e-06
8.80843e-07
7.27787e-07
4.94431e-07
4.70259e-07
4.77851e-07
4.55964e-07
4.91288e-07
1.4345e-06
1.12123e-06
1.01083e-06
8.26778e-07
6.03006e-07
4.97085e-07
4.36956e-07
3.93022e-07
5.22712e-07
4.64691e-07
1.26706e-06
1.08195e-06
8.30786e-07
7.14176e-07
4.8973e-07
4.49394e-07
3.52077e-07
4.83741e-07
4.68655e-07
4.57938e-07
9.9745e-07
6.71101e-07
5.94214e-07
4.17722e-07
3.62204e-07
2.85512e-07
3.45808e-07
3.75152e-07
4.5518e-07
3.93987e-07
-8.75023e-06
-7.717e-06
-7.35286e-06
-6.82464e-06
-6.10817e-06
-5.49043e-06
-4.92252e-06
-4.56436e-06
-4.41493e-06
-3.44896e-06
-7.52556e-06
-6.12261e-06
-5.56811e-06
-5.02732e-06
-4.33409e-06
-3.85059e-06
-3.58529e-06
-3.46517e-06
-3.20291e-06
-2.59651e-06
-6.62615e-06
-5.28895e-06
-4.79967e-06
-4.26537e-06
-3.65816e-06
-3.27994e-06
-3.03098e-06
-2.90773e-06
-3.00095e-06
-2.32267e-06
-5.72189e-06
-4.46504e-06
-4.07235e-06
-3.54512e-06
-2.99092e-06
-2.57792e-06
-2.58118e-06
-2.65295e-06
-2.47319e-06
-2.17527e-06
-5.00928e-06
-3.81624e-06
-3.47108e-06
-2.93867e-06
-2.38359e-06
-2.2302e-06
-2.19176e-06
-2.19782e-06
-2.40566e-06
-1.92149e-06
-4.51424e-06
-3.40172e-06
-3.02095e-06
-2.59547e-06
-2.19624e-06
-1.90527e-06
-1.99585e-06
-2.1484e-06
-2.03119e-06
-1.81481e-06
-4.13796e-06
-3.043e-06
-2.75662e-06
-2.43269e-06
-2.01999e-06
-1.9207e-06
-1.90127e-06
-1.85908e-06
-2.03722e-06
-1.6568e-06
-3.7753e-06
-2.81112e-06
-2.55137e-06
-2.21551e-06
-1.98685e-06
-1.82246e-06
-1.76331e-06
-1.9094e-06
-1.85848e-06
-1.57126e-06
-3.45257e-06
-2.57155e-06
-2.28129e-06
-2.06924e-06
-1.85733e-06
-1.72962e-06
-1.7721e-06
-1.75338e-06
-1.80214e-06
-1.42202e-06
-2.71505e-06
-1.95993e-06
-1.82254e-06
-1.66848e-06
-1.53846e-06
-1.50032e-06
-1.48141e-06
-1.50883e-06
-1.45591e-06
-1.12069e-06
-1.15044e-06
-1.98523e-06
-2.7354e-06
-3.10295e-06
-3.76069e-06
-4.40225e-06
-4.84704e-06
-5.1291e-06
-5.49319e-06
-4.25992e-06
-1.74808e-06
-2.25992e-06
-2.41819e-06
-2.99575e-06
-3.34402e-06
-3.52189e-06
-4.10259e-06
-4.43249e-06
-4.1902e-06
-3.51488e-06
-2.00307e-06
-2.16558e-06
-2.7858e-06
-2.9098e-06
-3.08563e-06
-3.51784e-06
-3.6612e-06
-3.89464e-06
-4.32603e-06
-3.30483e-06
-2.47859e-06
-2.53494e-06
-2.54824e-06
-2.83876e-06
-2.9331e-06
-2.92685e-06
-3.48749e-06
-3.90084e-06
-3.70788e-06
-3.28907e-06
-2.6184e-06
-2.37901e-06
-2.73507e-06
-2.71611e-06
-2.59901e-06
-2.93352e-06
-3.19809e-06
-3.44196e-06
-3.86702e-06
-3.06314e-06
-2.80055e-06
-2.65679e-06
-2.70021e-06
-2.76444e-06
-2.76278e-06
-2.72744e-06
-3.17491e-06
-3.59235e-06
-3.46823e-06
-3.02589e-06
-3.00264e-06
-2.6511e-06
-2.88267e-06
-2.96666e-06
-2.83116e-06
-3.02692e-06
-3.25098e-06
-3.333e-06
-3.58749e-06
-2.90829e-06
-3.05032e-06
-2.85663e-06
-2.98977e-06
-3.03547e-06
-3.06757e-06
-3.12858e-06
-3.20866e-06
-3.48836e-06
-3.44807e-06
-2.80311e-06
-3.15206e-06
-2.84133e-06
-3.03946e-06
-3.1333e-06
-3.16539e-06
-3.15817e-06
-3.31521e-06
-3.34707e-06
-3.30715e-06
-2.56319e-06
-2.61712e-06
-2.39344e-06
-2.6214e-06
-2.74807e-06
-2.77491e-06
-2.82555e-06
-2.80789e-06
-2.76637e-06
-2.58015e-06
-1.91426e-06
-1.60031e-05
-1.46085e-05
-1.44472e-05
-1.35211e-05
-1.26066e-05
-1.19514e-05
-1.12532e-05
-1.0748e-05
-1.09317e-05
-8.44756e-06
-1.35287e-05
-1.15428e-05
-1.06581e-05
-1.01664e-05
-9.35509e-06
-8.52238e-06
-8.56525e-06
-8.60404e-06
-7.88816e-06
-6.53828e-06
-1.14763e-05
-9.60549e-06
-9.47493e-06
-8.68197e-06
-7.83073e-06
-7.60198e-06
-7.23784e-06
-7.17207e-06
-7.69165e-06
-5.91534e-06
-1.00933e-05
-8.44176e-06
-7.82242e-06
-7.33666e-06
-6.60503e-06
-5.93996e-06
-6.36261e-06
-6.77366e-06
-6.37636e-06
-5.64558e-06
-8.75006e-06
-7.06984e-06
-6.9888e-06
-6.23093e-06
-5.35784e-06
-5.39455e-06
-5.54015e-06
-5.74878e-06
-6.3456e-06
-5.13255e-06
-8.04072e-06
-6.62834e-06
-6.18633e-06
-5.71677e-06
-5.1725e-06
-4.78121e-06
-5.23628e-06
-5.76223e-06
-5.61613e-06
-4.93402e-06
-7.51406e-06
-6.02933e-06
-5.95671e-06
-5.61834e-06
-5.01909e-06
-5.01186e-06
-5.21253e-06
-5.29075e-06
-5.66778e-06
-4.71239e-06
-7.03902e-06
-5.88647e-06
-5.72799e-06
-5.40798e-06
-5.12973e-06
-5.03974e-06
-5.03849e-06
-5.45083e-06
-5.49385e-06
-4.52052e-06
-6.67896e-06
-5.54659e-06
-5.42627e-06
-5.27087e-06
-5.07404e-06
-4.91571e-06
-5.15267e-06
-5.26792e-06
-5.28233e-06
-4.20945e-06
-5.35807e-06
-4.39609e-06
-4.47065e-06
-4.40837e-06
-4.28799e-06
-4.32113e-06
-4.34445e-06
-4.37137e-06
-4.24936e-06
-3.18938e-06
-1.22035e-05
-1.17569e-05
-1.21394e-05
-1.16881e-05
-1.151e-05
-1.15035e-05
-1.13493e-05
-1.1148e-05
-1.15117e-05
-8.88019e-06
-1.091e-05
-9.83639e-06
-9.29722e-06
-9.29763e-06
-8.98536e-06
-8.4859e-06
-8.9022e-06
-9.14113e-06
-8.4547e-06
-6.99377e-06
-9.80008e-06
-8.48166e-06
-8.76074e-06
-8.25627e-06
-7.72887e-06
-7.8241e-06
-7.66767e-06
-7.76536e-06
-8.35432e-06
-6.42985e-06
-9.29466e-06
-7.98635e-06
-7.49856e-06
-7.2799e-06
-6.7715e-06
-6.29143e-06
-6.91941e-06
-7.45748e-06
-7.09775e-06
-6.20808e-06
-8.56967e-06
-7.00522e-06
-7.07934e-06
-6.46145e-06
-5.71046e-06
-5.89077e-06
-6.1956e-06
-6.52448e-06
-7.11776e-06
-5.75958e-06
-8.29055e-06
-6.92172e-06
-6.56061e-06
-6.17985e-06
-5.71253e-06
-5.42493e-06
-6.00776e-06
-6.60754e-06
-6.49764e-06
-5.59658e-06
-8.10734e-06
-6.57645e-06
-6.56341e-06
-6.30503e-06
-5.74696e-06
-5.80407e-06
-6.11232e-06
-6.25703e-06
-6.5746e-06
-5.43971e-06
-7.85308e-06
-6.60843e-06
-6.5169e-06
-6.23873e-06
-5.99235e-06
-5.98152e-06
-6.01491e-06
-6.44384e-06
-6.49736e-06
-5.24781e-06
-7.606e-06
-6.37897e-06
-6.29805e-06
-6.18485e-06
-6.02619e-06
-5.87259e-06
-6.15065e-06
-6.28464e-06
-6.20315e-06
-4.88593e-06
-6.1548e-06
-5.08664e-06
-5.22902e-06
-5.21291e-06
-5.108e-06
-5.15439e-06
-5.15729e-06
-5.12052e-06
-4.91321e-06
-3.63368e-06
-1.45497e-05
-1.37458e-05
-1.39854e-05
-1.34795e-05
-1.30617e-05
-1.28841e-05
-1.25832e-05
-1.22982e-05
-1.26623e-05
-9.76683e-06
-1.27518e-05
-1.12625e-05
-1.06252e-05
-1.04581e-05
-9.94598e-06
-9.39398e-06
-9.70259e-06
-9.94704e-06
-9.26532e-06
-7.57808e-06
-1.14808e-05
-9.75879e-06
-9.79789e-06
-9.20534e-06
-8.5331e-06
-8.48945e-06
-8.36428e-06
-8.43047e-06
-8.98014e-06
-6.96973e-06
-1.064e-05
-8.98683e-06
-8.47332e-06
-8.05473e-06
-7.39816e-06
-6.8926e-06
-7.44546e-06
-7.99434e-06
-7.74935e-06
-6.6616e-06
-9.85596e-06
-7.9886e-06
-7.86554e-06
-7.14894e-06
-6.26938e-06
-6.33669e-06
-6.72997e-06
-7.1062e-06
-7.60887e-06
-6.25749e-06
-9.45336e-06