/*--------------------------------*- C++ -*----------------------------------*\
| =========                 |                                                 |
| \\      /  F ield         | OpenFOAM: The Open Source CFD Toolbox           |
|  \\    /   O peration     | Version:  2406                                  |
|   \\  /    A nd           | Website:  www.openfoam.com                      |
|    \\/     M anipulation  |                                                 |
\*---------------------------------------------------------------------------*/
FoamFile
{
    version     2.0;
    format      ascii;
    arch        "LSB;label=32;scalar=64";
    class       volScalarField;
    location    "1.3";
    object      magR;
}
// * * * * * * * * * * * * * * * * * * * * * * * * * * * * * * * * * * * * * //

dimensions      [0 2 -2 0 0 0 0];

internalField   uniform 0;

boundaryField
{
    walls
    {
        type            calculated;
        value           nonuniform List<scalar> 
2000
(
5.84368e-07
8.28589e-07
1.09509e-06
1.31565e-06
1.44047e-06
1.44047e-06
1.31565e-06
1.09509e-06
8.28589e-07
5.84367e-07
2.35125e-07
3.2282e-07
4.26155e-07
5.15489e-07
5.67299e-07
5.67299e-07
5.15488e-07
4.26154e-07
3.22819e-07
2.35124e-07
8.23386e-08
1.10264e-07
1.44699e-07
1.75728e-07
1.94056e-07
1.94056e-07
1.75727e-07
1.44697e-07
1.10262e-07
8.23369e-08
1.07673e-07
1.45229e-07
1.90614e-07
2.30869e-07
2.54472e-07
2.54471e-07
2.30866e-07
1.9061e-07
1.45224e-07
1.07668e-07
8.39627e-08
1.12632e-07
1.47905e-07
1.79537e-07
1.98204e-07
1.98202e-07
1.79531e-07
1.47897e-07
1.12622e-07
8.39539e-08
9.09585e-08
1.2233e-07
1.60711e-07
1.95005e-07
2.15208e-07
2.15203e-07
1.94994e-07
1.60694e-07
1.22312e-07
9.09409e-08
8.51373e-08
1.14326e-07
1.50206e-07
1.82363e-07
2.01338e-07
2.01331e-07
1.82343e-07
1.50177e-07
1.14294e-07
8.51065e-08
8.70319e-08
1.16943e-07
1.53648e-07
1.86508e-07
2.05885e-07
2.05872e-07
1.86473e-07
1.53598e-07
1.16887e-07
8.69777e-08
8.55829e-08
1.14942e-07
1.5101e-07
1.83321e-07
2.02378e-07
2.02357e-07
1.83264e-07
1.50928e-07
1.14851e-07
8.54939e-08
8.61335e-08
1.15693e-07
1.51986e-07
1.84485e-07
2.03642e-07
2.0361e-07
1.84396e-07
1.5186e-07
1.15553e-07
8.59971e-08
8.58049e-08
1.15231e-07
1.51367e-07
1.83726e-07
2.02796e-07
2.02751e-07
1.83603e-07
1.51192e-07
1.15037e-07
8.56168e-08
8.59849e-08
1.15473e-07
1.51676e-07
1.84087e-07
2.03181e-07
2.03125e-07
1.83932e-07
1.51456e-07
1.1523e-07
8.57502e-08
8.59098e-08
1.15368e-07
1.51536e-07
1.83914e-07
2.02985e-07
2.0292e-07
1.83735e-07
1.51283e-07
1.15091e-07
8.56446e-08
8.59379e-08
1.15411e-07
1.51598e-07
1.83992e-07
2.03069e-07
2.03e-07
1.83802e-07
1.51332e-07
1.15123e-07
8.56638e-08
8.58726e-08
1.1533e-07
1.51502e-07
1.83885e-07
2.02958e-07
2.0289e-07
1.83701e-07
1.51246e-07
1.15054e-07
8.56124e-08
8.58188e-08
1.15267e-07
1.51432e-07
1.83813e-07
2.02889e-07
2.02829e-07
1.8365e-07
1.51206e-07
1.15025e-07
8.55935e-08
8.57382e-08
1.15167e-07
1.51313e-07
1.83685e-07
2.02762e-07
2.02715e-07
1.83557e-07
1.51139e-07
1.14982e-07
8.55674e-08
8.56669e-08
1.1508e-07
1.51214e-07
1.8358e-07
2.02665e-07
2.02636e-07
1.83503e-07
1.51109e-07
1.14972e-07
8.55697e-08
8.55965e-08
1.14997e-07
1.5112e-07
1.83486e-07
2.02582e-07
2.02576e-07
1.8347e-07
1.51101e-07
1.14982e-07
8.55885e-08
8.55339e-08
1.14926e-07
1.51046e-07
1.83418e-07
2.02531e-07
2.02548e-07
1.83466e-07
1.51117e-07
1.15009e-07
8.56188e-08
8.54744e-08
1.14858e-07
1.50977e-07
1.83356e-07
2.02485e-07
2.02523e-07
1.83461e-07
1.51127e-07
1.15026e-07
8.56379e-08
8.54197e-08
1.14794e-07
1.50908e-07
1.8329e-07
2.02429e-07
2.02481e-07
1.83433e-07
1.5111e-07
1.15016e-07
8.56325e-08
8.53711e-08
1.14732e-07
1.50835e-07
1.83212e-07
2.02352e-07
2.02411e-07
1.83372e-07
1.51059e-07
1.14975e-07
8.56011e-08
8.53313e-08
1.14679e-07
1.50765e-07
1.8313e-07
2.02264e-07
2.02323e-07
1.83292e-07
1.5099e-07
1.1492e-07
8.55591e-08
8.53021e-08
1.14638e-07
1.5071e-07
1.83061e-07
2.02186e-07
2.02244e-07
1.8322e-07
1.50931e-07
1.14875e-07
8.55273e-08
8.52846e-08
1.14615e-07
1.50678e-07
1.83021e-07
2.02141e-07
2.02199e-07
1.83182e-07
1.50904e-07
1.1486e-07
8.5521e-08
8.52838e-08
1.14615e-07
1.50679e-07
1.83021e-07
2.02141e-07
2.02202e-07
1.8319e-07
1.50918e-07
1.1488e-07
8.55425e-08
8.53142e-08
1.14654e-07
1.50725e-07
1.83072e-07
2.02195e-07
2.02257e-07
1.83244e-07
1.50969e-07
1.14927e-07
8.55833e-08
8.54013e-08
1.14758e-07
1.50842e-07
1.83193e-07
2.02313e-07
2.02365e-07
1.83339e-07
1.51047e-07
1.14988e-07
8.56294e-08
8.55694e-08
1.14952e-07
1.51053e-07
1.83405e-07
2.02509e-07
2.02533e-07
1.83471e-07
1.51143e-07
1.15051e-07
8.56654e-08
8.58186e-08
1.15239e-07
1.51362e-07
1.8371e-07
2.02784e-07
2.02758e-07
1.83634e-07
1.51245e-07
1.15101e-07
8.56793e-08
8.61074e-08
1.15573e-07
1.51727e-07
1.84073e-07
2.03109e-07
2.03015e-07
1.83809e-07
1.5134e-07
1.15131e-07
8.56679e-08
8.63555e-08
1.15868e-07
1.52058e-07
1.8441e-07
2.03412e-07
2.03251e-07
1.83961e-07
1.51413e-07
1.1514e-07
8.56387e-08
8.64727e-08
1.16019e-07
1.52244e-07
1.84613e-07
2.03602e-07
2.034e-07
1.84052e-07
1.51446e-07
1.1513e-07
8.56055e-08
8.64027e-08
1.15958e-07
1.52204e-07
1.84598e-07
2.03603e-07
2.03402e-07
1.84044e-07
1.51426e-07
1.15103e-07
8.55793e-08
8.61563e-08
1.15687e-07
1.5193e-07
1.84346e-07
2.0339e-07
2.03234e-07
1.83921e-07
1.51344e-07
1.15057e-07
8.5561e-08
8.58096e-08
1.15288e-07
1.51499e-07
1.83923e-07
2.03013e-07
2.02932e-07
1.83706e-07
1.51212e-07
1.14995e-07
8.55469e-08
8.54712e-08
1.14885e-07
1.51047e-07
1.83459e-07
2.02587e-07
2.02585e-07
1.83461e-07
1.51068e-07
1.14935e-07
8.55411e-08
8.52358e-08
1.14597e-07
1.50709e-07
1.83102e-07
2.02253e-07
2.02314e-07
1.83279e-07
1.50974e-07
1.14915e-07
8.55627e-08
8.51648e-08
1.14505e-07
1.50595e-07
1.82977e-07
2.02141e-07
2.0224e-07
1.83259e-07
1.51007e-07
1.14987e-07
8.5648e-08
8.53306e-08
1.14698e-07
1.50808e-07
1.83201e-07
2.02373e-07
2.0248e-07
1.83505e-07
1.51249e-07
1.15212e-07
8.58369e-08
8.58675e-08
1.15328e-07
1.51512e-07
1.8394e-07
2.03106e-07
2.03172e-07
1.84126e-07
1.51774e-07
1.15627e-07
8.61376e-08
8.69286e-08
1.16568e-07
1.52885e-07
1.85364e-07
2.04485e-07
2.04419e-07
1.85173e-07
1.52584e-07
1.16196e-07
8.64949e-08
8.86157e-08
1.18536e-07
1.55057e-07
1.87595e-07
2.06606e-07
2.06281e-07
1.86672e-07
1.53681e-07
1.16914e-07
8.69095e-08
9.09467e-08
1.21259e-07
1.58058e-07
1.90665e-07
2.09498e-07
2.0879e-07
1.88671e-07
1.5514e-07
1.17883e-07
8.7499e-08
9.38586e-08
1.24699e-07
1.61899e-07
1.94641e-07
2.13299e-07
2.12157e-07
1.91441e-07
1.5727e-07
1.1942e-07
8.85592e-08
9.72108e-08
1.28717e-07
1.66457e-07
1.99421e-07
2.17937e-07
2.16337e-07
1.94965e-07
1.60072e-07
1.21533e-07
9.01054e-08
1.00423e-07
1.3283e-07
1.71446e-07
2.05014e-07
2.23725e-07
2.21884e-07
1.99909e-07
1.64193e-07
1.24765e-07
9.25608e-08
1.03219e-07
1.36406e-07
1.75776e-07
2.09795e-07
2.28561e-07
2.26374e-07
2.03766e-07
1.67284e-07
1.27103e-07
9.42964e-08
1.04617e-07
1.3926e-07
1.80496e-07
2.1634e-07
2.36455e-07
2.34798e-07
2.11833e-07
1.74311e-07
1.32759e-07
9.872e-08
5.84367e-07
8.28588e-07
1.09509e-06
1.31565e-06
1.44047e-06
1.44047e-06
1.31565e-06
1.09509e-06
8.28589e-07
5.84368e-07
2.35123e-07
3.22817e-07
4.26152e-07
5.15487e-07
5.67297e-07
5.67298e-07
5.15488e-07
4.26154e-07
3.22819e-07
2.35125e-07
8.23345e-08
1.10259e-07
1.44694e-07
1.75724e-07
1.94053e-07
1.94054e-07
1.75727e-07
1.44698e-07
1.10264e-07
8.23386e-08
1.07661e-07
1.45217e-07
1.90602e-07
2.30858e-07
2.54464e-07
2.54467e-07
2.30866e-07
1.90613e-07
1.45228e-07
1.07672e-07
8.39411e-08
1.12608e-07
1.47882e-07
1.79517e-07
1.98189e-07
1.98195e-07
1.79531e-07
1.47902e-07
1.1263e-07
8.39622e-08
9.0916e-08
1.22284e-07
1.60664e-07
1.94965e-07
2.15179e-07
2.15189e-07
1.94992e-07
1.60703e-07
1.22327e-07
9.09573e-08
8.50662e-08
1.14248e-07
1.50127e-07
1.82295e-07
2.01289e-07
2.01306e-07
1.82341e-07
1.50192e-07
1.14319e-07
8.51351e-08
8.69166e-08
1.16817e-07
1.53522e-07
1.86398e-07
2.05806e-07
2.05832e-07
1.86471e-07
1.53626e-07
1.16932e-07
8.70283e-08
8.54103e-08
1.14754e-07
1.50823e-07
1.8316e-07
2.02264e-07
2.02303e-07
1.83268e-07
1.50978e-07
1.14926e-07
8.55777e-08
8.58879e-08
1.15427e-07
1.51723e-07
1.8426e-07
2.03488e-07
2.03544e-07
1.84414e-07
1.51942e-07
1.15671e-07
8.61264e-08
8.54811e-08
1.14881e-07
1.51023e-07
1.83434e-07
2.026e-07
2.02673e-07
1.83637e-07
1.51312e-07
1.15204e-07
8.57962e-08
8.55894e-08
1.15044e-07
1.51254e-07
1.83732e-07
2.02945e-07
2.03035e-07
1.83982e-07
1.5161e-07
1.1544e-07
8.59746e-08
8.54691e-08
1.14887e-07
1.51061e-07
1.83512e-07
2.02717e-07
2.02819e-07
1.83795e-07
1.51462e-07
1.15331e-07
8.58986e-08
8.54925e-08
1.14921e-07
1.51109e-07
1.83575e-07
2.02792e-07
2.02898e-07
1.83868e-07
1.51521e-07
1.15374e-07
8.59271e-08
8.54682e-08
1.14881e-07
1.51049e-07
1.83498e-07
2.02701e-07
2.02801e-07
1.83772e-07
1.51433e-07
1.15298e-07
8.5864e-08
8.54918e-08
1.14901e-07
1.5106e-07
1.83495e-07
2.02683e-07
2.02767e-07
1.83726e-07
1.5138e-07
1.15244e-07
8.58136e-08
8.55065e-08
1.14905e-07
1.51047e-07
1.83459e-07
2.02622e-07
2.02685e-07
1.83631e-07
1.51283e-07
1.15154e-07
8.57363e-08
8.55299e-08
1.14923e-07
1.51052e-07
1.83444e-07
2.02582e-07
2.02621e-07
1.83551e-07
1.51198e-07
1.15074e-07
8.56665e-08
8.55434e-08
1.1493e-07
1.51046e-07
1.83417e-07
2.0253e-07
2.02547e-07
1.83462e-07
1.51106e-07
1.1499e-07
8.55951e-08
8.55546e-08
1.14936e-07
1.5104e-07
1.83392e-07
2.02482e-07
2.02478e-07
1.8338e-07
1.51021e-07
1.14912e-07
8.553e-08
8.55664e-08
1.14941e-07
1.51033e-07
1.83365e-07
2.02434e-07
2.02411e-07
1.83301e-07
1.50941e-07
1.1484e-07
8.54689e-08
8.55861e-08
1.14955e-07
1.51035e-07
1.8335e-07
2.02399e-07
2.02358e-07
1.83237e-07
1.50874e-07
1.14778e-07
8.54158e-08
8.56113e-08
1.14977e-07
1.51047e-07
1.83347e-07
2.02379e-07
2.02323e-07
1.83191e-07
1.50824e-07
1.1473e-07
8.53718e-08
8.56316e-08
1.14995e-07
1.5106e-07
1.83351e-07
2.02371e-07
2.02302e-07
1.83161e-07
1.50789e-07
1.14693e-07
8.53377e-08
8.56324e-08
1.14994e-07
1.51056e-07
1.83343e-07
2.02357e-07
2.02282e-07
1.83135e-07
1.5076e-07
1.14665e-07
8.53116e-08
8.56061e-08
1.14962e-07
1.5102e-07
1.83307e-07
2.02321e-07
2.02248e-07
1.83103e-07
1.50732e-07
1.14641e-07
8.52928e-08
8.55589e-08
1.14905e-07
1.50957e-07
1.83243e-07
2.02263e-07
2.02199e-07
1.83067e-07
1.50708e-07
1.14627e-07
8.52863e-08
8.55104e-08
1.14846e-07
1.5089e-07
1.83177e-07
2.02206e-07
2.0216e-07
1.83049e-07
1.50709e-07
1.14643e-07
8.53088e-08
8.54816e-08
1.14815e-07
1.50859e-07
1.83154e-07
2.02201e-07
2.0218e-07
1.83096e-07
1.50778e-07
1.14723e-07
8.53886e-08
8.54816e-08
1.14831e-07
1.50895e-07
1.83216e-07
2.02296e-07
2.02311e-07
1.83258e-07
1.50958e-07
1.14903e-07
8.55523e-08
8.55014e-08
1.14886e-07
1.50999e-07
1.83375e-07
2.02512e-07
2.02576e-07
1.83555e-07
1.51262e-07
1.15188e-07
8.58011e-08
8.55243e-08
1.14959e-07
1.51144e-07
1.836e-07
2.02815e-07
2.02938e-07
1.83946e-07
1.51646e-07
1.15533e-07
8.60932e-08
8.55402e-08
1.15025e-07
1.51286e-07
1.83829e-07
2.03126e-07
2.03306e-07
1.84332e-07
1.52009e-07
1.15845e-07
8.63471e-08
8.55516e-08
1.15068e-07
1.51382e-07
1.83989e-07
2.03344e-07
2.03558e-07
1.84583e-07
1.52228e-07
1.16013e-07
8.64708e-08
8.55629e-08
1.15083e-07
1.51406e-07
1.84028e-07
2.03393e-07
2.03601e-07
1.84602e-07
1.52211e-07
1.15964e-07
8.64062e-08
8.55724e-08
1.15065e-07
1.5135e-07
1.83929e-07
2.03246e-07
2.03406e-07
1.84364e-07
1.51947e-07
1.15698e-07
8.61624e-08
8.5574e-08
1.15019e-07
1.51229e-07
1.8372e-07
2.02946e-07
2.03029e-07
1.8394e-07
1.51515e-07
1.15296e-07
8.58149e-08
8.55678e-08
1.14958e-07
1.51082e-07
1.83469e-07
2.02588e-07
2.0259e-07
1.83462e-07
1.5105e-07
1.14886e-07
8.5473e-08
8.55648e-08
1.14911e-07
1.50962e-07
1.83258e-07
2.02288e-07
2.02226e-07
1.83078e-07
1.50691e-07
1.14584e-07
8.52319e-08
8.55858e-08
1.14909e-07
1.50918e-07
1.8316e-07
2.02139e-07
2.02045e-07
1.82896e-07
1.50536e-07
1.14469e-07
8.51522e-08
8.56745e-08
1.15008e-07
1.51013e-07
1.8325e-07
2.02226e-07
2.02143e-07
1.83015e-07
1.50677e-07
1.14625e-07
8.53054e-08
8.58809e-08
1.15282e-07
1.51348e-07
1.83649e-07
2.02693e-07
2.02677e-07
1.83602e-07
1.51284e-07
1.15208e-07
8.58289e-08
8.61767e-08
1.15735e-07
1.51977e-07
1.84469e-07
2.03703e-07
2.0385e-07
1.84877e-07
1.52572e-07
1.16408e-07
8.68819e-08
8.63967e-08
1.16223e-07
1.52811e-07
1.85695e-07
2.05317e-07
2.05782e-07
1.8699e-07
1.5469e-07
1.18354e-07
8.85684e-08
8.62062e-08
1.16404e-07
1.53544e-07
1.87094e-07
2.07391e-07
2.08402e-07
1.89919e-07
1.57637e-07
1.21052e-07
9.08944e-08
8.50108e-08
1.15594e-07
1.5346e-07
1.87986e-07
2.09333e-07
2.11236e-07
1.93305e-07
1.61157e-07
1.24332e-07
9.37535e-08
8.25654e-08
1.13435e-07
1.52095e-07
1.87855e-07
2.10628e-07
2.13809e-07
1.96744e-07
1.64921e-07
1.27947e-07
9.69584e-08
7.86284e-08
1.09325e-07
1.48398e-07
1.85251e-07
2.09606e-07
2.14452e-07
1.98747e-07
1.67729e-07
1.30985e-07
9.98541e-08
7.52462e-08
1.05687e-07
1.4501e-07
1.82785e-07
2.08549e-07
2.14913e-07
2.00442e-07
1.70131e-07
1.33583e-07
1.02306e-07
6.9272e-08
9.81788e-08
1.362e-07
1.73727e-07
2.00438e-07
2.08719e-07
1.96532e-07
1.68266e-07
1.33191e-07
1.02785e-07
5.84367e-07
8.28588e-07
1.09509e-06
1.31565e-06
1.44047e-06
1.44047e-06
1.31565e-06
1.09509e-06
8.28588e-07
5.84367e-07
2.35122e-07
3.22816e-07
4.26151e-07
5.15485e-07
5.67295e-07
5.67295e-07
5.15485e-07
4.26152e-07
3.22817e-07
2.35123e-07
8.23328e-08
1.10257e-07
1.44691e-07
1.7572e-07
1.94048e-07
1.94048e-07
1.75721e-07
1.44692e-07
1.10259e-07
8.23343e-08
1.07657e-07
1.4521e-07
1.90593e-07
2.30847e-07
2.54451e-07
2.54452e-07
2.30849e-07
1.90597e-07
1.45214e-07
1.07661e-07
8.3932e-08
1.12595e-07
1.47865e-07
1.79495e-07
1.98164e-07
1.98166e-07
1.79501e-07
1.47872e-07
1.12603e-07
8.394e-08
9.08968e-08
1.22257e-07
1.60629e-07
1.94921e-07
2.15127e-07
2.15131e-07
1.94933e-07
1.60645e-07
1.22275e-07
9.09136e-08
8.50309e-08
1.14199e-07
1.50065e-07
1.82218e-07
2.01199e-07
2.01207e-07
1.82238e-07
1.50094e-07
1.14231e-07
8.50615e-08
8.68551e-08
1.16733e-07
1.53414e-07
1.86266e-07
2.05653e-07
2.05665e-07
1.863e-07
1.53463e-07
1.16787e-07
8.6908e-08
8.5317e-08
1.14626e-07
1.50656e-07
1.82955e-07
2.02026e-07
2.02044e-07
1.83005e-07
1.50728e-07
1.14706e-07
8.5396e-08
8.57614e-08
1.15249e-07
1.51487e-07
1.83964e-07
2.03142e-07
2.03166e-07
1.8403e-07
1.5158e-07
1.15355e-07
8.58663e-08
8.5331e-08
1.14662e-07
1.5072e-07
1.83046e-07
2.02139e-07
2.02166e-07
1.83121e-07
1.50827e-07
1.14783e-07
8.54515e-08
8.54336e-08
1.14804e-07
1.50906e-07
1.83269e-07
2.02383e-07
2.02409e-07
1.83343e-07
1.51011e-07
1.14923e-07
8.55534e-08
8.53312e-08
1.14656e-07
1.50704e-07
1.83017e-07
2.02099e-07
2.0212e-07
1.83077e-07
1.50789e-07
1.14753e-07
8.54302e-08
8.53944e-08
1.14732e-07
1.50789e-07
1.83105e-07
2.02183e-07
2.02196e-07
1.8314e-07
1.50839e-07
1.1479e-07
8.54558e-08
8.54228e-08
1.14758e-07
1.50806e-07
1.83109e-07
2.02173e-07
2.02175e-07
1.83115e-07
1.50815e-07
1.14769e-07
8.54384e-08
8.54989e-08
1.14852e-07
1.50917e-07
1.83228e-07
2.02291e-07
2.02282e-07
1.83205e-07
1.50884e-07
1.14818e-07
8.54716e-08
8.55545e-08
1.14923e-07
1.51003e-07
1.83324e-07
2.02388e-07
2.02371e-07
1.83279e-07
1.5094e-07
1.14857e-07
8.54959e-08
8.56026e-08
1.14988e-07
1.51087e-07
1.83424e-07
2.02495e-07
2.02474e-07
1.83367e-07
1.51009e-07
1.14905e-07
8.55272e-08
8.56284e-08
1.15024e-07
1.51136e-07
1.83485e-07
2.02563e-07
2.02541e-07
1.83425e-07
1.51053e-07
1.14935e-07
8.55465e-08
8.56474e-08
1.15048e-07
1.51168e-07
1.83525e-07
2.02608e-07
2.02587e-07
1.83467e-07
1.51087e-07
1.14959e-07
8.55623e-08
8.56691e-08
1.15073e-07
1.51196e-07
1.83556e-07
2.02641e-07
2.0262e-07
1.83498e-07
1.51115e-07
1.14982e-07
8.55787e-08
8.5704e-08
1.15114e-07
1.51242e-07
1.83604e-07
2.02689e-07
2.02667e-07
1.83543e-07
1.51154e-07
1.15015e-07
8.56038e-08
8.57519e-08
1.15173e-07
1.5131e-07
1.83677e-07
2.02763e-07
2.02737e-07
1.83605e-07
1.51206e-07
1.15056e-07
8.56348e-08
8.58078e-08
1.15243e-07
1.51394e-07
1.83768e-07
2.02854e-07
2.0282e-07
1.83675e-07
1.51261e-07
1.15095e-07
8.56608e-08
8.58633e-08
1.15313e-07
1.51476e-07
1.83857e-07
2.0294e-07
2.02895e-07
1.83731e-07
1.51296e-07
1.15112e-07
8.56668e-08
8.59093e-08
1.15368e-07
1.51538e-07
1.83921e-07
2.02997e-07
2.02937e-07
1.83753e-07
1.51298e-07
1.15099e-07
8.56457e-08
8.59321e-08
1.15393e-07
1.51563e-07
1.83941e-07
2.03008e-07
2.02934e-07
1.83734e-07
1.51265e-07
1.15058e-07
8.56033e-08
8.59091e-08
1.15363e-07
1.51528e-07
1.83901e-07
2.02962e-07
2.02882e-07
1.83678e-07
1.51209e-07
1.15004e-07
8.55564e-08
8.58128e-08
1.15252e-07
1.51407e-07
1.83779e-07
2.02846e-07
2.02777e-07
1.83589e-07
1.51138e-07
1.14951e-07
8.55201e-08
8.56305e-08
1.15043e-07
1.51184e-07
1.83559e-07
2.02645e-07
2.02609e-07
1.83461e-07
1.51051e-07
1.14902e-07
8.54982e-08
8.53827e-08
1.14756e-07
1.50872e-07
1.83247e-07
2.02361e-07
2.02374e-07
1.83287e-07
1.50939e-07
1.14845e-07
8.54814e-08
8.51243e-08
1.14449e-07
1.50528e-07
1.82892e-07
2.02029e-07
2.02094e-07
1.83078e-07
1.50804e-07
1.14777e-07
8.54605e-08
8.49256e-08
1.14203e-07
1.50236e-07
1.82576e-07
2.01722e-07
2.01828e-07
1.82877e-07
1.50675e-07
1.14712e-07
8.5439e-08
8.48483e-08
1.14093e-07
1.50085e-07
1.82395e-07
2.01534e-07
2.01662e-07
1.82753e-07
1.50599e-07
1.14679e-07
8.54334e-08
8.49243e-08
1.14164e-07
1.50136e-07
1.82422e-07
2.01543e-07
2.01666e-07
1.82763e-07
1.5062e-07
1.14703e-07
8.54558e-08
8.51447e-08
1.14412e-07
1.50395e-07
1.82672e-07
2.01769e-07
2.01861e-07
1.82922e-07
1.5074e-07
1.14783e-07
8.55019e-08
8.54545e-08
1.14777e-07
1.50798e-07
1.83085e-07
2.02158e-07
2.02198e-07
1.83186e-07
1.50924e-07
1.14891e-07
8.55534e-08
8.57583e-08
1.15145e-07
1.51223e-07
1.83535e-07
2.0259e-07
2.0257e-07
1.83469e-07
1.51112e-07
1.14992e-07
8.55937e-08
8.59438e-08
1.15382e-07
1.51516e-07
1.83861e-07
2.02915e-07
2.02855e-07
1.83686e-07
1.51253e-07
1.15065e-07
8.56214e-08
8.59022e-08
1.15357e-07
1.51529e-07
1.83918e-07
2.03005e-07
2.02958e-07
1.83782e-07
1.51328e-07
1.15116e-07
8.56538e-08
8.5485e-08
1.14907e-07
1.51096e-07
1.83554e-07
2.02744e-07
2.02808e-07
1.8373e-07
1.51348e-07
1.15175e-07
8.57291e-08
8.45372e-08
1.1386e-07
1.5004e-07
1.82605e-07
2.01997e-07
2.0231e-07
1.83478e-07
1.51297e-07
1.15254e-07
8.58766e-08
8.30258e-08
1.12153e-07
1.48263e-07
1.80938e-07
2.00609e-07
2.01306e-07
1.8288e-07
1.51052e-07
1.15263e-07
8.60359e-08
8.10561e-08
1.09862e-07
1.45782e-07
1.78489e-07
1.98433e-07
1.99579e-07
1.8168e-07
1.50353e-07
1.14965e-07
8.6013e-08
7.88233e-08
1.07153e-07
1.42696e-07
1.7525e-07
1.95332e-07
1.96868e-07
1.79527e-07
1.48802e-07
1.13973e-07
8.54626e-08
7.66906e-08
1.04374e-07
1.3926e-07
1.71317e-07
1.91193e-07
1.92853e-07
1.75926e-07
1.45808e-07
1.11677e-07
8.38182e-08
7.49691e-08
1.01899e-07
1.35869e-07
1.67055e-07
1.86294e-07
1.87686e-07
1.70908e-07
1.41308e-07
1.07953e-07
8.09214e-08
7.40703e-08
1.00179e-07
1.32966e-07
1.62812e-07
1.80828e-07
1.81403e-07
1.64403e-07
1.35192e-07
1.02704e-07
7.6681e-08
7.36891e-08
9.9224e-08
1.31086e-07
1.59845e-07
1.7681e-07
1.7664e-07
1.59363e-07
1.30384e-07
9.85051e-08
7.32148e-08
7.47212e-08
9.95118e-08
1.29898e-07
1.56744e-07
1.71685e-07
1.69942e-07
1.5189e-07
1.23066e-07
9.19618e-08
6.7702e-08
5.84367e-07
8.28589e-07
1.09509e-06
1.31565e-06
1.44047e-06
1.44047e-06
1.31565e-06
1.09509e-06
8.28588e-07
5.84367e-07
2.35124e-07
3.22818e-07
4.26153e-07
5.15487e-07
5.67296e-07
5.67296e-07
5.15485e-07
4.26151e-07
3.22816e-07
2.35122e-07
8.23367e-08
1.10261e-07
1.44695e-07
1.75724e-07
1.94051e-07
1.9405e-07
1.75721e-07
1.44691e-07
1.10257e-07
8.23328e-08
1.07667e-07
1.45222e-07
1.90605e-07
2.30857e-07
2.54458e-07
2.54456e-07
2.3085e-07
1.90595e-07
1.45211e-07
1.07657e-07
8.39527e-08
1.12618e-07
1.47888e-07
1.79515e-07
1.98178e-07
1.98173e-07
1.79502e-07
1.47868e-07
1.12597e-07
8.39325e-08
9.09383e-08
1.22303e-07
1.60675e-07
1.94961e-07
2.15156e-07
2.15146e-07
1.94934e-07
1.60637e-07
1.22261e-07
9.0898e-08
8.51017e-08
1.14277e-07
1.50143e-07
1.82286e-07
2.01248e-07
2.01232e-07
1.82241e-07
1.50079e-07
1.14206e-07
8.5033e-08
8.69692e-08
1.16858e-07
1.53538e-07
1.86375e-07
2.05731e-07
2.05705e-07
1.86303e-07
1.53436e-07
1.16744e-07
8.68584e-08
8.54801e-08
1.14804e-07
1.50834e-07
1.83109e-07
2.02137e-07
2.021e-07
1.83007e-07
1.50688e-07
1.14641e-07
8.53214e-08
8.59765e-08
1.15484e-07
1.51721e-07
1.84169e-07
2.0329e-07
2.03241e-07
1.84034e-07
1.51528e-07
1.1527e-07
8.57672e-08
8.55893e-08
1.14944e-07
1.51005e-07
1.83298e-07
2.02325e-07
2.02266e-07
1.83136e-07
1.50774e-07
1.14688e-07
8.53386e-08
8.57169e-08
1.15116e-07
1.51226e-07
1.83559e-07
2.02605e-07
2.02541e-07
1.83382e-07
1.50975e-07
1.14838e-07
8.54436e-08
8.56086e-08
1.14967e-07
1.5103e-07
1.83323e-07
2.02346e-07
2.02284e-07
1.8315e-07
1.50786e-07
1.14697e-07
8.53435e-08
8.56294e-08
1.15001e-07
1.51082e-07
1.83393e-07
2.02432e-07
2.02379e-07
1.83247e-07
1.50877e-07
1.14776e-07
8.54075e-08
8.55837e-08
1.14949e-07
1.51027e-07
1.83341e-07
2.02391e-07
2.02354e-07
1.83241e-07
1.50888e-07
1.14798e-07
8.54345e-08
8.55731e-08
1.14948e-07
1.51041e-07
1.83376e-07
2.02448e-07
2.0243e-07
1.83329e-07
1.50978e-07
1.14882e-07
8.5507e-08
8.55556e-08
1.14934e-07
1.51036e-07
1.83384e-07
2.02473e-07
2.02473e-07
1.83384e-07
1.51038e-07
1.14939e-07
8.55586e-08
8.55649e-08
1.14951e-07
1.51063e-07
1.83424e-07
2.02526e-07
2.02536e-07
1.83451e-07
1.51102e-07
1.14994e-07
8.56042e-08
8.55887e-08
1.14982e-07
1.511e-07
1.83468e-07
2.02575e-07
2.02587e-07
1.835e-07
1.51144e-07
1.15028e-07
8.56301e-08
8.56232e-08
1.15026e-07
1.51152e-07
1.83526e-07
2.02635e-07
2.02644e-07
1.83551e-07
1.51185e-07
1.15058e-07
8.56514e-08
8.56468e-08
1.15059e-07
1.51195e-07
1.83577e-07
2.0269e-07
2.02699e-07
1.83599e-07
1.51226e-07
1.15089e-07
8.56751e-08
8.56469e-08
1.15067e-07
1.51215e-07
1.83609e-07
2.02733e-07
2.02747e-07
1.83649e-07
1.51272e-07
1.15129e-07
8.57091e-08
8.56215e-08
1.15046e-07
1.51205e-07
1.83613e-07
2.02753e-07
2.02782e-07
1.83693e-07
1.5132e-07
1.15177e-07
8.57526e-08
8.55855e-08
1.15011e-07
1.51176e-07
1.83599e-07
2.02757e-07
2.02805e-07
1.83733e-07
1.51369e-07
1.15229e-07
8.58022e-08
8.5559e-08
1.14985e-07
1.51154e-07
1.83587e-07
2.02762e-07
2.02829e-07
1.83774e-07
1.51421e-07
1.15284e-07
8.58532e-08
8.55574e-08
1.14985e-07
1.51158e-07
1.83598e-07
2.02785e-07
2.02866e-07
1.83822e-07
1.51475e-07
1.15336e-07
8.58992e-08
8.55827e-08
1.15016e-07
1.51195e-07
1.83641e-07
2.02832e-07
2.02916e-07
1.83872e-07
1.5152e-07
1.15372e-07
8.59266e-08
8.56245e-08
1.15065e-07
1.51249e-07
1.83695e-07
2.02881e-07
2.02953e-07
1.83893e-07
1.51525e-07
1.15363e-07
8.59101e-08
8.56645e-08
1.15106e-07
1.51289e-07
1.83723e-07
2.02887e-07
2.02929e-07
1.83838e-07
1.51445e-07
1.15271e-07
8.58188e-08
8.56829e-08
1.15113e-07
1.51276e-07
1.83679e-07
2.02801e-07
2.02797e-07
1.83665e-07
1.51248e-07
1.15073e-07
8.5638e-08
8.56663e-08
1.15066e-07
1.51188e-07
1.83538e-07
2.02602e-07
2.02543e-07
1.83373e-07
1.50944e-07
1.14788e-07
8.53892e-08
8.56163e-08
1.14972e-07
1.51033e-07
1.83317e-07
2.02314e-07
2.02205e-07
1.83013e-07
1.50596e-07
1.14479e-07
8.51295e-08
8.55505e-08
1.14858e-07
1.50855e-07
1.83072e-07
2.02012e-07
2.0187e-07
1.82679e-07
1.50294e-07
1.1423e-07
8.49309e-08
8.54949e-08
1.14765e-07
1.50713e-07
1.82882e-07
2.01789e-07
2.01641e-07
1.82472e-07
1.50131e-07
1.14116e-07
8.48542e-08
8.54697e-08
1.14727e-07
1.50658e-07
1.82815e-07
2.01723e-07
2.01596e-07
1.82464e-07
1.50165e-07
1.1418e-07
8.493e-08
8.54784e-08
1.14755e-07
1.50711e-07
1.82899e-07
2.01847e-07
2.01764e-07
1.82673e-07
1.504e-07
1.14417e-07
8.5148e-08
8.55103e-08
1.14833e-07
1.50851e-07
1.83109e-07
2.02128e-07
2.02104e-07
1.83048e-07
1.50779e-07
1.14767e-07
8.54536e-08
8.55546e-08
1.14935e-07
1.51033e-07
1.83378e-07
2.02478e-07
2.02511e-07
1.83475e-07
1.51185e-07
1.15124e-07
8.57526e-08
8.56147e-08
1.15045e-07
1.51213e-07
1.83628e-07
2.02785e-07
2.02846e-07
1.83803e-07
1.51474e-07
1.15357e-07
8.59353e-08
8.57156e-08
1.15174e-07
1.51372e-07
1.83802e-07
2.02953e-07
2.02982e-07
1.83888e-07
1.51501e-07
1.1534e-07
8.58952e-08
8.5882e-08
1.15332e-07
1.51495e-07
1.83847e-07
2.02885e-07
2.0278e-07
1.83561e-07
1.51088e-07
1.14899e-07
8.54806e-08
8.60976e-08
1.15481e-07
1.51515e-07
1.83659e-07
2.02433e-07
2.02055e-07
1.82612e-07
1.50021e-07
1.1384e-07
8.45279e-08
8.6293e-08
1.15532e-07
1.51319e-07
1.83105e-07
2.01451e-07
2.00658e-07
1.80911e-07
1.48199e-07
1.12101e-07
8.30018e-08
8.64814e-08
1.15508e-07
1.50936e-07
1.82223e-07
1.99995e-07
1.98672e-07
1.78569e-07
1.45758e-07
1.09826e-07
8.10283e-08
8.68079e-08
1.15585e-07
1.50578e-07
1.81259e-07
1.98347e-07
1.96413e-07
1.75923e-07
1.4303e-07
1.0731e-07
7.88469e-08
8.75911e-08
1.16168e-07
1.50742e-07
1.80799e-07
1.97162e-07
1.94575e-07
1.73662e-07
1.40649e-07
1.05087e-07
7.68817e-08
8.88618e-08
1.17316e-07
1.51547e-07
1.81046e-07
1.96739e-07
1.93539e-07
1.72211e-07
1.39044e-07
1.03536e-07
7.54561e-08
9.10646e-08
1.1967e-07
1.53864e-07
1.8306e-07
1.98229e-07
1.94423e-07
1.72543e-07
1.38975e-07
1.03215e-07
7.49687e-08
9.25848e-08
1.21226e-07
1.55336e-07
1.84302e-07
1.99144e-07
1.95012e-07
1.72876e-07
1.39154e-07
1.03276e-07
7.49353e-08
9.68377e-08
1.26324e-07
1.61187e-07
1.90534e-07
2.05248e-07
2.00532e-07
1.77488e-07
1.4277e-07
1.05862e-07
7.6733e-08
)
;
    }
    inlet
    {
        type            calculated;
        value           uniform 0;
    }
    outlet
    {
        type            calculated;
        value           uniform 0;
    }
}


// ************************************************************************* //
