/*--------------------------------*- C++ -*----------------------------------*\
| =========                 |                                                 |
| \\      /  F ield         | OpenFOAM: The Open Source CFD Toolbox           |
|  \\    /   O peration     | Version:  2406                                  |
|   \\  /    A nd           | Website:  www.openfoam.com                      |
|    \\/     M anipulation  |                                                 |
\*---------------------------------------------------------------------------*/
FoamFile
{
    version     2.0;
    format      ascii;
    arch        "LSB;label=32;scalar=64";
    class       volVectorField;
    location    "1.3";
    object      momentError;
}
// * * * * * * * * * * * * * * * * * * * * * * * * * * * * * * * * * * * * * //

dimensions      [0 1 -2 0 0 0 0];

internalField   nonuniform List<vector> 
25000
(
(-1.61276e-05 -2.81503e-05 -2.21093e-05)
(-1.10763e-05 -2.62937e-05 -2.70078e-05)
(-6.48534e-06 -2.50374e-05 -2.84553e-05)
(-2.30207e-06 -2.45005e-05 -2.86539e-05)
(1.87002e-06 -2.43103e-05 -2.85539e-05)
(6.10378e-06 -2.45877e-05 -2.85746e-05)
(1.052e-05 -2.53356e-05 -2.86591e-05)
(1.52054e-05 -2.61766e-05 -2.82612e-05)
(2.13236e-05 -2.66407e-05 -2.6476e-05)
(2.9311e-05 -2.75257e-05 -2.06616e-05)
(-1.68462e-05 -2.29074e-05 -2.77417e-05)
(-1.31129e-05 -2.31305e-05 -3.34616e-05)
(-9.13862e-06 -2.26376e-05 -3.46971e-05)
(-4.99048e-06 -2.23508e-05 -3.46475e-05)
(-4.56957e-07 -2.22493e-05 -3.4436e-05)
(4.23128e-06 -2.24729e-05 -3.45301e-05)
(9.05831e-06 -2.29871e-05 -3.48416e-05)
(1.39716e-05 -2.35573e-05 -3.47235e-05)
(1.99002e-05 -2.39297e-05 -3.30639e-05)
(2.66708e-05 -2.33493e-05 -2.67086e-05)
(-1.75893e-05 -1.85855e-05 -2.94495e-05)
(-1.37796e-05 -1.98443e-05 -3.50614e-05)
(-1.01194e-05 -2.00959e-05 -3.62306e-05)
(-6.04571e-06 -2.00525e-05 -3.61491e-05)
(-1.3773e-06 -1.99737e-05 -3.59252e-05)
(3.47924e-06 -2.0081e-05 -3.60935e-05)
(8.42346e-06 -2.03571e-05 -3.65525e-05)
(1.32453e-05 -2.05845e-05 -3.65448e-05)
(1.86002e-05 -2.05019e-05 -3.4901e-05)
(2.4844e-05 -1.93411e-05 -2.87456e-05)
(-1.85696e-05 -1.44077e-05 -2.96902e-05)
(-1.43798e-05 -1.59555e-05 -3.50974e-05)
(-1.06258e-05 -1.64988e-05 -3.6266e-05)
(-6.4636e-06 -1.65643e-05 -3.61869e-05)
(-1.70868e-06 -1.64653e-05 -3.59475e-05)
(3.21544e-06 -1.64502e-05 -3.61408e-05)
(8.18511e-06 -1.65335e-05 -3.66753e-05)
(1.29071e-05 -1.65295e-05 -3.67304e-05)
(1.79837e-05 -1.61693e-05 -3.50967e-05)
(2.40587e-05 -1.4895e-05 -2.9161e-05)
(-1.95977e-05 -1.0111e-05 -2.94797e-05)
(-1.49733e-05 -1.15296e-05 -3.47519e-05)
(-1.09611e-05 -1.20659e-05 -3.59354e-05)
(-6.61687e-06 -1.21135e-05 -3.586e-05)
(-1.74741e-06 -1.19424e-05 -3.56069e-05)
(3.21599e-06 -1.17813e-05 -3.58038e-05)
(8.17238e-06 -1.16878e-05 -3.63673e-05)
(1.28162e-05 -1.1557e-05 -3.64585e-05)
(1.77125e-05 -1.11976e-05 -3.48595e-05)
(2.36617e-05 -1.02889e-05 -2.90886e-05)
(-2.06871e-05 -5.97943e-06 -2.93694e-05)
(-1.55696e-05 -7.1797e-06 -3.4639e-05)
(-1.12039e-05 -7.58675e-06 -3.58853e-05)
(-6.59404e-06 -7.52342e-06 -3.58464e-05)
(-1.5564e-06 -7.22639e-06 -3.56025e-05)
(3.48309e-06 -6.88992e-06 -3.57996e-05)
(8.44099e-06 -6.60823e-06 -3.63586e-05)
(1.302e-05 -6.39354e-06 -3.64339e-05)
(1.77825e-05 -6.16907e-06 -3.48105e-05)
(2.3643e-05 -5.79249e-06 -2.90801e-05)
(-2.17944e-05 -1.79327e-06 -2.9412e-05)
(-1.60648e-05 -2.89001e-06 -3.48217e-05)
(-1.12541e-05 -3.14592e-06 -3.61796e-05)
(-6.31879e-06 -2.89891e-06 -3.61929e-05)
(-1.07032e-06 -2.40908e-06 -3.59704e-05)
(4.06522e-06 -1.849e-06 -3.61622e-05)
(9.01971e-06 -1.35369e-06 -3.66832e-05)
(1.35199e-05 -1.0395e-06 -3.66961e-05)
(1.81725e-05 -9.50628e-07 -3.49968e-05)
(2.40003e-05 -1.15786e-06 -2.91683e-05)
(-2.26328e-05 2.80895e-06 -2.90828e-05)
(-1.6202e-05 1.50875e-06 -3.46894e-05)
(-1.08277e-05 1.28478e-06 -3.61501e-05)
(-5.55471e-06 1.73694e-06 -3.61829e-05)
(-1.50829e-07 2.45834e-06 -3.59614e-05)
(5.0106e-06 3.26409e-06 -3.61215e-05)
(9.90163e-06 4.0189e-06 -3.65744e-05)
(1.43055e-05 4.5454e-06 -3.65303e-05)
(1.88435e-05 4.69573e-06 -3.47891e-05)
(2.45236e-05 4.059e-06 -2.88197e-05)
(-2.27597e-05 8.56103e-06 -2.75425e-05)
(-1.55811e-05 6.62886e-06 -3.31061e-05)
(-9.5219e-06 6.26389e-06 -3.46629e-05)
(-3.99433e-06 6.87624e-06 -3.47053e-05)
(1.37218e-06 7.80536e-06 -3.44651e-05)
(6.40159e-06 8.88414e-06 -3.45535e-05)
(1.11717e-05 1.00183e-05 -3.48945e-05)
(1.55524e-05 1.10401e-05 -3.47807e-05)
(2.01344e-05 1.17342e-05 -3.30336e-05)
(2.54815e-05 1.09882e-05 -2.70379e-05)
(-2.08284e-05 1.48559e-05 -2.34318e-05)
(-1.25128e-05 1.23935e-05 -2.77351e-05)
(-6.27109e-06 1.22688e-05 -2.92635e-05)
(-9.83676e-07 1.31133e-05 -2.94296e-05)
(3.89608e-06 1.41546e-05 -2.92455e-05)
(8.48904e-06 1.54226e-05 -2.92489e-05)
(1.30148e-05 1.69465e-05 -2.9387e-05)
(1.74652e-05 1.85515e-05 -2.90571e-05)
(2.23668e-05 1.98887e-05 -2.72812e-05)
(2.83157e-05 1.9936e-05 -2.21573e-05)
(9.09167e-06 -4.69573e-05 -9.56314e-05)
(1.28797e-05 -4.11476e-05 -0.00010806)
(1.68842e-05 -3.69717e-05 -0.000112474)
(2.05936e-05 -3.38868e-05 -0.000112458)
(2.3997e-05 -3.14469e-05 -0.000111054)
(2.72464e-05 -2.97213e-05 -0.000108828)
(3.00941e-05 -2.84983e-05 -0.000105311)
(3.24163e-05 -2.75125e-05 -9.91693e-05)
(3.53899e-05 -2.60438e-05 -8.65058e-05)
(4.12855e-05 -2.63456e-05 -5.83778e-05)
(3.7651e-06 -3.69804e-05 -0.000112241)
(6.55766e-06 -3.52478e-05 -0.000130906)
(9.61669e-06 -3.37837e-05 -0.000136992)
(1.3032e-05 -3.20068e-05 -0.000137177)
(1.67336e-05 -3.04373e-05 -0.000135813)
(2.05942e-05 -2.95311e-05 -0.00013448)
(2.43954e-05 -2.90898e-05 -0.000132839)
(2.77645e-05 -2.86599e-05 -0.000128807)
(3.11919e-05 -2.73969e-05 -0.000116812)
(3.56825e-05 -2.577e-05 -8.59771e-05)
(-6.12916e-07 -3.0609e-05 -0.00011979)
(3.02821e-06 -3.08021e-05 -0.000140184)
(6.22983e-06 -3.06443e-05 -0.000145398)
(9.64749e-06 -2.94717e-05 -0.000144443)
(1.33284e-05 -2.8382e-05 -0.000142645)
(1.7335e-05 -2.78804e-05 -0.000141624)
(2.15985e-05 -2.78863e-05 -0.000140982)
(2.56821e-05 -2.79219e-05 -0.000138704)
(2.96139e-05 -2.69417e-05 -0.000128693)
(3.41055e-05 -2.50262e-05 -9.84293e-05)
(-4.63371e-06 -2.50722e-05 -0.000122875)
(-1.32313e-08 -2.56861e-05 -0.000143208)
(3.92033e-06 -2.59692e-05 -0.000147292)
(7.70233e-06 -2.53405e-05 -0.000145984)
(1.1535e-05 -2.46808e-05 -0.000144311)
(1.56422e-05 -2.43809e-05 -0.000143459)
(2.00779e-05 -2.44786e-05 -0.000142959)
(2.4591e-05 -2.46816e-05 -0.000141184)
(2.91801e-05 -2.40784e-05 -0.000132709)
(3.42038e-05 -2.27869e-05 -0.000104023)
(-8.05889e-06 -1.95907e-05 -0.000124766)
(-2.64276e-06 -2.01059e-05 -0.000144605)
(2.13736e-06 -2.06774e-05 -0.000148101)
(6.50345e-06 -2.04955e-05 -0.000146776)
(1.06979e-05 -2.01187e-05 -0.000145194)
(1.50408e-05 -1.99002e-05 -0.0001444)
(1.96522e-05 -1.99511e-05 -0.000143879)
(2.4408e-05 -2.01519e-05 -0.000142131)
(2.94158e-05 -1.99479e-05 -0.000134343)
(3.48236e-05 -1.98019e-05 -0.000106878)
(-1.07021e-05 -1.42219e-05 -0.000126366)
(-4.6085e-06 -1.46425e-05 -0.000146133)
(9.60934e-07 -1.54385e-05 -0.000149627)
(6.03951e-06 -1.55089e-05 -0.000148193)
(1.07641e-05 -1.52484e-05 -0.000146481)
(1.54519e-05 -1.50302e-05 -0.000145601)
(2.02913e-05 -1.50217e-05 -0.000145046)
(2.52299e-05 -1.52188e-05 -0.000143276)
(3.03491e-05 -1.54054e-05 -0.000135448)
(3.58016e-05 -1.6494e-05 -0.000108156)
(-1.25773e-05 -8.70622e-06 -0.000127788)
(-5.76043e-06 -9.08763e-06 -0.000147816)
(5.79979e-07 -9.97315e-06 -0.000151923)
(6.47914e-06 -1.0149e-05 -0.00015034)
(1.18253e-05 -9.90663e-06 -0.000148303)
(1.69169e-05 -9.64514e-06 -0.000147192)
(2.20145e-05 -9.58649e-06 -0.000146552)
(2.70307e-05 -9.85476e-06 -0.000144672)
(3.19531e-05 -1.05509e-05 -0.000136078)
(3.72029e-05 -1.30438e-05 -0.000108006)
(-1.34884e-05 -2.44024e-06 -0.000128202)
(-5.67109e-06 -2.97508e-06 -0.000147741)
(1.40362e-06 -3.66259e-06 -0.000152926)
(8.06498e-06 -3.73619e-06 -0.000151621)
(1.405e-05 -3.48416e-06 -0.000149302)
(1.95254e-05 -3.23276e-06 -0.00014785)
(2.47765e-05 -3.25893e-06 -0.000146917)
(2.9608e-05 -3.80222e-06 -0.000144423)
(3.39423e-05 -5.16841e-06 -0.000134335)
(3.88879e-05 -9.05093e-06 -0.000105489)
(-1.26308e-05 5.78331e-06 -0.000124382)
(-3.54021e-06 4.74765e-06 -0.000141299)
(4.32412e-06 4.29994e-06 -0.000146903)
(1.13899e-05 4.53726e-06 -0.000146541)
(1.7692e-05 4.78744e-06 -0.000144564)
(2.32886e-05 4.83485e-06 -0.00014273)
(2.83488e-05 4.42696e-06 -0.000140783)
(3.26389e-05 3.38815e-06 -0.0001367)
(3.64395e-05 1.38188e-06 -0.000125153)
(4.14529e-05 -3.70429e-06 -9.69393e-05)
(-7.2751e-06 1.63649e-05 -0.000114514)
(3.45929e-06 1.47995e-05 -0.00012335)
(1.18774e-05 1.45569e-05 -0.00012614)
(1.88222e-05 1.47573e-05 -0.00012488)
(2.46983e-05 1.46129e-05 -0.00012263)
(2.98562e-05 1.40789e-05 -0.000120014)
(3.44153e-05 1.30217e-05 -0.00011662)
(3.83616e-05 1.14072e-05 -0.000111233)
(4.24638e-05 8.67298e-06 -0.000100058)
(4.92164e-05 3.29334e-06 -7.62584e-05)
(4.16799e-05 -7.26961e-05 -0.000209094)
(4.58217e-05 -5.86788e-05 -0.0002122)
(5.09938e-05 -4.96812e-05 -0.000206333)
(5.54253e-05 -4.31286e-05 -0.000193002)
(5.86797e-05 -3.79115e-05 -0.000178041)
(6.11279e-05 -3.4175e-05 -0.000162303)
(6.25107e-05 -3.17727e-05 -0.00014431)
(6.28604e-05 -3.05662e-05 -0.000121299)
(6.37179e-05 -2.9358e-05 -8.52893e-05)
(6.93231e-05 -3.09046e-05 -1.15035e-05)
(2.67601e-05 -5.98754e-05 -0.000228602)
(3.1534e-05 -5.17105e-05 -0.000243556)
(3.70015e-05 -4.63197e-05 -0.00024194)
(4.16885e-05 -4.16059e-05 -0.000232191)
(4.53705e-05 -3.77709e-05 -0.000221222)
(4.82425e-05 -3.5207e-05 -0.000210216)
(5.00318e-05 -3.37197e-05 -0.000197751)
(5.06679e-05 -3.30683e-05 -0.000180911)
(5.13207e-05 -3.23207e-05 -0.000150248)
(5.4485e-05 -3.20188e-05 -8.13896e-05)
(1.91175e-05 -5.19417e-05 -0.000238667)
(2.63467e-05 -4.71455e-05 -0.000256472)
(3.28664e-05 -4.39057e-05 -0.000255045)
(3.77724e-05 -4.04839e-05 -0.000246343)
(4.13216e-05 -3.76197e-05 -0.00023691)
(4.40051e-05 -3.57918e-05 -0.000227867)
(4.57316e-05 -3.49015e-05 -0.000217911)
(4.6309e-05 -3.45262e-05 -0.000204095)
(4.66307e-05 -3.38893e-05 -0.000177125)
(4.93125e-05 -3.3671e-05 -0.000113008)
(1.42506e-05 -4.48904e-05 -0.000242505)
(2.33211e-05 -4.18346e-05 -0.000260723)
(3.09527e-05 -3.99537e-05 -0.000259535)
(3.6237e-05 -3.76128e-05 -0.000251779)
(3.97308e-05 -3.54188e-05 -0.000243056)
(4.21946e-05 -3.40718e-05 -0.000234838)
(4.38848e-05 -3.36302e-05 -0.000226264)
(4.45596e-05 -3.34948e-05 -0.000214023)
(4.49782e-05 -3.30767e-05 -0.00018944)
(4.78562e-05 -3.36396e-05 -0.000129622)
(1.06444e-05 -3.75962e-05 -0.000246559)
(2.10718e-05 -3.56581e-05 -0.000264208)
(2.97303e-05 -3.48291e-05 -0.000262993)
(3.55834e-05 -3.34055e-05 -0.000255532)
(3.92855e-05 -3.18345e-05 -0.00024674)
(4.15981e-05 -3.08424e-05 -0.000238672)
(4.34028e-05 -3.06406e-05 -0.000231126)
(4.43658e-05 -3.07076e-05 -0.00021998)
(4.50223e-05 -3.07489e-05 -0.000196892)
(4.81543e-05 -3.27241e-05 -0.000140076)
(8.32241e-06 -3.01149e-05 -0.000252792)
(1.96931e-05 -2.90155e-05 -0.000269054)
(2.92175e-05 -2.90642e-05 -0.00026732)
(3.57942e-05 -2.84989e-05 -0.000259666)
(4.00051e-05 -2.76934e-05 -0.000250907)
(4.26665e-05 -2.70839e-05 -0.000242859)
(4.46413e-05 -2.67994e-05 -0.00023531)
(4.57288e-05 -2.69592e-05 -0.00022438)
(4.64924e-05 -2.75517e-05 -0.000201848)
(4.97955e-05 -3.1173e-05 -0.000146661)
(7.36433e-06 -2.20064e-05 -0.000261664)
(1.93074e-05 -2.16786e-05 -0.000275657)
(2.95172e-05 -2.24593e-05 -0.000272869)
(3.69593e-05 -2.26268e-05 -0.000264349)
(4.19698e-05 -2.23776e-05 -0.000255411)
(4.53698e-05 -2.20721e-05 -0.000247244)
(4.75967e-05 -2.19834e-05 -0.000238972)
(4.86575e-05 -2.24079e-05 -0.0002276)
(4.94193e-05 -2.37471e-05 -0.000204801)
(5.2866e-05 -2.92797e-05 -0.000149967)
(8.16884e-06 -1.26608e-05 -0.000271733)
(2.0277e-05 -1.30727e-05 -0.000282272)
(3.08527e-05 -1.43032e-05 -0.000278136)
(3.913e-05 -1.50425e-05 -0.00026795)
(4.50737e-05 -1.53424e-05 -0.000257879)
(4.92296e-05 -1.55006e-05 -0.000248917)
(5.18463e-05 -1.5889e-05 -0.000239771)
(5.30626e-05 -1.68594e-05 -0.000227728)
(5.38169e-05 -1.91409e-05 -0.000203924)
(5.74343e-05 -2.66151e-05 -0.000148514)
(1.21011e-05 -9.83661e-07 -0.00027687)
(2.37418e-05 -2.36622e-06 -0.000281328)
(3.4254e-05 -3.84245e-06 -0.000276024)
(4.29972e-05 -4.9641e-06 -0.000264154)
(4.96781e-05 -5.95132e-06 -0.000252271)
(5.45325e-05 -6.87639e-06 -0.000241565)
(5.76929e-05 -8.0996e-06 -0.000230659)
(5.93255e-05 -9.87998e-06 -0.000216794)
(6.05049e-05 -1.32388e-05 -0.000190933)
(6.49982e-05 -2.26882e-05 -0.000135049)
(2.47401e-05 1.31491e-05 -0.000284317)
(3.57178e-05 1.1011e-05 -0.000270223)
(4.59711e-05 9.08295e-06 -0.000258227)
(5.46396e-05 7.28904e-06 -0.000241531)
(6.14676e-05 5.24131e-06 -0.000225312)
(6.67422e-05 3.11216e-06 -0.000210396)
(7.06138e-05 7.08909e-07 -0.000195357)
(7.32655e-05 -2.10763e-06 -0.000177567)
(7.60392e-05 -6.97889e-06 -0.000149417)
(8.3874e-05 -1.76279e-05 -9.57483e-05)
(0.000122045 -0.000112153 -0.0003509)
(0.000121343 -8.6822e-05 -0.000325989)
(0.000126302 -7.16829e-05 -0.000300983)
(0.000130121 -6.10909e-05 -0.000266723)
(0.000130992 -5.24683e-05 -0.00023003)
(0.000129032 -4.55643e-05 -0.000191463)
(0.000124149 -3.98097e-05 -0.000148838)
(0.000116677 -3.51276e-05 -9.76552e-05)
(0.000108205 -3.01052e-05 -2.57618e-05)
(0.000105843 -2.94733e-05 0.000115873)
(8.79781e-05 -9.16433e-05 -0.000362376)
(9.12965e-05 -7.43884e-05 -0.000358564)
(9.7736e-05 -6.62049e-05 -0.000342523)
(0.000102605 -5.9807e-05 -0.000316175)
(0.000104511 -5.44813e-05 -0.000288522)
(0.000103267 -5.04371e-05 -0.000260829)
(9.8836e-05 -4.71127e-05 -0.000230848)
(9.16221e-05 -4.42524e-05 -0.000193857)
(8.2841e-05 -4.06918e-05 -0.000135905)
(7.71214e-05 -3.90186e-05 -1.57474e-05)
(6.89499e-05 -8.04427e-05 -0.00037405)
(7.69377e-05 -6.84874e-05 -0.000375585)
(8.58545e-05 -6.40897e-05 -0.000359183)
(9.22154e-05 -6.03087e-05 -0.000334159)
(9.51061e-05 -5.72347e-05 -0.000309953)
(9.42778e-05 -5.49756e-05 -0.000287027)
(9.00487e-05 -5.30105e-05 -0.000262993)
(8.30975e-05 -5.11623e-05 -0.000233096)
(7.44823e-05 -4.85883e-05 -0.000183242)
(6.86102e-05 -4.84681e-05 -7.54085e-05)
(5.64417e-05 -7.15711e-05 -0.000380499)
(6.7355e-05 -6.26856e-05 -0.000382275)
(7.88428e-05 -6.05651e-05 -0.00036484)
(8.75021e-05 -5.89823e-05 -0.000341172)
(9.2253e-05 -5.80343e-05 -0.000321269)
(9.19137e-05 -5.70805e-05 -0.000301599)
(8.73057e-05 -5.53747e-05 -0.000278802)
(8.03696e-05 -5.40086e-05 -0.000251723)
(7.22553e-05 -5.24971e-05 -0.000207524)
(6.71365e-05 -5.46746e-05 -0.000109784)
(4.78786e-05 -6.25425e-05 -0.000389849)
(6.0698e-05 -5.59638e-05 -0.00038982)
(7.45068e-05 -5.56134e-05 -0.000371274)
(8.55605e-05 -5.61383e-05 -0.000348708)
(9.26071e-05 -5.72027e-05 -0.000334728)
(9.30657e-05 -5.67548e-05 -0.000318257)
(8.80773e-05 -5.50776e-05 -0.000291563)
(8.09368e-05 -5.40158e-05 -0.000264389)
(7.34032e-05 -5.38332e-05 -0.000223733)
(6.90781e-05 -5.89684e-05 -0.000133059)
(4.27637e-05 -5.2791e-05 -0.000404497)
(5.67062e-05 -4.79965e-05 -0.000401201)
(7.18373e-05 -4.88932e-05 -0.000381295)
(8.42548e-05 -5.07134e-05 -0.00035765)
(9.23302e-05 -5.25762e-05 -0.000342357)
(9.38462e-05 -5.29804e-05 -0.00032592)
(8.96642e-05 -5.19588e-05 -0.000300664)
(8.35699e-05 -5.18256e-05 -0.000274767)
(7.69848e-05 -5.33235e-05 -0.000235716)
(7.35521e-05 -6.17386e-05 -0.000148932)
(4.09693e-05 -4.13651e-05 -0.00042499)
(5.54371e-05 -3.81033e-05 -0.000417002)
(7.08964e-05 -3.97162e-05 -0.00039557)
(8.34357e-05 -4.19552e-05 -0.000369136)
(9.14995e-05 -4.40666e-05 -0.000347433)
(9.41018e-05 -4.50501e-05 -0.000327916)
(9.22666e-05 -4.59043e-05 -0.000307312)
(8.82188e-05 -4.77318e-05 -0.00028361)
(8.2934e-05 -5.15662e-05 -0.000244227)
(8.06147e-05 -6.37522e-05 -0.000158252)
(4.33048e-05 -2.77195e-05 -0.000449983)
(5.79536e-05 -2.57686e-05 -0.000435061)
(7.32776e-05 -2.76763e-05 -0.000412541)
(8.56461e-05 -3.01082e-05 -0.00038385)
(9.38275e-05 -3.27241e-05 -0.000357999)
(9.7701e-05 -3.5177e-05 -0.000335415)
(9.79654e-05 -3.81058e-05 -0.000313808)
(9.56261e-05 -4.23506e-05 -0.000288769)
(9.15156e-05 -4.89338e-05 -0.000246625)
(9.06147e-05 -6.50797e-05 -0.000158901)
(5.22888e-05 -1.07481e-05 -0.00047197)
(6.608e-05 -1.02843e-05 -0.000444724)
(8.08842e-05 -1.24816e-05 -0.000421098)
(9.30916e-05 -1.53697e-05 -0.000390449)
(0.000101579 -1.91222e-05 -0.000361128)
(0.000106378 -2.35317e-05 -0.00033439)
(0.000107944 -2.90767e-05 -0.000308155)
(0.000106863 -3.61028e-05 -0.000278142)
(0.000104238 -4.59549e-05 -0.000231007)
(0.000106398 -6.66076e-05 -0.000140446)
(7.85395e-05 9.01219e-06 -0.000520728)
(9.00012e-05 8.8301e-06 -0.000456886)
(0.000104261 5.54818e-06 -0.000419338)
(0.000116238 1.1459e-06 -0.000378584)
(0.000124962 -4.83184e-06 -0.000339879)
(0.000130633 -1.20595e-05 -0.000303628)
(0.000133685 -2.0866e-05 -0.000267806)
(0.00013447 -3.14453e-05 -0.000228498)
(0.00013462 -4.63478e-05 -0.000174541)
(0.000142984 -7.21661e-05 -7.99054e-05)
(0.000218811 -0.000190828 -0.000576212)
(0.000215976 -0.000141241 -0.000483807)
(0.000222665 -0.0001119 -0.000412158)
(0.000228272 -9.10318e-05 -0.000331629)
(0.000229607 -7.34145e-05 -0.000247908)
(0.000226753 -5.87786e-05 -0.000160166)
(0.000219298 -4.6619e-05 -6.41825e-05)
(0.000207465 -3.75354e-05 4.7873e-05)
(0.000193204 -2.99669e-05 0.000194395)
(0.000189284 -3.0676e-05 0.000478055)
(0.000153422 -0.000161209 -0.000561068)
(0.000158199 -0.000124485 -0.000508272)
(0.000169013 -0.000105978 -0.000456865)
(0.000177566 -9.16861e-05 -0.000394963)
(0.000181504 -7.95174e-05 -0.000331656)
(0.000180256 -6.97185e-05 -0.000267561)
(0.000173504 -6.17457e-05 -0.000198849)
(0.000161803 -5.59608e-05 -0.000117692)
(0.000146922 -5.13339e-05 -4.34484e-06)
(0.000137069 -5.14694e-05 0.000220289)
(0.000120023 -0.000143544 -0.000570423)
(0.00013297 -0.000115905 -0.000528495)
(0.000148148 -0.000103544 -0.000478413)
(0.000159642 -9.38838e-05 -0.000420174)
(0.000165864 -8.61024e-05 -0.000364521)
(0.000165421 -7.99711e-05 -0.000310526)
(0.000158377 -7.47329e-05 -0.000254933)
(0.000146179 -7.0957e-05 -0.000188325)
(0.000130493 -6.80922e-05 -9.09746e-05)
(0.000119192 -7.11262e-05 0.00010395)
(9.99353e-05 -0.000128882 -0.000580854)
(0.000117767 -0.000107251 -0.000539826)
(0.00013704 -9.90003e-05 -0.000487833)
(0.000152829 -9.35574e-05 -0.000430417)
(0.000163653 -9.02045e-05 -0.000383365)
(0.000163914 -8.73e-05 -0.000335917)
(0.000154371 -8.26173e-05 -0.000285557)
(0.000140786 -8.00648e-05 -0.000226365)
(0.000124723 -7.91089e-05 -0.000140627)
(0.00011362 -8.58486e-05 3.16754e-05)
(8.68619e-05 -0.000113549 -0.000600929)
(0.000108258 -9.6959e-05 -0.000555817)
(0.000131391 -9.22157e-05 -0.000500928)
(0.000152529 -9.12687e-05 -0.000442811)
(0.000169987 -9.33373e-05 -0.000404162)
(0.000171249 -9.16935e-05 -0.000373922)
(0.000157566 -8.64399e-05 -0.000310755)
(0.00014147 -8.44933e-05 -0.000253)
(0.000125307 -8.59275e-05 -0.000175402)
(0.000114844 -9.7366e-05 -1.89011e-05)
(8.00664e-05 -9.69108e-05 -0.000633656)
(0.000103717 -8.445e-05 -0.000580482)
(0.000128801 -8.2301e-05 -0.000522261)
(0.000151823 -8.37217e-05 -0.000461881)
(0.0001704 -8.79979e-05 -0.00041619)
(0.000172994 -8.82211e-05 -0.000386001)
(0.000160153 -8.47668e-05 -0.000330335)
(0.000145513 -8.4925e-05 -0.000275373)
(0.000130602 -8.93932e-05 -0.000201557)
(0.000121428 -0.00010607 -5.40367e-05)
(7.95703e-05 -7.74212e-05 -0.000680248)
(0.000104277 -6.86885e-05 -0.000614938)
(0.000129312 -6.8418e-05 -0.000552761)
(0.00015007 -7.05709e-05 -0.000488378)
(0.000164984 -7.45874e-05 -0.000436795)
(0.000169068 -7.61562e-05 -0.000389845)
(0.00016294 -7.78622e-05 -0.000345192)
(0.000152984 -8.23376e-05 -0.000294541)
(0.000140613 -9.07438e-05 -0.000220417)
(0.000133483 -0.000113396 -7.53382e-05)
(8.66972e-05 -5.44279e-05 -0.000740314)
(0.000111542 -4.91406e-05 -0.000657373)
(0.00013597 -5.05249e-05 -0.000591491)
(0.000155377 -5.38568e-05 -0.000524224)
(0.000168344 -5.85407e-05 -0.00046484)
(0.000173869 -6.34967e-05 -0.000411877)
(0.000172454 -6.97011e-05 -0.000362195)
(0.000166034 -7.84139e-05 -0.000307356)
(0.0001562 -9.09914e-05 -0.000228391)
(0.00015184 -0.000119727 -8.00172e-05)
(0.000105206 -2.64201e-05 -0.000807207)
(0.000127967 -2.52046e-05 -0.000695929)
(0.000151263 -2.87737e-05 -0.000624514)
(0.000170096 -3.42701e-05 -0.000551864)
(0.000183028 -4.17211e-05 -0.000484592)
(0.000189794 -5.04602e-05 -0.000422833)
(0.000190774 -6.11348e-05 -0.000362983)
(0.000186908 -7.40921e-05 -0.000298245)
(0.000180193 -9.14135e-05 -0.000210471)
(0.000181767 -0.000127148 -5.43907e-05)
(0.000154571 4.29562e-06 -0.000958966)
(0.000172233 3.11563e-06 -0.000771573)
(0.000194487 -4.3858e-06 -0.000668027)
(0.000213024 -1.37192e-05 -0.000571278)
(0.000226392 -2.55135e-05 -0.000482386)
(0.000234719 -3.90838e-05 -0.000399693)
(0.000238491 -5.49291e-05 -0.000319195)
(0.000238102 -7.32606e-05 -0.000234357)
(0.000236358 -9.85519e-05 -0.000129393)
(0.000248588 -0.000142976 4.63542e-05)
(0.000396354 -0.000294851 -0.000878297)
(0.000380782 -0.000208492 -0.000676187)
(0.000384852 -0.000156617 -0.000529262)
(0.000389073 -0.000119887 -0.000375273)
(0.000387119 -8.94027e-05 -0.000216401)
(0.000377989 -6.46326e-05 -4.95386e-05)
(0.000360477 -4.4662e-05 0.000131662)
(0.000334481 -3.03497e-05 0.000339354)
(0.000301835 -1.977e-05 0.00059935)
(0.000282232 -2.33428e-05 0.00109859)
(0.000284688 -0.000252032 -0.000823434)
(0.000284725 -0.000182489 -0.00068492)
(0.00029741 -0.000148257 -0.000574196)
(0.000307494 -0.000123258 -0.000454766)
(0.000310391 -0.000102657 -0.000333362)
(0.000304203 -8.63234e-05 -0.000209126)
(0.000288048 -7.34492e-05 -7.66153e-05)
(0.000262666 -6.47945e-05 7.54729e-05)
(0.000229918 -5.92717e-05 0.000272451)
(0.000202603 -6.38305e-05 0.000650618)
(0.000226994 -0.000227017 -0.000833296)
(0.000241109 -0.00017046 -0.000712357)
(0.00026153 -0.000146211 -0.000606183)
(0.00027684 -0.000129484 -0.000495019)
(0.000283992 -0.000116743 -0.000388184)
(0.000279509 -0.000106574 -0.000281792)
(0.000263006 -9.81822e-05 -0.000171851)
(0.000237167 -9.29336e-05 -4.35608e-05)
(0.00020402 -9.06052e-05 0.000127436)
(0.000175252 -0.000100753 0.000449586)
(0.000191881 -0.000207555 -0.000855868)
(0.000213847 -0.000160452 -0.000736036)
(0.000240879 -0.000142985 -0.000627761)
(0.000263528 -0.000133517 -0.000518228)
(0.000279379 -0.000128512 -0.000426178)
(0.000276425 -0.000123469 -0.000330712)
(0.000255349 -0.000116188 -0.000231964)
(0.000227404 -0.00011312 -0.00011598)
(0.000194233 -0.000114011 3.64889e-05)
(0.000166544 -0.000130311 0.000317916)
(0.000168987 -0.000187125 -0.000898709)
(0.00019651 -0.000148615 -0.000770472)
(0.000229687 -0.000136944 -0.000657101)
(0.000261706 -0.000134942 -0.00054428)
(0.000290606 -0.000139547 -0.000458119)
(0.000289329 -0.000137168 -0.000401552)
(0.000259615 -0.000128746 -0.000280878)
(0.000227519 -0.000126748 -0.000168901)
(0.000194743 -0.000131436 -3.0102e-05)
(0.000168874 -0.000154954 0.000223)
(0.000156601 -0.0001644 -0.000965047)
(0.000187864 -0.000133124 -0.000820068)
(0.000224225 -0.000125617 -0.000699947)
(0.000259024 -0.000127041 -0.000582945)
(0.000289562 -0.000135283 -0.000480324)
(0.000290695 -0.000137332 -0.000423797)
(0.000262621 -0.000132332 -0.000320305)
(0.000233217 -0.000134034 -0.000213123)
(0.000203193 -0.000143575 -8.11402e-05)
(0.000180345 -0.000175044 0.000155405)
(0.000154139 -0.000137015 -0.00105683)
(0.000187697 -0.000112234 -0.000886496)
(0.000224412 -0.000107809 -0.000757396)
(0.000254908 -0.000110018 -0.000633907)
(0.000276962 -0.000117251 -0.000533111)
(0.00028019 -0.000122117 -0.000438429)
(0.000265238 -0.000126756 -0.000350106)
(0.000244501 -0.000136135 -0.000249902)
(0.000219549 -0.000152045 -0.000118483)
(0.000201107 -0.000192647 0.000112715)
(0.000163237 -0.000104534 -0.0011761)
(0.000198111 -8.54401e-05 -0.000969431)
(0.000234566 -8.37816e-05 -0.000830656)
(0.000262775 -8.79551e-05 -0.000701235)
(0.000280494 -9.62377e-05 -0.000586917)
(0.000285633 -0.000106433 -0.000482112)
(0.000279159 -0.000119049 -0.000382745)
(0.000264903 -0.000135744 -0.000275781)
(0.000245005 -0.000158472 -0.000137865)
(0.000232319 -0.000208502 9.83163e-05)
(0.0001889 -6.51406e-05 -0.00132)
(0.000221992 -5.18788e-05 -0.00105813)
(0.000257475 -5.34995e-05 -0.000905025)
(0.00028501 -6.11246e-05 -0.000763146)
(0.000302472 -7.38487e-05 -0.000633231)
(0.000309523 -9.01016e-05 -0.000512666)
(0.000307238 -0.000110196 -0.000395922)
(0.000297574 -0.000134262 -0.000273357)
(0.000283498 -0.000165263 -0.000122374)
(0.000282077 -0.000226715 0.000128697)
(0.000260835 -2.35527e-05 -0.0016518)
(0.000286895 -1.17416e-05 -0.00124902)
(0.000322106 -1.8952e-05 -0.0010329)
(0.00035025 -3.24903e-05 -0.000843259)
(0.000369301 -5.20623e-05 -0.000671732)
(0.000379619 -7.60715e-05 -0.000512458)
(0.0003825 -0.000104855 -0.000358603)
(0.000378818 -0.000138496 -0.000200093)
(0.000373008 -0.000183851 -1.58159e-05)
(0.000388747 -0.000261071 0.000281795)
(0.000604046 -0.000454901 -0.00127968)
(0.000579469 -0.000315973 -0.000910187)
(0.000584216 -0.000234481 -0.000644538)
(0.000589969 -0.000178268 -0.000374965)
(0.000586592 -0.000132458 -9.71797e-05)
(0.000572586 -9.59168e-05 0.000195897)
(0.000545856 -6.73155e-05 0.000515146)
(0.000506026 -4.84916e-05 0.000879905)
(0.00045553 -3.82358e-05 0.00132724)
(0.000424981 -5.56009e-05 0.00218343)
(0.000432125 -0.000405182 -0.00118228)
(0.000431087 -0.000288651 -0.000907397)
(0.000451272 -0.000230329 -0.000700764)
(0.000468079 -0.000188684 -0.000489215)
(0.000474054 -0.000155332 -0.000274419)
(0.000466152 -0.000129576 -5.28653e-05)
(0.000442739 -0.000110319 0.000184019)
(0.000404656 -9.93022e-05 0.00045325)
(0.000354493 -9.61683e-05 0.000788226)
(0.000312331 -0.000113452 0.00142051)
(0.000345187 -0.000373802 -0.00120842)
(0.000365874 -0.000275915 -0.000956818)
(0.000398131 -0.000231177 -0.00075841)
(0.000423254 -0.000200803 -0.0005616)
(0.000436272 -0.000178572 -0.000371329)
(0.000431386 -0.000161561 -0.000178758)
(0.000407565 -0.000148654 2.15299e-05)
(0.00036873 -0.000142546 0.000252674)
(0.00031766 -0.000143839 0.000545665)
(0.000272898 -0.000168358 0.0010783)
(0.000292945 -0.000347065 -0.00126319)
(0.000326014 -0.000263579 -0.00100979)
(0.000368069 -0.000228877 -0.000807953)
(0.000404049 -0.000209412 -0.00061387)
(0.000430431 -0.000199167 -0.000446769)
(0.000427735 -0.000189362 -0.000270975)
(0.000396377 -0.00017817 -9.07523e-05)
(0.000353889 -0.000175244 0.000120752)
(0.000302508 -0.000180956 0.000384079)
(0.000259271 -0.000213569 0.000845663)
(0.000257966 -0.000316937 -0.00135254)
(0.000300461 -0.000246972 -0.00108141)
(0.000351812 -0.000221441 -0.000870144)
(0.000401646 -0.000213743 -0.000668311)
(0.000448741 -0.000218782 -0.000502804)
(0.000448243 -0.000213209 -0.000395048)
(0.000402155 -0.000199793 -0.000181113)
(0.000352972 -0.00019834 2.1722e-05)
(0.000302026 -0.000209306 0.000262299)
(0.000261835 -0.000251705 0.000674135)
(0.000238019 -0.000282808 -0.00148118)
(0.000287135 -0.000224086 -0.00117724)
(0.000343478 -0.000205305 -0.000952534)
(0.000396974 -0.000203009 -0.000742859)
(0.000445959 -0.000213332 -0.00054679)
(0.000449206 -0.000215548 -0.000438759)
(0.0004054 -0.000207402 -0.000255893)
(0.000359912 -0.000211536 -6.10296e-05)
(0.000313192 -0.000229336 0.000167323)
(0.000278095 -0.000282671 0.000548903)
(0.000232077 -0.000241928 -0.00165362)
(0.000285299 -0.000192925 -0.00130075)
(0.00034246 -0.000179164 -0.00105717)
(0.000389399 -0.000178203 -0.00083571)
(0.000423896 -0.000186572 -0.000652088)
(0.000429656 -0.000193575 -0.000476586)
(0.000406824 -0.000200811 -0.000313468)
(0.000374721 -0.000216488 -0.000129598)
(0.00033594 -0.000243157 9.57601e-05)
(0.000308138 -0.000309056 0.000465316)
(0.000241766 -0.000194332 -0.00187665)
(0.000297052 -0.000153427 -0.00145505)
(0.000354067 -0.000144183 -0.00119015)
(0.000397738 -0.000146611 -0.000955769)
(0.000425416 -0.000157089 -0.000749176)
(0.000433906 -0.000171805 -0.000557374)
(0.000424321 -0.000191054 -0.000374504)
(0.000402373 -0.00021714 -0.000180977)
(0.0003716 -0.000252898 5.20528e-05)
(0.000353136 -0.000331273 0.000426524)
(0.000272078 -0.000138487 -0.00215544)
(0.000324756 -0.000105359 -0.00163363)
(0.000380543 -0.000101144 -0.00133869)
(0.000423679 -0.000108985 -0.00107895)
(0.000451464 -0.000126136 -0.00084366)
(0.000463338 -0.000149637 -0.000625218)
(0.000460709 -0.000179413 -0.000414451)
(0.000446369 -0.000215389 -0.000197391)
(0.00042514 -0.000261828 5.40023e-05)
(0.000424418 -0.000354734 0.00045118)
(0.000362827 -8.49293e-05 -0.0027976)
(0.000405818 -5.18149e-05 -0.00202728)
(0.000461829 -5.51451e-05 -0.00161758)
(0.000506866 -7.12314e-05 -0.0012705)
(0.00053817 -9.77131e-05 -0.000960718)
(0.000556055 -0.000131596 -0.00067518)
(0.000562354 -0.000172813 -0.000401583)
(0.000558237 -0.000221093 -0.000124182)
(0.000550835 -0.000286326 0.000185173)
(0.000575878 -0.000399142 0.000666909)
(0.000849059 -0.000634504 -0.00175159)
(0.000813379 -0.000453754 -0.0011574)
(0.000817953 -0.000342869 -0.00072659)
(0.000822122 -0.000263442 -0.000296657)
(0.00081205 -0.000197668 0.00014678)
(0.000785796 -0.000145495 0.000616667)
(0.000740603 -0.000106105 0.00112972)
(0.000676246 -8.26695e-05 0.00171467)
(0.0005956 -7.51156e-05 0.00242282)
(0.000539748 -0.000113749 0.00378313)
(0.000627549 -0.00056826 -0.00162595)
(0.000622609 -0.000413845 -0.00116056)
(0.00064763 -0.000334558 -0.000817655)
(0.000667106 -0.000275836 -0.000475614)
(0.000670488 -0.0002278 -0.000127859)
(0.000653365 -0.000190649 0.000232991)
(0.000613584 -0.000163984 0.000619153)
(0.00055252 -0.000150921 0.00105461)
(0.000473458 -0.000151976 0.00158147)
(0.000404285 -0.000188827 0.00256805)
(0.000511663 -0.000529558 -0.00169334)
(0.000536251 -0.000397578 -0.00125512)
(0.000578278 -0.000336497 -0.000924632)
(0.000609898 -0.000293662 -0.000605293)
(0.00062393 -0.000261533 -0.000294426)
(0.000611737 -0.000236659 2.36317e-05)
(0.000571972 -0.000218698 0.000355491)
(0.000510587 -0.000212283 0.000734917)
(0.000431217 -0.000218973 0.00119936)
(0.000359709 -0.000264633 0.00202462)
(0.000438503 -0.000497136 -0.00180632)
(0.000479761 -0.000382804 -0.00136062)
(0.000535594 -0.000335106 -0.00102477)
(0.00058306 -0.000307903 -0.000709473)
(0.000616885 -0.000293495 -0.000432402)
(0.000608452 -0.000278728 -0.000138541)