/*--------------------------------*- C++ -*----------------------------------*\
| =========                 |                                                 |
| \\      /  F ield         | OpenFOAM: The Open Source CFD Toolbox           |
|  \\    /   O peration     | Version:  2406                                  |
|   \\  /    A nd           | Website:  www.openfoam.com                      |
|    \\/     M anipulation  |                                                 |
\*---------------------------------------------------------------------------*/
FoamFile
{
    version     2.0;
    format      ascii;
    arch        "LSB;label=32;scalar=64";
    class       volScalarField;
    location    "1.3";
    object      nut;
}
// * * * * * * * * * * * * * * * * * * * * * * * * * * * * * * * * * * * * * //

dimensions      [0 2 -1 0 0 0 0];

internalField   uniform 0;

boundaryField
{
    walls
    {
        type            nutUSpaldingWallFunction;
        value           nonuniform List<scalar> 
2000
(
3.17327e-09
4.55003e-09
5.99778e-09
7.1845e-09
7.85304e-09
7.85304e-09
7.1845e-09
5.99778e-09
4.55003e-09
3.17327e-09
1.87209e-09
2.63222e-09
3.46484e-09
4.16541e-09
4.56594e-09
4.56594e-09
4.1654e-09
3.46484e-09
2.63221e-09
1.87209e-09
9.8256e-10
1.36009e-09
1.78339e-09
2.14886e-09
2.36028e-09
2.36028e-09
2.14885e-09
1.78338e-09
1.36007e-09
9.82548e-10
1.15795e-09
1.60992e-09
2.11119e-09
2.53965e-09
2.78633e-09
2.78632e-09
2.53963e-09
2.11116e-09
1.60989e-09
1.15791e-09
9.94325e-10
1.37779e-09
1.80731e-09
2.17702e-09
2.39076e-09
2.39074e-09
2.17697e-09
1.80725e-09
1.37772e-09
9.94261e-10
1.04427e-09
1.44928e-09
1.90161e-09
2.29006e-09
2.51438e-09
2.51435e-09
2.28998e-09
1.90148e-09
1.44915e-09
1.04415e-09
1.00282e-09
1.39044e-09
1.82447e-09
2.19793e-09
2.41383e-09
2.41378e-09
2.19778e-09
1.82425e-09
1.3902e-09
1.0026e-09
1.01643e-09
1.40985e-09
1.84996e-09
2.2284e-09
2.44707e-09
2.44698e-09
2.22814e-09
1.84959e-09
1.40943e-09
1.01604e-09
1.00603e-09
1.39502e-09
1.83044e-09
2.20499e-09
2.42145e-09
2.4213e-09
2.20457e-09
1.82983e-09
1.39434e-09
1.00539e-09
1.00999e-09
1.4006e-09
1.83768e-09
2.21355e-09
2.43071e-09
2.43048e-09
2.2129e-09
1.83675e-09
1.39956e-09
1.00901e-09
1.00763e-09
1.39717e-09
1.83309e-09
2.20797e-09
2.42451e-09
2.42419e-09
2.20706e-09
1.83179e-09
1.39573e-09
1.00627e-09
1.00892e-09
1.39896e-09
1.83538e-09
2.21063e-09
2.42734e-09
2.42692e-09
2.20949e-09
1.83375e-09
1.39716e-09
1.00723e-09
1.00838e-09
1.39818e-09
1.83434e-09
2.20936e-09
2.4259e-09
2.42542e-09
2.20804e-09
1.83247e-09
1.39613e-09
1.00647e-09
1.00858e-09
1.39851e-09
1.8348e-09
2.20993e-09
2.42652e-09
2.42601e-09
2.20853e-09
1.83283e-09
1.39636e-09
1.00661e-09
1.00811e-09
1.3979e-09
1.83409e-09
2.20914e-09
2.4257e-09
2.42521e-09
2.20779e-09
1.83219e-09
1.39585e-09
1.00624e-09
1.00773e-09
1.39743e-09
1.83357e-09
2.20861e-09
2.42519e-09
2.42476e-09
2.20741e-09
1.83189e-09
1.39564e-09
1.0061e-09
1.00715e-09
1.39669e-09
1.83269e-09
2.20767e-09
2.42426e-09
2.42392e-09
2.20673e-09
1.83139e-09
1.39532e-09
1.00592e-09
1.00663e-09
1.39605e-09
1.83195e-09
2.2069e-09
2.42355e-09
2.42334e-09
2.20633e-09
1.83117e-09
1.39524e-09
1.00593e-09
1.00613e-09
1.39543e-09
1.83126e-09
2.20621e-09
2.42295e-09
2.4229e-09
2.20609e-09
1.83112e-09
1.39532e-09
1.00607e-09
1.00568e-09
1.3949e-09
1.83071e-09
2.20571e-09
2.42257e-09
2.42269e-09
2.20606e-09
1.83124e-09
1.39552e-09
1.00629e-09
1.00525e-09
1.3944e-09
1.83019e-09
2.20525e-09
2.42224e-09
2.42251e-09
2.20602e-09
1.83131e-09
1.39564e-09
1.00642e-09
1.00485e-09
1.39392e-09
1.82968e-09
2.20476e-09
2.42182e-09
2.4222e-09
2.20582e-09
1.83118e-09
1.39557e-09
1.00638e-09
1.0045e-09
1.39346e-09
1.82914e-09
2.20418e-09
2.42126e-09
2.42169e-09
2.20537e-09
1.8308e-09
1.39527e-09
1.00616e-09
1.00422e-09
1.39306e-09
1.82862e-09
2.20358e-09
2.42062e-09
2.42105e-09
2.20478e-09
1.83029e-09
1.39486e-09
1.00586e-09
1.004e-09
1.39276e-09
1.82821e-09
2.20307e-09
2.42004e-09
2.42047e-09
2.20425e-09
1.82985e-09
1.39452e-09
1.00563e-09
1.00388e-09
1.39258e-09
1.82797e-09
2.20278e-09
2.41971e-09
2.42014e-09
2.20396e-09
1.82965e-09
1.39441e-09
1.00558e-09
1.00387e-09
1.39259e-09
1.82798e-09
2.20278e-09
2.41971e-09
2.42016e-09
2.20402e-09
1.82976e-09
1.39456e-09
1.00574e-09
1.00409e-09
1.39288e-09
1.82833e-09
2.20316e-09
2.42011e-09
2.42056e-09
2.20442e-09
1.83014e-09
1.39491e-09
1.00603e-09
1.00472e-09
1.39365e-09
1.82919e-09
2.20405e-09
2.42097e-09
2.42136e-09
2.20512e-09
1.83072e-09
1.39537e-09
1.00636e-09
1.00593e-09
1.3951e-09
1.83076e-09
2.20561e-09
2.42241e-09
2.42259e-09
2.2061e-09
1.83143e-09
1.39583e-09
1.00662e-09
1.00772e-09
1.39722e-09
1.83305e-09
2.20786e-09
2.42443e-09
2.42424e-09
2.2073e-09
1.83219e-09
1.3962e-09
1.00672e-09
1.0098e-09
1.39971e-09
1.83576e-09
2.21053e-09
2.4268e-09
2.42612e-09
2.20858e-09
1.83289e-09
1.39643e-09
1.00664e-09
1.01158e-09
1.40189e-09
1.83821e-09
2.213e-09
2.42902e-09
2.42785e-09
2.20971e-09
1.83343e-09
1.39649e-09
1.00643e-09
1.01242e-09
1.40301e-09
1.83959e-09
2.2145e-09
2.43042e-09
2.42894e-09
2.21037e-09
1.83367e-09
1.39642e-09
1.00619e-09
1.01192e-09
1.40256e-09
1.83929e-09
2.21439e-09
2.43042e-09
2.42895e-09
2.21031e-09
1.83352e-09
1.39622e-09
1.006e-09
1.01015e-09
1.40055e-09
1.83726e-09
2.21253e-09
2.42886e-09
2.42772e-09
2.20941e-09
1.83292e-09
1.39588e-09
1.00587e-09
1.00766e-09
1.39759e-09
1.83407e-09
2.20942e-09
2.4261e-09
2.42551e-09
2.20782e-09
1.83194e-09
1.39542e-09
1.00577e-09
1.00522e-09
1.3946e-09
1.83071e-09
2.20601e-09
2.42298e-09
2.42296e-09
2.20602e-09
1.83087e-09
1.39497e-09
1.00573e-09
1.00353e-09
1.39245e-09
1.82821e-09
2.20338e-09
2.42053e-09
2.42098e-09
2.20468e-09
1.83017e-09
1.39482e-09
1.00588e-09
1.00301e-09
1.39177e-09
1.82736e-09
2.20245e-09
2.41971e-09
2.42044e-09
2.20453e-09
1.83042e-09
1.39535e-09
1.0065e-09
1.00421e-09
1.39321e-09
1.82894e-09
2.20411e-09
2.42141e-09
2.4222e-09
2.20634e-09
1.83221e-09
1.39702e-09
1.00786e-09
1.00808e-09
1.39789e-09
1.83416e-09
2.20955e-09
2.42679e-09
2.42727e-09
2.21092e-09
1.83611e-09
1.40011e-09
1.01002e-09
1.01569e-09
1.40708e-09
1.84433e-09
2.22001e-09
2.43687e-09
2.43638e-09
2.21861e-09
1.8421e-09
1.40432e-09
1.01258e-09
1.02772e-09
1.42158e-09
1.86034e-09
2.23635e-09
2.45233e-09
2.44996e-09
2.2296e-09
1.85021e-09
1.40963e-09
1.01555e-09
1.04419e-09
1.4415e-09
1.88232e-09
2.2587e-09
2.4733e-09
2.46817e-09
2.24419e-09
1.86095e-09
1.41678e-09
1.01976e-09
1.06454e-09
1.46641e-09
1.91021e-09
2.28744e-09
2.50071e-09
2.49249e-09
2.26433e-09
1.87656e-09
1.42806e-09
1.02732e-09
1.08767e-09
1.49518e-09
1.94298e-09
2.32171e-09
2.53389e-09
2.52247e-09
2.28978e-09
1.89697e-09
1.4435e-09
1.03826e-09
1.10954e-09
1.52427e-09
1.97846e-09
2.36139e-09
2.57491e-09
2.56191e-09
2.32519e-09
1.92675e-09
1.46689e-09
1.0555e-09
1.12836e-09
1.54928e-09
2.00893e-09
2.39499e-09
2.60888e-09
2.59355e-09
2.35257e-09
1.94889e-09
1.48367e-09
1.06758e-09
1.1377e-09
1.56905e-09
2.04181e-09
2.4405e-09
2.66373e-09
2.65228e-09
2.40921e-09
1.99865e-09
1.52377e-09
1.09798e-09
3.17327e-09
4.55003e-09
5.99778e-09
7.1845e-09
7.85304e-09
7.85304e-09
7.1845e-09
5.99778e-09
4.55003e-09
3.17327e-09
1.87208e-09
2.6322e-09
3.46483e-09
4.1654e-09
4.56594e-09
4.56594e-09
4.1654e-09
3.46484e-09
2.63221e-09
1.87209e-09
9.8253e-10
1.36005e-09
1.78335e-09
2.14883e-09
2.36026e-09
2.36027e-09
2.14885e-09
1.78338e-09
1.36008e-09
9.8256e-10
1.15787e-09
1.60983e-09
2.1111e-09
2.53958e-09
2.78627e-09
2.78629e-09
2.53963e-09
2.11118e-09
1.60991e-09
1.15794e-09
9.94168e-10
1.37761e-09
1.80713e-09
2.17686e-09
2.39065e-09
2.39069e-09
2.17697e-09
1.80728e-09
1.37777e-09
9.94321e-10
1.04397e-09
1.44895e-09
1.90127e-09
2.28977e-09
2.51418e-09
2.51425e-09
2.28997e-09
1.90155e-09
1.44926e-09
1.04426e-09
1.0023e-09
1.38985e-09
1.82388e-09
2.19743e-09
2.41347e-09
2.41359e-09
2.19776e-09
1.82436e-09
1.39038e-09
1.0028e-09
1.0156e-09
1.40891e-09
1.84903e-09
2.22759e-09
2.4465e-09
2.44669e-09
2.22813e-09
1.8498e-09
1.40976e-09
1.0164e-09
1.00478e-09
1.39362e-09
1.82905e-09
2.2038e-09
2.42062e-09
2.4209e-09
2.2046e-09
1.8302e-09
1.3949e-09
1.00599e-09
1.00822e-09
1.39862e-09
1.83573e-09
2.2119e-09
2.42958e-09
2.42999e-09
2.21303e-09
1.83735e-09
1.40043e-09
1.00994e-09
1.00529e-09
1.39456e-09
1.83053e-09
2.20582e-09
2.42308e-09
2.42361e-09
2.20732e-09
1.83268e-09
1.39696e-09
1.00756e-09
1.00607e-09
1.39578e-09
1.83225e-09
2.20801e-09
2.4256e-09
2.42626e-09
2.20985e-09
1.83489e-09
1.39872e-09
1.00884e-09
1.00521e-09
1.39461e-09
1.83082e-09
2.20639e-09
2.42394e-09
2.42469e-09
2.20848e-09
1.83379e-09
1.39791e-09
1.0083e-09
1.00538e-09
1.39487e-09
1.83117e-09
2.20686e-09
2.42448e-09
2.42526e-09
2.20902e-09
1.83423e-09
1.39823e-09
1.0085e-09
1.0052e-09
1.39457e-09
1.83073e-09
2.20629e-09
2.42382e-09
2.42455e-09
2.20831e-09
1.83358e-09
1.39766e-09
1.00805e-09
1.00537e-09
1.39471e-09
1.83081e-09
2.20627e-09
2.42368e-09
2.4243e-09
2.20797e-09
1.83319e-09
1.39726e-09
1.00769e-09
1.00548e-09
1.39475e-09
1.83071e-09
2.206e-09
2.42324e-09
2.4237e-09
2.20727e-09
1.83247e-09
1.3966e-09
1.00713e-09
1.00565e-09
1.39488e-09
1.83075e-09
2.20589e-09
2.42294e-09
2.42324e-09
2.20669e-09
1.83184e-09
1.396e-09
1.00663e-09
1.00574e-09
1.39493e-09
1.83071e-09
2.2057e-09
2.42257e-09
2.42269e-09
2.20603e-09
1.83115e-09
1.39537e-09
1.00612e-09
1.00582e-09
1.39498e-09
1.83066e-09
2.20551e-09
2.42222e-09
2.42219e-09
2.20542e-09
1.83052e-09
1.3948e-09
1.00565e-09
1.00591e-09
1.39501e-09
1.83061e-09
2.20532e-09
2.42186e-09
2.42169e-09
2.20484e-09
1.82993e-09
1.39426e-09
1.00521e-09
1.00605e-09
1.39512e-09
1.83062e-09
2.2052e-09
2.4216e-09
2.4213e-09
2.20437e-09
1.82943e-09
1.3938e-09
1.00482e-09
1.00623e-09
1.39528e-09
1.83071e-09
2.20518e-09
2.42146e-09
2.42105e-09
2.20403e-09
1.82906e-09
1.39344e-09
1.00451e-09
1.00638e-09
1.39541e-09
1.83081e-09
2.20521e-09
2.4214e-09
2.4209e-09
2.20381e-09
1.8288e-09
1.39317e-09
1.00426e-09
1.00638e-09
1.3954e-09
1.83078e-09
2.20515e-09
2.42129e-09
2.42075e-09
2.20362e-09
1.82859e-09
1.39296e-09
1.00407e-09
1.00619e-09
1.39517e-09
1.83052e-09
2.20488e-09
2.42103e-09
2.4205e-09
2.20339e-09
1.82838e-09
1.39278e-09
1.00394e-09
1.00585e-09
1.39474e-09
1.83004e-09
2.20441e-09
2.42061e-09
2.42014e-09
2.20312e-09
1.82819e-09
1.39268e-09
1.00389e-09
1.00551e-09
1.39431e-09
1.82955e-09
2.20393e-09
2.42019e-09
2.41986e-09
2.20299e-09
1.8282e-09
1.3928e-09
1.00405e-09
1.0053e-09
1.39408e-09
1.82932e-09
2.20376e-09
2.42015e-09
2.42e-09
2.20333e-09
1.82872e-09
1.39339e-09
1.00463e-09
1.0053e-09
1.39419e-09
1.82958e-09
2.20421e-09
2.42085e-09
2.42096e-09
2.20453e-09
1.83005e-09
1.39473e-09
1.00581e-09
1.00544e-09
1.39461e-09
1.83036e-09
2.20539e-09
2.42243e-09
2.4229e-09
2.20671e-09
1.83231e-09
1.39685e-09
1.0076e-09
1.00561e-09
1.39515e-09
1.83144e-09
2.20705e-09
2.42466e-09
2.42556e-09
2.2096e-09
1.83516e-09
1.39941e-09
1.0097e-09
1.00572e-09
1.39564e-09
1.83249e-09
2.20873e-09
2.42693e-09
2.42825e-09
2.21243e-09
1.83785e-09
1.40172e-09
1.01152e-09
1.0058e-09
1.39596e-09
1.8332e-09
2.20991e-09
2.42853e-09
2.43009e-09
2.21428e-09
1.83947e-09
1.40297e-09
1.01241e-09
1.00588e-09
1.39607e-09
1.83338e-09
2.21019e-09
2.42888e-09
2.43041e-09
2.21442e-09
1.83934e-09
1.40261e-09
1.01194e-09
1.00595e-09
1.39594e-09
1.83296e-09
2.20947e-09
2.42781e-09
2.42898e-09
2.21267e-09
1.83739e-09
1.40063e-09
1.01019e-09
1.00596e-09
1.39559e-09
1.83206e-09
2.20793e-09
2.42561e-09
2.42622e-09
2.20955e-09
1.83418e-09
1.39765e-09
1.0077e-09
1.00592e-09
1.39514e-09
1.83097e-09
2.20608e-09
2.42299e-09
2.423e-09
2.20603e-09
1.83074e-09
1.3946e-09
1.00524e-09
1.0059e-09
1.39479e-09
1.83008e-09
2.20453e-09
2.42079e-09
2.42034e-09
2.2032e-09
1.82807e-09
1.39236e-09
1.0035e-09
1.00605e-09
1.39478e-09
1.82975e-09
2.2038e-09
2.4197e-09
2.41901e-09
2.20186e-09
1.82691e-09
1.3915e-09
1.00292e-09
1.00669e-09
1.39551e-09
1.83046e-09
2.20446e-09
2.42034e-09
2.41972e-09
2.20273e-09
1.82796e-09
1.39266e-09
1.00403e-09
1.00817e-09
1.39754e-09
1.83295e-09
2.20741e-09
2.42376e-09
2.42364e-09
2.20706e-09
1.83247e-09
1.397e-09
1.0078e-09
1.0103e-09
1.40091e-09
1.83761e-09
2.21344e-09
2.43115e-09
2.43223e-09
2.21644e-09
1.84201e-09
1.40589e-09
1.01535e-09
1.01188e-09
1.40452e-09
1.84378e-09
2.22244e-09
2.44294e-09
2.44633e-09
2.23193e-09
1.85764e-09
1.42024e-09
1.02738e-09
1.01051e-09
1.40586e-09
1.84919e-09
2.23268e-09
2.45803e-09
2.46537e-09
2.25329e-09
1.87924e-09
1.43999e-09
1.04382e-09
1.00191e-09
1.39986e-09
1.84857e-09
2.2392e-09
2.47211e-09
2.48585e-09
2.27781e-09
1.90484e-09
1.46377e-09
1.06381e-09
9.84155e-10
1.38378e-09
1.83848e-09
2.23824e-09
2.48147e-09
2.50437e-09
2.30256e-09
1.93198e-09
1.48969e-09
1.08594e-09
9.55144e-10
1.35286e-09
1.81097e-09
2.21918e-09
2.47408e-09
2.50898e-09
2.3169e-09
1.95206e-09
1.51126e-09
1.10569e-09
9.29768e-10
1.32509e-09
1.78553e-09
2.20103e-09
2.46643e-09
2.51228e-09
2.32898e-09
1.96914e-09
1.52956e-09
1.12224e-09
8.83836e-10
1.26661e-09
1.71826e-09
2.13354e-09
2.40719e-09
2.46766e-09
2.30104e-09
1.95589e-09
1.5268e-09
1.12545e-09
3.17327e-09
4.55003e-09
5.99778e-09
7.1845e-09
7.85304e-09
7.85304e-09
7.1845e-09
5.99778e-09
4.55003e-09
3.17327e-09
1.87208e-09
2.6322e-09
3.46483e-09
4.16539e-09
4.56592e-09
4.56592e-09
4.16539e-09
3.46483e-09
2.6322e-09
1.87208e-09
9.82517e-10
1.36003e-09
1.78333e-09
2.1488e-09
2.36022e-09
2.36022e-09
2.14881e-09
1.78334e-09
1.36004e-09
9.82529e-10
1.15784e-09
1.60979e-09
2.11104e-09
2.5395e-09
2.78618e-09
2.78619e-09
2.53952e-09
2.11107e-09
1.60982e-09
1.15787e-09
9.94102e-10
1.37751e-09
1.807e-09
2.1767e-09
2.39046e-09
2.39047e-09
2.17674e-09
1.80706e-09
1.37758e-09
9.9416e-10
1.04384e-09
1.44875e-09
1.90101e-09
2.28946e-09
2.51381e-09
2.51384e-09
2.28954e-09
1.90113e-09
1.44888e-09
1.04396e-09
1.00205e-09
1.3895e-09
1.82342e-09
2.19686e-09
2.41281e-09
2.41286e-09
2.19701e-09
1.82363e-09
1.38973e-09
1.00227e-09
1.01516e-09
1.4083e-09
1.84823e-09
2.22663e-09
2.44538e-09
2.44547e-09
2.22688e-09
1.84859e-09
1.4087e-09
1.01554e-09
1.00411e-09
1.39267e-09
1.82781e-09
2.20229e-09
2.41887e-09
2.41901e-09
2.20266e-09
1.82835e-09
1.39327e-09
1.00468e-09
1.00731e-09
1.3973e-09
1.83398e-09
2.20973e-09
2.42705e-09
2.42722e-09
2.21021e-09
1.83467e-09
1.39809e-09
1.00807e-09
1.00421e-09
1.39294e-09
1.82829e-09
2.20297e-09
2.4197e-09
2.41989e-09
2.20351e-09
1.82908e-09
1.39383e-09
1.00508e-09
1.00495e-09
1.39399e-09
1.82967e-09
2.20461e-09
2.42149e-09
2.42168e-09
2.20515e-09
1.83045e-09
1.39488e-09
1.00582e-09
1.00421e-09
1.39289e-09
1.82816e-09
2.20275e-09
2.4194e-09
2.41956e-09
2.20319e-09
1.8288e-09
1.39362e-09
1.00493e-09
1.00467e-09
1.39346e-09
1.82879e-09
2.20339e-09
2.42002e-09
2.42011e-09
2.20366e-09
1.82917e-09
1.39389e-09
1.00511e-09
1.00487e-09
1.39365e-09
1.82893e-09
2.20343e-09
2.41995e-09
2.41997e-09
2.20347e-09
1.82899e-09
1.39373e-09
1.00499e-09
1.00542e-09
1.39435e-09
1.82975e-09
2.2043e-09
2.42081e-09
2.42075e-09
2.20413e-09
1.82951e-09
1.3941e-09
1.00523e-09
1.00582e-09
1.39488e-09
1.83038e-09
2.20501e-09
2.42152e-09
2.4214e-09
2.20468e-09
1.82992e-09
1.39439e-09
1.0054e-09
1.00617e-09
1.39536e-09
1.83101e-09
2.20575e-09
2.42231e-09
2.42216e-09
2.20533e-09
1.83043e-09
1.39474e-09
1.00563e-09
1.00636e-09
1.39563e-09
1.83137e-09
2.2062e-09
2.4228e-09
2.42264e-09
2.20576e-09
1.83076e-09
1.39497e-09
1.00577e-09
1.00649e-09
1.39581e-09
1.83161e-09
2.20649e-09
2.42313e-09
2.42298e-09
2.20606e-09
1.83101e-09
1.39515e-09
1.00588e-09
1.00665e-09
1.396e-09
1.83182e-09
2.20672e-09
2.42338e-09
2.42322e-09
2.2063e-09
1.83122e-09
1.39532e-09
1.006e-09
1.0069e-09
1.3963e-09
1.83216e-09
2.20707e-09
2.42373e-09
2.42357e-09
2.20662e-09
1.83151e-09
1.39556e-09
1.00618e-09
1.00724e-09
1.39674e-09
1.83266e-09
2.20761e-09
2.42427e-09
2.42408e-09
2.20708e-09
1.8319e-09
1.39587e-09
1.0064e-09
1.00765e-09
1.39726e-09
1.83329e-09
2.20828e-09
2.42494e-09
2.42469e-09
2.2076e-09
1.8323e-09
1.39616e-09
1.00659e-09
1.00805e-09
1.39778e-09
1.8339e-09
2.20894e-09
2.42557e-09
2.42524e-09
2.20801e-09
1.83257e-09
1.39629e-09
1.00663e-09
1.00838e-09
1.39818e-09
1.83436e-09
2.20941e-09
2.42599e-09
2.42555e-09
2.20817e-09
1.83258e-09
1.39619e-09
1.00648e-09
1.00854e-09
1.39837e-09
1.83454e-09
2.20956e-09
2.42607e-09
2.42552e-09
2.20803e-09
1.83233e-09
1.39588e-09
1.00617e-09
1.00837e-09
1.39815e-09
1.83428e-09
2.20926e-09
2.42573e-09
2.42515e-09
2.20762e-09
1.83191e-09
1.39548e-09
1.00584e-09
1.00768e-09
1.39732e-09
1.83338e-09
2.20836e-09
2.42488e-09
2.42438e-09
2.20696e-09
1.83139e-09
1.39509e-09
1.00558e-09
1.00637e-09
1.39577e-09
1.83173e-09
2.20674e-09
2.42341e-09
2.42315e-09
2.20602e-09
1.83074e-09
1.39472e-09
1.00542e-09
1.00459e-09
1.39364e-09
1.82941e-09
2.20445e-09
2.42133e-09
2.42142e-09
2.20474e-09
1.82991e-09
1.3943e-09
1.0053e-09
1.00272e-09
1.39135e-09
1.82685e-09
2.20182e-09
2.41889e-09
2.41937e-09
2.2032e-09
1.82891e-09
1.3938e-09
1.00515e-09
1.00129e-09
1.38952e-09
1.82468e-09
2.19949e-09
2.41664e-09
2.41742e-09
2.20172e-09
1.82795e-09
1.39331e-09
1.00499e-09
1.00073e-09
1.3887e-09
1.82356e-09
2.19816e-09
2.41526e-09
2.4162e-09
2.2008e-09
1.82739e-09
1.39307e-09
1.00495e-09
1.00128e-09
1.38923e-09
1.82394e-09
2.19836e-09
2.41532e-09
2.41623e-09
2.20088e-09
1.82754e-09
1.39325e-09
1.00511e-09
1.00287e-09
1.39108e-09
1.82587e-09
2.2002e-09
2.41698e-09
2.41766e-09
2.20205e-09
1.82844e-09
1.39384e-09
1.00544e-09
1.0051e-09
1.39379e-09
1.82887e-09
2.20325e-09
2.41984e-09
2.42013e-09
2.20399e-09
1.8298e-09
1.39464e-09
1.00582e-09
1.00729e-09
1.39653e-09
1.83202e-09
2.20656e-09
2.423e-09
2.42286e-09
2.20608e-09
1.8312e-09
1.39539e-09
1.00611e-09
1.00862e-09
1.39829e-09
1.83419e-09
2.20897e-09
2.42539e-09
2.42495e-09
2.20768e-09
1.83224e-09
1.39593e-09
1.00631e-09
1.00832e-09
1.3981e-09
1.83429e-09
2.20938e-09
2.42605e-09
2.4257e-09
2.20839e-09
1.8328e-09
1.39631e-09
1.00654e-09
1.00532e-09
1.39476e-09
1.83108e-09
2.20671e-09
2.42413e-09
2.4246e-09
2.208e-09
1.83295e-09
1.39675e-09
1.00708e-09
9.98481e-10
1.38696e-09
1.82323e-09
2.19971e-09
2.41865e-09
2.42096e-09
2.20615e-09
1.83257e-09
1.39734e-09
1.00814e-09
9.8751e-10
1.37418e-09
1.80996e-09
2.18738e-09
2.40846e-09
2.41359e-09
2.20174e-09
1.83075e-09
1.3974e-09
1.00929e-09
9.73095e-10
1.35692e-09
1.79135e-09
2.16919e-09
2.39242e-09
2.40087e-09
2.19288e-09
1.82555e-09
1.39519e-09
1.00912e-09
9.5659e-10
1.33633e-09
1.76802e-09
2.14499e-09
2.36943e-09
2.38084e-09
2.17691e-09
1.81399e-09
1.3878e-09
1.00516e-09
9.40653e-10
1.31499e-09
1.74182e-09
2.11536e-09
2.33855e-09
2.35096e-09
2.15005e-09
1.79155e-09
1.37061e-09
9.93269e-10
9.27664e-10
1.2958e-09
1.7157e-09
2.08296e-09
2.30164e-09
2.31217e-09
2.11227e-09
1.75746e-09
1.34243e-09
9.721e-10
9.20835e-10
1.28236e-09
1.69315e-09
2.05039e-09
2.26002e-09
2.26443e-09
2.06264e-09
1.71047e-09
1.30206e-09
9.40578e-10
9.17929e-10
1.27486e-09
1.67845e-09
2.02741e-09
2.22912e-09
2.22781e-09
2.02366e-09
1.67294e-09
1.26919e-09
9.14305e-10
9.25781e-10
1.27712e-09
1.66911e-09
2.00322e-09
2.18931e-09
2.17566e-09
1.96498e-09
1.61478e-09
1.21686e-09
8.71506e-10
3.17327e-09
4.55003e-09
5.99778e-09
7.1845e-09
7.85304e-09
7.85304e-09
7.1845e-09
5.99778e-09
4.55003e-09
3.17327e-09
1.87209e-09
2.63221e-09
3.46484e-09
4.1654e-09
4.56593e-09
4.56593e-09
4.16539e-09
3.46483e-09
2.6322e-09
1.87208e-09
9.82546e-10
1.36007e-09
1.78336e-09
2.14883e-09
2.36024e-09
2.36024e-09
2.14881e-09
1.78333e-09
1.36003e-09
9.82518e-10
1.15791e-09
1.60987e-09
2.11113e-09
2.53957e-09
2.78623e-09
2.78621e-09
2.53952e-09
2.11106e-09
1.60979e-09
1.15784e-09
9.94252e-10
1.37768e-09
1.80718e-09
2.17685e-09
2.39056e-09
2.39053e-09
2.17675e-09
1.80703e-09
1.37753e-09
9.94105e-10
1.04413e-09
1.44908e-09
1.90135e-09
2.28974e-09
2.51401e-09
2.51394e-09
2.28955e-09
1.90107e-09
1.44878e-09
1.04385e-09
1.00256e-09
1.39007e-09
1.824e-09
2.19736e-09
2.41317e-09
2.41305e-09
2.19703e-09
1.82352e-09
1.38955e-09
1.00206e-09
1.01598e-09
1.40922e-09
1.84915e-09
2.22742e-09
2.44595e-09
2.44576e-09
2.22689e-09
1.8484e-09
1.40838e-09
1.01518e-09
1.00529e-09
1.39399e-09
1.82913e-09
2.20343e-09
2.41969e-09
2.41942e-09
2.20267e-09
1.82805e-09
1.39278e-09
1.00414e-09
1.00886e-09
1.39904e-09
1.83572e-09
2.21124e-09
2.42813e-09
2.42777e-09
2.21024e-09
1.83428e-09
1.39745e-09
1.00735e-09
1.00607e-09
1.39504e-09
1.8304e-09
2.20482e-09
2.42106e-09
2.42063e-09
2.20363e-09
1.82869e-09
1.39313e-09
1.00427e-09
1.00699e-09
1.39631e-09
1.83204e-09
2.20674e-09
2.42312e-09
2.42265e-09
2.20544e-09
1.83018e-09
1.39425e-09
1.00502e-09
1.00621e-09
1.3952e-09
1.83058e-09
2.205e-09
2.42122e-09
2.42076e-09
2.20373e-09
1.82878e-09
1.3932e-09
1.0043e-09
1.00636e-09
1.39546e-09
1.83097e-09
2.20552e-09
2.42184e-09
2.42146e-09
2.20445e-09
1.82945e-09
1.39379e-09
1.00476e-09
1.00603e-09
1.39507e-09
1.83056e-09
2.20514e-09
2.42154e-09
2.42127e-09
2.2044e-09
1.82953e-09
1.39395e-09
1.00496e-09
1.00596e-09
1.39506e-09
1.83067e-09
2.20539e-09
2.42196e-09
2.42183e-09
2.20505e-09
1.8302e-09
1.39457e-09
1.00548e-09
1.00583e-09
1.39496e-09
1.83063e-09
2.20546e-09
2.42215e-09
2.42215e-09
2.20545e-09
1.83065e-09
1.395e-09
1.00585e-09
1.0059e-09
1.39509e-09
1.83083e-09
2.20575e-09
2.42254e-09
2.42261e-09
2.20595e-09
1.83112e-09
1.39541e-09
1.00618e-09
1.00607e-09
1.39532e-09
1.83111e-09
2.20607e-09
2.4229e-09
2.42298e-09
2.20631e-09
1.83144e-09
1.39566e-09
1.00637e-09
1.00632e-09
1.39564e-09
1.83149e-09
2.2065e-09
2.42333e-09
2.4234e-09
2.20668e-09
1.83174e-09
1.39588e-09
1.00652e-09
1.00649e-09
1.39589e-09
1.83181e-09
2.20687e-09
2.42374e-09
2.4238e-09
2.20704e-09
1.83204e-09
1.39611e-09
1.00669e-09
1.00649e-09
1.39595e-09
1.83196e-09
2.20711e-09
2.42405e-09
2.42416e-09
2.20741e-09
1.83238e-09
1.39641e-09
1.00694e-09
1.00631e-09
1.3958e-09
1.83188e-09
2.20714e-09
2.4242e-09
2.42441e-09
2.20773e-09
1.83274e-09
1.39676e-09
1.00725e-09
1.00605e-09
1.39554e-09
1.83167e-09
2.20703e-09
2.42423e-09
2.42458e-09
2.20802e-09
1.83311e-09
1.39715e-09
1.00761e-09
1.00586e-09
1.39534e-09
1.83151e-09
2.20695e-09
2.42426e-09
2.42476e-09
2.20833e-09
1.83349e-09
1.39756e-09
1.00797e-09
1.00584e-09
1.39534e-09
1.83154e-09
2.20703e-09
2.42444e-09
2.42503e-09
2.20868e-09
1.83389e-09
1.39795e-09
1.0083e-09
1.00603e-09
1.39557e-09
1.83181e-09
2.20734e-09
2.42478e-09
2.42539e-09
2.20905e-09
1.83422e-09
1.39822e-09
1.0085e-09
1.00633e-09
1.39593e-09
1.83222e-09
2.20775e-09
2.42514e-09
2.42567e-09
2.2092e-09
1.83426e-09
1.39815e-09
1.00838e-09
1.00662e-09
1.39624e-09
1.83251e-09
2.20795e-09
2.42518e-09
2.42549e-09
2.2088e-09
1.83367e-09
1.39746e-09
1.00772e-09
1.00675e-09
1.39629e-09
1.83241e-09
2.20763e-09
2.42455e-09
2.42452e-09
2.20753e-09
1.83221e-09
1.39599e-09
1.00642e-09
1.00663e-09
1.39595e-09
1.83176e-09
2.20659e-09
2.42309e-09
2.42266e-09
2.20537e-09
1.82995e-09
1.39388e-09
1.00463e-09
1.00627e-09
1.39524e-09
1.83061e-09
2.20496e-09
2.42098e-09
2.42018e-09
2.20272e-09
1.82736e-09
1.39158e-09
1.00276e-09
1.00579e-09
1.39439e-09
1.82929e-09
2.20315e-09
2.41877e-09
2.41773e-09
2.20025e-09
1.82512e-09
1.38972e-09
1.00133e-09
1.00539e-09
1.3937e-09
1.82823e-09
2.20175e-09
2.41713e-09
2.41604e-09
2.19873e-09
1.82391e-09
1.38887e-09
1.00077e-09
1.00521e-09
1.39342e-09
1.82783e-09
2.20126e-09
2.41665e-09
2.41571e-09
2.19867e-09
1.82416e-09
1.38935e-09
1.00132e-09
1.00528e-09
1.39363e-09
1.82822e-09
2.20188e-09
2.41755e-09
2.41695e-09
2.20021e-09
1.8259e-09
1.39111e-09
1.00289e-09
1.0055e-09
1.39421e-09
1.82926e-09
2.20343e-09
2.41962e-09
2.41944e-09
2.20298e-09
1.82872e-09
1.39372e-09
1.0051e-09
1.00582e-09
1.39497e-09
1.83061e-09
2.20541e-09
2.42219e-09
2.42242e-09
2.20612e-09
1.83174e-09
1.39637e-09
1.00725e-09
1.00626e-09
1.39579e-09
1.83195e-09
2.20725e-09
2.42443e-09
2.42488e-09
2.20854e-09
1.83388e-09
1.39811e-09
1.00856e-09
1.00698e-09
1.39675e-09
1.83313e-09
2.20853e-09
2.42567e-09
2.42588e-09
2.20916e-09
1.83409e-09
1.39798e-09
1.00827e-09
1.00818e-09
1.39791e-09
1.83404e-09
2.20886e-09
2.42516e-09
2.4244e-09
2.20675e-09
1.83102e-09
1.3947e-09
1.00529e-09
1.00973e-09
1.39902e-09
1.83419e-09
2.20748e-09
2.42185e-09
2.41908e-09
2.19976e-09
1.82308e-09
1.38681e-09
9.98414e-10
1.01113e-09
1.39941e-09
1.83273e-09
2.2034e-09
2.41465e-09
2.40882e-09
2.18718e-09
1.80949e-09
1.3738e-09
9.87335e-10
1.01248e-09
1.39922e-09
1.82989e-09
2.19689e-09
2.40394e-09
2.39418e-09
2.16979e-09
1.79117e-09
1.35665e-09
9.72891e-10
1.01482e-09
1.3998e-09
1.82723e-09
2.18976e-09
2.39178e-09
2.37746e-09
2.15003e-09
1.77055e-09
1.33752e-09
9.56765e-10
1.02042e-09
1.40411e-09
1.82845e-09
2.18635e-09
2.38302e-09
2.36381e-09
2.13305e-09
1.75244e-09
1.32049e-09
9.4209e-10
1.02946e-09
1.4126e-09
1.83443e-09
2.18818e-09
2.37988e-09
2.35609e-09
2.12212e-09
1.74016e-09
1.30851e-09
9.31352e-10
1.04501e-09
1.4299e-09
1.85156e-09
2.20307e-09
2.39091e-09
2.36267e-09
2.12463e-09
1.73963e-09
1.30603e-09
9.27664e-10
1.05566e-09
1.44126e-09
1.86239e-09
2.21221e-09
2.39767e-09
2.36706e-09
2.12714e-09
1.741e-09
1.3065e-09
9.27411e-10
1.08511e-09
1.47809e-09
1.90506e-09
2.25775e-09
2.44244e-09
2.40789e-09
2.16173e-09
1.76858e-09
1.32645e-09
9.40976e-10
)
;
    }
    inlet
    {
        type            calculated;
        value           uniform 0;
    }
    outlet
    {
        type            calculated;
        value           uniform 0;
    }
}


// ************************************************************************* //
