/*--------------------------------*- C++ -*----------------------------------*\
| =========                 |                                                 |
| \\      /  F ield         | OpenFOAM: The Open Source CFD Toolbox           |
|  \\    /   O peration     | Version:  2406                                  |
|   \\  /    A nd           | Website:  www.openfoam.com                      |
|    \\/     M anipulation  |                                                 |
\*---------------------------------------------------------------------------*/
FoamFile
{
    version     2.0;
    format      ascii;
    arch        "LSB;label=32;scalar=64";
    class       surfaceScalarField;
    location    "1.3";
    object      phi;
}
// * * * * * * * * * * * * * * * * * * * * * * * * * * * * * * * * * * * * * //

dimensions      [0 3 -1 0 0 0 0];

oriented        oriented;

internalField   nonuniform List<scalar> 
73500
(
4.64639e-05
4.64637e-05
5.7055e-05
-5.14904e-05
-5.14903e-05
3.76968e-05
4.71303e-05
6.4902e-05
-5.23269e-05
2.65018e-05
4.75019e-05
7.06874e-05
-5.30513e-05
1.36508e-05
4.76219e-05
7.45177e-05
-5.33174e-05
1.73623e-10
4.76557e-05
7.64234e-05
-5.34357e-05
-1.36504e-05
4.76557e-05
7.64234e-05
-5.34357e-05
-2.65015e-05
4.76219e-05
7.45178e-05
-5.33174e-05
-3.76965e-05
4.75018e-05
7.06874e-05
-5.30513e-05
-4.64636e-05
4.71303e-05
6.49021e-05
-5.23268e-05
4.64637e-05
5.70551e-05
-5.14903e-05
-5.14903e-05
4.71305e-05
3.76966e-05
6.4902e-05
-5.2327e-05
3.80027e-05
3.80025e-05
7.284e-05
2.6505e-05
3.80946e-05
7.8274e-05
1.35838e-05
3.80735e-05
8.17192e-05
1.63786e-10
3.80403e-05
8.33962e-05
-1.35834e-05
3.80403e-05
8.33962e-05
-2.65047e-05
3.80735e-05
8.17192e-05
-3.80024e-05
3.80946e-05
7.8274e-05
-4.71302e-05
3.80024e-05
7.284e-05
3.76965e-05
6.49021e-05
-5.23268e-05
4.7502e-05
2.65016e-05
7.06874e-05
-5.30514e-05
3.80948e-05
2.65048e-05
7.8274e-05
2.64304e-05
2.64301e-05
8.33161e-05
1.34982e-05
2.63343e-05
8.64277e-05
1.58037e-10
2.62719e-05
8.79142e-05
-1.34979e-05
2.62719e-05
8.79142e-05
-2.64301e-05
2.63343e-05
8.64277e-05
-3.80945e-05
2.64301e-05
8.33162e-05
-4.75018e-05
2.65047e-05
7.8274e-05
2.65016e-05
7.06874e-05
-5.30512e-05
4.7622e-05
1.36505e-05
7.45177e-05
-5.33175e-05
3.80737e-05
1.35835e-05
8.17192e-05
2.63345e-05
1.34979e-05
8.64276e-05
1.34198e-05
1.34196e-05
8.92796e-05
1.55038e-10
1.33736e-05
9.06222e-05
-1.34195e-05
1.33736e-05
9.06222e-05
-2.63342e-05
1.34196e-05
8.92796e-05
-3.80734e-05
1.34979e-05
8.64277e-05
-4.76218e-05
1.35835e-05
8.17192e-05
1.36505e-05
7.45178e-05
-5.33173e-05
4.76559e-05
-8.27744e-11
7.64234e-05
-5.34358e-05
3.80405e-05
-8.32677e-11
8.33962e-05
2.62721e-05
-8.43945e-11
8.79142e-05
1.33738e-05
-8.49418e-11
9.06222e-05
1.53952e-10
-8.4838e-11
9.18865e-05
-1.33735e-05
-8.45486e-11
9.18865e-05
-2.62718e-05
-8.42003e-11
9.06222e-05
-3.80403e-05
-8.37212e-11
8.79142e-05
-4.76557e-05
-8.33694e-11
8.33962e-05
-8.46714e-11
7.64235e-05
-5.34356e-05
4.76559e-05
-1.36507e-05
7.64234e-05
-5.34358e-05
3.80405e-05
-1.35837e-05
8.33962e-05
2.62721e-05
-1.34981e-05
8.79142e-05
1.33738e-05
-1.34198e-05
9.06222e-05
1.54203e-10
-1.33737e-05
9.18865e-05
-1.33735e-05
-1.33737e-05
9.18865e-05
-2.62718e-05
-1.34198e-05
9.06222e-05
-3.80403e-05
-1.34981e-05
8.79142e-05
-4.76557e-05
-1.35837e-05
8.33962e-05
-1.36507e-05
7.64235e-05
-5.34356e-05
4.7622e-05
-2.65017e-05
7.45177e-05
-5.33175e-05
3.80737e-05
-2.65049e-05
8.17192e-05
2.63345e-05
-2.64303e-05
8.64276e-05
1.34198e-05
-2.63345e-05
8.92796e-05
1.55932e-10
-2.6272e-05
9.06222e-05
-1.34195e-05
-2.6272e-05
9.06222e-05
-2.63342e-05
-2.63344e-05
8.92796e-05
-3.80734e-05
-2.64303e-05
8.64277e-05
-4.76218e-05
-2.65049e-05
8.17192e-05
-2.65017e-05
7.45178e-05
-5.33173e-05
4.7502e-05
-3.76967e-05
7.06874e-05
-5.30514e-05
3.80948e-05
-3.80026e-05
7.8274e-05
2.64304e-05
-3.80947e-05
8.33161e-05
1.34982e-05
-3.80737e-05
8.64276e-05
1.59406e-10
-3.80405e-05
8.79142e-05
-1.34979e-05
-3.80405e-05
8.79142e-05
-2.64301e-05
-3.80736e-05
8.64277e-05
-3.80945e-05
-3.80947e-05
8.33161e-05
-4.75018e-05
-3.80026e-05
7.8274e-05
-3.76967e-05
7.06874e-05
-5.30512e-05
4.71305e-05
-4.64638e-05
6.4902e-05
-5.2327e-05
3.80027e-05
-4.71304e-05
7.28399e-05
2.6505e-05
-4.7502e-05
7.8274e-05
1.35838e-05
-4.7622e-05
8.17192e-05
1.65112e-10
-4.76558e-05
8.33962e-05
-1.35834e-05
-4.76558e-05
8.33962e-05
-2.65047e-05
-4.7622e-05
8.17192e-05
-3.80024e-05
-4.7502e-05
7.8274e-05
-4.71302e-05
-4.71304e-05
7.284e-05
-4.64638e-05
6.49021e-05
-5.23268e-05
4.64639e-05
5.7055e-05
-5.14904e-05
-5.14904e-05
3.76968e-05
6.4902e-05
-5.23269e-05
2.65018e-05
7.06874e-05
-5.30514e-05
1.36508e-05
7.45177e-05
-5.33175e-05
1.74881e-10
7.64234e-05
-5.34358e-05
-1.36504e-05
7.64234e-05
-5.34358e-05
-2.65015e-05
7.45177e-05
-5.33174e-05
-3.76965e-05
7.06874e-05
-5.30514e-05
-4.64636e-05
6.4902e-05
-5.23269e-05
5.70551e-05
-5.14903e-05
-5.14904e-05
1.7456e-05
1.74552e-05
5.59097e-05
-1.68833e-05
-1.68827e-05
1.56116e-05
1.95118e-05
6.58053e-05
-1.85707e-05
1.16378e-05
2.09097e-05
7.35986e-05
-1.9847e-05
6.20166e-06
2.18253e-05
7.89052e-05
-2.07766e-05
7.80209e-10
2.2268e-05
8.15788e-05
-2.12225e-05
-6.20013e-06
2.2268e-05
8.15789e-05
-2.12225e-05
-1.16363e-05
2.18253e-05
7.89053e-05
-2.07767e-05
-1.56104e-05
2.09097e-05
7.35989e-05
-1.98471e-05
-1.7455e-05
1.95118e-05
6.58056e-05
-1.85708e-05
1.74553e-05
5.591e-05
-1.68825e-05
-1.68828e-05
1.95125e-05
1.56107e-05
6.58052e-05
-1.85712e-05
1.74863e-05
1.74854e-05
7.68925e-05
1.30091e-05
1.87069e-05
8.49539e-05
6.90996e-06
1.94672e-05
9.01764e-05
7.09639e-10
1.98339e-05
9.27395e-05
-6.90857e-06
1.98339e-05
9.27396e-05
-1.30078e-05
1.94672e-05
9.01765e-05
-1.74851e-05
1.87069e-05
8.49541e-05
-1.95116e-05
1.74855e-05
7.68928e-05
1.56108e-05
6.58056e-05
-1.85705e-05
2.09103e-05
1.16367e-05
7.35986e-05
-1.98475e-05
1.87077e-05
1.30081e-05
8.49539e-05
1.38922e-05
1.38913e-05
9.29472e-05
7.36716e-06
1.4429e-05
9.79909e-05
6.60723e-10
1.46897e-05
0.000100425
-7.36586e-06
1.46897e-05
0.000100425
-1.3891e-05
1.4429e-05
9.7991e-05
-1.87066e-05
1.38913e-05
9.29473e-05
-2.09094e-05
1.30081e-05
8.49541e-05
1.16368e-05
7.35989e-05
-1.98469e-05
2.18259e-05
6.20056e-06
7.8905e-05
-2.07771e-05
1.9468e-05
6.90896e-06
9.01763e-05
1.44298e-05
7.36623e-06
9.79909e-05
7.64277e-06
7.64188e-06
0.000102854
6.29657e-10
7.77625e-06
0.000105178
-7.64154e-06
7.77625e-06
0.000105178
-1.44287e-05
7.64187e-06
0.000102854
-1.94669e-05
7.36622e-06
9.7991e-05
-2.1825e-05
6.90896e-06
9.01765e-05
6.20057e-06
7.89054e-05
-2.07765e-05
2.22686e-05
-3.24274e-10
8.15787e-05
-2.1223e-05
1.98346e-05
-3.0217e-10
9.27394e-05
1.46905e-05
-2.88999e-10
0.000100425
7.77712e-06
-2.81376e-10
0.000105178
6.1426e-10
-2.78215e-10
0.00010744
-7.77592e-06
-2.79433e-10
0.00010744
-1.46894e-05
-2.85152e-10
0.000105178
-1.98336e-05
-2.95721e-10
0.000100425
-2.22678e-05
-3.12102e-10
9.27396e-05
-3.37886e-10
8.1579e-05
-2.12224e-05
2.22686e-05
-6.20119e-06
8.15786e-05
-2.1223e-05
1.98346e-05
-6.90955e-06
9.27394e-05
1.46905e-05
-7.36679e-06
0.000100425
7.77712e-06
-7.64243e-06
0.000105178
6.13082e-10
-7.7768e-06
0.00010744
-7.77592e-06
-7.7768e-06
0.00010744
-1.46894e-05
-7.64243e-06
0.000105178
-1.98336e-05
-7.3668e-06
0.000100425
-2.22678e-05
-6.90957e-06
9.27396e-05
-6.20124e-06
8.15789e-05
-2.12224e-05
2.18259e-05
-1.16373e-05
7.8905e-05
-2.07771e-05
1.9468e-05
-1.30087e-05
9.01762e-05
1.44298e-05
-1.38919e-05
9.79908e-05
7.64277e-06
-1.44295e-05
0.000102854
6.26205e-10
-1.46902e-05
0.000105178
-7.64154e-06
-1.46902e-05
0.000105178
-1.44287e-05
-1.44295e-05
0.000102854
-1.94669e-05
-1.38919e-05
9.7991e-05
-2.1825e-05
-1.30087e-05
9.01765e-05
-1.16374e-05
7.89053e-05
-2.07765e-05
2.09103e-05
-1.56112e-05
7.35985e-05
-1.98475e-05
1.87077e-05
-1.74859e-05
8.49538e-05
1.38922e-05
-1.87074e-05
9.29471e-05
7.36715e-06
-1.94677e-05
9.79909e-05
6.54828e-10
-1.98344e-05
0.000100425
-7.36587e-06
-1.98344e-05
0.000100425
-1.3891e-05
-1.94677e-05
9.79909e-05
-1.87066e-05
-1.87074e-05
9.29473e-05
-2.09094e-05
-1.7486e-05
8.49541e-05
-1.56113e-05
7.35988e-05
-1.98469e-05
1.95125e-05
-1.74556e-05
6.58051e-05
-1.85712e-05
1.74863e-05
-1.95122e-05
7.68924e-05
1.30091e-05
-2.091e-05
8.49538e-05
6.90995e-06
-2.18257e-05
9.01763e-05
7.00779e-10
-2.22684e-05
9.27394e-05
-6.90857e-06
-2.22684e-05
9.27395e-05
-1.30078e-05
-2.18257e-05
9.01764e-05
-1.74851e-05
-2.09101e-05
8.4954e-05
-1.95115e-05
-1.95123e-05
7.68927e-05
-1.74558e-05
6.58055e-05
-1.85705e-05
1.7456e-05
5.59095e-05
-1.6883e-05
-1.68832e-05
1.56116e-05
6.58051e-05
-1.8571e-05
1.16377e-05
7.35985e-05
-1.98473e-05
6.20164e-06
7.8905e-05
-2.07769e-05
7.68901e-10
8.15787e-05
-2.12228e-05
-6.20013e-06
8.15788e-05
-2.12228e-05
-1.16363e-05
7.89052e-05
-2.07769e-05
-1.56104e-05
7.35987e-05
-1.98474e-05
-1.7455e-05
6.58054e-05
-1.85711e-05
5.59099e-05
-1.68825e-05
-1.68831e-05
9.76258e-06
9.76071e-06
5.42206e-05
-8.91782e-06
-8.91645e-06
8.99824e-06
1.14972e-05
6.53701e-05
-1.02977e-05
6.8867e-06
1.27595e-05
7.43728e-05
-1.14221e-05
3.7316e-06
1.36064e-05
8.06636e-05
-1.22097e-05
1.80796e-09
1.40275e-05
8.38839e-05
-1.26028e-05
-3.72807e-06
1.40275e-05
8.3884e-05
-1.26028e-05
-6.88342e-06
1.36064e-05
8.0664e-05
-1.22098e-05
-8.99538e-06
1.27596e-05
7.43734e-05
-1.14222e-05
-9.76026e-06
1.14973e-05
6.5371e-05
-1.02979e-05
9.76101e-06
5.42217e-05
-8.91617e-06
-8.91673e-06
1.14988e-05
8.99602e-06
6.537e-05
-1.0299e-05
1.06883e-05
1.06864e-05
7.85138e-05
8.1786e-06
1.18591e-05
8.8364e-05
4.42049e-06
1.26109e-05
9.49299e-05
1.6196e-09
1.29792e-05
9.82067e-05
-4.41732e-06
1.29792e-05
9.82068e-05
-8.17564e-06
1.26109e-05
9.49303e-05
-1.06857e-05
1.18592e-05
8.83646e-05
-1.14967e-05
1.06865e-05
7.85146e-05
8.99627e-06
6.5371e-05
-1.02974e-05
1.2761e-05
6.88424e-06
7.43725e-05
-1.14232e-05
1.18609e-05
8.17641e-06
8.83639e-05
9.05929e-06
9.05729e-06
9.85506e-05
4.88655e-06
9.60548e-06
0.000105169
1.48823e-09
9.86954e-06
0.00010842
-4.88363e-06
9.86954e-06
0.00010842
-9.05656e-06
9.60548e-06
0.000105169
-1.18585e-05
9.05732e-06
9.85511e-05
-1.2759e-05
8.17649e-06
8.83647e-05
6.88441e-06
7.43735e-05
-1.14218e-05
1.36078e-05
3.72903e-06
8.06632e-05
-1.22107e-05
1.26126e-05
4.41819e-06
9.49296e-05
9.60736e-06
4.88444e-06
0.000105169
5.1707e-06
5.1687e-06
0.000111727
1.40533e-09
5.30229e-06
0.000114914
-5.16794e-06
5.30229e-06
0.000114914
-9.60477e-06
5.1687e-06
0.000111727
-1.26103e-05
4.88445e-06
0.000105169
-1.36059e-05
4.41822e-06
9.49304e-05
3.7291e-06
8.06641e-05
-1.22094e-05
1.40289e-05
-7.51868e-10
8.38833e-05
-1.26037e-05
1.29809e-05
-6.94051e-10
9.82062e-05
9.87137e-06
-6.5458e-10
0.000108419
5.30423e-06
-6.29432e-10
0.000114914
1.36409e-09
-6.17282e-10
0.000118045
-5.30155e-06
-6.18997e-10
0.000118045
-9.86885e-06
-6.3502e-10
0.000114914
-1.29786e-05
-6.65563e-10
0.00010842
-1.4027e-05
-7.12758e-10
9.82069e-05
-7.81408e-10
8.38842e-05
-1.26024e-05
1.40289e-05
-3.7305e-06
8.38832e-05
-1.26037e-05
1.29809e-05
-4.41955e-06
9.82062e-05
9.87137e-06
-4.88572e-06
0.000108419
5.30423e-06
-5.16993e-06
0.000114914
1.36271e-09
-5.3035e-06
0.000118045
-5.30156e-06
-5.3035e-06
0.000118045
-9.86886e-06
-5.16994e-06
0.000114914
-1.29786e-05
-4.88575e-06
0.00010842
-1.4027e-05
-4.41962e-06
9.82069e-05
-3.73063e-06
8.38842e-05
-1.26024e-05
1.36077e-05
-6.8856e-06
8.0663e-05
-1.22107e-05
1.26126e-05
-8.17768e-06
9.49295e-05
9.60735e-06
-9.05849e-06
0.000105169
5.17069e-06
-9.60663e-06
0.000111727
1.4009e-09
-9.87068e-06
0.000114914
-5.16794e-06
-9.87068e-06
0.000114914
-9.60477e-06
-9.60665e-06
0.000111727
-1.26103e-05
-9.05854e-06
0.000105169
-1.36059e-05
-8.17779e-06
9.49302e-05
-6.88582e-06
8.06639e-05
-1.22093e-05
1.2761e-05
-8.99721e-06
7.43723e-05
-1.14232e-05
1.18609e-05
-1.06875e-05
8.83637e-05
9.05926e-06
-1.18602e-05
9.85504e-05
4.88653e-06
-1.26119e-05
0.000105169
1.47923e-09
-1.29803e-05
0.000108419
-4.88364e-06
-1.29803e-05
0.00010842
-9.05655e-06
-1.2612e-05
0.000105169
-1.18585e-05
-1.18603e-05
9.85509e-05
-1.2759e-05
-1.06876e-05
8.83644e-05
-8.9975e-06
7.43732e-05
-1.14218e-05
1.14987e-05
-9.76168e-06
6.53697e-05
-1.02988e-05
1.06883e-05
-1.14981e-05
7.85135e-05
8.17854e-06
-1.27604e-05
8.83637e-05
4.42046e-06
-1.36072e-05
9.49296e-05
1.60296e-09
-1.40284e-05
9.82064e-05
-4.41732e-06
-1.40284e-05
9.82065e-05
-8.17561e-06
-1.36073e-05
9.49299e-05
-1.06857e-05
-1.27605e-05
8.83643e-05
-1.14966e-05
-1.14983e-05
7.85143e-05
-9.76201e-06
6.53707e-05
-1.02973e-05
9.76243e-06
5.42202e-05
-8.91713e-06
-8.91768e-06
8.99811e-06
6.53697e-05
-1.02983e-05
6.88659e-06
7.43724e-05
-1.14227e-05
3.73153e-06
8.06632e-05
-1.22103e-05
1.7817e-09
8.38835e-05
-1.26034e-05
-3.72806e-06
8.38836e-05
-1.26034e-05
-6.88336e-06
8.06636e-05
-1.22104e-05
-8.99528e-06
7.4373e-05
-1.14229e-05
-9.76014e-06
6.53706e-05
-1.02986e-05
5.42212e-05
-8.91607e-06
-8.91742e-06
2.27624e-06
2.27238e-06
5.31023e-05
-1.71655e-06
-1.71372e-06
2.42335e-06
3.04591e-06
6.43617e-05
-2.18461e-06
2.02464e-06
3.69519e-06
7.37101e-05
-2.63387e-06
1.15208e-06
4.15962e-06
8.03539e-05
-2.97743e-06
3.71799e-09
4.39693e-06
8.37913e-05
-3.15608e-06
-1.14482e-06
4.39697e-06
8.37917e-05
-3.15613e-06
-2.01791e-06
4.15976e-06
8.03549e-05
-2.97761e-06
-2.41749e-06
3.69546e-06
7.37117e-05
-2.63416e-06
-2.2715e-06
3.04639e-06
6.43637e-05
-2.18513e-06
2.27309e-06
5.31047e-05
-1.71322e-06
-1.71439e-06
3.04933e-06
2.41878e-06
6.43615e-05
-2.18718e-06
3.29554e-06
3.29151e-06
7.8022e-05
2.75292e-06
3.97932e-06
8.86225e-05
1.55873e-06
4.4423e-06
9.58414e-05
3.30188e-09
4.66854e-06
9.94904e-05
-1.55227e-06
4.66857e-06
9.94907e-05
-2.74689e-06
4.44239e-06
9.58422e-05
-3.29023e-06
3.97951e-06
8.86239e-05
-3.04501e-06
3.29186e-06
7.80239e-05
2.41937e-06
6.43638e-05
-2.18409e-06
3.69821e-06
2.01958e-06
7.37096e-05
-2.63609e-06
3.98293e-06
2.74848e-06
8.86222e-05
3.30793e-06
3.30393e-06
9.9901e-05
1.86183e-06
3.65818e-06
0.000107399
3.00827e-09
3.81848e-06
0.000111129
-1.85594e-06
3.81848e-06
0.000111129
-3.30242e-06
3.65822e-06
0.0001074
-3.97807e-06
3.30403e-06
9.99022e-05
-3.69426e-06
2.74869e-06
8.8624e-05
2.01999e-06
7.37119e-05
-2.63328e-06
4.16239e-06
1.14682e-06
8.0353e-05
-2.97947e-06
4.44565e-06
1.55408e-06
9.58408e-05
3.66193e-06
1.85761e-06
0.000107399
2.0461e-06
2.04214e-06
0.000114959
2.82395e-09
2.11509e-06
0.000118661
-2.04056e-06
2.11509e-06
0.000118661
-3.65674e-06
2.04214e-06
0.00011496
-4.44107e-06
1.85764e-06
0.0001074
-4.15867e-06
1.55416e-06
9.58425e-05
1.14699e-06
8.03552e-05
-2.9768e-06
4.39955e-06
-1.494e-09
8.379e-05
-3.15798e-06
4.67175e-06
-1.34988e-09
9.94895e-05
3.82209e-06
-1.25412e-09
0.000111128
2.11893e-06
-1.19769e-09
0.000118661
2.73197e-09
-1.17337e-09
0.000122278
-2.11357e-06
-1.1802e-09
0.000122278
-3.81706e-06
-1.2189e-09
0.000118661
-4.66731e-06
-1.29123e-09
0.000111129
-4.39595e-06
-1.404e-09
9.94911e-05
-1.56558e-09
8.37922e-05
-3.15539e-06
4.39953e-06
-1.14973e-06
8.37899e-05
-3.15796e-06
4.67173e-06
-1.55672e-06
9.94894e-05
3.82208e-06
-1.86007e-06
0.000111128
2.11893e-06
-2.04449e-06
0.000118661
2.72686e-09
-2.1174e-06
0.000122278
-2.11357e-06
-2.11741e-06
0.000122278
-3.81706e-06
-2.04453e-06
0.000118661
-4.6673e-06
-1.86017e-06
0.000111129
-4.39593e-06
-1.5569e-06
9.9491e-05
-1.15004e-06
8.37921e-05
-3.15537e-06
4.16232e-06
-2.02229e-06
8.03526e-05
-2.9794e-06
4.44559e-06
-2.75095e-06
9.58404e-05
3.66189e-06
-3.30623e-06
0.000107399
2.04608e-06
-3.66039e-06
0.000114959
2.8079e-09
-3.82064e-06
0.000118661
-2.04057e-06
-3.82066e-06
0.000118661
-3.65673e-06
-3.66046e-06
0.000114959
-4.44104e-06
-3.30639e-06
0.0001074
-4.15862e-06
-2.75126e-06
9.58421e-05
-2.02282e-06
8.03548e-05
-2.97674e-06
3.69807e-06
-2.42114e-06
7.3709e-05
-2.63596e-06
3.98281e-06
-3.29369e-06
8.86217e-05
3.30785e-06
-3.98135e-06
9.99004e-05
1.86178e-06
-4.44424e-06
0.000107399
2.97927e-09
-4.67045e-06
0.000111128
-1.85595e-06
-4.67049e-06
0.000111128
-3.30239e-06
-4.44437e-06
0.0001074
-3.978e-06
-3.98159e-06
9.99017e-05
-3.69415e-06
-3.29412e-06
8.86234e-05
-2.42183e-06
7.37112e-05
-2.63316e-06
3.0491e-06
-2.27429e-06
6.43607e-05
-2.18695e-06
3.29535e-06
-3.04769e-06
7.80212e-05
2.75277e-06
-3.69684e-06
8.86218e-05
1.55863e-06
-4.1612e-06
9.58407e-05
3.25724e-09
-4.39848e-06
9.94897e-05
-1.55225e-06
-4.39853e-06
9.949e-05
-2.74682e-06
-4.16137e-06
9.58415e-05
-3.2901e-06
-3.69716e-06
8.86231e-05
-3.04482e-06
-3.04823e-06
7.80231e-05
-2.27508e-06
6.4363e-05
-2.18388e-06
2.2759e-06
5.31014e-05
-1.71507e-06
-1.71626e-06
2.42305e-06
6.43608e-05
-2.18588e-06
2.02439e-06
7.37092e-05
-2.63504e-06
1.15192e-06
8.0353e-05
-2.97857e-06
3.65817e-09
8.37904e-05
-3.15719e-06
-1.14478e-06
8.37907e-05
-3.15725e-06
-2.01776e-06
8.03539e-05
-2.97876e-06
-2.41726e-06
7.37107e-05
-2.63537e-06
-2.27122e-06
6.43627e-05
-2.18645e-06
5.31037e-05
-1.71296e-06
-1.71578e-06
1.81336e-06
1.80625e-06
5.26881e-05
-1.6053e-06
-1.60012e-06
1.72621e-06
2.20649e-06
6.41333e-05
-1.89099e-06
1.36254e-06
2.53246e-06
7.36822e-05
-2.14091e-06
7.55457e-07
2.76309e-06
8.05166e-05
-2.3187e-06
6.77191e-09
2.87953e-06
8.40698e-05
-2.40932e-06
-7.4224e-07
2.87962e-06
8.40705e-05
-2.40942e-06
-1.35028e-06
2.76339e-06
8.05185e-05
-2.31902e-06
-1.71553e-06
2.53301e-06
7.36854e-05
-2.14146e-06
-1.80472e-06
2.20742e-06
6.41374e-05
-1.89196e-06
1.80762e-06
5.26929e-05
-1.59922e-06
-1.60135e-06
2.21277e-06
1.71778e-06
6.41328e-05
-1.8957e-06
2.1545e-06
2.1471e-06
7.81396e-05
1.7159e-06
2.4903e-06
8.91033e-05
9.52089e-07
2.72313e-06
9.66452e-05
6.00525e-09
2.83356e-06
0.000100482
-9.40342e-07
2.83361e-06
0.000100483
-1.70494e-06
2.72333e-06
9.66469e-05
-2.14486e-06
2.49071e-06
8.91061e-05
-2.20489e-06
2.14783e-06
7.81435e-05
1.71896e-06
6.41376e-05
-1.89005e-06
2.53797e-06
1.35321e-06
7.36811e-05
-2.14496e-06
2.4969e-06
1.70773e-06
8.91027e-05
1.99343e-06
1.9861e-06
0.000100909
1.10288e-06
2.16376e-06
0.000108849
5.44814e-09
2.23523e-06
0.000112824
-1.09221e-06
2.23525e-06
0.000112825
-1.98345e-06
2.16386e-06
0.000108851
-2.4881e-06
1.98634e-06
0.000100911
-2.53082e-06
1.70821e-06
8.91063e-05
1.35407e-06
7.36858e-05
-2.13985e-06
2.76813e-06
7.45752e-07
8.05147e-05
-2.3224e-06
2.72921e-06
9.43546e-07
9.66439e-05
2.17057e-06
1.09517e-06
0.000108849
1.19221e-06
1.185e-06
0.000116916
5.09641e-09
1.20884e-06
0.000120874
-1.18221e-06
1.20883e-06
0.000120875
-2.16121e-06
1.18503e-06
0.000116918
-2.72096e-06
1.09526e-06
0.000108851
-2.76142e-06
9.43757e-07
9.66474e-05
7.46172e-07
8.05193e-05
-2.31757e-06
2.88427e-06
-2.83696e-09
8.40671e-05
-2.41275e-06
2.83936e-06
-2.54592e-09
0.00010048
2.24178e-06
-2.34313e-09
0.000112823
1.21581e-06
-2.21957e-09
0.000120874
4.92463e-09
-2.16294e-09
0.0001247
-1.20612e-06
-2.16988e-09
0.0001247
-2.2327e-06
-2.24099e-09
0.000120875
-2.83136e-06
-2.37884e-09
0.000112825
-2.87778e-06
-2.59193e-09
0.000100484
-2.88388e-09
8.40715e-05
-2.40808e-06
2.88423e-06
-7.51288e-07
8.40668e-05
-2.41271e-06
2.83933e-06
-9.48524e-07
0.00010048
2.24177e-06
-1.09976e-06
0.000112823
1.2158e-06
-1.18936e-06
0.000120874
4.92177e-09
-1.21309e-06
0.000124699
-1.20613e-06
-1.2131e-06
0.0001247
-2.2327e-06
-1.18942e-06
0.000120875
-2.83134e-06
-1.09991e-06
0.000112825
-2.87774e-06
-9.48825e-07
0.000100484
-7.51798e-07
8.40713e-05
-2.40804e-06
2.768e-06
-1.35834e-06
8.05139e-05
-2.32226e-06
2.72912e-06
-1.71237e-06
9.66432e-05
2.17051e-06
-1.99039e-06
0.000108848
1.19218e-06
-2.16783e-06
0.000116916
5.08655e-09
-2.23921e-06
0.000120874
-1.18221e-06
-2.23924e-06
0.000120874
-2.16117e-06
-2.16797e-06
0.000116917
-2.72088e-06
-1.9907e-06
0.00010885
-2.7613e-06
-1.71293e-06
9.66466e-05
-1.35928e-06
8.05185e-05
-2.31744e-06
2.53774e-06
-1.72225e-06
7.36799e-05
-2.14472e-06
2.49672e-06
-2.15118e-06
8.91015e-05
1.99331e-06
-2.49408e-06
0.000100908
1.10282e-06
-2.72672e-06
0.000108848
5.42808e-09
-2.83706e-06
0.000112823
-1.09219e-06
-2.83713e-06
0.000112824
-1.98336e-06
-2.72695e-06
0.00010885
-2.48794e-06
-2.49454e-06
0.00010091
-2.5306e-06
-2.15198e-06
8.91051e-05
-1.7235e-06
7.36845e-05
-2.13963e-06
2.21236e-06
-1.80985e-06
6.41312e-05
-1.89528e-06
2.15418e-06
-2.20981e-06
7.8138e-05
1.71567e-06
-2.53552e-06
8.91017e-05
9.51955e-07
-2.766e-06
9.66437e-05
5.96979e-09
-2.88237e-06
0.000100481
-9.40276e-07
-2.88247e-06
0.000100482
-1.70477e-06
-2.76633e-06
9.66454e-05
-2.14458e-06
-2.53612e-06
8.91045e-05
-2.20453e-06
-2.21081e-06
7.81418e-05
-1.81128e-06
6.41359e-05
-1.88967e-06
1.81277e-06
5.26862e-05
-1.60265e-06
-1.60477e-06
1.72569e-06
6.41314e-05
-1.89336e-06
1.36213e-06
7.36803e-05
-2.14308e-06
7.5522e-07
8.05147e-05
-2.32078e-06
6.71926e-09
8.40679e-05
-2.41135e-06
-7.42104e-07
8.40685e-05
-2.41146e-06
-1.34996e-06
8.05166e-05
-2.32113e-06
-1.71508e-06
7.36834e-05
-2.14367e-06
-1.80419e-06
6.41354e-05
-1.89438e-06
5.26908e-05
-1.59875e-06
-1.60391e-06
3.48867e-07
3.36663e-07
5.24735e-05
-2.39915e-07
-2.3104e-07
4.00083e-07
4.78425e-07
6.39109e-05
-3.07176e-07
3.5251e-07
6.10077e-07
7.35063e-05
-3.86565e-07
2.10851e-07
7.11131e-07
8.03976e-05
-4.50455e-07
1.13597e-08
7.64713e-07
8.39891e-05
-4.84561e-07
-1.88681e-07
7.6489e-07
8.39903e-05
-4.84742e-07
-3.31947e-07
7.11708e-07
8.04012e-05
-4.51055e-07
-3.82182e-07
6.11132e-07
7.35121e-05
-3.87583e-07
-3.34405e-07
4.80176e-07
6.39184e-05
-3.08931e-07
3.39178e-07
5.24823e-05
-2.29757e-07
-2.33233e-07
4.89208e-07
3.85598e-07
6.391e-05
-3.15253e-07
5.72514e-07
5.59811e-07
7.79749e-05
5.05666e-07
7.14798e-07
8.90654e-05
2.99202e-07
8.29379e-07
9.67334e-05
1.01255e-08
8.87743e-07
0.000100649
-2.79399e-07
8.8787e-07
0.00010065
-4.87203e-07
8.29807e-07
9.67366e-05
-5.56274e-07
7.15627e-07
8.90707e-05
-4.75963e-07
5.61233e-07
7.79821e-05
3.87843e-07
6.39188e-05
-3.05773e-07
6.19519e-07
3.36486e-07
7.35042e-05
-3.93479e-07
7.26084e-07
4.91659e-07
8.90642e-05
6.39933e-07
6.27404e-07
0.000101082
3.75747e-07
7.24831e-07
0.000109218
9.20545e-09
7.70414e-07
0.000113308
-3.57723e-07
7.7048e-07
0.000113309
-6.23092e-07
7.25085e-07
0.000109221
-7.11246e-07
6.27946e-07
0.000101087
-6.07461e-07
4.92662e-07
8.90711e-05
3.38202e-07
7.35129e-05
-3.84892e-07
7.19704e-07
1.94209e-07
8.0394e-05
-4.56744e-07
8.39736e-07
2.84565e-07
9.67309e-05
7.36421e-07
3.62564e-07
0.000109217
4.30007e-07
4.17738e-07
0.00011753
8.61738e-09
4.40228e-07
0.000121626
-4.13121e-07
4.40244e-07
0.000121627
-7.20624e-07
4.1784e-07
0.000117532
-8.25815e-07
3.62822e-07
0.000109221
-7.08398e-07
2.85092e-07
9.67375e-05
1.95167e-07
8.04025e-05
-4.48624e-07
7.7274e-07
-5.09021e-09
8.3984e-05
-4.90363e-07
8.9758e-07
-4.49519e-09
0.000100645
7.81533e-07
-4.07989e-09
0.000113306
4.52066e-07
-3.82747e-09
0.000121625
8.33357e-09
-3.71076e-09
0.000125587
-4.35708e-07
-3.71326e-09
0.000125588
-7.66221e-07
-3.83184e-09
0.000121627
-8.84101e-07
-4.07285e-09
0.00011331
-7.61811e-07
-4.44762e-09
0.000100651
-4.95669e-09
8.39924e-05
-4.82514e-07
7.72668e-07
-2.04145e-07
8.39835e-05
-4.90287e-07
8.97529e-07
-2.93357e-07
0.000100644
7.81507e-07
-3.70551e-07
0.000113305
4.52058e-07
-4.25236e-07
0.000121624
8.32971e-09
-4.47511e-07
0.000125587
-4.35708e-07
-4.47532e-07
0.000125588
-7.66201e-07
-4.25346e-07
0.000121627
-8.84055e-07
-3.70794e-07
0.00011331
-7.61743e-07
-2.93787e-07
0.000100651
-2.04837e-07
8.39918e-05
-4.82443e-07
7.19465e-07
-3.45708e-07
8.03925e-05
-4.56487e-07
8.39562e-07
-4.99858e-07
9.67296e-05
7.36318e-07
-6.34866e-07
0.000109215
4.29958e-07
-7.31843e-07
0.000117529
8.60353e-09
-7.77226e-07
0.000121625
-4.13099e-07
-7.77297e-07
0.000121626
-7.20543e-07
-7.32102e-07
0.000117531
-8.25661e-07
-6.35388e-07
0.00010922
-7.08178e-07
-5.0076e-07
9.67361e-05
-3.47158e-07
8.0401e-05
-4.48387e-07
6.19073e-07
-3.93636e-07
7.35018e-05
-3.93037e-07
7.25739e-07
-5.67028e-07
8.9062e-05
6.39703e-07
-7.2137e-07
0.00010108
3.75624e-07
-8.35551e-07
0.000109216
9.17416e-09
-8.93731e-07
0.000113306
-3.57661e-07
-8.93861e-07
0.000113307
-6.22917e-07
-8.3598e-07
0.000109219
-7.10951e-07
-7.22171e-07
0.000101085
-6.07063e-07
-5.68341e-07
8.90688e-05
-3.95621e-07
7.35104e-05
-3.84497e-07
4.88444e-07
-3.43167e-07
6.39067e-05
-3.14474e-07
5.71901e-07
-4.84317e-07
7.79718e-05
5.05226e-07
-6.15417e-07
8.90625e-05
2.98951e-07
-7.16138e-07
9.67305e-05
1.00615e-08
-7.69559e-07
0.000100646
-2.79273e-07
-7.69736e-07
0.000100647
-4.86882e-07
-7.16708e-07
9.67337e-05
-5.55773e-07
-6.16434e-07
8.90677e-05
-4.75308e-07
-4.85955e-07
7.7979e-05
-3.4544e-07
6.39155e-05
-3.0509e-07
3.4774e-07
5.24698e-05
-2.35616e-07
-2.38912e-07
3.99084e-07
6.39071e-05
-3.11399e-07
3.51738e-07
7.35026e-05
-3.90368e-07
2.10396e-07
8.03939e-05
-4.54046e-07
1.12451e-08
8.39855e-05
-4.88033e-07
-1.88451e-07
8.39867e-05
-4.88212e-07
-3.31395e-07
8.03974e-05
-4.54631e-07
-3.81392e-07
7.35083e-05
-3.91343e-07
-3.33475e-07
6.39146e-05
-3.13047e-07
5.24785e-05
-2.28928e-07
-2.37607e-07
4.33173e-07
4.13743e-07
5.23915e-05
-3.89507e-07
-3.75461e-07
4.0831e-07
4.99539e-07
6.38768e-05
-4.40647e-07
3.23418e-07
5.69598e-07
7.3518e-05
-4.96385e-07
1.85933e-07
6.19894e-07
8.04508e-05
-5.35663e-07
1.75921e-08
6.45809e-07
8.40675e-05
-5.55851e-07
-1.51602e-07
6.46101e-07
8.40696e-05
-5.56133e-07
-2.91587e-07
6.2084e-07
8.04569e-05
-5.36595e-07
-3.80609e-07
5.71309e-07
7.35277e-05
-4.97956e-07
-4.10804e-07
5.02332e-07
6.38896e-05
-4.43336e-07
4.17686e-07
5.24064e-05
-3.73809e-07
-3.78768e-07
5.16815e-07
3.85186e-07
6.38752e-05
-4.53532e-07
4.9598e-07
4.75582e-07
7.80197e-05
3.9517e-07
5.49646e-07
8.91861e-05
2.25262e-07
6.02145e-07
9.6921e-05
1.58332e-08
6.28145e-07
0.000100876
-1.943e-07
6.28371e-07
0.000100877
-3.6631e-07
6.02891e-07
9.69265e-05
-4.70605e-07
5.51063e-07
8.91952e-05
-4.96129e-07
4.7795e-07
7.8032e-05
3.8883e-07
6.38902e-05
-4.38726e-07
5.8477e-07
2.9781e-07
7.35143e-05
-5.07456e-07
5.67806e-07
3.7266e-07
8.91841e-05
4.54469e-07
4.34306e-07
0.000101311
2.57613e-07
4.7687e-07
0.00010954
1.44701e-08
4.95623e-07
0.000113684
-2.29284e-07
4.95757e-07
0.000113685
-4.28e-07
4.77353e-07
0.000109545
-5.44486e-07
4.353e-07
0.000101319
-5.6582e-07
3.74424e-07
8.9196e-05
3.00714e-07
7.35291e-05
-4.93958e-07
6.33668e-07
1.5933e-07
8.04446e-05
-5.45748e-07
6.18794e-07
2.01743e-07
9.69167e-05
4.95498e-07
2.36406e-07
0.000109538
2.79299e-07
2.59588e-07
0.000117963
1.35703e-08
2.67797e-07
0.00012212
-2.52703e-07
2.67848e-07
0.000122121
-4.70614e-07
2.59827e-07
0.000117968
-5.96862e-07
2.36953e-07
0.000109546
-6.15848e-07
2.02776e-07
9.69282e-05
1.61096e-07
8.04592e-05
-5.3294e-07
6.5868e-07
-8.70244e-09
8.40585e-05
-5.65149e-07
6.43919e-07
-7.65287e-09
0.000100869
5.13451e-07
-6.89241e-09
0.000113679
2.86774e-07
-6.41466e-09
0.000122118
1.31205e-08
-6.18229e-09
0.000126135
-2.61011e-07
-6.16507e-09
0.000126136
-4.89333e-07
-6.35445e-09
0.000122122
-6.22682e-07
-6.75603e-09
0.000113687
-6.41452e-07
-7.37666e-09
0.00010088
-8.20169e-09
8.4073e-05
-5.52766e-07
6.58532e-07
-1.76327e-07
8.40576e-05
-5.64999e-07
6.43807e-07
-2.16717e-07
0.000100868
5.13381e-07
-2.49904e-07
0.000113679
2.86738e-07
-2.72161e-07
0.000122117
1.30944e-08
-2.79936e-07
0.000126134
-2.61027e-07
-2.79953e-07
0.000126136
-4.89314e-07
-2.72279e-07
0.000122121
-6.2262e-07
-2.50176e-07
0.000113686
-6.41352e-07
-2.17196e-07
0.000100879
-1.77094e-07
8.4072e-05
-5.52658e-07
6.33184e-07
-3.1361e-07
8.04419e-05
-5.4525e-07
6.18417e-07
-3.86644e-07
9.69143e-05
4.95243e-07
-4.4693e-07
0.000109536
2.79146e-07
-4.88636e-07
0.000117961
1.34837e-08
-5.06985e-07
0.000122118
-2.52723e-07
-5.07084e-07
0.000122119
-4.70528e-07
-4.88995e-07
0.000117966
-5.9665e-07
-4.47643e-07
0.000109544
-6.15524e-07
-3.87849e-07
9.69256e-05
-3.15523e-07
8.04565e-05
-5.32583e-07
5.83871e-07
-3.98993e-07
7.35099e-05
-5.06601e-07
5.67067e-07
-4.87917e-07
8.91801e-05
4.5393e-07
-5.60789e-07
0.000101307
2.57269e-07
-6.1252e-07
0.000109536
1.42945e-08
-6.38144e-07
0.00011368
-2.29289e-07
-6.38332e-07
0.000113682
-4.27805e-07
-6.13135e-07
0.000109541
-5.44083e-07
-5.61916e-07
0.000101315
-5.65239e-07
-4.89726e-07
8.91918e-05
-4.0168e-07
7.35246e-05
-4.9337e-07
5.15297e-07
-4.24951e-07
6.38694e-05
-4.52044e-07
4.94693e-07
-5.09642e-07
7.80142e-05
3.94176e-07
-5.78677e-07
8.91809e-05
2.24603e-07
-6.28329e-07
9.69159e-05
1.55111e-08
-6.53912e-07
0.000100871
-1.94282e-07
-6.54166e-07
0.000100872
-3.65946e-07
-6.29136e-07
9.69214e-05
-4.69925e-07
-5.80096e-07
8.91898e-05
-4.95179e-07
-5.11892e-07
7.80264e-05
-4.28013e-07
6.38843e-05
-4.37709e-07
4.30945e-07
5.23848e-05
-3.8336e-07
-3.87591e-07
4.06247e-07
6.38701e-05
-4.47907e-07
3.21723e-07
7.35113e-05
-5.02865e-07
1.84784e-07
8.04443e-05
-5.41727e-07
1.7043e-08
8.4061e-05
-5.61665e-07
-1.51543e-07
8.4063e-05
-5.61909e-07
-2.90955e-07
8.04502e-05
-5.42527e-07
-3.79548e-07
7.35209e-05
-5.04179e-07
-4.09476e-07
6.38827e-05
-4.50133e-07
5.23995e-05
-3.72606e-07
-3.85962e-07
9.10517e-08
6.29881e-08
5.23411e-05
-6.18867e-08
-4.17432e-08
1.06259e-07
9.5627e-08
6.38251e-05
-5.91253e-08
9.83652e-08
1.26049e-07
7.34778e-05
-7.80063e-08
6.8592e-08
1.49539e-07
8.04242e-05
-9.31555e-08
2.50367e-08
1.62334e-07
8.40503e-05
-1.0153e-07
-1.97576e-08
1.62759e-07
8.40535e-05
-1.0192e-07
-5.31563e-08
1.50895e-07
8.04338e-05
-9.44351e-08
-6.70183e-08
1.28448e-07
7.34933e-05
-8.01309e-08
-5.948e-08
9.94375e-08
6.38454e-05
-6.27156e-08
6.82006e-08
5.23645e-05
-3.98314e-08
-4.60096e-08
1.20982e-07
7.2695e-08
6.38225e-05
-7.79156e-08
1.4263e-07
1.12557e-07
7.79811e-05
1.30029e-07
1.4796e-07
8.91768e-05
8.59671e-08
1.74616e-07
9.694e-05
2.28783e-08
1.88755e-07
0.000100912
-4.1249e-08
1.89099e-07
0.000100915
-8.84058e-08
1.75727e-07
9.69489e-05
-1.06119e-07
1.50004e-07
8.91914e-05
-9.13241e-08
1.1585e-07
7.80008e-05
7.75772e-08
6.38463e-05
-5.67803e-08
1.48555e-07
6.10863e-08
7.34717e-05
-9.43417e-08
1.74984e-07
9.67696e-08
8.91735e-05
1.58168e-07
1.28123e-07
0.000101347
1.01485e-07
1.51519e-07
0.00010962
2.11013e-08
1.63379e-07
0.00011379
-6.01919e-08
1.63597e-07
0.000113792
-1.19633e-07
1.52266e-07
0.000109628
-1.41099e-07
1.2959e-07
0.000101361
-1.21094e-07
9.92551e-08
8.91926e-05
6.50027e-08
7.34955e-05
-7.48524e-08
1.70069e-07
2.98167e-08
8.04139e-05
-1.08134e-07
1.99477e-07
5.11957e-08
9.69329e-05
1.79352e-07
6.98836e-08
0.000109616
1.13437e-07
8.39868e-08
0.000118097
1.98631e-08
9.08629e-08
0.000122286
-7.45289e-08
9.09592e-08
0.000122288
-1.42987e-07
8.43727e-08
0.000118104
-1.67472e-07
7.0702e-08