/*--------------------------------*- C++ -*----------------------------------*\
| =========                 |                                                 |
| \\      /  F ield         | OpenFOAM: The Open Source CFD Toolbox           |
|  \\    /   O peration     | Version:  2406                                  |
|   \\  /    A nd           | Website:  www.openfoam.com                      |
|    \\/     M anipulation  |                                                 |
\*---------------------------------------------------------------------------*/
FoamFile
{
    version     2.0;
    format      ascii;
    arch        "LSB;label=32;scalar=64";
    class       volScalarField;
    location    "1.3";
    object      turbulenceProperties:nuEff;
}
// * * * * * * * * * * * * * * * * * * * * * * * * * * * * * * * * * * * * * //

dimensions      [0 2 -1 0 0 0 0];

internalField   nonuniform List<scalar> 
25000
(
0.00649252
0.00656621
0.00659827
0.0066045
0.00660263
0.00660263
0.0066045
0.00659827
0.00656621
0.00649252
0.00656621
0.00659262
0.00658044
0.00656683
0.00655948
0.00655948
0.00656683
0.00658044
0.00659262
0.00656621
0.00659827
0.00658044
0.00655571
0.00654081
0.00653481
0.00653481
0.00654081
0.00655571
0.00658044
0.00659827
0.0066045
0.00656683
0.00654081
0.00652905
0.00652556
0.00652556
0.00652905
0.00654081
0.00656683
0.0066045
0.00660263
0.00655948
0.00653481
0.00652556
0.00652371
0.00652371
0.00652556
0.00653481
0.00655948
0.00660263
0.00660263
0.00655948
0.00653481
0.00652556
0.00652371
0.00652371
0.00652556
0.00653481
0.00655948
0.00660263
0.0066045
0.00656683
0.00654081
0.00652905
0.00652556
0.00652556
0.00652905
0.00654081
0.00656683
0.0066045
0.00659827
0.00658044
0.00655571
0.00654081
0.00653481
0.00653481
0.00654081
0.00655571
0.00658044
0.00659827
0.00656621
0.00659263
0.00658044
0.00656683
0.00655948
0.00655948
0.00656683
0.00658044
0.00659262
0.00656621
0.00649252
0.00656621
0.00659827
0.0066045
0.00660263
0.00660263
0.0066045
0.00659827
0.00656621
0.00649252
0.00616049
0.00633619
0.0065502
0.00671907
0.00680784
0.00680784
0.00671908
0.00655021
0.0063362
0.0061605
0.00633619
0.00671079
0.00697555
0.00708519
0.00711329
0.00711329
0.00708518
0.00697556
0.00671079
0.0063362
0.0065502
0.00697555
0.00713289
0.00711485
0.00708406
0.00708405
0.00711484
0.00713289
0.00697556
0.00655021
0.00671907
0.00708519
0.00711485
0.00704194
0.00699708
0.00699708
0.00704193
0.00711484
0.00708518
0.00671908
0.00680784
0.00711329
0.00708406
0.00699708
0.00695034
0.00695034
0.00699708
0.00708405
0.00711329
0.00680784
0.00680784
0.00711329
0.00708406
0.00699708
0.00695034
0.00695034
0.00699708
0.00708405
0.00711329
0.00680784
0.00671907
0.00708519
0.00711485
0.00704194
0.00699708
0.00699708
0.00704193
0.00711484
0.00708518
0.00671908
0.0065502
0.00697555
0.00713289
0.00711485
0.00708406
0.00708406
0.00711484
0.00713289
0.00697556
0.0065502
0.00633619
0.00671078
0.00697555
0.00708519
0.00711329
0.00711329
0.00708518
0.00697555
0.00671079
0.00633619
0.00616049
0.00633619
0.0065502
0.00671907
0.00680784
0.00680784
0.00671907
0.0065502
0.00633619
0.00616049
0.00583444
0.00590606
0.00604068
0.00616694
0.00624291
0.00624291
0.00616695
0.0060407
0.00590608
0.00583446
0.00590606
0.00614407
0.00638753
0.0065824
0.00669195
0.00669196
0.00658242
0.00638755
0.00614409
0.00590608
0.00604068
0.00638753
0.00673521
0.00699949
0.00713423
0.00713424
0.00699951
0.00673524
0.00638755
0.0060407
0.00616693
0.0065824
0.00699949
0.00729502
0.00742075
0.00742076
0.00729503
0.00699951
0.00658242
0.00616695
0.0062429
0.00669194
0.00713421
0.00742074
0.00752182
0.00752183
0.00742076
0.00713424
0.00669196
0.00624292
0.0062429
0.00669193
0.00713421
0.00742074
0.00752182
0.00752182
0.00742076
0.00713424
0.00669196
0.00624292
0.00616693
0.00658239
0.00699948
0.00729501
0.00742074
0.00742075
0.00729503
0.00699951
0.00658241
0.00616695
0.00604068
0.00638752
0.0067352
0.00699948
0.00713422
0.00713422
0.0069995
0.00673523
0.00638754
0.00604069
0.00590606
0.00614406
0.00638752
0.00658239
0.00669194
0.00669195
0.00658241
0.00638754
0.00614408
0.00590607
0.00583444
0.00590606
0.00604068
0.00616693
0.0062429
0.00624291
0.00616694
0.00604069
0.00590607
0.00583445
0.00580626
0.00584228
0.00594492
0.00604707
0.00611055
0.00611056
0.0060471
0.00594495
0.00584232
0.00580628
0.00584228
0.00602295
0.00621808
0.00638578
0.00648732
0.00648733
0.00638581
0.00621812
0.00602299
0.00584232
0.00594492
0.00621808
0.0065139
0.00678204
0.00695492
0.00695494
0.00678209
0.00651395
0.00621812
0.00594495
0.00604707
0.00638577
0.00678203
0.007199
0.00752514
0.00752517
0.00719907
0.00678209
0.00638582
0.0060471
0.00611053
0.00648729
0.00695488
0.00752509
0.00811338
0.00811346
0.00752519
0.00695496
0.00648734
0.00611056
0.00611052
0.00648728
0.00695488
0.00752507
0.00811334
0.00811342
0.00752517
0.00695495
0.00648734
0.00611056
0.00604706
0.00638576
0.00678201
0.00719897
0.00752509
0.00752513
0.00719904
0.00678207
0.00638581
0.00604709
0.00594491
0.00621806
0.00651388
0.00678202
0.00695489
0.00695491
0.00678206
0.00651393
0.00621811
0.00594494
0.00584227
0.00602294
0.00621807
0.00638576
0.0064873
0.00648731
0.00638579
0.0062181
0.00602297
0.0058423
0.00580625
0.00584227
0.00594491
0.00604706
0.00611053
0.00611054
0.00604708
0.00594493
0.0058423
0.00580627
0.00577343
0.00579396
0.00588198
0.00597269
0.00602997
0.00602999
0.00597273
0.00588204
0.00579402
0.00577349
0.00579396
0.00594857
0.00611953
0.00627014
0.00636375
0.00636378
0.0062702
0.0061196
0.00594865
0.00579402
0.00588198
0.00611952
0.00638181
0.00663063
0.00680117
0.00680121
0.00663072
0.00638191
0.0061196
0.00588204
0.00597267
0.00627012
0.00663061
0.00704464
0.00742161
0.0074217
0.00704478
0.00663073
0.00627021
0.00597274
0.00602993
0.0063637
0.00680109
0.00742151
0.00837482
0.00837518
0.00742175
0.00680124
0.0063638
0.00603
0.00602993
0.00636369
0.00680108
0.00742147
0.00837467
0.00837502
0.00742171
0.00680122
0.00636379
0.00603
0.00597265
0.0062701
0.00663057
0.00704458
0.00742151
0.0074216
0.00704472
0.00663069
0.00627019
0.00597272
0.00588196
0.00611949
0.00638178
0.00663058
0.00680111
0.00680114
0.00663066
0.00638187
0.00611957
0.00588202
0.00579394
0.00594855
0.0061195
0.00627011
0.00636371
0.00636373
0.00627016
0.00611957
0.00594861
0.00579399
0.00577341
0.00579394
0.00588196
0.00597266
0.00602994
0.00602996
0.0059727
0.00588201
0.00579399
0.00577346
0.00577368
0.00578967
0.00587278
0.00595938
0.0060144
0.00601443
0.00595945
0.00587289
0.00578978
0.00577378
0.00578967
0.00593537
0.00609672
0.0062399
0.00632979
0.00632983
0.00624
0.00609685
0.0059355
0.00578978
0.00587278
0.00609671
0.00634412
0.00658203
0.00674838
0.00674845
0.00658218
0.00634428
0.00609685
0.00587289
0.00595935
0.00623985
0.00658198
0.00698429
0.00736445
0.00736462
0.00698454
0.0065822
0.00624002
0.00595946
0.00601434
0.00632969
0.00674824
0.00736425
0.00839736
0.0083981
0.00736469
0.0067485
0.00632987
0.00601446
0.00601432
0.00632967
0.00674821
0.00736418
0.00839703
0.00839777
0.00736462
0.00674847
0.00632985
0.00601444
0.00595931
0.00623981
0.00658192
0.00698418
0.00736426
0.00736442
0.00698443
0.00658213
0.00623997
0.00595943
0.00587273
0.00609666
0.00634405
0.00658194
0.00674827
0.00674833
0.00658209
0.00634421
0.0060968
0.00587285
0.00578962
0.00593532
0.00609666
0.00623983
0.00632971
0.00632975
0.00623993
0.00609679
0.00593544
0.00578973
0.00577364
0.00578962
0.00587274
0.00595933
0.00601435
0.00601438
0.0059594
0.00587284
0.00578973
0.00577374
0.00576587
0.00577916
0.00585986
0.00594454
0.00599852
0.00599857
0.00594467
0.00586003
0.00577935
0.00576604
0.00577916
0.00592058
0.00607786
0.00621781
0.00630598
0.00630605
0.00621798
0.00607808
0.0059208
0.00577935
0.00585984
0.00607784
0.00631897
0.00655178
0.00671558
0.0067157
0.00655203
0.00631925
0.00607809
0.00586004
0.00594449
0.00621774
0.0065517
0.00694709
0.00732475
0.00732503
0.00694752
0.00655206
0.00621801
0.00594469
0.0059984
0.00630581
0.00671534
0.00732441
0.00836957
0.00837088
0.00732516
0.00671579
0.00630611
0.00599861
0.00599838
0.00630578
0.00671529
0.00732428
0.00836897
0.00837028
0.00732503
0.00671574
0.00630608
0.00599859
0.00594443
0.00621766
0.00655159
0.00694689
0.00732441
0.00732469
0.00694732
0.00655195
0.00621794
0.00594463
0.00585977
0.00607775
0.00631885
0.00655162
0.00671538
0.0067155
0.00655187
0.00631912
0.00607799
0.00585996
0.00577908
0.00592049
0.00607775
0.00621769
0.00630584
0.00630591
0.00621786
0.00607797
0.0059207
0.00577926
0.0057658
0.00577908
0.00585977
0.00594445
0.00599843
0.00599847
0.00594458
0.00585995
0.00577926
0.00576597
0.00576607
0.00577844
0.00585821
0.00594214
0.00599571
0.00599579
0.00594234
0.00585848
0.00577873
0.00576633
0.00577844
0.00591817
0.00607369
0.00621226
0.0062997
0.00629981
0.00621253
0.00607403
0.00591851
0.00577873
0.00585819
0.00607365
0.006312
0.00654255
0.0067052
0.00670538
0.00654295
0.00631244
0.00607405
0.00585849
0.00594205
0.00621213
0.00654242
0.00693454
0.00731058
0.00731103
0.00693523
0.00654299
0.00621257
0.00594237
0.00599553
0.00629942
0.0067048
0.00731003
0.0083551
0.00835721
0.00731123
0.00670552
0.00629991
0.00599586
0.00599549
0.00629937
0.00670472
0.00730982
0.00835411
0.00835621
0.00731101
0.00670543
0.00629986
0.00599582
0.00594195
0.006212
0.00654223
0.00693422
0.00731002
0.00731046
0.0069349
0.0065428
0.00621244
0.00594227
0.00585806
0.00607349
0.0063118
0.00654228
0.00670486
0.00670504
0.00654267
0.00631223
0.00607388
0.00585836
0.0057783
0.00591801
0.00607351
0.00621205
0.00629948
0.00629958
0.00621231
0.00607384
0.00591835
0.00577858
0.00576594
0.0057783
0.00585807
0.00594199
0.00599556
0.00599563
0.00594218
0.00585833
0.00577859
0.0057662
0.00576404
0.00577575
0.00585497
0.00593849
0.00599187
0.00599198
0.00593879
0.00585538
0.00577618
0.00576442
0.00577576
0.0059145
0.00606916
0.00620708
0.0062942
0.00629436
0.00620749
0.00606967
0.00591501
0.00577618
0.00585494
0.00606911
0.00630617
0.00653568
0.0066978
0.00669807
0.00653628
0.00630683
0.00606969
0.00585539
0.00593836
0.00620688
0.00653548
0.00692602
0.00730114
0.00730183
0.00692706
0.00653635
0.00620755
0.00593884
0.00599158
0.00629378
0.00669719
0.0073003
0.00834396
0.00834718
0.00730211
0.00669827
0.0062945
0.00599207
0.00599153
0.0062937
0.00669707
0.00729998
0.00834242
0.00834559
0.00730177
0.00669813
0.00629442
0.00599201
0.00593822
0.0062067
0.00653519
0.00692553
0.00730027
0.00730093
0.00692654
0.00653604
0.00620734
0.00593867
0.00585475
0.00606887
0.00630586
0.00653526
0.00669727
0.00669753
0.00653584
0.00630649
0.00606942
0.00585517
0.00577555
0.00591426
0.00606889
0.00620676
0.00629385
0.006294
0.00620714
0.00606936
0.00591474
0.00577594
0.00576386
0.00577555
0.00585476
0.00593826
0.00599162
0.00599173
0.00593854
0.00585513
0.00577595
0.0057642
0.00576408
0.00577556
0.00585457
0.00593793
0.00599124
0.00599139
0.00593834
0.00585512
0.00577616
0.0057646
0.00577557
0.00591389
0.00606814
0.00620577
0.00629277
0.006293
0.00620634
0.00606886
0.0059146
0.00577615
0.00585451
0.00606806
0.00630448
0.0065335
0.00669544
0.00669583
0.00653436
0.00630541
0.00606888
0.00585514
0.00593773
0.00620548
0.00653321
0.00692301
0.00729784
0.00729882
0.0069245
0.00653445
0.00620642
0.0059384
0.00599083
0.00629216
0.00669456
0.00729663
0.00833953
0.00834413
0.00729921
0.0066961
0.00629318
0.00599151
0.00599077
0.00629206
0.00669439
0.00729616
0.00833727
0.00834177
0.00729869
0.00669589
0.00629305
0.00599142
0.00593756
0.00620523
0.00653282
0.00692231
0.00729655
0.00729749
0.00692371
0.00653398
0.0062061
0.00593815
0.00585428
0.00606775
0.00630405
0.00653291
0.00669467
0.00669502
0.00653369
0.00630489
0.00606847
0.00585481
0.00577532
0.00591359
0.00606777
0.00620532
0.00629225
0.00629245
0.00620582
0.00606839
0.00591419
0.0057758
0.00576387
0.00577531
0.00585429
0.00593761
0.00599088
0.00599102
0.00593796
0.00585476
0.00577581
0.00576428
0.00576352
0.00577483
0.00585371
0.00593698
0.00599028
0.00599048
0.00593752
0.00585442
0.00577559
0.00576417
0.00577484
0.0059129
0.00606694
0.00620444
0.00629142
0.00629172
0.00620519
0.00606788
0.00591382
0.00577558
0.00585363
0.00606683
0.00630293
0.00653173
0.00669364
0.00669416
0.00653288
0.00630417
0.00606791
0.00585444
0.00593673
0.00620405
0.00653134
0.00692076
0.00729552
0.00729685
0.00692277
0.006533
0.00620529
0.00593758
0.00598976
0.00629061
0.00669246
0.00729388
0.00833624
0.00834246
0.00729735
0.0066945
0.00629195
0.00599062
0.00598968
0.0062905
0.00669224
0.00729327
0.00833315
0.00833915
0.00729662
0.00669421
0.00629177
0.0059905
0.00593654
0.00620376
0.00653085
0.00691984
0.00729377
0.00729499
0.00692166
0.00653234
0.00620485
0.00593725
0.00585338
0.00606648
0.00630241
0.00653097
0.0066926
0.00669305
0.00653195
0.00630345
0.00606735
0.00585399
0.00577459
0.00591257
0.0060665
0.00620387
0.00629074
0.00629098
0.00620448
0.00606724
0.00591326
0.00577511
0.00576333
0.00577458
0.00585339
0.0059366
0.00598983
0.00598999
0.00593702
0.00585393
0.00577513
0.00576376
0.0057635
0.00577474
0.00585356
0.00593682
0.00599013
0.00599037
0.00593746
0.00585441
0.00577562
0.00576423
0.00577476
0.0059127
0.00606663
0.00620408
0.00629108
0.00629145
0.006205
0.00606777
0.00591379
0.00577561
0.00585348
0.0060665
0.00630242
0.00653113
0.00669308
0.00669374
0.00653257
0.00630395
0.0060678
0.00585443
0.00593652
0.00620361
0.00653064
0.00691988
0.00729471
0.00729641
0.00692241
0.00653271
0.00620512
0.00593753
0.00598952
0.0062901
0.00669162
0.00729265
0.00833476
0.00834264
0.00729701
0.00669415
0.00629172
0.00599053
0.00598945
0.00628998
0.00669137
0.0072919
0.00833086
0.00833834
0.00729605
0.00669376
0.00629149
0.00599038
0.00593635
0.00620332
0.00653011
0.00691879
0.00729253
0.00729401
0.00692097
0.00653185
0.00620455
0.00593713
0.00585327
0.00606616
0.00630187
0.00653025
0.00669181
0.00669233
0.00653138
0.00630304
0.0060671
0.00585389
0.00577457
0.0059124
0.00606619
0.00620345
0.00629027
0.00629054
0.00620412
0.00606698
0.00591311
0.00577505
0.00576339
0.00577456
0.00585329
0.00593643
0.00598963
0.0059898
0.00593686
0.00585383
0.00577508
0.00576376
0.00576334
0.00577451
0.0058533
0.00593654
0.00598986
0.00599013
0.00593724
0.00585422
0.00577544
0.00576406
0.00577455
0.0059124
0.00606627
0.0062037
0.00629073
0.00629114
0.00620474
0.00606754
0.00591358
0.00577542
0.00585323
0.00606614
0.00630196
0.00653062
0.00669263
0.00669339
0.00653229
0.0063037
0.00606757
0.00585423
0.00593624
0.00620319
0.00653007
0.00691919
0.00729412
0.00729613
0.00692216
0.00653244
0.00620487
0.00593732
0.00598923
0.00628965
0.00669095
0.00729171
0.00833363
0.00834296
0.00729683
0.00669386
0.00629144
0.0059903
0.00598918
0.00628954
0.00669071
0.00729089
0.0083291
0.0083378
0.00729567
0.0066934
0.00629118
0.00599013
0.00593613
0.00620295
0.00652955
0.00691802
0.00729163
0.0072933
0.00692044
0.00653144
0.00620422
0.00593686
0.00585311
0.00606588
0.00630146
0.00652972
0.00669122
0.00669178
0.00653091
0.00630265
0.00606678
0.00585363
0.00577448
0.00591221
0.00606592
0.0062031
0.00628988
0.00629015
0.00620375
0.00606666
0.00591284
0.00577483
0.00576336
0.00577446
0.00585313
0.00593622
0.00598938
0.00598954
0.00593661
0.0058536
0.00577488
0.00576358
0.00576335
0.00577449
0.00585324
0.00593646
0.00598978
0.00599005
0.00593717
0.00585413
0.00577535
0.00576397
0.00577455
0.00591234
0.00606617
0.00620357
0.0062906
0.00629104
0.00620464
0.00606744
0.00591348
0.00577533
0.00585322
0.00606605
0.0063018
0.00653043
0.00669245
0.00669328
0.0065322
0.0063036
0.00606747
0.00585414
0.00593622
0.00620308
0.00652985
0.0069189
0.00729388
0.00729608
0.00692212
0.00653236
0.00620478
0.00593723
0.00598921
0.00628953
0.00669071
0.00729129
0.00833308
0.00834333
0.00729684
0.00669378
0.00629134
0.00599021
0.0059892
0.00628947
0.0066905
0.00729048
0.00832826
0.00833766
0.00729556
0.00669327
0.00629106
0.00599003
0.00593619
0.00620293
0.00652942
0.00691777
0.00729129
0.00729302
0.00692024
0.00653127
0.00620409
0.00593676
0.00585322
0.00606592
0.00630143
0.00652961
0.00669105
0.00669159
0.00653073
0.00630249
0.00606666
0.00585354
0.00577462
0.00591232
0.00606597
0.00620309
0.00628982
0.00629005
0.00620364
0.00606655
0.00591274
0.00577475
0.00576353
0.0057746
0.00585323
0.00593628
0.0059894
0.00598951
0.00593656
0.00585354
0.00577482
0.00576353
0.00576336
0.00577446
0.00585318
0.00593637
0.00598966
0.00598991
0.00593701
0.00585396
0.00577516
0.00576379
0.00577455
0.00591231
0.00606609
0.00620344
0.00629045
0.00629087
0.00620446
0.00606724
0.00591328
0.00577514
0.00585321
0.006066
0.0063017
0.00653027
0.00669227
0.00669309
0.006532
0.00630339
0.00606726
0.00585395
0.00593622
0.00620303
0.00652975
0.00691873
0.00729366
0.00729588
0.00692192
0.00653215
0.00620457
0.00593705
0.00598924
0.00628952
0.00669063
0.00729112
0.00833279
0.00834314
0.00729664
0.00669357
0.00629114
0.00599003
0.00598926
0.0062895
0.00669048
0.00729041
0.00832814
0.00833745
0.00729534
0.00669306
0.00629086
0.00598986
0.00593628
0.00620301
0.00652947
0.00691777
0.00729122
0.00729286
0.00692004
0.00653107
0.0062039
0.0059366
0.00585334
0.00606604
0.00630151
0.00652964
0.00669102
0.00669148
0.00653058
0.00630232
0.00606649
0.00585339
0.00577476
0.00591245
0.00606607
0.00620315
0.00628982
0.00628999
0.00620353
0.00606642
0.0059126
0.00577462
0.00576367
0.00577474
0.00585334
0.00593635
0.00598942
0.00598948
0.00593649
0.00585344
0.0057747
0.00576342
0.00576342
0.00577452
0.00585321
0.00593636
0.0059896
0.0059898
0.00593687
0.0058538
0.00577501
0.00576366
0.00577461
0.00591236
0.00606611
0.00620341
0.00629035
0.00629072
0.00620427
0.00606704
0.00591308
0.00577498
0.00585328
0.00606606
0.00630172
0.00653024
0.00669215
0.00669288
0.00653176
0.00630316
0.00606705
0.00585377
0.00593631
0.00620312
0.00652981
0.00691873
0.00729351
0.00729555
0.0069216
0.00653188
0.00620435
0.00593687
0.00598936
0.00628965
0.00669077
0.00729127
0.00833284
0.00834235
0.00729624
0.00669329
0.00629092
0.00598987
0.00598941
0.00628968
0.00669069
0.00729072
0.00832883
0.00833718
0.00729504
0.00669282
0.00629067
0.00598972
0.00593646
0.00620321
0.0065297
0.00691804
0.00729146
0.00729285
0.00691988
0.00653089
0.00620374
0.00593648
0.00585352
0.00606624
0.00630173
0.00652985
0.00669116
0.0066915
0.0065305
0.0063022
0.00606637
0.0058533
0.00577492
0.00591264
0.00606626
0.00620332
0.00628993
0.00629002
0.00620349
0.00606634
0.00591251
0.00577455
0.00576381
0.00577489
0.0058535
0.00593648
0.0059895
0.00598951
0.00593646
0.00585339
0.00577464
0.00576337
0.00576346
0.00577457
0.00585324
0.00593635
0.00598954
0.00598969
0.00593671
0.00585364
0.00577485
0.00576354
0.00577465
0.00591241
0.00606614
0.0062034
0.00629026
0.00629054
0.00620404
0.00606681
0.00591288
0.00577483
0.00585335
0.00606614
0.00630179
0.00653023
0.00669201
0.0066926
0.00653144
0.00630286
0.00606681
0.0058536
0.0059364
0.00620324
0.00652994
0.00691881
0.00729337
0.00729505
0.00692113
0.00653152
0.00620408
0.00593669
0.00598947
0.00628982
0.00669101
0.00729162
0.00833314
0.00834096
0.00729561
0.00669292
0.00629067
0.0059897
0.00598954
0.00628988
0.00669101
0.00729128
0.00833012
0.00833677
0.00729461
0.00669253
0.00629046
0.00598958
0.00593659
0.00620342
0.00652999
0.00691844
0.00729188
0.0072929
0.00691972
0.00653072
0.0062036
0.00593639
0.00585363
0.00606642
0.00630195
0.0065301
0.00669136
0.00669156
0.00653044
0.0063021
0.00606628
0.00585325
0.00577501
0.00591277
0.00606642
0.00620347
0.00629004
0.00629006
0.00620347
0.00606628
0.00591246
0.00577452
0.00576386
0.00577498
0.0058536
0.00593657
0.00598957
0.00598953
0.00593645
0.00585335
0.0057746
0.00576336
0.00576349
0.00577462
0.00585329
0.00593637
0.0059895
0.0059896
0.00593658
0.0058535
0.00577474
0.00576346
0.00577468
0.00591247
0.0060662
0.00620341
0.00629018
0.00629037
0.00620383
0.0060666
0.00591271
0.00577472
0.00585339
0.00606622
0.00630188
0.00653027
0.00669189
0.00669231
0.00653109
0.00630257
0.00606659
0.00585347
0.00593647
0.00620337
0.00653011
0.00691896
0.00729324
0.00729445
0.00692059
0.00653115
0.00620384
0.00593656
0.00598957
0.00629
0.0066913
0.00729209
0.0083336
0.00833919
0.00729486
0.00669253
0.00629045
0.00598959
0.00598964
0.00629008
0.00669136
0.00729197
0.00833178
0.00833633
0.00729415
0.00669225
0.00629031
0.00598951
0.00593667
0.0062036
0.00653029
0.00691889
0.0072924
0.00729303
0.00691961
0.0065306
0.00620353
0.00593638
0.00585368
0.00606655
0.00630216
0.00653035
0.00669159
0.00669167
0.00653044
0.00630208
0.00606627
0.00585328
0.00577502
0.00591285
0.00606654
0.00620361
0.00629016
0.00629013
0.00620349
0.0060663
0.00591249
0.00577459
0.00576383
0.005775
0.00585365
0.00593664
0.00598963
0.00598957
0.00593647
0.00585338
0.00577464
0.00576343
0.00576349
0.00577465
0.00585332
0.00593638
0.00598946
0.0059895
0.00593646
0.00585338
0.00577464
0.0057634
0.00577469
0.0059125
0.00606624
0.00620341
0.0062901
0.0062902
0.00620361
0.0060664
0.00591256
0.00577463
0.0058534
0.00606627
0.00630195
0.00653029
0.00669177
0.00669201
0.00653075
0.00630229
0.0060664
0.00585337
0.00593649
0.00620345
0.00653026
0.0069191
0.0072931
0.00729381
0.00692003
0.00653079
0.00620364
0.00593646
0.0059896
0.00629013
0.00669156
0.00729256
0.00833406
0.00833731
0.0072941
0.00669217
0.00629027
0.00598952
0.00598968
0.00629022
0.00669167
0.00729264
0.00833351
0.00833597
0.00729375
0.00669204
0.00629022
0.00598951
0.00593669
0.0062037
0.00653053
0.00691931
0.00729293
0.00729321
0.00691957
0.00653055
0.00620353
0.00593644
0.00585367
0.0060666
0.0063023
0.00653057
0.00669182
0.00669182
0.0065305
0.00630212
0.00606634
0.00585338
0.00577498
0.00591285
0.0060666
0.00620371
0.00629027
0.00629022
0.00620357
0.00606637
0.00591258
0.00577471
0.00576376
0.00577497
0.00585365
0.00593667
0.00598968
0.00598963
0.00593653
0.00585345
0.00577474
0.00576354
0.0057635
0.00577468
0.00585335
0.00593639
0.00598943
0.00598941
0.00593634
0.00585326
0.00577454
0.00576334
0.00577469
0.00591253
0.00606627
0.00620341
0.00629003
0.00629004
0.00620341
0.00606622
0.00591242
0.00577454
0.0058534
0.00606631
0.006302
0.00653031
0.00669164
0.00669171
0.00653042
0.00630203
0.00606624
0.00585327
0.0059365
0.00620352
0.00653037
0.00691922
0.00729294
0.00729319
0.0069195
0.00653047
0.00620346
0.00593638
0.00598962
0.00629021
0.00669176
0.00729296
0.0083344
0.00833552
0.00729343
0.00669187
0.00629014
0.00598948
0.00598968
0.00629031
0.00669191
0.00729322
0.00833511
0.0083358
0.00729346
0.0066919
0.00629018
0.00598953
0.00593668
0.00620376
0.00653071
0.00691967
0.00729344
0.00729345
0.00691961
0.00653058
0.00620359
0.00593652
0.00585363
0.00606662
0.00630239
0.00653075
0.00669204
0.00669199
0.00653062
0.00630222
0.00606645
0.0058535
0.00577493
0.00591284
0.00606663
0.00620379
0.00629038
0.00629034
0.00620368
0.00606648
0.0059127
0.00577484
0.0057637
0.00577493
0.00585364
0.00593669
0.00598973
0.00598969
0.00593661
0.00585354
0.00577484
0.00576366
0.00576355
0.00577473
0.00585339
0.0059364
0.00598939
0.00598933
0.00593623
0.00585314
0.00577444
0.00576327
0.00577472
0.00591258
0.00606631
0.00620341
0.00628995
0.00628988
0.00620322
0.00606604
0.00591228
0.00577445
0.00585343
0.00606636
0.00630206
0.00653032
0.00669151
0.00669143
0.00653011
0.00630178
0.00606607
0.00585317
0.00593652
0.00620358
0.00653047
0.0069193
0.00729276
0.0072926
0.00691902
0.00653017
0.0062033
0.00593629
0.00598964
0.00629028
0.00669193
0.00729326
0.00833457
0.00833393
0.00729284
0.00669161
0.00629002
0.00598944
0.0059897
0.00629038
0.0066921
0.0072937
0.00833652
0.0083358
0.00729326
0.0066918
0.00629015
0.00598954
0.00593668
0.00620382
0.00653086
0.00691998
0.0072939
0.00729373
0.0069197
0.00653062
0.00620364
0.00593657
0.00585363
0.00606666
0.00630248
0.00653091
0.00669225
0.00669218
0.00653075
0.00630231
0.00606653
0.00585357
0.00577492
0.00591285
0.00606667
0.00620387
0.00629049
0.00629045
0.00620378
0.00606657
0.00591278
0.0057749
0.00576369
0.00577493
0.00585366
0.00593673
0.00598978
0.00598975
0.00593667
0.0058536
0.00577489
0.0057637
0.00576363
0.00577481
0.00585346
0.00593644
0.00598938
0.00598927
0.00593613
0.00585304
0.00577435
0.0057632
0.0057748
0.00591266
0.00606637
0.00620344
0.0062899
0.00628975
0.00620305
0.00606588
0.00591215
0.00577435
0.0058535
0.00606644
0.00630214
0.00653035
0.0066914
0.00669118
0.00652983
0.00630155
0.0060659
0.00585306
0.00593659
0.00620367
0.00653058
0.00691938
0.00729259
0.00729208
0.00691858
0.0065299
0.00620312
0.00593618
0.0059897
0.00629039
0.0066921
0.00729354
0.00833466
0.00833252
0.00729232
0.00669136
0.00628988
0.00598935
0.00598976
0.00629049
0.0066923
0.00729414
0.00833777
0.00833586
0.00729307
0.00669168
0.00629008
0.0059895
0.00593674
0.00620392
0.00653103
0.00692028
0.00729434
0.00729398
0.00691975
0.00653061
0.00620362
0.00593655
0.00585369
0.00606674
0.0063026
0.00653108
0.00669245
0.00669233
0.00653082
0.00630234
0.00606653
0.00585356
0.00577497
0.00591292
0.00606675
0.00620397
0.00629059
0.00629053
0.00620382
0.00606658
0.00591277
0.00577487
0.00576373
0.00577497
0.0058537
0.00593678
0.00598982
0.00598978
0.00593668
0.00585358
0.00577485
0.00576364
0.00576372
0.00577491
0.00585355
0.00593649
0.00598939
0.00598923
0.00593607
0.00585297
0.00577428
0.00576315
0.00577489
0.00591276
0.00606647
0.00620349
0.00628988
0.00628966
0.00620292
0.00606575
0.00591203
0.00577426
0.0058536
0.00606655
0.00630224
0.0065304
0.00669133
0.00669097
0.00652959
0.00630135
0.00606575
0.00585295
0.00593669
0.00620379
0.00653072
0.00691948
0.00729247
0.00729162
0.00691819
0.00652963
0.00620294
0.00593606
0.00598981
0.00629053
0.00669231
0.00729384
0.00833483
0.00833122
0.0072918
0.00669109
0.00628971
0.00598924
0.00598987
0.00629065
0.00669255
0.0072946
0.00833898
0.00833577
0.00729282
0.00669149
0.00628994
0.00598939
0.00593685
0.00620407
0.00653125
0.0069206
0.00729475
0.00729414
0.00691971
0.00653052
0.00620352
0.00593646
0.00585379
0.00606687
0.00630277
0.00653127
0.00669263
0.00669242
0.00653082
0.00630228
0.00606644
0.00585347
0.00577507
0.00591303
0.00606687
0.00620408
0.00629067
0.00629056
0.00620379
0.00606651
0.00591267
0.00577477
0.00576381
0.00577506
0.00585378
0.00593684
0.00598986
0.00598978
0.00593663
0.00585349
0.00577474
0.00576353
0.00576375
0.00577496
0.00585361
0.00593654
0.00598941
0.00598922
0.00593603
0.00585292
0.00577424
0.00576313
0.00577494
0.00591283
0.00606654
0.00620354
0.00628988
0.00628959
0.00620282
0.00606565
0.00591195
0.00577421
0.00585367
0.00606665
0.00630234
0.00653047
0.0066913
0.00669082
0.00652939
0.00630118
0.00606562
0.00585287
0.00593678
0.00620392
0.00653088
0.00691963
0.00729242
0.00729124
0.00691783
0.00652938
0.00620277
0.00593595
0.00598992
0.0062907
0.00669255
0.0072942
0.00833518
0.00833
0.00729127
0.00669079
0.00628952
0.00598912
0.00599
0.00629084
0.00669284
0.00729513
0.0083402
0.00833543
0.00729245
0.00669125
0.00628977
0.00598927
0.00593699
0.00620426
0.00653151
0.00692095
0.00729513
0.0072942
0.00691957
0.00653035
0.00620337
0.00593635
0.00585392
0.00606704
0.00630297
0.00653148
0.00669279
0.00669245
0.00653074
0.00630215
0.00606631
0.00585336
0.00577518
0.00591316
0.00606701
0.0062042
0.00629075
0.00629056
0.00620372
0.0060664
0.00591255
0.00577467
0.0057639
0.00577516
0.00585387
0.00593691
0.00598988
0.00598975
0.00593655
0.00585339
0.00577463
0.00576343
0.00576369
0.00577493
0.00585359
0.00593653
0.0059894
0.00598919
0.005936
0.00585289
0.00577422
0.00576313
0.0057749
0.00591283
0.00606655
0.00620354
0.00628985
0.00628954
0.00620275
0.00606558
0.0059119
0.0057742
0.00585366
0.00606668
0.00630239
0.0065305
0.00669126
0.00669069
0.00652924
0.00630105
0.00606553
0.00585283
0.00593681
0.006204
0.00653101
0.00691975
0.00729239
0.00729092
0.00691753
0.00652917
0.00620265
0.00593589
0.00599
0.00629085
0.00669278
0.00729458
0.00833564
0.00832885
0.00729076
0.00669052
0.00628937
0.00598903
0.00599011
0.00629103
0.00669315
0.00729568
0.00834141
0.00833491
0.00729204
0.00669099
0.00628961
0.00598919
0.00593711
0.00620445
0.00653178
0.00692132
0.00729548
0.00729418
0.00691938
0.00653017
0.00620324
0.00593627
0.00585403
0.0060672
0.00630317
0.0065317
0.00669294
0.00669246
0.00653064
0.00630203
0.00606621
0.0058533
0.00577527
0.00591329
0.00606716
0.00620433
0.00629082
0.00629056
0.00620366
0.00606632
0.00591248
0.00577463
0.00576397
0.00577526
0.00585397
0.00593699
0.00598992
0.00598974
0.00593651
0.00585333
0.00577458
0.00576341
0.00576355
0.00577481
0.00585349
0.00593645
0.00598933
0.00598914
0.00593596
0.00585287
0.00577422
0.00576316
0.00577477
0.00591272
0.00606646
0.00620347
0.00628978
0.00628946
0.00620268
0.00606553
0.00591189
0.00577422
0.00585356
0.00606661
0.00630235
0.00653046
0.00669118
0.00669056
0.00652912
0.00630096
0.0060655
0.00585284
0.00593676
0.00620399
0.00653104
0.0069198
0.00729233
0.00729064
0.00691729
0.00652903
0.00620258
0.00593588
0.00599
0.00629091
0.00669294
0.00729488
0.00833603
0.00832787
0.00729034
0.00669033
0.00628928
0.00598901
0.00599016
0.00629115
0.00669339
0.00729616
0.00834251
0.00833441
0.00729169
0.00669081
0.00628953
0.00598917
0.00593717
0.00620459
0.00653202
0.00692166
0.00729582
0.00729418
0.00691924
0.00653006
0.00620319
0.00593628
0.0058541
0.00606733
0.00630335
0.00653191
0.0066931
0.0066925
0.0065306
0.00630198
0.0060662
0.00585333
0.00577534
0.0059134
0.00606729
0.00620447
0.00629092
0.00629059
0.00620366
0.00606631
0.00591249
0.00577468
0.00576402
0.00577534
0.00585407
0.00593708
0.00598999
0.00598978
0.00593653
0.00585335
0.00577462
0.00576348
0.00576338
0.00577464
0.00585334
0.00593632
0.00598923
0.00598908
0.00593594
0.00585288
0.00577426
0.00576322
0.0057746
0.00591254
0.0060663
0.00620332
0.00628966
0.00628938
0.00620264
0.00606553
0.00591192
0.00577428
0.0058534
0.00606645
0.0063022
0.00653032
0.00669104
0.00669044
0.00652904
0.00630095
0.00606553
0.0058529
0.00593664
0.00620389
0.00653095
0.00691972
0.00729218
0.00729041
0.00691715
0.00652898
0.0062026
0.00593594
0.00598993
0.00629087
0.00669295
0.00729498
0.00833609
0.0083272
0.00729012
0.00669026
0.00628929
0.00598907
0.00599013
0.00629117
0.0066935
0.00729646
0.0083433
0.00833424
0.00729154
0.00669077
0.00628956
0.00598923
0.00593717
0.00620464
0.00653215
0.0069219
0.0072961
0.00729426
0.00691922
0.00653007
0.00620324
0.00593636