/*--------------------------------*- C++ -*----------------------------------*\
| =========                 |                                                 |
| \\      /  F ield         | OpenFOAM: The Open Source CFD Toolbox           |
|  \\    /   O peration     | Version:  2406                                  |
|   \\  /    A nd           | Website:  www.openfoam.com                      |
|    \\/     M anipulation  |                                                 |
\*---------------------------------------------------------------------------*/
FoamFile
{
    version     2.0;
    format      ascii;
    arch        "LSB;label=32;scalar=64";
    class       volSymmTensorField;
    location    "1.3";
    object      turbulenceProperties:R;
}
// * * * * * * * * * * * * * * * * * * * * * * * * * * * * * * * * * * * * * //

dimensions      [0 2 -2 0 0 0 0];

internalField   uniform (0 -0 -0 0 -0 0);

boundaryField
{
    walls
    {
        type            calculated;
        value           nonuniform List<symmTensor> 
2000
(
(-8.57814e-08 7.13915e-08 2.96519e-07 -5.45553e-08 -2.50416e-07 1.40337e-07)
(-1.48118e-07 9.04417e-08 4.6866e-07 -5.04315e-08 -2.88973e-07 1.9855e-07)
(-2.2472e-07 9.40331e-08 6.72753e-07 -3.32466e-08 -2.81247e-07 2.57967e-07)
(-2.95107e-07 7.27075e-08 8.52688e-07 -1.06402e-08 -2.06803e-07 3.05748e-07)
(-3.38005e-07 2.73264e-08 9.58424e-07 5.72807e-09 -7.62257e-08 3.32277e-07)
(-3.38005e-07 -2.73268e-08 9.58424e-07 5.72801e-09 7.62257e-08 3.32277e-07)
(-2.95107e-07 -7.27078e-08 8.52688e-07 -1.06403e-08 2.06803e-07 3.05748e-07)
(-2.2472e-07 -9.40332e-08 6.72753e-07 -3.32468e-08 2.81247e-07 2.57967e-07)
(-1.48118e-07 -9.04418e-08 4.6866e-07 -5.04316e-08 2.88973e-07 1.9855e-07)
(-8.57813e-08 -7.13915e-08 2.96519e-07 -5.45553e-08 2.50416e-07 1.40337e-07)
(-2.65049e-09 1.14307e-09 1.27211e-07 -1.9361e-10 -1.07007e-07 2.8441e-09)
(-4.96871e-09 8.57971e-10 1.94468e-07 2.50497e-10 -1.19433e-07 4.71821e-09)
(-6.6382e-09 9.81807e-10 2.7804e-07 -3.4746e-10 -1.15975e-07 6.98566e-09)
(-8.43996e-09 7.36269e-10 3.54164e-07 -5.23248e-10 -8.5765e-08 8.96321e-09)
(-9.51406e-09 3.15222e-10 3.9976e-07 -6.40808e-10 -3.1757e-08 1.01549e-08)
(-9.51393e-09 -3.16014e-10 3.9976e-07 -6.40938e-10 3.17571e-08 1.01549e-08)
(-8.43964e-09 -7.36906e-10 3.54164e-07 -5.23584e-10 8.57649e-08 8.96322e-09)
(-6.6378e-09 -9.822e-10 2.78039e-07 -3.4787e-10 1.15974e-07 6.98567e-09)
(-4.96835e-09 -8.58151e-10 1.94468e-07 2.50124e-10 1.19432e-07 4.71823e-09)
(-2.65027e-09 -1.1431e-09 1.2721e-07 -1.93841e-10 1.07006e-07 2.84411e-09)
(-2.81574e-10 -9.73237e-12 4.46172e-08 -1.31626e-10 -3.74032e-08 4.132e-10)
(-3.7198e-10 -6.89568e-11 6.64983e-08 -2.67716e-10 -4.0703e-08 6.39696e-10)
(-3.80629e-10 -1.55934e-11 9.44561e-08 -5.35456e-10 -3.93224e-08 9.16085e-10)
(-4.6918e-10 3.00381e-11 1.2077e-07 -6.88615e-10 -2.922e-08 1.1578e-09)
(-5.50567e-10 2.54894e-11 1.36783e-07 -7.51398e-10 -1.08595e-08 1.30197e-09)
(-5.5043e-10 -2.63677e-11 1.36783e-07 -7.5154e-10 1.08596e-08 1.30197e-09)
(-4.68826e-10 -3.07452e-11 1.20769e-07 -6.88985e-10 2.92198e-08 1.15781e-09)
(-3.802e-10 1.51566e-11 9.4455e-08 -5.35905e-10 3.9322e-08 9.16105e-10)
(-3.71591e-10 6.87546e-11 6.64972e-08 -2.68127e-10 4.07024e-08 6.39717e-10)
(-2.81328e-10 9.69394e-12 4.46163e-08 -1.3189e-10 3.74024e-08 4.13218e-10)
(-8.27187e-11 6.37733e-11 5.83197e-08 5.41327e-11 -4.89439e-08 2.8586e-11)
(-1.88576e-10 4.48132e-11 8.7566e-08 1.32422e-10 -5.36464e-08 5.61541e-11)
(-2.50262e-10 3.97692e-11 1.24425e-07 1.57175e-10 -5.18188e-08 9.30873e-11)
(-3.13602e-10 1.76176e-11 1.5867e-07 1.86088e-10 -3.8391e-08 1.27514e-10)
(-3.4384e-10 6.29082e-12 1.79374e-07 1.93548e-10 -1.42399e-08 1.50292e-10)
(-3.43515e-10 -8.37834e-12 1.79374e-07 1.93207e-10 1.42399e-08 1.50307e-10)
(-3.12758e-10 -1.93032e-11 1.58668e-07 1.85199e-10 3.83906e-08 1.27559e-10)
(-2.49235e-10 -4.08107e-11 1.24422e-07 1.5609e-10 5.18176e-08 9.31449e-11)
(-1.87648e-10 -4.52905e-11 8.75629e-08 1.31432e-10 5.36446e-08 5.62158e-11)
(-8.21326e-11 -6.38617e-11 5.83172e-08 5.34951e-11 4.89418e-08 2.86375e-11)
(-3.26597e-11 -1.08806e-11 4.54917e-08 -3.68028e-11 -3.81493e-08 6.94626e-11)
(-2.41869e-11 -1.20213e-11 6.79242e-08 -7.99867e-11 -4.15841e-08 1.04174e-10)
(-1.50027e-11 6.25882e-12 9.65501e-08 -1.2934e-10 -4.02002e-08 1.44343e-10)
(-2.77503e-11 1.74683e-11 1.23391e-07 -1.50855e-10 -2.98556e-08 1.78605e-10)
(-4.3483e-11 8.76719e-12 1.39712e-07 -1.54965e-10 -1.10926e-08 1.98449e-10)
(-4.29946e-11 -1.1918e-11 1.3971e-07 -1.55477e-10 1.10927e-08 1.98472e-10)
(-2.64816e-11 -2.00129e-11 1.23387e-07 -1.52191e-10 2.98548e-08 1.78672e-10)
(-1.34612e-11 -7.83288e-12 9.65445e-08 -1.30967e-10 4.0198e-08 1.44428e-10)
(-2.27895e-11 1.12945e-11 6.79186e-08 -8.14752e-11 4.15808e-08 1.04265e-10)
(-3.17671e-11 1.07398e-11 4.54869e-08 -3.77712e-11 3.81453e-08 6.95383e-11)
(-1.27927e-11 1.45028e-11 4.92752e-08 1.02504e-11 -4.13361e-08 2.5423e-12)
(-3.30782e-11 1.33289e-11 7.37667e-08 2.69888e-11 -4.51757e-08 6.08944e-12)
(-4.79888e-11 1.29017e-11 1.04907e-07 3.69657e-11 -4.3687e-08 1.10231e-11)
(-6.31667e-11 6.81429e-12 1.34022e-07 4.75553e-11 -3.24302e-08 1.56114e-11)
(-7.05554e-11 6.52123e-13 1.51697e-07 5.17966e-11 -1.20447e-08 1.87588e-11)
(-6.96855e-11 -6.25773e-12 1.51694e-07 5.08838e-11 1.20449e-08 1.88017e-11)
(-6.09033e-11 -1.13486e-11 1.34014e-07 4.51681e-11 3.24286e-08 1.57351e-11)
(-4.52329e-11 -1.57102e-11 1.04896e-07 3.40514e-11 4.36828e-08 1.11815e-11)
(-3.05789e-11 -1.46235e-11 7.37556e-08 2.43196e-11 4.51691e-08 6.25931e-12)
(-1.12001e-11 -1.47496e-11 4.92656e-08 8.51524e-12 4.13282e-08 2.68488e-12)
(-7.21257e-12 -2.85599e-12 4.61256e-08 -1.01419e-11 -3.8686e-08 1.73544e-11)
(-5.31795e-12 -3.14289e-12 6.89433e-08 -2.07675e-11 -4.22139e-08 2.60854e-11)
(-3.73788e-12 6.09394e-13 9.80504e-08 -3.25207e-11 -4.08292e-08 3.62586e-11)
(-7.0247e-12 2.32687e-12 1.25333e-07 -3.79759e-11 -3.0328e-08 4.50006e-11)
(-1.04935e-11 -1.31294e-12 1.41921e-07 -3.95964e-11 -1.12688e-08 5.00898e-11)
(-9.15699e-12 -7.31507e-12 1.41916e-07 -4.09994e-11 1.12691e-08 5.01564e-11)
(-3.54838e-12 -9.30568e-12 1.25319e-07 -4.16449e-11 3.03252e-08 4.51932e-11)
(4.91546e-13 -4.93237e-12 9.80312e-08 -3.69985e-11 4.08218e-08 3.6507e-11)
(-1.49015e-12 1.15102e-12 6.89238e-08 -2.48641e-11 4.22024e-08 2.63542e-11)
(-4.78941e-12 2.47629e-12 4.61088e-08 -1.27924e-11 3.86722e-08 1.75818e-11)
(-2.2263e-12 3.78568e-12 4.71504e-08 2.42537e-12 -3.9549e-08 -1.99073e-13)
(-8.22894e-12 3.15514e-12 7.05201e-08 7.8632e-12 -4.31829e-08 3.65734e-13)
(-1.30403e-11 1.57486e-12 1.00297e-07 1.17445e-11 -4.17662e-08 1.29588e-12)
(-1.68893e-11 -1.85229e-12 1.28182e-07 1.46094e-11 -3.10176e-08 2.27994e-12)
(-1.77556e-11 -5.20565e-12 1.45126e-07 1.47172e-11 -1.15231e-08 3.03848e-12)
(-1.57641e-11 -7.66689e-12 1.45117e-07 1.26197e-11 1.15235e-08 3.14437e-12)
(-1.17092e-11 -8.56002e-12 1.28157e-07 9.12249e-12 3.10126e-08 2.5867e-12)
(-6.74545e-12 -8.0171e-12 1.00264e-07 5.05057e-12 4.17532e-08 1.69488e-12)
(-2.55555e-12 -6.10972e-12 7.04861e-08 1.75625e-12 4.31628e-08 7.99294e-13)
(1.31588e-12 -4.33606e-12 4.71208e-08 -1.48654e-12 3.95246e-08 1.7066e-13)
(-1.1188e-12 -6.4786e-13 4.63664e-08 -2.74412e-12 -3.88892e-08 3.86291e-12)
(-1.60324e-12 -1.13425e-12 6.93146e-08 -4.30493e-12 -4.24423e-08 5.90817e-12)
(-2.38099e-12 -1.81194e-12 9.85754e-08 -5.96007e-12 -4.10482e-08 8.34105e-12)
(-3.36835e-12 -3.67462e-12 1.25992e-07 -7.15435e-12 -3.04872e-08 1.05227e-11)
(-3.13584e-12 -6.96374e-12 1.42654e-07 -8.73319e-12 -1.13266e-08 1.1869e-11)
(-5.77e-13 -9.62974e-12 1.42639e-07 -1.14394e-11 1.13271e-08 1.20164e-11)
(3.28599e-12 -9.74853e-12 1.25952e-07 -1.42341e-11 3.04791e-08 1.09481e-11)
(5.69637e-12 -6.4887e-12 9.85211e-08 -1.45914e-11 4.1027e-08 8.89502e-12)
(5.66453e-12 -2.67135e-12 6.92589e-08 -1.21737e-11 4.24093e-08 6.50918e-12)
(3.3717e-12 -5.63017e-14 4.63179e-08 -7.7472e-12 3.88491e-08 4.3755e-12)
(-2.19535e-13 1.02211e-12 4.66643e-08 9.22711e-13 -3.91399e-08 -7.03176e-13)
(-2.7919e-12 3.0352e-13 6.97672e-08 3.58016e-12 -4.272e-08 -7.88254e-13)
(-5.16299e-12 -1.88808e-12 9.92125e-08 5.93613e-12 -4.13135e-08 -7.73139e-13)
(-6.18517e-12 -5.19219e-12 1.26791e-07 6.80997e-12 -3.06804e-08 -6.24797e-13)
(-5.1288e-12 -8.4102e-12 1.43545e-07 5.5327e-12 -1.1397e-08 -4.03902e-13)
(-2.28971e-12 -1.00801e-11 1.43522e-07 2.51264e-12 1.13976e-08 -2.22928e-13)
(1.20946e-12 -9.79133e-12 1.2673e-07 -1.10505e-12 3.06678e-08 -1.04409e-13)
(3.82412e-12 -7.39279e-12 9.91295e-08 -3.72567e-12 4.1281e-08 -9.84427e-14)
(5.33236e-12 -4.58332e-12 6.96819e-08 -5.27106e-12 4.26694e-08 -6.12984e-14)
(4.78299e-12 -1.81603e-12 4.65899e-08 -4.69558e-12 3.90784e-08 -8.74105e-14)
(-6.82931e-13 -2.79024e-13 4.64867e-08 1.87702e-13 -3.89902e-08 4.95229e-13)
(-1.61095e-12 -1.08975e-12 6.9489e-08 7.7792e-13 -4.25488e-08 8.3303e-13)
(-2.51349e-12 -2.85579e-12 9.88086e-08 1.24029e-12 -4.11447e-08 1.2732e-12)
(-2.54314e-12 -5.31826e-12 1.2627e-07 7.98487e-13 -3.05537e-08 1.74465e-12)
(-1.23455e-12 -7.90355e-12 1.42948e-07 -8.87606e-13 -1.13492e-08 2.12216e-12)
(1.37307e-12 -9.19005e-12 1.42917e-07 -3.67903e-12 1.13499e-08 2.30597e-12)
(4.27748e-12 -8.59515e-12 1.26184e-07 -6.54883e-12 3.05361e-08 2.27135e-12)
(5.8213e-12 -5.81525e-12 9.86934e-08 -7.76861e-12 4.10995e-08 1.94731e-12)
(6.04982e-12 -2.98586e-12 6.93711e-08 -7.602e-12 4.24788e-08 1.55218e-12)
(4.09179e-12 -5.02323e-13 4.63841e-08 -5.18686e-12 3.89054e-08 1.09507e-12)
(-1.69087e-12 -8.02149e-14 4.65841e-08 2.13448e-12 -3.9072e-08 -4.43612e-13)
(-2.78986e-12 -1.14551e-12 6.96347e-08 3.38467e-12 -4.2638e-08 -5.94803e-13)
(-3.35096e-12 -2.90009e-12 9.90104e-08 4.07438e-12 -4.12285e-08 -7.23415e-13)
(-2.95987e-12 -4.8768e-12 1.26518e-07 3.72877e-12 -3.06135e-08 -7.68893e-13)
(-1.54368e-12 -6.24901e-12 1.4322e-07 2.24121e-12 -1.13704e-08 -6.97524e-13)
(3.75063e-13 -6.44983e-12 1.4318e-07 1.73208e-13 1.13712e-08 -5.48271e-13)
(2.11588e-12 -5.57678e-12 1.2641e-07 -1.77507e-12 3.05912e-08 -3.40815e-13)
(2.95138e-12 -3.72277e-12 9.88651e-08 -2.76333e-12 4.11714e-08 -1.88044e-13)
(3.24003e-12 -2.10352e-12 6.94868e-08 -3.20921e-12 4.25501e-08 -3.0821e-14)
(2.22099e-12 -5.89362e-13 4.64562e-08 -2.23396e-12 3.89663e-08 1.29775e-14)
(-3.51349e-12 -7.24877e-13 4.65435e-08 3.28879e-12 -3.90378e-08 2.24699e-13)
(-3.84075e-12 -2.16087e-12 6.95715e-08 3.5456e-12 -4.25991e-08 2.95148e-13)
(-3.08851e-12 -3.40839e-12 9.8919e-08 2.69461e-12 -4.11902e-08 3.93903e-13)
(-1.86685e-12 -4.22225e-12 1.26399e-07 1.39184e-12 -3.05845e-08 4.75007e-13)
(-3.99853e-13 -3.98756e-12 1.43082e-07 -1.80287e-13 -1.13591e-08 5.8014e-13)
(6.4397e-13 -3.02788e-12 1.43035e-07 -1.3052e-12 1.13601e-08 6.61228e-13)
(9.88856e-13 -1.74365e-12 1.26275e-07 -1.70118e-12 3.05588e-08 7.12328e-13)
(6.33493e-13 -5.56121e-13 9.87526e-08 -1.30534e-12 4.11248e-08 6.71849e-13)
(1.05806e-13 4.50462e-16 6.94032e-08 -6.89209e-13 4.24991e-08 5.83403e-13)
(-6.63071e-13 2.02672e-13 4.6399e-08 2.25158e-13 3.89183e-08 4.37913e-13)
(-5.44627e-12 -9.45624e-13 4.65586e-08 5.11249e-12 -3.90507e-08 3.33787e-13)
(-5.68257e-12 -2.88244e-12 6.95975e-08 5.2763e-12 -4.26152e-08 4.06266e-13)
(-4.038e-12 -3.90262e-12 9.89594e-08 3.53005e-12 -4.12072e-08 5.07947e-13)
(-2.17093e-12 -3.9139e-12 1.26453e-07 1.64601e-12 -3.05974e-08 5.24923e-13)
(-5.56291e-13 -2.14463e-12 1.43141e-07 -2.3431e-15 -1.13637e-08 5.58635e-13)
(-2.55323e-13 6.34944e-14 1.43092e-07 -2.98269e-13 1.13648e-08 5.53592e-13)
(-1.19054e-12 1.83012e-12 1.26321e-07 6.65332e-13 3.05703e-08 5.25213e-13)
(-2.46212e-12 2.21076e-12 9.87846e-08 1.98964e-12 4.11385e-08 4.7249e-13)
(-3.42208e-12 1.63676e-12 6.94222e-08 3.05274e-12 4.25109e-08 3.69344e-13)
(-3.36125e-12 5.37362e-13 4.64093e-08 3.09336e-12 3.89271e-08 2.67883e-13)
(-6.71389e-12 -1.20847e-12 4.65232e-08 5.95247e-12 -3.9021e-08 7.61411e-13)
(-6.80854e-12 -3.48223e-12 6.95485e-08 5.80431e-12 -4.25855e-08 1.00423e-12)
(-4.45124e-12 -4.24164e-12 9.88965e-08 3.14386e-12 -4.11813e-08 1.30738e-12)
(-2.17141e-12 -3.67508e-12 1.26379e-07 7.35365e-13 -3.05799e-08 1.43604e-12)
(-4.87311e-13 -9.38293e-13 1.43063e-07 -1.0076e-12 -1.13576e-08 1.49491e-12)
(-6.35011e-13 1.9752e-12 1.43015e-07 -7.64436e-13 1.13587e-08 1.39945e-12)
(-2.30566e-12 4.01485e-12 1.26252e-07 1.11406e-12 3.05536e-08 1.19161e-12)
(-4.09706e-12 3.9234e-12 9.87277e-08 3.1463e-12 4.1115e-08 9.50765e-13)
(-5.40289e-12 2.74296e-12 6.93806e-08 4.75809e-12 4.24856e-08 6.44795e-13)
(-4.85527e-12 8.40094e-13 4.63815e-08 4.42827e-12 3.89037e-08 4.27001e-13)
(-6.42862e-12 -1.07888e-12 4.6494e-08 5.54795e-12 -3.89967e-08 8.80676e-13)
(-6.55749e-12 -3.19943e-12 6.95102e-08 5.37717e-12 -4.25625e-08 1.18032e-12)
(-4.16343e-12 -3.60765e-12 9.88504e-08 2.60635e-12 -4.11627e-08 1.55708e-12)
(-2.09336e-12 -2.78264e-12 1.26329e-07 3.79468e-13 -3.05684e-08 1.71389e-12)
(-6.95025e-13 1.03453e-13 1.43014e-07 -1.05542e-12 -1.13541e-08 1.75044e-12)
(-1.10688e-12 2.89249e-12 1.42972e-07 -4.61491e-13 1.13551e-08 1.56837e-12)
(-2.87267e-12 4.62901e-12 1.26216e-07 1.6353e-12 3.0545e-08 1.23737e-12)
(-4.48113e-12 4.11784e-12 9.87018e-08 3.58486e-12 4.11042e-08 8.96271e-13)
(-5.53666e-12 2.73142e-12 6.93635e-08 5.01557e-12 4.24751e-08 5.2109e-13)
(-4.53385e-12 7.16968e-13 4.63713e-08 4.23437e-12 3.88951e-08 2.99479e-13)
(-4.43729e-12 -7.10588e-13 4.64503e-08 3.49072e-12 -3.89601e-08 9.46574e-13)
(-4.33213e-12 -1.99669e-12 6.94498e-08 3.05351e-12 -4.25259e-08 1.27862e-12)
(-2.362e-12 -1.66066e-12 9.87731e-08 6.85552e-13 -4.1131e-08 1.67645e-12)
(-1.09962e-12 -5.2933e-13 1.26241e-07 -7.39218e-13 -3.05476e-08 1.83884e-12)
(-5.5509e-13 1.8358e-12 1.42925e-07 -1.27633e-12 -1.13475e-08 1.83142e-12)
(-1.31265e-12 3.62535e-12 1.42891e-07 -2.5616e-13 1.13482e-08 1.56881e-12)
(-2.75638e-12 4.3318e-12 1.26153e-07 1.61136e-12 3.05293e-08 1.14502e-12)
(-3.68551e-12 3.3301e-12 9.8658e-08 2.95685e-12 4.10856e-08 7.28659e-13)
(-4.05775e-12 1.98256e-12 6.93373e-08 3.72362e-12 4.24588e-08 3.3413e-13)
(-2.81518e-12 4.05358e-13 4.63573e-08 2.68502e-12 3.8883e-08 1.30163e-13)
(-1.56509e-12 -1.89545e-13 4.64115e-08 6.92773e-13 -3.89278e-08 8.72317e-13)
(-9.92482e-13 -2.23827e-13 6.93974e-08 -1.67025e-13 -4.24942e-08 1.15951e-12)
(3.22409e-13 1.1139e-12 9.87078e-08 -1.78398e-12 -4.11044e-08 1.46157e-12)
(4.88816e-13 2.71333e-12 1.26169e-07 -2.03362e-12 -3.05308e-08 1.5448e-12)
(-1.8156e-13 4.34466e-12 1.42856e-07 -1.25813e-12 -1.13427e-08 1.43969e-12)
(-1.48042e-12 4.7875e-12 1.42836e-07 3.70413e-13 1.13431e-08 1.11e-12)
(-2.59032e-12 4.09161e-12 1.26116e-07 1.92488e-12 3.05196e-08 6.65432e-13)
(-2.75368e-12 2.44607e-12 9.8639e-08 2.48379e-12 4.10771e-08 2.69893e-13)
(-2.28395e-12 1.07619e-12 6.93317e-08 2.31846e-12 4.24549e-08 -3.45139e-14)
(-8.87926e-13 5.0955e-14 4.63587e-08 1.03997e-12 3.88839e-08 -1.52044e-13)
(5.79177e-13 1.67979e-13 4.63734e-08 -1.38374e-12 -3.88959e-08 8.04565e-13)
(1.67968e-12 1.14607e-12 6.93468e-08 -2.71795e-12 -4.24636e-08 1.03827e-12)
(2.51405e-12 3.2573e-12 9.86466e-08 -3.73404e-12 -4.10794e-08 1.21999e-12)
(1.89878e-12 5.29381e-12 1.26105e-07 -3.1055e-12 -3.05159e-08 1.20673e-12)
(2.88177e-13 6.40263e-12 1.42798e-07 -1.29211e-12 -1.13389e-08 1.00394e-12)
(-1.48054e-12 5.87754e-12 1.42793e-07 8.41886e-13 1.13389e-08 6.38655e-13)
(-2.45926e-12 4.17494e-12 1.26093e-07 2.23514e-12 3.05134e-08 2.24113e-13)
(-2.23115e-12 2.07518e-12 9.86343e-08 2.33247e-12 4.10744e-08 -1.01318e-13)
(-1.30332e-12 6.26614e-13 6.9338e-08 1.59647e-12 4.24581e-08 -2.93155e-13)
(5.71649e-14 -9.2864e-14 4.6369e-08 2.72662e-13 3.88922e-08 -3.29827e-13)
(6.46783e-13 1.64669e-13 4.63394e-08 -1.38853e-12 -3.88676e-08 7.41743e-13)
(1.86577e-12 1.21726e-12 6.93036e-08 -2.80304e-12 -4.24376e-08 9.37273e-13)
(2.571e-12 3.21903e-12 9.8598e-08 -3.61267e-12 -4.10598e-08 1.04167e-12)
(1.96922e-12 5.1696e-12 1.26058e-07 -2.93959e-12 -3.05052e-08 9.70374e-13)
(4.05206e-13 6.11151e-12 1.42762e-07 -1.13284e-12 -1.13368e-08 7.27636e-13)
(-1.26174e-12 5.56002e-12 1.42773e-07 8.80431e-13 1.13366e-08 3.81312e-13)
(-2.21426e-12 3.98916e-12 1.26091e-07 2.17923e-12 3.0512e-08 3.50287e-14)
(-2.13981e-12 2.10654e-12 9.8645e-08 2.34096e-12 4.10781e-08 -2.01153e-13)
(-1.47405e-12 7.68837e-13 6.93545e-08 1.78781e-12 4.24677e-08 -3.13769e-13)
(-4.03179e-13 2.90485e-14 4.63856e-08 7.17292e-13 3.89058e-08 -3.14113e-13)
(-1.28994e-12 -1.74865e-13 4.6307e-08 5.90802e-13 -3.88406e-08 6.99142e-13)
(-5.39698e-13 -5.39752e-14 6.92627e-08 -3.59891e-13 -4.2413e-08 8.99589e-13)
(3.46312e-13 8.94978e-13 9.85525e-08 -1.37239e-12 -4.10415e-08 1.02608e-12)
(5.03728e-13 2.08144e-12 1.26015e-07 -1.48927e-12 -3.04956e-08 9.85545e-13)
(2.85287e-14 3.10766e-12 1.42729e-07 -8.31302e-13 -1.1335e-08 8.02773e-13)
(-8.44898e-13 3.4034e-12 1.42756e-07 3.09346e-13 1.13344e-08 5.35552e-13)
(-1.71915e-12 3.10913e-12 1.26088e-07 1.45261e-12 3.05105e-08 2.66536e-13)
(-2.18909e-12 2.1869e-12 9.86513e-08 2.10153e-12 4.10802e-08 8.7556e-14)
(-2.40681e-12 1.27953e-12 6.93647e-08 2.43738e-12 4.24736e-08 -3.05726e-14)
(-1.83847e-12 3.27843e-13 4.63961e-08 1.90799e-12 3.89143e-08 -6.95239e-14)
(-3.40294e-12 -5.2781e-13 4.62773e-08 2.76827e-12 -3.88159e-08 6.34671e-13)
(-3.41605e-12 -1.56056e-12 6.92238e-08 2.5551e-12 -4.23896e-08 8.60952e-13)
(-2.32703e-12 -1.83408e-12 9.85071e-08 1.24505e-12 -4.10232e-08 1.08198e-12)
(-1.32794e-12 -1.56459e-12 1.25969e-07 1.79282e-13 -3.04852e-08 1.14865e-12)
(-5.39618e-13 -3.33556e-13 1.4269e-07 -5.66208e-13 -1.13325e-08 1.10583e-12)
(-5.43698e-13 1.05715e-12 1.42726e-07 -4.13205e-13 1.13316e-08 9.56903e-13)
(-1.40717e-12 2.30218e-12 1.26069e-07 6.54934e-13 3.05056e-08 7.52231e-13)
(-2.51181e-12 2.41269e-12 9.86403e-08 1.92805e-12 4.10754e-08 5.83756e-13)
(-3.72005e-12 1.9351e-12 6.93587e-08 3.33173e-12 4.24697e-08 3.88327e-13)
(-3.54599e-12 6.48183e-13 4.63932e-08 3.28445e-12 3.89118e-08 2.61531e-13)
(-3.27471e-12 -4.91689e-13 4.62509e-08 2.73713e-12 -3.87938e-08 5.37586e-13)
(-3.63472e-12 -1.68643e-12 6.91866e-08 2.85543e-12 -4.23672e-08 7.79293e-13)
(-2.60647e-12 -2.11867e-12 9.84594e-08 1.5199e-12 -4.10038e-08 1.08657e-12)
(-1.5502e-12 -1.92437e-12 1.25915e-07 2.75828e-13 -3.04727e-08 1.27437e-12)
(-6.46924e-13 -3.78966e-13 1.42635e-07 -7.3015e-13 -1.13286e-08 1.37707e-12)
(-7.70096e-13 1.53511e-12 1.42677e-07 -5.71652e-13 1.13273e-08 1.34175e-12)
(-2.08264e-12 3.28829e-12 1.26027e-07 9.06977e-13 3.04953e-08 1.17566e-12)
(-3.68479e-12 3.42193e-12 9.86071e-08 2.69771e-12 4.10616e-08 9.87077e-13)
(-5.38122e-12 2.72527e-12 6.93341e-08 4.6839e-12 4.24547e-08 6.97319e-13)
(-5.07223e-12 8.88749e-13 4.63763e-08 4.58164e-12 3.88975e-08 4.90591e-13)
(2.23039e-13 1.05124e-13 4.62294e-08 -6.25782e-13 -3.87758e-08 4.02743e-13)
(4.43458e-13 3.94735e-13 6.91542e-08 -1.06425e-12 -4.23475e-08 6.2079e-13)
(1.04026e-12 1.52785e-12 9.8414e-08 -1.96583e-12 -4.09851e-08 9.25574e-13)
(9.76223e-13 3.09686e-12 1.25859e-07 -2.15136e-12 -3.04594e-08 1.17514e-12)
(1.46406e-13 5.08855e-12 1.42573e-07 -1.49429e-12 -1.13239e-08 1.34788e-12)
(-1.66764e-12 6.52948e-12 1.42616e-07 2.8637e-13 1.13223e-08 1.38127e-12)
(-4.1236e-12 7.05601e-12 1.25972e-07 2.89129e-12 3.0482e-08 1.23231e-12)
(-6.00302e-12 5.61845e-12 9.85623e-08 4.96805e-12 4.1043e-08 1.03496e-12)
(-7.40471e-12 3.69731e-12 6.93009e-08 6.70432e-12 4.24345e-08 7.00384e-13)
(-6.25678e-12 1.03103e-12 4.63535e-08 5.78013e-12 3.88784e-08 4.76649e-13)
(5.96597e-12 1.06474e-12 4.62135e-08 -6.21614e-12 -3.87625e-08 2.50162e-13)
(7.58969e-12 4.04985e-12 6.91295e-08 -7.99138e-12 -4.23324e-08 4.01692e-13)
(7.49089e-12 7.945e-12 9.83776e-08 -8.07925e-12 -4.097e-08 5.88362e-13)
(5.52054e-12 1.19358e-11 1.25812e-07 -6.32448e-12 -3.04479e-08 8.0394e-13)
(1.66208e-12 1.43815e-11 1.42518e-07 -2.59851e-12 -1.13196e-08 9.36435e-13)
(-2.89967e-12 1.45395e-11 1.4256e-07 1.91943e-12 1.13179e-08 9.8024e-13)
(-6.88767e-12 1.2529e-11 1.25922e-07 6.04326e-12 3.047e-08 8.44411e-13)
(-8.81536e-12 8.43182e-12 9.85233e-08 8.1322e-12 4.10268e-08 6.83152e-13)
(-9.32167e-12 4.64776e-12 6.92739e-08 8.93119e-12 4.2418e-08 3.90485e-13)
(-6.92989e-12 1.07433e-12 4.63364e-08 6.69769e-12 3.88639e-08 2.32197e-13)
(1.13668e-11 1.95306e-12 4.62041e-08 -1.14282e-11 -3.87546e-08 6.13767e-14)
(1.44264e-11 7.5285e-12 6.91155e-08 -1.45391e-11 -4.23237e-08 1.12715e-13)
(1.35208e-11 1.38588e-11 9.83569e-08 -1.36269e-11 -4.09612e-08 1.06059e-13)
(9.76453e-12 1.99441e-11 1.25784e-07 -9.98007e-12 -3.0441e-08 2.15548e-13)
(3.14385e-12 2.24509e-11 1.42486e-07 -3.37981e-12 -1.13169e-08 2.35964e-13)
(-3.72774e-12 2.11119e-11 1.42528e-07 3.46841e-12 1.13155e-08 2.59334e-13)
(-8.76234e-12 1.65871e-11 1.25896e-07 8.60329e-12 3.04637e-08 1.59054e-13)
(-1.04456e-11 1.0206e-11 9.85057e-08 1.03565e-11 4.10194e-08 8.90685e-14)
(-9.94439e-12 4.99295e-12 6.92649e-08 1.00256e-11 4.24123e-08 -8.11874e-14)
(-6.59056e-12 9.74813e-13 4.6333e-08 6.70707e-12 3.88609e-08 -1.16507e-13)
(1.41167e-11 2.41043e-12 4.62036e-08 -1.38706e-11 -3.87542e-08 -2.46107e-13)
(1.75858e-11 9.10473e-12 6.91158e-08 -1.72666e-11 -4.23238e-08 -3.19138e-13)
(1.57408e-11 1.58694e-11 9.83575e-08 -1.52146e-11 -4.09612e-08 -5.26192e-13)
(1.11096e-11 2.20255e-11 1.25784e-07 -1.0576e-11 -3.04407e-08 -5.33678e-13)
(3.64643e-12 2.35159e-11 1.42487e-07 -3.03583e-12 -1.13166e-08 -6.10607e-13)
(-3.36043e-12 2.09145e-11 1.4253e-07 3.94268e-12 1.13158e-08 -5.82244e-13)
(-7.79923e-12 1.5278e-11 1.25901e-07 8.39119e-12 3.0465e-08 -5.91957e-13)
(-8.68958e-12 8.67815e-12 9.8515e-08 9.21453e-12 4.10232e-08 -5.24941e-13)
(-7.46406e-12 3.79267e-12 6.92768e-08 7.98209e-12 4.24194e-08 -5.18022e-13)
(-4.20855e-12 5.79818e-13 4.63447e-08 4.62255e-12 3.88706e-08 -4.13998e-13)
(1.34686e-11 2.33113e-12 4.62201e-08 -1.2661e-11 -3.8768e-08 -8.07559e-13)
(1.55851e-11 7.99964e-12 6.91396e-08 -1.45396e-11 -4.23381e-08 -1.04552e-12)
(1.24385e-11 1.22265e-11 9.83883e-08 -1.10137e-11 -4.09736e-08 -1.42475e-12)
(8.08011e-12 1.52464e-11 1.2582e-07 -6.5703e-12 -3.04488e-08 -1.50981e-12)
(2.57378e-12 1.39069e-11 1.42525e-07 -9.85443e-13 -1.13192e-08 -1.58834e-12)
(-1.25688e-12 1.02435e-11 1.42568e-07 2.7224e-12 1.13191e-08 -1.46552e-12)
(-2.51502e-12 5.56226e-12 1.25938e-07 3.80045e-12 3.0474e-08 -1.28544e-12)
(-1.68014e-12 1.9151e-12 9.85485e-08 2.71184e-12 4.1037e-08 -1.0317e-12)
(-1.05314e-13 1.1301e-13 6.93052e-08 9.03389e-13 4.24367e-08 -7.98075e-13)
(1.42319e-12 -3.0922e-13 4.63668e-08 -8.58833e-13 3.88892e-08 -5.64354e-13)
(1.00897e-11 1.82382e-12 4.62674e-08 -8.41139e-12 -3.88075e-08 -1.67835e-12)
(9.14239e-12 4.56602e-12 6.92024e-08 -6.99923e-12 -4.23758e-08 -2.14316e-12)
(4.23423e-12 3.53461e-12 9.84644e-08 -1.55734e-12 -4.10044e-08 -2.67689e-12)
(1.03168e-12 3.04667e-13 1.25903e-07 1.76189e-12 -3.04681e-08 -2.79357e-12)
(-7.24609e-15 -5.80705e-12 1.42608e-07 2.75761e-12 -1.13251e-08 -2.75037e-12)
(2.48871e-12 -1.06011e-11 1.42645e-07 -7.97072e-14 1.13257e-08 -2.40901e-12)
(7.01723e-12 -1.25452e-11 1.26003e-07 -5.11087e-12 3.04901e-08 -1.90636e-12)
(1.0616e-11 -1.01901e-11 9.85995e-08 -9.21395e-12 4.10584e-08 -1.40201e-12)
(1.23159e-11 -6.18396e-12 6.93423e-08 -1.14377e-11 4.24595e-08 -8.78152e-13)
(1.04376e-11 -1.73201e-12 4.63917e-08 -9.90851e-12 3.89102e-08 -5.29086e-13)
(5.26253e-12 1.05115e-12 4.63587e-08 -2.57477e-12 -3.88836e-08 -2.68775e-12)
(6.09008e-13 -1.76965e-14 6.93202e-08 2.81773e-12 -4.24467e-08 -3.42674e-12)
(-6.01541e-12 -7.35503e-12 9.86027e-08 1.01395e-11 -4.10604e-08 -4.12413e-12)
(-7.61188e-12 -1.80372e-11 1.26049e-07 1.18795e-11 -3.05019e-08 -4.26758e-12)
(-3.14021e-12 -2.95887e-11 1.42746e-07 7.17058e-12 -1.13349e-08 -4.03037e-12)
(6.90634e-12 -3.5478e-11 1.42763e-07 -3.52618e-12 1.1336e-08 -3.38017e-12)
(1.82044e-11 -3.39523e-11 1.26094e-07 -1.57563e-11 3.05127e-08 -2.44805e-12)
(2.48888e-11 -2.43333e-11 9.86618e-08 -2.32517e-11 4.10848e-08 -1.63711e-12)
(2.66078e-11 -1.34788e-11 6.93796e-08 -2.58343e-11 4.24828e-08 -7.7356e-13)
(2.04727e-11 -3.31132e-12 4.6411e-08 -2.01455e-11 3.89268e-08 -3.27272e-13)
(8.83642e-14 1.32622e-13 4.64941e-08 3.31498e-12 -3.89964e-08 -3.40334e-12)
(-7.2268e-12 -4.3018e-12 6.94937e-08 1.16047e-11 -4.25511e-08 -4.37789e-12)
(-1.44343e-11 -1.64277e-11 9.88052e-08 1.96564e-11 -4.11426e-08 -5.22206e-12)
(-1.43082e-11 -3.25235e-11 1.26259e-07 1.97335e-11 -3.05508e-08 -5.42528e-12)
(-5.39489e-12 -4.75887e-11 1.4294e-07 1.04182e-11 -1.13486e-08 -5.02326e-12)
(1.02291e-11 -5.37844e-11 1.42922e-07 -6.13749e-12 1.13499e-08 -4.09162e-12)
(2.62695e-11 -4.93686e-11 1.26206e-07 -2.35101e-11 3.05408e-08 -2.75934e-12)
(3.48692e-11 -3.42638e-11 9.87282e-08 -3.31964e-11 4.11133e-08 -1.67277e-12)
(3.64521e-11 -1.8547e-11 6.94096e-08 -3.59303e-11 4.25019e-08 -5.21802e-13)
(2.69015e-11 -4.3079e-12 4.64182e-08 -2.68721e-11 3.89336e-08 -2.94219e-14)
(-4.53776e-12 -8.19375e-13 4.6651e-08 7.85384e-12 -3.91271e-08 -3.31608e-12)
(-1.1899e-11 -6.953e-12 6.96965e-08 1.62559e-11 -4.26733e-08 -4.35685e-12)
(-1.74708e-11 -1.99061e-11 9.90444e-08 2.27236e-11 -4.124e-08 -5.25276e-12)
(-1.57238e-11 -3.6148e-11 1.26509e-07 2.1278e-11 -3.0609e-08 -5.55425e-12)
(-5.41367e-12 -5.00348e-11 1.43169e-07 1.05436e-11 -1.13647e-08 -5.12991e-12)
(1.06443e-11 -5.47707e-11 1.43102e-07 -6.52746e-12 1.1366e-08 -4.11682e-12)
(2.6302e-11 -4.91954e-11 1.26326e-07 -2.36708e-11 3.05712e-08 -2.63127e-12)
(3.40964e-11 -3.34807e-11 9.87898e-08 -3.26483e-11 4.11402e-08 -1.4481e-12)
(3.52703e-11 -1.79847e-11 6.94274e-08 -3.5056e-11 4.25139e-08 -2.14342e-13)
(2.50696e-11 -3.96759e-12 4.64115e-08 -2.53107e-11 3.89291e-08 2.41097e-13)
(-7.84955e-12 -1.63433e-12 4.67857e-08 9.98653e-12 -3.92394e-08 -2.13698e-12)
(-1.20971e-11 -7.16845e-12 6.98748e-08 1.50547e-11 -4.27811e-08 -2.95755e-12)
(-1.35362e-11 -1.58919e-11 9.92612e-08 1.72399e-11 -4.13285e-08 -3.70372e-12)
(-1.05133e-11 -2.56373e-11 1.26741e-07 1.46096e-11 -3.06632e-08 -4.0963e-12)
(-2.78124e-12 -3.25162e-11 1.43383e-07 6.62772e-12 -1.13799e-08 -3.84647e-12)
(7.18924e-12 -3.3647e-11 1.43269e-07 -4.1084e-12 1.13809e-08 -3.08084e-12)
(1.60121e-11 -2.91481e-11 1.2643e-07 -1.41381e-11 3.05981e-08 -1.87399e-12)
(1.96907e-11 -1.91375e-11 9.88364e-08 -1.87826e-11 4.11611e-08 -9.08173e-13)
(2.01131e-11 -1.02707e-11 6.94321e-08 -2.01886e-11 4.2518e-08 7.55258e-14)
(1.30847e-11 -1.99825e-12 4.63951e-08 -1.34719e-11 3.89164e-08 3.87276e-13)
(-8.78757e-12 -2.02874e-12 4.68493e-08 8.84915e-12 -3.92926e-08 -6.15719e-14)
(-7.61203e-12 -4.74183e-12 6.9966e-08 7.97902e-12 -4.28368e-08 -3.6699e-13)
(-3.47092e-12 -5.08942e-12 9.93828e-08 4.18794e-12 -4.13788e-08 -7.17024e-13)
(1.15277e-13 -3.10287e-12 1.26881e-07 9.95296e-13 -3.06964e-08 -1.11057e-12)
(1.82005e-12 1.42121e-12 1.43517e-07 -6.42389e-13 -1.13895e-08 -1.17766e-12)
(4.4049e-13 5.38553e-12 1.43374e-07 5.28987e-13 1.13905e-08 -9.69477e-13)
(-2.6855e-12 6.93658e-12 1.26492e-07 3.17498e-12 3.06144e-08 -4.89475e-13)
(-5.65422e-12 6.0816e-12 9.88578e-08 5.7252e-12 4.11713e-08 -7.09801e-14)
(-6.36358e-12 3.27308e-12 6.94256e-08 6.04949e-12 4.25151e-08 3.14086e-13)
(-6.875e-12 1.25083e-12 4.63768e-08 6.49207e-12 3.89018e-08 3.82928e-13)
(-6.48352e-12 -1.7275e-12 4.68111e-08 4.24725e-12 -3.92611e-08 2.23627e-12)
(4.74868e-13 -1.8982e-13 6.99282e-08 -3.09388e-12 -4.2815e-08 2.61901e-12)
(9.55633e-12 9.26454e-12 9.93561e-08 -1.24091e-11 -4.1369e-08 2.85273e-12)
(1.25874e-11 2.42743e-11 1.2687e-07 -1.52092e-11 -3.06947e-08 2.62184e-12)
(6.69213e-12 4.07272e-11 1.43518e-07 -8.93933e-12 -1.13898e-08 2.2472e-12)
(-7.58135e-12 4.95671e-11 1.43375e-07 5.7994e-12 1.13909e-08 1.78195e-12)
(-2.38795e-11 4.73608e-11 1.26486e-07 2.25878e-11 3.06136e-08 1.29169e-12)
(-3.39022e-11 3.40702e-11 9.88443e-08 3.29323e-11 4.11663e-08 9.69885e-13)
(-3.59527e-11 1.8416e-11 6.9409e-08 3.54105e-11 4.25054e-08 5.4221e-13)
(-2.86802e-11 4.77444e-12 4.63625e-08 2.8364e-11 3.889e-08 3.16191e-13)
(-1.02165e-12 -6.82948e-13 4.66771e-08 -2.87684e-12 -3.91497e-08 3.89849e-12)
(9.91232e-12 5.22179e-12 6.97639e-08 -1.48218e-11 -4.27167e-08 4.90949e-12)
(2.11902e-11 2.24122e-11 9.91762e-08 -2.69216e-11 -4.12966e-08 5.73142e-12)
(2.24536e-11 4.69146e-11 1.26696e-07 -2.82738e-11 -3.06549e-08 5.82021e-12)
(9.95845e-12 7.12128e-11 1.43367e-07 -1.52591e-11 -1.13794e-08 5.30061e-12)
(-1.40563e-11 8.26926e-11 1.43257e-07 9.74235e-12 1.13807e-08 4.31398e-12)
(-3.98475e-11 7.72027e-11 1.26402e-07 3.68942e-11 3.05929e-08 2.9533e-12)
(-5.46563e-11 5.44608e-11 9.87911e-08 5.2711e-11 4.1144e-08 1.94522e-12)
(-5.78266e-11 2.96073e-11 6.93816e-08 5.70822e-11 4.24884e-08 7.4436e-13)
(-4.42881e-11 7.27081e-12 4.63528e-08 4.40306e-11 3.88814e-08 2.57476e-13)
(5.79346e-12 7.6775e-13 4.64888e-08 -1.01327e-11 -3.89928e-08 4.33921e-12)
(1.75123e-11 9.68797e-12 6.95222e-08 -2.32003e-11 -4.25711e-08 5.688e-12)
(2.72736e-11 2.97213e-11 9.88942e-08 -3.41429e-11 -4.11821e-08 6.86931e-12)
(2.60078e-11 5.65067e-11 1.26405e-07 -3.33124e-11 -3.05871e-08 7.30456e-12)
(1.02569e-11 8.12037e-11 1.43101e-07 -1.70991e-11 -1.13605e-08 6.84226e-12)
(-1.65375e-11 9.16131e-11 1.43044e-07 1.08693e-11 1.13622e-08 5.66824e-12)
(-4.41629e-11 8.4239e-11 1.26255e-07 4.03156e-11 3.05561e-08 3.84725e-12)
(-5.92442e-11 5.8639e-11 9.87051e-08 5.67964e-11 4.11074e-08 2.44773e-12)
(-6.26103e-11 3.20095e-11 6.93445e-08 6.18155e-11 4.2465e-08 7.94811e-13)
(-4.6667e-11 7.56911e-12 4.63456e-08 4.6489e-11 3.88744e-08 1.7805e-13)
(1.12642e-11 2.04384e-12 4.6305e-08 -1.47505e-11 -3.88395e-08 3.48637e-12)
(2.04395e-11 1.15414e-11 6.92786e-08 -2.51802e-11 -4.24239e-08 4.74078e-12)
(2.56009e-11 2.85299e-11 9.85978e-08 -3.14707e-11 -4.1061e-08 5.86985e-12)
(2.19301e-11 4.94673e-11 1.26086e-07 -2.8404e-11 -3.05123e-08 6.47389e-12)
(7.44626e-12 6.66087e-11 1.42801e-07 -1.3614e-11 -1.13389e-08 6.16772e-12)
(-1.39165e-11 7.21292e-11 1.42799e-07 8.776e-12 1.13408e-08 5.14052e-12)
(-3.45e-11 6.45448e-11 1.26087e-07 3.10943e-11 3.05139e-08 3.40562e-12)
(-4.46522e-11 4.37967e-11 9.86114e-08 4.26133e-11 4.1067e-08 2.03889e-12)
(-4.66697e-11 2.37948e-11 6.93089e-08 4.62189e-11 4.2442e-08 4.50814e-13)
(-3.30827e-11 5.23174e-12 4.6343e-08 3.31653e-11 3.88711e-08 -8.25754e-14)
(1.33031e-11 2.67927e-12 4.61773e-08 -1.5e-11 -3.87328e-08 1.69686e-12)
(1.7488e-11 1.0071e-11 6.91042e-08 -1.99159e-11 -4.2318e-08 2.4279e-12)