/*--------------------------------*- C++ -*----------------------------------*\
| =========                 |                                                 |
| \\      /  F ield         | OpenFOAM: The Open Source CFD Toolbox           |
|  \\    /   O peration     | Version:  2406                                  |
|   \\  /    A nd           | Website:  www.openfoam.com                      |
|    \\/     M anipulation  |                                                 |
\*---------------------------------------------------------------------------*/
FoamFile
{
    version     2.0;
    format      ascii;
    arch        "LSB;label=32;scalar=64";
    class       volSymmTensorField;
    location    "1.3";
    object      turbulenceProperties:devReff;
}
// * * * * * * * * * * * * * * * * * * * * * * * * * * * * * * * * * * * * * //

dimensions      [0 2 -2 0 0 0 0];

internalField   nonuniform List<symmTensor> 
25000
(
(0.0299562 -0.0224532 -0.0712221 0.0299563 -0.0712218 -0.0599125)
(0.0517355 -0.0117214 -0.0452863 0.0323427 -0.0646242 -0.0840782)
(0.0592719 -0.00643007 -0.0276443 0.0382213 -0.0555025 -0.0974932)
(0.0629758 -0.00293753 -0.0148555 0.0419236 -0.0491106 -0.104899)
(0.0645706 -0.000869089 -0.00466924 0.0437114 -0.0459722 -0.108282)
(0.0645706 0.000869145 0.0046687 0.0437115 -0.0459722 -0.108282)
(0.0629758 0.00293758 0.014855 0.0419236 -0.0491106 -0.104899)
(0.0592721 0.00643009 0.0276438 0.0382214 -0.0555025 -0.0974934)
(0.0517357 0.0117214 0.0452859 0.0323428 -0.0646242 -0.0840785)
(0.0299565 0.0224532 0.0712217 0.0299565 -0.0712218 -0.0599129)
(0.0323426 -0.0117214 -0.0646245 0.0517356 -0.045286 -0.0840782)
(0.0533622 -0.00548255 -0.0363882 0.0533623 -0.0363878 -0.106725)
(0.0599937 -0.00298881 -0.0199668 0.0562603 -0.0302355 -0.116254)
(0.0628634 -0.0013309 -0.0100325 0.0578618 -0.0263914 -0.120725)
(0.0639855 -0.000367759 -0.00305314 0.0585799 -0.024558 -0.122565)
(0.0639855 0.000367802 0.00305266 0.05858 -0.024558 -0.122566)
(0.0628635 0.00133093 0.0100321 0.0578618 -0.0263914 -0.120725)
(0.0599938 0.00298884 0.0199663 0.0562603 -0.0302355 -0.116254)
(0.0533624 0.00548256 0.0363877 0.0533624 -0.0363879 -0.106725)
(0.0323428 0.0117214 0.0646241 0.0517357 -0.045286 -0.0840785)
(0.0382212 -0.0064301 -0.0555028 0.059272 -0.0276439 -0.0974931)
(0.0562602 -0.00298882 -0.0302358 0.0599937 -0.0199664 -0.116254)
(0.0618152 -0.00158019 -0.0158054 0.0618153 -0.0158051 -0.12363)
(0.0638588 -0.000657365 -0.00756076 0.0628412 -0.0135041 -0.1267)
(0.0645097 -0.000165313 -0.00223448 0.0632817 -0.0124684 -0.127791)
(0.0645097 0.000165339 0.00223404 0.0632817 -0.0124684 -0.127791)
(0.0638589 0.000657387 0.00756032 0.0628412 -0.0135041 -0.1267)
(0.0618153 0.0015802 0.015805 0.0618153 -0.0158051 -0.123631)
(0.0562604 0.00298883 0.0302354 0.0599938 -0.0199664 -0.116254)
(0.0382214 0.00643007 0.0555024 0.0592721 -0.027644 -0.0974935)
(0.0419234 -0.00293756 -0.0491109 0.0629758 -0.0148551 -0.104899)
(0.0578617 -0.00133091 -0.0263917 0.0628634 -0.0100322 -0.120725)
(0.0628411 -0.00065737 -0.0135044 0.0638588 -0.00756045 -0.1267)
(0.0644338 -0.000235836 -0.00630043 0.0644339 -0.00630014 -0.128868)
(0.0648107 -4.81848e-05 -0.00183245 0.064673 -0.0057675 -0.129484)
(0.0648107 4.81976e-05 0.00183203 0.064673 -0.0057675 -0.129484)
(0.0644339 0.000235847 0.00630002 0.0644339 -0.00630014 -0.128868)
(0.0628412 0.000657377 0.013504 0.0638588 -0.00756045 -0.1267)
(0.0578618 0.00133091 0.0263913 0.0628635 -0.0100322 -0.120725)
(0.0419237 0.00293755 0.0491105 0.0629758 -0.0148551 -0.104899)
(0.0437113 -0.000869115 -0.0459724 0.0645706 -0.00466886 -0.108282)
(0.0585798 -0.000367774 -0.0245582 0.0639855 -0.0030528 -0.122565)
(0.0632816 -0.000165321 -0.0124686 0.0645097 -0.00223417 -0.127791)
(0.064673 -4.81889e-05 -0.00576779 0.0648107 -0.00183216 -0.129484)
(0.0649271 -6.30712e-06 -0.00166879 0.0649271 -0.0016685 -0.129854)
(0.0649271 6.30819e-06 0.00166839 0.0649271 -0.0016685 -0.129854)
(0.0646731 4.81907e-05 0.00576739 0.0648107 -0.00183215 -0.129484)
(0.0632817 0.000165324 0.0124683 0.0645097 -0.00223417 -0.127791)
(0.05858 0.000367779 0.0245579 0.0639856 -0.0030528 -0.122566)
(0.0437115 0.00086912 0.0459721 0.0645706 -0.00466886 -0.108282)
(0.0437112 0.000869131 -0.0459724 0.0645706 0.00466907 -0.108282)
(0.0585798 0.000367791 -0.0245582 0.0639855 0.003053 -0.122565)
(0.0632816 0.000165331 -0.0124686 0.0645097 0.00223435 -0.127791)
(0.064673 4.81904e-05 -0.00576779 0.0648107 0.00183233 -0.129484)
(0.0649271 6.30348e-06 -0.00166879 0.0649271 0.00166867 -0.129854)
(0.0649271 -6.31381e-06 0.00166839 0.0649271 0.00166867 -0.129854)
(0.0646731 -4.8197e-05 0.00576739 0.0648107 0.00183233 -0.129484)
(0.0632817 -0.000165331 0.0124683 0.0645097 0.00223436 -0.127791)
(0.05858 -0.000367784 0.0245579 0.0639856 0.003053 -0.122566)
(0.0437115 -0.000869113 0.0459721 0.0645706 0.00466908 -0.108282)
(0.0419234 0.00293758 -0.0491109 0.0629758 0.0148553 -0.104899)
(0.0578617 0.00133093 -0.0263917 0.0628634 0.0100324 -0.120725)
(0.0628411 0.000657379 -0.0135044 0.0638588 0.00756063 -0.1267)
(0.0644338 0.000235837 -0.00630043 0.0644338 0.00630031 -0.128868)
(0.0648107 4.81811e-05 -0.00183245 0.064673 0.00576767 -0.129484)
(0.0648107 -4.82033e-05 0.00183204 0.064673 0.00576767 -0.129484)
(0.0644339 -0.000235853 0.00630002 0.0644338 0.00630032 -0.128868)
(0.0628412 -0.000657385 0.013504 0.0638588 0.00756063 -0.1267)
(0.0578618 -0.00133092 0.0263913 0.0628634 0.0100324 -0.120725)
(0.0419236 -0.00293755 0.0491106 0.0629758 0.0148554 -0.104899)
(0.0382211 0.00643012 -0.0555028 0.0592719 0.0276441 -0.097493)
(0.0562602 0.00298884 -0.0302358 0.0599937 0.0199666 -0.116254)
(0.0618152 0.00158019 -0.0158054 0.0618152 0.0158053 -0.12363)
(0.0638588 0.000657366 -0.00756076 0.0628411 0.0135043 -0.1267)
(0.0645097 0.00016531 -0.00223448 0.0632816 0.0124685 -0.127791)
(0.0645097 -0.000165344 0.00223405 0.0632816 0.0124685 -0.127791)
(0.0638589 -0.000657393 0.00756032 0.0628411 0.0135043 -0.1267)
(0.0618153 -0.00158021 0.015805 0.0618152 0.0158053 -0.123631)
(0.0562603 -0.00298884 0.0302354 0.0599937 0.0199666 -0.116254)
(0.0382214 -0.00643008 0.0555025 0.059272 0.0276442 -0.0974934)
(0.0323425 0.0117215 -0.0646245 0.0517355 0.0452862 -0.084078)
(0.0533622 0.00548258 -0.0363882 0.0533622 0.036388 -0.106724)
(0.0599937 0.00298883 -0.0199668 0.0562602 0.0302357 -0.116254)
(0.0628634 0.0013309 -0.0100325 0.0578617 0.0263916 -0.120725)
(0.0639855 0.000367759 -0.00305314 0.0585798 0.0245581 -0.122565)
(0.0639856 -0.000367807 0.00305266 0.0585798 0.0245581 -0.122565)
(0.0628635 -0.00133094 0.0100321 0.0578617 0.0263916 -0.120725)
(0.0599938 -0.00298885 0.0199663 0.0562602 0.0302357 -0.116254)
(0.0533624 -0.00548257 0.0363877 0.0533623 0.0363881 -0.106725)
(0.0323428 -0.0117214 0.0646241 0.0517356 0.0452862 -0.0840784)
(0.0299561 0.0224533 -0.0712221 0.0299562 0.0712219 -0.0599123)
(0.0517355 0.0117214 -0.0452863 0.0323425 0.0646244 -0.084078)
(0.0592719 0.00643009 -0.0276443 0.0382211 0.0555027 -0.097493)
(0.0629758 0.00293754 -0.0148555 0.0419234 0.0491108 -0.104899)
(0.0645706 0.000869091 -0.00466923 0.0437113 0.0459723 -0.108282)
(0.0645706 -0.000869152 0.0046687 0.0437113 0.0459723 -0.108282)
(0.0629758 -0.00293759 0.014855 0.0419235 0.0491108 -0.104899)
(0.059272 -0.00643012 0.0276438 0.0382212 0.0555027 -0.0974933)
(0.0517357 -0.0117214 0.0452859 0.0323426 0.0646244 -0.0840783)
(0.0299564 -0.0224532 0.0712217 0.0299563 0.071222 -0.0599127)
(-0.000346657 -0.0176336 -0.109335 -0.000346349 -0.109334 0.000693005)
(0.0130359 -0.0158516 -0.0753246 0.000864684 -0.107229 -0.0139006)
(0.0225318 -0.0121472 -0.0477172 0.00293125 -0.095195 -0.0254631)
(0.0297988 -0.00758692 -0.0260278 0.00446536 -0.0852126 -0.0342642)
(0.0334956 -0.00254393 -0.00822235 0.00529128 -0.079889 -0.0387868)
(0.0334957 0.00254422 0.008221 0.0052914 -0.079889 -0.0387871)
(0.0297992 0.00758716 0.0260265 0.00446573 -0.0852125 -0.0342649)
(0.0225324 0.0121473 0.0477159 0.00293182 -0.0951948 -0.0254642)
(0.0130368 0.0158516 0.0753234 0.000865408 -0.107229 -0.0139022)
(-0.000345486 0.0176334 0.109334 -0.000345573 -0.109334 0.000691059)
(0.000864394 -0.0158517 -0.10723 0.0130361 -0.0753238 -0.0139005)
(0.016797 -0.0142715 -0.0636989 0.0167973 -0.0636982 -0.0335943)
(0.028692 -0.0106814 -0.0347542 0.0200798 -0.0526377 -0.0487717)
(0.0365376 -0.00647926 -0.0168858 0.0221463 -0.0444208 -0.0586838)
(0.0401444 -0.00215605 -0.0049993 0.0231479 -0.0401315 -0.0632923)
(0.0401445 0.00215628 0.00499812 0.023148 -0.0401314 -0.0632925)
(0.0365379 0.00647946 0.0168846 0.0221465 -0.0444208 -0.0586844)
(0.0286925 0.0106815 0.0347531 0.0200801 -0.0526376 -0.0487727)
(0.0167979 0.0142716 0.0636978 0.0167978 -0.0636981 -0.0335957)
(0.000865493 0.0158516 0.107229 0.0130367 -0.0753237 -0.0139022)
(0.00293085 -0.0121473 -0.0951955 0.0225318 -0.0477163 -0.0254627)
(0.0200794 -0.0106815 -0.0526384 0.0286921 -0.0347535 -0.0487715)
(0.0326128 -0.00764453 -0.0257194 0.032613 -0.0257187 -0.0652258)
(0.0398863 -0.00449377 -0.0110622 0.0346348 -0.0198741 -0.0745212)
(0.0430417 -0.00148008 -0.00300689 0.0355699 -0.0170113 -0.0786116)
(0.0430418 0.00148025 0.00300584 0.03557 -0.0170113 -0.0786117)
(0.0398866 0.00449392 0.0110611 0.034635 -0.019874 -0.0745216)
(0.0326134 0.00764463 0.0257183 0.0326133 -0.0257186 -0.0652266)
(0.0200803 0.0106815 0.0526373 0.0286925 -0.0347534 -0.0487728)
(0.00293194 0.0121472 0.0951946 0.0225324 -0.0477162 -0.0254644)
(0.00446482 -0.00758712 -0.0852132 0.0297987 -0.0260269 -0.0342635)
(0.0221458 -0.00647937 -0.0444215 0.0365376 -0.016885 -0.0586834)
(0.0346346 -0.00449382 -0.0198747 0.0398864 -0.0110614 -0.074521)
(0.0415444 -0.00260283 -0.00758135 0.0415445 -0.00758068 -0.0830889)
(0.0445167 -0.00085641 -0.00184246 0.0423564 -0.00592307 -0.086873)
(0.0445168 0.000856513 0.00184151 0.0423564 -0.00592306 -0.0868732)
(0.0415447 0.00260292 0.00758039 0.0415446 -0.00758065 -0.0830893)
(0.0346351 0.00449389 0.0198738 0.0398866 -0.0110614 -0.0745217)
(0.0221466 0.0064794 0.0444205 0.0365379 -0.0168849 -0.0586845)
(0.00446591 0.00758707 0.0852123 0.0297992 -0.0260268 -0.0342651)
(0.00529056 -0.00254413 -0.0798896 0.0334953 -0.00822141 -0.0387859)
(0.0231474 -0.00215618 -0.0401321 0.0401443 -0.00499848 -0.0632916)
(0.0355696 -0.00148017 -0.017012 0.0430416 -0.00300615 -0.0786112)
(0.0423562 -0.000856447 -0.00592372 0.0445167 -0.00184179 -0.0868729)
(0.0452762 -0.000282832 -0.00129239 0.0452762 -0.00129174 -0.0905524)
(0.0452762 0.000282875 0.00129148 0.0452762 -0.00129174 -0.0905525)
(0.0423565 0.000856489 0.0059228 0.0445168 -0.00184177 -0.0868732)
(0.0355701 0.0014802 0.0170111 0.0430418 -0.00300613 -0.0786119)
(0.0231482 0.0021562 0.0401312 0.0401445 -0.00499845 -0.0632927)
(0.00529165 0.00254413 0.0798887 0.0334958 -0.00822138 -0.0387874)
(0.00529051 0.00254406 -0.0798896 0.0334953 0.00822196 -0.0387858)
(0.0231473 0.00215615 -0.0401321 0.0401442 0.00499897 -0.0632916)
(0.0355696 0.00148015 -0.017012 0.0430416 0.00300659 -0.0786112)
(0.0423562 0.000856443 -0.00592373 0.0445167 0.00184219 -0.0868728)
(0.0452762 0.000282839 -0.00129239 0.0452762 0.00129213 -0.0905523)
(0.0452762 -0.000282855 0.00129149 0.0452762 0.00129213 -0.0905524)
(0.0423565 -0.000856453 0.00592281 0.0445167 0.00184219 -0.0868732)
(0.0355701 -0.00148015 0.0170111 0.0430417 0.00300659 -0.0786118)
(0.0231482 -0.00215613 0.0401312 0.0401445 0.00499896 -0.0632926)
(0.0052916 -0.00254401 0.0798887 0.0334957 0.00822195 -0.0387873)
(0.00446468 0.00758707 -0.0852132 0.0297986 0.0260274 -0.0342633)
(0.0221457 0.00647935 -0.0444215 0.0365375 0.0168855 -0.0586832)
(0.0346345 0.00449381 -0.0198748 0.0398863 0.0110619 -0.0745208)
(0.0415444 0.00260283 -0.00758136 0.0415444 0.00758109 -0.0830888)
(0.0445166 0.000856416 -0.00184246 0.0423562 0.00592347 -0.0868729)
(0.0445167 -0.000856494 0.00184151 0.0423563 0.00592346 -0.086873)
(0.0415446 -0.00260289 0.0075804 0.0415445 0.00758107 -0.0830891)
(0.034635 -0.00449384 0.0198738 0.0398864 0.0110619 -0.0745215)
(0.0221466 -0.00647934 0.0444205 0.0365378 0.0168854 -0.0586843)
(0.00446576 -0.00758697 0.0852123 0.029799 0.0260274 -0.0342648)
(0.00293062 0.0121473 -0.0951956 0.0225316 0.0477169 -0.0254622)
(0.0200792 0.0106815 -0.0526384 0.0286918 0.034754 -0.0487711)
(0.0326127 0.00764453 -0.0257194 0.0326128 0.0257191 -0.0652255)
(0.0398862 0.00449377 -0.0110622 0.0346346 0.0198745 -0.0745208)
(0.0430416 0.00148009 -0.00300689 0.0355697 0.0170117 -0.0786113)
(0.0430417 -0.00148024 0.00300585 0.0355697 0.0170117 -0.0786114)
(0.0398865 -0.00449389 0.0110611 0.0346348 0.0198744 -0.0745213)
(0.0326132 -0.0076446 0.0257183 0.032613 0.0257191 -0.0652263)
(0.0200801 -0.0106815 0.0526374 0.0286922 0.0347539 -0.0487723)
(0.00293171 -0.0121472 0.0951947 0.0225322 0.0477168 -0.0254639)
(0.000864108 0.0158517 -0.10723 0.0130357 0.0753243 -0.0138998)
(0.0167968 0.0142716 -0.063699 0.0167969 0.0636987 -0.0335937)
(0.0286918 0.0106814 -0.0347543 0.0200794 0.0526382 -0.0487712)
(0.0365375 0.00647928 -0.0168858 0.0221459 0.0444213 -0.0586833)
(0.0401443 0.00215606 -0.0049993 0.0231475 0.0401319 -0.0632918)
(0.0401444 -0.00215627 0.00499813 0.0231476 0.0401319 -0.063292)
(0.0365378 -0.00647946 0.0168846 0.0221461 0.0444212 -0.0586839)
(0.0286924 -0.0106815 0.0347531 0.0200797 0.0526381 -0.0487721)
(0.0167977 -0.0142716 0.0636979 0.0167974 0.0636986 -0.0335951)
(0.000865205 -0.0158516 0.107229 0.0130363 0.0753242 -0.0139015)
(-0.000346962 0.0176338 -0.109335 -0.000346821 0.109334 0.000693783)
(0.0130356 0.0158517 -0.0753247 0.00086422 0.107229 -0.0138999)
(0.0225316 0.0121472 -0.0477172 0.00293076 0.0951954 -0.0254624)
(0.0297986 0.00758696 -0.0260278 0.00446486 0.085213 -0.0342635)
(0.0334954 0.00254395 -0.00822235 0.00529077 0.0798894 -0.0387862)
(0.0334955 -0.00254423 0.00822102 0.00529088 0.0798893 -0.0387864)
(0.029799 -0.00758719 0.0260265 0.00446521 0.0852129 -0.0342642)
(0.0225322 -0.0121473 0.0477159 0.00293129 0.0951952 -0.0254635)
(0.0130365 -0.0158517 0.0753235 0.000864886 0.107229 -0.0139014)
(-0.000345776 -0.0176335 0.109334 -0.000346133 0.109334 0.000691909)
(-0.00822332 -0.0156051 -0.149045 -0.00822252 -0.149044 0.0164458)
(0.00155514 -0.0119024 -0.115967 -0.00932396 -0.1594 0.00776883)
(0.00737346 -0.00905209 -0.0805704 -0.00845941 -0.153709 0.00108595)
(0.0120087 -0.0056812 -0.047087 -0.00775257 -0.146888 -0.00425616)
(0.0145489 -0.00192804 -0.01545 -0.00736434 -0.142942 -0.00718453)
(0.0145491 0.0019287 0.0154463 -0.00736408 -0.142942 -0.00718503)
(0.0120095 0.00568176 0.0470833 -0.00775181 -0.146887 -0.00425768)
(0.00737474 0.00905242 0.0805667 -0.00845825 -0.153708 0.0010835)
(0.00155711 0.0119024 0.115963 -0.00932251 -0.159399 0.0077654)
(-0.00822074 0.0156047 0.149042 -0.00822098 -0.149043 0.0164417)
(-0.00932462 -0.0119025 -0.159401 0.00155558 -0.115965 0.00776904)
(0.00210123 -0.00974288 -0.111468 0.0021018 -0.111466 -0.00420303)
(0.0097969 -0.00760072 -0.07128 0.00392887 -0.103806 -0.0137258)
(0.0157398 -0.00480314 -0.0395901 0.0053104 -0.0973338 -0.0210502)
(0.0189156 -0.00163815 -0.0126796 0.00606798 -0.0938074 -0.0249836)
(0.0189159 0.00163871 0.0126763 0.00606817 -0.0938073 -0.0249841)
(0.0157405 0.00480363 0.0395869 0.00531095 -0.0973335 -0.0210515)
(0.00979817 0.00760107 0.0712767 0.00392974 -0.103806 -0.0137279)
(0.00210311 0.00974305 0.111465 0.00210293 -0.111465 -0.00420604)
(-0.00932232 0.0119024 0.159398 0.00155698 -0.115964 0.00776534)
(-0.00846025 -0.00905239 -0.153711 0.00737347 -0.0805682 0.00108678)
(0.00392813 -0.00760086 -0.103808 0.00979711 -0.071278 -0.0137252)
(0.0129927 -0.00582848 -0.0642873 0.0129931 -0.0642855 -0.0259858)
(0.0198437 -0.00363407 -0.0347098 0.0153284 -0.0594808 -0.0351721)
(0.023434 -0.00123464 -0.0109306 0.0165645 -0.0569937 -0.0399985)
(0.0234343 0.00123507 0.0109277 0.0165647 -0.0569936 -0.039999)
(0.0198444 0.00363444 0.0347069 0.0153289 -0.0594806 -0.0351733)
(0.012994 0.00582874 0.0642844 0.0129938 -0.0642851 -0.0259878)
(0.00392999 0.00760099 0.103805 0.0097981 -0.0712775 -0.0137281)
(-0.00845798 0.00905227 0.153708 0.00737476 -0.0805675 0.00108322)
(-0.0077537 -0.00568164 -0.146889 0.0120085 -0.0470847 -0.00425477)
(0.00530943 -0.0048034 -0.0973355 0.0157397 -0.0395881 -0.0210491)
(0.0153278 -0.0036342 -0.0594826 0.0198438 -0.0347079 -0.0351716)
(0.0227438 -0.00224561 -0.0316177 0.0227441 -0.0316158 -0.045488)
(0.0265161 -0.00076059 -0.00984317 0.0241648 -0.030046 -0.0506809)
(0.0265163 0.00076086 0.00984043 0.0241649 -0.030046 -0.0506812)
(0.0227446 0.00224584 0.0316149 0.0227445 -0.0316157 -0.0454891)
(0.0153291 0.00363437 0.0594799 0.0198444 -0.0347076 -0.0351735)
(0.00531129 0.00480348 0.0973328 0.0157406 -0.0395877 -0.0210519)
(-0.00775143 0.00568154 0.146887 0.0120096 -0.0470842 -0.00425818)
(-0.00736584 -0.00192847 -0.142944 0.0145483 -0.0154475 -0.00718247)
(0.00606674 -0.00163848 -0.0938093 0.0189153 -0.0126774 -0.024982)
(0.0165637 -0.00123487 -0.0569955 0.0234338 -0.0109286 -0.0399975)
(0.0241643 -0.000760707 -0.0300479 0.026516 -0.00984124 -0.0506803)
(0.0279114 -0.000257675 -0.00929954 0.0279115 -0.00929766 -0.0558229)
(0.0279116 0.000257776 0.0092969 0.0279116 -0.00929765 -0.0558232)
(0.0241651 0.000760798 0.0300452 0.0265164 -0.0098412 -0.0506814)
(0.016565 0.00123494 0.0569929 0.0234343 -0.0109285 -0.0399994)
(0.00606861 0.00163853 0.0938066 0.0189161 -0.0126773 -0.0249847)
(-0.00736356 0.00192847 0.142942 0.0145494 -0.0154473 -0.00718581)
(-0.00736594 0.00192833 -0.142944 0.0145482 0.015449 -0.00718227)
(0.00606666 0.00163837 -0.0938093 0.0189152 0.0126787 -0.0249818)
(0.0165636 0.00123478 -0.0569956 0.0234337 0.0109298 -0.0399973)
(0.0241642 0.000760648 -0.0300479 0.0265159 0.0098424 -0.0506802)
(0.0279113 0.000257662 -0.00929954 0.0279114 0.00929879 -0.0558227)
(0.0279116 -0.000257734 0.00929691 0.0279115 0.00929878 -0.055823)
(0.024165 -0.000760702 0.0300453 0.0265162 0.00984238 -0.0506813)
(0.0165649 -0.0012348 0.0569929 0.0234342 0.0109297 -0.0399992)
(0.00606853 -0.00163835 0.0938067 0.0189159 0.0126786 -0.0249845)
(-0.00736366 -0.00192825 0.142942 0.0145493 0.0154489 -0.00718559)
(-0.00775399 0.00568153 -0.146889 0.0120082 0.0470862 -0.00425417)
(0.0053092 0.00480332 -0.0973357 0.0157394 0.0395894 -0.0210486)
(0.0153276 0.00363413 -0.0594827 0.0198434 0.0347091 -0.035171)
(0.0227437 0.00224556 -0.0316177 0.0227438 0.031617 -0.0454875)
(0.026516 0.000760583 -0.00984317 0.0241644 0.0300472 -0.0506804)
(0.0265162 -0.000760822 0.00984045 0.0241645 0.0300471 -0.0506807)
(0.0227445 -0.00224576 0.031615 0.0227442 0.0316169 -0.0454886)
(0.0153289 -0.00363425 0.05948 0.0198441 0.0347089 -0.035173)
(0.00531106 -0.00480333 0.0973329 0.0157402 0.0395891 -0.0210513)
(-0.00775174 -0.00568136 0.146887 0.0120093 0.0470858 -0.00425754)
(-0.0084607 0.00905237 -0.153711 0.00737295 0.0805697 0.00108775)
(0.00392778 0.00760082 -0.103808 0.00979658 0.0712793 -0.0137244)
(0.0129924 0.00582845 -0.0642874 0.0129925 0.0642867 -0.0259849)
(0.0198434 0.00363406 -0.0347099 0.0153278 0.059482 -0.0351712)
(0.0234338 0.00123465 -0.0109306 0.0165639 0.0569948 -0.0399977)
(0.023434 -0.00123503 0.0109277 0.0165641 0.0569948 -0.0399981)
(0.0198442 -0.00363438 0.034707 0.0153283 0.0594818 -0.0351725)
(0.0129937 -0.00582866 0.0642845 0.0129933 0.0642863 -0.0259869)
(0.00392963 -0.00760089 0.103805 0.00979754 0.0712788 -0.0137272)
(-0.00845846 -0.00905218 0.153708 0.0073742 0.0805691 0.00108426)
(-0.00932517 0.0119026 -0.159402 0.00155477 0.115966 0.0077704)
(0.0021008 0.0097429 -0.111468 0.00210099 0.111467 -0.00420179)
(0.00979651 0.00760074 -0.0712801 0.00392804 0.103807 -0.0137246)
(0.0157394 0.00480317 -0.0395902 0.00530956 0.097335 -0.021049)
(0.0189153 0.00163818 -0.0126796 0.00606712 0.0938086 -0.0249825)
(0.0189156 -0.00163868 0.0126764 0.0060673 0.0938085 -0.0249829)
(0.0157402 -0.0048036 0.039587 0.00531009 0.0973346 -0.0210503)
(0.00979777 -0.00760103 0.0712769 0.00392888 0.103807 -0.0137267)
(0.00210265 -0.00974301 0.111465 0.00210207 0.111467 -0.00420472)
(-0.00932291 -0.0119024 0.159399 0.00155609 0.115965 0.00776682)
(-0.00822387 0.0156053 -0.149046 -0.00822359 0.149045 0.0164475)
(0.00155462 0.0119025 -0.115967 -0.00932495 0.159401 0.00777033)
(0.00737297 0.00905221 -0.0805705 -0.00846042 0.15371 0.00108744)
(0.0120083 0.0056813 -0.0470871 -0.00775359 0.146889 -0.0042547)
(0.0145484 0.00192809 -0.01545 -0.00736539 0.142943 -0.00718306)
(0.0145487 -0.00192869 0.0154464 -0.00736514 0.142943 -0.00718356)
(0.012009 -0.00568181 0.0470835 -0.00775286 0.146888 -0.00425617)
(0.00737422 -0.00905249 0.080567 -0.0084593 0.15371 0.00108508)
(0.00155655 -0.0119026 0.115963 -0.00932357 0.1594 0.00776702)
(-0.00822134 -0.0156049 0.149043 -0.00822216 0.149044 0.0164435)
(-0.0022198 -0.00431714 -0.153904 -0.00221829 -0.153901 0.00443809)
(0.000157256 -0.00467639 -0.124345 -0.0029964 -0.169419 0.00283914)
(0.00278428 -0.00407426 -0.0893605 -0.00344257 -0.168126 0.000658296)
(0.00509229 -0.00273833 -0.0535672 -0.00368485 -0.164346 -0.00140743)
(0.00640237 -0.000957486 -0.017821 -0.00377633 -0.161924 -0.00262604)
(0.00640286 0.000958849 0.0178128 -0.0037758 -0.161924 -0.00262706)
(0.00509378 0.00273949 0.0535591 -0.0036833 -0.164345 -0.00141049)
(0.00278683 0.00407496 0.0893526 -0.00344016 -0.168124 0.000653333)
(0.00016124 0.00467654 0.124338 -0.00299339 -0.169417 0.00283215)
(-0.00221455 0.00431634 0.153898 -0.0022151 -0.153899 0.00442965)
(-0.00299757 -0.00467669 -0.169422 0.000158023 -0.124341 0.00283955)
(0.000240331 -0.00498125 -0.125037 0.000241329 -0.125034 -0.00048166)
(0.00410244 -0.00419826 -0.0842028 0.000460004 -0.121137 -0.00456245)
(0.00731924 -0.00275957 -0.0486322 0.00076995 -0.117008 -0.00808919)
(0.00909502 -0.000956288 -0.015912 0.0010071 -0.114612 -0.0101021)
(0.00909551 0.00095745 0.0159049 0.00100749 -0.114612 -0.010103)
(0.00732074 0.00276059 0.0486252 0.000771093 -0.117007 -0.00809183)
(0.00410495 0.004199 0.0841958 0.000461819 -0.121136 -0.00456677)
(0.000244078 0.00498165 0.12503 0.00024369 -0.125032 -0.000487768)
(-0.00299297 0.0046764 0.169416 0.000160951 -0.124339 0.00283202)
(-0.00344411 -0.00407489 -0.168129 0.00278417 -0.089356 0.000659944)
(0.000458654 -0.00419854 -0.121141 0.00410276 -0.0841987 -0.00456141)
(0.00526074 -0.00340168 -0.0799322 0.0052614 -0.0799284 -0.0105221)
(0.00917738 -0.0021659 -0.0454329 0.00629553 -0.0767924 -0.0154729)
(0.0113314 -0.000735813 -0.014757 0.00695802 -0.0751692 -0.0182894)
(0.0113319 0.000736728 0.0147506 0.00695836 -0.075169 -0.0182903)
(0.00917887 0.00216669 0.0454267 0.00629651 -0.0767918 -0.0154754)
(0.00526325 0.00340225 0.079926 0.00526297 -0.0799275 -0.0105262)
(0.000462344 0.00419886 0.121135 0.00410481 -0.0841974 -0.00456716)
(-0.00343959 0.00407467 0.168123 0.00278688 -0.0893544 0.000652719)
(-0.00368699 -0.00273926 -0.164349 0.00509166 -0.0535622 -0.00140466)
(0.000768109 -0.00276013 -0.117011 0.00731907 -0.0486278 -0.00808717)
(0.00629439 -0.00216618 -0.0767962 0.0091775 -0.0454288 -0.0154719)
(0.0108018 -0.00131279 -0.0435318 0.0108023 -0.0435278 -0.0216041)
(0.0133737 -0.000426582 -0.0141865 0.0118608 -0.042723 -0.0252344)
(0.0133742 0.000427212 0.0141806 0.0118611 -0.0427229 -0.0252353)
(0.0108034 0.0013133 0.043526 0.0108031 -0.0435275 -0.0216065)
(0.00629699 0.00216654 0.0767904 0.00917878 -0.0454283 -0.0154758)
(0.000771809 0.00276031 0.117006 0.00732079 -0.048627 -0.0080926)
(-0.00368248 0.00273906 0.164344 0.00509404 -0.0535612 -0.00141156)
(-0.00377921 -0.000958436 -0.161928 0.00640115 -0.0178155 -0.00262194)
(0.0010047 -0.000956994 -0.114616 0.00909425 -0.0159072 -0.010099)
(0.00695637 -0.000736311 -0.0751731 0.0113309 -0.0147526 -0.0182873)
(0.0118599 -0.000426854 -0.0427269 0.0133735 -0.0141823 -0.0252333)
(0.0148934 -0.000133921 -0.0141331 0.0148936 -0.0141289 -0.0297869)
(0.014894 0.000134202 0.0141273 0.0148939 -0.0141289 -0.0297878)
(0.0118615 0.000427076 0.0427213 0.0133742 -0.0141823 -0.0252357)
(0.00695904 0.000736474 0.0751675 0.0113321 -0.0147524 -0.0182911)
(0.00100843 0.000957095 0.11461 0.0090958 -0.0159068 -0.0101042)
(-0.00377467 0.000958408 0.161923 0.00640334 -0.017815 -0.00262867)
(-0.00377941 0.000958014 -0.161928 0.00640096 0.0178187 -0.00262155)
(0.00100455 0.0009567 -0.114616 0.00909405 0.01591 -0.0100986)
(0.00695623 0.000736113 -0.0751732 0.0113307 0.0147552 -0.018287)
(0.0118597 0.00042675 -0.0427269 0.0133732 0.0141849 -0.025233)
(0.0148932 0.000133935 -0.0141331 0.0148933 0.0141314 -0.0297865)
(0.0148938 -0.000134055 0.0141273 0.0148936 0.0141315 -0.0297874)
(0.0118614 -0.000426818 0.0427214 0.013374 0.0141848 -0.0252354)
(0.00695889 -0.000736132 0.0751676 0.0113318 0.0147551 -0.0182907)
(0.00100826 -0.000956672 0.114611 0.00909559 0.0159099 -0.0101039)
(-0.00377489 -0.000957886 0.161923 0.00640313 0.0178185 -0.00262824)
(-0.00368758 0.00273892 -0.164349 0.00509105 0.0535654 -0.00140348)
(0.000767663 0.00275988 -0.117012 0.00731846 0.0486307 -0.00808612)
(0.00629399 0.00216603 -0.0767964 0.00917689 0.0454314 -0.0154709)
(0.0108015 0.00131273 -0.0435318 0.0108017 0.0435303 -0.0216031)
(0.0133733 0.000426615 -0.0141865 0.0118601 0.0427254 -0.0252334)
(0.0133739 -0.000427088 0.0141807 0.0118604 0.0427253 -0.0252342)
(0.010803 -0.00131309 0.0435261 0.0108025 0.04353 -0.0216055)
(0.00629656 -0.00216625 0.0767906 0.00917814 0.045431 -0.0154747)
(0.000771319 -0.00275994 0.117006 0.00732016 0.04863 -0.00809148)
(-0.00368312 -0.00273862 0.164344 0.00509339 0.0535646 -0.00141027)
(-0.00344501 0.00407472 -0.168129 0.00278315 0.0893591 0.000661861)
(0.000457951 0.00419839 -0.121141 0.00410175 0.0842015 -0.0045597)
(0.00526011 0.0034016 -0.0799325 0.00526037 0.079931 -0.0105205)
(0.00917685 0.00216589 -0.0454331 0.00629443 0.0767949 -0.0154713)
(0.0113309 0.000735865 -0.014757 0.00695688 0.0751716 -0.0182878)
(0.0113314 -0.000736625 0.0147508 0.00695721 0.0751715 -0.0182886)
(0.00917831 -0.00216653 0.0454269 0.00629539 0.0767944 -0.0154737)
(0.00526258 -0.00340203 0.0799263 0.00526189 0.0799302 -0.0105245)
(0.000461569 -0.00419859 0.121135 0.00410374 0.0842004 -0.00456531)
(-0.00344059 -0.00407441 0.168124 0.00278578 0.0893577 0.000654806)
(-0.00299869 0.00467672 -0.169423 0.000156441 0.124344 0.00284225)
(0.000239432 0.00498122 -0.125038 0.000239806 0.125036 -0.000479238)
(0.00410164 0.00419826 -0.0842031 0.000458466 0.12114 -0.00456011)
(0.00731855 0.00275962 -0.0486324 0.000768375 0.11701 -0.00808693)
(0.00909438 0.000956354 -0.015912 0.00100549 0.114615 -0.0100999)
(0.00909486 -0.000957373 0.0159051 0.00100586 0.114614 -0.0101007)
(0.00732 -0.0027605 0.0486256 0.000769478 0.117009 -0.00808948)
(0.00410407 -0.00419888 0.0841964 0.000460215 0.121139 -0.00456429)
(0.00024308 -0.00498152 0.125031 0.000242073 0.125035 -0.000485153)
(-0.00299421 -0.00467636 0.169417 0.000159238 0.124343 0.00283497)
(-0.00222095 0.00431748 -0.153905 -0.00222038 0.153903 0.00444133)
(0.000156165 0.00467658 -0.124346 -0.00299827 0.169421 0.0028421)
(0.00278323 0.00407443 -0.0893609 -0.00344444 0.168128 0.000661209)
(0.00509134 0.00273849 -0.0535674 -0.00368676 0.164348 -0.00140458)
(0.00640147 0.000957571 -0.017821 -0.00377828 0.161927 -0.00262319)
(0.00640194 -0.000958842 0.017813 -0.00377777 0.161926 -0.00262417)
(0.00509278 -0.00273957 0.0535596 -0.00368526 0.164347 -0.00140752)
(0.00278568 -0.00407506 0.0893532 -0.00344212 0.168126 0.000656443)
(0.000160017 -0.00467669 0.124339 -0.00299538 0.169419 0.00283537)
(-0.00221585 -0.00431669 0.153899 -0.00221737 0.153902 0.00443322)
(-0.00210467 -0.00322492 -0.158952 -0.00210168 -0.158946 0.00420635)
(-0.000299554 -0.00257297 -0.130736 -0.00260636 -0.177351 0.00290591)
(0.000888506 -0.00206967 -0.0954458 -0.00269885 -0.178358 0.00181035)
(0.00194477 -0.00134662 -0.057916 -0.00275473 -0.176215 0.000809961)
(0.00256272 -0.000464907 -0.0194007 -0.00277327 -0.174646 0.000210544)
(0.0025636 0.00046725 0.0193839 -0.00277234 -0.174645 0.000208744)
(0.00194746 0.00134863 0.0578994 -0.00275203 -0.176212 0.000804577)
(0.000893075 0.00207087 0.0954297 -0.00269467 -0.178354 0.0018016)
(-0.000292389 0.00257325 0.130721 -0.00260115 -0.177346 0.00289354)
(-0.00209518 0.00322354 0.158939 -0.00209623 -0.158941 0.00419141)
(-0.00260861 -0.00257352 -0.177356 -0.000298037 -0.130728 0.00290665)
(-0.000488166 -0.00232222 -0.134208 -0.000486338 -0.134201 0.000974504)
(0.00119703 -0.00196061 -0.0925901 -0.000328899 -0.132492 -0.000868132)
(0.00269369 -0.00128809 -0.0544947 -0.000167819 -0.129844 -0.00252587)
(0.00355179 -0.000443256 -0.018019 -4.57022e-05 -0.128192 -0.00350609)
(0.00355265 0.000445318 0.0180046 -4.5004e-05 -0.128192 -0.00350765)
(0.00269631 0.00128989 0.0544804 -0.000165777 -0.129842 -0.00253053)
(0.00120144 0.00196193 0.0925759 -0.000325656 -0.132489 -0.000875786)
(-0.000481522 0.00232294 0.134194 -0.000482136 -0.134197 0.000963658)
(-0.0026004 0.00257301 0.177343 -0.000292862 -0.130724 0.00289327)
(-0.00270168 -0.00207077 -0.178364 0.000888333 -0.0954368 0.00181335)
(-0.000331306 -0.00196113 -0.132499 0.00119758 -0.0925821 -0.000866274)
(0.00180385 -0.00162318 -0.0900819 0.001805 -0.0900742 -0.00360885)
(0.00367459 -0.00102368 -0.0524215 0.00234321 -0.0880391 -0.00601779)
(0.004729 -0.000339094 -0.0172589 0.00271137 -0.0869129 -0.00744036)
(0.00472984 0.000340735 0.0172461 0.002712 -0.0869125 -0.00744183)
(0.00367717 0.00102507 0.0524088 0.00234498 -0.0880378 -0.00602215)
(0.00180823 0.0016242 0.0900691 0.00180784 -0.090072 -0.00361607)
(-0.000324804 0.00196168 0.132486 0.00120131 -0.092579 -0.000876507)
(-0.00269369 0.00207037 0.178352 0.00089326 -0.0954332 0.00180043)
(-0.0027586 -0.00134829 -0.176221 0.00194362 -0.0579058 0.000814977)
(-0.000171093 -0.00128912 -0.129852 0.00269335 -0.0544858 -0.00252225)
(0.00234119 -0.00102422 -0.0880468 0.00367481 -0.0524133 -0.006016)
(0.00453883 -0.000574145 -0.051173 0.00453974 -0.0511651 -0.00907857)
(0.005831 -0.000163119 -0.0169673 0.00514229 -0.0505567 -0.0109733)
(0.00583191 0.000164238 0.0169553 0.00514282 -0.0505564 -0.0109747)
(0.00454153 0.000574994 0.0511613 0.00454119 -0.0511644 -0.00908271)
(0.00234574 0.00102481 0.0880348 0.00367712 -0.052412 -0.00602285)