/*--------------------------------*- C++ -*----------------------------------*\
| =========                 |                                                 |
| \\      /  F ield         | OpenFOAM: The Open Source CFD Toolbox           |
|  \\    /   O peration     | Version:  2406                                  |
|   \\  /    A nd           | Website:  www.openfoam.com                      |
|    \\/     M anipulation  |                                                 |
\*---------------------------------------------------------------------------*/
FoamFile
{
    version     2.0;
    format      ascii;
    arch        "LSB;label=32;scalar=64";
    class       volVectorField;
    location    "1.3";
    object      U;
}
// * * * * * * * * * * * * * * * * * * * * * * * * * * * * * * * * * * * * * //

dimensions      [0 1 -1 0 0 0 0];

internalField   nonuniform List<vector> 
25000
(
(0.148203 0.148203 1.126)
(0.121741 0.159741 1.15799)
(0.0896824 0.168689 1.17581)
(0.0549326 0.174337 1.18522)
(0.0184807 0.177166 1.18921)
(-0.0184796 0.177166 1.18921)
(-0.0549315 0.174337 1.18522)
(-0.0896814 0.168689 1.17581)
(-0.12174 0.159741 1.15799)
(-0.148203 0.148203 1.126)
(0.159742 0.121741 1.15799)
(0.129921 0.12992 1.18715)
(0.0949526 0.136258 1.19911)
(0.0577452 0.140367 1.20344)
(0.019362 0.142382 1.20465)
(-0.0193609 0.142382 1.20465)
(-0.0577442 0.140367 1.20344)
(-0.0949516 0.136258 1.19911)
(-0.12992 0.12992 1.18715)
(-0.159741 0.121741 1.15799)
(0.16869 0.0896816 1.17581)
(0.136259 0.0949518 1.19911)
(0.0990583 0.0990576 1.20625)
(0.0599534 0.101732 1.20696)
(0.0200498 0.10303 1.20625)
(-0.0200488 0.10303 1.20625)
(-0.0599525 0.101732 1.20696)
(-0.0990574 0.0990576 1.20625)
(-0.136258 0.0949519 1.19911)
(-0.168689 0.0896817 1.17581)
(0.174337 0.0549318 1.18522)
(0.140368 0.0577445 1.20344)
(0.101733 0.0599527 1.20696)
(0.0613924 0.0613917 1.20524)
(0.0204964 0.0620858 1.20331)
(-0.0204954 0.0620858 1.20331)
(-0.0613915 0.0613917 1.20524)
(-0.101732 0.0599527 1.20696)
(-0.140367 0.0577445 1.20344)
(-0.174337 0.0549318 1.18522)
(0.177166 0.0184799 1.18921)
(0.142382 0.0193612 1.20465)
(0.10303 0.020049 1.20625)
(0.0620866 0.0204957 1.20331)
(0.0207111 0.0207104 1.2008)
(-0.0207101 0.0207104 1.2008)
(-0.0620856 0.0204957 1.20331)
(-0.103029 0.020049 1.20625)
(-0.142382 0.0193612 1.20465)
(-0.177166 0.0184799 1.18921)
(0.177166 -0.0184804 1.18921)
(0.142382 -0.0193617 1.20465)
(0.10303 -0.0200496 1.20625)
(0.0620866 -0.0204962 1.20331)
(0.0207111 -0.0207109 1.2008)
(-0.0207101 -0.0207109 1.2008)
(-0.0620856 -0.0204962 1.20331)
(-0.103029 -0.0200496 1.20625)
(-0.142382 -0.0193617 1.20465)
(-0.177166 -0.0184804 1.18921)
(0.174337 -0.0549323 1.18522)
(0.140368 -0.057745 1.20344)
(0.101733 -0.0599532 1.20696)
(0.0613924 -0.0613922 1.20524)
(0.0204964 -0.0620864 1.20331)
(-0.0204954 -0.0620864 1.20331)
(-0.0613915 -0.0613922 1.20524)
(-0.101732 -0.0599532 1.20696)
(-0.140367 -0.057745 1.20344)
(-0.174337 -0.0549323 1.18522)
(0.16869 -0.0896821 1.17581)
(0.136259 -0.0949523 1.19911)
(0.0990583 -0.0990581 1.20625)
(0.0599534 -0.101733 1.20696)
(0.0200498 -0.10303 1.20625)
(-0.0200488 -0.10303 1.20625)
(-0.0599525 -0.101733 1.20696)
(-0.0990574 -0.0990581 1.20625)
(-0.136258 -0.0949524 1.19911)
(-0.168689 -0.0896822 1.17581)
(0.159742 -0.121741 1.15799)
(0.129921 -0.129921 1.18715)
(0.0949526 -0.136259 1.19911)
(0.0577452 -0.140368 1.20344)
(0.019362 -0.142382 1.20465)
(-0.0193609 -0.142382 1.20465)
(-0.0577442 -0.140368 1.20344)
(-0.0949516 -0.136259 1.19911)
(-0.12992 -0.129921 1.18715)
(-0.159741 -0.121741 1.15799)
(0.148203 -0.148203 1.126)
(0.121741 -0.159741 1.15799)
(0.0896824 -0.168689 1.17581)
(0.0549326 -0.174337 1.18522)
(0.0184807 -0.177166 1.18921)
(-0.0184796 -0.177166 1.18921)
(-0.0549315 -0.174337 1.18522)
(-0.0896814 -0.16869 1.17581)
(-0.12174 -0.159742 1.15799)
(-0.148203 -0.148203 1.126)
(0.0508847 0.0508815 1.26779)
(0.0454894 0.0604803 1.35152)
(0.0364079 0.068381 1.40592)
(0.0233705 0.0742042 1.43821)
(0.00804418 0.077204 1.45313)
(-0.0080392 0.0772041 1.45313)
(-0.0233657 0.0742045 1.43821)
(-0.0364033 0.0683816 1.40592)
(-0.0454854 0.0604811 1.35152)
(-0.0508813 0.0508826 1.26779)
(0.0604831 0.0454859 1.35152)
(0.0552624 0.0552593 1.44013)
(0.0441331 0.0630678 1.48894)
(0.0282278 0.0685331 1.51468)
(0.00968618 0.0713443 1.52575)
(-0.00968169 0.0713444 1.52575)
(-0.0282234 0.0685333 1.51468)
(-0.044129 0.0630682 1.48894)
(-0.0552587 0.0552599 1.44013)
(-0.06048 0.0454867 1.35152)
(0.0683835 0.0364042 1.40592)
(0.0630706 0.0441299 1.48894)
(0.0501815 0.0501786 1.53197)
(0.0319898 0.0543467 1.553)
(0.010954 0.0564904 1.56141)
(-0.0109499 0.0564904 1.56141)
(-0.0319858 0.0543468 1.553)
(-0.0501777 0.0501788 1.53198)
(-0.0630672 0.0441303 1.48894)
(-0.0683807 0.0364048 1.40592)
(0.0742064 0.0233669 1.43821)
(0.0685356 0.0282245 1.51468)
(0.0543494 0.0319868 1.553)
(0.0345563 0.0345535 1.57058)
(0.011818 0.035874 1.57707)
(-0.0118141 0.035874 1.57707)
(-0.0345525 0.0345536 1.57058)
(-0.0543458 0.031987 1.553)
(-0.0685324 0.0282247 1.51468)
(-0.0742037 0.0233671 1.43821)
(0.0772059 0.00804059 1.45313)
(0.0713466 0.00968294 1.52575)
(0.0564929 0.0109511 1.56141)
(0.0358767 0.0118151 1.57707)
(0.0122643 0.0122615 1.58252)
(-0.0122604 0.0122615 1.58252)
(-0.035873 0.0118151 1.57707)
(-0.0564894 0.0109511 1.56141)
(-0.0713435 0.00968298 1.52575)
(-0.0772033 0.00804065 1.45314)
(0.0772059 -0.00804264 1.45313)
(0.0713466 -0.00968483 1.52575)
(0.0564929 -0.0109528 1.56141)
(0.0358767 -0.0118169 1.57707)
(0.0122642 -0.0122632 1.58252)
(-0.0122604 -0.0122632 1.58252)
(-0.035873 -0.0118169 1.57707)
(-0.0564894 -0.0109529 1.56141)
(-0.0713435 -0.00968493 1.52575)
(-0.0772033 -0.00804279 1.45313)
(0.0742062 -0.0233689 1.43821)
(0.0685355 -0.0282264 1.51468)
(0.0543493 -0.0319886 1.553)
(0.0345563 -0.0345552 1.57058)
(0.011818 -0.0358757 1.57707)
(-0.0118141 -0.0358757 1.57707)
(-0.0345525 -0.0345553 1.57058)
(-0.0543458 -0.0319887 1.553)
(-0.0685323 -0.0282266 1.51468)
(-0.0742035 -0.0233692 1.43821)
(0.0683832 -0.0364061 1.40592)
(0.0630704 -0.0441317 1.48894)
(0.0501813 -0.0501802 1.53197)
(0.0319897 -0.0543483 1.553)
(0.010954 -0.0564919 1.56141)
(-0.0109499 -0.056492 1.56141)
(-0.0319858 -0.0543484 1.553)
(-0.0501776 -0.0501805 1.53198)
(-0.063067 -0.0441321 1.48894)
(-0.0683804 -0.0364067 1.40592)
(0.0604827 -0.0454877 1.35152)
(0.0552621 -0.0552609 1.44013)
(0.0441329 -0.0630693 1.48894)
(0.0282277 -0.0685345 1.51468)
(0.00968612 -0.0713457 1.52575)
(-0.00968169 -0.0713458 1.52575)
(-0.0282234 -0.0685348 1.51468)
(-0.0441289 -0.0630697 1.48894)
(-0.0552585 -0.0552615 1.44013)
(-0.0604797 -0.0454885 1.35152)
(0.0508842 -0.0508829 1.26779)
(0.045489 -0.0604816 1.35152)
(0.0364076 -0.0683822 1.40592)
(0.0233703 -0.0742053 1.43821)
(0.0080441 -0.0772051 1.45313)
(-0.00803919 -0.0772052 1.45313)
(-0.0233656 -0.0742057 1.43821)
(-0.0364031 -0.0683828 1.40592)
(-0.045485 -0.0604825 1.35152)
(-0.0508809 -0.050884 1.26779)
(0.0294422 0.0294348 1.13915)
(0.0273711 0.0362546 1.26399)
(0.0223885 0.0419292 1.35454)
(0.0146547 0.0461063 1.41276)
(0.00510236 0.0482976 1.44101)
(-0.00509084 0.0482979 1.44102)
(-0.0146435 0.0461073 1.41276)
(-0.0223781 0.0419307 1.35455)
(-0.0273617 0.0362568 1.264)
(-0.0294345 0.0294375 1.13917)
(0.036261 0.0273629 1.26399)
(0.0342704 0.0342633 1.41081)
(0.0281311 0.0399426 1.50483)
(0.0183942 0.0439994 1.56049)
(0.00638901 0.0461065 1.5863)
(-0.00637881 0.0461067 1.5863)
(-0.0183843 0.0440001 1.56049)
(-0.0281218 0.0399437 1.50484)
(-0.0342621 0.0342648 1.41082)
(-0.0362542 0.027365 1.264)
(0.0419347 0.0223801 1.35454)
(0.0399489 0.0281237 1.50483)
(0.0327516 0.032745 1.59723)
(0.0213548 0.0359534 1.64978)
(0.00740347 0.037601 1.67351)
(-0.00739418 0.0376011 1.67351)
(-0.0213458 0.0359538 1.64978)
(-0.0327432 0.0327457 1.59723)
(-0.0399413 0.0281247 1.50484)
(-0.0419286 0.0223815 1.35455)
(0.0461111 0.0146462 1.41275)
(0.044005 0.0183867 1.56049)
(0.0359594 0.0213481 1.64977)
(0.0233818 0.0233755 1.69966)
(0.00809747 0.0244116 1.72196)
(-0.00808874 0.0244116 1.72196)
(-0.0233733 0.0233756 1.69966)
(-0.0359515 0.0213484 1.64978)
(-0.0439979 0.0183872 1.56049)
(-0.0461054 0.0146469 1.41276)
(0.0483018 0.00509401 1.44101)
(0.0461116 0.00638159 1.5863)
(0.0376067 0.0073967 1.67351)
(0.0244176 0.0080911 1.72195)
(0.00845351 0.00844735 1.74357)
(-0.00844505 0.00844737 1.74358)
(-0.0244094 0.00809115 1.72196)
(-0.037599 0.00739678 1.67351)
(-0.0461048 0.00638172 1.5863)
(-0.0482963 0.00509419 1.44102)
(0.0483016 -0.0050988 1.44101)
(0.0461115 -0.00638597 1.5863)
(0.0376066 -0.00740079 1.67351)
(0.0244176 -0.00809502 1.72195)
(0.0084535 -0.00845118 1.74357)
(-0.00844505 -0.00845121 1.74358)
(-0.0244094 -0.00809509 1.72196)
(-0.037599 -0.00740094 1.67351)
(-0.0461047 -0.00638621 1.5863)
(-0.0482961 -0.00509916 1.44102)
(0.0461107 -0.0146508 1.41275)
(0.0440047 -0.0183909 1.56049)
(0.0359592 -0.0213521 1.64977)
(0.0233816 -0.0233793 1.69966)
(0.00809743 -0.0244153 1.72195)
(-0.00808872 -0.0244154 1.72196)
(-0.0233732 -0.0233795 1.69966)
(-0.0359513 -0.0213524 1.64978)
(-0.0439977 -0.0183916 1.56049)
(-0.046105 -0.0146517 1.41276)
(0.041934 -0.0223845 1.35453)
(0.0399483 -0.0281277 1.50483)
(0.0327513 -0.0327487 1.59723)
(0.0213547 -0.0359569 1.64977)
(0.0074034 -0.0376045 1.67351)
(-0.00739415 -0.0376046 1.67351)
(-0.0213457 -0.0359573 1.64978)
(-0.0327429 -0.0327495 1.59723)
(-0.0399409 -0.0281287 1.50483)
(-0.0419279 -0.022386 1.35454)
(0.03626 -0.0273668 1.26399)
(0.0342696 -0.0342668 1.41081)
(0.0281306 -0.0399459 1.50483)
(0.0183939 -0.0440026 1.56049)
(0.00638889 -0.0461096 1.5863)
(-0.00637878 -0.0461098 1.5863)
(-0.0183841 -0.0440032 1.56049)
(-0.0281214 -0.0399471 1.50483)
(-0.0342614 -0.0342685 1.41082)
(-0.0362533 -0.027369 1.264)
(0.0294409 -0.029438 1.13915)
(0.0273701 -0.0362575 1.26399)
(0.0223878 -0.0419319 1.35454)
(0.0146542 -0.0461088 1.41275)
(0.00510216 -0.0483 1.44101)
(-0.0050908 -0.0483003 1.44101)
(-0.0146432 -0.0461098 1.41276)
(-0.0223776 -0.0419334 1.35454)
(-0.0273608 -0.0362597 1.264)
(-0.0294334 -0.0294407 1.13916)
(0.00589633 0.0058812 1.15249)
(0.00667872 0.00822271 1.28428)
(0.00622219 0.0105444 1.38419)
(0.00437814 0.0124108 1.45073)
(0.00158117 0.0134316 1.48378)
(-0.00155745 0.0134323 1.48378)
(-0.00435516 0.0124129 1.45074)
(-0.00620076 0.0105478 1.38421)
(-0.00665951 0.00822752 1.28431)
(-0.00588075 0.00588697 1.15252)
(0.00823593 0.00666185 1.28428)
(0.00975504 0.0097405 1.44581)
(0.00910211 0.01255 1.55604)
(0.00636828 0.0146696 1.62466)
(0.00228377 0.0157944 1.6575)
(-0.00226293 0.0157949 1.6575)
(-0.00634807 0.0146711 1.62467)
(-0.00908322 0.0125524 1.55605)
(-0.00973812 0.00974401 1.44583)
(-0.00822215 0.00666643 1.28431)
(0.0105555 0.00620486 1.38418)
(0.0125625 0.00908711 1.55603)
(0.0115987 0.0115855 1.66971)
(0.00803875 0.0133781 1.73809)
(0.0028646 0.0142874 1.77002)
(-0.00284577 0.0142877 1.77002)
(-0.00802049 0.0133789 1.73809)
(-0.0115816 0.0115869 1.66972)
(-0.0125474 0.00908931 1.55605)
(-0.0105434 0.0062079 1.38421)
(0.0124203 0.0043607 1.45072)
(0.0146807 0.00635311 1.62465)
(0.0133901 0.0080252 1.73808)
(0.00918051 0.00916802 1.80488)
(0.00324912 0.00969501 1.83542)
(-0.00323154 0.00969513 1.83542)
(-0.00916345 0.00916842 1.80489)
(-0.0133742 0.00802594 1.7381)
(-0.0146667 0.00635426 1.62467)
(-0.0124091 0.00436237 1.45074)
(0.0134398 0.00156414 1.48376)
(0.0158044 0.00226881 1.65749)
(0.0142986 0.00285109 1.77001)
(0.0097069 0.00323651 1.83542)
(0.0034135 0.00340136 1.86468)
(-0.00339654 0.00340138 1.86469)
(-0.00969041 0.00323659 1.83542)
(-0.0142832 0.00285123 1.77002)
(-0.0157909 0.00226906 1.6575)
(-0.013429 0.00156452 1.48379)
(0.0134395 -0.0015736 1.48376)
(0.0158042 -0.00227727 1.65749)
(0.0142985 -0.00285888 1.77001)
(0.00970683 -0.00324392 1.83542)
(0.00341347 -0.00340861 1.86468)
(-0.00339654 -0.00340867 1.86468)
(-0.00969037 -0.00324413 1.83542)
(-0.0142831 -0.00285927 1.77002)
(-0.0157907 -0.00227787 1.6575)
(-0.0134287 -0.00157445 1.48379)
(0.0124194 -0.00436987 1.45071)
(0.01468 -0.00636132 1.62465)
(0.0133896 -0.00803277 1.73808)
(0.00918026 -0.00917522 1.80488)
(0.003249 -0.00970206 1.83542)
(-0.00323153 -0.00970222 1.83542)
(-0.00916329 -0.00917575 1.80489)
(-0.0133738 -0.00803374 1.73809)
(-0.0146661 -0.00636281 1.62466)
(-0.0124082 -0.004372 1.45074)
(0.0105541 -0.00621344 1.38418)
(0.0125614 -0.0090948 1.55603)
(0.0115979 -0.0115925 1.6697)
(0.0080383 -0.0133848 1.73808)
(0.00286439 -0.014294 1.77002)
(-0.00284575 -0.0142943 1.77002)
(-0.00802021 -0.0133858 1.73809)
(-0.011581 -0.0115942 1.66971)
(-0.0125464 -0.00909731 1.55604)
(-0.0105419 -0.00621688 1.3842)
(0.00823385 -0.00666957 1.28427)
(0.00975342 -0.00974741 1.4458)
(0.009101 -0.0125563 1.55603)
(0.00636758 -0.0146756 1.62465)
(0.00228344 -0.0158001 1.65749)
(-0.0022629 -0.0158007 1.65749)
(-0.00634765 -0.0146771 1.62466)
(-0.00908234 -0.0125589 1.55604)
(-0.00973667 -0.00975118 1.44582)
(-0.00822016 -0.00667449 1.2843)
(0.00589383 -0.0058875 1.15248)
(0.00667662 -0.00822836 1.28427)
(0.00622067 -0.0105495 1.38418)
(0.00437715 -0.0124155 1.45072)
(0.00158071 -0.0134361 1.48377)
(-0.00155739 -0.0134369 1.48377)
(-0.00435455 -0.0124177 1.45073)
(-0.00619956 -0.010553 1.38419)
(-0.00665764 -0.00823333 1.2843)
(-0.00587838 -0.00589347 1.1525)
(0.00545079 0.00542304 1.11569)
(0.00526365 0.00683416 1.25312)
(0.0044575 0.00809169 1.3594)
(0.00300449 0.00905215 1.43137)
(0.00107378 0.00956837 1.46753)
(-0.00103068 0.00956967 1.46754)
(-0.00296274 0.00905608 1.4314)
(-0.00441853 0.00809807 1.35944)
(-0.00522866 0.00684311 1.25317)
(-0.00542236 0.00543376 1.11576)
(0.00685839 0.00523259 1.25311)
(0.00681511 0.00678839 1.42458)
(0.00586509 0.00820246 1.54501)
(0.0039723 0.00926744 1.62183)
(0.0014138 0.00982618 1.65919)
(-0.00137599 0.0098271 1.6592)
(-0.00393564 0.00927024 1.62185)
(-0.0058308 0.00820717 1.54504)
(-0.00678435 0.00679511 1.42463)
(-0.00683328 0.00524134 1.25317)
(0.00811199 0.00442556 1.35938)
(0.00822543 0.00583753 1.545)
(0.00712348 0.0070993 1.67213)
(0.00481282 0.00800873 1.75082)
(0.00170299 0.00845404 1.78822)
(-0.00166897 0.00845458 1.78822)
(-0.00477982 0.00801041 1.75084)
(-0.00709266 0.00710223 1.67216)
(-0.00819804 0.00584187 1.54505)
(-0.00808992 0.00443153 1.35944)
(0.00906947 0.00297234 1.43135)
(0.00928759 0.00394443 1.62182)
(0.00803053 0.00478807 1.75081)
(0.00537736 0.00535467 1.82889)
(0.00188608 0.00557194 1.86496)
(-0.00185443 0.00557217 1.86496)
(-0.00534663 0.0053555 1.8289)
(-0.00800188 0.00478959 1.75084)
(-0.00926232 0.0039468 1.62186)
(-0.00904919 0.0029758 1.43141)
(0.0095832 0.00104238 1.46749)
(0.00984429 0.00138632 1.65917)
(0.00847432 0.00167831 1.7882)
(0.00559349 0.00186318 1.86495)
(0.001938 0.00191599 1.89881)
(-0.00190748 0.00191604 1.89882)
(-0.00556379 0.00186338 1.86497)
(-0.00844669 0.00167871 1.78823)
(-0.00982004 0.00138698 1.65921)
(-0.00956383 0.0010434 1.46755)
(0.00958264 -0.00106042 1.46749)
(0.00984389 -0.00140234 1.65917)
(0.00847409 -0.00169293 1.7882)
(0.00559338 -0.00187695 1.86495)
(0.00193796 -0.00192938 1.89881)
(-0.00190746 -0.00192948 1.89882)
(-0.0055637 -0.00187728 1.86496)
(-0.00844646 -0.00169354 1.78823)
(-0.00981965 -0.00140328 1.65921)
(-0.00956328 -0.00106174 1.46754)
(0.0090678 -0.00298982 1.43134)
(0.00928638 -0.00395995 1.62181)
(0.00802978 -0.00480225 1.75081)
(0.00537697 -0.00536804 1.82888)
(0.00188594 -0.00558497 1.86495)
(-0.00185435 -0.00558524 1.86496)
(-0.00534628 -0.00536899 1.8289)
(-0.00800117 -0.00480398 1.75083)
(-0.00926114 -0.00396259 1.62185)
(-0.00904754 -0.00299354 1.4314)
(0.00810928 -0.00444186 1.35937)
(0.0082234 -0.00585204 1.54499)
(0.00712217 -0.00711253 1.67212)
(0.00481209 -0.00802118 1.75081)
(0.00170272 -0.00846615 1.78821)
(-0.00166882 -0.00846673 1.78821)
(-0.00477919 -0.00802298 1.75082)
(-0.00709144 -0.00711565 1.67215)
(-0.00819607 -0.00585662 1.54503)
(-0.00808725 -0.00444806 1.35943)
(0.00685459 -0.00524721 1.25309)
(0.00681222 -0.00680139 1.42456)
(0.00586317 -0.00821419 1.54499)
(0.00397116 -0.0092784 1.62181)
(0.00141336 -0.00983679 1.65918)
(-0.00137576 -0.00983774 1.65918)
(-0.00393469 -0.0092813 1.62183)
(-0.00582904 -0.00821906 1.54502)
(-0.00678158 -0.00680831 1.42461)
(-0.00682957 -0.00525614 1.25315)
(0.00544625 -0.00543488 1.11567)
(0.0052599 -0.00684472 1.25309)
(0.00445486 -0.00810108 1.35937)
(0.00300287 -0.00906088 1.43135)
(0.00107314 -0.00957679 1.4675)
(-0.00103036 -0.00957812 1.46751)
(-0.00296141 -0.0090649 1.43137)
(-0.00441615 -0.0081076 1.35941)
(-0.00522513 -0.00685382 1.25314)
(-0.00541801 -0.00544571 1.11573)
(0.000831102 0.000783446 1.12194)
(0.00105104 0.00117215 1.25975)
(0.00105629 0.00159985 1.36708)
(0.000785903 0.00196572 1.44026)
(0.00031142 0.00217326 1.4772)
(-0.000239086 0.00217554 1.47722)
(-0.000715839 0.00197259 1.4403)
(-0.000990909 0.00161099 1.36716)
(-0.000992323 0.00118775 1.25985)
(-0.000783395 0.000802083 1.12207)
(0.00121377 0.000997684 1.25973)
(0.00162291 0.00157703 1.43267)
(0.00163343 0.00215984 1.55556)
(0.00120372 0.00263239 1.63482)
(0.000459942 0.00289308 1.67367)
(-0.000396167 0.00289474 1.67368)
(-0.00114189 0.00263742 1.63486)
(-0.00157562 0.00216827 1.55563)
(-0.00157105 0.00158904 1.43277)
(-0.00117142 0.00101325 1.25986)
(0.00163462 0.00100146 1.36705)
(0.00219915 0.00158614 1.55555)
(0.00219361 0.00215226 1.68667)
(0.00160008 0.00259629 1.76897)
(0.000599475 0.00283117 1.80845)
(-0.000541977 0.00283218 1.80846)
(-0.00154433 0.00259943 1.76901)
(-0.00214158 0.00215769 1.68672)
(-0.00215293 0.00159413 1.55563)
(-0.00159738 0.00101241 1.36717)
(0.00199526 0.000730759 1.44021)
(0.00266672 0.00115595 1.63479)
(0.00263341 0.00155779 1.76896)
(0.00189882 0.00186019 1.85138)
(0.000701455 0.00199556 1.88974)
(-0.000647931 0.00199604 1.88974)
(-0.00184691 0.00186184 1.85141)
(-0.00258507 0.00156077 1.76901)
(-0.0026241 0.00116056 1.63487)
(-0.00196107 0.000737426 1.44032)
(0.0021984 0.000257644 1.47714)
(0.00292377 0.00041293 1.67362)
(0.00286555 0.000557367 1.80842)
(0.00203212 0.000662481 1.88972)
(0.000738136 0.000700743 1.92555)
(-0.000686499 0.000700888 1.92555)
(-0.00198198 0.000662976 1.88975)
(-0.00281895 0.000558313 1.80847)
(-0.00288291 0.000414502 1.6737)
(-0.00216579 0.000260096 1.47724)
(0.00219741 -0.000289953 1.47713)
(0.00292305 -0.000441142 1.67362)
(0.00286512 -0.000582758 1.80841)
(0.00203191 -0.000686171 1.88972)
(0.000738062 -0.000723662 1.92554)
(-0.000686451 -0.000723825 1.92555)
(-0.00198179 -0.000686701 1.88975)
(-0.00281854 -0.000583676 1.80846)
(-0.00288222 -0.000442436 1.67369)
(-0.00216483 -0.000291582 1.47723)
(0.00199225 -0.00076207 1.4402)
(0.00266455 -0.00118331 1.63478)
(0.00263206 -0.00158241 1.76894)
(0.0018981 -0.00188316 1.85137)
(0.000701203 -0.0020178 1.88972)
(-0.000647772 -0.00201831 1.88973)
(-0.00184628 -0.00188483 1.8514)
(-0.0025838 -0.00158534 1.769)
(-0.00262202 -0.00118761 1.63486)
(-0.00195819 -0.000767893 1.4403)
(0.00162971 -0.00103071 1.36702)
(0.00219549 -0.00161173 1.55552)
(0.00219127 -0.00217523 1.68664)
(0.00159877 -0.00261766 1.76895)
(0.000598991 -0.00285182 1.80842)
(-0.000541701 -0.00285285 1.80843)
(-0.00154322 -0.00262082 1.76898)
(-0.00213942 -0.00218059 1.6867)
(-0.00214948 -0.00161939 1.55561)
(-0.00159273 -0.00104078 1.36713)
(0.00120683 -0.00102401 1.25969)
(0.00161765 -0.00160002 1.43263)
(0.00162994 -0.00218024 1.55553)
(0.00120166 -0.0026512 1.63479)
(0.000459139 -0.00291115 1.67363)
(-0.000395788 -0.00291281 1.67365)
(-0.00114024 -0.00265621 1.63483)
(-0.00157253 -0.00218854 1.55559)
(-0.00156623 -0.00161161 1.43272)
(-0.00116499 -0.00103862 1.25981)
(0.000822694 -0.000804871 1.12188)
(0.00104412 -0.00119092 1.2597)
(0.00105144 -0.00161626 1.36703)
(0.000782895 -0.00198077 1.44021)
(0.000310185 -0.00218762 1.47716)
(-0.000238608 -0.00218988 1.47717)
(-0.000713578 -0.00198757 1.44026)
(-0.000986809 -0.00162721 1.36711)
(-0.000986212 -0.00120605 1.2598)
(-0.000775864 -0.000822551 1.12201)
(0.00132749 0.00125179 1.11317)
(0.00126539 0.00156822 1.25234)
(0.00106695 0.00184615 1.36108)
(0.000731706 0.00205741 1.43543)
(0.000294003 0.00217262 1.47303)
(-0.000182073 0.0021762 1.47306)
(-0.0006233 0.0020682 1.43551)
(-0.00096581 0.00186361 1.36122)
(-0.00117459 0.00159255 1.25253)
(-0.00125373 0.00128058 1.11341)
(0.00163482 0.00118026 1.25231)
(0.00158823 0.0015146 1.42745)
(0.00135594 0.0018196 1.55247)
(0.000928986 0.00205369 1.63344)
(0.00035988 0.00217976 1.67324)
(-0.000260245 0.00218244 1.67326)
(-0.000832399 0.00206182 1.63351)
(-0.00126563 0.00183317 1.55259)
(-0.00150723 0.00153381 1.42762)
(-0.0015686 0.00120493 1.25254)
(0.00190197 0.00097931 1.36103)
(0.00188284 0.00127995 1.55244)
(0.00162242 0.00155586 1.68637)
(0.00110965 0.00176419 1.77091)
(0.000420106 0.00187169 1.81161)
(-0.000329807 0.00187338 1.81163)
(-0.00102209 0.00176942 1.77097)
(-0.00154068 0.00156487 1.68647)
(-0.0018102 0.00129312 1.5526)
(-0.00184338 0.000997139 1.36124)
(0.00210487 0.000643542 1.43534)
(0.00210889 0.000852229 1.63338)
(0.00182384 0.00104161 1.77088)
(0.00124098 0.00117893 1.85589)
(0.000462174 0.00123755 1.89561)
(-0.000377953 0.00123842 1.89563)
(-0.0011593 0.0011818 1.85594)
(-0.00174775 0.00104678 1.77098)
(-0.00204176 0.000860149 1.63353)
(-0.00205094 0.000654843 1.43554)
(0.00221296 0.000208048 1.47292)
(0.00222897 0.00028436 1.67316)
(0.00192681 0.000352396 1.81156)
(0.00129614 0.000399587 1.89559)
(0.000474723 0.000414793 1.93271)
(-0.000393471 0.000415102 1.93273)
(-0.00121725 0.000400604 1.89564)
(-0.00185346 0.00035432 1.81165)
(-0.00216462 0.000287498 1.67329)
(-0.00216155 0.00021281 1.47311)
(0.00221118 -0.000263362 1.4729)
(0.00222767 -0.000332462 1.67315)
(0.00192599 -0.000395354 1.81155)
(0.00129571 -0.000439347 1.89558)
(0.000474532 -0.000453031 1.93271)
(-0.000393442 -0.000453235 1.93272)
(-0.00121698 -0.000439994 1.89563)
(-0.00185282 -0.000396433 1.81164)
(-0.00216352 -0.000333874 1.67328)
(-0.00216 -0.000264956 1.47309)
(0.00209948 -0.000697214 1.43531)
(0.00210492 -0.000898918 1.63335)
(0.00182131 -0.00108329 1.77085)
(0.00123954 -0.0012175 1.85587)
(0.000461547 -0.00127467 1.89559)
(-0.000377864 -0.00127543 1.89561)
(-0.0011584 -0.00121998 1.85592)
(-0.00174579 -0.00108758 1.77095)
(-0.00203844 -0.000905054 1.6335)
(-0.00204628 -0.000705276 1.4355)
(0.00189313 -0.00102958 1.36097)
(0.00187609 -0.00132373 1.55239)
(0.00161795 -0.00159483 1.68632)
(0.00110698 -0.00180014 1.77086)
(0.000418896 -0.0019062 1.81157)
(-0.000329697 -0.00190776 1.81159)
(-0.00102054 -0.00180492 1.77092)
(-0.00153738 -0.00160286 1.68643)
(-0.00180475 -0.00133499 1.55254)
(-0.00183592 -0.00104404 1.36118)
(0.00162224 -0.0012257 1.25223)
(0.00157844 -0.0015541 1.42737)
(0.0013492 -0.00185436 1.5524)
(0.000924749 -0.00208545 1.63337)
(0.000357835 -0.00221002 1.67318)
(-0.000260234 -0.00221254 1.6732)
(-0.00083022 -0.00209302 1.63344)
(-0.00126101 -0.00186677 1.55252)
(-0.00149973 -0.00157115 1.42754)
(-0.0015584 -0.00124677 1.25245)
(0.00131212 -0.00128896 1.11306)
(0.00125235 -0.00160067 1.25224)
(0.00105742 -0.00187427 1.36099)
(0.00072537 -0.00208294 1.43534)
(0.000290762 -0.00219676 1.47295)
(-0.000182336 -0.00220014 1.47298)
(-0.000620495 -0.00209306 1.43542)
(-0.000959873 -0.00189043 1.36113)
(-0.00116527 -0.00162272 1.25243)
(-0.00124199 -0.00131417 1.1133)
(0.000230774 0.000121641 1.11503)
(0.000290984 0.000212973 1.2543)
(0.000298167 0.000315674 1.36327)
(0.000242531 0.000404047 1.43787)
(0.000140183 0.000456579 1.47564)
(1.91053e-05 0.000461703 1.47569)
(-8.84127e-05 0.000419411 1.438)
(-0.000154702 0.000340354 1.3635)
(-0.000162691 0.000246897 1.25461)
(-0.000127085 0.000160867 1.11542)
(0.000310491 0.000167469 1.25426)
(0.000411518 0.000303067 1.42971)
(0.000418682 0.000438994 1.55524)
(0.000327453 0.000550245 1.6367)
(0.000165976 0.000613976 1.67681)
(-2.20213e-05 0.000617906 1.67684)
(-0.000188026 0.00056208 1.63682)
(-0.000288564 0.000458536 1.55543)
(-0.000295217 0.000330232 1.42999)
(-0.00021583 0.000201472 1.25463)
(0.000398231 0.000170529 1.36318)
(0.000532993 0.000306369 1.55519)
(0.000536741 0.000437558 1.68993)
(0.000410207 0.000542807 1.7752)
(0.000191828 0.000601531 1.81634)
(-6.01666e-05 0.000604071 1.81637)
(-0.000282654 0.000550579 1.7753)
(-0.000417852 0.000450744 1.6901)
(-0.000427617 0.00032521 1.55545)
(-0.000313507 0.000195254 1.36353)
(0.000474616 0.000113951 1.43773)
(0.000632599 0.000213914 1.63661)
(0.000631948 0.000308778 1.77516)
(0.00047612 0.000383389 1.86109)
(0.000212462 0.000420825 1.90133)
(-8.92108e-05 0.000422176 1.90136)
(-0.000356685 0.000387732 1.86118)
(-0.000520825 0.000316434 1.77532)
(-0.000534749 0.000225293 1.63685)
(-0.000396191 0.000129589 1.43806)
(0.000516659 1.4854e-05 1.47544)
(0.000687336 5.43385e-05 1.67666)
(0.000683735 9.09738e-05 1.81625)
(0.000508243 0.000118988 1.90129)
(0.000220456 0.000131028 1.93894)
(-0.000101645 0.000131526 1.93896)
(-0.000393014 0.000120551 1.90138)
(-0.000576719 9.38208e-05 1.81641)
(-0.000593591 5.87899e-05 1.6769)
(-0.000441879 2.12603e-05 1.47576)
(0.000513683 -9.9304e-05 1.47542)
(0.000684998 -0.000128634 1.67665)
(0.00068213 -0.000157653 1.81624)
(0.000507236 -0.000180781 1.90128)
(0.000219864 -0.000190449 1.93893)
(-0.000101845 -0.000190758 1.93895)
(-0.000392797 -0.000181741 1.90136)
(-0.000575898 -0.000159261 1.81639)
(-0.000592028 -0.00013077 1.67688)
(-0.000439594 -0.000101848 1.47574)
(0.000465598 -0.000195985 1.43767)
(0.000625467 -0.000286112 1.63656)
(0.000626968 -0.00037354 1.77511)
(0.000472875 -0.000443365 1.86105)
(0.00021058 -0.000478501 1.90129)
(-8.98567e-05 -0.000479641 1.90132)
(-0.000355959 -0.000447014 1.86114)
(-0.000518342 -0.000379785 1.77527)
(-0.000530088 -0.00029493 1.6368)
(-0.000389382 -0.000207447 1.43799)
(0.000383433 -0.000247536 1.36308)
(0.000520899 -0.000374243 1.5551)
(0.000528031 -0.000498267 1.68985)
(0.000404328 -0.000598819 1.77513)
(0.000188346 -0.000655203 1.81627)
(-6.14138e-05 -0.000657462 1.8163)
(-0.000281476 -0.000605674 1.77523)
(-0.000413793 -0.000509659 1.69002)
(-0.000420093 -0.000390009 1.55536)
(-0.00030273 -0.000267484 1.36342)
(0.000289487 -0.000237334 1.25411)
(0.000394032 -0.000364551 1.42958)
(0.000405669 -0.000493378 1.55512)
(0.00031832 -0.000599916 1.63659)
(0.000160396 -0.000661158 1.6767)
(-2.41825e-05 -0.000664677 1.67674)
(-0.000186571 -0.000610435 1.63671)
(-0.000283094 -0.000510481 1.55531)
(-0.000285082 -0.000387789 1.42986)
(-0.000201286 -0.000265623 1.25448)
(0.000205221 -0.000179194 1.11485)
(0.000267943 -0.000263939 1.25413)
(0.000280104 -0.000360059 1.36311)
(0.00022928 -0.000444275 1.43772)
(0.000131839 -0.000494388 1.4755)
(1.56149e-05 -0.000498946 1.47554)
(-8.68521e-05 -0.000457865 1.43785)
(-0.00014798 -0.000381641 1.36334)
(-0.000150455 -0.000293117 1.25444)
(-0.000110767 -0.000212046 1.11524)
(0.000403649 0.000265424 1.11276)
(0.000398742 0.000348536 1.25239)
(0.000353408 0.000424479 1.36174)
(0.000272329 0.000482892 1.43665)
(0.000163564 0.000517512 1.47461)
(4.26684e-05 0.000523895 1.47468)
(-7.32211e-05 0.000501874 1.43686)
(-0.000168916 0.000454478 1.36209)
(-0.000235076 0.00038872 1.25287)
(-0.000272738 0.000309831 1.11336)
(0.000475802 0.000240175 1.25233)
(0.000471199 0.000327902 1.42836)
(0.00041604 0.000408258 1.55444)
(0.000312178 0.000470438 1.63633)
(0.00017244 0.000505968 1.67668)
(1.81848e-05 0.000510931 1.67674)
(-0.000127875 0.000485226 1.63651)
(-0.000244712 0.000432162 1.55475)
(-0.000319149 0.000360054 1.4288)
(-0.000353143 0.000278561 1.2529)
(0.000534644 0.00018804 1.3616)
(0.000535051 0.000266313 1.55436)
(0.000472381 0.000337616 1.6898)
(0.000348029 0.000391805 1.77561)
(0.000180383 0.000421331 1.81705)
(-3.60358e-06 0.000424544 1.8171)
(-0.000177001 0.000401505 1.77577)
(-0.000313446 0.000353626 1.69007)
(-0.000394936 0.000288248 1.55477)
(-0.000422739 0.000215194 1.36214)
(0.000578543 0.000104973 1.43642)
(0.000582956 0.000160189 1.63618)
(0.000514202 0.000209767 1.77554)
(0.000373777 0.000246181 1.86209)
(0.000185583 0.000263268 1.90267)
(-1.9126e-05 0.000264931 1.90271)
(-0.000212629 0.000251421 1.86223)
(-0.000364581 0.000218653 1.77579)
(-0.000451685 0.000172654 1.63656)
(-0.000473804 0.000120816 1.43694)
(0.000599824 2.06305e-07 1.47429)
(0.000606776 2.28188e-05 1.67645)
(0.000534556 4.27909e-05 1.8169)
(0.000383816 5.68998e-05 1.9026)
(0.000185734 6.23617e-05 1.94058)
(-2.54234e-05 6.28853e-05 1.94062)
(-0.000228447 5.84444e-05 1.90273)
(-0.000390471 4.5354e-05 1.81715)
(-0.000480856 2.63466e-05 1.67682)
(-0.000499597 4.43793e-06 1.47479)
(0.000595504 -0.000111566 1.47425)
(0.000603064 -0.000124628 1.67642)
(0.00053175 -0.000136537 1.81688)
(0.000381832 -0.000145144 1.90258)
(0.000184378 -0.000147917 1.94057)
(-2.61618e-05 -0.000148477 1.9406)
(-0.000228529 -0.000146947 1.90271)
(-0.000389637 -0.000139811 1.81713)
(-0.000478931 -0.000129549 1.67679)
(-0.000496627 -0.000118494 1.47475)
(0.000565527 -0.000213084 1.43633)
(0.000571709 -0.000259105 1.6361)
(0.000505575 -0.000300828 1.77546)
(0.000367509 -0.000331844 1.86202)
(0.000181336 -0.000346313 1.9026)
(-2.14508e-05 -0.000347956 1.90265)
(-0.000212814 -0.000337115 1.86216)
(-0.000362095 -0.000309991 1.77572)
(-0.000445994 -0.000272346 1.63647)
(-0.000465002 -0.000230817 1.43683)
(0.000513469 -0.000289388 1.36144)
(0.000516224 -0.000359246 1.55422)
(0.000457564 -0.000422991 1.68966)
(0.000336969 -0.000471848 1.77549)
(0.000172796 -0.000498643 1.81693)
(-7.78025e-06 -0.000501665 1.81698)
(-0.000177438 -0.000481045 1.77565)
(-0.00030952 -0.000438372 1.68994)
(-0.000385917 -0.000380721 1.55462)
(-0.000408985 -0.000316884 1.36196)
(0.000446312 -0.000331898 1.2521)
(0.000444612 -0.000411942 1.42816)
(0.000394565 -0.000484723 1.55424)
(0.000295692 -0.000541475 1.63615)
(0.00016095 -0.000573983 1.6765)
(1.17675e-05 -0.000578469 1.67656)
(-0.00012883 -0.000554896 1.63633)
(-0.00023965 -0.000506596 1.55454)
(-0.000307273 -0.000441762 1.42858)
(-0.000334873 -0.000368372 1.25265)
(0.000368816 -0.000340939 1.11247)
(0.000364923 -0.000418343 1.25212)
(0.000324899 -0.00048708 1.36149)
(0.000249713 -0.000540612 1.4364)
(0.000147582 -0.000572153 1.47437)
(3.36319e-05 -0.000577708 1.47443)