/*--------------------------------*- C++ -*----------------------------------*\
| =========                 |                                                 |
| \\      /  F ield         | OpenFOAM: The Open Source CFD Toolbox           |
|  \\    /   O peration     | Version:  2406                                  |
|   \\  /    A nd           | Website:  www.openfoam.com                      |
|    \\/     M anipulation  |                                                 |
\*---------------------------------------------------------------------------*/
FoamFile
{
    version     2.0;
    format      ascii;
    arch        "LSB;label=32;scalar=64";
    class       surfaceScalarField;
    location    "1.6";
    object      phi;
}
// * * * * * * * * * * * * * * * * * * * * * * * * * * * * * * * * * * * * * //

dimensions      [0 3 -1 0 0 0 0];

oriented        oriented;

internalField   nonuniform List<scalar> 
46880
(
5.70227e-05
5.70227e-05
9.25627e-05
-6.58089e-05
-6.58089e-05
4.14847e-05
5.85524e-05
0.000107332
-6.81955e-05
2.17749e-05
5.89973e-05
0.000116854
-6.9121e-05
1.80589e-13
5.91027e-05
0.000121561
-6.94051e-05
-2.17749e-05
5.91027e-05
0.000121561
-6.94051e-05
-4.14847e-05
5.89973e-05
0.000116854
-6.9121e-05
-5.70227e-05
5.85524e-05
0.000107332
-6.81955e-05
5.70227e-05
9.25627e-05
-6.58089e-05
-6.58089e-05
5.85524e-05
4.14847e-05
0.000107332
-6.81955e-05
4.20291e-05
4.20291e-05
0.000121733
2.18254e-05
4.20503e-05
0.000130284
1.83354e-13
4.1986e-05
0.000134326
-2.18254e-05
4.1986e-05
0.000134326
-4.20291e-05
4.20503e-05
0.000130284
-5.85524e-05
4.20291e-05
0.000121733
4.14847e-05
0.000107332
-6.81955e-05
5.89973e-05
2.17749e-05
0.000116854
-6.9121e-05
4.20503e-05
2.18254e-05
0.000130284
2.17158e-05
2.17158e-05
0.000137965
1.48246e-13
2.16254e-05
0.00014148
-2.17158e-05
2.16254e-05
0.00014148
-4.20503e-05
2.17158e-05
0.000137965
-5.89973e-05
2.18254e-05
0.000130284
2.17749e-05
0.000116854
-6.9121e-05
5.91027e-05
9.3261e-13
0.000121561
-6.94051e-05
4.1986e-05
1.15935e-12
0.000134326
2.16254e-05
1.13669e-12
0.00014148
1.20206e-13
1.11353e-12
0.000144691
-2.16254e-05
1.08294e-12
0.000144691
-4.1986e-05
1.05076e-12
0.00014148
-5.91027e-05
1.05585e-12
0.000134326
8.56092e-13
0.000121561
-6.94051e-05
5.91027e-05
-2.17749e-05
0.000121561
-6.94051e-05
4.1986e-05
-2.18254e-05
0.000134326
2.16254e-05
-2.17158e-05
0.00014148
9.00459e-14
-2.16254e-05
0.000144691
-2.16254e-05
-2.16254e-05
0.000144691
-4.1986e-05
-2.17158e-05
0.00014148
-5.91027e-05
-2.18254e-05
0.000134326
-2.17749e-05
0.000121561
-6.94051e-05
5.89973e-05
-4.14846e-05
0.000116854
-6.9121e-05
4.20503e-05
-4.20291e-05
0.000130284
2.17158e-05
-4.20503e-05
0.000137965
5.0016e-14
-4.1986e-05
0.00014148
-2.17158e-05
-4.1986e-05
0.00014148
-4.20503e-05
-4.20503e-05
0.000137965
-5.89973e-05
-4.20291e-05
0.000130284
-4.14846e-05
0.000116854
-6.9121e-05
5.85524e-05
-5.70227e-05
0.000107332
-6.81955e-05
4.20291e-05
-5.85524e-05
0.000121733
2.18254e-05
-5.89973e-05
0.000130284
1.16708e-14
-5.91027e-05
0.000134326
-2.18254e-05
-5.91027e-05
0.000134326
-4.20291e-05
-5.89973e-05
0.000130284
-5.85524e-05
-5.85524e-05
0.000121733
-5.70227e-05
0.000107332
-6.81955e-05
5.70227e-05
9.25627e-05
-6.58089e-05
-6.58089e-05
4.14847e-05
0.000107332
-6.81955e-05
2.17749e-05
0.000116854
-6.9121e-05
-8.49711e-15
0.000121561
-6.94051e-05
-2.17749e-05
0.000121561
-6.94051e-05
-4.14847e-05
0.000116854
-6.9121e-05
-5.70227e-05
0.000107332
-6.81955e-05
9.25627e-05
-6.58089e-05
-6.58089e-05
2.12981e-05
2.12981e-05
9.11553e-05
-2.05944e-05
-2.05944e-05
1.7387e-05
2.43165e-05
0.000110076
-2.31488e-05
9.64834e-06
2.60548e-05
0.000123205
-2.46671e-05
1.16874e-13
2.68715e-05
0.000129837
-2.54995e-05
-9.64834e-06
2.68715e-05
0.000129837
-2.54995e-05
-1.7387e-05
2.60548e-05
0.000123205
-2.46671e-05
-2.12981e-05
2.43165e-05
0.000110076
-2.31488e-05
2.12981e-05
9.11553e-05
-2.05944e-05
-2.05944e-05
2.43165e-05
1.7387e-05
0.000110076
-2.31488e-05
1.97648e-05
1.97648e-05
0.000130836
1.0936e-05
2.11179e-05
0.00014405
9.98707e-14
2.17195e-05
0.000150414
-1.0936e-05
2.17195e-05
0.000150414
-1.97648e-05
2.11179e-05
0.00014405
-2.43165e-05
1.97648e-05
0.000130836
1.7387e-05
0.000110076
-2.31488e-05
2.60548e-05
9.64834e-06
0.000123205
-2.46671e-05
2.11179e-05
1.0936e-05
0.00014405
1.1672e-05
1.1672e-05
0.000156857
6.21597e-14
1.19938e-05
0.000162878
-1.1672e-05
1.19938e-05
0.000162878
-2.11179e-05
1.1672e-05
0.000156857
-2.60548e-05
1.0936e-05
0.00014405
9.64834e-06
0.000123205
-2.46671e-05
2.68715e-05
8.03351e-13
0.000129837
-2.54995e-05
2.17195e-05
9.35699e-13
0.000150414
1.19938e-05
8.86679e-13
0.000162878
3.46863e-14
8.63791e-13
0.000168678
-1.19938e-05
8.36941e-13
0.000168678
-2.17195e-05
8.15348e-13
0.000162878
-2.68715e-05
8.53268e-13
0.000150414
7.45793e-13
0.000129837
-2.54995e-05
2.68715e-05
-9.64834e-06
0.000129837
-2.54995e-05
2.17195e-05
-1.0936e-05
0.000150414
1.19938e-05
-1.1672e-05
0.000162878
8.87303e-15
-1.19938e-05
0.000168678
-1.19938e-05
-1.19938e-05
0.000168678
-2.17195e-05
-1.1672e-05
0.000162878
-2.68715e-05
-1.0936e-05
0.000150414
-9.64834e-06
0.000129837
-2.54995e-05
2.60548e-05
-1.7387e-05
0.000123205
-2.46671e-05
2.11179e-05
-1.97648e-05
0.00014405
1.1672e-05
-2.11179e-05
0.000156857
-2.54257e-14
-2.17195e-05
0.000162878
-1.1672e-05
-2.17195e-05
0.000162878
-2.11179e-05
-2.11179e-05
0.000156857
-2.60548e-05
-1.97648e-05
0.00014405
-1.7387e-05
0.000123205
-2.46671e-05
2.43165e-05
-2.12981e-05
0.000110076
-2.31488e-05
1.97648e-05
-2.43165e-05
0.000130836
1.0936e-05
-2.60548e-05
0.00014405
-6.27789e-14
-2.68715e-05
0.000150414
-1.0936e-05
-2.68715e-05
0.000150414
-1.97648e-05
-2.60548e-05
0.00014405
-2.43165e-05
-2.43165e-05
0.000130836
-2.12981e-05
0.000110076
-2.31488e-05
2.12981e-05
9.11553e-05
-2.05944e-05
-2.05944e-05
1.7387e-05
0.000110076
-2.31488e-05
9.64834e-06
0.000123205
-2.46671e-05
-7.84053e-14
0.000129837
-2.54995e-05
-9.64834e-06
0.000129837
-2.54995e-05
-1.7387e-05
0.000123205
-2.46671e-05
-2.12981e-05
0.000110076
-2.31488e-05
9.11553e-05
-2.05944e-05
-2.05944e-05
1.18127e-05
1.18127e-05
8.91259e-05
-1.0798e-05
-1.0798e-05
9.90265e-06
1.43956e-05
0.000110627
-1.30364e-05
5.62155e-06
1.59718e-05
0.000125963
-1.44489e-05
1.93568e-13
1.67467e-05
0.000133897
-1.51853e-05
-5.62154e-06
1.67467e-05
0.000133897
-1.51853e-05
-9.90265e-06
1.59718e-05
0.000125963
-1.44489e-05
-1.18127e-05
1.43956e-05
0.000110627
-1.30364e-05
1.18127e-05
8.91259e-05
-1.0798e-05
-1.0798e-05
1.43956e-05
9.90265e-06
0.000110627
-1.30364e-05
1.20477e-05
1.20477e-05
0.000135532
6.80902e-06
1.33212e-05
0.000151939
1.46597e-13
1.39201e-05
0.00016005
-6.80902e-06
1.39201e-05
0.00016005
-1.20477e-05
1.33212e-05
0.000151939
-1.43956e-05
1.20477e-05
0.000135532
9.90265e-06
0.000110627
-1.30364e-05
1.59718e-05
5.62155e-06
0.000125963
-1.44489e-05
1.33212e-05
6.80903e-06
0.000151939
7.49972e-06
7.49973e-06
0.0001685
7.60005e-14
7.81056e-06
0.000176487
-7.49972e-06
7.81056e-06
0.000176487
-1.33212e-05
7.49972e-06
0.0001685
-1.59718e-05
6.80902e-06
0.000151939
5.62155e-06
0.000125963
-1.44489e-05
1.67467e-05
9.50075e-13
0.000133897
-1.51853e-05
1.39201e-05
1.03673e-12
0.00016005
7.81056e-06
9.03844e-13
0.000176487
3.00304e-14
8.2321e-13
0.000184299
-7.81056e-06
7.86803e-13
0.000184299
-1.39201e-05
7.99077e-13
0.000176487
-1.67467e-05
8.88072e-13
0.00016005
8.06326e-13
0.000133897
-1.51853e-05
1.67467e-05
-5.62154e-06
0.000133897
-1.51853e-05
1.39201e-05
-6.80902e-06
0.00016005
7.81056e-06
-7.49972e-06
0.000176487
-2.6684e-15
-7.81055e-06
0.000184299
-7.81056e-06
-7.81055e-06
0.000184299
-1.39201e-05
-7.49972e-06
0.000176487
-1.67467e-05
-6.80902e-06
0.00016005
-5.62154e-06
0.000133897
-1.51853e-05
1.59718e-05
-9.90265e-06
0.000125963
-1.44489e-05
1.33212e-05
-1.20476e-05
0.000151939
7.49972e-06
-1.33212e-05
0.0001685
-4.31231e-14
-1.39201e-05
0.000176487
-7.49972e-06
-1.39201e-05
0.000176487
-1.33212e-05
-1.33212e-05
0.0001685
-1.59718e-05
-1.20477e-05
0.000151939
-9.90265e-06
0.000125963
-1.44489e-05
1.43956e-05
-1.18127e-05
0.000110627
-1.30364e-05
1.20477e-05
-1.43956e-05
0.000135532
6.80902e-06
-1.59718e-05
0.000151939
-8.31124e-14
-1.67467e-05
0.00016005
-6.80902e-06
-1.67467e-05
0.00016005
-1.20477e-05
-1.59718e-05
0.000151939
-1.43956e-05
-1.43956e-05
0.000135532
-1.18127e-05
0.000110627
-1.30364e-05
1.18127e-05
8.91259e-05
-1.0798e-05
-1.0798e-05
9.90265e-06
0.000110627
-1.30364e-05
5.62154e-06
0.000125963
-1.44489e-05
-9.77621e-14
0.000133897
-1.51853e-05
-5.62154e-06
0.000133897
-1.51853e-05
-9.90265e-06
0.000125963
-1.44489e-05
-1.18127e-05
0.000110627
-1.30364e-05
8.91259e-05
-1.0798e-05
-1.0798e-05
2.98521e-06
2.98521e-06
8.73785e-05
-2.11152e-06
-2.11152e-06
2.93654e-06
4.20871e-06
0.000109321
-2.85467e-06
1.80601e-06
5.10333e-06
0.000125443
-3.45295e-06
3.91577e-14
5.56796e-06
0.000133927
-3.79171e-06
-1.80601e-06
5.56796e-06
0.000133927
-3.79171e-06
-2.93654e-06
5.10333e-06
0.000125443
-3.45295e-06
-2.98521e-06
4.20871e-06
0.000109321
-2.85467e-06
2.98521e-06
8.73785e-05
-2.11152e-06
-2.11152e-06
4.20871e-06
2.93654e-06
0.000109321
-2.85467e-06
4.13753e-06
4.13753e-06
0.000135674
2.52404e-06
4.95623e-06
0.000153699
9.89243e-15
5.34154e-06
0.0001628
-2.52404e-06
5.34154e-06
0.0001628
-4.13753e-06
4.95623e-06
0.000153699
-4.20871e-06
4.13753e-06
0.000135674
2.93654e-06
0.000109321
-2.85467e-06
5.10333e-06
1.80601e-06
0.000125443
-3.45295e-06
4.95623e-06
2.52404e-06
0.000153699
2.98743e-06
2.98743e-06
0.000172437
-3.17914e-14
3.17437e-06
0.000181642
-2.98743e-06
3.17437e-06
0.000181642
-4.95623e-06
2.98743e-06
0.000172437
-5.10333e-06
2.52404e-06
0.000153699
1.80601e-06
0.000125443
-3.45295e-06
5.56796e-06
9.26072e-13
0.000133927
-3.79171e-06
5.34154e-06
1.04457e-12
0.0001628
3.17437e-06
9.17961e-13
0.000181642
-6.24936e-14
8.11795e-13
0.000190648
-3.17437e-06
7.88601e-13
0.000190648
-5.34154e-06
8.5233e-13
0.000181642
-5.56796e-06
9.70778e-13
0.0001628
8.86381e-13
0.000133927
-3.79171e-06
5.56796e-06
-1.80601e-06
0.000133927
-3.79171e-06
5.34154e-06
-2.52404e-06
0.0001628
3.17437e-06
-2.98743e-06
0.000181642
-8.59403e-14
-3.17437e-06
0.000190648
-3.17437e-06
-3.17437e-06
0.000190648
-5.34154e-06
-2.98743e-06
0.000181642
-5.56796e-06
-2.52404e-06
0.0001628
-1.80601e-06
0.000133927
-3.79171e-06
5.10333e-06
-2.93654e-06
0.000125443
-3.45295e-06
4.95623e-06
-4.13753e-06
0.000153699
2.98743e-06
-4.95623e-06
0.000172437
-1.13032e-13
-5.34154e-06
0.000181642
-2.98743e-06
-5.34154e-06
0.000181642
-4.95623e-06
-4.95623e-06
0.000172437
-5.10333e-06
-4.13753e-06
0.000153699
-2.93654e-06
0.000125443
-3.45295e-06
4.20871e-06
-2.98521e-06
0.000109321
-2.85467e-06
4.13753e-06
-4.20871e-06
0.000135674
2.52404e-06
-5.10333e-06
0.000153699
-1.4982e-13
-5.56796e-06
0.0001628
-2.52404e-06
-5.56796e-06
0.0001628
-4.13753e-06
-5.10333e-06
0.000153699
-4.20871e-06
-4.20871e-06
0.000135674
-2.98521e-06
0.000109321
-2.85467e-06
2.98521e-06
8.73785e-05
-2.11152e-06
-2.11152e-06
2.93654e-06
0.000109321
-2.85467e-06
1.80601e-06
0.000125443
-3.45295e-06
-1.59932e-13
0.000133927
-3.79171e-06
-1.80601e-06
0.000133927
-3.79171e-06
-2.93654e-06
0.000125443
-3.45295e-06
-2.98521e-06
0.000109321
-2.85467e-06
8.73785e-05
-2.11152e-06
-2.11152e-06
1.75855e-06
1.75855e-06
8.68359e-05
-1.48727e-06
-1.48727e-06
1.58507e-06
2.31764e-06
0.000109058
-1.88066e-06
9.44341e-07
2.7317e-06
0.000125519
-2.1672e-06
2.85703e-13
2.94525e-06
0.000134245
-2.31887e-06
-9.44341e-07
2.94525e-06
0.000134245
-2.31887e-06
-1.58507e-06
2.7317e-06
0.000125519
-2.1672e-06
-1.75855e-06
2.31764e-06
0.000109058
-1.88066e-06
1.75855e-06
8.68359e-05
-1.48727e-06
-1.48727e-06
2.31764e-06
1.58508e-06
0.000109058
-1.88066e-06
2.13339e-06
2.13339e-06
0.000136043
1.27625e-06
2.52942e-06
0.000154759
2.33878e-13
2.71285e-06
0.000164309
-1.27625e-06
2.71285e-06
0.000164309
-2.13339e-06
2.52942e-06
0.000154759
-2.31764e-06
2.13339e-06
0.000136043
1.58508e-06
0.000109058
-1.88066e-06
2.7317e-06
9.44342e-07
0.000125519
-2.1672e-06
2.52941e-06
1.27625e-06
0.000154759
1.50567e-06
1.50567e-06
0.000174485
1.40304e-13
1.58998e-06
0.00018427
-1.50567e-06
1.58998e-06
0.00018427
-2.52941e-06
1.50567e-06
0.000174485
-2.7317e-06
1.27625e-06
0.000154759
9.44342e-07
0.000125519
-2.1672e-06
2.94525e-06
1.1958e-12
0.000134245
-2.31887e-06
2.71285e-06
1.31799e-12
0.000164309
1.58997e-06
1.13617e-12
0.00018427
7.15356e-14
9.67706e-13
0.000193828
-1.58997e-06
9.28196e-13
0.000193828
-2.71285e-06
1.01456e-12
0.00018427
-2.94525e-06
1.14198e-12
0.000164309
1.0249e-12
0.000134245
-2.31887e-06
2.94525e-06
-9.4434e-07
0.000134245
-2.31887e-06
2.71285e-06
-1.27624e-06
0.000164309
1.58997e-06
-1.50567e-06
0.00018427
3.27344e-14
-1.58997e-06
0.000193828
-1.58997e-06
-1.58997e-06
0.000193828
-2.71285e-06
-1.50567e-06
0.00018427
-2.94525e-06
-1.27624e-06
0.000164309
-9.4434e-07
0.000134245
-2.31887e-06
2.7317e-06
-1.58507e-06
0.000125519
-2.1672e-06
2.52941e-06
-2.13338e-06
0.000154759
1.50567e-06
-2.52941e-06
0.000174485
3.63713e-15
-2.71285e-06
0.00018427
-1.50567e-06
-2.71285e-06
0.00018427
-2.52941e-06
-2.52941e-06
0.000174485
-2.7317e-06
-2.13338e-06
0.000154759
-1.58507e-06
0.000125519
-2.1672e-06
2.31764e-06
-1.75855e-06
0.000109058
-1.88066e-06
2.13339e-06
-2.31763e-06
0.000136043
1.27625e-06
-2.7317e-06
0.000154759
-2.48122e-14
-2.94525e-06
0.000164309
-1.27625e-06
-2.94525e-06
0.000164309
-2.13339e-06
-2.7317e-06
0.000154759
-2.31764e-06
-2.31763e-06
0.000136043
-1.75855e-06
0.000109058
-1.88066e-06
1.75855e-06
8.68359e-05
-1.48727e-06
-1.48727e-06
1.58507e-06
0.000109058
-1.88066e-06
9.44341e-07
0.000125519
-2.1672e-06
-4.51948e-14
0.000134245
-2.31887e-06
-9.44341e-07
0.000134245
-2.31887e-06
-1.58507e-06
0.000125519
-2.1672e-06
-1.75855e-06
0.000109058
-1.88066e-06
8.68359e-05
-1.48727e-06
-1.48727e-06
6.09094e-07
6.09095e-07
8.65409e-05
-4.61559e-07
-4.61558e-07
5.88221e-07
8.41815e-07
0.000108839
-6.01563e-07
3.62056e-07
1.02624e-06
0.000125434
-7.14691e-07
-1.50743e-14
1.12581e-06
0.00013426
-7.78511e-07
-3.62056e-07
1.12581e-06
0.00013426
-7.78511e-07
-5.88221e-07
1.02624e-06
0.000125434
-7.14691e-07
-6.09094e-07
8.41815e-07
0.000108839
-6.01563e-07
6.09095e-07
8.65409e-05
-4.61559e-07
-4.61559e-07
8.41814e-07
5.88222e-07
0.000108839
-6.01562e-07
8.30744e-07
8.30746e-07
0.000136065
5.13707e-07
1.01887e-06
0.000155083
-4.01081e-14
1.11174e-06
0.000164837
-5.13707e-07
1.11174e-06
0.000164837
-8.30745e-07
1.01887e-06
0.000155083
-8.41815e-07
8.30746e-07
0.000136065
5.88222e-07
0.000108839
-6.01564e-07
1.02624e-06
3.62058e-07
0.000125434
-7.1469e-07
1.01887e-06
5.13708e-07
0.000155083
6.28552e-07
6.28553e-07
0.000175266
-7.13462e-14
6.77036e-07
0.000185334
-6.28552e-07
6.77036e-07
0.000185334
-1.01887e-06
6.28553e-07
0.000175266
-1.02624e-06
5.13708e-07
0.000155083
3.62058e-07
0.000125434
-7.14692e-07
1.12581e-06
1.23769e-12
0.00013426
-7.7851e-07
1.11173e-06
1.41486e-12
0.000164837
6.77035e-07
1.2721e-12
0.000185334
-9.17613e-14
1.12884e-12
0.000195182
-6.77035e-07
1.11337e-12
0.000195182
-1.11173e-06
1.23635e-12
0.000185334
-1.12581e-06
1.39341e-12
0.000164837
1.26438e-12
0.00013426
-7.78512e-07
1.12581e-06
-3.62055e-07
0.00013426
-7.78511e-07
1.11173e-06
-5.13705e-07
0.000164837
6.77035e-07
-6.28551e-07
0.000185334
-1.07077e-13
-6.77034e-07
0.000195182
-6.77035e-07
-6.77034e-07
0.000195182
-1.11173e-06
-6.28551e-07
0.000185334
-1.12581e-06
-5.13705e-07
0.000164837
-3.62055e-07
0.00013426
-7.78512e-07
1.02624e-06
-5.8822e-07
0.000125434
-7.14691e-07
1.01887e-06
-8.30743e-07
0.000155083
6.28552e-07
-1.01887e-06
0.000175266
-1.23116e-13
-1.11173e-06
0.000185334
-6.28552e-07
-1.11173e-06
0.000185334
-1.01887e-06
-1.01887e-06
0.000175266
-1.02624e-06
-8.30743e-07
0.000155083
-5.8822e-07
0.000125434
-7.14692e-07
8.41814e-07
-6.09093e-07
0.000108839
-6.01562e-07
8.30744e-07
-8.41813e-07
0.000136065
5.13707e-07
-1.02624e-06
0.000155083
-1.45735e-13
-1.12581e-06
0.000164837
-5.13707e-07
-1.12581e-06
0.000164837
-8.30745e-07
-1.02624e-06
0.000155083
-8.41815e-07
-8.41813e-07
0.000136065
-6.09093e-07
0.000108839
-6.01563e-07
6.09094e-07
8.65409e-05
-4.61558e-07
-4.61558e-07
5.88221e-07
0.000108839
-6.01562e-07
3.62056e-07
0.000125434
-7.1469e-07
-1.49414e-13
0.00013426
-7.7851e-07
-3.62057e-07
0.00013426
-7.78511e-07
-5.88221e-07
0.000125434
-7.14691e-07
-6.09094e-07
0.000108839
-6.01562e-07
8.65409e-05
-4.61558e-07
-4.61558e-07
3.37042e-07
3.37043e-07
8.64326e-05
-2.82881e-07
-2.82881e-07
3.05728e-07
4.42556e-07
0.000108783
-3.55841e-07
1.82771e-07
5.24016e-07
0.000125443
-4.10568e-07
2.36945e-13
5.67997e-07
0.000134315
-4.40394e-07
-1.8277e-07
5.67997e-07
0.000134315
-4.40394e-07
-3.05727e-07
5.24016e-07
0.000125443
-4.10568e-07
-3.37042e-07
4.42555e-07
0.000108783
-3.55841e-07
3.37043e-07
8.64326e-05
-2.82881e-07
-2.82881e-07
4.42554e-07
3.05729e-07
0.000108783
-3.5584e-07
4.11361e-07
4.11363e-07
0.000136127
2.48164e-07
4.93895e-07
0.000155277
1.91181e-13
5.35806e-07
0.000165117
-2.48164e-07
5.35806e-07
0.000165117
-4.11361e-07
4.93895e-07
0.000155277
-4.42555e-07
4.11362e-07
0.000136127
3.05729e-07
0.000108783
-3.55841e-07
5.24015e-07
1.82772e-07
0.000125443
-4.10567e-07
4.93893e-07
2.48166e-07
0.000155277
2.99349e-07
2.9935e-07
0.000175655
1.06068e-13
3.22832e-07
0.000185846
-2.99349e-07
3.22832e-07
0.000185846
-4.93893e-07
2.9935e-07
0.000175655
-5.24015e-07
2.48165e-07
0.000155277
1.82772e-07
0.000125443
-4.10568e-07
5.67996e-07
1.74925e-12
0.000134315
-4.40393e-07
5.35805e-07
1.92898e-12
0.000165117
3.22831e-07
1.69445e-12
0.000185846
4.35357e-14
1.47198e-12
0.000195828
-3.22831e-07
1.42766e-12
0.000195828
-5.35805e-07
1.56841e-12
0.000185846
-5.67996e-07
1.73493e-12
0.000165117
1.55098e-12
0.000134315
-4.40395e-07
5.67996e-07
-1.82769e-07
0.000134315
-4.40393e-07
5.35805e-07
-2.48162e-07
0.000165117
3.22831e-07
-2.99347e-07
0.000185846
2.53614e-15
-3.22829e-07
0.000195828
-3.22831e-07
-3.22829e-07
0.000195828
-5.35805e-07
-2.99347e-07
0.000185846
-5.67996e-07
-2.48162e-07
0.000165117
-1.82769e-07
0.000134315
-4.40395e-07
5.24015e-07
-3.05726e-07
0.000125443
-4.10567e-07
4.93893e-07
-4.11359e-07
0.000155277
2.99349e-07
-4.93892e-07
0.000175655
-3.10699e-14
-5.35803e-07
0.000185846
-2.99349e-07
-5.35803e-07
0.000185846
-4.93893e-07
-4.93892e-07
0.000175655
-5.24015e-07
-4.11359e-07
0.000155277
-3.05726e-07
0.000125443
-4.10568e-07
4.42554e-07
-3.37041e-07
0.000108783
-3.5584e-07
4.11361e-07
-4.42553e-07
0.000136127
2.48164e-07
-5.24014e-07
0.000155277
-7.42169e-14
-5.67995e-07
0.000165117
-2.48164e-07
-5.67995e-07
0.000165117
-4.11361e-07
-5.24014e-07
0.000155277
-4.42554e-07
-4.42553e-07
0.000136127
-3.37041e-07
0.000108783
-3.55841e-07
3.37042e-07
8.64326e-05
-2.8288e-07
-2.8288e-07
3.05727e-07
0.000108783
-3.55839e-07
1.8277e-07
0.000125443
-4.10567e-07
-8.91352e-14
0.000134315
-4.40393e-07
-1.82771e-07
0.000134315
-4.40393e-07
-3.05728e-07
0.000125443
-4.10567e-07
-3.37042e-07
0.000108783
-3.5584e-07
8.64326e-05
-2.8288e-07
-2.8288e-07
1.51349e-07
1.5135e-07
8.63735e-05
-1.21837e-07
-1.21836e-07
1.4034e-07
2.02146e-07
0.000108747
-1.55427e-07
8.45679e-08
2.41371e-07
0.000125439
-1.81513e-07
-9.78781e-14
2.62704e-07
0.000134333
-1.96085e-07
-8.45681e-08
2.62704e-07
0.000134333
-1.96085e-07
-1.4034e-07
2.41371e-07
0.000125439
-1.81513e-07
-1.51349e-07
2.02146e-07
0.000108747
-1.55427e-07
1.5135e-07
8.63735e-05
-1.21837e-07
-1.21837e-07
2.02144e-07
1.40341e-07
0.000108747
-1.55426e-07
1.91011e-07
1.91013e-07
0.00013615
1.15755e-07
2.3023e-07
0.000155363
-9.40015e-14
2.50411e-07
0.000165245
-1.15756e-07
2.50411e-07
0.000165245
-1.91012e-07
2.30229e-07
0.000155363
-2.02144e-07
1.91013e-07
0.00013615
1.40341e-07
0.000108747
-1.55427e-07
2.41369e-07
8.45698e-08
0.000125439
-1.81511e-07
2.30228e-07
1.15757e-07
0.000155363
1.40054e-07
1.40056e-07
0.000175835
-9.89738e-14
1.51654e-07
0.000186085
-1.40054e-07
1.51654e-07
0.000186085
-2.30228e-07
1.40056e-07
0.000175835
-2.4137e-07
1.15757e-07
0.000155363
8.45699e-08
0.000125439
-1.81513e-07
2.62702e-07
1.68355e-12
0.000134333
-1.96083e-07
2.50409e-07
1.91717e-12
0.000165245
1.51653e-07
1.73458e-12
0.000186085
-1.01426e-13
1.55362e-12
0.000196131
-1.51653e-07
1.54015e-12
0.000196131
-2.50409e-07
1.71682e-12
0.000186085
-2.62703e-07
1.91595e-12
0.000165245
1.73301e-12
0.000134333
-1.96084e-07
2.62702e-07
-8.45665e-08
0.000134333
-1.96083e-07
2.50409e-07
-1.15754e-07
0.000165245
1.51653e-07
-1.40052e-07
0.000186085
-1.14257e-13
-1.51651e-07
0.000196131
-1.51653e-07
-1.51651e-07
0.000196131
-2.50409e-07
-1.40052e-07
0.000186085
-2.62703e-07
-1.15754e-07
0.000165245
-8.45665e-08
0.000134333
-1.96084e-07
2.4137e-07
-1.40338e-07
0.000125439
-1.81512e-07
2.30228e-07
-1.9101e-07
0.000155363
1.40054e-07
-2.30226e-07
0.000175835
-1.29582e-13
-2.50408e-07
0.000186085
-1.40054e-07
-2.50408e-07
0.000186085
-2.30228e-07
-2.30226e-07
0.000175835
-2.4137e-07
-1.9101e-07
0.000155363
-1.40338e-07
0.000125439
-1.81513e-07
2.02144e-07
-1.51348e-07
0.000108747
-1.55426e-07
1.91011e-07
-2.02142e-07
0.00013615
1.15755e-07
-2.41368e-07
0.000155363
-1.61896e-13
-2.62701e-07
0.000165245
-1.15756e-07
-2.62701e-07
0.000165245
-1.91012e-07
-2.41368e-07
0.000155363
-2.02144e-07
-2.02143e-07
0.00013615
-1.51348e-07
0.000108747
-1.55426e-07
1.51349e-07
8.63735e-05
-1.21836e-07
-1.21836e-07
1.4034e-07
0.000108747
-1.55425e-07
8.4568e-08
0.000125439
-1.81511e-07
-1.68502e-13
0.000134333
-1.96083e-07
-8.45683e-08
0.000134333
-1.96083e-07
-1.4034e-07
0.000125439
-1.81512e-07
-1.51349e-07
0.000108747
-1.55426e-07
8.63735e-05
-1.21836e-07
-1.21836e-07
7.90333e-08
7.90347e-08
8.63467e-05
-6.56225e-08
-6.56226e-08
7.18498e-08
1.04054e-07
0.000108733
-8.28796e-08
4.28783e-08
1.23074e-07
0.000125441
-9.59206e-08
5.75582e-13
1.3333e-07
0.000134345
-1.03102e-07
-4.28772e-08
1.3333e-07
0.000134345
-1.03102e-07
-7.18489e-08
1.23074e-07
0.000125441
-9.59201e-08
-7.90328e-08
1.04053e-07
0.000108733
-8.28789e-08
7.9034e-08
8.63467e-05
-6.56225e-08
-6.56224e-08
1.04052e-07
7.18515e-08
0.000108733
-8.28782e-08
9.64211e-08
9.64232e-08
0.000136165
5.78784e-08
1.15181e-07
0.000155409
5.30079e-13
1.24754e-07
0.000165311
-5.78775e-08
1.24754e-07
0.000165311
-9.64205e-08
1.15181e-07
0.000155409
-1.04052e-07
9.64227e-08
0.000136165
7.18509e-08
0.000108733
-8.28791e-08
1.23072e-07
4.288e-08
0.000125441
-9.5919e-08
1.15179e-07
5.78805e-08
0.000155409
6.9419e-08
6.94208e-08
0.000175927
3.85954e-13
7.49053e-08
0.000186204
-6.94183e-08
7.49052e-08
0.000186204
-1.15179e-07
6.94206e-08
0.000175927
-1.23072e-07
5.78801e-08
0.000155409
4.28795e-08
0.000125441
-9.592e-08
1.33329e-07
2.21722e-12
0.000134345
-1.031e-07
1.24752e-07
2.42439e-12
0.000165311
7.49036e-08
2.12233e-12
0.000186204
2.70429e-13
1.83596e-12
0.000196281
-7.49031e-08
1.76609e-12
0.000196281
-1.24752e-07
1.90809e-12
0.000186204
-1.33329e-07
2.08377e-12
0.000165311
1.84292e-12
0.000134345
-1.03101e-07
1.33329e-07
-4.28756e-08
0.000134345
-1.031e-07
1.24752e-07
-5.78757e-08
0.000165311
7.49036e-08
-6.94166e-08
0.000186204
2.01585e-13
-7.49016e-08
0.000196281
-7.49032e-08
-7.49016e-08
0.000196281
-1.24752e-07
-6.94168e-08
0.000186204
-1.33329e-07
-5.7876e-08
0.000165311
-4.28759e-08
0.000134345
-1.03101e-07
1.23072e-07
-7.18475e-08
0.000125441
-9.5919e-08
1.15179e-07
-9.64188e-08
0.000155409
6.94189e-08
-1.15177e-07
0.000175927
1.58832e-13
-1.24751e-07
0.000186204
-6.94186e-08
-1.24751e-07
0.000186204
-1.15179e-07
-1.15178e-07
0.000175927
-1.23072e-07
-9.6419e-08
0.000155409
-7.18476e-08
0.000125441
-9.592e-08
1.04052e-07
-7.90314e-08
0.000108733
-8.28779e-08
9.6421e-08
-1.0405e-07
0.000136165
5.78782e-08
-1.2307e-07
0.000155409
1.1925e-13
-1.33327e-07
0.000165311
-5.7878e-08
-1.33327e-07
0.000165311
-9.64209e-08
-1.2307e-07
0.000155409
-1.04052e-07
-1.0405e-07
0.000136165
-7.90315e-08
0.000108733
-8.28787e-08
7.90328e-08
8.63467e-05
-6.56217e-08
-6.56212e-08
7.18494e-08
0.000108733
-8.28774e-08
4.28778e-08
0.000125441
-9.59185e-08
7.31507e-14
0.000134345
-1.031e-07
-4.28777e-08
0.000134345
-1.031e-07
-7.18493e-08
0.000125441
-9.59187e-08
-7.90326e-08
0.000108733
-8.28779e-08
8.63467e-05
-6.56216e-08
-6.56219e-08
3.8081e-08
3.80826e-08
8.63326e-05
-3.10251e-08
-3.10248e-08
3.50234e-08
5.06169e-08
0.000108725
-3.94626e-08
2.1008e-08
6.01989e-08
0.000125441
-4.59524e-08
3.04621e-13
6.53712e-08
0.00013435
-4.95577e-08
-2.10074e-08
6.53711e-08
0.00013435
-4.95576e-08
-3.5023e-08
6.01986e-08
0.000125441
-4.5952e-08
-3.80808e-08
5.06165e-08
0.000108725
-3.94621e-08
3.80823e-08
8.63326e-05
-3.10252e-08
-3.10246e-08
5.06145e-08
3.50255e-08
0.000108725
-3.94608e-08
4.73938e-08
4.73963e-08
0.000136171
2.85616e-08
5.68267e-08
0.000155432
2.78148e-13
6.16253e-08
0.000165344
-2.85611e-08
6.16252e-08
0.000165344
-4.73935e-08
5.68265e-08
0.000155432
-5.06146e-08
4.7396e-08
0.000136171
3.50253e-08
0.000108725
-3.94618e-08
6.01965e-08
2.101e-08
0.000125441
-4.59502e-08
5.68244e-08
2.85639e-08
0.000155432
3.43453e-08
3.43475e-08
0.000175971
1.73991e-13
3.70869e-08
0.000186263
-3.4345e-08
3.70869e-08
0.000186263
-5.68242e-08
3.43473e-08
0.000175971
-6.01966e-08
2.85637e-08
0.000155432
2.10099e-08
0.000125441
-4.5951e-08
6.53689e-08
2.03265e-12
0.00013435
-4.95556e-08
6.16232e-08
2.2812e-12
0.000165344
3.7085e-08
2.03722e-12
0.000186263
9.93365e-14
1.79905e-12
0.000196355
-3.70848e-08
1.75286e-12
0.000196355
-6.16231e-08
1.91482e-12
0.000186263
-6.5369e-08
2.10298e-12
0.000165344
1.88037e-12
0.00013435
-4.95563e-08
6.5369e-08
-2.10061e-08
0.00013435
-4.95557e-08
6.16232e-08
-2.85594e-08
0.000165344
3.7085e-08
-3.43434e-08
0.000186263
5.33323e-14
-3.70833e-08
0.000196355
-3.70849e-08
-3.70833e-08
0.000196355
-6.16232e-08
-3.43435e-08
0.000186263
-6.53691e-08
-2.85596e-08
0.000165344
-2.10062e-08
0.00013435
-4.95563e-08
6.01967e-08
-3.50218e-08
0.000125441
-4.59504e-08
5.68245e-08
-4.7392e-08
0.000155432
3.43454e-08
-5.68227e-08
0.000175971
3.01775e-14
-6.16216e-08
0.000186263
-3.43453e-08
-6.16217e-08
0.000186263
-5.68245e-08
-5.68229e-08
0.000175971
-6.01967e-08
-4.73922e-08
0.000155432
-3.5022e-08
0.000125441
-4.59509e-08
5.06147e-08
-3.80796e-08
0.000108725
-3.94608e-08
4.7394e-08
-5.06131e-08
0.000136171
2.85616e-08
-6.01952e-08
0.000155432
7.35904e-15
-6.53677e-08
0.000165344
-2.85616e-08
-6.53678e-08
0.000165344
-4.7394e-08
-6.01954e-08
0.000155432
-5.06146e-08
-5.06134e-08
0.000136171
-3.80799e-08
0.000108725
-3.94612e-08
3.80808e-08
8.63326e-05
-3.10239e-08
-3.10238e-08
3.50235e-08
0.000108725
-3.94603e-08
2.10079e-08
0.000125441
-4.59499e-08
-2.53359e-14
0.00013435
-4.95553e-08
-2.1008e-08
0.00013435
-4.95554e-08
-3.50235e-08
0.000125441
-4.59502e-08
-3.80808e-08
0.000108725
-3.94607e-08
8.63326e-05
-3.10243e-08
-3.10241e-08
1.96298e-08
1.96313e-08
8.63257e-05
-1.61663e-08
-1.61663e-08
1.79431e-08
2.59694e-08
0.000108722
-2.04878e-08
1.07363e-08
3.08016e-08
0.000125441
-2.37792e-08
9.02932e-13
3.34042e-08
0.000134353
-2.5597e-08
-1.07346e-08
3.3404e-08
0.000134353
-2.55968e-08
-1.79417e-08
3.08009e-08
0.000125441
-2.37785e-08
-1.96288e-08
2.59682e-08
0.000108722
-2.04865e-08
1.96302e-08
8.63257e-05
-1.61658e-08
-1.61656e-08
2.59671e-08
1.79449e-08
0.000108722
-2.0486e-08
2.4187e-08
2.41892e-08
0.000136175
1.45479e-08
2.89466e-08
0.000155443
7.90788e-13
3.13605e-08
0.00016536
-1.45464e-08
3.13603e-08
0.00016536
-2.41859e-08
2.89461e-08
0.000155443
-2.59665e-08
2.41883e-08
0.000136175
1.79439e-08
0.000108722
-2.04865e-08
3.07993e-08
1.07381e-08
0.000125441
-2.37772e-08
2.89445e-08
1.45499e-08
0.000155443
1.74637e-08
1.74656e-08
0.000175994
5.41446e-13
1.88401e-08
0.000186293
-1.74627e-08
1.884e-08
0.000186293
-2.89438e-08
1.74652e-08
0.000175994
-3.0799e-08
1.45492e-08
0.000155443
1.07373e-08
0.000125441
-2.3778e-08
3.34021e-08
2.46423e-12
0.000134353
-2.55951e-08
3.13586e-08
2.63131e-12
0.00016536
1.88384e-08
2.24609e-12
0.000186293
3.5508e-13
1.89553e-12
0.000196393
-1.88378e-08
1.787e-12
0.000196393
-3.13582e-08
1.90882e-12
0.000186293
-3.3402e-08
2.06202e-12
0.00016536
1.80881e-12
0.000134353
-2.5596e-08
3.34021e-08
-1.07332e-08
0.000134353
-2.55951e-08
3.13586e-08
-1.45447e-08
0.00016536
1.88384e-08
-1.74611e-08
0.000186293
2.46811e-13
-1.88363e-08
0.000196393
-1.8838e-08
-1.88364e-08
0.000196393
-3.13583e-08
-1.74614e-08
0.000186293
-3.34021e-08
-1.45452e-08
0.00016536
-1.07337e-08
0.000134353
-2.55961e-08
3.07992e-08
-1.79404e-08
0.000125441
-2.37771e-08
2.89444e-08
-2.41843e-08
0.000155443
1.74635e-08
-2.89422e-08
0.000175994
1.85333e-13
-3.13566e-08
0.000186293
-1.74631e-08
-3.13567e-08
0.000186293
-2.89442e-08
-2.89425e-08
0.000175994
-3.07992e-08
-2.41846e-08
0.000155443
-1.79407e-08
0.000125441
-2.37781e-08
2.59667e-08
-1.96276e-08
0.000108722
-2.04854e-08
2.41866e-08
-2.59649e-08
0.000136175
1.45474e-08
-3.07975e-08
0.000155443
1.30675e-13
-3.34005e-08
0.00016536
-1.45471e-08
-3.34006e-08
0.00016536
-2.41865e-08
-3.07977e-08
0.000155443
-2.59667e-08
-2.59652e-08
0.000136175
-1.96278e-08
0.000108722
-2.04861e-08
1.9629e-08
8.63257e-05
-1.6165e-08
-1.61645e-08
1.79424e-08
0.000108722
-2.04849e-08
1.07356e-08
0.000125441
-2.37765e-08
7.57066e-14
0.000134353
-2.55946e-08
-1.07355e-08
0.000134353
-2.55946e-08
-1.79423e-08
0.000125441
-2.37768e-08
-1.96288e-08
0.000108722
-2.04854e-08
8.63257e-05
-1.61649e-08
-1.61652e-08
9.77426e-09
9.77553e-09
8.63221e-05
-7.98485e-09
-7.98458e-09
8.98203e-09
1.29828e-08
0.00010872
-1.01457e-08
5.38872e-09
1.54379e-08
0.000125441
-1.18033e-08
-2.16882e-14
1.67633e-08
0.000134355
-1.27223e-08
-5.38875e-09
1.67632e-08
0.000134355
-1.27223e-08
-8.98213e-09
1.54379e-08
0.000125441
-1.18032e-08
-9.77444e-09
1.29827e-08
0.00010872
-1.01455e-08
9.77551e-09
8.63221e-05
-7.98524e-09
-7.9847e-09
1.2981e-08
8.98382e-09
0.00010872
-1.01445e-08
1.21564e-08
1.21584e-08
0.000136177
7.33098e-09
1.45847e-08
0.000155449
-3.44432e-14
1.58188e-08
0.000165369
-7.3311e-09
1.58188e-08
0.000165369
-1.21566e-08
1.45846e-08
0.000155449
-1.29814e-08
1.21583e-08
0.000136177
8.9838e-09
0.00010872
-1.01454e-08
1.54361e-08
5.39056e-09
0.000125441
-1.18017e-08
1.45828e-08
7.33304e-09
0.000155449
8.82143e-09
8.82329e-09
0.000176006
-8.47267e-14
9.52824e-09
0.000186308
-8.82162e-09
9.52822e-09
0.000186308
-1.45831e-08
8.82323e-09
0.000176006