/*--------------------------------*- C++ -*----------------------------------*\
| =========                 |                                                 |
| \\      /  F ield         | OpenFOAM: The Open Source CFD Toolbox           |
|  \\    /   O peration     | Version:  2406                                  |
|   \\  /    A nd           | Website:  www.openfoam.com                      |
|    \\/     M anipulation  |                                                 |
\*---------------------------------------------------------------------------*/
FoamFile
{
    version     2.0;
    format      ascii;
    arch        "LSB;label=32;scalar=64";
    class       volVectorField;
    location    "2.6";
    object      U;
}
// * * * * * * * * * * * * * * * * * * * * * * * * * * * * * * * * * * * * * //

dimensions      [0 1 -1 0 0 0 0];

internalField   nonuniform List<vector> 
16000
(
(0.153132 0.153132 1.11474)
(0.117573 0.168169 1.1542)
(0.072459 0.17688 1.17285)
(0.0244946 0.180953 1.18018)
(-0.0244946 0.180953 1.18018)
(-0.072459 0.17688 1.17285)
(-0.117573 0.168169 1.1542)
(-0.153132 0.153132 1.11474)
(0.168169 0.117573 1.1542)
(0.126109 0.126109 1.18728)
(0.0766337 0.131081 1.19757)
(0.0257137 0.133402 1.19978)
(-0.0257137 0.133402 1.19978)
(-0.0766337 0.131081 1.19757)
(-0.126109 0.126109 1.18728)
(-0.168169 0.117573 1.1542)
(0.17688 0.072459 1.17285)
(0.131081 0.0766337 1.19757)
(0.0792027 0.0792027 1.20176)
(0.0264749 0.0803911 1.20065)
(-0.0264749 0.0803911 1.20065)
(-0.0792027 0.0792027 1.20176)
(-0.131081 0.0766337 1.19757)
(-0.17688 0.072459 1.17285)
(0.180953 0.0244946 1.18018)
(0.133402 0.0257137 1.19978)
(0.0803911 0.0264749 1.20065)
(0.0268183 0.0268183 1.1979)
(-0.0268183 0.0268183 1.1979)
(-0.0803911 0.0264749 1.20065)
(-0.133402 0.0257137 1.19978)
(-0.180953 0.0244946 1.18018)
(0.180953 -0.0244946 1.18018)
(0.133402 -0.0257137 1.19978)
(0.0803911 -0.0264749 1.20065)
(0.0268183 -0.0268183 1.1979)
(-0.0268183 -0.0268183 1.1979)
(-0.0803911 -0.0264749 1.20065)
(-0.133402 -0.0257137 1.19978)
(-0.180953 -0.0244946 1.18018)
(0.17688 -0.072459 1.17285)
(0.131081 -0.0766337 1.19757)
(0.0792027 -0.0792027 1.20176)
(0.0264749 -0.0803911 1.20065)
(-0.0264749 -0.0803911 1.20065)
(-0.0792027 -0.0792027 1.20176)
(-0.131081 -0.0766337 1.19757)
(-0.17688 -0.072459 1.17285)
(0.168169 -0.117573 1.1542)
(0.126109 -0.126109 1.18728)
(0.0766337 -0.131081 1.19757)
(0.0257137 -0.133402 1.19978)
(-0.0257137 -0.133402 1.19978)
(-0.0766337 -0.131081 1.19757)
(-0.126109 -0.126109 1.18728)
(-0.168169 -0.117573 1.1542)
(0.153132 -0.153132 1.11474)
(0.117573 -0.168169 1.1542)
(0.072459 -0.17688 1.17285)
(0.0244946 -0.180953 1.18018)
(-0.0244946 -0.180953 1.18018)
(-0.072459 -0.17688 1.17285)
(-0.117573 -0.168169 1.1542)
(-0.153132 -0.153132 1.11474)
(0.0494154 0.0494154 1.29062)
(0.0414003 0.0615755 1.3895)
(0.0279271 0.0703803 1.44408)
(0.00984083 0.0751711 1.46809)
(-0.00984083 0.0751711 1.46809)
(-0.0279271 0.0703803 1.44408)
(-0.0414003 0.0615755 1.3895)
(-0.0494154 0.0494154 1.29062)
(0.0615755 0.0414003 1.3895)
(0.0531611 0.0531611 1.48728)
(0.0357288 0.0616406 1.53241)
(0.0125458 0.0660227 1.54992)
(-0.0125458 0.0660227 1.54992)
(-0.0357288 0.0616406 1.53241)
(-0.0531611 0.0531611 1.48728)
(-0.0615755 0.0414003 1.3895)
(0.0703803 0.0279271 1.44408)
(0.0616406 0.0357288 1.53241)
(0.0413007 0.0413007 1.57006)
(0.0144349 0.0441146 1.5832)
(-0.0144349 0.0441146 1.5832)
(-0.0413007 0.0413007 1.57006)
(-0.0616406 0.0357288 1.53241)
(-0.0703803 0.0279271 1.44408)
(0.075171 0.00984083 1.46809)
(0.0660227 0.0125458 1.54992)
(0.0441146 0.0144349 1.5832)
(0.0153734 0.0153734 1.59386)
(-0.0153734 0.0153734 1.59386)
(-0.0441146 0.0144349 1.5832)
(-0.0660227 0.0125458 1.54992)
(-0.0751711 0.00984083 1.46809)
(0.075171 -0.00984083 1.46809)
(0.0660227 -0.0125458 1.54992)
(0.0441146 -0.0144349 1.5832)
(0.0153734 -0.0153734 1.59386)
(-0.0153734 -0.0153734 1.59386)
(-0.0441146 -0.0144349 1.5832)
(-0.0660227 -0.0125458 1.54992)
(-0.0751711 -0.00984083 1.46809)
(0.0703803 -0.027927 1.44408)
(0.0616406 -0.0357288 1.53241)
(0.0413007 -0.0413007 1.57006)
(0.0144349 -0.0441146 1.5832)
(-0.0144349 -0.0441146 1.5832)
(-0.0413007 -0.0413007 1.57006)
(-0.0616406 -0.0357288 1.53241)
(-0.0703803 -0.027927 1.44408)
(0.0615755 -0.0414003 1.3895)
(0.0531611 -0.0531611 1.48728)
(0.0357288 -0.0616406 1.53241)
(0.0125458 -0.0660227 1.54992)
(-0.0125458 -0.0660227 1.54992)
(-0.0357288 -0.0616406 1.53241)
(-0.0531611 -0.0531611 1.48728)
(-0.0615755 -0.0414003 1.3895)
(0.0494154 -0.0494154 1.29062)
(0.0414003 -0.0615755 1.3895)
(0.027927 -0.0703803 1.44408)
(0.00984083 -0.075171 1.46809)
(-0.00984083 -0.075171 1.46809)
(-0.0279271 -0.0703803 1.44408)
(-0.0414003 -0.0615755 1.3895)
(-0.0494154 -0.0494154 1.29062)
(0.0295334 0.0295334 1.18369)
(0.0263057 0.0381217 1.33605)
(0.0179588 0.0440247 1.43119)
(0.00638113 0.0472238 1.47636)
(-0.00638113 0.0472238 1.47636)
(-0.0179588 0.0440247 1.43119)
(-0.0263057 0.0381217 1.33605)
(-0.0295334 0.0295334 1.18369)
(0.0381217 0.0263057 1.33605)
(0.03387 0.03387 1.50686)
(0.0231033 0.0393329 1.60045)
(0.00819889 0.0422271 1.64149)
(-0.00819889 0.0422271 1.64149)
(-0.0231033 0.0393329 1.60045)
(-0.03387 0.03387 1.50686)
(-0.0381217 0.0263057 1.33605)
(0.0440247 0.0179588 1.43119)
(0.0393329 0.0231033 1.60045)
(0.0268026 0.0268026 1.68906)
(0.00948465 0.028713 1.72654)
(-0.00948465 0.028713 1.72654)
(-0.0268026 0.0268026 1.68906)
(-0.0393329 0.0231033 1.60045)
(-0.0440247 0.0179588 1.43119)
(0.0472238 0.00638113 1.47636)
(0.042227 0.00819889 1.64149)
(0.028713 0.00948465 1.72654)
(0.0101528 0.0101528 1.76219)
(-0.0101528 0.0101528 1.76219)
(-0.028713 0.00948465 1.72654)
(-0.0422271 0.00819889 1.64149)
(-0.0472238 0.00638113 1.47636)
(0.0472238 -0.00638113 1.47636)
(0.042227 -0.00819889 1.64149)
(0.028713 -0.00948464 1.72654)
(0.0101528 -0.0101528 1.76219)
(-0.0101528 -0.0101528 1.76219)
(-0.028713 -0.00948464 1.72654)
(-0.042227 -0.00819889 1.64149)
(-0.0472238 -0.00638113 1.47636)
(0.0440247 -0.0179588 1.43119)
(0.0393329 -0.0231033 1.60045)
(0.0268026 -0.0268026 1.68906)
(0.00948465 -0.028713 1.72654)
(-0.00948465 -0.028713 1.72654)
(-0.0268026 -0.0268026 1.68906)
(-0.0393329 -0.0231033 1.60045)
(-0.0440247 -0.0179588 1.43119)
(0.0381217 -0.0263057 1.33605)
(0.03387 -0.03387 1.50686)
(0.0231033 -0.0393329 1.60045)
(0.00819889 -0.042227 1.64149)
(-0.00819889 -0.042227 1.64149)
(-0.0231033 -0.0393329 1.60045)
(-0.03387 -0.03387 1.50686)
(-0.0381217 -0.0263057 1.33605)
(0.0295334 -0.0295334 1.18369)
(0.0263057 -0.0381217 1.33605)
(0.0179588 -0.0440247 1.43119)
(0.00638113 -0.0472238 1.47636)
(-0.00638113 -0.0472238 1.47636)
(-0.0179588 -0.0440247 1.43119)
(-0.0263057 -0.0381217 1.33605)
(-0.0295334 -0.0295334 1.18369)
(0.00607788 0.00607788 1.17735)
(0.00678721 0.00932593 1.34012)
(0.00531535 0.0121436 1.44756)
(0.00200434 0.0137879 1.50053)
(-0.00200434 0.0137879 1.50053)
(-0.00531535 0.0121436 1.44756)
(-0.00678721 0.00932593 1.34012)
(-0.00607788 0.00607788 1.17735)
(0.00932593 0.00678721 1.34012)
(0.010642 0.010642 1.53329)
(0.0082524 0.0137676 1.64786)
(0.00308277 0.0154575 1.70082)
(-0.00308277 0.0154575 1.70082)
(-0.0082524 0.0137676 1.64786)
(-0.010642 0.010642 1.53329)
(-0.00932593 0.00678721 1.34012)
(0.0121436 0.00531536 1.44756)
(0.0137676 0.0082524 1.64786)
(0.0104758 0.0104758 1.76219)
(0.00386311 0.0115575 1.81303)
(-0.00386311 0.0115575 1.81303)
(-0.0104758 0.0104758 1.76219)
(-0.0137676 0.0082524 1.64786)
(-0.0121436 0.00531536 1.44756)
(0.0137879 0.00200435 1.50053)
(0.0154575 0.00308277 1.70082)
(0.0115575 0.00386311 1.81303)
(0.00421153 0.00421154 1.8613)
(-0.00421153 0.00421154 1.8613)
(-0.0115575 0.00386311 1.81303)
(-0.0154575 0.00308277 1.70082)
(-0.0137879 0.00200435 1.50053)
(0.0137879 -0.00200434 1.50053)
(0.0154575 -0.00308276 1.70082)
(0.0115575 -0.0038631 1.81303)
(0.00421153 -0.00421153 1.8613)
(-0.00421153 -0.00421153 1.8613)
(-0.0115575 -0.0038631 1.81303)
(-0.0154575 -0.00308276 1.70082)
(-0.0137879 -0.00200434 1.50053)
(0.0121436 -0.00531535 1.44756)
(0.0137676 -0.00825239 1.64786)
(0.0104758 -0.0104758 1.76219)
(0.00386311 -0.0115575 1.81303)
(-0.00386311 -0.0115575 1.81303)
(-0.0104758 -0.0104758 1.76219)
(-0.0137676 -0.00825239 1.64786)
(-0.0121436 -0.00531535 1.44756)
(0.00932593 -0.00678721 1.34012)
(0.010642 -0.0106419 1.53329)
(0.0082524 -0.0137676 1.64786)
(0.00308277 -0.0154575 1.70082)
(-0.00308277 -0.0154575 1.70082)
(-0.0082524 -0.0137676 1.64786)
(-0.010642 -0.0106419 1.53329)
(-0.00932593 -0.00678721 1.34012)
(0.00607788 -0.00607788 1.17735)
(0.00678721 -0.00932593 1.34012)
(0.00531535 -0.0121436 1.44756)
(0.00200434 -0.0137879 1.50053)
(-0.00200434 -0.0137879 1.50053)
(-0.00531535 -0.0121436 1.44756)
(-0.00678721 -0.00932593 1.34012)
(-0.00607788 -0.00607788 1.17735)
(0.00420929 0.00420929 1.15879)
(0.00417758 0.00573707 1.32761)
(0.00305281 0.00697193 1.44156)
(0.00112169 0.00767951 1.4987)
(-0.00112169 0.00767951 1.4987)
(-0.00305281 0.00697193 1.44156)
(-0.00417758 0.00573707 1.32761)
(-0.00420929 0.00420929 1.15879)
(0.00573707 0.00417758 1.32761)
(0.0058271 0.00582711 1.53244)
(0.00432306 0.00720708 1.65824)
(0.00159285 0.00796351 1.71788)
(-0.00159285 0.00796351 1.71788)
(-0.00432306 0.00720708 1.65824)
(-0.0058271 0.0058271 1.53244)
(-0.00573707 0.00417758 1.32761)
(0.00697193 0.00305281 1.44156)
(0.00720708 0.00432306 1.65824)
(0.00533722 0.00533723 1.7871)
(0.00194952 0.00580511 1.84585)
(-0.00194952 0.00580511 1.84585)
(-0.00533722 0.00533722 1.7871)
(-0.00720708 0.00432306 1.65824)
(-0.00697194 0.00305281 1.44156)
(0.00767951 0.00112169 1.4987)
(0.00796351 0.00159285 1.71788)
(0.00580511 0.00194952 1.84585)
(0.00208328 0.00208329 1.90127)
(-0.00208328 0.00208329 1.90127)
(-0.00580511 0.00194952 1.84585)
(-0.00796351 0.00159285 1.71788)
(-0.00767951 0.00112169 1.4987)
(0.00767951 -0.00112169 1.4987)
(0.00796351 -0.00159285 1.71788)
(0.00580511 -0.00194951 1.84585)
(0.00208328 -0.00208328 1.90127)
(-0.00208328 -0.00208328 1.90127)
(-0.00580511 -0.00194951 1.84585)
(-0.00796351 -0.00159285 1.71788)
(-0.00767951 -0.00112169 1.4987)
(0.00697193 -0.00305281 1.44156)
(0.00720707 -0.00432305 1.65824)
(0.00533722 -0.00533722 1.7871)
(0.00194952 -0.0058051 1.84585)
(-0.00194952 -0.0058051 1.84585)
(-0.00533722 -0.00533722 1.7871)
(-0.00720708 -0.00432305 1.65824)
(-0.00697194 -0.00305281 1.44156)
(0.00573707 -0.00417758 1.32761)
(0.0058271 -0.0058271 1.53244)
(0.00432306 -0.00720707 1.65824)
(0.00159285 -0.0079635 1.71788)
(-0.00159285 -0.0079635 1.71788)
(-0.00432306 -0.00720707 1.65824)
(-0.0058271 -0.0058271 1.53244)
(-0.00573707 -0.00417758 1.32761)
(0.00420928 -0.00420928 1.15879)
(0.00417758 -0.00573707 1.32761)
(0.00305281 -0.00697193 1.44156)
(0.00112169 -0.00767951 1.4987)
(-0.00112169 -0.00767951 1.4987)
(-0.00305281 -0.00697193 1.44156)
(-0.00417758 -0.00573707 1.32761)
(-0.00420929 -0.00420929 1.15879)
(0.00130174 0.00130174 1.15563)
(0.00140465 0.00190345 1.3259)
(0.00109256 0.00244352 1.44189)
(0.000412967 0.00276631 1.50046)
(-0.000412967 0.00276631 1.50046)
(-0.00109256 0.00244352 1.44189)
(-0.00140465 0.00190345 1.3259)
(-0.00130174 0.00130174 1.15563)
(0.00190345 0.00140465 1.3259)
(0.00214529 0.0021453 1.53424)
(0.0016872 0.00280356 1.66415)
(0.000637026 0.00317699 1.72646)
(-0.000637026 0.00317699 1.72646)
(-0.0016872 0.00280356 1.66415)
(-0.0021453 0.0021453 1.53424)
(-0.00190345 0.00140465 1.3259)
(0.00244352 0.00109257 1.44189)
(0.00280356 0.0016872 1.66415)
(0.00219038 0.00219038 1.7989)
(0.000816972 0.0024356 1.86114)
(-0.000816972 0.0024356 1.86114)
(-0.00219038 0.00219038 1.7989)
(-0.00280356 0.0016872 1.66415)
(-0.00244352 0.00109257 1.44189)
(0.00276631 0.00041297 1.50046)
(0.00317699 0.000637029 1.72646)
(0.0024356 0.000816975 1.86114)
(0.000886492 0.000886495 1.91993)
(-0.000886493 0.000886495 1.91993)
(-0.0024356 0.000816975 1.86114)
(-0.00317699 0.000637029 1.72646)
(-0.00276631 0.000412971 1.50046)
(0.00276631 -0.000412964 1.50046)
(0.00317699 -0.000637022 1.72646)
(0.0024356 -0.000816969 1.86114)
(0.000886492 -0.00088649 1.91993)
(-0.000886493 -0.00088649 1.91993)
(-0.0024356 -0.000816969 1.86114)
(-0.00317699 -0.000637022 1.72646)
(-0.00276631 -0.000412964 1.50046)
(0.00244352 -0.00109256 1.44189)
(0.00280356 -0.00168719 1.66415)
(0.00219038 -0.00219038 1.7989)
(0.000816972 -0.00243559 1.86114)
(-0.000816972 -0.00243559 1.86114)
(-0.00219038 -0.00219038 1.7989)
(-0.00280356 -0.00168719 1.66415)
(-0.00244352 -0.00109256 1.44189)
(0.00190345 -0.00140465 1.3259)
(0.00214529 -0.00214529 1.53424)
(0.0016872 -0.00280355 1.66415)
(0.000637026 -0.00317699 1.72646)
(-0.000637026 -0.00317699 1.72646)
(-0.0016872 -0.00280355 1.66415)
(-0.0021453 -0.00214529 1.53424)
(-0.00190345 -0.00140465 1.3259)
(0.00130174 -0.00130174 1.15563)
(0.00140465 -0.00190345 1.3259)
(0.00109256 -0.00244352 1.44189)
(0.000412967 -0.00276631 1.50046)
(-0.000412968 -0.00276631 1.50046)
(-0.00109256 -0.00244352 1.44189)
(-0.00140465 -0.00190345 1.3259)
(-0.00130174 -0.00130174 1.15563)
(0.000792205 0.000792206 1.15296)
(0.000788355 0.00108156 1.32433)
(0.000581398 0.00132234 1.44146)
(0.000214721 0.00146385 1.50077)
(-0.00021472 0.00146385 1.50077)
(-0.000581398 0.00132234 1.44146)
(-0.000788355 0.00108156 1.32433)
(-0.000792206 0.000792206 1.15296)
(0.00108156 0.000788358 1.32433)
(0.00110842 0.00110842 1.53467)
(0.000833461 0.00139004 1.66657)
(0.000309536 0.00155285 1.73013)
(-0.000309535 0.00155285 1.73013)
(-0.000833461 0.00139004 1.66657)
(-0.00110842 0.00110842 1.53467)
(-0.00108156 0.000788358 1.32433)
(0.00132233 0.000581402 1.44146)
(0.00139004 0.000833465 1.66657)
(0.00105205 0.00105206 1.80409)
(0.000388559 0.00116372 1.86797)
(-0.000388559 0.00116372 1.86797)
(-0.00105205 0.00105206 1.80409)
(-0.00139004 0.000833465 1.66657)
(-0.00132234 0.000581401 1.44146)
(0.00146385 0.000214725 1.50077)
(0.00155285 0.00030954 1.73013)
(0.00116372 0.000388563 1.86797)
(0.000420373 0.000420376 1.92846)
(-0.000420373 0.000420376 1.92846)
(-0.00116372 0.000388563 1.86797)
(-0.00155285 0.00030954 1.73013)
(-0.00146385 0.000214724 1.50077)
(0.00146385 -0.000214716 1.50077)
(0.00155285 -0.000309531 1.73013)
(0.00116372 -0.000388555 1.86797)
(0.000420373 -0.000420369 1.92846)
(-0.000420373 -0.000420369 1.92846)
(-0.00116372 -0.000388555 1.86797)
(-0.00155285 -0.000309531 1.73013)
(-0.00146385 -0.000214716 1.50077)
(0.00132233 -0.000581394 1.44146)
(0.00139004 -0.000833456 1.66657)
(0.00105205 -0.00105205 1.80409)
(0.000388559 -0.00116372 1.86797)
(-0.000388559 -0.00116372 1.86797)
(-0.00105205 -0.00105205 1.80409)
(-0.00139004 -0.000833456 1.66657)
(-0.00132234 -0.000581394 1.44146)
(0.00108156 -0.00078835 1.32433)
(0.00110842 -0.00110841 1.53467)
(0.00083346 -0.00139004 1.66657)
(0.000309535 -0.00155284 1.73013)
(-0.000309536 -0.00155284 1.73013)
(-0.000833461 -0.00139004 1.66657)
(-0.00110842 -0.00110841 1.53467)
(-0.00108156 -0.000788351 1.32433)
(0.000792202 -0.000792201 1.15296)
(0.000788353 -0.00108155 1.32433)
(0.000581397 -0.00132233 1.44146)
(0.00021472 -0.00146384 1.50077)
(-0.00021472 -0.00146384 1.50077)
(-0.000581398 -0.00132233 1.44146)
(-0.000788354 -0.00108156 1.32433)
(-0.000792204 -0.000792203 1.15296)
(0.000340736 0.000340738 1.1521)
(0.000347865 0.000479673 1.32392)
(0.000260863 0.000598212 1.44154)
(9.69833e-05 0.000668248 1.50117)
(-9.69838e-05 0.000668248 1.50117)
(-0.000260864 0.000598212 1.44154)
(-0.000347866 0.000479673 1.32392)
(-0.000340739 0.000340739 1.1521)
(0.000479668 0.000347869 1.32392)
(0.000505478 0.000505483 1.53513)
(0.000384179 0.00064285 1.6679)
(0.000143137 0.000722072 1.732)
(-0.000143138 0.000722072 1.732)
(-0.00038418 0.00064285 1.6679)
(-0.000505479 0.000505483 1.53513)
(-0.000479672 0.00034787 1.32392)
(0.000598206 0.000260868 1.44154)
(0.000642845 0.000384184 1.6679)
(0.000489664 0.000489669 1.80663)
(0.0001812 0.000544342 1.87124)
(-0.000181201 0.000544342 1.87124)
(-0.000489665 0.000489669 1.80663)
(-0.000642847 0.000384184 1.6679)
(-0.00059821 0.000260868 1.44154)
(0.000668241 9.6988e-05 1.50117)
(0.000722067 0.000143142 1.732)
(0.000544337 0.000181205 1.87124)
(0.000196974 0.000196978 1.93251)
(-0.000196975 0.000196978 1.93251)
(-0.000544338 0.000181205 1.87124)
(-0.000722068 0.000143142 1.732)
(-0.000668244 9.69882e-05 1.50117)
(0.000668241 -9.69793e-05 1.50117)
(0.000722067 -0.000143133 1.732)
(0.000544337 -0.000181196 1.87124)
(0.000196974 -0.000196971 1.93251)
(-0.000196975 -0.000196971 1.93251)
(-0.000544338 -0.000181196 1.87124)
(-0.000722068 -0.000143133 1.732)
(-0.000668244 -9.69792e-05 1.50117)
(0.000598206 -0.00026086 1.44154)
(0.000642845 -0.000384175 1.6679)
(0.000489664 -0.00048966 1.80663)
(0.0001812 -0.000544334 1.87124)
(-0.000181201 -0.000544334 1.87124)
(-0.000489665 -0.000489661 1.80663)
(-0.000642846 -0.000384175 1.6679)
(-0.000598208 -0.00026086 1.44154)
(0.000479668 -0.000347861 1.32392)
(0.000505478 -0.000505474 1.53513)
(0.000384179 -0.000642842 1.6679)
(0.000143137 -0.000722064 1.732)
(-0.000143138 -0.000722064 1.732)
(-0.00038418 -0.000642842 1.6679)
(-0.000505478 -0.000505475 1.53513)
(-0.000479669 -0.000347862 1.32392)
(0.000340735 -0.000340734 1.1521)
(0.000347864 -0.000479665 1.32392)
(0.000260863 -0.000598204 1.44154)
(9.69832e-05 -0.000668239 1.50117)
(-9.69841e-05 -0.00066824 1.50117)
(-0.000260864 -0.000598205 1.44154)
(-0.000347865 -0.000479667 1.32392)
(-0.000340736 -0.000340735 1.1521)
(0.000183379 0.00018338 1.15155)
(0.000182636 0.000252986 1.32363)
(0.0001345 0.00031088 1.44151)
(4.95862e-05 0.000344804 1.5013)
(-4.95833e-05 0.000344803 1.5013)
(-0.000134498 0.000310878 1.44151)
(-0.000182634 0.000252983 1.32363)
(-0.000183379 0.000183379 1.15155)
(0.000252981 0.00018264 1.32363)
(0.000258956 0.000258961 1.5353)
(0.000193546 0.000324769 1.66852)
(7.15912e-05 0.000362584 1.73289)
(-7.15886e-05 0.000362584 1.73289)
(-0.000193544 0.000324768 1.66852)
(-0.000258955 0.000258959 1.5353)
(-0.000252983 0.000182639 1.32363)
(0.000310875 0.000134504 1.44151)
(0.000324765 0.000193551 1.66852)
(0.000243696 0.000243701 1.80785)
(8.96179e-05 0.000269588 1.87281)
(-8.96161e-05 0.000269587 1.87281)
(-0.000243695 0.0002437 1.80785)
(-0.000324764 0.00019355 1.66852)
(-0.000310877 0.000134503 1.44151)
(0.000344798 4.95905e-05 1.5013)
(0.000362579 7.1596e-05 1.73289)
(0.000269583 8.96223e-05 1.87281)
(9.70176e-05 9.70215e-05 1.93446)
(-9.70164e-05 9.70213e-05 1.93446)
(-0.000269582 8.96217e-05 1.87281)
(-0.000362579 7.1595e-05 1.73289)
(-0.000344801 4.95895e-05 1.5013)
(0.000344798 -4.95791e-05 1.5013)
(0.000362579 -7.15839e-05 1.73289)
(0.000269583 -8.96118e-05 1.87281)
(9.70175e-05 -9.70126e-05 1.93446)
(-9.70165e-05 -9.70127e-05 1.93446)
(-0.000269582 -8.96123e-05 1.87281)
(-0.000362579 -7.15846e-05 1.73289)
(-0.000344801 -4.958e-05 1.5013)
(0.000310873 -0.000134494 1.44151)
(0.000324764 -0.00019354 1.66852)
(0.000243696 -0.000243691 1.80785)
(8.96174e-05 -0.000269578 1.87281)
(-8.96166e-05 -0.000269578 1.87281)
(-0.000243695 -0.000243691 1.80785)
(-0.000324764 -0.00019354 1.66852)
(-0.000310876 -0.000134494 1.44151)
(0.000252979 -0.00018263 1.32363)
(0.000258955 -0.00025895 1.5353)
(0.000193545 -0.000324759 1.66852)
(7.15901e-05 -0.000362575 1.73289)
(-7.15895e-05 -0.000362575 1.73289)
(-0.000193545 -0.00032476 1.66852)
(-0.000258955 -0.000258951 1.5353)
(-0.000252981 -0.000182631 1.32363)
(0.000183375 -0.000183374 1.15155)
(0.000182634 -0.000252976 1.32363)
(0.000134499 -0.00031087 1.44151)
(4.95849e-05 -0.000344795 1.5013)
(-4.95846e-05 -0.000344795 1.5013)
(-0.000134498 -0.000310871 1.44151)
(-0.000182634 -0.000252978 1.32363)
(-0.000183377 -0.000183376 1.15155)
(8.67717e-05 8.67735e-05 1.15132)
(8.77099e-05 0.000121326 1.32351)
(6.52146e-05 0.000150478 1.44152)
(2.41382e-05 0.000167611 1.50139)
(-2.41366e-05 0.000167611 1.50139)
(-6.52134e-05 0.000150477 1.44152)
(-8.77092e-05 0.000121324 1.32351)
(-8.67726e-05 8.67732e-05 1.15132)
(0.000121319 8.77138e-05 1.32351)
(0.000126291 0.000126297 1.53541)
(9.51093e-05 0.000159577 1.66884)
(3.52684e-05 0.000178636 1.73335)
(-3.52671e-05 0.000178636 1.73335)
(-9.51083e-05 0.000159576 1.66884)
(-0.000126291 0.000126296 1.53541)
(-0.000121321 8.77134e-05 1.32351)
(0.00015047 6.52193e-05 1.44152)
(0.000159571 9.51148e-05 1.66884)
(0.000120352 0.000120357 1.80847)
(4.43135e-05 0.000133317 1.8736)
(-4.43127e-05 0.000133317 1.8736)
(-0.000120351 0.000120357 1.80847)
(-0.000159571 9.51142e-05 1.66884)
(-0.000150472 6.52189e-05 1.44152)
(0.000167603 2.41428e-05 1.50139)
(0.00017863 3.52737e-05 1.73335)
(0.000133312 4.43183e-05 1.8736)
(4.80029e-05 4.80072e-05 1.93544)
(-4.80025e-05 4.80071e-05 1.93544)
(-0.000133312 4.43179e-05 1.8736)
(-0.00017863 3.52732e-05 1.73335)
(-0.000167605 2.41425e-05 1.50139)
(0.000167603 -2.41324e-05 1.50139)
(0.00017863 -3.52623e-05 1.73335)
(0.000133312 -4.43083e-05 1.8736)
(4.80029e-05 -4.79985e-05 1.93544)
(-4.80026e-05 -4.79986e-05 1.93544)
(-0.000133312 -4.43085e-05 1.8736)
(-0.00017863 -3.52627e-05 1.73335)
(-0.000167604 -2.41328e-05 1.50139)
(0.00015047 -6.52096e-05 1.44152)
(0.000159571 -9.5104e-05 1.66884)
(0.000120352 -0.000120347 1.80847)
(4.43132e-05 -0.000133308 1.8736)
(-4.4313e-05 -0.000133308 1.8736)
(-0.000120352 -0.000120347 1.80847)
(-0.000159571 -9.51043e-05 1.66884)
(-0.000150471 -6.52099e-05 1.44152)
(0.000121318 -8.77049e-05 1.32351)
(0.000126291 -0.000126287 1.53541)
(9.51089e-05 -0.000159567 1.66884)
(3.52678e-05 -0.000178626 1.73335)
(-3.52678e-05 -0.000178627 1.73335)
(-9.51089e-05 -0.000159568 1.66884)
(-0.000126291 -0.000126287 1.53541)
(-0.000121318 -8.77055e-05 1.32351)
(8.6769e-05 -8.67679e-05 1.15132)
(8.77083e-05 -0.000121315 1.32351)
(6.5214e-05 -0.000150468 1.44152)
(2.41374e-05 -0.000167601 1.50139)
(-2.41376e-05 -0.000167601 1.50139)
(-6.52141e-05 -0.000150469 1.44152)
(-8.77085e-05 -0.000121317 1.32351)
(-8.67698e-05 -8.67689e-05 1.15132)
(4.52185e-05 4.52205e-05 1.15119)
(4.53639e-05 6.27495e-05 1.32345)
(3.35602e-05 7.74236e-05 1.44152)
(1.23974e-05 8.60292e-05 1.50143)
(-1.23929e-05 8.60281e-05 1.50143)
(-3.35561e-05 7.74204e-05 1.44152)
(-4.53601e-05 6.27444e-05 1.32345)
(-4.52166e-05 4.52173e-05 1.15119)
(6.27433e-05 4.53676e-05 1.32345)
(6.47566e-05 6.47619e-05 1.53546)
(4.8578e-05 8.14853e-05 1.669)
(1.7989e-05 9.10624e-05 1.73357)
(-1.79852e-05 9.10618e-05 1.73357)
(-4.85746e-05 8.14833e-05 1.669)
(-6.4754e-05 6.47587e-05 1.53546)
(-6.27433e-05 4.53646e-05 1.32345)
(7.74169e-05 3.35645e-05 1.44152)
(8.14801e-05 4.8583e-05 1.669)
(6.12727e-05 6.12774e-05 1.80878)
(2.25355e-05 6.77831e-05 1.874)
(-2.2533e-05 6.77827e-05 1.874)
(-6.12705e-05 6.12761e-05 1.80878)
(-8.14786e-05 4.85809e-05 1.669)
(-7.74181e-05 3.35623e-05 1.44152)
(8.60227e-05 1.24016e-05 1.50143)
(9.10575e-05 1.79938e-05 1.73357)
(6.77788e-05 2.25399e-05 1.874)
(2.43786e-05 2.43825e-05 1.93593)
(-2.43769e-05 2.43822e-05 1.93593)
(-6.77773e-05 2.2539e-05 1.874)
(-9.10567e-05 1.79922e-05 1.73357)
(-8.60245e-05 1.23998e-05 1.50143)
(8.6022e-05 -1.23889e-05 1.50143)
(9.10571e-05 -1.79807e-05 1.73357)
(6.77785e-05 -2.25288e-05 1.874)
(2.43783e-05 -2.43732e-05 1.93593)
(-2.43772e-05 -2.43735e-05 1.93593)
(-6.77775e-05 -2.25296e-05 1.874)
(-9.10567e-05 -1.79819e-05 1.73357)
(-8.60245e-05 -1.23904e-05 1.50143)
(7.74149e-05 -3.35525e-05 1.44152)
(8.14787e-05 -4.85703e-05 1.669)
(6.12717e-05 -6.12664e-05 1.80878)
(2.25347e-05 -6.77735e-05 1.874)
(-2.25338e-05 -6.77737e-05 1.874)
(-6.12711e-05 -6.1267e-05 1.80878)
(-8.14786e-05 -4.85712e-05 1.669)
(-7.74177e-05 -3.35537e-05 1.44152)
(6.27392e-05 -4.53558e-05 1.32345)
(6.4754e-05 -6.47493e-05 1.53546)
(4.85762e-05 -8.14742e-05 1.669)
(1.79873e-05 -9.10526e-05 1.73357)
(-1.79867e-05 -9.10527e-05 1.73357)
(-4.85757e-05 -8.14747e-05 1.669)
(-6.4754e-05 -6.47502e-05 1.53546)
(-6.2742e-05 -4.53573e-05 1.32345)
(4.52127e-05 -4.5212e-05 1.15119)
(4.53597e-05 -6.27364e-05 1.32345)
(3.35579e-05 -7.74117e-05 1.44152)
(1.23952e-05 -8.60185e-05 1.50143)
(-1.23949e-05 -8.60189e-05 1.50143)
(-3.35577e-05 -7.74127e-05 1.44152)
(-4.53601e-05 -6.27384e-05 1.32345)
(-4.52148e-05 -4.52142e-05 1.15119)
(2.23425e-05 2.23437e-05 1.15113)
(2.25629e-05 3.11688e-05 1.32341)
(1.67714e-05 3.86079e-05 1.44152)
(6.20874e-06 4.2982e-05 1.50145)
(-6.20881e-06 4.29819e-05 1.50145)
(-1.67717e-05 3.86076e-05 1.44152)
(-2.25636e-05 3.11684e-05 1.32341)
(-2.23441e-05 2.23443e-05 1.15113)
(3.11639e-05 2.25662e-05 1.32341)
(3.24204e-05 3.24251e-05 1.53548)
(2.44306e-05 4.09524e-05 1.66908)
(9.06402e-06 4.58421e-05 1.73369)
(-9.06425e-06 4.58421e-05 1.73369)
(-2.44311e-05 4.09522e-05 1.66908)
(-3.24214e-05 3.24249e-05 1.53548)
(-3.11667e-05 2.25666e-05 1.32341)
(3.8602e-05 1.67757e-05 1.44152)
(4.09479e-05 2.44355e-05 1.66908)
(3.09179e-05 3.09223e-05 1.80894)
(1.13897e-05 3.42532e-05 1.8742)
(-1.13902e-05 3.42531e-05 1.8742)
(-3.09184e-05 3.09222e-05 1.80894)
(-4.09488e-05 2.44353e-05 1.66908)
(-3.86044e-05 1.67757e-05 1.44152)
(4.29758e-05 6.21316e-06 1.50145)
(4.58377e-05 9.06888e-06 1.73369)
(3.42491e-05 1.13941e-05 1.8742)
(1.23355e-05 1.23393e-05 1.93618)
(-1.2336e-05 1.23393e-05 1.93618)
(-3.42497e-05 1.13939e-05 1.8742)
(-4.58385e-05 9.06871e-06 1.73369)
(-4.29778e-05 6.21308e-06 1.50145)
(4.29758e-05 -6.20461e-06 1.50145)
(4.58376e-05 -9.05965e-06 1.73369)
(3.42491e-05 -1.1386e-05 1.8742)
(1.23355e-05 -1.23323e-05 1.93618)
(-1.23361e-05 -1.23324e-05 1.93618)
(-3.42497e-05 -1.13862e-05 1.8742)
(-4.58384e-05 -9.05985e-06 1.73369)
(-4.29774e-05 -6.20478e-06 1.50145)
(3.86018e-05 -1.67678e-05 1.44152)
(4.09477e-05 -2.44268e-05 1.66908)
(3.09178e-05 -3.09145e-05 1.80894)
(1.13896e-05 -3.4246e-05 1.8742)
(-1.13903e-05 -3.42461e-05 1.8742)
(-3.09185e-05 -3.09147e-05 1.80894)
(-4.09484e-05 -2.4427e-05 1.66908)
(-3.86031e-05 -1.67681e-05 1.44152)
(3.11629e-05 -2.25592e-05 1.32341)
(3.24201e-05 -3.24169e-05 1.53548)
(2.44305e-05 -4.09448e-05 1.66908)
(9.06378e-06 -4.58349e-05 1.73369)
(-9.06463e-06 -4.5835e-05 1.73369)
(-2.44313e-05 -4.09451e-05 1.66908)
(-3.24208e-05 -3.24174e-05 1.53548)
(-3.1164e-05 -2.25598e-05 1.32341)
(2.23403e-05 -2.23393e-05 1.15113)
(2.25618e-05 -3.11609e-05 1.32341)
(1.67712e-05 -3.85998e-05 1.44152)
(6.2084e-06 -4.2974e-05 1.50145)
(-6.20931e-06 -4.29743e-05 1.50145)
(-1.67721e-05 -3.86007e-05 1.44152)
(-2.25627e-05 -3.11623e-05 1.32341)
(-2.23414e-05 -2.23405e-05 1.15113)
(1.14913e-05 1.14925e-05 1.1511)
(1.15731e-05 1.59845e-05 1.3234)
(8.5867e-06 1.97579e-05 1.44152)
(3.17732e-06 2.19758e-05 1.50146)
(-3.17549e-06 2.19754e-05 1.50146)
(-8.58517e-06 1.97567e-05 1.44152)
(-1.15722e-05 1.59827e-05 1.3234)
(-1.14921e-05 1.14924e-05 1.1511)
(1.59812e-05 1.15757e-05 1.3234)
(1.65718e-05 1.65752e-05 1.5355)
(1.24725e-05 2.0901e-05 1.66912)
(4.6266e-06 2.33843e-05 1.73375)
(-4.62515e-06 2.3384e-05 1.73375)
(-1.24714e-05 2.09002e-05 1.66912)
(-1.65716e-05 1.65739e-05 1.5355)
(-1.59841e-05 1.1575e-05 1.3234)
(1.97544e-05 8.58986e-06 1.44152)
(2.08978e-05 1.24761e-05 1.66912)
(1.57693e-05 1.57726e-05 1.80902)
(5.80949e-06 1.7468e-05 1.8743)
(-5.80858e-06 1.74678e-05 1.8743)
(-1.57687e-05 1.5772e-05 1.80902)
(-2.0898e-05 1.24751e-05 1.66912)
(-1.97577e-05 8.58903e-06 1.44152)
(2.19723e-05 3.18064e-06 1.50146)
(2.33812e-05 4.63032e-06 1.73375)
(1.7465e-05 5.81279e-06 1.8743)
(6.29112e-06 6.29402e-06 1.9363)
(-6.29061e-06 6.29388e-06 1.9363)
(-1.74648e-05 5.81235e-06 1.8743)
(-2.33816e-05 4.62959e-06 1.73375)
(-2.19759e-05 3.17988e-06 1.50146)
(2.19721e-05 -3.17212e-06 1.50146)
(2.3381e-05 -4.62134e-06 1.73375)
(1.74649e-05 -5.80519e-06 1.8743)
(6.291e-06 -6.2876e-06 1.9363)
(-6.29073e-06 -6.28772e-06 1.9363)
(-1.74648e-05 -5.80553e-06 1.8743)
(-2.33816e-05 -4.62193e-06 1.73375)
(-2.19758e-05 -3.17283e-06 1.50146)
(1.97536e-05 -8.58189e-06 1.44152)
(2.08971e-05 -1.24675e-05 1.66912)
(1.57689e-05 -1.57651e-05 1.80902)
(5.80908e-06 -1.74614e-05 1.8743)
(-5.80897e-06 -1.74615e-05 1.8743)
(-1.5769e-05 -1.57654e-05 1.80902)
(-2.08978e-05 -1.24679e-05 1.66912)
(-1.97574e-05 -8.58248e-06 1.44152)
(1.59796e-05 -1.15684e-05 1.3234)
(1.65707e-05 -1.65671e-05 1.5355)
(1.24717e-05 -2.08937e-05 1.66912)
(4.6258e-06 -2.33777e-05 1.73375)
(-4.62589e-06 -2.33778e-05 1.73375)
(-1.24718e-05 -2.08941e-05 1.66912)
(-1.65713e-05 -1.65676e-05 1.5355)
(-1.5983e-05 -1.15695e-05 1.3234)
(1.14889e-05 -1.14882e-05 1.1511)
(1.15713e-05 -1.59774e-05 1.3234)
(8.58566e-06 -1.97513e-05 1.44152)
(3.17627e-06 -2.19697e-05 1.50146)
(-3.17648e-06 -2.197e-05 1.50146)
(-8.58592e-06 -1.97521e-05 1.44152)
(-1.1572e-05 -1.59792e-05 1.3234)
(-1.1491e-05 -1.14904e-05 1.1511)
(5.80262e-06 5.80316e-06 1.15108)
(5.85577e-06 8.08828e-06 1.32339)
(4.35008e-06 1.00113e-05 1.44152)
(1.60976e-06 1.11429e-05 1.50146)
(-1.61195e-06 1.11432e-05 1.50146)
(-4.35225e-06 1.00122e-05 1.44152)
(-5.85838e-06 8.08975e-06 1.32339)
(-5.80578e-06 5.80545e-06 1.15108)
(8.08533e-06 5.85788e-06 1.32339)
(8.40441e-06 8.40735e-06 1.5355)
(6.33342e-06 1.06149e-05 1.66915)
(2.34986e-06 1.18829e-05 1.73378)
(-2.35194e-06 1.18831e-05 1.73378)
(-6.33555e-06 1.06155e-05 1.66915)
(-8.407e-06 8.40832e-06 1.5355)
(-8.08981e-06 5.85969e-06 1.32339)
(1.00078e-05 4.35303e-06 1.44152)
(1.06121e-05 6.33672e-06 1.66915)
(8.01709e-06 8.02008e-06 1.80906)
(2.95438e-06 8.88666e-06 1.87436)
(-2.95609e-06 8.88677e-06 1.87436)
(-8.01887e-06 8.02044e-06 1.80906)
(-1.06141e-05 6.33739e-06 1.66915)
(-1.00114e-05 4.35404e-06 1.44152)
(1.11391e-05 1.61298e-06 1.50146)
(1.18801e-05 2.35335e-06 1.73378)
(8.8839e-06 2.95746e-06 1.87436)
(3.20105e-06 3.20376e-06 1.93637)
(-3.20245e-06 3.20384e-06 1.93637)
(-8.88536e-06 2.95774e-06 1.87436)
(-1.18817e-05 2.35391e-06 1.73378)
(-1.11419e-05 1.61379e-06 1.50146)
(1.11393e-05 -1.60877e-06 1.50146)
(1.18802e-05 -2.34849e-06 1.73378)
(8.88403e-06 -2.95304e-06 1.87436)
(3.20114e-06 -3.19975e-06 1.93637)
(-3.20239e-06 -3.19969e-06 1.93637)
(-8.88529e-06 -2.95282e-06 1.87436)
(-1.18815e-05 -2.34806e-06 1.73378)
(-1.11415e-05 -1.60816e-06 1.50146)
(1.00085e-05 -4.34925e-06 1.44152)
(1.06125e-05 -6.33221e-06 1.66915)
(8.01748e-06 -8.01582e-06 1.80906)
(2.95468e-06 -8.88258e-06 1.87436)
(-2.95589e-06 -8.88254e-06 1.87436)
(-8.01865e-06 -8.01571e-06 1.80906)