/*--------------------------------*- C++ -*----------------------------------*\
| =========                 |                                                 |
| \\      /  F ield         | OpenFOAM: The Open Source CFD Toolbox           |
|  \\    /   O peration     | Version:  2406                                  |
|   \\  /    A nd           | Website:  www.openfoam.com                      |
|    \\/     M anipulation  |                                                 |
\*---------------------------------------------------------------------------*/
FoamFile
{
    version     2.0;
    format      ascii;
    arch        "LSB;label=32;scalar=64";
    class       volVectorField;
    location    "4.1";
    object      U;
}
// * * * * * * * * * * * * * * * * * * * * * * * * * * * * * * * * * * * * * //

dimensions      [0 1 -1 0 0 0 0];

internalField   nonuniform List<vector> 
16000
(
(0.153132 0.153132 1.11474)
(0.117573 0.168169 1.1542)
(0.072459 0.17688 1.17285)
(0.0244946 0.180953 1.18018)
(-0.0244946 0.180953 1.18018)
(-0.072459 0.17688 1.17285)
(-0.117573 0.168169 1.1542)
(-0.153132 0.153132 1.11474)
(0.168169 0.117573 1.1542)
(0.126109 0.126109 1.18728)
(0.0766337 0.131081 1.19757)
(0.0257137 0.133402 1.19978)
(-0.0257137 0.133402 1.19978)
(-0.0766337 0.131081 1.19757)
(-0.126109 0.126109 1.18728)
(-0.168169 0.117573 1.1542)
(0.17688 0.072459 1.17285)
(0.131081 0.0766337 1.19757)
(0.0792027 0.0792027 1.20176)
(0.0264749 0.0803911 1.20065)
(-0.0264749 0.0803911 1.20065)
(-0.0792027 0.0792027 1.20176)
(-0.131081 0.0766337 1.19757)
(-0.17688 0.072459 1.17285)
(0.180953 0.0244946 1.18018)
(0.133402 0.0257137 1.19978)
(0.0803911 0.0264749 1.20065)
(0.0268183 0.0268183 1.1979)
(-0.0268183 0.0268183 1.1979)
(-0.0803911 0.0264749 1.20065)
(-0.133402 0.0257137 1.19978)
(-0.180953 0.0244946 1.18018)
(0.180953 -0.0244946 1.18018)
(0.133402 -0.0257137 1.19978)
(0.0803911 -0.0264749 1.20065)
(0.0268183 -0.0268183 1.1979)
(-0.0268183 -0.0268183 1.1979)
(-0.0803911 -0.0264749 1.20065)
(-0.133402 -0.0257137 1.19978)
(-0.180953 -0.0244946 1.18018)
(0.17688 -0.072459 1.17285)
(0.131081 -0.0766337 1.19757)
(0.0792027 -0.0792027 1.20176)
(0.0264749 -0.0803911 1.20065)
(-0.0264749 -0.0803911 1.20065)
(-0.0792027 -0.0792027 1.20176)
(-0.131081 -0.0766337 1.19757)
(-0.17688 -0.072459 1.17285)
(0.168169 -0.117573 1.1542)
(0.126109 -0.126109 1.18728)
(0.0766337 -0.131081 1.19757)
(0.0257137 -0.133402 1.19978)
(-0.0257137 -0.133402 1.19978)
(-0.0766337 -0.131081 1.19757)
(-0.126109 -0.126109 1.18728)
(-0.168169 -0.117573 1.1542)
(0.153132 -0.153132 1.11474)
(0.117573 -0.168169 1.1542)
(0.072459 -0.17688 1.17285)
(0.0244946 -0.180953 1.18018)
(-0.0244946 -0.180953 1.18018)
(-0.072459 -0.17688 1.17285)
(-0.117573 -0.168169 1.1542)
(-0.153132 -0.153132 1.11474)
(0.0494154 0.0494154 1.29062)
(0.0414003 0.0615755 1.3895)
(0.0279271 0.0703803 1.44408)
(0.00984083 0.075171 1.46809)
(-0.00984083 0.075171 1.46809)
(-0.027927 0.0703803 1.44408)
(-0.0414003 0.0615755 1.3895)
(-0.0494154 0.0494154 1.29062)
(0.0615755 0.0414003 1.3895)
(0.0531611 0.0531611 1.48728)
(0.0357288 0.0616406 1.53241)
(0.0125458 0.0660227 1.54992)
(-0.0125458 0.0660227 1.54992)
(-0.0357288 0.0616406 1.53241)
(-0.0531611 0.0531611 1.48728)
(-0.0615755 0.0414003 1.3895)
(0.0703803 0.0279271 1.44408)
(0.0616406 0.0357288 1.53241)
(0.0413007 0.0413007 1.57006)
(0.0144349 0.0441146 1.5832)
(-0.0144349 0.0441146 1.5832)
(-0.0413007 0.0413007 1.57006)
(-0.0616406 0.0357288 1.53241)
(-0.0703803 0.0279271 1.44408)
(0.075171 0.00984083 1.46809)
(0.0660227 0.0125458 1.54992)
(0.0441146 0.0144349 1.5832)
(0.0153734 0.0153734 1.59386)
(-0.0153734 0.0153734 1.59386)
(-0.0441146 0.0144349 1.5832)
(-0.0660227 0.0125458 1.54992)
(-0.075171 0.00984083 1.46809)
(0.075171 -0.00984083 1.46809)
(0.0660227 -0.0125458 1.54992)
(0.0441146 -0.0144349 1.5832)
(0.0153734 -0.0153734 1.59386)
(-0.0153734 -0.0153734 1.59386)
(-0.0441146 -0.0144349 1.5832)
(-0.0660227 -0.0125458 1.54992)
(-0.075171 -0.00984083 1.46809)
(0.0703803 -0.027927 1.44408)
(0.0616406 -0.0357288 1.53241)
(0.0413007 -0.0413007 1.57006)
(0.0144349 -0.0441146 1.5832)
(-0.0144349 -0.0441146 1.5832)
(-0.0413007 -0.0413007 1.57006)
(-0.0616406 -0.0357288 1.53241)
(-0.0703803 -0.027927 1.44408)
(0.0615755 -0.0414002 1.3895)
(0.0531611 -0.0531611 1.48728)
(0.0357288 -0.0616406 1.53241)
(0.0125458 -0.0660227 1.54992)
(-0.0125458 -0.0660227 1.54992)
(-0.0357288 -0.0616406 1.53241)
(-0.0531611 -0.0531611 1.48728)
(-0.0615755 -0.0414003 1.3895)
(0.0494154 -0.0494154 1.29062)
(0.0414003 -0.0615755 1.3895)
(0.027927 -0.0703803 1.44408)
(0.00984083 -0.075171 1.46809)
(-0.00984083 -0.075171 1.46809)
(-0.027927 -0.0703803 1.44408)
(-0.0414003 -0.0615755 1.3895)
(-0.0494154 -0.0494154 1.29062)
(0.0295334 0.0295334 1.18369)
(0.0263057 0.0381217 1.33605)
(0.0179588 0.0440247 1.43119)
(0.00638113 0.0472238 1.47636)
(-0.00638113 0.0472238 1.47636)
(-0.0179588 0.0440247 1.43119)
(-0.0263057 0.0381217 1.33605)
(-0.0295334 0.0295334 1.18369)
(0.0381217 0.0263057 1.33605)
(0.03387 0.03387 1.50686)
(0.0231033 0.0393329 1.60045)
(0.00819889 0.042227 1.64149)
(-0.00819889 0.042227 1.64149)
(-0.0231033 0.0393329 1.60045)
(-0.03387 0.03387 1.50686)
(-0.0381217 0.0263057 1.33605)
(0.0440247 0.0179588 1.43119)
(0.0393329 0.0231033 1.60045)
(0.0268026 0.0268026 1.68906)
(0.00948465 0.028713 1.72654)
(-0.00948465 0.028713 1.72654)
(-0.0268026 0.0268026 1.68906)
(-0.0393329 0.0231033 1.60045)
(-0.0440247 0.0179588 1.43119)
(0.0472238 0.00638113 1.47636)
(0.042227 0.00819889 1.64149)
(0.028713 0.00948465 1.72654)
(0.0101528 0.0101528 1.76219)
(-0.0101528 0.0101528 1.76219)
(-0.028713 0.00948465 1.72654)
(-0.042227 0.00819889 1.64149)
(-0.0472238 0.00638113 1.47636)
(0.0472238 -0.00638113 1.47636)
(0.042227 -0.00819889 1.64149)
(0.028713 -0.00948464 1.72654)
(0.0101528 -0.0101528 1.76219)
(-0.0101528 -0.0101528 1.76219)
(-0.028713 -0.00948464 1.72654)
(-0.042227 -0.00819889 1.64149)
(-0.0472238 -0.00638113 1.47636)
(0.0440247 -0.0179588 1.43119)
(0.0393329 -0.0231033 1.60045)
(0.0268026 -0.0268026 1.68906)
(0.00948465 -0.028713 1.72654)
(-0.00948465 -0.028713 1.72654)
(-0.0268026 -0.0268026 1.68906)
(-0.0393329 -0.0231033 1.60045)
(-0.0440247 -0.0179588 1.43119)
(0.0381217 -0.0263057 1.33605)
(0.03387 -0.03387 1.50686)
(0.0231033 -0.0393329 1.60045)
(0.00819889 -0.042227 1.64149)
(-0.00819889 -0.042227 1.64149)
(-0.0231033 -0.0393329 1.60045)
(-0.03387 -0.03387 1.50686)
(-0.0381217 -0.0263057 1.33605)
(0.0295334 -0.0295334 1.18369)
(0.0263057 -0.0381217 1.33605)
(0.0179588 -0.0440247 1.43119)
(0.00638113 -0.0472238 1.47636)
(-0.00638113 -0.0472238 1.47636)
(-0.0179588 -0.0440247 1.43119)
(-0.0263057 -0.0381217 1.33605)
(-0.0295334 -0.0295334 1.18369)
(0.00607788 0.00607788 1.17735)
(0.00678721 0.00932593 1.34012)
(0.00531535 0.0121436 1.44756)
(0.00200434 0.0137879 1.50053)
(-0.00200434 0.0137879 1.50053)
(-0.00531535 0.0121436 1.44756)
(-0.00678721 0.00932593 1.34012)
(-0.00607788 0.00607788 1.17735)
(0.00932593 0.00678721 1.34012)
(0.0106419 0.010642 1.53329)
(0.0082524 0.0137676 1.64786)
(0.00308277 0.0154575 1.70082)
(-0.00308277 0.0154575 1.70082)
(-0.0082524 0.0137676 1.64786)
(-0.010642 0.010642 1.53329)
(-0.00932593 0.00678721 1.34012)
(0.0121436 0.00531535 1.44756)
(0.0137676 0.0082524 1.64786)
(0.0104758 0.0104758 1.76219)
(0.00386311 0.0115575 1.81303)
(-0.00386311 0.0115575 1.81303)
(-0.0104758 0.0104758 1.76219)
(-0.0137676 0.0082524 1.64786)
(-0.0121436 0.00531535 1.44756)
(0.0137879 0.00200435 1.50053)
(0.0154575 0.00308277 1.70082)
(0.0115575 0.00386311 1.81303)
(0.00421153 0.00421154 1.8613)
(-0.00421153 0.00421154 1.8613)
(-0.0115575 0.00386311 1.81303)
(-0.0154575 0.00308277 1.70082)
(-0.0137879 0.00200435 1.50053)
(0.0137879 -0.00200434 1.50053)
(0.0154575 -0.00308276 1.70082)
(0.0115575 -0.0038631 1.81303)
(0.00421153 -0.00421153 1.8613)
(-0.00421153 -0.00421153 1.8613)
(-0.0115575 -0.0038631 1.81303)
(-0.0154575 -0.00308276 1.70082)
(-0.0137879 -0.00200434 1.50053)
(0.0121436 -0.00531535 1.44756)
(0.0137676 -0.00825239 1.64786)
(0.0104758 -0.0104758 1.76219)
(0.00386311 -0.0115575 1.81303)
(-0.00386311 -0.0115575 1.81303)
(-0.0104758 -0.0104758 1.76219)
(-0.0137676 -0.00825239 1.64786)
(-0.0121436 -0.00531535 1.44756)
(0.00932593 -0.00678721 1.34012)
(0.0106419 -0.0106419 1.53329)
(0.0082524 -0.0137676 1.64786)
(0.00308277 -0.0154575 1.70082)
(-0.00308277 -0.0154575 1.70082)
(-0.0082524 -0.0137676 1.64786)
(-0.0106419 -0.0106419 1.53329)
(-0.00932593 -0.00678721 1.34012)
(0.00607788 -0.00607788 1.17735)
(0.00678721 -0.00932592 1.34012)
(0.00531535 -0.0121436 1.44756)
(0.00200434 -0.0137879 1.50053)
(-0.00200434 -0.0137879 1.50053)
(-0.00531535 -0.0121436 1.44756)
(-0.00678721 -0.00932593 1.34012)
(-0.00607788 -0.00607788 1.17735)
(0.00420928 0.00420929 1.15879)
(0.00417758 0.00573707 1.32761)
(0.00305281 0.00697193 1.44156)
(0.00112169 0.00767951 1.4987)
(-0.00112169 0.00767951 1.4987)
(-0.00305281 0.00697193 1.44156)
(-0.00417758 0.00573707 1.32761)
(-0.00420929 0.00420928 1.15879)
(0.00573707 0.00417758 1.32761)
(0.0058271 0.0058271 1.53244)
(0.00432306 0.00720708 1.65824)
(0.00159285 0.00796351 1.71788)
(-0.00159285 0.00796351 1.71788)
(-0.00432306 0.00720707 1.65824)
(-0.0058271 0.0058271 1.53244)
(-0.00573707 0.00417758 1.32761)
(0.00697193 0.00305281 1.44156)
(0.00720707 0.00432306 1.65824)
(0.00533722 0.00533722 1.7871)
(0.00194952 0.00580511 1.84585)
(-0.00194952 0.00580511 1.84585)
(-0.00533722 0.00533722 1.7871)
(-0.00720707 0.00432306 1.65824)
(-0.00697193 0.00305281 1.44156)
(0.00767951 0.00112169 1.4987)
(0.00796351 0.00159285 1.71788)
(0.00580511 0.00194952 1.84585)
(0.00208328 0.00208328 1.90127)
(-0.00208328 0.00208328 1.90127)
(-0.00580511 0.00194952 1.84585)
(-0.00796351 0.00159285 1.71788)
(-0.00767951 0.00112169 1.4987)
(0.00767951 -0.00112169 1.4987)
(0.00796351 -0.00159285 1.71788)
(0.00580511 -0.00194951 1.84585)
(0.00208328 -0.00208328 1.90127)
(-0.00208328 -0.00208328 1.90127)
(-0.00580511 -0.00194951 1.84585)
(-0.00796351 -0.00159285 1.71788)
(-0.00767951 -0.00112169 1.4987)
(0.00697193 -0.00305281 1.44156)
(0.00720707 -0.00432305 1.65824)
(0.00533722 -0.00533722 1.7871)
(0.00194952 -0.0058051 1.84585)
(-0.00194952 -0.0058051 1.84585)
(-0.00533722 -0.00533722 1.7871)
(-0.00720707 -0.00432305 1.65824)
(-0.00697193 -0.00305281 1.44156)
(0.00573707 -0.00417758 1.32761)
(0.0058271 -0.0058271 1.53244)
(0.00432306 -0.00720707 1.65824)
(0.00159285 -0.0079635 1.71788)
(-0.00159285 -0.0079635 1.71788)
(-0.00432306 -0.00720707 1.65824)
(-0.0058271 -0.0058271 1.53244)
(-0.00573707 -0.00417758 1.32761)
(0.00420928 -0.00420928 1.15879)
(0.00417758 -0.00573707 1.32761)
(0.00305281 -0.00697193 1.44156)
(0.00112169 -0.00767951 1.4987)
(-0.00112169 -0.00767951 1.4987)
(-0.00305281 -0.00697193 1.44156)
(-0.00417758 -0.00573707 1.32761)
(-0.00420928 -0.00420928 1.15879)
(0.00130174 0.00130174 1.15563)
(0.00140465 0.00190345 1.3259)
(0.00109256 0.00244352 1.44189)
(0.000412967 0.00276631 1.50046)
(-0.000412967 0.00276631 1.50046)
(-0.00109256 0.00244352 1.44189)
(-0.00140465 0.00190345 1.3259)
(-0.00130174 0.00130174 1.15563)
(0.00190345 0.00140465 1.3259)
(0.00214529 0.0021453 1.53424)
(0.0016872 0.00280356 1.66415)
(0.000637026 0.00317699 1.72646)
(-0.000637026 0.00317699 1.72646)
(-0.0016872 0.00280356 1.66415)
(-0.00214529 0.0021453 1.53424)
(-0.00190345 0.00140465 1.3259)
(0.00244352 0.00109257 1.44189)
(0.00280355 0.0016872 1.66415)
(0.00219038 0.00219038 1.7989)
(0.000816972 0.0024356 1.86114)
(-0.000816972 0.0024356 1.86114)
(-0.00219038 0.00219038 1.7989)
(-0.00280356 0.0016872 1.66415)
(-0.00244352 0.00109257 1.44189)
(0.00276631 0.00041297 1.50046)
(0.00317699 0.000637029 1.72646)
(0.0024356 0.000816975 1.86114)
(0.000886492 0.000886495 1.91993)
(-0.000886492 0.000886495 1.91993)
(-0.0024356 0.000816974 1.86114)
(-0.00317699 0.000637029 1.72646)
(-0.00276631 0.00041297 1.50046)
(0.00276631 -0.000412964 1.50046)
(0.00317699 -0.000637022 1.72646)
(0.0024356 -0.000816969 1.86114)
(0.000886492 -0.00088649 1.91993)
(-0.000886493 -0.00088649 1.91993)
(-0.0024356 -0.000816969 1.86114)
(-0.00317699 -0.000637022 1.72646)
(-0.00276631 -0.000412964 1.50046)
(0.00244352 -0.00109256 1.44189)
(0.00280355 -0.00168719 1.66415)
(0.00219038 -0.00219038 1.7989)
(0.000816971 -0.00243559 1.86114)
(-0.000816972 -0.00243559 1.86114)
(-0.00219038 -0.00219038 1.7989)
(-0.00280356 -0.00168719 1.66415)
(-0.00244352 -0.00109256 1.44189)
(0.00190345 -0.00140464 1.3259)
(0.00214529 -0.00214529 1.53424)
(0.0016872 -0.00280355 1.66415)
(0.000637025 -0.00317699 1.72646)
(-0.000637026 -0.00317699 1.72646)
(-0.0016872 -0.00280355 1.66415)
(-0.00214529 -0.00214529 1.53424)
(-0.00190345 -0.00140465 1.3259)
(0.00130174 -0.00130174 1.15563)
(0.00140465 -0.00190345 1.3259)
(0.00109256 -0.00244351 1.44189)
(0.000412967 -0.00276631 1.50046)
(-0.000412967 -0.00276631 1.50046)
(-0.00109256 -0.00244352 1.44189)
(-0.00140465 -0.00190345 1.3259)
(-0.00130174 -0.00130174 1.15563)
(0.000792204 0.000792205 1.15296)
(0.000788354 0.00108156 1.32433)
(0.000581398 0.00132234 1.44146)
(0.000214721 0.00146385 1.50077)
(-0.000214719 0.00146385 1.50077)
(-0.000581397 0.00132233 1.44146)
(-0.000788354 0.00108156 1.32433)
(-0.000792205 0.000792205 1.15296)
(0.00108156 0.000788357 1.32433)
(0.00110842 0.00110842 1.53467)
(0.000833461 0.00139004 1.66657)
(0.000309536 0.00155285 1.73013)
(-0.000309535 0.00155285 1.73013)
(-0.00083346 0.00139004 1.66657)
(-0.00110842 0.00110842 1.53467)
(-0.00108156 0.000788356 1.32433)
(0.00132233 0.000581401 1.44146)
(0.00139004 0.000833464 1.66657)
(0.00105205 0.00105206 1.80409)
(0.000388559 0.00116372 1.86797)
(-0.000388558 0.00116372 1.86797)
(-0.00105205 0.00105206 1.80409)
(-0.00139004 0.000833464 1.66657)
(-0.00132234 0.000581401 1.44146)
(0.00146384 0.000214724 1.50077)
(0.00155285 0.00030954 1.73013)
(0.00116372 0.000388562 1.86797)
(0.000420373 0.000420376 1.92846)
(-0.000420372 0.000420376 1.92846)
(-0.00116372 0.000388562 1.86797)
(-0.00155285 0.000309539 1.73013)
(-0.00146385 0.000214724 1.50077)
(0.00146384 -0.000214716 1.50077)
(0.00155285 -0.000309531 1.73013)
(0.00116372 -0.000388555 1.86797)
(0.000420372 -0.000420369 1.92846)
(-0.000420372 -0.000420369 1.92846)
(-0.00116372 -0.000388555 1.86797)
(-0.00155285 -0.000309531 1.73013)
(-0.00146385 -0.000214716 1.50077)
(0.00132233 -0.000581393 1.44146)
(0.00139004 -0.000833456 1.66657)
(0.00105205 -0.00105205 1.80409)
(0.000388558 -0.00116372 1.86797)
(-0.000388559 -0.00116372 1.86797)
(-0.00105205 -0.00105205 1.80409)
(-0.00139004 -0.000833456 1.66657)
(-0.00132233 -0.000581394 1.44146)
(0.00108156 -0.000788349 1.32433)
(0.00110841 -0.00110841 1.53467)
(0.00083346 -0.00139004 1.66657)
(0.000309535 -0.00155284 1.73013)
(-0.000309535 -0.00155284 1.73013)
(-0.00083346 -0.00139004 1.66657)
(-0.00110842 -0.00110841 1.53467)
(-0.00108156 -0.00078835 1.32433)
(0.000792201 -0.0007922 1.15296)
(0.000788352 -0.00108155 1.32433)
(0.000581397 -0.00132233 1.44146)
(0.00021472 -0.00146384 1.50077)
(-0.00021472 -0.00146384 1.50077)
(-0.000581397 -0.00132233 1.44146)
(-0.000788353 -0.00108155 1.32433)
(-0.000792203 -0.000792202 1.15296)
(0.000340736 0.000340737 1.1521)
(0.000347864 0.000479672 1.32392)
(0.000260863 0.000598211 1.44154)
(9.69833e-05 0.000668246 1.50117)
(-9.69837e-05 0.000668246 1.50117)
(-0.000260863 0.000598211 1.44154)
(-0.000347866 0.000479672 1.32392)
(-0.000340738 0.000340738 1.1521)
(0.000479667 0.000347868 1.32392)
(0.000505477 0.000505482 1.53513)
(0.000384178 0.000642849 1.6679)
(0.000143137 0.000722071 1.732)
(-0.000143138 0.000722071 1.732)
(-0.000384179 0.000642849 1.6679)
(-0.000505479 0.000505482 1.53513)
(-0.000479671 0.000347868 1.32392)
(0.000598205 0.000260867 1.44154)
(0.000642845 0.000384183 1.6679)
(0.000489664 0.000489668 1.80663)
(0.0001812 0.000544341 1.87124)
(-0.0001812 0.000544341 1.87124)
(-0.000489664 0.000489668 1.80663)
(-0.000642846 0.000384183 1.6679)
(-0.000598208 0.000260867 1.44154)
(0.00066824 9.69876e-05 1.50117)
(0.000722066 0.000143142 1.732)
(0.000544337 0.000181204 1.87124)
(0.000196974 0.000196978 1.93251)
(-0.000196975 0.000196978 1.93251)
(-0.000544337 0.000181204 1.87124)
(-0.000722067 0.000143142 1.732)
(-0.000668243 9.69878e-05 1.50117)
(0.00066824 -9.69794e-05 1.50117)
(0.000722066 -0.000143133 1.732)
(0.000544337 -0.000181196 1.87124)
(0.000196974 -0.000196971 1.93251)
(-0.000196975 -0.000196971 1.93251)
(-0.000544337 -0.000181196 1.87124)
(-0.000722067 -0.000143133 1.732)
(-0.000668243 -9.69793e-05 1.50117)
(0.000598205 -0.000260859 1.44154)
(0.000642844 -0.000384175 1.6679)
(0.000489664 -0.00048966 1.80663)
(0.0001812 -0.000544333 1.87124)
(-0.0001812 -0.000544334 1.87124)
(-0.000489664 -0.00048966 1.80663)
(-0.000642845 -0.000384175 1.6679)
(-0.000598207 -0.000260859 1.44154)
(0.000479666 -0.000347861 1.32392)
(0.000505477 -0.000505474 1.53513)
(0.000384178 -0.000642841 1.6679)
(0.000143137 -0.000722063 1.732)
(-0.000143138 -0.000722063 1.732)
(-0.000384179 -0.000642842 1.6679)
(-0.000505478 -0.000505474 1.53513)
(-0.000479668 -0.000347862 1.32392)
(0.000340734 -0.000340733 1.1521)
(0.000347864 -0.000479664 1.32392)
(0.000260863 -0.000598203 1.44154)
(9.69831e-05 -0.000668238 1.50117)
(-9.69839e-05 -0.000668239 1.50117)
(-0.000260864 -0.000598204 1.44154)
(-0.000347864 -0.000479666 1.32392)
(-0.000340735 -0.000340734 1.1521)
(0.000183378 0.000183379 1.15155)
(0.000182636 0.000252985 1.32363)
(0.0001345 0.000310879 1.44151)
(4.9586e-05 0.000344802 1.5013)
(-4.95833e-05 0.000344802 1.5013)
(-0.000134497 0.000310877 1.44151)
(-0.000182634 0.000252982 1.32363)
(-0.000183378 0.000183378 1.15155)
(0.00025298 0.000182639 1.32363)
(0.000258955 0.00025896 1.5353)
(0.000193546 0.000324768 1.66852)
(7.15909e-05 0.000362583 1.73289)
(-7.15885e-05 0.000362583 1.73289)
(-0.000193544 0.000324767 1.66852)
(-0.000258954 0.000258958 1.5353)
(-0.000252982 0.000182638 1.32363)
(0.000310873 0.000134504 1.44151)
(0.000324764 0.000193551 1.66852)
(0.000243696 0.0002437 1.80785)
(8.96177e-05 0.000269587 1.87281)
(-8.9616e-05 0.000269587 1.87281)
(-0.000243694 0.000243699 1.80785)
(-0.000324763 0.000193549 1.66852)
(-0.000310876 0.000134503 1.44151)
(0.000344797 4.95901e-05 1.5013)
(0.000362579 7.15956e-05 1.73289)
(0.000269583 8.96219e-05 1.87281)
(9.70174e-05 9.70212e-05 1.93446)
(-9.70162e-05 9.7021e-05 1.93446)
(-0.000269582 8.96213e-05 1.87281)
(-0.000362578 7.15946e-05 1.73289)
(-0.0003448 4.95891e-05 1.5013)
(0.000344797 -4.95793e-05 1.5013)
(0.000362578 -7.1584e-05 1.73289)
(0.000269583 -8.96119e-05 1.87281)
(9.70173e-05 -9.70126e-05 1.93446)
(-9.70164e-05 -9.70127e-05 1.93446)
(-0.000269582 -8.96123e-05 1.87281)
(-0.000362578 -7.15847e-05 1.73289)
(-0.0003448 -4.95801e-05 1.5013)
(0.000310872 -0.000134494 1.44151)
(0.000324763 -0.00019354 1.66852)
(0.000243695 -0.00024369 1.80785)
(8.96172e-05 -0.000269578 1.87281)
(-8.96165e-05 -0.000269578 1.87281)
(-0.000243695 -0.000243691 1.80785)
(-0.000324763 -0.00019354 1.66852)
(-0.000310875 -0.000134494 1.44151)
(0.000252978 -0.00018263 1.32363)
(0.000258954 -0.000258949 1.5353)
(0.000193545 -0.000324759 1.66852)
(7.15899e-05 -0.000362574 1.73289)
(-7.15894e-05 -0.000362574 1.73289)
(-0.000193544 -0.000324759 1.66852)
(-0.000258954 -0.00025895 1.5353)
(-0.00025298 -0.00018263 1.32363)
(0.000183374 -0.000183373 1.15155)
(0.000182633 -0.000252975 1.32363)
(0.000134498 -0.000310869 1.44151)
(4.95847e-05 -0.000344794 1.5013)
(-4.95844e-05 -0.000344794 1.5013)
(-0.000134498 -0.00031087 1.44151)
(-0.000182633 -0.000252977 1.32363)
(-0.000183376 -0.000183375 1.15155)
(8.6771e-05 8.67724e-05 1.15132)
(8.77093e-05 0.000121324 1.32351)
(6.52143e-05 0.000150477 1.44152)
(2.41381e-05 0.00016761 1.50139)
(-2.41365e-05 0.000167609 1.50139)
(-6.5213e-05 0.000150476 1.44152)
(-8.77086e-05 0.000121322 1.32351)
(-8.67717e-05 8.67721e-05 1.15132)
(0.000121318 8.77129e-05 1.32351)
(0.000126291 0.000126296 1.53541)
(9.51089e-05 0.000159576 1.66884)
(3.52683e-05 0.000178635 1.73335)
(-3.52669e-05 0.000178635 1.73335)
(-9.51079e-05 0.000159575 1.66884)
(-0.00012629 0.000126295 1.53541)
(-0.00012132 8.77124e-05 1.32351)
(0.000150469 6.52187e-05 1.44152)
(0.000159571 9.51142e-05 1.66884)
(0.000120352 0.000120356 1.80847)
(4.43134e-05 0.000133316 1.8736)
(-4.43125e-05 0.000133316 1.8736)
(-0.000120351 0.000120356 1.80847)
(-0.000159571 9.51135e-05 1.66884)
(-0.000150471 6.52182e-05 1.44152)
(0.000167602 2.41425e-05 1.50139)
(0.000178629 3.52733e-05 1.73335)
(0.000133312 4.4318e-05 1.8736)
(4.80028e-05 4.8007e-05 1.93544)
(-4.80023e-05 4.80068e-05 1.93544)
(-0.000133311 4.43176e-05 1.8736)
(-0.000178629 3.52728e-05 1.73335)
(-0.000167603 2.41421e-05 1.50139)
(0.000167602 -2.41325e-05 1.50139)
(0.000178629 -3.52623e-05 1.73335)
(0.000133312 -4.43083e-05 1.8736)
(4.80027e-05 -4.79985e-05 1.93544)
(-4.80024e-05 -4.79986e-05 1.93544)
(-0.000133311 -4.43086e-05 1.8736)
(-0.000178629 -3.52628e-05 1.73335)
(-0.000167603 -2.41329e-05 1.50139)
(0.000150469 -6.52094e-05 1.44152)
(0.00015957 -9.51038e-05 1.66884)
(0.000120351 -0.000120347 1.80847)
(4.43131e-05 -0.000133308 1.8736)
(-4.43128e-05 -0.000133308 1.8736)
(-0.000120351 -0.000120347 1.80847)
(-0.00015957 -9.51041e-05 1.66884)
(-0.00015047 -6.52097e-05 1.44152)
(0.000121317 -8.77045e-05 1.32351)
(0.00012629 -0.000126286 1.53541)
(9.51085e-05 -0.000159567 1.66884)
(3.52677e-05 -0.000178626 1.73335)
(-3.52676e-05 -0.000178626 1.73335)
(-9.51084e-05 -0.000159567 1.66884)
(-0.00012629 -0.000126287 1.53541)
(-0.000121317 -8.7705e-05 1.32351)
(8.6768e-05 -8.67671e-05 1.15132)
(8.77075e-05 -0.000121314 1.32351)
(6.52136e-05 -0.000150467 1.44152)
(2.41373e-05 -0.0001676 1.50139)
(-2.41374e-05 -0.0001676 1.50139)
(-6.52137e-05 -0.000150468 1.44152)
(-8.77078e-05 -0.000121316 1.32351)
(-8.67687e-05 -8.6768e-05 1.15132)
(4.52177e-05 4.52194e-05 1.15119)
(4.53631e-05 6.27481e-05 1.32345)
(3.35598e-05 7.74223e-05 1.44152)
(1.23972e-05 8.60278e-05 1.50143)
(-1.23929e-05 8.60268e-05 1.50143)
(-3.35559e-05 7.74191e-05 1.44152)
(-4.53594e-05 6.2743e-05 1.32345)
(-4.52156e-05 4.52162e-05 1.15119)
(6.27423e-05 4.53666e-05 1.32345)
(6.47558e-05 6.47608e-05 1.53546)
(4.85775e-05 8.14843e-05 1.669)
(1.79888e-05 9.10615e-05 1.73357)
(-1.79851e-05 9.10609e-05 1.73357)
(-4.85742e-05 8.14823e-05 1.669)
(-6.47532e-05 6.47577e-05 1.53546)
(-6.27421e-05 4.53636e-05 1.32345)
(7.74158e-05 3.35638e-05 1.44152)
(8.14793e-05 4.85823e-05 1.669)
(6.12722e-05 6.12767e-05 1.80878)
(2.25354e-05 6.77825e-05 1.874)
(-2.25328e-05 6.77821e-05 1.874)
(-6.127e-05 6.12755e-05 1.80878)
(-8.14778e-05 4.85802e-05 1.669)
(-7.74168e-05 3.35617e-05 1.44152)
(8.60215e-05 1.24011e-05 1.50143)
(9.10567e-05 1.79934e-05 1.73357)
(6.77783e-05 2.25395e-05 1.874)
(2.43784e-05 2.43821e-05 1.93593)
(-2.43768e-05 2.43819e-05 1.93593)
(-6.77769e-05 2.25386e-05 1.874)
(-9.10559e-05 1.79918e-05 1.73357)
(-8.60231e-05 1.23994e-05 1.50143)
(8.60208e-05 -1.23891e-05 1.50143)
(9.10562e-05 -1.79808e-05 1.73357)
(6.7778e-05 -2.25289e-05 1.874)
(2.43782e-05 -2.43733e-05 1.93593)
(-2.4377e-05 -2.43735e-05 1.93593)
(-6.7777e-05 -2.25296e-05 1.874)
(-9.10559e-05 -1.7982e-05 1.73357)
(-8.60231e-05 -1.23906e-05 1.50143)
(7.74137e-05 -3.35524e-05 1.44152)
(8.14778e-05 -4.85702e-05 1.669)
(6.12712e-05 -6.12662e-05 1.80878)
(2.25345e-05 -6.77733e-05 1.874)
(-2.25336e-05 -6.77735e-05 1.874)
(-6.12706e-05 -6.12668e-05 1.80878)
(-8.14777e-05 -4.8571e-05 1.669)
(-7.74162e-05 -3.35535e-05 1.44152)
(6.27379e-05 -4.53554e-05 1.32345)
(6.47531e-05 -6.47488e-05 1.53546)
(4.85757e-05 -8.14737e-05 1.669)
(1.79872e-05 -9.1052e-05 1.73357)
(-1.79866e-05 -9.10522e-05 1.73357)
(-4.85752e-05 -8.14742e-05 1.669)
(-6.47531e-05 -6.47496e-05 1.53546)
(-6.27406e-05 -4.53567e-05 1.32345)
(4.52117e-05 -4.52112e-05 1.15119)
(4.53588e-05 -6.27355e-05 1.32345)
(3.35574e-05 -7.74107e-05 1.44152)
(1.2395e-05 -8.60175e-05 1.50143)
(-1.23947e-05 -8.60179e-05 1.50143)
(-3.35572e-05 -7.74117e-05 1.44152)
(-4.53593e-05 -6.27373e-05 1.32345)
(-4.52137e-05 -4.52133e-05 1.15119)
(2.23417e-05 2.23426e-05 1.15113)
(2.25622e-05 3.11674e-05 1.32341)
(1.67711e-05 3.86065e-05 1.44152)
(6.20863e-06 4.29806e-05 1.50145)
(-6.20868e-06 4.29805e-05 1.50145)
(-1.67713e-05 3.86062e-05 1.44152)
(-2.25629e-05 3.1167e-05 1.32341)
(-2.23431e-05 2.23432e-05 1.15113)
(3.11629e-05 2.25652e-05 1.32341)
(3.24198e-05 3.2424e-05 1.53548)
(2.44303e-05 4.09513e-05 1.66908)
(9.06393e-06 4.58411e-05 1.73369)
(-9.06407e-06 4.58411e-05 1.73369)
(-2.44306e-05 4.09512e-05 1.66908)
(-3.24207e-05 3.24238e-05 1.53548)
(-3.11655e-05 2.25655e-05 1.32341)
(3.8601e-05 1.67751e-05 1.44152)
(4.09472e-05 2.44348e-05 1.66908)
(3.09175e-05 3.09216e-05 1.80894)
(1.13896e-05 3.42525e-05 1.8742)
(-1.13899e-05 3.42525e-05 1.8742)
(-3.0918e-05 3.09215e-05 1.80894)
(-4.0948e-05 2.44346e-05 1.66908)
(-3.86032e-05 1.67751e-05 1.44152)
(4.29748e-05 6.21275e-06 1.50145)
(4.5837e-05 9.06849e-06 1.73369)
(3.42487e-05 1.13937e-05 1.8742)
(1.23354e-05 1.2339e-05 1.93618)
(-1.23358e-05 1.2339e-05 1.93618)
(-3.42492e-05 1.13936e-05 1.8742)
(-4.58377e-05 9.06829e-06 1.73369)
(-4.29766e-05 6.21267e-06 1.50145)
(4.29747e-05 -6.20474e-06 1.50145)
(4.58369e-05 -9.05974e-06 1.73369)
(3.42487e-05 -1.13861e-05 1.8742)
(1.23354e-05 -1.23324e-05 1.93618)
(-1.23359e-05 -1.23324e-05 1.93618)
(-3.42492e-05 -1.13862e-05 1.8742)
(-4.58376e-05 -9.05995e-06 1.73369)
(-4.29762e-05 -6.20491e-06 1.50145)
(3.86007e-05 -1.67677e-05 1.44152)
(4.09469e-05 -2.44266e-05 1.66908)
(3.09174e-05 -3.09142e-05 1.80894)
(1.13895e-05 -3.42458e-05 1.8742)
(-1.13901e-05 -3.42458e-05 1.8742)
(-3.0918e-05 -3.09144e-05 1.80894)
(-4.09475e-05 -2.44268e-05 1.66908)
(-3.86018e-05 -1.67679e-05 1.44152)
(3.11619e-05 -2.25587e-05 1.32341)
(3.24193e-05 -3.24163e-05 1.53548)
(2.44301e-05 -4.09442e-05 1.66908)
(9.06366e-06 -4.58343e-05 1.73369)
(-9.06443e-06 -4.58344e-05 1.73369)
(-2.44309e-05 -4.09445e-05 1.66908)
(-3.24199e-05 -3.24169e-05 1.53548)
(-3.11628e-05 -2.25593e-05 1.32341)
(2.23393e-05 -2.23386e-05 1.15113)
(2.25611e-05 -3.116e-05 1.32341)
(1.67709e-05 -3.85989e-05 1.44152)
(6.20828e-06 -4.2973e-05 1.50145)
(-6.20915e-06 -4.29733e-05 1.50145)
(-1.67717e-05 -3.85997e-05 1.44152)
(-2.2562e-05 -3.11613e-05 1.32341)
(-2.23404e-05 -2.23396e-05 1.15113)
(1.14904e-05 1.14915e-05 1.1511)
(1.15723e-05 1.59832e-05 1.3234)
(8.58626e-06 1.97566e-05 1.44152)
(3.17712e-06 2.19744e-05 1.50146)
(-3.17541e-06 2.1974e-05 1.50146)
(-8.58481e-06 1.97553e-05 1.44152)
(-1.15714e-05 1.59814e-05 1.3234)
(-1.1491e-05 1.14913e-05 1.1511)
(1.59801e-05 1.15747e-05 1.3234)
(1.65709e-05 1.65741e-05 1.5355)
(1.2472e-05 2.08999e-05 1.66912)
(4.62639e-06 2.33832e-05 1.73375)
(-4.62502e-06 2.33829e-05 1.73375)
(-1.24709e-05 2.08991e-05 1.66912)
(-1.65707e-05 1.65728e-05 1.5355)
(-1.59827e-05 1.15739e-05 1.3234)
(1.97533e-05 8.58918e-06 1.44152)
(2.08969e-05 1.24753e-05 1.66912)
(1.57688e-05 1.57719e-05 1.80902)
(5.80929e-06 1.74673e-05 1.8743)
(-5.80843e-06 1.74671e-05 1.8743)
(-1.57682e-05 1.57713e-05 1.80902)
(-2.0897e-05 1.24744e-05 1.66912)
(-1.97563e-05 8.58836e-06 1.44152)
(2.19711e-05 3.1802e-06 1.50146)
(2.33803e-05 4.62985e-06 1.73375)
(1.74645e-05 5.81236e-06 1.8743)
(6.29093e-06 6.29362e-06 1.9363)
(-6.29045e-06 6.29349e-06 1.9363)
(-1.74642e-05 5.81194e-06 1.8743)
(-2.33807e-05 4.62916e-06 1.73375)
(-2.19744e-05 3.17948e-06 1.50146)
(2.19708e-05 -3.17228e-06 1.50146)
(2.33801e-05 -4.6215e-06 1.73375)
(1.74644e-05 -5.8053e-06 1.8743)
(6.29082e-06 -6.28769e-06 1.9363)
(-6.29056e-06 -6.2878e-06 1.9363)
(-1.74643e-05 -5.80562e-06 1.8743)
(-2.33806e-05 -4.62204e-06 1.73375)
(-2.19743e-05 -3.17293e-06 1.50146)
(1.97524e-05 -8.58178e-06 1.44152)
(2.08962e-05 -1.24674e-05 1.66912)
(1.57684e-05 -1.57649e-05 1.80902)
(5.8089e-06 -1.74612e-05 1.8743)
(-5.80879e-06 -1.74613e-05 1.8743)
(-1.57684e-05 -1.57652e-05 1.80902)
(-2.08968e-05 -1.24677e-05 1.66912)
(-1.97559e-05 -8.58229e-06 1.44152)
(1.59784e-05 -1.15679e-05 1.3234)
(1.65697e-05 -1.65666e-05 1.5355)
(1.24711e-05 -2.08932e-05 1.66912)
(4.62562e-06 -2.33771e-05 1.73375)
(-4.62571e-06 -2.33772e-05 1.73375)
(-1.24713e-05 -2.08935e-05 1.66912)
(-1.65703e-05 -1.6567e-05 1.5355)
(-1.59816e-05 -1.15689e-05 1.3234)
(1.14878e-05 -1.14874e-05 1.1511)
(1.15704e-05 -1.59765e-05 1.3234)
(8.5852e-06 -1.97503e-05 1.44152)
(3.17611e-06 -2.19687e-05 1.50146)
(-3.17632e-06 -2.19689e-05 1.50146)
(-8.58545e-06 -1.9751e-05 1.44152)
(-1.15711e-05 -1.59781e-05 1.3234)
(-1.14898e-05 -1.14894e-05 1.1511)
(5.80169e-06 5.80208e-06 1.15108)
(5.85506e-06 8.08686e-06 1.32339)
(4.34974e-06 1.00098e-05 1.44152)
(1.60968e-06 1.11414e-05 1.50146)
(-1.61176e-06 1.11417e-05 1.50146)
(-4.35181e-06 1.00107e-05 1.44152)
(-5.85756e-06 8.08834e-06 1.32339)
(-5.80469e-06 5.80433e-06 1.15108)
(8.08427e-06 5.85692e-06 1.32339)
(8.40364e-06 8.4062e-06 1.5355)
(6.33302e-06 1.06138e-05 1.66915)
(2.34976e-06 1.18818e-05 1.73378)
(-2.35172e-06 1.1882e-05 1.73378)
(-6.33504e-06 1.06143e-05 1.66915)
(-8.4061e-06 8.40717e-06 1.5355)
(-8.0885e-06 5.85868e-06 1.32339)
(1.00067e-05 4.35239e-06 1.44152)
(1.06113e-05 6.33594e-06 1.66915)
(8.01669e-06 8.0193e-06 1.80906)
(2.95428e-06 8.88589e-06 1.87436)
(-2.95587e-06 8.886e-06 1.87436)
(-8.01834e-06 8.01966e-06 1.80906)
(-1.06133e-05 6.33661e-06 1.66915)
(-1.00101e-05 4.35338e-06 1.44152)
(1.1138e-05 1.6126e-06 1.50146)
(1.18793e-05 2.35289e-06 1.73378)
(8.88348e-06 2.95701e-06 1.87436)
(3.20095e-06 3.20333e-06 1.93637)
(-3.20224e-06 3.20341e-06 1.93637)
(-8.88484e-06 2.95728e-06 1.87436)
(-1.18809e-05 2.35344e-06 1.73378)
(-1.11406e-05 1.61339e-06 1.50146)
(1.11382e-05 -1.60885e-06 1.50146)
(1.18795e-05 -2.34861e-06 1.73378)
(8.88361e-06 -2.95315e-06 1.87436)
(3.20104e-06 -3.19985e-06 1.93637)
(-3.20218e-06 -3.19979e-06 1.93637)
(-8.88477e-06 -2.95294e-06 1.87436)
(-1.18807e-05 -2.3482e-06 1.73378)
(-1.11402e-05 -1.60827e-06 1.50146)
(1.00074e-05 -4.34904e-06 1.44152)
(1.06117e-05 -6.332e-06 1.66915)
(8.01705e-06 -8.0156e-06 1.80906)
(2.95457e-06 -8.88235e-06 1.87436)
(-2.95568e-06 -8.88231e-06 1.87436)
(-8.01812e-06 -8.01549e-06 1.80906)
(-1.06127e-05 -6.33174e-06 1.66915)