/*--------------------------------*- C++ -*----------------------------------*\
| =========                 |                                                 |
| \\      /  F ield         | OpenFOAM: The Open Source CFD Toolbox           |
|  \\    /   O peration     | Version:  2406                                  |
|   \\  /    A nd           | Website:  www.openfoam.com                      |
|    \\/     M anipulation  |                                                 |
\*---------------------------------------------------------------------------*/
FoamFile
{
    version     2.0;
    format      ascii;
    arch        "LSB;label=32;scalar=64";
    class       surfaceScalarField;
    location    "4.7";
    object      phi;
}
// * * * * * * * * * * * * * * * * * * * * * * * * * * * * * * * * * * * * * //

dimensions      [0 3 -1 0 0 0 0];

oriented        oriented;

internalField   nonuniform List<scalar> 
46880
(
5.70227e-05
5.70227e-05
9.25627e-05
-6.58089e-05
-6.58089e-05
4.14847e-05
5.85524e-05
0.000107332
-6.81955e-05
2.17749e-05
5.89973e-05
0.000116854
-6.9121e-05
1.83373e-13
5.91027e-05
0.000121561
-6.94051e-05
-2.17749e-05
5.91027e-05
0.000121561
-6.94051e-05
-4.14847e-05
5.89973e-05
0.000116854
-6.9121e-05
-5.70227e-05
5.85524e-05
0.000107332
-6.81955e-05
5.70227e-05
9.25627e-05
-6.58089e-05
-6.58089e-05
5.85524e-05
4.14847e-05
0.000107332
-6.81955e-05
4.20291e-05
4.20291e-05
0.000121733
2.18254e-05
4.20503e-05
0.000130284
1.85378e-13
4.1986e-05
0.000134326
-2.18254e-05
4.1986e-05
0.000134326
-4.20291e-05
4.20503e-05
0.000130284
-5.85524e-05
4.20291e-05
0.000121733
4.14847e-05
0.000107332
-6.81955e-05
5.89973e-05
2.17749e-05
0.000116854
-6.9121e-05
4.20503e-05
2.18254e-05
0.000130284
2.17158e-05
2.17158e-05
0.000137965
1.50276e-13
2.16254e-05
0.00014148
-2.17158e-05
2.16254e-05
0.00014148
-4.20503e-05
2.17158e-05
0.000137965
-5.89973e-05
2.18254e-05
0.000130284
2.17749e-05
0.000116854
-6.9121e-05
5.91027e-05
8.53644e-13
0.000121561
-6.94051e-05
4.1986e-05
1.04286e-12
0.000134326
2.16254e-05
1.01395e-12
0.00014148
1.2211e-13
9.91298e-13
0.000144691
-2.16254e-05
9.61252e-13
0.000144691
-4.1986e-05
9.30739e-13
0.00014148
-5.91027e-05
9.40584e-13
0.000134326
7.72175e-13
0.000121561
-6.94051e-05
5.91027e-05
-2.17749e-05
0.000121561
-6.94051e-05
4.1986e-05
-2.18254e-05
0.000134326
2.16254e-05
-2.17158e-05
0.00014148
9.22314e-14
-2.16254e-05
0.000144691
-2.16254e-05
-2.16254e-05
0.000144691
-4.1986e-05
-2.17158e-05
0.00014148
-5.91027e-05
-2.18254e-05
0.000134326
-2.17749e-05
0.000121561
-6.94051e-05
5.89973e-05
-4.14846e-05
0.000116854
-6.9121e-05
4.20503e-05
-4.20291e-05
0.000130284
2.17158e-05
-4.20503e-05
0.000137965
5.37773e-14
-4.1986e-05
0.00014148
-2.17158e-05
-4.1986e-05
0.00014148
-4.20503e-05
-4.20503e-05
0.000137965
-5.89973e-05
-4.20291e-05
0.000130284
-4.14846e-05
0.000116854
-6.9121e-05
5.85524e-05
-5.70227e-05
0.000107332
-6.81955e-05
4.20291e-05
-5.85524e-05
0.000121733
2.18254e-05
-5.89973e-05
0.000130284
1.81412e-14
-5.91027e-05
0.000134326
-2.18254e-05
-5.91027e-05
0.000134326
-4.20291e-05
-5.89973e-05
0.000130284
-5.85524e-05
-5.85524e-05
0.000121733
-5.70227e-05
0.000107332
-6.81955e-05
5.70227e-05
9.25627e-05
-6.58089e-05
-6.58089e-05
4.14847e-05
0.000107332
-6.81955e-05
2.17749e-05
0.000116854
-6.9121e-05
-6.89217e-15
0.000121561
-6.94051e-05
-2.17749e-05
0.000121561
-6.94051e-05
-4.14847e-05
0.000116854
-6.9121e-05
-5.70227e-05
0.000107332
-6.81955e-05
9.25627e-05
-6.58089e-05
-6.58089e-05
2.12981e-05
2.12981e-05
9.11553e-05
-2.05944e-05
-2.05944e-05
1.7387e-05
2.43165e-05
0.000110076
-2.31488e-05
9.64834e-06
2.60548e-05
0.000123205
-2.46671e-05
1.16558e-13
2.68715e-05
0.000129837
-2.54995e-05
-9.64834e-06
2.68715e-05
0.000129837
-2.54995e-05
-1.7387e-05
2.60548e-05
0.000123205
-2.46671e-05
-2.12981e-05
2.43165e-05
0.000110076
-2.31488e-05
2.12981e-05
9.11553e-05
-2.05944e-05
-2.05944e-05
2.43165e-05
1.7387e-05
0.000110076
-2.31488e-05
1.97648e-05
1.97648e-05
0.000130836
1.0936e-05
2.11179e-05
0.00014405
1.02527e-13
2.17195e-05
0.000150414
-1.0936e-05
2.17195e-05
0.000150414
-1.97648e-05
2.11179e-05
0.00014405
-2.43165e-05
1.97648e-05
0.000130836
1.7387e-05
0.000110076
-2.31488e-05
2.60548e-05
9.64834e-06
0.000123205
-2.46671e-05
2.11179e-05
1.0936e-05
0.00014405
1.1672e-05
1.1672e-05
0.000156857
6.68223e-14
1.19938e-05
0.000162878
-1.1672e-05
1.19938e-05
0.000162878
-2.11179e-05
1.1672e-05
0.000156857
-2.60548e-05
1.0936e-05
0.00014405
9.64834e-06
0.000123205
-2.46671e-05
2.68715e-05
7.31443e-13
0.000129837
-2.54995e-05
2.17195e-05
8.31877e-13
0.000150414
1.19938e-05
7.80253e-13
0.000162878
4.06215e-14
7.59339e-13
0.000168678
-1.19938e-05
7.33967e-13
0.000168678
-2.17195e-05
7.13781e-13
0.000162878
-2.68715e-05
7.54827e-13
0.000150414
6.7604e-13
0.000129837
-2.54995e-05
2.68715e-05
-9.64834e-06
0.000129837
-2.54995e-05
2.17195e-05
-1.0936e-05
0.000150414
1.19938e-05
-1.1672e-05
0.000162878
1.64858e-14
-1.19938e-05
0.000168678
-1.19938e-05
-1.19938e-05
0.000168678
-2.17195e-05
-1.1672e-05
0.000162878
-2.68715e-05
-1.0936e-05
0.000150414
-9.64834e-06
0.000129837
-2.54995e-05
2.60548e-05
-1.7387e-05
0.000123205
-2.46671e-05
2.11179e-05
-1.97648e-05
0.00014405
1.1672e-05
-2.11179e-05
0.000156857
-1.75055e-14
-2.17195e-05
0.000162878
-1.1672e-05
-2.17195e-05
0.000162878
-2.11179e-05
-2.11179e-05
0.000156857
-2.60548e-05
-1.97648e-05
0.00014405
-1.7387e-05
0.000123205
-2.46671e-05
2.43165e-05
-2.12981e-05
0.000110076
-2.31488e-05
1.97648e-05
-2.43165e-05
0.000130836
1.0936e-05
-2.60548e-05
0.00014405
-5.19455e-14
-2.68715e-05
0.000150414
-1.0936e-05
-2.68715e-05
0.000150414
-1.97648e-05
-2.60548e-05
0.00014405
-2.43165e-05
-2.43165e-05
0.000130836
-2.12981e-05
0.000110076
-2.31488e-05
2.12981e-05
9.11553e-05
-2.05944e-05
-2.05944e-05
1.7387e-05
0.000110076
-2.31488e-05
9.64834e-06
0.000123205
-2.46671e-05
-7.25542e-14
0.000129837
-2.54995e-05
-9.64834e-06
0.000129837
-2.54995e-05
-1.7387e-05
0.000123205
-2.46671e-05
-2.12981e-05
0.000110076
-2.31488e-05
9.11553e-05
-2.05944e-05
-2.05944e-05
1.18127e-05
1.18127e-05
8.91259e-05
-1.0798e-05
-1.0798e-05
9.90265e-06
1.43956e-05
0.000110627
-1.30364e-05
5.62154e-06
1.59718e-05
0.000125963
-1.44489e-05
1.93889e-13
1.67467e-05
0.000133897
-1.51853e-05
-5.62154e-06
1.67467e-05
0.000133897
-1.51853e-05
-9.90265e-06
1.59718e-05
0.000125963
-1.44489e-05
-1.18127e-05
1.43956e-05
0.000110627
-1.30364e-05
1.18127e-05
8.91259e-05
-1.0798e-05
-1.0798e-05
1.43956e-05
9.90265e-06
0.000110627
-1.30364e-05
1.20477e-05
1.20477e-05
0.000135532
6.80902e-06
1.33212e-05
0.000151939
1.47702e-13
1.39201e-05
0.00016005
-6.80902e-06
1.39201e-05
0.00016005
-1.20477e-05
1.33212e-05
0.000151939
-1.43956e-05
1.20477e-05
0.000135532
9.90265e-06
0.000110627
-1.30364e-05
1.59718e-05
5.62155e-06
0.000125963
-1.44489e-05
1.33212e-05
6.80902e-06
0.000151939
7.49972e-06
7.49972e-06
0.0001685
7.99045e-14
7.81056e-06
0.000176487
-7.49972e-06
7.81056e-06
0.000176487
-1.33212e-05
7.49972e-06
0.0001685
-1.59718e-05
6.80902e-06
0.000151939
5.62155e-06
0.000125963
-1.44489e-05
1.67467e-05
8.79669e-13
0.000133897
-1.51853e-05
1.39201e-05
9.38202e-13
0.00016005
7.81056e-06
8.09249e-13
0.000176487
3.67418e-14
7.34839e-13
0.000184299
-7.81056e-06
7.01281e-13
0.000184299
-1.39201e-05
7.11056e-13
0.000176487
-1.67467e-05
7.97489e-13
0.00016005
7.35829e-13
0.000133897
-1.51853e-05
1.67467e-05
-5.62154e-06
0.000133897
-1.51853e-05
1.39201e-05
-6.80902e-06
0.00016005
7.81056e-06
-7.49972e-06
0.000176487
4.12883e-15
-7.81055e-06
0.000184299
-7.81056e-06
-7.81055e-06
0.000184299
-1.39201e-05
-7.49972e-06
0.000176487
-1.67467e-05
-6.80902e-06
0.00016005
-5.62154e-06
0.000133897
-1.51853e-05
1.59718e-05
-9.90265e-06
0.000125963
-1.44489e-05
1.33212e-05
-1.20476e-05
0.000151939
7.49972e-06
-1.33212e-05
0.0001685
-3.37242e-14
-1.39201e-05
0.000176487
-7.49972e-06
-1.39201e-05
0.000176487
-1.33212e-05
-1.33212e-05
0.0001685
-1.59718e-05
-1.20476e-05
0.000151939
-9.90265e-06
0.000125963
-1.44489e-05
1.43956e-05
-1.18127e-05
0.000110627
-1.30364e-05
1.20477e-05
-1.43956e-05
0.000135532
6.80902e-06
-1.59718e-05
0.000151939
-7.05524e-14
-1.67467e-05
0.00016005
-6.80902e-06
-1.67467e-05
0.00016005
-1.20477e-05
-1.59718e-05
0.000151939
-1.43956e-05
-1.43956e-05
0.000135532
-1.18127e-05
0.000110627
-1.30364e-05
1.18127e-05
8.91259e-05
-1.0798e-05
-1.0798e-05
9.90265e-06
0.000110627
-1.30364e-05
5.62154e-06
0.000125963
-1.44489e-05
-8.95912e-14
0.000133897
-1.51853e-05
-5.62154e-06
0.000133897
-1.51853e-05
-9.90265e-06
0.000125963
-1.44489e-05
-1.18127e-05
0.000110627
-1.30364e-05
8.91259e-05
-1.0798e-05
-1.0798e-05
2.98521e-06
2.98521e-06
8.73785e-05
-2.11152e-06
-2.11152e-06
2.93654e-06
4.20871e-06
0.000109321
-2.85467e-06
1.80601e-06
5.10333e-06
0.000125443
-3.45295e-06
5.7809e-14
5.56796e-06
0.000133927
-3.79171e-06
-1.80601e-06
5.56796e-06
0.000133927
-3.79171e-06
-2.93654e-06
5.10333e-06
0.000125443
-3.45295e-06
-2.98521e-06
4.20871e-06
0.000109321
-2.85467e-06
2.98521e-06
8.73785e-05
-2.11152e-06
-2.11152e-06
4.20871e-06
2.93654e-06
0.000109321
-2.85467e-06
4.13753e-06
4.13753e-06
0.000135674
2.52404e-06
4.95623e-06
0.000153699
3.45674e-14
5.34154e-06
0.0001628
-2.52404e-06
5.34154e-06
0.0001628
-4.13753e-06
4.95623e-06
0.000153699
-4.20871e-06
4.13753e-06
0.000135674
2.93654e-06
0.000109321
-2.85467e-06
5.10333e-06
1.80601e-06
0.000125443
-3.45295e-06
4.95623e-06
2.52404e-06
0.000153699
2.98743e-06
2.98743e-06
0.000172437
-6.67784e-15
3.17437e-06
0.000181642
-2.98743e-06
3.17437e-06
0.000181642
-4.95623e-06
2.98743e-06
0.000172437
-5.10333e-06
2.52404e-06
0.000153699
1.80601e-06
0.000125443
-3.45295e-06
5.56796e-06
8.62007e-13
0.000133927
-3.79171e-06
5.34154e-06
9.61312e-13
0.0001628
3.17437e-06
8.38794e-13
0.000181642
-3.76988e-14
7.37998e-13
0.000190648
-3.17437e-06
7.13827e-13
0.000190648
-5.34154e-06
7.70743e-13
0.000181642
-5.56796e-06
8.82145e-13
0.0001628
8.13463e-13
0.000133927
-3.79171e-06
5.56796e-06
-1.80601e-06
0.000133927
-3.79171e-06
5.34154e-06
-2.52404e-06
0.0001628
3.17437e-06
-2.98743e-06
0.000181642
-6.20372e-14
-3.17437e-06
0.000190648
-3.17437e-06
-3.17437e-06
0.000190648
-5.34154e-06
-2.98743e-06
0.000181642
-5.56796e-06
-2.52404e-06
0.0001628
-1.80601e-06
0.000133927
-3.79171e-06
5.10333e-06
-2.93654e-06
0.000125443
-3.45295e-06
4.95623e-06
-4.13753e-06
0.000153699
2.98743e-06
-4.95623e-06
0.000172437
-8.87547e-14
-5.34154e-06
0.000181642
-2.98743e-06
-5.34154e-06
0.000181642
-4.95623e-06
-4.95623e-06
0.000172437
-5.10333e-06
-4.13753e-06
0.000153699
-2.93654e-06
0.000125443
-3.45295e-06
4.20871e-06
-2.98521e-06
0.000109321
-2.85467e-06
4.13753e-06
-4.20871e-06
0.000135674
2.52404e-06
-5.10333e-06
0.000153699
-1.24835e-13
-5.56796e-06
0.0001628
-2.52404e-06
-5.56796e-06
0.0001628
-4.13753e-06
-5.10333e-06
0.000153699
-4.20871e-06
-4.20871e-06
0.000135674
-2.98521e-06
0.000109321
-2.85467e-06
2.98521e-06
8.73785e-05
-2.11152e-06
-2.11152e-06
2.93654e-06
0.000109321
-2.85467e-06
1.80601e-06
0.000125443
-3.45295e-06
-1.41506e-13
0.000133927
-3.79171e-06
-1.80601e-06
0.000133927
-3.79171e-06
-2.93654e-06
0.000125443
-3.45295e-06
-2.98521e-06
0.000109321
-2.85467e-06
8.73785e-05
-2.11152e-06
-2.11152e-06
1.75855e-06
1.75855e-06
8.68359e-05
-1.48727e-06
-1.48727e-06
1.58507e-06
2.31764e-06
0.000109058
-1.88066e-06
9.44341e-07
2.7317e-06
0.000125519
-2.1672e-06
2.9589e-13
2.94525e-06
0.000134245
-2.31887e-06
-9.44341e-07
2.94525e-06
0.000134245
-2.31887e-06
-1.58507e-06
2.7317e-06
0.000125519
-2.1672e-06
-1.75855e-06
2.31764e-06
0.000109058
-1.88066e-06
1.75855e-06
8.68359e-05
-1.48727e-06
-1.48727e-06
2.31763e-06
1.58508e-06
0.000109058
-1.88066e-06
2.13338e-06
2.13339e-06
0.000136043
1.27625e-06
2.52942e-06
0.000154759
2.44347e-13
2.71285e-06
0.000164309
-1.27625e-06
2.71285e-06
0.000164309
-2.13338e-06
2.52941e-06
0.000154759
-2.31764e-06
2.13339e-06
0.000136043
1.58507e-06
0.000109058
-1.88066e-06
2.7317e-06
9.44342e-07
0.000125519
-2.1672e-06
2.52941e-06
1.27625e-06
0.000154759
1.50567e-06
1.50567e-06
0.000174485
1.51164e-13
1.58998e-06
0.00018427
-1.50567e-06
1.58998e-06
0.00018427
-2.52941e-06
1.50567e-06
0.000174485
-2.7317e-06
1.27625e-06
0.000154759
9.44342e-07
0.000125519
-2.1672e-06
2.94525e-06
1.14761e-12
0.000134245
-2.31887e-06
2.71285e-06
1.24622e-12
0.000164309
1.58997e-06
1.06986e-12
0.00018427
8.27711e-14
9.0962e-13
0.000193828
-1.58997e-06
8.6931e-13
0.000193828
-2.71285e-06
9.48617e-13
0.00018427
-2.94525e-06
1.0673e-12
0.000164309
9.64238e-13
0.000134245
-2.31887e-06
2.94525e-06
-9.4434e-07
0.000134245
-2.31887e-06
2.71285e-06
-1.27624e-06
0.000164309
1.58997e-06
-1.50567e-06
0.00018427
4.38846e-14
-1.58997e-06
0.000193828
-1.58997e-06
-1.58997e-06
0.000193828
-2.71285e-06
-1.50567e-06
0.00018427
-2.94525e-06
-1.27624e-06
0.000164309
-9.4434e-07
0.000134245
-2.31887e-06
2.7317e-06
-1.58507e-06
0.000125519
-2.1672e-06
2.52941e-06
-2.13338e-06
0.000154759
1.50567e-06
-2.52941e-06
0.000174485
1.64324e-14
-2.71285e-06
0.00018427
-1.50567e-06
-2.71285e-06
0.00018427
-2.52941e-06
-2.52941e-06
0.000174485
-2.7317e-06
-2.13338e-06
0.000154759
-1.58507e-06
0.000125519
-2.1672e-06
2.31763e-06
-1.75855e-06
0.000109058
-1.88066e-06
2.13338e-06
-2.31763e-06
0.000136043
1.27625e-06
-2.73169e-06
0.000154759
-1.31832e-14
-2.94525e-06
0.000164309
-1.27625e-06
-2.94525e-06
0.000164309
-2.13338e-06
-2.73169e-06
0.000154759
-2.31763e-06
-2.31763e-06
0.000136043
-1.75855e-06
0.000109058
-1.88066e-06
1.75855e-06
8.68359e-05
-1.48727e-06
-1.48727e-06
1.58507e-06
0.000109058
-1.88066e-06
9.44341e-07
0.000125519
-2.1672e-06
-3.47167e-14
0.000134245
-2.31887e-06
-9.44341e-07
0.000134245
-2.31887e-06
-1.58507e-06
0.000125519
-2.1672e-06
-1.75855e-06
0.000109058
-1.88066e-06
8.68359e-05
-1.48727e-06
-1.48727e-06
6.09094e-07
6.09094e-07
8.65409e-05
-4.61558e-07
-4.61558e-07
5.88221e-07
8.41815e-07
0.000108839
-6.01562e-07
3.62056e-07
1.02624e-06
0.000125434
-7.14691e-07
2.02068e-16
1.12581e-06
0.00013426
-7.78511e-07
-3.62056e-07
1.12581e-06
0.00013426
-7.78511e-07
-5.88221e-07
1.02624e-06
0.000125434
-7.14691e-07
-6.09094e-07
8.41815e-07
0.000108839
-6.01562e-07
6.09094e-07
8.65409e-05
-4.61559e-07
-4.61558e-07
8.41814e-07
5.88222e-07
0.000108839
-6.01562e-07
8.30744e-07
8.30745e-07
0.000136065
5.13706e-07
1.01887e-06
0.000155083
-1.63324e-14
1.11174e-06
0.000164837
-5.13707e-07
1.11174e-06
0.000164837
-8.30744e-07
1.01887e-06
0.000155083
-8.41814e-07
8.30745e-07
0.000136065
5.88222e-07
0.000108839
-6.01563e-07
1.02624e-06
3.62057e-07
0.000125434
-7.1469e-07
1.01887e-06
5.13708e-07
0.000155083
6.28552e-07
6.28553e-07
0.000175266
-4.70327e-14
6.77036e-07
0.000185334
-6.28552e-07
6.77036e-07
0.000185334
-1.01887e-06
6.28553e-07
0.000175266
-1.02624e-06
5.13708e-07
0.000155083
3.62057e-07
0.000125434
-7.14691e-07
1.12581e-06
1.19565e-12
0.00013426
-7.7851e-07
1.11173e-06
1.36042e-12
0.000164837
6.77035e-07
1.22255e-12
0.000185334
-6.80686e-14
1.08453e-12
0.000195182
-6.77035e-07
1.06746e-12
0.000195182
-1.11173e-06
1.1841e-12
0.000185334
-1.12581e-06
1.33103e-12
0.000164837
1.21469e-12
0.00013426
-7.78511e-07
1.12581e-06
-3.62055e-07
0.00013426
-7.7851e-07
1.11173e-06
-5.13705e-07
0.000164837
6.77035e-07
-6.28551e-07
0.000185334
-8.47084e-14
-6.77034e-07
0.000195182
-6.77035e-07
-6.77034e-07
0.000195182
-1.11173e-06
-6.28551e-07
0.000185334
-1.12581e-06
-5.13705e-07
0.000164837
-3.62055e-07
0.00013426
-7.78511e-07
1.02624e-06
-5.8822e-07
0.000125434
-7.1469e-07
1.01887e-06
-8.30743e-07
0.000155083
6.28552e-07
-1.01887e-06
0.000175266
-1.00569e-13
-1.11173e-06
0.000185334
-6.28552e-07
-1.11173e-06
0.000185334
-1.01887e-06
-1.01887e-06
0.000175266
-1.02624e-06
-8.30743e-07
0.000155083
-5.8822e-07
0.000125434
-7.14691e-07
8.41814e-07
-6.09093e-07
0.000108839
-6.01562e-07
8.30744e-07
-8.41813e-07
0.000136065
5.13706e-07
-1.02624e-06
0.000155083
-1.22214e-13
-1.12581e-06
0.000164837
-5.13707e-07
-1.12581e-06
0.000164837
-8.30744e-07
-1.02624e-06
0.000155083
-8.41814e-07
-8.41813e-07
0.000136065
-6.09093e-07
0.000108839
-6.01562e-07
6.09094e-07
8.65409e-05
-4.61558e-07
-4.61558e-07
5.88221e-07
0.000108839
-6.01561e-07
3.62056e-07
0.000125434
-7.1469e-07
-1.31014e-13
0.00013426
-7.7851e-07
-3.62056e-07
0.00013426
-7.7851e-07
-5.88221e-07
0.000125434
-7.1469e-07
-6.09094e-07
0.000108839
-6.01562e-07
8.65409e-05
-4.61558e-07
-4.61558e-07
3.37042e-07
3.37043e-07
8.64326e-05
-2.8288e-07
-2.8288e-07
3.05727e-07
4.42555e-07
0.000108783
-3.55841e-07
1.8277e-07
5.24016e-07
0.000125443
-4.10568e-07
2.50903e-13
5.67997e-07
0.000134315
-4.40394e-07
-1.8277e-07
5.67997e-07
0.000134315
-4.40394e-07
-3.05727e-07
5.24016e-07
0.000125443
-4.10568e-07
-3.37042e-07
4.42555e-07
0.000108783
-3.5584e-07
3.37042e-07
8.64326e-05
-2.8288e-07
-2.8288e-07
4.42554e-07
3.05729e-07
0.000108783
-3.5584e-07
4.11361e-07
4.11362e-07
0.000136127
2.48164e-07
4.93894e-07
0.000155277
2.07551e-13
5.35806e-07
0.000165117
-2.48163e-07
5.35806e-07
0.000165117
-4.11361e-07
4.93894e-07
0.000155277
-4.42554e-07
4.11362e-07
0.000136127
3.05728e-07
0.000108783
-3.55841e-07
5.24015e-07
1.82772e-07
0.000125443
-4.10567e-07
4.93893e-07
2.48165e-07
0.000155277
2.99349e-07
2.9935e-07
0.000175655
1.20269e-13
3.22832e-07
0.000185846
-2.99349e-07
3.22832e-07
0.000185846
-4.93893e-07
2.9935e-07
0.000175655
-5.24015e-07
2.48165e-07
0.000155277
1.82772e-07
0.000125443
-4.10568e-07
5.67995e-07
1.73136e-12
0.000134315
-4.40393e-07
5.35805e-07
1.89195e-12
0.000165117
3.22831e-07
1.66123e-12
0.000185846
5.72419e-14
1.44433e-12
0.000195828
-3.22831e-07
1.39783e-12
0.000195828
-5.35805e-07
1.53352e-12
0.000185846
-5.67996e-07
1.68731e-12
0.000165117
1.51448e-12
0.000134315
-4.40394e-07
5.67995e-07
-1.82769e-07
0.000134315
-4.40393e-07
5.35805e-07
-2.48162e-07
0.000165117
3.22831e-07
-2.99347e-07
0.000185846
1.36223e-14
-3.22829e-07
0.000195828
-3.22831e-07
-3.22829e-07
0.000195828
-5.35805e-07
-2.99347e-07
0.000185846
-5.67996e-07
-2.48162e-07
0.000165117
-1.82769e-07
0.000134315
-4.40394e-07
5.24015e-07
-3.05726e-07
0.000125443
-4.10567e-07
4.93893e-07
-4.11359e-07
0.000155277
2.99349e-07
-4.93891e-07
0.000175655
-1.90617e-14
-5.35803e-07
0.000185846
-2.99349e-07
-5.35803e-07
0.000185846
-4.93893e-07
-4.93891e-07
0.000175655
-5.24015e-07
-4.11359e-07
0.000155277
-3.05726e-07
0.000125443
-4.10568e-07
4.42554e-07
-3.3704e-07
0.000108783
-3.55839e-07
4.11361e-07
-4.42552e-07
0.000136127
2.48164e-07
-5.24013e-07
0.000155277
-6.11998e-14
-5.67994e-07
0.000165117
-2.48164e-07
-5.67994e-07
0.000165117
-4.11361e-07
-5.24013e-07
0.000155277
-4.42554e-07
-4.42553e-07
0.000136127
-3.3704e-07
0.000108783
-3.5584e-07
3.37041e-07
8.64326e-05
-2.8288e-07
-2.82879e-07
3.05727e-07
0.000108783
-3.55839e-07
1.8277e-07
0.000125443
-4.10566e-07
-7.89035e-14
0.000134315
-4.40393e-07
-1.8277e-07
0.000134315
-4.40393e-07
-3.05727e-07
0.000125443
-4.10567e-07
-3.37041e-07
0.000108783
-3.55839e-07
8.64326e-05
-2.8288e-07
-2.8288e-07
1.51348e-07
1.5135e-07
8.63735e-05
-1.21836e-07
-1.21836e-07
1.40339e-07
2.02145e-07
0.000108747
-1.55427e-07
8.45677e-08
2.41371e-07
0.000125439
-1.81513e-07
-9.52869e-14
2.62704e-07
0.000134333
-1.96084e-07
-8.45679e-08
2.62704e-07
0.000134333
-1.96084e-07
-1.4034e-07
2.41371e-07
0.000125439
-1.81513e-07
-1.51349e-07
2.02145e-07
0.000108747
-1.55426e-07
1.5135e-07
8.63735e-05
-1.21837e-07
-1.21836e-07
2.02143e-07
1.40341e-07
0.000108747
-1.55425e-07
1.91011e-07
1.91013e-07
0.00013615
1.15755e-07
2.30229e-07
0.000155363
-7.90542e-14
2.5041e-07
0.000165245
-1.15755e-07
2.5041e-07
0.000165245
-1.91011e-07
2.30229e-07
0.000155363
-2.02144e-07
1.91013e-07
0.00013615
1.40341e-07
0.000108747
-1.55427e-07
2.41369e-07
8.45696e-08
0.000125439
-1.81511e-07
2.30227e-07
1.15757e-07
0.000155363
1.40054e-07
1.40056e-07
0.000175835
-8.20654e-14
1.51654e-07
0.000186085
-1.40054e-07
1.51654e-07
0.000186085
-2.30228e-07
1.40056e-07
0.000175835
-2.41369e-07
1.15757e-07
0.000155363
8.45697e-08
0.000125439
-1.81512e-07
2.62702e-07
1.64511e-12
0.000134333
-1.96083e-07
2.50409e-07
1.87249e-12
0.000165245
1.51653e-07
1.69796e-12
0.000186085
-8.2502e-14
1.52399e-12
0.000196131
-1.51653e-07
1.51033e-12
0.000196131
-2.50409e-07
1.68519e-12
0.000186085
-2.62702e-07
1.87242e-12
0.000165245
1.70084e-12
0.000134333
-1.96084e-07
2.62702e-07
-8.45664e-08
0.000134333
-1.96083e-07
2.50409e-07
-1.15754e-07
0.000165245
1.51653e-07
-1.40052e-07
0.000186085
-9.52207e-14
-1.51651e-07
0.000196131
-1.51653e-07
-1.51651e-07
0.000196131
-2.50409e-07
-1.40052e-07
0.000186085
-2.62702e-07
-1.15754e-07
0.000165245
-8.45664e-08
0.000134333
-1.96084e-07
2.41369e-07
-1.40338e-07
0.000125439
-1.81511e-07
2.30227e-07
-1.9101e-07
0.000155363
1.40054e-07
-2.30226e-07
0.000175835
-1.06992e-13
-2.50407e-07
0.000186085
-1.40054e-07
-2.50407e-07
0.000186085
-2.30228e-07
-2.30226e-07
0.000175835
-2.41369e-07
-1.9101e-07
0.000155363
-1.40338e-07
0.000125439
-1.81512e-07
2.02143e-07
-1.51347e-07
0.000108747
-1.55425e-07
1.91011e-07
-2.02142e-07
0.00013615
1.15755e-07
-2.41368e-07
0.000155363
-1.37613e-13
-2.62701e-07
0.000165245
-1.15756e-07
-2.62701e-07
0.000165245
-1.91011e-07
-2.41368e-07
0.000155363
-2.02144e-07
-2.02142e-07
0.00013615
-1.51347e-07
0.000108747
-1.55426e-07
1.51348e-07
8.63735e-05
-1.21836e-07
-1.21835e-07
1.40339e-07
0.000108747
-1.55425e-07
8.45679e-08
0.000125439
-1.81511e-07
-1.48355e-13
0.000134333
-1.96083e-07
-8.45682e-08
0.000134333
-1.96083e-07
-1.4034e-07
0.000125439
-1.81511e-07
-1.51348e-07
0.000108747
-1.55425e-07
8.63735e-05
-1.21836e-07
-1.21836e-07
7.9033e-08
7.90344e-08
8.63467e-05
-6.56222e-08
-6.56224e-08
7.18495e-08
1.04053e-07
0.000108733
-8.28793e-08
4.28782e-08
1.23074e-07
0.000125441
-9.59202e-08
6.0473e-13
1.3333e-07
0.000134345
-1.03101e-07
-4.2877e-08
1.3333e-07
0.000134345
-1.03101e-07
-7.18486e-08
1.23073e-07
0.000125441
-9.59198e-08
-7.90324e-08
1.04053e-07
0.000108733
-8.28785e-08
7.90337e-08
8.63467e-05
-6.56222e-08
-6.56221e-08
1.04051e-07
7.18513e-08
0.000108733
-8.28779e-08
9.64209e-08
9.6423e-08
0.000136165
5.78783e-08
1.15181e-07
0.000155409
5.55874e-13
1.24754e-07
0.000165311
-5.78773e-08
1.24754e-07
0.000165311
-9.64202e-08
1.15181e-07
0.000155409
-1.04051e-07
9.64224e-08
0.000136165
7.18506e-08
0.000108733
-8.28787e-08
1.23072e-07
4.28799e-08
0.000125441
-9.59186e-08
1.15179e-07
5.78803e-08
0.000155409
6.94188e-08
6.94207e-08
0.000175927
4.0575e-13
7.49052e-08
0.000186204
-6.94181e-08
7.49051e-08
0.000186204
-1.15179e-07
6.94204e-08
0.000175927
-1.23072e-07
5.78799e-08
0.000155409
4.28794e-08
0.000125441
-9.59196e-08
1.33328e-07
2.22917e-12
0.000134345
-1.031e-07
1.24752e-07
2.42231e-12
0.000165311
7.49035e-08
2.1235e-12
0.000186204
2.86453e-13
1.84012e-12
0.000196281
-7.4903e-08
1.76581e-12
0.000196281
-1.24752e-07
1.90153e-12
0.000186204
-1.33328e-07
2.06272e-12
0.000165311
1.82356e-12
0.000134345
-1.03101e-07
1.33328e-07
-4.28755e-08
0.000134345
-1.031e-07
1.24752e-07
-5.78756e-08
0.000165311
7.49035e-08
-6.94165e-08
0.000186204
2.13449e-13
-7.49015e-08
0.000196281
-7.49031e-08
-7.49015e-08
0.000196281
-1.24752e-07
-6.94167e-08
0.000186204
-1.33328e-07
-5.78759e-08
0.000165311
-4.28758e-08
0.000134345
-1.03101e-07
1.23072e-07
-7.18473e-08
0.000125441
-9.59186e-08
1.15179e-07
-9.64185e-08
0.000155409
6.94187e-08
-1.15177e-07
0.000175927
1.70353e-13
-1.2475e-07
0.000186204
-6.94184e-08
-1.2475e-07
0.000186204
-1.15179e-07
-1.15177e-07
0.000175927
-1.23072e-07
-9.64187e-08
0.000155409
-7.18474e-08
0.000125441
-9.59195e-08
1.04051e-07
-7.90311e-08
0.000108733
-8.28775e-08
9.64207e-08
-1.0405e-07
0.000136165
5.78781e-08
-1.2307e-07
0.000155409
1.32055e-13
-1.33327e-07
0.000165311
-5.78778e-08
-1.33327e-07
0.000165311
-9.64206e-08
-1.2307e-07
0.000155409
-1.04051e-07
-1.0405e-07
0.000136165
-7.90312e-08
0.000108733
-8.28782e-08
7.90324e-08
8.63467e-05
-6.56213e-08
-6.56209e-08
7.18492e-08
0.000108733
-8.28771e-08
4.28777e-08
0.000125441
-9.59181e-08
8.39096e-14
0.000134345
-1.03099e-07
-4.28776e-08
0.000134345
-1.031e-07
-7.18491e-08
0.000125441
-9.59183e-08
-7.90323e-08
0.000108733
-8.28774e-08
8.63467e-05
-6.56212e-08
-6.56215e-08
3.80806e-08
3.80823e-08
8.63326e-05
-3.10248e-08
-3.10244e-08
3.50232e-08
5.06165e-08
0.000108725
-3.94622e-08
2.10079e-08
6.01984e-08
0.000125441
-4.5952e-08
3.2863e-13
6.53708e-08
0.00013435
-4.95573e-08
-2.10073e-08
6.53707e-08
0.00013435
-4.95572e-08
-3.50228e-08
6.01981e-08
0.000125441
-4.59516e-08
-3.80804e-08
5.0616e-08
0.000108725
-3.94616e-08
3.80819e-08
8.63326e-05
-3.10249e-08
-3.10243e-08
5.06142e-08
3.50253e-08
0.000108725
-3.94605e-08
4.73936e-08
4.7396e-08
0.000136171
2.85615e-08
5.68264e-08
0.000155432
3.11655e-13
6.1625e-08
0.000165344
-2.8561e-08
6.16249e-08
0.000165344
-4.73932e-08
5.68262e-08
0.000155432
-5.06142e-08
4.73957e-08
0.000136171
3.5025e-08
0.000108725
-3.94613e-08
6.01961e-08
2.10099e-08
0.000125441
-4.59498e-08
5.68241e-08
2.85638e-08
0.000155432
3.43452e-08
3.43473e-08
0.000175971
2.06419e-13
3.70868e-08
0.000186263
-3.43449e-08
3.70867e-08
0.000186263
-5.68239e-08
3.43472e-08
0.000175971
-6.01962e-08
2.85636e-08
0.000155432
2.10097e-08
0.000125441
-4.59506e-08
6.53685e-08
2.02712e-12
0.00013435
-4.95552e-08
6.16229e-08
2.27218e-12
0.000165344
3.70849e-08
2.03441e-12
0.000186263
1.30427e-13
1.79906e-12
0.000196355
-3.70847e-08
1.74946e-12
0.000196355
-6.16228e-08
1.90773e-12
0.000186263
-6.53686e-08
2.08225e-12
0.000165344
1.86555e-12
0.00013435
-4.95558e-08
6.53686e-08
-2.1006e-08
0.00013435
-4.95553e-08
6.1623e-08
-2.85593e-08
0.000165344
3.70849e-08
-3.43433e-08
0.000186263
8.12861e-14
-3.70832e-08
0.000196355
-3.70848e-08
-3.70832e-08
0.000196355
-6.16229e-08
-3.43434e-08
0.000186263
-6.53686e-08
-2.85595e-08
0.000165344
-2.10061e-08
0.00013435
-4.95558e-08
6.01963e-08
-3.50216e-08
0.000125441
-4.595e-08
5.68243e-08
-4.73918e-08
0.000155432
3.43453e-08
-5.68225e-08
0.000175971
5.79432e-14
-6.16214e-08
0.000186263
-3.43452e-08
-6.16214e-08
0.000186263
-5.68242e-08
-5.68226e-08
0.000175971
-6.01962e-08
-4.7392e-08
0.000155432
-3.50218e-08
0.000125441
-4.59504e-08
5.06143e-08
-3.80793e-08
0.000108725
-3.94604e-08
4.73937e-08
-5.06128e-08
0.000136171
2.85615e-08
-6.01949e-08
0.000155432
3.6487e-14
-6.53674e-08
0.000165344
-2.85614e-08
-6.53674e-08
0.000165344
-4.73936e-08
-6.01951e-08
0.000155432
-5.06142e-08
-5.0613e-08
0.000136171
-3.80795e-08
0.000108725
-3.94607e-08
3.80804e-08
8.63326e-05
-3.10236e-08
-3.10235e-08
3.50232e-08
0.000108725
-3.94599e-08
2.10078e-08
0.000125441
-4.59495e-08
-1.59508e-15
0.00013435
-4.95549e-08
-2.10078e-08
0.00013435
-4.9555e-08
-3.50232e-08
0.000125441
-4.59497e-08
-3.80804e-08
0.000108725
-3.94603e-08
8.63326e-05
-3.10239e-08
-3.10238e-08
1.96295e-08
1.96311e-08
8.63257e-05
-1.6166e-08
-1.6166e-08
1.79429e-08
2.5969e-08
0.000108722
-2.04874e-08
1.07363e-08
3.08012e-08
0.000125441
-2.37789e-08
9.57207e-13
3.34038e-08
0.000134353
-2.55966e-08
-1.07344e-08
3.34036e-08
0.000134353
-2.55964e-08
-1.79414e-08
3.08005e-08
0.000125441
-2.37781e-08
-1.96285e-08
2.59678e-08
0.000108722
-2.04861e-08
1.96299e-08
8.63257e-05
-1.61655e-08
-1.61653e-08
2.59668e-08
1.79447e-08
0.000108722
-2.04857e-08
2.41868e-08
2.4189e-08
0.000136175
1.45478e-08
2.89464e-08
0.000155443
8.40021e-13
3.13603e-08
0.00016536
-1.45462e-08
3.13601e-08
0.00016536
-2.41855e-08
2.89458e-08
0.000155443
-2.59661e-08
2.41881e-08
0.000136175
1.79437e-08
0.000108722
-2.0486e-08
3.0799e-08
1.0738e-08
0.000125441
-2.37769e-08
2.89443e-08
1.45498e-08
0.000155443
1.74636e-08
1.74655e-08
0.000175994
5.79805e-13
1.884e-08
0.000186293
-1.74625e-08
1.88399e-08
0.000186293
-2.89435e-08
1.7465e-08
0.000175994
-3.07986e-08
1.45491e-08
0.000155443
1.07371e-08
0.000125441
-2.37775e-08
3.34018e-08
2.50149e-12
0.000134353
-2.55948e-08
3.13584e-08
2.64965e-12
0.00016536
1.88383e-08
2.26197e-12
0.000186293
3.83926e-13
1.90796e-12
0.000196393
-1.88376e-08
1.78931e-12
0.000196393
-3.13579e-08
1.90182e-12
0.000186293
-3.34016e-08
2.03788e-12
0.00016536
1.78745e-12
0.000134353
-2.55955e-08
3.34018e-08
-1.07331e-08
0.000134353
-2.55947e-08
3.13583e-08
-1.45446e-08
0.00016536
1.88383e-08
-1.7461e-08
0.000186293
2.65846e-13
-1.88362e-08
0.000196393
-1.88378e-08
-1.88363e-08
0.000196393
-3.1358e-08
-1.74613e-08
0.000186293
-3.34017e-08
-1.45451e-08
0.00016536
-1.07336e-08
0.000134353
-2.55956e-08
3.07988e-08
-1.79402e-08
0.000125441
-2.37767e-08
2.89441e-08
-2.4184e-08
0.000155443
1.74633e-08
-2.8942e-08
0.000175994
2.0006e-13
-3.13564e-08
0.000186293
-1.7463e-08
-3.13565e-08
0.000186293
-2.89439e-08
-2.89423e-08
0.000175994
-3.07988e-08
-2.41844e-08
0.000155443
-1.79405e-08
0.000125441
-2.37776e-08
2.59663e-08
-1.96273e-08
0.000108722
-2.0485e-08
2.41863e-08
-2.59646e-08
0.000136175
1.45472e-08
-3.07972e-08
0.000155443
1.42277e-13
-3.34002e-08
0.00016536
-1.4547e-08
-3.34003e-08
0.00016536
-2.41862e-08
-3.07974e-08
0.000155443
-2.59662e-08
-2.59649e-08
0.000136175
-1.96275e-08
0.000108722
-2.04857e-08
1.96286e-08
8.63257e-05
-1.61647e-08
-1.61642e-08
1.79422e-08
0.000108722
-2.04846e-08
1.07355e-08
0.000125441
-2.37761e-08
8.31931e-14
0.000134353
-2.55942e-08
-1.07354e-08
0.000134353
-2.55942e-08
-1.79421e-08
0.000125441
-2.37764e-08
-1.96285e-08
0.000108722
-2.0485e-08
8.63257e-05
-1.61645e-08
-1.61649e-08
9.77389e-09
9.7751e-09
8.63221e-05
-7.98451e-09
-7.9842e-09
8.98176e-09
1.29823e-08
0.00010872
-1.01452e-08
5.38858e-09
1.54375e-08
0.000125441
-1.18028e-08
-2.80871e-14
1.67628e-08
0.000134355
-1.27218e-08
-5.38861e-09
1.67628e-08
0.000134355
-1.27218e-08
-8.98188e-09
1.54374e-08
0.000125441
-1.18027e-08
-9.77408e-09
1.29823e-08
0.00010872
-1.0145e-08
9.77511e-09
8.63221e-05
-7.98485e-09
-7.98434e-09
1.29806e-08
8.9835e-09
0.00010872
-1.01441e-08
1.21561e-08
1.21581e-08
0.000136177
7.33084e-09
1.45843e-08
0.000155449
-2.78656e-14
1.58185e-08
0.000165369
-7.33094e-09
1.58184e-08
0.000165369
-1.21563e-08
1.45843e-08
0.000155449
-1.2981e-08
1.2158e-08
0.000136177
8.9835e-09
0.00010872
-1.0145e-08
1.54357e-08
5.39036e-09
0.000125441
-1.18013e-08
1.45825e-08
7.33282e-09
0.000155449
8.8213e-09
8.8231e-09
0.000176006
-7.23651e-14
9.52805e-09
0.000186308
-8.82147e-09
9.52803e-09
0.000186308
-1.45828e-08
8.82303e-09
0.000176006
-1.54361e-08