/*--------------------------------*- C++ -*----------------------------------*\
| =========                 |                                                 |
| \\      /  F ield         | OpenFOAM: The Open Source CFD Toolbox           |
|  \\    /   O peration     | Version:  2406                                  |
|   \\  /    A nd           | Website:  www.openfoam.com                      |
|    \\/     M anipulation  |                                                 |
\*---------------------------------------------------------------------------*/
FoamFile
{
    version     2.0;
    format      ascii;
    arch        "LSB;label=32;scalar=64";
    class       volScalarField;
    location    "1.7";
    object      div(phi);
}
// * * * * * * * * * * * * * * * * * * * * * * * * * * * * * * * * * * * * * //

dimensions      [0 0 -1 0 0 0 0];

internalField   nonuniform List<scalar> 
25000
(
5.8067e-07
5.24813e-07
5.33394e-07
5.14284e-07
4.94272e-07
4.8084e-07
4.71753e-07
4.49917e-07
4.69773e-07
3.81833e-07
5.04973e-07
4.49698e-07
4.43084e-07
4.37823e-07
4.2916e-07
3.98505e-07
3.93412e-07
3.97949e-07
3.59741e-07
3.03609e-07
4.64149e-07
4.09341e-07
4.31169e-07
4.261e-07
4.04261e-07
3.93973e-07
3.77613e-07
3.59959e-07
3.69051e-07
2.89138e-07
4.38271e-07
3.93584e-07
3.95545e-07
4.01809e-07
3.91868e-07
3.64598e-07
3.59451e-07
3.64067e-07
3.36037e-07
2.85563e-07
4.11221e-07
3.57439e-07
3.82752e-07
3.83832e-07
3.67706e-07
3.5933e-07
3.47461e-07
3.36952e-07
3.3886e-07
2.73663e-07
3.97979e-07
3.50781e-07
3.54709e-07
3.63428e-07
3.55453e-07
3.34911e-07
3.31377e-07
3.33664e-07
3.18841e-07
2.65067e-07
3.75089e-07
3.2002e-07
3.37304e-07
3.37579e-07
3.23734e-07
3.17025e-07
3.1515e-07
3.11874e-07
3.06949e-07
2.55789e-07
3.60892e-07
3.03866e-07
3.08376e-07
3.0719e-07
3.00106e-07
2.98689e-07
2.93015e-07
2.98252e-07
2.9853e-07
2.42055e-07
3.23957e-07
2.75349e-07
2.73882e-07
2.77773e-07
2.76321e-07
2.70464e-07
2.75056e-07
2.81964e-07
2.7209e-07
2.25272e-07
2.71647e-07
2.19582e-07
2.24713e-07
2.25485e-07
2.23631e-07
2.25054e-07
2.25226e-07
2.23725e-07
2.14969e-07
1.74802e-07
4.38844e-07
4.01485e-07
4.06573e-07
3.99764e-07
3.96796e-07
3.87765e-07
4.0147e-07
3.98293e-07
4.09838e-07
3.54947e-07
3.86664e-07
3.39884e-07
3.49115e-07
3.41343e-07
3.36477e-07
3.31124e-07
3.22841e-07
3.35504e-07
3.35001e-07
2.89681e-07
3.81721e-07
3.33729e-07
3.34427e-07
3.44962e-07
3.38012e-07
3.2258e-07
3.25577e-07
3.22361e-07
3.26386e-07
2.85806e-07
3.71234e-07
3.19777e-07
3.40366e-07
3.44188e-07
3.36783e-07
3.28802e-07
3.16787e-07
3.20424e-07
3.18956e-07
2.80429e-07
3.82742e-07
3.25421e-07
3.34297e-07
3.46508e-07
3.3895e-07
3.23969e-07
3.20479e-07
3.17241e-07
3.12353e-07
2.77113e-07
3.81336e-07
3.21566e-07
3.37086e-07
3.42352e-07
3.34e-07
3.22923e-07
3.12972e-07
3.10491e-07
3.12469e-07
2.71814e-07
3.92869e-07
3.22786e-07
3.28039e-07
3.32248e-07
3.20883e-07
3.07985e-07
3.03059e-07
3.07464e-07
3.00022e-07
2.70575e-07
3.89265e-07
3.17799e-07
3.19515e-07
3.12667e-07
3.04095e-07
2.94718e-07
2.94324e-07
2.88738e-07
3.07642e-07
2.62256e-07
3.78517e-07
3.09774e-07
2.98164e-07
2.98319e-07
2.83026e-07
2.83673e-07
2.70809e-07
2.94085e-07
2.82485e-07
2.42749e-07
3.16526e-07
2.495e-07
2.52277e-07
2.44888e-07
2.43013e-07
2.35978e-07
2.39393e-07
2.37807e-07
2.25134e-07
1.91329e-07
7.7642e-07
6.89784e-07
6.81234e-07
6.39693e-07
5.96463e-07
5.63932e-07
5.58036e-07
5.18028e-07
5.51275e-07
4.43982e-07
6.58297e-07
5.52806e-07
5.2387e-07
4.8794e-07
4.67783e-07
4.27158e-07
4.18289e-07
4.39073e-07
4.03812e-07
3.54354e-07
5.87725e-07
4.78557e-07
4.67226e-07
4.44173e-07
4.05938e-07
3.88942e-07
3.79986e-07
3.67248e-07
3.98003e-07
3.30455e-07
5.40029e-07
4.38197e-07
4.14693e-07
3.98381e-07
3.7633e-07
3.47217e-07
3.41305e-07
3.60649e-07
3.52074e-07
3.21589e-07
5.03431e-07
3.9508e-07
3.93097e-07
3.75189e-07
3.48916e-07
3.3493e-07
3.28565e-07
3.29281e-07
3.5122e-07
3.07981e-07
4.89813e-07
3.90879e-07
3.68076e-07
3.59876e-07
3.38974e-07
3.18254e-07
3.1595e-07
3.30025e-07
3.37148e-07
3.02255e-07
4.72399e-07
3.65417e-07
3.63231e-07
3.41857e-07
3.21015e-07
3.07681e-07
3.10661e-07
3.21815e-07
3.33178e-07
2.99086e-07
4.60832e-07
3.63465e-07
3.4563e-07
3.30502e-07
3.11015e-07
3.0649e-07
3.07787e-07
3.19277e-07
3.41124e-07
2.89591e-07
4.24202e-07
3.42295e-07
3.27214e-07
3.21094e-07
3.06566e-07
3.02378e-07
3.02704e-07
3.25875e-07
3.20387e-07
2.72736e-07
3.54857e-07
2.81768e-07
2.85946e-07
2.7732e-07
2.71708e-07
2.67315e-07
2.70571e-07
2.69803e-07
2.59194e-07
2.11223e-07
3.83608e-07
3.61453e-07
3.98472e-07
4.00856e-07
4.25478e-07
4.25312e-07
4.62991e-07
4.21343e-07
4.58314e-07
3.69934e-07
3.55508e-07
3.37138e-07
3.39252e-07
3.50455e-07
3.58563e-07
3.56214e-07
3.53072e-07
3.84751e-07
3.49114e-07
3.13442e-07
3.47616e-07
3.03021e-07
3.11271e-07
3.22342e-07
3.13931e-07
3.14185e-07
3.27882e-07
3.204e-07
3.46126e-07
3.00978e-07
3.43042e-07
2.9031e-07
2.99281e-07
2.9233e-07
2.86795e-07
2.84153e-07
2.8714e-07
3.17501e-07
3.2061e-07
2.95738e-07
3.6248e-07
2.95412e-07
2.88839e-07
2.88211e-07
2.70911e-07
2.68411e-07
2.85459e-07
3.01356e-07
3.17908e-07
2.93127e-07
3.67588e-07
3.02747e-07
3.03901e-07
2.89524e-07
2.77995e-07
2.73195e-07
2.82827e-07
3.03705e-07
3.22144e-07
2.90492e-07
3.94167e-07
3.13763e-07
3.08897e-07
3.05226e-07
2.85978e-07
2.82712e-07
2.90634e-07
3.13599e-07
3.16481e-07
2.92895e-07
3.85348e-07
3.23775e-07
3.17512e-07
3.07451e-07
2.97847e-07
2.93873e-07
3.02705e-07
3.06684e-07
3.32508e-07
2.84551e-07
3.85502e-07
3.07081e-07
3.12423e-07
3.07858e-07
2.99299e-07
3.00539e-07
2.91967e-07
3.2075e-07
3.04817e-07
2.61709e-07
3.08865e-07
2.54212e-07
2.62077e-07
2.62431e-07
2.61186e-07
2.5665e-07
2.59652e-07
2.57073e-07
2.37726e-07
2.03027e-07
8.55486e-07
7.58851e-07
7.68938e-07
7.21461e-07
6.71582e-07
6.2347e-07
6.08839e-07
5.33417e-07
5.70148e-07
4.42893e-07
7.09053e-07
6.21226e-07
5.89508e-07
5.45174e-07
5.28481e-07
4.6437e-07
4.48876e-07
4.67572e-07
4.05133e-07
3.57226e-07
6.21801e-07
5.1224e-07
5.07082e-07
4.80422e-07
4.24389e-07
4.07197e-07
3.94037e-07
3.67472e-07
4.03044e-07
3.27418e-07
5.5581e-07
4.64211e-07
4.33173e-07
4.01907e-07
3.67119e-07
3.32719e-07
3.33006e-07
3.62846e-07
3.46417e-07
3.17895e-07
5.18137e-07
4.10448e-07
4.01788e-07
3.62555e-07
3.13439e-07
3.02628e-07
3.16015e-07
3.21102e-07
3.49192e-07
3.03101e-07
5.07175e-07
4.09965e-07
3.75241e-07
3.49235e-07
3.08623e-07
2.93239e-07
3.02202e-07
3.28747e-07
3.32999e-07
3.00016e-07
4.83888e-07
3.8432e-07
3.78221e-07
3.39705e-07
3.12233e-07
2.95308e-07
3.07077e-07
3.17155e-07
3.34115e-07
2.9395e-07
4.84079e-07
3.7824e-07
3.59043e-07
3.35922e-07
3.08978e-07
3.02804e-07
3.02533e-07
3.19375e-07
3.34105e-07
2.86541e-07
4.25195e-07
3.6149e-07
3.29366e-07
3.25596e-07
3.01074e-07
2.96745e-07
2.9635e-07
3.14995e-07
3.14042e-07
2.60538e-07
3.64645e-07
2.8973e-07
2.92734e-07
2.76809e-07
2.69578e-07
2.61997e-07
2.63222e-07
2.63232e-07
2.50661e-07
2.02629e-07
2.80482e-07
2.76794e-07
3.32995e-07
3.41333e-07
3.77444e-07
3.78848e-07
4.25395e-07
3.75532e-07
4.17125e-07
3.37611e-07
2.68919e-07
2.83778e-07
2.9794e-07
3.16141e-07
3.35494e-07
3.33476e-07
3.28676e-07
3.63245e-07
3.22498e-07
2.96687e-07
2.83563e-07
2.57336e-07
2.73124e-07
2.95184e-07
2.90494e-07
2.93537e-07
3.10557e-07
2.99609e-07
3.25573e-07
2.88537e-07
2.82521e-07
2.5347e-07
2.71708e-07
2.66262e-07
2.6326e-07
2.64964e-07
2.67856e-07
3.02263e-07
3.05051e-07
2.85546e-07
3.24136e-07
2.71753e-07
2.64059e-07
2.669e-07
2.46149e-07
2.45099e-07
2.71733e-07
2.89175e-07
3.04479e-07
2.86756e-07
3.33567e-07
2.84524e-07
2.92224e-07
2.74233e-07
2.58578e-07
2.59312e-07
2.70793e-07
2.9482e-07
3.1361e-07
2.86998e-07
3.74719e-07
3.09318e-07
3.03124e-07
2.99263e-07
2.80804e-07
2.74838e-07
2.83449e-07
3.07535e-07
3.09502e-07
2.88752e-07
3.75007e-07
3.20646e-07
3.19277e-07
3.06874e-07
2.968e-07
2.87906e-07
2.98464e-07
2.98601e-07
3.22872e-07
2.82925e-07
3.77278e-07
3.14368e-07
3.1102e-07
3.11224e-07
2.93359e-07
2.99966e-07
2.79549e-07
3.11332e-07
2.92563e-07
2.502e-07
3.0505e-07
2.51674e-07
2.61434e-07
2.57493e-07
2.59041e-07
2.48702e-07
2.51669e-07
2.48725e-07
2.23477e-07
1.98739e-07
9.62665e-07
8.63117e-07
8.6847e-07
8.20462e-07
7.64733e-07
7.12413e-07
6.85682e-07
6.15649e-07
6.44051e-07
5.02385e-07
8.14967e-07
6.93968e-07
6.4937e-07
6.09032e-07
5.82235e-07
5.17133e-07
5.02585e-07
5.18029e-07
4.57755e-07
3.93797e-07
7.23494e-07
5.74753e-07
5.65773e-07
5.32543e-07
4.70205e-07
4.51827e-07
4.37395e-07
4.13765e-07
4.48387e-07
3.60075e-07
6.34494e-07
5.16962e-07
4.79137e-07
4.42131e-07
4.02952e-07
3.64875e-07
3.71172e-07
4.02377e-07
3.85125e-07
3.4713e-07
5.84988e-07
4.46895e-07
4.36868e-07
3.94068e-07
3.3696e-07
3.29221e-07
3.46643e-07
3.54554e-07
3.84425e-07
3.29019e-07
5.52384e-07
4.41821e-07
4.04708e-07
3.72099e-07
3.32074e-07
3.14552e-07
3.30712e-07
3.61243e-07
3.65226e-07
3.22869e-07
5.36219e-07
4.0789e-07
4.01628e-07
3.66115e-07
3.32596e-07
3.20292e-07
3.3886e-07
3.47882e-07
3.66554e-07
3.18571e-07
5.14481e-07
4.0606e-07
3.79782e-07
3.59092e-07
3.30322e-07
3.34319e-07
3.29019e-07
3.57054e-07
3.69739e-07
3.09785e-07
4.71421e-07
3.74631e-07
3.56887e-07
3.42254e-07
3.31735e-07
3.16703e-07
3.36812e-07
3.49972e-07
3.5402e-07
2.91992e-07
3.89726e-07
3.05621e-07
3.06757e-07
2.97128e-07
2.85435e-07
2.87277e-07
2.8925e-07
2.92236e-07
2.87051e-07
2.2204e-07
1.97295e-07
1.92886e-07
2.69999e-07
2.70806e-07
3.3229e-07
3.42721e-07
3.97042e-07
3.64805e-07
3.98364e-07
3.29227e-07
2.20624e-07
2.36017e-07
2.3721e-07
2.85925e-07
3.03137e-07
3.17648e-07
3.16285e-07
3.4793e-07
3.18142e-07
2.87514e-07
2.10909e-07
1.90946e-07
2.24087e-07
2.55247e-07
2.65819e-07
2.75401e-07
2.98496e-07
2.96054e-07
3.14142e-07
2.84693e-07
2.21647e-07
1.91263e-07
2.21309e-07
2.28872e-07
2.3881e-07
2.5143e-07
2.59899e-07
2.92883e-07
3.04428e-07
2.80059e-07
2.6624e-07
2.13113e-07
2.14036e-07
2.35413e-07
2.25541e-07
2.32664e-07
2.63814e-07
2.88308e-07
2.97248e-07
2.85589e-07
2.68195e-07
2.30152e-07
2.54368e-07
2.40332e-07
2.43765e-07
2.48508e-07
2.67325e-07
2.90103e-07
3.15864e-07
2.83516e-07
3.41234e-07
2.58057e-07
2.61062e-07
2.82795e-07
2.63853e-07
2.72458e-07
2.84141e-07
3.12717e-07
3.08839e-07
2.91704e-07
3.06605e-07
2.89448e-07
2.85803e-07
2.88974e-07
2.90031e-07
2.92564e-07
3.01946e-07
3.06415e-07
3.31934e-07
2.84933e-07
3.64564e-07
2.54228e-07
3.03947e-07
2.91742e-07
3.02332e-07
2.98987e-07
2.96232e-07
3.22917e-07
3.03683e-07
2.60865e-07
2.60168e-07
2.2392e-07
2.34513e-07
2.51657e-07
2.50278e-07
2.53085e-07
2.54738e-07
2.54352e-07
2.32759e-07
2.01904e-07
1.20501e-06
1.05762e-06
1.02575e-06
9.49103e-07
8.25113e-07
7.4134e-07
6.83389e-07
5.78725e-07
6.12985e-07
4.72873e-07
9.42773e-07
8.2354e-07
7.80846e-07
6.72557e-07
6.37405e-07
5.17721e-07
4.88797e-07
4.97107e-07
4.12862e-07
3.71669e-07
8.11427e-07
6.78205e-07
6.5569e-07
5.95266e-07
4.95228e-07
4.59245e-07
4.18151e-07
3.73704e-07
4.16158e-07
3.30261e-07
6.9063e-07
6.03325e-07
5.41263e-07
4.85715e-07
4.22932e-07
3.56194e-07
3.44881e-07
3.70206e-07
3.36195e-07
3.15879e-07
6.11954e-07
5.078e-07
4.95061e-07
4.21169e-07
3.44028e-07
3.18163e-07
3.18835e-07
3.09246e-07
3.40851e-07
2.9323e-07
5.94533e-07
4.9746e-07
4.35039e-07
4.00891e-07
3.27075e-07
3.00846e-07
2.94426e-07
3.18964e-07
3.14173e-07
2.88101e-07
5.17204e-07
4.52559e-07
4.41546e-07
3.63148e-07
3.32293e-07
2.88381e-07
2.9586e-07
2.95944e-07
3.15205e-07
2.79285e-07
5.57845e-07
4.19933e-07
4.02577e-07
3.57537e-07
3.08426e-07
2.88754e-07
2.81579e-07
2.95307e-07
3.10773e-07
2.72167e-07
4.23963e-07
4.37886e-07
3.34842e-07
3.42227e-07
2.80065e-07
2.80196e-07
2.65391e-07
2.88791e-07
2.90652e-07
2.4462e-07
4.07598e-07
3.21689e-07
3.18705e-07
2.74793e-07
2.65278e-07
2.44642e-07
2.46521e-07
2.46635e-07
2.37861e-07
1.94295e-07
-1.11396e-07
-3.84544e-08
4.42478e-08
8.45402e-08
1.58799e-07
1.87131e-07
2.61216e-07
2.17938e-07
2.63985e-07
2.27776e-07
-3.92432e-08
6.94372e-08
1.17043e-07
1.55792e-07
1.98397e-07
2.13207e-07
2.11861e-07
2.49932e-07
2.12149e-07
2.21872e-07
3.63091e-08
9.28314e-08
1.26259e-07
1.66844e-07
1.8312e-07
1.94608e-07
2.13382e-07
2.03933e-07
2.26678e-07
2.23441e-07
7.84892e-08
1.20421e-07
1.57293e-07
1.6728e-07
1.77653e-07
1.87711e-07
1.8435e-07
2.14334e-07
2.19618e-07
2.22412e-07
1.57452e-07
1.70355e-07
1.68997e-07
1.86836e-07
1.79394e-07
1.78079e-07
1.97476e-07
2.13124e-07
2.1832e-07
2.3134e-07
1.88738e-07
1.92256e-07
2.16318e-07
2.07315e-07
1.97156e-07
2.01383e-07
2.02359e-07
2.1655e-07
2.40536e-07
2.3249e-07
2.43167e-07
2.41702e-07
2.35804e-07
2.39163e-07
2.28584e-07
2.17889e-07
2.13072e-07
2.42438e-07
2.31589e-07
2.3935e-07
2.71649e-07
2.5031e-07
2.67357e-07
2.5219e-07
2.47982e-07
2.24253e-07
2.41635e-07
2.20947e-07
2.53402e-07
2.36054e-07
2.75852e-07
2.74682e-07
2.53906e-07
2.68632e-07
2.33768e-07
2.55416e-07
2.04515e-07
2.49265e-07
2.16934e-07
1.99144e-07
2.32102e-07
2.03327e-07
2.154e-07
2.06405e-07
2.15726e-07
1.94732e-07
1.98621e-07
1.93382e-07
1.59454e-07
1.67398e-07
1.24295e-06
1.09957e-06
1.06531e-06
9.91652e-07
8.70526e-07
7.83523e-07
7.10706e-07
6.19266e-07
6.34952e-07
4.97706e-07
1.02073e-06
8.43095e-07
7.82839e-07
6.88481e-07
6.41299e-07
5.26367e-07
4.99937e-07
4.98056e-07
4.25232e-07
3.77116e-07
8.69736e-07
6.90884e-07
6.70056e-07
5.98484e-07
5.00048e-07
4.65401e-07
4.1845e-07
3.8401e-07
4.19818e-07
3.33179e-07
7.39637e-07
6.1068e-07
5.34488e-07
4.84653e-07
4.21528e-07
3.51876e-07
3.50098e-07
3.67632e-07
3.37076e-07
3.13425e-07
6.23324e-07
4.83403e-07
4.82167e-07
4.06045e-07
3.31071e-07
3.13462e-07
3.07503e-07
3.04833e-07
3.32112e-07
2.87034e-07
5.76397e-07
4.66372e-07
3.99299e-07
3.70027e-07
3.10413e-07
2.79838e-07
2.84664e-07
3.03088e-07
3.05078e-07
2.7308e-07
4.95065e-07
3.91381e-07
3.93275e-07
3.31914e-07
2.99953e-07
2.73174e-07
2.8002e-07
2.87436e-07
2.97051e-07
2.72012e-07
4.87139e-07
3.69714e-07
3.44516e-07
3.1799e-07
2.80293e-07
2.75536e-07
2.70638e-07
2.85339e-07
3.10657e-07
2.5871e-07
3.92504e-07
3.53171e-07
3.01165e-07
2.98134e-07
2.69598e-07
2.61554e-07
2.69399e-07
2.94198e-07
2.92632e-07
2.58555e-07
3.50472e-07
2.73169e-07
2.74154e-07
2.51334e-07
2.40748e-07
2.3635e-07
2.41845e-07
2.43708e-07
2.47533e-07
1.94784e-07
-2.95223e-07
-2.16692e-07
-1.31e-07
-9.50357e-08
1.17359e-08
5.84345e-08
1.43363e-07
1.3628e-07
1.65865e-07
1.6269e-07
-1.74445e-07
-7.1016e-08
-3.28993e-08
4.11347e-08
8.15405e-08
1.26327e-07
1.35385e-07
1.64512e-07
1.52634e-07
1.66271e-07
-1.1801e-07
-4.30805e-08
5.51775e-09
5.29606e-08
9.61226e-08
1.1815e-07
1.41333e-07
1.51964e-07
1.58812e-07
1.77485e-07
-4.94468e-08
-4.24739e-09
4.21929e-08
7.38401e-08
9.86644e-08
1.23543e-07
1.31824e-07
1.49941e-07
1.71336e-07
1.7355e-07
2.48492e-08
4.78875e-08
6.12834e-08
9.62144e-08
1.10022e-07
1.21374e-07
1.36658e-07
1.65767e-07
1.56204e-07
1.8798e-07
4.46141e-08
6.84057e-08
1.09199e-07
1.13131e-07
1.30468e-07
1.38937e-07
1.51651e-07
1.53375e-07
1.9291e-07
1.80968e-07
1.19984e-07
1.13047e-07
1.20317e-07
1.59542e-07
1.54222e-07
1.67431e-07
1.57926e-07
2.0125e-07
1.69675e-07
2.00938e-07
1.03787e-07
1.38039e-07
1.60256e-07
1.68318e-07
1.87598e-07
1.75133e-07
2.01717e-07
1.687e-07
2.17506e-07
1.90383e-07
1.75027e-07
1.36875e-07
1.80832e-07
1.89191e-07
1.90662e-07
2.11012e-07
1.71589e-07
2.2249e-07
1.76841e-07
1.81356e-07
1.08305e-07
1.11688e-07
1.27872e-07
1.47488e-07
1.59866e-07
1.54761e-07
1.61798e-07
1.55626e-07
1.29853e-07
1.42378e-07
1.28134e-06
1.11189e-06
1.03409e-06
9.45054e-07
7.73305e-07
6.76828e-07
5.78453e-07
4.7199e-07
5.02268e-07
3.77485e-07
1.00957e-06
8.32301e-07
7.76149e-07
6.33646e-07
5.83721e-07
4.29337e-07
4.05482e-07
3.93629e-07
2.9781e-07
2.86382e-07
8.47522e-07
6.8297e-07
6.55635e-07
5.54006e-07
4.34846e-07
3.96491e-07
3.17252e-07
2.67878e-07
3.1697e-07
2.31836e-07
7.10338e-07
6.08334e-07
4.97513e-07
4.44154e-07
3.63378e-07
2.66282e-07
2.58988e-07
2.63119e-07
2.07752e-07
2.1379e-07
5.65954e-07
4.5318e-07
4.58676e-07
3.4698e-07
2.64374e-07
2.39708e-07
2.03513e-07
1.82097e-07
2.17262e-07
1.76475e-07
5.35186e-07
4.35571e-07
3.32156e-07
3.12208e-07
2.30045e-07
1.85496e-07
1.76993e-07
1.82799e-07
1.65723e-07
1.64349e-07
3.79546e-07
3.32646e-07
3.31069e-07
2.33293e-07
2.06792e-07
1.65584e-07
1.49578e-07
1.45793e-07
1.62081e-07
1.52166e-07
4.22378e-07
2.75334e-07
2.57962e-07
2.11078e-07
1.69836e-07
1.35886e-07
1.37966e-07
1.34531e-07
1.54457e-07
1.40113e-07
2.36038e-07
3.03018e-07
1.73771e-07
1.99788e-07
1.26204e-07
1.41076e-07
1.11126e-07
1.37652e-07
1.38285e-07
1.33375e-07
2.71809e-07
2.0408e-07
2.01731e-07
1.51096e-07
1.47095e-07
1.21733e-07
1.24926e-07
1.23179e-07
1.22441e-07
1.06756e-07
-4.26885e-07
-3.44267e-07
-2.90608e-07
-2.6389e-07
-1.77484e-07
-1.29194e-07
-4.89709e-08
-6.59598e-08
-2.32312e-08
1.34374e-09
-2.9315e-07
-1.6917e-07
-1.16112e-07
-7.207e-08
-2.75968e-08
-3.93425e-09
7.41552e-09
2.71451e-08
-3.88177e-10
5.61385e-08
-2.46828e-07
-1.16671e-07
-6.7883e-08
-3.77454e-08
2.4794e-09
2.20983e-08
2.00288e-08
2.09544e-08
3.34545e-08
6.56756e-08
-1.39464e-07
-6.42766e-08
-3.46163e-08
5.96133e-09
1.96802e-08
2.84894e-08
3.02538e-08
3.12686e-08
3.42346e-08
6.69198e-08
-8.85523e-08
-2.02781e-08
7.00368e-09
1.90909e-08
3.61926e-08
4.13641e-08
2.65052e-08
4.23824e-08
3.24683e-08
7.65758e-08
-3.70017e-08
3.10667e-09
2.18274e-08
4.32128e-08
4.63308e-08
4.40067e-08
4.52695e-08
2.80591e-08
5.34827e-08
7.35515e-08
-2.36204e-08
2.16782e-08
3.87501e-08
5.54895e-08
6.02193e-08
6.46009e-08
2.47218e-08
6.55102e-08
3.15875e-08
8.41301e-08
-4.1645e-09
2.37252e-08
5.57986e-08
5.96025e-08
8.3736e-08
3.89552e-08
8.07437e-08
1.57031e-08
6.37163e-08
7.61559e-08
6.04307e-10
4.43454e-08
5.12841e-08
9.18992e-08
5.7068e-08
1.06841e-07
1.36098e-08
7.47775e-08
1.91609e-08
5.7087e-08
-4.16347e-09
2.48471e-08
5.02383e-08
5.29705e-08
7.73278e-08
4.69011e-08
5.23377e-08
3.78729e-08
-3.08976e-09
5.92742e-08
1.4873e-06
1.29606e-06
1.16126e-06
1.04069e-06
8.19658e-07
7.05934e-07
5.74402e-07
4.87488e-07
4.9028e-07
3.71502e-07
1.16763e-06
9.31003e-07
8.72865e-07
6.82702e-07
6.08576e-07
4.32158e-07
4.10382e-07
3.74203e-07
2.98996e-07
2.7387e-07
9.35186e-07
7.86801e-07
7.41986e-07
6.06587e-07
4.71517e-07
4.16384e-07
3.16894e-07
2.8193e-07
3.12539e-07
2.22359e-07
8.24796e-07
6.92851e-07
5.60239e-07
5.04002e-07
3.95039e-07
2.81929e-07
2.80245e-07
2.59601e-07
2.10312e-07
2.00739e-07
6.15535e-07
5.04753e-07
5.23436e-07
3.79572e-07
2.8965e-07
2.56674e-07
2.02845e-07
1.88824e-07
2.06228e-07
1.62393e-07
5.94446e-07
4.74562e-07
3.50738e-07
3.41885e-07
2.40752e-07
1.89748e-07
1.83065e-07
1.67214e-07
1.60314e-07
1.40516e-07
3.8179e-07
3.31684e-07
3.50941e-07
2.36067e-07
2.16109e-07
1.66631e-07
1.3995e-07
1.48206e-07
1.34953e-07
1.39305e-07
4.21949e-07
2.67388e-07
2.50756e-07
2.16062e-07
1.69638e-07
1.32697e-07
1.45895e-07
1.09119e-07
1.58175e-07
1.14642e-07
2.09005e-07
2.86602e-07
1.65795e-07
2.00649e-07
1.24126e-07
1.47981e-07
1.00285e-07
1.51822e-07
1.25133e-07
1.42709e-07
2.5723e-07
1.95799e-07
2.04004e-07
1.52279e-07
1.51492e-07
1.19068e-07
1.29274e-07
1.13416e-07
1.19754e-07
1.01454e-07
-5.76449e-07
-4.26737e-07
-3.88065e-07
-3.25401e-07
-2.36427e-07
-1.7414e-07
-1.00898e-07
-7.90746e-08
-6.67362e-08
-2.03923e-08
-3.78829e-07
-2.69021e-07
-1.80807e-07
-1.41971e-07
-9.48547e-08
-5.43994e-08
-2.88346e-08
-2.33018e-08
-9.33844e-09
3.03522e-08
-2.89088e-07
-1.40095e-07
-1.02822e-07
-7.78845e-08
-2.65876e-08
-8.74004e-09
-8.97721e-09
2.07768e-08
1.14246e-08
5.10032e-08
-1.38342e-07
-7.75491e-08
-5.07071e-08
-4.41695e-09
2.8136e-10
1.42458e-08
2.91257e-08
1.2697e-08
3.57707e-08
5.04249e-08
-1.04571e-07
-3.00139e-08
3.43765e-09
3.56477e-09
2.71454e-08
3.23268e-08
1.31296e-08
4.50555e-08
1.81297e-08
6.38274e-08
-4.13564e-08
-1.09758e-08
1.16661e-09
3.32485e-08
3.06823e-08
3.29673e-08
4.1026e-08
1.00759e-08
5.17699e-08
5.22423e-08
-5.01904e-08
-4.91641e-09
2.39676e-08
3.42601e-08
5.06453e-08
5.21698e-08
1.31376e-08
6.76852e-08
9.18936e-09
7.3661e-08
-2.77844e-08
-1.03592e-09
3.09157e-08
4.85387e-08
6.8811e-08
3.2e-08
8.2529e-08
-5.05596e-09
7.04377e-08
5.33143e-08
-2.55667e-08
1.93035e-08
3.57614e-08
7.80168e-08
4.96724e-08
1.04226e-07
5.76161e-09
8.82972e-08
1.07291e-08
6.61253e-08
-2.03089e-08
8.4228e-09
4.01098e-08
4.41107e-08
7.1812e-08
3.98456e-08
5.34919e-08
2.78377e-08
-2.11808e-09
5.20409e-08
9.68425e-07
8.33973e-07
7.33622e-07
6.6258e-07
5.10402e-07
4.38739e-07
3.36071e-07
2.86422e-07
2.99293e-07
1.995e-07
7.90465e-07
5.82496e-07
5.34465e-07
4.17844e-07
3.62237e-07
2.48012e-07
2.45376e-07
2.19076e-07
1.62268e-07
1.39843e-07
6.46293e-07
4.94084e-07
4.62163e-07
3.61413e-07
2.75039e-07
2.458e-07
1.73989e-07
1.47962e-07
1.82175e-07
9.29372e-08
5.56565e-07
4.36405e-07
3.30743e-07
2.9756e-07
2.24451e-07
1.44838e-07
1.55472e-07
1.39591e-07
8.75225e-08
8.32682e-08
4.03598e-07
2.93602e-07
3.10424e-07
2.04839e-07
1.48607e-07
1.35945e-07
9.15228e-08
7.24316e-08
1.02794e-07
4.29697e-08
3.73561e-07
2.74964e-07
1.74527e-07
1.73316e-07
1.11224e-07
6.97713e-08
7.52932e-08
6.68582e-08
3.6901e-08
3.35633e-08
2.1718e-07
1.53634e-07
1.68386e-07
8.85558e-08
7.34152e-08
5.46026e-08
3.21772e-08
2.1359e-08
3.67711e-08
1.54923e-08
2.23799e-07
1.11061e-07
8.65636e-08
6.52833e-08
4.20172e-08
1.46214e-08
2.22748e-08
1.09266e-08
1.68317e-08
2.75983e-09
7.7418e-08
1.03901e-07
3.42495e-08
5.50196e-08
1.0263e-08
2.25383e-08
9.24391e-10
8.44625e-09
1.13778e-08
1.49726e-08
1.13447e-07
7.48053e-08
7.88029e-08
4.73234e-08
4.40563e-08
2.44682e-08
2.4211e-08
1.47577e-08
2.0337e-08
7.43469e-09
-7.12649e-07
-6.10009e-07
-5.80646e-07
-5.29314e-07
-4.33002e-07
-3.69067e-07
-2.93409e-07
-2.50103e-07
-2.43529e-07
-1.76277e-07
-5.36454e-07
-4.30307e-07
-3.59251e-07
-3.05653e-07
-2.59812e-07
-1.93227e-07
-1.67507e-07
-1.60217e-07
-1.24393e-07
-9.22996e-08
-4.44071e-07
-3.08586e-07
-2.82116e-07
-2.37176e-07
-1.68979e-07
-1.45799e-07
-1.2266e-07
-9.07749e-08
-1.05165e-07
-6.17294e-08
-3.16489e-07
-2.48348e-07
-1.99347e-07
-1.53783e-07
-1.27138e-07
-8.86896e-08
-7.5383e-08
-8.53852e-08
-6.08155e-08
-4.96236e-08
-2.46444e-07
-1.67656e-07
-1.49533e-07
-1.18457e-07
-7.61891e-08
-6.48657e-08
-6.70815e-08
-4.49035e-08
-6.18531e-08
-3.41593e-08
-1.93512e-07
-1.46804e-07
-1.13416e-07
-8.3807e-08
-6.55348e-08
-5.04846e-08
-4.29484e-08
-5.98541e-08
-4.13462e-08
-3.13122e-08
-1.55491e-07
-1.10712e-07
-9.34991e-08
-6.91552e-08
-4.72805e-08
-3.72093e-08
-5.92331e-08
-3.16661e-08
-5.70277e-08
-2.80242e-08
-1.40166e-07
-9.49915e-08
-7.12521e-08
-5.19652e-08
-2.91817e-08
-5.21705e-08
-1.91248e-08
-7.04685e-08
-4.27534e-08
-3.36734e-08
-1.02048e-07
-7.83433e-08
-5.25458e-08
-2.56332e-08
-3.96345e-08
-2.20946e-09
-6.89907e-08
-3.21668e-08
-7.21766e-08
-4.28769e-08
-9.23767e-08
-6.20381e-08
-3.97153e-08
-3.34536e-08
-1.24599e-08
-3.57993e-08
-3.10923e-08
-4.79859e-08
-7.36946e-08
-2.66082e-08
7.28263e-07
6.05347e-07
5.26105e-07
4.66722e-07
3.54953e-07
2.96704e-07
2.10524e-07
2.14252e-07
1.89529e-07
1.27114e-07
5.89596e-07
3.98169e-07
3.45646e-07
2.68415e-07
2.13548e-07
1.53839e-07
1.52654e-07
1.25745e-07
1.3051e-07
7.29937e-08
4.77337e-07
3.29854e-07
2.90557e-07
2.25486e-07
1.69865e-07
1.44867e-07
1.16105e-07
1.18004e-07
1.22234e-07
5.32206e-08
3.98866e-07
2.75452e-07
2.12212e-07
1.80991e-07
1.36159e-07
9.85539e-08
1.13884e-07
1.04314e-07
8.56675e-08
5.20386e-08
2.94275e-07
1.86412e-07
1.86614e-07
1.28523e-07
9.45496e-08
9.00636e-08
7.98413e-08
7.35939e-08
9.52272e-08
2.76686e-08
2.58762e-07
1.70253e-07
1.11904e-07
1.03811e-07
7.25494e-08
5.37448e-08
6.80415e-08
7.5608e-08
4.86413e-08
2.61573e-08
1.81395e-07
9.30951e-08
1.00978e-07
5.59561e-08
4.48739e-08
4.05807e-08
5.19096e-08
3.0298e-08
6.09651e-08
6.91867e-09
1.57563e-07
7.97053e-08
4.57827e-08
4.21745e-08
2.11784e-08
3.25805e-08
1.93563e-08
5.12909e-08
2.75551e-08
3.36702e-09
9.31502e-08
4.24704e-08
3.13131e-08
1.96887e-08
2.35944e-08
3.37749e-09
4.29281e-08
1.40493e-08
4.54367e-08
1.19155e-08
9.0576e-08
5.31955e-08
5.04378e-08
4.16496e-08
2.77169e-08
3.39774e-08
3.00161e-08
3.07274e-08
4.97711e-08
3.5954e-11
-6.95762e-07
-6.2182e-07
-5.78156e-07
-5.37467e-07
-4.34018e-07
-3.78988e-07
-3.13865e-07
-2.32598e-07
-2.65067e-07
-1.83042e-07
-5.17144e-07
-4.49246e-07
-4.08609e-07
-3.31109e-07
-3.04183e-07
-2.09872e-07
-1.92947e-07
-1.90632e-07
-1.07931e-07
-1.1953e-07
-4.45333e-07
-3.54041e-07
-3.35053e-07
-2.75343e-07
-2.00836e-07
-1.83208e-07
-1.30131e-07
-8.23281e-08
-1.20866e-07
-7.26247e-08
-3.36186e-07
-3.07703e-07
-2.37307e-07
-2.0063e-07
-1.5806e-07
-9.51087e-08
-8.20409e-08
-8.52455e-08
-3.68668e-08
-5.68869e-08
-2.59301e-07
-2.10245e-07
-2.05383e-07
-1.42782e-07
-9.41079e-08
-7.89827e-08
-5.15507e-08
-2.39652e-08
-4.38053e-08
-3.2008e-08
-2.2637e-07
-1.91223e-07
-1.32582e-07
-1.16012e-07
-7.35894e-08
-4.48697e-08
-3.03165e-08
-2.88988e-08
-1.29418e-08
-2.30602e-08
-1.36296e-07
-1.42922e-07
-1.26491e-07
-7.3599e-08
-5.73966e-08
-3.29347e-08
-2.02929e-08
-1.0567e-08
-1.27125e-08
-2.27917e-08
-1.75628e-07
-9.92054e-08
-9.59563e-08
-5.86932e-08
-3.64813e-08
-1.74511e-08
-1.3803e-08
-8.66298e-09
-1.75712e-08
-1.8839e-08
-6.63362e-08
-1.43099e-07
-4.07493e-08
-5.46388e-08
-1.07074e-08
-1.80617e-08
-5.87113e-09
-1.75302e-08
-1.71267e-08
-3.14064e-08
-1.12324e-07
-7.23628e-08
-6.04032e-08
-2.47952e-08
-2.27207e-08
-1.19692e-08
-1.58867e-08
-1.70199e-08
-2.48459e-08
-2.47385e-08
5.29074e-07
4.3657e-07
3.41855e-07
2.95064e-07
1.67703e-07
1.10949e-07
3.90117e-08
4.03043e-08
1.20753e-08
-6.68218e-10
3.48386e-07
2.65657e-07
2.50478e-07
1.34252e-07
9.58738e-08
3.35132e-08
1.7851e-08
-7.26574e-10
2.0109e-08
-1.68708e-08
2.88698e-07
2.44894e-07
1.85545e-07
1.36756e-07
7.41854e-08
3.63968e-08
2.2955e-08
1.81676e-08
1.31876e-08
-1.63834e-08
2.36177e-07
1.97414e-07
1.59925e-07
1.10155e-07
6.56931e-08
3.71432e-08
2.42533e-08
2.1687e-08
1.38783e-08
-8.65629e-09
1.70229e-07
1.65647e-07
1.41732e-07
9.16333e-08
5.52891e-08
2.86593e-08
3.15954e-08
1.3131e-08
2.91e-08
-1.72305e-08
1.90239e-07
1.48779e-07
1.06868e-07
9.04037e-08
3.76861e-08
3.23967e-08
1.57469e-08
3.18957e-08
8.05653e-10
-4.43336e-09
9.53752e-08
1.23249e-07
1.10939e-07
4.13963e-08
3.88432e-08
-6.90586e-10
1.9693e-08
-1.80287e-08
2.67264e-08
-3.11986e-08
1.66171e-07
8.16255e-08
7.1536e-08
4.07917e-08
-1.00934e-10
-1.81492e-09
-2.85284e-08
1.28154e-08
-3.11544e-08
-1.85834e-08
2.68601e-08
1.10962e-07
1.36774e-08
2.14344e-08
-2.2751e-08
-3.49108e-08
-1.59149e-08
-5.30818e-08
-5.72947e-09
-5.03868e-08
9.65866e-08
7.20066e-08
6.18392e-08
2.0639e-08
8.04522e-09
-3.85228e-09
-1.18839e-08
-5.83787e-09
2.94166e-09
-2.88483e-08
-6.66313e-07
-5.61412e-07
-5.38869e-07
-4.74923e-07
-4.17787e-07
-3.73223e-07
-3.19505e-07
-2.67554e-07
-2.8756e-07
-2.07057e-07
-5.43155e-07
-4.12424e-07
-3.39655e-07
-3.20435e-07
-2.86202e-07
-2.23391e-07
-2.21844e-07
-2.1015e-07
-1.45344e-07
-1.42893e-07
-4.01075e-07
-2.77175e-07
-2.88125e-07
-2.36742e-07
-1.95662e-07
-1.95539e-07
-1.46697e-07
-1.23379e-07
-1.52208e-07
-1.0099e-07
-3.05532e-07
-2.32929e-07
-1.71791e-07
-1.67989e-07
-1.45856e-07
-9.99539e-08
-1.14457e-07
-1.1013e-07
-7.48144e-08
-8.34732e-08
-2.1432e-07
-1.20154e-07
-1.41745e-07
-1.04328e-07
-7.96631e-08
-9.0502e-08
-6.18569e-08
-5.7309e-08
-7.22469e-08
-5.77502e-08
-1.47916e-07
-1.08168e-07
-6.74905e-08
-6.81914e-08
-6.44383e-08
-3.75165e-08
-5.25026e-08
-4.50278e-08
-4.25214e-08
-3.91618e-08
-1.12271e-07
-3.94763e-08
-5.29816e-08
-4.65245e-08
-3.28628e-08
-4.60132e-08
-3.05986e-08
-4.03901e-08
-2.82828e-08
-4.65202e-08
-5.69044e-08
-4.16499e-08
-2.41934e-08
-2.86284e-08
-3.21432e-08
-3.11003e-08
-4.00195e-08
-2.74784e-08
-5.3427e-08
-2.87252e-08
-6.53023e-08
-1.41301e-08
-3.09274e-08
-2.36497e-08
-3.72936e-08
-3.58444e-08
-4.17685e-08
-5.94489e-08
-4.35008e-08
-6.7993e-08
-3.58066e-08
-1.58142e-08
-1.45994e-08
-2.26151e-08
-2.06337e-08
-2.89122e-08
-3.4416e-08
-3.17244e-08
-4.40151e-08
-3.62372e-08
2.54346e-07
2.00453e-07
1.54841e-07
1.44117e-07
7.91124e-08
4.64537e-08
9.56709e-09
1.6065e-08
-1.16737e-08
-1.08141e-08
1.74645e-07
1.094e-07
1.04336e-07
4.56449e-08
2.59983e-08
3.60016e-09
-1.29337e-08
-1.89443e-08
9.73817e-09
-2.48707e-08
1.70711e-07
1.15373e-07
7.38842e-08
5.68163e-08
2.28e-08
-3.62449e-09
6.62582e-09
4.97534e-09
-7.43265e-09
-1.63399e-08
1.38198e-07
9.31468e-08
7.9892e-08
4.46802e-08
2.39488e-08
1.94047e-08
3.17191e-09
6.9173e-09
1.48352e-08
-1.10149e-08
1.17829e-07
9.15535e-08
6.86197e-08
4.94717e-08
2.90761e-08
8.44746e-09
2.6317e-08
1.57806e-08
1.82992e-08
-7.13121e-09
1.25376e-07
8.49869e-08
6.63491e-08
4.84544e-08
2.37247e-08
2.89504e-08
1.69031e-08
3.09884e-08
1.84093e-08
4.07058e-09
8.90062e-08
7.62495e-08
6.35061e-08
3.22893e-08
2.82762e-08
8.28132e-09
3.45414e-08
9.58243e-09
3.75436e-08
-7.21421e-09
1.1252e-07
5.88622e-08
4.47623e-08
3.07248e-08
7.88728e-09
2.45328e-08
-3.59693e-10
4.12642e-08
6.78751e-09
6.97868e-09
4.79551e-08
5.3088e-08
2.07464e-08
1.26728e-08
8.73691e-09
-1.2938e-08
2.67227e-08
-8.63522e-09
3.09989e-08
-1.21829e-08
6.74355e-08
4.91651e-08
4.03196e-08
2.61283e-08
1.28677e-08
1.85509e-08
1.23619e-08
2.08011e-08
3.22443e-08
-5.41951e-09
-4.17082e-07
-3.69578e-07
-3.47969e-07
-3.05154e-07
-2.59701e-07
-2.32236e-07
-1.87878e-07
-1.60517e-07
-1.75463e-07
-1.26829e-07
-3.43691e-07
-2.68398e-07
-2.24482e-07
-2.05295e-07
-1.82596e-07
-1.32036e-07
-1.40789e-07
-1.26309e-07
-8.25927e-08
-9.10146e-08
-2.52151e-07
-1.86687e-07
-1.98913e-07
-1.53362e-07
-1.25123e-07
-1.28593e-07
-8.23951e-08
-7.29663e-08
-9.81953e-08
-6.06724e-08
-1.94498e-07
-1.63206e-07
-1.10772e-07
-1.13017e-07
-9.35158e-08
-5.35649e-08
-7.25505e-08
-6.50144e-08
-3.38979e-08
-5.15569e-08
-1.21816e-07
-7.56611e-08
-9.71621e-08
-6.14163e-08
-4.38794e-08
-5.53873e-08
-2.32393e-08
-2.07255e-08
-3.99147e-08
-2.68093e-08
-8.25711e-08
-6.85876e-08
-3.18251e-08
-3.83996e-08
-2.96821e-08
-4.98114e-09
-1.69759e-08
-1.22766e-08
-1.92595e-09
-1.41185e-08
-3.99431e-08
-1.52068e-08
-2.74856e-08
-1.07698e-08
-4.02666e-09
-8.71387e-09
9.90448e-09
6.03273e-09
4.85712e-09
-1.0209e-08
-2.11145e-08
-1.00453e-08
-1.74774e-09
1.50017e-10
1.77615e-09
1.47434e-08
6.03669e-09
1.71825e-08
2.55998e-09
3.81124e-09
-6.20274e-09
-1.08339e-08
3.30946e-09
-4.76188e-10
9.15122e-09
2.18716e-09
1.45112e-08
1.03128e-10
9.4986e-09
-1.57772e-08
-7.39572e-09
1.9239e-09
1.52443e-09
5.89644e-09
4.556e-09
8.46159e-09
5.40953e-09
7.56719e-09
3.03439e-09
-6.0687e-09
1.8459e-07
1.44001e-07