/*--------------------------------*- C++ -*----------------------------------*\
| =========                 |                                                 |
| \\      /  F ield         | OpenFOAM: The Open Source CFD Toolbox           |
|  \\    /   O peration     | Version:  2406                                  |
|   \\  /    A nd           | Website:  www.openfoam.com                      |
|    \\/     M anipulation  |                                                 |
\*---------------------------------------------------------------------------*/
FoamFile
{
    version     2.0;
    format      ascii;
    arch        "LSB;label=32;scalar=64";
    class       volScalarField;
    location    "1.7";
    object      magR;
}
// * * * * * * * * * * * * * * * * * * * * * * * * * * * * * * * * * * * * * //

dimensions      [0 2 -2 0 0 0 0];

internalField   uniform 0;

boundaryField
{
    walls
    {
        type            calculated;
        value           nonuniform List<scalar> 
2000
(
5.84368e-07
8.28589e-07
1.09509e-06
1.31565e-06
1.44047e-06
1.44047e-06
1.31565e-06
1.09509e-06
8.28589e-07
5.84368e-07
2.35124e-07
3.22818e-07
4.26153e-07
5.15488e-07
5.67298e-07
5.67298e-07
5.15488e-07
4.26153e-07
3.22818e-07
2.35124e-07
8.23359e-08
1.10261e-07
1.44695e-07
1.75724e-07
1.94052e-07
1.94052e-07
1.75724e-07
1.44695e-07
1.10261e-07
8.23358e-08
1.07665e-07
1.4522e-07
1.90604e-07
2.30858e-07
2.54462e-07
2.54462e-07
2.30858e-07
1.90604e-07
1.4522e-07
1.07665e-07
8.39476e-08
1.12614e-07
1.47886e-07
1.79517e-07
1.98185e-07
1.98185e-07
1.79517e-07
1.47885e-07
1.12614e-07
8.39474e-08
9.09283e-08
1.22295e-07
1.60671e-07
1.94965e-07
2.15169e-07
2.15168e-07
1.94964e-07
1.60671e-07
1.22294e-07
9.09278e-08
8.50856e-08
1.14264e-07
1.50138e-07
1.82293e-07
2.01271e-07
2.01271e-07
1.82292e-07
1.50137e-07
1.14263e-07
8.50846e-08
8.69458e-08
1.16841e-07
1.53534e-07
1.86391e-07
2.05772e-07
2.05772e-07
1.8639e-07
1.53533e-07
1.16839e-07
8.69441e-08
8.54518e-08
1.14787e-07
1.50837e-07
1.83142e-07
2.02207e-07
2.02207e-07
1.83141e-07
1.50834e-07
1.14784e-07
8.54489e-08
8.59463e-08
1.15471e-07
1.51738e-07
1.84229e-07
2.034e-07
2.03399e-07
1.84226e-07
1.51734e-07
1.15466e-07
8.59417e-08
8.5561e-08
1.14941e-07
1.51041e-07
1.83389e-07
2.02478e-07
2.02476e-07
1.83385e-07
1.51035e-07
1.14934e-07
8.55541e-08
8.56944e-08
1.15125e-07
1.51283e-07
1.8368e-07
2.02796e-07
2.02794e-07
1.83673e-07
1.51274e-07
1.15115e-07
8.56847e-08
8.55968e-08
1.1499e-07
1.51105e-07
1.83465e-07
2.0256e-07
2.02557e-07
1.83457e-07
1.51093e-07
1.14977e-07
8.55841e-08
8.56343e-08
1.15041e-07
1.51172e-07
1.83545e-07
2.02647e-07
2.02644e-07
1.83535e-07
1.51158e-07
1.15025e-07
8.56188e-08
8.56099e-08
1.15007e-07
1.51128e-07
1.83491e-07
2.02588e-07
2.02584e-07
1.8348e-07
1.51111e-07
1.14989e-07
8.55925e-08
8.56191e-08
1.1502e-07
1.51145e-07
1.83512e-07
2.02611e-07
2.02606e-07
1.835e-07
1.51128e-07
1.15002e-07
8.56012e-08
8.56102e-08
1.15009e-07
1.5113e-07
1.83495e-07
2.02593e-07
2.02588e-07
1.83484e-07
1.51114e-07
1.14991e-07
8.55934e-08
8.56087e-08
1.15008e-07
1.5113e-07
1.83496e-07
2.02594e-07
2.0259e-07
1.83486e-07
1.51116e-07
1.14993e-07
8.55945e-08
8.56016e-08
1.14999e-07
1.51119e-07
1.83484e-07
2.02582e-07
2.02579e-07
1.83477e-07
1.51109e-07
1.14988e-07
8.55914e-08
8.55962e-08
1.14992e-07
1.51112e-07
1.83477e-07
2.02575e-07
2.02574e-07
1.83473e-07
1.51107e-07
1.14987e-07
8.5591e-08
8.55898e-08
1.14984e-07
1.51103e-07
1.83467e-07
2.02566e-07
2.02566e-07
1.83467e-07
1.51103e-07
1.14984e-07
8.55901e-08
8.55845e-08
1.14978e-07
1.51096e-07
1.8346e-07
2.02559e-07
2.02561e-07
1.83463e-07
1.51101e-07
1.14984e-07
8.55903e-08
8.55796e-08
1.14972e-07
1.51089e-07
1.83453e-07
2.02553e-07
2.02555e-07
1.8346e-07
1.51099e-07
1.14983e-07
8.55902e-08
8.55756e-08
1.14967e-07
1.51084e-07
1.83447e-07
2.02548e-07
2.02551e-07
1.83457e-07
1.51097e-07
1.14982e-07
8.55898e-08
8.5572e-08
1.14963e-07
1.51079e-07
1.83442e-07
2.02543e-07
2.02547e-07
1.83453e-07
1.51094e-07
1.1498e-07
8.55887e-08
8.5569e-08
1.14959e-07
1.51074e-07
1.83437e-07
2.02538e-07
2.02542e-07
1.83449e-07
1.51091e-07
1.14978e-07
8.55871e-08
8.55666e-08
1.14956e-07
1.5107e-07
1.83433e-07
2.02533e-07
2.02538e-07
1.83445e-07
1.51088e-07
1.14976e-07
8.55855e-08
8.55651e-08
1.14954e-07
1.51068e-07
1.83429e-07
2.0253e-07
2.02535e-07
1.83443e-07
1.51086e-07
1.14974e-07
8.55847e-08
8.55652e-08
1.14954e-07
1.51067e-07
1.83429e-07
2.02529e-07
2.02534e-07
1.83442e-07
1.51086e-07
1.14975e-07
8.55853e-08
8.55678e-08
1.14957e-07
1.5107e-07
1.83432e-07
2.02532e-07
2.02537e-07
1.83445e-07
1.51088e-07
1.14977e-07
8.55871e-08
8.5574e-08
1.14964e-07
1.51078e-07
1.8344e-07
2.0254e-07
2.02544e-07
1.83451e-07
1.51093e-07
1.14981e-07
8.55898e-08
8.55847e-08
1.14977e-07
1.51092e-07
1.83454e-07
2.02553e-07
2.02555e-07
1.8346e-07
1.511e-07
1.14985e-07
8.55926e-08
8.55997e-08
1.14994e-07
1.51112e-07
1.83474e-07
2.02571e-07
2.0257e-07
1.83471e-07
1.51108e-07
1.14989e-07
8.55946e-08
8.56173e-08
1.15015e-07
1.51135e-07
1.83497e-07
2.02592e-07
2.02588e-07
1.83484e-07
1.51115e-07
1.14993e-07
8.55954e-08
8.5634e-08
1.15035e-07
1.51157e-07
1.8352e-07
2.02613e-07
2.02605e-07
1.83496e-07
1.51122e-07
1.14996e-07
8.55951e-08
8.56454e-08
1.15049e-07
1.51173e-07
1.83537e-07
2.0263e-07
2.02618e-07
1.83505e-07
1.51127e-07
1.14997e-07
8.5594e-08
8.5648e-08
1.15053e-07
1.51179e-07
1.83545e-07
2.02637e-07
2.02624e-07
1.83508e-07
1.51128e-07
1.14996e-07
8.55925e-08
8.56404e-08
1.15045e-07
1.51172e-07
1.83539e-07
2.02632e-07
2.0262e-07
1.83505e-07
1.51125e-07
1.14994e-07
8.55909e-08
8.56245e-08
1.15027e-07
1.51153e-07
1.83521e-07
2.02617e-07
2.02607e-07
1.83496e-07
1.51119e-07
1.1499e-07
8.55897e-08
8.56053e-08
1.15005e-07
1.51129e-07
1.83496e-07
2.02594e-07
2.02589e-07
1.83483e-07
1.51111e-07
1.14987e-07
8.55895e-08
8.55896e-08
1.14986e-07
1.51107e-07
1.83474e-07
2.02574e-07
2.02573e-07
1.83472e-07
1.51106e-07
1.14987e-07
8.55914e-08
8.55855e-08
1.14981e-07
1.511e-07
1.83466e-07
2.02567e-07
2.02568e-07
1.83471e-07
1.51108e-07
1.14991e-07
8.55969e-08
8.56021e-08
1.14999e-07
1.51119e-07
1.83484e-07
2.02584e-07
2.02584e-07
1.83486e-07
1.51122e-07
1.15004e-07
8.56076e-08
8.56486e-08
1.15053e-07
1.51177e-07
1.83542e-07
2.02639e-07
2.02633e-07
1.83527e-07
1.51155e-07
1.15029e-07
8.56247e-08
8.57328e-08
1.1515e-07
1.51284e-07
1.83651e-07
2.0274e-07
2.02722e-07
1.83599e-07
1.5121e-07
1.15067e-07
8.56488e-08
8.58618e-08
1.15303e-07
1.51453e-07
1.83825e-07
2.02906e-07
2.02868e-07
1.83718e-07
1.51298e-07
1.15128e-07
8.56874e-08
8.6029e-08
1.155e-07
1.51672e-07
1.8405e-07
2.0312e-07
2.03055e-07
1.83869e-07
1.51411e-07
1.15205e-07
8.5737e-08
8.62507e-08
1.15773e-07
1.5199e-07
1.84394e-07
2.03461e-07
2.03368e-07
1.84135e-07
1.5162e-07
1.15357e-07
8.58418e-08
8.64406e-08
1.15996e-07
1.52239e-07
1.84649e-07
2.03703e-07
2.03581e-07
1.8431e-07
1.51757e-07
1.15458e-07
8.59144e-08
8.67902e-08
1.16463e-07
1.52833e-07
1.85339e-07
2.04437e-07
2.04293e-07
1.84944e-07
1.52279e-07
1.15857e-07
8.62094e-08
5.84368e-07
8.28589e-07
1.09509e-06
1.31565e-06
1.44047e-06
1.44047e-06
1.31565e-06
1.09509e-06
8.28589e-07
5.84368e-07
2.35124e-07
3.22818e-07
4.26153e-07
5.15487e-07
5.67298e-07
5.67298e-07
5.15488e-07
4.26153e-07
3.22818e-07
2.35124e-07
8.23357e-08
1.10261e-07
1.44695e-07
1.75724e-07
1.94052e-07
1.94052e-07
1.75724e-07
1.44695e-07
1.10261e-07
8.23358e-08
1.07664e-07
1.45219e-07
1.90604e-07
2.30858e-07
2.54462e-07
2.54462e-07
2.30858e-07
1.90604e-07
1.4522e-07
1.07665e-07
8.3947e-08
1.12613e-07
1.47885e-07
1.79516e-07
1.98184e-07
1.98184e-07
1.79517e-07
1.47886e-07
1.12614e-07
8.39476e-08
9.09271e-08
1.22293e-07
1.6067e-07
1.94963e-07
2.15168e-07
2.15168e-07
1.94964e-07
1.60671e-07
1.22295e-07
9.09283e-08
8.50834e-08
1.14262e-07
1.50135e-07
1.82291e-07
2.0127e-07
2.0127e-07
1.82292e-07
1.50137e-07
1.14264e-07
8.50855e-08
8.6942e-08
1.16837e-07
1.5353e-07
1.86387e-07
2.0577e-07
2.05771e-07
1.8639e-07
1.53534e-07
1.16841e-07
8.69457e-08
8.54456e-08
1.1478e-07
1.5083e-07
1.83137e-07
2.02203e-07
2.02205e-07
1.83141e-07
1.50836e-07
1.14786e-07
8.54516e-08
8.5937e-08
1.15461e-07
1.51728e-07
1.8422e-07
2.03394e-07
2.03396e-07
1.84226e-07
1.51736e-07
1.1547e-07
8.5946e-08
8.55477e-08
1.14926e-07
1.51027e-07
1.83377e-07
2.02469e-07
2.02472e-07
1.83385e-07
1.51039e-07
1.14939e-07
8.55606e-08
8.56763e-08
1.15105e-07
1.51263e-07
1.83663e-07
2.02785e-07
2.02789e-07
1.83674e-07
1.5128e-07
1.15123e-07
8.56939e-08
8.55738e-08
1.14965e-07
1.5108e-07
1.83444e-07
2.02545e-07
2.0255e-07
1.83458e-07
1.51101e-07
1.14988e-07
8.55962e-08
8.56067e-08
1.15011e-07
1.51142e-07
1.8352e-07
2.0263e-07
2.02636e-07
1.83537e-07
1.51167e-07
1.15039e-07
8.56335e-08
8.55793e-08
1.14974e-07
1.51094e-07
1.83463e-07
2.02568e-07
2.02575e-07
1.83482e-07
1.51122e-07
1.15005e-07
8.5609e-08
8.55878e-08
1.14986e-07
1.5111e-07
1.83482e-07
2.0259e-07
2.02597e-07
1.83503e-07
1.51139e-07
1.15017e-07
8.56182e-08
8.55809e-08
1.14976e-07
1.51097e-07
1.83467e-07
2.02572e-07
2.02579e-07
1.83486e-07
1.51124e-07
1.15006e-07
8.56094e-08
8.5584e-08
1.1498e-07
1.51101e-07
1.8347e-07
2.02576e-07
2.02582e-07
1.83487e-07
1.51125e-07
1.15005e-07
8.5608e-08
8.55833e-08
1.14978e-07
1.51098e-07
1.83465e-07
2.02568e-07
2.02573e-07
1.83477e-07
1.51115e-07
1.14997e-07
8.56011e-08
8.55852e-08
1.14979e-07
1.51098e-07
1.83464e-07
2.02566e-07
2.02569e-07
1.83472e-07
1.51109e-07
1.14991e-07
8.55959e-08
8.55858e-08
1.14979e-07
1.51097e-07
1.83461e-07
2.0256e-07
2.02561e-07
1.83464e-07
1.51101e-07
1.14983e-07
8.55896e-08
8.55868e-08
1.1498e-07
1.51096e-07
1.83458e-07
2.02556e-07
2.02556e-07
1.83457e-07
1.51094e-07
1.14977e-07
8.55843e-08
8.55872e-08
1.14979e-07
1.51095e-07
1.83456e-07
2.02552e-07
2.0255e-07
1.83451e-07
1.51088e-07
1.14971e-07
8.55795e-08
8.55878e-08
1.14979e-07
1.51094e-07
1.83453e-07
2.02548e-07
2.02545e-07
1.83445e-07
1.51082e-07
1.14967e-07
8.55755e-08
8.55885e-08
1.1498e-07
1.51093e-07
1.83452e-07
2.02545e-07
2.02541e-07
1.83441e-07
1.51078e-07
1.14963e-07
8.5572e-08
8.55892e-08
1.1498e-07
1.51093e-07
1.83451e-07
2.02543e-07
2.02539e-07
1.83438e-07
1.51075e-07
1.1496e-07
8.55692e-08
8.55896e-08
1.1498e-07
1.51093e-07
1.8345e-07
2.02542e-07
2.02536e-07
1.83435e-07
1.51072e-07
1.14957e-07
8.5567e-08
8.55892e-08
1.1498e-07
1.51092e-07
1.83448e-07
2.0254e-07
2.02535e-07
1.83433e-07
1.5107e-07
1.14955e-07
8.55656e-08
8.55879e-08
1.14978e-07
1.5109e-07
1.83447e-07
2.02538e-07
2.02533e-07
1.83432e-07
1.51069e-07
1.14955e-07
8.55655e-08
8.5586e-08
1.14976e-07
1.51088e-07
1.83445e-07
2.02537e-07
2.02533e-07
1.83433e-07
1.51071e-07
1.14957e-07
8.55678e-08
8.55839e-08
1.14974e-07
1.51086e-07
1.83445e-07
2.02539e-07
2.02536e-07
1.83438e-07
1.51077e-07
1.14963e-07
8.55736e-08
8.55825e-08
1.14973e-07
1.51087e-07
1.83447e-07
2.02544e-07
2.02544e-07
1.83448e-07
1.51088e-07
1.14975e-07
8.55839e-08
8.55821e-08
1.14975e-07
1.51091e-07
1.83455e-07
2.02555e-07
2.02559e-07
1.83465e-07
1.51106e-07
1.14992e-07
8.55987e-08
8.55827e-08
1.14978e-07
1.51098e-07
1.83466e-07
2.02571e-07
2.02579e-07
1.83487e-07
1.51128e-07
1.15012e-07
8.56162e-08
8.55843e-08
1.14982e-07
1.51107e-07
1.8348e-07
2.0259e-07
2.02601e-07
1.83511e-07
1.51151e-07
1.15032e-07
8.5633e-08
8.55863e-08
1.14987e-07
1.51116e-07
1.83493e-07
2.02607e-07
2.0262e-07
1.83531e-07
1.51169e-07
1.15047e-07
8.56447e-08
8.55884e-08
1.14991e-07
1.51122e-07
1.83501e-07
2.02617e-07
2.02631e-07
1.83541e-07
1.51177e-07
1.15052e-07
8.56476e-08
8.55898e-08
1.14992e-07
1.51123e-07
1.83503e-07
2.02618e-07
2.0263e-07
1.83537e-07
1.51171e-07
1.15045e-07
8.56404e-08
8.55903e-08
1.14991e-07
1.51119e-07
1.83496e-07
2.02608e-07
2.02617e-07
1.83521e-07
1.51154e-07
1.15028e-07
8.56247e-08
8.559e-08
1.14988e-07
1.51112e-07
1.83483e-07
2.0259e-07
2.02595e-07
1.83497e-07
1.51129e-07
1.15005e-07
8.56055e-08
8.55892e-08
1.14984e-07
1.51103e-07
1.8347e-07
2.02571e-07
2.02573e-07
1.83473e-07
1.51107e-07
1.14986e-07
8.55896e-08
8.55889e-08
1.14982e-07
1.51098e-07
1.8346e-07
2.02559e-07
2.02559e-07
1.83461e-07
1.51097e-07
1.14979e-07
8.55851e-08
8.55899e-08
1.14983e-07
1.51099e-07
1.83463e-07
2.02563e-07
2.02566e-07
1.83472e-07
1.51111e-07
1.14995e-07
8.56009e-08
8.55912e-08
1.14989e-07
1.5111e-07
1.83482e-07
2.02592e-07
2.02605e-07
1.83518e-07
1.51162e-07
1.15045e-07
8.56464e-08
8.559e-08
1.14997e-07
1.51132e-07
1.83522e-07
2.02652e-07
2.02684e-07
1.83611e-07
1.5126e-07
1.15139e-07
8.57293e-08
8.55739e-08
1.14995e-07
1.51154e-07
1.83575e-07
2.02741e-07
2.02806e-07
1.83756e-07
1.51412e-07
1.15283e-07
8.58562e-08
8.55381e-08
1.14978e-07
1.51171e-07
1.83638e-07
2.02855e-07
2.02965e-07
1.83945e-07
1.51611e-07
1.15469e-07
8.60197e-08
8.54306e-08
1.14888e-07
1.51122e-07
1.83654e-07
2.0295e-07
2.03136e-07
1.8417e-07
1.51858e-07
1.15707e-07
8.6232e-08
8.53382e-08
1.14815e-07
1.51092e-07
1.83686e-07
2.03051e-07
2.03298e-07
1.84371e-07
1.52072e-07
1.15911e-07
8.64119e-08
8.49928e-08
1.14462e-07
1.50783e-07
1.83483e-07
2.03e-07
2.03407e-07
1.8461e-07
1.52382e-07
1.16237e-07
8.67166e-08
5.84368e-07
8.28589e-07
1.09509e-06
1.31565e-06
1.44047e-06
1.44047e-06
1.31565e-06
1.09509e-06
8.28589e-07
5.84368e-07
2.35124e-07
3.22818e-07
4.26153e-07
5.15487e-07
5.67298e-07
5.67298e-07
5.15487e-07
4.26153e-07
3.22818e-07
2.35124e-07
8.23357e-08
1.10261e-07
1.44695e-07
1.75724e-07
1.94052e-07
1.94052e-07
1.75724e-07
1.44695e-07
1.10261e-07
8.23357e-08
1.07664e-07
1.45219e-07
1.90603e-07
2.30858e-07
2.54461e-07
2.54461e-07
2.30858e-07
1.90604e-07
1.45219e-07
1.07664e-07
8.39467e-08
1.12613e-07
1.47884e-07
1.79516e-07
1.98183e-07
1.98183e-07
1.79516e-07
1.47885e-07
1.12613e-07
8.3947e-08
9.09264e-08
1.22292e-07
1.60669e-07
1.94962e-07
2.15166e-07
2.15166e-07
1.94962e-07
1.60669e-07
1.22293e-07
9.0927e-08
8.50822e-08
1.1426e-07
1.50133e-07
1.82288e-07
2.01267e-07
2.01267e-07
1.82289e-07
1.50134e-07
1.14261e-07
8.50832e-08
8.694e-08
1.16834e-07
1.53527e-07
1.86383e-07
2.05765e-07
2.05765e-07
1.86384e-07
1.53528e-07
1.16836e-07
8.69417e-08
8.54424e-08
1.14775e-07
1.50824e-07
1.83129e-07
2.02195e-07
2.02196e-07
1.83131e-07
1.50827e-07
1.14778e-07
8.54452e-08
8.5932e-08
1.15454e-07
1.51719e-07
1.84209e-07
2.03381e-07
2.03382e-07
1.84212e-07
1.51723e-07
1.15458e-07
8.59362e-08
8.55406e-08
1.14916e-07
1.51014e-07
1.8336e-07
2.0245e-07
2.02452e-07
1.83364e-07
1.51019e-07
1.14922e-07
8.55466e-08
8.56668e-08
1.15091e-07
1.51245e-07
1.83641e-07
2.02758e-07
2.0276e-07
1.83646e-07
1.51253e-07
1.151e-07
8.56747e-08
8.5562e-08
1.14948e-07
1.51057e-07
1.83415e-07
2.02511e-07
2.02513e-07
1.83421e-07
1.51066e-07
1.14958e-07
8.55717e-08
8.55933e-08
1.14991e-07
1.51115e-07
1.83485e-07
2.02588e-07
2.02591e-07
1.83491e-07
1.51125e-07
1.15002e-07
8.56042e-08
8.55654e-08
1.14953e-07
1.51064e-07
1.83424e-07
2.02521e-07
2.02524e-07
1.83431e-07
1.51074e-07
1.14964e-07
8.55764e-08
8.55747e-08
1.14965e-07
1.5108e-07
1.83442e-07
2.02541e-07
2.02544e-07
1.83449e-07
1.51089e-07
1.14976e-07
8.55849e-08
8.55699e-08
1.14958e-07
1.5107e-07
1.83429e-07
2.02526e-07
2.02528e-07
1.83435e-07
1.51078e-07
1.14967e-07
8.55783e-08
8.55761e-08
1.14966e-07
1.51079e-07
1.83439e-07
2.02537e-07
2.02538e-07
1.83443e-07
1.51084e-07
1.14972e-07
8.55818e-08
8.5579e-08
1.14969e-07
1.51083e-07
1.83443e-07
2.02539e-07
2.0254e-07
1.83444e-07
1.51085e-07
1.14972e-07
8.55819e-08
8.55846e-08
1.14976e-07
1.51091e-07
1.83452e-07
2.02549e-07
2.02549e-07
1.83452e-07
1.51091e-07
1.14976e-07
8.55845e-08
8.55887e-08
1.14982e-07
1.51097e-07
1.83459e-07
2.02556e-07
2.02555e-07
1.83457e-07
1.51095e-07
1.14978e-07
8.55858e-08
8.55929e-08
1.14987e-07
1.51104e-07
1.83466e-07
2.02563e-07
2.02562e-07
1.83462e-07
1.51099e-07
1.14981e-07
8.55873e-08
8.55965e-08
1.14991e-07
1.51109e-07
1.83471e-07
2.02568e-07
2.02567e-07
1.83466e-07
1.51101e-07
1.14983e-07
8.55883e-08
8.56e-08
1.14995e-07
1.51114e-07
1.83477e-07
2.02574e-07
2.02571e-07
1.8347e-07
1.51104e-07
1.14985e-07
8.55893e-08
8.56035e-08
1.15e-07
1.51119e-07
1.83482e-07
2.02578e-07
2.02575e-07
1.83473e-07
1.51107e-07
1.14986e-07
8.55904e-08
8.5607e-08
1.15004e-07
1.51124e-07
1.83487e-07
2.02584e-07
2.0258e-07
1.83477e-07
1.51109e-07
1.14988e-07
8.55915e-08
8.56103e-08
1.15008e-07
1.51128e-07
1.83492e-07
2.02588e-07
2.02584e-07
1.8348e-07
1.51112e-07
1.1499e-07
8.55923e-08
8.56126e-08
1.15011e-07
1.51132e-07
1.83496e-07
2.02592e-07
2.02587e-07
1.83483e-07
1.51113e-07
1.1499e-07
8.55922e-08
8.56132e-08
1.15012e-07
1.51133e-07
1.83497e-07
2.02593e-07
2.02588e-07
1.83483e-07
1.51112e-07
1.14989e-07
8.55911e-08
8.56109e-08
1.15009e-07
1.5113e-07
1.83494e-07
2.0259e-07
2.02585e-07
1.8348e-07
1.5111e-07
1.14987e-07
8.55891e-08
8.56047e-08
1.15002e-07
1.51122e-07
1.83486e-07
2.02583e-07
2.02578e-07
1.83474e-07
1.51105e-07
1.14983e-07
8.55864e-08
8.55939e-08
1.14989e-07
1.51108e-07
1.83472e-07
2.0257e-07
2.02567e-07
1.83465e-07
1.51098e-07
1.14979e-07
8.55838e-08
8.55792e-08
1.14972e-07
1.51089e-07
1.83453e-07
2.02551e-07
2.02552e-07
1.83453e-07
1.5109e-07
1.14974e-07
8.55814e-08
8.55625e-08
1.14952e-07
1.51067e-07
1.8343e-07
2.0253e-07
2.02533e-07
1.83439e-07
1.51081e-07
1.14969e-07
8.55796e-08
8.5547e-08
1.14933e-07
1.51046e-07
1.83407e-07
2.02509e-07
2.02516e-07
1.83426e-07
1.51073e-07
1.14965e-07
8.55787e-08
8.55365e-08
1.1492e-07
1.5103e-07
1.8339e-07
2.02493e-07
2.02502e-07
1.83417e-07
1.51067e-07
1.14963e-07
8.55789e-08
8.5534e-08
1.14916e-07
1.51024e-07
1.83383e-07
2.02485e-07
2.02496e-07
1.83413e-07
1.51066e-07
1.14963e-07
8.55803e-08
8.55409e-08
1.14924e-07
1.51031e-07
1.83389e-07
2.0249e-07
2.025e-07
1.83417e-07
1.5107e-07
1.14967e-07
8.55827e-08
8.55552e-08
1.1494e-07
1.51048e-07
1.83406e-07
2.02506e-07
2.02514e-07
1.83427e-07
1.51078e-07
1.14972e-07
8.55854e-08
8.55722e-08
1.1496e-07
1.51071e-07
1.83429e-07
2.02528e-07
2.02533e-07
1.83442e-07
1.51088e-07
1.14977e-07
8.55879e-08
8.55842e-08
1.14975e-07
1.51089e-07
1.83449e-07
2.02547e-07
2.0255e-07
1.83456e-07
1.51097e-07
1.14982e-07
8.55898e-08
8.55819e-08
1.14974e-07
1.5109e-07
1.83453e-07
2.02554e-07
2.02557e-07
1.83462e-07
1.51101e-07
1.14984e-07
8.55908e-08
8.55554e-08
1.14945e-07
1.51062e-07
1.83429e-07
2.02535e-07
2.02544e-07
1.83454e-07
1.51097e-07
1.14983e-07
8.55905e-08
8.54962e-08
1.14878e-07
1.50992e-07
1.83363e-07
2.02478e-07
2.02499e-07
1.83423e-07
1.51078e-07
1.14972e-07
8.55867e-08
8.53998e-08
1.14767e-07
1.50873e-07
1.83246e-07
2.02374e-07
2.02415e-07
1.8336e-07
1.51036e-07
1.14948e-07
8.55757e-08
8.52649e-08
1.14608e-07
1.50697e-07
1.83067e-07
2.02206e-07
2.0227e-07
1.83246e-07
1.50954e-07
1.14894e-07
8.55438e-08
8.51054e-08
1.14417e-07
1.50483e-07
1.82843e-07
2.0199e-07
2.02078e-07
1.83087e-07
1.50832e-07
1.14808e-07
8.54868e-08
8.49136e-08
1.14174e-07
1.50188e-07
1.82511e-07
2.01646e-07
2.01748e-07
1.82794e-07
1.5059e-07
1.14622e-07
8.5352e-08
8.47685e-08
1.13993e-07
1.49974e-07
1.82275e-07
2.01402e-07
2.01511e-07
1.82577e-07
1.50402e-07
1.14469e-07
8.52339e-08
8.45098e-08
1.13622e-07
1.49461e-07
1.81636e-07
2.00676e-07
2.0076e-07
1.81867e-07
1.49783e-07
1.1397e-07
8.48484e-08
5.84368e-07
8.28589e-07
1.09509e-06
1.31565e-06
1.44047e-06
1.44047e-06
1.31565e-06
1.09509e-06
8.28589e-07
5.84368e-07
2.35124e-07
3.22818e-07
4.26153e-07
5.15487e-07
5.67298e-07
5.67298e-07
5.15487e-07
4.26153e-07
3.22818e-07
2.35124e-07
8.23358e-08
1.10261e-07
1.44695e-07
1.75724e-07
1.94052e-07
1.94052e-07
1.75724e-07
1.44695e-07
1.10261e-07
8.23357e-08
1.07665e-07
1.4522e-07
1.90604e-07
2.30858e-07
2.54462e-07
2.54461e-07
2.30858e-07
1.90603e-07
1.45219e-07
1.07664e-07
8.39473e-08
1.12613e-07
1.47885e-07
1.79516e-07
1.98184e-07
1.98184e-07
1.79516e-07
1.47884e-07
1.12613e-07
8.39467e-08
9.09277e-08
1.22294e-07
1.6067e-07
1.94963e-07
2.15167e-07
2.15167e-07
1.94962e-07
1.60669e-07
1.22293e-07
9.09265e-08
8.50844e-08
1.14263e-07
1.50136e-07
1.8229e-07
2.01268e-07
2.01268e-07
1.82289e-07
1.50134e-07
1.14261e-07
8.50823e-08
8.69438e-08
1.16838e-07
1.53531e-07
1.86386e-07
2.05767e-07
2.05766e-07
1.86384e-07
1.53527e-07
1.16834e-07
8.69401e-08
8.54484e-08
1.14782e-07
1.50831e-07
1.83135e-07
2.02199e-07
2.02198e-07
1.83131e-07
1.50825e-07
1.14776e-07
8.54426e-08
8.5941e-08
1.15464e-07
1.51729e-07
1.84217e-07
2.03387e-07
2.03385e-07
1.84212e-07
1.51721e-07
1.15455e-07
8.59323e-08
8.5553e-08
1.1493e-07
1.51027e-07
1.83372e-07
2.02459e-07
2.02456e-07
1.83364e-07
1.51016e-07
1.14917e-07
8.55409e-08
8.56831e-08
1.15109e-07
1.51263e-07
1.83656e-07
2.0277e-07
2.02766e-07
1.83646e-07
1.51249e-07
1.15093e-07
8.56672e-08
8.5582e-08
1.1497e-07
1.51079e-07
1.83434e-07
2.02525e-07
2.02521e-07
1.83422e-07
1.51061e-07
1.1495e-07
8.55626e-08
8.56163e-08
1.15017e-07
1.51141e-07
1.83507e-07
2.02605e-07
2.026e-07
1.83493e-07
1.5112e-07
1.14994e-07
8.55941e-08
8.55897e-08
1.1498e-07
1.51092e-07
1.83448e-07
2.0254e-07
2.02535e-07
1.83433e-07
1.5107e-07
1.14956e-07
8.55662e-08
8.55984e-08
1.14992e-07
1.51108e-07
1.83468e-07
2.02561e-07
2.02556e-07
1.83453e-07
1.51087e-07
1.14969e-07
8.55756e-08
8.55908e-08
1.14982e-07
1.51095e-07
1.83453e-07
2.02545e-07
2.0254e-07
1.83439e-07
1.51076e-07
1.14961e-07
8.55708e-08
8.55924e-08
1.14985e-07
1.511e-07
1.83459e-07
2.02553e-07
2.02549e-07
1.83448e-07
1.51085e-07
1.14969e-07
8.55769e-08
8.55899e-08
1.14982e-07
1.51097e-07
1.83457e-07
2.02552e-07
2.02549e-07
1.8345e-07
1.51087e-07
1.14971e-07
8.55796e-08
8.55902e-08
1.14983e-07
1.51099e-07
1.83461e-07
2.02557e-07
2.02556e-07
1.83457e-07
1.51094e-07
1.14978e-07
8.5585e-08
8.559e-08
1.14984e-07
1.51101e-07
1.83463e-07
2.02561e-07
2.0256e-07
1.83462e-07
1.51099e-07
1.14982e-07
8.5589e-08
8.55907e-08
1.14985e-07
1.51103e-07
1.83467e-07
2.02566e-07
2.02566e-07
1.83468e-07
1.51105e-07
1.14988e-07
8.55932e-08
8.55911e-08
1.14986e-07
1.51105e-07
1.8347e-07
2.0257e-07
2.02571e-07
1.83473e-07
1.5111e-07
1.14992e-07
8.55967e-08
8.55912e-08
1.14987e-07
1.51107e-07
1.83473e-07
2.02574e-07
2.02576e-07
1.83478e-07
1.51115e-07
1.14996e-07
8.56002e-08
8.55905e-08
1.14987e-07
1.51107e-07
1.83474e-07
2.02576e-07
2.0258e-07
1.83483e-07
1.51119e-07
1.15e-07
8.56036e-08
8.55893e-08
1.14986e-07
1.51107e-07
1.83475e-07
2.02578e-07
2.02583e-07
1.83486e-07
1.51123e-07
1.15004e-07
8.56069e-08
8.55881e-08
1.14985e-07
1.51106e-07
1.83475e-07
2.0258e-07
2.02585e-07
1.83489e-07
1.51127e-07
1.15007e-07
8.561e-08
8.55876e-08
1.14984e-07
1.51107e-07
1.83476e-07
2.02581e-07
2.02587e-07
1.83492e-07
1.51129e-07
1.1501e-07
8.56122e-08
8.55883e-08
1.14985e-07
1.51108e-07
1.83477e-07
2.02583e-07
2.02588e-07
1.83494e-07
1.51131e-07
1.15011e-07
8.56129e-08
8.55901e-08
1.14987e-07
1.51109e-07
1.83479e-07
2.02583e-07
2.02589e-07
1.83493e-07
1.51129e-07
1.15009e-07
8.56108e-08
8.55923e-08
1.14989e-07
1.51111e-07
1.83479e-07
2.02582e-07
2.02586e-07
1.83488e-07
1.51123e-07
1.15002e-07
8.56049e-08
8.55939e-08
1.1499e-07
1.5111e-07
1.83476e-07
2.02577e-07
2.02578e-07
1.83478e-07
1.51112e-07
1.14991e-07
8.55945e-08
8.55941e-08
1.14988e-07
1.51106e-07
1.83469e-07
2.02566e-07
2.02563e-07
1.83461e-07
1.51094e-07
1.14974e-07
8.55799e-08
8.55927e-08
1.14985e-07
1.51099e-07
1.83458e-07
2.0255e-07
2.02544e-07
1.8344e-07
1.51073e-07
1.14955e-07
8.55632e-08
8.559e-08
1.14979e-07
1.51089e-07
1.83443e-07
2.02532e-07
2.02522e-07
1.83417e-07
1.51051e-07
1.14936e-07
8.55476e-08
8.5587e-08
1.14973e-07
1.5108e-07
1.8343e-07
2.02515e-07
2.02503e-07
1.83398e-07
1.51034e-07
1.14922e-07
8.55369e-08
8.55847e-08
1.14969e-07
1.51074e-07
1.83421e-07
2.02504e-07
2.02492e-07
1.83388e-07
1.51027e-07
1.14918e-07
8.55343e-08
8.55838e-08
1.14968e-07
1.51072e-07
1.8342e-07
2.02504e-07
2.02493e-07
1.83391e-07
1.51032e-07
1.14924e-07
8.5541e-08
8.55846e-08
1.14971e-07
1.51077e-07
1.83427e-07
2.02514e-07
2.02506e-07
1.83406e-07
1.51048e-07
1.1494e-07
8.55553e-08
8.55871e-08
1.14976e-07
1.51086e-07
1.83441e-07
2.02531e-07
2.02527e-07
1.83428e-07
1.5107e-07
1.1496e-07
8.55722e-08
8.55916e-08
1.14984e-07
1.51098e-07
1.83457e-07
2.02551e-07
2.02547e-07
1.83449e-07
1.51088e-07
1.14975e-07
8.55842e-08
8.55985e-08
1.14993e-07
1.5111e-07
1.8347e-07
2.02564e-07
2.02558e-07
1.83456e-07
1.51092e-07
1.14975e-07
8.55821e-08
8.56079e-08
1.15002e-07
1.51118e-07
1.83474e-07
2.02561e-07
2.02548e-07
1.83437e-07
1.51067e-07
1.14947e-07
8.5556e-08
8.56199e-08
1.15011e-07
1.51119e-07
1.83463e-07
2.02535e-07
2.02505e-07
1.83381e-07
1.51002e-07
1.14883e-07
8.54973e-08
8.5634e-08
1.15016e-07
1.5111e-07
1.83432e-07
2.02477e-07
2.02421e-07
1.83278e-07
1.50891e-07
1.14775e-07
8.54017e-08
8.56572e-08
1.15026e-07
1.51096e-07
1.83385e-07
2.02391e-07
2.02298e-07
1.83128e-07
1.50731e-07
1.14624e-07
8.52687e-08
8.56872e-08
1.15039e-07
1.51078e-07
1.83324e-07
2.02281e-07
2.02145e-07
1.82946e-07
1.50541e-07
1.14446e-07
8.51131e-08
8.57673e-08
1.15103e-07
1.51108e-07
1.83299e-07
2.02191e-07
2.01992e-07
1.82749e-07
1.50328e-07
1.14243e-07
8.49322e-08
8.58181e-08
1.15136e-07
1.51107e-07
1.83253e-07
2.02096e-07
2.01856e-07
1.82589e-07
1.50164e-07
1.14091e-07
8.47991e-08
8.6068e-08
1.15389e-07
1.51327e-07
1.834e-07
2.02139e-07
2.01792e-07
1.82439e-07
1.49966e-07
1.13877e-07
8.45951e-08
)
;
    }
    inlet
    {
        type            calculated;
        value           uniform 0;
    }
    outlet
    {
        type            calculated;
        value           uniform 0;
    }
}


// ************************************************************************* //
