/*--------------------------------*- C++ -*----------------------------------*\
| =========                 |                                                 |
| \\      /  F ield         | OpenFOAM: The Open Source CFD Toolbox           |
|  \\    /   O peration     | Version:  2406                                  |
|   \\  /    A nd           | Website:  www.openfoam.com                      |
|    \\/     M anipulation  |                                                 |
\*---------------------------------------------------------------------------*/
FoamFile
{
    version     2.0;
    format      ascii;
    arch        "LSB;label=32;scalar=64";
    class       volVectorField;
    location    "1.7";
    object      momentError;
}
// * * * * * * * * * * * * * * * * * * * * * * * * * * * * * * * * * * * * * //

dimensions      [0 1 -2 0 0 0 0];

internalField   nonuniform List<vector> 
25000
(
(1.24478e-06 9.64875e-07 1.68748e-06)
(1.07958e-06 9.55713e-07 1.93422e-06)
(8.40215e-07 9.85491e-07 2.00942e-06)
(5.85104e-07 9.99106e-07 2.00865e-06)
(3.36252e-07 1.00609e-06 1.98567e-06)
(9.32532e-08 1.02364e-06 1.97955e-06)
(-1.5887e-07 1.05541e-06 1.99159e-06)
(-4.06023e-07 1.09271e-06 1.98208e-06)
(-6.90747e-07 1.10187e-06 1.89963e-06)
(-1.08085e-06 1.13896e-06 1.71555e-06)
(1.1925e-06 8.2202e-07 1.9257e-06)
(1.07981e-06 9.01142e-07 2.17444e-06)
(8.57244e-07 9.3847e-07 2.21634e-06)
(5.95235e-07 9.50825e-07 2.18468e-06)
(3.28358e-07 9.56678e-07 2.14096e-06)
(6.42039e-08 9.7073e-07 2.12689e-06)
(-2.06794e-07 9.944e-07 2.14399e-06)
(-4.60539e-07 1.01116e-06 2.15219e-06)
(-7.28496e-07 9.97875e-07 2.08944e-06)
(-1.05642e-06 9.81091e-07 1.87639e-06)
(1.22771e-06 5.98666e-07 1.98971e-06)
(1.0995e-06 7.0544e-07 2.20268e-06)
(8.78334e-07 7.57366e-07 2.22421e-06)
(6.15076e-07 7.73516e-07 2.178e-06)
(3.40337e-07 7.78332e-07 2.12361e-06)
(6.68261e-08 7.87559e-07 2.10566e-06)
(-2.11072e-07 8.00187e-07 2.12605e-06)
(-4.70649e-07 7.99142e-07 2.14412e-06)
(-7.36017e-07 7.62622e-07 2.10108e-06)
(-1.07673e-06 7.10349e-07 1.91638e-06)
(1.26147e-06 3.63146e-07 1.97252e-06)
(1.11793e-06 4.66076e-07 2.15488e-06)
(8.87755e-07 5.21154e-07 2.16277e-06)
(6.20601e-07 5.39984e-07 2.10824e-06)
(3.44808e-07 5.4332e-07 2.04826e-06)
(6.90461e-08 5.46671e-07 2.0285e-06)
(-2.12419e-07 5.50194e-07 2.05081e-06)
(-4.7435e-07 5.39625e-07 2.07424e-06)
(-7.44637e-07 4.98693e-07 2.04374e-06)
(-1.0918e-06 4.39003e-07 1.88892e-06)
(1.2948e-06 1.42408e-07 1.93268e-06)
(1.13728e-06 2.30675e-07 2.09553e-06)
(8.95303e-07 2.82496e-07 2.09378e-06)
(6.22236e-07 3.01456e-07 2.03384e-06)
(3.4229e-07 3.03715e-07 1.97149e-06)
(6.61796e-08 3.01577e-07 1.95174e-06)
(-2.13877e-07 2.97724e-07 1.97593e-06)
(-4.76482e-07 2.84322e-07 2.00355e-06)
(-7.45701e-07 2.49532e-07 1.98199e-06)
(-1.08722e-06 1.98203e-07 1.84637e-06)
(1.34259e-06 -6.12439e-08 1.90838e-06)
(1.17135e-06 1.24942e-08 2.06497e-06)
(9.12508e-07 5.94448e-08 2.06026e-06)
(6.27436e-07 7.69859e-08 1.99924e-06)
(3.41485e-07 7.72287e-08 1.93707e-06)
(6.20985e-08 7.00481e-08 1.91838e-06)
(-2.18954e-07 5.96787e-08 1.94429e-06)
(-4.80699e-07 4.39354e-08 1.97419e-06)
(-7.49339e-07 1.7213e-08 1.95573e-06)
(-1.08726e-06 -2.71545e-08 1.8264e-06)
(1.40759e-06 -2.66158e-07 1.89876e-06)
(1.21432e-06 -2.02524e-07 2.06133e-06)
(9.3615e-07 -1.63341e-07 2.06079e-06)
(6.35954e-07 -1.4999e-07 2.00282e-06)
(3.39033e-07 -1.54459e-07 1.94344e-06)
(5.54668e-08 -1.68539e-07 1.92702e-06)
(-2.2647e-07 -1.87239e-07 1.95422e-06)
(-4.88176e-07 -2.05635e-07 1.98412e-06)
(-7.5501e-07 -2.25828e-07 1.96374e-06)
(-1.09493e-06 -2.64846e-07 1.82806e-06)
(1.46634e-06 -4.71436e-07 1.86599e-06)
(1.24423e-06 -4.09647e-07 2.04663e-06)
(9.42434e-07 -3.79337e-07 2.05531e-06)
(6.29536e-07 -3.76346e-07 2.00416e-06)
(3.2783e-07 -3.89021e-07 1.95079e-06)
(4.41716e-08 -4.12415e-07 1.93775e-06)
(-2.34061e-07 -4.41212e-07 1.96523e-06)
(-4.89842e-07 -4.6493e-07 1.99415e-06)
(-7.53912e-07 -4.83153e-07 1.9673e-06)
(-1.09375e-06 -5.24225e-07 1.81392e-06)
(1.50136e-06 -6.93385e-07 1.76274e-06)
(1.23741e-06 -6.27972e-07 1.96713e-06)
(9.13673e-07 -6.15797e-07 1.99285e-06)
(5.98785e-07 -6.27731e-07 1.95466e-06)
(3.03623e-07 -6.51365e-07 1.91159e-06)
(3.13038e-08 -6.85203e-07 1.90266e-06)
(-2.33514e-07 -7.26476e-07 1.92873e-06)
(-4.79709e-07 -7.63742e-07 1.95137e-06)
(-7.3826e-07 -7.99531e-07 1.91008e-06)
(-1.05713e-06 -8.68637e-07 1.73702e-06)
(1.58219e-06 -9.13283e-07 1.54797e-06)
(1.21445e-06 -8.70406e-07 1.74174e-06)
(8.72772e-07 -9.11405e-07 1.79965e-06)
(5.71869e-07 -9.46745e-07 1.79086e-06)
(2.96981e-07 -9.78927e-07 1.76638e-06)
(4.3697e-08 -1.02258e-06 1.76348e-06)
(-2.05651e-07 -1.08082e-06 1.78241e-06)
(-4.49724e-07 -1.14112e-06 1.78612e-06)
(-7.20195e-07 -1.20528e-06 1.72262e-06)
(-1.03386e-06 -1.34257e-06 1.58211e-06)
(1.90405e-06 6.01371e-07 5.30069e-06)
(1.78041e-06 6.96191e-07 6.27478e-06)
(1.58254e-06 8.08064e-07 6.91803e-06)
(1.32024e-06 8.82937e-07 7.23882e-06)
(1.02449e-06 9.43039e-07 7.39903e-06)
(7.1295e-07 9.96489e-07 7.48186e-06)
(3.90761e-07 1.04855e-06 7.49594e-06)
(7.97304e-08 1.09697e-06 7.36918e-06)
(-2.56518e-07 1.10414e-06 6.9564e-06)
(-7.40398e-07 1.13248e-06 6.44926e-06)
(1.72134e-06 4.36623e-07 6.16947e-06)
(1.67286e-06 6.66071e-07 7.46327e-06)
(1.50353e-06 7.98852e-07 8.18397e-06)
(1.2209e-06 8.55678e-07 8.45214e-06)
(8.91105e-07 8.89569e-07 8.54005e-06)
(5.47615e-07 9.23655e-07 8.60005e-06)
(1.94591e-07 9.57416e-07 8.63323e-06)
(-1.37401e-07 9.66259e-07 8.48603e-06)
(-4.60245e-07 9.05799e-07 7.90673e-06)
(-8.79665e-07 8.33091e-07 6.9542e-06)
(1.73639e-06 1.9753e-07 6.7172e-06)
(1.67773e-06 4.504e-07 8.10012e-06)
(1.47823e-06 5.77983e-07 8.73453e-06)
(1.17436e-06 6.1966e-07 8.88157e-06)
(8.42113e-07 6.37063e-07 8.89758e-06)
(5.01053e-07 6.57207e-07 8.95048e-06)
(1.47406e-07 6.78813e-07 9.04247e-06)
(-1.99992e-07 6.75228e-07 8.99901e-06)
(-5.44614e-07 5.94721e-07 8.4681e-06)
(-9.77221e-07 4.64458e-07 7.35732e-06)
(1.76195e-06 -5.69213e-08 6.93659e-06)
(1.67238e-06 1.54974e-07 8.28779e-06)
(1.43614e-06 2.66942e-07 8.8078e-06)
(1.12545e-06 3.09311e-07 8.89366e-06)
(8.01045e-07 3.25304e-07 8.88686e-06)
(4.71429e-07 3.35049e-07 8.93213e-06)
(1.28258e-07 3.39316e-07 9.03518e-06)
(-2.20731e-07 3.21204e-07 9.04765e-06)
(-5.85413e-07 2.46539e-07 8.61861e-06)
(-1.02586e-06 1.17071e-07 7.49468e-06)
(1.78307e-06 -2.9424e-07 6.98815e-06)
(1.67575e-06 -1.36011e-07 8.2915e-06)
(1.41579e-06 -3.48758e-08 8.75123e-06)
(1.09925e-06 1.3229e-08 8.82105e-06)
(7.78585e-07 3.13569e-08 8.80924e-06)
(4.54763e-07 3.3536e-08 8.84871e-06)
(1.18754e-07 2.25046e-08 8.9474e-06)
(-2.24407e-07 -9.77209e-09 8.97214e-06)
(-5.92917e-07 -8.01741e-08 8.60175e-06)
(-1.02665e-06 -1.89955e-07 7.50805e-06)
(1.81551e-06 -5.10016e-07 6.94695e-06)
(1.70538e-06 -4.01064e-07 8.26081e-06)
(1.43472e-06 -3.1129e-07 8.72841e-06)
(1.10838e-06 -2.60007e-07 8.80159e-06)
(7.81376e-07 -2.42557e-07 8.79025e-06)
(4.5633e-07 -2.4928e-07 8.82853e-06)
(1.22907e-07 -2.73386e-07 8.92427e-06)
(-2.16828e-07 -3.17836e-07 8.94412e-06)
(-5.78893e-07 -3.84734e-07 8.56841e-06)
(-9.98657e-07 -4.75964e-07 7.46799e-06)
(1.85611e-06 -7.01513e-07 6.80519e-06)
(1.75242e-06 -6.44312e-07 8.18842e-06)
(1.48331e-06 -5.77652e-07 8.73094e-06)
(1.1448e-06 -5.32752e-07 8.82646e-06)
(8.05634e-07 -5.22613e-07 8.82057e-06)
(4.75191e-07 -5.40881e-07 8.86184e-06)
(1.40513e-07 -5.81265e-07 8.95605e-06)
(-1.95116e-07 -6.35926e-07 8.95551e-06)
(-5.40299e-07 -6.91124e-07 8.51305e-06)
(-9.44495e-07 -7.59018e-07 7.3676e-06)
(1.89036e-06 -8.55157e-07 6.47444e-06)
(1.77567e-06 -8.40203e-07 7.91401e-06)
(1.51977e-06 -8.18355e-07 8.58415e-06)
(1.18297e-06 -8.01436e-07 8.74573e-06)
(8.39075e-07 -8.10048e-07 8.76262e-06)
(5.06913e-07 -8.46337e-07 8.80861e-06)
(1.75555e-07 -9.02551e-07 8.88755e-06)
(-1.46518e-07 -9.59058e-07 8.82791e-06)
(-4.65606e-07 -9.8829e-07 8.27856e-06)
(-8.58048e-07 -1.04037e-06 7.12595e-06)
(1.90971e-06 -9.79959e-07 5.78626e-06)
(1.73292e-06 -9.7916e-07 7.15683e-06)
(1.48617e-06 -1.01789e-06 7.92289e-06)
(1.18315e-06 -1.05566e-06 8.20815e-06)
(8.64613e-07 -1.10156e-06 8.29696e-06)
(5.52626e-07 -1.15883e-06 8.34864e-06)
(2.44543e-07 -1.22367e-06 8.3675e-06)
(-4.48549e-08 -1.27283e-06 8.2031e-06)
(-3.31816e-07 -1.29676e-06 7.59897e-06)
(-6.99155e-07 -1.389e-06 6.58568e-06)
(2.09307e-06 -1.15148e-06 4.74588e-06)
(1.74567e-06 -1.14112e-06 5.82428e-06)
(1.47382e-06 -1.24362e-06 6.52475e-06)
(1.21802e-06 -1.33014e-06 6.87062e-06)
(9.5835e-07 -1.41058e-06 7.03576e-06)
(6.97014e-07 -1.4905e-06 7.1092e-06)
(4.36029e-07 -1.57384e-06 7.10214e-06)
(1.75753e-07 -1.65227e-06 6.94336e-06)
(-1.13449e-07 -1.73771e-06 6.48123e-06)
(-4.80457e-07 -1.96274e-06 5.87552e-06)
(2.84544e-06 -3.78367e-07 7.22744e-06)
(2.68539e-06 -1.24571e-07 9.17179e-06)
(2.53735e-06 1.06924e-07 1.05314e-05)
(2.33205e-06 2.79438e-07 1.13296e-05)
(2.07017e-06 4.27251e-07 1.18745e-05)
(1.76443e-06 5.56503e-07 1.23179e-05)
(1.42095e-06 6.72784e-07 1.26951e-05)
(1.06644e-06 7.74332e-07 1.2904e-05)
(6.83599e-07 8.26642e-07 1.26949e-05)
(1.83153e-07 8.89682e-07 1.27844e-05)
(2.35266e-06 -3.60471e-07 8.68883e-06)
(2.31374e-06 -6.53081e-09 1.10005e-05)
(2.24e-06 2.04374e-07 1.24774e-05)
(2.05651e-06 3.26292e-07 1.3261e-05)
(1.78917e-06 4.17428e-07 1.37262e-05)
(1.46249e-06 4.92989e-07 1.40404e-05)
(1.09419e-06 5.57303e-07 1.42363e-05)
(7.2459e-07 5.9239e-07 1.41823e-05)
(3.47073e-07 5.56528e-07 1.35629e-05)
(-1.3149e-07 5.00974e-07 1.27779e-05)
(2.2284e-06 -4.67562e-07 9.57138e-06)
(2.21084e-06 -1.00779e-07 1.20597e-05)
(2.1522e-06 8.9971e-08 1.35889e-05)
(1.98063e-06 1.79116e-07 1.43776e-05)
(1.71871e-06 2.30414e-07 1.48106e-05)
(1.39218e-06 2.67739e-07 1.50742e-05)
(1.02173e-06 2.92974e-07 1.51943e-05)
(6.34965e-07 2.89168e-07 1.50256e-05)
(2.23499e-07 2.12711e-07 1.4247e-05)
(-3.02056e-07 7.37783e-08 1.30719e-05)
(2.18412e-06 -6.10218e-07 9.85336e-06)
(2.15575e-06 -2.85067e-07 1.24428e-05)
(2.08561e-06 -1.18879e-07 1.40103e-05)
(1.91381e-06 -4.88497e-08 1.4811e-05)
(1.6595e-06 -2.32182e-08 1.52185e-05)
(1.34499e-06 -1.23422e-08 1.54617e-05)
(9.82471e-07 -1.49457e-08 1.55518e-05)
(5.95777e-07 -4.75941e-08 1.53011e-05)
(1.63083e-07 -1.38317e-07 1.4414e-05)
(-3.81701e-07 -3.06978e-07 1.30128e-05)
(2.16762e-06 -7.34586e-07 9.83221e-06)
(2.12971e-06 -4.71887e-07 1.24916e-05)
(2.04354e-06 -3.34167e-07 1.40834e-05)
(1.86088e-06 -2.78779e-07 1.48737e-05)
(1.60565e-06 -2.68955e-07 1.52414e-05)
(1.30752e-06 -2.7809e-07 1.54822e-05)
(9.57126e-07 -3.02942e-07 1.55861e-05)
(5.77771e-07 -3.54457e-07 1.53077e-05)
(1.47754e-07 -4.50635e-07 1.43597e-05)
(-3.85392e-07 -6.28643e-07 1.28292e-05)
(2.17821e-06 -8.34894e-07 9.62318e-06)
(2.13803e-06 -6.36505e-07 1.23463e-05)
(2.03937e-06 -5.30619e-07 1.3968e-05)
(1.84742e-06 -4.87882e-07 1.47708e-05)
(1.5902e-06 -4.83868e-07 1.51405e-05)
(1.29661e-06 -5.13094e-07 1.53804e-05)
(9.55002e-07 -5.64584e-07 1.54809e-05)
(5.88061e-07 -6.32436e-07 1.51899e-05)
(1.72772e-07 -7.28991e-07 1.42165e-05)
(-3.36214e-07 -9.14955e-07 1.26295e-05)
(2.21447e-06 -9.0499e-07 9.20616e-06)
(2.16765e-06 -7.67421e-07 1.19813e-05)
(2.06359e-06 -7.00311e-07 1.36397e-05)
(1.87049e-06 -6.80445e-07 1.44821e-05)
(1.61146e-06 -6.97024e-07 1.49024e-05)
(1.31287e-06 -7.44926e-07 1.51424e-05)
(9.80768e-07 -8.1445e-07 1.52144e-05)
(6.30164e-07 -8.95026e-07 1.49225e-05)
(2.42608e-07 -9.92321e-07 1.39609e-05)
(-2.34847e-07 -1.19127e-06 1.23905e-05)
(2.27036e-06 -9.37985e-07 8.43272e-06)
(2.2024e-06 -8.45615e-07 1.12267e-05)
(2.08959e-06 -8.21598e-07 1.29023e-05)
(1.89592e-06 -8.36784e-07 1.37634e-05)
(1.64268e-06 -8.84545e-07 1.42238e-05)
(1.35135e-06 -9.55581e-07 1.44817e-05)
(1.0346e-06 -1.04326e-06 1.45655e-05)
(7.0988e-07 -1.13851e-06 1.43262e-05)
(3.62383e-07 -1.23908e-06 1.34294e-05)
(-7.38462e-08 -1.46654e-06 1.19724e-05)
(2.35219e-06 -9.46528e-07 6.98531e-06)
(2.22474e-06 -8.7765e-07 9.69773e-06)
(2.09828e-06 -9.05296e-07 1.13586e-05)
(1.91585e-06 -9.65131e-07 1.22368e-05)
(1.68531e-06 -1.0509e-06 1.27392e-05)
(1.42316e-06 -1.15064e-06 1.30431e-05)
(1.14134e-06 -1.26314e-06 1.31843e-05)
(8.59235e-07 -1.37863e-06 1.30342e-05)
(5.69442e-07 -1.50699e-06 1.22608e-05)
(2.14456e-07 -1.81829e-06 1.10889e-05)
(2.72134e-06 -1.01297e-06 4.64734e-06)
(2.42889e-06 -9.46682e-07 7.15889e-06)
(2.27071e-06 -1.04633e-06 8.75782e-06)
(2.11244e-06 -1.15643e-06 9.68486e-06)
(1.92838e-06 -1.2809e-06 1.02833e-05)
(1.72063e-06 -1.41637e-06 1.07105e-05)
(1.49489e-06 -1.56834e-06 1.1007e-05)
(1.25583e-06 -1.73525e-06 1.10706e-05)
(9.97035e-07 -1.95377e-06 1.06319e-05)
(7.10844e-07 -2.44524e-06 1.01521e-05)
(4.49024e-06 -2.10325e-06 7.80698e-06)
(4.31765e-06 -1.48603e-06 1.09813e-05)
(4.21968e-06 -1.06233e-06 1.32869e-05)
(4.04523e-06 -7.56292e-07 1.48406e-05)
(3.78678e-06 -4.82975e-07 1.60783e-05)
(3.46083e-06 -2.3214e-07 1.71976e-05)
(3.07209e-06 5.74948e-09 1.82491e-05)
(2.64526e-06 2.24138e-07 1.91274e-05)
(2.17994e-06 3.99399e-07 1.95286e-05)
(1.68415e-06 5.30054e-07 2.10939e-05)
(3.49951e-06 -1.88783e-06 9.8769e-06)
(3.43919e-06 -1.22558e-06 1.33027e-05)
(3.42008e-06 -8.58102e-07 1.56109e-05)
(3.29054e-06 -6.26472e-07 1.69982e-05)
(3.05768e-06 -4.4317e-07 1.79988e-05)
(2.73773e-06 -2.85471e-07 1.88245e-05)
(2.34434e-06 -1.46216e-07 1.95244e-05)
(1.91154e-06 -5.28998e-08 1.99574e-05)
(1.43554e-06 -4.7531e-08 1.96964e-05)
(8.67405e-07 -8.91684e-08 1.97819e-05)
(3.12508e-06 -1.89678e-06 1.10253e-05)
(3.11426e-06 -1.29371e-06 1.4595e-05)
(3.12722e-06 -9.83246e-07 1.68726e-05)
(3.03587e-06 -8.11196e-07 1.81915e-05)
(2.84527e-06 -6.98028e-07 1.91125e-05)
(2.54932e-06 -6.07314e-07 1.98129e-05)
(2.15855e-06 -5.2812e-07 2.03449e-05)
(1.70464e-06 -4.93525e-07 2.06322e-05)
(1.17738e-06 -5.58588e-07 2.0206e-05)
(5.24756e-07 -7.20983e-07 1.96645e-05)
(2.92624e-06 -1.94338e-06 1.12958e-05)
(2.93833e-06 -1.44373e-06 1.49561e-05)
(2.97107e-06 -1.19584e-06 1.7247e-05)
(2.92603e-06 -1.07608e-06 1.86636e-05)
(2.79507e-06 -1.01023e-06 1.97177e-05)
(2.52664e-06 -9.70511e-07 2.03262e-05)
(2.1238e-06 -9.30846e-07 2.05748e-05)
(1.64063e-06 -9.27958e-07 2.06647e-05)
(1.07307e-06 -1.01737e-06 2.01191e-05)
(3.9798e-07 -1.23876e-06 1.92172e-05)
(2.80664e-06 -1.95215e-06 1.11069e-05)
(2.84587e-06 -1.56335e-06 1.48701e-05)
(2.89881e-06 -1.37669e-06 1.72268e-05)
(2.90479e-06 -1.30265e-06 1.88727e-05)
(2.83122e-06 -1.2855e-06 2.03292e-05)
(2.57176e-06 -1.26694e-06 2.08411e-05)
(2.1492e-06 -1.25002e-06 2.06331e-05)
(1.64881e-06 -1.27328e-06 2.04795e-05)
(1.06595e-06 -1.38393e-06 1.98181e-05)
(4.07545e-07 -1.65405e-06 1.86878e-05)
(2.76651e-06 -1.91553e-06 1.06072e-05)
(2.82544e-06 -1.62681e-06 1.4503e-05)
(2.88455e-06 -1.49262e-06 1.69217e-05)
(2.89815e-06 -1.44752e-06 1.86051e-05)
(2.83044e-06 -1.45905e-06 2.00954e-05)
(2.5895e-06 -1.47124e-06 2.06071e-05)
(2.17895e-06 -1.47466e-06 2.03636e-05)
(1.69571e-06 -1.53696e-06 2.01694e-05)
(1.13336e-06 -1.67502e-06 1.94495e-05)
(5.15228e-07 -1.99916e-06 1.81913e-05)
(2.80236e-06 -1.81549e-06 9.76614e-06)
(2.86915e-06 -1.62031e-06 1.38182e-05)
(2.91925e-06 -1.53919e-06 1.62919e-05)
(2.8964e-06 -1.51869e-06 1.78131e-05)
(2.79868e-06 -1.54983e-06 1.89228e-05)
(2.57648e-06 -1.58389e-06 1.95287e-05)
(2.22226e-06 -1.64286e-06 1.97144e-05)
(1.7884e-06 -1.75629e-06 1.96927e-05)
(1.28115e-06 -1.92743e-06 1.8978e-05)
(7.20586e-07 -2.31706e-06 1.76956e-05)
(2.92476e-06 -1.64406e-06 8.38361e-06)
(2.97547e-06 -1.52774e-06 1.25957e-05)
(3.01626e-06 -1.50824e-06 1.51605e-05)
(2.97292e-06 -1.52918e-06 1.66346e-05)
(2.85217e-06 -1.58936e-06 1.76208e-05)
(2.64163e-06 -1.67609e-06 1.83138e-05)
(2.33993e-06 -1.79836e-06 1.87658e-05)
(1.97001e-06 -1.95958e-06 1.88913e-05)
(1.5309e-06 -2.16461e-06 1.82069e-05)
(1.03988e-06 -2.63231e-06 1.70313e-05)
(3.15876e-06 -1.39615e-06 6.0014e-06)
(3.15231e-06 -1.3508e-06 1.02967e-05)
(3.18069e-06 -1.40639e-06 1.2958e-05)
(3.146e-06 -1.49508e-06 1.45365e-05)
(3.03928e-06 -1.62072e-06 1.56148e-05)
(2.85869e-06 -1.77346e-06 1.6421e-05)
(2.60941e-06 -1.95954e-06 1.70068e-05)
(2.30577e-06 -2.17476e-06 1.72297e-05)
(1.95002e-06 -2.44272e-06 1.66373e-05)
(1.59226e-06 -3.04024e-06 1.58291e-05)
(3.93316e-06 -1.21879e-06 1.90519e-06)
(3.75023e-06 -1.18916e-06 6.40675e-06)
(3.7601e-06 -1.35306e-06 9.20188e-06)
(3.75107e-06 -1.52631e-06 1.1016e-05)
(3.68954e-06 -1.735e-06 1.2356e-05)
(3.5673e-06 -1.97284e-06 1.3437e-05)
(3.38921e-06 -2.25107e-06 1.43144e-05)
(3.15426e-06 -2.57249e-06 1.48743e-05)
(2.87461e-06 -2.99576e-06 1.47709e-05)
(2.67303e-06 -3.83653e-06 1.4964e-05)
(7.85374e-06 -4.61232e-06 5.59955e-06)
(7.5885e-06 -3.36122e-06 1.13815e-05)
(7.56776e-06 -2.52992e-06 1.54952e-05)
(7.45523e-06 -1.91744e-06 1.85747e-05)
(7.18236e-06 -1.37804e-06 2.12538e-05)
(6.75877e-06 -9.0055e-07 2.38339e-05)
(6.18462e-06 -4.76132e-07 2.64125e-05)
(5.49479e-06 -1.27322e-07 2.89117e-05)
(4.71583e-06 1.27755e-07 3.10252e-05)
(4.01655e-06 2.08555e-07 3.60561e-05)
(5.91682e-06 -3.97158e-06 8.9113e-06)
(5.91e-06 -2.77729e-06 1.46177e-05)
(6.05845e-06 -2.1164e-06 1.84574e-05)
(6.0521e-06 -1.66856e-06 2.10445e-05)
(5.85517e-06 -1.30834e-06 2.3146e-05)
(5.46705e-06 -1.01203e-06 2.50755e-05)
(4.89988e-06 -7.66111e-07 2.69206e-05)
(4.20853e-06 -6.1433e-07 2.85316e-05)
(3.41658e-06 -5.97939e-07 2.93975e-05)
(2.57657e-06 -7.17643e-07 3.16633e-05)
(5.08512e-06 -3.70845e-06 1.04167e-05)
(5.2408e-06 -2.6425e-06 1.61569e-05)
(5.4884e-06 -2.10391e-06 1.98292e-05)
(5.56836e-06 -1.78369e-06 2.21684e-05)
(5.45037e-06 -1.56921e-06 2.40138e-05)
(5.09788e-06 -1.40616e-06 2.56711e-05)
(4.5251e-06 -1.27107e-06 2.72095e-05)
(3.80212e-06 -1.22172e-06 2.85916e-05)
(2.95248e-06 -1.31799e-06 2.91739e-05)
(2.00751e-06 -1.62168e-06 3.02809e-05)
(4.63183e-06 -3.53448e-06 1.05948e-05)
(4.86656e-06 -2.62814e-06 1.63942e-05)
(5.18175e-06 -2.2037e-06 1.99911e-05)
(5.36667e-06 -2.00062e-06 2.23404e-05)
(5.39524e-06 -1.91592e-06 2.42779e-05)
(5.07594e-06 -1.86488e-06 2.57479e-05)
(4.42743e-06 -1.77142e-06 2.68044e-05)
(3.64561e-06 -1.77695e-06 2.79779e-05)
(2.75232e-06 -1.93093e-06 2.8401e-05)
(1.79244e-06 -2.35409e-06 2.88217e-05)
(4.35534e-06 -3.32523e-06 1.00264e-05)
(4.65498e-06 -2.59257e-06 1.59801e-05)
(5.03299e-06 -2.28112e-06 1.96388e-05)
(5.35041e-06 -2.19434e-06 2.23708e-05)
(5.57762e-06 -2.24503e-06 2.51916e-05)
(5.28701e-06 -2.23745e-06 2.61217e-05)
(4.50935e-06 -2.16252e-06 2.64536e-05)
(3.63809e-06 -2.20532e-06 2.72574e-05)
(2.72899e-06 -2.41341e-06 2.75021e-05)
(1.80425e-06 -2.94979e-06 2.74705e-05)
(4.2297e-06 -3.06546e-06 8.90781e-06)
(4.57722e-06 -2.49436e-06 1.51438e-05)
(4.97568e-06 -2.27962e-06 1.89201e-05)
(5.31385e-06 -2.25631e-06 2.17221e-05)
(5.54958e-06 -2.36199e-06 2.47711e-05)
(5.28756e-06 -2.41156e-06 2.57e-05)
(4.53098e-06 -2.40268e-06 2.57952e-05)
(3.7066e-06 -2.51426e-06 2.65174e-05)
(2.84538e-06 -2.78707e-06 2.66447e-05)
(1.99274e-06 -3.44518e-06 2.63358e-05)
(4.24948e-06 -2.7191e-06 7.19113e-06)
(4.61579e-06 -2.2995e-06 1.38294e-05)
(4.99526e-06 -2.17636e-06 1.77883e-05)
(5.2317e-06 -2.19006e-06 2.03656e-05)
(5.317e-06 -2.30354e-06 2.24447e-05)
(5.08293e-06 -2.39217e-06 2.39043e-05)
(4.53156e-06 -2.52504e-06 2.47919e-05)
(3.86499e-06 -2.74969e-06 2.57073e-05)
(3.11332e-06 -3.10225e-06 2.57763e-05)
(2.36401e-06 -3.90025e-06 2.53618e-05)
(4.44101e-06 -2.27505e-06 4.57513e-06)
(4.79414e-06 -1.98877e-06 1.17179e-05)
(5.14863e-06 -1.95833e-06 1.59527e-05)
(5.33277e-06 -2.03827e-06 1.85999e-05)
(5.33694e-06 -2.19271e-06 2.05674e-05)
(5.13347e-06 -2.38564e-06 2.22002e-05)
(4.73258e-06 -2.63618e-06 2.35658e-05)
(4.20217e-06 -2.96162e-06 2.45973e-05)
(3.56997e-06 -3.39661e-06 2.46364e-05)
(2.94517e-06 -4.34623e-06 2.43317e-05)
(4.88111e-06 -1.7159e-06 3.93116e-07)
(5.14397e-06 -1.56007e-06 8.05743e-06)
(5.46966e-06 -1.64297e-06 1.26036e-05)
(5.6525e-06 -1.82179e-06 1.55644e-05)
(5.6704e-06 -2.08068e-06 1.78097e-05)
(5.52101e-06 -2.38905e-06 1.96845e-05)
(5.22176e-06 -2.75978e-06 2.12785e-05)
(4.80909e-06 -3.19305e-06 2.24284e-05)
(4.31784e-06 -3.7488e-06 2.25733e-05)
(3.92892e-06 -4.91089e-06 2.27917e-05)
(6.25955e-06 -1.1872e-06 -7.5019e-06)
(6.26536e-06 -1.1074e-06 1.36699e-06)
(6.55887e-06 -1.37022e-06 6.54431e-06)
(6.77182e-06 -1.69291e-06 1.0176e-05)
(6.85139e-06 -2.09146e-06 1.30632e-05)
(6.79591e-06 -2.5455e-06 1.55422e-05)
(6.62239e-06 -3.07048e-06 1.7719e-05)
(6.34255e-06 -3.67463e-06 1.9485e-05)
(6.01162e-06 -4.48151e-06 2.0441e-05)
(5.93683e-06 -5.99182e-06 2.22568e-05)
(1.28929e-05 -8.43443e-06 3.92211e-08)
(1.2432e-05 -6.13934e-06 9.64324e-06)
(1.24625e-05 -4.73491e-06 1.64228e-05)
(1.23933e-05 -3.7195e-06 2.18989e-05)
(1.20843e-05 -2.82416e-06 2.69344e-05)
(1.15387e-05 -2.0413e-06 3.19348e-05)
(1.07465e-05 -1.35418e-06 3.70683e-05)
(9.74117e-06 -7.97743e-07 4.23499e-05)
(8.56927e-06 -3.69878e-07 4.75808e-05)
(7.65609e-06 -3.47162e-07 5.87971e-05)
(9.5359e-06 -7.39676e-06 4.90167e-06)
(9.46921e-06 -5.35428e-06 1.38299e-05)
(9.75633e-06 -4.31226e-06 1.98798e-05)
(9.87832e-06 -3.58056e-06 2.43688e-05)
(9.72633e-06 -2.97281e-06 2.82951e-05)
(9.27316e-06 -2.46717e-06 3.20662e-05)
(8.52262e-06 -2.04963e-06 3.58169e-05)
(7.53136e-06 -1.77286e-06 3.94542e-05)
(6.33032e-06 -1.66231e-06 4.248e-05)
(5.13081e-06 -1.84386e-06 4.88865e-05)
(7.9427e-06 -6.89263e-06 6.62187e-06)
(8.19815e-06 -5.15725e-06 1.54203e-05)
(8.68284e-06 -4.34424e-06 2.11631e-05)
(8.96973e-06 -3.82222e-06 2.52075e-05)
(8.9701e-06 -3.44618e-06 2.86387e-05)
(8.58702e-06 -3.14344e-06 3.19111e-05)
(7.83412e-06 -2.89415e-06 3.51104e-05)
(6.81734e-06 -2.77436e-06 3.83042e-05)
(5.55695e-06 -2.83167e-06 4.07823e-05)
(4.22222e-06 -3.26193e-06 4.51717e-05)
(7.00582e-06 -6.49472e-06 6.47005e-06)
(7.4512e-06 -5.05078e-06 1.53063e-05)
(8.10012e-06 -4.43191e-06 2.09212e-05)
(8.5981e-06 -4.11781e-06 2.48917e-05)
(8.87185e-06 -3.98044e-06 2.82569e-05)
(8.54333e-06 -3.84375e-06 3.12149e-05)
(7.64729e-06 -3.63507e-06 3.37307e-05)
(6.54645e-06 -3.59751e-06 3.66484e-05)
(5.25248e-06 -3.76055e-06 3.88226e-05)
(3.92468e-06 -4.392e-06 4.19686e-05)
(6.40321e-06 -6.02385e-06 5.18508e-06)
(7.00568e-06 -4.86952e-06 1.42818e-05)
(7.8076e-06 -4.43983e-06 1.99886e-05)
(8.56669e-06 -4.34893e-06 2.44672e-05)
(9.24809e-06 -4.49773e-06 2.8928e-05)
(8.97686e-06 -4.43918e-06 3.06478e-05)
(7.80814e-06 -4.20432e-06 3.26188e-05)
(6.55482e-06 -4.20223e-06 3.50653e-05)
(5.25326e-06 -4.46814e-06 3.69313e-05)
(3.99159e-06 -5.31196e-06 3.92448e-05)
(6.09889e-06 -5.45879e-06 3.00087e-06)
(6.80776e-06 -4.55982e-06 1.26136e-05)
(7.67871e-06 -4.2799e-06 1.85311e-05)
(8.49763e-06 -4.29486e-06 2.31366e-05)
(9.21392e-06 -4.53602e-06 2.81569e-05)
(9.0158e-06 -4.60995e-06 2.9877e-05)
(7.89287e-06 -4.48612e-06 3.12795e-05)
(6.71563e-06 -4.59482e-06 3.35857e-05)
(5.4957e-06 -4.98823e-06 3.52423e-05)
(4.34954e-06 -6.0624e-06 3.70391e-05)
(6.08142e-06 -4.73293e-06 -1.57376e-07)
(6.8467e-06 -4.07028e-06 1.02309e-05)
(7.70267e-06 -3.91586e-06 1.64985e-05)
(8.36609e-06 -3.96679e-06 2.09119e-05)
(8.7947e-06 -4.1735e-06 2.4564e-05)
(8.65003e-06 -4.32643e-06 2.75128e-05)
(7.93625e-06 -4.50015e-06 2.97142e-05)
(7.04052e-06 -4.83156e-06 3.21508e-05)
(5.99137e-06 -5.39093e-06 3.36831e-05)
(5.00708e-06 -6.72955e-06 3.52676e-05)
(6.4071e-06 -3.83005e-06 -4.69936e-06)
(7.17417e-06 -3.37775e-06 6.71485e-06)
(8.00037e-06 -3.34995e-06 1.34727e-05)
(8.58147e-06 -3.48725e-06 1.80958e-05)
(8.86545e-06 -3.74726e-06 2.17717e-05)
(8.77882e-06 -4.06818e-06 2.50183e-05)
(8.34016e-06 -4.47194e-06 2.7917e-05)
(7.66524e-06 -5.00769e-06 3.04764e-05)
(6.79324e-06 -5.74366e-06 3.19676e-05)
(6.0072e-06 -7.35864e-06 3.36959e-05)
(7.21503e-06 -2.70201e-06 -1.15278e-05)
(7.87094e-06 -2.47265e-06 1.13116e-06)
(8.64816e-06 -2.59996e-06 8.46831e-06)
(9.21615e-06 -2.88036e-06 1.36562e-05)
(9.50772e-06 -3.3015e-06 1.78667e-05)
(9.50042e-06 -3.81836e-06 2.156e-05)
(9.21872e-06 -4.44724e-06 2.48701e-05)
(8.71675e-06 -5.19738e-06 2.7663e-05)
(8.05361e-06 -6.16697e-06 2.93526e-05)
(7.65157e-06 -8.13245e-06 3.18426e-05)
(9.58358e-06 -1.60114e-06 -2.52543e-05)
(9.8995e-06 -1.47317e-06 -9.61852e-06)
(1.06426e-05 -1.8582e-06 -8.09205e-07)
(1.1241e-05 -2.35711e-06 5.73265e-06)
(1.16081e-05 -3.00857e-06 1.11791e-05)
(1.17315e-05 -3.77617e-06 1.60077e-05)
(1.16386e-05 -4.68357e-06 2.03915e-05)
(1.13446e-05 -5.74293e-06 2.42766e-05)
(1.09538e-05 -7.15544e-06 2.72934e-05)
(1.10965e-05 -9.65542e-06 3.22615e-05)
(2.07515e-05 -1.3988e-05 -1.15276e-05)
(1.99299e-05 -1.00408e-05 4.50127e-06)
(2.00289e-05 -7.66407e-06 1.57159e-05)
(2.0042e-05 -5.98135e-06 2.52667e-05)
(1.96849e-05 -4.53931e-06 3.43511e-05)
(1.89385e-05 -3.3176e-06 4.35554e-05)
(1.77684e-05 -2.29386e-06 5.31892e-05)
(1.62093e-05 -1.52779e-06 6.34536e-05)
(1.4344e-05 -1.00697e-06 7.43988e-05)
(1.29939e-05 -1.24321e-06 9.66401e-05)
(1.52483e-05 -1.22717e-05 -4.31389e-06)
(1.51602e-05 -8.90552e-06 9.93083e-06)
(1.57136e-05 -7.20342e-06 1.9588e-05)
(1.60516e-05 -5.98505e-06 2.72939e-05)
(1.59639e-05 -4.97607e-06 3.43628e-05)
(1.5378e-05 -4.15581e-06 4.13464e-05)
(1.42811e-05 -3.50438e-06 4.84801e-05)
(1.27519e-05 -3.09962e-06 5.57958e-05)
(1.08658e-05 -2.96746e-06 6.29138e-05)
(9.1051e-06 -3.39049e-06 7.69081e-05)
(1.259e-05 -1.13358e-05 -2.51571e-06)
(1.31051e-05 -8.50921e-06 1.12909e-05)
(1.40118e-05 -7.20611e-06 2.04245e-05)
(1.46173e-05 -6.34114e-06 2.7391e-05)
(1.47629e-05 -5.70356e-06 3.35863e-05)
(1.42769e-05 -5.19637e-06 3.96858e-05)
(1.31642e-05 -4.79319e-06 4.58188e-05)
(1.15923e-05 -4.60541e-06 5.22653e-05)
(9.63452e-06 -4.69186e-06 5.835e-05)
(7.70969e-06 -5.45985e-06 6.88825e-05)
(1.10415e-05 -1.05768e-05 -3.37091e-06)
(1.18888e-05 -8.20163e-06 1.04576e-05)
(1.3076e-05 -7.2127e-06 1.9412e-05)
(1.40265e-05 -6.69418e-06 2.6206e-05)
(1.46199e-05 -6.45418e-06 3.20608e-05)
(1.42073e-05 -6.19892e-06 3.76333e-05)
(1.2842e-05 -5.87184e-06 4.27567e-05)
(1.11394e-05 -5.81235e-06 4.87294e-05)
(9.14145e-06 -6.06338e-06 5.41967e-05)
(7.23604e-06 -7.14013e-06 6.2512e-05)
(1.00529e-05 -9.7029e-06 -5.94679e-06)
(1.11513e-05 -7.77383e-06 8.35081e-06)
(1.25993e-05 -7.08558e-06 1.74723e-05)
(1.39872e-05 -6.94239e-06 2.49336e-05)
(1.52748e-05 -7.19568e-06 3.21e-05)
(1.49376e-05 -7.08243e-06 3.54114e-05)
(1.30784e-05 -6.6979e-06 4.03071e-05)
(1.11391e-05 -6.69527e-06 4.56393e-05)
(9.14221e-06 -7.11751e-06 5.05321e-05)
(7.33657e-06 -8.53314e-06 5.73333e-05)
(9.54366e-06 -8.68713e-06 -9.99235e-06)
(1.08141e-05 -7.15098e-06 5.26704e-06)
(1.23814e-05 -6.69851e-06 1.477e-05)
(1.38628e-05 -6.73305e-06 2.24491e-05)
(1.52088e-05 -7.14474e-06 3.06383e-05)
(1.49968e-05 -7.29022e-06 3.39514e-05)
(1.32109e-05 -7.07661e-06 3.7801e-05)
(1.13944e-05 -7.25213e-06 4.28874e-05)
(9.53669e-06 -7.88763e-06 4.74013e-05)
(7.91066e-06 -9.67361e-06 5.3251e-05)
(9.4949e-06 -7.43056e-06 -1.56423e-05)
(1.08546e-05 -6.2541e-06 1.08424e-06)
(1.2406e-05 -5.99492e-06 1.12306e-05)
(1.36414e-05 -6.08652e-06 1.88202e-05)
(1.44795e-05 -6.43606e-06 2.51713e-05)
(1.43511e-05 -6.72351e-06 3.07218e-05)
(1.32768e-05 -7.0066e-06 3.52892e-05)
(1.19197e-05 -7.55213e-06 4.03904e-05)
(1.0341e-05 -8.46441e-06 4.46858e-05)
(8.97552e-06 -1.06759e-05 5.01136e-05)
(9.98458e-06 -5.92025e-06 -2.34927e-05)
(1.13629e-05 -5.06033e-06 -4.76771e-06)
(1.28718e-05 -4.98561e-06 6.2349e-06)
(1.39738e-05 -5.20877e-06 1.42543e-05)
(1.45684e-05 -5.64357e-06 2.08889e-05)
(1.45367e-05 -6.18222e-06 2.69342e-05)
(1.39194e-05 -6.85137e-06 3.25169e-05)
(1.29198e-05 -7.73387e-06 3.77998e-05)
(1.16306e-05 -8.93647e-06 4.20625e-05)
(1.05934e-05 -1.15875e-05 4.7652e-05)
(1.12293e-05 -4.09505e-06 -3.47994e-05)
(1.24544e-05 -3.55986e-06 -1.34862e-05)
(1.38946e-05 -3.7037e-06 -1.41591e-06)
(1.49691e-05 -4.13315e-06 7.5884e-06)
(1.55689e-05 -4.80823e-06 1.51831e-05)
(1.56616e-05 -5.64795e-06 2.20206e-05)
(1.52965e-05 -6.67094e-06 2.83381e-05)
(1.45751e-05 -7.8888e-06 3.40793e-05)
(1.36286e-05 -9.45954e-06 3.87003e-05)
(1.32215e-05 -1.26619e-05 4.53744e-05)
(1.48633e-05 -2.30818e-06 -5.86411e-05)
(1.56059e-05 -1.89683e-06 -3.11498e-05)
(1.70038e-05 -2.39951e-06 -1.60681e-05)
(1.81241e-05 -3.14874e-06 -4.48457e-06)
(1.88383e-05 -4.16345e-06 5.38871e-06)
(1.91408e-05 -5.37302e-06 1.42789e-05)
(1.90854e-05 -6.80316e-06 2.25079e-05)
(1.87103e-05 -8.47059e-06 3.01473e-05)
(1.82216e-05 -1.07224e-05 3.69367e-05)
(1.87096e-05 -1.4732e-05 4.74755e-05)
(3.07696e-05 -2.16629e-05 -2.91809e-05)
(2.96629e-05 -1.56702e-05 -3.85478e-06)
(2.99098e-05 -1.20653e-05 1.38729e-05)
(3.0035e-05 -9.47851e-06 2.9529e-05)
(2.96021e-05 -7.25324e-06 4.47612e-05)
(2.85717e-05 -5.38562e-06 6.03842e-05)
(2.68803e-05 -3.84503e-06 7.69108e-05)
(2.45634e-05 -2.72574e-06 9.48391e-05)
(2.17393e-05 -2.01095e-06 0.00011464)
(1.97437e-05 -2.61492e-06 0.000153969)
(2.26781e-05 -1.91283e-05 -1.90989e-05)
(2.25796e-05 -1.39869e-05 2.81226e-06)
(2.34903e-05 -1.14199e-05 1.77405e-05)
(2.41185e-05 -9.56398e-06 3.02991e-05)
(2.41172e-05 -8.01803e-06 4.21953e-05)
(2.33596e-05 -6.76491e-06 5.41499e-05)
(2.181e-05 -5.78229e-06 6.65298e-05)
(1.95578e-05 -5.18019e-06 7.95786e-05)
(1.67047e-05 -4.98234e-06 9.31358e-05)
(1.40775e-05 -5.76008e-06 0.000119003)
(1.86806e-05 -1.77233e-05 -1.7734e-05)
(1.94916e-05 -1.33992e-05 3.3533e-06)
(2.09416e-05 -1.14504e-05 1.74757e-05)
(2.1983e-05 -1.01407e-05 2.88993e-05)
(2.23536e-05 -9.16772e-06 3.93916e-05)
(2.17639e-05 -8.3866e-06 4.99128e-05)
(2.0204e-05 -7.77109e-06 6.06393e-05)
(1.79124e-05 -7.48296e-06 7.21937e-05)
(1.49787e-05 -7.58934e-06 8.40147e-05)
(1.21353e-05 -8.82022e-06 0.000104273)
(1.6283e-05 -1.65588e-05 -2.00322e-05)
(1.76111e-05 -1.29195e-05 1.10372e-06)
(1.95039e-05 -1.14495e-05 1.50194e-05)
(2.10865e-05 -1.06785e-05 2.61612e-05)
(2.21522e-05 -1.03253e-05 3.59028e-05)
(2.16875e-05 -9.91295e-06 4.55911e-05)
(1.97543e-05 -9.40419e-06 5.48581e-05)
(1.72815e-05 -9.3006e-06 6.56428e-05)
(1.43193e-05 -9.65088e-06 7.63795e-05)
(1.15325e-05 -1.13224e-05 9.29643e-05)
(1.47009e-05 -1.52084e-05 -2.48345e-05)
(1.64272e-05 -1.22344e-05 -2.87715e-06)
(1.87363e-05 -1.12182e-05 1.13428e-05)
(2.10003e-05 -1.10339e-05 2.33855e-05)
(2.31553e-05 -1.14713e-05 3.47264e-05)
(2.28117e-05 -1.12831e-05 4.06402e-05)
(2.01174e-05 -1.06533e-05 5.02007e-05)
(1.7312e-05 -1.06213e-05 6.01162e-05)
(1.43734e-05 -1.12319e-05 6.98763e-05)
(1.17541e-05 -1.34072e-05 8.39203e-05)
(1.38452e-05 -1.36352e-05 -3.18864e-05)
(1.58355e-05 -1.12333e-05 -8.28533e-06)