/*--------------------------------*- C++ -*----------------------------------*\
| =========                 |                                                 |
| \\      /  F ield         | OpenFOAM: The Open Source CFD Toolbox           |
|  \\    /   O peration     | Version:  2406                                  |
|   \\  /    A nd           | Website:  www.openfoam.com                      |
|    \\/     M anipulation  |                                                 |
\*---------------------------------------------------------------------------*/
FoamFile
{
    version     2.0;
    format      ascii;
    arch        "LSB;label=32;scalar=64";
    class       volScalarField;
    location    "1.7";
    object      nu;
}
// * * * * * * * * * * * * * * * * * * * * * * * * * * * * * * * * * * * * * //

dimensions      [0 2 -1 0 0 0 0];

internalField   nonuniform List<scalar> 
25000
(
0.00649252
0.00656621
0.00659827
0.0066045
0.00660263
0.00660263
0.0066045
0.00659827
0.00656621
0.00649252
0.00656621
0.00659262
0.00658044
0.00656683
0.00655948
0.00655948
0.00656683
0.00658044
0.00659262
0.00656621
0.00659827
0.00658044
0.00655571
0.00654081
0.00653481
0.00653481
0.00654081
0.00655571
0.00658044
0.00659827
0.0066045
0.00656683
0.00654081
0.00652904
0.00652556
0.00652556
0.00652904
0.00654081
0.00656683
0.0066045
0.00660263
0.00655948
0.00653481
0.00652556
0.00652371
0.00652371
0.00652556
0.00653481
0.00655948
0.00660263
0.00660263
0.00655948
0.00653481
0.00652556
0.00652371
0.00652371
0.00652556
0.00653481
0.00655948
0.00660263
0.0066045
0.00656683
0.00654081
0.00652904
0.00652556
0.00652556
0.00652904
0.00654081
0.00656683
0.0066045
0.00659827
0.00658044
0.00655571
0.00654081
0.00653481
0.00653481
0.00654081
0.00655571
0.00658044
0.00659827
0.00656621
0.00659262
0.00658044
0.00656683
0.00655948
0.00655948
0.00656683
0.00658044
0.00659262
0.00656621
0.00649252
0.00656621
0.00659827
0.0066045
0.00660263
0.00660263
0.0066045
0.00659827
0.00656621
0.00649252
0.00616049
0.00633619
0.0065502
0.00671907
0.00680784
0.00680784
0.00671907
0.0065502
0.00633619
0.00616049
0.00633619
0.00671079
0.00697555
0.00708518
0.00711328
0.00711328
0.00708518
0.00697555
0.00671079
0.00633619
0.0065502
0.00697555
0.00713288
0.00711484
0.00708405
0.00708405
0.00711484
0.00713288
0.00697555
0.0065502
0.00671907
0.00708518
0.00711484
0.00704193
0.00699708
0.00699708
0.00704193
0.00711484
0.00708518
0.00671907
0.00680784
0.00711328
0.00708405
0.00699708
0.00695034
0.00695034
0.00699708
0.00708405
0.00711328
0.00680784
0.00680784
0.00711328
0.00708405
0.00699708
0.00695034
0.00695034
0.00699708
0.00708405
0.00711328
0.00680784
0.00671907
0.00708518
0.00711484
0.00704193
0.00699708
0.00699708
0.00704193
0.00711484
0.00708518
0.00671907
0.0065502
0.00697555
0.00713288
0.00711484
0.00708405
0.00708405
0.00711484
0.00713288
0.00697555
0.0065502
0.00633619
0.00671079
0.00697555
0.00708518
0.00711328
0.00711328
0.00708518
0.00697555
0.00671079
0.00633619
0.00616049
0.00633619
0.0065502
0.00671907
0.00680784
0.00680784
0.00671907
0.0065502
0.00633619
0.00616049
0.00583445
0.00590607
0.00604069
0.00616694
0.00624291
0.00624291
0.00616694
0.00604069
0.00590607
0.00583445
0.00590607
0.00614407
0.00638753
0.0065824
0.00669195
0.00669195
0.0065824
0.00638753
0.00614407
0.00590607
0.00604069
0.00638753
0.00673522
0.00699949
0.00713422
0.00713422
0.00699949
0.00673522
0.00638753
0.00604069
0.00616694
0.0065824
0.00699949
0.00729502
0.00742075
0.00742075
0.00729502
0.00699949
0.0065824
0.00616694
0.00624291
0.00669195
0.00713422
0.00742075
0.00752182
0.00752182
0.00742075
0.00713422
0.00669195
0.00624291
0.00624291
0.00669195
0.00713422
0.00742075
0.00752182
0.00752182
0.00742075
0.00713422
0.00669195
0.00624291
0.00616694
0.0065824
0.00699949
0.00729502
0.00742075
0.00742075
0.00729502
0.00699949
0.0065824
0.00616694
0.00604069
0.00638753
0.00673522
0.00699949
0.00713422
0.00713422
0.00699949
0.00673522
0.00638753
0.00604069
0.00590607
0.00614407
0.00638753
0.0065824
0.00669195
0.00669195
0.0065824
0.00638753
0.00614407
0.00590607
0.00583445
0.00590607
0.00604069
0.00616694
0.00624291
0.00624291
0.00616694
0.00604069
0.00590607
0.00583445
0.00580626
0.00584229
0.00594493
0.00604708
0.00611054
0.00611054
0.00604708
0.00594493
0.00584229
0.00580627
0.00584229
0.00602296
0.00621809
0.00638579
0.00648731
0.00648731
0.00638579
0.00621809
0.00602296
0.00584229
0.00594493
0.00621809
0.00651391
0.00678205
0.00695491
0.00695491
0.00678205
0.00651391
0.00621809
0.00594493
0.00604708
0.00638579
0.00678205
0.00719901
0.00752513
0.00752513
0.00719901
0.00678205
0.00638579
0.00604708
0.00611054
0.00648731
0.00695491
0.00752512
0.00811339
0.00811339
0.00752513
0.00695491
0.00648731
0.00611054
0.00611054
0.00648731
0.00695491
0.00752512
0.00811339
0.00811339
0.00752513
0.00695491
0.00648731
0.00611054
0.00604708
0.00638579
0.00678205
0.00719901
0.00752512
0.00752513
0.00719901
0.00678205
0.00638579
0.00604708
0.00594492
0.00621809
0.00651391
0.00678205
0.00695491
0.00695491
0.00678205
0.00651391
0.00621809
0.00594493
0.00584229
0.00602296
0.00621809
0.00638579
0.00648731
0.00648731
0.00638579
0.00621809
0.00602296
0.00584229
0.00580626
0.00584229
0.00594492
0.00604708
0.00611054
0.00611054
0.00604708
0.00594493
0.00584229
0.00580626
0.00577345
0.00579397
0.005882
0.00597269
0.00602996
0.00602996
0.00597269
0.005882
0.00579398
0.00577345
0.00579397
0.00594859
0.00611954
0.00627015
0.00636374
0.00636374
0.00627015
0.00611955
0.00594859
0.00579398
0.005882
0.00611954
0.00638184
0.00663064
0.00680115
0.00680115
0.00663065
0.00638184
0.00611955
0.005882
0.00597269
0.00627015
0.00663064
0.00704468
0.0074216
0.0074216
0.00704468
0.00663065
0.00627015
0.00597269
0.00602996
0.00636374
0.00680115
0.0074216
0.00837491
0.00837492
0.00742161
0.00680116
0.00636374
0.00602996
0.00602996
0.00636374
0.00680115
0.0074216
0.00837491
0.00837492
0.0074216
0.00680115
0.00636374
0.00602996
0.00597269
0.00627015
0.00663064
0.00704468
0.0074216
0.0074216
0.00704468
0.00663065
0.00627015
0.00597269
0.00588199
0.00611954
0.00638184
0.00663064
0.00680115
0.00680115
0.00663065
0.00638184
0.00611955
0.005882
0.00579397
0.00594859
0.00611954
0.00627015
0.00636374
0.00636374
0.00627015
0.00611955
0.00594859
0.00579398
0.00577345
0.00579397
0.00588199
0.00597269
0.00602996
0.00602996
0.00597269
0.005882
0.00579398
0.00577345
0.00577371
0.0057897
0.00587281
0.00595939
0.00601439
0.00601439
0.00595939
0.00587281
0.0057897
0.00577371
0.0057897
0.0059354
0.00609675
0.00623991
0.00632977
0.00632977
0.00623991
0.00609675
0.00593541
0.0057897
0.00587281
0.00609675
0.00634416
0.00658206
0.00674836
0.00674836
0.00658206
0.00634416
0.00609675
0.00587281
0.00595939
0.00623991
0.00658205
0.00698435
0.00736443
0.00736444
0.00698436
0.00658206
0.00623992
0.00595939
0.00601439
0.00632976
0.00674835
0.00736443
0.00839755
0.00839757
0.00736444
0.00674836
0.00632977
0.00601439
0.00601439
0.00632976
0.00674835
0.00736442
0.00839754
0.00839756
0.00736444
0.00674836
0.00632977
0.00601439
0.00595939
0.00623991
0.00658205
0.00698435
0.00736443
0.00736443
0.00698436
0.00658206
0.00623991
0.00595939
0.00587281
0.00609675
0.00634415
0.00658205
0.00674835
0.00674835
0.00658206
0.00634416
0.00609675
0.00587281
0.0057897
0.0059354
0.00609675
0.00623991
0.00632976
0.00632977
0.00623991
0.00609675
0.00593541
0.0057897
0.00577371
0.0057897
0.00587281
0.00595939
0.00601439
0.00601439
0.00595939
0.00587281
0.0057897
0.00577371
0.00576592
0.00577921
0.0058599
0.00594456
0.0059985
0.0059985
0.00594456
0.0058599
0.00577921
0.00576592
0.00577921
0.00592064
0.00607791
0.00621783
0.00630594
0.00630594
0.00621784
0.00607792
0.00592065
0.00577921
0.0058599
0.00607791
0.00631904
0.00655182
0.00671554
0.00671554
0.00655183
0.00631905
0.00607792
0.0058599
0.00594455
0.00621783
0.00655182
0.0069472
0.00732472
0.00732472
0.00694721
0.00655183
0.00621784
0.00594456
0.00599849
0.00630594
0.00671553
0.0073247
0.00836991
0.00836995
0.00732473
0.00671554
0.00630595
0.0059985
0.00599849
0.00630594
0.00671553
0.0073247
0.00836989
0.00836993
0.00732472
0.00671554
0.00630595
0.0059985
0.00594455
0.00621783
0.00655181
0.00694719
0.0073247
0.00732471
0.0069472
0.00655182
0.00621784
0.00594456
0.0058599
0.00607791
0.00631903
0.00655181
0.00671553
0.00671553
0.00655182
0.00631904
0.00607791
0.0058599
0.00577921
0.00592064
0.00607791
0.00621783
0.00630594
0.00630594
0.00621783
0.00607791
0.00592064
0.00577921
0.00576592
0.00577921
0.0058599
0.00594455
0.00599849
0.00599849
0.00594456
0.0058599
0.00577921
0.00576592
0.00576613
0.00577851
0.00585827
0.00594216
0.00599567
0.00599568
0.00594217
0.00585828
0.00577852
0.00576614
0.00577851
0.00591825
0.00607376
0.00621228
0.00629964
0.00629964
0.00621229
0.00607377
0.00591826
0.00577852
0.00585827
0.00607376
0.00631211
0.0065426
0.00670512
0.00670512
0.00654262
0.00631212
0.00607377
0.00585828
0.00594216
0.00621228
0.0065426
0.00693471
0.00731052
0.00731053
0.00693473
0.00654262
0.00621229
0.00594217
0.00599567
0.00629963
0.0067051
0.0073105
0.00835563
0.00835571
0.00731054
0.00670513
0.00629965
0.00599568
0.00599567
0.00629963
0.0067051
0.00731049
0.0083556
0.00835567
0.00731053
0.00670513
0.00629964
0.00599568
0.00594215
0.00621227
0.00654259
0.0069347
0.0073105
0.00731051
0.00693472
0.00654261
0.00621229
0.00594216
0.00585826
0.00607376
0.0063121
0.0065426
0.00670511
0.00670511
0.00654261
0.00631212
0.00607377
0.00585827
0.0057785
0.00591825
0.00607376
0.00621227
0.00629963
0.00629963
0.00621228
0.00607377
0.00591826
0.00577851
0.00576612
0.0057785
0.00585826
0.00594215
0.00599567
0.00599567
0.00594216
0.00585827
0.00577851
0.00576613
0.00576412
0.00577585
0.00585506
0.00593852
0.0059918
0.0059918
0.00593853
0.00585507
0.00577587
0.00576414
0.00577585
0.00591462
0.00606926
0.00620711
0.0062941
0.00629411
0.00620713
0.00606928
0.00591464
0.00577587
0.00585505
0.00606926
0.00630633
0.00653576
0.00669767
0.00669768
0.00653578
0.00630635
0.00606928
0.00585507
0.00593851
0.00620711
0.00653575
0.00692627
0.00730104
0.00730107
0.00692631
0.00653578
0.00620713
0.00593853
0.00599179
0.00629409
0.00669765
0.00730101
0.00834475
0.00834487
0.00730108
0.00669768
0.00629411
0.00599181
0.00599179
0.00629408
0.00669764
0.007301
0.0083447
0.00834481
0.00730106
0.00669768
0.00629411
0.00599181
0.00593851
0.0062071
0.00653574
0.00692625
0.00730101
0.00730103
0.00692629
0.00653577
0.00620712
0.00593853
0.00585505
0.00606925
0.00630632
0.00653574
0.00669765
0.00669766
0.00653576
0.00630634
0.00606927
0.00585506
0.00577584
0.00591461
0.00606925
0.0062071
0.00629409
0.0062941
0.00620712
0.00606927
0.00591463
0.00577586
0.00576412
0.00577584
0.00585505
0.00593851
0.00599179
0.0059918
0.00593852
0.00585506
0.00577586
0.00576413
0.0057642
0.0057757
0.00585468
0.00593796
0.00599114
0.00599114
0.00593797
0.0058547
0.00577573
0.00576422
0.0057757
0.00591406
0.00606828
0.0062058
0.00629262
0.00629263
0.00620582
0.00606831
0.00591408
0.00577573
0.00585468
0.00606828
0.0063047
0.00653361
0.00669524
0.00669526
0.00653364
0.00630473
0.00606831
0.0058547
0.00593795
0.00620579
0.00653359
0.00692336
0.00729767
0.00729771
0.00692342
0.00653364
0.00620583
0.00593797
0.00599112
0.0062926
0.00669521
0.00729763
0.00834062
0.0083408
0.00729773
0.00669527
0.00629264
0.00599115
0.00599112
0.00629259
0.0066952
0.00729761
0.00834054
0.00834071
0.00729771
0.00669526
0.00629263
0.00599114
0.00593794
0.00620578
0.00653358
0.00692333
0.00729763
0.00729766
0.00692339
0.00653363
0.00620582
0.00593797
0.00585467
0.00606826
0.00630468
0.00653358
0.00669521
0.00669523
0.00653361
0.00630471
0.00606829
0.00585469
0.00577569
0.00591404
0.00606827
0.00620579
0.0062926
0.00629261
0.00620581
0.00606829
0.00591407
0.00577571
0.00576419
0.00577569
0.00585467
0.00593794
0.00599112
0.00599113
0.00593796
0.00585469
0.00577571
0.00576421
0.00576369
0.00577502
0.00585385
0.00593703
0.00599015
0.00599016
0.00593705
0.00585389
0.00577505
0.00576372
0.00577502
0.00591313
0.00606713
0.00620449
0.00629122
0.00629123
0.00620452
0.00606717
0.00591316
0.00577505
0.00585385
0.00606713
0.00630322
0.00653187
0.00669336
0.00669339
0.00653192
0.00630327
0.00606717
0.00585389
0.00593701
0.00620447
0.00653186
0.00692123
0.00729528
0.00729534
0.00692131
0.00653192
0.00620452
0.00593705
0.00599013
0.00629118
0.00669332
0.00729522
0.00833768
0.00833794
0.00729536
0.0066934
0.00629124
0.00599016
0.00599012
0.00629118
0.00669331
0.00729519
0.00833755
0.00833781
0.00729533
0.00669339
0.00629123
0.00599016
0.005937
0.00620446
0.00653183
0.00692119
0.00729521
0.00729527
0.00692127
0.0065319
0.00620451
0.00593704
0.00585384
0.00606711
0.0063032
0.00653184
0.00669332
0.00669334
0.00653188
0.00630325
0.00606715
0.00585387
0.00577501
0.00591311
0.00606711
0.00620446
0.00629119
0.0062912
0.00620449
0.00606715
0.00591314
0.00577504
0.00576368
0.00577501
0.00585384
0.00593701
0.00599013
0.00599014
0.00593703
0.00585387
0.00577504
0.0057637
0.00576371
0.00577499
0.00585376
0.00593688
0.00598998
0.00599
0.00593692
0.0058538
0.00577503
0.00576375
0.00577499
0.00591298
0.00606688
0.00620415
0.00629084
0.00629086
0.00620419
0.00606693
0.00591303
0.00577503
0.00585376
0.00606687
0.0063028
0.00653132
0.00669275
0.00669277
0.00653138
0.00630287
0.00606693
0.0058538
0.00593687
0.00620413
0.0065313
0.00692048
0.00729442
0.0072945
0.00692059
0.00653139
0.0062042
0.00593692
0.00598995
0.00629079
0.00669268
0.00729433
0.00833656
0.00833691
0.00729453
0.0066928
0.00629087
0.00599
0.00598995
0.00629079
0.00669266
0.00729429
0.00833638
0.00833673
0.00729449
0.00669278
0.00629086
0.00599
0.00593686
0.00620411
0.00653127
0.00692042
0.00729432
0.00729439
0.00692053
0.00653136
0.00620418
0.0059369
0.00585374
0.00606685
0.00630277
0.00653127
0.00669269
0.00669271
0.00653133
0.00630283
0.0060669
0.00585378
0.00577497
0.00591296
0.00606685
0.00620412
0.0062908
0.00629082
0.00620416
0.0060669
0.00591301
0.005775
0.0057637
0.00577497
0.00585374
0.00593686
0.00598996
0.00598997
0.00593689
0.00585378
0.005775
0.00576373
0.00576358
0.00577481
0.00585355
0.00593664
0.00598973
0.00598974
0.00593668
0.0058536
0.00577486
0.00576362
0.00577481
0.00591274
0.00606658
0.00620381
0.00629048
0.0062905
0.00620386
0.00606664
0.0059128
0.00577486
0.00585354
0.00606657
0.00630241
0.00653086
0.00669226
0.0066923
0.00653095
0.0063025
0.00606665
0.0058536
0.00593662
0.00620378
0.00653084
0.00691991
0.0072938
0.0072939
0.00692006
0.00653096
0.00620387
0.00593669
0.00598969
0.00629042
0.00669217
0.00729367
0.00833575
0.00833623
0.00729394
0.00669233
0.00629052
0.00598975
0.00598969
0.00629041
0.00669215
0.00729363
0.00833551
0.00833598
0.00729388
0.0066923
0.0062905
0.00598975
0.00593661
0.00620376
0.0065308
0.00691984
0.00729366
0.00729376
0.00691998
0.00653091
0.00620384
0.00593666
0.00585352
0.00606654
0.00630237
0.00653081
0.00669218
0.00669222
0.00653088
0.00630245
0.00606661
0.00585357
0.00577479
0.00591271
0.00606654
0.00620377
0.00629043
0.00629045
0.00620381
0.0060666
0.00591277
0.00577483
0.00576356
0.00577479
0.00585352
0.00593661
0.0059897
0.00598971
0.00593665
0.00585356
0.00577483
0.00576359
0.00576358
0.0057748
0.00585352
0.00593661
0.00598969
0.0059897
0.00593665
0.00585358
0.00577486
0.00576363
0.0057748
0.0059127
0.00606651
0.00620372
0.00629038
0.00629041
0.00620379
0.00606659
0.00591277
0.00577485
0.00585351
0.0060665
0.0063023
0.00653072
0.0066921
0.00669215
0.00653082
0.00630241
0.00606659
0.00585358
0.00593659
0.00620369
0.00653068
0.00691971
0.00729357
0.0072937
0.00691989
0.00653083
0.0062038
0.00593666
0.00598964
0.00629031
0.00669199
0.00729342
0.00833543
0.00833602
0.00729375
0.00669218
0.00629043
0.00598972
0.00598964
0.0062903
0.00669197
0.00729336
0.00833513
0.00833571
0.00729368
0.00669215
0.00629041
0.00598971
0.00593657
0.00620366
0.00653064
0.00691962
0.00729341
0.00729352
0.00691979
0.00653077
0.00620376
0.00593663
0.00585349
0.00606647
0.00630225
0.00653065
0.00669201
0.00669205
0.00653074
0.00630235
0.00606655
0.00585354
0.00577478
0.00591267
0.00606647
0.00620367
0.00629032
0.00629034
0.00620373
0.00606654
0.00591273
0.00577482
0.00576357
0.00577478
0.00585349
0.00593657
0.00598965
0.00598966
0.00593661
0.00585354
0.00577482
0.0057636
0.00576355
0.00577475
0.00585346
0.00593654
0.00598962
0.00598964
0.00593659
0.00585352
0.00577481
0.00576359
0.00577475
0.00591263
0.00606643
0.00620363
0.00629029
0.00629032
0.0062037
0.00606652
0.00591271
0.00577481
0.00585346
0.00606642
0.0063022
0.0065306
0.00669198
0.00669203
0.00653072
0.00630232
0.00606652
0.00585353
0.00593652
0.00620359
0.00653056
0.00691956
0.00729341
0.00729356
0.00691977
0.00653073
0.00620371
0.0059366
0.00598957
0.00629021
0.00669185
0.00729323
0.0083352
0.0083359
0.00729361
0.00669207
0.00629034
0.00598965
0.00598957
0.0062902
0.00669183
0.00729316
0.00833485
0.00833552
0.00729353
0.00669204
0.00629032
0.00598964
0.0059365
0.00620357
0.00653051
0.00691946
0.00729322
0.00729335
0.00691965
0.00653066
0.00620367
0.00593657
0.00585344
0.00606639
0.00630215
0.00653052
0.00669187
0.00669191
0.00653062
0.00630225
0.00606647
0.00585349
0.00577473
0.00591261
0.00606639
0.00620358
0.00629022
0.00629024
0.00620363
0.00606646
0.00591267
0.00577477
0.00576354
0.00577473
0.00585344
0.00593651
0.00598958
0.0059896
0.00593655
0.00585348
0.00577477
0.00576356
0.00576355
0.00577474
0.00585345
0.00593653
0.00598961
0.00598963
0.00593658
0.00585352
0.0057748
0.00576359
0.00577475
0.00591262
0.00606641
0.00620361
0.00629026
0.00629029
0.00620368
0.0060665
0.0059127
0.0057748
0.00585345
0.0060664
0.00630217
0.00653056
0.00669194
0.006692
0.00653068
0.00630229
0.0060665
0.00585352
0.00593651
0.00620357
0.00653051
0.0069195
0.00729336
0.00729352
0.00691973
0.0065307
0.00620369
0.00593658
0.00598956
0.00629018
0.0066918
0.00729316
0.00833511
0.00833588
0.00729358
0.00669203
0.00629032
0.00598964
0.00598956
0.00629017
0.00669178
0.00729308
0.00833472
0.00833546
0.00729349
0.006692
0.0062903
0.00598963
0.0059365
0.00620354
0.00653046
0.00691939
0.00729314
0.00729329
0.0069196
0.00653062
0.00620365
0.00593655
0.00585344
0.00606637
0.00630212
0.00653048
0.00669182
0.00669187
0.00653058
0.00630222
0.00606645
0.00585348
0.00577474
0.0059126
0.00606638
0.00620356
0.00629019
0.00629022
0.00620361
0.00606644
0.00591266
0.00577477
0.00576354
0.00577474
0.00585344
0.0059365
0.00598957
0.00598958
0.00593654
0.00585348
0.00577477
0.00576356
0.00576354
0.00577473
0.00585344
0.00593651
0.00598959
0.00598961
0.00593656
0.00585349
0.00577478
0.00576357
0.00577474
0.00591261
0.00606639
0.00620358
0.00629024
0.00629026
0.00620365
0.00606647
0.00591268
0.00577478
0.00585344
0.00606638
0.00630214
0.00653053
0.0066919
0.00669196
0.00653065
0.00630226
0.00606647
0.00585349
0.0059365
0.00620355
0.00653048
0.00691946
0.00729331
0.00729348
0.0069197
0.00653066
0.00620366
0.00593656
0.00598955
0.00629016
0.00669177
0.00729311
0.00833504
0.00833585
0.00729354
0.006692
0.00629029
0.00598962
0.00598955
0.00629015
0.00669175
0.00729304
0.00833465
0.00833541
0.00729345
0.00669197
0.00629027
0.00598961
0.00593649
0.00620353
0.00653044
0.00691936
0.0072931
0.00729324
0.00691956
0.00653059
0.00620362
0.00593653
0.00585343
0.00606636
0.0063021
0.00653045
0.00669179
0.00669183
0.00653055
0.00630219
0.00606643
0.00585346
0.00577473
0.0059126
0.00606636
0.00620354
0.00629017
0.00629019
0.00620359
0.00606642
0.00591264
0.00577475
0.00576354
0.00577473
0.00585343
0.00593649
0.00598956
0.00598957
0.00593652
0.00585346
0.00577476
0.00576355
0.00576355
0.00577474
0.00585344
0.00593651
0.00598958
0.0059896
0.00593655
0.00585348
0.00577477
0.00576356
0.00577474
0.00591261
0.00606639
0.00620357
0.00629022
0.00629025
0.00620364
0.00606646
0.00591266
0.00577477
0.00585344
0.00606638
0.00630213
0.00653052
0.00669189
0.00669194
0.00653063
0.00630224
0.00606646
0.00585348
0.0059365
0.00620355
0.00653048
0.00691945
0.00729329
0.00729345
0.00691967
0.00653064
0.00620365
0.00593655
0.00598955
0.00629016
0.00669176
0.0072931
0.00833503
0.0083358
0.00729351
0.00669198
0.00629027
0.00598961
0.00598955
0.00629015
0.00669175
0.00729303
0.00833466
0.00833539
0.00729342
0.00669195
0.00629026
0.0059896
0.0059365
0.00620353
0.00653044
0.00691936
0.0072931
0.00729323
0.00691955
0.00653058
0.00620361
0.00593653
0.00585344
0.00606637
0.0063021
0.00653045
0.00669179
0.00669183
0.00653054
0.00630218
0.00606642
0.00585345
0.00577475
0.00591261
0.00606637
0.00620354
0.00629017
0.00629019
0.00620358
0.00606641
0.00591263
0.00577475
0.00576356
0.00577474
0.00585344
0.0059365
0.00598956
0.00598957
0.00593652
0.00585346
0.00577475
0.00576355
0.00576355
0.00577474
0.00585344
0.00593651
0.00598957
0.00598958
0.00593653
0.00585347
0.00577476
0.00576355
0.00577474
0.00591261
0.00606639
0.00620357
0.00629021
0.00629023
0.00620362
0.00606643
0.00591264
0.00577475
0.00585344
0.00606638
0.00630213
0.00653051
0.00669187
0.00669192
0.0065306
0.00630222
0.00606644
0.00585346
0.0059365
0.00620355
0.00653048
0.00691944
0.00729327
0.00729341
0.00691963
0.00653061
0.00620362
0.00593653
0.00598956
0.00629016
0.00669177
0.00729311
0.00833503
0.00833571
0.00729346
0.00669195
0.00629025
0.00598959
0.00598956
0.00629016
0.00669176
0.00729306
0.00833472
0.00833536
0.00729339
0.00669192
0.00629024
0.00598958
0.0059365
0.00620354
0.00653045
0.00691937
0.00729311
0.00729323
0.00691953
0.00653056
0.00620359
0.00593652
0.00585345
0.00606638
0.00630212
0.00653046
0.00669179
0.00669183
0.00653053
0.00630217
0.00606641
0.00585345
0.00577475
0.00591261
0.00606638
0.00620355
0.00629018
0.00629019
0.00620358
0.0060664
0.00591262
0.00577474
0.00576356
0.00577475
0.00585345
0.0059365
0.00598956
0.00598957
0.00593651
0.00585345
0.00577475
0.00576355
0.00576355
0.00577474
0.00585344
0.0059365
0.00598957
0.00598957
0.00593652
0.00585345
0.00577474
0.00576354
0.00577475
0.00591261
0.00606639
0.00620357
0.0062902
0.00629022
0.0062036
0.00606642
0.00591263
0.00577474
0.00585345
0.00606639
0.00630214
0.00653051
0.00669186
0.00669189
0.00653057
0.00630219
0.00606642
0.00585345
0.00593651
0.00620356
0.00653049
0.00691945
0.00729326
0.00729337
0.00691959
0.00653058
0.0062036
0.00593652
0.00598957
0.00629018
0.00669179
0.00729314
0.00833505
0.00833559
0.00729341
0.00669192
0.00629023
0.00598958
0.00598957
0.00629017
0.00669178
0.0072931
0.00833482
0.00833533
0.00729336
0.0066919
0.00629022
0.00598958
0.00593651
0.00620356
0.00653048
0.00691941
0.00729315
0.00729323
0.00691952
0.00653055
0.00620359
0.00593651
0.00585346
0.00606639
0.00630213
0.00653048
0.00669181
0.00669183
0.00653053
0.00630216
0.0060664
0.00585345
0.00577476
0.00591263
0.00606639
0.00620356
0.00629019
0.00629019
0.00620358
0.0060664
0.00591262
0.00577474
0.00576357
0.00577476
0.00585346
0.00593651
0.00598957
0.00598957
0.00593652
0.00585345
0.00577475
0.00576355
0.00576355
0.00577474
0.00585344
0.0059365
0.00598956
0.00598957
0.00593651
0.00585344
0.00577473
0.00576353
0.00577475
0.00591262
0.00606639
0.00620356
0.0062902
0.0062902
0.00620358
0.0060664
0.00591261
0.00577473
0.00585345
0.00606639
0.00630214
0.00653051
0.00669184
0.00669187
0.00653054
0.00630217
0.0060664
0.00585344
0.00593651
0.00620356
0.0065305
0.00691946
0.00729324
0.00729331
0.00691955
0.00653055
0.00620358
0.00593651
0.00598957
0.00629019
0.00669181
0.00729317
0.00833508
0.00833544
0.00729335
0.00669188
0.00629021
0.00598957
0.00598957
0.00629019
0.00669181
0.00729316
0.00833496
0.0083353
0.00729332
0.00669188
0.00629021
0.00598957
0.00593652
0.00620357
0.0065305
0.00691944
0.00729319
0.00729325
0.00691951
0.00653054
0.00620358
0.00593651
0.00585346
0.00606641
0.00630215
0.00653051
0.00669183
0.00669184
0.00653053
0.00630216
0.0060664
0.00585345
0.00577476
0.00591263
0.00606641
0.00620358
0.0062902
0.0062902
0.00620358
0.0060664
0.00591262
0.00577474
0.00576357
0.00577476
0.00585346
0.00593652
0.00598958
0.00598958
0.00593652
0.00585345
0.00577475
0.00576355
0.00576355
0.00577475
0.00585344
0.0059365
0.00598956
0.00598956
0.0059365
0.00585343
0.00577473
0.00576353
0.00577475
0.00591262
0.00606639
0.00620356
0.00629019
0.00629019
0.00620356
0.00606638
0.0059126
0.00577473
0.00585345
0.0060664
0.00630215
0.00653051
0.00669183
0.00669184
0.00653052
0.00630214
0.00606638
0.00585343
0.00593652
0.00620357
0.00653051
0.00691947
0.00729323
0.00729326
0.0069195
0.00653052
0.00620356
0.0059365
0.00598958
0.0062902
0.00669183
0.00729321
0.00833511
0.00833528
0.00729328
0.00669185
0.00629019
0.00598956
0.00598958
0.0062902
0.00669184
0.00729321
0.00833511
0.00833527
0.00729328
0.00669186
0.0062902
0.00598956
0.00593653
0.00620359
0.00653052
0.00691948
0.00729324
0.00729326
0.00691951
0.00653053
0.00620357
0.00593651
0.00585347
0.00606642
0.00630217
0.00653053
0.00669185
0.00669185
0.00653053
0.00630216
0.0060664
0.00585345
0.00577477
0.00591264
0.00606642
0.00620359
0.00629021
0.00629021
0.00620358
0.0060664
0.00591262
0.00577475
0.00576357
0.00577477
0.00585347
0.00593653
0.00598958
0.00598958
0.00593652
0.00585345
0.00577475
0.00576355
0.00576355
0.00577475
0.00585345
0.0059365
0.00598956
0.00598955
0.00593649
0.00585342
0.00577472
0.00576353
0.00577475
0.00591262
0.00606639
0.00620356
0.00629018
0.00629017
0.00620355
0.00606637
0.00591259
0.00577472
0.00585345
0.0060664
0.00630215
0.00653051
0.00669182
0.00669181
0.00653049
0.00630212
0.00606637
0.00585342
0.00593652
0.00620358
0.00653052
0.00691947
0.00729321
0.00729321
0.00691946
0.00653049
0.00620355
0.00593649
0.00598958
0.00629021
0.00669185
0.00729324
0.00833513
0.00833513
0.00729323
0.00669183
0.00629018
0.00598955
0.00598959
0.00629022
0.00669186
0.00729327
0.00833525
0.00833525
0.00729325
0.00669184
0.00629019
0.00598956
0.00593653
0.0062036
0.00653055
0.00691952
0.00729329
0.00729328
0.0069195
0.00653052
0.00620357
0.00593651
0.00585347
0.00606642
0.00630218
0.00653055
0.00669187
0.00669187
0.00653053
0.00630216
0.0060664
0.00585345
0.00577477
0.00591265
0.00606642
0.0062036
0.00629022
0.00629022
0.00620359
0.00606641
0.00591263
0.00577475
0.00576357
0.00577477
0.00585347
0.00593653
0.00598959
0.00598958
0.00593652
0.00585346
0.00577475
0.00576355
0.00576355
0.00577475
0.00585345
0.0059365
0.00598955
0.00598955
0.00593648
0.00585342
0.00577472
0.00576352
0.00577475
0.00591262
0.00606639
0.00620356
0.00629017
0.00629016
0.00620353
0.00606636
0.00591258
0.00577472
0.00585345
0.0060664
0.00630215
0.00653051
0.00669181
0.00669179
0.00653047
0.00630211
0.00606636
0.00585342
0.00593652
0.00620358
0.00653052
0.00691948
0.0072932
0.00729316
0.00691942
0.00653047
0.00620354
0.00593648
0.00598958
0.00629022
0.00669187
0.00729327
0.00833515
0.00833499
0.00729317
0.0066918
0.00629017
0.00598955
0.00598959
0.00629023
0.00669188
0.00729332
0.00833539
0.00833523
0.00729323
0.00669182
0.00629018
0.00598956
0.00593654
0.00620361
0.00653057
0.00691955
0.00729333
0.0072933
0.0069195
0.00653052
0.00620357
0.00593651
0.00585348
0.00606643
0.0063022
0.00653057
0.00669189
0.00669188
0.00653054
0.00630216
0.0060664
0.00585345
0.00577477
0.00591265
0.00606643
0.00620361
0.00629023
0.00629022
0.00620359
0.00606641
0.00591263
0.00577475
0.00576357
0.00577477
0.00585348
0.00593654
0.00598959
0.00598959
0.00593652
0.00585345
0.00577475
0.00576355
0.00576355
0.00577475
0.00585345
0.00593651
0.00598955
0.00598954
0.00593648
0.00585341
0.00577471
0.00576352
0.00577475
0.00591262
0.0060664
0.00620356
0.00629017
0.00629015
0.00620352
0.00606635
0.00591258
0.00577471
0.00585345
0.0060664
0.00630216
0.00653051
0.0066918
0.00669177
0.00653045
0.00630209
0.00606635
0.00585341
0.00593652
0.00620359
0.00653053
0.00691948
0.00729318
0.00729312
0.00691938
0.00653045
0.00620352
0.00593648
0.00598959
0.00629022
0.00669188
0.00729329
0.00833517
0.00833487
0.00729313
0.00669178
0.00629016
0.00598954
0.0059896
0.00629024
0.0066919
0.00729336
0.00833551
0.00833522
0.0072932
0.00669181
0.00629017
0.00598955
0.00593654
0.00620362
0.00653058
0.00691958
0.00729337
0.00729331
0.0069195
0.00653051
0.00620356
0.00593651
0.00585348
0.00606644
0.00630221
0.00653059
0.00669191
0.00669189
0.00653054
0.00630216
0.0060664
0.00585345
0.00577478
0.00591266
0.00606644
0.00620362
0.00629024
0.00629023
0.00620359
0.0060664
0.00591262
0.00577475
0.00576357
0.00577478
0.00585348
0.00593654
0.0059896
0.00598959
0.00593652
0.00585345
0.00577475
0.00576355
0.00576356
0.00577475
0.00585345
0.00593651
0.00598955
0.00598954
0.00593647
0.00585341
0.00577471
0.00576352
0.00577475
0.00591263
0.0060664
0.00620356
0.00629017
0.00629015
0.00620351
0.00606634
0.00591257
0.00577471
0.00585346
0.00606641
0.00630216
0.00653051
0.00669179
0.00669176
0.00653043
0.00630208
0.00606634
0.00585341
0.00593652
0.00620359
0.00653054
0.00691949
0.00729317
0.00729308
0.00691936
0.00653043
0.00620351
0.00593647
0.00598959
0.00629023
0.0066919
0.00729332
0.00833519
0.00833477
0.00729309
0.00669176
0.00629015
0.00598954
0.0059896
0.00629025
0.00669193
0.0072934
0.00833561
0.0083352
0.00729318
0.00669179
0.00629016
0.00598955
0.00593655
0.00620363
0.0065306
0.00691961
0.0072934
0.00729332
0.00691949
0.0065305
0.00620356
0.0059365
0.00585349
0.00606645
0.00630222
0.0065306
0.00669192
0.00669189
0.00653054
0.00630215
0.00606639
0.00585345
0.00577478
0.00591267
0.00606645
0.00620363
0.00629025
0.00629023
0.00620359
0.0060664
0.00591262
0.00577475
0.00576358
0.00577478
0.00585349
0.00593655
0.0059896
0.00598959
0.00593652
0.00585345
0.00577474
0.00576355
0.00576356
0.00577476
0.00585345
0.00593651
0.00598955
0.00598954
0.00593647
0.00585341
0.00577471
0.00576352
0.00577475
0.00591263
0.0060664
0.00620356
0.00629016
0.00629014
0.00620351
0.00606633
0.00591257
0.00577471
0.00585346
0.00606641
0.00630216
0.00653051
0.00669179
0.00669175
0.00653042
0.00630207
0.00606633
0.0058534
0.00593653
0.0062036
0.00653055
0.0069195
0.00729316
0.00729305
0.00691933
0.00653042
0.0062035
0.00593647
0.0059896
0.00629024
0.00669191
0.00729334
0.00833521
0.00833468
0.00729305
0.00669174
0.00629014
0.00598953
0.00598961
0.00629026
0.00669194
0.00729344
0.0083357
0.00833518
0.00729315
0.00669178
0.00629016
0.00598954
0.00593655
0.00620364
0.00653062
0.00691964
0.00729343
0.00729333
0.00691948
0.0065305
0.00620355
0.0059365
0.00585349