/*--------------------------------*- C++ -*----------------------------------*\
| =========                 |                                                 |
| \\      /  F ield         | OpenFOAM: The Open Source CFD Toolbox           |
|  \\    /   O peration     | Version:  2406                                  |
|   \\  /    A nd           | Website:  www.openfoam.com                      |
|    \\/     M anipulation  |                                                 |
\*---------------------------------------------------------------------------*/
FoamFile
{
    version     2.0;
    format      ascii;
    arch        "LSB;label=32;scalar=64";
    class       volScalarField;
    location    "1.7";
    object      nut;
}
// * * * * * * * * * * * * * * * * * * * * * * * * * * * * * * * * * * * * * //

dimensions      [0 2 -1 0 0 0 0];

internalField   uniform 0;

boundaryField
{
    walls
    {
        type            nutUSpaldingWallFunction;
        value           nonuniform List<scalar> 
2000
(
3.17327e-09
4.55003e-09
5.99778e-09
7.1845e-09
7.85304e-09
7.85304e-09
7.1845e-09
5.99778e-09
4.55003e-09
3.17327e-09
1.87209e-09
2.63221e-09
3.46484e-09
4.1654e-09
4.56594e-09
4.56594e-09
4.1654e-09
3.46484e-09
2.63221e-09
1.87209e-09
9.8254e-10
1.36006e-09
1.78336e-09
2.14883e-09
2.36026e-09
2.36026e-09
2.14883e-09
1.78336e-09
1.36006e-09
9.82539e-10
1.15789e-09
1.60986e-09
2.11112e-09
2.53958e-09
2.78626e-09
2.78626e-09
2.53958e-09
2.11112e-09
1.60986e-09
1.15789e-09
9.94215e-10
1.37765e-09
1.80716e-09
2.17687e-09
2.39061e-09
2.39061e-09
2.17686e-09
1.80716e-09
1.37765e-09
9.94213e-10
1.04406e-09
1.44902e-09
1.90132e-09
2.28977e-09
2.5141e-09
2.5141e-09
2.28977e-09
1.90131e-09
1.44902e-09
1.04406e-09
1.00244e-09
1.38998e-09
1.82396e-09
2.19741e-09
2.41334e-09
2.41333e-09
2.19741e-09
1.82395e-09
1.38997e-09
1.00244e-09
1.01581e-09
1.40909e-09
1.84912e-09
2.22754e-09
2.44626e-09
2.44625e-09
2.22753e-09
1.84911e-09
1.40908e-09
1.0158e-09
1.00508e-09
1.39386e-09
1.82915e-09
2.20367e-09
2.4202e-09
2.4202e-09
2.20366e-09
1.82913e-09
1.39384e-09
1.00506e-09
1.00864e-09
1.39895e-09
1.83584e-09
2.21167e-09
2.42893e-09
2.42893e-09
2.21165e-09
1.83581e-09
1.39891e-09
1.00861e-09
1.00587e-09
1.39501e-09
1.83067e-09
2.20549e-09
2.42218e-09
2.42217e-09
2.20546e-09
1.83062e-09
1.39496e-09
1.00582e-09
1.00683e-09
1.39638e-09
1.83246e-09
2.20763e-09
2.42452e-09
2.4245e-09
2.20759e-09
1.8324e-09
1.3963e-09
1.00676e-09
1.00613e-09
1.39538e-09
1.83115e-09
2.20605e-09
2.42278e-09
2.42276e-09
2.20599e-09
1.83106e-09
1.39528e-09
1.00604e-09
1.0064e-09
1.39576e-09
1.83164e-09
2.20664e-09
2.42343e-09
2.4234e-09
2.20657e-09
1.83154e-09
1.39564e-09
1.00629e-09
1.00622e-09
1.39551e-09
1.83131e-09
2.20625e-09
2.42299e-09
2.42296e-09
2.20616e-09
1.83119e-09
1.39537e-09
1.0061e-09
1.00629e-09
1.3956e-09
1.83144e-09
2.2064e-09
2.42316e-09
2.42313e-09
2.20631e-09
1.83131e-09
1.39546e-09
1.00616e-09
1.00622e-09
1.39552e-09
1.83133e-09
2.20628e-09
2.42302e-09
2.42299e-09
2.20619e-09
1.83121e-09
1.39539e-09
1.0061e-09
1.00621e-09
1.39551e-09
1.83133e-09
2.20628e-09
2.42303e-09
2.423e-09
2.2062e-09
1.83122e-09
1.3954e-09
1.00611e-09
1.00616e-09
1.39544e-09
1.83125e-09
2.20619e-09
2.42295e-09
2.42293e-09
2.20614e-09
1.83117e-09
1.39536e-09
1.00609e-09
1.00612e-09
1.39539e-09
1.8312e-09
2.20614e-09
2.4229e-09
2.42289e-09
2.20611e-09
1.83116e-09
1.39535e-09
1.00609e-09
1.00608e-09
1.39534e-09
1.83113e-09
2.20607e-09
2.42283e-09
2.42283e-09
2.20606e-09
1.83113e-09
1.39534e-09
1.00608e-09
1.00604e-09
1.39529e-09
1.83108e-09
2.20601e-09
2.42278e-09
2.42279e-09
2.20604e-09
1.83111e-09
1.39533e-09
1.00608e-09
1.006e-09
1.39524e-09
1.83103e-09
2.20596e-09
2.42273e-09
2.42275e-09
2.20601e-09
1.8311e-09
1.39533e-09
1.00608e-09
1.00598e-09
1.39521e-09
1.83099e-09
2.20592e-09
2.4227e-09
2.42272e-09
2.20599e-09
1.83108e-09
1.39532e-09
1.00608e-09
1.00595e-09
1.39518e-09
1.83095e-09
2.20588e-09
2.42266e-09
2.42269e-09
2.20596e-09
1.83107e-09
1.3953e-09
1.00607e-09
1.00593e-09
1.39515e-09
1.83091e-09
2.20584e-09
2.42262e-09
2.42266e-09
2.20593e-09
1.83104e-09
1.39529e-09
1.00606e-09
1.00591e-09
1.39512e-09
1.83089e-09
2.20581e-09
2.42259e-09
2.42262e-09
2.20591e-09
1.83102e-09
1.39527e-09
1.00605e-09
1.0059e-09
1.39511e-09
1.83087e-09
2.20579e-09
2.42256e-09
2.4226e-09
2.20589e-09
1.831e-09
1.39526e-09
1.00604e-09
1.0059e-09
1.39511e-09
1.83086e-09
2.20578e-09
2.42256e-09
2.42259e-09
2.20588e-09
1.831e-09
1.39526e-09
1.00604e-09
1.00592e-09
1.39513e-09
1.83089e-09
2.20581e-09
2.42258e-09
2.42261e-09
2.2059e-09
1.83102e-09
1.39528e-09
1.00606e-09
1.00596e-09
1.39519e-09
1.83095e-09
2.20587e-09
2.42264e-09
2.42266e-09
2.20594e-09
1.83106e-09
1.39531e-09
1.00608e-09
1.00604e-09
1.39528e-09
1.83105e-09
2.20597e-09
2.42273e-09
2.42275e-09
2.20601e-09
1.83111e-09
1.39534e-09
1.0061e-09
1.00615e-09
1.39541e-09
1.83119e-09
2.20611e-09
2.42287e-09
2.42286e-09
2.2061e-09
1.83116e-09
1.39537e-09
1.00611e-09
1.00628e-09
1.39556e-09
1.83136e-09
2.20629e-09
2.42302e-09
2.42299e-09
2.20619e-09
1.83122e-09
1.3954e-09
1.00612e-09
1.0064e-09
1.39571e-09
1.83153e-09
2.20646e-09
2.42318e-09
2.42311e-09
2.20628e-09
1.83127e-09
1.39542e-09
1.00612e-09
1.00648e-09
1.39582e-09
1.83165e-09
2.20658e-09
2.4233e-09
2.42321e-09
2.20634e-09
1.8313e-09
1.39543e-09
1.00611e-09
1.0065e-09
1.39585e-09
1.8317e-09
2.20664e-09
2.42335e-09
2.42325e-09
2.20637e-09
1.83131e-09
1.39542e-09
1.0061e-09
1.00644e-09
1.39579e-09
1.83164e-09
2.20659e-09
2.42331e-09
2.42323e-09
2.20635e-09
1.83129e-09
1.3954e-09
1.00609e-09
1.00633e-09
1.39565e-09
1.8315e-09
2.20646e-09
2.4232e-09
2.42313e-09
2.20628e-09
1.83125e-09
1.39538e-09
1.00608e-09
1.00619e-09
1.39549e-09
1.83132e-09
2.20628e-09
2.42304e-09
2.423e-09
2.20618e-09
1.83119e-09
1.39536e-09
1.00608e-09
1.00608e-09
1.39535e-09
1.83116e-09
2.20612e-09
2.42289e-09
2.42288e-09
2.2061e-09
1.83115e-09
1.39535e-09
1.00609e-09
1.00605e-09
1.39531e-09
1.83111e-09
2.20606e-09
2.42283e-09
2.42285e-09
2.20609e-09
1.83117e-09
1.39539e-09
1.00613e-09
1.00617e-09
1.39544e-09
1.83125e-09
2.20619e-09
2.42296e-09
2.42296e-09
2.20621e-09
1.83127e-09
1.39548e-09
1.00621e-09
1.0065e-09
1.39584e-09
1.83168e-09
2.20662e-09
2.42336e-09
2.42332e-09
2.20651e-09
1.83152e-09
1.39567e-09
1.00633e-09
1.00711e-09
1.39657e-09
1.83247e-09
2.20742e-09
2.42411e-09
2.42397e-09
2.20704e-09
1.83192e-09
1.39595e-09
1.0065e-09
1.00803e-09
1.3977e-09
1.83373e-09
2.2087e-09
2.42532e-09
2.42504e-09
2.20791e-09
1.83258e-09
1.3964e-09
1.00678e-09
1.00924e-09
1.39916e-09
1.83535e-09
2.21036e-09
2.42688e-09
2.42641e-09
2.20903e-09
1.83342e-09
1.39698e-09
1.00714e-09
1.01083e-09
1.40119e-09
1.83771e-09
2.21289e-09
2.42939e-09
2.4287e-09
2.21098e-09
1.83496e-09
1.39811e-09
1.00789e-09
1.01219e-09
1.40285e-09
1.83956e-09
2.21476e-09
2.43115e-09
2.43026e-09
2.21227e-09
1.83598e-09
1.39886e-09
1.00841e-09
1.0147e-09
1.4063e-09
1.84395e-09
2.21983e-09
2.43652e-09
2.43547e-09
2.21693e-09
1.83985e-09
1.40181e-09
1.01053e-09
3.17327e-09
4.55003e-09
5.99778e-09
7.1845e-09
7.85304e-09
7.85304e-09
7.1845e-09
5.99778e-09
4.55003e-09
3.17327e-09
1.87209e-09
2.63221e-09
3.46484e-09
4.1654e-09
4.56594e-09
4.56594e-09
4.1654e-09
3.46484e-09
2.63221e-09
1.87209e-09
9.82539e-10
1.36006e-09
1.78336e-09
2.14883e-09
2.36025e-09
2.36025e-09
2.14883e-09
1.78336e-09
1.36006e-09
9.8254e-10
1.15789e-09
1.60985e-09
2.11112e-09
2.53958e-09
2.78626e-09
2.78626e-09
2.53958e-09
2.11112e-09
1.60986e-09
1.15789e-09
9.94211e-10
1.37765e-09
1.80716e-09
2.17686e-09
2.39061e-09
2.39061e-09
2.17686e-09
1.80716e-09
1.37765e-09
9.94215e-10
1.04405e-09
1.44901e-09
1.90131e-09
2.28976e-09
2.5141e-09
2.5141e-09
2.28977e-09
1.90132e-09
1.44902e-09
1.04406e-09
1.00243e-09
1.38996e-09
1.82394e-09
2.1974e-09
2.41332e-09
2.41333e-09
2.19741e-09
1.82395e-09
1.38998e-09
1.00244e-09
1.01578e-09
1.40906e-09
1.84909e-09
2.22751e-09
2.44624e-09
2.44624e-09
2.22753e-09
1.84912e-09
1.40909e-09
1.01581e-09
1.00504e-09
1.39382e-09
1.8291e-09
2.20363e-09
2.42017e-09
2.42018e-09
2.20366e-09
1.82914e-09
1.39386e-09
1.00508e-09
1.00857e-09
1.39887e-09
1.83576e-09
2.21161e-09
2.42889e-09
2.4289e-09
2.21165e-09
1.83583e-09
1.39894e-09
1.00864e-09
1.00577e-09
1.3949e-09
1.83056e-09
2.2054e-09
2.42212e-09
2.42214e-09
2.20546e-09
1.83065e-09
1.395e-09
1.00587e-09
1.0067e-09
1.39623e-09
1.83232e-09
2.20751e-09
2.42443e-09
2.42446e-09
2.20759e-09
1.83244e-09
1.39637e-09
1.00683e-09
1.00596e-09
1.39519e-09
1.83096e-09
2.20589e-09
2.42268e-09
2.42272e-09
2.206e-09
1.83111e-09
1.39536e-09
1.00612e-09
1.0062e-09
1.39553e-09
1.83142e-09
2.20645e-09
2.4233e-09
2.42334e-09
2.20658e-09
1.83161e-09
1.39574e-09
1.00639e-09
1.006e-09
1.39526e-09
1.83106e-09
2.20603e-09
2.42284e-09
2.42289e-09
2.20618e-09
1.83127e-09
1.39549e-09
1.00622e-09
1.00606e-09
1.39535e-09
1.83118e-09
2.20618e-09
2.423e-09
2.42306e-09
2.20633e-09
1.8314e-09
1.39558e-09
1.00628e-09
1.00601e-09
1.39527e-09
1.83109e-09
2.20606e-09
2.42288e-09
2.42293e-09
2.2062e-09
1.83129e-09
1.3955e-09
1.00622e-09
1.00604e-09
1.3953e-09
1.83112e-09
2.20609e-09
2.4229e-09
2.42294e-09
2.20621e-09
1.83129e-09
1.39549e-09
1.00621e-09
1.00603e-09
1.39529e-09
1.83109e-09
2.20605e-09
2.42284e-09
2.42288e-09
2.20614e-09
1.83122e-09
1.39543e-09
1.00616e-09
1.00604e-09
1.3953e-09
1.83109e-09
2.20604e-09
2.42283e-09
2.42285e-09
2.2061e-09
1.83118e-09
1.39538e-09
1.00612e-09
1.00605e-09
1.3953e-09
1.83108e-09
2.20602e-09
2.42279e-09
2.42279e-09
2.20604e-09
1.83111e-09
1.39533e-09
1.00608e-09
1.00606e-09
1.3953e-09
1.83108e-09
2.206e-09
2.42276e-09
2.42275e-09
2.20599e-09
1.83106e-09
1.39528e-09
1.00604e-09
1.00606e-09
1.3953e-09
1.83107e-09
2.20598e-09
2.42272e-09
2.42271e-09
2.20594e-09
1.83102e-09
1.39524e-09
1.006e-09
1.00606e-09
1.3953e-09
1.83106e-09
2.20597e-09
2.4227e-09
2.42268e-09
2.20591e-09
1.83098e-09
1.3952e-09
1.00597e-09
1.00607e-09
1.3953e-09
1.83106e-09
2.20595e-09
2.42268e-09
2.42265e-09
2.20587e-09
1.83094e-09
1.39517e-09
1.00595e-09
1.00607e-09
1.3953e-09
1.83106e-09
2.20594e-09
2.42266e-09
2.42263e-09
2.20585e-09
1.83092e-09
1.39515e-09
1.00593e-09
1.00608e-09
1.3953e-09
1.83105e-09
2.20594e-09
2.42265e-09
2.42261e-09
2.20583e-09
1.8309e-09
1.39513e-09
1.00591e-09
1.00607e-09
1.3953e-09
1.83105e-09
2.20593e-09
2.42264e-09
2.4226e-09
2.20582e-09
1.83088e-09
1.39512e-09
1.0059e-09
1.00606e-09
1.39529e-09
1.83103e-09
2.20591e-09
2.42263e-09
2.42259e-09
2.20581e-09
1.83088e-09
1.39512e-09
1.0059e-09
1.00605e-09
1.39527e-09
1.83102e-09
2.2059e-09
2.42262e-09
2.42259e-09
2.20581e-09
1.83089e-09
1.39513e-09
1.00592e-09
1.00603e-09
1.39526e-09
1.83101e-09
2.2059e-09
2.42263e-09
2.42261e-09
2.20585e-09
1.83094e-09
1.39518e-09
1.00596e-09
1.00602e-09
1.39525e-09
1.83101e-09
2.20592e-09
2.42267e-09
2.42267e-09
2.20592e-09
1.83102e-09
1.39526e-09
1.00604e-09
1.00602e-09
1.39526e-09
1.83104e-09
2.20597e-09
2.42275e-09
2.42277e-09
2.20605e-09
1.83115e-09
1.39539e-09
1.00614e-09
1.00603e-09
1.39529e-09
1.83109e-09
2.20606e-09
2.42287e-09
2.42292e-09
2.20621e-09
1.83132e-09
1.39554e-09
1.00627e-09
1.00604e-09
1.39532e-09
1.83116e-09
2.20616e-09
2.423e-09
2.42309e-09
2.20639e-09
1.83149e-09
1.39569e-09
1.00639e-09
1.00605e-09
1.39536e-09
1.83122e-09
2.20626e-09
2.42313e-09
2.42323e-09
2.20653e-09
1.83162e-09
1.3958e-09
1.00647e-09
1.00607e-09
1.39538e-09
1.83127e-09
2.20632e-09
2.4232e-09
2.42331e-09
2.20661e-09
1.83168e-09
1.39584e-09
1.00649e-09
1.00608e-09
1.39539e-09
1.83128e-09
2.20633e-09
2.42321e-09
2.4233e-09
2.20658e-09
1.83164e-09
1.39578e-09
1.00644e-09
1.00608e-09
1.39538e-09
1.83125e-09
2.20628e-09
2.42313e-09
2.4232e-09
2.20646e-09
1.83151e-09
1.39566e-09
1.00633e-09
1.00608e-09
1.39536e-09
1.83119e-09
2.20619e-09
2.423e-09
2.42304e-09
2.20628e-09
1.83133e-09
1.39549e-09
1.00619e-09
1.00607e-09
1.39533e-09
1.83113e-09
2.20608e-09
2.42287e-09
2.42288e-09
2.20611e-09
1.83116e-09
1.39535e-09
1.00608e-09
1.00607e-09
1.39532e-09
1.83109e-09
2.20602e-09
2.42278e-09
2.42278e-09
2.20602e-09
1.83108e-09
1.39529e-09
1.00604e-09
1.00608e-09
1.39533e-09
1.8311e-09
2.20603e-09
2.42281e-09
2.42283e-09
2.2061e-09
1.83119e-09
1.39541e-09
1.00616e-09
1.00609e-09
1.39537e-09
1.83118e-09
2.20617e-09
2.42302e-09
2.42311e-09
2.20644e-09
1.83157e-09
1.39579e-09
1.00648e-09
1.00608e-09
1.39543e-09
1.83135e-09
2.20647e-09
2.42346e-09
2.42369e-09
2.20713e-09
1.8323e-09
1.39648e-09
1.00708e-09
1.00596e-09
1.39542e-09
1.83151e-09
2.20686e-09
2.42411e-09
2.42459e-09
2.20819e-09
1.83343e-09
1.39755e-09
1.00799e-09
1.00571e-09
1.39529e-09
1.83163e-09
2.20732e-09
2.42494e-09
2.42575e-09
2.20959e-09
1.8349e-09
1.39894e-09
1.00917e-09
1.00493e-09
1.39462e-09
1.83127e-09
2.20744e-09
2.42565e-09
2.42701e-09
2.21124e-09
1.83673e-09
1.4007e-09
1.01069e-09
1.00427e-09
1.39408e-09
1.83105e-09
2.20768e-09
2.42638e-09
2.42819e-09
2.21272e-09
1.83831e-09
1.40221e-09
1.01198e-09
1.00177e-09
1.39145e-09
1.82875e-09
2.20618e-09
2.42601e-09
2.42899e-09
2.21448e-09
1.84061e-09
1.40463e-09
1.01417e-09
3.17327e-09
4.55003e-09
5.99778e-09
7.1845e-09
7.85304e-09
7.85304e-09
7.1845e-09
5.99778e-09
4.55003e-09
3.17327e-09
1.87209e-09
2.63221e-09
3.46484e-09
4.1654e-09
4.56594e-09
4.56594e-09
4.1654e-09
3.46484e-09
2.63221e-09
1.87209e-09
9.82538e-10
1.36006e-09
1.78336e-09
2.14883e-09
2.36025e-09
2.36025e-09
2.14883e-09
1.78336e-09
1.36006e-09
9.82539e-10
1.15789e-09
1.60985e-09
2.11111e-09
2.53957e-09
2.78625e-09
2.78625e-09
2.53957e-09
2.11112e-09
1.60985e-09
1.15789e-09
9.94208e-10
1.37764e-09
1.80715e-09
2.17686e-09
2.3906e-09
2.3906e-09
2.17686e-09
1.80715e-09
1.37765e-09
9.9421e-10
1.04405e-09
1.44901e-09
1.9013e-09
2.28975e-09
2.51409e-09
2.51409e-09
2.28975e-09
1.9013e-09
1.44901e-09
1.04405e-09
1.00242e-09
1.38995e-09
1.82392e-09
2.19738e-09
2.4133e-09
2.4133e-09
2.19738e-09
1.82393e-09
1.38996e-09
1.00243e-09
1.01577e-09
1.40904e-09
1.84907e-09
2.22748e-09
2.4462e-09
2.4462e-09
2.22749e-09
1.84908e-09
1.40905e-09
1.01578e-09
1.00502e-09
1.39378e-09
1.82906e-09
2.20358e-09
2.42011e-09
2.42012e-09
2.20359e-09
1.82908e-09
1.3938e-09
1.00504e-09
1.00854e-09
1.39882e-09
1.8357e-09
2.21153e-09
2.42879e-09
2.4288e-09
2.21155e-09
1.83573e-09
1.39885e-09
1.00857e-09
1.00572e-09
1.39483e-09
1.83047e-09
2.20528e-09
2.42198e-09
2.42199e-09
2.20531e-09
1.83051e-09
1.39487e-09
1.00577e-09
1.00663e-09
1.39613e-09
1.83219e-09
2.20734e-09
2.42424e-09
2.42425e-09
2.20738e-09
1.83224e-09
1.39619e-09
1.00669e-09
1.00588e-09
1.39506e-09
1.83079e-09
2.20568e-09
2.42243e-09
2.42244e-09
2.20572e-09
1.83085e-09
1.39514e-09
1.00595e-09
1.0061e-09
1.39539e-09
1.83122e-09
2.2062e-09
2.42299e-09
2.42301e-09
2.20625e-09
1.83129e-09
1.39547e-09
1.00618e-09
1.0059e-09
1.3951e-09
1.83084e-09
2.20574e-09
2.4225e-09
2.42252e-09
2.2058e-09
1.83092e-09
1.39519e-09
1.00598e-09
1.00597e-09
1.39519e-09
1.83096e-09
2.20588e-09
2.42265e-09
2.42266e-09
2.20593e-09
1.83103e-09
1.39527e-09
1.00604e-09
1.00593e-09
1.39514e-09
1.83089e-09
2.20579e-09
2.42254e-09
2.42255e-09
2.20583e-09
1.83094e-09
1.3952e-09
1.00599e-09
1.00598e-09
1.3952e-09
1.83095e-09
2.20586e-09
2.42261e-09
2.42262e-09
2.20589e-09
1.83099e-09
1.39524e-09
1.00602e-09
1.006e-09
1.39522e-09
1.83098e-09
2.20589e-09
2.42263e-09
2.42264e-09
2.2059e-09
1.831e-09
1.39524e-09
1.00602e-09
1.00604e-09
1.39528e-09
1.83104e-09
2.20595e-09
2.4227e-09
2.4227e-09
2.20595e-09
1.83104e-09
1.39527e-09
1.00604e-09
1.00607e-09
1.39531e-09
1.83109e-09
2.206e-09
2.42275e-09
2.42275e-09
2.20599e-09
1.83107e-09
1.39529e-09
1.00605e-09
1.0061e-09
1.39535e-09
1.83114e-09
2.20606e-09
2.42281e-09
2.4228e-09
2.20603e-09
1.8311e-09
1.39531e-09
1.00606e-09
1.00613e-09
1.39539e-09
1.83117e-09
2.2061e-09
2.42285e-09
2.42283e-09
2.20606e-09
1.83112e-09
1.39532e-09
1.00607e-09
1.00615e-09
1.39542e-09
1.83121e-09
2.20614e-09
2.42288e-09
2.42287e-09
2.20609e-09
1.83114e-09
1.39534e-09
1.00607e-09
1.00618e-09
1.39545e-09
1.83125e-09
2.20617e-09
2.42292e-09
2.4229e-09
2.20611e-09
1.83116e-09
1.39535e-09
1.00608e-09
1.0062e-09
1.39548e-09
1.83128e-09
2.20621e-09
2.42296e-09
2.42293e-09
2.20614e-09
1.83118e-09
1.39536e-09
1.00609e-09
1.00622e-09
1.39551e-09
1.83132e-09
2.20625e-09
2.42299e-09
2.42296e-09
2.20616e-09
1.83119e-09
1.39537e-09
1.0061e-09
1.00624e-09
1.39553e-09
1.83134e-09
2.20628e-09
2.42302e-09
2.42299e-09
2.20618e-09
1.8312e-09
1.39538e-09
1.00609e-09
1.00625e-09
1.39554e-09
1.83135e-09
2.20629e-09
2.42303e-09
2.42299e-09
2.20618e-09
1.8312e-09
1.39537e-09
1.00609e-09
1.00623e-09
1.39552e-09
1.83133e-09
2.20627e-09
2.42301e-09
2.42297e-09
2.20616e-09
1.83118e-09
1.39535e-09
1.00607e-09
1.00618e-09
1.39546e-09
1.83127e-09
2.20621e-09
2.42295e-09
2.42292e-09
2.20612e-09
1.83115e-09
1.39532e-09
1.00605e-09
1.00611e-09
1.39537e-09
1.83117e-09
2.2061e-09
2.42286e-09
2.42284e-09
2.20605e-09
1.8311e-09
1.39529e-09
1.00603e-09
1.006e-09
1.39524e-09
1.83103e-09
2.20596e-09
2.42272e-09
2.42272e-09
2.20596e-09
1.83103e-09
1.39526e-09
1.00602e-09
1.00588e-09
1.3951e-09
1.83086e-09
2.20579e-09
2.42257e-09
2.42259e-09
2.20586e-09
1.83097e-09
1.39522e-09
1.006e-09
1.00577e-09
1.39496e-09
1.8307e-09
2.20563e-09
2.42241e-09
2.42246e-09
2.20577e-09
1.83091e-09
1.39519e-09
1.006e-09
1.00569e-09
1.39486e-09
1.83059e-09
2.2055e-09
2.42229e-09
2.42236e-09
2.20569e-09
1.83087e-09
1.39518e-09
1.006e-09
1.00568e-09
1.39483e-09
1.83054e-09
2.20545e-09
2.42224e-09
2.42232e-09
2.20567e-09
1.83086e-09
1.39518e-09
1.00601e-09
1.00573e-09
1.39488e-09
1.83059e-09
2.20549e-09
2.42227e-09
2.42235e-09
2.20569e-09
1.83088e-09
1.3952e-09
1.00603e-09
1.00583e-09
1.395e-09
1.83072e-09
2.20562e-09
2.42239e-09
2.42244e-09
2.20577e-09
1.83094e-09
1.39524e-09
1.00605e-09
1.00595e-09
1.39515e-09
1.83089e-09
2.20579e-09
2.42255e-09
2.42258e-09
2.20588e-09
1.83102e-09
1.39528e-09
1.00606e-09
1.00604e-09
1.39526e-09
1.83102e-09
2.20593e-09
2.42269e-09
2.42271e-09
2.20598e-09
1.83108e-09
1.39532e-09
1.00608e-09
1.00602e-09
1.39526e-09
1.83103e-09
2.20596e-09
2.42274e-09
2.42276e-09
2.20603e-09
1.83112e-09
1.39534e-09
1.00608e-09
1.00583e-09
1.39504e-09
1.83082e-09
2.20578e-09
2.4226e-09
2.42267e-09
2.20597e-09
1.83109e-09
1.39532e-09
1.00608e-09
1.0054e-09
1.39454e-09
1.83031e-09
2.2053e-09
2.42218e-09
2.42234e-09
2.20574e-09
1.83094e-09
1.39524e-09
1.00606e-09
1.00471e-09
1.39372e-09
1.82942e-09
2.20444e-09
2.42142e-09
2.42172e-09
2.20528e-09
1.83063e-09
1.39507e-09
1.00598e-09
1.00374e-09
1.39254e-09
1.82812e-09
2.20312e-09
2.42019e-09
2.42066e-09
2.20444e-09
1.83002e-09
1.39467e-09
1.00575e-09
1.00259e-09
1.39112e-09
1.82652e-09
2.20146e-09
2.4186e-09
2.41925e-09
2.20327e-09
1.82912e-09
1.39402e-09
1.00534e-09
1.0012e-09
1.3893e-09
1.82433e-09
2.19902e-09
2.41608e-09
2.41683e-09
2.2011e-09
1.82732e-09
1.39264e-09
1.00436e-09
1.00015e-09
1.38796e-09
1.82273e-09
2.19727e-09
2.41429e-09
2.41509e-09
2.19951e-09
1.82592e-09
1.3915e-09
1.00351e-09
9.98283e-10
1.38519e-09
1.81891e-09
2.19255e-09
2.40895e-09
2.40957e-09
2.19425e-09
1.82131e-09
1.38778e-09
1.00073e-09
3.17327e-09
4.55003e-09
5.99778e-09
7.1845e-09
7.85304e-09
7.85304e-09
7.1845e-09
5.99778e-09
4.55003e-09
3.17327e-09
1.87209e-09
2.63221e-09
3.46484e-09
4.1654e-09
4.56594e-09
4.56594e-09
4.1654e-09
3.46484e-09
2.63221e-09
1.87209e-09
9.82539e-10
1.36006e-09
1.78336e-09
2.14883e-09
2.36025e-09
2.36025e-09
2.14883e-09
1.78336e-09
1.36006e-09
9.82538e-10
1.15789e-09
1.60985e-09
2.11112e-09
2.53958e-09
2.78625e-09
2.78625e-09
2.53957e-09
2.11111e-09
1.60985e-09
1.15789e-09
9.94213e-10
1.37765e-09
1.80716e-09
2.17686e-09
2.39061e-09
2.39061e-09
2.17686e-09
1.80715e-09
1.37765e-09
9.94209e-10
1.04406e-09
1.44902e-09
1.90131e-09
2.28976e-09
2.51409e-09
2.51409e-09
2.28975e-09
1.9013e-09
1.44901e-09
1.04405e-09
1.00244e-09
1.38997e-09
1.82394e-09
2.19739e-09
2.41331e-09
2.41331e-09
2.19738e-09
1.82393e-09
1.38995e-09
1.00242e-09
1.0158e-09
1.40907e-09
1.8491e-09
2.22751e-09
2.44622e-09
2.44621e-09
2.22749e-09
1.84907e-09
1.40904e-09
1.01577e-09
1.00506e-09
1.39383e-09
1.82911e-09
2.20362e-09
2.42014e-09
2.42013e-09
2.20359e-09
1.82907e-09
1.39379e-09
1.00502e-09
1.0086e-09
1.39889e-09
1.83577e-09
2.21159e-09
2.42884e-09
2.42882e-09
2.21155e-09
1.83571e-09
1.39883e-09
1.00854e-09
1.00581e-09
1.39493e-09
1.83057e-09
2.20537e-09
2.42204e-09
2.42202e-09
2.20531e-09
1.83048e-09
1.39484e-09
1.00573e-09
1.00675e-09
1.39626e-09
1.83232e-09
2.20746e-09
2.42432e-09
2.4243e-09
2.20738e-09
1.83221e-09
1.39614e-09
1.00663e-09
1.00602e-09
1.39523e-09
1.83095e-09
2.20582e-09
2.42253e-09
2.4225e-09
2.20573e-09
1.83082e-09
1.39508e-09
1.00588e-09
1.00627e-09
1.39558e-09
1.83141e-09
2.20636e-09
2.42312e-09
2.42308e-09
2.20626e-09
1.83126e-09
1.39541e-09
1.00611e-09
1.00608e-09
1.3953e-09
1.83105e-09
2.20593e-09
2.42264e-09
2.4226e-09
2.20582e-09
1.83089e-09
1.39512e-09
1.00591e-09
1.00614e-09
1.39539e-09
1.83116e-09
2.20607e-09
2.42279e-09
2.42275e-09
2.20596e-09
1.83101e-09
1.39522e-09
1.00597e-09
1.00608e-09
1.39532e-09
1.83107e-09
2.20596e-09
2.42268e-09
2.42264e-09
2.20586e-09
1.83093e-09
1.39516e-09
1.00594e-09
1.0061e-09
1.39534e-09
1.8311e-09
2.20601e-09
2.42273e-09
2.42271e-09
2.20593e-09
1.83099e-09
1.39522e-09
1.00598e-09
1.00608e-09
1.39532e-09
1.83108e-09
2.20599e-09
2.42273e-09
2.42271e-09
2.20594e-09
1.83101e-09
1.39524e-09
1.006e-09
1.00608e-09
1.39533e-09
1.8311e-09
2.20602e-09
2.42277e-09
2.42276e-09
2.20599e-09
1.83106e-09
1.39529e-09
1.00604e-09
1.00608e-09
1.39533e-09
1.83111e-09
2.20604e-09
2.42279e-09
2.42279e-09
2.20603e-09
1.8311e-09
1.39532e-09
1.00607e-09
1.00608e-09
1.39534e-09
1.83113e-09
2.20606e-09
2.42283e-09
2.42283e-09
2.20607e-09
1.83115e-09
1.39536e-09
1.0061e-09
1.00609e-09
1.39535e-09
1.83114e-09
2.20609e-09
2.42286e-09
2.42287e-09
2.20611e-09
1.83118e-09
1.39539e-09
1.00613e-09
1.00609e-09
1.39535e-09
1.83116e-09
2.20611e-09
2.42289e-09
2.4229e-09
2.20615e-09
1.83122e-09
1.39542e-09
1.00615e-09
1.00608e-09
1.39535e-09
1.83116e-09
2.20612e-09
2.42291e-09
2.42293e-09
2.20618e-09
1.83125e-09
1.39545e-09
1.00618e-09
1.00607e-09
1.39534e-09
1.83116e-09
2.20612e-09
2.42292e-09
2.42295e-09
2.20621e-09
1.83128e-09
1.39548e-09
1.0062e-09
1.00606e-09
1.39534e-09
1.83116e-09
2.20613e-09
2.42293e-09
2.42297e-09
2.20623e-09
1.83131e-09
1.3955e-09
1.00622e-09
1.00606e-09
1.39534e-09
1.83116e-09
2.20613e-09
2.42294e-09
2.42298e-09
2.20625e-09
1.83133e-09
1.39552e-09
1.00624e-09
1.00607e-09
1.39534e-09
1.83116e-09
2.20614e-09
2.42295e-09
2.42299e-09
2.20626e-09
1.83133e-09
1.39553e-09
1.00624e-09
1.00608e-09
1.39536e-09
1.83118e-09
2.20615e-09
2.42296e-09
2.42299e-09
2.20626e-09
1.83132e-09
1.39552e-09
1.00623e-09
1.0061e-09
1.39537e-09
1.83119e-09
2.20615e-09
2.42295e-09
2.42297e-09
2.20622e-09
1.83128e-09
1.39547e-09
1.00619e-09
1.00611e-09
1.39538e-09
1.83118e-09
2.20613e-09
2.42291e-09
2.42291e-09
2.20614e-09
1.8312e-09
1.39538e-09
1.00611e-09
1.00611e-09
1.39537e-09
1.83115e-09
2.20608e-09
2.42283e-09
2.42281e-09
2.20602e-09
1.83107e-09
1.39526e-09
1.00601e-09
1.0061e-09
1.39534e-09
1.8311e-09
2.206e-09
2.42271e-09
2.42267e-09
2.20586e-09
1.83091e-09
1.39512e-09
1.00589e-09
1.00608e-09
1.3953e-09
1.83103e-09
2.20589e-09
2.42258e-09
2.42251e-09
2.2057e-09
1.83075e-09
1.39498e-09
1.00577e-09
1.00606e-09
1.39525e-09
1.83096e-09
2.20579e-09
2.42245e-09
2.42237e-09
2.20556e-09
1.83062e-09
1.39487e-09
1.0057e-09
1.00604e-09
1.39522e-09
1.83091e-09
2.20573e-09
2.42238e-09
2.42229e-09
2.20549e-09
1.83057e-09
1.39484e-09
1.00568e-09
1.00603e-09
1.39522e-09
1.8309e-09
2.20572e-09
2.42237e-09
2.42229e-09
2.20551e-09
1.8306e-09
1.39489e-09
1.00573e-09
1.00604e-09
1.39523e-09
1.83094e-09
2.20577e-09
2.42244e-09
2.42239e-09
2.20562e-09
1.83072e-09
1.39501e-09
1.00583e-09
1.00606e-09
1.39527e-09
1.83101e-09
2.20587e-09
2.42257e-09
2.42254e-09
2.20578e-09
1.83089e-09
1.39515e-09
1.00595e-09
1.00609e-09
1.39533e-09
1.8311e-09
2.20599e-09
2.42272e-09
2.42269e-09
2.20593e-09
1.83102e-09
1.39526e-09
1.00604e-09
1.00614e-09
1.3954e-09
1.83118e-09
2.20609e-09
2.42281e-09
2.42277e-09
2.20599e-09
1.83104e-09
1.39526e-09
1.00602e-09
1.00621e-09
1.39547e-09
1.83124e-09
2.20612e-09
2.42279e-09
2.4227e-09
2.20585e-09
1.83086e-09
1.39506e-09
1.00583e-09
1.00629e-09
1.39553e-09
1.83125e-09
2.20604e-09
2.4226e-09
2.42238e-09
2.20543e-09
1.83038e-09
1.39458e-09
1.00541e-09
1.0064e-09
1.39557e-09
1.83118e-09
2.20581e-09
2.42218e-09
2.42177e-09
2.20467e-09
1.82955e-09
1.39378e-09
1.00472e-09
1.00656e-09
1.39565e-09
1.83108e-09
2.20546e-09
2.42155e-09
2.42086e-09
2.20357e-09
1.82837e-09
1.39266e-09
1.00376e-09
1.00678e-09
1.39574e-09
1.83095e-09
2.20501e-09
2.42074e-09
2.41974e-09
2.20222e-09
1.82696e-09
1.39133e-09
1.00264e-09
1.00735e-09
1.39622e-09
1.83117e-09
2.20483e-09
2.42008e-09
2.41862e-09
2.20077e-09
1.82537e-09
1.38982e-09
1.00134e-09
1.00772e-09
1.39646e-09
1.83116e-09
2.20449e-09
2.41938e-09
2.41762e-09
2.19959e-09
1.82415e-09
1.38868e-09
1.00037e-09
1.00952e-09
1.39834e-09
1.83279e-09
2.20557e-09
2.4197e-09
2.41715e-09
2.19848e-09
1.82268e-09
1.38709e-09
9.989e-10
)
;
    }
    inlet
    {
        type            calculated;
        value           uniform 0;
    }
    outlet
    {
        type            calculated;
        value           uniform 0;
    }
}


// ************************************************************************* //
