/*--------------------------------*- C++ -*----------------------------------*\
| =========                 |                                                 |
| \\      /  F ield         | OpenFOAM: The Open Source CFD Toolbox           |
|  \\    /   O peration     | Version:  2406                                  |
|   \\  /    A nd           | Website:  www.openfoam.com                      |
|    \\/     M anipulation  |                                                 |
\*---------------------------------------------------------------------------*/
FoamFile
{
    version     2.0;
    format      ascii;
    arch        "LSB;label=32;scalar=64";
    class       surfaceScalarField;
    location    "1.7";
    object      phi;
}
// * * * * * * * * * * * * * * * * * * * * * * * * * * * * * * * * * * * * * //

dimensions      [0 3 -1 0 0 0 0];

oriented        oriented;

internalField   nonuniform List<scalar> 
73500
(
4.64638e-05
4.64638e-05
5.7055e-05
-5.14904e-05
-5.14904e-05
3.76966e-05
4.71304e-05
6.4902e-05
-5.23269e-05
2.65017e-05
4.75019e-05
7.06874e-05
-5.30513e-05
1.36506e-05
4.76219e-05
7.45177e-05
-5.33174e-05
5.75256e-12
4.76558e-05
7.64234e-05
-5.34357e-05
-1.36506e-05
4.76558e-05
7.64234e-05
-5.34357e-05
-2.65017e-05
4.76219e-05
7.45178e-05
-5.33174e-05
-3.76966e-05
4.75019e-05
7.06874e-05
-5.30513e-05
-4.64638e-05
4.71304e-05
6.4902e-05
-5.23269e-05
4.64638e-05
5.7055e-05
-5.14904e-05
-5.14904e-05
4.71304e-05
3.76966e-05
6.4902e-05
-5.23269e-05
3.80025e-05
3.80025e-05
7.284e-05
2.65048e-05
3.80946e-05
7.8274e-05
1.35836e-05
3.80736e-05
8.17192e-05
5.5231e-12
3.80404e-05
8.33962e-05
-1.35836e-05
3.80404e-05
8.33962e-05
-2.65048e-05
3.80736e-05
8.17192e-05
-3.80025e-05
3.80946e-05
7.8274e-05
-4.71304e-05
3.80025e-05
7.284e-05
3.76966e-05
6.4902e-05
-5.23269e-05
4.75019e-05
2.65017e-05
7.06874e-05
-5.30513e-05
3.80947e-05
2.65048e-05
7.8274e-05
2.64302e-05
2.64302e-05
8.33162e-05
1.3498e-05
2.63344e-05
8.64277e-05
5.40447e-12
2.6272e-05
8.79142e-05
-1.3498e-05
2.6272e-05
8.79142e-05
-2.64302e-05
2.63344e-05
8.64277e-05
-3.80946e-05
2.64302e-05
8.33162e-05
-4.75019e-05
2.65048e-05
7.8274e-05
2.65017e-05
7.06874e-05
-5.30513e-05
4.76219e-05
1.36506e-05
7.45177e-05
-5.33174e-05
3.80736e-05
1.35836e-05
8.17192e-05
2.63344e-05
1.3498e-05
8.64277e-05
1.34197e-05
1.34197e-05
8.92796e-05
5.35077e-12
1.33737e-05
9.06222e-05
-1.34197e-05
1.33737e-05
9.06222e-05
-2.63344e-05
1.34197e-05
8.92796e-05
-3.80736e-05
1.3498e-05
8.64277e-05
-4.76219e-05
1.35836e-05
8.17192e-05
1.36506e-05
7.45178e-05
-5.33174e-05
4.76558e-05
-2.06164e-12
7.64234e-05
-5.34357e-05
3.80404e-05
-1.90794e-12
8.33962e-05
2.6272e-05
-1.78523e-12
8.79142e-05
1.33737e-05
-1.72727e-12
9.06222e-05
5.30524e-12
-1.72071e-12
9.18866e-05
-1.33737e-05
-1.74393e-12
9.18866e-05
-2.6272e-05
-1.80314e-12
9.06222e-05
-3.80404e-05
-1.8934e-12
8.79142e-05
-4.76558e-05
-1.99722e-12
8.33962e-05
-2.10002e-12
7.64234e-05
-5.34357e-05
4.76558e-05
-1.36506e-05
7.64234e-05
-5.34357e-05
3.80404e-05
-1.35836e-05
8.33962e-05
2.6272e-05
-1.3498e-05
8.79142e-05
1.33737e-05
-1.34197e-05
9.06222e-05
5.28678e-12
-1.33737e-05
9.18866e-05
-1.33737e-05
-1.33737e-05
9.18866e-05
-2.6272e-05
-1.34197e-05
9.06222e-05
-3.80404e-05
-1.3498e-05
8.79142e-05
-4.76558e-05
-1.35836e-05
8.33962e-05
-1.36506e-05
7.64234e-05
-5.34357e-05
4.76219e-05
-2.65017e-05
7.45177e-05
-5.33174e-05
3.80736e-05
-2.65048e-05
8.17192e-05
2.63344e-05
-2.64302e-05
8.64277e-05
1.34197e-05
-2.63344e-05
8.92796e-05
5.2723e-12
-2.6272e-05
9.06222e-05
-1.34197e-05
-2.6272e-05
9.06222e-05
-2.63344e-05
-2.63344e-05
8.92796e-05
-3.80736e-05
-2.64302e-05
8.64277e-05
-4.76219e-05
-2.65048e-05
8.17192e-05
-2.65017e-05
7.45178e-05
-5.33174e-05
4.75019e-05
-3.76966e-05
7.06874e-05
-5.30513e-05
3.80947e-05
-3.80025e-05
7.8274e-05
2.64302e-05
-3.80947e-05
8.33162e-05
1.3498e-05
-3.80736e-05
8.64277e-05
5.28452e-12
-3.80404e-05
8.79142e-05
-1.3498e-05
-3.80404e-05
8.79142e-05
-2.64302e-05
-3.80736e-05
8.64277e-05
-3.80946e-05
-3.80947e-05
8.33162e-05
-4.75019e-05
-3.80025e-05
7.8274e-05
-3.76966e-05
7.06874e-05
-5.30513e-05
4.71304e-05
-4.64638e-05
6.4902e-05
-5.23269e-05
3.80025e-05
-4.71304e-05
7.284e-05
2.65048e-05
-4.75019e-05
7.8274e-05
1.35836e-05
-4.76219e-05
8.17192e-05
5.35477e-12
-4.76558e-05
8.33962e-05
-1.35836e-05
-4.76558e-05
8.33962e-05
-2.65048e-05
-4.76219e-05
8.17192e-05
-3.80025e-05
-4.75019e-05
7.8274e-05
-4.71304e-05
-4.71304e-05
7.284e-05
-4.64638e-05
6.4902e-05
-5.23269e-05
4.64638e-05
5.7055e-05
-5.14904e-05
-5.14904e-05
3.76966e-05
6.4902e-05
-5.23269e-05
2.65017e-05
7.06874e-05
-5.30513e-05
1.36506e-05
7.45177e-05
-5.33174e-05
5.53129e-12
7.64234e-05
-5.34357e-05
-1.36506e-05
7.64234e-05
-5.34357e-05
-2.65017e-05
7.45177e-05
-5.33174e-05
-3.76966e-05
7.06874e-05
-5.30513e-05
-4.64638e-05
6.4902e-05
-5.23269e-05
5.7055e-05
-5.14904e-05
-5.14904e-05
1.74555e-05
1.74555e-05
5.59098e-05
-1.68829e-05
-1.68829e-05
1.5611e-05
1.95121e-05
6.58054e-05
-1.85709e-05
1.16371e-05
2.09099e-05
7.35987e-05
-1.98472e-05
6.20092e-06
2.18255e-05
7.89052e-05
-2.07768e-05
2.40154e-11
2.22682e-05
8.15788e-05
-2.12227e-05
-6.20088e-06
2.22682e-05
8.15788e-05
-2.12227e-05
-1.1637e-05
2.18255e-05
7.89052e-05
-2.07768e-05
-1.5611e-05
2.09099e-05
7.35987e-05
-1.98472e-05
-1.74555e-05
1.95121e-05
6.58054e-05
-1.85709e-05
1.74555e-05
5.59098e-05
-1.68829e-05
-1.68829e-05
1.95121e-05
1.5611e-05
6.58054e-05
-1.85709e-05
1.74858e-05
1.74857e-05
7.68926e-05
1.30085e-05
1.87072e-05
8.4954e-05
6.9093e-06
1.94675e-05
9.01764e-05
2.20153e-11
1.98342e-05
9.27395e-05
-6.90925e-06
1.98342e-05
9.27395e-05
-1.30084e-05
1.94675e-05
9.01764e-05
-1.74857e-05
1.87072e-05
8.4954e-05
-1.9512e-05
1.74857e-05
7.68926e-05
1.5611e-05
6.58054e-05
-1.85709e-05
2.09099e-05
1.1637e-05
7.35987e-05
-1.98472e-05
1.87072e-05
1.30084e-05
8.4954e-05
1.38917e-05
1.38916e-05
9.29473e-05
7.36655e-06
1.44293e-05
9.7991e-05
2.07313e-11
1.469e-05
0.000100425
-7.36651e-06
1.469e-05
0.000100425
-1.38916e-05
1.44293e-05
9.7991e-05
-1.87072e-05
1.38916e-05
9.29473e-05
-2.09099e-05
1.30084e-05
8.4954e-05
1.1637e-05
7.35987e-05
-1.98472e-05
2.18255e-05
6.20089e-06
7.89052e-05
-2.07768e-05
1.94675e-05
6.90927e-06
9.01764e-05
1.44293e-05
7.36652e-06
9.7991e-05
7.64219e-06
7.64216e-06
0.000102854
1.99483e-11
7.77653e-06
0.000105178
-7.64215e-06
7.77653e-06
0.000105178
-1.44293e-05
7.64216e-06
0.000102854
-1.94675e-05
7.36652e-06
9.7991e-05
-2.18255e-05
6.90927e-06
9.01764e-05
6.20089e-06
7.89052e-05
-2.07768e-05
2.22682e-05
-1.02948e-11
8.15788e-05
-2.12227e-05
1.98342e-05
-9.37262e-12
9.27395e-05
1.469e-05
-8.69684e-12
0.000100425
7.77655e-06
-8.25203e-12
0.000105178
1.95793e-11
-8.0481e-12
0.00010744
-7.77652e-06
-8.07193e-12
0.00010744
-1.46899e-05
-8.30911e-12
0.000105178
-1.98341e-05
-8.76956e-12
0.000100425
-2.22682e-05
-9.4457e-12
9.27395e-05
-1.03276e-11
8.15788e-05
-2.12227e-05
2.22682e-05
-6.20091e-06
8.15788e-05
-2.12227e-05
1.98342e-05
-6.90928e-06
9.27395e-05
1.469e-05
-7.36653e-06
0.000100425
7.77655e-06
-7.64218e-06
0.000105178
1.957e-11
-7.77654e-06
0.00010744
-7.77652e-06
-7.77654e-06
0.00010744
-1.46899e-05
-7.64218e-06
0.000105178
-1.98341e-05
-7.36653e-06
0.000100425
-2.22682e-05
-6.90928e-06
9.27395e-05
-6.20091e-06
8.15788e-05
-2.12227e-05
2.18255e-05
-1.16371e-05
7.89052e-05
-2.07768e-05
1.94675e-05
-1.30085e-05
9.01764e-05
1.44293e-05
-1.38916e-05
9.7991e-05
7.64219e-06
-1.44293e-05
0.000102854
1.99172e-11
-1.469e-05
0.000105178
-7.64215e-06
-1.469e-05
0.000105178
-1.44293e-05
-1.44293e-05
0.000102854
-1.94675e-05
-1.38916e-05
9.7991e-05
-2.18255e-05
-1.30085e-05
9.01764e-05
-1.16371e-05
7.89052e-05
-2.07768e-05
2.09099e-05
-1.5611e-05
7.35987e-05
-1.98472e-05
1.87072e-05
-1.74858e-05
8.4954e-05
1.38917e-05
-1.87072e-05
9.29473e-05
7.36655e-06
-1.94675e-05
9.7991e-05
2.06491e-11
-1.98342e-05
0.000100425
-7.36651e-06
-1.98342e-05
0.000100425
-1.38916e-05
-1.94675e-05
9.7991e-05
-1.87072e-05
-1.87072e-05
9.29473e-05
-2.09099e-05
-1.74858e-05
8.4954e-05
-1.5611e-05
7.35987e-05
-1.98472e-05
1.95121e-05
-1.74555e-05
6.58054e-05
-1.85709e-05
1.74858e-05
-1.95121e-05
7.68926e-05
1.30085e-05
-2.09099e-05
8.4954e-05
6.9093e-06
-2.18255e-05
9.01764e-05
2.18454e-11
-2.22682e-05
9.27395e-05
-6.90925e-06
-2.22682e-05
9.27395e-05
-1.30084e-05
-2.18255e-05
9.01764e-05
-1.74857e-05
-2.09099e-05
8.4954e-05
-1.9512e-05
-1.95121e-05
7.68926e-05
-1.74555e-05
6.58054e-05
-1.85709e-05
1.74555e-05
5.59098e-05
-1.68829e-05
-1.68829e-05
1.5611e-05
6.58054e-05
-1.85709e-05
1.16371e-05
7.35987e-05
-1.98472e-05
6.20092e-06
7.89052e-05
-2.07768e-05
2.36872e-11
8.15788e-05
-2.12227e-05
-6.20088e-06
8.15788e-05
-2.12227e-05
-1.1637e-05
7.89052e-05
-2.07768e-05
-1.5611e-05
7.35987e-05
-1.98472e-05
-1.74555e-05
6.58054e-05
-1.85709e-05
5.59098e-05
-1.68829e-05
-1.68829e-05
9.76142e-06
9.76137e-06
5.42209e-05
-8.91699e-06
-8.91695e-06
8.99683e-06
1.14977e-05
6.53704e-05
-1.02981e-05
6.8851e-06
1.276e-05
7.43729e-05
-1.14225e-05
3.72988e-06
1.36068e-05
8.06636e-05
-1.221e-05
5.54154e-11
1.4028e-05
8.38838e-05
-1.26031e-05
-3.72978e-06
1.4028e-05
8.38838e-05
-1.26031e-05
-6.885e-06
1.36068e-05
8.06636e-05
-1.221e-05
-8.99674e-06
1.276e-05
7.43729e-05
-1.14225e-05
-9.76135e-06
1.14977e-05
6.53704e-05
-1.02982e-05
9.76137e-06
5.4221e-05
-8.91694e-06
-8.91696e-06
1.14978e-05
8.99676e-06
6.53704e-05
-1.02982e-05
1.06871e-05
1.0687e-05
7.85141e-05
8.17717e-06
1.18597e-05
8.83642e-05
4.41896e-06
1.26115e-05
9.493e-05
5.02873e-11
1.29798e-05
9.82067e-05
-4.41887e-06
1.29798e-05
9.82067e-05
-8.17708e-06
1.26115e-05
9.493e-05
-1.0687e-05
1.18597e-05
8.83643e-05
-1.14977e-05
1.0687e-05
7.85141e-05
8.99677e-06
6.53704e-05
-1.02981e-05
1.27601e-05
6.88502e-06
7.43729e-05
-1.14225e-05
1.18598e-05
8.17711e-06
8.83642e-05
9.05799e-06
9.05793e-06
9.85508e-05
4.88515e-06
9.60608e-06
0.000105169
4.6754e-11
9.87013e-06
0.00010842
-4.88506e-06
9.87013e-06
0.00010842
-9.05791e-06
9.60608e-06
0.000105169
-1.18597e-05
9.05793e-06
9.85508e-05
-1.276e-05
8.17711e-06
8.83643e-05
6.88503e-06
7.43729e-05
-1.14225e-05
1.36069e-05
3.72981e-06
8.06636e-05
-1.22101e-05
1.26115e-05
4.41889e-06
9.493e-05
9.60614e-06
4.88509e-06
0.000105169
5.16938e-06
5.16932e-06
0.000111727
4.45235e-11
5.3029e-06
0.000114914
-5.16929e-06
5.3029e-06
0.000114914
-9.60606e-06
5.16932e-06
0.000111727
-1.26114e-05
4.88509e-06
0.000105169
-1.36068e-05
4.41889e-06
9.493e-05
3.72981e-06
8.06636e-05
-1.221e-05
1.4028e-05
-2.31521e-11
8.38838e-05
-1.26031e-05
1.29798e-05
-2.07961e-11
9.82066e-05
9.87019e-06
-1.90898e-11
0.00010842
5.30296e-06
-1.80229e-11
0.000114914
4.33778e-11
-1.75431e-11
0.000118045
-5.30287e-06
-1.76325e-11
0.000118045
-9.87011e-06
-1.82852e-11
0.000114914
-1.29798e-05
-1.94926e-11
0.00010842
-1.4028e-05
-2.12747e-11
9.82067e-05
-2.36856e-11
8.38838e-05
-1.26031e-05
1.4028e-05
-3.72985e-06
8.38838e-05
-1.26031e-05
1.29798e-05
-4.41893e-06
9.82066e-05
9.87019e-06
-4.88513e-06
0.00010842
5.30296e-06
-5.16936e-06
0.000114914
4.33092e-11
-5.30293e-06
0.000118045
-5.30287e-06
-5.30293e-06
0.000118045
-9.87011e-06
-5.16936e-06
0.000114914
-1.29798e-05
-4.88513e-06
0.00010842
-1.4028e-05
-4.41894e-06
9.82067e-05
-3.72985e-06
8.38838e-05
-1.26031e-05
1.36069e-05
-6.88506e-06
8.06636e-05
-1.22101e-05
1.26115e-05
-8.17714e-06
9.493e-05
9.60614e-06
-9.05797e-06
0.000105169
5.16938e-06
-9.60611e-06
0.000111727
4.42955e-11
-9.87016e-06
0.000114914
-5.16929e-06
-9.87017e-06
0.000114914
-9.60606e-06
-9.60611e-06
0.000111727
-1.26114e-05
-9.05797e-06
0.000105169
-1.36068e-05
-8.17715e-06
9.493e-05
-6.88507e-06
8.06636e-05
-1.221e-05
1.27601e-05
-8.9968e-06
7.43729e-05
-1.14225e-05
1.18598e-05
-1.0687e-05
8.83642e-05
9.05799e-06
-1.18597e-05
9.85508e-05
4.88515e-06
-1.26115e-05
0.000105169
4.63561e-11
-1.29798e-05
0.00010842
-4.88506e-06
-1.29798e-05
0.00010842
-9.05791e-06
-1.26115e-05
0.000105169
-1.18597e-05
-1.18597e-05
9.85508e-05
-1.276e-05
-1.0687e-05
8.83643e-05
-8.99681e-06
7.43729e-05
-1.14225e-05
1.14978e-05
-9.7614e-06
6.53704e-05
-1.02982e-05
1.06871e-05
-1.14978e-05
7.85141e-05
8.17717e-06
-1.27601e-05
8.83642e-05
4.41896e-06
-1.36069e-05
9.493e-05
4.96624e-11
-1.4028e-05
9.82066e-05
-4.41887e-06
-1.4028e-05
9.82066e-05
-8.17708e-06
-1.36069e-05
9.493e-05
-1.0687e-05
-1.27601e-05
8.83643e-05
-1.14977e-05
-1.14978e-05
7.85141e-05
-9.76141e-06
6.53704e-05
-1.02981e-05
9.76142e-06
5.42209e-05
-8.91697e-06
-8.91699e-06
8.99682e-06
6.53704e-05
-1.02982e-05
6.88509e-06
7.43729e-05
-1.14225e-05
3.72988e-06
8.06636e-05
-1.22101e-05
5.4496e-11
8.38838e-05
-1.26031e-05
-3.72978e-06
8.38838e-05
-1.26031e-05
-6.88499e-06
8.06636e-05
-1.22101e-05
-8.99674e-06
7.43729e-05
-1.14225e-05
-9.76135e-06
6.53704e-05
-1.02982e-05
5.4221e-05
-8.91694e-06
-8.91698e-06
2.27381e-06
2.27369e-06
5.3103e-05
-1.71482e-06
-1.71473e-06
2.4204e-06
3.04705e-06
6.43623e-05
-2.18551e-06
2.02129e-06
3.69616e-06
7.37105e-05
-2.63462e-06
1.14852e-06
4.1605e-06
8.0354e-05
-2.9781e-06
1.12459e-10
4.39774e-06
8.37911e-05
-3.15667e-06
-1.1483e-06
4.39774e-06
8.37911e-05
-3.15667e-06
-2.02109e-06
4.1605e-06
8.0354e-05
-2.9781e-06
-2.42022e-06
3.69617e-06
7.37105e-05
-2.63462e-06
-2.27367e-06
3.04707e-06
6.43623e-05
-2.18553e-06
2.27371e-06
5.31031e-05
-1.71472e-06
-1.71475e-06
3.04716e-06
2.42026e-06
6.43622e-05
-2.18559e-06
3.29291e-06
3.29279e-06
7.80226e-05
2.74996e-06
3.98044e-06
8.86229e-05
1.55558e-06
4.44333e-06
9.58416e-05
1.00647e-10
4.66952e-06
9.94904e-05
-1.55538e-06
4.66952e-06
9.94904e-05
-2.74978e-06
4.44333e-06
9.58416e-05
-3.29275e-06
3.98044e-06
8.8623e-05
-3.04702e-06
3.2928e-06
7.80226e-05
2.42028e-06
6.43623e-05
-2.1855e-06
3.69626e-06
2.02114e-06
7.37105e-05
-2.63468e-06
3.98055e-06
2.74982e-06
8.86229e-05
3.30526e-06
3.30513e-06
9.99014e-05
1.85898e-06
3.6593e-06
0.0001074
9.24429e-11
3.81956e-06
0.000111129
-1.8588e-06
3.81956e-06
0.000111129
-3.30509e-06
3.65931e-06
0.0001074
-3.9804e-06
3.30513e-06
9.99015e-05
-3.69614e-06
2.74983e-06
8.8623e-05
2.02115e-06
7.37105e-05
-2.6346e-06
4.16058e-06
1.14835e-06
8.0354e-05
-2.97816e-06
4.44343e-06
1.55543e-06
9.58415e-05
3.65942e-06
1.85885e-06
0.0001074
2.04342e-06
2.0433e-06
0.000114959
8.73591e-11
2.11623e-06
0.000118661
-2.04325e-06
2.11623e-06
0.000118661
-3.65926e-06
2.0433e-06
0.000114959
-4.44329e-06
1.85885e-06
0.0001074
-4.16047e-06
1.55544e-06
9.58416e-05
1.14836e-06
8.0354e-05
-2.97808e-06
4.39782e-06
-4.92219e-11
8.37911e-05
-3.15673e-06
4.66962e-06
-4.41804e-11
9.94903e-05
3.81967e-06
-4.05876e-11
0.000111129
2.11635e-06
-3.83314e-11
0.000118661
8.48422e-11
-3.72739e-11
0.000122278
-2.11618e-06
-3.73668e-11
0.000122278
-3.81952e-06
-3.86092e-11
0.000118661
-4.66948e-06
-4.10387e-11
0.000111129
-4.39771e-06
-4.47912e-11
9.94904e-05
-4.99708e-11
8.37912e-05
-3.15665e-06
4.39782e-06
-1.14845e-06
8.37911e-05
-3.15673e-06
4.66962e-06
-1.55552e-06
9.94903e-05
3.81967e-06
-1.85893e-06
0.000111129
2.11635e-06
-2.04338e-06
0.000118661
8.47687e-11
-2.1163e-06
0.000122278
-2.11618e-06
-2.1163e-06
0.000122278
-3.81951e-06
-2.04338e-06
0.000118661
-4.66948e-06
-1.85893e-06
0.000111129
-4.39771e-06
-1.55552e-06
9.94904e-05
-1.14846e-06
8.37912e-05
-3.15665e-06
4.16058e-06
-2.02123e-06
8.0354e-05
-2.97816e-06
4.44343e-06
-2.7499e-06
9.58415e-05
3.65942e-06
-3.3052e-06
0.0001074
2.04342e-06
-3.65938e-06
0.000114959
8.71163e-11
-3.81963e-06
0.000118661
-2.04325e-06
-3.81963e-06
0.000118661
-3.65926e-06
-3.65938e-06
0.000114959
-4.44329e-06
-3.30521e-06
0.0001074
-4.16046e-06
-2.74991e-06
9.58416e-05
-2.02124e-06
8.0354e-05
-2.97808e-06
3.69625e-06
-2.42033e-06
7.37104e-05
-2.63468e-06
3.98055e-06
-3.29286e-06
8.86229e-05
3.30525e-06
-3.9805e-06
9.99014e-05
1.85898e-06
-4.44339e-06
0.0001074
9.19793e-11
-4.66958e-06
0.000111129
-1.8588e-06
-4.66958e-06
0.000111129
-3.30508e-06
-4.44339e-06
0.0001074
-3.9804e-06
-3.98051e-06
9.99014e-05
-3.69613e-06
-3.29287e-06
8.86229e-05
-2.42035e-06
7.37105e-05
-2.63459e-06
3.04715e-06
-2.27375e-06
6.43622e-05
-2.18559e-06
3.2929e-06
-3.04711e-06
7.80226e-05
2.74996e-06
-3.69622e-06
8.86229e-05
1.55557e-06
-4.16055e-06
9.58415e-05
9.98521e-11
-4.39779e-06
9.94903e-05
-1.55538e-06
-4.39779e-06
9.94903e-05
-2.74977e-06
-4.16055e-06
9.58416e-05
-3.29274e-06
-3.69623e-06
8.86229e-05
-3.04702e-06
-3.04712e-06
7.80226e-05
-2.27378e-06
6.43623e-05
-2.18549e-06
2.2738e-06
5.3103e-05
-1.71478e-06
-1.71481e-06
2.42039e-06
6.43622e-05
-2.18555e-06
2.02129e-06
7.37104e-05
-2.63465e-06
1.14851e-06
8.0354e-05
-2.97814e-06
1.11223e-10
8.37911e-05
-3.15671e-06
-1.14829e-06
8.37911e-05
-3.15671e-06
-2.02108e-06
8.0354e-05
-2.97814e-06
-2.42021e-06
7.37105e-05
-2.63466e-06
-2.27366e-06
6.43623e-05
-2.18557e-06
5.3103e-05
-1.71471e-06
-1.7148e-06
1.80892e-06
1.8087e-06
5.26895e-05
-1.60213e-06
-1.60197e-06
1.72082e-06
2.2086e-06
6.41344e-05
-1.89264e-06
1.35644e-06
2.53425e-06
7.36829e-05
-2.14227e-06
7.48973e-07
2.76469e-06
8.05167e-05
-2.3199e-06
2.0983e-10
2.88099e-06
8.40693e-05
-2.41038e-06
-7.48563e-07
2.88099e-06
8.40693e-05
-2.41039e-06
-1.35606e-06
2.7647e-06
8.05168e-05
-2.31991e-06
-1.72049e-06
2.53427e-06
7.3683e-05
-2.14228e-06
-1.80866e-06
2.20862e-06
6.41345e-05
-1.89267e-06
1.80874e-06
5.26896e-05
-1.60195e-06
-1.60201e-06
2.20879e-06
1.72056e-06
6.41344e-05
-1.89279e-06
2.14971e-06
2.14948e-06
7.81408e-05
1.71051e-06
2.49238e-06
8.9104e-05
9.46362e-07
2.72501e-06
9.66454e-05
1.87609e-10
2.83532e-06
0.000100482
-9.45995e-07
2.83532e-06
0.000100482
-1.71017e-06
2.72502e-06
9.66454e-05
-2.14941e-06
2.49239e-06
8.91041e-05
-2.20855e-06
2.1495e-06
7.81409e-05
1.7206e-06
6.41345e-05
-1.89262e-06
2.53443e-06
1.35615e-06
7.36828e-05
-2.14239e-06
2.49258e-06
1.71026e-06
8.9104e-05
1.98857e-06
1.98834e-06
0.000100909
1.09771e-06
2.16582e-06
0.00010885
1.71529e-10
2.2372e-06
0.000112824
-1.09737e-06
2.2372e-06
0.000112824
-1.98826e-06
2.16582e-06
0.00010885
-2.49231e-06
1.98835e-06
0.00010091
-2.5342e-06
1.71027e-06
8.91041e-05
1.35617e-06
7.3683e-05
-2.14223e-06
2.76485e-06
7.48669e-07
8.05166e-05
-2.32002e-06
2.7252e-06
9.46093e-07
9.66454e-05
2.16604e-06
1.09746e-06
0.00010885
1.18738e-06
1.18715e-06
0.000116917
1.61377e-10
1.21091e-06
0.000120875
-1.18706e-06
1.21091e-06
0.000120875
-2.16574e-06
1.18715e-06
0.000116917
-2.72494e-06
1.09747e-06
0.00010885
-2.76463e-06
9.46099e-07
9.66455e-05
7.48681e-07
8.05168e-05
-2.31986e-06
2.88114e-06
-9.15197e-11
8.40692e-05
-2.41049e-06
2.8355e-06
-8.1949e-11
0.000100482
2.23741e-06
-7.49853e-11
0.000112824
1.21113e-06
-7.06415e-11
0.000120875
1.5632e-10
-6.8627e-11
0.0001247
-1.21083e-06
-6.88346e-11
0.0001247
-2.23712e-06
-7.12801e-11
0.000120875
-2.83525e-06
-7.60542e-11
0.000112824
-2.88093e-06
-8.3359e-11
0.000100482
-9.32355e-11
8.40693e-05
-2.41034e-06
2.88114e-06
-7.48847e-07
8.40692e-05
-2.41049e-06
2.8355e-06
-9.46253e-07
0.000100482
2.2374e-06
-1.09761e-06
0.000112824
1.21113e-06
-1.18729e-06
0.000120875
1.56138e-10
-1.21105e-06
0.0001247
-1.21083e-06
-1.21105e-06
0.0001247
-2.23712e-06
-1.18729e-06
0.000120875
-2.83525e-06
-1.09761e-06
0.000112824
-2.88093e-06
-9.46262e-07
0.000100482
-7.48863e-07
8.40693e-05
-2.41034e-06
2.76484e-06
-1.35631e-06
8.05166e-05
-2.32001e-06
2.7252e-06
-1.71041e-06
9.66453e-05
2.16603e-06
-1.98847e-06
0.00010885
1.18737e-06
-2.16595e-06
0.000116917
1.60779e-10
-2.23732e-06
0.000120875
-1.18706e-06
-2.23733e-06
0.000120875
-2.16574e-06
-2.16595e-06
0.000116917
-2.72494e-06
-1.98848e-06
0.00010885
-2.76463e-06
-1.71042e-06
9.66454e-05
-1.35634e-06
8.05167e-05
-2.31986e-06
2.53442e-06
-1.7207e-06
7.36828e-05
-2.14239e-06
2.49258e-06
-2.14961e-06
8.91039e-05
1.98856e-06
-2.4925e-06
0.000100909
1.0977e-06
-2.72512e-06
0.00010885
1.7044e-10
-2.83543e-06
0.000112824
-1.09737e-06
-2.83543e-06
0.000112824
-1.98825e-06
-2.72513e-06
0.00010885
-2.4923e-06
-2.49251e-06
0.00010091
-2.53419e-06
-2.14963e-06
8.91041e-05
-1.72074e-06
7.36829e-05
-2.14223e-06
2.20878e-06
-1.80882e-06
6.41343e-05
-1.89278e-06
2.1497e-06
-2.2087e-06
7.81407e-05
1.7105e-06
-2.53435e-06
8.91039e-05
9.46357e-07
-2.76478e-06
9.66453e-05
1.8586e-10
-2.88108e-06
0.000100482
-9.45993e-07
-2.88108e-06
0.000100482
-1.71017e-06
-2.76479e-06
9.66454e-05
-2.1494e-06
-2.53437e-06
8.9104e-05
-2.20854e-06
-2.20873e-06
7.81409e-05
-1.80886e-06
6.41345e-05
-1.8926e-06
1.8089e-06
5.26894e-05
-1.60205e-06
-1.60212e-06
1.72081e-06
6.41343e-05
-1.89272e-06
1.35643e-06
7.36828e-05
-2.14234e-06
7.48964e-07
8.05166e-05
-2.31997e-06
2.07323e-10
8.40692e-05
-2.41045e-06
-7.48559e-07
8.40692e-05
-2.41045e-06
-1.35605e-06
8.05167e-05
-2.31998e-06
-1.72048e-06
7.36829e-05
-2.14236e-06
-1.80864e-06
6.41345e-05
-1.89275e-06
5.26896e-05
-1.60193e-06
-1.60209e-06
3.41373e-07
3.40986e-07
5.2476e-05
-2.3456e-07
-2.34278e-07
3.9099e-07
4.82113e-07
6.39127e-05
-3.10056e-07
3.42241e-07
6.1318e-07
7.35073e-05
-3.88901e-07
1.99956e-07
7.13849e-07
8.03976e-05
-4.52494e-07
3.62498e-10
7.67162e-07
8.39881e-05
-4.86343e-07
-1.99249e-07
7.67167e-07
8.39881e-05
-4.86348e-07
-3.41585e-07
7.13866e-07
8.03977e-05
-4.52512e-07
-3.90421e-07
6.13211e-07
7.35075e-05
-3.88931e-07
-3.40914e-07
4.82165e-07
6.3913e-05
-3.10108e-07
3.4106e-07
5.24762e-05
-2.34238e-07
-2.34343e-07
4.82458e-07
3.90529e-07
6.39127e-05
-3.10314e-07
5.6439e-07
5.63982e-07
7.7977e-05
4.96551e-07
7.1839e-07
8.90666e-05
2.89529e-07
8.32591e-07
9.67337e-05
3.24433e-10
8.90721e-07
0.000100648
-2.88895e-07
8.90725e-07
0.000100648
-4.9596e-07
8.32603e-07
9.67338e-05
-5.6387e-07
7.18414e-07
8.90668e-05
-4.82035e-07
5.64023e-07
7.79772e-05
3.90594e-07
6.3913e-05
-3.10011e-07
6.13484e-07
3.4173e-07
7.35073e-05
-3.89123e-07
7.18755e-07
4.96101e-07
8.90666e-05
6.31691e-07
6.31286e-07
0.000101084
3.66983e-07
7.28362e-07
0.000109219
2.96426e-10
7.73757e-07
0.000113308
-3.66403e-07
7.73759e-07
0.000113308
-6.31149e-07
7.28369e-07
0.000109219
-7.18278e-07
6.31301e-07
0.000101084
-6.13097e-07
4.96129e-07
8.90668e-05
3.41777e-07
7.35076e-05
-3.88848e-07
7.14126e-07
1.99425e-07
8.03975e-05
-4.52696e-07
8.32927e-07
2.89058e-07
9.67336e-05
7.28739e-07
3.66556e-07
0.000109218
4.21823e-07
4.21424e-07
0.000117531
2.7862e-10
4.43768e-07
0.000121626
-4.21277e-07
4.43768e-07
0.000121626
-7.28228e-07
4.21426e-07
0.000117531
-8.32477e-07
3.66563e-07
0.000109219
-7.13762e-07
2.89071e-07
9.67338e-05
1.99449e-07
8.03978e-05
-4.52435e-07
7.67422e-07
-1.63104e-10
8.39879e-05
-4.8653e-07
8.91041e-07
-1.4635e-10
0.000100648
7.74119e-07
-1.34108e-10
0.000113308
4.44153e-07
-1.26416e-10
0.000121626
2.69953e-10
-1.22863e-10
0.000125588
-4.43623e-07
-1.23127e-10
0.000125588
-7.73624e-07
-1.27223e-10
0.000121626
-8.90605e-07
-1.35454e-10
0.000113308
-7.67069e-07
-1.48136e-10
0.000100648
-1.65167e-10
8.39882e-05
-4.86277e-07
7.67419e-07
-1.99743e-07
8.39879e-05
-4.86527e-07
8.91039e-07
-2.89344e-07
0.000100648
7.74118e-07
-3.66819e-07
0.000113308
4.44153e-07
-4.21671e-07
0.000121626
2.69736e-10
-4.44009e-07
0.000125588
-4.43623e-07
-4.44009e-07
0.000125588
-7.73623e-07
-4.21675e-07
0.000121626
-8.90603e-07
-3.66828e-07
0.000113308
-7.67066e-07
-2.89361e-07
0.000100648
-1.99771e-07
8.39881e-05
-4.86274e-07
7.14118e-07
-3.42024e-07
8.03975e-05
-4.52688e-07
8.3292e-07
-4.96367e-07
9.67335e-05
7.28735e-07
-6.31531e-07
0.000109218
4.21821e-07
-7.28594e-07
0.000117531
2.77918e-10
-7.73983e-07
0.000121626
-4.21276e-07
-7.73985e-07
0.000121626
-7.28225e-07
-7.28602e-07
0.000117531
-8.32472e-07
-6.31548e-07
0.000109219
-7.13754e-07
-4.96398e-07
9.67338e-05
-3.42076e-07
8.03977e-05
-4.52427e-07
6.13468e-07
-3.90785e-07
7.35072e-05
-3.89108e-07
7.18742e-07
-5.64216e-07
8.90665e-05
6.31682e-07
-7.18606e-07
0.000101084
3.66979e-07
-8.32794e-07
0.000109218
2.95102e-10
-8.90919e-07
0.000113308
-3.66401e-07
-8.90923e-07
0.000113308
-6.31143e-07
-8.32808e-07
0.000109219
-7.18267e-07
-7.18632e-07
0.000101084
-6.13083e-07
-5.6426e-07
8.90667e-05
-3.90853e-07
7.35075e-05
-3.88834e-07
4.82432e-07
-3.41192e-07
6.39126e-05
-3.10288e-07
5.64369e-07
-4.82303e-07
7.79769e-05
4.96536e-07
-6.13354e-07
8.90665e-05
2.8952e-07
-7.14014e-07
9.67336e-05
3.22244e-10
-7.67322e-07
0.000100648
-2.8889e-07
-7.67327e-07
0.000100648
-4.95948e-07
-7.14032e-07
9.67337e-05
-5.63852e-07
-6.13387e-07
8.90667e-05
-4.82012e-07
-4.82357e-07
7.79771e-05
-3.41269e-07
6.39129e-05
-3.09987e-07
3.41338e-07
5.24758e-05
-2.34423e-07
-2.34529e-07
3.90958e-07
6.39126e-05
-3.10192e-07
3.42215e-07
7.35072e-05
-3.89025e-07
1.99941e-07
8.03975e-05
-4.52611e-07
3.59303e-10
8.39879e-05
-4.86457e-07
-1.9924e-07
8.3988e-05
-4.86463e-07
-3.41565e-07
8.03976e-05
-4.5263e-07
-3.90393e-07
7.35074e-05
-3.89057e-07
-3.40881e-07
6.39128e-05
-3.10246e-07
5.24761e-05
-2.34209e-07
-2.3449e-07
4.21518e-07
4.20881e-07
5.23955e-05
-3.81181e-07
-3.8072e-07
3.94181e-07
5.05663e-07
6.38798e-05
-4.45356e-07
3.07485e-07
5.74762e-07
7.35195e-05
-5.00225e-07
1.6906e-07
6.24411e-07
8.04507e-05
-5.39023e-07
5.93278e-10
6.49873e-07
8.40655e-05
-5.58798e-07
-1.67902e-07
6.49882e-07
8.40655e-05
-5.58807e-07
-3.06413e-07
6.2444e-07
8.04509e-05
-5.39052e-07
-3.9325e-07
5.74813e-07
7.35198e-05
-5.00274e-07
-4.20767e-07
5.05747e-07
6.38802e-05
-4.4544e-07
4.21e-07
5.23959e-05
-3.80655e-07
-3.80824e-07
5.06233e-07
3.93422e-07
6.38797e-05
-4.4578e-07
4.83254e-07
4.8258e-07
7.8023e-05
3.80906e-07
5.55668e-07
8.91881e-05
2.10145e-07
6.07508e-07
9.69213e-05
5.3415e-10
6.33095e-07
0.000100874
-2.091e-07
6.33101e-07
0.000100874
-3.79934e-07
6.07528e-07
9.69215e-05
-4.824e-07
5.55708e-07
8.91884e-05
-5.05538e-07
4.82647e-07
7.80235e-05
3.93528e-07
6.38802e-05
-4.45285e-07
5.75266e-07
3.06643e-07
7.35194e-05
-5.00593e-07
5.56273e-07
3.80161e-07
8.9188e-05
4.41512e-07
4.4084e-07
0.000101313
2.4385e-07
4.82777e-07
0.000109541
4.89303e-10
5.01186e-07
0.000113683
-2.42892e-07
5.01189e-07
0.000113683
-4.40618e-07
4.82789e-07
0.000109541
-5.55486e-07
4.40865e-07
0.000101314
-5.74627e-07
3.80208e-07
8.91884e-05
3.06722e-07
7.35199e-05
-5.00139e-07
6.24872e-07
1.68184e-07
8.04505e-05
-5.39359e-07
6.08065e-07
2.09365e-07
9.69212e-05
4.83402e-07
2.43142e-07
0.000109541
2.66424e-07
2.65762e-07
0.000117965
4.60132e-10
2.73689e-07
0.00012212
-2.65522e-07
2.73689e-07
0.00012212
-4.82559e-07
2.65766e-07
0.000117965
-6.07323e-07
2.43152e-07
0.000109541
-6.2427e-07
2.09387e-07
9.69216e-05
1.68223e-07
8.04509e-05
-5.38928e-07
6.50306e-07
-2.72724e-10
8.40652e-05
-5.5911e-07
6.33626e-07
-2.4515e-10
0.000100874
5.01787e-07
-2.24718e-10
0.000113683
2.74329e-07
-2.1179e-10
0.000122119
4.45734e-10
-2.05791e-10
0.000126136
-2.73454e-07
-2.06253e-10
0.000126136
-5.00968e-07
-2.13208e-10
0.00012212
-6.32906e-07
-2.27006e-10
0.000113683
-6.49722e-07
-2.47925e-10
0.000100874
-2.75529e-10
8.40656e-05
-5.58692e-07
6.50301e-07
-1.68716e-07
8.40651e-05
-5.59106e-07
6.33623e-07
-2.09844e-07
0.000100874
5.01785e-07
-2.43582e-07
0.000113683
2.74329e-07
-2.66177e-07
0.000122119
4.45312e-10
-2.74093e-07
0.000126135
-2.73454e-07
-2.74094e-07
0.000126136
-5.00967e-07
-2.66183e-07
0.00012212
-6.32903e-07
-2.43597e-07
0.000113683
-6.49718e-07
-2.09871e-07
0.000100874
-1.68761e-07
8.40656e-05
-5.58688e-07
6.24858e-07
-3.07136e-07
8.04504e-05
-5.39345e-07
6.08055e-07
-3.80608e-07
9.69211e-05
4.83395e-07
-4.4125e-07
0.000109541
2.6642e-07
-4.83165e-07
0.000117965
4.58743e-10
-5.01563e-07
0.000122119
-2.65521e-07
-5.01567e-07
0.00012212
-4.82554e-07
-4.83179e-07
0.000117965
-6.07314e-07
-4.4128e-07
0.000109541
-6.24257e-07
-3.80659e-07
9.69215e-05
-3.07219e-07
8.04508e-05
-5.38914e-07
5.7524e-07
-3.93851e-07
7.35192e-05
-5.00569e-07
5.56252e-07
-4.82972e-07
8.91879e-05
4.41497e-07
-5.5603e-07
0.000101313
2.43842e-07
-6.07849e-07
0.000109541
4.86718e-10
-6.33427e-07
0.000113683
-2.42889e-07
-6.33434e-07
0.000113683
-4.40608e-07
-6.07872e-07
0.000109541
-5.55469e-07
-5.56073e-07
0.000101313
-5.74605e-07
-4.83043e-07
8.91882e-05
-3.9396e-07
7.35197e-05
-5.00117e-07
5.06191e-07
-4.21227e-07
6.38795e-05
-4.4574e-07
4.83219e-07
-5.05982e-07
7.80229e-05
3.80881e-07
-5.75055e-07
8.91879e-05
2.10129e-07
-6.24688e-07
9.69212e-05
5.29943e-10
-6.50142e-07
0.000100874
-2.09093e-07
-6.50151e-07
0.000100874
-3.79915e-07
-6.24718e-07
9.69213e-05
-4.82371e-07
-5.75108e-07
8.91882e-05
-5.05501e-07
-5.06069e-07
7.80233e-05
-4.21348e-07
6.388e-05
-4.45246e-07
4.21459e-07
5.23953e-05
-3.80963e-07
-3.81131e-07
3.94127e-07
6.38795e-05
-4.45584e-07
3.07443e-07
7.35193e-05
-5.00434e-07
1.69034e-07
8.04504e-05
-5.39221e-07
5.87158e-10
8.40652e-05
-5.58991e-07
-1.67889e-07
8.40653e-05
-5.59e-07
-3.06381e-07
8.04506e-05
-5.39251e-07
-3.93204e-07
7.35196e-05
-5.00484e-07
-4.20714e-07
6.388e-05
-4.4567e-07
5.23957e-05
-3.80609e-07
-3.81068e-07
7.44851e-08
7.35e-08
5.2347e-05
-5.01097e-08
-4.94003e-08
8.61334e-08
1.04829e-07
6.38294e-05
-6.61209e-08
7.56608e-08
1.33924e-07
7.34799e-05
-8.38124e-08
4.45791e-08
1.56491e-07
8.04236e-05
-9.82973e-08
9.10633e-10
1.68623e-07
8.40466e-05
-1.06091e-07
-4.28029e-08
1.68637e-07
8.40467e-05
-1.06104e-07
-7.40163e-08
1.56534e-07
8.04239e-05
-9.83405e-08
-8.47058e-08
1.34002e-07
7.34804e-05
-8.38847e-08
-7.33358e-08
1.04956e-07
6.38301e-05
-6.62461e-08
7.36789e-08
5.23478e-05
-4.93058e-08
-4.95521e-08
1.05716e-07
8.49562e-08
6.38293e-05
-6.67794e-08
1.24232e-07
1.23179e-07
7.79862e-05
1.09402e-07
1.57213e-07
8.91796e-05
6.41274e-08
1.82905e-07
9.69402e-05
8.26132e-10
1.96422e-07
0.00010091
-6.25126e-08
1.96432e-07
0.00010091
-1.07899e-07
1.82938e-07
9.69405e-05
-1.22913e-07
1.57276e-07
8.91801e-05
-1.04645e-07
1.23283e-07
7.79869e-05
8.51166e-08
6.38301e-05
-6.60156e-08
1.34713e-07
7.43528e-08
7.34797e-05
-8.43848e-08
1.58162e-07
1.08237e-07
8.91795e-05
1.39267e-07
1.3821e-07
0.000101351
8.14247e-08
1.60673e-07
0.000109621
7.6038e-10
1.72001e-07
0.000113788
-7.99368e-08
1.72007e-07
0.000113788
-1.37878e-07
1.60693e-07
0.000109621
-1.56941e-07
1.38251e-07
0.000101352
-1.33724e-07
1.08309e-07
8.91801e-05
7.44737e-08
7.34805e-05
-8.36829e-08
1.57214e-07
4.32177e-08
8.04232e-05
-9.88238e-08
1.83782e-07
6.29071e-08
9.694e-05
1.61657e-07
8.03118e-08
0.000109621
9.46115e-08
9.35688e-08
0.000118099
7.1679e-10
1.00006e-07
0.000122285
-9.32075e-08
1.00007e-07
0.000122286
-1.60345e-07
9.35759e-08
0.000118099
-1.82628e-07
8.03295e-08
0.000109621
-1.56278e-07
6.29421e-08
9.69406e-05
4.32796e-08
8.0424e-05