/*--------------------------------*- C++ -*----------------------------------*\
| =========                 |                                                 |
| \\      /  F ield         | OpenFOAM: The Open Source CFD Toolbox           |
|  \\    /   O peration     | Version:  2406                                  |
|   \\  /    A nd           | Website:  www.openfoam.com                      |
|    \\/     M anipulation  |                                                 |
\*---------------------------------------------------------------------------*/
FoamFile
{
    version     2.0;
    format      ascii;
    arch        "LSB;label=32;scalar=64";
    class       volSymmTensorField;
    location    "1.7";
    object      turbulenceProperties:devReff;
}
// * * * * * * * * * * * * * * * * * * * * * * * * * * * * * * * * * * * * * //

dimensions      [0 2 -2 0 0 0 0];

internalField   nonuniform List<symmTensor> 
25000
(
(0.0299563 -0.0224532 -0.0712219 0.0299563 -0.0712219 -0.0599127)
(0.0517356 -0.0117214 -0.0452861 0.0323427 -0.0646243 -0.0840783)
(0.059272 -0.0064301 -0.0276441 0.0382213 -0.0555026 -0.0974933)
(0.0629759 -0.00293756 -0.0148553 0.0419236 -0.0491107 -0.104899)
(0.0645707 -0.000869119 -0.00466898 0.0437114 -0.0459723 -0.108282)
(0.0645707 0.000869121 0.00466896 0.0437114 -0.0459723 -0.108282)
(0.0629759 0.00293756 0.0148553 0.0419236 -0.0491107 -0.104899)
(0.059272 0.0064301 0.0276441 0.0382213 -0.0555026 -0.0974933)
(0.0517356 0.0117214 0.0452861 0.0323427 -0.0646243 -0.0840783)
(0.0299563 0.0224532 0.0712219 0.0299563 -0.0712219 -0.0599127)
(0.0323427 -0.0117214 -0.0646243 0.0517356 -0.0452861 -0.0840783)
(0.0533624 -0.00548257 -0.036388 0.0533624 -0.036388 -0.106725)
(0.0599938 -0.00298884 -0.0199666 0.0562603 -0.0302356 -0.116254)
(0.0628635 -0.00133092 -0.0100323 0.0578618 -0.0263915 -0.120725)
(0.0639856 -0.000367782 -0.00305291 0.0585799 -0.0245581 -0.122566)
(0.0639856 0.000367783 0.0030529 0.0585799 -0.0245581 -0.122566)
(0.0628635 0.00133092 0.0100323 0.0578618 -0.0263915 -0.120725)
(0.0599938 0.00298884 0.0199665 0.0562603 -0.0302356 -0.116254)
(0.0533624 0.00548257 0.036388 0.0533624 -0.036388 -0.106725)
(0.0323427 0.0117214 0.0646243 0.0517356 -0.0452861 -0.0840783)
(0.0382213 -0.0064301 -0.0555026 0.059272 -0.0276441 -0.0974933)
(0.0562603 -0.00298884 -0.0302356 0.0599938 -0.0199665 -0.116254)
(0.0618153 -0.0015802 -0.0158052 0.0618153 -0.0158052 -0.123631)
(0.0638589 -0.000657378 -0.00756055 0.0628412 -0.0135042 -0.1267)
(0.0645098 -0.000165326 -0.00223427 0.0632817 -0.0124685 -0.127792)
(0.0645098 0.000165327 0.00223426 0.0632817 -0.0124685 -0.127792)
(0.0638589 0.000657378 0.00756054 0.0628412 -0.0135042 -0.1267)
(0.0618153 0.0015802 0.0158052 0.0618153 -0.0158052 -0.123631)
(0.0562603 0.00298884 0.0302356 0.0599938 -0.0199665 -0.116254)
(0.0382213 0.0064301 0.0555026 0.059272 -0.0276441 -0.0974933)
(0.0419235 -0.00293756 -0.0491107 0.0629759 -0.0148553 -0.104899)
(0.0578618 -0.00133092 -0.0263915 0.0628635 -0.0100323 -0.120725)
(0.0628412 -0.000657378 -0.0135042 0.0638589 -0.00756054 -0.1267)
(0.0644339 -0.000235843 -0.00630024 0.0644339 -0.00630023 -0.128868)
(0.0648108 -4.81912e-05 -0.00183225 0.0646731 -0.00576759 -0.129484)
(0.0648108 4.81916e-05 0.00183224 0.0646731 -0.00576759 -0.129484)
(0.0644339 0.000235843 0.00630023 0.0644339 -0.00630023 -0.128868)
(0.0628412 0.000657378 0.0135042 0.0638589 -0.00756054 -0.1267)
(0.0578618 0.00133092 0.0263915 0.0628635 -0.0100323 -0.120725)
(0.0419236 0.00293756 0.0491107 0.0629759 -0.0148553 -0.104899)
(0.0437114 -0.000869121 -0.0459723 0.0645707 -0.00466897 -0.108282)
(0.0585799 -0.000367783 -0.0245581 0.0639856 -0.0030529 -0.122566)
(0.0632817 -0.000165327 -0.0124685 0.0645098 -0.00223426 -0.127792)
(0.0646731 -4.81915e-05 -0.0057676 0.0648108 -0.00183224 -0.129484)
(0.0649272 -6.30785e-06 -0.0016686 0.0649272 -0.00166859 -0.129854)
(0.0649272 6.30814e-06 0.00166858 0.0649272 -0.00166859 -0.129854)
(0.0646731 4.81916e-05 0.00576758 0.0648108 -0.00183224 -0.129484)
(0.0632817 0.000165327 0.0124685 0.0645098 -0.00223426 -0.127792)
(0.0585799 0.000367783 0.0245581 0.0639856 -0.0030529 -0.122566)
(0.0437114 0.00086912 0.0459723 0.0645707 -0.00466897 -0.108282)
(0.0437114 0.00086912 -0.0459723 0.0645707 0.00466897 -0.108282)
(0.0585799 0.000367782 -0.0245581 0.0639856 0.00305291 -0.122566)
(0.0632817 0.000165326 -0.0124685 0.0645098 0.00223427 -0.127792)
(0.0646731 4.81913e-05 -0.0057676 0.0648108 0.00183225 -0.129484)
(0.0649272 6.30797e-06 -0.0016686 0.0649272 0.00166859 -0.129854)
(0.0649272 -6.30779e-06 0.00166858 0.0649272 0.00166859 -0.129854)
(0.0646731 -4.81911e-05 0.00576758 0.0648108 0.00183225 -0.129484)
(0.0632817 -0.000165326 0.0124685 0.0645098 0.00223427 -0.127792)
(0.0585799 -0.000367782 0.0245581 0.0639856 0.00305291 -0.122566)
(0.0437114 -0.00086912 0.0459723 0.0645707 0.00466897 -0.108282)
(0.0419235 0.00293756 -0.0491107 0.0629759 0.0148553 -0.104899)
(0.0578618 0.00133092 -0.0263915 0.0628635 0.0100323 -0.120725)
(0.0628412 0.000657378 -0.0135042 0.0638589 0.00756055 -0.1267)
(0.0644339 0.000235843 -0.00630024 0.0644339 0.00630023 -0.128868)
(0.0648108 4.81914e-05 -0.00183225 0.0646731 0.00576759 -0.129484)
(0.0648108 -4.81913e-05 0.00183224 0.0646731 0.00576759 -0.129484)
(0.0644339 -0.000235842 0.00630023 0.0644339 0.00630023 -0.128868)
(0.0628412 -0.000657378 0.0135042 0.0638589 0.00756055 -0.1267)
(0.0578618 -0.00133092 0.0263915 0.0628635 0.0100323 -0.120725)
(0.0419236 -0.00293756 0.0491107 0.0629759 0.0148553 -0.104899)
(0.0382213 0.0064301 -0.0555026 0.059272 0.0276441 -0.0974933)
(0.0562603 0.00298884 -0.0302356 0.0599938 0.0199665 -0.116254)
(0.0618153 0.0015802 -0.0158052 0.0618153 0.0158052 -0.123631)
(0.0638589 0.000657378 -0.00756055 0.0628412 0.0135042 -0.1267)
(0.0645098 0.000165327 -0.00223427 0.0632817 0.0124685 -0.127792)
(0.0645098 -0.000165327 0.00223426 0.0632817 0.0124685 -0.127792)
(0.0638589 -0.000657378 0.00756054 0.0628412 0.0135042 -0.1267)
(0.0618153 -0.0015802 0.0158052 0.0618153 0.0158052 -0.123631)
(0.0562603 -0.00298884 0.0302356 0.0599938 0.0199665 -0.116254)
(0.0382213 -0.0064301 0.0555026 0.059272 0.0276441 -0.0974933)
(0.0323427 0.0117214 -0.0646243 0.0517356 0.0452861 -0.0840783)
(0.0533624 0.00548257 -0.036388 0.0533624 0.036388 -0.106725)
(0.0599938 0.00298884 -0.0199666 0.0562603 0.0302356 -0.116254)
(0.0628635 0.00133092 -0.0100323 0.0578618 0.0263915 -0.120725)
(0.0639856 0.000367783 -0.00305291 0.0585799 0.0245581 -0.122566)
(0.0639856 -0.000367783 0.0030529 0.0585799 0.0245581 -0.122566)
(0.0628635 -0.00133092 0.0100323 0.0578618 0.0263915 -0.120725)
(0.0599938 -0.00298884 0.0199665 0.0562603 0.0302356 -0.116254)
(0.0533624 -0.00548257 0.036388 0.0533624 0.036388 -0.106725)
(0.0323427 -0.0117214 0.0646243 0.0517356 0.0452861 -0.0840783)
(0.0299563 0.0224532 -0.0712219 0.0299563 0.0712219 -0.0599127)
(0.0517356 0.0117214 -0.0452861 0.0323427 0.0646243 -0.0840783)
(0.059272 0.0064301 -0.0276441 0.0382213 0.0555026 -0.0974933)
(0.0629759 0.00293756 -0.0148553 0.0419235 0.0491107 -0.104899)
(0.0645707 0.00086912 -0.00466898 0.0437114 0.0459723 -0.108282)
(0.0645707 -0.00086912 0.00466896 0.0437114 0.0459723 -0.108282)
(0.0629759 -0.00293756 0.0148553 0.0419236 0.0491107 -0.104899)
(0.059272 -0.0064301 0.0276441 0.0382213 0.0555026 -0.0974933)
(0.0517356 -0.0117214 0.0452861 0.0323427 0.0646243 -0.0840783)
(0.0299563 -0.0224532 0.0712219 0.0299563 0.0712219 -0.0599127)
(-0.000346212 -0.0176335 -0.109334 -0.0003462 -0.109334 0.000692411)
(0.0130362 -0.0158517 -0.0753242 0.00086482 -0.107229 -0.0139011)
(0.0225321 -0.0121473 -0.0477166 0.0029313 -0.0951952 -0.0254634)
(0.029799 -0.00758706 -0.0260272 0.00446532 -0.0852128 -0.0342643)
(0.0334956 -0.00254408 -0.00822171 0.00529111 -0.0798892 -0.0387867)
(0.0334956 0.00254409 0.00822167 0.00529111 -0.0798892 -0.0387867)
(0.029799 0.00758707 0.0260272 0.00446533 -0.0852128 -0.0342643)
(0.0225321 0.0121473 0.0477166 0.00293132 -0.0951952 -0.0254634)
(0.0130363 0.0158517 0.0753241 0.00086484 -0.107229 -0.0139011)
(-0.000346173 0.0176335 0.109334 -0.00034618 -0.109334 0.000692353)
(0.000864809 -0.0158517 -0.107229 0.0130362 -0.0753241 -0.0139011)
(0.0167974 -0.0142716 -0.0636985 0.0167974 -0.0636985 -0.0335948)
(0.0286922 -0.0106815 -0.0347538 0.0200798 -0.052638 -0.048772)
(0.0365378 -0.00647937 -0.0168853 0.0221462 -0.0444211 -0.058684)
(0.0401445 -0.00215617 -0.00499875 0.0231478 -0.0401318 -0.0632923)
(0.0401445 0.00215617 0.00499871 0.0231478 -0.0401318 -0.0632923)
(0.0365378 0.00647938 0.0168852 0.0221462 -0.0444211 -0.058684)
(0.0286923 0.0106815 0.0347537 0.0200798 -0.052638 -0.0487721)
(0.0167974 0.0142716 0.0636985 0.0167974 -0.0636985 -0.0335948)
(0.000864845 0.0158517 0.107229 0.0130363 -0.0753241 -0.0139011)
(0.00293129 -0.0121473 -0.0951952 0.0225321 -0.0477166 -0.0254634)
(0.0200798 -0.0106815 -0.052638 0.0286922 -0.0347538 -0.048772)
(0.0326131 -0.00764458 -0.025719 0.0326131 -0.0257189 -0.0652262)
(0.0398865 -0.00449384 -0.0110617 0.0346349 -0.0198743 -0.0745214)
(0.0430418 -0.00148017 -0.00300639 0.0355699 -0.0170116 -0.0786117)
(0.0430418 0.00148017 0.00300636 0.0355699 -0.0170116 -0.0786117)
(0.0398865 0.00449384 0.0110617 0.0346349 -0.0198743 -0.0745214)
(0.0326131 0.00764458 0.0257189 0.0326131 -0.0257189 -0.0652262)
(0.0200798 0.0106815 0.052638 0.0286923 -0.0347537 -0.0487721)
(0.00293133 0.0121473 0.0951952 0.0225321 -0.0477166 -0.0254634)
(0.0044653 -0.00758707 -0.0852128 0.029799 -0.0260272 -0.0342643)
(0.0221462 -0.00647937 -0.0444211 0.0365378 -0.0168852 -0.058684)
(0.0346349 -0.00449384 -0.0198743 0.0398865 -0.0110617 -0.0745214)
(0.0415446 -0.00260287 -0.00758092 0.0415446 -0.0075809 -0.0830892)
(0.0445168 -0.000856457 -0.00184201 0.0423564 -0.00592329 -0.0868732)
(0.0445168 0.00085646 0.00184198 0.0423564 -0.00592329 -0.0868732)
(0.0415446 0.00260287 0.00758089 0.0415446 -0.0075809 -0.0830893)
(0.0346349 0.00449384 0.0198743 0.0398865 -0.0110617 -0.0745214)
(0.0221462 0.00647937 0.0444211 0.0365378 -0.0168852 -0.058684)
(0.00446533 0.00758707 0.0852128 0.029799 -0.0260272 -0.0342643)
(0.00529109 -0.00254409 -0.0798892 0.0334956 -0.00822168 -0.0387867)
(0.0231478 -0.00215617 -0.0401318 0.0401445 -0.00499872 -0.0632923)
(0.0355699 -0.00148017 -0.0170116 0.0430418 -0.00300637 -0.0786117)
(0.0423564 -0.000856459 -0.00592331 0.0445168 -0.00184199 -0.0868732)
(0.0452763 -0.00028285 -0.00129196 0.0452763 -0.00129194 -0.0905526)
(0.0452763 0.000282851 0.00129193 0.0452763 -0.00129194 -0.0905526)
(0.0423564 0.000856459 0.00592328 0.0445168 -0.00184199 -0.0868732)
(0.0355699 0.00148017 0.0170116 0.0430418 -0.00300637 -0.0786117)
(0.0231478 0.00215617 0.0401317 0.0401445 -0.00499872 -0.0632923)
(0.00529112 0.00254409 0.0798892 0.0334956 -0.00822168 -0.0387868)
(0.00529109 0.00254408 -0.0798892 0.0334956 0.0082217 -0.0387867)
(0.0231478 0.00215617 -0.0401318 0.0401445 0.00499874 -0.0632923)
(0.0355699 0.00148017 -0.0170116 0.0430418 0.00300638 -0.0786117)
(0.0423564 0.000856457 -0.00592331 0.0445168 0.001842 -0.0868732)
(0.0452763 0.00028285 -0.00129196 0.0452763 0.00129195 -0.0905526)
(0.0452763 -0.00028285 0.00129193 0.0452763 0.00129195 -0.0905526)
(0.0423564 -0.000856458 0.00592328 0.0445168 0.001842 -0.0868732)
(0.0355699 -0.00148017 0.0170116 0.0430418 0.00300638 -0.0786117)
(0.0231478 -0.00215617 0.0401317 0.0401445 0.00499874 -0.0632923)
(0.00529112 -0.00254408 0.0798892 0.0334956 0.0082217 -0.0387868)
(0.0044653 0.00758707 -0.0852128 0.029799 0.0260272 -0.0342643)
(0.0221462 0.00647937 -0.0444211 0.0365378 0.0168852 -0.058684)
(0.0346349 0.00449384 -0.0198743 0.0398865 0.0110617 -0.0745214)
(0.0415446 0.00260287 -0.00758092 0.0415446 0.00758091 -0.0830892)
(0.0445168 0.000856457 -0.00184201 0.0423564 0.0059233 -0.0868732)
(0.0445168 -0.000856459 0.00184198 0.0423564 0.0059233 -0.0868732)
(0.0415446 -0.00260287 0.00758089 0.0415446 0.00758091 -0.0830892)
(0.0346349 -0.00449384 0.0198743 0.0398865 0.0110617 -0.0745214)
(0.0221462 -0.00647937 0.0444211 0.0365378 0.0168852 -0.058684)
(0.00446533 -0.00758706 0.0852128 0.029799 0.0260272 -0.0342643)
(0.00293128 0.0121473 -0.0951952 0.0225321 0.0477166 -0.0254633)
(0.0200798 0.0106815 -0.052638 0.0286922 0.0347538 -0.048772)
(0.0326131 0.00764458 -0.025719 0.0326131 0.0257189 -0.0652262)
(0.0398865 0.00449384 -0.0110617 0.0346349 0.0198743 -0.0745214)
(0.0430418 0.00148017 -0.00300639 0.0355699 0.0170116 -0.0786117)
(0.0430418 -0.00148017 0.00300636 0.0355699 0.0170116 -0.0786117)
(0.0398865 -0.00449384 0.0110617 0.0346349 0.0198743 -0.0745214)
(0.0326131 -0.00764458 0.0257189 0.0326131 0.0257189 -0.0652262)
(0.0200798 -0.0106815 0.052638 0.0286923 0.0347538 -0.048772)
(0.00293132 -0.0121473 0.0951952 0.0225321 0.0477166 -0.0254634)
(0.000864801 0.0158517 -0.107229 0.0130362 0.0753241 -0.013901)
(0.0167974 0.0142716 -0.0636985 0.0167974 0.0636985 -0.0335948)
(0.0286922 0.0106815 -0.0347538 0.0200798 0.052638 -0.048772)
(0.0365378 0.00647937 -0.0168853 0.0221462 0.0444211 -0.058684)
(0.0401445 0.00215617 -0.00499875 0.0231478 0.0401318 -0.0632923)
(0.0401445 -0.00215617 0.00499871 0.0231478 0.0401318 -0.0632923)
(0.0365378 -0.00647938 0.0168852 0.0221462 0.0444211 -0.058684)
(0.0286923 -0.0106815 0.0347537 0.0200798 0.052638 -0.048772)
(0.0167974 -0.0142716 0.0636985 0.0167974 0.0636985 -0.0335948)
(0.000864835 -0.0158517 0.107229 0.0130363 0.0753241 -0.0139011)
(-0.00034622 0.0176336 -0.109334 -0.000346216 0.109334 0.000692436)
(0.0130362 0.0158517 -0.0753242 0.000864805 0.107229 -0.013901)
(0.0225321 0.0121473 -0.0477166 0.00293129 0.0951952 -0.0254633)
(0.029799 0.00758706 -0.0260272 0.0044653 0.0852128 -0.0342643)
(0.0334956 0.00254408 -0.00822171 0.0052911 0.0798892 -0.0387867)
(0.0334956 -0.00254409 0.00822167 0.0052911 0.0798892 -0.0387867)
(0.029799 -0.00758707 0.0260272 0.00446531 0.0852128 -0.0342643)
(0.0225321 -0.0121473 0.0477166 0.00293131 0.0951952 -0.0254634)
(0.0130363 -0.0158517 0.0753241 0.000864826 0.107229 -0.0139011)
(-0.000346184 -0.0176335 0.109334 -0.000346194 0.109334 0.000692378)
(-0.00822233 -0.015605 -0.149044 -0.00822231 -0.149044 0.0164446)
(0.00155586 -0.0119025 -0.115965 -0.00932375 -0.1594 0.00776788)
(0.0073739 -0.00905233 -0.0805688 -0.00845934 -0.15371 0.00108544)
(0.012009 -0.00568153 -0.0470854 -0.0077527 -0.146888 -0.00425626)
(0.0145489 -0.00192838 -0.0154483 -0.00736473 -0.142943 -0.00718415)
(0.0145489 0.00192839 0.0154481 -0.00736472 -0.142943 -0.00718417)
(0.012009 0.00568154 0.0470853 -0.00775268 -0.146888 -0.00425631)
(0.00737394 0.00905233 0.0805687 -0.00845931 -0.153709 0.00108537)
(0.00155593 0.0119025 0.115965 -0.00932371 -0.1594 0.00776778)
(-0.00822225 0.015605 0.149044 -0.00822227 -0.149044 0.0164445)
(-0.00932377 -0.0119025 -0.1594 0.00155588 -0.115965 0.00776789)
(0.00210196 -0.009743 -0.111467 0.00210198 -0.111467 -0.00420393)
(0.0097974 -0.00760092 -0.0712786 0.00392891 -0.103807 -0.0137263)
(0.0157401 -0.0048034 -0.0395887 0.00531028 -0.0973344 -0.0210504)
(0.0189157 -0.00163843 -0.0126781 0.00606768 -0.0938081 -0.0249834)
(0.0189157 0.00163844 0.012678 0.00606768 -0.0938081 -0.0249834)
(0.0157401 0.00480341 0.0395886 0.0053103 -0.0973344 -0.0210504)
(0.00979744 0.00760092 0.0712785 0.00392894 -0.103807 -0.0137264)
(0.00210202 0.009743 0.111467 0.00210201 -0.111467 -0.00420403)
(-0.0093237 0.0119025 0.1594 0.00155592 -0.115965 0.00776778)
(-0.00845937 -0.00905233 -0.15371 0.0073739 -0.0805688 0.00108547)
(0.00392889 -0.00760092 -0.103807 0.0097974 -0.0712786 -0.0137263)
(0.0129933 -0.0058286 -0.0642861 0.0129933 -0.064286 -0.0259865)
(0.019844 -0.00363425 -0.0347085 0.0153284 -0.0594814 -0.0351725)
(0.0234341 -0.00123485 -0.0109292 0.0165644 -0.0569944 -0.0399985)
(0.0234342 0.00123486 0.0109291 0.0165644 -0.0569944 -0.0399986)
(0.019844 0.00363425 0.0347084 0.0153284 -0.0594814 -0.0351725)
(0.0129933 0.0058286 0.064286 0.0129933 -0.064286 -0.0259866)
(0.00392895 0.00760092 0.103807 0.00979743 -0.0712786 -0.0137264)
(-0.0084593 0.00905233 0.153709 0.00737394 -0.0805687 0.00108536)
(-0.00775274 -0.00568154 -0.146888 0.012009 -0.0470853 -0.00425622)
(0.00531025 -0.0048034 -0.0973345 0.0157401 -0.0395886 -0.0210503)
(0.0153284 -0.00363425 -0.0594815 0.019844 -0.0347084 -0.0351724)
(0.0227442 -0.0022457 -0.0316165 0.0227443 -0.0316164 -0.0454885)
(0.0265163 -0.000760713 -0.00984187 0.0241648 -0.0300466 -0.050681)
(0.0265163 0.00076072 0.00984179 0.0241648 -0.0300466 -0.0506811)
(0.0227443 0.0022457 0.0316164 0.0227443 -0.0316164 -0.0454885)
(0.0153285 0.00363425 0.0594814 0.019844 -0.0347084 -0.0351725)
(0.00531031 0.00480341 0.0973344 0.0157401 -0.0395886 -0.0210504)
(-0.00775267 0.00568154 0.146888 0.012009 -0.0470853 -0.00425632)
(-0.00736478 -0.00192839 -0.142943 0.0145489 -0.0154482 -0.00718409)
(0.00606764 -0.00163844 -0.0938082 0.0189157 -0.012678 -0.0249834)
(0.0165644 -0.00123485 -0.0569944 0.0234341 -0.0109292 -0.0399985)
(0.0241648 -0.000760716 -0.0300467 0.0265163 -0.00984181 -0.050681)
(0.0279116 -0.000257712 -0.00929828 0.0279116 -0.00929822 -0.0558232)
(0.0279116 0.000257715 0.0092982 0.0279116 -0.00929822 -0.0558232)
(0.0241648 0.000760719 0.0300466 0.0265163 -0.00984181 -0.0506811)
(0.0165644 0.00123485 0.0569943 0.0234342 -0.0109292 -0.0399986)
(0.0060677 0.00163844 0.0938081 0.0189158 -0.012678 -0.0249835)
(-0.0073647 0.00192839 0.142943 0.0145489 -0.0154482 -0.0071842)
(-0.00736478 0.00192838 -0.142943 0.0145489 0.0154482 -0.00718408)
(0.00606764 0.00163843 -0.0938082 0.0189157 0.012678 -0.0249834)
(0.0165644 0.00123485 -0.0569944 0.0234341 0.0109292 -0.0399985)
(0.0241648 0.000760713 -0.0300467 0.0265163 0.00984185 -0.050681)
(0.0279116 0.000257711 -0.00929828 0.0279116 0.00929826 -0.0558232)
(0.0279116 -0.000257713 0.0092982 0.0279116 0.00929826 -0.0558232)
(0.0241648 -0.000760715 0.0300466 0.0265163 0.00984185 -0.0506811)
(0.0165644 -0.00123485 0.0569943 0.0234342 0.0109292 -0.0399986)
(0.0060677 -0.00163843 0.0938081 0.0189157 0.012678 -0.0249834)
(-0.00736471 -0.00192838 0.142943 0.0145489 0.0154482 -0.00718419)
(-0.00775275 0.00568153 -0.146888 0.0120089 0.0470854 -0.0042562)
(0.00531025 0.0048034 -0.0973345 0.0157401 0.0395887 -0.0210503)
(0.0153284 0.00363425 -0.0594815 0.019844 0.0347085 -0.0351724)
(0.0227442 0.00224569 -0.0316165 0.0227442 0.0316164 -0.0454885)
(0.0265163 0.000760713 -0.00984187 0.0241648 0.0300467 -0.050681)
(0.0265163 -0.000760718 0.00984179 0.0241648 0.0300467 -0.050681)
(0.0227443 -0.0022457 0.0316164 0.0227443 0.0316164 -0.0454885)
(0.0153285 -0.00363425 0.0594814 0.019844 0.0347085 -0.0351725)
(0.00531031 -0.0048034 0.0973344 0.0157401 0.0395887 -0.0210504)
(-0.00775268 -0.00568153 0.146888 0.012009 0.0470853 -0.0042563)
(-0.00845938 0.00905233 -0.15371 0.00737388 0.0805688 0.0010855)
(0.00392888 0.00760092 -0.103807 0.00979739 0.0712786 -0.0137263)
(0.0129932 0.0058286 -0.0642861 0.0129932 0.0642861 -0.0259865)
(0.019844 0.00363424 -0.0347085 0.0153284 0.0594815 -0.0351724)
(0.0234341 0.00123485 -0.0109292 0.0165644 0.0569944 -0.0399985)
(0.0234341 -0.00123485 0.0109291 0.0165644 0.0569944 -0.0399985)
(0.019844 -0.00363425 0.0347084 0.0153284 0.0594815 -0.0351725)
(0.0129933 -0.0058286 0.064286 0.0129933 0.0642861 -0.0259865)
(0.00392894 -0.00760092 0.103807 0.00979742 0.0712786 -0.0137264)
(-0.00845931 -0.00905232 0.153709 0.00737392 0.0805688 0.00108539)
(-0.00932379 0.0119025 -0.1594 0.00155585 0.115965 0.00776793)
(0.00210194 0.00974299 -0.111467 0.00210195 0.111467 -0.0042039)
(0.00979738 0.00760091 -0.0712786 0.00392889 0.103807 -0.0137263)
(0.0157401 0.0048034 -0.0395887 0.00531026 0.0973345 -0.0210503)
(0.0189157 0.00163843 -0.0126781 0.00606765 0.0938082 -0.0249834)
(0.0189157 -0.00163844 0.012678 0.00606766 0.0938082 -0.0249834)
(0.0157401 -0.00480341 0.0395886 0.00531028 0.0973345 -0.0210504)
(0.00979742 -0.00760092 0.0712785 0.00392891 0.103807 -0.0137263)
(0.002102 -0.00974299 0.111467 0.00210198 0.111467 -0.00420399)
(-0.00932372 -0.0119025 0.1594 0.00155589 0.115965 0.00776782)
(-0.00822235 0.015605 -0.149044 -0.00822234 0.149044 0.0164447)
(0.00155585 0.0119025 -0.115965 -0.00932378 0.1594 0.00776793)
(0.00737388 0.00905233 -0.0805688 -0.00845937 0.15371 0.00108549)
(0.0120089 0.00568153 -0.0470854 -0.00775273 0.146888 -0.00425622)
(0.0145489 0.00192838 -0.0154483 -0.00736476 0.142943 -0.00718411)
(0.0145489 -0.00192839 0.0154481 -0.00736475 0.142943 -0.00718413)
(0.012009 -0.00568154 0.0470853 -0.00775271 0.146888 -0.00425626)
(0.00737392 -0.00905233 0.0805687 -0.00845934 0.15371 0.00108542)
(0.00155591 -0.0119025 0.115965 -0.00932374 0.1594 0.00776783)
(-0.00822227 -0.015605 0.149044 -0.0082223 0.149044 0.0164446)
(-0.00221783 -0.00431691 -0.153902 -0.00221778 -0.153901 0.00443562)
(0.000158648 -0.00467656 -0.124342 -0.00299586 -0.169419 0.00283721)
(0.00278503 -0.00407468 -0.0893571 -0.00344232 -0.168126 0.000657292)
(0.0050926 -0.00273896 -0.0535636 -0.00368502 -0.164347 -0.00140758)
(0.00640223 -0.000958172 -0.0178171 -0.00377701 -0.161925 -0.00262522)
(0.00640225 0.000958209 0.0178169 -0.00377699 -0.161925 -0.00262525)
(0.00509264 0.00273899 0.0535633 -0.00368497 -0.164347 -0.00140767)
(0.0027851 0.0040747 0.0893569 -0.00344225 -0.168126 0.000657143)
(0.00015877 0.00467656 0.124342 -0.00299577 -0.169419 0.002837)
(-0.00221767 0.00431689 0.153901 -0.00221769 -0.153901 0.00443536)
(-0.0029959 -0.00467657 -0.169419 0.000158675 -0.124342 0.00283722)
(0.000241713 -0.00498144 -0.125034 0.000241747 -0.125034 -0.00048346)
(0.00410331 -0.00419861 -0.0841998 0.000460155 -0.121138 -0.00456346)
(0.00731969 -0.00276007 -0.0486291 0.000769764 -0.117009 -0.00808946)
(0.00909503 -0.000956856 -0.0159086 0.00100654 -0.114614 -0.0101016)
(0.00909504 0.000956886 0.0159084 0.00100655 -0.114614 -0.0101016)
(0.00731974 0.00276009 0.0486289 0.000769798 -0.117009 -0.00808954)
(0.00410338 0.00419863 0.0841996 0.00046021 -0.121138 -0.00456359)
(0.000241827 0.00498145 0.125034 0.000241816 -0.125034 -0.000483644)
(-0.00299576 0.00467656 0.169419 0.000158761 -0.124342 0.002837)
(-0.00344237 -0.0040747 -0.168126 0.00278502 -0.089357 0.000657343)
(0.000460111 -0.00419862 -0.121138 0.00410332 -0.0841997 -0.00456343)
(0.0052617 -0.0034019 -0.0799296 0.00526172 -0.0799294 -0.0105234)
(0.00917791 -0.00216626 -0.0454301 0.00629554 -0.0767936 -0.0154735)
(0.0113315 -0.000736251 -0.014754 0.00695771 -0.0751705 -0.0182892)
(0.0113315 0.000736274 0.0147538 0.00695772 -0.0751705 -0.0182892)
(0.00917796 0.00216628 0.0454299 0.00629557 -0.0767935 -0.0154735)
(0.00526178 0.00340192 0.0799294 0.00526177 -0.0799294 -0.0105235)
(0.000460225 0.00419863 0.121138 0.00410338 -0.0841997 -0.0045636)
(-0.00344223 0.00407469 0.168126 0.0027851 -0.0893569 0.000657123)
(-0.00368509 -0.00273899 -0.164347 0.00509258 -0.0535634 -0.00140749)
(0.000769705 -0.00276008 -0.117009 0.00731969 -0.048629 -0.00808939)
(0.00629551 -0.00216626 -0.0767937 0.00917792 -0.04543 -0.0154734)
(0.0108025 -0.00131298 -0.0435291 0.0108025 -0.043529 -0.021605)
(0.0133738 -0.00042687 -0.0141837 0.0118607 -0.0427242 -0.0252346)
(0.0133739 0.000426886 0.0141835 0.0118607 -0.0427242 -0.0252346)
(0.0108025 0.00131299 0.0435289 0.0108025 -0.043529 -0.0216051)
(0.00629559 0.00216627 0.0767935 0.00917796 -0.0454299 -0.0154735)
(0.00076982 0.00276009 0.117009 0.00731974 -0.0486289 -0.00808956)
(-0.00368495 0.00273898 0.164347 0.00509265 -0.0535634 -0.0014077)
(-0.0037771 -0.000958199 -0.161926 0.00640219 -0.0178169 -0.00262509)
(0.00100646 -0.000956876 -0.114614 0.009095 -0.0159085 -0.0101015)
(0.00695766 -0.000736265 -0.0751706 0.0113315 -0.0147538 -0.0182891)
(0.0118607 -0.000426879 -0.0427244 0.0133738 -0.0141836 -0.0252345)
(0.0148937 -0.000134028 -0.0141303 0.0148937 -0.0141302 -0.0297874)
(0.0148937 0.000134034 0.0141302 0.0148937 -0.0141302 -0.0297874)
(0.0118607 0.000426883 0.0427242 0.0133739 -0.0141836 -0.0252346)
(0.00695774 0.000736268 0.0751705 0.0113315 -0.0147538 -0.0182893)
(0.00100657 0.000956878 0.114614 0.00909505 -0.0159085 -0.0101016)
(-0.00377696 0.000958197 0.161925 0.00640226 -0.0178169 -0.0026253)
(-0.00377711 0.000958185 -0.161926 0.00640219 0.017817 -0.00262508)
(0.00100645 0.000956864 -0.114614 0.00909499 0.0159086 -0.0101014)
(0.00695765 0.000736256 -0.0751706 0.0113315 0.0147539 -0.0182891)
(0.0118607 0.000426872 -0.0427244 0.0133738 0.0141837 -0.0252345)
(0.0148937 0.000134026 -0.0141303 0.0148937 0.0141303 -0.0297874)
(0.0148937 -0.000134031 0.0141302 0.0148937 0.0141303 -0.0297874)
(0.0118607 -0.000426876 0.0427242 0.0133739 0.0141837 -0.0252346)
(0.00695774 -0.000736258 0.0751705 0.0113315 0.0147539 -0.0182893)
(0.00100657 -0.000956865 0.114614 0.00909504 0.0159086 -0.0101016)
(-0.00377696 -0.000958182 0.161925 0.00640225 0.017817 -0.00262529)
(-0.00368511 0.00273898 -0.164347 0.00509256 0.0535635 -0.00140745)
(0.000769691 0.00276007 -0.117009 0.00731967 0.048629 -0.00808936)
(0.00629549 0.00216626 -0.0767937 0.0091779 0.04543 -0.0154734)
(0.0108025 0.00131298 -0.0435291 0.0108025 0.0435291 -0.021605)
(0.0133738 0.00042687 -0.0141837 0.0118607 0.0427243 -0.0252345)
(0.0133739 -0.000426884 0.0141835 0.0118607 0.0427243 -0.0252346)
(0.0108025 -0.00131299 0.0435289 0.0108025 0.0435291 -0.021605)
(0.00629557 -0.00216626 0.0767935 0.00917794 0.04543 -0.0154735)
(0.000769804 -0.00276008 0.117009 0.00731972 0.048629 -0.00808953)
(-0.00368497 -0.00273897 0.164347 0.00509263 0.0535635 -0.00140766)
(-0.0034424 0.00407469 -0.168126 0.00278499 0.0893571 0.000657408)
(0.000460089 0.00419862 -0.121138 0.00410328 0.0841998 -0.00456337)
(0.00526168 0.0034019 -0.0799296 0.00526169 0.0799295 -0.0105234)
(0.00917789 0.00216625 -0.0454301 0.00629551 0.0767936 -0.0154734)
(0.0113315 0.000736251 -0.014754 0.00695767 0.0751706 -0.0182892)
(0.0113315 -0.000736272 0.0147538 0.00695768 0.0751706 -0.0182892)
(0.00917794 -0.00216627 0.0454299 0.00629554 0.0767936 -0.0154735)
(0.00526176 -0.00340191 0.0799294 0.00526173 0.0799295 -0.0105235)
(0.000460201 -0.00419862 0.121138 0.00410334 0.0841998 -0.00456354)
(-0.00344226 -0.00407468 0.168126 0.00278507 0.089357 0.00065719)
(-0.00299593 0.00467657 -0.169419 0.000158621 0.124342 0.00283731)
(0.000241684 0.00498143 -0.125035 0.000241695 0.125034 -0.000483379)
(0.00410328 0.00419861 -0.0841998 0.000460105 0.121138 -0.00456338)
(0.00731967 0.00276007 -0.0486291 0.000769713 0.117009 -0.00808938)
(0.009095 0.000956857 -0.0159086 0.00100648 0.114614 -0.0101015)
(0.00909502 -0.000956885 0.0159084 0.00100649 0.114614 -0.0101015)
(0.00731972 -0.00276009 0.0486289 0.000769747 0.117009 -0.00808946)
(0.00410335 -0.00419863 0.0841996 0.000460158 0.121138 -0.00456351)
(0.000241796 -0.00498144 0.125034 0.000241764 0.125034 -0.000483561)
(-0.00299579 -0.00467656 0.169419 0.000158706 0.124342 0.00283709)
(-0.00221787 0.00431692 -0.153902 -0.00221785 0.153902 0.00443572)
(0.000158613 0.00467657 -0.124342 -0.00299592 0.169419 0.00283731)
(0.00278499 0.00407469 -0.0893571 -0.00344238 0.168126 0.000657388)
(0.00509256 0.00273897 -0.0535636 -0.00368508 0.164347 -0.00140748)
(0.0064022 0.000958174 -0.0178171 -0.00377707 0.161925 -0.00262513)
(0.00640221 -0.000958209 0.0178169 -0.00377705 0.161925 -0.00262516)
(0.00509261 -0.002739 0.0535633 -0.00368504 0.164347 -0.00140757)
(0.00278507 -0.0040747 0.0893569 -0.00344231 0.168126 0.000657242)
(0.000158731 -0.00467657 0.124342 -0.00299583 0.169419 0.0028371)
(-0.00221771 -0.0043169 0.153901 -0.00221776 0.153901 0.00443548)
(-0.00210112 -0.00322455 -0.158946 -0.00210102 -0.158946 0.00420214)
(-0.000297062 -0.00257327 -0.13073 -0.00260558 -0.177351 0.00290264)
(0.000889812 -0.00207038 -0.0954388 -0.00269854 -0.178359 0.00180873)
(0.00194528 -0.00134771 -0.0579085 -0.00275514 -0.176216 0.000809856)
(0.00256243 -0.000466083 -0.0193927 -0.00277455 -0.174648 0.000212124)
(0.00256245 0.000466147 0.0193922 -0.00277452 -0.174648 0.000212068)
(0.00194537 0.00134777 0.057908 -0.00275506 -0.176216 0.000809688)
(0.000889956 0.00207041 0.0954383 -0.00269841 -0.178359 0.00180845)
(-0.000296836 0.00257327 0.130729 -0.00260542 -0.177351 0.00290225)
(-0.00210082 0.0032245 0.158946 -0.00210086 -0.158946 0.00420168)
(-0.00260565 -0.00257328 -0.177351 -0.00029701 -0.130729 0.00290266)
(-0.000485748 -0.0023225 -0.134202 -0.000485687 -0.134202 0.000971435)
(0.00119849 -0.0019612 -0.092584 -0.000328697 -0.132493 -0.000869794)
(0.00269441 -0.00128894 -0.0544883 -0.00016821 -0.129846 -0.0025262)
(0.00355174 -0.000444254 -0.0180122 -4.67638e-05 -0.128195 -0.00350497)
(0.00355177 0.000444311 0.0180118 -4.67425e-05 -0.128195 -0.00350502)
(0.0026945 0.00128899 0.0544878 -0.000168147 -0.129846 -0.00252635)
(0.00119863 0.00196123 0.0925836 -0.000328598 -0.132493 -0.000870032)
(-0.000485538 0.00232252 0.134202 -0.00048556 -0.134202 0.000971098)
(-0.00260539 0.00257326 0.177351 -0.000296855 -0.130729 0.00290225)
(-0.00269863 -0.00207041 -0.178359 0.000889808 -0.0954385 0.00180882)
(-0.000328776 -0.00196121 -0.132494 0.00119851 -0.0925837 -0.000869734)
(0.00180546 -0.00162354 -0.0900763 0.0018055 -0.0900761 -0.00361096)
(0.00367545 -0.00102428 -0.0524157 0.00234316 -0.0880412 -0.00601861)
(0.00472909 -0.000339869 -0.0172528 0.00271073 -0.0869154 -0.00743982)
(0.00472912 0.000339914 0.0172524 0.00271075 -0.0869154 -0.00743987)
(0.00367553 0.00102432 0.0524153 0.00234321 -0.0880412 -0.00601874)
(0.0018056 0.00162356 0.0900759 0.00180559 -0.090076 -0.00361119)
(-0.000328569 0.00196123 0.132493 0.00119862 -0.0925837 -0.000870054)
(-0.00269838 0.0020704 0.178359 0.000889957 -0.0954384 0.00180842)
(-0.00275526 -0.00134776 -0.176217 0.00194525 -0.0579082 0.000810016)
(-0.000168315 -0.00128897 -0.129847 0.0026944 -0.054488 -0.00252609)
(0.00234309 -0.00102429 -0.0880415 0.00367546 -0.0524154 -0.00601855)
(0.00453992 -0.00057443 -0.0511676 0.00453995 -0.0511674 -0.00907987)
(0.00583127 -0.000163621 -0.0169616 0.00514203 -0.0505591 -0.0109733)
(0.0058313 0.000163653 0.0169612 0.00514204 -0.0505591 -0.0109733)
(0.00454001 0.000574453 0.0511673 0.00454 -0.0511673 -0.00908)
(0.00234324 0.00102431 0.0880411 0.00367553 -0.0524154 -0.00601877)