/*--------------------------------*- C++ -*----------------------------------*\
| =========                 |                                                 |
| \\      /  F ield         | OpenFOAM: The Open Source CFD Toolbox           |
|  \\    /   O peration     | Version:  2406                                  |
|   \\  /    A nd           | Website:  www.openfoam.com                      |
|    \\/     M anipulation  |                                                 |
\*---------------------------------------------------------------------------*/
FoamFile
{
    version     2.0;
    format      ascii;
    arch        "LSB;label=32;scalar=64";
    class       volSymmTensorField;
    location    "1.7";
    object      turbulenceProperties:R;
}
// * * * * * * * * * * * * * * * * * * * * * * * * * * * * * * * * * * * * * //

dimensions      [0 2 -2 0 0 0 0];

internalField   uniform (0 -0 -0 0 -0 0);

boundaryField
{
    walls
    {
        type            calculated;
        value           nonuniform List<symmTensor> 
2000
(
(-8.57814e-08 7.13915e-08 2.96519e-07 -5.45552e-08 -2.50416e-07 1.40337e-07)
(-1.48118e-07 9.04417e-08 4.6866e-07 -5.04315e-08 -2.88973e-07 1.9855e-07)
(-2.2472e-07 9.40331e-08 6.72753e-07 -3.32467e-08 -2.81247e-07 2.57967e-07)
(-2.95107e-07 7.27076e-08 8.52688e-07 -1.06402e-08 -2.06803e-07 3.05748e-07)
(-3.38005e-07 2.73266e-08 9.58424e-07 5.72803e-09 -7.62257e-08 3.32277e-07)
(-3.38005e-07 -2.73266e-08 9.58424e-07 5.72803e-09 7.62257e-08 3.32277e-07)
(-2.95107e-07 -7.27076e-08 8.52688e-07 -1.06402e-08 2.06803e-07 3.05748e-07)
(-2.2472e-07 -9.40331e-08 6.72753e-07 -3.32467e-08 2.81247e-07 2.57967e-07)
(-1.48118e-07 -9.04417e-08 4.6866e-07 -5.04315e-08 2.88973e-07 1.9855e-07)
(-8.57814e-08 -7.13915e-08 2.96519e-07 -5.45552e-08 2.50416e-07 1.40337e-07)
(-2.65059e-09 1.14305e-09 1.2721e-07 -1.9354e-10 -1.07006e-07 2.84413e-09)
(-4.96873e-09 8.57955e-10 1.94467e-07 2.50488e-10 -1.19432e-07 4.71825e-09)
(-6.63814e-09 9.8187e-10 2.78039e-07 -3.4756e-10 -1.15974e-07 6.9857e-09)
(-8.43988e-09 7.36462e-10 3.54163e-07 -5.23381e-10 -8.57648e-08 8.96326e-09)
(-9.51402e-09 3.15563e-10 3.9976e-07 -6.40894e-10 -3.1757e-08 1.01549e-08)
(-9.51402e-09 -3.1559e-10 3.9976e-07 -6.40899e-10 3.1757e-08 1.01549e-08)
(-8.43987e-09 -7.36484e-10 3.54163e-07 -5.23393e-10 8.57648e-08 8.96326e-09)
(-6.63813e-09 -9.81883e-10 2.78039e-07 -3.47574e-10 1.15974e-07 6.9857e-09)
(-4.96872e-09 -8.57961e-10 1.94467e-07 2.50476e-10 1.19432e-07 4.71825e-09)
(-2.65058e-09 -1.14305e-09 1.2721e-07 -1.93548e-10 1.07006e-07 2.84413e-09)
(-2.81686e-10 -9.75395e-12 4.46157e-08 -1.31546e-10 -3.74019e-08 4.13232e-10)
(-3.72023e-10 -6.89739e-11 6.64963e-08 -2.67714e-10 -4.07018e-08 6.39737e-10)
(-3.8058e-10 -1.55264e-11 9.44537e-08 -5.35556e-10 -3.93215e-08 9.16136e-10)
(-4.69095e-10 3.02477e-11 1.20767e-07 -6.88755e-10 -2.92194e-08 1.15785e-09)
(-5.50531e-10 2.58659e-11 1.36781e-07 -7.51489e-10 -1.08594e-08 1.30202e-09)
(-5.50527e-10 -2.58938e-11 1.36781e-07 -7.51494e-10 1.08594e-08 1.30202e-09)
(-4.69084e-10 -3.02702e-11 1.20767e-07 -6.88767e-10 2.92194e-08 1.15785e-09)
(-3.80566e-10 1.55125e-11 9.44537e-08 -5.3557e-10 3.93214e-08 9.16136e-10)
(-3.72011e-10 6.89676e-11 6.64963e-08 -2.67727e-10 4.07018e-08 6.39738e-10)
(-2.81678e-10 9.75271e-12 4.46157e-08 -1.31554e-10 3.74019e-08 4.13232e-10)
(-8.3012e-11 6.37126e-11 5.83155e-08 5.43349e-11 -4.89403e-08 2.86771e-11)
(-1.8871e-10 4.47496e-11 8.75603e-08 1.32436e-10 -5.3643e-08 5.62736e-11)
(-2.50161e-10 3.99067e-11 1.24419e-07 1.56927e-10 -5.1816e-08 9.32335e-11)
(-3.13407e-10 1.80978e-11 1.58663e-07 1.85736e-10 -3.83893e-08 1.27671e-10)
(-3.43752e-10 7.17692e-12 1.79367e-07 1.93305e-10 -1.42394e-08 1.50447e-10)
(-3.43742e-10 -7.24628e-12 1.79367e-07 1.93294e-10 1.42394e-08 1.50447e-10)
(-3.13379e-10 -1.81538e-11 1.58663e-07 1.85707e-10 3.83893e-08 1.27673e-10)
(-2.50127e-10 -3.99414e-11 1.24419e-07 1.56891e-10 5.1816e-08 9.32354e-11)
(-1.88679e-10 -4.47654e-11 8.75602e-08 1.32404e-10 5.36429e-08 5.62756e-11)
(-8.29924e-11 -6.37156e-11 5.83154e-08 5.43137e-11 4.89402e-08 2.86788e-11)
(-3.31018e-11 -1.09631e-11 4.54836e-08 -3.64949e-11 -3.81424e-08 6.95967e-11)
(-2.44056e-11 -1.21138e-11 6.79134e-08 -7.99446e-11 -4.15776e-08 1.0435e-10)
(-1.48706e-11 6.46395e-12 9.65372e-08 -1.2969e-10 -4.01949e-08 1.44561e-10)
(-2.74739e-11 1.81851e-11 1.23377e-07 -1.51366e-10 -2.98524e-08 1.7884e-10)
(-4.33625e-11 1.01012e-11 1.39698e-07 -1.55319e-10 -1.10917e-08 1.98681e-10)
(-4.33463e-11 -1.02061e-11 1.39698e-07 -1.55336e-10 1.10917e-08 1.98682e-10)
(-2.74316e-11 -1.82698e-11 1.23377e-07 -1.5141e-10 2.98524e-08 1.78842e-10)
(-1.48192e-11 -6.51646e-12 9.6537e-08 -1.29744e-10 4.01948e-08 1.44564e-10)
(-2.43592e-11 1.20897e-11 6.79132e-08 -7.99939e-11 4.15774e-08 1.04353e-10)
(-3.30719e-11 1.09583e-11 4.54834e-08 -3.65273e-11 3.81423e-08 6.95992e-11)
(-1.35169e-11 1.43619e-11 4.92589e-08 1.07311e-11 -4.13225e-08 2.78574e-12)
(-3.34112e-11 1.31852e-11 7.37451e-08 2.70003e-11 -4.51626e-08 6.41089e-12)
(-4.77121e-11 1.32978e-11 1.04881e-07 3.6292e-11 -4.36765e-08 1.142e-11)
(-6.26525e-11 8.11598e-12 1.33994e-07 4.6613e-11 -3.24237e-08 1.60395e-11)
(-7.03321e-11 3.03245e-12 1.5167e-07 5.11498e-11 -1.20428e-08 1.91823e-11)
(-7.03025e-11 -3.22292e-12 1.5167e-07 5.11188e-11 1.20428e-08 1.91838e-11)
(-6.25756e-11 -8.27003e-12 1.33993e-07 4.6532e-11 3.24236e-08 1.60436e-11)
(-4.76183e-11 -1.33933e-11 1.0488e-07 3.6193e-11 4.36763e-08 1.14253e-11)
(-3.33263e-11 -1.32293e-11 7.37447e-08 2.69097e-11 4.51624e-08 6.41655e-12)
(-1.34624e-11 -1.43704e-11 4.92586e-08 1.06719e-11 4.13222e-08 2.79047e-12)
(-8.11386e-12 -3.02566e-12 4.60976e-08 -9.59326e-12 -3.86626e-08 1.77071e-11)
(-5.63316e-12 -3.25104e-12 6.89061e-08 -2.09181e-11 -4.21915e-08 2.65513e-11)
(-3.18613e-12 1.35737e-12 9.80057e-08 -3.36483e-11 -4.0811e-08 3.68345e-11)
(-6.17887e-12 4.4505e-12 1.25285e-07 -3.94429e-11 -3.03167e-08 4.56218e-11)
(-1.01459e-11 2.39504e-12 1.41874e-07 -4.05564e-11 -1.12654e-08 5.07023e-11)
(-1.01004e-11 -2.68862e-12 1.41873e-07 -4.06041e-11 1.12654e-08 5.07045e-11)
(-6.06047e-12 -4.68816e-12 1.25284e-07 -3.95677e-11 3.03166e-08 4.56282e-11)
(-3.04171e-12 -1.50495e-12 9.8005e-08 -3.38009e-11 4.08108e-08 3.68426e-11)
(-5.50186e-12 3.18273e-12 6.89055e-08 -2.10582e-11 4.21911e-08 2.65601e-11)
(-8.02953e-12 3.01234e-12 4.6097e-08 -9.68494e-12 3.86621e-08 1.77145e-11)
(-3.2258e-12 3.59332e-12 4.71036e-08 2.91391e-12 -3.951e-08 3.11892e-13)
(-8.35486e-12 3.17038e-12 7.04582e-08 7.3138e-12 -4.31456e-08 1.04106e-12)
(-1.19829e-11 2.92299e-12 1.00222e-07 9.85404e-12 -4.17358e-08 2.12881e-12)
(-1.55166e-11 1.52573e-12 1.28101e-07 1.23403e-11 -3.09987e-08 3.17634e-12)
(-1.72196e-11 3.97773e-13 1.45047e-07 1.3304e-11 -1.15175e-08 3.9156e-12)
(-1.71485e-11 -8.56369e-13 1.45046e-07 1.32294e-11 1.15175e-08 3.91912e-12)
(-1.53315e-11 -1.89725e-12 1.281e-07 1.2145e-11 3.09986e-08 3.18653e-12)
(-1.17569e-11 -3.15379e-12 1.00221e-07 9.61503e-12 4.17354e-08 2.14191e-12)
(-8.14925e-12 -3.27729e-12 7.04571e-08 7.09405e-12 4.31449e-08 1.05521e-12)
(-3.09441e-12 -3.61395e-12 4.71027e-08 2.77058e-12 3.95092e-08 3.23829e-13)
(-1.99918e-12 -8.11458e-13 4.62952e-08 -2.49981e-12 -3.88298e-08 4.49899e-12)
(-1.37017e-12 -8.93317e-13 6.92203e-08 -5.38087e-12 -4.23854e-08 6.75105e-12)
(-7.65619e-13 2.04198e-13 9.84616e-08 -8.61494e-12 -4.10019e-08 9.38056e-12)
(-1.49624e-12 9.21577e-13 1.25868e-07 -1.01445e-11 -3.04585e-08 1.16407e-11)
(-2.44749e-12 3.28794e-13 1.42534e-07 -1.05065e-11 -1.1318e-08 1.29539e-11)
(-2.34645e-12 -9.81972e-13 1.42533e-07 -1.06126e-11 1.1318e-08 1.29591e-11)
(-1.23292e-12 -1.45094e-12 1.25867e-07 -1.04227e-11 3.04582e-08 1.16556e-11)
(-4.44363e-13 -5.33073e-13 9.84599e-08 -8.95544e-12 4.10013e-08 9.39981e-12)
(-1.07783e-12 7.40871e-13 6.92185e-08 -5.69411e-12 4.23844e-08 6.77194e-12)
(-1.81345e-12 7.82174e-13 4.62937e-08 -2.70323e-12 3.88285e-08 4.51668e-12)
(-7.42279e-13 9.34989e-13 4.65627e-08 7.40487e-13 -3.9055e-08 1.79109e-15)
(-2.10695e-12 8.15645e-13 6.96325e-08 1.95259e-12 -4.26388e-08 1.54354e-13)
(-3.10915e-12 6.6177e-13 9.90497e-08 2.71304e-12 -4.12473e-08 3.9611e-13)
(-4.02336e-12 1.76333e-13 1.26615e-07 3.38524e-12 -3.06392e-08 6.38116e-13)
(-4.40003e-12 -2.4323e-13 1.43374e-07 3.58388e-12 -1.13847e-08 8.16153e-13)
(-4.2654e-12 -6.28377e-13 1.43373e-07 3.44202e-12 1.13848e-08 8.23379e-13)
(-3.67246e-12 -8.82897e-13 1.26613e-07 3.01338e-12 3.06388e-08 6.59076e-13)
(-2.68133e-12 -1.1005e-12 9.90469e-08 2.25812e-12 4.12462e-08 4.23206e-13)
(-1.71799e-12 -1.01888e-12 6.96296e-08 1.53414e-12 4.26371e-08 1.83853e-13)
(-4.97494e-13 -9.73544e-13 4.65602e-08 4.70663e-13 3.9053e-08 2.68315e-14)
(-4.50578e-13 -2.06537e-13 4.63543e-08 -6.75039e-13 -3.88796e-08 1.12562e-12)
(-3.33134e-13 -2.42573e-13 6.9313e-08 -1.36018e-12 -4.24426e-08 1.69332e-12)
(-2.46166e-13 -4.9622e-14 9.8595e-08 -2.11136e-12 -4.10577e-08 2.35752e-12)
(-4.46855e-13 -7.94365e-16 1.26038e-07 -2.48568e-12 -3.04996e-08 2.93253e-12)
(-6.30611e-13 -3.0714e-13 1.42724e-07 -2.63977e-12 -1.13331e-08 3.27038e-12)
(-4.70907e-13 -7.2988e-13 1.42723e-07 -2.80871e-12 1.13332e-08 3.27962e-12)
(-3.05076e-14 -8.40202e-13 1.26035e-07 -2.92877e-12 3.0499e-08 2.95927e-12)
(2.61039e-13 -4.72399e-13 9.85908e-08 -2.65317e-12 4.10561e-08 2.39213e-12)
(1.27821e-13 5.93973e-16 6.93087e-08 -1.85876e-12 4.244e-08 1.73094e-12)
(-1.63166e-13 1.6097e-13 4.63505e-08 -9.9436e-13 3.88765e-08 1.15753e-12)
(-1.40915e-13 2.5071e-13 4.64264e-08 1.84481e-13 -3.89404e-08 -4.35665e-14)
(-5.50378e-13 1.9958e-13 6.94239e-08 5.71119e-13 -4.25107e-08 -2.07414e-14)
(-8.83551e-13 6.30059e-14 9.87527e-08 8.59145e-13 -4.11235e-08 2.44067e-14)
(-1.13135e-12 -2.01284e-13 1.26238e-07 1.05435e-12 -3.0548e-08 7.69981e-14)
(-1.16422e-12 -4.55389e-13 1.42949e-07 1.04236e-12 -1.13509e-08 1.21855e-13)
(-9.98052e-13 -6.28155e-13 1.42947e-07 8.6555e-13 1.1351e-08 1.32501e-13)
(-6.97805e-13 -6.78333e-13 1.26233e-07 5.90094e-13 3.05471e-08 1.07712e-13)
(-3.55616e-13 -6.09035e-13 9.87468e-08 2.91547e-13 4.11212e-08 6.40695e-14)
(-6.96068e-14 -4.53511e-13 6.94178e-08 4.73948e-14 4.25071e-08 2.2212e-14)
(1.5571e-13 -2.9819e-13 4.64211e-08 -1.48445e-13 3.8936e-08 -7.26528e-15)
(-9.37618e-14 -5.31465e-14 4.63736e-08 -1.66134e-13 -3.8896e-08 2.59896e-13)
(-1.02626e-13 -8.38199e-14 6.93427e-08 -2.92181e-13 -4.24608e-08 3.94807e-13)
(-1.30184e-13 -1.12476e-13 9.86368e-08 -4.24078e-13 -4.10751e-08 5.54262e-13)
(-1.82466e-13 -2.05457e-13 1.2609e-07 -5.14274e-13 -3.05122e-08 6.9674e-13)
(-1.74804e-13 -3.91617e-13 1.42782e-07 -6.10064e-13 -1.13377e-08 7.84867e-13)
(-3.15089e-14 -5.49964e-13 1.4278e-07 -7.63986e-13 1.13377e-08 7.95494e-13)
(1.92308e-13 -5.61026e-13 1.26084e-07 -9.19549e-13 3.0511e-08 7.27241e-13)
(3.26879e-13 -3.64473e-13 9.8629e-08 -9.20307e-13 4.10721e-08 5.93428e-13)
(3.16953e-13 -1.40323e-13 6.93347e-08 -7.53865e-13 4.24561e-08 4.36911e-13)
(1.63064e-13 1.10136e-14 4.63667e-08 -4.58261e-13 3.88902e-08 2.95197e-13)
(-6.15023e-14 5.7076e-14 4.63939e-08 9.39305e-14 -3.8913e-08 -3.24282e-14)
(-1.83325e-13 2.10561e-14 6.93736e-08 2.19512e-13 -4.24798e-08 -3.61869e-14)
(-2.8159e-13 -6.15848e-14 9.86806e-08 3.16708e-13 -4.10934e-08 -3.51179e-14)
(-3.28737e-13 -1.78915e-13 1.26145e-07 3.56864e-13 -3.05256e-08 -2.81278e-14)
(-2.98442e-13 -2.81111e-13 1.42844e-07 3.15612e-13 -1.13426e-08 -1.71696e-14)
(-2.0696e-13 -3.30083e-13 1.42841e-07 2.15468e-13 1.13426e-08 -8.50816e-15)
(-8.74418e-14 -3.2305e-13 1.26138e-07 9.08338e-14 3.05241e-08 -3.39197e-15)
(1.51355e-14 -2.5383e-13 9.8671e-08 -1.13885e-14 4.10896e-08 -3.74694e-15)
(9.67349e-14 -1.74096e-13 6.93639e-08 -9.38982e-14 4.2474e-08 -2.83674e-15)
(1.09778e-13 -8.67493e-14 4.63854e-08 -1.04861e-13 3.8906e-08 -4.91769e-15)
(-1.20625e-13 -3.59648e-14 4.63807e-08 5.36211e-14 -3.89019e-08 6.70034e-14)
(-1.0817e-13 -7.25625e-14 6.93533e-08 9.35579e-15 -4.24673e-08 9.88147e-14)
(-7.39283e-14 -8.79707e-14 9.86515e-08 -6.19712e-14 -4.10812e-08 1.359e-13)
(-4.50693e-14 -8.90808e-14 1.26108e-07 -1.2358e-13 -3.05166e-08 1.68649e-13)
(-2.17346e-14 -8.25366e-14 1.42802e-07 -1.68473e-13 -1.13392e-08 1.90207e-13)
(-1.53573e-15 -6.91875e-14 1.42799e-07 -1.93367e-13 1.13393e-08 1.94903e-13)
(1.27339e-14 -4.5048e-14 1.261e-07 -1.94723e-13 3.05149e-08 1.81989e-13)
(3.64724e-15 -3.83859e-15 9.86407e-08 -1.55799e-13 4.1077e-08 1.52151e-13)
(-1.79039e-14 1.77908e-14 6.93424e-08 -9.77423e-14 4.24608e-08 1.15646e-13)
(-6.06916e-14 2.27644e-14 4.63712e-08 -1.94336e-14 3.88941e-08 8.01252e-14)
(-1.9552e-13 -2.13442e-14 4.63856e-08 1.82318e-13 -3.89061e-08 1.32019e-14)
(-1.89811e-13 -7.16933e-14 6.93611e-08 1.73281e-13 -4.24721e-08 1.65302e-14)
(-1.20908e-13 -6.7584e-14 9.86628e-08 1.00442e-13 -4.1086e-08 2.04662e-14)
(-6.35225e-14 -9.81769e-15 1.26123e-07 4.21607e-14 -3.05201e-08 2.13618e-14)
(-4.55671e-14 1.08465e-13 1.42818e-07 2.31432e-14 -1.13405e-08 2.2424e-14)
(-9.75718e-14 2.10931e-13 1.42815e-07 7.59499e-14 1.13406e-08 2.16219e-14)
(-1.91039e-13 2.52023e-13 1.26114e-07 1.71851e-13 3.05183e-08 1.91881e-14)
(-2.62725e-13 2.02959e-13 9.86516e-08 2.46419e-13 4.10815e-08 1.63058e-14)
(-2.87047e-13 1.15881e-13 6.93498e-08 2.75482e-13 4.24654e-08 1.15656e-14)
(-2.40079e-13 2.39868e-14 4.63759e-08 2.32457e-13 3.8898e-08 7.62161e-15)
(-2.80063e-13 -5.62329e-14 4.63809e-08 2.20107e-13 -3.89021e-08 5.99563e-14)
(-2.28007e-13 -1.20139e-13 6.93541e-08 1.47464e-13 -4.24679e-08 8.05434e-14)
(-8.47714e-14 -7.58762e-14 9.86533e-08 -1.81892e-14 -4.1082e-08 1.02961e-13)
(1.24438e-14 5.58504e-14 1.26111e-07 -1.27563e-13 -3.05173e-08 1.1512e-13)
(2.36403e-14 2.66585e-13 1.42805e-07 -1.42887e-13 -1.13395e-08 1.19247e-13)
(-8.49629e-14 4.28734e-13 1.42802e-07 -2.73103e-14 1.13396e-08 1.12273e-13)
(-2.59439e-13 4.85132e-13 1.26103e-07 1.63638e-13 3.05156e-08 9.58009e-14)
(-3.94644e-13 3.89075e-13 9.86426e-08 3.18294e-13 4.10778e-08 7.63498e-14)
(-4.64293e-13 2.39715e-13 6.93434e-08 4.12134e-13 4.24615e-08 5.21582e-14)
(-3.93909e-13 6.96584e-14 4.63717e-08 3.59319e-13 3.88945e-08 3.459e-14)
(-3.25186e-13 -5.4095e-14 4.638e-08 2.65198e-13 -3.89014e-08 5.99884e-14)
(-2.75511e-13 -1.26734e-13 6.93533e-08 1.96227e-13 -4.24674e-08 7.92841e-14)
(-1.08798e-13 -6.52592e-14 9.86529e-08 8.38147e-15 -4.10819e-08 1.00416e-13)
(-1.61095e-15 9.68444e-14 1.26111e-07 -1.06703e-13 -3.05173e-08 1.08314e-13)
(4.14786e-15 3.57596e-13 1.42806e-07 -1.11603e-13 -1.13396e-08 1.07455e-13)
(-1.35429e-13 5.52851e-13 1.42803e-07 4.08674e-14 1.13396e-08 9.4562e-14)
(-3.51418e-13 6.13364e-13 1.26104e-07 2.78575e-13 3.05159e-08 7.28425e-14)
(-5.05981e-13 4.76388e-13 9.86437e-08 4.53304e-13 4.10783e-08 5.26771e-14)
(-5.77824e-13 2.85202e-13 6.93442e-08 5.48438e-13 4.2462e-08 2.9386e-14)
(-4.61356e-13 7.16307e-14 4.63723e-08 4.44709e-13 3.8895e-08 1.66467e-14)
(-3.13259e-13 -5.44492e-14 4.63762e-08 2.35855e-13 -3.88982e-08 7.7404e-14)
(-2.56828e-13 -1.19213e-13 6.9348e-08 1.52707e-13 -4.24642e-08 1.04121e-13)
(-8.369e-14 -3.91298e-14 9.8646e-08 -4.98905e-14 -4.1079e-08 1.3358e-13)
(1.46201e-14 1.34486e-13 1.26103e-07 -1.61144e-13 -3.05155e-08 1.46524e-13)
(7.81062e-15 3.95601e-13 1.42798e-07 -1.5396e-13 -1.1339e-08 1.46149e-13)
(-1.38959e-13 5.77772e-13 1.42796e-07 1.05131e-14 1.1339e-08 1.28446e-13)
(-3.52233e-13 6.23805e-13 1.26098e-07 2.54113e-13 3.05144e-08 9.81201e-14)
(-4.9621e-13 4.75319e-13 9.86393e-08 4.27301e-13 4.10764e-08 6.89096e-14)
(-5.62988e-13 2.84602e-13 6.93414e-08 5.25622e-13 4.24602e-08 3.73657e-14)
(-4.35467e-13 7.08393e-14 4.63706e-08 4.1538e-13 3.88936e-08 2.00863e-14)
(-2.46365e-13 -3.78167e-14 4.63732e-08 1.7179e-13 -3.88957e-08 7.45746e-14)
(-1.95555e-13 -7.93374e-14 6.93441e-08 9.51416e-14 -4.24618e-08 1.00414e-13)
(-4.89878e-14 1.14307e-14 9.86413e-08 -7.95055e-14 -4.10771e-08 1.28493e-13)
(1.75317e-14 1.71327e-13 1.26098e-07 -1.57318e-13 -3.05143e-08 1.39786e-13)
(-7.80804e-15 3.90953e-13 1.42793e-07 -1.28974e-13 -1.13386e-08 1.36782e-13)
(-1.43598e-13 5.26709e-13 1.42792e-07 2.76003e-14 1.13387e-08 1.15998e-13)
(-3.20844e-13 5.42508e-13 1.26095e-07 2.37606e-13 3.05137e-08 8.32382e-14)
(-4.25574e-13 3.96695e-13 9.86377e-08 3.72434e-13 4.10757e-08 5.31403e-14)
(-4.65563e-13 2.3062e-13 6.93406e-08 4.42266e-13 4.24598e-08 2.32972e-14)
(-3.37022e-13 5.07795e-14 4.63704e-08 3.28284e-13 3.88934e-08 8.7374e-15)
(-1.62139e-13 -2.26908e-14 4.63698e-08 9.08034e-14 -3.88928e-08 7.13354e-14)
(-1.13003e-13 -3.64925e-14 6.93393e-08 1.68694e-14 -4.24589e-08 9.61337e-14)
(-1.73847e-15 5.85564e-14 9.86353e-08 -1.20307e-13 -4.10747e-08 1.22045e-13)
(2.95911e-14 1.93181e-13 1.26092e-07 -1.61677e-13 -3.05127e-08 1.32086e-13)
(-1.20715e-14 3.5068e-13 1.42786e-07 -1.15333e-13 -1.13382e-08 1.27405e-13)
(-1.24422e-13 4.26522e-13 1.42786e-07 1.86973e-14 1.13382e-08 1.05725e-13)
(-2.49863e-13 4.11451e-13 1.26091e-07 1.76577e-13 3.05127e-08 7.32857e-14)
(-3.0993e-13 2.8585e-13 9.86351e-08 2.66108e-13 4.10746e-08 4.38222e-14)
(-3.25812e-13 1.61528e-13 6.93394e-08 3.09255e-13 4.2459e-08 1.65572e-14)
(-2.17221e-13 3.17539e-14 4.637e-08 2.13607e-13 3.8893e-08 3.61371e-15)
(-1.08489e-13 -1.18715e-14 4.63669e-08 4.67467e-14 -3.88904e-08 6.17428e-14)
(-6.81937e-14 -1.23182e-14 6.93355e-08 -1.45703e-14 -4.24566e-08 8.2764e-14)
(9.21175e-15 6.85338e-14 9.86306e-08 -1.12666e-13 -4.10728e-08 1.03454e-13)
(1.81919e-14 1.65429e-13 1.26086e-07 -1.28465e-13 -3.05115e-08 1.10273e-13)
(-2.21986e-14 2.62665e-13 1.42782e-07 -8.17763e-14 -1.13378e-08 1.03975e-13)
(-9.94567e-14 2.93624e-13 1.42782e-07 1.57416e-14 1.13378e-08 8.37151e-14)
(-1.73609e-13 2.67928e-13 1.26089e-07 1.18117e-13 3.0512e-08 5.54924e-14)
(-1.99455e-13 1.77414e-13 9.86339e-08 1.68738e-13 4.1074e-08 3.07171e-14)
(-2.03502e-13 9.92009e-14 6.9339e-08 1.94331e-13 4.24587e-08 9.17128e-15)
(-1.24167e-13 1.65281e-14 4.63701e-08 1.24873e-13 3.8893e-08 -7.06175e-16)
(-1.1132e-13 -1.27078e-14 4.63643e-08 5.78168e-14 -3.88882e-08 5.35034e-14)
(-8.64604e-14 -2.41514e-14 6.9332e-08 1.48227e-14 -4.24545e-08 7.16377e-14)
(-2.83474e-14 2.33759e-14 9.86262e-08 -6.05569e-14 -4.1071e-08 8.89043e-14)
(-1.79683e-14 7.67011e-14 1.26082e-07 -7.62389e-14 -3.05104e-08 9.42072e-14)
(-3.34734e-14 1.32505e-13 1.42777e-07 -5.50901e-14 -1.13375e-08 8.85635e-14)
(-6.83638e-14 1.49733e-13 1.42779e-07 -3.4168e-15 1.13375e-08 7.17806e-14)
(-1.03995e-13 1.43814e-13 1.26086e-07 5.50014e-14 3.05114e-08 4.89938e-14)
(-1.1751e-13 1.00144e-13 9.86326e-08 8.84291e-14 4.10735e-08 2.90813e-14)
(-1.31542e-13 6.44492e-14 6.93385e-08 1.1998e-13 4.24584e-08 1.15614e-14)
(-8.62242e-14 1.24675e-14 4.637e-08 8.35127e-14 3.8893e-08 2.71159e-15)
(-1.51368e-13 -1.96724e-14 4.63621e-08 1.055e-13 -3.88864e-08 4.58686e-14)
(-1.48072e-13 -5.79962e-14 6.9329e-08 8.61335e-14 -4.24527e-08 6.19387e-14)
(-9.63698e-14 -5.11302e-14 9.86227e-08 1.84556e-14 -4.10695e-08 7.79143e-14)
(-6.88431e-14 -3.71326e-14 1.26078e-07 -1.47361e-14 -3.05095e-08 8.35792e-14)
(-4.77988e-14 1.82748e-15 1.42774e-07 -3.29308e-14 -1.13373e-08 8.07297e-14)
(-4.54594e-14 3.37077e-14 1.42776e-07 -2.31889e-14 1.13372e-08 6.86483e-14)
(-6.27371e-14 6.7282e-14 1.26084e-07 1.1558e-14 3.05109e-08 5.11792e-14)
(-8.38478e-14 6.71331e-14 9.86314e-08 4.85671e-14 4.1073e-08 3.52807e-14)
(-1.21714e-13 5.976e-14 6.9338e-08 1.0213e-13 4.2458e-08 1.95839e-14)
(-1.02626e-13 1.68196e-14 4.63698e-08 9.23893e-14 3.88928e-08 1.02365e-14)
(-1.68378e-13 -2.31533e-14 4.63601e-08 1.28787e-13 -3.88848e-08 3.95913e-14)
(-1.79688e-13 -7.70005e-14 6.93264e-08 1.25085e-13 -4.24511e-08 5.46024e-14)
(-1.29715e-13 -9.06754e-14 9.86194e-08 5.85253e-14 -4.10682e-08 7.11894e-14)
(-9.079e-14 -9.17393e-14 1.26074e-07 1.16938e-14 -3.05087e-08 7.90961e-14)
(-5.13915e-14 -4.82162e-14 1.4277e-07 -2.89849e-14 -1.1337e-08 8.03764e-14)
(-3.8858e-14 5.73038e-15 1.42773e-07 -3.42221e-14 1.13369e-08 7.30802e-14)
(-6.31989e-14 6.84444e-14 1.26082e-07 3.77207e-15 3.05103e-08 5.94268e-14)
(-1.02901e-13 8.51471e-14 9.86297e-08 5.73142e-14 4.10722e-08 4.55865e-14)
(-1.62956e-13 8.05656e-14 6.93369e-08 1.33692e-13 4.24573e-08 2.92641e-14)
(-1.51753e-13 2.58808e-14 4.63692e-08 1.33452e-13 3.88923e-08 1.83005e-14)
(-1.01326e-13 -1.19953e-14 4.63585e-08 6.88342e-14 -3.88834e-08 3.24915e-14)
(-1.07836e-13 -4.1918e-14 6.93241e-08 6.16877e-14 -4.24497e-08 4.61479e-14)
(-6.7799e-14 -3.26175e-14 9.86164e-08 5.14549e-15 -4.1067e-08 6.26535e-14)
(-4.60472e-14 -1.04601e-14 1.26071e-07 -2.66792e-14 -3.05079e-08 7.27264e-14)
(-3.43828e-14 4.75895e-14 1.42767e-07 -4.29816e-14 -1.13368e-08 7.73644e-14)
(-5.45464e-14 1.04796e-13 1.4277e-07 -1.92868e-14 1.13367e-08 7.38332e-14)
(-1.09171e-13 1.55664e-13 1.26079e-07 4.66487e-14 3.05096e-08 6.2522e-14)
(-1.65172e-13 1.44941e-13 9.86277e-08 1.1545e-13 4.10714e-08 4.9722e-14)
(-2.2834e-13 1.12551e-13 6.93355e-08 1.95843e-13 4.24565e-08 3.24965e-14)
(-2.01078e-13 3.31657e-14 4.63683e-08 1.80259e-13 3.88915e-08 2.08187e-14)
(7.01288e-14 1.67529e-14 4.63572e-08 -9.23982e-14 -3.88823e-08 2.22694e-14)
(9.15678e-14 5.85347e-14 6.93222e-08 -1.24544e-13 -4.24486e-08 3.29763e-14)
(1.03987e-13 1.34438e-13 9.86138e-08 -1.50258e-13 -4.10659e-08 4.6271e-14)
(7.24819e-14 2.12524e-13 1.26068e-07 -1.29068e-13 -3.05072e-08 5.6586e-14)
(6.34347e-15 2.77676e-13 1.42763e-07 -6.84905e-14 -1.13365e-08 6.21471e-14)
(-8.28019e-14 3.02501e-13 1.42767e-07 2.17919e-14 1.13364e-08 6.101e-14)
(-1.76283e-13 2.90759e-13 1.26077e-07 1.24674e-13 3.0509e-08 5.16093e-14)
(-2.33992e-13 2.14082e-13 9.86257e-08 1.93455e-13 4.10706e-08 4.05364e-14)
(-2.73746e-13 1.3486e-13 6.93341e-08 2.49173e-13 4.24556e-08 2.45732e-14)
(-2.14035e-13 3.33453e-14 4.63675e-08 1.99342e-13 3.88908e-08 1.46939e-14)
(3.04094e-13 5.64315e-14 4.63564e-08 -3.0999e-13 -3.88816e-08 5.89639e-15)
(3.60109e-13 1.94408e-13 6.9321e-08 -3.7105e-13 -4.24478e-08 1.09406e-14)
(3.21698e-13 3.44797e-13 9.86121e-08 -3.3829e-13 -4.10652e-08 1.65924e-14)
(2.14547e-13 4.73328e-13 1.26066e-07 -2.3878e-13 -3.05066e-08 2.42323e-14)
(5.34608e-14 5.13141e-13 1.42761e-07 -8.15674e-14 -1.13363e-08 2.81066e-14)
(-1.00138e-13 4.68981e-13 1.42764e-07 7.13796e-14 1.13362e-08 2.87588e-14)
(-2.07751e-13 3.66721e-13 1.26075e-07 1.84978e-13 3.05085e-08 2.2773e-14)
(-2.40402e-13 2.25188e-13 9.86244e-08 2.24393e-13 4.107e-08 1.60093e-14)
(-2.34814e-13 1.15163e-13 6.93333e-08 2.29264e-13 4.24552e-08 5.55024e-15)
(-1.49322e-13 2.03709e-14 4.63671e-08 1.48553e-13 3.88905e-08 7.68407e-16)
(5.17512e-13 9.29668e-14 4.63564e-08 -4.97112e-13 -3.88817e-08 -2.04e-14)
(5.82729e-13 3.0509e-13 6.9321e-08 -5.58287e-13 -4.24478e-08 -2.44417e-14)
(4.69152e-13 4.78126e-13 9.86119e-08 -4.38739e-13 -4.10651e-08 -3.04128e-14)
(2.92752e-13 5.91942e-13 1.26065e-07 -2.64902e-13 -3.05065e-08 -2.785e-14)
(7.7838e-14 5.4584e-13 1.4276e-07 -5.13072e-14 -1.13363e-08 -2.65308e-14)
(-7.25314e-14 4.0793e-13 1.42764e-07 9.52478e-14 1.13362e-08 -2.27164e-14)
(-1.25291e-13 2.33629e-13 1.26074e-07 1.4669e-13 3.05084e-08 -2.13987e-14)
(-9.53775e-14 9.05291e-14 9.86243e-08 1.15156e-13 4.107e-08 -1.9779e-14)
(-3.6719e-14 1.60797e-14 6.93335e-08 5.62113e-14 4.24553e-08 -1.94924e-14)
(3.51595e-14 -1.12349e-14 4.63674e-08 -1.87799e-14 3.88907e-08 -1.63795e-14)
(6.28349e-13 1.13047e-13 4.63578e-08 -5.68778e-13 -3.88828e-08 -5.95714e-14)
(6.44608e-13 3.31098e-13 6.93228e-08 -5.68373e-13 -4.24489e-08 -7.62355e-14)
(4.33844e-13 4.20316e-13 9.8614e-08 -3.37649e-13 -4.10659e-08 -9.6195e-14)
(2.2251e-13 3.99891e-13 1.26067e-07 -1.22871e-13 -3.0507e-08 -9.96387e-14)
(4.97237e-14 1.86616e-13 1.42762e-07 4.92197e-14 -1.13364e-08 -9.89434e-14)
(2.65031e-14 -5.3808e-14 1.42766e-07 6.17392e-14 1.13364e-08 -8.82423e-14)
(1.34054e-13 -2.35813e-13 1.26076e-07 -6.03618e-14 3.05089e-08 -7.36925e-14)
(2.70218e-13 -2.61182e-13 9.86259e-08 -2.11186e-13 4.10706e-08 -5.90321e-14)
(3.75008e-13 -1.90996e-13 6.93348e-08 -3.32142e-13 4.24561e-08 -4.28665e-14)
(3.65144e-13 -6.49552e-14 4.63684e-08 -3.3482e-13 3.88915e-08 -3.03238e-14)
(5.99245e-13 1.09596e-13 4.63612e-08 -4.88349e-13 -3.88856e-08 -1.10897e-13)
(5.00515e-13 2.4772e-13 6.93272e-08 -3.57212e-13 -4.24516e-08 -1.43304e-13)
(1.81588e-13 1.3553e-13 9.86193e-08 -3.61512e-15 -4.10681e-08 -1.77973e-13)
(-1.71502e-14 -1.45391e-13 1.26073e-07 2.04252e-13 -3.05083e-08 -1.87102e-13)
(-3.659e-14 -5.97786e-13 1.42768e-07 2.19752e-13 -1.13368e-08 -1.83162e-13)
(1.98227e-13 -9.33364e-13 1.42771e-07 -3.77213e-14 1.13368e-08 -1.60506e-13)
(5.68175e-13 -1.04163e-12 1.2608e-07 -4.42049e-13 3.05099e-08 -1.26126e-13)
(8.45051e-13 -8.20859e-13 9.8629e-08 -7.50931e-13 4.10719e-08 -9.41201e-14)
(9.79627e-13 -4.96381e-13 6.93371e-08 -9.21631e-13 4.24574e-08 -5.79956e-14)
(8.14815e-13 -1.3621e-13 4.63698e-08 -7.78904e-13 3.88928e-08 -3.59112e-14)
(4.48555e-13 8.44807e-14 4.6367e-08 -2.82933e-13 -3.88905e-08 -1.65621e-13)
(1.98994e-13 8.018e-14 6.93348e-08 1.58499e-14 -4.24561e-08 -2.14844e-13)
(-2.13209e-13 -2.98463e-13 9.86284e-08 4.76418e-13 -4.10717e-08 -2.6321e-13)
(-3.57384e-13 -9.00019e-13 1.26083e-07 6.34718e-13 -3.05106e-08 -2.77334e-13)
(-1.54108e-13 -1.60608e-12 1.42777e-07 4.20867e-13 -1.13375e-08 -2.66759e-13)
(4.02897e-13 -2.0095e-12 1.42779e-07 -1.7447e-13 1.13375e-08 -2.28428e-13)
(1.07218e-12 -1.98602e-12 1.26086e-07 -9.02155e-13 3.05114e-08 -1.70021e-13)
(1.48986e-12 -1.4527e-12 9.86333e-08 -1.37123e-12 4.10737e-08 -1.18627e-13)
(1.63456e-12 -8.28718e-13 6.93398e-08 -1.57316e-12 4.24591e-08 -6.1396e-14)
(1.2753e-12 -2.0791e-13 4.63713e-08 -1.24394e-12 3.8894e-08 -3.13632e-14)
(2.35332e-13 4.51943e-14 4.63752e-08 -2.86809e-14 -3.88973e-08 -2.06652e-13)
(-1.34137e-13 -1.06262e-13 6.93455e-08 4.03922e-13 -4.24626e-08 -2.69785e-13)
(-5.82954e-13 -7.07947e-13 9.8641e-08 9.11784e-13 -4.10769e-08 -3.2883e-13)
(-6.4947e-13 -1.55792e-12 1.26096e-07 9.97297e-13 -3.05137e-08 -3.47827e-13)
(-2.44417e-13 -2.42807e-12 1.4279e-07 5.74935e-13 -1.13384e-08 -3.30518e-13)
(5.6635e-13 -2.84459e-12 1.42789e-07 -2.88878e-13 1.13384e-08 -2.77472e-13)
(1.44935e-12 -2.68826e-12 1.26094e-07 -1.25236e-12 3.05134e-08 -1.96982e-13)
(1.94931e-12 -1.90266e-12 9.86383e-08 -1.82078e-12 4.10759e-08 -1.2852e-13)
(2.08444e-12 -1.05776e-12 6.93424e-08 -2.03052e-12 4.24608e-08 -5.3915e-14)
(1.56244e-12 -2.50783e-13 4.63724e-08 -1.54336e-12 3.8895e-08 -1.90772e-14)
(2.65972e-14 1.87486e-15 4.63847e-08 1.86245e-13 -3.89053e-08 -2.12842e-13)
(-3.60222e-13 -2.36627e-13 6.9358e-08 6.41651e-13 -4.24701e-08 -2.81428e-13)
(-7.47669e-13 -9.00932e-13 9.86561e-08 1.0925e-12 -4.1083e-08 -3.44835e-13)
(-7.34442e-13 -1.78166e-12 1.26112e-07 1.10289e-12 -3.05174e-08 -3.68449e-13)
(-2.47301e-13 -2.61151e-12 1.42805e-07 5.96007e-13 -1.13394e-08 -3.48706e-13)
(6.03811e-13 -2.95522e-12 1.42802e-07 -3.1501e-13 1.13395e-08 -2.88801e-13)
(1.48048e-12 -2.72666e-12 1.26103e-07 -1.28328e-12 3.05156e-08 -1.97201e-13)
(1.94114e-12 -1.89007e-12 9.86434e-08 -1.8208e-12 4.10781e-08 -1.20339e-13)
(2.04659e-12 -1.03893e-12 6.93446e-08 -2.0079e-12 4.24622e-08 -3.86943e-14)
(1.47793e-12 -2.33588e-13 4.63728e-08 -1.47408e-12 3.88954e-08 -3.85166e-15)
(-1.2564e-13 -3.62536e-14 4.63938e-08 2.94827e-13 -3.89128e-08 -1.69187e-13)
(-3.84796e-13 -2.57905e-13 6.937e-08 6.14472e-13 -4.24774e-08 -2.29676e-13)
(-5.9364e-13 -7.51899e-13 9.86707e-08 8.80965e-13 -4.1089e-08 -2.87325e-13)
(-5.15296e-13 -1.35622e-12 1.26128e-07 8.2922e-13 -3.05211e-08 -3.13924e-13)
(-1.28831e-13 -1.87331e-12 1.4282e-07 4.28e-13 -1.13405e-08 -2.99168e-13)
(4.6016e-13 -2.04123e-12 1.42814e-07 -2.14006e-13 1.13406e-08 -2.46154e-13)
(1.02887e-12 -1.8397e-12 1.26111e-07 -8.66221e-13 3.05176e-08 -1.62646e-13)
(1.29272e-12 -1.24266e-12 9.86477e-08 -1.20082e-12 4.108e-08 -9.19018e-14)
(1.34714e-12 -6.82261e-13 6.9346e-08 -1.32771e-12 4.24631e-08 -1.94292e-14)
(9.06947e-13 -1.38215e-13 4.63726e-08 -9.16373e-13 3.88953e-08 9.42594e-15)
(-1.93636e-13 -6.06657e-14 4.64e-08 2.69898e-13 -3.8918e-08 -7.6262e-14)
(-1.97626e-13 -1.59371e-13 6.93785e-08 3.10719e-13 -4.24825e-08 -1.13094e-13)
(-1.3589e-13 -2.65982e-13 9.86815e-08 2.88058e-13 -4.10934e-08 -1.52168e-13)
(-1.8496e-14 -3.13677e-13 1.2614e-07 1.95765e-13 -3.0524e-08 -1.77269e-13)
(9.17111e-14 -2.75957e-13 1.42831e-07 8.25148e-14 -1.13413e-08 -1.74226e-13)
(1.40433e-13 -1.8129e-13 1.42823e-07 2.7808e-15 1.13414e-08 -1.43214e-13)
(1.27476e-13 -1.01063e-13 1.26117e-07 -3.7315e-14 3.05192e-08 -9.01611e-14)
(5.65356e-14 -1.4795e-14 9.86507e-08 -1.38156e-14 4.10813e-08 -4.272e-14)
(3.85711e-14 -1.41537e-14 6.93466e-08 -4.02846e-14 4.24635e-08 1.7135e-15)
(-9.8539e-14 2.61065e-14 4.63719e-08 8.05824e-14 3.88948e-08 1.79566e-14)
(-1.68178e-13 -6.50455e-14 4.64014e-08 1.22927e-13 -3.89192e-08 4.52508e-14)
(1.37255e-13 2.80655e-14 6.93809e-08 -1.81193e-13 -4.2484e-08 4.39378e-14)
(4.9027e-13 4.20314e-13 9.86853e-08 -5.24999e-13 -4.1095e-08 3.4729e-14)
(6.12385e-13 1.06036e-12 1.26145e-07 -6.30144e-13 -3.05252e-08 1.77598e-14)
(3.48037e-13 1.75288e-12 1.42836e-07 -3.54468e-13 -1.13417e-08 6.43158e-15)
(-2.77271e-13 2.13508e-12 1.42827e-07 2.72209e-13 1.13418e-08 5.06214e-15)
(-9.9522e-13 2.04063e-12 1.2612e-07 9.84802e-13 3.05199e-08 1.04182e-14)
(-1.45414e-12 1.48014e-12 9.86514e-08 1.4334e-12 4.10817e-08 2.07409e-14)
(-1.55488e-12 7.99858e-13 6.93462e-08 1.53246e-12 4.24634e-08 2.24149e-14)
(-1.28747e-12 2.18406e-13 4.63711e-08 1.26599e-12 3.88942e-08 2.14834e-14)
(-5.77059e-14 -4.59084e-14 4.63972e-08 -1.02087e-13 -3.89157e-08 1.59793e-13)
(5.04294e-13 2.43809e-13 6.93761e-08 -7.0097e-13 -4.24812e-08 1.96676e-13)
(1.07084e-12 1.08195e-12 9.86805e-08 -1.29285e-12 -4.10931e-08 2.22008e-13)
(1.15869e-12 2.31134e-12 1.26141e-07 -1.37822e-12 -3.05242e-08 2.19537e-13)
(5.45098e-13 3.54115e-12 1.42833e-07 -7.41938e-13 -1.13415e-08 1.9684e-13)
(-6.63625e-13 4.14041e-12 1.42824e-07 5.01421e-13 1.13416e-08 1.62204e-13)
(-1.97532e-12 3.87787e-12 1.26117e-07 1.86005e-12 3.05194e-08 1.15274e-13)
(-2.74456e-12 2.74781e-12 9.86496e-08 2.66087e-12 4.10809e-08 8.36949e-14)
(-2.91308e-12 1.49277e-12 6.93449e-08 2.87449e-12 4.24626e-08 3.85941e-14)
(-2.26618e-12 3.74223e-13 4.63703e-08 2.24596e-12 3.88935e-08 2.02235e-14)
(1.14764e-13 -5.81468e-15 4.63886e-08 -3.42766e-13 -3.89086e-08 2.28002e-13)
(7.83406e-13 4.18989e-13 6.93653e-08 -1.07645e-12 -4.24747e-08 2.93041e-13)