/*--------------------------------*- C++ -*----------------------------------*\
| =========                 |                                                 |
| \\      /  F ield         | OpenFOAM: The Open Source CFD Toolbox           |
|  \\    /   O peration     | Version:  2406                                  |
|   \\  /    A nd           | Website:  www.openfoam.com                      |
|    \\/     M anipulation  |                                                 |
\*---------------------------------------------------------------------------*/
FoamFile
{
    version     2.0;
    format      ascii;
    arch        "LSB;label=32;scalar=64";
    class       volVectorField;
    location    "1.7";
    object      U;
}
// * * * * * * * * * * * * * * * * * * * * * * * * * * * * * * * * * * * * * //

dimensions      [0 1 -1 0 0 0 0];

internalField   nonuniform List<vector> 
25000
(
(0.148203 0.148203 1.126)
(0.121741 0.159741 1.15799)
(0.089682 0.168689 1.17581)
(0.0549321 0.174337 1.18522)
(0.0184802 0.177166 1.18921)
(-0.0184801 0.177166 1.18921)
(-0.0549321 0.174337 1.18522)
(-0.0896819 0.168689 1.17581)
(-0.121741 0.159741 1.15799)
(-0.148203 0.148203 1.126)
(0.159741 0.121741 1.15799)
(0.129921 0.129921 1.18715)
(0.0949522 0.136258 1.19911)
(0.0577448 0.140368 1.20344)
(0.0193615 0.142382 1.20465)
(-0.0193615 0.142382 1.20465)
(-0.0577448 0.140368 1.20344)
(-0.0949521 0.136258 1.19911)
(-0.129921 0.129921 1.18715)
(-0.159741 0.121741 1.15799)
(0.168689 0.089682 1.17581)
(0.136258 0.0949521 1.19911)
(0.0990579 0.0990579 1.20625)
(0.059953 0.101733 1.20696)
(0.0200493 0.10303 1.20625)
(-0.0200493 0.10303 1.20625)
(-0.059953 0.101733 1.20696)
(-0.0990579 0.0990579 1.20625)
(-0.136258 0.0949521 1.19911)
(-0.168689 0.089682 1.17581)
(0.174337 0.0549321 1.18522)
(0.140368 0.0577448 1.20344)
(0.101733 0.059953 1.20696)
(0.061392 0.061392 1.20524)
(0.020496 0.0620861 1.20331)
(-0.0204959 0.0620861 1.20331)
(-0.061392 0.061392 1.20524)
(-0.101733 0.059953 1.20696)
(-0.140368 0.0577448 1.20344)
(-0.174337 0.0549321 1.18522)
(0.177166 0.0184801 1.18921)
(0.142382 0.0193615 1.20465)
(0.10303 0.0200493 1.20625)
(0.0620861 0.0204959 1.20331)
(0.0207107 0.0207106 1.2008)
(-0.0207106 0.0207106 1.2008)
(-0.0620861 0.0204959 1.20331)
(-0.10303 0.0200493 1.20625)
(-0.142382 0.0193615 1.20465)
(-0.177166 0.0184801 1.18921)
(0.177166 -0.0184801 1.18921)
(0.142382 -0.0193615 1.20465)
(0.10303 -0.0200493 1.20625)
(0.0620861 -0.0204959 1.20331)
(0.0207107 -0.0207106 1.2008)
(-0.0207106 -0.0207106 1.2008)
(-0.0620861 -0.0204959 1.20331)
(-0.10303 -0.0200493 1.20625)
(-0.142382 -0.0193615 1.20465)
(-0.177166 -0.0184801 1.18921)
(0.174337 -0.0549321 1.18522)
(0.140368 -0.0577448 1.20344)
(0.101733 -0.059953 1.20696)
(0.061392 -0.061392 1.20524)
(0.020496 -0.0620861 1.20331)
(-0.0204959 -0.0620861 1.20331)
(-0.061392 -0.061392 1.20524)
(-0.101733 -0.059953 1.20696)
(-0.140368 -0.0577448 1.20344)
(-0.174337 -0.0549321 1.18522)
(0.168689 -0.089682 1.17581)
(0.136258 -0.0949522 1.19911)
(0.0990579 -0.0990579 1.20625)
(0.059953 -0.101733 1.20696)
(0.0200493 -0.10303 1.20625)
(-0.0200493 -0.10303 1.20625)
(-0.059953 -0.101733 1.20696)
(-0.0990579 -0.0990579 1.20625)
(-0.136258 -0.0949522 1.19911)
(-0.168689 -0.089682 1.17581)
(0.159741 -0.121741 1.15799)
(0.129921 -0.129921 1.18715)
(0.0949522 -0.136258 1.19911)
(0.0577448 -0.140368 1.20344)
(0.0193615 -0.142382 1.20465)
(-0.0193615 -0.142382 1.20465)
(-0.0577448 -0.140368 1.20344)
(-0.0949521 -0.136258 1.19911)
(-0.129921 -0.129921 1.18715)
(-0.159741 -0.121741 1.15799)
(0.148203 -0.148203 1.126)
(0.121741 -0.159741 1.15799)
(0.089682 -0.168689 1.17581)
(0.0549321 -0.174337 1.18522)
(0.0184802 -0.177166 1.18921)
(-0.0184801 -0.177166 1.18921)
(-0.0549321 -0.174337 1.18522)
(-0.0896819 -0.168689 1.17581)
(-0.121741 -0.159741 1.15799)
(-0.148203 -0.148203 1.126)
(0.0508829 0.0508828 1.26779)
(0.0454874 0.0604814 1.35152)
(0.0364056 0.068382 1.40592)
(0.0233682 0.074205 1.43821)
(0.00804176 0.0772047 1.45313)
(-0.00804161 0.0772047 1.45313)
(-0.023368 0.074205 1.43821)
(-0.0364055 0.068382 1.40592)
(-0.0454872 0.0604814 1.35152)
(-0.0508828 0.0508828 1.26779)
(0.0604815 0.0454872 1.35152)
(0.0552606 0.0552605 1.44013)
(0.0441311 0.0630689 1.48894)
(0.0282257 0.068534 1.51468)
(0.00968401 0.0713451 1.52575)
(-0.00968387 0.0713451 1.52575)
(-0.0282256 0.068534 1.51468)
(-0.044131 0.0630689 1.48894)
(-0.0552605 0.0552605 1.44013)
(-0.0604814 0.0454873 1.35152)
(0.0683821 0.0364055 1.40592)
(0.0630689 0.0441311 1.48894)
(0.0501797 0.0501796 1.53198)
(0.0319879 0.0543476 1.553)
(0.0109521 0.0564912 1.56141)
(-0.0109519 0.0564912 1.56141)
(-0.0319878 0.0543476 1.553)
(-0.0501796 0.0501796 1.53198)
(-0.0630688 0.0441311 1.48894)
(-0.068382 0.0364055 1.40592)
(0.0742051 0.023368 1.43821)
(0.0685341 0.0282256 1.51468)
(0.0543477 0.0319878 1.553)
(0.0345545 0.0345544 1.57058)
(0.0118161 0.0358749 1.57707)
(-0.011816 0.0358749 1.57707)
(-0.0345544 0.0345544 1.57058)
(-0.0543476 0.0319878 1.553)
(-0.068534 0.0282256 1.51468)
(-0.074205 0.023368 1.43821)
(0.0772048 0.00804165 1.45313)
(0.0713452 0.00968391 1.52575)
(0.0564913 0.010952 1.56141)
(0.035875 0.011816 1.57707)
(0.0122624 0.0122623 1.58252)
(-0.0122623 0.0122623 1.58252)
(-0.0358748 0.011816 1.57707)
(-0.0564912 0.010952 1.56141)
(-0.0713451 0.00968391 1.52575)
(-0.0772047 0.00804165 1.45313)
(0.0772048 -0.00804171 1.45313)
(0.0713452 -0.00968397 1.52575)
(0.0564913 -0.010952 1.56141)
(0.035875 -0.0118161 1.57707)
(0.0122624 -0.0122624 1.58252)
(-0.0122623 -0.0122624 1.58252)
(-0.0358748 -0.0118161 1.57707)
(-0.0564912 -0.010952 1.56141)
(-0.0713451 -0.00968397 1.52575)
(-0.0772047 -0.00804172 1.45313)
(0.0742051 -0.0233681 1.43821)
(0.0685341 -0.0282256 1.51468)
(0.0543477 -0.0319879 1.553)
(0.0345545 -0.0345545 1.57058)
(0.0118161 -0.0358749 1.57707)
(-0.011816 -0.0358749 1.57707)
(-0.0345544 -0.0345545 1.57058)
(-0.0543476 -0.0319879 1.553)
(-0.068534 -0.0282257 1.51468)
(-0.074205 -0.0233681 1.43821)
(0.0683821 -0.0364056 1.40592)
(0.0630689 -0.0441311 1.48894)
(0.0501797 -0.0501796 1.53198)
(0.0319879 -0.0543477 1.553)
(0.0109521 -0.0564913 1.56141)
(-0.0109519 -0.0564913 1.56141)
(-0.0319878 -0.0543477 1.553)
(-0.0501796 -0.0501796 1.53198)
(-0.0630688 -0.0441311 1.48894)
(-0.068382 -0.0364056 1.40592)
(0.0604815 -0.0454873 1.35152)
(0.0552606 -0.0552605 1.44013)
(0.0441311 -0.0630689 1.48894)
(0.0282257 -0.0685341 1.51468)
(0.00968401 -0.0713452 1.52575)
(-0.00968387 -0.0713452 1.52575)
(-0.0282256 -0.0685341 1.51468)
(-0.044131 -0.0630689 1.48894)
(-0.0552605 -0.0552606 1.44013)
(-0.0604814 -0.0454873 1.35152)
(0.0508829 -0.0508828 1.26779)
(0.0454873 -0.0604815 1.35152)
(0.0364056 -0.068382 1.40592)
(0.0233681 -0.0742051 1.43821)
(0.00804176 -0.0772047 1.45313)
(-0.00804161 -0.0772047 1.45313)
(-0.023368 -0.0742051 1.43821)
(-0.0364055 -0.068382 1.40592)
(-0.0454872 -0.0604815 1.35152)
(-0.0508828 -0.0508829 1.26779)
(0.029438 0.0294378 1.13916)
(0.0273662 0.0362572 1.264)
(0.0223833 0.0419314 1.35454)
(0.0146492 0.0461081 1.41276)
(0.00509674 0.048299 1.44101)
(-0.00509639 0.0482991 1.44101)
(-0.0146488 0.0461082 1.41276)
(-0.022383 0.0419314 1.35454)
(-0.0273659 0.0362572 1.264)
(-0.0294378 0.0294378 1.13916)
(0.0362574 0.0273659 1.264)
(0.0342661 0.0342659 1.41081)
(0.0281265 0.0399449 1.50483)
(0.0183893 0.0440014 1.56049)
(0.00638406 0.0461083 1.5863)
(-0.00638374 0.0461083 1.5863)
(-0.018389 0.0440014 1.56049)
(-0.0281262 0.039945 1.50483)
(-0.0342659 0.034266 1.41081)
(-0.0362572 0.027366 1.264)
(0.0419315 0.022383 1.35454)
(0.0399451 0.0281262 1.50483)
(0.0327475 0.0327473 1.59723)
(0.0213505 0.0359554 1.64978)
(0.00739898 0.0376029 1.67351)
(-0.00739869 0.0376029 1.67351)
(-0.0213502 0.0359555 1.64978)
(-0.0327472 0.0327473 1.59723)
(-0.0399449 0.0281263 1.50483)
(-0.0419313 0.0223831 1.35454)
(0.0461083 0.0146489 1.41276)
(0.0440016 0.0183891 1.56049)
(0.0359556 0.0213503 1.64978)
(0.0233777 0.0233775 1.69966)
(0.00809326 0.0244135 1.72196)
(-0.00809299 0.0244135 1.72196)
(-0.0233774 0.0233775 1.69966)
(-0.0359554 0.0213503 1.64978)
(-0.0440014 0.0183891 1.56049)
(-0.0461081 0.0146489 1.41276)
(0.0482992 0.00509648 1.44101)
(0.0461085 0.00638383 1.5863)
(0.0376031 0.00739877 1.67351)
(0.0244137 0.00809307 1.72196)
(0.00844945 0.00844926 1.74358)
(-0.00844918 0.00844926 1.74358)
(-0.0244135 0.00809307 1.72196)
(-0.0376028 0.00739877 1.67351)
(-0.0461082 0.00638384 1.5863)
(-0.048299 0.00509649 1.44101)
(0.0482992 -0.00509663 1.44101)
(0.0461085 -0.00638396 1.5863)
(0.0376031 -0.00739889 1.67351)
(0.0244137 -0.00809318 1.72196)
(0.00844945 -0.00844937 1.74358)
(-0.00844918 -0.00844937 1.74358)
(-0.0244135 -0.00809318 1.72196)
(-0.0376028 -0.0073989 1.67351)
(-0.0461082 -0.00638397 1.5863)
(-0.048299 -0.00509664 1.44101)
(0.0461083 -0.014649 1.41276)
(0.0440016 -0.0183892 1.56049)
(0.0359556 -0.0213504 1.64978)
(0.0233777 -0.0233776 1.69966)
(0.00809326 -0.0244136 1.72196)
(-0.00809299 -0.0244136 1.72196)
(-0.0233774 -0.0233776 1.69966)
(-0.0359554 -0.0213504 1.64978)
(-0.0440014 -0.0183893 1.56049)
(-0.0461081 -0.0146491 1.41276)
(0.0419315 -0.0223831 1.35454)
(0.0399451 -0.0281263 1.50483)
(0.0327475 -0.0327474 1.59723)
(0.0213505 -0.0359555 1.64978)
(0.00739898 -0.037603 1.67351)
(-0.00739869 -0.037603 1.67351)
(-0.0213502 -0.0359556 1.64978)
(-0.0327472 -0.0327474 1.59723)
(-0.0399449 -0.0281264 1.50483)
(-0.0419313 -0.0223832 1.35454)
(0.0362573 -0.027366 1.264)
(0.0342661 -0.034266 1.41081)
(0.0281264 -0.039945 1.50483)
(0.0183893 -0.0440015 1.56049)
(0.00638406 -0.0461084 1.5863)
(-0.00638374 -0.0461084 1.5863)
(-0.018389 -0.0440015 1.56049)
(-0.0281262 -0.0399451 1.50483)
(-0.0342658 -0.0342661 1.41081)
(-0.0362571 -0.0273661 1.264)
(0.0294379 -0.0294379 1.13916)
(0.0273661 -0.0362573 1.264)
(0.0223832 -0.0419314 1.35454)
(0.0146491 -0.0461082 1.41276)
(0.00509673 -0.0482991 1.44101)
(-0.00509639 -0.0482991 1.44101)
(-0.0146488 -0.0461083 1.41276)
(-0.0223829 -0.0419315 1.35454)
(-0.0273659 -0.0362573 1.264)
(-0.0294377 -0.0294379 1.13916)
(0.00588763 0.00588717 1.1525)
(0.00666849 0.0082279 1.28429)
(0.00621118 0.0105487 1.38419)
(0.00436664 0.0124142 1.45073)
(0.00156955 0.0134342 1.48378)
(-0.00156884 0.0134343 1.48378)
(-0.00436594 0.0124143 1.45073)
(-0.00621054 0.0105488 1.38419)
(-0.00666791 0.00822805 1.28429)
(-0.00588716 0.00588734 1.1525)
(0.00822831 0.00666797 1.28429)
(0.00974616 0.00974571 1.44582)
(0.00909253 0.0125544 1.55604)
(0.00635825 0.0146734 1.62466)
(0.00227359 0.0157975 1.6575)
(-0.00227296 0.0157976 1.6575)
(-0.00635764 0.0146734 1.62466)
(-0.00909195 0.0125545 1.55604)
(-0.00974564 0.00974582 1.44582)
(-0.00822789 0.00666811 1.28429)
(0.010549 0.00621064 1.38419)
(0.0125548 0.00909206 1.55604)
(0.0115902 0.0115898 1.66971)
(0.00802977 0.0133819 1.73809)
(0.00285543 0.0142908 1.77002)
(-0.00285486 0.0142908 1.77002)
(-0.00802921 0.0133819 1.73809)
(-0.0115896 0.0115898 1.66971)
(-0.0125543 0.00909213 1.55604)
(-0.0105486 0.00621074 1.38419)
(0.0124145 0.00436609 1.45073)
(0.0146737 0.00635778 1.62466)
(0.0133823 0.00802935 1.73809)
(0.0091722 0.00917181 1.80489)
(0.00324059 0.00969857 1.83542)
(-0.00324005 0.00969857 1.83542)
(-0.00917167 0.00917182 1.80489)
(-0.0133818 0.00802937 1.73809)
(-0.0146733 0.00635782 1.62466)
(-0.0124142 0.00436615 1.45073)
(0.0134345 0.00156902 1.48378)
(0.0157979 0.00227313 1.6575)
(0.0142912 0.00285501 1.77002)
(0.00969894 0.00324019 1.83542)
(0.0034053 0.00340492 1.86469)
(-0.00340477 0.00340492 1.86469)
(-0.00969843 0.0032402 1.83542)
(-0.0142907 0.00285502 1.77002)
(-0.0157974 0.00227314 1.6575)
(-0.0134342 0.00156904 1.48378)
(0.0134345 -0.00156934 1.48378)
(0.0157978 -0.00227341 1.6575)
(0.0142912 -0.00285527 1.77002)
(0.00969894 -0.00324043 1.83542)
(0.0034053 -0.00340515 1.86469)
(-0.00340477 -0.00340515 1.86469)
(-0.00969843 -0.00324044 1.83542)
(-0.0142907 -0.00285528 1.77002)
(-0.0157974 -0.00227342 1.6575)
(-0.0134342 -0.00156936 1.48378)
(0.0124145 -0.0043664 1.45073)
(0.0146737 -0.00635805 1.62466)
(0.0133823 -0.0080296 1.73809)
(0.00917219 -0.00917204 1.80489)
(0.00324059 -0.0096988 1.83542)
(-0.00324004 -0.0096988 1.83542)
(-0.00917167 -0.00917206 1.80489)
(-0.0133818 -0.00802962 1.73809)
(-0.0146732 -0.00635809 1.62466)
(-0.0124141 -0.00436646 1.45073)
(0.0105489 -0.00621093 1.38419)
(0.0125547 -0.00909231 1.55604)
(0.0115901 -0.01159 1.66971)
(0.00802976 -0.0133821 1.73809)
(0.00285543 -0.014291 1.77002)
(-0.00285485 -0.014291 1.77002)
(-0.0080292 -0.0133821 1.73809)
(-0.0115896 -0.01159 1.66971)
(-0.0125543 -0.00909239 1.55604)
(-0.0105486 -0.00621103 1.38419)
(0.00822824 -0.00666822 1.28429)
(0.00974611 -0.00974593 1.44582)
(0.00909249 -0.0125546 1.55604)
(0.00635823 -0.0146735 1.62466)
(0.00227358 -0.0157977 1.6575)
(-0.00227296 -0.0157977 1.6575)
(-0.00635762 -0.0146736 1.62466)
(-0.00909192 -0.0125547 1.55604)
(-0.00974559 -0.00974605 1.44582)
(-0.00822783 -0.00666837 1.28429)
(0.00588755 -0.00588737 1.1525)
(0.00666842 -0.00822809 1.28429)
(0.00621113 -0.0105488 1.38419)
(0.00436661 -0.0124144 1.45073)
(0.00156954 -0.0134344 1.48378)
(-0.00156883 -0.0134344 1.48378)
(-0.00436592 -0.0124144 1.45073)
(-0.00621049 -0.0105489 1.38419)
(-0.00666785 -0.00822824 1.28429)
(-0.00588709 -0.00588755 1.1525)
(0.00543493 0.00543406 1.11571)
(0.00524501 0.00684372 1.25313)
(0.00443747 0.00809945 1.35941)
(0.00298359 0.00905841 1.43137)
(0.00105268 0.00957319 1.46752)
(-0.00105134 0.00957324 1.46752)
(-0.0029823 0.00905853 1.43138)
(-0.00443627 0.00809965 1.35941)
(-0.00524393 0.006844 1.25313)
(-0.00543405 0.00543439 1.11572)
(0.00684449 0.00524403 1.25313)
(0.00679893 0.00679808 1.42459)
(0.00584767 0.00821058 1.54502)
(0.00395409 0.00927425 1.62184)
(0.00139534 0.0098319 1.65919)
(-0.00139416 0.00983193 1.65919)
(-0.00395295 0.00927434 1.62184)
(-0.0058466 0.00821072 1.54502)
(-0.00679797 0.00679829 1.4246)
(-0.00684371 0.0052443 1.25313)
(0.0081001 0.00443647 1.35941)
(0.0082113 0.0058468 1.54502)
(0.00710803 0.00710727 1.67214)
(0.00479657 0.00801571 1.75082)
(0.00168644 0.00846029 1.78822)
(-0.00168537 0.00846031 1.78822)
(-0.00479553 0.00801576 1.75083)
(-0.00710706 0.00710736 1.67214)
(-0.00821044 0.00584693 1.54502)
(-0.00809941 0.00443665 1.35941)
(0.00905896 0.00298258 1.43137)
(0.00927489 0.00395321 1.62183)
(0.0080164 0.00479579 1.75082)
(0.00536237 0.00536165 1.8289)
(0.00187073 0.00557845 1.86496)
(-0.00186973 0.00557845 1.86496)
(-0.0053614 0.00536167 1.8289)
(-0.0080155 0.00479583 1.75083)
(-0.00927409 0.00395329 1.62184)
(-0.00905832 0.00298269 1.43138)
(0.00957367 0.00105169 1.46752)
(0.00983248 0.00139448 1.65919)
(0.00846093 0.00168565 1.78822)
(0.00557913 0.00187 1.86496)
(0.00192323 0.00192253 1.89882)
(-0.00192227 0.00192254 1.89882)
(-0.00557819 0.00187001 1.86496)
(-0.00846006 0.00168567 1.78822)
(-0.00983171 0.0013945 1.65919)
(-0.00957305 0.00105172 1.46752)
(0.00957365 -0.00105228 1.46752)
(0.00983247 -0.001395 1.65919)
(0.00846092 -0.00168613 1.78822)
(0.00557913 -0.00187044 1.86496)
(0.00192323 -0.00192296 1.89882)
(-0.00192227 -0.00192297 1.89882)
(-0.00557819 -0.00187045 1.86496)
(-0.00846005 -0.00168614 1.78822)
(-0.0098317 -0.00139503 1.65919)
(-0.00957303 -0.00105232 1.46752)
(0.0090589 -0.00298315 1.43137)
(0.00927485 -0.00395372 1.62183)
(0.00801638 -0.00479624 1.75082)
(0.00536235 -0.00536208 1.8289)
(0.00187072 -0.00557886 1.86496)
(-0.00186972 -0.00557887 1.86496)
(-0.00536139 -0.00536211 1.8289)
(-0.00801548 -0.0047963 1.75083)
(-0.00927405 -0.0039538 1.62184)
(-0.00905826 -0.00298327 1.43138)
(0.00810001 -0.00443699 1.35941)
(0.00821124 -0.00584727 1.54502)
(0.00710799 -0.00710769 1.67214)
(0.00479655 -0.00801611 1.75082)
(0.00168643 -0.00846068 1.78822)
(-0.00168536 -0.00846069 1.78822)
(-0.00479551 -0.00801617 1.75083)
(-0.00710702 -0.00710779 1.67214)
(-0.00821038 -0.00584741 1.54502)
(-0.00809932 -0.00443719 1.35941)
(0.00684436 -0.00524451 1.25313)
(0.00679883 -0.00679851 1.42459)
(0.0058476 -0.00821096 1.54502)
(0.00395405 -0.0092746 1.62183)
(0.00139533 -0.00983224 1.65919)
(-0.00139416 -0.00983227 1.65919)
(-0.00395292 -0.00927469 1.62184)
(-0.00584654 -0.00821111 1.54502)
(-0.00679788 -0.00679872 1.4246)
(-0.00684358 -0.00524478 1.25313)
(0.00543478 -0.00543444 1.11571)
(0.00524488 -0.00684407 1.25313)
(0.00443738 -0.00809976 1.35941)
(0.00298354 -0.00905869 1.43137)
(0.00105266 -0.00957347 1.46752)
(-0.00105134 -0.00957351 1.46752)
(-0.00298226 -0.00905881 1.43137)
(-0.00443619 -0.00809996 1.35941)
(-0.00524381 -0.00684435 1.25313)
(-0.00543391 -0.00543478 1.11571)
(0.000804157 0.000802642 1.12197)
(0.00101948 0.00118871 1.25977)
(0.00102249 0.00161317 1.3671)
(0.000750725 0.00197635 1.44026)
(0.000275996 0.00218134 1.47719)
(-0.00027369 0.00218142 1.47719)
(-0.000748493 0.00197656 1.44026)
(-0.00102041 0.00161352 1.3671)
(-0.00101761 0.00118919 1.25978)
(-0.000802648 0.000803214 1.12198)
(0.00119004 0.00101778 1.25977)
(0.00159539 0.00159391 1.4327)
(0.00160387 0.00217381 1.55558)
(0.00117291 0.00264397 1.63483)
(0.000428794 0.00290268 1.67366)
(-0.000426752 0.00290273 1.67366)
(-0.00117093 0.00264413 1.63483)
(-0.00160203 0.00217407 1.55558)
(-0.00159373 0.00159428 1.4327)
(-0.00118869 0.00101825 1.25978)
(0.00161429 0.00102074 1.36709)
(0.00217508 0.00160235 1.55558)
(0.00216737 0.00216603 1.68669)
(0.00157253 0.0026082 1.76898)
(0.000571472 0.0028417 1.80844)
(-0.000569623 0.00284173 1.80844)
(-0.00157074 0.0026083 1.76898)
(-0.00216569 0.00216619 1.68669)
(-0.0021736 0.00160259 1.55558)
(-0.0016131 0.00102107 1.3671)
(0.0019773 0.00074896 1.44026)
(0.00264509 0.00117137 1.63483)
(0.00260941 0.00157116 1.76898)
(0.00187339 0.00187213 1.85139)
(0.000675464 0.00200659 1.88974)
(-0.000673735 0.0020066 1.88974)
(-0.00187172 0.00187218 1.85139)
(-0.00260785 0.00157125 1.76898)
(-0.00264372 0.0011715 1.63483)
(-0.0019762 0.000749151 1.44026)
(0.00218216 0.000274274 1.47719)
(0.00290368 0.000427277 1.67366)
(0.00284282 0.000570105 1.80844)
(0.00200778 0.000674193 1.88974)
(0.00071313 0.000711908 1.92555)
(-0.000711459 0.000711912 1.92555)
(-0.00200616 0.000674207 1.88974)
(-0.00284132 0.00057013 1.80844)
(-0.00290236 0.000427317 1.67366)
(-0.00218111 0.000274332 1.47719)
(0.00218213 -0.000275317 1.47719)
(0.00290366 -0.000428203 1.67366)
(0.00284281 -0.000570947 1.80844)
(0.00200777 -0.000674982 1.88974)
(0.000713127 -0.000712673 1.92555)
(-0.000711457 -0.000712679 1.92555)
(-0.00200615 -0.000675001 1.88974)
(-0.0028413 -0.00057098 1.80844)
(-0.00290234 -0.000428253 1.67366)
(-0.00218108 -0.000275387 1.47719)
(0.0019772 -0.000749969 1.44026)
(0.00264502 -0.00117227 1.63483)
(0.00260936 -0.00157197 1.76898)
(0.00187337 -0.0018729 1.85139)
(0.000675455 -0.00200733 1.88974)
(-0.00067373 -0.00200735 1.88974)
(-0.0018717 -0.00187295 1.85139)
(-0.00260781 -0.00157207 1.76898)
(-0.00264364 -0.00117241 1.63483)
(-0.0019761 -0.000750172 1.44026)
(0.00161413 -0.00102168 1.36709)
(0.00217496 -0.00160319 1.55558)
(0.00216728 -0.00216678 1.68669)
(0.00157248 -0.00260891 1.76898)
(0.000571455 -0.00284239 1.80844)
(-0.000569613 -0.00284242 1.80844)
(-0.0015707 -0.00260901 1.76898)
(-0.00216562 -0.00216696 1.68669)
(-0.00217348 -0.00160344 1.55558)
(-0.00161294 -0.00102202 1.3671)
(0.00118981 -0.00101862 1.25977)
(0.00159521 -0.00159466 1.4327)
(0.00160376 -0.00217448 1.55558)
(0.00117284 -0.0026446 1.63483)
(0.000428766 -0.00290328 1.67366)
(-0.000426738 -0.00290334 1.67366)
(-0.00117087 -0.00264476 1.63483)
(-0.00160192 -0.00217475 1.55558)
(-0.00159357 -0.00159504 1.4327)
(-0.00118847 -0.0010191 1.25978)
(0.000803892 -0.000803324 1.12197)
(0.00101925 -0.00118931 1.25977)
(0.00102233 -0.00161371 1.36709)
(0.000750625 -0.00197685 1.44026)
(0.000275956 -0.00218182 1.47719)
(-0.00027367 -0.0021819 1.47719)
(-0.000748411 -0.00197706 1.44026)
(-0.00102027 -0.00161407 1.3671)
(-0.0010174 -0.0011898 1.25978)
(-0.000802389 -0.000803903 1.12198)
(0.00128534 0.00128286 1.11323)
(0.00121616 0.00159515 1.25238)
(0.00101439 0.0018679 1.36111)
(0.000677154 0.00207483 1.43543)
(0.000239218 0.002186 1.47301)
(-0.000235443 0.00218612 1.47301)
(-0.0006735 0.00207519 1.43543)
(-0.00101099 0.00186847 1.36111)
(-0.00121312 0.00159594 1.25239)
(-0.00128288 0.00128378 1.11324)
(0.00159734 0.00121337 1.25238)
(0.00154496 0.00154252 1.42749)
(0.0013096 0.00184273 1.55249)
(0.000880801 0.00207289 1.63344)
(0.000311258 0.00219569 1.67322)
(-0.000307896 0.00219578 1.67322)
(-0.000877545 0.00207315 1.63345)
(-0.00130656 0.00184317 1.5525)
(-0.00154224 0.00154313 1.4275)
(-0.00159513 0.00121414 1.25239)
(0.00186975 0.0010115 1.3611)
(0.00184484 0.00130708 1.55249)
(0.00158109 0.00157887 1.6864)
(0.00106636 0.00178403 1.77092)
(0.000376175 0.0018892 1.8116)
(-0.000373121 0.00188926 1.8116)
(-0.0010634 0.0017842 1.77092)
(-0.00157834 0.00157915 1.6864)
(-0.00184239 0.00130748 1.5525)
(-0.00186779 0.00101204 1.36111)
(0.00207642 0.000674247 1.43542)
(0.00207474 0.000878252 1.63344)
(0.00178604 0.00106409 1.77092)
(0.00120099 0.0011989 1.85591)
(0.000421329 0.00125591 1.89561)
(-0.000418473 0.00125594 1.89562)
(-0.00119822 0.00119898 1.85591)
(-0.00178346 0.00106424 1.77092)
(-0.00207247 0.000878477 1.63345)
(-0.0020746 0.000674563 1.43543)
(0.00218736 0.000236383 1.473)
(0.00219735 0.000308749 1.67322)
(0.00189106 0.000373909 1.8116)
(0.00125789 0.000419222 1.89561)
(0.000435434 0.000433408 1.93272)
(-0.000432673 0.000433415 1.93272)
(-0.00125521 0.000419244 1.89562)
(-0.00188857 0.000373951 1.8116)
(-0.00219517 0.000308815 1.67323)
(-0.00218562 0.000236481 1.47301)
(0.0021873 -0.000238122 1.473)
(0.00219731 -0.000310295 1.67322)
(0.00189104 -0.000375315 1.8116)
(0.00125788 -0.00042054 1.89561)
(0.000435429 -0.000434686 1.93272)
(-0.000432671 -0.000434696 1.93272)
(-0.0012552 -0.000420571 1.89562)
(-0.00188855 -0.000375371 1.8116)
(-0.00219513 -0.000310379 1.67322)
(-0.00218557 -0.000238237 1.47301)
(0.00207626 -0.00067593 1.43542)
(0.00207462 -0.000879751 1.63344)
(0.00178596 -0.00106545 1.77092)
(0.00120094 -0.00120018 1.85591)
(0.000421312 -0.00125715 1.89561)
(-0.000418464 -0.00125718 1.89561)
(-0.00119818 -0.00120027 1.85591)
(-0.00178339 -0.00106561 1.77092)
(-0.00207235 -0.000879991 1.63345)
(-0.00207444 -0.000676262 1.43543)
(0.00186949 -0.00101307 1.3611)
(0.00184463 -0.00130848 1.55249)
(0.00158096 -0.00158014 1.6864)
(0.00106628 -0.00178522 1.77092)
(0.000376145 -0.00189035 1.8116)
(-0.000373107 -0.00189041 1.8116)
(-0.00106334 -0.00178539 1.77092)
(-0.00157821 -0.00158043 1.6864)
(-0.0018422 -0.0013089 1.5525)
(-0.00186753 -0.00101362 1.36111)
(0.00159697 -0.00121477 1.25238)
(0.00154467 -0.00154378 1.42749)
(0.0013094 -0.00184386 1.55249)
(0.000880682 -0.00207393 1.63344)
(0.000311211 -0.0021967 1.67322)
(-0.000307875 -0.00219679 1.67322)
(-0.000877449 -0.0020742 1.63344)
(-0.00130638 -0.0018443 1.5525)
(-0.00154196 -0.00154439 1.4275)
(-0.00159477 -0.00121555 1.25239)
(0.0012849 -0.001284 1.11323)
(0.00121579 -0.00159617 1.25238)
(0.00101412 -0.00186881 1.3611)
(0.000676986 -0.00207567 1.43542)
(0.00023915 -0.0021868 1.473)
(-0.000235413 -0.00218692 1.47301)
(-0.000673368 -0.00207603 1.43543)
(-0.00101075 -0.00186938 1.36111)
(-0.00121277 -0.00159696 1.25239)
(-0.00128245 -0.00128493 1.11324)
(0.000170677 0.000166842 1.11513)
(0.00022063 0.000252811 1.25437)
(0.000223045 0.000348259 1.3633)
(0.000164691 0.000430439 1.43786)
(6.22616e-05 0.00047715 1.4756)
(-5.64681e-05 0.00047733 1.4756)
(-0.000159087 0.000430979 1.43787)
(-0.000217829 0.000349128 1.36331)
(-0.000215967 0.000254011 1.25438)
(-0.00016691 0.000168242 1.11515)
(0.000256226 0.000216297 1.25437)
(0.000348751 0.000344954 1.42979)
(0.000351478 0.000474111 1.55528)
(0.000257682 0.000579624 1.63671)
(9.57661e-05 0.000638549 1.67678)
(-9.05679e-05 0.000638682 1.67678)
(-0.000252648 0.000580027 1.63671)
(-0.000346782 0.000474779 1.55528)
(-0.000344557 0.000345887 1.4298)
(-0.000252817 0.000217477 1.25438)
(0.000351153 0.000218565 1.3633)
(0.000477409 0.00034754 1.55528)
(0.000476314 0.000472827 1.68998)
(0.000347 0.000573391 1.77522)
(0.000127822 0.000628604 1.81632)
(-0.000123077 0.000628687 1.81633)
(-0.000342404 0.000573646 1.77522)
(-0.000472033 0.000473261 1.68998)
(-0.000473619 0.000348164 1.55528)
(-0.00034811 0.000219393 1.36331)
(0.000432923 0.000160174 1.43786)
(0.000582528 0.000253695 1.6367)
(0.000576542 0.000343426 1.77522)
(0.00041757 0.000414285 1.86112)
(0.000152753 0.000449274 1.90133)
(-0.000148305 0.000449315 1.90133)
(-0.00041326 0.000414418 1.86112)
(-0.000572535 0.000343663 1.77522)
(-0.000579003 0.000254049 1.63671)
(-0.000430103 0.000160665 1.43787)
(0.00047928 5.78557e-05 1.47559)
(0.000641156 9.18412e-05 1.67677)
(0.000631531 0.000124263 1.81632)
(0.00045239 0.000149437 1.90133)
(0.000163098 0.000159908 1.93895)
(-0.000158795 0.00015992 1.93895)
(-0.000448216 0.000149474 1.90133)
(-0.000627655 0.000124331 1.81633)
(-0.000637762 9.19477e-05 1.67678)
(-0.000476576 5.80101e-05 1.4756)
(0.000479192 -6.06294e-05 1.47559)
(0.000641089 -9.43175e-05 1.67677)
(0.000631489 -0.00012652 1.81632)
(0.000452367 -0.000151555 1.90133)
(0.000163089 -0.000161963 1.93895)
(-0.000158791 -0.000161979 1.93895)
(-0.000448199 -0.000151605 1.90133)
(-0.000627617 -0.000126608 1.81633)
(-0.000637699 -9.44469e-05 1.67678)
(-0.000476491 -6.08034e-05 1.4756)
(0.000432657 -0.000162859 1.43786)
(0.000582327 -0.000256094 1.6367)
(0.000576411 -0.000345612 1.77521)
(0.000417495 -0.000416337 1.86112)
(0.000152723 -0.000451266 1.90133)
(-0.000148294 -0.000451312 1.90133)
(-0.000413204 -0.000416483 1.86112)
(-0.000572419 -0.000345868 1.77522)
(-0.000578815 -0.000256468 1.63671)
(-0.000429846 -0.000163367 1.43787)
(0.000350721 -0.000221068 1.3633)
(0.000477073 -0.00034978 1.55527)
(0.000476088 -0.000474864 1.68997)
(0.000346866 -0.000575299 1.77521)
(0.000127766 -0.000630453 1.81632)
(-0.000123058 -0.00063054 1.81632)
(-0.000342305 -0.000575564 1.77522)
(-0.000471838 -0.000475313 1.68998)
(-0.00047331 -0.000350419 1.55528)
(-0.000347699 -0.000221906 1.36331)
(0.000255625 -0.000218541 1.25436)
(0.000348275 -0.00034696 1.42978)
(0.000351148 -0.000475918 1.55527)
(0.000257479 -0.000581303 1.6367)
(9.56792e-05 -0.000640166 1.67677)
(-9.05425e-05 -0.000640302 1.67677)
(-0.000252504 -0.000581712 1.63671)
(-0.000346506 -0.000476593 1.55528)
(-0.000344128 -0.000347899 1.42979)
(-0.000252252 -0.00021972 1.25437)
(0.000169965 -0.000168664 1.11513)
(0.000220019 -0.000254448 1.25436)
(0.0002226 -0.000349712 1.3633)
(0.000164404 -0.000431784 1.43786)
(6.2135e-05 -0.000478439 1.47559)
(-5.64365e-05 -0.000478619 1.47559)
(-0.000158891 -0.000432324 1.43786)
(-0.000217468 -0.00035058 1.36331)
(-0.00021543 -0.000255642 1.25437)
(-0.000166256 -0.000170051 1.11514)
(0.000327627 0.000322061 1.11291)
(0.000308667 0.000400354 1.25249)
(0.00025655 0.000468157 1.36179)
(0.000171727 0.000519235 1.43663)
(6.29524e-05 0.000546707 1.47453)
(-5.45669e-05 0.000546965 1.47453)
(-0.00016362 0.00052001 1.43664)
(-0.000249016 0.000469399 1.3618)
(-0.000301945 0.000402057 1.25251)
(-0.000322207 0.000324025 1.11293)
(0.000405362 0.00030235 1.25249)
(0.000388885 0.000383293 1.42847)
(0.000327352 0.000456108 1.55449)
(0.000219928 0.000511448 1.63633)
(7.96974e-05 0.000541012 1.67663)
(-7.20879e-05 0.000541206 1.67663)
(-0.000212564 0.000512034 1.63634)
(-0.000320491 0.000457072 1.5545)
(-0.000382769 0.000384629 1.42849)
(-0.0004004 0.00030402 1.25251)
(0.000472436 0.000250001 1.36178)
(0.000461002 0.000321536 1.55449)
(0.000391495 0.000386308 1.68987)
(0.000263308 0.000434919 1.77563)
(9.46583e-05 0.000460081 1.81702)
(-8.76616e-05 0.000460203 1.81702)
(-0.000256535 0.000435292 1.77564)
(-0.000385192 0.000386939 1.68988)
(-0.000455429 0.000322434 1.5545)
(-0.000467969 0.000251178 1.3618)
(0.00052293 0.000165114 1.43662)
(0.00051578 0.000214032 1.63633)
(0.000439627 0.000257987 1.77563)
(0.000294894 0.000289985 1.86213)
(0.000105172 0.000304072 1.90266)
(-9.85876e-05 0.000304133 1.90266)
(-0.000288516 0.00029018 1.86213)
(-0.0004337 0.000258331 1.77564)
(-0.000510571 0.000214541 1.63634)
(-0.000518766 0.000165812 1.43664)
(0.00054989 5.64997e-05 1.47451)
(0.00054491 7.38907e-05 1.67662)
(0.000464459 8.93587e-05 1.81702)
(0.000308734 0.000100218 1.90266)
(0.000108608 0.000103836 1.9406)
(-0.000102231 0.000103853 1.9406)
(-0.000302551 0.00010027 1.90266)
(-0.00045872 8.94542e-05 1.81702)
(-0.000539888 7.40389e-05 1.67663)
(-0.00054589 5.67126e-05 1.47453)
(0.000549754 -6.06609e-05 1.47451)
(0.000544805 -7.76339e-05 1.67662)
(0.00046439 -9.27863e-05 1.81701)
(0.000308694 -0.000103444 1.90266)
(0.000108589 -0.00010697 1.9406)
(-0.00010223 -0.000106995 1.9406)
(-0.000302528 -0.000103521 1.90266)
(-0.000458666 -9.29222e-05 1.81702)
(-0.000539797 -7.78304e-05 1.67663)
(-0.000545764 -6.09204e-05 1.47453)
(0.000522523 -0.000169144 1.43662)
(0.000515463 -0.000217659 1.63632)
(0.000439413 -0.000261308 1.77563)
(0.000294765 -0.000293111 1.86213)
(0.000105112 -0.000307112 1.90266)
(-9.85843e-05 -0.00030718 1.90266)
(-0.000288442 -0.000293329 1.86213)
(-0.000433536 -0.000261688 1.77563)
(-0.000510298 -0.000218209 1.63634)
(-0.000518391 -0.000169879 1.43664)
(0.000471775 -0.00025376 1.36178)
(0.000460473 -0.000324925 1.55449)
(0.000391128 -0.000389405 1.68986)
(0.000263078 -0.000437828 1.77563)
(9.45484e-05 -0.000462903 1.81702)
(-8.76578e-05 -0.000463031 1.81702)
(-0.000256407 -0.000438218 1.77563)
(-0.000384918 -0.000390061 1.68987)
(-0.000454983 -0.00032585 1.5545)
(-0.00046737 -0.000254955 1.36179)
(0.000404441 -0.000305726 1.25248)
(0.000388136 -0.000386332 1.42847)
(0.000326816 -0.000458857 1.55449)
(0.000219581 -0.00051401 1.63633)
(7.95254e-05 -0.000543482 1.67662)
(-7.20883e-05 -0.000543679 1.67662)
(-0.000212383 -0.000514601 1.63633)
(-0.000320109 -0.000459827 1.5545)
(-0.000382158 -0.000387668 1.42848)
(-0.000399585 -0.000307383 1.2525)
(0.000326536 -0.000324809 1.1129)
(0.000307706 -0.000402841 1.25248)
(0.000255828 -0.000470376 1.36178)
(0.000171237 -0.000521292 1.43662)
(6.2703e-05 -0.000548677 1.47452)
(-5.45768e-05 -0.000548933 1.47452)
(-0.000163381 -0.000522056 1.43663)
(-0.000248525 -0.000471599 1.36179)