/*--------------------------------*- C++ -*----------------------------------*\
| =========                 |                                                 |
| \\      /  F ield         | OpenFOAM: The Open Source CFD Toolbox           |
|  \\    /   O peration     | Version:  2406                                  |
|   \\  /    A nd           | Website:  www.openfoam.com                      |
|    \\/     M anipulation  |                                                 |
\*---------------------------------------------------------------------------*/
FoamFile
{
    version     2.0;
    format      ascii;
    arch        "LSB;label=32;scalar=64";
    class       surfaceScalarField;
    location    "2.4";
    object      phi;
}
// * * * * * * * * * * * * * * * * * * * * * * * * * * * * * * * * * * * * * //

dimensions      [0 3 -1 0 0 0 0];

oriented        oriented;

internalField   nonuniform List<scalar> 
46880
(
5.70227e-05
5.70227e-05
9.25627e-05
-6.58089e-05
-6.58089e-05
4.14847e-05
5.85524e-05
0.000107332
-6.81955e-05
2.17749e-05
5.89973e-05
0.000116854
-6.9121e-05
1.87656e-13
5.91027e-05
0.000121561
-6.94051e-05
-2.17749e-05
5.91027e-05
0.000121561
-6.94051e-05
-4.14847e-05
5.89973e-05
0.000116854
-6.9121e-05
-5.70227e-05
5.85524e-05
0.000107332
-6.81955e-05
5.70227e-05
9.25627e-05
-6.58089e-05
-6.58089e-05
5.85524e-05
4.14847e-05
0.000107332
-6.81955e-05
4.20291e-05
4.20291e-05
0.000121733
2.18254e-05
4.20503e-05
0.000130284
1.92414e-13
4.1986e-05
0.000134326
-2.18254e-05
4.1986e-05
0.000134326
-4.20291e-05
4.20503e-05
0.000130284
-5.85524e-05
4.20291e-05
0.000121733
4.14847e-05
0.000107332
-6.81955e-05
5.89973e-05
2.17749e-05
0.000116854
-6.9121e-05
4.20503e-05
2.18254e-05
0.000130284
2.17158e-05
2.17158e-05
0.000137965
1.57893e-13
2.16254e-05
0.00014148
-2.17158e-05
2.16254e-05
0.00014148
-4.20503e-05
2.17158e-05
0.000137965
-5.89973e-05
2.18254e-05
0.000130284
2.17749e-05
0.000116854
-6.9121e-05
5.91027e-05
9.39032e-13
0.000121561
-6.94051e-05
4.1986e-05
1.15905e-12
0.000134326
2.16254e-05
1.13574e-12
0.00014148
1.30079e-13
1.11252e-12
0.000144691
-2.16254e-05
1.08139e-12
0.000144691
-4.1986e-05
1.04868e-12
0.00014148
-5.91027e-05
1.05322e-12
0.000134326
8.6044e-13
0.000121561
-6.94051e-05
5.91027e-05
-2.17749e-05
0.000121561
-6.94051e-05
4.1986e-05
-2.18254e-05
0.000134326
2.16254e-05
-2.17158e-05
0.00014148
9.92745e-14
-2.16254e-05
0.000144691
-2.16254e-05
-2.16254e-05
0.000144691
-4.1986e-05
-2.17158e-05
0.00014148
-5.91027e-05
-2.18254e-05
0.000134326
-2.17749e-05
0.000121561
-6.94051e-05
5.89973e-05
-4.14846e-05
0.000116854
-6.9121e-05
4.20503e-05
-4.20291e-05
0.000130284
2.17158e-05
-4.20503e-05
0.000137965
5.85776e-14
-4.1986e-05
0.00014148
-2.17158e-05
-4.1986e-05
0.00014148
-4.20503e-05
-4.20503e-05
0.000137965
-5.89973e-05
-4.20291e-05
0.000130284
-4.14846e-05
0.000116854
-6.9121e-05
5.85524e-05
-5.70227e-05
0.000107332
-6.81955e-05
4.20291e-05
-5.85524e-05
0.000121733
2.18254e-05
-5.89973e-05
0.000130284
1.86558e-14
-5.91027e-05
0.000134326
-2.18254e-05
-5.91027e-05
0.000134326
-4.20291e-05
-5.89973e-05
0.000130284
-5.85524e-05
-5.85524e-05
0.000121733
-5.70227e-05
0.000107332
-6.81955e-05
5.70227e-05
9.25627e-05
-6.58089e-05
-6.58089e-05
4.14847e-05
0.000107332
-6.81955e-05
2.17749e-05
0.000116854
-6.9121e-05
-5.9378e-15
0.000121561
-6.94051e-05
-2.17749e-05
0.000121561
-6.94051e-05
-4.14847e-05
0.000116854
-6.9121e-05
-5.70227e-05
0.000107332
-6.81955e-05
9.25627e-05
-6.58089e-05
-6.58089e-05
2.12981e-05
2.12981e-05
9.11553e-05
-2.05944e-05
-2.05944e-05
1.7387e-05
2.43165e-05
0.000110076
-2.31488e-05
9.64834e-06
2.60548e-05
0.000123205
-2.46671e-05
1.2028e-13
2.68715e-05
0.000129837
-2.54995e-05
-9.64834e-06
2.68715e-05
0.000129837
-2.54995e-05
-1.7387e-05
2.60548e-05
0.000123205
-2.46671e-05
-2.12981e-05
2.43165e-05
0.000110076
-2.31488e-05
2.12981e-05
9.11553e-05
-2.05944e-05
-2.05944e-05
2.43165e-05
1.7387e-05
0.000110076
-2.31488e-05
1.97648e-05
1.97648e-05
0.000130836
1.0936e-05
2.11179e-05
0.00014405
1.05294e-13
2.17195e-05
0.000150414
-1.0936e-05
2.17195e-05
0.000150414
-1.97648e-05
2.11179e-05
0.00014405
-2.43165e-05
1.97648e-05
0.000130836
1.7387e-05
0.000110076
-2.31488e-05
2.60548e-05
9.64834e-06
0.000123205
-2.46671e-05
2.11179e-05
1.0936e-05
0.00014405
1.1672e-05
1.1672e-05
0.000156857
6.84225e-14
1.19938e-05
0.000162878
-1.1672e-05
1.19938e-05
0.000162878
-2.11179e-05
1.1672e-05
0.000156857
-2.60548e-05
1.0936e-05
0.00014405
9.64834e-06
0.000123205
-2.46671e-05
2.68715e-05
8.0968e-13
0.000129837
-2.54995e-05
2.17195e-05
9.35947e-13
0.000150414
1.19938e-05
8.8692e-13
0.000162878
4.13077e-14
8.63757e-13
0.000168678
-1.19938e-05
8.36481e-13
0.000168678
-2.17195e-05
8.14523e-13
0.000162878
-2.68715e-05
8.51661e-13
0.000150414
7.50829e-13
0.000129837
-2.54995e-05
2.68715e-05
-9.64834e-06
0.000129837
-2.54995e-05
2.17195e-05
-1.0936e-05
0.000150414
1.19938e-05
-1.1672e-05
0.000162878
1.45584e-14
-1.19938e-05
0.000168678
-1.19938e-05
-1.19938e-05
0.000168678
-2.17195e-05
-1.1672e-05
0.000162878
-2.68715e-05
-1.0936e-05
0.000150414
-9.64834e-06
0.000129837
-2.54995e-05
2.60548e-05
-1.7387e-05
0.000123205
-2.46671e-05
2.11179e-05
-1.97648e-05
0.00014405
1.1672e-05
-2.11179e-05
0.000156857
-1.98684e-14
-2.17195e-05
0.000162878
-1.1672e-05
-2.17195e-05
0.000162878
-2.11179e-05
-2.11179e-05
0.000156857
-2.60548e-05
-1.97648e-05
0.00014405
-1.7387e-05
0.000123205
-2.46671e-05
2.43165e-05
-2.12981e-05
0.000110076
-2.31488e-05
1.97648e-05
-2.43165e-05
0.000130836
1.0936e-05
-2.60548e-05
0.00014405
-5.84699e-14
-2.68715e-05
0.000150414
-1.0936e-05
-2.68715e-05
0.000150414
-1.97648e-05
-2.60548e-05
0.00014405
-2.43165e-05
-2.43165e-05
0.000130836
-2.12981e-05
0.000110076
-2.31488e-05
2.12981e-05
9.11553e-05
-2.05944e-05
-2.05944e-05
1.7387e-05
0.000110076
-2.31488e-05
9.64834e-06
0.000123205
-2.46671e-05
-7.79615e-14
0.000129837
-2.54995e-05
-9.64834e-06
0.000129837
-2.54995e-05
-1.7387e-05
0.000123205
-2.46671e-05
-2.12981e-05
0.000110076
-2.31488e-05
9.11553e-05
-2.05944e-05
-2.05944e-05
1.18127e-05
1.18127e-05
8.91259e-05
-1.0798e-05
-1.0798e-05
9.90265e-06
1.43956e-05
0.000110627
-1.30364e-05
5.62154e-06
1.59718e-05
0.000125963
-1.44489e-05
2.05076e-13
1.67467e-05
0.000133897
-1.51853e-05
-5.62154e-06
1.67467e-05
0.000133897
-1.51853e-05
-9.90265e-06
1.59718e-05
0.000125963
-1.44489e-05
-1.18127e-05
1.43956e-05
0.000110627
-1.30364e-05
1.18127e-05
8.91259e-05
-1.0798e-05
-1.0798e-05
1.43956e-05
9.90265e-06
0.000110627
-1.30364e-05
1.20477e-05
1.20477e-05
0.000135532
6.80902e-06
1.33212e-05
0.000151939
1.58222e-13
1.39201e-05
0.00016005
-6.80902e-06
1.39201e-05
0.00016005
-1.20477e-05
1.33212e-05
0.000151939
-1.43956e-05
1.20477e-05
0.000135532
9.90265e-06
0.000110627
-1.30364e-05
1.59718e-05
5.62155e-06
0.000125963
-1.44489e-05
1.33212e-05
6.80903e-06
0.000151939
7.49972e-06
7.49972e-06
0.0001685
8.66378e-14
7.81056e-06
0.000176487
-7.49972e-06
7.81056e-06
0.000176487
-1.33212e-05
7.49972e-06
0.0001685
-1.59718e-05
6.80902e-06
0.000151939
5.62155e-06
0.000125963
-1.44489e-05
1.67467e-05
9.61567e-13
0.000133897
-1.51853e-05
1.39201e-05
1.04098e-12
0.00016005
7.81056e-06
9.06922e-13
0.000176487
3.96385e-14
8.25214e-13
0.000184299
-7.81056e-06
7.87417e-13
0.000184299
-1.39201e-05
7.97893e-13
0.000176487
-1.67467e-05
8.84638e-13
0.00016005
8.07889e-13
0.000133897
-1.51853e-05
1.67467e-05
-5.62154e-06
0.000133897
-1.51853e-05
1.39201e-05
-6.80902e-06
0.00016005
7.81056e-06
-7.49972e-06
0.000176487
4.93245e-15
-7.81055e-06
0.000184299
-7.81056e-06
-7.81055e-06
0.000184299
-1.39201e-05
-7.49972e-06
0.000176487
-1.67467e-05
-6.80902e-06
0.00016005
-5.62154e-06
0.000133897
-1.51853e-05
1.59718e-05
-9.90265e-06
0.000125963
-1.44489e-05
1.33212e-05
-1.20476e-05
0.000151939
7.49972e-06
-1.33212e-05
0.0001685
-3.61488e-14
-1.39201e-05
0.000176487
-7.49972e-06
-1.39201e-05
0.000176487
-1.33212e-05
-1.33212e-05
0.0001685
-1.59718e-05
-1.20476e-05
0.000151939
-9.90265e-06
0.000125963
-1.44489e-05
1.43956e-05
-1.18127e-05
0.000110627
-1.30364e-05
1.20477e-05
-1.43956e-05
0.000135532
6.80902e-06
-1.59718e-05
0.000151939
-7.76696e-14
-1.67467e-05
0.00016005
-6.80902e-06
-1.67467e-05
0.00016005
-1.20477e-05
-1.59718e-05
0.000151939
-1.43956e-05
-1.43956e-05
0.000135532
-1.18127e-05
0.000110627
-1.30364e-05
1.18127e-05
8.91259e-05
-1.0798e-05
-1.0798e-05
9.90265e-06
0.000110627
-1.30364e-05
5.62154e-06
0.000125963
-1.44489e-05
-9.64814e-14
0.000133897
-1.51853e-05
-5.62154e-06
0.000133897
-1.51853e-05
-9.90265e-06
0.000125963
-1.44489e-05
-1.18127e-05
0.000110627
-1.30364e-05
8.91259e-05
-1.0798e-05
-1.0798e-05
2.98521e-06
2.98521e-06
8.73785e-05
-2.11152e-06
-2.11152e-06
2.93654e-06
4.20871e-06
0.000109321
-2.85467e-06
1.80601e-06
5.10333e-06
0.000125443
-3.45295e-06
3.48728e-14
5.56796e-06
0.000133927
-3.79171e-06
-1.80601e-06
5.56796e-06
0.000133927
-3.79171e-06
-2.93654e-06
5.10333e-06
0.000125443
-3.45295e-06
-2.98521e-06
4.20871e-06
0.000109321
-2.85467e-06
2.98521e-06
8.73785e-05
-2.11152e-06
-2.11152e-06
4.20871e-06
2.93654e-06
0.000109321
-2.85467e-06
4.13753e-06
4.13753e-06
0.000135674
2.52404e-06
4.95623e-06
0.000153699
8.6848e-15
5.34154e-06
0.0001628
-2.52404e-06
5.34154e-06
0.0001628
-4.13753e-06
4.95623e-06
0.000153699
-4.20871e-06
4.13753e-06
0.000135674
2.93654e-06
0.000109321
-2.85467e-06
5.10333e-06
1.80601e-06
0.000125443
-3.45295e-06
4.95623e-06
2.52404e-06
0.000153699
2.98743e-06
2.98743e-06
0.000172437
-3.04528e-14
3.17437e-06
0.000181642
-2.98743e-06
3.17437e-06
0.000181642
-4.95623e-06
2.98743e-06
0.000172437
-5.10333e-06
2.52404e-06
0.000153699
1.80601e-06
0.000125443
-3.45295e-06
5.56796e-06
9.18697e-13
0.000133927
-3.79171e-06
5.34154e-06
1.03303e-12
0.0001628
3.17437e-06
9.09397e-13
0.000181642
-6.03651e-14
8.05348e-13
0.000190648
-3.17437e-06
7.82498e-13
0.000190648
-5.34154e-06
8.45179e-13
0.000181642
-5.56796e-06
9.61352e-13
0.0001628
8.82667e-13
0.000133927
-3.79171e-06
5.56796e-06
-1.80601e-06
0.000133927
-3.79171e-06
5.34154e-06
-2.52404e-06
0.0001628
3.17437e-06
-2.98743e-06
0.000181642
-8.32204e-14
-3.17437e-06
0.000190648
-3.17437e-06
-3.17437e-06
0.000190648
-5.34154e-06
-2.98743e-06
0.000181642
-5.56796e-06
-2.52404e-06
0.0001628
-1.80601e-06
0.000133927
-3.79171e-06
5.10333e-06
-2.93654e-06
0.000125443
-3.45295e-06
4.95623e-06
-4.13753e-06
0.000153699
2.98743e-06
-4.95623e-06
0.000172437
-1.09601e-13
-5.34154e-06
0.000181642
-2.98743e-06
-5.34154e-06
0.000181642
-4.95623e-06
-4.95623e-06
0.000172437
-5.10333e-06
-4.13753e-06
0.000153699
-2.93654e-06
0.000125443
-3.45295e-06
4.20871e-06
-2.98521e-06
0.000109321
-2.85467e-06
4.13753e-06
-4.20871e-06
0.000135674
2.52404e-06
-5.10333e-06
0.000153699
-1.46233e-13
-5.56796e-06
0.0001628
-2.52404e-06
-5.56796e-06
0.0001628
-4.13753e-06
-5.10333e-06
0.000153699
-4.20871e-06
-4.20871e-06
0.000135674
-2.98521e-06
0.000109321
-2.85467e-06
2.98521e-06
8.73785e-05
-2.11152e-06
-2.11152e-06
2.93654e-06
0.000109321
-2.85467e-06
1.80601e-06
0.000125443
-3.45295e-06
-1.59412e-13
0.000133927
-3.79171e-06
-1.80601e-06
0.000133927
-3.79171e-06
-2.93654e-06
0.000125443
-3.45295e-06
-2.98521e-06
0.000109321
-2.85467e-06
8.73785e-05
-2.11152e-06
-2.11152e-06
1.75855e-06
1.75855e-06
8.68359e-05
-1.48727e-06
-1.48727e-06
1.58507e-06
2.31764e-06
0.000109058
-1.88066e-06
9.44341e-07
2.7317e-06
0.000125519
-2.1672e-06
2.96798e-13
2.94525e-06
0.000134245
-2.31887e-06
-9.44341e-07
2.94525e-06
0.000134245
-2.31887e-06
-1.58507e-06
2.7317e-06
0.000125519
-2.1672e-06
-1.75855e-06
2.31764e-06
0.000109058
-1.88066e-06
1.75855e-06
8.68359e-05
-1.48727e-06
-1.48727e-06
2.31764e-06
1.58508e-06
0.000109058
-1.88066e-06
2.13339e-06
2.13339e-06
0.000136043
1.27625e-06
2.52942e-06
0.000154759
2.45382e-13
2.71285e-06
0.000164309
-1.27625e-06
2.71285e-06
0.000164309
-2.13338e-06
2.52942e-06
0.000154759
-2.31764e-06
2.13339e-06
0.000136043
1.58508e-06
0.000109058
-1.88066e-06
2.7317e-06
9.44342e-07
0.000125519
-2.1672e-06
2.52941e-06
1.27625e-06
0.000154759
1.50567e-06
1.50567e-06
0.000174485
1.51031e-13
1.58998e-06
0.00018427
-1.50567e-06
1.58998e-06
0.00018427
-2.52941e-06
1.50567e-06
0.000174485
-2.7317e-06
1.27625e-06
0.000154759
9.44342e-07
0.000125519
-2.1672e-06
2.94525e-06
1.19222e-12
0.000134245
-2.31887e-06
2.71285e-06
1.30843e-12
0.000164309
1.58997e-06
1.12895e-12
0.00018427
8.13095e-14
9.61732e-13
0.000193828
-1.58997e-06
9.21263e-13
0.000193828
-2.71285e-06
1.00456e-12
0.00018427
-2.94525e-06
1.12741e-12
0.000164309
1.01474e-12
0.000134245
-2.31887e-06
2.94525e-06
-9.4434e-07
0.000134245
-2.31887e-06
2.71285e-06
-1.27624e-06
0.000164309
1.58997e-06
-1.50567e-06
0.00018427
4.17867e-14
-1.58997e-06
0.000193828
-1.58997e-06
-1.58997e-06
0.000193828
-2.71285e-06
-1.50567e-06
0.00018427
-2.94525e-06
-1.27624e-06
0.000164309
-9.4434e-07
0.000134245
-2.31887e-06
2.7317e-06
-1.58507e-06
0.000125519
-2.1672e-06
2.52941e-06
-2.13338e-06
0.000154759
1.50567e-06
-2.52941e-06
0.000174485
1.27279e-14
-2.71285e-06
0.00018427
-1.50567e-06
-2.71285e-06
0.00018427
-2.52941e-06
-2.52941e-06
0.000174485
-2.7317e-06
-2.13338e-06
0.000154759
-1.58507e-06
0.000125519
-2.1672e-06
2.31764e-06
-1.75855e-06
0.000109058
-1.88066e-06
2.13339e-06
-2.31763e-06
0.000136043
1.27625e-06
-2.7317e-06
0.000154759
-1.56675e-14
-2.94525e-06
0.000164309
-1.27625e-06
-2.94525e-06
0.000164309
-2.13339e-06
-2.7317e-06
0.000154759
-2.31764e-06
-2.31763e-06
0.000136043
-1.75855e-06
0.000109058
-1.88066e-06
1.75855e-06
8.68359e-05
-1.48727e-06
-1.48727e-06
1.58507e-06
0.000109058
-1.88066e-06
9.44341e-07
0.000125519
-2.1672e-06
-3.92009e-14
0.000134245
-2.31887e-06
-9.44341e-07
0.000134245
-2.31887e-06
-1.58507e-06
0.000125519
-2.1672e-06
-1.75855e-06
0.000109058
-1.88066e-06
8.68359e-05
-1.48727e-06
-1.48727e-06
6.09094e-07
6.09095e-07
8.65409e-05
-4.61558e-07
-4.61558e-07
5.88221e-07
8.41815e-07
0.000108839
-6.01563e-07
3.62056e-07
1.02624e-06
0.000125434
-7.14691e-07
-2.06485e-14
1.12581e-06
0.00013426
-7.78511e-07
-3.62056e-07
1.12581e-06
0.00013426
-7.78511e-07
-5.88221e-07
1.02624e-06
0.000125434
-7.14691e-07
-6.09094e-07
8.41815e-07
0.000108839
-6.01562e-07
6.09095e-07
8.65409e-05
-4.61559e-07
-4.61559e-07
8.41814e-07
5.88222e-07
0.000108839
-6.01562e-07
8.30744e-07
8.30746e-07
0.000136065
5.13707e-07
1.01887e-06
0.000155083
-4.20228e-14
1.11174e-06
0.000164837
-5.13707e-07
1.11174e-06
0.000164837
-8.30745e-07
1.01887e-06
0.000155083
-8.41815e-07
8.30745e-07
0.000136065
5.88222e-07
0.000108839
-6.01563e-07
1.02624e-06
3.62058e-07
0.000125434
-7.1469e-07
1.01887e-06
5.13708e-07
0.000155083
6.28552e-07
6.28553e-07
0.000175266
-7.12302e-14
6.77036e-07
0.000185334
-6.28552e-07
6.77036e-07
0.000185334
-1.01887e-06
6.28553e-07
0.000175266
-1.02624e-06
5.13708e-07
0.000155083
3.62058e-07
0.000125434
-7.14692e-07
1.12581e-06
1.2141e-12
0.00013426
-7.7851e-07
1.11173e-06
1.38796e-12
0.000164837
6.77035e-07
1.2517e-12
0.000185334
-9.01617e-14
1.11303e-12
0.000195182
-6.77035e-07
1.09835e-12
0.000195182
-1.11173e-06
1.21857e-12
0.000185334
-1.12581e-06
1.37132e-12
0.000164837
1.24813e-12
0.00013426
-7.78512e-07
1.12581e-06
-3.62055e-07
0.00013426
-7.7851e-07
1.11173e-06
-5.13705e-07
0.000164837
6.77035e-07
-6.28551e-07
0.000185334
-1.04288e-13
-6.77034e-07
0.000195182
-6.77035e-07
-6.77034e-07
0.000195182
-1.11173e-06
-6.28551e-07
0.000185334
-1.12581e-06
-5.13705e-07
0.000164837
-3.62055e-07
0.00013426
-7.78512e-07
1.02624e-06
-5.8822e-07
0.000125434
-7.14691e-07
1.01887e-06
-8.30743e-07
0.000155083
6.28552e-07
-1.01887e-06
0.000175266
-1.18829e-13
-1.11173e-06
0.000185334
-6.28552e-07
-1.11173e-06
0.000185334
-1.01887e-06
-1.01887e-06
0.000175266
-1.02624e-06
-8.30743e-07
0.000155083
-5.8822e-07
0.000125434
-7.14692e-07
8.41814e-07
-6.09093e-07
0.000108839
-6.01562e-07
8.30744e-07
-8.41813e-07
0.000136065
5.13707e-07
-1.02624e-06
0.000155083
-1.40034e-13
-1.12581e-06
0.000164837
-5.13707e-07
-1.12581e-06
0.000164837
-8.30745e-07
-1.02624e-06
0.000155083
-8.41814e-07
-8.41813e-07
0.000136065
-6.09093e-07
0.000108839
-6.01563e-07
6.09094e-07
8.65409e-05
-4.61558e-07
-4.61558e-07
5.88221e-07
0.000108839
-6.01562e-07
3.62056e-07
0.000125434
-7.1469e-07
-1.458e-13
0.00013426
-7.7851e-07
-3.62057e-07
0.00013426
-7.7851e-07
-5.88221e-07
0.000125434
-7.14691e-07
-6.09094e-07
0.000108839
-6.01562e-07
8.65409e-05
-4.61558e-07
-4.61558e-07
3.37042e-07
3.37043e-07
8.64326e-05
-2.82881e-07
-2.8288e-07
3.05728e-07
4.42556e-07
0.000108783
-3.55841e-07
1.82771e-07
5.24016e-07
0.000125443
-4.10568e-07
2.36079e-13
5.67997e-07
0.000134315
-4.40394e-07
-1.8277e-07
5.67997e-07
0.000134315
-4.40394e-07
-3.05727e-07
5.24016e-07
0.000125443
-4.10568e-07
-3.37042e-07
4.42555e-07
0.000108783
-3.5584e-07
3.37043e-07
8.64326e-05
-2.82881e-07
-2.82881e-07
4.42554e-07
3.05729e-07
0.000108783
-3.5584e-07
4.11361e-07
4.11363e-07
0.000136127
2.48164e-07
4.93895e-07
0.000155277
1.9122e-13
5.35806e-07
0.000165117
-2.48164e-07
5.35806e-07
0.000165117
-4.11361e-07
4.93895e-07
0.000155277
-4.42554e-07
4.11362e-07
0.000136127
3.05729e-07
0.000108783
-3.55841e-07
5.24015e-07
1.82772e-07
0.000125443
-4.10567e-07
4.93893e-07
2.48166e-07
0.000155277
2.99349e-07
2.9935e-07
0.000175655
1.0691e-13
3.22832e-07
0.000185846
-2.99349e-07
3.22832e-07
0.000185846
-4.93893e-07
2.9935e-07
0.000175655
-5.24015e-07
2.48165e-07
0.000155277
1.82772e-07
0.000125443
-4.10568e-07
5.67996e-07
1.72435e-12
0.000134315
-4.40393e-07
5.35805e-07
1.89913e-12
0.000165117
3.22831e-07
1.67202e-12
0.000185846
4.50199e-14
1.45453e-12
0.000195828
-3.22831e-07
1.41062e-12
0.000195828
-5.35805e-07
1.54698e-12
0.000185846
-5.67996e-07
1.70674e-12
0.000165117
1.52747e-12
0.000134315
-4.40395e-07
5.67996e-07
-1.82769e-07
0.000134315
-4.40393e-07
5.35805e-07
-2.48162e-07
0.000165117
3.22831e-07
-2.99347e-07
0.000185846
4.36613e-15
-3.22829e-07
0.000195828
-3.22831e-07
-3.22829e-07
0.000195828
-5.35805e-07
-2.99347e-07
0.000185846
-5.67996e-07
-2.48162e-07
0.000165117
-1.82769e-07
0.000134315
-4.40395e-07
5.24015e-07
-3.05726e-07
0.000125443
-4.10567e-07
4.93893e-07
-4.11359e-07
0.000155277
2.99349e-07
-4.93892e-07
0.000175655
-2.75809e-14
-5.35803e-07
0.000185846
-2.99349e-07
-5.35803e-07
0.000185846
-4.93893e-07
-4.93892e-07
0.000175655
-5.24015e-07
-4.11359e-07
0.000155277
-3.05726e-07
0.000125443
-4.10568e-07
4.42554e-07
-3.37041e-07
0.000108783
-3.5584e-07
4.11361e-07
-4.42553e-07
0.000136127
2.48164e-07
-5.24014e-07
0.000155277
-6.9659e-14
-5.67994e-07
0.000165117
-2.48164e-07
-5.67995e-07
0.000165117
-4.11361e-07
-5.24014e-07
0.000155277
-4.42554e-07
-4.42553e-07
0.000136127
-3.37041e-07
0.000108783
-3.55841e-07
3.37042e-07
8.64326e-05
-2.8288e-07
-2.82879e-07
3.05727e-07
0.000108783
-3.55839e-07
1.8277e-07
0.000125443
-4.10567e-07
-8.64019e-14
0.000134315
-4.40393e-07
-1.82771e-07
0.000134315
-4.40393e-07
-3.05727e-07
0.000125443
-4.10567e-07
-3.37042e-07
0.000108783
-3.5584e-07
8.64326e-05
-2.8288e-07
-2.8288e-07
1.51348e-07
1.5135e-07
8.63735e-05
-1.21837e-07
-1.21836e-07
1.40339e-07
2.02145e-07
0.000108747
-1.55427e-07
8.45678e-08
2.41371e-07
0.000125439
-1.81513e-07
-1.04558e-13
2.62704e-07
0.000134333
-1.96085e-07
-8.4568e-08
2.62704e-07
0.000134333
-1.96085e-07
-1.4034e-07
2.41371e-07
0.000125439
-1.81513e-07
-1.51349e-07
2.02145e-07
0.000108747
-1.55427e-07
1.5135e-07
8.63735e-05
-1.21837e-07
-1.21837e-07
2.02144e-07
1.40341e-07
0.000108747
-1.55426e-07
1.91011e-07
1.91013e-07
0.00013615
1.15755e-07
2.30229e-07
0.000155363
-9.83048e-14
2.50411e-07
0.000165245
-1.15755e-07
2.50411e-07
0.000165245
-1.91011e-07
2.30229e-07
0.000155363
-2.02144e-07
1.91013e-07
0.00013615
1.40341e-07
0.000108747
-1.55427e-07
2.41369e-07
8.45697e-08
0.000125439
-1.81511e-07
2.30227e-07
1.15757e-07
0.000155363
1.40054e-07
1.40056e-07
0.000175835
-1.01664e-13
1.51654e-07
0.000186085
-1.40054e-07
1.51654e-07
0.000186085
-2.30228e-07
1.40056e-07
0.000175835
-2.4137e-07
1.15757e-07
0.000155363
8.45698e-08
0.000125439
-1.81513e-07
2.62702e-07
1.6459e-12
0.000134333
-1.96083e-07
2.50409e-07
1.87644e-12
0.000165245
1.51653e-07
1.70436e-12
0.000186085
-1.02963e-13
1.53018e-12
0.000196131
-1.51653e-07
1.51713e-12
0.000196131
-2.50409e-07
1.68785e-12
0.000186085
-2.62703e-07
1.87789e-12
0.000165245
1.69914e-12
0.000134333
-1.96084e-07
2.62702e-07
-8.45665e-08
0.000134333
-1.96083e-07
2.50409e-07
-1.15754e-07
0.000165245
1.51653e-07
-1.40052e-07
0.000186085
-1.14927e-13
-1.51651e-07
0.000196131
-1.51653e-07
-1.51651e-07
0.000196131
-2.50409e-07
-1.40052e-07
0.000186085
-2.62703e-07
-1.15754e-07
0.000165245
-8.45665e-08
0.000134333
-1.96084e-07
2.41369e-07
-1.40338e-07
0.000125439
-1.81512e-07
2.30228e-07
-1.9101e-07
0.000155363
1.40054e-07
-2.30226e-07
0.000175835
-1.29192e-13
-2.50408e-07
0.000186085
-1.40054e-07
-2.50408e-07
0.000186085
-2.30228e-07
-2.30226e-07
0.000175835
-2.4137e-07
-1.9101e-07
0.000155363
-1.40338e-07
0.000125439
-1.81512e-07
2.02144e-07
-1.51347e-07
0.000108747
-1.55426e-07
1.91011e-07
-2.02142e-07
0.00013615
1.15755e-07
-2.41368e-07
0.000155363
-1.60538e-13
-2.62701e-07
0.000165245
-1.15756e-07
-2.62701e-07
0.000165245
-1.91012e-07
-2.41368e-07
0.000155363
-2.02144e-07
-2.02143e-07
0.00013615
-1.51348e-07
0.000108747
-1.55426e-07
1.51349e-07
8.63735e-05
-1.21836e-07
-1.21836e-07
1.4034e-07
0.000108747
-1.55425e-07
8.4568e-08
0.000125439
-1.81511e-07
-1.68657e-13
0.000134333
-1.96083e-07
-8.45683e-08
0.000134333
-1.96083e-07
-1.4034e-07
0.000125439
-1.81511e-07
-1.51349e-07
0.000108747
-1.55426e-07
8.63735e-05
-1.21836e-07
-1.21836e-07
7.90332e-08
7.90345e-08
8.63467e-05
-6.56224e-08
-6.56225e-08
7.18497e-08
1.04054e-07
0.000108733
-8.28795e-08
4.28782e-08
1.23074e-07
0.000125441
-9.59205e-08
5.7262e-13
1.3333e-07
0.000134345
-1.03102e-07
-4.28771e-08
1.3333e-07
0.000134345
-1.03102e-07
-7.18488e-08
1.23073e-07
0.000125441
-9.592e-08
-7.90327e-08
1.04053e-07
0.000108733
-8.28788e-08
7.90339e-08
8.63467e-05
-6.56224e-08
-6.56223e-08
1.04052e-07
7.18514e-08
0.000108733
-8.28781e-08
9.64211e-08
9.64231e-08
0.000136165
5.78784e-08
1.15181e-07
0.000155409
5.26944e-13
1.24754e-07
0.000165311
-5.78775e-08
1.24754e-07
0.000165311
-9.64204e-08
1.15181e-07
0.000155409
-1.04051e-07
9.64226e-08
0.000136165
7.18508e-08
0.000108733
-8.2879e-08
1.23072e-07
4.28799e-08
0.000125441
-9.59189e-08
1.15179e-07
5.78804e-08
0.000155409
6.94189e-08
6.94208e-08
0.000175927
3.84369e-13
7.49052e-08
0.000186204
-6.94183e-08
7.49052e-08
0.000186204
-1.15179e-07
6.94205e-08
0.000175927
-1.23072e-07
5.788e-08
0.000155409
4.28794e-08
0.000125441
-9.59199e-08
1.33329e-07
2.16931e-12
0.000134345
-1.031e-07
1.24752e-07
2.37363e-12
0.000165311
7.49036e-08
2.0851e-12
0.000186204
2.70258e-13
1.80781e-12
0.000196281
-7.49031e-08
1.7391e-12
0.000196281
-1.24752e-07
1.87393e-12
0.000186204
-1.33329e-07
2.03838e-12
0.000165311
1.79979e-12
0.000134345
-1.03101e-07
1.33329e-07
-4.28757e-08
0.000134345
-1.031e-07
1.24752e-07
-5.78757e-08
0.000165311
7.49036e-08
-6.94166e-08
0.000186204
2.03004e-13
-7.49016e-08
0.000196281
-7.49032e-08
-7.49017e-08
0.000196281
-1.24752e-07
-6.94168e-08
0.000186204
-1.33329e-07
-5.7876e-08
0.000165311
-4.28759e-08
0.000134345
-1.03101e-07
1.23072e-07
-7.18475e-08
0.000125441
-9.59189e-08
1.15179e-07
-9.64187e-08
0.000155409
6.94189e-08
-1.15177e-07
0.000175927
1.61956e-13
-1.24751e-07
0.000186204
-6.94186e-08
-1.24751e-07
0.000186204
-1.15179e-07
-1.15178e-07
0.000175927
-1.23072e-07
-9.64189e-08
0.000155409
-7.18475e-08
0.000125441
-9.59199e-08
1.04052e-07
-7.90314e-08
0.000108733
-8.28778e-08
9.6421e-08
-1.0405e-07
0.000136165
5.78782e-08
-1.2307e-07
0.000155409
1.24127e-13
-1.33327e-07
0.000165311
-5.7878e-08
-1.33327e-07
0.000165311
-9.64208e-08
-1.2307e-07
0.000155409
-1.04052e-07
-1.0405e-07
0.000136165
-7.90314e-08
0.000108733
-8.28786e-08
7.90327e-08
8.63467e-05
-6.56216e-08
-6.56211e-08
7.18493e-08
0.000108733
-8.28774e-08
4.28778e-08
0.000125441
-9.59184e-08
7.67153e-14
0.000134345
-1.031e-07
-4.28777e-08
0.000134345
-1.031e-07
-7.18492e-08
0.000125441
-9.59186e-08
-7.90325e-08
0.000108733
-8.28778e-08
8.63467e-05
-6.56215e-08
-6.56218e-08
3.80808e-08
3.80825e-08
8.63326e-05
-3.1025e-08
-3.10247e-08
3.50234e-08
5.06167e-08
0.000108725
-3.94625e-08
2.1008e-08
6.01987e-08
0.000125441
-4.59523e-08
3.03288e-13
6.53711e-08
0.00013435
-4.95576e-08
-2.10074e-08
6.5371e-08
0.00013435
-4.95575e-08
-3.5023e-08
6.01985e-08
0.000125441
-4.59519e-08
-3.80807e-08
5.06163e-08
0.000108725
-3.94619e-08
3.80821e-08
8.63326e-05
-3.10251e-08
-3.10245e-08
5.06145e-08
3.50254e-08
0.000108725
-3.94608e-08
4.73938e-08
4.73962e-08
0.000136171
2.85616e-08
5.68266e-08
0.000155432
2.79254e-13
6.16252e-08
0.000165344
-2.85611e-08
6.16251e-08
0.000165344
-4.73935e-08
5.68264e-08
0.000155432
-5.06145e-08
4.73959e-08
0.000136171
3.50252e-08
0.000108725
-3.94616e-08
6.01964e-08
2.101e-08
0.000125441
-4.59501e-08
5.68243e-08
2.85638e-08
0.000155432
3.43453e-08
3.43474e-08
0.000175971
1.77441e-13
3.70869e-08
0.000186263
-3.4345e-08
3.70868e-08
0.000186263
-5.68242e-08
3.43472e-08
0.000175971
-6.01965e-08
2.85636e-08
0.000155432
2.10098e-08
0.000125441
-4.5951e-08
6.53688e-08
1.98422e-12
0.00013435
-4.95555e-08
6.16231e-08
2.2324e-12
0.000165344
3.7085e-08
2.00331e-12
0.000186263
1.03872e-13
1.77392e-12
0.000196355
-3.70848e-08
1.72778e-12
0.000196355
-6.16231e-08
1.88063e-12
0.000186263
-6.53689e-08
2.05515e-12
0.000165344
1.83317e-12
0.00013435
-4.95562e-08
6.53689e-08
-2.10061e-08
0.00013435
-4.95556e-08
6.16232e-08
-2.85594e-08
0.000165344
3.7085e-08
-3.43434e-08
0.000186263
5.83713e-14
-3.70833e-08
0.000196355
-3.70849e-08
-3.70833e-08
0.000196355
-6.16231e-08
-3.43435e-08
0.000186263
-6.5369e-08
-2.85596e-08
0.000165344
-2.10062e-08
0.00013435
-4.95562e-08
6.01966e-08
-3.50218e-08
0.000125441
-4.59503e-08
5.68245e-08
-4.7392e-08
0.000155432
3.43454e-08
-5.68227e-08
0.000175971
3.53491e-14
-6.16216e-08
0.000186263
-3.43453e-08
-6.16217e-08
0.000186263
-5.68244e-08
-5.68229e-08
0.000175971
-6.01966e-08
-4.73922e-08
0.000155432
-3.5022e-08
0.000125441
-4.59508e-08
5.06146e-08
-3.80795e-08
0.000108725
-3.94607e-08
4.73939e-08
-5.0613e-08
0.000136171
2.85616e-08
-6.01952e-08
0.000155432
1.23291e-14
-6.53677e-08
0.000165344
-2.85616e-08
-6.53677e-08
0.000165344
-4.73939e-08
-6.01954e-08
0.000155432
-5.06145e-08
-5.06133e-08
0.000136171
-3.80798e-08
0.000108725
-3.94611e-08
3.80807e-08
8.63326e-05
-3.10238e-08
-3.10237e-08
3.50234e-08
0.000108725
-3.94602e-08
2.10079e-08
0.000125441
-4.59498e-08
-2.30758e-14
0.00013435
-4.95552e-08
-2.1008e-08
0.00013435
-4.95553e-08
-3.50234e-08
0.000125441
-4.59501e-08
-3.80806e-08
0.000108725
-3.94606e-08
8.63326e-05
-3.10242e-08
-3.1024e-08
1.96297e-08
1.96312e-08
8.63257e-05
-1.61662e-08
-1.61662e-08
1.7943e-08
2.59692e-08
0.000108722
-2.04877e-08
1.07363e-08
3.08015e-08
0.000125441
-2.37791e-08
8.91781e-13
3.34041e-08
0.000134353
-2.55969e-08
-1.07346e-08
3.34039e-08
0.000134353
-2.55967e-08
-1.79416e-08
3.08008e-08
0.000125441
-2.37784e-08
-1.96287e-08
2.59681e-08
0.000108722
-2.04864e-08
1.96301e-08
8.63257e-05
-1.61657e-08
-1.61655e-08
2.5967e-08
1.79448e-08
0.000108722
-2.04859e-08
2.41869e-08
2.41891e-08
0.000136175
1.45478e-08
2.89465e-08
0.000155443
7.83191e-13
3.13604e-08
0.00016536
-1.45464e-08
3.13603e-08
0.00016536
-2.41858e-08
2.8946e-08
0.000155443
-2.59664e-08
2.41882e-08
0.000136175
1.79438e-08
0.000108722
-2.04864e-08
3.07993e-08
1.0738e-08
0.000125441
-2.37772e-08
2.89444e-08
1.45498e-08
0.000155443
1.74636e-08
1.74655e-08
0.000175994
5.39405e-13
1.88401e-08
0.000186293
-1.74627e-08
1.884e-08
0.000186293
-2.89437e-08
1.74651e-08
0.000175994
-3.0799e-08
1.45492e-08
0.000155443
1.07372e-08
0.000125441
-2.37779e-08
3.34021e-08
2.40994e-12
0.000134353
-2.55951e-08
3.13586e-08
2.57806e-12
0.00016536
1.88384e-08
2.21096e-12
0.000186293
3.56612e-13
1.87195e-12
0.000196393
-1.88378e-08
1.7651e-12
0.000196393
-3.13581e-08
1.87878e-12
0.000186293
-3.34019e-08
2.01877e-12
0.00016536
1.76568e-12
0.000134353
-2.55959e-08
3.34021e-08
-1.07333e-08
0.000134353
-2.55951e-08
3.13585e-08
-1.45448e-08
0.00016536
1.88384e-08
-1.74611e-08
0.000186293
2.50468e-13
-1.88363e-08
0.000196393
-1.88379e-08
-1.88364e-08
0.000196393
-3.13582e-08
-1.74614e-08
0.000186293
-3.3402e-08
-1.45452e-08
0.00016536
-1.07337e-08
0.000134353
-2.5596e-08
3.07992e-08
-1.79404e-08
0.000125441
-2.3777e-08
2.89443e-08
-2.41843e-08
0.000155443
1.74634e-08
-2.89422e-08
0.000175994
1.9021e-13
-3.13566e-08
0.000186293
-1.74631e-08
-3.13567e-08
0.000186293
-2.89441e-08
-2.89425e-08
0.000175994
-3.07992e-08
-2.41846e-08
0.000155443
-1.79406e-08
0.000125441
-2.3778e-08
2.59666e-08
-1.96276e-08
0.000108722
-2.04853e-08
2.41865e-08
-2.59649e-08
0.000136175
1.45473e-08
-3.07975e-08
0.000155443
1.36165e-13
-3.34005e-08
0.00016536
-1.45471e-08
-3.34005e-08
0.00016536
-2.41864e-08
-3.07977e-08
0.000155443
-2.59666e-08
-2.59652e-08
0.000136175
-1.96277e-08
0.000108722
-2.0486e-08
1.96289e-08
8.63257e-05
-1.61649e-08
-1.61644e-08
1.79424e-08
0.000108722
-2.04849e-08
1.07356e-08
0.000125441
-2.37765e-08
7.87011e-14
0.000134353
-2.55945e-08
-1.07355e-08
0.000134353
-2.55946e-08
-1.79423e-08
0.000125441
-2.37767e-08
-1.96287e-08
0.000108722
-2.04853e-08
8.63257e-05
-1.61648e-08
-1.61652e-08
9.77417e-09
9.77542e-09
8.63221e-05
-7.98476e-09
-7.98448e-09
8.98198e-09
1.29827e-08
0.00010872
-1.01456e-08
5.3887e-09
1.54379e-08
0.000125441
-1.18032e-08
-1.59462e-14
1.67632e-08
0.000134355
-1.27222e-08
-5.38872e-09
1.67632e-08
0.000134355
-1.27222e-08
-8.98207e-09
1.54378e-08
0.000125441
-1.18031e-08
-9.77434e-09
1.29826e-08
0.00010872
-1.01454e-08
9.77539e-09
8.63221e-05
-7.98514e-09
-7.98459e-09
1.2981e-08
8.98374e-09
0.00010872
-1.01444e-08
1.21563e-08
1.21583e-08
0.000136177
7.33097e-09
1.45846e-08
0.000155449
-2.36909e-14
1.58187e-08
0.000165369
-7.33107e-09
1.58187e-08
0.000165369
-1.21565e-08
1.45846e-08
0.000155449
-1.29813e-08
1.21582e-08
0.000136177
8.98371e-09
0.00010872
-1.01453e-08
1.5436e-08
5.3905e-09
0.000125441
-1.18017e-08
1.45828e-08
7.33299e-09
0.000155449
8.82143e-09
8.82326e-09
0.000176006
-7.29144e-14
9.52822e-09
0.000186308
-8.8216e-09
9.5282e-09
0.000186308
-1.4583e-08
8.82319e-09
0.000176006