/*--------------------------------*- C++ -*----------------------------------*\
| =========                 |                                                 |
| \\      /  F ield         | OpenFOAM: The Open Source CFD Toolbox           |
|  \\    /   O peration     | Version:  2406                                  |
|   \\  /    A nd           | Website:  www.openfoam.com                      |
|    \\/     M anipulation  |                                                 |
\*---------------------------------------------------------------------------*/
FoamFile
{
    version     2.0;
    format      ascii;
    arch        "LSB;label=32;scalar=64";
    class       volVectorField;
    location    "2.4";
    object      U;
}
// * * * * * * * * * * * * * * * * * * * * * * * * * * * * * * * * * * * * * //

dimensions      [0 1 -1 0 0 0 0];

internalField   nonuniform List<vector> 
16000
(
(0.153132 0.153132 1.11474)
(0.117573 0.168169 1.1542)
(0.072459 0.17688 1.17285)
(0.0244946 0.180953 1.18018)
(-0.0244946 0.180953 1.18018)
(-0.072459 0.17688 1.17285)
(-0.117573 0.168169 1.1542)
(-0.153132 0.153132 1.11474)
(0.168169 0.117573 1.1542)
(0.126109 0.126109 1.18728)
(0.0766337 0.131081 1.19757)
(0.0257137 0.133402 1.19978)
(-0.0257137 0.133402 1.19978)
(-0.0766337 0.131081 1.19757)
(-0.126109 0.126109 1.18728)
(-0.168169 0.117573 1.1542)
(0.17688 0.072459 1.17285)
(0.131081 0.0766337 1.19757)
(0.0792027 0.0792027 1.20176)
(0.0264749 0.0803911 1.20065)
(-0.0264749 0.0803911 1.20065)
(-0.0792027 0.0792027 1.20176)
(-0.131081 0.0766337 1.19757)
(-0.17688 0.072459 1.17285)
(0.180953 0.0244946 1.18018)
(0.133402 0.0257137 1.19978)
(0.0803911 0.0264749 1.20065)
(0.0268183 0.0268183 1.1979)
(-0.0268183 0.0268183 1.1979)
(-0.0803911 0.0264749 1.20065)
(-0.133402 0.0257137 1.19978)
(-0.180953 0.0244946 1.18018)
(0.180953 -0.0244946 1.18018)
(0.133402 -0.0257137 1.19978)
(0.0803911 -0.0264749 1.20065)
(0.0268183 -0.0268183 1.1979)
(-0.0268183 -0.0268183 1.1979)
(-0.0803911 -0.0264749 1.20065)
(-0.133402 -0.0257137 1.19978)
(-0.180953 -0.0244946 1.18018)
(0.17688 -0.072459 1.17285)
(0.131081 -0.0766337 1.19757)
(0.0792027 -0.0792027 1.20176)
(0.0264749 -0.0803911 1.20065)
(-0.0264749 -0.0803911 1.20065)
(-0.0792027 -0.0792027 1.20176)
(-0.131081 -0.0766337 1.19757)
(-0.17688 -0.072459 1.17285)
(0.168169 -0.117573 1.1542)
(0.126109 -0.126109 1.18728)
(0.0766337 -0.131081 1.19757)
(0.0257137 -0.133402 1.19978)
(-0.0257137 -0.133402 1.19978)
(-0.0766337 -0.131081 1.19757)
(-0.126109 -0.126109 1.18728)
(-0.168169 -0.117573 1.1542)
(0.153132 -0.153132 1.11474)
(0.117573 -0.168169 1.1542)
(0.072459 -0.17688 1.17285)
(0.0244946 -0.180953 1.18018)
(-0.0244946 -0.180953 1.18018)
(-0.072459 -0.17688 1.17285)
(-0.117573 -0.168169 1.1542)
(-0.153132 -0.153132 1.11474)
(0.0494154 0.0494154 1.29062)
(0.0414003 0.0615755 1.3895)
(0.0279271 0.0703803 1.44408)
(0.00984083 0.075171 1.46809)
(-0.00984083 0.075171 1.46809)
(-0.0279271 0.0703803 1.44408)
(-0.0414003 0.0615755 1.3895)
(-0.0494154 0.0494154 1.29062)
(0.0615755 0.0414003 1.3895)
(0.0531611 0.0531611 1.48728)
(0.0357288 0.0616406 1.53241)
(0.0125458 0.0660227 1.54992)
(-0.0125458 0.0660227 1.54992)
(-0.0357288 0.0616406 1.53241)
(-0.0531611 0.0531611 1.48728)
(-0.0615755 0.0414003 1.3895)
(0.0703803 0.0279271 1.44408)
(0.0616406 0.0357288 1.53241)
(0.0413007 0.0413007 1.57006)
(0.0144349 0.0441146 1.5832)
(-0.0144349 0.0441146 1.5832)
(-0.0413007 0.0413007 1.57006)
(-0.0616406 0.0357288 1.53241)
(-0.0703803 0.0279271 1.44408)
(0.075171 0.00984083 1.46809)
(0.0660227 0.0125458 1.54992)
(0.0441146 0.0144349 1.5832)
(0.0153734 0.0153734 1.59386)
(-0.0153734 0.0153734 1.59386)
(-0.0441146 0.0144349 1.5832)
(-0.0660227 0.0125458 1.54992)
(-0.0751711 0.00984083 1.46809)
(0.075171 -0.00984083 1.46809)
(0.0660227 -0.0125458 1.54992)
(0.0441146 -0.0144349 1.5832)
(0.0153734 -0.0153734 1.59386)
(-0.0153734 -0.0153734 1.59386)
(-0.0441146 -0.0144349 1.5832)
(-0.0660227 -0.0125458 1.54992)
(-0.0751711 -0.00984083 1.46809)
(0.0703803 -0.027927 1.44408)
(0.0616406 -0.0357288 1.53241)
(0.0413007 -0.0413007 1.57006)
(0.0144349 -0.0441146 1.5832)
(-0.0144349 -0.0441146 1.5832)
(-0.0413007 -0.0413007 1.57006)
(-0.0616406 -0.0357288 1.53241)
(-0.0703803 -0.027927 1.44408)
(0.0615755 -0.0414003 1.3895)
(0.0531611 -0.0531611 1.48728)
(0.0357288 -0.0616406 1.53241)
(0.0125458 -0.0660227 1.54992)
(-0.0125458 -0.0660227 1.54992)
(-0.0357288 -0.0616406 1.53241)
(-0.0531611 -0.0531611 1.48728)
(-0.0615755 -0.0414003 1.3895)
(0.0494154 -0.0494154 1.29062)
(0.0414003 -0.0615755 1.3895)
(0.027927 -0.0703803 1.44408)
(0.00984083 -0.075171 1.46809)
(-0.00984083 -0.075171 1.46809)
(-0.0279271 -0.0703803 1.44408)
(-0.0414003 -0.0615755 1.3895)
(-0.0494154 -0.0494154 1.29062)
(0.0295334 0.0295334 1.18369)
(0.0263057 0.0381217 1.33605)
(0.0179588 0.0440247 1.43119)
(0.00638113 0.0472238 1.47636)
(-0.00638113 0.0472238 1.47636)
(-0.0179588 0.0440247 1.43119)
(-0.0263057 0.0381217 1.33605)
(-0.0295334 0.0295334 1.18369)
(0.0381217 0.0263057 1.33605)
(0.03387 0.03387 1.50686)
(0.0231033 0.0393329 1.60045)
(0.00819889 0.0422271 1.64149)
(-0.00819889 0.0422271 1.64149)
(-0.0231033 0.0393329 1.60045)
(-0.03387 0.03387 1.50686)
(-0.0381217 0.0263057 1.33605)
(0.0440247 0.0179588 1.43119)
(0.0393329 0.0231033 1.60045)
(0.0268026 0.0268026 1.68906)
(0.00948465 0.028713 1.72654)
(-0.00948465 0.028713 1.72654)
(-0.0268026 0.0268026 1.68906)
(-0.0393329 0.0231033 1.60045)
(-0.0440247 0.0179588 1.43119)
(0.0472238 0.00638113 1.47636)
(0.042227 0.00819889 1.64149)
(0.028713 0.00948465 1.72654)
(0.0101528 0.0101528 1.76219)
(-0.0101528 0.0101528 1.76219)
(-0.028713 0.00948465 1.72654)
(-0.042227 0.00819889 1.64149)
(-0.0472238 0.00638113 1.47636)
(0.0472238 -0.00638113 1.47636)
(0.042227 -0.00819889 1.64149)
(0.028713 -0.00948464 1.72654)
(0.0101528 -0.0101528 1.76219)
(-0.0101528 -0.0101528 1.76219)
(-0.028713 -0.00948464 1.72654)
(-0.042227 -0.00819889 1.64149)
(-0.0472238 -0.00638113 1.47636)
(0.0440247 -0.0179588 1.43119)
(0.0393329 -0.0231033 1.60045)
(0.0268026 -0.0268026 1.68906)
(0.00948465 -0.028713 1.72654)
(-0.00948465 -0.028713 1.72654)
(-0.0268026 -0.0268026 1.68906)
(-0.0393329 -0.0231033 1.60045)
(-0.0440247 -0.0179588 1.43119)
(0.0381217 -0.0263057 1.33605)
(0.03387 -0.03387 1.50686)
(0.0231033 -0.0393329 1.60045)
(0.00819889 -0.042227 1.64149)
(-0.00819889 -0.042227 1.64149)
(-0.0231033 -0.0393329 1.60045)
(-0.03387 -0.03387 1.50686)
(-0.0381217 -0.0263057 1.33605)
(0.0295334 -0.0295334 1.18369)
(0.0263057 -0.0381217 1.33605)
(0.0179588 -0.0440247 1.43119)
(0.00638113 -0.0472238 1.47636)
(-0.00638113 -0.0472238 1.47636)
(-0.0179588 -0.0440247 1.43119)
(-0.0263057 -0.0381217 1.33605)
(-0.0295334 -0.0295334 1.18369)
(0.00607788 0.00607788 1.17735)
(0.00678721 0.00932593 1.34012)
(0.00531535 0.0121436 1.44756)
(0.00200434 0.0137879 1.50053)
(-0.00200434 0.0137879 1.50053)
(-0.00531535 0.0121436 1.44756)
(-0.00678721 0.00932593 1.34012)
(-0.00607788 0.00607788 1.17735)
(0.00932593 0.00678721 1.34012)
(0.010642 0.010642 1.53329)
(0.0082524 0.0137676 1.64786)
(0.00308277 0.0154575 1.70082)
(-0.00308277 0.0154575 1.70082)
(-0.0082524 0.0137676 1.64786)
(-0.010642 0.010642 1.53329)
(-0.00932593 0.00678721 1.34012)
(0.0121436 0.00531536 1.44756)
(0.0137676 0.0082524 1.64786)
(0.0104758 0.0104758 1.76219)
(0.00386311 0.0115575 1.81303)
(-0.00386311 0.0115575 1.81303)
(-0.0104758 0.0104758 1.76219)
(-0.0137676 0.0082524 1.64786)
(-0.0121436 0.00531536 1.44756)
(0.0137879 0.00200435 1.50053)
(0.0154575 0.00308277 1.70082)
(0.0115575 0.00386311 1.81303)
(0.00421153 0.00421154 1.8613)
(-0.00421153 0.00421154 1.8613)
(-0.0115575 0.00386311 1.81303)
(-0.0154575 0.00308277 1.70082)
(-0.0137879 0.00200435 1.50053)
(0.0137879 -0.00200434 1.50053)
(0.0154575 -0.00308276 1.70082)
(0.0115575 -0.0038631 1.81303)
(0.00421153 -0.00421153 1.8613)
(-0.00421153 -0.00421153 1.8613)
(-0.0115575 -0.0038631 1.81303)
(-0.0154575 -0.00308276 1.70082)
(-0.0137879 -0.00200434 1.50053)
(0.0121436 -0.00531535 1.44756)
(0.0137676 -0.00825239 1.64786)
(0.0104758 -0.0104758 1.76219)
(0.00386311 -0.0115575 1.81303)
(-0.00386311 -0.0115575 1.81303)
(-0.0104758 -0.0104758 1.76219)
(-0.0137676 -0.00825239 1.64786)
(-0.0121436 -0.00531535 1.44756)
(0.00932593 -0.00678721 1.34012)
(0.010642 -0.0106419 1.53329)
(0.0082524 -0.0137676 1.64786)
(0.00308277 -0.0154575 1.70082)
(-0.00308277 -0.0154575 1.70082)
(-0.0082524 -0.0137676 1.64786)
(-0.010642 -0.0106419 1.53329)
(-0.00932593 -0.00678721 1.34012)
(0.00607788 -0.00607788 1.17735)
(0.00678721 -0.00932593 1.34012)
(0.00531535 -0.0121436 1.44756)
(0.00200434 -0.0137879 1.50053)
(-0.00200434 -0.0137879 1.50053)
(-0.00531535 -0.0121436 1.44756)
(-0.00678721 -0.00932593 1.34012)
(-0.00607788 -0.00607788 1.17735)
(0.00420929 0.00420929 1.15879)
(0.00417758 0.00573707 1.32761)
(0.00305281 0.00697193 1.44156)
(0.00112169 0.00767951 1.4987)
(-0.00112169 0.00767951 1.4987)
(-0.00305281 0.00697193 1.44156)
(-0.00417758 0.00573707 1.32761)
(-0.00420929 0.00420929 1.15879)
(0.00573707 0.00417758 1.32761)
(0.0058271 0.00582711 1.53244)
(0.00432306 0.00720708 1.65824)
(0.00159285 0.00796351 1.71788)
(-0.00159285 0.00796351 1.71788)
(-0.00432306 0.00720708 1.65824)
(-0.0058271 0.0058271 1.53244)
(-0.00573707 0.00417758 1.32761)
(0.00697193 0.00305281 1.44156)
(0.00720708 0.00432306 1.65824)
(0.00533722 0.00533723 1.7871)
(0.00194952 0.00580511 1.84585)
(-0.00194952 0.00580511 1.84585)
(-0.00533722 0.00533722 1.7871)
(-0.00720708 0.00432306 1.65824)
(-0.00697194 0.00305281 1.44156)
(0.00767951 0.00112169 1.4987)
(0.00796351 0.00159285 1.71788)
(0.00580511 0.00194952 1.84585)
(0.00208328 0.00208329 1.90127)
(-0.00208328 0.00208328 1.90127)
(-0.00580511 0.00194952 1.84585)
(-0.00796351 0.00159285 1.71788)
(-0.00767951 0.00112169 1.4987)
(0.00767951 -0.00112169 1.4987)
(0.00796351 -0.00159285 1.71788)
(0.00580511 -0.00194951 1.84585)
(0.00208328 -0.00208328 1.90127)
(-0.00208328 -0.00208328 1.90127)
(-0.00580511 -0.00194951 1.84585)
(-0.00796351 -0.00159285 1.71788)
(-0.00767951 -0.00112169 1.4987)
(0.00697193 -0.00305281 1.44156)
(0.00720707 -0.00432305 1.65824)
(0.00533722 -0.00533722 1.7871)
(0.00194952 -0.0058051 1.84585)
(-0.00194952 -0.0058051 1.84585)
(-0.00533722 -0.00533722 1.7871)
(-0.00720708 -0.00432305 1.65824)
(-0.00697194 -0.00305281 1.44156)
(0.00573707 -0.00417758 1.32761)
(0.0058271 -0.0058271 1.53244)
(0.00432306 -0.00720707 1.65824)
(0.00159285 -0.0079635 1.71788)
(-0.00159285 -0.0079635 1.71788)
(-0.00432306 -0.00720707 1.65824)
(-0.0058271 -0.0058271 1.53244)
(-0.00573707 -0.00417758 1.32761)
(0.00420928 -0.00420928 1.15879)
(0.00417758 -0.00573707 1.32761)
(0.00305281 -0.00697193 1.44156)
(0.00112169 -0.00767951 1.4987)
(-0.00112169 -0.00767951 1.4987)
(-0.00305281 -0.00697193 1.44156)
(-0.00417758 -0.00573707 1.32761)
(-0.00420929 -0.00420929 1.15879)
(0.00130174 0.00130174 1.15563)
(0.00140465 0.00190345 1.3259)
(0.00109256 0.00244352 1.44189)
(0.000412967 0.00276631 1.50046)
(-0.000412967 0.00276631 1.50046)
(-0.00109256 0.00244352 1.44189)
(-0.00140465 0.00190345 1.3259)
(-0.00130174 0.00130174 1.15563)
(0.00190345 0.00140465 1.3259)
(0.00214529 0.0021453 1.53424)
(0.0016872 0.00280356 1.66415)
(0.000637026 0.00317699 1.72646)
(-0.000637026 0.00317699 1.72646)
(-0.0016872 0.00280356 1.66415)
(-0.0021453 0.0021453 1.53424)
(-0.00190345 0.00140465 1.3259)
(0.00244352 0.00109257 1.44189)
(0.00280356 0.0016872 1.66415)
(0.00219038 0.00219038 1.7989)
(0.000816972 0.0024356 1.86114)
(-0.000816972 0.0024356 1.86114)
(-0.00219038 0.00219038 1.7989)
(-0.00280356 0.0016872 1.66415)
(-0.00244352 0.00109257 1.44189)
(0.00276631 0.00041297 1.50046)
(0.00317699 0.000637029 1.72646)
(0.0024356 0.000816975 1.86114)
(0.000886492 0.000886495 1.91993)
(-0.000886493 0.000886495 1.91993)
(-0.0024356 0.000816975 1.86114)
(-0.00317699 0.000637029 1.72646)
(-0.00276631 0.00041297 1.50046)
(0.00276631 -0.000412964 1.50046)
(0.00317699 -0.000637022 1.72646)
(0.0024356 -0.000816969 1.86114)
(0.000886492 -0.00088649 1.91993)
(-0.000886493 -0.00088649 1.91993)
(-0.0024356 -0.000816969 1.86114)
(-0.00317699 -0.000637023 1.72646)
(-0.00276631 -0.000412964 1.50046)
(0.00244352 -0.00109256 1.44189)
(0.00280356 -0.00168719 1.66415)
(0.00219038 -0.00219038 1.7989)
(0.000816972 -0.00243559 1.86114)
(-0.000816972 -0.00243559 1.86114)
(-0.00219038 -0.00219038 1.7989)
(-0.00280356 -0.00168719 1.66415)
(-0.00244352 -0.00109256 1.44189)
(0.00190345 -0.00140465 1.3259)
(0.00214529 -0.00214529 1.53424)
(0.0016872 -0.00280355 1.66415)
(0.000637026 -0.00317699 1.72646)
(-0.000637026 -0.00317699 1.72646)
(-0.0016872 -0.00280355 1.66415)
(-0.00214529 -0.00214529 1.53424)
(-0.00190345 -0.00140465 1.3259)
(0.00130174 -0.00130174 1.15563)
(0.00140465 -0.00190345 1.3259)
(0.00109256 -0.00244352 1.44189)
(0.000412967 -0.00276631 1.50046)
(-0.000412968 -0.00276631 1.50046)
(-0.00109256 -0.00244352 1.44189)
(-0.00140465 -0.00190345 1.3259)
(-0.00130174 -0.00130174 1.15563)
(0.000792204 0.000792206 1.15296)
(0.000788355 0.00108156 1.32433)
(0.000581398 0.00132234 1.44146)
(0.000214721 0.00146385 1.50077)
(-0.00021472 0.00146385 1.50077)
(-0.000581397 0.00132234 1.44146)
(-0.000788355 0.00108156 1.32433)
(-0.000792206 0.000792206 1.15296)
(0.00108156 0.000788358 1.32433)
(0.00110842 0.00110842 1.53467)
(0.000833461 0.00139004 1.66657)
(0.000309536 0.00155285 1.73013)
(-0.000309535 0.00155285 1.73013)
(-0.000833461 0.00139004 1.66657)
(-0.00110842 0.00110842 1.53467)
(-0.00108156 0.000788357 1.32433)
(0.00132233 0.000581402 1.44146)
(0.00139004 0.000833465 1.66657)
(0.00105205 0.00105206 1.80409)
(0.000388559 0.00116372 1.86797)
(-0.000388559 0.00116372 1.86797)
(-0.00105205 0.00105206 1.80409)
(-0.00139004 0.000833464 1.66657)
(-0.00132234 0.000581401 1.44146)
(0.00146385 0.000214724 1.50077)
(0.00155285 0.00030954 1.73013)
(0.00116372 0.000388563 1.86797)
(0.000420373 0.000420376 1.92846)
(-0.000420373 0.000420376 1.92846)
(-0.00116372 0.000388562 1.86797)
(-0.00155285 0.00030954 1.73013)
(-0.00146385 0.000214724 1.50077)
(0.00146385 -0.000214716 1.50077)
(0.00155285 -0.000309531 1.73013)
(0.00116372 -0.000388555 1.86797)
(0.000420373 -0.000420369 1.92846)
(-0.000420373 -0.000420369 1.92846)
(-0.00116372 -0.000388555 1.86797)
(-0.00155285 -0.000309531 1.73013)
(-0.00146385 -0.000214716 1.50077)
(0.00132233 -0.000581394 1.44146)
(0.00139004 -0.000833456 1.66657)
(0.00105205 -0.00105205 1.80409)
(0.000388559 -0.00116372 1.86797)
(-0.000388559 -0.00116372 1.86797)
(-0.00105205 -0.00105205 1.80409)
(-0.00139004 -0.000833456 1.66657)
(-0.00132234 -0.000581394 1.44146)
(0.00108156 -0.00078835 1.32433)
(0.00110842 -0.00110841 1.53467)
(0.00083346 -0.00139004 1.66657)
(0.000309535 -0.00155284 1.73013)
(-0.000309536 -0.00155284 1.73013)
(-0.000833461 -0.00139004 1.66657)
(-0.00110842 -0.00110841 1.53467)
(-0.00108156 -0.000788351 1.32433)
(0.000792202 -0.000792201 1.15296)
(0.000788353 -0.00108155 1.32433)
(0.000581397 -0.00132233 1.44146)
(0.00021472 -0.00146384 1.50077)
(-0.00021472 -0.00146384 1.50077)
(-0.000581398 -0.00132233 1.44146)
(-0.000788354 -0.00108156 1.32433)
(-0.000792204 -0.000792203 1.15296)
(0.000340736 0.000340737 1.1521)
(0.000347865 0.000479673 1.32392)
(0.000260863 0.000598212 1.44154)
(9.69833e-05 0.000668247 1.50117)
(-9.69838e-05 0.000668247 1.50117)
(-0.000260864 0.000598212 1.44154)
(-0.000347866 0.000479673 1.32392)
(-0.000340739 0.000340739 1.1521)
(0.000479668 0.000347868 1.32392)
(0.000505478 0.000505483 1.53513)
(0.000384179 0.00064285 1.6679)
(0.000143137 0.000722072 1.732)
(-0.000143138 0.000722072 1.732)
(-0.00038418 0.00064285 1.6679)
(-0.000505479 0.000505483 1.53513)
(-0.000479672 0.000347869 1.32392)
(0.000598206 0.000260867 1.44154)
(0.000642845 0.000384184 1.6679)
(0.000489664 0.000489669 1.80663)
(0.0001812 0.000544341 1.87124)
(-0.000181201 0.000544341 1.87124)
(-0.000489665 0.000489669 1.80663)
(-0.000642847 0.000384184 1.6679)
(-0.000598209 0.000260868 1.44154)
(0.000668241 9.69878e-05 1.50117)
(0.000722067 0.000143142 1.732)
(0.000544337 0.000181205 1.87124)
(0.000196974 0.000196978 1.93251)
(-0.000196975 0.000196978 1.93251)
(-0.000544338 0.000181204 1.87124)
(-0.000722068 0.000143142 1.732)
(-0.000668244 9.6988e-05 1.50117)
(0.000668241 -9.69795e-05 1.50117)
(0.000722067 -0.000143133 1.732)
(0.000544337 -0.000181196 1.87124)
(0.000196974 -0.000196971 1.93251)
(-0.000196975 -0.000196971 1.93251)
(-0.000544338 -0.000181196 1.87124)
(-0.000722068 -0.000143133 1.732)
(-0.000668244 -9.69794e-05 1.50117)
(0.000598206 -0.00026086 1.44154)
(0.000642845 -0.000384175 1.6679)
(0.000489664 -0.000489661 1.80663)
(0.0001812 -0.000544334 1.87124)
(-0.000181201 -0.000544334 1.87124)
(-0.000489665 -0.000489661 1.80663)
(-0.000642846 -0.000384175 1.6679)
(-0.000598208 -0.00026086 1.44154)
(0.000479667 -0.000347862 1.32392)
(0.000505478 -0.000505474 1.53513)
(0.000384179 -0.000642842 1.6679)
(0.000143137 -0.000722064 1.732)
(-0.000143138 -0.000722064 1.732)
(-0.000384179 -0.000642842 1.6679)
(-0.000505478 -0.000505475 1.53513)
(-0.000479669 -0.000347862 1.32392)
(0.000340734 -0.000340734 1.1521)
(0.000347864 -0.000479665 1.32392)
(0.000260863 -0.000598204 1.44154)
(9.69832e-05 -0.000668239 1.50117)
(-9.6984e-05 -0.00066824 1.50117)
(-0.000260864 -0.000598205 1.44154)
(-0.000347865 -0.000479667 1.32392)
(-0.000340736 -0.000340735 1.1521)
(0.000183378 0.00018338 1.15155)
(0.000182636 0.000252986 1.32363)
(0.0001345 0.00031088 1.44151)
(4.95862e-05 0.000344803 1.5013)
(-4.95833e-05 0.000344803 1.5013)
(-0.000134498 0.000310878 1.44151)
(-0.000182634 0.000252983 1.32363)
(-0.000183378 0.000183379 1.15155)
(0.000252981 0.00018264 1.32363)
(0.000258956 0.000258961 1.5353)
(0.000193546 0.000324769 1.66852)
(7.15911e-05 0.000362584 1.73289)
(-7.15886e-05 0.000362583 1.73289)
(-0.000193544 0.000324768 1.66852)
(-0.000258955 0.000258959 1.5353)
(-0.000252983 0.000182638 1.32363)
(0.000310874 0.000134504 1.44151)
(0.000324765 0.000193551 1.66852)
(0.000243696 0.000243701 1.80785)
(8.96179e-05 0.000269587 1.87281)
(-8.96161e-05 0.000269587 1.87281)
(-0.000243695 0.0002437 1.80785)
(-0.000324764 0.00019355 1.66852)
(-0.000310877 0.000134503 1.44151)
(0.000344798 4.95903e-05 1.5013)
(0.000362579 7.15958e-05 1.73289)
(0.000269583 8.96221e-05 1.87281)
(9.70176e-05 9.70214e-05 1.93446)
(-9.70164e-05 9.70212e-05 1.93446)
(-0.000269582 8.96216e-05 1.87281)
(-0.000362579 7.15948e-05 1.73289)
(-0.000344801 4.95893e-05 1.5013)
(0.000344798 -4.95793e-05 1.5013)
(0.000362579 -7.1584e-05 1.73289)
(0.000269583 -8.9612e-05 1.87281)
(9.70174e-05 -9.70127e-05 1.93446)
(-9.70165e-05 -9.70128e-05 1.93446)
(-0.000269582 -8.96124e-05 1.87281)
(-0.000362579 -7.15848e-05 1.73289)
(-0.000344801 -4.95802e-05 1.5013)
(0.000310873 -0.000134494 1.44151)
(0.000324764 -0.00019354 1.66852)
(0.000243696 -0.000243691 1.80785)
(8.96174e-05 -0.000269578 1.87281)
(-8.96166e-05 -0.000269579 1.87281)
(-0.000243695 -0.000243691 1.80785)
(-0.000324764 -0.00019354 1.66852)
(-0.000310876 -0.000134494 1.44151)
(0.000252979 -0.00018263 1.32363)
(0.000258954 -0.00025895 1.5353)
(0.000193545 -0.000324759 1.66852)
(7.15901e-05 -0.000362575 1.73289)
(-7.15895e-05 -0.000362575 1.73289)
(-0.000193545 -0.00032476 1.66852)
(-0.000258954 -0.000258951 1.5353)
(-0.000252981 -0.000182631 1.32363)
(0.000183375 -0.000183374 1.15155)
(0.000182634 -0.000252976 1.32363)
(0.000134499 -0.00031087 1.44151)
(4.95849e-05 -0.000344795 1.5013)
(-4.95845e-05 -0.000344795 1.5013)
(-0.000134498 -0.000310871 1.44151)
(-0.000182634 -0.000252978 1.32363)
(-0.000183376 -0.000183376 1.15155)
(8.67716e-05 8.67731e-05 1.15132)
(8.77099e-05 0.000121325 1.32351)
(6.52146e-05 0.000150478 1.44152)
(2.41382e-05 0.000167611 1.50139)
(-2.41367e-05 0.00016761 1.50139)
(-6.52133e-05 0.000150477 1.44152)
(-8.77092e-05 0.000121323 1.32351)
(-8.67724e-05 8.67728e-05 1.15132)
(0.000121319 8.77135e-05 1.32351)
(0.000126291 0.000126297 1.53541)
(9.51093e-05 0.000159577 1.66884)
(3.52684e-05 0.000178636 1.73335)
(-3.52671e-05 0.000178635 1.73335)
(-9.51083e-05 0.000159576 1.66884)
(-0.000126291 0.000126296 1.53541)
(-0.000121321 8.77131e-05 1.32351)
(0.00015047 6.5219e-05 1.44152)
(0.000159571 9.51146e-05 1.66884)
(0.000120352 0.000120357 1.80847)
(4.43135e-05 0.000133317 1.8736)
(-4.43127e-05 0.000133317 1.8736)
(-0.000120351 0.000120356 1.80847)
(-0.000159571 9.5114e-05 1.66884)
(-0.000150472 6.52186e-05 1.44152)
(0.000167603 2.41426e-05 1.50139)
(0.00017863 3.52735e-05 1.73335)
(0.000133312 4.43182e-05 1.8736)
(4.80029e-05 4.80072e-05 1.93544)
(-4.80025e-05 4.8007e-05 1.93544)
(-0.000133312 4.43178e-05 1.8736)
(-0.00017863 3.5273e-05 1.73335)
(-0.000167604 2.41422e-05 1.50139)
(0.000167603 -2.41326e-05 1.50139)
(0.00017863 -3.52624e-05 1.73335)
(0.000133312 -4.43084e-05 1.8736)
(4.80029e-05 -4.79986e-05 1.93544)
(-4.80026e-05 -4.79987e-05 1.93544)
(-0.000133312 -4.43087e-05 1.8736)
(-0.00017863 -3.52628e-05 1.73335)
(-0.000167604 -2.41329e-05 1.50139)
(0.00015047 -6.52097e-05 1.44152)
(0.000159571 -9.51041e-05 1.66884)
(0.000120352 -0.000120347 1.80847)
(4.43132e-05 -0.000133308 1.8736)
(-4.4313e-05 -0.000133308 1.8736)
(-0.000120352 -0.000120348 1.80847)
(-0.000159571 -9.51044e-05 1.66884)
(-0.000150471 -6.521e-05 1.44152)
(0.000121318 -8.7705e-05 1.32351)
(0.000126291 -0.000126287 1.53541)
(9.51089e-05 -0.000159567 1.66884)
(3.52678e-05 -0.000178627 1.73335)
(-3.52678e-05 -0.000178627 1.73335)
(-9.51088e-05 -0.000159568 1.66884)
(-0.000126291 -0.000126287 1.53541)
(-0.000121318 -8.77056e-05 1.32351)
(8.67687e-05 -8.67678e-05 1.15132)
(8.77082e-05 -0.000121315 1.32351)
(6.52139e-05 -0.000150468 1.44152)
(2.41374e-05 -0.000167601 1.50139)
(-2.41375e-05 -0.000167601 1.50139)
(-6.52141e-05 -0.000150469 1.44152)
(-8.77084e-05 -0.000121316 1.32351)
(-8.67695e-05 -8.67687e-05 1.15132)
(4.52182e-05 4.522e-05 1.15119)
(4.53637e-05 6.27491e-05 1.32345)
(3.35601e-05 7.74233e-05 1.44152)
(1.23974e-05 8.60289e-05 1.50143)
(-1.23929e-05 8.60279e-05 1.50143)
(-3.35562e-05 7.74201e-05 1.44152)
(-4.536e-05 6.2744e-05 1.32345)
(-4.52163e-05 4.52169e-05 1.15119)
(6.27431e-05 4.53672e-05 1.32345)
(6.47565e-05 6.47616e-05 1.53546)
(4.85779e-05 8.14851e-05 1.669)
(1.7989e-05 9.10623e-05 1.73357)
(-1.79852e-05 9.10617e-05 1.73357)
(-4.85746e-05 8.14832e-05 1.669)
(-6.4754e-05 6.47585e-05 1.53546)
(-6.27431e-05 4.53643e-05 1.32345)
(7.74168e-05 3.35642e-05 1.44152)
(8.148e-05 4.85827e-05 1.669)
(6.12727e-05 6.12772e-05 1.80878)
(2.25355e-05 6.7783e-05 1.874)
(-2.2533e-05 6.77826e-05 1.874)
(-6.12705e-05 6.1276e-05 1.80878)
(-8.14786e-05 4.85807e-05 1.669)
(-7.74178e-05 3.35621e-05 1.44152)
(8.60225e-05 1.24013e-05 1.50143)
(9.10575e-05 1.79936e-05 1.73357)
(6.77787e-05 2.25398e-05 1.874)
(2.43786e-05 2.43824e-05 1.93593)
(-2.4377e-05 2.43821e-05 1.93593)
(-6.77773e-05 2.25388e-05 1.874)
(-9.10567e-05 1.79921e-05 1.73357)
(-8.60243e-05 1.23996e-05 1.50143)
(8.60219e-05 -1.23892e-05 1.50143)
(9.1057e-05 -1.79808e-05 1.73357)
(6.77785e-05 -2.2529e-05 1.874)
(2.43783e-05 -2.43733e-05 1.93593)
(-2.43772e-05 -2.43736e-05 1.93593)
(-6.77775e-05 -2.25297e-05 1.874)
(-9.10567e-05 -1.79821e-05 1.73357)
(-8.60242e-05 -1.23906e-05 1.50143)
(7.74147e-05 -3.35527e-05 1.44152)
(8.14786e-05 -4.85705e-05 1.669)
(6.12717e-05 -6.12666e-05 1.80878)
(2.25347e-05 -6.77736e-05 1.874)
(-2.25338e-05 -6.77738e-05 1.874)
(-6.12711e-05 -6.12671e-05 1.80878)
(-8.14785e-05 -4.85714e-05 1.669)
(-7.74174e-05 -3.35538e-05 1.44152)
(6.27389e-05 -4.53559e-05 1.32345)
(6.47539e-05 -6.47494e-05 1.53546)
(4.85761e-05 -8.14743e-05 1.669)
(1.79873e-05 -9.10526e-05 1.73357)
(-1.79867e-05 -9.10528e-05 1.73357)
(-4.85757e-05 -8.14748e-05 1.669)
(-6.47539e-05 -6.47502e-05 1.53546)
(-6.27417e-05 -4.53573e-05 1.32345)
(4.52125e-05 -4.52119e-05 1.15119)
(4.53595e-05 -6.27363e-05 1.32345)
(3.35578e-05 -7.74116e-05 1.44152)
(1.23952e-05 -8.60185e-05 1.50143)
(-1.23949e-05 -8.60188e-05 1.50143)
(-3.35576e-05 -7.74126e-05 1.44152)
(-4.53599e-05 -6.27382e-05 1.32345)
(-4.52145e-05 -4.5214e-05 1.15119)
(2.23424e-05 2.23434e-05 1.15113)
(2.25629e-05 3.11685e-05 1.32341)
(1.67714e-05 3.86077e-05 1.44152)
(6.20875e-06 4.29818e-05 1.50145)
(-6.2088e-06 4.29817e-05 1.50145)
(-1.67717e-05 3.86073e-05 1.44152)
(-2.25635e-05 3.11681e-05 1.32341)
(-2.23439e-05 2.2344e-05 1.15113)
(3.11638e-05 2.25659e-05 1.32341)
(3.24205e-05 3.24249e-05 1.53548)
(2.44307e-05 4.09523e-05 1.66908)
(9.06405e-06 4.58421e-05 1.73369)
(-9.06424e-06 4.5842e-05 1.73369)
(-2.4431e-05 4.09521e-05 1.66908)
(-3.24214e-05 3.24247e-05 1.53548)
(-3.11665e-05 2.25663e-05 1.32341)
(3.8602e-05 1.67755e-05 1.44152)
(4.09479e-05 2.44353e-05 1.66908)
(3.09179e-05 3.09222e-05 1.80894)
(1.13898e-05 3.42531e-05 1.8742)
(-1.13901e-05 3.42531e-05 1.8742)
(-3.09184e-05 3.09221e-05 1.80894)
(-4.09488e-05 2.44351e-05 1.66908)
(-3.86043e-05 1.67755e-05 1.44152)
(4.29758e-05 6.21299e-06 1.50145)
(4.58377e-05 9.06877e-06 1.73369)
(3.42491e-05 1.1394e-05 1.8742)
(1.23355e-05 1.23393e-05 1.93618)
(-1.2336e-05 1.23392e-05 1.93618)
(-3.42497e-05 1.13938e-05 1.8742)
(-4.58385e-05 9.06858e-06 1.73369)
(-4.29777e-05 6.21289e-06 1.50145)
(4.29757e-05 -6.20474e-06 1.50145)
(4.58376e-05 -9.05975e-06 1.73369)
(3.42491e-05 -1.13861e-05 1.8742)
(1.23355e-05 -1.23324e-05 1.93618)
(-1.23361e-05 -1.23325e-05 1.93618)
(-3.42497e-05 -1.13862e-05 1.8742)
(-4.58384e-05 -9.05997e-06 1.73369)
(-4.29773e-05 -6.20493e-06 1.50145)
(3.86017e-05 -1.67679e-05 1.44152)
(4.09477e-05 -2.44269e-05 1.66908)
(3.09178e-05 -3.09146e-05 1.80894)
(1.13896e-05 -3.42461e-05 1.8742)
(-1.13903e-05 -3.42462e-05 1.8742)
(-3.09185e-05 -3.09147e-05 1.80894)
(-4.09483e-05 -2.44271e-05 1.66908)
(-3.86029e-05 -1.67682e-05 1.44152)
(3.11628e-05 -2.25592e-05 1.32341)
(3.242e-05 -3.24169e-05 1.53548)
(2.44305e-05 -4.09448e-05 1.66908)
(9.06378e-06 -4.58349e-05 1.73369)
(-9.06461e-06 -4.58351e-05 1.73369)
(-2.44313e-05 -4.09452e-05 1.66908)
(-3.24207e-05 -3.24175e-05 1.53548)
(-3.11638e-05 -2.25599e-05 1.32341)
(2.23401e-05 -2.23393e-05 1.15113)
(2.25617e-05 -3.11608e-05 1.32341)
(1.67712e-05 -3.85997e-05 1.44152)
(6.20839e-06 -4.29739e-05 1.50145)
(-6.20928e-06 -4.29742e-05 1.50145)
(-1.67721e-05 -3.86006e-05 1.44152)
(-2.25626e-05 -3.11622e-05 1.32341)
(-2.23412e-05 -2.23403e-05 1.15113)
(1.14911e-05 1.14922e-05 1.1511)
(1.1573e-05 1.59843e-05 1.3234)
(8.58661e-06 1.97577e-05 1.44152)
(3.17726e-06 2.19756e-05 1.50146)
(-3.17552e-06 2.19752e-05 1.50146)
(-8.58515e-06 1.97564e-05 1.44152)
(-1.15721e-05 1.59825e-05 1.3234)
(-1.14919e-05 1.14921e-05 1.1511)
(1.59811e-05 1.15754e-05 1.3234)
(1.65717e-05 1.6575e-05 1.5355)
(1.24724e-05 2.09008e-05 1.66912)
(4.62656e-06 2.33841e-05 1.73375)
(-4.62517e-06 2.33839e-05 1.73375)
(-1.24714e-05 2.09e-05 1.66912)
(-1.65715e-05 1.65737e-05 1.5355)
(-1.59839e-05 1.15747e-05 1.3234)
(1.97543e-05 8.58964e-06 1.44152)
(2.08977e-05 1.24759e-05 1.66912)
(1.57693e-05 1.57725e-05 1.80902)
(5.80946e-06 1.74679e-05 1.8743)
(-5.80859e-06 1.74677e-05 1.8743)
(-1.57687e-05 1.57719e-05 1.80902)
(-2.08979e-05 1.2475e-05 1.66912)
(-1.97575e-05 8.58882e-06 1.44152)
(2.19722e-05 3.18045e-06 1.50146)
(2.33811e-05 4.63018e-06 1.73375)
(1.7465e-05 5.81269e-06 1.8743)
(6.2911e-06 6.29394e-06 1.9363)
(-6.29062e-06 6.29381e-06 1.9363)
(-1.74647e-05 5.81226e-06 1.8743)
(-2.33815e-05 4.62947e-06 1.73375)
(-2.19756e-05 3.17972e-06 1.50146)
(2.19719e-05 -3.17227e-06 1.50146)
(2.33809e-05 -4.62147e-06 1.73375)
(1.74649e-05 -5.80528e-06 1.8743)
(6.29098e-06 -6.28768e-06 1.9363)
(-6.29073e-06 -6.28779e-06 1.9363)
(-1.74648e-05 -5.80561e-06 1.8743)
(-2.33815e-05 -4.62202e-06 1.73375)
(-2.19756e-05 -3.17294e-06 1.50146)
(1.97535e-05 -8.58199e-06 1.44152)
(2.0897e-05 -1.24676e-05 1.66912)
(1.57689e-05 -1.57652e-05 1.80902)
(5.80906e-06 -1.74615e-05 1.8743)
(-5.80896e-06 -1.74616e-05 1.8743)
(-1.57689e-05 -1.57655e-05 1.80902)
(-2.08977e-05 -1.2468e-05 1.66912)
(-1.9757e-05 -8.58253e-06 1.44152)
(1.59794e-05 -1.15685e-05 1.3234)
(1.65705e-05 -1.65671e-05 1.5355)
(1.24716e-05 -2.08938e-05 1.66912)
(4.62578e-06 -2.33777e-05 1.73375)
(-4.62587e-06 -2.33778e-05 1.73375)
(-1.24718e-05 -2.08941e-05 1.66912)
(-1.65711e-05 -1.65676e-05 1.5355)
(-1.59827e-05 -1.15695e-05 1.3234)
(1.14886e-05 -1.14881e-05 1.1511)
(1.15711e-05 -1.59773e-05 1.3234)
(8.58557e-06 -1.97512e-05 1.44152)
(3.17625e-06 -2.19696e-05 1.50146)
(-3.17644e-06 -2.19699e-05 1.50146)
(-8.58581e-06 -1.9752e-05 1.44152)
(-1.15718e-05 -1.5979e-05 1.3234)
(-1.14906e-05 -1.14902e-05 1.1511)
(5.80254e-06 5.80298e-06 1.15108)
(5.85577e-06 8.0881e-06 1.32339)
(4.3501e-06 1.00112e-05 1.44152)
(1.6098e-06 1.11427e-05 1.50146)
(-1.61189e-06 1.1143e-05 1.50146)
(-4.35218e-06 1.0012e-05 1.44152)
(-5.85829e-06 8.08953e-06 1.32339)
(-5.80557e-06 5.80519e-06 1.15108)
(8.08527e-06 5.85776e-06 1.32339)
(8.40442e-06 8.40724e-06 1.5355)
(6.33344e-06 1.06148e-05 1.66915)
(2.3499e-06 1.18828e-05 1.73378)
(-2.3519e-06 1.1883e-05 1.73378)
(-6.3355e-06 1.06154e-05 1.66915)
(-8.40693e-06 8.40817e-06 1.5355)
(-8.08962e-06 5.85951e-06 1.32339)
(1.00077e-05 4.35292e-06 1.44152)
(1.06121e-05 6.33664e-06 1.66915)
(8.01712e-06 8.02002e-06 1.80906)
(2.95442e-06 8.8866e-06 1.87436)
(-2.95606e-06 8.88671e-06 1.87436)
(-8.01883e-06 8.02036e-06 1.80906)
(-1.06141e-05 6.33727e-06 1.66915)
(-1.00112e-05 4.35388e-06 1.44152)
(1.1139e-05 1.6129e-06 1.50146)
(1.18801e-05 2.35329e-06 1.73378)
(8.88391e-06 2.95742e-06 1.87436)
(3.20108e-06 3.20372e-06 1.93637)
(-3.20243e-06 3.20379e-06 1.93637)
(-8.88533e-06 2.95767e-06 1.87436)
(-1.18817e-05 2.35382e-06 1.73378)
(-1.11418e-05 1.61367e-06 1.50146)
(1.11392e-05 -1.60881e-06 1.50146)
(1.18802e-05 -2.34853e-06 1.73378)
(8.88403e-06 -2.95308e-06 1.87436)
(3.20116e-06 -3.19978e-06 1.93637)
(-3.20237e-06 -3.19973e-06 1.93637)
(-8.88526e-06 -2.95288e-06 1.87436)
(-1.18815e-05 -2.34813e-06 1.73378)
(-1.11414e-05 -1.60825e-06 1.50146)
(1.00084e-05 -4.34926e-06 1.44152)
(1.06125e-05 -6.33223e-06 1.66915)
(8.01747e-06 -8.01585e-06 1.80906)
(2.95469e-06 -8.8826e-06 1.87436)
(-2.95587e-06 -8.88257e-06 1.87436)
(-8.01861e-06 -8.01575e-06 1.80906)