/*--------------------------------*- C++ -*----------------------------------*\
| =========                 |                                                 |
| \\      /  F ield         | OpenFOAM: The Open Source CFD Toolbox           |
|  \\    /   O peration     | Version:  2406                                  |
|   \\  /    A nd           | Website:  www.openfoam.com                      |
|    \\/     M anipulation  |                                                 |
\*---------------------------------------------------------------------------*/
FoamFile
{
    version     2.0;
    format      ascii;
    arch        "LSB;label=32;scalar=64";
    class       volScalarField;
    location    "2";
    object      div(phi);
}
// * * * * * * * * * * * * * * * * * * * * * * * * * * * * * * * * * * * * * //

dimensions      [0 0 -1 0 0 0 0];

internalField   nonuniform List<scalar> 
25000
(
-4.28126e-07
-4.00458e-07
-3.98998e-07
-3.85008e-07
-3.62975e-07
-3.52567e-07
-3.35458e-07
-3.43272e-07
-3.46198e-07
-2.66594e-07
-3.6061e-07
-3.37381e-07
-3.34423e-07
-3.27839e-07
-3.05334e-07
-2.89405e-07
-2.90466e-07
-2.84712e-07
-2.71894e-07
-1.97535e-07
-3.32408e-07
-3.09465e-07
-3.07993e-07
-3.0802e-07
-2.87641e-07
-2.74674e-07
-2.69108e-07
-2.64758e-07
-2.53881e-07
-1.85944e-07
-2.96493e-07
-2.70428e-07
-2.89754e-07
-2.80878e-07
-2.6638e-07
-2.50815e-07
-2.51261e-07
-2.4992e-07
-2.39134e-07
-1.73895e-07
-2.80718e-07
-2.53469e-07
-2.53524e-07
-2.59956e-07
-2.45973e-07
-2.34877e-07
-2.40027e-07
-2.36309e-07
-2.22031e-07
-1.6629e-07
-2.53159e-07
-2.20919e-07
-2.42833e-07
-2.39469e-07
-2.31404e-07
-2.25766e-07
-2.23347e-07
-2.25123e-07
-2.17447e-07
-1.5244e-07
-2.51203e-07
-2.20813e-07
-2.21642e-07
-2.3257e-07
-2.20813e-07
-2.11828e-07
-2.26817e-07
-2.18327e-07
-2.01465e-07
-1.50889e-07
-2.32116e-07
-2.02046e-07
-2.18119e-07
-2.11137e-07
-2.0347e-07
-2.11258e-07
-2.00789e-07
-2.07811e-07
-2.05385e-07
-1.40385e-07
-2.32432e-07
-1.98608e-07
-1.90348e-07
-1.86951e-07
-1.83743e-07
-1.73497e-07
-1.9499e-07
-1.95259e-07
-1.86086e-07
-1.3809e-07
-1.75956e-07
-1.2875e-07
-1.27903e-07
-1.26111e-07
-1.23807e-07
-1.34985e-07
-1.42762e-07
-1.44859e-07
-1.55816e-07
-9.88796e-08
-2.68953e-07
-2.77186e-07
-2.73388e-07
-2.38226e-07
-2.15564e-07
-2.26531e-07
-2.21265e-07
-2.34929e-07
-2.76324e-07
-1.93299e-07
-2.30837e-07
-2.38807e-07
-2.11528e-07
-2.19437e-07
-2.15964e-07
-1.90155e-07
-2.22183e-07
-2.28029e-07
-1.97733e-07
-1.53869e-07
-1.99077e-07
-1.99818e-07
-2.32629e-07
-2.18835e-07
-2.0211e-07
-2.17315e-07
-1.99736e-07
-1.94931e-07
-2.12596e-07
-1.36785e-07
-2.1188e-07
-2.14877e-07
-2.02742e-07
-2.15683e-07
-2.12521e-07
-1.86347e-07
-2.07085e-07
-2.08486e-07
-1.77742e-07
-1.35545e-07
-1.97561e-07
-1.85059e-07
-2.1338e-07
-2.11029e-07
-1.97189e-07
-2.05575e-07
-1.98347e-07
-1.87499e-07
-1.90103e-07
-1.25048e-07
-2.08639e-07
-1.96503e-07
-1.97846e-07
-2.05922e-07
-2.04348e-07
-1.87794e-07
-1.96887e-07
-1.99391e-07
-1.73776e-07
-1.21835e-07
-2.13101e-07
-1.87548e-07
-1.99818e-07
-2.04582e-07
-1.90271e-07
-1.91131e-07
-2.02285e-07
-1.83128e-07
-1.79789e-07
-1.22834e-07
-2.2051e-07
-1.90597e-07
-1.95309e-07
-1.89852e-07
-1.81931e-07
-1.9115e-07
-1.76266e-07
-1.93648e-07
-1.78915e-07
-1.18373e-07
-2.25934e-07
-1.95293e-07
-1.84863e-07
-1.77578e-07
-1.78746e-07
-1.59131e-07
-1.91182e-07
-1.7512e-07
-1.76505e-07
-1.21414e-07
-1.85472e-07
-1.47078e-07
-1.45235e-07
-1.43457e-07
-1.32908e-07
-1.43283e-07
-1.40523e-07
-1.3852e-07
-1.47898e-07
-7.79955e-08
-7.35115e-07
-6.99216e-07
-6.71399e-07
-6.18734e-07
-5.5431e-07
-5.0661e-07
-4.60895e-07
-4.67424e-07
-4.50364e-07
-3.44144e-07
-6.09512e-07
-5.50482e-07
-5.03053e-07
-4.68742e-07
-4.0177e-07
-3.69838e-07
-3.59121e-07
-3.46358e-07
-3.42481e-07
-2.47126e-07
-5.43169e-07
-4.7892e-07
-4.42919e-07
-4.07754e-07
-3.59109e-07
-3.27645e-07
-3.12428e-07
-3.12638e-07
-3.08e-07
-2.26141e-07
-4.64848e-07
-4.06321e-07
-3.97386e-07
-3.5886e-07
-3.20882e-07
-2.86217e-07
-2.84736e-07
-2.85031e-07
-2.75588e-07
-2.09594e-07
-4.20314e-07
-3.65072e-07
-3.42962e-07
-3.24688e-07
-2.87445e-07
-2.68147e-07
-2.6164e-07
-2.58535e-07
-2.60505e-07
-1.92978e-07
-3.73002e-07
-3.21593e-07
-3.21648e-07
-2.93501e-07
-2.72431e-07
-2.45244e-07
-2.4593e-07
-2.54485e-07
-2.41245e-07
-1.82621e-07
-3.61608e-07
-3.12379e-07
-2.90394e-07
-2.86849e-07
-2.48578e-07
-2.40364e-07
-2.49285e-07
-2.36741e-07
-2.4343e-07
-1.75171e-07
-3.30382e-07
-2.88945e-07
-2.88501e-07
-2.58297e-07
-2.41759e-07
-2.38938e-07
-2.25034e-07
-2.51496e-07
-2.36114e-07
-1.7301e-07
-3.2596e-07
-2.78939e-07
-2.60875e-07
-2.40849e-07
-2.31195e-07
-2.10395e-07
-2.43149e-07
-2.3024e-07
-2.37163e-07
-1.61112e-07
-2.4327e-07
-1.97418e-07
-1.87974e-07
-1.82041e-07
-1.70195e-07
-1.82953e-07
-1.87163e-07
-1.94943e-07
-2.01406e-07
-1.22775e-07
-9.06183e-08
-1.35038e-07
-1.70054e-07
-1.6391e-07
-1.74298e-07
-2.33778e-07
-2.27366e-07
-2.6043e-07
-2.89625e-07
-1.7459e-07
-6.7579e-08
-1.05834e-07
-7.78701e-08
-1.07913e-07
-1.37211e-07
-1.14371e-07
-1.90564e-07
-2.05438e-07
-1.68385e-07
-1.22571e-07
-2.85352e-08
-5.12981e-08
-1.27432e-07
-1.04886e-07
-1.03366e-07
-1.59472e-07
-1.46099e-07
-1.59841e-07
-2.05759e-07
-9.49459e-08
-6.60786e-08
-1.12442e-07
-6.80305e-08
-1.07196e-07
-1.23804e-07
-1.01545e-07
-1.62494e-07
-1.8507e-07
-1.34956e-07
-1.03365e-07
-3.85888e-08
-5.02504e-08
-1.13196e-07
-1.02625e-07
-9.73768e-08
-1.39605e-07
-1.40974e-07
-1.37833e-07
-1.74509e-07
-8.11602e-08
-6.31093e-08
-9.80129e-08
-8.16972e-08
-1.0779e-07
-1.19421e-07
-1.08291e-07
-1.44999e-07
-1.72801e-07
-1.26379e-07
-8.81348e-08
-5.27213e-08
-7.21368e-08
-1.08335e-07
-1.11437e-07
-1.0767e-07
-1.31202e-07
-1.55802e-07
-1.3168e-07
-1.5982e-07
-8.02253e-08
-8.45882e-08
-9.01279e-08
-1.05796e-07
-1.11241e-07
-1.17489e-07
-1.37239e-07
-1.28815e-07
-1.74554e-07
-1.33635e-07
-8.55597e-08
-7.58643e-08
-1.10979e-07
-1.06191e-07
-1.202e-07
-1.31115e-07
-1.19308e-07
-1.70608e-07
-1.33961e-07
-1.53451e-07
-8.11439e-08
-8.76993e-08
-9.17559e-08
-1.0765e-07
-1.16385e-07
-1.14674e-07
-1.33489e-07
-1.26793e-07
-1.28158e-07
-1.29119e-07
-5.62095e-08
-8.90412e-07
-8.55694e-07
-8.28801e-07
-7.66817e-07
-6.79275e-07
-6.079e-07
-5.18087e-07
-4.86285e-07
-4.58424e-07
-3.32255e-07
-7.45247e-07
-6.49049e-07
-5.61692e-07
-5.2832e-07
-4.30209e-07
-3.84977e-07
-3.65287e-07
-3.49053e-07
-3.19609e-07
-2.41706e-07
-6.48639e-07
-5.38217e-07
-4.93843e-07
-4.27857e-07
-3.60238e-07
-3.29496e-07
-2.98906e-07
-2.89812e-07
-3.07437e-07
-2.10795e-07
-5.5487e-07
-4.55039e-07
-4.10325e-07
-3.52908e-07
-2.98653e-07
-2.46438e-07
-2.60936e-07
-2.7154e-07
-2.37376e-07
-2.01167e-07
-4.83018e-07
-3.75825e-07
-3.43475e-07
-2.92865e-07
-2.30157e-07
-2.25625e-07
-2.16809e-07
-2.1245e-07
-2.4348e-07
-1.70836e-07
-4.18861e-07
-3.30131e-07
-2.9978e-07
-2.484e-07
-2.21802e-07
-1.79637e-07
-1.99421e-07
-2.22477e-07
-1.90494e-07
-1.64799e-07
-3.97189e-07
-2.93141e-07
-2.59013e-07
-2.47206e-07
-1.88063e-07
-1.9632e-07
-1.97804e-07
-1.78837e-07
-2.09894e-07
-1.45992e-07
-3.35534e-07
-2.69272e-07
-2.47241e-07
-2.09246e-07
-1.96371e-07
-1.85333e-07
-1.70664e-07
-2.10569e-07
-1.77336e-07
-1.46736e-07
-3.33304e-07
-2.28916e-07
-2.24224e-07
-1.91003e-07
-1.88359e-07
-1.61543e-07
-1.98609e-07
-1.69887e-07
-1.90718e-07
-1.26118e-07
-2.2848e-07
-1.71117e-07
-1.53199e-07
-1.51099e-07
-1.33369e-07
-1.4704e-07
-1.43476e-07
-1.56177e-07
-1.55351e-07
-1.02954e-07
1.36699e-07
5.92304e-08
5.65345e-09
1.09752e-08
-8.34545e-09
-8.8507e-08
-8.58284e-08
-1.20073e-07
-1.82688e-07
-7.64523e-08
1.00081e-07
3.88175e-08
8.71427e-08
2.44895e-08
-2.89045e-08
-2.69591e-09
-1.09573e-07
-1.3342e-07
-6.39836e-08
-5.99152e-08
1.36392e-07
1.03264e-07
-1.68974e-08
1.31089e-08
1.24937e-09
-9.23214e-08
-6.41266e-08
-7.29173e-08
-1.49756e-07
-2.56629e-08
4.89028e-08
-1.51793e-08
6.05698e-08
-9.52751e-09
-4.78949e-08
-1.69234e-08
-1.02903e-07
-1.3183e-07
-4.72234e-08
-4.89501e-08
7.86257e-08
7.01315e-08
-2.73465e-08
-1.39064e-08
-1.72072e-08
-8.7176e-08
-7.58843e-08
-6.25857e-08
-1.24024e-07
-1.78502e-08
2.72189e-08
-1.82342e-08
1.95821e-08
-2.58399e-08
-5.57722e-08
-3.58183e-08
-8.79474e-08
-1.21631e-07
-4.67507e-08
-3.4301e-08
3.79022e-08
3.18981e-08
-2.32606e-08
-2.96124e-08
-2.97819e-08
-7.47008e-08
-9.35753e-08
-5.61078e-08
-1.02373e-07
-2.0495e-08
-4.7837e-10
-5.51872e-09
-1.07013e-08
-2.89662e-08
-4.78777e-08
-7.06714e-08
-6.08127e-08
-1.18111e-07
-5.38502e-08
-2.91423e-08
2.75788e-09
-1.48885e-08
-2.79263e-08
-4.44587e-08
-7.05962e-08
-5.55511e-08
-1.16299e-07
-5.71248e-08
-8.76839e-08
-2.49237e-08
-2.54898e-08
-3.78101e-08
-5.57246e-08
-7.33748e-08
-6.94302e-08
-9.05966e-08
-7.20075e-08
-7.13513e-08
-6.4911e-08
-1.054e-08
-9.43288e-07
-8.84768e-07
-8.67558e-07
-7.93731e-07
-7.18144e-07
-6.43197e-07
-5.62858e-07
-5.2496e-07
-5.05353e-07
-3.79091e-07
-8.37011e-07
-7.57445e-07
-6.58682e-07
-6.22298e-07
-5.08273e-07
-4.5439e-07
-4.23124e-07
-4.05215e-07
-3.65564e-07
-2.91539e-07
-7.28966e-07
-6.30665e-07
-5.85332e-07
-5.12301e-07
-4.32136e-07
-3.9017e-07
-3.51557e-07
-3.35144e-07
-3.56881e-07
-2.58669e-07
-6.18228e-07
-5.32685e-07
-4.90223e-07
-4.22636e-07
-3.55525e-07
-2.93399e-07
-3.02782e-07
-3.15474e-07
-2.77104e-07
-2.48978e-07
-5.3138e-07
-4.44314e-07
-4.08777e-07
-3.49096e-07
-2.72969e-07
-2.63674e-07
-2.51159e-07
-2.46099e-07
-2.86253e-07
-2.14362e-07
-4.59803e-07
-3.86814e-07
-3.57264e-07
-2.95691e-07
-2.6121e-07
-2.0922e-07
-2.30105e-07
-2.57554e-07
-2.23429e-07
-2.10675e-07
-4.23329e-07
-3.44006e-07
-3.05035e-07
-2.91812e-07
-2.19302e-07
-2.29045e-07
-2.23197e-07
-2.05325e-07
-2.499e-07
-1.85494e-07
-3.58371e-07
-3.06859e-07
-2.88897e-07
-2.41797e-07
-2.30428e-07
-2.08622e-07
-1.96662e-07
-2.42621e-07
-2.05907e-07
-1.90035e-07
-3.44279e-07
-2.60476e-07
-2.53228e-07
-2.2158e-07
-2.13673e-07
-1.90926e-07
-2.23706e-07
-1.9624e-07
-2.24225e-07
-1.56769e-07
-2.33848e-07
-1.93342e-07
-1.75255e-07
-1.73085e-07
-1.57547e-07
-1.71363e-07
-1.69651e-07
-1.88783e-07
-1.80772e-07
-1.36364e-07
2.43667e-07
1.3383e-07
8.91081e-08
9.40251e-08
6.86219e-08
-1.90015e-08
-3.46402e-08
-7.61659e-08
-1.5057e-07
-6.48743e-08
2.49212e-07
1.30431e-07
1.59924e-07
8.77694e-08
1.89076e-08
3.24529e-08
-8.14219e-08
-1.14399e-07
-4.65914e-08
-5.93699e-08
2.62188e-07
1.73132e-07
3.90334e-08
5.76906e-08
3.39395e-08
-6.77792e-08
-4.61803e-08
-5.88271e-08
-1.40606e-07
-2.93538e-08
1.7671e-07
3.9999e-08
1.01996e-07
2.03681e-08
-2.62149e-08
-2.5029e-09
-9.01914e-08
-1.24045e-07
-4.20591e-08
-5.60891e-08
2.0018e-07
1.16824e-07
2.77781e-09
6.86816e-09
-4.21621e-09
-7.78814e-08
-6.85406e-08
-5.80145e-08
-1.24442e-07
-2.74158e-08
1.48726e-07
2.4857e-08
4.53675e-08
-1.13613e-08
-4.64906e-08
-2.95988e-08
-8.37259e-08
-1.20941e-07
-4.81319e-08
-4.89813e-08
1.73436e-07
6.79689e-08
2.06586e-10
-1.53358e-08
-2.10276e-08
-7.05786e-08
-8.86423e-08
-5.55089e-08
-1.10956e-07
-3.38916e-08
1.13189e-07
4.21254e-08
7.70423e-09
-1.315e-08
-4.21151e-08
-6.36517e-08
-6.09296e-08
-1.22712e-07
-5.75283e-08
-4.83999e-08
1.35747e-07
6.6877e-09
1.92706e-09
-3.643e-08
-6.08667e-08
-5.87352e-08
-1.16111e-07
-6.08699e-08
-9.68297e-08
-3.54276e-08
6.25532e-08
-1.17112e-08
-4.45124e-08
-6.62379e-08
-7.35269e-08
-9.58193e-08
-8.05335e-08
-8.28854e-08
-6.9747e-08
-2.58638e-08
-1.09423e-06
-9.69066e-07
-8.95398e-07
-7.74388e-07
-6.84427e-07
-5.8156e-07
-4.8454e-07
-4.46442e-07
-4.01849e-07
-3.08469e-07
-9.68851e-07
-7.82307e-07
-6.28236e-07
-5.93273e-07
-4.43779e-07
-4.01711e-07
-3.49757e-07
-3.18095e-07
-2.81546e-07
-2.18808e-07
-8.68917e-07
-6.55103e-07
-5.61301e-07
-4.67164e-07
-3.81798e-07
-3.25578e-07
-2.8309e-07
-2.6101e-07
-2.62787e-07
-1.87503e-07
-7.62161e-07
-5.48534e-07
-4.74534e-07
-3.79911e-07
-3.03011e-07
-2.40207e-07
-2.37126e-07
-2.3583e-07
-1.95728e-07
-1.75199e-07
-6.89533e-07
-4.67149e-07
-3.83473e-07
-3.10158e-07
-2.26486e-07
-2.10689e-07
-1.88133e-07
-1.75197e-07
-1.99733e-07
-1.42817e-07
-5.98165e-07
-4.0273e-07
-3.42038e-07
-2.47634e-07
-2.18741e-07
-1.54822e-07
-1.70586e-07
-1.82543e-07
-1.42455e-07
-1.38108e-07
-5.93887e-07
-3.56443e-07
-2.72627e-07
-2.60457e-07
-1.64431e-07
-1.82619e-07
-1.62972e-07
-1.37182e-07
-1.7005e-07
-1.16156e-07
-4.60736e-07
-3.27552e-07
-2.59677e-07
-1.98164e-07
-1.85579e-07
-1.60707e-07
-1.38366e-07
-1.78771e-07
-1.24932e-07
-1.22999e-07
-4.9187e-07
-2.31511e-07
-2.46236e-07
-1.70755e-07
-1.79393e-07
-1.33546e-07
-1.74784e-07
-1.23952e-07
-1.51181e-07
-9.54985e-08
-2.82395e-07
-1.73997e-07
-1.2892e-07
-1.29993e-07
-9.71721e-08
-1.13975e-07
-9.98796e-08
-1.15605e-07
-1.04181e-07
-8.18401e-08
3.94898e-07
3.25277e-07
2.67038e-07
2.73941e-07
2.14759e-07
1.08e-07
8.91151e-08
3.16669e-08
-3.5586e-08
2.79377e-08
2.74226e-07
2.16395e-07
2.83609e-07
1.8931e-07
1.22113e-07
1.24437e-07
4.73262e-09
-2.1805e-08
5.71228e-08
2.9552e-08
2.66955e-07
2.51879e-07
1.2663e-07
1.53888e-07
1.21149e-07
8.98793e-09
3.52212e-08
2.81998e-08
-4.4649e-08
6.13639e-08
1.3075e-07
9.04032e-08
1.82158e-07
1.01221e-07
4.60973e-08
6.80125e-08
-2.14265e-08
-4.54996e-08
5.27222e-08
3.24175e-08
1.29771e-07
1.58096e-07
6.55734e-08
7.45162e-08
5.90032e-08
-2.18807e-08
-4.70198e-09
1.81832e-08
-3.66265e-08
6.02939e-08
6.82039e-08
4.66024e-08
9.81169e-08
5.3987e-08
5.58729e-09
2.77068e-08
-2.52921e-08
-4.97593e-08
3.97292e-08
3.65779e-08
5.33215e-08
9.33556e-08
5.03116e-08
3.38252e-08
3.77358e-08
-2.21594e-08
-3.34565e-08
1.34053e-08
-2.94952e-08
4.63988e-08
3.92062e-08
4.36451e-08
5.6975e-08
3.83881e-08
8.49173e-09
-1.71085e-08
-3.93839e-09
-6.09916e-08
2.61309e-08
2.94425e-08
1.0909e-08
4.96596e-08
2.05712e-08
1.77815e-08
-2.43114e-08
-1.84828e-09
-7.03456e-08
1.18078e-08
-2.15689e-08
3.324e-08
2.42584e-08
1.46413e-08
3.65567e-09
-2.27897e-08
-1.48344e-08
-4.08081e-08
-1.17698e-08
-7.04755e-09
9.90938e-09
3.89721e-08
-1.04911e-06
-9.47343e-07
-9.07426e-07
-8.07632e-07
-7.30666e-07
-6.32033e-07
-5.40947e-07
-4.94958e-07
-4.5807e-07
-3.62484e-07
-9.30303e-07
-8.19066e-07
-6.90654e-07
-6.54478e-07
-5.03527e-07
-4.58946e-07
-3.99481e-07
-3.71618e-07
-3.21728e-07
-2.62937e-07
-8.29532e-07
-6.91222e-07
-6.05859e-07
-5.24268e-07
-4.35542e-07
-3.73396e-07
-3.28804e-07
-2.98767e-07
-3.03576e-07
-2.28846e-07
-6.96967e-07
-5.65302e-07
-5.22166e-07
-4.26734e-07
-3.46276e-07
-2.80373e-07
-2.70045e-07
-2.72941e-07
-2.28933e-07
-2.1473e-07
-6.20112e-07
-4.90965e-07
-4.17315e-07
-3.51222e-07
-2.64158e-07
-2.4254e-07
-2.21206e-07
-2.05233e-07
-2.33883e-07
-1.81281e-07
-5.22946e-07
-4.12821e-07
-3.77985e-07
-2.8792e-07
-2.52265e-07
-1.87957e-07
-1.98364e-07
-2.14761e-07
-1.74055e-07
-1.80961e-07
-5.00043e-07
-3.77585e-07
-3.04576e-07
-2.95756e-07
-2.00048e-07
-2.12438e-07
-1.91086e-07
-1.66767e-07
-2.10219e-07
-1.55887e-07
-3.92007e-07
-3.2952e-07
-2.945e-07
-2.29314e-07
-2.20084e-07
-1.86195e-07
-1.70009e-07
-2.13452e-07
-1.58293e-07
-1.71263e-07
-4.00871e-07
-2.62814e-07
-2.61273e-07
-2.07881e-07
-2.02084e-07
-1.71786e-07
-2.0208e-07
-1.59e-07
-1.912e-07
-1.28064e-07
-2.26506e-07
-1.84451e-07
-1.52635e-07
-1.51759e-07
-1.30023e-07
-1.44648e-07
-1.37186e-07
-1.57639e-07
-1.37861e-07
-1.2099e-07
4.48451e-07
3.48386e-07
2.95711e-07
3.02775e-07
2.46698e-07
1.33876e-07
1.026e-07
5.31602e-08
-3.66507e-08
2.16917e-08
3.99826e-07
2.76741e-07
3.20595e-07
2.22187e-07
1.35812e-07
1.39679e-07
1.12373e-08
-2.73622e-08
6.67201e-08
1.95838e-08
3.90353e-07
3.06967e-07
1.59629e-07
1.75856e-07
1.36877e-07
1.42013e-08
4.01647e-08
3.63971e-08
-4.97863e-08
5.17051e-08
2.60842e-07
1.35537e-07
2.1217e-07
1.1749e-07
5.39476e-08
7.4777e-08
-1.60098e-08
-4.75225e-08
5.48379e-08
1.93288e-08
2.60047e-07
2.00119e-07
8.45185e-08
8.48057e-08
6.32738e-08
-2.04344e-08
-3.97821e-09
1.98405e-08
-4.38489e-08
4.55009e-08
1.87414e-07
8.13575e-08
1.1581e-07
5.58811e-08
7.40349e-09
2.58474e-08
-2.54358e-08
-5.53317e-08
3.34157e-08
1.40867e-08
1.89652e-07
1.21169e-07
5.91923e-08
4.01215e-08
3.4791e-08
-2.3155e-08
-3.37405e-08
8.86773e-09
-4.67274e-08
2.54882e-08
1.33638e-07
7.96562e-08
6.06883e-08
3.98976e-08
3.3912e-09
-1.67436e-08
-1.24942e-08
-7.21327e-08
1.37876e-08
-1.90257e-10
1.32253e-07
4.84785e-08
3.66801e-08
5.05247e-09
-2.49219e-08
-2.01945e-08
-7.61602e-08
-2.23221e-09
-4.0241e-08
1.60777e-08
8.68305e-08
1.56489e-08
-1.3057e-08
-3.75049e-08
-4.14848e-08
-6.24102e-08
-3.69653e-08
-3.22919e-08
-6.93933e-09
1.54393e-08
-1.10235e-06
-9.76335e-07
-9.20083e-07
-8.09192e-07
-7.19139e-07
-5.96932e-07
-4.96328e-07
-4.34713e-07
-3.88355e-07
-3.29754e-07
-9.89849e-07
-8.193e-07
-6.78776e-07
-6.26228e-07
-4.65419e-07
-4.1362e-07
-3.36766e-07
-3.03009e-07
-2.60548e-07
-2.24636e-07
-8.80381e-07
-6.8924e-07
-5.74723e-07
-4.84896e-07
-3.91034e-07
-3.17342e-07
-2.68068e-07
-2.37489e-07
-2.33168e-07
-1.94529e-07
-7.54773e-07
-5.49116e-07
-4.90198e-07
-3.81525e-07
-2.97255e-07
-2.31146e-07
-2.08228e-07
-2.02985e-07
-1.73174e-07
-1.75136e-07
-6.86048e-07
-4.7736e-07
-3.76249e-07
-3.05197e-07
-2.18935e-07
-1.88623e-07
-1.61498e-07
-1.46619e-07
-1.63421e-07
-1.46661e-07
-5.83672e-07
-3.93589e-07
-3.40705e-07
-2.403e-07
-2.02595e-07
-1.41558e-07
-1.37534e-07
-1.42389e-07
-1.19873e-07
-1.39277e-07
-5.81871e-07
-3.59671e-07
-2.67951e-07
-2.50465e-07
-1.58491e-07
-1.58453e-07
-1.28542e-07
-1.14398e-07
-1.37523e-07
-1.20991e-07
-4.48782e-07
-3.22604e-07
-2.59191e-07
-1.91891e-07
-1.73818e-07
-1.33579e-07
-1.20234e-07
-1.35092e-07
-1.0477e-07
-1.2764e-07
-4.81815e-07
-2.41226e-07
-2.38674e-07
-1.6773e-07
-1.5337e-07
-1.2431e-07
-1.27114e-07
-1.04752e-07
-1.17696e-07
-9.24282e-08
-2.5911e-07
-1.58196e-07
-1.12773e-07
-1.01457e-07
-7.46902e-08
-7.59798e-08
-6.94786e-08
-8.12359e-08
-6.47664e-08
-8.37821e-08
5.49701e-07
4.45388e-07
4.14025e-07
4.11607e-07
3.67794e-07
2.56411e-07
2.22186e-07
1.73704e-07
9.25638e-08
1.08062e-07
5.16516e-07
4.20819e-07
4.36447e-07
3.54995e-07
2.41023e-07
2.49097e-07
1.16913e-07
8.14497e-08
1.5941e-07
9.50543e-08
4.92738e-07
4.22706e-07
2.80332e-07
2.85048e-07
2.35313e-07
1.07825e-07
1.30658e-07
1.17786e-07
4.68553e-08
1.15228e-07
3.55561e-07
2.40476e-07
3.16386e-07
2.11732e-07
1.36094e-07
1.45996e-07
5.83106e-08
3.68101e-08
1.21437e-07
8.36443e-08
3.34123e-07
2.9245e-07
1.76559e-07
1.65888e-07
1.27367e-07
4.59291e-08
5.98341e-08
7.96116e-08
3.73821e-08
9.87543e-08
2.63778e-07
1.66313e-07
1.98154e-07
1.22035e-07
7.3012e-08
7.06488e-08
3.54262e-08
1.83882e-08
8.70187e-08
7.52531e-08
2.49466e-07
1.93459e-07
1.18719e-07
1.07151e-07
7.06135e-08
3.55536e-08
2.08203e-08
5.35268e-08
3.42337e-08
7.3185e-08
1.846e-07
1.3501e-07
1.16166e-07
7.87908e-08
5.39145e-08
2.95395e-08
3.0199e-08
1.07497e-08
6.03615e-08
6.0834e-08
1.70127e-07
8.42008e-08
8.21315e-08
4.53947e-08
3.0147e-08
2.44006e-08
2.34389e-09
4.32176e-08
3.7867e-08
5.8516e-08
1.13738e-07
6.4759e-08
3.36425e-08
2.19913e-08
1.42087e-08
9.38668e-09
2.76261e-08
4.63931e-08
6.16965e-08
6.10805e-08
-1.41021e-06
-1.26097e-06
-1.15794e-06
-1.04719e-06
-9.06512e-07
-7.32454e-07
-6.24612e-07
-5.33909e-07
-4.58448e-07
-4.04474e-07
-1.18667e-06
-9.76379e-07
-8.90648e-07
-7.80432e-07
-6.05282e-07
-5.42816e-07
-4.22493e-07
-3.78701e-07
-3.72979e-07
-2.93495e-07
-1.08062e-06
-8.73657e-07
-7.09863e-07
-6.37286e-07
-5.24307e-07
-4.0062e-07
-3.68333e-07
-3.42442e-07
-2.96749e-07
-2.86176e-07
-8.77734e-07
-6.62715e-07
-6.52163e-07
-5.08997e-07
-3.95976e-07
-3.41635e-07
-2.84493e-07
-2.70072e-07
-2.93688e-07
-2.55236e-07
-8.15856e-07
-6.2324e-07
-4.86721e-07
-4.20988e-07
-3.23801e-07
-2.52465e-07
-2.47857e-07
-2.52564e-07
-2.354e-07
-2.46528e-07
-6.77157e-07
-4.90319e-07
-4.71915e-07
-3.55918e-07
-2.82794e-07
-2.44939e-07
-2.1475e-07
-2.13374e-07
-2.42634e-07
-2.26656e-07
-6.77342e-07
-4.92733e-07
-3.94417e-07
-3.61948e-07
-2.82859e-07
-2.35916e-07
-2.16388e-07
-2.30211e-07
-2.18409e-07
-2.20496e-07
-5.55765e-07
-4.39078e-07
-3.98278e-07
-3.25666e-07
-2.80758e-07
-2.32759e-07
-2.26978e-07
-2.04074e-07
-2.34587e-07
-2.16218e-07
-5.75444e-07
-3.89089e-07
-3.54845e-07
-2.94165e-07
-2.4222e-07
-2.30729e-07
-1.90024e-07
-2.29106e-07
-2.07349e-07
-1.83869e-07
-3.61163e-07
-2.4328e-07
-2.04375e-07
-1.71123e-07
-1.54473e-07
-1.38824e-07
-1.5732e-07
-1.65932e-07
-1.62544e-07
-1.6184e-07
7.58358e-07
6.3245e-07
5.54064e-07
4.72755e-07
3.97628e-07
2.74616e-07
1.98557e-07
1.48558e-07
8.45102e-08
9.04461e-08
6.09886e-07
4.93532e-07
4.12702e-07
3.65818e-07
2.17942e-07
2.11769e-07
1.02454e-07
6.41295e-08
7.76729e-08
6.81906e-08
5.34975e-07
4.28177e-07
3.04054e-07
2.58858e-07
1.97123e-07
1.02501e-07
8.15936e-08
5.00717e-08
2.35631e-08
5.43743e-08
4.06393e-07
2.79122e-07
2.83518e-07
1.86192e-07
1.14346e-07
8.36214e-08
2.66279e-08
9.04844e-09
1.51201e-08
3.4256e-08
3.40902e-07
2.65963e-07
1.70969e-07
1.30196e-07
7.55713e-08
3.04974e-08
2.60445e-09
-8.56511e-09
-7.353e-09
1.81326e-08
2.70009e-07
1.68829e-07
1.5108e-07
6.99441e-08
4.4496e-08
-5.45762e-09
-1.54776e-08
-2.64248e-08
-3.16801e-08
1.07659e-08
2.35105e-07
1.40508e-07
6.03236e-08
5.48753e-08
-1.86829e-08
-6.9873e-09
-4.65766e-08
-5.45592e-08
-2.54946e-08
-1.20939e-08
1.35157e-07
8.36958e-08
3.48445e-08
-1.34204e-08
-1.58806e-08
-4.87999e-08
-6.1372e-08
-3.60073e-08
-6.87513e-08
-6.72057e-09
1.2909e-07
-1.14776e-08
1.16722e-08
-4.47461e-08
-3.18132e-08
-5.99811e-08
-4.10777e-08
-7.58299e-08
-3.81013e-08
-2.5602e-08
2.94516e-08
4.9052e-09
-3.69278e-08
-3.02486e-08
-5.19901e-08
-4.1292e-08
-5.21787e-08
-2.54277e-08
-3.37214e-08
-5.2037e-10
-1.00599e-06
-9.06541e-07
-8.51279e-07
-8.44345e-07
-7.26422e-07
-5.71011e-07
-4.95646e-07
-4.09965e-07
-3.22105e-07
-3.09747e-07
-8.75127e-07
-7.13585e-07
-7.48576e-07
-6.00548e-07
-4.76602e-07
-4.27652e-07
-2.90381e-07
-2.48953e-07
-3.18574e-07
-2.20852e-07
-8.00069e-07
-6.80944e-07
-5.09719e-07
-4.9931e-07
-4.1196e-07
-2.68885e-07
-2.75592e-07
-2.71102e-07
-1.91364e-07
-2.45239e-07
-5.94116e-07
-4.38415e-07
-5.09168e-07
-3.80462e-07
-2.8379e-07
-2.73799e-07
-1.88207e-07
-1.66253e-07
-2.70488e-07
-2.02992e-07
-5.62931e-07
-4.60062e-07
-3.26944e-07
-3.07562e-07
-2.49229e-07
-1.51661e-07
-1.7907e-07
-2.10254e-07
-1.50328e-07
-2.2394e-07
-4.40498e-07
-3.02564e-07
-3.43393e-07
-2.63166e-07
-1.82459e-07
-2.01202e-07
-1.39297e-07
-1.22928e-07
-2.32414e-07
-1.78739e-07
-4.43572e-07
-3.52761e-07
-2.86183e-07
-2.52378e-07
-2.40727e-07
-1.46383e-07
-1.50466e-07
-2.06802e-07
-1.30077e-07
-1.98838e-07
-3.83731e-07
-3.02076e-07
-3.01399e-07
-2.65668e-07
-2.02081e-07
-1.74309e-07
-1.82767e-07
-9.59708e-08
-2.28517e-07
-1.61416e-07
-3.86377e-07
-3.09047e-07
-2.55075e-07
-2.254e-07
-1.55436e-07
-1.70622e-07
-8.15695e-08
-2.06985e-07
-1.31411e-07
-1.69653e-07
-2.88733e-07
-1.71418e-07
-1.46451e-07
-9.49945e-08
-9.3008e-08
-5.57069e-08
-1.00521e-07
-9.35618e-08
-1.25637e-07
-1.29787e-07
1.01009e-06
8.47738e-07
7.81814e-07
6.52094e-07
5.81362e-07
4.48652e-07
3.4908e-07
2.97498e-07
2.32322e-07
2.06006e-07
8.54282e-07
7.36023e-07
5.76666e-07
5.5014e-07
3.56563e-07
3.41641e-07
2.36714e-07
1.95062e-07
1.53913e-07
1.47407e-07
7.54872e-07
6.15558e-07
4.90203e-07
4.03733e-07
3.19723e-07
2.29863e-07
1.83608e-07
1.34945e-07
1.25997e-07
1.08811e-07
6.14189e-07
4.69067e-07
4.28291e-07
3.1392e-07
2.247e-07
1.63519e-07
1.21449e-07
1.09114e-07
5.98233e-08
9.24208e-08
5.34609e-07
4.15319e-07
3.13064e-07
2.41652e-07
1.56181e-07
1.24073e-07
7.85325e-08
4.77387e-08
7.55359e-08
5.57352e-08
4.36187e-07
3.23151e-07
2.75144e-07
1.64771e-07
1.40846e-07
5.27225e-08
6.18725e-08
6.20475e-08
1.72453e-09
6.74276e-08
3.9912e-07
2.73504e-07
1.66982e-07
1.66325e-07
4.13223e-08
8.32382e-08
2.87452e-08
-8.80624e-09
6.63646e-08
2.68402e-08
2.54643e-07
2.02777e-07
1.42794e-07
5.9345e-08
7.17922e-08
2.10253e-08
9.09299e-10
7.09207e-08
-3.48079e-08
5.91774e-08
2.57516e-07
9.086e-08
1.09975e-07
3.88361e-08
5.46618e-08
1.34551e-08
6.4198e-08
-2.90288e-08
4.72202e-08
6.97012e-09
6.69219e-08
6.38756e-08
1.69365e-08
3.3908e-08
6.63433e-09
3.36988e-08
8.42089e-09
4.63651e-08
1.26752e-08
3.86004e-08
-1.01226e-06
-9.33429e-07
-8.75987e-07
-8.83295e-07
-7.40376e-07
-5.87746e-07
-5.12928e-07
-4.11821e-07
-3.46223e-07
-2.85063e-07
-8.71619e-07
-7.39467e-07
-8.04124e-07
-6.37495e-07
-5.27984e-07
-4.63629e-07
-3.24502e-07
-2.8525e-07
-3.55213e-07
-2.26498e-07
-7.72607e-07
-6.99884e-07
-5.45808e-07
-5.44029e-07
-4.51279e-07
-3.01621e-07
-3.13484e-07
-3.01432e-07
-2.25382e-07
-2.54654e-07
-5.4074e-07
-4.44891e-07
-5.35638e-07
-4.14848e-07
-3.14788e-07
-3.06943e-07
-2.1585e-07
-1.95859e-07
-3.08054e-07
-2.15845e-07
-4.72021e-07
-4.56337e-07
-3.46708e-07
-3.3116e-07
-2.75493e-07
-1.70664e-07
-2.06421e-07
-2.41636e-07
-1.83251e-07
-2.40357e-07
-3.61089e-07
-2.89504e-07
-3.47759e-07
-2.84499e-07
-1.9395e-07
-2.2221e-07
-1.61196e-07
-1.49657e-07
-2.68399e-07
-1.93966e-07
-3.22351e-07
-3.29024e-07
-2.89505e-07
-2.49828e-07
-2.54912e-07
-1.53027e-07
-1.67423e-07
-2.285e-07
-1.56582e-07
-2.12262e-07
-3.02856e-07
-2.67557e-07
-2.90193e-07
-2.68367e-07
-2.02538e-07
-1.8206e-07
-1.93267e-07
-1.14596e-07
-2.59878e-07
-1.73725e-07
-2.6249e-07
-2.8419e-07
-2.2787e-07
-2.22553e-07
-1.52331e-07
-1.7679e-07
-9.40613e-08
-2.31224e-07
-1.61879e-07
-1.86617e-07
-2.58495e-07
-1.73438e-07
-1.62194e-07
-1.12017e-07
-1.1974e-07
-8.6342e-08
-1.41506e-07
-1.43183e-07
-1.86159e-07
-1.54178e-07
1.04396e-06
8.32102e-07
7.58701e-07
6.26672e-07
5.67698e-07
4.33293e-07
3.3246e-07
2.85036e-07
2.03302e-07
2.05198e-07
9.20752e-07
7.26626e-07
5.57245e-07
5.21566e-07
3.23143e-07
3.08238e-07
2.02894e-07
1.59114e-07
1.19958e-07
1.25056e-07
8.32834e-07
6.23023e-07
4.68702e-07
3.77507e-07
2.91423e-07
2.00677e-07
1.51663e-07
1.06597e-07
9.06574e-08
8.84785e-08
7.14949e-07
4.76343e-07
4.22117e-07
2.93485e-07
2.03133e-07
1.40361e-07
9.64825e-08
7.92481e-08
3.14315e-08
6.96203e-08
6.71497e-07
4.43689e-07
3.07895e-07
2.32079e-07
1.43168e-07
1.06844e-07
5.9873e-08
2.44649e-08
4.12354e-08
3.67548e-08
5.7681e-07
3.57514e-07
2.90264e-07
1.64625e-07
1.34877e-07
4.99342e-08
4.38449e-08
3.48993e-08
-1.84115e-08
4.39591e-08
5.91016e-07
3.26608e-07
1.96976e-07
1.82426e-07
5.70814e-08
7.9471e-08
2.26744e-08
-1.32888e-08
3.31265e-08
1.63574e-08
4.27001e-07
2.80076e-07
1.83566e-07
9.32029e-08
8.66191e-08
3.06466e-08
6.53979e-09
4.21698e-08
-4.06988e-08
3.76324e-08
4.76743e-07
1.60768e-07
1.72078e-07
7.22427e-08
7.18918e-08
2.33615e-08
4.64358e-08
-2.8572e-08
1.56526e-08
1.63431e-09
1.90952e-07
1.02003e-07
3.53757e-08
3.59435e-08
-4.10112e-09
7.26841e-09
-2.00684e-08
-3.81878e-10
-2.98129e-08
1.49546e-08
-1.17066e-06
-9.38703e-07
-8.0857e-07
-7.32012e-07
-5.84666e-07
-4.34229e-07
-3.33112e-07
-2.52417e-07
-1.85301e-07
-1.15167e-07
-1.07273e-06
-7.29755e-07
-6.54087e-07
-5.24861e-07
-3.8269e-07
-3.31401e-07
-2.07646e-07
-1.54008e-07
-1.93587e-07
-8.36084e-08
-9.65322e-07
-6.48957e-07
-4.62948e-07
-4.10713e-07
-3.20154e-07
-1.93936e-07
-1.87292e-07
-1.6083e-07
-9.19895e-08
-9.28172e-08
-7.66369e-07
-4.40512e-07
-4.29319e-07
-2.9847e-07
-2.04854e-07
-1.85427e-07
-1.13708e-07
-8.15009e-08
-1.41042e-07
-6.43726e-08
-6.95107e-07
-4.18167e-07
-2.70076e-07
-2.22259e-07
-1.62024e-07
-8.54058e-08
-9.41008e-08
-1.05442e-07
-5.55557e-08
-7.33304e-08
-5.64767e-07
-2.85975e-07
-2.5616e-07
-1.60992e-07
-1.02068e-07
-9.64839e-08
-6.30847e-08
-4.10569e-08
-9.68467e-08
-3.88113e-08
-5.64904e-07
-2.7404e-07
-1.82516e-07
-1.44701e-07
-1.08025e-07
-6.06671e-08
-5.74356e-08
-7.57103e-08
-2.78115e-08
-4.42736e-08
-4.19328e-07
-2.45112e-07
-1.65593e-07
-1.30675e-07
-8.18186e-08
-7.01238e-08
-5.54472e-08
-2.12344e-08
-7.4609e-08
-2.30858e-08
-4.5458e-07
-1.56139e-07
-1.5566e-07
-7.99875e-08
-6.46568e-08
-3.69845e-08
-2.22512e-08
-5.97219e-08
-3.5198e-08
-3.84708e-08
-3.07367e-07
-1.0462e-07
-5.70593e-08
-3.07608e-08
-7.46863e-09
-6.1757e-10
-1.88355e-08
-2.89204e-08
-5.99994e-08
-3.50335e-08
1.06059e-06
9.7013e-07
8.95595e-07
7.96303e-07
6.78301e-07
5.29624e-07
4.44748e-07
3.57839e-07
3.11509e-07
3.02295e-07
7.24008e-07
7.10167e-07
6.66756e-07
5.73256e-07
4.27335e-07
3.72561e-07
2.68996e-07
2.46229e-07
2.21565e-07
2.18787e-07
5.83801e-07
6.09899e-07
5.10684e-07
4.53768e-07
3.61609e-07
2.62631e-07
2.24273e-07
1.8982e-07
1.85165e-07
1.98925e-07
4.1158e-07
4.33352e-07
4.5189e-07
3.54217e-07
2.65458e-07
2.08452e-07
1.5467e-07
1.51328e-07
1.49911e-07
1.76339e-07
3.29271e-07
3.92459e-07
3.30973e-07
2.83297e-07
2.07342e-07
1.51972e-07
1.27581e-07
1.15666e-07
1.30747e-07
1.60454e-07
2.60592e-07
2.89545e-07
3.02638e-07
2.34839e-07
1.77917e-07
1.31048e-07
1.01495e-07
1.02842e-07
1.14593e-07
1.5551e-07
1.97319e-07
2.88086e-07
2.3929e-07
2.19307e-07
1.55145e-07
1.23844e-07
8.87511e-08
9.86477e-08
1.18218e-07
1.44439e-07
1.95606e-07
2.10318e-07
2.33979e-07
1.72418e-07
1.51246e-07
9.63822e-08
1.01353e-07
9.00185e-08
1.10528e-07
1.42602e-07
1.28884e-07
2.18542e-07
1.665e-07
1.59598e-07
1.09119e-07
1.18201e-07
7.5702e-08
1.0675e-07
1.02103e-07
1.19543e-07
6.5367e-08
1.23375e-07
1.09148e-07
8.71902e-08
8.36233e-08
6.70731e-08
7.74587e-08
8.29367e-08
7.573e-08
1.00941e-07
-8.36218e-07
-6.91822e-07
-6.13018e-07
-5.48306e-07
-4.59666e-07
-3.54082e-07
-2.68276e-07
-2.24578e-07
-1.6752e-07
-9.47032e-08
-7.95524e-07
-6.03636e-07
-5.13074e-07
-4.47159e-07
-3.06152e-07
-2.89816e-07
-1.91659e-07
-1.45869e-07
-1.61023e-07
-7.4701e-08
-7.16916e-07
-5.29934e-07
-3.88136e-07
-3.42274e-07
-2.73534e-07
-1.77203e-07
-1.66974e-07
-1.35413e-07
-8.88858e-08
-6.7294e-08
-5.62672e-07
-3.64864e-07
-3.62476e-07
-2.55356e-07
-1.78841e-07
-1.57398e-07
-1.05555e-07
-8.24303e-08
-9.82921e-08
-4.85639e-08
-4.94101e-07
-3.45596e-07
-2.31829e-07
-1.90799e-07
-1.35562e-07
-8.51524e-08
-8.18463e-08
-7.79451e-08
-5.63471e-08
-4.2151e-08
-3.86357e-07
-2.34137e-07
-2.15687e-07
-1.28986e-07
-9.52599e-08
-6.63894e-08
-5.98306e-08
-4.95727e-08
-5.14834e-08
-3.06427e-08
-3.7283e-07
-2.14274e-07
-1.31226e-07
-1.2177e-07
-5.88914e-08
-5.99712e-08
-4.70842e-08
-3.5096e-08
-4.42447e-08
-1.65301e-08
-2.35982e-07
-1.71493e-07
-1.17923e-07
-7.18214e-08
-5.97959e-08
-4.45489e-08
-2.3955e-08
-5.2177e-08
-2.13431e-08
-2.54335e-08
-2.72805e-07
-8.84026e-08
-1.00264e-07
-3.76614e-08
-4.68936e-08
-1.18289e-08
-4.99804e-08
-1.41923e-08
-4.87155e-08
-1.14394e-08
-1.6935e-07
-6.78219e-08
-2.68039e-08
-2.41226e-08
-2.67709e-09
-2.17673e-08
-2.02906e-08
-5.02251e-08
-5.55732e-08
-3.09082e-08
8.39032e-07
7.56928e-07
7.19555e-07
6.82018e-07
5.82842e-07
4.58051e-07
3.90167e-07
3.06632e-07
2.5976e-07