/*--------------------------------*- C++ -*----------------------------------*\
| =========                 |                                                 |
| \\      /  F ield         | OpenFOAM: The Open Source CFD Toolbox           |
|  \\    /   O peration     | Version:  2406                                  |
|   \\  /    A nd           | Website:  www.openfoam.com                      |
|    \\/     M anipulation  |                                                 |
\*---------------------------------------------------------------------------*/
FoamFile
{
    version     2.0;
    format      ascii;
    arch        "LSB;label=32;scalar=64";
    class       volScalarField;
    location    "2";
    object      magR;
}
// * * * * * * * * * * * * * * * * * * * * * * * * * * * * * * * * * * * * * //

dimensions      [0 2 -2 0 0 0 0];

internalField   uniform 0;

boundaryField
{
    walls
    {
        type            calculated;
        value           nonuniform List<scalar> 
2000
(
5.84367e-07
8.28589e-07
1.09509e-06
1.31565e-06
1.44047e-06
1.44047e-06
1.31565e-06
1.09509e-06
8.28589e-07
5.84368e-07
2.35124e-07
3.22818e-07
4.26153e-07
5.15487e-07
5.67298e-07
5.67298e-07
5.15487e-07
4.26153e-07
3.22818e-07
2.35124e-07
8.23358e-08
1.10261e-07
1.44695e-07
1.75724e-07
1.94052e-07
1.94052e-07
1.75724e-07
1.44695e-07
1.10261e-07
8.23358e-08
1.07665e-07
1.4522e-07
1.90604e-07
2.30858e-07
2.54462e-07
2.54462e-07
2.30858e-07
1.90604e-07
1.4522e-07
1.07665e-07
8.39472e-08
1.12613e-07
1.47885e-07
1.79516e-07
1.98184e-07
1.98184e-07
1.79516e-07
1.47885e-07
1.12613e-07
8.39472e-08
9.09275e-08
1.22294e-07
1.6067e-07
1.94963e-07
2.15167e-07
2.15167e-07
1.94963e-07
1.6067e-07
1.22294e-07
9.09274e-08
8.5084e-08
1.14263e-07
1.50136e-07
1.82291e-07
2.01269e-07
2.01269e-07
1.82291e-07
1.50135e-07
1.14262e-07
8.5084e-08
8.69431e-08
1.16838e-07
1.53531e-07
1.86387e-07
2.05769e-07
2.05769e-07
1.86387e-07
1.53531e-07
1.16838e-07
8.6943e-08
8.54474e-08
1.14781e-07
1.50831e-07
1.83136e-07
2.02202e-07
2.02202e-07
1.83136e-07
1.50831e-07
1.14781e-07
8.54472e-08
8.59396e-08
1.15463e-07
1.51729e-07
1.8422e-07
2.03391e-07
2.03391e-07
1.84219e-07
1.51729e-07
1.15462e-07
8.59393e-08
8.55515e-08
1.14929e-07
1.51028e-07
1.83376e-07
2.02465e-07
2.02465e-07
1.83375e-07
1.51028e-07
1.14929e-07
8.55509e-08
8.56814e-08
1.15109e-07
1.51265e-07
1.83662e-07
2.02779e-07
2.02779e-07
1.83661e-07
1.51265e-07
1.15108e-07
8.56806e-08
8.55804e-08
1.1497e-07
1.51083e-07
1.83442e-07
2.02538e-07
2.02538e-07
1.83441e-07
1.51082e-07
1.14969e-07
8.55792e-08
8.56149e-08
1.15018e-07
1.51146e-07
1.83518e-07
2.02621e-07
2.0262e-07
1.83517e-07
1.51144e-07
1.15016e-07
8.56134e-08
8.55889e-08
1.14982e-07
1.51098e-07
1.83461e-07
2.02558e-07
2.02558e-07
1.83459e-07
1.51097e-07
1.1498e-07
8.55869e-08
8.55982e-08
1.14995e-07
1.51115e-07
1.83481e-07
2.0258e-07
2.0258e-07
1.83479e-07
1.51113e-07
1.14993e-07
8.55959e-08
8.55915e-08
1.14986e-07
1.51103e-07
1.83466e-07
2.02564e-07
2.02564e-07
1.83465e-07
1.51101e-07
1.14983e-07
8.5589e-08
8.55938e-08
1.14989e-07
1.51107e-07
1.83471e-07
2.0257e-07
2.02569e-07
1.8347e-07
1.51105e-07
1.14986e-07
8.55913e-08
8.55916e-08
1.14986e-07
1.51104e-07
1.83467e-07
2.02565e-07
2.02565e-07
1.83466e-07
1.51102e-07
1.14984e-07
8.55894e-08
8.55916e-08
1.14986e-07
1.51104e-07
1.83468e-07
2.02566e-07
2.02566e-07
1.83466e-07
1.51102e-07
1.14984e-07
8.55899e-08
8.55904e-08
1.14985e-07
1.51102e-07
1.83466e-07
2.02564e-07
2.02564e-07
1.83465e-07
1.51101e-07
1.14983e-07
8.55892e-08
8.55897e-08
1.14984e-07
1.51101e-07
1.83465e-07
2.02563e-07
2.02563e-07
1.83464e-07
1.51101e-07
1.14983e-07
8.55892e-08
8.55886e-08
1.14982e-07
1.511e-07
1.83463e-07
2.02562e-07
2.02562e-07
1.83463e-07
1.511e-07
1.14983e-07
8.5589e-08
8.55878e-08
1.14981e-07
1.51099e-07
1.83462e-07
2.02561e-07
2.02561e-07
1.83463e-07
1.511e-07
1.14983e-07
8.55889e-08
8.55871e-08
1.1498e-07
1.51098e-07
1.83461e-07
2.02559e-07
2.0256e-07
1.83462e-07
1.51099e-07
1.14982e-07
8.55888e-08
8.55865e-08
1.1498e-07
1.51097e-07
1.8346e-07
2.02559e-07
2.02559e-07
1.83461e-07
1.51099e-07
1.14982e-07
8.55887e-08
8.55859e-08
1.14979e-07
1.51096e-07
1.83459e-07
2.02558e-07
2.02558e-07
1.83461e-07
1.51098e-07
1.14982e-07
8.55885e-08
8.55855e-08
1.14979e-07
1.51095e-07
1.83458e-07
2.02557e-07
2.02558e-07
1.8346e-07
1.51098e-07
1.14982e-07
8.55884e-08
8.55852e-08
1.14978e-07
1.51095e-07
1.83458e-07
2.02557e-07
2.02557e-07
1.8346e-07
1.51098e-07
1.14981e-07
8.55882e-08
8.55852e-08
1.14978e-07
1.51095e-07
1.83458e-07
2.02556e-07
2.02557e-07
1.8346e-07
1.51098e-07
1.14981e-07
8.55882e-08
8.55853e-08
1.14978e-07
1.51095e-07
1.83458e-07
2.02556e-07
2.02557e-07
1.8346e-07
1.51098e-07
1.14981e-07
8.55883e-08
8.5586e-08
1.14979e-07
1.51096e-07
1.83459e-07
2.02557e-07
2.02558e-07
1.8346e-07
1.51098e-07
1.14982e-07
8.55886e-08
8.55871e-08
1.1498e-07
1.51097e-07
1.8346e-07
2.02558e-07
2.02559e-07
1.83461e-07
1.51099e-07
1.14982e-07
8.55889e-08
8.55887e-08
1.14982e-07
1.51099e-07
1.83462e-07
2.02561e-07
2.02561e-07
1.83463e-07
1.511e-07
1.14983e-07
8.55892e-08
8.55909e-08
1.14985e-07
1.51102e-07
1.83465e-07
2.02563e-07
2.02563e-07
1.83464e-07
1.51101e-07
1.14983e-07
8.55895e-08
8.55932e-08
1.14988e-07
1.51105e-07
1.83468e-07
2.02566e-07
2.02565e-07
1.83466e-07
1.51102e-07
1.14984e-07
8.55897e-08
8.55953e-08
1.1499e-07
1.51108e-07
1.83471e-07
2.02569e-07
2.02568e-07
1.83468e-07
1.51103e-07
1.14984e-07
8.55897e-08
8.55967e-08
1.14992e-07
1.5111e-07
1.83473e-07
2.02571e-07
2.02569e-07
1.83469e-07
1.51104e-07
1.14985e-07
8.55896e-08
8.5597e-08
1.14992e-07
1.51111e-07
1.83474e-07
2.02572e-07
2.0257e-07
1.83469e-07
1.51104e-07
1.14985e-07
8.55895e-08
8.55962e-08
1.14991e-07
1.5111e-07
1.83474e-07
2.02571e-07
2.0257e-07
1.83469e-07
1.51104e-07
1.14984e-07
8.55893e-08
8.55946e-08
1.1499e-07
1.51108e-07
1.83472e-07
2.0257e-07
2.02568e-07
1.83468e-07
1.51103e-07
1.14984e-07
8.55892e-08
8.55927e-08
1.14987e-07
1.51106e-07
1.8347e-07
2.02568e-07
2.02567e-07
1.83467e-07
1.51102e-07
1.14984e-07
8.55893e-08
8.55917e-08
1.14986e-07
1.51104e-07
1.83468e-07
2.02566e-07
2.02566e-07
1.83466e-07
1.51102e-07
1.14984e-07
8.55898e-08
8.55929e-08
1.14987e-07
1.51106e-07
1.83469e-07
2.02567e-07
2.02567e-07
1.83468e-07
1.51103e-07
1.14985e-07
8.55909e-08
8.55974e-08
1.14993e-07
1.51111e-07
1.83474e-07
2.02572e-07
2.02571e-07
1.83471e-07
1.51107e-07
1.14988e-07
8.55928e-08
8.5607e-08
1.15004e-07
1.51123e-07
1.83487e-07
2.02584e-07
2.02582e-07
1.8348e-07
1.51113e-07
1.14993e-07
8.55961e-08
8.56213e-08
1.15021e-07
1.51142e-07
1.83505e-07
2.02601e-07
2.02597e-07
1.83492e-07
1.51122e-07
1.14999e-07
8.56002e-08
8.56453e-08
1.15049e-07
1.51175e-07
1.8354e-07
2.02635e-07
2.02627e-07
1.83517e-07
1.51141e-07
1.15013e-07
8.5609e-08
8.5665e-08
1.15072e-07
1.51199e-07
1.83564e-07
2.02657e-07
2.02645e-07
1.83532e-07
1.51153e-07
1.15021e-07
8.56145e-08
8.57164e-08
1.15137e-07
1.51276e-07
1.8365e-07
2.02744e-07
2.02726e-07
1.83601e-07
1.51207e-07
1.15059e-07
8.56413e-08
5.84368e-07
8.28589e-07
1.09509e-06
1.31565e-06
1.44047e-06
1.44047e-06
1.31565e-06
1.09509e-06
8.28589e-07
5.84368e-07
2.35124e-07
3.22818e-07
4.26153e-07
5.15487e-07
5.67298e-07
5.67298e-07
5.15487e-07
4.26153e-07
3.22818e-07
2.35124e-07
8.23358e-08
1.10261e-07
1.44695e-07
1.75724e-07
1.94052e-07
1.94052e-07
1.75724e-07
1.44695e-07
1.10261e-07
8.23358e-08
1.07665e-07
1.4522e-07
1.90604e-07
2.30858e-07
2.54462e-07
2.54462e-07
2.30858e-07
1.90604e-07
1.4522e-07
1.07665e-07
8.39471e-08
1.12613e-07
1.47885e-07
1.79516e-07
1.98184e-07
1.98184e-07
1.79516e-07
1.47885e-07
1.12613e-07
8.39472e-08
9.09274e-08
1.22294e-07
1.6067e-07
1.94963e-07
2.15167e-07
2.15167e-07
1.94963e-07
1.6067e-07
1.22294e-07
9.09275e-08
8.50839e-08
1.14262e-07
1.50135e-07
1.82291e-07
2.01269e-07
2.01269e-07
1.82291e-07
1.50136e-07
1.14263e-07
8.5084e-08
8.69428e-08
1.16837e-07
1.5353e-07
1.86387e-07
2.05769e-07
2.05769e-07
1.86387e-07
1.53531e-07
1.16838e-07
8.69431e-08
8.54469e-08
1.14781e-07
1.5083e-07
1.83136e-07
2.02201e-07
2.02201e-07
1.83136e-07
1.50831e-07
1.14781e-07
8.54474e-08
8.59389e-08
1.15462e-07
1.51728e-07
1.84219e-07
2.03391e-07
2.03391e-07
1.84219e-07
1.51729e-07
1.15463e-07
8.59396e-08
8.55503e-08
1.14928e-07
1.51027e-07
1.83375e-07
2.02464e-07
2.02465e-07
1.83376e-07
1.51028e-07
1.14929e-07
8.55514e-08
8.56798e-08
1.15107e-07
1.51264e-07
1.8366e-07
2.02778e-07
2.02778e-07
1.83661e-07
1.51265e-07
1.15109e-07
8.56814e-08
8.55781e-08
1.14968e-07
1.5108e-07
1.8344e-07
2.02536e-07
2.02537e-07
1.83441e-07
1.51082e-07
1.1497e-07
8.55804e-08
8.5612e-08
1.15015e-07
1.51143e-07
1.83515e-07
2.02619e-07
2.0262e-07
1.83517e-07
1.51145e-07
1.15018e-07
8.56149e-08
8.55853e-08
1.14978e-07
1.51095e-07
1.83457e-07
2.02556e-07
2.02557e-07
1.83459e-07
1.51098e-07
1.14982e-07
8.55888e-08
8.55941e-08
1.1499e-07
1.51111e-07
1.83477e-07
2.02578e-07
2.02579e-07
1.8348e-07
1.51115e-07
1.14994e-07
8.55981e-08
8.5587e-08
1.14981e-07
1.51098e-07
1.83462e-07
2.02561e-07
2.02562e-07
1.83465e-07
1.51102e-07
1.14985e-07
8.55913e-08
8.55894e-08
1.14984e-07
1.51103e-07
1.83467e-07
2.02567e-07
2.02568e-07
1.8347e-07
1.51107e-07
1.14988e-07
8.55936e-08
8.55876e-08
1.14981e-07
1.51099e-07
1.83463e-07
2.02562e-07
2.02563e-07
1.83466e-07
1.51103e-07
1.14985e-07
8.55915e-08
8.55883e-08
1.14982e-07
1.511e-07
1.83464e-07
2.02564e-07
2.02564e-07
1.83466e-07
1.51103e-07
1.14986e-07
8.55915e-08
8.5588e-08
1.14982e-07
1.51099e-07
1.83463e-07
2.02562e-07
2.02563e-07
1.83465e-07
1.51102e-07
1.14984e-07
8.55903e-08
8.55883e-08
1.14982e-07
1.511e-07
1.83463e-07
2.02562e-07
2.02562e-07
1.83464e-07
1.51101e-07
1.14983e-07
8.55896e-08
8.55883e-08
1.14982e-07
1.51099e-07
1.83462e-07
2.02561e-07
2.02561e-07
1.83463e-07
1.511e-07
1.14982e-07
8.55886e-08
8.55884e-08
1.14982e-07
1.51099e-07
1.83462e-07
2.0256e-07
2.0256e-07
1.83462e-07
1.51099e-07
1.14981e-07
8.55878e-08
8.55885e-08
1.14982e-07
1.51099e-07
1.83461e-07
2.02559e-07
2.02559e-07
1.83461e-07
1.51097e-07
1.1498e-07
8.55871e-08
8.55886e-08
1.14982e-07
1.51099e-07
1.83461e-07
2.02559e-07
2.02558e-07
1.8346e-07
1.51097e-07
1.1498e-07
8.55865e-08
8.55886e-08
1.14982e-07
1.51099e-07
1.83461e-07
2.02558e-07
2.02558e-07
1.83459e-07
1.51096e-07
1.14979e-07
8.55859e-08
8.55887e-08
1.14982e-07
1.51098e-07
1.83461e-07
2.02558e-07
2.02557e-07
1.83459e-07
1.51096e-07
1.14979e-07
8.55856e-08
8.55887e-08
1.14982e-07
1.51098e-07
1.8346e-07
2.02558e-07
2.02557e-07
1.83458e-07
1.51095e-07
1.14978e-07
8.55853e-08
8.55886e-08
1.14982e-07
1.51098e-07
1.8346e-07
2.02558e-07
2.02557e-07
1.83458e-07
1.51095e-07
1.14978e-07
8.55852e-08
8.55885e-08
1.14982e-07
1.51098e-07
1.8346e-07
2.02558e-07
2.02557e-07
1.83458e-07
1.51095e-07
1.14978e-07
8.55854e-08
8.55883e-08
1.14981e-07
1.51098e-07
1.8346e-07
2.02558e-07
2.02557e-07
1.83459e-07
1.51096e-07
1.14979e-07
8.55859e-08
8.55881e-08
1.14981e-07
1.51098e-07
1.8346e-07
2.02558e-07
2.02558e-07
1.8346e-07
1.51097e-07
1.1498e-07
8.5587e-08
8.55879e-08
1.14981e-07
1.51098e-07
1.83461e-07
2.02559e-07
2.02559e-07
1.83461e-07
1.51099e-07
1.14982e-07
8.55886e-08
8.55878e-08
1.14981e-07
1.51099e-07
1.83462e-07
2.02561e-07
2.02562e-07
1.83464e-07
1.51101e-07
1.14984e-07
8.55907e-08
8.55879e-08
1.14982e-07
1.511e-07
1.83464e-07
2.02563e-07
2.02564e-07
1.83467e-07
1.51104e-07
1.14987e-07
8.5593e-08
8.55881e-08
1.14982e-07
1.51101e-07
1.83465e-07
2.02565e-07
2.02567e-07
1.8347e-07
1.51107e-07
1.1499e-07
8.55951e-08
8.55884e-08
1.14983e-07
1.51102e-07
1.83467e-07
2.02568e-07
2.0257e-07
1.83472e-07
1.51109e-07
1.14991e-07
8.55966e-08
8.55887e-08
1.14984e-07
1.51103e-07
1.83468e-07
2.02569e-07
2.02571e-07
1.83474e-07
1.5111e-07
1.14992e-07
8.5597e-08
8.55889e-08
1.14984e-07
1.51103e-07
1.83468e-07
2.02569e-07
2.02571e-07
1.83473e-07
1.5111e-07
1.14991e-07
8.55962e-08
8.55889e-08
1.14984e-07
1.51103e-07
1.83468e-07
2.02568e-07
2.0257e-07
1.83472e-07
1.51108e-07
1.1499e-07
8.55946e-08
8.55888e-08
1.14983e-07
1.51102e-07
1.83466e-07
2.02566e-07
2.02567e-07
1.83469e-07
1.51106e-07
1.14987e-07
8.55927e-08
8.55886e-08
1.14983e-07
1.51101e-07
1.83465e-07
2.02564e-07
2.02565e-07
1.83467e-07
1.51104e-07
1.14986e-07
8.55917e-08
8.55882e-08
1.14982e-07
1.511e-07
1.83464e-07
2.02564e-07
2.02565e-07
1.83468e-07
1.51105e-07
1.14987e-07
8.55927e-08
8.55877e-08
1.14982e-07
1.511e-07
1.83465e-07
2.02566e-07
2.02568e-07
1.83471e-07
1.51109e-07
1.14992e-07
8.55971e-08
8.55863e-08
1.14981e-07
1.51101e-07
1.83468e-07
2.02571e-07
2.02576e-07
1.83481e-07
1.5112e-07
1.15002e-07
8.56065e-08
8.55844e-08
1.14981e-07
1.51103e-07
1.83473e-07
2.0258e-07
2.02588e-07
1.83496e-07
1.51136e-07
1.15018e-07
8.56205e-08
8.55778e-08
1.14977e-07
1.51103e-07
1.83479e-07
2.02594e-07
2.02609e-07
1.83522e-07
1.51164e-07
1.15044e-07
8.56438e-08
8.55737e-08
1.14975e-07
1.51105e-07
1.83486e-07
2.02606e-07
2.02627e-07
1.83543e-07
1.51186e-07
1.15066e-07
8.56629e-08
8.5549e-08
1.14954e-07
1.51093e-07
1.8349e-07
2.02628e-07
2.02666e-07
1.83594e-07
1.51242e-07
1.15119e-07
8.57105e-08
5.84368e-07
8.28589e-07
1.09509e-06
1.31565e-06
1.44047e-06
1.44047e-06
1.31565e-06
1.09509e-06
8.28589e-07
5.84368e-07
2.35124e-07
3.22818e-07
4.26153e-07
5.15487e-07
5.67298e-07
5.67298e-07
5.15487e-07
4.26153e-07
3.22818e-07
2.35124e-07
8.23358e-08
1.10261e-07
1.44695e-07
1.75724e-07
1.94052e-07
1.94052e-07
1.75724e-07
1.44695e-07
1.10261e-07
8.23358e-08
1.07665e-07
1.4522e-07
1.90604e-07
2.30858e-07
2.54462e-07
2.54462e-07
2.30858e-07
1.90604e-07
1.4522e-07
1.07665e-07
8.39471e-08
1.12613e-07
1.47885e-07
1.79516e-07
1.98184e-07
1.98184e-07
1.79516e-07
1.47885e-07
1.12613e-07
8.39471e-08
9.09273e-08
1.22293e-07
1.6067e-07
1.94963e-07
2.15167e-07
2.15167e-07
1.94963e-07
1.6067e-07
1.22294e-07
9.09274e-08
8.50838e-08
1.14262e-07
1.50135e-07
1.8229e-07
2.01269e-07
2.01269e-07
1.82291e-07
1.50135e-07
1.14262e-07
8.50838e-08
8.69427e-08
1.16837e-07
1.5353e-07
1.86386e-07
2.05768e-07
2.05768e-07
1.86387e-07
1.5353e-07
1.16837e-07
8.69428e-08
8.54467e-08
1.1478e-07
1.5083e-07
1.83135e-07
2.02201e-07
2.02201e-07
1.83136e-07
1.5083e-07
1.14781e-07
8.54469e-08
8.59385e-08
1.15461e-07
1.51727e-07
1.84218e-07
2.03389e-07
2.0339e-07
1.84218e-07
1.51728e-07
1.15462e-07
8.59388e-08
8.55497e-08
1.14927e-07
1.51026e-07
1.83373e-07
2.02463e-07
2.02463e-07
1.83374e-07
1.51026e-07
1.14928e-07
8.55502e-08
8.56789e-08
1.15106e-07
1.51262e-07
1.83658e-07
2.02776e-07
2.02776e-07
1.83659e-07
1.51263e-07
1.15107e-07
8.56796e-08
8.55769e-08
1.14966e-07
1.51078e-07
1.83437e-07
2.02533e-07
2.02533e-07
1.83438e-07
1.51079e-07
1.14967e-07
8.5578e-08
8.56104e-08
1.15012e-07
1.51139e-07
1.83511e-07
2.02614e-07
2.02615e-07
1.83512e-07
1.51141e-07
1.15014e-07
8.56118e-08
8.55834e-08
1.14975e-07
1.51091e-07
1.83453e-07
2.0255e-07
2.02551e-07
1.83454e-07
1.51092e-07
1.14977e-07
8.5585e-08
8.55919e-08
1.14987e-07
1.51107e-07
1.83471e-07
2.02571e-07
2.02572e-07
1.83473e-07
1.51108e-07
1.14989e-07
8.55937e-08
8.55848e-08
1.14977e-07
1.51094e-07
1.83456e-07
2.02554e-07
2.02555e-07
1.83457e-07
1.51095e-07
1.14979e-07
8.55866e-08
8.55872e-08
1.14981e-07
1.51098e-07
1.83461e-07
2.0256e-07
2.0256e-07
1.83462e-07
1.51099e-07
1.14982e-07
8.55889e-08
8.55857e-08
1.14978e-07
1.51095e-07
1.83457e-07
2.02556e-07
2.02556e-07
1.83458e-07
1.51096e-07
1.1498e-07
8.55872e-08
8.55868e-08
1.1498e-07
1.51097e-07
1.83459e-07
2.02558e-07
2.02558e-07
1.8346e-07
1.51098e-07
1.14981e-07
8.5588e-08
8.55871e-08
1.1498e-07
1.51097e-07
1.83459e-07
2.02558e-07
2.02558e-07
1.8346e-07
1.51098e-07
1.14981e-07
8.55877e-08
8.5588e-08
1.14981e-07
1.51098e-07
1.83461e-07
2.02559e-07
2.02559e-07
1.83461e-07
1.51098e-07
1.14982e-07
8.55882e-08
8.55887e-08
1.14982e-07
1.51099e-07
1.83462e-07
2.0256e-07
2.0256e-07
1.83462e-07
1.51099e-07
1.14982e-07
8.55883e-08
8.55895e-08
1.14983e-07
1.511e-07
1.83463e-07
2.02561e-07
2.02561e-07
1.83463e-07
1.511e-07
1.14982e-07
8.55885e-08
8.55901e-08
1.14984e-07
1.51101e-07
1.83464e-07
2.02562e-07
2.02562e-07
1.83463e-07
1.511e-07
1.14982e-07
8.55887e-08
8.55908e-08
1.14985e-07
1.51102e-07
1.83465e-07
2.02563e-07
2.02563e-07
1.83464e-07
1.511e-07
1.14983e-07
8.55888e-08
8.55913e-08
1.14985e-07
1.51103e-07
1.83466e-07
2.02564e-07
2.02564e-07
1.83464e-07
1.51101e-07
1.14983e-07
8.55889e-08
8.55918e-08
1.14986e-07
1.51104e-07
1.83467e-07
2.02565e-07
2.02564e-07
1.83465e-07
1.51101e-07
1.14983e-07
8.5589e-08
8.55921e-08
1.14986e-07
1.51104e-07
1.83467e-07
2.02565e-07
2.02565e-07
1.83465e-07
1.51101e-07
1.14983e-07
8.55891e-08
8.55922e-08
1.14987e-07
1.51104e-07
1.83468e-07
2.02566e-07
2.02565e-07
1.83465e-07
1.51101e-07
1.14983e-07
8.55891e-08
8.55921e-08
1.14986e-07
1.51104e-07
1.83467e-07
2.02565e-07
2.02565e-07
1.83465e-07
1.51101e-07
1.14983e-07
8.55889e-08
8.55915e-08
1.14986e-07
1.51103e-07
1.83467e-07
2.02565e-07
2.02564e-07
1.83465e-07
1.51101e-07
1.14983e-07
8.55887e-08
8.55904e-08
1.14984e-07
1.51102e-07
1.83465e-07
2.02563e-07
2.02563e-07
1.83464e-07
1.511e-07
1.14982e-07
8.55883e-08
8.55887e-08
1.14982e-07
1.511e-07
1.83463e-07
2.02561e-07
2.02561e-07
1.83462e-07
1.51099e-07
1.14982e-07
8.5588e-08
8.55867e-08
1.1498e-07
1.51097e-07
1.8346e-07
2.02559e-07
2.02559e-07
1.83461e-07
1.51098e-07
1.14981e-07
8.55876e-08
8.55844e-08
1.14977e-07
1.51094e-07
1.83457e-07
2.02556e-07
2.02556e-07
1.83459e-07
1.51097e-07
1.1498e-07
8.55874e-08
8.55824e-08
1.14975e-07
1.51091e-07
1.83454e-07
2.02553e-07
2.02554e-07
1.83457e-07
1.51096e-07
1.1498e-07
8.55873e-08
8.5581e-08
1.14973e-07
1.51089e-07
1.83452e-07
2.02551e-07
2.02552e-07
1.83456e-07
1.51095e-07
1.1498e-07
8.55873e-08
8.55806e-08
1.14973e-07
1.51089e-07
1.83451e-07
2.0255e-07
2.02552e-07
1.83455e-07
1.51095e-07
1.1498e-07
8.55876e-08
8.55813e-08
1.14973e-07
1.51089e-07
1.83452e-07
2.0255e-07
2.02552e-07
1.83456e-07
1.51095e-07
1.1498e-07
8.55879e-08
8.55828e-08
1.14975e-07
1.51091e-07
1.83453e-07
2.02552e-07
2.02553e-07
1.83457e-07
1.51096e-07
1.14981e-07
8.55881e-08
8.55843e-08
1.14977e-07
1.51093e-07
1.83455e-07
2.02554e-07
2.02555e-07
1.83458e-07
1.51097e-07
1.14981e-07
8.55884e-08
8.55848e-08
1.14978e-07
1.51094e-07
1.83457e-07
2.02555e-07
2.02556e-07
1.83459e-07
1.51098e-07
1.14981e-07
8.55884e-08
8.5583e-08
1.14976e-07
1.51092e-07
1.83455e-07
2.02554e-07
2.02556e-07
1.83459e-07
1.51097e-07
1.14981e-07
8.5588e-08
8.55776e-08
1.1497e-07
1.51086e-07
1.83449e-07
2.02549e-07
2.02551e-07
1.83456e-07
1.51095e-07
1.14979e-07
8.5587e-08
8.55672e-08
1.14957e-07
1.51073e-07
1.83436e-07
2.02537e-07
2.02541e-07
1.83448e-07
1.51089e-07
1.14975e-07
8.55847e-08
8.55524e-08
1.1494e-07
1.51054e-07
1.83417e-07
2.0252e-07
2.02526e-07
1.83436e-07
1.51081e-07
1.1497e-07
8.55811e-08
8.5529e-08
1.14912e-07
1.51021e-07
1.83383e-07
2.02486e-07
2.02496e-07
1.8341e-07
1.51061e-07
1.14956e-07
8.55717e-08
8.55107e-08
1.14891e-07
1.50999e-07
1.8336e-07
2.02464e-07
2.02477e-07
1.83394e-07
1.51048e-07
1.14946e-07
8.55649e-08
8.54639e-08
1.1483e-07
1.50924e-07
1.83276e-07
2.02377e-07
2.02393e-07
1.83321e-07
1.50989e-07
1.14902e-07
8.55329e-08
5.84368e-07
8.28589e-07
1.09509e-06
1.31565e-06
1.44047e-06
1.44047e-06
1.31565e-06
1.09509e-06
8.28589e-07
5.84368e-07
2.35124e-07
3.22818e-07
4.26153e-07
5.15487e-07
5.67298e-07
5.67298e-07
5.15487e-07
4.26153e-07
3.22818e-07
2.35124e-07
8.23358e-08
1.10261e-07
1.44695e-07
1.75724e-07
1.94052e-07
1.94052e-07
1.75724e-07
1.44695e-07
1.10261e-07
8.23357e-08
1.07665e-07
1.4522e-07
1.90604e-07
2.30858e-07
2.54462e-07
2.54462e-07
2.30858e-07
1.90604e-07
1.4522e-07
1.07665e-07
8.39472e-08
1.12613e-07
1.47885e-07
1.79516e-07
1.98184e-07
1.98184e-07
1.79516e-07
1.47885e-07
1.12613e-07
8.39471e-08
9.09274e-08
1.22294e-07
1.6067e-07
1.94963e-07
2.15167e-07
2.15167e-07
1.94963e-07
1.6067e-07
1.22294e-07
9.09273e-08
8.50839e-08
1.14262e-07
1.50135e-07
1.82291e-07
2.01269e-07
2.01269e-07
1.82291e-07
1.50135e-07
1.14262e-07
8.50838e-08
8.6943e-08
1.16838e-07
1.5353e-07
1.86387e-07
2.05768e-07
2.05768e-07
1.86387e-07
1.5353e-07
1.16837e-07
8.69427e-08
8.54472e-08
1.14781e-07
1.5083e-07
1.83136e-07
2.02201e-07
2.02201e-07
1.83136e-07
1.5083e-07
1.14781e-07
8.54467e-08
8.59392e-08
1.15462e-07
1.51728e-07
1.84219e-07
2.0339e-07
2.0339e-07
1.84218e-07
1.51728e-07
1.15462e-07
8.59385e-08
8.55508e-08
1.14928e-07
1.51027e-07
1.83374e-07
2.02464e-07
2.02463e-07
1.83374e-07
1.51026e-07
1.14927e-07
8.55497e-08
8.56805e-08
1.15108e-07
1.51264e-07
1.8366e-07
2.02777e-07
2.02776e-07
1.83659e-07
1.51262e-07
1.15106e-07
8.56789e-08
8.5579e-08
1.14968e-07
1.5108e-07
1.83439e-07
2.02534e-07
2.02534e-07
1.83438e-07
1.51079e-07
1.14966e-07
8.5577e-08
8.56131e-08
1.15015e-07
1.51142e-07
1.83514e-07
2.02616e-07
2.02616e-07
1.83512e-07
1.5114e-07
1.15013e-07
8.56105e-08
8.55866e-08
1.14979e-07
1.51094e-07
1.83456e-07
2.02553e-07
2.02552e-07
1.83454e-07
1.51092e-07
1.14976e-07
8.55835e-08
8.55956e-08
1.14991e-07
1.51111e-07
1.83475e-07
2.02574e-07
2.02573e-07
1.83473e-07
1.51107e-07
1.14988e-07
8.5592e-08
8.55886e-08
1.14982e-07
1.51098e-07
1.8346e-07
2.02557e-07
2.02556e-07
1.83457e-07
1.51095e-07
1.14978e-07
8.55849e-08
8.55909e-08
1.14985e-07
1.51102e-07
1.83465e-07
2.02563e-07
2.02562e-07
1.83463e-07
1.51099e-07
1.14981e-07
8.55873e-08
8.55891e-08
1.14982e-07
1.51099e-07
1.83461e-07
2.02558e-07
2.02558e-07
1.83459e-07
1.51096e-07
1.14979e-07
8.55858e-08
8.55896e-08
1.14983e-07
1.511e-07
1.83463e-07
2.0256e-07
2.0256e-07
1.83461e-07
1.51098e-07
1.1498e-07
8.5587e-08
8.5589e-08
1.14982e-07
1.51099e-07
1.83462e-07
2.0256e-07
2.02559e-07
1.83461e-07
1.51098e-07
1.14981e-07
8.55872e-08
8.55891e-08
1.14983e-07
1.511e-07
1.83463e-07
2.02561e-07
2.0256e-07
1.83462e-07
1.51099e-07
1.14982e-07
8.55881e-08
8.5589e-08
1.14983e-07
1.511e-07
1.83463e-07
2.02561e-07
2.02561e-07
1.83463e-07
1.511e-07
1.14982e-07
8.55888e-08
8.5589e-08
1.14983e-07
1.511e-07
1.83463e-07
2.02562e-07
2.02562e-07
1.83464e-07
1.51101e-07
1.14983e-07
8.55895e-08
8.5589e-08
1.14983e-07
1.511e-07
1.83464e-07
2.02562e-07
2.02563e-07
1.83465e-07
1.51101e-07
1.14984e-07
8.55902e-08
8.55889e-08
1.14983e-07
1.51101e-07
1.83464e-07
2.02563e-07
2.02564e-07
1.83465e-07
1.51102e-07
1.14985e-07
8.55908e-08
8.55888e-08
1.14983e-07
1.51101e-07
1.83464e-07
2.02564e-07
2.02564e-07
1.83466e-07
1.51103e-07
1.14985e-07
8.55913e-08
8.55887e-08
1.14983e-07
1.51101e-07
1.83465e-07
2.02564e-07
2.02565e-07
1.83467e-07
1.51104e-07
1.14986e-07
8.55917e-08
8.55886e-08
1.14983e-07
1.51101e-07
1.83465e-07
2.02564e-07
2.02565e-07
1.83467e-07
1.51104e-07
1.14986e-07
8.55921e-08
8.55887e-08
1.14983e-07
1.51101e-07
1.83465e-07
2.02564e-07
2.02565e-07
1.83467e-07
1.51104e-07
1.14986e-07
8.55922e-08
8.55888e-08
1.14983e-07
1.51101e-07
1.83465e-07
2.02564e-07
2.02565e-07
1.83467e-07
1.51104e-07
1.14986e-07
8.55921e-08
8.5589e-08
1.14983e-07
1.51101e-07
1.83465e-07
2.02564e-07
2.02565e-07
1.83467e-07
1.51103e-07
1.14986e-07
8.55915e-08
8.55892e-08
1.14983e-07
1.51101e-07
1.83465e-07
2.02564e-07
2.02564e-07
1.83466e-07
1.51102e-07
1.14985e-07
8.55904e-08
8.55893e-08
1.14983e-07
1.51101e-07
1.83464e-07
2.02563e-07
2.02563e-07
1.83464e-07
1.511e-07
1.14983e-07
8.55888e-08
8.55894e-08
1.14983e-07
1.511e-07
1.83463e-07
2.02561e-07
2.0256e-07
1.83461e-07
1.51098e-07
1.1498e-07
8.55868e-08
8.55892e-08
1.14982e-07
1.51099e-07
1.83461e-07
2.02559e-07
2.02558e-07
1.83458e-07
1.51095e-07
1.14978e-07
8.55845e-08
8.55889e-08
1.14982e-07
1.51098e-07
1.8346e-07
2.02556e-07
2.02555e-07
1.83456e-07
1.51092e-07
1.14975e-07
8.55825e-08
8.55886e-08
1.14981e-07
1.51097e-07
1.83458e-07
2.02554e-07
2.02553e-07
1.83453e-07
1.5109e-07
1.14974e-07
8.55811e-08
8.55884e-08
1.14981e-07
1.51096e-07
1.83457e-07
2.02553e-07
2.02551e-07
1.83452e-07
1.51089e-07
1.14973e-07
8.55807e-08
8.55883e-08
1.14981e-07
1.51096e-07
1.83457e-07
2.02553e-07
2.02551e-07
1.83452e-07
1.51089e-07
1.14973e-07
8.55813e-08
8.55884e-08
1.14981e-07
1.51097e-07
1.83457e-07
2.02554e-07
2.02552e-07
1.83454e-07
1.51091e-07
1.14975e-07
8.55828e-08
8.55888e-08
1.14982e-07
1.51098e-07
1.83459e-07
2.02556e-07
2.02554e-07
1.83456e-07
1.51093e-07
1.14977e-07
8.55843e-08
8.55895e-08
1.14983e-07
1.51099e-07
1.83461e-07
2.02558e-07
2.02556e-07
1.83457e-07
1.51094e-07
1.14978e-07
8.55849e-08
8.55907e-08
1.14984e-07
1.511e-07
1.83462e-07
2.02558e-07
2.02556e-07
1.83457e-07
1.51093e-07
1.14976e-07
8.55831e-08
8.55921e-08
1.14985e-07
1.51101e-07
1.83462e-07
2.02557e-07
2.02553e-07
1.83452e-07
1.51087e-07
1.1497e-07
8.55779e-08
8.55944e-08
1.14987e-07
1.51101e-07
1.83459e-07
2.02552e-07
2.02545e-07
1.83442e-07
1.51076e-07
1.14959e-07
8.55676e-08
8.55968e-08
1.14988e-07
1.511e-07
1.83455e-07
2.02543e-07
2.02532e-07
1.83426e-07
1.51059e-07
1.14943e-07
8.55531e-08
8.56029e-08
1.14992e-07
1.511e-07
1.83448e-07
2.02529e-07
2.02512e-07
1.83401e-07
1.51032e-07
1.14917e-07
8.55303e-08
8.5606e-08
1.14993e-07
1.51097e-07
1.83441e-07
2.02517e-07
2.02495e-07
1.8338e-07
1.51011e-07
1.14897e-07
8.55127e-08
8.56254e-08
1.15008e-07
1.51104e-07
1.83434e-07
2.02494e-07
2.02458e-07
1.83334e-07
1.5096e-07
1.14849e-07
8.547e-08
)
;
    }
    inlet
    {
        type            calculated;
        value           uniform 0;
    }
    outlet
    {
        type            calculated;
        value           uniform 0;
    }
}


// ************************************************************************* //
