/*--------------------------------*- C++ -*----------------------------------*\
| =========                 |                                                 |
| \\      /  F ield         | OpenFOAM: The Open Source CFD Toolbox           |
|  \\    /   O peration     | Version:  2406                                  |
|   \\  /    A nd           | Website:  www.openfoam.com                      |
|    \\/     M anipulation  |                                                 |
\*---------------------------------------------------------------------------*/
FoamFile
{
    version     2.0;
    format      ascii;
    arch        "LSB;label=32;scalar=64";
    class       volVectorField;
    location    "2";
    object      momentError;
}
// * * * * * * * * * * * * * * * * * * * * * * * * * * * * * * * * * * * * * //

dimensions      [0 1 -2 0 0 0 0];

internalField   nonuniform List<vector> 
25000
(
(-2.8395e-07 -2.77124e-07 -1.15343e-08)
(-1.85399e-07 -2.76472e-07 -9.23138e-08)
(-1.10331e-07 -2.64851e-07 -1.18904e-07)
(-5.10473e-08 -2.55379e-07 -1.32058e-07)
(-4.96398e-10 -2.50133e-07 -1.41926e-07)
(4.32736e-08 -2.50228e-07 -1.48947e-07)
(8.88558e-08 -2.50426e-07 -1.528e-07)
(1.44771e-07 -2.43707e-07 -1.50457e-07)
(2.24446e-07 -2.25346e-07 -1.35512e-07)
(3.07286e-07 -2.13493e-07 -5.68383e-08)
(-2.83718e-07 -1.66034e-07 -9.53722e-08)
(-1.95348e-07 -1.74794e-07 -1.86463e-07)
(-1.26084e-07 -1.71145e-07 -2.14173e-07)
(-6.85252e-08 -1.69669e-07 -2.27467e-07)
(-1.69926e-08 -1.70747e-07 -2.3803e-07)
(3.12699e-08 -1.74452e-07 -2.46964e-07)
(8.47113e-08 -1.76189e-07 -2.53115e-07)
(1.49804e-07 -1.74848e-07 -2.53064e-07)
(2.36673e-07 -1.68686e-07 -2.37988e-07)
(3.18115e-07 -1.52213e-07 -1.51418e-07)
(-2.76352e-07 -9.81249e-08 -1.32802e-07)
(-1.95025e-07 -1.11673e-07 -2.24657e-07)
(-1.31953e-07 -1.15094e-07 -2.53243e-07)
(-7.72685e-08 -1.18907e-07 -2.67313e-07)
(-2.52838e-08 -1.23236e-07 -2.77776e-07)
(2.50269e-08 -1.2724e-07 -2.86817e-07)
(8.235e-08 -1.30318e-07 -2.93611e-07)
(1.49499e-07 -1.30401e-07 -2.93091e-07)
(2.303e-07 -1.28327e-07 -2.75456e-07)
(3.06956e-07 -1.11077e-07 -1.88367e-07)
(-2.66772e-07 -5.60242e-08 -1.596e-07)
(-1.9411e-07 -6.82915e-08 -2.51188e-07)
(-1.36726e-07 -7.29229e-08 -2.80287e-07)
(-8.37015e-08 -7.76444e-08 -2.93564e-07)
(-3.1305e-08 -8.32752e-08 -3.02861e-07)
(2.07172e-08 -8.8157e-08 -3.11341e-07)
(8.01971e-08 -9.14288e-08 -3.1754e-07)
(1.4798e-07 -9.25855e-08 -3.16075e-07)
(2.25181e-07 -9.09256e-08 -2.96747e-07)
(2.97759e-07 -7.38546e-08 -2.08676e-07)
(-2.56495e-07 -1.98621e-08 -1.8097e-07)
(-1.92565e-07 -2.94003e-08 -2.73269e-07)
(-1.3979e-07 -3.26851e-08 -3.02068e-07)
(-8.9038e-08 -3.74757e-08 -3.14657e-07)
(-3.72615e-08 -4.31743e-08 -3.22513e-07)
(1.60175e-08 -4.80145e-08 -3.29527e-07)
(7.7148e-08 -5.15918e-08 -3.34972e-07)
(1.45487e-07 -5.30812e-08 -3.32675e-07)
(2.21037e-07 -5.19541e-08 -3.11804e-07)
(2.9183e-07 -3.82718e-08 -2.23016e-07)
(-2.49915e-07 1.54128e-08 -1.98135e-07)
(-1.91451e-07 7.86129e-09 -2.91654e-07)
(-1.43183e-07 5.91123e-09 -3.20785e-07)
(-9.41408e-08 2.60207e-09 -3.32761e-07)
(-4.20442e-08 -2.03723e-09 -3.39549e-07)
(1.18308e-08 -6.59288e-09 -3.4548e-07)
(7.42537e-08 -9.74576e-09 -3.49546e-07)
(1.43753e-07 -1.22999e-08 -3.45726e-07)
(2.19584e-07 -1.25916e-08 -3.23368e-07)
(2.92303e-07 -3.22914e-09 -2.32726e-07)
(-2.47743e-07 5.68463e-08 -2.10706e-07)
(-1.92298e-07 5.15569e-08 -3.0634e-07)
(-1.44782e-07 5.15443e-08 -3.35954e-07)
(-9.67941e-08 5.07097e-08 -3.48116e-07)
(-4.61597e-08 4.73495e-08 -3.54413e-07)
(8.22528e-09 4.36072e-08 -3.58998e-07)
(7.11897e-08 3.92435e-08 -3.61324e-07)
(1.4106e-07 3.45899e-08 -3.55685e-07)
(2.19859e-07 3.09159e-08 -3.31168e-07)
(2.97696e-07 3.37111e-08 -2.38183e-07)
(-2.45788e-07 1.12888e-07 -2.17087e-07)
(-1.90788e-07 1.10069e-07 -3.1452e-07)
(-1.43496e-07 1.10994e-07 -3.4398e-07)
(-9.71531e-08 1.11024e-07 -3.56042e-07)
(-4.79651e-08 1.08323e-07 -3.61767e-07)
(3.98493e-09 1.03645e-07 -3.64939e-07)
(6.53169e-08 9.75252e-08 -3.65379e-07)
(1.35706e-07 8.95825e-08 -3.57508e-07)
(2.17692e-07 8.18381e-08 -3.31876e-07)
(3.02684e-07 7.65155e-08 -2.36279e-07)
(-2.36616e-07 1.93929e-07 -2.09464e-07)
(-1.86077e-07 1.95538e-07 -3.07257e-07)
(-1.37544e-07 1.92806e-07 -3.35835e-07)
(-9.33784e-08 1.89431e-07 -3.47156e-07)
(-4.91036e-08 1.83726e-07 -3.51899e-07)
(-8.09427e-10 1.76505e-07 -3.5345e-07)
(5.7526e-08 1.68113e-07 -3.51252e-07)
(1.26368e-07 1.56895e-07 -3.42132e-07)
(2.12378e-07 1.4545e-07 -3.16251e-07)
(2.97103e-07 1.29987e-07 -2.19377e-07)
(-2.07337e-07 2.93547e-07 -1.40591e-07)
(-1.57504e-07 2.91144e-07 -2.29448e-07)
(-1.15594e-07 2.86077e-07 -2.58206e-07)
(-7.89378e-08 2.75938e-07 -2.69822e-07)
(-4.2064e-08 2.6528e-07 -2.73935e-07)
(-1.87115e-09 2.54838e-07 -2.73359e-07)
(4.77612e-08 2.43237e-07 -2.68371e-07)
(1.09797e-07 2.26059e-07 -2.56226e-07)
(1.88111e-07 2.03661e-07 -2.29025e-07)
(2.76612e-07 1.7645e-07 -1.39133e-07)
(-3.40975e-07 -3.31617e-07 -7.35978e-07)
(-2.0157e-07 -3.31826e-07 -9.81382e-07)
(-1.03418e-07 -3.48562e-07 -1.04294e-06)
(-3.85021e-08 -3.71909e-07 -1.05195e-06)
(6.03631e-09 -3.89369e-07 -1.05019e-06)
(4.64274e-08 -4.01513e-07 -1.04353e-06)
(9.50712e-08 -4.02619e-07 -1.03091e-06)
(1.59683e-07 -3.91507e-07 -1.00462e-06)
(2.52992e-07 -3.58027e-07 -9.27321e-07)
(3.61347e-07 -3.31153e-07 -6.46047e-07)
(-3.66773e-07 -3.06772e-07 -9.77586e-07)
(-2.53969e-07 -3.17226e-07 -1.26689e-06)
(-1.56749e-07 -3.18028e-07 -1.33427e-06)
(-8.72968e-08 -3.22326e-07 -1.34528e-06)
(-3.52335e-08 -3.25132e-07 -1.34475e-06)
(1.62508e-08 -3.26791e-07 -1.34349e-06)
(8.07904e-08 -3.25154e-07 -1.34061e-06)
(1.61238e-07 -3.18745e-07 -1.32292e-06)
(2.67424e-07 -3.03283e-07 -1.24434e-06)
(3.7402e-07 -2.72846e-07 -9.27166e-07)
(-3.61218e-07 -2.80446e-07 -1.04942e-06)
(-2.55684e-07 -2.92739e-07 -1.34499e-06)
(-1.67891e-07 -2.85218e-07 -1.4099e-06)
(-9.97407e-08 -2.77205e-07 -1.41945e-06)
(-4.26398e-08 -2.71962e-07 -1.41951e-06)
(1.28991e-08 -2.68655e-07 -1.41999e-06)
(8.19291e-08 -2.66699e-07 -1.41899e-06)
(1.68492e-07 -2.65073e-07 -1.40507e-06)
(2.70507e-07 -2.59156e-07 -1.33243e-06)
(3.75587e-07 -2.31866e-07 -1.01292e-06)
(-3.42669e-07 -2.4388e-07 -1.0775e-06)
(-2.46987e-07 -2.52243e-07 -1.37308e-06)
(-1.64141e-07 -2.39641e-07 -1.43587e-06)
(-9.71114e-08 -2.2876e-07 -1.4497e-06)
(-4.18468e-08 -2.22484e-07 -1.45397e-06)
(1.55569e-08 -2.18661e-07 -1.455e-06)
(8.74477e-08 -2.16546e-07 -1.45097e-06)
(1.73758e-07 -2.1602e-07 -1.43292e-06)
(2.75772e-07 -2.12979e-07 -1.36256e-06)
(3.80104e-07 -1.88531e-07 -1.04665e-06)
(-3.29931e-07 -1.99226e-07 -1.09675e-06)
(-2.36654e-07 -2.03117e-07 -1.39012e-06)
(-1.59224e-07 -1.90117e-07 -1.45306e-06)
(-9.56411e-08 -1.81039e-07 -1.47076e-06)
(-3.88631e-08 -1.75407e-07 -1.47751e-06)
(1.94826e-08 -1.71606e-07 -1.47883e-06)
(9.17328e-08 -1.69357e-07 -1.47262e-06)
(1.79785e-07 -1.6791e-07 -1.45042e-06)
(2.80378e-07 -1.6498e-07 -1.37968e-06)
(3.85798e-07 -1.46068e-07 -1.06654e-06)
(-3.18978e-07 -1.50912e-07 -1.11071e-06)
(-2.29963e-07 -1.51627e-07 -1.40555e-06)
(-1.55742e-07 -1.40309e-07 -1.46879e-06)
(-9.24135e-08 -1.31871e-07 -1.48692e-06)
(-3.60922e-08 -1.26652e-07 -1.49378e-06)
(2.3663e-08 -1.23529e-07 -1.49495e-06)
(9.84046e-08 -1.20193e-07 -1.48819e-06)
(1.86449e-07 -1.18226e-07 -1.46498e-06)
(2.87878e-07 -1.15134e-07 -1.39281e-06)
(3.95873e-07 -1.01289e-07 -1.07755e-06)
(-3.10214e-07 -9.51163e-08 -1.11903e-06)
(-2.23444e-07 -9.3737e-08 -1.41817e-06)
(-1.52346e-07 -8.33337e-08 -1.4824e-06)
(-8.9706e-08 -7.57853e-08 -1.4971e-06)
(-3.19426e-08 -7.10068e-08 -1.50182e-06)
(2.98275e-08 -6.64915e-08 -1.50234e-06)
(1.05611e-07 -6.35428e-08 -1.49659e-06)
(1.95335e-07 -6.09866e-08 -1.4758e-06)
(2.97403e-07 -5.9275e-08 -1.40132e-06)
(4.07937e-07 -5.30213e-08 -1.07929e-06)
(-2.99223e-07 -2.40316e-08 -1.11488e-06)
(-2.17392e-07 -2.15767e-08 -1.41645e-06)
(-1.48126e-07 -1.34275e-08 -1.48337e-06)
(-8.50377e-08 -6.66352e-09 -1.49402e-06)
(-2.5614e-08 -1.2959e-09 -1.49464e-06)
(3.72379e-08 2.95567e-09 -1.49406e-06)
(1.14477e-07 6.761e-09 -1.49062e-06)
(2.04074e-07 8.24955e-09 -1.47243e-06)
(3.06196e-07 6.60299e-09 -1.39335e-06)
(4.20876e-07 3.88201e-09 -1.06521e-06)
(-2.8189e-07 7.37607e-08 -1.06141e-06)
(-2.06034e-07 7.52661e-08 -1.35767e-06)
(-1.37787e-07 7.91999e-08 -1.42832e-06)
(-7.4833e-08 8.32764e-08 -1.44105e-06)
(-1.51261e-08 8.73339e-08 -1.44123e-06)
(4.86891e-08 9.21547e-08 -1.43911e-06)
(1.24725e-07 9.55466e-08 -1.43335e-06)
(2.11051e-07 9.55304e-08 -1.4105e-06)
(3.11852e-07 9.01266e-08 -1.3253e-06)
(4.19937e-07 7.64883e-08 -9.99039e-07)
(-2.37557e-07 1.82516e-07 -8.20707e-07)
(-1.60382e-07 1.81274e-07 -1.07344e-06)
(-9.77501e-08 1.841e-07 -1.13776e-06)
(-4.13358e-08 1.85427e-07 -1.15131e-06)
(1.34551e-08 1.88446e-07 -1.15283e-06)
(7.10767e-08 1.91916e-07 -1.14781e-06)
(1.37861e-07 1.92299e-07 -1.13423e-06)
(2.13041e-07 1.86499e-07 -1.10501e-06)
(2.99864e-07 1.68369e-07 -1.02159e-06)
(4.06371e-07 1.45388e-07 -7.33798e-07)
(-2.03408e-07 -3.86708e-07 -1.27932e-06)
(-5.07833e-08 -3.37237e-07 -1.61962e-06)
(5.57413e-08 -2.89702e-07 -1.68567e-06)
(1.2715e-07 -2.52456e-07 -1.66666e-06)
(1.66882e-07 -2.27159e-07 -1.63614e-06)
(1.84832e-07 -2.12902e-07 -1.60481e-06)
(1.98463e-07 -2.00079e-07 -1.57377e-06)
(2.24067e-07 -1.81258e-07 -1.5235e-06)
(2.82111e-07 -1.53276e-07 -1.3805e-06)
(3.62889e-07 -1.51869e-07 -8.97051e-07)
(-2.01027e-07 -2.30639e-07 -1.63871e-06)
(-5.95191e-08 -2.08252e-07 -2.01701e-06)
(3.89425e-08 -1.71991e-07 -2.07071e-06)
(1.02457e-07 -1.43031e-07 -2.04493e-06)
(1.35429e-07 -1.2654e-07 -2.01638e-06)
(1.50049e-07 -1.23755e-07 -1.99855e-06)
(1.65563e-07 -1.25812e-07 -1.98563e-06)
(1.99519e-07 -1.31314e-07 -1.96125e-06)
(2.6109e-07 -1.31398e-07 -1.84373e-06)
(3.33138e-07 -1.27326e-07 -1.35392e-06)
(-1.81639e-07 -1.5846e-07 -1.72049e-06)
(-4.61668e-08 -1.50216e-07 -2.09108e-06)
(4.79689e-08 -1.23532e-07 -2.12989e-06)
(1.06675e-07 -1.01392e-07 -2.10114e-06)
(1.32106e-07 -9.08936e-08 -2.07484e-06)
(1.40538e-07 -9.22224e-08 -2.06192e-06)
(1.55634e-07 -1.02887e-07 -2.05787e-06)
(1.88411e-07 -1.17789e-07 -2.04442e-06)
(2.43994e-07 -1.31954e-07 -1.94679e-06)
(3.06879e-07 -1.24867e-07 -1.47842e-06)
(-1.59426e-07 -1.19213e-07 -1.72954e-06)
(-3.29801e-08 -1.14823e-07 -2.09088e-06)
(5.6076e-08 -9.40132e-08 -2.12658e-06)
(1.10461e-07 -7.80435e-08 -2.10008e-06)
(1.3145e-07 -7.33018e-08 -2.07546e-06)
(1.34842e-07 -7.78394e-08 -2.06504e-06)
(1.47176e-07 -9.13062e-08 -2.06498e-06)
(1.8048e-07 -1.091e-07 -2.05599e-06)
(2.32638e-07 -1.24458e-07 -1.96796e-06)
(2.90312e-07 -1.18618e-07 -1.51431e-06)
(-1.41515e-07 -8.88977e-08 -1.73621e-06)
(-2.65314e-08 -8.74324e-08 -2.09452e-06)
(5.74055e-08 -7.31464e-08 -2.12855e-06)
(1.08742e-07 -6.59669e-08 -2.10289e-06)
(1.25943e-07 -6.69997e-08 -2.07765e-06)
(1.26416e-07 -7.47198e-08 -2.068e-06)
(1.39435e-07 -8.70113e-08 -2.07202e-06)
(1.7434e-07 -1.00967e-07 -2.0661e-06)
(2.26494e-07 -1.13887e-07 -1.98258e-06)
(2.84104e-07 -1.09823e-07 -1.53686e-06)
(-1.32278e-07 -5.946e-08 -1.75642e-06)
(-2.5921e-08 -6.21287e-08 -2.1124e-06)
(5.07643e-08 -5.61768e-08 -2.14651e-06)
(9.90576e-08 -5.7751e-08 -2.12115e-06)
(1.17205e-07 -6.62446e-08 -2.09665e-06)
(1.19786e-07 -7.5565e-08 -2.08772e-06)
(1.3661e-07 -8.29195e-08 -2.09177e-06)
(1.74529e-07 -9.13811e-08 -2.08575e-06)
(2.28624e-07 -9.86247e-08 -2.00286e-06)
(2.89926e-07 -9.75425e-08 -1.55807e-06)
(-1.30315e-07 -2.28144e-08 -1.78729e-06)
(-3.39423e-08 -2.94153e-08 -2.14517e-06)
(3.77999e-08 -3.1109e-08 -2.17887e-06)
(8.44104e-08 -3.85028e-08 -2.1535e-06)
(1.05088e-07 -5.08386e-08 -2.131e-06)
(1.16549e-07 -6.04347e-08 -2.12215e-06)
(1.39323e-07 -6.63961e-08 -2.12266e-06)
(1.80959e-07 -7.09541e-08 -2.11416e-06)
(2.38233e-07 -7.66928e-08 -2.02793e-06)
(3.05511e-07 -8.03388e-08 -1.57874e-06)
(-1.33003e-07 2.77435e-08 -1.8181e-06)
(-4.44993e-08 1.83518e-08 -2.17811e-06)
(2.15244e-08 1.27161e-08 -2.21383e-06)
(6.72898e-08 1.92114e-09 -2.18588e-06)
(9.36198e-08 -1.08984e-08 -2.16274e-06)
(1.12892e-07 -2.18116e-08 -2.15212e-06)
(1.43563e-07 -2.9343e-08 -2.14963e-06)
(1.89814e-07 -3.62599e-08 -2.13825e-06)
(2.51763e-07 -4.5033e-08 -2.04593e-06)
(3.27872e-07 -5.69805e-08 -1.58755e-06)
(-1.26295e-07 9.8968e-08 -1.78001e-06)
(-4.94838e-08 8.79198e-08 -2.13985e-06)
(1.20842e-08 7.91247e-08 -2.18391e-06)
(5.63824e-08 6.78631e-08 -2.15699e-06)
(8.53633e-08 5.38692e-08 -2.13171e-06)
(1.11407e-07 4.06831e-08 -2.11746e-06)
(1.47244e-07 2.70814e-08 -2.1092e-06)
(1.9726e-07 1.16161e-08 -2.09026e-06)
(2.64045e-07 -6.6676e-09 -1.9846e-06)
(3.43942e-07 -2.80802e-08 -1.51468e-06)
(-8.89118e-08 1.83092e-07 -1.4876e-06)
(-1.53821e-08 1.67324e-07 -1.78663e-06)
(3.78811e-08 1.59169e-07 -1.82772e-06)
(7.5882e-08 1.46708e-07 -1.79831e-06)
(1.02185e-07 1.31905e-07 -1.76694e-06)
(1.26229e-07 1.13375e-07 -1.74381e-06)
(1.59163e-07 8.88443e-08 -1.72339e-06)
(2.05228e-07 5.59824e-08 -1.6906e-06)
(2.68475e-07 1.71866e-08 -1.57025e-06)
(3.58894e-07 -1.88191e-08 -1.12532e-06)
(-1.75975e-07 -4.3905e-07 -2.13854e-06)
(-4.67948e-08 -3.79689e-07 -2.52566e-06)
(3.83146e-08 -3.62128e-07 -2.57698e-06)
(8.89912e-08 -3.44687e-07 -2.50498e-06)
(1.22163e-07 -3.2716e-07 -2.4127e-06)
(1.58153e-07 -3.20074e-07 -2.31974e-06)
(2.11903e-07 -3.19208e-07 -2.22057e-06)
(2.91626e-07 -3.19338e-07 -2.08933e-06)
(4.07279e-07 -2.99436e-07 -1.82065e-06)
(5.66234e-07 -3.06462e-07 -1.0778e-06)
(-2.34212e-07 -4.4964e-07 -2.57272e-06)
(-1.30711e-07 -4.14492e-07 -3.01518e-06)
(-3.88155e-08 -3.85083e-07 -3.04609e-06)
(1.76115e-08 -3.57756e-07 -2.95648e-06)
(4.91188e-08 -3.37554e-07 -2.86609e-06)
(8.47424e-08 -3.28627e-07 -2.80067e-06)
(1.42814e-07 -3.29983e-07 -2.75335e-06)
(2.29785e-07 -3.36164e-07 -2.69064e-06)
(3.57044e-07 -3.34723e-07 -2.48659e-06)
(5.02624e-07 -3.27432e-07 -1.7696e-06)
(-2.40368e-07 -4.5295e-07 -2.68826e-06)
(-1.42546e-07 -4.34898e-07 -3.10566e-06)
(-5.50635e-08 -4.01802e-07 -3.09133e-06)
(2.48604e-09 -3.7072e-07 -2.9715e-06)
(3.86343e-08 -3.50505e-07 -2.87034e-06)
(7.13756e-08 -3.42685e-07 -2.81708e-06)
(1.28179e-07 -3.46286e-07 -2.80393e-06)
(2.18594e-07 -3.53967e-07 -2.79014e-06)
(3.35514e-07 -3.60128e-07 -2.64574e-06)
(4.69834e-07 -3.46685e-07 -1.98193e-06)
(-2.28934e-07 -4.3066e-07 -2.70286e-06)
(-1.42543e-07 -4.22695e-07 -3.09075e-06)
(-5.4911e-08 -3.91806e-07 -3.03977e-06)
(8.62975e-09 -3.64504e-07 -2.89755e-06)
(4.30889e-08 -3.47998e-07 -2.79416e-06)
(7.51864e-08 -3.41945e-07 -2.74885e-06)
(1.33442e-07 -3.42505e-07 -2.75185e-06)
(2.20701e-07 -3.49853e-07 -2.76894e-06)
(3.31907e-07 -3.56805e-07 -2.66852e-06)
(4.52722e-07 -3.44492e-07 -2.05255e-06)
(-2.30928e-07 -3.90718e-07 -2.71975e-06)
(-1.42949e-07 -3.89129e-07 -3.08456e-06)
(-5.53873e-08 -3.66065e-07 -3.01168e-06)
(9.98916e-09 -3.48955e-07 -2.86097e-06)
(5.28251e-08 -3.39963e-07 -2.77798e-06)
(8.64341e-08 -3.3219e-07 -2.74005e-06)
(1.4409e-07 -3.27144e-07 -2.72783e-06)
(2.32074e-07 -3.28434e-07 -2.75664e-06)
(3.36097e-07 -3.34386e-07 -2.68256e-06)
(4.50277e-07 -3.27814e-07 -2.09695e-06)
(-2.36192e-07 -3.40263e-07 -2.75863e-06)
(-1.50551e-07 -3.41627e-07 -3.11566e-06)
(-6.27617e-08 -3.28118e-07 -3.03842e-06)
(8.18192e-09 -3.1953e-07 -2.8865e-06)
(5.55816e-08 -3.15665e-07 -2.80287e-06)
(9.81114e-08 -3.08484e-07 -2.76523e-06)
(1.62634e-07 -2.96204e-07 -2.75471e-06)
(2.48709e-07 -2.92367e-07 -2.78507e-06)
(3.4976e-07 -2.96313e-07 -2.71549e-06)
(4.62545e-07 -2.9692e-07 -2.13984e-06)
(-2.42111e-07 -2.75462e-07 -2.82335e-06)
(-1.55669e-07 -2.80502e-07 -3.18362e-06)
(-7.26896e-08 -2.71109e-07 -3.1198e-06)
(-6.26193e-10 -2.67447e-07 -2.97346e-06)
(5.67114e-08 -2.64323e-07 -2.86963e-06)
(1.12023e-07 -2.54455e-07 -2.8256e-06)
(1.83429e-07 -2.44324e-07 -2.8312e-06)
(2.72833e-07 -2.39072e-07 -2.85526e-06)
(3.70338e-07 -2.44784e-07 -2.76907e-06)
(4.83798e-07 -2.55386e-07 -2.18215e-06)
(-2.39587e-07 -1.92577e-07 -2.89281e-06)
(-1.57098e-07 -2.00619e-07 -3.2645e-06)
(-7.54122e-08 -1.96621e-07 -3.22661e-06)
(-1.25252e-09 -1.93213e-07 -3.09776e-06)
(6.4837e-08 -1.89537e-07 -2.99575e-06)
(1.31123e-07 -1.82248e-07 -2.94451e-06)
(2.11673e-07 -1.73839e-07 -2.93732e-06)
(3.01354e-07 -1.72766e-07 -2.93614e-06)
(3.97379e-07 -1.84049e-07 -2.81648e-06)
(5.1504e-07 -2.04301e-07 -2.2035e-06)
(-2.19091e-07 -8.31587e-08 -2.86746e-06)
(-1.41157e-07 -9.99425e-08 -3.24256e-06)
(-6.07735e-08 -1.00548e-07 -3.24142e-06)
(1.72243e-08 -1.01096e-07 -3.13729e-06)
(8.9532e-08 -9.94941e-08 -3.04417e-06)
(1.64322e-07 -9.57002e-08 -2.98329e-06)
(2.47648e-07 -9.39859e-08 -2.94812e-06)
(3.35895e-07 -9.95966e-08 -2.90716e-06)
(4.30365e-07 -1.17917e-07 -2.74182e-06)
(5.42986e-07 -1.47607e-07 -2.09705e-06)
(-1.53056e-07 1.73718e-08 -2.57198e-06)
(-6.8637e-08 -9.99877e-10 -2.8464e-06)
(1.12652e-08 -4.08464e-09 -2.84489e-06)
(8.75022e-08 -8.21064e-09 -2.7462e-06)
(1.60859e-07 -1.19534e-08 -2.647e-06)
(2.33652e-07 -1.6554e-08 -2.56414e-06)
(3.12613e-07 -2.6899e-08 -2.49056e-06)
(3.92966e-07 -4.61438e-08 -2.40332e-06)
(4.76396e-07 -8.34707e-08 -2.19471e-06)
(5.93997e-07 -1.22193e-07 -1.56376e-06)
(2.26882e-07 -7.07805e-07 -2.92088e-06)
(3.88032e-07 -5.44766e-07 -3.31019e-06)
(5.07649e-07 -4.23966e-07 -3.30307e-06)
(5.84076e-07 -3.31758e-07 -3.13125e-06)
(6.18593e-07 -2.73924e-07 -2.92707e-06)
(6.19997e-07 -2.51248e-07 -2.71376e-06)
(6.04004e-07 -2.47023e-07 -2.49773e-06)
(5.85821e-07 -2.43939e-07 -2.23532e-06)
(5.89729e-07 -2.18458e-07 -1.78407e-06)
(6.31403e-07 -2.18873e-07 -6.16352e-07)
(1.62367e-07 -5.20181e-07 -3.48309e-06)
(3.10819e-07 -4.183e-07 -3.95335e-06)
(4.17117e-07 -3.32318e-07 -3.92365e-06)
(4.77934e-07 -2.69184e-07 -3.73547e-06)
(4.96895e-07 -2.32206e-07 -3.54303e-06)
(4.86213e-07 -2.25446e-07 -3.38765e-06)
(4.66771e-07 -2.3282e-07 -3.2606e-06)
(4.56592e-07 -2.48721e-07 -3.11371e-06)
(4.65557e-07 -2.53242e-07 -2.77602e-06)
(4.89838e-07 -2.5007e-07 -1.72041e-06)
(1.55665e-07 -4.49565e-07 -3.64501e-06)
(2.89373e-07 -3.84105e-07 -4.08024e-06)
(3.86753e-07 -3.21334e-07 -3.97916e-06)
(4.44144e-07 -2.7482e-07 -3.74012e-06)
(4.57262e-07 -2.49578e-07 -3.53019e-06)
(4.39686e-07 -2.47818e-07 -3.39983e-06)
(4.19519e-07 -2.62116e-07 -3.3393e-06)
(4.10063e-07 -2.83543e-07 -3.27634e-06)
(4.11603e-07 -3.04353e-07 -3.03427e-06)
(4.16841e-07 -3.04011e-07 -2.08601e-06)
(1.68953e-07 -4.03981e-07 -3.67763e-06)
(2.83174e-07 -3.55739e-07 -4.05748e-06)
(3.73948e-07 -3.05843e-07 -3.89368e-06)
(4.33461e-07 -2.70872e-07 -3.60135e-06)
(4.52496e-07 -2.56629e-07 -3.38013e-06)
(4.31019e-07 -2.61159e-07 -3.2673e-06)
(4.03542e-07 -2.78224e-07 -3.25203e-06)
(3.91708e-07 -3.03912e-07 -3.25821e-06)
(3.85594e-07 -3.30567e-07 -3.09365e-06)
(3.76721e-07 -3.39207e-07 -2.23553e-06)
(1.85426e-07 -3.53731e-07 -3.71715e-06)
(2.80551e-07 -3.17143e-07 -4.05334e-06)
(3.64987e-07 -2.78948e-07 -3.84452e-06)
(4.30577e-07 -2.59928e-07 -3.51898e-06)
(4.63209e-07 -2.59342e-07 -3.32515e-06)
(4.4225e-07 -2.68463e-07 -3.2547e-06)
(4.05201e-07 -2.82677e-07 -3.20462e-06)
(3.87557e-07 -3.07145e-07 -3.24478e-06)
(3.75762e-07 -3.37808e-07 -3.13242e-06)
(3.62632e-07 -3.57901e-07 -2.33477e-06)
(1.99963e-07 -2.93762e-07 -3.80203e-06)
(2.79886e-07 -2.68178e-07 -4.11048e-06)
(3.51215e-07 -2.42742e-07 -3.89215e-06)
(4.12947e-07 -2.37088e-07 -3.56386e-06)
(4.48619e-07 -2.48831e-07 -3.35711e-06)
(4.36861e-07 -2.61616e-07 -3.28745e-06)
(4.08217e-07 -2.72548e-07 -3.25376e-06)
(3.94217e-07 -2.95049e-07 -3.29981e-06)
(3.82512e-07 -3.27095e-07 -3.19789e-06)
(3.71676e-07 -3.61136e-07 -2.42293e-06)
(2.15865e-07 -2.18748e-07 -3.93182e-06)
(2.779e-07 -2.03176e-07 -4.23397e-06)
(3.36014e-07 -1.90998e-07 -4.0372e-06)
(3.83603e-07 -1.93589e-07 -3.73214e-06)
(4.11852e-07 -2.09132e-07 -3.50715e-06)
(4.17088e-07 -2.22662e-07 -3.39886e-06)
(4.11731e-07 -2.3992e-07 -3.39716e-06)
(4.10638e-07 -2.65143e-07 -3.42478e-06)
(4.02449e-07 -3.02954e-07 -3.29282e-06)
(3.98671e-07 -3.53043e-07 -2.50411e-06)
(2.36064e-07 -1.28807e-07 -4.0826e-06)
(2.85885e-07 -1.24896e-07 -4.38316e-06)
(3.31681e-07 -1.21786e-07 -4.22896e-06)
(3.72531e-07 -1.3184e-07 -3.9679e-06)
(3.99381e-07 -1.48566e-07 -3.75683e-06)
(4.15024e-07 -1.68531e-07 -3.63499e-06)
(4.28337e-07 -1.92411e-07 -3.59386e-06)
(4.37205e-07 -2.25581e-07 -3.56499e-06)
(4.36735e-07 -2.72085e-07 -3.37742e-06)
(4.44542e-07 -3.38783e-07 -2.54825e-06)
(2.72511e-07 -2.3246e-08 -4.13037e-06)
(3.11902e-07 -3.16245e-08 -4.41153e-06)
(3.54526e-07 -4.20202e-08 -4.30389e-06)
(3.92195e-07 -5.69291e-08 -4.08219e-06)
(4.20363e-07 -8.06588e-08 -3.88579e-06)
(4.42235e-07 -1.07531e-07 -3.74565e-06)
(4.62422e-07 -1.43561e-07 -3.65141e-06)
(4.78298e-07 -1.89039e-07 -3.55496e-06)
(4.86977e-07 -2.48554e-07 -3.296e-06)
(5.09901e-07 -3.29741e-07 -2.41428e-06)
(3.63705e-07 9.45439e-08 -3.95038e-06)
(4.01711e-07 7.29549e-08 -4.04935e-06)
(4.48922e-07 4.74435e-08 -3.91554e-06)
(4.87874e-07 1.90698e-08 -3.67972e-06)
(5.15526e-07 -1.48779e-08 -3.45818e-06)
(5.36886e-07 -5.72766e-08 -3.27182e-06)
(5.57422e-07 -1.12221e-07 -3.11049e-06)
(5.75348e-07 -1.81043e-07 -2.93601e-06)
(5.93419e-07 -2.66028e-07 -2.60307e-06)
(6.44595e-07 -3.67229e-07 -1.70007e-06)
(5.67734e-07 -9.22325e-07 -4.0952e-06)
(6.60365e-07 -7.17824e-07 -4.30409e-06)
(7.44956e-07 -6.15601e-07 -4.14439e-06)
(7.86966e-07 -5.51469e-07 -3.80123e-06)
(7.94195e-07 -5.10047e-07 -3.42228e-06)
(7.87118e-07 -4.94808e-07 -3.03677e-06)
(7.83035e-07 -4.81449e-07 -2.63326e-06)
(7.96224e-07 -4.65646e-07 -2.15602e-06)
(8.38218e-07 -4.26735e-07 -1.41748e-06)
(9.48451e-07 -4.38167e-07 3.32343e-07)
(3.2789e-07 -9.3104e-07 -4.62999e-06)
(4.11176e-07 -7.7915e-07 -5.00103e-06)
(5.11918e-07 -6.91541e-07 -4.86471e-06)
(5.65365e-07 -6.32307e-07 -4.54432e-06)
(5.77682e-07 -5.92925e-07 -4.21906e-06)
(5.80613e-07 -5.70965e-07 -3.93271e-06)
(5.92901e-07 -5.57759e-07 -3.67276e-06)
(6.20785e-07 -5.49893e-07 -3.37037e-06)
(6.80041e-07 -5.38665e-07 -2.81417e-06)
(7.68463e-07 -5.42083e-07 -1.29734e-06)
(2.37402e-07 -9.33427e-07 -4.82469e-06)
(3.24824e-07 -8.18362e-07 -5.17644e-06)
(4.23617e-07 -7.42484e-07 -4.97441e-06)
(4.84384e-07 -6.89383e-07 -4.60643e-06)
(5.15021e-07 -6.563e-07 -4.27123e-06)
(5.26921e-07 -6.36683e-07 -4.02547e-06)
(5.45353e-07 -6.26348e-07 -3.85803e-06)
(5.82721e-07 -6.22763e-07 -3.67069e-06)
(6.30894e-07 -6.25366e-07 -3.24166e-06)
(7.0448e-07 -6.33963e-07 -1.89023e-06)
(2.01294e-07 -8.94727e-07 -4.89169e-06)
(2.77144e-07 -8.05972e-07 -5.19163e-06)
(3.79886e-07 -7.41909e-07 -4.91553e-06)
(4.59911e-07 -7.02571e-07 -4.48334e-06)
(5.08611e-07 -6.83287e-07 -4.14561e-06)
(5.31326e-07 -6.71054e-07 -3.92518e-06)
(5.51188e-07 -6.56782e-07 -3.82069e-06)
(5.83276e-07 -6.56223e-07 -3.72325e-06)
(6.24995e-07 -6.66661e-07 -3.39743e-06)
(6.83349e-07 -6.86797e-07 -2.18404e-06)
(1.65367e-07 -8.23142e-07 -4.99178e-06)
(2.46986e-07 -7.54133e-07 -5.23471e-06)
(3.5351e-07 -7.04732e-07 -4.90239e-06)
(4.51204e-07 -6.86268e-07 -4.42335e-06)
(5.38599e-07 -6.94367e-07 -4.11279e-06)
(5.73327e-07 -6.82741e-07 -3.9881e-06)
(5.80377e-07 -6.55765e-07 -3.81473e-06)
(6.07525e-07 -6.52957e-07 -3.76335e-06)
(6.3912e-07 -6.72281e-07 -3.51023e-06)
(6.91809e-07 -7.11171e-07 -2.39017e-06)
(1.44049e-07 -7.30608e-07 -5.16098e-06)
(2.24408e-07 -6.7355e-07 -5.36413e-06)
(3.32461e-07 -6.3667e-07 -5.01438e-06)
(4.40139e-07 -6.264e-07 -4.52543e-06)
(5.3618e-07 -6.41395e-07 -4.17113e-06)
(5.89998e-07 -6.37633e-07 -4.04597e-06)
(6.102e-07 -6.12034e-07 -3.91789e-06)
(6.39384e-07 -6.16382e-07 -3.8765e-06)
(6.71427e-07 -6.47169e-07 -3.64034e-06)
(7.26547e-07 -7.07906e-07 -2.56352e-06)
(1.40529e-07 -6.128e-07 -5.40998e-06)
(2.2253e-07 -5.68803e-07 -5.58033e-06)
(3.22101e-07 -5.38839e-07 -5.25164e-06)
(4.19289e-07 -5.29417e-07 -4.78641e-06)
(5.10546e-07 -5.34358e-07 -4.42623e-06)
(5.81946e-07 -5.31112e-07 -4.20661e-06)
(6.33488e-07 -5.32538e-07 -4.1257e-06)
(6.81557e-07 -5.53175e-07 -4.06585e-06)
(7.17931e-07 -5.99127e-07 -3.79353e-06)
(7.80412e-07 -6.85734e-07 -2.70807e-06)
(1.65657e-07 -4.71466e-07 -5.70627e-06)
(2.411e-07 -4.41711e-07 -5.84203e-06)
(3.38636e-07 -4.24097e-07 -5.55439e-06)
(4.34711e-07 -4.17696e-07 -5.14149e-06)
(5.24571e-07 -4.19908e-07 -4.78861e-06)
(6.06152e-07 -4.26804e-07 -4.544e-06)
(6.81132e-07 -4.43261e-07 -4.39945e-06)
(7.41339e-07 -4.78649e-07 -4.26167e-06)
(7.85827e-07 -5.39962e-07 -3.91669e-06)
(8.61146e-07 -6.48944e-07 -2.78535e-06)
(2.25546e-07 -2.98063e-07 -5.91089e-06)
(2.9741e-07 -2.92984e-07 -5.96906e-06)
(3.94682e-07 -2.90733e-07 -5.72371e-06)
(4.96713e-07 -2.9641e-07 -5.34682e-06)
(5.92585e-07 -3.08285e-07 -4.99973e-06)
(6.83109e-07 -3.25436e-07 -4.71917e-06)
(7.65891e-07 -3.55851e-07 -4.49339e-06)
(8.32633e-07 -4.03365e-07 -4.25979e-06)
(8.85527e-07 -4.79284e-07 -3.82204e-06)
(9.72374e-07 -6.11664e-07 -2.62368e-06)
(3.88268e-07 -1.37118e-07 -6.07643e-06)
(4.6455e-07 -1.39711e-07 -5.78878e-06)
(5.73482e-07 -1.57495e-07 -5.45041e-06)
(6.82665e-07 -1.79462e-07 -5.01526e-06)
(7.85789e-07 -2.0833e-07 -4.60214e-06)
(8.79745e-07 -2.43894e-07 -4.23317e-06)
(9.66753e-07 -2.9446e-07 -3.89343e-06)
(1.03633e-06 -3.62383e-07 -3.53595e-06)
(1.09257e-06 -4.7273e-07 -2.98501e-06)
(1.20927e-06 -6.35106e-07 -1.73267e-06)
(1.27009e-06 -1.69573e-06 -5.55757e-06)
(1.3633e-06 -1.34219e-06 -5.39095e-06)
(1.47985e-06 -1.09641e-06 -4.93921e-06)
(1.55792e-06 -8.88419e-07 -4.29568e-06)
(1.57946e-06 -7.21001e-07 -3.60996e-06)
(1.55016e-06 -6.00081e-07 -2.90153e-06)
(1.48064e-06 -5.16335e-07 -2.15605e-06)
(1.38368e-06 -4.55045e-07 -1.28814e-06)
(1.28599e-06 -3.92335e-07 -6.26095e-08)
(1.2519e-06 -4.00574e-07 2.66187e-06)
(8.94894e-07 -1.315e-06 -6.07012e-06)
(1.04011e-06 -1.05582e-06 -6.17384e-06)
(1.1814e-06 -8.93659e-07 -5.8064e-06)
(1.2697e-06 -7.62688e-07 -5.23755e-06)
(1.29517e-06 -6.60354e-07 -4.65917e-06)
(1.26254e-06 -5.91313e-07 -4.11999e-06)
(1.18926e-06 -5.45672e-07 -3.60068e-06)
(1.0952e-06 -5.22013e-07 -3.01218e-06)
(9.91465e-07 -5.02837e-07 -2.09575e-06)
(9.11436e-07 -5.11406e-07 1.3413e-07)
(7.18743e-07 -1.14241e-06 -6.31674e-06)
(8.96969e-07 -9.41344e-07 -6.42531e-06)
(1.05972e-06 -8.26649e-07 -5.99002e-06)
(1.16677e-06 -7.43234e-07 -5.37837e-06)
(1.20454e-06 -6.83931e-07 -4.80841e-06)
(1.17495e-06 -6.46454e-07 -4.33809e-06)
(1.10034e-06 -6.25166e-07 -3.95427e-06)
(1.00182e-06 -6.20967e-07 -3.52658e-06)
(8.85602e-07 -6.28813e-07 -2.7901e-06)
(7.76416e-07 -6.58788e-07 -8.47383e-07)
(6.26751e-07 -1.02846e-06 -6.44684e-06)
(8.11964e-07 -8.65743e-07 -6.49248e-06)
(9.87711e-07 -7.80712e-07 -5.97451e-06)
(1.11926e-06 -7.30691e-07 -5.29242e-06)
(1.19481e-06 -7.0887e-07 -4.73912e-06)
(1.17159e-06 -6.93969e-07 -4.31124e-06)
(1.07831e-06 -6.82272e-07 -4.0174e-06)
(9.70855e-07 -6.90513e-07 -3.70962e-06)
(8.44003e-07 -7.15304e-07 -3.11534e-06)
(7.20799e-07 -7.72176e-07 -1.39468e-06)
(5.75991e-07 -9.14782e-07 -6.6378e-06)
(7.57586e-07 -7.85556e-07 -6.60845e-06)
(9.43531e-07 -7.2421e-07 -6.01931e-06)
(1.10896e-06 -7.08135e-07 -5.27459e-06)
(1.2422e-06 -7.2922e-07 -4.74131e-06)
(1.22997e-06 -7.28914e-07 -4.49226e-06)
(1.10089e-06 -7.10888e-07 -4.09585e-06)
(9.75172e-07 -7.23879e-07 -3.8482e-06)
(8.42116e-07 -7.66076e-07 -3.3559e-06)
(7.18582e-07 -8.54819e-07 -1.78746e-06)
(5.54619e-07 -7.87848e-07 -6.94604e-06)
(7.32824e-07 -6.86743e-07 -6.83871e-06)
(9.14529e-07 -6.43927e-07 -6.22093e-06)
(1.08224e-06 -6.43744e-07 -5.46088e-06)
(1.22421e-06 -6.8124e-07 -4.84756e-06)
(1.23036e-06 -7.01297e-07 -4.59865e-06)
(1.11483e-06 -6.94469e-07 -4.28559e-06)
(1.00002e-06 -7.2141e-07 -4.05703e-06)
(8.7454e-07 -7.82113e-07 -3.59485e-06)
(7.61282e-07 -9.08232e-07 -2.10227e-06)
(5.66606e-07 -6.34815e-07 -7.37769e-06)
(7.32569e-07 -5.59292e-07 -7.19281e-06)
(9.02575e-07 -5.33945e-07 -6.58217e-06)
(1.04477e-06 -5.38998e-07 -5.84098e-06)
(1.14815e-06 -5.70935e-07 -5.25151e-06)
(1.17254e-06 -6.01149e-07 -4.82726e-06)
(1.12061e-06 -6.33251e-07 -4.57835e-06)
(1.04389e-06 -6.88755e-07 -4.3396e-06)
(9.37559e-07 -7.74794e-07 -3.8398e-06)
(8.44516e-07 -9.42238e-07 -2.34948e-06)
(6.16139e-07 -4.57193e-07 -7.91027e-06)
(7.72093e-07 -4.07928e-07 -7.62066e-06)
(9.28994e-07 -3.97687e-07 -7.03965e-06)
(1.05694e-06 -4.14872e-07 -6.34875e-06)
(1.14215e-06 -4.51366e-07 -5.74942e-06)
(1.1769e-06 -5.0012e-07 -5.28639e-06)
(1.16664e-06 -5.62809e-07 -4.94846e-06)
(1.12e-06 -6.45838e-07 -4.61483e-06)
(1.03858e-06 -7.58086e-07 -4.02833e-06)
(9.74311e-07 -9.66377e-07 -2.48273e-06)
(7.29118e-07 -2.5418e-07 -8.40057e-06)
(8.6529e-07 -2.3511e-07 -7.92886e-06)
(1.01316e-06 -2.4635e-07 -7.36517e-06)
(1.13355e-06 -2.77801e-07 -6.6941e-06)
(1.21564e-06 -3.33238e-07 -6.07796e-06)
(1.25826e-06 -4.05017e-07 -5.55512e-06)
(1.26586e-06 -4.98181e-07 -5.10572e-06)
(1.24194e-06 -6.11919e-07 -4.64786e-06)
(1.18892e-06 -7.5706e-07 -3.94207e-06)
(1.17836e-06 -1.00597e-06 -2.30063e-06)
(1.02318e-06 -5.54858e-08 -9.22128e-06)
(1.13262e-06 -5.32166e-08 -8.13967e-06)
(1.27688e-06 -9.19578e-08 -7.36621e-06)
(1.39502e-06 -1.48257e-07 -6.54756e-06)
(1.47679e-06 -2.2915e-07 -5.79132e-06)
(1.52564e-06 -3.34823e-07 -5.11292e-06)
(1.54894e-06 -4.68112e-07 -4.48755e-06)
(1.54713e-06 -6.28777e-07 -3.84297e-06)
(1.5356e-06 -8.32072e-07 -2.95893e-06)
(1.60919e-06 -1.13696e-06 -1.1597e-06)
(2.00552e-06 -1.85253e-06 -7.69478e-06)
(2.102e-06 -1.34351e-06 -6.84794e-06)
(2.23288e-06 -1.10316e-06 -5.88386e-06)
(2.30224e-06 -9.63044e-07 -4.72036e-06)
(2.29867e-06 -8.49777e-07 -3.50697e-06)
(2.24355e-06 -7.63242e-07 -2.26214e-06)
(2.15182e-06 -6.81273e-07 -9.45638e-07)
(2.04005e-06 -6.10247e-07 5.59632e-07)
(1.92266e-06 -5.38034e-07 2.55413e-06)
(1.91369e-06 -5.82197e-07 6.74857e-06)
(1.29629e-06 -1.81568e-06 -8.00059e-06)
(1.44318e-06 -1.40397e-06 -7.56581e-06)
(1.63734e-06 -1.21959e-06 -6.79157e-06)
(1.75636e-06 -1.09741e-06 -5.81811e-06)
(1.79178e-06 -1.00013e-06 -4.83898e-06)
(1.76942e-06 -9.24511e-07 -3.89578e-06)
(1.70659e-06 -8.61916e-07 -2.95456e-06)
(1.61374e-06 -8.18232e-07 -1.89079e-06)
(1.51138e-06 -7.90523e-07 -3.94192e-07)
(1.44817e-06 -8.32844e-07 2.92143e-06)
(9.73423e-07 -1.77552e-06 -8.30249e-06)
(1.17472e-06 -1.45589e-06 -7.90546e-06)
(1.40043e-06 -1.30767e-06 -7.08539e-06)
(1.55251e-06 -1.20691e-06 -6.0999e-06)
(1.62994e-06 -1.13506e-06 -5.17386e-06)
(1.63005e-06 -1.07805e-06 -4.34973e-06)
(1.57516e-06 -1.03175e-06 -3.60499e-06)
(1.49084e-06 -1.0051e-06 -2.76457e-06)
(1.37569e-06 -1.00261e-06 -1.51108e-06)
(1.28926e-06 -1.072e-06 1.35722e-06)
(7.96498e-07 -1.68781e-06 -8.55245e-06)