/*--------------------------------*- C++ -*----------------------------------*\
| =========                 |                                                 |
| \\      /  F ield         | OpenFOAM: The Open Source CFD Toolbox           |
|  \\    /   O peration     | Version:  2406                                  |
|   \\  /    A nd           | Website:  www.openfoam.com                      |
|    \\/     M anipulation  |                                                 |
\*---------------------------------------------------------------------------*/
FoamFile
{
    version     2.0;
    format      ascii;
    arch        "LSB;label=32;scalar=64";
    class       surfaceScalarField;
    location    "2";
    object      phi;
}
// * * * * * * * * * * * * * * * * * * * * * * * * * * * * * * * * * * * * * //

dimensions      [0 3 -1 0 0 0 0];

oriented        oriented;

internalField   nonuniform List<scalar> 
73500
(
4.64638e-05
4.64638e-05
5.7055e-05
-5.14904e-05
-5.14904e-05
3.76966e-05
4.71304e-05
6.4902e-05
-5.23269e-05
2.65017e-05
4.75019e-05
7.06874e-05
-5.30513e-05
1.36506e-05
4.76219e-05
7.45177e-05
-5.33174e-05
1.42027e-13
4.76558e-05
7.64234e-05
-5.34357e-05
-1.36506e-05
4.76558e-05
7.64234e-05
-5.34357e-05
-2.65017e-05
4.76219e-05
7.45177e-05
-5.33174e-05
-3.76966e-05
4.75019e-05
7.06874e-05
-5.30513e-05
-4.64638e-05
4.71304e-05
6.4902e-05
-5.23269e-05
4.64638e-05
5.7055e-05
-5.14904e-05
-5.14904e-05
4.71304e-05
3.76966e-05
6.4902e-05
-5.23269e-05
3.80025e-05
3.80025e-05
7.284e-05
2.65048e-05
3.80946e-05
7.8274e-05
1.35836e-05
3.80736e-05
8.17192e-05
5.24286e-14
3.80404e-05
8.33962e-05
-1.35836e-05
3.80404e-05
8.33962e-05
-2.65048e-05
3.80736e-05
8.17192e-05
-3.80025e-05
3.80946e-05
7.8274e-05
-4.71304e-05
3.80025e-05
7.284e-05
3.76966e-05
6.4902e-05
-5.23269e-05
4.75019e-05
2.65017e-05
7.06874e-05
-5.30513e-05
3.80946e-05
2.65048e-05
7.8274e-05
2.64302e-05
2.64302e-05
8.33162e-05
1.3498e-05
2.63344e-05
8.64277e-05
6.71855e-15
2.6272e-05
8.79142e-05
-1.3498e-05
2.6272e-05
8.79142e-05
-2.64302e-05
2.63344e-05
8.64277e-05
-3.80946e-05
2.64302e-05
8.33162e-05
-4.75019e-05
2.65048e-05
7.8274e-05
2.65017e-05
7.06874e-05
-5.30513e-05
4.76219e-05
1.36506e-05
7.45177e-05
-5.33174e-05
3.80736e-05
1.35836e-05
8.17192e-05
2.63344e-05
1.3498e-05
8.64277e-05
1.34197e-05
1.34197e-05
8.92796e-05
-9.46675e-15
1.33737e-05
9.06222e-05
-1.34197e-05
1.33737e-05
9.06222e-05
-2.63344e-05
1.34197e-05
8.92796e-05
-3.80736e-05
1.3498e-05
8.64277e-05
-4.76219e-05
1.35836e-05
8.17192e-05
1.36506e-05
7.45177e-05
-5.33174e-05
4.76558e-05
-5.70464e-13
7.64234e-05
-5.34357e-05
3.80404e-05
-7.32704e-13
8.33962e-05
2.6272e-05
-8.15459e-13
8.79142e-05
1.33737e-05
-8.54075e-13
9.06222e-05
-4.8354e-16
-8.49875e-13
9.18866e-05
-1.33737e-05
-8.21427e-13
9.18866e-05
-2.6272e-05
-7.8377e-13
9.06222e-05
-3.80404e-05
-7.2876e-13
8.79142e-05
-4.76558e-05
-6.54348e-13
8.33962e-05
-5.62398e-13
7.64234e-05
-5.34357e-05
4.76558e-05
-1.36506e-05
7.64234e-05
-5.34357e-05
3.80404e-05
-1.35836e-05
8.33962e-05
2.6272e-05
-1.3498e-05
8.79142e-05
1.33737e-05
-1.34197e-05
9.06222e-05
2.56828e-14
-1.33737e-05
9.18866e-05
-1.33737e-05
-1.33737e-05
9.18866e-05
-2.6272e-05
-1.34197e-05
9.06222e-05
-3.80404e-05
-1.3498e-05
8.79142e-05
-4.76558e-05
-1.35836e-05
8.33962e-05
-1.36506e-05
7.64234e-05
-5.34357e-05
4.76219e-05
-2.65017e-05
7.45177e-05
-5.33174e-05
3.80736e-05
-2.65048e-05
8.17192e-05
2.63344e-05
-2.64302e-05
8.64277e-05
1.34197e-05
-2.63344e-05
8.92796e-05
6.74047e-14
-2.6272e-05
9.06222e-05
-1.34197e-05
-2.6272e-05
9.06222e-05
-2.63344e-05
-2.63344e-05
8.92796e-05
-3.80736e-05
-2.64302e-05
8.64277e-05
-4.76219e-05
-2.65048e-05
8.17192e-05
-2.65017e-05
7.45177e-05
-5.33174e-05
4.75019e-05
-3.76966e-05
7.06874e-05
-5.30513e-05
3.80946e-05
-3.80025e-05
7.8274e-05
2.64302e-05
-3.80946e-05
8.33162e-05
1.3498e-05
-3.80736e-05
8.64277e-05
1.37788e-13
-3.80404e-05
8.79142e-05
-1.3498e-05
-3.80404e-05
8.79142e-05
-2.64302e-05
-3.80736e-05
8.64277e-05
-3.80946e-05
-3.80946e-05
8.33162e-05
-4.75019e-05
-3.80025e-05
7.8274e-05
-3.76966e-05
7.06874e-05
-5.30513e-05
4.71304e-05
-4.64638e-05
6.4902e-05
-5.23269e-05
3.80025e-05
-4.71304e-05
7.284e-05
2.65048e-05
-4.75019e-05
7.8274e-05
1.35836e-05
-4.76219e-05
8.17192e-05
2.23238e-13
-4.76558e-05
8.33962e-05
-1.35836e-05
-4.76558e-05
8.33962e-05
-2.65048e-05
-4.76219e-05
8.17192e-05
-3.80025e-05
-4.75019e-05
7.8274e-05
-4.71304e-05
-4.71304e-05
7.284e-05
-4.64638e-05
6.4902e-05
-5.23269e-05
4.64638e-05
5.7055e-05
-5.14904e-05
-5.14904e-05
3.76966e-05
6.4902e-05
-5.23269e-05
2.65017e-05
7.06874e-05
-5.30513e-05
1.36506e-05
7.45177e-05
-5.33174e-05
3.49004e-13
7.64234e-05
-5.34357e-05
-1.36506e-05
7.64234e-05
-5.34357e-05
-2.65017e-05
7.45177e-05
-5.33174e-05
-3.76966e-05
7.06874e-05
-5.30513e-05
-4.64638e-05
6.4902e-05
-5.23269e-05
5.7055e-05
-5.14904e-05
-5.14904e-05
1.74555e-05
1.74555e-05
5.59098e-05
-1.68829e-05
-1.68829e-05
1.5611e-05
1.95121e-05
6.58054e-05
-1.85709e-05
1.16371e-05
2.09099e-05
7.35987e-05
-1.98472e-05
6.2009e-06
2.18255e-05
7.89052e-05
-2.07768e-05
1.39416e-12
2.22682e-05
8.15788e-05
-2.12227e-05
-6.2009e-06
2.22682e-05
8.15788e-05
-2.12227e-05
-1.1637e-05
2.18255e-05
7.89052e-05
-2.07768e-05
-1.5611e-05
2.09099e-05
7.35987e-05
-1.98472e-05
-1.74555e-05
1.95121e-05
6.58054e-05
-1.85709e-05
1.74555e-05
5.59098e-05
-1.68829e-05
-1.68829e-05
1.95121e-05
1.5611e-05
6.58054e-05
-1.85709e-05
1.74857e-05
1.74857e-05
7.68926e-05
1.30084e-05
1.87072e-05
8.4954e-05
6.90927e-06
1.94675e-05
9.01764e-05
1.1871e-12
1.98342e-05
9.27395e-05
-6.90927e-06
1.98342e-05
9.27395e-05
-1.30084e-05
1.94675e-05
9.01764e-05
-1.74857e-05
1.87072e-05
8.4954e-05
-1.95121e-05
1.74857e-05
7.68926e-05
1.5611e-05
6.58054e-05
-1.85709e-05
2.09099e-05
1.1637e-05
7.35987e-05
-1.98472e-05
1.87072e-05
1.30084e-05
8.4954e-05
1.38916e-05
1.38916e-05
9.29473e-05
7.36653e-06
1.44293e-05
9.7991e-05
1.06911e-12
1.469e-05
0.000100425
-7.36652e-06
1.469e-05
0.000100425
-1.38916e-05
1.44293e-05
9.7991e-05
-1.87072e-05
1.38916e-05
9.29473e-05
-2.09099e-05
1.30084e-05
8.4954e-05
1.1637e-05
7.35987e-05
-1.98472e-05
2.18255e-05
6.2009e-06
7.89052e-05
-2.07768e-05
1.94675e-05
6.90927e-06
9.01764e-05
1.44293e-05
7.36652e-06
9.7991e-05
7.64217e-06
7.64217e-06
0.000102854
9.78493e-13
7.77653e-06
0.000105178
-7.64217e-06
7.77653e-06
0.000105178
-1.44293e-05
7.64217e-06
0.000102854
-1.94675e-05
7.36652e-06
9.7991e-05
-2.18255e-05
6.90927e-06
9.01764e-05
6.2009e-06
7.89052e-05
-2.07768e-05
2.22682e-05
-1.02339e-12
8.15788e-05
-2.12227e-05
1.98342e-05
-1.14816e-12
9.27395e-05
1.469e-05
-1.24705e-12
0.000100425
7.77654e-06
-1.28402e-12
0.000105178
9.613e-13
-1.28478e-12
0.00010744
-7.77653e-06
-1.27642e-12
0.00010744
-1.469e-05
-1.24106e-12
0.000105178
-1.98342e-05
-1.19949e-12
0.000100425
-2.22682e-05
-1.16165e-12
9.27395e-05
-1.11015e-12
8.15788e-05
-2.12227e-05
2.22682e-05
-6.2009e-06
8.15788e-05
-2.12227e-05
1.98342e-05
-6.90927e-06
9.27395e-05
1.469e-05
-7.36653e-06
0.000100425
7.77654e-06
-7.64217e-06
0.000105178
9.65324e-13
-7.77654e-06
0.00010744
-7.77653e-06
-7.77654e-06
0.00010744
-1.469e-05
-7.64217e-06
0.000105178
-1.98342e-05
-7.36653e-06
0.000100425
-2.22682e-05
-6.90927e-06
9.27395e-05
-6.2009e-06
8.15788e-05
-2.12227e-05
2.18255e-05
-1.16371e-05
7.89052e-05
-2.07768e-05
1.94675e-05
-1.30084e-05
9.01764e-05
1.44293e-05
-1.38916e-05
9.7991e-05
7.64217e-06
-1.44293e-05
0.000102854
1.03227e-12
-1.469e-05
0.000105178
-7.64217e-06
-1.469e-05
0.000105178
-1.44293e-05
-1.44293e-05
0.000102854
-1.94675e-05
-1.38916e-05
9.7991e-05
-2.18255e-05
-1.30084e-05
9.01764e-05
-1.16371e-05
7.89052e-05
-2.07768e-05
2.09099e-05
-1.5611e-05
7.35987e-05
-1.98472e-05
1.87072e-05
-1.74857e-05
8.4954e-05
1.38916e-05
-1.87072e-05
9.29473e-05
7.36653e-06
-1.94675e-05
9.7991e-05
1.14766e-12
-1.98342e-05
0.000100425
-7.36652e-06
-1.98342e-05
0.000100425
-1.38916e-05
-1.94675e-05
9.7991e-05
-1.87072e-05
-1.87072e-05
9.29473e-05
-2.09099e-05
-1.74857e-05
8.4954e-05
-1.5611e-05
7.35987e-05
-1.98472e-05
1.95121e-05
-1.74555e-05
6.58054e-05
-1.85709e-05
1.74857e-05
-1.95121e-05
7.68926e-05
1.30084e-05
-2.09099e-05
8.4954e-05
6.90928e-06
-2.18255e-05
9.01764e-05
1.31244e-12
-2.22682e-05
9.27395e-05
-6.90927e-06
-2.22682e-05
9.27395e-05
-1.30084e-05
-2.18255e-05
9.01764e-05
-1.74857e-05
-2.09099e-05
8.4954e-05
-1.95121e-05
-1.95121e-05
7.68926e-05
-1.74555e-05
6.58054e-05
-1.85709e-05
1.74555e-05
5.59098e-05
-1.68829e-05
-1.68829e-05
1.5611e-05
6.58054e-05
-1.85709e-05
1.16371e-05
7.35987e-05
-1.98472e-05
6.2009e-06
7.89052e-05
-2.07768e-05
1.57139e-12
8.15788e-05
-2.12227e-05
-6.2009e-06
8.15788e-05
-2.12227e-05
-1.1637e-05
7.89052e-05
-2.07768e-05
-1.5611e-05
7.35987e-05
-1.98472e-05
-1.74555e-05
6.58054e-05
-1.85709e-05
5.59098e-05
-1.68829e-05
-1.68829e-05
9.76139e-06
9.76138e-06
5.4221e-05
-8.91696e-06
-8.91696e-06
8.99678e-06
1.14978e-05
6.53704e-05
-1.02982e-05
6.88505e-06
1.276e-05
7.43729e-05
-1.14225e-05
3.72983e-06
1.36069e-05
8.06636e-05
-1.22101e-05
3.41799e-12
1.4028e-05
8.38838e-05
-1.26031e-05
-3.72983e-06
1.4028e-05
8.38838e-05
-1.26031e-05
-6.88504e-06
1.36069e-05
8.06636e-05
-1.22101e-05
-8.99678e-06
1.276e-05
7.43729e-05
-1.14225e-05
-9.76138e-06
1.14978e-05
6.53704e-05
-1.02982e-05
9.76138e-06
5.4221e-05
-8.91696e-06
-8.91696e-06
1.14978e-05
8.99678e-06
6.53704e-05
-1.02982e-05
1.0687e-05
1.0687e-05
7.85141e-05
8.17713e-06
1.18597e-05
8.83642e-05
4.41892e-06
1.26115e-05
9.493e-05
2.94037e-12
1.29798e-05
9.82066e-05
-4.41891e-06
1.29798e-05
9.82066e-05
-8.17712e-06
1.26115e-05
9.493e-05
-1.0687e-05
1.18597e-05
8.83642e-05
-1.14978e-05
1.0687e-05
7.85141e-05
8.99678e-06
6.53704e-05
-1.02982e-05
1.27601e-05
6.88504e-06
7.43729e-05
-1.14225e-05
1.18597e-05
8.17712e-06
8.83642e-05
9.05795e-06
9.05794e-06
9.85508e-05
4.88511e-06
9.60609e-06
0.000105169
2.66185e-12
9.87014e-06
0.00010842
-4.8851e-06
9.87014e-06
0.00010842
-9.05794e-06
9.60609e-06
0.000105169
-1.18597e-05
9.05794e-06
9.85508e-05
-1.276e-05
8.17712e-06
8.83642e-05
6.88504e-06
7.43729e-05
-1.14225e-05
1.36069e-05
3.72983e-06
8.06636e-05
-1.22101e-05
1.26115e-05
4.41891e-06
9.493e-05
9.6061e-06
4.8851e-06
0.000105169
5.16934e-06
5.16933e-06
0.000111727
2.52842e-12
5.30291e-06
0.000114914
-5.16933e-06
5.30291e-06
0.000114914
-9.60609e-06
5.16933e-06
0.000111727
-1.26115e-05
4.8851e-06
0.000105169
-1.36069e-05
4.41891e-06
9.493e-05
3.72983e-06
8.06636e-05
-1.22101e-05
1.4028e-05
-2.83325e-12
8.38838e-05
-1.26031e-05
1.29798e-05
-2.95014e-12
9.82066e-05
9.87015e-06
-2.94929e-12
0.00010842
5.30292e-06
-2.89545e-12
0.000114914
2.51036e-12
-2.81063e-12
0.000118045
-5.30291e-06
-2.73665e-12
0.000118045
-9.87014e-06
-2.67516e-12
0.000114914
-1.29798e-05
-2.63114e-12
0.00010842
-1.4028e-05
-2.60235e-12
9.82066e-05
-2.56014e-12
8.38838e-05
-1.26031e-05
1.4028e-05
-3.72983e-06
8.38838e-05
-1.26031e-05
1.29798e-05
-4.41892e-06
9.82066e-05
9.87015e-06
-4.88511e-06
0.00010842
5.30292e-06
-5.16934e-06
0.000114914
2.58023e-12
-5.30292e-06
0.000118045
-5.30291e-06
-5.30292e-06
0.000118045
-9.87014e-06
-5.16934e-06
0.000114914
-1.29798e-05
-4.88511e-06
0.00010842
-1.4028e-05
-4.41892e-06
9.82066e-05
-3.72983e-06
8.38838e-05
-1.26031e-05
1.36069e-05
-6.88505e-06
8.06636e-05
-1.22101e-05
1.26115e-05
-8.17713e-06
9.493e-05
9.6061e-06
-9.05795e-06
0.000105169
5.16934e-06
-9.6061e-06
0.000111727
2.75682e-12
-9.87015e-06
0.000114914
-5.16933e-06
-9.87015e-06
0.000114914
-9.60609e-06
-9.6061e-06
0.000111727
-1.26115e-05
-9.05795e-06
0.000105169
-1.36069e-05
-8.17713e-06
9.493e-05
-6.88505e-06
8.06636e-05
-1.22101e-05
1.27601e-05
-8.99678e-06
7.43729e-05
-1.14225e-05
1.18597e-05
-1.0687e-05
8.83642e-05
9.05795e-06
-1.18597e-05
9.85508e-05
4.88511e-06
-1.26115e-05
0.000105169
3.02888e-12
-1.29798e-05
0.00010842
-4.8851e-06
-1.29798e-05
0.00010842
-9.05794e-06
-1.26115e-05
0.000105169
-1.18597e-05
-1.18597e-05
9.85508e-05
-1.276e-05
-1.0687e-05
8.83642e-05
-8.99678e-06
7.43729e-05
-1.14225e-05
1.14978e-05
-9.76138e-06
6.53704e-05
-1.02982e-05
1.0687e-05
-1.14978e-05
7.85141e-05
8.17713e-06
-1.27601e-05
8.83642e-05
4.41892e-06
-1.36069e-05
9.493e-05
3.41489e-12
-1.4028e-05
9.82066e-05
-4.41891e-06
-1.4028e-05
9.82066e-05
-8.17712e-06
-1.36069e-05
9.493e-05
-1.0687e-05
-1.27601e-05
8.83642e-05
-1.14978e-05
-1.14978e-05
7.85141e-05
-9.76139e-06
6.53704e-05
-1.02982e-05
9.76139e-06
5.42209e-05
-8.91696e-06
-8.91696e-06
8.99678e-06
6.53704e-05
-1.02982e-05
6.88505e-06
7.43729e-05
-1.14225e-05
3.72983e-06
8.06636e-05
-1.22101e-05
3.9601e-12
8.38838e-05
-1.26031e-05
-3.72983e-06
8.38838e-05
-1.26031e-05
-6.88504e-06
8.06636e-05
-1.22101e-05
-8.99678e-06
7.43729e-05
-1.14225e-05
-9.76138e-06
6.53704e-05
-1.02982e-05
5.4221e-05
-8.91696e-06
-8.91696e-06
2.27374e-06
2.27373e-06
5.3103e-05
-1.71477e-06
-1.71476e-06
2.42031e-06
3.04708e-06
6.43623e-05
-2.18554e-06
2.0212e-06
3.69619e-06
7.37105e-05
-2.63463e-06
1.14841e-06
4.16052e-06
8.0354e-05
-2.97812e-06
8.368e-12
4.39776e-06
8.37911e-05
-3.15669e-06
-1.1484e-06
4.39776e-06
8.37911e-05
-3.15669e-06
-2.02118e-06
4.16052e-06
8.0354e-05
-2.97812e-06
-2.4203e-06
3.69619e-06
7.37105e-05
-2.63464e-06
-2.27373e-06
3.04708e-06
6.43623e-05
-2.18554e-06
2.27373e-06
5.3103e-05
-1.71476e-06
-1.71476e-06
3.04709e-06
2.4203e-06
6.43623e-05
-2.18554e-06
3.29283e-06
3.29282e-06
7.80226e-05
2.74987e-06
3.98047e-06
8.86229e-05
1.55548e-06
4.44336e-06
9.58416e-05
7.45318e-12
4.66954e-06
9.94903e-05
-1.55547e-06
4.66954e-06
9.94903e-05
-2.74986e-06
4.44336e-06
9.58416e-05
-3.29282e-06
3.98047e-06
8.86229e-05
-3.04708e-06
3.29282e-06
7.80226e-05
2.4203e-06
6.43623e-05
-2.18554e-06
3.6962e-06
2.02118e-06
7.37105e-05
-2.63464e-06
3.98048e-06
2.74986e-06
8.86229e-05
3.30517e-06
3.30516e-06
9.99014e-05
1.85889e-06
3.65933e-06
0.0001074
6.85511e-12
3.81959e-06
0.000111129
-1.85888e-06
3.81959e-06
0.000111129
-3.30516e-06
3.65933e-06
0.0001074
-3.98047e-06
3.30516e-06
9.99014e-05
-3.69619e-06
2.74986e-06
8.86229e-05
2.02118e-06
7.37105e-05
-2.63463e-06
4.16053e-06
1.1484e-06
8.0354e-05
-2.97812e-06
4.44337e-06
1.55547e-06
9.58416e-05
3.65935e-06
1.85888e-06
0.0001074
2.04334e-06
2.04333e-06
0.000114959
6.45127e-12
2.11626e-06
0.000118661
-2.04333e-06
2.11626e-06
0.000118661
-3.65933e-06
2.04333e-06
0.000114959
-4.44336e-06
1.85888e-06
0.0001074
-4.16052e-06
1.55547e-06
9.58416e-05
1.1484e-06
8.0354e-05
-2.97812e-06
4.39777e-06
-4.49264e-12
8.37911e-05
-3.15669e-06
4.66955e-06
-4.37829e-12
9.94903e-05
3.8196e-06
-4.31392e-12
0.000111129
2.11627e-06
-4.21289e-12
0.000118661
6.29966e-12
-4.14647e-12
0.000122278
-2.11626e-06
-4.14604e-12
0.000122278
-3.81959e-06
-4.15946e-12
0.000118661
-4.66954e-06
-4.22425e-12
0.000111129
-4.39776e-06
-4.36815e-12
9.94903e-05
-4.51499e-12
8.37911e-05
-3.15669e-06
4.39777e-06
-1.14841e-06
8.37911e-05
-3.15669e-06
4.66955e-06
-1.55548e-06
9.94903e-05
3.8196e-06
-1.85889e-06
0.000111129
2.11627e-06
-2.04334e-06
0.000118661
6.29845e-12
-2.11627e-06
0.000122278
-2.11626e-06
-2.11627e-06
0.000122278
-3.81959e-06
-2.04334e-06
0.000118661
-4.66954e-06
-1.85889e-06
0.000111129
-4.39776e-06
-1.55548e-06
9.94903e-05
-1.14841e-06
8.37911e-05
-3.15669e-06
4.16053e-06
-2.02119e-06
8.0354e-05
-2.97812e-06
4.44337e-06
-2.74987e-06
9.58416e-05
3.65935e-06
-3.30517e-06
0.0001074
2.04334e-06
-3.65934e-06
0.000114959
6.52314e-12
-3.81959e-06
0.000118661
-2.04333e-06
-3.81959e-06
0.000118661
-3.65933e-06
-3.65934e-06
0.000114959
-4.44335e-06
-3.30517e-06
0.0001074
-4.16052e-06
-2.74987e-06
9.58416e-05
-2.02119e-06
8.0354e-05
-2.97812e-06
3.6962e-06
-2.42031e-06
7.37105e-05
-2.63464e-06
3.98048e-06
-3.29283e-06
8.86229e-05
3.30517e-06
-3.98048e-06
9.99014e-05
1.85889e-06
-4.44336e-06
0.0001074
6.92879e-12
-4.66955e-06
0.000111129
-1.85888e-06
-4.66955e-06
0.000111129
-3.30516e-06
-4.44336e-06
0.0001074
-3.98047e-06
-3.98048e-06
9.99014e-05
-3.69619e-06
-3.29283e-06
8.86229e-05
-2.42031e-06
7.37105e-05
-2.63463e-06
3.04709e-06
-2.27373e-06
6.43623e-05
-2.18554e-06
3.29283e-06
-3.04709e-06
7.80226e-05
2.74987e-06
-3.6962e-06
8.86229e-05
1.55548e-06
-4.16052e-06
9.58416e-05
7.55814e-12
-4.39776e-06
9.94903e-05
-1.55547e-06
-4.39776e-06
9.94903e-05
-2.74986e-06
-4.16052e-06
9.58416e-05
-3.29282e-06
-3.6962e-06
8.86229e-05
-3.04708e-06
-3.04709e-06
7.80226e-05
-2.27374e-06
6.43623e-05
-2.18554e-06
2.27374e-06
5.3103e-05
-1.71477e-06
-1.71477e-06
2.42031e-06
6.43623e-05
-2.18554e-06
2.0212e-06
7.37105e-05
-2.63464e-06
1.14841e-06
8.0354e-05
-2.97812e-06
8.46075e-12
8.37911e-05
-3.15669e-06
-1.1484e-06
8.37911e-05
-3.15669e-06
-2.02118e-06
8.0354e-05
-2.97812e-06
-2.4203e-06
7.37105e-05
-2.63464e-06
-2.27373e-06
6.43623e-05
-2.18554e-06
5.3103e-05
-1.71476e-06
-1.71477e-06
1.80879e-06
1.80877e-06
5.26895e-05
-1.60204e-06
-1.60202e-06
1.72066e-06
2.20865e-06
6.41344e-05
-1.89269e-06
1.35626e-06
2.5343e-06
7.36829e-05
-2.1423e-06
7.48779e-07
2.76473e-06
8.05167e-05
-2.31993e-06
1.487e-11
2.88103e-06
8.40693e-05
-2.41041e-06
-7.4875e-07
2.88103e-06
8.40693e-05
-2.41041e-06
-1.35623e-06
2.76473e-06
8.05167e-05
-2.31993e-06
-1.72064e-06
2.5343e-06
7.36829e-05
-2.14231e-06
-1.80877e-06
2.20866e-06
6.41344e-05
-1.89269e-06
1.80877e-06
5.26895e-05
-1.60202e-06
-1.60203e-06
2.20867e-06
1.72064e-06
6.41344e-05
-1.8927e-06
2.14956e-06
2.14955e-06
7.81408e-05
1.71035e-06
2.49243e-06
8.9104e-05
9.46189e-07
2.72506e-06
9.66454e-05
1.316e-11
2.83537e-06
0.000100482
-9.46163e-07
2.83537e-06
0.000100482
-1.71032e-06
2.72506e-06
9.66454e-05
-2.14954e-06
2.49243e-06
8.9104e-05
-2.20865e-06
2.14955e-06
7.81408e-05
1.72064e-06
6.41344e-05
-1.89269e-06
2.53432e-06
1.35623e-06
7.36829e-05
-2.14231e-06
2.49245e-06
1.71033e-06
8.9104e-05
1.98842e-06
1.9884e-06
0.000100909
1.09755e-06
2.16588e-06
0.00010885
1.202e-11
2.23725e-06
0.000112824
-1.09753e-06
2.23725e-06
0.000112824
-1.9884e-06
2.16588e-06
0.00010885
-2.49243e-06
1.9884e-06
0.000100909
-2.5343e-06
1.71033e-06
8.9104e-05
1.35624e-06
7.36829e-05
-2.1423e-06
2.76474e-06
7.48755e-07
8.05167e-05
-2.31994e-06
2.72508e-06
9.46167e-07
9.66454e-05
2.16589e-06
1.09753e-06
0.00010885
1.18723e-06
1.18721e-06
0.000116917
1.13616e-11
1.21097e-06
0.000120875
-1.1872e-06
1.21097e-06
0.000120875
-2.16587e-06
1.18721e-06
0.000116917
-2.72506e-06
1.09753e-06
0.00010885
-2.76473e-06
9.46168e-07
9.66454e-05
7.48756e-07
8.05167e-05
-2.31993e-06
2.88104e-06
-8.82869e-12
8.40693e-05
-2.41042e-06
2.83538e-06
-8.55662e-12
0.000100482
2.23727e-06
-8.22381e-12
0.000112824
1.21099e-06
-7.907e-12
0.000120875
1.11228e-11
-7.6686e-12
0.0001247
-1.21097e-06
-7.58909e-12
0.0001247
-2.23725e-06
-7.62752e-12
0.000120875
-2.83537e-06
-7.80029e-12
0.000112824
-2.88103e-06
-8.11609e-12
0.000100482
-8.47485e-12
8.40693e-05
-2.41041e-06
2.88104e-06
-7.48772e-07
8.40693e-05
-2.41042e-06
2.83538e-06
-9.46184e-07
0.000100482
2.23727e-06
-1.09754e-06
0.000112824
1.21099e-06
-1.18722e-06
0.000120875
1.12007e-11
-1.21099e-06
0.0001247
-1.21097e-06
-1.21099e-06
0.0001247
-2.23725e-06
-1.18722e-06
0.000120875
-2.83537e-06
-1.09754e-06
0.000112824
-2.88103e-06
-9.46184e-07
0.000100482
-7.48773e-07
8.40693e-05
-2.41041e-06
2.76474e-06
-1.35625e-06
8.05167e-05
-2.31994e-06
2.72508e-06
-1.71034e-06
9.66454e-05
2.16589e-06
-1.98842e-06
0.00010885
1.18723e-06
-2.16589e-06
0.000116917
1.16654e-11
-2.23727e-06
0.000120875
-1.1872e-06
-2.23727e-06
0.000120875
-2.16587e-06
-2.16589e-06
0.000116917
-2.72506e-06
-1.98842e-06
0.00010885
-2.76473e-06
-1.71034e-06
9.66454e-05
-1.35625e-06
8.05167e-05
-2.31993e-06
2.53431e-06
-1.72065e-06
7.36829e-05
-2.14231e-06
2.49245e-06
-2.14956e-06
8.9104e-05
1.98842e-06
-2.49245e-06
0.000100909
1.09755e-06
-2.72507e-06
0.00010885
1.24927e-11
-2.83538e-06
0.000112824
-1.09752e-06
-2.83538e-06
0.000112824
-1.9884e-06
-2.72507e-06
0.00010885
-2.49243e-06
-2.49245e-06
0.000100909
-2.5343e-06
-2.14956e-06
8.9104e-05
-1.72066e-06
7.36829e-05
-2.1423e-06
2.20867e-06
-1.80878e-06
6.41344e-05
-1.8927e-06
2.14956e-06
-2.20867e-06
7.81408e-05
1.71035e-06
-2.53431e-06
8.9104e-05
9.46189e-07
-2.76474e-06
9.66454e-05
1.37742e-11
-2.88104e-06
0.000100482
-9.46162e-07
-2.88104e-06
0.000100482
-1.71032e-06
-2.76474e-06
9.66454e-05
-2.14954e-06
-2.53431e-06
8.9104e-05
-2.20865e-06
-2.20867e-06
7.81408e-05
-1.80878e-06
6.41344e-05
-1.89269e-06
1.80879e-06
5.26895e-05
-1.60203e-06
-1.60204e-06
1.72066e-06
6.41344e-05
-1.8927e-06
1.35626e-06
7.36829e-05
-2.14231e-06
7.48779e-07
8.05167e-05
-2.31994e-06
1.55556e-11
8.40693e-05
-2.41042e-06
-7.48749e-07
8.40693e-05
-2.41042e-06
-1.35623e-06
8.05167e-05
-2.31994e-06
-1.72064e-06
7.36829e-05
-2.14231e-06
-1.80877e-06
6.41344e-05
-1.8927e-06
5.26895e-05
-1.60202e-06
-1.60203e-06
3.41145e-07
3.41113e-07
5.2476e-05
-2.34396e-07
-2.34373e-07
3.90712e-07
4.82222e-07
6.39128e-05
-3.1014e-07
3.41927e-07
6.13271e-07
7.35074e-05
-3.88969e-07
1.99624e-07
7.13929e-07
8.03976e-05
-4.52553e-07
2.79819e-11
7.67234e-07
8.3988e-05
-4.86394e-07
-1.99569e-07
7.67234e-07
8.3988e-05
-4.86395e-07
-3.41876e-07
7.13931e-07
8.03976e-05
-4.52555e-07
-3.90669e-07
6.13274e-07
7.35074e-05
-3.88972e-07
-3.41109e-07
4.82226e-07
6.39128e-05
-3.10145e-07
3.41119e-07
5.2476e-05
-2.34372e-07
-2.34379e-07
4.8225e-07
3.90675e-07
6.39128e-05
-3.10162e-07
5.6414e-07
5.64106e-07
7.7977e-05
4.96271e-07
7.18498e-07
8.90666e-05
2.89233e-07
8.32687e-07
9.67337e-05
2.50881e-11
8.9081e-07
0.000100648
-2.89183e-07
8.90811e-07
0.000100648
-4.96225e-07
8.32688e-07
9.67337e-05
-5.641e-07
7.185e-07
8.90667e-05
-4.82218e-07
5.6411e-07
7.79771e-05
3.90681e-07
6.39128e-05
-3.10139e-07
6.13297e-07
3.41886e-07
7.35074e-05
-3.88989e-07
7.18528e-07
4.96235e-07
8.90666e-05
6.31436e-07
6.31403e-07
0.000101084
3.66713e-07
7.28469e-07
0.000109219
2.30125e-11
7.73859e-07
0.000113308
-3.66668e-07
7.73859e-07
0.000113308
-6.31394e-07
7.2847e-07
0.000109219
-7.18491e-07
6.31404e-07
0.000101084
-6.13267e-07
4.96237e-07
8.90667e-05
3.4189e-07
7.35074e-05
-3.88967e-07
7.13953e-07
1.99582e-07
8.03976e-05
-4.52571e-07
8.32715e-07
2.89195e-07
9.67337e-05
7.285e-07
3.66679e-07
0.000109219
4.2157e-07
4.21537e-07
0.000117531
2.16299e-11
4.43876e-07
0.000121626
-4.21527e-07
4.43876e-07
0.000121626
-7.28461e-07
4.21537e-07
0.000117531
-8.3268e-07
3.66679e-07
0.000109219
-7.13925e-07
2.89196e-07
9.67337e-05
1.99584e-07
8.03976e-05
-4.52551e-07
7.67256e-07
-1.34293e-11
8.3988e-05
-4.86411e-07
8.90838e-07
-1.24422e-11
0.000100648
7.73889e-07
-1.1769e-11
0.000113308
4.43908e-07
-1.12627e-11
0.000121626
2.10161e-11
-1.10205e-11
0.000125588
-4.43867e-07
-1.10544e-11
0.000125588
-7.7385e-07
-1.12732e-11
0.000121626
-8.90804e-07
-1.1774e-11
0.000113308
-7.67229e-07
-1.26084e-11
0.000100648
-1.36419e-11
8.3988e-05
-4.86391e-07
7.67256e-07
-1.99608e-07
8.3988e-05
-4.86411e-07
8.90837e-07
-2.89219e-07
0.000100648
7.73889e-07
-3.66702e-07
0.000113308
4.43908e-07
-4.21559e-07
0.000121626
2.09813e-11
-4.43898e-07
0.000125588
-4.43867e-07
-4.43898e-07
0.000125588
-7.7385e-07
-4.21559e-07
0.000121626
-8.90804e-07
-3.66702e-07
0.000113308
-7.67229e-07
-2.8922e-07
0.000100648
-1.9961e-07
8.3988e-05
-4.86391e-07
7.13952e-07
-3.41911e-07
8.03976e-05
-4.5257e-07
8.32715e-07
-4.96257e-07
9.67337e-05
7.285e-07
-6.31424e-07
0.000109219
4.2157e-07
-7.2849e-07
0.000117531
2.16497e-11
-7.73879e-07
0.000121626
-4.21527e-07
-7.73879e-07
0.000121626
-7.2846e-07
-7.2849e-07
0.000117531
-8.3268e-07
-6.31426e-07
0.000109219
-7.13924e-07
-4.9626e-07
9.67337e-05
-3.41915e-07
8.03976e-05
-4.5255e-07
6.13296e-07
-3.90697e-07
7.35074e-05
-3.88987e-07
7.18527e-07
-5.64127e-07
8.90666e-05
6.31436e-07
-7.18517e-07
0.000101084
3.66713e-07
-8.32705e-07
0.000109219
2.29672e-11
-8.90828e-07
0.000113308
-3.66668e-07
-8.90829e-07
0.000113308
-6.31394e-07
-8.32706e-07
0.000109219
-7.1849e-07
-7.18519e-07
0.000101084
-6.13266e-07
-5.6413e-07
8.90667e-05
-3.90702e-07
7.35074e-05
-3.88966e-07
4.82248e-07
-3.41131e-07
6.39128e-05
-3.1016e-07
5.64138e-07
-4.82238e-07
7.7977e-05
4.9627e-07
-6.13287e-07
8.90666e-05
2.89232e-07
-7.13944e-07
9.67337e-05
2.50398e-11
-7.67249e-07
0.000100648
-2.89183e-07
-7.67249e-07
0.000100648
-4.96225e-07
-7.13946e-07
9.67337e-05
-5.64098e-07
-6.1329e-07
8.90667e-05
-4.82216e-07
-4.82243e-07
7.7977e-05
-3.41137e-07
6.39128e-05
-3.10137e-07
3.41142e-07
5.2476e-05
-2.34386e-07
-2.34394e-07
3.9071e-07
6.39128e-05
-3.10152e-07
3.41925e-07
7.35074e-05
-3.88981e-07
1.99623e-07
8.03976e-05
-4.52564e-07
2.78853e-11
8.3988e-05
-4.86405e-07
-1.99569e-07
8.3988e-05
-4.86406e-07
-3.41875e-07
8.03976e-05
-4.52566e-07
-3.90666e-07
7.35074e-05
-3.88983e-07
-3.41107e-07
6.39128e-05
-3.10157e-07
5.2476e-05
-2.34369e-07
-2.34391e-07
4.21144e-07
4.21093e-07
5.23956e-05
-3.80915e-07
-3.80878e-07
3.93727e-07
5.05846e-07
6.38798e-05
-4.45498e-07
3.06972e-07
5.74917e-07
7.35195e-05
-5.00341e-07
1.68516e-07
6.24548e-07
8.04506e-05
-5.39124e-07
4.64305e-11
6.49996e-07
8.40654e-05
-5.58887e-07
-1.68426e-07
6.49997e-07
8.40654e-05
-5.58888e-07
-3.06888e-07
6.2455e-07
8.04507e-05
-5.39127e-07
-3.93654e-07
5.74921e-07
7.35196e-05
-5.00345e-07
-4.21085e-07
5.05853e-07
6.38799e-05
-4.45504e-07
4.21102e-07
5.23956e-05
-3.80873e-07
-3.80886e-07
5.05892e-07
3.93666e-07
6.38798e-05
-4.45532e-07
4.82843e-07
4.82788e-07
7.80231e-05
3.80446e-07
5.55849e-07
8.91881e-05
2.09657e-07
6.0767e-07
9.69213e-05
4.16362e-11
6.33246e-07
0.000100874
-2.09576e-07
6.33247e-07
0.000100874
-3.8037e-07
6.07672e-07
9.69213e-05
-4.82776e-07
5.55853e-07
8.91881e-05
-5.05838e-07
4.82794e-07
7.80232e-05
3.93675e-07
6.38799e-05
-4.45493e-07
5.74958e-07
3.06904e-07
7.35195e-05
-5.00371e-07
5.55899e-07
3.80385e-07
8.91881e-05
4.41092e-07
4.41037e-07
0.000101313
2.43405e-07
4.82957e-07
0.000109541
3.81173e-11
5.01357e-07
0.000113683
-2.4333e-07
5.01357e-07
0.000113683
-4.41022e-07
4.82958e-07
0.000109541
-5.55837e-07
4.41039e-07
0.000101313
-5.74908e-07
3.8039e-07
8.91881e-05
3.06911e-07
7.35196e-05
-5.00335e-07
6.24586e-07
1.68446e-07
8.04506e-05
-5.39152e-07
6.07716e-07
2.09594e-07
9.69213e-05
4.83009e-07
2.43347e-07
0.000109541
2.66006e-07
2.65952e-07
0.000117965
3.5897e-11
2.73872e-07
0.00012212
-2.65936e-07
2.73872e-07
0.00012212
-4.82943e-07
2.65952e-07
0.000117965
-6.07658e-07
2.43348e-07
0.000109541
-6.24539e-07
2.09596e-07
9.69213e-05
1.68449e-07
8.04507e-05
-5.39118e-07
6.50032e-07
-2.33271e-11
8.40654e-05
-5.58913e-07
6.3329e-07
-2.15536e-11
0.000100874
5.01406e-07
-2.01204e-11
0.000113683
2.73925e-07
-1.91153e-11
0.00012212
3.48914e-11
-1.85636e-11
0.000126135
-2.73856e-07
-1.85181e-11
0.000126135
-5.01342e-07
-1.89291e-11
0.00012212
-6.33234e-07
-1.98413e-11
0.000113683
-6.49986e-07
-2.12859e-11
0.000100874
-2.31331e-11
8.40654e-05
-5.5888e-07
6.50032e-07
-1.68491e-07
8.40654e-05
-5.58913e-07
6.3329e-07
-2.09636e-07
0.000100874
5.01406e-07
-2.43386e-07
0.000113683
2.73925e-07
-2.65989e-07
0.00012212
3.49361e-11
-2.73908e-07
0.000126135
-2.73856e-07
-2.73908e-07
0.000126135
-5.01342e-07
-2.65989e-07
0.00012212
-6.33234e-07
-2.43387e-07
0.000113683
-6.49986e-07
-2.09637e-07
0.000100874
-1.68494e-07
8.40654e-05
-5.5888e-07
6.24585e-07
-3.06947e-07
8.04506e-05
-5.39151e-07
6.07715e-07
-3.80425e-07
9.69213e-05
4.83008e-07
-4.41074e-07
0.000109541
2.66006e-07
-4.82992e-07
0.000117965
3.61027e-11
-5.01391e-07
0.00012212
-2.65935e-07
-5.01391e-07
0.00012212
-4.82942e-07
-4.82993e-07
0.000117965
-6.07657e-07
-4.41076e-07
0.000109541
-6.24537e-07
-3.80428e-07
9.69213e-05
-3.06953e-07
8.04507e-05
-5.39117e-07
5.74956e-07
-3.93703e-07
7.35195e-05
-5.00369e-07
5.55898e-07
-4.82823e-07
8.91881e-05
4.41091e-07
-5.55882e-07
0.000101313
2.43405e-07
-6.07701e-07
0.000109541
3.83936e-11
-6.33276e-07
0.000113683
-2.43329e-07
-6.33277e-07
0.000113683
-4.41021e-07
-6.07702e-07
0.000109541
-5.55836e-07
-5.55885e-07
0.000101313
-5.74906e-07
-4.82828e-07
8.91881e-05
-3.93711e-07
7.35196e-05
-5.00334e-07
5.05889e-07
-4.21122e-07
6.38798e-05
-4.45529e-07
4.82841e-07
-5.05874e-07
7.80231e-05
3.80444e-07
-5.74943e-07
8.91881e-05
2.09656e-07
-6.24573e-07
9.69213e-05
4.19248e-11
-6.5002e-07
0.000100874
-2.09574e-07
-6.50021e-07
0.000100874
-3.80368e-07
-6.24575e-07
9.69213e-05
-4.82774e-07
-5.74946e-07
8.91881e-05
-5.05835e-07
-5.0588e-07
7.80232e-05
-4.21131e-07
6.38799e-05
-4.4549e-07
4.21139e-07
5.23956e-05
-3.80898e-07
-3.80911e-07
3.93723e-07
6.38798e-05
-4.45517e-07
3.06969e-07
7.35195e-05
-5.00359e-07
1.68515e-07
8.04506e-05
-5.39142e-07
4.66235e-11
8.40654e-05
-5.58905e-07
-1.68424e-07
8.40654e-05
-5.58905e-07
-3.06885e-07
8.04506e-05
-5.39144e-07
-3.9365e-07
7.35196e-05
-5.00363e-07
-4.2108e-07
6.38799e-05
-4.45523e-07
5.23956e-05
-3.80869e-07
-3.80906e-07
7.39159e-08
7.38334e-08
5.23472e-05
-4.97049e-08
-4.96449e-08
8.54405e-08
1.0512e-07
6.38295e-05
-6.63429e-08
7.48773e-08
1.34173e-07
7.34799e-05
-8.39957e-08
4.37487e-08
1.56712e-07
8.04235e-05
-9.846e-08
7.46534e-11
1.68824e-07
8.40465e-05
-1.06236e-07
-4.36032e-08
1.68826e-07
8.40465e-05
-1.06237e-07
-7.47425e-08
1.56716e-07
8.04235e-05
-9.84644e-08
-8.53234e-08
1.3418e-07
7.348e-05
-8.4003e-08
-7.38216e-08
1.05131e-07
6.38296e-05
-6.63547e-08
7.38491e-08
5.23472e-05
-4.96389e-08
-4.96588e-08
1.05195e-07
8.53428e-08
6.38295e-05
-6.63995e-08
1.23602e-07
1.23514e-07
7.79863e-05
1.08695e-07
1.57506e-07
8.91797e-05
6.33771e-08
1.83169e-07
9.69402e-05
6.77536e-11
1.96668e-07
0.00010091
-6.32446e-08
1.96669e-07
0.00010091
-1.08571e-07
1.83172e-07
9.69402e-05
-1.23494e-07
1.57512e-07
8.91797e-05
-1.05107e-07
1.23523e-07
7.79864e-05
8.53565e-08
6.38296e-05
-6.63367e-08
1.3424e-07
7.47694e-08
7.34799e-05
-8.40454e-08
1.57586e-07
1.08598e-07
8.91797e-05
1.38619e-07
1.38531e-07
0.000101351
8.07366e-08
1.60967e-07
0.000109621
6.24891e-11
1.7228e-07
0.000113788
-8.06144e-08
1.72281e-07
0.000113788
-1.38505e-07
1.60969e-07
0.000109621
-1.57486e-07
1.38534e-07
0.000101351
-1.34159e-07
1.08604e-07
8.91797e-05
7.47795e-08
7.348e-05
-8.39876e-08
1.56773e-07
4.36366e-08
8.04235e-05
-9.85058e-08
1.83243e-07
6.3276e-08
9.69402e-05
1.61049e-07
8.0644e-08
0.000109621
9.39645e-08
9.38774e-08
0.000118099
5.89633e-11
1.00304e-07
0.000122285
-9.38489e-08
1.00304e-07
0.000122285
-1.60941e-07
9.38782e-08
0.000118099
-1.83148e-07
8.06457e-08
0.000109621
-1.56696e-07
6.32792e-08
9.69402e-05
4.36418e-08
8.04236e-05