/*--------------------------------*- C++ -*----------------------------------*\
| =========                 |                                                 |
| \\      /  F ield         | OpenFOAM: The Open Source CFD Toolbox           |
|  \\    /   O peration     | Version:  2406                                  |
|   \\  /    A nd           | Website:  www.openfoam.com                      |
|    \\/     M anipulation  |                                                 |
\*---------------------------------------------------------------------------*/
FoamFile
{
    version     2.0;
    format      ascii;
    arch        "LSB;label=32;scalar=64";
    class       volSymmTensorField;
    location    "2";
    object      turbulenceProperties:R;
}
// * * * * * * * * * * * * * * * * * * * * * * * * * * * * * * * * * * * * * //

dimensions      [0 2 -2 0 0 0 0];

internalField   uniform (0 -0 -0 0 -0 0);

boundaryField
{
    walls
    {
        type            calculated;
        value           nonuniform List<symmTensor> 
2000
(
(-8.57814e-08 7.13915e-08 2.96519e-07 -5.45552e-08 -2.50416e-07 1.40337e-07)
(-1.48118e-07 9.04417e-08 4.6866e-07 -5.04315e-08 -2.88973e-07 1.9855e-07)
(-2.2472e-07 9.40331e-08 6.72753e-07 -3.32467e-08 -2.81247e-07 2.57967e-07)
(-2.95107e-07 7.27076e-08 8.52688e-07 -1.06402e-08 -2.06803e-07 3.05748e-07)
(-3.38005e-07 2.73266e-08 9.58424e-07 5.72803e-09 -7.62257e-08 3.32277e-07)
(-3.38005e-07 -2.73266e-08 9.58424e-07 5.72803e-09 7.62257e-08 3.32277e-07)
(-2.95107e-07 -7.27076e-08 8.52688e-07 -1.06402e-08 2.06803e-07 3.05748e-07)
(-2.2472e-07 -9.40331e-08 6.72753e-07 -3.32467e-08 2.81247e-07 2.57967e-07)
(-1.48118e-07 -9.04417e-08 4.6866e-07 -5.04315e-08 2.88973e-07 1.9855e-07)
(-8.57814e-08 -7.13915e-08 2.96519e-07 -5.45552e-08 2.50416e-07 1.40337e-07)
(-2.65059e-09 1.14305e-09 1.2721e-07 -1.93539e-10 -1.07006e-07 2.84413e-09)
(-4.96873e-09 8.57955e-10 1.94467e-07 2.50487e-10 -1.19432e-07 4.71825e-09)
(-6.63814e-09 9.81872e-10 2.78039e-07 -3.47563e-10 -1.15974e-07 6.9857e-09)
(-8.43987e-09 7.36469e-10 3.54163e-07 -5.23386e-10 -8.57648e-08 8.96326e-09)
(-9.51402e-09 3.15574e-10 3.99759e-07 -6.40897e-10 -3.1757e-08 1.01549e-08)
(-9.51402e-09 -3.15576e-10 3.99759e-07 -6.40897e-10 3.1757e-08 1.01549e-08)
(-8.43987e-09 -7.36471e-10 3.54163e-07 -5.23387e-10 8.57648e-08 8.96326e-09)
(-6.63814e-09 -9.81873e-10 2.78039e-07 -3.47565e-10 1.15974e-07 6.9857e-09)
(-4.96873e-09 -8.57956e-10 1.94467e-07 2.50486e-10 1.19432e-07 4.71825e-09)
(-2.65059e-09 -1.14305e-09 1.2721e-07 -1.93539e-10 1.07006e-07 2.84413e-09)
(-2.81689e-10 -9.75444e-12 4.46156e-08 -1.31544e-10 -3.74019e-08 4.13233e-10)
(-3.72024e-10 -6.89743e-11 6.64963e-08 -2.67714e-10 -4.07018e-08 6.39738e-10)
(-3.80578e-10 -1.55242e-11 9.44536e-08 -5.35559e-10 -3.93214e-08 9.16137e-10)
(-4.69093e-10 3.0254e-11 1.20767e-07 -6.88759e-10 -2.92193e-08 1.15785e-09)
(-5.5053e-10 2.5877e-11 1.36781e-07 -7.51492e-10 -1.08594e-08 1.30202e-09)
(-5.5053e-10 -2.58799e-11 1.36781e-07 -7.51492e-10 1.08594e-08 1.30202e-09)
(-4.69092e-10 -3.02563e-11 1.20767e-07 -6.8876e-10 2.92193e-08 1.15785e-09)
(-3.80577e-10 1.55228e-11 9.44536e-08 -5.3556e-10 3.93214e-08 9.16137e-10)
(-3.72023e-10 6.89737e-11 6.64963e-08 -2.67715e-10 4.07018e-08 6.39738e-10)
(-2.81688e-10 9.75436e-12 4.46156e-08 -1.31544e-10 3.74019e-08 4.13233e-10)
(-8.30196e-11 6.3711e-11 5.83153e-08 5.43398e-11 -4.89402e-08 2.86798e-11)
(-1.88713e-10 4.47484e-11 8.75601e-08 1.32436e-10 -5.36429e-08 5.62771e-11)
(-2.50157e-10 3.99121e-11 1.24418e-07 1.56919e-10 -5.18159e-08 9.32378e-11)
(-3.13401e-10 1.81138e-11 1.58663e-07 1.85725e-10 -3.83892e-08 1.27676e-10)
(-3.43749e-10 7.20508e-12 1.79367e-07 1.93298e-10 -1.42394e-08 1.50451e-10)
(-3.43748e-10 -7.21106e-12 1.79367e-07 1.93297e-10 1.42394e-08 1.50451e-10)
(-3.13398e-10 -1.81186e-11 1.58663e-07 1.85722e-10 3.83892e-08 1.27676e-10)
(-2.50154e-10 -3.99152e-11 1.24418e-07 1.56916e-10 5.18159e-08 9.32379e-11)
(-1.8871e-10 -4.47498e-11 8.75601e-08 1.32433e-10 5.36429e-08 5.62773e-11)
(-8.3018e-11 -6.37113e-11 5.83153e-08 5.43381e-11 4.89402e-08 2.86799e-11)
(-3.31137e-11 -1.09652e-11 4.54833e-08 -3.6487e-11 -3.81422e-08 6.96007e-11)
(-2.44109e-11 -1.21157e-11 6.79131e-08 -7.99446e-11 -4.15774e-08 1.04355e-10)
(-1.48653e-11 6.47172e-12 9.65368e-08 -1.29702e-10 -4.01947e-08 1.44567e-10)
(-2.74648e-11 1.82087e-11 1.23377e-07 -1.51382e-10 -2.98523e-08 1.78847e-10)
(-4.33588e-11 1.01435e-11 1.39698e-07 -1.55329e-10 -1.10916e-08 1.98688e-10)
(-4.33574e-11 -1.01528e-11 1.39698e-07 -1.55331e-10 1.10916e-08 1.98688e-10)
(-2.7461e-11 -1.82162e-11 1.23377e-07 -1.51386e-10 2.98523e-08 1.78847e-10)
(-1.48608e-11 -6.47636e-12 9.65368e-08 -1.29707e-10 4.01947e-08 1.44568e-10)
(-2.44067e-11 1.21136e-11 6.79131e-08 -7.9949e-11 4.15773e-08 1.04356e-10)
(-3.31112e-11 1.09648e-11 4.54833e-08 -3.64897e-11 3.81422e-08 6.96009e-11)
(-1.35376e-11 1.43578e-11 4.92584e-08 1.07443e-11 -4.13221e-08 2.79324e-12)
(-3.34193e-11 1.3182e-11 7.37444e-08 2.69985e-11 -4.51623e-08 6.42078e-12)
(-4.77012e-11 1.33123e-11 1.0488e-07 3.6269e-11 -4.36762e-08 1.14322e-11)
(-6.26348e-11 8.15956e-12 1.33993e-07 4.65822e-11 -3.24235e-08 1.60526e-11)
(-7.03244e-11 3.10993e-12 1.51669e-07 5.11292e-11 -1.20427e-08 1.91952e-11)
(-7.0322e-11 -3.12544e-12 1.51669e-07 5.11267e-11 1.20427e-08 1.91953e-11)
(-6.26286e-11 -8.17212e-12 1.33993e-07 4.65756e-11 3.24235e-08 1.60529e-11)
(-4.76935e-11 -1.33201e-11 1.0488e-07 3.62609e-11 4.36762e-08 1.14326e-11)
(-3.34123e-11 -1.31856e-11 7.37444e-08 2.69911e-11 4.51622e-08 6.42124e-12)
(-1.35332e-11 -1.43585e-11 4.92584e-08 1.07396e-11 4.1322e-08 2.79363e-12)
(-8.14466e-12 -3.03135e-12 4.60967e-08 -9.57395e-12 -3.86619e-08 1.77186e-11)
(-5.6452e-12 -3.25532e-12 6.8905e-08 -2.09213e-11 -4.21908e-08 2.65665e-11)
(-3.16973e-12 1.38042e-12 9.80043e-08 -3.36836e-11 -4.08105e-08 3.68533e-11)
(-6.15248e-12 4.51793e-12 1.25283e-07 -3.94897e-11 -3.03164e-08 4.56421e-11)
(-1.01351e-11 2.51425e-12 1.41872e-07 -4.05874e-11 -1.12653e-08 5.07224e-11)
(-1.01313e-11 -2.53888e-12 1.41872e-07 -4.05914e-11 1.12653e-08 5.07226e-11)
(-6.14255e-12 -4.53784e-12 1.25283e-07 -3.95001e-11 3.03164e-08 4.56427e-11)
(-3.15766e-12 -1.39275e-12 9.80043e-08 -3.36963e-11 4.08105e-08 3.6854e-11)
(-5.63425e-12 3.24964e-12 6.8905e-08 -2.0933e-11 4.21908e-08 2.65672e-11)
(-8.13785e-12 3.03029e-12 4.60967e-08 -9.58137e-12 3.86618e-08 1.77192e-11)
(-3.26914e-12 3.58504e-12 4.71022e-08 2.9394e-12 -3.95087e-08 3.29738e-13)
(-8.36858e-12 3.1659e-12 7.04563e-08 7.30391e-12 -4.31444e-08 1.06467e-12)
(-1.19535e-11 2.962e-12 1.0022e-07 9.79554e-12 -4.17349e-08 2.15801e-12)
(-1.54732e-11 1.63391e-12 1.28098e-07 1.22653e-11 -3.09981e-08 3.20789e-12)
(-1.72019e-11 5.85181e-13 1.45044e-07 1.32551e-11 -1.15173e-08 3.94675e-12)
(-1.7196e-11 -6.23226e-13 1.45044e-07 1.32489e-11 1.15173e-08 3.94703e-12)
(-1.54579e-11 -1.66475e-12 1.28098e-07 1.22491e-11 3.09981e-08 3.20873e-12)
(-1.19348e-11 -2.98115e-12 1.0022e-07 9.77572e-12 4.17349e-08 2.15908e-12)
(-8.35147e-12 -3.1748e-12 7.04562e-08 7.28564e-12 4.31444e-08 1.06583e-12)
(-3.25826e-12 -3.58675e-12 4.71021e-08 2.92755e-12 3.95087e-08 3.3071e-13)
(-2.05383e-12 -8.21577e-13 4.62929e-08 -2.47021e-12 -3.88278e-08 4.52403e-12)
(-1.38352e-12 -8.95852e-13 6.92172e-08 -5.40075e-12 -4.23836e-08 6.78427e-12)
(-7.20462e-13 2.64267e-13 9.84579e-08 -8.70127e-12 -4.10004e-08 9.42173e-12)
(-1.43376e-12 1.07913e-12 1.25864e-07 -1.02515e-11 -3.04575e-08 1.16853e-11)
(-2.42318e-12 5.96008e-13 1.4253e-07 -1.05748e-11 -1.13177e-08 1.29979e-11)
(-2.41435e-12 -6.53002e-13 1.42529e-07 -1.0584e-11 1.13177e-08 1.29984e-11)
(-1.41075e-12 -1.12532e-12 1.25864e-07 -1.02758e-11 3.04575e-08 1.16865e-11)
(-6.92389e-13 -2.92968e-13 9.84577e-08 -8.73095e-12 4.10004e-08 9.42334e-12)
(-1.35791e-12 8.8252e-13 6.9217e-08 -5.42811e-12 4.23835e-08 6.78602e-12)
(-2.03759e-12 8.19026e-13 4.62928e-08 -2.48791e-12 3.88277e-08 4.5255e-12)
(-8.04873e-13 9.23395e-13 4.65591e-08 7.69833e-13 -3.9052e-08 3.504e-14)
(-2.11467e-12 8.17583e-13 6.96277e-08 1.91611e-12 -4.26359e-08 1.9856e-13)
(-3.04244e-12 7.4869e-13 9.9044e-08 2.59149e-12 -4.12449e-08 4.50945e-13)
(-3.93748e-12 3.92141e-13 1.26609e-07 3.23991e-12 -3.06378e-08 6.97564e-13)
(-4.3677e-12 1.14172e-13 1.43368e-07 3.49303e-12 -1.13843e-08 8.74661e-13)
(-4.35536e-12 -1.93935e-13 1.43368e-07 3.48007e-12 1.13843e-08 8.75286e-13)
(-3.90528e-12 -4.56855e-13 1.26608e-07 3.2059e-12 3.06377e-08 6.99381e-13)
(-3.00311e-12 -7.88952e-13 9.90437e-08 2.54983e-12 4.12448e-08 4.53283e-13)
(-2.07871e-12 -8.36342e-13 6.96275e-08 1.87761e-12 4.26358e-08 2.01106e-13)
(-7.81988e-13 -9.2701e-13 4.65589e-08 7.44793e-13 3.90519e-08 3.71951e-14)
(-5.15168e-13 -2.17783e-13 4.63491e-08 -6.50356e-13 -3.88753e-08 1.16552e-12)
(-3.3455e-13 -2.34875e-13 6.93062e-08 -1.41214e-12 -4.24384e-08 1.74669e-12)
(-1.6356e-13 5.97855e-14 9.85866e-08 -2.26054e-12 -4.10543e-08 2.4241e-12)
(-3.45854e-13 2.59291e-13 1.26029e-07 -2.65917e-12 -3.04975e-08 3.00502e-12)
(-5.95326e-13 1.15477e-13 1.42715e-07 -2.74641e-12 -1.13325e-08 3.34173e-12)
(-5.78931e-13 -2.21585e-13 1.42715e-07 -2.76366e-12 1.13325e-08 3.34259e-12)
(-3.03083e-13 -3.45386e-13 1.26029e-07 -2.70443e-12 3.04974e-08 3.00751e-12)
(-1.11341e-13 -1.13331e-13 9.85863e-08 -2.31597e-12 4.10542e-08 2.42731e-12)
(-2.86853e-13 2.09951e-13 6.93058e-08 -1.46334e-12 4.24382e-08 1.7502e-12)
(-4.8508e-13 2.13029e-13 4.63488e-08 -6.83406e-13 3.88751e-08 1.16849e-12)
(-1.9706e-13 2.41816e-13 4.64194e-08 1.97838e-13 -3.89345e-08 -7.77661e-16)
(-5.4317e-13 2.13631e-13 6.94145e-08 5.0613e-13 -4.2505e-08 3.70402e-14)
(-7.93976e-13 1.84024e-13 9.87413e-08 6.96864e-13 -4.11188e-08 9.71127e-14)
(-1.0281e-12 7.34202e-14 1.26225e-07 8.71396e-13 -3.0545e-08 1.56707e-13)
(-1.13182e-12 -1.86083e-14 1.42937e-07 9.31393e-13 -1.13501e-08 2.00429e-13)
(-1.11206e-12 -1.09552e-13 1.42936e-07 9.10542e-13 1.13501e-08 2.01522e-13)
(-9.76509e-13 -1.77513e-13 1.26225e-07 8.16627e-13 3.0545e-08 1.59882e-13)
(-7.30953e-13 -2.48814e-13 9.87408e-08 6.29745e-13 4.11186e-08 1.01208e-13)
(-4.85477e-13 -2.43886e-13 6.9414e-08 4.43965e-13 4.25047e-08 4.15123e-14)
(-1.60727e-13 -2.47592e-13 4.64189e-08 1.5771e-13 3.89341e-08 3.01707e-15)
(-1.25474e-13 -5.60734e-14 4.63647e-08 -1.73354e-13 -3.88885e-08 2.98828e-13)
(-8.47727e-14 -6.24924e-14 6.93308e-08 -3.63605e-13 -4.24536e-08 4.48378e-13)
(-4.96946e-14 2.15893e-15 9.86222e-08 -5.73185e-13 -4.10692e-08 6.2288e-13)
(-9.88347e-14 3.60947e-14 1.26074e-07 -6.74251e-13 -3.05085e-08 7.73086e-13)
(-1.55656e-13 -2.13433e-14 1.42766e-07 -7.04999e-13 -1.13366e-08 8.60655e-13)
(-1.33943e-13 -1.19904e-13 1.42766e-07 -7.28e-13 1.13366e-08 8.61943e-13)
(-4.21178e-14 -1.5088e-13 1.26074e-07 -7.34704e-13 3.05084e-08 7.76822e-13)
(1.95495e-14 -7.35935e-14 9.86215e-08 -6.47247e-13 4.10689e-08 6.27697e-13)
(-2.13532e-14 2.90876e-14 6.933e-08 -4.32284e-13 4.24532e-08 4.53638e-13)
(-8.59754e-14 4.97553e-14 4.63641e-08 -2.17301e-13 3.8888e-08 3.03277e-13)
(-4.45247e-14 6.41845e-14 4.63834e-08 5.00662e-14 -3.89043e-08 -5.5415e-15)
(-1.41194e-13 5.48054e-14 6.93595e-08 1.38905e-13 -4.24713e-08 2.28859e-15)
(-2.1549e-13 3.58735e-14 9.86632e-08 1.99656e-13 -4.10863e-08 1.58343e-14)
(-2.78041e-13 -9.05009e-15 1.26126e-07 2.47849e-13 -3.05211e-08 3.01926e-14)
(-2.97824e-13 -5.02207e-14 1.42825e-07 2.56342e-13 -1.13412e-08 4.14818e-14)
(-2.77494e-13 -8.27501e-14 1.42825e-07 2.34654e-13 1.13412e-08 4.28401e-14)
(-2.24845e-13 -9.92266e-14 1.26125e-07 1.90724e-13 3.05209e-08 3.41211e-14)
(-1.50505e-13 -1.0334e-13 9.86622e-08 1.29619e-13 4.10859e-08 2.08861e-14)
(-8.13519e-14 -8.65881e-14 6.93586e-08 7.35702e-14 4.24707e-08 7.78161e-15)
(-7.50609e-15 -7.02044e-14 4.63825e-08 8.40688e-15 3.89035e-08 -9.0079e-16)
(-2.94011e-14 -1.45262e-14 4.63693e-08 -4.49085e-14 -3.88924e-08 7.43096e-14)
(-2.24156e-14 -1.79537e-14 6.93379e-08 -8.94551e-14 -4.2458e-08 1.11871e-13)
(-1.8435e-14 -8.85501e-15 9.86324e-08 -1.37413e-13 -4.10734e-08 1.55848e-13)
(-3.128e-14 -1.02475e-14 1.26087e-07 -1.62917e-13 -3.05116e-08 1.94196e-13)
(-4.08483e-14 -3.58391e-14 1.42781e-07 -1.76183e-13 -1.13377e-08 2.17032e-13)
(-2.53619e-14 -6.64802e-14 1.4278e-07 -1.92916e-13 1.13377e-08 2.18277e-13)
(9.36366e-15 -7.33594e-14 1.26086e-07 -2.07147e-13 3.05114e-08 1.97784e-13)
(3.12659e-14 -4.33454e-14 9.86312e-08 -1.91701e-13 4.10729e-08 1.60435e-13)
(2.37766e-14 -6.93085e-15 6.93367e-08 -1.40606e-13 4.24573e-08 1.16829e-13)
(-1.41278e-15 9.85035e-15 4.63682e-08 -7.70478e-14 3.88915e-08 7.84606e-14)
(-1.36714e-14 1.58173e-14 4.63743e-08 1.71729e-14 -3.88966e-08 -3.50144e-15)
(-3.85812e-14 1.21437e-14 6.93456e-08 4.11015e-14 -4.24628e-08 -2.52027e-15)
(-5.7684e-14 4.77875e-15 9.86434e-08 5.79263e-14 -4.1078e-08 -2.42302e-16)
(-7.19677e-14 -8.302e-15 1.26101e-07 6.93345e-14 -3.0515e-08 2.63316e-15)
(-7.50089e-14 -1.93106e-14 1.42796e-07 6.96681e-14 -1.13389e-08 5.34079e-15)
(-6.83356e-14 -2.65918e-14 1.42796e-07 6.21059e-14 1.1339e-08 6.2297e-15)
(-5.41349e-14 -2.99112e-14 1.261e-07 4.89588e-14 3.05148e-08 5.17608e-15)
(-3.5583e-14 -2.90387e-14 9.8642e-08 3.26157e-14 4.10775e-08 2.96733e-15)
(-1.69002e-14 -2.44489e-14 6.93442e-08 1.59958e-14 4.24619e-08 9.04378e-16)
(-9.04955e-16 -1.82129e-14 4.63731e-08 1.57766e-15 3.88956e-08 -6.72702e-16)
(-1.75508e-14 -6.23863e-15 4.63707e-08 -2.52652e-15 -3.88936e-08 2.00773e-14)
(-1.13419e-14 -8.4862e-15 6.93401e-08 -1.83636e-14 -4.24593e-08 2.97054e-14)
(-3.30228e-15 -2.70838e-15 9.86354e-08 -3.75008e-14 -4.10747e-08 4.08031e-14)
(-1.82118e-15 5.60524e-15 1.26091e-07 -4.84769e-14 -3.05125e-08 5.02981e-14)
(-5.24878e-15 1.08682e-14 1.42785e-07 -5.06892e-14 -1.1338e-08 5.5938e-14)
(-9.16655e-15 1.16466e-14 1.42785e-07 -4.70853e-14 1.1338e-08 5.62518e-14)
(-1.14283e-14 1.13117e-14 1.2609e-07 -3.97495e-14 3.05123e-08 5.11778e-14)
(-1.43191e-14 1.2332e-14 9.86339e-08 -2.75145e-14 4.10741e-08 4.18336e-14)
(-1.91161e-14 1.15157e-14 6.93385e-08 -1.16372e-14 4.24584e-08 3.07533e-14)
(-2.28444e-14 6.61793e-15 4.63694e-08 1.99347e-15 3.88925e-08 2.08509e-14)
(-2.19445e-14 2.25386e-16 4.63719e-08 1.93019e-14 -3.88946e-08 2.64256e-15)
(-2.03647e-14 -2.50986e-15 6.9342e-08 1.66585e-14 -4.24605e-08 3.70618e-15)
(-1.16998e-14 4.57262e-15 9.86383e-08 6.77109e-15 -4.10759e-08 4.92873e-15)
(-7.87739e-15 1.93754e-14 1.26094e-07 2.27924e-15 -3.05134e-08 5.59815e-15)
(-1.23682e-14 4.03449e-14 1.42789e-07 6.46147e-15 -1.13384e-08 5.9067e-15)
(-2.74116e-14 5.45751e-14 1.42789e-07 2.19392e-14 1.13384e-08 5.47239e-15)
(-4.62285e-14 5.57539e-14 1.26093e-07 4.18847e-14 3.05132e-08 4.34385e-15)
(-5.71695e-14 4.06192e-14 9.86367e-08 5.39922e-14 4.10753e-08 3.17725e-15)
(-5.8468e-14 2.14977e-14 6.93405e-08 5.67164e-14 4.24596e-08 1.75167e-15)
(-4.49233e-14 2.88367e-15 4.63706e-08 4.40565e-14 3.88935e-08 8.66768e-16)
(-3.0252e-14 -6.5852e-15 4.63708e-08 1.87169e-14 -3.88936e-08 1.15351e-14)
(-1.87462e-14 -9.88095e-15 6.93403e-08 2.83191e-15 -4.24595e-08 1.59143e-14)
(1.85307e-15 4.33671e-15 9.86359e-08 -2.24793e-14 -4.10749e-08 2.06262e-14)
(1.1778e-14 3.10766e-14 1.26092e-07 -3.54281e-14 -3.05127e-08 2.36501e-14)
(5.64049e-15 6.47265e-14 1.42786e-07 -3.04214e-14 -1.13381e-08 2.47809e-14)
(-1.79018e-14 8.63887e-14 1.42786e-07 -5.64627e-15 1.13381e-08 2.3548e-14)
(-4.84959e-14 8.91933e-14 1.2609e-07 2.83451e-14 3.05125e-08 2.01508e-14)
(-6.96738e-14 6.82683e-14 9.86345e-08 5.37205e-14 4.10743e-08 1.59533e-14)
(-7.95368e-14 4.11065e-14 6.93389e-08 6.86616e-14 4.24587e-08 1.08752e-14)
(-6.59064e-14 1.17415e-14 4.63696e-08 5.87608e-14 3.88927e-08 7.14559e-15)
(-3.46155e-14 -5.16243e-15 4.63708e-08 2.57255e-14 -3.88937e-08 8.89003e-15)
(-2.37207e-14 -8.88109e-15 6.93404e-08 1.1894e-14 -4.24595e-08 1.18266e-14)
(-8.20163e-16 7.82244e-15 9.86361e-08 -1.40462e-14 -4.1075e-08 1.48664e-14)
(1.00051e-14 3.89582e-14 1.26092e-07 -2.60887e-14 -3.05128e-08 1.60836e-14)
(2.58639e-15 7.99703e-14 1.42786e-07 -1.84403e-14 -1.13382e-08 1.58539e-14)
(-2.61705e-14 1.06612e-13 1.42786e-07 1.22987e-14 1.13382e-08 1.38718e-14)
(-6.36138e-14 1.09637e-13 1.26091e-07 5.31035e-14 3.05126e-08 1.05103e-14)
(-8.78566e-14 8.16877e-14 9.8635e-08 8.03578e-14 4.10745e-08 7.49873e-15)
(-9.74616e-14 4.74168e-14 6.93393e-08 9.34776e-14 4.24589e-08 3.98407e-15)
(-7.61757e-14 1.1341e-14 4.63698e-08 7.40117e-14 3.88929e-08 2.164e-15)
(-3.54448e-14 -6.28597e-15 4.63701e-08 2.33543e-14 -3.88931e-08 1.20905e-14)
(-2.31531e-14 -9.91782e-15 6.93394e-08 6.79178e-15 -4.2459e-08 1.63614e-14)
(1.69835e-15 8.62656e-15 9.86349e-08 -2.25921e-14 -4.10745e-08 2.08938e-14)
(1.26144e-14 4.12453e-14 1.2609e-07 -3.5716e-14 -3.05124e-08 2.31017e-14)
(4.59455e-15 8.2947e-14 1.42785e-07 -2.77374e-14 -1.1338e-08 2.31428e-14)
(-2.46639e-14 1.08989e-13 1.42785e-07 4.06773e-15 1.1338e-08 2.05962e-14)
(-6.22086e-14 1.11557e-13 1.2609e-07 4.6214e-14 3.05123e-08 1.59946e-14)
(-8.62897e-14 8.3072e-14 9.86341e-08 7.4758e-14 4.10742e-08 1.15317e-14)
(-9.69926e-14 4.91731e-14 6.93387e-08 9.04815e-14 4.24585e-08 6.51116e-15)
(-7.52717e-14 1.23647e-14 4.63695e-08 7.15819e-14 3.88926e-08 3.68977e-15)
(-3.09321e-14 -4.62096e-15 4.63697e-08 1.9734e-14 -3.88927e-08 1.11981e-14)
(-2.03417e-14 -7.09928e-15 6.93389e-08 5.22935e-15 -4.24586e-08 1.51124e-14)
(1.5956e-15 1.0981e-14 9.86343e-08 -2.08257e-14 -4.10742e-08 1.92301e-14)
(9.82188e-15 4.0476e-14 1.2609e-07 -3.08418e-14 -3.05123e-08 2.10199e-14)
(1.41049e-15 7.72395e-14 1.42784e-07 -2.20792e-14 -1.1338e-08 2.06687e-14)
(-2.50973e-14 9.88492e-14 1.42784e-07 7.295e-15 1.1338e-08 1.78023e-14)
(-5.78473e-14 9.95775e-14 1.2609e-07 4.47727e-14 3.05122e-08 1.30746e-14)
(-7.74549e-14 7.26826e-14 9.86339e-08 6.86776e-14 4.10741e-08 8.77733e-15)
(-8.57203e-14 4.25602e-14 6.93386e-08 8.15189e-14 4.24585e-08 4.20135e-15)
(-6.39749e-14 9.81921e-15 4.63695e-08 6.20391e-14 3.88926e-08 1.93576e-15)
(-2.54653e-14 -3.65813e-15 4.63691e-08 1.43619e-14 -3.88923e-08 1.11034e-14)
(-1.68845e-14 -5.4096e-15 6.93381e-08 1.79128e-15 -4.24582e-08 1.50932e-14)
(9.89488e-16 1.01991e-14 9.86333e-08 -2.02796e-14 -4.10738e-08 1.92901e-14)
(6.48433e-15 3.35987e-14 1.26089e-07 -2.76954e-14 -3.0512e-08 2.12111e-14)
(-8.4487e-16 6.15782e-14 1.42783e-07 -2.00582e-14 -1.13379e-08 2.0903e-14)
(-2.12494e-14 7.66739e-14 1.42783e-07 3.23871e-15 1.13379e-08 1.80107e-14)
(-4.54912e-14 7.62608e-14 1.26089e-07 3.22466e-14 3.05121e-08 1.32446e-14)
(-5.91458e-14 5.50235e-14 9.86335e-08 5.03405e-14 4.10739e-08 8.80536e-15)
(-6.54192e-14 3.26164e-14 6.93383e-08 6.11768e-14 4.24583e-08 4.24234e-15)
(-4.74936e-14 7.34314e-15 4.63693e-08 4.55947e-14 3.88924e-08 1.89896e-15)
(-2.08461e-14 -2.55591e-15 4.63687e-08 1.12654e-14 -3.88919e-08 9.58076e-15)
(-1.49221e-14 -4.20131e-15 6.93376e-08 1.91455e-15 -4.24578e-08 1.30075e-14)
(-1.75953e-15 7.39621e-15 9.86326e-08 -1.47846e-14 -4.10735e-08 1.65442e-14)
(1.48088e-15 2.32766e-14 1.26088e-07 -1.95521e-14 -3.05119e-08 1.80713e-14)
(-3.64119e-15 4.17794e-14 1.42782e-07 -1.39949e-14 -1.13379e-08 1.76361e-14)
(-1.68343e-14 5.0765e-14 1.42783e-07 1.85872e-15 1.13379e-08 1.49756e-14)
(-3.20063e-14 5.0176e-14 1.26088e-07 2.12173e-14 3.0512e-08 1.07891e-14)
(-3.98703e-14 3.58042e-14 9.86332e-08 3.29153e-14 4.10738e-08 6.95505e-15)
(-4.4333e-14 2.17533e-14 6.93382e-08 4.11832e-14 4.24582e-08 3.14982e-15)
(-3.10656e-14 4.56401e-15 4.63693e-08 2.98345e-14 3.88924e-08 1.23103e-15)
(-2.00685e-14 -2.38774e-15 4.63683e-08 1.17688e-14 -3.88916e-08 8.29976e-15)
(-1.73445e-14 -5.7048e-15 6.9337e-08 6.0334e-15 -4.24575e-08 1.13111e-14)
(-7.88344e-15 3.99665e-16 9.86318e-08 -6.54285e-15 -4.10732e-08 1.44263e-14)
(-5.12773e-15 8.30253e-15 1.26087e-07 -1.0666e-14 -3.05117e-08 1.57938e-14)
(-6.28831e-15 1.86137e-14 1.42782e-07 -9.19941e-15 -1.13378e-08 1.54877e-14)
(-1.16901e-14 2.38177e-14 1.42782e-07 -1.57969e-15 1.13378e-08 1.32697e-14)
(-1.87214e-14 2.53631e-14 1.26088e-07 8.95901e-15 3.05118e-08 9.76235e-15)
(-2.25463e-14 1.89322e-14 9.86329e-08 1.60725e-14 4.10736e-08 6.47382e-15)
(-2.68301e-14 1.29752e-14 6.93381e-08 2.36192e-14 4.24581e-08 3.21092e-15)
(-1.89701e-14 2.7634e-15 4.63692e-08 1.75402e-14 3.88923e-08 1.42989e-15)
(-2.06727e-14 -2.50698e-15 4.6368e-08 1.38497e-14 -3.88913e-08 6.82301e-15)
(-2.06038e-14 -7.75266e-15 6.93365e-08 1.12757e-14 -4.24572e-08 9.32808e-15)
(-1.35967e-14 -6.44139e-15 9.86313e-08 1.63375e-15 -4.1073e-08 1.19629e-14)
(-1.04008e-14 -4.59822e-15 1.26087e-07 -2.7413e-15 -3.05115e-08 1.31421e-14)
(-7.89105e-15 5.32416e-16 1.42781e-07 -5.12545e-15 -1.13378e-08 1.30165e-14)
(-7.57366e-15 4.34408e-15 1.42781e-07 -3.76492e-15 1.13378e-08 1.13386e-14)
(-9.50342e-15 8.63014e-15 1.26088e-07 8.96776e-16 3.05117e-08 8.60664e-15)
(-1.15135e-14 8.29331e-15 9.86326e-08 5.54079e-15 4.10735e-08 5.97266e-15)
(-1.6491e-14 7.78206e-15 6.93379e-08 1.3224e-14 4.2458e-08 3.26702e-15)
(-1.26988e-14 1.86925e-15 4.63692e-08 1.10263e-14 3.88923e-08 1.67248e-15)
(-1.94933e-14 -2.35729e-15 4.63677e-08 1.3965e-14 -3.88911e-08 5.52828e-15)
(-2.15167e-14 -8.60347e-15 6.93361e-08 1.38595e-14 -4.2457e-08 7.65721e-15)
(-1.64358e-14 -1.02994e-14 9.86308e-08 6.411e-15 -4.10728e-08 1.00248e-14)
(-1.31273e-14 -1.21053e-14 1.26086e-07 1.9121e-15 -3.05114e-08 1.12152e-14)
(-8.53837e-15 -9.7967e-15 1.42781e-07 -2.86585e-15 -1.13377e-08 1.14042e-14)
(-5.16143e-15 -6.24095e-15 1.42781e-07 -5.11329e-15 1.13377e-08 1.02747e-14)
(-4.7248e-15 8.0603e-17 1.26087e-07 -3.44245e-15 3.05116e-08 8.16725e-15)
(-6.31938e-15 3.27614e-15 9.86324e-08 3.38825e-16 4.10734e-08 5.98055e-15)
(-1.19889e-14 5.49328e-15 6.93378e-08 8.4143e-15 4.24579e-08 3.57462e-15)
(-1.05311e-14 1.59706e-15 4.63691e-08 8.50989e-15 3.88922e-08 2.02122e-15)
(-1.10859e-14 -1.02351e-15 4.63675e-08 7.09769e-15 -3.88909e-08 3.98825e-15)
(-1.33277e-14 -4.87442e-15 6.93358e-08 7.69087e-15 -4.24568e-08 5.63684e-15)
(-1.08024e-14 -5.88868e-15 9.86304e-08 3.22107e-15 -4.10726e-08 7.58129e-15)
(-9.64126e-15 -7.90609e-15 1.26085e-07 9.28761e-16 -3.05113e-08 8.7125e-15)
(-6.87393e-15 -7.30029e-15 1.4278e-07 -2.24287e-15 -1.13377e-08 9.1168e-15)
(-4.27058e-15 -5.36797e-15 1.42781e-07 -4.19723e-15 1.13377e-08 8.46781e-15)
(-3.73782e-15 -4.68552e-16 1.26087e-07 -3.1846e-15 3.05116e-08 6.92242e-15)
(-4.94759e-15 2.30868e-15 9.86321e-08 -2.46821e-16 4.10733e-08 5.19441e-15)
(-9.78591e-15 4.42563e-15 6.93376e-08 6.63099e-15 4.24579e-08 3.15492e-15)
(-8.51915e-15 1.2537e-15 4.6369e-08 6.70862e-15 3.88922e-08 1.81053e-15)
(5.22102e-15 1.75378e-15 4.63673e-08 -7.17786e-15 -3.88907e-08 1.95684e-15)
(3.38334e-15 3.35328e-15 6.93356e-08 -6.36649e-15 -4.24567e-08 2.98315e-15)
(1.18013e-15 5.00387e-15 9.86301e-08 -5.48291e-15 -4.10725e-08 4.30277e-15)
(-2.54251e-15 3.57178e-15 1.26085e-07 -2.76261e-15 -3.05112e-08 5.30512e-15)
(-4.42252e-15 5.51211e-16 1.4278e-07 -1.40798e-15 -1.13377e-08 5.8305e-15)
(-3.77511e-15 -2.22275e-15 1.4278e-07 -1.84929e-15 1.13376e-08 5.6244e-15)
(-2.2813e-15 -1.97928e-15 1.26087e-07 -2.36311e-15 3.05115e-08 4.64441e-15)
(-1.16503e-15 -1.11145e-15 9.8632e-08 -2.2542e-15 4.10732e-08 3.41923e-15)
(-2.93774e-15 8.95085e-16 6.93375e-08 1.0246e-15 4.24578e-08 1.91314e-15)
(-1.28566e-15 -9.82065e-17 4.63689e-08 3.35626e-16 3.88921e-08 9.50032e-16)
(2.7288e-14 5.49385e-15 4.63673e-08 -2.61837e-14 -3.88907e-08 -1.10426e-15)
(2.55907e-14 1.41836e-14 6.93355e-08 -2.45067e-14 -4.24566e-08 -1.08399e-15)
(1.57408e-14 1.77361e-14 9.863e-08 -1.48478e-14 -4.10725e-08 -8.92976e-16)
(5.14442e-15 1.43854e-14 1.26085e-07 -4.84518e-15 -3.05112e-08 -2.99231e-16)
(-1.80516e-15 2.98283e-15 1.4278e-07 1.62638e-15 -1.13376e-08 1.78781e-16)
(-7.78913e-16 -8.56911e-15 1.4278e-07 2.91119e-16 1.13376e-08 4.87794e-16)
(5.88364e-15 -1.49626e-14 1.26086e-07 -6.26322e-15 3.05114e-08 3.79578e-16)
(1.28229e-14 -1.40641e-14 9.86319e-08 -1.28551e-14 4.10732e-08 3.21374e-17)
(1.62676e-14 -8.74017e-15 6.93375e-08 -1.58503e-14 4.24577e-08 -4.17292e-16)
(1.65767e-14 -3.17991e-15 4.63689e-08 -1.59495e-14 3.88921e-08 -6.27227e-16)
(4.75668e-14 9.06705e-15 4.63674e-08 -4.20696e-14 -3.88908e-08 -5.49721e-15)
(4.22988e-14 2.21307e-14 6.93357e-08 -3.54013e-14 -4.24567e-08 -6.89753e-15)
(2.14705e-14 2.1095e-14 9.86301e-08 -1.32285e-14 -4.10725e-08 -8.24204e-15)
(4.48255e-15 7.4471e-15 1.26085e-07 3.75737e-15 -3.05112e-08 -8.23992e-15)
(-2.51059e-15 -2.00697e-14 1.4278e-07 1.02846e-14 -1.13377e-08 -7.77404e-15)
(7.35954e-15 -4.35462e-14 1.4278e-07 -6.7686e-16 1.13376e-08 -6.68267e-15)
(2.78528e-14 -5.42161e-14 1.26086e-07 -2.24438e-14 3.05115e-08 -5.40902e-15)
(4.53336e-14 -4.52996e-14 9.86319e-08 -4.0911e-14 4.10732e-08 -4.42257e-15)
(5.50357e-14 -2.83503e-14 6.93375e-08 -5.17994e-14 4.24578e-08 -3.23626e-15)
(4.90461e-14 -8.61995e-15 4.6369e-08 -4.66197e-14 3.88921e-08 -2.4264e-15)
(5.95529e-14 1.11763e-14 4.63677e-08 -4.82144e-14 -3.88911e-08 -1.13386e-14)
(4.59478e-14 2.2886e-14 6.93361e-08 -3.1316e-14 -4.24569e-08 -1.46318e-14)
(1.20126e-14 7.89954e-15 9.86306e-08 5.90806e-15 -4.10727e-08 -1.79206e-14)
(-8.55164e-15 -2.68235e-14 1.26086e-07 2.72711e-14 -3.05113e-08 -1.87195e-14)
(-7.25317e-15 -7.8297e-14 1.4278e-07 2.53817e-14 -1.13377e-08 -1.81285e-14)
(2.26251e-14 -1.15178e-13 1.42781e-07 -6.78885e-15 1.13377e-08 -1.58362e-14)
(6.6816e-14 -1.24898e-13 1.26087e-07 -5.43571e-14 3.05116e-08 -1.24589e-14)
(9.91001e-14 -9.71215e-14 9.86322e-08 -8.95794e-14 4.10733e-08 -9.52073e-15)
(1.14711e-13 -5.84198e-14 6.93377e-08 -1.08685e-13 4.24579e-08 -6.02565e-15)
(9.5711e-14 -1.61584e-14 4.63691e-08 -9.17706e-14 3.88922e-08 -3.94041e-15)
(5.86761e-14 1.11022e-14 4.63683e-08 -4.06447e-14 -3.88916e-08 -1.80314e-14)
(3.16078e-14 1.41477e-14 6.93369e-08 -8.14024e-15 -4.24574e-08 -2.34676e-14)
(-1.55403e-14 -2.41215e-14 9.86315e-08 4.43078e-14 -4.10731e-08 -2.87675e-14)
(-3.52521e-14 -8.9394e-14 1.26087e-07 6.56322e-14 -3.05115e-08 -3.03801e-14)
(-1.66083e-14 -1.69512e-13 1.42781e-07 4.59692e-14 -1.13378e-08 -2.93609e-14)
(4.32425e-14 -2.18287e-13 1.42781e-07 -1.78112e-14 1.13377e-08 -2.54313e-14)
(1.18372e-13 -2.20148e-13 1.26087e-07 -9.90101e-14 3.05117e-08 -1.93619e-14)
(1.67355e-13 -1.63556e-13 9.86327e-08 -1.53275e-13 4.10735e-08 -1.40805e-14)
(1.87163e-13 -9.51283e-14 6.9338e-08 -1.7924e-13 4.24581e-08 -7.92318e-15)
(1.49268e-13 -2.46799e-14 4.63693e-08 -1.44673e-13 3.88924e-08 -4.5956e-15)
(4.62655e-14 8.73617e-15 4.63692e-08 -2.20097e-14 -3.88923e-08 -2.42558e-14)
(5.47009e-15 -1.14036e-15 6.93381e-08 2.63002e-14 -4.24581e-08 -3.17703e-14)
(-5.08652e-14 -6.4686e-14 9.86329e-08 8.9803e-14 -4.10737e-08 -3.89378e-14)
(-6.55583e-14 -1.60443e-13 1.26088e-07 1.06944e-13 -3.05119e-08 -4.13856e-14)
(-2.60894e-14 -2.65292e-13 1.42782e-07 6.58852e-14 -1.13379e-08 -3.97959e-14)
(6.42442e-14 -3.2114e-13 1.42783e-07 -3.01748e-14 1.13379e-08 -3.40694e-14)
(1.68021e-13 -3.11221e-13 1.26088e-07 -1.42907e-13 3.05119e-08 -2.51138e-14)
(2.30406e-13 -2.24703e-13 9.86333e-08 -2.13009e-13 4.10738e-08 -1.73969e-14)
(2.51787e-13 -1.27796e-13 6.93384e-08 -2.43168e-13 4.24583e-08 -8.61906e-15)
(1.94029e-13 -3.15529e-14 4.63695e-08 -1.89793e-13 3.88926e-08 -4.23651e-15)
(2.70295e-14 4.85192e-15 4.63704e-08 9.76127e-16 -3.88933e-08 -2.80056e-14)
(-2.20388e-14 -1.71252e-14 6.93396e-08 5.89904e-14 -4.2459e-08 -3.69516e-14)
(-7.9351e-14 -9.76867e-14 9.86348e-08 1.24721e-13 -4.10744e-08 -4.53702e-14)
(-8.63498e-14 -2.10887e-13 1.2609e-07 1.34872e-13 -3.05123e-08 -4.85221e-14)
(-3.10114e-14 -3.25519e-13 1.42784e-07 7.74576e-14 -1.1338e-08 -4.64462e-14)
(7.72457e-14 -3.79857e-13 1.42784e-07 -3.79533e-14 1.1338e-08 -3.92924e-14)
(1.9472e-13 -3.58929e-13 1.2609e-07 -1.66645e-13 3.05122e-08 -2.80748e-14)
(2.60841e-13 -2.5391e-13 9.8634e-08 -2.4234e-13 4.10741e-08 -1.8501e-14)
(2.80629e-13 -1.42402e-13 6.93388e-08 -2.72739e-13 4.24586e-08 -7.88977e-15)
(2.0966e-13 -3.36361e-14 4.63696e-08 -2.06697e-13 3.88927e-08 -2.96278e-15)
(8.52259e-15 5.17098e-16 4.63716e-08 1.87781e-14 -3.88943e-08 -2.73007e-14)
(-3.6051e-14 -2.60057e-14 6.93413e-08 7.25487e-14 -4.24601e-08 -3.64977e-14)
(-8.2325e-14 -1.03659e-13 9.86368e-08 1.2756e-13 -4.10752e-08 -4.52351e-14)
(-8.13357e-14 -2.07062e-13 1.26092e-07 1.30265e-13 -3.05128e-08 -4.89293e-14)
(-2.5011e-14 -3.05699e-13 1.42786e-07 7.18862e-14 -1.13381e-08 -4.68752e-14)
(7.44279e-14 -3.47362e-13 1.42786e-07 -3.51012e-14 1.13381e-08 -3.93266e-14)
(1.77706e-13 -3.22507e-13 1.26091e-07 -1.50351e-13 3.05125e-08 -2.73545e-14)
(2.31964e-13 -2.24221e-13 9.86348e-08 -2.14863e-13 4.10744e-08 -1.71017e-14)
(2.46845e-13 -1.24992e-13 6.93391e-08 -2.40753e-13 4.24588e-08 -6.09152e-15)
(1.77578e-13 -2.79182e-14 4.63697e-08 -1.76335e-13 3.88928e-08 -1.24279e-15)
(-4.04018e-15 -3.06173e-15 4.63728e-08 2.49831e-14 -3.88953e-08 -2.09429e-14)
(-2.92449e-14 -2.31948e-14 6.93428e-08 5.7947e-14 -4.2461e-08 -2.87021e-14)
(-5.21523e-14 -7.31258e-14 9.86387e-08 8.85021e-14 -4.1076e-08 -3.63498e-14)
(-4.48029e-14 -1.33847e-13 1.26094e-07 8.49318e-14 -3.05133e-08 -4.0129e-14)
(-6.98841e-15 -1.86849e-13 1.42788e-07 4.57244e-14 -1.13383e-08 -3.8736e-14)
(5.1095e-14 -2.04107e-13 1.42787e-07 -1.88003e-14 1.13383e-08 -3.22948e-14)
(1.07302e-13 -1.85207e-13 1.26092e-07 -8.54473e-14 3.05128e-08 -2.18547e-14)
(1.32319e-13 -1.24918e-13 9.86354e-08 -1.19576e-13 4.10747e-08 -1.27426e-14)
(1.3918e-13 -7.00247e-14 6.93393e-08 -1.35764e-13 4.24589e-08 -3.41589e-15)
(9.11261e-14 -1.3533e-14 4.63697e-08 -9.16331e-14 3.88928e-08 5.06997e-16)
(-7.0203e-15 -5.01375e-15 4.63735e-08 1.65136e-14 -3.88959e-08 -9.49334e-15)
(-4.96999e-17 -7.6627e-15 6.93438e-08 1.41789e-14 -4.24616e-08 -1.41292e-14)
(9.118e-15 -7.88018e-15 9.864e-08 1.01378e-14 -4.10766e-08 -1.92558e-14)
(1.96009e-14 1.99406e-15 1.26096e-07 2.9135e-15 -3.05137e-08 -2.25144e-14)
(2.0924e-14 1.82759e-14 1.4279e-07 1.45725e-15 -1.13384e-08 -2.23813e-14)
(9.87129e-15 3.34402e-14 1.42789e-07 8.71629e-15 1.13384e-08 -1.85876e-14)
(-7.99268e-15 3.66382e-14 1.26093e-07 2.00585e-14 3.0513e-08 -1.20658e-14)
(-2.54989e-14 3.17257e-14 9.86358e-08 3.14773e-14 4.10749e-08 -5.97841e-15)
(-2.88348e-14 1.58301e-14 6.93395e-08 2.92735e-14 4.2459e-08 -4.38696e-16)
(-3.77039e-14 7.54921e-15 4.63697e-08 3.58952e-14 3.88928e-08 1.80868e-15)
(-8.80301e-16 -4.75683e-15 4.63737e-08 -3.63838e-15 -3.88961e-08 4.51868e-15)