/*--------------------------------*- C++ -*----------------------------------*\
| =========                 |                                                 |
| \\      /  F ield         | OpenFOAM: The Open Source CFD Toolbox           |
|  \\    /   O peration     | Version:  2406                                  |
|   \\  /    A nd           | Website:  www.openfoam.com                      |
|    \\/     M anipulation  |                                                 |
\*---------------------------------------------------------------------------*/
FoamFile
{
    version     2.0;
    format      ascii;
    arch        "LSB;label=32;scalar=64";
    class       volVectorField;
    location    "2";
    object      U;
}
// * * * * * * * * * * * * * * * * * * * * * * * * * * * * * * * * * * * * * //

dimensions      [0 1 -1 0 0 0 0];

internalField   nonuniform List<vector> 
25000
(
(0.148203 0.148203 1.126)
(0.121741 0.159741 1.15799)
(0.089682 0.168689 1.17581)
(0.0549321 0.174337 1.18522)
(0.0184801 0.177166 1.18921)
(-0.0184801 0.177166 1.18921)
(-0.0549321 0.174337 1.18522)
(-0.089682 0.168689 1.17581)
(-0.121741 0.159741 1.15799)
(-0.148203 0.148203 1.126)
(0.159741 0.121741 1.15799)
(0.129921 0.129921 1.18715)
(0.0949522 0.136258 1.19911)
(0.0577448 0.140368 1.20344)
(0.0193615 0.142382 1.20465)
(-0.0193615 0.142382 1.20465)
(-0.0577448 0.140368 1.20344)
(-0.0949522 0.136258 1.19911)
(-0.129921 0.129921 1.18715)
(-0.159741 0.121741 1.15799)
(0.168689 0.089682 1.17581)
(0.136258 0.0949521 1.19911)
(0.0990579 0.0990579 1.20625)
(0.059953 0.101733 1.20696)
(0.0200493 0.10303 1.20625)
(-0.0200493 0.10303 1.20625)
(-0.059953 0.101733 1.20696)
(-0.0990579 0.0990579 1.20625)
(-0.136258 0.0949521 1.19911)
(-0.168689 0.089682 1.17581)
(0.174337 0.0549321 1.18522)
(0.140368 0.0577448 1.20344)
(0.101733 0.059953 1.20696)
(0.061392 0.061392 1.20524)
(0.0204959 0.0620861 1.20331)
(-0.0204959 0.0620861 1.20331)
(-0.061392 0.061392 1.20524)
(-0.101733 0.059953 1.20696)
(-0.140368 0.0577448 1.20344)
(-0.174337 0.0549321 1.18522)
(0.177166 0.0184801 1.18921)
(0.142382 0.0193615 1.20465)
(0.10303 0.0200493 1.20625)
(0.0620861 0.0204959 1.20331)
(0.0207106 0.0207106 1.2008)
(-0.0207106 0.0207106 1.2008)
(-0.0620861 0.0204959 1.20331)
(-0.10303 0.0200493 1.20625)
(-0.142382 0.0193615 1.20465)
(-0.177166 0.0184801 1.18921)
(0.177166 -0.0184801 1.18921)
(0.142382 -0.0193615 1.20465)
(0.10303 -0.0200493 1.20625)
(0.0620861 -0.0204959 1.20331)
(0.0207106 -0.0207106 1.2008)
(-0.0207106 -0.0207106 1.2008)
(-0.0620861 -0.0204959 1.20331)
(-0.10303 -0.0200493 1.20625)
(-0.142382 -0.0193615 1.20465)
(-0.177166 -0.0184801 1.18921)
(0.174337 -0.0549321 1.18522)
(0.140368 -0.0577448 1.20344)
(0.101733 -0.059953 1.20696)
(0.061392 -0.061392 1.20524)
(0.0204959 -0.0620861 1.20331)
(-0.0204959 -0.0620861 1.20331)
(-0.061392 -0.061392 1.20524)
(-0.101733 -0.059953 1.20696)
(-0.140368 -0.0577448 1.20344)
(-0.174337 -0.0549321 1.18522)
(0.168689 -0.089682 1.17581)
(0.136258 -0.0949522 1.19911)
(0.0990579 -0.0990579 1.20625)
(0.059953 -0.101733 1.20696)
(0.0200493 -0.10303 1.20625)
(-0.0200493 -0.10303 1.20625)
(-0.059953 -0.101733 1.20696)
(-0.0990579 -0.0990579 1.20625)
(-0.136258 -0.0949522 1.19911)
(-0.168689 -0.089682 1.17581)
(0.159741 -0.121741 1.15799)
(0.129921 -0.129921 1.18715)
(0.0949522 -0.136258 1.19911)
(0.0577448 -0.140368 1.20344)
(0.0193615 -0.142382 1.20465)
(-0.0193615 -0.142382 1.20465)
(-0.0577448 -0.140368 1.20344)
(-0.0949522 -0.136258 1.19911)
(-0.129921 -0.129921 1.18715)
(-0.159741 -0.121741 1.15799)
(0.148203 -0.148203 1.126)
(0.121741 -0.159741 1.15799)
(0.089682 -0.168689 1.17581)
(0.0549321 -0.174337 1.18522)
(0.0184801 -0.177166 1.18921)
(-0.0184801 -0.177166 1.18921)
(-0.0549321 -0.174337 1.18522)
(-0.089682 -0.168689 1.17581)
(-0.121741 -0.159741 1.15799)
(-0.148203 -0.148203 1.126)
(0.0508828 0.0508828 1.26779)
(0.0454873 0.0604815 1.35152)
(0.0364055 0.068382 1.40592)
(0.0233681 0.074205 1.43821)
(0.00804169 0.0772047 1.45313)
(-0.00804168 0.0772047 1.45313)
(-0.0233681 0.074205 1.43821)
(-0.0364055 0.068382 1.40592)
(-0.0454873 0.0604815 1.35152)
(-0.0508828 0.0508828 1.26779)
(0.0604815 0.0454873 1.35152)
(0.0552605 0.0552605 1.44013)
(0.0441311 0.0630689 1.48894)
(0.0282256 0.068534 1.51468)
(0.00968394 0.0713451 1.52575)
(-0.00968394 0.0713451 1.52575)
(-0.0282256 0.068534 1.51468)
(-0.0441311 0.0630689 1.48894)
(-0.0552605 0.0552605 1.44013)
(-0.0604815 0.0454873 1.35152)
(0.068382 0.0364055 1.40592)
(0.0630689 0.0441311 1.48894)
(0.0501796 0.0501796 1.53198)
(0.0319878 0.0543477 1.553)
(0.010952 0.0564913 1.56141)
(-0.010952 0.0564913 1.56141)
(-0.0319878 0.0543477 1.553)
(-0.0501796 0.0501796 1.53198)
(-0.0630689 0.0441311 1.48894)
(-0.068382 0.0364055 1.40592)
(0.074205 0.0233681 1.43821)
(0.068534 0.0282256 1.51468)
(0.0543477 0.0319878 1.553)
(0.0345544 0.0345544 1.57058)
(0.011816 0.0358749 1.57707)
(-0.011816 0.0358749 1.57707)
(-0.0345544 0.0345544 1.57058)
(-0.0543477 0.0319878 1.553)
(-0.068534 0.0282256 1.51468)
(-0.074205 0.0233681 1.43821)
(0.0772047 0.00804168 1.45313)
(0.0713451 0.00968393 1.52575)
(0.0564913 0.010952 1.56141)
(0.0358749 0.011816 1.57707)
(0.0122624 0.0122624 1.58252)
(-0.0122624 0.0122624 1.58252)
(-0.0358749 0.011816 1.57707)
(-0.0564913 0.010952 1.56141)
(-0.0713451 0.00968393 1.52575)
(-0.0772047 0.00804168 1.45313)
(0.0772047 -0.00804168 1.45313)
(0.0713451 -0.00968394 1.52575)
(0.0564913 -0.010952 1.56141)
(0.0358749 -0.011816 1.57707)
(0.0122624 -0.0122624 1.58252)
(-0.0122624 -0.0122624 1.58252)
(-0.0358749 -0.011816 1.57707)
(-0.0564913 -0.010952 1.56141)
(-0.0713451 -0.00968394 1.52575)
(-0.0772047 -0.00804168 1.45313)
(0.074205 -0.0233681 1.43821)
(0.068534 -0.0282256 1.51468)
(0.0543477 -0.0319878 1.553)
(0.0345544 -0.0345544 1.57058)
(0.011816 -0.0358749 1.57707)
(-0.011816 -0.0358749 1.57707)
(-0.0345544 -0.0345544 1.57058)
(-0.0543477 -0.0319878 1.553)
(-0.068534 -0.0282256 1.51468)
(-0.074205 -0.0233681 1.43821)
(0.068382 -0.0364055 1.40592)
(0.0630689 -0.0441311 1.48894)
(0.0501796 -0.0501796 1.53198)
(0.0319878 -0.0543477 1.553)
(0.010952 -0.0564913 1.56141)
(-0.010952 -0.0564913 1.56141)
(-0.0319878 -0.0543477 1.553)
(-0.0501796 -0.0501796 1.53198)
(-0.0630689 -0.0441311 1.48894)
(-0.068382 -0.0364055 1.40592)
(0.0604815 -0.0454873 1.35152)
(0.0552605 -0.0552605 1.44013)
(0.0441311 -0.0630689 1.48894)
(0.0282256 -0.068534 1.51468)
(0.00968394 -0.0713451 1.52575)
(-0.00968393 -0.0713451 1.52575)
(-0.0282256 -0.068534 1.51468)
(-0.0441311 -0.0630689 1.48894)
(-0.0552605 -0.0552605 1.44013)
(-0.0604815 -0.0454873 1.35152)
(0.0508828 -0.0508828 1.26779)
(0.0454873 -0.0604815 1.35152)
(0.0364055 -0.068382 1.40592)
(0.0233681 -0.074205 1.43821)
(0.00804169 -0.0772047 1.45313)
(-0.00804168 -0.0772047 1.45313)
(-0.0233681 -0.074205 1.43821)
(-0.0364055 -0.068382 1.40592)
(-0.0454873 -0.0604815 1.35152)
(-0.0508828 -0.0508828 1.26779)
(0.0294379 0.0294378 1.13916)
(0.027366 0.0362572 1.264)
(0.0223831 0.0419314 1.35454)
(0.014649 0.0461082 1.41276)
(0.00509657 0.0482991 1.44101)
(-0.00509655 0.0482991 1.44101)
(-0.014649 0.0461082 1.41276)
(-0.0223831 0.0419314 1.35454)
(-0.027366 0.0362572 1.264)
(-0.0294378 0.0294378 1.13916)
(0.0362573 0.027366 1.264)
(0.034266 0.034266 1.41081)
(0.0281263 0.039945 1.50483)
(0.0183892 0.0440015 1.56049)
(0.00638391 0.0461083 1.5863)
(-0.00638389 0.0461083 1.5863)
(-0.0183892 0.0440015 1.56049)
(-0.0281263 0.039945 1.50483)
(-0.034266 0.034266 1.41081)
(-0.0362572 0.027366 1.264)
(0.0419314 0.0223831 1.35454)
(0.039945 0.0281263 1.50483)
(0.0327474 0.0327473 1.59723)
(0.0213503 0.0359555 1.64978)
(0.00739884 0.037603 1.67351)
(-0.00739882 0.037603 1.67351)
(-0.0213503 0.0359555 1.64978)
(-0.0327473 0.0327473 1.59723)
(-0.039945 0.0281263 1.50483)
(-0.0419314 0.0223831 1.35454)
(0.0461082 0.014649 1.41276)
(0.0440015 0.0183892 1.56049)
(0.0359555 0.0213503 1.64978)
(0.0233776 0.0233775 1.69966)
(0.00809313 0.0244136 1.72196)
(-0.00809311 0.0244136 1.72196)
(-0.0233775 0.0233775 1.69966)
(-0.0359555 0.0213503 1.64978)
(-0.0440015 0.0183892 1.56049)
(-0.0461082 0.014649 1.41276)
(0.0482991 0.00509655 1.44101)
(0.0461083 0.00638389 1.5863)
(0.037603 0.00739882 1.67351)
(0.0244136 0.00809311 1.72196)
(0.00844932 0.0084493 1.74358)
(-0.0084493 0.0084493 1.74358)
(-0.0244136 0.00809311 1.72196)
(-0.037603 0.00739882 1.67351)
(-0.0461083 0.00638389 1.5863)
(-0.0482991 0.00509655 1.44101)
(0.0482991 -0.00509657 1.44101)
(0.0461083 -0.00638391 1.5863)
(0.037603 -0.00739884 1.67351)
(0.0244136 -0.00809313 1.72196)
(0.00844932 -0.00844932 1.74358)
(-0.0084493 -0.00844932 1.74358)
(-0.0244136 -0.00809313 1.72196)
(-0.037603 -0.00739884 1.67351)
(-0.0461083 -0.00638391 1.5863)
(-0.0482991 -0.00509657 1.44101)
(0.0461082 -0.014649 1.41276)
(0.0440015 -0.0183892 1.56049)
(0.0359555 -0.0213503 1.64978)
(0.0233776 -0.0233776 1.69966)
(0.00809313 -0.0244136 1.72196)
(-0.00809311 -0.0244136 1.72196)
(-0.0233775 -0.0233776 1.69966)
(-0.0359555 -0.0213503 1.64978)
(-0.0440015 -0.0183892 1.56049)
(-0.0461082 -0.014649 1.41276)
(0.0419314 -0.0223831 1.35454)
(0.039945 -0.0281263 1.50483)
(0.0327474 -0.0327474 1.59723)
(0.0213503 -0.0359555 1.64978)
(0.00739884 -0.037603 1.67351)
(-0.00739882 -0.037603 1.67351)
(-0.0213503 -0.0359555 1.64978)
(-0.0327473 -0.0327474 1.59723)
(-0.039945 -0.0281263 1.50483)
(-0.0419314 -0.0223831 1.35454)
(0.0362573 -0.027366 1.264)
(0.034266 -0.034266 1.41081)
(0.0281263 -0.039945 1.50483)
(0.0183892 -0.0440015 1.56049)
(0.00638391 -0.0461083 1.5863)
(-0.00638389 -0.0461083 1.5863)
(-0.0183892 -0.0440015 1.56049)
(-0.0281263 -0.039945 1.50483)
(-0.034266 -0.034266 1.41081)
(-0.0362572 -0.027366 1.264)
(0.0294379 -0.0294378 1.13916)
(0.027366 -0.0362573 1.264)
(0.0223831 -0.0419314 1.35454)
(0.014649 -0.0461082 1.41276)
(0.00509657 -0.0482991 1.44101)
(-0.00509655 -0.0482991 1.44101)
(-0.014649 -0.0461082 1.41276)
(-0.0223831 -0.0419314 1.35454)
(-0.027366 -0.0362573 1.264)
(-0.0294378 -0.0294379 1.13916)
(0.00588738 0.00588734 1.1525)
(0.00666819 0.00822805 1.28429)
(0.00621086 0.0105488 1.38419)
(0.0043663 0.0124143 1.45073)
(0.00156922 0.0134343 1.48378)
(-0.00156917 0.0134343 1.48378)
(-0.00436625 0.0124143 1.45073)
(-0.00621081 0.0105488 1.38419)
(-0.00666814 0.00822806 1.28429)
(-0.00588734 0.00588735 1.1525)
(0.00822808 0.00666814 1.28429)
(0.00974589 0.00974585 1.44582)
(0.00909224 0.0125545 1.55604)
(0.00635795 0.0146734 1.62466)
(0.0022733 0.0157976 1.6575)
(-0.00227325 0.0157976 1.6575)
(-0.00635791 0.0146735 1.62466)
(-0.0090922 0.0125545 1.55604)
(-0.00974585 0.00974586 1.44582)
(-0.00822805 0.00666815 1.28429)
(0.0105488 0.00621081 1.38419)
(0.0125545 0.0090922 1.55604)
(0.0115899 0.0115899 1.66971)
(0.0080295 0.013382 1.73809)
(0.00285516 0.0142909 1.77002)
(-0.00285512 0.0142909 1.77002)
(-0.00802946 0.013382 1.73809)
(-0.0115899 0.0115899 1.66971)
(-0.0125545 0.00909221 1.55604)
(-0.0105488 0.00621082 1.38419)
(0.0124143 0.00436626 1.45073)
(0.0146735 0.00635791 1.62466)
(0.013382 0.00802946 1.73809)
(0.00917195 0.00917191 1.80489)
(0.00324033 0.00969867 1.83542)
(-0.00324029 0.00969867 1.83542)
(-0.00917191 0.00917191 1.80489)
(-0.013382 0.00802947 1.73809)
(-0.0146734 0.00635792 1.62466)
(-0.0124143 0.00436626 1.45073)
(0.0134343 0.00156917 1.48378)
(0.0157977 0.00227326 1.6575)
(0.0142909 0.00285512 1.77002)
(0.0096987 0.0032403 1.83542)
(0.00340505 0.00340502 1.86469)
(-0.00340501 0.00340502 1.86469)
(-0.00969866 0.0032403 1.83542)
(-0.0142909 0.00285513 1.77002)
(-0.0157976 0.00227326 1.6575)
(-0.0134343 0.00156918 1.48378)
(0.0134343 -0.00156921 1.48378)
(0.0157976 -0.00227329 1.6575)
(0.0142909 -0.00285515 1.77002)
(0.0096987 -0.00324033 1.83542)
(0.00340505 -0.00340505 1.86469)
(-0.00340501 -0.00340505 1.86469)
(-0.00969866 -0.00324033 1.83542)
(-0.0142909 -0.00285515 1.77002)
(-0.0157976 -0.00227329 1.6575)
(-0.0134343 -0.00156921 1.48378)
(0.0124143 -0.00436629 1.45073)
(0.0146735 -0.00635794 1.62466)
(0.013382 -0.00802949 1.73809)
(0.00917195 -0.00917194 1.80489)
(0.00324033 -0.00969869 1.83542)
(-0.00324029 -0.00969869 1.83542)
(-0.00917191 -0.00917194 1.80489)
(-0.013382 -0.00802949 1.73809)
(-0.0146734 -0.00635795 1.62466)
(-0.0124143 -0.00436629 1.45073)
(0.0105488 -0.00621084 1.38419)
(0.0125545 -0.00909223 1.55604)
(0.0115899 -0.0115899 1.66971)
(0.0080295 -0.013382 1.73809)
(0.00285516 -0.0142909 1.77002)
(-0.00285512 -0.0142909 1.77002)
(-0.00802946 -0.013382 1.73809)
(-0.0115899 -0.0115899 1.66971)
(-0.0125545 -0.00909223 1.55604)
(-0.0105488 -0.00621085 1.38419)
(0.00822808 -0.00666817 1.28429)
(0.00974589 -0.00974588 1.44582)
(0.00909224 -0.0125545 1.55604)
(0.00635795 -0.0146735 1.62466)
(0.0022733 -0.0157976 1.6575)
(-0.00227325 -0.0157976 1.6575)
(-0.00635791 -0.0146735 1.62466)
(-0.0090922 -0.0125545 1.55604)
(-0.00974585 -0.00974588 1.44582)
(-0.00822805 -0.00666818 1.28429)
(0.00588737 -0.00588736 1.1525)
(0.00666818 -0.00822807 1.28429)
(0.00621086 -0.0105488 1.38419)
(0.0043663 -0.0124143 1.45073)
(0.00156922 -0.0134343 1.48378)
(-0.00156916 -0.0134343 1.48378)
(-0.00436625 -0.0124143 1.45073)
(-0.00621081 -0.0105488 1.38419)
(-0.00666814 -0.00822808 1.28429)
(-0.00588734 -0.00588737 1.1525)
(0.00543445 0.00543438 1.11571)
(0.00524445 0.006844 1.25313)
(0.00443687 0.00809967 1.35941)
(0.00298297 0.00905858 1.43137)
(0.00105205 0.00957332 1.46752)
(-0.00105196 0.00957333 1.46752)
(-0.00298288 0.00905859 1.43137)
(-0.00443678 0.00809969 1.35941)
(-0.00524437 0.00684402 1.25313)
(-0.00543438 0.00543441 1.11571)
(0.00684406 0.00524437 1.25313)
(0.00679843 0.00679836 1.4246)
(0.00584714 0.0082108 1.54502)
(0.00395354 0.00927444 1.62184)
(0.00139479 0.00983206 1.65919)
(-0.00139471 0.00983206 1.65919)
(-0.00395346 0.00927444 1.62184)
(-0.00584706 0.00821082 1.54502)
(-0.00679836 0.00679838 1.4246)
(-0.00684401 0.00524439 1.25313)
(0.00809973 0.00443679 1.35941)
(0.00821087 0.00584707 1.54502)
(0.00710756 0.00710749 1.67214)
(0.00479607 0.0080159 1.75082)
(0.00168593 0.00846046 1.78822)
(-0.00168586 0.00846046 1.78822)
(-0.004796 0.00801591 1.75082)
(-0.00710749 0.0071075 1.67214)
(-0.0082108 0.00584708 1.54502)
(-0.00809968 0.0044368 1.35941)
(0.00905863 0.00298289 1.43137)
(0.00927449 0.00395347 1.62184)
(0.00801596 0.00479601 1.75082)
(0.00536191 0.00536184 1.8289)
(0.00187026 0.00557863 1.86496)
(-0.00187019 0.00557863 1.86496)
(-0.00536184 0.00536185 1.8289)
(-0.0080159 0.00479601 1.75082)
(-0.00927444 0.00395348 1.62184)
(-0.00905858 0.0029829 1.43137)
(0.00957337 0.00105197 1.46752)
(0.00983211 0.00139472 1.65919)
(0.00846052 0.00168587 1.78822)
(0.00557869 0.0018702 1.86496)
(0.00192278 0.00192272 1.89882)
(-0.00192271 0.00192272 1.89882)
(-0.00557862 0.0018702 1.86496)
(-0.00846045 0.00168587 1.78822)
(-0.00983205 0.00139472 1.65919)
(-0.00957332 0.00105198 1.46752)
(0.00957336 -0.00105203 1.46752)
(0.00983211 -0.00139477 1.65919)
(0.00846051 -0.00168592 1.78822)
(0.00557869 -0.00187025 1.86496)
(0.00192278 -0.00192277 1.89882)
(-0.00192271 -0.00192277 1.89882)
(-0.00557862 -0.00187025 1.86496)
(-0.00846045 -0.00168592 1.78822)
(-0.00983205 -0.00139477 1.65919)
(-0.00957332 -0.00105203 1.46752)
(0.00905862 -0.00298294 1.43137)
(0.00927449 -0.00395352 1.62184)
(0.00801596 -0.00479606 1.75082)
(0.00536191 -0.00536189 1.8289)
(0.00187026 -0.00557868 1.86496)
(-0.00187019 -0.00557868 1.86496)
(-0.00536183 -0.00536189 1.8289)
(-0.0080159 -0.00479606 1.75082)
(-0.00927443 -0.00395353 1.62184)
(-0.00905857 -0.00298295 1.43137)
(0.00809972 -0.00443684 1.35941)
(0.00821086 -0.00584712 1.54502)
(0.00710755 -0.00710754 1.67214)
(0.00479607 -0.00801595 1.75082)
(0.00168593 -0.0084605 1.78822)
(-0.00168586 -0.0084605 1.78822)
(-0.004796 -0.00801595 1.75082)
(-0.00710748 -0.00710755 1.67214)
(-0.0082108 -0.00584713 1.54502)
(-0.00809967 -0.00443685 1.35941)
(0.00684405 -0.00524441 1.25313)
(0.00679843 -0.00679841 1.42459)
(0.00584713 -0.00821085 1.54502)
(0.00395354 -0.00927448 1.62184)
(0.00139479 -0.00983209 1.65919)
(-0.0013947 -0.0098321 1.65919)
(-0.00395345 -0.00927448 1.62184)
(-0.00584706 -0.00821086 1.54502)
(-0.00679835 -0.00679842 1.4246)
(-0.00684399 -0.00524443 1.25313)
(0.00543444 -0.00543442 1.11571)
(0.00524444 -0.00684403 1.25313)
(0.00443686 -0.00809971 1.35941)
(0.00298297 -0.00905861 1.43137)
(0.00105205 -0.00957335 1.46752)
(-0.00105195 -0.00957336 1.46752)
(-0.00298287 -0.00905862 1.43137)
(-0.00443677 -0.00809972 1.35941)
(-0.00524436 -0.00684405 1.25313)
(-0.00543437 -0.00543444 1.11571)
(0.000803338 0.000803214 1.12198)
(0.00101851 0.0011892 1.25978)
(0.00102146 0.00161357 1.3671)
(0.000749651 0.00197666 1.44026)
(0.000274917 0.00218159 1.47719)
(-0.000274739 0.00218159 1.47719)
(-0.000749479 0.00197668 1.44026)
(-0.0010213 0.0016136 1.3671)
(-0.00101837 0.00118924 1.25978)
(-0.000803221 0.00080326 1.12198)
(0.00118931 0.00101838 1.25978)
(0.00159454 0.00159442 1.4327)
(0.00160297 0.00217423 1.55558)
(0.00117196 0.00264432 1.63483)
(0.000427841 0.00290297 1.67366)
(-0.000427684 0.00290297 1.67366)
(-0.00117181 0.00264433 1.63483)
(-0.00160282 0.00217425 1.55558)
(-0.00159441 0.00159445 1.4327)
(-0.00118921 0.00101841 1.25978)
(0.00161367 0.00102132 1.3671)
(0.00217434 0.00160284 1.55558)
(0.00216655 0.00216644 1.68669)
(0.00157168 0.00260856 1.76898)
(0.000570611 0.00284202 1.80844)
(-0.000570468 0.00284202 1.80844)
(-0.00157154 0.00260857 1.76898)
(-0.00216642 0.00216646 1.68669)
(-0.00217422 0.00160286 1.55558)
(-0.00161357 0.00102135 1.3671)
(0.00197675 0.000749509 1.44026)
(0.00264442 0.00117184 1.63483)
(0.00260866 0.00157157 1.76898)
(0.00187261 0.0018725 1.85139)
(0.000674662 0.00200693 1.88974)
(-0.000674528 0.00200693 1.88974)
(-0.00187248 0.0018725 1.85139)
(-0.00260854 0.00157157 1.76898)
(-0.00264431 0.00117185 1.63483)
(-0.00197666 0.000749525 1.44026)
(0.00218166 0.00027478 1.47719)
(0.00290305 0.000427718 1.67366)
(0.00284212 0.000570499 1.80844)
(0.00200702 0.000674557 1.88974)
(0.000712356 0.000712255 1.92555)
(-0.000712227 0.000712256 1.92555)
(-0.0020069 0.000674558 1.88974)
(-0.002842 0.000570502 1.80844)
(-0.00290295 0.000427722 1.67366)
(-0.00218157 0.000274785 1.47719)
(0.00218165 -0.000274868 1.47719)
(0.00290305 -0.0004278 1.67366)
(0.00284211 -0.000570576 1.80844)
(0.00200702 -0.00067463 1.88974)
(0.000712356 -0.000712326 1.92555)
(-0.000712226 -0.000712327 1.92555)
(-0.0020069 -0.000674631 1.88974)
(-0.002842 -0.000570578 1.80844)
(-0.00290295 -0.000427804 1.67366)
(-0.00218157 -0.000274874 1.47719)
(0.00197674 -0.000749595 1.44026)
(0.00264441 -0.00117192 1.63483)
(0.00260866 -0.00157164 1.76898)
(0.0018726 -0.00187257 1.85139)
(0.000674661 -0.00200699 1.88974)
(-0.000674527 -0.002007 1.88974)
(-0.00187247 -0.00187257 1.85139)
(-0.00260854 -0.00157165 1.76898)
(-0.0026443 -0.00117193 1.63483)
(-0.00197665 -0.000749611 1.44026)
(0.00161365 -0.0010214 1.3671)
(0.00217433 -0.00160291 1.55558)
(0.00216655 -0.00216651 1.68669)
(0.00157168 -0.00260863 1.76898)
(0.00057061 -0.00284209 1.80844)
(-0.000570467 -0.00284209 1.80844)
(-0.00157154 -0.00260863 1.76898)
(-0.00216642 -0.00216652 1.68669)
(-0.00217421 -0.00160293 1.55558)
(-0.00161356 -0.00102143 1.3671)
(0.00118929 -0.00101845 1.25978)
(0.00159453 -0.00159449 1.4327)
(0.00160296 -0.00217429 1.55558)
(0.00117196 -0.00264438 1.63483)
(0.000427839 -0.00290303 1.67366)
(-0.000427682 -0.00290303 1.67366)
(-0.00117181 -0.00264439 1.63483)
(-0.00160281 -0.00217431 1.55558)
(-0.0015944 -0.00159451 1.4327)
(-0.00118919 -0.00101849 1.25978)
(0.000803315 -0.000803273 1.12198)
(0.00101849 -0.00118925 1.25978)
(0.00102145 -0.00161362 1.3671)
(0.000749643 -0.00197671 1.44026)
(0.000274915 -0.00218163 1.47719)
(-0.000274737 -0.00218163 1.47719)
(-0.000749471 -0.00197673 1.44026)
(-0.00102129 -0.00161365 1.3671)
(-0.00101835 -0.00118929 1.25978)
(-0.000803199 -0.000803318 1.12198)
(0.001284 0.0012838 1.11324)
(0.00121459 0.00159597 1.25238)
(0.0010127 0.00186857 1.36111)
(0.000675398 0.00207537 1.43543)
(0.000237455 0.00218641 1.47301)
(-0.000237158 0.00218642 1.47301)
(-0.000675111 0.0020754 1.43543)
(-0.00101243 0.00186861 1.36111)
(-0.00121435 0.00159603 1.25238)
(-0.00128381 0.00128388 1.11324)
(0.00159615 0.00121436 1.25238)
(0.00154357 0.00154337 1.4275)
(0.00130811 0.00184344 1.55249)
(0.000879247 0.00207347 1.63344)
(0.000309691 0.00219618 1.67322)
(-0.000309428 0.00219619 1.67322)
(-0.000878991 0.0020735 1.63344)
(-0.00130787 0.00184347 1.55249)
(-0.00154335 0.00154342 1.4275)
(-0.00159598 0.00121442 1.25238)
(0.00186872 0.00101247 1.36111)
(0.00184361 0.0013079 1.55249)
(0.00157976 0.00157957 1.6864)
(0.00106496 0.00178464 1.77092)
(0.000374756 0.00188974 1.8116)
(-0.000374517 0.00188975 1.8116)
(-0.00106473 0.00178466 1.77092)
(-0.00157954 0.0015796 1.6864)
(-0.00184342 0.00130794 1.55249)
(-0.00186857 0.00101251 1.36111)
(0.0020755 0.000675162 1.43543)
(0.00207363 0.000879038 1.63344)
(0.00178481 0.00106477 1.77092)
(0.00119969 0.00119952 1.85591)
(0.000420005 0.00125648 1.89561)
(-0.000419781 0.00125649 1.89561)
(-0.00119947 0.00119952 1.85591)
(-0.00178461 0.00106479 1.77092)
(-0.00207345 0.000879058 1.63344)
(-0.00207536 0.000675189 1.43543)
(0.00218652 0.000237226 1.47301)
(0.00219632 0.000309487 1.67322)
(0.0018899 0.00037457 1.8116)
(0.00125665 0.000419831 1.89561)
(0.000434158 0.000433991 1.93272)
(-0.000433941 0.000433992 1.93272)
(-0.00125644 0.000419834 1.89561)
(-0.0018897 0.000374574 1.8116)
(-0.00219615 0.000309493 1.67322)
(-0.00218639 0.000237235 1.47301)
(0.00218652 -0.000237375 1.47301)
(0.00219631 -0.000309623 1.67322)
(0.00188989 -0.000374696 1.8116)
(0.00125665 -0.000419951 1.89561)
(0.000434158 -0.000434107 1.93272)
(-0.000433941 -0.000434108 1.93272)
(-0.00125644 -0.000419953 1.89561)
(-0.0018897 -0.0003747 1.8116)
(-0.00219614 -0.000309629 1.67322)
(-0.00218638 -0.000237383 1.47301)
(0.00207549 -0.000675307 1.43543)
(0.00207362 -0.000879171 1.63344)
(0.0017848 -0.0010649 1.77092)
(0.00119969 -0.00119963 1.85591)
(0.000420004 -0.0012566 1.89561)
(-0.000419779 -0.0012566 1.89561)
(-0.00119947 -0.00119964 1.85591)
(-0.0017846 -0.00106491 1.77092)
(-0.00207344 -0.000879188 1.63344)
(-0.00207534 -0.000675332 1.43543)
(0.0018687 -0.0010126 1.36111)
(0.0018436 -0.00130803 1.55249)
(0.00157975 -0.00157969 1.6864)
(0.00106495 -0.00178475 1.77092)
(0.000374755 -0.00188985 1.8116)
(-0.000374514 -0.00188985 1.8116)
(-0.00106472 -0.00178476 1.77092)
(-0.00157953 -0.00157971 1.6864)
(-0.0018434 -0.00130806 1.55249)
(-0.00186854 -0.00101264 1.36111)
(0.00159612 -0.00121448 1.25238)
(0.00154354 -0.00154348 1.42749)
(0.00130809 -0.00184354 1.55249)
(0.000879238 -0.00207357 1.63344)
(0.000309689 -0.00219627 1.67322)
(-0.000309424 -0.00219628 1.67322)
(-0.000878982 -0.00207359 1.63344)
(-0.00130785 -0.00184357 1.55249)
(-0.00154333 -0.00154353 1.4275)
(-0.00159595 -0.00121454 1.25238)
(0.00128397 -0.0012839 1.11324)
(0.00121456 -0.00159606 1.25238)
(0.00101268 -0.00186865 1.36111)
(0.000675386 -0.00207544 1.43543)
(0.000237451 -0.00218648 1.47301)
(-0.000237154 -0.00218649 1.47301)
(-0.000675098 -0.00207547 1.43543)
(-0.00101241 -0.00186869 1.36111)
(-0.00121432 -0.00159612 1.25238)
(-0.00128377 -0.00128397 1.11324)
(0.000168631 0.000168311 1.11514)
(0.000218222 0.000254103 1.25437)
(0.000220462 0.000349314 1.36331)
(0.000162005 0.000431293 1.43786)
(5.95648e-05 0.000477813 1.4756)
(-5.90901e-05 0.000477828 1.4756)
(-0.000161546 0.000431339 1.43786)
(-0.000220034 0.000349388 1.36331)
(-0.000217839 0.000254204 1.25437)
(-0.000168322 0.000168429 1.11514)
(0.00025439 0.000217862 1.25437)
(0.000346613 0.000346296 1.42979)
(0.000349178 0.000475238 1.55528)
(0.000255288 0.000580569 1.63671)
(9.33529e-05 0.000639341 1.67678)
(-9.29271e-05 0.000639352 1.67678)
(-0.000254875 0.000580603 1.63671)
(-0.000348793 0.000475294 1.55528)
(-0.000346269 0.000346374 1.42979)
(-0.00025411 0.000217961 1.25437)
(0.000349558 0.000220091 1.36331)
(0.000475515 0.00034885 1.55528)
(0.000474247 0.000473955 1.68998)
(0.000344833 0.000574375 1.77522)
(0.000125625 0.00062948 1.81632)
(-0.000125236 0.000629488 1.81632)
(-0.000344456 0.000574397 1.77522)
(-0.000473895 0.000473991 1.68998)
(-0.000475204 0.000348903 1.55528)
(-0.000349308 0.00022016 1.36331)
(0.000431504 0.000161631 1.43786)
(0.000580814 0.000254956 1.63671)
(0.00057464 0.000344534 1.77522)
(0.000415557 0.000415282 1.86112)
(0.0001507 0.000450199 1.90133)
(-0.000150335 0.000450203 1.90133)
(-0.000415203 0.000415294 1.86112)
(-0.000574311 0.000344555 1.77522)
(-0.000580524 0.000254987 1.63671)
(-0.000431271 0.000161672 1.43786)
(0.000477994 5.92011e-05 1.47559)
(0.000639561 9.30273e-05 1.67677)
(0.000629727 0.000125329 1.81632)
(0.000450461 0.000150423 1.90133)
(0.000161119 0.000160852 1.93895)
(-0.000160765 0.000160853 1.93895)
(-0.000450117 0.000150427 1.90133)
(-0.000629408 0.000125335 1.81632)
(-0.000639282 9.3037e-05 1.67678)
(-0.000477771 5.92144e-05 1.4756)
(0.000477987 -5.94331e-05 1.47559)
(0.000639556 -9.32373e-05 1.67677)
(0.000629724 -0.000125522 1.81632)
(0.000450459 -0.000150606 1.90133)
(0.000161118 -0.000161029 1.93895)
(-0.000160764 -0.00016103 1.93895)
(-0.000450115 -0.000150609 1.90133)
(-0.000629405 -0.000125529 1.81632)
(-0.000639276 -9.32471e-05 1.67678)
(-0.000477764 -5.94469e-05 1.4756)
(0.000431482 -0.000161856 1.43786)
(0.000580798 -0.00025516 1.63671)
(0.00057463 -0.000344722 1.77522)
(0.000415552 -0.000415459 1.86112)
(0.000150698 -0.000450371 1.90133)
(-0.000150333 -0.000450374 1.90133)
(-0.000415198 -0.00041547 1.86112)
(-0.0005743 -0.000344742 1.77522)
(-0.000580508 -0.00025519 1.63671)
(-0.00043125 -0.000161897 1.43786)
(0.000349523 -0.0002203 1.3633)
(0.000475488 -0.00034904 1.55528)
(0.000474229 -0.000474129 1.68998)
(0.000344823 -0.000574539 1.77522)
(0.000125622 -0.00062964 1.81632)
(-0.000125233 -0.000629647 1.81632)
(-0.000344446 -0.00057456 1.77522)
(-0.000473878 -0.000474165 1.68998)
(-0.000475177 -0.000349092 1.55528)
(-0.000349273 -0.000220369 1.36331)
(0.000254341 -0.00021805 1.25437)
(0.000346575 -0.000346466 1.42979)
(0.000349153 -0.000475393 1.55528)
(0.000255273 -0.000580714 1.63671)
(9.33478e-05 -0.00063948 1.67677)
(-9.29228e-05 -0.000639491 1.67677)
(-0.000254861 -0.000580747 1.63671)
(-0.000348768 -0.000475448 1.55528)
(-0.000346232 -0.000346543 1.42979)
(-0.000254062 -0.000218147 1.25437)
(0.000168575 -0.000168464 1.11514)
(0.000218174 -0.000254242 1.25437)
(0.000220428 -0.000349438 1.3633)
(0.000161984 -0.000431409 1.43786)
(5.95574e-05 -0.000477923 1.4756)
(-5.90846e-05 -0.000477938 1.4756)
(-0.000161527 -0.000431453 1.43786)
(-0.000220002 -0.00034951 1.36331)
(-0.000217793 -0.000254341 1.25437)
(-0.000168266 -0.000168579 1.11514)
(0.000324677 0.0003242 1.11291)
(0.00030519 0.000402256 1.25249)
(0.000252818 0.000469726 1.36179)
(0.000167846 0.000520517 1.43663)
(5.90591e-05 0.000547714 1.47452)
(-5.83467e-05 0.000547736 1.47452)
(-0.000167156 0.000520583 1.43663)
(-0.000252176 0.000469833 1.36179)
(-0.000304617 0.000402403 1.2525)
(-0.000324213 0.000324371 1.11291)
(0.000402683 0.00030465 1.25249)
(0.000385763 0.000385286 1.42848)
(0.000323991 0.000457797 1.55449)
(0.00021643 0.000512877 1.63633)
(7.61721e-05 0.000542218 1.67662)
(-7.55302e-05 0.000542235 1.67662)
(-0.000215808 0.000512927 1.63633)
(-0.000323412 0.00045788 1.5545)
(-0.000385246 0.000385401 1.42848)
(-0.000402262 0.000304795 1.2525)
(0.000470091 0.000252258 1.36179)
(0.000458215 0.000323495 1.55449)
(0.000388452 0.000388009 1.68987)
(0.000260117 0.000436413 1.77563)
(9.14256e-05 0.000461417 1.81702)
(-9.08374e-05 0.000461427 1.81702)
(-0.000259548 0.000436445 1.77563)
(-0.000387921 0.000388064 1.68987)
(-0.000457745 0.000323573 1.5545)
(-0.000469714 0.00025236 1.36179)
(0.000520832 0.000167281 1.43663)
(0.000513247 0.000215927 1.63633)
(0.000436815 0.000259663 1.77563)
(0.000291919 0.0002915 1.86213)
(0.000102139 0.000305482 1.90266)
(-0.000101586 0.000305487 1.90266)
(-0.000291383 0.000291517 1.86213)
(-0.000436317 0.000259694 1.77563)
(-0.000512808 0.000215971 1.63633)
(-0.000520481 0.000167342 1.43663)
(0.000547985 5.85084e-05 1.47452)
(0.000542552 7.56769e-05 1.67662)
(0.000461791 9.09733e-05 1.81702)
(0.000305881 0.000101716 1.90266)
(0.00010568 0.000105272 1.9406)
(-0.000105144 0.000105274 1.9406)
(-0.00030536 0.000101722 1.90266)
(-0.000461308 9.09828e-05 1.81702)
(-0.000542129 7.5691e-05 1.67662)
(-0.000547648 5.85276e-05 1.47452)
(0.000547974 -5.88669e-05 1.47452)
(0.000542543 -7.60033e-05 1.67662)
(0.000461786 -9.12748e-05 1.81702)
(0.000305878 -0.000102001 1.90266)
(0.000105679 -0.000105549 1.9406)
(-0.000105143 -0.000105551 1.9406)
(-0.000305358 -0.000102007 1.90266)
(-0.000461303 -9.12847e-05 1.81702)
(-0.000542121 -7.60184e-05 1.67662)
(-0.000547637 -5.88883e-05 1.47452)
(0.000520797 -0.000167628 1.43663)
(0.000513221 -0.000216243 1.63633)
(0.000436799 -0.000259955 1.77563)
(0.00029191 -0.000291775 1.86213)
(0.000102137 -0.00030575 1.90266)
(-0.000101584 -0.000305756 1.90266)
(-0.000291374 -0.000291793 1.86213)
(-0.000436301 -0.000259986 1.77563)
(-0.000512784 -0.000216288 1.63633)
(-0.000520448 -0.00016769 1.43663)
(0.000470036 -0.000252581 1.36179)
(0.000458172 -0.00032379 1.55449)
(0.000388423 -0.00038828 1.68987)
(0.000260101 -0.000436669 1.77563)
(9.142e-05 -0.000461666 1.81702)
(-9.08332e-05 -0.000461676 1.81702)
(-0.000259533 -0.000436701 1.77563)
(-0.000387894 -0.000388335 1.68987)
(-0.000457705 -0.000323868 1.5545)
(-0.000469661 -0.000252684 1.36179)
(0.000402607 -0.000304939 1.25249)
(0.000385704 -0.000385549 1.42848)
(0.000323951 -0.000458037 1.55449)
(0.000216406 -0.000513102 1.63633)
(7.61632e-05 -0.000542436 1.67662)
(-7.55246e-05 -0.000542452 1.67662)
(-0.000215787 -0.000513152 1.63633)
(-0.000323375 -0.00045812 1.55449)
(-0.00038519 -0.000385664 1.42848)
(-0.00040219 -0.000305084 1.2525)
(0.000324588 -0.000324433 1.11291)
(0.000305114 -0.000402469 1.25249)
(0.000252763 -0.000469918 1.36179)
(0.000167812 -0.000520696 1.43663)
(5.90459e-05 -0.000547886 1.47452)
(-5.83398e-05 -0.000547908 1.47452)
(-0.000167129 -0.000520762 1.43663)
(-0.000252128 -0.000470024 1.36179)
(-0.000304548 -0.000402615 1.2525)