/*--------------------------------*- C++ -*----------------------------------*\
| =========                 |                                                 |
| \\      /  F ield         | OpenFOAM: The Open Source CFD Toolbox           |
|  \\    /   O peration     | Version:  2406                                  |
|   \\  /    A nd           | Website:  www.openfoam.com                      |
|    \\/     M anipulation  |                                                 |
\*---------------------------------------------------------------------------*/
FoamFile
{
    version     2.0;
    format      ascii;
    arch        "LSB;label=32;scalar=64";
    class       volVectorField;
    location    "6.4";
    object      U;
}
// * * * * * * * * * * * * * * * * * * * * * * * * * * * * * * * * * * * * * //

dimensions      [0 1 -1 0 0 0 0];

internalField   nonuniform List<vector> 
16000
(
(0.153132 0.153132 1.11474)
(0.117573 0.168169 1.1542)
(0.072459 0.17688 1.17285)
(0.0244946 0.180953 1.18018)
(-0.0244946 0.180953 1.18018)
(-0.072459 0.17688 1.17285)
(-0.117573 0.168169 1.1542)
(-0.153132 0.153132 1.11474)
(0.168169 0.117573 1.1542)
(0.126109 0.126109 1.18728)
(0.0766337 0.131081 1.19757)
(0.0257137 0.133402 1.19978)
(-0.0257137 0.133402 1.19978)
(-0.0766337 0.131081 1.19757)
(-0.126109 0.126109 1.18728)
(-0.168169 0.117573 1.1542)
(0.17688 0.072459 1.17285)
(0.131081 0.0766337 1.19757)
(0.0792027 0.0792027 1.20176)
(0.0264749 0.0803911 1.20065)
(-0.0264749 0.0803911 1.20065)
(-0.0792027 0.0792027 1.20176)
(-0.131081 0.0766337 1.19757)
(-0.17688 0.072459 1.17285)
(0.180953 0.0244946 1.18018)
(0.133402 0.0257137 1.19978)
(0.0803911 0.0264749 1.20065)
(0.0268183 0.0268183 1.1979)
(-0.0268183 0.0268183 1.1979)
(-0.0803911 0.0264749 1.20065)
(-0.133402 0.0257137 1.19978)
(-0.180953 0.0244946 1.18018)
(0.180953 -0.0244946 1.18018)
(0.133402 -0.0257137 1.19978)
(0.0803911 -0.0264749 1.20065)
(0.0268183 -0.0268183 1.1979)
(-0.0268183 -0.0268183 1.1979)
(-0.0803911 -0.0264749 1.20065)
(-0.133402 -0.0257137 1.19978)
(-0.180953 -0.0244946 1.18018)
(0.17688 -0.072459 1.17285)
(0.131081 -0.0766337 1.19757)
(0.0792027 -0.0792027 1.20176)
(0.0264749 -0.0803911 1.20065)
(-0.0264749 -0.0803911 1.20065)
(-0.0792027 -0.0792027 1.20176)
(-0.131081 -0.0766337 1.19757)
(-0.17688 -0.072459 1.17285)
(0.168169 -0.117573 1.1542)
(0.126109 -0.126109 1.18728)
(0.0766337 -0.131081 1.19757)
(0.0257137 -0.133402 1.19978)
(-0.0257137 -0.133402 1.19978)
(-0.0766337 -0.131081 1.19757)
(-0.126109 -0.126109 1.18728)
(-0.168169 -0.117573 1.1542)
(0.153132 -0.153132 1.11474)
(0.117573 -0.168169 1.1542)
(0.072459 -0.17688 1.17285)
(0.0244946 -0.180953 1.18018)
(-0.0244946 -0.180953 1.18018)
(-0.072459 -0.17688 1.17285)
(-0.117573 -0.168169 1.1542)
(-0.153132 -0.153132 1.11474)
(0.0494154 0.0494154 1.29062)
(0.0414003 0.0615755 1.3895)
(0.0279271 0.0703803 1.44408)
(0.00984083 0.075171 1.46809)
(-0.00984083 0.075171 1.46809)
(-0.0279271 0.0703803 1.44408)
(-0.0414003 0.0615755 1.3895)
(-0.0494154 0.0494154 1.29062)
(0.0615755 0.0414003 1.3895)
(0.0531611 0.0531611 1.48728)
(0.0357288 0.0616406 1.53241)
(0.0125458 0.0660227 1.54992)
(-0.0125458 0.0660227 1.54992)
(-0.0357288 0.0616406 1.53241)
(-0.0531611 0.0531611 1.48728)
(-0.0615755 0.0414003 1.3895)
(0.0703803 0.0279271 1.44408)
(0.0616406 0.0357288 1.53241)
(0.0413007 0.0413007 1.57006)
(0.0144349 0.0441146 1.5832)
(-0.0144349 0.0441146 1.5832)
(-0.0413007 0.0413007 1.57006)
(-0.0616406 0.0357288 1.53241)
(-0.0703803 0.0279271 1.44408)
(0.075171 0.00984083 1.46809)
(0.0660227 0.0125458 1.54992)
(0.0441146 0.0144349 1.5832)
(0.0153734 0.0153734 1.59386)
(-0.0153734 0.0153734 1.59386)
(-0.0441146 0.0144349 1.5832)
(-0.0660227 0.0125458 1.54992)
(-0.0751711 0.00984083 1.46809)
(0.075171 -0.00984083 1.46809)
(0.0660227 -0.0125458 1.54992)
(0.0441146 -0.0144349 1.5832)
(0.0153734 -0.0153734 1.59386)
(-0.0153734 -0.0153734 1.59386)
(-0.0441146 -0.0144349 1.5832)
(-0.0660227 -0.0125458 1.54992)
(-0.0751711 -0.00984083 1.46809)
(0.0703803 -0.027927 1.44408)
(0.0616406 -0.0357288 1.53241)
(0.0413007 -0.0413007 1.57006)
(0.0144349 -0.0441146 1.5832)
(-0.0144349 -0.0441146 1.5832)
(-0.0413007 -0.0413007 1.57006)
(-0.0616406 -0.0357288 1.53241)
(-0.0703803 -0.027927 1.44408)
(0.0615755 -0.0414003 1.3895)
(0.0531611 -0.0531611 1.48728)
(0.0357288 -0.0616406 1.53241)
(0.0125458 -0.0660227 1.54992)
(-0.0125458 -0.0660227 1.54992)
(-0.0357288 -0.0616406 1.53241)
(-0.0531611 -0.0531611 1.48728)
(-0.0615755 -0.0414003 1.3895)
(0.0494154 -0.0494154 1.29062)
(0.0414003 -0.0615755 1.3895)
(0.027927 -0.0703803 1.44408)
(0.00984083 -0.075171 1.46809)
(-0.00984083 -0.075171 1.46809)
(-0.0279271 -0.0703803 1.44408)
(-0.0414003 -0.0615755 1.3895)
(-0.0494154 -0.0494154 1.29062)
(0.0295334 0.0295334 1.18369)
(0.0263057 0.0381217 1.33605)
(0.0179588 0.0440247 1.43119)
(0.00638113 0.0472238 1.47636)
(-0.00638113 0.0472238 1.47636)
(-0.0179588 0.0440247 1.43119)
(-0.0263057 0.0381217 1.33605)
(-0.0295334 0.0295334 1.18369)
(0.0381217 0.0263057 1.33605)
(0.03387 0.03387 1.50686)
(0.0231033 0.0393329 1.60045)
(0.00819889 0.0422271 1.64149)
(-0.00819889 0.0422271 1.64149)
(-0.0231033 0.0393329 1.60045)
(-0.03387 0.03387 1.50686)
(-0.0381217 0.0263057 1.33605)
(0.0440247 0.0179588 1.43119)
(0.0393329 0.0231033 1.60045)
(0.0268026 0.0268026 1.68906)
(0.00948465 0.028713 1.72654)
(-0.00948465 0.028713 1.72654)
(-0.0268026 0.0268026 1.68906)
(-0.0393329 0.0231033 1.60045)
(-0.0440247 0.0179588 1.43119)
(0.0472238 0.00638113 1.47636)
(0.042227 0.00819889 1.64149)
(0.028713 0.00948465 1.72654)
(0.0101528 0.0101528 1.76219)
(-0.0101528 0.0101528 1.76219)
(-0.028713 0.00948465 1.72654)
(-0.042227 0.00819889 1.64149)
(-0.0472238 0.00638113 1.47636)
(0.0472238 -0.00638113 1.47636)
(0.042227 -0.00819889 1.64149)
(0.028713 -0.00948464 1.72654)
(0.0101528 -0.0101528 1.76219)
(-0.0101528 -0.0101528 1.76219)
(-0.028713 -0.00948464 1.72654)
(-0.042227 -0.00819889 1.64149)
(-0.0472238 -0.00638113 1.47636)
(0.0440247 -0.0179588 1.43119)
(0.0393329 -0.0231033 1.60045)
(0.0268026 -0.0268026 1.68906)
(0.00948465 -0.028713 1.72654)
(-0.00948465 -0.028713 1.72654)
(-0.0268026 -0.0268026 1.68906)
(-0.0393329 -0.0231033 1.60045)
(-0.0440247 -0.0179588 1.43119)
(0.0381217 -0.0263057 1.33605)
(0.03387 -0.03387 1.50686)
(0.0231033 -0.0393329 1.60045)
(0.00819889 -0.042227 1.64149)
(-0.00819889 -0.042227 1.64149)
(-0.0231033 -0.0393329 1.60045)
(-0.03387 -0.03387 1.50686)
(-0.0381217 -0.0263057 1.33605)
(0.0295334 -0.0295334 1.18369)
(0.0263057 -0.0381217 1.33605)
(0.0179588 -0.0440247 1.43119)
(0.00638113 -0.0472238 1.47636)
(-0.00638113 -0.0472238 1.47636)
(-0.0179588 -0.0440247 1.43119)
(-0.0263057 -0.0381217 1.33605)
(-0.0295334 -0.0295334 1.18369)
(0.00607788 0.00607788 1.17735)
(0.00678721 0.00932593 1.34012)
(0.00531535 0.0121436 1.44756)
(0.00200434 0.0137879 1.50053)
(-0.00200434 0.0137879 1.50053)
(-0.00531535 0.0121436 1.44756)
(-0.00678721 0.00932593 1.34012)
(-0.00607788 0.00607788 1.17735)
(0.00932593 0.00678721 1.34012)
(0.010642 0.010642 1.53329)
(0.0082524 0.0137676 1.64786)
(0.00308277 0.0154575 1.70082)
(-0.00308277 0.0154575 1.70082)
(-0.0082524 0.0137676 1.64786)
(-0.010642 0.010642 1.53329)
(-0.00932593 0.00678721 1.34012)
(0.0121436 0.00531536 1.44756)
(0.0137676 0.0082524 1.64786)
(0.0104758 0.0104758 1.76219)
(0.00386311 0.0115575 1.81303)
(-0.00386311 0.0115575 1.81303)
(-0.0104758 0.0104758 1.76219)
(-0.0137676 0.0082524 1.64786)
(-0.0121436 0.00531536 1.44756)
(0.0137879 0.00200435 1.50053)
(0.0154575 0.00308277 1.70082)
(0.0115575 0.00386311 1.81303)
(0.00421153 0.00421154 1.8613)
(-0.00421153 0.00421154 1.8613)
(-0.0115575 0.00386311 1.81303)
(-0.0154575 0.00308277 1.70082)
(-0.0137879 0.00200435 1.50053)
(0.0137879 -0.00200434 1.50053)
(0.0154575 -0.00308276 1.70082)
(0.0115575 -0.0038631 1.81303)
(0.00421153 -0.00421153 1.8613)
(-0.00421153 -0.00421153 1.8613)
(-0.0115575 -0.0038631 1.81303)
(-0.0154575 -0.00308276 1.70082)
(-0.0137879 -0.00200434 1.50053)
(0.0121436 -0.00531535 1.44756)
(0.0137676 -0.00825239 1.64786)
(0.0104758 -0.0104758 1.76219)
(0.00386311 -0.0115575 1.81303)
(-0.00386311 -0.0115575 1.81303)
(-0.0104758 -0.0104758 1.76219)
(-0.0137676 -0.00825239 1.64786)
(-0.0121436 -0.00531535 1.44756)
(0.00932593 -0.00678721 1.34012)
(0.0106419 -0.0106419 1.53329)
(0.0082524 -0.0137676 1.64786)
(0.00308277 -0.0154575 1.70082)
(-0.00308277 -0.0154575 1.70082)
(-0.0082524 -0.0137676 1.64786)
(-0.010642 -0.0106419 1.53329)
(-0.00932593 -0.00678721 1.34012)
(0.00607788 -0.00607788 1.17735)
(0.00678721 -0.00932593 1.34012)
(0.00531535 -0.0121436 1.44756)
(0.00200434 -0.0137879 1.50053)
(-0.00200434 -0.0137879 1.50053)
(-0.00531535 -0.0121436 1.44756)
(-0.00678721 -0.00932593 1.34012)
(-0.00607788 -0.00607788 1.17735)
(0.00420929 0.00420929 1.15879)
(0.00417758 0.00573707 1.32761)
(0.00305281 0.00697193 1.44156)
(0.00112169 0.00767951 1.4987)
(-0.00112169 0.00767951 1.4987)
(-0.00305281 0.00697193 1.44156)
(-0.00417758 0.00573707 1.32761)
(-0.00420929 0.00420929 1.15879)
(0.00573707 0.00417758 1.32761)
(0.0058271 0.00582711 1.53244)
(0.00432306 0.00720708 1.65824)
(0.00159285 0.00796351 1.71788)
(-0.00159285 0.00796351 1.71788)
(-0.00432306 0.00720708 1.65824)
(-0.0058271 0.0058271 1.53244)
(-0.00573707 0.00417758 1.32761)
(0.00697193 0.00305281 1.44156)
(0.00720707 0.00432306 1.65824)
(0.00533722 0.00533722 1.7871)
(0.00194952 0.00580511 1.84585)
(-0.00194952 0.00580511 1.84585)
(-0.00533722 0.00533722 1.7871)
(-0.00720708 0.00432306 1.65824)
(-0.00697194 0.00305281 1.44156)
(0.00767951 0.00112169 1.4987)
(0.00796351 0.00159285 1.71788)
(0.00580511 0.00194952 1.84585)
(0.00208328 0.00208329 1.90127)
(-0.00208328 0.00208328 1.90127)
(-0.00580511 0.00194952 1.84585)
(-0.00796351 0.00159285 1.71788)
(-0.00767951 0.00112169 1.4987)
(0.00767951 -0.00112169 1.4987)
(0.00796351 -0.00159285 1.71788)
(0.00580511 -0.00194951 1.84585)
(0.00208328 -0.00208328 1.90127)
(-0.00208328 -0.00208328 1.90127)
(-0.00580511 -0.00194951 1.84585)
(-0.00796351 -0.00159285 1.71788)
(-0.00767951 -0.00112169 1.4987)
(0.00697193 -0.00305281 1.44156)
(0.00720707 -0.00432305 1.65824)
(0.00533722 -0.00533722 1.7871)
(0.00194952 -0.0058051 1.84585)
(-0.00194952 -0.0058051 1.84585)
(-0.00533722 -0.00533722 1.7871)
(-0.00720707 -0.00432305 1.65824)
(-0.00697193 -0.00305281 1.44156)
(0.00573707 -0.00417758 1.32761)
(0.0058271 -0.0058271 1.53244)
(0.00432306 -0.00720707 1.65824)
(0.00159285 -0.0079635 1.71788)
(-0.00159285 -0.0079635 1.71788)
(-0.00432306 -0.00720707 1.65824)
(-0.0058271 -0.0058271 1.53244)
(-0.00573707 -0.00417758 1.32761)
(0.00420928 -0.00420928 1.15879)
(0.00417758 -0.00573707 1.32761)
(0.00305281 -0.00697193 1.44156)
(0.00112169 -0.00767951 1.4987)
(-0.00112169 -0.00767951 1.4987)
(-0.00305281 -0.00697193 1.44156)
(-0.00417758 -0.00573707 1.32761)
(-0.00420929 -0.00420928 1.15879)
(0.00130174 0.00130174 1.15563)
(0.00140465 0.00190345 1.3259)
(0.00109256 0.00244352 1.44189)
(0.000412967 0.00276631 1.50046)
(-0.000412967 0.00276631 1.50046)
(-0.00109256 0.00244352 1.44189)
(-0.00140465 0.00190345 1.3259)
(-0.00130174 0.00130174 1.15563)
(0.00190345 0.00140465 1.3259)
(0.00214529 0.0021453 1.53424)
(0.0016872 0.00280356 1.66415)
(0.000637026 0.00317699 1.72646)
(-0.000637026 0.00317699 1.72646)
(-0.0016872 0.00280356 1.66415)
(-0.0021453 0.0021453 1.53424)
(-0.00190345 0.00140465 1.3259)
(0.00244352 0.00109257 1.44189)
(0.00280356 0.0016872 1.66415)
(0.00219038 0.00219038 1.7989)
(0.000816972 0.0024356 1.86114)
(-0.000816972 0.0024356 1.86114)
(-0.00219038 0.00219038 1.7989)
(-0.00280356 0.0016872 1.66415)
(-0.00244352 0.00109257 1.44189)
(0.00276631 0.00041297 1.50046)
(0.00317699 0.000637029 1.72646)
(0.0024356 0.000816975 1.86114)
(0.000886492 0.000886495 1.91993)
(-0.000886493 0.000886495 1.91993)
(-0.0024356 0.000816975 1.86114)
(-0.00317699 0.000637029 1.72646)
(-0.00276631 0.00041297 1.50046)
(0.00276631 -0.000412964 1.50046)
(0.00317699 -0.000637022 1.72646)
(0.0024356 -0.000816969 1.86114)
(0.000886492 -0.00088649 1.91993)
(-0.000886493 -0.00088649 1.91993)
(-0.0024356 -0.000816969 1.86114)
(-0.00317699 -0.000637022 1.72646)
(-0.00276631 -0.000412964 1.50046)
(0.00244352 -0.00109256 1.44189)
(0.00280356 -0.00168719 1.66415)
(0.00219038 -0.00219038 1.7989)
(0.000816972 -0.00243559 1.86114)
(-0.000816972 -0.00243559 1.86114)
(-0.00219038 -0.00219038 1.7989)
(-0.00280356 -0.00168719 1.66415)
(-0.00244352 -0.00109256 1.44189)
(0.00190345 -0.00140464 1.3259)
(0.00214529 -0.00214529 1.53424)
(0.0016872 -0.00280355 1.66415)
(0.000637026 -0.00317699 1.72646)
(-0.000637026 -0.00317699 1.72646)
(-0.0016872 -0.00280355 1.66415)
(-0.00214529 -0.00214529 1.53424)
(-0.00190345 -0.00140465 1.3259)
(0.00130174 -0.00130174 1.15563)
(0.00140465 -0.00190345 1.3259)
(0.00109256 -0.00244352 1.44189)
(0.000412967 -0.00276631 1.50046)
(-0.000412968 -0.00276631 1.50046)
(-0.00109256 -0.00244352 1.44189)
(-0.00140465 -0.00190345 1.3259)
(-0.00130174 -0.00130174 1.15563)
(0.000792204 0.000792205 1.15296)
(0.000788355 0.00108156 1.32433)
(0.000581398 0.00132234 1.44146)
(0.000214721 0.00146385 1.50077)
(-0.00021472 0.00146385 1.50077)
(-0.000581397 0.00132234 1.44146)
(-0.000788354 0.00108156 1.32433)
(-0.000792206 0.000792205 1.15296)
(0.00108156 0.000788357 1.32433)
(0.00110842 0.00110842 1.53467)
(0.000833461 0.00139004 1.66657)
(0.000309536 0.00155285 1.73013)
(-0.000309535 0.00155285 1.73013)
(-0.00083346 0.00139004 1.66657)
(-0.00110842 0.00110842 1.53467)
(-0.00108156 0.000788357 1.32433)
(0.00132233 0.000581402 1.44146)
(0.00139004 0.000833465 1.66657)
(0.00105205 0.00105206 1.80409)
(0.000388559 0.00116372 1.86797)
(-0.000388558 0.00116372 1.86797)
(-0.00105205 0.00105206 1.80409)
(-0.00139004 0.000833464 1.66657)
(-0.00132234 0.000581401 1.44146)
(0.00146384 0.000214724 1.50077)
(0.00155285 0.00030954 1.73013)
(0.00116372 0.000388563 1.86797)
(0.000420373 0.000420376 1.92846)
(-0.000420373 0.000420376 1.92846)
(-0.00116372 0.000388562 1.86797)
(-0.00155285 0.00030954 1.73013)
(-0.00146385 0.000214724 1.50077)
(0.00146384 -0.000214716 1.50077)
(0.00155285 -0.000309531 1.73013)
(0.00116372 -0.000388555 1.86797)
(0.000420373 -0.000420369 1.92846)
(-0.000420373 -0.000420369 1.92846)
(-0.00116372 -0.000388555 1.86797)
(-0.00155285 -0.000309531 1.73013)
(-0.00146385 -0.000214716 1.50077)
(0.00132233 -0.000581394 1.44146)
(0.00139004 -0.000833456 1.66657)
(0.00105205 -0.00105205 1.80409)
(0.000388559 -0.00116372 1.86797)
(-0.000388559 -0.00116372 1.86797)
(-0.00105205 -0.00105205 1.80409)
(-0.00139004 -0.000833456 1.66657)
(-0.00132233 -0.000581394 1.44146)
(0.00108156 -0.00078835 1.32433)
(0.00110842 -0.00110841 1.53467)
(0.00083346 -0.00139004 1.66657)
(0.000309535 -0.00155284 1.73013)
(-0.000309536 -0.00155284 1.73013)
(-0.000833461 -0.00139004 1.66657)
(-0.00110842 -0.00110841 1.53467)
(-0.00108156 -0.000788351 1.32433)
(0.000792201 -0.000792201 1.15296)
(0.000788353 -0.00108155 1.32433)
(0.000581397 -0.00132233 1.44146)
(0.00021472 -0.00146384 1.50077)
(-0.00021472 -0.00146384 1.50077)
(-0.000581398 -0.00132233 1.44146)
(-0.000788353 -0.00108156 1.32433)
(-0.000792204 -0.000792203 1.15296)
(0.000340736 0.000340737 1.1521)
(0.000347865 0.000479672 1.32392)
(0.000260863 0.000598211 1.44154)
(9.69833e-05 0.000668247 1.50117)
(-9.69838e-05 0.000668247 1.50117)
(-0.000260864 0.000598211 1.44154)
(-0.000347866 0.000479673 1.32392)
(-0.000340739 0.000340739 1.1521)
(0.000479667 0.000347868 1.32392)
(0.000505478 0.000505482 1.53513)
(0.000384179 0.00064285 1.6679)
(0.000143137 0.000722071 1.732)
(-0.000143138 0.000722071 1.732)
(-0.000384179 0.00064285 1.6679)
(-0.000505479 0.000505482 1.53513)
(-0.000479672 0.000347869 1.32392)
(0.000598205 0.000260867 1.44154)
(0.000642845 0.000384184 1.6679)
(0.000489664 0.000489669 1.80663)
(0.0001812 0.000544341 1.87124)
(-0.000181201 0.000544341 1.87124)
(-0.000489665 0.000489669 1.80663)
(-0.000642846 0.000384184 1.6679)
(-0.000598209 0.000260868 1.44154)
(0.000668241 9.69878e-05 1.50117)
(0.000722067 0.000143142 1.732)
(0.000544337 0.000181205 1.87124)
(0.000196974 0.000196978 1.93251)
(-0.000196975 0.000196978 1.93251)
(-0.000544338 0.000181204 1.87124)
(-0.000722068 0.000143142 1.732)
(-0.000668244 9.6988e-05 1.50117)
(0.000668241 -9.69794e-05 1.50117)
(0.000722067 -0.000143133 1.732)
(0.000544337 -0.000181196 1.87124)
(0.000196974 -0.000196971 1.93251)
(-0.000196975 -0.000196971 1.93251)
(-0.000544338 -0.000181196 1.87124)
(-0.000722068 -0.000143133 1.732)
(-0.000668243 -9.69793e-05 1.50117)
(0.000598206 -0.00026086 1.44154)
(0.000642845 -0.000384175 1.6679)
(0.000489664 -0.00048966 1.80663)
(0.0001812 -0.000544334 1.87124)
(-0.000181201 -0.000544334 1.87124)
(-0.000489665 -0.000489661 1.80663)
(-0.000642846 -0.000384175 1.6679)
(-0.000598208 -0.00026086 1.44154)
(0.000479667 -0.000347861 1.32392)
(0.000505477 -0.000505474 1.53513)
(0.000384179 -0.000642842 1.6679)
(0.000143137 -0.000722064 1.732)
(-0.000143138 -0.000722064 1.732)
(-0.000384179 -0.000642842 1.6679)
(-0.000505478 -0.000505474 1.53513)
(-0.000479669 -0.000347862 1.32392)
(0.000340734 -0.000340733 1.1521)
(0.000347864 -0.000479665 1.32392)
(0.000260863 -0.000598203 1.44154)
(9.69832e-05 -0.000668239 1.50117)
(-9.6984e-05 -0.000668239 1.50117)
(-0.000260864 -0.000598204 1.44154)
(-0.000347865 -0.000479666 1.32392)
(-0.000340736 -0.000340735 1.1521)
(0.000183378 0.00018338 1.15155)
(0.000182636 0.000252985 1.32363)
(0.0001345 0.000310879 1.44151)
(4.95861e-05 0.000344803 1.5013)
(-4.95833e-05 0.000344803 1.5013)
(-0.000134497 0.000310878 1.44151)
(-0.000182634 0.000252983 1.32363)
(-0.000183378 0.000183379 1.15155)
(0.000252981 0.000182639 1.32363)
(0.000258956 0.000258961 1.5353)
(0.000193546 0.000324769 1.66852)
(7.1591e-05 0.000362584 1.73289)
(-7.15886e-05 0.000362583 1.73289)
(-0.000193544 0.000324768 1.66852)
(-0.000258955 0.000258959 1.5353)
(-0.000252983 0.000182638 1.32363)
(0.000310874 0.000134504 1.44151)
(0.000324764 0.000193551 1.66852)
(0.000243696 0.000243701 1.80785)
(8.96178e-05 0.000269587 1.87281)
(-8.96161e-05 0.000269587 1.87281)
(-0.000243695 0.0002437 1.80785)
(-0.000324764 0.00019355 1.66852)
(-0.000310876 0.000134503 1.44151)
(0.000344798 4.95903e-05 1.5013)
(0.000362579 7.15958e-05 1.73289)
(0.000269583 8.96221e-05 1.87281)
(9.70176e-05 9.70214e-05 1.93446)
(-9.70164e-05 9.70212e-05 1.93446)
(-0.000269582 8.96215e-05 1.87281)
(-0.000362579 7.15948e-05 1.73289)
(-0.000344801 4.95893e-05 1.5013)
(0.000344798 -4.95793e-05 1.5013)
(0.000362579 -7.1584e-05 1.73289)
(0.000269583 -8.96119e-05 1.87281)
(9.70174e-05 -9.70126e-05 1.93446)
(-9.70165e-05 -9.70128e-05 1.93446)
(-0.000269582 -8.96124e-05 1.87281)
(-0.000362579 -7.15847e-05 1.73289)
(-0.0003448 -4.95801e-05 1.5013)
(0.000310873 -0.000134494 1.44151)
(0.000324763 -0.00019354 1.66852)
(0.000243696 -0.000243691 1.80785)
(8.96173e-05 -0.000269578 1.87281)
(-8.96166e-05 -0.000269579 1.87281)
(-0.000243695 -0.000243691 1.80785)
(-0.000324763 -0.00019354 1.66852)
(-0.000310876 -0.000134494 1.44151)
(0.000252978 -0.00018263 1.32363)
(0.000258954 -0.00025895 1.5353)
(0.000193545 -0.000324759 1.66852)
(7.159e-05 -0.000362575 1.73289)
(-7.15895e-05 -0.000362575 1.73289)
(-0.000193545 -0.00032476 1.66852)
(-0.000258954 -0.00025895 1.5353)
(-0.000252981 -0.000182631 1.32363)
(0.000183375 -0.000183374 1.15155)
(0.000182633 -0.000252976 1.32363)
(0.000134499 -0.00031087 1.44151)
(4.95848e-05 -0.000344795 1.5013)
(-4.95845e-05 -0.000344795 1.5013)
(-0.000134498 -0.000310871 1.44151)
(-0.000182634 -0.000252977 1.32363)
(-0.000183376 -0.000183376 1.15155)
(8.67714e-05 8.6773e-05 1.15132)
(8.77096e-05 0.000121325 1.32351)
(6.52145e-05 0.000150478 1.44152)
(2.41381e-05 0.00016761 1.50139)
(-2.41366e-05 0.00016761 1.50139)
(-6.52133e-05 0.000150476 1.44152)
(-8.7709e-05 0.000121323 1.32351)
(-8.67722e-05 8.67727e-05 1.15132)
(0.000121318 8.77134e-05 1.32351)
(0.000126291 0.000126297 1.53541)
(9.51092e-05 0.000159577 1.66884)
(3.52683e-05 0.000178635 1.73335)
(-3.52671e-05 0.000178635 1.73335)
(-9.51082e-05 0.000159576 1.66884)
(-0.000126291 0.000126296 1.53541)
(-0.000121321 8.77129e-05 1.32351)
(0.00015047 6.5219e-05 1.44152)
(0.000159571 9.51146e-05 1.66884)
(0.000120352 0.000120357 1.80847)
(4.43134e-05 0.000133317 1.8736)
(-4.43126e-05 0.000133316 1.8736)
(-0.000120351 0.000120356 1.80847)
(-0.000159571 9.51139e-05 1.66884)
(-0.000150472 6.52185e-05 1.44152)
(0.000167603 2.41426e-05 1.50139)
(0.00017863 3.52735e-05 1.73335)
(0.000133312 4.43182e-05 1.8736)
(4.80029e-05 4.80071e-05 1.93544)
(-4.80025e-05 4.8007e-05 1.93544)
(-0.000133312 4.43178e-05 1.8736)
(-0.00017863 3.5273e-05 1.73335)
(-0.000167604 2.41422e-05 1.50139)
(0.000167603 -2.41325e-05 1.50139)
(0.00017863 -3.52624e-05 1.73335)
(0.000133312 -4.43083e-05 1.8736)
(4.80028e-05 -4.79986e-05 1.93544)
(-4.80026e-05 -4.79987e-05 1.93544)
(-0.000133312 -4.43086e-05 1.8736)
(-0.00017863 -3.52628e-05 1.73335)
(-0.000167604 -2.41329e-05 1.50139)
(0.00015047 -6.52096e-05 1.44152)
(0.000159571 -9.5104e-05 1.66884)
(0.000120352 -0.000120347 1.80847)
(4.43132e-05 -0.000133308 1.8736)
(-4.4313e-05 -0.000133308 1.8736)
(-0.000120351 -0.000120347 1.80847)
(-0.000159571 -9.51043e-05 1.66884)
(-0.000150471 -6.52099e-05 1.44152)
(0.000121317 -8.77048e-05 1.32351)
(0.00012629 -0.000126287 1.53541)
(9.51088e-05 -0.000159567 1.66884)
(3.52678e-05 -0.000178626 1.73335)
(-3.52677e-05 -0.000178626 1.73335)
(-9.51088e-05 -0.000159568 1.66884)
(-0.00012629 -0.000126287 1.53541)
(-0.000121318 -8.77053e-05 1.32351)
(8.67685e-05 -8.67676e-05 1.15132)
(8.77079e-05 -0.000121315 1.32351)
(6.52138e-05 -0.000150467 1.44152)
(2.41374e-05 -0.0001676 1.50139)
(-2.41375e-05 -0.000167601 1.50139)
(-6.5214e-05 -0.000150468 1.44152)
(-8.77082e-05 -0.000121316 1.32351)
(-8.67694e-05 -8.67685e-05 1.15132)
(4.52181e-05 4.52199e-05 1.15119)
(4.53635e-05 6.27487e-05 1.32345)
(3.356e-05 7.7423e-05 1.44152)
(1.23973e-05 8.60286e-05 1.50143)
(-1.23929e-05 8.60276e-05 1.50143)
(-3.35561e-05 7.74199e-05 1.44152)
(-4.53598e-05 6.27438e-05 1.32345)
(-4.52162e-05 4.52168e-05 1.15119)
(6.27428e-05 4.5367e-05 1.32345)
(6.47562e-05 6.47614e-05 1.53546)
(4.85778e-05 8.14849e-05 1.669)
(1.79889e-05 9.10621e-05 1.73357)
(-1.79852e-05 9.10615e-05 1.73357)
(-4.85745e-05 8.1483e-05 1.669)
(-6.47538e-05 6.47583e-05 1.53546)
(-6.27428e-05 4.53641e-05 1.32345)
(7.74165e-05 3.35641e-05 1.44152)
(8.14798e-05 4.85827e-05 1.669)
(6.12726e-05 6.12771e-05 1.80878)
(2.25355e-05 6.77829e-05 1.874)
(-2.2533e-05 6.77825e-05 1.874)
(-6.12704e-05 6.12759e-05 1.80878)
(-8.14784e-05 4.85807e-05 1.669)
(-7.74176e-05 3.3562e-05 1.44152)
(8.60222e-05 1.24013e-05 1.50143)
(9.10573e-05 1.79936e-05 1.73357)
(6.77786e-05 2.25397e-05 1.874)
(2.43785e-05 2.43823e-05 1.93593)
(-2.43769e-05 2.4382e-05 1.93593)
(-6.77773e-05 2.25388e-05 1.874)
(-9.10565e-05 1.7992e-05 1.73357)
(-8.6024e-05 1.23996e-05 1.50143)
(8.60216e-05 -1.23891e-05 1.50143)
(9.10568e-05 -1.79808e-05 1.73357)
(6.77784e-05 -2.25289e-05 1.874)
(2.43783e-05 -2.43733e-05 1.93593)
(-2.43772e-05 -2.43735e-05 1.93593)
(-6.77774e-05 -2.25297e-05 1.874)
(-9.10565e-05 -1.7982e-05 1.73357)
(-8.6024e-05 -1.23906e-05 1.50143)
(7.74144e-05 -3.35526e-05 1.44152)
(8.14784e-05 -4.85704e-05 1.669)
(6.12716e-05 -6.12665e-05 1.80878)
(2.25346e-05 -6.77736e-05 1.874)
(-2.25338e-05 -6.77737e-05 1.874)
(-6.1271e-05 -6.1267e-05 1.80878)
(-8.14784e-05 -4.85713e-05 1.669)
(-7.74171e-05 -3.35537e-05 1.44152)
(6.27387e-05 -4.53557e-05 1.32345)
(6.47537e-05 -6.47492e-05 1.53546)
(4.8576e-05 -8.14741e-05 1.669)
(1.79873e-05 -9.10525e-05 1.73357)
(-1.79867e-05 -9.10527e-05 1.73357)
(-4.85756e-05 -8.14746e-05 1.669)
(-6.47537e-05 -6.475e-05 1.53546)
(-6.27414e-05 -4.53571e-05 1.32345)
(4.52123e-05 -4.52117e-05 1.15119)
(4.53593e-05 -6.2736e-05 1.32345)
(3.35577e-05 -7.74114e-05 1.44152)
(1.23951e-05 -8.60182e-05 1.50143)
(-1.23948e-05 -8.60185e-05 1.50143)
(-3.35575e-05 -7.74124e-05 1.44152)
(-4.53598e-05 -6.2738e-05 1.32345)
(-4.52144e-05 -4.52139e-05 1.15119)
(2.23422e-05 2.23433e-05 1.15113)
(2.25626e-05 3.11682e-05 1.32341)
(1.67713e-05 3.86073e-05 1.44152)
(6.2087e-06 4.29814e-05 1.50145)
(-6.20878e-06 4.29813e-05 1.50145)
(-1.67716e-05 3.8607e-05 1.44152)
(-2.25633e-05 3.11678e-05 1.32341)
(-2.23437e-05 2.23438e-05 1.15113)
(3.11635e-05 2.25657e-05 1.32341)
(3.24202e-05 3.24247e-05 1.53548)
(2.44305e-05 4.0952e-05 1.66908)
(9.06399e-06 4.58418e-05 1.73369)
(-9.06421e-06 4.58418e-05 1.73369)
(-2.44309e-05 4.09519e-05 1.66908)
(-3.24212e-05 3.24245e-05 1.53548)
(-3.11662e-05 2.25661e-05 1.32341)
(3.86017e-05 1.67754e-05 1.44152)
(4.09477e-05 2.44352e-05 1.66908)
(3.09178e-05 3.09221e-05 1.80894)
(1.13897e-05 3.4253e-05 1.8742)
(-1.13901e-05 3.42529e-05 1.8742)
(-3.09183e-05 3.0922e-05 1.80894)
(-4.09486e-05 2.4435e-05 1.66908)
(-3.8604e-05 1.67754e-05 1.44152)
(4.29755e-05 6.21296e-06 1.50145)
(4.58375e-05 9.06872e-06 1.73369)
(3.4249e-05 1.13939e-05 1.8742)
(1.23355e-05 1.23392e-05 1.93618)
(-1.2336e-05 1.23392e-05 1.93618)
(-3.42496e-05 1.13938e-05 1.8742)
(-4.58383e-05 9.06853e-06 1.73369)
(-4.29774e-05 6.21288e-06 1.50145)
(4.29754e-05 -6.20472e-06 1.50145)
(4.58374e-05 -9.05973e-06 1.73369)
(3.4249e-05 -1.13861e-05 1.8742)
(1.23354e-05 -1.23324e-05 1.93618)
(-1.23361e-05 -1.23325e-05 1.93618)
(-3.42496e-05 -1.13862e-05 1.8742)
(-4.58382e-05 -9.05994e-06 1.73369)
(-4.2977e-05 -6.20489e-06 1.50145)
(3.86014e-05 -1.67679e-05 1.44152)
(4.09475e-05 -2.44268e-05 1.66908)
(3.09177e-05 -3.09145e-05 1.80894)
(1.13896e-05 -3.4246e-05 1.8742)
(-1.13903e-05 -3.42461e-05 1.8742)
(-3.09184e-05 -3.09147e-05 1.80894)
(-4.09481e-05 -2.4427e-05 1.66908)
(-3.86026e-05 -1.67681e-05 1.44152)
(3.11625e-05 -2.2559e-05 1.32341)
(3.24198e-05 -3.24167e-05 1.53548)
(2.44304e-05 -4.09446e-05 1.66908)
(9.06374e-06 -4.58348e-05 1.73369)
(-9.06457e-06 -4.58349e-05 1.73369)
(-2.44312e-05 -4.0945e-05 1.66908)
(-3.24205e-05 -3.24173e-05 1.53548)
(-3.11635e-05 -2.25597e-05 1.32341)
(2.23399e-05 -2.23391e-05 1.15113)
(2.25615e-05 -3.11605e-05 1.32341)
(1.67711e-05 -3.85995e-05 1.44152)
(6.20836e-06 -4.29737e-05 1.50145)
(-6.20925e-06 -4.2974e-05 1.50145)
(-1.6772e-05 -3.86003e-05 1.44152)
(-2.25624e-05 -3.11619e-05 1.32341)
(-2.2341e-05 -2.23402e-05 1.15113)
(1.14909e-05 1.14921e-05 1.1511)
(1.15727e-05 1.59839e-05 1.3234)
(8.58653e-06 1.97573e-05 1.44152)
(3.17723e-06 2.19752e-05 1.50146)
(-3.17549e-06 2.19748e-05 1.50146)
(-8.58507e-06 1.97561e-05 1.44152)
(-1.15719e-05 1.59822e-05 1.3234)
(-1.14917e-05 1.14919e-05 1.1511)
(1.59808e-05 1.15752e-05 1.3234)
(1.65715e-05 1.65748e-05 1.5355)
(1.24723e-05 2.09006e-05 1.66912)
(4.62652e-06 2.33839e-05 1.73375)
(-4.62514e-06 2.33836e-05 1.73375)
(-1.24713e-05 2.08998e-05 1.66912)
(-1.65713e-05 1.65735e-05 1.5355)
(-1.59835e-05 1.15745e-05 1.3234)
(1.9754e-05 8.58955e-06 1.44152)
(2.08975e-05 1.24758e-05 1.66912)
(1.57692e-05 1.57724e-05 1.80902)
(5.80942e-06 1.74678e-05 1.8743)
(-5.80856e-06 1.74676e-05 1.8743)
(-1.57686e-05 1.57718e-05 1.80902)
(-2.08977e-05 1.24749e-05 1.66912)
(-1.97571e-05 8.58874e-06 1.44152)
(2.19719e-05 3.18041e-06 1.50146)
(2.33809e-05 4.63011e-06 1.73375)
(1.74649e-05 5.81263e-06 1.8743)
(6.29106e-06 6.29388e-06 1.9363)
(-6.2906e-06 6.29375e-06 1.9363)
(-1.74647e-05 5.81219e-06 1.8743)
(-2.33814e-05 4.62941e-06 1.73375)
(-2.19753e-05 3.17968e-06 1.50146)
(2.19716e-05 -3.17225e-06 1.50146)
(2.33807e-05 -4.62146e-06 1.73375)
(1.74648e-05 -5.80528e-06 1.8743)
(6.29095e-06 -6.28768e-06 1.9363)
(-6.29071e-06 -6.28779e-06 1.9363)
(-1.74647e-05 -5.80561e-06 1.8743)
(-2.33813e-05 -4.62202e-06 1.73375)
(-2.19752e-05 -3.17293e-06 1.50146)
(1.97532e-05 -8.58192e-06 1.44152)
(2.08968e-05 -1.24675e-05 1.66912)
(1.57688e-05 -1.57652e-05 1.80902)
(5.80902e-06 -1.74614e-05 1.8743)
(-5.80894e-06 -1.74615e-05 1.8743)
(-1.57689e-05 -1.57654e-05 1.80902)
(-2.08975e-05 -1.24679e-05 1.66912)
(-1.97568e-05 -8.58248e-06 1.44152)
(1.59791e-05 -1.15682e-05 1.3234)
(1.65703e-05 -1.65669e-05 1.5355)
(1.24715e-05 -2.08936e-05 1.66912)
(4.62573e-06 -2.33775e-05 1.73375)
(-4.62584e-06 -2.33776e-05 1.73375)
(-1.24717e-05 -2.0894e-05 1.66912)
(-1.65709e-05 -1.65675e-05 1.5355)
(-1.59824e-05 -1.15692e-05 1.3234)
(1.14885e-05 -1.14879e-05 1.1511)
(1.15709e-05 -1.59771e-05 1.3234)
(8.58549e-06 -1.97509e-05 1.44152)
(3.17622e-06 -2.19693e-05 1.50146)
(-3.17642e-06 -2.19696e-05 1.50146)
(-8.58575e-06 -1.97517e-05 1.44152)
(-1.15716e-05 -1.59787e-05 1.3234)
(-1.14905e-05 -1.149e-05 1.1511)
(5.80229e-06 5.80279e-06 1.15108)
(5.85549e-06 8.08772e-06 1.32339)
(4.34999e-06 1.00108e-05 1.44152)
(1.60975e-06 1.11423e-05 1.50146)
(-1.61187e-06 1.11426e-05 1.50146)
(-4.3521e-06 1.00116e-05 1.44152)
(-5.85802e-06 8.08916e-06 1.32339)
(-5.80535e-06 5.80502e-06 1.15108)
(8.08492e-06 5.85749e-06 1.32339)
(8.40416e-06 8.40694e-06 1.5355)
(6.33332e-06 1.06146e-05 1.66915)
(2.34984e-06 1.18826e-05 1.73378)
(-2.35187e-06 1.18828e-05 1.73378)
(-6.3354e-06 1.06151e-05 1.66915)
(-8.40668e-06 8.40789e-06 1.5355)
(-8.08926e-06 5.85925e-06 1.32339)
(1.00074e-05 4.3528e-06 1.44152)
(1.06119e-05 6.33646e-06 1.66915)
(8.01701e-06 8.01986e-06 1.80906)
(2.95437e-06 8.88646e-06 1.87436)
(-2.95603e-06 8.88657e-06 1.87436)
(-8.01874e-06 8.02022e-06 1.80906)
(-1.06139e-05 6.33712e-06 1.66915)
(-1.00109e-05 4.35378e-06 1.44152)
(1.11387e-05 1.61282e-06 1.50146)
(1.18799e-05 2.35318e-06 1.73378)
(8.88381e-06 2.95732e-06 1.87436)
(3.20103e-06 3.20364e-06 1.93637)
(-3.2024e-06 3.20372e-06 1.93637)
(-8.88524e-06 2.95759e-06 1.87436)
(-1.18815e-05 2.35373e-06 1.73378)
(-1.11415e-05 1.61361e-06 1.50146)
(1.11389e-05 -1.60883e-06 1.50146)
(1.188e-05 -2.34856e-06 1.73378)
(8.88393e-06 -2.9531e-06 1.87436)
(3.20112e-06 -3.1998e-06 1.93637)
(-3.20234e-06 -3.19974e-06 1.93637)
(-8.88517e-06 -2.95289e-06 1.87436)
(-1.18813e-05 -2.34814e-06 1.73378)
(-1.1141e-05 -1.60825e-06 1.50146)
(1.00081e-05 -4.34921e-06 1.44152)
(1.06123e-05 -6.33218e-06 1.66915)
(8.01737e-06 -8.0158e-06 1.80906)
(2.95465e-06 -8.88255e-06 1.87436)
(-2.95584e-06 -8.88252e-06 1.87436)
(-8.01851e-06 -8.01569e-06 1.80906)
(-1.06133e-05 -6.33192e-06 1.66915)