/*--------------------------------*- C++ -*----------------------------------*\
| =========                 |                                                 |
| \\      /  F ield         | OpenFOAM: The Open Source CFD Toolbox           |
|  \\    /   O peration     | Version:  2406                                  |
|   \\  /    A nd           | Website:  www.openfoam.com                      |
|    \\/     M anipulation  |                                                 |
\*---------------------------------------------------------------------------*/
FoamFile
{
    version     2.0;
    format      ascii;
    arch        "LSB;label=32;scalar=64";
    class       volScalarField;
    location    "1.5";
    object      div(phi);
}
// * * * * * * * * * * * * * * * * * * * * * * * * * * * * * * * * * * * * * //

dimensions      [0 0 -1 0 0 0 0];

internalField   nonuniform List<scalar> 
25000
(
-2.88787e-06
-2.69468e-06
-2.73952e-06
-2.72846e-06
-2.71799e-06
-2.67125e-06
-2.66022e-06
-2.66149e-06
-2.63712e-06
-2.21704e-06
-2.61179e-06
-2.31926e-06
-2.37132e-06
-2.37226e-06
-2.32061e-06
-2.27982e-06
-2.25208e-06
-2.2449e-06
-2.21249e-06
-1.77344e-06
-2.57933e-06
-2.31075e-06
-2.34644e-06
-2.38279e-06
-2.32804e-06
-2.24255e-06
-2.23778e-06
-2.24292e-06
-2.17416e-06
-1.77891e-06
-2.54217e-06
-2.21719e-06
-2.32942e-06
-2.34237e-06
-2.28293e-06
-2.22185e-06
-2.20082e-06
-2.20378e-06
-2.16381e-06
-1.76294e-06
-2.49498e-06
-2.18158e-06
-2.2481e-06
-2.29897e-06
-2.24383e-06
-2.17449e-06
-2.1718e-06
-2.17897e-06
-2.11905e-06
-1.74024e-06
-2.43421e-06
-2.08706e-06
-2.19226e-06
-2.21706e-06
-2.18072e-06
-2.11939e-06
-2.10498e-06
-2.11955e-06
-2.08006e-06
-1.6843e-06
-2.37397e-06
-2.01445e-06
-2.07917e-06
-2.13485e-06
-2.06552e-06
-2.0197e-06
-2.04654e-06
-2.03969e-06
-1.98574e-06
-1.62744e-06
-2.25075e-06
-1.91797e-06
-1.98419e-06
-1.98288e-06
-1.95104e-06
-1.95435e-06
-1.9142e-06
-1.94535e-06
-1.93586e-06
-1.543e-06
-2.1441e-06
-1.76903e-06
-1.80503e-06
-1.8203e-06
-1.81093e-06
-1.76716e-06
-1.79668e-06
-1.82475e-06
-1.75616e-06
-1.4019e-06
-1.73103e-06
-1.37956e-06
-1.42269e-06
-1.43757e-06
-1.43018e-06
-1.4405e-06
-1.44323e-06
-1.43039e-06
-1.3837e-06
-1.07335e-06
-3.04415e-06
-2.79909e-06
-2.75972e-06
-2.68709e-06
-2.63315e-06
-2.58509e-06
-2.60872e-06
-2.66884e-06
-2.70694e-06
-2.31252e-06
-2.65615e-06
-2.25031e-06
-2.23049e-06
-2.19369e-06
-2.13238e-06
-2.10437e-06
-2.10893e-06
-2.1528e-06
-2.20984e-06
-1.84202e-06
-2.5506e-06
-2.17391e-06
-2.15952e-06
-2.18085e-06
-2.13057e-06
-2.05865e-06
-2.06903e-06
-2.10712e-06
-2.11218e-06
-1.81684e-06
-2.47241e-06
-2.06235e-06
-2.14246e-06
-2.15724e-06
-2.10484e-06
-2.0547e-06
-2.04126e-06
-2.05658e-06
-2.07262e-06
-1.77461e-06
-2.42032e-06
-2.03106e-06
-2.07942e-06
-2.13225e-06
-2.08437e-06
-2.02321e-06
-2.02297e-06
-2.03572e-06
-2.01832e-06
-1.74275e-06
-2.38749e-06
-1.96533e-06
-2.04625e-06
-2.0723e-06
-2.03954e-06
-1.98483e-06
-1.97286e-06
-1.98997e-06
-1.99626e-06
-1.70019e-06
-2.387e-06
-1.93427e-06
-1.9651e-06
-2.01091e-06
-1.94384e-06
-1.90102e-06
-1.92945e-06
-1.93765e-06
-1.93868e-06
-1.67516e-06
-2.32776e-06
-1.89786e-06
-1.90984e-06
-1.88784e-06
-1.84695e-06
-1.85112e-06
-1.8254e-06
-1.88086e-06
-1.94821e-06
-1.62588e-06
-2.28526e-06
-1.82445e-06
-1.80347e-06
-1.78238e-06
-1.75462e-06
-1.71594e-06
-1.76132e-06
-1.83778e-06
-1.83405e-06
-1.50354e-06
-1.87426e-06
-1.48153e-06
-1.49535e-06
-1.48237e-06
-1.45917e-06
-1.46993e-06
-1.49017e-06
-1.50443e-06
-1.47783e-06
-1.14666e-06
-3.44257e-06
-3.21045e-06
-3.18345e-06
-3.09088e-06
-3.02355e-06
-2.96382e-06
-2.98847e-06
-3.04418e-06
-3.05945e-06
-2.57124e-06
-3.06426e-06
-2.61218e-06
-2.54474e-06
-2.45228e-06
-2.34794e-06
-2.31257e-06
-2.33878e-06
-2.41667e-06
-2.49021e-06
-2.05369e-06
-2.95808e-06
-2.48373e-06
-2.38168e-06
-2.31443e-06
-2.21079e-06
-2.13457e-06
-2.1849e-06
-2.29293e-06
-2.3529e-06
-2.02312e-06
-2.8566e-06
-2.31181e-06
-2.27495e-06
-2.18948e-06
-2.08643e-06
-2.03274e-06
-2.06688e-06
-2.16982e-06
-2.27244e-06
-1.97243e-06
-2.77846e-06
-2.23925e-06
-2.16454e-06
-2.11802e-06
-2.02125e-06
-1.96174e-06
-2.00543e-06
-2.11116e-06
-2.19621e-06
-1.93219e-06
-2.72762e-06
-2.1675e-06
-2.13177e-06
-2.06155e-06
-1.98395e-06
-1.92769e-06
-1.96409e-06
-2.07511e-06
-2.17541e-06
-1.88751e-06
-2.7199e-06
-2.15449e-06
-2.08966e-06
-2.0515e-06
-1.93733e-06
-1.89797e-06
-1.97599e-06
-2.06436e-06
-2.14093e-06
-1.86092e-06
-2.64319e-06
-2.14269e-06
-2.09632e-06
-2.00869e-06
-1.93072e-06
-1.94129e-06
-1.95067e-06
-2.06984e-06
-2.1724e-06
-1.80589e-06
-2.57066e-06
-2.06772e-06
-2.02649e-06
-1.9737e-06
-1.92692e-06
-1.88521e-06
-1.95757e-06
-2.05622e-06
-2.05301e-06
-1.65884e-06
-2.078e-06
-1.66373e-06
-1.68318e-06
-1.66676e-06
-1.63731e-06
-1.65061e-06
-1.67301e-06
-1.68512e-06
-1.63974e-06
-1.25429e-06
-3.61396e-06
-3.38386e-06
-3.37297e-06
-3.29926e-06
-3.23317e-06
-3.16911e-06
-3.1914e-06
-3.23258e-06
-3.22307e-06
-2.68662e-06
-3.20944e-06
-2.74393e-06
-2.68572e-06
-2.588e-06
-2.47421e-06
-2.44896e-06
-2.48351e-06
-2.56976e-06
-2.64143e-06
-2.15994e-06
-3.09458e-06
-2.6074e-06
-2.49469e-06
-2.41104e-06
-2.28979e-06
-2.21932e-06
-2.30448e-06
-2.43993e-06
-2.49749e-06
-2.13613e-06
-2.97721e-06
-2.41644e-06
-2.36559e-06
-2.22939e-06
-2.08111e-06
-2.04656e-06
-2.143e-06
-2.29519e-06
-2.41764e-06
-2.08475e-06
-2.90127e-06
-2.34168e-06
-2.23012e-06
-2.11156e-06
-1.95145e-06
-1.91774e-06
-2.05185e-06
-2.22873e-06
-2.33177e-06
-2.04614e-06
-2.85014e-06
-2.27102e-06
-2.21051e-06
-2.0707e-06
-1.9403e-06
-1.9116e-06
-2.02598e-06
-2.19605e-06
-2.31939e-06
-1.99996e-06
-2.85389e-06
-2.27617e-06
-2.19639e-06
-2.12701e-06
-1.98294e-06
-1.95848e-06
-2.08292e-06
-2.20677e-06
-2.28466e-06
-1.97453e-06
-2.77681e-06
-2.27304e-06
-2.22894e-06
-2.12926e-06
-2.0401e-06
-2.05968e-06
-2.08581e-06
-2.21635e-06
-2.32107e-06
-1.91134e-06
-2.70534e-06
-2.19265e-06
-2.16028e-06
-2.10421e-06
-2.05469e-06
-2.01286e-06
-2.0922e-06
-2.19726e-06
-2.1809e-06
-1.74738e-06
-2.17644e-06
-1.75654e-06
-1.78291e-06
-1.76888e-06
-1.73735e-06
-1.75105e-06
-1.77265e-06
-1.77928e-06
-1.72169e-06
-1.30694e-06
-3.81705e-06
-3.6132e-06
-3.62589e-06
-3.55004e-06
-3.49485e-06
-3.43809e-06
-3.46597e-06
-3.50425e-06
-3.48896e-06
-2.88883e-06
-3.432e-06
-2.98102e-06
-2.92749e-06
-2.82674e-06
-2.70771e-06
-2.66871e-06
-2.7061e-06
-2.79216e-06
-2.84904e-06
-2.31683e-06
-3.33386e-06
-2.84291e-06
-2.73932e-06
-2.64463e-06
-2.49678e-06
-2.41736e-06
-2.50648e-06
-2.64267e-06
-2.69695e-06
-2.28594e-06
-3.22862e-06
-2.64931e-06
-2.59228e-06
-2.42816e-06
-2.23421e-06
-2.18993e-06
-2.31598e-06
-2.48477e-06
-2.60056e-06
-2.22931e-06
-3.14877e-06
-2.56012e-06
-2.43848e-06
-2.26775e-06
-2.0413e-06
-2.01386e-06
-2.20041e-06
-2.40157e-06
-2.50796e-06
-2.18409e-06
-3.09621e-06
-2.48514e-06
-2.40896e-06
-2.22405e-06
-2.0398e-06
-2.01662e-06
-2.17401e-06
-2.36765e-06
-2.48827e-06
-2.1332e-06
-3.09155e-06
-2.48331e-06
-2.3979e-06
-2.30487e-06
-2.13162e-06
-2.10392e-06
-2.2474e-06
-2.37534e-06
-2.45066e-06
-2.10327e-06
-3.00495e-06
-2.46912e-06
-2.42519e-06
-2.31111e-06
-2.2063e-06
-2.22339e-06
-2.24793e-06
-2.38402e-06
-2.48331e-06
-2.03344e-06
-2.90437e-06
-2.37472e-06
-2.33345e-06
-2.27393e-06
-2.21345e-06
-2.16525e-06
-2.24867e-06
-2.35317e-06
-2.32895e-06
-1.8564e-06
-2.32968e-06
-1.88563e-06
-1.91584e-06
-1.89787e-06
-1.86253e-06
-1.8753e-06
-1.89618e-06
-1.89953e-06
-1.83453e-06
-1.38555e-06
-4.17727e-06
-3.93494e-06
-3.95125e-06
-3.87364e-06
-3.79666e-06
-3.72108e-06
-3.73143e-06
-3.74991e-06
-3.73329e-06
-3.07517e-06
-3.73113e-06
-3.22517e-06
-3.16224e-06
-3.05349e-06
-2.91828e-06
-2.87105e-06
-2.90872e-06
-2.99825e-06
-3.03913e-06
-2.47052e-06
-3.58547e-06
-3.04842e-06
-2.9385e-06
-2.83546e-06
-2.67659e-06
-2.59568e-06
-2.687e-06
-2.82449e-06
-2.88389e-06
-2.43253e-06
-3.43881e-06
-2.82365e-06
-2.76458e-06
-2.59134e-06
-2.38159e-06
-2.33352e-06
-2.47679e-06
-2.65817e-06
-2.76906e-06
-2.37082e-06
-3.33958e-06
-2.71648e-06
-2.59187e-06
-2.40748e-06
-2.15755e-06
-2.13704e-06
-2.34607e-06
-2.56064e-06
-2.67183e-06
-2.31999e-06
-3.27208e-06
-2.63303e-06
-2.5581e-06
-2.35946e-06
-2.16019e-06
-2.13919e-06
-2.31807e-06
-2.52555e-06
-2.64798e-06
-2.26435e-06
-3.27061e-06
-2.63292e-06
-2.54877e-06
-2.455e-06
-2.2695e-06
-2.24463e-06
-2.39905e-06
-2.53482e-06
-2.60679e-06
-2.23429e-06
-3.17859e-06
-2.62259e-06
-2.58183e-06
-2.46428e-06
-2.35513e-06
-2.37291e-06
-2.40115e-06
-2.53976e-06
-2.64366e-06
-2.15714e-06
-3.08675e-06
-2.5261e-06
-2.48808e-06
-2.42584e-06
-2.36164e-06
-2.31132e-06
-2.39626e-06
-2.50797e-06
-2.47364e-06
-1.97034e-06
-2.47641e-06
-2.00627e-06
-2.03948e-06
-2.02107e-06
-1.9827e-06
-1.99422e-06
-2.01458e-06
-2.014e-06
-1.9421e-06
-1.46496e-06
-4.62484e-06
-4.39963e-06
-4.4442e-06
-4.35158e-06
-4.27262e-06
-4.19622e-06
-4.19527e-06
-4.20264e-06
-4.18822e-06
-3.4225e-06
-4.17127e-06
-3.6507e-06
-3.57017e-06
-3.45508e-06
-3.30088e-06
-3.22221e-06
-3.26385e-06
-3.35277e-06
-3.36488e-06
-2.72897e-06
-4.00491e-06
-3.42858e-06
-3.32859e-06
-3.20132e-06
-3.00562e-06
-2.91311e-06
-2.99082e-06
-3.12215e-06
-3.19326e-06
-2.66492e-06
-3.84528e-06
-3.18099e-06
-3.1029e-06
-2.9075e-06
-2.66326e-06
-2.58613e-06
-2.74229e-06
-2.9358e-06
-3.02943e-06
-2.59002e-06
-3.71395e-06
-3.02871e-06
-2.9013e-06
-2.68145e-06
-2.38784e-06
-2.36247e-06
-2.58012e-06
-2.7997e-06
-2.92607e-06
-2.52044e-06
-3.6278e-06
-2.93285e-06
-2.83842e-06
-2.61382e-06
-2.38288e-06
-2.34517e-06
-2.53918e-06
-2.76374e-06
-2.87822e-06
-2.45724e-06
-3.61028e-06
-2.9096e-06
-2.81967e-06
-2.70612e-06
-2.49133e-06
-2.45971e-06
-2.6235e-06
-2.75778e-06
-2.83922e-06
-2.42177e-06
-3.49707e-06
-2.88922e-06
-2.84065e-06
-2.70558e-06
-2.57897e-06
-2.5941e-06
-2.61711e-06
-2.77226e-06
-2.87477e-06
-2.3407e-06
-3.38047e-06
-2.77441e-06
-2.72699e-06
-2.65541e-06
-2.58244e-06
-2.52163e-06
-2.6219e-06
-2.73532e-06
-2.70145e-06
-2.14808e-06
-2.70723e-06
-2.1957e-06
-2.23139e-06
-2.2099e-06
-2.16607e-06
-2.18251e-06
-2.20642e-06
-2.20819e-06
-2.13426e-06
-1.60349e-06
-4.9125e-06
-4.64775e-06
-4.69441e-06
-4.58032e-06
-4.48109e-06
-4.39697e-06
-4.38714e-06
-4.37598e-06
-4.38179e-06
-3.55782e-06
-4.33953e-06
-3.78659e-06
-3.69526e-06
-3.59235e-06
-3.44435e-06
-3.35864e-06
-3.42054e-06
-3.52009e-06
-3.50303e-06
-2.85e-06
-4.08662e-06
-3.50144e-06
-3.42936e-06
-3.30251e-06
-3.11558e-06
-3.04579e-06
-3.12268e-06
-3.25579e-06
-3.34747e-06
-2.77678e-06
-3.89953e-06
-3.24532e-06
-3.16716e-06
-2.99463e-06
-2.76248e-06
-2.68626e-06
-2.86674e-06
-3.07568e-06
-3.15561e-06
-2.70241e-06
-3.74873e-06
-3.07154e-06
-2.97115e-06
-2.76109e-06
-2.47162e-06
-2.46607e-06
-2.69439e-06
-2.92259e-06
-3.06102e-06
-2.6279e-06
-3.66123e-06
-2.9881e-06
-2.90703e-06
-2.69787e-06
-2.4769e-06
-2.4438e-06
-2.65641e-06
-2.89395e-06
-3.00599e-06
-2.56386e-06
-3.65669e-06
-2.96895e-06
-2.90373e-06
-2.80529e-06
-2.59499e-06
-2.57455e-06
-2.74736e-06
-2.88893e-06
-2.96871e-06
-2.53101e-06
-3.55157e-06
-2.97009e-06
-2.93744e-06
-2.81607e-06
-2.69695e-06
-2.71715e-06
-2.74693e-06
-2.90294e-06
-3.01014e-06
-2.44381e-06
-3.46408e-06
-2.86539e-06
-2.83932e-06
-2.7774e-06
-2.70892e-06
-2.65093e-06
-2.75009e-06
-2.86969e-06
-2.82279e-06
-2.24472e-06
-2.78173e-06
-2.27949e-06
-2.33055e-06
-2.31824e-06
-2.27662e-06
-2.2919e-06
-2.31219e-06
-2.3057e-06
-2.2217e-06
-1.66736e-06
-5.98449e-06
-5.62676e-06
-5.61814e-06
-5.42042e-06
-5.21649e-06
-5.0502e-06
-4.9624e-06
-4.88635e-06
-4.87486e-06
-3.93143e-06
-5.25255e-06
-4.57469e-06
-4.41775e-06
-4.21723e-06
-3.98196e-06
-3.80381e-06
-3.81744e-06
-3.89185e-06
-3.82647e-06
-3.10758e-06
-4.92939e-06
-4.1973e-06
-4.05321e-06
-3.84671e-06
-3.55482e-06
-3.41775e-06
-3.44605e-06
-3.5414e-06
-3.63566e-06
-2.99149e-06
-4.65426e-06
-3.84421e-06
-3.70275e-06
-3.43845e-06
-3.11585e-06
-2.96835e-06
-3.12258e-06
-3.32547e-06
-3.37729e-06
-2.89111e-06
-4.43237e-06
-3.59369e-06
-3.42654e-06
-3.12616e-06
-2.74792e-06
-2.69702e-06
-2.90723e-06
-3.11774e-06
-3.26377e-06
-2.78803e-06
-4.30046e-06
-3.45496e-06
-3.30358e-06
-3.0213e-06
-2.72089e-06
-2.64449e-06
-2.83942e-06
-3.07759e-06
-3.17593e-06
-2.70906e-06
-4.233e-06
-3.39548e-06
-3.2688e-06
-3.09558e-06
-2.82706e-06
-2.76179e-06
-2.92204e-06
-3.0486e-06
-3.13161e-06
-2.66393e-06
-4.105e-06
-3.34819e-06
-3.27046e-06
-3.08172e-06
-2.90835e-06
-2.89425e-06
-2.9045e-06
-3.05895e-06
-3.16492e-06
-2.56956e-06
-3.92539e-06
-3.22886e-06
-3.11085e-06
-3.01505e-06
-2.88879e-06
-2.81074e-06
-2.89694e-06
-3.01817e-06
-2.96935e-06
-2.36215e-06
-3.15798e-06
-2.52742e-06
-2.54511e-06
-2.48605e-06
-2.42093e-06
-2.41796e-06
-2.43679e-06
-2.4294e-06
-2.34731e-06
-1.76118e-06
-4.87196e-06
-4.67284e-06
-4.7816e-06
-4.70115e-06
-4.64296e-06
-4.60474e-06
-4.62014e-06
-4.59447e-06
-4.63345e-06
-3.72581e-06
-4.37285e-06
-3.8755e-06
-3.80285e-06
-3.72545e-06
-3.61734e-06
-3.51973e-06
-3.61744e-06
-3.73327e-06
-3.66789e-06
-2.99256e-06
-4.15514e-06
-3.59384e-06
-3.56819e-06
-3.44468e-06
-3.2623e-06
-3.22172e-06
-3.29206e-06
-3.41873e-06
-3.53451e-06
-2.90208e-06
-4.02661e-06
-3.38439e-06
-3.29264e-06
-3.13912e-06
-2.91151e-06
-2.82453e-06
-3.02714e-06
-3.25028e-06
-3.30142e-06
-2.82679e-06
-3.90852e-06
-3.21019e-06
-3.1271e-06
-2.90743e-06
-2.6069e-06
-2.61222e-06
-2.84592e-06
-3.07329e-06
-3.21821e-06
-2.74526e-06
-3.86189e-06
-3.16228e-06
-3.06974e-06
-2.86195e-06
-2.62685e-06
-2.59046e-06
-2.81058e-06
-3.05529e-06
-3.15519e-06
-2.68024e-06
-3.88318e-06
-3.16237e-06
-3.09967e-06
-2.98521e-06
-2.76901e-06
-2.73711e-06
-2.91249e-06
-3.05287e-06
-3.11825e-06
-2.65174e-06
-3.82188e-06
-3.18208e-06
-3.15066e-06
-3.01655e-06
-2.88162e-06
-2.89078e-06
-2.91953e-06
-3.06069e-06
-3.16978e-06
-2.55756e-06
-3.7293e-06
-3.1101e-06
-3.04744e-06
-2.98883e-06
-2.89008e-06
-2.83194e-06
-2.90817e-06
-3.03553e-06
-2.96026e-06
-2.35098e-06
-3.02139e-06
-2.45959e-06
-2.51301e-06
-2.48265e-06
-2.43591e-06
-2.43285e-06
-2.4455e-06
-2.42012e-06
-2.31938e-06
-1.73598e-06
-6.9543e-06
-6.4814e-06
-6.46253e-06
-6.22724e-06
-5.95078e-06
-5.71253e-06
-5.55336e-06
-5.42369e-06
-5.39214e-06
-4.33245e-06
-6.10614e-06
-5.27573e-06
-5.06958e-06
-4.80852e-06
-4.49522e-06
-4.25567e-06
-4.22762e-06
-4.28162e-06
-4.18523e-06
-3.38876e-06
-5.65802e-06
-4.7859e-06
-4.59072e-06
-4.33658e-06
-3.97302e-06
-3.78369e-06
-3.78435e-06
-3.85868e-06
-3.94877e-06
-3.23958e-06
-5.23312e-06
-4.31154e-06
-4.15206e-06
-3.8278e-06
-3.44412e-06
-3.25467e-06
-3.39585e-06
-3.5987e-06
-3.6452e-06
-3.11293e-06
-4.91299e-06
-3.98564e-06
-3.78592e-06
-3.44355e-06
-3.0079e-06
-2.92944e-06
-3.14254e-06
-3.35565e-06
-3.50217e-06
-2.99354e-06
-4.69253e-06
-3.783e-06
-3.622e-06
-3.2977e-06
-2.95491e-06
-2.85936e-06
-3.05349e-06
-3.29839e-06
-3.40836e-06
-2.89965e-06
-4.59049e-06
-3.69794e-06
-3.55665e-06
-3.363e-06
-3.0605e-06
-2.97483e-06
-3.14219e-06
-3.27547e-06
-3.35246e-06
-2.86079e-06
-4.41502e-06
-3.63042e-06
-3.54758e-06
-3.33725e-06
-3.13794e-06
-3.12074e-06
-3.12469e-06
-3.28493e-06
-3.41275e-06
-2.76292e-06
-4.22882e-06
-3.49363e-06
-3.36811e-06
-3.25336e-06
-3.11585e-06
-3.02532e-06
-3.12557e-06
-3.267e-06
-3.21277e-06
-2.56822e-06
-3.39029e-06
-2.72169e-06
-2.73728e-06
-2.67112e-06
-2.59871e-06
-2.603e-06
-2.63583e-06
-2.63568e-06
-2.56656e-06
-1.92423e-06
-4.08779e-06
-4.00054e-06
-4.16421e-06
-4.14029e-06
-4.16686e-06
-4.20277e-06
-4.28278e-06
-4.29746e-06
-4.35205e-06
-3.50275e-06
-3.68902e-06
-3.33725e-06
-3.32686e-06
-3.31734e-06
-3.28971e-06
-3.24463e-06
-3.38444e-06
-3.51824e-06
-3.47401e-06
-2.83199e-06
-3.55242e-06
-3.12932e-06
-3.17052e-06
-3.10801e-06
-2.99262e-06
-3.00124e-06
-3.10263e-06
-3.25051e-06
-3.36002e-06
-2.76816e-06
-3.51477e-06
-3.00861e-06
-2.96435e-06
-2.87213e-06
-2.70392e-06
-2.66186e-06
-2.87958e-06
-3.10448e-06
-3.17448e-06
-2.70728e-06
-3.48051e-06
-2.9022e-06
-2.86346e-06
-2.70273e-06
-2.45579e-06
-2.48397e-06
-2.73382e-06
-2.9716e-06
-3.0969e-06
-2.65323e-06
-3.48025e-06
-2.90631e-06
-2.8636e-06
-2.70003e-06
-2.50334e-06
-2.50077e-06
-2.72238e-06
-2.96054e-06
-3.0784e-06
-2.59845e-06
-3.57082e-06
-2.95987e-06
-2.93575e-06
-2.85827e-06
-2.68167e-06
-2.65908e-06
-2.847e-06
-2.99971e-06
-3.03976e-06
-2.59614e-06
-3.54975e-06
-3.02225e-06
-3.02601e-06
-2.92717e-06
-2.81099e-06
-2.84066e-06
-2.87777e-06
-3.0033e-06
-3.13044e-06
-2.50891e-06
-3.52275e-06
-2.99065e-06
-2.96245e-06
-2.92482e-06
-2.84443e-06
-2.79835e-06
-2.87188e-06
-3.01394e-06
-2.92006e-06
-2.32571e-06
-2.86584e-06
-2.37263e-06
-2.44869e-06
-2.43648e-06
-2.40367e-06
-2.4061e-06
-2.42444e-06
-2.39208e-06
-2.29414e-06
-1.71272e-06
-7.28648e-06
-6.66628e-06
-6.53756e-06
-6.23012e-06
-5.82433e-06
-5.4735e-06
-5.22131e-06
-5.02099e-06
-4.94703e-06
-3.97958e-06
-6.30776e-06
-5.35048e-06
-5.09324e-06
-4.71221e-06
-4.32251e-06
-4.01466e-06
-3.90214e-06
-3.90978e-06
-3.81017e-06
-3.08039e-06
-5.81895e-06
-4.8339e-06
-4.52232e-06
-4.21212e-06
-3.78049e-06
-3.51731e-06
-3.47352e-06
-3.50056e-06
-3.55577e-06
-2.93118e-06
-5.30535e-06
-4.28337e-06
-4.07666e-06
-3.67174e-06
-3.23728e-06
-3.01077e-06
-3.07788e-06
-3.23409e-06
-3.27809e-06
-2.79711e-06
-4.96604e-06
-3.95146e-06
-3.66258e-06
-3.27269e-06
-2.80726e-06
-2.67139e-06
-2.83794e-06
-3.00659e-06
-3.11961e-06
-2.68289e-06
-4.71724e-06
-3.70378e-06
-3.48475e-06
-3.11177e-06
-2.72432e-06
-2.60693e-06
-2.73448e-06
-2.93385e-06
-3.03785e-06
-2.58608e-06
-4.5819e-06
-3.6138e-06
-3.39711e-06
-3.13693e-06
-2.81902e-06
-2.67821e-06
-2.8047e-06
-2.91028e-06
-2.96668e-06
-2.54256e-06
-4.41079e-06
-3.50474e-06
-3.36583e-06
-3.09804e-06
-2.85506e-06
-2.79469e-06
-2.77433e-06
-2.89272e-06
-3.01505e-06
-2.4457e-06
-4.16403e-06
-3.38261e-06
-3.14482e-06
-2.99417e-06
-2.79235e-06
-2.69084e-06
-2.73917e-06
-2.87013e-06
-2.81697e-06
-2.25792e-06
-3.34278e-06
-2.58286e-06
-2.53885e-06
-2.40947e-06
-2.31259e-06
-2.27971e-06
-2.30136e-06
-2.29616e-06
-2.24202e-06
-1.68719e-06
-2.66038e-06
-2.67295e-06
-2.81706e-06
-2.81853e-06
-2.89094e-06
-2.96852e-06
-3.09614e-06
-3.13253e-06
-3.17913e-06
-2.57245e-06
-2.38465e-06
-2.21447e-06
-2.2678e-06
-2.29064e-06
-2.34788e-06
-2.34912e-06
-2.4923e-06
-2.61586e-06
-2.60492e-06
-2.12729e-06
-2.37995e-06
-2.14834e-06
-2.22582e-06
-2.22216e-06
-2.18295e-06
-2.22449e-06
-2.33496e-06
-2.47388e-06
-2.54699e-06
-2.11852e-06
-2.48365e-06
-2.15815e-06
-2.14836e-06
-2.11958e-06
-2.02628e-06
-2.03065e-06
-2.21036e-06
-2.39044e-06
-2.4645e-06
-2.09248e-06
-2.56012e-06
-2.15888e-06
-2.15074e-06
-2.05661e-06
-1.89507e-06
-1.92603e-06
-2.14037e-06
-2.33962e-06
-2.4141e-06
-2.08009e-06
-2.64306e-06
-2.22667e-06
-2.213e-06
-2.11039e-06
-1.96425e-06
-1.98878e-06
-2.15844e-06
-2.33985e-06
-2.44193e-06
-2.0484e-06
-2.76828e-06
-2.32332e-06
-2.32268e-06
-2.26486e-06
-2.15212e-06
-2.12177e-06
-2.27321e-06
-2.40096e-06
-2.40507e-06
-2.05475e-06
-2.81258e-06
-2.40326e-06
-2.42247e-06
-2.356e-06
-2.26118e-06
-2.27983e-06
-2.3124e-06
-2.38185e-06
-2.48389e-06
-1.98102e-06
-2.79534e-06
-2.41311e-06
-2.37925e-06
-2.36836e-06
-2.28207e-06
-2.25558e-06
-2.27121e-06
-2.38983e-06
-2.28433e-06
-1.81001e-06
-2.29261e-06
-1.9038e-06
-1.97829e-06
-1.95841e-06
-1.93545e-06
-1.91044e-06
-1.91108e-06
-1.86101e-06
-1.75787e-06
-1.31337e-06
-7.63271e-06
-6.82861e-06
-6.5151e-06
-6.06634e-06
-5.50295e-06
-5.02009e-06
-4.67763e-06
-4.45232e-06
-4.30796e-06
-3.49684e-06
-6.37447e-06
-5.2909e-06
-4.97912e-06
-4.4882e-06
-4.00879e-06
-3.65931e-06
-3.46134e-06
-3.41131e-06
-3.35579e-06
-2.6886e-06
-5.76218e-06
-4.74414e-06
-4.33529e-06
-3.98137e-06
-3.5012e-06
-3.16086e-06
-3.088e-06
-3.09247e-06
-3.0834e-06
-2.57393e-06
-5.13975e-06
-4.10443e-06
-3.89281e-06
-3.43356e-06
-2.96153e-06
-2.72067e-06
-2.7191e-06
-2.81842e-06
-2.88665e-06
-2.44554e-06
-4.72064e-06
-3.7587e-06
-3.4295e-06
-3.02699e-06
-2.55797e-06
-2.37407e-06
-2.50335e-06
-2.64559e-06
-2.70988e-06
-2.35716e-06
-4.41866e-06
-3.44875e-06
-3.23138e-06
-2.8445e-06
-2.44683e-06
-2.32243e-06
-2.40109e-06
-2.55345e-06
-2.66955e-06
-2.26618e-06
-4.21985e-06
-3.33403e-06
-3.10211e-06
-2.83328e-06
-2.52168e-06
-2.35873e-06
-2.45997e-06
-2.55532e-06
-2.59019e-06
-2.23841e-06
-4.01991e-06
-3.18446e-06
-3.04149e-06
-2.77397e-06
-2.52707e-06
-2.46331e-06
-2.43303e-06
-2.53094e-06
-2.65928e-06
-2.15966e-06
-3.74979e-06
-3.04571e-06
-2.80902e-06
-2.65111e-06
-2.45755e-06
-2.3564e-06
-2.40334e-06
-2.53445e-06
-2.4946e-06
-2.01456e-06
-2.99793e-06
-2.3078e-06
-2.24948e-06
-2.1172e-06
-2.023e-06
-1.99704e-06
-2.0319e-06
-2.04175e-06
-2.01693e-06
-1.52356e-06
-2.26429e-07
-5.2674e-07
-7.74155e-07
-9.69779e-07
-1.23899e-06
-1.4716e-06
-1.72503e-06
-1.88916e-06
-1.94234e-06
-1.62803e-06
-5.24066e-07
-6.67034e-07
-8.46453e-07
-9.92069e-07
-1.17119e-06
-1.31269e-06
-1.49635e-06
-1.63401e-06
-1.72456e-06
-1.40403e-06
-8.40448e-07
-8.85366e-07
-1.02196e-06
-1.12689e-06
-1.22126e-06
-1.32679e-06
-1.49314e-06
-1.66809e-06
-1.70709e-06
-1.46652e-06
-1.16899e-06
-1.07708e-06
-1.14623e-06
-1.20947e-06
-1.22566e-06
-1.31965e-06
-1.48889e-06
-1.63854e-06
-1.75608e-06
-1.47923e-06
-1.39742e-06
-1.22962e-06
-1.26845e-06
-1.2764e-06
-1.23625e-06
-1.29688e-06
-1.49862e-06
-1.68857e-06
-1.72712e-06
-1.51564e-06
-1.57345e-06
-1.36137e-06
-1.40815e-06
-1.38491e-06
-1.33295e-06
-1.40424e-06
-1.55425e-06
-1.69728e-06
-1.81134e-06
-1.50983e-06
-1.74789e-06
-1.50435e-06
-1.53825e-06
-1.54854e-06
-1.51333e-06
-1.52334e-06
-1.66548e-06
-1.79105e-06
-1.78526e-06
-1.53811e-06
-1.83323e-06
-1.60635e-06
-1.65667e-06
-1.65351e-06
-1.62095e-06
-1.67487e-06
-1.71995e-06
-1.77957e-06
-1.87533e-06
-1.49123e-06
-1.87228e-06
-1.63814e-06
-1.66883e-06
-1.6903e-06
-1.67157e-06
-1.67123e-06
-1.70339e-06
-1.80719e-06
-1.72522e-06
-1.3697e-06
-1.54774e-06
-1.32162e-06
-1.40527e-06
-1.42616e-06
-1.43244e-06
-1.43409e-06
-1.44422e-06
-1.40891e-06
-1.33025e-06
-9.93136e-07
-4.70126e-06
-4.1487e-06
-3.93318e-06
-3.69333e-06
-3.33197e-06
-2.99946e-06
-2.77021e-06
-2.65137e-06
-2.54029e-06
-2.11887e-06
-4.02665e-06
-3.26697e-06
-3.06439e-06
-2.72444e-06
-2.3783e-06
-2.18028e-06
-2.01409e-06
-1.97774e-06
-2.00978e-06
-1.61472e-06
-3.68621e-06
-2.96686e-06
-2.62968e-06
-2.40064e-06
-2.08829e-06
-1.83608e-06
-1.80554e-06
-1.82169e-06
-1.80671e-06
-1.55565e-06
-3.24063e-06
-2.51109e-06
-2.37955e-06
-2.05052e-06
-1.73741e-06
-1.59633e-06
-1.57089e-06
-1.63083e-06
-1.71628e-06
-1.47124e-06
-2.956e-06
-2.30289e-06
-2.04688e-06
-1.78635e-06
-1.492e-06
-1.35967e-06
-1.43948e-06
-1.53551e-06
-1.58923e-06
-1.41162e-06
-2.72603e-06
-2.06014e-06
-1.90982e-06
-1.64663e-06
-1.3988e-06
-1.31985e-06
-1.36243e-06
-1.4626e-06
-1.55253e-06
-1.34857e-06
-2.55533e-06
-1.96173e-06
-1.78315e-06
-1.61053e-06
-1.40949e-06
-1.31537e-06
-1.37531e-06
-1.43653e-06
-1.49715e-06
-1.30281e-06
-2.38187e-06
-1.82914e-06
-1.71546e-06
-1.53767e-06
-1.39021e-06
-1.35066e-06
-1.33108e-06
-1.41955e-06
-1.49273e-06
-1.24778e-06
-2.17654e-06
-1.69855e-06
-1.55075e-06
-1.43731e-06
-1.32781e-06
-1.26055e-06
-1.30737e-06
-1.37368e-06
-1.39555e-06
-1.12662e-06
-1.71058e-06
-1.28193e-06
-1.22279e-06
-1.13816e-06
-1.07349e-06
-1.06422e-06
-1.08481e-06
-1.11361e-06
-1.114e-06
-8.52038e-07
1.59036e-06
1.26014e-06
1.08793e-06
8.85715e-07
5.71837e-07
3.00418e-07
1.26976e-08
-1.99822e-07
-2.6505e-07
-2.98167e-07
1.17846e-06
8.74564e-07
6.8097e-07
4.70502e-07
2.30982e-07
1.20532e-08
-1.66736e-07
-2.89628e-07
-4.27852e-07
-3.64558e-07
7.87824e-07
5.48247e-07
3.84702e-07
2.19297e-07
2.23262e-08
-1.30492e-07
-2.97998e-07
-4.54424e-07
-4.80292e-07
-4.68262e-07
3.85866e-07
2.48237e-07
1.44725e-07
-3.11453e-09
-1.30778e-07
-2.81067e-07
-4.07405e-07
-5.0251e-07
-6.08964e-07
-5.20344e-07
1.01403e-07
2.03742e-08
-6.59029e-08
-1.70779e-07
-2.63325e-07
-3.52656e-07
-4.83445e-07
-6.08329e-07
-6.31631e-07
-5.75718e-07
-1.15462e-07
-1.50802e-07
-2.30914e-07
-3.00272e-07
-3.64013e-07
-4.54194e-07
-5.55127e-07
-6.35885e-07
-7.03892e-07
-5.9648e-07
-2.91068e-07
-2.85236e-07
-3.4825e-07
-4.22299e-07
-4.70516e-07
-5.29027e-07
-6.13771e-07
-6.90514e-07
-7.04812e-07
-6.03219e-07
-3.95673e-07
-3.86396e-07
-4.43799e-07
-5.01832e-07
-5.45916e-07
-6.02276e-07
-6.47502e-07
-6.87413e-07
-7.16136e-07
-5.81802e-07
-4.74867e-07
-4.20617e-07
-5.02115e-07
-5.5221e-07
-5.9063e-07
-6.1477e-07
-6.32155e-07
-6.64256e-07
-6.36955e-07
-4.86408e-07
-4.06701e-07
-3.85525e-07
-4.52804e-07
-5.00411e-07
-5.24899e-07
-5.30895e-07
-5.21706e-07
-4.99839e-07
-4.40025e-07
-3.30627e-07
-3.01578e-06
-2.59924e-06
-2.3994e-06
-2.21226e-06
-1.93993e-06
-1.67801e-06
-1.50503e-06
-1.44901e-06
-1.34176e-06
-1.16896e-06
-2.5424e-06
-1.99137e-06
-1.84097e-06
-1.60064e-06
-1.33611e-06
-1.22219e-06
-1.07976e-06
-1.03789e-06
-1.11332e-06
-8.86526e-07
-2.28056e-06
-1.7982e-06
-1.54189e-06
-1.38843e-06
-1.18489e-06
-9.93856e-07
-9.79905e-07
-1.00126e-06
-9.67626e-07
-8.71704e-07
-1.93599e-06
-1.4601e-06
-1.38724e-06
-1.16422e-06
-9.5939e-07
-8.79709e-07
-8.45238e-07
-8.68874e-07
-9.53899e-07
-8.22968e-07
-1.69521e-06
-1.31218e-06
-1.14479e-06
-9.87095e-07
-8.12568e-07
-7.21584e-07
-7.653e-07
-8.31655e-07
-8.65249e-07
-7.90931e-07
-1.50407e-06
-1.11874e-06
-1.03405e-06
-8.72128e-07
-7.34554e-07
-6.85791e-07
-7.13924e-07
-7.7387e-07
-8.43869e-07
-7.53412e-07
-1.35081e-06
-1.01568e-06
-9.0967e-07
-8.22551e-07
-7.02341e-07
-6.65859e-07
-7.03121e-07
-7.47858e-07
-8.12164e-07
-7.16995e-07
-1.18894e-06
-9.06112e-07
-8.33884e-07
-7.43673e-07
-6.76153e-07
-6.7038e-07
-6.65255e-07
-7.49248e-07
-7.94219e-07
-6.91807e-07
-1.05637e-06
-7.70677e-07
-7.32589e-07
-6.63146e-07
-6.41617e-07
-6.03959e-07
-6.72158e-07
-7.08896e-07
-7.63521e-07
-6.24406e-07
-7.96687e-07
-5.96974e-07
-5.61972e-07
-5.37667e-07
-5.08224e-07
-5.32666e-07
-5.61242e-07
-6.08921e-07
-6.30684e-07
-4.92595e-07
1.92541e-06
1.61165e-06
1.47873e-06
1.31388e-06
1.04368e-06
8.22501e-07
5.85061e-07
3.87174e-07
3.52191e-07
1.99129e-07
1.55574e-06
1.23045e-06
1.05604e-06
8.45646e-07
6.39806e-07
4.27691e-07
2.92037e-07
2.06695e-07
6.51354e-08
4.50964e-08
1.26816e-06
9.49183e-07
7.80752e-07
6.13295e-07
4.10128e-07
2.74397e-07
1.34545e-07
6.87995e-09
6.02719e-09
-6.32266e-08
9.44388e-07
6.91131e-07
5.61112e-07
3.924e-07
2.43727e-07
9.50001e-08
3.90685e-09
-4.9879e-08
-1.41198e-07
-1.20467e-07
7.45959e-07
5.03627e-07
3.74626e-07
2.32165e-07
9.99259e-08
1.07914e-08
-7.58969e-08
-1.64211e-07
-1.71696e-07
-1.7785e-07
5.95779e-07
3.68854e-07
2.47731e-07
1.33119e-07
2.12455e-08
-6.5048e-08
-1.42147e-07
-1.87483e-07
-2.35775e-07
-2.05517e-07
4.83264e-07
2.92367e-07
1.74254e-07
5.16188e-08
-2.92039e-08
-1.13953e-07
-1.71332e-07
-2.27909e-07
-2.46721e-07
-2.13585e-07
4.42337e-07
2.09976e-07
1.19655e-07
5.70102e-09
-8.29397e-08
-1.52364e-07
-1.98296e-07
-2.3635e-07
-2.46908e-07
-2.11531e-07
3.45597e-07
2.20271e-07
3.92025e-08
-3.5119e-08
-1.34554e-07
-1.70036e-07
-2.07583e-07
-2.18368e-07
-2.20294e-07
-1.6148e-07
2.92402e-07
9.42403e-08
3.49167e-09
-9.26612e-08
-1.3817e-07
-1.73192e-07
-1.73279e-07
-1.72381e-07
-1.36945e-07
-1.0782e-07
-2.23389e-06
-1.82361e-06
-1.5456e-06
-1.3262e-06
-1.03015e-06
-7.8213e-07
-6.11754e-07
-5.28259e-07
-4.3525e-07
-4.09525e-07
-1.8097e-06
-1.33559e-06
-1.18261e-06
-9.11427e-07
-6.89785e-07
-5.51415e-07
-4.08676e-07
-3.49432e-07
-3.82662e-07
-3.08674e-07
-1.6474e-06
-1.23102e-06
-9.68923e-07
-8.00364e-07
-6.0685e-07
-4.33157e-07
-3.77105e-07
-3.51701e-07
-3.14562e-07
-3.05164e-07
-1.43191e-06
-1.00408e-06
-8.76791e-07
-6.65132e-07
-4.81474e-07
-3.83483e-07
-3.0995e-07
-2.88259e-07
-3.13401e-07
-2.82527e-07
-1.26616e-06
-9.0594e-07
-7.22747e-07
-5.49109e-07
-3.97156e-07
-2.94234e-07
-2.68549e-07
-2.64614e-07
-2.72721e-07
-2.58375e-07
-1.16657e-06
-7.70894e-07
-6.2601e-07
-4.76482e-07
-3.31383e-07
-2.63746e-07
-2.28036e-07
-2.30744e-07
-2.39644e-07
-2.39461e-07
-1.00097e-06
-6.8073e-07
-5.41937e-07
-3.97974e-07
-2.95953e-07
-2.19312e-07
-1.93171e-07
-1.84342e-07
-2.20676e-07
-1.96399e-07
-9.25035e-07
-5.66923e-07
-4.57498e-07
-3.34544e-07
-2.43808e-07
-1.79076e-07
-1.53651e-07
-1.66285e-07
-1.67239e-07
-1.80065e-07
-7.25077e-07
-4.92719e-07
-3.39165e-07
-2.7064e-07
-1.73494e-07
-1.43257e-07
-1.1394e-07
-1.16332e-07
-1.46617e-07
-1.20942e-07
-5.76161e-07
-3.43133e-07
-2.68613e-07
-1.83778e-07
-1.39822e-07
-1.02665e-07
-9.66085e-08
-1.10908e-07
-1.10875e-07
-1.09412e-07
1.50065e-06
1.27948e-06
1.20699e-06
1.08776e-06
9.24511e-07
7.80333e-07
6.33803e-07
5.37534e-07
5.12346e-07
3.73523e-07
1.1029e-06
8.83418e-07
7.71431e-07
6.83691e-07
5.46204e-07
4.45867e-07
3.71725e-07
3.29869e-07
2.74703e-07
2.05008e-07
8.03107e-07
6.22881e-07
5.51794e-07
4.77585e-07
3.73857e-07
3.00574e-07
2.45836e-07
1.96172e-07
1.97115e-07
1.35407e-07
5.07112e-07
4.05601e-07
3.79794e-07
3.02287e-07
2.33008e-07
1.71896e-07
1.40779e-07
1.29609e-07
1.12802e-07
8.81288e-08
3.32488e-07
2.60841e-07
2.24987e-07
1.84919e-07
1.27319e-07
9.5082e-08
8.13709e-08
6.40686e-08
6.92156e-08
5.52872e-08
1.76781e-07
1.51131e-07
1.45921e-07
1.02514e-07
7.61395e-08
4.94889e-08
3.99304e-08
3.84267e-08
4.69833e-08
3.09276e-08
1.19237e-07
9.65215e-08
7.67846e-08
7.27762e-08
3.95853e-08
3.21766e-08
3.80007e-08
3.36075e-08
3.60222e-08
3.80647e-08
3.541e-08
5.91441e-08
5.18216e-08
3.61522e-08
2.30804e-08
3.64307e-08
2.36399e-08
4.63206e-08
6.35974e-08
4.02823e-08
4.72859e-08
2.7581e-08
3.72231e-08
5.80438e-09
2.75261e-08
5.79321e-09
6.18801e-08
6.71197e-08
9.01188e-08
8.6957e-08
9.7206e-09
9.30284e-09
-9.26691e-09
-4.52769e-09
-1.40751e-08
1.93034e-08
4.28505e-08
6.927e-08
1.17014e-07
7.20578e-08
-1.72575e-06
-1.47756e-06
-1.34234e-06
-1.21342e-06
-1.02497e-06
-8.63436e-07
-7.3757e-07
-6.67591e-07
-6.14011e-07
-5.18402e-07
-1.48537e-06
-1.16385e-06
-1.05806e-06
-8.86901e-07
-7.29921e-07
-6.15796e-07
-5.27076e-07
-4.87992e-07
-4.79787e-07
-3.92316e-07
-1.34624e-06
-1.04981e-06
-8.97198e-07
-7.75164e-07
-6.28312e-07
-5.1346e-07
-4.61646e-07
-4.38161e-07
-4.30316e-07
-3.66441e-07
-1.16541e-06
-8.7535e-07
-7.86659e-07
-6.45435e-07
-5.09958e-07
-4.23404e-07
-3.88857e-07
-3.84309e-07
-3.81097e-07
-3.41976e-07
-1.01352e-06
-7.63118e-07
-6.61036e-07
-5.33967e-07
-4.12178e-07
-3.49131e-07
-3.32382e-07
-3.31607e-07
-3.54526e-07
-3.08585e-07
-9.12558e-07
-6.62228e-07
-5.68074e-07
-4.67653e-07
-3.62217e-07
-3.05497e-07
-2.95089e-07
-3.10202e-07
-3.08496e-07
-2.90631e-07
-7.85987e-07
-5.76362e-07
-5.05673e-07
-4.10847e-07
-3.32295e-07
-2.83797e-07
-2.71788e-07
-2.6741e-07
-3.00189e-07
-2.6111e-07
-7.10461e-07