/*--------------------------------*- C++ -*----------------------------------*\
| =========                 |                                                 |
| \\      /  F ield         | OpenFOAM: The Open Source CFD Toolbox           |
|  \\    /   O peration     | Version:  2406                                  |
|   \\  /    A nd           | Website:  www.openfoam.com                      |
|    \\/     M anipulation  |                                                 |
\*---------------------------------------------------------------------------*/
FoamFile
{
    version     2.0;
    format      ascii;
    arch        "LSB;label=32;scalar=64";
    class       volScalarField;
    location    "1.5";
    object      magR;
}
// * * * * * * * * * * * * * * * * * * * * * * * * * * * * * * * * * * * * * //

dimensions      [0 2 -2 0 0 0 0];

internalField   uniform 0;

boundaryField
{
    walls
    {
        type            calculated;
        value           nonuniform List<scalar> 
2000
(
5.84368e-07
8.28589e-07
1.09509e-06
1.31565e-06
1.44047e-06
1.44047e-06
1.31565e-06
1.09509e-06
8.28589e-07
5.84367e-07
2.35124e-07
3.22818e-07
4.26153e-07
5.15488e-07
5.67298e-07
5.67298e-07
5.15488e-07
4.26153e-07
3.22818e-07
2.35124e-07
8.23362e-08
1.10261e-07
1.44695e-07
1.75725e-07
1.94053e-07
1.94053e-07
1.75725e-07
1.44695e-07
1.10261e-07
8.23359e-08
1.07666e-07
1.45221e-07
1.90606e-07
2.3086e-07
2.54463e-07
2.54463e-07
2.30859e-07
1.90605e-07
1.4522e-07
1.07665e-07
8.39498e-08
1.12616e-07
1.47888e-07
1.7952e-07
1.98187e-07
1.98187e-07
1.79519e-07
1.47887e-07
1.12615e-07
8.39482e-08
9.09327e-08
1.223e-07
1.60677e-07
1.9497e-07
2.15174e-07
2.15173e-07
1.94968e-07
1.60674e-07
1.22297e-07
9.09296e-08
8.50932e-08
1.14273e-07
1.50148e-07
1.82303e-07
2.01281e-07
2.0128e-07
1.823e-07
1.50142e-07
1.14268e-07
8.50877e-08
8.69588e-08
1.16856e-07
1.53551e-07
1.86408e-07
2.05789e-07
2.05787e-07
1.86402e-07
1.53542e-07
1.16846e-07
8.69492e-08
8.54721e-08
1.14811e-07
1.50863e-07
1.8317e-07
2.02234e-07
2.0223e-07
1.8316e-07
1.50849e-07
1.14794e-07
8.54563e-08
8.59765e-08
1.15507e-07
1.51778e-07
1.8427e-07
2.03439e-07
2.03433e-07
1.84254e-07
1.51755e-07
1.15481e-07
8.59516e-08
8.56026e-08
1.1499e-07
1.51096e-07
1.83446e-07
2.02532e-07
2.02523e-07
1.83422e-07
1.51063e-07
1.14953e-07
8.55663e-08
8.57474e-08
1.15188e-07
1.51354e-07
1.83753e-07
2.02866e-07
2.02854e-07
1.83721e-07
1.51309e-07
1.15138e-07
8.56987e-08
8.56588e-08
1.15064e-07
1.51189e-07
1.83553e-07
2.02643e-07
2.02629e-07
1.83513e-07
1.51133e-07
1.15002e-07
8.5599e-08
8.57003e-08
1.15121e-07
1.51264e-07
1.83641e-07
2.02738e-07
2.02722e-07
1.83596e-07
1.512e-07
1.15051e-07
8.56331e-08
8.56735e-08
1.15085e-07
1.51218e-07
1.83586e-07
2.02678e-07
2.02661e-07
1.83539e-07
1.51151e-07
1.15013e-07
8.56043e-08
8.56738e-08
1.15088e-07
1.51224e-07
1.83596e-07
2.02691e-07
2.02674e-07
1.83551e-07
1.5116e-07
1.15019e-07
8.56088e-08
8.5651e-08
1.1506e-07
1.5119e-07
1.83559e-07
2.02653e-07
2.02639e-07
1.8352e-07
1.51136e-07
1.15001e-07
8.55961e-08
8.56333e-08
1.15039e-07
1.51167e-07
1.83535e-07
2.02631e-07
2.0262e-07
1.83506e-07
1.51126e-07
1.14996e-07
8.55934e-08
8.56101e-08
1.1501e-07
1.51133e-07
1.835e-07
2.02597e-07
2.0259e-07
1.83483e-07
1.51111e-07
1.14987e-07
8.55894e-08
8.55903e-08
1.14986e-07
1.51107e-07
1.83472e-07
2.02572e-07
2.02571e-07
1.8347e-07
1.51105e-07
1.14986e-07
8.55912e-08
8.55717e-08
1.14964e-07
1.51082e-07
1.83447e-07
2.02549e-07
2.02554e-07
1.8346e-07
1.51101e-07
1.14986e-07
8.5594e-08
8.55558e-08
1.14946e-07
1.51062e-07
1.83428e-07
2.02533e-07
2.02542e-07
1.83454e-07
1.51099e-07
1.14987e-07
8.55967e-08
8.55414e-08
1.14929e-07
1.51043e-07
1.83409e-07
2.02516e-07
2.02529e-07
1.83445e-07
1.51094e-07
1.14985e-07
8.55955e-08
8.55288e-08
1.14913e-07
1.51025e-07
1.8339e-07
2.02498e-07
2.02513e-07
1.83432e-07
1.51083e-07
1.14977e-07
8.559e-08
8.55177e-08
1.14899e-07
1.51007e-07
1.8337e-07
2.02478e-07
2.02494e-07
1.83414e-07
1.51069e-07
1.14966e-07
8.55816e-08
8.5509e-08
1.14887e-07
1.50992e-07
1.83352e-07
2.02459e-07
2.02475e-07
1.83398e-07
1.51055e-07
1.14955e-07
8.55744e-08
8.55035e-08
1.1488e-07
1.50982e-07
1.8334e-07
2.02445e-07
2.02462e-07
1.83387e-07
1.51047e-07
1.1495e-07
8.55716e-08
8.55034e-08
1.14879e-07
1.50981e-07
1.83338e-07
2.02443e-07
2.0246e-07
1.83386e-07
1.51048e-07
1.14953e-07
8.5575e-08
8.55125e-08
1.1489e-07
1.50994e-07
1.83351e-07
2.02455e-07
2.02472e-07
1.83397e-07
1.51059e-07
1.14963e-07
8.55838e-08
8.55359e-08
1.14918e-07
1.51024e-07
1.83383e-07
2.02486e-07
2.025e-07
1.83421e-07
1.51079e-07
1.14978e-07
8.55953e-08
8.55781e-08
1.14967e-07
1.51078e-07
1.83437e-07
2.02537e-07
2.02544e-07
1.83456e-07
1.51104e-07
1.14995e-07
8.56055e-08
8.56387e-08
1.15038e-07
1.51155e-07
1.83514e-07
2.02607e-07
2.02602e-07
1.835e-07
1.51133e-07
1.15011e-07
8.56114e-08
8.57091e-08
1.1512e-07
1.51246e-07
1.83605e-07
2.0269e-07
2.02669e-07
1.83547e-07
1.5116e-07
1.15022e-07
8.56117e-08
8.5773e-08
1.15196e-07
1.51331e-07
1.83693e-07
2.02769e-07
2.02732e-07
1.83589e-07
1.51182e-07
1.15028e-07
8.56075e-08
8.58107e-08
1.15243e-07
1.51388e-07
1.83753e-07
2.02826e-07
2.02777e-07
1.83618e-07
1.51196e-07
1.15029e-07
8.5601e-08
8.58079e-08
1.15244e-07
1.51395e-07
1.83766e-07
2.02841e-07
2.0279e-07
1.83625e-07
1.51195e-07
1.15024e-07
8.55946e-08
8.57624e-08
1.15195e-07
1.51347e-07
1.83723e-07
2.02805e-07
2.02761e-07
1.83603e-07
1.5118e-07
1.15014e-07
8.5589e-08
8.56865e-08
1.15108e-07
1.51255e-07
1.83634e-07
2.02726e-07
2.02698e-07
1.83557e-07
1.51151e-07
1.14999e-07
8.55848e-08
8.56031e-08
1.1501e-07
1.51146e-07
1.83524e-07
2.02626e-07
2.02617e-07
1.835e-07
1.51117e-07
1.14985e-07
8.55838e-08
8.55388e-08
1.14933e-07
1.51057e-07
1.83431e-07
2.02541e-07
2.02548e-07
1.83454e-07
1.51094e-07
1.14981e-07
8.55906e-08
8.55199e-08
1.14908e-07
1.51025e-07
1.83396e-07
2.02508e-07
2.02526e-07
1.83447e-07
1.51101e-07
1.14999e-07
8.56124e-08
8.55751e-08
1.1497e-07
1.5109e-07
1.8346e-07
2.0257e-07
2.02587e-07
1.83507e-07
1.51158e-07
1.15051e-07
8.56561e-08
8.57378e-08
1.15158e-07
1.51295e-07
1.83668e-07
2.02769e-07
2.02766e-07
1.83661e-07
1.51283e-07
1.15147e-07
8.57228e-08
8.60412e-08
1.15511e-07
1.51683e-07
1.84065e-07
2.03146e-07
2.03099e-07
1.83934e-07
1.51491e-07
1.15291e-07
8.58137e-08
8.65056e-08
1.16054e-07
1.52281e-07
1.84677e-07
2.03723e-07
2.03603e-07
1.84339e-07
1.51789e-07
1.1549e-07
8.59336e-08
8.71357e-08
1.168e-07
1.53115e-07
1.85541e-07
2.04549e-07
2.04332e-07
1.84931e-07
1.52233e-07
1.15795e-07
8.61283e-08
8.7899e-08
1.17709e-07
1.54137e-07
1.86604e-07
2.05569e-07
2.05235e-07
1.85673e-07
1.52799e-07
1.16199e-07
8.64009e-08
8.87705e-08
1.18802e-07
1.55435e-07
1.88031e-07
2.07016e-07
2.06591e-07
1.86852e-07
1.53754e-07
1.16923e-07
8.6928e-08
8.9537e-08
1.19736e-07
1.56515e-07
1.89176e-07
2.08136e-07
2.07606e-07
1.87712e-07
1.54443e-07
1.17449e-07
8.73206e-08
9.04995e-08
1.21132e-07
1.58428e-07
1.91534e-07
2.10767e-07
2.10266e-07
1.90165e-07
1.56525e-07
1.19087e-07
8.85743e-08
5.84367e-07
8.28589e-07
1.09509e-06
1.31565e-06
1.44047e-06
1.44047e-06
1.31565e-06
1.09509e-06
8.28589e-07
5.84368e-07
2.35124e-07
3.22818e-07
4.26153e-07
5.15487e-07
5.67298e-07
5.67298e-07
5.15488e-07
4.26153e-07
3.22818e-07
2.35124e-07
8.23355e-08
1.1026e-07
1.44695e-07
1.75724e-07
1.94052e-07
1.94053e-07
1.75725e-07
1.44695e-07
1.10261e-07
8.23362e-08
1.07664e-07
1.45219e-07
1.90603e-07
2.30858e-07
2.54462e-07
2.54463e-07
2.30859e-07
1.90605e-07
1.45221e-07
1.07666e-07
8.39461e-08
1.12612e-07
1.47884e-07
1.79516e-07
1.98185e-07
1.98186e-07
1.79519e-07
1.47888e-07
1.12616e-07
8.39497e-08
9.09254e-08
1.22292e-07
1.60669e-07
1.94963e-07
2.15169e-07
2.15171e-07
1.94968e-07
1.60676e-07
1.22299e-07
9.09325e-08
8.50806e-08
1.1426e-07
1.50134e-07
1.82291e-07
2.01272e-07
2.01275e-07
1.82299e-07
1.50145e-07
1.14272e-07
8.50929e-08
8.69377e-08
1.16833e-07
1.53528e-07
1.86388e-07
2.05775e-07
2.0578e-07
1.86402e-07
1.53547e-07
1.16854e-07
8.69582e-08
8.54394e-08
1.14775e-07
1.50828e-07
1.83139e-07
2.02212e-07
2.02219e-07
1.8316e-07
1.50857e-07
1.14808e-07
8.54711e-08
8.59283e-08
1.15454e-07
1.51726e-07
1.84225e-07
2.03407e-07
2.03418e-07
1.84255e-07
1.51769e-07
1.15502e-07
8.59751e-08
8.55361e-08
1.14918e-07
1.51025e-07
1.83385e-07
2.02489e-07
2.02505e-07
1.83427e-07
1.51084e-07
1.14984e-07
8.56007e-08
8.56613e-08
1.15094e-07
1.51261e-07
1.83674e-07
2.02812e-07
2.02832e-07
1.83729e-07
1.51339e-07
1.1518e-07
8.5745e-08
8.55552e-08
1.14951e-07
1.51078e-07
1.83457e-07
2.02578e-07
2.02602e-07
1.83523e-07
1.51171e-07
1.15055e-07
8.56559e-08
8.55852e-08
1.14995e-07
1.51138e-07
1.83534e-07
2.02665e-07
2.02692e-07
1.83607e-07
1.51243e-07
1.15111e-07
8.56972e-08
8.55566e-08
1.14956e-07
1.51088e-07
1.83475e-07
2.02602e-07
2.0263e-07
1.83551e-07
1.51196e-07
1.15075e-07
8.56704e-08
8.5566e-08
1.14968e-07
1.51103e-07
1.83491e-07
2.02618e-07
2.02644e-07
1.83563e-07
1.51203e-07
1.15078e-07
8.5671e-08
8.55623e-08
1.1496e-07
1.51088e-07
1.8347e-07
2.02592e-07
2.02614e-07
1.83531e-07
1.51173e-07
1.15052e-07
8.5649e-08
8.55697e-08
1.14966e-07
1.51092e-07
1.83469e-07
2.02585e-07
2.02602e-07
1.83515e-07
1.51155e-07
1.15033e-07
8.56321e-08
8.55732e-08
1.14967e-07
1.51088e-07
1.83459e-07
2.02567e-07
2.02578e-07
1.83486e-07
1.51126e-07
1.15007e-07
8.56095e-08
8.5578e-08
1.1497e-07
1.51087e-07
1.83452e-07
2.02554e-07
2.02558e-07
1.83463e-07
1.51101e-07
1.14984e-07
8.55899e-08
8.55803e-08
1.1497e-07
1.51084e-07
1.83443e-07
2.02539e-07
2.02537e-07
1.83438e-07
1.51076e-07
1.14961e-07
8.5571e-08
8.55828e-08
1.14971e-07
1.51081e-07
1.83435e-07
2.02525e-07
2.02519e-07
1.83417e-07
1.51055e-07
1.14942e-07
8.55549e-08
8.55857e-08
1.14972e-07
1.51079e-07
1.83429e-07
2.02514e-07
2.02503e-07
1.83399e-07
1.51036e-07
1.14925e-07
8.55407e-08
8.55899e-08
1.14975e-07
1.51079e-07
1.83425e-07
2.02506e-07
2.02491e-07
1.83385e-07
1.51022e-07
1.14912e-07
8.55288e-08
8.55938e-08
1.14978e-07
1.5108e-07
1.83423e-07
2.025e-07
2.02483e-07
1.83374e-07
1.5101e-07
1.14901e-07
8.55188e-08
8.55951e-08
1.14978e-07
1.51079e-07
1.8342e-07
2.02495e-07
2.02476e-07
1.83366e-07
1.51002e-07
1.14892e-07
8.55109e-08
8.55918e-08
1.14974e-07
1.51073e-07
1.83414e-07
2.02488e-07
2.02468e-07
1.83358e-07
1.50994e-07
1.14886e-07
8.55055e-08
8.55839e-08
1.14964e-07
1.51063e-07
1.83403e-07
2.02478e-07
2.0246e-07
1.83352e-07
1.5099e-07
1.14883e-07
8.55046e-08
8.5574e-08
1.14953e-07
1.51051e-07
1.83392e-07
2.0247e-07
2.02455e-07
1.83352e-07
1.50994e-07
1.1489e-07
8.5512e-08
8.55658e-08
1.14945e-07
1.51043e-07
1.83388e-07
2.02471e-07
2.02464e-07
1.83367e-07
1.51014e-07
1.14912e-07
8.55337e-08
8.55619e-08
1.14944e-07
1.51048e-07
1.834e-07
2.02493e-07
2.02495e-07
1.83407e-07
1.51059e-07
1.14957e-07
8.55745e-08
8.55629e-08
1.14953e-07
1.51068e-07
1.83433e-07
2.0254e-07
2.02555e-07
1.83476e-07
1.51131e-07
1.15025e-07
8.56344e-08
8.55673e-08
1.14968e-07
1.51099e-07
1.83483e-07
2.02609e-07
2.02639e-07
1.83568e-07
1.51222e-07
1.15108e-07
8.5705e-08
8.55734e-08
1.14987e-07
1.51136e-07
1.8354e-07
2.02685e-07
2.02729e-07
1.83663e-07
1.51313e-07
1.15187e-07
8.57698e-08
8.558e-08
1.15003e-07
1.51166e-07
1.83587e-07
2.02748e-07
2.02801e-07
1.83735e-07
1.51376e-07
1.15238e-07
8.58089e-08
8.5586e-08
1.15013e-07
1.51183e-07
1.83611e-07
2.02776e-07
2.0283e-07
1.83759e-07
1.51391e-07
1.15242e-07
8.58075e-08
8.55899e-08
1.15014e-07
1.51179e-07
1.83602e-07
2.0276e-07
2.02805e-07
1.83724e-07
1.51348e-07
1.15196e-07
8.57631e-08
8.55908e-08
1.15005e-07
1.51156e-07
1.83562e-07
2.02703e-07
2.02731e-07
1.83638e-07
1.51258e-07
1.15111e-07
8.56877e-08
8.55891e-08
1.1499e-07
1.51122e-07
1.83504e-07
2.02621e-07
2.02631e-07
1.83528e-07
1.51149e-07
1.15012e-07
8.5604e-08
8.55874e-08
1.14977e-07
1.51088e-07
1.83448e-07
2.02543e-07
2.02537e-07
1.83429e-07
1.51055e-07
1.14932e-07
8.55387e-08
8.55909e-08
1.14973e-07
1.51072e-07
1.83417e-07
2.02498e-07
2.02485e-07
1.83378e-07
1.51013e-07
1.14901e-07
8.55178e-08
8.56056e-08
1.1499e-07
1.51089e-07
1.83434e-07
2.02518e-07
2.02512e-07
1.83415e-07
1.5106e-07
1.14954e-07
8.557e-08
8.56344e-08
1.15037e-07
1.51155e-07
1.83526e-07
2.02638e-07
2.0266e-07
1.83586e-07
1.51242e-07
1.15131e-07
8.57293e-08
8.56638e-08
1.15104e-07
1.51273e-07
1.83705e-07
2.02883e-07
2.02966e-07
1.83934e-07
1.51602e-07
1.15471e-07
8.60295e-08
8.56595e-08
1.15162e-07
1.51421e-07
1.83965e-07
2.03264e-07
2.03451e-07
1.84486e-07
1.52169e-07
1.15999e-07
8.64902e-08
8.5533e-08
1.15113e-07
1.51503e-07
1.84223e-07
2.03714e-07
2.04071e-07
1.85216e-07
1.52928e-07
1.16709e-07
8.71107e-08
8.52294e-08
1.14895e-07
1.51456e-07
1.84416e-07
2.04175e-07
2.04769e-07
1.86068e-07
1.53827e-07
1.17554e-07
8.78517e-08
8.45391e-08
1.14241e-07
1.5096e-07
1.84205e-07
2.04326e-07
2.05273e-07
1.86838e-07
1.54727e-07
1.1845e-07
8.86668e-08
8.38963e-08
1.13641e-07
1.50526e-07
1.84048e-07
2.04506e-07
2.05764e-07
1.87549e-07
1.55529e-07
1.19235e-07
8.93705e-08
8.22353e-08
1.11785e-07
1.48643e-07
1.82425e-07
2.03392e-07
2.05281e-07
1.8765e-07
1.56038e-07
1.19949e-07
9.01273e-08
5.84367e-07
8.28589e-07
1.09509e-06
1.31565e-06
1.44047e-06
1.44047e-06
1.31565e-06
1.09509e-06
8.28589e-07
5.84367e-07
2.35124e-07
3.22818e-07
4.26153e-07
5.15487e-07
5.67297e-07
5.67297e-07
5.15487e-07
4.26153e-07
3.22818e-07
2.35124e-07
8.23352e-08
1.1026e-07
1.44694e-07
1.75723e-07
1.94052e-07
1.94052e-07
1.75724e-07
1.44694e-07
1.1026e-07
8.23355e-08
1.07663e-07
1.45218e-07
1.90602e-07
2.30856e-07
2.5446e-07
2.5446e-07
2.30856e-07
1.90602e-07
1.45219e-07
1.07664e-07
8.39445e-08
1.1261e-07
1.47881e-07
1.79512e-07
1.9818e-07
1.98181e-07
1.79513e-07
1.47883e-07
1.12612e-07
8.39459e-08
9.0922e-08
1.22287e-07
1.60663e-07
1.94956e-07
2.1516e-07
2.15161e-07
1.94958e-07
1.60665e-07
1.2229e-07
9.09249e-08
8.50745e-08
1.14251e-07
1.50123e-07
1.82277e-07
2.01256e-07
2.01258e-07
1.82281e-07
1.50128e-07
1.14257e-07
8.50798e-08
8.69269e-08
1.16818e-07
1.53509e-07
1.86364e-07
2.05747e-07
2.05749e-07
1.86371e-07
1.53518e-07
1.16828e-07
8.69362e-08
8.54221e-08
1.14751e-07
1.50797e-07
1.83101e-07
2.02167e-07
2.02171e-07
1.83111e-07
1.50811e-07
1.14766e-07
8.54369e-08
8.59027e-08
1.15419e-07
1.51679e-07
1.84167e-07
2.0334e-07
2.03345e-07
1.84181e-07
1.51699e-07
1.15441e-07
8.59243e-08
8.55017e-08
1.14869e-07
1.5096e-07
1.83304e-07
2.02395e-07
2.02401e-07
1.83322e-07
1.50986e-07
1.14898e-07
8.55303e-08
8.56193e-08
1.15034e-07
1.51178e-07
1.83569e-07
2.02687e-07
2.02695e-07
1.8359e-07
1.51209e-07
1.15068e-07
8.56535e-08
8.55091e-08
1.14883e-07
1.5098e-07
1.83331e-07
2.02426e-07
2.02435e-07
1.83353e-07
1.51013e-07
1.14919e-07
8.55456e-08
8.554e-08
1.14924e-07
1.51034e-07
1.83395e-07
2.02496e-07
2.02504e-07
1.83416e-07
1.51065e-07
1.14959e-07
8.55748e-08
8.55176e-08
1.14891e-07
1.50988e-07
1.83336e-07
2.0243e-07
2.02436e-07
1.83354e-07
1.51014e-07
1.1492e-07
8.55462e-08
8.55376e-08
1.14916e-07
1.51017e-07
1.83368e-07
2.02461e-07
2.02465e-07
1.83379e-07
1.51034e-07
1.14935e-07
8.5557e-08
8.55467e-08
1.14926e-07
1.51026e-07
1.83375e-07
2.02466e-07
2.02467e-07
1.8338e-07
1.51033e-07
1.14934e-07
8.55555e-08
8.55667e-08
1.14951e-07
1.51056e-07
1.83408e-07
2.025e-07
2.02499e-07
1.83407e-07
1.51054e-07
1.14949e-07
8.55655e-08
8.55809e-08
1.14969e-07
1.51078e-07
1.83433e-07
2.02525e-07
2.02522e-07
1.83426e-07
1.51069e-07
1.14958e-07
8.55715e-08
8.55945e-08
1.14987e-07
1.51101e-07
1.83459e-07
2.02552e-07
2.02548e-07
1.83447e-07
1.51085e-07
1.1497e-07
8.55784e-08
8.56045e-08
1.14999e-07
1.51116e-07
1.83476e-07
2.0257e-07
2.02565e-07
1.83462e-07
1.51095e-07
1.14977e-07
8.55825e-08
8.56143e-08
1.15011e-07
1.5113e-07
1.83492e-07
2.02586e-07
2.02579e-07
1.83474e-07
1.51105e-07
1.14983e-07
8.55865e-08
8.5625e-08
1.15024e-07
1.51145e-07
1.83507e-07
2.02601e-07
2.02593e-07
1.83485e-07
1.51114e-07
1.1499e-07
8.55909e-08
8.56377e-08
1.15039e-07
1.51162e-07
1.83525e-07
2.02619e-07
2.02609e-07
1.83499e-07
1.51125e-07
1.14998e-07
8.55966e-08
8.56515e-08
1.15056e-07
1.51182e-07
1.83547e-07
2.02639e-07
2.02628e-07
1.83515e-07
1.51137e-07
1.15006e-07
8.5602e-08
8.5665e-08
1.15073e-07
1.51202e-07
1.83568e-07
2.0266e-07
2.02646e-07
1.83529e-07
1.51146e-07
1.15011e-07
8.56047e-08
8.56754e-08
1.15086e-07
1.51216e-07
1.83583e-07
2.02675e-07
2.02658e-07
1.83537e-07
1.5115e-07
1.15011e-07
8.56027e-08
8.56791e-08
1.1509e-07
1.51222e-07
1.83589e-07
2.02679e-07
2.0266e-07
1.83535e-07
1.51145e-07
1.15005e-07
8.55957e-08
8.56713e-08
1.15081e-07
1.51211e-07
1.83578e-07
2.02667e-07
2.02648e-07
1.83523e-07
1.51133e-07
1.14994e-07
8.55857e-08
8.56469e-08
1.15052e-07
1.5118e-07
1.83546e-07
2.02637e-07
2.0262e-07
1.83499e-07
1.51114e-07
1.14979e-07
8.55754e-08
8.56035e-08
1.15002e-07
1.51125e-07
1.8349e-07
2.02585e-07
2.02576e-07
1.83464e-07
1.51089e-07
1.14963e-07
8.55665e-08
8.55441e-08
1.14933e-07
1.51049e-07
1.83413e-07
2.02514e-07
2.02516e-07
1.83419e-07
1.51058e-07
1.14946e-07
8.55592e-08
8.54787e-08
1.14855e-07
1.50962e-07
1.83324e-07
2.02431e-07
2.02445e-07
1.83366e-07
1.51024e-07
1.14928e-07
8.55534e-08
8.54223e-08
1.14787e-07
1.50883e-07
1.83241e-07
2.02351e-07
2.02378e-07
1.83316e-07
1.50993e-07
1.14914e-07
8.55498e-08
8.53905e-08
1.14746e-07
1.50832e-07
1.83184e-07
2.02295e-07
2.0233e-07
1.83282e-07
1.50973e-07
1.14906e-07
8.55503e-08
8.53945e-08
1.14746e-07
1.50826e-07
1.83172e-07
2.02281e-07
2.02318e-07
1.83275e-07
1.50973e-07
1.1491e-07
8.55561e-08
8.54362e-08
1.14792e-07
1.50872e-07
1.83214e-07
2.02318e-07
2.0235e-07
1.83302e-07
1.50994e-07
1.14926e-07
8.55663e-08
8.55053e-08
1.14872e-07
1.50958e-07
1.83301e-07
2.02399e-07
2.02419e-07
1.83357e-07
1.51033e-07
1.14949e-07
8.55781e-08
8.55795e-08
1.1496e-07
1.51059e-07
1.83406e-07
2.02499e-07
2.02506e-07
1.83423e-07
1.51078e-07
1.14974e-07
8.55886e-08
8.56292e-08
1.15023e-07
1.51135e-07
1.83491e-07
2.02583e-07
2.02581e-07
1.83481e-07
1.51117e-07
1.14995e-07
8.55967e-08
8.56198e-08
1.15019e-07
1.51142e-07
1.8351e-07
2.02611e-07
2.02612e-07
1.8351e-07
1.51139e-07
1.15008e-07
8.56044e-08
8.55136e-08
1.14904e-07
1.51031e-07
1.83416e-07
2.02542e-07
2.02569e-07
1.83488e-07
1.51134e-07
1.15013e-07
8.56146e-08
8.5278e-08
1.14641e-07
1.50761e-07
1.83166e-07
2.02335e-07
2.02417e-07
1.83394e-07
1.51088e-07
1.15002e-07
8.56252e-08
8.48985e-08
1.14207e-07
1.50302e-07
1.82723e-07
2.0195e-07
2.02117e-07
1.83188e-07
1.50968e-07
1.14949e-07
8.56175e-08
8.4386e-08
1.1361e-07
1.49652e-07
1.82073e-07
2.01359e-07
2.01628e-07
1.82823e-07
1.50725e-07
1.14809e-07
8.55528e-08
8.37806e-08
1.12879e-07
1.48819e-07
1.81196e-07
2.00509e-07
2.00869e-07
1.82198e-07
1.5025e-07
1.14478e-07
8.53413e-08
8.31574e-08
1.12097e-07
1.47887e-07
1.80165e-07
1.99453e-07
1.99865e-07
1.81311e-07
1.49518e-07
1.13916e-07
8.49348e-08
8.25725e-08
1.11285e-07
1.46815e-07
1.78855e-07
1.97984e-07
1.98348e-07
1.79865e-07
1.48244e-07
1.12877e-07
8.41343e-08
8.2167e-08
1.10712e-07
1.46034e-07
1.77879e-07
1.96859e-07
1.97153e-07
1.78688e-07
1.47168e-07
1.11965e-07
8.34015e-08
8.1749e-08
1.09921e-07
1.44689e-07
1.75948e-07
1.94418e-07
1.94416e-07
1.75927e-07
1.44642e-07
1.09835e-07
8.16938e-08
5.84367e-07
8.28589e-07
1.09509e-06
1.31565e-06
1.44047e-06
1.44047e-06
1.31565e-06
1.09509e-06
8.28589e-07
5.84367e-07
2.35124e-07
3.22818e-07
4.26153e-07
5.15487e-07
5.67297e-07
5.67297e-07
5.15487e-07
4.26153e-07
3.22818e-07
2.35124e-07
8.23359e-08
1.10261e-07
1.44695e-07
1.75724e-07
1.94052e-07
1.94052e-07
1.75724e-07
1.44694e-07
1.1026e-07
8.23352e-08
1.07665e-07
1.4522e-07
1.90604e-07
2.30858e-07
2.54461e-07
2.5446e-07
2.30856e-07
1.90602e-07
1.45218e-07
1.07663e-07
8.3948e-08
1.12614e-07
1.47885e-07
1.79516e-07
1.98183e-07
1.98182e-07
1.79513e-07
1.47882e-07
1.1261e-07
8.39445e-08
9.09291e-08
1.22295e-07
1.60671e-07
1.94962e-07
2.15165e-07
2.15163e-07
1.94958e-07
1.60664e-07
1.22288e-07
9.09221e-08
8.50869e-08
1.14265e-07
1.50136e-07
1.82289e-07
2.01265e-07
2.01262e-07
1.82281e-07
1.50125e-07
1.14252e-07
8.50748e-08
8.69477e-08
1.16841e-07
1.53532e-07
1.86384e-07
2.05761e-07
2.05756e-07
1.86371e-07
1.53513e-07
1.1682e-07
8.69275e-08
8.54538e-08
1.14786e-07
1.50832e-07
1.83131e-07
2.02189e-07
2.02182e-07
1.83111e-07
1.50803e-07
1.14754e-07
8.5423e-08
8.59477e-08
1.15468e-07
1.51728e-07
1.8421e-07
2.03371e-07
2.03361e-07
1.84182e-07
1.51688e-07
1.15423e-07
8.5904e-08
8.55607e-08
1.14934e-07
1.51025e-07
1.8336e-07
2.02436e-07
2.02422e-07
1.83323e-07
1.50972e-07
1.14875e-07
8.55034e-08
8.56913e-08
1.15112e-07
1.51258e-07
1.83639e-07
2.02739e-07
2.02722e-07
1.83594e-07
1.51194e-07
1.15041e-07
8.56215e-08
8.55899e-08
1.14972e-07
1.51071e-07
1.83412e-07
2.02488e-07
2.02469e-07
1.83361e-07
1.50999e-07
1.14892e-07
8.55118e-08
8.56231e-08
1.15017e-07
1.5113e-07
1.83482e-07
2.02564e-07
2.02545e-07
1.8343e-07
1.51056e-07
1.14935e-07
8.55431e-08
8.55944e-08
1.14978e-07
1.5108e-07
1.83423e-07
2.025e-07
2.02482e-07
1.83374e-07
1.51012e-07
1.14903e-07
8.55209e-08
8.56e-08
1.14988e-07
1.51095e-07
1.83443e-07
2.02525e-07
2.02511e-07
1.83404e-07
1.51039e-07
1.14927e-07
8.55408e-08
8.55893e-08
1.14976e-07
1.51083e-07
1.83433e-07
2.02518e-07
2.02508e-07
1.83405e-07
1.51045e-07
1.14935e-07
8.55492e-08
8.55891e-08
1.14978e-07
1.5109e-07
1.83445e-07
2.02536e-07
2.0253e-07
1.8343e-07
1.51069e-07
1.14957e-07
8.55683e-08
8.55873e-08
1.14978e-07
1.51092e-07
1.83451e-07
2.02546e-07
2.02544e-07
1.83446e-07
1.51086e-07
1.14973e-07
8.55818e-08
8.55911e-08
1.14985e-07
1.51102e-07
1.83464e-07
2.02563e-07
2.02564e-07
1.83467e-07
1.51105e-07
1.14989e-07
8.55952e-08
8.55956e-08
1.14991e-07
1.51111e-07
1.83477e-07
2.02578e-07
2.0258e-07
1.83484e-07
1.51121e-07
1.15002e-07
8.56053e-08
8.55997e-08
1.14998e-07
1.51121e-07
1.8349e-07
2.02594e-07
2.02598e-07
1.83501e-07
1.51136e-07
1.15014e-07
8.56155e-08
8.56e-08
1.15e-07
1.51126e-07
1.83499e-07
2.02606e-07
2.02612e-07
1.83516e-07
1.5115e-07
1.15027e-07
8.56261e-08
8.5596e-08
1.14998e-07
1.51127e-07
1.83503e-07
2.02614e-07
2.02624e-07
1.8353e-07
1.51165e-07
1.15041e-07
8.56381e-08
8.55892e-08
1.14992e-07
1.51123e-07
1.83503e-07
2.02619e-07
2.02633e-07
1.83542e-07
1.51179e-07
1.15055e-07
8.56508e-08
8.55834e-08
1.14987e-07
1.51119e-07
1.83502e-07
2.02622e-07
2.02641e-07
1.83553e-07
1.51192e-07
1.15068e-07
8.56632e-08
8.55819e-08
1.14986e-07
1.51119e-07
1.83504e-07
2.02627e-07
2.02649e-07
1.83564e-07
1.51204e-07
1.1508e-07
8.56733e-08
8.55861e-08
1.14991e-07
1.51126e-07
1.83512e-07
2.02635e-07
2.02657e-07
1.83573e-07
1.51212e-07
1.15086e-07
8.56777e-08
8.55949e-08
1.15001e-07
1.51136e-07
1.83521e-07
2.02643e-07
2.02662e-07
1.83573e-07
1.51209e-07
1.1508e-07
8.56712e-08
8.56045e-08
1.1501e-07
1.51144e-07
1.83525e-07
2.02641e-07
2.02653e-07
1.83557e-07
1.51188e-07
1.15056e-07
8.56483e-08
8.56102e-08
1.15013e-07
1.51141e-07
1.83515e-07
2.0262e-07
2.02621e-07
1.83516e-07
1.51141e-07
1.1501e-07
8.56057e-08
8.56088e-08
1.15004e-07
1.51123e-07
1.83484e-07
2.02575e-07
2.02562e-07
1.83448e-07
1.5107e-07
1.14943e-07
8.55466e-08
8.55998e-08
1.14985e-07
1.51089e-07
1.83434e-07
2.02508e-07
2.02482e-07
1.83361e-07
1.50984e-07
1.14865e-07
8.5481e-08
8.55863e-08
1.1496e-07
1.51048e-07
1.83375e-07
2.02433e-07
2.02397e-07
1.83273e-07
1.50902e-07
1.14795e-07
8.54241e-08
8.55732e-08
1.14936e-07
1.51011e-07
1.83324e-07
2.0237e-07
2.02329e-07
1.83208e-07
1.50846e-07
1.14752e-07
8.53919e-08
8.55653e-08
1.14923e-07
1.50991e-07
1.83297e-07
2.0234e-07
2.023e-07
1.83186e-07
1.50835e-07
1.1475e-07
8.53955e-08
8.55643e-08
1.14925e-07
1.50995e-07
1.83305e-07
2.02354e-07
2.02322e-07
1.83218e-07
1.50875e-07
1.14793e-07
8.54368e-08
8.55699e-08
1.14939e-07
1.51022e-07
1.83346e-07
2.0241e-07
2.02392e-07
1.83297e-07
1.50956e-07
1.14871e-07
8.55053e-08
8.55811e-08
1.14964e-07
1.51065e-07
1.83409e-07
2.02492e-07
2.02487e-07
1.83398e-07
1.51054e-07
1.14958e-07
8.5579e-08
8.55984e-08
1.14995e-07
1.51114e-07
1.83475e-07
2.02573e-07
2.02575e-07
1.83484e-07
1.51131e-07
1.15021e-07
8.56285e-08
8.56252e-08
1.1503e-07
1.51159e-07
1.83526e-07
2.02623e-07
2.02617e-07
1.83512e-07
1.51142e-07
1.15019e-07
8.56195e-08
8.56636e-08
1.15068e-07
1.5119e-07
1.8354e-07
2.0261e-07
2.02572e-07
1.83434e-07
1.5104e-07
1.14908e-07
8.55142e-08
8.57099e-08
1.15098e-07
1.5119e-07
1.83492e-07
2.025e-07
2.02395e-07
1.83203e-07
1.50779e-07
1.14648e-07
8.52793e-08
8.57616e-08
1.15115e-07
1.51148e-07
1.83363e-07
2.02266e-07
2.02059e-07
1.8279e-07
1.50333e-07
1.14219e-07
8.49e-08
8.58236e-08
1.15124e-07
1.51065e-07
1.83152e-07
2.01907e-07
2.01563e-07
1.82199e-07
1.49713e-07
1.13636e-07
8.43902e-08
8.59449e-08
1.15182e-07
1.51009e-07
1.82933e-07
2.01501e-07
2.00985e-07
1.81508e-07
1.48989e-07
1.1296e-07
8.3799e-08
8.61359e-08
1.15306e-07
1.51006e-07
1.82747e-07
2.01109e-07
2.00409e-07
1.80815e-07
1.48267e-07
1.12288e-07
8.32112e-08
8.65766e-08
1.15724e-07
1.51329e-07
1.82894e-07
2.01028e-07
2.00104e-07
1.80343e-07
1.47715e-07
1.11739e-07
8.2702e-08
8.68967e-08
1.16005e-07
1.51513e-07
1.82934e-07
2.00903e-07
1.99839e-07
1.7999e-07
1.47339e-07
1.11381e-07
8.23778e-08
8.80388e-08
1.1728e-07
1.52831e-07
1.84154e-07
2.01884e-07
2.00508e-07
1.80343e-07
1.47446e-07
1.11304e-07
8.22034e-08
)
;
    }
    inlet
    {
        type            calculated;
        value           uniform 0;
    }
    outlet
    {
        type            calculated;
        value           uniform 0;
    }
}


// ************************************************************************* //
