/*--------------------------------*- C++ -*----------------------------------*\
| =========                 |                                                 |
| \\      /  F ield         | OpenFOAM: The Open Source CFD Toolbox           |
|  \\    /   O peration     | Version:  2406                                  |
|   \\  /    A nd           | Website:  www.openfoam.com                      |
|    \\/     M anipulation  |                                                 |
\*---------------------------------------------------------------------------*/
FoamFile
{
    version     2.0;
    format      ascii;
    arch        "LSB;label=32;scalar=64";
    class       volVectorField;
    location    "1.5";
    object      momentError;
}
// * * * * * * * * * * * * * * * * * * * * * * * * * * * * * * * * * * * * * //

dimensions      [0 1 -2 0 0 0 0];

internalField   nonuniform List<vector> 
25000
(
(-1.87045e-06 -3.97725e-06 -2.74715e-06)
(-1.37174e-06 -3.66333e-06 -3.50458e-06)
(-7.87012e-07 -3.54854e-06 -3.68823e-06)
(-1.98148e-07 -3.49943e-06 -3.64933e-06)
(3.74582e-07 -3.43241e-06 -3.55287e-06)
(9.41385e-07 -3.39796e-06 -3.46713e-06)
(1.51198e-06 -3.43161e-06 -3.38276e-06)
(2.07229e-06 -3.45995e-06 -3.2254e-06)
(2.79707e-06 -3.36448e-06 -2.8832e-06)
(3.75953e-06 -3.52731e-06 -1.97606e-06)
(-1.97347e-06 -3.50838e-06 -3.56368e-06)
(-1.70911e-06 -3.53881e-06 -4.43479e-06)
(-1.23873e-06 -3.48953e-06 -4.60218e-06)
(-6.2105e-07 -3.4233e-06 -4.52355e-06)
(5.32256e-08 -3.34935e-06 -4.39765e-06)
(7.14812e-07 -3.31459e-06 -4.30918e-06)
(1.36224e-06 -3.32731e-06 -4.2443e-06)
(1.95979e-06 -3.32264e-06 -4.1065e-06)
(2.55753e-06 -3.22371e-06 -3.7514e-06)
(3.18343e-06 -3.11671e-06 -2.79302e-06)
(-2.12826e-06 -2.94976e-06 -3.69906e-06)
(-1.81894e-06 -3.16168e-06 -4.55922e-06)
(-1.37764e-06 -3.20765e-06 -4.72305e-06)
(-7.49823e-07 -3.15795e-06 -4.63889e-06)
(-3.63668e-08 -3.08503e-06 -4.50925e-06)
(6.63373e-07 -3.04765e-06 -4.43131e-06)
(1.34166e-06 -3.04218e-06 -4.38928e-06)
(1.9391e-06 -3.00239e-06 -4.26858e-06)
(2.45448e-06 -2.8514e-06 -3.91038e-06)
(2.9646e-06 -2.59624e-06 -2.99147e-06)
(-2.26765e-06 -2.28903e-06 -3.58894e-06)
(-1.88217e-06 -2.52666e-06 -4.39091e-06)
(-1.41619e-06 -2.61455e-06 -4.53998e-06)
(-7.7152e-07 -2.58689e-06 -4.45118e-06)
(-4.30818e-08 -2.52091e-06 -4.32095e-06)
(6.65077e-07 -2.47665e-06 -4.25206e-06)
(1.3497e-06 -2.45268e-06 -4.23071e-06)
(1.94878e-06 -2.39294e-06 -4.13341e-06)
(2.45649e-06 -2.22592e-06 -3.79525e-06)
(2.97575e-06 -1.9631e-06 -2.94161e-06)
(-2.37703e-06 -1.62408e-06 -3.41574e-06)
(-1.93681e-06 -1.81896e-06 -4.15444e-06)
(-1.43042e-06 -1.90315e-06 -4.28371e-06)
(-7.56295e-07 -1.88284e-06 -4.18931e-06)
(-1.4506e-08 -1.81966e-06 -4.06149e-06)
(6.95449e-07 -1.76709e-06 -4.00311e-06)
(1.37875e-06 -1.73012e-06 -3.9997e-06)
(1.97387e-06 -1.67497e-06 -3.92692e-06)
(2.47465e-06 -1.55469e-06 -3.62151e-06)
(2.98627e-06 -1.38858e-06 -2.83459e-06)
(-2.47717e-06 -1.03883e-06 -3.26369e-06)
(-1.99088e-06 -1.18333e-06 -3.96046e-06)
(-1.43829e-06 -1.24178e-06 -4.07784e-06)
(-7.25391e-07 -1.21417e-06 -3.9846e-06)
(3.86509e-08 -1.14669e-06 -3.86515e-06)
(7.54654e-07 -1.08373e-06 -3.81928e-06)
(1.43484e-06 -1.03768e-06 -3.83144e-06)
(2.02235e-06 -9.99973e-07 -3.77639e-06)
(2.5084e-06 -9.47563e-07 -3.49302e-06)
(3.00597e-06 -8.94921e-07 -2.74804e-06)
(-2.5625e-06 -4.81551e-07 -3.13628e-06)
(-2.02366e-06 -5.86247e-07 -3.81636e-06)
(-1.41925e-06 -6.07665e-07 -3.93329e-06)
(-6.62986e-07 -5.56199e-07 -3.84704e-06)
(1.24656e-07 -4.74903e-07 -3.74047e-06)
(8.46128e-07 -3.99475e-07 -3.70881e-06)
(1.51912e-06 -3.46282e-07 -3.73293e-06)
(2.09138e-06 -3.30099e-07 -3.6878e-06)
(2.56208e-06 -3.49637e-07 -3.41392e-06)
(3.06532e-06 -4.1311e-07 -2.68132e-06)
(-2.56777e-06 1.2035e-07 -2.97261e-06)
(-1.9705e-06 6.98738e-09 -3.64487e-06)
(-1.31338e-06 1.87894e-08 -3.76378e-06)
(-5.30899e-07 1.02892e-07 -3.68411e-06)
(2.55342e-07 2.00048e-07 -3.59003e-06)
(9.59728e-07 2.83572e-07 -3.56936e-06)
(1.60604e-06 3.39066e-07 -3.60053e-06)
(2.15144e-06 3.41512e-07 -3.56427e-06)
(2.59687e-06 2.78474e-07 -3.30298e-06)
(3.099e-06 1.3317e-07 -2.57202e-06)
(-2.45088e-06 8.31728e-07 -2.68257e-06)
(-1.76037e-06 6.25258e-07 -3.31411e-06)
(-1.04778e-06 6.59055e-07 -3.43519e-06)
(-2.87518e-07 7.69806e-07 -3.36467e-06)
(4.36976e-07 8.67587e-07 -3.28161e-06)
(1.07649e-06 9.43882e-07 -3.26418e-06)
(1.66898e-06 9.97421e-07 -3.29254e-06)
(2.18986e-06 1.00786e-06 -3.26291e-06)
(2.62762e-06 9.81337e-07 -3.02544e-06)
(3.11682e-06 8.97772e-07 -2.30956e-06)
(-2.17918e-06 1.51468e-06 -2.11243e-06)
(-1.25011e-06 1.25163e-06 -2.59574e-06)
(-4.99069e-07 1.34313e-06 -2.71427e-06)
(1.64955e-07 1.46175e-06 -2.6759e-06)
(7.58225e-07 1.52611e-06 -2.61667e-06)
(1.29099e-06 1.57437e-06 -2.59681e-06)
(1.81492e-06 1.61959e-06 -2.60273e-06)
(2.34475e-06 1.64553e-06 -2.5555e-06)
(2.89701e-06 1.70596e-06 -2.3326e-06)
(3.55064e-06 1.87298e-06 -1.69085e-06)
(3.78494e-06 -5.35612e-06 -1.06656e-05)
(3.80147e-06 -4.21161e-06 -1.21403e-05)
(4.22936e-06 -3.61786e-06 -1.27281e-05)
(4.74219e-06 -3.26126e-06 -1.26547e-05)
(5.13903e-06 -2.95866e-06 -1.23629e-05)
(5.41688e-06 -2.73435e-06 -1.1951e-05)
(5.5341e-06 -2.59227e-06 -1.13396e-05)
(5.45335e-06 -2.47624e-06 -1.03017e-05)
(5.36119e-06 -2.20571e-06 -8.26562e-06)
(5.61431e-06 -2.29839e-06 -4.13925e-06)
(2.68821e-06 -4.30014e-06 -1.27328e-05)
(2.75159e-06 -3.74634e-06 -1.51202e-05)
(3.10013e-06 -3.43891e-06 -1.60996e-05)
(3.61439e-06 -3.12765e-06 -1.61545e-05)
(4.08696e-06 -2.86981e-06 -1.59196e-05)
(4.46072e-06 -2.74089e-06 -1.56559e-05)
(4.71429e-06 -2.71096e-06 -1.53092e-05)
(4.79197e-06 -2.67785e-06 -1.45327e-05)
(4.71782e-06 -2.48264e-06 -1.24854e-05)
(4.64567e-06 -2.3896e-06 -8.03068e-06)
(1.91042e-06 -3.38881e-06 -1.37141e-05)
(2.20921e-06 -3.11953e-06 -1.648e-05)
(2.61076e-06 -2.96945e-06 -1.74159e-05)
(3.0995e-06 -2.71584e-06 -1.7347e-05)
(3.53221e-06 -2.5159e-06 -1.70743e-05)
(3.89727e-06 -2.44876e-06 -1.68721e-05)
(4.20364e-06 -2.48719e-06 -1.66743e-05)
(4.39007e-06 -2.52075e-06 -1.61345e-05)
(4.41371e-06 -2.39173e-06 -1.432e-05)
(4.32875e-06 -2.29626e-06 -9.87141e-06)
(1.38072e-06 -2.54079e-06 -1.40477e-05)
(1.82038e-06 -2.27769e-06 -1.68598e-05)
(2.30221e-06 -2.19839e-06 -1.76635e-05)
(2.79901e-06 -2.05194e-06 -1.75544e-05)
(3.211e-06 -1.94272e-06 -1.73087e-05)
(3.55452e-06 -1.9294e-06 -1.71411e-05)
(3.86764e-06 -2.00169e-06 -1.69712e-05)
(4.12516e-06 -2.08103e-06 -1.6504e-05)
(4.28002e-06 -2.03608e-06 -1.4896e-05)
(4.31597e-06 -2.07803e-06 -1.06534e-05)
(1.02474e-06 -1.79523e-06 -1.42308e-05)
(1.50713e-06 -1.49977e-06 -1.69711e-05)
(2.06071e-06 -1.48778e-06 -1.7696e-05)
(2.60245e-06 -1.44613e-06 -1.75854e-05)
(3.03093e-06 -1.41635e-06 -1.73563e-05)
(3.38389e-06 -1.44658e-06 -1.72017e-05)
(3.71342e-06 -1.54039e-06 -1.70333e-05)
(4.01297e-06 -1.6555e-06 -1.65756e-05)
(4.25037e-06 -1.71581e-06 -1.50695e-05)
(4.35654e-06 -1.95756e-06 -1.10183e-05)
(7.78568e-07 -1.18038e-06 -1.44238e-05)
(1.27456e-06 -8.97407e-07 -1.71208e-05)
(1.88961e-06 -9.56309e-07 -1.78396e-05)
(2.49836e-06 -9.94628e-07 -1.77082e-05)
(2.97777e-06 -1.01909e-06 -1.74559e-05)
(3.36316e-06 -1.08081e-06 -1.72907e-05)
(3.72037e-06 -1.19623e-06 -1.71246e-05)
(4.05547e-06 -1.34814e-06 -1.66732e-05)
(4.3276e-06 -1.50572e-06 -1.51741e-05)
(4.45771e-06 -1.92737e-06 -1.11766e-05)
(6.05481e-07 -6.35689e-07 -1.4646e-05)
(1.13158e-06 -3.90767e-07 -1.73165e-05)
(1.81999e-06 -5.02485e-07 -1.81068e-05)
(2.51908e-06 -5.92626e-07 -1.79446e-05)
(3.06433e-06 -6.52221e-07 -1.76354e-05)
(3.49273e-06 -7.37513e-07 -1.74357e-05)
(3.88417e-06 -8.74766e-07 -1.72663e-05)
(4.24258e-06 -1.07235e-06 -1.68122e-05)
(4.52021e-06 -1.3345e-06 -1.52241e-05)
(4.67317e-06 -1.94257e-06 -1.11525e-05)
(5.45315e-07 -7.06341e-08 -1.47496e-05)
(1.16493e-06 9.44318e-08 -1.72317e-05)
(1.93822e-06 -1.09978e-08 -1.81346e-05)
(2.71866e-06 -1.0841e-07 -1.79973e-05)
(3.32437e-06 -1.91679e-07 -1.76372e-05)
(3.78557e-06 -3.02527e-07 -1.7385e-05)
(4.18942e-06 -4.77058e-07 -1.71803e-05)
(4.5334e-06 -7.38895e-07 -1.6657e-05)
(4.76751e-06 -1.11156e-06 -1.48932e-05)
(4.96087e-06 -1.89552e-06 -1.07819e-05)
(6.83204e-07 6.39706e-07 -1.42746e-05)
(1.50082e-06 6.3887e-07 -1.61888e-05)
(2.38149e-06 5.82561e-07 -1.7047e-05)
(3.18229e-06 5.33329e-07 -1.70013e-05)
(3.78867e-06 4.35092e-07 -1.66743e-05)
(4.23341e-06 2.78137e-07 -1.6365e-05)
(4.5934e-06 3.83242e-08 -1.6028e-05)
(4.87079e-06 -3.00344e-07 -1.53134e-05)
(5.06535e-06 -7.60776e-07 -1.34244e-05)
(5.37921e-06 -1.63942e-06 -9.53629e-06)
(1.33128e-06 1.53383e-06 -1.33726e-05)
(2.44915e-06 1.38651e-06 -1.40524e-05)
(3.46177e-06 1.36259e-06 -1.43161e-05)
(4.21541e-06 1.2955e-06 -1.40302e-05)
(4.73372e-06 1.11431e-06 -1.36172e-05)
(5.11131e-06 8.61774e-07 -1.31842e-05)
(5.40948e-06 5.31767e-07 -1.2656e-05)
(5.66988e-06 1.14557e-07 -1.18165e-05)
(5.99755e-06 -4.25622e-07 -1.01111e-05)
(6.68036e-06 -1.25815e-06 -6.828e-06)
(8.78599e-06 -9.24729e-06 -2.36762e-05)
(8.73218e-06 -6.7362e-06 -2.30053e-05)
(9.25119e-06 -5.46865e-06 -2.17863e-05)
(9.88032e-06 -4.6644e-06 -1.94414e-05)
(1.03683e-05 -3.97575e-06 -1.68174e-05)
(1.07033e-05 -3.42807e-06 -1.41097e-05)
(1.07599e-05 -3.01541e-06 -1.10728e-05)
(1.04537e-05 -2.70291e-06 -7.20886e-06)
(9.99959e-06 -2.29672e-06 -1.34811e-06)
(1.00498e-05 -2.55256e-06 9.84976e-06)
(6.00005e-06 -8.33032e-06 -2.55871e-05)
(6.12204e-06 -6.62285e-06 -2.66088e-05)
(6.72203e-06 -5.7024e-06 -2.62442e-05)
(7.47956e-06 -4.93862e-06 -2.45665e-05)
(8.1431e-06 -4.30961e-06 -2.26212e-05)
(8.63327e-06 -3.88778e-06 -2.06902e-05)
(8.8214e-06 -3.63863e-06 -1.85386e-05)
(8.60531e-06 -3.48548e-06 -1.56135e-05)
(8.05362e-06 -3.27372e-06 -1.04731e-05)
(7.56387e-06 -3.37657e-06 -3.4699e-07)
(4.53085e-06 -7.41404e-06 -2.69216e-05)
(5.18474e-06 -6.27515e-06 -2.84989e-05)
(6.00656e-06 -5.62711e-06 -2.81745e-05)
(6.81251e-06 -4.96207e-06 -2.66002e-05)
(7.45864e-06 -4.41116e-06 -2.48679e-05)
(7.92106e-06 -4.08099e-06 -2.3257e-05)
(8.11059e-06 -3.9423e-06 -2.15475e-05)
(7.91375e-06 -3.88361e-06 -1.91678e-05)
(7.34113e-06 -3.7622e-06 -1.45979e-05)
(6.7605e-06 -3.89225e-06 -5.15101e-06)
(3.6466e-06 -6.43915e-06 -2.73588e-05)
(4.7231e-06 -5.58884e-06 -2.90103e-05)
(5.77922e-06 -5.15231e-06 -2.865e-05)
(6.63652e-06 -4.64148e-06 -2.71432e-05)
(7.23363e-06 -4.18728e-06 -2.54976e-05)
(7.6197e-06 -3.93259e-06 -2.40235e-05)
(7.77438e-06 -3.87766e-06 -2.25717e-05)
(7.59552e-06 -3.89651e-06 -2.05284e-05)
(7.08419e-06 -3.87008e-06 -1.64064e-05)
(6.60793e-06 -4.16294e-06 -7.64242e-06)
(3.06432e-06 -5.47938e-06 -2.78439e-05)
(4.42467e-06 -4.83818e-06 -2.93621e-05)
(5.68477e-06 -4.589e-06 -2.8948e-05)
(6.61913e-06 -4.24637e-06 -2.74558e-05)
(7.20762e-06 -3.90956e-06 -2.58027e-05)
(7.53344e-06 -3.72593e-06 -2.43514e-05)
(7.66539e-06 -3.72852e-06 -2.30691e-05)
(7.51392e-06 -3.81503e-06 -2.12442e-05)
(7.05948e-06 -3.91781e-06 -1.74126e-05)
(6.65912e-06 -4.46892e-06 -9.16959e-06)
(2.75025e-06 -4.59808e-06 -2.87802e-05)
(4.27937e-06 -4.14236e-06 -3.00089e-05)
(5.69123e-06 -4.0626e-06 -2.94876e-05)
(6.72724e-06 -3.88995e-06 -2.79523e-05)
(7.36145e-06 -3.69505e-06 -2.62979e-05)
(7.69776e-06 -3.6016e-06 -2.48513e-05)
(7.81626e-06 -3.62983e-06 -2.35804e-05)
(7.66324e-06 -3.76373e-06 -2.18115e-05)
(7.23117e-06 -3.99058e-06 -1.8097e-05)
(6.88417e-06 -4.79982e-06 -1.01691e-05)
(2.6939e-06 -3.68708e-06 -3.02635e-05)
(4.30333e-06 -3.41241e-06 -3.10352e-05)
(5.81428e-06 -3.48067e-06 -3.03424e-05)
(6.96833e-06 -3.46791e-06 -2.86717e-05)
(7.69373e-06 -3.41038e-06 -2.69709e-05)
(8.09276e-06 -3.407e-06 -2.55112e-05)
(8.21735e-06 -3.49793e-06 -2.41449e-05)
(8.04556e-06 -3.70179e-06 -2.23029e-05)
(7.62401e-06 -4.06774e-06 -1.8548e-05)
(7.34313e-06 -5.15169e-06 -1.07421e-05)
(2.97578e-06 -2.60334e-06 -3.2009e-05)
(4.57334e-06 -2.50988e-06 -3.20707e-05)
(6.09823e-06 -2.67574e-06 -3.11731e-05)
(7.33606e-06 -2.79851e-06 -2.92816e-05)
(8.1593e-06 -2.89119e-06 -2.74117e-05)
(8.63103e-06 -3.01731e-06 -2.58287e-05)
(8.78666e-06 -3.22719e-06 -2.43125e-05)
(8.63041e-06 -3.55293e-06 -2.23164e-05)
(8.21948e-06 -4.08293e-06 -1.83859e-05)
(8.01793e-06 -5.426e-06 -1.06008e-05)
(3.78425e-06 -1.19476e-06 -3.3167e-05)
(5.27188e-06 -1.35726e-06 -3.19942e-05)
(6.71833e-06 -1.58551e-06 -3.08221e-05)
(7.94553e-06 -1.81176e-06 -2.86818e-05)
(8.80659e-06 -2.08086e-06 -2.65395e-05)
(9.32791e-06 -2.40257e-06 -2.46824e-05)
(9.53562e-06 -2.81562e-06 -2.28723e-05)
(9.44282e-06 -3.33303e-06 -2.05623e-05)
(9.1188e-06 -4.04851e-06 -1.63805e-05)
(9.13862e-06 -5.56078e-06 -8.71761e-06)
(5.97065e-06 3.57202e-07 -3.60329e-05)
(7.3162e-06 6.47642e-09 -3.19107e-05)
(8.69428e-06 -3.47974e-07 -2.94099e-05)
(9.83286e-06 -7.41776e-07 -2.63658e-05)
(1.06435e-05 -1.25842e-06 -2.34757e-05)
(1.11781e-05 -1.8571e-06 -2.09283e-05)
(1.14704e-05 -2.55595e-06 -1.84736e-05)
(1.15516e-05 -3.34809e-06 -1.5615e-05)
(1.15648e-05 -4.32313e-06 -1.12407e-05)
(1.21748e-05 -5.8986e-06 -3.73093e-06)
(2.41004e-05 -1.39922e-05 -3.73703e-05)
(2.30395e-05 -9.13624e-06 -3.15669e-05)
(2.34722e-05 -6.3974e-06 -2.69362e-05)
(2.39897e-05 -4.52366e-06 -2.10552e-05)
(2.40389e-05 -2.95154e-06 -1.47845e-05)
(2.34994e-05 -1.72547e-06 -8.31064e-06)
(2.22526e-05 -8.26543e-07 -1.27467e-06)
(2.02845e-05 -2.39295e-07 7.13942e-06)
(1.78077e-05 2.35127e-07 1.86389e-05)
(1.60043e-05 -3.63209e-07 4.04727e-05)
(1.75114e-05 -1.15835e-05 -3.76977e-05)
(1.76815e-05 -7.94366e-06 -3.47253e-05)
(1.86636e-05 -6.27978e-06 -3.16411e-05)
(1.95538e-05 -5.02364e-06 -2.7077e-05)
(1.99012e-05 -3.9877e-06 -2.227e-05)
(1.95342e-05 -3.25201e-06 -1.75613e-05)
(1.8377e-05 -2.75329e-06 -1.258e-05)
(1.64682e-05 -2.43015e-06 -6.4261e-06)
(1.39692e-05 -2.14089e-06 2.9284e-06)
(1.17113e-05 -2.60636e-06 2.0646e-05)
(1.41085e-05 -9.79106e-06 -3.92425e-05)
(1.53376e-05 -7.00704e-06 -3.71412e-05)
(1.68808e-05 -5.9676e-06 -3.39741e-05)
(1.80518e-05 -5.17618e-06 -2.94758e-05)
(1.85256e-05 -4.56956e-06 -2.51393e-05)
(1.81505e-05 -4.18347e-06 -2.12118e-05)
(1.69314e-05 -3.93478e-06 -1.72914e-05)
(1.50035e-05 -3.77637e-06 -1.24182e-05)
(1.25397e-05 -3.63372e-06 -4.34933e-06)
(1.02816e-05 -4.34477e-06 1.14341e-05)
(1.20552e-05 -8.36827e-06 -4.01937e-05)
(1.38639e-05 -6.03853e-06 -3.80523e-05)
(1.58688e-05 -5.38868e-06 -3.45481e-05)
(1.73974e-05 -5.00133e-06 -2.99998e-05)
(1.81249e-05 -4.78851e-06 -2.61327e-05)
(1.7737e-05 -4.6962e-06 -2.27561e-05)
(1.635e-05 -4.58755e-06 -1.92882e-05)
(1.43713e-05 -4.57099e-06 -1.51243e-05)
(1.20083e-05 -4.63938e-06 -8.09922e-06)
(9.92168e-06 -5.74665e-06 6.04261e-06)
(1.07388e-05 -7.12115e-06 -4.16612e-05)
(1.28705e-05 -5.19575e-06 -3.9107e-05)
(1.52558e-05 -4.87926e-06 -3.52944e-05)
(1.71534e-05 -4.88111e-06 -3.06593e-05)
(1.81926e-05 -5.0443e-06 -2.72666e-05)
(1.78203e-05 -5.11942e-06 -2.44443e-05)
(1.62653e-05 -5.12952e-06 -2.0842e-05)
(1.423e-05 -5.24495e-06 -1.69031e-05)
(1.19967e-05 -5.5677e-06 -1.05482e-05)
(1.00753e-05 -7.13854e-06 2.39617e-06)
(9.97142e-06 -6.00592e-06 -4.41722e-05)
(1.22844e-05 -4.47292e-06 -4.09665e-05)
(1.4865e-05 -4.43427e-06 -3.68859e-05)
(1.69126e-05 -4.73112e-06 -3.20404e-05)
(1.80101e-05 -5.13049e-06 -2.84065e-05)
(1.77009e-05 -5.43114e-06 -2.559e-05)
(1.62277e-05 -5.59009e-06 -2.22481e-05)
(1.43861e-05 -5.89416e-06 -1.85439e-05)
(1.23793e-05 -6.49164e-06 -1.24747e-05)
(1.06747e-05 -8.51738e-06 -2.23982e-07)
(9.68832e-06 -4.81623e-06 -4.78403e-05)
(1.20803e-05 -3.668e-06 -4.37394e-05)
(1.4674e-05 -3.84023e-06 -3.9445e-05)
(1.66204e-05 -4.31227e-06 -3.43572e-05)
(1.7576e-05 -4.88037e-06 -3.01425e-05)
(1.73804e-05 -5.34131e-06 -2.67914e-05)
(1.63109e-05 -5.81195e-06 -2.37298e-05)
(1.48623e-05 -6.43722e-06 -2.01815e-05)
(1.31828e-05 -7.38118e-06 -1.40114e-05)
(1.17901e-05 -9.90427e-06 -1.96442e-06)
(1.00264e-05 -3.3917e-06 -5.23538e-05)
(1.24258e-05 -2.59222e-06 -4.69305e-05)
(1.49289e-05 -2.89392e-06 -4.25286e-05)
(1.67288e-05 -3.48099e-06 -3.72955e-05)
(1.75911e-05 -4.20379e-06 -3.26194e-05)
(1.75646e-05 -4.95557e-06 -2.87464e-05)
(1.68756e-05 -5.79359e-06 -2.52801e-05)
(1.57958e-05 -6.81158e-06 -2.12898e-05)
(1.44493e-05 -8.15681e-06 -1.45907e-05)
(1.34796e-05 -1.1202e-05 -2.38821e-06)
(1.13909e-05 -1.50877e-06 -5.67989e-05)
(1.35825e-05 -1.09908e-06 -4.90585e-05)
(1.59069e-05 -1.51472e-06 -4.43786e-05)
(1.75743e-05 -2.23077e-06 -3.89084e-05)
(1.84163e-05 -3.1803e-06 -3.37224e-05)
(1.85355e-05 -4.27399e-06 -2.91598e-05)
(1.8118e-05 -5.53995e-06 -2.48619e-05)
(1.73535e-05 -6.99893e-06 -1.99687e-05)
(1.64171e-05 -8.83445e-06 -1.25447e-05)
(1.62125e-05 -1.2501e-05 -1.01001e-07)
(1.56806e-05 8.29213e-07 -6.75512e-05)
(1.72737e-05 9.21673e-07 -5.40345e-05)
(1.94084e-05 1.91887e-07 -4.67997e-05)
(2.09794e-05 -8.41281e-07 -3.95274e-05)
(2.18579e-05 -2.17887e-06 -3.27369e-05)
(2.21709e-05 -3.71596e-06 -2.6583e-05)
(2.20845e-05 -5.47531e-06 -2.07155e-05)
(2.17372e-05 -7.48422e-06 -1.43785e-05)
(2.14108e-05 -1.01201e-05 -6.02748e-06)
(2.24137e-05 -1.46284e-05 7.51451e-06)
(3.98818e-05 -2.67255e-05 -6.42824e-05)
(3.83313e-05 -1.79437e-05 -4.66683e-05)
(3.88535e-05 -1.29865e-05 -3.38981e-05)
(3.95841e-05 -9.59617e-06 -2.01257e-05)
(3.97862e-05 -6.76149e-06 -5.87514e-06)
(3.93165e-05 -4.50413e-06 8.89098e-06)
(3.79265e-05 -2.7438e-06 2.48677e-05)
(3.55141e-05 -1.49506e-06 4.3441e-05)
(3.23096e-05 -5.20491e-07 6.72148e-05)
(3.03413e-05 -1.26336e-06 0.000112515)
(2.80952e-05 -2.34566e-05 -6.007e-05)
(2.81084e-05 -1.65704e-05 -4.80549e-05)
(2.95021e-05 -1.32474e-05 -3.87236e-05)
(3.089e-05 -1.07468e-05 -2.80752e-05)
(3.16687e-05 -8.66198e-06 -1.71983e-05)
(3.15667e-05 -7.0819e-06 -6.34873e-06)
(3.0375e-05 -5.92325e-06 5.1112e-06)
(2.806e-05 -5.19117e-06 1.86449e-05)
(2.47757e-05 -4.75598e-06 3.7105e-05)
(2.18037e-05 -5.54287e-06 7.17573e-05)
(2.21966e-05 -2.10198e-05 -6.14001e-05)
(2.38427e-05 -1.568e-05 -5.11249e-05)
(2.60895e-05 -1.3373e-05 -4.19702e-05)
(2.79832e-05 -1.16038e-05 -3.17031e-05)
(2.91088e-05 -1.02129e-05 -2.19375e-05)
(2.90764e-05 -9.1992e-06 -1.2745e-05)
(2.77676e-05 -8.43654e-06 -3.57914e-06)
(2.53453e-05 -8.01159e-06 7.39367e-06)
(2.19569e-05 -7.87454e-06 2.32843e-05)
(1.87756e-05 -9.1614e-06 5.31317e-05)
(1.8719e-05 -1.89562e-05 -6.33634e-05)
(2.13623e-05 -1.4658e-05 -5.31055e-05)
(2.43806e-05 -1.30712e-05 -4.33646e-05)
(2.69898e-05 -1.20223e-05 -3.2807e-05)
(2.88361e-05 -1.13774e-05 -2.39968e-05)
(2.88299e-05 -1.09073e-05 -1.58875e-05)
(2.69921e-05 -1.02307e-05 -8.04276e-06)
(2.42798e-05 -1.00044e-05 1.36632e-06)
(2.08588e-05 -1.01847e-05 1.51722e-05)
(1.78059e-05 -1.20877e-05 4.12828e-05)
(1.65055e-05 -1.69115e-05 -6.6975e-05)
(1.98374e-05 -1.35404e-05 -5.58738e-05)
(2.35697e-05 -1.25954e-05 -4.54317e-05)
(2.70829e-05 -1.23322e-05 -3.42308e-05)
(3.00043e-05 -1.25926e-05 -2.55166e-05)
(3.00651e-05 -1.23504e-05 -2.03754e-05)
(2.74068e-05 -1.16316e-05 -1.1597e-05)
(2.42167e-05 -1.1516e-05 -2.84475e-06)
(2.08083e-05 -1.20765e-05 9.47121e-06)
(1.79368e-05 -1.47218e-05 3.28899e-05)
(1.53749e-05 -1.48399e-05 -7.28697e-05)
(1.91255e-05 -1.22742e-05 -6.0291e-05)
(2.32266e-05 -1.18233e-05 -4.9212e-05)
(2.70406e-05 -1.20174e-05 -3.75707e-05)
(3.0065e-05 -1.26968e-05 -2.76533e-05)
(3.02337e-05 -1.28068e-05 -2.25019e-05)
(2.76444e-05 -1.24003e-05 -1.49555e-05)
(2.46894e-05 -1.26259e-05 -6.68717e-06)
(2.15459e-05 -1.36537e-05 4.95752e-06)
(1.89771e-05 -1.70788e-05 2.679e-05)
(1.53009e-05 -1.24103e-05 -8.12874e-05)
(1.92409e-05 -1.05805e-05 -6.65727e-05)
(2.33358e-05 -1.04887e-05 -5.489e-05)
(2.67153e-05 -1.08645e-05 -4.29863e-05)
(2.90089e-05 -1.15944e-05 -3.33014e-05)
(2.93324e-05 -1.19667e-05 -2.52088e-05)
(2.78615e-05 -1.24204e-05 -1.83002e-05)
(2.57316e-05 -1.33664e-05 -1.03647e-05)
(2.30996e-05 -1.50036e-05 1.38885e-06)
(2.09946e-05 -1.93138e-05 2.26967e-05)
(1.65343e-05 -9.38561e-06 -9.2104e-05)
(2.04716e-05 -8.21806e-06 -7.4274e-05)
(2.44127e-05 -8.42544e-06 -6.20807e-05)
(2.748e-05 -9.02971e-06 -5.00014e-05)
(2.93544e-05 -9.9302e-06 -3.9403e-05)
(2.98736e-05 -1.09289e-05 -3.02691e-05)
(2.91951e-05 -1.21739e-05 -2.20723e-05)
(2.77032e-05 -1.38517e-05 -1.31408e-05)
(2.55938e-05 -1.6156e-05 -4.98126e-07)
(2.41162e-05 -2.13858e-05 2.11433e-05)
(1.96972e-05 -5.43149e-06 -0.000104748)
(2.32161e-05 -5.01413e-06 -8.1899e-05)
(2.68723e-05 -5.59036e-06 -6.86705e-05)
(2.97389e-05 -6.57498e-06 -5.58105e-05)
(3.15284e-05 -7.9735e-06 -4.39792e-05)
(3.22233e-05 -9.65955e-06 -3.33611e-05)
(3.19591e-05 -1.17115e-05 -2.33531e-05)
(3.0953e-05 -1.41556e-05 -1.26573e-05)
(2.94887e-05 -1.72749e-05 1.30196e-06)
(2.92535e-05 -2.36142e-05 2.38874e-05)
(2.81344e-05 -1.11994e-06 -0.000133874)
(3.06312e-05 -1.12612e-06 -9.87607e-05)
(3.40266e-05 -2.39161e-06 -7.98939e-05)
(3.67733e-05 -4.03752e-06 -6.28608e-05)
(3.86087e-05 -6.18527e-06 -4.73563e-05)
(3.95801e-05 -8.70939e-06 -3.32066e-05)
(3.98268e-05 -1.16792e-05 -1.97512e-05)
(3.94715e-05 -1.51169e-05 -5.81674e-06)
(3.89689e-05 -1.96702e-05 1.07339e-05)
(4.07093e-05 -2.75723e-05 3.70974e-05)
(7.18652e-05 -4.39951e-05 -0.000106983)
(6.87803e-05 -2.92073e-05 -6.93496e-05)
(6.93623e-05 -2.03469e-05 -4.25883e-05)
(7.01388e-05 -1.42192e-05 -1.54961e-05)
(6.98372e-05 -9.17631e-06 1.2144e-05)
(6.81374e-05 -5.15939e-06 4.07576e-05)
(6.47331e-05 -2.04706e-06 7.14053e-05)
(5.95792e-05 4.55387e-08 0.000106203)
(5.29588e-05 1.38959e-06 0.000148893)
(4.82235e-05 1.99756e-07 0.000231049)
(5.1758e-05 -3.73195e-05 -9.5496e-05)
(5.18201e-05 -2.51076e-05 -6.75318e-05)
(5.40851e-05 -1.90391e-05 -4.70205e-05)
(5.59573e-05 -1.46845e-05 -2.58441e-05)
(5.65258e-05 -1.1169e-05 -4.53677e-06)
(5.53278e-05 -8.514e-06 1.68805e-05)
(5.21573e-05 -6.61129e-06 3.93082e-05)
(4.71588e-05 -5.58486e-06 6.47978e-05)
(4.06546e-05 -5.35426e-06 9.6968e-05)
(3.47527e-05 -7.10333e-06 0.000157356)
(4.19695e-05 -3.30578e-05 -9.6511e-05)
(4.45917e-05 -2.29921e-05 -7.14962e-05)
(4.8211e-05 -1.8585e-05 -5.17747e-05)
(5.0902e-05 -1.56005e-05 -3.17608e-05)
(5.20672e-05 -1.34042e-05 -1.27225e-05)
(5.09981e-05 -1.18044e-05 5.70632e-06)
(4.7606e-05 -1.06839e-05 2.41785e-05)
(4.24254e-05 -1.02896e-05 4.55161e-05)
(3.58263e-05 -1.06912e-05 7.34318e-05)
(2.96804e-05 -1.36266e-05 0.000124362)
(3.63593e-05 -2.99295e-05 -0.000100401)
(4.03047e-05 -2.14473e-05 -7.5482e-05)
(4.49999e-05 -1.82156e-05 -5.51372e-05)
(4.88516e-05 -1.64787e-05 -3.48645e-05)
(5.1396e-05 -1.56055e-05 -1.7634e-05)
(5.03958e-05 -1.4936e-05 -1.08161e-06)
(4.59997e-05 -1.40872e-05 1.47728e-05)
(4.03278e-05 -1.41167e-05 3.36195e-05)
(3.36899e-05 -1.50804e-05 5.82395e-05)
(2.77626e-05 -1.91227e-05 0.000102247)
(3.28718e-05 -2.68907e-05 -0.000107872)
(3.7692e-05 -1.99627e-05 -8.14042e-05)
(4.33717e-05 -1.78092e-05 -5.99721e-05)
(4.8754e-05 -1.73722e-05 -3.83785e-05)
(5.34847e-05 -1.80719e-05 -2.02066e-05)
(5.25735e-05 -1.79058e-05 -1.05866e-05)
(4.64455e-05 -1.7036e-05 7.25444e-06)
(3.99378e-05 -1.72881e-05 2.47944e-05)
(3.33756e-05 -1.8837e-05 4.69262e-05)
(2.78274e-05 -2.40475e-05 8.60234e-05)
(3.10845e-05 -2.37137e-05 -0.000119586)
(3.64697e-05 -1.82162e-05 -9.02223e-05)
(4.26165e-05 -1.69294e-05 -6.76173e-05)
(4.83535e-05 -1.72097e-05 -4.5322e-05)
(5.31963e-05 -1.86174e-05 -2.43922e-05)
(5.25271e-05 -1.92676e-05 -1.47661e-05)
(4.65773e-05 -1.89572e-05 1.8738e-07)
(4.05309e-05 -1.97598e-05 1.68991e-05)
(3.45156e-05 -2.20053e-05 3.78138e-05)
(2.95994e-05 -2.84239e-05 7.39644e-05)
(3.0878e-05 -1.99042e-05 -0.000135913)
(3.65731e-05 -1.57634e-05 -0.000102253)
(4.26837e-05 -1.51891e-05 -7.82913e-05)
(4.75128e-05 -1.57839e-05 -5.56296e-05)
(5.06463e-05 -1.72379e-05 -3.69353e-05)
(5.02341e-05 -1.83786e-05 -2.05063e-05)
(4.66154e-05 -1.95636e-05 -6.41183e-06)
(4.21621e-05 -2.15509e-05 9.6783e-06)
(3.71541e-05 -2.47199e-05 3.05475e-05)
(3.31609e-05 -3.25233e-05 6.56214e-05)
(3.25747e-05 -1.52505e-05 -0.000157164)
(3.8396e-05 -1.23216e-05 -0.000117325)
(4.43582e-05 -1.23885e-05 -9.1938e-05)
(4.86466e-05 -1.34429e-05 -6.87535e-05)
(5.08921e-05 -1.51945e-05 -4.84167e-05)
(5.0804e-05 -1.72606e-05 -3.02585e-05)
(4.87257e-05 -1.97271e-05 -1.36328e-05)
(4.5496e-05 -2.28769e-05 3.93709e-06)
(4.15312e-05 -2.7066e-05 2.59517e-05)
(3.87602e-05 -3.63465e-05 6.1596e-05)
(3.71519e-05 -9.32037e-06 -0.000183573)
(4.24682e-05 -7.61045e-06 -0.000134323)
(4.81645e-05 -8.38199e-06 -0.000106503)
(5.22485e-05 -1.01104e-05 -8.14348e-05)
(5.44122e-05 -1.26535e-05 -5.86315e-05)
(5.46976e-05 -1.57442e-05 -3.78352e-05)
(5.34413e-05 -1.94384e-05 -1.81557e-05)
(5.11435e-05 -2.37722e-05 2.13905e-06)
(4.83959e-05 -2.92933e-05 2.61511e-05)
(4.78863e-05 -4.05594e-05 6.39751e-05)
(5.04203e-05 -2.75425e-06 -0.000243849)
(5.40076e-05 -1.63792e-06 -0.000171787)
(5.94516e-05 -3.58548e-06 -0.000133332)
(6.3573e-05 -6.41553e-06 -0.000100196)
(6.60359e-05 -1.01381e-05 -7.03787e-05)
(6.69859e-05 -1.44988e-05 -4.30309e-05)
(6.67563e-05 -1.95829e-05 -1.70751e-05)
(6.56279e-05 -2.5468e-05 9.18447e-06)
(6.44448e-05 -3.34728e-05 3.85739e-05)
(6.71769e-05 -4.77109e-05 8.49365e-05)
(0.00010816 -7.46994e-05 -0.000173851)
(0.000104689 -5.19988e-05 -0.000103125)
(0.000106091 -3.84142e-05 -5.28477e-05)
(0.000107567 -2.88498e-05 -3.59723e-06)
(0.000107313 -2.08365e-05 4.62474e-05)
(0.000104982 -1.42808e-05 9.79265e-05)
(0.000100161 -8.9927e-06 0.000153334)
(9.28138e-05 -5.2735e-06 0.000215837)
(8.33784e-05 -2.92318e-06 0.000291027)
(7.70691e-05 -5.08166e-06 0.000436401)
(7.73749e-05 -6.5549e-05 -0.000151423)
(7.78659e-05 -4.58002e-05 -9.6569e-05)
(8.1925e-05 -3.58157e-05 -5.71419e-05)
(8.53238e-05 -2.87252e-05 -1.84618e-05)
(8.6683e-05 -2.30224e-05 2.01263e-05)
(8.53777e-05 -1.86229e-05 5.91552e-05)
(8.10987e-05 -1.53707e-05 0.000100106)
(7.40256e-05 -1.35916e-05 0.000146008)
(6.45608e-05 -1.33176e-05 0.000201699)
(5.59235e-05 -1.63765e-05 0.000306443)
(6.23435e-05 -5.97519e-05 -0.000153224)
(6.65448e-05 -4.29557e-05 -0.000102857)
(7.26367e-05 -3.52327e-05 -6.52128e-05)
(7.74151e-05 -3.00898e-05 -2.90724e-05)
(7.99194e-05 -2.6406e-05 5.34216e-06)
(7.90179e-05 -2.37089e-05 3.92691e-05)
(7.45342e-05 -2.18065e-05 7.36243e-05)
(6.72208e-05 -2.11954e-05 0.000112775)
(5.74658e-05 -2.20646e-05 0.000161338)
(4.81605e-05 -2.6908e-05 0.00024864)
(5.36061e-05 -5.51133e-05 -0.000161761)
(5.99479e-05 -4.08842e-05 -0.000111416)
(6.76816e-05 -3.4953e-05 -7.3119e-05)
(7.42708e-05 -3.17165e-05 -3.69175e-05)
(7.90119e-05 -3.01692e-05 -5.64031e-06)
(7.83002e-05 -2.88289e-05 2.52774e-05)
(7.22711e-05 -2.73472e-05 5.5092e-05)
(6.41673e-05 -2.74235e-05 9.03368e-05)
(5.42853e-05 -2.91757e-05 0.000133611)
(4.52657e-05 -3.5647e-05 0.000208532)
(4.7962e-05 -5.01797e-05 -0.000176975)
(5.59539e-05 -3.85348e-05 -0.000123796)
(6.52487e-05 -3.43451e-05 -8.37717e-05)
(7.41827e-05 -3.32042e-05 -4.51931e-05)
(8.25384e-05 -3.42882e-05 -1.17349e-05)
(8.20248e-05 -3.37055e-05 6.75087e-06)
(7.31181e-05 -3.19424e-05 4.02578e-05)
(6.36653e-05 -3.2291e-05 7.31089e-05)
(5.38291e-05 -3.4925e-05 0.000112257)
(4.54363e-05 -4.31821e-05 0.000178463)
(4.50109e-05 -4.47162e-05 -0.000199554)
(5.41273e-05 -3.53695e-05 -0.000140975)
(6.41864e-05 -3.25756e-05 -9.87747e-05)
(7.36251e-05 -3.25203e-05 -5.89625e-05)
(8.2165e-05 -3.45479e-05 -2.01181e-05)
(8.2166e-05 -3.53558e-05 -1.60622e-06)
(7.35275e-05 -3.44562e-05 2.64025e-05)
(6.46733e-05 -3.56728e-05 5.79156e-05)
(5.56092e-05 -3.93889e-05 9.49371e-05)
(4.82293e-05 -4.95489e-05 0.000155837)
(4.46318e-05 -3.80387e-05 -0.000230219)
(5.43802e-05 -3.07926e-05 -0.000163507)
(6.44085e-05 -2.91201e-05 -0.000118429)
(7.24758e-05 -2.94895e-05 -7.7753e-05)
(7.81907e-05 -3.13395e-05 -4.37738e-05)
(7.85286e-05 -3.2945e-05 -1.29454e-05)
(7.36739e-05 -3.46239e-05 1.39321e-05)
(6.72601e-05 -3.77638e-05 4.43927e-05)
(5.9686e-05 -4.29094e-05 8.10512e-05)
(5.37217e-05 -5.52565e-05 0.000139842)
(4.72718e-05 -2.99152e-05 -0.000270112)
(5.72144e-05 -2.45097e-05 -0.000191826)
(6.70171e-05 -2.38796e-05 -0.000143464)
(7.4294e-05 -2.50146e-05 -0.000101294)
(7.8617e-05 -2.73996e-05 -6.43323e-05)
(7.94127e-05 -3.04143e-05 -3.06451e-05)
(7.69724e-05 -3.41753e-05 6.857e-07)
(7.24291e-05 -3.91239e-05 3.33079e-05)
(6.63848e-05 -4.57984e-05 7.14342e-05)
(6.22093e-05 -6.03846e-05 0.000131028)
(5.41926e-05 -1.98087e-05 -0.000320992)
(6.32736e-05 -1.62616e-05 -0.000225706)
(7.26382e-05 -1.6816e-05 -0.000172312)
(7.96551e-05 -1.90972e-05 -0.000126123)
(8.38904e-05 -2.28118e-05 -8.44709e-05)
(8.52674e-05 -2.75e-05 -4.62093e-05)
(8.41044e-05 -3.32217e-05 -9.84938e-06)
(8.09908e-05 -3.99997e-05 2.70129e-05)
(7.67703e-05 -4.86366e-05 6.82233e-05)
(7.59662e-05 -6.60335e-05 0.000131817)
(7.38737e-05 -9.47934e-06 -0.000435979)
(8.04525e-05 -6.62802e-06 -0.00029955)
(8.94888e-05 -9.00958e-06 -0.000226759)
(9.66339e-05 -1.30096e-05 -0.000165685)
(0.000101368 -1.85676e-05 -0.000111265)
(0.000103773 -2.52708e-05 -6.13681e-05)
(0.000104206 -3.32184e-05 -1.40219e-05)
(0.000102933 -4.24416e-05 3.33602e-05)
(0.000101205 -5.47977e-05 8.46669e-05)
(0.000105259 -7.63403e-05 0.000164374)
(0.00016247 -0.000114436 -0.000268955)
(0.000156422 -8.11362e-05 -0.000151915)
(0.000157871 -6.09933e-05 -6.75501e-05)
(0.000159104 -4.67914e-05 1.41278e-05)
(0.000157509 -3.49022e-05 9.67182e-05)
(0.000152712 -2.52058e-05 0.000182631)
(0.000144277 -1.7544e-05 0.000274832)
(0.000132341 -1.24828e-05 0.000378351)
(0.000117612 -9.91356e-06 0.000501398)
(0.000107645 -1.46584e-05 0.000740725)
(0.000118541 -0.000100993 -0.000235788)
(0.000118815 -7.2217e-05 -0.000142329)
(0.00012433 -5.74743e-05 -7.46244e-05)
(0.00012845 -4.68345e-05 -9.60008e-06)
(0.000129266 -3.8181e-05 5.50882e-05)
(0.00012598 -3.14426e-05 0.000120791)
(0.00011833 -2.6521e-05 0.000189699)
(0.000106803 -2.40285e-05 0.000266085)
(9.21752e-05 -2.415e-05 0.000356339)
(7.92686e-05 -2.9783e-05 0.000526803)
(9.66682e-05 -9.30491e-05 -0.000241371)
(0.000102597 -6.84194e-05 -0.000153706)
(0.000111284 -5.69499e-05 -8.88256e-05)
(0.000117613 -4.91686e-05 -2.80911e-05)
(0.000120285 -4.34714e-05 2.98714e-05)
(0.000117706 -3.91776e-05 8.76026e-05)
(0.000109809 -3.61648e-05 0.000146295)
(9.79546e-05 -3.52868e-05 0.000212373)
(8.28979e-05 -3.6933e-05 0.0002915)
(6.90388e-05 -4.50064e-05 0.000432712)
(8.36298e-05 -8.66244e-05 -0.0002583)
(9.27225e-05 -6.54687e-05 -0.000169979)
(0.000103923 -5.65635e-05 -0.000104269)
(0.000113111 -5.16634e-05 -4.37344e-05)
(0.000119337 -4.92596e-05 9.21355e-06)
(0.000117158 -4.69692e-05 6.2356e-05)
(0.000107026 -4.46177e-05 0.000113894)