/*--------------------------------*- C++ -*----------------------------------*\
| =========                 |                                                 |
| \\      /  F ield         | OpenFOAM: The Open Source CFD Toolbox           |
|  \\    /   O peration     | Version:  2406                                  |
|   \\  /    A nd           | Website:  www.openfoam.com                      |
|    \\/     M anipulation  |                                                 |
\*---------------------------------------------------------------------------*/
FoamFile
{
    version     2.0;
    format      ascii;
    arch        "LSB;label=32;scalar=64";
    class       surfaceScalarField;
    location    "1.5";
    object      phi;
}
// * * * * * * * * * * * * * * * * * * * * * * * * * * * * * * * * * * * * * //

dimensions      [0 3 -1 0 0 0 0];

oriented        oriented;

internalField   nonuniform List<scalar> 
73500
(
4.64638e-05
4.64638e-05
5.7055e-05
-5.14904e-05
-5.14904e-05
3.76967e-05
4.71304e-05
6.4902e-05
-5.23269e-05
2.65017e-05
4.75019e-05
7.06874e-05
-5.30513e-05
1.36506e-05
4.76219e-05
7.45177e-05
-5.33174e-05
3.03969e-11
4.76558e-05
7.64234e-05
-5.34357e-05
-1.36506e-05
4.76558e-05
7.64234e-05
-5.34357e-05
-2.65016e-05
4.76219e-05
7.45177e-05
-5.33174e-05
-3.76966e-05
4.75019e-05
7.06874e-05
-5.30513e-05
-4.64637e-05
4.71304e-05
6.4902e-05
-5.23269e-05
4.64638e-05
5.70551e-05
-5.14903e-05
-5.14904e-05
4.71304e-05
3.76966e-05
6.4902e-05
-5.23269e-05
3.80026e-05
3.80025e-05
7.284e-05
2.65049e-05
3.80946e-05
7.8274e-05
1.35836e-05
3.80736e-05
8.17192e-05
2.87554e-11
3.80404e-05
8.33962e-05
-1.35836e-05
3.80404e-05
8.33962e-05
-2.65048e-05
3.80736e-05
8.17192e-05
-3.80025e-05
3.80946e-05
7.8274e-05
-4.71304e-05
3.80025e-05
7.284e-05
3.76966e-05
6.4902e-05
-5.23269e-05
4.75019e-05
2.65016e-05
7.06874e-05
-5.30513e-05
3.80947e-05
2.65048e-05
7.8274e-05
2.64303e-05
2.64302e-05
8.33162e-05
1.3498e-05
2.63344e-05
8.64277e-05
2.77547e-11
2.6272e-05
8.79142e-05
-1.3498e-05
2.6272e-05
8.79142e-05
-2.64302e-05
2.63344e-05
8.64277e-05
-3.80946e-05
2.64302e-05
8.33162e-05
-4.75019e-05
2.65048e-05
7.8274e-05
2.65016e-05
7.06874e-05
-5.30513e-05
4.7622e-05
1.36506e-05
7.45177e-05
-5.33174e-05
3.80736e-05
1.35836e-05
8.17192e-05
2.63344e-05
1.3498e-05
8.64277e-05
1.34197e-05
1.34197e-05
8.92796e-05
2.7231e-11
1.33736e-05
9.06222e-05
-1.34197e-05
1.33736e-05
9.06222e-05
-2.63344e-05
1.34197e-05
8.92796e-05
-3.80736e-05
1.3498e-05
8.64277e-05
-4.76219e-05
1.35836e-05
8.17192e-05
1.36506e-05
7.45177e-05
-5.33174e-05
4.76558e-05
-1.4861e-11
7.64234e-05
-5.34357e-05
3.80404e-05
-1.49618e-11
8.33962e-05
2.6272e-05
-1.52189e-11
8.79142e-05
1.33737e-05
-1.54026e-11
9.06222e-05
2.69973e-11
-1.54482e-11
9.18866e-05
-1.33736e-05
-1.54284e-11
9.18866e-05
-2.62719e-05
-1.53837e-11
9.06222e-05
-3.80404e-05
-1.52959e-11
8.79142e-05
-4.76558e-05
-1.5218e-11
8.33962e-05
-1.54562e-11
7.64234e-05
-5.34357e-05
4.76558e-05
-1.36506e-05
7.64234e-05
-5.34357e-05
3.80404e-05
-1.35836e-05
8.33962e-05
2.6272e-05
-1.3498e-05
8.79142e-05
1.33737e-05
-1.34197e-05
9.06222e-05
2.70072e-11
-1.33737e-05
9.18866e-05
-1.33736e-05
-1.33737e-05
9.18866e-05
-2.62719e-05
-1.34197e-05
9.06222e-05
-3.80404e-05
-1.3498e-05
8.79142e-05
-4.76558e-05
-1.35836e-05
8.33962e-05
-1.36506e-05
7.64234e-05
-5.34357e-05
4.7622e-05
-2.65017e-05
7.45177e-05
-5.33174e-05
3.80736e-05
-2.65049e-05
8.17192e-05
2.63344e-05
-2.64302e-05
8.64277e-05
1.34197e-05
-2.63344e-05
8.92796e-05
2.72711e-11
-2.6272e-05
9.06222e-05
-1.34197e-05
-2.6272e-05
9.06222e-05
-2.63344e-05
-2.63344e-05
8.92796e-05
-3.80736e-05
-2.64302e-05
8.64277e-05
-4.76219e-05
-2.65048e-05
8.17192e-05
-2.65017e-05
7.45177e-05
-5.33174e-05
4.75019e-05
-3.76966e-05
7.06874e-05
-5.30513e-05
3.80947e-05
-3.80025e-05
7.8274e-05
2.64303e-05
-3.80947e-05
8.33162e-05
1.3498e-05
-3.80736e-05
8.64277e-05
2.7848e-11
-3.80404e-05
8.79142e-05
-1.3498e-05
-3.80404e-05
8.79142e-05
-2.64302e-05
-3.80736e-05
8.64277e-05
-3.80946e-05
-3.80947e-05
8.33162e-05
-4.75019e-05
-3.80025e-05
7.8274e-05
-3.76966e-05
7.06874e-05
-5.30513e-05
4.71304e-05
-4.64638e-05
6.4902e-05
-5.23269e-05
3.80026e-05
-4.71304e-05
7.284e-05
2.65049e-05
-4.75019e-05
7.8274e-05
1.35836e-05
-4.76219e-05
8.17192e-05
2.88245e-11
-4.76558e-05
8.33962e-05
-1.35836e-05
-4.76558e-05
8.33962e-05
-2.65048e-05
-4.76219e-05
8.17192e-05
-3.80025e-05
-4.75019e-05
7.8274e-05
-4.71304e-05
-4.71304e-05
7.284e-05
-4.64638e-05
6.4902e-05
-5.23269e-05
4.64638e-05
5.7055e-05
-5.14904e-05
-5.14904e-05
3.76967e-05
6.4902e-05
-5.23269e-05
2.65017e-05
7.06874e-05
-5.30513e-05
1.36506e-05
7.45177e-05
-5.33174e-05
3.05838e-11
7.64234e-05
-5.34357e-05
-1.36506e-05
7.64234e-05
-5.34357e-05
-2.65016e-05
7.45177e-05
-5.33174e-05
-3.76966e-05
7.06874e-05
-5.30513e-05
-4.64637e-05
6.4902e-05
-5.23269e-05
5.7055e-05
-5.14903e-05
-5.14904e-05
1.74556e-05
1.74555e-05
5.59098e-05
-1.6883e-05
-1.68828e-05
1.56111e-05
1.9512e-05
6.58054e-05
-1.85709e-05
1.16372e-05
2.09099e-05
7.35987e-05
-1.98472e-05
6.20103e-06
2.18255e-05
7.89052e-05
-2.07768e-05
1.34165e-10
2.22682e-05
8.15788e-05
-2.12227e-05
-6.20077e-06
2.22682e-05
8.15788e-05
-2.12227e-05
-1.16369e-05
2.18255e-05
7.89052e-05
-2.07768e-05
-1.56109e-05
2.09099e-05
7.35987e-05
-1.98472e-05
-1.74554e-05
1.9512e-05
6.58054e-05
-1.85709e-05
1.74555e-05
5.59098e-05
-1.68828e-05
-1.68829e-05
1.95121e-05
1.5611e-05
6.58054e-05
-1.85709e-05
1.74858e-05
1.74857e-05
7.68926e-05
1.30086e-05
1.87071e-05
8.4954e-05
6.90939e-06
1.94674e-05
9.01764e-05
1.22808e-10
1.98341e-05
9.27395e-05
-6.90915e-06
1.98341e-05
9.27395e-05
-1.30083e-05
1.94674e-05
9.01764e-05
-1.74856e-05
1.87071e-05
8.4954e-05
-1.9512e-05
1.74857e-05
7.68926e-05
1.5611e-05
6.58054e-05
-1.85708e-05
2.091e-05
1.1637e-05
7.35987e-05
-1.98473e-05
1.87073e-05
1.30084e-05
8.4954e-05
1.38917e-05
1.38916e-05
9.29472e-05
7.36664e-06
1.44292e-05
9.7991e-05
1.14903e-10
1.46899e-05
0.000100425
-7.36641e-06
1.46899e-05
0.000100425
-1.38915e-05
1.44292e-05
9.7991e-05
-1.87071e-05
1.38916e-05
9.29473e-05
-2.09098e-05
1.30084e-05
8.4954e-05
1.1637e-05
7.35987e-05
-1.98472e-05
2.18256e-05
6.20084e-06
7.89052e-05
-2.07769e-05
1.94676e-05
6.90922e-06
9.01764e-05
1.44294e-05
7.36647e-06
9.7991e-05
7.64227e-06
7.64212e-06
0.000102854
1.09877e-10
7.77648e-06
0.000105178
-7.64206e-06
7.77648e-06
0.000105178
-1.44292e-05
7.64212e-06
0.000102854
-1.94674e-05
7.36647e-06
9.7991e-05
-2.18254e-05
6.90922e-06
9.01764e-05
6.20084e-06
7.89052e-05
-2.07768e-05
2.22683e-05
-5.90048e-11
8.15788e-05
-2.12228e-05
1.98342e-05
-5.48392e-11
9.27395e-05
1.46901e-05
-5.22387e-11
0.000100425
7.77664e-06
-5.07453e-11
0.000105178
1.07394e-10
-5.00848e-11
0.00010744
-7.77643e-06
-5.02078e-11
0.00010744
-1.46899e-05
-5.11512e-11
0.000105178
-1.98341e-05
-5.29907e-11
0.000100425
-2.22681e-05
-5.59341e-11
9.27395e-05
-6.05645e-11
8.15789e-05
-2.12226e-05
2.22683e-05
-6.20095e-06
8.15788e-05
-2.12228e-05
1.98342e-05
-6.90932e-06
9.27395e-05
1.46901e-05
-7.36657e-06
0.000100425
7.77664e-06
-7.64222e-06
0.000105178
1.07281e-10
-7.77658e-06
0.00010744
-7.77643e-06
-7.77658e-06
0.00010744
-1.46899e-05
-7.64222e-06
0.000105178
-1.98341e-05
-7.36658e-06
0.000100425
-2.22681e-05
-6.90933e-06
9.27395e-05
-6.20096e-06
8.15789e-05
-2.12226e-05
2.18256e-05
-1.16371e-05
7.89052e-05
-2.07769e-05
1.94676e-05
-1.30085e-05
9.01764e-05
1.44294e-05
-1.38917e-05
9.7991e-05
7.64227e-06
-1.44293e-05
0.000102854
1.09548e-10
-1.469e-05
0.000105178
-7.64206e-06
-1.469e-05
0.000105178
-1.44292e-05
-1.44293e-05
0.000102854
-1.94674e-05
-1.38917e-05
9.7991e-05
-2.18254e-05
-1.30085e-05
9.01764e-05
-1.16371e-05
7.89052e-05
-2.07768e-05
2.091e-05
-1.5611e-05
7.35987e-05
-1.98473e-05
1.87073e-05
-1.74858e-05
8.4954e-05
1.38917e-05
-1.87072e-05
9.29472e-05
7.36664e-06
-1.94675e-05
9.7991e-05
1.14395e-10
-1.98342e-05
0.000100425
-7.36641e-06
-1.98342e-05
0.000100425
-1.38915e-05
-1.94675e-05
9.7991e-05
-1.87071e-05
-1.87072e-05
9.29473e-05
-2.09098e-05
-1.74858e-05
8.4954e-05
-1.56111e-05
7.35987e-05
-1.98472e-05
1.95121e-05
-1.74555e-05
6.58053e-05
-1.85709e-05
1.74858e-05
-1.95121e-05
7.68926e-05
1.30086e-05
-2.09099e-05
8.4954e-05
6.90939e-06
-2.18255e-05
9.01764e-05
1.2208e-10
-2.22682e-05
9.27395e-05
-6.90915e-06
-2.22682e-05
9.27395e-05
-1.30083e-05
-2.18255e-05
9.01764e-05
-1.74856e-05
-2.09099e-05
8.4954e-05
-1.9512e-05
-1.95121e-05
7.68926e-05
-1.74556e-05
6.58054e-05
-1.85708e-05
1.74556e-05
5.59097e-05
-1.68829e-05
-1.68829e-05
1.56111e-05
6.58053e-05
-1.85709e-05
1.16372e-05
7.35987e-05
-1.98472e-05
6.20103e-06
7.89052e-05
-2.07768e-05
1.33429e-10
8.15788e-05
-2.12227e-05
-6.20077e-06
8.15788e-05
-2.12227e-05
-1.16369e-05
7.89052e-05
-2.07768e-05
-1.56109e-05
7.35987e-05
-1.98472e-05
-1.74554e-05
6.58054e-05
-1.85709e-05
5.59098e-05
-1.68828e-05
-1.68829e-05
9.76159e-06
9.76126e-06
5.42209e-05
-8.91711e-06
-8.91687e-06
8.99703e-06
1.14976e-05
6.53703e-05
-1.02981e-05
6.88533e-06
1.276e-05
7.43729e-05
-1.14224e-05
3.73013e-06
1.36068e-05
8.06636e-05
-1.221e-05
3.09937e-10
1.40279e-05
8.38838e-05
-1.2603e-05
-3.72953e-06
1.40279e-05
8.38838e-05
-1.2603e-05
-6.88477e-06
1.36068e-05
8.06637e-05
-1.221e-05
-8.99654e-06
1.276e-05
7.4373e-05
-1.14225e-05
-9.76119e-06
1.14977e-05
6.53705e-05
-1.02981e-05
9.76132e-06
5.42211e-05
-8.91683e-06
-8.91692e-06
1.14979e-05
8.99664e-06
6.53703e-05
-1.02983e-05
1.06873e-05
1.06869e-05
7.8514e-05
8.17738e-06
1.18596e-05
8.83642e-05
4.41919e-06
1.26114e-05
9.493e-05
2.79176e-10
1.29797e-05
9.82066e-05
-4.41864e-06
1.29797e-05
9.82067e-05
-8.17687e-06
1.26114e-05
9.493e-05
-1.06868e-05
1.18596e-05
8.83643e-05
-1.14976e-05
1.06869e-05
7.85142e-05
8.99669e-06
6.53705e-05
-1.0298e-05
1.27602e-05
6.8849e-06
7.43728e-05
-1.14226e-05
1.18599e-05
8.177e-06
8.83642e-05
9.05818e-06
9.05783e-06
9.85508e-05
4.88536e-06
9.60598e-06
0.000105169
2.57591e-10
9.87004e-06
0.00010842
-4.88485e-06
9.87004e-06
0.00010842
-9.05771e-06
9.60598e-06
0.000105169
-1.18595e-05
9.05783e-06
9.85509e-05
-1.27599e-05
8.17701e-06
8.83643e-05
6.88493e-06
7.4373e-05
-1.14224e-05
1.3607e-05
3.72968e-06
8.06635e-05
-1.22102e-05
1.26117e-05
4.41878e-06
9.49299e-05
9.60631e-06
4.88499e-06
0.000105169
5.16957e-06
5.16922e-06
0.000111727
2.43925e-10
5.3028e-06
0.000114914
-5.16909e-06
5.3028e-06
0.000114914
-9.60586e-06
5.16922e-06
0.000111727
-1.26113e-05
4.88499e-06
0.000105169
-1.36067e-05
4.41879e-06
9.49301e-05
3.7297e-06
8.06637e-05
-1.22099e-05
1.40281e-05
-1.36792e-10
8.38837e-05
-1.26032e-05
1.298e-05
-1.25857e-10
9.82066e-05
9.87036e-06
-1.1843e-10
0.00010842
5.30314e-06
-1.13764e-10
0.000114914
2.37113e-10
-1.11486e-10
0.000118045
-5.30268e-06
-1.11697e-10
0.000118045
-9.86992e-06
-1.14459e-10
0.000114914
-1.29796e-05
-1.19777e-10
0.00010842
-1.40278e-05
-1.28e-10
9.82067e-05
-1.39882e-10
8.38839e-05
-1.2603e-05
1.40281e-05
-3.72995e-06
8.38837e-05
-1.26032e-05
1.298e-05
-4.41903e-06
9.82066e-05
9.87036e-06
-4.88522e-06
0.00010842
5.30314e-06
-5.16944e-06
0.000114914
2.36942e-10
-5.30302e-06
0.000118045
-5.30268e-06
-5.30302e-06
0.000118045
-9.86992e-06
-5.16945e-06
0.000114914
-1.29796e-05
-4.88522e-06
0.00010842
-1.40278e-05
-4.41904e-06
9.82067e-05
-3.72997e-06
8.38838e-05
-1.2603e-05
1.3607e-05
-6.88515e-06
8.06635e-05
-1.22102e-05
1.26117e-05
-8.17723e-06
9.49299e-05
9.60631e-06
-9.05805e-06
0.000105169
5.16957e-06
-9.60619e-06
0.000111727
2.43371e-10
-9.87024e-06
0.000114914
-5.16909e-06
-9.87024e-06
0.000114914
-9.60586e-06
-9.6062e-06
0.000111727
-1.26113e-05
-9.05805e-06
0.000105169
-1.36067e-05
-8.17725e-06
9.493e-05
-6.88518e-06
8.06637e-05
-1.22099e-05
1.27602e-05
-8.99686e-06
7.43728e-05
-1.14226e-05
1.18599e-05
-1.06871e-05
8.83641e-05
9.05817e-06
-1.18598e-05
9.85507e-05
4.88535e-06
-1.26116e-05
0.000105169
2.56502e-10
-1.29799e-05
0.00010842
-4.88485e-06
-1.29799e-05
0.00010842
-9.0577e-06
-1.26116e-05
0.000105169
-1.18595e-05
-1.18598e-05
9.85508e-05
-1.27599e-05
-1.06871e-05
8.83643e-05
-8.99691e-06
7.4373e-05
-1.14224e-05
1.14979e-05
-9.76144e-06
6.53703e-05
-1.02983e-05
1.06872e-05
-1.14978e-05
7.8514e-05
8.17737e-06
-1.27601e-05
8.83641e-05
4.41918e-06
-1.36069e-05
9.49299e-05
2.77215e-10
-1.40281e-05
9.82066e-05
-4.41864e-06
-1.40281e-05
9.82066e-05
-8.17686e-06
-1.36069e-05
9.493e-05
-1.06868e-05
-1.27601e-05
8.83642e-05
-1.14976e-05
-1.14979e-05
7.85141e-05
-9.76149e-06
6.53704e-05
-1.0298e-05
9.76156e-06
5.42208e-05
-8.91699e-06
-8.91708e-06
8.99701e-06
6.53703e-05
-1.02982e-05
6.88531e-06
7.43728e-05
-1.14226e-05
3.73012e-06
8.06635e-05
-1.22101e-05
3.07215e-10
8.38837e-05
-1.26031e-05
-3.72952e-06
8.38837e-05
-1.26031e-05
-6.88475e-06
8.06636e-05
-1.22101e-05
-8.99652e-06
7.43729e-05
-1.14226e-05
-9.76117e-06
6.53704e-05
-1.02982e-05
5.4221e-05
-8.91681e-06
-8.91704e-06
2.27416e-06
2.27348e-06
5.31029e-05
-1.71507e-06
-1.71458e-06
2.42083e-06
3.04687e-06
6.43622e-05
-2.18537e-06
2.02178e-06
3.69601e-06
7.37104e-05
-2.6345e-06
1.14903e-06
4.16035e-06
8.0354e-05
-2.97799e-06
6.37946e-10
4.39761e-06
8.37911e-05
-3.15658e-06
-1.14779e-06
4.39762e-06
8.37912e-05
-3.15659e-06
-2.02062e-06
4.16038e-06
8.03541e-05
-2.97802e-06
-2.41982e-06
3.69606e-06
7.37107e-05
-2.63455e-06
-2.27335e-06
3.04696e-06
6.43625e-05
-2.18546e-06
2.27361e-06
5.31033e-05
-1.7145e-06
-1.71469e-06
3.04747e-06
2.42002e-06
6.43621e-05
-2.18582e-06
3.29329e-06
3.29258e-06
7.80225e-05
2.75039e-06
3.98026e-06
8.86228e-05
1.55604e-06
4.44317e-06
9.58415e-05
5.6911e-10
4.66936e-06
9.94903e-05
-1.55492e-06
4.66937e-06
9.94904e-05
-2.74935e-06
4.44318e-06
9.58417e-05
-3.29238e-06
3.9803e-06
8.86231e-05
-3.04672e-06
3.29265e-06
7.80228e-05
2.42013e-06
6.43625e-05
-2.18529e-06
3.69654e-06
2.02089e-06
7.37103e-05
-2.63489e-06
3.98089e-06
2.74961e-06
8.86228e-05
3.30565e-06
3.30494e-06
9.99013e-05
1.8594e-06
3.65913e-06
0.000107399
5.20848e-10
3.81939e-06
0.000111129
-1.85838e-06
3.81939e-06
0.000111129
-3.30469e-06
3.65914e-06
0.0001074
-3.98005e-06
3.30496e-06
9.99016e-05
-3.69585e-06
2.74965e-06
8.86231e-05
2.02097e-06
7.37107e-05
-2.6344e-06
4.16084e-06
1.14811e-06
8.03538e-05
-2.97835e-06
4.44375e-06
1.55522e-06
9.58414e-05
3.65979e-06
1.85865e-06
0.000107399
2.04382e-06
2.04312e-06
0.000114959
4.9069e-10
2.11605e-06
0.000118661
-2.04286e-06
2.11605e-06
0.000118661
-3.65889e-06
2.04312e-06
0.000114959
-4.44296e-06
1.85866e-06
0.0001074
-4.1602e-06
1.55524e-06
9.58417e-05
1.14815e-06
8.03542e-05
-2.97789e-06
4.39807e-06
-2.74104e-10
8.37909e-05
-3.15691e-06
4.66993e-06
-2.47041e-10
9.94902e-05
3.82002e-06
-2.28553e-10
0.000111128
2.11673e-06
-2.17441e-10
0.000118661
4.7571e-10
-2.12281e-10
0.000122278
-2.11579e-06
-2.12986e-10
0.000122278
-3.81915e-06
-2.19642e-10
0.000118661
-4.66915e-06
-2.32427e-10
0.000111129
-4.39744e-06
-2.5262e-10
9.94905e-05
-2.81546e-10
8.37913e-05
-3.15646e-06
4.39807e-06
-1.14865e-06
8.37909e-05
-3.15691e-06
4.66992e-06
-1.5557e-06
9.94902e-05
3.82002e-06
-1.8591e-06
0.000111128
2.11673e-06
-2.04355e-06
0.000118661
4.75108e-10
-2.11647e-06
0.000122278
-2.11579e-06
-2.11647e-06
0.000122278
-3.81915e-06
-2.04355e-06
0.000118661
-4.66915e-06
-1.85912e-06
0.000111129
-4.39744e-06
-1.55573e-06
9.94904e-05
-1.1487e-06
8.37913e-05
-3.15645e-06
4.16083e-06
-2.02139e-06
8.03538e-05
-2.97834e-06
4.44374e-06
-2.75006e-06
9.58414e-05
3.65978e-06
-3.30536e-06
0.000107399
2.04381e-06
-3.65953e-06
0.000114959
4.88801e-10
-3.81978e-06
0.000118661
-2.04286e-06
-3.81978e-06
0.000118661
-3.65888e-06
-3.65954e-06
0.000114959
-4.44295e-06
-3.30539e-06
0.0001074
-4.16019e-06
-2.75011e-06
9.58416e-05
-2.02148e-06
8.03541e-05
-2.97787e-06
3.69651e-06
-2.42046e-06
7.37102e-05
-2.63486e-06
3.98087e-06
-3.29298e-06
8.86227e-05
3.30563e-06
-3.98063e-06
9.99012e-05
1.85939e-06
-4.44352e-06
0.000107399
5.17472e-10
-4.66971e-06
0.000111128
-1.85837e-06
-4.66971e-06
0.000111129
-3.30468e-06
-4.44354e-06
0.0001074
-3.98004e-06
-3.98067e-06
9.99015e-05
-3.69583e-06
-3.29305e-06
8.8623e-05
-2.42057e-06
7.37106e-05
-2.63438e-06
3.04743e-06
-2.27383e-06
6.4362e-05
-2.18578e-06
3.29326e-06
-3.0472e-06
7.80223e-05
2.75037e-06
-3.69631e-06
8.86227e-05
1.55602e-06
-4.16064e-06
9.58414e-05
5.63849e-10
-4.39789e-06
9.94902e-05
-1.55492e-06
-4.3979e-06
9.94903e-05
-2.74934e-06
-4.16067e-06
9.58415e-05
-3.29235e-06
-3.69636e-06
8.86229e-05
-3.04669e-06
-3.04729e-06
7.80227e-05
-2.27397e-06
6.43624e-05
-2.18525e-06
2.2741e-06
5.31027e-05
-1.71482e-06
-1.71502e-06
2.42077e-06
6.4362e-05
-2.1856e-06
2.02174e-06
7.37102e-05
-2.63471e-06
1.14901e-06
8.03538e-05
-2.9782e-06
6.30801e-10
8.3791e-05
-3.15678e-06
-1.14778e-06
8.3791e-05
-3.15679e-06
-2.02059e-06
8.0354e-05
-2.97823e-06
-2.41978e-06
7.37105e-05
-2.63476e-06
-2.27329e-06
6.43623e-05
-2.1857e-06
5.31031e-05
-1.71445e-06
-1.71494e-06
1.80957e-06
1.80832e-06
5.26893e-05
-1.6026e-06
-1.60169e-06
1.72162e-06
2.20827e-06
6.41342e-05
-1.89239e-06
1.35734e-06
2.53397e-06
7.36828e-05
-2.14205e-06
7.49928e-07
2.76443e-06
8.05167e-05
-2.31971e-06
1.17714e-09
2.88076e-06
8.40693e-05
-2.41021e-06
-7.47631e-07
2.88077e-06
8.40695e-05
-2.41023e-06
-1.35521e-06
2.76448e-06
8.0517e-05
-2.31976e-06
-1.71976e-06
2.53406e-06
7.36833e-05
-2.14215e-06
-1.80807e-06
2.20843e-06
6.41349e-05
-1.89255e-06
1.80856e-06
5.26901e-05
-1.60154e-06
-1.6019e-06
2.20938e-06
1.72013e-06
6.41341e-05
-1.89322e-06
2.15042e-06
2.14911e-06
7.81406e-05
1.71131e-06
2.49205e-06
8.91039e-05
9.47208e-07
2.72471e-06
9.66453e-05
1.04814e-09
2.83504e-06
0.000100482
-9.45158e-07
2.83505e-06
0.000100482
-1.7094e-06
2.72475e-06
9.66456e-05
-2.14873e-06
2.49212e-06
8.91044e-05
-2.208e-06
2.14923e-06
7.81413e-05
1.72033e-06
6.4135e-05
-1.89223e-06
2.53495e-06
1.3557e-06
7.36826e-05
-2.14277e-06
2.49322e-06
1.70986e-06
8.91038e-05
1.98929e-06
1.98799e-06
0.000100909
1.09847e-06
2.1655e-06
0.000108849
9.54412e-10
2.23689e-06
0.000112824
-1.0966e-06
2.23689e-06
0.000112824
-1.98754e-06
2.16551e-06
0.00010885
-2.49168e-06
1.98803e-06
0.00010091
-2.53369e-06
1.70995e-06
8.91044e-05
1.35584e-06
7.36834e-05
-2.14188e-06
2.76533e-06
7.48221e-07
8.05163e-05
-2.32036e-06
2.72579e-06
9.45699e-07
9.66451e-05
2.1667e-06
1.09711e-06
0.000108849
1.18809e-06
1.18681e-06
0.000116917
8.95119e-10
1.21059e-06
0.000120875
-1.18634e-06
1.21059e-06
0.000120875
-2.16506e-06
1.18682e-06
0.000116917
-2.72434e-06
1.09712e-06
0.00010885
-2.76415e-06
9.45735e-07
9.66457e-05
7.4829e-07
8.05171e-05
-2.31952e-06
2.8816e-06
-5.12595e-10
8.40689e-05
-2.41082e-06
2.83607e-06
-4.61596e-10
0.000100482
2.23805e-06
-4.25423e-10
0.000112824
1.21183e-06
-4.03143e-10
0.000120874
8.65864e-10
-3.92672e-10
0.0001247
-1.21012e-06
-3.93818e-10
0.0001247
-2.23646e-06
-4.06763e-10
0.000120875
-2.83467e-06
-4.31796e-10
0.000112824
-2.88046e-06
-4.70622e-10
0.000100482
-5.23881e-10
8.40696e-05
-2.41e-06
2.88159e-06
-7.49221e-07
8.40688e-05
-2.41081e-06
2.83607e-06
-9.46602e-07
0.000100482
2.23805e-06
-1.09794e-06
0.000112824
1.21182e-06
-1.1876e-06
0.000120874
8.65019e-10
-1.21136e-06
0.0001247
-1.21012e-06
-1.21136e-06
0.0001247
-2.23646e-06
-1.18761e-06
0.000120875
-2.83466e-06
-1.09797e-06
0.000112824
-2.88045e-06
-9.46655e-07
0.000100482
-7.49312e-07
8.40696e-05
-2.40999e-06
2.7653e-06
-1.35662e-06
8.05162e-05
-2.32034e-06
2.72577e-06
-1.71071e-06
9.6645e-05
2.16669e-06
-1.98877e-06
0.000108849
1.18809e-06
-2.16624e-06
0.000116917
8.92393e-10
-2.23761e-06
0.000120874
-1.18634e-06
-2.23762e-06
0.000120874
-2.16505e-06
-2.16626e-06
0.000116917
-2.72433e-06
-1.98882e-06
0.00010885
-2.76413e-06
-1.7108e-06
9.66456e-05
-1.35679e-06
8.0517e-05
-2.31949e-06
2.5349e-06
-1.72094e-06
7.36823e-05
-2.14272e-06
2.49318e-06
-2.14985e-06
8.91035e-05
1.98926e-06
-2.49274e-06
0.000100909
1.09846e-06
-2.72537e-06
0.000108849
9.4938e-10
-2.83568e-06
0.000112824
-1.0966e-06
-2.83569e-06
0.000112824
-1.98752e-06
-2.72541e-06
0.00010885
-2.49165e-06
-2.49282e-06
0.00010091
-2.53365e-06
-2.14999e-06
8.91042e-05
-1.72116e-06
7.36831e-05
-2.14183e-06
2.2093e-06
-1.80898e-06
6.41338e-05
-1.89314e-06
2.15035e-06
-2.20887e-06
7.81403e-05
1.71126e-06
-2.53453e-06
8.91036e-05
9.4718e-07
-2.76496e-06
9.66451e-05
1.04011e-09
-2.88127e-06
0.000100482
-9.45146e-07
-2.88129e-06
0.000100482
-1.70936e-06
-2.76502e-06
9.66454e-05
-2.14868e-06
-2.53463e-06
8.91041e-05
-2.20794e-06
-2.20904e-06
7.8141e-05
-1.80922e-06
6.41347e-05
-1.89216e-06
1.80946e-06
5.26889e-05
-1.60214e-06
-1.6025e-06
1.72152e-06
6.41339e-05
-1.89282e-06
1.35726e-06
7.36824e-05
-2.14245e-06
7.49882e-07
8.05163e-05
-2.32009e-06
1.16634e-09
8.4069e-05
-2.41058e-06
-7.47606e-07
8.40691e-05
-2.4106e-06
-1.35515e-06
8.05166e-05
-2.32015e-06
-1.71968e-06
7.36829e-05
-2.14255e-06
-1.80798e-06
6.41346e-05
-1.89299e-06
5.26897e-05
-1.60145e-06
-1.60236e-06
3.42491e-07
3.40334e-07
5.24756e-05
-2.35355e-07
-2.3379e-07
3.92351e-07
4.81547e-07
6.39124e-05
-3.09614e-07
3.43781e-07
6.12697e-07
7.35072e-05
-3.88536e-07
2.01593e-07
7.13421e-07
8.03976e-05
-4.52171e-07
2.01565e-09
7.66772e-07
8.39882e-05
-4.86057e-07
-1.97659e-07
7.66801e-07
8.39884e-05
-4.86088e-07
-3.40135e-07
7.13518e-07
8.03982e-05
-4.52274e-07
-3.89179e-07
6.12874e-07
7.35082e-05
-3.8871e-07
-3.39931e-07
4.8184e-07
6.39138e-05
-3.09912e-07
3.40752e-07
5.24771e-05
-2.33558e-07
-2.34158e-07
4.83464e-07
3.89787e-07
6.39123e-05
-3.11048e-07
5.65606e-07
5.63344e-07
7.79766e-05
4.97919e-07
7.17834e-07
8.90664e-05
2.90984e-07
8.32088e-07
9.67336e-05
1.80039e-09
8.90252e-07
0.000100648
-2.87463e-07
8.90272e-07
0.000100648
-4.94638e-07
8.32158e-07
9.67342e-05
-5.62722e-07
7.1797e-07
8.90673e-05
-4.81115e-07
5.63577e-07
7.79779e-05
3.90154e-07
6.39138e-05
-3.09367e-07
6.14384e-07
3.40942e-07
7.35068e-05
-3.89771e-07
7.19853e-07
4.95424e-07
8.90662e-05
6.32929e-07
6.30687e-07
0.000101083
3.68303e-07
7.27813e-07
0.000109218
1.64095e-09
7.73234e-07
0.000113308
-3.65091e-07
7.73244e-07
0.000113308
-6.29929e-07
7.27852e-07
0.000109219
-7.17211e-07
6.30772e-07
0.000101084
-6.1224e-07
4.95582e-07
8.90674e-05
3.41213e-07
7.35083e-05
-3.88244e-07
7.14958e-07
1.98644e-07
8.0397e-05
-4.53298e-07
8.33947e-07
2.88375e-07
9.67332e-05
7.29894e-07
3.65943e-07
0.000109218
4.23057e-07
4.20854e-07
0.00011753
1.53923e-09
4.43218e-07
0.000121626
-4.20041e-07
4.43219e-07
0.000121626
-7.27074e-07
4.20867e-07
0.000117531
-8.31464e-07
3.65979e-07
0.000109219
-7.12943e-07
2.8845e-07
9.67343e-05
1.9878e-07
8.03985e-05
-4.51851e-07
7.68215e-07
-8.98417e-10
8.39873e-05
-4.87099e-07
8.92021e-07
-8.04693e-10
0.000100647
7.75234e-07
-7.37319e-10
0.000113307
4.45347e-07
-6.95697e-10
0.000121626
1.4899e-09
-6.76374e-10
0.000125588
-4.42423e-07
-6.77966e-10
0.000125588
-7.72498e-07
-7.0052e-10
0.000121626
-8.89613e-07
-7.45071e-10
0.000113308
-7.66265e-07
-8.13899e-10
0.000100648
-9.06751e-10
8.39888e-05
-4.85699e-07
7.68201e-07
-2.00397e-07
8.39872e-05
-4.87085e-07
8.9201e-07
-2.89949e-07
0.000100647
7.75229e-07
-3.67387e-07
0.000113307
4.45345e-07
-4.22217e-07
0.000121626
1.48882e-09
-4.44546e-07
0.000125588
-4.42423e-07
-4.4455e-07
0.000125588
-7.72494e-07
-4.22239e-07
0.000121626
-8.89605e-07
-3.67437e-07
0.000113308
-7.66252e-07
-2.90041e-07
0.000100648
-2.0055e-07
8.39887e-05
-4.85686e-07
7.14912e-07
-3.42568e-07
8.03967e-05
-4.5325e-07
8.33913e-07
-4.96891e-07
9.67329e-05
7.29872e-07
-6.32035e-07
0.000109218
4.23046e-07
-7.29088e-07
0.00011753
1.53573e-09
-7.74477e-07
0.000121626
-4.20037e-07
-7.7449e-07
0.000121626
-7.27058e-07
-7.29136e-07
0.000117531
-8.31434e-07
-6.32134e-07
0.000109219
-7.12902e-07
-4.97064e-07
9.67341e-05
-3.42852e-07
8.03982e-05
-4.51807e-07
6.14301e-07
-3.91202e-07
7.35064e-05
-3.8969e-07
7.19786e-07
-5.64634e-07
8.90658e-05
6.32884e-07
-7.19021e-07
0.000101083
3.68278e-07
-8.33211e-07
0.000109218
1.63438e-09
-8.91345e-07
0.000113308
-3.65079e-07
-8.91368e-07
0.000113308
-6.29895e-07
-8.33288e-07
0.000109219
-7.17154e-07
-7.19168e-07
0.000101084
-6.12165e-07
-5.64879e-07
8.9067e-05
-3.91578e-07
7.35079e-05
-3.8817e-07
4.83327e-07
-3.41475e-07
6.39117e-05
-3.1091e-07
5.65493e-07
-4.82599e-07
7.79761e-05
4.97837e-07
-6.13661e-07
8.90659e-05
2.90937e-07
-7.14332e-07
9.67331e-05
1.78959e-09
-7.67658e-07
0.000100647
-2.87437e-07
-7.67689e-07
0.000100648
-4.94575e-07
-7.14434e-07
9.67336e-05
-5.62625e-07
-6.13846e-07
8.90668e-05
-4.80991e-07
-4.829e-07
7.79774e-05
-3.419e-07
6.39132e-05
-3.0924e-07
3.42294e-07
5.24749e-05
-2.34589e-07
-2.35184e-07
3.92175e-07
6.39118e-05
-3.10364e-07
3.43644e-07
7.35065e-05
-3.89221e-07
2.01514e-07
8.03969e-05
-4.52823e-07
2.00014e-09
8.39875e-05
-4.86691e-07
-1.9761e-07
8.39878e-05
-4.86723e-07
-3.40025e-07
8.03975e-05
-4.52928e-07
-3.89027e-07
7.35075e-05
-3.89398e-07
-3.39754e-07
6.39131e-05
-3.10666e-07
5.24764e-05
-2.33403e-07
-2.34959e-07
4.23302e-07
4.19811e-07
5.23948e-05
-3.82452e-07
-3.79927e-07
3.96352e-07
5.04732e-07
6.38793e-05
-4.44637e-07
3.0994e-07
5.73966e-07
7.35192e-05
-4.99631e-07
1.71666e-07
6.23706e-07
8.04506e-05
-5.38496e-07
3.22321e-09
6.49231e-07
8.40657e-05
-5.5833e-07
-1.65377e-07
6.4928e-07
8.40661e-05
-5.58379e-07
-3.04112e-07
6.23864e-07
8.04517e-05
-5.38657e-07
-3.91285e-07
5.74253e-07
7.3521e-05
-4.99902e-07
-4.19215e-07
5.05204e-07
6.38816e-05
-4.45104e-07
4.20479e-07
5.23975e-05
-3.79585e-07
-3.805e-07
5.07853e-07
3.92194e-07
6.3879e-05
-4.46964e-07
4.85209e-07
4.81521e-07
7.80225e-05
3.83104e-07
5.54744e-07
8.91877e-05
2.12478e-07
6.06675e-07
9.69212e-05
2.89903e-09
6.32319e-07
0.000100874
-2.06809e-07
6.32354e-07
0.000100875
-3.77822e-07
6.06794e-07
9.69222e-05
-4.80569e-07
5.54972e-07
8.91894e-05
-5.04075e-07
4.81905e-07
7.80247e-05
3.92792e-07
6.38817e-05
-4.44261e-07
5.76722e-07
3.05331e-07
7.35186e-05
-5.01641e-07
5.58046e-07
3.7903e-07
8.91874e-05
4.43509e-07
4.39841e-07
0.000101313
2.45975e-07
4.81864e-07
0.000109541
2.65159e-09
5.00318e-07
0.000113683
-2.40785e-07
5.00337e-07
0.000113684
-4.38661e-07
4.81934e-07
0.000109542
-5.53778e-07
4.39989e-07
0.000101314
-5.73257e-07
3.793e-07
8.91895e-05
3.05785e-07
7.35212e-05
-4.99175e-07
6.2622e-07
1.66874e-07
8.04495e-05
-5.40336e-07
6.09716e-07
2.0822e-07
9.69205e-05
4.85268e-07
2.42116e-07
0.00010954
2.68414e-07
2.64811e-07
0.000117964
2.49001e-09
2.72775e-07
0.00012212
-2.63534e-07
2.72779e-07
0.00012212
-4.80704e-07
2.64837e-07
0.000117965
-6.05696e-07
2.42183e-07
0.000109542
-6.22958e-07
2.08355e-07
9.69225e-05
1.67116e-07
8.04522e-05
-5.37992e-07
6.51591e-07
-1.51255e-09
8.40641e-05
-5.60035e-07
6.35212e-07
-1.35362e-09
0.000100873
5.03588e-07
-1.23699e-09
0.000113682
2.76255e-07
-1.16353e-09
0.000122119
2.41043e-09
-1.12892e-09
0.000126135
-2.71522e-07
-1.13036e-09
0.000126136
-4.99158e-07
-1.16751e-09
0.00012212
-6.31313e-07
-1.24168e-09
0.000113684
-6.48432e-07
-1.35443e-09
0.000100875
-1.50283e-09
8.40667e-05
-5.57765e-07
6.51567e-07
-1.69826e-07
8.40639e-05
-5.6001e-07
6.35193e-07
-2.10867e-07
0.000100873
5.03577e-07
-2.44537e-07
0.000113682
2.76251e-07
-2.67091e-07
0.000122119
2.40814e-09
-2.74992e-07
0.000126135
-2.71522e-07
-2.74998e-07
0.000126135
-4.99152e-07
-2.67125e-07
0.00012212
-6.31299e-07
-2.44614e-07
0.000113684
-6.48411e-07
-2.11003e-07
0.000100875
-1.70048e-07
8.40665e-05
-5.57743e-07
6.26142e-07
-3.08069e-07
8.0449e-05
-5.40255e-07
6.09656e-07
-3.81499e-07
9.692e-05
4.85229e-07
-4.42104e-07
0.00010954
2.68394e-07
-4.83997e-07
0.000117964
2.48248e-09
-5.02393e-07
0.000122119
-2.63529e-07
-5.02414e-07
0.000122119
-4.80679e-07
-4.84073e-07
0.000117965
-6.05649e-07
-4.42258e-07
0.000109541
-6.22891e-07
-3.81766e-07
9.69221e-05
-3.085e-07
8.04517e-05
-5.37922e-07
5.76578e-07
-3.94579e-07
7.35178e-05
-5.01505e-07
5.57929e-07
-4.83692e-07
8.91866e-05
4.43428e-07
-5.56738e-07
0.000101312
2.45929e-07
-6.08553e-07
0.00010954
2.63672e-09
-6.34144e-07
0.000113683
-2.40768e-07
-6.34182e-07
0.000113683
-4.38608e-07
-6.08677e-07
0.000109541
-5.53687e-07
-5.56968e-07
0.000101314
-5.73137e-07
-4.8407e-07
8.91887e-05
-3.9515e-07
7.35204e-05
-4.99057e-07
5.07616e-07
-4.21738e-07
6.3878e-05
-4.46729e-07
4.85012e-07
-5.06504e-07
7.80215e-05
3.82957e-07
-5.75585e-07
8.91868e-05
2.12391e-07
-6.25231e-07
9.69203e-05
2.87271e-09
-6.5071e-07
0.000100873
-2.06774e-07
-6.50759e-07
0.000100874
-3.77725e-07
-6.2539e-07
9.69213e-05
-4.80417e-07
-5.7587e-07
8.91884e-05
-5.03878e-07
-5.06963e-07
7.80237e-05
-4.22376e-07
6.38806e-05
-4.44059e-07
4.22963e-07
5.23937e-05
-3.8128e-07
-3.82159e-07
3.96044e-07
6.38781e-05
-4.45903e-07
3.09696e-07
7.3518e-05
-5.00782e-07
1.71517e-07
8.04495e-05
-5.39588e-07
3.18058e-09
8.40646e-05
-5.59389e-07
-1.65312e-07
8.40649e-05
-5.59437e-07
-3.03948e-07
8.04505e-05
-5.39748e-07
-3.91048e-07
7.35198e-05
-5.01047e-07
-4.18938e-07
6.38803e-05
-4.46355e-07
5.23963e-05
-3.79342e-07
-3.81824e-07
7.71304e-08
7.18662e-08
5.2346e-05
-5.19899e-08
-4.82003e-08
8.93536e-08
1.03396e-07
6.38287e-05
-6.50242e-08
7.9302e-08
1.32691e-07
7.34795e-05
-8.28989e-08
4.84399e-08
1.55395e-07
8.04236e-05
-9.74841e-08
4.79997e-09
1.67625e-07
8.40471e-05
-1.05366e-07
-3.9077e-08
1.677e-07
8.40477e-05
-1.05438e-07
-7.06326e-08
1.55635e-07
8.04254e-05
-9.77197e-08
-8.18256e-08
1.33121e-07
7.34823e-05
-8.32924e-08
-7.10694e-08
1.04091e-07
6.38324e-05
-6.56987e-08
7.28355e-08
5.23504e-05
-4.77479e-08
-4.90143e-08
1.08143e-07
8.30642e-08
6.38282e-05
-6.85482e-08
1.27163e-07
1.21535e-07
7.79853e-05
1.12696e-07
1.55773e-07
8.91791e-05
6.76227e-08
1.81605e-07
9.69401e-05
4.3635e-09
1.95211e-07
0.00010091
-5.90935e-08
1.95268e-07
0.000100911
-1.04756e-07
1.81791e-07
9.69417e-05
-1.20197e-07
1.56123e-07
8.91818e-05
-1.02482e-07
1.22114e-07
7.7989e-05
8.39471e-08
6.38326e-05
-6.45089e-08
1.36909e-07
7.23184e-08
7.34784e-05
-8.59638e-08
1.60838e-07
1.06471e-07
8.91785e-05
1.42281e-07
1.36646e-07
0.00010135
8.4631e-08
1.59243e-07
0.000109621
4.01796e-09
1.70644e-07
0.000113788
-7.67681e-08
1.70677e-07
0.000113789
-1.34944e-07
1.59358e-07
0.000109622
-1.54386e-07
1.36882e-07
0.000101353
-1.31681e-07
1.06886e-07
8.9182e-05
7.29983e-08
7.34827e-05
-8.2249e-08
1.59256e-07
4.11754e-08
8.04217e-05
-1.00301e-07
1.86282e-07
6.11118e-08
9.69388e-05
1.64483e-07
7.87002e-08
0.00010962
9.76237e-08
9.2076e-08
0.000118098
3.78569e-09
9.85725e-08
0.000122285
-9.0208e-08
9.85822e-08
0.000122286
-1.57552e-07
9.21237e-08
0.0001181
-1.80184e-07
7.88122e-08
0.000109622