/*--------------------------------*- C++ -*----------------------------------*\
| =========                 |                                                 |
| \\      /  F ield         | OpenFOAM: The Open Source CFD Toolbox           |
|  \\    /   O peration     | Version:  2406                                  |
|   \\  /    A nd           | Website:  www.openfoam.com                      |
|    \\/     M anipulation  |                                                 |
\*---------------------------------------------------------------------------*/
FoamFile
{
    version     2.0;
    format      ascii;
    arch        "LSB;label=32;scalar=64";
    class       volScalarField;
    location    "1.5";
    object      turbulenceProperties:nut;
}
// * * * * * * * * * * * * * * * * * * * * * * * * * * * * * * * * * * * * * //

dimensions      [0 2 -1 0 0 0 0];

internalField   uniform 0;

boundaryField
{
    walls
    {
        type            nutUSpaldingWallFunction;
        value           nonuniform List<scalar> 
2000
(
3.17327e-09
4.55003e-09
5.99778e-09
7.1845e-09
7.85304e-09
7.85304e-09
7.1845e-09
5.99778e-09
4.55003e-09
3.17327e-09
1.87209e-09
2.63221e-09
3.46484e-09
4.1654e-09
4.56594e-09
4.56594e-09
4.1654e-09
3.46484e-09
2.63221e-09
1.87209e-09
9.82543e-10
1.36006e-09
1.78337e-09
2.14884e-09
2.36026e-09
2.36026e-09
2.14884e-09
1.78336e-09
1.36006e-09
9.8254e-10
1.1579e-09
1.60987e-09
2.11113e-09
2.53959e-09
2.78627e-09
2.78627e-09
2.53958e-09
2.11112e-09
1.60986e-09
1.1579e-09
9.94231e-10
1.37767e-09
1.80718e-09
2.17689e-09
2.39063e-09
2.39063e-09
2.17688e-09
1.80717e-09
1.37766e-09
9.9422e-10
1.04409e-09
1.44906e-09
1.90136e-09
2.28981e-09
2.51414e-09
2.51414e-09
2.2898e-09
1.90134e-09
1.44904e-09
1.04407e-09
1.0025e-09
1.39005e-09
1.82403e-09
2.19749e-09
2.41341e-09
2.4134e-09
2.19746e-09
1.82399e-09
1.39e-09
1.00246e-09
1.0159e-09
1.40921e-09
1.84925e-09
2.22767e-09
2.44638e-09
2.44636e-09
2.22762e-09
1.84918e-09
1.40913e-09
1.01583e-09
1.00523e-09
1.39404e-09
1.82935e-09
2.20388e-09
2.42039e-09
2.42037e-09
2.2038e-09
1.82924e-09
1.39392e-09
1.00512e-09
1.00886e-09
1.39921e-09
1.83613e-09
2.21197e-09
2.42922e-09
2.42918e-09
2.21186e-09
1.83596e-09
1.39902e-09
1.00868e-09
1.00617e-09
1.39538e-09
1.83108e-09
2.20591e-09
2.42258e-09
2.42252e-09
2.20574e-09
1.83083e-09
1.3951e-09
1.00591e-09
1.00721e-09
1.39685e-09
1.83299e-09
2.20817e-09
2.42503e-09
2.42494e-09
2.20794e-09
1.83266e-09
1.39647e-09
1.00686e-09
1.00657e-09
1.39593e-09
1.83177e-09
2.2067e-09
2.42339e-09
2.42329e-09
2.2064e-09
1.83135e-09
1.39547e-09
1.00614e-09
1.00687e-09
1.39635e-09
1.83232e-09
2.20735e-09
2.42409e-09
2.42397e-09
2.20701e-09
1.83185e-09
1.39583e-09
1.00639e-09
1.00668e-09
1.39609e-09
1.83198e-09
2.20694e-09
2.42365e-09
2.42352e-09
2.20659e-09
1.83149e-09
1.39555e-09
1.00618e-09
1.00668e-09
1.3961e-09
1.83203e-09
2.20702e-09
2.42374e-09
2.42362e-09
2.20668e-09
1.83156e-09
1.39559e-09
1.00621e-09
1.00652e-09
1.39589e-09
1.83178e-09
2.20675e-09
2.42347e-09
2.42336e-09
2.20646e-09
1.83137e-09
1.39546e-09
1.00612e-09
1.00639e-09
1.39574e-09
1.8316e-09
2.20657e-09
2.4233e-09
2.42322e-09
2.20635e-09
1.8313e-09
1.39542e-09
1.0061e-09
1.00622e-09
1.39553e-09
1.83136e-09
2.20631e-09
2.42305e-09
2.42301e-09
2.20618e-09
1.83119e-09
1.39535e-09
1.00607e-09
1.00608e-09
1.39535e-09
1.83116e-09
2.2061e-09
2.42287e-09
2.42286e-09
2.20609e-09
1.83114e-09
1.39535e-09
1.00609e-09
1.00595e-09
1.39518e-09
1.83097e-09
2.20592e-09
2.42271e-09
2.42274e-09
2.20601e-09
1.83111e-09
1.39535e-09
1.00611e-09
1.00583e-09
1.39505e-09
1.83082e-09
2.20578e-09
2.42259e-09
2.42266e-09
2.20597e-09
1.8311e-09
1.39536e-09
1.00613e-09
1.00573e-09
1.39492e-09
1.83068e-09
2.20564e-09
2.42247e-09
2.42256e-09
2.2059e-09
1.83106e-09
1.39534e-09
1.00612e-09
1.00564e-09
1.3948e-09
1.83055e-09
2.2055e-09
2.42233e-09
2.42244e-09
2.2058e-09
1.83098e-09
1.39528e-09
1.00608e-09
1.00556e-09
1.3947e-09
1.83042e-09
2.20535e-09
2.42218e-09
2.4223e-09
2.20568e-09
1.83088e-09
1.3952e-09
1.00602e-09
1.0055e-09
1.39461e-09
1.83031e-09
2.20522e-09
2.42204e-09
2.42216e-09
2.20555e-09
1.83078e-09
1.39512e-09
1.00597e-09
1.00546e-09
1.39456e-09
1.83023e-09
2.20513e-09
2.42195e-09
2.42207e-09
2.20547e-09
1.83071e-09
1.39508e-09
1.00595e-09
1.00546e-09
1.39455e-09
1.83023e-09
2.20512e-09
2.42193e-09
2.42205e-09
2.20547e-09
1.83072e-09
1.3951e-09
1.00597e-09
1.00552e-09
1.39464e-09
1.83032e-09
2.20521e-09
2.42202e-09
2.42214e-09
2.20555e-09
1.8308e-09
1.39518e-09
1.00603e-09
1.00569e-09
1.39484e-09
1.83055e-09
2.20544e-09
2.42224e-09
2.42234e-09
2.20573e-09
1.83095e-09
1.39529e-09
1.00612e-09
1.00599e-09
1.39521e-09
1.83095e-09
2.20585e-09
2.42261e-09
2.42267e-09
2.20599e-09
1.83114e-09
1.39542e-09
1.00619e-09
1.00643e-09
1.39573e-09
1.83152e-09
2.20641e-09
2.42313e-09
2.42309e-09
2.20631e-09
1.83135e-09
1.39553e-09
1.00623e-09
1.00694e-09
1.39634e-09
1.83219e-09
2.20708e-09
2.42374e-09
2.42358e-09
2.20665e-09
1.83155e-09
1.39561e-09
1.00623e-09
1.0074e-09
1.39691e-09
1.83282e-09
2.20773e-09
2.42432e-09
2.42405e-09
2.20697e-09
1.83172e-09
1.39566e-09
1.0062e-09
1.00767e-09
1.39726e-09
1.83324e-09
2.20817e-09
2.42473e-09
2.42438e-09
2.20718e-09
1.83182e-09
1.39566e-09
1.00616e-09
1.00765e-09
1.39727e-09
1.8333e-09
2.20827e-09
2.42484e-09
2.42447e-09
2.20723e-09
1.83182e-09
1.39563e-09
1.00611e-09
1.00732e-09
1.3969e-09
1.83294e-09
2.20795e-09
2.42458e-09
2.42426e-09
2.20707e-09
1.8317e-09
1.39555e-09
1.00607e-09
1.00677e-09
1.39626e-09
1.83226e-09
2.20729e-09
2.424e-09
2.42379e-09
2.20673e-09
1.83148e-09
1.39544e-09
1.00604e-09
1.00617e-09
1.39553e-09
1.83145e-09
2.20649e-09
2.42327e-09
2.4232e-09
2.20631e-09
1.83123e-09
1.39534e-09
1.00603e-09
1.00571e-09
1.39495e-09
1.83079e-09
2.2058e-09
2.42264e-09
2.4227e-09
2.20597e-09
1.83106e-09
1.39531e-09
1.00608e-09
1.00557e-09
1.39477e-09
1.83055e-09
2.20554e-09
2.42241e-09
2.42253e-09
2.20592e-09
1.83111e-09
1.39544e-09
1.00624e-09
1.00597e-09
1.39523e-09
1.83103e-09
2.20601e-09
2.42286e-09
2.42298e-09
2.20636e-09
1.83154e-09
1.39583e-09
1.00655e-09
1.00714e-09
1.39663e-09
1.83255e-09
2.20754e-09
2.42432e-09
2.4243e-09
2.20749e-09
1.83247e-09
1.39654e-09
1.00703e-09
1.00932e-09
1.39925e-09
1.83543e-09
2.21047e-09
2.42708e-09
2.42673e-09
2.20951e-09
1.83401e-09
1.39761e-09
1.00769e-09
1.01266e-09
1.40328e-09
1.83987e-09
2.21497e-09
2.4313e-09
2.43042e-09
2.21248e-09
1.83621e-09
1.39909e-09
1.00855e-09
1.01717e-09
1.40879e-09
1.84603e-09
2.22131e-09
2.43734e-09
2.43575e-09
2.21684e-09
1.8395e-09
1.40136e-09
1.00995e-09
1.02262e-09
1.4155e-09
1.85357e-09
2.2291e-09
2.44477e-09
2.44234e-09
2.22228e-09
1.84369e-09
1.40434e-09
1.01191e-09
1.02881e-09
1.42353e-09
1.86312e-09
2.23953e-09
2.4553e-09
2.45222e-09
2.23091e-09
1.85074e-09
1.4097e-09
1.01568e-09
1.03425e-09
1.43038e-09
1.87104e-09
2.24788e-09
2.46344e-09
2.45959e-09
2.2372e-09
1.85582e-09
1.41358e-09
1.01849e-09
1.04104e-09
1.44058e-09
1.88501e-09
2.265e-09
2.48247e-09
2.47886e-09
2.25507e-09
1.87111e-09
1.42563e-09
1.02742e-09
3.17327e-09
4.55003e-09
5.99778e-09
7.1845e-09
7.85304e-09
7.85304e-09
7.1845e-09
5.99778e-09
4.55003e-09
3.17327e-09
1.87209e-09
2.63221e-09
3.46484e-09
4.1654e-09
4.56594e-09
4.56594e-09
4.1654e-09
3.46484e-09
2.63221e-09
1.87209e-09
9.82537e-10
1.36006e-09
1.78336e-09
2.14883e-09
2.36025e-09
2.36026e-09
2.14884e-09
1.78336e-09
1.36006e-09
9.82542e-10
1.15789e-09
1.60985e-09
2.11111e-09
2.53958e-09
2.78626e-09
2.78626e-09
2.53958e-09
2.11113e-09
1.60986e-09
1.1579e-09
9.94204e-10
1.37764e-09
1.80715e-09
2.17686e-09
2.39061e-09
2.39062e-09
2.17688e-09
1.80718e-09
1.37767e-09
9.9423e-10
1.04404e-09
1.449e-09
1.9013e-09
2.28976e-09
2.51411e-09
2.51412e-09
2.2898e-09
1.90135e-09
1.44906e-09
1.04409e-09
1.00241e-09
1.38994e-09
1.82393e-09
2.1974e-09
2.41334e-09
2.41337e-09
2.19746e-09
1.82401e-09
1.39004e-09
1.0025e-09
1.01575e-09
1.40903e-09
1.84908e-09
2.22752e-09
2.44627e-09
2.44631e-09
2.22762e-09
1.84922e-09
1.40919e-09
1.0159e-09
1.00499e-09
1.39378e-09
1.82909e-09
2.20365e-09
2.42023e-09
2.42029e-09
2.2038e-09
1.82931e-09
1.39402e-09
1.00522e-09
1.00851e-09
1.39882e-09
1.83575e-09
2.21164e-09
2.42899e-09
2.42907e-09
2.21187e-09
1.83607e-09
1.39918e-09
1.00885e-09
1.00569e-09
1.39484e-09
1.83055e-09
2.20546e-09
2.42227e-09
2.42238e-09
2.20577e-09
1.83099e-09
1.39533e-09
1.00616e-09
1.00659e-09
1.39615e-09
1.8323e-09
2.20759e-09
2.42463e-09
2.42478e-09
2.20799e-09
1.83288e-09
1.39679e-09
1.00719e-09
1.00583e-09
1.39509e-09
1.83094e-09
2.20599e-09
2.42292e-09
2.42309e-09
2.20648e-09
1.83163e-09
1.39586e-09
1.00655e-09
1.00604e-09
1.39542e-09
1.83139e-09
2.20656e-09
2.42356e-09
2.42375e-09
2.2071e-09
1.83217e-09
1.39627e-09
1.00685e-09
1.00584e-09
1.39513e-09
1.83102e-09
2.20612e-09
2.42309e-09
2.4233e-09
2.20668e-09
1.83182e-09
1.39601e-09
1.00666e-09
1.00591e-09
1.39521e-09
1.83113e-09
2.20624e-09
2.42321e-09
2.4234e-09
2.20677e-09
1.83187e-09
1.39603e-09
1.00666e-09
1.00588e-09
1.39515e-09
1.83102e-09
2.20609e-09
2.42302e-09
2.42318e-09
2.20654e-09
1.83165e-09
1.39584e-09
1.0065e-09
1.00593e-09
1.3952e-09
1.83105e-09
2.20608e-09
2.42297e-09
2.42309e-09
2.20642e-09
1.83151e-09
1.3957e-09
1.00638e-09
1.00596e-09
1.39521e-09
1.83102e-09
2.206e-09
2.42284e-09
2.42291e-09
2.20621e-09
1.8313e-09
1.3955e-09
1.00622e-09
1.00599e-09
1.39523e-09
1.83101e-09
2.20596e-09
2.42274e-09
2.42277e-09
2.20604e-09
1.83112e-09
1.39533e-09
1.00608e-09
1.00601e-09
1.39523e-09
1.83099e-09
2.20589e-09
2.42263e-09
2.42262e-09
2.20585e-09
1.83093e-09
1.39516e-09
1.00594e-09
1.00603e-09
1.39524e-09
1.83097e-09
2.20583e-09
2.42253e-09
2.42248e-09
2.2057e-09
1.83077e-09
1.39502e-09
1.00583e-09
1.00605e-09
1.39524e-09
1.83095e-09
2.20578e-09
2.42245e-09
2.42237e-09
2.20556e-09
1.83064e-09
1.3949e-09
1.00572e-09
1.00608e-09
1.39527e-09
1.83095e-09
2.20576e-09
2.42239e-09
2.42228e-09
2.20546e-09
1.83053e-09
1.3948e-09
1.00564e-09
1.00611e-09
1.39529e-09
1.83096e-09
2.20574e-09
2.42235e-09
2.42222e-09
2.20538e-09
1.83044e-09
1.39471e-09
1.00557e-09
1.00612e-09
1.39529e-09
1.83095e-09
2.20572e-09
2.42231e-09
2.42217e-09
2.20532e-09
1.83038e-09
1.39465e-09
1.00551e-09
1.00609e-09
1.39526e-09
1.83091e-09
2.20567e-09
2.42226e-09
2.42211e-09
2.20526e-09
1.83032e-09
1.3946e-09
1.00547e-09
1.00604e-09
1.39519e-09
1.83083e-09
2.20559e-09
2.42219e-09
2.42205e-09
2.20522e-09
1.83029e-09
1.39458e-09
1.00546e-09
1.00596e-09
1.3951e-09
1.83074e-09
2.20551e-09
2.42212e-09
2.42202e-09
2.20522e-09
1.83032e-09
1.39463e-09
1.00552e-09
1.0059e-09
1.39504e-09
1.83069e-09
2.20548e-09
2.42214e-09
2.42208e-09
2.20533e-09
1.83047e-09
1.3948e-09
1.00567e-09
1.00588e-09
1.39504e-09
1.83072e-09
2.20557e-09
2.42229e-09
2.42231e-09
2.20562e-09
1.8308e-09
1.39513e-09
1.00597e-09
1.00588e-09
1.3951e-09
1.83087e-09
2.20581e-09
2.42264e-09
2.42275e-09
2.20613e-09
1.83134e-09
1.39564e-09
1.0064e-09
1.00592e-09
1.39522e-09
1.8311e-09
2.20618e-09
2.42314e-09
2.42336e-09
2.20681e-09
1.83201e-09
1.39625e-09
1.00691e-09
1.00596e-09
1.39535e-09
1.83137e-09
2.2066e-09
2.4237e-09
2.42402e-09
2.20751e-09
1.83269e-09
1.39684e-09
1.00737e-09
1.00601e-09
1.39547e-09
1.8316e-09
2.20695e-09
2.42416e-09
2.42455e-09
2.20804e-09
1.83316e-09
1.39722e-09
1.00765e-09
1.00605e-09
1.39555e-09
1.83172e-09
2.20712e-09
2.42437e-09
2.42476e-09
2.20821e-09
1.83327e-09
1.39725e-09
1.00764e-09
1.00608e-09
1.39555e-09
1.83169e-09
2.20706e-09
2.42425e-09
2.42458e-09
2.20796e-09
1.83295e-09
1.39691e-09
1.00732e-09
1.00608e-09
1.39549e-09
1.83152e-09
2.20677e-09
2.42383e-09
2.42404e-09
2.20733e-09
1.83228e-09
1.39627e-09
1.00678e-09
1.00607e-09
1.39538e-09
1.83127e-09
2.20634e-09
2.42323e-09
2.4233e-09
2.20651e-09
1.83147e-09
1.39554e-09
1.00618e-09
1.00606e-09
1.39528e-09
1.83102e-09
2.20593e-09
2.42266e-09
2.42261e-09
2.20578e-09
1.83078e-09
1.39494e-09
1.00571e-09
1.00608e-09
1.39525e-09
1.8309e-09
2.2057e-09
2.42233e-09
2.42223e-09
2.20541e-09
1.83046e-09
1.39472e-09
1.00556e-09
1.00619e-09
1.39538e-09
1.83102e-09
2.20582e-09
2.42248e-09
2.42243e-09
2.20568e-09
1.83081e-09
1.39511e-09
1.00593e-09
1.0064e-09
1.39572e-09
1.83152e-09
2.2065e-09
2.42335e-09
2.42352e-09
2.20694e-09
1.83216e-09
1.39642e-09
1.00708e-09
1.00661e-09
1.39623e-09
1.83239e-09
2.20782e-09
2.42515e-09
2.42576e-09
2.2095e-09
1.83483e-09
1.39895e-09
1.00924e-09
1.00658e-09
1.39665e-09
1.83349e-09
2.20973e-09
2.42794e-09
2.42931e-09
2.21357e-09
1.83903e-09
1.40286e-09
1.01255e-09
1.00567e-09
1.39629e-09
1.8341e-09
2.21163e-09
2.43123e-09
2.43385e-09
2.21893e-09
1.84465e-09
1.40812e-09
1.01699e-09
1.00348e-09
1.39467e-09
1.83375e-09
2.21305e-09
2.4346e-09
2.43894e-09
2.22518e-09
1.85128e-09
1.41435e-09
1.02228e-09
9.98496e-10
1.3898e-09
1.83007e-09
2.2115e-09
2.4357e-09
2.44262e-09
2.23082e-09
1.85791e-09
1.42095e-09
1.02808e-09
9.93839e-10
1.38533e-09
1.82684e-09
2.21034e-09
2.43702e-09
2.4462e-09
2.23601e-09
1.8638e-09
1.42671e-09
1.03307e-09
9.81742e-10
1.37142e-09
1.8128e-09
2.19838e-09
2.42888e-09
2.44268e-09
2.23675e-09
1.86754e-09
1.43194e-09
1.03842e-09
3.17327e-09
4.55003e-09
5.99778e-09
7.1845e-09
7.85304e-09
7.85304e-09
7.1845e-09
5.99778e-09
4.55003e-09
3.17327e-09
1.87209e-09
2.63221e-09
3.46483e-09
4.1654e-09
4.56593e-09
4.56593e-09
4.1654e-09
3.46484e-09
2.63221e-09
1.87209e-09
9.82535e-10
1.36005e-09
1.78336e-09
2.14883e-09
2.36025e-09
2.36025e-09
2.14883e-09
1.78336e-09
1.36006e-09
9.82537e-10
1.15788e-09
1.60984e-09
2.1111e-09
2.53956e-09
2.78624e-09
2.78624e-09
2.53957e-09
2.11111e-09
1.60985e-09
1.15789e-09
9.94192e-10
1.37762e-09
1.80713e-09
2.17683e-09
2.39058e-09
2.39058e-09
2.17684e-09
1.80714e-09
1.37764e-09
9.94203e-10
1.04401e-09
1.44897e-09
1.90126e-09
2.2897e-09
2.51404e-09
2.51405e-09
2.28972e-09
1.90128e-09
1.44899e-09
1.04404e-09
1.00236e-09
1.38988e-09
1.82385e-09
2.1973e-09
2.41323e-09
2.41324e-09
2.19732e-09
1.82388e-09
1.38992e-09
1.0024e-09
1.01567e-09
1.40893e-09
1.84894e-09
2.22735e-09
2.44607e-09
2.44609e-09
2.22739e-09
1.849e-09
1.409e-09
1.01574e-09
1.00487e-09
1.3936e-09
1.82886e-09
2.20337e-09
2.41991e-09
2.41993e-09
2.20344e-09
1.82896e-09
1.39371e-09
1.00498e-09
1.00833e-09
1.39856e-09
1.8354e-09
2.21122e-09
2.4285e-09
2.42853e-09
2.21132e-09
1.83555e-09
1.39872e-09
1.00848e-09
1.00544e-09
1.39448e-09
1.83007e-09
2.20486e-09
2.42157e-09
2.42162e-09
2.205e-09
1.83026e-09
1.3947e-09
1.00565e-09
1.00629e-09
1.3957e-09
1.83169e-09
2.20681e-09
2.42372e-09
2.42377e-09
2.20697e-09
1.83192e-09
1.39596e-09
1.00654e-09
1.0055e-09
1.39458e-09
1.83022e-09
2.20506e-09
2.42181e-09
2.42187e-09
2.20523e-09
1.83046e-09
1.39485e-09
1.00576e-09
1.00572e-09
1.39489e-09
1.83062e-09
2.20553e-09
2.42231e-09
2.42237e-09
2.20569e-09
1.83085e-09
1.39515e-09
1.00597e-09
1.00556e-09
1.39464e-09
1.83028e-09
2.2051e-09
2.42183e-09
2.42188e-09
2.20523e-09
1.83046e-09
1.39486e-09
1.00576e-09
1.0057e-09
1.39483e-09
1.83049e-09
2.20533e-09
2.42206e-09
2.42209e-09
2.20542e-09
1.83062e-09
1.39497e-09
1.00584e-09
1.00577e-09
1.3949e-09
1.83056e-09
2.20539e-09
2.42209e-09
2.42211e-09
2.20542e-09
1.83061e-09
1.39496e-09
1.00583e-09
1.00591e-09
1.39509e-09
1.83078e-09
2.20563e-09
2.42234e-09
2.42234e-09
2.20562e-09
1.83077e-09
1.39507e-09
1.0059e-09
1.00601e-09
1.39522e-09
1.83095e-09
2.20581e-09
2.42253e-09
2.42251e-09
2.20576e-09
1.83087e-09
1.39514e-09
1.00595e-09
1.00611e-09
1.39535e-09
1.83111e-09
2.206e-09
2.42272e-09
2.42269e-09
2.20592e-09
1.831e-09
1.39523e-09
1.006e-09
1.00618e-09
1.39545e-09
1.83123e-09
2.20613e-09
2.42286e-09
2.42282e-09
2.20603e-09
1.83107e-09
1.39528e-09
1.00602e-09
1.00625e-09
1.39554e-09
1.83133e-09
2.20625e-09
2.42297e-09
2.42293e-09
2.20612e-09
1.83114e-09
1.39533e-09
1.00605e-09
1.00633e-09
1.39563e-09
1.83144e-09
2.20636e-09
2.42308e-09
2.42303e-09
2.2062e-09
1.83121e-09
1.39537e-09
1.00609e-09
1.00642e-09
1.39574e-09
1.83157e-09
2.2065e-09
2.42322e-09
2.42315e-09
2.2063e-09
1.83129e-09
1.39543e-09
1.00613e-09
1.00652e-09
1.39587e-09
1.83172e-09
2.20665e-09
2.42337e-09
2.42328e-09
2.20642e-09
1.83138e-09
1.3955e-09
1.00617e-09
1.00662e-09
1.39599e-09
1.83186e-09
2.20681e-09
2.42352e-09
2.42341e-09
2.20652e-09
1.83145e-09
1.39554e-09
1.00618e-09
1.00669e-09
1.39609e-09
1.83197e-09
2.20692e-09
2.42363e-09
2.4235e-09
2.20658e-09
1.83148e-09
1.39554e-09
1.00617e-09
1.00672e-09
1.39612e-09
1.83201e-09
2.20696e-09
2.42366e-09
2.42351e-09
2.20657e-09
1.83144e-09
1.39549e-09
1.00612e-09
1.00666e-09
1.39605e-09
1.83193e-09
2.20688e-09
2.42357e-09
2.42343e-09
2.20648e-09
1.83135e-09
1.3954e-09
1.00605e-09
1.00649e-09
1.39584e-09
1.8317e-09
2.20665e-09
2.42335e-09
2.42323e-09
2.2063e-09
1.83121e-09
1.3953e-09
1.00597e-09
1.00618e-09
1.39547e-09
1.83129e-09
2.20624e-09
2.42297e-09
2.4229e-09
2.20605e-09
1.83103e-09
1.39518e-09
1.00591e-09
1.00575e-09
1.39495e-09
1.83073e-09
2.20567e-09
2.42245e-09
2.42246e-09
2.20571e-09
1.8308e-09
1.39505e-09
1.00586e-09
1.00528e-09
1.39438e-09
1.83008e-09
2.20501e-09
2.42184e-09
2.42195e-09
2.20532e-09
1.83054e-09
1.39492e-09
1.00581e-09
1.00487e-09
1.39387e-09
1.8295e-09
2.2044e-09
2.42125e-09
2.42145e-09
2.20495e-09
1.83031e-09
1.39481e-09
1.00579e-09
1.00464e-09
1.39356e-09
1.82912e-09
2.20398e-09
2.42084e-09
2.4211e-09
2.2047e-09
1.83016e-09
1.39475e-09
1.00579e-09
1.00467e-09
1.39356e-09
1.82907e-09
2.20389e-09
2.42074e-09
2.42101e-09
2.20465e-09
1.83016e-09
1.39478e-09
1.00583e-09
1.00497e-09
1.3939e-09
1.82941e-09
2.2042e-09
2.42101e-09
2.42124e-09
2.20485e-09
1.83032e-09
1.3949e-09
1.00591e-09
1.00547e-09
1.3945e-09
1.83006e-09
2.20484e-09
2.4216e-09
2.42175e-09
2.20525e-09
1.83061e-09
1.39508e-09
1.00599e-09
1.006e-09
1.39516e-09
1.8308e-09
2.20562e-09
2.42234e-09
2.42239e-09
2.20574e-09
1.83095e-09
1.39526e-09
1.00607e-09
1.00636e-09
1.39562e-09
1.83137e-09
2.20624e-09
2.42296e-09
2.42294e-09
2.20617e-09
1.83123e-09
1.39541e-09
1.00613e-09
1.00629e-09
1.39559e-09
1.83142e-09
2.20638e-09
2.42316e-09
2.42317e-09
2.20638e-09
1.83139e-09
1.39551e-09
1.00618e-09
1.00553e-09
1.39474e-09
1.8306e-09
2.20569e-09
2.42265e-09
2.42285e-09
2.20622e-09
1.83136e-09
1.39555e-09
1.00626e-09
1.00383e-09
1.39278e-09
1.82859e-09
2.20384e-09
2.42114e-09
2.42174e-09
2.20553e-09
1.83102e-09
1.39547e-09
1.00633e-09
1.00109e-09
1.38955e-09
1.82517e-09
2.20058e-09
2.41831e-09
2.41954e-09
2.20401e-09
1.83013e-09
1.39507e-09
1.00628e-09
9.97387e-10
1.38509e-09
1.82033e-09
2.19578e-09
2.41397e-09
2.41595e-09
2.20132e-09
1.82832e-09
1.39403e-09
1.00581e-09
9.92998e-10
1.37963e-09
1.81412e-09
2.18929e-09
2.40772e-09
2.41037e-09
2.1967e-09
1.82479e-09
1.39157e-09
1.00429e-09
9.88468e-10
1.37377e-09
1.80716e-09
2.18165e-09
2.39994e-09
2.40299e-09
2.19014e-09
1.81934e-09
1.38738e-09
1.00135e-09
9.84204e-10
1.36766e-09
1.79912e-09
2.17192e-09
2.3891e-09
2.39179e-09
2.17942e-09
1.80982e-09
1.37961e-09
9.95563e-10
9.81241e-10
1.36334e-09
1.79325e-09
2.16465e-09
2.38077e-09
2.38295e-09
2.17068e-09
1.80176e-09
1.37278e-09
9.90243e-10
9.7818e-10
1.35737e-09
1.78311e-09
2.15022e-09
2.36264e-09
2.36262e-09
2.15006e-09
1.78276e-09
1.35672e-09
9.77776e-10
3.17327e-09
4.55003e-09
5.99778e-09
7.1845e-09
7.85304e-09
7.85304e-09
7.1845e-09
5.99778e-09
4.55003e-09
3.17327e-09
1.87209e-09
2.63221e-09
3.46484e-09
4.1654e-09
4.56594e-09
4.56593e-09
4.1654e-09
3.46484e-09
2.63221e-09
1.87209e-09
9.8254e-10
1.36006e-09
1.78336e-09
2.14883e-09
2.36025e-09
2.36025e-09
2.14883e-09
1.78336e-09
1.36006e-09
9.82535e-10
1.15789e-09
1.60986e-09
2.11112e-09
2.53957e-09
2.78625e-09
2.78625e-09
2.53957e-09
2.11111e-09
1.60984e-09
1.15788e-09
9.94218e-10
1.37765e-09
1.80716e-09
2.17686e-09
2.3906e-09
2.39059e-09
2.17684e-09
1.80713e-09
1.37763e-09
9.94193e-10
1.04407e-09
1.44903e-09
1.90131e-09
2.28975e-09
2.51408e-09
2.51407e-09
2.28972e-09
1.90126e-09
1.44897e-09
1.04402e-09
1.00245e-09
1.38998e-09
1.82395e-09
2.19738e-09
2.41329e-09
2.41327e-09
2.19733e-09
1.82386e-09
1.38989e-09
1.00237e-09
1.01582e-09
1.40909e-09
1.8491e-09
2.22749e-09
2.44617e-09
2.44614e-09
2.22739e-09
1.84897e-09
1.40894e-09
1.01568e-09
1.0051e-09
1.39386e-09
1.82911e-09
2.20359e-09
2.42007e-09
2.42001e-09
2.20344e-09
1.8289e-09
1.39362e-09
1.00488e-09
1.00865e-09
1.39893e-09
1.83577e-09
2.21153e-09
2.42872e-09
2.42865e-09
2.21133e-09
1.83547e-09
1.39859e-09
1.00834e-09
1.00587e-09
1.39496e-09
1.83055e-09
2.20528e-09
2.42187e-09
2.42178e-09
2.20501e-09
1.83016e-09
1.39452e-09
1.00546e-09
1.00681e-09
1.39629e-09
1.83228e-09
2.20733e-09
2.42409e-09
2.42398e-09
2.207e-09
1.8318e-09
1.39576e-09
1.00631e-09
1.00608e-09
1.39524e-09
1.83089e-09
2.20566e-09
2.42225e-09
2.42212e-09
2.20529e-09
1.83036e-09
1.39465e-09
1.00552e-09
1.00632e-09
1.39558e-09
1.83133e-09
2.20618e-09
2.42281e-09
2.42268e-09
2.20579e-09
1.83078e-09
1.39497e-09
1.00574e-09
1.00611e-09
1.39529e-09
1.83096e-09
2.20574e-09
2.42234e-09
2.42221e-09
2.20538e-09
1.83045e-09
1.39473e-09
1.00558e-09
1.00615e-09
1.39536e-09
1.83107e-09
2.20589e-09
2.42253e-09
2.42243e-09
2.2056e-09
1.83066e-09
1.39491e-09
1.00572e-09
1.00607e-09
1.39527e-09
1.83098e-09
2.20581e-09
2.42247e-09
2.4224e-09
2.20561e-09
1.8307e-09
1.39497e-09
1.00579e-09
1.00607e-09
1.39529e-09
1.83103e-09
2.2059e-09
2.42261e-09
2.42256e-09
2.20579e-09
1.83088e-09
1.39513e-09
1.00592e-09
1.00606e-09
1.39529e-09
1.83105e-09
2.20595e-09
2.42268e-09
2.42267e-09
2.20591e-09
1.831e-09
1.39525e-09
1.00602e-09
1.00609e-09
1.39534e-09
1.83112e-09
2.20605e-09
2.42281e-09
2.42281e-09
2.20606e-09
1.83115e-09
1.39537e-09
1.00612e-09
1.00612e-09
1.39539e-09
1.83119e-09
2.20614e-09
2.42292e-09
2.42293e-09
2.20619e-09
1.83126e-09
1.39546e-09
1.00619e-09
1.00615e-09
1.39544e-09
1.83126e-09
2.20623e-09
2.42303e-09
2.42306e-09
2.20631e-09
1.83137e-09
1.39556e-09
1.00626e-09
1.00615e-09
1.39546e-09
1.8313e-09
2.2063e-09
2.42312e-09
2.42317e-09
2.20642e-09
1.83148e-09
1.39565e-09
1.00634e-09
1.00612e-09
1.39544e-09
1.8313e-09
2.20633e-09
2.42318e-09
2.42325e-09
2.20653e-09
1.83159e-09
1.39575e-09
1.00643e-09
1.00607e-09
1.39539e-09
1.83128e-09
2.20633e-09
2.42321e-09
2.42332e-09
2.20662e-09
1.83169e-09
1.39586e-09
1.00652e-09
1.00603e-09
1.39535e-09
1.83125e-09
2.20632e-09
2.42324e-09
2.42338e-09
2.2067e-09
1.83179e-09
1.39596e-09
1.00661e-09
1.00602e-09
1.39535e-09
1.83125e-09
2.20634e-09
2.42328e-09
2.42344e-09
2.20678e-09
1.83188e-09
1.39604e-09
1.00668e-09
1.00605e-09
1.39538e-09
1.8313e-09
2.20639e-09
2.42334e-09
2.4235e-09
2.20684e-09
1.83194e-09
1.39609e-09
1.00671e-09
1.00611e-09
1.39546e-09
1.83137e-09
2.20646e-09
2.42339e-09
2.42353e-09
2.20685e-09
1.83192e-09
1.39605e-09
1.00666e-09
1.00618e-09
1.39553e-09
1.83143e-09
2.20649e-09
2.42338e-09
2.42347e-09
2.20673e-09
1.83176e-09
1.39587e-09
1.0065e-09
1.00622e-09
1.39555e-09
1.83141e-09
2.20642e-09
2.42323e-09
2.42323e-09
2.20643e-09
1.83141e-09
1.39552e-09
1.00619e-09
1.00621e-09
1.39548e-09
1.83128e-09
2.20619e-09
2.4229e-09
2.4228e-09
2.20592e-09
1.83088e-09
1.39502e-09
1.00577e-09
1.00615e-09
1.39534e-09
1.83103e-09
2.20582e-09
2.42241e-09
2.42221e-09
2.20528e-09
1.83024e-09
1.39445e-09
1.00529e-09
1.00605e-09
1.39515e-09
1.83072e-09
2.20539e-09
2.42186e-09
2.42159e-09
2.20463e-09
1.82964e-09
1.39393e-09
1.00488e-09
1.00596e-09
1.39498e-09
1.83045e-09
2.20501e-09
2.4214e-09
2.42109e-09
2.20415e-09
1.82922e-09
1.39361e-09
1.00465e-09
1.0059e-09
1.39488e-09
1.8303e-09
2.20481e-09
2.42117e-09
2.42088e-09
2.20399e-09
1.82914e-09
1.3936e-09
1.00468e-09
1.00589e-09
1.39489e-09
1.83033e-09
2.20487e-09
2.42127e-09
2.42104e-09
2.20423e-09
1.82943e-09
1.39392e-09
1.00498e-09
1.00593e-09
1.395e-09
1.83053e-09
2.20517e-09
2.42169e-09
2.42155e-09
2.20481e-09
1.83004e-09
1.39449e-09
1.00547e-09
1.00601e-09
1.39518e-09
1.83085e-09
2.20564e-09
2.42229e-09
2.42225e-09
2.20556e-09
1.83077e-09
1.39514e-09
1.006e-09
1.00614e-09
1.39541e-09
1.83121e-09
2.20613e-09
2.42288e-09
2.4229e-09
2.20619e-09
1.83134e-09
1.3956e-09
1.00636e-09
1.00633e-09
1.39568e-09
1.83154e-09
2.2065e-09
2.42325e-09
2.4232e-09
2.2064e-09
1.83142e-09
1.39559e-09
1.00629e-09
1.00661e-09
1.39595e-09
1.83177e-09
2.2066e-09
2.42315e-09
2.42287e-09
2.20582e-09
1.83066e-09
1.39477e-09
1.00553e-09
1.00694e-09
1.39618e-09
1.83178e-09
2.20625e-09
2.42234e-09
2.42158e-09
2.20412e-09
1.82872e-09
1.39283e-09
1.00384e-09
1.00731e-09
1.39631e-09
1.83147e-09
2.2053e-09
2.42063e-09
2.41911e-09
2.20107e-09
1.82541e-09
1.38964e-09
1.0011e-09
1.00776e-09
1.39637e-09
1.83085e-09
2.20374e-09
2.418e-09
2.41547e-09
2.19671e-09
1.82079e-09
1.38529e-09
9.97417e-10
1.00863e-09
1.3968e-09
1.83043e-09
2.20213e-09
2.41502e-09
2.41123e-09
2.1916e-09
1.81539e-09
1.38023e-09
9.93132e-10
1.01e-09
1.39773e-09
1.83041e-09
2.20076e-09
2.41213e-09
2.40699e-09
2.18647e-09
1.81e-09
1.3752e-09
9.8886e-10
1.01317e-09
1.40083e-09
1.8328e-09
2.20184e-09
2.41154e-09
2.40474e-09
2.18297e-09
1.80587e-09
1.37108e-09
9.8515e-10
1.01546e-09
1.40291e-09
1.83418e-09
2.20214e-09
2.41062e-09
2.40279e-09
2.18035e-09
1.80305e-09
1.36838e-09
9.82783e-10
1.02361e-09
1.41233e-09
1.84393e-09
2.21112e-09
2.41783e-09
2.40771e-09
2.18297e-09
1.80385e-09
1.36781e-09
9.81508e-10
)
;
    }
    inlet
    {
        type            calculated;
        value           uniform 0;
    }
    outlet
    {
        type            calculated;
        value           uniform 0;
    }
}


// ************************************************************************* //
