/*--------------------------------*- C++ -*----------------------------------*\
| =========                 |                                                 |
| \\      /  F ield         | OpenFOAM: The Open Source CFD Toolbox           |
|  \\    /   O peration     | Version:  2406                                  |
|   \\  /    A nd           | Website:  www.openfoam.com                      |
|    \\/     M anipulation  |                                                 |
\*---------------------------------------------------------------------------*/
FoamFile
{
    version     2.0;
    format      ascii;
    arch        "LSB;label=32;scalar=64";
    class       volSymmTensorField;
    location    "1.5";
    object      turbulenceProperties:devReff;
}
// * * * * * * * * * * * * * * * * * * * * * * * * * * * * * * * * * * * * * //

dimensions      [0 2 -2 0 0 0 0];

internalField   nonuniform List<symmTensor> 
25000
(
(0.0299563 -0.0224532 -0.0712219 0.0299563 -0.0712219 -0.0599126)
(0.0517356 -0.0117214 -0.0452862 0.0323427 -0.0646243 -0.0840783)
(0.059272 -0.00643009 -0.0276441 0.0382213 -0.0555026 -0.0974933)
(0.0629758 -0.00293756 -0.0148553 0.0419236 -0.0491107 -0.104899)
(0.0645706 -0.000869115 -0.00466902 0.0437114 -0.0459722 -0.108282)
(0.0645707 0.000869124 0.00466892 0.0437114 -0.0459722 -0.108282)
(0.0629758 0.00293756 0.0148552 0.0419236 -0.0491107 -0.104899)
(0.059272 0.0064301 0.027644 0.0382213 -0.0555026 -0.0974933)
(0.0517357 0.0117214 0.0452861 0.0323427 -0.0646243 -0.0840784)
(0.0299564 0.0224532 0.0712219 0.0299564 -0.0712219 -0.0599127)
(0.0323427 -0.0117214 -0.0646243 0.0517356 -0.0452861 -0.0840783)
(0.0533623 -0.00548257 -0.036388 0.0533624 -0.036388 -0.106725)
(0.0599938 -0.00298884 -0.0199666 0.0562603 -0.0302356 -0.116254)
(0.0628635 -0.00133092 -0.0100323 0.0578618 -0.0263915 -0.120725)
(0.0639856 -0.000367779 -0.00305294 0.0585799 -0.0245581 -0.122566)
(0.0639856 0.000367786 0.00305286 0.0585799 -0.0245581 -0.122566)
(0.0628635 0.00133092 0.0100323 0.0578618 -0.0263915 -0.120725)
(0.0599938 0.00298884 0.0199665 0.0562603 -0.0302356 -0.116254)
(0.0533624 0.00548257 0.0363879 0.0533624 -0.036388 -0.106725)
(0.0323427 0.0117214 0.0646243 0.0517357 -0.0452861 -0.0840784)
(0.0382213 -0.0064301 -0.0555026 0.059272 -0.027644 -0.0974933)
(0.0562603 -0.00298884 -0.0302357 0.0599938 -0.0199665 -0.116254)
(0.0618153 -0.0015802 -0.0158052 0.0618153 -0.0158052 -0.123631)
(0.0638589 -0.000657376 -0.00756058 0.0628412 -0.0135042 -0.1267)
(0.0645098 -0.000165324 -0.0022343 0.0632817 -0.0124684 -0.127791)
(0.0645098 0.000165329 0.00223423 0.0632817 -0.0124684 -0.127791)
(0.0638589 0.000657379 0.0075605 0.0628412 -0.0135042 -0.1267)
(0.0618153 0.0015802 0.0158052 0.0618153 -0.0158052 -0.123631)
(0.0562603 0.00298884 0.0302356 0.0599938 -0.0199665 -0.116254)
(0.0382213 0.00643009 0.0555026 0.059272 -0.0276441 -0.0974933)
(0.0419235 -0.00293756 -0.0491107 0.0629758 -0.0148552 -0.104899)
(0.0578618 -0.00133092 -0.0263915 0.0628635 -0.0100323 -0.120725)
(0.0628412 -0.000657377 -0.0135042 0.0638589 -0.00756053 -0.1267)
(0.0644339 -0.000235842 -0.00630027 0.0644339 -0.00630022 -0.128868)
(0.0648108 -4.81903e-05 -0.00183228 0.0646731 -0.00576758 -0.129484)
(0.0648108 4.81925e-05 0.00183221 0.0646731 -0.00576758 -0.129484)
(0.0644339 0.000235843 0.00630019 0.0644339 -0.00630022 -0.128868)
(0.0628412 0.000657378 0.0135042 0.0638589 -0.00756053 -0.1267)
(0.0578618 0.00133092 0.0263915 0.0628635 -0.0100323 -0.120725)
(0.0419236 0.00293756 0.0491107 0.0629758 -0.0148552 -0.104899)
(0.0437114 -0.00086912 -0.0459723 0.0645706 -0.00466895 -0.108282)
(0.0585799 -0.000367781 -0.0245581 0.0639856 -0.00305289 -0.122566)
(0.0632817 -0.000165326 -0.0124685 0.0645098 -0.00223425 -0.127791)
(0.0646731 -4.81908e-05 -0.00576763 0.0648108 -0.00183223 -0.129484)
(0.0649272 -6.30762e-06 -0.00166863 0.0649272 -0.00166858 -0.129854)
(0.0649272 6.30823e-06 0.00166855 0.0649272 -0.00166858 -0.129854)
(0.0646731 4.81915e-05 0.00576755 0.0648108 -0.00183223 -0.129484)
(0.0632817 0.000165326 0.0124684 0.0645098 -0.00223425 -0.127791)
(0.0585799 0.000367782 0.024558 0.0639856 -0.00305288 -0.122566)
(0.0437114 0.000869121 0.0459722 0.0645707 -0.00466895 -0.108282)
(0.0437114 0.000869122 -0.0459723 0.0645706 0.00466899 -0.108282)
(0.0585799 0.000367784 -0.0245581 0.0639856 0.00305292 -0.122566)
(0.0632817 0.000165327 -0.0124685 0.0645098 0.00223428 -0.127791)
(0.0646731 4.81915e-05 -0.00576763 0.0648108 0.00183226 -0.129484)
(0.0649272 6.30752e-06 -0.00166863 0.0649272 0.0016686 -0.129854)
(0.0649272 -6.30858e-06 0.00166855 0.0649272 0.0016686 -0.129854)
(0.0646731 -4.8192e-05 0.00576756 0.0648108 0.00183226 -0.129484)
(0.0632817 -0.000165327 0.0124684 0.0645098 0.00223428 -0.127791)
(0.0585799 -0.000367783 0.024558 0.0639856 0.00305292 -0.122566)
(0.0437114 -0.000869119 0.0459722 0.0645707 0.00466899 -0.108282)
(0.0419235 0.00293756 -0.0491107 0.0629758 0.0148553 -0.104899)
(0.0578618 0.00133092 -0.0263915 0.0628635 0.0100323 -0.120725)
(0.0628412 0.000657379 -0.0135042 0.0638589 0.00756056 -0.1267)
(0.0644339 0.000235842 -0.00630027 0.0644339 0.00630025 -0.128868)
(0.0648108 4.81901e-05 -0.00183228 0.0646731 0.00576761 -0.129484)
(0.0648108 -4.81929e-05 0.00183221 0.0646731 0.00576761 -0.129484)
(0.0644339 -0.000235844 0.0063002 0.0644339 0.00630025 -0.128868)
(0.0628412 -0.000657379 0.0135042 0.0638589 0.00756056 -0.1267)
(0.0578618 -0.00133092 0.0263915 0.0628635 0.0100323 -0.120725)
(0.0419236 -0.00293756 0.0491107 0.0629758 0.0148553 -0.104899)
(0.0382212 0.0064301 -0.0555026 0.059272 0.0276441 -0.0974933)
(0.0562603 0.00298884 -0.0302357 0.0599938 0.0199666 -0.116254)
(0.0618153 0.0015802 -0.0158052 0.0618153 0.0158052 -0.123631)
(0.0638589 0.000657377 -0.00756058 0.0628412 0.0135042 -0.1267)
(0.0645098 0.000165324 -0.0022343 0.0632817 0.0124685 -0.127791)
(0.0645098 -0.000165329 0.00223423 0.0632817 0.0124685 -0.127791)
(0.0638589 -0.00065738 0.00756051 0.0628412 0.0135042 -0.1267)
(0.0618153 -0.0015802 0.0158052 0.0618153 0.0158052 -0.123631)
(0.0562603 -0.00298884 0.0302356 0.0599938 0.0199666 -0.116254)
(0.0382213 -0.00643009 0.0555026 0.059272 0.0276441 -0.0974933)
(0.0323426 0.0117214 -0.0646243 0.0517356 0.0452861 -0.0840783)
(0.0533623 0.00548257 -0.036388 0.0533623 0.036388 -0.106725)
(0.0599938 0.00298884 -0.0199666 0.0562603 0.0302356 -0.116254)
(0.0628635 0.00133092 -0.0100323 0.0578618 0.0263915 -0.120725)
(0.0639856 0.000367779 -0.00305294 0.0585799 0.0245581 -0.122566)
(0.0639856 -0.000367786 0.00305286 0.0585799 0.0245581 -0.122566)
(0.0628635 -0.00133092 0.0100323 0.0578618 0.0263915 -0.120725)
(0.0599938 -0.00298884 0.0199665 0.0562603 0.0302356 -0.116254)
(0.0533624 -0.00548257 0.0363879 0.0533623 0.036388 -0.106725)
(0.0323427 -0.0117214 0.0646243 0.0517356 0.0452861 -0.0840783)
(0.0299563 0.0224532 -0.0712219 0.0299563 0.0712219 -0.0599126)
(0.0517356 0.0117214 -0.0452862 0.0323426 0.0646243 -0.0840783)
(0.059272 0.0064301 -0.0276441 0.0382212 0.0555026 -0.0974933)
(0.0629758 0.00293756 -0.0148553 0.0419235 0.0491107 -0.104899)
(0.0645706 0.000869115 -0.00466902 0.0437114 0.0459723 -0.108282)
(0.0645707 -0.000869126 0.00466892 0.0437114 0.0459723 -0.108282)
(0.0629758 -0.00293757 0.0148552 0.0419235 0.0491107 -0.104899)
(0.059272 -0.0064301 0.027644 0.0382213 0.0555026 -0.0974933)
(0.0517357 -0.0117214 0.0452861 0.0323427 0.0646243 -0.0840783)
(0.0299563 -0.0224532 0.0712219 0.0299563 0.0712219 -0.0599127)
(-0.000346278 -0.0176336 -0.109334 -0.000346222 -0.109334 0.0006925)
(0.0130362 -0.0158517 -0.0753242 0.000864799 -0.107229 -0.013901)
(0.022532 -0.0121473 -0.0477167 0.00293129 -0.0951952 -0.0254633)
(0.0297989 -0.00758704 -0.0260273 0.00446532 -0.0852128 -0.0342643)
(0.0334956 -0.00254406 -0.0082218 0.00529113 -0.0798892 -0.0387867)
(0.0334956 0.00254411 0.00822157 0.00529115 -0.0798892 -0.0387868)
(0.029799 0.00758708 0.0260271 0.00446538 -0.0852128 -0.0342644)
(0.0225321 0.0121473 0.0477165 0.00293139 -0.0951951 -0.0254635)
(0.0130363 0.0158516 0.075324 0.000864919 -0.107229 -0.0139013)
(-0.000346078 0.0176335 0.109334 -0.000346093 -0.109334 0.000692171)
(0.000864747 -0.0158517 -0.107229 0.0130362 -0.0753241 -0.013901)
(0.0167973 -0.0142716 -0.0636986 0.0167974 -0.0636985 -0.0335947)
(0.0286922 -0.0106815 -0.0347538 0.0200798 -0.052638 -0.048772)
(0.0365377 -0.00647936 -0.0168853 0.0221462 -0.0444211 -0.058684)
(0.0401445 -0.00215615 -0.00499883 0.0231478 -0.0401317 -0.0632923)
(0.0401445 0.00215619 0.00499862 0.0231478 -0.0401317 -0.0632923)
(0.0365378 0.00647939 0.0168851 0.0221463 -0.0444211 -0.0586841)
(0.0286923 0.0106815 0.0347536 0.0200798 -0.0526379 -0.0487721)
(0.0167975 0.0142716 0.0636984 0.0167975 -0.0636984 -0.033595)
(0.000864936 0.0158516 0.107229 0.0130363 -0.0753241 -0.0139013)
(0.00293122 -0.0121473 -0.0951953 0.022532 -0.0477166 -0.0254633)
(0.0200797 -0.0106815 -0.0526381 0.0286922 -0.0347537 -0.0487719)
(0.0326131 -0.00764457 -0.025719 0.0326131 -0.0257189 -0.0652261)
(0.0398865 -0.00449383 -0.0110618 0.0346349 -0.0198743 -0.0745213)
(0.0430418 -0.00148016 -0.00300646 0.0355699 -0.0170115 -0.0786117)
(0.0430418 0.00148018 0.00300628 0.0355699 -0.0170115 -0.0786117)
(0.0398865 0.00449385 0.0110616 0.0346349 -0.0198743 -0.0745214)
(0.0326131 0.00764459 0.0257188 0.0326131 -0.0257189 -0.0652263)
(0.0200799 0.0106815 0.0526379 0.0286923 -0.0347537 -0.0487721)
(0.00293141 0.0121473 0.0951951 0.0225321 -0.0477165 -0.0254635)
(0.00446523 -0.00758708 -0.0852129 0.0297989 -0.0260271 -0.0342641)
(0.0221462 -0.00647938 -0.0444212 0.0365377 -0.0168852 -0.0586839)
(0.0346348 -0.00449384 -0.0198744 0.0398865 -0.0110616 -0.0745213)
(0.0415446 -0.00260286 -0.00758098 0.0415446 -0.00758086 -0.0830892)
(0.0445168 -0.000856451 -0.00184207 0.0423564 -0.00592325 -0.0868732)
(0.0445168 0.000856467 0.00184191 0.0423564 -0.00592325 -0.0868732)
(0.0415446 0.00260288 0.00758081 0.0415446 -0.00758086 -0.0830892)
(0.0346349 0.00449385 0.0198742 0.0398865 -0.0110616 -0.0745214)
(0.0221463 0.00647938 0.044421 0.0365378 -0.0168852 -0.0586841)
(0.00446541 0.00758707 0.0852127 0.029799 -0.0260271 -0.0342644)
(0.00529101 -0.00254409 -0.0798893 0.0334956 -0.00822164 -0.0387866)
(0.0231477 -0.00215617 -0.0401318 0.0401444 -0.00499868 -0.0632922)
(0.0355699 -0.00148017 -0.0170117 0.0430418 -0.00300634 -0.0786116)
(0.0423564 -0.000856458 -0.00592337 0.0445168 -0.00184196 -0.0868732)
(0.0452763 -0.000282848 -0.00129202 0.0452763 -0.00129191 -0.0905526)
(0.0452763 0.000282854 0.00129186 0.0452763 -0.00129191 -0.0905526)
(0.0423564 0.000856464 0.00592321 0.0445168 -0.00184195 -0.0868732)
(0.0355699 0.00148017 0.0170115 0.0430418 -0.00300633 -0.0786117)
(0.0231479 0.00215618 0.0401317 0.0401445 -0.00499868 -0.0632924)
(0.0052912 0.00254409 0.0798891 0.0334957 -0.00822163 -0.0387868)
(0.005291 0.00254408 -0.0798893 0.0334956 0.00822174 -0.0387866)
(0.0231477 0.00215616 -0.0401318 0.0401444 0.00499877 -0.0632922)
(0.0355698 0.00148016 -0.0170117 0.0430418 0.00300641 -0.0786116)
(0.0423564 0.000856455 -0.00592337 0.0445168 0.00184203 -0.0868732)
(0.0452763 0.000282848 -0.00129202 0.0452763 0.00129198 -0.0905526)
(0.0452763 -0.000282851 0.00129186 0.0452763 0.00129198 -0.0905526)
(0.0423564 -0.000856457 0.00592321 0.0445168 0.00184203 -0.0868732)
(0.0355699 -0.00148016 0.0170115 0.0430418 0.00300641 -0.0786117)
(0.0231479 -0.00215616 0.0401317 0.0401445 0.00499877 -0.0632923)
(0.00529119 -0.00254407 0.0798891 0.0334956 0.00822174 -0.0387868)
(0.0044652 0.00758707 -0.0852129 0.0297989 0.0260272 -0.0342641)
(0.0221461 0.00647937 -0.0444212 0.0365377 0.0168853 -0.0586839)
(0.0346348 0.00449383 -0.0198744 0.0398865 0.0110617 -0.0745213)
(0.0415446 0.00260286 -0.00758098 0.0415446 0.00758094 -0.0830892)
(0.0445168 0.000856452 -0.00184207 0.0423564 0.00592332 -0.0868732)
(0.0445168 -0.000856464 0.00184191 0.0423564 0.00592332 -0.0868732)
(0.0415446 -0.00260287 0.00758082 0.0415446 0.00758093 -0.0830892)
(0.0346349 -0.00449384 0.0198742 0.0398865 0.0110617 -0.0745214)
(0.0221463 -0.00647937 0.044421 0.0365378 0.0168853 -0.058684)
(0.00446539 -0.00758705 0.0852127 0.029799 0.0260272 -0.0342644)
(0.00293118 0.0121473 -0.0951953 0.022532 0.0477167 -0.0254632)
(0.0200797 0.0106815 -0.0526381 0.0286922 0.0347538 -0.0487719)
(0.032613 0.00764457 -0.025719 0.032613 0.025719 -0.0652261)
(0.0398865 0.00449383 -0.0110618 0.0346348 0.0198744 -0.0745213)
(0.0430418 0.00148016 -0.00300646 0.0355699 0.0170116 -0.0786116)
(0.0430418 -0.00148018 0.00300628 0.0355699 0.0170116 -0.0786116)
(0.0398865 -0.00449385 0.0110616 0.0346349 0.0198743 -0.0745214)
(0.0326131 -0.00764458 0.0257188 0.0326131 0.025719 -0.0652262)
(0.0200798 -0.0106815 0.0526379 0.0286922 0.0347538 -0.0487721)
(0.00293137 -0.0121473 0.0951951 0.0225321 0.0477166 -0.0254635)
(0.000864693 0.0158517 -0.107229 0.0130362 0.0753242 -0.0139008)
(0.0167973 0.0142716 -0.0636986 0.0167973 0.0636985 -0.0335946)
(0.0286922 0.0106815 -0.0347538 0.0200797 0.052638 -0.0487719)
(0.0365377 0.00647936 -0.0168853 0.0221462 0.0444212 -0.0586839)
(0.0401444 0.00215615 -0.00499883 0.0231478 0.0401318 -0.0632922)
(0.0401445 -0.00215619 0.00499862 0.0231478 0.0401318 -0.0632922)
(0.0365378 -0.00647939 0.0168851 0.0221462 0.0444211 -0.058684)
(0.0286923 -0.0106815 0.0347536 0.0200798 0.052638 -0.048772)
(0.0167974 -0.0142716 0.0636984 0.0167974 0.0636985 -0.0335948)
(0.000864885 -0.0158516 0.107229 0.0130363 0.0753242 -0.0139011)
(-0.000346334 0.0176336 -0.109334 -0.000346309 0.109334 0.000692643)
(0.0130361 0.0158517 -0.0753242 0.000864715 0.107229 -0.0139009)
(0.022532 0.0121473 -0.0477167 0.00293121 0.0951952 -0.0254632)
(0.0297989 0.00758705 -0.0260273 0.00446523 0.0852129 -0.0342641)
(0.0334956 0.00254406 -0.0082218 0.00529104 0.0798893 -0.0387866)
(0.0334956 -0.00254411 0.00822157 0.00529106 0.0798893 -0.0387867)
(0.029799 -0.00758709 0.0260271 0.00446529 0.0852128 -0.0342643)
(0.0225321 -0.0121473 0.0477165 0.0029313 0.0951952 -0.0254634)
(0.0130363 -0.0158517 0.075324 0.000864827 0.107229 -0.0139011)
(-0.000346128 -0.0176335 0.109334 -0.000346192 0.109334 0.000692321)
(-0.00822248 -0.015605 -0.149044 -0.00822234 -0.149044 0.0164448)
(0.00155576 -0.0119025 -0.115965 -0.00932378 -0.1594 0.00776802)
(0.00737383 -0.00905229 -0.080569 -0.00845935 -0.153709 0.00108552)
(0.0120089 -0.00568148 -0.0470856 -0.00775268 -0.146888 -0.00425624)
(0.0145489 -0.00192833 -0.0154485 -0.00736467 -0.142943 -0.0071842)
(0.0145489 0.00192843 0.0154479 -0.00736463 -0.142943 -0.00718429)
(0.0120091 0.00568157 0.047085 -0.00775256 -0.146888 -0.0042565)
(0.00737405 0.00905234 0.0805684 -0.00845916 -0.153709 0.0010851)
(0.00155609 0.0119025 0.115965 -0.00932353 -0.1594 0.00776744)
(-0.00822204 0.0156049 0.149044 -0.00822208 -0.149044 0.0164441)
(-0.00932389 -0.0119025 -0.1594 0.00155583 -0.115965 0.00776806)
(0.00210185 -0.00974298 -0.111467 0.00210195 -0.111466 -0.0042038)
(0.00979732 -0.00760089 -0.0712788 0.0039289 -0.103807 -0.0137262)
(0.01574 -0.00480336 -0.0395889 0.0053103 -0.0973343 -0.0210503)
(0.0189157 -0.00163839 -0.0126783 0.00606772 -0.093808 -0.0249834)
(0.0189158 0.00163848 0.0126777 0.00606775 -0.093808 -0.0249835)
(0.0157401 0.00480344 0.0395883 0.00531039 -0.0973343 -0.0210505)
(0.00979754 0.00760094 0.0712783 0.00392905 -0.103807 -0.0137266)
(0.00210217 0.009743 0.111466 0.00210214 -0.111466 -0.00420431)
(-0.0093235 0.0119025 0.1594 0.00155607 -0.115965 0.00776743)
(-0.0084595 -0.00905234 -0.15371 0.00737383 -0.0805687 0.00108567)
(0.00392877 -0.00760091 -0.103807 0.00979735 -0.0712785 -0.0137261)
(0.0129932 -0.00582858 -0.0642863 0.0129932 -0.064286 -0.0259864)
(0.019844 -0.00363422 -0.0347087 0.0153284 -0.0594813 -0.0351724)
(0.0234341 -0.00123482 -0.0109294 0.0165644 -0.0569943 -0.0399985)
(0.0234342 0.00123488 0.0109289 0.0165644 -0.0569942 -0.0399986)
(0.0198441 0.00363428 0.0347082 0.0153285 -0.0594813 -0.0351726)
(0.0129934 0.00582862 0.0642858 0.0129934 -0.0642859 -0.0259867)
(0.0039291 0.00760093 0.103806 0.00979752 -0.0712784 -0.0137266)
(-0.00845911 0.00905232 0.153709 0.00737405 -0.0805686 0.00108505)
(-0.00775288 -0.00568156 -0.146888 0.0120089 -0.0470852 -0.004256)
(0.00531013 -0.00480341 -0.0973346 0.01574 -0.0395885 -0.0210501)
(0.0153283 -0.00363424 -0.0594817 0.019844 -0.0347083 -0.0351723)
(0.0227442 -0.00224568 -0.0316166 0.0227442 -0.0316163 -0.0454884)
(0.0265162 -0.000760695 -0.00984206 0.0241648 -0.0300465 -0.050681)
(0.0265163 0.000760739 0.00984158 0.0241648 -0.0300465 -0.0506811)
(0.0227443 0.00224572 0.0316162 0.0227443 -0.0316163 -0.0454886)
(0.0153285 0.00363427 0.0594812 0.0198441 -0.0347083 -0.0351726)
(0.00531045 0.00480342 0.0973342 0.0157402 -0.0395885 -0.0210506)
(-0.00775249 0.00568153 0.146888 0.0120091 -0.0470851 -0.00425659)
(-0.00736493 -0.0019284 -0.142943 0.0145488 -0.0154481 -0.00718384)
(0.0060675 -0.00163844 -0.0938083 0.0189157 -0.0126779 -0.0249832)
(0.0165643 -0.00123486 -0.0569946 0.0234341 -0.0109291 -0.0399983)
(0.0241647 -0.000760715 -0.0300469 0.0265162 -0.00984172 -0.0506809)
(0.0279116 -0.000257706 -0.00929847 0.0279116 -0.00929814 -0.0558231)
(0.0279116 0.000257723 0.00929801 0.0279116 -0.00929813 -0.0558232)
(0.0241648 0.00076073 0.0300464 0.0265163 -0.00984171 -0.0506811)
(0.0165645 0.00123487 0.0569941 0.0234342 -0.0109291 -0.0399987)
(0.00606783 0.00163845 0.0938079 0.0189158 -0.0126779 -0.0249836)
(-0.00736454 0.0019284 0.142943 0.014549 -0.015448 -0.00718442)
(-0.00736495 0.00192837 -0.142943 0.0145488 0.0154483 -0.0071838)
(0.00606749 0.00163842 -0.0938084 0.0189156 0.0126781 -0.0249831)
(0.0165643 0.00123484 -0.0569946 0.0234341 0.0109293 -0.0399983)
(0.0241647 0.000760704 -0.0300469 0.0265162 0.00984193 -0.0506809)
(0.0279116 0.000257704 -0.00929847 0.0279116 0.00929834 -0.0558231)
(0.0279116 -0.000257715 0.00929801 0.0279116 0.00929834 -0.0558232)
(0.0241648 -0.000760712 0.0300464 0.0265163 0.00984193 -0.0506811)
(0.0165645 -0.00123484 0.0569941 0.0234342 0.0109293 -0.0399986)
(0.00606781 -0.00163842 0.0938079 0.0189158 0.0126781 -0.0249836)
(-0.00736456 -0.00192836 0.142943 0.0145489 0.0154483 -0.00718438)
(-0.00775294 0.00568153 -0.146888 0.0120088 0.0470855 -0.00425589)
(0.00531009 0.00480339 -0.0973347 0.01574 0.0395888 -0.02105)
(0.0153283 0.00363423 -0.0594817 0.0198439 0.0347086 -0.0351722)
(0.0227441 0.00224567 -0.0316166 0.0227442 0.0316165 -0.0454883)
(0.0265162 0.000760694 -0.00984206 0.0241647 0.0300467 -0.0506809)
(0.0265163 -0.000760732 0.00984159 0.0241647 0.0300467 -0.050681)
(0.0227443 -0.00224571 0.0316162 0.0227442 0.0316165 -0.0454885)
(0.0153285 -0.00363425 0.0594812 0.019844 0.0347085 -0.0351725)
(0.00531041 -0.00480339 0.0973342 0.0157401 0.0395887 -0.0210505)
(-0.00775254 -0.0056815 0.146888 0.012009 0.0470854 -0.00425647)
(-0.00845958 0.00905234 -0.15371 0.00737374 0.0805689 0.00108584)
(0.00392871 0.0076009 -0.103807 0.00979726 0.0712787 -0.013726)
(0.0129931 0.00582857 -0.0642863 0.0129931 0.0642862 -0.0259862)
(0.0198439 0.00363422 -0.0347087 0.0153283 0.0594815 -0.0351722)
(0.0234341 0.00123482 -0.0109294 0.0165643 0.0569945 -0.0399984)
(0.0234341 -0.00123488 0.0109289 0.0165643 0.0569944 -0.0399985)
(0.019844 -0.00363427 0.0347082 0.0153284 0.0594815 -0.0351724)
(0.0129933 -0.00582861 0.0642858 0.0129933 0.0642861 -0.0259866)
(0.00392903 -0.00760091 0.103806 0.00979742 0.0712786 -0.0137265)
(-0.00845919 -0.0090523 0.153709 0.00737395 0.0805688 0.00108524)
(-0.00932399 0.0119025 -0.1594 0.00155569 0.115965 0.00776831)
(0.00210177 0.00974298 -0.111467 0.0021018 0.111467 -0.00420357)
(0.00979725 0.00760089 -0.0712788 0.00392876 0.103807 -0.013726)
(0.01574 0.00480336 -0.0395889 0.00531015 0.0973345 -0.0210501)
(0.0189157 0.00163839 -0.0126783 0.00606757 0.0938082 -0.0249832)
(0.0189157 -0.00163847 0.0126777 0.0060676 0.0938082 -0.0249833)
(0.0157401 -0.00480343 0.0395884 0.00531024 0.0973345 -0.0210503)
(0.00979747 -0.00760094 0.0712783 0.0039289 0.103807 -0.0137264)
(0.00210209 -0.009743 0.111466 0.00210199 0.111467 -0.00420408)
(-0.0093236 -0.0119025 0.1594 0.00155591 0.115965 0.00776769)
(-0.00822258 0.0156051 -0.149044 -0.00822253 0.149044 0.0164451)
(0.00155566 0.0119025 -0.115965 -0.00932396 0.1594 0.0077683)
(0.00737374 0.00905231 -0.0805691 -0.00845953 0.15371 0.00108579)
(0.0120088 0.0056815 -0.0470856 -0.00775287 0.146888 -0.00425598)
(0.0145488 0.00192834 -0.0154485 -0.00736486 0.142943 -0.00718394)
(0.0145488 -0.00192844 0.0154479 -0.00736482 0.142943 -0.00718402)
(0.012009 -0.00568158 0.047085 -0.00775274 0.146888 -0.00425623)
(0.00737396 -0.00905235 0.0805685 -0.00845934 0.15371 0.00108538)
(0.00155599 -0.0119025 0.115965 -0.00932372 0.1594 0.00776773)
(-0.00822214 -0.015605 0.149044 -0.00822229 0.149044 0.0164444)
(-0.00221812 -0.00431693 -0.153902 -0.00221785 -0.153901 0.00443596)
(0.00015844 -0.00467653 -0.124343 -0.00299593 -0.169419 0.00283749)
(0.00278491 -0.00407462 -0.0893576 -0.00344235 -0.168126 0.000657442)
(0.00509254 -0.00273887 -0.0535641 -0.00368499 -0.164347 -0.00140755)
(0.00640224 -0.000958077 -0.0178177 -0.00377691 -0.161925 -0.00262533)
(0.00640232 0.000958295 0.0178163 -0.00377682 -0.161925 -0.00262551)
(0.0050928 0.00273906 0.0535627 -0.00368473 -0.164346 -0.00140807)
(0.00278535 0.00407473 0.0893562 -0.00344194 -0.168126 0.000656594)
(0.000159125 0.00467655 0.124341 -0.00299542 -0.169419 0.0028363)
(-0.00221722 0.00431679 0.153901 -0.00221731 -0.153901 0.00443453)
(-0.00299614 -0.00467658 -0.16942 0.000158574 -0.124342 0.00283756)
(0.000241505 -0.00498141 -0.125035 0.000241679 -0.125034 -0.000483184)
(0.00410317 -0.00419857 -0.0842003 0.000460125 -0.121138 -0.0045633)
(0.00731962 -0.00276 -0.0486295 0.000769782 -0.117009 -0.0080894)
(0.00909501 -0.00095678 -0.0159091 0.00100661 -0.114613 -0.0101016)
(0.0090951 0.000956961 0.0159079 0.00100668 -0.114613 -0.0101018)
(0.00731988 0.00276016 0.0486283 0.000769979 -0.117009 -0.00808985)
(0.0041036 0.00419868 0.0841991 0.000460436 -0.121138 -0.00456404)
(0.000242152 0.00498147 0.125034 0.000242082 -0.125034 -0.000484234)
(-0.00299534 0.00467653 0.169419 0.000159072 -0.124342 0.00283627)
(-0.00344262 -0.00407473 -0.168127 0.00278489 -0.0893568 0.000657734)
(0.00045989 -0.00419862 -0.121139 0.00410322 -0.0841995 -0.00456311)
(0.00526155 -0.00340188 -0.07993 0.00526166 -0.0799293 -0.0105232)
(0.00917782 -0.00216621 -0.0454305 0.00629553 -0.0767934 -0.0154733)
(0.0113315 -0.000736193 -0.0147544 0.00695774 -0.0751703 -0.0182892)
(0.0113316 0.000736335 0.0147533 0.0069578 -0.0751703 -0.0182894)
(0.00917808 0.00216633 0.0454294 0.0062957 -0.0767933 -0.0154738)
(0.00526198 0.00340196 0.0799289 0.00526193 -0.0799291 -0.0105239)
(0.000460529 0.00419866 0.121138 0.00410358 -0.0841993 -0.00456411)
(-0.00344184 0.00407469 0.168126 0.00278535 -0.0893565 0.000656488)
(-0.00368537 -0.00273903 -0.164347 0.00509243 -0.0535632 -0.00140706)
(0.00076946 -0.0027601 -0.117009 0.00731958 -0.0486288 -0.00808904)
(0.00629533 -0.00216626 -0.076794 0.00917784 -0.0454298 -0.0154732)
(0.0108024 -0.00131296 -0.0435295 0.0108025 -0.0435288 -0.0216048)
(0.0133738 -0.000426832 -0.0141841 0.0118607 -0.042724 -0.0252345)
(0.0133739 0.000426931 0.0141831 0.0118608 -0.042724 -0.0252347)
(0.0108026 0.00131304 0.0435285 0.0108026 -0.0435288 -0.0216053)
(0.00629578 0.00216631 0.076793 0.00917807 -0.0454297 -0.0154738)
(0.000770104 0.00276012 0.117008 0.00731989 -0.0486286 -0.00808999)
(-0.00368459 0.00273899 0.164346 0.00509284 -0.053563 -0.00140825)
(-0.00377741 -0.000958237 -0.161926 0.00640202 -0.0178167 -0.00262461)
(0.00100619 -0.000956899 -0.114614 0.00909488 -0.0159083 -0.0101011)
(0.00695745 -0.000736277 -0.075171 0.0113314 -0.0147536 -0.0182888)
(0.0118605 -0.000426879 -0.0427247 0.0133738 -0.0141834 -0.0252343)
(0.0148936 -0.000134015 -0.0141307 0.0148937 -0.01413 -0.0297873)
(0.0148937 0.000134058 0.0141297 0.0148937 -0.01413 -0.0297875)
(0.0118608 0.000426912 0.0427237 0.0133739 -0.0141834 -0.0252347)
(0.00695792 0.0007363 0.07517 0.0113316 -0.0147536 -0.0182895)
(0.00100684 0.000956912 0.114613 0.00909515 -0.0159082 -0.010102)
(-0.00377663 0.00095823 0.161925 0.00640241 -0.0178166 -0.00262578)
(-0.00377745 0.000958157 -0.161926 0.00640199 0.0178173 -0.00262454)
(0.00100616 0.000956836 -0.114614 0.00909484 0.0159088 -0.010101)
(0.00695743 0.000736232 -0.075171 0.0113314 0.0147541 -0.0182888)
(0.0118605 0.000426853 -0.0427247 0.0133737 0.0141839 -0.0252343)
(0.0148936 0.000134012 -0.0141307 0.0148936 0.0141305 -0.0297872)
(0.0148937 -0.000134034 0.0141297 0.0148937 0.0141305 -0.0297874)
(0.0118608 -0.000426865 0.0427238 0.0133739 0.0141838 -0.0252347)
(0.00695789 -0.000736237 0.07517 0.0113316 0.0147541 -0.0182894)
(0.00100681 -0.000956833 0.114613 0.00909511 0.0159088 -0.0101019)
(-0.00377666 -0.000958136 0.161925 0.00640237 0.0178173 -0.0026257)
(-0.00368548 0.00273897 -0.164347 0.00509232 0.0535638 -0.00140684)
(0.000769376 0.00276004 -0.117009 0.00731948 0.0486293 -0.00808885)
(0.00629525 0.00216622 -0.0767941 0.00917773 0.0454303 -0.015473)
(0.0108023 0.00131294 -0.0435295 0.0108023 0.0435292 -0.0216047)
(0.0133737 0.000426833 -0.0141841 0.0118606 0.0427245 -0.0252343)
(0.0133738 -0.000426912 0.0141831 0.0118606 0.0427245 -0.0252345)
(0.0108026 -0.001313 0.0435285 0.0108025 0.0435292 -0.0216051)
(0.0062957 -0.00216626 0.0767931 0.00917795 0.0454302 -0.0154737)
(0.000770017 -0.00276005 0.117008 0.00731977 0.0486292 -0.00808979)
(-0.0036847 -0.00273892 0.164346 0.00509273 0.0535637 -0.00140802)
(-0.00344279 0.0040747 -0.168127 0.00278471 0.0893573 0.000658086)
(0.000459757 0.00419858 -0.121139 0.00410305 0.0842 -0.0045628)
(0.00526143 0.00340185 -0.07993 0.00526148 0.0799297 -0.0105229)
(0.00917772 0.0021662 -0.0454305 0.00629533 0.0767938 -0.0154731)
(0.0113314 0.000736197 -0.0147544 0.00695754 0.0751707 -0.0182889)
(0.0113315 -0.000736321 0.0147533 0.0069576 0.0751707 -0.0182891)
(0.00917798 -0.00216631 0.0454295 0.0062955 0.0767937 -0.0154735)
(0.00526186 -0.00340192 0.0799289 0.00526174 0.0799296 -0.0105236)
(0.000460391 -0.00419861 0.121138 0.00410339 0.0841999 -0.00456378)
(-0.00344202 -0.00407464 0.168126 0.00278516 0.0893571 0.000656861)
(-0.00299635 0.00467659 -0.16942 0.000158291 0.124342 0.00283806)
(0.000241335 0.0049814 -0.125035 0.000241408 0.125035 -0.000482743)
(0.00410302 0.00419856 -0.0842003 0.000459853 0.121139 -0.00456287)
(0.00731949 0.00276 -0.0486296 0.000769504 0.117009 -0.00808899)
(0.00909489 0.000956786 -0.0159091 0.00100632 0.114614 -0.0101012)
(0.00909498 -0.000956953 0.0159079 0.00100639 0.114614 -0.0101014)
(0.00731974 -0.00276015 0.0486284 0.000769692 0.117009 -0.00808943)
(0.00410345 -0.00419866 0.0841991 0.000460151 0.121138 -0.0045636)
(0.000241974 -0.00498145 0.125034 0.000241794 0.125034 -0.000483768)
(-0.00299557 -0.00467653 0.169419 0.000158768 0.124342 0.0028368)
(-0.00221833 0.004317 -0.153902 -0.00221823 0.153902 0.00443656)
(0.000158236 0.00467657 -0.124343 -0.00299627 0.16942 0.00283803)
(0.00278471 0.00407465 -0.0893577 -0.00344269 0.168126 0.000657976)
(0.00509237 0.0027389 -0.0535641 -0.00368534 0.164347 -0.00140703)
(0.00640207 0.000958089 -0.0178177 -0.00377726 0.161926 -0.00262482)
(0.00640216 -0.000958298 0.0178163 -0.00377717 0.161926 -0.00262499)
(0.00509262 -0.00273908 0.0535628 -0.00368508 0.164347 -0.00140754)
(0.00278514 -0.00407475 0.0893563 -0.00344229 0.168126 0.000657151)
(0.000158908 -0.00467658 0.124342 -0.00299578 0.169419 0.00283687)
(-0.00221745 -0.00431686 0.153901 -0.00221772 0.153902 0.00443517)
(-0.00210165 -0.00322459 -0.158947 -0.00210111 -0.158946 0.00420275)
(-0.000297438 -0.00257322 -0.130731 -0.00260569 -0.177351 0.00290312)
(0.000889609 -0.00207027 -0.0954398 -0.00269858 -0.178359 0.00180897)
(0.0019452 -0.00134755 -0.0579096 -0.00275508 -0.176216 0.00080988)
(0.00256246 -0.000465916 -0.0193939 -0.00277436 -0.174648 0.0002119)
(0.00256261 0.0004663 0.019391 -0.0027742 -0.174648 0.000211586)
(0.00194567 0.00134788 0.0579067 -0.00275461 -0.176216 0.000808941)
(0.000890413 0.00207046 0.095437 -0.00269786 -0.178358 0.00180745)
(-0.000296181 0.00257325 0.130728 -0.00260479 -0.17735 0.00290097)
(-0.00209998 0.00322434 0.158945 -0.00210017 -0.158945 0.00420015)
(-0.00260609 -0.00257331 -0.177352 -0.000297166 -0.130729 0.00290326)
(-0.000486114 -0.00232246 -0.134203 -0.000485792 -0.134202 0.000971906)
(0.00119826 -0.00196111 -0.0925849 -0.000328738 -0.132493 -0.000869525)
(0.00269429 -0.00128882 -0.0544892 -0.000168164 -0.129846 -0.00252613)
(0.00355173 -0.000444112 -0.0180132 -4.66198e-05 -0.128194 -0.00350511)
(0.00355189 0.000444452 0.0180107 -4.64986e-05 -0.128194 -0.00350539)
(0.00269476 0.00128912 0.0544867 -0.00016781 -0.129846 -0.00252695)
(0.00119904 0.00196133 0.0925824 -0.000328177 -0.132493 -0.000870864)
(-0.000484946 0.00232257 0.134201 -0.000485066 -0.134201 0.000970012)
(-0.00260465 0.00257321 0.17735 -0.000296276 -0.130728 0.00290092)
(-0.00269908 -0.00207046 -0.17836 0.000889579 -0.0954382 0.00180951)
(-0.000329162 -0.0019612 -0.132494 0.00119836 -0.0925835 -0.000869196)
(0.00180521 -0.00162349 -0.0900771 0.00180541 -0.0900758 -0.00361062)
(0.0036753 -0.00102419 -0.0524166 0.00234315 -0.0880409 -0.00601845)
(0.00472906 -0.000339758 -0.0172537 0.0027108 -0.086915 -0.00743987)
(0.00472921 0.000340031 0.0172515 0.00271091 -0.086915 -0.00744012)
(0.00367576 0.00102442 0.0524143 0.00234346 -0.0880407 -0.00601922)
(0.00180598 0.00162365 0.0900749 0.0018059 -0.0900754 -0.00361188)
(-0.000328017 0.00196129 0.132492 0.001199 -0.092583 -0.000870988)
(-0.00269768 0.00207039 0.178357 0.000890429 -0.0954377 0.00180725)
(-0.00275576 -0.00134783 -0.176217 0.00194499 -0.0579078 0.000810772)
(-0.000168741 -0.001289 -0.129847 0.00269423 -0.0544876 -0.00252549)
(0.00234279 -0.00102428 -0.0880422 0.00367534 -0.0524151 -0.00601813)
(0.00453974 -0.000574389 -0.0511684 0.0045399 -0.051167 -0.00907964)
(0.00583121 -0.000163549 -0.0169624 0.00514205 -0.0505587 -0.0109733)
(0.00583137 0.000163738 0.0169603 0.00514214 -0.0505587 -0.0109735)
(0.00454022 0.000574532 0.0511664 0.00454015 -0.0511669 -0.00908037)
(0.0023436 0.00102438 0.0880402 0.00367575 -0.0524149 -0.00601934)