/*--------------------------------*- C++ -*----------------------------------*\
| =========                 |                                                 |
| \\      /  F ield         | OpenFOAM: The Open Source CFD Toolbox           |
|  \\    /   O peration     | Version:  2406                                  |
|   \\  /    A nd           | Website:  www.openfoam.com                      |
|    \\/     M anipulation  |                                                 |
\*---------------------------------------------------------------------------*/
FoamFile
{
    version     2.0;
    format      ascii;
    arch        "LSB;label=32;scalar=64";
    class       volSymmTensorField;
    location    "1.5";
    object      turbulenceProperties:R;
}
// * * * * * * * * * * * * * * * * * * * * * * * * * * * * * * * * * * * * * //

dimensions      [0 2 -2 0 0 0 0];

internalField   uniform (0 -0 -0 0 -0 0);

boundaryField
{
    walls
    {
        type            calculated;
        value           nonuniform List<symmTensor> 
2000
(
(-8.57814e-08 7.13915e-08 2.96519e-07 -5.45552e-08 -2.50416e-07 1.40337e-07)
(-1.48118e-07 9.04417e-08 4.6866e-07 -5.04315e-08 -2.88973e-07 1.9855e-07)
(-2.2472e-07 9.40331e-08 6.72753e-07 -3.32467e-08 -2.81247e-07 2.57967e-07)
(-2.95107e-07 7.27076e-08 8.52688e-07 -1.06402e-08 -2.06803e-07 3.05748e-07)
(-3.38005e-07 2.73266e-08 9.58424e-07 5.72804e-09 -7.62257e-08 3.32277e-07)
(-3.38005e-07 -2.73266e-08 9.58424e-07 5.72803e-09 7.62257e-08 3.32277e-07)
(-2.95107e-07 -7.27076e-08 8.52688e-07 -1.06403e-08 2.06803e-07 3.05748e-07)
(-2.2472e-07 -9.40331e-08 6.72753e-07 -3.32467e-08 2.81247e-07 2.57967e-07)
(-1.48118e-07 -9.04417e-08 4.6866e-07 -5.04315e-08 2.88973e-07 1.9855e-07)
(-8.57814e-08 -7.13915e-08 2.96519e-07 -5.45552e-08 2.50416e-07 1.40337e-07)
(-2.65057e-09 1.14305e-09 1.2721e-07 -1.9355e-10 -1.07006e-07 2.84412e-09)
(-4.96873e-09 8.57957e-10 1.94467e-07 2.5049e-10 -1.19432e-07 4.71824e-09)
(-6.63815e-09 9.8186e-10 2.78039e-07 -3.47545e-10 -1.15974e-07 6.98569e-09)
(-8.43989e-09 7.36433e-10 3.54163e-07 -5.23361e-10 -8.57648e-08 8.96325e-09)
(-9.51403e-09 3.15511e-10 3.9976e-07 -6.40881e-10 -3.1757e-08 1.01549e-08)
(-9.51401e-09 -3.15654e-10 3.9976e-07 -6.40904e-10 3.1757e-08 1.01549e-08)
(-8.43983e-09 -7.36547e-10 3.54163e-07 -5.23421e-10 8.57648e-08 8.96325e-09)
(-6.63808e-09 -9.8193e-10 2.78039e-07 -3.47618e-10 1.15974e-07 6.9857e-09)
(-4.96867e-09 -8.57989e-10 1.94467e-07 2.50423e-10 1.19432e-07 4.71824e-09)
(-2.65053e-09 -1.14305e-09 1.2721e-07 -1.93591e-10 1.07006e-07 2.84413e-09)
(-2.81671e-10 -9.7508e-12 4.46159e-08 -1.31556e-10 -3.74021e-08 4.13227e-10)
(-3.72019e-10 -6.89718e-11 6.64966e-08 -2.67713e-10 -4.0702e-08 6.39731e-10)
(-3.80589e-10 -1.5537e-11 9.4454e-08 -5.3554e-10 -3.93216e-08 9.16129e-10)
(-4.6911e-10 3.02154e-11 1.20768e-07 -6.88733e-10 -2.92194e-08 1.15784e-09)
(-5.50538e-10 2.58085e-11 1.36781e-07 -7.51475e-10 -1.08594e-08 1.30201e-09)
(-5.50513e-10 -2.59656e-11 1.36781e-07 -7.51501e-10 1.08594e-08 1.30201e-09)
(-4.69046e-10 -3.03418e-11 1.20767e-07 -6.88799e-10 2.92194e-08 1.15785e-09)
(-3.80512e-10 1.5459e-11 9.44538e-08 -5.3562e-10 3.93215e-08 9.16132e-10)
(-3.71949e-10 6.89355e-11 6.64964e-08 -2.67786e-10 4.07019e-08 6.39735e-10)
(-2.81626e-10 9.74373e-12 4.46157e-08 -1.31604e-10 3.74019e-08 4.1323e-10)
(-8.2972e-11 6.37211e-11 5.83161e-08 5.4308e-11 -4.89408e-08 2.8664e-11)
(-1.88695e-10 4.47571e-11 8.75611e-08 1.32438e-10 -5.36434e-08 5.62565e-11)
(-2.5018e-10 3.98832e-11 1.2442e-07 1.56967e-10 -5.18164e-08 9.32127e-11)
(-3.13439e-10 1.80222e-11 1.58664e-07 1.8579e-10 -3.83895e-08 1.27649e-10)
(-3.43767e-10 7.04089e-12 1.79368e-07 1.93342e-10 -1.42394e-08 1.50425e-10)
(-3.43708e-10 -7.41795e-12 1.79368e-07 1.9328e-10 1.42395e-08 1.50428e-10)
(-3.13287e-10 -1.83266e-11 1.58664e-07 1.8563e-10 3.83895e-08 1.27657e-10)
(-2.49994e-10 -4.00712e-11 1.24419e-07 1.56771e-10 5.18162e-08 9.32229e-11)
(-1.88527e-10 -4.48434e-11 8.75605e-08 1.32259e-10 5.36431e-08 5.62675e-11)
(-8.28658e-11 -6.37372e-11 5.83156e-08 5.41927e-11 4.89404e-08 2.86732e-11)
(-3.30419e-11 -1.09516e-11 4.54847e-08 -3.65352e-11 -3.81434e-08 6.95771e-11)
(-2.43806e-11 -1.21034e-11 6.7915e-08 -7.99439e-11 -4.15785e-08 1.04325e-10)
(-1.48972e-11 6.42763e-12 9.6539e-08 -1.29632e-10 -4.01956e-08 1.44529e-10)
(-2.75204e-11 1.807e-11 1.23379e-07 -1.51286e-10 -2.98528e-08 1.78806e-10)
(-4.33832e-11 9.89333e-12 1.397e-07 -1.55265e-10 -1.10918e-08 1.98648e-10)
(-4.32939e-11 -1.04693e-11 1.397e-07 -1.55358e-10 1.10918e-08 1.98652e-10)
(-2.72885e-11 -1.85352e-11 1.23379e-07 -1.5153e-10 2.98527e-08 1.78818e-10)
(-1.4615e-11 -6.71561e-12 9.6538e-08 -1.2993e-10 4.01953e-08 1.44545e-10)
(-2.41242e-11 1.197e-11 6.7914e-08 -8.02168e-11 4.15779e-08 1.04341e-10)
(-3.28774e-11 1.09255e-11 4.54839e-08 -3.67134e-11 3.81427e-08 6.95909e-11)
(-1.34124e-11 1.43824e-11 4.92612e-08 1.06633e-11 -4.13244e-08 2.74911e-12)
(-3.33689e-11 1.32029e-11 7.37482e-08 2.70062e-11 -4.51645e-08 6.36274e-12)
(-4.77618e-11 1.32303e-11 1.04885e-07 3.64008e-11 -4.3678e-08 1.1361e-11)
(-6.27363e-11 7.90839e-12 1.33998e-07 4.67602e-11 -3.24246e-08 1.59762e-11)
(-7.03685e-11 2.66073e-12 1.51674e-07 5.12485e-11 -1.2043e-08 1.912e-11)
(-7.02084e-11 -3.69229e-12 1.51673e-07 5.10806e-11 1.20431e-08 1.91278e-11)
(-6.23197e-11 -8.74307e-12 1.33996e-07 4.6321e-11 3.24243e-08 1.59987e-11)
(-4.72539e-11 -1.37479e-11 1.04883e-07 3.58641e-11 4.36772e-08 1.13898e-11)
(-3.29075e-11 -1.34418e-11 7.37462e-08 2.65139e-11 4.51634e-08 6.39354e-12)
(-1.31174e-11 -1.44282e-11 4.92595e-08 1.03426e-11 4.1323e-08 2.77486e-12)
(-7.97132e-12 -2.99864e-12 4.61017e-08 -9.6814e-12 -3.8666e-08 1.76527e-11)
(-5.58309e-12 -3.23315e-12 6.89116e-08 -2.08966e-11 -4.21948e-08 2.64797e-11)
(-3.27164e-12 1.24268e-12 9.80122e-08 -3.34747e-11 -4.08137e-08 3.67464e-11)
(-6.31114e-12 4.12189e-12 1.25292e-07 -3.92159e-11 -3.03184e-08 4.5527e-11)
(-1.02015e-11 1.81913e-12 1.41881e-07 -4.04075e-11 -1.12659e-08 5.0609e-11)
(-9.95522e-12 -3.40867e-12 1.4188e-07 -4.06658e-11 1.1266e-08 5.0621e-11)
(-5.67e-12 -5.4086e-12 1.25289e-07 -3.98916e-11 3.03179e-08 4.55616e-11)
(-2.48984e-12 -2.04151e-12 9.80087e-08 -3.43008e-11 4.08123e-08 3.67907e-11)
(-4.8718e-12 2.86304e-12 6.89081e-08 -2.16557e-11 4.21927e-08 2.65275e-11)
(-7.51656e-12 2.92694e-12 4.60987e-08 -1.01764e-11 3.86635e-08 1.7693e-11)
(-3.04138e-12 3.6285e-12 4.71107e-08 2.81184e-12 -3.95158e-08 2.29538e-13)
(-8.31097e-12 3.18036e-12 7.04675e-08 7.37863e-12 -4.31512e-08 9.32336e-13)
(-1.21349e-11 2.7251e-12 1.00233e-07 1.01399e-11 -4.17404e-08 1.99505e-12)
(-1.57274e-11 1.00447e-12 1.28113e-07 1.26949e-11 -3.10015e-08 3.03249e-12)
(-1.73043e-11 -4.86671e-13 1.45058e-07 1.35299e-11 -1.15183e-08 3.77438e-12)
(-1.69278e-11 -1.94474e-12 1.45057e-07 1.31344e-11 1.15184e-08 3.79339e-12)
(-1.47468e-11 -2.97356e-12 1.28109e-07 1.16592e-11 3.10006e-08 3.08761e-12)
(-1.09396e-11 -3.94723e-12 1.00227e-07 8.87338e-12 4.17381e-08 2.06625e-12)
(-7.2261e-12 -3.7449e-12 7.04614e-08 6.21647e-12 4.31476e-08 1.00963e-12)
(-2.35451e-12 -3.73593e-12 4.71054e-08 2.0596e-12 3.95115e-08 2.94914e-13)
(-1.79761e-12 -7.73895e-13 4.63063e-08 -2.59193e-12 -3.8839e-08 4.38955e-12)
(-1.35713e-12 -9.06023e-13 6.92349e-08 -5.24916e-12 -4.23942e-08 6.60629e-12)
(-1.00218e-12 -9.81901e-14 9.84792e-08 -8.20003e-12 -4.10091e-08 9.20221e-12)
(-1.79474e-12 1.8336e-13 1.25887e-07 -9.65399e-12 -3.04629e-08 1.14487e-11)
(-2.56179e-12 -8.83689e-13 1.42552e-07 -1.02045e-11 -1.13193e-08 1.27663e-11)
(-2.0469e-12 -2.44824e-12 1.42549e-07 -1.07468e-11 1.13194e-08 1.27937e-11)
(-4.54275e-13 -2.88137e-12 1.2588e-07 -1.10739e-11 3.04615e-08 1.15282e-11)
(6.29684e-13 -1.57479e-12 9.84695e-08 -9.93497e-12 4.10053e-08 9.30529e-12)
(1.20319e-13 1.34393e-13 6.9225e-08 -6.8388e-12 4.23884e-08 6.71848e-12)
(-8.71637e-13 6.284e-13 4.62976e-08 -3.61314e-12 3.88319e-08 4.48478e-12)
(-5.48771e-13 9.69637e-13 4.65791e-08 6.81519e-13 -3.90687e-08 -1.32748e-13)
(-2.1399e-12 7.71335e-13 6.96542e-08 2.16448e-12 -4.26519e-08 -2.4575e-14)
(-3.42732e-12 2.55794e-13 9.90759e-08 3.25241e-12 -4.12579e-08 1.74904e-13)
(-4.39563e-12 -7.55297e-13 1.26643e-07 3.99613e-12 -3.06458e-08 3.99507e-13)
(-4.5334e-12 -1.72877e-12 1.43402e-07 3.94967e-12 -1.13867e-08 5.83731e-13)
(-3.89793e-12 -2.39498e-12 1.43397e-07 3.27733e-12 1.13868e-08 6.20603e-13)
(-2.74101e-12 -2.58486e-12 1.26632e-07 2.23492e-12 3.06436e-08 5.06084e-13)
(-1.41521e-12 -2.32531e-12 9.90607e-08 1.10186e-12 4.1252e-08 3.13345e-13)
(-3.20605e-13 -1.72514e-12 6.96386e-08 1.9479e-13 4.26426e-08 1.25814e-13)
(5.78156e-13 -1.14704e-12 4.65655e-08 -5.73072e-13 3.90575e-08 -5.08438e-15)
(-3.11373e-13 -1.85166e-13 4.63768e-08 -6.72061e-13 -3.88985e-08 9.83434e-13)
(-4.21713e-13 -3.23088e-13 6.93429e-08 -1.08044e-12 -4.24606e-08 1.50215e-12)
(-6.06671e-13 -5.15003e-13 9.86312e-08 -1.5123e-12 -4.10724e-08 2.11898e-12)
(-8.37067e-13 -1.00398e-12 1.26077e-07 -1.8362e-12 -3.05087e-08 2.67327e-12)
(-7.56438e-13 -1.85718e-12 1.42762e-07 -2.26144e-12 -1.13359e-08 3.01788e-12)
(-8.2036e-14 -2.53924e-12 1.42756e-07 -2.97923e-12 1.1336e-08 3.06126e-12)
(9.20234e-13 -2.56055e-12 1.26061e-07 -3.71829e-12 3.05054e-08 2.79805e-12)
(1.53014e-12 -1.6947e-12 9.86091e-08 -3.81065e-12 4.10638e-08 2.28052e-12)
(1.51493e-12 -6.99371e-13 6.93203e-08 -3.19163e-12 4.24472e-08 1.6767e-12)
(8.78318e-13 -4.7224e-15 4.63571e-08 -2.00917e-12 3.88822e-08 1.13085e-12)
(-1.26592e-13 2.44537e-13 4.64552e-08 2.95091e-13 -3.89644e-08 -1.685e-13)
(-7.16237e-13 7.38785e-14 6.94622e-08 9.08647e-13 -4.25338e-08 -1.9241e-13)
(-1.23971e-12 -4.05061e-13 9.87993e-08 1.43352e-12 -4.11424e-08 -1.9381e-13)
(-1.46808e-12 -1.1124e-12 1.26288e-07 1.63203e-12 -3.05598e-08 -1.63954e-13)
(-1.2488e-12 -1.78424e-12 1.42998e-07 1.36273e-12 -1.13545e-08 -1.13932e-13)
(-6.53383e-13 -2.12534e-12 1.4299e-07 7.235e-13 1.13547e-08 -7.01169e-14)
(8.82873e-14 -2.0682e-12 1.26266e-07 -4.97968e-14 3.05552e-08 -3.84905e-14)
(6.58333e-13 -1.57392e-12 9.87695e-08 -6.25653e-13 4.11307e-08 -3.26794e-14)
(1.02295e-12 -1.00173e-12 6.94317e-08 -1.00314e-12 4.25157e-08 -1.98072e-14)
(9.40426e-13 -4.19155e-13 4.64286e-08 -9.16142e-13 3.89425e-08 -2.42846e-14)
(-3.08613e-13 -1.04918e-13 4.64072e-08 1.24681e-13 -3.8924e-08 1.83932e-13)
(-4.13109e-13 -2.83378e-13 6.93877e-08 1.28474e-13 -4.2488e-08 2.84635e-13)
(-4.77125e-13 -5.59469e-13 9.8692e-08 6.86012e-14 -4.10976e-08 4.08524e-13)
(-4.27356e-13 -9.06335e-13 1.2615e-07 -1.02539e-13 -3.05263e-08 5.29896e-13)
(-2.01635e-13 -1.2593e-12 1.42841e-07 -4.18385e-13 -1.13419e-08 6.2002e-13)
(2.00378e-13 -1.41708e-12 1.42831e-07 -8.55933e-13 1.13421e-08 6.55555e-13)
(6.33694e-13 -1.29266e-12 1.26123e-07 -1.26498e-12 3.05207e-08 6.31286e-13)
(8.32501e-13 -8.26848e-13 9.86551e-08 -1.36898e-12 4.10831e-08 5.36475e-13)
(8.28455e-13 -3.91627e-13 6.93501e-08 -1.24846e-12 4.24657e-08 4.20009e-13)
(4.68549e-13 -2.92125e-14 4.63746e-08 -7.63063e-13 3.88971e-08 2.94514e-13)
(-6.09407e-13 -5.62244e-14 4.64297e-08 6.43928e-13 -3.8943e-08 -3.45205e-14)
(-7.35961e-13 -2.95124e-13 6.94221e-08 7.85928e-13 -4.25091e-08 -4.99668e-14)
(-6.68731e-13 -5.16239e-13 9.87405e-08 7.30661e-13 -4.11178e-08 -6.19308e-14)
(-4.99709e-13 -6.57627e-13 1.26211e-07 5.68325e-13 -3.0541e-08 -6.86166e-14)
(-2.77988e-13 -6.01529e-13 1.42908e-07 3.363e-13 -1.13472e-08 -5.83118e-14)
(-1.31394e-13 -4.2316e-13 1.42896e-07 1.70709e-13 1.13474e-08 -3.93155e-14)
(-9.18265e-14 -2.27383e-13 1.2618e-07 1.05943e-13 3.05345e-08 -1.4117e-14)
(-1.29805e-13 -8.04597e-14 9.86985e-08 1.26528e-13 4.11013e-08 3.27728e-15)
(-1.4233e-13 -4.30887e-14 6.93795e-08 1.24809e-13 4.24838e-08 1.75206e-14)
(-1.91411e-13 -2.6017e-14 4.63931e-08 1.74692e-13 3.89127e-08 1.6719e-14)
(-1.03603e-12 -2.11036e-13 4.64152e-08 8.87856e-13 -3.89308e-08 1.48172e-13)
(-9.71637e-13 -5.3145e-13 6.94004e-08 7.7434e-13 -4.24958e-08 1.97297e-13)
(-5.76263e-13 -6.04279e-13 9.87104e-08 3.22702e-13 -4.11053e-08 2.53561e-13)
(-2.12077e-13 -4.35909e-13 1.26174e-07 -7.45854e-14 -3.05319e-08 2.86663e-13)
(4.06404e-15 3.50388e-14 1.42865e-07 -3.11636e-13 -1.13438e-08 3.07572e-13)
(-8.69556e-14 5.01804e-13 1.42853e-07 -2.17487e-13 1.13441e-08 3.04443e-13)
(-4.09333e-13 7.89228e-13 1.26141e-07 1.29849e-13 3.05251e-08 2.79484e-13)
(-7.42283e-13 7.44025e-13 9.86666e-08 5.04988e-13 4.10881e-08 2.37295e-13)
(-9.58273e-13 5.0259e-13 6.93563e-08 7.79286e-13 4.24696e-08 1.78987e-13)
(-9.14851e-13 1.73072e-13 4.63775e-08 7.89131e-13 3.88996e-08 1.2572e-13)
(-1.3744e-12 -2.35224e-13 4.64153e-08 1.20915e-12 -3.89309e-08 1.65252e-13)
(-1.3015e-12 -6.36104e-13 6.94019e-08 1.08747e-12 -4.24969e-08 2.14025e-13)
(-7.40774e-13 -6.39249e-13 9.87144e-08 4.70365e-13 -4.11071e-08 2.7041e-13)
(-2.74015e-13 -2.99578e-13 1.2618e-07 -1.42786e-14 -3.05336e-08 2.88293e-13)
(-5.36718e-14 4.77099e-13 1.42874e-07 -2.36824e-13 -1.13445e-08 2.90496e-13)
(-3.09476e-13 1.17379e-12 1.42862e-07 4.62032e-14 1.13448e-08 2.63273e-13)
(-8.86123e-13 1.52821e-12 1.26149e-07 6.7094e-13 3.05271e-08 2.15183e-13)
(-1.3766e-12 1.28798e-12 9.86726e-08 1.20911e-12 4.10906e-08 1.67483e-13)
(-1.64971e-12 8.09703e-13 6.93602e-08 1.5428e-12 4.2472e-08 1.06908e-13)
(-1.39849e-12 2.2018e-13 4.63799e-08 1.33025e-12 3.89016e-08 6.82388e-14)
(-1.47704e-12 -2.62081e-13 4.6403e-08 1.22286e-12 -3.89206e-08 2.54184e-13)
(-1.37062e-12 -6.76359e-13 6.93848e-08 1.03089e-12 -4.24865e-08 3.39725e-13)
(-7.13727e-13 -5.96409e-13 9.86925e-08 2.75028e-13 -4.10981e-08 4.38698e-13)
(-2.25465e-13 -1.53309e-13 1.26155e-07 -2.55552e-13 -3.05276e-08 4.81017e-13)
(-3.64219e-14 7.41635e-13 1.42848e-07 -4.50284e-13 -1.13425e-08 4.86706e-13)
(-3.71818e-13 1.48712e-12 1.42838e-07 -6.50111e-14 1.13428e-08 4.36829e-13)
(-1.0331e-12 1.82822e-12 1.26128e-07 6.86271e-13 3.0522e-08 3.46828e-13)
(-1.55611e-12 1.4926e-12 9.86566e-08 1.3005e-12 4.10839e-08 2.55607e-13)
(-1.84743e-12 9.35385e-13 6.93493e-08 1.69494e-12 4.24653e-08 1.52487e-13)
(-1.5037e-12 2.50085e-13 4.63731e-08 1.41307e-12 3.88958e-08 9.06281e-14)
(-1.24513e-12 -2.02066e-13 4.63933e-08 9.82125e-13 -3.89125e-08 2.63005e-13)
(-1.13793e-12 -5.20264e-13 6.93721e-08 7.84732e-13 -4.24788e-08 3.53196e-13)
(-5.39062e-13 -3.45872e-13 9.8677e-08 8.24754e-14 -4.10918e-08 4.56587e-13)
(-1.64458e-13 1.21558e-13 1.26138e-07 -3.32929e-13 -3.05237e-08 4.97388e-13)
(-7.99781e-14 9.44961e-13 1.42832e-07 -4.12777e-13 -1.13414e-08 4.92755e-13)
(-4.47389e-13 1.5549e-12 1.42824e-07 2.34479e-14 1.13416e-08 4.23941e-13)
(-1.04906e-12 1.76182e-12 1.26118e-07 7.36472e-13 3.05195e-08 3.12593e-13)
(-1.45651e-12 1.35538e-12 9.86503e-08 1.24964e-12 4.10813e-08 2.06874e-13)
(-1.64128e-12 8.11989e-13 6.9346e-08 1.54116e-12 4.24632e-08 1.00124e-13)
(-1.22963e-12 1.87661e-13 4.63717e-08 1.18447e-12 3.88946e-08 4.5168e-14)
(-7.78563e-13 -1.17164e-13 4.63807e-08 5.14068e-13 -3.8902e-08 2.64495e-13)
(-6.31039e-13 -2.50625e-13 6.93548e-08 2.75426e-13 -4.24684e-08 3.55614e-13)
(-1.64028e-13 4.8197e-14 9.86553e-08 -2.908e-13 -4.10829e-08 4.54827e-13)
(2.11734e-14 5.20499e-13 1.26114e-07 -5.1289e-13 -3.0518e-08 4.91717e-13)
(-5.93e-14 1.14967e-12 1.42808e-07 -4.16648e-13 -1.13397e-08 4.75948e-13)
(-4.41085e-13 1.49607e-12 1.42803e-07 4.68977e-14 1.13398e-08 3.94187e-13)
(-9.03502e-13 1.4876e-12 1.26102e-07 6.3143e-13 3.05156e-08 2.72073e-13)
(-1.13174e-12 1.04272e-12 9.86405e-08 9.72356e-13 4.1077e-08 1.59381e-13)
(-1.17262e-12 5.7826e-13 6.93408e-08 1.11518e-12 4.246e-08 5.74407e-14)
(-7.67074e-13 1.09068e-13 4.63695e-08 7.57653e-13 3.88927e-08 9.42125e-15)
(-3.23792e-13 -3.30325e-14 4.63701e-08 8.8442e-14 -3.88931e-08 2.3535e-13)
(-1.33322e-13 1.35403e-14 6.93405e-08 -1.79238e-13 -4.24597e-08 3.12561e-13)
(1.83461e-13 4.0192e-13 9.86377e-08 -5.71198e-13 -4.10757e-08 3.87737e-13)
(1.91533e-13 8.51955e-13 1.26095e-07 -5.98793e-13 -3.05136e-08 4.0726e-13)
(-3.15559e-14 1.26647e-12 1.4279e-07 -3.4401e-13 -1.13384e-08 3.75566e-13)
(-4.04873e-13 1.35913e-12 1.4279e-07 1.15702e-13 1.13385e-08 2.89171e-13)
(-7.23027e-13 1.16463e-12 1.26094e-07 5.48191e-13 3.05133e-08 1.74836e-13)
(-7.95007e-13 7.19758e-13 9.86365e-08 7.18639e-13 4.10752e-08 7.63683e-14)
(-7.19861e-13 3.49254e-13 6.93402e-08 7.21277e-13 4.24595e-08 -1.41582e-15)
(-3.62914e-13 3.98328e-14 4.63705e-08 3.94956e-13 3.88934e-08 -3.20421e-14)
(-1.51855e-13 -4.64402e-15 4.63599e-08 -5.70946e-14 -3.88846e-08 2.08949e-13)
(4.49805e-14 1.00167e-13 6.93271e-08 -3.19224e-13 -4.24516e-08 2.74244e-13)
(2.6614e-13 4.63178e-13 9.86214e-08 -5.95606e-13 -4.10691e-08 3.29466e-13)
(2.11113e-13 8.3198e-13 1.26078e-07 -5.47301e-13 -3.05096e-08 3.36188e-13)
(-2.45051e-14 1.0872e-12 1.42775e-07 -2.72503e-13 -1.13374e-08 2.97008e-13)
(-3.21606e-13 1.05982e-12 1.42778e-07 1.05064e-13 1.13373e-08 2.16542e-13)
(-5.2435e-13 8.36269e-13 1.26087e-07 4.04832e-13 3.05114e-08 1.19518e-13)
(-5.32834e-13 4.8295e-13 9.8634e-08 4.91967e-13 4.1074e-08 4.08675e-14)
(-4.53338e-13 2.23195e-13 6.93406e-08 4.6934e-13 4.24596e-08 -1.60024e-14)
(-1.95357e-13 1.97194e-14 4.63721e-08 2.32198e-13 3.88947e-08 -3.68411e-14)
(-3.33808e-13 -3.7311e-14 4.63513e-08 1.50539e-13 -3.88774e-08 1.83269e-13)
(-2.05817e-13 -3.74263e-14 6.93158e-08 -3.46766e-14 -4.24448e-08 2.40494e-13)
(-7.98693e-15 1.61548e-13 9.86082e-08 -2.79115e-13 -4.10637e-08 2.87102e-13)
(1.19474e-14 3.77891e-13 1.26064e-07 -3.03205e-13 -3.05065e-08 2.91258e-13)
(-7.50799e-14 5.64137e-13 1.42763e-07 -1.83011e-13 -1.13367e-08 2.58091e-13)
(-2.20714e-13 5.95491e-13 1.4277e-07 2.69608e-14 1.13365e-08 1.93753e-13)
(-3.51509e-13 5.35276e-13 1.26082e-07 2.33023e-13 3.05102e-08 1.18485e-13)
(-4.00072e-13 3.63378e-13 9.86329e-08 3.40872e-13 4.10734e-08 5.91994e-14)
(-4.34091e-13 2.20561e-13 6.93413e-08 4.20838e-13 4.24599e-08 1.32532e-14)
(-2.94315e-13 4.66845e-14 4.63736e-08 3.01616e-13 3.88959e-08 -7.30097e-15)
(-6.60421e-13 -9.4209e-14 4.63435e-08 4.96202e-13 -3.88709e-08 1.64219e-13)
(-6.46597e-13 -2.73204e-13 6.93055e-08 4.25623e-13 -4.24386e-08 2.20974e-13)
(-4.27304e-13 -2.80181e-13 9.85959e-08 1.51926e-13 -4.10587e-08 2.75378e-13)
(-2.73027e-13 -2.22401e-13 1.26051e-07 -1.87534e-14 -3.05035e-08 2.91781e-13)
(-1.53835e-13 -2.36145e-14 1.42751e-07 -1.25334e-13 -1.13359e-08 2.79169e-13)
(-1.4863e-13 1.73957e-13 1.42761e-07 -8.87893e-14 1.13357e-08 2.37419e-13)
(-2.67604e-13 3.64943e-13 1.26076e-07 8.74325e-14 3.05086e-08 1.80172e-13)
(-4.21689e-13 3.78437e-13 9.86294e-08 2.91114e-13 4.10719e-08 1.30575e-13)
(-6.23617e-13 3.17711e-13 6.93396e-08 5.44227e-13 4.24588e-08 7.93899e-14)
(-5.73498e-13 1.01443e-13 4.6373e-08 5.2597e-13 3.88953e-08 4.75284e-14)
(-7.33105e-13 -1.06948e-13 4.63366e-08 5.89411e-13 -3.88652e-08 1.43694e-13)
(-7.8814e-13 -3.53835e-13 6.92961e-08 5.86906e-13 -4.24329e-08 2.01234e-13)
(-5.61432e-13 -4.28228e-13 9.85841e-08 2.93277e-13 -4.10539e-08 2.68154e-13)
(-3.56093e-13 -4.0055e-13 1.26038e-07 5.25543e-14 -3.05005e-08 3.03539e-13)
(-1.72856e-13 -1.27669e-13 1.42738e-07 -1.4314e-13 -1.1335e-08 3.15996e-13)
(-1.66267e-13 2.05709e-13 1.42749e-07 -1.3025e-13 1.13347e-08 2.96518e-13)
(-3.73142e-13 5.34629e-13 1.26067e-07 1.2251e-13 3.05064e-08 2.50632e-13)
(-6.4468e-13 5.81352e-13 9.86227e-08 4.42215e-13 4.1069e-08 2.02466e-13)
(-9.64818e-13 4.85857e-13 6.93349e-08 8.27016e-13 4.24559e-08 1.37802e-13)
(-9.08926e-13 1.585e-13 4.637e-08 8.16228e-13 3.88928e-08 9.26973e-14)
(-2.58666e-13 -2.64334e-14 4.63306e-08 1.40799e-13 -3.88602e-08 1.17867e-13)
(-2.48398e-13 -8.13347e-14 6.92874e-08 7.5971e-14 -4.24277e-08 1.72427e-13)
(-7.6208e-14 5.12343e-14 9.85726e-08 -1.66436e-13 -4.10492e-08 2.42644e-13)
(-1.0782e-14 2.76849e-13 1.26025e-07 -2.81224e-13 -3.04973e-08 2.92006e-13)
(-5.78256e-14 6.49667e-13 1.42724e-07 -2.63263e-13 -1.13339e-08 3.21088e-13)
(-3.02349e-13 9.65709e-13 1.42736e-07 -1.48024e-14 1.13335e-08 3.17151e-13)
(-7.11306e-13 1.15915e-12 1.26055e-07 4.3495e-13 3.05035e-08 2.76356e-13)
(-1.064e-12 9.79609e-13 9.86133e-08 8.36881e-13 4.10651e-08 2.27115e-13)
(-1.37407e-12 6.84771e-13 6.93281e-08 1.22181e-12 4.24518e-08 1.52259e-13)
(-1.18767e-12 1.97091e-13 4.63655e-08 1.08611e-12 3.8889e-08 1.0156e-13)
(7.41649e-13 1.41418e-13 4.63259e-08 -8.21566e-13 -3.88562e-08 7.99161e-14)
(9.60231e-13 5.34013e-13 6.92804e-08 -1.0823e-12 -4.24234e-08 1.22064e-13)
(9.97819e-13 1.11368e-12 9.85628e-08 -1.17284e-12 -4.10452e-08 1.7502e-13)
(7.3997e-13 1.72774e-12 1.26013e-07 -9.63503e-13 -3.04944e-08 2.23533e-13)
(1.93256e-13 2.17383e-12 1.42711e-07 -4.45163e-13 -1.13329e-08 2.51906e-13)
(-5.05458e-13 2.28749e-12 1.42722e-07 2.51076e-13 1.13325e-08 2.54382e-13)
(-1.17386e-12 2.07243e-12 1.26044e-07 9.56244e-13 3.05007e-08 2.17619e-13)
(-1.54079e-12 1.45472e-12 9.86043e-08 1.36681e-12 4.10614e-08 1.73978e-13)
(-1.70572e-12 8.48606e-13 6.93219e-08 1.60183e-12 4.2448e-08 1.03891e-13)
(-1.30548e-12 2.04579e-13 4.63615e-08 1.24255e-12 3.88856e-08 6.29294e-14)
(1.90866e-12 3.37203e-13 4.63229e-08 -1.93109e-12 -3.88537e-08 2.24297e-14)
(2.36723e-12 1.24991e-12 6.92759e-08 -2.40855e-12 -4.24206e-08 4.13171e-14)
(2.19387e-12 2.28406e-12 9.85564e-08 -2.25063e-12 -4.10425e-08 5.67607e-14)
(1.55234e-12 3.25461e-12 1.26004e-07 -1.6411e-12 -3.04923e-08 8.87607e-14)
(4.66903e-13 3.64936e-12 1.42701e-07 -5.68577e-13 -1.13321e-08 1.01674e-13)
(-6.47245e-13 3.43139e-12 1.42713e-07 5.41458e-13 1.13317e-08 1.05788e-13)
(-1.46929e-12 2.71869e-12 1.26036e-07 1.38984e-12 3.04989e-08 7.94415e-14)
(-1.74959e-12 1.68704e-12 9.8599e-08 1.69549e-12 4.10592e-08 5.41038e-14)
(-1.69398e-12 8.44705e-13 6.93189e-08 1.68539e-12 4.24461e-08 8.59018e-15)
(-1.11988e-12 1.62865e-13 4.636e-08 1.12772e-12 3.88843e-08 -7.84176e-15)
(2.77087e-12 4.83158e-13 4.63229e-08 -2.69898e-12 -3.88537e-08 -7.18912e-14)
(3.31299e-12 1.7225e-12 6.92758e-08 -3.22502e-12 -4.24205e-08 -8.7966e-14)
(2.85481e-12 2.89067e-12 9.85557e-08 -2.73236e-12 -4.10421e-08 -1.22455e-13)
(1.93273e-12 3.86201e-12 1.26003e-07 -1.8172e-12 -3.0492e-08 -1.15533e-13)
(5.94078e-13 3.94803e-12 1.427e-07 -4.73922e-13 -1.13319e-08 -1.20156e-13)
(-5.57509e-13 3.35497e-12 1.42712e-07 6.66394e-13 1.13317e-08 -1.08885e-13)
(-1.20077e-12 2.3215e-12 1.26036e-07 1.30982e-12 3.04987e-08 -1.09045e-13)
(-1.24606e-12 1.23263e-12 9.85996e-08 1.34619e-12 4.10594e-08 -1.0013e-13)
(-9.76287e-13 4.90306e-13 6.93205e-08 1.07734e-12 4.2447e-08 -1.01053e-13)
(-4.31658e-13 4.58959e-14 4.63619e-08 5.14884e-13 3.88859e-08 -8.32256e-14)
(2.99828e-12 5.27844e-13 4.63278e-08 -2.77632e-12 -3.88578e-08 -2.21963e-13)
(3.29883e-12 1.69414e-12 6.92824e-08 -3.01349e-12 -4.24244e-08 -2.85342e-13)
(2.47211e-12 2.42045e-12 9.85637e-08 -2.09974e-12 -4.10453e-08 -3.72373e-13)
(1.48329e-12 2.76664e-12 1.26012e-07 -1.09425e-12 -3.04939e-08 -3.89043e-13)
(4.26051e-13 2.16383e-12 1.42708e-07 -2.90947e-14 -1.13325e-08 -3.96956e-13)
(-1.12588e-13 1.20526e-12 1.4272e-07 4.72887e-13 1.13324e-08 -3.60299e-13)
(-5.39295e-14 2.33016e-13 1.26044e-07 3.63273e-13 3.05007e-08 -3.09344e-13)
(3.32806e-13 -2.87542e-13 9.86068e-08 -8.34483e-14 4.10624e-08 -2.49358e-13)
(7.53373e-13 -3.77369e-13 6.93266e-08 -5.65267e-13 4.24508e-08 -1.88106e-13)
(9.30652e-13 -1.73254e-13 4.63667e-08 -7.96988e-13 3.88899e-08 -1.33664e-13)
(2.55482e-12 4.62421e-13 4.63405e-08 -2.12363e-12 -3.88684e-08 -4.31194e-13)
(2.27047e-12 1.13079e-12 6.92992e-08 -1.71554e-12 -4.24345e-08 -5.54936e-13)
(1.01278e-12 8.33074e-13 9.85839e-08 -3.196e-13 -4.10535e-08 -6.93185e-13)
(1.81902e-13 -8.16118e-14 1.26033e-07 5.45404e-13 -3.0499e-08 -7.27306e-13)
(-4.44217e-14 -1.73656e-12 1.4273e-07 7.60115e-13 -1.1334e-08 -7.15693e-13)
(6.82414e-13 -3.02874e-12 1.4274e-07 -5.40241e-14 1.13341e-08 -6.2839e-13)
(1.95549e-12 -3.53586e-12 1.2606e-07 -1.45867e-12 3.05047e-08 -4.9682e-13)
(2.95325e-12 -2.85073e-12 9.86197e-08 -2.58409e-12 4.10678e-08 -3.69166e-13)
(3.44848e-12 -1.7399e-12 6.93359e-08 -3.21807e-12 4.24565e-08 -2.3041e-13)
(2.90452e-12 -4.84387e-13 4.63729e-08 -2.76303e-12 3.88951e-08 -1.41493e-13)
(1.64382e-12 3.13896e-13 4.63634e-08 -9.82171e-13 -3.88875e-08 -6.61654e-13)
(6.11386e-13 2.28562e-13 6.9329e-08 2.40847e-13 -4.24525e-08 -8.52232e-13)
(-1.0324e-12 -1.36915e-12 9.86192e-08 2.07027e-12 -4.10679e-08 -1.03786e-12)
(-1.54872e-12 -3.82163e-12 1.26071e-07 2.63427e-12 -3.05077e-08 -1.08555e-12)
(-6.56365e-13 -6.62771e-12 1.42766e-07 1.69366e-12 -1.13366e-08 -1.0373e-12)
(1.62453e-12 -8.17081e-12 1.42771e-07 -7.43836e-13 1.13368e-08 -8.80698e-13)
(4.30119e-12 -7.98186e-12 1.26084e-07 -3.65294e-12 3.05107e-08 -6.48254e-13)
(5.93806e-12 -5.79367e-12 9.86363e-08 -5.49441e-12 4.10748e-08 -4.43652e-13)
(6.44252e-12 -3.26399e-12 6.93461e-08 -6.221e-12 4.24628e-08 -2.21518e-13)
(4.99478e-12 -8.10788e-13 4.63784e-08 -4.88942e-12 3.88998e-08 -1.05353e-13)
(5.70192e-13 1.20367e-13 4.63963e-08 2.59234e-13 -3.89149e-08 -8.29425e-13)
(-1.0265e-12 -6.75287e-13 6.93717e-08 2.10239e-12 -4.24782e-08 -1.07588e-12)
(-2.80717e-12 -3.30402e-12 9.86696e-08 4.10704e-12 -4.10883e-08 -1.29987e-12)
(-2.94922e-12 -6.90574e-12 1.26124e-07 4.31311e-12 -3.052e-08 -1.36389e-12)
(-1.10786e-12 -1.04493e-11 1.42815e-07 2.38943e-12 -1.13401e-08 -1.28157e-12)
(2.3522e-12 -1.20362e-11 1.42812e-07 -1.29109e-12 1.13404e-08 -1.06111e-12)
(6.01573e-12 -1.12173e-11 1.26114e-07 -5.27954e-12 3.05181e-08 -7.36184e-13)
(8.03338e-12 -7.86218e-12 9.86547e-08 -7.56923e-12 4.10827e-08 -4.64148e-13)
(8.48956e-12 -4.31169e-12 6.93552e-08 -8.31621e-12 4.24685e-08 -1.73347e-13)
(6.30694e-12 -1.00959e-12 4.63814e-08 -6.26463e-12 3.89026e-08 -4.23097e-14)
(-4.01871e-13 -7.97876e-14 4.64346e-08 1.23404e-12 -3.89468e-08 -8.32169e-13)
(-2.04443e-12 -1.25622e-12 6.94215e-08 3.14157e-12 -4.25082e-08 -1.09714e-12)
(-3.5073e-12 -4.11228e-12 9.87289e-08 4.84231e-12 -4.11125e-08 -1.33501e-12)
(-3.2947e-12 -7.79599e-12 1.26187e-07 4.7138e-12 -3.05346e-08 -1.4191e-12)
(-1.11882e-12 -1.11159e-11 1.42874e-07 2.44708e-12 -1.13442e-08 -1.32826e-12)
(2.475e-12 -1.23772e-11 1.42859e-07 -1.3913e-12 1.13445e-08 -1.0837e-12)
(6.07743e-12 -1.12689e-11 1.26146e-07 -5.35921e-12 3.05263e-08 -7.18216e-13)
(7.9168e-12 -7.73784e-12 9.86724e-08 -7.49881e-12 4.10903e-08 -4.17986e-13)
(8.26043e-12 -4.20174e-12 6.93617e-08 -8.15671e-12 4.24728e-08 -1.0372e-13)
(5.90705e-12 -9.32974e-13 4.63815e-08 -5.9297e-12 3.89029e-08 2.26475e-14)
(-1.08795e-12 -2.51425e-13 4.64693e-08 1.69274e-12 -3.89757e-08 -6.04799e-13)
(-2.09903e-12 -1.316e-12 6.94674e-08 2.92608e-12 -4.2536e-08 -8.27052e-13)
(-2.71043e-12 -3.31751e-12 9.87849e-08 3.7459e-12 -4.11353e-08 -1.03547e-12)
(-2.21818e-12 -5.66139e-12 1.26247e-07 3.35414e-12 -3.05487e-08 -1.13597e-12)
(-5.60296e-13 -7.51012e-12 1.4293e-07 1.63593e-12 -1.13482e-08 -1.07564e-12)
(1.76999e-12 -7.98694e-12 1.42904e-07 -8.95824e-13 1.13485e-08 -8.74163e-13)
(3.92897e-12 -7.06651e-12 1.26175e-07 -3.37081e-12 3.05338e-08 -5.58163e-13)
(4.87774e-12 -4.70715e-12 9.86869e-08 -4.58171e-12 4.10968e-08 -2.96028e-13)
(5.02842e-12 -2.55486e-12 6.93653e-08 -4.9984e-12 4.24753e-08 -3.00206e-14)
(3.31589e-12 -5.03877e-13 4.63791e-08 -3.38327e-12 3.89012e-08 6.73825e-14)
(-1.36345e-12 -3.52765e-13 4.64897e-08 1.53085e-12 -3.89928e-08 -1.67397e-13)
(-1.20716e-12 -8.38189e-13 6.9496e-08 1.4864e-12 -4.25534e-08 -2.79236e-13)
(-5.95615e-13 -1.05637e-12 9.88218e-08 9.97688e-13 -4.11505e-08 -4.02073e-13)
(5.05892e-14 -8.68706e-13 1.26289e-07 4.48831e-13 -3.05586e-08 -4.9942e-13)
(4.33479e-13 -2.24782e-13 1.4297e-07 6.70411e-14 -1.13511e-08 -5.0052e-13)
(3.13644e-13 4.44856e-13 1.42935e-07 9.65311e-14 1.13514e-08 -4.10175e-13)
(-1.35456e-13 7.70889e-13 1.26195e-07 3.78409e-13 3.05389e-08 -2.42954e-13)
(-6.60889e-13 7.96934e-13 9.86955e-08 7.54714e-13 4.11007e-08 -9.38248e-14)
(-7.93261e-13 4.1899e-13 6.93656e-08 7.49963e-13 4.24758e-08 4.32981e-14)
(-1.11247e-12 2.17389e-13 4.63755e-08 1.02709e-12 3.88984e-08 8.53867e-14)
(-1.13456e-12 -3.44289e-13 4.64882e-08 7.72473e-13 -3.89916e-08 3.62091e-13)
(3.43865e-13 3.5987e-14 6.94965e-08 -7.50234e-13 -4.25539e-08 4.06369e-13)
(2.16943e-12 1.98829e-12 9.88266e-08 -2.58491e-12 -4.11527e-08 4.15484e-13)
(2.79106e-12 5.13173e-12 1.26297e-07 -3.14469e-12 -3.05608e-08 3.53633e-13)
(1.53051e-12 8.55707e-12 1.4298e-07 -1.81611e-12 -1.13519e-08 2.85598e-13)
(-1.49195e-12 1.04201e-11 1.42944e-07 1.26434e-12 1.13522e-08 2.2761e-13)
(-4.9529e-12 9.96093e-12 1.26199e-07 4.7731e-12 3.05402e-08 1.79795e-13)
(-7.11772e-12 7.19165e-12 9.86953e-08 6.95482e-12 4.11008e-08 1.62906e-13)
(-7.58328e-12 3.89179e-12 6.93627e-08 7.46921e-12 4.24742e-08 1.14071e-13)
(-6.14706e-12 1.03165e-12 4.6372e-08 6.06237e-12 3.88955e-08 8.4692e-14)
(-4.09955e-13 -2.07869e-13 4.64635e-08 -4.01474e-13 -3.89711e-08 8.11429e-13)
(2.06999e-12 1.04703e-12 6.94667e-08 -3.08261e-12 -4.25361e-08 1.01262e-12)
(4.64593e-12 4.81719e-12 9.87949e-08 -5.81213e-12 -4.114e-08 1.1662e-12)
(5.03331e-12 1.03018e-11 1.26268e-07 -6.20417e-12 -3.0554e-08 1.17087e-12)
(2.30901e-12 1.58005e-11 1.42955e-07 -3.36868e-12 -1.13501e-08 1.05967e-12)
(-3.05756e-12 1.84606e-11 1.42924e-07 2.19125e-12 1.13505e-08 8.66311e-13)
(-8.87229e-12 1.7291e-11 1.26185e-07 8.27001e-12 3.05366e-08 6.02286e-13)
(-1.22514e-11 1.2233e-11 9.8685e-08 1.18386e-11 4.10965e-08 4.12886e-13)
(-1.29902e-11 6.65286e-12 6.93565e-08 1.28176e-11 4.24704e-08 1.72625e-13)
(-1.00226e-11 1.64913e-12 4.63689e-08 9.9482e-12 3.88929e-08 7.44012e-14)
(6.45346e-13 2.80427e-14 4.64222e-08 -1.66837e-12 -3.89367e-08 1.02302e-12)
(3.43944e-12 1.88503e-12 6.94143e-08 -4.76614e-12 -4.25045e-08 1.3267e-12)
(5.97876e-12 6.46553e-12 9.87345e-08 -7.56414e-12 -4.11155e-08 1.58538e-12)
(5.95146e-12 1.27814e-11 1.26206e-07 -7.61602e-12 -3.05397e-08 1.66456e-12)
(2.45226e-12 1.87897e-11 1.42899e-07 -4.00038e-12 -1.13461e-08 1.54812e-12)
(-3.80262e-12 2.14569e-11 1.42879e-07 2.52504e-12 1.13467e-08 1.27759e-12)
(-1.03598e-11 1.98561e-11 1.26153e-07 9.4912e-12 3.05288e-08 8.68592e-13)
(-1.39908e-11 1.38749e-11 9.8666e-08 1.34342e-11 4.10885e-08 5.56603e-13)
(-1.47903e-11 7.56414e-12 6.93478e-08 1.46058e-11 4.2465e-08 1.84436e-13)
(-1.10699e-11 1.79735e-12 4.63667e-08 1.10259e-11 3.88909e-08 4.40133e-14)
(1.71016e-12 2.94254e-13 4.63769e-08 -2.62447e-12 -3.88989e-08 9.14307e-13)
(3.98296e-12 2.26868e-12 6.93549e-08 -5.20586e-12 -4.24687e-08 1.22291e-12)