/*--------------------------------*- C++ -*----------------------------------*\
| =========                 |                                                 |
| \\      /  F ield         | OpenFOAM: The Open Source CFD Toolbox           |
|  \\    /   O peration     | Version:  2406                                  |
|   \\  /    A nd           | Website:  www.openfoam.com                      |
|    \\/     M anipulation  |                                                 |
\*---------------------------------------------------------------------------*/
FoamFile
{
    version     2.0;
    format      ascii;
    arch        "LSB;label=32;scalar=64";
    class       volScalarField;
    location    "1.5";
    object      turbulenceProperties:nuEff;
}
// * * * * * * * * * * * * * * * * * * * * * * * * * * * * * * * * * * * * * //

dimensions      [0 2 -1 0 0 0 0];

internalField   nonuniform List<scalar> 
25000
(
0.00649252
0.00656621
0.00659827
0.0066045
0.00660263
0.00660263
0.0066045
0.00659827
0.00656621
0.00649252
0.00656621
0.00659262
0.00658044
0.00656683
0.00655948
0.00655948
0.00656683
0.00658044
0.00659262
0.00656621
0.00659827
0.00658044
0.00655571
0.00654081
0.00653481
0.00653481
0.00654081
0.00655571
0.00658044
0.00659827
0.0066045
0.00656683
0.00654081
0.00652904
0.00652556
0.00652556
0.00652904
0.00654081
0.00656683
0.0066045
0.00660263
0.00655948
0.00653481
0.00652556
0.00652371
0.00652371
0.00652556
0.00653481
0.00655948
0.00660263
0.00660263
0.00655948
0.00653481
0.00652556
0.00652371
0.00652371
0.00652556
0.00653481
0.00655948
0.00660263
0.0066045
0.00656683
0.00654081
0.00652905
0.00652556
0.00652556
0.00652904
0.00654081
0.00656683
0.0066045
0.00659827
0.00658044
0.00655571
0.00654081
0.00653481
0.00653481
0.00654081
0.00655571
0.00658044
0.00659827
0.00656621
0.00659262
0.00658044
0.00656683
0.00655948
0.00655948
0.00656683
0.00658044
0.00659262
0.00656621
0.00649252
0.00656621
0.00659827
0.0066045
0.00660263
0.00660263
0.0066045
0.00659827
0.00656621
0.00649252
0.00616049
0.00633619
0.0065502
0.00671907
0.00680784
0.00680784
0.00671907
0.0065502
0.00633619
0.00616049
0.00633619
0.00671079
0.00697555
0.00708518
0.00711329
0.00711329
0.00708518
0.00697555
0.00671079
0.00633619
0.0065502
0.00697555
0.00713289
0.00711484
0.00708405
0.00708405
0.00711484
0.00713289
0.00697555
0.0065502
0.00671907
0.00708518
0.00711484
0.00704193
0.00699708
0.00699708
0.00704193
0.00711484
0.00708518
0.00671907
0.00680784
0.00711329
0.00708405
0.00699708
0.00695034
0.00695034
0.00699708
0.00708405
0.00711329
0.00680784
0.00680784
0.00711329
0.00708405
0.00699708
0.00695034
0.00695034
0.00699708
0.00708405
0.00711329
0.00680784
0.00671907
0.00708518
0.00711484
0.00704193
0.00699708
0.00699708
0.00704193
0.00711484
0.00708518
0.00671907
0.0065502
0.00697555
0.00713289
0.00711484
0.00708405
0.00708405
0.00711484
0.00713289
0.00697555
0.0065502
0.00633619
0.00671079
0.00697555
0.00708518
0.00711329
0.00711329
0.00708518
0.00697555
0.00671079
0.00633619
0.00616049
0.00633619
0.0065502
0.00671907
0.00680784
0.00680784
0.00671907
0.0065502
0.00633619
0.00616049
0.00583445
0.00590607
0.00604069
0.00616694
0.00624291
0.00624291
0.00616694
0.00604069
0.00590607
0.00583445
0.00590607
0.00614407
0.00638753
0.0065824
0.00669195
0.00669195
0.00658241
0.00638753
0.00614407
0.00590607
0.00604069
0.00638753
0.00673522
0.00699949
0.00713422
0.00713422
0.0069995
0.00673522
0.00638753
0.00604069
0.00616694
0.0065824
0.00699949
0.00729502
0.00742075
0.00742075
0.00729502
0.0069995
0.00658241
0.00616694
0.00624291
0.00669194
0.00713422
0.00742075
0.00752182
0.00752182
0.00742075
0.00713423
0.00669195
0.00624291
0.00624291
0.00669194
0.00713422
0.00742075
0.00752182
0.00752182
0.00742075
0.00713423
0.00669195
0.00624291
0.00616694
0.0065824
0.00699949
0.00729502
0.00742075
0.00742075
0.00729502
0.0069995
0.00658241
0.00616694
0.00604068
0.00638753
0.00673522
0.00699949
0.00713422
0.00713422
0.0069995
0.00673522
0.00638753
0.00604069
0.00590606
0.00614407
0.00638753
0.0065824
0.00669194
0.00669195
0.0065824
0.00638753
0.00614407
0.00590607
0.00583445
0.00590606
0.00604068
0.00616694
0.00624291
0.00624291
0.00616694
0.00604069
0.00590607
0.00583445
0.00580626
0.00584229
0.00594492
0.00604708
0.00611054
0.00611054
0.00604708
0.00594493
0.0058423
0.00580627
0.00584229
0.00602296
0.00621809
0.00638579
0.00648731
0.00648731
0.00638579
0.0062181
0.00602296
0.0058423
0.00594492
0.00621809
0.00651391
0.00678205
0.00695491
0.00695492
0.00678206
0.00651392
0.0062181
0.00594493
0.00604707
0.00638578
0.00678205
0.00719901
0.00752513
0.00752513
0.00719902
0.00678206
0.00638579
0.00604708
0.00611054
0.00648731
0.00695491
0.00752512
0.00811339
0.0081134
0.00752514
0.00695492
0.00648731
0.00611055
0.00611054
0.0064873
0.00695491
0.00752512
0.00811338
0.0081134
0.00752513
0.00695492
0.00648731
0.00611055
0.00604707
0.00638578
0.00678204
0.00719901
0.00752512
0.00752513
0.00719902
0.00678205
0.00638579
0.00604708
0.00594492
0.00621809
0.00651391
0.00678204
0.00695491
0.00695491
0.00678205
0.00651392
0.00621809
0.00594493
0.00584229
0.00602295
0.00621809
0.00638578
0.00648731
0.00648731
0.00638579
0.00621809
0.00602296
0.00584229
0.00580626
0.00584229
0.00594492
0.00604707
0.00611054
0.00611054
0.00604708
0.00594493
0.00584229
0.00580627
0.00577344
0.00579397
0.00588199
0.00597269
0.00602997
0.00602997
0.0059727
0.005882
0.00579398
0.00577345
0.00579397
0.00594859
0.00611954
0.00627015
0.00636374
0.00636375
0.00627016
0.00611956
0.0059486
0.00579398
0.00588199
0.00611954
0.00638183
0.00663064
0.00680116
0.00680116
0.00663066
0.00638185
0.00611956
0.005882
0.00597269
0.00627015
0.00663064
0.00704467
0.0074216
0.00742162
0.0070447
0.00663066
0.00627016
0.0059727
0.00602996
0.00636373
0.00680114
0.00742159
0.0083749
0.00837496
0.00742163
0.00680117
0.00636375
0.00602997
0.00602996
0.00636373
0.00680114
0.00742158
0.00837487
0.00837493
0.00742162
0.00680116
0.00636375
0.00602997
0.00597269
0.00627014
0.00663063
0.00704466
0.00742159
0.0074216
0.00704469
0.00663065
0.00627016
0.0059727
0.00588199
0.00611954
0.00638183
0.00663063
0.00680114
0.00680115
0.00663065
0.00638184
0.00611955
0.005882
0.00579397
0.00594858
0.00611954
0.00627014
0.00636373
0.00636374
0.00627015
0.00611955
0.0059486
0.00579398
0.00577344
0.00579397
0.00588199
0.00597269
0.00602996
0.00602996
0.00597269
0.005882
0.00579398
0.00577345
0.00577371
0.00578969
0.00587281
0.00595939
0.00601439
0.0060144
0.0059594
0.00587282
0.00578971
0.00577372
0.00578969
0.0059354
0.00609675
0.00623991
0.00632977
0.00632978
0.00623993
0.00609677
0.00593542
0.00578971
0.0058728
0.00609674
0.00634415
0.00658205
0.00674836
0.00674837
0.00658208
0.00634418
0.00609677
0.00587282
0.00595938
0.0062399
0.00658204
0.00698434
0.00736444
0.00736447
0.00698439
0.00658208
0.00623993
0.0059594
0.00601438
0.00632975
0.00674833
0.0073644
0.00839752
0.00839765
0.00736448
0.00674838
0.00632978
0.0060144
0.00601438
0.00632975
0.00674833
0.00736439
0.00839746
0.00839759
0.00736447
0.00674838
0.00632978
0.0060144
0.00595938
0.00623989
0.00658203
0.00698432
0.0073644
0.00736443
0.00698437
0.00658207
0.00623992
0.0059594
0.0058728
0.00609673
0.00634414
0.00658204
0.00674834
0.00674835
0.00658206
0.00634417
0.00609676
0.00587282
0.00578969
0.00593539
0.00609674
0.0062399
0.00632976
0.00632976
0.00623992
0.00609676
0.00593541
0.00578971
0.0057737
0.00578969
0.0058728
0.00595938
0.00601438
0.00601439
0.00595939
0.00587282
0.00578971
0.00577372
0.00576591
0.0057792
0.00585989
0.00594455
0.0059985
0.00599851
0.00594458
0.00585992
0.00577923
0.00576594
0.0057792
0.00592063
0.0060779
0.00621783
0.00630595
0.00630596
0.00621786
0.00607794
0.00592067
0.00577923
0.00585989
0.0060779
0.00631903
0.00655181
0.00671554
0.00671557
0.00655186
0.00631908
0.00607794
0.00585993
0.00594454
0.00621782
0.0065518
0.00694718
0.00732472
0.00732477
0.00694726
0.00655186
0.00621787
0.00594458
0.00599848
0.00630592
0.0067155
0.00732466
0.00836986
0.00837009
0.00732479
0.00671558
0.00630597
0.00599852
0.00599848
0.00630591
0.00671549
0.00732464
0.00836975
0.00836998
0.00732477
0.00671557
0.00630597
0.00599851
0.00594453
0.0062178
0.00655178
0.00694715
0.00732466
0.00732471
0.00694722
0.00655184
0.00621785
0.00594457
0.00585988
0.00607788
0.00631901
0.00655178
0.00671551
0.00671553
0.00655183
0.00631906
0.00607793
0.00585991
0.00577919
0.00592061
0.00607788
0.00621781
0.00630592
0.00630594
0.00621784
0.00607792
0.00592065
0.00577922
0.0057659
0.00577919
0.00585988
0.00594454
0.00599848
0.00599849
0.00594456
0.00585991
0.00577922
0.00576593
0.00576612
0.0057785
0.00585826
0.00594216
0.00599568
0.0059957
0.00594219
0.00585831
0.00577855
0.00576617
0.0057785
0.00591824
0.00607375
0.00621228
0.00629965
0.00629967
0.00621233
0.00607381
0.0059183
0.00577855
0.00585826
0.00607374
0.00631209
0.0065426
0.00670513
0.00670516
0.00654267
0.00631217
0.00607382
0.00585831
0.00594214
0.00621225
0.00654257
0.00693468
0.00731053
0.00731061
0.00693481
0.00654268
0.00621234
0.0059422
0.00599565
0.0062996
0.00670506
0.00731043
0.00835555
0.00835594
0.00731065
0.00670519
0.00629969
0.00599571
0.00599564
0.00629959
0.00670504
0.00731039
0.00835537
0.00835576
0.00731061
0.00670517
0.00629968
0.0059957
0.00594212
0.00621223
0.00654254
0.00693463
0.00731042
0.00731051
0.00693475
0.00654264
0.00621231
0.00594218
0.00585823
0.00607372
0.00631206
0.00654255
0.00670507
0.0067051
0.00654262
0.00631213
0.00607379
0.00585829
0.00577847
0.00591821
0.00607372
0.00621224
0.00629961
0.00629963
0.00621229
0.00607378
0.00591827
0.00577853
0.0057661
0.00577847
0.00585823
0.00594213
0.00599565
0.00599567
0.00594217
0.00585828
0.00577853
0.00576614
0.00576411
0.00577583
0.00585504
0.00593851
0.00599181
0.00599183
0.00593857
0.00585512
0.00577592
0.00576418
0.00577584
0.0059146
0.00606925
0.00620711
0.00629412
0.00629415
0.00620718
0.00606934
0.0059147
0.00577592
0.00585504
0.00606924
0.0063063
0.00653574
0.00669769
0.00669774
0.00653586
0.00630643
0.00606935
0.00585512
0.00593849
0.00620707
0.00653571
0.00692623
0.00730106
0.00730119
0.00692643
0.00653587
0.0062072
0.00593858
0.00599176
0.00629404
0.00669757
0.0073009
0.00834462
0.00834524
0.00730124
0.00669778
0.00629418
0.00599185
0.00599175
0.00629402
0.00669755
0.00730084
0.00834433
0.00834494
0.00730118
0.00669775
0.00629416
0.00599184
0.00593846
0.00620703
0.00653565
0.00692614
0.00730089
0.00730102
0.00692633
0.00653581
0.00620716
0.00593855
0.005855
0.00606919
0.00630624
0.00653567
0.00669759
0.00669764
0.00653578
0.00630637
0.0060693
0.00585508
0.0057758
0.00591456
0.0060692
0.00620705
0.00629405
0.00629408
0.00620712
0.00606929
0.00591465
0.00577587
0.00576408
0.0057758
0.005855
0.00593847
0.00599177
0.00599179
0.00593853
0.00585508
0.00577588
0.00576415
0.00576418
0.00577568
0.00585466
0.00593795
0.00599115
0.00599118
0.00593803
0.00585477
0.0057758
0.00576429
0.00577568
0.00591403
0.00606826
0.0062058
0.00629264
0.00629269
0.00620591
0.0060684
0.00591417
0.0057758
0.00585465
0.00606824
0.00630466
0.00653359
0.00669527
0.00669535
0.00653376
0.00630484
0.0060684
0.00585477
0.00593791
0.00620574
0.00653353
0.0069233
0.0072977
0.00729789
0.0069236
0.00653378
0.00620593
0.00593805
0.00599107
0.00629253
0.0066951
0.00729746
0.00834044
0.00834135
0.00729797
0.00669541
0.00629273
0.00599121
0.00599106
0.00629251
0.00669507
0.00729737
0.00833999
0.00834089
0.00729787
0.00669537
0.0062927
0.00599119
0.00593788
0.00620569
0.00653345
0.00692316
0.00729745
0.00729764
0.00692345
0.00653369
0.00620587
0.005938
0.0058546
0.00606818
0.00630457
0.00653347
0.00669512
0.0066952
0.00653363
0.00630475
0.00606833
0.00585471
0.00577563
0.00591397
0.00606818
0.00620571
0.00629254
0.00629259
0.00620581
0.00606831
0.0059141
0.00577573
0.00576414
0.00577563
0.0058546
0.00593789
0.00599109
0.00599111
0.00593796
0.0058547
0.00577574
0.00576423
0.00576366
0.00577499
0.00585383
0.00593702
0.00599017
0.00599021
0.00593713
0.00585398
0.00577515
0.0057638
0.00577499
0.00591309
0.0060671
0.00620448
0.00629125
0.00629131
0.00620463
0.00606729
0.00591328
0.00577515
0.00585382
0.00606708
0.00630317
0.00653185
0.00669341
0.00669352
0.00653208
0.00630343
0.0060673
0.00585398
0.00593697
0.0062044
0.00653177
0.00692115
0.00729532
0.0072956
0.00692156
0.00653211
0.00620466
0.00593715
0.00599006
0.00629108
0.00669317
0.00729498
0.00833743
0.00833871
0.0072957
0.00669359
0.00629136
0.00599025
0.00599005
0.00629106
0.00669312
0.00729485
0.00833679
0.00833805
0.00729556
0.00669353
0.00629133
0.00599022
0.00593692
0.00620433
0.00653166
0.00692096
0.00729496
0.00729522
0.00692134
0.00653198
0.00620457
0.00593708
0.00585375
0.00606699
0.00630306
0.00653169
0.0066932
0.0066933
0.0065319
0.00630329
0.00606719
0.0058539
0.00577493
0.00591301
0.006067
0.00620436
0.00629111
0.00629116
0.00620449
0.00606717
0.00591317
0.00577506
0.00576361
0.00577493
0.00585376
0.00593693
0.00599008
0.00599012
0.00593703
0.00585389
0.00577506
0.00576372
0.00576368
0.00577495
0.00585373
0.00593688
0.00599001
0.00599007
0.00593702
0.00585392
0.00577514
0.00576385
0.00577495
0.00591294
0.00606684
0.00620414
0.00629089
0.00629097
0.00620434
0.00606709
0.00591318
0.00577514
0.00585371
0.00606681
0.00630274
0.00653129
0.00669281
0.00669295
0.0065316
0.00630307
0.0060671
0.00585392
0.00593681
0.00620404
0.00653118
0.00692037
0.00729447
0.00729484
0.00692092
0.00653163
0.00620437
0.00593704
0.00598988
0.00629067
0.00669249
0.00729402
0.00833623
0.00833794
0.00729497
0.00669304
0.00629103
0.00599011
0.00598985
0.00629064
0.00669242
0.00729385
0.00833537
0.00833703
0.00729478
0.00669296
0.00629098
0.00599008
0.00593676
0.00620396
0.00653105
0.00692012
0.00729399
0.00729433
0.00692062
0.00653145
0.00620426
0.00593695
0.00585364
0.00606671
0.00630259
0.00653108
0.00669252
0.00669265
0.00653135
0.00630288
0.00606695
0.00585381
0.00577488
0.00591284
0.00606672
0.00620399
0.0062907
0.00629077
0.00620416
0.00606692
0.00591304
0.00577502
0.00576362
0.00577488
0.00585364
0.00593677
0.00598989
0.00598994
0.00593689
0.00585379
0.00577503
0.00576374
0.00576354
0.00577476
0.00585351
0.00593663
0.00598976
0.00598983
0.0059368
0.00585373
0.00577499
0.00576372
0.00577477
0.00591268
0.00606653
0.0062038
0.00629053
0.00629063
0.00620404
0.00606683
0.00591296
0.00577498
0.00585349
0.00606649
0.00630234
0.00653083
0.00669234
0.00669251
0.00653121
0.00630274
0.00606683
0.00585373
0.00593655
0.00620367
0.00653069
0.00691978
0.00729386
0.00729432
0.00692046
0.00653125
0.00620407
0.00593682
0.0059896
0.00629027
0.00669194
0.0072933
0.00833535
0.0083375
0.00729449
0.00669263
0.0062907
0.00598987
0.00598958
0.00629023
0.00669187
0.00729309
0.00833427
0.00833634
0.00729423
0.00669252
0.00629065
0.00598983
0.0059365
0.00620358
0.00653054
0.00691947
0.00729326
0.00729368
0.00692008
0.00653103
0.00620393
0.00593672
0.00585342
0.00606639
0.00630217
0.00653058
0.00669199
0.00669213
0.0065309
0.0063025
0.00606666
0.0058536
0.0057747
0.00591259
0.0060664
0.00620362
0.00629031
0.00629039
0.00620381
0.00606662
0.00591279
0.00577484
0.00576349
0.0057747
0.00585342
0.00593652
0.00598963
0.00598967
0.00593665
0.00585358
0.00577485
0.00576361
0.00576354
0.00577474
0.00585347
0.00593659
0.00598972
0.00598979
0.00593677
0.00585371
0.00577498
0.00576372
0.00577475
0.00591264
0.00606645
0.0062037
0.00629044
0.00629055
0.00620397
0.00606678
0.00591294
0.00577498
0.00585346
0.00606641
0.00630221
0.00653067
0.00669218
0.00669239
0.00653111
0.00630267
0.00606679
0.00585371
0.00593651
0.00620357
0.00653052
0.00691956
0.00729365
0.00729419
0.00692035
0.00653115
0.00620401
0.00593679
0.00598955
0.00629015
0.00669173
0.00729299
0.00833497
0.00833751
0.00729438
0.00669252
0.00629063
0.00598984
0.00598953
0.00629011
0.00669165
0.00729275
0.0083337
0.00833612
0.00729408
0.0066924
0.00629057
0.00598979
0.00593646
0.00620348
0.00653036
0.00691921
0.00729295
0.00729342
0.0069199
0.00653089
0.00620385
0.00593668
0.0058534
0.00606632
0.00630205
0.0065304
0.00669179
0.00669195
0.00653075
0.0063024
0.00606659
0.00585357
0.00577471
0.00591256
0.00606633
0.00620352
0.0062902
0.00629028
0.00620372
0.00606656
0.00591275
0.00577483
0.00576352
0.0057747
0.00585341
0.00593649
0.00598958
0.00598963
0.00593661
0.00585356
0.00577484
0.00576361
0.00576351
0.00577469
0.00585341
0.00593652
0.00598965
0.00598972
0.0059367
0.00585364
0.00577491
0.00576366
0.00577471
0.00591257
0.00606637
0.00620361
0.00629034
0.00629046
0.00620389
0.0060667
0.00591286
0.00577491
0.0058534
0.00606633
0.0063021
0.00653054
0.00669206
0.00669228
0.00653101
0.00630257
0.00606671
0.00585365
0.00593645
0.00620347
0.00653038
0.00691939
0.00729349
0.00729408
0.00692025
0.00653106
0.00620393
0.00593672
0.00598949
0.00629004
0.00669157
0.00729277
0.00833469
0.0083375
0.00729429
0.00669242
0.00629054
0.00598976
0.00598947
0.00629001
0.0066915
0.00729252
0.00833332
0.00833596
0.00729395
0.00669229
0.00629047
0.00598972
0.00593642
0.0062034
0.00653023
0.00691904
0.00729274
0.00729325
0.00691976
0.00653078
0.00620375
0.00593661
0.00585337
0.00606626
0.00630196
0.00653028
0.00669165
0.00669182
0.00653063
0.00630229
0.0060665
0.0058535
0.00577469
0.00591252
0.00606627
0.00620344
0.00629011
0.00629018
0.00620362
0.00606647
0.00591268
0.00577477
0.00576352
0.00577469
0.00585337
0.00593644
0.00598952
0.00598957
0.00593654
0.00585349
0.00577479
0.00576356
0.00576352
0.0057747
0.00585341
0.0059365
0.00598962
0.00598969
0.00593667
0.00585361
0.00577488
0.00576363
0.00577472
0.00591257
0.00606635
0.00620358
0.0062903
0.00629041
0.00620384
0.00606665
0.00591282
0.00577487
0.00585341
0.00606632
0.00630207
0.0065305
0.00669201
0.00669222
0.00653096
0.00630252
0.00606666
0.00585361
0.00593645
0.00620346
0.00653035
0.00691933
0.00729342
0.00729402
0.0069202
0.006531
0.00620388
0.00593668
0.00598949
0.00629003
0.00669154
0.0072927
0.00833459
0.00833746
0.00729424
0.00669236
0.0062905
0.00598973
0.00598949
0.00629001
0.00669147
0.00729246
0.00833321
0.0083359
0.00729389
0.00669223
0.00629043
0.00598969
0.00593644
0.00620341
0.00653022
0.00691901
0.00729269
0.00729318
0.0069197
0.00653073
0.00620371
0.00593658
0.00585341
0.00606628
0.00630196
0.00653027
0.00669162
0.00669178
0.00653058
0.00630225
0.00606647
0.00585347
0.00577473
0.00591255
0.00606629
0.00620345
0.0062901
0.00629016
0.0062036
0.00606645
0.00591266
0.00577475
0.00576356
0.00577472
0.00585341
0.00593646
0.00598953
0.00598956
0.00593653
0.00585348
0.00577477
0.00576355
0.00576353
0.0057747
0.0058534
0.00593649
0.00598959
0.00598965
0.00593662
0.00585355
0.00577482
0.00576358
0.00577472
0.00591256
0.00606634
0.00620355
0.00629026
0.00629036
0.00620378
0.00606659
0.00591276
0.00577482
0.00585341
0.00606632
0.00630206
0.00653047
0.00669195
0.00669215
0.00653088
0.00630244
0.00606659
0.00585355
0.00593646
0.00620346
0.00653034
0.0069193
0.00729335
0.00729392
0.0069201
0.00653092
0.00620381
0.00593663
0.00598951
0.00629004
0.00669154
0.0072927
0.00833456
0.00833727
0.00729412
0.00669228
0.00629043
0.00598967
0.00598951
0.00629003
0.0066915
0.0072925
0.00833331
0.00833581
0.0072938
0.00669216
0.00629036
0.00598964
0.00593647
0.00620344
0.00653025
0.00691904
0.00729271
0.00729315
0.00691964
0.00653067
0.00620366
0.00593654
0.00585344
0.00606632
0.00630199
0.00653029
0.00669163
0.00669176
0.00653054
0.00630221
0.00606643
0.00585344
0.00577476
0.00591259
0.00606632
0.00620347
0.00629011
0.00629015
0.00620357
0.00606641
0.00591262
0.00577472
0.00576359
0.00577476
0.00585343
0.00593648
0.00598954
0.00598956
0.00593652
0.00585346
0.00577475
0.00576353
0.00576354
0.00577471
0.00585341
0.00593648
0.00598958
0.00598962
0.00593658
0.00585351
0.00577478
0.00576355
0.00577474
0.00591258
0.00606635
0.00620355
0.00629024
0.00629031
0.00620372
0.00606652
0.0059127
0.00577477
0.00585343
0.00606634
0.00630207
0.00653046
0.00669192
0.00669208
0.00653079
0.00630237
0.00606652
0.0058535
0.00593649
0.00620349
0.00653037
0.00691931
0.00729331
0.00729379
0.00691998
0.00653082
0.00620374
0.00593658
0.00598954
0.00629008
0.0066916
0.00729277
0.00833461
0.00833693
0.00729396
0.00669218
0.00629036
0.00598963
0.00598955
0.00629009
0.00669157
0.00729262
0.00833361
0.00833571
0.0072937
0.00669208
0.00629031
0.0059896
0.00593651
0.0062035
0.00653032
0.00691913
0.00729281
0.00729317
0.0069196
0.00653062
0.00620362
0.00593651
0.00585347
0.00606637
0.00630205
0.00653036
0.00669168
0.00669177
0.00653053
0.00630218
0.00606641
0.00585343
0.0057748
0.00591263
0.00606637
0.00620352
0.00629014
0.00629017
0.00620357
0.0060664
0.00591261
0.00577472
0.00576362
0.00577479
0.00585347
0.00593651
0.00598956
0.00598957
0.00593652
0.00585345
0.00577474
0.00576352
0.00576355
0.00577472
0.00585342
0.00593648
0.00598956
0.00598958
0.00593653
0.00585346
0.00577474
0.00576352
0.00577474
0.00591259
0.00606636
0.00620354
0.00629021
0.00629026
0.00620365
0.00606646
0.00591264
0.00577473
0.00585344
0.00606636
0.00630209
0.00653046
0.00669188
0.00669199
0.00653069
0.00630228
0.00606646
0.00585345
0.0059365
0.00620352
0.0065304
0.00691934
0.00729327
0.00729362
0.00691982
0.00653071
0.00620366
0.00593653
0.00598957
0.00629013
0.00669167
0.00729288
0.00833471
0.00833646
0.00729376
0.00669207
0.00629029
0.00598959
0.00598958
0.00629014
0.00669166
0.0072928
0.00833404
0.0083356
0.00729357
0.006692
0.00629026
0.00598957
0.00593654
0.00620355
0.0065304
0.00691925
0.00729294
0.00729319
0.00691957
0.00653058
0.00620359
0.0059365
0.0058535
0.00606641
0.00630211
0.00653043
0.00669174
0.0066918
0.00653053
0.00630217
0.00606639
0.00585342
0.00577481
0.00591266
0.00606641
0.00620356
0.00629017
0.00629019
0.00620357
0.0060664
0.00591261
0.00577472
0.00576362
0.00577481
0.00585349
0.00593653
0.00598958
0.00598958
0.00593652
0.00585345
0.00577474
0.00576353
0.00576355
0.00577473
0.00585343
0.00593648
0.00598955
0.00598956
0.0059365
0.00585343
0.00577471
0.0057635
0.00577475
0.0059126
0.00606637
0.00620354
0.00629018
0.00629021
0.00620359
0.0060664
0.0059126
0.00577471
0.00585345
0.00606638
0.00630211
0.00653047
0.00669184
0.0066919
0.00653059
0.00630219
0.0060664
0.00585342
0.00593652
0.00620355
0.00653045
0.00691938
0.00729322
0.00729344
0.00691966
0.00653061
0.0062036
0.00593649
0.00598958
0.00629017
0.00669174
0.00729302
0.00833483
0.00833593
0.00729354
0.00669196
0.00629023
0.00598956
0.0059896
0.00629019
0.00669176
0.007293
0.00833453
0.00833549
0.00729345
0.00669193
0.00629022
0.00598956
0.00593656
0.00620359
0.00653049
0.00691938
0.0072931
0.00729324
0.00691954
0.00653056
0.00620358
0.0059365
0.00585351
0.00606644
0.00630217
0.0065305
0.00669182
0.00669184
0.00653054
0.00630217
0.0060664
0.00585344
0.00577482
0.00591268
0.00606644
0.0062036
0.00629021
0.00629021
0.00620359
0.00606641
0.00591262
0.00577474
0.00576362
0.00577481
0.0058535
0.00593655
0.0059896
0.00598959
0.00593653
0.00585346
0.00577475
0.00576355
0.00576355
0.00577474
0.00585343
0.00593649
0.00598954
0.00598953
0.00593646
0.00585339
0.00577468
0.00576348
0.00577475
0.00591261
0.00606637
0.00620354
0.00629016
0.00629016
0.00620353
0.00606635
0.00591256
0.00577468
0.00585345
0.00606639
0.00630212
0.00653047
0.0066918
0.00669182
0.0065305
0.00630212
0.00606635
0.00585339
0.00593652
0.00620357
0.00653048
0.00691941
0.00729317
0.00729326
0.00691951
0.00653051
0.00620354
0.00593647
0.00598959
0.00629021
0.00669181
0.00729314
0.00833493
0.00833539
0.00729333
0.00669186
0.00629018
0.00598954
0.00598961
0.00629023
0.00669184
0.00729318
0.00833503
0.00833541
0.00729334
0.00669187
0.0062902
0.00598955
0.00593657
0.00620363
0.00653056
0.0069195
0.00729326
0.0072933
0.00691954
0.00653054
0.00620358
0.00593651
0.00585351
0.00606647
0.00630221
0.00653057
0.00669189
0.00669188
0.00653055
0.00630218
0.00606641
0.00585346
0.00577481
0.00591269
0.00606647
0.00620363
0.00629025
0.00629024
0.00620361
0.00606642
0.00591264
0.00577476
0.00576361
0.00577481
0.00585351
0.00593657
0.00598962
0.00598961
0.00593654
0.00585347
0.00577477
0.00576357
0.00576355
0.00577475
0.00585344
0.00593649
0.00598953
0.00598951
0.00593644
0.00585337
0.00577466
0.00576347
0.00577475
0.00591262
0.00606638
0.00620354
0.00629014
0.00629011
0.00620348
0.0060663
0.00591253
0.00577466
0.00585346
0.0060664
0.00630214
0.00653047
0.00669176
0.00669173
0.00653041
0.00630205
0.0060663
0.00585337
0.00593653
0.00620358
0.00653051
0.00691944
0.00729312
0.00729308
0.00691936
0.00653042
0.00620349
0.00593644
0.0059896
0.00629023
0.00669187
0.00729324
0.00833501
0.00833489
0.00729314
0.00669178
0.00629014
0.00598952
0.00598962
0.00629026
0.00669192
0.00729335
0.0083355
0.00833537
0.00729325
0.00669183
0.00629018
0.00598955
0.00593658
0.00620366
0.00653062
0.00691962
0.00729341
0.00729337
0.00691954
0.00653054
0.00620358
0.00593652
0.00585352
0.00606649
0.00630226
0.00653063
0.00669195
0.00669193
0.00653058
0.00630219
0.00606642
0.00585347
0.00577482
0.0059127
0.00606649
0.00620367
0.00629028
0.00629027
0.00620362
0.00606644
0.00591265
0.00577478
0.00576361
0.00577482
0.00585352
0.00593658
0.00598963
0.00598962
0.00593655
0.00585348
0.00577478
0.00576358
0.00576357
0.00577476
0.00585345
0.00593649
0.00598952
0.00598949
0.00593641
0.00585334
0.00577464
0.00576346
0.00577476
0.00591263
0.00606639
0.00620354
0.00629012
0.00629008
0.00620343
0.00606626
0.00591249
0.00577464
0.00585346
0.00606641
0.00630215
0.00653047
0.00669172
0.00669166
0.00653033
0.00630199
0.00606626
0.00585335
0.00593654
0.0062036
0.00653054
0.00691946
0.00729307
0.00729292
0.00691923
0.00653034
0.00620345
0.00593642
0.00598962
0.00629026
0.00669192
0.00729333
0.00833506
0.00833445
0.00729298
0.0066917
0.0062901
0.00598951
0.00598964
0.00629029
0.00669199
0.00729351
0.00833592
0.00833535
0.00729318
0.00669178
0.00629015
0.00598954
0.00593659
0.00620369
0.00653068
0.00691972
0.00729355
0.00729344
0.00691954
0.00653053
0.00620357
0.00593651
0.00585353
0.00606651
0.0063023
0.00653069
0.00669202
0.00669197
0.00653059
0.00630219
0.00606642
0.00585347
0.00577483
0.00591272
0.00606652
0.0062037
0.00629031
0.00629029
0.00620364
0.00606644
0.00591265
0.00577477
0.00576362
0.00577483
0.00585354
0.0059366
0.00598965
0.00598963
0.00593656
0.00585348
0.00577477
0.00576357
0.00576358
0.00577478
0.00585347
0.0059365
0.00598952
0.00598948
0.00593639
0.00585332
0.00577463
0.00576345
0.00577477
0.00591265
0.00606641
0.00620354
0.00629011
0.00629005
0.0062034
0.00606622
0.00591247
0.00577462
0.00585348
0.00606643
0.00630217
0.00653048
0.0066917
0.0066916
0.00653026
0.00630193
0.00606623
0.00585332
0.00593655
0.00620363
0.00653057
0.00691948
0.00729302
0.00729279
0.00691912
0.00653027
0.0062034
0.00593639
0.00598964
0.00629029
0.00669198
0.00729342
0.00833511
0.00833405
0.00729283
0.00669162
0.00629006
0.00598948
0.00598966
0.00629033
0.00669206
0.00729365
0.00833629
0.00833531
0.0072931
0.00669173
0.00629012
0.00598952
0.00593662
0.00620373
0.00653074
0.00691982
0.00729368
0.00729349
0.00691953
0.00653051
0.00620355
0.0059365
0.00585356
0.00606655
0.00630234
0.00653075
0.00669207
0.006692
0.00653059
0.00630218
0.00606641
0.00585346
0.00577485
0.00591275
0.00606655
0.00620373
0.00629034
0.0062903
0.00620363
0.00606643
0.00591264
0.00577476
0.00576363
0.00577485
0.00585356
0.00593662
0.00598966
0.00598963
0.00593655
0.00585346
0.00577475
0.00576355
0.00576359
0.00577479
0.00585348
0.00593651
0.00598952
0.00598947
0.00593638
0.00585331
0.00577462
0.00576344
0.00577478
0.00591266
0.00606642
0.00620355
0.0062901
0.00629003
0.00620337
0.0060662
0.00591244
0.00577461
0.00585349
0.00606645
0.00630219
0.00653049
0.00669168
0.00669155
0.00653021
0.00630189
0.00606619
0.0058533
0.00593657
0.00620366
0.0065306
0.00691951
0.007293
0.00729267
0.00691902
0.00653021
0.00620336
0.00593637
0.00598966
0.00629033
0.00669203
0.00729351
0.00833518
0.0083337
0.00729268
0.00669155
0.00629002
0.00598945
0.00598969
0.00629038
0.00669213
0.00729379
0.00833665
0.00833524
0.00729301
0.00669167
0.00629008
0.0059895
0.00593665
0.00620377
0.00653081
0.00691992
0.0072938
0.00729352
0.0069195
0.00653047
0.00620352
0.00593648
0.00585358
0.00606659
0.00630239
0.00653081
0.00669212
0.00669202
0.00653058
0.00630216
0.00606638
0.00585344
0.00577487
0.00591278
0.00606658
0.00620376
0.00629037
0.00629031
0.00620362
0.00606641
0.00591261
0.00577474
0.00576365
0.00577487
0.00585358
0.00593663
0.00598967
0.00598963
0.00593653
0.00585344
0.00577473
0.00576353
0.00576358
0.00577479
0.00585348
0.00593651
0.00598952
0.00598946
0.00593637
0.0058533
0.00577461
0.00576344
0.00577478
0.00591266
0.00606642
0.00620355
0.00629009
0.00629001
0.00620334
0.00606617
0.00591243
0.0057746
0.00585349
0.00606646
0.0063022
0.00653049
0.00669166
0.00669151
0.00653016
0.00630185
0.00606617
0.00585329
0.00593658
0.00620368
0.00653063
0.00691953
0.00729298
0.00729258
0.00691894
0.00653015
0.00620333
0.00593635
0.00598968
0.00629037
0.00669209
0.0072936
0.00833527
0.00833339
0.00729255
0.00669148
0.00628998
0.00598943
0.00598971
0.00629042
0.0066922
0.00729393
0.00833697
0.00833514
0.00729292
0.00669162
0.00629005
0.00598948
0.00593667
0.00620382
0.00653088
0.00692001
0.0072939
0.00729353
0.00691947
0.00653043
0.00620349
0.00593646
0.00585361
0.00606662
0.00630244
0.00653086
0.00669217
0.00669203
0.00653057
0.00630213
0.00606636
0.00585342
0.00577489
0.00591281
0.00606662
0.0062038
0.00629039
0.00629031
0.00620361
0.00606639
0.00591259
0.00577473
0.00576367
0.00577489
0.0058536
0.00593665
0.00598968
0.00598963
0.00593652
0.00585343
0.00577471
0.00576352
0.00576356
0.00577477
0.00585347
0.0059365
0.00598951
0.00598945
0.00593636
0.00585329
0.00577461
0.00576345
0.00577476
0.00591265
0.00606641
0.00620354
0.00629008
0.00628999
0.00620333
0.00606616
0.00591242
0.00577461
0.00585348
0.00606645
0.0063022
0.00653049
0.00669164
0.00669148
0.00653013
0.00630183
0.00606615
0.00585329
0.00593658
0.00620368
0.00653065
0.00691955
0.00729296
0.0072925
0.00691887
0.00653011
0.0062033
0.00593634
0.00598968
0.00629039
0.00669213
0.00729367
0.00833535
0.00833313
0.00729244
0.00669143
0.00628995
0.00598942
0.00598973
0.00629045
0.00669226
0.00729405
0.00833725
0.00833504
0.00729284
0.00669157
0.00629002
0.00598947
0.00593669
0.00620385
0.00653093
0.0069201
0.00729398
0.00729354
0.00691944