/*--------------------------------*- C++ -*----------------------------------*\
| =========                 |                                                 |
| \\      /  F ield         | OpenFOAM: The Open Source CFD Toolbox           |
|  \\    /   O peration     | Version:  2406                                  |
|   \\  /    A nd           | Website:  www.openfoam.com                      |
|    \\/     M anipulation  |                                                 |
\*---------------------------------------------------------------------------*/
FoamFile
{
    version     2.0;
    format      ascii;
    arch        "LSB;label=32;scalar=64";
    class       volVectorField;
    location    "1.5";
    object      U;
}
// * * * * * * * * * * * * * * * * * * * * * * * * * * * * * * * * * * * * * //

dimensions      [0 1 -1 0 0 0 0];

internalField   nonuniform List<vector> 
25000
(
(0.148203 0.148203 1.126)
(0.121741 0.159741 1.15799)
(0.089682 0.168689 1.17581)
(0.0549322 0.174337 1.18522)
(0.0184802 0.177166 1.18921)
(-0.01848 0.177166 1.18921)
(-0.054932 0.174337 1.18522)
(-0.0896819 0.168689 1.17581)
(-0.121741 0.159741 1.15799)
(-0.148203 0.148203 1.126)
(0.159741 0.121741 1.15799)
(0.129921 0.12992 1.18715)
(0.0949522 0.136258 1.19911)
(0.0577449 0.140368 1.20344)
(0.0193616 0.142382 1.20465)
(-0.0193614 0.142382 1.20465)
(-0.0577447 0.140368 1.20344)
(-0.0949521 0.136258 1.19911)
(-0.12992 0.12992 1.18715)
(-0.159741 0.121741 1.15799)
(0.168689 0.0896819 1.17581)
(0.136259 0.0949521 1.19911)
(0.099058 0.0990578 1.20625)
(0.0599531 0.101733 1.20696)
(0.0200494 0.10303 1.20625)
(-0.0200492 0.10303 1.20625)
(-0.0599529 0.101733 1.20696)
(-0.0990578 0.0990578 1.20625)
(-0.136258 0.0949521 1.19911)
(-0.168689 0.0896819 1.17581)
(0.174337 0.054932 1.18522)
(0.140368 0.0577447 1.20344)
(0.101733 0.0599529 1.20696)
(0.0613921 0.061392 1.20524)
(0.020496 0.0620861 1.20331)
(-0.0204959 0.0620861 1.20331)
(-0.0613919 0.061392 1.20524)
(-0.101733 0.0599529 1.20696)
(-0.140368 0.0577447 1.20344)
(-0.174337 0.054932 1.18522)
(0.177166 0.0184801 1.18921)
(0.142382 0.0193614 1.20465)
(0.10303 0.0200493 1.20625)
(0.0620862 0.0204959 1.20331)
(0.0207107 0.0207106 1.2008)
(-0.0207106 0.0207106 1.2008)
(-0.062086 0.0204959 1.20331)
(-0.10303 0.0200493 1.20625)
(-0.142382 0.0193614 1.20465)
(-0.177166 0.0184801 1.18921)
(0.177166 -0.0184802 1.18921)
(0.142382 -0.0193615 1.20465)
(0.10303 -0.0200493 1.20625)
(0.0620862 -0.020496 1.20331)
(0.0207107 -0.0207107 1.2008)
(-0.0207106 -0.0207107 1.2008)
(-0.062086 -0.020496 1.20331)
(-0.10303 -0.0200493 1.20625)
(-0.142382 -0.0193615 1.20465)
(-0.177166 -0.0184802 1.18921)
(0.174337 -0.0549321 1.18522)
(0.140368 -0.0577448 1.20344)
(0.101733 -0.059953 1.20696)
(0.0613921 -0.0613921 1.20524)
(0.020496 -0.0620862 1.20331)
(-0.0204959 -0.0620862 1.20331)
(-0.0613919 -0.0613921 1.20524)
(-0.101733 -0.059953 1.20696)
(-0.140368 -0.0577448 1.20344)
(-0.174337 -0.0549321 1.18522)
(0.168689 -0.089682 1.17581)
(0.136259 -0.0949522 1.19911)
(0.099058 -0.0990579 1.20625)
(0.0599531 -0.101733 1.20696)
(0.0200494 -0.10303 1.20625)
(-0.0200492 -0.10303 1.20625)
(-0.0599529 -0.101733 1.20696)
(-0.0990578 -0.0990579 1.20625)
(-0.136258 -0.0949522 1.19911)
(-0.168689 -0.089682 1.17581)
(0.159741 -0.121741 1.15799)
(0.129921 -0.129921 1.18715)
(0.0949522 -0.136259 1.19911)
(0.0577449 -0.140368 1.20344)
(0.0193616 -0.142382 1.20465)
(-0.0193614 -0.142382 1.20465)
(-0.0577447 -0.140368 1.20344)
(-0.0949521 -0.136259 1.19911)
(-0.12992 -0.129921 1.18715)
(-0.159741 -0.121741 1.15799)
(0.148203 -0.148203 1.126)
(0.121741 -0.159741 1.15799)
(0.089682 -0.168689 1.17581)
(0.0549322 -0.174337 1.18522)
(0.0184802 -0.177166 1.18921)
(-0.01848 -0.177166 1.18921)
(-0.054932 -0.174337 1.18522)
(-0.0896819 -0.168689 1.17581)
(-0.121741 -0.159741 1.15799)
(-0.148203 -0.148203 1.126)
(0.0508832 0.0508826 1.26779)
(0.0454877 0.0604812 1.35152)
(0.0364059 0.0683818 1.40592)
(0.0233685 0.0742049 1.43821)
(0.00804211 0.0772046 1.45313)
(-0.00804125 0.0772046 1.45313)
(-0.0233677 0.0742049 1.43821)
(-0.0364052 0.0683819 1.40592)
(-0.045487 0.0604814 1.35152)
(-0.0508826 0.0508828 1.26779)
(0.0604817 0.045487 1.35152)
(0.0552608 0.0552603 1.44013)
(0.0441314 0.0630687 1.48894)
(0.028226 0.0685339 1.51468)
(0.00968433 0.071345 1.52575)
(-0.00968355 0.071345 1.52575)
(-0.0282252 0.0685339 1.51468)
(-0.0441307 0.0630688 1.48894)
(-0.0552602 0.0552604 1.44013)
(-0.0604812 0.0454872 1.35152)
(0.0683823 0.0364053 1.40592)
(0.0630692 0.0441309 1.48894)
(0.0501799 0.0501794 1.53198)
(0.0319882 0.0543475 1.553)
(0.0109523 0.0564911 1.56141)
(-0.0109516 0.0564911 1.56141)
(-0.0319875 0.0543475 1.553)
(-0.0501793 0.0501795 1.53198)
(-0.0630686 0.0441309 1.48894)
(-0.0683818 0.0364054 1.40592)
(0.0742053 0.0233679 1.43821)
(0.0685343 0.0282254 1.51468)
(0.054348 0.0319877 1.553)
(0.0345548 0.0345543 1.57058)
(0.0118164 0.0358747 1.57707)
(-0.0118157 0.0358747 1.57707)
(-0.0345541 0.0345543 1.57058)
(-0.0543473 0.0319877 1.553)
(-0.0685337 0.0282255 1.51468)
(-0.0742048 0.0233679 1.43821)
(0.0772049 0.00804149 1.45313)
(0.0713454 0.00968376 1.52575)
(0.0564915 0.0109518 1.56141)
(0.0358752 0.0118159 1.57707)
(0.0122627 0.0122622 1.58252)
(-0.012262 0.0122622 1.58252)
(-0.0358746 0.0118159 1.57707)
(-0.0564909 0.0109518 1.56141)
(-0.0713449 0.00968377 1.52575)
(-0.0772045 0.0080415 1.45313)
(0.0772049 -0.00804185 1.45313)
(0.0713454 -0.0096841 1.52575)
(0.0564915 -0.0109521 1.56141)
(0.0358752 -0.0118162 1.57707)
(0.0122627 -0.0122625 1.58252)
(-0.012262 -0.0122625 1.58252)
(-0.0358746 -0.0118162 1.57707)
(-0.0564909 -0.0109522 1.56141)
(-0.0713448 -0.00968412 1.52575)
(-0.0772045 -0.00804188 1.45313)
(0.0742052 -0.0233682 1.43821)
(0.0685343 -0.0282258 1.51468)
(0.054348 -0.031988 1.553)
(0.0345548 -0.0345546 1.57058)
(0.0118164 -0.035875 1.57707)
(-0.0118157 -0.035875 1.57707)
(-0.0345541 -0.0345546 1.57058)
(-0.0543473 -0.031988 1.553)
(-0.0685337 -0.0282258 1.51468)
(-0.0742048 -0.0233683 1.43821)
(0.0683822 -0.0364056 1.40592)
(0.0630691 -0.0441312 1.48894)
(0.0501799 -0.0501797 1.53198)
(0.0319882 -0.0543478 1.553)
(0.0109523 -0.0564914 1.56141)
(-0.0109516 -0.0564914 1.56141)
(-0.0319875 -0.0543478 1.553)
(-0.0501793 -0.0501798 1.53198)
(-0.0630686 -0.0441313 1.48894)
(-0.0683817 -0.0364057 1.40592)
(0.0604817 -0.0454874 1.35152)
(0.0552608 -0.0552606 1.44013)
(0.0441314 -0.063069 1.48894)
(0.028226 -0.0685341 1.51468)
(0.00968432 -0.0713452 1.52575)
(-0.00968355 -0.0713453 1.52575)
(-0.0282252 -0.0685342 1.51468)
(-0.0441307 -0.063069 1.48894)
(-0.0552602 -0.0552607 1.44013)
(-0.0604811 -0.0454875 1.35152)
(0.0508831 -0.0508829 1.26779)
(0.0454876 -0.0604815 1.35152)
(0.0364059 -0.0683821 1.40592)
(0.0233685 -0.0742051 1.43821)
(0.0080421 -0.0772048 1.45313)
(-0.00804125 -0.0772048 1.45313)
(-0.0233676 -0.0742052 1.43821)
(-0.0364051 -0.0683822 1.40592)
(-0.0454869 -0.0604816 1.35152)
(-0.0508825 -0.050883 1.26779)
(0.0294386 0.0294373 1.13916)
(0.0273669 0.0362568 1.264)
(0.022384 0.041931 1.35454)
(0.01465 0.0461079 1.41276)
(0.00509756 0.0482988 1.44101)
(-0.00509558 0.0482989 1.44101)
(-0.014648 0.046108 1.41276)
(-0.0223822 0.0419313 1.35454)
(-0.0273653 0.0362572 1.264)
(-0.0294373 0.0294378 1.13916)
(0.0362579 0.0273654 1.264)
(0.0342667 0.0342655 1.41081)
(0.0281271 0.0399446 1.50483)
(0.01839 0.0440011 1.56049)
(0.00638478 0.046108 1.5863)
(-0.00638302 0.0461081 1.5863)
(-0.0183883 0.0440012 1.56049)
(-0.0281255 0.0399448 1.50483)
(-0.0342653 0.0342658 1.41081)
(-0.0362567 0.0273658 1.264)
(0.041932 0.0223826 1.35454)
(0.0399457 0.0281258 1.50483)
(0.0327481 0.0327469 1.59723)
(0.0213511 0.0359551 1.64978)
(0.00739964 0.0376026 1.67351)
(-0.00739803 0.0376026 1.67351)
(-0.0213495 0.0359552 1.64978)
(-0.0327466 0.032747 1.59723)
(-0.0399444 0.028126 1.50483)
(-0.0419309 0.0223828 1.35454)
(0.0461087 0.0146485 1.41276)
(0.0440021 0.0183887 1.56049)
(0.0359562 0.0213499 1.64978)
(0.0233783 0.0233772 1.69966)
(0.00809388 0.0244132 1.72196)
(-0.00809236 0.0244132 1.72196)
(-0.0233768 0.0233772 1.69966)
(-0.0359548 0.02135 1.64978)
(-0.0440009 0.0183888 1.56049)
(-0.0461077 0.0146486 1.41276)
(0.0482995 0.0050961 1.44101)
(0.0461089 0.00638349 1.5863)
(0.0376036 0.00739845 1.67351)
(0.0244143 0.00809276 1.72196)
(0.00845004 0.00844896 1.74358)
(-0.00844857 0.00844896 1.74358)
(-0.0244128 0.00809277 1.72196)
(-0.0376023 0.00739847 1.67351)
(-0.0461077 0.00638351 1.5863)
(-0.0482986 0.00509614 1.44102)
(0.0482995 -0.00509697 1.44101)
(0.0461089 -0.00638427 1.5863)
(0.0376036 -0.00739918 1.67351)
(0.0244143 -0.00809346 1.72196)
(0.00845004 -0.00844965 1.74358)
(-0.00844857 -0.00844965 1.74358)
(-0.0244128 -0.00809348 1.72196)
(-0.0376023 -0.00739921 1.67351)
(-0.0461077 -0.00638431 1.5863)
(-0.0482986 -0.00509703 1.44101)
(0.0461086 -0.0146493 1.41276)
(0.044002 -0.0183895 1.56049)
(0.0359561 -0.0213506 1.64978)
(0.0233783 -0.0233779 1.69966)
(0.00809387 -0.0244139 1.72196)
(-0.00809236 -0.0244139 1.72196)
(-0.0233768 -0.0233779 1.69966)
(-0.0359548 -0.0213507 1.64978)
(-0.0440008 -0.0183896 1.56049)
(-0.0461076 -0.0146495 1.41276)
(0.0419319 -0.0223834 1.35454)
(0.0399456 -0.0281265 1.50483)
(0.032748 -0.0327476 1.59723)
(0.0213511 -0.0359558 1.64978)
(0.00739962 -0.0376032 1.67351)
(-0.00739802 -0.0376033 1.67351)
(-0.0213495 -0.0359558 1.64978)
(-0.0327466 -0.0327477 1.59723)
(-0.0399443 -0.0281267 1.50483)
(-0.0419308 -0.0223836 1.35454)
(0.0362577 -0.0273662 1.264)
(0.0342666 -0.0342661 1.41081)
(0.028127 -0.0399452 1.50483)
(0.01839 -0.0440017 1.56049)
(0.00638476 -0.0461086 1.5863)
(-0.00638302 -0.0461086 1.5863)
(-0.0183883 -0.0440018 1.56049)
(-0.0281254 -0.0399454 1.50483)
(-0.0342652 -0.0342664 1.41081)
(-0.0362566 -0.0273665 1.264)
(0.0294384 -0.0294379 1.13916)
(0.0273667 -0.0362573 1.264)
(0.0223839 -0.0419315 1.35454)
(0.0146499 -0.0461083 1.41276)
(0.00509752 -0.0482992 1.44101)
(-0.00509557 -0.0482993 1.44101)
(-0.014648 -0.0461085 1.41276)
(-0.0223821 -0.0419318 1.35454)
(-0.0273651 -0.0362577 1.264)
(-0.0294371 -0.0294383 1.13916)
(0.0058889 0.00588625 1.1525)
(0.00666997 0.0082271 1.28429)
(0.00621278 0.010548 1.38419)
(0.00436831 0.0124137 1.45073)
(0.00157125 0.0134338 1.48378)
(-0.00156718 0.0134339 1.48378)
(-0.00436437 0.0124141 1.45073)
(-0.0062091 0.0105486 1.38419)
(-0.00666667 0.00822794 1.2843)
(-0.00588622 0.00588726 1.1525)
(0.00822941 0.00666703 1.28429)
(0.00974744 0.0097449 1.44581)
(0.00909392 0.0125537 1.55604)
(0.00635971 0.0146728 1.62466)
(0.00227508 0.015797 1.6575)
(-0.00227149 0.0157971 1.6575)
(-0.00635623 0.014673 1.62466)
(-0.00909066 0.0125541 1.55604)
(-0.00974453 0.00974552 1.44582)
(-0.00822703 0.00666783 1.2843)
(0.0105499 0.00620975 1.38419)
(0.0125559 0.0090913 1.55604)
(0.0115914 0.0115891 1.66971)
(0.00803108 0.0133813 1.73809)
(0.00285678 0.0142903 1.77002)
(-0.00285351 0.0142903 1.77002)
(-0.00802792 0.0133815 1.73809)
(-0.0115885 0.0115894 1.66971)
(-0.0125533 0.00909169 1.55604)
(-0.0105478 0.00621029 1.3842)
(0.0124154 0.00436526 1.45073)
(0.0146747 0.00635706 1.62466)
(0.0133834 0.00802871 1.73809)
(0.00917341 0.00917123 1.80489)
(0.00324184 0.00969803 1.83542)
(-0.00323879 0.00969805 1.83542)
(-0.00917045 0.0091713 1.80489)
(-0.0133806 0.00802885 1.73809)
(-0.0146723 0.00635727 1.62466)
(-0.0124134 0.00436557 1.45073)
(0.0134352 0.00156827 1.48377)
(0.0157988 0.00227247 1.6575)
(0.0142923 0.00285441 1.77002)
(0.00970011 0.00323963 1.83542)
(0.00340651 0.00340438 1.86469)
(-0.00340355 0.00340438 1.86469)
(-0.00969724 0.00323965 1.83542)
(-0.0142896 0.00285444 1.77002)
(-0.0157965 0.00227252 1.6575)
(-0.0134334 0.00156835 1.48378)
(0.0134352 -0.00157 1.48377)
(0.0157988 -0.002274 1.6575)
(0.0142922 -0.00285581 1.77002)
(0.0097001 -0.00324096 1.83542)
(0.0034065 -0.00340567 1.86469)
(-0.00340355 -0.00340568 1.86469)
(-0.00969723 -0.00324099 1.83542)
(-0.0142896 -0.00285588 1.77002)
(-0.0157964 -0.00227409 1.6575)
(-0.0134333 -0.00157013 1.48378)
(0.0124152 -0.00436693 1.45073)
(0.0146746 -0.00635855 1.62466)
(0.0133833 -0.00803008 1.73809)
(0.00917337 -0.00917252 1.80489)
(0.00324182 -0.00969929 1.83542)
(-0.00323879 -0.00969931 1.83542)
(-0.00917042 -0.00917261 1.80489)
(-0.0133806 -0.00803024 1.73809)
(-0.0146722 -0.0063588 1.62466)
(-0.0124132 -0.00436729 1.45073)
(0.0105497 -0.00621132 1.38419)
(0.0125557 -0.00909269 1.55604)
(0.0115913 -0.0115904 1.66971)
(0.008031 -0.0133825 1.73809)
(0.00285674 -0.0142915 1.77002)
(-0.00285351 -0.0142915 1.77002)
(-0.00802787 -0.0133827 1.73809)
(-0.0115883 -0.0115907 1.66971)
(-0.0125531 -0.00909312 1.55604)
(-0.0105476 -0.0062119 1.38419)
(0.00822904 -0.00666844 1.28429)
(0.00974716 -0.00974616 1.44581)
(0.00909372 -0.0125548 1.55604)
(0.00635959 -0.0146738 1.62466)
(0.00227503 -0.0157981 1.6575)
(-0.00227148 -0.0157982 1.6575)
(-0.00635615 -0.0146741 1.62466)
(-0.0090905 -0.0125553 1.55604)
(-0.00974427 -0.0097468 1.44582)
(-0.00822668 -0.00666927 1.28429)
(0.00588844 -0.00588741 1.15249)
(0.0066696 -0.00822814 1.28429)
(0.00621251 -0.0105489 1.38419)
(0.00436814 -0.0124145 1.45073)
(0.00157117 -0.0134346 1.48378)
(-0.00156716 -0.0134348 1.48378)
(-0.00436425 -0.0124149 1.45073)
(-0.00620888 -0.0105495 1.38419)
(-0.00666633 -0.00822898 1.28429)
(-0.00588579 -0.00588842 1.1525)
(0.00543726 0.00543239 1.11571)
(0.00524775 0.00684226 1.25313)
(0.00444042 0.00809825 1.35941)
(0.00298667 0.00905742 1.43137)
(0.00105579 0.00957242 1.46752)
(-0.0010483 0.00957265 1.46752)
(-0.00297942 0.00905811 1.43138)
(-0.00443365 0.00809936 1.35941)
(-0.00524168 0.00684381 1.25314)
(-0.00543233 0.00543423 1.11572)
(0.00684653 0.0052423 1.25313)
(0.00680131 0.0067966 1.42459)
(0.00585024 0.00820932 1.54502)
(0.00395678 0.00927319 1.62183)
(0.00139807 0.009831 1.65919)
(-0.00139147 0.00983116 1.65919)
(-0.00395038 0.00927368 1.62184)
(-0.00584426 0.00821014 1.54502)
(-0.00679595 0.00679776 1.4246)
(-0.00684216 0.0052438 1.25314)
(0.00810184 0.00443481 1.3594)
(0.00821338 0.00584538 1.54502)
(0.00711031 0.00710604 1.67214)
(0.00479897 0.00801463 1.75082)
(0.00168889 0.00845932 1.78822)
(-0.00168293 0.00845941 1.78822)
(-0.00479319 0.00801492 1.75083)
(-0.00710492 0.00710655 1.67215)
(-0.00820859 0.00584613 1.54502)
(-0.00809799 0.00443583 1.35941)
(0.0090605 0.00298103 1.43137)
(0.00927676 0.00395187 1.62183)
(0.00801849 0.0047946 1.75082)
(0.00536459 0.00536057 1.8289)
(0.00187301 0.00557744 1.86496)
(-0.00186745 0.00557748 1.86496)
(-0.00535919 0.00536072 1.8289)
(-0.00801346 0.00479486 1.75083)
(-0.00927233 0.00395228 1.62184)
(-0.00905694 0.00298161 1.43138)
(0.00957506 0.00105027 1.46752)
(0.00983421 0.00139323 1.65919)
(0.00846291 0.00168453 1.78821)
(0.00558126 0.00186895 1.86496)
(0.00192543 0.00192153 1.89882)
(-0.00192006 0.00192154 1.89882)
(-0.00557604 0.00186899 1.86496)
(-0.00845805 0.0016846 1.78822)
(-0.00982996 0.00139334 1.65919)
(-0.00957166 0.00105044 1.46753)
(0.00957496 -0.00105352 1.46752)
(0.00983414 -0.00139612 1.65919)
(0.00846286 -0.00168717 1.78821)
(0.00558124 -0.00187144 1.86496)
(0.00192542 -0.00192394 1.89882)
(-0.00192006 -0.00192396 1.89882)
(-0.00557602 -0.0018715 1.86496)
(-0.00845801 -0.00168728 1.78822)
(-0.00982989 -0.00139629 1.65919)
(-0.00957156 -0.00105376 1.46753)
(0.00906019 -0.00298417 1.43137)
(0.00927653 -0.00395467 1.62183)
(0.00801835 -0.00479716 1.75082)
(0.00536451 -0.00536299 1.8289)
(0.00187298 -0.00557979 1.86496)
(-0.00186744 -0.00557984 1.86496)
(-0.00535913 -0.00536315 1.8289)
(-0.00801333 -0.00479746 1.75083)
(-0.00927212 -0.00395513 1.62184)
(-0.00905665 -0.00298483 1.43138)
(0.00810134 -0.00443774 1.3594)
(0.008213 -0.005848 1.54501)
(0.00711006 -0.00710843 1.67214)
(0.00479883 -0.00801688 1.75082)
(0.00168883 -0.00846151 1.78821)
(-0.00168291 -0.00846161 1.78822)
(-0.00479309 -0.00801719 1.75082)
(-0.0071047 -0.00710897 1.67214)
(-0.00820824 -0.0058488 1.54502)
(-0.0080975 -0.00443883 1.35941)
(0.00684583 -0.00524493 1.25312)
(0.00680077 -0.00679896 1.42459)
(0.00584987 -0.00821145 1.54501)
(0.00395656 -0.00927518 1.62183)
(0.00139798 -0.00983293 1.65919)
(-0.00139144 -0.00983309 1.65919)
(-0.00395022 -0.00927568 1.62183)
(-0.00584394 -0.0082123 1.54502)
(-0.00679545 -0.00680016 1.4246)
(-0.00684149 -0.00524649 1.25313)
(0.00543643 -0.00543453 1.11571)
(0.00524706 -0.00684418 1.25312)
(0.00443992 -0.00809997 1.3594)
(0.00298637 -0.00905902 1.43137)
(0.00105566 -0.00957396 1.46752)
(-0.00104824 -0.00957419 1.46752)
(-0.00297918 -0.00905971 1.43137)
(-0.00443322 -0.00810109 1.35941)
(-0.00524103 -0.00684575 1.25313)
(-0.00543154 -0.0054364 1.11572)
(0.000808165 0.000799754 1.12197)
(0.00102419 0.00118618 1.25977)
(0.00102756 0.00161111 1.36709)
(0.000756008 0.00197468 1.44026)
(0.000281321 0.00218005 1.47719)
(-0.000268484 0.00218045 1.47719)
(-0.000743579 0.00197588 1.44027)
(-0.00101597 0.00161306 1.36711)
(-0.00101381 0.00118889 1.25979)
(-0.000799743 0.000802965 1.12199)
(0.00119356 0.00101476 1.25977)
(0.0015995 0.00159135 1.4327)
(0.0016083 0.00217166 1.55558)
(0.00117754 0.00264217 1.63483)
(0.000433483 0.00290117 1.67366)
(-0.000422141 0.00290146 1.67366)
(-0.00116655 0.00264304 1.63483)
(-0.00159804 0.00217312 1.55559)
(-0.0015903 0.00159341 1.43271)
(-0.00118607 0.00101741 1.25979)
(0.00161731 0.00101785 1.36709)
(0.00217868 0.00159989 1.55557)
(0.0021713 0.00216391 1.68668)
(0.00157668 0.00260636 1.76898)
(0.000575696 0.00284006 1.80844)
(-0.000565444 0.00284023 1.80845)
(-0.00156674 0.0026069 1.76898)
(-0.00216204 0.00216484 1.68669)
(-0.00217046 0.00160124 1.55559)
(-0.00161071 0.00101968 1.36711)
(0.00197997 0.000746238 1.44025)
(0.00264832 0.00116904 1.63482)
(0.00261301 0.00156911 1.76898)
(0.00187722 0.0018703 1.85139)
(0.00067939 0.00200488 1.88974)
(-0.000669828 0.00200496 1.88974)
(-0.00186795 0.00187057 1.8514)
(-0.00260438 0.00156961 1.76899)
(-0.00264073 0.00116979 1.63484)
(-0.00197389 0.000747312 1.44027)
(0.00218457 0.000271795 1.47718)
(0.00290668 0.000425111 1.67365)
(0.00284624 0.000568165 1.80844)
(0.00201145 0.000672399 1.88974)
(0.000716909 0.000710191 1.92555)
(-0.000707677 0.000710213 1.92555)
(-0.00200249 0.000672471 1.88974)
(-0.00283791 0.000568301 1.80845)
(-0.00289939 0.00042533 1.67366)
(-0.00217876 0.000272124 1.4772)
(0.0021844 -0.00027749 1.47718)
(0.00290655 -0.000430149 1.67365)
(0.00284616 -0.000572739 1.80844)
(0.00201141 -0.00067669 1.88973)
(0.000716894 -0.000714354 1.92555)
(-0.000707669 -0.000714387 1.92555)
(-0.00200245 -0.000676796 1.88974)
(-0.00283784 -0.00057293 1.80845)
(-0.00289927 -0.000430434 1.67366)
(-0.00217859 -0.000277879 1.4772)
(0.00197944 -0.000751754 1.44025)
(0.00264793 -0.00117392 1.63482)
(0.00261276 -0.00157355 1.76897)
(0.00187709 -0.00187446 1.85139)
(0.000679339 -0.00200892 1.88974)
(-0.000669802 -0.00200902 1.88974)
(-0.00186784 -0.00187476 1.85139)
(-0.00260415 -0.00157409 1.76898)
(-0.00264035 -0.00117473 1.63483)
(-0.00197336 -0.000752882 1.44027)
(0.00161645 -0.001023 1.36708)
(0.00217802 -0.00160446 1.55557)
(0.00217087 -0.00216805 1.68668)
(0.00157643 -0.00261024 1.76898)
(0.000575602 -0.00284382 1.80844)
(-0.000565397 -0.002844 1.80844)
(-0.00156654 -0.0026108 1.76898)
(-0.00216164 -0.00216902 1.68669)
(-0.00216983 -0.00160586 1.55558)
(-0.00160986 -0.00102487 1.3671)
(0.00119235 -0.00101938 1.25976)
(0.00159856 -0.00159545 1.43269)
(0.00160767 -0.00217534 1.55557)
(0.00117716 -0.00264559 1.63482)
(0.000433336 -0.00290447 1.67365)
(-0.00042207 -0.00290476 1.67366)
(-0.00116624 -0.00264648 1.63483)
(-0.00159746 -0.00217683 1.55558)
(-0.00158941 -0.00159754 1.4327)
(-0.00118489 -0.00102206 1.25978)
(0.000806709 -0.000803505 1.12196)
(0.00102298 -0.00118953 1.25976)
(0.0010267 -0.00161408 1.36708)
(0.000755474 -0.00197743 1.44025)
(0.000281109 -0.00218269 1.47718)
(-0.00026838 -0.00218309 1.47718)
(-0.000743145 -0.00197863 1.44026)
(-0.0010152 -0.00161604 1.3671)
(-0.00101267 -0.00119224 1.25978)
(-0.000798351 -0.000806715 1.12198)
(0.00129176 0.00127816 1.11322)
(0.00122371 0.00159103 1.25238)
(0.00102248 0.00186453 1.3611)
(0.00068557 0.0020721 1.43543)
(0.000247687 0.00218387 1.47301)
(-0.000227182 0.00218451 1.47302)
(-0.000665722 0.00207403 1.43544)
(-0.00100398 0.00186765 1.36113)
(-0.00120713 0.00159536 1.25241)
(-0.00127833 0.00128326 1.11327)
(0.00160305 0.0012084 1.25237)
(0.00155158 0.00153828 1.42749)
(0.00131673 0.00183918 1.55249)
(0.000888229 0.0020699 1.63344)
(0.000318767 0.00219318 1.67323)
(-0.000300527 0.00219366 1.67323)
(-0.000870555 0.00207133 1.63345)
(-0.00130022 0.00184155 1.55251)
(-0.0015368 0.00154163 1.42752)
(-0.001591 0.00121268 1.25241)
(0.00187466 0.0010067 1.36109)
(0.00185066 0.00130298 1.55248)
(0.00158745 0.00157535 1.6864)
(0.00107304 0.00178096 1.77092)
(0.000382963 0.00188647 1.8116)
(-0.000366419 0.00188675 1.8116)
(-0.001057 0.00178185 1.77093)
(-0.00157249 0.00157688 1.68641)
(-0.00183739 0.00130521 1.55251)
(-0.00186398 0.00100971 1.36113)
(0.00208076 0.000669687 1.43541)
(0.00207997 0.000874332 1.63343)
(0.00179186 0.00106066 1.77091)
(0.00120716 0.00119582 1.85591)
(0.000427646 0.00125306 1.89561)
(-0.000412195 0.0012532 1.89562)
(-0.00119218 0.00119629 1.85592)
(-0.00177791 0.0010615 1.77093)
(-0.00206769 0.000875605 1.63346)
(-0.00207091 0.00067149 1.43545)
(0.00219128 0.0002322 1.47299)
(0.00220221 0.00030509 1.67321)
(0.00189657 0.000370638 1.81159)
(0.0012638 0.000416205 1.89561)
(0.000441517 0.000430529 1.93272)
(-0.000426593 0.00043057 1.93272)
(-0.00124932 0.00041634 1.89562)
(-0.00188311 0.000370891 1.81161)
(-0.00219041 0.000305497 1.67323)
(-0.00218186 0.000232808 1.47302)
(0.00219097 -0.000241819 1.47299)
(0.00220199 -0.000313602 1.67321)
(0.00189643 -0.00037835 1.81159)
(0.00126373 -0.000423418 1.89561)
(0.000441489 -0.000437512 1.93272)
(-0.00042658 -0.000437563 1.93272)
(-0.00124926 -0.00042358 1.89562)
(-0.00188298 -0.000378635 1.81161)
(-0.0021902 -0.000314018 1.67323)
(-0.00218157 -0.00024237 1.47302)
(0.00207985 -0.000679006 1.43541)
(0.0020793 -0.000882585 1.63343)
(0.00179143 -0.00106813 1.77091)
(0.00120692 -0.00120282 1.8559)
(0.000427556 -0.00125984 1.89561)
(-0.000412154 -0.00125999 1.89561)
(-0.00119199 -0.00120331 1.85591)
(-0.00177753 -0.001069 1.77092)
(-0.00206705 -0.000883859 1.63345)
(-0.00207004 -0.000680741 1.43544)
(0.00187318 -0.0010154 1.36108)
(0.00184953 -0.0013107 1.55248)
(0.0015867 -0.00158233 1.68639)
(0.00107261 -0.00178748 1.77091)
(0.000382794 -0.00189277 1.81159)
(-0.000366346 -0.00189307 1.8116)
(-0.00105666 -0.00178839 1.77092)
(-0.00157184 -0.00158388 1.68641)
(-0.00183634 -0.00131291 1.5525)
(-0.00186258 -0.00101832 1.36112)
(0.00160097 -0.00121622 1.25236)
(0.00154997 -0.00154521 1.42747)
(0.00131563 -0.00184538 1.55248)
(0.000887567 -0.00207565 1.63343)
(0.000318496 -0.00219871 1.67321)
(-0.000300425 -0.00219919 1.67322)
(-0.000870057 -0.00207708 1.63344)
(-0.00129928 -0.00184775 1.5525)
(-0.00153534 -0.00154851 1.4275)
(-0.00158906 -0.00122038 1.2524)
(0.00128928 -0.00128452 1.11321)
(0.00122161 -0.00159669 1.25236)
(0.00102098 -0.00186954 1.36109)
(0.00068462 -0.00207672 1.43541)
(0.000247283 -0.00218829 1.473)
(-0.000227053 -0.00218892 1.473)
(-0.00066504 -0.00207863 1.43542)
(-0.00100273 -0.00187261 1.36111)
(-0.00120528 -0.00160094 1.25239)
(-0.00127607 -0.00128946 1.11325)
(0.000180231 0.000159742 1.11512)
(0.00023185 0.00024654 1.25436)
(0.000235065 0.000343106 1.3633)
(0.000177183 0.000426242 1.43786)
(7.48026e-05 0.00047386 1.4756)
(-4.42702e-05 0.000474821 1.47561)
(-0.000147642 0.000429126 1.43789)
(-0.000207565 0.000347746 1.36334)
(-0.000207252 0.000252943 1.25441)
(-0.000160335 0.000167201 1.11519)
(0.000264801 0.0002087 1.25435)
(0.000358711 0.000338419 1.42977)
(0.00036218 0.000468604 1.55527)
(0.000268828 0.000574986 1.6367)
(0.000107012 0.000634645 1.67678)
(-7.95614e-05 0.000635366 1.67679)
(-0.000242243 0.000577161 1.63673)
(-0.000337376 0.000472203 1.55531)
(-0.000336543 0.000343445 1.42982)
(-0.000246762 0.000215046 1.25442)
(0.000358579 0.000211147 1.36328)
(0.000486216 0.000341158 1.55526)
(0.000485925 0.000467326 1.68997)
(0.000357084 0.000568588 1.77521)
(0.000138058 0.000624325 1.81633)
(-0.000112993 0.000624778 1.81633)
(-0.000332804 0.000569977 1.77523)
(-0.000463302 0.000469692 1.69)
(-0.000466175 0.000344558 1.55531)
(-0.000342474 0.000215655 1.36335)
(0.000439511 0.000153085 1.43784)
(0.000590475 0.000247563 1.63669)
(0.000585369 0.000338047 1.77521)
(0.000426923 0.000409454 1.86111)
(0.000162311 0.000444798 1.90133)
(-0.000138826 0.000445026 1.90134)
(-0.000404167 0.000410194 1.86113)
(-0.000564202 0.00033936 1.77524)
(-0.000571849 0.000249528 1.63673)
(-0.000424592 0.000155821 1.4379)
(0.000485218 5.13111e-05 1.47557)
(0.00064852 8.60936e-05 1.67675)
(0.00063988 0.000119118 1.81631)
(0.000461342 0.000144694 1.90132)
(0.000172306 0.000155382 1.93895)
(-0.000149606 0.000155452 1.93895)
(-0.000439325 0.000144915 1.90134)
(-0.000619434 0.000119526 1.81634)
(-0.000630615 8.67406e-05 1.6768)
(-0.000470942 5.22625e-05 1.47563)
(0.000484723 -6.64548e-05 1.47556)
(0.000648144 -9.9537e-05 1.67675)
(0.000639635 -0.000131305 1.81631)
(0.000461203 -0.000156089 1.90132)
(0.000172241 -0.00016641 1.93894)
(-0.000149601 -0.00016649 1.93895)
(-0.000439245 -0.000156337 1.90134)
(-0.000619246 -0.000131735 1.81634)
(-0.000630294 -0.000100146 1.67679)
(-0.000470495 -6.72381e-05 1.47562)
(0.000438015 -0.000167765 1.43783)
(0.000589335 -0.000260603 1.63668)
(0.000584612 -0.000349867 1.7752)
(0.000426474 -0.000420504 1.8611)
(0.000162105 -0.000455499 1.90132)
(-0.000138812 -0.000455735 1.90133)
(-0.000403907 -0.000421262 1.86112)
(-0.000563628 -0.000351184 1.77523)
(-0.000570883 -0.000262505 1.63672)
(-0.000423253 -0.0001703 1.43789)
(0.000356143 -0.00022487 1.36326)
(0.000484299 -0.000353369 1.55525)
(0.000484613 -0.00047837 1.68995)
(0.000356274 -0.000578885 1.7752)
(0.000137674 -0.000634273 1.81631)
(-0.000112979 -0.000634727 1.81632)
(-0.000332357 -0.000580269 1.77522)
(-0.00046234 -0.000480699 1.68998)
(-0.000464595 -0.00035665 1.55529)
(-0.000340335 -0.000229112 1.36333)
(0.000261377 -0.000221062 1.25432)
(0.00035597 -0.000349402 1.42975)
(0.000360243 -0.000478436 1.55525)
(0.000267581 -0.000584078 1.63668)
(0.000106396 -0.000643371 1.67676)
(-7.95691e-05 -0.00064408 1.67677)
(-0.000241609 -0.000586206 1.63671)
(-0.00033603 -0.00048193 1.55528)
(-0.000334373 -0.000354218 1.4298)
(-0.000243841 -0.000227039 1.25439)
(0.000176121 -0.000169831 1.11509)
(0.000228281 -0.000255553 1.25433)
(0.000232407 -0.00035106 1.36327)
(0.000175391 -0.000433555 1.43784)
(7.38824e-05 -0.000480829 1.47558)
(-4.43316e-05 -0.000481758 1.47559)
(-0.000146814 -0.000436338 1.43786)
(-0.000205835 -0.000355512 1.36331)
(-0.000204565 -0.00026164 1.25438)
(-0.00015699 -0.000176824 1.11516)
(0.000340665 0.000312301 1.11288)
(0.000324039 0.000391572 1.25247)
(0.000273053 0.000460832 1.36178)
(0.00018888 0.000513183 1.43663)
(8.01479e-05 0.00054188 1.47454)
(-3.78871e-05 0.000543192 1.47455)
(-0.000148033 0.000517107 1.43667)
(-0.00023511 0.0004671 1.36184)
(-0.000290222 0.000400125 1.25256)
(-0.000313427 0.000322064 1.11299)
(0.000417269 0.000291762 1.25246)
(0.000402751 0.000374011 1.42845)
(0.000342278 0.00044817 1.55448)
(0.000235472 0.000504683 1.63633)
(9.53594e-05 0.000535252 1.67663)
(-5.67941e-05 0.000536251 1.67664)
(-0.000198156 0.000507683 1.63636)
(-0.000307525 0.00045309 1.55454)
(-0.000371794 0.000380786 1.42854)
(-0.00039216 0.000300142 1.25257)
(0.000482863 0.000239549 1.36175)
(0.000473391 0.000312369 1.55447)
(0.00040503 0.000378297 1.68986)
(0.000277505 0.000427856 1.77563)
(0.000109054 0.000453741 1.81702)
(-7.35064e-05 0.000454376 1.81703)
(-0.000243095 0.00042979 1.77566)
(-0.000373013 0.000381553 1.68991)
(-0.000445096 0.000316967 1.55454)
(-0.00046018 0.000245502 1.36185)
(0.000532231 0.000155042 1.43659)
(0.000527011 0.000205154 1.6363)
(0.000452107 0.0002501 1.77561)
(0.000308115 0.000282843 1.86212)
(0.000118673 0.000297423 1.90266)
(-8.52167e-05 0.000297743 1.90267)
(-0.000275712 0.000283871 1.86215)
(-0.000421998 0.000251897 1.77566)
(-0.000500556 0.000207788 1.63637)
(-0.000511074 0.000158606 1.43669)
(0.000558272 4.71334e-05 1.47448)
(0.000555305 6.55189e-05 1.67659)
(0.00047625 8.17787e-05 1.817)
(0.000321377 9.3183e-05 1.90265)
(0.00012161 9.71004e-05 1.94059)
(-8.92639e-05 9.71946e-05 1.9406)
(-0.000290017 9.34738e-05 1.90267)
(-0.000447148 8.23008e-05 1.81704)
(-0.000529847 6.63199e-05 1.67666)
(-0.000537987 4.8265e-05 1.47457)
(0.000557511 -6.90655e-05 1.47447)
(0.000554698 -8.5285e-05 1.67659)
(0.000475828 -9.98688e-05 1.81699)
(0.000321113 -0.000110187 1.90264)
(0.00012146 -0.000113598 1.94059)
(-8.93034e-05 -0.000113719 1.9406)
(-0.000289939 -0.000110566 1.90267)
(-0.000446904 -0.00010053 1.81704)
(-0.000529405 -8.62274e-05 1.67665)
(-0.000537358 -7.02913e-05 1.47456)
(0.000529938 -0.000176312 1.43657)
(0.000525169 -0.000224335 1.63629)
(0.000450805 -0.000267651 1.7756)
(0.000307268 -0.000299335 1.86211)
(0.000118199 -0.000313432 1.90265)
(-8.53466e-05 -0.000313773 1.90266)
(-0.000275459 -0.000300427 1.86213)
(-0.000421263 -0.000269538 1.77565)
(-0.000499237 -0.000227039 1.63636)
(-0.000509202 -0.000179877 1.43667)
(0.000479131 -0.000259448 1.36172)
(0.0004703 -0.000330344 1.55444)
(0.000402782 -0.000394708 1.68983)
(0.000275993 -0.000443234 1.7756)
(0.000108188 -0.000468628 1.817)
(-7.37565e-05 -0.000469265 1.81701)
(-0.000242674 -0.000445171 1.77563)
(-0.000371807 -0.000397949 1.68988)
(-0.000442967 -0.000334867 1.55452)
(-0.00045722 -0.000265219 1.36182)
(0.000412043 -0.000309715 1.25242)
(0.000398355 -0.000390203 1.42842)
(0.000338985 -0.000462804 1.55445)
(0.000233174 -0.000518278 1.6363)
(9.40044e-05 -0.000548317 1.6766)
(-5.72222e-05 -0.000549285 1.67661)
(-0.0001976 -0.000521177 1.63633)
(-0.000305889 -0.000467536 1.5545)
(-0.000368928 -0.000396668 1.4285)
(-0.000388177 -0.000317635 1.25252)
(0.000334441 -0.000327003 1.11283)
(0.000318374 -0.000404916 1.25242)
(0.000268598 -0.000472718 1.36173)
(0.000185639 -0.000524155 1.43659)
(7.81834e-05 -0.000552332 1.47449)
(-3.85652e-05 -0.000553566 1.47451)
(-0.000147367 -0.000527841 1.43663)
(-0.000233083 -0.000478587 1.36179)