/*--------------------------------*- C++ -*----------------------------------*\
| =========                 |                                                 |
| \\      /  F ield         | OpenFOAM: The Open Source CFD Toolbox           |
|  \\    /   O peration     | Version:  2406                                  |
|   \\  /    A nd           | Website:  www.openfoam.com                      |
|    \\/     M anipulation  |                                                 |
\*---------------------------------------------------------------------------*/
FoamFile
{
    version     2.0;
    format      ascii;
    arch        "LSB;label=32;scalar=64";
    class       volScalarField;
    location    "1.6";
    object      div(phi);
}
// * * * * * * * * * * * * * * * * * * * * * * * * * * * * * * * * * * * * * //

dimensions      [0 0 -1 0 0 0 0];

internalField   nonuniform List<scalar> 
25000
(
-3.535e-07
-3.27225e-07
-3.26493e-07
-3.12097e-07
-3.00514e-07
-2.94384e-07
-2.85986e-07
-2.86476e-07
-2.98748e-07
-2.31335e-07
-3.0725e-07
-2.82534e-07
-2.74332e-07
-2.73299e-07
-2.56489e-07
-2.45129e-07
-2.45407e-07
-2.47081e-07
-2.31816e-07
-1.79296e-07
-2.86267e-07
-2.60258e-07
-2.616e-07
-2.58453e-07
-2.4375e-07
-2.34114e-07
-2.29773e-07
-2.23382e-07
-2.26117e-07
-1.68861e-07
-2.63321e-07
-2.37011e-07
-2.46192e-07
-2.40807e-07
-2.29303e-07
-2.14736e-07
-2.13911e-07
-2.18076e-07
-2.0744e-07
-1.61976e-07
-2.52058e-07
-2.24116e-07
-2.25011e-07
-2.28156e-07
-2.14851e-07
-2.05507e-07
-2.06467e-07
-2.03022e-07
-2.00565e-07
-1.55938e-07
-2.34904e-07
-2.05901e-07
-2.18404e-07
-2.14124e-07
-2.07187e-07
-1.96474e-07
-1.9514e-07
-1.97935e-07
-1.9527e-07
-1.47352e-07
-2.34166e-07
-2.04403e-07
-2.03256e-07
-2.10494e-07
-1.95382e-07
-1.89317e-07
-1.95682e-07
-1.9346e-07
-1.84852e-07
-1.47537e-07
-2.20866e-07
-1.91811e-07
-2.01016e-07
-1.92646e-07
-1.86031e-07
-1.8784e-07
-1.81128e-07
-1.8572e-07
-1.90017e-07
-1.3824e-07
-2.18666e-07
-1.86802e-07
-1.80062e-07
-1.75913e-07
-1.73394e-07
-1.63384e-07
-1.76096e-07
-1.79588e-07
-1.71191e-07
-1.36923e-07
-1.71808e-07
-1.32938e-07
-1.31157e-07
-1.2984e-07
-1.25435e-07
-1.30991e-07
-1.33952e-07
-1.32927e-07
-1.39128e-07
-9.61055e-08
-2.73525e-07
-2.46222e-07
-2.43347e-07
-2.12897e-07
-1.95942e-07
-2.02925e-07
-2.00873e-07
-2.04104e-07
-2.44306e-07
-1.74117e-07
-2.29304e-07
-2.16378e-07
-1.92405e-07
-1.9305e-07
-1.8862e-07
-1.67725e-07
-1.85537e-07
-1.94749e-07
-1.68164e-07
-1.37192e-07
-1.92862e-07
-1.73486e-07
-1.92396e-07
-1.83238e-07
-1.69574e-07
-1.7627e-07
-1.65459e-07
-1.55538e-07
-1.74865e-07
-1.20373e-07
-1.79988e-07
-1.72257e-07
-1.65501e-07
-1.71261e-07
-1.67793e-07
-1.50059e-07
-1.57119e-07
-1.62189e-07
-1.4451e-07
-1.15224e-07
-1.70283e-07
-1.49996e-07
-1.63065e-07
-1.64017e-07
-1.5409e-07
-1.53935e-07
-1.52503e-07
-1.43751e-07
-1.45749e-07
-1.09184e-07
-1.66392e-07
-1.5127e-07
-1.56219e-07
-1.58628e-07
-1.55609e-07
-1.46846e-07
-1.46294e-07
-1.46962e-07
-1.42775e-07
-1.03093e-07
-1.74265e-07
-1.53521e-07
-1.55786e-07
-1.6087e-07
-1.51293e-07
-1.45991e-07
-1.54225e-07
-1.48422e-07
-1.37264e-07
-1.12422e-07
-1.78863e-07
-1.53785e-07
-1.5928e-07
-1.52677e-07
-1.44606e-07
-1.5115e-07
-1.42574e-07
-1.44937e-07
-1.55244e-07
-1.04493e-07
-1.86403e-07
-1.65536e-07
-1.50481e-07
-1.43532e-07
-1.41823e-07
-1.29894e-07
-1.4674e-07
-1.51121e-07
-1.42682e-07
-1.17705e-07
-1.54594e-07
-1.19273e-07
-1.13995e-07
-1.09258e-07
-1.01905e-07
-1.0769e-07
-1.10152e-07
-1.06746e-07
-1.19188e-07
-7.23424e-08
-5.05585e-07
-4.35538e-07
-4.05587e-07
-3.51816e-07
-3.02424e-07
-2.697e-07
-2.37609e-07
-2.22465e-07
-2.38222e-07
-1.69636e-07
-4.05011e-07
-3.34483e-07
-2.81986e-07
-2.59154e-07
-2.15979e-07
-1.86601e-07
-1.78223e-07
-1.77185e-07
-1.51721e-07
-1.21632e-07
-3.17507e-07
-2.57848e-07
-2.39755e-07
-2.07313e-07
-1.74572e-07
-1.59086e-07
-1.41654e-07
-1.28113e-07
-1.45406e-07
-9.81723e-08
-2.57635e-07
-2.09957e-07
-1.87328e-07
-1.68247e-07
-1.46231e-07
-1.18588e-07
-1.16752e-07
-1.21026e-07
-1.04299e-07
-8.93648e-08
-2.03414e-07
-1.63252e-07
-1.56805e-07
-1.39019e-07
-1.16017e-07
-1.09114e-07
-9.82738e-08
-9.10864e-08
-1.0523e-07
-7.52923e-08
-1.73653e-07
-1.41701e-07
-1.28767e-07
-1.15012e-07
-1.06316e-07
-8.41871e-08
-8.79337e-08
-9.30008e-08
-8.55348e-08
-7.05541e-08
-1.51969e-07
-1.19195e-07
-1.08532e-07
-1.05404e-07
-8.13643e-08
-8.45885e-08
-8.36984e-08
-7.9065e-08
-8.99353e-08
-6.80052e-08
-1.29773e-07
-1.05986e-07
-9.93368e-08
-8.39125e-08
-7.95405e-08
-7.84054e-08
-7.33631e-08
-8.99762e-08
-8.66468e-08
-6.57558e-08
-1.23973e-07
-9.5257e-08
-8.79798e-08
-7.61992e-08
-7.90047e-08
-6.6937e-08
-8.87712e-08
-8.18334e-08
-9.01098e-08
-6.91891e-08
-8.97344e-08
-7.05705e-08
-6.35229e-08
-6.422e-08
-5.67528e-08
-6.61941e-08
-6.64067e-08
-7.12772e-08
-7.87918e-08
-4.71152e-08
3.25029e-07
2.83127e-07
2.53497e-07
2.37434e-07
1.85908e-07
1.3105e-07
1.0153e-07
8.19583e-08
4.71377e-08
6.20505e-08
2.50068e-07
1.92442e-07
2.02152e-07
1.46508e-07
1.16367e-07
9.41601e-08
5.66033e-08
4.07039e-08
6.54797e-08
4.50097e-08
2.23603e-07
1.89533e-07
1.40225e-07
1.3154e-07
1.0345e-07
6.29728e-08
6.131e-08
6.19277e-08
3.54116e-08
5.59573e-08
1.76414e-07
1.32367e-07
1.40595e-07
1.0657e-07
7.94986e-08
7.33363e-08
4.89896e-08
3.91942e-08
6.37724e-08
4.85561e-08
1.62496e-07
1.35977e-07
1.04386e-07
9.36938e-08
7.68501e-08
4.85952e-08
5.13298e-08
5.67467e-08
3.92737e-08
5.60738e-08
1.43016e-07
1.05702e-07
1.05183e-07
8.75742e-08
6.13767e-08
6.39348e-08
4.51214e-08
3.95441e-08
5.9876e-08
5.02863e-08
1.35688e-07
1.11951e-07
9.97665e-08
7.92658e-08
7.74461e-08
4.78076e-08
4.76913e-08
5.62431e-08
4.25037e-08
5.33748e-08
1.32778e-07
1.03572e-07
9.78606e-08
8.76332e-08
6.60543e-08
5.61917e-08
5.45883e-08
3.71615e-08
5.91273e-08
5.06988e-08
1.176e-07
1.05977e-07
8.48315e-08
8.16513e-08
5.56714e-08
5.87908e-08
3.30858e-08
5.63326e-08
4.35637e-08
4.59716e-08
1.02141e-07
7.26387e-08
7.15007e-08
5.37772e-08
5.23948e-08
3.73359e-08
4.27884e-08
3.94319e-08
3.8606e-08
4.17991e-08
-5.23776e-09
3.09146e-08
5.33778e-08
8.586e-08
1.02873e-07
1.18652e-07
1.43363e-07
1.47794e-07
1.44558e-07
1.3037e-07
1.64083e-08
3.85942e-08
8.86346e-08
7.57916e-08
1.05596e-07
1.0382e-07
1.1059e-07
1.18405e-07
1.39514e-07
1.06522e-07
6.58651e-08
7.88665e-08
7.89475e-08
1.01836e-07
1.03021e-07
9.95228e-08
1.16586e-07
1.31198e-07
1.18617e-07
1.18661e-07
8.13377e-08
8.30764e-08
1.07493e-07
1.03706e-07
1.02009e-07
1.13107e-07
1.11042e-07
1.17493e-07
1.46951e-07
1.12524e-07
1.24539e-07
1.16804e-07
1.06996e-07
1.16129e-07
1.12549e-07
9.92651e-08
1.24034e-07
1.40672e-07
1.21798e-07
1.26836e-07
1.34953e-07
1.20136e-07
1.37466e-07
1.34396e-07
1.13957e-07
1.35475e-07
1.23861e-07
1.2736e-07
1.59961e-07
1.19306e-07
1.67155e-07
1.58174e-07
1.61871e-07
1.49098e-07
1.62445e-07
1.27913e-07
1.47105e-07
1.65198e-07
1.34032e-07
1.36469e-07
1.94309e-07
1.73053e-07
1.82944e-07
1.8409e-07
1.58757e-07
1.62147e-07
1.62777e-07
1.36842e-07
1.79557e-07
1.28056e-07
1.95665e-07
1.99709e-07
1.8059e-07
1.86484e-07
1.59075e-07
1.64923e-07
1.36966e-07
1.78498e-07
1.44574e-07
1.31564e-07
1.80785e-07
1.44354e-07
1.53615e-07
1.35762e-07
1.37743e-07
1.20721e-07
1.30482e-07
1.17265e-07
1.18051e-07
9.50622e-08
6.71769e-07
6.30625e-07
6.20721e-07
6.04616e-07
5.43046e-07
4.87095e-07
4.53551e-07
4.11968e-07
3.94219e-07
3.18982e-07
5.54078e-07
4.77814e-07
4.9489e-07
4.21883e-07
3.97611e-07
3.44749e-07
3.17835e-07
3.10314e-07
3.19298e-07
2.44981e-07
4.9442e-07
4.36952e-07
3.93532e-07
3.81094e-07
3.31159e-07
2.87576e-07
2.85406e-07
2.86876e-07
2.73281e-07
2.43078e-07
4.16797e-07
3.54534e-07
3.638e-07
3.18553e-07
2.75812e-07
2.58786e-07
2.43317e-07
2.49622e-07
2.81092e-07
2.23769e-07
4.00038e-07
3.43014e-07
3.06357e-07
2.88314e-07
2.48086e-07
2.1275e-07
2.38035e-07
2.55585e-07
2.38726e-07
2.30815e-07
3.67547e-07
3.06656e-07
3.13505e-07
2.83908e-07
2.31589e-07
2.42564e-07
2.23716e-07
2.31129e-07
2.74889e-07
2.14277e-07
3.79667e-07
3.3324e-07
3.22992e-07
2.88221e-07
2.84123e-07
2.26707e-07
2.48216e-07
2.7143e-07
2.37167e-07
2.32365e-07
3.92246e-07
3.34221e-07
3.37838e-07
3.20248e-07
2.72083e-07
2.66573e-07
2.63817e-07
2.33611e-07
2.96835e-07
2.19083e-07
3.76987e-07
3.60836e-07
3.1559e-07
3.13446e-07
2.62975e-07
2.6495e-07
2.28375e-07
2.88593e-07
2.47604e-07
2.22565e-07
3.31928e-07
2.5696e-07
2.62511e-07
2.28093e-07
2.24629e-07
1.99973e-07
2.15507e-07
2.01833e-07
2.07582e-07
1.64873e-07
5.99584e-07
5.92863e-07
6.14467e-07
6.13914e-07
5.70016e-07
5.25499e-07
5.06768e-07
4.56911e-07
4.48949e-07
3.56755e-07
5.02232e-07
4.58647e-07
4.9902e-07
4.32934e-07
4.33807e-07
3.75863e-07
3.57714e-07
3.54536e-07
3.63595e-07
2.76584e-07
4.65529e-07
4.20566e-07
3.9625e-07
4.00135e-07
3.54995e-07
3.17681e-07
3.21036e-07
3.25126e-07
3.09948e-07
2.76957e-07
3.93105e-07
3.49448e-07
3.72146e-07
3.34306e-07
2.98733e-07
2.88373e-07
2.73954e-07
2.8325e-07
3.26763e-07
2.53806e-07
4.0214e-07
3.49601e-07
3.16895e-07
3.10515e-07
2.74346e-07
2.36953e-07
2.74793e-07
2.98564e-07
2.70483e-07
2.68196e-07
3.72487e-07
3.19361e-07
3.41127e-07
3.15257e-07
2.5982e-07
2.85222e-07
2.59806e-07
2.66024e-07
3.29493e-07
2.45007e-07
4.07499e-07
3.69306e-07
3.64505e-07
3.30688e-07
3.38898e-07
2.65869e-07
2.98918e-07
3.32391e-07
2.72499e-07
2.78187e-07
4.37091e-07
3.80638e-07
3.94469e-07
3.82722e-07
3.24173e-07
3.26817e-07
3.24174e-07
2.74403e-07
3.6916e-07
2.57519e-07
4.29591e-07
4.24419e-07
3.7415e-07
3.75065e-07
3.18082e-07
3.22834e-07
2.75674e-07
3.62336e-07
2.97255e-07
2.76798e-07
3.88347e-07
2.99637e-07
3.07966e-07
2.66657e-07
2.6497e-07
2.35059e-07
2.58306e-07
2.36318e-07
2.49269e-07
1.97092e-07
5.1397e-07
5.28789e-07
5.42278e-07
5.49822e-07
5.04797e-07
4.55995e-07
4.47013e-07
3.96915e-07
3.77954e-07
3.05184e-07
4.1819e-07
3.82671e-07
4.45559e-07
3.6716e-07
3.81942e-07
3.29899e-07
3.06151e-07
3.02426e-07
3.37614e-07
2.42541e-07
3.8973e-07
3.67832e-07
3.37174e-07
3.52351e-07
3.14154e-07
2.7113e-07
2.88385e-07
2.99912e-07
2.69692e-07
2.58708e-07
3.26809e-07
2.96867e-07
3.33097e-07
2.96029e-07
2.65407e-07
2.69769e-07
2.45297e-07
2.51894e-07
3.1977e-07
2.34692e-07
3.49705e-07
3.17119e-07
2.80044e-07
2.86103e-07
2.58185e-07
2.12253e-07
2.61811e-07
2.91914e-07
2.46924e-07
2.62349e-07
3.27763e-07
2.86317e-07
3.22309e-07
2.99434e-07
2.4286e-07
2.83915e-07
2.47894e-07
2.4824e-07
3.34032e-07
2.3585e-07
3.73795e-07
3.55106e-07
3.52419e-07
3.19652e-07
3.41168e-07
2.54876e-07
2.95078e-07
3.38705e-07
2.5971e-07
2.80131e-07
4.21282e-07
3.70152e-07
3.92477e-07
3.86077e-07
3.21668e-07
3.31519e-07
3.29626e-07
2.65072e-07
3.84164e-07
2.58681e-07
4.13452e-07
4.27565e-07
3.72978e-07
3.7857e-07
3.18876e-07
3.26668e-07
2.70959e-07
3.75878e-07
2.98138e-07
2.86317e-07
3.95336e-07
3.04975e-07
3.15436e-07
2.6957e-07
2.69735e-07
2.35579e-07
2.63441e-07
2.37205e-07
2.53167e-07
2.04775e-07
9.02313e-07
8.60678e-07
8.25797e-07
7.88698e-07
6.77945e-07
5.61882e-07
5.09541e-07
4.16109e-07
3.74355e-07
2.97444e-07
7.20865e-07
6.14529e-07
6.51355e-07
5.14637e-07
4.80912e-07
3.94456e-07
3.23444e-07
2.99612e-07
3.38218e-07
2.2921e-07
6.35186e-07
5.6215e-07
4.76217e-07
4.65239e-07
3.85286e-07
2.95862e-07
2.99438e-07
2.92667e-07
2.42534e-07
2.45549e-07
5.09078e-07
4.21517e-07
4.48886e-07
3.67858e-07
3.02731e-07
2.90275e-07
2.32935e-07
2.24285e-07
3.05526e-07
2.11002e-07
4.89983e-07
4.2028e-07
3.46386e-07
3.32177e-07
2.80441e-07
2.04679e-07
2.47425e-07
2.71074e-07
2.05934e-07
2.42771e-07
4.35044e-07
3.48341e-07
3.74463e-07
3.24293e-07
2.4588e-07
2.80363e-07
2.22279e-07
2.05887e-07
3.12074e-07
2.04948e-07
4.60143e-07
4.08805e-07
3.80289e-07
3.3192e-07
3.42089e-07
2.3368e-07
2.66743e-07
3.16041e-07
2.11835e-07
2.59921e-07
4.89283e-07
4.01026e-07
4.11022e-07
3.88477e-07
3.0679e-07
3.12854e-07
3.05627e-07
2.19583e-07
3.68068e-07
2.33273e-07
4.63399e-07
4.49043e-07
3.72481e-07
3.63014e-07
2.95224e-07
2.97611e-07
2.33766e-07
3.58284e-07
2.66775e-07
2.80952e-07
4.34683e-07
3.1094e-07
3.05275e-07
2.4606e-07
2.39688e-07
2.01838e-07
2.35905e-07
2.08953e-07
2.35447e-07
2.01055e-07
-1.96237e-07
-7.79487e-08
-3.27069e-08
2.80379e-08
5.04534e-08
4.4497e-08
8.8361e-08
6.08924e-08
4.04538e-08
3.43749e-08
-1.20791e-07
-6.84875e-08
3.30774e-08
-9.01048e-10
6.25956e-08
5.85513e-08
4.35911e-08
4.66857e-08
1.19232e-07
4.7313e-08
-4.67471e-08
-5.27529e-10
-4.01183e-09
4.72124e-08
5.39314e-08
3.04533e-08
7.49006e-08
9.49321e-08
4.90597e-08
8.88316e-08
-2.61149e-08
-5.1009e-09
5.08763e-08
4.43724e-08
5.07113e-08
9.06378e-08
5.68059e-08
5.66049e-08
1.47892e-07
7.12222e-08
4.39252e-08
5.8865e-08
3.6854e-08
7.657e-08
8.60697e-08
4.7319e-08
1.02725e-07
1.31835e-07
6.4435e-08
1.16581e-07
5.58142e-08
5.19563e-08
1.06064e-07
1.02022e-07
7.98772e-08
1.39426e-07
9.56295e-08
7.77584e-08
1.8185e-07
8.72137e-08
1.18787e-07
1.33153e-07
1.34067e-07
1.3082e-07
1.73904e-07
1.02676e-07
1.42833e-07
1.93226e-07
8.75037e-08
1.47397e-07
1.77658e-07
1.5197e-07
1.8005e-07
1.96128e-07
1.51956e-07
1.86439e-07
1.85805e-07
1.06611e-07
2.44063e-07
1.27706e-07
1.79735e-07
1.97585e-07
1.76124e-07
1.82871e-07
1.65613e-07
1.71891e-07
1.31653e-07
2.38971e-07
1.53149e-07
1.83685e-07
2.17839e-07
1.56399e-07
1.60973e-07
1.34222e-07
1.37193e-07
1.16515e-07
1.44655e-07
1.17335e-07
1.37627e-07
1.28526e-07
7.02992e-07
6.23353e-07
5.81001e-07
5.15049e-07
4.16843e-07
3.15415e-07
2.61089e-07
1.7041e-07
1.64144e-07
8.34221e-08
5.90064e-07
4.55684e-07
4.21245e-07
3.38011e-07
2.88128e-07
2.16103e-07
1.57553e-07
1.37226e-07
1.43588e-07
7.28001e-08
4.48935e-07
3.5159e-07
3.06422e-07
2.68398e-07
2.02019e-07
1.39115e-07
1.25775e-07
9.85924e-08
8.50006e-08
6.96847e-08
3.27265e-07
2.43749e-07
2.28254e-07
1.79495e-07
1.34379e-07
1.1119e-07
6.69038e-08
5.85951e-08
9.68496e-08
4.47372e-08
2.31969e-07
1.75521e-07
1.48855e-07
1.30884e-07
9.53975e-08
5.30306e-08
6.4205e-08
6.46089e-08
3.27776e-08
5.57082e-08
1.70012e-07
1.17776e-07
1.21812e-07
9.08281e-08
6.54678e-08
6.9878e-08
3.80839e-08
1.64306e-08
8.6084e-08
2.21191e-08
1.31064e-07
1.01273e-07
8.43719e-08
7.91685e-08
7.40731e-08
3.66978e-08
4.89312e-08
8.04777e-08
1.07908e-08
6.6385e-08
1.14937e-07
7.40533e-08
7.50057e-08
7.35915e-08
4.6421e-08
7.50184e-08
6.91268e-08
2.47308e-08
1.34421e-07
5.09533e-08
7.70505e-08
4.79542e-08
5.04029e-08
3.52964e-08
5.58362e-08
4.3074e-08
5.37165e-08
1.25258e-07
7.89654e-08
1.2466e-07
1.00382e-07
6.27325e-08
4.72252e-08
4.02156e-08
3.24073e-08
4.12123e-08
6.51121e-08
6.04934e-08
9.32803e-08
9.15442e-08
-7.54089e-07
-6.18382e-07
-5.54775e-07
-5.36938e-07
-4.43307e-07
-3.62498e-07
-2.90845e-07
-2.76702e-07
-2.00042e-07
-2.33034e-07
-5.43796e-07
-4.25201e-07
-4.46922e-07
-3.32619e-07
-2.64412e-07
-2.29115e-07
-1.69235e-07
-1.39504e-07
-1.59373e-07
-1.41221e-07
-5.19004e-07
-4.42563e-07
-3.21061e-07
-3.05232e-07
-2.50946e-07
-1.78555e-07
-1.69174e-07
-1.74263e-07
-1.19794e-07
-1.50551e-07
-4.09575e-07
-3.25761e-07
-3.48749e-07
-2.67365e-07
-2.03573e-07
-1.87154e-07
-1.55356e-07
-1.3531e-07
-1.59174e-07
-1.39739e-07
-4.26421e-07
-3.65707e-07
-2.77827e-07
-2.44084e-07
-2.00353e-07
-1.47549e-07
-1.52454e-07
-1.63523e-07
-1.34512e-07
-1.48753e-07
-3.73638e-07
-3.0521e-07
-2.9946e-07
-2.54e-07
-1.76913e-07
-1.80199e-07
-1.5053e-07
-1.52049e-07
-1.57249e-07
-1.54556e-07
-4.05104e-07
-3.55424e-07
-3.18933e-07
-2.51476e-07
-2.39341e-07
-1.66921e-07
-1.64059e-07
-1.62145e-07
-1.64262e-07
-1.3816e-07
-4.02115e-07
-3.50574e-07
-3.41968e-07
-2.87961e-07
-2.29875e-07
-1.7109e-07
-1.67317e-07
-1.4657e-07
-1.2984e-07
-1.3791e-07
-4.20246e-07
-4.29398e-07
-3.09856e-07
-3.05149e-07
-1.81512e-07
-1.9916e-07
-1.14765e-07
-1.33044e-07
-1.23073e-07
-7.51272e-08
-3.21337e-07
-2.21475e-07
-2.2291e-07
-1.56056e-07
-1.55294e-07
-1.03277e-07
-1.0874e-07
-1.02082e-07
-9.05521e-08
-6.15643e-08
3.80244e-07
2.45388e-07
1.92582e-07
2.47996e-08
-3.70341e-08
-3.66966e-08
-1.03102e-07
-1.52803e-07
-5.69916e-09
-1.68956e-07
3.49831e-07
2.42127e-07
-4.49952e-09
7.52292e-08
1.3437e-09
-6.72137e-08
-1.13586e-08
-1.31627e-09
-1.77615e-07
-1.04164e-07
6.73997e-08
-3.06567e-08
7.80165e-08
-5.69275e-08
-9.45522e-08
-2.48763e-08
-1.30037e-07
-2.06028e-07
-4.67635e-08
-2.08546e-07
4.96314e-08
8.30754e-09
-1.67595e-07
-1.12525e-07
-1.07262e-07
-2.08514e-07
-1.43978e-07
-1.23204e-07
-2.95882e-07
-1.88605e-07
-2.06526e-07
-2.4756e-07
-1.29346e-07
-2.04059e-07
-2.23939e-07
-1.35334e-07
-2.37923e-07
-3.07368e-07
-1.6877e-07
-2.79847e-07
-2.04688e-07
-2.066e-07
-3.21933e-07
-2.92804e-07
-2.14692e-07
-3.28721e-07
-2.50897e-07
-2.38106e-07
-3.69484e-07
-2.68476e-07
-4.04959e-07
-4.30862e-07
-4.05436e-07
-3.65915e-07
-4.3306e-07
-2.83696e-07
-3.41324e-07
-4.01706e-07
-2.84782e-07
-3.15679e-07
-4.81946e-07
-4.8259e-07
-5.3262e-07
-5.1469e-07
-4.22152e-07
-4.00414e-07
-4.01889e-07
-2.94318e-07
-3.97676e-07
-3.00909e-07
-5.85492e-07
-6.51842e-07
-5.33091e-07
-5.49153e-07
-3.96039e-07
-4.34643e-07
-2.81781e-07
-4.06887e-07
-3.00111e-07
-2.55857e-07
-5.11664e-07
-3.76608e-07
-4.02245e-07
-3.1636e-07
-3.3173e-07
-2.48271e-07
-2.81443e-07
-2.39799e-07
-2.33357e-07
-1.86192e-07
-1.03153e-06
-9.68953e-07
-8.9385e-07
-9.73865e-07
-8.24845e-07
-6.3835e-07
-5.88396e-07
-5.19355e-07
-3.04883e-07
-4.21658e-07
-7.48104e-07
-5.85267e-07
-8.32082e-07
-5.27944e-07
-5.04097e-07
-4.55317e-07
-2.81351e-07
-2.27035e-07
-4.45038e-07
-2.76779e-07
-8.28214e-07
-7.77219e-07
-5.00047e-07
-5.80326e-07
-4.97013e-07
-2.91551e-07
-3.81424e-07
-4.35808e-07
-2.09159e-07
-3.96588e-07
-6.34733e-07
-5.10769e-07
-6.89095e-07
-5.10699e-07
-4.0277e-07
-4.71427e-07
-3.23199e-07
-2.74949e-07
-5.27685e-07
-3.40401e-07
-7.84362e-07
-7.2635e-07
-5.04478e-07
-5.34268e-07
-4.83886e-07
-2.96813e-07
-4.23647e-07
-5.05113e-07
-2.98538e-07
-4.60706e-07
-6.75169e-07
-5.68802e-07
-6.86218e-07
-5.94153e-07
-4.17001e-07
-5.54495e-07
-4.02388e-07
-3.65306e-07
-5.95074e-07
-4.13494e-07
-8.60966e-07
-8.21148e-07
-7.5809e-07
-6.45808e-07
-7.18452e-07
-4.45302e-07
-5.21564e-07
-6.21945e-07
-4.15748e-07
-5.02722e-07
-9.31595e-07
-8.45353e-07
-8.9518e-07
-8.3703e-07
-6.55457e-07
-6.16842e-07
-6.11763e-07
-4.17875e-07
-6.55978e-07
-4.65175e-07
-1.01174e-06
-1.07767e-06
-8.38444e-07
-8.4726e-07
-5.92448e-07
-6.45545e-07
-4.07368e-07
-6.53333e-07
-4.71249e-07
-4.52261e-07
-9.04538e-07
-6.26355e-07
-6.4472e-07
-4.80627e-07
-4.93989e-07
-3.62525e-07
-4.34059e-07
-3.75457e-07
-3.98751e-07
-3.35926e-07
1.21113e-07
-1.15515e-07
-1.3225e-07
-3.80019e-07
-3.78578e-07
-2.72771e-07
-3.54398e-07
-3.28266e-07
-7.74821e-08
-2.98852e-07
1.03599e-07
5.23236e-08
-3.74e-07
-1.16269e-07
-2.1764e-07
-2.63476e-07
-9.68819e-08
-6.876e-08
-4.10223e-07
-2.09363e-07
-2.59433e-07
-3.74435e-07
-1.14227e-07
-3.1333e-07
-3.11477e-07
-1.18357e-07
-2.99861e-07
-4.07652e-07
-1.14804e-07
-4.0632e-07
-2.28397e-07
-1.94578e-07
-4.81329e-07
-3.32829e-07
-2.79331e-07
-4.39029e-07
-2.67196e-07
-2.24248e-07
-5.88022e-07
-3.4849e-07
-5.47458e-07
-5.71234e-07
-3.37619e-07
-4.50174e-07
-4.53286e-07
-2.47899e-07
-4.42028e-07
-5.64518e-07
-2.9003e-07
-5.2706e-07
-5.03924e-07
-4.36922e-07
-6.3567e-07
-5.62336e-07
-3.98839e-07
-6.1371e-07
-4.28321e-07
-3.82708e-07
-7.05008e-07
-4.66227e-07
-7.87846e-07
-7.88571e-07
-7.4114e-07
-6.57195e-07
-7.92556e-07
-4.75036e-07
-5.90448e-07
-7.39695e-07
-4.53662e-07
-5.97439e-07
-9.07466e-07
-8.48576e-07
-9.30464e-07
-9.17493e-07
-7.21416e-07
-7.18462e-07
-7.22332e-07
-4.63446e-07
-7.98897e-07
-5.46872e-07
-1.0253e-06
-1.10182e-06
-9.02091e-07
-9.29459e-07
-6.81109e-07
-7.53062e-07
-4.63807e-07
-7.93735e-07
-5.40167e-07
-5.49073e-07
-9.56905e-07
-6.72919e-07
-7.12254e-07
-5.4941e-07
-5.78541e-07
-4.24597e-07
-5.1516e-07
-4.29341e-07
-4.49244e-07
-4.06108e-07
-1.19327e-06
-1.21544e-06
-1.15368e-06
-1.25213e-06
-1.07633e-06
-8.59729e-07
-8.36593e-07
-7.03293e-07
-5.20129e-07
-5.74203e-07
-9.44449e-07
-7.43852e-07
-1.04954e-06
-6.93215e-07
-7.09765e-07
-6.26663e-07
-4.33541e-07
-3.95852e-07
-6.57436e-07
-4.09892e-07
-9.79781e-07
-9.38274e-07
-6.58477e-07
-7.53228e-07
-6.52584e-07
-4.2021e-07
-5.38104e-07
-6.00097e-07
-3.58809e-07
-5.52824e-07
-8.02669e-07
-6.36815e-07
-8.29399e-07
-6.47665e-07
-5.3259e-07
-6.16609e-07
-4.41809e-07
-4.03263e-07
-7.35473e-07
-4.75613e-07
-9.06259e-07
-8.35583e-07
-6.20159e-07
-6.64573e-07
-6.09458e-07
-3.9276e-07
-5.64905e-07
-6.74881e-07
-4.3161e-07
-6.27528e-07
-8.02135e-07
-6.63639e-07
-8.04589e-07
-7.16598e-07
-5.25935e-07
-7.06667e-07
-5.25443e-07
-4.82911e-07
-8.15375e-07
-5.47463e-07
-9.79833e-07
-9.14834e-07
-8.78475e-07
-7.69753e-07
-8.81012e-07
-5.57195e-07
-6.72696e-07
-8.29729e-07
-5.43255e-07
-6.87954e-07
-1.06025e-06
-9.52037e-07
-1.01363e-06
-9.96972e-07
-7.87428e-07
-7.95032e-07
-7.98933e-07
-5.42238e-07
-9.25002e-07
-6.24204e-07
-1.12588e-06
-1.16038e-06
-9.59197e-07
-9.79834e-07
-7.4533e-07
-8.08702e-07
-5.43527e-07
-9.01961e-07
-6.44199e-07
-6.62971e-07
-1.04773e-06
-7.34691e-07
-7.70851e-07
-6.06641e-07
-6.29417e-07
-4.86402e-07
-5.88213e-07
-5.06725e-07
-5.50073e-07
-4.82117e-07
-6.66508e-07
-7.82014e-07
-7.64776e-07
-9.14593e-07
-8.53006e-07
-7.27998e-07
-7.84694e-07
-6.85303e-07
-5.46023e-07
-5.60234e-07
-6.36525e-07
-5.03736e-07
-7.98304e-07
-5.49612e-07
-6.04541e-07
-5.88226e-07
-4.40169e-07
-4.37455e-07
-6.88366e-07
-4.28034e-07
-8.15801e-07
-7.62781e-07
-5.40296e-07
-6.5134e-07
-5.94082e-07
-4.08822e-07
-5.5231e-07
-6.22983e-07
-4.08997e-07
-5.70306e-07
-7.45363e-07
-5.65815e-07
-7.43534e-07
-5.9655e-07
-5.08615e-07
-6.08547e-07
-4.61287e-07
-4.44407e-07
-7.65806e-07
-4.98642e-07
-8.87143e-07
-7.77419e-07
-5.90398e-07
-6.37708e-07
-5.92891e-07
-4.06287e-07
-5.84715e-07
-7.0183e-07
-4.78346e-07
-6.46164e-07
-8.23703e-07
-6.4704e-07
-7.73337e-07
-6.85258e-07
-5.33027e-07
-6.98096e-07
-5.55416e-07
-5.22074e-07
-8.45443e-07
-5.70354e-07
-9.81975e-07
-8.63694e-07
-8.20591e-07
-7.53731e-07
-8.37931e-07
-5.77436e-07
-6.94294e-07
-8.55401e-07
-5.89483e-07
-7.10339e-07
-1.02974e-06
-8.93564e-07
-9.38992e-07
-9.38289e-07
-7.69611e-07
-8.09298e-07
-8.16971e-07
-6.02599e-07
-9.59713e-07
-6.54784e-07
-1.075e-06
-1.01136e-06
-9.02938e-07
-9.07086e-07
-7.63067e-07
-8.02999e-07
-6.11858e-07
-9.32592e-07
-6.98481e-07
-6.98036e-07
-9.81233e-07
-7.07386e-07
-7.33218e-07
-6.23964e-07
-6.38554e-07
-5.3724e-07
-6.26254e-07
-5.54728e-07
-5.86775e-07
-5.07551e-07
-1.13159e-06
-1.19514e-06
-1.19712e-06
-1.24152e-06
-1.15524e-06
-1.0621e-06
-1.07964e-06
-9.69146e-07
-9.81141e-07
-7.7804e-07
-1.05752e-06
-8.83459e-07
-9.92955e-07
-8.4565e-07
-8.46438e-07
-7.91751e-07
-7.20686e-07
-7.49108e-07
-8.51779e-07
-5.94184e-07
-1.00738e-06
-9.06647e-07
-8.00101e-07
-8.14662e-07
-7.37011e-07
-6.22799e-07
-7.02004e-07
-7.32758e-07
-6.56564e-07
-6.35856e-07
-9.50895e-07
-7.43503e-07
-7.95504e-07
-7.04887e-07
-6.18283e-07
-6.47845e-07
-5.82736e-07
-6.00325e-07
-8.01685e-07
-5.6648e-07
-9.0038e-07
-7.58651e-07
-6.76452e-07
-6.65416e-07
-5.99663e-07
-4.91471e-07
-6.20838e-07
-7.14945e-07
-5.98691e-07
-6.44594e-07
-8.56634e-07
-6.68932e-07
-7.18089e-07
-6.52595e-07
-5.57418e-07
-6.43169e-07
-5.9502e-07
-5.876e-07
-8.29043e-07
-5.75398e-07
-8.88364e-07
-7.3238e-07
-7.17845e-07
-6.99091e-07
-7.16732e-07
-5.88431e-07
-6.86108e-07
-8.17596e-07
-6.43114e-07
-6.87064e-07
-8.77874e-07
-7.45097e-07
-7.68261e-07
-7.77162e-07
-6.85076e-07
-7.55069e-07
-7.64817e-07
-6.60982e-07
-9.31292e-07
-6.37574e-07
-8.93922e-07
-7.45763e-07
-7.42946e-07
-7.25962e-07
-7.09458e-07
-7.04268e-07
-6.71539e-07
-8.8434e-07
-7.38857e-07
-6.9896e-07
-7.87839e-07
-5.90183e-07
-6.01752e-07
-5.73041e-07
-5.67079e-07
-5.50194e-07
-6.10448e-07
-5.73656e-07
-6.14757e-07
-4.86026e-07
-1.05395e-06
-1.09563e-06
-1.08661e-06
-1.09825e-06
-1.08143e-06
-1.0448e-06
-1.0812e-06
-1.0254e-06
-1.05282e-06
-7.91852e-07
-1.06052e-06
-8.91845e-07
-8.94251e-07
-8.60649e-07
-8.20724e-07
-8.20561e-07
-7.9075e-07
-8.30472e-07
-8.86212e-07
-6.30605e-07
-1.03952e-06
-8.77212e-07
-8.22464e-07
-8.00188e-07
-7.41878e-07
-6.70414e-07
-7.37558e-07
-7.64463e-07
-7.40732e-07
-6.37901e-07
-1.01909e-06
-7.81114e-07
-7.80297e-07
-7.13055e-07
-6.30931e-07
-6.40595e-07
-6.24581e-07
-6.61651e-07
-7.87413e-07
-5.81626e-07
-9.39278e-07
-7.43506e-07
-6.97016e-07
-6.55487e-07
-5.80967e-07
-5.23015e-07
-6.19725e-07
-7.01256e-07
-6.52949e-07
-6.14685e-07
-8.99683e-07
-6.79636e-07
-6.86107e-07
-6.12918e-07
-5.60114e-07
-5.80538e-07
-6.06509e-07
-6.20277e-07
-7.7277e-07
-5.68118e-07
-8.76064e-07
-6.65889e-07
-6.32574e-07
-6.55461e-07
-5.98857e-07
-5.84913e-07
-6.51193e-07
-7.44964e-07
-6.71913e-07
-6.29432e-07
-8.03865e-07
-6.46758e-07
-6.50745e-07
-6.37621e-07
-6.13674e-07
-6.79486e-07
-6.88805e-07
-6.9372e-07
-8.30434e-07
-6.09021e-07
-7.94967e-07
-5.59156e-07
-6.23678e-07
-5.83342e-07
-6.49442e-07
-6.09564e-07
-6.91899e-07
-7.77087e-07
-7.30893e-07
-6.2848e-07
-6.64015e-07
-5.1902e-07
-5.07126e-07
-5.39596e-07
-5.15256e-07
-5.59819e-07
-5.84195e-07
-5.86053e-07
-5.97532e-07
-4.59055e-07
-1.08253e-06
-1.10371e-06
-1.13634e-06
-1.0731e-06
-1.07732e-06
-1.09727e-06
-1.1191e-06
-1.09211e-06
-1.22412e-06
-8.40539e-07
-1.08113e-06
-9.44976e-07
-8.11702e-07
-8.94059e-07
-8.45612e-07
-8.33855e-07
-8.96314e-07
-9.59792e-07
-8.97077e-07
-6.8371e-07
-9.18994e-07
-7.57809e-07
-8.35474e-07
-7.58515e-07
-7.17089e-07
-7.39788e-07
-7.56418e-07
-7.62865e-07
-8.59299e-07
-6.15871e-07
-9.3059e-07
-7.43543e-07
-6.5177e-07
-6.62204e-07
-6.16005e-07
-5.81731e-07
-6.57525e-07
-7.26361e-07
-7.26618e-07
-5.81686e-07
-7.56241e-07
-5.71557e-07
-6.30401e-07
-5.67451e-07
-5.03065e-07
-5.37297e-07
-5.8737e-07
-6.42241e-07
-7.00087e-07
-5.49782e-07
-7.32964e-07
-5.72383e-07
-5.31258e-07
-5.02762e-07
-5.13628e-07
-4.74742e-07
-5.85812e-07
-6.31692e-07
-6.74046e-07
-5.23411e-07
-6.66546e-07
-4.65694e-07
-4.73914e-07
-5.38551e-07
-4.44297e-07
-5.45257e-07
-5.88842e-07
-6.35097e-07
-6.60372e-07
-5.4079e-07
-5.68643e-07
-4.61142e-07
-4.63299e-07
-4.55679e-07
-5.00107e-07
-5.67028e-07
-5.77984e-07
-6.76504e-07
-7.00394e-07
-5.27207e-07
-5.84854e-07
-3.36363e-07
-4.55808e-07
-4.14277e-07
-5.45002e-07
-4.8192e-07
-6.65011e-07
-6.38721e-07
-6.73328e-07
-5.38293e-07
-4.68136e-07
-3.82174e-07
-3.69604e-07
-4.52893e-07
-4.18073e-07
-5.14764e-07
-5.06148e-07
-5.32941e-07
-5.38326e-07
-3.81205e-07
-1.23934e-06
-1.24769e-06
-1.24965e-06
-1.1446e-06
-1.14991e-06
-1.15846e-06
-1.15381e-06
-1.15711e-06
-1.25912e-06
-8.75311e-07
-1.23816e-06
-1.10202e-06
-9.07874e-07
-1.00701e-06
-9.01557e-07
-8.93479e-07
-9.55281e-07
-1.00128e-06
-9.20516e-07
-7.20993e-07
-1.08708e-06
-8.84229e-07
-9.47082e-07
-8.37648e-07
-7.80045e-07
-8.03047e-07
-7.89339e-07
-7.91291e-07
-9.1644e-07
-6.28837e-07
-1.07094e-06
-8.57271e-07
-7.42521e-07
-7.30685e-07
-6.66973e-07
-5.98565e-07
-6.97691e-07
-7.72953e-07
-7.06886e-07
-6.10343e-07
-8.97459e-07
-6.59367e-07
-7.00803e-07
-6.108e-07
-5.21451e-07
-5.76882e-07
-5.87922e-07
-6.18476e-07
-7.44657e-07
-5.3085e-07
-8.38244e-07
-6.44477e-07
-5.79257e-07
-5.28338e-07
-5.34207e-07
-4.43053e-07
-5.78544e-07
-6.51291e-07
-6.01114e-07
-5.23553e-07
-7.6759e-07
-5.18298e-07
-4.97689e-07
-5.46494e-07
-4.0515e-07
-5.36184e-07
-5.4416e-07
-5.40322e-07
-6.56591e-07
-4.79317e-07
-6.41426e-07
-4.90191e-07
-4.77508e-07
-4.24e-07
-4.76207e-07
-4.88296e-07
-4.91807e-07
-6.40273e-07
-5.67178e-07
-4.76597e-07
-6.39592e-07
-3.64859e-07
-4.44757e-07
-3.94178e-07
-4.86896e-07
-4.20088e-07
-6.00037e-07
-5.03869e-07
-5.96388e-07
-4.36891e-07
-5.05319e-07
-3.93674e-07
-3.63673e-07
-4.32607e-07
-3.88771e-07
-4.77299e-07
-4.4612e-07
-4.88913e-07
-4.68784e-07
-3.34772e-07
-1.09666e-06
-1.06033e-06
-1.09502e-06
-9.61264e-07
-9.60302e-07
-1.01114e-06
-9.982e-07
-9.89256e-07
-1.1719e-06
-7.65493e-07
-1.09681e-06
-9.67456e-07
-7.49006e-07
-8.65841e-07
-8.22501e-07
-7.55456e-07
-8.92984e-07
-9.50437e-07
-7.76518e-07
-6.656e-07
-8.44409e-07
-6.69122e-07
-8.30212e-07
-7.05257e-07
-6.6068e-07
-7.65801e-07
-6.94566e-07
-6.81579e-07
-8.95641e-07
-5.4017e-07
-8.4818e-07
-7.17529e-07
-5.4924e-07
-6.09963e-07
-5.93254e-07
-4.85708e-07
-6.50679e-07
-7.44201e-07
-5.72232e-07
-5.61286e-07
-6.39677e-07
-4.45017e-07
-5.76608e-07
-4.88399e-07
-4.20201e-07
-5.44094e-07
-5.09497e-07
-5.05731e-07
-7.20724e-07
-4.39032e-07
-6.05648e-07
-5.04308e-07
-4.09818e-07
-4.2815e-07
-4.5564e-07
-3.45369e-07
-5.01367e-07
-6.07401e-07
-4.60057e-07
-4.56473e-07
-5.30718e-07
-3.36216e-07
-3.93169e-07
-4.13802e-07
-3.11215e-07
-4.50141e-07
-4.42841e-07
-3.95019e-07
-5.7507e-07
-3.73075e-07
-4.55186e-07
-3.54624e-07
-3.44501e-07
-3.19623e-07
-3.73684e-07
-3.53775e-07
-3.64746e-07
-5.15961e-07
-4.01505e-07
-3.60564e-07
-4.46885e-07
-2.73568e-07
-3.26339e-07
-3.2493e-07
-3.63399e-07
-3.3323e-07
-4.52133e-07
-3.46356e-07
-4.43532e-07
-3.09654e-07
-3.8782e-07
-3.02444e-07
-3.12706e-07
-3.56911e-07
-3.33787e-07
-3.81785e-07
-3.41461e-07
-3.6736e-07
-3.34594e-07
-2.31752e-07
-1.40055e-06
-1.33588e-06
-1.35629e-06
-1.21558e-06
-1.17308e-06
-1.17284e-06
-1.12088e-06
-1.07731e-06
-1.25032e-06
-8.59683e-07
-1.3534e-06
-1.19408e-06
-9.82974e-07
-1.04952e-06
-9.67609e-07
-8.60639e-07
-9.64412e-07
-1.00571e-06
-8.19131e-07
-7.35652e-07
-1.11384e-06
-8.88632e-07
-9.94345e-07
-8.59329e-07
-7.76935e-07
-8.5277e-07
-7.4505e-07
-7.21374e-07
-9.52696e-07
-5.96952e-07
-1.02543e-06
-8.70243e-07
-7.10057e-07
-7.26202e-07
-6.81741e-07
-5.34463e-07
-6.92523e-07
-7.87469e-07
-5.85812e-07
-6.25798e-07
-8.27758e-07
-5.93628e-07
-6.85855e-07
-5.78428e-07
-4.75662e-07
-5.91055e-07
-5.23658e-07
-5.02989e-07
-7.69435e-07
-4.73374e-07
-7.38646e-07
-6.17551e-07
-5.09658e-07
-5.0331e-07
-4.95281e-07
-3.55805e-07
-4.94251e-07
-6.23748e-07
-4.36342e-07
-4.98322e-07
-6.5411e-07
-4.40548e-07
-4.84075e-07
-4.51521e-07
-3.40741e-07
-4.41581e-07
-4.11988e-07
-3.44052e-07
-5.77615e-07
-3.75612e-07
-5.64285e-07
-4.3944e-07
-4.06244e-07
-3.61216e-07
-3.79856e-07
-3.09749e-07
-3.21351e-07
-4.65379e-07
-3.47743e-07
-3.58953e-07
-5.03871e-07
-3.57072e-07
-3.618e-07
-3.69258e-07
-3.36412e-07
-3.31406e-07
-3.73087e-07
-2.93122e-07
-3.94941e-07
-2.82613e-07
-4.31821e-07
-3.4025e-07
-3.58298e-07
-3.60305e-07
-3.48199e-07
-3.48901e-07
-3.17326e-07
-3.3998e-07
-3.01386e-07
-2.30987e-07
-8.04765e-07
-7.80668e-07
-8.25741e-07
-7.16976e-07
-7.05778e-07
-7.8417e-07
-7.75859e-07
-7.31027e-07
-9.85701e-07
-6.19907e-07
-7.96566e-07
-7.35132e-07
-5.67754e-07
-6.59525e-07
-6.8171e-07
-5.63313e-07
-7.37744e-07
-8.03626e-07