/*--------------------------------*- C++ -*----------------------------------*\
| =========                 |                                                 |
| \\      /  F ield         | OpenFOAM: The Open Source CFD Toolbox           |
|  \\    /   O peration     | Version:  2406                                  |
|   \\  /    A nd           | Website:  www.openfoam.com                      |
|    \\/     M anipulation  |                                                 |
\*---------------------------------------------------------------------------*/
FoamFile
{
    version     2.0;
    format      ascii;
    arch        "LSB;label=32;scalar=64";
    class       volScalarField;
    location    "1.6";
    object      magR;
}
// * * * * * * * * * * * * * * * * * * * * * * * * * * * * * * * * * * * * * //

dimensions      [0 2 -2 0 0 0 0];

internalField   uniform 0;

boundaryField
{
    walls
    {
        type            calculated;
        value           nonuniform List<scalar> 
2000
(
5.84368e-07
8.28589e-07
1.09509e-06
1.31565e-06
1.44047e-06
1.44047e-06
1.31565e-06
1.09509e-06
8.28589e-07
5.84368e-07
2.35124e-07
3.22818e-07
4.26153e-07
5.15488e-07
5.67298e-07
5.67298e-07
5.15488e-07
4.26153e-07
3.22818e-07
2.35124e-07
8.2336e-08
1.10261e-07
1.44695e-07
1.75724e-07
1.94053e-07
1.94053e-07
1.75724e-07
1.44695e-07
1.10261e-07
8.23358e-08
1.07665e-07
1.4522e-07
1.90604e-07
2.30859e-07
2.54462e-07
2.54462e-07
2.30858e-07
1.90604e-07
1.4522e-07
1.07665e-07
8.39483e-08
1.12615e-07
1.47886e-07
1.79518e-07
1.98185e-07
1.98185e-07
1.79517e-07
1.47886e-07
1.12614e-07
8.39476e-08
9.09296e-08
1.22296e-07
1.60673e-07
1.94966e-07
2.1517e-07
2.1517e-07
1.94965e-07
1.60672e-07
1.22295e-07
9.09283e-08
8.50879e-08
1.14267e-07
1.50141e-07
1.82296e-07
2.01274e-07
2.01273e-07
1.82294e-07
1.50138e-07
1.14265e-07
8.50855e-08
8.69497e-08
1.16846e-07
1.53539e-07
1.86396e-07
2.05777e-07
2.05776e-07
1.86393e-07
1.53535e-07
1.16841e-07
8.69456e-08
8.54579e-08
1.14794e-07
1.50845e-07
1.83151e-07
2.02215e-07
2.02214e-07
1.83146e-07
1.50839e-07
1.14787e-07
8.54511e-08
8.59555e-08
1.15482e-07
1.5175e-07
1.84241e-07
2.03412e-07
2.03409e-07
1.84234e-07
1.5174e-07
1.15471e-07
8.59448e-08
8.5574e-08
1.14956e-07
1.51058e-07
1.83407e-07
2.02495e-07
2.02491e-07
1.83397e-07
1.51044e-07
1.1494e-07
8.55582e-08
8.57113e-08
1.15145e-07
1.51305e-07
1.83703e-07
2.02819e-07
2.02813e-07
1.83689e-07
1.51285e-07
1.15122e-07
8.56894e-08
8.56171e-08
1.15014e-07
1.51133e-07
1.83494e-07
2.02587e-07
2.02581e-07
1.83475e-07
1.51107e-07
1.14986e-07
8.55893e-08
8.56567e-08
1.15068e-07
1.51203e-07
1.83578e-07
2.02678e-07
2.0267e-07
1.83556e-07
1.51173e-07
1.15035e-07
8.56241e-08
8.56323e-08
1.15035e-07
1.51159e-07
1.83525e-07
2.0262e-07
2.02611e-07
1.83501e-07
1.51126e-07
1.14998e-07
8.55973e-08
8.56393e-08
1.15045e-07
1.51174e-07
1.83543e-07
2.02641e-07
2.02632e-07
1.8352e-07
1.51141e-07
1.15009e-07
8.56049e-08
8.56263e-08
1.15029e-07
1.51154e-07
1.83521e-07
2.02617e-07
2.02609e-07
1.83499e-07
1.51124e-07
1.14996e-07
8.55956e-08
8.56193e-08
1.15021e-07
1.51146e-07
1.83513e-07
2.0261e-07
2.02604e-07
1.83496e-07
1.51122e-07
1.14995e-07
8.55952e-08
8.56065e-08
1.15005e-07
1.51127e-07
1.83493e-07
2.02591e-07
2.02586e-07
1.83481e-07
1.51111e-07
1.14989e-07
8.55913e-08
8.55958e-08
1.14992e-07
1.51113e-07
1.83478e-07
2.02576e-07
2.02575e-07
1.83473e-07
1.51107e-07
1.14987e-07
8.5591e-08
8.55847e-08
1.14979e-07
1.51097e-07
1.83462e-07
2.02562e-07
2.02563e-07
1.83465e-07
1.51102e-07
1.14985e-07
8.55909e-08
8.55756e-08
1.14968e-07
1.51085e-07
1.8345e-07
2.02551e-07
2.02554e-07
1.8346e-07
1.511e-07
1.14984e-07
8.55919e-08
8.55674e-08
1.14958e-07
1.51074e-07
1.83439e-07
2.02541e-07
2.02547e-07
1.83455e-07
1.51097e-07
1.14983e-07
8.55919e-08
8.55604e-08
1.1495e-07
1.51065e-07
1.83429e-07
2.02532e-07
2.02539e-07
1.83449e-07
1.51093e-07
1.14981e-07
8.55904e-08
8.55541e-08
1.14942e-07
1.51055e-07
1.83419e-07
2.02522e-07
2.0253e-07
1.83441e-07
1.51087e-07
1.14976e-07
8.55872e-08
8.55489e-08
1.14935e-07
1.51047e-07
1.83409e-07
2.02512e-07
2.02521e-07
1.83433e-07
1.5108e-07
1.14971e-07
8.55834e-08
8.5545e-08
1.1493e-07
1.5104e-07
1.83401e-07
2.02504e-07
2.02513e-07
1.83426e-07
1.51075e-07
1.14967e-07
8.55808e-08
8.55434e-08
1.14928e-07
1.51037e-07
1.83398e-07
2.02499e-07
2.02508e-07
1.83422e-07
1.51072e-07
1.14966e-07
8.55807e-08
8.55455e-08
1.1493e-07
1.5104e-07
1.834e-07
2.02501e-07
2.0251e-07
1.83425e-07
1.51075e-07
1.14969e-07
8.55835e-08
8.55537e-08
1.1494e-07
1.5105e-07
1.83411e-07
2.02512e-07
2.0252e-07
1.83433e-07
1.51082e-07
1.14975e-07
8.55885e-08
8.55702e-08
1.14959e-07
1.51072e-07
1.83432e-07
2.02532e-07
2.02538e-07
1.83448e-07
1.51094e-07
1.14984e-07
8.55942e-08
8.55961e-08
1.14989e-07
1.51105e-07
1.83466e-07
2.02563e-07
2.02565e-07
1.83469e-07
1.51108e-07
1.14992e-07
8.55988e-08
8.56295e-08
1.15028e-07
1.51148e-07
1.83509e-07
2.02603e-07
2.02597e-07
1.83492e-07
1.51123e-07
1.15e-07
8.5601e-08
8.56644e-08
1.1507e-07
1.51194e-07
1.83556e-07
2.02645e-07
2.02631e-07
1.83516e-07
1.51137e-07
1.15005e-07
8.56007e-08
8.56922e-08
1.15103e-07
1.51232e-07
1.83596e-07
2.02682e-07
2.02661e-07
1.83536e-07
1.51147e-07
1.15008e-07
8.55985e-08
8.57043e-08
1.15119e-07
1.51252e-07
1.83618e-07
2.02704e-07
2.02679e-07
1.83548e-07
1.51152e-07
1.15007e-07
8.55955e-08
8.56956e-08
1.15111e-07
1.51247e-07
1.83615e-07
2.02703e-07
2.02678e-07
1.83546e-07
1.51149e-07
1.15004e-07
8.55923e-08
8.56677e-08
1.1508e-07
1.51215e-07
1.83586e-07
2.02678e-07
2.02657e-07
1.83531e-07
1.51139e-07
1.14998e-07
8.55896e-08
8.56285e-08
1.15035e-07
1.51166e-07
1.83537e-07
2.02634e-07
2.02622e-07
1.83506e-07
1.51123e-07
1.14991e-07
8.55881e-08
8.55904e-08
1.1499e-07
1.51116e-07
1.83486e-07
2.02587e-07
2.02585e-07
1.83479e-07
1.51109e-07
1.14986e-07
8.55893e-08
8.55679e-08
1.14962e-07
1.51083e-07
1.83452e-07
2.02556e-07
2.0256e-07
1.83465e-07
1.51104e-07
1.14989e-07
8.55961e-08
8.55764e-08
1.14971e-07
1.5109e-07
1.83457e-07
2.02561e-07
2.02568e-07
1.83476e-07
1.51118e-07
1.15006e-07
8.56121e-08
8.56331e-08
1.15035e-07
1.51159e-07
1.83526e-07
2.02626e-07
2.02627e-07
1.83528e-07
1.51163e-07
1.15042e-07
8.56392e-08
8.57554e-08
1.15177e-07
1.51314e-07
1.83683e-07
2.02775e-07
2.02758e-07
1.83638e-07
1.51247e-07
1.15103e-07
8.56793e-08
8.59562e-08
1.15411e-07
1.51571e-07
1.83945e-07
2.03022e-07
2.02974e-07
1.83812e-07
1.51377e-07
1.15191e-07
8.57335e-08
8.62445e-08
1.15752e-07
1.51951e-07
1.84338e-07
2.03397e-07
2.03304e-07
1.8408e-07
1.51577e-07
1.15328e-07
8.58199e-08
8.66049e-08
1.16179e-07
1.52429e-07
1.84832e-07
2.03867e-07
2.03718e-07
1.84417e-07
1.51831e-07
1.15505e-07
8.59355e-08
8.7049e-08
1.16731e-07
1.53077e-07
1.85538e-07
2.04577e-07
2.04376e-07
1.84981e-07
1.5228e-07
1.15839e-07
8.6172e-08
8.74351e-08
1.17193e-07
1.53601e-07
1.86083e-07
2.05101e-07
2.04843e-07
1.85371e-07
1.5259e-07
1.16071e-07
8.63429e-08
8.80381e-08
1.18024e-07
1.54692e-07
1.87386e-07
2.06516e-07
2.06244e-07
1.86641e-07
1.53652e-07
1.16895e-07
8.6964e-08
5.84367e-07
8.28589e-07
1.09509e-06
1.31565e-06
1.44047e-06
1.44047e-06
1.31565e-06
1.09509e-06
8.28589e-07
5.84368e-07
2.35124e-07
3.22818e-07
4.26153e-07
5.15487e-07
5.67298e-07
5.67298e-07
5.15488e-07
4.26153e-07
3.22818e-07
2.35124e-07
8.23357e-08
1.10261e-07
1.44695e-07
1.75724e-07
1.94052e-07
1.94052e-07
1.75724e-07
1.44695e-07
1.10261e-07
8.23359e-08
1.07664e-07
1.45219e-07
1.90604e-07
2.30858e-07
2.54462e-07
2.54462e-07
2.30858e-07
1.90604e-07
1.4522e-07
1.07665e-07
8.39467e-08
1.12613e-07
1.47885e-07
1.79516e-07
1.98184e-07
1.98185e-07
1.79517e-07
1.47886e-07
1.12614e-07
8.39482e-08
9.09266e-08
1.22293e-07
1.60669e-07
1.94963e-07
2.15168e-07
2.15169e-07
1.94965e-07
1.60672e-07
1.22296e-07
9.09295e-08
8.50825e-08
1.14261e-07
1.50135e-07
1.82291e-07
2.0127e-07
2.01272e-07
1.82294e-07
1.5014e-07
1.14267e-07
8.50877e-08
8.69407e-08
1.16836e-07
1.53529e-07
1.86387e-07
2.05771e-07
2.05773e-07
1.86393e-07
1.53538e-07
1.16845e-07
8.69495e-08
8.54437e-08
1.14778e-07
1.50829e-07
1.83137e-07
2.02206e-07
2.02209e-07
1.83146e-07
1.50842e-07
1.14792e-07
8.54575e-08
8.59343e-08
1.15459e-07
1.51727e-07
1.84221e-07
2.03398e-07
2.03403e-07
1.84235e-07
1.51746e-07
1.1548e-07
8.59549e-08
8.55441e-08
1.14923e-07
1.51026e-07
1.83379e-07
2.02475e-07
2.02482e-07
1.83398e-07
1.51053e-07
1.14953e-07
8.55731e-08
8.56716e-08
1.15102e-07
1.51263e-07
1.83667e-07
2.02793e-07
2.02802e-07
1.83692e-07
1.51298e-07
1.15141e-07
8.57101e-08
8.55679e-08
1.14961e-07
1.5108e-07
1.83448e-07
2.02556e-07
2.02567e-07
1.83479e-07
1.51124e-07
1.1501e-07
8.56157e-08
8.55999e-08
1.15006e-07
1.51141e-07
1.83525e-07
2.02642e-07
2.02655e-07
1.83561e-07
1.51193e-07
1.15063e-07
8.56551e-08
8.55719e-08
1.14968e-07
1.51093e-07
1.83468e-07
2.0258e-07
2.02594e-07
1.83506e-07
1.51148e-07
1.15029e-07
8.56306e-08
8.55804e-08
1.1498e-07
1.51108e-07
1.83486e-07
2.02601e-07
2.02615e-07
1.83525e-07
1.51163e-07
1.1504e-07
8.56377e-08
8.55744e-08
1.14971e-07
1.51095e-07
1.83469e-07
2.02581e-07
2.02593e-07
1.83504e-07
1.51144e-07
1.15024e-07
8.56249e-08
8.55788e-08
1.14975e-07
1.51099e-07
1.83471e-07
2.02581e-07
2.02591e-07
1.83499e-07
1.51137e-07
1.15017e-07
8.56184e-08
8.55795e-08
1.14974e-07
1.51095e-07
1.83464e-07
2.02569e-07
2.02577e-07
1.83483e-07
1.51121e-07
1.15002e-07
8.56059e-08
8.55826e-08
1.14976e-07
1.51095e-07
1.83461e-07
2.02563e-07
2.02567e-07
1.83471e-07
1.51109e-07
1.1499e-07
8.55954e-08
8.55839e-08
1.14976e-07
1.51093e-07
1.83455e-07
2.02554e-07
2.02555e-07
1.83457e-07
1.51094e-07
1.14977e-07
8.55845e-08
8.55853e-08
1.14977e-07
1.51091e-07
1.83451e-07
2.02546e-07
2.02544e-07
1.83445e-07
1.51082e-07
1.14967e-07
8.55753e-08
8.55863e-08
1.14977e-07
1.51089e-07
1.83446e-07
2.02539e-07
2.02535e-07
1.83434e-07
1.51071e-07
1.14957e-07
8.5567e-08
8.55878e-08
1.14977e-07
1.51088e-07
1.83443e-07
2.02534e-07
2.02527e-07
1.83425e-07
1.51062e-07
1.14949e-07
8.55602e-08
8.55895e-08
1.14978e-07
1.51088e-07
1.83441e-07
2.02529e-07
2.02521e-07
1.83418e-07
1.51055e-07
1.14942e-07
8.55543e-08
8.55909e-08
1.14979e-07
1.51088e-07
1.8344e-07
2.02527e-07
2.02517e-07
1.83413e-07
1.5105e-07
1.14937e-07
8.55495e-08
8.55908e-08
1.14978e-07
1.51087e-07
1.83438e-07
2.02524e-07
2.02513e-07
1.83409e-07
1.51045e-07
1.14933e-07
8.55459e-08
8.55886e-08
1.14976e-07
1.51083e-07
1.83434e-07
2.0252e-07
2.02509e-07
1.83405e-07
1.51043e-07
1.1493e-07
8.55443e-08
8.55846e-08
1.14971e-07
1.51078e-07
1.83429e-07
2.02516e-07
2.02507e-07
1.83404e-07
1.51043e-07
1.14932e-07
8.55459e-08
8.55802e-08
1.14966e-07
1.51074e-07
1.83426e-07
2.02515e-07
2.02508e-07
1.83408e-07
1.51049e-07
1.14939e-07
8.55532e-08
8.55767e-08
1.14964e-07
1.51073e-07
1.83428e-07
2.0252e-07
2.02518e-07
1.83422e-07
1.51065e-07
1.14956e-07
8.55689e-08
8.55753e-08
1.14965e-07
1.51078e-07
1.83438e-07
2.02537e-07
2.02541e-07
1.83449e-07
1.51094e-07
1.14984e-07
8.55942e-08
8.55761e-08
1.1497e-07
1.5109e-07
1.83458e-07
2.02565e-07
2.02576e-07
1.83489e-07
1.51135e-07
1.15022e-07
8.56273e-08
8.55787e-08
1.14979e-07
1.51107e-07
1.83485e-07
2.02602e-07
2.0262e-07
1.83537e-07
1.51182e-07
1.15064e-07
8.56624e-08
8.55823e-08
1.14988e-07
1.51125e-07
1.83512e-07
2.02638e-07
2.02663e-07
1.83581e-07
1.51223e-07
1.15099e-07
8.56907e-08
8.55861e-08
1.14996e-07
1.51138e-07
1.83533e-07
2.02664e-07
2.02692e-07
1.8361e-07
1.51247e-07
1.15117e-07
8.57035e-08
8.55892e-08
1.15e-07
1.51144e-07
1.8354e-07
2.02672e-07
2.02698e-07
1.83612e-07
1.51245e-07
1.1511e-07
8.56955e-08
8.55908e-08
1.14999e-07
1.51139e-07
1.83531e-07
2.02658e-07
2.02678e-07
1.83586e-07
1.51216e-07
1.15081e-07
8.56681e-08
8.55907e-08
1.14994e-07
1.51126e-07
1.83508e-07
2.02625e-07
2.02637e-07
1.8354e-07
1.51168e-07
1.15036e-07
8.5629e-08
8.55895e-08
1.14986e-07
1.51108e-07
1.83479e-07
2.02585e-07
2.02588e-07
1.83487e-07
1.51116e-07
1.1499e-07
8.55907e-08
8.5589e-08
1.1498e-07
1.51094e-07
1.83455e-07
2.02552e-07
2.02549e-07
1.83447e-07
1.5108e-07
1.14961e-07
8.55675e-08
8.55915e-08
1.14981e-07
1.51091e-07
1.83448e-07
2.02542e-07
2.0254e-07
1.83441e-07
1.5108e-07
1.14965e-07
8.55748e-08
8.55986e-08
1.14993e-07
1.51108e-07
1.83471e-07
2.02574e-07
2.02582e-07
1.83493e-07
1.51138e-07
1.15024e-07
8.56298e-08
8.56067e-08
1.15014e-07
1.51147e-07
1.83534e-07
2.02662e-07
2.02696e-07
1.83626e-07
1.51278e-07
1.15159e-07
8.57501e-08
8.56057e-08
1.15038e-07
1.51206e-07
1.83639e-07
2.02817e-07
2.02896e-07
1.83857e-07
1.51518e-07
1.15385e-07
8.59487e-08
8.55623e-08
1.15028e-07
1.51253e-07
1.8376e-07
2.03022e-07
2.03176e-07
1.84186e-07
1.51863e-07
1.15709e-07
8.62325e-08
8.54585e-08
1.14966e-07
1.51267e-07
1.8388e-07
2.03259e-07
2.03516e-07
1.84594e-07
1.5229e-07
1.1611e-07
8.65841e-08
8.51843e-08
1.1472e-07
1.51103e-07
1.83854e-07
2.03403e-07
2.03824e-07
1.85021e-07
1.52771e-07
1.16579e-07
8.70051e-08
8.49349e-08
1.14504e-07
1.50975e-07
1.8386e-07
2.03563e-07
2.04121e-07
1.85411e-07
1.53194e-07
1.16985e-07
8.73656e-08
8.4157e-08
1.13673e-07
1.50188e-07
1.83251e-07
2.03241e-07
2.04122e-07
1.85691e-07
1.53647e-07
1.17504e-07
8.78713e-08
5.84367e-07
8.28589e-07
1.09509e-06
1.31565e-06
1.44047e-06
1.44047e-06
1.31565e-06
1.09509e-06
8.28589e-07
5.84367e-07
2.35124e-07
3.22818e-07
4.26153e-07
5.15487e-07
5.67297e-07
5.67297e-07
5.15487e-07
4.26153e-07
3.22818e-07
2.35124e-07
8.23355e-08
1.1026e-07
1.44695e-07
1.75724e-07
1.94052e-07
1.94052e-07
1.75724e-07
1.44695e-07
1.1026e-07
8.23356e-08
1.07664e-07
1.45219e-07
1.90603e-07
2.30857e-07
2.54461e-07
2.54461e-07
2.30857e-07
1.90603e-07
1.45219e-07
1.07664e-07
8.3946e-08
1.12612e-07
1.47883e-07
1.79515e-07
1.98182e-07
1.98183e-07
1.79515e-07
1.47884e-07
1.12613e-07
8.39466e-08
9.09251e-08
1.22291e-07
1.60667e-07
1.9496e-07
2.15164e-07
2.15165e-07
1.94961e-07
1.60668e-07
1.22292e-07
9.09264e-08
8.50799e-08
1.14258e-07
1.5013e-07
1.82285e-07
2.01264e-07
2.01264e-07
1.82287e-07
1.50132e-07
1.1426e-07
8.50822e-08
8.69361e-08
1.16829e-07
1.53521e-07
1.86377e-07
2.05759e-07
2.0576e-07
1.8638e-07
1.53525e-07
1.16833e-07
8.69401e-08
8.54363e-08
1.14768e-07
1.50816e-07
1.83121e-07
2.02187e-07
2.02188e-07
1.83125e-07
1.50822e-07
1.14775e-07
8.54427e-08
8.5923e-08
1.15443e-07
1.51707e-07
1.84196e-07
2.03368e-07
2.03371e-07
1.84202e-07
1.51715e-07
1.15453e-07
8.59326e-08
8.55283e-08
1.14901e-07
1.50997e-07
1.83343e-07
2.02433e-07
2.02436e-07
1.83351e-07
1.51009e-07
1.14915e-07
8.55416e-08
8.56514e-08
1.15073e-07
1.51224e-07
1.83618e-07
2.02736e-07
2.0274e-07
1.83628e-07
1.51239e-07
1.1509e-07
8.56681e-08
8.55441e-08
1.14926e-07
1.51032e-07
1.83387e-07
2.02483e-07
2.02488e-07
1.83399e-07
1.51049e-07
1.14945e-07
8.55634e-08
8.55745e-08
1.14968e-07
1.51087e-07
1.83454e-07
2.02557e-07
2.02562e-07
1.83467e-07
1.51105e-07
1.14988e-07
8.55946e-08
8.55475e-08
1.1493e-07
1.51037e-07
1.83392e-07
2.02489e-07
2.02493e-07
1.83404e-07
1.51054e-07
1.14949e-07
8.55663e-08
8.55596e-08
1.14946e-07
1.51056e-07
1.83414e-07
2.02511e-07
2.02515e-07
1.83424e-07
1.5107e-07
1.14961e-07
8.55751e-08
8.55592e-08
1.14944e-07
1.51051e-07
1.83407e-07
2.02502e-07
2.02504e-07
1.83413e-07
1.51061e-07
1.14954e-07
8.55699e-08
8.55703e-08
1.14958e-07
1.51068e-07
1.83425e-07
2.0252e-07
2.02521e-07
1.83428e-07
1.51072e-07
1.14963e-07
8.55756e-08
8.55777e-08
1.14967e-07
1.51078e-07
1.83436e-07
2.02531e-07
2.02531e-07
1.83435e-07
1.51078e-07
1.14966e-07
8.55777e-08
8.55868e-08
1.14978e-07
1.51092e-07
1.83452e-07
2.02547e-07
2.02546e-07
1.83449e-07
1.51088e-07
1.14973e-07
8.55821e-08
8.55936e-08
1.14987e-07
1.51103e-07
1.83464e-07
2.02559e-07
2.02557e-07
1.83458e-07
1.51094e-07
1.14977e-07
8.55845e-08
8.56e-08
1.14995e-07
1.51112e-07
1.83474e-07
2.0257e-07
2.02567e-07
1.83466e-07
1.511e-07
1.14981e-07
8.55868e-08
8.56059e-08
1.15002e-07
1.51121e-07
1.83483e-07
2.02579e-07
2.02575e-07
1.83472e-07
1.51105e-07
1.14984e-07
8.55886e-08
8.56123e-08
1.1501e-07
1.51129e-07
1.83492e-07
2.02588e-07
2.02583e-07
1.83479e-07
1.5111e-07
1.14988e-07
8.5591e-08
8.56191e-08
1.15018e-07
1.51139e-07
1.83502e-07
2.02598e-07
2.02592e-07
1.83486e-07
1.51115e-07
1.14992e-07
8.55935e-08
8.5626e-08
1.15026e-07
1.51149e-07
1.83513e-07
2.02608e-07
2.02601e-07
1.83493e-07
1.51121e-07
1.14995e-07
8.55956e-08
8.5632e-08
1.15034e-07
1.51158e-07
1.83522e-07
2.02617e-07
2.02609e-07
1.83499e-07
1.51125e-07
1.14997e-07
8.55962e-08
8.56354e-08
1.15038e-07
1.51163e-07
1.83528e-07
2.02622e-07
2.02613e-07
1.83501e-07
1.51125e-07
1.14996e-07
8.55946e-08
8.56344e-08
1.15037e-07
1.51161e-07
1.83527e-07
2.02621e-07
2.02611e-07
1.83499e-07
1.51121e-07
1.14992e-07
8.55908e-08
8.56263e-08
1.15028e-07
1.51151e-07
1.83516e-07
2.0261e-07
2.02601e-07
1.8349e-07
1.51114e-07
1.14986e-07
8.55858e-08
8.56094e-08
1.15008e-07
1.51129e-07
1.83494e-07
2.0259e-07
2.02583e-07
1.83475e-07
1.51103e-07
1.14978e-07
8.55805e-08
8.55836e-08
1.14978e-07
1.51096e-07
1.83461e-07
2.02558e-07
2.02556e-07
1.83454e-07
1.51088e-07
1.14969e-07
8.55759e-08
8.55516e-08
1.1494e-07
1.51055e-07
1.83418e-07
2.02519e-07
2.02523e-07
1.83429e-07
1.51071e-07
1.1496e-07
8.55721e-08
8.55193e-08
1.14901e-07
1.51011e-07
1.83373e-07
2.02476e-07
2.02486e-07
1.83402e-07
1.51054e-07
1.14951e-07
8.55696e-08
8.54943e-08
1.14871e-07
1.50975e-07
1.83334e-07
2.02439e-07
2.02455e-07
1.83379e-07
1.5104e-07
1.14945e-07
8.55688e-08
8.54837e-08
1.14856e-07
1.50956e-07
1.83312e-07
2.02418e-07
2.02437e-07
1.83367e-07
1.51034e-07
1.14944e-07
8.55705e-08
8.54917e-08
1.14864e-07
1.50962e-07
1.83315e-07
2.02419e-07
2.02438e-07
1.83369e-07
1.51038e-07
1.14948e-07
8.55745e-08
8.55172e-08
1.14892e-07
1.50991e-07
1.83344e-07
2.02445e-07
2.02461e-07
1.83387e-07
1.51051e-07
1.14958e-07
8.558e-08
8.55527e-08
1.14934e-07
1.51037e-07
1.8339e-07
2.02488e-07
2.02498e-07
1.83416e-07
1.51072e-07
1.14969e-07
8.55856e-08
8.55851e-08
1.14973e-07
1.51082e-07
1.83439e-07
2.02535e-07
2.02539e-07
1.83448e-07
1.51093e-07
1.14981e-07
8.55902e-08
8.55975e-08
1.1499e-07
1.51106e-07
1.83467e-07
2.02565e-07
2.02567e-07
1.83471e-07
1.51108e-07
1.14989e-07
8.55937e-08
8.55711e-08
1.14963e-07
1.51083e-07
1.83451e-07
2.02557e-07
2.02565e-07
1.83472e-07
1.51112e-07
1.14992e-07
8.55964e-08
8.54875e-08
1.14871e-07
1.50989e-07
1.83366e-07
2.02488e-07
2.02515e-07
1.83441e-07
1.51095e-07
1.14987e-07
8.55978e-08
8.53333e-08
1.14695e-07
1.50805e-07
1.83189e-07
2.02335e-07
2.02396e-07
1.83358e-07
1.51046e-07
1.14963e-07
8.55918e-08
8.51061e-08
1.14433e-07
1.50521e-07
1.82909e-07
2.02083e-07
2.02189e-07
1.83205e-07
1.50945e-07
1.14906e-07
8.5566e-08
8.4814e-08
1.14085e-07
1.50132e-07
1.82508e-07
2.01702e-07
2.01857e-07
1.82939e-07
1.50749e-07
1.14774e-07
8.54858e-08
8.44897e-08
1.1369e-07
1.49678e-07
1.82021e-07
2.01221e-07
2.01417e-07
1.82565e-07
1.50452e-07
1.14555e-07
8.53349e-08
8.41403e-08
1.13231e-07
1.49103e-07
1.81353e-07
2.00504e-07
2.00705e-07
1.81911e-07
1.49895e-07
1.14114e-07
8.50048e-08
8.38839e-08
1.12897e-07
1.48682e-07
1.80863e-07
1.99973e-07
2.00167e-07
1.814e-07
1.4944e-07
1.13736e-07
8.47052e-08
8.35091e-08
1.12309e-07
1.47808e-07
1.79709e-07
1.98599e-07
1.98693e-07
1.79962e-07
1.48157e-07
1.12677e-07
8.38721e-08
5.84368e-07
8.28589e-07
1.09509e-06
1.31565e-06
1.44047e-06
1.44047e-06
1.31565e-06
1.09509e-06
8.28589e-07
5.84367e-07
2.35124e-07
3.22818e-07
4.26153e-07
5.15487e-07
5.67297e-07
5.67297e-07
5.15487e-07
4.26153e-07
3.22818e-07
2.35124e-07
8.23358e-08
1.10261e-07
1.44695e-07
1.75724e-07
1.94052e-07
1.94052e-07
1.75724e-07
1.44695e-07
1.1026e-07
8.23355e-08
1.07665e-07
1.4522e-07
1.90604e-07
2.30858e-07
2.54461e-07
2.54461e-07
2.30857e-07
1.90603e-07
1.45219e-07
1.07664e-07
8.39475e-08
1.12613e-07
1.47885e-07
1.79516e-07
1.98183e-07
1.98183e-07
1.79515e-07
1.47884e-07
1.12612e-07
8.39461e-08
9.09281e-08
1.22294e-07
1.6067e-07
1.94963e-07
2.15166e-07
2.15166e-07
1.94961e-07
1.60667e-07
1.22291e-07
9.09252e-08
8.50851e-08
1.14263e-07
1.50136e-07
1.8229e-07
2.01267e-07
2.01266e-07
1.82287e-07
1.50131e-07
1.14258e-07
8.50801e-08
8.6945e-08
1.16839e-07
1.53531e-07
1.86386e-07
2.05765e-07
2.05763e-07
1.8638e-07
1.53523e-07
1.1683e-07
8.69363e-08
8.54501e-08
1.14783e-07
1.50831e-07
1.83134e-07
2.02196e-07
2.02193e-07
1.83125e-07
1.50819e-07
1.14769e-07
8.54367e-08
8.59432e-08
1.15465e-07
1.51729e-07
1.84215e-07
2.03382e-07
2.03378e-07
1.84203e-07
1.51711e-07
1.15445e-07
8.59236e-08
8.55557e-08
1.14931e-07
1.51027e-07
1.83369e-07
2.02452e-07
2.02446e-07
1.83352e-07
1.51002e-07
1.14904e-07
8.55291e-08
8.5686e-08
1.15111e-07
1.51262e-07
1.83651e-07
2.0276e-07
2.02752e-07
1.83629e-07
1.51231e-07
1.15076e-07
8.56524e-08
8.5585e-08
1.14971e-07
1.51077e-07
1.83427e-07
2.02513e-07
2.02504e-07
1.83402e-07
1.51041e-07
1.1493e-07
8.55454e-08
8.56191e-08
1.15017e-07
1.51138e-07
1.83499e-07
2.02591e-07
2.02581e-07
1.83471e-07
1.51098e-07
1.14973e-07
8.5576e-08
8.5592e-08
1.1498e-07
1.51088e-07
1.8344e-07
2.02526e-07
2.02516e-07
1.83412e-07
1.51049e-07
1.14936e-07
8.55492e-08
8.55998e-08
1.14991e-07
1.51104e-07
1.83459e-07
2.02548e-07
2.02539e-07
1.83434e-07
1.51068e-07
1.14952e-07
8.55613e-08
8.55913e-08
1.14981e-07
1.51091e-07
1.83445e-07
2.02534e-07
2.02527e-07
1.83425e-07
1.51062e-07
1.14949e-07
8.55608e-08
8.5592e-08
1.14983e-07
1.51096e-07
1.83453e-07
2.02545e-07
2.0254e-07
1.83439e-07
1.51077e-07
1.14962e-07
8.55715e-08
8.55893e-08
1.14981e-07
1.51095e-07
1.83454e-07
2.02548e-07
2.02545e-07
1.83446e-07
1.51084e-07
1.1497e-07
8.55785e-08
8.55903e-08
1.14983e-07
1.51099e-07
1.83461e-07
2.02558e-07
2.02557e-07
1.83458e-07
1.51096e-07
1.1498e-07
8.55873e-08
8.55912e-08
1.14985e-07
1.51103e-07
1.83467e-07
2.02565e-07
2.02566e-07
1.83468e-07
1.51105e-07
1.14988e-07
8.5594e-08
8.55932e-08
1.14989e-07
1.51108e-07
1.83474e-07
2.02574e-07
2.02576e-07
1.83478e-07
1.51115e-07
1.14996e-07
8.56005e-08
8.5594e-08
1.14991e-07
1.51112e-07
1.83479e-07
2.02581e-07
2.02584e-07
1.83487e-07
1.51123e-07
1.15003e-07
8.56064e-08
8.55933e-08
1.14991e-07
1.51114e-07
1.83483e-07
2.02587e-07
2.02592e-07
1.83496e-07
1.51132e-07
1.15011e-07
8.56126e-08
8.55909e-08
1.14989e-07
1.51113e-07
1.83485e-07
2.02591e-07
2.02598e-07
1.83503e-07
1.51139e-07
1.15018e-07
8.56191e-08
8.55879e-08
1.14987e-07
1.51112e-07
1.83485e-07
2.02594e-07
2.02602e-07
1.83509e-07
1.51146e-07
1.15025e-07
8.56255e-08
8.5586e-08
1.14985e-07
1.51111e-07
1.83485e-07
2.02596e-07
2.02607e-07
1.83515e-07
1.51153e-07
1.15031e-07
8.56311e-08
8.55864e-08
1.14986e-07
1.51112e-07
1.83487e-07
2.02599e-07
2.02611e-07
1.83519e-07
1.51157e-07
1.15035e-07
8.56346e-08
8.55893e-08
1.14989e-07
1.51116e-07
1.83491e-07
2.02602e-07
2.02613e-07
1.83521e-07
1.51158e-07
1.15035e-07
8.56339e-08
8.55939e-08
1.14994e-07
1.5112e-07
1.83494e-07
2.02604e-07
2.02612e-07
1.83517e-07
1.51152e-07
1.15028e-07
8.56266e-08
8.5598e-08
1.14997e-07
1.51122e-07
1.83493e-07
2.02598e-07
2.02602e-07
1.83503e-07
1.51135e-07
1.15011e-07
8.56103e-08
8.55996e-08
1.14996e-07
1.51117e-07
1.83483e-07
2.02582e-07
2.0258e-07
1.83476e-07
1.51106e-07
1.14982e-07
8.55849e-08
8.55977e-08
1.1499e-07
1.51105e-07
1.83463e-07
2.02554e-07
2.02545e-07
1.83437e-07
1.51066e-07
1.14945e-07
8.5553e-08
8.55926e-08
1.14979e-07
1.51087e-07
1.83436e-07
2.02519e-07
2.02502e-07
1.83391e-07
1.51022e-07
1.14907e-07
8.55206e-08
8.55861e-08
1.14967e-07
1.51067e-07
1.83407e-07
2.02482e-07
2.02461e-07
1.8335e-07
1.50984e-07
1.14875e-07
8.54952e-08
8.55806e-08
1.14957e-07
1.51051e-07
1.83386e-07
2.02456e-07
2.02433e-07
1.83324e-07
1.50963e-07
1.14859e-07
8.54844e-08
8.55777e-08
1.14953e-07
1.51045e-07
1.83378e-07
2.02447e-07
2.02427e-07
1.83321e-07
1.50965e-07
1.14866e-07
8.54921e-08
8.55783e-08
1.14956e-07
1.5105e-07
1.83387e-07
2.02461e-07
2.02446e-07
1.83345e-07
1.50992e-07
1.14893e-07
8.55174e-08
8.55821e-08
1.14965e-07
1.51067e-07
1.83412e-07
2.02494e-07
2.02485e-07
1.83388e-07
1.51036e-07
1.14933e-07
8.55526e-08
8.55891e-08
1.14979e-07
1.5109e-07
1.83444e-07
2.02535e-07
2.02531e-07
1.83436e-07
1.51081e-07
1.14972e-07
8.55849e-08
8.56002e-08
1.14996e-07
1.51114e-07
1.83475e-07
2.0257e-07
2.02567e-07
1.83468e-07
1.51106e-07
1.1499e-07
8.55975e-08
8.56165e-08
1.15015e-07
1.51135e-07
1.83493e-07
2.02582e-07
2.0257e-07
1.83459e-07
1.51087e-07
1.14965e-07
8.55716e-08
8.56375e-08
1.15032e-07
1.51144e-07
1.83487e-07
2.02554e-07
2.02517e-07
1.83385e-07
1.50999e-07
1.14875e-07
8.54885e-08
8.56628e-08
1.15045e-07
1.51135e-07
1.83445e-07
2.02471e-07
2.02392e-07
1.83226e-07
1.50824e-07
1.14704e-07
8.53351e-08
8.56924e-08
1.15052e-07
1.51104e-07
1.8336e-07
2.02322e-07
2.02182e-07
1.82973e-07
1.50555e-07
1.14448e-07
8.51093e-08
8.57444e-08
1.15074e-07
1.51073e-07
1.83254e-07
2.02129e-07
2.01907e-07
1.82643e-07
1.50206e-07
1.1412e-07
8.48218e-08
8.58188e-08
1.15113e-07
1.51047e-07
1.83137e-07
2.01909e-07
2.01596e-07
1.82272e-07
1.49821e-07
1.13761e-07
8.45091e-08
8.60079e-08
1.15279e-07
1.51152e-07
1.83139e-07
2.01784e-07
2.0135e-07
1.8194e-07
1.49453e-07
1.13406e-07
8.41886e-08
8.61381e-08
1.15379e-07
1.51191e-07
1.83093e-07
2.01645e-07
2.01133e-07
1.81676e-07
1.4918e-07
1.13152e-07
8.39646e-08
8.66855e-08
1.15964e-07
1.51751e-07
1.83553e-07
2.01937e-07
2.01235e-07
1.81609e-07
1.49002e-07
1.12912e-07
8.37093e-08
)
;
    }
    inlet
    {
        type            calculated;
        value           uniform 0;
    }
    outlet
    {
        type            calculated;
        value           uniform 0;
    }
}


// ************************************************************************* //
