/*--------------------------------*- C++ -*----------------------------------*\
| =========                 |                                                 |
| \\      /  F ield         | OpenFOAM: The Open Source CFD Toolbox           |
|  \\    /   O peration     | Version:  2406                                  |
|   \\  /    A nd           | Website:  www.openfoam.com                      |
|    \\/     M anipulation  |                                                 |
\*---------------------------------------------------------------------------*/
FoamFile
{
    version     2.0;
    format      ascii;
    arch        "LSB;label=32;scalar=64";
    class       volVectorField;
    location    "1.6";
    object      momentError;
}
// * * * * * * * * * * * * * * * * * * * * * * * * * * * * * * * * * * * * * //

dimensions      [0 1 -2 0 0 0 0];

internalField   nonuniform List<vector> 
25000
(
(4.65733e-07 -1.87345e-07 1.42727e-06)
(6.84974e-07 -1.09476e-07 1.37644e-06)
(6.95323e-07 -2.05753e-09 1.37327e-06)
(6.29804e-07 2.61519e-08 1.3431e-06)
(5.50805e-07 3.74638e-08 1.30077e-06)
(4.62435e-07 5.13922e-08 1.28693e-06)
(3.56798e-07 6.30632e-08 1.30656e-06)
(2.8871e-07 8.13918e-08 1.32157e-06)
(2.9922e-07 7.16959e-08 1.30411e-06)
(2.80809e-07 3.65127e-08 1.45037e-06)
(4.12717e-07 6.06049e-08 1.34198e-06)
(6.05816e-07 1.49142e-07 1.18657e-06)
(5.8602e-07 2.26458e-07 1.11686e-06)
(5.12524e-07 2.44263e-07 1.04158e-06)
(4.45911e-07 2.45138e-07 9.71491e-07)
(3.70826e-07 2.51158e-07 9.44253e-07)
(2.79315e-07 2.60551e-07 9.65926e-07)
(2.24814e-07 2.60838e-07 1.00798e-06)
(2.49417e-07 2.1953e-07 1.04568e-06)
(2.6683e-07 2.26343e-07 1.24311e-06)
(4.62174e-07 6.94853e-08 1.31202e-06)
(6.20896e-07 1.30765e-07 1.08307e-06)
(5.65882e-07 1.76207e-07 9.69812e-07)
(4.81295e-07 1.85525e-07 8.67272e-07)
(4.17957e-07 1.83728e-07 7.80287e-07)
(3.47293e-07 1.8489e-07 7.44248e-07)
(2.5829e-07 1.8851e-07 7.66751e-07)
(1.93626e-07 1.80093e-07 8.27184e-07)
(1.81475e-07 1.3957e-07 9.10743e-07)
(1.56264e-07 1.49425e-07 1.16753e-06)
(4.7703e-07 6.38561e-10 1.25392e-06)
(6.19465e-07 4.92921e-08 9.78805e-07)
(5.48441e-07 8.33206e-08 8.38221e-07)
(4.60598e-07 9.31357e-08 7.20653e-07)
(4.01938e-07 9.07521e-08 6.26402e-07)
(3.35441e-07 8.77275e-08 5.87275e-07)
(2.50011e-07 8.52254e-08 6.10521e-07)
(1.81746e-07 7.37605e-08 6.81129e-07)
(1.55156e-07 4.42613e-08 7.93036e-07)
(1.26244e-07 5.4355e-08 1.09458e-06)
(4.91234e-07 -6.13862e-08 1.18756e-06)
(6.18956e-07 -7.80494e-09 8.88228e-07)
(5.37803e-07 3.02798e-08 7.31169e-07)
(4.47459e-07 4.56903e-08 6.06076e-07)
(3.88508e-07 4.64943e-08 5.10301e-07)
(3.25756e-07 4.13859e-08 4.71689e-07)
(2.45316e-07 3.36953e-08 4.96889e-07)
(1.78798e-07 1.83241e-08 5.73913e-07)
(1.51545e-07 -9.25378e-09 7.01083e-07)
(1.30955e-07 -1.94148e-08 1.02591e-06)
(5.24455e-07 -1.12902e-07 1.14795e-06)
(6.40851e-07 -5.03852e-08 8.41347e-07)
(5.47118e-07 -3.62992e-09 6.77596e-07)
(4.49177e-07 2.00233e-08 5.49615e-07)
(3.8678e-07 2.46167e-08 4.54272e-07)
(3.21827e-07 1.79071e-08 4.17793e-07)
(2.42315e-07 5.09702e-09 4.45999e-07)
(1.76962e-07 -1.76382e-08 5.27506e-07)
(1.48724e-07 -5.26273e-08 6.61354e-07)
(1.33348e-07 -9.42879e-08 9.92364e-07)
(5.80422e-07 -1.58761e-07 1.13134e-06)
(6.80876e-07 -9.0846e-08 8.3284e-07)
(5.75919e-07 -4.12559e-08 6.72537e-07)
(4.66751e-07 -1.23137e-08 5.47052e-07)
(3.92803e-07 -6.56286e-09 4.54712e-07)
(3.23267e-07 -1.56233e-08 4.22131e-07)
(2.40803e-07 -3.63313e-08 4.54151e-07)
(1.7222e-07 -6.73824e-08 5.37851e-07)
(1.46441e-07 -1.09149e-07 6.70406e-07)
(1.34901e-07 -1.86957e-07 9.92988e-07)
(6.3717e-07 -1.60795e-07 1.10282e-06)
(7.12963e-07 -1.0297e-07 8.36939e-07)
(5.99665e-07 -6.81873e-08 6.95161e-07)
(4.83262e-07 -4.62465e-08 5.82338e-07)
(4.01961e-07 -4.38187e-08 4.99732e-07)
(3.26473e-07 -5.87266e-08 4.737e-07)
(2.41749e-07 -8.66403e-08 5.08084e-07)
(1.77658e-07 -1.19001e-07 5.88417e-07)
(1.53828e-07 -1.5563e-07 7.05209e-07)
(1.38006e-07 -2.64324e-07 9.95569e-07)
(6.71235e-07 -8.26525e-08 1.04417e-06)
(7.09641e-07 -6.49528e-08 8.43997e-07)
(6.07414e-07 -7.35017e-08 7.42698e-07)
(4.98233e-07 -7.10832e-08 6.58059e-07)
(4.129e-07 -7.99451e-08 5.94262e-07)
(3.37294e-07 -1.01721e-07 5.77585e-07)
(2.60353e-07 -1.33409e-07 6.12022e-07)
(2.11305e-07 -1.6202e-07 6.76545e-07)
(2.04354e-07 -1.86012e-07 7.53563e-07)
(1.91704e-07 -3.3737e-07 9.8785e-07)
(8.92506e-07 7.07404e-08 1.08295e-06)
(8.35364e-07 -6.6491e-09 9.80708e-07)
(7.12239e-07 -7.75022e-08 9.53596e-07)
(5.9168e-07 -9.85412e-08 9.17767e-07)
(4.85147e-07 -1.21578e-07 8.81657e-07)
(3.9132e-07 -1.54241e-07 8.7679e-07)
(3.04751e-07 -1.97628e-07 9.05428e-07)
(2.5521e-07 -2.40851e-07 9.38205e-07)
(2.46754e-07 -2.80044e-07 9.57125e-07)
(2.87818e-07 -4.87975e-07 1.14083e-06)
(2.40717e-06 -8.6228e-07 2.39227e-06)
(2.5631e-06 -4.87163e-07 2.77045e-06)
(2.56157e-06 -1.52223e-07 3.50703e-06)
(2.43537e-06 3.27445e-08 4.03099e-06)
(2.21849e-06 1.54895e-07 4.33687e-06)
(1.9478e-06 2.3228e-07 4.52e-06)
(1.6307e-06 2.68955e-07 4.60692e-06)
(1.33276e-06 2.81732e-07 4.54055e-06)
(1.11737e-06 2.66371e-07 4.36551e-06)
(8.55866e-07 1.91394e-07 5.10891e-06)
(2.05834e-06 -6.7683e-07 2.53746e-06)
(2.23473e-06 -2.80581e-07 3.0359e-06)
(2.21013e-06 1.00682e-08 3.81337e-06)
(2.03824e-06 1.67796e-07 4.24724e-06)
(1.79169e-06 2.55971e-07 4.44264e-06)
(1.50025e-06 3.00221e-07 4.55919e-06)
(1.17765e-06 3.05613e-07 4.60833e-06)
(8.98106e-07 2.62482e-07 4.44826e-06)
(7.3147e-07 1.48845e-07 4.03825e-06)
(5.30789e-07 6.24724e-08 4.38702e-06)
(1.97215e-06 -7.20684e-07 3.08217e-06)
(2.18143e-06 -3.74181e-07 3.63401e-06)
(2.10334e-06 -1.52382e-07 4.31745e-06)
(1.88168e-06 -2.96708e-08 4.59594e-06)
(1.61199e-06 3.26557e-08 4.68441e-06)
(1.31111e-06 5.82148e-08 4.77751e-06)
(9.89168e-07 5.13849e-08 4.89021e-06)
(7.04442e-07 -2.82681e-09 4.83651e-06)
(5.18271e-07 -1.28274e-07 4.43303e-06)
(3.21799e-07 -2.57178e-07 4.5636e-06)
(1.88991e-06 -8.35351e-07 3.39268e-06)
(2.1084e-06 -5.52771e-07 3.89335e-06)
(2.00136e-06 -3.8142e-07 4.43083e-06)
(1.76999e-06 -2.81748e-07 4.59913e-06)
(1.50262e-06 -2.34138e-07 4.62845e-06)
(1.2084e-06 -2.21803e-07 4.70462e-06)
(8.98697e-07 -2.41006e-07 4.85039e-06)
(6.25732e-07 -3.00717e-07 4.89372e-06)
(4.41182e-07 -4.07461e-07 4.60502e-06)
(2.7725e-07 -5.42531e-07 4.67936e-06)
(1.81882e-06 -9.46554e-07 3.45714e-06)
(2.04114e-06 -7.23708e-07 3.90111e-06)
(1.92762e-06 -5.88172e-07 4.35443e-06)
(1.7022e-06 -5.04227e-07 4.4778e-06)
(1.44578e-06 -4.6442e-07 4.48553e-06)
(1.16533e-06 -4.60972e-07 4.55228e-06)
(8.72367e-07 -4.90291e-07 4.70526e-06)
(6.18181e-07 -5.55827e-07 4.78894e-06)
(4.48387e-07 -6.55121e-07 4.58003e-06)
(3.15513e-07 -8.02587e-07 4.6637e-06)
(1.77833e-06 -1.04354e-06 3.35263e-06)
(2.01366e-06 -8.82187e-07 3.81002e-06)
(1.90944e-06 -7.81065e-07 4.27253e-06)
(1.69387e-06 -7.08159e-07 4.40394e-06)
(1.44754e-06 -6.74013e-07 4.41701e-06)
(1.17824e-06 -6.80854e-07 4.48519e-06)
(8.99997e-07 -7.22253e-07 4.63584e-06)
(6.6238e-07 -7.96707e-07 4.7153e-06)
(5.08331e-07 -8.94924e-07 4.50375e-06)
(3.95778e-07 -1.0576e-06 4.57647e-06)
(1.76113e-06 -1.1074e-06 3.06869e-06)
(2.01648e-06 -1.01529e-06 3.61108e-06)
(1.9425e-06 -9.58835e-07 4.17416e-06)
(1.74272e-06 -9.03459e-07 4.36431e-06)
(1.5035e-06 -8.81016e-07 4.4078e-06)
(1.24439e-06 -9.01197e-07 4.48794e-06)
(9.79749e-07 -9.59521e-07 4.62768e-06)
(7.55881e-07 -1.04538e-06 4.6615e-06)
(6.23546e-07 -1.1364e-06 4.3683e-06)
(5.25583e-07 -1.31656e-06 4.40555e-06)
(1.75472e-06 -1.06354e-06 2.51425e-06)
(2.0105e-06 -1.04194e-06 3.15248e-06)
(1.98436e-06 -1.04922e-06 3.87772e-06)
(1.82111e-06 -1.03095e-06 4.18683e-06)
(1.60516e-06 -1.03379e-06 4.29476e-06)
(1.36485e-06 -1.07605e-06 4.39312e-06)
(1.11798e-06 -1.15499e-06 4.49953e-06)
(9.14633e-07 -1.2447e-06 4.43744e-06)
(8.00246e-07 -1.31179e-06 4.02536e-06)
(6.99156e-07 -1.52118e-06 4.07247e-06)
(1.76471e-06 -8.42071e-07 1.6874e-06)
(1.96701e-06 -8.73624e-07 2.32746e-06)
(1.99888e-06 -9.59365e-07 3.17347e-06)
(1.90694e-06 -1.00071e-06 3.64569e-06)
(1.74391e-06 -1.05135e-06 3.86126e-06)
(1.54509e-06 -1.12602e-06 3.9816e-06)
(1.33592e-06 -1.22315e-06 4.02208e-06)
(1.1701e-06 -1.30998e-06 3.84674e-06)
(1.08193e-06 -1.37511e-06 3.40306e-06)
(9.86788e-07 -1.68587e-06 3.60109e-06)
(2.17397e-06 -5.45206e-07 1.13584e-06)
(2.2153e-06 -6.16086e-07 1.7546e-06)
(2.23477e-06 -7.58747e-07 2.61685e-06)
(2.19214e-06 -8.52163e-07 3.20929e-06)
(2.08215e-06 -9.59058e-07 3.54246e-06)
(1.93331e-06 -1.08278e-06 3.71958e-06)
(1.76952e-06 -1.22648e-06 3.77026e-06)
(1.63248e-06 -1.37661e-06 3.63809e-06)
(1.54381e-06 -1.55616e-06 3.35844e-06)
(1.51281e-06 -2.05615e-06 3.84502e-06)
(4.88452e-06 -2.48912e-06 8.195e-08)
(4.98036e-06 -1.54783e-06 1.71183e-06)
(5.0519e-06 -8.6089e-07 3.77293e-06)
(5.0029e-06 -4.15505e-07 5.49848e-06)
(4.80613e-06 -7.50112e-08 6.84085e-06)
(4.49428e-06 1.69687e-07 7.93754e-06)
(4.07501e-06 3.23303e-07 8.88159e-06)
(3.61782e-06 3.99352e-07 9.64908e-06)
(3.20143e-06 4.03793e-07 1.0407e-05)
(2.81818e-06 2.86737e-07 1.3634e-05)
(3.79927e-06 -2.03144e-06 6.21619e-07)
(4.06807e-06 -1.1686e-06 2.36154e-06)
(4.23735e-06 -5.91461e-07 4.61179e-06)
(4.21671e-06 -2.09936e-07 6.33985e-06)
(4.01556e-06 5.20262e-08 7.51752e-06)
(3.67118e-06 2.03769e-07 8.29697e-06)
(3.22034e-06 2.56563e-07 8.76325e-06)
(2.75432e-06 2.09763e-07 8.86456e-06)
(2.35288e-06 5.53458e-08 8.76711e-06)
(1.94408e-06 -1.26022e-07 1.07103e-05)
(3.44061e-06 -1.88284e-06 1.61321e-06)
(3.8587e-06 -1.139e-06 3.66736e-06)
(4.08347e-06 -6.60294e-07 6.17297e-06)
(4.05916e-06 -3.42059e-07 7.98356e-06)
(3.81882e-06 -1.4378e-07 9.11303e-06)
(3.41868e-06 -5.49151e-08 9.76326e-06)
(2.91929e-06 -6.58234e-08 1.00082e-05)
(2.41021e-06 -1.72708e-07 9.756e-06)
(1.95619e-06 -3.82203e-07 9.14846e-06)
(1.50408e-06 -6.59028e-07 1.02753e-05)
(3.26207e-06 -1.84588e-06 2.16285e-06)
(3.76179e-06 -1.2264e-06 4.47411e-06)
(4.02007e-06 -8.43815e-07 7.13278e-06)
(3.98927e-06 -5.95032e-07 8.97735e-06)
(3.71741e-06 -4.52735e-07 1.00611e-05)
(3.27986e-06 -4.07576e-07 1.06575e-05)
(2.75557e-06 -4.5619e-07 1.08063e-05)
(2.2337e-06 -5.87653e-07 1.03485e-05)
(1.76967e-06 -7.99869e-07 9.41706e-06)
(1.34042e-06 -1.123e-06 9.98605e-06)
(3.15054e-06 -1.81265e-06 2.18596e-06)
(3.69868e-06 -1.3332e-06 4.67982e-06)
(3.97595e-06 -1.05873e-06 7.41585e-06)
(3.93816e-06 -8.8816e-07 9.24886e-06)
(3.64853e-06 -8.01306e-07 1.02808e-05)
(3.19787e-06 -7.9089e-07 1.08681e-05)
(2.67211e-06 -8.56231e-07 1.10012e-05)
(2.16433e-06 -9.87192e-07 1.04589e-05)
(1.71946e-06 -1.18527e-06 9.35836e-06)
(1.3326e-06 -1.54647e-06 9.60016e-06)
(3.10248e-06 -1.76262e-06 1.74302e-06)
(3.67275e-06 -1.42874e-06 4.37149e-06)
(3.96152e-06 -1.2705e-06 7.16756e-06)
(3.93169e-06 -1.18231e-06 9.02522e-06)
(3.64801e-06 -1.15104e-06 1.00586e-05)
(3.20739e-06 -1.17982e-06 1.06414e-05)
(2.69554e-06 -1.25428e-06 1.07663e-05)
(2.20636e-06 -1.37278e-06 1.0198e-05)
(1.78613e-06 -1.54773e-06 9.04611e-06)
(1.43829e-06 -1.94262e-06 9.15954e-06)
(3.11278e-06 -1.65529e-06 7.9166e-07)
(3.66969e-06 -1.46114e-06 3.50737e-06)
(3.96632e-06 -1.42145e-06 6.3479e-06)
(3.96423e-06 -1.4223e-06 8.27637e-06)
(3.7137e-06 -1.45601e-06 9.38214e-06)
(3.30723e-06 -1.5205e-06 9.96479e-06)
(2.82789e-06 -1.60888e-06 1.00704e-05)
(2.36489e-06 -1.72123e-06 9.5238e-06)
(1.97861e-06 -1.88101e-06 8.43566e-06)
(1.66824e-06 -2.3271e-06 8.61639e-06)
(3.18932e-06 -1.42678e-06 -7.86373e-07)
(3.67908e-06 -1.34607e-06 1.95024e-06)
(3.96402e-06 -1.41085e-06 4.75629e-06)
(3.99795e-06 -1.5006e-06 6.71618e-06)
(3.80954e-06 -1.60511e-06 7.89703e-06)
(3.47009e-06 -1.71693e-06 8.52463e-06)
(3.05217e-06 -1.83526e-06 8.68168e-06)
(2.64244e-06 -1.96215e-06 8.26968e-06)
(2.30134e-06 -2.12607e-06 7.39836e-06)
(2.02617e-06 -2.65317e-06 7.85758e-06)
(3.37513e-06 -1.02552e-06 -2.97193e-06)
(3.72295e-06 -1.03376e-06 -2.81655e-07)
(3.98007e-06 -1.18699e-06 2.36465e-06)
(4.05826e-06 -1.35347e-06 4.29454e-06)
(3.95545e-06 -1.53382e-06 5.5433e-06)
(3.71932e-06 -1.70962e-06 6.28319e-06)
(3.40363e-06 -1.8871e-06 6.60967e-06)
(3.0867e-06 -2.0613e-06 6.47206e-06)
(2.82765e-06 -2.2799e-06 5.99887e-06)
(2.64549e-06 -2.97042e-06 6.97514e-06)
(4.2509e-06 -5.73987e-07 -5.56698e-06)
(4.33154e-06 -6.45714e-07 -2.51096e-06)
(4.5227e-06 -8.96139e-07 1.28008e-07)
(4.6255e-06 -1.1386e-06 2.15474e-06)
(4.59835e-06 -1.40156e-06 3.60463e-06)
(4.46908e-06 -1.66803e-06 4.63691e-06)
(4.27225e-06 -1.94735e-06 5.35424e-06)
(4.06e-06 -2.242e-06 5.73452e-06)
(3.89171e-06 -2.6397e-06 5.9063e-06)
(3.90782e-06 -3.60097e-06 7.68266e-06)
(9.9773e-06 -5.50925e-06 -3.51961e-06)
(9.68741e-06 -3.68945e-06 4.23479e-07)
(9.717e-06 -2.52112e-06 4.31629e-06)
(9.65294e-06 -1.74856e-06 7.73798e-06)
(9.38153e-06 -1.13189e-06 1.07062e-05)
(8.90997e-06 -6.48018e-07 1.34029e-05)
(8.23037e-06 -2.6917e-07 1.59583e-05)
(7.39094e-06 8.44805e-09 1.84304e-05)
(6.46643e-06 2.11322e-07 2.11146e-05)
(5.69436e-06 1.5694e-07 2.85742e-05)
(7.51639e-06 -4.80794e-06 -2.11728e-06)
(7.56132e-06 -3.23156e-06 1.56036e-06)
(7.77201e-06 -2.37225e-06 5.43644e-06)
(7.81565e-06 -1.79459e-06 8.62981e-06)
(7.61781e-06 -1.36235e-06 1.11378e-05)
(7.17042e-06 -1.06223e-06 1.31085e-05)
(6.49335e-06 -8.63818e-07 1.46745e-05)
(5.6621e-06 -7.72986e-07 1.58897e-05)
(4.74433e-06 -7.84552e-07 1.70341e-05)
(3.83143e-06 -9.4343e-07 2.18481e-05)
(6.37995e-06 -4.5234e-06 -8.25382e-07)
(6.71818e-06 -3.22208e-06 3.13354e-06)
(7.07754e-06 -2.57841e-06 7.32194e-06)
(7.21099e-06 -2.15543e-06 1.0648e-05)
(7.06755e-06 -1.87009e-06 1.30929e-05)
(6.621e-06 -1.69965e-06 1.47493e-05)
(5.91906e-06 -1.60723e-06 1.57613e-05)
(5.06108e-06 -1.604e-06 1.6306e-05)
(4.10653e-06 -1.70587e-06 1.66534e-05)
(3.13967e-06 -2.03491e-06 2.00255e-05)
(5.69368e-06 -4.3492e-06 -3.18629e-07)
(6.20822e-06 -3.28629e-06 3.9965e-06)
(6.70439e-06 -2.81552e-06 8.49992e-06)
(6.97219e-06 -2.53689e-06 1.21448e-05)
(6.93808e-06 -2.37869e-06 1.47883e-05)
(6.49671e-06 -2.31079e-06 1.62188e-05)
(5.73659e-06 -2.27102e-06 1.66604e-05)
(4.84279e-06 -2.30822e-06 1.66319e-05)
(3.88178e-06 -2.45549e-06 1.63915e-05)
(2.9554e-06 -2.91791e-06 1.87536e-05)
(5.2456e-06 -4.13405e-06 -6.52993e-07)
(5.8807e-06 -3.30388e-06 3.99965e-06)
(6.50083e-06 -2.99798e-06 8.7803e-06)
(6.91745e-06 -2.87305e-06 1.28555e-05)
(7.01299e-06 -2.85633e-06 1.59766e-05)
(6.57558e-06 -2.83287e-06 1.71735e-05)
(5.75714e-06 -2.81074e-06 1.70027e-05)
(4.84006e-06 -2.86855e-06 1.65021e-05)
(3.90128e-06 -3.06157e-06 1.58539e-05)
(3.04304e-06 -3.6666e-06 1.7566e-05)
(5.00062e-06 -3.8489e-06 -1.77042e-06)
(5.70688e-06 -3.23071e-06 3.17764e-06)
(6.38745e-06 -3.07106e-06 8.09202e-06)
(6.86008e-06 -3.06812e-06 1.22561e-05)
(6.99144e-06 -3.14865e-06 1.54651e-05)
(6.60297e-06 -3.19754e-06 1.66604e-05)
(5.82503e-06 -3.19786e-06 1.63957e-05)
(4.97186e-06 -3.30137e-06 1.57994e-05)
(4.10272e-06 -3.55424e-06 1.50228e-05)
(3.33192e-06 -4.31112e-06 1.64387e-05)
(4.94741e-06 -3.43027e-06 -3.72727e-06)
(5.67505e-06 -3.00297e-06 1.46487e-06)
(6.35427e-06 -2.96623e-06 6.36499e-06)
(6.78102e-06 -3.04178e-06 1.0252e-05)
(6.8777e-06 -3.18471e-06 1.3032e-05)
(6.56946e-06 -3.28668e-06 1.44529e-05)
(5.95802e-06 -3.40306e-06 1.47366e-05)
(5.24345e-06 -3.61355e-06 1.44487e-05)
(4.49222e-06 -3.96111e-06 1.38298e-05)
(3.83185e-06 -4.90432e-06 1.53023e-05)
(5.13243e-06 -2.82666e-06 -6.68568e-06)
(5.82858e-06 -2.55523e-06 -1.26297e-06)
(6.48144e-06 -2.62099e-06 3.54744e-06)
(6.87361e-06 -2.76899e-06 7.22345e-06)
(6.9588e-06 -2.97469e-06 9.81775e-06)
(6.73886e-06 -3.19764e-06 1.14511e-05)
(6.28916e-06 -3.46423e-06 1.22711e-05)
(5.72397e-06 -3.81063e-06 1.24375e-05)
(5.09905e-06 -4.28011e-06 1.21894e-05)
(4.56768e-06 -5.44305e-06 1.40569e-05)
(5.67637e-06 -1.97316e-06 -1.06937e-05)
(6.24077e-06 -1.84054e-06 -4.97373e-06)
(6.85144e-06 -2.0102e-06 -3.13942e-07)
(7.24831e-06 -2.25463e-06 3.31216e-06)
(7.37759e-06 -2.57916e-06 5.99359e-06)
(7.25641e-06 -2.95412e-06 7.90595e-06)
(6.94454e-06 -3.39769e-06 9.18874e-06)
(6.52208e-06 -3.91232e-06 9.88419e-06)
(6.0531e-06 -4.57118e-06 1.02224e-05)
(5.77701e-06 -6.05284e-06 1.28617e-05)
(7.49613e-06 -1.06876e-06 -1.6836e-05)
(7.72891e-06 -9.9094e-07 -9.67356e-06)
(8.27724e-06 -1.31557e-06 -4.60608e-06)
(8.69157e-06 -1.70682e-06 -5.57103e-07)
(8.89252e-06 -2.20684e-06 2.64605e-06)
(8.89331e-06 -2.78949e-06 5.22093e-06)
(8.73961e-06 -3.4728e-06 7.309e-06)
(8.47691e-06 -4.26339e-06 8.94594e-06)
(8.19182e-06 -5.31311e-06 1.03476e-05)
(8.32184e-06 -7.29654e-06 1.44257e-05)
(1.76863e-05 -1.07148e-05 -1.22537e-05)
(1.72219e-05 -7.21812e-06 -2.84896e-06)
(1.73866e-05 -5.03245e-06 4.96873e-06)
(1.7442e-05 -3.51611e-06 1.19328e-05)
(1.71582e-05 -2.25035e-06 1.83291e-05)
(1.6524e-05 -1.2196e-06 2.4502e-05)
(1.55063e-05 -4.03241e-07 3.07095e-05)
(1.41526e-05 1.57594e-07 3.71502e-05)
(1.25634e-05 4.81383e-07 4.43417e-05)
(1.13828e-05 2.21806e-07 6.09041e-05)
(1.29086e-05 -9.24241e-06 -8.5331e-06)
(1.309e-05 -6.29203e-06 -3.44919e-07)
(1.36407e-05 -4.71402e-06 6.7854e-06)
(1.3953e-05 -3.60069e-06 1.2809e-05)
(1.38696e-05 -2.7147e-06 1.79767e-05)
(1.33407e-05 -2.04601e-06 2.25603e-05)
(1.2364e-05 -1.56264e-06 2.67886e-05)
(1.10313e-05 -1.31627e-06 3.08288e-05)
(9.44875e-06 -1.32178e-06 3.50748e-05)
(7.9708e-06 -1.73325e-06 4.60796e-05)
(1.07251e-05 -8.44644e-06 -6.68039e-06)
(1.14349e-05 -6.01812e-06 1.53916e-06)
(1.22737e-05 -4.82723e-06 8.82112e-06)
(1.27853e-05 -4.02775e-06 1.47505e-05)
(1.28549e-05 -3.4612e-06 1.95598e-05)
(1.23641e-05 -3.07032e-06 2.34726e-05)
(1.13395e-05 -2.79807e-06 2.66807e-05)
(9.94205e-06 -2.71977e-06 2.96395e-05)
(8.27868e-06 -2.88202e-06 3.26296e-05)
(6.67561e-06 -3.57167e-06 4.09043e-05)
(9.48842e-06 -7.87081e-06 -6.38741e-06)
(1.04869e-05 -5.86816e-06 2.1931e-06)
(1.15658e-05 -4.97551e-06 9.79098e-06)
(1.23522e-05 -4.46725e-06 1.60766e-05)
(1.27391e-05 -4.20512e-06 2.10434e-05)
(1.22749e-05 -4.06157e-06 2.44999e-05)
(1.10409e-05 -3.86008e-06 2.66036e-05)
(9.51597e-06 -3.87894e-06 2.87115e-05)
(7.80723e-06 -4.15326e-06 3.08017e-05)
(6.23114e-06 -5.0869e-06 3.71915e-05)
(8.7222e-06 -7.24937e-06 -7.55158e-06)
(9.9279e-06 -5.65866e-06 1.55871e-06)
(1.12268e-05 -5.04773e-06 9.55986e-06)
(1.23601e-05 -4.84826e-06 1.66861e-05)
(1.32087e-05 -4.93236e-06 2.29624e-05)
(1.27805e-05 -4.88752e-06 2.51346e-05)
(1.1214e-05 -4.70087e-06 2.62971e-05)
(9.48987e-06 -4.77683e-06 2.75814e-05)
(7.77536e-06 -5.17623e-06 2.89714e-05)
(6.28452e-06 -6.38186e-06 3.41007e-05)
(8.36045e-06 -6.53327e-06 -1.00845e-05)
(9.6891e-06 -5.31391e-06 -3.18495e-07)
(1.10792e-05 -4.94172e-06 7.96271e-06)
(1.2294e-05 -4.93591e-06 1.5262e-05)
(1.31725e-05 -5.19146e-06 2.20457e-05)
(1.28067e-05 -5.28712e-06 2.42176e-05)
(1.12885e-05 -5.22561e-06 2.48505e-05)
(9.67575e-06 -5.43224e-06 2.59355e-05)
(8.0783e-06 -5.98776e-06 2.7043e-05)
(6.73281e-06 -7.48875e-06 3.15055e-05)
(8.3879e-06 -5.60914e-06 -1.40966e-05)
(9.75029e-06 -4.73288e-06 -3.54755e-06)
(1.10998e-05 -4.56612e-06 4.90858e-06)
(1.2092e-05 -4.66657e-06 1.17438e-05)
(1.26383e-05 -4.964e-06 1.70492e-05)
(1.23588e-05 -5.15974e-06 2.04818e-05)
(1.13381e-05 -5.42568e-06 2.21851e-05)
(1.00956e-05 -5.89644e-06 2.36716e-05)
(8.73255e-06 -6.65954e-06 2.49023e-05)
(7.5936e-06 -8.50635e-06 2.9278e-05)
(8.88019e-06 -4.42145e-06 -1.99071e-05)
(1.01905e-05 -3.84789e-06 -8.37709e-06)
(1.14674e-05 -3.87383e-06 2.51622e-07)
(1.23295e-05 -4.11536e-06 6.93367e-06)
(1.27005e-05 -4.5067e-06 1.20507e-05)
(1.25224e-05 -4.95639e-06 1.59054e-05)
(1.18686e-05 -5.51601e-06 1.86886e-05)
(1.09282e-05 -6.24857e-06 2.07865e-05)
(9.81154e-06 -7.23813e-06 2.24322e-05)
(8.92931e-06 -9.45736e-06 2.72798e-05)
(1.00393e-05 -2.88691e-06 -2.78507e-05)
(1.11251e-05 -2.6245e-06 -1.49791e-05)
(1.23089e-05 -2.87298e-06 -6.13622e-06)
(1.3138e-05 -3.31744e-06 8.11622e-07)
(1.3526e-05 -3.93727e-06 6.34099e-06)
(1.34744e-05 -4.66534e-06 1.07899e-05)
(1.30478e-05 -5.53385e-06 1.43926e-05)
(1.23594e-05 -6.54867e-06 1.7265e-05)
(1.15383e-05 -7.84444e-06 1.96814e-05)
(1.11572e-05 -1.05612e-05 2.56785e-05)
(1.34366e-05 -1.2778e-06 -4.22887e-05)
(1.39774e-05 -1.19796e-06 -2.54453e-05)
(1.50628e-05 -1.79543e-06 -1.50072e-05)
(1.59054e-05 -2.54383e-06 -6.66648e-06)
(1.63854e-05 -3.48494e-06 2.41282e-07)
(1.65149e-05 -4.56472e-06 6.14663e-06)
(1.63538e-05 -5.81446e-06 1.13157e-05)
(1.59589e-05 -7.24691e-06 1.58738e-05)
(1.5507e-05 -9.15456e-06 2.01305e-05)
(1.58894e-05 -1.26351e-05 2.88457e-05)
(3.0358e-05 -1.86279e-05 -2.75377e-05)
(2.91643e-05 -1.26507e-05 -9.27178e-06)
(2.93017e-05 -8.96555e-06 4.75833e-06)
(2.9372e-05 -6.38433e-06 1.74146e-05)
(2.89351e-05 -4.2416e-06 2.94284e-05)
(2.79269e-05 -2.51158e-06 4.13698e-05)
(2.62716e-05 -1.1373e-06 5.36498e-05)
(2.39988e-05 -1.80782e-07 6.67266e-05)
(2.12142e-05 4.1879e-07 8.14706e-05)
(1.91361e-05 4.06352e-09 0.000112994)
(2.21411e-05 -1.62489e-05 -2.02985e-05)
(2.20801e-05 -1.11649e-05 -4.79013e-06)
(2.28853e-05 -8.56703e-06 7.44251e-06)
(2.34099e-05 -6.7295e-06 1.79963e-05)
(2.33389e-05 -5.25253e-06 2.75353e-05)
(2.2543e-05 -4.11531e-06 3.65031e-05)
(2.09848e-05 -3.27084e-06 4.52404e-05)
(1.87665e-05 -2.80309e-06 5.40978e-05)
(1.60044e-05 -2.71055e-06 6.36333e-05)
(1.34162e-05 -3.39763e-06 8.48058e-05)
(1.82065e-05 -1.49157e-05 -1.7985e-05)
(1.90765e-05 -1.06832e-05 -2.8753e-06)
(2.04002e-05 -8.74159e-06 9.22585e-06)
(2.12862e-05 -7.45837e-06 1.92936e-05)
(2.1513e-05 -6.53392e-06 2.79577e-05)
(2.08195e-05 -5.84328e-06 3.57045e-05)
(1.92069e-05 -5.33354e-06 4.27679e-05)
(1.69219e-05 -5.14424e-06 4.99433e-05)
(1.40921e-05 -5.33183e-06 5.75362e-05)
(1.1349e-05 -6.51262e-06 7.3953e-05)
(1.59167e-05 -1.39255e-05 -1.84154e-05)
(1.72947e-05 -1.03998e-05 -2.97413e-06)
(1.9044e-05 -8.95512e-06 9.39191e-06)
(2.04267e-05 -8.18683e-06 1.97266e-05)
(2.12668e-05 -7.82416e-06 2.82229e-05)
(2.06512e-05 -7.51353e-06 3.51992e-05)
(1.86621e-05 -7.08827e-06 4.06092e-05)
(1.61838e-05 -7.06022e-06 4.66394e-05)
(1.33229e-05 -7.46403e-06 5.28968e-05)
(1.06561e-05 -9.08493e-06 6.60794e-05)
(1.44706e-05 -1.28386e-05 -2.12104e-05)
(1.6216e-05 -1.00045e-05 -4.96464e-06)
(1.83593e-05 -9.02213e-06 7.93235e-06)
(2.03762e-05 -8.79797e-06 1.94416e-05)
(2.21597e-05 -9.10453e-06 2.97929e-05)
(2.16382e-05 -8.98565e-06 3.38336e-05)
(1.89705e-05 -8.51096e-06 3.86604e-05)
(1.61439e-05 -8.55562e-06 4.35677e-05)
(1.33008e-05 -9.18715e-06 4.87498e-05)
(1.07977e-05 -1.12828e-05 5.97434e-05)
(1.37381e-05 -1.15686e-05 -2.62322e-05)
(1.57229e-05 -9.34886e-06 -8.7607e-06)
(1.80491e-05 -8.73451e-06 4.63664e-06)
(2.02185e-05 -8.79199e-06 1.64461e-05)
(2.20747e-05 -9.35688e-06 2.8036e-05)
(2.16959e-05 -9.56344e-06 3.20768e-05)
(1.91263e-05 -9.33464e-06 3.56268e-05)
(1.64926e-05 -9.61645e-06 4.01913e-05)
(1.38659e-05 -1.0536e-05 4.48681e-05)
(1.16292e-05 -1.31441e-05 5.46263e-05)
(1.36838e-05 -9.93453e-06 -3.36449e-05)
(1.57876e-05 -8.28006e-06 -1.45146e-05)
(1.80902e-05 -7.96951e-06 -5.98927e-07)
(1.98941e-05 -8.13844e-06 1.07691e-05)
(2.10602e-05 -8.67203e-06 1.9914e-05)
(2.08041e-05 -9.07683e-06 2.68507e-05)
(1.92115e-05 -9.51777e-06 3.15119e-05)
(1.72516e-05 -1.03116e-05 3.63871e-05)
(1.50366e-05 -1.16196e-05 4.10911e-05)
(1.31733e-05 -1.48264e-05 5.05318e-05)
(1.44398e-05 -7.8802e-06 -4.39999e-05)
(1.65538e-05 -6.72351e-06 -2.26503e-05)
(1.87863e-05 -6.70002e-06 -8.13033e-06)
(2.0386e-05 -7.07214e-06 3.30399e-06)
(2.12049e-05 -7.73561e-06 1.25314e-05)
(2.10955e-05 -8.53871e-06 2.01836e-05)
(2.01593e-05 -9.52446e-06 2.64917e-05)
(1.87197e-05 -1.08092e-05 3.21113e-05)
(1.69265e-05 -1.25441e-05 3.72854e-05)
(1.55306e-05 -1.63913e-05 4.73097e-05)
(1.63722e-05 -5.26952e-06 -5.80909e-05)
(1.8225e-05 -4.61341e-06 -3.36528e-05)
(2.03409e-05 -4.92108e-06 -1.83249e-05)
(2.18877e-05 -5.60472e-06 -6.10636e-06)
(2.2709e-05 -6.63124e-06 4.08556e-06)
(2.27829e-05 -7.89001e-06 1.2819e-05)
(2.22122e-05 -9.41432e-06 2.04397e-05)
(2.11739e-05 -1.12159e-05 2.71865e-05)
(1.98677e-05 -1.35213e-05 3.34071e-05)
(1.93612e-05 -1.82119e-05 4.51543e-05)
(2.1986e-05 -2.56372e-06 -8.61007e-05)
(2.30544e-05 -2.11817e-06 -5.34132e-05)
(2.50682e-05 -2.95581e-06 -3.44765e-05)
(2.66598e-05 -4.12409e-06 -1.92567e-05)
(2.76372e-05 -5.67666e-06 -6.29131e-06)
(2.80099e-05 -7.51971e-06 5.16416e-06)
(2.78789e-05 -9.69634e-06 1.55398e-05)
(2.73228e-05 -1.22286e-05 2.51313e-05)
(2.66367e-05 -1.56194e-05 3.44193e-05)
(2.74086e-05 -2.15974e-05 5.09628e-05)
(4.78941e-05 -3.09487e-05 -5.48966e-05)
(4.61036e-05 -2.11691e-05 -2.17412e-05)
(4.64526e-05 -1.52394e-05 2.67919e-06)
(4.67433e-05 -1.10822e-05 2.49343e-05)
(4.62336e-05 -7.62371e-06 4.649e-05)
(4.4806e-05 -4.82295e-06 6.83089e-05)
(4.23255e-05 -2.6025e-06 9.11477e-05)
(3.88197e-05 -1.09108e-06 0.00011593)
(3.4448e-05 -2.42566e-07 0.000144172)
(3.1306e-05 -1.24333e-06 0.000201848)
(3.47464e-05 -2.71553e-05 -4.2235e-05)
(3.47853e-05 -1.88092e-05 -1.44367e-05)
(3.6281e-05 -1.45746e-05 6.24658e-06)
(3.73656e-05 -1.15678e-05 2.44031e-05)
(3.7501e-05 -9.1411e-06 4.13705e-05)
(3.64612e-05 -7.25897e-06 5.78905e-05)
(3.41678e-05 -5.85811e-06 7.45421e-05)
(3.07582e-05 -5.09477e-06 9.20147e-05)
(2.6413e-05 -5.00244e-06 0.000111211)
(2.24213e-05 -6.3335e-06 0.000150435)
(2.84592e-05 -2.49248e-05 -3.97813e-05)
(3.00131e-05 -1.79202e-05 -1.30574e-05)
(3.23581e-05 -1.46969e-05 7.02263e-06)
(3.40334e-05 -1.25612e-05 2.40446e-05)
(3.46623e-05 -1.1021e-05 3.9281e-05)
(3.37998e-05 -9.86145e-06 5.36733e-05)
(3.14212e-05 -9.00918e-06 6.75593e-05)
(2.79038e-05 -8.70018e-06 8.22975e-05)
(2.34417e-05 -9.04651e-06 9.83669e-05)
(1.91842e-05 -1.11084e-05 0.000129415)
(2.48413e-05 -2.31967e-05 -4.18816e-05)
(2.72136e-05 -1.73095e-05 -1.48318e-05)
(3.02279e-05 -1.48625e-05 5.4508e-06)
(3.26833e-05 -1.35559e-05 2.25789e-05)
(3.4304e-05 -1.29437e-05 3.70577e-05)
(3.35587e-05 -1.23692e-05 5.01822e-05)
(3.05451e-05 -1.16922e-05 6.15938e-05)
(2.67037e-05 -1.16646e-05 7.46515e-05)
(2.21844e-05 -1.23677e-05 8.85944e-05)
(1.80319e-05 -1.51057e-05 0.000114092)
(2.25499e-05 -2.12855e-05 -4.77344e-05)
(2.55302e-05 -1.65031e-05 -1.93617e-05)
(2.9167e-05 -1.47942e-05 1.66853e-06)
(3.26227e-05 -1.43748e-05 2.03931e-05)
(3.58278e-05 -1.48852e-05 3.73142e-05)
(3.52102e-05 -1.46466e-05 4.51125e-05)
(3.09935e-05 -1.38685e-05 5.66072e-05)
(2.65891e-05 -1.39706e-05 6.80938e-05)
(2.20916e-05 -1.50497e-05 8.02989e-05)
(1.81947e-05 -1.85326e-05 0.000101992)
(2.1397e-05 -1.90834e-05 -5.71759e-05)
(2.47782e-05 -1.52777e-05 -2.65268e-05)
(2.87029e-05 -1.41576e-05 -4.58512e-06)
(3.23662e-05 -1.41873e-05 1.46548e-05)
(3.5665e-05 -1.5091e-05 3.38767e-05)
(3.52902e-05 -1.54627e-05 4.16808e-05)
(3.1218e-05 -1.50779e-05 5.08108e-05)
(2.70925e-05 -1.5573e-05 6.17165e-05)
(2.29369e-05 -1.71227e-05 7.30188e-05)
(1.94682e-05 -2.1416e-05 9.24609e-05)
(2.13252e-05 -1.63216e-05 -7.05227e-05)
(2.4907e-05 -1.34076e-05 -3.65895e-05)
(2.87914e-05 -1.27742e-05 -1.34638e-05)
(3.1862e-05 -1.29847e-05 5.53301e-06)
(3.39429e-05 -1.38101e-05 2.11467e-05)
(3.37254e-05 -1.45237e-05 3.42111e-05)
(3.12995e-05 -1.52561e-05 4.43347e-05)
(2.82507e-05 -1.65852e-05 5.5338e-05)
(2.47492e-05 -1.87557e-05 6.64833e-05)
(2.1883e-05 -2.39902e-05 8.51426e-05)
(2.25122e-05 -1.29512e-05 -8.87299e-05)
(2.61166e-05 -1.08136e-05 -5.02994e-05)
(2.98873e-05 -1.06392e-05 -2.57405e-05)
(3.26237e-05 -1.11877e-05 -6.21292e-06)
(3.41132e-05 -1.22477e-05 1.00556e-05)
(3.41075e-05 -1.35624e-05 2.43024e-05)
(3.27435e-05 -1.51814e-05 3.68655e-05)
(3.05212e-05 -1.72896e-05 4.88196e-05)
(2.76908e-05 -2.01233e-05 6.05056e-05)
(2.55826e-05 -2.63365e-05 7.98252e-05)
(2.54681e-05 -8.80961e-06 -0.000113376)
(2.86719e-05 -7.44083e-06 -6.86927e-05)
(3.22553e-05 -7.78346e-06 -4.22032e-05)
(3.49011e-05 -8.82782e-06 -2.09418e-05)
(3.63826e-05 -1.04631e-05 -2.73787e-06)
(3.66579e-05 -1.24926e-05 1.34037e-05)
(3.58713e-05 -1.49533e-05 2.80741e-05)
(3.42871e-05 -1.78554e-05 4.17343e-05)
(3.22453e-05 -2.15512e-05 5.48821e-05)
(3.15806e-05 -2.90173e-05 7.67177e-05)
(3.39707e-05 -4.66932e-06 -0.000165074)
(3.60158e-05 -3.57255e-06 -0.000104555)
(3.946e-05 -4.71985e-06 -7.08182e-05)
(4.21837e-05 -6.50856e-06 -4.36835e-05)
(4.39129e-05 -8.94382e-06 -2.02666e-05)
(4.46619e-05 -1.18555e-05 7.50551e-07)
(4.45836e-05 -1.52946e-05 2.01622e-05)
(4.37893e-05 -1.92795e-05 3.85867e-05)
(4.27847e-05 -2.46064e-05 5.68151e-05)
(4.41721e-05 -3.39559e-05 8.6749e-05)
(7.1313e-05 -4.72751e-05 -9.37417e-05)
(6.85822e-05 -3.28293e-05 -3.92612e-05)
(6.90992e-05 -2.41417e-05 3.498e-07)
(6.95082e-05 -1.80685e-05 3.68186e-05)
(6.86843e-05 -1.30066e-05 7.26559e-05)
(6.64655e-05 -8.90692e-06 0.000109363)
(6.26641e-05 -5.67186e-06 0.000148157)
(5.73244e-05 -3.52752e-06 0.000190647)
(5.0678e-05 -2.45286e-06 0.000239293)
(4.59557e-05 -4.46599e-06 0.000336594)
(5.20827e-05 -4.21215e-05 -7.48254e-05)
(5.20316e-05 -2.96784e-05 -2.92129e-05)
(5.42939e-05 -2.34398e-05 3.94173e-06)
(5.59485e-05 -1.89995e-05 3.35053e-05)
(5.61636e-05 -1.53935e-05 6.17571e-05)
(5.46008e-05 -1.25751e-05 8.98355e-05)
(5.11452e-05 -1.04815e-05 0.000118624)
(4.59893e-05 -9.37051e-06 0.0001493)
(3.93988e-05 -9.31796e-06 0.000183226)
(3.3431e-05 -1.16657e-05 0.000249864)
(4.26893e-05 -3.91079e-05 -7.34277e-05)
(4.49308e-05 -2.85648e-05 -2.96423e-05)
(4.85064e-05 -2.37734e-05 2.30728e-06)
(5.11007e-05 -2.05886e-05 2.98602e-05)
(5.21296e-05 -1.82722e-05 5.51923e-05)
(5.08987e-05 -1.64916e-05 7.98784e-05)
(4.7365e-05 -1.51817e-05 0.000104368)
(4.20952e-05 -1.4722e-05 0.000130838)
(3.53642e-05 -1.52878e-05 0.000159995)
(2.90274e-05 -1.86412e-05 0.000213424)
(3.71484e-05 -3.66576e-05 -7.89382e-05)
(4.06463e-05 -2.77055e-05 -3.46745e-05)
(4.52603e-05 -2.40338e-05 -2.54967e-06)
(4.90764e-05 -2.20883e-05 2.49079e-05)
(5.16603e-05 -2.11887e-05 4.86206e-05)
(5.0654e-05 -2.02489e-05 7.13401e-05)
(4.61958e-05 -1.91861e-05 9.22422e-05)
(4.04771e-05 -1.91313e-05 0.000116288)
(3.36982e-05 -2.02164e-05 0.000142212)
(2.75337e-05 -2.45226e-05 0.000186681)
(3.35113e-05 -3.37929e-05 -9.00263e-05)
(3.79574e-05 -2.64232e-05 -4.35663e-05)
(4.3541e-05 -2.38286e-05 -1.03389e-05)
(4.89019e-05 -2.32417e-05 1.93275e-05)
(5.39581e-05 -2.41209e-05 4.62627e-05)
(5.31743e-05 -2.37148e-05 6.02318e-05)
(4.68936e-05 -2.24299e-05 8.22651e-05)
(4.03789e-05 -2.25432e-05 0.000104114)
(3.36692e-05 -2.41787e-05 0.000127342)
(2.79154e-05 -2.95533e-05 0.000165599)
(3.15165e-05 -3.04183e-05 -0.000106521)