/*--------------------------------*- C++ -*----------------------------------*\
| =========                 |                                                 |
| \\      /  F ield         | OpenFOAM: The Open Source CFD Toolbox           |
|  \\    /   O peration     | Version:  2406                                  |
|   \\  /    A nd           | Website:  www.openfoam.com                      |
|    \\/     M anipulation  |                                                 |
\*---------------------------------------------------------------------------*/
FoamFile
{
    version     2.0;
    format      ascii;
    arch        "LSB;label=32;scalar=64";
    class       volScalarField;
    location    "1.6";
    object      nu;
}
// * * * * * * * * * * * * * * * * * * * * * * * * * * * * * * * * * * * * * //

dimensions      [0 2 -1 0 0 0 0];

internalField   nonuniform List<scalar> 
25000
(
0.00649252
0.00656621
0.00659827
0.0066045
0.00660263
0.00660263
0.0066045
0.00659827
0.00656621
0.00649252
0.00656621
0.00659262
0.00658044
0.00656683
0.00655948
0.00655948
0.00656683
0.00658044
0.00659262
0.00656621
0.00659827
0.00658044
0.00655571
0.00654081
0.00653481
0.00653481
0.00654081
0.00655571
0.00658044
0.00659827
0.0066045
0.00656683
0.00654081
0.00652904
0.00652556
0.00652556
0.00652904
0.00654081
0.00656683
0.0066045
0.00660263
0.00655948
0.00653481
0.00652556
0.00652371
0.00652371
0.00652556
0.00653481
0.00655948
0.00660263
0.00660263
0.00655948
0.00653481
0.00652556
0.00652371
0.00652371
0.00652556
0.00653481
0.00655948
0.00660263
0.0066045
0.00656683
0.00654081
0.00652904
0.00652556
0.00652556
0.00652904
0.00654081
0.00656683
0.0066045
0.00659827
0.00658044
0.00655571
0.00654081
0.00653481
0.00653481
0.00654081
0.00655571
0.00658044
0.00659827
0.00656621
0.00659262
0.00658044
0.00656683
0.00655948
0.00655948
0.00656683
0.00658044
0.00659262
0.00656621
0.00649252
0.00656621
0.00659827
0.0066045
0.00660263
0.00660263
0.0066045
0.00659827
0.00656621
0.00649252
0.00616049
0.00633619
0.0065502
0.00671907
0.00680784
0.00680784
0.00671907
0.0065502
0.00633619
0.00616049
0.00633619
0.00671079
0.00697555
0.00708518
0.00711328
0.00711328
0.00708518
0.00697555
0.00671079
0.00633619
0.0065502
0.00697555
0.00713288
0.00711484
0.00708405
0.00708405
0.00711484
0.00713288
0.00697555
0.0065502
0.00671907
0.00708518
0.00711484
0.00704193
0.00699708
0.00699708
0.00704193
0.00711484
0.00708518
0.00671907
0.00680784
0.00711329
0.00708405
0.00699708
0.00695034
0.00695034
0.00699708
0.00708405
0.00711328
0.00680784
0.00680784
0.00711329
0.00708405
0.00699708
0.00695034
0.00695034
0.00699708
0.00708405
0.00711328
0.00680784
0.00671907
0.00708518
0.00711484
0.00704193
0.00699708
0.00699708
0.00704193
0.00711484
0.00708518
0.00671907
0.0065502
0.00697555
0.00713289
0.00711484
0.00708405
0.00708405
0.00711484
0.00713288
0.00697555
0.0065502
0.00633619
0.00671079
0.00697555
0.00708518
0.00711328
0.00711328
0.00708518
0.00697555
0.00671079
0.00633619
0.00616049
0.00633619
0.0065502
0.00671907
0.00680784
0.00680784
0.00671907
0.0065502
0.00633619
0.00616049
0.00583445
0.00590607
0.00604069
0.00616694
0.00624291
0.00624291
0.00616694
0.00604069
0.00590607
0.00583445
0.00590607
0.00614407
0.00638753
0.0065824
0.00669195
0.00669195
0.0065824
0.00638753
0.00614407
0.00590607
0.00604069
0.00638753
0.00673522
0.00699949
0.00713422
0.00713422
0.0069995
0.00673522
0.00638753
0.00604069
0.00616694
0.0065824
0.00699949
0.00729502
0.00742075
0.00742075
0.00729502
0.0069995
0.0065824
0.00616694
0.00624291
0.00669194
0.00713422
0.00742075
0.00752182
0.00752182
0.00742075
0.00713422
0.00669195
0.00624291
0.00624291
0.00669194
0.00713422
0.00742075
0.00752182
0.00752182
0.00742075
0.00713422
0.00669195
0.00624291
0.00616694
0.0065824
0.00699949
0.00729502
0.00742075
0.00742075
0.00729502
0.00699949
0.0065824
0.00616694
0.00604069
0.00638753
0.00673522
0.00699949
0.00713422
0.00713422
0.00699949
0.00673522
0.00638753
0.00604069
0.00590607
0.00614407
0.00638753
0.0065824
0.00669195
0.00669195
0.0065824
0.00638753
0.00614407
0.00590607
0.00583445
0.00590607
0.00604069
0.00616694
0.00624291
0.00624291
0.00616694
0.00604069
0.00590607
0.00583445
0.00580626
0.00584229
0.00594493
0.00604708
0.00611054
0.00611054
0.00604708
0.00594493
0.00584229
0.00580627
0.00584229
0.00602296
0.00621809
0.00638579
0.00648731
0.00648731
0.00638579
0.00621809
0.00602296
0.00584229
0.00594493
0.00621809
0.00651391
0.00678205
0.00695491
0.00695491
0.00678205
0.00651392
0.00621809
0.00594493
0.00604708
0.00638578
0.00678205
0.00719901
0.00752513
0.00752513
0.00719902
0.00678205
0.00638579
0.00604708
0.00611054
0.00648731
0.00695491
0.00752512
0.00811339
0.00811339
0.00752513
0.00695492
0.00648731
0.00611054
0.00611054
0.00648731
0.00695491
0.00752512
0.00811339
0.00811339
0.00752513
0.00695492
0.00648731
0.00611054
0.00604708
0.00638578
0.00678205
0.00719901
0.00752512
0.00752513
0.00719901
0.00678205
0.00638579
0.00604708
0.00594492
0.00621809
0.00651391
0.00678205
0.00695491
0.00695491
0.00678205
0.00651391
0.00621809
0.00594493
0.00584229
0.00602296
0.00621809
0.00638578
0.00648731
0.00648731
0.00638579
0.00621809
0.00602296
0.00584229
0.00580626
0.00584229
0.00594492
0.00604708
0.00611054
0.00611054
0.00604708
0.00594493
0.00584229
0.00580627
0.00577345
0.00579397
0.005882
0.00597269
0.00602996
0.00602997
0.0059727
0.005882
0.00579398
0.00577345
0.00579397
0.00594859
0.00611954
0.00627015
0.00636374
0.00636374
0.00627015
0.00611955
0.0059486
0.00579398
0.00588199
0.00611954
0.00638184
0.00663064
0.00680115
0.00680116
0.00663065
0.00638184
0.00611955
0.005882
0.00597269
0.00627015
0.00663064
0.00704468
0.0074216
0.00742161
0.00704469
0.00663065
0.00627016
0.0059727
0.00602996
0.00636374
0.00680115
0.00742159
0.00837491
0.00837493
0.00742161
0.00680116
0.00636374
0.00602997
0.00602996
0.00636374
0.00680115
0.00742159
0.0083749
0.00837492
0.00742161
0.00680116
0.00636374
0.00602997
0.00597269
0.00627015
0.00663064
0.00704467
0.00742159
0.0074216
0.00704468
0.00663065
0.00627015
0.00597269
0.00588199
0.00611954
0.00638183
0.00663064
0.00680115
0.00680115
0.00663065
0.00638184
0.00611955
0.005882
0.00579397
0.00594859
0.00611954
0.00627015
0.00636374
0.00636374
0.00627015
0.00611955
0.00594859
0.00579398
0.00577344
0.00579397
0.00588199
0.00597269
0.00602996
0.00602996
0.00597269
0.005882
0.00579398
0.00577345
0.00577371
0.0057897
0.00587281
0.00595939
0.00601439
0.00601439
0.00595939
0.00587282
0.00578971
0.00577372
0.0057897
0.0059354
0.00609675
0.00623991
0.00632977
0.00632977
0.00623992
0.00609676
0.00593541
0.00578971
0.00587281
0.00609675
0.00634416
0.00658205
0.00674836
0.00674836
0.00658207
0.00634417
0.00609676
0.00587282
0.00595938
0.00623991
0.00658205
0.00698435
0.00736443
0.00736445
0.00698437
0.00658207
0.00623992
0.00595939
0.00601439
0.00632976
0.00674835
0.00736442
0.00839754
0.0083976
0.00736445
0.00674837
0.00632977
0.00601439
0.00601438
0.00632976
0.00674834
0.00736441
0.00839751
0.00839757
0.00736445
0.00674836
0.00632977
0.00601439
0.00595938
0.0062399
0.00658205
0.00698434
0.00736442
0.00736443
0.00698436
0.00658206
0.00623992
0.00595939
0.0058728
0.00609674
0.00634415
0.00658205
0.00674835
0.00674835
0.00658206
0.00634416
0.00609675
0.00587281
0.00578969
0.0059354
0.00609674
0.00623991
0.00632976
0.00632976
0.00623991
0.00609675
0.00593541
0.0057897
0.00577371
0.00578969
0.0058728
0.00595938
0.00601439
0.00601439
0.00595939
0.00587281
0.0057897
0.00577371
0.00576592
0.00577921
0.0058599
0.00594456
0.0059985
0.0059985
0.00594457
0.00585991
0.00577922
0.00576593
0.00577921
0.00592064
0.00607791
0.00621783
0.00630594
0.00630595
0.00621784
0.00607793
0.00592065
0.00577922
0.0058599
0.00607791
0.00631904
0.00655182
0.00671554
0.00671555
0.00655184
0.00631906
0.00607793
0.00585991
0.00594455
0.00621783
0.00655181
0.00694719
0.00732472
0.00732474
0.00694722
0.00655184
0.00621785
0.00594457
0.00599849
0.00630593
0.00671552
0.00732469
0.00836989
0.00836999
0.00732475
0.00671555
0.00630595
0.0059985
0.00599849
0.00630593
0.00671552
0.00732468
0.00836984
0.00836995
0.00732474
0.00671555
0.00630595
0.0059985
0.00594455
0.00621782
0.0065518
0.00694718
0.00732469
0.00732471
0.00694721
0.00655183
0.00621784
0.00594456
0.00585989
0.0060779
0.00631903
0.0065518
0.00671552
0.00671553
0.00655182
0.00631905
0.00607792
0.0058599
0.0057792
0.00592063
0.0060779
0.00621782
0.00630593
0.00630594
0.00621783
0.00607792
0.00592064
0.00577921
0.00576591
0.0057792
0.00585989
0.00594455
0.00599849
0.00599849
0.00594456
0.0058599
0.00577921
0.00576592
0.00576612
0.00577851
0.00585827
0.00594216
0.00599568
0.00599568
0.00594217
0.00585829
0.00577853
0.00576615
0.00577851
0.00591825
0.00607376
0.00621228
0.00629964
0.00629965
0.0062123
0.00607379
0.00591828
0.00577853
0.00585826
0.00607376
0.0063121
0.0065426
0.00670512
0.00670514
0.00654263
0.00631214
0.00607379
0.00585829
0.00594215
0.00621227
0.00654259
0.0069347
0.00731052
0.00731056
0.00693476
0.00654264
0.0062123
0.00594218
0.00599566
0.00629962
0.00670509
0.00731048
0.00835561
0.00835578
0.00731057
0.00670515
0.00629966
0.00599569
0.00599566
0.00629962
0.00670508
0.00731046
0.00835553
0.0083557
0.00731055
0.00670514
0.00629965
0.00599568
0.00594214
0.00621226
0.00654258
0.00693468
0.00731048
0.00731051
0.00693473
0.00654262
0.00621229
0.00594217
0.00585825
0.00607374
0.00631209
0.00654258
0.0067051
0.00670511
0.00654261
0.00631212
0.00607377
0.00585828
0.0057785
0.00591824
0.00607374
0.00621226
0.00629962
0.00629963
0.00621228
0.00607377
0.00591826
0.00577852
0.00576612
0.0057785
0.00585826
0.00594215
0.00599566
0.00599567
0.00594216
0.00585828
0.00577852
0.00576614
0.00576412
0.00577585
0.00585505
0.00593852
0.0059918
0.00599181
0.00593854
0.00585508
0.00577588
0.00576415
0.00577585
0.00591461
0.00606926
0.00620711
0.00629411
0.00629412
0.00620714
0.0060693
0.00591465
0.00577588
0.00585505
0.00606925
0.00630632
0.00653575
0.00669767
0.0066977
0.0065358
0.00630637
0.0060693
0.00585509
0.00593851
0.00620709
0.00653574
0.00692626
0.00730104
0.0073011
0.00692634
0.00653581
0.00620715
0.00593855
0.00599178
0.00629407
0.00669762
0.00730098
0.00834471
0.00834498
0.00730113
0.00669771
0.00629413
0.00599182
0.00599178
0.00629407
0.00669761
0.00730095
0.00834458
0.00834485
0.0073011
0.0066977
0.00629413
0.00599182
0.0059385
0.00620708
0.00653571
0.00692622
0.00730097
0.00730103
0.0069263
0.00653578
0.00620713
0.00593853
0.00585503
0.00606923
0.00630629
0.00653572
0.00669763
0.00669765
0.00653577
0.00630635
0.00606928
0.00585507
0.00577583
0.00591459
0.00606924
0.00620708
0.00629408
0.00629409
0.00620712
0.00606928
0.00591463
0.00577586
0.00576411
0.00577583
0.00585503
0.0059385
0.00599178
0.00599179
0.00593852
0.00585507
0.00577586
0.00576414
0.0057642
0.0057757
0.00585467
0.00593795
0.00599114
0.00599116
0.00593799
0.00585472
0.00577575
0.00576424
0.0057757
0.00591405
0.00606827
0.0062058
0.00629263
0.00629265
0.00620585
0.00606834
0.00591411
0.00577575
0.00585467
0.00606827
0.00630468
0.0065336
0.00669525
0.00669528
0.00653367
0.00630477
0.00606834
0.00585472
0.00593794
0.00620578
0.00653357
0.00692334
0.00729768
0.00729777
0.00692347
0.00653368
0.00620586
0.005938
0.00599111
0.00629257
0.00669517
0.00729758
0.00834056
0.00834097
0.0072978
0.00669531
0.00629266
0.00599117
0.0059911
0.00629257
0.00669516
0.00729753
0.00834037
0.00834077
0.00729776
0.00669529
0.00629265
0.00599116
0.00593792
0.00620575
0.00653354
0.00692328
0.00729757
0.00729765
0.00692341
0.00653364
0.00620583
0.00593798
0.00585465
0.00606824
0.00630465
0.00653355
0.00669518
0.00669522
0.00653362
0.00630472
0.00606831
0.0058547
0.00577567
0.00591402
0.00606824
0.00620576
0.00629258
0.0062926
0.00620581
0.0060683
0.00591408
0.00577572
0.00576418
0.00577567
0.00585465
0.00593793
0.00599111
0.00599112
0.00593796
0.00585469
0.00577572
0.00576422
0.00576368
0.00577501
0.00585385
0.00593702
0.00599016
0.00599017
0.00593707
0.00585391
0.00577508
0.00576374
0.00577501
0.00591311
0.00606712
0.00620448
0.00629123
0.00629125
0.00620455
0.00606721
0.0059132
0.00577508
0.00585384
0.00606711
0.00630321
0.00653186
0.00669338
0.00669343
0.00653197
0.00630332
0.00606721
0.00585392
0.005937
0.00620445
0.00653183
0.00692121
0.00729529
0.00729542
0.00692139
0.00653198
0.00620456
0.00593708
0.00599011
0.00629115
0.00669327
0.00729514
0.0083376
0.00833818
0.00729547
0.00669346
0.00629128
0.00599019
0.0059901
0.00629114
0.00669325
0.00729508
0.00833732
0.00833788
0.0072954
0.00669343
0.00629126
0.00599018
0.00593698
0.00620442
0.00653178
0.00692112
0.00729513
0.00729525
0.00692129
0.00653193
0.00620453
0.00593705
0.00585381
0.00606707
0.00630315
0.00653179
0.00669328
0.00669333
0.00653189
0.00630326
0.00606716
0.00585388
0.00577498
0.00591308
0.00606707
0.00620443
0.00629116
0.00629119
0.00620449
0.00606715
0.00591315
0.00577504
0.00576365
0.00577498
0.00585381
0.00593698
0.00599011
0.00599013
0.00593703
0.00585387
0.00577504
0.00576371
0.0057637
0.00577497
0.00585375
0.00593688
0.00598999
0.00599002
0.00593695
0.00585384
0.00577506
0.00576378
0.00577498
0.00591297
0.00606687
0.00620415
0.00629085
0.00629089
0.00620424
0.00606698
0.00591308
0.00577506
0.00585374
0.00606685
0.00630278
0.00653131
0.00669276
0.00669283
0.00653145
0.00630293
0.00606698
0.00585384
0.00593685
0.0062041
0.00653126
0.00692044
0.00729443
0.0072946
0.00692069
0.00653147
0.00620425
0.00593696
0.00598993
0.00629075
0.00669262
0.00729423
0.00833645
0.00833724
0.00729467
0.00669287
0.00629092
0.00599004
0.00598992
0.00629074
0.00669259
0.00729415
0.00833606
0.00833683
0.00729458
0.00669284
0.0062909
0.00599002
0.00593682
0.00620406
0.00653119
0.00692032
0.00729421
0.00729437
0.00692056
0.00653139
0.0062042
0.00593692
0.00585371
0.0060668
0.00630271
0.00653121
0.00669263
0.00669269
0.00653134
0.00630285
0.00606692
0.00585379
0.00577494
0.00591292
0.00606681
0.00620408
0.00629077
0.0062908
0.00620416
0.00606691
0.00591302
0.00577501
0.00576367
0.00577494
0.00585371
0.00593683
0.00598994
0.00598996
0.00593689
0.00585378
0.00577501
0.00576373
0.00576356
0.00577479
0.00585353
0.00593664
0.00598974
0.00598977
0.00593672
0.00585364
0.0057749
0.00576365
0.00577479
0.00591272
0.00606656
0.0062038
0.00629049
0.00629054
0.00620392
0.0060667
0.00591286
0.0057749
0.00585352
0.00606654
0.00630239
0.00653085
0.00669228
0.00669237
0.00653103
0.00630258
0.00606671
0.00585364
0.0059366
0.00620374
0.00653079
0.00691987
0.00729382
0.00729403
0.00692019
0.00653105
0.00620394
0.00593673
0.00598966
0.00629037
0.0066921
0.00729355
0.00833562
0.00833663
0.00729411
0.00669242
0.00629058
0.00598979
0.00598965
0.00629035
0.00669206
0.00729345
0.00833511
0.00833609
0.007294
0.00669238
0.00629055
0.00598977
0.00593657
0.0062037
0.00653071
0.00691972
0.00729353
0.00729373
0.00692002
0.00653095
0.00620387
0.00593668
0.00585348
0.00606649
0.00630231
0.00653073
0.00669212
0.00669219
0.00653089
0.00630247
0.00606662
0.00585358
0.00577476
0.00591267
0.00606649
0.00620372
0.00629039
0.00629043
0.00620381
0.00606661
0.00591278
0.00577483
0.00576353
0.00577475
0.00585349
0.00593658
0.00598967
0.0059897
0.00593665
0.00585357
0.00577484
0.0057636
0.00576357
0.00577478
0.0058535
0.0059366
0.0059897
0.00598973
0.00593669
0.00585362
0.0057749
0.00576366
0.00577478
0.00591268
0.00606649
0.00620371
0.0062904
0.00629045
0.00620385
0.00606665
0.00591283
0.0057749
0.0058535
0.00606647
0.00630227
0.0065307
0.00669213
0.00669223
0.00653092
0.00630249
0.00606666
0.00585363
0.00593656
0.00620365
0.00653063
0.00691966
0.0072936
0.00729386
0.00692004
0.00653094
0.00620387
0.0059367
0.00598961
0.00629025
0.0066919
0.00729328
0.00833528
0.00833651
0.00729395
0.00669229
0.0062905
0.00598976
0.0059896
0.00629023
0.00669186
0.00729316
0.00833466
0.00833584
0.00729381
0.00669224
0.00629046
0.00598974
0.00593653
0.0062036
0.00653054
0.00691948
0.00729325
0.00729349
0.00691983
0.00653081
0.00620379
0.00593665
0.00585346
0.00606642
0.00630218
0.00653056
0.00669193
0.00669202
0.00653074
0.00630236
0.00606656
0.00585355
0.00577475
0.00591263
0.00606642
0.00620362
0.00629028
0.00629032
0.00620372
0.00606654
0.00591274
0.00577482
0.00576355
0.00577475
0.00585346
0.00593654
0.00598963
0.00598965
0.00593661
0.00585355
0.00577483
0.0057636
0.00576353
0.00577473
0.00585345
0.00593653
0.00598963
0.00598967
0.00593663
0.00585357
0.00577485
0.00576362
0.00577474
0.00591261
0.00606641
0.00620362
0.00629031
0.00629037
0.00620377
0.00606658
0.00591277
0.00577485
0.00585344
0.00606639
0.00630216
0.00653058
0.00669201
0.00669212
0.00653082
0.00630241
0.00606658
0.00585357
0.00593649
0.00620355
0.0065305
0.0069195
0.00729344
0.00729374
0.00691993
0.00653084
0.00620379
0.00593664
0.00598954
0.00629015
0.00669176
0.00729307
0.00833503
0.00833644
0.00729384
0.00669219
0.00629041
0.00598969
0.00598953
0.00629013
0.00669171
0.00729294
0.00833432
0.00833567
0.00729368
0.00669212
0.00629038
0.00598967
0.00593647
0.0062035
0.00653041
0.00691931
0.00729305
0.00729332
0.00691969
0.0065307
0.0062037
0.00593658
0.00585341
0.00606634
0.00630208
0.00653043
0.00669179
0.00669188
0.00653062
0.00630226
0.00606648
0.00585349
0.00577471
0.00591257
0.00606634
0.00620353
0.00629018
0.00629022
0.00620363
0.00606646
0.00591267
0.00577477
0.00576352
0.00577471
0.00585341
0.00593648
0.00598956
0.00598958
0.00593655
0.00585349
0.00577478
0.00576356
0.00576354
0.00577473
0.00585344
0.00593652
0.00598962
0.00598965
0.00593661
0.00585355
0.00577483
0.00576361
0.00577474
0.0059126
0.00606639
0.0062036
0.00629028
0.00629034
0.00620374
0.00606656
0.00591275
0.00577483
0.00585344
0.00606637
0.00630213
0.00653054
0.00669196
0.00669208
0.00653078
0.00630238
0.00606656
0.00585355
0.00593649
0.00620353
0.00653045
0.00691944
0.00729338
0.00729369
0.0069199
0.00653081
0.00620376
0.00593662
0.00598954
0.00629012
0.00669171
0.00729299
0.00833493
0.00833644
0.00729381
0.00669215
0.00629038
0.00598967
0.00598953
0.00629011
0.00669167
0.00729286
0.00833418
0.00833562
0.00729363
0.00669209
0.00629035
0.00598965
0.00593647
0.00620349
0.00653037
0.00691925
0.00729298
0.00729325
0.00691964
0.00653066
0.00620367
0.00593657
0.00585342
0.00606633
0.00630206
0.0065304
0.00669175
0.00669183
0.00653058
0.00630223
0.00606646
0.00585348
0.00577473
0.00591258
0.00606634
0.00620351
0.00629016
0.0062902
0.00620361
0.00606644
0.00591266
0.00577476
0.00576354
0.00577472
0.00585342
0.00593648
0.00598955
0.00598958
0.00593654
0.00585348
0.00577477
0.00576356
0.00576353
0.00577472
0.00585342
0.0059365
0.00598959
0.00598962
0.00593658
0.00585352
0.0057748
0.00576358
0.00577473
0.00591259
0.00606637
0.00620357
0.00629025
0.0062903
0.0062037
0.00606652
0.00591271
0.0057748
0.00585343
0.00606636
0.00630211
0.00653051
0.00669192
0.00669203
0.00653074
0.00630233
0.00606652
0.00585352
0.00593648
0.00620351
0.00653043
0.0069194
0.00729333
0.00729364
0.00691984
0.00653076
0.00620372
0.00593659
0.00598953
0.00629011
0.00669168
0.00729296
0.00833487
0.00833637
0.00729375
0.0066921
0.00629034
0.00598964
0.00598953
0.0062901
0.00669165
0.00729283
0.00833415
0.00833556
0.00729358
0.00669204
0.00629031
0.00598962
0.00593647
0.00620349
0.00653036
0.00691923
0.00729295
0.00729321
0.00691959
0.00653062
0.00620364
0.00593654
0.00585343
0.00606634
0.00630205
0.00653039
0.00669173
0.0066918
0.00653055
0.0063022
0.00606643
0.00585346
0.00577474
0.00591258
0.00606634
0.00620351
0.00629014
0.00629018
0.00620358
0.00606642
0.00591263
0.00577474
0.00576356
0.00577473
0.00585342
0.00593648
0.00598955
0.00598956
0.00593652
0.00585346
0.00577476
0.00576354
0.00576354
0.00577473
0.00585343
0.0059365
0.00598958
0.00598961
0.00593656
0.00585349
0.00577478
0.00576356
0.00577474
0.0059126
0.00606637
0.00620356
0.00629023
0.00629028
0.00620367
0.00606648
0.00591268
0.00577477
0.00585344
0.00606636
0.00630211
0.0065305
0.0066919
0.006692
0.00653069
0.00630229
0.00606649
0.00585349
0.00593649
0.00620352
0.00653043
0.0069194
0.0072933
0.00729358
0.00691979
0.00653071
0.00620368
0.00593656
0.00598954
0.00629013
0.0066917
0.00729297
0.00833487
0.00833624
0.00729369
0.00669206
0.00629031
0.00598962
0.00598954
0.00629012
0.00669167
0.00729287
0.00833424
0.00833552
0.00729353
0.006692
0.00629028
0.0059896
0.00593649
0.00620351
0.00653039
0.00691926
0.00729298
0.00729321
0.00691957
0.0065306
0.00620362
0.00593652
0.00585345
0.00606636
0.00630208
0.00653041
0.00669174
0.0066918
0.00653054
0.00630218
0.00606642
0.00585345
0.00577476
0.00591261
0.00606636
0.00620352
0.00629016
0.00629018
0.00620358
0.00606641
0.00591263
0.00577474
0.00576357
0.00577475
0.00585344
0.0059365
0.00598956
0.00598957
0.00593652
0.00585346
0.00577475
0.00576354
0.00576355
0.00577473
0.00585343
0.0059365
0.00598957
0.00598959
0.00593653
0.00585347
0.00577475
0.00576354
0.00577474
0.0059126
0.00606637
0.00620356
0.00629021
0.00629024
0.00620363
0.00606645
0.00591265
0.00577475
0.00585344
0.00606637
0.00630211
0.00653049
0.00669188
0.00669195
0.00653064
0.00630224
0.00606645
0.00585346
0.0059365
0.00620353
0.00653045
0.0069194
0.00729327
0.0072935
0.00691971
0.00653066
0.00620364
0.00593653
0.00598956
0.00629015
0.00669172
0.00729301
0.0083349
0.00833603
0.00729359
0.006692
0.00629027
0.00598959
0.00598956
0.00629014
0.00669171
0.00729294
0.00833442
0.00833546
0.00729347
0.00669196
0.00629025
0.00598958
0.00593651
0.00620354
0.00653042
0.00691931
0.00729303
0.00729321
0.00691955
0.00653057
0.0062036
0.00593651
0.00585346
0.00606638
0.00630211
0.00653044
0.00669177
0.00669181
0.00653053
0.00630217
0.0060664
0.00585344
0.00577477
0.00591263
0.00606638
0.00620355
0.00629017
0.00629018
0.00620357
0.0060664
0.00591262
0.00577473
0.00576358
0.00577477
0.00585346
0.00593651
0.00598957
0.00598957
0.00593652
0.00585345
0.00577475
0.00576354
0.00576355
0.00577474
0.00585344
0.0059365
0.00598956
0.00598957
0.00593651
0.00585344
0.00577473
0.00576353
0.00577475
0.00591261
0.00606638
0.00620356
0.0062902
0.00629022
0.0062036
0.00606641
0.00591262
0.00577473
0.00585345
0.00606638
0.00630212
0.00653049
0.00669185
0.0066919
0.00653059
0.0063022
0.00606641
0.00585344
0.00593651
0.00620355
0.00653047
0.00691942
0.00729325
0.00729341
0.00691963
0.0065306
0.0062036
0.00593651
0.00598957
0.00629017
0.00669176
0.00729308
0.00833496
0.00833576
0.00729348
0.00669194
0.00629023
0.00598957
0.00598958
0.00629017
0.00669176
0.00729304
0.00833466
0.0083354
0.0072934
0.00669192
0.00629022
0.00598957
0.00593653
0.00620356
0.00653047
0.00691938
0.00729311
0.00729323
0.00691953
0.00653055
0.00620358
0.00593651
0.00585348
0.00606641
0.00630214
0.00653048
0.0066918
0.00669183
0.00653053
0.00630216
0.0060664
0.00585344
0.00577478
0.00591264
0.00606641
0.00620357
0.00629019
0.0062902
0.00620358
0.0060664
0.00591262
0.00577474
0.00576359
0.00577478
0.00585347
0.00593653
0.00598958
0.00598958
0.00593652
0.00585345
0.00577475
0.00576354
0.00576355
0.00577474
0.00585344
0.0059365
0.00598955
0.00598955
0.00593649
0.00585343
0.00577472
0.00576352
0.00577475
0.00591261
0.00606638
0.00620356
0.00629018
0.00629019
0.00620356
0.00606638
0.0059126
0.00577472
0.00585345
0.00606639
0.00630213
0.00653049
0.00669183
0.00669185
0.00653053
0.00630215
0.00606638
0.00585342
0.00593652
0.00620356
0.00653049
0.00691944
0.00729322
0.00729331
0.00691954
0.00653054
0.00620357
0.00593649
0.00598958
0.00629019
0.0066918
0.00729315
0.00833502
0.00833547
0.00729336
0.00669188
0.0062902
0.00598956
0.00598959
0.0062902
0.00669181
0.00729315
0.00833493
0.00833534
0.00729333
0.00669188
0.0062902
0.00598956
0.00593654
0.00620359
0.00653051
0.00691945
0.0072932
0.00729326
0.00691952
0.00653054
0.00620358
0.00593651
0.00585348
0.00606642
0.00630217
0.00653052
0.00669184
0.00669185
0.00653053
0.00630216
0.0060664
0.00585345
0.00577478
0.00591265
0.00606642
0.00620359
0.00629021
0.00629021
0.00620358
0.00606641
0.00591262
0.00577475
0.00576359
0.00577478
0.00585348
0.00593654
0.00598959
0.00598959
0.00593652
0.00585346
0.00577475
0.00576355
0.00576355
0.00577475
0.00585344
0.0059365
0.00598955
0.00598954
0.00593648
0.00585341
0.00577471
0.00576351
0.00577475
0.00591262
0.00606639
0.00620355
0.00629017
0.00629017
0.00620354
0.00606636
0.00591258
0.00577471
0.00585345
0.0060664
0.00630214
0.00653049
0.00669181
0.00669181
0.00653048
0.00630212
0.00606636
0.00585341
0.00593652
0.00620357
0.00653051
0.00691945
0.00729319
0.00729321
0.00691946
0.00653049
0.00620354
0.00593648
0.00598959
0.00629021
0.00669184
0.00729321
0.00833507
0.00833519
0.00729325
0.00669183
0.00629018
0.00598955
0.0059896
0.00629022
0.00669186
0.00729325
0.0083352
0.0083353
0.00729328
0.00669185
0.00629019
0.00598956
0.00593654
0.00620361
0.00653055
0.00691952
0.00729328
0.00729329
0.00691952
0.00653053
0.00620357
0.00593651
0.00585349
0.00606644
0.00630219
0.00653056
0.00669188
0.00669188
0.00653054
0.00630217
0.0060664
0.00585345
0.00577479
0.00591266
0.00606644
0.00620361
0.00629023
0.00629023
0.00620359
0.00606641
0.00591263
0.00577476
0.00576358
0.00577478
0.00585349
0.00593655
0.0059896
0.00598959
0.00593653
0.00585346
0.00577476
0.00576356
0.00576355
0.00577475
0.00585345
0.0059365
0.00598954
0.00598953
0.00593646
0.0058534
0.0057747
0.0057635
0.00577475
0.00591262
0.00606639
0.00620355
0.00629016
0.00629014
0.00620351
0.00606633
0.00591256
0.0057747
0.00585345
0.0060664
0.00630215
0.00653049
0.00669179
0.00669177
0.00653044
0.00630208
0.00606633
0.0058534
0.00593652
0.00620358
0.00653052
0.00691947
0.00729316
0.00729312
0.00691939
0.00653045
0.00620352
0.00593647
0.00598959
0.00629022
0.00669187
0.00729327
0.0083351
0.00833492
0.00729315
0.00669179
0.00629016
0.00598954
0.0059896
0.00629024
0.0066919
0.00729334
0.00833545
0.00833528
0.00729323
0.00669182
0.00629018
0.00598955
0.00593655
0.00620363
0.00653059
0.00691958
0.00729337
0.00729333
0.00691951
0.00653052
0.00620357
0.00593651
0.00585349
0.00606645
0.00630222
0.00653059
0.00669192
0.0066919
0.00653055
0.00630217
0.00606641
0.00585346
0.00577479
0.00591267
0.00606645
0.00620363
0.00629025
0.00629024
0.0062036
0.00606642
0.00591263
0.00577476
0.00576359
0.00577479
0.00585349
0.00593655
0.00598961
0.0059896
0.00593653
0.00585346
0.00577476
0.00576356
0.00576356
0.00577476
0.00585345
0.0059365
0.00598954
0.00598952
0.00593645
0.00585339
0.00577469
0.0057635
0.00577475
0.00591263
0.0060664
0.00620355
0.00629015
0.00629012
0.00620349
0.00606631
0.00591255
0.00577469
0.00585346
0.00606641
0.00630215
0.00653049
0.00669177
0.00669173
0.0065304
0.00630205
0.00606631
0.00585339
0.00593653
0.00620359
0.00653054
0.00691948
0.00729314
0.00729304
0.00691932
0.0065304
0.00620349
0.00593646
0.0059896
0.00629024
0.0066919
0.00729331
0.00833513
0.00833469
0.00729306
0.00669174
0.00629013
0.00598953
0.00598961
0.00629026
0.00669194
0.00729342
0.00833568
0.00833526
0.00729319
0.00669179
0.00629016
0.00598955
0.00593656
0.00620365
0.00653062
0.00691964
0.00729344
0.00729336
0.00691951
0.00653051
0.00620356
0.00593651
0.0058535
0.00606647
0.00630224
0.00653063
0.00669195
0.00669192
0.00653056
0.00630217
0.0060664
0.00585345
0.0057748
0.00591268
0.00606647
0.00620365
0.00629027
0.00629025
0.0062036
0.00606641
0.00591263
0.00577476
0.00576359
0.0057748
0.0058535
0.00593656
0.00598962
0.0059896
0.00593653
0.00585346
0.00577475
0.00576356
0.00576356
0.00577476
0.00585346
0.0059365
0.00598954
0.00598952
0.00593644
0.00585338
0.00577468
0.0057635
0.00577476
0.00591263
0.0060664
0.00620355
0.00629014
0.00629011
0.00620347
0.0060663
0.00591253
0.00577468
0.00585346
0.00606642
0.00630216
0.0065305
0.00669176
0.0066917
0.00653037
0.00630202
0.0060663
0.00585338
0.00593654
0.00620361
0.00653055
0.00691949
0.00729312
0.00729297
0.00691926
0.00653037
0.00620347
0.00593644
0.00598961
0.00629026
0.00669193
0.00729336
0.00833516
0.00833448
0.00729298
0.00669171
0.00629011
0.00598952
0.00598962
0.00629028
0.00669198
0.0072935
0.00833588
0.00833523
0.00729314
0.00669177
0.00629015
0.00598954
0.00593657
0.00620367
0.00653066
0.00691969
0.00729351
0.00729338
0.0069195
0.0065305
0.00620355
0.0059365
0.00585351
0.00606649
0.00630227
0.00653066
0.00669198
0.00669193
0.00653055
0.00630216
0.00606639
0.00585345
0.00577481
0.0059127
0.00606649
0.00620367
0.00629028
0.00629026
0.0062036
0.00606641
0.00591262
0.00577475
0.0057636
0.00577481
0.00585351
0.00593657
0.00598962
0.0059896
0.00593653
0.00585345
0.00577474
0.00576355
0.00576357
0.00577477
0.00585346
0.00593651
0.00598954
0.00598951
0.00593644
0.00585337
0.00577467
0.00576349
0.00577476
0.00591264
0.00606641
0.00620356
0.00629014
0.0062901
0.00620346
0.00606628
0.00591252
0.00577467
0.00585347
0.00606642
0.00630217
0.0065305
0.00669175
0.00669167
0.00653034
0.006302
0.00606628
0.00585337
0.00593654
0.00620362
0.00653057
0.0069195
0.0072931
0.00729291
0.00691922
0.00653034
0.00620345
0.00593643
0.00598962
0.00629027
0.00669196
0.00729341
0.0083352
0.00833431
0.00729291
0.00669167
0.00629009
0.0059895
0.00598964
0.0062903
0.00669201
0.00729357
0.00833606
0.00833519
0.00729309
0.00669174
0.00629013
0.00598953
0.00593659
0.00620369
0.00653069
0.00691974
0.00729357
0.00729339
0.00691949
0.00653048
0.00620354
0.00593649
0.00585353
0.00606651
0.0063023
0.00653069
0.00669201
0.00669194
0.00653055
0.00630215
0.00606638
0.00585344
0.00577482
0.00591271
0.00606651
0.00620368
0.00629029
0.00629026
0.0062036
0.0060664
0.00591261
0.00577474
0.00576361
0.00577482
0.00585352
0.00593658
0.00598963
0.0059896
0.00593652
0.00585344
0.00577473
0.00576354
0.00576356
0.00577476
0.00585346
0.00593651
0.00598954
0.00598951
0.00593643
0.00585337
0.00577467
0.00576349
0.00577476
0.00591264
0.00606641
0.00620355
0.00629013
0.00629009
0.00620344
0.00606627
0.00591252
0.00577467
0.00585347
0.00606643
0.00630217
0.0065305
0.00669174
0.00669165
0.00653032
0.00630199
0.00606627
0.00585336
0.00593655
0.00620363
0.00653058
0.00691951
0.00729309
0.00729286
0.00691918
0.00653031
0.00620344
0.00593642
0.00598963
0.00629029
0.00669198
0.00729345
0.00833524
0.00833415
0.00729285
0.00669164
0.00629007
0.00598949
0.00598965
0.00629032
0.00669205
0.00729364
0.00833622
0.00833515
0.00729305
0.00669171
0.00629011
0.00598952
0.0059366
0.00620371
0.00653072
0.00691979
0.00729362
0.0072934
0.00691947
0.00653047
0.00620353
0.00593648