/*--------------------------------*- C++ -*----------------------------------*\
| =========                 |                                                 |
| \\      /  F ield         | OpenFOAM: The Open Source CFD Toolbox           |
|  \\    /   O peration     | Version:  2406                                  |
|   \\  /    A nd           | Website:  www.openfoam.com                      |
|    \\/     M anipulation  |                                                 |
\*---------------------------------------------------------------------------*/
FoamFile
{
    version     2.0;
    format      ascii;
    arch        "LSB;label=32;scalar=64";
    class       volScalarField;
    location    "1.6";
    object      nut;
}
// * * * * * * * * * * * * * * * * * * * * * * * * * * * * * * * * * * * * * //

dimensions      [0 2 -1 0 0 0 0];

internalField   uniform 0;

boundaryField
{
    walls
    {
        type            nutUSpaldingWallFunction;
        value           nonuniform List<scalar> 
2000
(
3.17327e-09
4.55003e-09
5.99778e-09
7.1845e-09
7.85304e-09
7.85304e-09
7.1845e-09
5.99778e-09
4.55003e-09
3.17327e-09
1.87209e-09
2.63221e-09
3.46484e-09
4.1654e-09
4.56594e-09
4.56594e-09
4.1654e-09
3.46484e-09
2.63221e-09
1.87209e-09
9.82541e-10
1.36006e-09
1.78336e-09
2.14883e-09
2.36026e-09
2.36026e-09
2.14883e-09
1.78336e-09
1.36006e-09
9.8254e-10
1.1579e-09
1.60986e-09
2.11112e-09
2.53958e-09
2.78626e-09
2.78626e-09
2.53958e-09
2.11112e-09
1.60986e-09
1.15789e-09
9.9422e-10
1.37766e-09
1.80717e-09
2.17687e-09
2.39062e-09
2.39062e-09
2.17687e-09
1.80716e-09
1.37765e-09
9.94215e-10
1.04407e-09
1.44904e-09
1.90133e-09
2.28978e-09
2.51412e-09
2.51411e-09
2.28977e-09
1.90132e-09
1.44903e-09
1.04406e-09
1.00246e-09
1.39e-09
1.82398e-09
2.19743e-09
2.41336e-09
2.41335e-09
2.19742e-09
1.82396e-09
1.38998e-09
1.00244e-09
1.01584e-09
1.40913e-09
1.84916e-09
2.22758e-09
2.44629e-09
2.44628e-09
2.22756e-09
1.84913e-09
1.4091e-09
1.01581e-09
1.00513e-09
1.39392e-09
1.82921e-09
2.20374e-09
2.42026e-09
2.42025e-09
2.2037e-09
1.82917e-09
1.39387e-09
1.00508e-09
1.00871e-09
1.39903e-09
1.83593e-09
2.21176e-09
2.42902e-09
2.429e-09
2.21171e-09
1.83586e-09
1.39895e-09
1.00863e-09
1.00596e-09
1.39512e-09
1.8308e-09
2.20562e-09
2.42231e-09
2.42228e-09
2.20555e-09
1.83069e-09
1.395e-09
1.00585e-09
1.00695e-09
1.39653e-09
1.83263e-09
2.20781e-09
2.42468e-09
2.42464e-09
2.2077e-09
1.83248e-09
1.39636e-09
1.00679e-09
1.00627e-09
1.39556e-09
1.83135e-09
2.20626e-09
2.42298e-09
2.42294e-09
2.20613e-09
1.83116e-09
1.39534e-09
1.00607e-09
1.00656e-09
1.39596e-09
1.83187e-09
2.20688e-09
2.42365e-09
2.42359e-09
2.20672e-09
1.83165e-09
1.39571e-09
1.00632e-09
1.00638e-09
1.39571e-09
1.83155e-09
2.20649e-09
2.42322e-09
2.42316e-09
2.20632e-09
1.8313e-09
1.39544e-09
1.00613e-09
1.00643e-09
1.39579e-09
1.83166e-09
2.20663e-09
2.42338e-09
2.42331e-09
2.20645e-09
1.83141e-09
1.39552e-09
1.00619e-09
1.00634e-09
1.39567e-09
1.83151e-09
2.20646e-09
2.4232e-09
2.42314e-09
2.2063e-09
1.83129e-09
1.39542e-09
1.00612e-09
1.00629e-09
1.39561e-09
1.83145e-09
2.2064e-09
2.42315e-09
2.42311e-09
2.20628e-09
1.83127e-09
1.39542e-09
1.00612e-09
1.0062e-09
1.39549e-09
1.83131e-09
2.20626e-09
2.42301e-09
2.42298e-09
2.20617e-09
1.83119e-09
1.39537e-09
1.00609e-09
1.00612e-09
1.39539e-09
1.8312e-09
2.20614e-09
2.42291e-09
2.42289e-09
2.20611e-09
1.83116e-09
1.39535e-09
1.00609e-09
1.00604e-09
1.39529e-09
1.83109e-09
2.20603e-09
2.4228e-09
2.4228e-09
2.20605e-09
1.83112e-09
1.39534e-09
1.00609e-09
1.00598e-09
1.39521e-09
1.831e-09
2.20594e-09
2.42272e-09
2.42274e-09
2.20601e-09
1.8311e-09
1.39534e-09
1.00609e-09
1.00592e-09
1.39514e-09
1.83092e-09
2.20586e-09
2.42265e-09
2.42269e-09
2.20597e-09
1.83108e-09
1.39533e-09
1.00609e-09
1.00587e-09
1.39508e-09
1.83084e-09
2.20578e-09
2.42258e-09
2.42263e-09
2.20593e-09
1.83106e-09
1.39531e-09
1.00608e-09
1.00582e-09
1.39502e-09
1.83078e-09
2.20571e-09
2.42251e-09
2.42257e-09
2.20588e-09
1.83101e-09
1.39528e-09
1.00606e-09
1.00578e-09
1.39497e-09
1.83071e-09
2.20564e-09
2.42243e-09
2.4225e-09
2.20581e-09
1.83096e-09
1.39524e-09
1.00603e-09
1.00575e-09
1.39493e-09
1.83066e-09
2.20558e-09
2.42237e-09
2.42244e-09
2.20576e-09
1.83092e-09
1.39521e-09
1.00601e-09
1.00574e-09
1.39491e-09
1.83064e-09
2.20555e-09
2.42234e-09
2.42241e-09
2.20574e-09
1.8309e-09
1.3952e-09
1.00601e-09
1.00576e-09
1.39493e-09
1.83066e-09
2.20557e-09
2.42236e-09
2.42242e-09
2.20575e-09
1.83092e-09
1.39522e-09
1.00603e-09
1.00582e-09
1.395e-09
1.83074e-09
2.20565e-09
2.42243e-09
2.42249e-09
2.20582e-09
1.83098e-09
1.39527e-09
1.00607e-09
1.00594e-09
1.39515e-09
1.8309e-09
2.20581e-09
2.42258e-09
2.42263e-09
2.20593e-09
1.83106e-09
1.39533e-09
1.00611e-09
1.00612e-09
1.39537e-09
1.83114e-09
2.20606e-09
2.42281e-09
2.42282e-09
2.20608e-09
1.83117e-09
1.3954e-09
1.00614e-09
1.00636e-09
1.39566e-09
1.83146e-09
2.20637e-09
2.4231e-09
2.42306e-09
2.20625e-09
1.83128e-09
1.39545e-09
1.00616e-09
1.00661e-09
1.39597e-09
1.8318e-09
2.20672e-09
2.42341e-09
2.42331e-09
2.20643e-09
1.83138e-09
1.39549e-09
1.00616e-09
1.00681e-09
1.39622e-09
1.83209e-09
2.20701e-09
2.42368e-09
2.42353e-09
2.20658e-09
1.83146e-09
1.39551e-09
1.00614e-09
1.0069e-09
1.39634e-09
1.83224e-09
2.20718e-09
2.42384e-09
2.42365e-09
2.20666e-09
1.83149e-09
1.39551e-09
1.00612e-09
1.00684e-09
1.39628e-09
1.8322e-09
2.20716e-09
2.42383e-09
2.42365e-09
2.20665e-09
1.83147e-09
1.39548e-09
1.0061e-09
1.00664e-09
1.39605e-09
1.83196e-09
2.20694e-09
2.42365e-09
2.4235e-09
2.20653e-09
1.8314e-09
1.39544e-09
1.00608e-09
1.00636e-09
1.39571e-09
1.8316e-09
2.20658e-09
2.42333e-09
2.42324e-09
2.20635e-09
1.83128e-09
1.39538e-09
1.00606e-09
1.00608e-09
1.39538e-09
1.83122e-09
2.20621e-09
2.42299e-09
2.42296e-09
2.20616e-09
1.83117e-09
1.39535e-09
1.00607e-09
1.00592e-09
1.39517e-09
1.83098e-09
2.20595e-09
2.42275e-09
2.42278e-09
2.20605e-09
1.83113e-09
1.39537e-09
1.00612e-09
1.00598e-09
1.39523e-09
1.83103e-09
2.20599e-09
2.42279e-09
2.42284e-09
2.20613e-09
1.83124e-09
1.39549e-09
1.00624e-09
1.00639e-09
1.39571e-09
1.83154e-09
2.2065e-09
2.42327e-09
2.42328e-09
2.20652e-09
1.83157e-09
1.39576e-09
1.00643e-09
1.00727e-09
1.39677e-09
1.83269e-09
2.20765e-09
2.42436e-09
2.42424e-09
2.20732e-09
1.8322e-09
1.39621e-09
1.00672e-09
1.00871e-09
1.39851e-09
1.8346e-09
2.20959e-09
2.42617e-09
2.42582e-09
2.2086e-09
1.83316e-09
1.39687e-09
1.00711e-09
1.01078e-09
1.40104e-09
1.83742e-09
2.21248e-09
2.42891e-09
2.42824e-09
2.21058e-09
1.83465e-09
1.39789e-09
1.00773e-09
1.01337e-09
1.4042e-09
1.84095e-09
2.21611e-09
2.43235e-09
2.43126e-09
2.21305e-09
1.83653e-09
1.3992e-09
1.00856e-09
1.01655e-09
1.40828e-09
1.84575e-09
2.22129e-09
2.43754e-09
2.43607e-09
2.2172e-09
1.83986e-09
1.40168e-09
1.01026e-09
1.01931e-09
1.41169e-09
1.84961e-09
2.22529e-09
2.44136e-09
2.43948e-09
2.22007e-09
1.84215e-09
1.4034e-09
1.01149e-09
1.02361e-09
1.41782e-09
1.85766e-09
2.23482e-09
2.45167e-09
2.44969e-09
2.22937e-09
1.84999e-09
1.40949e-09
1.01594e-09
3.17327e-09
4.55003e-09
5.99778e-09
7.1845e-09
7.85304e-09
7.85304e-09
7.1845e-09
5.99778e-09
4.55003e-09
3.17327e-09
1.87209e-09
2.63221e-09
3.46484e-09
4.1654e-09
4.56594e-09
4.56594e-09
4.1654e-09
3.46484e-09
2.63221e-09
1.87209e-09
9.82538e-10
1.36006e-09
1.78336e-09
2.14883e-09
2.36025e-09
2.36025e-09
2.14883e-09
1.78336e-09
1.36006e-09
9.8254e-10
1.15789e-09
1.60985e-09
2.11112e-09
2.53958e-09
2.78626e-09
2.78626e-09
2.53958e-09
2.11112e-09
1.60986e-09
1.1579e-09
9.94209e-10
1.37765e-09
1.80715e-09
2.17686e-09
2.39061e-09
2.39061e-09
2.17687e-09
1.80717e-09
1.37766e-09
9.9422e-10
1.04405e-09
1.44901e-09
1.9013e-09
2.28976e-09
2.5141e-09
2.51411e-09
2.28977e-09
1.90133e-09
1.44903e-09
1.04407e-09
1.00242e-09
1.38996e-09
1.82394e-09
2.1974e-09
2.41333e-09
2.41334e-09
2.19742e-09
1.82397e-09
1.39e-09
1.00246e-09
1.01577e-09
1.40905e-09
1.84909e-09
2.22751e-09
2.44625e-09
2.44626e-09
2.22756e-09
1.84915e-09
1.40912e-09
1.01584e-09
1.00503e-09
1.3938e-09
1.8291e-09
2.20364e-09
2.42019e-09
2.42021e-09
2.2037e-09
1.82919e-09
1.39391e-09
1.00512e-09
1.00856e-09
1.39886e-09
1.83576e-09
2.21162e-09
2.42892e-09
2.42895e-09
2.21172e-09
1.8359e-09
1.39901e-09
1.0087e-09
1.00575e-09
1.39488e-09
1.83056e-09
2.20542e-09
2.42217e-09
2.42222e-09
2.20556e-09
1.83076e-09
1.3951e-09
1.00596e-09
1.00667e-09
1.39621e-09
1.83231e-09
2.20754e-09
2.4245e-09
2.42456e-09
2.20772e-09
1.83258e-09
1.3965e-09
1.00694e-09
1.00592e-09
1.39516e-09
1.83096e-09
2.20593e-09
2.42276e-09
2.42284e-09
2.20616e-09
1.83128e-09
1.39552e-09
1.00626e-09
1.00615e-09
1.3955e-09
1.83141e-09
2.20649e-09
2.42339e-09
2.42348e-09
2.20676e-09
1.8318e-09
1.39592e-09
1.00655e-09
1.00595e-09
1.39522e-09
1.83105e-09
2.20607e-09
2.42293e-09
2.42304e-09
2.20636e-09
1.83146e-09
1.39567e-09
1.00637e-09
1.00601e-09
1.3953e-09
1.83117e-09
2.20621e-09
2.42309e-09
2.42319e-09
2.20649e-09
1.83157e-09
1.39575e-09
1.00642e-09
1.00597e-09
1.39523e-09
1.83107e-09
2.20608e-09
2.42294e-09
2.42303e-09
2.20634e-09
1.83143e-09
1.39563e-09
1.00633e-09
1.006e-09
1.39527e-09
1.8311e-09
2.2061e-09
2.42294e-09
2.42301e-09
2.2063e-09
1.83139e-09
1.39558e-09
1.00628e-09
1.006e-09
1.39526e-09
1.83107e-09
2.20604e-09
2.42285e-09
2.42291e-09
2.20618e-09
1.83127e-09
1.39547e-09
1.00619e-09
1.00603e-09
1.39528e-09
1.83107e-09
2.20602e-09
2.42281e-09
2.42284e-09
2.2061e-09
1.83117e-09
1.39538e-09
1.00612e-09
1.00603e-09
1.39528e-09
1.83105e-09
2.20598e-09
2.42274e-09
2.42275e-09
2.20599e-09
1.83106e-09
1.39528e-09
1.00604e-09
1.00604e-09
1.39528e-09
1.83104e-09
2.20595e-09
2.42269e-09
2.42267e-09
2.2059e-09
1.83097e-09
1.3952e-09
1.00597e-09
1.00605e-09
1.39528e-09
1.83103e-09
2.20591e-09
2.42263e-09
2.4226e-09
2.20582e-09
1.83089e-09
1.39513e-09
1.00591e-09
1.00606e-09
1.39528e-09
1.83102e-09
2.20589e-09
2.42259e-09
2.42254e-09
2.20576e-09
1.83083e-09
1.39507e-09
1.00586e-09
1.00608e-09
1.39529e-09
1.83102e-09
2.20588e-09
2.42256e-09
2.4225e-09
2.20571e-09
1.83077e-09
1.39502e-09
1.00582e-09
1.00609e-09
1.3953e-09
1.83102e-09
2.20587e-09
2.42254e-09
2.42247e-09
2.20567e-09
1.83073e-09
1.39498e-09
1.00579e-09
1.00608e-09
1.39529e-09
1.83101e-09
2.20585e-09
2.42252e-09
2.42244e-09
2.20564e-09
1.8307e-09
1.39495e-09
1.00576e-09
1.00607e-09
1.39527e-09
1.83098e-09
2.20582e-09
2.42249e-09
2.42241e-09
2.20561e-09
1.83068e-09
1.39493e-09
1.00575e-09
1.00604e-09
1.39524e-09
1.83095e-09
2.20579e-09
2.42246e-09
2.4224e-09
2.2056e-09
1.83068e-09
1.39494e-09
1.00576e-09
1.00601e-09
1.3952e-09
1.83091e-09
2.20576e-09
2.42245e-09
2.42241e-09
2.20563e-09
1.83073e-09
1.395e-09
1.00581e-09
1.00598e-09
1.39518e-09
1.8309e-09
2.20578e-09
2.42249e-09
2.42248e-09
2.20574e-09
1.83085e-09
1.39512e-09
1.00593e-09
1.00597e-09
1.39519e-09
1.83094e-09
2.20585e-09
2.42261e-09
2.42264e-09
2.20593e-09
1.83106e-09
1.39533e-09
1.00611e-09
1.00598e-09
1.39523e-09
1.83103e-09
2.206e-09
2.42282e-09
2.4229e-09
2.20623e-09
1.83137e-09
1.39562e-09
1.00635e-09
1.006e-09
1.39529e-09
1.83116e-09
2.2062e-09
2.42309e-09
2.42323e-09
2.20658e-09
1.83172e-09
1.39593e-09
1.0066e-09
1.00602e-09
1.39536e-09
1.83129e-09
2.2064e-09
2.42336e-09
2.42354e-09
2.20691e-09
1.83202e-09
1.39619e-09
1.0068e-09
1.00605e-09
1.39542e-09
1.83139e-09
2.20655e-09
2.42355e-09
2.42375e-09
2.20712e-09
1.8322e-09
1.39632e-09
1.0069e-09
1.00607e-09
1.39545e-09
1.83143e-09
2.2066e-09
2.42361e-09
2.4238e-09
2.20713e-09
1.83218e-09
1.39627e-09
1.00684e-09
1.00608e-09
1.39544e-09
1.8314e-09
2.20654e-09
2.4235e-09
2.42365e-09
2.20694e-09
1.83197e-09
1.39605e-09
1.00664e-09
1.00608e-09
1.3954e-09
1.8313e-09
2.20637e-09
2.42326e-09
2.42335e-09
2.2066e-09
1.83161e-09
1.39572e-09
1.00636e-09
1.00608e-09
1.39535e-09
1.83117e-09
2.20616e-09
2.42297e-09
2.42299e-09
2.20621e-09
1.83123e-09
1.39538e-09
1.00608e-09
1.00607e-09
1.39531e-09
1.83106e-09
2.20598e-09
2.42272e-09
2.4227e-09
2.20592e-09
1.83096e-09
1.39516e-09
1.00592e-09
1.00609e-09
1.39531e-09
1.83104e-09
2.20593e-09
2.42265e-09
2.42264e-09
2.20588e-09
1.83096e-09
1.39519e-09
1.00597e-09
1.00614e-09
1.3954e-09
1.83116e-09
2.2061e-09
2.42289e-09
2.42295e-09
2.20626e-09
1.83139e-09
1.39563e-09
1.00636e-09
1.0062e-09
1.39556e-09
1.83146e-09
2.20656e-09
2.42354e-09
2.42378e-09
2.20724e-09
1.83243e-09
1.39664e-09
1.00723e-09
1.00619e-09
1.39573e-09
1.8319e-09
2.20733e-09
2.42467e-09
2.42525e-09
2.20893e-09
1.83421e-09
1.39831e-09
1.00866e-09
1.00588e-09
1.39566e-09
1.83224e-09
2.20823e-09
2.42617e-09
2.4273e-09
2.21136e-09
1.83676e-09
1.40071e-09
1.0107e-09
1.00513e-09
1.3952e-09
1.83234e-09
2.2091e-09
2.4279e-09
2.42978e-09
2.21436e-09
1.83993e-09
1.40369e-09
1.01322e-09
1.00316e-09
1.39337e-09
1.83113e-09
2.20892e-09
2.42896e-09
2.43204e-09
2.2175e-09
1.84348e-09
1.40715e-09
1.01623e-09
1.00136e-09
1.39176e-09
1.83018e-09
2.20896e-09
2.43013e-09
2.43421e-09
2.22036e-09
1.84661e-09
1.41016e-09
1.01881e-09
9.95729e-10
1.38556e-09
1.82433e-09
2.20447e-09
2.42777e-09
2.43422e-09
2.22242e-09
1.84996e-09
1.41399e-09
1.02242e-09
3.17327e-09
4.55003e-09
5.99778e-09
7.1845e-09
7.85304e-09
7.85304e-09
7.1845e-09
5.99778e-09
4.55003e-09
3.17327e-09
1.87209e-09
2.63221e-09
3.46484e-09
4.1654e-09
4.56594e-09
4.56594e-09
4.1654e-09
3.46484e-09
2.63221e-09
1.87209e-09
9.82537e-10
1.36006e-09
1.78336e-09
2.14883e-09
2.36025e-09
2.36025e-09
2.14883e-09
1.78336e-09
1.36006e-09
9.82538e-10
1.15789e-09
1.60985e-09
2.11111e-09
2.53957e-09
2.78625e-09
2.78625e-09
2.53957e-09
2.11111e-09
1.60985e-09
1.15789e-09
9.94204e-10
1.37764e-09
1.80714e-09
2.17685e-09
2.3906e-09
2.3906e-09
2.17685e-09
1.80715e-09
1.37764e-09
9.94208e-10
1.04404e-09
1.449e-09
1.90129e-09
2.28974e-09
2.51407e-09
2.51408e-09
2.28974e-09
1.90129e-09
1.44901e-09
1.04405e-09
1.0024e-09
1.38993e-09
1.8239e-09
2.19735e-09
2.41328e-09
2.41328e-09
2.19736e-09
1.82392e-09
1.38995e-09
1.00242e-09
1.01574e-09
1.40901e-09
1.84903e-09
2.22744e-09
2.44616e-09
2.44617e-09
2.22746e-09
1.84905e-09
1.40904e-09
1.01577e-09
1.00497e-09
1.39373e-09
1.829e-09
2.20352e-09
2.42005e-09
2.42006e-09
2.20355e-09
1.82904e-09
1.39378e-09
1.00502e-09
1.00847e-09
1.39874e-09
1.83561e-09
2.21143e-09
2.4287e-09
2.42872e-09
2.21148e-09
1.83567e-09
1.39881e-09
1.00854e-09
1.00563e-09
1.39472e-09
1.83034e-09
2.20515e-09
2.42185e-09
2.42188e-09
2.20521e-09
1.83043e-09
1.39482e-09
1.00573e-09
1.00652e-09
1.39599e-09
1.83203e-09
2.20717e-09
2.42407e-09
2.4241e-09
2.20725e-09
1.83214e-09
1.39612e-09
1.00664e-09
1.00575e-09
1.3949e-09
1.8306e-09
2.20548e-09
2.42222e-09
2.42226e-09
2.20557e-09
1.83073e-09
1.39505e-09
1.00589e-09
1.00597e-09
1.39521e-09
1.83101e-09
2.20597e-09
2.42276e-09
2.4228e-09
2.20606e-09
1.83115e-09
1.39536e-09
1.00611e-09
1.00577e-09
1.39493e-09
1.83064e-09
2.20552e-09
2.42226e-09
2.4223e-09
2.2056e-09
1.83076e-09
1.39507e-09
1.00591e-09
1.00586e-09
1.39505e-09
1.83078e-09
2.20567e-09
2.42243e-09
2.42246e-09
2.20575e-09
1.83088e-09
1.39516e-09
1.00597e-09
1.00586e-09
1.39503e-09
1.83075e-09
2.20562e-09
2.42236e-09
2.42238e-09
2.20567e-09
1.83082e-09
1.39511e-09
1.00593e-09
1.00594e-09
1.39514e-09
1.83087e-09
2.20575e-09
2.42249e-09
2.4225e-09
2.20578e-09
1.8309e-09
1.39517e-09
1.00597e-09
1.00599e-09
1.3952e-09
1.83094e-09
2.20583e-09
2.42257e-09
2.42257e-09
2.20583e-09
1.83094e-09
1.3952e-09
1.00599e-09
1.00606e-09
1.39529e-09
1.83105e-09
2.20595e-09
2.42269e-09
2.42268e-09
2.20593e-09
1.83102e-09
1.39525e-09
1.00602e-09
1.0061e-09
1.39535e-09
1.83113e-09
2.20604e-09
2.42278e-09
2.42276e-09
2.206e-09
1.83106e-09
1.39528e-09
1.00604e-09
1.00615e-09
1.39541e-09
1.8312e-09
2.20612e-09
2.42286e-09
2.42284e-09
2.20606e-09
1.83111e-09
1.39531e-09
1.00606e-09
1.00619e-09
1.39547e-09
1.83126e-09
2.20618e-09
2.42292e-09
2.42289e-09
2.2061e-09
1.83114e-09
1.39534e-09
1.00607e-09
1.00624e-09
1.39552e-09
1.83132e-09
2.20625e-09
2.42299e-09
2.42295e-09
2.20615e-09
1.83118e-09
1.39536e-09
1.00609e-09
1.00629e-09
1.39558e-09
1.8314e-09
2.20633e-09
2.42306e-09
2.42302e-09
2.2062e-09
1.83122e-09
1.39539e-09
1.0061e-09
1.00634e-09
1.39565e-09
1.83147e-09
2.2064e-09
2.42314e-09
2.42308e-09
2.20626e-09
1.83126e-09
1.39542e-09
1.00612e-09
1.00638e-09
1.3957e-09
1.83153e-09
2.20647e-09
2.4232e-09
2.42314e-09
2.2063e-09
1.83129e-09
1.39543e-09
1.00612e-09
1.00641e-09
1.39574e-09
1.83157e-09
2.20651e-09
2.42324e-09
2.42317e-09
2.20632e-09
1.83129e-09
1.39542e-09
1.00611e-09
1.0064e-09
1.39573e-09
1.83156e-09
2.2065e-09
2.42323e-09
2.42316e-09
2.2063e-09
1.83127e-09
1.39539e-09
1.00608e-09
1.00634e-09
1.39566e-09
1.83149e-09
2.20643e-09
2.42315e-09
2.42309e-09
2.20623e-09
1.83121e-09
1.39535e-09
1.00605e-09
1.00622e-09
1.39551e-09
1.83133e-09
2.20626e-09
2.423e-09
2.42295e-09
2.20612e-09
1.83113e-09
1.39529e-09
1.00601e-09
1.00603e-09
1.39528e-09
1.83108e-09
2.20602e-09
2.42277e-09
2.42276e-09
2.20597e-09
1.83102e-09
1.39522e-09
1.00598e-09
1.0058e-09
1.39501e-09
1.83077e-09
2.2057e-09
2.42248e-09
2.42251e-09
2.20578e-09
1.83089e-09
1.39515e-09
1.00595e-09
1.00557e-09
1.39472e-09
1.83045e-09
2.20537e-09
2.42217e-09
2.42225e-09
2.20559e-09
1.83076e-09
1.39509e-09
1.00593e-09
1.00539e-09
1.39449e-09
1.83018e-09
2.20509e-09
2.4219e-09
2.42202e-09
2.20542e-09
1.83066e-09
1.39504e-09
1.00593e-09
1.00531e-09
1.39438e-09
1.83004e-09
2.20493e-09
2.42174e-09
2.42188e-09
2.20533e-09
1.83062e-09
1.39504e-09
1.00594e-09
1.00537e-09
1.39444e-09
1.83008e-09
2.20495e-09
2.42175e-09
2.42189e-09
2.20534e-09
1.83064e-09
1.39507e-09
1.00597e-09
1.00555e-09
1.39465e-09
1.8303e-09
2.20516e-09
2.42194e-09
2.42206e-09
2.20548e-09
1.83075e-09
1.39514e-09
1.00601e-09
1.00581e-09
1.39496e-09
1.83064e-09
2.2055e-09
2.42226e-09
2.42233e-09
2.20569e-09
1.8309e-09
1.39522e-09
1.00605e-09
1.00604e-09
1.39525e-09
1.83098e-09
2.20586e-09
2.4226e-09
2.42263e-09
2.20593e-09
1.83106e-09
1.39531e-09
1.00608e-09
1.00613e-09
1.39538e-09
1.83115e-09
2.20607e-09
2.42282e-09
2.42284e-09
2.20609e-09
1.83117e-09
1.39537e-09
1.00611e-09
1.00594e-09
1.39518e-09
1.83098e-09
2.20595e-09
2.42276e-09
2.42282e-09
2.2061e-09
1.83119e-09
1.39539e-09
1.00613e-09
1.00534e-09
1.39449e-09
1.83028e-09
2.20532e-09
2.42226e-09
2.42245e-09
2.20587e-09
1.83107e-09
1.39535e-09
1.00614e-09
1.00423e-09
1.39318e-09
1.82891e-09
2.20402e-09
2.42113e-09
2.42158e-09
2.20526e-09
1.8307e-09
1.39517e-09
1.00609e-09
1.00259e-09
1.39123e-09
1.82681e-09
2.20195e-09
2.41929e-09
2.42007e-09
2.20414e-09
1.82996e-09
1.39475e-09
1.00591e-09
1.00048e-09
1.38864e-09
1.82391e-09
2.19899e-09
2.41649e-09
2.41763e-09
2.20217e-09
1.8285e-09
1.39377e-09
1.00533e-09
9.98138e-10
1.38569e-09
1.82053e-09
2.1954e-09
2.41296e-09
2.4144e-09
2.19941e-09
1.82629e-09
1.39214e-09
1.00424e-09
9.95607e-10
1.38226e-09
1.81624e-09
2.19045e-09
2.40769e-09
2.40917e-09
2.19458e-09
1.82215e-09
1.38886e-09
1.00186e-09
9.93748e-10
1.37976e-09
1.8131e-09
2.18683e-09
2.40378e-09
2.40521e-09
2.19081e-09
1.81876e-09
1.38603e-09
9.99696e-10
9.91026e-10
1.37536e-09
1.80656e-09
2.17826e-09
2.39364e-09
2.39434e-09
2.18015e-09
1.80917e-09
1.37812e-09
9.93662e-10
3.17327e-09
4.55003e-09
5.99778e-09
7.1845e-09
7.85304e-09
7.85304e-09
7.1845e-09
5.99778e-09
4.55003e-09
3.17327e-09
1.87209e-09
2.63221e-09
3.46484e-09
4.1654e-09
4.56594e-09
4.56594e-09
4.1654e-09
3.46484e-09
2.63221e-09
1.87209e-09
9.82539e-10
1.36006e-09
1.78336e-09
2.14883e-09
2.36025e-09
2.36025e-09
2.14883e-09
1.78336e-09
1.36006e-09
9.82537e-10
1.15789e-09
1.60986e-09
2.11112e-09
2.53957e-09
2.78625e-09
2.78625e-09
2.53957e-09
2.11111e-09
1.60985e-09
1.15789e-09
9.94214e-10
1.37765e-09
1.80716e-09
2.17686e-09
2.3906e-09
2.3906e-09
2.17685e-09
1.80715e-09
1.37764e-09
9.94204e-10
1.04406e-09
1.44902e-09
1.90131e-09
2.28976e-09
2.51409e-09
2.51408e-09
2.28974e-09
1.90129e-09
1.449e-09
1.04404e-09
1.00244e-09
1.38997e-09
1.82394e-09
2.19739e-09
2.41331e-09
2.4133e-09
2.19737e-09
1.82391e-09
1.38993e-09
1.0024e-09
1.0158e-09
1.40908e-09
1.8491e-09
2.2275e-09
2.4462e-09
2.44619e-09
2.22746e-09
1.84904e-09
1.40901e-09
1.01574e-09
1.00507e-09
1.39384e-09
1.82911e-09
2.20361e-09
2.42012e-09
2.4201e-09
2.20355e-09
1.82902e-09
1.39374e-09
1.00498e-09
1.00862e-09
1.3989e-09
1.83577e-09
2.21157e-09
2.42881e-09
2.42877e-09
2.21148e-09
1.83564e-09
1.39876e-09
1.00848e-09
1.00583e-09
1.39494e-09
1.83056e-09
2.20534e-09
2.42199e-09
2.42195e-09
2.20522e-09
1.83038e-09
1.39474e-09
1.00564e-09
1.00677e-09
1.39627e-09
1.83231e-09
2.20742e-09
2.42425e-09
2.42419e-09
2.20726e-09
1.83208e-09
1.39602e-09
1.00653e-09
1.00604e-09
1.39523e-09
1.83094e-09
2.20577e-09
2.42244e-09
2.42237e-09
2.20558e-09
1.83067e-09
1.39493e-09
1.00576e-09
1.00629e-09
1.39558e-09
1.83139e-09
2.2063e-09
2.42302e-09
2.42294e-09
2.2061e-09
1.83109e-09
1.39525e-09
1.00598e-09
1.00609e-09
1.3953e-09
1.83102e-09
2.20586e-09
2.42253e-09
2.42246e-09
2.20566e-09
1.83073e-09
1.39498e-09
1.00578e-09
1.00615e-09
1.39539e-09
1.83113e-09
2.20601e-09
2.4227e-09
2.42263e-09
2.20582e-09
1.83087e-09
1.39509e-09
1.00587e-09
1.00609e-09
1.39531e-09
1.83104e-09
2.20591e-09
2.4226e-09
2.42254e-09
2.20575e-09
1.83083e-09
1.39507e-09
1.00587e-09
1.00609e-09
1.39533e-09
1.83108e-09
2.20597e-09
2.42268e-09
2.42264e-09
2.20586e-09
1.83093e-09
1.39517e-09
1.00595e-09
1.00607e-09
1.39531e-09
1.83107e-09
2.20597e-09
2.4227e-09
2.42268e-09
2.20591e-09
1.83099e-09
1.39523e-09
1.006e-09
1.00608e-09
1.39533e-09
1.8311e-09
2.20602e-09
2.42277e-09
2.42276e-09
2.206e-09
1.83108e-09
1.3953e-09
1.00606e-09
1.00609e-09
1.39534e-09
1.83113e-09
2.20606e-09
2.42282e-09
2.42283e-09
2.20607e-09
1.83115e-09
1.39536e-09
1.00611e-09
1.0061e-09
1.39537e-09
1.83117e-09
2.20611e-09
2.42289e-09
2.4229e-09
2.20615e-09
1.83122e-09
1.39542e-09
1.00615e-09
1.00611e-09
1.39538e-09
1.8312e-09
2.20615e-09
2.42294e-09
2.42296e-09
2.20621e-09
1.83128e-09
1.39548e-09
1.0062e-09
1.0061e-09
1.39538e-09
1.83121e-09
2.20618e-09
2.42299e-09
2.42302e-09
2.20628e-09
1.83134e-09
1.39553e-09
1.00624e-09
1.00608e-09
1.39537e-09
1.83121e-09
2.20619e-09
2.42301e-09
2.42306e-09
2.20633e-09
1.8314e-09
1.39559e-09
1.00629e-09
1.00606e-09
1.39535e-09
1.83119e-09
2.2062e-09
2.42303e-09
2.4231e-09
2.20638e-09
1.83145e-09
1.39564e-09
1.00633e-09
1.00605e-09
1.39534e-09
1.83119e-09
2.2062e-09
2.42305e-09
2.42313e-09
2.20642e-09
1.8315e-09
1.39568e-09
1.00637e-09
1.00605e-09
1.39535e-09
1.8312e-09
2.20622e-09
2.42307e-09
2.42316e-09
2.20645e-09
1.83153e-09
1.39572e-09
1.0064e-09
1.00607e-09
1.39537e-09
1.83123e-09
2.20624e-09
2.4231e-09
2.42318e-09
2.20646e-09
1.83154e-09
1.39571e-09
1.0064e-09
1.00611e-09
1.39541e-09
1.83126e-09
2.20627e-09
2.4231e-09
2.42317e-09
2.20643e-09
1.83149e-09
1.39566e-09
1.00634e-09
1.00614e-09
1.39543e-09
1.83127e-09
2.20626e-09
2.42306e-09
2.42309e-09
2.20633e-09
1.83137e-09
1.39553e-09
1.00623e-09
1.00615e-09
1.39542e-09
1.83124e-09
2.20618e-09
2.42295e-09
2.42293e-09
2.20613e-09
1.83115e-09
1.39532e-09
1.00604e-09
1.00613e-09
1.39538e-09
1.83115e-09
2.20604e-09
2.42274e-09
2.42267e-09
2.20584e-09
1.83086e-09
1.39505e-09
1.00581e-09
1.0061e-09
1.3953e-09
1.83101e-09
2.20584e-09
2.42248e-09
2.42236e-09
2.20551e-09
1.83053e-09
1.39476e-09
1.00558e-09
1.00605e-09
1.39521e-09
1.83086e-09
2.20563e-09
2.42221e-09
2.42206e-09
2.2052e-09
1.83025e-09
1.39452e-09
1.0054e-09
1.00601e-09
1.39513e-09
1.83074e-09
2.20547e-09
2.42202e-09
2.42186e-09
2.20501e-09
1.83009e-09
1.39441e-09
1.00532e-09
1.00599e-09
1.3951e-09
1.8307e-09
2.20541e-09
2.42196e-09
2.42181e-09
2.20499e-09
1.8301e-09
1.39445e-09
1.00537e-09
1.00599e-09
1.39512e-09
1.83074e-09
2.20548e-09
2.42206e-09
2.42195e-09
2.20516e-09
1.8303e-09
1.39465e-09
1.00556e-09
1.00602e-09
1.39519e-09
1.83086e-09
2.20566e-09
2.4223e-09
2.42223e-09
2.20548e-09
1.83063e-09
1.39496e-09
1.00581e-09
1.00607e-09
1.3953e-09
1.83103e-09
2.2059e-09
2.4226e-09
2.42258e-09
2.20584e-09
1.83096e-09
1.39524e-09
1.00604e-09
1.00615e-09
1.39542e-09
1.83121e-09
2.20612e-09
2.42286e-09
2.42283e-09
2.20607e-09
1.83115e-09
1.39538e-09
1.00613e-09
1.00627e-09
1.39556e-09
1.83136e-09
2.20626e-09
2.42295e-09
2.42285e-09
2.20601e-09
1.83101e-09
1.39519e-09
1.00595e-09
1.00642e-09
1.39569e-09
1.83143e-09
2.20621e-09
2.42274e-09
2.42247e-09
2.20546e-09
1.83036e-09
1.39452e-09
1.00535e-09
1.0066e-09
1.39579e-09
1.83137e-09
2.2059e-09
2.42213e-09
2.42155e-09
2.20429e-09
1.82906e-09
1.39325e-09
1.00424e-09
1.00682e-09
1.39584e-09
1.83114e-09
2.20528e-09
2.42104e-09
2.42002e-09
2.20243e-09
1.82706e-09
1.39134e-09
1.00261e-09
1.00719e-09
1.396e-09
1.83091e-09
2.20449e-09
2.41962e-09
2.418e-09
2.19999e-09
1.82446e-09
1.3889e-09
1.00054e-09
1.00772e-09
1.39629e-09
1.83072e-09
2.20363e-09
2.41801e-09
2.41571e-09
2.19725e-09
1.8216e-09
1.38622e-09
9.98278e-10
1.00908e-09
1.39752e-09
1.83149e-09
2.20365e-09
2.4171e-09
2.41391e-09
2.1948e-09
1.81885e-09
1.38357e-09
9.95958e-10
1.01002e-09
1.39827e-09
1.83179e-09
2.20331e-09
2.41607e-09
2.41231e-09
2.19284e-09
1.81682e-09
1.38167e-09
9.94334e-10
1.01395e-09
1.4026e-09
1.83594e-09
2.2067e-09
2.41822e-09
2.41306e-09
2.19235e-09
1.81549e-09
1.37987e-09
9.92481e-10
)
;
    }
    inlet
    {
        type            calculated;
        value           uniform 0;
    }
    outlet
    {
        type            calculated;
        value           uniform 0;
    }
}


// ************************************************************************* //
