/*--------------------------------*- C++ -*----------------------------------*\
| =========                 |                                                 |
| \\      /  F ield         | OpenFOAM: The Open Source CFD Toolbox           |
|  \\    /   O peration     | Version:  2406                                  |
|   \\  /    A nd           | Website:  www.openfoam.com                      |
|    \\/     M anipulation  |                                                 |
\*---------------------------------------------------------------------------*/
FoamFile
{
    version     2.0;
    format      ascii;
    arch        "LSB;label=32;scalar=64";
    class       surfaceScalarField;
    location    "1.6";
    object      phi;
}
// * * * * * * * * * * * * * * * * * * * * * * * * * * * * * * * * * * * * * //

dimensions      [0 3 -1 0 0 0 0];

oriented        oriented;

internalField   nonuniform List<scalar> 
73500
(
4.64638e-05
4.64638e-05
5.7055e-05
-5.14904e-05
-5.14904e-05
3.76966e-05
4.71304e-05
6.4902e-05
-5.23269e-05
2.65017e-05
4.75019e-05
7.06874e-05
-5.30513e-05
1.36506e-05
4.76219e-05
7.45177e-05
-5.33174e-05
1.27533e-11
4.76558e-05
7.64234e-05
-5.34357e-05
-1.36506e-05
4.76558e-05
7.64234e-05
-5.34357e-05
-2.65016e-05
4.76219e-05
7.45178e-05
-5.33174e-05
-3.76966e-05
4.75019e-05
7.06874e-05
-5.30513e-05
-4.64638e-05
4.71304e-05
6.4902e-05
-5.23269e-05
4.64638e-05
5.70551e-05
-5.14904e-05
-5.14904e-05
4.71304e-05
3.76966e-05
6.4902e-05
-5.23269e-05
3.80025e-05
3.80025e-05
7.284e-05
2.65048e-05
3.80946e-05
7.8274e-05
1.35836e-05
3.80736e-05
8.17192e-05
1.20019e-11
3.80404e-05
8.33962e-05
-1.35836e-05
3.80404e-05
8.33962e-05
-2.65048e-05
3.80736e-05
8.17192e-05
-3.80025e-05
3.80946e-05
7.8274e-05
-4.71304e-05
3.80025e-05
7.284e-05
3.76966e-05
6.4902e-05
-5.23269e-05
4.75019e-05
2.65017e-05
7.06874e-05
-5.30513e-05
3.80947e-05
2.65048e-05
7.8274e-05
2.64302e-05
2.64302e-05
8.33162e-05
1.3498e-05
2.63344e-05
8.64277e-05
1.16069e-11
2.6272e-05
8.79142e-05
-1.3498e-05
2.6272e-05
8.79142e-05
-2.64302e-05
2.63344e-05
8.64277e-05
-3.80946e-05
2.64302e-05
8.33162e-05
-4.75019e-05
2.65048e-05
7.8274e-05
2.65017e-05
7.06874e-05
-5.30513e-05
4.76219e-05
1.36506e-05
7.45177e-05
-5.33174e-05
3.80736e-05
1.35836e-05
8.17192e-05
2.63344e-05
1.3498e-05
8.64277e-05
1.34197e-05
1.34197e-05
8.92796e-05
1.1407e-11
1.33736e-05
9.06222e-05
-1.34197e-05
1.33736e-05
9.06222e-05
-2.63344e-05
1.34197e-05
8.92796e-05
-3.80736e-05
1.3498e-05
8.64277e-05
-4.76219e-05
1.35836e-05
8.17192e-05
1.36506e-05
7.45178e-05
-5.33174e-05
4.76558e-05
-6.12017e-12
7.64234e-05
-5.34357e-05
3.80404e-05
-6.21965e-12
8.33962e-05
2.6272e-05
-6.27341e-12
8.79142e-05
1.33737e-05
-6.29148e-12
9.06222e-05
1.13271e-11
-6.28465e-12
9.18866e-05
-1.33736e-05
-6.27411e-12
9.18866e-05
-2.6272e-05
-6.26719e-12
9.06222e-05
-3.80404e-05
-6.2622e-12
8.79142e-05
-4.76558e-05
-6.24455e-12
8.33962e-05
-6.18734e-12
7.64234e-05
-5.34357e-05
4.76558e-05
-1.36506e-05
7.64234e-05
-5.34357e-05
3.80404e-05
-1.35836e-05
8.33962e-05
2.6272e-05
-1.3498e-05
8.79142e-05
1.33737e-05
-1.34197e-05
9.06222e-05
1.13368e-11
-1.33737e-05
9.18866e-05
-1.33736e-05
-1.33737e-05
9.18866e-05
-2.6272e-05
-1.34197e-05
9.06222e-05
-3.80404e-05
-1.3498e-05
8.79142e-05
-4.76558e-05
-1.35836e-05
8.33962e-05
-1.36506e-05
7.64234e-05
-5.34357e-05
4.76219e-05
-2.65017e-05
7.45177e-05
-5.33174e-05
3.80736e-05
-2.65048e-05
8.17192e-05
2.63344e-05
-2.64302e-05
8.64277e-05
1.34197e-05
-2.63344e-05
8.92796e-05
1.14447e-11
-2.6272e-05
9.06222e-05
-1.34197e-05
-2.6272e-05
9.06222e-05
-2.63344e-05
-2.63344e-05
8.92796e-05
-3.80736e-05
-2.64302e-05
8.64277e-05
-4.76219e-05
-2.65048e-05
8.17192e-05
-2.65017e-05
7.45177e-05
-5.33174e-05
4.75019e-05
-3.76966e-05
7.06874e-05
-5.30513e-05
3.80947e-05
-3.80025e-05
7.8274e-05
2.64302e-05
-3.80947e-05
8.33162e-05
1.3498e-05
-3.80736e-05
8.64277e-05
1.16742e-11
-3.80404e-05
8.79142e-05
-1.3498e-05
-3.80404e-05
8.79142e-05
-2.64302e-05
-3.80736e-05
8.64277e-05
-3.80946e-05
-3.80947e-05
8.33162e-05
-4.75019e-05
-3.80025e-05
7.8274e-05
-3.76966e-05
7.06874e-05
-5.30513e-05
4.71304e-05
-4.64638e-05
6.4902e-05
-5.23269e-05
3.80025e-05
-4.71304e-05
7.284e-05
2.65048e-05
-4.75019e-05
7.8274e-05
1.35836e-05
-4.76219e-05
8.17192e-05
1.20783e-11
-4.76558e-05
8.33962e-05
-1.35836e-05
-4.76558e-05
8.33962e-05
-2.65048e-05
-4.76219e-05
8.17192e-05
-3.80025e-05
-4.75019e-05
7.8274e-05
-4.71304e-05
-4.71304e-05
7.284e-05
-4.64638e-05
6.4902e-05
-5.23269e-05
4.64638e-05
5.7055e-05
-5.14904e-05
-5.14904e-05
3.76966e-05
6.4902e-05
-5.23269e-05
2.65017e-05
7.06874e-05
-5.30513e-05
1.36506e-05
7.45177e-05
-5.33174e-05
1.27881e-11
7.64234e-05
-5.34357e-05
-1.36506e-05
7.64234e-05
-5.34357e-05
-2.65016e-05
7.45177e-05
-5.33174e-05
-3.76966e-05
7.06874e-05
-5.30513e-05
-4.64638e-05
6.4902e-05
-5.23269e-05
5.7055e-05
-5.14904e-05
-5.14904e-05
1.74556e-05
1.74555e-05
5.59098e-05
-1.68829e-05
-1.68829e-05
1.56111e-05
1.9512e-05
6.58054e-05
-1.85709e-05
1.16371e-05
2.09099e-05
7.35987e-05
-1.98472e-05
6.20096e-06
2.18255e-05
7.89052e-05
-2.07768e-05
5.61835e-11
2.22682e-05
8.15788e-05
-2.12227e-05
-6.20085e-06
2.22682e-05
8.15788e-05
-2.12227e-05
-1.1637e-05
2.18255e-05
7.89052e-05
-2.07768e-05
-1.5611e-05
2.09099e-05
7.35987e-05
-1.98472e-05
-1.74555e-05
1.9512e-05
6.58054e-05
-1.85709e-05
1.74555e-05
5.59098e-05
-1.68829e-05
-1.68829e-05
1.95121e-05
1.5611e-05
6.58054e-05
-1.85709e-05
1.74858e-05
1.74857e-05
7.68926e-05
1.30085e-05
1.87072e-05
8.4954e-05
6.90932e-06
1.94675e-05
9.01764e-05
5.13213e-11
1.98341e-05
9.27395e-05
-6.90922e-06
1.98341e-05
9.27395e-05
-1.30084e-05
1.94675e-05
9.01764e-05
-1.74857e-05
1.87072e-05
8.4954e-05
-1.9512e-05
1.74857e-05
7.68926e-05
1.5611e-05
6.58054e-05
-1.85709e-05
2.09099e-05
1.1637e-05
7.35987e-05
-1.98472e-05
1.87072e-05
1.30084e-05
8.4954e-05
1.38917e-05
1.38916e-05
9.29473e-05
7.36657e-06
1.44293e-05
9.7991e-05
4.81032e-11
1.46899e-05
0.000100425
-7.36648e-06
1.46899e-05
0.000100425
-1.38916e-05
1.44293e-05
9.7991e-05
-1.87072e-05
1.38916e-05
9.29473e-05
-2.09099e-05
1.30084e-05
8.4954e-05
1.1637e-05
7.35987e-05
-1.98472e-05
2.18255e-05
6.20088e-06
7.89052e-05
-2.07768e-05
1.94675e-05
6.90925e-06
9.01764e-05
1.44293e-05
7.3665e-06
9.7991e-05
7.64221e-06
7.64215e-06
0.000102854
4.61018e-11
7.77651e-06
0.000105178
-7.64212e-06
7.77651e-06
0.000105178
-1.44292e-05
7.64215e-06
0.000102854
-1.94674e-05
7.3665e-06
9.7991e-05
-2.18255e-05
6.90925e-06
9.01764e-05
6.20088e-06
7.89052e-05
-2.07768e-05
2.22682e-05
-2.47356e-11
8.15788e-05
-2.12227e-05
1.98342e-05
-2.29151e-11
9.27395e-05
1.469e-05
-2.168e-11
0.000100425
7.77658e-06
-2.08841e-11
0.000105178
4.51477e-11
-2.05078e-11
0.00010744
-7.77649e-06
-2.05528e-11
0.00010744
-1.46899e-05
-2.10151e-11
0.000105178
-1.98341e-05
-2.19103e-11
0.000100425
-2.22682e-05
-2.32567e-11
9.27395e-05
-2.51508e-11
8.15789e-05
-2.12227e-05
2.22682e-05
-6.20092e-06
8.15788e-05
-2.12227e-05
1.98342e-05
-6.9093e-06
9.27395e-05
1.469e-05
-7.36655e-06
0.000100425
7.77658e-06
-7.64219e-06
0.000105178
4.5115e-11
-7.77656e-06
0.00010744
-7.77649e-06
-7.77656e-06
0.00010744
-1.46899e-05
-7.64219e-06
0.000105178
-1.98341e-05
-7.36655e-06
0.000100425
-2.22682e-05
-6.9093e-06
9.27395e-05
-6.20093e-06
8.15789e-05
-2.12227e-05
2.18255e-05
-1.16371e-05
7.89052e-05
-2.07768e-05
1.94675e-05
-1.30085e-05
9.01764e-05
1.44293e-05
-1.38917e-05
9.7991e-05
7.64221e-06
-1.44293e-05
0.000102854
4.60182e-11
-1.469e-05
0.000105178
-7.64212e-06
-1.469e-05
0.000105178
-1.44292e-05
-1.44293e-05
0.000102854
-1.94674e-05
-1.38917e-05
9.7991e-05
-2.18255e-05
-1.30085e-05
9.01764e-05
-1.16371e-05
7.89052e-05
-2.07768e-05
2.09099e-05
-1.5611e-05
7.35987e-05
-1.98472e-05
1.87072e-05
-1.74858e-05
8.4954e-05
1.38917e-05
-1.87072e-05
9.29473e-05
7.36657e-06
-1.94675e-05
9.7991e-05
4.79484e-11
-1.98342e-05
0.000100425
-7.36648e-06
-1.98342e-05
0.000100425
-1.38916e-05
-1.94675e-05
9.7991e-05
-1.87072e-05
-1.87072e-05
9.29473e-05
-2.09099e-05
-1.74858e-05
8.4954e-05
-1.5611e-05
7.35987e-05
-1.98472e-05
1.95121e-05
-1.74555e-05
6.58054e-05
-1.85709e-05
1.74858e-05
-1.95121e-05
7.68926e-05
1.30085e-05
-2.09099e-05
8.4954e-05
6.90932e-06
-2.18255e-05
9.01764e-05
5.10602e-11
-2.22682e-05
9.27395e-05
-6.90922e-06
-2.22682e-05
9.27395e-05
-1.30084e-05
-2.18255e-05
9.01764e-05
-1.74857e-05
-2.09099e-05
8.4954e-05
-1.9512e-05
-1.95121e-05
7.68926e-05
-1.74555e-05
6.58054e-05
-1.85709e-05
1.74555e-05
5.59098e-05
-1.68829e-05
-1.68829e-05
1.56111e-05
6.58054e-05
-1.85709e-05
1.16371e-05
7.35987e-05
-1.98472e-05
6.20095e-06
7.89052e-05
-2.07768e-05
5.57356e-11
8.15788e-05
-2.12227e-05
-6.20085e-06
8.15788e-05
-2.12227e-05
-1.1637e-05
7.89052e-05
-2.07768e-05
-1.5611e-05
7.35987e-05
-1.98472e-05
-1.74555e-05
6.58054e-05
-1.85709e-05
5.59098e-05
-1.68829e-05
-1.68829e-05
9.76147e-06
9.76133e-06
5.42209e-05
-8.91703e-06
-8.91693e-06
8.99689e-06
1.14977e-05
6.53704e-05
-1.02981e-05
6.88517e-06
1.276e-05
7.43729e-05
-1.14225e-05
3.72996e-06
1.36068e-05
8.06636e-05
-1.221e-05
1.29835e-10
1.4028e-05
8.38838e-05
-1.26031e-05
-3.7297e-06
1.4028e-05
8.38838e-05
-1.26031e-05
-6.88493e-06
1.36068e-05
8.06637e-05
-1.221e-05
-8.99668e-06
1.276e-05
7.4373e-05
-1.14225e-05
-9.76131e-06
1.14977e-05
6.53704e-05
-1.02981e-05
9.76136e-06
5.4221e-05
-8.91691e-06
-8.91695e-06
1.14978e-05
8.99673e-06
6.53704e-05
-1.02982e-05
1.06871e-05
1.0687e-05
7.85141e-05
8.17723e-06
1.18597e-05
8.83642e-05
4.41903e-06
1.26114e-05
9.493e-05
1.17164e-10
1.29798e-05
9.82067e-05
-4.4188e-06
1.29798e-05
9.82067e-05
-8.17702e-06
1.26114e-05
9.493e-05
-1.06869e-05
1.18597e-05
8.83643e-05
-1.14977e-05
1.0687e-05
7.85141e-05
8.99675e-06
6.53704e-05
-1.02981e-05
1.27601e-05
6.88498e-06
7.43729e-05
-1.14226e-05
1.18598e-05
8.17707e-06
8.83642e-05
9.05805e-06
9.0579e-06
9.85508e-05
4.88521e-06
9.60605e-06
0.000105169
1.08514e-10
9.87011e-06
0.00010842
-4.885e-06
9.87011e-06
0.00010842
-9.05785e-06
9.60605e-06
0.000105169
-1.18596e-05
9.0579e-06
9.85508e-05
-1.276e-05
8.17708e-06
8.83643e-05
6.885e-06
7.4373e-05
-1.14225e-05
1.36069e-05
3.72977e-06
8.06636e-05
-1.22101e-05
1.26116e-05
4.41886e-06
9.493e-05
9.60619e-06
4.88506e-06
0.000105169
5.16944e-06
5.16929e-06
0.000111727
1.03111e-10
5.30287e-06
0.000114914
-5.16924e-06
5.30287e-06
0.000114914
-9.606e-06
5.16929e-06
0.000111727
-1.26114e-05
4.88506e-06
0.000105169
-1.36068e-05
4.41886e-06
9.493e-05
3.72978e-06
8.06637e-05
-1.221e-05
1.40281e-05
-5.74332e-11
8.38838e-05
-1.26032e-05
1.29799e-05
-5.25595e-11
9.82066e-05
9.87024e-06
-4.89688e-11
0.00010842
5.30301e-06
-4.65901e-11
0.000114914
1.00466e-10
-4.5393e-11
0.000118045
-5.30282e-06
-4.54309e-11
0.000118045
-9.87006e-06
-4.66938e-11
0.000114914
-1.29797e-05
-4.91814e-11
0.00010842
-1.40279e-05
-5.29676e-11
9.82067e-05
-5.81336e-11
8.38838e-05
-1.26031e-05
1.40281e-05
-3.72988e-06
8.38837e-05
-1.26032e-05
1.29799e-05
-4.41896e-06
9.82066e-05
9.87024e-06
-4.88515e-06
0.00010842
5.30301e-06
-5.16938e-06
0.000114914
1.00456e-10
-5.30296e-06
0.000118045
-5.30282e-06
-5.30296e-06
0.000118045
-9.87006e-06
-5.16938e-06
0.000114914
-1.29797e-05
-4.88516e-06
0.00010842
-1.40279e-05
-4.41897e-06
9.82067e-05
-3.72989e-06
8.38838e-05
-1.26031e-05
1.36069e-05
-6.88509e-06
8.06636e-05
-1.22101e-05
1.26116e-05
-8.17717e-06
9.493e-05
9.60619e-06
-9.05799e-06
0.000105169
5.16944e-06
-9.60614e-06
0.000111727
1.03089e-10
-9.87019e-06
0.000114914
-5.16924e-06
-9.87019e-06
0.000114914
-9.606e-06
-9.60614e-06
0.000111727
-1.26114e-05
-9.05799e-06
0.000105169
-1.36068e-05
-8.17718e-06
9.493e-05
-6.8851e-06
8.06637e-05
-1.221e-05
1.27601e-05
-8.99682e-06
7.43729e-05
-1.14226e-05
1.18598e-05
-1.06871e-05
8.83642e-05
9.05805e-06
-1.18598e-05
9.85508e-05
4.88521e-06
-1.26115e-05
0.000105169
1.08385e-10
-1.29798e-05
0.00010842
-4.885e-06
-1.29798e-05
0.00010842
-9.05785e-06
-1.26115e-05
0.000105169
-1.18596e-05
-1.18598e-05
9.85508e-05
-1.276e-05
-1.06871e-05
8.83643e-05
-8.99684e-06
7.43729e-05
-1.14225e-05
1.14978e-05
-9.76141e-06
6.53703e-05
-1.02982e-05
1.06871e-05
-1.14978e-05
7.8514e-05
8.17723e-06
-1.27601e-05
8.83642e-05
4.41903e-06
-1.36069e-05
9.493e-05
1.16755e-10
-1.4028e-05
9.82066e-05
-4.4188e-06
-1.4028e-05
9.82066e-05
-8.17702e-06
-1.36069e-05
9.493e-05
-1.06869e-05
-1.27601e-05
8.83643e-05
-1.14977e-05
-1.14978e-05
7.85141e-05
-9.76143e-06
6.53704e-05
-1.02981e-05
9.76146e-06
5.42209e-05
-8.91698e-06
-8.91702e-06
8.99688e-06
6.53703e-05
-1.02982e-05
6.88516e-06
7.43729e-05
-1.14225e-05
3.72995e-06
8.06636e-05
-1.22101e-05
1.2889e-10
8.38838e-05
-1.26031e-05
-3.7297e-06
8.38838e-05
-1.26031e-05
-6.88492e-06
8.06636e-05
-1.22101e-05
-8.99668e-06
7.43729e-05
-1.14225e-05
-9.7613e-06
6.53704e-05
-1.02982e-05
5.4221e-05
-8.9169e-06
-8.917e-06
2.27391e-06
2.27363e-06
5.3103e-05
-1.71489e-06
-1.71469e-06
2.42053e-06
3.047e-06
6.43622e-05
-2.18547e-06
2.02144e-06
3.69612e-06
7.37105e-05
-2.63458e-06
1.14867e-06
4.16046e-06
8.0354e-05
-2.97807e-06
2.67591e-10
4.3977e-06
8.37911e-05
-3.15665e-06
-1.14815e-06
4.39771e-06
8.37912e-05
-3.15665e-06
-2.02095e-06
4.16047e-06
8.03541e-05
-2.97808e-06
-2.4201e-06
3.69614e-06
7.37106e-05
-2.6346e-06
-2.27357e-06
3.04703e-06
6.43624e-05
-2.18551e-06
2.27368e-06
5.31031e-05
-1.71466e-06
-1.71474e-06
3.04725e-06
2.42019e-06
6.43622e-05
-2.18566e-06
3.29302e-06
3.29273e-06
7.80226e-05
2.75009e-06
3.98039e-06
8.86229e-05
1.55571e-06
4.44328e-06
9.58416e-05
2.39224e-10
4.66947e-06
9.94904e-05
-1.55525e-06
4.66948e-06
9.94904e-05
-2.74965e-06
4.44329e-06
9.58416e-05
-3.29264e-06
3.9804e-06
8.8623e-05
-3.04694e-06
3.29275e-06
7.80227e-05
2.42023e-06
6.43624e-05
-2.18544e-06
3.69634e-06
2.02107e-06
7.37104e-05
-2.63475e-06
3.98065e-06
2.74976e-06
8.86229e-05
3.30537e-06
3.30508e-06
9.99014e-05
1.8591e-06
3.65925e-06
0.0001074
2.19399e-10
3.81951e-06
0.000111129
-1.85867e-06
3.81951e-06
0.000111129
-3.30497e-06
3.65926e-06
0.0001074
-3.9803e-06
3.30508e-06
9.99015e-05
-3.69606e-06
2.74978e-06
8.8623e-05
2.0211e-06
7.37106e-05
-2.63454e-06
4.16066e-06
1.14828e-06
8.03539e-05
-2.97822e-06
4.44353e-06
1.55537e-06
9.58415e-05
3.65953e-06
1.85879e-06
0.000107399
2.04354e-06
2.04325e-06
0.000114959
2.07023e-10
2.11618e-06
0.000118661
-2.04314e-06
2.11618e-06
0.000118661
-3.65915e-06
2.04325e-06
0.000114959
-4.4432e-06
1.85879e-06
0.0001074
-4.16039e-06
1.55538e-06
9.58416e-05
1.1483e-06
8.03541e-05
-2.97802e-06
4.3979e-06
-1.16178e-10
8.3791e-05
-3.15679e-06
4.66971e-06
-1.04561e-10
9.94903e-05
3.81978e-06
-9.6463e-11
0.000111129
2.11646e-06
-9.14536e-11
0.000118661
2.00886e-10
-8.91172e-11
0.000122278
-2.11607e-06
-8.94112e-11
0.000122278
-3.81941e-06
-9.23153e-11
0.000118661
-4.66939e-06
-9.79107e-11
0.000111129
-4.39763e-06
-1.06598e-10
9.94904e-05
-1.18708e-10
8.37912e-05
-3.1566e-06
4.3979e-06
-1.14851e-06
8.3791e-05
-3.15678e-06
4.66971e-06
-1.55558e-06
9.94903e-05
3.81978e-06
-1.85898e-06
0.000111129
2.11646e-06
-2.04343e-06
0.000118661
2.00634e-10
-2.11635e-06
0.000122278
-2.11607e-06
-2.11635e-06
0.000122278
-3.81941e-06
-2.04343e-06
0.000118661
-4.66939e-06
-1.85898e-06
0.000111129
-4.39763e-06
-1.55559e-06
9.94904e-05
-1.14853e-06
8.37912e-05
-3.15659e-06
4.16066e-06
-2.02128e-06
8.03539e-05
-2.97821e-06
4.44353e-06
-2.74995e-06
9.58415e-05
3.65953e-06
-3.30525e-06
0.000107399
2.04354e-06
-3.65942e-06
0.000114959
2.06265e-10
-3.81967e-06
0.000118661
-2.04314e-06
-3.81968e-06
0.000118661
-3.65915e-06
-3.65943e-06
0.000114959
-4.44319e-06
-3.30526e-06
0.0001074
-4.16038e-06
-2.74997e-06
9.58416e-05
-2.02131e-06
8.03541e-05
-2.97802e-06
3.69633e-06
-2.42037e-06
7.37104e-05
-2.63473e-06
3.98065e-06
-3.2929e-06
8.86228e-05
3.30537e-06
-3.98054e-06
9.99014e-05
1.8591e-06
-4.44343e-06
0.000107399
2.17986e-10
-4.66962e-06
0.000111129
-1.85867e-06
-4.66962e-06
0.000111129
-3.30497e-06
-4.44344e-06
0.0001074
-3.98029e-06
-3.98056e-06
9.99014e-05
-3.69605e-06
-3.29293e-06
8.8623e-05
-2.42042e-06
7.37105e-05
-2.63453e-06
3.04723e-06
-2.27378e-06
6.43622e-05
-2.18564e-06
3.29301e-06
-3.04714e-06
7.80225e-05
2.75008e-06
-3.69625e-06
8.86228e-05
1.55571e-06
-4.16058e-06
9.58415e-05
2.36981e-10
-4.39782e-06
9.94903e-05
-1.55524e-06
-4.39782e-06
9.94903e-05
-2.74965e-06
-4.16059e-06
9.58416e-05
-3.29263e-06
-3.69627e-06
8.86229e-05
-3.04692e-06
-3.04717e-06
7.80226e-05
-2.27383e-06
6.43623e-05
-2.18542e-06
2.27389e-06
5.31029e-05
-1.71479e-06
-1.71487e-06
2.4205e-06
6.43622e-05
-2.18557e-06
2.02142e-06
7.37104e-05
-2.63467e-06
1.14866e-06
8.03539e-05
-2.97816e-06
2.64385e-10
8.37911e-05
-3.15673e-06
-1.14814e-06
8.37911e-05
-3.15673e-06
-2.02094e-06
8.0354e-05
-2.97817e-06
-2.42009e-06
7.37105e-05
-2.63469e-06
-2.27355e-06
6.43623e-05
-2.18561e-06
5.31031e-05
-1.71464e-06
-1.71484e-06
1.80912e-06
1.80859e-06
5.26894e-05
-1.60227e-06
-1.60189e-06
1.72106e-06
2.2085e-06
6.41344e-05
-1.89257e-06
1.35671e-06
2.53417e-06
7.36828e-05
-2.1422e-06
7.49255e-07
2.76461e-06
8.05167e-05
-2.31984e-06
4.95181e-10
2.88092e-06
8.40693e-05
-2.41033e-06
-7.48289e-07
2.88093e-06
8.40694e-05
-2.41034e-06
-1.35581e-06
2.76464e-06
8.05168e-05
-2.31987e-06
-1.72028e-06
2.53421e-06
7.36831e-05
-2.14225e-06
-1.80849e-06
2.20857e-06
6.41347e-05
-1.89264e-06
1.80869e-06
5.26898e-05
-1.60183e-06
-1.60198e-06
2.20897e-06
1.72043e-06
6.41343e-05
-1.89292e-06
2.14992e-06
2.14937e-06
7.81407e-05
1.71075e-06
2.49228e-06
8.9104e-05
9.46613e-07
2.72492e-06
9.66454e-05
4.41766e-10
2.83524e-06
0.000100482
-9.45749e-07
2.83524e-06
0.000100482
-1.70994e-06
2.72494e-06
9.66455e-05
-2.14921e-06
2.49231e-06
8.91042e-05
-2.20839e-06
2.14942e-06
7.8141e-05
1.72052e-06
6.41347e-05
-1.89251e-06
2.53458e-06
1.35601e-06
7.36828e-05
-2.14251e-06
2.49277e-06
1.71014e-06
8.91039e-05
1.98878e-06
1.98824e-06
0.000100909
1.09793e-06
2.16573e-06
0.00010885
4.03211e-10
2.23711e-06
0.000112824
-1.09715e-06
2.23711e-06
0.000112824
-1.98805e-06
2.16573e-06
0.00010885
-2.49212e-06
1.98825e-06
0.00010091
-2.53405e-06
1.71018e-06
8.91042e-05
1.35608e-06
7.36831e-05
-2.14213e-06
2.76499e-06
7.48535e-07
8.05165e-05
-2.32012e-06
2.72538e-06
9.45976e-07
9.66453e-05
2.16624e-06
1.09736e-06
0.00010885
1.18759e-06
1.18705e-06
0.000116917
3.78898e-10
1.21082e-06
0.000120875
-1.18685e-06
1.21082e-06
0.000120875
-2.16554e-06
1.18705e-06
0.000116917
-2.72477e-06
1.09736e-06
0.00010885
-2.76449e-06
9.45992e-07
9.66455e-05
7.48565e-07
8.05169e-05
-2.31976e-06
2.88128e-06
-2.17506e-10
8.40691e-05
-2.41059e-06
2.83568e-06
-1.95662e-10
0.000100482
2.2376e-06
-1.79778e-10
0.000112824
1.21134e-06
-1.69761e-10
0.000120875
3.66934e-10
-1.64986e-10
0.0001247
-1.21062e-06
-1.65383e-10
0.0001247
-2.23692e-06
-1.70962e-10
0.000120875
-2.83508e-06
-1.81869e-10
0.000112824
-2.88079e-06
-1.98684e-10
0.000100482
-2.21407e-10
8.40694e-05
-2.41024e-06
2.88127e-06
-7.4896e-07
8.40691e-05
-2.41059e-06
2.83567e-06
-9.46359e-07
0.000100482
2.2376e-06
-1.09771e-06
0.000112824
1.21134e-06
-1.18738e-06
0.000120875
3.66619e-10
-1.21114e-06
0.0001247
-1.21062e-06
-1.21114e-06
0.0001247
-2.23692e-06
-1.18739e-06
0.000120875
-2.83508e-06
-1.09772e-06
0.000112824
-2.88079e-06
-9.4638e-07
0.000100482
-7.48997e-07
8.40694e-05
-2.41024e-06
2.76498e-06
-1.35641e-06
8.05165e-05
-2.32011e-06
2.72537e-06
-1.7105e-06
9.66452e-05
2.16623e-06
-1.98856e-06
0.000108849
1.18759e-06
-2.16604e-06
0.000116917
3.77925e-10
-2.23741e-06
0.000120875
-1.18685e-06
-2.23741e-06
0.000120875
-2.16554e-06
-2.16605e-06
0.000116917
-2.72476e-06
-1.98859e-06
0.00010885
-2.76448e-06
-1.71054e-06
9.66455e-05
-1.35648e-06
8.05168e-05
-2.31975e-06
2.53456e-06
-1.72078e-06
7.36827e-05
-2.14249e-06
2.49276e-06
-2.14968e-06
8.91038e-05
1.98877e-06
-2.49257e-06
0.000100909
1.09793e-06
-2.7252e-06
0.000108849
4.01329e-10
-2.83551e-06
0.000112824
-1.09714e-06
-2.83551e-06
0.000112824
-1.98804e-06
-2.72522e-06
0.00010885
-2.49211e-06
-2.4926e-06
0.00010091
-2.53404e-06
-2.14974e-06
8.91041e-05
-1.72087e-06
7.3683e-05
-2.14211e-06
2.20893e-06
-1.80887e-06
6.41342e-05
-1.89289e-06
2.14989e-06
-2.20876e-06
7.81406e-05
1.71073e-06
-2.5344e-06
8.91038e-05
9.46601e-07
-2.76484e-06
9.66453e-05
4.38628e-10
-2.88114e-06
0.000100482
-9.45743e-07
-2.88115e-06
0.000100482
-1.70993e-06
-2.76486e-06
9.66454e-05
-2.14919e-06
-2.53445e-06
8.9104e-05
-2.20836e-06
-2.20883e-06
7.81409e-05
-1.80897e-06
6.41345e-05
-1.89247e-06
1.80907e-06
5.26893e-05
-1.60208e-06
-1.60223e-06
1.72102e-06
6.41342e-05
-1.89275e-06
1.35667e-06
7.36827e-05
-2.14237e-06
7.49236e-07
8.05165e-05
-2.32e-06
4.90513e-10
8.40692e-05
-2.41049e-06
-7.48278e-07
8.40692e-05
-2.4105e-06
-1.35579e-06
8.05167e-05
-2.32003e-06
-1.72024e-06
7.36829e-05
-2.14241e-06
-1.80844e-06
6.41345e-05
-1.89282e-06
5.26896e-05
-1.60179e-06
-1.60217e-06
3.41708e-07
3.40795e-07
5.24759e-05
-2.34798e-07
-2.34135e-07
3.91397e-07
4.81948e-07
6.39126e-05
-3.09927e-07
3.42701e-07
6.1304e-07
7.35073e-05
-3.88795e-07
2.00444e-07
7.13726e-07
8.03976e-05
-4.524e-07
8.5415e-10
7.6705e-07
8.39881e-05
-4.8626e-07
-1.98777e-07
7.67062e-07
8.39882e-05
-4.86273e-07
-3.41156e-07
7.13766e-07
8.03979e-05
-4.52444e-07
-3.90054e-07
6.13114e-07
7.35077e-05
-3.88868e-07
-3.40625e-07
4.82071e-07
6.39132e-05
-3.10052e-07
3.4097e-07
5.24765e-05
-2.34039e-07
-2.3429e-07
4.8276e-07
3.90312e-07
6.39126e-05
-3.10534e-07
5.64755e-07
5.63796e-07
7.79769e-05
4.96961e-07
7.18228e-07
8.90666e-05
2.89963e-07
8.32445e-07
9.67337e-05
7.63903e-10
8.90586e-07
0.000100648
-2.8847e-07
8.90594e-07
0.000100648
-4.95569e-07
8.32475e-07
9.67339e-05
-5.63532e-07
7.18285e-07
8.9067e-05
-4.81764e-07
5.63893e-07
7.79774e-05
3.90465e-07
6.39132e-05
-3.09823e-07
6.13755e-07
3.41498e-07
7.35071e-05
-3.89318e-07
7.19085e-07
4.95902e-07
8.90665e-05
6.32063e-07
6.3111e-07
0.000101084
3.67378e-07
7.28202e-07
0.000109218
6.9724e-10
7.73605e-07
0.000113308
-3.66013e-07
7.73609e-07
0.000113308
-6.30788e-07
7.28218e-07
0.000109219
-7.17963e-07
6.31146e-07
0.000101084
-6.12845e-07
4.95968e-07
8.9067e-05
3.41611e-07
7.35078e-05
-3.88671e-07
7.14378e-07
1.99194e-07
8.03974e-05
-4.52878e-07
8.33235e-07
2.88857e-07
9.67335e-05
7.29086e-07
3.66376e-07
0.000109218
4.22193e-07
4.21256e-07
0.000117531
6.54738e-10
4.43606e-07
0.000121626
-4.2091e-07
4.43606e-07
0.000121626
-7.27886e-07
4.21261e-07
0.000117531
-8.32178e-07
3.6639e-07
0.000109219
-7.13521e-07
2.88887e-07
9.6734e-05
1.9925e-07
8.0398e-05
-4.52264e-07
7.67662e-07
-3.81324e-10
8.39877e-05
-4.86703e-07
8.91337e-07
-3.41907e-10
0.000100648
7.74455e-07
-3.13336e-10
0.000113308
4.44511e-07
-2.95509e-10
0.000121626
6.34059e-10
-2.87265e-10
0.000125588
-4.43267e-07
-2.87997e-10
0.000125588
-7.7329e-07
-2.97698e-10
0.000121626
-8.90312e-07
-3.16951e-10
0.000113308
-7.66832e-07
-3.4661e-10
0.000100648
-3.86422e-10
8.39883e-05
-4.86107e-07
7.67656e-07
-1.99938e-07
8.39877e-05
-4.86696e-07
8.91332e-07
-2.89525e-07
0.000100648
7.74452e-07
-3.66989e-07
0.000113308
4.4451e-07
-4.21835e-07
0.000121626
6.33497e-10
-4.4417e-07
0.000125588
-4.43267e-07
-4.44172e-07
0.000125588
-7.73289e-07
-4.21845e-07
0.000121626
-8.90309e-07
-3.67011e-07
0.000113308
-7.66827e-07
-2.89565e-07
0.000100648
-2.00004e-07
8.39883e-05
-4.86102e-07
7.14358e-07
-3.42188e-07
8.03972e-05
-4.52858e-07
8.33219e-07
-4.96525e-07
9.67334e-05
7.29076e-07
-6.31683e-07
0.000109218
4.22188e-07
-7.28743e-07
0.00011753
6.52989e-10
-7.74132e-07
0.000121626
-4.20908e-07
-7.74138e-07
0.000121626
-7.2788e-07
-7.28763e-07
0.000117531
-8.32166e-07
-6.31725e-07
0.000109219
-7.13503e-07
-4.96599e-07
9.67339e-05
-3.42309e-07
8.03979e-05
-4.52245e-07
6.13719e-07
-3.90911e-07
7.3507e-05
-3.89284e-07
7.19056e-07
-5.64343e-07
8.90663e-05
6.32042e-07
-7.18732e-07
0.000101083
3.67367e-07
-8.32921e-07
0.000109218
6.93953e-10
-8.91049e-07
0.000113308
-3.66008e-07
-8.91059e-07
0.000113308
-6.30773e-07
-8.32954e-07
0.000109219
-7.17939e-07
-7.18795e-07
0.000101084
-6.12812e-07
-5.64447e-07
8.90668e-05
-3.91072e-07
7.35076e-05
-3.88639e-07
4.82701e-07
-3.41279e-07
6.39123e-05
-3.10476e-07
5.64706e-07
-4.82394e-07
7.79767e-05
4.96925e-07
-6.13448e-07
8.90663e-05
2.89943e-07
-7.14112e-07
9.67334e-05
7.58628e-10
-7.67425e-07
0.000100648
-2.88459e-07
-7.67438e-07
0.000100648
-4.95542e-07
-7.14155e-07
9.67337e-05
-5.6349e-07
-6.13527e-07
8.90667e-05
-4.81711e-07
-4.82522e-07
7.79772e-05
-3.41459e-07
6.3913e-05
-3.09767e-07
3.41624e-07
5.24756e-05
-2.34475e-07
-2.34726e-07
3.91322e-07
6.39124e-05
-3.10246e-07
3.42642e-07
7.3507e-05
-3.89086e-07
2.00409e-07
8.03973e-05
-4.52677e-07
8.46693e-10
8.39878e-05
-4.8653e-07
-1.98757e-07
8.39879e-05
-4.86543e-07
-3.4111e-07
8.03976e-05
-4.52722e-07
-3.89989e-07
7.35074e-05
-3.89161e-07
-3.40549e-07
6.39129e-05
-3.10374e-07
5.24762e-05
-2.33971e-07
-2.34633e-07
4.22055e-07
4.20566e-07
5.23953e-05
-3.81563e-07
-3.80487e-07
3.94835e-07
5.0539e-07
6.38796e-05
-4.45145e-07
3.08224e-07
5.74529e-07
7.35194e-05
-5.00052e-07
1.69843e-07
6.24206e-07
8.04507e-05
-5.38869e-07
1.38243e-09
6.49686e-07
8.40655e-05
-5.58662e-07
-1.67146e-07
6.49707e-07
8.40657e-05
-5.58683e-07
-3.05725e-07
6.24272e-07
8.04511e-05
-5.38938e-07
-3.92663e-07
5.7465e-07
7.35202e-05
-5.00167e-07
-4.20304e-07
5.05589e-07
6.38806e-05
-4.45343e-07
4.20847e-07
5.23964e-05
-3.80337e-07
-3.8073e-07
5.06721e-07
3.93061e-07
6.38795e-05
-4.46137e-07
4.83843e-07
4.82269e-07
7.80229e-05
3.81568e-07
5.55398e-07
8.9188e-05
2.10846e-07
6.07264e-07
9.69213e-05
1.24412e-09
6.32869e-07
0.000100874
-2.08414e-07
6.32883e-07
0.000100874
-3.79302e-07
6.07313e-07
9.69217e-05
-4.81853e-07
5.55492e-07
8.91887e-05
-5.05102e-07
4.82429e-07
7.80238e-05
3.9331e-07
6.38806e-05
-4.4498e-07
5.75706e-07
3.06256e-07
7.35192e-05
-5.00909e-07
5.56808e-07
3.79828e-07
8.91878e-05
4.42114e-07
4.40546e-07
0.000101313
2.4449e-07
4.82509e-07
0.000109541
1.13895e-09
5.00931e-07
0.000113683
-2.42261e-07
5.00938e-07
0.000113683
-4.40033e-07
4.82537e-07
0.000109541
-5.54976e-07
4.40606e-07
0.000101314
-5.74219e-07
3.79939e-07
8.91887e-05
3.06443e-07
7.35203e-05
-4.99853e-07
6.2528e-07
1.67797e-07
8.04502e-05
-5.39655e-07
6.08564e-07
2.09026e-07
9.6921e-05
4.83966e-07
2.42838e-07
0.000109541
2.67024e-07
2.65481e-07
0.000117965
1.0704e-09
2.73419e-07
0.00012212
-2.64926e-07
2.7342e-07
0.00012212
-4.82004e-07
2.65491e-07
0.000117965
-6.06837e-07
2.42865e-07
0.000109541
-6.23879e-07
2.0908e-07
9.69219e-05
1.67893e-07
8.04513e-05
-5.3865e-07
6.50695e-07
-6.39822e-10
8.40649e-05
-5.5939e-07
6.34106e-07
-5.74155e-10
0.000100874
5.02331e-07
-5.25631e-10
0.000113683
2.7491e-07
-4.94909e-10
0.000122119
1.03667e-09
-4.80516e-10
0.000126135
-2.72875e-07
-4.81465e-10
0.000126136
-5.00426e-07
-4.97661e-10
0.00012212
-6.3243e-07
-5.2979e-10
0.000113683
-6.49337e-07
-5.78566e-10
0.000100875
-6.42651e-10
8.4066e-05
-5.58416e-07
6.50685e-07
-1.69046e-07
8.40648e-05
-5.5938e-07
6.34099e-07
-2.10149e-07
0.000100874
5.02327e-07
-2.43867e-07
0.000113683
2.74908e-07
-2.6645e-07
0.000122119
1.03573e-09
-2.74362e-07
0.000126135
-2.72875e-07
-2.74365e-07
0.000126136
-5.00423e-07
-2.66466e-07
0.00012212
-6.32424e-07
-2.43902e-07
0.000113683
-6.49328e-07
-2.10211e-07
0.000100875
-1.69147e-07
8.40659e-05
-5.58407e-07
6.25247e-07
-3.07414e-07
8.045e-05
-5.39622e-07
6.08539e-07
-3.80874e-07
9.69208e-05
4.83949e-07
-4.41507e-07
0.000109541
2.67015e-07
-4.83415e-07
0.000117964
1.0674e-09
-5.01813e-07
0.000122119
-2.64924e-07
-5.01823e-07
0.00012212
-4.81993e-07
-4.83449e-07
0.000117965
-6.06817e-07
-4.41574e-07
0.000109541
-6.2385e-07
-3.80992e-07
9.69217e-05
-3.07604e-07
8.04511e-05
-5.38619e-07
5.75646e-07
-3.94068e-07
7.35188e-05
-5.00853e-07
5.5676e-07
-4.83188e-07
8.91875e-05
4.4208e-07
-5.56243e-07
0.000101313
2.44471e-07
-6.08062e-07
0.000109541
1.13313e-09
-6.33645e-07
0.000113683
-2.42253e-07
-6.33661e-07
0.000113683
-4.40009e-07
-6.08115e-07
0.000109541
-5.54936e-07
-5.56343e-07
0.000101313
-5.74166e-07
-4.83353e-07
8.91884e-05
-3.94319e-07
7.35199e-05
-4.99801e-07
5.06623e-07
-4.21379e-07
6.38791e-05
-4.4604e-07
4.83761e-07
-5.06139e-07
7.80225e-05
3.81507e-07
-5.75215e-07
8.91876e-05
2.1081e-07
-6.24853e-07
9.69209e-05
1.23427e-09
-6.50314e-07
0.000100874
-2.08397e-07
-6.50336e-07
0.000100874
-3.79259e-07
-6.24922e-07
9.69213e-05
-4.81786e-07
-5.7534e-07
8.91883e-05
-5.05016e-07
-5.0634e-07
7.80234e-05
-4.21659e-07
6.38802e-05
-4.44892e-07
4.21915e-07
5.23948e-05
-3.81057e-07
-3.81444e-07
3.94707e-07
6.38791e-05
-4.4568e-07
3.08123e-07
7.35189e-05
-5.0054e-07
1.69782e-07
8.04502e-05
-5.39333e-07
1.36736e-09
8.4065e-05
-5.59113e-07
-1.67115e-07
8.40652e-05
-5.59134e-07
-3.05651e-07
8.04506e-05
-5.39403e-07
-3.92558e-07
7.35197e-05
-5.00656e-07
-4.20183e-07
6.38801e-05
-4.45879e-07
5.23959e-05
-3.8023e-07
-3.81298e-07
7.52909e-08
7.30152e-08
5.23467e-05
-5.06819e-08
-4.90444e-08
8.71143e-08
1.04405e-07
6.38292e-05
-6.5796e-08
7.67693e-08
1.3356e-07
7.34798e-05
-8.35427e-08
4.57538e-08
1.56168e-07
8.04236e-05
-9.80577e-08
2.09304e-09
1.6833e-07
8.40468e-05
-1.05878e-07
-4.16712e-08
1.68361e-07
8.4047e-05
-1.05909e-07
-7.29895e-08
1.5627e-07
8.04243e-05
-9.81586e-08
-8.38325e-08
1.33743e-07
7.3481e-05
-8.37114e-08
-7.26489e-08
1.04702e-07
6.38308e-05
-6.60865e-08
7.34306e-08
5.23486e-05
-4.8834e-08
-4.93956e-08
1.06456e-07
8.43946e-08
6.3829e-05
-6.73181e-08
1.25125e-07
1.22692e-07
7.79859e-05
1.10405e-07
1.56788e-07
8.91795e-05
6.51903e-08
1.82521e-07
9.69402e-05
1.90068e-09
1.96064e-07
0.00010091
-6.14753e-08
1.96088e-07
0.00010091
-1.06947e-07
1.82599e-07
9.69409e-05
-1.22091e-07
1.56934e-07
8.91806e-05
-1.03991e-07
1.22936e-07
7.79875e-05
8.47693e-08
6.38309e-05
-6.55603e-08
1.35383e-07
7.37485e-08
7.34793e-05
-8.48664e-08
1.58978e-07
1.07713e-07
8.91792e-05
1.40185e-07
1.37747e-07
0.000101351
8.23999e-08
1.60249e-07
0.000109621
1.74982e-09
1.71599e-07
0.000113788
-7.89758e-08
1.71611e-07
0.000113789
-1.3699e-07
1.60296e-07
0.000109622
-1.56169e-07
1.37843e-07
0.000101352
-1.33106e-07
1.07885e-07
8.91807e-05
7.40331e-08
7.34812e-05
-8.32505e-08
1.57837e-07
4.26105e-08
8.04228e-05
-9.92751e-08
1.84545e-07
6.23731e-08
9.69396e-05
1.62518e-07
7.98322e-08
0.000109621
9.55282e-08
9.31242e-08
0.000118099
1.64918e-09
9.95788e-08
0.000122285
-9.22977e-08
9.95821e-08
0.000122286
-1.59499e-07
9.31419e-08
0.000118099
-1.81889e-07
7.98755e-08
0.000109622
-1.55685e-07
6.24581e-08