/*--------------------------------*- C++ -*----------------------------------*\
| =========                 |                                                 |
| \\      /  F ield         | OpenFOAM: The Open Source CFD Toolbox           |
|  \\    /   O peration     | Version:  2406                                  |
|   \\  /    A nd           | Website:  www.openfoam.com                      |
|    \\/     M anipulation  |                                                 |
\*---------------------------------------------------------------------------*/
FoamFile
{
    version     2.0;
    format      ascii;
    arch        "LSB;label=32;scalar=64";
    class       volSymmTensorField;
    location    "1.6";
    object      turbulenceProperties:R;
}
// * * * * * * * * * * * * * * * * * * * * * * * * * * * * * * * * * * * * * //

dimensions      [0 2 -2 0 0 0 0];

internalField   uniform (0 -0 -0 0 -0 0);

boundaryField
{
    walls
    {
        type            calculated;
        value           nonuniform List<symmTensor> 
2000
(
(-8.57814e-08 7.13915e-08 2.96519e-07 -5.45552e-08 -2.50416e-07 1.40337e-07)
(-1.48118e-07 9.04417e-08 4.6866e-07 -5.04315e-08 -2.88973e-07 1.9855e-07)
(-2.2472e-07 9.40331e-08 6.72753e-07 -3.32467e-08 -2.81247e-07 2.57967e-07)
(-2.95107e-07 7.27076e-08 8.52688e-07 -1.06402e-08 -2.06803e-07 3.05748e-07)
(-3.38005e-07 2.73266e-08 9.58424e-07 5.72803e-09 -7.62257e-08 3.32277e-07)
(-3.38005e-07 -2.73266e-08 9.58424e-07 5.72803e-09 7.62257e-08 3.32277e-07)
(-2.95107e-07 -7.27076e-08 8.52688e-07 -1.06403e-08 2.06803e-07 3.05748e-07)
(-2.2472e-07 -9.40331e-08 6.72753e-07 -3.32467e-08 2.81247e-07 2.57967e-07)
(-1.48118e-07 -9.04417e-08 4.6866e-07 -5.04315e-08 2.88973e-07 1.9855e-07)
(-8.57814e-08 -7.13915e-08 2.96519e-07 -5.45552e-08 2.50416e-07 1.40337e-07)
(-2.65058e-09 1.14305e-09 1.2721e-07 -1.93543e-10 -1.07006e-07 2.84413e-09)
(-4.96873e-09 8.57955e-10 1.94467e-07 2.50489e-10 -1.19432e-07 4.71824e-09)
(-6.63814e-09 9.81866e-10 2.78039e-07 -3.47555e-10 -1.15974e-07 6.9857e-09)
(-8.43988e-09 7.36452e-10 3.54163e-07 -5.23375e-10 -8.57648e-08 8.96326e-09)
(-9.51402e-09 3.15546e-10 3.9976e-07 -6.40891e-10 -3.1757e-08 1.01549e-08)
(-9.51401e-09 -3.15609e-10 3.9976e-07 -6.40901e-10 3.1757e-08 1.01549e-08)
(-8.43985e-09 -7.36502e-10 3.54163e-07 -5.23402e-10 8.57648e-08 8.96326e-09)
(-6.63811e-09 -9.81896e-10 2.78039e-07 -3.47587e-10 1.15974e-07 6.9857e-09)
(-4.96871e-09 -8.57969e-10 1.94467e-07 2.50461e-10 1.19432e-07 4.71825e-09)
(-2.65057e-09 -1.14305e-09 1.2721e-07 -1.9356e-10 1.07006e-07 2.84413e-09)
(-2.81682e-10 -9.75317e-12 4.46157e-08 -1.31549e-10 -3.7402e-08 4.1323e-10)
(-3.72022e-10 -6.89737e-11 6.64964e-08 -2.67713e-10 -4.07019e-08 6.39735e-10)
(-3.80583e-10 -1.55303e-11 9.44538e-08 -5.35551e-10 -3.93215e-08 9.16133e-10)
(-4.691e-10 3.02374e-11 1.20767e-07 -6.88748e-10 -2.92194e-08 1.15785e-09)
(-5.50533e-10 2.58482e-11 1.36781e-07 -7.51485e-10 -1.08594e-08 1.30202e-09)
(-5.50522e-10 -2.59154e-11 1.36781e-07 -7.51496e-10 1.08594e-08 1.30202e-09)
(-4.69073e-10 -3.02913e-11 1.20767e-07 -6.88776e-10 2.92194e-08 1.15785e-09)
(-3.8055e-10 1.54969e-11 9.44537e-08 -5.35585e-10 3.93215e-08 9.16135e-10)
(-3.71992e-10 6.89585e-11 6.64963e-08 -2.67744e-10 4.07018e-08 6.39737e-10)
(-2.81663e-10 9.75023e-12 4.46157e-08 -1.31569e-10 3.74019e-08 4.13232e-10)
(-8.30007e-11 6.37149e-11 5.83156e-08 5.43275e-11 -4.89404e-08 2.86732e-11)
(-1.88706e-10 4.47513e-11 8.75605e-08 1.32437e-10 -5.36431e-08 5.62685e-11)
(-2.50167e-10 3.9899e-11 1.24419e-07 1.5694e-10 -5.18161e-08 9.32272e-11)
(-3.13417e-10 1.80747e-11 1.58663e-07 1.85752e-10 -3.83894e-08 1.27665e-10)
(-3.43756e-10 7.13589e-12 1.79367e-07 1.93316e-10 -1.42394e-08 1.5044e-10)
(-3.43731e-10 -7.29765e-12 1.79367e-07 1.9329e-10 1.42394e-08 1.50442e-10)
(-3.13352e-10 -1.82052e-11 1.58663e-07 1.85683e-10 3.83893e-08 1.27668e-10)
(-2.50087e-10 -3.99799e-11 1.24419e-07 1.56855e-10 5.1816e-08 9.32316e-11)
(-1.88634e-10 -4.47882e-11 8.75603e-08 1.32361e-10 5.3643e-08 5.62732e-11)
(-8.2955e-11 -6.37219e-11 5.83154e-08 5.42779e-11 4.89403e-08 2.86771e-11)
(-3.30843e-11 -1.09598e-11 4.54839e-08 -3.65065e-11 -3.81427e-08 6.95908e-11)
(-2.43985e-11 -1.21111e-11 6.79139e-08 -7.99439e-11 -4.15778e-08 1.04342e-10)
(-1.48788e-11 6.45243e-12 9.65377e-08 -1.29673e-10 -4.01951e-08 1.44551e-10)
(-2.74878e-11 1.81501e-11 1.23378e-07 -1.51342e-10 -2.98525e-08 1.7883e-10)
(-4.33685e-11 1.00386e-11 1.39698e-07 -1.55303e-10 -1.10917e-08 1.98671e-10)
(-4.33303e-11 -1.0285e-11 1.39698e-07 -1.55343e-10 1.10917e-08 1.98673e-10)
(-2.73886e-11 -1.83491e-11 1.23378e-07 -1.51446e-10 2.98525e-08 1.78835e-10)
(-1.47581e-11 -6.57573e-12 9.65373e-08 -1.298e-10 4.0195e-08 1.44558e-10)
(-2.42893e-11 1.20543e-11 6.79134e-08 -8.00601e-11 4.15776e-08 1.04349e-10)
(-3.30141e-11 1.09487e-11 4.54835e-08 -3.65826e-11 3.81424e-08 6.95967e-11)
(-1.3486e-11 1.43679e-11 4.92596e-08 1.07112e-11 -4.1323e-08 2.77476e-12)
(-3.33986e-11 1.31903e-11 7.3746e-08 2.70022e-11 -4.51632e-08 6.39642e-12)
(-4.77269e-11 1.32774e-11 1.04882e-07 3.63246e-11 -4.36769e-08 1.14022e-11)
(-6.26774e-11 8.05369e-12 1.33995e-07 4.6657e-11 -3.2424e-08 1.60204e-11)
(-7.03427e-11 2.92107e-12 1.51671e-07 5.11793e-11 -1.20429e-08 1.91635e-11)
(-7.02741e-11 -3.3635e-12 1.51671e-07 5.11073e-11 1.20429e-08 1.91668e-11)
(-6.24988e-11 -8.41163e-12 1.33994e-07 4.64688e-11 3.24238e-08 1.603e-11)
(-4.75091e-11 -1.34994e-11 1.04881e-07 3.60945e-11 4.36766e-08 1.14146e-11)
(-3.3201e-11 -1.32927e-11 7.37451e-08 2.67914e-11 4.51627e-08 6.40961e-12)
(-1.33592e-11 -1.43877e-11 4.92588e-08 1.05734e-11 4.13224e-08 2.78579e-12)
(-8.07023e-12 -3.01748e-12 4.60988e-08 -9.62043e-12 -3.86636e-08 1.76907e-11)
(-5.61702e-12 -3.2453e-12 6.89078e-08 -2.09126e-11 -4.21925e-08 2.65296e-11)
(-3.21093e-12 1.3234e-12 9.80076e-08 -3.35967e-11 -4.08118e-08 3.68077e-11)
(-6.21791e-12 4.35239e-12 1.25287e-07 -3.9375e-11 -3.03172e-08 4.55929e-11)
(-1.01621e-11 2.22248e-12 1.41876e-07 -4.05117e-11 -1.12656e-08 5.06738e-11)
(-1.00564e-11 -2.9048e-12 1.41875e-07 -4.06226e-11 1.12656e-08 5.0679e-11)
(-5.94272e-12 -4.90478e-12 1.25286e-07 -3.9665e-11 3.0317e-08 4.56078e-11)
(-2.8753e-12 -1.66641e-12 9.80061e-08 -3.39514e-11 4.08112e-08 3.68267e-11)
(-5.31189e-12 3.08653e-12 6.89063e-08 -2.12381e-11 4.21916e-08 2.655e-11)
(-7.87454e-12 2.98659e-12 4.60975e-08 -9.83328e-12 3.86625e-08 1.77078e-11)
(-3.1675e-12 3.6044e-12 4.71057e-08 2.88074e-12 -3.95117e-08 2.86767e-13)
(-8.3386e-12 3.17489e-12 7.0461e-08 7.33078e-12 -4.31472e-08 1.00783e-12)
(-1.20267e-11 2.86514e-12 1.00226e-07 9.93887e-12 -4.17372e-08 2.08782e-12)
(-1.55792e-11 1.36996e-12 1.28105e-07 1.2447e-11 -3.09996e-08 3.13217e-12)
(-1.72449e-11 1.3102e-13 1.4505e-07 1.33727e-11 -1.15177e-08 3.87213e-12)
(-1.70814e-11 -1.18631e-12 1.45049e-07 1.32011e-11 1.15177e-08 3.88029e-12)
(-1.51534e-11 -2.22486e-12 1.28103e-07 1.19976e-11 3.09992e-08 3.15583e-12)
(-1.15072e-11 -3.39608e-12 1.00223e-07 9.38894e-12 4.17362e-08 2.1183e-12)
(-7.86642e-12 -3.42053e-12 7.04584e-08 6.82562e-12 4.31457e-08 1.0408e-12)
(-2.86665e-12 -3.65158e-12 4.71035e-08 2.55204e-12 3.95099e-08 3.14607e-13)
(-1.93179e-12 -7.98955e-13 4.62986e-08 -2.53312e-12 -3.88326e-08 4.46491e-12)
(-1.36031e-12 -8.94283e-13 6.92247e-08 -5.3456e-12 -4.23881e-08 6.70591e-12)
(-8.34344e-13 1.14968e-13 9.84669e-08 -8.49046e-12 -4.10041e-08 9.3248e-12)
(-1.58598e-12 6.97919e-13 1.25874e-07 -9.99458e-12 -3.04598e-08 1.15806e-11)
(-2.48208e-12 -4.3063e-14 1.42539e-07 -1.04129e-11 -1.13184e-08 1.2895e-11)
(-2.25358e-12 -1.43482e-12 1.42538e-07 -1.06532e-11 1.13184e-08 1.29068e-11)
(-9.90724e-13 -1.89531e-12 1.25871e-07 -1.06243e-11 3.04592e-08 1.1615e-11)
(-1.08777e-13 -8.58259e-13 9.84628e-08 -9.26053e-12 4.10025e-08 9.3693e-12)
(-7.01667e-13 5.50575e-13 6.92205e-08 -6.05259e-12 4.23856e-08 6.75425e-12)
(-1.51565e-12 7.33432e-13 4.62949e-08 -2.99023e-12 3.88295e-08 4.50588e-12)
(-6.72692e-13 9.47619e-13 4.65677e-08 7.14015e-13 -3.90592e-08 -4.13233e-14)
(-2.10911e-12 8.06134e-13 6.96391e-08 2.01209e-12 -4.26428e-08 9.70163e-14)
(-3.20484e-12 5.38615e-13 9.90577e-08 2.87971e-12 -4.12505e-08 3.2513e-13)
(-4.13944e-12 -1.14663e-13 1.26624e-07 3.57799e-12 -3.06413e-08 5.61449e-13)
(-4.44246e-12 -7.14084e-13 1.43383e-07 3.70126e-12 -1.13853e-08 7.41196e-13)
(-4.14818e-12 -1.19314e-12 1.43381e-07 3.39063e-12 1.13854e-08 7.57552e-13)
(-3.37281e-12 -1.43084e-12 1.26619e-07 2.76396e-12 3.06403e-08 6.08847e-13)
(-2.27135e-12 -1.49723e-12 9.90512e-08 1.88479e-12 4.1248e-08 3.86561e-13)
(-1.26277e-12 -1.24905e-12 6.96325e-08 1.09894e-12 4.26388e-08 1.63829e-13)
(-1.4391e-13 -1.03088e-12 4.65619e-08 1.28523e-13 3.90544e-08 1.53863e-14)
(-3.90462e-13 -1.96681e-13 4.63613e-08 -6.87312e-13 -3.88855e-08 1.07777e-12)
(-3.48854e-13 -2.61794e-13 6.93223e-08 -1.28029e-12 -4.24482e-08 1.62914e-12)
(-3.5733e-13 -1.94857e-13 9.86063e-08 -1.92013e-12 -4.10623e-08 2.27746e-12)
(-5.73155e-13 -3.26202e-13 1.2605e-07 -2.27239e-12 -3.05025e-08 2.84555e-12)
(-6.72645e-13 -8.20364e-13 1.42736e-07 -2.51272e-12 -1.1334e-08 3.18536e-12)
(-3.4109e-13 -1.33636e-12 1.42733e-07 -2.86444e-12 1.13341e-08 3.20553e-12)
(2.9087e-13 -1.42245e-12 1.26043e-07 -3.19466e-12 3.0501e-08 2.90379e-12)
(6.93994e-13 -8.89501e-13 9.85966e-08 -3.0469e-12 4.10585e-08 2.3529e-12)
(6.04478e-13 -2.39929e-13 6.93125e-08 -2.3154e-12 4.24423e-08 1.71092e-12)
(1.99375e-13 1.02951e-13 4.63527e-08 -1.34642e-12 3.88784e-08 1.14705e-12)
(-1.09341e-13 2.53969e-13 4.64356e-08 1.98356e-13 -3.8948e-08 -8.90149e-14)
(-5.84036e-13 1.69151e-13 6.94361e-08 6.66754e-13 -4.25181e-08 -8.27181e-14)
(-9.94606e-13 -8.55713e-14 9.87676e-08 1.04862e-12 -4.11295e-08 -5.40183e-14)
(-1.24555e-12 -5.09988e-13 1.26254e-07 1.25478e-12 -3.05517e-08 -9.22786e-15)
(-1.19567e-12 -9.23607e-13 1.42964e-07 1.15838e-12 -1.13521e-08 3.72887e-14)
(-8.75811e-13 -1.16859e-12 1.42961e-07 8.16574e-13 1.13522e-08 5.92368e-14)
(-4.10756e-13 -1.18933e-12 1.26244e-07 3.5688e-13 3.05497e-08 5.38767e-14)
(2.17327e-14 -9.69458e-13 9.87542e-08 -4.90937e-14 4.11243e-08 2.7361e-14)
(3.4207e-13 -6.60526e-13 6.94224e-08 -3.47039e-13 4.25099e-08 4.9691e-15)
(4.58818e-13 -3.45687e-13 4.64237e-08 -4.43589e-13 3.89382e-08 -1.52287e-14)
(-1.19725e-13 -6.20151e-14 4.63846e-08 -1.07179e-13 -3.89052e-08 2.26904e-13)
(-1.67778e-13 -1.31204e-13 6.93574e-08 -1.80408e-13 -4.24697e-08 3.48186e-13)
(-2.30179e-13 -2.4874e-13 9.86548e-08 -2.63277e-13 -4.10825e-08 4.93456e-13)
(-2.63907e-13 -4.45994e-13 1.2611e-07 -3.64218e-13 -3.05168e-08 6.28124e-13)
(-1.86141e-13 -7.20538e-13 1.42801e-07 -5.30783e-13 -1.13391e-08 7.16924e-13)
(5.97279e-14 -9.04494e-13 1.42797e-07 -7.96681e-13 1.13392e-08 7.36953e-13)
(3.80865e-13 -8.80674e-13 1.26097e-07 -1.06628e-12 3.05142e-08 6.85416e-13)
(5.58491e-13 -5.79668e-13 9.86378e-08 -1.12508e-12 4.10758e-08 5.66586e-13)
(5.63013e-13 -2.62383e-13 6.934e-08 -9.89208e-13 4.24594e-08 4.26195e-13)
(3.2866e-13 -1.309e-14 4.63695e-08 -6.20368e-13 3.88926e-08 2.91708e-13)
(-1.81135e-13 3.03901e-14 4.6406e-08 2.2462e-13 -3.89232e-08 -4.34847e-14)
(-3.0972e-13 -5.60192e-14 6.939e-08 3.64221e-13 -4.24897e-08 -5.45012e-14)
(-3.80312e-13 -1.87987e-13 9.87008e-08 4.41831e-13 -4.11016e-08 -6.15198e-14)
(-3.76019e-13 -3.31899e-13 1.26168e-07 4.36626e-13 -3.05308e-08 -6.06067e-14)
(-2.89952e-13 -4.18925e-13 1.42865e-07 3.39996e-13 -1.13441e-08 -5.0044e-14)
(-1.65913e-13 -4.24008e-13 1.4286e-07 2.02063e-13 1.13442e-08 -3.61493e-14)
(-4.42051e-14 -3.70095e-13 1.26153e-07 6.51997e-14 3.05277e-08 -2.09945e-14)
(3.53568e-14 -2.61647e-13 9.86807e-08 -2.32007e-14 4.10937e-08 -1.21561e-14)
(1.01175e-13 -1.73035e-13 6.93695e-08 -9.85344e-14 4.24775e-08 -2.6406e-15)
(7.94795e-14 -7.81987e-14 4.63883e-08 -7.77415e-14 3.89085e-08 -1.738e-15)
(-3.5742e-13 -8.3282e-14 4.63929e-08 2.73882e-13 -3.89121e-08 8.35381e-14)
(-3.24618e-13 -1.91474e-13 6.93699e-08 2.07407e-13 -4.24774e-08 1.17211e-13)
(-1.93891e-13 -2.2038e-13 9.86722e-08 3.80551e-14 -4.10897e-08 1.55836e-13)
(-7.44084e-14 -1.71299e-13 1.26131e-07 -1.11956e-13 -3.0522e-08 1.86364e-13)
(-2.60314e-15 -3.80837e-14 1.42824e-07 -2.0442e-13 -1.13408e-08 2.07023e-13)
(-1.75209e-14 9.77671e-14 1.42818e-07 -1.93614e-13 1.1341e-08 2.11135e-13)
(-9.87224e-14 1.89153e-13 1.26115e-07 -9.95548e-14 3.05186e-08 1.98277e-13)
(-1.99341e-13 2.04528e-13 9.86503e-08 3.08182e-14 4.10811e-08 1.68523e-13)
(-2.71533e-13 1.49868e-13 6.93477e-08 1.41892e-13 4.24642e-08 1.29641e-13)
(-2.95909e-13 6.49568e-14 4.63738e-08 2.0472e-13 3.88963e-08 9.11892e-14)
(-5.40204e-13 -8.5718e-14 4.63966e-08 4.83689e-13 -3.89153e-08 5.65149e-14)
(-5.01866e-13 -2.32734e-13 6.93762e-08 4.30148e-13 -4.24813e-08 7.17179e-14)
(-2.80576e-13 -2.19085e-13 9.86819e-08 1.91875e-13 -4.10938e-08 8.87017e-14)
(-9.9794e-14 -5.8158e-14 1.26144e-07 6.95387e-15 -3.05251e-08 9.28401e-14)
(-3.2008e-14 2.72745e-13 1.42839e-07 -6.1374e-14 -1.1342e-08 9.33821e-14)
(-1.63983e-13 5.60562e-13 1.42833e-07 7.83603e-14 1.13421e-08 8.56229e-14)
(-4.224e-13 6.90126e-13 1.26128e-07 3.50668e-13 3.05217e-08 7.17314e-14)
(-6.33314e-13 5.68549e-13 9.866e-08 5.7535e-13 4.10852e-08 5.79633e-14)
(-7.35028e-13 3.45151e-13 6.93543e-08 6.96333e-13 4.24682e-08 3.86953e-14)
(-6.23225e-13 8.94684e-14 4.63779e-08 5.9772e-13 3.88998e-08 2.55049e-14)
(-6.74732e-13 -1.26097e-13 4.63896e-08 5.52159e-13 -3.89094e-08 1.22573e-13)
(-5.91146e-13 -2.99466e-13 6.93662e-08 4.27879e-13 -4.24752e-08 1.63267e-13)
(-2.70177e-13 -2.32059e-13 9.86688e-08 6.14765e-14 -4.10883e-08 2.087e-13)
(-3.9453e-14 2.45654e-14 1.26128e-07 -1.89936e-13 -3.05214e-08 2.29389e-13)
(2.09767e-14 4.83769e-13 1.42822e-07 -2.5449e-13 -1.13407e-08 2.33514e-13)
(-1.84733e-13 8.53305e-13 1.42817e-07 -2.89108e-14 1.13408e-08 2.13644e-13)
(-5.47598e-13 1.00336e-12 1.26113e-07 3.7244e-13 3.05183e-08 1.75158e-13)
(-8.31983e-13 8.11073e-13 9.8649e-08 6.97409e-13 4.10806e-08 1.34573e-13)
(-9.84146e-13 5.03123e-13 6.93465e-08 8.98199e-13 4.24635e-08 8.5947e-14)
(-8.18016e-13 1.39896e-13 4.63729e-08 7.63552e-13 3.88955e-08 5.44639e-14)
(-6.80877e-13 -1.13453e-13 4.63858e-08 5.49979e-13 -3.89062e-08 1.30898e-13)
(-6.0482e-13 -2.81299e-13 6.93615e-08 4.30205e-13 -4.24723e-08 1.74616e-13)
(-2.71895e-13 -1.81704e-13 9.86634e-08 4.7898e-14 -4.10862e-08 2.23997e-13)
(-5.40331e-14 1.0262e-13 1.26123e-07 -1.89295e-13 -3.05201e-08 2.43328e-13)
(-1.51672e-14 5.9076e-13 1.42818e-07 -2.26755e-13 -1.13404e-08 2.41922e-13)
(-2.49171e-13 9.62059e-13 1.42813e-07 3.78057e-14 1.13405e-08 2.11365e-13)
(-6.31113e-13 1.09148e-12 1.26111e-07 4.70784e-13 3.05176e-08 1.60329e-13)
(-9.04138e-13 8.51509e-13 9.86475e-08 7.92001e-13 4.10799e-08 1.12137e-13)
(-1.03624e-12 5.14671e-13 6.93458e-08 9.76574e-13 4.2463e-08 5.96656e-14)
(-8.12077e-13 1.27108e-13 4.63727e-08 7.80521e-13 3.88954e-08 3.15558e-14)
(-5.50448e-13 -9.03268e-14 4.63788e-08 4.0424e-13 -3.89004e-08 1.46208e-13)
(-4.66276e-13 -2.07166e-13 6.93519e-08 2.69207e-13 -4.24665e-08 1.97069e-13)
(-1.6656e-13 -6.56329e-14 9.86512e-08 -8.70863e-14 -4.10812e-08 2.53647e-13)
(-7.46163e-15 2.18794e-13 1.26109e-07 -2.69713e-13 -3.05169e-08 2.77175e-13)
(-1.71413e-14 6.47071e-13 1.42804e-07 -2.5665e-13 -1.13394e-08 2.73792e-13)
(-2.50549e-13 9.33152e-13 1.42801e-07 1.52632e-14 1.13395e-08 2.35286e-13)
(-5.81559e-13 9.9551e-13 1.26101e-07 4.08587e-13 3.05152e-08 1.72972e-13)
(-7.89299e-13 7.43479e-13 9.86408e-08 6.75343e-13 4.10771e-08 1.13956e-13)
(-8.75476e-13 4.38358e-13 6.93418e-08 8.20708e-13 4.24605e-08 5.47682e-14)
(-6.44427e-13 1.00711e-13 4.63705e-08 6.20153e-13 3.88935e-08 2.42745e-14)
(-3.45966e-13 -4.85486e-14 4.6373e-08 2.1094e-13 -3.88955e-08 1.35026e-13)
(-2.58621e-13 -9.02787e-14 6.9344e-08 7.72238e-14 -4.24618e-08 1.81397e-13)
(-3.25961e-14 8.51528e-14 9.86416e-08 -1.97968e-13 -4.10773e-08 2.30564e-13)
(4.08545e-14 3.43029e-13 1.26099e-07 -2.89263e-13 -3.05144e-08 2.48409e-13)
(-2.72981e-14 6.59561e-13 1.42794e-07 -2.11341e-13 -1.13387e-08 2.38639e-13)
(-2.41273e-13 8.19693e-13 1.42792e-07 4.52872e-14 1.13387e-08 1.95986e-13)
(-4.85634e-13 7.96159e-13 1.26096e-07 3.52433e-13 3.05138e-08 1.33201e-13)
(-6.01657e-13 5.51761e-13 9.86377e-08 5.25122e-13 4.10757e-08 7.65351e-14)
(-6.22993e-13 3.05871e-13 6.93406e-08 5.977e-13 4.24597e-08 2.52929e-14)
(-4.08025e-13 5.71953e-14 4.63704e-08 4.06174e-13 3.88934e-08 1.85108e-15)
(-1.83529e-13 -2.00332e-14 4.6367e-08 6.13721e-14 -3.88905e-08 1.22156e-13)
(-9.24359e-14 -5.54035e-15 6.9336e-08 -7.06237e-14 -4.24569e-08 1.6306e-13)
(6.44176e-14 1.76194e-13 9.86315e-08 -2.67417e-13 -4.10732e-08 2.02999e-13)
(7.39526e-14 3.89589e-13 1.26088e-07 -2.88961e-13 -3.05119e-08 2.15008e-13)
(-2.57928e-14 5.91301e-13 1.42783e-07 -1.74899e-13 -1.1338e-08 2.00691e-13)
(-1.998e-13 6.4397e-13 1.42784e-07 4.1235e-14 1.13379e-08 1.58565e-13)
(-3.55547e-13 5.66617e-13 1.2609e-07 2.54238e-13 3.05123e-08 1.01308e-13)
(-4.00105e-13 3.61928e-13 9.86346e-08 3.48652e-13 4.10744e-08 5.14525e-14)
(-3.85299e-13 1.88987e-13 6.93395e-08 3.75289e-13 4.2459e-08 1.00105e-14)
(-2.16808e-13 2.77576e-14 4.63704e-08 2.2477e-13 3.88933e-08 -7.96128e-15)
(-1.54356e-13 -1.43034e-14 4.63621e-08 4.93384e-14 -3.88864e-08 1.05017e-13)
(-8.22253e-14 -2.06079e-15 6.93294e-08 -5.69624e-14 -4.24529e-08 1.39188e-13)
(3.0914e-14 1.3281e-13 9.86236e-08 -2.00841e-13 -4.10699e-08 1.69927e-13)
(2.93913e-14 2.75593e-13 1.26079e-07 -2.06031e-13 -3.05099e-08 1.7664e-13)
(-4.17819e-14 3.94811e-13 1.42776e-07 -1.19291e-13 -1.13374e-08 1.61073e-13)
(-1.48256e-13 4.07329e-13 1.42778e-07 2.39652e-14 1.13374e-08 1.24291e-13)
(-2.3385e-13 3.49147e-13 1.26086e-07 1.56285e-13 3.05114e-08 7.75652e-14)
(-2.50631e-13 2.2001e-13 9.86332e-08 2.12142e-13 4.10737e-08 3.84892e-14)
(-2.4706e-13 1.20954e-13 6.93394e-08 2.39889e-13 4.24589e-08 7.17069e-15)
(-1.38886e-13 1.79134e-14 4.6371e-08 1.45539e-13 3.88937e-08 -6.65269e-15)
(-2.49785e-13 -3.17015e-14 4.63576e-08 1.57855e-13 -3.88827e-08 9.19295e-14)
(-2.19342e-13 -7.79197e-14 6.93235e-08 9.67034e-14 -4.24494e-08 1.22638e-13)
(-1.17062e-13 -3.01446e-14 9.86165e-08 -3.38494e-14 -4.1067e-08 1.50912e-13)
(-7.89599e-14 3.0486e-14 1.26072e-07 -7.92479e-14 -3.05082e-08 1.58208e-13)
(-7.05842e-14 1.1489e-13 1.42769e-07 -7.71467e-14 -1.1337e-08 1.47731e-13)
(-9.68179e-14 1.59848e-13 1.42773e-07 -2.32768e-14 1.13369e-08 1.20095e-13)
(-1.43802e-13 1.8797e-13 1.26083e-07 5.97555e-14 3.05105e-08 8.4046e-14)
(-1.79169e-13 1.53403e-13 9.86314e-08 1.25866e-13 4.10729e-08 5.33025e-14)
(-2.31274e-13 1.15746e-13 6.93388e-08 2.05611e-13 4.24585e-08 2.56626e-14)
(-1.81718e-13 2.99393e-14 4.6371e-08 1.7118e-13 3.88937e-08 1.05385e-14)
(-3.49737e-13 -4.92675e-14 4.63538e-08 2.69255e-13 -3.88795e-08 8.04823e-14)
(-3.63408e-13 -1.56529e-13 6.93183e-08 2.53558e-13 -4.24463e-08 1.0985e-13)
(-2.57006e-13 -1.80921e-13 9.86102e-08 1.16319e-13 -4.10645e-08 1.40687e-13)
(-1.73684e-13 -1.75005e-13 1.26065e-07 2.03427e-14 -3.05066e-08 1.53341e-13)
(-9.51046e-14 -8.1748e-14 1.42762e-07 -5.72067e-14 -1.13365e-08 1.52311e-13)
(-7.38091e-14 2.79273e-14 1.42767e-07 -6.14313e-14 1.13364e-08 1.3524e-13)
(-1.25744e-13 1.4864e-13 1.26079e-07 1.81515e-14 3.05095e-08 1.07592e-13)
(-2.06649e-13 1.76904e-13 9.86289e-08 1.25311e-13 4.10718e-08 8.13381e-14)
(-3.23049e-13 1.61805e-13 6.93373e-08 2.71346e-13 4.24575e-08 5.17026e-14)
(-3.02724e-13 5.26404e-14 4.63702e-08 2.70541e-13 3.8893e-08 3.21822e-14)
(-2.92419e-13 -4.00729e-14 4.63504e-08 2.23321e-13 -3.88767e-08 6.90982e-14)
(-3.14651e-13 -1.35408e-13 6.93136e-08 2.17089e-13 -4.24434e-08 9.75611e-14)
(-2.15418e-13 -1.46555e-13 9.86041e-08 8.3775e-14 -4.1062e-08 1.31643e-13)
(-1.39457e-13 -1.17702e-13 1.26058e-07 -1.18769e-14 -3.0505e-08 1.51334e-13)
(-7.92668e-14 1.24499e-14 1.42755e-07 -8.0631e-14 -1.1336e-08 1.59898e-13)
(-9.7868e-14 1.58319e-13 1.42761e-07 -5.4111e-14 1.13359e-08 1.51979e-13)
(-2.07495e-13 2.96392e-13 1.26074e-07 7.8351e-14 3.05082e-08 1.29144e-13)
(-3.3545e-13 2.98129e-13 9.86249e-08 2.31542e-13 4.10702e-08 1.03908e-13)
(-4.82895e-13 2.40471e-13 6.93346e-08 4.13252e-13 4.24558e-08 6.96429e-14)
(-4.4117e-13 7.49424e-14 4.63684e-08 3.95245e-13 3.88915e-08 4.59244e-14)
(1.01438e-14 1.08685e-14 4.63475e-08 -6.35262e-14 -3.88743e-08 5.33824e-14)
(3.92068e-14 4.34836e-14 6.93095e-08 -1.17456e-13 -4.24409e-08 7.82495e-14)
(9.8816e-14 1.62281e-13 9.85986e-08 -2.0851e-13 -4.10598e-08 1.09694e-13)
(8.2029e-14 3.08761e-13 1.26052e-07 -2.14819e-13 -3.05035e-08 1.3279e-13)
(-3.91849e-15 4.77711e-13 1.42748e-07 -1.41953e-13 -1.13355e-08 1.45872e-13)
(-1.66763e-13 5.85386e-13 1.42754e-07 2.30665e-14 1.13353e-08 1.43697e-13)
(-3.74952e-13 6.18243e-13 1.26068e-07 2.51356e-13 3.05068e-08 1.23596e-13)
(-5.27565e-13 4.85174e-13 9.86205e-08 4.27925e-13 4.10683e-08 9.96403e-14)
(-6.46545e-13 3.20507e-13 6.93314e-08 5.82489e-13 4.24539e-08 6.4056e-14)
(-5.33424e-13 8.60614e-14 4.63664e-08 4.92457e-13 3.88898e-08 4.09671e-14)
(5.02978e-13 9.38165e-14 4.63455e-08 -5.32085e-13 -3.88725e-08 2.91063e-14)
(6.25877e-13 3.41614e-13 6.93064e-08 -6.71439e-13 -4.2439e-08 4.5562e-14)
(6.03525e-13 6.57461e-13 9.85943e-08 -6.68528e-13 -4.1058e-08 6.50028e-14)
(4.27267e-13 9.64017e-13 1.26046e-07 -5.12212e-13 -3.05022e-08 8.49452e-14)
(1.11788e-13 1.13388e-12 1.42742e-07 -2.07327e-13 -1.13351e-08 9.55385e-14)
(-2.41379e-13 1.12229e-12 1.42749e-07 1.45287e-13 1.13349e-08 9.60927e-14)
(-5.38628e-13 9.55273e-13 1.26063e-07 4.58884e-13 3.05056e-08 7.97435e-14)
(-6.73509e-13 6.35637e-13 9.86168e-08 6.1235e-13 4.10668e-08 6.11597e-14)
(-7.09554e-13 3.51608e-13 6.9329e-08 6.77517e-13 4.24525e-08 3.20371e-14)
(-5.10636e-13 7.69168e-14 4.6365e-08 4.94108e-13 3.88886e-08 1.65288e-14)
(1.00975e-12 1.79554e-13 4.63446e-08 -9.99482e-13 -3.88718e-08 -1.02678e-14)
(1.20574e-12 6.34453e-13 6.93051e-08 -1.19734e-12 -4.24382e-08 -8.40396e-15)
(1.05745e-12 1.09161e-12 9.85923e-08 -1.04752e-12 -4.10571e-08 -9.93928e-15)
(7.15402e-13 1.4791e-12 1.26044e-07 -7.16018e-13 -3.05015e-08 6.16346e-16)
(2.0731e-13 1.55529e-12 1.42739e-07 -2.11577e-13 -1.13348e-08 4.26686e-15)
(-2.52622e-13 1.36826e-12 1.42746e-07 2.44874e-13 1.13346e-08 7.7481e-15)
(-5.38946e-13 1.00171e-12 1.26061e-07 5.38265e-13 3.0505e-08 6.81071e-16)
(-5.91915e-13 5.70684e-13 9.86154e-08 5.97211e-13 4.10662e-08 -5.29627e-15)
(-5.19095e-13 2.57168e-13 6.93285e-08 5.36813e-13 4.24521e-08 -1.7718e-14)
(-2.86435e-13 3.60081e-14 4.63649e-08 3.05478e-13 3.88886e-08 -1.90428e-14)
(1.33155e-12 2.3563e-13 4.63458e-08 -1.25848e-12 -3.88728e-08 -7.30783e-14)
(1.49624e-12 7.74973e-13 6.93066e-08 -1.40382e-12 -4.24391e-08 -9.24152e-14)
(1.17782e-12 1.17651e-12 9.85939e-08 -1.05763e-12 -4.10577e-08 -1.20188e-13)
(7.32176e-13 1.42418e-12 1.26045e-07 -6.10433e-13 -3.05018e-08 -1.21743e-13)
(2.07565e-13 1.25221e-12 1.42741e-07 -8.44455e-14 -1.13349e-08 -1.23119e-13)
(-1.28512e-13 8.68646e-13 1.42747e-07 2.3967e-13 1.13348e-08 -1.11158e-13)
(-2.04678e-13 4.1742e-13 1.26062e-07 3.0341e-13 3.05054e-08 -9.87324e-14)
(-9.00255e-14 9.49817e-14 9.86171e-08 1.73347e-13 4.10669e-08 -8.33213e-14)
(8.22008e-14 -4.35891e-14 6.93302e-08 -1.33413e-14 4.24531e-08 -6.88594e-14)
(2.2394e-13 -4.83278e-14 4.63664e-08 -1.71686e-13 3.88898e-08 -5.22537e-14)
(1.35113e-12 2.42495e-13 4.63502e-08 -1.18697e-12 -3.88765e-08 -1.64159e-13)
(1.32988e-12 6.75063e-13 6.93124e-08 -1.11844e-12 -4.24426e-08 -2.11436e-13)
(8.04403e-13 7.4839e-13 9.86009e-08 -5.37297e-13 -4.10606e-08 -2.67106e-13)
(3.56908e-13 5.58644e-13 1.26053e-07 -7.69291e-14 -3.05035e-08 -2.79978e-13)
(6.9677e-14 -4.09339e-14 1.42748e-07 2.0874e-13 -1.13354e-08 -2.78417e-13)
(1.65357e-13 -6.15603e-13 1.42754e-07 8.23102e-14 1.13354e-08 -2.47667e-13)
(5.46251e-13 -9.69289e-13 1.26068e-07 -3.44166e-13 3.05069e-08 -2.02085e-13)
(9.19328e-13 -8.84405e-13 9.8622e-08 -7.63092e-13 4.10689e-08 -1.56236e-13)
(1.15926e-12 -5.86256e-13 6.9334e-08 -1.05343e-12 4.24555e-08 -1.05827e-13)
(1.04416e-12 -1.79203e-13 4.63692e-08 -9.73747e-13 3.88921e-08 -7.04174e-14)
(1.08129e-12 2.00121e-13 4.63592e-08 -8.05889e-13 -3.88839e-08 -2.75399e-13)
(7.47855e-13 3.54306e-13 6.93242e-08 -3.92254e-13 -4.24497e-08 -3.55601e-13)
(1.07431e-14 -1.18027e-13 9.86149e-08 4.27465e-13 -4.10662e-08 -4.38208e-13)
(-3.40387e-13 -9.73536e-13 1.26068e-07 8.00615e-13 -3.0507e-08 -4.60228e-13)
(-1.78478e-13 -2.11507e-12 1.42763e-07 6.24705e-13 -1.13364e-08 -4.46226e-13)
(5.85326e-13 -2.84929e-12 1.42767e-07 -1.99414e-13 1.13365e-08 -3.85912e-13)
(1.59773e-12 -2.9439e-12 1.26079e-07 -1.30308e-12 3.05094e-08 -2.94649e-13)
(2.27895e-12 -2.2168e-12 9.86296e-08 -2.06745e-12 4.10721e-08 -2.11507e-13)
(2.5489e-12 -1.29052e-12 6.93391e-08 -2.42946e-12 4.24586e-08 -1.19442e-13)
(2.04227e-12 -3.35741e-13 4.63722e-08 -1.97508e-12 3.88947e-08 -6.71884e-14)
(6.3309e-13 1.22569e-13 4.63732e-08 -2.54784e-13 -3.88957e-08 -3.78307e-13)
(-1.90316e-14 -6.83557e-14 6.93425e-08 5.09459e-13 -4.24607e-08 -4.90427e-13)
(-8.97645e-13 -1.10806e-12 9.86367e-08 1.49415e-12 -4.10751e-08 -5.9651e-13)
(-1.0906e-12 -2.62208e-12 1.26091e-07 1.71763e-12 -3.05124e-08 -6.27026e-13)
(-4.31586e-13 -4.23781e-12 1.42785e-07 1.02794e-12 -1.1338e-08 -5.96355e-13)
(9.99846e-13 -5.05629e-12 1.42785e-07 -4.97263e-13 1.13381e-08 -5.02583e-13)
(2.60198e-12 -4.83553e-12 1.26093e-07 -2.23997e-12 3.05129e-08 -3.62011e-13)
(3.53787e-12 -3.45539e-12 9.86388e-08 -3.29672e-12 4.1076e-08 -2.41152e-13)
(3.80209e-12 -1.92869e-12 6.93443e-08 -3.69274e-12 4.24618e-08 -1.0935e-13)
(2.8908e-12 -4.66385e-13 4.63747e-08 -2.84573e-12 3.88969e-08 -4.50734e-14)
(1.5213e-13 2.97986e-14 4.63913e-08 2.76438e-13 -3.89108e-08 -4.28568e-13)
(-6.6144e-13 -4.29334e-13 6.93661e-08 1.22254e-12 -4.24749e-08 -5.61097e-13)
(-1.51434e-12 -1.79559e-12 9.86647e-08 2.19646e-12 -4.10865e-08 -6.82116e-13)
(-1.53281e-12 -3.63617e-12 1.2612e-07 2.25479e-12 -3.05193e-08 -7.21979e-13)
(-5.49145e-13 -5.40384e-12 1.42812e-07 1.22932e-12 -1.13399e-08 -6.80176e-13)
(1.22604e-12 -6.16402e-12 1.42808e-07 -6.63319e-13 1.13401e-08 -5.62718e-13)
(3.0775e-12 -5.71156e-12 1.26109e-07 -2.69104e-12 3.0517e-08 -3.86459e-13)
(4.07378e-12 -3.97975e-12 9.86485e-08 -3.83454e-12 4.10802e-08 -2.39237e-13)
(4.29808e-12 -2.18323e-12 6.93487e-08 -4.21602e-12 4.24647e-08 -8.20529e-14)
(3.14928e-12 -5.01278e-13 4.63758e-08 -3.13555e-12 3.8898e-08 -1.3727e-14)
(-2.4271e-13 -5.92007e-14 4.64103e-08 6.26888e-13 -3.89266e-08 -3.84178e-13)
(-9.30962e-13 -5.91891e-13 6.9391e-08 1.4444e-12 -4.249e-08 -5.13436e-13)
(-1.51788e-12 -1.83267e-12 9.86948e-08 2.15065e-12 -4.10987e-08 -6.32767e-13)
(-1.38208e-12 -3.40142e-12 1.26152e-07 2.06363e-12 -3.05268e-08 -6.81542e-13)
(-4.24383e-13 -4.78692e-12 1.42842e-07 1.06772e-12 -1.13421e-08 -6.43334e-13)
(1.10701e-12 -5.28557e-12 1.42832e-07 -5.79915e-13 1.13422e-08 -5.27098e-13)
(2.62078e-12 -4.79429e-12 1.26125e-07 -2.27208e-12 3.05212e-08 -3.48701e-13)
(3.36802e-12 -3.27198e-12 9.86574e-08 -3.16773e-12 4.10841e-08 -2.00291e-13)
(3.51416e-12 -1.78495e-12 6.93518e-08 -3.46809e-12 4.24667e-08 -4.60669e-14)
(2.45742e-12 -3.8327e-13 4.63756e-08 -2.4728e-12 3.88979e-08 1.53882e-14)
(-4.76395e-13 -1.26356e-13 4.64254e-08 7.0646e-13 -3.89392e-08 -2.30065e-13)
(-7.35242e-13 -4.97036e-13 6.94113e-08 1.05934e-12 -4.25023e-08 -3.24095e-13)
(-8.24978e-13 -1.11146e-12 9.872e-08 1.24217e-12 -4.11091e-08 -4.17191e-13)
(-5.80771e-13 -1.75462e-12 1.2618e-07 1.04994e-12 -3.05333e-08 -4.69171e-13)
(-4.84355e-14 -2.18732e-12 1.42868e-07 4.99951e-13 -1.13439e-08 -4.51515e-13)
(5.93577e-13 -2.21585e-12 1.42853e-07 -2.24139e-13 1.13441e-08 -3.69439e-13)
(1.13163e-12 -1.90421e-12 1.26139e-07 -8.96346e-13 3.05247e-08 -2.35287e-13)
(1.30375e-12 -1.21726e-12 9.86641e-08 -1.1832e-12 4.1087e-08 -1.20544e-13)
(1.32839e-12 -6.69444e-13 6.93533e-08 -1.32115e-12 4.24678e-08 -7.24002e-15)
(7.53151e-13 -1.03357e-13 4.63743e-08 -7.87494e-13 3.8897e-08 3.43428e-14)
(-5.09266e-13 -1.54765e-13 4.64319e-08 5.031e-13 -3.89447e-08 6.16566e-15)
(-1.49137e-13 -1.75062e-13 6.94209e-08 1.72319e-13 -4.25082e-08 -2.31821e-14)
(3.71985e-13 1.84526e-13 9.87331e-08 -3.08168e-13 -4.11145e-08 -6.38172e-14)
(6.57744e-13 9.01854e-13 1.26196e-07 -5.51107e-13 -3.0537e-08 -1.06636e-13)
(4.73397e-13 1.78337e-12 1.42884e-07 -3.53746e-13 -1.1345e-08 -1.19651e-13)
(-2.10937e-13 2.3444e-12 1.42866e-07 3.10272e-13 1.13452e-08 -9.9335e-14)
(-1.07108e-12 2.32183e-12 1.26147e-07 1.12336e-12 3.05267e-08 -5.22753e-14)
(-1.67877e-12 1.74129e-12 9.86671e-08 1.68314e-12 4.10884e-08 -4.3694e-15)
(-1.81286e-12 9.35808e-13 6.93531e-08 1.78074e-12 4.24678e-08 3.21135e-14)
(-1.61254e-12 2.80752e-13 4.63726e-08 1.57031e-12 3.88956e-08 4.22308e-14)
(-3.29807e-13 -1.31451e-13 4.64272e-08 7.20776e-14 -3.89408e-08 2.57729e-13)
(6.30884e-13 2.73419e-13 6.94161e-08 -9.38398e-13 -4.25053e-08 3.07514e-13)
(1.67876e-12 1.64586e-12 9.87293e-08 -2.01498e-12 -4.11131e-08 3.3622e-13)
(1.92162e-12 3.72464e-12 1.26194e-07 -2.23954e-12 -3.05366e-08 3.17925e-13)
(9.57111e-13 5.86984e-12 1.42883e-07 -1.23381e-12 -1.1345e-08 2.76696e-13)
(-1.07041e-12 6.96081e-12 1.42865e-07 8.44808e-13 1.13452e-08 2.25602e-13)
(-3.31379e-12 6.56705e-12 1.26145e-07 3.14937e-12 3.05265e-08 1.64421e-13)
(-4.66325e-12 4.68651e-12 9.86653e-08 4.536e-12 4.10877e-08 1.27258e-13)
(-4.9566e-12 2.54203e-12 6.9351e-08 4.88851e-12 4.24666e-08 6.80909e-14)
(-3.91725e-12 6.51154e-13 4.63709e-08 3.87522e-12 3.88942e-08 4.20322e-14)
(2.82676e-14 -5.60914e-14 4.64121e-08 -4.70395e-13 -3.89281e-08 4.42127e-13)
(1.35348e-12 7.08994e-13 6.93973e-08 -1.91461e-12 -4.2494e-08 5.61133e-13)
(2.64224e-12 2.77997e-12 9.87086e-08 -3.29801e-12 -4.11047e-08 6.55772e-13)
(2.7535e-12 5.7287e-12 1.26173e-07 -3.42565e-12 -3.05319e-08 6.72144e-13)
(1.21237e-12 8.61512e-12 1.42865e-07 -1.82859e-12 -1.13437e-08 6.16224e-13)
(-1.69065e-12 9.96359e-12 1.42851e-07 1.18332e-12 1.1344e-08 5.0733e-13)
(-4.79094e-12 9.28175e-12 1.26135e-07 4.44089e-12 3.05239e-08 3.50045e-13)
(-6.55766e-12 6.53166e-12 9.86585e-08 6.32326e-12 4.10849e-08 2.34395e-13)
(-6.9454e-12 3.55529e-12 6.93474e-08 6.85612e-12 4.24643e-08 8.92797e-14)
(-5.29123e-12 8.657e-13 4.63695e-08 5.25836e-12 3.8893e-08 3.28749e-14)
(4.80498e-13 5.50753e-14 4.63907e-08 -9.71547e-13 -3.89104e-08 4.91049e-13)
(1.78509e-12 9.93386e-13 6.93699e-08 -2.42851e-12 -4.24775e-08 6.43413e-13)