/*--------------------------------*- C++ -*----------------------------------*\
| =========                 |                                                 |
| \\      /  F ield         | OpenFOAM: The Open Source CFD Toolbox           |
|  \\    /   O peration     | Version:  2406                                  |
|   \\  /    A nd           | Website:  www.openfoam.com                      |
|    \\/     M anipulation  |                                                 |
\*---------------------------------------------------------------------------*/
FoamFile
{
    version     2.0;
    format      ascii;
    arch        "LSB;label=32;scalar=64";
    class       volSymmTensorField;
    location    "1.6";
    object      turbulenceProperties:devReff;
}
// * * * * * * * * * * * * * * * * * * * * * * * * * * * * * * * * * * * * * //

dimensions      [0 2 -2 0 0 0 0];

internalField   nonuniform List<symmTensor> 
25000
(
(0.0299563 -0.0224532 -0.0712219 0.0299563 -0.0712219 -0.0599127)
(0.0517356 -0.0117214 -0.0452861 0.0323427 -0.0646243 -0.0840783)
(0.059272 -0.00643009 -0.0276441 0.0382213 -0.0555026 -0.0974933)
(0.0629758 -0.00293756 -0.0148553 0.0419236 -0.0491107 -0.104899)
(0.0645707 -0.000869117 -0.00466899 0.0437114 -0.0459722 -0.108282)
(0.0645707 0.000869122 0.00466895 0.0437114 -0.0459722 -0.108282)
(0.0629759 0.00293756 0.0148552 0.0419236 -0.0491107 -0.104899)
(0.059272 0.00643009 0.0276441 0.0382213 -0.0555026 -0.0974933)
(0.0517357 0.0117214 0.0452861 0.0323427 -0.0646243 -0.0840783)
(0.0299563 0.0224532 0.0712219 0.0299563 -0.0712219 -0.0599127)
(0.0323427 -0.0117214 -0.0646243 0.0517356 -0.0452861 -0.0840783)
(0.0533624 -0.00548257 -0.036388 0.0533624 -0.036388 -0.106725)
(0.0599938 -0.00298884 -0.0199666 0.0562603 -0.0302356 -0.116254)
(0.0628635 -0.00133092 -0.0100323 0.0578618 -0.0263915 -0.120725)
(0.0639856 -0.000367781 -0.00305292 0.0585799 -0.0245581 -0.122566)
(0.0639856 0.000367784 0.00305289 0.0585799 -0.0245581 -0.122566)
(0.0628635 0.00133092 0.0100323 0.0578618 -0.0263915 -0.120725)
(0.0599938 0.00298884 0.0199665 0.0562603 -0.0302356 -0.116254)
(0.0533624 0.00548257 0.036388 0.0533624 -0.036388 -0.106725)
(0.0323427 0.0117214 0.0646243 0.0517356 -0.0452861 -0.0840783)
(0.0382213 -0.00643009 -0.0555026 0.059272 -0.0276441 -0.0974933)
(0.0562603 -0.00298884 -0.0302356 0.0599938 -0.0199665 -0.116254)
(0.0618153 -0.0015802 -0.0158052 0.0618153 -0.0158052 -0.123631)
(0.0638589 -0.000657377 -0.00756056 0.0628412 -0.0135042 -0.1267)
(0.0645098 -0.000165326 -0.00223428 0.0632817 -0.0124685 -0.127791)
(0.0645098 0.000165327 0.00223425 0.0632817 -0.0124685 -0.127791)
(0.0638589 0.000657378 0.00756053 0.0628412 -0.0135042 -0.1267)
(0.0618153 0.0015802 0.0158052 0.0618153 -0.0158052 -0.123631)
(0.0562603 0.00298884 0.0302356 0.0599938 -0.0199665 -0.116254)
(0.0382213 0.00643009 0.0555026 0.059272 -0.0276441 -0.0974933)
(0.0419235 -0.00293756 -0.0491107 0.0629759 -0.0148552 -0.104899)
(0.0578618 -0.00133092 -0.0263915 0.0628635 -0.0100323 -0.120725)
(0.0628412 -0.000657377 -0.0135042 0.0638589 -0.00756053 -0.1267)
(0.0644339 -0.000235842 -0.00630025 0.0644339 -0.00630022 -0.128868)
(0.0648108 -4.81909e-05 -0.00183226 0.0646731 -0.00576758 -0.129484)
(0.0648108 4.81917e-05 0.00183223 0.0646731 -0.00576758 -0.129484)
(0.0644339 0.000235843 0.00630022 0.0644339 -0.00630022 -0.128868)
(0.0628412 0.000657378 0.0135042 0.0638589 -0.00756053 -0.1267)
(0.0578618 0.00133092 0.0263915 0.0628635 -0.0100323 -0.120725)
(0.0419236 0.00293756 0.0491107 0.0629759 -0.0148552 -0.104899)
(0.0437114 -0.000869119 -0.0459723 0.0645707 -0.00466896 -0.108282)
(0.0585799 -0.000367782 -0.0245581 0.0639856 -0.00305289 -0.122566)
(0.0632817 -0.000165326 -0.0124685 0.0645098 -0.00223426 -0.127791)
(0.0646731 -4.81912e-05 -0.0057676 0.0648108 -0.00183223 -0.129484)
(0.0649272 -6.30782e-06 -0.0016686 0.0649272 -0.00166858 -0.129854)
(0.0649272 6.30804e-06 0.00166857 0.0649272 -0.00166858 -0.129854)
(0.0646731 4.81914e-05 0.00576758 0.0648108 -0.00183223 -0.129484)
(0.0632817 0.000165326 0.0124684 0.0645098 -0.00223426 -0.127791)
(0.0585799 0.000367782 0.0245581 0.0639856 -0.00305289 -0.122566)
(0.0437114 0.000869119 0.0459722 0.0645707 -0.00466896 -0.108282)
(0.0437114 0.000869121 -0.0459723 0.0645707 0.00466898 -0.108282)
(0.0585799 0.000367783 -0.0245581 0.0639856 0.00305291 -0.122566)
(0.0632817 0.000165327 -0.0124685 0.0645098 0.00223427 -0.127791)
(0.0646731 4.81912e-05 -0.0057676 0.0648108 0.00183225 -0.129484)
(0.0649272 6.30769e-06 -0.0016686 0.0649272 0.0016686 -0.129854)
(0.0649272 -6.30814e-06 0.00166857 0.0649272 0.0016686 -0.129854)
(0.0646731 -4.81915e-05 0.00576758 0.0648108 0.00183225 -0.129484)
(0.0632817 -0.000165326 0.0124684 0.0645098 0.00223427 -0.127791)
(0.0585799 -0.000367782 0.0245581 0.0639856 0.00305291 -0.122566)
(0.0437114 -0.00086912 0.0459722 0.0645707 0.00466898 -0.108282)
(0.0419235 0.00293756 -0.0491107 0.0629758 0.0148553 -0.104899)
(0.0578618 0.00133092 -0.0263915 0.0628635 0.0100323 -0.120725)
(0.0628412 0.000657378 -0.0135042 0.0638589 0.00756055 -0.1267)
(0.0644339 0.000235842 -0.00630025 0.0644339 0.00630024 -0.128868)
(0.0648108 4.81907e-05 -0.00183226 0.0646731 0.0057676 -0.129484)
(0.0648108 -4.81919e-05 0.00183223 0.0646731 0.0057676 -0.129484)
(0.0644339 -0.000235843 0.00630022 0.0644339 0.00630024 -0.128868)
(0.0628412 -0.000657378 0.0135042 0.0638589 0.00756055 -0.1267)
(0.0578618 -0.00133092 0.0263915 0.0628635 0.0100323 -0.120725)
(0.0419236 -0.00293756 0.0491107 0.0629759 0.0148553 -0.104899)
(0.0382213 0.0064301 -0.0555026 0.059272 0.0276441 -0.0974933)
(0.0562603 0.00298884 -0.0302356 0.0599938 0.0199666 -0.116254)
(0.0618153 0.0015802 -0.0158052 0.0618153 0.0158052 -0.123631)
(0.0638589 0.000657377 -0.00756056 0.0628412 0.0135042 -0.1267)
(0.0645098 0.000165325 -0.00223428 0.0632817 0.0124685 -0.127791)
(0.0645098 -0.000165327 0.00223425 0.0632817 0.0124685 -0.127791)
(0.0638589 -0.000657378 0.00756053 0.0628412 0.0135042 -0.1267)
(0.0618153 -0.0015802 0.0158052 0.0618153 0.0158052 -0.123631)
(0.0562603 -0.00298884 0.0302356 0.0599938 0.0199666 -0.116254)
(0.0382213 -0.00643009 0.0555026 0.059272 0.0276441 -0.0974933)
(0.0323427 0.0117214 -0.0646243 0.0517356 0.0452861 -0.0840783)
(0.0533624 0.00548257 -0.036388 0.0533624 0.036388 -0.106725)
(0.0599938 0.00298884 -0.0199666 0.0562603 0.0302356 -0.116254)
(0.0628635 0.00133092 -0.0100323 0.0578618 0.0263915 -0.120725)
(0.0639856 0.000367781 -0.00305292 0.0585799 0.0245581 -0.122566)
(0.0639856 -0.000367784 0.00305289 0.0585799 0.0245581 -0.122566)
(0.0628635 -0.00133092 0.0100323 0.0578618 0.0263915 -0.120725)
(0.0599938 -0.00298884 0.0199665 0.0562603 0.0302356 -0.116254)
(0.0533624 -0.00548257 0.036388 0.0533624 0.036388 -0.106725)
(0.0323427 -0.0117214 0.0646243 0.0517356 0.0452861 -0.0840783)
(0.0299563 0.0224532 -0.0712219 0.0299563 0.0712219 -0.0599126)
(0.0517356 0.0117214 -0.0452861 0.0323427 0.0646243 -0.0840783)
(0.059272 0.00643009 -0.0276441 0.0382213 0.0555026 -0.0974933)
(0.0629758 0.00293756 -0.0148553 0.0419235 0.0491107 -0.104899)
(0.0645707 0.000869118 -0.00466899 0.0437114 0.0459723 -0.108282)
(0.0645707 -0.000869122 0.00466895 0.0437114 0.0459723 -0.108282)
(0.0629759 -0.00293756 0.0148552 0.0419235 0.0491107 -0.104899)
(0.059272 -0.0064301 0.0276441 0.0382213 0.0555026 -0.0974933)
(0.0517356 -0.0117214 0.0452861 0.0323427 0.0646243 -0.0840783)
(0.0299563 -0.0224532 0.0712219 0.0299563 0.0712219 -0.0599127)
(-0.000346232 -0.0176335 -0.109334 -0.000346206 -0.109334 0.000692437)
(0.0130362 -0.0158517 -0.0753242 0.000864814 -0.107229 -0.013901)
(0.0225321 -0.0121473 -0.0477167 0.0029313 -0.0951952 -0.0254634)
(0.029799 -0.00758706 -0.0260272 0.00446532 -0.0852128 -0.0342643)
(0.0334956 -0.00254408 -0.00822174 0.00529112 -0.0798892 -0.0387867)
(0.0334956 0.00254409 0.00822164 0.00529113 -0.0798892 -0.0387868)
(0.029799 0.00758707 0.0260271 0.00446534 -0.0852128 -0.0342643)
(0.0225321 0.0121473 0.0477166 0.00293134 -0.0951952 -0.0254634)
(0.0130363 0.0158517 0.0753241 0.000864864 -0.107229 -0.0139012)
(-0.000346145 0.0176335 0.109334 -0.000346154 -0.109334 0.000692299)
(0.000864791 -0.0158517 -0.107229 0.0130362 -0.0753241 -0.013901)
(0.0167974 -0.0142716 -0.0636985 0.0167974 -0.0636985 -0.0335948)
(0.0286922 -0.0106815 -0.0347538 0.0200798 -0.052638 -0.048772)
(0.0365378 -0.00647937 -0.0168853 0.0221462 -0.0444211 -0.058684)
(0.0401445 -0.00215616 -0.00499877 0.0231478 -0.0401317 -0.0632923)
(0.0401445 0.00215618 0.00499868 0.0231478 -0.0401317 -0.0632923)
(0.0365378 0.00647938 0.0168852 0.0221462 -0.0444211 -0.058684)
(0.0286923 0.0106815 0.0347537 0.0200798 -0.052638 -0.0487721)
(0.0167974 0.0142716 0.0636985 0.0167974 -0.0636985 -0.0335949)
(0.000864871 0.0158517 0.107229 0.0130363 -0.0753241 -0.0139012)
(0.00293127 -0.0121473 -0.0951952 0.0225321 -0.0477166 -0.0254633)
(0.0200798 -0.0106815 -0.052638 0.0286922 -0.0347537 -0.048772)
(0.0326131 -0.00764458 -0.025719 0.0326131 -0.0257189 -0.0652262)
(0.0398865 -0.00449384 -0.0110617 0.0346349 -0.0198743 -0.0745214)
(0.0430418 -0.00148016 -0.00300641 0.0355699 -0.0170116 -0.0786117)
(0.0430418 0.00148017 0.00300634 0.0355699 -0.0170116 -0.0786117)
(0.0398865 0.00449385 0.0110616 0.0346349 -0.0198743 -0.0745214)
(0.0326131 0.00764458 0.0257189 0.0326131 -0.0257189 -0.0652262)
(0.0200798 0.0106815 0.052638 0.0286923 -0.0347537 -0.0487721)
(0.00293135 0.0121473 0.0951951 0.0225321 -0.0477166 -0.0254634)
(0.00446528 -0.00758707 -0.0852128 0.029799 -0.0260272 -0.0342642)
(0.0221462 -0.00647937 -0.0444212 0.0365378 -0.0168852 -0.058684)
(0.0346349 -0.00449384 -0.0198744 0.0398865 -0.0110617 -0.0745214)
(0.0415446 -0.00260287 -0.00758094 0.0415446 -0.00758089 -0.0830892)
(0.0445168 -0.000856456 -0.00184203 0.0423564 -0.00592327 -0.0868732)
(0.0445168 0.000856462 0.00184196 0.0423564 -0.00592327 -0.0868732)
(0.0415446 0.00260287 0.00758087 0.0415446 -0.00758088 -0.0830893)
(0.0346349 0.00449384 0.0198743 0.0398865 -0.0110617 -0.0745214)
(0.0221463 0.00647938 0.0444211 0.0365378 -0.0168852 -0.058684)
(0.00446536 0.00758707 0.0852128 0.029799 -0.0260272 -0.0342643)
(0.00529106 -0.00254409 -0.0798892 0.0334956 -0.00822167 -0.0387867)
(0.0231478 -0.00215617 -0.0401318 0.0401445 -0.00499871 -0.0632922)
(0.0355699 -0.00148017 -0.0170116 0.0430418 -0.00300636 -0.0786117)
(0.0423564 -0.000856458 -0.00592332 0.0445168 -0.00184198 -0.0868732)
(0.0452763 -0.000282849 -0.00129197 0.0452763 -0.00129193 -0.0905526)
(0.0452763 0.000282852 0.00129191 0.0452763 -0.00129193 -0.0905526)
(0.0423564 0.000856461 0.00592326 0.0445168 -0.00184198 -0.0868732)
(0.0355699 0.00148017 0.0170116 0.0430418 -0.00300636 -0.0786117)
(0.0231478 0.00215617 0.0401317 0.0401445 -0.00499871 -0.0632923)
(0.00529115 0.00254409 0.0798892 0.0334956 -0.00822167 -0.0387868)
(0.00529106 0.00254408 -0.0798892 0.0334956 0.00822171 -0.0387867)
(0.0231478 0.00215617 -0.0401318 0.0401445 0.00499875 -0.0632922)
(0.0355699 0.00148017 -0.0170116 0.0430418 0.00300639 -0.0786117)
(0.0423564 0.000856457 -0.00592332 0.0445168 0.00184201 -0.0868732)
(0.0452763 0.000282849 -0.00129197 0.0452763 0.00129196 -0.0905526)
(0.0452763 -0.00028285 0.00129191 0.0452763 0.00129196 -0.0905526)
(0.0423564 -0.000856458 0.00592326 0.0445168 0.00184201 -0.0868732)
(0.0355699 -0.00148017 0.0170116 0.0430418 0.00300639 -0.0786117)
(0.0231478 -0.00215617 0.0401317 0.0401445 0.00499875 -0.0632923)
(0.00529114 -0.00254408 0.0798892 0.0334956 0.00822171 -0.0387868)
(0.00446527 0.00758707 -0.0852128 0.0297989 0.0260272 -0.0342642)
(0.0221462 0.00647937 -0.0444212 0.0365378 0.0168853 -0.0586839)
(0.0346349 0.00449384 -0.0198744 0.0398865 0.0110617 -0.0745214)
(0.0415446 0.00260286 -0.00758094 0.0415446 0.00758092 -0.0830892)
(0.0445168 0.000856455 -0.00184203 0.0423564 0.00592331 -0.0868732)
(0.0445168 -0.000856461 0.00184196 0.0423564 0.0059233 -0.0868732)
(0.0415446 -0.00260287 0.00758087 0.0415446 0.00758092 -0.0830892)
(0.0346349 -0.00449384 0.0198743 0.0398865 0.0110617 -0.0745214)
(0.0221463 -0.00647937 0.0444211 0.0365378 0.0168853 -0.058684)
(0.00446535 -0.00758706 0.0852128 0.029799 0.0260272 -0.0342643)
(0.00293125 0.0121473 -0.0951952 0.022532 0.0477166 -0.0254633)
(0.0200797 0.0106815 -0.052638 0.0286922 0.0347538 -0.048772)
(0.0326131 0.00764458 -0.025719 0.0326131 0.025719 -0.0652262)
(0.0398865 0.00449384 -0.0110617 0.0346349 0.0198743 -0.0745214)
(0.0430418 0.00148016 -0.00300641 0.0355699 0.0170116 -0.0786117)
(0.0430418 -0.00148017 0.00300634 0.0355699 0.0170116 -0.0786117)
(0.0398865 -0.00449384 0.0110616 0.0346349 0.0198743 -0.0745214)
(0.0326131 -0.00764458 0.0257189 0.0326131 0.0257189 -0.0652262)
(0.0200798 -0.0106815 0.052638 0.0286922 0.0347538 -0.0487721)
(0.00293133 -0.0121473 0.0951951 0.0225321 0.0477166 -0.0254634)
(0.00086477 0.0158517 -0.107229 0.0130362 0.0753242 -0.013901)
(0.0167974 0.0142716 -0.0636985 0.0167974 0.0636985 -0.0335947)
(0.0286922 0.0106815 -0.0347538 0.0200798 0.052638 -0.048772)
(0.0365378 0.00647937 -0.0168853 0.0221462 0.0444211 -0.058684)
(0.0401445 0.00215616 -0.00499877 0.0231478 0.0401318 -0.0632923)
(0.0401445 -0.00215618 0.00499868 0.0231478 0.0401318 -0.0632923)
(0.0365378 -0.00647938 0.0168852 0.0221462 0.0444211 -0.058684)
(0.0286923 -0.0106815 0.0347537 0.0200798 0.052638 -0.048772)
(0.0167974 -0.0142716 0.0636985 0.0167974 0.0636985 -0.0335948)
(0.00086485 -0.0158517 0.107229 0.0130363 0.0753241 -0.0139011)
(-0.000346253 0.0176336 -0.109334 -0.000346244 0.109334 0.000692497)
(0.0130362 0.0158517 -0.0753242 0.000864778 0.107229 -0.013901)
(0.022532 0.0121473 -0.0477167 0.00293126 0.0951952 -0.0254633)
(0.0297989 0.00758706 -0.0260272 0.00446528 0.0852128 -0.0342642)
(0.0334956 0.00254408 -0.00822174 0.00529108 0.0798892 -0.0387867)
(0.0334956 -0.00254409 0.00822164 0.00529109 0.0798892 -0.0387867)
(0.029799 -0.00758708 0.0260271 0.00446531 0.0852128 -0.0342643)
(0.0225321 -0.0121473 0.0477166 0.0029313 0.0951952 -0.0254634)
(0.0130363 -0.0158517 0.0753241 0.000864827 0.107229 -0.0139011)
(-0.000346168 -0.0176335 0.109334 -0.000346193 0.109334 0.00069236)
(-0.00822238 -0.015605 -0.149044 -0.00822232 -0.149044 0.0164447)
(0.00155583 -0.0119025 -0.115965 -0.00932376 -0.1594 0.00776792)
(0.00737388 -0.00905232 -0.0805689 -0.00845935 -0.153709 0.00108547)
(0.012009 -0.00568151 -0.0470854 -0.0077527 -0.146888 -0.00425626)
(0.0145489 -0.00192836 -0.0154483 -0.00736471 -0.142943 -0.00718417)
(0.0145489 0.00192841 0.0154481 -0.0073647 -0.142943 -0.00718421)
(0.012009 0.00568155 0.0470852 -0.00775265 -0.146888 -0.00425636)
(0.00737397 0.00905234 0.0805686 -0.00845927 -0.153709 0.00108529)
(0.00155597 0.0119025 0.115965 -0.00932365 -0.1594 0.00776768)
(-0.00822219 0.015605 0.149044 -0.00822221 -0.149044 0.0164444)
(-0.00932381 -0.0119025 -0.1594 0.00155587 -0.115965 0.00776794)
(0.00210193 -0.00974299 -0.111467 0.00210197 -0.111467 -0.00420389)
(0.00979737 -0.00760091 -0.0712787 0.00392891 -0.103807 -0.0137263)
(0.0157401 -0.00480339 -0.0395888 0.00531029 -0.0973344 -0.0210503)
(0.0189157 -0.00163842 -0.0126781 0.00606769 -0.0938081 -0.0249834)
(0.0189158 0.00163845 0.0126779 0.0060677 -0.0938081 -0.0249835)
(0.0157401 0.00480342 0.0395885 0.00531033 -0.0973344 -0.0210504)
(0.00979747 0.00760093 0.0712785 0.00392897 -0.103807 -0.0137264)
(0.00210206 0.009743 0.111466 0.00210205 -0.111466 -0.00420411)
(-0.00932364 0.0119025 0.1594 0.00155596 -0.115965 0.00776768)
(-0.00845941 -0.00905234 -0.15371 0.00737388 -0.0805687 0.00108553)
(0.00392886 -0.00760092 -0.103807 0.00979739 -0.0712785 -0.0137262)
(0.0129932 -0.0058286 -0.0642862 0.0129933 -0.064286 -0.0259865)
(0.019844 -0.00363424 -0.0347086 0.0153284 -0.0594814 -0.0351724)
(0.0234341 -0.00123484 -0.0109293 0.0165644 -0.0569943 -0.0399985)
(0.0234342 0.00123486 0.0109291 0.0165644 -0.0569943 -0.0399986)
(0.0198441 0.00363426 0.0347083 0.0153285 -0.0594814 -0.0351725)
(0.0129933 0.00582861 0.0642859 0.0129933 -0.064286 -0.0259866)
(0.00392899 0.00760093 0.103807 0.00979746 -0.0712785 -0.0137265)
(-0.00845924 0.00905232 0.153709 0.00737397 -0.0805687 0.00108527)
(-0.00775278 -0.00568154 -0.146888 0.0120089 -0.0470853 -0.00425615)
(0.00531022 -0.00480341 -0.0973345 0.0157401 -0.0395886 -0.0210503)
(0.0153284 -0.00363425 -0.0594815 0.019844 -0.0347084 -0.0351724)
(0.0227442 -0.00224569 -0.0316165 0.0227443 -0.0316164 -0.0454885)
(0.0265163 -0.000760709 -0.00984193 0.0241648 -0.0300466 -0.050681)
(0.0265163 0.000760725 0.00984173 0.0241648 -0.0300466 -0.0506811)
(0.0227443 0.00224571 0.0316163 0.0227443 -0.0316164 -0.0454886)
(0.0153285 0.00363426 0.0594813 0.0198441 -0.0347084 -0.0351725)
(0.00531035 0.00480341 0.0973343 0.0157401 -0.0395886 -0.0210505)
(-0.00775262 0.00568154 0.146888 0.012009 -0.0470852 -0.0042564)
(-0.00736482 -0.00192839 -0.142943 0.0145488 -0.0154481 -0.00718402)
(0.0060676 -0.00163844 -0.0938082 0.0189157 -0.012678 -0.0249833)
(0.0165643 -0.00123485 -0.0569945 0.0234341 -0.0109291 -0.0399985)
(0.0241647 -0.000760717 -0.0300467 0.0265163 -0.00984178 -0.050681)
(0.0279116 -0.000257711 -0.00929834 0.0279116 -0.0092982 -0.0558232)
(0.0279116 0.000257717 0.00929814 0.0279116 -0.0092982 -0.0558232)
(0.0241648 0.000760722 0.0300466 0.0265163 -0.00984178 -0.0506811)
(0.0165644 0.00123486 0.0569943 0.0234342 -0.0109291 -0.0399986)
(0.00606774 0.00163844 0.093808 0.0189158 -0.012678 -0.0249835)
(-0.00736465 0.00192839 0.142943 0.0145489 -0.0154481 -0.00718426)
(-0.00736483 0.00192838 -0.142943 0.0145488 0.0154483 -0.007184)
(0.00606759 0.00163843 -0.0938082 0.0189157 0.0126781 -0.0249833)
(0.0165643 0.00123484 -0.0569945 0.0234341 0.0109292 -0.0399985)
(0.0241647 0.00076071 -0.0300467 0.0265163 0.00984187 -0.050681)
(0.0279116 0.000257708 -0.00929834 0.0279116 0.00929829 -0.0558232)
(0.0279116 -0.000257714 0.00929814 0.0279116 0.00929828 -0.0558232)
(0.0241648 -0.000760715 0.0300466 0.0265163 0.00984187 -0.0506811)
(0.0165644 -0.00123485 0.0569943 0.0234342 0.0109292 -0.0399986)
(0.00606773 -0.00163843 0.0938081 0.0189158 0.0126781 -0.0249835)
(-0.00736466 -0.00192838 0.142943 0.0145489 0.0154483 -0.00718425)
(-0.00775281 0.00568153 -0.146888 0.0120089 0.0470854 -0.00425611)
(0.0053102 0.0048034 -0.0973345 0.01574 0.0395887 -0.0210502)
(0.0153284 0.00363424 -0.0594816 0.019844 0.0347085 -0.0351724)
(0.0227442 0.00224569 -0.0316165 0.0227442 0.0316165 -0.0454884)
(0.0265163 0.000760707 -0.00984193 0.0241647 0.0300467 -0.050681)
(0.0265163 -0.000760723 0.00984173 0.0241648 0.0300467 -0.050681)
(0.0227443 -0.0022457 0.0316163 0.0227443 0.0316164 -0.0454885)
(0.0153285 -0.00363425 0.0594814 0.019844 0.0347085 -0.0351725)
(0.00531034 -0.0048034 0.0973343 0.0157401 0.0395887 -0.0210504)
(-0.00775264 -0.00568152 0.146888 0.012009 0.0470854 -0.00425635)
(-0.00845944 0.00905233 -0.15371 0.00737384 0.0805689 0.0010856)
(0.00392883 0.00760091 -0.103807 0.00979735 0.0712786 -0.0137262)
(0.0129932 0.00582859 -0.0642862 0.0129932 0.0642861 -0.0259864)
(0.019844 0.00363424 -0.0347086 0.0153284 0.0594815 -0.0351724)
(0.0234341 0.00123484 -0.0109293 0.0165644 0.0569944 -0.0399985)
(0.0234341 -0.00123486 0.0109291 0.0165644 0.0569944 -0.0399985)
(0.019844 -0.00363426 0.0347084 0.0153284 0.0594815 -0.0351725)
(0.0129933 -0.0058286 0.064286 0.0129933 0.0642861 -0.0259866)
(0.00392896 -0.00760092 0.103807 0.00979742 0.0712786 -0.0137264)
(-0.00845928 -0.00905232 0.153709 0.00737393 0.0805688 0.00108535)
(-0.00932385 0.0119025 -0.1594 0.0015558 0.115965 0.00776805)
(0.00210189 0.00974299 -0.111467 0.00210191 0.111467 -0.0042038)
(0.00979734 0.00760091 -0.0712787 0.00392885 0.103807 -0.0137262)
(0.01574 0.00480339 -0.0395888 0.00531023 0.0973345 -0.0210503)
(0.0189157 0.00163842 -0.0126781 0.00606763 0.0938082 -0.0249833)
(0.0189157 -0.00163845 0.0126779 0.00606764 0.0938082 -0.0249834)
(0.0157401 -0.00480342 0.0395885 0.00531026 0.0973345 -0.0210504)
(0.00979744 -0.00760093 0.0712785 0.00392891 0.103807 -0.0137263)
(0.00210203 -0.009743 0.111466 0.00210198 0.111467 -0.00420401)
(-0.00932368 -0.0119025 0.1594 0.0015559 0.115965 0.00776778)
(-0.00822242 0.015605 -0.149044 -0.0082224 0.149044 0.0164448)
(0.00155579 0.0119025 -0.115965 -0.00932383 0.1594 0.00776804)
(0.00737384 0.00905232 -0.0805689 -0.00845942 0.15371 0.00108558)
(0.0120089 0.00568152 -0.0470855 -0.00775277 0.146888 -0.00425615)
(0.0145489 0.00192837 -0.0154483 -0.00736479 0.142943 -0.00718406)
(0.0145489 -0.00192841 0.0154481 -0.00736477 0.142943 -0.0071841)
(0.012009 -0.00568155 0.0470852 -0.00775272 0.146888 -0.00425625)
(0.00737393 -0.00905234 0.0805687 -0.00845934 0.15371 0.00108541)
(0.00155593 -0.0119025 0.115965 -0.00932373 0.1594 0.0077678)
(-0.00822224 -0.015605 0.149044 -0.0082223 0.149044 0.0164445)
(-0.00221792 -0.00431692 -0.153902 -0.0022178 -0.153901 0.00443572)
(0.000158588 -0.00467656 -0.124342 -0.00299588 -0.169419 0.00283729)
(0.00278499 -0.00407467 -0.0893572 -0.00344233 -0.168126 0.000657333)
(0.00509258 -0.00273894 -0.0535637 -0.00368501 -0.164347 -0.00140757)
(0.00640224 -0.000958145 -0.0178173 -0.00377698 -0.161925 -0.00262526)
(0.00640227 0.000958234 0.0178167 -0.00377694 -0.161925 -0.00262533)
(0.00509269 0.00273901 0.0535631 -0.0036849 -0.164347 -0.00140779)
(0.00278518 0.00407471 0.0893567 -0.00344216 -0.168126 0.000656978)
(0.000158876 0.00467656 0.124342 -0.00299567 -0.169419 0.00283679)
(-0.00221754 0.00431686 0.153901 -0.00221758 -0.153901 0.00443512)
(-0.00299597 -0.00467658 -0.16942 0.000158648 -0.124342 0.00283732)
(0.000241653 -0.00498143 -0.125035 0.000241728 -0.125034 -0.000483381)
(0.00410327 -0.0041986 -0.0842 0.000460148 -0.121138 -0.00456342)
(0.00731968 -0.00276005 -0.0486292 0.00076977 -0.117009 -0.00808945)
(0.00909503 -0.000956834 -0.0159088 0.00100656 -0.114614 -0.0101016)
(0.00909506 0.000956909 0.0159083 0.00100659 -0.114614 -0.0101016)
(0.00731979 0.00276011 0.0486287 0.000769852 -0.117009 -0.00808964)
(0.00410345 0.00419865 0.0841995 0.000460277 -0.121138 -0.00456373)
(0.000241925 0.00498145 0.125034 0.000241896 -0.125034 -0.000483821)
(-0.00299563 0.00467655 0.169419 0.000158854 -0.124342 0.00283678)
(-0.00344244 -0.00407471 -0.168126 0.00278499 -0.0893569 0.000657456)
(0.000460047 -0.00419862 -0.121138 0.00410329 -0.0841997 -0.00456334)
(0.00526166 -0.0034019 -0.0799297 0.00526171 -0.0799294 -0.0105234)
(0.00917789 -0.00216624 -0.0454302 0.00629554 -0.0767935 -0.0154734)
(0.0113315 -0.000736234 -0.0147541 0.00695772 -0.0751705 -0.0182892)
(0.0113315 0.000736292 0.0147536 0.00695775 -0.0751705 -0.0182893)
(0.009178 0.00216629 0.0454298 0.00629561 -0.0767935 -0.0154736)
(0.00526184 0.00340193 0.0799292 0.00526182 -0.0799293 -0.0105237)
(0.000460316 0.00419864 0.121138 0.00410344 -0.0841996 -0.00456376)
(-0.00344211 0.00407469 0.168126 0.00278518 -0.0893568 0.000656933)
(-0.00368517 -0.002739 -0.164347 0.00509254 -0.0535634 -0.00140737)
(0.000769634 -0.00276009 -0.117009 0.00731966 -0.0486289 -0.0080893)
(0.00629546 -0.00216626 -0.0767938 0.0091779 -0.0454299 -0.0154734)
(0.0108025 -0.00131298 -0.0435292 0.0108025 -0.0435289 -0.021605)
(0.0133738 -0.00042686 -0.0141838 0.0118607 -0.0427242 -0.0252346)
(0.0133739 0.000426899 0.0141834 0.0118607 -0.0427242 -0.0252346)
(0.0108026 0.00131301 0.0435288 0.0108026 -0.0435289 -0.0216051)
(0.00629565 0.00216628 0.0767934 0.00917799 -0.0454299 -0.0154736)
(0.000769905 0.0027601 0.117009 0.00731979 -0.0486289 -0.00808969)
(-0.00368484 0.00273898 0.164346 0.00509271 -0.0535633 -0.00140787)
(-0.00377719 -0.000958211 -0.161926 0.00640215 -0.0178169 -0.00262496)
(0.00100638 -0.000956883 -0.114614 0.00909497 -0.0159084 -0.0101013)
(0.0069576 -0.000736269 -0.0751708 0.0113315 -0.0147538 -0.0182891)
(0.0118606 -0.000426879 -0.0427245 0.0133738 -0.0141835 -0.0252345)
(0.0148937 -0.000134024 -0.0141305 0.0148937 -0.0141301 -0.0297874)
(0.0148937 0.000134041 0.01413 0.0148937 -0.0141302 -0.0297875)
(0.0118608 0.000426892 0.0427241 0.0133739 -0.0141835 -0.0252347)
(0.0069578 0.000736278 0.0751703 0.0113316 -0.0147538 -0.0182893)
(0.00100665 0.000956887 0.114613 0.00909508 -0.0159084 -0.0101017)
(-0.00377686 0.000958206 0.161925 0.00640231 -0.0178168 -0.00262545)
(-0.00377721 0.000958177 -0.161926 0.00640213 0.0178171 -0.00262492)
(0.00100637 0.000956857 -0.114614 0.00909495 0.0159086 -0.0101013)
(0.00695759 0.000736249 -0.0751708 0.0113315 0.014754 -0.018289)
(0.0118606 0.000426867 -0.0427245 0.0133738 0.0141837 -0.0252344)
(0.0148937 0.000134022 -0.0141305 0.0148937 0.0141303 -0.0297874)
(0.0148937 -0.000134032 0.01413 0.0148937 0.0141303 -0.0297874)
(0.0118608 -0.000426873 0.0427241 0.0133739 0.0141837 -0.0252346)
(0.00695779 -0.000736252 0.0751703 0.0113315 0.014754 -0.0182893)
(0.00100664 -0.000956856 0.114613 0.00909507 0.0159086 -0.0101017)
(-0.00377688 -0.000958169 0.161925 0.00640229 0.0178171 -0.00262542)
(-0.00368522 0.00273898 -0.164347 0.00509249 0.0535636 -0.00140727)
(0.000769599 0.00276007 -0.117009 0.00731962 0.0486291 -0.00808921)
(0.00629543 0.00216625 -0.0767938 0.00917785 0.0454301 -0.0154733)
(0.0108024 0.00131297 -0.0435292 0.0108024 0.0435291 -0.0216049)
(0.0133738 0.000426859 -0.0141838 0.0118607 0.0427244 -0.0252345)
(0.0133739 -0.000426892 0.0141834 0.0118607 0.0427244 -0.0252345)
(0.0108025 -0.00131299 0.0435288 0.0108025 0.0435291 -0.0216051)
(0.00629562 -0.00216626 0.0767934 0.00917794 0.0454301 -0.0154736)
(0.000769869 -0.00276007 0.117009 0.00731974 0.0486291 -0.00808961)
(-0.00368489 -0.00273895 0.164347 0.00509266 0.0535635 -0.00140777)
(-0.00344251 0.0040747 -0.168126 0.00278491 0.0893571 0.000657606)
(0.000459992 0.00419861 -0.121138 0.00410321 0.0841999 -0.00456321)
(0.00526161 0.00340189 -0.0799297 0.00526163 0.0799296 -0.0105232)
(0.00917785 0.00216624 -0.0454302 0.00629546 0.0767937 -0.0154733)
(0.0113315 0.000736235 -0.0147541 0.00695764 0.0751706 -0.0182891)
(0.0113315 -0.000736286 0.0147536 0.00695766 0.0751706 -0.0182892)
(0.00917796 -0.00216628 0.0454298 0.00629553 0.0767937 -0.0154735)
(0.00526179 -0.00340192 0.0799293 0.00526174 0.0799295 -0.0105235)
(0.000460259 -0.00419862 0.121138 0.00410336 0.0841998 -0.00456362)
(-0.00344219 -0.00407467 0.168126 0.0027851 0.0893571 0.00065709)
(-0.00299606 0.00467658 -0.16942 0.000158524 0.124342 0.00283753)
(0.000241582 0.00498143 -0.125035 0.000241611 0.125035 -0.000483193)
(0.00410321 0.0041986 -0.0842 0.000460031 0.121138 -0.00456324)
(0.00731962 0.00276005 -0.0486293 0.000769652 0.117009 -0.00808927)
(0.00909498 0.000956837 -0.0159088 0.00100644 0.114614 -0.0101014)
(0.00909501 -0.000956904 0.0159083 0.00100646 0.114614 -0.0101015)
(0.00731973 -0.00276011 0.0486287 0.000769731 0.117009 -0.00808946)
(0.00410338 -0.00419864 0.0841995 0.000460157 0.121138 -0.00456354)
(0.00024185 -0.00498144 0.125034 0.000241774 0.125034 -0.000483624)
(-0.00299573 -0.00467655 0.169419 0.000158725 0.124342 0.002837)
(-0.00221801 0.00431695 -0.153902 -0.00221796 0.153902 0.00443597)
(0.000158503 0.00467657 -0.124342 -0.00299602 0.16942 0.00283752)
(0.00278491 0.00407468 -0.0893573 -0.00344247 0.168126 0.000657559)
(0.00509251 0.00273895 -0.0535637 -0.00368516 0.164347 -0.00140735)
(0.00640217 0.00095815 -0.0178173 -0.00377713 0.161926 -0.00262504)
(0.0064022 -0.000958234 0.0178167 -0.00377709 0.161925 -0.00262511)
(0.00509262 -0.00273902 0.0535632 -0.00368505 0.164347 -0.00140757)
(0.00278509 -0.00407472 0.0893567 -0.0034423 0.168126 0.000657213)
(0.000158785 -0.00467657 0.124342 -0.00299582 0.169419 0.00283703)
(-0.00221763 -0.00431689 0.153901 -0.00221775 0.153901 0.00443538)
(-0.00210127 -0.00322456 -0.158947 -0.00210104 -0.158946 0.00420231)
(-0.000297172 -0.00257325 -0.13073 -0.0026056 -0.177351 0.00290278)
(0.000889755 -0.00207035 -0.0954391 -0.00269855 -0.178359 0.00180879)
(0.00194526 -0.00134767 -0.0579088 -0.00275512 -0.176216 0.000809855)
(0.00256244 -0.000466035 -0.0193931 -0.00277449 -0.174648 0.00021205)
(0.00256251 0.000466192 0.0193919 -0.00277442 -0.174648 0.000211918)
(0.00194546 0.0013478 0.0579076 -0.00275492 -0.176216 0.00080946)
(0.000890095 0.00207043 0.095438 -0.00269825 -0.178358 0.00180815)
(-0.00029664 0.00257327 0.130729 -0.00260523 -0.177351 0.00290187)
(-0.00210057 0.00322446 0.158946 -0.00210065 -0.158946 0.00420122)
(-0.00260578 -0.00257329 -0.177351 -0.000297052 -0.130729 0.00290283)
(-0.000485855 -0.00232249 -0.134203 -0.000485714 -0.134202 0.000971569)
(0.00119843 -0.00196118 -0.0925843 -0.000328705 -0.132493 -0.000869722)
(0.00269438 -0.00128891 -0.0544885 -0.000168193 -0.129846 -0.00252619)
(0.00355174 -0.000444215 -0.0180125 -4.67181e-05 -0.128195 -0.00350503)
(0.00355181 0.000444352 0.0180114 -4.66673e-05 -0.128195 -0.00350514)
(0.00269458 0.00128903 0.0544875 -0.000168044 -0.129846 -0.00252654)
(0.00119876 0.00196126 0.0925832 -0.00032847 -0.132493 -0.000870285)
(-0.000485361 0.00232254 0.134201 -0.00048541 -0.134202 0.000970771)
(-0.00260517 0.00257325 0.17735 -0.000296681 -0.130729 0.00290185)
(-0.00269876 -0.00207043 -0.178359 0.000889746 -0.0954385 0.00180902)
(-0.000328889 -0.00196121 -0.132494 0.00119847 -0.0925837 -0.000869582)
(0.00180539 -0.00162352 -0.0900766 0.00180548 -0.090076 -0.00361087)
(0.00367541 -0.00102426 -0.052416 0.00234316 -0.0880411 -0.00601857)
(0.00472909 -0.000339838 -0.0172531 0.00271076 -0.0869153 -0.00743985)
(0.00472915 0.000339948 0.0172521 0.0027108 -0.0869153 -0.00743996)
(0.00367561 0.00102435 0.052415 0.00234329 -0.0880411 -0.0060189)
(0.00180572 0.00162359 0.0900756 0.00180569 -0.0900759 -0.0036114)
(-0.000328404 0.00196125 0.132493 0.00119874 -0.0925835 -0.000870338)
(-0.00269817 0.00207039 0.178358 0.000890101 -0.0954382 0.00180807)
(-0.00275541 -0.00134778 -0.176217 0.00194518 -0.057908 0.000810234)
(-0.00016844 -0.00128898 -0.129847 0.00269436 -0.0544879 -0.00252592)
(0.00234301 -0.00102429 -0.0880417 0.00367543 -0.0524153 -0.00601844)
(0.00453987 -0.000574421 -0.0511679 0.00453994 -0.0511673 -0.00907982)
(0.00583126 -0.000163602 -0.0169618 0.00514204 -0.050559 -0.0109733)
(0.00583133 0.000163677 0.0169609 0.00514208 -0.050559 -0.0109734)
(0.00454008 0.000574476 0.051167 0.00454005 -0.0511672 -0.00908013)
(0.00234335 0.00102433 0.0880408 0.0036756 -0.0524153 -0.00601895)