/*--------------------------------*- C++ -*----------------------------------*\
| =========                 |                                                 |
| \\      /  F ield         | OpenFOAM: The Open Source CFD Toolbox           |
|  \\    /   O peration     | Version:  2406                                  |
|   \\  /    A nd           | Website:  www.openfoam.com                      |
|    \\/     M anipulation  |                                                 |
\*---------------------------------------------------------------------------*/
FoamFile
{
    version     2.0;
    format      ascii;
    arch        "LSB;label=32;scalar=64";
    class       volVectorField;
    location    "1.6";
    object      U;
}
// * * * * * * * * * * * * * * * * * * * * * * * * * * * * * * * * * * * * * //

dimensions      [0 1 -1 0 0 0 0];

internalField   nonuniform List<vector> 
25000
(
(0.148203 0.148203 1.126)
(0.121741 0.159741 1.15799)
(0.089682 0.168689 1.17581)
(0.0549321 0.174337 1.18522)
(0.0184802 0.177166 1.18921)
(-0.0184801 0.177166 1.18921)
(-0.054932 0.174337 1.18522)
(-0.0896819 0.168689 1.17581)
(-0.121741 0.159741 1.15799)
(-0.148203 0.148203 1.126)
(0.159741 0.121741 1.15799)
(0.129921 0.129921 1.18715)
(0.0949522 0.136258 1.19911)
(0.0577448 0.140368 1.20344)
(0.0193615 0.142382 1.20465)
(-0.0193614 0.142382 1.20465)
(-0.0577447 0.140368 1.20344)
(-0.0949521 0.136258 1.19911)
(-0.12992 0.129921 1.18715)
(-0.159741 0.121741 1.15799)
(0.168689 0.0896819 1.17581)
(0.136258 0.0949521 1.19911)
(0.0990579 0.0990579 1.20625)
(0.059953 0.101733 1.20696)
(0.0200493 0.10303 1.20625)
(-0.0200493 0.10303 1.20625)
(-0.059953 0.101733 1.20696)
(-0.0990579 0.0990579 1.20625)
(-0.136258 0.0949521 1.19911)
(-0.168689 0.0896819 1.17581)
(0.174337 0.0549321 1.18522)
(0.140368 0.0577448 1.20344)
(0.101733 0.059953 1.20696)
(0.061392 0.061392 1.20524)
(0.020496 0.0620861 1.20331)
(-0.0204959 0.0620861 1.20331)
(-0.061392 0.061392 1.20524)
(-0.101733 0.059953 1.20696)
(-0.140368 0.0577448 1.20344)
(-0.174337 0.0549321 1.18522)
(0.177166 0.0184801 1.18921)
(0.142382 0.0193614 1.20465)
(0.10303 0.0200493 1.20625)
(0.0620862 0.0204959 1.20331)
(0.0207107 0.0207106 1.2008)
(-0.0207106 0.0207106 1.2008)
(-0.0620861 0.0204959 1.20331)
(-0.10303 0.0200493 1.20625)
(-0.142382 0.0193614 1.20465)
(-0.177166 0.0184801 1.18921)
(0.177166 -0.0184802 1.18921)
(0.142382 -0.0193615 1.20465)
(0.10303 -0.0200493 1.20625)
(0.0620862 -0.020496 1.20331)
(0.0207107 -0.0207107 1.2008)
(-0.0207106 -0.0207107 1.2008)
(-0.0620861 -0.020496 1.20331)
(-0.10303 -0.0200493 1.20625)
(-0.142382 -0.0193615 1.20465)
(-0.177166 -0.0184802 1.18921)
(0.174337 -0.0549321 1.18522)
(0.140368 -0.0577448 1.20344)
(0.101733 -0.059953 1.20696)
(0.061392 -0.061392 1.20524)
(0.020496 -0.0620861 1.20331)
(-0.0204959 -0.0620861 1.20331)
(-0.061392 -0.061392 1.20524)
(-0.101733 -0.059953 1.20696)
(-0.140368 -0.0577448 1.20344)
(-0.174337 -0.0549321 1.18522)
(0.168689 -0.089682 1.17581)
(0.136258 -0.0949522 1.19911)
(0.0990579 -0.0990579 1.20625)
(0.059953 -0.101733 1.20696)
(0.0200493 -0.10303 1.20625)
(-0.0200493 -0.10303 1.20625)
(-0.059953 -0.101733 1.20696)
(-0.0990579 -0.0990579 1.20625)
(-0.136258 -0.0949522 1.19911)
(-0.168689 -0.089682 1.17581)
(0.159741 -0.121741 1.15799)
(0.129921 -0.129921 1.18715)
(0.0949522 -0.136258 1.19911)
(0.0577448 -0.140368 1.20344)
(0.0193615 -0.142382 1.20465)
(-0.0193614 -0.142382 1.20465)
(-0.0577447 -0.140368 1.20344)
(-0.0949521 -0.136258 1.19911)
(-0.12992 -0.129921 1.18715)
(-0.159741 -0.121741 1.15799)
(0.148203 -0.148203 1.126)
(0.121741 -0.159741 1.15799)
(0.089682 -0.168689 1.17581)
(0.0549321 -0.174337 1.18522)
(0.0184802 -0.177166 1.18921)
(-0.0184801 -0.177166 1.18921)
(-0.054932 -0.174337 1.18522)
(-0.0896819 -0.168689 1.17581)
(-0.121741 -0.159741 1.15799)
(-0.148203 -0.148203 1.126)
(0.050883 0.0508827 1.26779)
(0.0454874 0.0604814 1.35152)
(0.0364057 0.0683819 1.40592)
(0.0233683 0.074205 1.43821)
(0.00804186 0.0772047 1.45313)
(-0.0080415 0.0772047 1.45313)
(-0.0233679 0.074205 1.43821)
(-0.0364054 0.068382 1.40592)
(-0.0454872 0.0604814 1.35152)
(-0.0508827 0.0508828 1.26779)
(0.0604816 0.0454872 1.35152)
(0.0552607 0.0552604 1.44013)
(0.0441312 0.0630688 1.48894)
(0.0282258 0.068534 1.51468)
(0.0096841 0.0713451 1.52575)
(-0.00968378 0.0713451 1.52575)
(-0.0282255 0.068534 1.51468)
(-0.0441309 0.0630688 1.48894)
(-0.0552604 0.0552605 1.44013)
(-0.0604814 0.0454872 1.35152)
(0.0683821 0.0364054 1.40592)
(0.063069 0.044131 1.48894)
(0.0501797 0.0501795 1.53198)
(0.031988 0.0543476 1.553)
(0.0109521 0.0564912 1.56141)
(-0.0109518 0.0564912 1.56141)
(-0.0319877 0.0543476 1.553)
(-0.0501795 0.0501796 1.53198)
(-0.0630688 0.044131 1.48894)
(-0.0683819 0.0364055 1.40592)
(0.0742051 0.023368 1.43821)
(0.0685342 0.0282255 1.51468)
(0.0543478 0.0319878 1.553)
(0.0345546 0.0345544 1.57058)
(0.0118162 0.0358748 1.57707)
(-0.0118159 0.0358748 1.57707)
(-0.0345543 0.0345544 1.57058)
(-0.0543475 0.0319878 1.553)
(-0.0685339 0.0282256 1.51468)
(-0.0742049 0.023368 1.43821)
(0.0772048 0.0080416 1.45313)
(0.0713453 0.00968386 1.52575)
(0.0564914 0.0109519 1.56141)
(0.035875 0.011816 1.57707)
(0.0122625 0.0122623 1.58252)
(-0.0122622 0.0122623 1.58252)
(-0.0358748 0.011816 1.57707)
(-0.0564911 0.0109519 1.56141)
(-0.071345 0.00968387 1.52575)
(-0.0772046 0.0080416 1.45313)
(0.0772048 -0.00804176 1.45313)
(0.0713453 -0.00968401 1.52575)
(0.0564914 -0.0109521 1.56141)
(0.035875 -0.0118161 1.57707)
(0.0122625 -0.0122624 1.58252)
(-0.0122622 -0.0122624 1.58252)
(-0.0358748 -0.0118161 1.57707)
(-0.0564911 -0.0109521 1.56141)
(-0.071345 -0.00968401 1.52575)
(-0.0772046 -0.00804176 1.45313)
(0.0742051 -0.0233681 1.43821)
(0.0685341 -0.0282257 1.51468)
(0.0543478 -0.0319879 1.553)
(0.0345546 -0.0345545 1.57058)
(0.0118162 -0.035875 1.57707)
(-0.0118159 -0.035875 1.57707)
(-0.0345543 -0.0345545 1.57058)
(-0.0543475 -0.0319879 1.553)
(-0.0685339 -0.0282257 1.51468)
(-0.0742049 -0.0233682 1.43821)
(0.0683821 -0.0364056 1.40592)
(0.063069 -0.0441311 1.48894)
(0.0501797 -0.0501797 1.53198)
(0.031988 -0.0543477 1.553)
(0.0109521 -0.0564913 1.56141)
(-0.0109518 -0.0564913 1.56141)
(-0.0319877 -0.0543477 1.553)
(-0.0501795 -0.0501797 1.53198)
(-0.0630688 -0.0441312 1.48894)
(-0.0683819 -0.0364056 1.40592)
(0.0604815 -0.0454873 1.35152)
(0.0552606 -0.0552606 1.44013)
(0.0441312 -0.0630689 1.48894)
(0.0282258 -0.0685341 1.51468)
(0.0096841 -0.0713452 1.52575)
(-0.00968378 -0.0713452 1.52575)
(-0.0282255 -0.0685341 1.51468)
(-0.0441309 -0.063069 1.48894)
(-0.0552604 -0.0552606 1.44013)
(-0.0604813 -0.0454874 1.35152)
(0.0508829 -0.0508828 1.26779)
(0.0454874 -0.0604815 1.35152)
(0.0364057 -0.068382 1.40592)
(0.0233682 -0.0742051 1.43821)
(0.00804186 -0.0772047 1.45313)
(-0.0080415 -0.0772047 1.45313)
(-0.0233679 -0.0742051 1.43821)
(-0.0364054 -0.0683821 1.40592)
(-0.0454871 -0.0604815 1.35152)
(-0.0508827 -0.0508829 1.26779)
(0.0294382 0.0294376 1.13916)
(0.0273664 0.0362571 1.264)
(0.0223835 0.0419313 1.35454)
(0.0146494 0.0461081 1.41276)
(0.00509698 0.048299 1.44101)
(-0.00509615 0.048299 1.44101)
(-0.0146486 0.0461081 1.41276)
(-0.0223827 0.0419314 1.35454)
(-0.0273657 0.0362572 1.264)
(-0.0294376 0.0294378 1.13916)
(0.0362575 0.0273658 1.264)
(0.0342663 0.0342658 1.41081)
(0.0281266 0.0399448 1.50483)
(0.0183896 0.0440013 1.56049)
(0.00638427 0.0461082 1.5863)
(-0.00638353 0.0461082 1.5863)
(-0.0183888 0.0440014 1.56049)
(-0.028126 0.0399449 1.50483)
(-0.0342657 0.0342659 1.41081)
(-0.036257 0.0273659 1.264)
(0.0419317 0.0223829 1.35454)
(0.0399453 0.0281261 1.50483)
(0.0327477 0.0327472 1.59723)
(0.0213507 0.0359553 1.64978)
(0.00739917 0.0376028 1.67351)
(-0.0073985 0.0376028 1.67351)
(-0.02135 0.0359554 1.64978)
(-0.0327471 0.0327472 1.59723)
(-0.0399447 0.0281262 1.50483)
(-0.0419312 0.022383 1.35454)
(0.0461084 0.0146488 1.41276)
(0.0440017 0.018389 1.56049)
(0.0359558 0.0213502 1.64978)
(0.0233779 0.0233774 1.69966)
(0.00809345 0.0244134 1.72196)
(-0.00809281 0.0244134 1.72196)
(-0.0233773 0.0233774 1.69966)
(-0.0359552 0.0213502 1.64978)
(-0.0440012 0.018389 1.56049)
(-0.046108 0.0146488 1.41276)
(0.0482993 0.00509637 1.44101)
(0.0461086 0.00638373 1.5863)
(0.0376033 0.00739868 1.67351)
(0.0244139 0.00809298 1.72196)
(0.00844962 0.00844917 1.74358)
(-0.008449 0.00844917 1.74358)
(-0.0244133 0.00809298 1.72196)
(-0.0376027 0.00739868 1.67351)
(-0.0461081 0.00638374 1.5863)
(-0.0482989 0.00509639 1.44101)
(0.0482993 -0.00509673 1.44101)
(0.0461086 -0.00638406 1.5863)
(0.0376032 -0.00739898 1.67351)
(0.0244139 -0.00809327 1.72196)
(0.00844962 -0.00844945 1.74358)
(-0.008449 -0.00844945 1.74358)
(-0.0244133 -0.00809327 1.72196)
(-0.0376027 -0.00739899 1.67351)
(-0.0461081 -0.00638407 1.5863)
(-0.0482989 -0.00509676 1.44101)
(0.0461084 -0.0146491 1.41276)
(0.0440017 -0.0183893 1.56049)
(0.0359558 -0.0213505 1.64978)
(0.0233779 -0.0233777 1.69966)
(0.00809344 -0.0244137 1.72196)
(-0.0080928 -0.0244137 1.72196)
(-0.0233772 -0.0233777 1.69966)
(-0.0359552 -0.0213505 1.64978)
(-0.0440012 -0.0183894 1.56049)
(-0.046108 -0.0146492 1.41276)
(0.0419316 -0.0223832 1.35454)
(0.0399452 -0.0281264 1.50483)
(0.0327476 -0.0327475 1.59723)
(0.0213507 -0.0359556 1.64978)
(0.00739917 -0.0376031 1.67351)
(-0.00739849 -0.0376031 1.67351)
(-0.02135 -0.0359556 1.64978)
(-0.032747 -0.0327475 1.59723)
(-0.0399447 -0.0281265 1.50483)
(-0.0419312 -0.0223833 1.35454)
(0.0362575 -0.0273661 1.264)
(0.0342663 -0.0342661 1.41081)
(0.0281266 -0.0399451 1.50483)
(0.0183895 -0.0440016 1.56049)
(0.00638427 -0.0461084 1.5863)
(-0.00638353 -0.0461085 1.5863)
(-0.0183888 -0.0440016 1.56049)
(-0.0281259 -0.0399451 1.50483)
(-0.0342657 -0.0342662 1.41081)
(-0.036257 -0.0273662 1.264)
(0.0294381 -0.0294379 1.13916)
(0.0273663 -0.0362573 1.264)
(0.0223834 -0.0419315 1.35454)
(0.0146494 -0.0461083 1.41276)
(0.00509697 -0.0482992 1.44101)
(-0.00509615 -0.0482992 1.44101)
(-0.0146486 -0.0461083 1.41276)
(-0.0223827 -0.0419316 1.35454)
(-0.0273656 -0.0362574 1.264)
(-0.0294375 -0.0294381 1.13916)
(0.00588801 0.0058869 1.1525)
(0.00666893 0.00822767 1.28429)
(0.00621166 0.0105485 1.38419)
(0.00436713 0.0124141 1.45073)
(0.00157005 0.0134341 1.48378)
(-0.00156835 0.0134342 1.48378)
(-0.00436548 0.0124142 1.45073)
(-0.00621012 0.0105487 1.38419)
(-0.00666755 0.00822802 1.28429)
(-0.00588689 0.00588732 1.1525)
(0.00822864 0.00666769 1.28429)
(0.00974654 0.00974547 1.44582)
(0.00909294 0.0125542 1.55604)
(0.00635869 0.0146732 1.62466)
(0.00227403 0.0157974 1.6575)
(-0.00227253 0.0157974 1.6575)
(-0.00635722 0.0146733 1.62466)
(-0.00909158 0.0125544 1.55604)
(-0.00974532 0.00974573 1.44582)
(-0.00822764 0.00666803 1.28429)
(0.0105493 0.00621038 1.38419)
(0.0125551 0.00909183 1.55604)
(0.0115905 0.0115896 1.66971)
(0.00803016 0.0133817 1.73809)
(0.00285583 0.0142907 1.77002)
(-0.00285446 0.0142907 1.77002)
(-0.00802883 0.0133818 1.73809)
(-0.0115893 0.0115897 1.66971)
(-0.012554 0.009092 1.55604)
(-0.0105484 0.00621061 1.38419)
(0.0124148 0.00436585 1.45073)
(0.014674 0.00635756 1.62466)
(0.0133826 0.00802916 1.73809)
(0.00917256 0.00917164 1.80489)
(0.00324096 0.00969841 1.83542)
(-0.00323968 0.00969842 1.83542)
(-0.00917132 0.00917167 1.80489)
(-0.0133814 0.00802922 1.73809)
(-0.014673 0.00635765 1.62466)
(-0.012414 0.00436598 1.45073)
(0.0134347 0.0015688 1.48378)
(0.0157981 0.00227293 1.6575)
(0.0142915 0.00285483 1.77002)
(0.00969929 0.00324003 1.83542)
(0.00340566 0.00340476 1.86469)
(-0.00340441 0.00340476 1.86469)
(-0.00969808 0.00324003 1.83542)
(-0.0142904 0.00285484 1.77002)
(-0.0157972 0.00227295 1.6575)
(-0.0134339 0.00156884 1.48378)
(0.0134347 -0.00156954 1.48378)
(0.0157981 -0.00227359 1.6575)
(0.0142915 -0.00285543 1.77002)
(0.00969929 -0.00324059 1.83542)
(0.00340566 -0.00340531 1.86469)
(-0.00340441 -0.00340531 1.86469)
(-0.00969808 -0.00324061 1.83542)
(-0.0142904 -0.00285546 1.77002)
(-0.0157971 -0.00227362 1.6575)
(-0.0134339 -0.00156959 1.48378)
(0.0124147 -0.00436656 1.45073)
(0.014674 -0.0063582 1.62466)
(0.0133826 -0.00802974 1.73809)
(0.00917255 -0.00917219 1.80489)
(0.00324095 -0.00969895 1.83542)
(-0.00323967 -0.00969896 1.83542)
(-0.0091713 -0.00917223 1.80489)
(-0.0133814 -0.00802981 1.73809)
(-0.0146729 -0.00635831 1.62466)
(-0.0124139 -0.00436671 1.45073)
(0.0105492 -0.00621105 1.38419)
(0.012555 -0.00909243 1.55604)
(0.0115905 -0.0115901 1.66971)
(0.00803013 -0.0133822 1.73809)
(0.00285582 -0.0142912 1.77002)
(-0.00285446 -0.0142912 1.77002)
(-0.00802881 -0.0133823 1.73809)
(-0.0115893 -0.0115902 1.66971)
(-0.0125539 -0.00909261 1.55604)
(-0.0105483 -0.00621129 1.38419)
(0.00822848 -0.00666829 1.28429)
(0.00974642 -0.00974601 1.44581)
(0.00909286 -0.0125547 1.55604)
(0.00635864 -0.0146736 1.62466)
(0.00227401 -0.0157978 1.6575)
(-0.00227252 -0.0157979 1.6575)
(-0.00635719 -0.0146737 1.62466)
(-0.0090915 -0.0125549 1.55604)
(-0.00974521 -0.00974627 1.44582)
(-0.00822749 -0.00666864 1.28429)
(0.00588782 -0.00588739 1.1525)
(0.00666877 -0.00822811 1.28429)
(0.00621154 -0.0105489 1.38419)
(0.00436706 -0.0124144 1.45073)
(0.00157002 -0.0134345 1.48378)
(-0.00156834 -0.0134345 1.48378)
(-0.00436543 -0.0124146 1.45073)
(-0.00621002 -0.0105491 1.38419)
(-0.0066674 -0.00822846 1.28429)
(-0.00588671 -0.00588781 1.1525)
(0.00543562 0.00543356 1.11571)
(0.00524582 0.00684329 1.25313)
(0.00443834 0.0080991 1.35941)
(0.00298451 0.00905812 1.43137)
(0.0010536 0.00957297 1.46752)
(-0.00105045 0.00957307 1.46752)
(-0.00298146 0.00905841 1.43138)
(-0.0044355 0.00809957 1.35941)
(-0.00524327 0.00684395 1.25313)
(-0.00543355 0.00543434 1.11572)
(0.0068451 0.00524352 1.25313)
(0.00679964 0.00679765 1.42459)
(0.00584843 0.00821021 1.54502)
(0.00395489 0.00927394 1.62184)
(0.00139615 0.00983164 1.65919)
(-0.00139337 0.00983171 1.65919)
(-0.0039522 0.00927415 1.62184)
(-0.00584591 0.00821056 1.54502)
(-0.00679738 0.00679814 1.4246)
(-0.00684325 0.00524415 1.25313)
(0.00810062 0.00443597 1.35941)
(0.00821193 0.00584638 1.54502)
(0.00710871 0.0071069 1.67214)
(0.00479729 0.0080154 1.75082)
(0.00168716 0.00846001 1.78822)
(-0.00168465 0.00846005 1.78822)
(-0.00479485 0.00801552 1.75083)
(-0.00710644 0.00710712 1.67214)
(-0.0082099 0.0058467 1.54502)
(-0.00809899 0.00443641 1.35941)
(0.00905942 0.00298212 1.43137)
(0.00927545 0.00395281 1.62183)
(0.00801703 0.00479544 1.75082)
(0.00536303 0.00536133 1.8289)
(0.00187141 0.00557815 1.86496)
(-0.00186905 0.00557817 1.86496)
(-0.00536075 0.00536139 1.8289)
(-0.0080149 0.00479555 1.75083)
(-0.00927358 0.00395299 1.62184)
(-0.00905792 0.00298237 1.43138)
(0.00957409 0.00105127 1.46752)
(0.009833 0.0013941 1.65919)
(0.00846153 0.00168532 1.78822)
(0.00557977 0.00186969 1.86496)
(0.00192389 0.00192224 1.89882)
(-0.00192161 0.00192224 1.89882)
(-0.00557756 0.0018697 1.86496)
(-0.00845947 0.00168535 1.78822)
(-0.0098312 0.00139415 1.65919)
(-0.00957265 0.00105134 1.46752)
(0.00957404 -0.00105265 1.46752)
(0.00983297 -0.00139533 1.65919)
(0.00846151 -0.00168644 1.78822)
(0.00557976 -0.00187074 1.86496)
(0.00192388 -0.00192326 1.89882)
(-0.00192161 -0.00192326 1.89882)
(-0.00557755 -0.00187077 1.86496)
(-0.00845945 -0.00168648 1.78822)
(-0.00983117 -0.0013954 1.65919)
(-0.0095726 -0.00105275 1.46752)
(0.00905929 -0.00298346 1.43137)
(0.00927536 -0.00395401 1.62183)
(0.00801697 -0.00479652 1.75082)
(0.005363 -0.00536235 1.8289)
(0.00187139 -0.00557915 1.86496)
(-0.00186905 -0.00557917 1.86496)
(-0.00536072 -0.00536242 1.8289)
(-0.00801485 -0.00479665 1.75083)
(-0.00927349 -0.0039542 1.62184)
(-0.00905779 -0.00298374 1.43138)
(0.00810041 -0.00443722 1.3594)
(0.00821177 -0.0058475 1.54502)
(0.00710861 -0.00710792 1.67214)
(0.00479723 -0.00801635 1.75082)
(0.00168714 -0.00846093 1.78822)
(-0.00168464 -0.00846097 1.78822)
(-0.0047948 -0.00801648 1.75083)
(-0.00710634 -0.00710815 1.67214)
(-0.00820975 -0.00584783 1.54502)
(-0.00809878 -0.00443768 1.35941)
(0.0068448 -0.00524464 1.25313)
(0.00679941 -0.00679865 1.42459)
(0.00584828 -0.00821111 1.54502)
(0.0039548 -0.00927478 1.62183)
(0.00139612 -0.00983246 1.65919)
(-0.00139335 -0.00983252 1.65919)
(-0.00395212 -0.00927499 1.62184)
(-0.00584578 -0.00821147 1.54502)
(-0.00679716 -0.00679915 1.4246)
(-0.00684297 -0.00524529 1.25313)
(0.00543527 -0.00543448 1.11571)
(0.00524553 -0.00684411 1.25313)
(0.00443813 -0.00809983 1.3594)
(0.00298438 -0.0090588 1.43137)
(0.00105355 -0.00957362 1.46752)
(-0.00105042 -0.00957372 1.46752)
(-0.00298135 -0.00905909 1.43137)
(-0.00443531 -0.0081003 1.35941)
(-0.00524299 -0.00684477 1.25313)
(-0.00543321 -0.00543526 1.11572)
(0.000805353 0.000801793 1.12197)
(0.00102089 0.00118796 1.25977)
(0.00102401 0.00161257 1.36709)
(0.0007523 0.00197586 1.44026)
(0.000277581 0.00218097 1.47719)
(-0.000272144 0.00218114 1.47719)
(-0.000747037 0.00197637 1.44026)
(-0.0010191 0.00161339 1.3671)
(-0.00101649 0.00118911 1.25978)
(-0.000801795 0.000803145 1.12198)
(0.0011911 0.00101689 1.25977)
(0.00159662 0.00159316 1.4327)
(0.0016052 0.00217318 1.55558)
(0.00117429 0.00264345 1.63483)
(0.000430192 0.00290225 1.67366)
(-0.000425382 0.00290237 1.67366)
(-0.00116963 0.00264382 1.63483)
(-0.00160085 0.0021738 1.55558)
(-0.00159272 0.00159403 1.43271)
(-0.00118792 0.001018 1.25978)
(0.0016152 0.00101989 1.36709)
(0.00217616 0.00160163 1.55558)
(0.00216855 0.00216541 1.68669)
(0.00157377 0.00260766 1.76898)
(0.000572733 0.00284123 1.80844)
(-0.00056838 0.0028413 1.80844)
(-0.00156955 0.00260789 1.76898)
(-0.00216461 0.0021658 1.68669)
(-0.00217267 0.0016022 1.55558)
(-0.0016124 0.00102066 1.3671)
(0.00197811 0.000748156 1.44026)
(0.00264606 0.00117068 1.63483)
(0.00261049 0.00157056 1.76898)
(0.00187454 0.00187159 1.85139)
(0.000676638 0.00200609 1.88974)
(-0.000672572 0.00200612 1.88974)
(-0.0018706 0.00187171 1.85139)
(-0.00260683 0.00157076 1.76898)
(-0.00264284 0.001171 1.63483)
(-0.00197552 0.000748606 1.44027)
(0.00218289 0.000273539 1.47718)
(0.00290459 0.000426634 1.67366)
(0.00284385 0.000569529 1.80844)
(0.00200888 0.000673661 1.88974)
(0.00071426 0.000711399 1.92555)
(-0.000710333 0.000711408 1.92555)
(-0.00200507 0.000673692 1.88974)
(-0.00284031 0.000569587 1.80845)
(-0.00290149 0.000426725 1.67366)
(-0.00218042 0.000273675 1.47719)
(0.00218282 -0.000275964 1.47718)
(0.00290453 -0.000428784 1.67366)
(0.00284382 -0.000571483 1.80844)
(0.00200886 -0.000675493 1.88974)
(0.000714253 -0.000713177 1.92555)
(-0.000710329 -0.00071319 1.92555)
(-0.00200505 -0.000675538 1.88974)
(-0.00284028 -0.000571563 1.80844)
(-0.00290143 -0.000428906 1.67366)
(-0.00218034 -0.000276132 1.47719)
(0.00197788 -0.000750504 1.44026)
(0.00264589 -0.00117276 1.63482)
(0.00261038 -0.00157245 1.76898)
(0.00187448 -0.00187337 1.85139)
(0.000676615 -0.00200781 1.88974)
(-0.000672561 -0.00200785 1.88974)
(-0.00187055 -0.0018735 1.85139)
(-0.00260673 -0.00157268 1.76898)
(-0.00264267 -0.00117311 1.63483)
(-0.0019753 -0.000750984 1.44026)
(0.00161483 -0.00102208 1.36709)
(0.00217588 -0.00160357 1.55558)
(0.00216836 -0.00216717 1.68668)
(0.00157366 -0.00260932 1.76898)
(0.000572692 -0.00284283 1.80844)
(-0.000568359 -0.0028429 1.80844)
(-0.00156946 -0.00260955 1.76898)
(-0.00216444 -0.00216758 1.68669)
(-0.0021724 -0.00160417 1.55558)
(-0.00161203 -0.00102287 1.3671)
(0.00119057 -0.00101885 1.25977)
(0.00159622 -0.0015949 1.4327)
(0.00160493 -0.00217475 1.55558)
(0.00117413 -0.0026449 1.63482)
(0.000430127 -0.00290365 1.67366)
(-0.000425351 -0.00290377 1.67366)
(-0.0011695 -0.00264528 1.63483)
(-0.0016006 -0.00217538 1.55558)
(-0.00159234 -0.00159579 1.4327)
(-0.00118741 -0.00101999 1.25978)
(0.000804736 -0.000803385 1.12197)
(0.00102037 -0.00118939 1.25977)
(0.00102364 -0.00161383 1.36709)
(0.000752069 -0.00197703 1.44026)
(0.000277488 -0.00218209 1.47719)
(-0.0002721 -0.00218226 1.47719)
(-0.00074685 -0.00197754 1.44026)
(-0.00101877 -0.00161466 1.3671)
(-0.001016 -0.00119054 1.25978)
(-0.000801195 -0.00080475 1.12198)
(0.00128727 0.00128147 1.11323)
(0.00121843 0.00159394 1.25238)
(0.00101682 0.00186691 1.3611)
(0.000679683 0.00207404 1.43543)
(0.000241762 0.00218539 1.47301)
(-0.000232965 0.00218566 1.47301)
(-0.000671169 0.00207486 1.43543)
(-0.00100889 0.00186824 1.36111)
(-0.00121133 0.00159578 1.25239)
(-0.00128152 0.00128364 1.11325)
(0.00159906 0.0012119 1.25238)
(0.00154695 0.00154128 1.42749)
(0.00131175 0.00184169 1.55249)
(0.000883036 0.00207202 1.63344)
(0.000313515 0.00219497 1.67322)
(-0.000305685 0.00219517 1.67323)
(-0.000875451 0.00207262 1.63345)
(-0.00130466 0.0018427 1.5525)
(-0.00154061 0.0015427 1.4275)
(-0.0015939 0.00121372 1.2524)
(0.00187123 0.00101009 1.3611)
(0.0018466 0.00130588 1.55249)
(0.00158301 0.00157784 1.6864)
(0.00106837 0.00178313 1.77092)
(0.000378218 0.0018884 1.8116)
(-0.000371109 0.00188853 1.8116)
(-0.00106149 0.00178351 1.77092)
(-0.00157659 0.00157849 1.68641)
(-0.0018409 0.00130682 1.5525)
(-0.00186666 0.00101135 1.36112)
(0.00207773 0.000672901 1.43542)
(0.00207632 0.000877096 1.63344)
(0.0017878 0.00106308 1.77092)
(0.00120285 0.00119799 1.85591)
(0.000423231 0.00125508 1.89561)
(-0.000416587 0.00125513 1.89562)
(-0.00119641 0.00119819 1.85591)
(-0.0017818 0.00106343 1.77092)
(-0.00207104 0.000877628 1.63345)
(-0.0020735 0.000673651 1.43544)
(0.00218855 0.000235147 1.473)
(0.00219882 0.000307666 1.67322)
(0.00189273 0.000372941 1.8116)
(0.00125968 0.000418328 1.89561)
(0.000437267 0.000432555 1.93272)
(-0.000430846 0.000432572 1.93272)
(-0.00125345 0.000418383 1.89562)
(-0.00188694 0.000373042 1.8116)
(-0.00219375 0.000307828 1.67323)
(-0.0021845 0.000235385 1.47301)
(0.00218842 -0.000239216 1.473)
(0.00219873 -0.000311277 1.67322)
(0.00189267 -0.000376219 1.8116)
(0.00125965 -0.000421398 1.89561)
(0.000437255 -0.000435529 1.93272)
(-0.00043084 -0.000435552 1.93272)
(-0.00125342 -0.00042147 1.89562)
(-0.00188689 -0.000376347 1.8116)
(-0.00219366 -0.000311467 1.67323)
(-0.00218437 -0.000239473 1.47301)
(0.00207735 -0.000676841 1.43542)
(0.00207604 -0.000880595 1.63344)
(0.00178761 -0.00106625 1.77091)
(0.00120275 -0.00120097 1.85591)
(0.000423194 -0.00125796 1.89561)
(-0.000416568 -0.00125803 1.89561)
(-0.00119633 -0.00120118 1.85591)
(-0.00178163 -0.00106663 1.77092)
(-0.00207077 -0.000881152 1.63345)
(-0.00207313 -0.000677606 1.43543)
(0.00187061 -0.00101376 1.3611)
(0.00184612 -0.00130914 1.55249)
(0.0015827 -0.0015808 1.6864)
(0.00106819 -0.0017859 1.77091)
(0.000378147 -0.00189108 1.8116)
(-0.000371075 -0.00189121 1.8116)
(-0.00106134 -0.00178629 1.77092)
(-0.0015763 -0.00158147 1.6864)
(-0.00184045 -0.00131011 1.5525)
(-0.00186605 -0.00101504 1.36111)
(0.00159819 -0.0012152 1.25237)
(0.00154627 -0.0015442 1.42749)
(0.00131129 -0.00184432 1.55249)
(0.000882759 -0.00207445 1.63344)
(0.000313404 -0.00219731 1.67322)
(-0.000305636 -0.00219752 1.67322)
(-0.000875232 -0.00207507 1.63344)
(-0.00130425 -0.00184534 1.5525)
(-0.00153998 -0.00154563 1.4275)
(-0.00159306 -0.00121701 1.25239)
(0.00128623 -0.00128415 1.11322)
(0.00121756 -0.00159633 1.25237)
(0.0010162 -0.00186903 1.3611)
(0.000679289 -0.00207599 1.43542)
(0.000241599 -0.00218726 1.473)
(-0.000232899 -0.00218753 1.473)
(-0.000670867 -0.00207682 1.43543)
(-0.00100835 -0.00187036 1.36111)
(-0.00121053 -0.00159816 1.25239)
(-0.00128054 -0.0012863 1.11324)
(0.000173575 0.000164726 1.11513)
(0.000224039 0.000250946 1.25436)
(0.0002267 0.000346732 1.3633)
(0.000168491 0.000429202 1.43786)
(6.60759e-05 0.000476186 1.4756)
(-5.27591e-05 0.000476602 1.4756)
(-0.000155608 0.000430449 1.43787)
(-0.00021471 0.000348739 1.36332)
(-0.000213318 0.000253717 1.25439)
(-0.000164912 0.000167956 1.11516)
(0.000258829 0.000214037 1.25436)
(0.000351779 0.000343016 1.42978)
(0.000354733 0.000472483 1.55528)
(0.000261071 0.000578257 1.63671)
(9.91845e-05 0.000637403 1.67678)
(-8.72247e-05 0.000637712 1.67678)
(-0.00024949 0.000579192 1.63671)
(-0.000343929 0.00047403 1.55529)
(-0.000342127 0.000345177 1.4298)
(-0.000250982 0.000216769 1.25439)
(0.000353411 0.00021636 1.3633)
(0.00048009 0.000345647 1.55527)
(0.00047924 0.000471198 1.68997)
(0.000350068 0.000571971 1.77522)
(0.000130933 0.000627341 1.81633)
(-0.000120015 0.000627534 1.81633)
(-0.000339493 0.000572564 1.77522)
(-0.000469388 0.000472208 1.68999)
(-0.000471365 0.000347098 1.55529)
(-0.000346406 0.000218286 1.36332)
(0.000434932 0.000158066 1.43785)
(0.000584952 0.000251874 1.6367)
(0.000579233 0.000341829 1.77521)
(0.000420418 0.000412851 1.86112)
(0.00015566 0.000447945 1.90133)
(-0.000145426 0.000448041 1.90133)
(-0.000410503 0.000413163 1.86112)
(-0.000570012 0.000342383 1.77523)
(-0.000576839 0.000252702 1.63672)
(-0.000428439 0.000159219 1.43788)
(0.000481097 5.59097e-05 1.47558)
(0.000643407 9.01307e-05 1.67677)
(0.00063408 0.00012273 1.81632)
(0.000455119 0.000148022 1.90133)
(0.000165901 0.000158557 1.93895)
(-0.000156003 0.000158585 1.93895)
(-0.00044552 0.000148111 1.90133)
(-0.000625166 0.000122893 1.81633)
(-0.000635601 9.03876e-05 1.67678)
(-0.000474876 5.62859e-05 1.47561)
(0.00048089 -6.23614e-05 1.47558)
(0.000643251 -9.58739e-05 1.67677)
(0.000633979 -0.00012795 1.81632)
(0.000455064 -0.000152913 1.90133)
(0.000165877 -0.000163297 1.93895)
(-0.000155997 -0.000163334 1.93895)
(-0.000445482 -0.000153027 1.90133)
(-0.000625081 -0.000128149 1.81633)
(-0.000635459 -9.61613e-05 1.67678)
(-0.00047468 -6.27408e-05 1.47561)
(0.000434308 -0.000164315 1.43785)
(0.000584479 -0.00025744 1.63669)
(0.000578922 -0.000346888 1.77521)
(0.000420239 -0.000417591 1.86111)
(0.000155583 -0.000452542 1.90133)
(-0.000145409 -0.000452646 1.90133)
(-0.00041038 -0.000417925 1.86112)
(-0.000569753 -0.000347472 1.77522)
(-0.000576413 -0.000258291 1.63671)
(-0.000427852 -0.000165461 1.43787)
(0.000352398 -0.000222191 1.36329)
(0.000479298 -0.000350849 1.55527)
(0.000478703 -0.000475916 1.68997)
(0.000349745 -0.000576381 1.77521)
(0.000130792 -0.000631609 1.81632)
(-0.000119987 -0.000631808 1.81632)
(-0.000339279 -0.00057699 1.77522)
(-0.000468953 -0.000476945 1.68998)
(-0.000470665 -0.000352307 1.55528)
(-0.000345467 -0.00022409 1.36331)
(0.000257411 -0.000219274 1.25435)
(0.000350652 -0.000347681 1.42977)
(0.000353945 -0.000476671 1.55527)
(0.000260578 -0.00058214 1.6367)
(9.89593e-05 -0.000641139 1.67677)
(-8.71903e-05 -0.00064145 1.67677)
(-0.000249181 -0.000583078 1.63671)
(-0.000343315 -0.000478216 1.55528)
(-0.000341159 -0.00034982 1.42979)
(-0.000249696 -0.000221946 1.25438)
(0.000171887 -0.000168985 1.11512)
(0.000222583 -0.000254762 1.25435)
(0.000225629 -0.00035011 1.36329)
(0.000167787 -0.000432318 1.43785)
(6.57436e-05 -0.000479166 1.47559)
(-5.2725e-05 -0.000479577 1.47559)
(-0.000155194 -0.00043355 1.43786)
(-0.000213911 -0.000352087 1.36331)
(-0.000212111 -0.000257475 1.25438)
(-0.000163429 -0.000172123 1.11515)
(0.000331665 0.000319078 1.1129)
(0.000313429 0.000397685 1.25249)
(0.000261663 0.000465945 1.36178)
(0.000177041 0.000517418 1.43663)
(6.82816e-05 0.000545269 1.47453)
(-4.93959e-05 0.000545853 1.47454)
(-0.000158786 0.000519167 1.43665)
(-0.000244699 0.000468743 1.36181)
(-0.000298301 0.000401517 1.25253)
(-0.000319474 0.000323479 1.11295)
(0.000409043 0.000299125 1.25248)
(0.000393174 0.000380484 1.42847)
(0.000331968 0.000453719 1.55449)
(0.000224735 0.000509422 1.63633)
(8.45402e-05 0.000539295 1.67663)
(-6.73597e-05 0.000539736 1.67663)
(-0.00020811 0.000510749 1.63635)
(-0.000316482 0.000455901 1.55451)
(-0.000379372 0.000383502 1.4285)
(-0.000397847 0.000302883 1.25253)
(0.000475659 0.000246825 1.36177)
(0.000464833 0.000318766 1.55448)
(0.00039568 0.000383898 1.68986)
(0.000267696 0.000432801 1.77563)
(9.91059e-05 0.000458184 1.81702)
(-8.32911e-05 0.000458462 1.81703)
(-0.000252387 0.000433651 1.77564)
(-0.000381435 0.000385333 1.68989)
(-0.000452241 0.000320804 1.55452)
(-0.000465566 0.000249483 1.36182)
(0.00052581 0.000162056 1.43661)
(0.000519258 0.00021135 1.63632)
(0.00044349 0.000255612 1.77562)
(0.000298983 0.000287838 1.86213)
(0.000109345 0.000302075 1.90266)
(-9.44599e-05 0.000302214 1.90266)
(-0.000284567 0.000288285 1.86214)
(-0.000430094 0.000256398 1.77564)
(-0.000507486 0.00021251 1.63635)
(-0.000516399 0.000163641 1.43666)
(0.000552494 5.3659e-05 1.4745)
(0.000548138 7.13606e-05 1.67661)
(0.000468117 8.70721e-05 1.81701)
(0.000312651 9.80968e-05 1.90266)
(0.00011263 0.000101805 1.9406)
(-9.82248e-05 0.000101844 1.9406)
(-0.000298684 9.82184e-05 1.90267)
(-0.000455153 8.72932e-05 1.81703)
(-0.000536796 7.17041e-05 1.67664)
(-0.00054346 5.41521e-05 1.47454)
(0.000552176 -6.32064e-05 1.4745)
(0.00054789 -7.99467e-05 1.67661)
(0.000467949 -9.49265e-05 1.81701)
(0.000312551 -0.000105482 1.90265)
(0.000112578 -0.000108975 1.9406)
(-9.82299e-05 -0.000109032 1.9406)
(-0.000298639 -0.000105657 1.90267)
(-0.000455037 -9.52303e-05 1.81703)
(-0.000536594 -8.03814e-05 1.67664)
(-0.000543178 -6.37736e-05 1.47454)
(0.000524851 -0.000171308 1.43661)
(0.000518504 -0.000219675 1.63631)
(0.000442971 -0.000263226 1.77562)
(0.00029866 -0.000294997 1.86212)
(0.000109179 -0.00030903 1.90266)
(-9.44785e-05 -0.000309184 1.90266)
(-0.000284422 -0.000295489 1.86213)
(-0.000429742 -0.00026408 1.77564)
(-0.000506882 -0.000220903 1.63634)
(-0.000515557 -0.000172936 1.43665)
(0.000474102 -0.000255465 1.36176)
(0.000463569 -0.000326554 1.55447)
(0.000394784 -0.000391005 1.68985)
(0.000267117 -0.000439466 1.77562)
(9.8803e-05 -0.000464645 1.81701)
(-8.3331e-05 -0.000464932 1.81702)
(-0.00025214 -0.000440342 1.77563)
(-0.000380851 -0.000392475 1.68988)
(-0.000451259 -0.000328613 1.55451)
(-0.000464229 -0.000258108 1.3618)
(0.000406864 -0.0003069 1.25246)
(0.000391378 -0.000387479 1.42845)
(0.000330656 -0.000460039 1.55447)
(0.000223855 -0.0005153 1.63632)
(8.40652e-05 -0.000544955 1.67661)
(-6.7438e-05 -0.000545395 1.67662)
(-0.000207767 -0.00051662 1.63633)
(-0.000315675 -0.000462199 1.5545)
(-0.000378036 -0.000390442 1.42849)
(-0.000396036 -0.000310551 1.25251)
(0.000329078 -0.000325423 1.11288)
(0.000311117 -0.000403429 1.25247)
(0.000259889 -0.000471061 1.36176)
(0.000175799 -0.000522151 1.43661)
(6.75907e-05 -0.000549791 1.47451)
(-4.95341e-05 -0.000550358 1.47452)
(-0.000158347 -0.000523844 1.43663)
(-0.000243678 -0.000473764 1.36179)