/*--------------------------------*- C++ -*----------------------------------*\
| =========                 |                                                 |
| \\      /  F ield         | OpenFOAM: The Open Source CFD Toolbox           |
|  \\    /   O peration     | Version:  2406                                  |
|   \\  /    A nd           | Website:  www.openfoam.com                      |
|    \\/     M anipulation  |                                                 |
\*---------------------------------------------------------------------------*/
FoamFile
{
    version     2.0;
    format      ascii;
    arch        "LSB;label=32;scalar=64";
    class       volScalarField;
    location    "350";
    object      div(phi);
}
// * * * * * * * * * * * * * * * * * * * * * * * * * * * * * * * * * * * * * //

dimensions      [0 0 -1 0 0 0 0];

internalField   nonuniform List<scalar> 
25000
(
0.138562
-0.0048417
-0.00270728
-0.00166475
-0.000799808
-0.000540513
-0.000355971
-0.000202073
-0.000310711
-0.000378753
-0.000937659
-0.000443379
-0.00101572
-0.000854929
-0.00081996
-0.000390535
-0.000373889
-0.000296651
-0.000232711
-0.000346829
0.00137562
2.86129e-05
-0.000874668
-0.000737197
-0.000586081
-0.000512627
-0.000323071
-0.000277377
-0.000295333
-0.000191181
3.60604e-05
-7.27965e-05
-0.000128015
-0.000543661
-0.000526846
-0.000359243
-0.000348519
-0.000306977
-0.00020634
-0.000224523
0.000737234
0.000369652
-0.000327385
-0.000292219
-0.000335623
-0.0003591
-0.00026775
-0.000219263
-0.000293498
-0.000176008
4.01973e-05
1.85983e-05
0.000137865
-0.000221912
-0.000223616
-0.000212304
-0.000219581
-0.000263573
-0.000133414
-0.00021636
0.000315049
0.00037899
-4.51486e-05
5.0469e-05
-0.000110129
-0.000101468
-0.000119026
-8.03456e-05
-0.00021736
-0.000139507
6.40343e-05
0.000127242
0.000249113
3.65287e-05
1.86848e-05
7.87774e-06
-6.44382e-05
-8.38214e-05
-9.14605e-05
-0.000146312
5.19164e-05
0.000263999
0.000137644
1.77477e-06
3.33113e-05
-0.00010106
2.16422e-05
-9.53908e-05
-0.000129942
-0.000202369
-0.000162556
-0.000147233
-0.000117529
-0.000120004
-0.000182894
-9.82568e-05
-0.000138629
-8.88688e-05
-0.000186541
-0.000271139
0.00106244
0.000147916
-0.000130912
-0.000152734
0.000106929
-9.40756e-06
6.57743e-05
0.000171128
-0.000274273
0.000136416
0.000807176
0.000210147
-9.36902e-05
-4.58665e-05
-0.000243194
2.98364e-05
-8.54989e-05
-0.000148008
4.70798e-05
1.85501e-05
0.00159679
0.000489371
-9.53552e-05
-5.41867e-05
-3.33897e-05
-0.000125213
-2.21318e-05
7.60795e-05
-4.7697e-05
0.000219153
0.000794948
0.000345567
0.000389064
3.56554e-05
-4.66884e-05
3.62972e-05
2.21356e-06
2.00523e-05
0.000111072
0.000197624
0.00118236
0.00068287
0.000176069
0.000172736
8.26929e-05
1.62057e-05
5.28239e-05
8.97968e-05
0.00012063
0.000175964
0.000712987
0.000403519
0.000472346
0.000159944
0.000138231
8.00845e-05
8.28534e-05
0.000122939
9.85753e-05
0.000217891
0.000831209
0.000566428
0.000258691
0.00032213
0.000147512
0.000179711
0.000123561
9.24044e-05
0.000184098
0.000153338
0.000536722
0.000393814
0.00038939
0.000262539
0.000267907
0.000171312
0.000150023
0.00017253
3.43626e-05
0.000267736
0.000452525
0.000215546
0.000338892
0.000209911
0.000236667
0.000190209
0.000162801
5.85098e-05
7.10766e-05
-1.5919e-05
0.000337185
0.00014333
0.000187113
0.000152803
0.000121208
0.000133447
0.000133211
0.000206974
-4.98614e-05
0.000288349
-0.000998515
-0.000782895
-0.00050704
-0.000378672
-0.000163739
-1.29042e-05
-1.34315e-05
0.00025972
-0.000129202
-3.71659e-05
-0.000661912
-0.00033728
-0.000405017
-0.000168988
-0.000166314
5.07524e-05
0.000152487
0.000134766
0.000227152
-0.000168909
0.000144962
-0.000124678
-0.000230433
-0.000165173
-6.75605e-05
1.48846e-05
0.000118449
0.000214577
0.000158481
3.95242e-05
8.6476e-05
-1.10746e-05
4.59097e-06
-7.6595e-05
-4.57655e-05
6.10703e-05
0.000140129
0.000180779
0.000246501
8.43956e-06
0.000339991
0.000226039
1.68574e-06
3.09584e-05
3.88901e-05
6.21599e-05
0.000197929
0.000232848
0.000230184
4.69829e-06
0.000344881
0.00017306
0.000213701
6.66572e-05
0.00012688
0.00017836
0.000224923
0.000265264
0.000284553
9.96471e-06
0.000507664
0.000366404
0.000189683
0.000305611
0.000239761
0.000299955
0.000400938
0.000355259
0.00034174
4.64911e-05
0.000536398
0.000391393
0.000387646
0.000371268
0.000381118
0.000480989
0.000409308
0.000461904
0.00033015
0.000166896
0.000537637
0.000345183
0.000519333
0.000344394
0.000517455
0.000358572
0.000558961
0.000354121
0.000399377
-4.16658e-05
0.000578545
0.000173525
0.000264526
0.000224909
0.000115771
0.000207007
0.00015794
0.000202124
-9.02183e-06
8.96637e-06
0.00262369
0.00191854
0.00162081
0.00148962
0.00137444
0.00140376
0.00133812
0.00181933
0.00193557
0.00146595
0.00170166
0.00153016
0.00128108
0.00123323
0.000949226
0.00113915
0.00124373
0.00122381
0.00159604
0.000673202
0.00174589
0.00141447
0.000978907
0.000982141
0.00091495
0.000817469
0.00103955
0.00118672
0.00104945
0.000561493
0.00121092
0.000984843
0.0011538
0.000802783
0.000681149
0.000832221
0.000832831
0.000870682
0.00120498
0.000392937
0.00144502
0.00124617
0.000691351
0.000778694
0.000720508
0.000555341
0.000908153
0.00100665
0.000845412
0.000460408
0.00108893
0.000780375
0.00106929
0.000727266
0.000691084
0.000883792
0.000839789
0.000879378
0.00115021
0.000344016
0.00142557
0.00138582
0.000953641
0.00115414
0.00105213
0.000955504
0.00127112
0.00127662
0.00106762
0.000555338
0.00139614
0.00133501
0.00146951
0.00128329
0.00119018
0.00139717
0.00130288
0.00132687
0.00145677
0.000568561
0.00210073
0.00169598
0.00154963
0.00123115
0.00130528
0.0011169
0.00150107
0.0014865
0.00150592
0.000988342
0.00156806
0.000794876
0.000531595
0.000465645
0.000375195
0.000592172
0.000747238
0.000823051
0.00130615
0.000511939
0.00218991
0.00212295
0.00167863
0.00156217
0.00136673
0.00163914
0.00143823
0.00204297
0.00245538
0.00101441
0.00129341
0.00155293
0.00133264
0.0012318
0.000960018
0.00116987
0.00140128
0.00141964
0.00176664
0.000416484
0.00104605
0.00135468
0.000994321
0.000991558
0.000928271
0.000879076
0.00117632
0.00130621
0.00113555
0.000182616
0.000670637
0.000900748
0.00112927
0.000801939
0.000701396
0.000902791
0.00093375
0.000961901
0.00128488
7.2881e-06
0.00089401
0.00116941
0.000645252
0.00078505
0.000761085
0.000585275
0.00106283
0.00112254
0.000824638
0.000143474
0.000609133
0.000679844
0.00109439
0.000772517
0.000739731
0.00104015
0.000973125
0.000966471
0.00126939
-1.01849e-05
0.00105693
0.00150563
0.0010461
0.00130962
0.00124281
0.00110595
0.00157019
0.00151687
0.00111724
0.0003437
0.00124232
0.00145165
0.00174059
0.00149752
0.00137268
0.00172834
0.00153803
0.00157911
0.00174975
0.0002484
0.00224946
0.00214094
0.00177026
0.00144483
0.00153404
0.00123703
0.00186793
0.00177239
0.00173957
0.00115206
0.00146799
0.000990694
0.000512278
0.000469285
0.000343175
0.000656026
0.000779371
0.000817061
0.00164043
3.40959e-05
0.00149151
0.00159614
0.00126981
0.00121978
0.00100541
0.00125505
0.000999301
0.00156647
0.00172348
0.00056232
0.000775047
0.00112726
0.00100044
0.000897685
0.000668007
0.000874759
0.0010608
0.00105049
0.00136387
0.00014289
0.000679879
0.00107314
0.000769445
0.000764953
0.000725666
0.000673496
0.00093833
0.00105737
0.000837614
3.71029e-05
0.000449601
0.000723011
0.000931874
0.00066456
0.000575759
0.000766354
0.000774564
0.000763733
0.00103893
-0.000106721
0.000616526
0.000983484
0.000561377
0.00067799
0.000667812
0.000498408
0.000913948
0.000951069
0.000615873
3.76622e-05
0.000457846
0.000578498
0.000946782
0.000687219
0.000654228
0.000927389
0.000842974
0.000790452
0.0010502
-0.00010813
0.000785824
0.00128299
0.000912405
0.00114588
0.00109588
0.000963117
0.00136132
0.00129549
0.000871066
0.000208667
0.00103251
0.00122289
0.00149354
0.00129862
0.001182
0.00151192
0.0013043
0.00131368
0.00141491
0.00011985
0.00176745
0.00178249
0.00149331
0.001207
0.00131607
0.00100512
0.00157568
0.00141249
0.00136846
0.000799371
0.00124572
0.000848711
0.000472316
0.000423374
0.000265234
0.000528992
0.000560803
0.000576474
0.00116412
-0.000136741
0.00160135
0.00140503
0.00124507
0.00122061
0.00108922
0.00115189
0.00106718
0.00142168
0.00153205
0.00112587
0.00108353
0.0011501
0.00114829
0.000983797
0.000816737
0.000916388
0.000970602
0.000951867
0.00126801
0.00063579
0.000933186
0.00110917
0.000858166
0.000891971
0.000839355
0.000730004
0.000913434
0.00102956
0.000863987
0.000576265
0.000649228
0.00074846
0.00097188
0.000770821
0.000686685
0.000818277
0.000783445
0.000791764
0.0010478
0.000452144
0.000739037
0.000926355
0.000631615
0.000743641
0.000740526
0.000587931
0.000868008
0.00093289
0.00074324
0.000536021
0.000553485
0.000577608
0.000883736
0.000733845
0.000676907
0.000879549
0.000799108
0.000807472
0.00101416
0.00044452
0.000738018
0.00105326
0.000845972
0.000983517
0.000993418
0.000856336
0.00110557
0.00111472
0.000895269
0.000602441
0.000874777
0.000980206
0.00121061
0.00109047
0.00101244
0.00115344
0.00109989
0.00106782
0.00120194
0.000565939
0.00129771
0.00137297
0.00112952
0.00103618
0.000981044
0.000927621
0.001129
0.00118784
0.00112962
0.000917662
0.000956883
0.000652092
0.000477123
0.000403778
0.000403185
0.000524167
0.00065866
0.000702143
0.00109067
0.000502081
-0.000224639
0.000180675
9.13596e-05
0.000150377
6.43735e-05
0.000258608
0.000195443
0.000403484
0.000558754
3.96401e-05
-0.000425207
4.85994e-05
0.000128525
0.000109053
0.000143716
0.000229162
0.000366979
0.000426053
0.00044078
2.31587e-05
-0.000307528
0.000115063
8.93907e-05
0.000153205
0.000187885
0.000249429
0.000361283
0.000375388
0.000355148
3.00329e-06
-0.000366699
5.9176e-05
0.000191817
0.000164938
0.000195673
0.000287362
0.000317094
0.000343763
0.000385052
-1.80711e-05
-0.000236534
0.000181702
0.000107855
0.000209236
0.000254093
0.000226996
0.000399897
0.000390542
0.000271807
5.08472e-05
-0.000293212
6.93359e-05
0.000280154
0.00026723
0.000267087
0.000417097
0.00037446
0.000360345
0.000435842
1.02429e-05
-0.000167669
0.000397372
0.000338207
0.000434567
0.000494953
0.000419757
0.000586045
0.000557288
0.000368053
0.000142909
6.03208e-05
0.000363744
0.000591255
0.00054122
0.000502797
0.000632066
0.000567026
0.000539388
0.00058418
0.000108281
0.000224552
0.000746248
0.000515796
0.000527671
0.000502075
0.000447513
0.000612151
0.000584075
0.000532893
0.000343639
0.000167721
0.000240843
0.000204267
0.000165802
0.000163626
0.000238614
0.00025893
0.000239956
0.00043066
-2.88075e-05
0.00112568
0.000767298
0.000610469
0.000515051
0.000460261
0.000441153
0.0004167
0.000509922
0.000572271
0.00043811
0.000864237
0.000620692
0.000522191
0.00050423
0.000376529
0.000438353
0.000412364
0.000402771
0.00047818
0.000259463
0.00083139
0.000583333
0.000424995
0.000429496
0.000397436
0.000326859
0.000392261
0.000396575
0.000309045
0.000238779
0.000662437
0.000405988
0.000489707
0.000361147
0.0003106
0.000359995
0.000300149
0.000284091
0.000392351
0.00016786
0.000730956
0.000494415
0.000297974
0.000347384
0.000326056
0.000232241
0.000334561
0.000353469
0.000217639
0.000216775
0.000573577
0.000310915
0.000435217
0.000305776
0.000296067
0.00035953
0.00030211
0.000257398
0.000383617
0.000146254
0.000724005
0.000504983
0.000353808
0.000450355
0.000407266
0.000356733
0.000426379
0.000451931
0.000274868
0.00023748
0.000629425
0.000482816
0.000515466
0.000461648
0.000424956
0.00049138
0.000449244
0.000388386
0.000463903
0.000201915
0.000917578
0.000505646
0.000523447
0.000379996
0.000425046
0.000342564
0.000442179
0.000457611
0.000392596
0.00035021
0.000637119
0.000271659
0.000141856
0.000131785
8.50059e-05
0.000150943
0.000186018
0.000194806
0.000339077
0.000154429
-0.000236595
-0.000131552
-0.00013113
-0.000166943
-0.000159395
-4.55447e-05
-7.63746e-05
4.6337e-06
9.96143e-05
-0.000202382
-0.000100322
-5.52775e-06
-9.80871e-05
-9.47419e-06
-1.5763e-05
2.97125e-05
9.75593e-05
0.000121264
4.22068e-05
-0.000147525
-8.67445e-05
-7.076e-05
-3.60647e-05
-3.53423e-05
-1.18941e-05
4.27844e-05
6.96268e-05
3.70712e-05
2.95395e-05
-0.000166271
-6.09084e-05
-4.82596e-05
-4.52576e-05
-4.27698e-05
-1.26055e-05
2.07034e-05
3.3025e-05
2.92125e-05
1.89777e-05
-0.000182542
-1.79207e-05
-3.19781e-05
-6.6485e-05
-2.58279e-05
-6.56946e-06
-3.37243e-06
6.03798e-05
4.26769e-05
-4.96455e-05
-0.000143845
-4.32717e-05
-5.23722e-05
8.65661e-06
-2.70858e-05
1.88185e-05
6.58042e-05
5.67773e-05
1.12875e-05
5.59418e-05
-0.000183818
6.93429e-05
5.79411e-05
1.29782e-06
9.62539e-05
8.26965e-05
9.77201e-05
0.000157715
0.000143245
-2.93417e-06
-9.3251e-05
6.51262e-05
8.76512e-05
0.00012091
0.000115422
0.000118187
0.000219025
0.0001536
0.000142304
0.000143414
-0.000121
0.000263509
0.000120491
0.000171988
7.40218e-05
0.00018264
6.53679e-05
0.000230992
0.000146227
0.000123404
1.41159e-05
0.000123868
2.91238e-05
-4.53539e-05
-5.37529e-06
-6.76466e-05
1.51644e-05
-2.52549e-05
-3.43334e-05
3.99238e-05
-0.000194949
0.000520012
0.000322343
0.000320691
0.000268668
0.0002586
0.000245432
0.000255863
0.000245997
0.000333533
0.000312631
0.000448849
0.000366044
0.000310497
0.000317152
0.0002741
0.000266533
0.000253851
0.000262777
0.000231711
0.000226281
0.000360464
0.000267653
0.000245744
0.000254071
0.000233902
0.000218293
0.000222831
0.000197339
0.000200654
0.000198531
0.000246369
0.000178998
0.00022121
0.000187657
0.000180718
0.000184664
0.000160321
0.00016982
0.000191474
0.000166912
0.000254965
0.00017821
0.000125172
0.000161427
0.000156947
0.00013017
0.000162558
0.000164457
0.00013881
0.000174023
0.000161998
0.000101094
0.000167549
0.00013191
0.000137975
0.000160391
0.000138764
0.000136121
0.000185173
0.000147673
0.000223362
0.000172652
0.000131027
0.000181004
0.000172957
0.000157659
0.000178968
0.000199183
0.000149652
0.000178035
0.000174384
0.000164639
0.000194869
0.000181427
0.000179147
0.000191173
0.000195477
0.000168221
0.000215991
0.000169176
0.000290794
0.000181733
0.00018918
0.000155374
0.000157338
0.000158566
0.000168322
0.000210035
0.000184905
0.00021099
0.000186655
7.63068e-05
4.13627e-05
4.07537e-05
4.63929e-05
7.07127e-05
0.000111834
0.00012775
0.00018892
0.000185977
-0.000341299
-0.000186877
-0.000180569
-0.000196368
-0.000195084
-0.000106279
-0.000102403
-9.86509e-05
2.62786e-05
-0.000156812
-0.000285207
-0.000123657
-0.000158736
-9.22917e-05
-4.29234e-05
-4.4799e-05
2.84207e-05
7.27352e-05
-5.60668e-05
-7.15951e-05
-0.000265587
-0.000174696
-9.74862e-05
-9.20739e-05
-7.0739e-05
9.87185e-06
3.22711e-08
-4.16957e-05
2.82753e-05
-9.80563e-05
-0.000240053
-0.000113223
-0.000131082
-8.90532e-05
-4.45775e-05
-4.85737e-05
-1.13375e-05
1.44797e-05
-5.19355e-05
-8.22257e-05
-0.000220379
-0.00013519
-9.82113e-05
-7.69588e-05
-5.91865e-05
-1.77939e-05
-5.5414e-06
-3.15265e-05
-1.62515e-05
-8.26367e-05
-0.000212269
-0.000101613
-8.37079e-05
-6.27445e-05
-3.04358e-05
-1.77731e-05
-4.6399e-06
-4.72731e-07
-2.08289e-05
-7.88899e-05
-0.000173341
-6.65402e-05
-5.50012e-05
-2.31243e-05
-1.00949e-05
9.47119e-06
3.20164e-05
1.38234e-05
-6.21694e-06
-5.00041e-05
-0.000126642
-4.57692e-05
-9.55032e-06
-2.84934e-06
9.15839e-06
4.38827e-05
2.73517e-05
3.88357e-05
2.51771e-05
-5.00434e-05
-8.47907e-05
1.53026e-05
7.88958e-07
4.55059e-06
2.98391e-05
8.31112e-06
6.32816e-05
3.09413e-05
3.62408e-05
-6.54709e-06
-7.56354e-05
-3.44112e-05
-3.05163e-05
-1.58936e-05
-1.96343e-05
7.27974e-06
-4.44956e-06
-8.46203e-06
1.18177e-05
-6.77954e-05
0.000548687
0.000289966
0.000266419
0.000198466
0.000200282
0.000164124
0.000162286
0.000137711
0.000181413
0.000181866
0.0005029
0.000303195
0.000203311
0.000233628
0.000169965
0.000174748
0.000148419
0.00014319
0.000116063
0.00011951
0.000434342
0.000218266
0.000174442
0.000161569
0.000141477
0.000120491
0.00011641
9.31135e-05
8.58077e-05
9.70983e-05
0.0003549
0.000152242
0.00015401
0.000108956
9.29906e-05
8.97291e-05
6.53334e-05
6.4024e-05
8.00834e-05
6.88692e-05
0.00035796
0.00014804
7.62076e-05
8.61991e-05
6.88905e-05
4.6254e-05
5.8457e-05
5.9405e-05
3.56769e-05
7.01519e-05
0.000276587
8.68843e-05
0.000105648
4.59996e-05
5.90278e-05
5.48778e-05
4.33371e-05
3.1701e-05
6.85201e-05
4.43492e-05
0.00033837
0.000112438
5.07154e-05
9.50372e-05
5.86107e-05
6.48826e-05
6.60985e-05
7.96974e-05
3.80427e-05
6.40645e-05
0.000225978
0.000118359
8.71341e-05
7.69633e-05
7.65949e-05
8.90665e-05
8.03488e-05
6.205e-05
8.58192e-05
5.41986e-05
0.000363751
4.303e-05
0.000121461
4.02156e-05
8.44491e-05
4.95938e-05
7.70383e-05
8.27517e-05
6.61629e-05
8.16003e-05
0.000222361
3.71236e-05
-2.1438e-05
-6.69214e-06
-2.95357e-05
-3.22549e-06
9.836e-06
2.10447e-05
5.60976e-05
6.27959e-05
-0.000353552
-0.000233484
-0.000247587
-0.000270533
-0.000246859
-0.000173948
-0.000173771
-0.000156208
-7.92726e-05
-0.000234864
-0.000266335
-0.000199042
-0.000268005
-0.000165535
-0.000143605
-0.000109314
-5.05979e-05
-2.18304e-05
-0.000117999
-0.000154746
-0.000197734
-0.000225134
-0.000177385
-0.000175878
-0.000145069
-7.49659e-05
-7.55729e-05
-0.000104584
-6.4449e-05
-0.000172031
-0.000168131
-0.000156015
-0.000183668
-0.000159781
-0.000121302
-0.000114563
-8.27274e-05
-6.95525e-05
-0.000116775
-0.000163282
-0.000129723
-0.0001595
-0.000154788
-0.000139134
-0.00012661
-8.93178e-05
-7.79666e-05
-9.72873e-05
-0.000101202
-0.000159852
-0.000148685
-0.000132368
-0.000126074
-0.00013659
-9.11694e-05
-8.95863e-05
-7.16386e-05
-8.04446e-05
-9.17189e-05
-0.000165189
-9.04146e-05
-0.000107896
-0.000127264
-7.53601e-05
-9.07883e-05
-5.09826e-05
-3.53816e-05
-5.48389e-05
-8.84172e-05
-0.000133865
-0.000120088
-8.30305e-05
-8.06504e-05
-7.47824e-05
-5.57953e-05
-9.00196e-06
-4.19841e-05
-2.40653e-05
-5.08677e-05
-0.000138198
-3.30419e-05
-9.45663e-05
-3.59597e-05
-8.34298e-05
-6.05058e-06
-6.94903e-05
2.23206e-05
-4.47011e-05
-3.43089e-05
-9.10559e-05
-8.93608e-05
-8.34962e-05
-0.000106523
-6.55089e-05
-9.57764e-05
-4.97393e-05
-8.24985e-05
-8.34734e-05
-7.06668e-05
-0.000156855
0.000544581
0.000296724
0.000243244
0.000187247
0.000189189
0.000151733
0.000162282
0.000117719
0.000181017
0.000197054
0.000447274
0.000246689
0.000160858
0.000208953
0.00015645
0.000168055
0.000146356
0.000155874
0.000103592
0.000155536
0.000432752
0.000191205
0.000152949
0.000148956
0.000135385
0.00012842
0.000119192
8.90357e-05
0.000114467
0.000133211
0.00033579
0.000147037
0.000149893
0.000111468
0.000102272
8.90658e-05
7.67979e-05
9.06606e-05
7.85436e-05
0.000122052
0.000351662
0.000148611
9.08937e-05
9.73863e-05
7.63231e-05
7.02811e-05
6.63574e-05
6.00795e-05
8.10078e-05
0.000110074
0.000265468
0.000105143
0.000114067
6.19956e-05
7.56888e-05
5.15811e-05
5.43669e-05
6.51531e-05
6.74206e-05
0.000106079
0.000315213
0.000111704
6.13931e-05
9.37154e-05
4.98723e-05
7.01672e-05
5.80038e-05
6.11501e-05
7.64315e-05
0.000101896
0.000205146
0.000111746
7.93337e-05
6.42492e-05
7.33476e-05
6.14498e-05
6.34434e-05
7.05203e-05
7.12193e-05
0.00010632
0.000306712
3.46934e-05
0.000102626
4.47965e-05
7.06134e-05
5.57444e-05
6.44388e-05
6.71749e-05
7.44071e-05
9.80081e-05
0.000199146
5.49496e-05
1.50466e-05
2.98641e-05
2.02589e-05
3.76205e-05
5.28991e-05
7.32559e-05
8.883e-05
0.000132286
-0.000300829
-0.000229588
-0.000205291
-0.000224124
-0.000194193
-0.00012942
-0.00011879
-0.000138591
-4.14663e-05
-0.000165391
-0.000178123
-0.000119423
-0.000183504
-0.000101933
-6.59698e-05
-6.93347e-05
-1.35251e-05
1.98963e-05
-0.000105996
-7.83379e-05
-0.0001568
-0.000178894
-0.000106043
-0.000111976
-9.35554e-05
-2.02508e-05
-4.33232e-05
-8.37594e-05
-1.00947e-05
-0.000100372
-0.000132641
-0.000104127
-0.000146289
-0.000106576
-6.74649e-05
-8.404e-05
-4.49151e-05
-2.07117e-05
-9.76139e-05
-7.66156e-05
-0.000118584
-0.000139955
-0.000101466
-9.69499e-05
-8.91216e-05
-3.92387e-05
-5.17398e-05
-7.78142e-05
-3.52362e-05
-8.95763e-05
-0.000122142
-8.98455e-05
-0.000106003
-9.2626e-05
-5.6436e-05
-7.25114e-05
-4.55803e-05
-3.23676e-05
-7.608e-05
-7.35025e-05
-9.59591e-05
-0.000103164
-9.22242e-05
-6.96375e-05
-7.74661e-05
-3.70824e-05
-3.78566e-05
-6.05699e-05
-3.75178e-05
-6.99025e-05
-0.000109109
-7.85985e-05
-8.00726e-05
-7.21031e-05
-5.04355e-05
-3.5902e-05
-4.69595e-05
-1.74752e-05
-5.30944e-05
-6.2611e-05
-7.97846e-05
-8.28058e-05
-5.32096e-05
-5.9649e-05
-2.34454e-05
-4.55886e-05
-2.51693e-06
-4.66918e-05
-2.40719e-05
-5.37686e-05
-8.89796e-05
-5.61435e-05
-5.06032e-05
-2.2799e-05
-2.93295e-05
-8.45881e-06
-2.90174e-05
-2.86701e-05
-3.49709e-05
-6.86003e-05
0.000357499
0.000178769
0.000182334
0.000145553
0.000150978
0.000115686
0.000122838
7.35879e-05
0.000112569
0.000148867
0.000338853
0.000198734
0.000140007
0.000159801
0.000125304
0.000114163
8.86295e-05
9.0651e-05
5.46847e-05
0.000115879
0.000280996
0.000130908
0.000116701
0.00010849
9.26708e-05
8.05813e-05
6.57628e-05
4.34698e-05
5.88408e-05
9.96529e-05
0.000224127
9.38758e-05
8.88847e-05
6.97833e-05
6.1623e-05
4.73365e-05
3.29146e-05
3.75459e-05
3.73366e-05
8.58205e-05
0.000217249
7.53346e-05
4.87169e-05
4.95462e-05
3.61065e-05
2.90125e-05
1.93788e-05
1.98945e-05
2.89826e-05
7.75568e-05
0.000165736
5.14809e-05
4.89071e-05
2.14973e-05
2.83975e-05
1.21939e-05
1.00367e-05
1.07418e-05
2.67533e-05
6.63007e-05
0.000190249
4.0303e-05
1.55433e-05
3.11018e-05
8.28058e-06
1.63585e-05
2.19136e-06
1.6653e-05
1.61411e-05
6.41172e-05
0.000111205
4.4633e-05
1.5525e-05
1.2869e-05
1.60221e-05
7.10244e-06
1.40191e-05
4.69645e-06
2.40913e-05
5.82565e-05
0.000171957
-1.44968e-05
3.54968e-05
-1.3865e-06
1.55018e-05
1.02496e-05
1.12753e-06
1.9511e-05
1.15495e-05
5.4001e-05
0.000104108
1.45015e-05
-1.03636e-05
-2.29146e-06
-8.54256e-06
-5.09069e-06
5.55668e-06
1.28006e-05
2.13465e-05
7.2787e-05
-0.000361912
-0.000239777
-0.000228523
-0.000235053
-0.000216436
-0.00016637
-0.000157278
-0.000170009
-0.000108396
-0.000184378
-0.00025948
-0.000185649
-0.000215873
-0.000160133
-0.000121778
-0.000122364
-7.89605e-05
-5.38657e-05
-0.000133978
-0.000110502
-0.000230269
-0.000203368
-0.000144476
-0.000151165
-0.000132919
-7.7457e-05
-9.19692e-05
-0.000114644
-6.67658e-05
-0.000120074
-0.000169132
-0.000129865
-0.000168918
-0.000132068
-0.000102551
-0.000111493
-8.35485e-05
-7.14541e-05
-0.000117405
-0.000103646
-0.000163864
-0.000152528
-0.000114831
-0.000118678
-0.000109789
-7.46872e-05
-8.57021e-05
-9.99381e-05
-8.23227e-05
-0.000106515
-0.000134552
-0.000100402
-0.000123951
-0.000107336
-8.39105e-05
-9.20442e-05
-7.63152e-05
-7.76784e-05
-9.57797e-05
-0.000101941
-0.000123434
-0.0001181
-0.000103173
-9.48425e-05
-9.4491e-05
-7.06196e-05
-7.29419e-05
-8.18109e-05
-8.53341e-05
-9.09265e-05
-0.000114653
-9.32162e-05
-0.000102372
-9.02566e-05
-7.97375e-05
-6.24226e-05
-7.36482e-05
-6.41384e-05
-7.74971e-05
-9.49591e-05
-0.000103864
-0.000101162
-7.56988e-05
-8.32163e-05
-4.95193e-05
-7.3503e-05
-4.22117e-05
-7.23671e-05
-6.80034e-05
-7.70272e-05
-9.19266e-05
-5.69225e-05
-5.69924e-05
-3.64094e-05
-4.99499e-05
-3.87176e-05
-6.38309e-05
-7.39286e-05
-8.11398e-05
-0.000101895
0.000402145
0.000236233
0.000214724
0.00020894
0.000187398
0.000140705
0.00013516
8.27229e-05
9.91748e-05
0.000142299
0.000284773
0.000179493
0.000171517
0.000150201
0.000116379
0.000106872
6.98483e-05
7.37407e-05
5.50745e-05
0.000115199
0.000239463
0.000162082
0.000120548
0.00012294
0.000102258
7.46955e-05
6.67602e-05
4.78988e-05
5.85005e-05
0.000107157
0.000149506
0.000102877
0.000126598
9.64399e-05
7.80936e-05
6.39669e-05
4.10627e-05
4.70054e-05
4.40169e-05
0.000101601
0.000143557
0.000109423
8.06145e-05
8.11261e-05
6.46112e-05
4.64975e-05
3.54427e-05
3.11488e-05
4.74761e-05
9.28713e-05
9.97554e-05
7.02492e-05
8.3067e-05
6.50389e-05
4.98741e-05
3.5254e-05
2.35548e-05
3.15697e-05
3.28486e-05
9.32607e-05
9.22622e-05
7.51201e-05
5.94924e-05
5.1806e-05
3.8408e-05
2.65319e-05
9.93027e-06
1.69574e-05
3.54028e-05
8.076e-05
7.1296e-05
5.49299e-05
5.37361e-05
3.82451e-05
3.26842e-05
2.65988e-06
1.54392e-05
7.87281e-06
2.11329e-05
8.48605e-05
6.59482e-05
4.80783e-05
3.18905e-05
3.40724e-05
3.43755e-06
2.64616e-05
-1.32795e-05
1.85369e-05
1.49116e-05
6.02097e-05
6.09045e-05
3.70617e-05
3.07077e-05
1.8553e-05
2.92293e-05
1.72402e-05
3.76423e-05
4.9267e-05
4.66184e-05
0.000113018
-0.000585977
-0.000374486
-0.0003574
-0.00031501
-0.00029537
-0.000234086
-0.000215853
-0.000204833
-0.000147184
-0.000206121
-0.000596967
-0.000386115
-0.000344616
-0.000290843
-0.00022702
-0.000192731
-0.000135749
-0.000100495
-0.000147283
-0.000135534
-0.000486412
-0.000332276
-0.000282989
-0.000250666
-0.000208542
-0.000142799
-0.000132247
-0.000135488
-8.63653e-05
-0.000139408
-0.000465546
-0.000259924
-0.000248237
-0.000208046
-0.000165102
-0.000150908
-0.000112767
-8.8283e-05
-0.000127299
-0.000113769
-0.000405229
-0.00023663
-0.00019931
-0.000175826
-0.000151862
-0.000108883
-0.000103549
-0.000112626
-7.97101e-05
-0.000116607
-0.000403077
-0.000200174
-0.000176738
-0.000146357
-0.000122327
-0.000113744
-9.30124e-05
-7.54376e-05
-0.00010476
-9.84677e-05
-0.000392624
-0.000165232
-0.000145426
-0.000133699
-0.000113061
-9.34496e-05
-8.14762e-05
-9.64623e-05
-7.32624e-05
-9.6417e-05
-0.000330398
-0.000171292
-0.000119565
-0.00011589
-0.000100962
-8.64614e-05
-8.87439e-05
-6.29173e-05
-8.72367e-05
-8.76651e-05
-0.000369795
-8.36597e-05
-0.00013448
-9.08918e-05
-9.20015e-05
-8.1895e-05
-5.95707e-05
-8.05751e-05
-6.19701e-05
-8.3382e-05
-0.000279866
-0.000132476
-9.40564e-05
-8.20307e-05
-6.09591e-05
-5.05493e-05
-5.47462e-05
-5.48086e-05
-5.88612e-05
-7.86249e-05
0.000587087
2.76109e-05
8.11257e-05
2.21121e-05
8.60257e-05
3.23906e-05
1.76442e-05
1.84479e-05
-8.89011e-06
-2.15984e-05
0.000619734
7.36395e-05
-6.98529e-05
5.50441e-05
-5.43879e-05
4.31993e-05
-3.13568e-06
-2.00969e-05
-1.88585e-06
-4.93762e-05
0.000683862
7.14596e-05
-2.63241e-05
-2.47713e-05
-1.36193e-05
-4.16318e-05
-1.99762e-05
-2.60562e-05
-5.96387e-05
-5.70955e-05
0.000507241
4.93803e-05
4.5399e-05
-3.60069e-05
-5.41395e-05
-3.70905e-05
-5.6057e-05
-6.30293e-05
-4.61947e-05
-7.18371e-05
0.000612162
0.000110579
-2.93098e-05
-2.48679e-05
-5.64376e-05
-6.8019e-05
-6.40239e-05
-6.08696e-05
-7.1186e-05
-7.41642e-05
0.000440876
5.82133e-05
4.81374e-05
-8.03809e-05
-4.10055e-05
-8.73567e-05
-6.33811e-05
-6.78879e-05
-6.986e-05
-8.03281e-05
0.000578482
7.81907e-05
-6.4742e-05
2.43848e-06
-0.000108409
-3.97327e-05
-5.35335e-05
-6.84879e-05
-5.03642e-05
-8.70765e-05
0.000322647
7.67912e-05
-2.41698e-05
-7.0395e-05
-4.90846e-05
-3.2564e-05
-6.76605e-05
-8.09128e-06
-6.98483e-05
-7.32413e-05
0.000516502
-0.000103706
4.79653e-05
-0.000111613
4.39526e-06
-9.4553e-05
1.98049e-05
-7.15269e-05
-1.43709e-05
-7.62447e-05
0.000273819
5.80474e-06
-9.62622e-05
-5.70603e-05
-0.000113173
-5.45633e-05
-7.28147e-05
-3.50968e-05
-1.41573e-05
-5.89725e-05
-0.000913167
-0.00102737
-0.000763147
-0.000756861
-0.000574156
-0.000462437
-0.000442548
-0.00040154
-0.000333353
-0.000463535
-0.000462542
-0.000622849
-0.000746854
-0.00045752
-0.000429197
-0.000321315
-0.000244099
-0.00022448
-0.000323571
-0.000357611
-0.000284858
-0.000629324
-0.00049339
-0.000480167
-0.000394679
-0.000277773
-0.000281391
-0.000304602
-0.000247474
-0.000386233
-0.000251118
-0.000409905
-0.000487606
-0.00041958
-0.000344098
-0.000333731
-0.000261256
-0.00024763
-0.000328218
-0.000358356
-0.000145379
-0.00042087
-0.000372401
-0.000371368
-0.000357472
-0.000258608
-0.000280571
-0.00030218
-0.000260107
-0.000374449
-0.000180779
-0.000293476
-0.000364639
-0.000393821
-0.00028186
-0.000346795
-0.000253583
-0.000250815
-0.000321658
-0.000358854
-0.000142914
-0.000399573
-0.000428532
-0.000343509
-0.000428431
-0.000264787
-0.000268535
-0.000321197
-0.000258968
-0.000371843
-0.000320366
-0.000368368
-0.000460674
-0.000428906
-0.000354683
-0.000264461
-0.000331238
-0.000188126
-0.000332502
-0.000366397
-0.000362617
-0.000633254
-0.000349881
-0.00046807
-0.000203927
-0.000368142
-0.000119488
-0.000345613
-0.000224911
-0.000352073
-0.00034058
-0.00014362
-0.000249542
-0.000160781
-0.000248727
-0.000154951
-0.000261814
-0.000243071
-0.000256098
-0.000367219
-0.000224058
-0.00031483
-0.000222871
-0.000296891
-0.000180161
-0.000216718
-0.000197752
-0.000320669
-0.000191541
-4.74843e-05
0.000140553
-0.000219283
-0.000324638
-0.000122712
-0.000132651
-0.000120724
-0.000153417
-0.000136952
-0.000290806
0.000101634
0.000185347
-0.000269246
-0.000178554
-0.000188333
-0.000159319
-0.000102192
-0.000181169
-0.000233678
-9.32033e-05
4.07081e-05
0.000174019
-0.000151368
-0.000237201
-0.000181555
-0.000141534
-0.000208549
-0.000166416
-0.000109703
-0.000264912
8.33378e-05
0.000140014
-0.000238766
-0.00015561
-0.000193776
-0.000215288
-0.000113843
-0.000230693
-0.00028281
-4.15578e-05
-2.99117e-05
0.000115079
-0.000140199
-0.000268478
-0.000258683
-0.000182437
-0.000330983
-0.000238001
-0.000149401
-0.000333786
5.4724e-05
-1.80116e-05
-0.000433378
-0.000375066
-0.00036508
-0.000446911
-0.000280927
-0.000394963
-0.000467035
-0.000177381
-0.00013536
-0.000271731
-0.000450957
-0.000565625
-0.000504091
-0.000401134
-0.000479501
-0.000473119
-0.00033618
-0.00051905
-6.71971e-05
-0.000512175
-0.000892418
-0.000549712
-0.000515862
-0.000374429
-0.000382698
-0.000402005
-0.000549939
-0.000489775
-0.000273119
-0.000458643
-0.000144593
-0.000155968
-0.000108204
-9.66464e-05
-0.000103336
-0.000176057
-7.76281e-05
-0.000299725
6.3348e-05
-0.00107634
-0.000819274
-0.00075703
-0.000832636
-0.000698077
-0.000742115
-0.000730024
-0.000939452
-0.000888533
-0.000622354
-0.000533205
-0.000689476
-0.000720459
-0.000535938
-0.000431539
-0.000502311
-0.000535583
-0.000562082
-0.000852159
-0.000207369
-0.000422563
-0.000674278
-0.000491263
-0.000503899
-0.000461076
-0.000359418
-0.000514117
-0.000589963
-0.000461776
-0.00016921
-0.000261151
-0.000422375
-0.00057188
-0.000438376
-0.000363191
-0.000464084
-0.000410324
-0.000362811
-0.000624421
-9.04664e-05
-0.000323213
-0.000543861
-0.000366753
-0.000425182
-0.000422912
-0.000283253
-0.000465549
-0.000556181
-0.000269568
-0.000221951
-0.000219691
-0.00034714
-0.000532553
-0.000435193
-0.000365992
-0.000521108
-0.000451818
-0.000361815
-0.0006323
-9.39999e-05
-0.000397983
-0.00070126
-0.000546199
-0.00059326
-0.000606966
-0.000474151
-0.000651559
-0.000751023
-0.000445535
-0.000331784
-0.000549044
-0.000680804
-0.000787718
-0.000681538
-0.000578044
-0.000733384
-0.000704928
-0.000669616
-0.000864413
-0.000249371