/*--------------------------------*- C++ -*----------------------------------*\
| =========                 |                                                 |
| \\      /  F ield         | OpenFOAM: The Open Source CFD Toolbox           |
|  \\    /   O peration     | Version:  2406                                  |
|   \\  /    A nd           | Website:  www.openfoam.com                      |
|    \\/     M anipulation  |                                                 |
\*---------------------------------------------------------------------------*/
FoamFile
{
    version     2.0;
    format      ascii;
    arch        "LSB;label=32;scalar=64";
    class       volScalarField;
    location    "350";
    object      magR;
}
// * * * * * * * * * * * * * * * * * * * * * * * * * * * * * * * * * * * * * //

dimensions      [0 2 -2 0 0 0 0];

internalField   nonuniform List<scalar> 
25000
(
4.38681e-05
4.17701e-05
3.8064e-05
3.7431e-05
3.70969e-05
3.71014e-05
3.74476e-05
3.8115e-05
4.16254e-05
4.35875e-05
4.1785e-05
4.03587e-05
3.69211e-05
3.51231e-05
3.42525e-05
3.42587e-05
3.5143e-05
3.69761e-05
4.04067e-05
4.16243e-05
3.80727e-05
3.69427e-05
3.42828e-05
3.26805e-05
3.19023e-05
3.19066e-05
3.26958e-05
3.43066e-05
3.69602e-05
3.81204e-05
3.74351e-05
3.51264e-05
3.26832e-05
3.11011e-05
3.03188e-05
3.03228e-05
3.11098e-05
3.26953e-05
3.51453e-05
3.74542e-05
3.70992e-05
3.4254e-05
3.19024e-05
3.03196e-05
2.95355e-05
2.95374e-05
3.03239e-05
3.19106e-05
3.42645e-05
3.71094e-05
3.71023e-05
3.42584e-05
3.19058e-05
3.03208e-05
2.95368e-05
2.9538e-05
3.03241e-05
3.19107e-05
3.42644e-05
3.71091e-05
3.74481e-05
3.51413e-05
3.26924e-05
3.11084e-05
3.0324e-05
3.03248e-05
3.11106e-05
3.26954e-05
3.51449e-05
3.74533e-05
3.8115e-05
3.69574e-05
3.43046e-05
3.26955e-05
3.19094e-05
3.191e-05
3.2697e-05
3.43067e-05
3.69597e-05
3.81191e-05
4.16191e-05
4.0404e-05
3.69743e-05
3.51434e-05
3.42629e-05
3.42634e-05
3.51448e-05
3.69763e-05
4.04062e-05
4.1623e-05
4.35874e-05
4.16325e-05
3.81201e-05
3.74531e-05
3.71085e-05
3.71086e-05
3.7453e-05
3.81194e-05
4.16298e-05
4.35893e-05
6.09113e-05
5.86319e-05
5.42621e-05
5.34691e-05
5.30452e-05
5.30521e-05
5.35001e-05
5.43566e-05
5.8215e-05
5.99651e-05
5.86884e-05
5.51658e-05
5.28852e-05
5.1947e-05
5.13475e-05
5.1358e-05
5.19786e-05
5.29978e-05
5.52057e-05
5.82064e-05
5.43064e-05
5.2966e-05
5.10343e-05
5.02398e-05
4.98172e-05
4.98232e-05
5.02638e-05
5.10604e-05
5.29374e-05
5.43684e-05
5.3493e-05
5.19663e-05
5.02552e-05
4.93317e-05
4.88597e-05
4.88682e-05
4.93404e-05
5.02592e-05
5.19824e-05
5.35165e-05
5.30625e-05
5.13641e-05
4.98255e-05
4.88676e-05
4.84147e-05
4.84162e-05
4.88676e-05
4.9832e-05
5.1371e-05
5.30697e-05
5.30634e-05
5.13693e-05
4.98315e-05
4.88677e-05
4.8418e-05
4.84189e-05
4.88691e-05
4.98328e-05
5.13719e-05
5.30693e-05
5.35083e-05
5.19867e-05
5.02636e-05
4.93459e-05
4.88757e-05
4.88757e-05
4.93453e-05
5.02625e-05
5.19842e-05
5.35151e-05
5.43571e-05
5.29449e-05
5.10686e-05
5.02732e-05
4.98361e-05
4.98357e-05
5.02713e-05
5.10649e-05
5.29405e-05
5.4366e-05
5.81883e-05
5.52139e-05
5.30069e-05
5.19901e-05
5.13739e-05
5.13734e-05
5.19887e-05
5.30037e-05
5.52089e-05
5.8201e-05
5.9974e-05
5.82396e-05
5.4376e-05
5.35189e-05
5.30709e-05
5.30698e-05
5.35151e-05
5.43695e-05
5.82272e-05
5.99712e-05
5.57251e-05
5.17328e-05
4.92527e-05
4.7972e-05
4.74007e-05
4.74023e-05
4.79922e-05
4.93056e-05
5.16009e-05
5.5176e-05
5.1783e-05
4.81945e-05
4.72468e-05
4.65547e-05
4.60674e-05
4.60733e-05
4.65787e-05
4.73666e-05
4.82293e-05
5.15756e-05
4.9285e-05
4.73391e-05
4.5986e-05
4.52653e-05
4.48172e-05
4.48219e-05
4.52873e-05
4.60018e-05
4.72836e-05
4.93065e-05
4.79882e-05
4.657e-05
4.52807e-05
4.45143e-05
4.40488e-05
4.40584e-05
4.45214e-05
4.52782e-05
4.65761e-05
4.80007e-05
4.7415e-05
4.60779e-05
4.48227e-05
4.40572e-05
4.36634e-05
4.36648e-05
4.40545e-05
4.48269e-05
4.60807e-05
4.74111e-05
4.74135e-05
4.60819e-05
4.48269e-05
4.40545e-05
4.36659e-05
4.36667e-05
4.40556e-05
4.48275e-05
4.60813e-05
4.7411e-05
4.80017e-05
4.65818e-05
4.52819e-05
4.45252e-05
4.40637e-05
4.40637e-05
4.45247e-05
4.52804e-05
4.65776e-05
4.80001e-05
4.93049e-05
4.72922e-05
4.60087e-05
4.52942e-05
4.48306e-05
4.48301e-05
4.52924e-05
4.6005e-05
4.72859e-05
4.93053e-05
5.15677e-05
4.82378e-05
4.73745e-05
4.65875e-05
4.60838e-05
4.60832e-05
4.65854e-05
4.73707e-05
4.82312e-05
5.15721e-05
5.51798e-05
5.16178e-05
4.93181e-05
4.80038e-05
4.74128e-05
4.74117e-05
4.80004e-05
4.93131e-05
5.16079e-05
5.51783e-05
4.21702e-05
3.73511e-05
3.62802e-05
3.49296e-05
3.44487e-05
3.44483e-05
3.49442e-05
3.63404e-05
3.73123e-05
4.18594e-05
3.73905e-05
3.45028e-05
3.41123e-05
3.33755e-05
3.29953e-05
3.2998e-05
3.33917e-05
3.42122e-05
3.45279e-05
3.72782e-05
3.63064e-05
3.41953e-05
3.30861e-05
3.22383e-05
3.17547e-05
3.17582e-05
3.22563e-05
3.30932e-05
3.41335e-05
3.63297e-05
3.49385e-05
3.33876e-05
3.22504e-05
3.1476e-05
3.0994e-05
3.10021e-05
3.14817e-05
3.22451e-05
3.33822e-05
3.49419e-05
3.44567e-05
3.30001e-05
3.1757e-05
3.1e-05
3.05858e-05
3.05869e-05
3.09963e-05
3.17571e-05
3.29971e-05
3.44472e-05
3.44549e-05
3.30011e-05
3.17585e-05
3.09963e-05
3.05869e-05
3.05873e-05
3.09964e-05
3.17569e-05
3.29969e-05
3.4447e-05
3.49493e-05
3.3387e-05
3.22467e-05
3.14822e-05
3.10032e-05
3.10034e-05
3.14817e-05
3.22448e-05
3.33818e-05
3.49411e-05
3.63359e-05
3.41378e-05
3.30946e-05
3.22568e-05
3.17593e-05
3.17592e-05
3.22561e-05
3.30926e-05
3.41326e-05
3.63279e-05
3.72811e-05
3.45298e-05
3.42122e-05
3.33915e-05
3.29988e-05
3.29988e-05
3.33914e-05
3.42115e-05
3.45268e-05
3.72765e-05
4.1865e-05
3.73157e-05
3.63411e-05
3.49445e-05
3.44487e-05
3.44481e-05
3.49423e-05
3.63383e-05
3.73103e-05
4.1857e-05
3.21079e-05
2.7821e-05
2.71287e-05
2.58482e-05
2.54229e-05
2.54185e-05
2.58438e-05
2.7159e-05
2.7808e-05
3.19323e-05
2.78506e-05
2.55096e-05
2.49727e-05
2.40554e-05
2.36999e-05
2.3699e-05
2.40583e-05
2.50377e-05
2.55041e-05
2.77736e-05
2.71448e-05
2.50403e-05
2.38901e-05
2.28218e-05
2.2294e-05
2.22947e-05
2.28318e-05
2.38858e-05
2.49661e-05
2.714e-05
2.58443e-05
2.40593e-05
2.28292e-05
2.18955e-05
2.13663e-05
2.13712e-05
2.18964e-05
2.28184e-05
2.40412e-05
2.58306e-05
2.54201e-05
2.36967e-05
2.2292e-05
2.13698e-05
2.08674e-05
2.08669e-05
2.13637e-05
2.2287e-05
2.36873e-05
2.54045e-05
2.54158e-05
2.36943e-05
2.22909e-05
2.13652e-05
2.0867e-05
2.08666e-05
2.13631e-05
2.22864e-05
2.36867e-05
2.54035e-05
2.58402e-05
2.40473e-05
2.28207e-05
2.18965e-05
2.13703e-05
2.13698e-05
2.18947e-05
2.28168e-05
2.40396e-05
2.58285e-05
2.71467e-05
2.49698e-05
2.3886e-05
2.28294e-05
2.22909e-05
2.22905e-05
2.28278e-05
2.38823e-05
2.49631e-05
2.71365e-05
2.7776e-05
2.55042e-05
2.50344e-05
2.40523e-05
2.36914e-05
2.36913e-05
2.40516e-05
2.50325e-05
2.55e-05
2.77702e-05
3.19323e-05
2.78045e-05
2.71509e-05
2.58337e-05
2.54074e-05
2.54078e-05
2.58338e-05
2.71513e-05
2.78021e-05
3.19281e-05
2.63363e-05
2.30618e-05
2.24256e-05
2.13502e-05
2.09803e-05
2.09739e-05
2.13326e-05
2.24216e-05
2.30366e-05
2.62081e-05
2.30918e-05
2.13925e-05
2.06656e-05
1.9726e-05
1.93884e-05
1.93869e-05
1.97244e-05
2.07119e-05
2.13682e-05
2.30129e-05
2.24305e-05
2.07241e-05
1.96339e-05
1.85422e-05
1.80485e-05
1.80479e-05
1.85484e-05
1.96251e-05
2.06444e-05
2.24054e-05
2.13383e-05
1.97266e-05
1.85477e-05
1.75814e-05
1.70792e-05
1.70825e-05
1.75797e-05
1.85357e-05
1.97068e-05
2.13196e-05
2.09708e-05
1.93829e-05
1.80459e-05
1.70821e-05
1.65739e-05
1.65731e-05
1.70761e-05
1.8041e-05
1.93753e-05
2.09579e-05
2.09656e-05
1.938e-05
1.80437e-05
1.70773e-05
1.65735e-05
1.65735e-05
1.70761e-05
1.80409e-05
1.93751e-05
2.09567e-05
2.13263e-05
1.97117e-05
1.85379e-05
1.75807e-05
1.7083e-05
1.7083e-05
1.75802e-05
1.85358e-05
1.97062e-05
2.13175e-05
2.24097e-05
2.06485e-05
1.96267e-05
1.85477e-05
1.80462e-05
1.80462e-05
1.85466e-05
1.96236e-05
2.06427e-05
2.24018e-05
2.30124e-05
2.13703e-05
2.07106e-05
1.97201e-05
1.93808e-05
1.93806e-05
1.9719e-05
2.07074e-05
2.13642e-05
2.3008e-05
2.62103e-05
2.30419e-05
2.24195e-05
2.13252e-05
2.09625e-05
2.09628e-05
2.13234e-05
2.24161e-05
2.30343e-05
2.62036e-05
2.35811e-05
2.1379e-05
2.07636e-05
1.98389e-05
1.95077e-05
1.95043e-05
1.98279e-05
2.07596e-05
2.13656e-05
2.34981e-05
2.14175e-05
2.02677e-05
1.94366e-05
1.85649e-05
1.82473e-05
1.82491e-05
1.85734e-05
1.94934e-05
2.02525e-05
2.13491e-05
2.07715e-05
1.94985e-05
1.85428e-05
1.75595e-05
1.7144e-05
1.71449e-05
1.75707e-05
1.85418e-05
1.94266e-05
2.07493e-05
1.98344e-05
1.85725e-05
1.75679e-05
1.67052e-05
1.62908e-05
1.62953e-05
1.67063e-05
1.75613e-05
1.85616e-05
1.98244e-05
1.95034e-05
1.82475e-05
1.71446e-05
1.6295e-05
1.58752e-05
1.58754e-05
1.62921e-05
1.71452e-05
1.82484e-05
1.95003e-05
1.94993e-05
1.82456e-05
1.71426e-05
1.62907e-05
1.58759e-05
1.58772e-05
1.62931e-05
1.71459e-05
1.8249e-05
1.94993e-05
1.98233e-05
1.85604e-05
1.75601e-05
1.67072e-05
1.62986e-05
1.62998e-05
1.67103e-05
1.75642e-05
1.85629e-05
1.98229e-05
2.07465e-05
1.94262e-05
1.85418e-05
1.7572e-05
1.71488e-05
1.71502e-05
1.75746e-05
1.85448e-05
1.94281e-05
2.07462e-05
2.13424e-05
2.02506e-05
1.94912e-05
1.85724e-05
1.82507e-05
1.82517e-05
1.8575e-05
1.94939e-05
2.02513e-05
2.1343e-05
2.35036e-05
2.13753e-05
2.07617e-05
1.98269e-05
1.95016e-05
1.95022e-05
1.98263e-05
2.07598e-05
2.13685e-05
2.34933e-05
2.26623e-05
2.12636e-05
2.065e-05
1.98531e-05
1.95464e-05
1.95449e-05
1.98483e-05
2.06524e-05
2.12649e-05
2.26229e-05
2.1303e-05
2.04885e-05
1.96459e-05
1.88703e-05
1.85623e-05
1.85644e-05
1.88819e-05
1.97083e-05
2.04721e-05
2.12432e-05
2.06618e-05
1.97134e-05
1.88721e-05
1.79959e-05
1.76359e-05
1.76368e-05
1.80075e-05
1.88707e-05
1.96365e-05
2.06384e-05
1.98537e-05
1.88821e-05
1.80068e-05
1.72331e-05
1.68791e-05
1.68839e-05
1.72335e-05
1.79979e-05
1.887e-05
1.98455e-05
1.95446e-05
1.85648e-05
1.76387e-05
1.68847e-05
1.65371e-05
1.65371e-05
1.68807e-05
1.76383e-05
1.85655e-05
1.95431e-05
1.95416e-05
1.8563e-05
1.76363e-05
1.68804e-05
1.65383e-05
1.65392e-05
1.6882e-05
1.76392e-05
1.85664e-05
1.95426e-05
1.98444e-05
1.88699e-05
1.79984e-05
1.72362e-05
1.68892e-05
1.68898e-05
1.72383e-05
1.80016e-05
1.88722e-05
1.98447e-05
2.06366e-05
1.96384e-05
1.88733e-05
1.8012e-05
1.76436e-05
1.76444e-05
1.80132e-05
1.8875e-05
1.96395e-05
2.06367e-05
2.12375e-05
2.04728e-05
1.97092e-05
1.88849e-05
1.85695e-05
1.857e-05
1.88858e-05
1.97102e-05
2.0472e-05
2.12378e-05
2.26235e-05
2.12712e-05
2.06535e-05
1.98489e-05
1.95449e-05
1.95456e-05
1.9849e-05
2.06531e-05
2.12674e-05
2.26192e-05
2.22801e-05
2.1362e-05
2.07893e-05
2.01182e-05
1.98326e-05
1.98315e-05
2.01162e-05
2.07954e-05
2.13712e-05
2.22594e-05
2.14015e-05
2.07988e-05
2.00333e-05
1.93569e-05
1.90573e-05
1.90592e-05
1.93703e-05
2.01005e-05
2.07802e-05
2.13437e-05
2.08057e-05
2.01091e-05
1.93608e-05
1.85695e-05
1.8241e-05
1.82419e-05
1.85808e-05
1.93568e-05
2.00235e-05
2.07773e-05
2.01238e-05
1.93756e-05
1.8584e-05
1.7871e-05
1.7546e-05
1.75508e-05
1.78697e-05
1.85701e-05
1.93568e-05
2.01125e-05
1.9835e-05
1.90649e-05
1.82471e-05
1.75532e-05
1.72469e-05
1.72464e-05
1.75466e-05
1.82423e-05
1.906e-05
1.98298e-05
1.98332e-05
1.9063e-05
1.82443e-05
1.75486e-05
1.72482e-05
1.72482e-05
1.75477e-05
1.82431e-05
1.90608e-05
1.98298e-05
2.0117e-05
1.93618e-05
1.85742e-05
1.78743e-05
1.75566e-05
1.75563e-05
1.78737e-05
1.85729e-05
1.93584e-05
2.01123e-05
2.07821e-05
2.003e-05
1.93628e-05
1.85872e-05
1.82491e-05
1.82489e-05
1.85857e-05
1.93601e-05
2.00256e-05
2.0777e-05
2.13457e-05
2.07855e-05
2.01048e-05
1.93756e-05
1.90652e-05
1.90647e-05
1.93739e-05
2.01015e-05
2.07796e-05
2.134e-05
2.2262e-05
2.13768e-05
2.07979e-05
2.01185e-05
1.98331e-05
1.98327e-05
2.01166e-05
2.07945e-05
2.13719e-05
2.22571e-05
2.1827e-05
2.11929e-05
2.0704e-05
2.01454e-05
1.98793e-05
1.98785e-05
2.01447e-05
2.07136e-05
2.12061e-05
2.18186e-05
2.1227e-05
2.08032e-05
2.01507e-05
1.95585e-05
1.92704e-05
1.92721e-05
1.95729e-05
2.02215e-05
2.07831e-05
2.11736e-05
2.07236e-05
2.02314e-05
1.9563e-05
1.88404e-05
1.85318e-05
1.85331e-05
1.88523e-05
1.95585e-05
2.0141e-05
2.06928e-05
2.01523e-05
1.95786e-05
1.88554e-05
1.81937e-05
1.7885e-05
1.78902e-05
1.81925e-05
1.88403e-05
1.95577e-05
2.01412e-05
1.98827e-05
1.92767e-05
1.85369e-05
1.78918e-05
1.76121e-05
1.76116e-05
1.78851e-05
1.85324e-05
1.9272e-05
1.98777e-05
1.98812e-05
1.92738e-05
1.85332e-05
1.78865e-05
1.76129e-05
1.7613e-05
1.7886e-05
1.8533e-05
1.92727e-05
1.98779e-05
2.01452e-05
1.95607e-05
1.88425e-05
1.81957e-05
1.78948e-05
1.78948e-05
1.81958e-05
1.88426e-05
1.9559e-05
2.01411e-05
2.06971e-05
2.01451e-05
1.95622e-05
1.88566e-05
1.85386e-05
1.85387e-05
1.88562e-05
1.95612e-05
2.01429e-05
2.06933e-05
2.11757e-05
2.07865e-05
2.02241e-05
1.95768e-05
1.92767e-05
1.92765e-05
1.9576e-05
2.02224e-05
2.0783e-05
2.11715e-05
2.18213e-05
2.12101e-05
2.07148e-05
2.01463e-05
1.98796e-05
1.98791e-05
2.01447e-05
2.07119e-05
2.12056e-05
2.18167e-05
2.12592e-05
2.07743e-05
2.03918e-05
1.99277e-05
1.96807e-05
1.96804e-05
1.99278e-05
2.04037e-05
2.07911e-05
2.12561e-05
2.08057e-05
2.05527e-05
2.00112e-05
1.94845e-05
1.92103e-05
1.92124e-05
1.95006e-05
2.00851e-05
2.05337e-05
2.07557e-05
2.04114e-05
2.00939e-05
1.94946e-05
1.88272e-05
1.85324e-05
1.85344e-05
1.88404e-05
1.94909e-05
2.00029e-05
2.03812e-05
1.9932e-05
1.95041e-05
1.8842e-05
1.82237e-05
1.79251e-05
1.79308e-05
1.82235e-05
1.88275e-05
1.94841e-05
1.9924e-05
1.96811e-05
1.9214e-05
1.85359e-05
1.79311e-05
1.76683e-05
1.76682e-05
1.79252e-05
1.85331e-05
1.92121e-05
1.96799e-05
1.96795e-05
1.92104e-05
1.85317e-05
1.79254e-05
1.76688e-05
1.76692e-05
1.7926e-05
1.85337e-05
1.92128e-05
1.96805e-05
1.99241e-05
1.94827e-05
1.88269e-05
1.82247e-05
1.79342e-05
1.79348e-05
1.82262e-05
1.88294e-05
1.94852e-05
1.99245e-05
2.03823e-05
2.00023e-05
1.94913e-05
1.88423e-05
1.85383e-05
1.85391e-05
1.88437e-05
1.94934e-05
2.00048e-05
2.0383e-05
2.0757e-05
2.05335e-05
2.00852e-05
1.95025e-05
1.9216e-05
1.92164e-05
1.95038e-05
2.00867e-05
2.05347e-05
2.07562e-05
2.12589e-05
2.07922e-05
2.04038e-05
1.99289e-05
1.96816e-05
1.96815e-05
1.99286e-05
2.04028e-05
2.07908e-05
2.12558e-05
2.07094e-05
2.02192e-05
1.99342e-05
1.95469e-05
1.93187e-05
1.93186e-05
1.9547e-05
1.99469e-05
2.02388e-05
2.07113e-05
2.02505e-05
2.01517e-05
1.97049e-05
1.92299e-05
1.897e-05
1.89718e-05
1.92454e-05
1.97776e-05
2.01309e-05
2.02009e-05
1.99558e-05
1.9789e-05
1.92499e-05
1.86278e-05
1.83424e-05
1.83443e-05
1.86398e-05
1.92438e-05
1.96945e-05
1.99231e-05
1.9552e-05
1.92504e-05
1.8643e-05
1.80602e-05
1.77676e-05
1.77729e-05
1.80586e-05
1.86259e-05
1.92271e-05
1.95426e-05
1.93203e-05
1.89739e-05
1.83463e-05
1.77738e-05
1.75206e-05
1.752e-05
1.77662e-05
1.83412e-05
1.89697e-05
1.93178e-05
1.93186e-05
1.89697e-05
1.83416e-05
1.77676e-05
1.75208e-05
1.75206e-05
1.77667e-05
1.83416e-05
1.89701e-05
1.93183e-05
1.95435e-05
1.92268e-05
1.86263e-05
1.80601e-05
1.77758e-05
1.77758e-05
1.80603e-05
1.86269e-05
1.92274e-05
1.95428e-05
1.99249e-05
1.96945e-05
1.92447e-05
1.86416e-05
1.83472e-05
1.83474e-05
1.86419e-05
1.92451e-05
1.96952e-05
1.99247e-05
2.02039e-05
2.01315e-05
1.97786e-05
1.92472e-05
1.89743e-05
1.89743e-05
1.92473e-05
1.97783e-05
2.0131e-05
2.02022e-05
2.07133e-05
2.02382e-05
1.99467e-05
1.95477e-05
1.93193e-05
1.93191e-05
1.95476e-05
1.9946e-05
2.02377e-05
2.07117e-05
2.03304e-05
1.96211e-05
1.94014e-05
1.90752e-05
1.88661e-05
1.88662e-05
1.90759e-05
1.94149e-05
1.96425e-05
2.03337e-05
1.96537e-05
1.96737e-05
1.93046e-05
1.88734e-05
1.86283e-05
1.86304e-05
1.88898e-05
1.93775e-05
1.96534e-05
1.9605e-05
1.94252e-05
1.93902e-05
1.89063e-05
1.83239e-05
1.80468e-05
1.8049e-05
1.83358e-05
1.88992e-05
1.92944e-05
1.93912e-05
1.90818e-05
1.88961e-05
1.83398e-05
1.77878e-05
1.75007e-05
1.75058e-05
1.77854e-05
1.8321e-05
1.88703e-05
1.90711e-05
1.88692e-05
1.86336e-05
1.80515e-05
1.75071e-05
1.72609e-05
1.726e-05
1.74985e-05
1.80447e-05
1.86272e-05
1.88651e-05
1.88676e-05
1.86292e-05
1.80466e-05
1.75008e-05
1.72609e-05
1.72604e-05
1.74988e-05
1.80449e-05
1.86273e-05
1.88655e-05
1.90734e-05
1.88713e-05
1.83225e-05
1.77871e-05
1.75083e-05
1.75081e-05
1.77865e-05
1.83214e-05
1.88699e-05
1.9071e-05
1.93939e-05
1.92951e-05
1.89006e-05
1.83373e-05
1.80511e-05
1.8051e-05
1.83368e-05
1.88997e-05
1.92939e-05
1.93919e-05
1.96092e-05
1.96547e-05
1.93791e-05
1.88914e-05
1.86322e-05
1.86319e-05
1.88907e-05
1.93775e-05
1.96526e-05
1.9606e-05
2.03369e-05
1.96429e-05
1.94161e-05
1.90771e-05
1.8867e-05
1.88665e-05
1.90761e-05
1.9414e-05
1.96409e-05
2.03342e-05
2.02626e-05
1.90703e-05
1.8856e-05
1.85734e-05
1.83819e-05
1.8382e-05
1.85747e-05
1.88703e-05
1.90929e-05
2.02694e-05
1.91023e-05
1.91751e-05
1.88694e-05
1.84774e-05
1.82462e-05
1.82487e-05
1.84945e-05
1.89424e-05
1.91558e-05
1.90565e-05
1.88807e-05
1.89549e-05
1.85235e-05
1.79775e-05
1.77084e-05
1.77109e-05
1.79898e-05
1.85167e-05
1.88597e-05
1.88474e-05
1.85806e-05
1.85e-05
1.79933e-05
1.74694e-05
1.71885e-05
1.71937e-05
1.74672e-05
1.79745e-05
1.84741e-05
1.85704e-05
1.8385e-05
1.82509e-05
1.77127e-05
1.71947e-05
1.6955e-05
1.69541e-05
1.71863e-05
1.77061e-05
1.82449e-05
1.83815e-05
1.8383e-05
1.82461e-05
1.77076e-05
1.71882e-05
1.69549e-05
1.69546e-05
1.71866e-05
1.77064e-05
1.82451e-05
1.83817e-05
1.85713e-05
1.84741e-05
1.79752e-05
1.74685e-05
1.71961e-05
1.7196e-05
1.74683e-05
1.7975e-05
1.84738e-05
1.857e-05
1.88481e-05
1.88593e-05
1.85174e-05
1.79908e-05
1.77128e-05
1.77129e-05
1.79909e-05
1.85173e-05
1.88594e-05
1.88475e-05
1.90585e-05
1.91563e-05
1.89437e-05
1.84958e-05
1.82503e-05
1.82502e-05
1.84956e-05
1.8943e-05
1.91556e-05
1.90572e-05
2.02721e-05
1.90943e-05
1.88724e-05
1.85764e-05
1.8383e-05
1.83826e-05
1.85755e-05
1.88705e-05
1.90923e-05
2.02701e-05
2.04687e-05
1.86395e-05
1.83398e-05
1.80793e-05
1.79022e-05
1.79029e-05
1.80825e-05
1.83568e-05
1.86653e-05
2.04776e-05
1.86729e-05
1.86878e-05
1.84326e-05
1.80765e-05
1.78595e-05
1.78629e-05
1.80962e-05
1.85081e-05
1.86728e-05
1.86302e-05
1.83656e-05
1.8518e-05
1.81375e-05
1.76254e-05
1.73649e-05
1.73681e-05
1.76392e-05
1.81326e-05
1.84262e-05
1.83346e-05
1.80871e-05
1.81001e-05
1.76415e-05
1.71441e-05
1.68701e-05
1.68757e-05
1.71427e-05
1.76238e-05
1.80757e-05
1.80788e-05
1.79052e-05
1.78645e-05
1.73693e-05
1.68762e-05
1.66428e-05
1.66423e-05
1.68684e-05
1.73636e-05
1.78598e-05
1.79038e-05
1.79034e-05
1.78597e-05
1.73644e-05
1.687e-05
1.6643e-05
1.66428e-05
1.68688e-05
1.7364e-05
1.78601e-05
1.7904e-05
1.8078e-05
1.80746e-05
1.76239e-05
1.71437e-05
1.68781e-05
1.68783e-05
1.7144e-05
1.76246e-05
1.80757e-05
1.80787e-05
1.83337e-05
1.84248e-05
1.81328e-05
1.764e-05
1.73703e-05
1.73706e-05
1.76407e-05
1.81338e-05
1.84263e-05
1.83349e-05
1.86311e-05
1.86728e-05
1.85092e-05
1.80976e-05
1.78653e-05
1.78654e-05
1.80982e-05
1.85097e-05
1.86735e-05
1.86314e-05
2.04802e-05
1.86671e-05
1.83597e-05
1.80852e-05
1.79054e-05
1.79053e-05
1.80849e-05
1.83588e-05
1.86663e-05
2.04792e-05
2.04397e-05
1.84037e-05
1.78883e-05
1.76171e-05
1.74478e-05
1.74491e-05
1.76224e-05
1.79085e-05
1.84336e-05
2.04542e-05
1.84375e-05
1.82333e-05
1.80108e-05
1.76879e-05
1.74841e-05
1.74879e-05
1.77086e-05
1.80872e-05
1.82213e-05
1.8398e-05
1.79153e-05
1.80955e-05
1.77637e-05
1.72836e-05
1.70316e-05
1.70351e-05
1.72977e-05
1.77594e-05
1.80057e-05
1.78858e-05
1.76259e-05
1.77116e-05
1.72997e-05
1.68276e-05
1.65607e-05
1.65663e-05
1.68261e-05
1.72818e-05
1.76871e-05
1.76181e-05
1.74513e-05
1.74889e-05
1.7036e-05
1.65668e-05
1.63395e-05
1.63389e-05
1.65587e-05
1.70299e-05
1.74839e-05
1.74499e-05
1.74495e-05
1.7484e-05
1.70309e-05
1.65604e-05
1.63395e-05
1.63392e-05
1.6559e-05
1.70302e-05
1.74841e-05
1.745e-05
1.76173e-05
1.76861e-05
1.72818e-05
1.68268e-05
1.65683e-05
1.65684e-05
1.68269e-05
1.72823e-05
1.76869e-05
1.76179e-05
1.78845e-05
1.80043e-05
1.77593e-05
1.72981e-05
1.70368e-05
1.70369e-05
1.72985e-05
1.776e-05
1.80055e-05
1.78858e-05
1.83986e-05
1.82212e-05
1.80882e-05
1.77096e-05
1.74897e-05
1.74898e-05
1.77098e-05
1.80883e-05
1.82216e-05
1.8399e-05
2.04564e-05
1.8435e-05
1.79112e-05
1.76246e-05
1.74513e-05
1.74512e-05
1.76243e-05
1.79104e-05
1.84343e-05
2.04557e-05
1.85229e-05
1.84049e-05
1.75356e-05
1.72059e-05
1.70322e-05
1.70337e-05
1.72124e-05
1.75581e-05
1.8438e-05
1.85428e-05
1.84394e-05
1.78298e-05
1.7611e-05
1.73162e-05
1.71247e-05
1.71286e-05
1.73375e-05
1.76875e-05
1.78199e-05
1.84019e-05
1.75628e-05
1.76947e-05
1.74072e-05
1.69571e-05
1.67139e-05
1.67175e-05
1.69711e-05
1.74028e-05
1.76065e-05
1.75345e-05
1.72146e-05
1.73402e-05
1.69733e-05
1.65256e-05
1.62662e-05
1.62716e-05
1.65238e-05
1.69548e-05
1.73151e-05
1.7207e-05
1.70352e-05
1.71295e-05
1.67183e-05
1.62722e-05
1.60512e-05
1.60505e-05
1.62638e-05
1.67116e-05
1.7124e-05
1.70338e-05
1.70335e-05
1.71244e-05
1.67129e-05
1.62656e-05
1.6051e-05
1.60507e-05
1.6264e-05
1.67118e-05
1.7124e-05
1.70339e-05
1.72063e-05
1.73142e-05
1.69548e-05
1.65242e-05
1.62733e-05
1.62733e-05
1.65242e-05
1.69549e-05
1.73148e-05
1.7207e-05
1.75333e-05
1.76049e-05
1.74024e-05
1.69709e-05
1.67184e-05
1.67186e-05
1.69712e-05
1.74028e-05
1.76058e-05
1.75344e-05
1.84027e-05
1.78197e-05
1.76881e-05
1.73379e-05
1.71298e-05
1.71298e-05
1.73379e-05
1.76878e-05
1.78197e-05
1.84028e-05
1.85457e-05
1.84391e-05
1.75605e-05
1.72142e-05
1.70354e-05
1.70353e-05
1.72135e-05
1.75592e-05
1.84382e-05
1.85445e-05
1.34029e-05
1.85572e-05
1.73154e-05
1.68639e-05
1.66675e-05
1.6669e-05
1.68709e-05
1.73393e-05
1.85935e-05
1.34139e-05
1.85918e-05
1.74963e-05
1.72354e-05
1.69611e-05
1.67804e-05
1.67842e-05
1.6982e-05
1.73107e-05
1.74877e-05
1.8557e-05
1.73425e-05
1.73177e-05
1.70661e-05
1.66442e-05
1.64099e-05
1.64133e-05
1.66576e-05
1.70611e-05
1.72304e-05
1.73151e-05
1.68725e-05
1.69847e-05
1.66601e-05
1.62364e-05
1.59847e-05
1.599e-05
1.62341e-05
1.6641e-05
1.6959e-05
1.6865e-05
1.66701e-05
1.67847e-05
1.6414e-05
1.59906e-05
1.5776e-05
1.57753e-05
1.5982e-05
1.6407e-05
1.67788e-05
1.66688e-05
1.66684e-05
1.67792e-05
1.64083e-05
1.59838e-05
1.57758e-05
1.57755e-05
1.59822e-05
1.64071e-05
1.67789e-05
1.66688e-05
1.6864e-05
1.6958e-05
1.66408e-05
1.62344e-05
1.59915e-05
1.59915e-05
1.62346e-05
1.66412e-05
1.69588e-05
1.68649e-05
1.73133e-05
1.72288e-05
1.70606e-05
1.66572e-05
1.6414e-05
1.64142e-05
1.66577e-05
1.70612e-05
1.723e-05
1.73149e-05
1.85571e-05
1.74873e-05
1.73112e-05
1.69823e-05
1.67851e-05
1.67851e-05
1.69823e-05
1.73112e-05
1.74876e-05
1.85578e-05
1.34172e-05
1.85945e-05
1.73415e-05
1.68725e-05
1.66705e-05
1.66703e-05
1.68718e-05
1.73403e-05
1.85937e-05
1.34156e-05
2.92325e-05
1.84436e-05
1.72437e-05
1.66117e-05
1.63694e-05
1.63712e-05
1.662e-05
1.727e-05
1.8484e-05
2.91524e-05
1.84787e-05
1.72522e-05
1.68886e-05
1.66223e-05
1.64509e-05
1.64549e-05
1.66442e-05
1.69646e-05
1.72463e-05
1.84486e-05
1.72711e-05
1.697e-05
1.67396e-05
1.63439e-05
1.6119e-05
1.61227e-05
1.63578e-05
1.67354e-05
1.68851e-05
1.72452e-05
1.66201e-05
1.6646e-05
1.63598e-05
1.59597e-05
1.57162e-05
1.57215e-05
1.59577e-05
1.63411e-05
1.66209e-05
1.66135e-05
1.63711e-05
1.64547e-05
1.61229e-05
1.57218e-05
1.55141e-05
1.55135e-05
1.57136e-05
1.61163e-05
1.64496e-05
1.6371e-05
1.63693e-05
1.6449e-05
1.61169e-05
1.5715e-05
1.55138e-05
1.55137e-05
1.57138e-05
1.61164e-05
1.64497e-05
1.63711e-05
1.66112e-05
1.66186e-05
1.63401e-05
1.59574e-05
1.57227e-05
1.5723e-05
1.59581e-05
1.63414e-05
1.66209e-05
1.66138e-05
1.72423e-05
1.68821e-05
1.67338e-05
1.63568e-05
1.61232e-05
1.61236e-05
1.6358e-05
1.67357e-05
1.68848e-05
1.72453e-05
1.84478e-05
1.72446e-05
1.69641e-05
1.66439e-05
1.64558e-05
1.64561e-05
1.66448e-05
1.69654e-05
1.72466e-05
1.84499e-05
2.91551e-05
1.84844e-05
1.72716e-05
1.66213e-05
1.63729e-05
1.63731e-05
1.66212e-05
1.72713e-05
1.84848e-05
2.91495e-05
9.19076e-05
1.70684e-05
1.72753e-05
1.64683e-05
1.61572e-05
1.61587e-05
1.64761e-05
1.73013e-05
1.71072e-05
9.1754e-05
1.71018e-05
1.71046e-05
1.65839e-05
1.6305e-05
1.61385e-05
1.61421e-05
1.63254e-05
1.66571e-05
1.70976e-05
1.70758e-05
1.7303e-05
1.6664e-05
1.643e-05
1.60575e-05
1.58414e-05
1.58446e-05
1.60699e-05
1.64237e-05
1.65778e-05
1.72754e-05
1.64768e-05
1.63285e-05
1.60735e-05
1.5696e-05
1.54602e-05
1.5465e-05
1.56926e-05
1.60526e-05
1.63009e-05
1.6468e-05
1.61586e-05
1.61424e-05
1.58457e-05
1.54661e-05
1.52649e-05
1.52638e-05
1.54565e-05
1.5837e-05
1.61349e-05
1.61566e-05
1.61562e-05
1.61362e-05
1.58394e-05
1.54591e-05
1.52645e-05
1.52638e-05
1.54565e-05
1.5837e-05
1.61349e-05
1.61566e-05
1.64665e-05
1.63e-05
1.60529e-05
1.56931e-05
1.54663e-05
1.54661e-05
1.56925e-05
1.60525e-05
1.63006e-05
1.6468e-05
1.72729e-05
1.65756e-05
1.64228e-05
1.60693e-05
1.58448e-05
1.58448e-05
1.60694e-05
1.64234e-05
1.65773e-05
1.72751e-05
1.7075e-05
1.70959e-05
1.66566e-05
1.63248e-05
1.61421e-05
1.61422e-05
1.63251e-05
1.66572e-05
1.70974e-05
1.70766e-05
9.17531e-05
1.7107e-05
1.73018e-05
1.64762e-05
1.61591e-05
1.61593e-05
1.64764e-05
1.73022e-05
1.71077e-05
9.17483e-05
0.000216918
1.38872e-05
1.7195e-05
1.64124e-05
1.60303e-05
1.60311e-05
1.64183e-05
1.72169e-05
1.39152e-05
0.000216659
1.39178e-05
1.69976e-05
1.63329e-05
1.60113e-05
1.58438e-05
1.58467e-05
1.60294e-05
1.64013e-05
1.69856e-05
1.38919e-05
1.72242e-05
1.64138e-05
1.61382e-05
1.57841e-05
1.5576e-05
1.55784e-05
1.57938e-05
1.61273e-05
1.63222e-05
1.71917e-05
1.64238e-05
1.60381e-05
1.58018e-05
1.54449e-05
1.52162e-05
1.522e-05
1.54386e-05
1.5776e-05
1.60039e-05
1.64089e-05
1.60351e-05
1.5852e-05
1.55832e-05
1.52234e-05
1.5028e-05
1.5026e-05
1.52109e-05
1.55694e-05
1.58379e-05
1.60275e-05
1.60324e-05
1.58456e-05
1.55769e-05
1.52166e-05
1.50277e-05
1.5026e-05
1.52107e-05
1.55693e-05
1.58377e-05
1.60274e-05
1.64123e-05
1.60091e-05
1.57811e-05
1.54421e-05
1.52224e-05
1.52211e-05
1.54384e-05
1.57756e-05
1.60033e-05
1.64088e-05
1.71938e-05
1.63254e-05
1.61307e-05
1.57959e-05
1.55795e-05
1.55785e-05
1.5793e-05
1.61265e-05
1.63211e-05
1.71905e-05
1.38957e-05
1.69883e-05
1.64041e-05
1.6031e-05
1.58473e-05
1.58466e-05
1.60287e-05
1.64007e-05
1.69847e-05
1.38921e-05
0.000216659
1.39183e-05
1.72192e-05
1.64195e-05
1.60319e-05
1.60315e-05
1.64183e-05
1.7218e-05
1.39161e-05
0.000216651
0.00042603
2.00581e-05
1.64733e-05
1.63387e-05
1.595e-05
1.59503e-05
1.63432e-05
1.64899e-05
2.00761e-05
0.000425647
2.00839e-05
1.67455e-05
1.61397e-05
1.57426e-05
1.5567e-05
1.55703e-05
1.57614e-05
1.62082e-05
1.67342e-05
2.00334e-05
1.65007e-05
1.62202e-05
1.58584e-05
1.55178e-05
1.53182e-05
1.5321e-05
1.55283e-05
1.58483e-05
1.61293e-05
1.64695e-05
1.63513e-05
1.57696e-05
1.55356e-05
1.51992e-05
1.49791e-05
1.49832e-05
1.51939e-05
1.55108e-05
1.57358e-05
1.63349e-05
1.59563e-05
1.55759e-05
1.53257e-05
1.49864e-05
1.47984e-05
1.47966e-05
1.49748e-05
1.53129e-05
1.5562e-05
1.59476e-05
1.59538e-05
1.55701e-05
1.53203e-05
1.49804e-05
1.47987e-05
1.47973e-05
1.49751e-05
1.53132e-05
1.55622e-05
1.59476e-05
1.63408e-05
1.57432e-05
1.55172e-05
1.51988e-05
1.49872e-05
1.4986e-05
1.51951e-05
1.55116e-05
1.57364e-05
1.63352e-05
1.64755e-05
1.61365e-05
1.58546e-05
1.55329e-05
1.53248e-05
1.53236e-05
1.55295e-05
1.58491e-05
1.61298e-05
1.64683e-05
2.00292e-05
1.67421e-05
1.62146e-05
1.5766e-05
1.55737e-05
1.55726e-05
1.57626e-05
1.62091e-05
1.67351e-05
2.00367e-05
0.000425653
2.00679e-05
1.64995e-05
1.63488e-05
1.59537e-05
1.59525e-05
1.63451e-05
1.64944e-05
2.00752e-05
0.000425638
0.000731472
5.37027e-05
1.4504e-05
1.59776e-05
1.5788e-05
1.57899e-05
1.59869e-05
1.45254e-05
5.37396e-05
0.000730972
5.37641e-05
1.59833e-05
1.59997e-05
1.5506e-05
1.53135e-05
1.5319e-05
1.55311e-05
1.60772e-05
1.59854e-05
5.36252e-05
1.45276e-05
1.60799e-05
1.5598e-05
1.5261e-05
1.50697e-05
1.50745e-05
1.5277e-05
1.55959e-05
1.59993e-05
1.4513e-05
1.59896e-05
1.55328e-05
1.52784e-05
1.49608e-05
1.47502e-05
1.4756e-05
1.49604e-05
1.52609e-05
1.55076e-05
1.59824e-05
1.57928e-05
1.53209e-05
1.5076e-05
1.47567e-05
1.4577e-05
1.45768e-05
1.47496e-05
1.50699e-05
1.53153e-05
1.57921e-05
1.57915e-05
1.53162e-05
1.50715e-05
1.47515e-05
1.45781e-05
1.45781e-05
1.47506e-05
1.50709e-05
1.53163e-05
1.5793e-05
1.59834e-05
1.55093e-05
1.52629e-05
1.4963e-05
1.47603e-05
1.47607e-05
1.49636e-05
1.5264e-05
1.55107e-05
1.59851e-05
1.45146e-05
1.60025e-05
1.55992e-05
1.52804e-05
1.50799e-05
1.50803e-05
1.52814e-05
1.56004e-05
1.60038e-05
1.45156e-05
5.36137e-05
1.59902e-05
1.60815e-05
1.55355e-05
1.53252e-05
1.53256e-05
1.55366e-05
1.60829e-05
1.59922e-05
5.36201e-05
0.000730967
5.37048e-05
1.45368e-05
1.59953e-05
1.57974e-05
1.57971e-05
1.5994e-05
1.45361e-05
5.37139e-05
0.00073095
0.00113042
0.000122066
1.39135e-05
1.49101e-05
1.5263e-05
1.52662e-05
1.49223e-05
1.3935e-05
0.000122138
0.00112989
0.0001222
1.44178e-05
1.58769e-05
1.53051e-05
1.50847e-05
1.50912e-05
1.53337e-05
1.59604e-05
1.44295e-05
0.000121912
1.39337e-05
1.59567e-05
1.53644e-05
1.5013e-05
1.48262e-05
1.48321e-05
1.50321e-05
1.53676e-05
1.58836e-05
1.39095e-05
1.49203e-05
1.53309e-05
1.50296e-05
1.47257e-05
1.45234e-05
1.45301e-05
1.47281e-05
1.50167e-05
1.53111e-05
1.49202e-05
1.52665e-05
1.50898e-05
1.48306e-05
1.45287e-05
1.43565e-05
1.43571e-05
1.4524e-05
1.48283e-05
1.50888e-05
1.52705e-05
1.52652e-05
1.50845e-05
1.48255e-05
1.4523e-05
1.43569e-05
1.43575e-05
1.45243e-05
1.48285e-05
1.50891e-05
1.52711e-05
1.49146e-05
1.53056e-05
1.50127e-05
1.47262e-05
1.45316e-05
1.45328e-05
1.47292e-05
1.50178e-05
1.53123e-05
1.49212e-05
1.3904e-05
1.58778e-05
1.53637e-05
1.50302e-05
1.4834e-05
1.48352e-05
1.50339e-05
1.53695e-05
1.58852e-05
1.3911e-05
0.000121916
1.44222e-05
1.59565e-05
1.53325e-05
1.5094e-05
1.50953e-05
1.53363e-05
1.59629e-05
1.44307e-05
0.000121906
0.00112986
0.000122096
1.39296e-05
1.49242e-05
1.52703e-05
1.52714e-05
1.49273e-05
1.39266e-05
0.000122091
0.00112986
0.00160629
0.000237215
2.74182e-05
1.33061e-05
1.40623e-05
1.40661e-05
1.33164e-05
2.74411e-05
0.000237327
0.00160581
0.000237435
1.32824e-05
1.56703e-05
1.51333e-05
1.48838e-05
1.48905e-05
1.51622e-05
1.57539e-05
1.3286e-05
0.000236968
2.74575e-05
1.57484e-05
1.51709e-05
1.47811e-05
1.45942e-05
1.46003e-05
1.48008e-05
1.51755e-05
1.56794e-05
2.73637e-05
1.33149e-05
1.51578e-05
1.47968e-05
1.45007e-05
1.43062e-05
1.43127e-05
1.45035e-05
1.47849e-05
1.5139e-05
1.33116e-05
1.40656e-05
1.48871e-05
1.45972e-05
1.43106e-05
1.41456e-05
1.41462e-05
1.43058e-05
1.45948e-05
1.48864e-05