/*--------------------------------*- C++ -*----------------------------------*\
| =========                 |                                                 |
| \\      /  F ield         | OpenFOAM: The Open Source CFD Toolbox           |
|  \\    /   O peration     | Version:  2406                                  |
|   \\  /    A nd           | Website:  www.openfoam.com                      |
|    \\/     M anipulation  |                                                 |
\*---------------------------------------------------------------------------*/
FoamFile
{
    version     2.0;
    format      ascii;
    arch        "LSB;label=32;scalar=64";
    class       volVectorField;
    location    "350";
    object      momentError;
}
// * * * * * * * * * * * * * * * * * * * * * * * * * * * * * * * * * * * * * //

dimensions      [0 1 -2 0 0 0 0];

internalField   nonuniform List<vector> 
25000
(
(4.83677e-05 0.000210927 -0.000140646)
(-0.00104626 -9.61493e-05 -7.30815e-05)
(-0.000450829 2.94573e-05 -2.26258e-05)
(-0.0002149 2.29075e-05 -5.71901e-06)
(-0.000117965 6.45638e-06 2.07531e-06)
(-7.57974e-05 -3.82892e-07 6.58626e-06)
(-5.60805e-05 -4.96165e-06 9.90212e-06)
(-4.71074e-05 -2.09631e-06 1.34308e-05)
(-4.34813e-05 5.51527e-06 1.72542e-05)
(-3.83544e-05 3.16587e-06 2.13223e-05)
(-0.000223269 -0.000959147 -7.96419e-05)
(-0.000483547 -0.000366372 -4.95072e-05)
(-0.000309966 -0.00011586 -2.27644e-05)
(-0.000186035 -3.9738e-05 -8.21705e-06)
(-0.000113252 -1.81913e-05 -1.39249e-07)
(-7.38102e-05 -1.11099e-05 4.57163e-06)
(-5.36325e-05 -8.28801e-06 7.93954e-06)
(-4.21161e-05 -5.10137e-06 1.13045e-05)
(-3.72236e-05 -5.30614e-07 1.52538e-05)
(-3.26128e-05 5.2054e-06 2.01175e-05)
(-3.07299e-05 -0.000450205 -2.70177e-05)
(-0.000205357 -0.000261452 -2.54114e-05)
(-0.000184743 -0.000123713 -1.45e-05)
(-0.00013347 -5.95057e-05 -5.77325e-06)
(-9.18469e-05 -3.08155e-05 2.5546e-07)
(-6.37358e-05 -1.85677e-05 4.22082e-06)
(-4.68197e-05 -1.23356e-05 7.25924e-06)
(-3.63251e-05 -8.1186e-06 1.04581e-05)
(-2.96032e-05 -3.57879e-06 1.41694e-05)
(-2.45706e-05 2.23004e-06 1.88213e-05)
(-5.3734e-07 -0.000240418 -7.73435e-06)
(-9.37036e-05 -0.000172515 -1.05635e-05)
(-0.000109857 -0.000100977 -6.90701e-06)
(-9.41805e-05 -5.71012e-05 -2.24892e-06)
(-7.10152e-05 -3.32058e-05 1.74484e-06)
(-5.28449e-05 -2.08662e-05 4.77057e-06)
(-4.0355e-05 -1.42451e-05 7.35066e-06)
(-3.0883e-05 -9.95533e-06 1.02587e-05)
(-2.40912e-05 -6.69443e-06 1.37663e-05)
(-1.84408e-05 -2.69136e-06 1.82166e-05)
(1.31493e-05 -0.000148732 2.10166e-06)
(-4.72853e-05 -0.000118949 -1.83437e-06)
(-6.84168e-05 -7.906e-05 -1.09057e-06)
(-6.51141e-05 -4.949e-05 1.10541e-06)
(-5.45681e-05 -3.10932e-05 3.57476e-06)
(-4.33065e-05 -2.06694e-05 5.80176e-06)
(-3.42579e-05 -1.4633e-05 7.92422e-06)
(-2.73351e-05 -1.11841e-05 1.06202e-05)
(-2.08828e-05 -8.83128e-06 1.40133e-05)
(-1.51373e-05 -7.13316e-06 1.82813e-05)
(1.39594e-05 -0.000107941 7.4031e-06)
(-2.11288e-05 -8.89078e-05 3.7049e-06)
(-4.16622e-05 -6.28996e-05 2.926e-06)
(-4.6444e-05 -4.2287e-05 3.7155e-06)
(-4.18716e-05 -2.85749e-05 5.20219e-06)
(-3.57916e-05 -1.97766e-05 6.79257e-06)
(-3.02062e-05 -1.48883e-05 8.62374e-06)
(-2.45043e-05 -1.21072e-05 1.11392e-05)
(-1.95778e-05 -1.12899e-05 1.43758e-05)
(-1.47811e-05 -1.153e-05 1.86712e-05)
(2.17191e-05 -8.77449e-05 1.09955e-05)
(-6.59024e-06 -7.25621e-05 7.22153e-06)
(-2.56013e-05 -5.40699e-05 5.87312e-06)
(-3.2456e-05 -3.85894e-05 5.83757e-06)
(-3.28093e-05 -2.74981e-05 6.69106e-06)
(-2.99837e-05 -2.03468e-05 7.89416e-06)
(-2.68179e-05 -1.61609e-05 9.42254e-06)
(-2.39594e-05 -1.42446e-05 1.17905e-05)
(-2.06242e-05 -1.47127e-05 1.50894e-05)
(-1.66363e-05 -1.69736e-05 1.93298e-05)
(2.67053e-05 -7.81808e-05 1.40544e-05)
(5.75407e-06 -6.57933e-05 1.0468e-05)
(-1.27475e-05 -5.03945e-05 8.69612e-06)
(-2.23477e-05 -3.84057e-05 8.25719e-06)
(-2.49627e-05 -2.88075e-05 8.73312e-06)
(-2.52875e-05 -2.28236e-05 9.61454e-06)
(-2.47882e-05 -1.89612e-05 1.10094e-05)
(-2.37694e-05 -1.80813e-05 1.32788e-05)
(-2.3319e-05 -1.92103e-05 1.64699e-05)
(-2.19645e-05 -2.34125e-05 2.08631e-05)
(3.87203e-05 -7.43534e-05 1.72802e-05)
(1.48617e-05 -6.57479e-05 1.38458e-05)
(-3.2655e-06 -5.21015e-05 1.20136e-05)
(-1.34229e-05 -3.97599e-05 1.13157e-05)
(-1.85104e-05 -3.10165e-05 1.15297e-05)
(-2.08866e-05 -2.52846e-05 1.23134e-05)
(-2.27767e-05 -2.23939e-05 1.34823e-05)
(-2.50321e-05 -2.23724e-05 1.57052e-05)
(-2.75225e-05 -2.52138e-05 1.88601e-05)
(-3.02622e-05 -2.88091e-05 2.31718e-05)
(2.27635e-05 -6.23341e-05 2.02811e-05)
(1.83446e-05 -6.14202e-05 1.81194e-05)
(6.21338e-06 -5.06716e-05 1.61301e-05)
(-4.63765e-06 -3.90742e-05 1.51814e-05)
(-1.18368e-05 -3.06825e-05 1.52852e-05)
(-1.69486e-05 -2.55394e-05 1.59359e-05)
(-2.18149e-05 -2.33418e-05 1.7172e-05)
(-2.64146e-05 -2.47066e-05 1.9402e-05)
(-3.03376e-05 -2.98621e-05 2.24077e-05)
(-2.78292e-05 -2.80646e-05 2.56259e-05)
(-9.10153e-05 0.000222605 -0.000155655)
(-0.00118996 -6.87681e-05 1.17626e-05)
(-0.000653896 -1.44253e-05 -1.02347e-05)
(-0.000351368 2.05366e-06 -2.26795e-05)
(-0.000179133 -1.93241e-05 -3.44239e-05)
(-8.80006e-05 -3.37375e-05 -4.24181e-05)
(-3.02946e-05 -5.74115e-05 -4.67887e-05)
(4.62363e-06 -6.76569e-05 -4.72137e-05)
(4.13472e-05 -7.15653e-05 -4.51429e-05)
(7.22054e-05 -6.61852e-05 -3.77447e-05)
(-0.000497623 -0.000960965 -2.49139e-06)
(-0.000698128 -0.000401932 2.02985e-06)
(-0.000489854 -0.000170726 -1.82503e-05)
(-0.000303575 -6.15092e-05 -3.14626e-05)
(-0.000176005 -3.39145e-05 -4.06889e-05)
(-9.40383e-05 -2.90881e-05 -4.65867e-05)
(-4.24978e-05 -3.34654e-05 -4.97732e-05)
(-5.91162e-07 -3.91423e-05 -5.05927e-05)
(3.65557e-05 -4.19648e-05 -4.90321e-05)
(6.73882e-05 -4.46669e-05 -4.39248e-05)
(-0.000275774 -0.000583798 -1.7832e-05)
(-0.000442853 -0.000318382 -1.9336e-05)
(-0.000352188 -0.000146218 -2.78331e-05)
(-0.000243635 -6.5434e-05 -3.68763e-05)
(-0.000158077 -3.15352e-05 -4.38077e-05)
(-9.17486e-05 -2.22118e-05 -4.8312e-05)
(-4.24622e-05 -2.0538e-05 -5.09055e-05)
(-4.4649e-06 -2.22584e-05 -5.16199e-05)
(3.39749e-05 -2.54547e-05 -5.12768e-05)
(7.08769e-05 -2.82696e-05 -4.80817e-05)
(-0.000163342 -0.000372225 -1.99409e-05)
(-0.000261664 -0.000219989 -2.84457e-05)
(-0.000250334 -0.000112735 -3.48818e-05)
(-0.000200129 -5.29712e-05 -4.07919e-05)
(-0.000138276 -2.49449e-05 -4.58537e-05)
(-8.5953e-05 -1.36772e-05 -4.9362e-05)
(-4.36542e-05 -1.11552e-05 -5.14257e-05)
(-5.33791e-06 -1.20442e-05 -5.24377e-05)
(3.1045e-05 -1.46453e-05 -5.28026e-05)
(6.788e-05 -1.99629e-05 -5.12741e-05)
(-7.89039e-05 -0.000237331 -2.23527e-05)
(-0.000174175 -0.000156904 -3.20699e-05)
(-0.000186947 -8.76043e-05 -3.76701e-05)
(-0.000159544 -4.22095e-05 -4.27782e-05)
(-0.000121617 -1.77075e-05 -4.68372e-05)
(-8.01261e-05 -7.47863e-06 -4.96658e-05)
(-4.18279e-05 -3.40381e-06 -5.1551e-05)
(-7.70369e-06 -3.4729e-06 -5.25926e-05)
(2.71967e-05 -5.52409e-06 -5.31142e-05)
(6.34539e-05 -8.90017e-06 -5.26342e-05)
(-5.09559e-05 -0.000169707 -2.13179e-05)
(-0.00010916 -0.000117788 -3.12346e-05)
(-0.000135629 -6.82586e-05 -3.79008e-05)
(-0.000130626 -3.3357e-05 -4.28188e-05)
(-0.000104154 -1.37464e-05 -4.66632e-05)
(-7.27973e-05 -2.12285e-06 -4.94204e-05)
(-4.05069e-05 1.89031e-06 -5.10994e-05)
(-7.79793e-06 3.05592e-06 -5.19651e-05)
(2.58405e-05 2.73529e-06 -5.28159e-05)
(6.22611e-05 2.26106e-06 -5.186e-05)
(-2.02021e-05 -0.000125679 -1.83105e-05)
(-7.44036e-05 -9.18196e-05 -2.89488e-05)
(-0.000101153 -5.81719e-05 -3.59284e-05)
(-0.000102828 -3.06468e-05 -4.15946e-05)
(-8.89239e-05 -1.27396e-05 -4.57308e-05)
(-6.44085e-05 -2.03995e-06 -4.85168e-05)
(-3.71609e-05 3.97859e-06 -5.03009e-05)
(-7.75572e-06 7.1735e-06 -5.12197e-05)
(2.52839e-05 7.97516e-06 -5.0993e-05)
(6.40869e-05 1.0742e-05 -4.93618e-05)
(-1.27115e-05 -9.88998e-05 -1.24302e-05)
(-4.62066e-05 -7.87124e-05 -2.41017e-05)
(-7.35075e-05 -5.19392e-05 -3.27877e-05)
(-8.23027e-05 -3.36135e-05 -3.92257e-05)
(-7.33834e-05 -1.68627e-05 -4.40397e-05)
(-5.57125e-05 -6.11976e-06 -4.73353e-05)
(-3.21679e-05 3.42672e-06 -4.91046e-05)
(-5.88286e-06 8.61687e-06 -4.9408e-05)
(2.64394e-05 1.29263e-05 -4.8698e-05)
(6.34892e-05 1.51743e-05 -4.46868e-05)
(-2.49309e-06 -6.45309e-05 -5.0287e-06)
(-3.38932e-05 -6.15462e-05 -1.8465e-05)
(-5.61293e-05 -4.8671e-05 -2.8117e-05)
(-6.51043e-05 -3.36376e-05 -3.62755e-05)
(-5.9015e-05 -2.12056e-05 -4.21462e-05)
(-4.36827e-05 -7.80409e-06 -4.59284e-05)
(-2.34747e-05 5.30139e-06 -4.7904e-05)
(-9.66459e-07 1.66125e-05 -4.75932e-05)
(2.85952e-05 2.40121e-05 -4.5232e-05)
(5.77108e-05 3.0087e-05 -3.95216e-05)
(-2.52709e-05 -2.90977e-05 4.80379e-06)
(-3.6152e-05 -4.94848e-05 -9.12856e-06)
(-4.46214e-05 -4.0279e-05 -2.13058e-05)
(-5.16097e-05 -2.89646e-05 -3.18763e-05)
(-4.44739e-05 -1.73966e-05 -3.94895e-05)
(-2.81744e-05 -2.67341e-06 -4.41573e-05)
(-8.30126e-06 1.69812e-05 -4.56677e-05)
(1.00705e-05 3.40661e-05 -4.39434e-05)
(3.68523e-05 4.25516e-05 -3.99919e-05)
(5.99849e-05 4.85852e-05 -3.18766e-05)
(-0.000301427 -0.000277277 0.000125927)
(0.000707853 -1.36145e-05 1.0564e-05)
(8.10563e-06 -9.32284e-05 -6.18414e-05)
(-3.03285e-05 -4.93002e-05 -9.26872e-05)
(-1.71551e-05 -1.8263e-05 -0.000113753)
(3.70794e-06 -5.37508e-06 -0.000130851)
(2.56616e-05 -9.71472e-06 -0.00014721)
(4.44461e-05 -2.62271e-05 -0.000163822)
(6.89355e-05 -4.44358e-05 -0.000182176)
(0.000102967 -7.50273e-05 -0.000199262)
(-3.20588e-05 0.000760786 5.4333e-06)
(3.75808e-05 6.76314e-05 -2.24772e-05)
(-2.16833e-05 2.93874e-07 -6.09006e-05)
(-1.262e-05 9.20325e-07 -8.66326e-05)
(-1.46321e-06 8.15489e-06 -0.000105886)
(9.68382e-06 1.23002e-05 -0.000121825)
(1.96553e-05 1.03225e-05 -0.000137103)
(3.15783e-05 1.38495e-06 -0.000154516)
(4.74848e-05 -1.15493e-05 -0.000175316)
(7.40149e-05 -3.85344e-05 -0.000198816)
(-0.000160926 0.000100017 -7.28135e-05)
(-4.67147e-05 4.27646e-05 -6.46367e-05)
(-2.57052e-05 3.54509e-05 -7.60347e-05)
(-1.32605e-05 3.15944e-05 -9.0844e-05)
(-2.38766e-06 2.85273e-05 -0.000105145)
(6.41806e-06 2.46632e-05 -0.000118453)
(1.39524e-05 1.96534e-05 -0.000132569)
(2.09972e-05 1.16685e-05 -0.000149806)
(3.09873e-05 -2.21762e-06 -0.000171676)
(4.89966e-05 -2.50953e-05 -0.000197827)
(-0.00011719 4.43525e-05 -0.000105264)
(-5.96829e-05 5.24459e-05 -9.27294e-05)
(-3.20834e-05 4.87673e-05 -9.30824e-05)
(-1.81563e-05 4.3433e-05 -9.978e-05)
(-8.12412e-06 3.75997e-05 -0.00010921)
(6.575e-07 3.15489e-05 -0.000119801)
(6.81726e-06 2.51285e-05 -0.000132428)
(1.1146e-05 1.70058e-05 -0.000149125)
(1.61851e-05 6.79764e-06 -0.000171137)
(2.41773e-05 -1.11673e-05 -0.000198625)
(-8.11333e-05 4.11507e-05 -0.000123777)
(-5.54205e-05 5.59906e-05 -0.000111616)
(-3.70632e-05 5.28683e-05 -0.000107733)
(-2.51253e-05 4.66771e-05 -0.000109803)
(-1.46126e-05 4.0425e-05 -0.00011566)
(-6.10573e-06 3.3751e-05 -0.000124018)
(-1.35538e-07 2.74049e-05 -0.000135079)
(4.2559e-06 2.14537e-05 -0.000151094)
(6.25545e-06 1.4416e-05 -0.000173192)
(8.78737e-06 6.75874e-06 -0.0002009)
(-6.22094e-05 5.31726e-05 -0.000135659)
(-5.40628e-05 5.70449e-05 -0.000124935)
(-4.23465e-05 5.20068e-05 -0.000119393)
(-3.10145e-05 4.58091e-05 -0.000119128)
(-2.12677e-05 3.90016e-05 -0.000122837)
(-1.23108e-05 3.29536e-05 -0.000129368)
(-5.07698e-06 2.74432e-05 -0.000139571)
(-9.5911e-07 2.3114e-05 -0.000154907)
(3.24654e-06 2.23178e-05 -0.000176362)
(9.75322e-06 2.54269e-05 -0.000204146)
(-7.08022e-05 6.78894e-05 -0.000145153)
(-5.79628e-05 5.91226e-05 -0.000135462)
(-4.73699e-05 5.00883e-05 -0.00012979)
(-3.76445e-05 4.19583e-05 -0.000128495)
(-2.72707e-05 3.4526e-05 -0.000131076)
(-1.76111e-05 2.8504e-05 -0.000136787)
(-1.00975e-05 2.40617e-05 -0.000145801)
(-1.30993e-06 2.30622e-05 -0.000160381)
(7.58137e-06 2.73761e-05 -0.000181455)
(2.39318e-05 4.13921e-05 -0.00020815)
(-9.5839e-05 8.35411e-05 -0.00015462)
(-7.05208e-05 6.27468e-05 -0.000146751)
(-5.76648e-05 4.9229e-05 -0.000141782)
(-4.56247e-05 3.59702e-05 -0.000140697)
(-3.44039e-05 2.6828e-05 -0.000143066)
(-2.28984e-05 2.0004e-05 -0.000147895)
(-1.12766e-05 1.79394e-05 -0.00015646)
(5.29494e-07 2.09806e-05 -0.000169905)
(1.78816e-05 3.06841e-05 -0.000189257)
(4.92376e-05 5.22279e-05 -0.000213987)
(-0.000127341 0.000103331 -0.000165772)
(-8.90742e-05 7.34144e-05 -0.000160926)
(-7.28202e-05 5.15986e-05 -0.000157932)
(-5.95476e-05 3.04072e-05 -0.000158068)
(-4.33224e-05 1.53025e-05 -0.000160526)
(-2.69974e-05 8.24111e-06 -0.000165467)
(-1.03406e-05 9.77455e-06 -0.000172715)
(8.64238e-06 1.97813e-05 -0.000184579)
(3.15431e-05 3.57859e-05 -0.00020133)
(7.23639e-05 6.33355e-05 -0.000221841)
(-0.000151157 0.000127796 -0.000176942)
(-0.000118665 9.07655e-05 -0.000178279)
(-0.000101307 5.82846e-05 -0.000178675)
(-8.23883e-05 2.4735e-05 -0.000180563)
(-5.7151e-05 3.09408e-06 -0.000183992)
(-2.89766e-05 -3.99413e-06 -0.000188533)
(-6.76407e-07 6.47602e-06 -0.000194921)
(2.56386e-05 3.06595e-05 -0.000204286)
(5.52876e-05 5.52969e-05 -0.000216531)
(9.70279e-05 9.07665e-05 -0.000229008)
(0.000118335 0.000100157 2.67618e-05)
(-0.000163277 5.61638e-05 -6.72821e-05)
(-0.000154972 8.98268e-05 -8.77559e-05)
(-0.000103698 0.000128697 -9.16368e-05)
(-9.74583e-05 0.000151668 -9.77221e-05)
(-0.000110935 0.000172205 -0.000108884)
(-0.000131238 0.000180364 -0.000126477)
(-0.000159014 0.000178759 -0.000150077)
(-0.000191151 0.000163118 -0.00017957)
(-0.000215325 0.000125305 -0.000213407)
(7.88919e-05 -0.000153992 -7.84846e-05)
(-6.96314e-05 -6.60888e-05 -7.65169e-05)
(-8.45096e-05 2.26426e-05 -7.78819e-05)
(-7.39027e-05 6.31723e-05 -8.09056e-05)
(-7.81367e-05 8.34195e-05 -8.83293e-05)
(-9.39133e-05 9.71048e-05 -9.99369e-05)
(-0.000122881 0.000106439 -0.000116924)
(-0.000161199 0.000105759 -0.00014104)
(-0.000208131 9.80907e-05 -0.000172965)
(-0.000261481 7.3739e-05 -0.000213165)
(0.000117956 -0.000128761 -0.000117469)
(2.01337e-05 -6.52035e-05 -9.18026e-05)
(-2.49119e-05 -5.56235e-06 -8.25163e-05)
(-4.65498e-05 2.4132e-05 -8.16903e-05)
(-6.32569e-05 4.08175e-05 -8.73615e-05)
(-8.48357e-05 5.01845e-05 -9.82006e-05)
(-0.000117839 5.51564e-05 -0.000114306)
(-0.000163384 5.61433e-05 -0.000138142)
(-0.000219912 5.15158e-05 -0.000171032)
(-0.000287476 3.74057e-05 -0.000213289)
(0.000145999 -6.63239e-05 -0.000136573)
(5.9522e-05 -4.40783e-05 -0.000107321)
(6.42728e-06 -1.9314e-05 -9.28584e-05)
(-2.76816e-05 -1.01824e-07 -8.92904e-05)
(-5.1856e-05 1.20916e-05 -9.27974e-05)
(-7.85242e-05 1.82928e-05 -0.000101797)
(-0.000115723 2.2355e-05 -0.000117097)
(-0.000164491 2.25291e-05 -0.000140316)
(-0.000228199 1.87635e-05 -0.000172416)
(-0.000304768 1.10638e-05 -0.000215432)
(0.000157524 -4.885e-05 -0.000150264)
(7.28578e-05 -4.02726e-05 -0.000122383)
(2.0601e-05 -2.81407e-05 -0.000106958)
(-1.48697e-05 -1.72574e-05 -0.000100466)
(-4.4682e-05 -9.21197e-06 -0.00010187)
(-7.41849e-05 -4.62532e-06 -0.000109639)
(-0.000113664 -3.4253e-06 -0.000123134)
(-0.000167982 -4.223e-06 -0.000145386)
(-0.000234701 -7.30977e-06 -0.000177711)
(-0.000315242 -1.28057e-05 -0.000219959)
(0.000154968 -5.32297e-05 -0.00016566)
(8.00833e-05 -4.86887e-05 -0.000138853)
(2.93619e-05 -4.26065e-05 -0.000121231)
(-8.93947e-06 -3.60773e-05 -0.000113554)
(-3.92491e-05 -3.20788e-05 -0.000113313)
(-7.25699e-05 -2.97395e-05 -0.000118988)
(-0.000115339 -2.9561e-05 -0.000131827)
(-0.000168736 -3.11657e-05 -0.000153307)
(-0.000237758 -3.3393e-05 -0.000184195)
(-0.000318813 -3.52977e-05 -0.000226757)
(0.000148997 -7.06754e-05 -0.000181654)
(8.01814e-05 -7.1398e-05 -0.000155169)
(3.20387e-05 -7.14956e-05 -0.000137964)
(-4.87256e-06 -7.02175e-05 -0.00012865)
(-3.8485e-05 -6.95363e-05 -0.00012708)
(-7.15432e-05 -6.86733e-05 -0.000131899)
(-0.000114764 -6.87471e-05 -0.000142822)
(-0.000171038 -6.83055e-05 -0.000162991)
(-0.0002372 -6.67034e-05 -0.000193933)
(-0.000312505 -6.14052e-05 -0.000235264)
(0.000129829 -0.000100241 -0.000202162)
(7.5635e-05 -0.000113039 -0.000176768)
(3.00456e-05 -0.000119629 -0.00015899)
(-6.70531e-06 -0.000127142 -0.000149695)
(-3.75177e-05 -0.000129014 -0.000147212)
(-7.18526e-05 -0.000129948 -0.000150148)
(-0.000114883 -0.000126926 -0.000160062)
(-0.000165845 -0.000121439 -0.000178637)
(-0.000227741 -0.000110045 -0.000206938)
(-0.000294248 -9.26715e-05 -0.000246821)
(0.000110829 -0.000140036 -0.000226227)
(6.13711e-05 -0.000169132 -0.000204238)
(1.95354e-05 -0.000189206 -0.000188629)
(-1.2379e-05 -0.000202724 -0.000179265)
(-4.03764e-05 -0.000209733 -0.000175731)
(-6.97316e-05 -0.000210132 -0.000177539)
(-0.000107137 -0.000202347 -0.0001848)
(-0.000154618 -0.000187595 -0.000200658)
(-0.000207543 -0.000164274 -0.000225954)
(-0.000264461 -0.000128506 -0.000259892)
(7.10536e-05 -0.000184221 -0.00025327)
(3.04704e-05 -0.000241428 -0.000240291)
(6.66395e-07 -0.00027067 -0.000227808)
(-2.27046e-05 -0.000291577 -0.000218583)
(-4.31967e-05 -0.000301975 -0.000213818)
(-6.53441e-05 -0.000300653 -0.000213268)
(-9.50733e-05 -0.000286781 -0.000218294)
(-0.000128613 -0.000258113 -0.000230828)
(-0.000167784 -0.000218126 -0.000249687)
(-0.00020027 -0.000154708 -0.000274108)
(0.000329188 0.000202392 1.78445e-05)
(0.000230706 0.00022001 2.33132e-05)
(8.65343e-05 0.000224481 2.7223e-05)
(2.5966e-05 0.000220805 3.41932e-05)
(-6.06853e-05 0.000214768 3.70608e-05)
(-0.000147246 0.000230575 3.52252e-05)
(-0.000228845 0.000250517 2.75167e-05)
(-0.000309689 0.000269497 1.49717e-05)
(-0.000394683 0.00025791 -1.92229e-06)
(-0.000457744 0.000222713 -2.19802e-05)
(0.000363313 0.000117537 8.25279e-06)
(0.000198112 8.35205e-05 2.03369e-05)
(9.70393e-05 0.00010569 2.67916e-05)
(1.81121e-05 0.000103383 3.11462e-05)
(-5.62604e-05 0.000104018 3.22027e-05)
(-0.000128231 0.00011257 2.98364e-05)
(-0.000210356 0.000128998 2.33701e-05)
(-0.000301818 0.000137539 1.22333e-05)
(-0.000409363 0.000134939 -3.4957e-06)
(-0.000533275 0.000113309 -2.33204e-05)
(0.000385011 4.36066e-06 -3.79387e-06)
(0.000227563 1.53887e-05 1.34247e-05)
(0.000110056 2.90653e-05 2.21904e-05)
(2.27442e-05 3.04043e-05 2.68327e-05)
(-5.09381e-05 3.57758e-05 2.79923e-05)
(-0.000119902 4.27919e-05 2.56787e-05)
(-0.000200265 5.08943e-05 1.98998e-05)
(-0.000301505 5.80564e-05 9.69226e-06)
(-0.000422596 6.08493e-05 -5.26476e-06)
(-0.000568045 5.46684e-05 -2.44789e-05)
(0.000385467 -1.18826e-05 -9.58379e-06)
(0.000232743 -2.27698e-05 7.55803e-06)
(0.000116875 -2.3399e-05 1.74922e-05)
(2.66637e-05 -1.8402e-05 2.2501e-05)
(-4.32218e-05 -1.19633e-05 2.3927e-05)
(-0.000113348 -6.13979e-06 2.20929e-05)
(-0.000196806 1.36569e-06 1.659e-05)
(-0.00029718 6.23097e-06 6.84868e-06)
(-0.000425344 9.0342e-06 -7.11678e-06)
(-0.000575367 1.19364e-05 -2.59923e-05)
(0.000377752 -5.89812e-05 -1.39453e-05)
(0.00022625 -6.44465e-05 2.40982e-06)
(0.000119002 -6.08662e-05 1.25107e-05)
(3.61545e-05 -5.44777e-05 1.82728e-05)
(-3.81663e-05 -4.76482e-05 2.00115e-05)
(-0.00010728 -4.12859e-05 1.82674e-05)
(-0.00019048 -3.71782e-05 1.33344e-05)
(-0.000299442 -3.47488e-05 4.01517e-06)
(-0.000428049 -3.44765e-05 -9.78102e-06)
(-0.000576092 -3.57357e-05 -2.79053e-05)
(0.000366822 -0.000114501 -1.87118e-05)
(0.000233545 -0.000106592 -2.77514e-06)
(0.000128407 -9.93012e-05 8.1148e-06)
(4.07459e-05 -9.15996e-05 1.40143e-05)
(-2.97353e-05 -8.55933e-05 1.60246e-05)
(-0.0001033 -8.00155e-05 1.48083e-05)
(-0.000191624 -7.68785e-05 9.86058e-06)
(-0.000296917 -7.6458e-05 6.87781e-07)
(-0.00043027 -7.846e-05 -1.24288e-05)
(-0.000582232 -8.38558e-05 -3.04594e-05)
(0.000380938 -0.000176076 -2.27855e-05)
(0.000238229 -0.000163752 -7.26507e-06)
(0.000133282 -0.000158977 3.24908e-06)
(4.99199e-05 -0.000153471 9.59058e-06)
(-2.6355e-05 -0.000148215 1.17863e-05)
(-9.85074e-05 -0.000142692 1.05586e-05)
(-0.000186645 -0.000138178 6.06843e-06)
(-0.0002997 -0.000134809 -2.83424e-06)
(-0.000432054 -0.000133208 -1.62663e-05)
(-0.000585679 -0.000134058 -3.38013e-05)
(0.000381636 -0.000247568 -2.78723e-05)
(0.000244517 -0.000251092 -1.31684e-05)
(0.000138404 -0.000252702 -2.44996e-06)
(5.25883e-05 -0.000254408 3.61986e-06)
(-1.81965e-05 -0.000248814 5.92298e-06)
(-9.31638e-05 -0.000241157 5.07177e-06)
(-0.000182983 -0.000231087 3.71654e-07)
(-0.000288442 -0.000219146 -8.36401e-06)
(-0.000420183 -0.000202547 -2.12755e-05)
(-0.000571019 -0.000181443 -3.86502e-05)
(0.000365999 -0.000332426 -3.37029e-05)
(0.000230326 -0.000365467 -2.03407e-05)
(0.000133388 -0.000386632 -1.05048e-05)
(5.79327e-05 -0.000388779 -4.29101e-06)
(-1.09841e-05 -0.000381532 -1.77903e-06)
(-8.0822e-05 -0.000368906 -2.85098e-06)
(-0.00016501 -0.000350001 -7.15987e-06)
(-0.000268315 -0.000326125 -1.59372e-05)
(-0.00038376 -0.000288816 -2.87553e-05)
(-0.000516836 -0.000235819 -4.43793e-05)
(0.000291686 -0.000417664 -4.10513e-05)
(0.000193124 -0.000506963 -2.9954e-05)
(0.00012571 -0.000542713 -2.07213e-05)
(6.75033e-05 -0.000544472 -1.43874e-05)
(6.05337e-06 -0.000530518 -1.16374e-05)
(-6.18885e-05 -0.000508721 -1.24466e-05)
(-0.000142424 -0.000483036 -1.7251e-05)
(-0.000225083 -0.00044256 -2.62445e-05)
(-0.000318199 -0.000376889 -3.80979e-05)
(-0.000396692 -0.000284456 -5.2137e-05)
(0.000375982 0.000146322 0.00026305)
(0.000308955 0.000151373 0.00023739)
(0.000189736 0.000147207 0.000222932)
(9.74165e-05 0.000125233 0.000217859)
(-1.43703e-05 0.000115652 0.000218764)
(-0.000125139 0.000137846 0.00022417)
(-0.000231316 0.000175498 0.000233069)
(-0.000331007 0.000221488 0.000244732)
(-0.000421306 0.000229987 0.000258974)
(-0.00046141 0.000197681 0.000275715)
(0.00043953 0.000118829 0.000244284)
(0.000299161 9.67019e-05 0.000228381)
(0.000184606 9.01701e-05 0.000214827)
(8.42351e-05 7.0424e-05 0.000208644)
(-9.13738e-06 6.59095e-05 0.000208908)
(-9.99063e-05 7.49882e-05 0.000213618)
(-0.000200679 9.92409e-05 0.000222439)
(-0.000310207 0.000120363 0.000235473)
(-0.000429078 0.000131236 0.000253239)
(-0.000554084 0.000116734 0.000275888)
(0.000450752 6.62967e-05 0.000231475)
(0.000305385 5.42788e-05 0.000218154)
(0.000179426 4.33416e-05 0.000207409)
(8.04558e-05 3.19175e-05 0.000202572)
(-6.04486e-06 3.05187e-05 0.000203199)
(-9.104e-05 3.49225e-05 0.000208034)
(-0.000187844 4.41594e-05 0.00021697)
(-0.00030358 5.56389e-05 0.000230866)
(-0.000435825 6.54029e-05 0.000250522)
(-0.000585743 6.52973e-05 0.00027653)
(0.000435555 4.72052e-05 0.000225407)
(0.000292427 2.23328e-05 0.000212915)
(0.000172893 8.1218e-06 0.000203864)
(7.68917e-05 2.60335e-06 0.000200354)
(-4.21504e-06 1.10868e-06 0.000201371)
(-8.74839e-05 1.98589e-06 0.00020624)
(-0.00018451 7.25644e-06 0.000215326)
(-0.000298367 1.22337e-05 0.000229486)
(-0.000435864 1.76421e-05 0.000249866)
(-0.000589417 2.43075e-05 0.000277352)
(0.000417247 1.61578e-08 0.000223356)
(0.000278414 -1.52722e-05 0.000211538)
(0.000166751 -2.12983e-05 0.000204115)
(7.68698e-05 -2.4327e-05 0.000201095)
(-5.61445e-06 -2.55233e-05 0.000202246)
(-8.59754e-05 -2.50415e-05 0.0002072)
(-0.000181406 -2.51108e-05 0.000215986)
(-0.000300833 -2.50048e-05 0.000230226)
(-0.000436632 -2.41835e-05 0.000251064)
(-0.000585649 -2.32232e-05 0.000278776)
(0.000401474 -4.93749e-05 0.000225499)
(0.000274679 -5.323e-05 0.000214057)
(0.000166206 -5.60413e-05 0.000206744)
(7.38953e-05 -5.7027e-05 0.000204212)
(-4.53318e-06 -5.87659e-05 0.000205406)
(-8.75144e-05 -5.99159e-05 0.00021004)
(-0.000186008 -6.21633e-05 0.000218825)
(-0.000300361 -6.56447e-05 0.000232786)
(-0.000438538 -6.97932e-05 0.000253316)
(-0.000588159 -7.40778e-05 0.000281214)
(0.000400032 -0.000103248 0.000230826)
(0.000268569 -0.000105617 0.000219153)
(0.00016175 -0.000110031 0.000212593)
(7.37377e-05 -0.000113432 0.000210001)
(-8.5488e-06 -0.000116418 0.000211153)
(-8.91708e-05 -0.000118584 0.000215634)
(-0.000186447 -0.000122144 0.000223711)
(-0.000306603 -0.000124818 0.00023717)
(-0.00044135 -0.000127924 0.000257165)
(-0.000589169 -0.000129095 0.0002842)
(0.000385128 -0.000167383 0.000239504)
(0.000261161 -0.000183427 0.000228644)
(0.000156437 -0.000194422 0.000222465)
(6.72938e-05 -0.000204123 0.000220476)
(-9.56919e-06 -0.000207581 0.000221553)
(-9.29409e-05 -0.000211433 0.000225356)
(-0.000190722 -0.000212005 0.000232783)
(-0.000301696 -0.000211435 0.000244807)
(-0.000433646 -0.00020264 0.000262779)
(-0.000573865 -0.00018373 0.00028782)
(0.000351687 -0.000239822 0.000250683)
(0.000236436 -0.000282313 0.000242731)
(0.000141444 -0.000309798 0.000238583)
(6.23389e-05 -0.000320185 0.000237489)
(-1.50036e-05 -0.000324793 0.000238449)
(-9.36039e-05 -0.000327583 0.000241662)
(-0.000186139 -0.000326384 0.000247158)
(-0.000293938 -0.000320369 0.000256868)
(-0.000404348 -0.000295736 0.00027153)
(-0.000520077 -0.000244027 0.000291482)
(0.000256391 -0.000297854 0.000263769)
(0.000188323 -0.000390995 0.000262327)
(0.000122734 -0.000433507 0.00026179)
(5.68914e-05 -0.000445209 0.000261827)
(-1.52896e-05 -0.00044714 0.000262598)
(-9.52353e-05 -0.000447621 0.000264347)
(-0.000185106 -0.000449001 0.000267875)
(-0.000270149 -0.000436533 0.000274024)
(-0.00035032 -0.000389215 0.00028289)
(-0.000391269 -0.000290646 0.000295176)
(0.000179968 8.4753e-05 0.000355089)
(0.000186102 9.96883e-05 0.000328201)
(0.000130536 9.25536e-05 0.000305598)
(8.15832e-05 7.11393e-05 0.000293167)
(2.01343e-05 5.93222e-05 0.000290591)
(-3.36887e-05 6.59541e-05 0.000295911)
(-8.10156e-05 7.95307e-05 0.000309181)
(-0.000123906 9.33916e-05 0.000328269)
(-0.000154203 8.80313e-05 0.000352868)
(-0.000147223 6.03168e-05 0.000379193)
(0.000223655 7.52481e-05 0.000346151)
(0.000171382 6.40194e-05 0.000322152)
(0.000116507 5.38533e-05 0.000300706)
(6.49392e-05 3.58308e-05 0.000288901)
(1.91201e-05 3.01825e-05 0.000286466)
(-2.30993e-05 3.25206e-05 0.000291127)
(-6.88146e-05 4.23958e-05 0.000303033)
(-0.000116009 4.96795e-05 0.00032263)
(-0.000164091 5.01305e-05 0.000350035)
(-0.000203172 3.13985e-05 0.000383616)
(0.000237566 3.30196e-05 0.000334001)
(0.000170808 2.93532e-05 0.000311963)
(0.00010886 2.19324e-05 0.000294289)
(6.12026e-05 1.4536e-05 0.000284901)
(1.8959e-05 1.29961e-05 0.000283211)
(-2.04659e-05 1.40423e-05 0.000288173)
(-6.37562e-05 1.67875e-05 0.000299988)
(-0.000116886 1.9946e-05 0.000320115)
(-0.000173634 2.01245e-05 0.00034951)
(-0.00022983 1.07459e-05 0.00038728)
(0.000232662 1.98548e-05 0.000325585)
(0.000163901 8.4955e-06 0.000305361)
(0.000105856 2.60923e-06 0.000290455)
(5.8583e-05 2.0285e-07 0.000283043)
(1.96251e-05 -8.87402e-07 0.000282292)
(-1.98365e-05 -1.05339e-06 0.000287587)
(-6.49891e-05 7.79432e-08 0.000299791)
(-0.00011672 1.00127e-07 0.00032046)
(-0.000178361 -6.87836e-07 0.000350644)
(-0.000240425 -4.2934e-06 0.000390855)
(0.00022493 -4.75411e-06 0.000320748)
(0.000157956 -1.08166e-05 0.000302064)
(0.000103677 -1.19914e-05 0.000289504)
(5.9343e-05 -1.25278e-05 0.000283323)
(1.82612e-05 -1.30318e-05 0.000283358)
(-1.99629e-05 -1.31057e-05 0.000289339)
(-6.43187e-05 -1.41527e-05 0.000301523)
(-0.000120946 -1.58587e-05 0.000322552)
(-0.000182602 -1.82766e-05 0.000353671)
(-0.000243061 -2.16693e-05 0.000394389)
(0.00021572 -2.70004e-05 0.000318825)
(0.000157628 -2.83195e-05 0.00030191)
(0.000105046 -2.85753e-05 0.000290425)
(5.80905e-05 -2.8463e-05 0.000285587)
(1.9252e-05 -2.89452e-05 0.000286376)
(-2.11283e-05 -2.95309e-05 0.000292525)
(-6.84028e-05 -3.13468e-05 0.000305314)
(-0.000122074 -3.41195e-05 0.000326502)
(-0.000185534 -3.73655e-05 0.000357233)
(-0.000246607 -4.09681e-05 0.000398337)
(0.000214517 -5.08036e-05 0.000319243)
(0.000154544 -5.34283e-05 0.000303864)
(0.000102897 -5.63921e-05 0.000294476)
(5.8764e-05 -5.80169e-05 0.000290481)
(1.71569e-05 -5.92569e-05 0.000292172)
(-2.22934e-05 -6.03471e-05 0.000298907)
(-6.86195e-05 -6.14001e-05 0.000311386)
(-0.000126125 -6.2713e-05 0.000332345)
(-0.000187764 -6.37704e-05 0.000362913)
(-0.000246028 -6.16125e-05 0.00040249)
(0.000202138 -8.10515e-05 0.000322718)
(0.000149243 -9.40419e-05 0.000310432)
(9.98658e-05 -0.00010183 0.000302933)
(5.52646e-05 -0.000107487 0.000300963)
(1.70103e-05 -0.000109362 0.000303622)
(-2.31861e-05 -0.000109336 0.00031042)
(-7.02124e-05 -0.000108223 0.000323243)
(-0.000122526 -0.000105204 0.000342988)
(-0.000181086 -9.74221e-05 0.000371215)
(-0.00023234 -8.14673e-05 0.00040789)
(0.000176142 -0.000111872 0.000329305)
(0.000132417 -0.00014344 0.000322169)
(9.03234e-05 -0.00016189 0.000318396)
(5.24191e-05 -0.000169251 0.000319017)
(1.58778e-05 -0.000170741 0.000322731)
(-2.10971e-05 -0.000169266 0.000330679)
(-6.43492e-05 -0.000163903 0.000341981)
(-0.000113813 -0.000154277 0.000360135)
(-0.000161062 -0.000135013 0.000384665)
(-0.000195442 -9.76741e-05 0.000414311)
(0.000112603 -0.000125076 0.000337504)
(9.78573e-05 -0.000186109 0.000338841)
(7.58098e-05 -0.000216589 0.000340858)
(4.83272e-05 -0.00022806 0.000344503)
(1.78374e-05 -0.000229131 0.000350288)
(-1.6436e-05 -0.000224406 0.000358138)
(-5.52554e-05 -0.000214909 0.000369202)
(-9.1567e-05 -0.000193359 0.000384057)
(-0.00012056 -0.000154047 0.000401953)
(-0.000117565 -8.92041e-05 0.000421179)
(0.000117215 3.87419e-05 0.000270817)
(0.00013503 5.09923e-05 0.000251387)
(0.000102579 5.20142e-05 0.000229949)
(7.52548e-05 4.26265e-05 0.000214799)
(4.20678e-05 3.92668e-05 0.000206278)
(1.5747e-05 4.25576e-05 0.00020237)
(-7.84757e-06 5.02826e-05 0.000202238)
(-2.85784e-05 5.64172e-05 0.000204663)
(-3.97492e-05 5.35662e-05 0.000209678)
(-3.54106e-05 3.86984e-05 0.00021399)
(0.000150102 5.10786e-05 0.000264608)
(0.000127199 4.4313e-05 0.000246671)
(9.54566e-05 3.83135e-05 0.000226948)
(6.70496e-05 2.8236e-05 0.000213483)
(4.29389e-05 2.64645e-05 0.000205723)
(2.17854e-05 2.80366e-05 0.000201907)
(1.17719e-07 3.29511e-05 0.000201692)
(-2.28788e-05 3.76896e-05 0.000204915)
(-4.30594e-05 3.92281e-05 0.000211163)
(-5.66844e-05 3.05693e-05 0.000219419)
(0.000157545 2.44176e-05 0.000255746)
(0.000126576 2.42257e-05 0.000239053)
(9.20647e-05 2.06163e-05 0.00022303)
(6.63094e-05 1.81866e-05 0.000211608)
(4.39463e-05 1.79718e-05 0.000204708)
(2.37728e-05 1.88961e-05 0.000201524)
(3.05622e-06 2.03306e-05 0.000201515)
(-2.09145e-05 2.25499e-05 0.000205234)
(-4.44824e-05 2.41592e-05 0.000213236)
(-6.46107e-05 2.10182e-05 0.000224028)
(0.000155528 1.49789e-05 0.000250349)
(0.000123479 1.19101e-05 0.000234734)
(9.18967e-05 1.12969e-05 0.00022064)
(6.62054e-05 1.14736e-05 0.000210771)
(4.45941e-05 1.13787e-05 0.000204667)
(2.43678e-05 1.15292e-05 0.000201747)
(3.41129e-06 1.20498e-05 0.000202312)
(-1.97846e-05 1.24333e-05 0.00020675)