/*--------------------------------*- C++ -*----------------------------------*\
| =========                 |                                                 |
| \\      /  F ield         | OpenFOAM: The Open Source CFD Toolbox           |
|  \\    /   O peration     | Version:  2406                                  |
|   \\  /    A nd           | Website:  www.openfoam.com                      |
|    \\/     M anipulation  |                                                 |
\*---------------------------------------------------------------------------*/
FoamFile
{
    version     2.0;
    format      ascii;
    arch        "LSB;label=32;scalar=64";
    class       volScalarField;
    location    "350";
    object      nuTilda;
}
// * * * * * * * * * * * * * * * * * * * * * * * * * * * * * * * * * * * * * //

dimensions      [0 2 -1 0 0 0 0];

internalField   nonuniform List<scalar> 
25000
(
3.96613e-05
3.97394e-05
3.97881e-05
3.98122e-05
3.98228e-05
3.98228e-05
3.98122e-05
3.97884e-05
3.97433e-05
3.96613e-05
3.97432e-05
3.98127e-05
3.98519e-05
3.98735e-05
3.9884e-05
3.9884e-05
3.98738e-05
3.98615e-05
3.98128e-05
3.97394e-05
3.97883e-05
3.98614e-05
3.98942e-05
3.99085e-05
3.99183e-05
3.99183e-05
3.99097e-05
3.98942e-05
3.98519e-05
3.97881e-05
3.98122e-05
3.98737e-05
3.99097e-05
3.99299e-05
3.99382e-05
3.9939e-05
3.99299e-05
3.99085e-05
3.98735e-05
3.98122e-05
3.98228e-05
3.9884e-05
3.99183e-05
3.9939e-05
3.99514e-05
3.99515e-05
3.99382e-05
3.99183e-05
3.9884e-05
3.98228e-05
3.98228e-05
3.9884e-05
3.99183e-05
3.99382e-05
3.99515e-05
3.99515e-05
3.99382e-05
3.99183e-05
3.9884e-05
3.98228e-05
3.98123e-05
3.98735e-05
3.99085e-05
3.99299e-05
3.99391e-05
3.99391e-05
3.99299e-05
3.99085e-05
3.98735e-05
3.98122e-05
3.97881e-05
3.98519e-05
3.98942e-05
3.99097e-05
3.99183e-05
3.99183e-05
3.99097e-05
3.98942e-05
3.98519e-05
3.97881e-05
3.97394e-05
3.98128e-05
3.98615e-05
3.98738e-05
3.9884e-05
3.9884e-05
3.98738e-05
3.98615e-05
3.98128e-05
3.97394e-05
3.96613e-05
3.97433e-05
3.97884e-05
3.98122e-05
3.98228e-05
3.98228e-05
3.98122e-05
3.97884e-05
3.97433e-05
3.96613e-05
3.89621e-05
3.92103e-05
3.93581e-05
3.9433e-05
3.94656e-05
3.94656e-05
3.9433e-05
3.93596e-05
3.92202e-05
3.89621e-05
3.92201e-05
3.94356e-05
3.95545e-05
3.96198e-05
3.96512e-05
3.96512e-05
3.96213e-05
3.95797e-05
3.94357e-05
3.92103e-05
3.93596e-05
3.95796e-05
3.96807e-05
3.97257e-05
3.97546e-05
3.97549e-05
3.97292e-05
3.96808e-05
3.95545e-05
3.93581e-05
3.94329e-05
3.96212e-05
3.97292e-05
3.97893e-05
3.9815e-05
3.98171e-05
3.97893e-05
3.97257e-05
3.96198e-05
3.9433e-05
3.94656e-05
3.96512e-05
3.97548e-05
3.98171e-05
3.98537e-05
3.98537e-05
3.98149e-05
3.97547e-05
3.96512e-05
3.94656e-05
3.94656e-05
3.96512e-05
3.97546e-05
3.9815e-05
3.98537e-05
3.98537e-05
3.98149e-05
3.97547e-05
3.96512e-05
3.94656e-05
3.9433e-05
3.96198e-05
3.97257e-05
3.97893e-05
3.98172e-05
3.98172e-05
3.97893e-05
3.97257e-05
3.96198e-05
3.9433e-05
3.93581e-05
3.95545e-05
3.96808e-05
3.97292e-05
3.97549e-05
3.97549e-05
3.97292e-05
3.96808e-05
3.95545e-05
3.93581e-05
3.92103e-05
3.94357e-05
3.95797e-05
3.96213e-05
3.96512e-05
3.96512e-05
3.96213e-05
3.95797e-05
3.94357e-05
3.92103e-05
3.89621e-05
3.92202e-05
3.93596e-05
3.9433e-05
3.94656e-05
3.94656e-05
3.9433e-05
3.93596e-05
3.92202e-05
3.89621e-05
3.82541e-05
3.86789e-05
3.89262e-05
3.90532e-05
3.91085e-05
3.91084e-05
3.90533e-05
3.89295e-05
3.86933e-05
3.82541e-05
3.86933e-05
3.90586e-05
3.92579e-05
3.93667e-05
3.94188e-05
3.94189e-05
3.937e-05
3.92954e-05
3.90587e-05
3.86789e-05
3.89295e-05
3.92954e-05
3.94666e-05
3.9544e-05
3.95915e-05
3.9592e-05
3.95494e-05
3.94666e-05
3.92579e-05
3.89262e-05
3.90533e-05
3.93699e-05
3.95494e-05
3.96489e-05
3.96922e-05
3.96954e-05
3.96489e-05
3.9544e-05
3.93668e-05
3.90532e-05
3.91084e-05
3.94189e-05
3.9592e-05
3.96954e-05
3.97554e-05
3.97554e-05
3.96921e-05
3.95915e-05
3.94188e-05
3.91085e-05
3.91085e-05
3.94188e-05
3.95915e-05
3.96922e-05
3.97554e-05
3.97554e-05
3.96921e-05
3.95915e-05
3.94188e-05
3.91085e-05
3.90532e-05
3.93667e-05
3.9544e-05
3.96489e-05
3.96956e-05
3.96956e-05
3.96489e-05
3.9544e-05
3.93668e-05
3.90532e-05
3.89262e-05
3.92579e-05
3.94666e-05
3.95494e-05
3.9592e-05
3.9592e-05
3.95494e-05
3.94666e-05
3.92579e-05
3.89262e-05
3.86789e-05
3.90587e-05
3.92954e-05
3.937e-05
3.94189e-05
3.94189e-05
3.937e-05
3.92954e-05
3.90587e-05
3.86789e-05
3.82541e-05
3.86933e-05
3.89295e-05
3.90533e-05
3.91085e-05
3.91085e-05
3.90533e-05
3.89295e-05
3.86934e-05
3.82541e-05
3.75511e-05
3.81494e-05
3.84954e-05
3.86748e-05
3.87529e-05
3.87529e-05
3.86751e-05
3.85007e-05
3.81674e-05
3.7551e-05
3.81675e-05
3.86832e-05
3.89628e-05
3.91149e-05
3.91873e-05
3.91876e-05
3.91201e-05
3.90102e-05
3.86832e-05
3.81494e-05
3.85007e-05
3.90102e-05
3.92523e-05
3.93634e-05
3.9429e-05
3.94298e-05
3.93704e-05
3.92523e-05
3.89628e-05
3.84954e-05
3.86751e-05
3.91201e-05
3.93704e-05
3.95089e-05
3.957e-05
3.9574e-05
3.95089e-05
3.93634e-05
3.91149e-05
3.86749e-05
3.87529e-05
3.91876e-05
3.94298e-05
3.95739e-05
3.96565e-05
3.96564e-05
3.95697e-05
3.94289e-05
3.91873e-05
3.87529e-05
3.87529e-05
3.91873e-05
3.9429e-05
3.957e-05
3.96565e-05
3.96565e-05
3.95697e-05
3.94289e-05
3.91873e-05
3.87529e-05
3.86749e-05
3.91149e-05
3.93634e-05
3.95089e-05
3.95743e-05
3.95743e-05
3.95089e-05
3.93634e-05
3.91149e-05
3.86749e-05
3.84954e-05
3.89628e-05
3.92523e-05
3.93704e-05
3.94299e-05
3.94299e-05
3.93704e-05
3.92523e-05
3.89628e-05
3.84954e-05
3.81494e-05
3.86832e-05
3.90102e-05
3.91201e-05
3.91876e-05
3.91876e-05
3.91201e-05
3.90102e-05
3.86832e-05
3.81494e-05
3.7551e-05
3.81674e-05
3.85007e-05
3.86751e-05
3.87529e-05
3.87529e-05
3.86751e-05
3.85007e-05
3.81674e-05
3.7551e-05
3.68623e-05
3.76248e-05
3.80676e-05
3.82992e-05
3.84e-05
3.84e-05
3.82998e-05
3.80751e-05
3.76458e-05
3.68624e-05
3.76459e-05
3.83099e-05
3.86694e-05
3.88643e-05
3.89568e-05
3.89573e-05
3.88715e-05
3.87248e-05
3.83099e-05
3.76249e-05
3.80751e-05
3.87248e-05
3.9038e-05
3.91835e-05
3.92669e-05
3.92681e-05
3.91921e-05
3.9038e-05
3.86694e-05
3.80677e-05
3.82999e-05
3.88716e-05
3.91921e-05
3.9369e-05
3.94479e-05
3.94525e-05
3.9369e-05
3.91835e-05
3.88644e-05
3.82993e-05
3.84001e-05
3.89573e-05
3.92681e-05
3.94525e-05
3.95568e-05
3.95568e-05
3.94474e-05
3.92668e-05
3.89568e-05
3.84001e-05
3.84e-05
3.89568e-05
3.92669e-05
3.94479e-05
3.95569e-05
3.95568e-05
3.94474e-05
3.92668e-05
3.89568e-05
3.84001e-05
3.82993e-05
3.88643e-05
3.91835e-05
3.9369e-05
3.9453e-05
3.9453e-05
3.9369e-05
3.91835e-05
3.88644e-05
3.82993e-05
3.80677e-05
3.86694e-05
3.9038e-05
3.91921e-05
3.92682e-05
3.92682e-05
3.91921e-05
3.9038e-05
3.86694e-05
3.80677e-05
3.76248e-05
3.83099e-05
3.87248e-05
3.88716e-05
3.89573e-05
3.89573e-05
3.88716e-05
3.87248e-05
3.83099e-05
3.76249e-05
3.68624e-05
3.76458e-05
3.80751e-05
3.82999e-05
3.84001e-05
3.84001e-05
3.82999e-05
3.80751e-05
3.76458e-05
3.68624e-05
3.61891e-05
3.71055e-05
3.76431e-05
3.79263e-05
3.80497e-05
3.80498e-05
3.79273e-05
3.76527e-05
3.71289e-05
3.61892e-05
3.7129e-05
3.79384e-05
3.83772e-05
3.86148e-05
3.87271e-05
3.87279e-05
3.86241e-05
3.84393e-05
3.79384e-05
3.71056e-05
3.76527e-05
3.84393e-05
3.88234e-05
3.90042e-05
3.91051e-05
3.91066e-05
3.90141e-05
3.88234e-05
3.83772e-05
3.76432e-05
3.79274e-05
3.86241e-05
3.90141e-05
3.92291e-05
3.93257e-05
3.93309e-05
3.9229e-05
3.90042e-05
3.86149e-05
3.79264e-05
3.80499e-05
3.87279e-05
3.91066e-05
3.93309e-05
3.94564e-05
3.94564e-05
3.93251e-05
3.91049e-05
3.87271e-05
3.80498e-05
3.80498e-05
3.87271e-05
3.91051e-05
3.93257e-05
3.94565e-05
3.94564e-05
3.93251e-05
3.91049e-05
3.87271e-05
3.80498e-05
3.79264e-05
3.86149e-05
3.90042e-05
3.92291e-05
3.93315e-05
3.93315e-05
3.92291e-05
3.90042e-05
3.86149e-05
3.79264e-05
3.76431e-05
3.83772e-05
3.88234e-05
3.90141e-05
3.91068e-05
3.91068e-05
3.90141e-05
3.88234e-05
3.83772e-05
3.76432e-05
3.71055e-05
3.79384e-05
3.84393e-05
3.86241e-05
3.87279e-05
3.87279e-05
3.86241e-05
3.84393e-05
3.79384e-05
3.71056e-05
3.61892e-05
3.7129e-05
3.76527e-05
3.79274e-05
3.80499e-05
3.80499e-05
3.79274e-05
3.76527e-05
3.7129e-05
3.61892e-05
3.55279e-05
3.65898e-05
3.722e-05
3.75546e-05
3.77007e-05
3.77008e-05
3.75561e-05
3.72317e-05
3.66151e-05
3.5528e-05
3.66152e-05
3.75675e-05
3.80854e-05
3.83657e-05
3.84976e-05
3.84987e-05
3.83769e-05
3.81528e-05
3.75674e-05
3.65898e-05
3.72317e-05
3.81529e-05
3.86082e-05
3.8825e-05
3.89433e-05
3.89452e-05
3.8836e-05
3.86081e-05
3.80854e-05
3.722e-05
3.75561e-05
3.83769e-05
3.8836e-05
3.90889e-05
3.92033e-05
3.92089e-05
3.90888e-05
3.88249e-05
3.83657e-05
3.75546e-05
3.77009e-05
3.84987e-05
3.89452e-05
3.92089e-05
3.93551e-05
3.93551e-05
3.92025e-05
3.8943e-05
3.84975e-05
3.77007e-05
3.77007e-05
3.84976e-05
3.89433e-05
3.92033e-05
3.93552e-05
3.93551e-05
3.92025e-05
3.8943e-05
3.84975e-05
3.77007e-05
3.75546e-05
3.83657e-05
3.8825e-05
3.9089e-05
3.92097e-05
3.92097e-05
3.90889e-05
3.88249e-05
3.83657e-05
3.75546e-05
3.722e-05
3.80854e-05
3.86081e-05
3.8836e-05
3.89454e-05
3.89454e-05
3.8836e-05
3.86081e-05
3.80854e-05
3.722e-05
3.65898e-05
3.75674e-05
3.81528e-05
3.83769e-05
3.84988e-05
3.84988e-05
3.83769e-05
3.81528e-05
3.75674e-05
3.65898e-05
3.5528e-05
3.66152e-05
3.72317e-05
3.75561e-05
3.77009e-05
3.77009e-05
3.75561e-05
3.72317e-05
3.66151e-05
3.5528e-05
3.48788e-05
3.60771e-05
3.67973e-05
3.71828e-05
3.73516e-05
3.73518e-05
3.71848e-05
3.6811e-05
3.61041e-05
3.48789e-05
3.61042e-05
3.71962e-05
3.77932e-05
3.81163e-05
3.82679e-05
3.82692e-05
3.81294e-05
3.78649e-05
3.71961e-05
3.60771e-05
3.6811e-05
3.7865e-05
3.83919e-05
3.86454e-05
3.87811e-05
3.87834e-05
3.86575e-05
3.83918e-05
3.77931e-05
3.67973e-05
3.71849e-05
3.81294e-05
3.86575e-05
3.89483e-05
3.90805e-05
3.90865e-05
3.89482e-05
3.86454e-05
3.81163e-05
3.71828e-05
3.73519e-05
3.82693e-05
3.87834e-05
3.90865e-05
3.9253e-05
3.92529e-05
3.90796e-05
3.87807e-05
3.82677e-05
3.73516e-05
3.73516e-05
3.82679e-05
3.87811e-05
3.90805e-05
3.92531e-05
3.9253e-05
3.90796e-05
3.87807e-05
3.82677e-05
3.73516e-05
3.71828e-05
3.81163e-05
3.86454e-05
3.89484e-05
3.90874e-05
3.90874e-05
3.89483e-05
3.86454e-05
3.81163e-05
3.71828e-05
3.67973e-05
3.77931e-05
3.83918e-05
3.86575e-05
3.87837e-05
3.87837e-05
3.86575e-05
3.83918e-05
3.77931e-05
3.67973e-05
3.60771e-05
3.71961e-05
3.78649e-05
3.81294e-05
3.82694e-05
3.82694e-05
3.81294e-05
3.78649e-05
3.71961e-05
3.60771e-05
3.48789e-05
3.61041e-05
3.6811e-05
3.71849e-05
3.73519e-05
3.73519e-05
3.71849e-05
3.6811e-05
3.61041e-05
3.48788e-05
3.42467e-05
3.55693e-05
3.63755e-05
3.68111e-05
3.70025e-05
3.70028e-05
3.68137e-05
3.63911e-05
3.55975e-05
3.42468e-05
3.55975e-05
3.68248e-05
3.75004e-05
3.78665e-05
3.80377e-05
3.80394e-05
3.78814e-05
3.75756e-05
3.68247e-05
3.55692e-05
3.63911e-05
3.75757e-05
3.81746e-05
3.84656e-05
3.86186e-05
3.86213e-05
3.84786e-05
3.81746e-05
3.75003e-05
3.63755e-05
3.68137e-05
3.78815e-05
3.84786e-05
3.88073e-05
3.89573e-05
3.89635e-05
3.88072e-05
3.84654e-05
3.78665e-05
3.6811e-05
3.70028e-05
3.80394e-05
3.86213e-05
3.89636e-05
3.915e-05
3.91499e-05
3.89562e-05
3.86181e-05
3.80374e-05
3.70024e-05
3.70025e-05
3.80377e-05
3.86186e-05
3.89573e-05
3.91501e-05
3.915e-05
3.89562e-05
3.86181e-05
3.80374e-05
3.70024e-05
3.6811e-05
3.78665e-05
3.84655e-05
3.88074e-05
3.89646e-05
3.89646e-05
3.88073e-05
3.84654e-05
3.78665e-05
3.6811e-05
3.63754e-05
3.75003e-05
3.81746e-05
3.84786e-05
3.86217e-05
3.86217e-05
3.84786e-05
3.81746e-05
3.75003e-05
3.63755e-05
3.55692e-05
3.68247e-05
3.75756e-05
3.78814e-05
3.80396e-05
3.80397e-05
3.78814e-05
3.75756e-05
3.68247e-05
3.55692e-05
3.42467e-05
3.55975e-05
3.63911e-05
3.68137e-05
3.70028e-05
3.70028e-05
3.68137e-05
3.63911e-05
3.55975e-05
3.42467e-05
3.36415e-05
3.50693e-05
3.59562e-05
3.64403e-05
3.6654e-05
3.66544e-05
3.64436e-05
3.59735e-05
3.50985e-05
3.36415e-05
3.50986e-05
3.64542e-05
3.72075e-05
3.76165e-05
3.78072e-05
3.78093e-05
3.76331e-05
3.72854e-05
3.6454e-05
3.50693e-05
3.59735e-05
3.72855e-05
3.79566e-05
3.82853e-05
3.84559e-05
3.84588e-05
3.82992e-05
3.79564e-05
3.72074e-05
3.59561e-05
3.64436e-05
3.76331e-05
3.82993e-05
3.8666e-05
3.88337e-05
3.88402e-05
3.86658e-05
3.82852e-05
3.76164e-05
3.64402e-05
3.66543e-05
3.78093e-05
3.84588e-05
3.88402e-05
3.90463e-05
3.90462e-05
3.88325e-05
3.84552e-05
3.78069e-05
3.66539e-05
3.66539e-05
3.78072e-05
3.84558e-05
3.88337e-05
3.90464e-05
3.90463e-05
3.88325e-05
3.84552e-05
3.78069e-05
3.66539e-05
3.64402e-05
3.76164e-05
3.82853e-05
3.86661e-05
3.88414e-05
3.88414e-05
3.86659e-05
3.82852e-05
3.76164e-05
3.64402e-05
3.59561e-05
3.72073e-05
3.79565e-05
3.82993e-05
3.84594e-05
3.84594e-05
3.82993e-05
3.79564e-05
3.72074e-05
3.59561e-05
3.50692e-05
3.6454e-05
3.72854e-05
3.76331e-05
3.78096e-05
3.78096e-05
3.76331e-05
3.72854e-05
3.6454e-05
3.50692e-05
3.36415e-05
3.50985e-05
3.59735e-05
3.64436e-05
3.66544e-05
3.66544e-05
3.64436e-05
3.59735e-05
3.50985e-05
3.36415e-05
3.30764e-05
3.45812e-05
3.55413e-05
3.60717e-05
3.6307e-05
3.63075e-05
3.60756e-05
3.55601e-05
3.46112e-05
3.30764e-05
3.46113e-05
3.60853e-05
3.69147e-05
3.73664e-05
3.75765e-05
3.7579e-05
3.73845e-05
3.69948e-05
3.60852e-05
3.45811e-05
3.55601e-05
3.6995e-05
3.77378e-05
3.81048e-05
3.82928e-05
3.82961e-05
3.81195e-05
3.77377e-05
3.69145e-05
3.55412e-05
3.60756e-05
3.73846e-05
3.81196e-05
3.85243e-05
3.87098e-05
3.87164e-05
3.8524e-05
3.81047e-05
3.73662e-05
3.60716e-05
3.63075e-05
3.7579e-05
3.82962e-05
3.87165e-05
3.89419e-05
3.89417e-05
3.87083e-05
3.82921e-05
3.75761e-05
3.63068e-05
3.63069e-05
3.75765e-05
3.82928e-05
3.87098e-05
3.89421e-05
3.89419e-05
3.87084e-05
3.82921e-05
3.75761e-05
3.63068e-05
3.60716e-05
3.73663e-05
3.81048e-05
3.85244e-05
3.87178e-05
3.87178e-05
3.85242e-05
3.81047e-05
3.73662e-05
3.60716e-05
3.55412e-05
3.69145e-05
3.77377e-05
3.81196e-05
3.82968e-05
3.82968e-05
3.81196e-05
3.77377e-05
3.69145e-05
3.55412e-05
3.45811e-05
3.60852e-05
3.69948e-05
3.73845e-05
3.75794e-05
3.75794e-05
3.73845e-05
3.69948e-05
3.60852e-05
3.45811e-05
3.30764e-05
3.46112e-05
3.55601e-05
3.60756e-05
3.63076e-05
3.63076e-05
3.60756e-05
3.55601e-05
3.46112e-05
3.30764e-05
3.25746e-05
3.4111e-05
3.51332e-05
3.57068e-05
3.59628e-05
3.59635e-05
3.57114e-05
3.51535e-05
3.41417e-05
3.25745e-05
3.41417e-05
3.57197e-05
3.66225e-05
3.71164e-05
3.73459e-05
3.73488e-05
3.7136e-05
3.67045e-05
3.57196e-05
3.41109e-05
3.51535e-05
3.67046e-05
3.75187e-05
3.79241e-05
3.81296e-05
3.81332e-05
3.79395e-05
3.75185e-05
3.66224e-05
3.51331e-05
3.57114e-05
3.71361e-05
3.79396e-05
3.83823e-05
3.85855e-05
3.85923e-05
3.8382e-05
3.79239e-05
3.71163e-05
3.57067e-05
3.59634e-05
3.73488e-05
3.81333e-05
3.85924e-05
3.88369e-05
3.88367e-05
3.85839e-05
3.81287e-05
3.73454e-05
3.59626e-05
3.59627e-05
3.73459e-05
3.81296e-05
3.85855e-05
3.88371e-05
3.88369e-05
3.85839e-05
3.81287e-05
3.73454e-05
3.59626e-05
3.57067e-05
3.71163e-05
3.79241e-05
3.83824e-05
3.85938e-05
3.85938e-05
3.83822e-05
3.79239e-05
3.71163e-05
3.57067e-05
3.51331e-05
3.66224e-05
3.75185e-05
3.79397e-05
3.8134e-05
3.8134e-05
3.79396e-05
3.75185e-05
3.66224e-05
3.51331e-05
3.41109e-05
3.57196e-05
3.67045e-05
3.71361e-05
3.73493e-05
3.73493e-05
3.71361e-05
3.67045e-05
3.57196e-05
3.41109e-05
3.25745e-05
3.41417e-05
3.51534e-05
3.57114e-05
3.59635e-05
3.59635e-05
3.57114e-05
3.51534e-05
3.41417e-05
3.25745e-05
3.21682e-05
3.36667e-05
3.4735e-05
3.53474e-05
3.56227e-05
3.56235e-05
3.53527e-05
3.47565e-05
3.3698e-05
3.21682e-05
3.3698e-05
3.53591e-05
3.63316e-05
3.68669e-05
3.71156e-05
3.71188e-05
3.68879e-05
3.6415e-05
3.53589e-05
3.36667e-05
3.47565e-05
3.64151e-05
3.72993e-05
3.77433e-05
3.79662e-05
3.79702e-05
3.77593e-05
3.72991e-05
3.63314e-05
3.47349e-05
3.53526e-05
3.68879e-05
3.77595e-05
3.824e-05
3.84609e-05
3.84678e-05
3.82397e-05
3.7743e-05
3.68668e-05
3.53473e-05
3.56235e-05
3.71188e-05
3.79702e-05
3.84679e-05
3.87313e-05
3.8731e-05
3.84592e-05
3.79652e-05
3.71149e-05
3.56225e-05
3.56226e-05
3.71155e-05
3.79662e-05
3.84609e-05
3.87315e-05
3.87312e-05
3.84592e-05
3.79652e-05
3.71149e-05
3.56225e-05
3.53473e-05
3.68668e-05
3.77432e-05
3.82402e-05
3.84695e-05
3.84694e-05
3.82399e-05
3.77431e-05
3.68668e-05
3.53473e-05
3.47349e-05
3.63314e-05
3.72992e-05
3.77595e-05
3.79711e-05
3.79711e-05
3.77595e-05
3.72991e-05
3.63314e-05
3.47349e-05
3.36667e-05
3.53589e-05
3.6415e-05
3.68879e-05
3.71194e-05
3.71194e-05
3.68879e-05
3.6415e-05
3.53589e-05
3.36667e-05
3.21682e-05
3.36979e-05
3.47565e-05
3.53527e-05
3.56236e-05
3.56236e-05
3.53527e-05
3.47565e-05
3.3698e-05
3.21682e-05
3.19182e-05
3.32622e-05
3.43509e-05
3.49955e-05
3.52883e-05
3.52893e-05
3.50015e-05
3.43737e-05
3.32939e-05
3.1918e-05
3.32939e-05
3.50057e-05
3.60425e-05
3.66182e-05
3.68857e-05
3.68893e-05
3.66403e-05
3.6127e-05
3.50056e-05
3.32621e-05
3.43737e-05
3.61272e-05
3.70799e-05
3.75624e-05
3.78028e-05
3.7807e-05
3.7579e-05
3.70797e-05
3.60424e-05
3.43509e-05
3.50014e-05
3.66404e-05
3.75791e-05
3.80975e-05
3.83359e-05
3.8343e-05
3.80971e-05
3.75621e-05
3.6618e-05
3.49954e-05
3.52892e-05
3.68893e-05
3.7807e-05
3.83431e-05
3.86251e-05
3.86248e-05
3.83341e-05
3.78016e-05
3.68849e-05
3.5288e-05
3.52882e-05
3.68856e-05
3.78028e-05
3.8336e-05
3.86253e-05
3.8625e-05
3.83342e-05
3.78016e-05
3.68849e-05
3.5288e-05
3.49954e-05
3.66181e-05
3.75623e-05
3.80977e-05
3.83448e-05
3.83448e-05
3.80974e-05
3.75621e-05
3.6618e-05
3.49954e-05
3.43509e-05
3.60424e-05
3.70798e-05
3.75792e-05
3.78081e-05
3.78081e-05
3.75792e-05
3.70798e-05
3.60424e-05
3.43509e-05
3.32621e-05
3.50056e-05
3.6127e-05
3.66404e-05
3.68899e-05
3.68899e-05
3.66404e-05
3.61271e-05
3.50056e-05
3.32621e-05
3.1918e-05
3.32938e-05
3.43737e-05
3.50015e-05
3.52894e-05
3.52895e-05
3.50015e-05
3.43737e-05
3.32939e-05
3.1918e-05
3.19056e-05
3.29178e-05
3.39875e-05
3.46543e-05
3.49618e-05
3.49629e-05
3.46609e-05
3.40113e-05
3.29498e-05
3.19052e-05
3.29498e-05
3.4663e-05
3.57562e-05
3.63705e-05
3.66564e-05
3.66604e-05
3.63937e-05
3.58416e-05
3.46629e-05
3.29177e-05
3.40113e-05
3.58417e-05
3.68607e-05
3.73814e-05
3.76393e-05
3.76438e-05
3.73986e-05
3.68605e-05
3.5756e-05
3.39874e-05
3.46609e-05
3.63938e-05
3.73988e-05
3.79548e-05
3.82107e-05
3.82179e-05
3.79544e-05
3.73811e-05
3.63703e-05
3.46542e-05
3.49628e-05
3.66604e-05
3.76438e-05
3.8218e-05
3.85184e-05
3.8518e-05
3.82088e-05
3.7638e-05
3.66555e-05
3.49615e-05
3.49617e-05
3.66564e-05
3.76393e-05
3.82108e-05
3.85186e-05
3.85183e-05
3.82088e-05
3.7638e-05
3.66555e-05
3.49615e-05
3.46542e-05
3.63704e-05
3.73814e-05
3.7955e-05
3.82198e-05
3.82198e-05
3.79547e-05
3.73812e-05
3.63703e-05
3.46542e-05
3.39874e-05
3.5756e-05
3.68606e-05
3.73989e-05
3.7645e-05
3.7645e-05
3.73988e-05
3.68606e-05
3.5756e-05
3.39874e-05
3.29177e-05
3.46629e-05
3.58416e-05
3.63939e-05
3.66612e-05
3.66612e-05
3.63939e-05
3.58416e-05
3.46629e-05
3.29177e-05
3.19052e-05
3.29497e-05
3.40113e-05
3.46609e-05
3.49631e-05
3.49631e-05
3.46609e-05
3.40113e-05
3.29498e-05
3.19052e-05
3.22781e-05
3.26679e-05
3.36552e-05
3.43283e-05
3.46462e-05
3.46475e-05
3.43355e-05
3.36799e-05
3.27e-05
3.22773e-05
3.27001e-05
3.43363e-05
3.54736e-05
3.61243e-05
3.64281e-05
3.64324e-05
3.61485e-05
3.55597e-05
3.43362e-05
3.26676e-05
3.36799e-05
3.55598e-05
3.66419e-05
3.72005e-05
3.74757e-05
3.74805e-05
3.72182e-05
3.66418e-05
3.54735e-05
3.36551e-05
3.43355e-05
3.61486e-05
3.72184e-05
3.78118e-05
3.80852e-05
3.80925e-05
3.78114e-05
3.72002e-05
3.61241e-05
3.43282e-05
3.46474e-05
3.64324e-05
3.74805e-05
3.80926e-05
3.84111e-05
3.84108e-05
3.80832e-05
3.74743e-05
3.64271e-05
3.46458e-05
3.46461e-05
3.64281e-05
3.74757e-05
3.80853e-05
3.84114e-05
3.84111e-05
3.80832e-05
3.74743e-05
3.64271e-05
3.46458e-05
3.43282e-05
3.61243e-05
3.72005e-05
3.78121e-05
3.80946e-05
3.80945e-05
3.78117e-05
3.72002e-05
3.61241e-05
3.43282e-05
3.36551e-05
3.54735e-05
3.66418e-05
3.72185e-05
3.74819e-05
3.74818e-05
3.72185e-05
3.66418e-05
3.54735e-05
3.36551e-05
3.26676e-05
3.43362e-05
3.55597e-05
3.61487e-05
3.64333e-05
3.64333e-05
3.61487e-05
3.55597e-05
3.43362e-05
3.26676e-05
3.22773e-05
3.26999e-05
3.36799e-05
3.43355e-05
3.46478e-05
3.46478e-05
3.43355e-05
3.36799e-05
3.27e-05
3.22773e-05
3.3196e-05
3.25654e-05
3.33702e-05
3.40248e-05
3.43463e-05
3.43478e-05
3.40326e-05
3.33958e-05
3.25977e-05
3.31947e-05
3.25978e-05
3.40337e-05
3.51966e-05
3.58801e-05
3.6201e-05
3.62056e-05
3.59052e-05
3.52832e-05
3.40336e-05
3.25649e-05
3.33958e-05
3.52834e-05
3.64239e-05
3.70198e-05
3.73122e-05
3.73172e-05
3.70379e-05
3.64237e-05
3.51965e-05
3.33701e-05
3.40326e-05
3.59053e-05
3.70381e-05
3.76687e-05
3.79595e-05
3.79668e-05
3.76683e-05
3.70194e-05
3.58799e-05
3.40247e-05
3.43477e-05
3.62056e-05
3.73172e-05
3.79669e-05
3.83034e-05
3.8303e-05
3.79573e-05
3.73106e-05
3.61999e-05
3.43459e-05
3.43463e-05
3.6201e-05
3.73122e-05
3.79596e-05
3.83038e-05
3.83034e-05
3.79574e-05
3.73106e-05
3.61999e-05
3.43459e-05
3.40248e-05
3.58801e-05
3.70197e-05
3.7669e-05
3.7969e-05
3.79689e-05
3.76686e-05
3.70194e-05
3.58799e-05
3.40247e-05
3.33701e-05
3.51965e-05
3.64238e-05
3.70383e-05
3.73187e-05
3.73187e-05
3.70382e-05
3.64238e-05
3.51965e-05
3.33701e-05
3.2565e-05
3.40336e-05
3.52833e-05
3.59054e-05
3.62067e-05
3.62067e-05
3.59054e-05
3.52833e-05
3.40336e-05
3.25649e-05
3.31947e-05
3.25975e-05
3.33958e-05
3.40327e-05
3.43481e-05
3.43481e-05
3.40327e-05
3.33958e-05
3.25976e-05
3.31946e-05
3.49053e-05
3.26829e-05
3.31575e-05
3.3755e-05
3.40695e-05
3.40711e-05
3.37633e-05
3.31838e-05
3.27152e-05
3.49029e-05
3.27154e-05
3.37687e-05
3.49278e-05
3.56388e-05
3.59755e-05
3.59804e-05
3.56646e-05
3.50148e-05
3.37685e-05
3.2682e-05
3.31838e-05
3.50149e-05
3.6207e-05
3.68392e-05
3.71487e-05
3.71539e-05
3.68578e-05
3.62068e-05
3.49277e-05
3.31572e-05
3.37634e-05
3.56647e-05
3.68579e-05
3.75255e-05
3.78335e-05
3.78408e-05
3.7525e-05
3.68388e-05
3.56385e-05
3.37548e-05
3.40711e-05
3.59804e-05
3.7154e-05
3.7841e-05
3.81952e-05
3.81948e-05
3.78312e-05
3.7147e-05
3.59743e-05
3.4069e-05
3.40695e-05
3.59755e-05
3.71487e-05
3.78336e-05
3.81956e-05
3.81952e-05
3.78313e-05
3.7147e-05
3.59743e-05
3.40691e-05
3.37549e-05
3.56387e-05
3.68392e-05
3.75258e-05
3.78432e-05
3.78431e-05
3.75254e-05
3.68389e-05
3.56385e-05
3.37549e-05
3.31573e-05
3.49277e-05
3.62069e-05
3.68582e-05
3.71556e-05
3.71556e-05
3.68581e-05
3.62069e-05
3.49277e-05
3.31574e-05
3.26822e-05
3.37685e-05
3.50148e-05
3.56649e-05
3.59816e-05
3.59816e-05
3.56648e-05
3.50148e-05
3.37685e-05
3.26821e-05
3.49029e-05
3.2715e-05
3.31838e-05
3.37634e-05
3.40716e-05
3.40716e-05
3.37634e-05
3.31837e-05
3.27151e-05
3.49029e-05
3.75505e-05
3.31282e-05
3.30545e-05
3.35354e-05
3.38268e-05
3.38286e-05
3.35443e-05
3.30815e-05
3.31603e-05
3.75475e-05
3.31606e-05
3.35606e-05
3.46713e-05
3.54014e-05
3.57523e-05
3.57574e-05
3.5428e-05
3.47586e-05
3.35604e-05
3.31268e-05
3.30815e-05
3.47587e-05
3.59918e-05
3.6659e-05
3.69853e-05
3.69907e-05
3.66779e-05
3.59916e-05
3.46712e-05
3.30542e-05
3.35444e-05
3.5428e-05
3.66781e-05
3.73821e-05
3.77072e-05
3.77146e-05
3.73816e-05
3.66586e-05
3.54011e-05
3.35353e-05
3.38286e-05
3.57575e-05
3.69908e-05
3.77148e-05
3.80866e-05
3.80862e-05
3.77048e-05
3.69834e-05
3.57509e-05
3.38262e-05
3.38268e-05
3.57523e-05
3.69853e-05
3.77073e-05
3.8087e-05
3.80866e-05
3.77049e-05
3.69834e-05
3.57509e-05
3.38263e-05
3.35354e-05
3.54013e-05
3.6659e-05
3.73825e-05
3.77171e-05
3.7717e-05
3.7382e-05
3.66586e-05
3.54011e-05
3.35353e-05
3.30542e-05
3.46712e-05
3.59917e-05
3.66784e-05
3.69926e-05
3.69925e-05
3.66783e-05
3.59916e-05
3.46712e-05
3.30544e-05
3.31271e-05
3.35604e-05
3.47586e-05
3.54282e-05
3.57588e-05
3.57588e-05
3.54282e-05
3.47586e-05
3.35604e-05
3.31269e-05
3.75474e-05
3.316e-05
3.30814e-05
3.35445e-05
3.38291e-05
3.38291e-05
3.35444e-05
3.30813e-05
3.31602e-05
3.75474e-05
4.14414e-05
3.40273e-05
3.31149e-05
3.3393e-05
3.36364e-05
3.36384e-05
3.34025e-05
3.31423e-05
3.4059e-05
4.14351e-05
3.40597e-05
3.344e-05
3.44334e-05
3.51699e-05
3.55322e-05
3.55376e-05
3.51971e-05
3.45208e-05
3.34397e-05
3.40249e-05
3.31424e-05
3.45209e-05
3.57791e-05
3.64793e-05
3.6822e-05
3.68276e-05
3.64985e-05
3.5779e-05
3.44333e-05
3.31143e-05
3.34025e-05
3.51972e-05
3.64987e-05
3.72386e-05
3.75807e-05
3.75881e-05
3.72381e-05
3.64788e-05
3.51695e-05
3.33928e-05
3.36384e-05
3.55376e-05
3.68277e-05
3.75883e-05
3.79776e-05
3.79771e-05
3.75782e-05
3.682e-05
3.55307e-05
3.36358e-05
3.36364e-05
3.55322e-05
3.68221e-05
3.75808e-05
3.7978e-05
3.79776e-05
3.75783e-05
3.68201e-05
3.55307e-05
3.36359e-05
3.3393e-05
3.51698e-05
3.64793e-05
3.72391e-05
3.75907e-05
3.75906e-05
3.72386e-05
3.64789e-05
3.51696e-05
3.33929e-05
3.31145e-05
3.44333e-05
3.57791e-05
3.6499e-05
3.68297e-05
3.68296e-05
3.64989e-05
3.5779e-05
3.44333e-05
3.31147e-05
3.40254e-05
3.34398e-05
3.45209e-05
3.51974e-05
3.55391e-05
3.55391e-05
3.51974e-05
3.45209e-05
3.34398e-05
3.40252e-05
4.1435e-05
3.40586e-05
3.31422e-05
3.34026e-05
3.3639e-05
3.3639e-05
3.34024e-05
3.3142e-05
3.40587e-05
4.14349e-05
4.6578e-05
3.55575e-05
3.34213e-05
3.33644e-05
3.35234e-05
3.35255e-05
3.33743e-05
3.3449e-05
3.55886e-05
4.65694e-05
3.55902e-05
3.34491e-05
3.4224e-05
3.49473e-05
3.53168e-05
3.53225e-05
3.49751e-05
3.43116e-05
3.34488e-05
3.55538e-05
3.34493e-05
3.43115e-05
3.55703e-05
3.63003e-05
3.6659e-05
3.66648e-05
3.63198e-05
3.55702e-05
3.42239e-05
3.34203e-05
3.33744e-05
3.49751e-05
3.632e-05
3.70951e-05
3.7454e-05
3.74615e-05
3.70945e-05
3.62998e-05
3.4947e-05
3.3364e-05
3.35255e-05
3.53224e-05
3.66648e-05
3.74617e-05
3.78682e-05
3.78677e-05
3.74514e-05
3.66569e-05
3.53152e-05
3.35227e-05
3.35234e-05
3.53168e-05
3.6659e-05
3.74542e-05
3.78687e-05
3.78682e-05
3.74516e-05
3.66569e-05
3.53152e-05
3.35227e-05
3.33643e-05
3.49472e-05
3.63003e-05
3.70956e-05
3.74642e-05
3.74641e-05
3.7095e-05
3.62999e-05
3.4947e-05
3.33643e-05
3.34207e-05
3.42238e-05
3.55703e-05
3.63204e-05
3.6667e-05
3.66669e-05
3.63203e-05
3.55703e-05
3.42239e-05
3.34208e-05
3.55549e-05
3.34488e-05
3.43116e-05
3.49755e-05
3.53242e-05
3.53242e-05
3.49755e-05
3.43116e-05
3.34489e-05
3.55542e-05
4.657e-05
3.55881e-05
3.34488e-05
3.33744e-05
3.35262e-05
3.35261e-05
3.33742e-05
3.34484e-05
3.55881e-05
4.65691e-05
5.26536e-05
3.7881e-05
3.40635e-05
3.35039e-05
3.35254e-05
3.35277e-05
3.35142e-05
3.40912e-05
3.79116e-05
5.2644e-05
3.79139e-05
3.36534e-05
3.40587e-05
3.47383e-05
3.51085e-05
3.51144e-05
3.47667e-05
3.41464e-05
3.36529e-05
3.7876e-05
3.40918e-05
3.41463e-05
3.53675e-05
3.61225e-05
3.64964e-05
3.65023e-05
3.61423e-05
3.53674e-05
3.40586e-05
3.4062e-05
3.35144e-05
3.47666e-05
3.61424e-05
3.69516e-05
3.73271e-05
3.73346e-05
3.69509e-05
3.6122e-05
3.4738e-05
3.35034e-05
3.35278e-05
3.51144e-05
3.65023e-05
3.73348e-05
3.77584e-05
3.77579e-05
3.73244e-05
3.64941e-05
3.51068e-05
3.35246e-05
3.35254e-05
3.51085e-05
3.64964e-05
3.73273e-05
3.77589e-05
3.77584e-05
3.73246e-05
3.64941e-05
3.51068e-05
3.35247e-05
3.35037e-05
3.47382e-05
3.61225e-05
3.69521e-05
3.73374e-05
3.73373e-05
3.69515e-05
3.61221e-05
3.4738e-05
3.35038e-05
3.40626e-05
3.40586e-05
3.53675e-05
3.61429e-05
3.65046e-05
3.65046e-05
3.61428e-05
3.53675e-05
3.40587e-05
3.40628e-05
3.78776e-05
3.36528e-05
3.41464e-05
3.47671e-05
3.51162e-05
3.51162e-05
3.47671e-05
3.41464e-05
3.36529e-05
3.78767e-05
5.26455e-05
3.79114e-05
3.40912e-05
3.35144e-05
3.35284e-05
3.35284e-05
3.3514e-05
3.40905e-05
3.79109e-05
5.2644e-05
5.94043e-05
4.09803e-05
3.51645e-05
3.38848e-05
3.36993e-05
3.37018e-05
3.38955e-05
3.51924e-05
4.10117e-05
5.93959e-05
4.10141e-05
3.411e-05
3.39576e-05
3.45505e-05
3.49114e-05
3.49175e-05
3.45793e-05
3.40452e-05
3.41091e-05
4.09748e-05
3.51932e-05
3.40452e-05
3.51737e-05
3.59464e-05
3.63343e-05
3.63403e-05
3.59664e-05
3.51735e-05
3.39572e-05
3.51628e-05
3.38959e-05
3.45792e-05
3.59665e-05
3.68081e-05
3.72001e-05
3.72076e-05
3.68075e-05
3.59458e-05
3.455e-05
3.38842e-05
3.37019e-05
3.49174e-05
3.63404e-05
3.72078e-05
3.76482e-05
3.76477e-05
3.71973e-05
3.63318e-05
3.49094e-05
3.36985e-05
3.36994e-05
3.49113e-05
3.63343e-05
3.72003e-05
3.76488e-05
3.76482e-05
3.71975e-05
3.63318e-05
3.49094e-05
3.36986e-05
3.38846e-05
3.45503e-05
3.59464e-05
3.68087e-05
3.72105e-05
3.72103e-05
3.68081e-05
3.59459e-05
3.455e-05
3.38848e-05
3.51634e-05
3.39573e-05
3.51737e-05
3.5967e-05
3.63428e-05
3.63427e-05
3.59669e-05
3.51736e-05
3.39573e-05
3.51641e-05
4.09764e-05
3.41092e-05
3.40452e-05
3.45796e-05
3.49194e-05
3.49194e-05
3.45796e-05
3.40451e-05
3.41092e-05
4.09762e-05
5.93972e-05
4.10116e-05
3.51925e-05
3.38958e-05
3.37027e-05
3.37025e-05
3.38953e-05
3.51916e-05
4.10114e-05
5.93966e-05
6.66051e-05
4.53215e-05
3.68664e-05
3.45959e-05
3.41058e-05
3.41084e-05
3.46071e-05
3.68944e-05
4.53532e-05
6.65989e-05
4.5355e-05
3.49406e-05
3.39531e-05
3.4395e-05
3.47318e-05
3.47381e-05
3.44243e-05
3.40407e-05
3.49395e-05
4.53158e-05
3.6895e-05
3.40409e-05
3.49936e-05
3.5773e-05
3.6173e-05
3.61792e-05
3.57931e-05
3.49933e-05
3.39525e-05
3.68644e-05
3.46075e-05
3.44243e-05
3.57933e-05
3.66649e-05
3.70729e-05
3.70804e-05
3.66642e-05
3.57723e-05
3.43944e-05
3.45953e-05
3.41086e-05
3.4738e-05
3.61793e-05
3.70807e-05
3.75378e-05
3.75372e-05
3.707e-05
3.61704e-05
3.47296e-05
3.4105e-05
3.41059e-05
3.47317e-05
3.61731e-05
3.70731e-05
3.75383e-05
3.75377e-05
3.70702e-05
3.61705e-05
3.47296e-05
3.41052e-05
3.45955e-05
3.43949e-05
3.5773e-05
3.66655e-05
3.70835e-05
3.70833e-05
3.66648e-05
3.57724e-05
3.43944e-05
3.45962e-05
3.68647e-05
3.39527e-05
3.49936e-05
3.57939e-05
3.61818e-05
3.61818e-05
3.57937e-05
3.49934e-05
3.39527e-05
3.68661e-05
4.53166e-05
3.49395e-05
3.40407e-05
3.44247e-05
3.47401e-05
3.47401e-05
3.44246e-05
3.40406e-05
3.49395e-05
4.53173e-05
6.65983e-05
4.5352e-05
3.68942e-05
3.46074e-05
3.41095e-05
3.41093e-05
3.46067e-05
3.68932e-05
4.53524e-05
6.65991e-05
7.40491e-05
5.06184e-05
3.9241e-05
3.57471e-05
3.48434e-05
3.48462e-05
3.57588e-05
3.9269e-05
5.06489e-05
7.40452e-05
5.06499e-05
3.62519e-05
3.40845e-05
3.42877e-05
3.45792e-05
3.45857e-05
3.43174e-05
3.41722e-05
3.62506e-05
5.06129e-05
3.92691e-05
3.41725e-05
3.48342e-05
3.56037e-05
3.60132e-05
3.60195e-05
3.5624e-05
3.48338e-05
3.40837e-05
3.9239e-05
3.5759e-05
3.43174e-05
3.56242e-05
3.6522e-05
3.69456e-05
3.69531e-05
3.65213e-05
3.56029e-05
3.42869e-05
3.57465e-05
3.48463e-05
3.45857e-05
3.60196e-05
3.69534e-05
3.7427e-05