/*--------------------------------*- C++ -*----------------------------------*\
| =========                 |                                                 |
| \\      /  F ield         | OpenFOAM: The Open Source CFD Toolbox           |
|  \\    /   O peration     | Version:  2406                                  |
|   \\  /    A nd           | Website:  www.openfoam.com                      |
|    \\/     M anipulation  |                                                 |
\*---------------------------------------------------------------------------*/
FoamFile
{
    version     2.0;
    format      ascii;
    arch        "LSB;label=32;scalar=64";
    class       volScalarField;
    location    "350";
    object      p;
}
// * * * * * * * * * * * * * * * * * * * * * * * * * * * * * * * * * * * * * //

dimensions      [0 2 -2 0 0 0 0];

internalField   nonuniform List<scalar> 
25000
(
3.1115e-06
-0.000899937
-0.00158423
-0.00204138
-0.00226986
-0.00226916
-0.00203924
-0.00158051
-0.00089444
1.24225e-05
-0.000899683
-0.00193307
-0.00271124
-0.00323062
-0.00348946
-0.00348884
-0.00322871
-0.00270794
-0.00192837
-0.000894069
-0.00158387
-0.00271113
-0.00355277
-0.0041131
-0.00439223
-0.0043917
-0.00411152
-0.0035501
-0.00270748
-0.00157966
-0.00204102
-0.00323048
-0.00411306
-0.004698
-0.00498902
-0.0049886
-0.00469674
-0.00411099
-0.00322772
-0.00203782
-0.00226961
-0.00348934
-0.00439218
-0.00498901
-0.00528569
-0.00528536
-0.00498803
-0.00439059
-0.00348722
-0.00226707
-0.00226906
-0.00348879
-0.00439169
-0.0049886
-0.00528537
-0.00528511
-0.00498784
-0.00439045
-0.00348711
-0.002267
-0.00203934
-0.00322878
-0.00411157
-0.00469679
-0.00498807
-0.00498786
-0.00469618
-0.00411057
-0.00322741
-0.00203761
-0.00158084
-0.00270817
-0.00355026
-0.00411112
-0.00439069
-0.00439052
-0.00411062
-0.00354942
-0.00270699
-0.00157933
-0.000895007
-0.00192878
-0.0027078
-0.00322796
-0.00348741
-0.00348726
-0.00322751
-0.00270705
-0.00192773
-0.000893636
1.16556e-05
-0.000894699
-0.00158017
-0.00203822
-0.00226739
-0.00226725
-0.00203779
-0.00157945
-0.000893683
1.29459e-05
-0.0177003
-0.0175599
-0.0174431
-0.0173606
-0.0173187
-0.0173185
-0.0173601
-0.0174431
-0.0175615
-0.0177025
-0.0175585
-0.0173796
-0.0172974
-0.0172474
-0.0172237
-0.0172234
-0.0172468
-0.017297
-0.0173804
-0.017561
-0.0174408
-0.0172963
-0.0172313
-0.0171987
-0.017185
-0.0171848
-0.0171982
-0.0172308
-0.0172965
-0.017442
-0.0173581
-0.0172457
-0.0171979
-0.0171797
-0.0171741
-0.017174
-0.0171794
-0.0171976
-0.0172457
-0.0173585
-0.0173163
-0.0172217
-0.0171837
-0.0171736
-0.0171726
-0.0171726
-0.0171735
-0.0171837
-0.0172218
-0.0173164
-0.0173162
-0.0172214
-0.0171833
-0.0171731
-0.0171722
-0.0171722
-0.0171732
-0.0171834
-0.0172216
-0.0173162
-0.017358
-0.0172449
-0.0171966
-0.0171783
-0.0171728
-0.0171729
-0.0171785
-0.0171969
-0.0172451
-0.0173581
-0.0174413
-0.0172953
-0.0172293
-0.0171965
-0.0171829
-0.017183
-0.0171967
-0.0172296
-0.0172956
-0.0174413
-0.0175599
-0.0173788
-0.0172951
-0.0172447
-0.0172211
-0.0172212
-0.0172449
-0.0172955
-0.0173791
-0.0175599
-0.0177012
-0.0175597
-0.017441
-0.0173577
-0.0173158
-0.0173159
-0.0173579
-0.0174413
-0.0175599
-0.0177012
-0.0367284
-0.0364431
-0.0362125
-0.036059
-0.0359789
-0.0359799
-0.0360624
-0.0362197
-0.0364553
-0.0367432
-0.036442
-0.0361084
-0.0358527
-0.035673
-0.0355829
-0.0355838
-0.0356761
-0.0358587
-0.0361185
-0.0364554
-0.0362106
-0.0358516
-0.0355758
-0.0353786
-0.0352782
-0.0352791
-0.0353813
-0.0355807
-0.035859
-0.0362202
-0.0360566
-0.0356713
-0.0353778
-0.0351724
-0.0350676
-0.0350683
-0.0351746
-0.0353816
-0.0356768
-0.0360634
-0.0359763
-0.0355808
-0.0352768
-0.0350669
-0.0349599
-0.0349606
-0.0350688
-0.0352799
-0.0355851
-0.0359816
-0.0359772
-0.0355814
-0.0352772
-0.0350671
-0.03496
-0.0349605
-0.0350687
-0.0352799
-0.0355851
-0.0359816
-0.0360596
-0.0356735
-0.0353791
-0.035173
-0.0350678
-0.0350683
-0.0351745
-0.0353815
-0.0356767
-0.0360634
-0.0362168
-0.035856
-0.0355784
-0.0353798
-0.0352787
-0.0352791
-0.0353812
-0.0355806
-0.0358589
-0.0362202
-0.0364523
-0.0361158
-0.0358567
-0.0356749
-0.0355837
-0.0355842
-0.0356762
-0.0358587
-0.0361184
-0.0364554
-0.0367402
-0.0364528
-0.036218
-0.0360616
-0.0359803
-0.0359807
-0.0360628
-0.0362199
-0.0364554
-0.0367433
-0.0480871
-0.0479392
-0.0478232
-0.0477554
-0.0477188
-0.0477207
-0.0477611
-0.0478337
-0.0479558
-0.048108
-0.0479394
-0.0477793
-0.0476412
-0.0475496
-0.0475055
-0.0475072
-0.0475549
-0.0476505
-0.0477932
-0.0479572
-0.0478231
-0.047641
-0.0474961
-0.0473943
-0.0473448
-0.0473463
-0.0473989
-0.047504
-0.047652
-0.0478367
-0.047755
-0.0475492
-0.047394
-0.0472866
-0.0472339
-0.0472351
-0.0472904
-0.0474005
-0.047558
-0.0477658
-0.0477182
-0.0475048
-0.0473443
-0.0472336
-0.0471785
-0.0471796
-0.0472367
-0.0473496
-0.0475122
-0.0477273
-0.0477199
-0.0475063
-0.0473455
-0.0472345
-0.0471792
-0.0471801
-0.0472371
-0.0473499
-0.0475124
-0.0477276
-0.04776
-0.0475537
-0.0473978
-0.0472895
-0.0472361
-0.0472368
-0.0472917
-0.0474015
-0.0475589
-0.0477667
-0.0478325
-0.0476491
-0.0475028
-0.0473994
-0.0473486
-0.0473492
-0.0474012
-0.0475059
-0.0476536
-0.0478381
-0.0479544
-0.0477918
-0.0476506
-0.0475568
-0.0475111
-0.0475116
-0.0475583
-0.0476532
-0.0477956
-0.0479592
-0.0481065
-0.0479559
-0.0478355
-0.0477647
-0.0477263
-0.0477267
-0.0477659
-0.0478375
-0.0479588
-0.0481105
-0.0541614
-0.0540795
-0.0540148
-0.0539819
-0.0539628
-0.053964
-0.0539853
-0.0540207
-0.0540889
-0.0541736
-0.0540804
-0.0539804
-0.053889
-0.0538347
-0.0538082
-0.0538093
-0.053838
-0.0538946
-0.0539888
-0.0540911
-0.054016
-0.0538894
-0.0537897
-0.0537262
-0.0536965
-0.0536976
-0.0537293
-0.053795
-0.0538967
-0.054025
-0.0539835
-0.0538354
-0.0537264
-0.0536559
-0.0536232
-0.0536241
-0.0536587
-0.0537311
-0.0538419
-0.0539916
-0.0539644
-0.053809
-0.0536969
-0.0536232
-0.0535885
-0.0535893
-0.0536257
-0.053701
-0.0538149
-0.053972
-0.0539654
-0.05381
-0.0536977
-0.053624
-0.0535892
-0.0535899
-0.0536262
-0.0537015
-0.0538153
-0.0539724
-0.0539863
-0.0538383
-0.0537292
-0.0536583
-0.0536252
-0.0536259
-0.0536602
-0.0537325
-0.0538432
-0.0539927
-0.0540212
-0.0538945
-0.0537944
-0.0537304
-0.0537002
-0.0537008
-0.0537321
-0.0537974
-0.0538988
-0.0540269
-0.0540888
-0.0539882
-0.0538958
-0.0538409
-0.0538138
-0.0538143
-0.0538423
-0.0538984
-0.0539921
-0.0540939
-0.0541729
-0.0540901
-0.0540238
-0.0539902
-0.0539706
-0.053971
-0.0539914
-0.0540259
-0.0540933
-0.0541773
-0.0583267
-0.0583111
-0.0582945
-0.0582911
-0.058287
-0.058287
-0.0582909
-0.0582939
-0.0583108
-0.0583269
-0.0583114
-0.058281
-0.0582446
-0.0582266
-0.0582161
-0.0582161
-0.0582266
-0.0582446
-0.0582813
-0.0583122
-0.0582953
-0.0582449
-0.0582001
-0.058174
-0.058161
-0.0581611
-0.0581742
-0.0582006
-0.0582458
-0.0582967
-0.0582926
-0.0582272
-0.0581742
-0.0581402
-0.0581241
-0.0581242
-0.0581406
-0.0581751
-0.0582287
-0.0582947
-0.0582886
-0.0582168
-0.0581613
-0.0581242
-0.0581065
-0.0581067
-0.0581247
-0.0581625
-0.0582187
-0.0582913
-0.0582884
-0.0582167
-0.0581613
-0.0581241
-0.0581065
-0.0581067
-0.0581248
-0.0581626
-0.0582188
-0.0582915
-0.058292
-0.0582269
-0.0581741
-0.0581402
-0.0581243
-0.0581245
-0.058141
-0.0581755
-0.0582293
-0.0582952
-0.0582943
-0.0582444
-0.0582
-0.0581742
-0.0581616
-0.0581619
-0.0581751
-0.0582017
-0.0582469
-0.0582977
-0.0583104
-0.0582805
-0.0582447
-0.0582274
-0.0582174
-0.0582177
-0.0582284
-0.0582464
-0.058283
-0.0583138
-0.0583257
-0.0583108
-0.058295
-0.0582928
-0.0582895
-0.0582898
-0.0582938
-0.0582967
-0.0583133
-0.058329
-0.0624614
-0.0624807
-0.0624896
-0.0625012
-0.0625052
-0.0625049
-0.0625002
-0.0624877
-0.062478
-0.0624584
-0.0624806
-0.0624982
-0.0625038
-0.0625124
-0.0625146
-0.0625143
-0.0625115
-0.0625022
-0.0624962
-0.0624785
-0.0624902
-0.062504
-0.062509
-0.0625163
-0.062519
-0.0625187
-0.0625155
-0.0625078
-0.0625026
-0.0624886
-0.0625024
-0.0625131
-0.0625166
-0.0625206
-0.0625224
-0.0625222
-0.06252
-0.0625156
-0.062512
-0.0625013
-0.0625066
-0.0625154
-0.0625194
-0.0625225
-0.0625243
-0.0625241
-0.0625221
-0.0625187
-0.0625147
-0.0625059
-0.0625064
-0.0625152
-0.0625192
-0.0625223
-0.0625241
-0.062524
-0.062522
-0.0625187
-0.0625147
-0.062506
-0.0625016
-0.0625124
-0.0625159
-0.06252
-0.062522
-0.0625219
-0.0625198
-0.0625156
-0.0625122
-0.0625015
-0.062489
-0.062503
-0.0625081
-0.0625156
-0.0625186
-0.0625185
-0.0625155
-0.062508
-0.0625029
-0.062489
-0.0624791
-0.0624969
-0.0625028
-0.062512
-0.0625144
-0.0625144
-0.0625118
-0.0625027
-0.0624968
-0.0624791
-0.0624593
-0.0624791
-0.0624888
-0.0625012
-0.0625056
-0.0625055
-0.062501
-0.0624885
-0.0624788
-0.0624591
-0.0671964
-0.0672128
-0.0672206
-0.0672297
-0.067233
-0.0672331
-0.0672301
-0.0672212
-0.0672134
-0.0671971
-0.0672134
-0.0672335
-0.0672454
-0.0672567
-0.0672604
-0.0672604
-0.0672568
-0.0672456
-0.0672338
-0.0672139
-0.0672221
-0.067246
-0.0672604
-0.0672734
-0.0672788
-0.0672788
-0.0672734
-0.0672604
-0.0672461
-0.0672222
-0.0672316
-0.0672577
-0.0672738
-0.0672866
-0.0672923
-0.0672923
-0.0672865
-0.0672737
-0.0672576
-0.0672315
-0.067235
-0.0672615
-0.0672794
-0.0672925
-0.0672989
-0.0672988
-0.0672923
-0.0672792
-0.0672613
-0.0672348
-0.0672351
-0.0672616
-0.0672794
-0.0672925
-0.0672989
-0.0672988
-0.0672924
-0.0672792
-0.0672614
-0.0672349
-0.0672319
-0.0672579
-0.0672739
-0.0672866
-0.0672923
-0.0672923
-0.0672865
-0.0672738
-0.0672577
-0.0672317
-0.0672227
-0.0672465
-0.0672608
-0.0672737
-0.067279
-0.067279
-0.0672736
-0.0672606
-0.0672464
-0.0672224
-0.0672146
-0.0672345
-0.0672463
-0.0672575
-0.0672611
-0.067261
-0.0672574
-0.0672462
-0.0672343
-0.0672143
-0.067198
-0.0672144
-0.0672223
-0.0672313
-0.0672344
-0.0672343
-0.0672311
-0.067222
-0.0672141
-0.0671976
-0.0724329
-0.0724391
-0.0724411
-0.0724449
-0.0724456
-0.0724459
-0.0724459
-0.0724428
-0.0724414
-0.0724357
-0.0724392
-0.0724494
-0.0724557
-0.0724617
-0.0724632
-0.0724635
-0.0724626
-0.0724572
-0.0724515
-0.0724419
-0.0724415
-0.0724559
-0.0724638
-0.0724716
-0.0724743
-0.0724745
-0.0724723
-0.0724651
-0.0724578
-0.0724439
-0.0724453
-0.072462
-0.0724717
-0.0724797
-0.0724829
-0.0724831
-0.0724804
-0.0724729
-0.0724637
-0.0724476
-0.0724461
-0.0724635
-0.0724744
-0.0724829
-0.0724866
-0.0724869
-0.0724835
-0.0724755
-0.0724651
-0.0724482
-0.0724464
-0.0724638
-0.0724746
-0.0724831
-0.0724868
-0.072487
-0.0724837
-0.0724756
-0.0724652
-0.0724483
-0.0724461
-0.0724627
-0.0724723
-0.0724803
-0.0724834
-0.0724836
-0.0724808
-0.0724733
-0.0724641
-0.072448
-0.0724428
-0.0724572
-0.072465
-0.0724727
-0.0724753
-0.0724754
-0.0724732
-0.0724659
-0.0724585
-0.0724446
-0.0724413
-0.0724514
-0.0724576
-0.0724635
-0.0724649
-0.072465
-0.0724639
-0.0724584
-0.0724526
-0.0724429
-0.0724356
-0.0724418
-0.0724438
-0.0724474
-0.072448
-0.0724481
-0.0724478
-0.0724444
-0.0724428
-0.072437
-0.0779205
-0.0779201
-0.0779186
-0.0779191
-0.0779183
-0.0779186
-0.07792
-0.0779202
-0.0779223
-0.0779231
-0.0779203
-0.0779234
-0.0779248
-0.0779267
-0.0779266
-0.0779269
-0.0779275
-0.0779262
-0.0779253
-0.0779227
-0.077919
-0.077925
-0.0779272
-0.0779304
-0.0779309
-0.0779312
-0.0779311
-0.0779285
-0.0779268
-0.0779213
-0.0779194
-0.0779269
-0.0779304
-0.077934
-0.077935
-0.0779352
-0.0779347
-0.0779316
-0.0779286
-0.0779217
-0.0779186
-0.0779268
-0.077931
-0.077935
-0.0779363
-0.0779365
-0.0779356
-0.0779322
-0.0779284
-0.0779208
-0.0779187
-0.077927
-0.0779312
-0.0779351
-0.0779365
-0.0779367
-0.0779358
-0.0779323
-0.0779286
-0.0779209
-0.0779199
-0.0779274
-0.077931
-0.0779346
-0.0779355
-0.0779357
-0.0779352
-0.0779321
-0.0779291
-0.0779221
-0.0779199
-0.077926
-0.0779282
-0.0779314
-0.0779319
-0.0779321
-0.077932
-0.0779292
-0.0779275
-0.077922
-0.0779217
-0.0779249
-0.0779264
-0.0779283
-0.0779281
-0.0779283
-0.0779288
-0.0779274
-0.0779264
-0.0779238
-0.0779224
-0.0779222
-0.0779208
-0.0779213
-0.0779204
-0.0779206
-0.0779218
-0.0779218
-0.0779237
-0.0779244
-0.0834943
-0.0834906
-0.0834874
-0.083486
-0.0834844
-0.0834846
-0.0834865
-0.0834882
-0.0834918
-0.0834957
-0.0834908
-0.0834894
-0.0834877
-0.083487
-0.0834859
-0.0834861
-0.0834875
-0.0834885
-0.0834906
-0.0834921
-0.0834876
-0.0834878
-0.0834861
-0.0834864
-0.0834856
-0.0834857
-0.0834868
-0.0834869
-0.0834889
-0.083489
-0.0834862
-0.0834872
-0.0834864
-0.0834869
-0.0834864
-0.0834865
-0.0834874
-0.0834872
-0.0834883
-0.0834876
-0.0834847
-0.0834861
-0.0834857
-0.0834864
-0.0834862
-0.0834863
-0.0834869
-0.0834864
-0.0834872
-0.0834861
-0.0834848
-0.0834863
-0.0834859
-0.0834866
-0.0834863
-0.0834864
-0.083487
-0.0834866
-0.0834873
-0.0834862
-0.0834865
-0.0834876
-0.0834869
-0.0834874
-0.0834868
-0.083487
-0.0834878
-0.0834876
-0.0834886
-0.083488
-0.0834882
-0.0834885
-0.0834869
-0.0834872
-0.0834864
-0.0834865
-0.0834875
-0.0834876
-0.0834895
-0.0834896
-0.0834917
-0.0834905
-0.0834889
-0.0834882
-0.0834871
-0.0834872
-0.0834886
-0.0834895
-0.0834915
-0.083493
-0.0834955
-0.083492
-0.0834889
-0.0834876
-0.083486
-0.0834861
-0.0834879
-0.0834895
-0.0834929
-0.0834967
-0.0890784
-0.0890734
-0.0890695
-0.0890673
-0.0890656
-0.0890658
-0.0890677
-0.0890701
-0.0890742
-0.0890794
-0.0890736
-0.0890696
-0.089066
-0.0890638
-0.0890623
-0.0890624
-0.0890642
-0.0890666
-0.0890705
-0.0890745
-0.0890697
-0.0890661
-0.0890619
-0.0890602
-0.0890586
-0.0890588
-0.0890605
-0.0890625
-0.0890669
-0.0890707
-0.0890675
-0.089064
-0.0890603
-0.0890586
-0.0890571
-0.0890572
-0.0890589
-0.0890608
-0.0890648
-0.0890685
-0.0890659
-0.0890625
-0.0890588
-0.0890572
-0.0890558
-0.0890559
-0.0890575
-0.0890593
-0.0890633
-0.0890669
-0.089066
-0.0890627
-0.0890589
-0.0890573
-0.0890559
-0.089056
-0.0890576
-0.0890594
-0.0890634
-0.0890669
-0.0890679
-0.0890644
-0.0890607
-0.089059
-0.0890575
-0.0890576
-0.0890593
-0.0890612
-0.0890651
-0.0890687
-0.0890703
-0.0890667
-0.0890626
-0.0890609
-0.0890593
-0.0890594
-0.0890611
-0.089063
-0.0890674
-0.0890711
-0.0890743
-0.0890705
-0.0890669
-0.0890648
-0.0890633
-0.0890634
-0.0890651
-0.0890674
-0.0890711
-0.0890751
-0.0890794
-0.0890745
-0.0890707
-0.0890685
-0.0890668
-0.0890669
-0.0890687
-0.089071
-0.089075
-0.0890801
-0.0946319
-0.0946269
-0.0946232
-0.0946209
-0.0946195
-0.0946196
-0.0946212
-0.0946237
-0.0946277
-0.0946328
-0.0946269
-0.0946221
-0.0946179
-0.0946154
-0.0946138
-0.0946139
-0.0946157
-0.0946185
-0.0946229
-0.0946279
-0.0946231
-0.0946179
-0.0946128
-0.0946103
-0.0946085
-0.0946086
-0.0946106
-0.0946134
-0.0946187
-0.0946241
-0.0946207
-0.0946153
-0.0946103
-0.0946076
-0.0946058
-0.0946059
-0.0946079
-0.0946108
-0.094616
-0.0946217
-0.0946193
-0.0946137
-0.0946085
-0.0946058
-0.094604
-0.0946041
-0.0946061
-0.094609
-0.0946144
-0.0946202
-0.0946193
-0.0946137
-0.0946085
-0.0946059
-0.094604
-0.0946041
-0.0946061
-0.094609
-0.0946145
-0.0946202
-0.0946208
-0.0946155
-0.0946105
-0.0946078
-0.094606
-0.0946061
-0.0946081
-0.0946109
-0.0946162
-0.0946218
-0.0946233
-0.0946182
-0.0946131
-0.0946106
-0.0946089
-0.0946089
-0.0946109
-0.0946136
-0.0946189
-0.0946242
-0.0946271
-0.0946225
-0.0946184
-0.0946158
-0.0946143
-0.0946144
-0.0946161
-0.0946188
-0.0946232
-0.094628
-0.0946323
-0.0946274
-0.0946237
-0.0946214
-0.0946201
-0.0946201
-0.0946217
-0.0946242
-0.094628
-0.0946331
-0.100135
-0.10013
-0.100127
-0.100125
-0.100124
-0.100124
-0.100125
-0.100128
-0.100131
-0.100136
-0.10013
-0.100125
-0.100121
-0.100119
-0.100118
-0.100118
-0.100119
-0.100122
-0.100127
-0.100132
-0.100127
-0.100121
-0.100116
-0.100114
-0.100112
-0.100112
-0.100114
-0.100117
-0.100122
-0.100128
-0.100124
-0.100119
-0.100113
-0.100111
-0.100109
-0.100109
-0.100111
-0.100114
-0.10012
-0.100126
-0.100123
-0.100117
-0.100112
-0.100109
-0.100107
-0.100107
-0.100109
-0.100112
-0.100118
-0.100124
-0.100123
-0.100117
-0.100112
-0.100109
-0.100107
-0.100107
-0.100109
-0.100112
-0.100118
-0.100124
-0.100124
-0.100119
-0.100114
-0.100111
-0.100109
-0.100109
-0.100111
-0.100114
-0.10012
-0.100126
-0.100127
-0.100121
-0.100116
-0.100114
-0.100112
-0.100112
-0.100114
-0.100117
-0.100122
-0.100128
-0.10013
-0.100126
-0.100122
-0.100119
-0.100118
-0.100118
-0.100119
-0.100122
-0.100127
-0.100132
-0.100135
-0.100131
-0.100127
-0.100125
-0.100124
-0.100124
-0.100126
-0.100128
-0.100132
-0.100136
-0.105584
-0.10558
-0.105577
-0.105575
-0.105574
-0.105574
-0.105576
-0.105578
-0.105581
-0.105585
-0.10558
-0.105575
-0.105571
-0.105569
-0.105568
-0.105568
-0.10557
-0.105572
-0.105576
-0.105581
-0.105576
-0.105571
-0.105566
-0.105564
-0.105562
-0.105562
-0.105564
-0.105567
-0.105572
-0.105578
-0.105574
-0.105569
-0.105564
-0.105561
-0.105559
-0.105559
-0.105561
-0.105564
-0.10557
-0.105576
-0.105573
-0.105567
-0.105562
-0.105559
-0.105557
-0.105557
-0.105559
-0.105563
-0.105568
-0.105575
-0.105573
-0.105567
-0.105562
-0.105559
-0.105557
-0.105557
-0.105559
-0.105563
-0.105568
-0.105574
-0.105574
-0.105569
-0.105564
-0.105561
-0.105559
-0.105559
-0.105561
-0.105564
-0.10557
-0.105576
-0.105576
-0.105571
-0.105566
-0.105564
-0.105562
-0.105562
-0.105564
-0.105567
-0.105572
-0.105578
-0.10558
-0.105575
-0.105571
-0.105569
-0.105568
-0.105568
-0.105569
-0.105572
-0.105576
-0.105581
-0.105584
-0.10558
-0.105577
-0.105575
-0.105574
-0.105574
-0.105575
-0.105578
-0.105581
-0.105585
-0.110984
-0.11098
-0.110977
-0.110975
-0.110975
-0.110975
-0.110976
-0.110978
-0.110981
-0.110985
-0.11098
-0.110975
-0.110972
-0.11097
-0.110969
-0.110969
-0.11097
-0.110973
-0.110976
-0.110981
-0.110977
-0.110972
-0.110967
-0.110965
-0.110963
-0.110963
-0.110965
-0.110968
-0.110973
-0.110978
-0.110975
-0.110969
-0.110964
-0.110962
-0.11096
-0.11096
-0.110962
-0.110965
-0.11097
-0.110976
-0.110974
-0.110968
-0.110963
-0.11096
-0.110958
-0.110959
-0.11096
-0.110963
-0.110969
-0.110975
-0.110974
-0.110968
-0.110963
-0.11096
-0.110958
-0.110958
-0.11096
-0.110963
-0.110969
-0.110975
-0.110975
-0.110969
-0.110964
-0.110962
-0.11096
-0.11096
-0.110962
-0.110965
-0.11097
-0.110976
-0.110977
-0.110972
-0.110967
-0.110965
-0.110963
-0.110963
-0.110965
-0.110968
-0.110972
-0.110978
-0.11098
-0.110975
-0.110972
-0.11097
-0.110968
-0.110968
-0.11097
-0.110972
-0.110976
-0.110981
-0.110984
-0.11098
-0.110977
-0.110975
-0.110974
-0.110975
-0.110976
-0.110978
-0.110981
-0.110985
-0.116338
-0.116335
-0.116332
-0.11633
-0.11633
-0.11633
-0.116331
-0.116333
-0.116336
-0.116339
-0.116335
-0.11633
-0.116327
-0.116325
-0.116324
-0.116324
-0.116325
-0.116327
-0.116331
-0.116335
-0.116332
-0.116327
-0.116323
-0.11632
-0.116319
-0.116319
-0.11632
-0.116323
-0.116327
-0.116332
-0.11633
-0.116324
-0.11632
-0.116317
-0.116316
-0.116316
-0.116318
-0.11632
-0.116325
-0.11633
-0.116329
-0.116323
-0.116318
-0.116316
-0.116314
-0.116314
-0.116316
-0.116319
-0.116324
-0.11633
-0.116329
-0.116323
-0.116318
-0.116316
-0.116314
-0.116314
-0.116316
-0.116319
-0.116324
-0.11633
-0.11633
-0.116324
-0.11632
-0.116317
-0.116316
-0.116316
-0.116317
-0.11632
-0.116325
-0.11633
-0.116332
-0.116327
-0.116322
-0.11632
-0.116319
-0.116319
-0.11632
-0.116323
-0.116327
-0.116332
-0.116335
-0.11633
-0.116327
-0.116325
-0.116323
-0.116324
-0.116325
-0.116327
-0.116331
-0.116335
-0.116338
-0.116335
-0.116332
-0.11633
-0.116329
-0.116329
-0.11633
-0.116332
-0.116335
-0.116339
-0.121651
-0.121647
-0.121645
-0.121643
-0.121642
-0.121642
-0.121643
-0.121645
-0.121648
-0.121652
-0.121647
-0.121643
-0.12164
-0.121638
-0.121637
-0.121637
-0.121638
-0.12164
-0.121643
-0.121648
-0.121644
-0.12164
-0.121636
-0.121633
-0.121632
-0.121632
-0.121633
-0.121636
-0.12164
-0.121645
-0.121642
-0.121637
-0.121633
-0.121631
-0.121629
-0.121629
-0.121631
-0.121633
-0.121638
-0.121643
-0.121642
-0.121636
-0.121632
-0.121629
-0.121627
-0.121628
-0.121629
-0.121632
-0.121637
-0.121642
-0.121642
-0.121636
-0.121632
-0.121629
-0.121627
-0.121627
-0.121629
-0.121632
-0.121637
-0.121642
-0.121642
-0.121637
-0.121633
-0.12163
-0.121629
-0.121629
-0.121631
-0.121633
-0.121638
-0.121643
-0.121644
-0.12164
-0.121635
-0.121633
-0.121632
-0.121632
-0.121633
-0.121636
-0.12164
-0.121645
-0.121647
-0.121643
-0.12164
-0.121637
-0.121636
-0.121636
-0.121638
-0.12164
-0.121643
-0.121648
-0.121651
-0.121647
-0.121644
-0.121643
-0.121642
-0.121642
-0.121643
-0.121645
-0.121647
-0.121652
-0.126925
-0.12692
-0.126917
-0.126915
-0.126915
-0.126915
-0.126916
-0.126917
-0.12692
-0.126925
-0.12692
-0.126916
-0.126913
-0.126911
-0.126909
-0.12691
-0.126911
-0.126913
-0.126916
-0.12692
-0.126917
-0.126913
-0.126909
-0.126906
-0.126905
-0.126905
-0.126906
-0.126909
-0.126913
-0.126917
-0.126915
-0.12691
-0.126906
-0.126904
-0.126902
-0.126902
-0.126904
-0.126906
-0.12691
-0.126915
-0.126914
-0.126909
-0.126905
-0.126902
-0.126901
-0.126901
-0.126902
-0.126905
-0.126909
-0.126915
-0.126914
-0.126909
-0.126905
-0.126902
-0.126901
-0.126901
-0.126902
-0.126905
-0.126909
-0.126915
-0.126915
-0.12691
-0.126906
-0.126904
-0.126902
-0.126902
-0.126904
-0.126906
-0.12691
-0.126915
-0.126917
-0.126913
-0.126909
-0.126906
-0.126905
-0.126905
-0.126906
-0.126909
-0.126913
-0.126917
-0.12692
-0.126916
-0.126913
-0.12691
-0.126909
-0.126909
-0.12691
-0.126913
-0.126916
-0.12692
-0.126925
-0.12692
-0.126917
-0.126915
-0.126915
-0.126915
-0.126915
-0.126917
-0.12692
-0.126925
-0.132162
-0.132155
-0.132153
-0.132151
-0.13215
-0.13215
-0.132151
-0.132153
-0.132156
-0.132163
-0.132155
-0.132151
-0.132148
-0.132146
-0.132145
-0.132146
-0.132147
-0.132149
-0.132152
-0.132156
-0.132153
-0.132148
-0.132145
-0.132143
-0.132141
-0.132141
-0.132143
-0.132145
-0.132149
-0.132153
-0.132151
-0.132146
-0.132143
-0.13214
-0.132139
-0.132139
-0.13214
-0.132143
-0.132147
-0.132151
-0.13215
-0.132146
-0.132141
-0.132139
-0.132137
-0.132137
-0.132139
-0.132141
-0.132146
-0.132151
-0.132151
-0.132146
-0.132141
-0.132139
-0.132137
-0.132137
-0.132139
-0.132141
-0.132146
-0.132151
-0.132151
-0.132147
-0.132143
-0.13214
-0.132139
-0.132139
-0.13214
-0.132143
-0.132147
-0.132151
-0.132153
-0.132149
-0.132145
-0.132143
-0.132141
-0.132141
-0.132143
-0.132145
-0.132149
-0.132153
-0.132156
-0.132152
-0.132149
-0.132147
-0.132146
-0.132146
-0.132147
-0.132149
-0.132152
-0.132156
-0.132163
-0.132156
-0.132153
-0.132151
-0.13215
-0.13215
-0.132151
-0.132153
-0.132156
-0.132163
-0.137364
-0.137355
-0.137353
-0.137351
-0.137351
-0.137351
-0.137352
-0.137354
-0.137357
-0.137367
-0.137354
-0.137351
-0.137349
-0.137347
-0.137346
-0.137347
-0.137348
-0.13735
-0.137353
-0.137357
-0.137352
-0.137348
-0.137345
-0.137343
-0.137342
-0.137343
-0.137344
-0.137346
-0.13735
-0.137354
-0.13735
-0.137346
-0.137343
-0.137341
-0.13734
-0.13734
-0.137342
-0.137344
-0.137348
-0.137353
-0.137349
-0.137345
-0.137342
-0.13734
-0.137339
-0.137339
-0.13734
-0.137343
-0.137347
-0.137352
-0.137349
-0.137345
-0.137342
-0.13734
-0.137339
-0.137339
-0.13734
-0.137343
-0.137347
-0.137352
-0.13735
-0.137346
-0.137343
-0.137341
-0.13734
-0.13734
-0.137342
-0.137344
-0.137348
-0.137352
-0.137352
-0.137348
-0.137345
-0.137343
-0.137342
-0.137343
-0.137344
-0.137346
-0.13735
-0.137354
-0.137355
-0.137351
-0.137349
-0.137347
-0.137346
-0.137347
-0.137348
-0.13735
-0.137353
-0.137357
-0.137364
-0.137355
-0.137353
-0.137351
-0.137351
-0.137351
-0.137352
-0.137354
-0.137357
-0.137366
-0.142536
-0.142525
-0.142523
-0.142521
-0.142521
-0.142521
-0.142522
-0.142524
-0.142527
-0.142538
-0.142524
-0.142521
-0.142519
-0.142517
-0.142516
-0.142517
-0.142518
-0.14252
-0.142523
-0.142527
-0.142521
-0.142518
-0.142515
-0.142513
-0.142513
-0.142513
-0.142514
-0.142516
-0.14252
-0.142524
-0.142519
-0.142516
-0.142513
-0.142511
-0.14251
-0.14251
-0.142512
-0.142514
-0.142518
-0.142522
-0.142518
-0.142515
-0.142512
-0.14251
-0.142509
-0.142509
-0.14251
-0.142513
-0.142517
-0.142521
-0.142518
-0.142515
-0.142511
-0.14251
-0.142509
-0.142509
-0.14251
-0.142513
-0.142517
-0.142521
-0.142519
-0.142516
-0.142513
-0.142511
-0.14251
-0.14251
-0.142511
-0.142514
-0.142517
-0.142522
-0.142521
-0.142517
-0.142514
-0.142513
-0.142512
-0.142512
-0.142514
-0.142516
-0.142519
-0.142524
-0.142524
-0.14252
-0.142518
-0.142516
-0.142515
-0.142516
-0.142517
-0.142519
-0.142522
-0.142526
-0.142535
-0.142524
-0.142522
-0.14252
-0.14252
-0.14252
-0.142521
-0.142523
-0.142526
-0.142537
-0.147674
-0.147663
-0.147661
-0.147659
-0.147659
-0.147659
-0.14766
-0.147662
-0.147664
-0.147676
-0.147662
-0.147659
-0.147657
-0.147655
-0.147655
-0.147655
-0.147656
-0.147658
-0.14766
-0.147664
-0.14766
-0.147656
-0.147653
-0.147652
-0.147651
-0.147651
-0.147652
-0.147654
-0.147657
-0.147661
-0.147657
-0.147654
-0.147651
-0.14765
-0.147649
-0.147649
-0.14765
-0.147652
-0.147655
-0.147659
-0.147656
-0.147653
-0.14765
-0.147648
-0.147647
-0.147648
-0.147649
-0.147651
-0.147654
-0.147658
-0.147656
-0.147653
-0.14765
-0.147648
-0.147647
-0.147648
-0.147649
-0.147651
-0.147654
-0.147658
-0.147657
-0.147654
-0.147651
-0.147649
-0.147648
-0.147649
-0.14765
-0.147652
-0.147655
-0.147658
-0.14766
-0.147656
-0.147653
-0.147651
-0.14765
-0.147651
-0.147652
-0.147654
-0.147657
-0.147661
-0.147662
-0.147659
-0.147656
-0.147654
-0.147654
-0.147654
-0.147655
-0.147656
-0.147659
-0.147663
-0.147674
-0.147662
-0.14766
-0.147658
-0.147657
-0.147657
-0.147658
-0.147661
-0.147663
-0.147674
-0.152785
-0.152774
-0.152773
-0.15277
-0.15277
-0.15277
-0.152771
-0.152774
-0.152776
-0.152787
-0.152774
-0.15277
-0.152768
-0.152766
-0.152766
-0.152766
-0.152767
-0.152769
-0.152771
-0.152776
-0.152771
-0.152767
-0.152765
-0.152763
-0.152762
-0.152763
-0.152764
-0.152766
-0.152768
-0.152773
-0.152768
-0.152765
-0.152763
-0.152761
-0.15276
-0.152761
-0.152762
-0.152764
-0.152766
-0.15277
-0.152767
-0.152764
-0.152762
-0.15276
-0.152759
-0.152759
-0.15276
-0.152762
-0.152765
-0.152769
-0.152767
-0.152764
-0.152762
-0.15276
-0.152759
-0.152759
-0.15276
-0.152762
-0.152765
-0.152769
-0.152768
-0.152765
-0.152763
-0.152761
-0.15276
-0.15276
-0.152762
-0.152763
-0.152766
-0.152769
-0.152771
-0.152767
-0.152765
-0.152763
-0.152762
-0.152762
-0.152763
-0.152765
-0.152768
-0.152772
-0.152774
-0.15277
-0.152768
-0.152766
-0.152765
-0.152765
-0.152766
-0.152768
-0.15277
-0.152775
-0.152785
-0.152774
-0.152772
-0.152769
-0.152768
-0.152769
-0.15277
-0.152773
-0.152775
-0.152786
-0.157868
-0.157858
-0.157857
-0.157854
-0.157853
-0.157854
-0.157855
-0.157858
-0.157859
-0.15787
-0.157857
-0.157853
-0.157851
-0.15785
-0.15785
-0.15785
-0.157851
-0.157852
-0.157854
-0.157859
-0.157856
-0.157851
-0.157849
-0.157847
-0.157846
-0.157846
-0.157848
-0.157849
-0.157852
-0.157857
-0.157852
-0.157849
-0.157846
-0.157845
-0.157844
-0.157844
-0.157846
-0.157847
-0.15785
-0.157853
-0.157851
-0.157848
-0.157845
-0.157844
-0.157843
-0.157843
-0.157844
-0.157846
-0.157849
-0.157852
-0.157851
-0.157848
-0.157845
-0.157844
-0.157843
-0.157843
-0.157844
-0.157846
-0.157849
-0.157852
-0.157852
-0.157849
-0.157846
-0.157845
-0.157844
-0.157844
-0.157845
-0.157847
-0.157849
-0.157853
-0.157855
-0.15785
-0.157848
-0.157846
-0.157846
-0.157846
-0.157847
-0.157849
-0.157851
-0.157856
-0.157857
-0.157852
-0.15785
-0.157849
-0.157848
-0.157848
-0.157849
-0.157851
-0.157853
-0.157858
-0.157867
-0.157857
-0.157855
-0.157852
-0.157852
-0.157852
-0.157853
-0.157856
-0.157858
-0.157868
-0.162926
-0.162917
-0.162917
-0.162913
-0.162912
-0.162912
-0.162913
-0.162916
-0.162916
-0.162926
-0.162916
-0.162911
-0.16291
-0.162908
-0.162908
-0.162908
-0.162908
-0.16291
-0.162911
-0.162916
-0.162915
-0.162909
-0.162907
-0.162906
-0.162905
-0.162905
-0.162906
-0.162908
-0.162909
-0.162915
-0.162911
-0.162908
-0.162905
-0.162904
-0.162903
-0.162903
-0.162904
-0.162905
-0.162907
-0.162911
-0.16291
-0.162907
-0.162904
-0.162903
-0.162902
-0.162902
-0.162903
-0.162904
-0.162907
-0.16291
-0.16291
-0.162907
-0.162904
-0.162903
-0.162902
-0.162902
-0.162903
-0.162904
-0.162906
-0.16291
-0.162911
-0.162907
-0.162905
-0.162903
-0.162903
-0.162903
-0.162903
-0.162905
-0.162907
-0.16291
-0.162914
-0.162908
-0.162907
-0.162905
-0.162904
-0.162904
-0.162905
-0.162906
-0.162908
-0.162914
-0.162915
-0.162909
-0.162908
-0.162907
-0.162906
-0.162906
-0.162907
-0.162908
-0.162909
-0.162914
-0.162925
-0.162915
-0.162914
-0.162911
-0.16291
-0.16291
-0.16291
-0.162914
-0.162914
-0.162924
-0.167966
-0.167955
-0.167956
-0.167952
-0.167951
-0.167951
-0.167951
-0.167955
-0.167953
-0.167964
-0.167955
-0.167949
-0.167948
-0.167947
-0.167946
-0.167946
-0.167946
-0.167947
-0.167948
-0.167953
-0.167955
-0.167948
-0.167947
-0.167945
-0.167944
-0.167943
-0.167944
-0.167946
-0.167947
-0.167953
-0.167952
-0.167947
-0.167945
-0.167943
-0.167942
-0.167942
-0.167942
-0.167944
-0.167945
-0.16795
-0.167951
-0.167946
-0.167944
-0.167942
-0.167941
-0.167941
-0.167941
-0.167943
-0.167945
-0.167949
-0.167951
-0.167946
-0.167943
-0.167942
-0.167941
-0.167941
-0.167941
-0.167943
-0.167945
-0.167949
-0.167951
-0.167946
-0.167944
-0.167943
-0.167942
-0.167941
-0.167942
-0.167943
-0.167945
-0.16795
-0.167955
-0.167948
-0.167946
-0.167944
-0.167943
-0.167943
-0.167944
-0.167945
-0.167947
-0.167953
-0.167954
-0.167948
-0.167948
-0.167946
-0.167945
-0.167945
-0.167945
-0.167947
-0.167947
-0.167952
-0.167965
-0.167954
-0.167955
-0.167951
-0.16795
-0.16795
-0.16795
-0.167954
-0.167953
-0.167964
-0.172989
-0.172976
-0.172977
-0.172974
-0.172973
-0.172973
-0.172973
-0.172976
-0.172974
-0.172986
-0.172975
-0.17297
-0.172969
-0.172967
-0.172967
-0.172967
-0.172967
-0.172968
-0.172968
-0.172973
-0.172977
-0.172969
-0.172968
-0.172966
-0.172965
-0.172965
-0.172965
-0.172967
-0.172968
-0.172975
-0.172974
-0.172967
-0.172966
-0.172964
-0.172963
-0.172963
-0.172963
-0.172965
-0.172966
-0.172972
-0.172973
-0.172967
-0.172965
-0.172963
-0.172962
-0.172962
-0.172963
-0.172964
-0.172966
-0.172972
-0.172973
-0.172967
-0.172965
-0.172963
-0.172962
-0.172962
-0.172963
-0.172964
-0.172966
-0.172972
-0.172974
-0.172967
-0.172966
-0.172964
-0.172963
-0.172963
-0.172964
-0.172965
-0.172966
-0.172972
-0.172977
-0.172969
-0.172968
-0.172966
-0.172965
-0.172965
-0.172965
-0.172967
-0.172968
-0.172975
-0.172975
-0.17297
-0.172969
-0.172967
-0.172967
-0.172967
-0.172967
-0.172968
-0.172969
-0.172974
-0.172989
-0.172975
-0.172977
-0.172974
-0.172973
-0.172973
-0.172973
-0.172976
-0.172974