/*--------------------------------*- C++ -*----------------------------------*\
| =========                 |                                                 |
| \\      /  F ield         | OpenFOAM: The Open Source CFD Toolbox           |
|  \\    /   O peration     | Version:  2406                                  |
|   \\  /    A nd           | Website:  www.openfoam.com                      |
|    \\/     M anipulation  |                                                 |
\*---------------------------------------------------------------------------*/
FoamFile
{
    version     2.0;
    format      ascii;
    arch        "LSB;label=32;scalar=64";
    class       surfaceScalarField;
    location    "350";
    object      phi;
}
// * * * * * * * * * * * * * * * * * * * * * * * * * * * * * * * * * * * * * //

dimensions      [0 3 -1 0 0 0 0];

oriented        oriented;

internalField   nonuniform List<scalar> 
73500
(
1.58343e-06
1.57188e-06
4.76419e-05
-1.77051e-06
-1.76429e-06
1.17333e-06
1.36052e-06
5.15908e-05
-1.61265e-06
7.79034e-07
1.24702e-06
5.45994e-05
-1.51489e-06
3.90474e-07
1.18059e-06
5.66281e-05
-1.45262e-06
3.43354e-09
1.14836e-06
5.76496e-05
-1.41989e-06
-3.82252e-07
1.14868e-06
5.76496e-05
-1.42098e-06
-7.64576e-07
1.18184e-06
5.66281e-05
-1.4572e-06
-1.1435e-06
1.24749e-06
5.45994e-05
-1.52531e-06
-1.50871e-06
1.35351e-06
5.15905e-05
-1.64104e-06
1.50988e-06
4.76414e-05
-1.82906e-06
-1.8298e-06
1.37111e-06
1.16944e-06
5.15908e-05
-1.62295e-06
1.0455e-06
1.03919e-06
5.52303e-05
7.00585e-07
9.50774e-07
5.80079e-05
3.52536e-07
8.94285e-07
5.9882e-05
3.48969e-09
8.6673e-07
6.08259e-05
-3.44193e-07
8.6672e-07
6.08259e-05
-6.89135e-07
8.93556e-07
5.9882e-05
-1.02908e-06
9.47916e-07
5.80079e-05
-1.35239e-06
1.0304e-06
5.52302e-05
1.14474e-06
5.15905e-05
-1.64003e-06
1.25408e-06
7.79456e-07
5.45993e-05
-1.51736e-06
9.56607e-07
6.97938e-07
5.80078e-05
6.42922e-07
6.39045e-07
6.06106e-05
3.23849e-07
5.99913e-07
6.23679e-05
3.28508e-09
5.8039e-07
6.32532e-05
-3.16765e-07
5.80044e-07
6.32532e-05
-6.34405e-07
5.98749e-07
6.23679e-05
-9.46638e-07
6.3613e-07
6.06107e-05
-1.24655e-06
6.90808e-07
5.80079e-05
7.66132e-07
5.45993e-05
-1.52464e-06
1.18457e-06
3.9184e-07
5.66279e-05
-1.4536e-06
8.98507e-07
3.516e-07
5.98819e-05
6.03649e-07
3.22014e-07
6.23678e-05
3.0397e-07
3.0147e-07
6.4047e-05
2.82583e-09
2.91134e-07
6.48932e-05
-2.97945e-07
2.90835e-07
6.48933e-05
-5.97065e-07
3.00202e-07
6.40471e-05
-8.92413e-07
3.19076e-07
6.23679e-05
-1.18111e-06
3.46689e-07
5.9882e-05
3.84429e-07
5.66281e-05
-1.45677e-06
1.15029e-06
5.56815e-09
5.76494e-05
-1.4189e-06
8.69975e-07
4.25324e-09
6.08258e-05
5.83357e-07
2.47091e-09
6.32531e-05
2.93606e-07
1.4683e-09
6.48932e-05
2.49244e-09
7.70971e-10
6.57199e-05
-2.88605e-07
3.76362e-10
6.57199e-05
-5.7839e-07
2.37772e-10
6.48933e-05
-8.65512e-07
2.05713e-10
6.32532e-05
-1.14836e-06
1.34738e-10
6.08259e-05
2.36195e-10
5.76496e-05
-1.42132e-06
1.14942e-06
-3.80314e-07
5.76494e-05
-1.41999e-06
8.68474e-07
-3.43277e-07
6.08258e-05
5.82457e-07
-3.1648e-07
6.32531e-05
2.92935e-07
-2.9856e-07
6.48932e-05
2.09962e-09
-2.89563e-07
6.57198e-05
-2.8875e-07
-2.89937e-07
6.57199e-05
-5.78434e-07
-2.99692e-07
6.48933e-05
-8.65596e-07
-3.18727e-07
6.32532e-05
-1.14829e-06
-3.4618e-07
6.08259e-05
-3.83953e-07
5.76496e-05
-1.42134e-06
1.18167e-06
-7.62578e-07
5.66279e-05
-1.45537e-06
8.94724e-07
-6.87584e-07
5.98818e-05
6.00297e-07
-6.33669e-07
6.23678e-05
3.01979e-07
-5.96799e-07
6.4047e-05
1.74783e-09
-5.7862e-07
6.48932e-05
-2.98496e-07
-5.78981e-07
6.48932e-05
-5.97297e-07
-5.9795e-07
6.4047e-05
-8.92385e-07
-6.3546e-07
6.23679e-05
-1.18111e-06
-6.90268e-07
5.9882e-05
-7.65486e-07
5.66281e-05
-1.45674e-06
1.24686e-06
-1.14178e-06
5.45991e-05
-1.52361e-06
9.4832e-07
-1.02741e-06
5.80077e-05
6.37259e-07
-9.45219e-07
6.06105e-05
3.20397e-07
-8.91389e-07
6.23678e-05
1.42831e-09
-8.64984e-07
6.32532e-05
-3.17621e-07
-8.65314e-07
6.32532e-05
-6.34801e-07
-8.92539e-07
6.23679e-05
-9.46781e-07
-9.46999e-07
6.06106e-05
-1.24652e-06
-1.02953e-06
5.80078e-05
-1.14397e-06
5.45993e-05
-1.52459e-06
1.35275e-06
-1.50726e-06
5.15903e-05
-1.63906e-06
1.03057e-06
-1.35041e-06
5.52301e-05
6.91599e-07
-1.24462e-06
5.80077e-05
3.47553e-07
-1.17957e-06
5.98819e-05
1.14478e-09
-1.14713e-06
6.08259e-05
-3.45515e-07
-1.14756e-06
6.08259e-05
-6.89681e-07
-1.18061e-06
5.98819e-05
-1.02933e-06
-1.24636e-06
5.80078e-05
-1.35252e-06
-1.3525e-06
5.52302e-05
-1.509e-06
5.15904e-05
-1.63993e-06
1.50954e-06
4.76412e-05
-1.8278e-06
-1.8287e-06
1.14492e-06
5.15903e-05
-1.63803e-06
7.66579e-07
5.45992e-05
-1.52271e-06
3.85022e-07
5.6628e-05
-1.45508e-06
7.40464e-10
5.76496e-05
-1.41998e-06
-3.83543e-07
5.76496e-05
-1.42023e-06
-7.65296e-07
5.66281e-05
-1.45601e-06
-1.14396e-06
5.45993e-05
-1.52414e-06
-1.50905e-06
5.15904e-05
-1.63981e-06
4.76413e-05
-1.82908e-06
-1.82897e-06
2.15551e-06
2.14781e-06
4.8335e-05
-2.49969e-06
-2.49476e-06
1.55087e-06
1.86005e-06
5.23385e-05
-2.00283e-06
1.0442e-06
1.76432e-06
5.53895e-05
-2.04809e-06
5.26934e-07
1.71475e-06
5.74473e-05
-2.01701e-06
9.29251e-10
1.68957e-06
5.84834e-05
-1.99711e-06
-5.25145e-07
1.68982e-06
5.84834e-05
-1.99758e-06
-1.04145e-06
1.71601e-06
5.74474e-05
-2.01882e-06
-1.5466e-06
1.7666e-06
5.53897e-05
-2.05142e-06
-2.14608e-06
1.86173e-06
5.23387e-05
-2.01102e-06
2.14543e-06
4.83354e-05
-2.49305e-06
-2.49222e-06
1.86599e-06
1.54601e-06
5.23386e-05
-2.01036e-06
1.4657e-06
1.46098e-06
5.60301e-05
1.00223e-06
1.39071e-06
5.88447e-05
5.09543e-07
1.34606e-06
6.07432e-05
7.68514e-10
1.32413e-06
6.16996e-05
-5.07498e-07
1.32451e-06
6.16996e-05
-9.99786e-07
1.34677e-06
6.07433e-05
-1.46226e-06
1.39175e-06
5.88449e-05
-1.86234e-06
1.46188e-06
5.60303e-05
1.54637e-06
5.23388e-05
-2.01155e-06
1.76938e-06
1.04243e-06
5.53896e-05
-2.05269e-06
1.39496e-06
9.99567e-07
5.88448e-05
9.59292e-07
9.56105e-07
6.14807e-05
4.88784e-07
9.25338e-07
6.3259e-05
9.62051e-10
9.10225e-07
6.41549e-05
-4.86817e-07
9.10327e-07
6.41549e-05
-9.57065e-07
9.25838e-07
6.3259e-05
-1.39213e-06
9.56893e-07
6.14808e-05
-1.76704e-06
9.99612e-07
5.88449e-05
1.04133e-06
5.53898e-05
-2.05204e-06
1.71831e-06
5.26406e-07
5.74474e-05
-2.01994e-06
1.34941e-06
5.07864e-07
6.07433e-05
9.28404e-07
4.86908e-07
6.3259e-05
4.7308e-07
4.70866e-07
6.49569e-05
9.77932e-10
4.63026e-07
6.58124e-05
-4.70945e-07
4.6316e-07
6.58124e-05
-9.26049e-07
4.71053e-07
6.4957e-05
-1.34719e-06
4.86893e-07
6.32591e-05
-1.71649e-06
5.07702e-07
6.07434e-05
5.25308e-07
5.74476e-05
-2.01953e-06
1.69196e-06
1.3617e-09
5.84835e-05
-1.99826e-06
1.32707e-06
5.76961e-10
6.16996e-05
9.12821e-07
-1.54356e-10
6.41549e-05
4.65236e-07
-3.33694e-10
6.58124e-05
1.08513e-09
-4.65132e-10
6.66477e-05
-4.63074e-07
-4.91571e-10
6.66477e-05
-9.10666e-07
-4.36448e-10
6.58125e-05
-1.32493e-06
-3.65561e-10
6.4155e-05
-1.6905e-06
-2.7795e-10
6.16998e-05
-2.41665e-10
5.84837e-05
-1.99864e-06
1.6915e-06
-5.24353e-07
5.84834e-05
-1.99819e-06
1.32657e-06
-5.07345e-07
6.16996e-05
9.12725e-07
-4.86895e-07
6.41549e-05
4.6514e-07
-4.71583e-07
6.58124e-05
1.07869e-09
-4.63916e-07
6.66477e-05
-4.63028e-07
-4.64041e-07
6.66477e-05
-9.10618e-07
-4.71864e-07
6.58125e-05
-1.32487e-06
-4.87567e-07
6.4155e-05
-1.6905e-06
-5.08261e-07
6.16998e-05
-5.25682e-07
5.84837e-05
-1.99867e-06
1.71712e-06
-1.0403e-06
5.74473e-05
-2.01872e-06
1.34859e-06
-9.98917e-07
6.07432e-05
9.27704e-07
-9.56589e-07
6.3259e-05
4.72892e-07
-9.2589e-07
6.49569e-05
9.90058e-10
-9.10857e-07
6.58124e-05
-4.70832e-07
-9.10977e-07
6.58125e-05
-9.25912e-07
-9.26403e-07
6.4957e-05
-1.3471e-06
-9.57385e-07
6.32591e-05
-1.7164e-06
-1.00003e-06
6.07435e-05
-1.04169e-06
5.74476e-05
-2.01959e-06
1.76738e-06
-1.54557e-06
5.53895e-05
-2.05134e-06
1.39325e-06
-1.46091e-06
5.88447e-05
9.58539e-07
-1.39108e-06
6.14807e-05
4.88455e-07
-1.34634e-06
6.3259e-05
9.54922e-10
-1.3244e-06
6.41549e-05
-4.86669e-07
-1.32464e-06
6.41549e-05
-9.56902e-07
-1.347e-06
6.32591e-05
-1.39202e-06
-1.39204e-06
6.14808e-05
-1.76698e-06
-1.46213e-06
5.8845e-05
-1.54659e-06
5.53899e-05
-2.05208e-06
1.86282e-06
-2.14479e-06
5.23385e-05
-2.01084e-06
1.46314e-06
-1.86075e-06
5.60301e-05
1.0012e-06
-1.76536e-06
5.88447e-05
5.09035e-07
-1.71507e-06
6.07433e-05
8.10194e-10
-1.68934e-06
6.16996e-05
-5.07507e-07
-1.68962e-06
6.16996e-05
-9.99726e-07
-1.71583e-06
6.07434e-05
-1.46217e-06
-1.76656e-06
5.88449e-05
-1.86232e-06
-1.86197e-06
5.60303e-05
-2.14577e-06
5.23388e-05
-2.01157e-06
2.14678e-06
4.83351e-05
-2.49214e-06
-2.49269e-06
1.54786e-06
5.23385e-05
-2.00971e-06
1.04281e-06
5.53896e-05
-2.05026e-06
5.26489e-07
5.74474e-05
-2.01774e-06
6.18996e-10
5.84835e-05
-1.99712e-06
-5.25287e-07
5.84835e-05
-1.99736e-06
-1.04166e-06
5.74475e-05
-2.01858e-06
-1.54684e-06
5.53898e-05
-2.05143e-06
-2.14617e-06
5.23388e-05
-2.0111e-06
4.83355e-05
-2.49287e-06
-2.49267e-06
1.63072e-06
1.6282e-06
4.88869e-05
-1.90717e-06
-1.90555e-06
1.15378e-06
1.40702e-06
5.29272e-05
-1.52036e-06
7.7738e-07
1.37487e-06
5.60073e-05
-1.61732e-06
3.88765e-07
1.33881e-06
5.80844e-05
-1.58815e-06
6.8521e-10
1.3228e-06
5.91298e-05
-1.58151e-06
-3.87428e-07
1.32283e-06
5.91299e-05
-1.58121e-06
-7.75996e-07
1.33901e-06
5.80846e-05
-1.58771e-06
-1.15195e-06
1.37548e-06
5.60076e-05
-1.61691e-06
-1.62731e-06
1.40803e-06
5.29277e-05
-1.52195e-06
1.62853e-06
4.88877e-05
-1.90396e-06
-1.9042e-06
1.40867e-06
1.15125e-06
5.29272e-05
-1.52175e-06
1.0974e-06
1.09526e-06
5.66524e-05
7.57219e-07
1.06597e-06
5.94929e-05
3.85367e-07
1.04452e-06
6.1409e-05
2.69476e-10
1.03323e-06
6.23738e-05
-3.84577e-07
1.03347e-06
6.23739e-05
-7.5619e-07
1.04508e-06
6.14092e-05
-1.09579e-06
1.06698e-06
5.94933e-05
-1.40681e-06
1.09693e-06
5.66529e-05
1.15338e-06
5.29279e-05
-1.5211e-06
1.37644e-06
7.75416e-07
5.60074e-05
-1.61806e-06
1.06783e-06
7.55416e-07
5.9493e-05
7.31472e-07
7.29647e-07
6.21528e-05
3.72036e-07
7.14894e-07
6.39476e-05
3.33609e-10
7.07957e-07
6.48517e-05
-3.7119e-07
7.08162e-07
6.48518e-05
-7.30203e-07
7.15569e-07
6.39479e-05
-1.06593e-06
7.30851e-07
6.21532e-05
-1.37414e-06
7.57002e-07
5.94934e-05
7.77181e-07
5.6008e-05
-1.61598e-06
1.34013e-06
3.87e-07
5.80846e-05
-1.58872e-06
1.04612e-06
3.83582e-07
6.14091e-05
7.16635e-07
3.7045e-07
6.39477e-05
3.64204e-07
3.62593e-07
6.56614e-05
4.82952e-10
3.59154e-07
6.65248e-05
-3.63045e-07
3.59388e-07
6.65249e-05
-7.15e-07
3.63191e-07
6.56616e-05
-1.04404e-06
3.71412e-07
6.3948e-05
-1.33758e-06
3.85031e-07
6.14095e-05
3.88381e-07
5.80851e-05
-1.58625e-06
1.32398e-06
-9.99312e-10
5.91301e-05
-1.58179e-06
1.03483e-06
-1.12419e-09
6.2374e-05
7.09555e-07
-1.17201e-09
6.48518e-05
3.60755e-07
-9.74447e-10
6.65249e-05
6.90268e-10
-8.38124e-10
6.73679e-05
-3.5927e-07
-6.9466e-10
6.73679e-05
-7.07642e-07
-4.95039e-10
6.6525e-05
-1.03238e-06
-3.37994e-10
6.48521e-05
-1.3212e-06
-2.15944e-10
6.23744e-05
-1.04595e-10
5.91305e-05
-1.57951e-06
1.32408e-06
-3.8927e-07
5.91302e-05
-1.58175e-06
1.03492e-06
-3.86086e-07
6.23741e-05
7.09783e-07
-3.72511e-07
6.48519e-05
3.60913e-07
-3.64478e-07
6.6525e-05
8.50026e-10
-3.60688e-07
6.7368e-05
-3.5908e-07
-3.60572e-07
6.7368e-05
-7.07508e-07
-3.64114e-07
6.65251e-05
-1.03229e-06
-3.72018e-07
6.48521e-05
-1.32113e-06
-3.8535e-07
6.23744e-05
-3.88519e-07
5.91306e-05
-1.57954e-06
1.3405e-06
-7.77672e-07
5.80849e-05
-1.58856e-06
1.04665e-06
-7.57558e-07
6.14094e-05
7.17071e-07
-7.31489e-07
6.3948e-05
3.6478e-07
-7.16237e-07
6.56617e-05
1.00389e-09
-7.08949e-07
6.65251e-05
-3.62597e-07
-7.08868e-07
6.65251e-05
-7.14599e-07
-7.15955e-07
6.56618e-05
-1.04375e-06
-7.31055e-07
6.39482e-05
-1.33743e-06
-7.57084e-07
6.14097e-05
-7.77164e-07
5.80852e-05
-1.58629e-06
1.37715e-06
-1.1535e-06
5.60079e-05
-1.61857e-06
1.06865e-06
-1.09693e-06
5.94935e-05
7.32455e-07
-1.06702e-06
6.21533e-05
3.72994e-07
-1.04499e-06
6.39481e-05
1.17693e-09
-1.03339e-06
6.48521e-05
-3.70464e-07
-1.03323e-06
6.48521e-05
-7.29683e-07
-1.04483e-06
6.39482e-05
-1.0656e-06
-1.06664e-06
6.21534e-05
-1.37401e-06
-1.09661e-06
5.94937e-05
-1.15307e-06
5.60082e-05
-1.61604e-06
1.41013e-06
-1.62832e-06
5.2928e-05
-1.52376e-06
1.09867e-06
-1.40781e-06
5.66531e-05
7.58877e-07
-1.37491e-06
5.94936e-05
3.86646e-07
-1.33832e-06
6.14097e-05
1.47739e-09
-1.32181e-06
6.23744e-05
-3.83893e-07
-1.3218e-06
6.23744e-05
-7.55668e-07
-1.33802e-06
6.14097e-05
-1.0956e-06
-1.37461e-06
5.94936e-05
-1.40682e-06
-1.4074e-06
5.66532e-05
-1.62806e-06
5.29281e-05
-1.52123e-06
1.63075e-06
4.8888e-05
-1.90479e-06
-1.90603e-06
1.15546e-06
5.29281e-05
-1.5218e-06
7.79226e-07
5.60082e-05
-1.61669e-06
3.90301e-07
5.80852e-05
-1.58677e-06
1.66202e-09
5.91306e-05
-1.58e-06
-3.86912e-07
5.91306e-05
-1.57978e-06
-7.75784e-07
5.80852e-05
-1.58648e-06
-1.15214e-06
5.60081e-05
-1.61613e-06
-1.62756e-06
5.29281e-05
-1.52129e-06
4.8888e-05
-1.90402e-06
-1.90406e-06
1.13274e-06
1.13351e-06
4.92858e-05
-1.33014e-06
-1.33006e-06
8.19563e-07
1.01633e-06
5.33579e-05
-1.13e-06
5.5748e-07
1.02575e-06
5.64626e-05
-1.21553e-06
2.78278e-07
9.99925e-07
5.85562e-05
-1.18919e-06
2.53962e-09
9.94845e-07
5.96098e-05
-1.196e-06
-2.73312e-07
9.94682e-07
5.96099e-05
-1.19559e-06
-5.52994e-07
9.99708e-07
5.85562e-05
-1.18864e-06
-8.14869e-07
1.02572e-06
5.64627e-05
-1.21496e-06
-1.12694e-06
1.01651e-06
5.3358e-05
-1.13081e-06
1.13359e-06
4.92859e-05
-1.32663e-06
-1.32936e-06
1.01474e-06
8.19961e-07
5.33581e-05
-1.12856e-06
7.87054e-07
7.87843e-07
5.71119e-05
5.49008e-07
7.85841e-07
5.99738e-05
2.79932e-07
7.76742e-07
6.19042e-05
1.93891e-09
7.7293e-07
6.2876e-05
-2.75784e-07
7.7302e-07
6.2876e-05
-5.44811e-07
7.76701e-07
6.19042e-05
-7.82625e-07
7.85771e-07
5.99738e-05
-1.01014e-06
7.88417e-07
5.7112e-05
8.21092e-07
5.33582e-05
-1.12659e-06
1.02426e-06
5.57742e-07
5.64629e-05
-1.21375e-06
7.84902e-07
5.49512e-07
5.99739e-05
5.36456e-07
5.36839e-07
6.26526e-05
2.72579e-07
5.3066e-07
6.446e-05
1.86245e-09
5.27376e-07
6.53702e-05
-2.68842e-07
5.27276e-07
6.53703e-05
-5.32414e-07
5.30642e-07
6.44601e-05
-7.80327e-07
5.37029e-07
6.26527e-05
-1.01971e-06
5.49654e-07
5.9974e-05
5.584e-07
5.6463e-05
-1.21084e-06
9.98512e-07
2.77636e-07
5.85565e-05
-1.18764e-06
7.75619e-07
2.79503e-07
6.19044e-05
5.30253e-07
2.72654e-07
6.44601e-05
2.69626e-07
2.69572e-07
6.61852e-05
1.6836e-09
2.67754e-07
6.70542e-05
-2.65986e-07
2.67822e-07
6.70542e-05
-5.26205e-07
2.69387e-07
6.61852e-05
-7.71498e-07
2.72329e-07
6.44602e-05
-9.93768e-07
2.79867e-07
6.19045e-05
2.77994e-07
5.85567e-05
-1.18405e-06
9.93565e-07
1.73966e-09
5.96102e-05
-1.19455e-06
7.72186e-07
1.62862e-09
6.28763e-05
5.26788e-07
1.21426e-09
6.53704e-05
2.67802e-07
1.24665e-09
6.70542e-05
1.71054e-09
1.13289e-09
6.79025e-05
-2.64478e-07
9.15087e-10
6.79025e-05
-5.22977e-07
1.03627e-09
6.70542e-05
-7.67576e-07
1.08298e-09
6.53704e-05
-9.88658e-07
1.00579e-09
6.28764e-05
1.28697e-09
5.96104e-05
-1.19075e-06
9.93715e-07
-2.7455e-07
5.96103e-05
-1.19502e-06
7.7193e-07
-2.76863e-07
6.28763e-05
5.26875e-07
-2.69539e-07
6.53704e-05
2.67723e-07
-2.66969e-07
6.70542e-05
1.50288e-09
-2.65371e-07
6.79025e-05
-2.64381e-07
-2.65393e-07
6.79025e-05
-5.22974e-07
-2.67354e-07
6.70543e-05
-7.67703e-07
-2.70315e-07
6.53705e-05
-9.88488e-07
-2.77391e-07
6.28764e-05
-2.75533e-07
5.96104e-05
-1.1907e-06
9.98822e-07
-5.53821e-07
5.85566e-05
-1.18802e-06
7.75915e-07
-5.45631e-07
6.19044e-05
5.29933e-07
-5.33342e-07
6.44602e-05
2.69402e-07
-5.27036e-07
6.61853e-05
1.51541e-09
-5.2391e-07
6.70542e-05
-2.66313e-07
-5.24219e-07
6.70542e-05
-5.26316e-07
-5.27595e-07
6.61853e-05
-7.71351e-07
-5.34172e-07
6.44602e-05
-9.93793e-07
-5.47238e-07
6.19045e-05
-5.55824e-07
5.85567e-05
-1.18373e-06
1.02476e-06
-8.15636e-07
5.64629e-05
-1.21492e-06
7.84856e-07
-7.8313e-07
5.9974e-05
5.36416e-07
-7.80753e-07
6.26527e-05
2.7226e-07
-7.71732e-07
6.44601e-05
1.28594e-09
-7.68213e-07
6.53704e-05
-2.69274e-07
-7.68413e-07
6.53704e-05
-5.3286e-07
-7.72798e-07
6.44602e-05
-7.80786e-07
-7.82408e-07
6.26528e-05
-1.01979e-06
-7.85303e-07
5.99741e-05
-8.18572e-07
5.64631e-05
-1.21071e-06
1.0158e-06
-1.12714e-06
5.33582e-05
-1.13016e-06
7.87542e-07
-1.01005e-06
5.7112e-05
5.49297e-07
-1.01929e-06
5.99739e-05
2.794e-07
-9.93618e-07
6.19044e-05
1.19239e-09
-9.8866e-07
6.28762e-05
-2.77092e-07
-9.89252e-07
6.28763e-05
-5.46028e-07
-9.95042e-07
6.19044e-05
-7.8364e-07
-1.02177e-06
5.9974e-05
-1.0111e-06
-1.01348e-06
5.71121e-05
-1.13115e-06
5.33583e-05
-1.12666e-06
1.13337e-06
4.92859e-05
-1.32592e-06
-1.32959e-06
8.20616e-07
5.33581e-05
-1.12567e-06
5.57846e-07
5.64629e-05
-1.21007e-06
2.77424e-07
5.85565e-05
-1.1834e-06
6.74744e-10
5.96102e-05
-1.19062e-06
-2.75729e-07
5.96102e-05
-1.1911e-06
-5.55312e-07
5.85565e-05
-1.18513e-06
-8.17178e-07
5.64629e-05
-1.21297e-06
-1.1286e-06
5.33582e-05
-1.12955e-06
4.9286e-05
-1.3272e-06
-1.32964e-06
7.74341e-07
7.81863e-07
4.95536e-05
-9.06419e-07
-9.13463e-07
5.8645e-07
7.3004e-07
5.36521e-05
-8.32014e-07
4.02734e-07
7.48223e-07
5.67775e-05
-8.75752e-07
2.01671e-07
7.2781e-07
5.88852e-05
-8.52257e-07
3.05841e-09
7.29738e-07
5.99461e-05
-8.64288e-07
-1.95254e-07
7.29429e-07
5.99461e-05
-8.63619e-07
-3.96822e-07
7.26961e-07
5.88851e-05
-8.51051e-07
-5.80237e-07
7.47198e-07
5.67773e-05
-8.74017e-07
-7.67386e-07
7.28732e-07
5.36519e-05
-8.30436e-07
7.80315e-07
4.95532e-05
-9.03165e-07
-9.09984e-07
7.22135e-07
5.915e-07
5.36521e-05
-8.23161e-07
5.65203e-07
5.70421e-07
5.74318e-05
3.98503e-07
5.77842e-07
6.03139e-05
2.03495e-07
5.71725e-07
6.22582e-05
2.40187e-09
5.72101e-07
6.32371e-05
-1.98371e-07
5.72024e-07
6.3237e-05
-3.9321e-07
5.71248e-07
6.22581e-05
-5.59722e-07
5.77066e-07
6.03137e-05
-7.16766e-07
5.70023e-07
5.74316e-05
5.91711e-07
5.36518e-05
-8.20945e-07
7.41127e-07
4.0594e-07
5.67774e-05
-8.67889e-07
5.72871e-07
4.0178e-07
6.03139e-05
3.95225e-07
3.98231e-07
6.30122e-05
2.01216e-07
3.9502e-07
6.48332e-05
2.19436e-09
3.93439e-07
6.57503e-05
-1.96775e-07
3.93231e-07
6.57502e-05
-3.90358e-07
3.94711e-07
6.48331e-05
-5.67494e-07
3.97925e-07
6.30121e-05
-7.35877e-07
4.01319e-07
6.03137e-05
4.06196e-07
5.67772e-05
-8.64176e-07
7.21152e-07
2.02297e-07
5.88852e-05
-8.44632e-07
5.66859e-07
2.04423e-07
6.22581e-05
3.92126e-07
2.02684e-07
6.48332e-05
2.00799e-07
2.02127e-07
6.65715e-05
1.90088e-09
2.01207e-07
6.74471e-05
-1.96672e-07
2.01235e-07
6.74471e-05
-3.87457e-07
2.0174e-07
6.65714e-05
-5.62047e-07
2.0204e-07
6.4833e-05
-7.15665e-07
2.04493e-07
6.22579e-05
2.02434e-07
5.88849e-05
-8.40149e-07
7.2351e-07
2.03776e-09
5.99461e-05
-8.57059e-07
5.67826e-07
2.16123e-09
6.3237e-05
3.90474e-07
1.79457e-09
6.57502e-05
1.999e-07
1.84066e-09
6.74471e-05
1.87781e-09
1.72552e-09
6.8302e-05
-1.96253e-07
1.4432e-09
6.83019e-05
-3.86135e-07
1.59181e-09
6.7447e-05
-5.62539e-07
1.59517e-09
6.57501e-05
-7.17928e-07
1.38721e-09
6.32368e-05
1.63524e-09
5.99459e-05
-8.52294e-07
7.23788e-07
-1.98495e-07
5.99461e-05
-8.57665e-07
5.67589e-07
-2.00708e-07
6.3237e-05
3.90594e-07
-1.98271e-07
6.57502e-05
1.99832e-07
-1.98232e-07
6.7447e-05
1.6039e-09
-1.97551e-07
6.83019e-05
-1.96143e-07
-1.975e-07
6.83019e-05
-3.86188e-07
-1.98579e-07
6.7447e-05
-5.62806e-07
-1.98988e-07
6.57501e-05
-7.17819e-07
-2.00994e-07
6.32368e-05
-1.99294e-07
5.99458e-05
-8.52378e-07
7.21851e-07
-4.00935e-07
5.8885e-05
-8.45535e-07
5.67409e-07
-3.96321e-07
6.2258e-05
3.91904e-07
-3.93073e-07
6.4833e-05
2.00586e-07
-3.8967e-07
6.65713e-05
1.68368e-09
-3.88221e-07
6.7447e-05
-1.9718e-07
-3.88531e-07
6.7447e-05
-3.87751e-07
-3.90016e-07
6.65713e-05
-5.62126e-07
-3.93603e-07
6.4833e-05
-7.16131e-07
-3.97733e-07
6.22579e-05
-4.02616e-07
5.88849e-05
-8.40225e-07
7.42565e-07
-5.85115e-07
5.67773e-05
-8.70044e-07
5.73325e-07
-5.6347e-07
6.03137e-05
3.95455e-07
-5.70367e-07
6.3012e-05
2.0095e-07
-5.64324e-07
6.4833e-05
1.44567e-09
-5.64994e-07
6.57501e-05
-1.97433e-07
-5.65017e-07
6.57501e-05
-3.91244e-07
-5.65192e-07
6.4833e-05
-5.68557e-07
-5.7171e-07
6.3012e-05
-7.36647e-07
-5.65159e-07
6.03136e-05
-5.87926e-07
5.67771e-05
-8.64882e-07
7.24627e-07
-7.72274e-07
5.36518e-05
-8.26537e-07
5.66699e-07
-7.20385e-07
5.74315e-05
3.99281e-07
-7.3858e-07
6.03136e-05
2.03102e-07
-7.18284e-07
6.22579e-05
1.52975e-09
-7.20332e-07
6.32368e-05
-2.00229e-07
-7.20867e-07
6.32368e-05
-3.95172e-07
-7.19341e-07
6.22579e-05
-5.61809e-07
-7.4061e-07
6.03136e-05
-7.19102e-07
-7.23441e-07
5.74315e-05
-7.75907e-07
5.36517e-05
-8.22235e-07
7.76962e-07
4.95532e-05
-9.05618e-07
-9.08119e-07
5.88868e-07
5.36517e-05
-8.23898e-07
4.04043e-07
5.67771e-05
-8.66934e-07
2.01177e-07
5.88849e-05
-8.42778e-07
1.07072e-09
5.99459e-05
-8.55134e-07
-1.98552e-07
5.99459e-05
-8.55438e-07
-4.00463e-07
5.88849e-05
-8.44085e-07
-5.84339e-07
5.67772e-05
-8.69219e-07
-7.71057e-07
5.36518e-05
-8.26933e-07
4.95532e-05
-9.05269e-07
-9.08773e-07
6.12696e-07
6.20748e-07
4.97676e-05
-7.18663e-07
-7.25969e-07
4.84305e-07
5.88409e-07
5.38861e-05
-6.90742e-07
3.32428e-07
5.91648e-07
5.70269e-05
-6.86409e-07
1.67136e-07
5.67885e-07
5.9145e-05
-6.59624e-07
2.18975e-09
5.68889e-07
6.02112e-05
-6.66712e-07
-1.62498e-07
5.68546e-07
6.02111e-05
-6.65996e-07
-3.28595e-07
5.66993e-07
5.91447e-05
-6.58231e-07
-4.8055e-07
5.90744e-07
5.70264e-05
-6.84485e-07
-6.0862e-07
5.87416e-07
5.38854e-05
-6.89399e-07
6.19645e-07
4.97668e-05
-7.17704e-07
-7.23014e-07
5.80774e-07
4.90165e-07
5.38859e-05
-6.82461e-07
4.56572e-07
4.61829e-07
5.76851e-05
3.20645e-07
4.613e-07
6.05825e-05
1.63103e-07
4.48512e-07
6.25372e-05
1.56158e-09
4.47701e-07
6.35214e-05
-1.59717e-07
4.4764e-07
6.35213e-05
-3.17269e-07
4.48159e-07
6.2537e-05
-4.53255e-07
4.60814e-07
6.05821e-05
-5.77553e-07
4.61797e-07
5.76845e-05
4.90574e-07
5.38852e-05
-6.81622e-07
5.84849e-07
3.3616e-07
5.70266e-05
-6.78557e-07
4.56635e-07
3.23999e-07
6.05824e-05
3.16645e-07
3.19478e-07
6.32959e-05
1.60774e-07
3.12134e-07
6.51273e-05
1.40069e-09
3.09448e-07
6.60497e-05
-1.57971e-07
3.09295e-07
6.60496e-05
-3.13529e-07
3.12021e-07
6.51271e-05
-4.53096e-07
3.19477e-07
6.32955e-05
-5.81437e-07
3.23866e-07
6.05819e-05
3.36645e-07
5.7026e-05
-6.76222e-07
5.61404e-07
1.68049e-07
5.91447e-05
-6.51827e-07
4.44004e-07
1.64155e-07
6.25371e-05
3.09491e-07
1.62176e-07
6.51273e-05
1.58731e-07
1.59965e-07
6.68761e-05
1.16316e-09
1.58558e-07
6.7757e-05
-1.5612e-07
1.58649e-07
6.7757e-05
-3.06431e-07
1.59802e-07
6.68759e-05
-4.40846e-07
1.61873e-07
6.51269e-05
-5.57706e-07
1.64536e-07
6.25366e-05
1.68477e-07
5.91441e-05
-6.48932e-07
5.62854e-07
1.15693e-09
6.0211e-05
-6.59422e-07
4.43743e-07
1.36597e-09
6.35213e-05
3.06782e-07
1.10778e-09
6.60497e-05
1.57358e-07
1.18392e-09
6.7757e-05
1.20554e-09
1.15046e-09
6.86173e-05
-1.55065e-07
9.59089e-10
6.86172e-05
-3.039e-07
1.1624e-09
6.77568e-05
-4.40088e-07
1.227e-09
6.60493e-05
-5.5908e-07
1.05629e-09
6.35208e-05
1.30136e-09
6.02103e-05
-6.56288e-07
5.6315e-07
-1.65865e-07
6.02109e-05
-6.59964e-07
4.43595e-07
-1.61958e-07
6.35213e-05
3.06941e-07
-1.59304e-07
6.60496e-05
1.57372e-07
-1.57427e-07
6.7757e-05
1.01981e-09
-1.56088e-07
6.86172e-05
-1.54907e-07
-1.55949e-07
6.86171e-05
-3.03895e-07
-1.57494e-07
6.77568e-05
-4.40326e-07
-1.59566e-07
6.60493e-05
-5.58981e-07
-1.61702e-07
6.35208e-05
-1.65969e-07
6.02103e-05
-6.56415e-07
5.62167e-07
-3.33049e-07
5.91446e-05
-6.52792e-07
4.44669e-07
-3.20385e-07
6.2537e-05
3.09532e-07
-3.16029e-07
6.51272e-05
1.58768e-07
-3.08361e-07
6.68759e-05
1.17909e-09
-3.05598e-07
6.77569e-05
-1.564e-07
-3.05763e-07
6.77568e-05
-3.0658e-07
-3.08316e-07
6.68757e-05
-4.40855e-07
-3.15954e-07
6.51268e-05
-5.58188e-07
-3.20912e-07
6.25365e-05
-3.33614e-07
5.9144e-05
-6.49197e-07
5.86494e-07
-4.8587e-07
5.70265e-05
-6.80655e-07
4.57493e-07
-4.57081e-07
6.05822e-05
3.17309e-07
-4.55899e-07
6.32957e-05
1.6096e-07
-4.42904e-07
6.51271e-05
1.08289e-09
-4.42146e-07
6.60495e-05
-1.58249e-07
-4.41975e-07
6.60494e-05
-3.14098e-07
-4.43174e-07
6.51269e-05
-4.53957e-07
-4.56294e-07
6.32953e-05
-5.82173e-07
-4.57559e-07
6.05817e-05
-4.87143e-07
5.70259e-05
-6.77111e-07
5.83806e-07
-6.13878e-07
5.38856e-05
-6.86032e-07
4.5885e-07
-5.81425e-07
5.76847e-05
3.2216e-07
-5.84284e-07
6.05821e-05
1.63433e-07
-5.60263e-07
6.25369e-05
1.37148e-09
-5.61133e-07
6.35211e-05
-1.60954e-07
-5.61374e-07
6.3521e-05
-3.18711e-07
-5.60429e-07
6.25367e-05
-4.54999e-07
-5.84935e-07
6.05818e-05
-5.79657e-07
-5.82667e-07
5.76843e-05
-6.15539e-07
5.38851e-05
-6.82948e-07
6.16554e-07
4.97671e-05
-7.20323e-07
-7.21664e-07
4.8801e-07
5.38856e-05
-6.85003e-07
3.34915e-07
5.70264e-05
-6.79396e-07
1.67745e-07
5.91445e-05
-6.51714e-07
1.25523e-09
6.02107e-05
-6.58872e-07
-1.64858e-07
6.02106e-05
-6.58802e-07
-3.31477e-07
5.91442e-05
-6.51871e-07
-4.84154e-07
5.7026e-05
-6.79843e-07
-6.1198e-07
5.38851e-05
-6.85821e-07
4.97665e-05
-7.19583e-07
-7.21537e-07
6.02979e-07
6.06199e-07
4.99791e-05
-7.08014e-07
-7.09715e-07
4.82901e-07
5.73497e-07
5.41159e-05
-6.80334e-07
3.2932e-07
5.62462e-07
5.72706e-05
-6.49877e-07
1.65383e-07
5.36696e-07
5.9398e-05
-6.23053e-07
-8.12112e-10
5.35323e-07
6.0469e-05
-6.24478e-07
-1.66909e-07
5.35457e-07
6.0469e-05
-6.2466e-07
-3.31361e-07
5.37278e-07
5.9398e-05
-6.23744e-07
-4.84881e-07
5.63774e-07
5.72705e-05
-6.5131e-07
-6.04303e-07
5.75389e-07
5.41158e-05
-6.83159e-07
6.08059e-07
4.99789e-05
-7.11027e-07
-7.11347e-07
5.70822e-07
4.86708e-07
5.41159e-05
-6.79094e-07
4.48469e-07
4.51359e-07
5.79321e-05
3.10881e-07
4.42367e-07
6.08428e-05
1.56889e-07
4.23733e-07
6.28065e-05
-7.86568e-10
4.21111e-07
6.37953e-05
-1.58351e-07
4.21308e-07
6.37952e-05
-3.12448e-07
4.24193e-07
6.28065e-05
-4.50235e-07
4.43109e-07
6.08427e-05
-5.72323e-07
4.52822e-07
5.79319e-05
4.88285e-07
5.41157e-05
-6.81719e-07
5.59968e-07
3.3268e-07
5.72706e-05
-6.47881e-07
4.40012e-07
3.13451e-07
6.08428e-05
3.04684e-07
3.06627e-07
6.3569e-05
1.53735e-07
2.95125e-07
6.54091e-05
-6.06664e-10
2.91432e-07
6.63358e-05
-1.5507e-07
2.91426e-07
6.63358e-05
-3.05986e-07
2.95448e-07
6.5409e-05
-4.41084e-07
3.07281e-07
6.35689e-05
-5.61133e-07
3.14074e-07
6.08427e-05
3.33673e-07
5.72704e-05
-6.49699e-07
5.33993e-07
1.67403e-07
5.9398e-05
-6.20547e-07
4.21369e-07
1.58462e-07
6.28065e-05
2.93346e-07
1.55268e-07
6.54091e-05
1.49457e-07
1.50749e-07
6.71663e-05
-6.56322e-10
1.48833e-07
6.80515e-05
-1.50632e-07
1.48981e-07
6.80515e-05
-2.94409e-07
1.50847e-07
6.71662e-05
-4.22555e-07
1.55352e-07
6.5409e-05
-5.3487e-07
1.59128e-07
6.28063e-05
1.68059e-07
5.93978e-05
-6.21987e-07
5.32579e-07
3.05193e-10
6.0469e-05
-6.21821e-07
4.18979e-07
3.76365e-10
6.37952e-05
2.89571e-07
1.39333e-10
6.63358e-05
1.47581e-07
1.92941e-10
6.80515e-05
-5.38465e-10
2.09715e-10
6.89159e-05
-1.48838e-07
9.36559e-11
6.89159e-05
-2.90638e-07
2.78027e-10
6.80514e-05
-4.19677e-07
3.59237e-10
6.63357e-05
-5.33325e-07
2.92055e-10
6.37951e-05
5.07539e-10
6.04688e-05
-6.23031e-07
5.3274e-07
-1.66979e-07
6.04689e-05
-6.2221e-07
4.18851e-07
-1.5825e-07
6.37952e-05
2.89703e-07
-1.54611e-07
6.63357e-05
1.47635e-07
-1.50305e-07
6.80514e-05
-6.50984e-10
-1.4841e-07
6.89159e-05
-1.48699e-07
-1.48285e-07
6.89159e-05
-2.90612e-07
-1.50355e-07
6.80514e-05
-4.19807e-07
-1.54793e-07
6.63356e-05
-5.33232e-07
-1.58111e-07
6.3795e-05
-1.67128e-07
6.04688e-05
-6.23059e-07
5.34426e-07
-3.31901e-07
5.93979e-05
-6.21116e-07
4.21856e-07
-3.12548e-07
6.28064e-05
2.93471e-07
-3.05902e-07
6.54089e-05
1.49563e-07
-2.94114e-07
6.71662e-05
-5.25927e-10
-2.90241e-07
6.80514e-05
-1.50742e-07
-2.90394e-07
6.80514e-05
-2.94456e-07
-2.94206e-07
6.71661e-05
-4.22502e-07
-3.06029e-07
6.54089e-05
-5.35118e-07
-3.13118e-07
6.28062e-05
-3.32554e-07
5.93977e-05
-6.22075e-07
5.60909e-07
-4.85828e-07
5.72704e-05
-6.49024e-07
4.40661e-07
-4.50441e-07
6.08426e-05
3.05328e-07
-4.4079e-07
6.35688e-05
1.54057e-07
-4.21918e-07
6.54089e-05
-6.51576e-10
-4.19137e-07
6.63356e-05
-1.55136e-07
-4.19216e-07
6.63356e-05
-3.06217e-07
-4.22353e-07
6.54088e-05
-4.41548e-07
-4.41553e-07
6.35688e-05
-5.61463e-07
-4.51235e-07
6.08425e-05
-4.87089e-07
5.72703e-05
-6.5012e-07
5.72759e-07
-6.05019e-07
5.41156e-05
-6.80899e-07
4.50413e-07
-5.72131e-07
5.79318e-05
3.12245e-07
-5.60402e-07
6.08425e-05
1.57532e-07
-5.34102e-07
6.28062e-05
-7.00226e-10
-5.32464e-07
6.3795e-05
-1.58902e-07
-5.32774e-07
6.3795e-05
-3.1327e-07
-5.3486e-07
6.28062e-05
-4.5111e-07
-5.61689e-07
6.08425e-05
-5.73411e-07
-5.73933e-07
5.79317e-05
-6.06859e-07
5.41155e-05
-6.82249e-07
6.05833e-07
4.99787e-05
-7.10206e-07
-7.10507e-07
4.86027e-07
5.41155e-05
-6.80929e-07
3.31661e-07
5.72702e-05
-6.48873e-07
1.6636e-07
5.93977e-05
-6.21101e-07
-9.96665e-10
6.04687e-05
-6.22184e-07
-1.68133e-07
6.04687e-05
-6.22521e-07
-3.32962e-07
5.93977e-05
-6.22004e-07
-4.86829e-07
5.72703e-05
-6.50554e-07
-6.05899e-07
5.41155e-05
-6.83052e-07
4.99787e-05
-7.1168e-07
-7.12319e-07
6.38204e-07
6.43229e-07
5.02019e-05
-7.50451e-07
-7.54237e-07
5.09682e-07
6.06611e-07
5.43576e-05
-7.19425e-07
3.47509e-07
5.88764e-07
5.75266e-05
-6.82444e-07
1.75858e-07
5.63192e-07
5.96636e-05
-6.56859e-07
-3.41891e-10
5.59572e-07
6.07395e-05
-6.53744e-07
-1.76395e-07
5.59324e-07
6.07395e-05
-6.53212e-07
-3.4856e-07
5.6247e-07
5.96637e-05
-6.55549e-07
-5.11271e-07
5.87754e-07
5.75266e-05
-6.80268e-07
-6.40193e-07
6.05681e-07
5.43575e-05
-7.17401e-07
6.42079e-07
5.02018e-05
-7.52534e-07
-7.52625e-07
6.02662e-07
5.13421e-07
5.43574e-05
-7.15199e-07
4.73758e-07
4.76638e-07
5.81911e-05
3.26341e-07
4.63943e-07
6.11153e-05
1.65001e-07
4.43172e-07
6.30881e-05
-7.3274e-10
4.39411e-07
6.40815e-05
-1.66449e-07
4.39314e-07
6.40815e-05
-3.278e-07
4.42956e-07
6.30882e-05
-4.75372e-07
4.63588e-07
6.11154e-05
-6.0429e-07
4.76336e-07
5.81911e-05
5.12801e-07
5.43575e-05
-7.16751e-07
5.8525e-07
3.49763e-07
5.75263e-05
-6.77927e-07
4.616e-07
3.28171e-07
6.11152e-05
3.19534e-07
3.2098e-07
6.38543e-05
1.61447e-07
3.07728e-07
6.5703e-05
-8.37377e-10
3.03866e-07
6.66341e-05
-1.63089e-07
3.03831e-07
6.66342e-05
-3.21055e-07
3.07738e-07
6.57031e-05
-4.63049e-07
3.20972e-07
6.38544e-05
-5.86696e-07
3.28053e-07
6.11154e-05
3.49428e-07
5.75265e-05
-6.79446e-07
5.59992e-07
1.76732e-07
5.96632e-05
-6.52972e-07
4.41063e-07
1.65864e-07
6.30879e-05
3.06433e-07
1.62273e-07
6.57029e-05
1.55814e-07
1.5653e-07
6.74685e-05
-8.95985e-10
1.54585e-07
6.8358e-05
-1.57537e-07
1.54652e-07
6.8358e-05
-3.08013e-07
1.56588e-07
6.74687e-05
-4.42621e-07
1.62297e-07
6.57031e-05
-5.61501e-07
1.66034e-07