/*--------------------------------*- C++ -*----------------------------------*\
| =========                 |                                                 |
| \\      /  F ield         | OpenFOAM: The Open Source CFD Toolbox           |
|  \\    /   O peration     | Version:  2406                                  |
|   \\  /    A nd           | Website:  www.openfoam.com                      |
|    \\/     M anipulation  |                                                 |
\*---------------------------------------------------------------------------*/
FoamFile
{
    version     2.0;
    format      ascii;
    arch        "LSB;label=32;scalar=64";
    class       volScalarField;
    location    "350";
    object      turbulenceProperties:nut;
}
// * * * * * * * * * * * * * * * * * * * * * * * * * * * * * * * * * * * * * //

dimensions      [0 2 -1 0 0 0 0];

internalField   nonuniform List<scalar> 
25000
(
5.88722e-06
5.92849e-06
5.95435e-06
5.96719e-06
5.97281e-06
5.97281e-06
5.96719e-06
5.9545e-06
5.93058e-06
5.88721e-06
5.93054e-06
5.96744e-06
5.98829e-06
5.99986e-06
6.00547e-06
6.00547e-06
5.99998e-06
5.99342e-06
5.96747e-06
5.92851e-06
5.95448e-06
5.9934e-06
6.01088e-06
6.01853e-06
6.02379e-06
6.02381e-06
6.01921e-06
6.0109e-06
5.98831e-06
5.95436e-06
5.96718e-06
5.99997e-06
6.0192e-06
6.02998e-06
6.03448e-06
6.03491e-06
6.02999e-06
6.01854e-06
5.99987e-06
5.9672e-06
5.97281e-06
6.00547e-06
6.0238e-06
6.0349e-06
6.04156e-06
6.04156e-06
6.03448e-06
6.02379e-06
6.00548e-06
5.97281e-06
5.97281e-06
6.00547e-06
6.02379e-06
6.03448e-06
6.04156e-06
6.04156e-06
6.03448e-06
6.02379e-06
6.00548e-06
5.97281e-06
5.9672e-06
5.99987e-06
6.01854e-06
6.02999e-06
6.03492e-06
6.03492e-06
6.02999e-06
6.01854e-06
5.99987e-06
5.9672e-06
5.95436e-06
5.98831e-06
6.0109e-06
6.01921e-06
6.02381e-06
6.02381e-06
6.01921e-06
6.0109e-06
5.98831e-06
5.95436e-06
5.92851e-06
5.96747e-06
5.99342e-06
5.99998e-06
6.00547e-06
6.00547e-06
5.99998e-06
5.99343e-06
5.96747e-06
5.92851e-06
5.88721e-06
5.93058e-06
5.9545e-06
5.96719e-06
5.97282e-06
5.97282e-06
5.96719e-06
5.9545e-06
5.93058e-06
5.88721e-06
5.52553e-06
5.65223e-06
5.72858e-06
5.76751e-06
5.78451e-06
5.78451e-06
5.7675e-06
5.72937e-06
5.65736e-06
5.52554e-06
5.65732e-06
5.76889e-06
5.83102e-06
5.86533e-06
5.88189e-06
5.8819e-06
5.86611e-06
5.84425e-06
5.76893e-06
5.65226e-06
5.72935e-06
5.84422e-06
5.89746e-06
5.92125e-06
5.93659e-06
5.93671e-06
5.9231e-06
5.89748e-06
5.83104e-06
5.7286e-06
5.76749e-06
5.86609e-06
5.92308e-06
5.95497e-06
5.96864e-06
5.96977e-06
5.95498e-06
5.92126e-06
5.86534e-06
5.76751e-06
5.78451e-06
5.88189e-06
5.9367e-06
5.96976e-06
5.98926e-06
5.98926e-06
5.9686e-06
5.93659e-06
5.8819e-06
5.78452e-06
5.78451e-06
5.88189e-06
5.93659e-06
5.96864e-06
5.98926e-06
5.98927e-06
5.9686e-06
5.93659e-06
5.8819e-06
5.78452e-06
5.76751e-06
5.86534e-06
5.92126e-06
5.95498e-06
5.96981e-06
5.96981e-06
5.95498e-06
5.92126e-06
5.86534e-06
5.76751e-06
5.7286e-06
5.83104e-06
5.89748e-06
5.9231e-06
5.93671e-06
5.93671e-06
5.9231e-06
5.89748e-06
5.83104e-06
5.7286e-06
5.65226e-06
5.76892e-06
5.84425e-06
5.86611e-06
5.8819e-06
5.8819e-06
5.86611e-06
5.84425e-06
5.76893e-06
5.65226e-06
5.52554e-06
5.65736e-06
5.72937e-06
5.76751e-06
5.78451e-06
5.78451e-06
5.76751e-06
5.72937e-06
5.65736e-06
5.52554e-06
5.17401e-06
5.38313e-06
5.50736e-06
5.57183e-06
5.60004e-06
5.60003e-06
5.57187e-06
5.509e-06
5.39035e-06
5.174e-06
5.39035e-06
5.57461e-06
5.67677e-06
5.73307e-06
5.76015e-06
5.7602e-06
5.73474e-06
5.69614e-06
5.57463e-06
5.38313e-06
5.50899e-06
5.69613e-06
5.78504e-06
5.82552e-06
5.85046e-06
5.85071e-06
5.82835e-06
5.78506e-06
5.67679e-06
5.50736e-06
5.57187e-06
5.73473e-06
5.82834e-06
5.88068e-06
5.90355e-06
5.90523e-06
5.88069e-06
5.82553e-06
5.73308e-06
5.57184e-06
5.60003e-06
5.76019e-06
5.85071e-06
5.90522e-06
5.93697e-06
5.93697e-06
5.90346e-06
5.85045e-06
5.76015e-06
5.60004e-06
5.60004e-06
5.76015e-06
5.85046e-06
5.90355e-06
5.93697e-06
5.93697e-06
5.90346e-06
5.85045e-06
5.76015e-06
5.60004e-06
5.57183e-06
5.73308e-06
5.82553e-06
5.88069e-06
5.90532e-06
5.90532e-06
5.88069e-06
5.82553e-06
5.73308e-06
5.57184e-06
5.50736e-06
5.67678e-06
5.78506e-06
5.82835e-06
5.85073e-06
5.85073e-06
5.82836e-06
5.78506e-06
5.67679e-06
5.50736e-06
5.38312e-06
5.57463e-06
5.69614e-06
5.73474e-06
5.7602e-06
5.7602e-06
5.73474e-06
5.69614e-06
5.57463e-06
5.38313e-06
5.17399e-06
5.39035e-06
5.509e-06
5.57187e-06
5.60004e-06
5.60004e-06
5.57187e-06
5.509e-06
5.39035e-06
5.174e-06
4.83944e-06
5.12325e-06
5.29215e-06
5.38113e-06
5.42013e-06
5.42013e-06
5.38126e-06
5.29474e-06
5.13197e-06
4.83942e-06
5.13199e-06
5.38528e-06
5.52588e-06
5.60332e-06
5.64046e-06
5.64059e-06
5.60598e-06
5.54994e-06
5.38529e-06
5.12324e-06
5.29475e-06
5.54994e-06
5.67389e-06
5.73132e-06
5.76543e-06
5.76585e-06
5.73499e-06
5.6739e-06
5.52589e-06
5.29216e-06
5.38127e-06
5.60597e-06
5.73499e-06
5.80713e-06
5.83914e-06
5.84123e-06
5.80713e-06
5.73133e-06
5.60333e-06
5.38114e-06
5.42013e-06
5.64058e-06
5.76584e-06
5.84123e-06
5.88465e-06
5.88465e-06
5.83898e-06
5.7654e-06
5.64046e-06
5.42014e-06
5.42013e-06
5.64046e-06
5.76543e-06
5.83914e-06
5.88466e-06
5.88466e-06
5.83898e-06
5.7654e-06
5.64046e-06
5.42014e-06
5.38113e-06
5.60333e-06
5.73133e-06
5.80714e-06
5.8414e-06
5.8414e-06
5.80714e-06
5.73133e-06
5.60333e-06
5.38114e-06
5.29215e-06
5.52589e-06
5.6739e-06
5.735e-06
5.76588e-06
5.76588e-06
5.735e-06
5.6739e-06
5.52589e-06
5.29216e-06
5.12323e-06
5.38529e-06
5.54994e-06
5.60598e-06
5.6406e-06
5.6406e-06
5.60598e-06
5.54995e-06
5.38529e-06
5.12324e-06
4.83942e-06
5.13198e-06
5.29475e-06
5.38127e-06
5.42014e-06
5.42014e-06
5.38127e-06
5.29475e-06
5.13197e-06
4.83942e-06
4.52553e-06
4.87384e-06
5.08386e-06
5.19596e-06
5.24523e-06
5.24524e-06
5.19624e-06
5.08742e-06
4.88367e-06
4.52556e-06
4.88371e-06
5.20117e-06
5.37839e-06
5.47611e-06
5.52285e-06
5.52309e-06
5.47974e-06
5.40606e-06
5.20117e-06
4.87387e-06
5.08745e-06
5.40607e-06
5.56407e-06
5.63851e-06
5.68142e-06
5.68202e-06
5.6429e-06
5.56407e-06
5.3784e-06
5.08389e-06
5.19627e-06
5.47975e-06
5.6429e-06
5.73424e-06
5.77526e-06
5.77769e-06
5.73423e-06
5.63851e-06
5.47612e-06
5.196e-06
5.24527e-06
5.52309e-06
5.68202e-06
5.77769e-06
5.83225e-06
5.83224e-06
5.77503e-06
5.68137e-06
5.52285e-06
5.24527e-06
5.24525e-06
5.52286e-06
5.68142e-06
5.77526e-06
5.83227e-06
5.83225e-06
5.77503e-06
5.68137e-06
5.52285e-06
5.24527e-06
5.19598e-06
5.47611e-06
5.63851e-06
5.73425e-06
5.77792e-06
5.77792e-06
5.73424e-06
5.63851e-06
5.47612e-06
5.196e-06
5.08387e-06
5.37839e-06
5.56407e-06
5.6429e-06
5.68208e-06
5.68208e-06
5.6429e-06
5.56408e-06
5.3784e-06
5.0839e-06
4.87385e-06
5.20117e-06
5.40607e-06
5.47975e-06
5.52311e-06
5.52311e-06
5.47975e-06
5.40607e-06
5.20117e-06
4.87387e-06
4.52555e-06
4.88369e-06
5.08745e-06
5.19627e-06
5.24527e-06
5.24527e-06
5.19627e-06
5.08744e-06
4.88369e-06
4.52555e-06
4.23182e-06
4.63479e-06
4.8824e-06
5.01622e-06
5.07526e-06
5.07529e-06
5.01671e-06
4.88689e-06
4.64542e-06
4.23188e-06
4.64545e-06
5.022e-06
5.23406e-06
5.35127e-06
5.40722e-06
5.40759e-06
5.35585e-06
5.26451e-06
5.02199e-06
4.63483e-06
4.88692e-06
5.26452e-06
5.4555e-06
5.54691e-06
5.59833e-06
5.59911e-06
5.55191e-06
5.45549e-06
5.23407e-06
4.88244e-06
5.01674e-06
5.35586e-06
5.55192e-06
5.66192e-06
5.7118e-06
5.71449e-06
5.66189e-06
5.5469e-06
5.35128e-06
5.01627e-06
5.07532e-06
5.4076e-06
5.59911e-06
5.71449e-06
5.77973e-06
5.7797e-06
5.71149e-06
5.59824e-06
5.4072e-06
5.07531e-06
5.07529e-06
5.40723e-06
5.59833e-06
5.7118e-06
5.77975e-06
5.77972e-06
5.71149e-06
5.59824e-06
5.4072e-06
5.07531e-06
5.01625e-06
5.35128e-06
5.54691e-06
5.66194e-06
5.7148e-06
5.7148e-06
5.66192e-06
5.5469e-06
5.35128e-06
5.01627e-06
4.88242e-06
5.23406e-06
5.45549e-06
5.55192e-06
5.5992e-06
5.5992e-06
5.55192e-06
5.4555e-06
5.23407e-06
4.88244e-06
4.63482e-06
5.02199e-06
5.26452e-06
5.35586e-06
5.40763e-06
5.40763e-06
5.35586e-06
5.26452e-06
5.02199e-06
4.63483e-06
4.23188e-06
4.64544e-06
4.88692e-06
5.01674e-06
5.07533e-06
5.07533e-06
5.01674e-06
4.88691e-06
4.64544e-06
4.23188e-06
3.95582e-06
4.40507e-06
4.68684e-06
4.84107e-06
4.90943e-06
4.90948e-06
4.84177e-06
4.69217e-06
4.4162e-06
3.95586e-06
4.41623e-06
4.84708e-06
5.09239e-06
5.22843e-06
5.29325e-06
5.29376e-06
5.2339e-06
5.1249e-06
4.84704e-06
4.40507e-06
4.6922e-06
5.12492e-06
5.34795e-06
5.45629e-06
5.51598e-06
5.51694e-06
5.46182e-06
5.34793e-06
5.09237e-06
4.68684e-06
4.84179e-06
5.23392e-06
5.46183e-06
5.59005e-06
5.64865e-06
5.65154e-06
5.59001e-06
5.45627e-06
5.22842e-06
4.84109e-06
4.90951e-06
5.29378e-06
5.51695e-06
5.65155e-06
5.72705e-06
5.72701e-06
5.64826e-06
5.51585e-06
5.2932e-06
4.90944e-06
4.90945e-06
5.29325e-06
5.51598e-06
5.64865e-06
5.72708e-06
5.72704e-06
5.64826e-06
5.51585e-06
5.2932e-06
4.90945e-06
4.84109e-06
5.22842e-06
5.45628e-06
5.59007e-06
5.65193e-06
5.65193e-06
5.59004e-06
5.45627e-06
5.22842e-06
4.84109e-06
4.68684e-06
5.09238e-06
5.34793e-06
5.46183e-06
5.51707e-06
5.51707e-06
5.46183e-06
5.34793e-06
5.09238e-06
4.68684e-06
4.40507e-06
4.84705e-06
5.12491e-06
5.23391e-06
5.29382e-06
5.29382e-06
5.23391e-06
5.1249e-06
4.84704e-06
4.40507e-06
3.95587e-06
4.41621e-06
4.69219e-06
4.84179e-06
4.90951e-06
4.90951e-06
4.84178e-06
4.69218e-06
4.4162e-06
3.95585e-06
3.69669e-06
4.18423e-06
4.49659e-06
4.66988e-06
4.74713e-06
4.74722e-06
4.67083e-06
4.50268e-06
4.19566e-06
3.69674e-06
4.19569e-06
4.676e-06
4.95302e-06
5.10729e-06
5.18068e-06
5.18136e-06
5.11359e-06
4.987e-06
4.67595e-06
4.18423e-06
4.50271e-06
4.98703e-06
5.24126e-06
5.36648e-06
5.43426e-06
5.4354e-06
5.37247e-06
5.24123e-06
4.95299e-06
4.49659e-06
4.67084e-06
5.11361e-06
5.3725e-06
5.51856e-06
5.58575e-06
5.5888e-06
5.51849e-06
5.36644e-06
5.10727e-06
4.66989e-06
4.74723e-06
5.18137e-06
5.43541e-06
5.58881e-06
5.67424e-06
5.67418e-06
5.58528e-06
5.43408e-06
5.1806e-06
4.74713e-06
4.74714e-06
5.18068e-06
5.43426e-06
5.58575e-06
5.67427e-06
5.67422e-06
5.58528e-06
5.43408e-06
5.1806e-06
4.74713e-06
4.66989e-06
5.10727e-06
5.36646e-06
5.51858e-06
5.58927e-06
5.58926e-06
5.51854e-06
5.36644e-06
5.10727e-06
4.66989e-06
4.49659e-06
4.95299e-06
5.24123e-06
5.37249e-06
5.43557e-06
5.43557e-06
5.37249e-06
5.24123e-06
4.95298e-06
4.49659e-06
4.18423e-06
4.67595e-06
4.987e-06
5.1136e-06
5.18144e-06
5.18144e-06
5.1136e-06
4.987e-06
4.67595e-06
4.18422e-06
3.69673e-06
4.19566e-06
4.50269e-06
4.67083e-06
4.74724e-06
4.74724e-06
4.67083e-06
4.50268e-06
4.19566e-06
3.69672e-06
3.45548e-06
3.97275e-06
4.31187e-06
4.50271e-06
4.58832e-06
4.58845e-06
4.5039e-06
4.3186e-06
3.9843e-06
3.4555e-06
3.98431e-06
4.50884e-06
4.81589e-06
4.98778e-06
5.06947e-06
5.07031e-06
4.99485e-06
4.85088e-06
4.50878e-06
3.97272e-06
4.3186e-06
4.85091e-06
5.13546e-06
5.27744e-06
5.35315e-06
5.35446e-06
5.28384e-06
5.13542e-06
4.81585e-06
4.31185e-06
4.50389e-06
4.99487e-06
5.28387e-06
5.44743e-06
5.52309e-06
5.52626e-06
5.44735e-06
5.27739e-06
4.98774e-06
4.50269e-06
4.58843e-06
5.07031e-06
5.35446e-06
5.52628e-06
5.62131e-06
5.62125e-06
5.52254e-06
5.35291e-06
5.06935e-06
4.58829e-06
4.58829e-06
5.06946e-06
5.35314e-06
5.52309e-06
5.62136e-06
5.6213e-06
5.52254e-06
5.35291e-06
5.06935e-06
4.58829e-06
4.50268e-06
4.98775e-06
5.27742e-06
5.44747e-06
5.52681e-06
5.5268e-06
5.44741e-06
5.27739e-06
4.98774e-06
4.50269e-06
4.31183e-06
4.81584e-06
5.13542e-06
5.28387e-06
5.35468e-06
5.35468e-06
5.28387e-06
5.13542e-06
4.81584e-06
4.31184e-06
3.97271e-06
4.50877e-06
4.85087e-06
4.99486e-06
5.07041e-06
5.07041e-06
4.99486e-06
4.85087e-06
4.50878e-06
3.97272e-06
3.45548e-06
3.98429e-06
4.31859e-06
4.5039e-06
4.58846e-06
4.58846e-06
4.5039e-06
4.3186e-06
3.9843e-06
3.45549e-06
3.23462e-06
3.77156e-06
4.13321e-06
4.3399e-06
4.43326e-06
4.43343e-06
4.34133e-06
4.14047e-06
3.78312e-06
3.23463e-06
3.78313e-06
4.34594e-06
4.68113e-06
4.86996e-06
4.95965e-06
4.96066e-06
4.87771e-06
4.71675e-06
4.34587e-06
3.77153e-06
4.14048e-06
4.7168e-06
5.03064e-06
5.18919e-06
5.27267e-06
5.27413e-06
5.19595e-06
5.03059e-06
4.68108e-06
4.13318e-06
4.34133e-06
4.87773e-06
5.19598e-06
5.3767e-06
5.46069e-06
5.46395e-06
5.37661e-06
5.18912e-06
4.86991e-06
4.33987e-06
4.43342e-06
4.96066e-06
5.27414e-06
5.46397e-06
5.56833e-06
5.56824e-06
5.46005e-06
5.27236e-06
4.95949e-06
4.43321e-06
4.43323e-06
4.95964e-06
5.27265e-06
5.46069e-06
5.56839e-06
5.56831e-06
5.46006e-06
5.27236e-06
4.95949e-06
4.43321e-06
4.33987e-06
4.86992e-06
5.18916e-06
5.37675e-06
5.46456e-06
5.46455e-06
5.37667e-06
5.18912e-06
4.86991e-06
4.33987e-06
4.13317e-06
4.68107e-06
5.03059e-06
5.19598e-06
5.2744e-06
5.2744e-06
5.19598e-06
5.03059e-06
4.68107e-06
4.13317e-06
3.77152e-06
4.34586e-06
4.71674e-06
4.87772e-06
4.96079e-06
4.96079e-06
4.87772e-06
4.71674e-06
4.34587e-06
3.77152e-06
3.23461e-06
3.7831e-06
4.14046e-06
4.34132e-06
4.43345e-06
4.43345e-06
4.34133e-06
4.14047e-06
3.78311e-06
3.23462e-06
3.03717e-06
3.58179e-06
3.96129e-06
4.18192e-06
4.28234e-06
4.28256e-06
4.1836e-06
3.96899e-06
3.59327e-06
3.03717e-06
3.59328e-06
4.1877e-06
4.54891e-06
4.75391e-06
4.8513e-06
4.85247e-06
4.76227e-06
4.58487e-06
4.18763e-06
3.58176e-06
3.969e-06
4.58492e-06
4.9269e-06
5.10175e-06
5.19284e-06
5.19445e-06
5.10882e-06
4.92684e-06
4.54885e-06
3.96124e-06
4.18359e-06
4.7623e-06
5.10887e-06
5.3064e-06
5.39855e-06
5.40188e-06
5.30628e-06
5.10167e-06
4.75384e-06
4.18188e-06
4.28254e-06
4.85247e-06
5.19446e-06
5.40191e-06
5.51531e-06
5.51521e-06
5.39784e-06
5.19247e-06
4.85109e-06
4.28227e-06
4.28231e-06
4.85128e-06
5.19282e-06
5.39855e-06
5.51538e-06
5.51529e-06
5.39785e-06
5.19247e-06
4.85109e-06
4.28227e-06
4.18189e-06
4.75387e-06
5.10172e-06
5.30645e-06
5.40257e-06
5.40255e-06
5.30636e-06
5.10167e-06
4.75384e-06
4.18188e-06
3.96124e-06
4.54885e-06
4.92685e-06
5.10887e-06
5.19478e-06
5.19478e-06
5.10886e-06
4.92684e-06
4.54885e-06
3.96124e-06
3.58176e-06
4.18763e-06
4.58487e-06
4.76228e-06
4.85263e-06
4.85263e-06
4.76228e-06
4.58486e-06
4.18763e-06
3.58175e-06
3.03717e-06
3.59326e-06
3.96898e-06
4.18359e-06
4.28258e-06
4.28258e-06
4.18359e-06
3.96898e-06
3.59326e-06
3.03716e-06
2.8688e-06
3.4051e-06
3.79686e-06
4.0293e-06
4.13598e-06
4.13626e-06
4.03121e-06
3.80492e-06
3.41645e-06
2.8688e-06
3.41646e-06
4.03464e-06
4.41944e-06
4.63975e-06
4.74451e-06
4.74583e-06
4.64864e-06
4.45551e-06
4.03457e-06
3.40508e-06
3.80494e-06
4.45557e-06
4.82435e-06
5.01517e-06
5.1137e-06
5.11545e-06
5.02251e-06
4.82429e-06
4.41937e-06
3.79683e-06
4.03121e-06
4.64867e-06
5.02256e-06
5.23653e-06
5.33669e-06
5.34008e-06
5.2364e-06
5.01507e-06
4.63968e-06
4.02926e-06
4.13624e-06
4.74583e-06
5.11546e-06
5.34011e-06
5.46229e-06
5.46217e-06
5.33592e-06
5.11327e-06
4.74426e-06
4.1359e-06
4.13596e-06
4.74449e-06
5.11368e-06
5.3367e-06
5.46238e-06
5.46227e-06
5.33593e-06
5.11327e-06
4.74426e-06
4.1359e-06
4.02927e-06
4.63971e-06
5.01514e-06
5.2366e-06
5.34083e-06
5.34081e-06
5.2365e-06
5.01508e-06
4.63968e-06
4.02926e-06
3.79683e-06
4.41938e-06
4.8243e-06
5.02257e-06
5.11584e-06
5.11583e-06
5.02256e-06
4.82429e-06
4.41937e-06
3.79682e-06
3.40507e-06
4.03456e-06
4.45551e-06
4.64866e-06
4.74604e-06
4.74604e-06
4.64866e-06
4.45551e-06
4.03456e-06
3.40507e-06
2.8688e-06
3.41644e-06
3.80491e-06
4.0312e-06
4.13629e-06
4.1363e-06
4.03121e-06
3.80492e-06
3.41644e-06
2.86879e-06
2.73724e-06
3.24364e-06
3.64085e-06
3.88258e-06
3.99464e-06
3.99498e-06
3.88472e-06
3.6492e-06
3.25481e-06
2.73721e-06
3.25481e-06
3.8873e-06
4.29292e-06
4.52759e-06
4.63936e-06
4.64083e-06
4.53693e-06
4.32893e-06
3.88724e-06
3.24361e-06
3.6492e-06
4.32899e-06
4.72309e-06
4.92947e-06
5.03527e-06
5.03715e-06
4.93705e-06
4.72303e-06
4.29285e-06
3.64082e-06
3.8847e-06
4.53695e-06
4.9371e-06
5.16713e-06
5.27513e-06
5.27855e-06
5.16698e-06
4.92936e-06
4.52751e-06
3.88254e-06
3.99495e-06
4.64083e-06
5.03716e-06
5.2786e-06
5.4093e-06
5.40917e-06
5.2743e-06
5.03478e-06
4.63907e-06
3.99455e-06
3.99461e-06
4.63934e-06
5.03525e-06
5.27514e-06
5.4094e-06
5.40928e-06
5.27432e-06
5.03478e-06
4.63907e-06
3.99455e-06
3.88254e-06
4.52754e-06
4.92944e-06
5.16722e-06
5.27938e-06
5.27935e-06
5.16709e-06
4.92937e-06
4.52751e-06
3.88254e-06
3.64081e-06
4.29285e-06
4.72304e-06
4.93713e-06
5.0376e-06
5.03759e-06
4.93711e-06
4.72303e-06
4.29285e-06
3.64082e-06
3.2436e-06
3.88723e-06
4.32893e-06
4.53696e-06
4.64109e-06
4.64109e-06
4.53696e-06
4.32893e-06
3.88723e-06
3.2436e-06
2.73721e-06
3.2548e-06
3.64919e-06
3.88472e-06
3.99503e-06
3.99503e-06
3.88472e-06
3.64919e-06
3.25481e-06
2.73721e-06
2.65835e-06
3.10117e-06
3.49451e-06
3.74243e-06
3.85882e-06
3.85921e-06
3.74478e-06
3.50308e-06
3.11217e-06
2.65829e-06
3.11216e-06
3.74645e-06
4.16959e-06
4.41754e-06
4.53595e-06
4.53755e-06
4.42726e-06
4.2054e-06
3.7464e-06
3.10114e-06
3.50308e-06
4.20546e-06
4.62322e-06
4.84469e-06
4.95757e-06
4.95957e-06
4.85246e-06
4.62315e-06
4.16953e-06
3.49449e-06
3.74477e-06
4.42728e-06
4.85252e-06
5.09821e-06
5.21387e-06
5.21733e-06
5.09804e-06
4.84456e-06
4.41745e-06
3.7424e-06
3.85919e-06
4.53756e-06
4.95958e-06
5.21738e-06
5.35636e-06
5.35621e-06
5.21298e-06
4.95702e-06
4.53561e-06
3.85872e-06
3.85879e-06
4.53593e-06
4.95756e-06
5.21389e-06
5.35647e-06
5.35633e-06
5.21301e-06
4.95702e-06
4.53561e-06
3.85872e-06
3.74241e-06
4.4175e-06
4.84466e-06
5.09831e-06
5.21822e-06
5.21819e-06
5.09817e-06
4.84458e-06
4.41745e-06
3.7424e-06
3.49448e-06
4.16953e-06
4.62317e-06
4.85256e-06
4.96008e-06
4.96008e-06
4.85254e-06
4.62316e-06
4.16952e-06
3.49449e-06
3.10114e-06
3.74639e-06
4.2054e-06
4.4273e-06
4.53786e-06
4.53786e-06
4.4273e-06
4.20541e-06
3.74639e-06
3.10114e-06
2.65829e-06
3.11215e-06
3.50307e-06
3.74478e-06
3.85928e-06
3.85928e-06
3.74478e-06
3.50307e-06
3.11216e-06
2.65829e-06
2.65442e-06
2.98326e-06
3.35968e-06
3.60979e-06
3.72918e-06
3.72962e-06
3.61232e-06
3.3684e-06
2.99408e-06
2.65429e-06
2.99408e-06
3.61314e-06
4.04972e-06
4.30971e-06
4.43434e-06
4.43607e-06
4.31975e-06
4.08523e-06
3.61308e-06
2.98321e-06
3.3684e-06
4.08528e-06
4.52481e-06
4.76085e-06
4.88062e-06
4.88272e-06
4.76878e-06
4.52474e-06
4.04966e-06
3.35964e-06
3.61231e-06
4.31977e-06
4.76884e-06
5.02978e-06
5.15293e-06
5.15641e-06
5.02959e-06
4.76071e-06
4.30962e-06
3.60975e-06
3.7296e-06
4.43607e-06
4.88274e-06
5.15646e-06
5.30348e-06
5.30332e-06
5.15199e-06
4.88001e-06
4.43395e-06
3.72906e-06
3.72915e-06
4.43432e-06
4.88061e-06
5.15296e-06
5.30361e-06
5.30346e-06
5.15202e-06
4.88001e-06
4.43395e-06
3.72906e-06
3.60976e-06
4.30967e-06
4.76082e-06
5.02989e-06
5.15736e-06
5.15732e-06
5.02974e-06
4.76072e-06
4.30962e-06
3.60975e-06
3.35964e-06
4.04967e-06
4.52476e-06
4.7689e-06
4.8833e-06
4.8833e-06
4.76888e-06
4.52475e-06
4.04966e-06
3.35965e-06
2.98322e-06
3.61308e-06
4.08523e-06
4.3198e-06
4.43643e-06
4.43643e-06
4.31979e-06
4.08523e-06
3.61308e-06
2.9832e-06
2.65429e-06
2.99406e-06
3.3684e-06
3.61233e-06
3.72971e-06
3.72971e-06
3.61233e-06
3.36839e-06
2.99407e-06
2.65429e-06
2.7724e-06
2.89962e-06
3.2395e-06
3.48601e-06
3.60666e-06
3.60716e-06
3.48871e-06
3.24835e-06
2.91029e-06
2.77214e-06
2.91031e-06
3.48902e-06
3.93371e-06
4.20425e-06
4.33463e-06
4.33648e-06
4.21454e-06
3.96882e-06
3.48897e-06
2.89951e-06
3.24835e-06
3.96887e-06
4.42797e-06
4.67797e-06
4.80443e-06
4.80663e-06
4.68604e-06
4.42789e-06
3.93365e-06
3.23946e-06
3.48871e-06
4.21457e-06
4.68611e-06
4.96185e-06
5.09232e-06
5.0958e-06
4.96165e-06
4.67782e-06
4.20415e-06
3.48597e-06
3.60714e-06
4.33648e-06
4.80665e-06
5.09587e-06
5.25069e-06
5.25051e-06
5.09132e-06
4.80376e-06
4.33419e-06
3.60653e-06
3.60664e-06
4.33461e-06
4.80442e-06
5.09235e-06
5.25084e-06
5.25067e-06
5.09136e-06
4.80376e-06
4.33419e-06
3.60653e-06
3.48598e-06
4.20422e-06
4.67795e-06
4.96198e-06
5.09681e-06
5.09677e-06
4.9618e-06
4.67784e-06
4.20415e-06
3.48597e-06
3.23946e-06
3.93366e-06
4.42792e-06
4.68617e-06
4.80727e-06
4.80727e-06
4.68615e-06
4.4279e-06
3.93365e-06
3.23947e-06
2.89954e-06
3.48897e-06
3.96883e-06
4.2146e-06
4.33689e-06
4.33689e-06
4.2146e-06
3.96883e-06
3.48897e-06
2.89951e-06
2.77214e-06
2.91026e-06
3.24834e-06
3.48873e-06
3.60727e-06
3.60727e-06
3.48872e-06
3.24833e-06
2.91028e-06
2.77214e-06
3.07826e-06
2.86579e-06
3.13879e-06
3.37337e-06
3.49277e-06
3.49332e-06
3.37624e-06
3.14774e-06
2.87642e-06
3.0778e-06
2.87645e-06
3.37664e-06
3.82213e-06
4.10134e-06
4.23691e-06
4.23887e-06
4.11182e-06
3.85678e-06
3.37658e-06
2.86562e-06
3.14775e-06
3.85683e-06
4.3328e-06
4.59609e-06
4.72902e-06
4.7313e-06
4.60427e-06
4.33272e-06
3.82207e-06
3.13873e-06
3.37623e-06
4.11185e-06
4.60433e-06
4.89442e-06
5.03203e-06
5.03552e-06
4.89421e-06
4.59592e-06
4.10122e-06
3.37332e-06
3.4933e-06
4.23887e-06
4.73132e-06
5.03559e-06
5.198e-06
5.19781e-06
5.03099e-06
4.72828e-06
4.23642e-06
3.49261e-06
3.49275e-06
4.2369e-06
4.72901e-06
5.03207e-06
5.19817e-06
5.19798e-06
5.03103e-06
4.72829e-06
4.23642e-06
3.49261e-06
3.37335e-06
4.1013e-06
4.59608e-06
4.89457e-06
5.03658e-06
5.03654e-06
4.89438e-06
4.59594e-06
4.10123e-06
3.37334e-06
3.13874e-06
3.82208e-06
4.33276e-06
4.60442e-06
4.73201e-06
4.732e-06
4.6044e-06
4.33274e-06
3.82207e-06
3.13876e-06
2.86566e-06
3.37658e-06
3.8568e-06
4.1119e-06
4.23933e-06
4.23933e-06
4.1119e-06
3.8568e-06
3.37658e-06
2.86563e-06
3.07779e-06
2.87637e-06
3.14774e-06
3.37626e-06
3.49346e-06
3.49346e-06
3.37625e-06
3.14772e-06
2.8764e-06
3.07778e-06
3.70705e-06
2.90461e-06
3.06498e-06
3.27528e-06
3.3898e-06
3.39039e-06
3.2783e-06
3.07404e-06
2.91533e-06
3.70613e-06
2.91539e-06
3.28022e-06
3.71587e-06
4.00125e-06
4.14134e-06
4.14339e-06
4.01189e-06
3.75003e-06
3.28015e-06
2.90431e-06
3.07406e-06
3.75008e-06
4.23946e-06
4.51524e-06
4.65439e-06
4.65675e-06
4.5235e-06
4.23938e-06
3.71581e-06
3.0649e-06
3.2783e-06
4.01192e-06
4.52357e-06
4.82752e-06
4.97208e-06
4.97557e-06
4.82729e-06
4.51506e-06
4.00113e-06
3.27523e-06
3.39039e-06
4.1434e-06
4.65678e-06
4.97565e-06
5.14543e-06
5.14523e-06
4.971e-06
4.6536e-06
4.14081e-06
3.38963e-06
3.38979e-06
4.14133e-06
4.6544e-06
4.97214e-06
5.14561e-06
5.14541e-06
4.97104e-06
4.65361e-06
4.14081e-06
3.38963e-06
3.27526e-06
4.00122e-06
4.51524e-06
4.82769e-06
4.97669e-06
4.97664e-06
4.82748e-06
4.51509e-06
4.00113e-06
3.27525e-06
3.06491e-06
3.71583e-06
4.23943e-06
4.52368e-06
4.65753e-06
4.65752e-06
4.52365e-06
4.23941e-06
3.71581e-06
3.06494e-06
2.90438e-06
3.28016e-06
3.75005e-06
4.01199e-06
4.14391e-06
4.1439e-06
4.01198e-06
3.75005e-06
3.28016e-06
2.90434e-06
3.70612e-06
2.91526e-06
3.07404e-06
3.27833e-06
3.39056e-06
3.39056e-06
3.27831e-06
3.074e-06
2.9153e-06
3.7061e-06
4.83918e-06
3.05491e-06
3.0297e-06
3.19692e-06
3.30119e-06
3.30184e-06
3.20007e-06
3.0389e-06
3.06596e-06
4.83775e-06
3.06606e-06
3.20583e-06
3.61632e-06
3.9044e-06
4.04812e-06
4.05025e-06
3.91517e-06
3.64998e-06
3.20576e-06
3.05442e-06
3.03892e-06
3.65002e-06
4.14817e-06
4.43547e-06
4.58058e-06
4.58301e-06
4.4438e-06
4.14809e-06
3.61626e-06
3.02957e-06
3.20008e-06
3.9152e-06
4.44387e-06
4.76115e-06
4.91248e-06
4.91596e-06
4.76091e-06
4.43528e-06
3.90428e-06
3.19685e-06
3.30184e-06
4.05027e-06
4.58304e-06
4.91605e-06
5.09299e-06
5.09278e-06
4.91136e-06
4.57974e-06
4.04754e-06
3.301e-06
3.30118e-06
4.04812e-06
4.58059e-06
4.91254e-06
5.09319e-06
5.09298e-06
4.91141e-06
4.57975e-06
4.04754e-06
3.301e-06
3.19689e-06
3.90439e-06
4.43548e-06
4.76134e-06
4.91713e-06
4.91708e-06
4.76112e-06
4.43531e-06
3.90428e-06
3.19689e-06
3.0296e-06
3.61629e-06
4.14815e-06
4.44399e-06
4.58385e-06
4.58384e-06
4.44396e-06
4.14812e-06
3.61627e-06
3.02964e-06
3.05452e-06
3.20577e-06
3.65e-06
3.91528e-06
4.05083e-06
4.05082e-06
3.91527e-06
3.64999e-06
3.20577e-06
3.05448e-06
4.8377e-06
3.06585e-06
3.03888e-06
3.20011e-06
3.30202e-06
3.30202e-06
3.20008e-06
3.03883e-06
3.0659e-06
4.83772e-06
6.87379e-06
3.37428e-06
3.05036e-06
3.14677e-06
3.23281e-06
3.23351e-06
3.15007e-06
3.05977e-06
3.38594e-06
6.87013e-06
3.38618e-06
3.16324e-06
3.5256e-06
3.81145e-06
3.95758e-06
3.95979e-06
3.82231e-06
3.55877e-06
3.16316e-06
3.37341e-06
3.0598e-06
3.5588e-06
4.05924e-06
4.35685e-06
4.5076e-06
4.51009e-06
4.36522e-06
4.05918e-06
3.52555e-06
3.05015e-06
3.15008e-06
3.82234e-06
4.36528e-06
4.69534e-06
4.85324e-06
4.85671e-06
4.69508e-06
4.35664e-06
3.81133e-06
3.14669e-06
3.23351e-06
3.9598e-06
4.51012e-06
4.8568e-06
5.0407e-06
5.04047e-06
4.85208e-06
4.50671e-06
3.95696e-06
3.2326e-06
3.23281e-06
3.95758e-06
4.50761e-06
4.85331e-06
5.04091e-06
5.04068e-06
4.85214e-06
4.50672e-06
3.95696e-06
3.23261e-06
3.14674e-06
3.81145e-06
4.35686e-06
4.69554e-06
4.85793e-06
4.85787e-06
4.69531e-06
4.35668e-06
3.81134e-06
3.14674e-06
3.0502e-06
3.52558e-06
4.05924e-06
4.36543e-06
4.51099e-06
4.51097e-06
4.3654e-06
4.05921e-06
3.52556e-06
3.05027e-06
3.37359e-06
3.16317e-06
3.55879e-06
3.82244e-06
3.96042e-06
3.96041e-06
3.82243e-06
3.55879e-06
3.16316e-06
3.37351e-06
6.8701e-06
3.38578e-06
3.05974e-06
3.15011e-06
3.23372e-06
3.23371e-06
3.15006e-06
3.05965e-06
3.38582e-06
6.87002e-06
1.02552e-05
3.9679e-06
3.15667e-06
3.13674e-06
3.19266e-06
3.1934e-06
3.1402e-06
3.1664e-06
3.98065e-06
1.02489e-05
3.98132e-06
3.16645e-06
3.447e-06
3.72349e-06
3.87028e-06
3.87256e-06
3.73442e-06
3.47973e-06
3.16635e-06
3.96642e-06
3.16653e-06
3.47971e-06
3.97315e-06
4.27946e-06
4.43548e-06
4.43802e-06
4.28786e-06
3.9731e-06
3.44697e-06
3.15632e-06
3.14023e-06
3.7344e-06
4.28791e-06
4.63008e-06
4.79436e-06
4.79782e-06
4.62982e-06
4.27925e-06
3.72337e-06
3.13662e-06
3.19341e-06
3.87254e-06
4.43804e-06
4.79791e-06
4.98856e-06
4.98832e-06
4.79317e-06
4.43454e-06
3.86963e-06
3.19241e-06
3.19265e-06
3.87025e-06
4.43549e-06
4.79444e-06
4.98879e-06
4.98855e-06
4.79323e-06
4.43456e-06
3.86963e-06
3.19243e-06
3.1367e-06
3.72346e-06
4.27947e-06
4.63031e-06
4.79908e-06
4.79902e-06
4.63007e-06
4.27929e-06
3.72338e-06
3.1367e-06
3.15646e-06
3.44696e-06
3.97316e-06
4.28809e-06
4.43898e-06
4.43897e-06
4.28806e-06
3.97314e-06
3.44699e-06
3.15651e-06
3.96685e-06
3.16633e-06
3.47974e-06
3.73455e-06
3.87324e-06
3.87324e-06
3.73455e-06
3.47975e-06
3.16636e-06
3.96658e-06
1.02494e-05
3.98045e-06
3.16635e-06
3.14024e-06
3.19364e-06
3.19362e-06
3.14017e-06
3.16621e-06
3.98043e-06
1.02487e-05
1.52538e-05
4.99467e-06
3.38758e-06
3.18576e-06
3.19337e-06
3.19418e-06
3.18941e-06
3.3978e-06
5.00919e-06
1.52451e-05
5.01031e-06
3.23887e-06
3.38583e-06
3.64216e-06
3.78708e-06
3.78942e-06
3.65314e-06
3.4182e-06
3.23868e-06
4.99225e-06
3.39803e-06
3.41818e-06
3.8907e-06
4.20346e-06
4.36428e-06
4.36686e-06
4.21187e-06
3.89066e-06
3.38578e-06
3.38702e-06
3.18949e-06
3.65311e-06
4.21192e-06
4.56543e-06
4.73586e-06
4.7393e-06
4.56516e-06
4.20324e-06
3.64203e-06
3.18558e-06
3.1942e-06
3.78939e-06
4.36688e-06
4.7394e-06
4.9366e-06
4.93635e-06
4.73464e-06
4.36329e-06
3.78639e-06
3.19309e-06
3.19337e-06
3.78705e-06
4.36429e-06
4.73595e-06
4.93684e-06
4.93659e-06
4.73471e-06
4.3633e-06
3.78639e-06
3.19312e-06
3.1857e-06
3.64212e-06
4.20348e-06
4.56567e-06
4.74061e-06
4.74054e-06
4.56542e-06
4.20328e-06
3.64204e-06
3.18571e-06
3.38725e-06
3.38576e-06
3.89071e-06
4.21212e-06
4.36787e-06
4.36786e-06
4.21209e-06
3.8907e-06
3.3858e-06
3.38732e-06
4.99301e-06
3.23866e-06
3.41818e-06
3.65327e-06
3.79013e-06
3.79013e-06
3.65327e-06
3.4182e-06
3.23869e-06
4.99259e-06
1.52464e-05
5.00912e-06
3.39778e-06
3.18947e-06
3.19444e-06
3.19441e-06
3.18934e-06
3.39753e-06
5.00888e-06
1.52451e-05
2.19419e-05
6.60911e-06
3.80934e-06
3.32222e-06
3.2553e-06
3.25617e-06
3.32613e-06
3.82043e-06
6.62694e-06
2.19329e-05
6.62832e-06
3.40474e-06
3.34874e-06
3.57005e-06
3.70944e-06
3.71183e-06
3.58105e-06
3.38086e-06
3.40442e-06
6.60602e-06
3.82075e-06
3.38086e-06
3.81297e-06
4.12909e-06
4.29407e-06
4.29668e-06
4.13749e-06
3.81291e-06
3.34862e-06
3.80864e-06
3.32626e-06
3.58102e-06
4.13754e-06
4.50141e-06
4.67775e-06
4.68117e-06
4.50112e-06
4.12884e-06
3.56985e-06
3.32202e-06
3.25623e-06
3.71179e-06
4.2967e-06
4.68128e-06
4.88482e-06
4.88456e-06
4.6765e-06
4.29301e-06
3.70866e-06
3.255e-06
3.25532e-06
3.7094e-06
4.29407e-06
4.67785e-06
4.88507e-06
4.88481e-06
4.67657e-06
4.29303e-06
3.70866e-06
3.25505e-06
3.32216e-06
3.56998e-06
4.12911e-06
4.50166e-06
4.68252e-06
4.68244e-06
4.50139e-06
4.12888e-06
3.56986e-06
3.32224e-06
3.8089e-06
3.34863e-06
3.81297e-06
4.13776e-06
4.29774e-06
4.29772e-06
4.13771e-06
3.81294e-06
3.34863e-06
3.80915e-06
6.60695e-06
3.40442e-06
3.38084e-06
3.58118e-06
3.71256e-06
3.71256e-06
3.58116e-06
3.38082e-06
3.40443e-06
6.6068e-06
2.19343e-05
6.62688e-06
3.82047e-06
3.32624e-06
3.25649e-06
3.25645e-06
3.32606e-06
3.82014e-06
6.62677e-06
2.19337e-05
3.01203e-05
9.35485e-06
4.52737e-06
3.58739e-06
3.40319e-06
3.40415e-06
3.59168e-06
4.53984e-06
9.37703e-06
3.01129e-05
9.37826e-06
3.72089e-06
3.34711e-06
3.51112e-06
3.63964e-06
3.64207e-06
3.52216e-06
3.37922e-06
3.72044e-06
9.3509e-06
4.5401e-06
3.37927e-06
3.74167e-06
4.0567e-06
4.22497e-06
4.22762e-06
4.06507e-06
3.74158e-06
3.34691e-06
4.52648e-06
3.59182e-06
3.52215e-06
4.06514e-06
4.43806e-06
4.62005e-06
4.62345e-06
4.43776e-06
4.05641e-06
3.51086e-06
3.58717e-06
3.40422e-06
3.64204e-06
4.22764e-06
4.62356e-06
4.83324e-06
4.83296e-06
4.61876e-06
4.22386e-06
3.63877e-06
3.4029e-06
3.4032e-06
3.63959e-06
4.22499e-06
4.62015e-06
4.8335e-06
4.83323e-06
4.61884e-06
4.22388e-06
3.63878e-06
3.40297e-06
3.58723e-06
3.51105e-06
4.05672e-06
4.43834e-06
4.62483e-06
4.62475e-06
4.43804e-06
4.05646e-06
3.51088e-06
3.5875e-06
4.5266e-06
3.34697e-06
3.74168e-06
4.06537e-06
4.22872e-06
4.2287e-06
4.06531e-06
3.74162e-06
3.34694e-06
4.52721e-06
9.35141e-06
3.72043e-06
3.37922e-06
3.5223e-06
3.64283e-06
3.64282e-06
3.52226e-06
3.37917e-06
3.72046e-06
9.35194e-06
3.01122e-05
9.37619e-06
4.53975e-06
3.5918e-06
3.40453e-06
3.40447e-06
3.59152e-06
4.53932e-06
9.37641e-06
3.01132e-05
3.93567e-05
1.34637e-05
5.66806e-06
4.04597e-06
3.68292e-06
3.684e-06
4.05082e-06
5.68248e-06
1.34897e-05
3.93518e-05
1.34906e-05
4.25869e-06
3.3953e-06
3.47079e-06
3.58101e-06
3.58349e-06
3.4819e-06
3.42776e-06
4.25815e-06
1.3459e-05
5.68253e-06
3.42786e-06
3.67931e-06
3.98683e-06
4.15721e-06
4.15988e-06
3.99518e-06
3.67919e-06
3.39503e-06
5.66702e-06
4.05091e-06
3.48192e-06
3.99526e-06
4.37546e-06
4.56277e-06
4.56614e-06
4.37514e-06
3.98653e-06
3.47048e-06
4.04571e-06
3.68404e-06
3.58348e-06
4.15992e-06
4.56627e-06
4.78186e-06
4.78158e-06
4.56145e-06