/*--------------------------------*- C++ -*----------------------------------*\
| =========                 |                                                 |
| \\      /  F ield         | OpenFOAM: The Open Source CFD Toolbox           |
|  \\    /   O peration     | Version:  2406                                  |
|   \\  /    A nd           | Website:  www.openfoam.com                      |
|    \\/     M anipulation  |                                                 |
\*---------------------------------------------------------------------------*/
FoamFile
{
    version     2.0;
    format      ascii;
    arch        "LSB;label=32;scalar=64";
    class       volScalarField;
    location    "350";
    object      turbulenceProperties:L;
}
// * * * * * * * * * * * * * * * * * * * * * * * * * * * * * * * * * * * * * //

dimensions      [0 1 0 0 0 0 0];

internalField   nonuniform List<scalar> 
25000
(
0.0351111
0.0359867
0.037701
0.0380197
0.038191
0.0381887
0.0380113
0.0376758
0.0360494
0.0352235
0.0359805
0.0366135
0.0382834
0.0392527
0.0397492
0.0397456
0.0392416
0.0382555
0.0365917
0.0360497
0.0376967
0.0382728
0.0397323
0.0406958
0.0411899
0.0411871
0.0406864
0.0397185
0.0382631
0.0376731
0.0380176
0.0392509
0.0406942
0.0417179
0.0422534
0.0422506
0.0417121
0.0406865
0.0392403
0.0380079
0.0381898
0.0397483
0.0411898
0.0422529
0.042811
0.0428097
0.0422498
0.0411845
0.0397422
0.0381846
0.0381882
0.0397458
0.0411876
0.042252
0.0428101
0.0428092
0.0422497
0.0411845
0.0397423
0.0381847
0.038011
0.0392425
0.0406884
0.041713
0.0422498
0.0422492
0.0417116
0.0406865
0.0392405
0.0380084
0.0376758
0.0382646
0.0397197
0.0406865
0.0411853
0.0411849
0.0406856
0.0397185
0.0382634
0.0376737
0.0360519
0.036593
0.0382564
0.0392413
0.0397432
0.0397429
0.0392406
0.0382554
0.036592
0.0360503
0.0352236
0.0360464
0.0376733
0.0380085
0.038185
0.038185
0.0380085
0.0376736
0.0360475
0.0352228
0.0297699
0.0303517
0.0315561
0.0317925
0.0319208
0.0319187
0.0317833
0.0315287
0.0304605
0.0300037
0.0303374
0.0312999
0.0319732
0.0322637
0.0324531
0.0324498
0.032254
0.0319403
0.0312886
0.0304624
0.0315433
0.0319499
0.0325541
0.0328128
0.0329532
0.0329512
0.0328051
0.0325457
0.0319574
0.0315252
0.0317854
0.0322578
0.0328079
0.0331168
0.0332778
0.033275
0.0331139
0.0328064
0.0322527
0.0317784
0.0319156
0.0324479
0.0329504
0.0332752
0.0334325
0.033432
0.0332751
0.0329483
0.0324457
0.0319134
0.0319153
0.0324462
0.0329484
0.0332751
0.0334314
0.0334311
0.0332746
0.032948
0.0324454
0.0319135
0.0317809
0.0322514
0.032805
0.0331121
0.0332724
0.0332725
0.0331123
0.0328054
0.0322522
0.0317788
0.0315285
0.0319551
0.0325431
0.0328021
0.032947
0.0329471
0.0328027
0.0325443
0.0319564
0.0315259
0.0304671
0.0312863
0.0319376
0.0322504
0.0324448
0.0324449
0.0322509
0.0319386
0.0312877
0.0304638
0.0300014
0.0304541
0.0315231
0.0317777
0.031913
0.0319134
0.0317789
0.031525
0.0304573
0.0300021
0.031107
0.0322943
0.033105
0.0335484
0.033752
0.0337515
0.0335413
0.0330873
0.0323359
0.0312614
0.0322791
0.0334709
0.033813
0.0340683
0.0342504
0.0342483
0.0340597
0.0337719
0.0334588
0.0323435
0.0330942
0.0337817
0.0342829
0.0345587
0.0347335
0.0347317
0.0345506
0.034277
0.0337999
0.0330869
0.0335427
0.0340629
0.0345531
0.0348546
0.0350406
0.0350369
0.0348518
0.0345538
0.0340605
0.0335383
0.033747
0.0342465
0.0347314
0.0350374
0.0351985
0.0351979
0.0350383
0.0347297
0.0342455
0.0337483
0.0337475
0.0342451
0.0347297
0.0350383
0.0351975
0.0351971
0.0350379
0.0347295
0.0342453
0.0337484
0.033538
0.0340584
0.0345524
0.0348503
0.0350349
0.0350348
0.0348505
0.0345529
0.0340599
0.0335386
0.0330874
0.0337968
0.0342745
0.034548
0.0347283
0.0347285
0.0345486
0.0342759
0.033799
0.0330873
0.0323459
0.0334558
0.0337691
0.0340565
0.0342443
0.0342446
0.0340573
0.0337704
0.0334581
0.0323446
0.0312603
0.0323306
0.0330831
0.0335372
0.0337477
0.0337481
0.0335385
0.0330848
0.0323337
0.0312608
0.0357517
0.0379936
0.0385579
0.0393017
0.0395777
0.039578
0.0392935
0.0385261
0.0380136
0.0358844
0.0379739
0.039544
0.0397805
0.040224
0.0404586
0.0404569
0.0402145
0.0397244
0.0395296
0.0380307
0.0385441
0.0397342
0.0404063
0.0409401
0.0412543
0.041252
0.040929
0.0404019
0.0397682
0.0385316
0.0392967
0.040217
0.0409327
0.0414413
0.0417659
0.0417607
0.0414375
0.0409357
0.04022
0.0392948
0.0395732
0.0404557
0.0412528
0.0417621
0.0420492
0.0420485
0.0417644
0.0412527
0.0404574
0.0395786
0.0395742
0.040455
0.0412518
0.0417644
0.0420485
0.0420482
0.0417643
0.0412528
0.0404576
0.0395787
0.0392906
0.0402171
0.0409347
0.0414371
0.04176
0.0417599
0.0414375
0.0409359
0.0402202
0.0392952
0.0385283
0.0397657
0.0404011
0.0409287
0.0412514
0.0412514
0.0409291
0.0404023
0.0397687
0.0385326
0.0380292
0.0395286
0.0397244
0.0402146
0.0404565
0.0404564
0.0402146
0.0397248
0.0395303
0.0380316
0.035882
0.0380119
0.0385257
0.0392933
0.0395777
0.0395781
0.0392946
0.0385272
0.0380147
0.0358854
0.0409809
0.0440169
0.0445791
0.045675
0.0460583
0.0460622
0.045679
0.0445543
0.0440273
0.0410935
0.0439936
0.0459773
0.0464808
0.0473671
0.0477255
0.0477264
0.0473646
0.0464226
0.0459823
0.0440545
0.0445659
0.0464202
0.0475392
0.0486474
0.049225
0.0492243
0.0486372
0.0475434
0.0464869
0.0445697
0.0456785
0.0473635
0.04864
0.0496775
0.0502944
0.050289
0.0496766
0.048651
0.047381
0.0456906
0.0460608
0.0477287
0.0492272
0.0502907
0.0509002
0.0509007
0.0502975
0.0492327
0.0477382
0.0460749
0.0460647
0.0477311
0.0492284
0.0502957
0.0509007
0.0509011
0.0502982
0.0492334
0.0477388
0.0460758
0.0456821
0.0473751
0.0486486
0.0496764
0.0502902
0.0502907
0.0496785
0.0486527
0.0473827
0.0456924
0.0445643
0.0464834
0.0475433
0.0486398
0.0492285
0.049229
0.0486416
0.047547
0.0464897
0.0445726
0.0440526
0.0459822
0.0464256
0.0473705
0.0477341
0.0477341
0.0473712
0.0464275
0.045986
0.0440572
0.0410935
0.0440301
0.0445609
0.0456878
0.0460723
0.0460719
0.0456878
0.0445606
0.044032
0.0410962
0.0452751
0.0483502
0.0490269
0.0502489
0.0506919
0.0506996
0.0502696
0.0490312
0.0483762
0.0453858
0.0483184
0.0501993
0.0510846
0.0522959
0.0527542
0.0527563
0.0522984
0.0510295
0.0502278
0.0484015
0.0490215
0.0510145
0.0524279
0.0539591
0.0546983
0.0546993
0.0539506
0.0524395
0.0511108
0.049049
0.0502628
0.0522954
0.0539516
0.0554283
0.0562444
0.0562394
0.0554311
0.0539685
0.0523214
0.0502849
0.0507033
0.0527616
0.0547024
0.05624
0.0571056
0.0571069
0.0562494
0.0547097
0.052772
0.0507189
0.0507096
0.0527656
0.0547056
0.0562475
0.0571062
0.0571061
0.0562494
0.0547099
0.0527722
0.0507204
0.050277
0.0523149
0.0539653
0.0554295
0.0562386
0.0562386
0.0554303
0.0539684
0.0523222
0.0502874
0.0490442
0.0511057
0.0524375
0.0539517
0.0547019
0.0547019
0.0539533
0.0524415
0.0511129
0.0490529
0.0484021
0.0502254
0.0510311
0.0523041
0.0527645
0.0527648
0.0523056
0.051035
0.0502325
0.0484066
0.0453839
0.0483706
0.0490336
0.0502783
0.0507133
0.050713
0.0502805
0.0490373
0.0483786
0.0453897
0.0478915
0.050232
0.0509538
0.0521252
0.0525661
0.0525707
0.0521396
0.0509585
0.0502468
0.0479761
0.0501859
0.0515708
0.0526672
0.053897
0.0543687
0.0543661
0.0538851
0.0525918
0.0515902
0.0502671
0.050944
0.052585
0.0539383
0.0554384
0.0561128
0.0561114
0.0554212
0.0539397
0.0526807
0.0509714
0.0521311
0.0538864
0.0554257
0.056854
0.0575803
0.0575729
0.0568521
0.0554356
0.0539018
0.0521442
0.0525719
0.0543684
0.0561118
0.0575733
0.0583406
0.0583402
0.0575781
0.0561108
0.0543671
0.0525761
0.0525775
0.0543714
0.0561151
0.0575805
0.0583392
0.0583369
0.0575762
0.0561097
0.0543662
0.0525774
0.0521458
0.0539035
0.0554374
0.0568506
0.0575669
0.0575649
0.0568453
0.0554309
0.0538999
0.0521463
0.0509748
0.0526812
0.0539397
0.0554192
0.056105
0.0561027
0.0554151
0.0539353
0.0526786
0.0509752
0.0502751
0.0515926
0.0525949
0.0538865
0.0543638
0.0543622
0.0538828
0.0525912
0.0515917
0.0502743
0.0479704
0.0502353
0.050956
0.052141
0.0525744
0.0525735
0.0521417
0.0509583
0.0502433
0.0479809
0.0489147
0.050394
0.0511035
0.0521098
0.0525147
0.0525168
0.0521159
0.0511001
0.0503908
0.0489573
0.0503457
0.0512952
0.0523815
0.0534522
0.0538977
0.0538948
0.0534361
0.0522993
0.0513156
0.0504181
0.0510884
0.0522925
0.0534574
0.0547534
0.0553158
0.0553146
0.0547363
0.0534593
0.0523941
0.0511178
0.0521089
0.0534358
0.0547373
0.0559678
0.0565597
0.0565521
0.0559671
0.0547503
0.0534527
0.0521197
0.0525172
0.0538941
0.0553117
0.0565508
0.0571535
0.0571534
0.056557
0.0553122
0.0538931
0.0525192
0.0525213
0.0538968
0.0553153
0.0565576
0.0571514
0.0571498
0.0565548
0.0553108
0.0538918
0.0525199
0.0521211
0.0534528
0.0547496
0.0559627
0.0565434
0.0565424
0.0559593
0.0547448
0.0534496
0.0521207
0.0511202
0.0523916
0.0534557
0.0547295
0.055304
0.0553027
0.0547276
0.0534533
0.0523902
0.05112
0.0504249
0.0513148
0.0522981
0.0534319
0.0538874
0.0538867
0.0534306
0.0522968
0.0513158
0.0504245
0.0489567
0.0503833
0.0510987
0.0521153
0.0525168
0.0525159
0.0521151
0.0510993
0.0503878
0.0489613
0.049411
0.0503141
0.050949
0.0517741
0.0521403
0.0521417
0.0517766
0.0509408
0.050301
0.049434
0.0502654
0.0509195
0.0518719
0.052772
0.0531877
0.0531851
0.0527538
0.0517849
0.0509423
0.0503357
0.0509281
0.0517739
0.0527722
0.0538938
0.0543831
0.0543819
0.0538779
0.0527776
0.0518845
0.0509638
0.0517669
0.0527467
0.0538733
0.0549522
0.055467
0.0554598
0.0549542
0.053893
0.052772
0.0517814
0.0521372
0.0531771
0.0543741
0.055456
0.055958
0.0559589
0.0554661
0.0543811
0.053184
0.0521439
0.0521394
0.0531798
0.0543782
0.0554629
0.055956
0.0559559
0.0554643
0.05438
0.0531829
0.052144
0.0517757
0.0527652
0.053887
0.0549471
0.0554507
0.0554511
0.054948
0.0538889
0.0527699
0.0517816
0.0509579
0.0518761
0.0527695
0.0538687
0.0543712
0.0543714
0.0538708
0.0527732
0.0518817
0.0509641
0.0503333
0.0509359
0.0517794
0.0527466
0.0531768
0.0531774
0.0527489
0.0517836
0.0509431
0.0503401
0.0494311
0.0502944
0.0509378
0.0517736
0.0521395
0.0521401
0.0517761
0.0509419
0.0503002
0.0494365
0.0500141
0.0505613
0.0510782
0.0517537
0.0520898
0.0520908
0.0517544
0.0510653
0.0505425
0.0500237
0.0505177
0.0509282
0.0517231
0.0524975
0.0528896
0.0528873
0.0524782
0.0516315
0.0509529
0.0505844
0.051053
0.0516188
0.0524944
0.053499
0.0539483
0.0539465
0.0534826
0.0525004
0.0517356
0.051092
0.0517447
0.0524707
0.0534781
0.0544559
0.054932
0.0549244
0.0544576
0.0534992
0.0524986
0.0517592
0.0520854
0.0528809
0.0539409
0.054922
0.0553683
0.055369
0.0549318
0.0539473
0.0528873
0.0520918
0.0520873
0.0528849
0.0539462
0.0549298
0.055367
0.0553668
0.0549305
0.0539464
0.0528864
0.0520916
0.051754
0.0524946
0.053496
0.0544529
0.0549174
0.0549174
0.0544527
0.053496
0.0524969
0.0517592
0.0510868
0.0517303
0.0524955
0.0534764
0.0539385
0.0539383
0.053477
0.0524969
0.0517331
0.0510914
0.0505818
0.0509487
0.0516281
0.0524731
0.0528809
0.0528812
0.0524741
0.0516303
0.050953
0.0505869
0.0500206
0.0505378
0.0510638
0.0517524
0.0520894
0.05209
0.0517544
0.0510674
0.0505432
0.0500258
0.050781
0.0511252
0.0514995
0.052056
0.052368
0.0523683
0.0520556
0.0514829
0.0511007
0.0507847
0.0510827
0.0512576
0.0519093
0.052598
0.0529711
0.0529683
0.0525762
0.0518116
0.0512812
0.0511481
0.0514732
0.0518003
0.052584
0.0535131
0.0539421
0.0539392
0.0534948
0.052589
0.0519201
0.0515129
0.0520502
0.0525714
0.0534925
0.0544049
0.0548643
0.0548559
0.0544053
0.0535127
0.0525985
0.0520609
0.0523673
0.0529661
0.053937
0.0548555
0.0552738
0.055274
0.0548641
0.053941
0.0529686
0.0523689
0.0523694
0.0529711
0.0539431
0.0548639
0.055273
0.0552724
0.0548629
0.0539401
0.0529677
0.0523682
0.0520608
0.0526004
0.0535136
0.0544035
0.0548508
0.05485
0.0544012
0.05351
0.0525971
0.0520602
0.0515116
0.0519208
0.0525885
0.0534921
0.0539335
0.0539324
0.05349
0.0525856
0.0519176
0.0515106
0.0511464
0.0512816
0.0518115
0.0525736
0.0529633
0.0529628
0.0525718
0.0518096
0.0512801
0.0511474
0.0507813
0.0510992
0.0514828
0.0520542
0.0523667
0.0523668
0.0520546
0.051484
0.051101
0.0507851
0.0515568
0.0518882
0.0521264
0.0525869
0.0528774
0.0528776
0.0525863
0.0521077
0.0518584
0.0515545
0.0518435
0.0517908
0.052321
0.0529485
0.0533067
0.0533041
0.0529269
0.0522217
0.0518175
0.0519117
0.052096
0.0522066
0.0529168
0.0537955
0.0542163
0.0542135
0.0537784
0.0529251
0.0523349
0.0521409
0.0525797
0.05292
0.0537738
0.0546454
0.0551014
0.0550934
0.054648
0.0537983
0.0529524
0.0525927
0.0528752
0.0533012
0.0542107
0.0550921
0.0555005
0.0555015
0.0551034
0.0542181
0.0533072
0.0528787
0.0528776
0.0533071
0.0542175
0.0551013
0.0555002
0.0555005
0.0551027
0.0542175
0.0533066
0.052878
0.0525915
0.0529528
0.0537977
0.0546457
0.0550891
0.055089
0.0546453
0.0537968
0.052952
0.0525924
0.0521386
0.0523349
0.0529239
0.0537759
0.0542094
0.0542091
0.0537755
0.0529233
0.052334
0.0521389
0.0519079
0.0518168
0.0522204
0.0529244
0.0533006
0.0533006
0.0529243
0.0522207
0.0518174
0.05191
0.051552
0.0518592
0.0521079
0.0525855
0.0528766
0.0528768
0.0525856
0.0521088
0.0518599
0.0515541
0.0521315
0.0527461
0.0528833
0.0532652
0.0535343
0.0535341
0.0532637
0.0528622
0.0527119
0.0521272
0.052697
0.0524476
0.0528743
0.0534524
0.0537968
0.0537936
0.0534286
0.0527704
0.0524747
0.0527679
0.0528483
0.0527531
0.0533969
0.0542378
0.0546553
0.054652
0.0542203
0.053407
0.0528883
0.0528973
0.0532555
0.0534198
0.0542144
0.0550579
0.055515
0.0555072
0.0550616
0.0542421
0.0534569
0.0532709
0.0535299
0.053789
0.0546482
0.055505
0.055911
0.0559125
0.0555184
0.0546585
0.0537984
0.0535357
0.0535323
0.0537954
0.0546555
0.0555148
0.055911
0.0559119
0.0555179
0.0546581
0.0537982
0.0535352
0.0532678
0.0534554
0.0542399
0.0550589
0.0555032
0.0555035
0.0550599
0.0542415
0.0534575
0.0532711
0.0528935
0.0528873
0.0534049
0.0542181
0.0546489
0.054649
0.0542188
0.0534063
0.0528889
0.0528963
0.0527622
0.0524729
0.0527682
0.0534263
0.053791
0.0537915
0.0534274
0.0527705
0.0524758
0.0527665
0.0521231
0.0527115
0.0528606
0.053262
0.053533
0.0535337
0.0532635
0.0528635
0.0527141
0.0521266
0.0522821
0.0535786
0.0536948
0.0540176
0.0542664
0.054266
0.054015
0.0536712
0.0535405
0.0522734
0.0535274
0.0531622
0.0534978
0.0540312
0.0543628
0.0543589
0.0540053
0.0533893
0.053189
0.053598
0.0536564
0.0533717
0.0539495
0.0547573
0.0551729
0.055169
0.0547386
0.0539595
0.0535116
0.0537071
0.0540065
0.0539973
0.0547333
0.0555537
0.0560125
0.0560042
0.0555573
0.0547619
0.054036
0.054022
0.0542618
0.0543558
0.0551663
0.0560026
0.0564082
0.0564095
0.056016
0.0551764
0.0543648
0.0542669
0.0542647
0.0543631
0.0551741
0.0560129
0.0564083
0.0564089
0.0560155
0.0551759
0.0543646
0.0542666
0.0540207
0.0540359
0.0547608
0.0555552
0.0560004
0.0560005
0.0555555
0.0547611
0.0540364
0.0540226
0.0537061
0.0535121
0.0539584
0.0547371
0.055166
0.0551659
0.0547369
0.0539584
0.053512
0.053707
0.0535951
0.0531883
0.0533874
0.0540033
0.0543566
0.0543568
0.0540037
0.0533883
0.0531893
0.053597
0.0522699
0.0535386
0.0536683
0.0540126
0.0542646
0.0542651
0.0540139
0.0536709
0.0535413
0.0522725
0.0520214
0.0542663
0.054502
0.0547935
0.0550249
0.0550236
0.0547878
0.0544729
0.0542217
0.0520102
0.0542107
0.0538928
0.0541492
0.0546387
0.0549563
0.0549509
0.0546078
0.0540319
0.0539144
0.0542797
0.0544598
0.0540174
0.0545262
0.0553023
0.0557149
0.0557097
0.0552805
0.0545336
0.0541585
0.0545098
0.0547808
0.0546018
0.055277
0.0560755
0.0565348
0.0565256
0.0560777
0.0553048
0.05464
0.0547941
0.0550201
0.0549485
0.0557078
0.0565247
0.0569301
0.056931
0.0565375
0.0557169
0.0549558
0.0550225
0.0550231
0.0549559
0.0557157
0.056535
0.0569299
0.0569302
0.0565368
0.0557163
0.0549555
0.0550222
0.0547954
0.0546416
0.0553047
0.0560762
0.0565216
0.0565213
0.0560756
0.0553036
0.05464
0.0547943
0.0545111
0.0541605
0.0545333
0.0552793
0.0557062
0.0557057
0.0552782
0.0545318
0.0541584
0.0545093
0.0542784
0.0539145
0.0540302
0.0546056
0.0549472
0.054947
0.0546048
0.0540295
0.0539135
0.054278
0.052007
0.0542192
0.0544685
0.0547836
0.0550198
0.0550199
0.0547841
0.0544699
0.0542203
0.0520083
0.051965
0.0546693
0.055244
0.0555542
0.0557773
0.0557751
0.0555449
0.0552083
0.0546175
0.0519468
0.0546117
0.0546062
0.0548042
0.0552503
0.0555537
0.0555474
0.0552164
0.0546805
0.0546242
0.0546778
0.0551978
0.0546679
0.0551049
0.0558487
0.0562574
0.0562517
0.0558257
0.0551116
0.054812
0.0552479
0.0555392
0.0552117
0.0558225
0.0565985
0.0570572
0.0570478
0.056601
0.0558516
0.0552516
0.0555527
0.0557716
0.0555458
0.0562503
0.0570469
0.0574518
0.057453
0.0570606
0.0562603
0.055554
0.0557741
0.0557746
0.0555538
0.0562587
0.0570578
0.0574519
0.0574523
0.0570602
0.0562599
0.0555538
0.0557738
0.055554
0.0552531
0.0558516
0.0565998
0.0570443
0.0570442
0.0565996
0.0558509
0.0552518
0.0555529
0.0552498
0.0548141
0.0551117
0.0558251
0.0562489
0.0562487
0.0558244
0.0551107
0.0548123
0.0552479
0.0546769
0.0546244
0.054679
0.0552148
0.0555445
0.0555444
0.0552145
0.0546788
0.0546238
0.0546764
0.051944
0.0546154
0.0552041
0.0555412
0.0557716
0.0557716
0.0555417
0.0552053
0.0546164
0.0519449
0.0543779
0.0546917
0.0558518
0.056263
0.0564973
0.0564945
0.056251
0.0558109
0.0546349
0.054349
0.0546329
0.0552684
0.0554511
0.0558575
0.0561465
0.0561398
0.0558212
0.0553219
0.0552837
0.0546962
0.0558035
0.0553106
0.0556765
0.0563876
0.056791
0.0567848
0.0563639
0.0556835
0.0554582
0.0558537
0.0562474
0.0558169
0.0563603
0.0571123
0.0575689
0.0575595
0.0571154
0.0563915
0.0558592
0.0562611
0.0564922
0.0561384
0.0567835
0.0575584
0.0579618
0.057963
0.0575731
0.0567949
0.0561477
0.0564947
0.0564951
0.056147
0.0567927
0.05757
0.0579621
0.0579627
0.0575728
0.0567947
0.0561477
0.0564946
0.0562623
0.0558607
0.0563915
0.0571147
0.0575566
0.0575565
0.0571147
0.0563913
0.0558598
0.0562613
0.0558556
0.0554607
0.0556841
0.0563642
0.0567832
0.056783
0.0563637
0.0556835
0.0554593
0.0558538
0.0546951
0.0552841
0.055321
0.0558205
0.0561378
0.0561379
0.0558206
0.0553214
0.0552841
0.0546949
0.0543447
0.0546333
0.0558071
0.056248
0.0564916
0.0564919
0.0562492
0.0558092
0.0546347
0.0543464
0.0636013
0.0544392
0.0562501
0.0568784
0.0571568
0.057154
0.056865
0.0562058
0.0543787
0.0635756
0.0543812
0.0558385
0.0560834
0.0564593
0.056735
0.0567283
0.0564223
0.0559507
0.0558523
0.0544397
0.0562005
0.0559395
0.0562425
0.0569205
0.0573173
0.0573111
0.0568969
0.0562507
0.0560914
0.0562506
0.0568624
0.0564178
0.0568926
0.0576185
0.0580717
0.0580623
0.0576225
0.0569259
0.0564628
0.0568766
0.0571521
0.0567274
0.05731
0.0580612
0.0584618
0.0584631
0.0580766
0.0573224
0.0567378
0.0571547
0.0571554
0.056737
0.0573201
0.0580735
0.0584623
0.0584628
0.0580764
0.0573221
0.0567377
0.0571547
0.0568784
0.0564645
0.0569262
0.057622
0.0580597
0.0580595
0.0576218
0.0569255
0.0564631
0.0568768
0.0562535
0.0560941
0.0562516
0.0568975
0.0573098
0.0573095
0.0568967
0.0562505
0.0560922
0.0562509
0.0544395
0.055853
0.0559499
0.0564217
0.0567267
0.0567266
0.0564217
0.05595
0.0558525
0.0544386
0.0635679
0.0543773
0.0562021
0.0568623
0.0571514
0.0571517
0.0568636
0.0562042
0.0543783
0.0635716
0.0429411
0.0545087
0.0563892
0.0573507
0.0577179
0.0577143
0.0573346
0.0563404
0.0544424
0.0430001
0.0544501
0.0562711
0.0566898
0.0570545
0.0573182
0.0573107
0.0570144
0.0565509
0.0562808
0.0545015
0.0563386
0.0565419
0.0568029
0.0574479
0.0578359
0.0578292
0.0574227
0.0568101
0.0566957
0.0563869
0.0573344
0.0570112
0.0574191
0.0581167
0.0585647
0.0585549
0.0581203
0.0574528
0.057057
0.0573475
0.0577146
0.0573111
0.0578288
0.0585542
0.0589504
0.0589515
0.0585694
0.0578408
0.0573205
0.0577152
0.0577181
0.0573215
0.0578397
0.058567
0.0589509
0.0589512
0.0585692
0.0578405
0.0573204
0.057715
0.0573515
0.0570608
0.0574546
0.0581208
0.0585526
0.058552
0.0581195
0.0574522
0.057057
0.0573471
0.0563916
0.0567007
0.0568128
0.0574244
0.0578282
0.0578274
0.0574223
0.0568096
0.0566961
0.0563866
0.0545027
0.0562835
0.0565517
0.0570148
0.0573091
0.0573085
0.0570133
0.0565495
0.0562803
0.0544996
0.0429981
0.0544418
0.0563378
0.0573323
0.0577112
0.057711
0.0573325
0.0563383
0.0544413
0.0430022
0.0243516
0.0564887
0.0563245
0.0576287
0.0581317
0.0581287
0.057613
0.0562763
0.0564193
0.0243716
0.0564281
0.0565371
0.0572425
0.0576321
0.0578903
0.0578834
0.057593
0.0571036
0.0565487
0.0564769
0.0562735
0.0570919
0.0573524
0.0579664
0.0583455
0.0583394
0.057943
0.0573634
0.0572531
0.0563244
0.0576118
0.0575876
0.0579364
0.0586046
0.0590471
0.059038
0.058611
0.0579752
0.0576395
0.0576293
0.0581289
0.0578829
0.0583374
0.0590358
0.0594274
0.0594296
0.0590541
0.0583537
0.0578969
0.0581329
0.0581335
0.0578945
0.0583491
0.0590492
0.0594282
0.0594295
0.0590543
0.0583538
0.057897
0.0581329
0.0576319
0.057641
0.0579745
0.0586099
0.0590355
0.059036
0.0586111
0.0579753
0.0576399
0.0576291
0.0563285
0.0572569
0.0573649
0.0579441
0.058339
0.0583389
0.0579438
0.0573639
0.057254
0.0563249
0.0564781
0.0565515
0.0571045
0.057594
0.0578832
0.057883
0.0575935
0.0571035
0.0565491
0.0564755
0.0243717
0.0564196
0.0562755
0.0576129
0.0581279
0.0581275
0.0576126
0.056275
0.0564186
0.0243723
0.0162061
0.062404
0.0563921
0.0577327
0.0583839
0.058382
0.0577203
0.0563507
0.062338
0.0162149
0.0623319
0.056713
0.0577136
0.0581852
0.0584485
0.0584425
0.0581488
0.0575791
0.0567331
0.0623938
0.0563386
0.0575571
0.0578872
0.0584762
0.058847
0.058842
0.0584569
0.0579069
0.0577326
0.0563976
0.0577106
0.0581331
0.0584422
0.0590818
0.059519
0.0595116
0.0590938
0.0584912
0.0581988
0.0577388
0.0583748
0.0584327
0.058833
0.0595048
0.0598922
0.0598963
0.0595294
0.0588594
0.0584595
0.0583891
0.0583801
0.0584452
0.0588452
0.0595183
0.0598928
0.0598962
0.0595297
0.0588597
0.0584598
0.0583893
0.0577329
0.0581893
0.0584817
0.0590871
0.0595068
0.0595094
0.0590942
0.058492
0.0581998
0.057739
0.0563941
0.057727
0.0579008
0.0584531
0.0588399
0.0588417
0.0584584
0.0579083
0.0577345
0.0563995
0.0623852
0.0567286
0.0575742
0.058146
0.0584412
0.0584426
0.0581502
0.0575801
0.0567345
0.0623932
0.016215
0.0623311
0.056347
0.0577181
0.0583805
0.0583811
0.0577202
0.0563489
0.0623361
0.0162152
0.012069
0.0518414
0.0574937
0.0578342
0.0585302
0.0585293
0.0578241
0.0574602
0.0518186
0.0120734
0.0518086
0.0570983
0.0580857
0.0587075
0.0589897
0.0589827
0.0586686
0.0579481
0.0571176
0.0518733
0.0574412
0.0579266
0.0584162
0.0589873
0.0593477
0.0593419
0.0589659
0.0584347
0.0581045
0.0575006
0.0578097
0.0586532
0.0589521
0.0595611
0.0599894
0.059981
0.0595716
0.0590006
0.0587202
0.0578409
0.0585182
0.0589722
0.0593328
0.0599746
0.0603539
0.0603575
0.0599981
0.059358
0.0589993
0.0585349
0.0585233
0.0589839
0.0593437
0.0599867
0.0603531
0.0603562
0.0599974
0.0593576
0.0589989
0.0585348
0.0578304
0.0587064
0.0589884
0.0595618
0.059973
0.0599755
0.0595693
0.0589991
0.0587192
0.0578403
0.0574902
0.0580916
0.0584231
0.0589571
0.0593345
0.0593368
0.0589636
0.0584332
0.0581036
0.0575026
0.0518788
0.0571042
0.0579366
0.0586599
0.0589761
0.0589782
0.0586663
0.0579463
0.0571161
0.0518691
0.0120735
0.0518292
0.0574434
0.0578142
0.0585228
0.058525
0.0578207
0.0574525
0.0518198
0.0120736
0.00979492
0.0318186
0.0611063
0.0584105
0.0587953
0.0587912
0.0583916
0.0610579
0.0318102
0.00979746
0.0318031
0.0583605
0.058357
0.0591809
0.0595009
0.0594894
0.0591288
0.0582009
0.0583567
0.0318411
0.0610531
0.058196
0.0589233
0.0594945
0.0598441
0.0598342
0.0594619
0.0589274
0.058358
0.0610875
0.0583866
0.0591255
0.0594591
0.0600387
0.060455
0.060443
0.0600394
0.0594947
0.0591779
0.0584019
0.0587858
0.0594856
0.0598312
0.0604415
0.0608098
0.0608102
0.0604563
0.0598437
0.0594976
0.0587878
0.0587887
0.0594956
0.0598405
0.0604522
0.0608075
0.0608076
0.0604543
0.0598419
0.0594956
0.0587861
0.0584
0.0591745
0.0594908
0.0600342
0.0604341
0.0604333
0.060033
0.0594887
0.059172
0.0583968
0.0610841
0.058352
0.0589211
0.0594552
0.0598234
0.0598225
0.0594531
0.0589188
0.0583497
0.061082
0.0318447
0.0583481
0.0581931
0.0591203
0.0594771
0.0594763
0.0591182
0.0581907
0.0583443
0.0318428
0.00979761
0.0318204
0.061034
0.0583762
0.0587771
0.0587777
0.0583786
0.0610355
0.0318177
0.00979767
0.00848966
0.0214577
0.0622551
0.060345
0.0597224
0.0597156
0.0603188
0.062206
0.0214549
0.00849111
0.0214496
0.0613172
0.0585831
0.059592
0.0599751
0.0599611
0.0595318
0.0584143
0.0612927
0.0214706
0.0622089
0.058421
0.0593916
0.0599984
0.0603438
0.0603315
0.0599586
0.0593855
0.0585708
0.0622642
0.0603226
0.0595372
0.0599635
0.0605218
0.0609277
0.0609137
0.0605168
0.0599912
0.0595805
0.0603247
0.0597152
0.0599639
0.0603344
0.0609165
0.0612748
0.0612736
0.0609267
0.0603398
0.0599671
0.0597079
0.0597182
0.0599753
0.0603453
0.0609286
0.061274
0.0612727
0.0609261
0.0603393
0.0599665
0.0597067
0.060336
0.059591
0.0599991
0.0605207
0.0609105
0.0609079
0.0605145
0.059989
0.0595782
0.0603225
0.0622763
0.0585817
0.0593929
0.0599622
0.0603274
0.0603249
0.0599549
0.0593818
0.0585679
0.0622607
0.0214704
0.0613081
0.0584213
0.0595342
0.0599554
0.0599527
0.0595267
0.0584097
0.0612901
0.0214713
0.00849117
0.0214583
0.0622181
0.0603148
0.0597075
0.0597054
0.0603086
0.0622249
0.0214588
0.00849123
0.00772292
0.0159181
0.044386
0.0637331
0.0621009
0.0620922
0.0637074
0.0443691
0.015918
0.00772374
0.0159144
0.0637488
0.0589448
0.0599468
0.0604008
0.0603862
0.0598848
0.0587732
0.0637403
0.0159257
0.0443558
0.0587835
0.0597902
0.0604829
0.0608332
0.06082
0.0604409
0.0597811
0.0589278
0.0444301
0.063711
0.0598935
0.0604488
0.0609963
0.0613922
0.0613779
0.0609905
0.0604754
0.0599355
0.0637199
0.0620933
0.0603931
0.0608264
0.0613824
0.0617304
0.0617291
0.0613931
0.0608322
0.0603959
0.0620867
0.0620968
0.060406
0.0608391
0.0613964
0.0617314
0.0617305
0.0613947
0.060834
0.0603981
0.0620885
0.0637287
0.0599522
0.060489
0.0609999
0.0613799
0.0613777
0.0609948
0.0604806
0.0599412
0.0637257
0.0444164
0.0589489
0.0597972
0.0604524
0.0608236
0.0608217
0.0604466
0.059788
0.0589376
0.0444145
0.0159245
0.0637562
0.0587883
0.0598948
0.0603883
0.0603865
0.05989
0.0587804
0.0637558
0.015925
0.00772377
0.0159189
0.0443725
0.0637148
0.0620915
0.0620894
0.0637113
0.0443891
0.0159192
0.00772375
0.00727013
0.0127373
0.0296439
0.0581863
0.0648211
0.0648147
0.0581734
0.0296337
0.0127378
0.00727047
0.0127358
0.0524607
0.0597466
0.060293
0.0607872
0.0607745
0.060237
0.0595866
0.0524956
0.0127414
0.0296274
0.0595878
0.0600804
0.0609253
0.0612965
0.0612851
0.0608885
0.0600795
0.0597392
0.0296649
0.0581589
0.0602394
0.0608905
0.0614461
0.0618347
0.0618224
0.0614463
0.0609258
0.0602913
0.0582145
0.0648037
0.060778
0.0612881
0.0618237
0.062162
0.0621627
0.0618402
0.0613018
0.0607895
0.0648185
0.0648099
0.0607916
0.0613016
0.0618385
0.0621634
0.0621643
0.0618419
0.0613034
0.0607914
0.0648193
0.0581946
0.0602994
0.0609325
0.0614514
0.0618234
0.0618229
0.0614507
0.0609307
0.0602959
0.0582016
0.0296586
0.0597515
0.0600892
0.0608964
0.0612884
0.0612878
0.0608945
0.0600861
0.0597479
0.0296554
0.0127408
0.0524824
0.0595927
0.0602427
0.0607761
0.0607756
0.0602418
0.0595907
0.0524909
0.0127408
0.00727062
0.0127383
0.0296351
0.058174
0.0648116
0.064812
0.0581862
0.0296425
0.0127385
0.00727052
0.00700818
0.0108324
0.0213983
0.0412541
0.0562859
0.0562814
0.0412425
0.0213921
0.0108331
0.00700828
0.0108321
0.0368266
0.0613781
0.0607807
0.061205
0.0611936
0.0607289
0.061228
0.0368438
0.0108346
0.0213896
0.0612227
0.0602546
0.0613182
0.0617305
0.0617203
0.0612853
0.060261
0.06138
0.021408
0.0412365
0.0607266
0.0612822
0.0618738
0.062258
0.0622469
0.0618784
0.061325
0.0607863
0.0412722
0.0562723
0.0611945
0.0617202
0.0622456
0.0625744
0.0625765
0.0622661
0.0617398
0.0612124
0.0562969
0.0562835
0.0612082
0.0617337
0.0622601
0.0625753
0.0625773
0.062267
0.0617404
0.061213
0.0562931
0.0412648
0.0607856
0.0613238
0.0618779
0.0622449
0.0622457
0.0618804
0.0613267
0.0607869
0.0412612
0.0214062
0.0613807
0.0602618
0.061287
0.0617202
0.0617207
0.061288
0.0602632
0.0613824
0.0214037
0.0108345
0.0368421
0.0612235
0.0607282
0.061192
0.0611926
0.0607299
0.0612258
0.0368439
0.0108344
0.00700851
0.0108336
0.0213938
0.0412449
0.0562817
0.0562861
0.0412548
0.0213972
0.0108337
0.00700839
0.00686716
0.0096634
0.016585
0.0291337
0.0401899
0.0401865
0.0291262
0.0165819
0.00966423
0.00686718
0.00966359
0.0266208
0.0634137
0.0616141
0.0618082
0.0617964
0.0615614
0.0632661
0.0266293
0.00966461
0.0165805
0.0632632
0.0603343
0.0616574
0.0621364
0.0621256
0.0616236
0.060341
0.0634175
0.0165902
0.029124
0.0615593
0.06162
0.0622859
0.062671
0.0626596
0.0622906
0.0616643
0.0616191
0.0291426
0.0401848
0.0617968
0.0621248
0.0626578
0.0629802
0.0629823
0.062679
0.0621457
0.0618157
0.040198
0.0401928
0.0618102
0.062138
0.0626718
0.0629803
0.0629825
0.0626794
0.0621459
0.061816
0.040195
0.0291404
0.0616165
0.0616605
0.0622878
0.0626557
0.0626569
0.0622912
0.0616647
0.0616189
0.0291368
0.0165895
0.0634142
0.0603386
0.0616225
0.0621231
0.062124
0.0616244
0.0603412
0.0634165
0.016588
0.00966472
0.02663
0.0632598
0.0615584
0.0617927
0.0617935
0.0615604
0.0632629
0.0266302
0.00966456
0.00686739
0.00966459
0.016583
0.0291281
0.0401886
0.0401919
0.0291336
0.0165849
0.00966464
0.0068673
0.00680568
0.00893687
0.0136424
0.0218691
0.029034
0.0290319
0.021865
0.0136412
0.00893776
0.00680572
0.00893733
0.020347
0.0610384
0.0629483
0.0627775
0.0627651
0.0628931
0.0608964
0.0203519
0.0089376
0.0136403
0.0608926
0.0603849
0.0619369
0.0625116
0.0625001
0.0619008
0.0603896
0.0610521
0.0136455
0.0218639
0.0628918
0.0618981
0.062686
0.063081
0.0630688
0.0626895
0.061942
0.0629505
0.0218745
0.0290319
0.0627653
0.0624992
0.0630673
0.0633894
0.0633912
0.0630881
0.0625199
0.0627841
0.0290392
0.0290367
0.0627783
0.062512
0.0630808
0.063389
0.063391
0.0630884
0.0625202
0.0627846
0.0290374
0.0218735
0.0629481
0.0619377
0.0626858
0.0630636
0.063065
0.0626896
0.0619422
0.062951
0.0218712
0.0136453
0.061048
0.0603863
0.0618982
0.0624956
0.0624968
0.0619008
0.0603893
0.0610469
0.0136443
0.00893775
0.0203527
0.0608937
0.0628887
0.0627599
0.0627608
0.0628911
0.0608996
0.0203525
0.00893762
0.00680586
0.00893802
0.0136419
0.0218661
0.0290334
0.0290354
0.0218693
0.013643
0.00893803
0.00680581
0.00679797
0.00848533
0.0117927
0.0173839
0.0221648
0.0221636
0.0173817
0.0117925
0.00848622
0.00679803
0.00848589
0.0163785
0.0494318
0.0643426
0.0642119
0.0641986
0.0642869
0.0493433
0.0163815
0.00848581
0.0117919
0.0493358
0.0605334
0.0621478
0.062843
0.0628304
0.0621089
0.0605345
0.0494509
0.0117946
0.0173809
0.0642877
0.0621083
0.0630678
0.0634835