/*--------------------------------*- C++ -*----------------------------------*\
| =========                 |                                                 |
| \\      /  F ield         | OpenFOAM: The Open Source CFD Toolbox           |
|  \\    /   O peration     | Version:  2406                                  |
|   \\  /    A nd           | Website:  www.openfoam.com                      |
|    \\/     M anipulation  |                                                 |
\*---------------------------------------------------------------------------*/
FoamFile
{
    version     2.0;
    format      ascii;
    arch        "LSB;label=32;scalar=64";
    class       volScalarField;
    location    "350";
    object      turbulenceProperties:I;
}
// * * * * * * * * * * * * * * * * * * * * * * * * * * * * * * * * * * * * * //

dimensions      [0 0 0 0 0 0 0];

internalField   nonuniform List<scalar> 
25000
(
0.00500306
0.00488303
0.00466216
0.00462381
0.00460343
0.00460371
0.00462484
0.00466527
0.00487454
0.00498705
0.0048839
0.00480127
0.00459299
0.00448029
0.00442467
0.00442507
0.00448155
0.00459639
0.00480412
0.00487448
0.0046627
0.00459433
0.00442667
0.00432252
0.00427101
0.0042713
0.00432353
0.0044282
0.00459542
0.00466561
0.00462407
0.00448049
0.0043227
0.00421731
0.00416418
0.00416446
0.0042179
0.0043235
0.0044817
0.00462525
0.00460357
0.00442477
0.00427102
0.00416424
0.00411029
0.00411042
0.00416453
0.00427157
0.00442544
0.0046042
0.00460377
0.00442505
0.00427125
0.00416432
0.00411038
0.00411046
0.00416455
0.00427157
0.00442543
0.00460418
0.00462487
0.00448145
0.00432331
0.0042178
0.00416454
0.0041646
0.00421795
0.00432351
0.00448167
0.00462519
0.00466528
0.00459525
0.00442807
0.00432351
0.00427148
0.00427152
0.00432362
0.00442821
0.00459539
0.00466553
0.00487418
0.00480396
0.00459629
0.00448158
0.00442534
0.00442537
0.00448166
0.00459641
0.00480408
0.0048744
0.00498704
0.00487495
0.00466559
0.00462518
0.00460415
0.00460415
0.00462517
0.00466555
0.00487479
0.00498715
0.00580507
0.00570025
0.00548729
0.00544945
0.00542903
0.00542937
0.00545102
0.00549204
0.00567988
0.00575971
0.005703
0.00553462
0.00542291
0.0053772
0.00534737
0.00534791
0.00537882
0.00542862
0.00553657
0.00567947
0.00548954
0.00542702
0.00533125
0.00529234
0.00527138
0.0052717
0.00529358
0.0053326
0.00542556
0.00549263
0.00545068
0.0053782
0.00529314
0.00524706
0.00522328
0.00522373
0.00524751
0.00529335
0.00537901
0.00545185
0.00542992
0.00534824
0.00527183
0.0052237
0.00520081
0.00520089
0.0052237
0.00527216
0.00534858
0.00543027
0.00542996
0.00534851
0.00527214
0.00522371
0.00520099
0.00520104
0.00522378
0.0052722
0.00534863
0.00543025
0.00545145
0.00537924
0.00529358
0.00524781
0.00522413
0.00522413
0.00524778
0.00529352
0.0053791
0.00545178
0.00549207
0.00542595
0.00533303
0.00529408
0.00527238
0.00527235
0.00529398
0.00533283
0.00542571
0.00549251
0.00567859
0.00553699
0.00542909
0.00537942
0.00534874
0.00534871
0.00537934
0.00542892
0.00553673
0.0056792
0.00576014
0.00568108
0.00549302
0.00545198
0.00543033
0.00543028
0.00545178
0.00549269
0.00568047
0.00576
0.00546733
0.00527305
0.00514897
0.00508419
0.00505514
0.00505522
0.00508525
0.00515169
0.00526624
0.00544019
0.0052756
0.00509529
0.00504926
0.00501506
0.00499021
0.00499052
0.00501633
0.00505558
0.00509708
0.00526497
0.00515067
0.00505416
0.00498606
0.00494998
0.00492698
0.00492723
0.00495116
0.00498689
0.00505119
0.00515174
0.00508506
0.00501589
0.00495082
0.00491197
0.00488784
0.00488836
0.00491235
0.00495067
0.00501619
0.00508569
0.00505591
0.00499078
0.00492728
0.0048883
0.00486802
0.0048681
0.00488815
0.0049275
0.00499091
0.00505568
0.00505582
0.00499099
0.00492751
0.00488815
0.00486816
0.0048682
0.0048882
0.00492753
0.00499094
0.00505567
0.00508575
0.00501651
0.00495087
0.00491256
0.00488865
0.00488865
0.00491253
0.00495078
0.00501627
0.00508565
0.00515166
0.00505166
0.00498727
0.00495154
0.0049277
0.00492767
0.00495143
0.00498706
0.00505131
0.00515167
0.00526457
0.00509753
0.00505601
0.0050168
0.00499108
0.00499104
0.00501668
0.0050558
0.00509717
0.00526478
0.00544038
0.00526711
0.00515234
0.00508585
0.00505577
0.00505571
0.00508567
0.00515208
0.0052666
0.0054403
0.00470777
0.00443464
0.00437361
0.00429343
0.00426478
0.00426475
0.00429431
0.00437721
0.00443227
0.0046903
0.00443696
0.00426662
0.0042458
0.004202
0.00417913
0.00417929
0.004203
0.00425195
0.00426814
0.00443026
0.00437519
0.00425092
0.0041851
0.00413362
0.00410372
0.00410394
0.00413475
0.00418553
0.00424709
0.00437657
0.00429398
0.00420275
0.00413439
0.00408699
0.00405685
0.00405737
0.00408736
0.00413404
0.0042024
0.00429416
0.00426528
0.00417944
0.00410387
0.00405724
0.00403131
0.00403138
0.00405699
0.00410386
0.00417923
0.00426468
0.00426517
0.0041795
0.00410396
0.004057
0.00403138
0.0040314
0.004057
0.00410385
0.00417922
0.00426466
0.00429463
0.00420271
0.00413415
0.00408739
0.00405744
0.00405745
0.00408735
0.00413402
0.00420237
0.00429411
0.00437695
0.00424737
0.00418562
0.00413478
0.004104
0.00410399
0.00413474
0.00418548
0.00424704
0.00437645
0.00443043
0.00426826
0.00425195
0.00420298
0.00417934
0.00417934
0.00420297
0.0042519
0.00426807
0.00443016
0.00469062
0.00443247
0.00437725
0.00429432
0.00426477
0.00426473
0.00429418
0.00437708
0.00443215
0.00469016
0.00408316
0.00380395
0.00375867
0.00367043
0.00364089
0.00364058
0.00367011
0.00376076
0.00380303
0.00407196
0.00380596
0.00364594
0.00361004
0.0035449
0.0035195
0.00351943
0.0035451
0.00361469
0.00364553
0.00380069
0.00375979
0.00361489
0.00353379
0.0034558
0.00341655
0.0034166
0.00345655
0.00353347
0.00360956
0.00375945
0.00367016
0.00354519
0.00345636
0.00338691
0.0033467
0.00334708
0.00338697
0.00345554
0.00354385
0.00366917
0.0036407
0.00351926
0.0034164
0.00334697
0.00330835
0.00330831
0.00334649
0.00341601
0.00351856
0.00363958
0.00364039
0.00351908
0.00341632
0.00334661
0.00330832
0.00330829
0.00334645
0.00341596
0.00351851
0.00363951
0.00366986
0.0035443
0.00345572
0.00338698
0.003347
0.00334697
0.00338684
0.00345542
0.00354373
0.00366903
0.00375991
0.00360983
0.00353348
0.00345637
0.00341631
0.00341628
0.00345624
0.00353321
0.00360934
0.00375921
0.00380086
0.00364555
0.00361445
0.00354466
0.00351886
0.00351886
0.00354461
0.00361431
0.00364524
0.00380046
0.00407196
0.00380279
0.0037602
0.0036694
0.00363978
0.00363982
0.0036694
0.00376023
0.00380262
0.00407169
0.00368258
0.00344864
0.00340267
0.00332136
0.00329312
0.00329262
0.00332
0.00340237
0.00344675
0.00367362
0.00345087
0.00332433
0.00326958
0.00319586
0.00316913
0.00316901
0.00319573
0.00327321
0.00332245
0.003445
0.00340305
0.00327417
0.0031893
0.00310096
0.00306018
0.00306012
0.00310147
0.00318859
0.00326791
0.00340115
0.00332045
0.00319591
0.00310141
0.00302117
0.0029785
0.00297878
0.00302102
0.00310042
0.00319431
0.00331899
0.00329238
0.00316869
0.00305995
0.00297875
0.00293489
0.00293482
0.00297823
0.00305954
0.00316807
0.00329137
0.00329198
0.00316845
0.00305977
0.00297834
0.00293486
0.00293486
0.00297824
0.00305953
0.00316806
0.00329128
0.00331951
0.00319471
0.00310061
0.00302111
0.00297883
0.00297883
0.00302106
0.00310043
0.00319426
0.00331883
0.00340148
0.00326824
0.00318872
0.00310142
0.00305998
0.00305999
0.00310133
0.00318847
0.00326778
0.00340088
0.00344496
0.00332262
0.00327311
0.00319538
0.00316852
0.0031685
0.00319529
0.00327286
0.00332215
0.00344464
0.00367378
0.00344715
0.00340221
0.00331943
0.00329174
0.00329176
0.00331929
0.00340196
0.00344658
0.00367331
0.00347116
0.00330746
0.00326124
0.00318896
0.00316282
0.00316255
0.00318808
0.00326092
0.00330642
0.00346507
0.00331042
0.00322291
0.00315814
0.00308784
0.00306198
0.00306213
0.00308854
0.00316271
0.00322171
0.00330516
0.00326185
0.00316312
0.0030868
0.00300528
0.00297023
0.0029703
0.00300624
0.00308672
0.00315733
0.00326012
0.0031886
0.00308846
0.003006
0.00293273
0.00289685
0.00289724
0.00293282
0.00300544
0.00308757
0.0031878
0.00316248
0.00306201
0.00297028
0.00289722
0.00286037
0.00286038
0.00289696
0.00297034
0.00306208
0.00316223
0.00316214
0.00306184
0.00297011
0.00289685
0.00286044
0.00286055
0.00289706
0.00297039
0.00306213
0.00316215
0.00318771
0.00308747
0.00300534
0.0029329
0.00289755
0.00289765
0.00293318
0.00300569
0.00308768
0.00318768
0.00325991
0.0031573
0.00308672
0.00300636
0.00297065
0.00297077
0.00300658
0.00308697
0.00315746
0.00325988
0.00330464
0.00322157
0.00316253
0.00308846
0.00306227
0.00306236
0.00308868
0.00316275
0.00322163
0.00330469
0.00346548
0.00330718
0.00326109
0.003188
0.00316233
0.00316239
0.00318796
0.00326094
0.00330665
0.00346472
0.00338873
0.00328473
0.00323865
0.00317668
0.00315263
0.00315251
0.00317631
0.00323884
0.00328483
0.0033858
0.00328776
0.00322678
0.00316166
0.00309992
0.00307516
0.00307534
0.00310086
0.00316663
0.0032255
0.00328318
0.00323958
0.00316703
0.00310081
0.00302939
0.00299964
0.00299971
0.00303036
0.0031007
0.0031609
0.00323775
0.00317673
0.00310088
0.0030303
0.00296591
0.002936
0.00293642
0.00296594
0.00302956
0.00309989
0.00317608
0.00315249
0.00307537
0.00299987
0.00293649
0.00290679
0.0029068
0.00293614
0.00299983
0.00307543
0.00315237
0.00315224
0.00307522
0.00299967
0.00293612
0.0029069
0.00290698
0.00293626
0.00299991
0.0030755
0.00315233
0.003176
0.00309989
0.0030296
0.00296618
0.00293687
0.00293692
0.00296636
0.00302987
0.00310007
0.00317602
0.00323761
0.00316105
0.00310092
0.00303074
0.00300028
0.00300036
0.00303084
0.00310105
0.00316114
0.00323762
0.00328274
0.00322556
0.0031667
0.00310111
0.00307576
0.0030758
0.00310118
0.00316678
0.00322549
0.00328276
0.00338585
0.00328532
0.00323893
0.00317635
0.00315252
0.00315257
0.00317636
0.00323889
0.00328503
0.00338552
0.00334497
0.00327754
0.00323493
0.00318341
0.0031613
0.00316122
0.00318325
0.0032354
0.00327824
0.00334344
0.00328054
0.00323646
0.00317822
0.0031254
0.00310177
0.00310192
0.00312648
0.00318351
0.00323502
0.00327615
0.0032362
0.00318418
0.00312645
0.0030633
0.00303678
0.00303686
0.00306423
0.00312613
0.00317746
0.003234
0.00318385
0.0031269
0.00306448
0.00300655
0.0029798
0.0029802
0.00300644
0.00306335
0.0031254
0.00318296
0.00316149
0.00310239
0.00303729
0.0029804
0.00295498
0.00295493
0.00297984
0.00303689
0.00310199
0.00316108
0.00316135
0.00310223
0.00303706
0.00298002
0.00295508
0.00295509
0.00297994
0.00303695
0.00310205
0.00316108
0.00318331
0.0031258
0.00306369
0.00300683
0.00298069
0.00298067
0.00300678
0.00306358
0.00312552
0.00318295
0.00323437
0.00317797
0.00312661
0.00306475
0.00303745
0.00303744
0.00306463
0.00312639
0.00317763
0.00323398
0.0032763
0.00323543
0.00318385
0.0031269
0.00310241
0.00310237
0.00312677
0.00318359
0.00323497
0.00327586
0.00334364
0.00327867
0.00323559
0.00318344
0.00316135
0.00316131
0.00318328
0.00323533
0.00327829
0.00334327
0.00329538
0.00324931
0.0032132
0.00317066
0.00315021
0.00315014
0.00317061
0.00321394
0.00325033
0.00329477
0.00325191
0.00322166
0.00317258
0.00312688
0.0031044
0.00310454
0.00312803
0.0031781
0.00322011
0.00324785
0.00321471
0.00317887
0.00312795
0.00307104
0.00304647
0.00304657
0.003072
0.0031276
0.00317182
0.00321234
0.0031712
0.00312847
0.00307225
0.00301926
0.00299425
0.00299468
0.00301917
0.00307103
0.00312682
0.00317033
0.00315047
0.00310491
0.00304689
0.00299481
0.00297199
0.00297195
0.00299425
0.00304652
0.00310454
0.00315008
0.00315035
0.00310468
0.00304659
0.00299437
0.00297206
0.00297207
0.00299433
0.00304657
0.00310459
0.0031501
0.00317064
0.00312705
0.00307121
0.00301943
0.00299506
0.00299506
0.00301944
0.00307122
0.00312692
0.00317032
0.00321267
0.00317214
0.00312789
0.00307235
0.00304703
0.00304704
0.00307232
0.00312781
0.00317197
0.00321238
0.00324801
0.00322037
0.00317831
0.00312833
0.00310491
0.00310489
0.00312827
0.00317818
0.0032201
0.00324769
0.00329497
0.00325063
0.00321404
0.00317073
0.00315023
0.00315019
0.00317061
0.00321381
0.00325029
0.00329463
0.00323693
0.0032019
0.00317383
0.00313857
0.0031196
0.00311958
0.00313858
0.00317476
0.0032032
0.00323672
0.00320431
0.00318706
0.00314659
0.00310615
0.00308484
0.003085
0.00310742
0.00315236
0.00318561
0.00320048
0.00317534
0.00315304
0.00310765
0.00305536
0.00303201
0.00303217
0.00305641
0.00310736
0.00314595
0.00317301
0.00313891
0.0031077
0.00305654
0.00300736
0.00298331
0.00298378
0.00300734
0.00305538
0.00310612
0.00313828
0.00311963
0.00308513
0.0030323
0.0029838
0.00296253
0.00296252
0.00298332
0.00303207
0.00308499
0.00311954
0.00311951
0.00308484
0.00303195
0.00298333
0.00296257
0.0029626
0.00298338
0.00303212
0.00308504
0.00311959
0.00313829
0.00310601
0.00305533
0.00300744
0.00298406
0.00298411
0.00300756
0.00305554
0.00310621
0.00313832
0.00317309
0.00314591
0.00310739
0.00305657
0.0030325
0.00303256
0.00305669
0.00310756
0.00314609
0.00317315
0.00320059
0.00318558
0.00315237
0.00310757
0.0030853
0.00308533
0.00310768
0.00315248
0.00318568
0.00320053
0.00323693
0.00320329
0.00317476
0.00313867
0.00311967
0.00311967
0.00313865
0.00317468
0.00320318
0.0032367
0.00317982
0.00314402
0.00312327
0.00309381
0.00307623
0.00307622
0.00309383
0.00312426
0.00314554
0.00317999
0.00314643
0.00314097
0.00310769
0.00307121
0.003051
0.00305114
0.00307244
0.00311338
0.00313936
0.00314261
0.00312495
0.00311427
0.00307347
0.00302474
0.00300213
0.00300229
0.00302571
0.00307299
0.00310688
0.00312241
0.00309421
0.00307284
0.00302596
0.00297963
0.00295607
0.0029565
0.00297949
0.00302458
0.00307099
0.00309348
0.00307635
0.0030513
0.00300245
0.00295658
0.0029361
0.00293605
0.00295596
0.00300204
0.00305097
0.00307615
0.00307622
0.00305097
0.00300207
0.00295607
0.00293611
0.0029361
0.002956
0.00300207
0.003051
0.00307619
0.00309355
0.00307097
0.00302462
0.00297962
0.00295674
0.00295675
0.00297964
0.00302467
0.00307102
0.0030935
0.00312255
0.00310688
0.00307306
0.00302585
0.00300252
0.00300254
0.00302587
0.0030731
0.00310694
0.00312253
0.00314284
0.00313941
0.00311346
0.00307259
0.00305134
0.00305134
0.00307259
0.00311344
0.00313937
0.00314271
0.00318014
0.00314549
0.00312425
0.00309388
0.00307627
0.00307626
0.00309387
0.0031242
0.00314545
0.00318002
0.00313596
0.00308282
0.00306696
0.00304206
0.00302585
0.00302586
0.00304212
0.00306803
0.0030845
0.00313624
0.00308535
0.00308909
0.00306165
0.00302843
0.00300928
0.00300945
0.00302974
0.00306739
0.00308751
0.00308157
0.00306882
0.00306838
0.0030317
0.00298593
0.0029639
0.00296408
0.0029869
0.00303114
0.00306085
0.00306616
0.00304259
0.00303023
0.00298722
0.00294322
0.00292002
0.00292044
0.00294302
0.0029857
0.00302818
0.00304175
0.0030261
0.00300971
0.00296429
0.00292055
0.00290058
0.0029005
0.00291984
0.00296373
0.0030092
0.00302578
0.00302597
0.00300936
0.00296389
0.00292003
0.00290058
0.00290053
0.00291987
0.00296375
0.00300921
0.00302581
0.00304192
0.00302826
0.00298582
0.00294316
0.00292066
0.00292064
0.00294311
0.00298573
0.00302815
0.00304173
0.00306638
0.0030609
0.00303125
0.00298702
0.00296426
0.00296425
0.00298698
0.00303118
0.00306081
0.00306622
0.00308189
0.00308761
0.00306751
0.00302987
0.0030096
0.00300957
0.00302981
0.00306739
0.00308745
0.00308165
0.00313649
0.00308453
0.00306812
0.00304222
0.00302592
0.00302589
0.00304214
0.00306795
0.00308438
0.00313628
0.00311638
0.00302538
0.00300975
0.00298808
0.00297312
0.00297314
0.00298819
0.00301089
0.00302718
0.00311692
0.0030279
0.00303577
0.0030131
0.00298275
0.0029646
0.0029648
0.00298412
0.00301888
0.00303426
0.0030243
0.00301171
0.00301986
0.00298708
0.00294398
0.00292247
0.00292268
0.00294497
0.00298654
0.00301233
0.00300908
0.00298865
0.00298456
0.00294526
0.00290332
0.00288051
0.00288095
0.00290314
0.00294373
0.0029825
0.00298785
0.00297337
0.00296497
0.00292282
0.00288103
0.00286149
0.00286142
0.00288033
0.00292229
0.0029645
0.0029731
0.00297322
0.00296459
0.00292241
0.00288049
0.00286149
0.00286146
0.00288036
0.00292232
0.00296451
0.00297312
0.00298791
0.0029825
0.00294379
0.00290325
0.00288115
0.00288114
0.00290324
0.00294378
0.00298247
0.00298781
0.00300913
0.0030123
0.0029866
0.00294506
0.00292284
0.00292285
0.00294507
0.0029866
0.00301231
0.00300909
0.00302446
0.0030343
0.00301898
0.00298423
0.00296493
0.00296492
0.00298422
0.00301893
0.00303424
0.00302436
0.00311713
0.00302728
0.00301106
0.00298833
0.00297322
0.00297319
0.00298825
0.00301091
0.00302713
0.00311698
0.00311798
0.00297759
0.00295497
0.00293485
0.00292091
0.00292097
0.00293511
0.00295634
0.00297966
0.00311868
0.00298025
0.00298351
0.00296463
0.00293695
0.0029198
0.00292008
0.00293853
0.00297066
0.00298233
0.00297688
0.00295704
0.00297145
0.00294248
0.00290185
0.00288091
0.00288118
0.00290298
0.00294209
0.00296413
0.00295456
0.00293548
0.00293885
0.00290316
0.00286316
0.00284079
0.00284126
0.00286304
0.00290172
0.00293688
0.00293482
0.00292116
0.00292021
0.00288128
0.00284131
0.00282218
0.00282213
0.00284065
0.00288081
0.00291984
0.00292105
0.00292101
0.00291983
0.00288088
0.00284078
0.00282219
0.00282217
0.00284069
0.00288085
0.00291986
0.00292107
0.00293475
0.0029368
0.00290173
0.00286312
0.00284146
0.00284148
0.00286315
0.00290179
0.00293688
0.00293481
0.00295449
0.00296402
0.00294211
0.00290304
0.00288137
0.00288139
0.0029031
0.00294219
0.00296414
0.00295459
0.00297695
0.00298233
0.00297076
0.00293865
0.00292028
0.00292029
0.0029387
0.0029708
0.00298239
0.00297697
0.00311887
0.0029798
0.00295658
0.00293533
0.00292118
0.00292117
0.00293531
0.0029565
0.00297974
0.0031188
0.00310169
0.00294563
0.00290551
0.00288433
0.0028709
0.002871
0.00288476
0.00290715
0.00294802
0.00310282
0.00294832
0.00293403
0.00291759
0.00289236
0.00287618
0.00287649
0.00289405
0.00292374
0.00293308
0.00294519
0.00290769
0.0029244
0.00289912
0.00286084
0.00284048
0.00284077
0.002862
0.00289877
0.00291719
0.00290532
0.00288505
0.00289429
0.00286216
0.002824
0.00280211
0.00280258
0.00282388
0.00286069
0.0028923
0.00288442
0.00287118
0.00287657
0.00284084
0.00280262
0.0027839
0.00278384
0.00280194
0.00284034
0.00287617
0.00287107
0.00287104
0.00287617
0.00284042
0.00280208
0.0027839
0.00278388
0.00280197
0.00284036
0.00287618
0.00287108
0.00288435
0.00289222
0.00286069
0.00282394
0.00280275
0.00280276
0.00282395
0.00286073
0.00289229
0.0028844
0.00290522
0.00291708
0.00289877
0.00286203
0.00284091
0.00284092
0.00286207
0.00289882
0.00291717
0.00290532
0.00294523
0.00293307
0.00292382
0.00289413
0.00287664
0.00287665
0.00289415
0.00292383
0.0029331
0.00294527
0.00310298
0.00294813
0.00290737
0.00288495
0.00287119
0.00287118
0.00288493
0.00290731
0.00294808
0.00310293
0.00293932
0.00293286
0.00286426
0.00283812
0.00282421
0.00282434
0.00283866
0.00286609
0.00293549
0.00294091
0.00293559
0.0028888
0.00287251
0.00284939
0.0028341
0.00283442
0.00285113
0.00287871
0.00288802
0.00293264
0.00286646
0.00287929
0.0028574
0.00282135
0.00280159
0.00280189
0.0028225
0.00285705
0.00287216
0.00286417
0.00283883
0.00285135
0.00282268
0.00278634
0.00276495
0.00276541
0.00278619
0.00282116
0.0028493
0.00283822
0.00282445
0.00283449
0.00280196
0.00276546
0.00274716
0.0027471
0.00276475
0.0028014
0.00283404
0.00282434
0.00282432
0.00283407
0.00280151
0.0027649
0.00274715
0.00274712
0.00276477
0.00280142
0.00283404
0.00282435
0.00283816
0.00284922
0.00282115
0.00278622
0.00276555
0.00276555
0.00278622
0.00282116
0.00284927
0.00283821
0.00286407
0.00287203
0.00285702
0.00282249
0.00280197
0.00280198
0.00282251
0.00285705
0.0028721
0.00286416
0.0029327
0.002888
0.00287876
0.00285117
0.00283452
0.00283451
0.00285116
0.00287874
0.002888
0.0029327
0.00294114
0.00293558
0.00286629
0.00283881
0.00282448
0.00282447
0.00283875
0.00286618
0.00293551
0.00294105
0.00248887
0.00293221
0.00283404
0.00279778
0.00278189
0.00278202
0.00279837
0.00283599
0.00293508
0.00248991
0.00293493
0.00284945
0.00282959
0.00280797
0.00279347
0.00279378
0.00280969
0.00283573
0.00284876
0.00293221
0.00283625
0.0028363
0.00281717
0.00278322
0.00276409
0.00276438
0.00278433
0.00281677
0.00282919
0.00283402
0.00279849
0.00280991
0.00278454
0.00275
0.00272915
0.00272959
0.00274981
0.00278296
0.0028078
0.00279788
0.00278211
0.00279382
0.00276443
0.00272964
0.0027118
0.00271174
0.00272892
0.00276385
0.00279334
0.002782
0.00278196
0.00279337
0.00276396
0.00272907
0.00271178
0.00271175
0.00272893
0.00276386
0.00279334
0.002782
0.00279779
0.00280772
0.00278294
0.00274983
0.00272972
0.00272973
0.00274984
0.00278297
0.00280779
0.00279787
0.00283388
0.00282906
0.00281672
0.0027843
0.00276444
0.00276446
0.00278434
0.00281678
0.00282916
0.00283401
0.00293222
0.00284873
0.00283578
0.00280972
0.00279386
0.00279386
0.00280972
0.00283577
0.00284876
0.00293227
0.00249021
0.00293516
0.00283617
0.0027985
0.00278214
0.00278213
0.00279844
0.00283607
0.0029351
0.00249006
0.00365866
0.00291061
0.00281621
0.0027651
0.00274531
0.00274547
0.00276579
0.00281835
0.00291379
0.00365366
0.00291336
0.00281759
0.00278922
0.0027681
0.00275427
0.00275461
0.00276991
0.00279545
0.00281712
0.00291102
0.00281844
0.00279589
0.00277835
0.00274637
0.00272793
0.00272824
0.00274753
0.00277801
0.00278893
0.00281634
0.00276579
0.00277006
0.0027477
0.00271494
0.00269468
0.00269513
0.00271478
0.00274614
0.00276799
0.00276526
0.00274545
0.00275458
0.00272825
0.00269516
0.00267781
0.00267776
0.00269447
0.0027277
0.00275417
0.00274545
0.0027453
0.00275411
0.00272775
0.00269458
0.00267779
0.00267778
0.00269448
0.00272771
0.00275417
0.00274545
0.00276506
0.0027678
0.00274605
0.00271475
0.00269524
0.00269527
0.00271482
0.00274616
0.00276799
0.00276527
0.00281611
0.00278868
0.00277788
0.00274744
0.00272828
0.00272832
0.00274755
0.00277803
0.00278891
0.00281635
0.00291095
0.00281699
0.00279541
0.00276989
0.00275468
0.00275471
0.00276997
0.00279552
0.00281715
0.00291112
0.00365383
0.00291383
0.00281849
0.0027659
0.00274561
0.00274562
0.00276589
0.00281846
0.00291385
0.00365348
0.00645675
0.00278789
0.00280698
0.00274169
0.00271615
0.00271627
0.00274235
0.00280909
0.00279105
0.00645138
0.0027906
0.00279384
0.0027525
0.0027302
0.00271669
0.00271699
0.0027319
0.00275853
0.00279328
0.0027885
0.00280922
0.0027591
0.00274113
0.0027109
0.0026931
0.00269337
0.00271194
0.00274061
0.002752
0.002807
0.0027424
0.00273215
0.00271224
0.00268123
0.00266153
0.00266193
0.00268094
0.00271049
0.00272986
0.00274167
0.00271626
0.00271701
0.00269347
0.00266203
0.00264515
0.00264505
0.00266121
0.00269273
0.00271639
0.0027161
0.00271607
0.0027165
0.00269294
0.00266143
0.00264511
0.00264506
0.00266121
0.00269273
0.00271639
0.0027161
0.00274155
0.00272979
0.00271052
0.00268098
0.00266205
0.00266203
0.00268093
0.00271048
0.00272984
0.00274168
0.00280679
0.00275182
0.00274054
0.00271189
0.00269339
0.00269339
0.0027119
0.00274059
0.00275195
0.00280697
0.00278844
0.00279314
0.0027585
0.00273185
0.00271699
0.002717
0.00273187
0.00275854
0.00279326
0.00278857
0.00645136
0.00279104
0.00280913
0.00274235
0.00271631
0.00271632
0.00274237
0.00280916
0.00279109
0.00645119
0.00987231
0.00250372
0.00278877
0.00272577
0.00269436
0.00269443
0.00272626
0.00279054
0.00250624
0.00986647
0.00250647
0.0027736
0.00272043
0.00269446
0.00268078
0.00268103
0.00269597
0.00272609
0.00277264
0.00250416
0.00279113
0.00272712
0.00270559
0.00267673
0.00265951
0.00265972
0.00267755
0.00270468
0.00271955
0.00278852
0.00272671
0.0026967
0.00267822
0.00264879
0.00262961
0.00262993
0.00264826
0.00267605
0.00269384
0.0027255
0.00269476
0.00268147
0.00266013
0.00263023
0.00261377
0.00261359
0.00262915
0.00265896
0.00268029
0.00269414
0.00269454
0.00268093
0.00265959
0.00262964
0.00261374
0.0026136
0.00262914
0.00265895
0.00268027
0.00269413
0.00272577
0.00269427
0.00267648
0.00264856
0.00263014
0.00263003
0.00264824
0.00267601
0.00269379
0.00272548
0.00278869
0.00271981
0.00270496
0.00267772
0.00265982
0.00265973
0.00267748
0.00270461
0.00271946
0.00278842
0.0025045
0.00277285
0.00272632
0.0026961
0.00268108
0.00268102
0.00269591
0.00272604
0.00277257
0.00250418
0.00986646
0.00250652
0.00279073
0.00272636
0.0026945
0.00269447
0.00272627
0.00279064
0.00250632
0.00986629
0.0137717
0.00299569
0.00271825
0.00270854
0.00267669
0.00267672
0.00270891
0.00271961
0.00299703
0.0137656
0.00299759
0.00274167
0.00269339
0.00266099
0.00264656
0.00264685
0.00266258
0.00269906
0.00274076
0.00299386
0.00272049
0.00270005
0.00267123
0.00264335
0.00262678
0.00262702
0.00264425
0.00267039
0.00269253
0.00271795
0.00270958
0.00266327
0.00264486
0.00261703
0.00259849
0.00259885
0.00261658
0.00264276
0.00266043
0.00270824
0.00267722
0.00264731
0.00262742
0.00259912
0.00258323
0.00258307
0.00259812
0.00262633
0.00264615
0.00267649
0.00267701
0.00264683
0.00262695
0.00259861
0.00258326
0.00258313
0.00259815
0.00262635
0.00264617
0.0026765
0.00270872
0.00266105
0.00264331
0.002617
0.00259919
0.00259909
0.00261668
0.00264283
0.00266048
0.00270826
0.00271843
0.00269312
0.00267092
0.00264464
0.00262734
0.00262724
0.00264435
0.00267046
0.00269257
0.00271785
0.00299354
0.0027414
0.00269959
0.00266297
0.00264713
0.00264704
0.00266268
0.00269914
0.00274084
0.00299411
0.0137657
0.00299641
0.0027204
0.00270938
0.00267701
0.00267691
0.00270908
0.00271999
0.00299696
0.0137655
0.0179697
0.00487981
0.00253993
0.00266755
0.00265232
0.00265248
0.00266832
0.00254179
0.00488146
0.0179636
0.00488255
0.00266759
0.00267098
0.00263043
0.0026145
0.00261496
0.00263254
0.0026774
0.00266778
0.0048763
0.00254198
0.00267762
0.00263869
0.00261097
0.00259501
0.00259542
0.00261233
0.00263851
0.00267095
0.00254072
0.00266854
0.00263268
0.00261245
0.00258608
0.00256828
0.00256878
0.00258605
0.00261097
0.00263057
0.00266795
0.00265272
0.00261513
0.00259555
0.00256884
0.0025536
0.00255358
0.00256823
0.00259504
0.00261466
0.00265267
0.00265261
0.00261473
0.00259517
0.0025684
0.00255369
0.00255369
0.00256832
0.00259512
0.00261474
0.00265274
0.00266803
0.00263071
0.00261113
0.00258627
0.00256915
0.00256919
0.00258632
0.00261123
0.00263083
0.00266818
0.00254085
0.00267121
0.00263879
0.00261262
0.00259588
0.00259592
0.00261271
0.00263889
0.00267133
0.00254095
0.00487577
0.00266817
0.00267776
0.00263292
0.00261549
0.00261553
0.00263301
0.00267787
0.00266835
0.00487607
0.0179635
0.00487987
0.00254278
0.00266902
0.00265311
0.00265308
0.00266892
0.00254273
0.00488029
0.0179633
0.0222605
0.00732311
0.00247716
0.00256641
0.00259736
0.00259764
0.00256745
0.00247907
0.00732519
0.0222552
0.00732703
0.0025232
0.00265019
0.00260307
0.00258471
0.00258527
0.00260549
0.0026571
0.00252422
0.00731848
0.00247895
0.0026568
0.00260858
0.00257951
0.00256386
0.00256436
0.00258114
0.00260885
0.00265075
0.0024768
0.00256728
0.00260525
0.00258092
0.0025556
0.00253844
0.00253902
0.00255581
0.00257982
0.00260358
0.00256728
0.00259766
0.00258515
0.00256424
0.0025389
0.00252424
0.00252429
0.00253849
0.00256404
0.00258507
0.002598
0.00259755
0.0025847
0.0025638
0.00253841
0.00252427
0.00252433
0.00253851
0.00256406
0.0025851
0.00259805
0.0025668
0.00260312
0.00257948
0.00255565
0.00253914
0.00253925
0.00255591
0.00257992
0.00260368
0.00256736
0.00247632
0.00265026
0.00260852
0.00258098
0.00256453
0.00256463
0.00258129
0.00260901
0.00265088
0.00247694
0.00731859
0.00252359
0.00265678
0.00260538
0.0025855
0.00258562
0.00260571
0.00265731
0.00252432
0.0073183
0.0222548
0.00732395
0.00247858
0.00256761
0.00259798
0.00259808
0.00256788
0.00247831
0.00732379
0.0222549
0.0264657
0.0101611
0.00346251
0.00241452
0.00248308
0.00248341
0.00241545
0.00346393
0.0101634
0.0264616
0.0101657
0.0024118
0.00262255
0.00257836
0.0025575
0.00255807
0.00258081
0.00262949
0.00241213
0.0101558
0.00346497
0.00262903
0.00258206
0.00254961
0.00253387
0.0025344
0.00255129
0.00258246
0.00262331
0.00345906
0.00241532
0.00258044
0.00255095
0.00252617
0.00250961
0.00251018
0.00252642
0.00254993
0.00257885
0.00241502
0.00248337
0.00255778
0.00253413
0.00250999
0.0024959
0.00249595
0.00250957
0.00253392
0.00255772
0.00248365
0.00248325
0.00255728
0.00253363
0.00250944
0.00249586
0.0024959
0.00250951
0.00253385
0.00255763
0.00248358
0.0024147
0.00257813
0.00254935
0.00252603
0.00251009
0.00251018
0.00252624
0.00254971
0.00257861
0.0024148
0.00346013
0.00262237
0.00258177
0.0025508
0.00253424
0.00253432
0.00255104
0.00258216
0.00262287
0.00346028
0.0101566
0.00241153
0.00262882
0.00258038
0.00255797
0.00255805
0.00258058
0.00262917
0.00241154
0.0101564
0.0264608
0.0101627
0.00346367
0.00241517
0.00248344
0.00248352
0.00241531
0.00346236
0.0101624
0.0264613
0.0304594
0.0133066
0.00520234
0.00263025
0.0023644
0.00236462
0.00263082
0.00520458
0.0133094
0.0304569
0.0133116
0.00291684
0.00257488
0.00255394
0.00253222
0.0025327
0.00255609
0.00258116
0.00291489
0.0133015
0.00520569
0.0025811
0.00256052
0.00252211
0.00250563
0.00250607
0.00252353
0.00256056
0.0025752
0.00519859
0.00263148
0.00255599
0.00252345
0.0024984
0.00248228
0.00248276
0.0024984
0.00252209
0.00255402
0.00262897
0.00236503
0.00253255
0.00250595
0.0024827
0.00246911
0.00246908
0.00248206
0.00250542
0.00253214
0.0023645
0.00236481
0.00253203
0.00250542
0.00248213
0.00246906
0.00246902
0.00248199
0.00250536
0.00253206
0.00236447
0.00262988
0.00255368
0.00252181
0.00249819
0.00248271
0.00248273
0.00249822
0.00252189
0.00255382
0.00262955
0.00519969
0.00257467
0.00256015
0.0025232
0.00250593
0.00250595
0.00252328
0.00256028
0.00257482
0.00520029
0.0133021
0.00291563
0.0025809
0.00255585
0.00253262
0.00253264
0.00255589
0.00258098
0.00291516
0.0133022
0.0304552
0.0133084
0.00520431
0.00263079
0.00236473
0.00236472
0.00263025
0.00520299
0.0133083
0.0304562
0.0341675
0.0166461
0.00731837
0.00370091
0.00270916
0.00270937
0.00370202
0.00732155
0.0166492
0.0341662
0.0166511
0.00415194
0.00249312
0.00252332
0.0025057
0.00250612
0.00252525
0.00249873
0.00414998
0.0166416
0.00732244
0.00249894
0.00254395
0.00249717
0.00247916
0.00247955
0.00249841
0.00254369
0.00249305
0.00731485
0.00370255
0.00252534
0.00249853
0.00247211
0.00245627
0.0024567
0.00247193
0.0024969
0.00252309
0.00369928
0.00270981
0.00250608
0.00247955
0.00245675
0.00244361
0.00244353
0.00245596
0.0024788
0.00250542
0.00270863
0.00270927
0.00250557
0.00247904
0.00245619
0.00244358
0.0024435
0.00245593
0.00247878
0.00250539
0.00270881
0.00369994
0.00252312
0.00249694
0.00247194
0.00245677
0.00245674
0.00247184
0.00249683
0.00252306
0.00370028
0.00731548
0.00249302
0.00254365
0.00249833
0.00247954