/*--------------------------------*- C++ -*----------------------------------*\
| =========                 |                                                 |
| \\      /  F ield         | OpenFOAM: The Open Source CFD Toolbox           |
|  \\    /   O peration     | Version:  2406                                  |
|   \\  /    A nd           | Website:  www.openfoam.com                      |
|    \\/     M anipulation  |                                                 |
\*---------------------------------------------------------------------------*/
FoamFile
{
    version     2.0;
    format      ascii;
    arch        "LSB;label=32;scalar=64";
    class       volSymmTensorField;
    location    "350";
    object      turbulenceProperties:R;
}
// * * * * * * * * * * * * * * * * * * * * * * * * * * * * * * * * * * * * * //

dimensions      [0 2 -2 0 0 0 0];

internalField   nonuniform List<symmTensor> 
25000
(
(2.67437e-05 -1.46646e-06 -5.90825e-07 2.67459e-05 -5.91418e-07 2.20939e-05)
(2.62728e-05 6.98261e-07 -4.08237e-07 2.49342e-05 -5.24314e-07 2.07582e-05)
(2.36107e-05 4.14861e-07 -2.89295e-07 2.31821e-05 -5.41092e-07 1.87855e-05)
(2.30979e-05 2.57346e-07 -1.72569e-07 2.29548e-05 -5.43725e-07 1.84352e-05)
(2.28333e-05 8.93924e-08 -5.68964e-08 2.28252e-05 -5.44221e-07 1.82544e-05)
(2.28372e-05 -9.04219e-08 5.8934e-08 2.28266e-05 -5.44249e-07 1.82567e-05)
(2.31128e-05 -2.58252e-07 1.74955e-07 2.296e-05 -5.43759e-07 1.84438e-05)
(2.36542e-05 -4.16236e-07 2.92648e-07 2.31996e-05 -5.4128e-07 1.88123e-05)
(2.6192e-05 -6.89073e-07 4.15138e-07 2.48359e-05 -5.25514e-07 2.06878e-05)
(2.65581e-05 1.49456e-06 5.91531e-07 2.65569e-05 -5.91115e-07 2.19866e-05)
(2.49438e-05 6.97324e-07 -5.2396e-07 2.62825e-05 -4.08691e-07 2.07646e-05)
(2.4809e-05 4.60098e-07 -4.08186e-07 2.4809e-05 -4.08652e-07 1.99189e-05)
(2.26758e-05 3.1006e-07 -3.03173e-07 2.27521e-05 -4.18336e-07 1.81821e-05)
(2.15902e-05 1.80778e-07 -1.83321e-07 2.16492e-05 -4.26552e-07 1.72718e-05)
(2.10682e-05 5.89671e-08 -6.06547e-08 2.11117e-05 -4.30822e-07 1.68308e-05)
(2.10726e-05 -6.06941e-08 6.2606e-08 2.11148e-05 -4.30911e-07 1.68339e-05)
(2.16042e-05 -1.83633e-07 1.85515e-07 2.16592e-05 -4.26873e-07 1.72821e-05)
(2.27127e-05 -3.17046e-07 3.06016e-07 2.27826e-05 -4.19508e-07 1.82092e-05)
(2.48364e-05 -4.76898e-07 4.11273e-07 2.48371e-05 -4.10741e-07 1.99461e-05)
(2.48354e-05 -6.8911e-07 5.25705e-07 2.61907e-05 -4.14445e-07 2.06878e-05)
(2.31886e-05 4.1408e-07 -5.40954e-07 2.36152e-05 -2.89241e-07 1.87895e-05)
(2.27661e-05 3.09743e-07 -4.1834e-07 2.26896e-05 -3.03603e-07 1.81914e-05)
(2.11042e-05 2.11465e-07 -3.08144e-07 2.11044e-05 -3.0838e-07 1.68541e-05)
(2.01186e-05 1.26144e-07 -1.87141e-07 2.01356e-05 -3.11546e-07 1.60473e-05)
(1.96427e-05 4.11926e-08 -6.21178e-08 1.96636e-05 -3.13453e-07 1.56543e-05)
(1.96455e-05 -4.30811e-08 6.37957e-08 1.9666e-05 -3.1359e-07 1.56565e-05)
(2.01284e-05 -1.28925e-07 1.88929e-07 2.01444e-05 -3.12045e-07 1.60551e-05)
(2.11183e-05 -2.1627e-07 3.09991e-07 2.11188e-05 -3.09345e-07 1.68666e-05)
(2.27717e-05 -3.16683e-07 4.19671e-07 2.27031e-05 -3.05101e-07 1.82027e-05)
(2.32029e-05 -4.16161e-07 5.41644e-07 2.36576e-05 -2.91974e-07 1.8815e-05)
(2.29583e-05 2.57302e-07 -5.4368e-07 2.30996e-05 -1.72423e-07 1.84372e-05)
(2.16515e-05 1.80336e-07 -4.26376e-07 2.15919e-05 -1.8336e-07 1.72734e-05)
(2.01372e-05 1.2595e-07 -3.11394e-07 2.01205e-05 -1.87276e-07 1.60485e-05)
(1.91631e-05 7.63728e-08 -1.89057e-07 1.91632e-05 -1.892e-07 1.52537e-05)
(1.86828e-05 2.49723e-08 -6.2896e-08 1.8689e-05 -1.90249e-07 1.486e-05)
(1.86853e-05 -2.65617e-08 6.42534e-08 1.86915e-05 -1.90407e-07 1.4862e-05)
(1.91681e-05 -7.84015e-08 1.9043e-07 1.91686e-05 -1.89665e-07 1.52582e-05)
(2.01435e-05 -1.28749e-07 3.12652e-07 2.01286e-05 -1.88129e-07 1.6055e-05)
(2.16599e-05 -1.8341e-07 4.27383e-07 2.16062e-05 -1.847e-07 1.72832e-05)
(2.29637e-05 -2.58063e-07 5.44139e-07 2.31172e-05 -1.74144e-07 1.84471e-05)
(2.28273e-05 8.95345e-08 -5.44299e-07 2.28338e-05 -5.67524e-08 1.82555e-05)
(2.1113e-05 5.88109e-08 -4.30732e-07 2.10688e-05 -6.06084e-08 1.68315e-05)
(1.96638e-05 4.10195e-08 -3.13319e-07 1.96427e-05 -6.2152e-08 1.56543e-05)
(1.86895e-05 2.48974e-08 -1.90147e-07 1.86834e-05 -6.29737e-08 1.48603e-05)
(1.8208e-05 7.96597e-09 -6.33892e-08 1.82081e-05 -6.34755e-08 1.4466e-05)
(1.82091e-05 -9.1651e-09 6.44562e-08 1.82093e-05 -6.36019e-08 1.44669e-05)
(1.86917e-05 -2.62892e-08 1.91168e-07 1.86863e-05 -6.33671e-08 1.48626e-05)
(1.96678e-05 -4.26359e-08 3.14266e-07 1.96486e-05 -6.28505e-08 1.56586e-05)
(2.11175e-05 -6.02513e-08 4.31447e-07 2.10771e-05 -6.16007e-08 1.68369e-05)
(2.28306e-05 -9.00733e-08 5.44609e-07 2.2843e-05 -5.79188e-08 1.82607e-05)
(2.28278e-05 -9.01644e-08 -5.44318e-07 2.28371e-05 5.90769e-08 1.82572e-05)
(2.11149e-05 -6.06743e-08 -4.30908e-07 2.10721e-05 6.2687e-08 1.68338e-05)
(1.96656e-05 -4.31703e-08 -3.13521e-07 1.96449e-05 6.38098e-08 1.56561e-05)
(1.86902e-05 -2.66168e-08 -1.90304e-07 1.8684e-05 6.42195e-08 1.48611e-05)
(1.82089e-05 -9.18389e-09 -6.35294e-08 1.82088e-05 6.44073e-08 1.44666e-05)
(1.82096e-05 8.32902e-09 6.43577e-08 1.82096e-05 6.43017e-08 1.44673e-05)
(1.8692e-05 2.5702e-08 1.91104e-07 1.86864e-05 6.39047e-08 1.48628e-05)
(1.96679e-05 4.22026e-08 3.14215e-07 1.96485e-05 6.32752e-08 1.56586e-05)
(2.11174e-05 5.98986e-08 4.31414e-07 2.10769e-05 6.1948e-08 1.68368e-05)
(2.28304e-05 8.9786e-08 5.4459e-07 2.28428e-05 5.82111e-08 1.82605e-05)
(2.29609e-05 -2.58061e-07 -5.43879e-07 2.31125e-05 1.75082e-07 1.84441e-05)
(2.16584e-05 -1.83498e-07 -4.26899e-07 2.16029e-05 1.85596e-07 1.72813e-05)
(2.01423e-05 -1.28894e-07 -3.11981e-07 2.01261e-05 1.88954e-07 1.60536e-05)
(1.91677e-05 -7.84169e-08 -1.89612e-07 1.91672e-05 1.90435e-07 1.52575e-05)
(1.86864e-05 -2.62922e-08 -6.33115e-08 1.86919e-05 1.91167e-07 1.48626e-05)
(1.86868e-05 2.57026e-08 6.39594e-08 1.86924e-05 1.91085e-07 1.4863e-05)
(1.91688e-05 7.78092e-08 1.90223e-07 1.91688e-05 1.90188e-07 1.52586e-05)
(2.01437e-05 1.28307e-07 3.12517e-07 2.01285e-05 1.88544e-07 1.6055e-05)
(2.16598e-05 1.83053e-07 4.27291e-07 2.16059e-05 1.85044e-07 1.7283e-05)
(2.29632e-05 2.57764e-07 5.44078e-07 2.31166e-05 1.74435e-07 1.84466e-05)
(2.32002e-05 -4.16103e-07 -5.41372e-07 2.36538e-05 2.92753e-07 1.88123e-05)
(2.27707e-05 -3.16583e-07 -4.19216e-07 2.27006e-05 3.05857e-07 1.82013e-05)
(2.11176e-05 -2.1619e-07 -3.0935e-07 2.11169e-05 3.10055e-07 1.68656e-05)
(2.01288e-05 -1.28719e-07 -1.88119e-07 2.01436e-05 3.12732e-07 1.60549e-05)
(1.96478e-05 -4.26157e-08 -6.28128e-08 1.9667e-05 3.14282e-07 1.56579e-05)
(1.96481e-05 4.22213e-08 6.33153e-08 1.96674e-05 3.14218e-07 1.56582e-05)
(2.01296e-05 1.2833e-07 1.88599e-07 2.01448e-05 3.12537e-07 1.60557e-05)
(2.11186e-05 2.15826e-07 3.09761e-07 2.11186e-05 3.09744e-07 1.68666e-05)
(2.27716e-05 3.16332e-07 4.19518e-07 2.27026e-05 3.05433e-07 1.82024e-05)
(2.32022e-05 4.15884e-07 5.41546e-07 2.36569e-05 2.92262e-07 1.88143e-05)
(2.48327e-05 -6.88924e-07 -5.25435e-07 2.61872e-05 4.15094e-07 2.06852e-05)
(2.48355e-05 -4.76701e-07 -4.10812e-07 2.48346e-05 4.1138e-07 1.99447e-05)
(2.27123e-05 -3.1682e-07 -3.05379e-07 2.27808e-05 4.20124e-07 1.82083e-05)
(2.16051e-05 -1.83321e-07 -1.84696e-07 2.16587e-05 4.2746e-07 1.72823e-05)
(2.10761e-05 -6.01867e-08 -6.15816e-08 2.11164e-05 4.31493e-07 1.68361e-05)
(2.10763e-05 5.99489e-08 6.19698e-08 2.11168e-05 4.31441e-07 1.68363e-05)
(2.16058e-05 1.83094e-07 1.85066e-07 2.16597e-05 4.27307e-07 1.72829e-05)
(2.27133e-05 3.16629e-07 3.05711e-07 2.27824e-05 4.19873e-07 1.82093e-05)
(2.48364e-05 4.7658e-07 4.11064e-07 2.48365e-05 4.11055e-07 1.99458e-05)
(2.48346e-05 6.8885e-07 5.25576e-07 2.61899e-05 4.1472e-07 2.06871e-05)
(2.65573e-05 1.49376e-06 -5.91142e-07 2.6558e-05 5.91564e-07 2.19858e-05)
(2.61959e-05 -6.89414e-07 -4.14639e-07 2.48406e-05 5.25961e-07 2.06913e-05)
(2.36573e-05 -4.1607e-07 -2.92008e-07 2.32029e-05 5.41728e-07 1.88148e-05)
(2.31164e-05 -2.57922e-07 -1.74154e-07 2.29632e-05 5.44196e-07 1.84466e-05)
(2.28424e-05 -8.99398e-08 -5.79213e-08 2.28302e-05 5.44655e-07 1.82602e-05)
(2.28424e-05 8.99098e-08 5.82133e-08 2.28302e-05 5.44623e-07 1.82603e-05)
(2.31164e-05 2.57877e-07 1.7444e-07 2.29631e-05 5.44099e-07 1.84465e-05)
(2.3657e-05 4.15985e-07 2.92273e-07 2.32024e-05 5.41571e-07 1.88144e-05)
(2.61945e-05 6.89108e-07 4.1487e-07 2.48389e-05 5.25758e-07 2.06899e-05)
(2.65586e-05 -1.49433e-06 5.91331e-07 2.65587e-05 5.91334e-07 2.19872e-05)
(3.71556e-05 -1.24459e-06 1.16601e-06 3.71606e-05 1.16665e-06 3.06627e-05)
(3.67006e-05 7.10684e-07 8.26055e-07 3.50218e-05 1.09241e-06 2.93168e-05)
(3.3526e-05 1.87478e-07 5.93001e-07 3.30702e-05 9.98823e-07 2.69067e-05)
(3.29725e-05 1.7351e-07 3.5589e-07 3.27111e-05 9.6044e-07 2.64497e-05)
(3.26843e-05 6.39966e-08 1.18683e-07 3.25117e-05 9.37655e-07 2.62056e-05)
(3.26921e-05 -6.27362e-08 -1.19045e-07 3.25122e-05 9.37626e-07 2.6209e-05)
(3.30053e-05 -1.71966e-07 -3.56876e-07 3.2716e-05 9.60295e-07 2.64654e-05)
(3.36184e-05 -1.86657e-07 -5.95224e-07 3.3092e-05 9.9862e-07 2.69553e-05)
(3.64628e-05 -6.82393e-07 -8.31633e-07 3.47438e-05 1.09254e-06 2.91139e-05)
(3.65591e-05 1.29937e-06 -1.1622e-06 3.65575e-05 1.16222e-06 3.02327e-05)
(3.50551e-05 7.07662e-07 1.09301e-06 3.67388e-05 8.27113e-07 2.93422e-05)
(3.38666e-05 3.23492e-07 7.93506e-07 3.38714e-05 7.93969e-07 2.73187e-05)
(3.24782e-05 1.37873e-07 5.46795e-07 3.25383e-05 7.51516e-07 2.61055e-05)
(3.19954e-05 6.63598e-08 3.26156e-07 3.19127e-05 7.22381e-07 2.55949e-05)
(3.16619e-05 1.98255e-08 1.08077e-07 3.15303e-05 7.06686e-07 2.52767e-05)
(3.16704e-05 -2.34572e-08 -1.08274e-07 3.15347e-05 7.06734e-07 2.52819e-05)
(3.20213e-05 -7.34519e-08 -3.26819e-07 3.19257e-05 7.22711e-07 2.56105e-05)
(3.2559e-05 -1.56801e-07 -5.49503e-07 3.2599e-05 7.54025e-07 2.61572e-05)
(3.38896e-05 -3.69972e-07 -7.95834e-07 3.38919e-05 7.95894e-07 2.7344e-05)
(3.47379e-05 -6.82809e-07 -1.09157e-06 3.64565e-05 8.30953e-07 2.91116e-05)
(3.30991e-05 1.82056e-07 9.99079e-07 3.35526e-05 5.93064e-07 2.69275e-05)
(3.25879e-05 1.35167e-07 7.52908e-07 3.25321e-05 5.48263e-07 2.61402e-05)
(3.14008e-05 1.2147e-07 5.18853e-07 3.14037e-05 5.19143e-07 2.51234e-05)
(3.09642e-05 7.09884e-08 3.07728e-07 3.08997e-05 4.97148e-07 2.46936e-05)
(3.07246e-05 2.13547e-08 1.01963e-07 3.06381e-05 4.86296e-07 2.44656e-05)
(3.07291e-05 -2.67288e-08 -1.02024e-07 3.0641e-05 4.8633e-07 2.44686e-05)
(3.09811e-05 -7.90239e-08 -3.08107e-07 3.09126e-05 4.97456e-07 2.47049e-05)
(3.14168e-05 -1.35423e-07 -5.19563e-07 3.14192e-05 5.19677e-07 2.5137e-05)
(3.25575e-05 -1.56402e-07 -7.52258e-07 3.25224e-05 5.48365e-07 2.61323e-05)
(3.30981e-05 -1.87301e-07 -9.98455e-07 3.36266e-05 5.95239e-07 2.69614e-05)
(3.2728e-05 1.70599e-07 9.60678e-07 3.29853e-05 3.55802e-07 2.64611e-05)
(3.19242e-05 6.32824e-08 7.22345e-07 3.20081e-05 3.26281e-07 2.5604e-05)
(3.09078e-05 6.9746e-08 4.97072e-07 3.09756e-05 3.0801e-07 2.47004e-05)
(3.03898e-05 4.50909e-08 2.93052e-07 3.03913e-05 2.9326e-07 2.42094e-05)
(3.01219e-05 1.32243e-08 9.68706e-08 3.00941e-05 2.85375e-07 2.39604e-05)
(3.01275e-05 -1.84807e-08 -9.68915e-08 3.00994e-05 2.85431e-07 2.39642e-05)
(3.03947e-05 -5.17625e-08 -2.93163e-07 3.0397e-05 2.93318e-07 2.42138e-05)
(3.0907e-05 -7.86329e-08 -4.97196e-07 3.09806e-05 3.08154e-07 2.47033e-05)
(3.19251e-05 -7.32122e-08 -7.22567e-07 3.20263e-05 3.26892e-07 2.56126e-05)
(3.2724e-05 -1.72733e-07 -9.60268e-07 3.30174e-05 3.56948e-07 2.64735e-05)
(3.25243e-05 6.2229e-08 9.3795e-07 3.26929e-05 1.18641e-07 2.6214e-05)
(3.1541e-05 1.75148e-08 7.06669e-07 3.16716e-05 1.08104e-07 2.52848e-05)
(3.06425e-05 1.98382e-08 4.86144e-07 3.07305e-05 1.02077e-07 2.44696e-05)
(3.0098e-05 1.25659e-08 2.85244e-07 3.01282e-05 9.70514e-08 2.39639e-05)
(2.98418e-05 2.74383e-09 9.41736e-08 2.98429e-05 9.43445e-08 2.37237e-05)
(2.98425e-05 -7.17185e-09 -9.41598e-08 2.98441e-05 9.43378e-08 2.37244e-05)
(3.00967e-05 -1.76513e-08 -2.85227e-07 3.01291e-05 9.70341e-08 2.39643e-05)
(3.06433e-05 -2.55835e-08 -4.86235e-07 3.07375e-05 1.02153e-07 2.4473e-05)
(3.15387e-05 -2.27119e-08 -7.0672e-07 3.16822e-05 1.08352e-07 2.52884e-05)
(3.25191e-05 -6.35195e-08 -9.37592e-07 3.27068e-05 1.19049e-07 2.62177e-05)
(3.25205e-05 -6.36953e-08 9.37861e-07 3.26977e-05 -1.19017e-07 2.62146e-05)
(3.15423e-05 -2.51901e-08 7.06759e-07 3.16766e-05 -1.0824e-07 2.52875e-05)
(3.0646e-05 -2.81713e-08 4.86225e-07 3.07343e-05 -1.0193e-07 2.44727e-05)
(3.00982e-05 -1.93041e-08 2.85229e-07 3.01277e-05 -9.67363e-08 2.39644e-05)
(2.98443e-05 -7.5173e-09 9.41758e-08 2.98445e-05 -9.40026e-08 2.37253e-05)
(2.98446e-05 3.97414e-09 -9.4179e-08 2.98454e-05 -9.40166e-08 2.37257e-05)
(3.00978e-05 1.55541e-08 -2.85253e-07 3.01298e-05 -9.67636e-08 2.3965e-05)
(3.0644e-05 2.42078e-08 -4.86259e-07 3.07379e-05 -1.01937e-07 2.44733e-05)
(3.15394e-05 2.18024e-08 -7.06739e-07 3.16826e-05 -1.08185e-07 2.52888e-05)
(3.25188e-05 6.27632e-08 -9.37602e-07 3.27066e-05 -1.18916e-07 2.62175e-05)
(3.27222e-05 -1.728e-07 9.60474e-07 3.30092e-05 -3.56789e-07 2.64694e-05)
(3.19315e-05 -7.46268e-08 7.22646e-07 3.20252e-05 -3.26701e-07 2.56147e-05)
(3.09124e-05 -8.00783e-08 4.97235e-07 3.09806e-05 -3.07911e-07 2.47055e-05)
(3.03999e-05 -5.25911e-08 2.93196e-07 3.03985e-05 -2.93038e-07 2.42165e-05)
(3.01336e-05 -1.81302e-08 9.69076e-08 3.01025e-05 -2.85138e-07 2.39679e-05)
(3.01333e-05 1.53365e-08 -9.69406e-08 3.01029e-05 -2.85152e-07 2.39679e-05)
(3.03985e-05 4.97105e-08 -2.93236e-07 3.03992e-05 -2.93077e-07 2.42161e-05)
(3.09095e-05 7.73027e-08 -4.97268e-07 3.09821e-05 -3.07956e-07 2.47049e-05)
(3.19265e-05 7.23286e-08 -7.2262e-07 3.20271e-05 -3.26732e-07 2.56134e-05)
(3.27231e-05 1.71953e-07 -9.60291e-07 3.30167e-05 -3.56812e-07 2.64728e-05)
(3.3093e-05 -1.86821e-07 9.98596e-07 3.36179e-05 -5.95022e-07 2.69558e-05)
(3.25652e-05 -1.57209e-07 7.52334e-07 3.25239e-05 -5.48154e-07 2.6136e-05)
(3.14245e-05 -1.36239e-07 5.19617e-07 3.14217e-05 -5.19458e-07 2.5141e-05)
(3.09891e-05 -7.93403e-08 3.08142e-07 3.09161e-05 -4.97233e-07 2.47095e-05)
(3.07395e-05 -2.61308e-08 1.02025e-07 3.06464e-05 -4.86113e-07 2.44749e-05)
(3.0739e-05 2.38475e-08 -1.0209e-07 3.06464e-05 -4.86129e-07 2.44747e-05)
(3.09871e-05 7.71225e-08 -3.0821e-07 3.09159e-05 -4.97272e-07 2.47085e-05)
(3.14205e-05 1.34144e-07 -5.19663e-07 3.14212e-05 -5.19515e-07 2.51391e-05)
(3.256e-05 1.55535e-07 -7.52331e-07 3.25237e-05 -5.48218e-07 2.61337e-05)
(3.30965e-05 1.86531e-07 -9.98479e-07 3.36253e-05 -5.95095e-07 2.69602e-05)
(3.47283e-05 -6.81446e-07 1.09167e-06 3.64443e-05 -8.30746e-07 2.91022e-05)
(3.38977e-05 -3.70206e-07 7.95875e-07 3.38939e-05 -7.95701e-07 2.7348e-05)
(3.25673e-05 -1.57295e-07 5.49533e-07 3.2602e-05 -7.53845e-07 2.61616e-05)
(3.20311e-05 -7.38256e-08 3.26833e-07 3.19301e-05 -7.2255e-07 2.56161e-05)
(3.16836e-05 -2.32477e-08 1.08228e-07 3.15409e-05 -7.06608e-07 2.52897e-05)
(3.16831e-05 2.13262e-08 -1.08323e-07 3.15408e-05 -7.06621e-07 2.52895e-05)
(3.20295e-05 7.19704e-08 -3.26926e-07 3.193e-05 -7.22586e-07 2.56154e-05)
(3.2564e-05 1.55704e-07 -5.49609e-07 3.26014e-05 -7.53902e-07 2.616e-05)
(3.38926e-05 3.6916e-07 -7.95904e-07 3.3893e-05 -7.95778e-07 2.73455e-05)
(3.47346e-05 6.81814e-07 -1.09157e-06 3.64533e-05 -8.30824e-07 2.91088e-05)
(3.65634e-05 1.30043e-06 1.16235e-06 3.65637e-05 -1.1622e-06 3.02374e-05)
(3.64788e-05 -6.83409e-07 8.31658e-07 3.47578e-05 -1.09248e-06 2.91262e-05)
(3.36317e-05 -1.87708e-07 5.95224e-07 3.31026e-05 -9.98525e-07 2.69648e-05)
(3.3019e-05 -1.73166e-07 3.56832e-07 3.27255e-05 -9.602e-07 2.64747e-05)
(3.27074e-05 -6.39471e-08 1.18925e-07 3.252e-05 -9.37519e-07 2.62183e-05)
(3.27067e-05 6.2346e-08 -1.19048e-07 3.25195e-05 -9.37518e-07 2.62177e-05)
(3.30163e-05 1.71562e-07 -3.56953e-07 3.27234e-05 -9.60197e-07 2.64727e-05)
(3.36272e-05 1.86195e-07 -5.95323e-07 3.30992e-05 -9.98511e-07 2.69616e-05)
(3.64706e-05 6.82265e-07 -8.31708e-07 3.47511e-05 -1.09246e-06 2.91198e-05)
(3.65618e-05 -1.29998e-06 -1.1622e-06 3.65622e-05 -1.16211e-06 3.02358e-05)
(3.38045e-05 -3.10106e-07 1.54883e-06 3.38028e-05 1.54979e-06 2.84625e-05)
(3.19262e-05 4.04345e-07 1.104e-06 3.10371e-05 1.42972e-06 2.62077e-05)
(3.00886e-05 -9.93829e-09 7.94238e-07 3.00413e-05 1.38239e-06 2.47576e-05)
(2.93121e-05 9.0631e-08 4.77707e-07 2.93315e-05 1.36494e-06 2.40327e-05)
(2.89624e-05 2.47674e-08 1.59678e-07 2.90304e-05 1.34751e-06 2.36973e-05)
(2.89651e-05 -2.37264e-08 -1.62776e-07 2.90294e-05 1.34753e-06 2.36982e-05)
(2.93322e-05 -8.97415e-08 -4.81812e-07 2.9336e-05 1.3649e-06 2.4043e-05)
(3.01378e-05 9.67057e-09 -8.00425e-07 3.00561e-05 1.38282e-06 2.47847e-05)
(3.18525e-05 -3.93582e-07 -1.11486e-06 3.09429e-05 1.43164e-06 2.61479e-05)
(3.3463e-05 3.33651e-07 -1.54629e-06 3.34624e-05 1.54584e-06 2.81976e-05)
(3.10672e-05 4.03692e-07 1.43078e-06 3.19597e-05 1.10609e-06 2.623e-05)
(2.94291e-05 1.55566e-07 1.08694e-06 2.94325e-05 1.08781e-06 2.41988e-05)
(2.88717e-05 1.17912e-08 7.87069e-07 2.89665e-05 1.0731e-06 2.35814e-05)
(2.85465e-05 2.84879e-09 4.76322e-07 2.85286e-05 1.068e-06 2.31478e-05)
(2.82712e-05 -2.24873e-09 1.58014e-07 2.82478e-05 1.06345e-06 2.28625e-05)
(2.82759e-05 -7.12258e-11 -1.60879e-07 2.82502e-05 1.06362e-06 2.28655e-05)
(2.85648e-05 -6.69851e-09 -4.79985e-07 2.85395e-05 1.06895e-06 2.31599e-05)
(2.89523e-05 -2.35561e-08 -7.94397e-07 2.90359e-05 1.0786e-06 2.36365e-05)
(2.94484e-05 -1.79871e-07 -1.09245e-06 2.94507e-05 1.09184e-06 2.42215e-05)
(3.09261e-05 -3.93702e-07 -1.43019e-06 3.18367e-05 1.11276e-06 2.61374e-05)
(3.00616e-05 -1.32793e-08 1.38271e-06 3.01088e-05 7.94485e-07 2.47727e-05)
(2.90239e-05 9.99292e-09 1.07607e-06 2.89326e-05 7.90195e-07 2.36209e-05)
(2.82056e-05 4.12054e-08 7.76935e-07 2.82077e-05 7.77522e-07 2.28268e-05)
(2.78228e-05 2.38065e-08 4.7103e-07 2.77865e-05 7.66531e-07 2.23859e-05)
(2.75624e-05 6.99245e-09 1.56641e-07 2.75379e-05 7.62071e-07 2.21212e-05)
(2.75657e-05 -1.09992e-08 -1.59081e-07 2.75403e-05 7.62309e-07 2.21236e-05)
(2.78374e-05 -2.91824e-08 -4.7397e-07 2.77989e-05 7.67666e-07 2.23966e-05)
(2.82145e-05 -4.9962e-08 -7.8003e-07 2.82168e-05 7.79285e-07 2.28361e-05)
(2.89802e-05 -2.34018e-08 -1.07555e-06 2.89016e-05 7.90944e-07 2.36012e-05)
(3.00554e-05 9.27421e-09 -1.38282e-06 3.01394e-05 7.99405e-07 2.47854e-05)
(2.93426e-05 8.83616e-08 1.36511e-06 2.93214e-05 4.77462e-07 2.40404e-05)
(2.85375e-05 7.79033e-10 1.06798e-06 2.85571e-05 4.76607e-07 2.31546e-05)
(2.7795e-05 2.29734e-08 7.66431e-07 2.78341e-05 4.71606e-07 2.23925e-05)
(2.7383e-05 9.69096e-09 4.63418e-07 2.73843e-05 4.63838e-07 2.19302e-05)
(2.71181e-05 1.47226e-09 1.542e-07 2.71164e-05 4.59708e-07 2.16596e-05)
(2.71241e-05 -5.58501e-09 -1.56191e-07 2.71224e-05 4.60048e-07 2.1664e-05)
(2.73867e-05 -1.45439e-08 -4.6546e-07 2.73889e-05 4.64557e-07 2.19342e-05)
(2.77906e-05 -2.89203e-08 -7.68052e-07 2.78339e-05 4.72818e-07 2.2393e-05)
(2.85351e-05 -6.63005e-09 -1.06928e-06 2.85656e-05 4.78851e-07 2.31591e-05)
(2.93394e-05 -9.04886e-08 -1.36532e-06 2.93393e-05 4.80769e-07 2.40471e-05)
(2.90401e-05 2.31649e-08 1.34794e-06 2.89702e-05 1.59391e-07 2.37043e-05)
(2.82544e-05 -3.94561e-09 1.06336e-06 2.82778e-05 1.57958e-07 2.28674e-05)
(2.75406e-05 5.93899e-09 7.61767e-07 2.75668e-05 1.56803e-07 2.21237e-05)
(2.71207e-05 1.01882e-09 4.59484e-07 2.71246e-05 1.54516e-07 2.16631e-05)
(2.69005e-05 -1.14773e-09 1.53201e-07 2.69016e-05 1.53509e-07 2.14258e-05)
(2.69011e-05 -2.45738e-09 -1.54726e-07 2.69026e-05 1.53692e-07 2.14266e-05)
(2.71178e-05 -5.01635e-09 -4.60839e-07 2.71235e-05 1.55064e-07 2.16627e-05)
(2.75406e-05 -1.02257e-08 -7.63121e-07 2.75713e-05 1.57886e-07 2.21263e-05)
(2.82515e-05 2.70584e-10 -1.06435e-06 2.82836e-05 1.59574e-07 2.28694e-05)
(2.9032e-05 -2.45564e-08 -1.34791e-06 2.89734e-05 1.61389e-07 2.37025e-05)
(2.9037e-05 -2.47999e-08 1.34793e-06 2.89712e-05 -1.63057e-07 2.37038e-05)
(2.82558e-05 -1.45683e-09 1.06372e-06 2.82809e-05 -1.61022e-07 2.28697e-05)
(2.75431e-05 -1.20538e-08 7.62124e-07 2.75692e-05 -1.5904e-07 2.21261e-05)
(2.71191e-05 -6.17532e-09 4.59644e-07 2.71223e-05 -1.55986e-07 2.16625e-05)
(2.69024e-05 -2.70753e-09 1.53419e-07 2.69027e-05 -1.54504e-07 2.14271e-05)
(2.69026e-05 -3.24026e-10 -1.54595e-07 2.69034e-05 -1.54352e-07 2.14275e-05)
(2.71186e-05 3.03363e-09 -4.60772e-07 2.71239e-05 -1.55525e-07 2.16632e-05)
(2.75411e-05 8.8045e-09 -7.63073e-07 2.75715e-05 -1.58234e-07 2.21266e-05)
(2.8252e-05 -1.3064e-09 -1.06433e-06 2.82838e-05 -1.59863e-07 2.28697e-05)
(2.90319e-05 2.36606e-08 -1.3479e-06 2.89734e-05 -1.61646e-07 2.37025e-05)
(2.93424e-05 -9.05969e-08 1.36539e-06 2.93373e-05 -4.82064e-07 2.40479e-05)
(2.85417e-05 -7.70783e-09 1.06884e-06 2.8566e-05 -4.80004e-07 2.31618e-05)
(2.77952e-05 -2.99887e-08 7.67248e-07 2.78339e-05 -4.73799e-07 2.23947e-05)
(2.73907e-05 -1.51737e-08 4.64388e-07 2.73896e-05 -4.65406e-07 2.19359e-05)
(2.71286e-05 -5.3446e-09 1.54887e-07 2.71244e-05 -4.60858e-07 2.16665e-05)
(2.71284e-05 2.8843e-09 -1.55796e-07 2.71247e-05 -4.60738e-07 2.16666e-05)
(2.73894e-05 1.2646e-08 -4.65225e-07 2.73902e-05 -4.65037e-07 2.19357e-05)
(2.77924e-05 2.75735e-08 -7.6794e-07 2.78348e-05 -4.73175e-07 2.23941e-05)
(2.85363e-05 5.67041e-09 -1.06923e-06 2.85662e-05 -4.79144e-07 2.31599e-05)
(2.9339e-05 8.96356e-08 -1.36527e-06 2.9339e-05 -4.81018e-07 2.40468e-05)
(3.00559e-05 9.65111e-09 1.38286e-06 3.01366e-05 -8.00437e-07 2.4785e-05)
(2.89883e-05 -2.41239e-08 1.07521e-06 2.89041e-05 -7.91924e-07 2.36055e-05)
(2.82211e-05 -5.06533e-08 7.79331e-07 2.82187e-05 -7.80174e-07 2.28394e-05)
(2.78437e-05 -2.94586e-08 4.72956e-07 2.78012e-05 -7.68499e-07 2.24e-05)
(2.75731e-05 -1.06164e-08 1.57746e-07 2.75436e-05 -7.63137e-07 2.2128e-05)
(2.75725e-05 8.58682e-09 -1.58421e-07 2.75435e-05 -7.63032e-07 2.21277e-05)
(2.78417e-05 2.74759e-08 -4.73583e-07 2.78009e-05 -7.68177e-07 2.23991e-05)
(2.82172e-05 4.87647e-08 -7.79804e-07 2.82179e-05 -7.7966e-07 2.28376e-05)
(2.89822e-05 2.25758e-08 -1.07543e-06 2.89025e-05 -7.91223e-07 2.36024e-05)
(3.00546e-05 -9.9602e-09 -1.38273e-06 3.01387e-05 -7.99614e-07 2.47849e-05)
(3.09226e-05 -3.92474e-07 1.43019e-06 3.18305e-05 -1.11359e-06 2.61336e-05)
(2.94563e-05 -1.80143e-07 1.09211e-06 2.94531e-05 -1.09271e-06 2.42258e-05)
(2.89596e-05 -2.40114e-08 7.9373e-07 2.90384e-05 -1.07945e-06 2.36404e-05)
(2.85726e-05 -7.11018e-09 4.78984e-07 2.85425e-05 -1.06976e-06 2.31642e-05)
(2.8285e-05 -1.07195e-10 1.59506e-07 2.82539e-05 -1.06445e-06 2.28709e-05)
(2.82844e-05 -1.5929e-09 -1.59967e-07 2.82537e-05 -1.06434e-06 2.28705e-05)
(2.85706e-05 5.46171e-09 -4.79402e-07 2.85419e-05 -1.06946e-06 2.31632e-05)
(2.8956e-05 2.25415e-08 -7.94054e-07 2.90372e-05 -1.07896e-06 2.36384e-05)
(2.94505e-05 1.79116e-07 -1.09224e-06 2.94509e-05 -1.09211e-06 2.42224e-05)
(3.09243e-05 3.92958e-07 -1.43e-06 3.18344e-05 -1.11292e-06 2.61356e-05)
(3.34649e-05 3.34778e-07 1.54613e-06 3.34647e-05 -1.54647e-06 2.81998e-05)
(3.18642e-05 -3.94243e-07 1.11446e-06 3.09518e-05 -1.43237e-06 2.61565e-05)
(3.0147e-05 8.94892e-09 7.99754e-07 3.00623e-05 -1.38352e-06 2.47908e-05)
(2.93413e-05 -9.07587e-08 4.80825e-07 2.93412e-05 -1.36555e-06 2.40488e-05)
(2.89744e-05 -2.47991e-08 1.61407e-07 2.90331e-05 -1.34807e-06 2.37034e-05)
(2.89735e-05 2.34528e-08 -1.61648e-07 2.90327e-05 -1.34796e-06 2.37029e-05)
(2.93387e-05 8.9453e-08 -4.81047e-07 2.93396e-05 -1.36524e-06 2.40469e-05)
(3.01432e-05 -1.01365e-08 -7.99923e-07 3.00602e-05 -1.38301e-06 2.47882e-05)
(3.18573e-05 3.93378e-07 -1.11454e-06 3.09468e-05 -1.43177e-06 2.61512e-05)
(3.3464e-05 -3.33914e-07 -1.54595e-06 3.34644e-05 -1.54584e-06 2.81985e-05)
(2.53814e-05 7.51386e-08 1.37702e-06 2.53806e-05 1.37711e-06 2.19623e-05)
(2.27269e-05 8.48122e-08 9.93827e-07 2.24461e-05 1.27674e-06 1.92228e-05)
(2.19587e-05 -1.1022e-07 7.11498e-07 2.20699e-05 1.27754e-06 1.85117e-05)
(2.11738e-05 2.59454e-08 4.26997e-07 2.12945e-05 1.27333e-06 1.77392e-05)
(2.08853e-05 -1.0522e-08 1.43061e-07 2.10475e-05 1.26299e-06 1.7444e-05)
(2.08852e-05 1.26333e-08 -1.4612e-07 2.10467e-05 1.26307e-06 1.74441e-05)
(2.11857e-05 -2.36154e-08 -4.30613e-07 2.13e-05 1.27353e-06 1.7747e-05)
(2.20038e-05 1.11685e-07 -7.16586e-07 2.20979e-05 1.27861e-06 1.85423e-05)
(2.27049e-05 -7.76445e-08 -1.001e-06 2.2416e-05 1.27955e-06 1.92075e-05)
(2.5188e-05 -6.25959e-08 -1.37672e-06 2.51881e-05 1.37637e-06 2.18116e-05)
(2.24681e-05 8.37813e-08 1.27874e-06 2.2754e-05 9.95982e-07 1.92411e-05)
(2.09422e-05 1.87058e-08 9.90061e-07 2.09457e-05 9.90519e-07 1.75846e-05)
(2.0744e-05 -4.54507e-08 7.26034e-07 2.08251e-05 9.94209e-07 1.72225e-05)
(2.03695e-05 -1.50181e-08 4.37931e-07 2.03936e-05 1.0001e-06 1.67549e-05)
(2.01491e-05 -1.08457e-08 1.45286e-07 2.01974e-05 1.00025e-06 1.65145e-05)
(2.01511e-05 1.07339e-08 -1.48176e-07 2.01984e-05 1.00045e-06 1.6516e-05)
(2.03811e-05 1.49295e-08 -4.4136e-07 2.04013e-05 1.00112e-06 1.67634e-05)
(2.08097e-05 4.09439e-08 -7.32978e-07 2.08837e-05 9.99958e-07 1.72692e-05)
(2.09568e-05 -3.29852e-08 -9.94022e-07 2.09582e-05 9.93498e-07 1.7601e-05)
(2.23939e-05 -7.7709e-08 -1.27768e-06 2.26842e-05 9.98747e-07 1.91919e-05)
(2.20856e-05 -1.13418e-07 1.27818e-06 2.19755e-05 7.12095e-07 1.85243e-05)
(2.0876e-05 -4.71937e-08 9.98092e-07 2.07986e-05 7.29565e-07 1.72588e-05)
(2.02282e-05 -1.09451e-08 7.2466e-07 2.02302e-05 7.25119e-07 1.65573e-05)
(1.9759e-05 -1.50303e-09 4.37259e-07 1.97536e-05 7.20288e-07 1.60395e-05)
(1.94706e-05 2.05111e-10 1.44921e-07 1.94968e-05 7.1832e-07 1.57499e-05)
(1.94729e-05 -1.53901e-09 -1.4744e-07 1.94986e-05 7.18586e-07 1.57518e-05)
(1.97707e-05 -2.0904e-10 -4.40165e-07 1.97638e-05 7.21462e-07 1.60485e-05)
(2.02321e-05 7.85294e-09 -7.27331e-07 2.02335e-05 7.2659e-07 1.65624e-05)
(2.08322e-05 4.07089e-08 -9.9616e-07 2.07611e-05 7.29041e-07 1.72347e-05)
(2.20905e-05 1.11383e-07 -1.27829e-06 2.19979e-05 7.15417e-07 1.85374e-05)
(2.13005e-05 2.40965e-08 1.2735e-06 2.1179e-05 4.2696e-07 1.77435e-05)
(2.04003e-05 -1.65656e-08 1.00033e-06 2.03781e-05 4.38318e-07 1.67602e-05)
(1.976e-05 -2.08559e-09 7.20361e-07 1.97681e-05 4.37847e-07 1.60447e-05)
(1.93362e-05 -7.6695e-09 4.34418e-07 1.93375e-05 4.34776e-07 1.55612e-05)
(1.90559e-05 -2.66755e-09 1.44004e-07 1.90733e-05 4.33108e-07 1.52739e-05)
(1.9061e-05 1.25636e-09 -1.46092e-07 1.90783e-05 4.33485e-07 1.52776e-05)
(1.93395e-05 5.9853e-09 -4.36463e-07 1.93408e-05 4.35485e-07 1.55647e-05)
(1.97552e-05 -2.23002e-10 -7.21764e-07 1.97648e-05 4.38886e-07 1.60438e-05)
(2.03938e-05 1.4591e-08 -1.00124e-06 2.03764e-05 4.40085e-07 1.67593e-05)
(2.12976e-05 -2.44258e-08 -1.27386e-06 2.11852e-05 4.29495e-07 1.77459e-05)
(2.10529e-05 -1.18026e-08 1.2633e-06 2.08895e-05 1.42938e-07 1.7448e-05)
(2.02001e-05 -1.19911e-08 1.00018e-06 2.01524e-05 1.4531e-07 1.65167e-05)
(1.94975e-05 -4.54015e-10 7.1807e-07 1.94729e-05 1.45088e-07 1.57508e-05)
(1.90763e-05 -2.92811e-09 4.32946e-07 1.90608e-05 1.4429e-07 1.52764e-05)
(1.88384e-05 -1.27921e-09 1.44033e-07 1.88393e-05 1.4429e-07 1.50202e-05)
(1.88389e-05 -2.1939e-11 -1.45644e-07 1.884e-05 1.44482e-07 1.50208e-05)
(1.90733e-05 1.40382e-09 -4.34324e-07 1.90585e-05 1.44841e-07 1.52754e-05)
(1.94962e-05 -1.39872e-09 -7.19375e-07 1.94736e-05 1.46143e-07 1.57515e-05)
(2.0196e-05 1.0415e-08 -1.00109e-06 2.01522e-05 1.46791e-07 1.65159e-05)
(2.10448e-05 1.15473e-08 -1.26341e-06 2.08858e-05 1.44695e-07 1.74436e-05)
(2.10513e-05 1.18879e-08 1.26336e-06 2.08886e-05 -1.46271e-07 1.74475e-05)
(2.02003e-05 9.89891e-09 1.00046e-06 2.0153e-05 -1.48236e-07 1.65176e-05)
(1.94983e-05 -2.15055e-09 7.18348e-07 1.94735e-05 -1.47386e-07 1.57519e-05)
(1.90739e-05 9.33573e-10 4.33064e-07 1.9058e-05 -1.45917e-07 1.52752e-05)
(1.88392e-05 -1.41894e-10 1.44246e-07 1.88397e-05 -1.45483e-07 1.50208e-05)
(1.88393e-05 -1.0302e-09 -1.45494e-07 1.884e-05 -1.4532e-07 1.50211e-05)
(1.90734e-05 -2.20367e-09 -4.34222e-07 1.90584e-05 -1.45427e-07 1.52755e-05)
(1.94962e-05 7.40189e-10 -7.19302e-07 1.94735e-05 -1.46552e-07 1.57515e-05)
(2.01958e-05 -1.10068e-08 -1.00104e-06 2.01521e-05 -1.47077e-07 1.65158e-05)
(2.10446e-05 -1.21397e-08 -1.26337e-06 2.08857e-05 -1.44883e-07 1.74435e-05)
(2.13037e-05 -2.40604e-08 1.27385e-06 2.11881e-05 -4.30748e-07 1.77498e-05)
(2.03984e-05 1.43887e-08 1.00074e-06 2.03778e-05 -4.41248e-07 1.67616e-05)
(1.97574e-05 -6.26853e-10 7.20877e-07 1.97647e-05 -4.39932e-07 1.60445e-05)
(1.93406e-05 5.69725e-09 4.35285e-07 1.93403e-05 -4.36444e-07 1.55649e-05)
(1.90623e-05 1.30265e-09 1.44695e-07 1.90784e-05 -4.34439e-07 1.52783e-05)
(1.90622e-05 -2.21946e-09 -1.45649e-07 1.90786e-05 -4.34313e-07 1.52784e-05)
(1.93397e-05 -6.68185e-09 -4.36152e-07 1.93405e-05 -4.36058e-07 1.55647e-05)
(1.97551e-05 -3.44854e-10 -7.21556e-07 1.97645e-05 -4.39285e-07 1.60437e-05)
(2.03935e-05 -1.51046e-08 -1.0011e-06 2.03762e-05 -4.4037e-07 1.67591e-05)
(2.12971e-05 2.38817e-08 -1.27372e-06 2.11849e-05 -4.29697e-07 1.77455e-05)
(2.20955e-05 1.1173e-07 1.27825e-06 2.20002e-05 -7.16375e-07 1.85408e-05)
(2.08363e-05 4.05571e-08 9.95733e-07 2.07623e-05 -7.29971e-07 1.7237e-05)
(2.02342e-05 7.58103e-09 7.26514e-07 2.02331e-05 -7.27458e-07 1.65631e-05)
(1.97719e-05 -3.62357e-10 4.39018e-07 1.9763e-05 -7.22305e-07 1.60488e-05)
(1.94745e-05 -1.41607e-09 1.45992e-07 1.94981e-05 -7.1946e-07 1.57525e-05)
(1.94742e-05 8.20085e-10 -1.46708e-07 1.94982e-05 -7.19361e-07 1.57525e-05)
(1.9771e-05 -2.56981e-10 -4.39657e-07 1.97632e-05 -7.22e-07 1.60485e-05)
(2.02319e-05 -8.2006e-09 -7.26986e-07 2.02329e-05 -7.26961e-07 1.65621e-05)
(2.08317e-05 -4.09893e-08 -9.95934e-07 2.07606e-05 -7.29302e-07 1.72343e-05)
(2.20891e-05 -1.11586e-07 -1.27811e-06 2.19971e-05 -7.15595e-07 1.85364e-05)
(2.23969e-05 -7.72555e-08 1.27757e-06 2.26847e-05 -9.99436e-07 1.91935e-05)
(2.09594e-05 -3.30531e-08 9.93582e-07 2.09577e-05 -9.94214e-07 1.7602e-05)
(2.0811e-05 4.07372e-08 7.32172e-07 2.08823e-05 -1.00067e-06 1.72692e-05)
(2.03821e-05 1.46275e-08 4.402e-07 2.03999e-05 -1.00184e-06 1.67634e-05)
(2.01528e-05 1.05547e-08 1.46676e-07 2.01973e-05 -1.00121e-06 1.65167e-05)
(2.01527e-05 -1.07799e-08 -1.47198e-07 2.01976e-05 -1.00113e-06 1.65167e-05)
(2.03815e-05 -1.48669e-08 -4.40655e-07 2.04005e-05 -1.00161e-06 1.67633e-05)
(2.08095e-05 -4.10269e-08 -7.325e-07 2.0883e-05 -1.00028e-06 1.72688e-05)