/*--------------------------------*- C++ -*----------------------------------*\
| =========                 |                                                 |
| \\      /  F ield         | OpenFOAM: The Open Source CFD Toolbox           |
|  \\    /   O peration     | Version:  2406                                  |
|   \\  /    A nd           | Website:  www.openfoam.com                      |
|    \\/     M anipulation  |                                                 |
\*---------------------------------------------------------------------------*/
FoamFile
{
    version     2.0;
    format      ascii;
    arch        "LSB;label=32;scalar=64";
    class       volScalarField;
    location    "350";
    object      turbulenceProperties:k;
}
// * * * * * * * * * * * * * * * * * * * * * * * * * * * * * * * * * * * * * //

dimensions      [0 2 -2 0 0 0 0];

internalField   nonuniform List<scalar> 
25000
(
3.77917e-05
3.59826e-05
3.27891e-05
3.2244e-05
3.19564e-05
3.19602e-05
3.22583e-05
3.28331e-05
3.58579e-05
3.75508e-05
3.59954e-05
3.47684e-05
3.1805e-05
3.02556e-05
2.95053e-05
2.95107e-05
3.02727e-05
3.18522e-05
3.48098e-05
3.5857e-05
3.27966e-05
3.18235e-05
2.95313e-05
2.81508e-05
2.74803e-05
2.7484e-05
2.81639e-05
2.95518e-05
3.18387e-05
3.28378e-05
3.22475e-05
3.02584e-05
2.81531e-05
2.679e-05
2.61159e-05
2.61194e-05
2.67974e-05
2.81636e-05
3.02747e-05
3.2264e-05
3.19583e-05
2.95066e-05
2.74804e-05
2.61166e-05
2.5441e-05
2.54426e-05
2.61203e-05
2.74875e-05
2.95157e-05
3.19671e-05
3.1961e-05
2.95104e-05
2.74833e-05
2.61177e-05
2.54421e-05
2.54432e-05
2.61205e-05
2.74875e-05
2.95156e-05
3.19669e-05
3.22588e-05
3.02713e-05
2.8161e-05
2.67962e-05
2.61204e-05
2.61211e-05
2.67981e-05
2.81636e-05
3.02744e-05
3.22632e-05
3.28331e-05
3.18363e-05
2.95501e-05
2.81637e-05
2.74864e-05
2.74869e-05
2.8165e-05
2.95519e-05
3.18383e-05
3.28367e-05
3.58525e-05
3.48074e-05
3.18507e-05
3.02731e-05
2.95143e-05
2.95147e-05
3.02742e-05
3.18524e-05
3.48093e-05
3.58558e-05
3.75506e-05
3.58639e-05
3.28375e-05
3.22631e-05
3.19664e-05
3.19664e-05
3.2263e-05
3.28369e-05
3.58616e-05
3.75522e-05
5.24894e-05
5.05196e-05
4.67515e-05
4.60666e-05
4.57008e-05
4.57066e-05
4.60934e-05
4.68329e-05
5.01603e-05
5.16746e-05
5.05681e-05
4.75284e-05
4.5561e-05
4.47515e-05
4.42344e-05
4.42435e-05
4.47787e-05
4.56576e-05
4.75627e-05
5.0153e-05
4.67896e-05
4.56301e-05
4.3964e-05
4.32788e-05
4.29141e-05
4.29193e-05
4.32993e-05
4.39865e-05
4.56061e-05
4.68431e-05
4.60872e-05
4.47681e-05
4.32919e-05
4.24952e-05
4.20882e-05
4.20955e-05
4.25027e-05
4.32955e-05
4.4782e-05
4.61075e-05
4.57156e-05
4.42487e-05
4.29213e-05
4.2095e-05
4.17042e-05
4.17055e-05
4.20951e-05
4.29269e-05
4.42547e-05
4.57219e-05
4.57164e-05
4.42532e-05
4.29265e-05
4.20951e-05
4.1707e-05
4.17078e-05
4.20963e-05
4.29276e-05
4.42554e-05
4.57215e-05
4.61004e-05
4.47857e-05
4.32992e-05
4.25075e-05
4.2102e-05
4.2102e-05
4.2507e-05
4.32982e-05
4.47835e-05
4.61063e-05
4.68334e-05
4.56125e-05
4.39936e-05
4.33074e-05
4.29304e-05
4.293e-05
4.33058e-05
4.39904e-05
4.56087e-05
4.6841e-05
5.01374e-05
4.75698e-05
4.56654e-05
4.47886e-05
4.42571e-05
4.42567e-05
4.47874e-05
4.56627e-05
4.75655e-05
5.01483e-05
5.16823e-05
5.01814e-05
4.68495e-05
4.61095e-05
4.57229e-05
4.5722e-05
4.61062e-05
4.6844e-05
5.01707e-05
5.16799e-05
4.80349e-05
4.45855e-05
4.24438e-05
4.13382e-05
4.0845e-05
4.08464e-05
4.13556e-05
4.24893e-05
4.44716e-05
4.75615e-05
4.46285e-05
4.15302e-05
4.07098e-05
4.01115e-05
3.96908e-05
3.96958e-05
4.01321e-05
4.08124e-05
4.15603e-05
4.44501e-05
4.24715e-05
4.07887e-05
3.96201e-05
3.89976e-05
3.86108e-05
3.86148e-05
3.90165e-05
3.96337e-05
4.07415e-05
4.24902e-05
4.13522e-05
4.01246e-05
3.90108e-05
3.83487e-05
3.79471e-05
3.79553e-05
3.83549e-05
3.90088e-05
4.01299e-05
4.13629e-05
4.08573e-05
3.96998e-05
3.86155e-05
3.79542e-05
3.76139e-05
3.76152e-05
3.7952e-05
3.86191e-05
3.97022e-05
4.0854e-05
4.0856e-05
3.97032e-05
3.86191e-05
3.79519e-05
3.76161e-05
3.76168e-05
3.79529e-05
3.86196e-05
3.97027e-05
4.08539e-05
4.13638e-05
4.01348e-05
3.90119e-05
3.83581e-05
3.79598e-05
3.79598e-05
3.83577e-05
3.90106e-05
4.01312e-05
4.13624e-05
4.24887e-05
4.07489e-05
3.96396e-05
3.90224e-05
3.86223e-05
3.86218e-05
3.90209e-05
3.96364e-05
4.07435e-05
4.24891e-05
4.44433e-05
4.15676e-05
4.08192e-05
4.01397e-05
3.97049e-05
3.97043e-05
4.01378e-05
4.08159e-05
4.15619e-05
4.44471e-05
4.75647e-05
4.44862e-05
4.25e-05
4.13656e-05
4.08555e-05
4.08545e-05
4.13626e-05
4.24958e-05
4.44777e-05
4.75634e-05
3.63621e-05
3.21979e-05
3.12702e-05
3.01038e-05
2.96884e-05
2.9688e-05
3.01164e-05
3.1322e-05
3.21642e-05
3.60938e-05
3.22316e-05
2.97363e-05
2.93958e-05
2.8759e-05
2.84305e-05
2.84327e-05
2.87729e-05
2.94813e-05
2.9758e-05
3.2135e-05
3.12927e-05
2.94667e-05
2.85079e-05
2.7776e-05
2.73587e-05
2.73616e-05
2.77915e-05
2.8514e-05
2.9414e-05
3.13129e-05
3.01115e-05
2.87693e-05
2.77864e-05
2.71175e-05
2.67016e-05
2.67085e-05
2.71225e-05
2.77819e-05
2.87647e-05
3.01144e-05
2.96952e-05
2.84346e-05
2.73606e-05
2.67067e-05
2.63489e-05
2.63498e-05
2.67036e-05
2.73607e-05
2.8432e-05
2.96871e-05
2.96937e-05
2.84355e-05
2.73619e-05
2.67036e-05
2.63499e-05
2.63502e-05
2.67036e-05
2.73606e-05
2.84319e-05
2.96869e-05
3.01208e-05
2.87689e-05
2.77833e-05
2.71229e-05
2.67095e-05
2.67096e-05
2.71225e-05
2.77816e-05
2.87644e-05
3.01137e-05
3.13182e-05
2.94178e-05
2.85152e-05
2.77919e-05
2.73626e-05
2.73625e-05
2.77913e-05
2.85135e-05
2.94133e-05
3.13113e-05
3.21375e-05
2.97596e-05
2.94813e-05
2.87727e-05
2.84334e-05
2.84335e-05
2.87726e-05
2.94806e-05
2.9757e-05
3.21336e-05
3.60987e-05
3.21672e-05
3.13226e-05
3.01166e-05
2.96884e-05
2.96878e-05
3.01147e-05
3.13202e-05
3.21625e-05
3.60918e-05
2.76933e-05
2.39879e-05
2.33868e-05
2.22807e-05
2.19131e-05
2.19093e-05
2.22768e-05
2.34129e-05
2.39764e-05
2.75417e-05
2.40132e-05
2.19888e-05
2.15226e-05
2.07303e-05
2.04231e-05
2.04223e-05
2.07327e-05
2.15781e-05
2.1984e-05
2.3947e-05
2.34007e-05
2.15804e-05
2.05863e-05
1.96645e-05
1.9209e-05
1.92096e-05
1.9673e-05
2.05826e-05
2.15169e-05
2.33966e-05
2.22773e-05
2.07336e-05
1.96708e-05
1.88648e-05
1.84082e-05
1.84124e-05
1.88655e-05
1.96616e-05
2.07181e-05
2.22654e-05
2.19107e-05
2.04203e-05
1.92073e-05
1.84112e-05
1.79774e-05
1.79771e-05
1.8406e-05
1.9203e-05
2.04122e-05
2.18973e-05
2.1907e-05
2.04182e-05
1.92063e-05
1.84073e-05
1.79771e-05
1.79768e-05
1.84054e-05
1.92024e-05
2.04117e-05
2.18964e-05
2.22737e-05
2.07233e-05
1.96635e-05
1.88657e-05
1.84116e-05
1.84112e-05
1.88641e-05
1.96602e-05
2.07166e-05
2.22637e-05
2.34024e-05
2.15201e-05
2.05827e-05
1.9671e-05
1.92063e-05
1.92059e-05
1.96695e-05
2.05796e-05
2.15143e-05
2.33936e-05
2.39491e-05
2.19841e-05
2.15753e-05
2.07275e-05
2.04157e-05
2.04157e-05
2.07269e-05
2.15736e-05
2.19805e-05
2.3944e-05
2.75417e-05
2.39734e-05
2.3406e-05
2.22682e-05
2.18997e-05
2.19001e-05
2.22682e-05
2.34063e-05
2.39713e-05
2.75381e-05
2.27207e-05
1.98884e-05
1.93357e-05
1.84063e-05
1.80865e-05
1.8081e-05
1.83911e-05
1.93322e-05
1.98665e-05
2.261e-05
1.99141e-05
1.84427e-05
1.78127e-05
1.70011e-05
1.67094e-05
1.6708e-05
1.69996e-05
1.78522e-05
1.84217e-05
1.98463e-05
1.93399e-05
1.78627e-05
1.69203e-05
1.59782e-05
1.55521e-05
1.55515e-05
1.59835e-05
1.69127e-05
1.77945e-05
1.93183e-05
1.8396e-05
1.70016e-05
1.59829e-05
1.51488e-05
1.47154e-05
1.47182e-05
1.51473e-05
1.59726e-05
1.69846e-05
1.83799e-05
1.80783e-05
1.67047e-05
1.55498e-05
1.47179e-05
1.42792e-05
1.42785e-05
1.47127e-05
1.55456e-05
1.66981e-05
1.80672e-05
1.80738e-05
1.67021e-05
1.55479e-05
1.47138e-05
1.42789e-05
1.42789e-05
1.47128e-05
1.55455e-05
1.66979e-05
1.80661e-05
1.83857e-05
1.69888e-05
1.59745e-05
1.51482e-05
1.47186e-05
1.47186e-05
1.51477e-05
1.59727e-05
1.6984e-05
1.83781e-05
1.93221e-05
1.7798e-05
1.69141e-05
1.59829e-05
1.55501e-05
1.55501e-05
1.59819e-05
1.69114e-05
1.7793e-05
1.93152e-05
1.98458e-05
1.84235e-05
1.78511e-05
1.69959e-05
1.67028e-05
1.67026e-05
1.6995e-05
1.78483e-05
1.84183e-05
1.98421e-05
2.26119e-05
1.98711e-05
1.93304e-05
1.83847e-05
1.80712e-05
1.80714e-05
1.83832e-05
1.93275e-05
1.98645e-05
2.26061e-05
2.03484e-05
1.84409e-05
1.79057e-05
1.71059e-05
1.68194e-05
1.68165e-05
1.70965e-05
1.79022e-05
1.84292e-05
2.02768e-05
1.84739e-05
1.74756e-05
1.67555e-05
1.60021e-05
1.57275e-05
1.5729e-05
1.60093e-05
1.6804e-05
1.74625e-05
1.84151e-05
1.79124e-05
1.68083e-05
1.59814e-05
1.51325e-05
1.47737e-05
1.47744e-05
1.51421e-05
1.59806e-05
1.67468e-05
1.78934e-05
1.71021e-05
1.60086e-05
1.51397e-05
1.43947e-05
1.40369e-05
1.40407e-05
1.43956e-05
1.51341e-05
1.59993e-05
1.70935e-05
1.68157e-05
1.57277e-05
1.47742e-05
1.40405e-05
1.36778e-05
1.3678e-05
1.4038e-05
1.47747e-05
1.57284e-05
1.68131e-05
1.68121e-05
1.5726e-05
1.47725e-05
1.40368e-05
1.36785e-05
1.36795e-05
1.40389e-05
1.47753e-05
1.57289e-05
1.68122e-05
1.70925e-05
1.59982e-05
1.5133e-05
1.43964e-05
1.40436e-05
1.40446e-05
1.43991e-05
1.51366e-05
1.60004e-05
1.70921e-05
1.7891e-05
1.67465e-05
1.59806e-05
1.51432e-05
1.47778e-05
1.47791e-05
1.51455e-05
1.59832e-05
1.67482e-05
1.78907e-05
1.84093e-05
1.74609e-05
1.6802e-05
1.60085e-05
1.57304e-05
1.57313e-05
1.60107e-05
1.68043e-05
1.74615e-05
1.84099e-05
2.02815e-05
1.84376e-05
1.7904e-05
1.70956e-05
1.68141e-05
1.68147e-05
1.70951e-05
1.79023e-05
1.84317e-05
2.02727e-05
1.95601e-05
1.83449e-05
1.78107e-05
1.71207e-05
1.68552e-05
1.68539e-05
1.71166e-05
1.78126e-05
1.83458e-05
1.9526e-05
1.83787e-05
1.76686e-05
1.69379e-05
1.62671e-05
1.60006e-05
1.60023e-05
1.6277e-05
1.69912e-05
1.76545e-05
1.83274e-05
1.78208e-05
1.69956e-05
1.62667e-05
1.55098e-05
1.51987e-05
1.51994e-05
1.55197e-05
1.62656e-05
1.69298e-05
1.78007e-05
1.71212e-05
1.62772e-05
1.55191e-05
1.48504e-05
1.45446e-05
1.45487e-05
1.48508e-05
1.55116e-05
1.62668e-05
1.71142e-05
1.68536e-05
1.60027e-05
1.5201e-05
1.45494e-05
1.42488e-05
1.42488e-05
1.45459e-05
1.52007e-05
1.60033e-05
1.68523e-05
1.6851e-05
1.60011e-05
1.5199e-05
1.45457e-05
1.42498e-05
1.42506e-05
1.45471e-05
1.52015e-05
1.60041e-05
1.68519e-05
1.71133e-05
1.62667e-05
1.5512e-05
1.48531e-05
1.45532e-05
1.45537e-05
1.48549e-05
1.55147e-05
1.62687e-05
1.71135e-05
1.77991e-05
1.69314e-05
1.62678e-05
1.55236e-05
1.52052e-05
1.5206e-05
1.55246e-05
1.62692e-05
1.69324e-05
1.77992e-05
1.83224e-05
1.76551e-05
1.6992e-05
1.62795e-05
1.60067e-05
1.60072e-05
1.62804e-05
1.69929e-05
1.76544e-05
1.83227e-05
1.95265e-05
1.83513e-05
1.78136e-05
1.71171e-05
1.68539e-05
1.68544e-05
1.71172e-05
1.78132e-05
1.8348e-05
1.95228e-05
1.92342e-05
1.84332e-05
1.79337e-05
1.73519e-05
1.71043e-05
1.71033e-05
1.73501e-05
1.79389e-05
1.8441e-05
1.92163e-05
1.84671e-05
1.79389e-05
1.72739e-05
1.66882e-05
1.64288e-05
1.64304e-05
1.66997e-05
1.73314e-05
1.79228e-05
1.84174e-05
1.79478e-05
1.73388e-05
1.66895e-05
1.60054e-05
1.57212e-05
1.5722e-05
1.60151e-05
1.6686e-05
1.72655e-05
1.79234e-05
1.73567e-05
1.67042e-05
1.60178e-05
1.54011e-05
1.51201e-05
1.51241e-05
1.53999e-05
1.60059e-05
1.66882e-05
1.7347e-05
1.71063e-05
1.64354e-05
1.57265e-05
1.51262e-05
1.4861e-05
1.48606e-05
1.51205e-05
1.57224e-05
1.64311e-05
1.71019e-05
1.71048e-05
1.64337e-05
1.57241e-05
1.51223e-05
1.48621e-05
1.48621e-05
1.51215e-05
1.5723e-05
1.64318e-05
1.71018e-05
1.73508e-05
1.66925e-05
1.60095e-05
1.54039e-05
1.51291e-05
1.51289e-05
1.54034e-05
1.60083e-05
1.66895e-05
1.73469e-05
1.79275e-05
1.72711e-05
1.66912e-05
1.60205e-05
1.57282e-05
1.57281e-05
1.60193e-05
1.66888e-05
1.72674e-05
1.79231e-05
1.84192e-05
1.79273e-05
1.73351e-05
1.67043e-05
1.64356e-05
1.64352e-05
1.67028e-05
1.73322e-05
1.79222e-05
1.84143e-05
1.92186e-05
1.84458e-05
1.7941e-05
1.73522e-05
1.71048e-05
1.71044e-05
1.73505e-05
1.79381e-05
1.84416e-05
1.92144e-05
1.88468e-05
1.82905e-05
1.7863e-05
1.73778e-05
1.71469e-05
1.71462e-05
1.73772e-05
1.78711e-05
1.83018e-05
1.88395e-05
1.83198e-05
1.79452e-05
1.73772e-05
1.68638e-05
1.66141e-05
1.66155e-05
1.68761e-05
1.74377e-05
1.79278e-05
1.82739e-05
1.78797e-05
1.74463e-05
1.68653e-05
1.62401e-05
1.5973e-05
1.5974e-05
1.62503e-05
1.68614e-05
1.73689e-05
1.78533e-05
1.73838e-05
1.6881e-05
1.6253e-05
1.56801e-05
1.5413e-05
1.54174e-05
1.56791e-05
1.624e-05
1.68631e-05
1.73742e-05
1.71498e-05
1.66195e-05
1.59773e-05
1.54188e-05
1.51764e-05
1.5176e-05
1.54131e-05
1.59735e-05
1.66155e-05
1.71455e-05
1.71485e-05
1.6617e-05
1.59742e-05
1.54142e-05
1.5177e-05
1.51771e-05
1.54138e-05
1.5974e-05
1.66161e-05
1.71457e-05
1.73776e-05
1.68656e-05
1.62419e-05
1.56819e-05
1.54214e-05
1.54214e-05
1.56819e-05
1.6242e-05
1.68642e-05
1.73741e-05
1.7857e-05
1.73724e-05
1.68646e-05
1.6254e-05
1.59788e-05
1.59789e-05
1.62537e-05
1.68637e-05
1.73705e-05
1.78537e-05
1.82757e-05
1.79308e-05
1.744e-05
1.68794e-05
1.66195e-05
1.66193e-05
1.68787e-05
1.74385e-05
1.79278e-05
1.82721e-05
1.88419e-05
1.83052e-05
1.78721e-05
1.73786e-05
1.71471e-05
1.71467e-05
1.73772e-05
1.78696e-05
1.83013e-05
1.88379e-05
1.83597e-05
1.79323e-05
1.75963e-05
1.71924e-05
1.69778e-05
1.69775e-05
1.71925e-05
1.76064e-05
1.79466e-05
1.8357e-05
1.79592e-05
1.77315e-05
1.72589e-05
1.68017e-05
1.65638e-05
1.65656e-05
1.68154e-05
1.73221e-05
1.77152e-05
1.79162e-05
1.7613e-05
1.73297e-05
1.68079e-05
1.623e-05
1.59745e-05
1.59763e-05
1.62412e-05
1.68047e-05
1.72518e-05
1.75871e-05
1.71961e-05
1.68185e-05
1.62426e-05
1.5707e-05
1.54484e-05
1.54532e-05
1.57068e-05
1.62303e-05
1.68013e-05
1.71892e-05
1.69782e-05
1.6567e-05
1.59776e-05
1.54535e-05
1.52255e-05
1.52254e-05
1.54485e-05
1.59751e-05
1.65654e-05
1.69772e-05
1.69768e-05
1.65639e-05
1.59739e-05
1.54486e-05
1.5226e-05
1.52263e-05
1.54491e-05
1.59757e-05
1.6566e-05
1.69777e-05
1.71893e-05
1.68001e-05
1.62297e-05
1.57078e-05
1.54562e-05
1.54566e-05
1.57091e-05
1.62319e-05
1.68023e-05
1.71897e-05
1.7588e-05
1.72513e-05
1.6805e-05
1.62429e-05
1.59797e-05
1.59803e-05
1.62441e-05
1.68068e-05
1.72534e-05
1.75887e-05
1.79174e-05
1.77149e-05
1.73222e-05
1.68171e-05
1.65687e-05
1.6569e-05
1.68182e-05
1.73235e-05
1.7716e-05
1.79167e-05
1.83595e-05
1.79476e-05
1.76064e-05
1.71934e-05
1.69786e-05
1.69785e-05
1.71932e-05
1.76056e-05
1.79464e-05
1.83568e-05
1.78877e-05
1.74559e-05
1.72038e-05
1.68661e-05
1.66677e-05
1.66675e-05
1.68662e-05
1.72147e-05
1.74726e-05
1.78893e-05
1.74827e-05
1.73879e-05
1.69966e-05
1.65838e-05
1.63582e-05
1.63597e-05
1.6597e-05
1.70588e-05
1.737e-05
1.74401e-05
1.72224e-05
1.70687e-05
1.65983e-05
1.60593e-05
1.58119e-05
1.58135e-05
1.60696e-05
1.65931e-05
1.69877e-05
1.71943e-05
1.68705e-05
1.66013e-05
1.60723e-05
1.5567e-05
1.53134e-05
1.5318e-05
1.55656e-05
1.60576e-05
1.65814e-05
1.68624e-05
1.66691e-05
1.63615e-05
1.58152e-05
1.53187e-05
1.50989e-05
1.50984e-05
1.53123e-05
1.58109e-05
1.63579e-05
1.66669e-05
1.66676e-05
1.63579e-05
1.58112e-05
1.53135e-05
1.50991e-05
1.50989e-05
1.53127e-05
1.58112e-05
1.63582e-05
1.66673e-05
1.68632e-05
1.65811e-05
1.6058e-05
1.55668e-05
1.53204e-05
1.53205e-05
1.5567e-05
1.60585e-05
1.65816e-05
1.68626e-05
1.71958e-05
1.69877e-05
1.65938e-05
1.60711e-05
1.5816e-05
1.58161e-05
1.60713e-05
1.65942e-05
1.69883e-05
1.71956e-05
1.74426e-05
1.73704e-05
1.70597e-05
1.65985e-05
1.63619e-05
1.63618e-05
1.65986e-05
1.70595e-05
1.737e-05
1.74412e-05
1.7891e-05
1.74721e-05
1.72145e-05
1.68668e-05
1.66682e-05
1.6668e-05
1.68667e-05
1.72139e-05
1.74717e-05
1.78896e-05
1.75623e-05
1.6942e-05
1.67463e-05
1.64612e-05
1.62792e-05
1.62793e-05
1.64618e-05
1.67579e-05
1.69603e-05
1.75652e-05
1.69699e-05
1.69777e-05
1.66532e-05
1.62779e-05
1.60649e-05
1.60668e-05
1.62919e-05
1.67156e-05
1.69602e-05
1.6928e-05
1.67667e-05
1.67266e-05
1.63035e-05
1.57985e-05
1.55581e-05
1.556e-05
1.58086e-05
1.62974e-05
1.66444e-05
1.67375e-05
1.64669e-05
1.62973e-05
1.58121e-05
1.53331e-05
1.50842e-05
1.50885e-05
1.5331e-05
1.5796e-05
1.62752e-05
1.64578e-05
1.62819e-05
1.60695e-05
1.55622e-05
1.50897e-05
1.48758e-05
1.4875e-05
1.50823e-05
1.55563e-05
1.6064e-05
1.62784e-05
1.62805e-05
1.60658e-05
1.5558e-05
1.50843e-05
1.48758e-05
1.48753e-05
1.50826e-05
1.55565e-05
1.60641e-05
1.62787e-05
1.64597e-05
1.62761e-05
1.57972e-05
1.53325e-05
1.50907e-05
1.50906e-05
1.53319e-05
1.57963e-05
1.62749e-05
1.64576e-05
1.67399e-05
1.6645e-05
1.62986e-05
1.58099e-05
1.55618e-05
1.55617e-05
1.58095e-05
1.62978e-05
1.6644e-05
1.67382e-05
1.69316e-05
1.69613e-05
1.6717e-05
1.62933e-05
1.60683e-05
1.6068e-05
1.62927e-05
1.67156e-05
1.69595e-05
1.69289e-05
1.7568e-05
1.69606e-05
1.67589e-05
1.64629e-05
1.62799e-05
1.62795e-05
1.6462e-05
1.6757e-05
1.69589e-05
1.75656e-05
1.7505e-05
1.64684e-05
1.62777e-05
1.60302e-05
1.58633e-05
1.58634e-05
1.60313e-05
1.62899e-05
1.64878e-05
1.75108e-05
1.64959e-05
1.65494e-05
1.62796e-05
1.59379e-05
1.57369e-05
1.5739e-05
1.59525e-05
1.6342e-05
1.65328e-05
1.64565e-05
1.62989e-05
1.63528e-05
1.59748e-05
1.55009e-05
1.52674e-05
1.52696e-05
1.55114e-05
1.59689e-05
1.62712e-05
1.62703e-05
1.60364e-05
1.59572e-05
1.55144e-05
1.50595e-05
1.48159e-05
1.48204e-05
1.50576e-05
1.54983e-05
1.59351e-05
1.60276e-05
1.58659e-05
1.57409e-05
1.52711e-05
1.48212e-05
1.46128e-05
1.46121e-05
1.4814e-05
1.52655e-05
1.57357e-05
1.5863e-05
1.58643e-05
1.57367e-05
1.52667e-05
1.48157e-05
1.46128e-05
1.46124e-05
1.48143e-05
1.52657e-05
1.57359e-05
1.58631e-05
1.60284e-05
1.59351e-05
1.5499e-05
1.50587e-05
1.48224e-05
1.48223e-05
1.50586e-05
1.54988e-05
1.59348e-05
1.60273e-05
1.62709e-05
1.62709e-05
1.59695e-05
1.55123e-05
1.52712e-05
1.52712e-05
1.55124e-05
1.59695e-05
1.62709e-05
1.62703e-05
1.64582e-05
1.65332e-05
1.63432e-05
1.59536e-05
1.57404e-05
1.57403e-05
1.59535e-05
1.63426e-05
1.65326e-05
1.64571e-05
1.75132e-05
1.6489e-05
1.62917e-05
1.60327e-05
1.58642e-05
1.58639e-05
1.6032e-05
1.62901e-05
1.64873e-05
1.75115e-05
1.76831e-05
1.60981e-05
1.5834e-05
1.56056e-05
1.54511e-05
1.54517e-05
1.56083e-05
1.58485e-05
1.61203e-05
1.76908e-05
1.61268e-05
1.61308e-05
1.59043e-05
1.55936e-05
1.54047e-05
1.54076e-05
1.56104e-05
1.5969e-05
1.61179e-05
1.60901e-05
1.58561e-05
1.59775e-05
1.56433e-05
1.51985e-05
1.49722e-05
1.4975e-05
1.52103e-05
1.56391e-05
1.58988e-05
1.58295e-05
1.56123e-05
1.56138e-05
1.52122e-05
1.478e-05
1.45422e-05
1.4547e-05
1.47788e-05
1.51971e-05
1.55929e-05
1.56052e-05
1.54537e-05
1.5409e-05
1.49761e-05
1.45475e-05
1.43444e-05
1.43439e-05
1.45408e-05
1.49712e-05
1.5405e-05
1.54524e-05
1.54521e-05
1.54049e-05
1.49718e-05
1.45421e-05
1.43445e-05
1.43444e-05
1.45411e-05
1.49715e-05
1.54052e-05
1.54526e-05
1.56045e-05
1.5592e-05
1.51972e-05
1.47796e-05
1.4549e-05
1.45492e-05
1.47799e-05
1.51978e-05
1.55928e-05
1.56051e-05
1.58287e-05
1.58977e-05
1.56392e-05
1.52109e-05
1.49769e-05
1.49771e-05
1.52116e-05
1.56401e-05
1.58989e-05
1.58297e-05
1.60909e-05
1.61178e-05
1.597e-05
1.56116e-05
1.54097e-05
1.54098e-05
1.56121e-05
1.59704e-05
1.61184e-05
1.60911e-05
1.76931e-05
1.61218e-05
1.5851e-05
1.56106e-05
1.54538e-05
1.54538e-05
1.56104e-05
1.58503e-05
1.61211e-05
1.76922e-05
1.76562e-05
1.58957e-05
1.54458e-05
1.52083e-05
1.50606e-05
1.50616e-05
1.52128e-05
1.54631e-05
1.59213e-05
1.76688e-05
1.59247e-05
1.57402e-05
1.5542e-05
1.52597e-05
1.50822e-05
1.50854e-05
1.52775e-05
1.56075e-05
1.57298e-05
1.58907e-05
1.5469e-05
1.56146e-05
1.53221e-05
1.49048e-05
1.46859e-05
1.46889e-05
1.49169e-05
1.53184e-05
1.55377e-05
1.54436e-05
1.52159e-05
1.52801e-05
1.49186e-05
1.4508e-05
1.42763e-05
1.4281e-05
1.45067e-05
1.49033e-05
1.5259e-05
1.52091e-05
1.50635e-05
1.50863e-05
1.46896e-05
1.42815e-05
1.40836e-05
1.40831e-05
1.42746e-05
1.46844e-05
1.50821e-05
1.50623e-05
1.5062e-05
1.50821e-05
1.46853e-05
1.4276e-05
1.40836e-05
1.40834e-05
1.42748e-05
1.46846e-05
1.50822e-05
1.50624e-05
1.52084e-05
1.52582e-05
1.49033e-05
1.45073e-05
1.42828e-05
1.42828e-05
1.45074e-05
1.49036e-05
1.52589e-05
1.5209e-05
1.54425e-05
1.55364e-05
1.53184e-05
1.49172e-05
1.46903e-05
1.46904e-05
1.49176e-05
1.53189e-05
1.55375e-05
1.54436e-05
1.58912e-05
1.57298e-05
1.56083e-05
1.52784e-05
1.5087e-05
1.50871e-05
1.52785e-05
1.56084e-05
1.57301e-05
1.58916e-05
1.76706e-05
1.59225e-05
1.54655e-05
1.52148e-05
1.50635e-05
1.50635e-05
1.52145e-05
1.54648e-05
1.5922e-05
1.767e-05
1.5996e-05
1.58972e-05
1.51427e-05
1.48548e-05
1.47033e-05
1.47046e-05
1.48604e-05
1.51619e-05
1.59256e-05
1.60132e-05
1.59268e-05
1.53934e-05
1.51985e-05
1.49404e-05
1.47735e-05
1.47768e-05
1.49587e-05
1.5264e-05
1.53849e-05
1.58946e-05
1.5166e-05
1.52703e-05
1.50159e-05
1.46243e-05
1.44129e-05
1.44159e-05
1.46362e-05
1.50121e-05
1.51946e-05
1.51417e-05
1.48623e-05
1.4961e-05
1.46381e-05
1.42484e-05
1.40231e-05
1.40277e-05
1.42469e-05
1.46223e-05
1.49395e-05
1.48558e-05
1.47058e-05
1.47775e-05
1.44166e-05
1.40282e-05
1.38357e-05
1.38352e-05
1.40211e-05
1.44109e-05
1.47728e-05
1.47047e-05
1.47044e-05
1.47732e-05
1.4412e-05
1.40226e-05
1.38356e-05
1.38353e-05
1.40212e-05
1.4411e-05
1.47729e-05
1.47047e-05
1.48551e-05
1.49387e-05
1.46223e-05
1.42472e-05
1.40292e-05
1.40292e-05
1.42472e-05
1.46224e-05
1.49392e-05
1.48557e-05
1.51406e-05
1.51933e-05
1.50118e-05
1.46361e-05
1.44167e-05
1.44168e-05
1.46364e-05
1.50121e-05
1.5194e-05
1.51416e-05
1.58952e-05
1.53846e-05
1.52646e-05
1.4959e-05
1.47778e-05
1.47778e-05
1.4959e-05
1.52643e-05
1.53847e-05
1.58953e-05
1.60157e-05
1.59265e-05
1.5164e-05
1.4862e-05
1.47061e-05
1.4706e-05
1.48613e-05
1.51629e-05
1.59257e-05
1.60147e-05
1.15681e-05
1.60282e-05
1.49535e-05
1.45608e-05
1.43898e-05
1.43911e-05
1.45668e-05
1.4974e-05
1.60593e-05
1.15776e-05
1.60578e-05
1.51068e-05
1.48757e-05
1.46353e-05
1.44776e-05
1.44809e-05
1.46532e-05
1.49403e-05
1.50994e-05
1.6028e-05
1.49768e-05
1.49463e-05
1.47228e-05
1.43554e-05
1.41516e-05
1.41545e-05
1.43669e-05
1.47186e-05
1.48715e-05
1.49532e-05
1.45682e-05
1.46556e-05
1.43691e-05
1.39999e-05
1.37812e-05
1.37856e-05
1.3998e-05
1.43527e-05
1.46335e-05
1.45618e-05
1.4392e-05
1.44813e-05
1.41551e-05
1.37862e-05
1.35992e-05
1.35986e-05
1.37789e-05
1.41491e-05
1.44763e-05
1.43909e-05
1.43905e-05
1.44766e-05
1.41502e-05
1.37804e-05
1.3599e-05
1.35987e-05
1.3779e-05
1.41492e-05
1.44763e-05
1.43909e-05
1.45609e-05
1.46326e-05
1.43525e-05
1.39982e-05
1.37869e-05
1.3787e-05
1.39983e-05
1.43529e-05
1.46334e-05
1.45617e-05
1.49517e-05
1.487e-05
1.47181e-05
1.43666e-05
1.41551e-05
1.41553e-05
1.4367e-05
1.47187e-05
1.48711e-05
1.4953e-05
1.60281e-05
1.5099e-05
1.49408e-05
1.46535e-05
1.44816e-05
1.44816e-05
1.46535e-05
1.49407e-05
1.50993e-05
1.60286e-05
1.15804e-05
1.60602e-05
1.49759e-05
1.45682e-05
1.43923e-05
1.43922e-05
1.45676e-05
1.49748e-05
1.60595e-05
1.1579e-05
2.52056e-05
1.59279e-05
1.4892e-05
1.4344e-05
1.41335e-05
1.41351e-05
1.43512e-05
1.49146e-05
1.59626e-05
2.51365e-05
1.59581e-05
1.4897e-05
1.45777e-05
1.43443e-05
1.41945e-05
1.4198e-05
1.4363e-05
1.46429e-05
1.48919e-05
1.59322e-05
1.49155e-05
1.46475e-05
1.44424e-05
1.40974e-05
1.39016e-05
1.39048e-05
1.41093e-05
1.44387e-05
1.45747e-05
1.48933e-05
1.43513e-05
1.43645e-05
1.4111e-05
1.37621e-05
1.35503e-05
1.35548e-05
1.37604e-05
1.4095e-05
1.4343e-05
1.43456e-05
1.4135e-05
1.41977e-05
1.3905e-05
1.35552e-05
1.3374e-05
1.33735e-05
1.35482e-05
1.38993e-05
1.41934e-05
1.41349e-05
1.41334e-05
1.41928e-05
1.38998e-05
1.35493e-05
1.33738e-05
1.33737e-05
1.35483e-05
1.38995e-05
1.41935e-05
1.4135e-05
1.43436e-05
1.43411e-05
1.40941e-05
1.37601e-05
1.35559e-05
1.35562e-05
1.37608e-05
1.40952e-05
1.4343e-05
1.43458e-05
1.48908e-05
1.45721e-05
1.44373e-05
1.41084e-05
1.39052e-05
1.39056e-05
1.41095e-05
1.4439e-05
1.45745e-05
1.48934e-05
1.59315e-05
1.48905e-05
1.46425e-05
1.43627e-05
1.41987e-05
1.4199e-05
1.43635e-05
1.46436e-05
1.48922e-05
1.59334e-05
2.51389e-05
1.5963e-05
1.4916e-05
1.43523e-05
1.41366e-05
1.41367e-05
1.43522e-05
1.49157e-05
1.59633e-05
2.51341e-05
7.91092e-05
1.47361e-05
1.4919e-05
1.42208e-05
1.39512e-05
1.39525e-05
1.42276e-05
1.49414e-05
1.47694e-05
7.89772e-05
1.47647e-05
1.47701e-05
1.43159e-05
1.40716e-05
1.39261e-05
1.39292e-05
1.4089e-05
1.43787e-05
1.47641e-05
1.47425e-05
1.49428e-05
1.43846e-05
1.41763e-05
1.38513e-05
1.36631e-05
1.36659e-05
1.38619e-05
1.41709e-05
1.43106e-05
1.49191e-05
1.42281e-05
1.40917e-05
1.3865e-05
1.35355e-05
1.33304e-05
1.33344e-05
1.35325e-05
1.38471e-05
1.4068e-05
1.42206e-05
1.39523e-05
1.39294e-05
1.36668e-05
1.33354e-05
1.31598e-05
1.31588e-05
1.33272e-05
1.36593e-05
1.3923e-05
1.39507e-05
1.39503e-05
1.39241e-05
1.36614e-05
1.33294e-05
1.31594e-05
1.31589e-05
1.33271e-05
1.36593e-05
1.39229e-05
1.39506e-05
1.42193e-05
1.40672e-05
1.38474e-05
1.3533e-05
1.33355e-05
1.33353e-05
1.35325e-05
1.3847e-05
1.40678e-05
1.42206e-05
1.49169e-05
1.43087e-05
1.41701e-05
1.38614e-05
1.3666e-05
1.3666e-05
1.38615e-05
1.41706e-05
1.43101e-05
1.49189e-05
1.47418e-05
1.47626e-05
1.43782e-05
1.40885e-05
1.39291e-05
1.39292e-05
1.40888e-05
1.43787e-05
1.47639e-05
1.47432e-05
7.89765e-05
1.47693e-05
1.49418e-05
1.42276e-05
1.39528e-05
1.39529e-05
1.42278e-05
1.49421e-05
1.47698e-05
7.89723e-05
0.000186193
1.19833e-05
1.48482e-05
1.41727e-05
1.38421e-05
1.38427e-05
1.41777e-05
1.4867e-05
1.20073e-05
0.000185972
1.20096e-05
1.46776e-05
1.41002e-05
1.38192e-05
1.36728e-05
1.36753e-05
1.38347e-05
1.41588e-05
1.46673e-05
1.19874e-05
1.48734e-05
1.41696e-05
1.39257e-05
1.36164e-05
1.3435e-05
1.34371e-05
1.36247e-05
1.39162e-05
1.40909e-05
1.48454e-05
1.41825e-05
1.38422e-05
1.36316e-05
1.33197e-05
1.31206e-05
1.31238e-05
1.33143e-05
1.36094e-05
1.38127e-05
1.41697e-05
1.38462e-05
1.36799e-05
1.34413e-05
1.31268e-05
1.29561e-05
1.29544e-05
1.3116e-05
1.34294e-05
1.36678e-05
1.38397e-05
1.38438e-05
1.36744e-05
1.34358e-05
1.31209e-05
1.29559e-05
1.29544e-05
1.31159e-05
1.34293e-05
1.36676e-05
1.38396e-05
1.41726e-05
1.38172e-05
1.36138e-05
1.33173e-05
1.31259e-05
1.31248e-05
1.33141e-05
1.3609e-05
1.38123e-05
1.41696e-05
1.48473e-05
1.40937e-05
1.39191e-05
1.36264e-05
1.34381e-05
1.34372e-05
1.3624e-05
1.39155e-05
1.409e-05
1.48444e-05
1.19906e-05
1.46696e-05
1.41612e-05
1.3836e-05
1.36758e-05
1.36752e-05
1.3834e-05
1.41583e-05
1.46665e-05
1.19876e-05
0.000185972
1.201e-05
1.4869e-05
1.41788e-05
1.38434e-05
1.38431e-05
1.41778e-05
1.4868e-05
1.20081e-05
0.000185965
0.00036427
1.72927e-05
1.42222e-05
1.41084e-05
1.37727e-05
1.3773e-05
1.41123e-05
1.42363e-05
1.7308e-05
0.000363944
1.73147e-05
1.4459e-05
1.39342e-05
1.35882e-05
1.34349e-05
1.34378e-05
1.36043e-05
1.39929e-05
1.44493e-05
1.72714e-05
1.42457e-05
1.40032e-05
1.36851e-05
1.33875e-05
1.32135e-05
1.32159e-05
1.33966e-05
1.36765e-05
1.39252e-05
1.42189e-05
1.41193e-05
1.36114e-05
1.34028e-05
1.31086e-05
1.29168e-05
1.29203e-05
1.3104e-05
1.33815e-05
1.35824e-05
1.41052e-05
1.37782e-05
1.34426e-05
1.322e-05
1.29231e-05
1.27587e-05
1.27572e-05
1.29131e-05
1.3209e-05
1.34307e-05
1.37706e-05
1.3776e-05
1.34376e-05
1.32153e-05
1.29179e-05
1.27591e-05
1.27578e-05
1.29134e-05
1.32092e-05
1.34308e-05
1.37706e-05
1.41103e-05
1.35888e-05
1.33871e-05
1.31083e-05
1.29238e-05
1.29227e-05
1.3105e-05
1.33822e-05
1.35829e-05
1.41054e-05
1.4224e-05
1.39314e-05
1.36819e-05
1.34005e-05
1.32192e-05
1.32182e-05
1.33976e-05
1.36772e-05
1.39256e-05
1.42178e-05
1.72678e-05
1.44561e-05
1.39984e-05
1.36083e-05
1.34407e-05
1.34397e-05
1.36053e-05
1.39937e-05
1.445e-05
1.72742e-05
0.000363949
1.73009e-05
1.42446e-05
1.41171e-05
1.37759e-05
1.37749e-05
1.4114e-05
1.42402e-05
1.73072e-05
0.000363937
0.000622437
4.62348e-05
1.25173e-05
1.3795e-05
1.36321e-05
1.36338e-05
1.3803e-05
1.25356e-05
4.62658e-05
0.000622015
4.62869e-05
1.37989e-05
1.38138e-05
1.33848e-05
1.3217e-05
1.32217e-05
1.34064e-05
1.38802e-05
1.38007e-05
4.61681e-05
1.25376e-05
1.38826e-05
1.34614e-05
1.31669e-05
1.29999e-05
1.30041e-05
1.31806e-05
1.34595e-05
1.38134e-05
1.25251e-05
1.38053e-05
1.34078e-05
1.31818e-05
1.29036e-05
1.27201e-05
1.2725e-05
1.29033e-05
1.31668e-05
1.33863e-05
1.37991e-05
1.36362e-05
1.32235e-05
1.30054e-05
1.27256e-05
1.25684e-05
1.25683e-05
1.27196e-05
1.30002e-05
1.32186e-05
1.36356e-05
1.36351e-05
1.32194e-05
1.30015e-05
1.27212e-05
1.25694e-05
1.25694e-05
1.27204e-05
1.3001e-05
1.32195e-05
1.36364e-05
1.38e-05
1.33877e-05
1.31685e-05
1.29056e-05
1.27287e-05
1.2729e-05
1.29061e-05
1.31695e-05
1.33889e-05
1.38015e-05
1.25264e-05
1.38162e-05
1.34624e-05
1.31835e-05
1.30087e-05
1.30091e-05
1.31844e-05
1.34635e-05
1.38173e-05
1.25273e-05
4.61582e-05
1.38048e-05
1.3884e-05
1.34102e-05
1.32271e-05
1.32275e-05
1.34112e-05
1.38851e-05
1.38066e-05
4.61637e-05
0.000622011
4.62359e-05
1.25454e-05
1.38102e-05
1.36402e-05
1.36399e-05
1.38091e-05
1.25449e-05
4.62437e-05
0.000621996
0.000956815
0.000104853
1.20001e-05
1.28703e-05
1.3177e-05
1.31798e-05
1.28807e-05
1.20186e-05
0.000104912
0.000956363
0.000104965
1.24439e-05
1.37078e-05
1.32121e-05
1.30203e-05
1.3026e-05
1.32367e-05
1.37794e-05
1.24539e-05
0.00010472
1.20174e-05
1.37762e-05
1.32606e-05
1.29537e-05
1.27907e-05
1.27957e-05
1.29701e-05
1.32634e-05
1.37135e-05
1.19966e-05
1.28791e-05
1.32343e-05
1.2968e-05
1.27016e-05
1.25252e-05
1.25308e-05
1.27037e-05
1.29569e-05
1.32173e-05
1.2879e-05
1.318e-05
1.30248e-05
1.27945e-05
1.25297e-05
1.23789e-05
1.23794e-05
1.25256e-05
1.27925e-05
1.3024e-05
1.31835e-05
1.31789e-05
1.30203e-05
1.27901e-05
1.25248e-05
1.23792e-05
1.23798e-05
1.25259e-05
1.27927e-05
1.30242e-05
1.3184e-05
1.28742e-05
1.32126e-05
1.29534e-05
1.2702e-05
1.25321e-05
1.25332e-05
1.27046e-05
1.29578e-05
1.32183e-05
1.28799e-05
1.19919e-05
1.37085e-05
1.326e-05
1.29685e-05
1.27973e-05
1.27984e-05
1.29717e-05
1.3265e-05
1.37149e-05
1.19979e-05
0.000104723
1.24477e-05
1.37761e-05
1.32356e-05
1.30283e-05
1.30295e-05
1.3239e-05
1.37816e-05
1.2455e-05
0.000104715
0.000956339
0.000104877
1.20139e-05
1.28824e-05
1.31833e-05
1.31843e-05
1.28851e-05
1.20113e-05
0.000104872
0.000956342
0.00135235
0.000203103
2.36244e-05
1.1481e-05
1.21374e-05
1.21407e-05
1.14899e-05
2.36438e-05
0.000203194
0.00135195
0.000203287
1.14585e-05
1.35288e-05
1.30643e-05
1.28477e-05
1.28534e-05
1.30891e-05
1.36006e-05
1.14616e-05
0.000202892
2.36579e-05
1.35958e-05
1.30943e-05
1.27545e-05
1.25913e-05
1.25965e-05
1.27713e-05
1.30983e-05
1.35367e-05
2.35774e-05
1.14886e-05
1.30853e-05
1.27679e-05
1.25082e-05
1.23384e-05
1.2344e-05
1.25106e-05
1.27577e-05
1.30692e-05
1.14858e-05
1.21403e-05
1.28505e-05
1.25939e-05
1.23422e-05
1.21976e-05
1.21981e-05
1.23381e-05