/*--------------------------------*- C++ -*----------------------------------*\
| =========                 |                                                 |
| \\      /  F ield         | OpenFOAM: The Open Source CFD Toolbox           |
|  \\    /   O peration     | Version:  2406                                  |
|   \\  /    A nd           | Website:  www.openfoam.com                      |
|    \\/     M anipulation  |                                                 |
\*---------------------------------------------------------------------------*/
FoamFile
{
    version     2.0;
    format      ascii;
    arch        "LSB;label=32;scalar=64";
    class       volScalarField;
    location    "350";
    object      turbulenceProperties:epsilon;
}
// * * * * * * * * * * * * * * * * * * * * * * * * * * * * * * * * * * * * * //

dimensions      [0 2 -3 0 0 0 0];

internalField   nonuniform List<scalar> 
25000
(
1.08726e-06
9.85551e-07
8.1832e-07
7.91309e-07
7.77245e-07
7.77431e-07
7.92012e-07
8.20515e-07
9.78724e-07
1.07344e-06
9.86248e-07
9.20064e-07
7.69866e-07
6.9666e-07
6.62529e-07
6.62768e-07
6.97449e-07
7.72143e-07
9.22255e-07
9.78682e-07
8.18696e-07
7.70751e-07
6.63687e-07
6.0307e-07
5.74676e-07
5.7483e-07
6.03633e-07
6.64608e-07
7.71499e-07
8.2075e-07
7.91484e-07
6.96788e-07
6.03168e-07
5.46158e-07
5.19013e-07
5.19151e-07
5.46462e-07
6.03618e-07
6.9754e-07
7.92292e-07
7.77338e-07
6.62587e-07
5.74681e-07
5.19041e-07
4.92524e-07
4.92587e-07
5.19188e-07
5.74977e-07
6.62994e-07
7.77767e-07
7.7747e-07
6.62756e-07
5.74802e-07
5.19082e-07
4.92568e-07
4.92609e-07
5.19197e-07
5.74978e-07
6.62988e-07
7.77754e-07
7.92035e-07
6.97383e-07
6.03509e-07
5.46412e-07
5.19192e-07
5.1922e-07
5.46489e-07
6.0362e-07
6.97525e-07
7.92252e-07
8.20518e-07
7.71382e-07
6.64529e-07
6.03622e-07
5.74931e-07
5.74952e-07
6.0368e-07
6.6461e-07
7.71478e-07
8.20696e-07
9.78436e-07
9.2213e-07
7.72069e-07
6.97466e-07
6.62929e-07
6.6295e-07
6.9752e-07
7.72153e-07
9.22231e-07
9.78616e-07
1.07343e-06
9.79054e-07
8.20737e-07
7.92246e-07
7.7773e-07
7.77732e-07
7.92243e-07
8.20706e-07
9.78929e-07
1.07352e-06
2.099e-06
1.94397e-06
1.66453e-06
1.61598e-06
1.59035e-06
1.59076e-06
1.61786e-06
1.67033e-06
1.91639e-06
2.03434e-06
1.94768e-06
1.72016e-06
1.58047e-06
1.52468e-06
1.48959e-06
1.4902e-06
1.52653e-06
1.58713e-06
1.72265e-06
1.91586e-06
1.66724e-06
1.58522e-06
1.47137e-06
1.42578e-06
1.4018e-06
1.40214e-06
1.42712e-06
1.47288e-06
1.5836e-06
1.67106e-06
1.61743e-06
1.52581e-06
1.42664e-06
1.3745e-06
1.34824e-06
1.34871e-06
1.37498e-06
1.42688e-06
1.52676e-06
1.61885e-06
1.59139e-06
1.49055e-06
1.40227e-06
1.34868e-06
1.32368e-06
1.32376e-06
1.34868e-06
1.40263e-06
1.49095e-06
1.59182e-06
1.59145e-06
1.49085e-06
1.4026e-06
1.34869e-06
1.32386e-06
1.32391e-06
1.34876e-06
1.40268e-06
1.491e-06
1.5918e-06
1.61835e-06
1.52701e-06
1.42712e-06
1.37529e-06
1.34912e-06
1.34912e-06
1.37525e-06
1.42706e-06
1.52686e-06
1.61877e-06
1.67037e-06
1.58405e-06
1.47335e-06
1.42766e-06
1.40286e-06
1.40284e-06
1.42755e-06
1.47314e-06
1.58378e-06
1.67091e-06
1.91467e-06
1.72316e-06
1.58767e-06
1.52721e-06
1.49112e-06
1.49109e-06
1.52713e-06
1.58748e-06
1.72285e-06
1.9155e-06
2.03494e-06
1.91801e-06
1.67152e-06
1.619e-06
1.59189e-06
1.59183e-06
1.61876e-06
1.67112e-06
1.91719e-06
2.03476e-06
1.75857e-06
1.51477e-06
1.37249e-06
1.30178e-06
1.27084e-06
1.27092e-06
1.30288e-06
1.37543e-06
1.50703e-06
1.72408e-06
1.51768e-06
1.3139e-06
1.26225e-06
1.22528e-06
1.19964e-06
1.19994e-06
1.22653e-06
1.26857e-06
1.3158e-06
1.50558e-06
1.37428e-06
1.2671e-06
1.1953e-06
1.15793e-06
1.135e-06
1.13524e-06
1.15904e-06
1.19612e-06
1.26422e-06
1.37549e-06
1.30266e-06
1.22607e-06
1.1587e-06
1.11956e-06
1.09617e-06
1.09664e-06
1.11992e-06
1.15859e-06
1.2264e-06
1.30334e-06
1.2716e-06
1.20018e-06
1.13528e-06
1.09658e-06
1.07691e-06
1.07699e-06
1.09645e-06
1.13549e-06
1.20033e-06
1.2714e-06
1.27153e-06
1.20039e-06
1.13549e-06
1.09645e-06
1.07704e-06
1.07708e-06
1.09651e-06
1.13552e-06
1.20036e-06
1.27139e-06
1.30339e-06
1.2267e-06
1.15878e-06
1.12011e-06
1.0969e-06
1.0969e-06
1.12009e-06
1.1587e-06
1.22648e-06
1.30331e-06
1.3754e-06
1.26468e-06
1.19648e-06
1.15939e-06
1.13568e-06
1.13565e-06
1.1593e-06
1.19628e-06
1.26434e-06
1.37542e-06
1.50512e-06
1.31626e-06
1.26899e-06
1.227e-06
1.20049e-06
1.20046e-06
1.22688e-06
1.26879e-06
1.3159e-06
1.50538e-06
1.72431e-06
1.50802e-06
1.37613e-06
1.30351e-06
1.27149e-06
1.27143e-06
1.30332e-06
1.37585e-06
1.50744e-06
1.72422e-06
1.00776e-06
7.90157e-07
7.45184e-07
6.90561e-07
6.71599e-07
6.71583e-07
6.9114e-07
7.47656e-07
7.88501e-07
9.92947e-07
7.91808e-07
6.73799e-07
6.58323e-07
6.30024e-07
6.1567e-07
6.15768e-07
6.3063e-07
6.62131e-07
6.74783e-07
7.87073e-07
7.46257e-07
6.61476e-07
6.18984e-07
5.87542e-07
5.69974e-07
5.70098e-07
5.88191e-07
6.19252e-07
6.59141e-07
7.47223e-07
6.90914e-07
6.30473e-07
5.87976e-07
5.59916e-07
5.42832e-07
5.4311e-07
5.60122e-07
5.87789e-07
6.30276e-07
6.91046e-07
6.71909e-07
6.15847e-07
5.70055e-07
5.43038e-07
5.28529e-07
5.28565e-07
5.42913e-07
5.70059e-07
6.15737e-07
6.71541e-07
6.71841e-07
6.15886e-07
5.70108e-07
5.42913e-07
5.28566e-07
5.28579e-07
5.42915e-07
5.70053e-07
6.1573e-07
6.71532e-07
6.91341e-07
6.30459e-07
5.87849e-07
5.60139e-07
5.4315e-07
5.43156e-07
5.60122e-07
5.87779e-07
6.30261e-07
6.91017e-07
7.47478e-07
6.59308e-07
6.19304e-07
5.88207e-07
5.70136e-07
5.70132e-07
5.88185e-07
6.19228e-07
6.59106e-07
7.47145e-07
7.87196e-07
6.74856e-07
6.6213e-07
6.30622e-07
6.15797e-07
6.15799e-07
6.30619e-07
6.62103e-07
6.74738e-07
7.87004e-07
9.93212e-07
7.88645e-07
7.47685e-07
6.91149e-07
6.716e-07
6.71575e-07
6.91062e-07
7.47571e-07
7.88415e-07
9.92833e-07
5.84336e-07
4.38581e-07
4.16877e-07
3.78351e-07
3.65957e-07
3.65832e-07
3.78221e-07
4.17808e-07
4.38163e-07
5.77957e-07
4.39508e-07
3.68502e-07
3.5298e-07
3.27426e-07
3.17771e-07
3.17747e-07
3.275e-07
3.54791e-07
3.68341e-07
4.37086e-07
4.1737e-07
3.54865e-07
3.22848e-07
2.94542e-07
2.81031e-07
2.81047e-07
2.94795e-07
3.22733e-07
3.52794e-07
4.17226e-07
3.78237e-07
3.27529e-07
2.94727e-07
2.71019e-07
2.58036e-07
2.58151e-07
2.71041e-07
2.94454e-07
3.2704e-07
3.77834e-07
3.65877e-07
3.17685e-07
2.8098e-07
2.58117e-07
2.46068e-07
2.46057e-07
2.57973e-07
2.80854e-07
3.17433e-07
3.65429e-07
3.65752e-07
3.1762e-07
2.80952e-07
2.5801e-07
2.46059e-07
2.4605e-07
2.57958e-07
2.80838e-07
3.17416e-07
3.65399e-07
3.78115e-07
3.27205e-07
2.94512e-07
2.71044e-07
2.58128e-07
2.58117e-07
2.70999e-07
2.94412e-07
3.26995e-07
3.77776e-07
4.17431e-07
3.52899e-07
3.22736e-07
2.94733e-07
2.80951e-07
2.80941e-07
2.9469e-07
3.22638e-07
3.52709e-07
4.17117e-07
4.37163e-07
3.68346e-07
3.54697e-07
3.27336e-07
3.17542e-07
3.1754e-07
3.27317e-07
3.54642e-07
3.68223e-07
4.36979e-07
5.77956e-07
4.38053e-07
4.17559e-07
3.77927e-07
3.6551e-07
3.65524e-07
3.77929e-07
4.17571e-07
4.37977e-07
5.77804e-07
3.93056e-07
3.01428e-07
2.84963e-07
2.58229e-07
2.4933e-07
2.49179e-07
2.57803e-07
2.8486e-07
3.00769e-07
3.89236e-07
3.02212e-07
2.59252e-07
2.41817e-07
2.20258e-07
2.12748e-07
2.12714e-07
2.20218e-07
2.42883e-07
2.58662e-07
3.00152e-07
2.85087e-07
2.43169e-07
2.18138e-07
1.94495e-07
1.84243e-07
1.8423e-07
1.94622e-07
2.17943e-07
2.41321e-07
2.8445e-07
2.57942e-07
2.20269e-07
1.94608e-07
1.7479e-07
1.64915e-07
1.64977e-07
1.74756e-07
1.94359e-07
2.19829e-07
2.57489e-07
2.49105e-07
2.12628e-07
1.84188e-07
1.6497e-07
1.5526e-07
1.55245e-07
1.64856e-07
1.84089e-07
2.1246e-07
2.48798e-07
2.48982e-07
2.12563e-07
1.84144e-07
1.64878e-07
1.55253e-07
1.55253e-07
1.64856e-07
1.84087e-07
2.12456e-07
2.48769e-07
2.57651e-07
2.19938e-07
1.94406e-07
1.74776e-07
1.64987e-07
1.64986e-07
1.74766e-07
1.94361e-07
2.19815e-07
2.57439e-07
2.8456e-07
2.41418e-07
2.17977e-07
1.94607e-07
1.84195e-07
1.84195e-07
1.94584e-07
2.1791e-07
2.41282e-07
2.8436e-07
3.00138e-07
2.58713e-07
2.42853e-07
2.20122e-07
2.12581e-07
2.12576e-07
2.20097e-07
2.42779e-07
2.58567e-07
3.00025e-07
3.89302e-07
3.00908e-07
2.84806e-07
2.57625e-07
2.48909e-07
2.48914e-07
2.5758e-07
2.8472e-07
3.00708e-07
3.89102e-07
3.14933e-07
2.59045e-07
2.4434e-07
2.23026e-07
2.15622e-07
2.15546e-07
2.22779e-07
2.44244e-07
2.58722e-07
3.12719e-07
2.59979e-07
2.3277e-07
2.13982e-07
1.95157e-07
1.88504e-07
1.88541e-07
1.95332e-07
2.15219e-07
2.3242e-07
2.58321e-07
2.44524e-07
2.1533e-07
1.94629e-07
1.74477e-07
1.66285e-07
1.66302e-07
1.74697e-07
1.94609e-07
2.13761e-07
2.44003e-07
2.22925e-07
1.95313e-07
1.74642e-07
1.57842e-07
1.50077e-07
1.50157e-07
1.57863e-07
1.74512e-07
1.95087e-07
2.22701e-07
2.15527e-07
1.88509e-07
1.66297e-07
1.50153e-07
1.42474e-07
1.42478e-07
1.501e-07
1.66309e-07
1.88527e-07
2.15459e-07
2.15435e-07
1.88468e-07
1.66257e-07
1.50075e-07
1.42488e-07
1.4251e-07
1.5012e-07
1.66322e-07
1.88539e-07
2.15437e-07
2.22675e-07
1.95062e-07
1.74489e-07
1.57879e-07
1.50219e-07
1.50241e-07
1.57939e-07
1.74571e-07
1.95115e-07
2.22666e-07
2.43937e-07
2.13753e-07
1.94608e-07
1.74723e-07
1.66378e-07
1.66406e-07
1.74774e-07
1.94672e-07
2.13795e-07
2.43929e-07
2.58158e-07
2.32378e-07
2.15169e-07
1.95311e-07
1.88574e-07
1.88595e-07
1.95366e-07
2.15229e-07
2.32394e-07
2.58174e-07
3.12866e-07
2.58958e-07
2.44293e-07
2.22756e-07
2.15486e-07
2.15501e-07
2.22744e-07
2.44248e-07
2.58793e-07
3.12593e-07
2.90601e-07
2.56198e-07
2.41686e-07
2.23381e-07
2.16521e-07
2.16488e-07
2.23275e-07
2.41742e-07
2.56234e-07
2.89591e-07
2.57153e-07
2.37908e-07
2.18673e-07
2.01688e-07
1.95125e-07
1.95169e-07
2.01933e-07
2.20051e-07
2.37528e-07
2.55709e-07
2.41964e-07
2.20165e-07
2.01662e-07
1.83307e-07
1.76012e-07
1.76028e-07
1.83541e-07
2.01633e-07
2.18463e-07
2.41416e-07
2.23395e-07
2.01938e-07
1.83527e-07
1.68017e-07
1.61148e-07
1.61238e-07
1.68025e-07
1.83349e-07
2.01681e-07
2.23211e-07
2.16481e-07
1.95178e-07
1.76066e-07
1.61254e-07
1.54634e-07
1.54635e-07
1.61179e-07
1.76058e-07
1.95192e-07
2.16448e-07
2.16413e-07
1.95139e-07
1.76018e-07
1.61173e-07
1.54657e-07
1.54674e-07
1.61204e-07
1.76076e-07
1.95211e-07
2.16437e-07
2.23187e-07
2.0168e-07
1.83359e-07
1.68078e-07
1.61338e-07
1.6135e-07
1.68118e-07
1.83423e-07
2.01728e-07
2.23193e-07
2.41372e-07
2.18504e-07
2.01688e-07
1.83632e-07
1.76163e-07
1.7618e-07
1.83657e-07
2.01724e-07
2.18529e-07
2.41374e-07
2.5557e-07
2.37545e-07
2.20071e-07
2.01997e-07
1.95275e-07
1.95286e-07
2.02017e-07
2.20093e-07
2.37525e-07
2.55578e-07
2.89606e-07
2.56386e-07
2.41768e-07
2.23286e-07
2.16488e-07
2.16502e-07
2.23289e-07
2.41758e-07
2.56295e-07
2.89496e-07
2.80524e-07
2.58461e-07
2.44935e-07
2.29398e-07
2.22928e-07
2.22904e-07
2.29352e-07
2.45081e-07
2.58692e-07
2.80003e-07
2.59424e-07
2.45183e-07
2.27424e-07
2.12273e-07
2.05722e-07
2.05762e-07
2.12565e-07
2.28944e-07
2.44743e-07
2.58017e-07
2.45324e-07
2.29138e-07
2.12295e-07
1.95228e-07
1.88342e-07
1.8836e-07
1.95463e-07
2.12208e-07
2.27202e-07
2.44652e-07
2.29525e-07
2.1268e-07
1.95529e-07
1.80727e-07
1.74172e-07
1.74265e-07
1.807e-07
1.9524e-07
2.12271e-07
2.29268e-07
2.22982e-07
2.05886e-07
1.88468e-07
1.74313e-07
1.68226e-07
1.68215e-07
1.74182e-07
1.8837e-07
2.0578e-07
2.22866e-07
2.22943e-07
2.05844e-07
1.8841e-07
1.74223e-07
1.6825e-07
1.68251e-07
1.74205e-07
1.88385e-07
2.05796e-07
2.22865e-07
2.2937e-07
2.12381e-07
1.95327e-07
1.80795e-07
1.74379e-07
1.74374e-07
1.80783e-07
1.95299e-07
2.12306e-07
2.29265e-07
2.44765e-07
2.2735e-07
2.12339e-07
1.95597e-07
1.88508e-07
1.88505e-07
1.95566e-07
2.12279e-07
2.27251e-07
2.44646e-07
2.58067e-07
2.44868e-07
2.29041e-07
2.1268e-07
2.05892e-07
2.05881e-07
2.12644e-07
2.28966e-07
2.44729e-07
2.57928e-07
2.80069e-07
2.58826e-07
2.45139e-07
2.29406e-07
2.22941e-07
2.22932e-07
2.29362e-07
2.45059e-07
2.58708e-07
2.79946e-07
2.6881e-07
2.54216e-07
2.42871e-07
2.30003e-07
2.23979e-07
2.23961e-07
2.29988e-07
2.43098e-07
2.54545e-07
2.68604e-07
2.55046e-07
2.4527e-07
2.30128e-07
2.16759e-07
2.1039e-07
2.10427e-07
2.17076e-07
2.31741e-07
2.44797e-07
2.53753e-07
2.43333e-07
2.31967e-07
2.168e-07
2.01011e-07
1.94438e-07
1.94464e-07
2.01261e-07
2.16701e-07
2.29906e-07
2.42609e-07
2.30162e-07
2.17201e-07
2.01329e-07
1.87353e-07
1.81003e-07
1.81107e-07
1.87329e-07
2.01009e-07
2.16741e-07
2.29906e-07
2.24055e-07
2.10529e-07
1.94545e-07
1.81138e-07
1.75458e-07
1.75449e-07
1.81005e-07
1.94452e-07
2.10426e-07
2.23944e-07
2.24021e-07
2.10465e-07
1.94469e-07
1.81033e-07
1.75473e-07
1.75476e-07
1.81023e-07
1.94465e-07
2.10442e-07
2.23949e-07
2.29998e-07
2.16806e-07
2.01056e-07
1.87395e-07
1.81199e-07
1.812e-07
1.87397e-07
2.01057e-07
2.16769e-07
2.29905e-07
2.42708e-07
2.3e-07
2.16782e-07
2.01354e-07
1.94581e-07
1.94583e-07
2.01346e-07
2.1676e-07
2.2995e-07
2.4262e-07
2.53805e-07
2.44876e-07
2.31801e-07
2.1716e-07
2.10528e-07
2.10524e-07
2.17144e-07
2.31762e-07
2.44794e-07
2.53704e-07
2.6867e-07
2.54641e-07
2.43128e-07
2.30024e-07
2.23985e-07
2.23974e-07
2.29988e-07
2.43059e-07
2.54532e-07
2.68557e-07
2.54554e-07
2.44062e-07
2.3551e-07
2.25017e-07
2.19502e-07
2.19495e-07
2.25021e-07
2.3579e-07
2.44472e-07
2.54479e-07
2.44816e-07
2.39355e-07
2.26964e-07
2.15149e-07
2.09114e-07
2.09159e-07
2.15503e-07
2.28643e-07
2.38914e-07
2.43625e-07
2.35967e-07
2.28843e-07
2.15326e-07
2.0077e-07
1.9449e-07
1.94532e-07
2.01047e-07
2.15245e-07
2.26776e-07
2.35264e-07
2.25115e-07
2.15582e-07
2.01082e-07
1.88011e-07
1.81851e-07
1.81965e-07
1.88006e-07
2.00776e-07
2.15142e-07
2.24933e-07
2.19512e-07
2.09194e-07
1.94564e-07
1.81971e-07
1.76612e-07
1.7661e-07
1.81854e-07
1.94505e-07
2.09154e-07
2.19486e-07
2.19477e-07
2.09116e-07
1.94475e-07
1.81856e-07
1.76623e-07
1.7663e-07
1.81869e-07
1.94517e-07
2.09169e-07
2.19498e-07
2.24936e-07
2.15111e-07
2.00763e-07
1.8803e-07
1.82033e-07
1.82045e-07
1.88062e-07
2.00817e-07
2.15166e-07
2.24946e-07
2.35289e-07
2.26763e-07
2.15253e-07
2.01088e-07
1.94615e-07
1.9463e-07
2.01119e-07
2.153e-07
2.26818e-07
2.35307e-07
2.43657e-07
2.38908e-07
2.28645e-07
2.15546e-07
2.09238e-07
2.09246e-07
2.15574e-07
2.28679e-07
2.38935e-07
2.43638e-07
2.54547e-07
2.44499e-07
2.35791e-07
2.25045e-07
2.19522e-07
2.1952e-07
2.25039e-07
2.35769e-07
2.44466e-07
2.54472e-07
2.41116e-07
2.30955e-07
2.24937e-07
2.16435e-07
2.11458e-07
2.11455e-07
2.16439e-07
2.25232e-07
2.31419e-07
2.4116e-07
2.31686e-07
2.30038e-07
2.20065e-07
2.09582e-07
2.0394e-07
2.03978e-07
2.09918e-07
2.21694e-07
2.29564e-07
2.30536e-07
2.25433e-07
2.21951e-07
2.09983e-07
1.96574e-07
1.90558e-07
1.90598e-07
1.96825e-07
2.09851e-07
2.19832e-07
2.24688e-07
2.16549e-07
2.10028e-07
1.96891e-07
1.84686e-07
1.78702e-07
1.78807e-07
1.84652e-07
1.96532e-07
2.0952e-07
2.16339e-07
2.11493e-07
2.04022e-07
1.90638e-07
1.78824e-07
1.73702e-07
1.7369e-07
1.78675e-07
1.90533e-07
2.03932e-07
2.11437e-07
2.11456e-07
2.03933e-07
1.90542e-07
1.78702e-07
1.73705e-07
1.73702e-07
1.78685e-07
1.90542e-07
2.03941e-07
2.11449e-07
2.1636e-07
2.09514e-07
1.96542e-07
1.84683e-07
1.78864e-07
1.78865e-07
1.84688e-07
1.96555e-07
2.09527e-07
2.16345e-07
2.24728e-07
2.19833e-07
2.0987e-07
1.96862e-07
1.90656e-07
1.9066e-07
1.96868e-07
2.0988e-07
2.19848e-07
2.24723e-07
2.30604e-07
2.29577e-07
2.21716e-07
2.09957e-07
2.04032e-07
2.04031e-07
2.09959e-07
2.21711e-07
2.29566e-07
2.30567e-07
2.41206e-07
2.31405e-07
2.25227e-07
2.16454e-07
2.11471e-07
2.11468e-07
2.16452e-07
2.25212e-07
2.31394e-07
2.41167e-07
2.31982e-07
2.17238e-07
2.12933e-07
2.06031e-07
2.01605e-07
2.01607e-07
2.06047e-07
2.13239e-07
2.17732e-07
2.32058e-07
2.17979e-07
2.19167e-07
2.11195e-07
2.01889e-07
1.96673e-07
1.96718e-07
2.0224e-07
2.12801e-07
2.18715e-07
2.1688e-07
2.13464e-07
2.13081e-07
2.02576e-07
1.9024e-07
1.84495e-07
1.84539e-07
1.90485e-07
2.02423e-07
2.10972e-07
2.12709e-07
2.06175e-07
2.02374e-07
1.90569e-07
1.79187e-07
1.73402e-07
1.73501e-07
1.79138e-07
1.9018e-07
2.01822e-07
2.05943e-07
2.0167e-07
1.96785e-07
1.84592e-07
1.73528e-07
1.68618e-07
1.68601e-07
1.73359e-07
1.84452e-07
1.9665e-07
2.01583e-07
2.01635e-07
1.96693e-07
1.84492e-07
1.73404e-07
1.68618e-07
1.68608e-07
1.73366e-07
1.84457e-07
1.96653e-07
2.01591e-07
2.05992e-07
2.01845e-07
1.9021e-07
1.79174e-07
1.73552e-07
1.73548e-07
1.7916e-07
1.90188e-07
2.01813e-07
2.0594e-07
2.12769e-07
2.10987e-07
2.02454e-07
1.90517e-07
1.84582e-07
1.8458e-07
1.90506e-07
2.02433e-07
2.10962e-07
2.12725e-07
2.16974e-07
2.18744e-07
2.12837e-07
2.02275e-07
1.96756e-07
1.96749e-07
2.02258e-07
2.128e-07
2.18696e-07
2.16904e-07
2.32131e-07
2.1774e-07
2.13264e-07
2.06074e-07
2.01623e-07
2.01613e-07
2.06051e-07
2.13217e-07
2.17696e-07
2.32069e-07
2.30183e-07
2.04959e-07
2.00974e-07
1.95235e-07
1.91311e-07
1.91315e-07
1.95263e-07
2.01288e-07
2.05468e-07
2.30336e-07
2.0567e-07
2.08091e-07
2.01749e-07
1.93501e-07
1.88694e-07
1.88746e-07
1.9386e-07
2.03323e-07
2.07673e-07
2.04663e-07
2.01511e-07
2.03591e-07
1.94468e-07
1.83137e-07
1.77666e-07
1.77716e-07
1.83385e-07
1.94324e-07
2.01541e-07
2.0079e-07
1.95387e-07
1.93975e-07
1.83457e-07
1.72857e-07
1.67297e-07
1.67398e-07
1.72812e-07
1.83076e-07
1.93433e-07
1.95171e-07
1.91375e-07
1.8879e-07
1.77751e-07
1.67416e-07
1.6272e-07
1.62704e-07
1.67254e-07
1.77621e-07
1.88667e-07
1.91304e-07
1.91335e-07
1.8869e-07
1.7765e-07
1.67292e-07
1.62719e-07
1.62712e-07
1.67261e-07
1.77627e-07
1.8867e-07
1.91308e-07
1.95189e-07
1.93433e-07
1.83091e-07
1.72838e-07
1.67443e-07
1.67442e-07
1.72835e-07
1.83087e-07
1.93426e-07
1.95162e-07
2.00805e-07
2.01533e-07
1.94339e-07
1.83406e-07
1.77754e-07
1.77755e-07
1.83408e-07
1.94339e-07
2.01535e-07
2.00792e-07
2.04706e-07
2.07684e-07
2.03352e-07
1.93888e-07
1.88779e-07
1.88776e-07
1.93883e-07
2.03337e-07
2.07668e-07
2.04678e-07
2.30398e-07
2.05497e-07
2.01333e-07
1.95299e-07
1.91335e-07
1.91328e-07
1.9528e-07
2.01293e-07
2.05455e-07
2.30353e-07
2.34876e-07
1.95575e-07
1.89957e-07
1.84873e-07
1.81368e-07
1.81383e-07
1.8494e-07
1.90319e-07
1.96141e-07
2.3508e-07
1.96299e-07
1.97531e-07
1.9247e-07
1.85183e-07
1.80777e-07
1.80847e-07
1.85587e-07
1.94065e-07
1.97214e-07
1.95381e-07
1.90502e-07
1.94273e-07
1.86453e-07
1.76051e-07
1.7086e-07
1.70924e-07
1.76325e-07
1.86352e-07
1.92337e-07
1.89849e-07
1.85035e-07
1.85669e-07
1.76371e-07
1.66502e-07
1.6118e-07
1.61285e-07
1.66475e-07
1.76019e-07
1.85166e-07
1.84864e-07
1.8143e-07
1.80879e-07
1.70947e-07
1.61296e-07
1.56807e-07
1.56796e-07
1.61148e-07
1.70835e-07
1.80784e-07
1.814e-07
1.81392e-07
1.80782e-07
1.7085e-07
1.61178e-07
1.56809e-07
1.56806e-07
1.61156e-07
1.70843e-07
1.80788e-07
1.81405e-07
1.84847e-07
1.85144e-07
1.76021e-07
1.66494e-07
1.61331e-07
1.61334e-07
1.66501e-07
1.76035e-07
1.85165e-07
1.84861e-07
1.8983e-07
1.92309e-07
1.86355e-07
1.76341e-07
1.70966e-07
1.70972e-07
1.76355e-07
1.86376e-07
1.92339e-07
1.89855e-07
1.954e-07
1.97213e-07
1.9409e-07
1.85617e-07
1.80895e-07
1.80898e-07
1.85628e-07
1.941e-07
1.97228e-07
1.95406e-07
2.35139e-07
1.96177e-07
1.90381e-07
1.84996e-07
1.81433e-07
1.81432e-07
1.84989e-07
1.90362e-07
1.96161e-07
2.35115e-07
2.34594e-07
1.90483e-07
1.80556e-07
1.75423e-07
1.72182e-07
1.72207e-07
1.7553e-07
1.80977e-07
1.91126e-07
2.34926e-07
1.91207e-07
1.87912e-07
1.83709e-07
1.77283e-07
1.73247e-07
1.73322e-07
1.77701e-07
1.85288e-07
1.87665e-07
1.90365e-07
1.81114e-07
1.85459e-07
1.78842e-07
1.69301e-07
1.64381e-07
1.64448e-07
1.69576e-07
1.78756e-07
1.83605e-07
1.80505e-07
1.75601e-07
1.77762e-07
1.69615e-07
1.6043e-07
1.55344e-07
1.55447e-07
1.60402e-07
1.69265e-07
1.77267e-07
1.75442e-07
1.7225e-07
1.73343e-07
1.64465e-07
1.55456e-07
1.51165e-07
1.51153e-07
1.55306e-07
1.64348e-07
1.73244e-07
1.72221e-07
1.72215e-07
1.73246e-07
1.64367e-07
1.55337e-07
1.51165e-07
1.5116e-07
1.55311e-07
1.64353e-07
1.73247e-07
1.72224e-07
1.75426e-07
1.77248e-07
1.69266e-07
1.60416e-07
1.55485e-07
1.55486e-07
1.60418e-07
1.69274e-07
1.77264e-07
1.75439e-07
1.8048e-07
1.83577e-07
1.78754e-07
1.69583e-07
1.6448e-07
1.64483e-07
1.69592e-07
1.78768e-07
1.836e-07
1.80505e-07
1.90377e-07
1.87663e-07
1.85309e-07
1.77722e-07
1.73359e-07
1.7336e-07
1.77726e-07
1.85311e-07
1.87671e-07
1.90385e-07
2.34976e-07
1.91155e-07
1.81032e-07
1.75576e-07
1.7225e-07
1.72249e-07
1.7557e-07
1.81016e-07
1.91141e-07
2.3496e-07
1.9332e-07
1.90432e-07
1.73359e-07
1.67208e-07
1.63974e-07
1.64004e-07
1.67339e-07
1.73818e-07
1.91141e-07
1.93735e-07
1.9117e-07
1.79558e-07
1.75579e-07
1.69881e-07
1.66182e-07
1.66258e-07
1.70303e-07
1.77129e-07
1.79361e-07
1.9037e-07
1.73911e-07
1.77274e-07
1.71726e-07
1.62971e-07
1.58317e-07
1.58385e-07
1.63239e-07
1.71639e-07
1.7549e-07
1.73337e-07
1.67382e-07
1.70356e-07
1.63281e-07
1.5474e-07
1.49886e-07
1.49984e-07
1.54706e-07
1.62926e-07
1.6986e-07
1.67231e-07
1.64032e-07
1.66274e-07
1.584e-07
1.49995e-07
1.45896e-07
1.45884e-07
1.49843e-07
1.58274e-07
1.66167e-07
1.64005e-07
1.64e-07
1.66175e-07
1.58298e-07
1.49875e-07
1.45894e-07
1.45888e-07
1.49845e-07
1.58276e-07
1.66168e-07
1.64007e-07
1.67217e-07
1.69842e-07
1.62926e-07
1.54714e-07
1.50015e-07
1.50016e-07
1.54714e-07
1.62928e-07
1.69853e-07
1.67229e-07
1.73313e-07
1.75459e-07
1.71632e-07
1.63236e-07
1.58403e-07
1.58405e-07
1.63242e-07
1.7164e-07
1.75476e-07
1.73335e-07
1.90386e-07
1.79355e-07
1.77141e-07
1.70311e-07
1.66281e-07
1.6628e-07
1.7031e-07
1.77136e-07
1.79355e-07
1.90388e-07
1.93796e-07
1.91164e-07
1.73866e-07
1.67374e-07
1.64037e-07
1.64035e-07
1.6736e-07
1.7384e-07
1.91145e-07
1.93772e-07
1.0165e-07
1.93685e-07
1.68917e-07
1.60515e-07
1.56927e-07
1.56955e-07
1.60652e-07
1.69397e-07
1.94466e-07
1.01816e-07
1.9443e-07
1.72785e-07
1.68099e-07
1.62948e-07
1.59543e-07
1.59615e-07
1.63354e-07
1.69596e-07
1.72615e-07
1.9368e-07
1.69461e-07
1.69732e-07
1.65046e-07
1.57013e-07
1.52618e-07
1.52681e-07
1.57267e-07
1.6495e-07
1.68003e-07
1.6891e-07
1.60681e-07
1.63406e-07
1.57315e-07
1.49385e-07
1.44759e-07
1.44853e-07
1.49344e-07
1.56954e-07
1.62908e-07
1.60535e-07
1.56975e-07
1.59624e-07
1.52694e-07
1.44864e-07
1.40955e-07
1.40942e-07
1.44711e-07
1.52564e-07
1.59512e-07
1.5695e-07
1.56942e-07
1.5952e-07
1.52588e-07
1.44742e-07
1.4095e-07
1.40945e-07
1.44713e-07
1.52566e-07
1.59513e-07
1.5695e-07
1.60515e-07
1.62888e-07
1.5695e-07
1.49349e-07
1.4488e-07
1.44881e-07
1.49351e-07
1.56958e-07
1.62905e-07
1.60533e-07
1.68876e-07
1.6797e-07
1.64939e-07
1.5726e-07
1.52695e-07
1.52698e-07
1.57269e-07
1.64952e-07
1.67994e-07
1.68906e-07
1.93683e-07
1.72607e-07
1.69607e-07
1.63361e-07
1.59632e-07
1.59633e-07
1.63361e-07
1.69605e-07
1.72613e-07
1.93696e-07
1.01866e-07
1.94487e-07
1.69441e-07
1.60682e-07
1.56982e-07
1.5698e-07
1.60667e-07
1.69416e-07
1.94471e-07
1.01842e-07
4.84233e-07
1.91625e-07
1.67462e-07
1.5565e-07
1.51268e-07
1.51302e-07
1.55811e-07
1.67988e-07
1.92487e-07
4.81583e-07
1.92377e-07
1.67898e-07
1.61329e-07
1.56462e-07
1.5331e-07
1.53386e-07
1.56878e-07
1.62811e-07
1.67783e-07
1.91729e-07
1.6801e-07
1.62914e-07
1.5877e-07
1.51397e-07
1.47259e-07
1.47327e-07
1.51654e-07
1.58689e-07
1.61261e-07
1.6749e-07
1.55812e-07
1.56913e-07
1.51692e-07
1.44347e-07
1.39949e-07
1.40043e-07
1.44311e-07
1.51345e-07
1.56435e-07
1.55685e-07
1.513e-07
1.53381e-07
1.4733e-07
1.40049e-07
1.36329e-07
1.36319e-07
1.39905e-07
1.4721e-07
1.53286e-07
1.51297e-07
1.51265e-07
1.53274e-07
1.47221e-07
1.39928e-07
1.36324e-07
1.36322e-07
1.39907e-07
1.47213e-07
1.53287e-07
1.51298e-07
1.55642e-07
1.56392e-07
1.51326e-07
1.44306e-07
1.40065e-07
1.4007e-07
1.44319e-07
1.5135e-07
1.56435e-07
1.55689e-07
1.67435e-07
1.61204e-07
1.5866e-07
1.51636e-07
1.47336e-07
1.47344e-07
1.51659e-07
1.58695e-07
1.61257e-07
1.67493e-07
1.91712e-07
1.6775e-07
1.62801e-07
1.56873e-07
1.53402e-07
1.53409e-07
1.5689e-07
1.62826e-07
1.67789e-07
1.91756e-07
4.81671e-07
1.92496e-07
1.6802e-07
1.55836e-07
1.51334e-07
1.51336e-07
1.55833e-07
1.68013e-07
1.92503e-07
4.81487e-07
4.74781e-06
1.64548e-07
1.6811e-07
1.52908e-07
1.47294e-07
1.47322e-07
1.53059e-07
1.68633e-07
1.6531e-07
4.73207e-06
1.65206e-07
1.64978e-07
1.55486e-07
1.50498e-07
1.47509e-07
1.47576e-07
1.5088e-07
1.5689e-07
1.64842e-07
1.6469e-07
1.68666e-07
1.5702e-07
1.52924e-07
1.4613e-07
1.42233e-07
1.42291e-07
1.46358e-07
1.52807e-07
1.55371e-07
1.68113e-07
1.53071e-07
1.50937e-07
1.46424e-07
1.39625e-07
1.3544e-07
1.35522e-07
1.39563e-07
1.46042e-07
1.50421e-07
1.52902e-07
1.47319e-07
1.47581e-07
1.4231e-07
1.35543e-07
1.31998e-07
1.31979e-07
1.35375e-07
1.42153e-07
1.47443e-07
1.47283e-07
1.47276e-07
1.47467e-07
1.42197e-07
1.35421e-07
1.31991e-07
1.3198e-07
1.35374e-07
1.42153e-07
1.47442e-07
1.47282e-07
1.52875e-07
1.50405e-07
1.46048e-07
1.39573e-07
1.35545e-07
1.35541e-07
1.39563e-07
1.4604e-07
1.50417e-07
1.52903e-07
1.68063e-07
1.5533e-07
1.5279e-07
1.46346e-07
1.42294e-07
1.42294e-07
1.46349e-07
1.52801e-07
1.55361e-07
1.68107e-07
1.64675e-07
1.6481e-07
1.56881e-07
1.5087e-07
1.47576e-07
1.47578e-07
1.50875e-07
1.56892e-07
1.64838e-07
1.64705e-07
4.73198e-06
1.65307e-07
1.68642e-07
1.5306e-07
1.47329e-07
1.47332e-07
1.53063e-07
1.68649e-07
1.65319e-07
4.73148e-06
2.57603e-05
1.09228e-07
1.66716e-07
1.51858e-07
1.44941e-07
1.44956e-07
1.51972e-07
1.67155e-07
1.09673e-07
2.57002e-05
1.09714e-07
1.62923e-07
1.50745e-07
1.45075e-07
1.42133e-07
1.42186e-07
1.4541e-07
1.5204e-07
1.62694e-07
1.09302e-07
1.67298e-07
1.52272e-07
1.47511e-07
1.41187e-07
1.37504e-07
1.37548e-07
1.41363e-07
1.4731e-07
1.50546e-07
1.66652e-07
1.52074e-07
1.45568e-07
1.41506e-07
1.35198e-07
1.31208e-07
1.31272e-07
1.35088e-07
1.41043e-07
1.4494e-07
1.51795e-07
1.45028e-07
1.42282e-07
1.37633e-07
1.31331e-07
1.27946e-07
1.27911e-07
1.31116e-07
1.37388e-07
1.42028e-07
1.4489e-07
1.44978e-07
1.42165e-07
1.3752e-07
1.31213e-07
1.2794e-07
1.27911e-07
1.31113e-07
1.37386e-07
1.42024e-07
1.44888e-07
1.51856e-07
1.45034e-07
1.41134e-07
1.35149e-07
1.31314e-07
1.31291e-07
1.35084e-07
1.41035e-07
1.4493e-07
1.51792e-07
1.66693e-07
1.50605e-07
1.47372e-07
1.414e-07
1.37567e-07
1.3755e-07
1.41349e-07
1.47295e-07
1.50527e-07
1.66629e-07
1.09361e-07
1.62745e-07
1.52092e-07
1.45438e-07
1.42198e-07
1.42184e-07
1.45396e-07
1.52029e-07
1.62677e-07
1.09305e-07
2.57001e-05
1.09721e-07
1.67199e-07
1.51994e-07
1.4497e-07
1.44964e-07
1.51973e-07
1.67177e-07
1.09686e-07
2.56984e-05
9.46556e-05
2.27929e-07
1.53289e-07
1.50562e-07
1.43494e-07
1.43499e-07
1.5065e-07
1.53607e-07
2.28332e-07
9.44937e-05
2.28507e-07
1.58222e-07
1.47141e-07
1.40195e-07
1.3717e-07
1.3723e-07
1.40537e-07
1.48423e-07
1.58009e-07
2.27369e-07
1.53809e-07
1.48643e-07
1.42404e-07
1.3645e-07
1.32986e-07
1.33035e-07
1.36638e-07
1.42223e-07
1.46951e-07
1.53218e-07
1.508e-07
1.40684e-07
1.36765e-07
1.30934e-07
1.27157e-07
1.27227e-07
1.30842e-07
1.36327e-07
1.40074e-07
1.50493e-07
1.43608e-07
1.37327e-07
1.33117e-07
1.27281e-07
1.24076e-07
1.24046e-07
1.27084e-07
1.32894e-07
1.37082e-07
1.43449e-07
1.43561e-07
1.37224e-07
1.33022e-07
1.27179e-07
1.24082e-07
1.24058e-07
1.27089e-07
1.32898e-07
1.37086e-07
1.4345e-07
1.50602e-07
1.40206e-07
1.3644e-07
1.30928e-07
1.27295e-07
1.27274e-07
1.30862e-07
1.36342e-07
1.40084e-07
1.50498e-07
1.53328e-07
1.47082e-07
1.42337e-07
1.36719e-07
1.33101e-07
1.3308e-07
1.36659e-07
1.42238e-07
1.4696e-07
1.53195e-07
2.27273e-07
1.58157e-07
1.48541e-07
1.4062e-07
1.3729e-07
1.3727e-07
1.40558e-07
1.48441e-07
1.58025e-07
2.27442e-07
9.44952e-05
2.28145e-07
1.53786e-07
1.50753e-07
1.43561e-07
1.4354e-07
1.50686e-07
1.53691e-07
2.28311e-07
9.44899e-05
0.000260509
1.62351e-06
1.19086e-07
1.44136e-07
1.40664e-07
1.407e-07
1.44308e-07
1.19443e-07
1.62557e-06
0.000260178
1.62705e-06
1.4432e-07
1.44563e-07
1.35963e-07
1.32697e-07
1.32793e-07
1.36411e-07
1.45998e-07
1.44359e-07
1.61885e-06
1.1948e-07
1.46048e-07
1.37731e-07
1.31956e-07
1.28698e-07
1.28781e-07
1.32234e-07
1.37692e-07
1.44554e-07
1.19234e-07
1.44357e-07
1.36441e-07
1.32259e-07
1.26859e-07
1.23306e-07
1.23402e-07
1.26853e-07
1.31955e-07
1.35991e-07
1.44222e-07
1.40751e-07
1.32827e-07
1.28807e-07
1.23414e-07
1.20401e-07
1.20398e-07
1.23296e-07
1.28702e-07
1.32728e-07
1.40737e-07
1.40727e-07
1.32744e-07
1.28729e-07
1.23328e-07
1.20419e-07
1.20419e-07
1.23312e-07
1.28718e-07
1.32746e-07
1.40752e-07
1.4424e-07
1.36022e-07
1.31989e-07
1.26896e-07
1.23474e-07
1.23481e-07
1.26906e-07
1.32008e-07
1.36045e-07
1.44271e-07
1.1926e-07
1.44613e-07
1.37751e-07
1.32294e-07
1.28873e-07
1.2888e-07
1.32312e-07
1.37773e-07
1.44636e-07
1.19276e-07
1.61815e-06
1.44445e-07
1.46076e-07
1.36489e-07
1.32902e-07
1.32909e-07
1.36509e-07
1.46101e-07
1.44482e-07
1.61854e-06
0.000260171
1.62347e-06
1.19629e-07
1.4446e-07
1.40833e-07
1.40827e-07
1.44437e-07
1.19619e-07
1.62402e-06
0.00026016
0.00057284
8.22183e-06
1.09719e-07
1.25726e-07
1.31605e-07
1.31661e-07
1.25933e-07
1.1006e-07
8.2299e-06
0.000572336
8.23815e-06
1.17634e-07
1.42351e-07
1.3242e-07
1.2872e-07
1.28833e-07
1.32923e-07
1.43882e-07
1.17824e-07
8.20134e-06
1.10039e-07
1.43816e-07
1.33598e-07
1.27684e-07
1.24563e-07
1.24662e-07
1.28011e-07
1.33654e-07
1.42471e-07
1.09656e-07
1.25901e-07
1.32875e-07
1.27968e-07
1.22901e-07
1.19548e-07
1.19657e-07
1.22942e-07
1.27746e-07
1.32523e-07
1.25895e-07
1.31665e-07
1.28809e-07
1.24638e-07
1.19635e-07
1.16795e-07
1.16804e-07
1.19556e-07
1.24597e-07
1.2879e-07
1.31734e-07
1.31642e-07
1.28718e-07
1.24551e-07
1.19541e-07
1.16801e-07
1.16811e-07
1.19561e-07
1.24602e-07
1.28796e-07
1.31744e-07
1.25801e-07
1.32429e-07
1.27678e-07
1.2291e-07
1.19681e-07
1.19701e-07
1.2296e-07
1.27764e-07
1.32544e-07
1.25913e-07
1.0957e-07
1.42365e-07
1.33587e-07
1.27979e-07
1.24694e-07
1.24715e-07
1.28041e-07
1.33687e-07
1.42499e-07
1.0968e-07
8.20178e-06
1.17705e-07
1.43813e-07
1.32902e-07
1.2888e-07
1.28904e-07
1.32969e-07
1.43928e-07
1.17843e-07
8.20049e-06
0.000572311
8.22441e-06
1.09974e-07
1.25965e-07
1.31732e-07
1.31751e-07
1.26018e-07
1.09926e-07
8.22371e-06
0.000572309
0.00105811
2.98789e-05
4.25086e-07
1.00297e-07
1.11886e-07
1.11946e-07
1.00453e-07
4.25771e-07
2.98993e-05
0.00105753
2.99264e-05
9.99774e-08
1.38716e-07
1.29432e-07
1.25278e-07
1.25392e-07
1.29936e-07
1.40229e-07
1.00031e-07
2.9818e-05
4.2628e-07
1.40131e-07
1.30219e-07
1.23749e-07
1.20683e-07
1.20784e-07
1.24081e-07
1.30299e-07
1.38877e-07
4.23397e-07
1.00431e-07
1.2986e-07
1.24015e-07
1.19171e-07
1.16e-07
1.16106e-07
1.19217e-07
1.23811e-07
1.29531e-07
1.00381e-07
1.11938e-07
1.25336e-07
1.20733e-07
1.16072e-07
1.13395e-07
1.13405e-07
1.15993e-07
1.20692e-07