/*--------------------------------*- C++ -*----------------------------------*\
| =========                 |                                                 |
| \\      /  F ield         | OpenFOAM: The Open Source CFD Toolbox           |
|  \\    /   O peration     | Version:  2406                                  |
|   \\  /    A nd           | Website:  www.openfoam.com                      |
|    \\/     M anipulation  |                                                 |
\*---------------------------------------------------------------------------*/
FoamFile
{
    version     2.0;
    format      ascii;
    arch        "LSB;label=32;scalar=64";
    class       volSymmTensorField;
    location    "350";
    object      turbulenceProperties:devReff;
}
// * * * * * * * * * * * * * * * * * * * * * * * * * * * * * * * * * * * * * //

dimensions      [0 2 -2 0 0 0 0];

internalField   nonuniform List<symmTensor> 
25000
(
(4.18064e-06 -3.95737e-06 -1.5944e-06 4.18673e-06 -1.596e-06 -8.36737e-06)
(6.13762e-06 1.87607e-06 -1.09684e-06 2.54124e-06 -1.40871e-06 -8.67885e-06)
(4.69238e-06 1.1116e-06 -7.75149e-07 3.54412e-06 -1.44983e-06 -8.2365e-06)
(4.28652e-06 6.88615e-07 -4.61765e-07 3.9036e-06 -1.45492e-06 -8.19012e-06)
(4.08892e-06 2.39058e-07 -1.52155e-07 4.06728e-06 -1.45539e-06 -8.1562e-06)
(4.0926e-06 -2.41811e-07 1.57605e-07 4.06432e-06 -1.45546e-06 -8.15692e-06)
(4.30076e-06 -6.91038e-07 4.68151e-07 3.89191e-06 -1.45501e-06 -8.19267e-06)
(4.7306e-06 -1.11526e-06 7.84123e-07 3.51243e-06 -1.45031e-06 -8.24304e-06)
(6.14256e-06 -1.85097e-06 1.11513e-06 2.49997e-06 -1.41162e-06 -8.64252e-06)
(4.11329e-06 4.03321e-06 1.5963e-06 4.11005e-06 -1.59518e-06 -8.22334e-06)
(2.54325e-06 1.87314e-06 -1.40745e-06 6.13946e-06 -1.09782e-06 -8.68271e-06)
(4.3616e-06 1.23111e-06 -1.09221e-06 4.36155e-06 -1.09346e-06 -8.72315e-06)
(3.93138e-06 8.27838e-07 -8.09448e-07 4.1351e-06 -1.11692e-06 -8.06648e-06)
(3.78611e-06 4.82083e-07 -4.88865e-07 3.94346e-06 -1.13749e-06 -7.72956e-06)
(3.72592e-06 1.57156e-07 -1.61654e-07 3.84165e-06 -1.1482e-06 -7.56757e-06)
(3.72806e-06 -1.61759e-07 1.66854e-07 3.84055e-06 -1.14844e-06 -7.56861e-06)
(3.793e-06 -4.89688e-07 4.94707e-07 3.93967e-06 -1.13833e-06 -7.73267e-06)
(3.94378e-06 -8.46035e-07 8.16603e-07 4.13019e-06 -1.11946e-06 -8.07397e-06)
(4.36124e-06 -1.27606e-06 1.10046e-06 4.36291e-06 -1.09904e-06 -8.72416e-06)
(2.50077e-06 -1.85148e-06 1.41244e-06 6.14209e-06 -1.11352e-06 -8.64286e-06)
(3.54798e-06 1.10949e-06 -1.44944e-06 4.69112e-06 -7.74994e-07 -8.2391e-06)
(4.13726e-06 8.26551e-07 -1.11634e-06 3.93306e-06 -8.10164e-07 -8.07032e-06)
(3.77336e-06 5.6327e-07 -8.20787e-07 3.77404e-06 -8.21415e-07 -7.5474e-06)
(3.59696e-06 3.35736e-07 -4.98081e-07 3.64208e-06 -8.2919e-07 -7.23904e-06)
(3.51792e-06 1.09576e-07 -1.65239e-07 3.57363e-06 -8.33813e-07 -7.09155e-06)
(3.51883e-06 -1.14599e-07 1.69702e-07 3.57335e-06 -8.34174e-07 -7.09219e-06)
(3.59944e-06 -3.43114e-07 5.02805e-07 3.64179e-06 -8.30461e-07 -7.24123e-06)
(3.77449e-06 -5.76065e-07 8.25706e-07 3.77588e-06 -8.23984e-07 -7.55037e-06)
(4.12744e-06 -8.45518e-07 1.12049e-06 3.94415e-06 -8.14596e-07 -8.07159e-06)
(3.51295e-06 -1.11508e-06 1.4513e-06 4.73136e-06 -7.82326e-07 -8.24431e-06)
(3.90652e-06 6.88498e-07 -1.4548e-06 4.28455e-06 -4.61375e-07 -8.19106e-06)
(3.94461e-06 4.80898e-07 -1.13701e-06 3.78569e-06 -4.88962e-07 -7.7303e-06)
(3.6421e-06 3.35197e-07 -8.2873e-07 3.59745e-06 -4.98408e-07 -7.23955e-06)
(3.46412e-06 2.03028e-07 -5.02586e-07 3.46448e-06 -5.02965e-07 -6.92861e-06)
(3.38039e-06 6.63551e-08 -1.67124e-07 3.39696e-06 -5.05518e-07 -6.77736e-06)
(3.38076e-06 -7.05752e-08 1.70723e-07 3.39721e-06 -5.05916e-07 -6.77797e-06)
(3.46436e-06 -2.08421e-07 5.06236e-07 3.46548e-06 -5.04201e-07 -6.92984e-06)
(3.64039e-06 -3.4267e-07 8.32133e-07 3.60082e-06 -5.00711e-07 -7.24121e-06)
(3.9382e-06 -4.89099e-07 1.1397e-06 3.79496e-06 -4.92541e-07 -7.73316e-06)
(3.89171e-06 -6.90532e-07 1.45602e-06 4.30235e-06 -4.65979e-07 -8.19406e-06)
(4.06951e-06 2.39438e-07 -1.45559e-06 4.08703e-06 -1.5177e-07 -8.15654e-06)
(3.84285e-06 1.5674e-07 -1.14797e-06 3.72501e-06 -1.61531e-07 -7.56786e-06)
(3.5738e-06 1.09115e-07 -8.33453e-07 3.51779e-06 -1.65329e-07 -7.09159e-06)
(3.39682e-06 6.6153e-08 -5.05226e-07 3.38066e-06 -1.67323e-07 -6.77748e-06)
(3.31191e-06 2.11513e-08 -1.68311e-07 3.31209e-06 -1.6854e-07 -6.624e-06)
(3.31189e-06 -2.43352e-08 1.71144e-07 3.3124e-06 -1.68876e-07 -6.62429e-06)
(3.39634e-06 -6.98541e-08 5.07961e-07 3.38181e-06 -1.68376e-07 -6.77815e-06)
(3.57208e-06 -1.13415e-07 8.35973e-07 3.52082e-06 -1.67188e-07 -7.09291e-06)
(3.83871e-06 -1.60579e-07 1.14987e-06 3.73101e-06 -1.64175e-07 -7.56971e-06)
(4.06269e-06 -2.40879e-07 1.45642e-06 4.09584e-06 -1.5489e-07 -8.15852e-06)
(4.06602e-06 -2.41122e-07 -1.45564e-06 4.091e-06 1.57987e-07 -8.15702e-06)
(3.84137e-06 -1.61706e-07 -1.14843e-06 3.72708e-06 1.6707e-07 -7.56845e-06)
(3.57361e-06 -1.14837e-07 -8.33993e-07 3.51839e-06 1.69739e-07 -7.09199e-06)
(3.39705e-06 -7.07246e-08 -5.05664e-07 3.38054e-06 1.7064e-07 -6.77759e-06)
(3.31228e-06 -2.43851e-08 -1.68683e-07 3.31189e-06 1.71014e-07 -6.62417e-06)
(3.31219e-06 2.21152e-08 1.70883e-07 3.3122e-06 1.70734e-07 -6.62439e-06)
(3.39654e-06 6.8294e-08 5.0779e-07 3.38165e-06 1.69804e-07 -6.77819e-06)
(3.57221e-06 1.12262e-07 8.35837e-07 3.52071e-06 1.68317e-07 -7.09292e-06)
(3.83879e-06 1.59638e-07 1.14978e-06 3.73091e-06 1.651e-07 -7.5697e-06)
(4.06269e-06 2.4011e-07 1.45637e-06 4.09579e-06 1.55671e-07 -8.15848e-06)
(3.89347e-06 -6.90527e-07 -1.45533e-06 4.29925e-06 4.68489e-07 -8.19273e-06)
(3.9402e-06 -4.89334e-07 -1.13841e-06 3.79205e-06 4.94929e-07 -7.73225e-06)
(3.64184e-06 -3.43055e-07 -8.30347e-07 3.59872e-06 5.02907e-07 -7.24056e-06)
(3.46542e-06 -2.08462e-07 -5.04061e-07 3.46409e-06 5.06247e-07 -6.92952e-06)
(3.38181e-06 -6.98589e-08 -1.6822e-07 3.3963e-06 5.07934e-07 -6.77811e-06)
(3.3817e-06 6.82923e-08 1.69942e-07 3.39657e-06 5.07717e-07 -6.77828e-06)
(3.465e-06 2.06846e-07 5.05683e-07 3.46499e-06 5.05591e-07 -6.92998e-06)
(3.6408e-06 3.41494e-07 8.31775e-07 3.60044e-06 5.01816e-07 -7.24124e-06)
(3.93845e-06 4.88148e-07 1.13946e-06 3.79467e-06 4.93459e-07 -7.73313e-06)
(3.89171e-06 6.89734e-07 1.45586e-06 4.30221e-06 4.66758e-07 -8.19392e-06)
(3.51389e-06 -1.11492e-06 -1.45057e-06 4.72925e-06 7.84414e-07 -8.24314e-06)
(4.12907e-06 -8.45251e-07 -1.11927e-06 3.9418e-06 8.16613e-07 -8.07088e-06)
(3.77593e-06 -5.75854e-07 -8.23998e-07 3.77394e-06 8.25877e-07 -7.54987e-06)
(3.60087e-06 -3.42565e-07 -5.00651e-07 3.64022e-06 8.32289e-07 -7.24109e-06)
(3.52072e-06 -1.13361e-07 -1.67087e-07 3.57188e-06 8.36014e-07 -7.0926e-06)
(3.52064e-06 1.12312e-07 1.68424e-07 3.5721e-06 8.35846e-07 -7.09274e-06)
(3.60055e-06 3.4153e-07 5.01928e-07 3.64093e-06 8.31768e-07 -7.24148e-06)
(3.77518e-06 5.74883e-07 8.25095e-07 3.77525e-06 8.25048e-07 -7.55043e-06)
(4.12785e-06 8.44582e-07 1.12008e-06 3.9437e-06 8.15482e-07 -8.07155e-06)
(3.51293e-06 1.11434e-06 1.45104e-06 4.7312e-06 7.83098e-07 -8.24413e-06)
(2.50135e-06 -1.85097e-06 -1.41172e-06 6.14055e-06 1.11526e-06 -8.64189e-06)
(4.36299e-06 -1.27553e-06 -1.09923e-06 4.36053e-06 1.10075e-06 -8.72352e-06)
(3.94539e-06 -8.45433e-07 -8.14903e-07 4.12818e-06 1.1211e-06 -8.07357e-06)
(3.79486e-06 -4.88857e-07 -4.92524e-07 3.93784e-06 1.1399e-06 -7.7327e-06)
(3.73087e-06 -1.60406e-07 -1.64124e-07 3.83844e-06 1.14999e-06 -7.56931e-06)
(3.73082e-06 1.59773e-07 1.65159e-07 3.83863e-06 1.14985e-06 -7.56945e-06)
(3.79461e-06 4.8825e-07 4.9351e-07 3.93843e-06 1.13949e-06 -7.73305e-06)
(3.94482e-06 8.44923e-07 8.15789e-07 4.12929e-06 1.12043e-06 -8.0741e-06)
(4.36193e-06 1.27521e-06 1.0999e-06 4.36222e-06 1.09988e-06 -8.72415e-06)
(2.50066e-06 1.85078e-06 1.4121e-06 6.14201e-06 1.11425e-06 -8.64267e-06)
(4.1115e-06 4.03105e-06 -1.59525e-06 4.11352e-06 1.59639e-06 -8.22501e-06)
(6.14235e-06 -1.85189e-06 -1.11379e-06 2.50175e-06 1.41282e-06 -8.64411e-06)
(4.73086e-06 -1.11482e-06 -7.82406e-07 3.51337e-06 1.45151e-06 -8.24423e-06)
(4.30184e-06 -6.90157e-07 -4.66008e-07 3.89196e-06 1.45618e-06 -8.1938e-06)
(4.09545e-06 -2.40522e-07 -1.54896e-07 4.06283e-06 1.45655e-06 -8.15829e-06)
(4.09555e-06 2.40441e-07 1.55677e-07 4.06276e-06 1.45646e-06 -8.15831e-06)
(4.30206e-06 6.90036e-07 4.66772e-07 3.89175e-06 1.45592e-06 -8.19381e-06)
(4.7311e-06 1.11459e-06 7.83118e-07 3.513e-06 1.45109e-06 -8.2441e-06)
(6.14251e-06 1.85107e-06 1.11441e-06 2.50115e-06 1.41228e-06 -8.64366e-06)
(4.11201e-06 -4.03258e-06 1.59576e-06 4.11235e-06 1.59577e-06 -8.22435e-06)
(6.07666e-06 -3.49703e-06 3.27624e-06 6.09049e-06 3.27804e-06 -1.21672e-05)
(8.36536e-06 1.96803e-06 2.28752e-06 3.71645e-06 3.02512e-06 -1.20818e-05)
(6.47525e-06 5.14745e-07 1.62816e-06 5.22375e-06 2.7424e-06 -1.1699e-05)
(6.18233e-06 4.74351e-07 9.72951e-07 5.46768e-06 2.6257e-06 -1.165e-05)
(6.04986e-06 1.74631e-07 3.23857e-07 5.57897e-06 2.55863e-06 -1.16288e-05)
(6.0606e-06 -1.71192e-07 -3.24844e-07 5.56961e-06 2.55855e-06 -1.16302e-05)
(6.2234e-06 -4.70129e-07 -9.75646e-07 5.43241e-06 2.62531e-06 -1.16558e-05)
(6.57936e-06 -5.12448e-07 -1.63412e-06 5.13411e-06 2.7416e-06 -1.17135e-05)
(8.36546e-06 -1.8886e-06 -2.30164e-06 3.60804e-06 3.02374e-06 -1.19735e-05)
(5.92675e-06 3.65095e-06 -3.26553e-06 5.92237e-06 3.26558e-06 -1.18491e-05)
(3.71713e-06 1.95854e-06 3.02505e-06 8.37696e-06 2.28913e-06 -1.20941e-05)
(5.9617e-06 8.84244e-07 2.169e-06 5.97492e-06 2.17026e-06 -1.19366e-05)
(5.71287e-06 3.7432e-07 1.48453e-06 5.87591e-06 2.04034e-06 -1.15888e-05)
(5.84555e-06 1.79499e-07 8.82229e-07 5.62193e-06 1.95399e-06 -1.14675e-05)
(5.86544e-06 5.35314e-08 2.91821e-07 5.50999e-06 1.90815e-06 -1.13754e-05)
(5.87198e-06 -6.33375e-08 -2.92355e-07 5.50562e-06 1.90827e-06 -1.13776e-05)
(5.86599e-06 -1.98666e-07 -8.8395e-07 5.60749e-06 1.95472e-06 -1.14735e-05)
(5.74909e-06 -4.25101e-07 -1.48975e-06 5.85761e-06 2.04423e-06 -1.16067e-05)
(5.96197e-06 -1.01129e-06 -2.17535e-06 5.96806e-06 2.17552e-06 -1.193e-05)
(3.60706e-06 -1.89084e-06 -3.02279e-06 8.36625e-06 2.30108e-06 -1.19733e-05)
(5.23277e-06 4.99817e-07 2.74287e-06 6.47784e-06 1.6282e-06 -1.17106e-05)
(5.87716e-06 3.6645e-07 2.0412e-06 5.72592e-06 1.48639e-06 -1.16031e-05)
(5.63801e-06 3.2744e-07 1.39864e-06 5.64562e-06 1.39943e-06 -1.12836e-05)
(5.67812e-06 1.90876e-07 8.2743e-07 5.50457e-06 1.33675e-06 -1.11827e-05)
(5.67805e-06 5.73261e-08 2.73717e-07 5.4459e-06 1.30544e-06 -1.1124e-05)
(5.68084e-06 -7.17517e-08 -2.73876e-07 5.44428e-06 1.30552e-06 -1.11251e-05)
(5.68548e-06 -2.1244e-07 -8.28285e-07 5.50136e-06 1.33732e-06 -1.11868e-05)
(5.64056e-06 -3.65051e-07 -1.40055e-06 5.64699e-06 1.40086e-06 -1.12875e-05)
(5.84649e-06 -4.24626e-07 -2.04235e-06 5.75119e-06 1.48879e-06 -1.15977e-05)
(5.13259e-06 -5.14259e-07 -2.74139e-06 6.58376e-06 1.63431e-06 -1.17164e-05)
(5.47649e-06 4.66394e-07 2.62635e-06 6.17975e-06 9.7271e-07 -1.16562e-05)
(5.62243e-06 1.71161e-07 1.95374e-06 5.84939e-06 8.82495e-07 -1.14718e-05)
(5.50167e-06 1.87499e-07 1.33628e-06 5.68401e-06 8.28025e-07 -1.11857e-05)
(5.51822e-06 1.20811e-07 7.85165e-07 5.52238e-06 7.85722e-07 -1.10406e-05)
(5.51972e-06 3.53806e-08 2.5917e-07 5.44527e-06 7.63499e-07 -1.0965e-05)
(5.52087e-06 -4.94377e-08 -2.59195e-07 5.44564e-06 7.63557e-07 -1.09665e-05)
(5.51802e-06 -1.38685e-07 -7.85462e-07 5.52421e-06 7.85877e-07 -1.10422e-05)
(5.4942e-06 -2.1143e-07 -1.33688e-06 5.69213e-06 8.28573e-07 -1.11863e-05)
(5.60043e-06 -1.98034e-07 -1.95449e-06 5.87407e-06 8.84219e-07 -1.14745e-05)
(5.42858e-06 -4.72226e-07 -2.62523e-06 6.23076e-06 9.75842e-07 -1.16593e-05)
(5.5865e-06 1.69808e-07 2.55944e-06 6.04639e-06 3.23743e-07 -1.16329e-05)
(5.51337e-06 4.72923e-08 1.9081e-06 5.86589e-06 2.91894e-07 -1.13793e-05)
(5.44477e-06 5.32545e-08 1.30502e-06 5.68106e-06 2.7402e-07 -1.11258e-05)
(5.44284e-06 3.36152e-08 7.6306e-07 5.52363e-06 2.59623e-07 -1.09665e-05)
(5.44353e-06 7.32509e-09 2.51411e-07 5.44632e-06 2.51867e-07 -1.08899e-05)
(5.44298e-06 -1.91464e-08 -2.51374e-07 5.44719e-06 2.51849e-07 -1.08902e-05)
(5.43998e-06 -4.72249e-08 -7.63105e-07 5.52672e-06 2.59608e-07 -1.09667e-05)
(5.43713e-06 -6.86781e-08 -1.30528e-06 5.68992e-06 2.74226e-07 -1.11271e-05)
(5.49648e-06 -6.1325e-08 -1.90824e-06 5.88386e-06 2.92565e-07 -1.13803e-05)
(5.56094e-06 -1.73329e-07 -2.55846e-06 6.07309e-06 3.24854e-07 -1.1634e-05)
(5.57462e-06 -1.73809e-07 2.55919e-06 6.05813e-06 -3.24769e-07 -1.16328e-05)
(5.50879e-06 -6.80167e-08 1.90834e-06 5.87135e-06 -2.92263e-07 -1.13801e-05)
(5.44492e-06 -7.56249e-08 1.30525e-06 5.68209e-06 -2.73629e-07 -1.1127e-05)
(5.44399e-06 -5.16467e-08 7.63108e-07 5.52272e-06 -2.58811e-07 -1.09667e-05)
(5.44506e-06 -2.00686e-08 2.51417e-07 5.44552e-06 -2.50954e-07 -1.08906e-05)
(5.44437e-06 1.06096e-08 -2.51425e-07 5.44644e-06 -2.50992e-07 -1.08908e-05)
(5.44079e-06 4.1614e-08 -7.63176e-07 5.52628e-06 -2.58885e-07 -1.09671e-05)
(5.43762e-06 6.49849e-08 -1.30535e-06 5.68965e-06 -2.73647e-07 -1.11273e-05)
(5.4969e-06 5.88693e-08 -1.90829e-06 5.88367e-06 -2.92113e-07 -1.13806e-05)
(5.5608e-06 1.71265e-07 -2.55848e-06 6.07318e-06 -3.24493e-07 -1.1634e-05)
(5.4364e-06 -4.72408e-07 2.62579e-06 6.22125e-06 -9.75407e-07 -1.16577e-05)
(5.61104e-06 -2.0186e-07 1.95471e-06 5.86449e-06 -8.83703e-07 -1.14755e-05)
(5.50192e-06 -2.15317e-07 1.33698e-06 5.6854e-06 -8.27921e-07 -1.11873e-05)
(5.52364e-06 -1.40906e-07 7.85551e-07 5.51984e-06 -7.85127e-07 -1.10435e-05)
(5.52573e-06 -4.84999e-08 2.59237e-07 5.44248e-06 -7.62771e-07 -1.09682e-05)
(5.52479e-06 4.10266e-08 -2.59325e-07 5.44346e-06 -7.62809e-07 -1.09682e-05)
(5.52076e-06 1.33188e-07 -7.85658e-07 5.5227e-06 -7.85231e-07 -1.10435e-05)
(5.496e-06 2.07854e-07 -1.33707e-06 5.69118e-06 -8.28042e-07 -1.11872e-05)
(5.60143e-06 1.95644e-07 -1.95464e-06 5.87355e-06 -8.83789e-07 -1.1475e-05)
(5.42816e-06 4.70093e-07 -2.62529e-06 6.23097e-06 -9.7547e-07 -1.16591e-05)
(5.13655e-06 -5.1294e-07 2.74177e-06 6.57754e-06 -1.63371e-06 -1.17141e-05)
(5.85578e-06 -4.26815e-07 2.04255e-06 5.74352e-06 -1.48822e-06 -1.15993e-05)
(5.6485e-06 -3.67251e-07 1.4007e-06 5.64093e-06 -1.40027e-06 -1.12894e-05)
(5.69263e-06 -2.13291e-07 8.28381e-07 5.49631e-06 -1.33671e-06 -1.11889e-05)
(5.68891e-06 -7.01464e-08 2.7388e-07 5.43908e-06 -1.30494e-06 -1.1128e-05)
(5.68821e-06 6.40171e-08 -2.74052e-07 5.43974e-06 -1.30498e-06 -1.1128e-05)
(5.69004e-06 2.07329e-07 -8.28564e-07 5.49863e-06 -1.33682e-06 -1.11887e-05)
(5.64347e-06 3.61604e-07 -1.40082e-06 5.64531e-06 -1.40043e-06 -1.12888e-05)
(5.84846e-06 4.22271e-07 -2.04255e-06 5.75005e-06 -1.48839e-06 -1.15985e-05)
(5.13201e-06 5.12146e-07 -2.74145e-06 6.58388e-06 -1.63391e-06 -1.17159e-05)
(3.60921e-06 -1.88706e-06 3.02305e-06 8.3613e-06 -2.3005e-06 -1.19705e-05)
(5.97116e-06 -1.01193e-06 2.17547e-06 5.9608e-06 -2.17499e-06 -1.1932e-05)
(5.7574e-06 -4.26439e-07 1.48983e-06 5.85149e-06 -2.04374e-06 -1.16089e-05)
(5.87458e-06 -1.99677e-07 8.83989e-07 5.60148e-06 -1.95429e-06 -1.14761e-05)
(5.88322e-06 -6.27717e-08 2.9223e-07 5.49786e-06 -1.90793e-06 -1.13811e-05)
(5.88256e-06 5.75836e-08 -2.92485e-07 5.49844e-06 -1.90797e-06 -1.1381e-05)
(5.87247e-06 1.94659e-07 -8.84239e-07 5.60337e-06 -1.95438e-06 -1.14758e-05)
(5.75343e-06 4.22128e-07 -1.49004e-06 5.85484e-06 -2.04389e-06 -1.16083e-05)
(5.96494e-06 1.00907e-06 -2.17554e-06 5.96612e-06 -2.1752e-06 -1.19311e-05)
(3.60665e-06 1.88808e-06 -3.02278e-06 8.36594e-06 -2.30072e-06 -1.19726e-05)
(5.92466e-06 3.65392e-06 3.26595e-06 5.92553e-06 -3.26551e-06 -1.18502e-05)
(8.37072e-06 -1.89141e-06 2.3017e-06 3.60775e-06 -3.02355e-06 -1.19785e-05)
(6.58523e-06 -5.15332e-07 1.63412e-06 5.13259e-06 -2.74134e-06 -1.17178e-05)
(6.23116e-06 -4.73411e-07 9.75525e-07 5.42878e-06 -2.62505e-06 -1.16599e-05)
(6.07289e-06 -1.74496e-07 3.24518e-07 5.56148e-06 -2.55826e-06 -1.16344e-05)
(6.07251e-06 1.70127e-07 -3.24852e-07 5.5617e-06 -2.55826e-06 -1.16342e-05)
(6.22999e-06 4.69024e-07 -9.75857e-07 5.42927e-06 -2.62504e-06 -1.16593e-05)
(6.5831e-06 5.11178e-07 -1.63439e-06 5.13346e-06 -2.7413e-06 -1.17166e-05)
(8.36768e-06 1.88824e-06 -2.30184e-06 3.60881e-06 -3.02351e-06 -1.19765e-05)
(5.92456e-06 -3.65266e-06 -3.26552e-06 5.92565e-06 -3.26527e-06 -1.18502e-05)
(5.22383e-06 -9.0946e-07 4.5423e-06 5.21889e-06 4.54512e-06 -1.04427e-05)
(6.29411e-06 1.15548e-06 3.15485e-06 3.75337e-06 4.08564e-06 -1.00475e-05)
(5.04796e-06 -2.79838e-08 2.23638e-06 4.91474e-06 3.89246e-06 -9.9627e-06)
(4.90016e-06 2.5329e-07 1.33507e-06 4.9544e-06 3.81466e-06 -9.85457e-06)
(4.82594e-06 6.89946e-08 4.44814e-07 5.01525e-06 3.75375e-06 -9.84119e-06)
(4.83096e-06 -6.60947e-08 -4.53445e-07 5.01012e-06 3.75381e-06 -9.84109e-06)
(4.92385e-06 -2.50803e-07 -1.34653e-06 4.93423e-06 3.81452e-06 -9.85808e-06)
(5.10001e-06 2.72247e-08 -2.25336e-06 4.87013e-06 3.89293e-06 -9.97014e-06)
(6.29495e-06 -1.12374e-06 -3.18311e-06 3.69778e-06 4.08756e-06 -9.99273e-06)
(5.14798e-06 9.78513e-07 -4.53486e-06 5.14621e-06 4.53355e-06 -1.02942e-05)
(3.75427e-06 1.15261e-06 4.08512e-06 6.30241e-06 3.15808e-06 -1.00567e-05)
(4.86776e-06 4.34629e-07 3.03674e-06 4.87716e-06 3.03918e-06 -9.74492e-06)
(4.78264e-06 3.25623e-08 2.17354e-06 5.04423e-06 2.96344e-06 -9.82687e-06)
(4.95488e-06 7.81785e-09 1.30715e-06 4.90575e-06 2.93089e-06 -9.86063e-06)
(4.95422e-06 -6.15267e-09 4.32337e-07 4.89026e-06 2.90966e-06 -9.84449e-06)
(4.95772e-06 -1.94877e-10 -4.40173e-07 4.88757e-06 2.91013e-06 -9.84529e-06)
(4.96651e-06 -1.83791e-08 -1.31696e-06 4.89693e-06 2.93293e-06 -9.86344e-06)
(4.806e-06 -6.49106e-08 -2.18902e-06 5.03625e-06 2.97216e-06 -9.84225e-06)
(4.8655e-06 -5.0253e-07 -3.05214e-06 4.872e-06 3.05043e-06 -9.7375e-06)
(3.69408e-06 -1.12507e-06 -4.08699e-06 6.29624e-06 3.17988e-06 -9.99032e-06)
(4.91891e-06 -3.73841e-08 3.89263e-06 5.0517e-06 2.23664e-06 -9.97061e-06)
(5.04673e-06 2.75363e-08 2.9652e-06 4.79498e-06 2.17744e-06 -9.84172e-06)
(4.89026e-06 1.12433e-07 2.11994e-06 4.89611e-06 2.12154e-06 -9.78637e-06)
(4.95615e-06 6.46723e-08 1.27959e-06 4.85747e-06 2.08235e-06 -9.81362e-06)
(4.93602e-06 1.89444e-08 4.24383e-07 4.86966e-06 2.06465e-06 -9.80568e-06)
(4.93745e-06 -2.97989e-08 -4.30981e-07 4.86866e-06 2.06524e-06 -9.80611e-06)
(4.9602e-06 -7.92521e-08 -1.28719e-06 4.85559e-06 2.08479e-06 -9.8158e-06)
(4.88974e-06 -1.36326e-07 -2.12838e-06 4.89607e-06 2.12635e-06 -9.78581e-06)
(5.02382e-06 -6.46255e-08 -2.97018e-06 4.80677e-06 2.18424e-06 -9.83058e-06)
(4.86743e-06 2.61139e-08 -3.89367e-06 5.10405e-06 2.25093e-06 -9.97148e-06)
(4.95913e-06 2.46947e-07 3.81512e-06 4.90004e-06 1.33438e-06 -9.85916e-06)
(4.90521e-06 2.13748e-09 2.93028e-06 4.95898e-06 1.30769e-06 -9.86419e-06)
(4.85516e-06 6.23902e-08 2.08144e-06 4.96143e-06 1.28077e-06 -9.81658e-06)
(4.90718e-06 2.61703e-08 1.25145e-06 4.91083e-06 1.25259e-06 -9.81801e-06)
(4.90298e-06 3.96612e-09 4.15397e-07 4.89851e-06 1.23841e-06 -9.80149e-06)
(4.90373e-06 -1.50428e-08 -4.20688e-07 4.89909e-06 1.2391e-06 -9.80281e-06)
(4.90619e-06 -3.92756e-08 -1.25697e-06 4.91215e-06 1.25453e-06 -9.81834e-06)
(4.84835e-06 -7.85643e-08 -2.08648e-06 4.96612e-06 1.28445e-06 -9.81447e-06)
(4.88984e-06 -1.81946e-08 -2.9344e-06 4.97345e-06 1.31409e-06 -9.86329e-06)
(4.9303e-06 -2.52892e-07 -3.8157e-06 4.92996e-06 1.34362e-06 -9.86025e-06)
(5.0197e-06 6.45307e-08 3.75495e-06 4.82479e-06 4.44017e-07 -9.84449e-06)
(4.8917e-06 -1.07954e-08 2.9094e-06 4.95567e-06 4.32182e-07 -9.84737e-06)
(4.8682e-06 1.60899e-08 2.06377e-06 4.93904e-06 4.2481e-07 -9.80725e-06)
(4.8963e-06 2.74411e-09 1.23758e-06 4.9068e-06 4.16175e-07 -9.8031e-06)
(4.89779e-06 -3.08093e-09 4.11247e-07 4.90058e-06 4.12074e-07 -9.79837e-06)
(4.89716e-06 -6.59648e-09 -4.1534e-07 4.90127e-06 4.12565e-07 -9.79844e-06)
(4.89336e-06 -1.35137e-08 -1.24146e-06 4.90883e-06 4.1773e-07 -9.80219e-06)
(4.86188e-06 -2.77041e-08 -2.0675e-06 4.94507e-06 4.27757e-07 -9.80695e-06)
(4.87945e-06 7.40336e-10 -2.91212e-06 4.96709e-06 4.36606e-07 -9.84654e-06)
(5.00319e-06 -6.84069e-08 -3.75489e-06 4.84e-06 4.4958e-07 -9.84319e-06)
(5.01333e-06 -6.90852e-08 3.75493e-06 4.8301e-06 -4.54228e-07 -9.84343e-06)
(4.88928e-06 -3.98598e-09 2.91041e-06 4.95814e-06 -4.40566e-07 -9.84742e-06)
(4.86846e-06 -3.2657e-08 2.0648e-06 4.93917e-06 -4.30882e-07 -9.80763e-06)
(4.89698e-06 -1.66357e-08 1.23823e-06 4.90562e-06 -4.20211e-07 -9.8026e-06)
(4.89897e-06 -7.26798e-09 4.11831e-07 4.89981e-06 -4.14745e-07 -9.79878e-06)
(4.89825e-06 -8.69801e-10 -4.14988e-07 4.90055e-06 -4.14337e-07 -9.7988e-06)
(4.89407e-06 8.17235e-09 -1.24128e-06 4.90834e-06 -4.18972e-07 -9.80241e-06)
(4.86233e-06 2.38538e-08 -2.06737e-06 4.94476e-06 -4.28697e-07 -9.80709e-06)
(4.87979e-06 -3.5744e-09 -2.91207e-06 4.96687e-06 -4.37396e-07 -9.84666e-06)
(5.00313e-06 6.59113e-08 -3.75486e-06 4.84003e-06 -4.50297e-07 -9.84316e-06)
(4.93693e-06 -2.53195e-07 3.81591e-06 4.92277e-06 -1.34725e-06 -9.8597e-06)
(4.89901e-06 -2.11523e-08 2.93317e-06 4.96577e-06 -1.31726e-06 -9.86478e-06)
(4.85518e-06 -8.14666e-08 2.08429e-06 4.96044e-06 -1.28711e-06 -9.81562e-06)
(4.91116e-06 -4.09762e-08 1.25407e-06 4.90823e-06 -1.25682e-06 -9.81939e-06)
(4.90771e-06 -1.43951e-08 4.1717e-07 4.89619e-06 -1.24127e-06 -9.8039e-06)
(4.90682e-06 7.76853e-09 -4.19618e-07 4.897e-06 -1.24095e-06 -9.80383e-06)
(4.90845e-06 3.41504e-08 -1.25633e-06 4.91059e-06 -1.25582e-06 -9.81904e-06)
(4.84994e-06 7.49056e-08 -2.08617e-06 4.96504e-06 -1.28542e-06 -9.81498e-06)
(4.89077e-06 1.55611e-08 -2.93425e-06 4.97284e-06 -1.3149e-06 -9.86361e-06)
(4.93002e-06 2.50508e-07 -3.81557e-06 4.93008e-06 -1.34432e-06 -9.8601e-06)
(4.8715e-06 2.71752e-08 3.89379e-06 5.0986e-06 -2.25383e-06 -9.9701e-06)
(5.03237e-06 -6.66197e-08 2.96925e-06 4.79996e-06 -2.18695e-06 -9.83233e-06)
(4.8969e-06 -1.38212e-07 2.12648e-06 4.89055e-06 -2.12878e-06 -9.78745e-06)
(4.96644e-06 -8.00023e-08 1.28443e-06 4.8509e-06 -2.08705e-06 -9.81735e-06)
(4.94386e-06 -2.87619e-08 4.27363e-07 4.86397e-06 -2.06748e-06 -9.80783e-06)
(4.9431e-06 2.32633e-08 -4.29193e-07 4.86458e-06 -2.0672e-06 -9.80768e-06)
(4.96396e-06 7.46177e-08 -1.28613e-06 4.85292e-06 -2.08618e-06 -9.81689e-06)
(4.89232e-06 1.33059e-07 -2.12777e-06 4.89425e-06 -2.12737e-06 -9.78657e-06)
(5.02561e-06 6.23445e-08 -2.96987e-06 4.80548e-06 -2.18501e-06 -9.83108e-06)
(4.8671e-06 -2.80454e-08 -3.89343e-06 5.10395e-06 -2.25151e-06 -9.97105e-06)
(3.69693e-06 -1.12155e-06 4.08699e-06 6.29133e-06 -3.18227e-06 -9.98826e-06)
(4.8741e-06 -5.03292e-07 3.0512e-06 4.86508e-06 -3.05286e-06 -9.73919e-06)
(4.81354e-06 -6.61651e-08 2.18718e-06 5.03052e-06 -2.9745e-06 -9.84406e-06)
(4.97386e-06 -1.95086e-08 1.31422e-06 4.89141e-06 -2.93517e-06 -9.86528e-06)
(4.96623e-06 -2.93291e-10 4.36416e-07 4.88101e-06 -2.91238e-06 -9.84724e-06)
(4.96554e-06 -4.35825e-09 -4.37678e-07 4.88156e-06 -2.91209e-06 -9.84711e-06)
(4.97171e-06 1.49856e-08 -1.31536e-06 4.89315e-06 -2.93434e-06 -9.86486e-06)
(4.80976e-06 6.21148e-08 -2.18807e-06 5.03351e-06 -2.97316e-06 -9.84328e-06)
(4.86842e-06 5.00421e-07 -3.05156e-06 4.86967e-06 -3.05117e-06 -9.73809e-06)
(3.69456e-06 1.12294e-06 -4.08645e-06 6.29532e-06 -3.18033e-06 -9.98988e-06)
(5.14733e-06 9.81818e-07 4.53442e-06 5.1467e-06 -4.5354e-06 -1.0294e-05)
(6.30054e-06 -1.12563e-06 3.18196e-06 3.69531e-06 -4.08965e-06 -9.99585e-06)
(5.10573e-06 2.51931e-08 2.25148e-06 4.86728e-06 -3.89489e-06 -9.97301e-06)
(4.93048e-06 -2.53646e-07 1.34378e-06 4.93019e-06 -3.81634e-06 -9.86067e-06)
(4.83981e-06 -6.9083e-08 4.49633e-07 5.00359e-06 -3.75532e-06 -9.8434e-06)
(4.83924e-06 6.53325e-08 -4.50304e-07 5.004e-06 -3.75503e-06 -9.84325e-06)
(4.92884e-06 2.49997e-07 -1.3444e-06 4.93137e-06 -3.81547e-06 -9.86021e-06)
(5.10299e-06 -2.85363e-08 -2.25195e-06 4.86932e-06 -3.89347e-06 -9.97232e-06)
(6.2972e-06 1.12316e-06 -3.18218e-06 3.6976e-06 -4.08794e-06 -9.9948e-06)
(5.14705e-06 -9.79285e-07 -4.53389e-06 5.14824e-06 -4.53355e-06 -1.02953e-05)
(3.49542e-06 2.30402e-07 4.22243e-06 3.49327e-06 4.22269e-06 -6.98869e-06)
(3.72424e-06 2.50356e-07 2.93366e-06 2.89523e-06 3.76879e-06 -6.61948e-06)
(3.21298e-06 -3.18492e-07 2.05594e-06 3.53434e-06 3.69158e-06 -6.74732e-06)
(3.15747e-06 7.4161e-08 1.2205e-06 3.50242e-06 3.63961e-06 -6.65989e-06)
(3.10966e-06 -2.99348e-08 4.07004e-07 3.5711e-06 3.59317e-06 -6.68076e-06)
(3.11004e-06 3.59413e-08 -4.15707e-07 3.56971e-06 3.59339e-06 -6.67976e-06)
(3.16738e-06 -6.74998e-08 -1.23082e-06 3.49405e-06 3.64012e-06 -6.66143e-06)
(3.24246e-06 3.2262e-07 -2.06998e-06 3.51417e-06 3.69348e-06 -6.75662e-06)
(3.72148e-06 -2.2894e-07 -2.95153e-06 2.86948e-06 3.77283e-06 -6.59096e-06)
(3.45088e-06 -1.91942e-07 -4.22152e-06 3.4513e-06 4.22045e-06 -6.90219e-06)
(2.89056e-06 2.47034e-07 3.77044e-06 3.73375e-06 2.93671e-06 -6.62431e-06)
(3.19415e-06 5.34409e-08 2.82852e-06 3.20409e-06 2.82982e-06 -6.39824e-06)
(3.22218e-06 -1.27701e-07 2.03991e-06 3.4499e-06 2.7934e-06 -6.67208e-06)
(3.33278e-06 -4.18202e-08 1.21949e-06 3.39976e-06 2.78494e-06 -6.73254e-06)
(3.31487e-06 -3.00742e-08 4.02864e-07 3.44877e-06 2.7736e-06 -6.76364e-06)
(3.31612e-06 2.97637e-08 -4.10872e-07 3.44725e-06 2.77411e-06 -6.76337e-06)
(3.33826e-06 4.15608e-08 -1.22866e-06 3.39448e-06 2.78694e-06 -6.73273e-06)
(3.23749e-06 1.14717e-07 -2.05367e-06 3.44487e-06 2.8017e-06 -6.68236e-06)
(3.19436e-06 -9.42358e-08 -2.83983e-06 3.19847e-06 2.83834e-06 -6.39283e-06)
(2.86489e-06 -2.29388e-07 -3.77156e-06 3.722e-06 2.94819e-06 -6.58689e-06)
(3.53512e-06 -3.27625e-07 3.69223e-06 3.21722e-06 2.057e-06 -6.75234e-06)
(3.45052e-06 -1.32228e-07 2.79648e-06 3.23363e-06 2.04411e-06 -6.68414e-06)
(3.37836e-06 -3.02354e-08 2.00184e-06 3.38391e-06 2.00311e-06 -6.76227e-06)
(3.40799e-06 -4.12551e-09 1.20019e-06 3.39314e-06 1.97704e-06 -6.80113e-06)
(3.36747e-06 5.6087e-10 3.96284e-07 3.43921e-06 1.96423e-06 -6.80668e-06)
(3.3681e-06 -4.2082e-09 -4.03153e-07 3.43855e-06 1.96487e-06 -6.80665e-06)
(3.41036e-06 -5.7354e-10 -1.20767e-06 3.39166e-06 1.97946e-06 -6.80202e-06)
(3.37793e-06 2.16934e-08 -2.00922e-06 3.38161e-06 2.00717e-06 -6.75955e-06)
(3.43579e-06 1.14378e-07 -2.79887e-06 3.23612e-06 2.04836e-06 -6.67192e-06)
(3.5116e-06 3.2185e-07 -3.69373e-06 3.24391e-06 2.06726e-06 -6.7555e-06)
(3.5047e-06 6.88749e-08 3.64006e-06 3.1574e-06 1.22038e-06 -6.6621e-06)
(3.39833e-06 -4.61156e-08 2.78473e-06 3.3366e-06 1.22019e-06 -6.73493e-06)
(3.39053e-06 -5.72221e-09 1.97644e-06 3.41273e-06 1.20131e-06 -6.80326e-06)
(3.4241e-06 -2.08765e-08 1.18249e-06 3.42744e-06 1.18347e-06 -6.85154e-06)
(3.40393e-06 -7.23595e-09 3.90623e-07 3.45116e-06 1.17484e-06 -6.85509e-06)
(3.40448e-06 3.40721e-09 -3.96198e-07 3.45148e-06 1.1756e-06 -6.85596e-06)
(3.42383e-06 1.62921e-08 -1.18806e-06 3.42738e-06 1.1854e-06 -6.85121e-06)
(3.38685e-06 -6.12096e-10 -1.9811e-06 3.41331e-06 1.20465e-06 -6.80016e-06)
(3.38967e-06 4.0631e-08 -2.78811e-06 3.34144e-06 1.22548e-06 -6.73112e-06)
(3.49116e-06 -6.98174e-08 -3.64111e-06 3.16978e-06 1.22764e-06 -6.66094e-06)
(3.57359e-06 -3.3578e-08 3.59405e-06 3.10865e-06 4.06656e-07 -6.68224e-06)
(3.44869e-06 -3.32498e-08 2.77336e-06 3.31628e-06 4.02925e-07 -6.76497e-06)
(3.4373e-06 -1.24144e-09 1.96346e-06 3.37015e-06 3.96722e-07 -6.80745e-06)
(3.44904e-06 -7.94093e-09 1.17414e-06 3.40717e-06 3.91309e-07 -6.8562e-06)
(3.43473e-06 -3.45301e-09 3.88793e-07 3.43719e-06 3.89487e-07 -6.87192e-06)
(3.43447e-06 -5.92207e-11 -3.93142e-07 3.43732e-06 3.90005e-07 -6.87179e-06)
(3.44747e-06 3.80803e-09 -1.17816e-06 3.40728e-06 3.929e-07 -6.85475e-06)
(3.4339e-06 -3.82477e-09 -1.96712e-06 3.37202e-06 3.99625e-07 -6.80592e-06)
(3.44192e-06 2.88798e-08 -2.77593e-06 3.32067e-06 4.07038e-07 -6.76258e-06)
(3.56579e-06 3.28516e-08 -3.59436e-06 3.11352e-06 4.11654e-07 -6.67931e-06)
(3.57197e-06 3.38208e-08 3.59423e-06 3.10891e-06 -4.16137e-07 -6.68088e-06)
(3.44765e-06 2.74487e-08 2.77418e-06 3.31655e-06 -4.11045e-07 -6.7642e-06)
(3.43745e-06 -5.88062e-09 1.96431e-06 3.36961e-06 -4.03023e-07 -6.80706e-06)
(3.44922e-06 2.53239e-09 1.17472e-06 3.40606e-06 -3.95812e-07 -6.85529e-06)
(3.43525e-06 -3.83018e-10 3.89368e-07 3.43663e-06 -3.92707e-07 -6.87188e-06)
(3.43487e-06 -2.78086e-09 -3.92736e-07 3.43688e-06 -3.92268e-07 -6.87175e-06)
(3.4477e-06 -5.97773e-09 -1.17788e-06 3.407e-06 -3.94491e-07 -6.8547e-06)
(3.43399e-06 2.02403e-09 -1.96692e-06 3.37187e-06 -4.00743e-07 -6.80587e-06)
(3.44191e-06 -3.05207e-08 -2.77579e-06 3.32063e-06 -4.07831e-07 -6.76254e-06)
(3.56573e-06 -3.4537e-08 -3.59424e-06 3.11355e-06 -4.12189e-07 -6.67928e-06)
(3.49617e-06 -6.8773e-08 3.64111e-06 3.16582e-06 -1.23123e-06 -6.66199e-06)
(3.39479e-06 4.00676e-08 2.78672e-06 3.33757e-06 -1.22872e-06 -6.73235e-06)
(3.3904e-06 -1.72058e-09 1.97866e-06 3.41045e-06 -1.20752e-06 -6.80085e-06)
(3.42612e-06 1.5508e-08 1.18485e-06 3.42534e-06 -1.18801e-06 -6.85147e-06)
(3.40615e-06 3.53268e-09 3.92401e-07 3.44976e-06 -1.17816e-06 -6.85591e-06)
(3.40564e-06 -6.01899e-09 -3.94987e-07 3.45019e-06 -1.17782e-06 -6.85583e-06)
(3.42451e-06 -1.81881e-08 -1.18721e-06 3.42653e-06 -1.18696e-06 -6.85104e-06)
(3.38717e-06 -9.46553e-10 -1.98052e-06 3.41289e-06 -1.20575e-06 -6.80006e-06)
(3.38965e-06 -4.20612e-08 -2.78771e-06 3.34139e-06 -1.22628e-06 -6.73104e-06)
(3.49074e-06 6.8262e-08 -3.64074e-06 3.17016e-06 -1.22822e-06 -6.66091e-06)
(3.51576e-06 3.22855e-07 3.69363e-06 3.24027e-06 -2.07003e-06 -6.75603e-06)
(3.4403e-06 1.13952e-07 2.79767e-06 3.23231e-06 -2.05097e-06 -6.67261e-06)
(3.38145e-06 2.09423e-08 2.00696e-06 3.3784e-06 -2.00957e-06 -6.75986e-06)
(3.41321e-06 -9.94192e-10 1.20453e-06 3.38877e-06 -1.98177e-06 -6.80197e-06)
(3.37078e-06 -3.87201e-09 3.99192e-07 3.43553e-06 -1.96725e-06 -6.80632e-06)
(3.37025e-06 2.24239e-09 -4.01149e-07 3.43599e-06 -1.96698e-06 -6.80623e-06)
(3.41154e-06 -7.05074e-10 -1.20628e-06 3.39019e-06 -1.98094e-06 -6.80174e-06)
(3.37842e-06 -2.26538e-08 -2.00827e-06 3.38093e-06 -2.0082e-06 -6.75936e-06)
(3.4358e-06 -1.15166e-07 -2.79824e-06 3.23592e-06 -2.04909e-06 -6.67172e-06)
(3.51046e-06 -3.22436e-07 -3.69322e-06 3.24466e-06 -2.06777e-06 -6.75512e-06)
(2.86882e-06 -2.2805e-07 3.77126e-06 3.71834e-06 -2.95023e-06 -6.58716e-06)
(3.19879e-06 -9.44296e-08 2.83858e-06 3.19411e-06 -2.84038e-06 -6.3929e-06)
(3.24114e-06 1.14138e-07 2.05141e-06 3.44112e-06 -2.8037e-06 -6.68226e-06)