/*--------------------------------*- C++ -*----------------------------------*\
| =========                 |                                                 |
| \\      /  F ield         | OpenFOAM: The Open Source CFD Toolbox           |
|  \\    /   O peration     | Version:  2406                                  |
|   \\  /    A nd           | Website:  www.openfoam.com                      |
|    \\/     M anipulation  |                                                 |
\*---------------------------------------------------------------------------*/
FoamFile
{
    version     2.0;
    format      ascii;
    arch        "LSB;label=32;scalar=64";
    class       volVectorField;
    location    "350";
    object      U;
}
// * * * * * * * * * * * * * * * * * * * * * * * * * * * * * * * * * * * * * //

dimensions      [0 1 -1 0 0 0 0];

internalField   nonuniform List<vector> 
25000
(
(0.00532779 0.00532987 1.00324)
(0.0036737 0.00481833 1.00301)
(0.00258876 0.004602 1.00283)
(0.0015381 0.00447452 1.00271)
(0.000507559 0.00440809 1.00265)
(-0.000514996 0.00440838 1.00265)
(-0.00154733 0.00447521 1.00271)
(-0.00260314 0.00460334 1.00283)
(-0.00370171 0.00482229 1.00301)
(-0.00532698 0.00532553 1.00325)
(0.00481787 0.00367466 1.00301)
(0.0035321 0.00353333 1.00273)
(0.00247229 0.0034248 1.00254)
(0.00146726 0.00335071 1.00242)
(0.00048404 0.00331314 1.00236)
(-0.000490549 0.00331361 1.00236)
(-0.00147507 0.00335239 1.00242)
(-0.00248273 0.00342891 1.00254)
(-0.00354553 0.00354388 1.00273)
(-0.00482352 0.00369994 1.00301)
(0.0046027 0.00258873 1.00283)
(0.0034241 0.0024728 1.00254)
(0.00238964 0.00239027 1.00234)
(0.00141451 0.0023322 1.00221)
(0.000466542 0.00230302 1.00215)
(-0.000471714 0.00230355 1.00215)
(-0.00142027 0.00233406 1.00221)
(-0.00239625 0.00239432 1.00234)
(-0.00343052 0.00248072 1.00254)
(-0.00460463 0.00260097 1.00283)
(0.00447533 0.00153795 1.00271)
(0.00335052 0.00146742 1.00242)
(0.00233175 0.00141488 1.00221)
(0.00137618 0.00137658 1.00208)
(0.000453719 0.0013571 1.00202)
(-0.00045768 0.00135757 1.00202)
(-0.00138036 0.00137816 1.00208)
(-0.00233599 0.00141798 1.00221)
(-0.00335404 0.00147259 1.00242)
(-0.0044766 0.00154466 1.00271)
(0.0044089 0.000507577 1.00264)
(0.00331316 0.000484098 1.00236)
(0.00230272 0.00046674 1.00215)
(0.00135677 0.00045399 1.00202)
(0.00044724 0.000447521 1.00196)
(-0.000450259 0.000447897 1.00196)
(-0.00135981 0.000455197 1.00202)
(-0.00230563 0.000468954 1.00215)
(-0.00331543 0.000487425 1.00236)
(-0.00440988 0.000511597 1.00265)
(0.00440888 -0.000514814 1.00264)
(0.00331367 -0.000490452 1.00236)
(0.00230335 -0.000471548 1.00215)
(0.00135729 -0.000457457 1.00202)
(0.000447637 -0.000450015 1.00196)
(-0.000449983 -0.000449731 1.00196)
(-0.00135962 -0.000456582 1.00202)
(-0.00230548 -0.000470018 1.00215)
(-0.00331532 -0.000488247 1.00236)
(-0.00440978 -0.000512207 1.00265)
(0.00447548 -0.00154698 1.00271)
(0.00335237 -0.00147484 1.00242)
(0.00233386 -0.00142005 1.00221)
(0.0013779 -0.00138012 1.00208)
(0.000454938 -0.00135956 1.00202)
(-0.000456836 -0.00135936 1.00202)
(-0.00137976 -0.0013795 1.00208)
(-0.00233556 -0.001419 1.00221)
(-0.0033537 -0.00147337 1.00242)
(-0.00447631 -0.00154524 1.00271)
(0.00460332 -0.00260263 1.00283)
(0.00342875 -0.00248239 1.00254)
(0.00239407 -0.00239595 1.00234)
(0.0014177 -0.00233572 1.00221)
(0.000468684 -0.00230536 1.00215)
(-0.000470281 -0.00230522 1.00215)
(-0.00141927 -0.0023353 1.00221)
(-0.00239552 -0.00239525 1.00234)
(-0.00342994 -0.00248142 1.00254)
(-0.00460413 -0.00260149 1.00283)
(0.00482206 -0.00370115 1.00301)
(0.00354358 -0.00354509 1.00273)
(0.00248038 -0.00343013 1.00254)
(0.00147225 -0.00335371 1.00242)
(0.000487125 -0.00331512 1.00236)
(-0.000488537 -0.00331504 1.00236)
(-0.00147365 -0.00335345 1.00242)
(-0.00248169 -0.0034297 1.00254)
(-0.00354472 -0.00354448 1.00273)
(-0.00482286 -0.00370041 1.00301)
(0.00532518 -0.0053264 1.00325)
(0.0036995 -0.00482291 1.00301)
(0.00260051 -0.00460409 1.00283)
(0.00154423 -0.00447615 1.00271)
(0.000511223 -0.00440949 1.00265)
(-0.000512546 -0.00440946 1.00265)
(-0.00154556 -0.00447605 1.00271)
(-0.0026018 -0.00460395 1.00283)
(-0.00370067 -0.00482272 1.00301)
(-0.00532612 -0.00532598 1.00325)
(0.00710794 0.00711704 1.01897)
(0.00489566 0.00634417 1.01807)
(0.00344518 0.00637933 1.01738)
(0.00205279 0.00635214 1.01692)
(0.000675574 0.00632956 1.01668)
(-0.000700156 0.00632973 1.01668)
(-0.00208286 0.00635191 1.01692)
(-0.00349109 0.00638065 1.01738)
(-0.00497957 0.00635145 1.01808)
(-0.00710873 0.00710447 1.01899)
(0.00633409 0.00490122 1.01807)
(0.00482192 0.00482992 1.01703)
(0.00351508 0.00486773 1.01628)
(0.00211363 0.00490861 1.01577)
(0.000697238 0.00492987 1.01552)
(-0.000720704 0.00493094 1.01552)
(-0.00214099 0.00491252 1.01577)
(-0.00354968 0.00487865 1.01628)
(-0.00486482 0.00485941 1.01704)
(-0.0063555 0.00497401 1.01808)
(0.00637548 0.00344541 1.01738)
(0.00486123 0.00351884 1.01627)
(0.00352495 0.00352976 1.01547)
(0.00212629 0.00353647 1.01494)
(0.000703224 0.00354187 1.01468)
(-0.00072337 0.00354344 1.01468)
(-0.00214805 0.00354207 1.01494)
(-0.00354881 0.00354203 1.01548)
(-0.00488396 0.00354278 1.01628)
(-0.00638461 0.00348402 1.01739)
(0.00635048 0.00205123 1.01691)
(0.00490461 0.002115 1.01577)
(0.00353242 0.00212906 1.01494)
(0.00212794 0.00213116 1.01439)
(0.000705155 0.00213309 1.01412)
(-0.000721523 0.00213473 1.01412)
(-0.00214485 0.00213657 1.0144)
(-0.00354882 0.00213961 1.01494)
(-0.00491781 0.00213213 1.01578)
(-0.00635585 0.00207397 1.01692)
(0.00633019 0.000673711 1.01668)
(0.00492751 0.000697122 1.01552)
(0.00353868 0.000704499 1.01468)
(0.00213027 0.000707127 1.01412)
(0.000706946 0.000709135 1.01385)
(-0.000720066 0.00071055 1.01385)
(-0.00214313 0.000711678 1.01412)
(-0.00355064 0.000712748 1.01468)
(-0.00493648 0.000709311 1.01552)
(-0.0063333 0.000688563 1.01668)
(0.00633063 -0.000702172 1.01668)
(0.00493002 -0.000721581 1.01552)
(0.00354139 -0.000723074 1.01468)
(0.00213238 -0.000720466 1.01412)
(0.000708575 -0.000718661 1.01385)
(-0.000718992 -0.00071747 1.01385)
(-0.00214248 -0.000716891 1.01412)
(-0.00355014 -0.000716838 1.01468)
(-0.00493617 -0.000712668 1.01552)
(-0.00633312 -0.000691414 1.01668)
(0.00635379 -0.00208481 1.01692)
(0.00491234 -0.0021421 1.01577)
(0.00354074 -0.00214847 1.01494)
(0.00213486 -0.00214455 1.01439)
(0.000709953 -0.00214247 1.01412)
(-0.000718304 -0.00214154 1.01412)
(-0.00214271 -0.00214173 1.0144)
(-0.00354751 -0.00214368 1.01494)
(-0.00491696 -0.0021355 1.01578)
(-0.00635526 -0.00207684 1.01692)
(0.0063825 -0.00349295 1.01738)
(0.00487907 -0.00355123 1.01628)
(0.00354131 -0.00354973 1.01548)
(0.00213835 -0.00354936 1.01494)
(0.000711405 -0.00355069 1.01468)
(-0.000718075 -0.00354996 1.01468)
(-0.00214463 -0.00354707 1.01494)
(-0.00354654 -0.00354605 1.01548)
(-0.0048825 -0.0035461 1.01628)
(-0.00638367 -0.0034869 1.01739)
(0.00635343 -0.00498137 1.01808)
(0.00485996 -0.00486661 1.01704)
(0.00354238 -0.00488549 1.01628)
(0.00213128 -0.00491896 1.01577)
(0.00070831 -0.00493727 1.01552)
(-0.000713608 -0.00493664 1.01552)
(-0.00213624 -0.00491711 1.01577)
(-0.0035466 -0.00488244 1.01628)
(-0.00486277 -0.00486261 1.01704)
(-0.00635426 -0.00497678 1.01808)
(0.00710565 -0.0071104 1.01899)
(0.00497437 -0.0063574 1.01808)
(0.00348384 -0.00638632 1.01738)
(0.00207345 -0.00635728 1.01692)
(0.000687922 -0.00633445 1.01668)
(-0.000692022 -0.00633399 1.01668)
(-0.00207733 -0.00635584 1.01692)
(-0.0034872 -0.00638399 1.01739)
(-0.0049769 -0.00635432 1.01808)
(-0.00710694 -0.00710701 1.01899)
(0.00527909 0.00528477 1.03501)
(0.00369395 0.00470583 1.03391)
(0.0025413 0.00495468 1.03308)
(0.00150718 0.00497656 1.03253)
(0.000491505 0.00499786 1.03225)
(-0.000511504 0.00499798 1.03225)
(-0.00152948 0.00497644 1.03253)
(-0.00257401 0.00495597 1.03309)
(-0.00374353 0.00471122 1.03392)
(-0.0052874 0.00528382 1.03504)
(0.0046981 0.00369836 1.03391)
(0.00364923 0.0036552 1.03267)
(0.00268032 0.00376221 1.03174)
(0.00160112 0.003832 1.03112)
(0.000527277 0.00387122 1.03081)
(-0.000546902 0.00387202 1.03081)
(-0.00162267 0.00383459 1.03112)
(-0.00270569 0.00376876 1.03175)
(-0.00367904 0.00367452 1.03268)
(-0.00471424 0.00373873 1.03392)
(0.00495042 0.00254222 1.03308)
(0.00375697 0.00268348 1.03174)
(0.0027286 0.00273253 1.03074)
(0.0016309 0.00276556 1.03007)
(0.000537075 0.00278243 1.02974)
(-0.000554299 0.00278368 1.02974)
(-0.00164879 0.00276978 1.03008)
(-0.00274711 0.00274113 1.03075)
(-0.00377324 0.00269959 1.03175)
(-0.00495909 0.00256769 1.03309)
(0.00497393 0.00150649 1.03253)
(0.00382834 0.00160251 1.03112)
(0.00276211 0.00163325 1.03007)
(0.00165453 0.00165723 1.02937)
(0.000546033 0.00167065 1.02903)
(-0.000560316 0.001672 1.02903)
(-0.00166897 0.00166149 1.02938)
(-0.00277572 0.0016412 1.03008)
(-0.00383903 0.00161477 1.03112)
(-0.00497941 0.00152169 1.03254)
(0.0049971 0.000490262 1.03225)
(0.00386871 0.000527409 1.03081)
(0.00277954 0.000538214 1.02974)
(0.00166822 0.000547656 1.02902)
(0.000551833 0.000553625 1.02867)
(-0.000563524 0.000554803 1.02867)
(-0.00167956 0.000551389 1.02903)
(-0.00278992 0.000544826 1.02974)
(-0.00387653 0.000536926 1.03081)
(-0.00500055 0.000501625 1.03226)
(0.00499778 -0.000513163 1.03225)
(0.00387063 -0.000547559 1.03081)
(0.00278162 -0.000554079 1.02974)
(0.00166989 -0.000559551 1.02903)
(0.000553169 -0.000562508 1.02867)
(-0.000562574 -0.000561474 1.02867)
(-0.00167891 -0.000556484 1.02903)
(-0.00278942 -0.00054879 1.02974)
(-0.00387617 -0.000540076 1.03081)
(-0.00500028 -0.000504151 1.03226)
(0.00497729 -0.0015313 1.03253)
(0.00383388 -0.00162369 1.03112)
(0.00276829 -0.0016493 1.03008)
(0.00165987 -0.00166893 1.02938)
(0.00054994 -0.00167926 1.02903)
(-0.000557504 -0.00167844 1.02903)
(-0.00166695 -0.00166643 1.02938)
(-0.00277433 -0.00164507 1.03008)
(-0.00383803 -0.00161788 1.03112)
(-0.00497865 -0.00152423 1.03254)
(0.00495704 -0.0025758 1.03309)
(0.00376858 -0.00270725 1.03175)
(0.00274013 -0.00274813 1.03075)
(0.00163994 -0.00277643 1.03008)
(0.000543641 -0.00279028 1.02974)
(-0.000549694 -0.00278963 1.02974)
(-0.00164557 -0.00277438 1.03008)
(-0.0027448 -0.0027448 1.03075)
(-0.00377162 -0.00270261 1.03175)
(-0.0049579 -0.00257026 1.03309)
(0.00471225 -0.00374537 1.03392)
(0.00367448 -0.00368092 1.03268)
(0.00269895 -0.00377482 1.03175)
(0.00161384 -0.00384029 1.03112)
(0.000536013 -0.00387753 1.03081)
(-0.000540814 -0.00387696 1.03081)
(-0.00161829 -0.00383864 1.03112)
(-0.00270262 -0.00377207 1.03175)
(-0.0036769 -0.00367726 1.03268)
(-0.00471284 -0.00374111 1.03392)
(0.00528434 -0.00528908 1.03504)
(0.00373871 -0.00471625 1.03392)
(0.00256733 -0.00496084 1.03309)
(0.00152107 -0.00498099 1.03253)
(0.000500966 -0.00500194 1.03225)
(-0.00050468 -0.00500152 1.03225)
(-0.0015245 -0.0049797 1.03254)
(-0.0025702 -0.00495875 1.03309)
(-0.00374076 -0.00471342 1.03392)
(-0.00528542 -0.00528589 1.03504)
(0.00356123 0.00356633 1.04582)
(0.00263902 0.00332857 1.04474)
(0.00179347 0.00366303 1.04394)
(0.00107301 0.00370479 1.04342)
(0.000346005 0.00376479 1.04315)
(-0.000354404 0.00376443 1.04315)
(-0.00108138 0.00370333 1.04342)
(-0.00180813 0.00366104 1.04395)
(-0.00266671 0.00332794 1.04475)
(-0.0035632 0.00356144 1.04584)
(0.00332077 0.00264297 1.04474)
(0.00265654 0.00266215 1.04354)
(0.00193674 0.00279924 1.04264)
(0.0011545 0.00285916 1.04204)
(0.000382923 0.00290107 1.04174)
(-0.000392252 0.00290118 1.04174)
(-0.00116443 0.0028595 1.04204)
(-0.00194855 0.00280008 1.04265)
(-0.00267189 0.00266988 1.04355)
(-0.00332896 0.00266448 1.04475)
(0.00365824 0.00179425 1.04394)
(0.00279431 0.00193965 1.04264)
(0.00201197 0.00201547 1.04167)
(0.00118864 0.00205832 1.04102)
(0.000392746 0.00207824 1.04069)
(-0.000401325 0.00207867 1.0407)
(-0.00119749 0.00205979 1.04102)
(-0.00202134 0.00201838 1.04167)
(-0.00280211 0.00194555 1.04265)
(-0.00366225 0.00180513 1.04395)
(0.00370134 0.0010728 1.04342)
(0.00285536 0.00115592 1.04204)
(0.00205511 0.00119081 1.04102)
(0.00122094 0.00122333 1.04034)
(0.000403355 0.00123912 1.04)
(-0.000410936 0.00123961 1.04)
(-0.00122865 0.00122482 1.04034)
(-0.00206267 0.00119364 1.04102)
(-0.00286132 0.00116057 1.04204)
(-0.00370415 0.00107798 1.04342)
(0.00376263 0.000345564 1.04315)
(0.00289812 0.000383488 1.04174)
(0.0020754 0.000393979 1.04069)
(0.00123686 0.000404889 1.04)
(0.000408734 0.000410364 1.03966)
(-0.000415428 0.000410792 1.03966)
(-0.00124345 0.00040626 1.04)
(-0.00208155 0.000396504 1.0407)
(-0.00290275 0.000387396 1.04174)
(-0.00376472 0.000350124 1.04316)
(0.0037628 -0.000355003 1.04315)
(0.00289891 -0.000392206 1.04174)
(0.00207631 -0.000400755 1.04069)
(0.00123754 -0.000410053 1.04)
(0.000409242 -0.000414419 1.03966)
(-0.000415058 -0.000414015 1.03966)
(-0.00124317 -0.000408867 1.04)
(-0.00208132 -0.000398626 1.0407)
(-0.00290254 -0.000389092 1.04174)
(-0.00376451 -0.000351403 1.04316)
(0.0037022 -0.00108195 1.04342)
(0.00285765 -0.00116456 1.04204)
(0.00205778 -0.00119735 1.04102)
(0.00122301 -0.00122824 1.04034)
(0.000404798 -0.00124294 1.04)
(-0.000409873 -0.00124263 1.04)
(-0.00122784 -0.00122731 1.04034)
(-0.00206201 -0.00119571 1.04102)
(-0.00286075 -0.00116227 1.04204)
(-0.00370357 -0.00107931 1.04342)
(0.00365998 -0.00180843 1.04395)
(0.00279848 -0.00194885 1.04265)
(0.0020166 -0.0020214 1.04167)
(0.00119199 -0.00206264 1.04102)
(0.000395107 -0.00208145 1.0407)
(-0.000399649 -0.00208128 1.0407)
(-0.00119626 -0.00206202 1.04102)
(-0.00202034 -0.00202038 1.04167)
(-0.00280123 -0.00194732 1.04265)
(-0.00366133 -0.00180672 1.04395)
(0.00332656 -0.00266697 1.04475)
(0.00266826 -0.00267228 1.04355)
(0.00194392 -0.00280233 1.04265)
(0.00115897 -0.00286154 1.04204)
(0.000385974 -0.00290304 1.04174)
(-0.000390217 -0.00290297 1.04174)
(-0.00116297 -0.00286134 1.04204)
(-0.0019474 -0.00280192 1.04265)
(-0.00267095 -0.00267157 1.04355)
(-0.00332826 -0.00266617 1.04475)
(0.00356008 -0.0035633 1.04584)
(0.00266299 -0.00332924 1.04475)
(0.0018036 -0.00366229 1.04395)
(0.00107632 -0.00370443 1.04342)
(0.000348555 -0.00376522 1.04316)
(-0.000352755 -0.00376537 1.04316)
(-0.00108027 -0.00370478 1.04342)
(-0.00180703 -0.00366284 1.04395)
(-0.00266569 -0.00332955 1.04475)
(-0.00356235 -0.00356326 1.04584)
(0.00235661 0.0023634 1.05231)
(0.00192294 0.00234874 1.05127)
(0.00129554 0.00263478 1.05052)
(0.000791239 0.00266826 1.05003)
(0.000249752 0.00274209 1.04978)
(-0.000250219 0.00274127 1.04978)
(-0.000790616 0.00266536 1.05003)
(-0.0012976 0.00262959 1.05052)
(-0.00193335 0.00234175 1.05127)
(-0.0023526 0.00235113 1.05231)
(0.00233993 0.00192603 1.05127)
(0.00194296 0.00194835 1.05013)
(0.00139981 0.00206913 1.04927)
(0.000844254 0.0021023 1.0487)
(0.000282502 0.00214069 1.04842)
(-0.000284676 0.0021403 1.04842)
(-0.000846573 0.00210124 1.0487)
(-0.00140285 0.00206654 1.04927)
(-0.00194894 0.0019477 1.05013)
(-0.00234264 0.00193209 1.05127)
(0.00262969 0.00129514 1.05052)
(0.00206472 0.00140198 1.04927)
(0.00148384 0.00148658 1.04834)
(0.000878522 0.00152569 1.04772)
(0.000293799 0.00154638 1.04741)
(-0.000296391 0.00154621 1.04741)
(-0.00088122 0.00152531 1.04772)
(-0.00148744 0.00148593 1.04834)
(-0.00206784 0.00140145 1.04927)
(-0.00263049 0.00129649 1.05052)
(0.00266437 0.000790616 1.05002)
(0.0020989 0.000845201 1.0487)
(0.00152317 0.000880103 1.04772)
(0.000908729 0.000910504 1.04707)
(0.00030362 0.000924556 1.04675)
(-0.00030654 0.000924455 1.04675)
(-0.00091184 0.000910174 1.04707)
(-0.0015267 0.000879638 1.04772)
(-0.00210215 0.000845205 1.0487)
(-0.00266552 0.000790004 1.05003)
(0.00273945 0.000248998 1.04977)
(0.00213802 0.000282754 1.04841)
(0.00154415 0.00029467 1.04741)
(0.000922891 0.000304753 1.04675)
(0.000307384 0.000308618 1.04642)
(-0.000310532 0.000308574 1.04642)
(-0.000926062 0.00030464 1.04675)
(-0.00154745 0.000294616 1.04741)
(-0.00214081 0.000283173 1.04842)
(-0.00274078 0.000249513 1.04978)
(0.00273922 -0.000251167 1.04977)
(0.00213833 -0.000284889 1.04842)
(0.00154446 -0.000296039 1.04741)
(0.000922972 -0.000305867 1.04675)
(0.000307427 -0.000309718 1.04642)
(-0.000310544 -0.000309683 1.04642)
(-0.000926111 -0.000305805 1.04675)
(-0.00154745 -0.000295836 1.04741)
(-0.00214081 -0.000284404 1.04842)
(-0.00274079 -0.000250736 1.04978)
(0.00266402 -0.000791706 1.05002)
(0.0020998 -0.00084696 1.0487)
(0.00152397 -0.000881231 1.04772)
(0.000908978 -0.000911531 1.04707)
(0.000303604 -0.000925622 1.04675)
(-0.000306614 -0.000925568 1.04675)
(-0.000911922 -0.000911361 1.04707)
(-0.00152678 -0.000880886 1.04772)
(-0.00210219 -0.000846426 1.0487)
(-0.00266557 -0.000791134 1.05003)
(0.00262892 -0.00129851 1.05052)
(0.00206565 -0.00140346 1.04927)
(0.00148493 -0.00148766 1.04834)
(0.000878663 -0.00152681 1.04772)
(0.000293733 -0.00154739 1.04741)
(-0.000296571 -0.00154732 1.04741)
(-0.00088144 -0.00152654 1.04772)
(-0.00148751 -0.00148727 1.04834)
(-0.0020678 -0.00140279 1.04927)
(-0.00263034 -0.00129782 1.05052)
(0.00234129 -0.00193423 1.05127)
(0.001947 -0.00194977 1.05013)
(0.0014007 -0.00206841 1.04927)
(0.000844379 -0.00210268 1.0487)
(0.000282429 -0.00214122 1.04842)
(-0.000285039 -0.0021411 1.04842)
(-0.000846941 -0.00210233 1.0487)
(-0.00140307 -0.00206787 1.04927)
(-0.00194905 -0.00194899 1.05013)
(-0.00234282 -0.00193348 1.05127)
(0.0023509 -0.0023533 1.05231)
(0.00193167 -0.00234373 1.05127)
(0.00129596 -0.00263129 1.05052)
(0.00078931 -0.0026665 1.05003)
(0.000248955 -0.00274162 1.04978)
(-0.000251197 -0.00274151 1.04978)
(-0.000791548 -0.00266609 1.05003)
(-0.00129801 -0.00263077 1.05052)
(-0.00193345 -0.00234278 1.05127)
(-0.00235252 -0.00235231 1.05231)
(0.00183673 0.00183842 1.05685)
(0.00161996 0.00188877 1.05586)
(0.00108266 0.00206147 1.05515)
(0.00067395 0.00206605 1.05468)
(0.000205408 0.00212655 1.05444)
(-0.000208339 0.00212631 1.05444)
(-0.000676234 0.0020649 1.05468)
(-0.00108608 0.00205915 1.05515)
(-0.00162799 0.0018857 1.05585)
(-0.00183654 0.00183106 1.05684)
(0.00188755 0.00161847 1.05586)
(0.00158993 0.00159001 1.05478)
(0.00112373 0.00165928 1.05397)
(0.000687059 0.00165264 1.05343)
(0.000227682 0.00167768 1.05316)
(-0.000231142 0.00167758 1.05316)
(-0.000690919 0.00165288 1.05343)
(-0.00112798 0.00165889 1.05396)
(-0.00159607 0.00159062 1.05478)
(-0.00189143 0.00162266 1.05585)
(0.0020629 0.0010802 1.05515)
(0.00166018 0.00112285 1.05396)
(0.00118694 0.00118618 1.05308)
(0.000707862 0.00120185 1.0525)
(0.000237438 0.00121585 1.05221)
(-0.000240767 0.00121584 1.05221)
(-0.000711324 0.00120207 1.0525)
(-0.00119147 0.00118663 1.05308)
(-0.00166462 0.00112331 1.05396)
(-0.00206524 0.0010816 1.05514)
(0.00206788 0.000672945 1.05468)
(0.00165393 0.000686708 1.05343)
(0.00120267 0.00070756 1.0525)
(0.000721713 0.000721482 1.05189)
(0.000242893 0.000728729 1.05158)
(-0.000246299 0.000728717 1.05158)
(-0.000725357 0.000721479 1.05189)
(-0.00120692 0.000707528 1.0525)
(-0.00165852 0.000687219 1.05342)
(-0.00207095 0.00067289 1.05468)
(0.00212916 0.000204925 1.05444)
(0.00167925 0.000227631 1.05316)
(0.00121671 0.000237594 1.05221)
(0.000729029 0.000243129 1.05158)
(0.000244327 0.000244631 1.05127)
(-0.000247785 0.000244657 1.05127)
(-0.000732611 0.000243182 1.05158)
(-0.00122076 0.000237682 1.05221)
(-0.00168333 0.000228117 1.05315)
(-0.00213246 0.00020557 1.05444)
(0.00212886 -0.000208138 1.05444)
(0.00167946 -0.000230785 1.05315)
(0.00121694 -0.0002402 1.05221)
(0.000729081 -0.00024559 1.05158)
(0.000244418 -0.000247014 1.05127)
(-0.000247783 -0.000246966 1.05127)
(-0.000732686 -0.000245512 1.05158)
(-0.00122076 -0.000240074 1.05221)
(-0.00168335 -0.000230534 1.05315)
(-0.0021325 -0.000208041 1.05444)
(0.00206739 -0.000675522 1.05468)
(0.00165472 -0.000690037 1.05342)
(0.00120325 -0.000710364 1.0525)
(0.000721964 -0.000724267 1.05188)
(0.000242985 -0.000731475 1.05158)
(-0.000246275 -0.000731418 1.05158)
(-0.000725403 -0.000724142 1.05188)
(-0.00120705 -0.000710152 1.0525)
(-0.00165863 -0.000689727 1.05342)
(-0.00207115 -0.000675246 1.05467)
(0.00206153 -0.00108485 1.05514)
(0.00166086 -0.00112681 1.05396)
(0.00118787 -0.0011902 1.05308)
(0.000708045 -0.00120573 1.0525)
(0.00023762 -0.00121941 1.05221)
(-0.000240736 -0.00121933 1.05221)
(-0.000711391 -0.00120542 1.0525)
(-0.00119139 -0.00118981 1.05308)
(-0.00166449 -0.00112616 1.05396)
(-0.00206507 -0.00108415 1.05514)
(0.00188795 -0.00162646 1.05585)
(0.00159236 -0.0015948 1.05477)
(0.00112443 -0.00166335 1.05396)
(0.000687748 -0.00165736 1.05342)
(0.000228157 -0.00168199 1.05315)
(-0.000230972 -0.00168182 1.05315)
(-0.000690759 -0.00165679 1.05342)
(-0.00112773 -0.00166254 1.05396)
(-0.00159572 -0.00159372 1.05477)
(-0.00189117 -0.00162535 1.05585)
(0.00183289 -0.00183497 1.05684)
(0.00162421 -0.00189031 1.05585)
(0.00108268 -0.00206405 1.05514)
(0.000673469 -0.00206993 1.05468)
(0.000205916 -0.00213109 1.05444)
(-0.000208108 -0.00213083 1.05444)
(-0.000675943 -0.00206904 1.05468)
(-0.00108539 -0.00206283 1.05514)
(-0.00162709 -0.00188859 1.05585)
(-0.00183555 -0.00183337 1.05684)
(0.00182464 0.00182121 1.06107)
(0.00162138 0.00187113 1.06011)
(0.00108454 0.00196311 1.05942)
(0.0006821 0.00195423 1.05896)
(0.000203424 0.00199874 1.05873)
(-0.000211518 0.00199932 1.05873)
(-0.000689941 0.00195552 1.05896)
(-0.00109309 0.00196462 1.05941)
(-0.00163181 0.00187364 1.0601)
(-0.00183008 0.00182164 1.06106)
(0.00187662 0.00161648 1.06011)
(0.00155977 0.0015553 1.05906)
(0.00109046 0.00159313 1.05828)
(0.000672009 0.00156525 1.05776)
(0.000218137 0.00158166 1.0575)
(-0.000225459 0.001582 1.0575)
(-0.000679879 0.00156701 1.05776)
(-0.00109851 0.0015955 1.05828)
(-0.00156841 0.00155926 1.05906)
(-0.00188279 0.00162271 1.0601)
(0.00196968 0.00108113 1.05942)
(0.00159819 0.00108731 1.05828)
(0.00113801 0.00113462 1.05743)
(0.000684734 0.001133 1.05688)
(0.000227855 0.00114291 1.0566)
(-0.000234246 0.00114324 1.0566)
(-0.000691156 0.00113427 1.05687)
(-0.00114527 0.00113694 1.05743)
(-0.00160508 0.00109032 1.05828)
(-0.00197448 0.00108479 1.05941)
(0.00196077 0.000680898 1.05896)
(0.0015702 0.000670665 1.05776)
(0.00113633 0.000682983 1.05688)
(0.000685138 0.000683382 1.05629)
(0.000230172 0.000686284 1.056)
(-0.000236015 0.000686544 1.056)
(-0.000691157 0.000684236 1.05629)
(-0.00114271 0.000684278 1.05687)
(-0.00157684 0.000672867 1.05776)
(-0.00196614 0.00068277 1.05895)
(0.00200554 0.000203266 1.05873)
(0.00158652 0.000217805 1.0575)
(0.00114611 0.000227361 1.0566)
(0.00068809 0.000229615 1.056)
(0.000230758 0.00023024 1.0557)
(-0.000236132 0.000230487 1.0557)
(-0.000693559 0.000230325 1.056)
(-0.00115203 0.000228431 1.05659)
(-0.00159245 0.000219412 1.0575)
(-0.0020108 0.000205164 1.05872)
(0.00200529 -0.000210192 1.05872)
(0.00158669 -0.000224657 1.0575)
(0.00114641 -0.000233639 1.05659)
(0.000688299 -0.000235461 1.056)
(0.000231046 -0.000235606 1.0557)
(-0.000235968 -0.000235414 1.0557)
(-0.000693523 -0.000234969 1.056)
(-0.00115191 -0.000232908 1.05659)
(-0.00159239 -0.000223738 1.0575)
(-0.0020108 -0.000209419 1.05872)
(0.0019606 -0.000687581 1.05895)
(0.00157105 -0.000678014 1.05776)
(0.00113716 -0.000689619 1.05687)
(0.000685923 -0.000689711 1.05629)
(0.000230836 -0.000692191 1.056)
(-0.000235483 -0.000692053 1.056)
(-0.000690793 -0.000689364 1.05629)
(-0.00114258 -0.000689095 1.05687)
(-0.00157676 -0.000677364 1.05776)
(-0.00196623 -0.000686975 1.05895)
(0.00196866 -0.00108997 1.05941)
(0.00159913 -0.001096 1.05828)
(0.00113955 -0.00114303 1.05743)
(0.000685784 -0.00114081 1.05687)
(0.000228994 -0.00115006 1.05659)
(-0.000233354 -0.00114997 1.05659)
(-0.000690513 -0.00114041 1.05687)
(-0.00114462 -0.00114256 1.05743)
(-0.00160456 -0.00109527 1.05828)
(-0.00197416 -0.0010892 1.05941)
(0.00187699 -0.00162825 1.0601)
(0.00156214 -0.00156552 1.05906)
(0.00109242 -0.00160254 1.05828)
(0.00067417 -0.00157461 1.05776)
(0.00021993 -0.00159017 1.0575)
(-0.000223996 -0.00159005 1.0575)
(-0.000678532 -0.00157414 1.05776)
(-0.00109733 -0.00160187 1.05828)
(-0.00156732 -0.00156462 1.05906)
(-0.00188205 -0.00162727 1.0601)
(0.00182413 -0.00182679 1.06106)
(0.00162496 -0.00187991 1.0601)
(0.00108652 -0.0019718 1.05941)
(0.00068389 -0.00196371 1.05895)
(0.000205825 -0.00200816 1.05872)
(-0.000209407 -0.00200804 1.05872)
(-0.000687823 -0.00196314 1.05895)
(-0.00109087 -0.00197098 1.05941)
(-0.00162967 -0.00187872 1.0601)
(-0.0018283 -0.00182558 1.06106)
(0.00196485 0.0019601 1.06562)
(0.00170065 0.00199857 1.06466)
(0.00114474 0.00205952 1.06397)
(0.000723639 0.00205384 1.06351)
(0.000215992 0.00208889 1.06328)
(-0.000222224 0.0020892 1.06328)
(-0.000729535 0.00205462 1.06351)
(-0.00115122 0.00205998 1.06397)
(-0.00170765 0.00199998 1.06465)
(-0.00196878 0.00196128 1.06561)
(0.00200484 0.00169502 1.06466)
(0.00163862 0.00163292 1.06362)
(0.00114612 0.00166597 1.06284)
(0.000708523 0.00163675 1.06233)
(0.000227558 0.00165161 1.06207)
(-0.000233477 0.00165177 1.06207)
(-0.000714764 0.001638 1.06233)
(-0.00115228 0.00166759 1.06284)
(-0.00164444 0.00163592 1.06361)
(-0.00200802 0.00169918 1.06465)
(0.00206587 0.00114073 1.06397)
(0.00167179 0.00114196 1.06284)
(0.00119065 0.00118627 1.06201)
(0.000721895 0.00117989 1.06146)
(0.000238976 0.00119019 1.06118)
(-0.000244165 0.00119047 1.06118)
(-0.000726859 0.00118096 1.06146)
(-0.00119606 0.00118825 1.06201)
(-0.00167643 0.00114461 1.06284)
(-0.00206853 0.0011435 1.06397)
(0.00206064 0.000721118 1.06351)
(0.00164253 0.000705983 1.06233)
(0.00118423 0.000719032 1.06146)
(0.000716988 0.000714152 1.06088)
(0.000240449 0.000716657 1.06059)
(-0.000245111 0.00071693 1.06059)
(-0.000721646 0.000715045 1.06088)
(-0.00118886 0.0007203 1.06146)
(-0.00164701 0.000708085 1.06233)
(-0.00206384 0.0007228 1.06351)
(0.00209604 0.000214496 1.06328)
(0.00165741 0.000226007 1.06207)
(0.0011945 0.000237332 1.06118)
(0.000719583 0.000238791 1.06059)
(0.00024164 0.000240014 1.0603)
(-0.000245738 0.000240306 1.0603)
(-0.000723609 0.000239647 1.06059)
(-0.00119868 0.00023862 1.06118)
(-0.00166128 0.000227774 1.06207)
(-0.00209907 0.00021647 1.06328)
(0.00209579 -0.000222203 1.06328)
(0.00165747 -0.000233817 1.06207)
(0.00119477 -0.000244659 1.06118)
(0.000719818 -0.000245646 1.06059)
(0.00024197 -0.000246289 1.0603)
(-0.000245511 -0.000246045 1.0603)
(-0.000723502 -0.000244969 1.06059)
(-0.0011985 -0.000243647 1.06118)
(-0.00166116 -0.000232543 1.06207)
(-0.00209903 -0.000221068 1.06328)
(0.00206064 -0.000728594 1.06351)
(0.00164319 -0.00071414 1.06233)
(0.00118501 -0.000726494 1.06145)
(0.000717878 -0.000721333 1.06088)
(0.000241267 -0.000723344 1.06059)
(-0.000244409 -0.000723133 1.06059)
(-0.00072109 -0.000720731 1.06088)
(-0.00118855 -0.000725577 1.06146)
(-0.0016468 -0.00071296 1.06233)
(-0.00206387 -0.000727358 1.06351)
(0.00206522 -0.00114967 1.06397)
(0.00167249 -0.00115118 1.06284)
(0.0011921 -0.00119515 1.06201)
(0.000723009 -0.00118817 1.06145)
(0.000240315 -0.00119789 1.06118)
(-0.000242982 -0.00119765 1.06118)
(-0.000725898 -0.00118744 1.06146)
(-0.00119515 -0.0011941 1.06201)
(-0.00167571 -0.00114974 1.06284)
(-0.00206822 -0.00114807 1.06397)
(0.00200479 -0.00170581 1.06465)
(0.00164022 -0.00164314 1.06361)
(0.00114807 -0.0016754 1.06284)
(0.000710695 -0.00164617 1.06233)
(0.00022953 -0.00166024 1.06207)
(-0.000231616 -0.00165996 1.06207)
(-0.000712963 -0.00164518 1.06233)
(-0.00115072 -0.00167389 1.06284)
(-0.00164307 -0.0016412 1.06361)
(-0.00200718 -0.00170366 1.06465)
(0.00196523 -0.00196733 1.06561)
(0.00170292 -0.00200702 1.06465)
(0.00114672 -0.00206772 1.06397)
(0.000725407 -0.00206302 1.06351)
(0.000218506 -0.00209786 1.06328)
(-0.000219708 -0.00209749 1.06328)
(-0.000726818 -0.00206172 1.06351)
(-0.00114849 -0.00206564 1.06397)
(-0.00170512 -0.0020044 1.06465)
(-0.00196685 -0.00196464 1.06561)
(0.00207398 0.00206765 1.07053)
(0.00175085 0.00209995 1.06956)
(0.00118601 0.00215706 1.06887)
(0.000750294 0.00216051 1.0684)
(0.000224006 0.00219257 1.06817)
(-0.000228776 0.00219308 1.06817)
(-0.00075468 0.00216209 1.0684)
(-0.00119088 0.0021588 1.06886)
(-0.00175558 0.00210255 1.06956)
(-0.00207695 0.00207076 1.07052)
(0.00210767 0.00174497 1.06956)
(0.00170378 0.00169731 1.06851)
(0.00119514 0.00173541 1.06774)
(0.000738371 0.0017124 1.06722)
(0.000235415 0.00172886 1.06696)
(-0.000239655 0.00172908 1.06696)
(-0.000742756 0.00171379 1.06722)
(-0.00119947 0.0017372 1.06774)
(-0.00170754 0.00170039 1.06851)
(-0.00210928 0.00174861 1.06956)
(0.00216466 0.00118224 1.06887)
(0.0017418 0.00119077 1.06774)
(0.00124097 0.00123638 1.0669)
(0.000755263 0.00123114 1.06634)
(0.000248752 0.0012432 1.06607)
(-0.000252185 0.00124348 1.06607)
(-0.000758448 0.00123217 1.06634)
(-0.0012445 0.00123817 1.0669)
(-0.00174457 0.00119325 1.06774)
(-0.00216593 0.00118473 1.06886)
(0.00216851 0.000747823 1.0684)
(0.0017188 0.000735628 1.06722)
(0.00123576 0.000752217 1.06634)
(0.000749509 0.000746459 1.06577)
(0.000250485 0.000750099 1.06548)
(-0.000253457 0.000750324 1.06548)
(-0.000752445 0.000747238 1.06577)
(-0.00123862 0.000753257 1.06634)
(-0.00172135 0.000737436 1.06722)
(-0.00216996 0.000749316 1.0684)
(0.00220045 0.000222703 1.06817)
(0.00173514 0.000233796 1.06696)
(0.00124778 0.000246951 1.06607)
(0.000753226 0.000248656 1.06548)
(0.000252681 0.00025085 1.06518)
(-0.000255156 0.000251082 1.06518)
(-0.000755621 0.000249352 1.06548)
(-0.00125023 0.00024801 1.06606)
(-0.0017371 0.00023529 1.06696)
(-0.00220159 0.000224382 1.06817)
(0.00220027 -0.000228723 1.06817)
(0.00173511 -0.000240038 1.06696)
(0.00124799 -0.000252789 1.06607)
(0.000753396 -0.00025414 1.06548)
(0.000252921 -0.000255883 1.06518)
(-0.000254982 -0.000255714 1.06518)
(-0.000755514 -0.000253641 1.06548)
(-0.00125004 -0.000252031 1.06606)
(-0.00173694 -0.00023903 1.06696)
(-0.00220148 -0.000227813 1.06817)
(0.00216867 -0.000753755 1.0684)
(0.00171931 -0.000742215 1.06722)
(0.0012364 -0.000758153 1.06634)
(0.000750206 -0.000752257 1.06577)
(0.000251123 -0.000755494 1.06548)
(-0.000252907 -0.000755348 1.06548)
(-0.000751982 -0.000751834 1.06577)
(-0.0012383 -0.000757499 1.06634)
(-0.00172101 -0.000741301 1.06722)
(-0.00216975 -0.000752787 1.0684)
(0.00216443 -0.00118935 1.06887)
(0.00174231 -0.00119835 1.06774)
(0.00124215 -0.00124363 1.0669)
(0.000756062 -0.00123794 1.06634)