/*--------------------------------*- C++ -*----------------------------------*\
| =========                 |                                                 |
| \\      /  F ield         | OpenFOAM: The Open Source CFD Toolbox           |
|  \\    /   O peration     | Version:  2406                                  |
|   \\  /    A nd           | Website:  www.openfoam.com                      |
|    \\/     M anipulation  |                                                 |
\*---------------------------------------------------------------------------*/
FoamFile
{
    version     2.0;
    format      ascii;
    arch        "LSB;label=32;scalar=64";
    class       surfaceScalarField;
    location    "7.8";
    object      phi;
}
// * * * * * * * * * * * * * * * * * * * * * * * * * * * * * * * * * * * * * //

dimensions      [0 3 -1 0 0 0 0];

oriented        oriented;

internalField   nonuniform List<scalar> 
46880
(
5.70227e-05
5.70227e-05
9.25627e-05
-6.58089e-05
-6.58089e-05
4.14847e-05
5.85524e-05
0.000107332
-6.81955e-05
2.17749e-05
5.89973e-05
0.000116854
-6.9121e-05
1.78538e-13
5.91027e-05
0.000121561
-6.94051e-05
-2.17749e-05
5.91027e-05
0.000121561
-6.94051e-05
-4.14847e-05
5.89973e-05
0.000116854
-6.9121e-05
-5.70227e-05
5.85524e-05
0.000107332
-6.81955e-05
5.70227e-05
9.25627e-05
-6.58089e-05
-6.58089e-05
5.85524e-05
4.14847e-05
0.000107332
-6.81955e-05
4.20291e-05
4.20291e-05
0.000121733
2.18254e-05
4.20503e-05
0.000130284
1.79642e-13
4.1986e-05
0.000134326
-2.18254e-05
4.1986e-05
0.000134326
-4.20291e-05
4.20503e-05
0.000130284
-5.85524e-05
4.20291e-05
0.000121733
4.14847e-05
0.000107332
-6.81955e-05
5.89973e-05
2.17749e-05
0.000116854
-6.9121e-05
4.20503e-05
2.18254e-05
0.000130284
2.17158e-05
2.17158e-05
0.000137965
1.4606e-13
2.16254e-05
0.00014148
-2.17158e-05
2.16254e-05
0.00014148
-4.20503e-05
2.17158e-05
0.000137965
-5.89973e-05
2.18254e-05
0.000130284
2.17749e-05
0.000116854
-6.9121e-05
5.91027e-05
8.94203e-13
0.000121561
-6.94051e-05
4.1986e-05
1.09504e-12
0.000134326
2.16254e-05
1.07086e-12
0.00014148
1.19202e-13
1.04887e-12
0.000144691
-2.16254e-05
1.01942e-12
0.000144691
-4.1986e-05
9.8842e-13
0.00014148
-5.91027e-05
9.95389e-13
0.000134326
8.1854e-13
0.000121561
-6.94051e-05
5.91027e-05
-2.17749e-05
0.000121561
-6.94051e-05
4.1986e-05
-2.18254e-05
0.000134326
2.16254e-05
-2.17158e-05
0.00014148
9.00356e-14
-2.16254e-05
0.000144691
-2.16254e-05
-2.16254e-05
0.000144691
-4.1986e-05
-2.17158e-05
0.00014148
-5.91027e-05
-2.18254e-05
0.000134326
-2.17749e-05
0.000121561
-6.94051e-05
5.89973e-05
-4.14846e-05
0.000116854
-6.9121e-05
4.20503e-05
-4.20291e-05
0.000130284
2.17158e-05
-4.20503e-05
0.000137965
5.1114e-14
-4.1986e-05
0.00014148
-2.17158e-05
-4.1986e-05
0.00014148
-4.20503e-05
-4.20503e-05
0.000137965
-5.89973e-05
-4.20291e-05
0.000130284
-4.14846e-05
0.000116854
-6.9121e-05
5.85524e-05
-5.70227e-05
0.000107332
-6.81955e-05
4.20291e-05
-5.85524e-05
0.000121733
2.18254e-05
-5.89973e-05
0.000130284
1.44301e-14
-5.91027e-05
0.000134326
-2.18254e-05
-5.91027e-05
0.000134326
-4.20291e-05
-5.89973e-05
0.000130284
-5.85524e-05
-5.85524e-05
0.000121733
-5.70227e-05
0.000107332
-6.81955e-05
5.70227e-05
9.25627e-05
-6.58089e-05
-6.58089e-05
4.14847e-05
0.000107332
-6.81955e-05
2.17749e-05
0.000116854
-6.9121e-05
-1.04552e-14
0.000121561
-6.94051e-05
-2.17749e-05
0.000121561
-6.94051e-05
-4.14847e-05
0.000116854
-6.9121e-05
-5.70227e-05
0.000107332
-6.81955e-05
9.25627e-05
-6.58089e-05
-6.58089e-05
2.12981e-05
2.12981e-05
9.11553e-05
-2.05944e-05
-2.05944e-05
1.7387e-05
2.43165e-05
0.000110076
-2.31488e-05
9.64834e-06
2.60548e-05
0.000123205
-2.46671e-05
1.15078e-13
2.68715e-05
0.000129837
-2.54995e-05
-9.64834e-06
2.68715e-05
0.000129837
-2.54995e-05
-1.7387e-05
2.60548e-05
0.000123205
-2.46671e-05
-2.12981e-05
2.43165e-05
0.000110076
-2.31488e-05
2.12981e-05
9.11553e-05
-2.05944e-05
-2.05944e-05
2.43165e-05
1.7387e-05
0.000110076
-2.31488e-05
1.97648e-05
1.97648e-05
0.000130836
1.0936e-05
2.11179e-05
0.00014405
9.94195e-14
2.17195e-05
0.000150414
-1.0936e-05
2.17195e-05
0.000150414
-1.97648e-05
2.11179e-05
0.00014405
-2.43165e-05
1.97648e-05
0.000130836
1.7387e-05
0.000110076
-2.31488e-05
2.60548e-05
9.64834e-06
0.000123205
-2.46671e-05
2.11179e-05
1.0936e-05
0.00014405
1.1672e-05
1.1672e-05
0.000156857
6.47651e-14
1.19938e-05
0.000162878
-1.1672e-05
1.19938e-05
0.000162878
-2.11179e-05
1.1672e-05
0.000156857
-2.60548e-05
1.0936e-05
0.00014405
9.64834e-06
0.000123205
-2.46671e-05
2.68715e-05
7.68549e-13
0.000129837
-2.54995e-05
2.17195e-05
8.79236e-13
0.000150414
1.19938e-05
8.29693e-13
0.000162878
3.95373e-14
8.07384e-13
0.000168678
-1.19938e-05
7.82062e-13
0.000168678
-2.17195e-05
7.62598e-13
0.000162878
-2.68715e-05
8.02214e-13
0.000150414
7.15266e-13
0.000129837
-2.54995e-05
2.68715e-05
-9.64834e-06
0.000129837
-2.54995e-05
2.17195e-05
-1.0936e-05
0.000150414
1.19938e-05
-1.1672e-05
0.000162878
1.49475e-14
-1.19938e-05
0.000168678
-1.19938e-05
-1.19938e-05
0.000168678
-2.17195e-05
-1.1672e-05
0.000162878
-2.68715e-05
-1.0936e-05
0.000150414
-9.64834e-06
0.000129837
-2.54995e-05
2.60548e-05
-1.7387e-05
0.000123205
-2.46671e-05
2.11179e-05
-1.97648e-05
0.00014405
1.1672e-05
-2.11179e-05
0.000156857
-2.01922e-14
-2.17195e-05
0.000162878
-1.1672e-05
-2.17195e-05
0.000162878
-2.11179e-05
-2.11179e-05
0.000156857
-2.60548e-05
-1.97648e-05
0.00014405
-1.7387e-05
0.000123205
-2.46671e-05
2.43165e-05
-2.12981e-05
0.000110076
-2.31488e-05
1.97648e-05
-2.43165e-05
0.000130836
1.0936e-05
-2.60548e-05
0.00014405
-5.67052e-14
-2.68715e-05
0.000150414
-1.0936e-05
-2.68715e-05
0.000150414
-1.97648e-05
-2.60548e-05
0.00014405
-2.43165e-05
-2.43165e-05
0.000130836
-2.12981e-05
0.000110076
-2.31488e-05
2.12981e-05
9.11553e-05
-2.05944e-05
-2.05944e-05
1.7387e-05
0.000110076
-2.31488e-05
9.64834e-06
0.000123205
-2.46671e-05
-7.71463e-14
0.000129837
-2.54995e-05
-9.64834e-06
0.000129837
-2.54995e-05
-1.7387e-05
0.000123205
-2.46671e-05
-2.12981e-05
0.000110076
-2.31488e-05
9.11553e-05
-2.05944e-05
-2.05944e-05
1.18127e-05
1.18127e-05
8.91259e-05
-1.0798e-05
-1.0798e-05
9.90265e-06
1.43956e-05
0.000110627
-1.30364e-05
5.62154e-06
1.59718e-05
0.000125963
-1.44489e-05
1.88482e-13
1.67467e-05
0.000133897
-1.51853e-05
-5.62154e-06
1.67467e-05
0.000133897
-1.51853e-05
-9.90265e-06
1.59718e-05
0.000125963
-1.44489e-05
-1.18127e-05
1.43956e-05
0.000110627
-1.30364e-05
1.18127e-05
8.91259e-05
-1.0798e-05
-1.0798e-05
1.43956e-05
9.90265e-06
0.000110627
-1.30364e-05
1.20477e-05
1.20477e-05
0.000135532
6.80902e-06
1.33212e-05
0.000151939
1.42675e-13
1.39201e-05
0.00016005
-6.80902e-06
1.39201e-05
0.00016005
-1.20477e-05
1.33212e-05
0.000151939
-1.43956e-05
1.20477e-05
0.000135532
9.90265e-06
0.000110627
-1.30364e-05
1.59718e-05
5.62155e-06
0.000125963
-1.44489e-05
1.33212e-05
6.80902e-06
0.000151939
7.49972e-06
7.49972e-06
0.0001685
7.76249e-14
7.81056e-06
0.000176487
-7.49972e-06
7.81056e-06
0.000176487
-1.33212e-05
7.49972e-06
0.0001685
-1.59718e-05
6.80902e-06
0.000151939
5.62155e-06
0.000125963
-1.44489e-05
1.67467e-05
9.15252e-13
0.000133897
-1.51853e-05
1.39201e-05
9.80337e-13
0.00016005
7.81056e-06
8.49681e-13
0.000176487
3.59784e-14
7.72022e-13
0.000184299
-7.81056e-06
7.38698e-13
0.000184299
-1.39201e-05
7.52044e-13
0.000176487
-1.67467e-05
8.42066e-13
0.00016005
7.78306e-13
0.000133897
-1.51853e-05
1.67467e-05
-5.62154e-06
0.000133897
-1.51853e-05
1.39201e-05
-6.80902e-06
0.00016005
7.81056e-06
-7.49972e-06
0.000176487
3.42571e-15
-7.81055e-06
0.000184299
-7.81056e-06
-7.81055e-06
0.000184299
-1.39201e-05
-7.49972e-06
0.000176487
-1.67467e-05
-6.80902e-06
0.00016005
-5.62154e-06
0.000133897
-1.51853e-05
1.59718e-05
-9.90265e-06
0.000125963
-1.44489e-05
1.33212e-05
-1.20476e-05
0.000151939
7.49972e-06
-1.33212e-05
0.0001685
-3.65069e-14
-1.39201e-05
0.000176487
-7.49972e-06
-1.39201e-05
0.000176487
-1.33212e-05
-1.33212e-05
0.0001685
-1.59718e-05
-1.20476e-05
0.000151939
-9.90265e-06
0.000125963
-1.44489e-05
1.43956e-05
-1.18127e-05
0.000110627
-1.30364e-05
1.20477e-05
-1.43956e-05
0.000135532
6.80902e-06
-1.59718e-05
0.000151939
-7.65363e-14
-1.67467e-05
0.00016005
-6.80902e-06
-1.67467e-05
0.00016005
-1.20477e-05
-1.59718e-05
0.000151939
-1.43956e-05
-1.43956e-05
0.000135532
-1.18127e-05
0.000110627
-1.30364e-05
1.18127e-05
8.91259e-05
-1.0798e-05
-1.0798e-05
9.90265e-06
0.000110627
-1.30364e-05
5.62154e-06
0.000125963
-1.44489e-05
-9.69581e-14
0.000133897
-1.51853e-05
-5.62154e-06
0.000133897
-1.51853e-05
-9.90265e-06
0.000125963
-1.44489e-05
-1.18127e-05
0.000110627
-1.30364e-05
8.91259e-05
-1.0798e-05
-1.0798e-05
2.98521e-06
2.98521e-06
8.73785e-05
-2.11152e-06
-2.11152e-06
2.93654e-06
4.20871e-06
0.000109321
-2.85467e-06
1.80601e-06
5.10333e-06
0.000125443
-3.45295e-06
4.70701e-14
5.56796e-06
0.000133927
-3.79171e-06
-1.80601e-06
5.56796e-06
0.000133927
-3.79171e-06
-2.93654e-06
5.10333e-06
0.000125443
-3.45295e-06
-2.98521e-06
4.20871e-06
0.000109321
-2.85467e-06
2.98521e-06
8.73785e-05
-2.11152e-06
-2.11152e-06
4.20871e-06
2.93654e-06
0.000109321
-2.85467e-06
4.13753e-06
4.13753e-06
0.000135674
2.52404e-06
4.95623e-06
0.000153699
2.2299e-14
5.34154e-06
0.0001628
-2.52404e-06
5.34154e-06
0.0001628
-4.13753e-06
4.95623e-06
0.000153699
-4.20871e-06
4.13753e-06
0.000135674
2.93654e-06
0.000109321
-2.85467e-06
5.10333e-06
1.80601e-06
0.000125443
-3.45295e-06
4.95623e-06
2.52404e-06
0.000153699
2.98743e-06
2.98743e-06
0.000172437
-1.72492e-14
3.17437e-06
0.000181642
-2.98743e-06
3.17437e-06
0.000181642
-4.95623e-06
2.98743e-06
0.000172437
-5.10333e-06
2.52404e-06
0.000153699
1.80601e-06
0.000125443
-3.45295e-06
5.56796e-06
8.99207e-13
0.000133927
-3.79171e-06
5.34154e-06
1.00106e-12
0.0001628
3.17437e-06
8.75646e-13
0.000181642
-4.6281e-14
7.71434e-13
0.000190648
-3.17437e-06
7.48466e-13
0.000190648
-5.34154e-06
8.10762e-13
0.000181642
-5.56796e-06
9.27521e-13
0.0001628
8.59013e-13
0.000133927
-3.79171e-06
5.56796e-06
-1.80601e-06
0.000133927
-3.79171e-06
5.34154e-06
-2.52404e-06
0.0001628
3.17437e-06
-2.98743e-06
0.000181642
-7.0111e-14
-3.17437e-06
0.000190648
-3.17437e-06
-3.17437e-06
0.000190648
-5.34154e-06
-2.98743e-06
0.000181642
-5.56796e-06
-2.52404e-06
0.0001628
-1.80601e-06
0.000133927
-3.79171e-06
5.10333e-06
-2.93654e-06
0.000125443
-3.45295e-06
4.95623e-06
-4.13753e-06
0.000153699
2.98743e-06
-4.95623e-06
0.000172437
-9.82454e-14
-5.34154e-06
0.000181642
-2.98743e-06
-5.34154e-06
0.000181642
-4.95623e-06
-4.95623e-06
0.000172437
-5.10333e-06
-4.13753e-06
0.000153699
-2.93654e-06
0.000125443
-3.45295e-06
4.20871e-06
-2.98521e-06
0.000109321
-2.85467e-06
4.13753e-06
-4.20871e-06
0.000135674
2.52404e-06
-5.10333e-06
0.000153699
-1.36436e-13
-5.56796e-06
0.0001628
-2.52404e-06
-5.56796e-06
0.0001628
-4.13753e-06
-5.10333e-06
0.000153699
-4.20871e-06
-4.20871e-06
0.000135674
-2.98521e-06
0.000109321
-2.85467e-06
2.98521e-06
8.73785e-05
-2.11152e-06
-2.11152e-06
2.93654e-06
0.000109321
-2.85467e-06
1.80601e-06
0.000125443
-3.45295e-06
-1.533e-13
0.000133927
-3.79171e-06
-1.80601e-06
0.000133927
-3.79171e-06
-2.93654e-06
0.000125443
-3.45295e-06
-2.98521e-06
0.000109321
-2.85467e-06
8.73785e-05
-2.11152e-06
-2.11152e-06
1.75855e-06
1.75855e-06
8.68359e-05
-1.48727e-06
-1.48727e-06
1.58507e-06
2.31764e-06
0.000109058
-1.88066e-06
9.44341e-07
2.7317e-06
0.000125519
-2.1672e-06
2.82296e-13
2.94525e-06
0.000134245
-2.31887e-06
-9.44341e-07
2.94525e-06
0.000134245
-2.31887e-06
-1.58507e-06
2.7317e-06
0.000125519
-2.1672e-06
-1.75855e-06
2.31764e-06
0.000109058
-1.88066e-06
1.75855e-06
8.68359e-05
-1.48727e-06
-1.48727e-06
2.31763e-06
1.58508e-06
0.000109058
-1.88066e-06
2.13338e-06
2.13339e-06
0.000136043
1.27625e-06
2.52942e-06
0.000154759
2.31139e-13
2.71285e-06
0.000164309
-1.27625e-06
2.71285e-06
0.000164309
-2.13338e-06
2.52941e-06
0.000154759
-2.31764e-06
2.13339e-06
0.000136043
1.58507e-06
0.000109058
-1.88066e-06
2.7317e-06
9.44342e-07
0.000125519
-2.1672e-06
2.52941e-06
1.27625e-06
0.000154759
1.50567e-06
1.50567e-06
0.000174485
1.42696e-13
1.58998e-06
0.00018427
-1.50567e-06
1.58998e-06
0.00018427
-2.52941e-06
1.50567e-06
0.000174485
-2.7317e-06
1.27625e-06
0.000154759
9.44342e-07
0.000125519
-2.1672e-06
2.94525e-06
1.16963e-12
0.000134245
-2.31887e-06
2.71285e-06
1.27141e-12
0.000164309
1.58997e-06
1.09391e-12
0.00018427
7.72804e-14
9.30659e-13
0.000193828
-1.58997e-06
8.92268e-13
0.000193828
-2.71285e-06
9.76962e-13
0.00018427
-2.94525e-06
1.10161e-12
0.000164309
1.00076e-12
0.000134245
-2.31887e-06
2.94525e-06
-9.4434e-07
0.000134245
-2.31887e-06
2.71285e-06
-1.27624e-06
0.000164309
1.58997e-06
-1.50567e-06
0.00018427
3.94894e-14
-1.58997e-06
0.000193828
-1.58997e-06
-1.58997e-06
0.000193828
-2.71285e-06
-1.50567e-06
0.00018427
-2.94525e-06
-1.27624e-06
0.000164309
-9.4434e-07
0.000134245
-2.31887e-06
2.7317e-06
-1.58507e-06
0.000125519
-2.1672e-06
2.52941e-06
-2.13338e-06
0.000154759
1.50567e-06
-2.52941e-06
0.000174485
1.06014e-14
-2.71285e-06
0.00018427
-1.50567e-06
-2.71285e-06
0.00018427
-2.52941e-06
-2.52941e-06
0.000174485
-2.7317e-06
-2.13338e-06
0.000154759
-1.58507e-06
0.000125519
-2.1672e-06
2.31763e-06
-1.75855e-06
0.000109058
-1.88066e-06
2.13338e-06
-2.31763e-06
0.000136043
1.27625e-06
-2.73169e-06
0.000154759
-2.18404e-14
-2.94525e-06
0.000164309
-1.27625e-06
-2.94525e-06
0.000164309
-2.13338e-06
-2.7317e-06
0.000154759
-2.31764e-06
-2.31763e-06
0.000136043
-1.75855e-06
0.000109058
-1.88066e-06
1.75855e-06
8.68359e-05
-1.48727e-06
-1.48727e-06
1.58507e-06
0.000109058
-1.88066e-06
9.44341e-07
0.000125519
-2.1672e-06
-4.53975e-14
0.000134245
-2.31887e-06
-9.44341e-07
0.000134245
-2.31887e-06
-1.58507e-06
0.000125519
-2.1672e-06
-1.75855e-06
0.000109058
-1.88066e-06
8.68359e-05
-1.48727e-06
-1.48727e-06
6.09094e-07
6.09094e-07
8.65409e-05
-4.61558e-07
-4.61558e-07
5.88221e-07
8.41815e-07
0.000108839
-6.01562e-07
3.62056e-07
1.02624e-06
0.000125434
-7.14691e-07
-6.05079e-15
1.12581e-06
0.00013426
-7.78511e-07
-3.62056e-07
1.12581e-06
0.00013426
-7.78511e-07
-5.88221e-07
1.02624e-06
0.000125434
-7.14691e-07
-6.09094e-07
8.41815e-07
0.000108839
-6.01562e-07
6.09094e-07
8.65409e-05
-4.61559e-07
-4.61558e-07
8.41814e-07
5.88222e-07
0.000108839
-6.01562e-07
8.30744e-07
8.30745e-07
0.000136065
5.13706e-07
1.01887e-06
0.000155083
-2.50214e-14
1.11174e-06
0.000164837
-5.13707e-07
1.11174e-06
0.000164837
-8.30744e-07
1.01887e-06
0.000155083
-8.41814e-07
8.30745e-07
0.000136065
5.88222e-07
0.000108839
-6.01563e-07
1.02624e-06
3.62057e-07
0.000125434
-7.1469e-07
1.01887e-06
5.13708e-07
0.000155083
6.28552e-07
6.28553e-07
0.000175266
-5.41599e-14
6.77036e-07
0.000185334
-6.28552e-07
6.77036e-07
0.000185334
-1.01887e-06
6.28553e-07
0.000175266
-1.02624e-06
5.13708e-07
0.000155083
3.62057e-07
0.000125434
-7.14691e-07
1.12581e-06
1.21802e-12
0.00013426
-7.7851e-07
1.11173e-06
1.37952e-12
0.000164837
6.77035e-07
1.23911e-12
0.000185334
-7.40754e-14
1.09823e-12
0.000195182
-6.77035e-07
1.08197e-12
0.000195182
-1.11173e-06
1.20151e-12
0.000185334
-1.12581e-06
1.35342e-12
0.000164837
1.24143e-12
0.00013426
-7.78511e-07
1.12581e-06
-3.62055e-07
0.00013426
-7.7851e-07
1.11173e-06
-5.13705e-07
0.000164837
6.77035e-07
-6.28551e-07
0.000185334
-9.06111e-14
-6.77034e-07
0.000195182
-6.77035e-07
-6.77034e-07
0.000195182
-1.11173e-06
-6.28551e-07
0.000185334
-1.12581e-06
-5.13705e-07
0.000164837
-3.62055e-07
0.00013426
-7.78511e-07
1.02624e-06
-5.8822e-07
0.000125434
-7.1469e-07
1.01887e-06
-8.30743e-07
0.000155083
6.28552e-07
-1.01887e-06
0.000175266
-1.08531e-13
-1.11173e-06
0.000185334
-6.28552e-07
-1.11173e-06
0.000185334
-1.01887e-06
-1.01887e-06
0.000175266
-1.02624e-06
-8.30743e-07
0.000155083
-5.8822e-07
0.000125434
-7.14691e-07
8.41814e-07
-6.09093e-07
0.000108839
-6.01562e-07
8.30744e-07
-8.41813e-07
0.000136065
5.13706e-07
-1.02624e-06
0.000155083
-1.33283e-13
-1.12581e-06
0.000164837
-5.13707e-07
-1.12581e-06
0.000164837
-8.30744e-07
-1.02624e-06
0.000155083
-8.41814e-07
-8.41813e-07
0.000136065
-6.09093e-07
0.000108839
-6.01563e-07
6.09094e-07
8.65409e-05
-4.61558e-07
-4.61558e-07
5.88221e-07
0.000108839
-6.01562e-07
3.62056e-07
0.000125434
-7.1469e-07
-1.43096e-13
0.00013426
-7.7851e-07
-3.62057e-07
0.00013426
-7.7851e-07
-5.88221e-07
0.000125434
-7.1469e-07
-6.09094e-07
0.000108839
-6.01562e-07
8.65409e-05
-4.61558e-07
-4.61558e-07
3.37042e-07
3.37043e-07
8.64326e-05
-2.8288e-07
-2.8288e-07
3.05727e-07
4.42555e-07
0.000108783
-3.55841e-07
1.8277e-07
5.24016e-07
0.000125443
-4.10568e-07
2.38856e-13
5.67997e-07
0.000134315
-4.40394e-07
-1.8277e-07
5.67997e-07
0.000134315
-4.40394e-07
-3.05727e-07
5.24016e-07
0.000125443
-4.10568e-07
-3.37042e-07
4.42555e-07
0.000108783
-3.5584e-07
3.37042e-07
8.64326e-05
-2.82881e-07
-2.8288e-07
4.42554e-07
3.05729e-07
0.000108783
-3.5584e-07
4.11361e-07
4.11362e-07
0.000136127
2.48164e-07
4.93895e-07
0.000155277
1.95488e-13
5.35806e-07
0.000165117
-2.48163e-07
5.35806e-07
0.000165117
-4.11361e-07
4.93894e-07
0.000155277
-4.42554e-07
4.11362e-07
0.000136127
3.05728e-07
0.000108783
-3.55841e-07
5.24015e-07
1.82772e-07
0.000125443
-4.10567e-07
4.93893e-07
2.48165e-07
0.000155277
2.99349e-07
2.9935e-07
0.000175655
1.1342e-13
3.22832e-07
0.000185846
-2.99349e-07
3.22832e-07
0.000185846
-4.93893e-07
2.9935e-07
0.000175655
-5.24015e-07
2.48165e-07
0.000155277
1.82772e-07
0.000125443
-4.10568e-07
5.67995e-07
1.72925e-12
0.000134315
-4.40393e-07
5.35805e-07
1.88708e-12
0.000165117
3.22831e-07
1.65813e-12
0.000185846
5.31826e-14
1.44112e-12
0.000195828
-3.22831e-07
1.39742e-12
0.000195828
-5.35805e-07
1.53498e-12
0.000185846
-5.67996e-07
1.69474e-12
0.000165117
1.52953e-12
0.000134315
-4.40394e-07
5.67995e-07
-1.82769e-07
0.000134315
-4.40393e-07
5.35805e-07
-2.48162e-07
0.000165117
3.22831e-07
-2.99347e-07
0.000185846
1.17377e-14
-3.22829e-07
0.000195828
-3.22831e-07
-3.22829e-07
0.000195828
-5.35805e-07
-2.99347e-07
0.000185846
-5.67996e-07
-2.48162e-07
0.000165117
-1.82769e-07
0.000134315
-4.40394e-07
5.24015e-07
-3.05726e-07
0.000125443
-4.10567e-07
4.93893e-07
-4.11359e-07
0.000155277
2.99349e-07
-4.93891e-07
0.000175655
-2.24936e-14
-5.35803e-07
0.000185846
-2.99349e-07
-5.35803e-07
0.000185846
-4.93893e-07
-4.93891e-07
0.000175655
-5.24015e-07
-4.11359e-07
0.000155277
-3.05726e-07
0.000125443
-4.10568e-07
4.42554e-07
-3.3704e-07
0.000108783
-3.55839e-07
4.11361e-07
-4.42552e-07
0.000136127
2.48164e-07
-5.24013e-07
0.000155277
-6.63885e-14
-5.67994e-07
0.000165117
-2.48164e-07
-5.67994e-07
0.000165117
-4.11361e-07
-5.24013e-07
0.000155277
-4.42554e-07
-4.42553e-07
0.000136127
-3.3704e-07
0.000108783
-3.5584e-07
3.37041e-07
8.64326e-05
-2.8288e-07
-2.82879e-07
3.05727e-07
0.000108783
-3.55839e-07
1.8277e-07
0.000125443
-4.10566e-07
-8.69212e-14
0.000134315
-4.40393e-07
-1.8277e-07
0.000134315
-4.40393e-07
-3.05727e-07
0.000125443
-4.10567e-07
-3.37041e-07
0.000108783
-3.5584e-07
8.64326e-05
-2.8288e-07
-2.8288e-07
1.51348e-07
1.5135e-07
8.63735e-05
-1.21836e-07
-1.21836e-07
1.40339e-07
2.02145e-07
0.000108747
-1.55427e-07
8.45678e-08
2.41371e-07
0.000125439
-1.81513e-07
-8.98589e-14
2.62704e-07
0.000134333
-1.96085e-07
-8.45679e-08
2.62704e-07
0.000134333
-1.96085e-07
-1.4034e-07
2.41371e-07
0.000125439
-1.81513e-07
-1.51349e-07
2.02145e-07
0.000108747
-1.55427e-07
1.5135e-07
8.63735e-05
-1.21837e-07
-1.21836e-07
2.02143e-07
1.40341e-07
0.000108747
-1.55425e-07
1.91011e-07
1.91013e-07
0.00013615
1.15755e-07
2.30229e-07
0.000155363
-7.91014e-14
2.5041e-07
0.000165245
-1.15755e-07
2.5041e-07
0.000165245
-1.91011e-07
2.30229e-07
0.000155363
-2.02144e-07
1.91013e-07
0.00013615
1.40341e-07
0.000108747
-1.55427e-07
2.41369e-07
8.45697e-08
0.000125439
-1.81511e-07
2.30227e-07
1.15757e-07
0.000155363
1.40054e-07
1.40056e-07
0.000175835
-8.31044e-14
1.51654e-07
0.000186085
-1.40054e-07
1.51654e-07
0.000186085
-2.30228e-07
1.40056e-07
0.000175835
-2.4137e-07
1.15757e-07
0.000155363
8.45697e-08
0.000125439
-1.81512e-07
2.62702e-07
1.66353e-12
0.000134333
-1.96083e-07
2.50409e-07
1.8818e-12
0.000165245
1.51653e-07
1.70545e-12
0.000186085
-8.52137e-14
1.52919e-12
0.000196131
-1.51653e-07
1.51519e-12
0.000196131
-2.50409e-07
1.68772e-12
0.000186085
-2.62702e-07
1.87798e-12
0.000165245
1.71351e-12
0.000134333
-1.96084e-07
2.62702e-07
-8.45664e-08
0.000134333
-1.96083e-07
2.50409e-07
-1.15754e-07
0.000165245
1.51653e-07
-1.40052e-07
0.000186085
-9.88773e-14
-1.51651e-07
0.000196131
-1.51653e-07
-1.51651e-07
0.000196131
-2.50409e-07
-1.40052e-07
0.000186085
-2.62702e-07
-1.15754e-07
0.000165245
-8.45664e-08
0.000134333
-1.96084e-07
2.41369e-07
-1.40338e-07
0.000125439
-1.81511e-07
2.30228e-07
-1.9101e-07
0.000155363
1.40054e-07
-2.30226e-07
0.000175835
-1.14254e-13
-2.50407e-07
0.000186085
-1.40054e-07
-2.50407e-07
0.000186085
-2.30228e-07
-2.30226e-07
0.000175835
-2.4137e-07
-1.9101e-07
0.000155363
-1.40338e-07
0.000125439
-1.81512e-07
2.02144e-07
-1.51347e-07
0.000108747
-1.55425e-07
1.91011e-07
-2.02142e-07
0.00013615
1.15755e-07
-2.41368e-07
0.000155363
-1.47327e-13
-2.62701e-07
0.000165245
-1.15756e-07
-2.62701e-07
0.000165245
-1.91011e-07
-2.41368e-07
0.000155363
-2.02144e-07
-2.02142e-07
0.00013615
-1.51347e-07
0.000108747
-1.55426e-07
1.51348e-07
8.63735e-05
-1.21836e-07
-1.21835e-07
1.4034e-07
0.000108747
-1.55425e-07
8.45679e-08
0.000125439
-1.81511e-07
-1.59338e-13
0.000134333
-1.96083e-07
-8.45682e-08
0.000134333
-1.96083e-07
-1.4034e-07
0.000125439
-1.81511e-07
-1.51348e-07
0.000108747
-1.55425e-07
8.63735e-05
-1.21836e-07
-1.21836e-07
7.9033e-08
7.90344e-08
8.63467e-05
-6.56222e-08
-6.56223e-08
7.18495e-08
1.04053e-07
0.000108733
-8.28793e-08
4.28781e-08
1.23074e-07
0.000125441
-9.59203e-08
5.766e-13
1.3333e-07
0.000134345
-1.03102e-07
-4.2877e-08
1.3333e-07
0.000134345
-1.03101e-07
-7.18487e-08
1.23073e-07
0.000125441
-9.59199e-08
-7.90325e-08
1.04053e-07
0.000108733
-8.28786e-08
7.90337e-08
8.63467e-05
-6.56222e-08
-6.56221e-08
1.04051e-07
7.18512e-08
0.000108733
-8.28779e-08
9.64209e-08
9.6423e-08
0.000136165
5.78783e-08
1.15181e-07
0.000155409
5.27688e-13
1.24754e-07
0.000165311
-5.78774e-08
1.24754e-07
0.000165311
-9.64203e-08
1.15181e-07
0.000155409
-1.04051e-07
9.64224e-08
0.000136165
7.18507e-08
0.000108733
-8.28788e-08
1.23072e-07
4.28799e-08
0.000125441
-9.59187e-08
1.15179e-07
5.78803e-08
0.000155409
6.94188e-08
6.94207e-08
0.000175927
3.85947e-13
7.49052e-08
0.000186204
-6.94182e-08
7.49051e-08
0.000186204
-1.15179e-07
6.94204e-08
0.000175927
-1.23072e-07
5.78799e-08
0.000155409
4.28794e-08
0.000125441
-9.59197e-08
1.33328e-07
2.20555e-12
0.000134345
-1.031e-07
1.24752e-07
2.39244e-12
0.000165311
7.49035e-08
2.09944e-12
0.000186204
2.72537e-13
1.82034e-12
0.000196281
-7.4903e-08
1.75103e-12
0.000196281
-1.24752e-07
1.88874e-12
0.000186204
-1.33328e-07
2.05469e-12
0.000165311
1.82818e-12
0.000134345
-1.03101e-07
1.33328e-07
-4.28756e-08
0.000134345
-1.031e-07
1.24752e-07
-5.78756e-08
0.000165311
7.49035e-08
-6.94165e-08
0.000186204
2.03964e-13
-7.49015e-08
0.000196281
-7.49031e-08
-7.49016e-08
0.000196281
-1.24752e-07
-6.94167e-08
0.000186204
-1.33328e-07
-5.78759e-08
0.000165311
-4.28758e-08
0.000134345
-1.03101e-07
1.23072e-07
-7.18473e-08
0.000125441
-9.59187e-08
1.15179e-07
-9.64186e-08
0.000155409
6.94188e-08
-1.15177e-07
0.000175927
1.6146e-13
-1.2475e-07
0.000186204
-6.94185e-08
-1.2475e-07
0.000186204
-1.15179e-07
-1.15177e-07
0.000175927
-1.23072e-07
-9.64188e-08
0.000155409
-7.18474e-08
0.000125441
-9.59197e-08
1.04051e-07
-7.90312e-08
0.000108733
-8.28776e-08
9.64208e-08
-1.0405e-07
0.000136165
5.78781e-08
-1.2307e-07
0.000155409
1.21482e-13
-1.33327e-07
0.000165311
-5.78779e-08
-1.33327e-07
0.000165311
-9.64206e-08
-1.2307e-07
0.000155409
-1.04051e-07
-1.0405e-07
0.000136165
-7.90312e-08
0.000108733
-8.28783e-08
7.90325e-08
8.63467e-05
-6.56214e-08
-6.56209e-08
7.18492e-08
0.000108733
-8.28771e-08
4.28777e-08
0.000125441
-9.59182e-08
7.26762e-14
0.000134345
-1.031e-07
-4.28776e-08
0.000134345
-1.031e-07
-7.18491e-08
0.000125441
-9.59184e-08
-7.90323e-08
0.000108733
-8.28776e-08
8.63467e-05
-6.56213e-08
-6.56216e-08
3.80806e-08
3.80823e-08
8.63326e-05
-3.10248e-08
-3.10245e-08
3.50232e-08
5.06165e-08
0.000108725
-3.94623e-08
2.10079e-08
6.01985e-08
0.000125441
-4.59521e-08
3.12998e-13
6.53708e-08
0.00013435
-4.95574e-08
-2.10073e-08
6.53708e-08
0.00013435
-4.95573e-08
-3.50228e-08
6.01982e-08
0.000125441
-4.59517e-08
-3.80805e-08
5.06161e-08
0.000108725
-3.94617e-08
3.80819e-08
8.63326e-05
-3.10249e-08
-3.10243e-08
5.06142e-08
3.50253e-08
0.000108725
-3.94606e-08
4.73936e-08
4.7396e-08
0.000136171
2.85615e-08
5.68264e-08
0.000155432
2.88388e-13
6.1625e-08
0.000165344
-2.8561e-08
6.1625e-08
0.000165344
-4.73933e-08
5.68262e-08
0.000155432
-5.06143e-08
4.73957e-08
0.000136171
3.50251e-08
0.000108725
-3.94614e-08
6.01962e-08
2.10099e-08
0.000125441
-4.59499e-08
5.68242e-08
2.85638e-08
0.000155432
3.43452e-08
3.43473e-08
0.000175971
1.86854e-13
3.70868e-08
0.000186263
-3.43449e-08
3.70867e-08
0.000186263
-5.6824e-08
3.43472e-08
0.000175971
-6.01963e-08
2.85636e-08
0.000155432
2.10097e-08
0.000125441
-4.59507e-08
6.53686e-08
2.0224e-12
0.00013435
-4.95553e-08
6.1623e-08
2.25583e-12
0.000165344
3.70849e-08
2.02117e-12
0.000186263
1.13721e-13
1.78909e-12
0.000196355
-3.70847e-08
1.74227e-12
0.000196355
-6.16229e-08
1.89876e-12
0.000186263
-6.53687e-08
2.07528e-12
0.000165344
1.86752e-12
0.00013435
-4.9556e-08
6.53687e-08
-2.1006e-08
0.00013435
-4.95554e-08
6.1623e-08
-2.85593e-08
0.000165344
3.70849e-08
-3.43433e-08
0.000186263
6.68189e-14
-3.70832e-08
0.000196355
-3.70848e-08
-3.70832e-08
0.000196355
-6.1623e-08
-3.43434e-08
0.000186263
-6.53687e-08
-2.85595e-08
0.000165344
-2.10061e-08
0.00013435
-4.9556e-08
6.01964e-08
-3.50216e-08
0.000125441
-4.59501e-08
5.68243e-08
-4.73918e-08
0.000155432
3.43453e-08
-5.68225e-08
0.000175971
4.24124e-14
-6.16214e-08
0.000186263
-3.43452e-08
-6.16215e-08
0.000186263
-5.68243e-08
-5.68227e-08
0.000175971
-6.01964e-08
-4.7392e-08
0.000155432
-3.50218e-08
0.000125441
-4.59506e-08
5.06144e-08
-3.80793e-08
0.000108725
-3.94605e-08
4.73937e-08
-5.06128e-08
0.000136171
2.85615e-08
-6.0195e-08
0.000155432
1.82708e-14
-6.53674e-08
0.000165344
-2.85615e-08
-6.53675e-08
0.000165344
-4.73937e-08
-6.01952e-08
0.000155432
-5.06143e-08
-5.06131e-08
0.000136171
-3.80796e-08
0.000108725
-3.94609e-08
3.80805e-08
8.63326e-05
-3.10236e-08
-3.10235e-08
3.50232e-08
0.000108725
-3.946e-08
2.10078e-08
0.000125441
-4.59496e-08
-1.83356e-14
0.00013435
-4.9555e-08
-2.10079e-08
0.00013435
-4.95551e-08
-3.50233e-08
0.000125441
-4.59499e-08
-3.80804e-08
0.000108725
-3.94604e-08
8.63326e-05
-3.1024e-08
-3.10238e-08
1.96295e-08
1.9631e-08
8.63257e-05
-1.6166e-08
-1.6166e-08
1.79429e-08
2.5969e-08
0.000108722
-2.04875e-08
1.07362e-08
3.08013e-08
0.000125441
-2.37789e-08
9.08024e-13
3.34039e-08
0.000134353
-2.55967e-08
-1.07345e-08
3.34037e-08
0.000134353
-2.55965e-08
-1.79415e-08
3.08006e-08
0.000125441
-2.37782e-08
-1.96285e-08
2.59679e-08
0.000108722
-2.04862e-08
1.96299e-08
8.63257e-05
-1.61655e-08
-1.61654e-08
2.59668e-08
1.79447e-08
0.000108722
-2.04857e-08
2.41868e-08
2.4189e-08
0.000136175
1.45477e-08
2.89464e-08
0.000155443
7.91098e-13
3.13603e-08
0.00016536
-1.45463e-08
3.13601e-08
0.00016536
-2.41856e-08
2.89459e-08
0.000155443
-2.59662e-08
2.41881e-08
0.000136175
1.79437e-08
0.000108722
-2.04862e-08
3.07991e-08
1.0738e-08
0.000125441
-2.3777e-08
2.89443e-08
1.45498e-08
0.000155443
1.74636e-08
1.74654e-08
0.000175994
5.45904e-13
1.884e-08
0.000186293
-1.74626e-08
1.88399e-08
0.000186293
-2.89436e-08
1.7465e-08
0.000175994
-3.07987e-08
1.45491e-08
0.000155443
1.07371e-08
0.000125441
-2.37777e-08
3.34019e-08
2.45641e-12
0.000134353
-2.55949e-08
3.13584e-08
2.60174e-12
0.00016536
1.88383e-08
2.22799e-12
0.000186293
3.62084e-13
1.88552e-12
0.000196393
-1.88377e-08
1.77639e-12
0.000196393
-3.13579e-08
1.89174e-12
0.000186293
-3.34017e-08
2.0321e-12
0.00016536
1.79172e-12
0.000134353
-2.55957e-08
3.34019e-08
-1.07332e-08
0.000134353
-2.55949e-08
3.13584e-08
-1.45447e-08
0.00016536
1.88383e-08
-1.7461e-08
0.000186293
2.52978e-13
-1.88362e-08
0.000196393
-1.88378e-08
-1.88363e-08
0.000196393
-3.13581e-08
-1.74613e-08
0.000186293
-3.34018e-08
-1.45451e-08
0.00016536
-1.07336e-08
0.000134353
-2.55958e-08
3.07989e-08
-1.79402e-08
0.000125441
-2.37768e-08
2.89442e-08
-2.41841e-08
0.000155443
1.74633e-08
-2.89421e-08
0.000175994
1.9001e-13
-3.13565e-08
0.000186293
-1.7463e-08
-3.13565e-08
0.000186293
-2.8944e-08
-2.89423e-08
0.000175994
-3.07989e-08
-2.41844e-08
0.000155443
-1.79405e-08
0.000125441
-2.37777e-08
2.59664e-08
-1.96274e-08
0.000108722
-2.04851e-08
2.41864e-08
-2.59646e-08
0.000136175
1.45472e-08
-3.07973e-08
0.000155443
1.32557e-13
-3.34003e-08
0.00016536
-1.4547e-08
-3.34003e-08
0.00016536
-2.41862e-08
-3.07975e-08
0.000155443
-2.59663e-08
-2.5965e-08
0.000136175
-1.96275e-08
0.000108722
-2.04858e-08
1.96287e-08
8.63257e-05
-1.61647e-08
-1.61642e-08
1.79422e-08
0.000108722
-2.04847e-08
1.07355e-08
0.000125441
-2.37763e-08
7.32931e-14
0.000134353
-2.55943e-08
-1.07354e-08
0.000134353
-2.55944e-08
-1.79421e-08
0.000125441
-2.37765e-08
-1.96285e-08
0.000108722
-2.04851e-08
8.63257e-05
-1.61646e-08
-1.6165e-08
9.77395e-09
9.77521e-09
8.63221e-05
-7.98456e-09
-7.98428e-09
8.98181e-09
1.29825e-08
0.00010872
-1.01454e-08
5.38861e-09
1.54376e-08
0.000125441
-1.1803e-08
-1.99827e-14
1.67629e-08
0.000134355
-1.2722e-08
-5.38864e-09
1.67629e-08
0.000134355
-1.27219e-08
-8.98192e-09
1.54375e-08
0.000125441
-1.18029e-08
-9.77414e-09
1.29824e-08
0.00010872
-1.01452e-08
9.77519e-09
8.63221e-05
-7.98493e-09
-7.98441e-09
1.29807e-08
8.98358e-09
0.00010872
-1.01442e-08
1.21561e-08
1.21582e-08
0.000136177
7.33088e-09
1.45844e-08
0.000155449
-2.66646e-14
1.58186e-08
0.000165369
-7.33098e-09
1.58185e-08
0.000165369
-1.21564e-08
1.45844e-08
0.000155449
-1.29811e-08
1.21581e-08
0.000136177
8.98356e-09
0.00010872
-1.01451e-08
1.54358e-08
5.39042e-09
0.000125441
-1.18014e-08
1.45826e-08
7.33288e-09
0.000155449
8.82134e-09
8.82316e-09
0.000176006
-7.04837e-14
9.52811e-09
0.000186308
-8.8215e-09
9.52809e-09
0.000186308
-1.45829e-08
8.82309e-09
0.000176006
-1.54362e-08