/*--------------------------------*- C++ -*----------------------------------*\
| =========                 |                                                 |
| \\      /  F ield         | OpenFOAM: The Open Source CFD Toolbox           |
|  \\    /   O peration     | Version:  2406                                  |
|   \\  /    A nd           | Website:  www.openfoam.com                      |
|    \\/     M anipulation  |                                                 |
\*---------------------------------------------------------------------------*/
FoamFile
{
    version     2.0;
    format      ascii;
    arch        "LSB;label=32;scalar=64";
    class       volVectorField;
    location    "7.8";
    object      U;
}
// * * * * * * * * * * * * * * * * * * * * * * * * * * * * * * * * * * * * * //

dimensions      [0 1 -1 0 0 0 0];

internalField   nonuniform List<vector> 
16000
(
(0.153132 0.153132 1.11474)
(0.117573 0.168169 1.1542)
(0.072459 0.17688 1.17285)
(0.0244946 0.180953 1.18018)
(-0.0244946 0.180953 1.18018)
(-0.072459 0.17688 1.17285)
(-0.117573 0.168169 1.1542)
(-0.153132 0.153132 1.11474)
(0.168169 0.117573 1.1542)
(0.126109 0.126109 1.18728)
(0.0766337 0.131081 1.19757)
(0.0257137 0.133402 1.19978)
(-0.0257137 0.133402 1.19978)
(-0.0766337 0.131081 1.19757)
(-0.126109 0.126109 1.18728)
(-0.168169 0.117573 1.1542)
(0.17688 0.072459 1.17285)
(0.131081 0.0766337 1.19757)
(0.0792027 0.0792027 1.20176)
(0.0264749 0.0803911 1.20065)
(-0.0264749 0.0803911 1.20065)
(-0.0792027 0.0792027 1.20176)
(-0.131081 0.0766337 1.19757)
(-0.17688 0.072459 1.17285)
(0.180953 0.0244946 1.18018)
(0.133402 0.0257137 1.19978)
(0.0803911 0.0264749 1.20065)
(0.0268183 0.0268183 1.1979)
(-0.0268183 0.0268183 1.1979)
(-0.0803911 0.0264749 1.20065)
(-0.133402 0.0257137 1.19978)
(-0.180953 0.0244946 1.18018)
(0.180953 -0.0244946 1.18018)
(0.133402 -0.0257137 1.19978)
(0.0803911 -0.0264749 1.20065)
(0.0268183 -0.0268183 1.1979)
(-0.0268183 -0.0268183 1.1979)
(-0.0803911 -0.0264749 1.20065)
(-0.133402 -0.0257137 1.19978)
(-0.180953 -0.0244946 1.18018)
(0.17688 -0.072459 1.17285)
(0.131081 -0.0766337 1.19757)
(0.0792027 -0.0792027 1.20176)
(0.0264749 -0.0803911 1.20065)
(-0.0264749 -0.0803911 1.20065)
(-0.0792027 -0.0792027 1.20176)
(-0.131081 -0.0766337 1.19757)
(-0.17688 -0.072459 1.17285)
(0.168169 -0.117573 1.1542)
(0.126109 -0.126109 1.18728)
(0.0766337 -0.131081 1.19757)
(0.0257137 -0.133402 1.19978)
(-0.0257137 -0.133402 1.19978)
(-0.0766337 -0.131081 1.19757)
(-0.126109 -0.126109 1.18728)
(-0.168169 -0.117573 1.1542)
(0.153132 -0.153132 1.11474)
(0.117573 -0.168169 1.1542)
(0.072459 -0.17688 1.17285)
(0.0244946 -0.180953 1.18018)
(-0.0244946 -0.180953 1.18018)
(-0.072459 -0.17688 1.17285)
(-0.117573 -0.168169 1.1542)
(-0.153132 -0.153132 1.11474)
(0.0494154 0.0494154 1.29062)
(0.0414003 0.0615755 1.3895)
(0.0279271 0.0703803 1.44408)
(0.00984083 0.075171 1.46809)
(-0.00984083 0.075171 1.46809)
(-0.027927 0.0703803 1.44408)
(-0.0414003 0.0615755 1.3895)
(-0.0494154 0.0494154 1.29062)
(0.0615755 0.0414003 1.3895)
(0.0531611 0.0531611 1.48728)
(0.0357288 0.0616406 1.53241)
(0.0125458 0.0660227 1.54992)
(-0.0125458 0.0660227 1.54992)
(-0.0357288 0.0616406 1.53241)
(-0.0531611 0.0531611 1.48728)
(-0.0615755 0.0414003 1.3895)
(0.0703803 0.0279271 1.44408)
(0.0616406 0.0357288 1.53241)
(0.0413007 0.0413007 1.57006)
(0.0144349 0.0441146 1.5832)
(-0.0144349 0.0441146 1.5832)
(-0.0413007 0.0413007 1.57006)
(-0.0616406 0.0357288 1.53241)
(-0.0703803 0.0279271 1.44408)
(0.075171 0.00984083 1.46809)
(0.0660227 0.0125458 1.54992)
(0.0441146 0.0144349 1.5832)
(0.0153734 0.0153734 1.59386)
(-0.0153734 0.0153734 1.59386)
(-0.0441146 0.0144349 1.5832)
(-0.0660227 0.0125458 1.54992)
(-0.0751711 0.00984083 1.46809)
(0.075171 -0.00984083 1.46809)
(0.0660227 -0.0125458 1.54992)
(0.0441146 -0.0144349 1.5832)
(0.0153734 -0.0153734 1.59386)
(-0.0153734 -0.0153734 1.59386)
(-0.0441146 -0.0144349 1.5832)
(-0.0660227 -0.0125458 1.54992)
(-0.0751711 -0.00984083 1.46809)
(0.0703803 -0.027927 1.44408)
(0.0616406 -0.0357288 1.53241)
(0.0413007 -0.0413007 1.57006)
(0.0144349 -0.0441146 1.5832)
(-0.0144349 -0.0441146 1.5832)
(-0.0413007 -0.0413007 1.57006)
(-0.0616406 -0.0357288 1.53241)
(-0.0703803 -0.027927 1.44408)
(0.0615755 -0.0414003 1.3895)
(0.0531611 -0.0531611 1.48728)
(0.0357288 -0.0616406 1.53241)
(0.0125458 -0.0660227 1.54992)
(-0.0125458 -0.0660227 1.54992)
(-0.0357288 -0.0616406 1.53241)
(-0.0531611 -0.0531611 1.48728)
(-0.0615755 -0.0414003 1.3895)
(0.0494154 -0.0494154 1.29062)
(0.0414003 -0.0615755 1.3895)
(0.027927 -0.0703803 1.44408)
(0.00984083 -0.075171 1.46809)
(-0.00984083 -0.075171 1.46809)
(-0.027927 -0.0703803 1.44408)
(-0.0414003 -0.0615755 1.3895)
(-0.0494154 -0.0494154 1.29062)
(0.0295334 0.0295334 1.18369)
(0.0263057 0.0381217 1.33605)
(0.0179588 0.0440247 1.43119)
(0.00638113 0.0472238 1.47636)
(-0.00638113 0.0472238 1.47636)
(-0.0179588 0.0440247 1.43119)
(-0.0263057 0.0381217 1.33605)
(-0.0295334 0.0295334 1.18369)
(0.0381217 0.0263057 1.33605)
(0.03387 0.03387 1.50686)
(0.0231033 0.0393329 1.60045)
(0.00819889 0.042227 1.64149)
(-0.00819889 0.042227 1.64149)
(-0.0231033 0.0393329 1.60045)
(-0.03387 0.03387 1.50686)
(-0.0381217 0.0263057 1.33605)
(0.0440247 0.0179588 1.43119)
(0.0393329 0.0231033 1.60045)
(0.0268026 0.0268026 1.68906)
(0.00948465 0.028713 1.72654)
(-0.00948465 0.028713 1.72654)
(-0.0268026 0.0268026 1.68906)
(-0.0393329 0.0231033 1.60045)
(-0.0440247 0.0179588 1.43119)
(0.0472238 0.00638113 1.47636)
(0.042227 0.00819889 1.64149)
(0.028713 0.00948465 1.72654)
(0.0101528 0.0101528 1.76219)
(-0.0101528 0.0101528 1.76219)
(-0.028713 0.00948465 1.72654)
(-0.042227 0.00819889 1.64149)
(-0.0472238 0.00638113 1.47636)
(0.0472238 -0.00638113 1.47636)
(0.042227 -0.00819889 1.64149)
(0.028713 -0.00948464 1.72654)
(0.0101528 -0.0101528 1.76219)
(-0.0101528 -0.0101528 1.76219)
(-0.028713 -0.00948464 1.72654)
(-0.042227 -0.00819889 1.64149)
(-0.0472238 -0.00638113 1.47636)
(0.0440247 -0.0179588 1.43119)
(0.0393329 -0.0231033 1.60045)
(0.0268026 -0.0268026 1.68906)
(0.00948465 -0.028713 1.72654)
(-0.00948465 -0.028713 1.72654)
(-0.0268026 -0.0268026 1.68906)
(-0.0393329 -0.0231033 1.60045)
(-0.0440247 -0.0179588 1.43119)
(0.0381217 -0.0263057 1.33605)
(0.03387 -0.03387 1.50686)
(0.0231033 -0.0393329 1.60045)
(0.00819889 -0.042227 1.64149)
(-0.00819889 -0.042227 1.64149)
(-0.0231033 -0.0393329 1.60045)
(-0.03387 -0.03387 1.50686)
(-0.0381217 -0.0263057 1.33605)
(0.0295334 -0.0295334 1.18369)
(0.0263057 -0.0381217 1.33605)
(0.0179588 -0.0440247 1.43119)
(0.00638113 -0.0472238 1.47636)
(-0.00638113 -0.0472238 1.47636)
(-0.0179588 -0.0440247 1.43119)
(-0.0263057 -0.0381217 1.33605)
(-0.0295334 -0.0295334 1.18369)
(0.00607788 0.00607788 1.17735)
(0.00678721 0.00932593 1.34012)
(0.00531535 0.0121436 1.44756)
(0.00200434 0.0137879 1.50053)
(-0.00200434 0.0137879 1.50053)
(-0.00531535 0.0121436 1.44756)
(-0.00678721 0.00932593 1.34012)
(-0.00607788 0.00607788 1.17735)
(0.00932593 0.00678721 1.34012)
(0.0106419 0.010642 1.53329)
(0.0082524 0.0137676 1.64786)
(0.00308277 0.0154575 1.70082)
(-0.00308277 0.0154575 1.70082)
(-0.0082524 0.0137676 1.64786)
(-0.010642 0.010642 1.53329)
(-0.00932593 0.00678721 1.34012)
(0.0121436 0.00531535 1.44756)
(0.0137676 0.0082524 1.64786)
(0.0104758 0.0104758 1.76219)
(0.00386311 0.0115575 1.81303)
(-0.00386311 0.0115575 1.81303)
(-0.0104758 0.0104758 1.76219)
(-0.0137676 0.0082524 1.64786)
(-0.0121436 0.00531535 1.44756)
(0.0137879 0.00200435 1.50053)
(0.0154575 0.00308277 1.70082)
(0.0115575 0.00386311 1.81303)
(0.00421153 0.00421154 1.8613)
(-0.00421153 0.00421154 1.8613)
(-0.0115575 0.00386311 1.81303)
(-0.0154575 0.00308277 1.70082)
(-0.0137879 0.00200435 1.50053)
(0.0137879 -0.00200434 1.50053)
(0.0154575 -0.00308276 1.70082)
(0.0115575 -0.0038631 1.81303)
(0.00421153 -0.00421153 1.8613)
(-0.00421153 -0.00421153 1.8613)
(-0.0115575 -0.0038631 1.81303)
(-0.0154575 -0.00308276 1.70082)
(-0.0137879 -0.00200434 1.50053)
(0.0121436 -0.00531535 1.44756)
(0.0137676 -0.00825239 1.64786)
(0.0104758 -0.0104758 1.76219)
(0.00386311 -0.0115575 1.81303)
(-0.00386311 -0.0115575 1.81303)
(-0.0104758 -0.0104758 1.76219)
(-0.0137676 -0.00825239 1.64786)
(-0.0121436 -0.00531535 1.44756)
(0.00932593 -0.00678721 1.34012)
(0.0106419 -0.0106419 1.53329)
(0.0082524 -0.0137676 1.64786)
(0.00308277 -0.0154575 1.70082)
(-0.00308277 -0.0154575 1.70082)
(-0.0082524 -0.0137676 1.64786)
(-0.010642 -0.0106419 1.53329)
(-0.00932593 -0.00678721 1.34012)
(0.00607788 -0.00607788 1.17735)
(0.00678721 -0.00932592 1.34012)
(0.00531535 -0.0121436 1.44756)
(0.00200434 -0.0137879 1.50053)
(-0.00200434 -0.0137879 1.50053)
(-0.00531535 -0.0121436 1.44756)
(-0.00678721 -0.00932593 1.34012)
(-0.00607788 -0.00607788 1.17735)
(0.00420928 0.00420929 1.15879)
(0.00417758 0.00573707 1.32761)
(0.00305281 0.00697193 1.44156)
(0.00112169 0.00767951 1.4987)
(-0.00112169 0.00767951 1.4987)
(-0.00305281 0.00697193 1.44156)
(-0.00417758 0.00573707 1.32761)
(-0.00420929 0.00420929 1.15879)
(0.00573707 0.00417758 1.32761)
(0.0058271 0.0058271 1.53244)
(0.00432306 0.00720708 1.65824)
(0.00159285 0.00796351 1.71788)
(-0.00159285 0.00796351 1.71788)
(-0.00432306 0.00720708 1.65824)
(-0.0058271 0.0058271 1.53244)
(-0.00573707 0.00417758 1.32761)
(0.00697193 0.00305281 1.44156)
(0.00720707 0.00432306 1.65824)
(0.00533722 0.00533722 1.7871)
(0.00194952 0.00580511 1.84585)
(-0.00194952 0.00580511 1.84585)
(-0.00533722 0.00533722 1.7871)
(-0.00720707 0.00432306 1.65824)
(-0.00697193 0.00305281 1.44156)
(0.00767951 0.00112169 1.4987)
(0.00796351 0.00159285 1.71788)
(0.00580511 0.00194952 1.84585)
(0.00208328 0.00208328 1.90127)
(-0.00208328 0.00208328 1.90127)
(-0.00580511 0.00194952 1.84585)
(-0.00796351 0.00159285 1.71788)
(-0.00767951 0.00112169 1.4987)
(0.00767951 -0.00112169 1.4987)
(0.00796351 -0.00159285 1.71788)
(0.00580511 -0.00194951 1.84585)
(0.00208328 -0.00208328 1.90127)
(-0.00208328 -0.00208328 1.90127)
(-0.00580511 -0.00194951 1.84585)
(-0.00796351 -0.00159285 1.71788)
(-0.00767951 -0.00112169 1.4987)
(0.00697193 -0.00305281 1.44156)
(0.00720707 -0.00432305 1.65824)
(0.00533722 -0.00533722 1.7871)
(0.00194952 -0.0058051 1.84585)
(-0.00194952 -0.0058051 1.84585)
(-0.00533722 -0.00533722 1.7871)
(-0.00720707 -0.00432305 1.65824)
(-0.00697193 -0.00305281 1.44156)
(0.00573707 -0.00417758 1.32761)
(0.0058271 -0.0058271 1.53244)
(0.00432306 -0.00720707 1.65824)
(0.00159285 -0.0079635 1.71788)
(-0.00159285 -0.0079635 1.71788)
(-0.00432306 -0.00720707 1.65824)
(-0.0058271 -0.0058271 1.53244)
(-0.00573707 -0.00417758 1.32761)
(0.00420928 -0.00420928 1.15879)
(0.00417758 -0.00573707 1.32761)
(0.00305281 -0.00697193 1.44156)
(0.00112169 -0.00767951 1.4987)
(-0.00112169 -0.00767951 1.4987)
(-0.00305281 -0.00697193 1.44156)
(-0.00417758 -0.00573707 1.32761)
(-0.00420928 -0.00420928 1.15879)
(0.00130174 0.00130174 1.15563)
(0.00140465 0.00190345 1.3259)
(0.00109256 0.00244352 1.44189)
(0.000412967 0.00276631 1.50046)
(-0.000412967 0.00276631 1.50046)
(-0.00109256 0.00244352 1.44189)
(-0.00140465 0.00190345 1.3259)
(-0.00130174 0.00130174 1.15563)
(0.00190345 0.00140465 1.3259)
(0.00214529 0.0021453 1.53424)
(0.0016872 0.00280356 1.66415)
(0.000637026 0.00317699 1.72646)
(-0.000637026 0.00317699 1.72646)
(-0.0016872 0.00280356 1.66415)
(-0.0021453 0.0021453 1.53424)
(-0.00190345 0.00140465 1.3259)
(0.00244352 0.00109257 1.44189)
(0.00280355 0.0016872 1.66415)
(0.00219038 0.00219038 1.7989)
(0.000816972 0.0024356 1.86114)
(-0.000816972 0.0024356 1.86114)
(-0.00219038 0.00219038 1.7989)
(-0.00280356 0.0016872 1.66415)
(-0.00244352 0.00109257 1.44189)
(0.00276631 0.00041297 1.50046)
(0.00317699 0.000637029 1.72646)
(0.0024356 0.000816975 1.86114)
(0.000886492 0.000886495 1.91993)
(-0.000886493 0.000886495 1.91993)
(-0.0024356 0.000816975 1.86114)
(-0.00317699 0.000637029 1.72646)
(-0.00276631 0.00041297 1.50046)
(0.00276631 -0.000412964 1.50046)
(0.00317699 -0.000637022 1.72646)
(0.0024356 -0.000816969 1.86114)
(0.000886492 -0.00088649 1.91993)
(-0.000886493 -0.00088649 1.91993)
(-0.0024356 -0.000816969 1.86114)
(-0.00317699 -0.000637022 1.72646)
(-0.00276631 -0.000412964 1.50046)
(0.00244352 -0.00109256 1.44189)
(0.00280355 -0.00168719 1.66415)
(0.00219038 -0.00219038 1.7989)
(0.000816972 -0.00243559 1.86114)
(-0.000816972 -0.00243559 1.86114)
(-0.00219038 -0.00219038 1.7989)
(-0.00280356 -0.00168719 1.66415)
(-0.00244352 -0.00109256 1.44189)
(0.00190345 -0.00140464 1.3259)
(0.00214529 -0.00214529 1.53424)
(0.0016872 -0.00280355 1.66415)
(0.000637026 -0.00317699 1.72646)
(-0.000637026 -0.00317699 1.72646)
(-0.0016872 -0.00280355 1.66415)
(-0.00214529 -0.00214529 1.53424)
(-0.00190345 -0.00140465 1.3259)
(0.00130174 -0.00130174 1.15563)
(0.00140465 -0.00190345 1.3259)
(0.00109256 -0.00244352 1.44189)
(0.000412967 -0.00276631 1.50046)
(-0.000412968 -0.00276631 1.50046)
(-0.00109256 -0.00244352 1.44189)
(-0.00140465 -0.00190345 1.3259)
(-0.00130174 -0.00130174 1.15563)
(0.000792204 0.000792205 1.15296)
(0.000788354 0.00108156 1.32433)
(0.000581398 0.00132234 1.44146)
(0.000214721 0.00146385 1.50077)
(-0.000214719 0.00146385 1.50077)
(-0.000581397 0.00132233 1.44146)
(-0.000788354 0.00108156 1.32433)
(-0.000792205 0.000792205 1.15296)
(0.00108156 0.000788357 1.32433)
(0.00110842 0.00110842 1.53467)
(0.000833461 0.00139004 1.66657)
(0.000309536 0.00155285 1.73013)
(-0.000309535 0.00155285 1.73013)
(-0.00083346 0.00139004 1.66657)
(-0.00110842 0.00110842 1.53467)
(-0.00108156 0.000788357 1.32433)
(0.00132233 0.000581402 1.44146)
(0.00139004 0.000833465 1.66657)
(0.00105205 0.00105206 1.80409)
(0.000388559 0.00116372 1.86797)
(-0.000388558 0.00116372 1.86797)
(-0.00105205 0.00105206 1.80409)
(-0.00139004 0.000833464 1.66657)
(-0.00132234 0.000581401 1.44146)
(0.00146384 0.000214724 1.50077)
(0.00155285 0.00030954 1.73013)
(0.00116372 0.000388563 1.86797)
(0.000420373 0.000420376 1.92846)
(-0.000420372 0.000420376 1.92846)
(-0.00116372 0.000388562 1.86797)
(-0.00155285 0.000309539 1.73013)
(-0.00146385 0.000214724 1.50077)
(0.00146384 -0.000214716 1.50077)
(0.00155285 -0.000309531 1.73013)
(0.00116372 -0.000388555 1.86797)
(0.000420372 -0.000420369 1.92846)
(-0.000420372 -0.000420369 1.92846)
(-0.00116372 -0.000388555 1.86797)
(-0.00155285 -0.000309531 1.73013)
(-0.00146385 -0.000214716 1.50077)
(0.00132233 -0.000581393 1.44146)
(0.00139004 -0.000833456 1.66657)
(0.00105205 -0.00105205 1.80409)
(0.000388559 -0.00116372 1.86797)
(-0.000388559 -0.00116372 1.86797)
(-0.00105205 -0.00105205 1.80409)
(-0.00139004 -0.000833456 1.66657)
(-0.00132233 -0.000581394 1.44146)
(0.00108156 -0.000788349 1.32433)
(0.00110841 -0.00110841 1.53467)
(0.00083346 -0.00139004 1.66657)
(0.000309535 -0.00155284 1.73013)
(-0.000309535 -0.00155284 1.73013)
(-0.00083346 -0.00139004 1.66657)
(-0.00110842 -0.00110841 1.53467)
(-0.00108156 -0.00078835 1.32433)
(0.000792201 -0.0007922 1.15296)
(0.000788352 -0.00108155 1.32433)
(0.000581397 -0.00132233 1.44146)
(0.00021472 -0.00146384 1.50077)
(-0.00021472 -0.00146384 1.50077)
(-0.000581398 -0.00132233 1.44146)
(-0.000788353 -0.00108156 1.32433)
(-0.000792203 -0.000792203 1.15296)
(0.000340736 0.000340737 1.1521)
(0.000347865 0.000479672 1.32392)
(0.000260863 0.000598211 1.44154)
(9.69833e-05 0.000668247 1.50117)
(-9.69837e-05 0.000668247 1.50117)
(-0.000260864 0.000598211 1.44154)
(-0.000347866 0.000479672 1.32392)
(-0.000340738 0.000340738 1.1521)
(0.000479667 0.000347868 1.32392)
(0.000505477 0.000505482 1.53513)
(0.000384178 0.000642849 1.6679)
(0.000143137 0.000722071 1.732)
(-0.000143138 0.000722071 1.732)
(-0.000384179 0.000642849 1.6679)
(-0.000505479 0.000505482 1.53513)
(-0.000479671 0.000347869 1.32392)
(0.000598205 0.000260867 1.44154)
(0.000642845 0.000384183 1.6679)
(0.000489664 0.000489668 1.80663)
(0.0001812 0.000544341 1.87124)
(-0.0001812 0.000544341 1.87124)
(-0.000489664 0.000489668 1.80663)
(-0.000642846 0.000384183 1.6679)
(-0.000598209 0.000260868 1.44154)
(0.00066824 9.69877e-05 1.50117)
(0.000722066 0.000143142 1.732)
(0.000544337 0.000181204 1.87124)
(0.000196974 0.000196978 1.93251)
(-0.000196975 0.000196978 1.93251)
(-0.000544337 0.000181204 1.87124)
(-0.000722067 0.000143142 1.732)
(-0.000668243 9.69879e-05 1.50117)
(0.00066824 -9.69793e-05 1.50117)
(0.000722066 -0.000143133 1.732)
(0.000544337 -0.000181196 1.87124)
(0.000196974 -0.000196971 1.93251)
(-0.000196975 -0.000196971 1.93251)
(-0.000544337 -0.000181196 1.87124)
(-0.000722067 -0.000143133 1.732)
(-0.000668243 -9.69793e-05 1.50117)
(0.000598205 -0.000260859 1.44154)
(0.000642845 -0.000384175 1.6679)
(0.000489664 -0.00048966 1.80663)
(0.0001812 -0.000544334 1.87124)
(-0.0001812 -0.000544334 1.87124)
(-0.000489664 -0.00048966 1.80663)
(-0.000642845 -0.000384175 1.6679)
(-0.000598207 -0.000260859 1.44154)
(0.000479667 -0.000347861 1.32392)
(0.000505477 -0.000505474 1.53513)
(0.000384178 -0.000642841 1.6679)
(0.000143137 -0.000722063 1.732)
(-0.000143138 -0.000722063 1.732)
(-0.000384179 -0.000642842 1.6679)
(-0.000505478 -0.000505474 1.53513)
(-0.000479668 -0.000347862 1.32392)
(0.000340734 -0.000340733 1.1521)
(0.000347864 -0.000479664 1.32392)
(0.000260863 -0.000598203 1.44154)
(9.69831e-05 -0.000668239 1.50117)
(-9.69839e-05 -0.000668239 1.50117)
(-0.000260864 -0.000598204 1.44154)
(-0.000347865 -0.000479666 1.32392)
(-0.000340735 -0.000340734 1.1521)
(0.000183378 0.00018338 1.15155)
(0.000182636 0.000252985 1.32363)
(0.0001345 0.000310879 1.44151)
(4.95861e-05 0.000344803 1.5013)
(-4.95833e-05 0.000344802 1.5013)
(-0.000134497 0.000310877 1.44151)
(-0.000182634 0.000252982 1.32363)
(-0.000183378 0.000183379 1.15155)
(0.000252981 0.000182639 1.32363)
(0.000258956 0.00025896 1.5353)
(0.000193546 0.000324769 1.66852)
(7.1591e-05 0.000362583 1.73289)
(-7.15885e-05 0.000362583 1.73289)
(-0.000193544 0.000324767 1.66852)
(-0.000258954 0.000258958 1.5353)
(-0.000252982 0.000182638 1.32363)
(0.000310874 0.000134504 1.44151)
(0.000324764 0.000193551 1.66852)
(0.000243696 0.0002437 1.80785)
(8.96178e-05 0.000269587 1.87281)
(-8.9616e-05 0.000269587 1.87281)
(-0.000243694 0.0002437 1.80785)
(-0.000324763 0.00019355 1.66852)
(-0.000310876 0.000134503 1.44151)
(0.000344798 4.95903e-05 1.5013)
(0.000362579 7.15957e-05 1.73289)
(0.000269583 8.96221e-05 1.87281)
(9.70175e-05 9.70213e-05 1.93446)
(-9.70163e-05 9.70211e-05 1.93446)
(-0.000269582 8.96215e-05 1.87281)
(-0.000362579 7.15948e-05 1.73289)
(-0.0003448 4.95893e-05 1.5013)
(0.000344797 -4.95792e-05 1.5013)
(0.000362579 -7.15839e-05 1.73289)
(0.000269583 -8.96119e-05 1.87281)
(9.70173e-05 -9.70125e-05 1.93446)
(-9.70164e-05 -9.70127e-05 1.93446)
(-0.000269582 -8.96123e-05 1.87281)
(-0.000362578 -7.15846e-05 1.73289)
(-0.0003448 -4.958e-05 1.5013)
(0.000310873 -0.000134494 1.44151)
(0.000324763 -0.00019354 1.66852)
(0.000243695 -0.00024369 1.80785)
(8.96172e-05 -0.000269578 1.87281)
(-8.96165e-05 -0.000269578 1.87281)
(-0.000243695 -0.000243691 1.80785)
(-0.000324763 -0.00019354 1.66852)
(-0.000310875 -0.000134494 1.44151)
(0.000252978 -0.00018263 1.32363)
(0.000258954 -0.00025895 1.5353)
(0.000193545 -0.000324759 1.66852)
(7.159e-05 -0.000362574 1.73289)
(-7.15894e-05 -0.000362574 1.73289)
(-0.000193544 -0.000324759 1.66852)
(-0.000258954 -0.00025895 1.5353)
(-0.00025298 -0.000182631 1.32363)
(0.000183374 -0.000183374 1.15155)
(0.000182633 -0.000252975 1.32363)
(0.000134498 -0.00031087 1.44151)
(4.95848e-05 -0.000344794 1.5013)
(-4.95845e-05 -0.000344794 1.5013)
(-0.000134498 -0.00031087 1.44151)
(-0.000182633 -0.000252977 1.32363)
(-0.000183376 -0.000183375 1.15155)
(8.67712e-05 8.67728e-05 1.15132)
(8.77095e-05 0.000121325 1.32351)
(6.52144e-05 0.000150477 1.44152)
(2.41381e-05 0.00016761 1.50139)
(-2.41366e-05 0.00016761 1.50139)
(-6.52131e-05 0.000150476 1.44152)
(-8.77088e-05 0.000121323 1.32351)
(-8.6772e-05 8.67725e-05 1.15132)
(0.000121318 8.77132e-05 1.32351)
(0.000126291 0.000126296 1.53541)
(9.5109e-05 0.000159577 1.66884)
(3.52683e-05 0.000178635 1.73335)
(-3.5267e-05 0.000178635 1.73335)
(-9.5108e-05 0.000159576 1.66884)
(-0.000126291 0.000126295 1.53541)
(-0.00012132 8.77127e-05 1.32351)
(0.00015047 6.52189e-05 1.44152)
(0.000159571 9.51144e-05 1.66884)
(0.000120352 0.000120357 1.80847)
(4.43134e-05 0.000133316 1.8736)
(-4.43125e-05 0.000133316 1.8736)
(-0.000120351 0.000120356 1.80847)
(-0.000159571 9.51138e-05 1.66884)
(-0.000150472 6.52184e-05 1.44152)
(0.000167602 2.41426e-05 1.50139)
(0.00017863 3.52735e-05 1.73335)
(0.000133312 4.43181e-05 1.8736)
(4.80029e-05 4.80071e-05 1.93544)
(-4.80024e-05 4.8007e-05 1.93544)
(-0.000133311 4.43178e-05 1.8736)
(-0.00017863 3.5273e-05 1.73335)
(-0.000167604 2.41422e-05 1.50139)
(0.000167602 -2.41324e-05 1.50139)
(0.00017863 -3.52623e-05 1.73335)
(0.000133312 -4.43082e-05 1.8736)
(4.80028e-05 -4.79985e-05 1.93544)
(-4.80025e-05 -4.79986e-05 1.93544)
(-0.000133311 -4.43085e-05 1.8736)
(-0.00017863 -3.52627e-05 1.73335)
(-0.000167603 -2.41328e-05 1.50139)
(0.000150469 -6.52094e-05 1.44152)
(0.000159571 -9.51038e-05 1.66884)
(0.000120351 -0.000120347 1.80847)
(4.43131e-05 -0.000133308 1.8736)
(-4.43129e-05 -0.000133308 1.8736)
(-0.000120351 -0.000120347 1.80847)
(-0.000159571 -9.51041e-05 1.66884)
(-0.00015047 -6.52097e-05 1.44152)
(0.000121317 -8.77046e-05 1.32351)
(0.00012629 -0.000126286 1.53541)
(9.51086e-05 -0.000159567 1.66884)
(3.52677e-05 -0.000178626 1.73335)
(-3.52677e-05 -0.000178626 1.73335)
(-9.51085e-05 -0.000159567 1.66884)
(-0.00012629 -0.000126287 1.53541)
(-0.000121317 -8.77051e-05 1.32351)
(8.67683e-05 -8.67673e-05 1.15132)
(8.77077e-05 -0.000121315 1.32351)
(6.52137e-05 -0.000150467 1.44152)
(2.41373e-05 -0.0001676 1.50139)
(-2.41374e-05 -0.0001676 1.50139)
(-6.52138e-05 -0.000150468 1.44152)
(-8.7708e-05 -0.000121316 1.32351)
(-8.67691e-05 -8.67682e-05 1.15132)
(4.5218e-05 4.52198e-05 1.15119)
(4.53634e-05 6.27486e-05 1.32345)
(3.356e-05 7.74228e-05 1.44152)
(1.23973e-05 8.60283e-05 1.50143)
(-1.23928e-05 8.60273e-05 1.50143)
(-3.35559e-05 7.74196e-05 1.44152)
(-4.53596e-05 6.27435e-05 1.32345)
(-4.52159e-05 4.52166e-05 1.15119)
(6.27427e-05 4.5367e-05 1.32345)
(6.4756e-05 6.47613e-05 1.53546)
(4.85776e-05 8.14846e-05 1.669)
(1.79889e-05 9.10618e-05 1.73357)
(-1.79851e-05 9.10612e-05 1.73357)
(-4.85743e-05 8.14827e-05 1.669)
(-6.47535e-05 6.47581e-05 1.53546)
(-6.27425e-05 4.5364e-05 1.32345)
(7.74162e-05 3.35641e-05 1.44152)
(8.14796e-05 4.85825e-05 1.669)
(6.12724e-05 6.1277e-05 1.80878)
(2.25354e-05 6.77827e-05 1.874)
(-2.25329e-05 6.77823e-05 1.874)
(-6.12702e-05 6.12757e-05 1.80878)
(-8.14781e-05 4.85805e-05 1.669)
(-7.74172e-05 3.35619e-05 1.44152)
(8.60219e-05 1.24014e-05 1.50143)
(9.1057e-05 1.79936e-05 1.73357)
(6.77785e-05 2.25397e-05 1.874)
(2.43785e-05 2.43823e-05 1.93593)
(-2.43768e-05 2.4382e-05 1.93593)
(-6.7777e-05 2.25388e-05 1.874)
(-9.10562e-05 1.7992e-05 1.73357)
(-8.60236e-05 1.23996e-05 1.50143)
(8.60212e-05 -1.2389e-05 1.50143)
(9.10565e-05 -1.79807e-05 1.73357)
(6.77782e-05 -2.25289e-05 1.874)
(2.43782e-05 -2.43732e-05 1.93593)
(-2.43771e-05 -2.43734e-05 1.93593)
(-6.77772e-05 -2.25296e-05 1.874)
(-9.10562e-05 -1.79819e-05 1.73357)
(-8.60236e-05 -1.23905e-05 1.50143)
(7.74141e-05 -3.35524e-05 1.44152)
(8.14781e-05 -4.85702e-05 1.669)
(6.12714e-05 -6.12663e-05 1.80878)
(2.25345e-05 -6.77733e-05 1.874)
(-2.25337e-05 -6.77735e-05 1.874)
(-6.12708e-05 -6.12668e-05 1.80878)
(-8.1478e-05 -4.85711e-05 1.669)
(-7.74168e-05 -3.35535e-05 1.44152)
(6.27384e-05 -4.53555e-05 1.32345)
(6.47534e-05 -6.47489e-05 1.53546)
(4.85758e-05 -8.14738e-05 1.669)
(1.79872e-05 -9.10522e-05 1.73357)
(-1.79866e-05 -9.10523e-05 1.73357)
(-4.85754e-05 -8.14743e-05 1.669)
(-6.47534e-05 -6.47498e-05 1.53546)
(-6.27411e-05 -4.53569e-05 1.32345)
(4.5212e-05 -4.52114e-05 1.15119)
(4.53591e-05 -6.27358e-05 1.32345)
(3.35575e-05 -7.7411e-05 1.44152)
(1.23951e-05 -8.60179e-05 1.50143)
(-1.23948e-05 -8.60182e-05 1.50143)
(-3.35574e-05 -7.7412e-05 1.44152)
(-4.53596e-05 -6.27377e-05 1.32345)
(-4.52141e-05 -4.52136e-05 1.15119)
(2.2342e-05 2.2343e-05 1.15113)
(2.25624e-05 3.11679e-05 1.32341)
(1.67712e-05 3.8607e-05 1.44152)
(6.20866e-06 4.29811e-05 1.50145)
(-6.20873e-06 4.2981e-05 1.50145)
(-1.67714e-05 3.86067e-05 1.44152)
(-2.25631e-05 3.11675e-05 1.32341)
(-2.23435e-05 2.23436e-05 1.15113)
(3.11632e-05 2.25655e-05 1.32341)
(3.242e-05 3.24244e-05 1.53548)
(2.44304e-05 4.09517e-05 1.66908)
(9.06395e-06 4.58415e-05 1.73369)
(-9.06414e-06 4.58415e-05 1.73369)
(-2.44308e-05 4.09515e-05 1.66908)
(-3.24209e-05 3.24242e-05 1.53548)
(-3.11659e-05 2.25659e-05 1.32341)
(3.86014e-05 1.67753e-05 1.44152)
(4.09474e-05 2.4435e-05 1.66908)
(3.09176e-05 3.09219e-05 1.80894)
(1.13897e-05 3.42528e-05 1.8742)
(-1.139e-05 3.42527e-05 1.8742)
(-3.09181e-05 3.09217e-05 1.80894)
(-4.09483e-05 2.44348e-05 1.66908)
(-3.86037e-05 1.67753e-05 1.44152)
(4.29752e-05 6.2129e-06 1.50145)
(4.58372e-05 9.06863e-06 1.73369)
(3.42488e-05 1.13938e-05 1.8742)
(1.23354e-05 1.23391e-05 1.93618)
(-1.23359e-05 1.23391e-05 1.93618)
(-3.42494e-05 1.13937e-05 1.8742)
(-4.5838e-05 9.06846e-06 1.73369)
(-4.2977e-05 6.21283e-06 1.50145)
(4.29751e-05 -6.20467e-06 1.50145)
(4.58371e-05 -9.05969e-06 1.73369)
(3.42488e-05 -1.1386e-05 1.8742)
(1.23354e-05 -1.23323e-05 1.93618)
(-1.2336e-05 -1.23324e-05 1.93618)
(-3.42494e-05 -1.13862e-05 1.8742)
(-4.58379e-05 -9.05989e-06 1.73369)
(-4.29766e-05 -6.20483e-06 1.50145)
(3.86011e-05 -1.67677e-05 1.44152)
(4.09472e-05 -2.44266e-05 1.66908)
(3.09175e-05 -3.09143e-05 1.80894)
(1.13895e-05 -3.42458e-05 1.8742)
(-1.13902e-05 -3.42459e-05 1.8742)
(-3.09182e-05 -3.09145e-05 1.80894)
(-4.09478e-05 -2.44268e-05 1.66908)
(-3.86023e-05 -1.67679e-05 1.44152)
(3.11622e-05 -2.25588e-05 1.32341)
(3.24196e-05 -3.24165e-05 1.53548)
(2.44302e-05 -4.09444e-05 1.66908)
(9.06369e-06 -4.58345e-05 1.73369)
(-9.06449e-06 -4.58346e-05 1.73369)
(-2.4431e-05 -4.09447e-05 1.66908)
(-3.24202e-05 -3.2417e-05 1.53548)
(-3.11632e-05 -2.25594e-05 1.32341)
(2.23396e-05 -2.23388e-05 1.15113)
(2.25613e-05 -3.11603e-05 1.32341)
(1.6771e-05 -3.85992e-05 1.44152)
(6.20831e-06 -4.29734e-05 1.50145)
(-6.20919e-06 -4.29736e-05 1.50145)
(-1.67718e-05 -3.86e-05 1.44152)
(-2.25622e-05 -3.11616e-05 1.32341)
(-2.23407e-05 -2.23399e-05 1.15113)
(1.14908e-05 1.14919e-05 1.1511)
(1.15726e-05 1.59837e-05 1.3234)
(8.58642e-06 1.97571e-05 1.44152)
(3.1772e-06 2.19749e-05 1.50146)
(-3.17543e-06 2.19745e-05 1.50146)
(-8.58492e-06 1.97558e-05 1.44152)
(-1.15717e-05 1.59819e-05 1.3234)
(-1.14914e-05 1.14917e-05 1.1511)
(1.59806e-05 1.1575e-05 1.3234)
(1.65713e-05 1.65746e-05 1.5355)
(1.24721e-05 2.09003e-05 1.66912)
(4.62647e-06 2.33836e-05 1.73375)
(-4.62506e-06 2.33833e-05 1.73375)
(-1.24711e-05 2.08995e-05 1.66912)
(-1.6571e-05 1.65732e-05 1.5355)
(-1.59833e-05 1.15743e-05 1.3234)
(1.97537e-05 8.58945e-06 1.44152)
(2.08972e-05 1.24756e-05 1.66912)
(1.5769e-05 1.57722e-05 1.80902)
(5.80936e-06 1.74676e-05 1.8743)
(-5.80848e-06 1.74674e-05 1.8743)
(-1.57684e-05 1.57716e-05 1.80902)
(-2.08974e-05 1.24747e-05 1.66912)
(-1.97568e-05 8.58859e-06 1.44152)
(2.19716e-05 3.18039e-06 1.50146)
(2.33806e-05 4.63005e-06 1.73375)
(1.74647e-05 5.81255e-06 1.8743)
(6.291e-06 6.2938e-06 1.9363)
(-6.29051e-06 6.29366e-06 1.9363)
(-1.74644e-05 5.81211e-06 1.8743)
(-2.3381e-05 4.62933e-06 1.73375)
(-2.19749e-05 3.17963e-06 1.50146)
(2.19713e-05 -3.17218e-06 1.50146)
(2.33804e-05 -4.62141e-06 1.73375)
(1.74646e-05 -5.80522e-06 1.8743)
(6.29088e-06 -6.28762e-06 1.9363)
(-6.29062e-06 -6.28773e-06 1.9363)
(-1.74645e-05 -5.80556e-06 1.8743)
(-2.3381e-05 -4.62197e-06 1.73375)
(-2.19749e-05 -3.17288e-06 1.50146)
(1.97528e-05 -8.58177e-06 1.44152)
(2.08965e-05 -1.24674e-05 1.66912)
(1.57685e-05 -1.5765e-05 1.80902)
(5.80895e-06 -1.74612e-05 1.8743)
(-5.80886e-06 -1.74613e-05 1.8743)
(-1.57686e-05 -1.57653e-05 1.80902)
(-2.08972e-05 -1.24678e-05 1.66912)
(-1.97564e-05 -8.58233e-06 1.44152)
(1.59788e-05 -1.1568e-05 1.3234)
(1.657e-05 -1.65667e-05 1.5355)
(1.24713e-05 -2.08934e-05 1.66912)
(4.62566e-06 -2.33773e-05 1.73375)
(-4.62578e-06 -2.33774e-05 1.73375)
(-1.24715e-05 -2.08937e-05 1.66912)
(-1.65707e-05 -1.65672e-05 1.5355)
(-1.59821e-05 -1.15691e-05 1.3234)
(1.14882e-05 -1.14877e-05 1.1511)
(1.15707e-05 -1.59768e-05 1.3234)
(8.58532e-06 -1.97506e-05 1.44152)
(3.17615e-06 -2.1969e-05 1.50146)
(-3.17638e-06 -2.19693e-05 1.50146)
(-8.58561e-06 -1.97514e-05 1.44152)
(-1.15714e-05 -1.59785e-05 1.3234)
(-1.14902e-05 -1.14898e-05 1.1511)
(5.80202e-06 5.80243e-06 1.15108)
(5.85528e-06 8.08734e-06 1.32339)
(4.34982e-06 1.00104e-05 1.44152)
(1.60968e-06 1.11419e-05 1.50146)
(-1.61184e-06 1.11422e-05 1.50146)
(-4.35196e-06 1.00112e-05 1.44152)
(-5.85784e-06 8.08884e-06 1.32339)
(-5.80508e-06 5.80473e-06 1.15108)
(8.08464e-06 5.8572e-06 1.32339)
(8.4039e-06 8.40659e-06 1.5355)
(6.33314e-06 1.06142e-05 1.66915)
(2.34978e-06 1.18822e-05 1.73378)
(-2.35181e-06 1.18824e-05 1.73378)
(-6.33522e-06 1.06147e-05 1.66915)
(-8.40642e-06 8.40757e-06 1.5355)
(-8.08897e-06 5.85901e-06 1.32339)
(1.00071e-05 4.35257e-06 1.44152)
(1.06116e-05 6.33619e-06 1.66915)
(8.01681e-06 8.01956e-06 1.80906)
(2.95431e-06 8.88616e-06 1.87436)
(-2.95595e-06 8.88627e-06 1.87436)
(-8.01852e-06 8.01993e-06 1.80906)
(-1.06136e-05 6.33687e-06 1.66915)
(-1.00105e-05 4.35359e-06 1.44152)
(1.11384e-05 1.6127e-06 1.50146)
(1.18796e-05 2.35304e-06 1.73378)
(8.88361e-06 2.95717e-06 1.87436)
(3.20098e-06 3.20349e-06 1.93637)
(-3.20231e-06 3.20357e-06 1.93637)
(-8.885e-06 2.95745e-06 1.87436)
(-1.18812e-05 2.35361e-06 1.73378)
(-1.11411e-05 1.61352e-06 1.50146)
(1.11386e-05 -1.60883e-06 1.50146)
(1.18797e-05 -2.34857e-06 1.73378)
(8.88373e-06 -2.9531e-06 1.87436)
(3.20107e-06 -3.1998e-06 1.93637)
(-3.20225e-06 -3.19974e-06 1.93637)
(-8.88493e-06 -2.95288e-06 1.87436)
(-1.1881e-05 -2.34814e-06 1.73378)
(-1.11407e-05 -1.60822e-06 1.50146)
(1.00078e-05 -4.34911e-06 1.44152)
(1.0612e-05 -6.33206e-06 1.66915)
(8.01718e-06 -8.01567e-06 1.80906)
(2.9546e-06 -8.88241e-06 1.87436)
(-2.95575e-06 -8.88237e-06 1.87436)
(-8.01829e-06 -8.01555e-06 1.80906)
(-1.0613e-05 -6.33179e-06 1.66915)