/*--------------------------------*- C++ -*----------------------------------*\
| =========                 |                                                 |
| \\      /  F ield         | OpenFOAM: The Open Source CFD Toolbox           |
|  \\    /   O peration     | Version:  2406                                  |
|   \\  /    A nd           | Website:  www.openfoam.com                      |
|    \\/     M anipulation  |                                                 |
\*---------------------------------------------------------------------------*/
FoamFile
{
    version     2.0;
    format      ascii;
    arch        "LSB;label=32;scalar=64";
    class       volScalarField;
    location    "150";
    object      div(phi);
}
// * * * * * * * * * * * * * * * * * * * * * * * * * * * * * * * * * * * * * //

dimensions      [0 0 -1 0 0 0 0];

internalField   nonuniform List<scalar> 
25000
(
0.105536
-0.00682264
-0.00373645
-0.00235271
-0.00117072
-0.000836605
-0.000617375
-0.00044638
-0.000500575
-0.000658238
-0.00119737
-0.000473436
-0.00139476
-0.00116068
-0.00113984
-0.000605472
-0.000560165
-0.000462597
-0.000459432
-0.000591945
0.00189003
2.07636e-05
-0.00121569
-0.0010767
-0.000902576
-0.000777044
-0.000563996
-0.000537905
-0.000511169
-0.000459013
-2.98894e-05
-0.000131485
-0.000276435
-0.00086853
-0.000849685
-0.000657433
-0.000628364
-0.000559243
-0.00046934
-0.000494144
0.000898719
0.000413528
-0.000573453
-0.000553571
-0.000635294
-0.000650707
-0.000538974
-0.000499705
-0.000555651
-0.000444507
-8.10305e-05
-8.69162e-05
4.93616e-05
-0.000476218
-0.000471504
-0.000476875
-0.000482486
-0.000527472
-0.00037827
-0.000491296
0.000269069
0.000410263
-0.000209235
-7.66575e-05
-0.000319288
-0.000292964
-0.000319502
-0.000292402
-0.000456398
-0.000380038
-7.80731e-05
7.20184e-05
0.000215662
-9.00053e-05
-0.000113814
-0.00012869
-0.000236471
-0.000259623
-0.000277855
-0.000383359
-2.06833e-05
0.000246851
8.77495e-05
-0.000134767
-7.56178e-05
-0.000271884
-8.75738e-05
-0.000255917
-0.000286409
-0.000395121
-0.000347652
-0.000315071
-0.000339611
-0.000328606
-0.000422217
-0.000293475
-0.00034581
-0.000279924
-0.000366326
-0.000486553
0.000365504
-0.000510236
-0.000925373
-0.000822225
-0.00035898
-0.000423875
-0.000280956
-0.000166989
-0.000653846
-0.000281004
0.000432449
-0.000210142
-0.000632159
-0.000463876
-0.000713711
-0.000235316
-0.000367206
-0.000394932
-0.000199849
-0.000266029
0.00193191
0.000327323
-0.000562306
-0.000442789
-0.000365724
-0.000443452
-0.00026364
-0.00017314
-0.000292127
-2.70448e-05
0.000762614
0.000183988
0.000281996
-0.000262622
-0.000348348
-0.000200732
-0.000257344
-0.000215297
-0.00010699
-3.16381e-05
0.00152333
0.000797222
-2.56892e-05
-2.38365e-06
-0.000126528
-0.000221476
-0.000150571
-0.000126695
-0.000102083
-2.82435e-05
0.00076318
0.00038137
0.000515592
9.05217e-06
-1.23536e-05
-8.28041e-05
-0.00010687
-7.9731e-05
-8.19578e-05
1.99663e-05
0.00104597
0.000731144
0.000205083
0.000319191
4.96909e-05
8.23159e-05
-7.25272e-07
-4.35908e-05
3.42543e-06
-8.33735e-06
0.000592779
0.000477286
0.000474234
0.000253739
0.00024596
0.000124166
6.64035e-05
4.90976e-05
-9.96648e-05
0.000112197
0.000623213
0.000274341
0.00041578
0.000171802
0.000224566
0.000113612
9.98423e-05
-4.50928e-05
-6.05922e-05
-0.000151022
0.000358115
9.66774e-05
7.01571e-05
4.51223e-05
-2.90546e-05
2.18657e-06
-2.03882e-05
4.6981e-05
-0.000235728
0.000141808
-0.00199871
-0.00148827
-0.00117154
-0.000930104
-0.00062639
-0.000423383
-0.000394749
-0.000149523
-0.000536921
-0.000531252
-0.00127959
-0.000838907
-0.000883301
-0.000545738
-0.000523729
-0.000199256
-0.000112561
-0.000103093
-3.6314e-05
-0.000468065
-0.000213276
-0.000512281
-0.000671165
-0.000537555
-0.000376989
-0.000268639
-0.000120343
-4.57172e-05
-9.53748e-05
-0.000220275
-0.000300427
-0.000371968
-0.000307919
-0.000417323
-0.00034925
-0.000184231
-0.000122278
-7.20781e-05
1.82149e-05
-0.000245426
0.000112269
-1.46517e-05
-0.000330301
-0.000260716
-0.000225664
-0.000198497
-3.28105e-05
1.13234e-06
-1.64543e-05
-0.00022306
5.88872e-05
-8.68944e-05
-1.68429e-05
-0.000212236
-0.000117328
-3.60979e-05
-1.80981e-06
1.86366e-05
9.00148e-05
-0.000226833
0.00032263
0.000179311
-6.31361e-05
9.6023e-05
3.18485e-05
0.00010611
0.000203122
0.0001778
0.000110484
-0.000154431
0.000277204
0.00021214
0.000194685
0.000185342
0.000206893
0.000329607
0.000249663
0.000255862
0.000162622
-5.36304e-05
0.000358346
0.000134019
0.000379563
0.000148974
0.000383796
0.000191601
0.000403545
0.000193247
0.000200431
-0.000224917
0.000285338
-4.00475e-05
2.65173e-05
1.2605e-05
-0.000118736
-1.34927e-05
-8.30103e-05
-5.65507e-05
-0.000280433
-0.000281023
0.00240661
0.00161582
0.00132224
0.00112642
0.00100202
0.00100593
0.000977185
0.00137854
0.00149475
0.000966855
0.00172553
0.00144892
0.00117329
0.00113267
0.000873988
0.0010497
0.00112478
0.00108575
0.00144661
0.00048312
0.00159919
0.00126443
0.00086432
0.000868717
0.000816398
0.000720837
0.000936101
0.00106627
0.000903771
0.000430478
0.00106965
0.000838018
0.000987163
0.000658909
0.000562861
0.000738031
0.000722419
0.00074062
0.00111676
0.000265867
0.00128065
0.00106551
0.000519139
0.000620747
0.000595903
0.000440565
0.000799054
0.000915097
0.000731314
0.000356698
0.000907786
0.000619275
0.000891771
0.000561193
0.000554751
0.000781218
0.000735298
0.000757915
0.00107401
0.000229273
0.00128083
0.00120212
0.000779729
0.000996389
0.000933152
0.00084646
0.00115386
0.00119122
0.000955358
0.000437061
0.00116023
0.00118733
0.0012915
0.00114262
0.00107137
0.00127849
0.00121419
0.00118557
0.00135658
0.000418567
0.0019209
0.0014995
0.00142249
0.00109682
0.00118769
0.00102774
0.00135956
0.00138129
0.00136142
0.000823638
0.00119579
0.00055801
0.00030605
0.000255887
0.000182903
0.000383955
0.000547122
0.000594068
0.0010626
0.000186963
0.000939362
0.00117232
0.000827958
0.000672252
0.000507888
0.000868308
0.00070731
0.00133451
0.00173024
0.000132402
0.000533752
0.00109056
0.000890689
0.000799742
0.000664218
0.000807473
0.00111965
0.00110869
0.00142882
-3.74117e-05
9.14244e-05
0.000803662
0.000649709
0.000621702
0.00060584
0.000645747
0.000906939
0.00104726
0.000881356
-0.000213064
-7.39416e-05
0.000510935
0.000640443
0.000462802
0.000436466
0.000651755
0.000751544
0.000753113
0.00104596
-0.000327967
5.88017e-05
0.000656643
0.000314474
0.000442913
0.000492572
0.000405795
0.000868523
0.000932319
0.00064489
-0.000177314
-8.36362e-05
0.000324039
0.00067011
0.000474943
0.000494089
0.000834856
0.000816354
0.000804789
0.00106099
-0.000301802
0.000286707
0.00106281
0.000728834
0.000975736
0.00100363
0.000911602
0.00138655
0.00131347
0.000943478
2.57228e-05
0.000551662
0.00106939
0.00137201
0.0012042
0.00112359
0.00150851
0.00133631
0.00138924
0.00150754
-8.87986e-05
0.00144352
0.00180407
0.00143816
0.00119824
0.00130269
0.00104076
0.00167125
0.0015269
0.00152215
0.000772759
0.000634709
0.000597045
0.000209324
0.000198073
0.00010869
0.000411948
0.000501774
0.00049804
0.00126824
-0.000538462
0.00111341
0.00126016
0.000903293
0.000894957
0.000728181
0.000831805
0.000665741
0.00128061
0.00114637
0.000369332
0.000709845
0.00100312
0.00102035
0.000802833
0.000543416
0.000814621
0.000865244
0.000745931
0.00141393
0.000121307
0.00066534
0.00114629
0.000715242
0.00075403
0.000741896
0.000544129
0.000876465
0.00112403
0.000692228
0.00014613
0.000477493
0.000710285
0.00100117
0.000695978
0.000564204
0.000845945
0.000781487
0.000694827
0.0011808
-5.98435e-06
0.000650689
0.00106215
0.0005844
0.000714439
0.000739107
0.000500173
0.000938355
0.00106714
0.000643089
0.000183839
0.000472455
0.000590466
0.000984677
0.000721523
0.000668167
0.000994592
0.000889847
0.00081041
0.00115377
3.13581e-05
0.000744685
0.0012809
0.000916715
0.0011399
0.00113735
0.000976168
0.00135195
0.00134955
0.000920504
0.000295523
0.000884646
0.0011852
0.00144464
0.00128595
0.00118097
0.0014702
0.0013298
0.00126984
0.00141335
0.000189068
0.00154981
0.00165737
0.00142663
0.0011701
0.0012404
0.00102391
0.00145502
0.0013893
0.0013084
0.00076204
0.000843729
0.000642368
0.000310729
0.000262166
0.000166391
0.000382455
0.00047187
0.000471819
0.00101812
-0.000200102
-0.00106311
-0.000361447
-0.000597951
-0.00039764
-0.000372935
-0.000182943
-0.000187658
0.000387069
0.000107402
-0.000264763
-0.000768119
-0.000316609
-8.29184e-05
-0.000210468
-0.000261317
9.42166e-05
0.000148843
7.23665e-05
0.000746181
-0.00019545
-0.000366873
0.000180625
-0.000141402
-1.5286e-05
0.000110448
-1.22213e-05
0.000333284
0.000616219
0.00020089
-5.12087e-05
-0.000214001
2.57786e-05
0.000293671
0.000143643
0.00010543
0.000432662
0.000390866
0.000305161
0.000738444
-0.000117934
4.87908e-05
0.000451499
0.000140181
0.000278605
0.000382253
0.000222226
0.000574406
0.00071687
0.000329389
8.14844e-05
5.09313e-05
0.000193144
0.000496198
0.000376994
0.000363813
0.000670164
0.000597419
0.000505135
0.000774631
-1.04656e-05
0.000248711
0.000710139
0.000517847
0.000683684
0.000760853
0.000646525
0.000915725
0.000941971
0.000574371
0.00018168
0.000414333
0.000676578
0.000884997
0.000841604
0.000783828
0.00101807
0.000928865
0.000842655
0.000930005
0.000104561
0.000814534
0.000997823
0.000889672
0.000759956
0.00083424
0.000697784
0.000964139
0.000913745
0.000809
0.000461437
0.000384264
0.000359266
0.000204473
0.000201958
0.00015511
0.000288087
0.00031225
0.000268891
0.000560558
-0.000220948
0.00122402
0.000934012
0.000658771
0.000868224
0.000791976
0.000637335
0.000582373
0.000954785
0.000522462
0.000714014
0.000896488
0.000659831
0.000959721
0.000649973
0.000365163
0.000682868
0.000419781
0.000279573
0.00102414
0.000354149
0.0011481
0.00117678
0.000561077
0.000730775
0.000726183
0.000326515
0.000648235
0.000861213
0.000318301
0.000485922
0.000866158
0.000625011
0.00109161
0.000738535
0.000551171
0.000825601
0.000564607
0.000426392
0.000937233
0.000324545
0.00109465
0.0011252
0.000631212
0.000778689
0.000785734
0.000441296
0.000726049
0.000863755
0.000402158
0.000504404
0.00085956
0.000613401
0.000991044
0.00075664
0.000632596
0.000866696
0.000675403
0.000533203
0.000879117
0.000357122
0.00103715
0.00110215
0.000818721
0.000940053
0.000939889
0.000720175
0.000873688
0.000970158
0.000566522
0.000498627
0.0010054
0.00092749
0.00109334
0.000980998
0.000870378
0.000962047
0.000914695
0.0007224
0.000907266
0.000414628
0.00132989
0.00109356
0.000957731
0.000807553
0.000760993
0.000699162
0.000750108
0.00086173
0.000687901
0.000610706
0.000976186
0.000527537
0.000348186
0.000266301
0.000229805
0.000276728
0.00036767
0.000348049
0.000570707
0.000256459
-0.00289067
-0.0016186
-0.00149715
-0.00106791
-0.000838832
-0.000464978
-0.000360441
1.67359e-05
-0.000150471
-0.000441137
-0.00196799
-0.00118737
-0.000819265
-0.000756845
-0.000581535
-0.000250745
-0.000127793
-6.89255e-05
0.000229382
-0.00027212
-0.00124535
-0.000614828
-0.000674408
-0.000458369
-0.000256984
-0.000209885
7.13234e-05
0.000219156
1.06757e-05
-0.000150087
-0.00092253
-0.000502392
-0.000243071
-0.00022215
-0.000137807
0.000128218
0.000130456
0.000122574
0.000306359
-0.000156631
-0.000574276
-0.000107864
-0.00019399
-2.5379e-05
0.000107989
6.20507e-05
0.000304519
0.000366675
0.000105662
-1.11029e-05
-0.000479168
-0.000148314
0.000104769
0.000120123
0.000148165
0.000376692
0.000332025
0.000270811
0.000396143
-4.86269e-05
-0.000278502
0.000229578
0.000194118
0.000316589
0.000422772
0.000356506
0.000532711
0.000544629
0.000279377
9.62763e-05
-3.85528e-05
0.000237262
0.000442805
0.000453038
0.000432567
0.000601595
0.000544526
0.000495426
0.000516725
8.30165e-05
0.000119956
0.000527615
0.000425229
0.000430541
0.000470769
0.000407624
0.000568795
0.000531134
0.000451477
0.000257159
0.000140427
0.000226224
0.000215081
0.0002238
0.00021967
0.000297982
0.000300727
0.000268122
0.000381759
7.81126e-06
0.00381581
0.00266542
0.00230173
0.002197
0.00190981
0.00168293
0.0014486
0.00156049
0.00153906
0.00152285
0.00222798
0.00163894
0.00160002
0.00141353
0.00105169
0.00108519
0.000908512
0.000853558
0.000972419
0.000709762
0.00188708
0.00153442
0.00115783
0.00118302
0.00102345
0.000769224
0.000838234
0.000798321
0.000613828
0.000583422
0.00123632
0.000960541
0.00125455
0.000959838
0.000783892
0.000784993
0.000608865
0.000570111
0.000687114
0.00041532
0.00119541
0.00107995
0.000775305
0.000846936
0.000738776
0.000514277
0.000630707
0.000615321
0.000399389
0.000441037
0.000855585
0.000637028
0.000912834
0.000705598
0.000613108
0.000645977
0.000515998
0.000453797
0.000596068
0.000318475
0.000911199
0.000892156
0.000681462
0.000793628
0.000681228
0.000558689
0.000651653
0.000657754
0.000435014
0.000426426
0.000819766
0.000714514
0.000845616
0.000717294
0.000636089
0.000701455
0.00061487
0.000589079
0.000674049
0.000410494
0.00101776
0.000790353
0.000709054
0.000561235
0.000574714
0.000457672
0.000629341
0.000648604
0.00061213
0.00057987
0.000922603
0.000528984
0.000355976
0.000314399
0.000247978
0.000353011
0.000427014
0.000511324
0.000740468
0.000619248
-6.39977e-05
0.000350076
0.000582827
0.000432828
0.00046351
0.000761179
0.000685586
0.000717496
0.00108292
0.000496119
1.47587e-06
0.000385881
0.000105071
0.000333038
0.000455966
0.000277838
0.000601841
0.000717535
0.00022294
0.000244087
-0.000156626
-8.65109e-05
0.000331523
0.000217486
0.000182128
0.000485199
0.000353264
0.000222663
0.00052857
4.23726e-05
5.74349e-05
0.000196719
-3.2031e-05
0.000136618
0.000251053
9.8353e-05
0.000308167
0.000435167
6.57281e-05
6.81421e-05
-5.38112e-07
-9.57883e-05
0.000135577
0.000107193
8.05716e-05
0.000270909
0.000244809
0.000114734
0.000289168
-3.18831e-05
0.000114799
0.000130286
3.85771e-05
0.000109828
0.00019098
0.000116447
0.000211076
0.000317108
7.51775e-05
6.64434e-06
0.000225699
7.31986e-05
0.000139417
0.000175842
0.000126624
0.000224142
0.000301751
0.000151393
0.000256214
2.10273e-05
0.000352904
0.000198764
0.000198668
0.000175614
0.000194077
0.000265247
0.00018736
0.000374728
0.000192083
7.72582e-05
0.000506388
0.000291618
0.000244292
0.000219693
0.000272751
0.000178408
0.000407056
0.000231415
0.000349107
0.000139427
0.000662505
0.000371347
0.000315263
0.000327898
0.000275491
0.000359197
0.000318519
0.000371286
0.000441647
0.000218488
0.0030461
0.00224019
0.00241536
0.00199235
0.00168979
0.00179496
0.00145477
0.00124507
0.00199637
0.00117837
0.00190523
0.00182435
0.00122694
0.00136596
0.00131546
0.000786365
0.00113379
0.00125651
0.000296803
0.000576171
0.000864063
0.000735054
0.00126792
0.000938072
0.000682919
0.00102124
0.000609518
0.000274709
0.000887747
0.000145055
0.00060647
0.000840573
0.000430445
0.00060587
0.000644804
0.000198688
0.000474781
0.000651726
-4.59225e-05
0.000198228
0.000131096
0.000132828
0.000519013
0.00035707
0.000197209
0.00046023
0.000252303
-1.29041e-05
0.000431956
-5.59932e-05
0.000183786
0.000336059
0.00013288
0.000241893
0.000287416
2.33604e-05
0.000167627
0.000358264
-9.56511e-05
3.80318e-05
4.14019e-05
6.85753e-05
0.000207345
0.000160175
3.40468e-05
0.000173926
0.000187609
-6.84972e-05
0.00026716
-2.36989e-05
0.000258419
0.000130523
0.000138663
6.70713e-05
8.56774e-05
7.99401e-05
-1.07514e-05
0.000305538
3.23835e-05
7.30887e-05
0.00022651
0.000276218
8.66221e-05
0.000129291
0.000112803
3.73814e-05
0.000294393
6.56117e-05
0.000319691
0.000116199
0.000555567
0.000326688
0.000300069
0.000272659
0.000230018
0.000313203
0.000274555
0.000390929
0.00048482
0.000304689
0.00330968
0.00227249
0.00247145
0.00201198
0.00185733
0.00186334
0.00165139
0.00139216
0.00204761
0.00152455
0.00257678
0.00206727
0.00135409
0.00154901
0.00143201
0.000963849
0.00123441
0.00130749
0.000511201
0.0008513
0.0016971
0.0010082
0.0014272
0.00109037
0.000839695
0.00110954
0.00072904
0.000466745
0.00098403
0.000480891
0.00144165
0.00109802
0.000656295
0.000752608
0.000757709
0.000349173
0.000591555
0.00074363
0.000190998
0.000493172
0.00105555
0.000439974
0.000681524
0.0005109
0.00033306
0.000553502
0.000356356
0.000165528
0.000567915
0.000250757
0.000979037
0.000593802
0.000351356
0.000353643
0.000407641
0.000136715
0.000278496
0.000459483
9.74863e-05
0.000310885
0.00093538
0.000298594
0.000341751
0.000325144
0.000141927
0.000293112
0.000274823
8.73379e-05
0.000397601
0.000228201
0.00084527
0.000399244
0.000267588
0.000200617
0.000220458
0.000183679
0.000128722
0.000387165
0.000174174
0.000304396
0.00100844
0.000285057
0.000316687
0.000221813
0.00025258
0.000173194
0.000356002
0.000201495
0.000396676
0.000303499
0.00100385
0.000440766
0.000336805
0.00033429
0.000274541
0.000346116
0.000344674
0.000460133
0.000547265
0.000518526
-0.000425773
2.89406e-05
0.000147575
-0.00011351
-0.00018691
0.000203895
6.84676e-05
1.85431e-05
0.000655178
-0.00029808
-0.00055305
-9.06326e-05
-0.000575078
-0.00018774
-6.36719e-06
-0.000245021
0.000262984
0.000431186
-0.000373404
-0.000287407
-0.000784916
-0.000694626
-8.94279e-05
-0.00032721
-0.000340216
0.000169663
-9.97244e-05
-0.000290603
0.000249411
-0.000532734
-0.00055925
-0.000164169
-0.000625806
-0.000329958
-0.000156339
-0.000417278
-3.54617e-05
0.000115556
-0.000472921
-0.000395836
-0.000739925
-0.000644373
-0.000238322
-0.000361737
-0.000393845
-3.49198e-05
-0.000174775
-0.00036428
-6.67548e-06
-0.000563658
-0.000560202
-0.000241986
-0.000472391
-0.000327201
-0.00018076
-0.000354504
-0.000144703
-4.78238e-06
-0.00041662
-0.000450336
-0.000591267
-0.000436745
-0.000290893
-0.000275618
-0.000349383
-0.000125567
-8.32839e-05
-0.000329775
-7.78319e-05
-0.000471323
-0.000376672
-0.000285416
-0.000292656
-0.000294206
-0.000222667
-0.000128192
-0.000253741
5.90286e-05
-0.000269542
-0.000393028
-0.000370727
-0.00017597
-0.000202617
-0.000202272
-6.09005e-05
-0.000229107
0.000139623
-0.000221226
2.33616e-05
-0.000314168
-0.000180879
-5.25406e-05
-4.55857e-05
3.08858e-05
-5.04918e-05
8.04356e-05
-6.08179e-05
-1.4764e-06
1.73537e-05
-0.000353978
0.00437233
0.00283995
0.00252833
0.00220079
0.00193781
0.00157735
0.00145544
0.00128416
0.00139056
0.00159314
0.00293898
0.00197308
0.00168527
0.00158488
0.00122756
0.00112181
0.000951278
0.000877228
0.000863365
0.000970971
0.00241574
0.00162805
0.00140495
0.00128947
0.00109545
0.000899187
0.000809487
0.000768147
0.000747414
0.000881546
0.00185629
0.00123378
0.00127088
0.00105867
0.000882579
0.000757062
0.000682863
0.000665268
0.000686459
0.000808935
0.00168718
0.00113265
0.000945337
0.000896311
0.000748796
0.000640434
0.000588262
0.000593689
0.000650166
0.000735
0.00140857
0.000866403
0.000904453
0.000729932
0.000660633
0.000538618
0.000532512
0.000580363
0.0005615
0.000726313
0.00138706
0.000841755
0.000695743
0.000710594
0.00054076
0.000536982
0.000499098
0.000491881
0.000610722
0.000654943
0.00114396
0.000738966
0.000671221
0.000566578
0.000542941
0.000448619
0.00046128
0.000528676
0.000511649
0.00068906
0.00128448
0.000555159
0.000608152
0.000481444
0.000440547
0.000438242
0.000430708
0.000473375
0.000538356
0.000624785
0.00106509
0.000527029
0.000411459
0.000376457
0.000361085
0.00038275
0.00047262
0.000576658
0.00065835
0.000823364
-0.00286908
-0.0017682
-0.00156371
-0.00138699
-0.00118155
-0.000897938
-0.000752826
-0.000555467
-0.000672811
-0.000783079
-0.00185537
-0.00121268
-0.00106033
-0.000949637
-0.000753973
-0.0005585
-0.00043445
-0.000416124
-0.000230516
-0.000474221
-0.0014374
-0.000919611
-0.000780815
-0.000710199
-0.000531086
-0.00043669
-0.000298778
-0.000156742
-0.000287774
-0.000325466
-0.000929845
-0.000629713
-0.000623804
-0.000483465
-0.000387033
-0.000216024
-0.000138362
-0.000176657
-6.29287e-05
-0.000267575
-0.000784411
-0.000485695
-0.000393898
-0.000337954
-0.000212238
-0.000153244
-6.41764e-05
1.67097e-05
-9.96701e-05
-0.000184185
-0.000559195
-0.000325101
-0.000299351
-0.000211115
-0.000141919
-3.18476e-05
3.24542e-05
-2.30469e-06
2.10797e-05
-0.000154611
-0.000491543
-0.000237079
-0.000178534
-0.000128058
-4.99264e-05
7.68679e-06
7.67975e-05
8.21647e-05
2.06954e-05
-0.000116951
-0.000337192
-0.000170187
-0.00011427
-5.40799e-05
-1.04281e-05
9.72482e-05
7.6739e-05
0.000121283
4.80523e-05
-0.000102487
-0.000337958
-8.69484e-05
-5.21846e-05
-1.95567e-05
7.37944e-05
2.59924e-05
0.000156191
4.92551e-05
7.2161e-05
-6.5566e-05
-0.000299412
-8.48888e-05
-2.06701e-05
4.47443e-05
4.17034e-05
9.43398e-05
3.69409e-05
1.27477e-05
-1.10902e-05
-0.000198492
0.00137349
0.000618241
0.000339494
0.000534115
0.000517395
0.000183784
0.000227853
0.000364589
-0.000220138
0.000490308
0.000981859
0.000255415
0.000588708
0.000287869
-1.20577e-05
0.000349416
-0.000106234
-0.00027503
0.000547015
0.000242214
0.0011535
0.000851163
0.000175346
0.000359248
0.000390809
-0.000114639
0.000199605
0.000435963
-0.000182947
0.000476457
0.000865175
0.000291389
0.000742569
0.000398925
0.000188366
0.00048982
0.000146975
-4.72894e-05
0.000590005
0.000315833
0.00103588
0.00081276
0.000318544
0.000438277
0.000458557
8.78201e-05
0.000278595
0.000500364
3.66613e-05
0.000504855
0.000797291
0.00033479
0.000621658
0.000389014
0.000274478
0.000454947
0.000282849
9.99892e-05
0.000536236
0.000359167
0.000893346
0.000642706
0.000388426
0.000471664
0.00046128
0.000289704
0.000310332
0.00052366
0.000176541
0.000438621
0.000652463
0.000480782
0.000501298
0.000462159
0.000391466
0.000409719
0.000439439
0.000206352
0.000459709
0.000363613
0.000852926
0.000352626
0.000457074
0.000296272
0.000309977
0.000297189
0.000199479
0.00039778
0.000208994
0.000406457
0.000531514
0.000178544
6.64962e-05
3.99474e-05
2.27252e-05
1.9044e-05
0.000108297
0.000100247
0.000175628
0.000338895
-0.00213488
-0.00141509
-0.0016415
-0.00118671
-0.00100674
-0.00100278
-0.000830147
-0.000496364
-0.00110031
-0.000613424
-0.00160817
-0.00151222
-0.000939645
-0.0010591
-0.001064
-0.000501627
-0.000761647
-0.000821963
-9.41995e-06
-0.000455256
-0.000667388
-0.000475931
-0.0010169
-0.000699177
-0.000466226
-0.000763688
-0.000322254
-4.19825e-05
-0.000624099
-0.000151283
-0.000448754
-0.000655311
-0.000200841
-0.000400038
-0.000449742
-1.40917e-05
-0.000260137
-0.000409379
0.000176384
-0.000231891
1.39623e-06
5.62746e-05
-0.000346537
-0.00016587
-2.83445e-05
-0.000290587
-2.51603e-05
0.000182637
-0.000309473
1.55419e-05
-4.55303e-05
-0.000205929
7.3442e-05
-5.99239e-05
-0.000101008
0.000174125
3.33277e-05
-0.000159729
0.00023722
-9.44003e-05
0.000153423
0.000179485
-4.2606e-06
9.78229e-05
0.00018409
4.82188e-05
0.000124148
0.000305931
-0.000104881
4.46923e-05
7.28595e-05
0.000108155
0.000175601
0.000194072
0.000152229
0.000258715
0.000256038
2.62907e-05
0.000223928
-2.88869e-05
0.000246192
0.000105291
0.000193895
9.62185e-05
0.000168651
0.000121252
9.52777e-05
0.00019857
-6.51262e-06
6.87643e-05
7.90849e-05
-1.73386e-05
-6.555e-05
-4.79917e-05
-7.10412e-05
-6.28369e-05
-5.90986e-05
-0.000137972
-0.000120353
-0.000126644
-0.000648821
-0.000507768
-0.000759502
-0.000365389
-0.000280024
-0.000391917
-0.000283539
-7.2769e-05
-0.000580488
-5.30597e-05
-0.000621991
-0.00078329
-0.000248797
-0.000451845
-0.000548088
-0.000100243
-0.000426992
-0.00046841
0.000211543
-5.47515e-05
4.19925e-05
8.44435e-05
-0.000509921
-0.000210577
-7.58207e-05
-0.000425774
-4.99172e-05
0.000140401
-0.000334264
0.000167959
-2.10357e-05
-0.000274513
0.000225972
-3.99321e-05
-0.000139534
0.000204004
-8.65499e-05
-0.000186594
0.000314502
7.38719e-05
0.000345277
0.000383445
-5.43139e-05
0.00011606
0.000189259
-0.000107354
0.000118763
0.000274594
-0.000108958
0.000266832
0.000210805
2.19151e-05
0.000327988
0.000165175
7.26914e-05
0.000293393
0.000115831
-2.18755e-05
0.000334101
0.000169355
0.000369805
0.000400723
0.000201314
0.000263877
0.000321146
0.000140051
0.000184017
0.000355842
3.98034e-05
0.000267859
0.000288845
0.000279353
0.000355711
0.000329095
0.000264029
0.000279433
0.000312724
8.07218e-05
0.000309891
0.000223834
0.000432781
0.000298288
0.000295126
0.00023295
0.000185595
0.0002252
8.33698e-05
0.00028628
9.17765e-05
0.000259954
0.000304817
0.000115046
5.81193e-05
1.33624e-05
3.46863e-05
3.79459e-06
8.6726e-05
5.76599e-05
9.34103e-05
0.000241095
-3.47535e-05
-2.23001e-05
-0.000204236
4.29645e-05
3.02039e-05
-5.48971e-05
-6.93856e-05
6.23923e-05
-0.000189209
8.75297e-06
-0.000381168
-0.00042647
-8.63401e-05
-0.000210821
-0.000265697
-1.79673e-05
-0.000189859
-0.000191281
0.000118442
-5.12288e-05
-2.64648e-05
5.24149e-05
-0.00030716
-9.90131e-05
-3.38112e-05
-0.000213724
2.33366e-06
6.37114e-05
-0.000165892
2.59871e-05
-0.000218547
-0.000220058
0.000126357
-4.18697e-05
-8.43629e-05
0.000101634
-6.79697e-05
-9.55811e-05
0.000126677
-3.44493e-05
9.41137e-06
0.000160818
-9.45228e-05
3.83835e-05
7.68462e-05
-8.82205e-05
6.03528e-05
0.000108792
-0.000103533
6.74775e-05
-0.000145803
-9.45059e-05
0.000142472
5.50098e-05
5.66685e-06
0.000143822
2.49995e-05
-4.4764e-05
0.00014165
2.48284e-06
-6.58611e-05
0.000170021
5.52534e-05
0.000110261
0.000158644
3.99311e-05
9.56041e-05
0.000173569
-3.20435e-05
8.44793e-05
-7.62278e-05
5.90823e-05
0.000176213
0.000154691
0.000111503
0.000152085
0.000151301
2.4205e-05
0.000158742
5.56319e-05
-3.88415e-05
0.000175867
9.94828e-05
0.000101
7.32513e-05
9.06537e-05
4.38814e-05
0.000151698
3.32757e-05
0.000112789
-8.61074e-06
5.37508e-07
-4.34228e-06
-2.7969e-05
-3.32433e-06
-9.19078e-06
3.51366e-05
8.01063e-06
4.87407e-05
8.45614e-05
0.000163675
-0.000230851
-0.000102178
-0.000146799
1.14673e-05
5.87503e-05
6.92318e-05
0.000114174
0.000184174
7.48309e-05
0.000456752
-6.57092e-05
-0.000248614
-2.97848e-05
-6.57201e-05
2.40535e-05
6.4905e-05
0.000114644
1.99737e-05
3.69772e-05
0.000626146
-8.56345e-05
-0.000110954
-0.000101888
-7.39779e-05
-6.75694e-06
1.79404e-05
-2.60648e-05
5.77414e-05
-3.15612e-05
0.000573029
-5.72833e-06
-6.61386e-05
-0.000114126
-7.84343e-05
-7.72271e-05
-5.34596e-05
1.07054e-05
-6.44509e-05
-4.40761e-05
0.000711125
3.05811e-05
-8.81499e-05
-7.97235e-05
-0.000111558
-7.21872e-05
-5.23673e-05
-8.57377e-05
-3.4075e-05
-6.77213e-05
0.000564011
4.98015e-05
-4.37438e-06
-0.000132467
-5.90607e-05
-0.000111342
-7.65423e-05
-4.41807e-05
-7.66365e-05
-7.45778e-05
0.000782471
4.49339e-05
-9.73792e-05
-1.59295e-05
-0.000133828
-4.38254e-05
-3.68891e-05
-6.41624e-05
-3.35614e-05
-6.31106e-05
0.000479156
0.000109746
-4.16101e-05
-7.59945e-05
-4.99139e-05
-1.15558e-05
-5.02827e-05
2.47169e-05
-3.64828e-05
-3.97149e-05
0.000784889
-0.000114501
9.14742e-05
-0.000102033
4.79461e-05
-6.70753e-05
6.96683e-05
-2.25993e-05
3.13987e-05
-2.5218e-05
0.000499937
8.5419e-05
-3.6731e-05
1.33758e-05
-5.52201e-05
1.23302e-05
-4.72438e-06
3.46766e-05
7.02741e-05
2.32208e-05
0.000406019
-6.82677e-05
0.000267522
-1.13354e-05
4.76117e-05
0.000179226
4.06856e-05
-7.89477e-05
0.000393326
-0.000183425
0.000517367
0.000202433
-0.000305703
0.000108136
0.000161603
-5.97633e-05
0.000232963
0.000322799
-0.000333081
-0.000129899
0.000164333
-0.000420445
4.58502e-05
-0.000134382
-0.000179402
0.000177725
-8.65248e-05
-0.000305093
0.000161514
-0.000385812
7.9422e-05
-5.45007e-05
-0.000445238
-0.000245192
-0.000108555
-0.000369126
-0.000117715
1.82857e-05
-0.000484792
-0.000307075
-0.000102036
-0.000515046
-0.00021322
-0.000320276
-0.000390865
-0.000100014
-0.00026646
-0.000444806
-0.000102353
-0.000473806
-0.000119821
-0.000197825
-0.000459409
-0.000407586
-0.000239233
-0.000470772
-0.000284166
-0.000166329
-0.000491387
-0.000404875
-0.000170308
-0.000558589
-0.000470431
-0.000417229
-0.000562224
-0.000295032
-0.000316705
-0.000494378
-0.00023183
-0.000456858
-0.000331447
-0.000447664
-0.000594121
-0.000554637
-0.000451879
-0.000369073
-0.00046641
-0.000177536
-0.000450252
-0.000426918
-0.000406611
-0.000737057
-0.000441208
-0.000538766
-0.000241726
-0.00044268
-9.76575e-05
-0.000439954
-0.000213441
-0.000403284
-0.000287252
-0.000107372
-0.000189723
-7.25147e-05
-0.000183798
-6.64586e-05
-0.000221063
-0.000187087
-0.000196987
-0.000384265
0.0015202
0.00099076
0.00125452
0.000777754
0.000790909
0.000768261
0.000688297
0.000275517
0.000984327
0.000695969
0.00169381
0.00113228
0.000475275
0.000837282
0.000866125
0.000407867
0.000646424
0.00076917
-0.000102378
0.000757213
0.00108888
0.000213718
0.000772917
0.000480499
0.000322968
0.000689231
0.000238747
-4.22082e-05
0.0006838
0.00042437
0.000947485
0.000561916
1.45864e-05
0.000254949
0.000363677
-9.02192e-05
0.000207679
0.000441743
-0.000247074
0.000545682
0.000558536
-0.000170723
0.000267646
6.44177e-05
-8.27671e-05
0.000285481
-6.64619e-05
-0.000289367
0.000438232
0.000200805
0.000518915
0.000206521
-0.000212882
-9.03442e-05
4.43673e-05
-0.000365668
-0.000119041
0.000167882
-0.000368056
0.000385261
0.00025395
-0.000471042
-0.000245975
-0.000314185
-0.000492169
-0.00017818
-0.000365913
-0.000578712
0.000103265
6.70742e-05
-2.61747e-05
-0.000390185
-0.000593265
-0.000545851
-0.000393176
-0.000574502
-0.000546989
-0.000195623
-0.000550819
0.000197317
-0.000384541
-0.000882564
-0.000562492
-0.000453456
-0.000362898
-0.000327166
-0.000334008
-0.000569556
-0.000332137
-0.000136825
-0.000214095
1.48652e-05
6.80419e-05
0.000121293
0.000154238
0.000143296
6.16739e-05
0.000231856
-4.70699e-05
0.000411689
-0.00120787
-0.000851143
-0.000538972
-0.000961402
-0.000834453
-0.000645523
-0.000660831
-0.0010844
-0.000353266
-0.000590785
-0.000520343
-0.000396702
-0.000953273
-0.000459237
-0.000115323
-0.00063065
-0.000195554
-7.88532e-05
-0.00116804
-6.23771e-05
-0.000872071
-0.00117268
-0.000275205
-0.000576333
-0.000609911
-4.32616e-06
-0.000551881
-0.000815815
-2.49835e-05
-0.00027881
-0.000556698
-0.000347183
-0.00108107
-0.000583669
-0.000328285
-0.00079641
-0.000346327
-0.000117401
-0.000980921
-5.11207e-05
-0.000910052
-0.00115158
-0.000434525
-0.000662297
-0.000711205
-0.000172364
-0.000604122
-0.000861318
-5.49089e-05
-0.00040077
-0.000647248
-0.000454277
-0.000985695
-0.000656932
-0.000458521
-0.000852353
-0.000553449
-0.000269693
-0.000949612
-0.000131225
-0.000951763
-0.00120259
-0.00077521
-0.000891971
-0.000936675
-0.000588257
-0.000816783
-0.00109083
-0.000391367
-0.000469526
-0.000925935
-0.00100616
-0.00115199
-0.00100322
-0.000813329
-0.00100131
-0.000977232
-0.000687161
-0.00112418
-0.000318841
-0.00133961
-0.00134872
-0.00108988
-0.000802844
-0.000751539
-0.000665636
-0.00078131
-0.00108479
-0.000947932
-0.000641602
-0.000897372
-0.00047566
-0.000253337
-0.000169838
-9.15959e-05
-0.000171082