/*--------------------------------*- C++ -*----------------------------------*\
| =========                 |                                                 |
| \\      /  F ield         | OpenFOAM: The Open Source CFD Toolbox           |
|  \\    /   O peration     | Version:  2406                                  |
|   \\  /    A nd           | Website:  www.openfoam.com                      |
|    \\/     M anipulation  |                                                 |
\*---------------------------------------------------------------------------*/
FoamFile
{
    version     2.0;
    format      ascii;
    arch        "LSB;label=32;scalar=64";
    class       volScalarField;
    location    "150";
    object      magR;
}
// * * * * * * * * * * * * * * * * * * * * * * * * * * * * * * * * * * * * * //

dimensions      [0 2 -2 0 0 0 0];

internalField   nonuniform List<scalar> 
25000
(
4.49081e-05
4.22521e-05
3.78484e-05
3.73318e-05
3.70364e-05
3.70561e-05
3.74121e-05
3.80867e-05
4.16029e-05
4.35739e-05
4.22709e-05
4.01875e-05
3.67901e-05
3.50329e-05
3.41933e-05
3.4219e-05
3.51151e-05
3.6956e-05
4.03925e-05
4.16192e-05
3.7866e-05
3.68176e-05
3.41957e-05
3.2614e-05
3.18544e-05
3.18718e-05
3.267e-05
3.42869e-05
3.69444e-05
3.81105e-05
3.73418e-05
3.50398e-05
3.26178e-05
3.10499e-05
3.02793e-05
3.02925e-05
3.1086e-05
3.26761e-05
3.51293e-05
3.74423e-05
3.70402e-05
3.41957e-05
3.18545e-05
3.02797e-05
2.95026e-05
2.95104e-05
3.03017e-05
3.1892e-05
3.42484e-05
3.70961e-05
3.70557e-05
3.42169e-05
3.18693e-05
3.02888e-05
2.95088e-05
2.95138e-05
3.03032e-05
3.18924e-05
3.42481e-05
3.70948e-05
3.74088e-05
3.51095e-05
3.26629e-05
3.10814e-05
3.02995e-05
3.03026e-05
3.10906e-05
3.26775e-05
3.51287e-05
3.74384e-05
3.80812e-05
3.69314e-05
3.42792e-05
3.26717e-05
3.18871e-05
3.18893e-05
3.2678e-05
3.42892e-05
3.69437e-05
3.81044e-05
4.15908e-05
4.03818e-05
3.69516e-05
3.51218e-05
3.42423e-05
3.42441e-05
3.51266e-05
3.69596e-05
4.03914e-05
4.16112e-05
4.3571e-05
4.16215e-05
3.81035e-05
3.74354e-05
3.70909e-05
3.70917e-05
3.74374e-05
3.81054e-05
4.1619e-05
4.35787e-05
6.2154e-05
5.876e-05
5.39683e-05
5.34096e-05
5.30055e-05
5.30173e-05
5.34683e-05
5.43272e-05
5.81899e-05
5.99563e-05
5.88449e-05
5.49044e-05
5.27889e-05
5.18886e-05
5.12988e-05
5.13164e-05
5.19417e-05
5.29661e-05
5.5181e-05
5.8207e-05
5.40249e-05
5.28726e-05
5.09631e-05
5.01824e-05
4.97677e-05
4.97783e-05
5.02235e-05
5.10243e-05
5.29054e-05
5.4353e-05
5.34259e-05
5.19027e-05
5.01952e-05
4.92772e-05
4.88107e-05
4.8824e-05
4.92998e-05
5.02222e-05
5.19494e-05
5.34944e-05
5.30124e-05
5.13085e-05
4.97705e-05
4.88161e-05
4.83674e-05
4.83724e-05
4.88273e-05
4.97949e-05
5.13371e-05
5.30433e-05
5.30189e-05
5.1319e-05
4.97804e-05
4.88187e-05
4.83719e-05
4.8376e-05
4.88289e-05
4.97954e-05
5.13379e-05
5.30403e-05
5.34675e-05
5.19421e-05
5.02157e-05
4.92993e-05
4.88314e-05
4.88335e-05
4.93054e-05
5.02253e-05
5.19507e-05
5.34854e-05
5.43196e-05
5.2906e-05
5.10246e-05
5.02294e-05
4.97937e-05
4.9795e-05
5.02327e-05
5.10286e-05
5.29081e-05
5.43382e-05
5.81562e-05
5.51811e-05
5.29666e-05
5.19497e-05
5.13347e-05
5.1336e-05
5.19533e-05
5.29706e-05
5.51801e-05
5.81793e-05
5.99575e-05
5.82274e-05
5.43468e-05
5.34862e-05
5.30386e-05
5.30395e-05
5.34879e-05
5.43465e-05
5.82115e-05
5.99623e-05
5.63824e-05
5.15225e-05
4.89999e-05
4.79365e-05
4.73778e-05
4.73811e-05
4.79725e-05
4.92865e-05
5.1587e-05
5.51914e-05
5.15929e-05
4.79279e-05
4.7164e-05
4.65142e-05
4.60276e-05
4.6033e-05
4.65384e-05
4.73282e-05
4.81971e-05
5.15765e-05
4.90224e-05
4.72448e-05
4.5918e-05
4.52096e-05
4.47647e-05
4.477e-05
4.52371e-05
4.59539e-05
4.72394e-05
4.92845e-05
4.79294e-05
4.65094e-05
4.52151e-05
4.44511e-05
4.39889e-05
4.40013e-05
4.44662e-05
4.52257e-05
4.65282e-05
4.79689e-05
4.7373e-05
4.602e-05
4.47569e-05
4.39917e-05
4.36e-05
4.36036e-05
4.39962e-05
4.47718e-05
4.60302e-05
4.73733e-05
4.73771e-05
4.60262e-05
4.47627e-05
4.39887e-05
4.36009e-05
4.36038e-05
4.39954e-05
4.47707e-05
4.603e-05
4.73706e-05
4.79702e-05
4.65294e-05
4.52191e-05
4.44602e-05
4.3999e-05
4.40005e-05
4.44642e-05
4.52239e-05
4.65273e-05
4.796e-05
4.92776e-05
4.72437e-05
4.59487e-05
4.52318e-05
4.47681e-05
4.47688e-05
4.52341e-05
4.59503e-05
4.72378e-05
4.92693e-05
5.15456e-05
4.81943e-05
4.73189e-05
4.65306e-05
4.60272e-05
4.60281e-05
4.65328e-05
4.7321e-05
4.8188e-05
5.15461e-05
5.51777e-05
5.15962e-05
4.9277e-05
4.79602e-05
4.73697e-05
4.73708e-05
4.79633e-05
4.9281e-05
5.15868e-05
5.51783e-05
4.2343e-05
3.70266e-05
3.60821e-05
3.4924e-05
3.44356e-05
3.44288e-05
3.49267e-05
3.63229e-05
3.72961e-05
4.19029e-05
3.70792e-05
3.42639e-05
3.404e-05
3.33407e-05
3.29496e-05
3.29459e-05
3.33376e-05
3.4158e-05
3.44782e-05
3.72728e-05
3.60815e-05
3.41024e-05
3.30043e-05
3.2165e-05
3.1685e-05
3.16876e-05
3.2186e-05
3.30243e-05
3.40685e-05
3.62973e-05
3.48986e-05
3.33253e-05
3.21642e-05
3.13888e-05
3.09104e-05
3.09204e-05
3.14012e-05
3.21672e-05
3.33103e-05
3.4895e-05
3.4416e-05
3.29326e-05
3.16726e-05
3.09109e-05
3.04955e-05
3.04967e-05
3.09086e-05
3.16733e-05
3.29204e-05
3.43923e-05
3.44136e-05
3.29322e-05
3.16754e-05
3.09068e-05
3.04936e-05
3.04934e-05
3.0905e-05
3.167e-05
3.29188e-05
3.43895e-05
3.49149e-05
3.33199e-05
3.2164e-05
3.13926e-05
3.09096e-05
3.0909e-05
3.13902e-05
3.21587e-05
3.33056e-05
3.48858e-05
3.63102e-05
3.40736e-05
3.30135e-05
3.21695e-05
3.16684e-05
3.16679e-05
3.21685e-05
3.30104e-05
3.40603e-05
3.6279e-05
3.72596e-05
3.44685e-05
3.41354e-05
3.33115e-05
3.29166e-05
3.29171e-05
3.33133e-05
3.41378e-05
3.44619e-05
3.72401e-05
4.18776e-05
3.72766e-05
3.62843e-05
3.48857e-05
3.43891e-05
3.43901e-05
3.48893e-05
3.62923e-05
3.72756e-05
4.18682e-05
3.21434e-05
2.75867e-05
2.70322e-05
2.58715e-05
2.54088e-05
2.53948e-05
2.58259e-05
2.71401e-05
2.77867e-05
3.2001e-05
2.76172e-05
2.53368e-05
2.49155e-05
2.40122e-05
2.36386e-05
2.36339e-05
2.39949e-05
2.49743e-05
2.54415e-05
2.77614e-05
2.70156e-05
2.4957e-05
2.37838e-05
2.27236e-05
2.22048e-05
2.22066e-05
2.27467e-05
2.38034e-05
2.48855e-05
2.70979e-05
2.58338e-05
2.3985e-05
2.2716e-05
2.17836e-05
2.12603e-05
2.12676e-05
2.17954e-05
2.27219e-05
2.39512e-05
2.57733e-05
2.53773e-05
2.36105e-05
2.21859e-05
2.12579e-05
2.07525e-05
2.07511e-05
2.12515e-05
2.21809e-05
2.35902e-05
2.53389e-05
2.53658e-05
2.36073e-05
2.2188e-05
2.12532e-05
2.07483e-05
2.07461e-05
2.12461e-05
2.21759e-05
2.35877e-05
2.53356e-05
2.57996e-05
2.39651e-05
2.27205e-05
2.17866e-05
2.12531e-05
2.12507e-05
2.17795e-05
2.2709e-05
2.39442e-05
2.5764e-05
2.71177e-05
2.48932e-05
2.37905e-05
2.27251e-05
2.218e-05
2.21781e-05
2.27202e-05
2.37818e-05
2.48735e-05
2.70786e-05
2.7754e-05
2.54321e-05
2.49463e-05
2.39594e-05
2.35936e-05
2.3593e-05
2.39578e-05
2.49446e-05
2.54207e-05
2.77272e-05
3.19707e-05
2.77657e-05
2.70942e-05
2.57729e-05
2.53426e-05
2.53432e-05
2.57745e-05
2.71011e-05
2.77629e-05
3.19566e-05
2.64196e-05
2.2945e-05
2.24094e-05
2.13783e-05
2.09536e-05
2.09414e-05
2.13103e-05
2.24018e-05
2.30092e-05
2.62797e-05
2.29804e-05
2.12843e-05
2.06185e-05
1.96647e-05
1.93105e-05
1.93115e-05
1.96571e-05
2.06487e-05
2.13004e-05
2.29955e-05
2.23829e-05
2.06485e-05
1.95106e-05
1.84281e-05
1.79465e-05
1.79486e-05
1.84555e-05
1.95371e-05
2.05563e-05
2.23541e-05
2.13348e-05
1.96336e-05
1.84179e-05
1.74577e-05
1.69599e-05
1.69643e-05
1.74671e-05
1.84304e-05
1.96093e-05
2.12579e-05
2.0914e-05
1.92769e-05
1.79241e-05
1.69554e-05
1.64427e-05
1.64407e-05
1.69498e-05
1.79241e-05
1.92708e-05
2.08903e-05
2.09016e-05
1.92758e-05
1.79236e-05
1.6948e-05
1.64373e-05
1.64361e-05
1.69453e-05
1.79204e-05
1.927e-05
2.08885e-05
2.12728e-05
1.96151e-05
1.84232e-05
1.74557e-05
1.69504e-05
1.69499e-05
1.74544e-05
1.8421e-05
1.96071e-05
2.12542e-05
2.2369e-05
2.05605e-05
1.95203e-05
1.84319e-05
1.79235e-05
1.7924e-05
1.84325e-05
1.95206e-05
2.05529e-05
2.23449e-05
2.29835e-05
2.12886e-05
2.06143e-05
1.96183e-05
1.9274e-05
1.92752e-05
1.96226e-05
2.06219e-05
2.12876e-05
2.29669e-05
2.62523e-05
2.29996e-05
2.23602e-05
2.1262e-05
2.08952e-05
2.08968e-05
2.12653e-05
2.23706e-05
2.30008e-05
2.62339e-05
2.37419e-05
2.13719e-05
2.08089e-05
1.9868e-05
1.94725e-05
1.94656e-05
1.98002e-05
2.07404e-05
2.13342e-05
2.35602e-05
2.13881e-05
2.02061e-05
1.93946e-05
1.84932e-05
1.81624e-05
1.81664e-05
1.84977e-05
1.94223e-05
2.01659e-05
2.13018e-05
2.0759e-05
1.94159e-05
1.84145e-05
1.74468e-05
1.70424e-05
1.70417e-05
1.74714e-05
1.84448e-05
1.93209e-05
2.06732e-05
1.98193e-05
1.84625e-05
1.74392e-05
1.65887e-05
1.61749e-05
1.61763e-05
1.6591e-05
1.74505e-05
1.84527e-05
1.97499e-05
1.94337e-05
1.8131e-05
1.70229e-05
1.61725e-05
1.57477e-05
1.5745e-05
1.61658e-05
1.70257e-05
1.81366e-05
1.94266e-05
1.94272e-05
1.81345e-05
1.70208e-05
1.61639e-05
1.57438e-05
1.57432e-05
1.61641e-05
1.70249e-05
1.81394e-05
1.94287e-05
1.97627e-05
1.84592e-05
1.74453e-05
1.65859e-05
1.61711e-05
1.61708e-05
1.65869e-05
1.74492e-05
1.84607e-05
1.9759e-05
2.06975e-05
1.93362e-05
1.84374e-05
1.74611e-05
1.70311e-05
1.70316e-05
1.74618e-05
1.84409e-05
1.93356e-05
2.06882e-05
2.13043e-05
2.01663e-05
1.9397e-05
1.84744e-05
1.81471e-05
1.8148e-05
1.8477e-05
1.94057e-05
2.01696e-05
2.12964e-05
2.35331e-05
2.13285e-05
2.07032e-05
1.97667e-05
1.94375e-05
1.94393e-05
1.97704e-05
2.07178e-05
2.1339e-05
2.35289e-05
2.2829e-05
2.13018e-05
2.07043e-05
1.98563e-05
1.94967e-05
1.95041e-05
1.98272e-05
2.06573e-05
2.12592e-05
2.26546e-05
2.13113e-05
2.04545e-05
1.96064e-05
1.88001e-05
1.84883e-05
1.84954e-05
1.88258e-05
1.96676e-05
2.04172e-05
2.11877e-05
2.06604e-05
1.96469e-05
1.87753e-05
1.79152e-05
1.75627e-05
1.75614e-05
1.79362e-05
1.88056e-05
1.95636e-05
2.05713e-05
1.98462e-05
1.88059e-05
1.79245e-05
1.71605e-05
1.68016e-05
1.68004e-05
1.71555e-05
1.79265e-05
1.87987e-05
1.97957e-05
1.95052e-05
1.84942e-05
1.7567e-05
1.68086e-05
1.64534e-05
1.64505e-05
1.67975e-05
1.75616e-05
1.8495e-05
1.95021e-05
1.95145e-05
1.8504e-05
1.75636e-05
1.68009e-05
1.6453e-05
1.6451e-05
1.67988e-05
1.75631e-05
1.84987e-05
1.95084e-05
1.98318e-05
1.88204e-05
1.79333e-05
1.7162e-05
1.68075e-05
1.68063e-05
1.71593e-05
1.79291e-05
1.88103e-05
1.98186e-05
2.06369e-05
1.96004e-05
1.88176e-05
1.79464e-05
1.75694e-05
1.75679e-05
1.79407e-05
1.8811e-05
1.95864e-05
2.06156e-05
2.12458e-05
2.04417e-05
1.96621e-05
1.88281e-05
1.85043e-05
1.8502e-05
1.88222e-05
1.96567e-05
2.04276e-05
2.12171e-05
2.2657e-05
2.12493e-05
2.06301e-05
1.98221e-05
1.95131e-05
1.9512e-05
1.98181e-05
2.06343e-05
2.12583e-05
2.26521e-05
2.24715e-05
2.14638e-05
2.08623e-05
2.01214e-05
1.97928e-05
1.98025e-05
2.0105e-05
2.08244e-05
2.14069e-05
2.23005e-05
2.14083e-05
2.07792e-05
1.99988e-05
1.92984e-05
1.89998e-05
1.90046e-05
1.93242e-05
2.00722e-05
2.07425e-05
2.12831e-05
2.08066e-05
2.0056e-05
1.92928e-05
1.85183e-05
1.81933e-05
1.81905e-05
1.85319e-05
1.93159e-05
1.9977e-05
2.07259e-05
2.01283e-05
1.9327e-05
1.85398e-05
1.78347e-05
1.75031e-05
1.75027e-05
1.78284e-05
1.85367e-05
1.93218e-05
2.00923e-05
1.98307e-05
1.90285e-05
1.82128e-05
1.75169e-05
1.72063e-05
1.72054e-05
1.75099e-05
1.82119e-05
1.90315e-05
1.98243e-05
1.98499e-05
1.90394e-05
1.82099e-05
1.7513e-05
1.72114e-05
1.72112e-05
1.75162e-05
1.82171e-05
1.90371e-05
1.98337e-05
2.01469e-05
1.93459e-05
1.85468e-05
1.78462e-05
1.75255e-05
1.75257e-05
1.78469e-05
1.85495e-05
1.93397e-05
2.01257e-05
2.08225e-05
2.00245e-05
1.93439e-05
1.85665e-05
1.82249e-05
1.82234e-05
1.85615e-05
1.934e-05
2.00132e-05
2.07952e-05
2.139e-05
2.07888e-05
2.00931e-05
1.93602e-05
1.90454e-05
1.9042e-05
1.93507e-05
2.00833e-05
2.077e-05
2.13479e-05
2.23433e-05
2.14072e-05
2.08154e-05
2.01292e-05
1.98366e-05
1.9832e-05
2.01139e-05
2.08005e-05
2.13909e-05
2.23046e-05
2.1904e-05
2.12796e-05
2.07556e-05
2.01344e-05
1.98549e-05
1.98811e-05
2.01683e-05
2.07893e-05
2.13081e-05
2.18545e-05
2.11988e-05
2.08265e-05
2.01477e-05
1.95382e-05
1.92632e-05
1.92726e-05
1.95841e-05
2.02576e-05
2.08272e-05
2.11477e-05
2.07251e-05
2.02393e-05
1.95647e-05
1.88538e-05
1.85514e-05
1.85579e-05
1.8882e-05
1.96026e-05
2.01916e-05
2.07076e-05
2.01786e-05
1.96006e-05
1.88866e-05
1.82323e-05
1.79237e-05
1.79313e-05
1.82459e-05
1.89057e-05
1.96229e-05
2.01969e-05
1.99163e-05
1.93073e-05
1.85814e-05
1.79394e-05
1.76643e-05
1.76721e-05
1.7952e-05
1.86058e-05
1.9344e-05
1.99501e-05
1.9941e-05
1.93152e-05
1.85775e-05
1.79394e-05
1.76745e-05
1.76799e-05
1.7961e-05
1.8612e-05
1.93461e-05
1.9961e-05
2.02153e-05
1.95993e-05
1.88892e-05
1.82531e-05
1.79583e-05
1.79656e-05
1.82713e-05
1.8919e-05
1.96329e-05
2.02338e-05
2.0778e-05
2.01866e-05
1.96089e-05
1.89146e-05
1.86032e-05
1.86075e-05
1.89269e-05
1.96341e-05
2.02185e-05
2.07928e-05
2.1262e-05
2.08341e-05
2.02712e-05
1.96318e-05
1.93372e-05
1.9339e-05
1.96393e-05
2.02876e-05
2.08591e-05
2.12574e-05
2.19124e-05
2.12657e-05
2.07769e-05
2.02141e-05
1.99496e-05
1.99492e-05
2.02094e-05
2.07784e-05
2.12826e-05
2.18967e-05
2.13886e-05
2.09408e-05
2.04874e-05
1.99652e-05
1.9712e-05
1.9726e-05
1.99764e-05
2.04986e-05
2.09415e-05
2.13313e-05
2.08706e-05
2.06626e-05
2.00681e-05
1.95224e-05
1.92583e-05
1.92597e-05
1.95439e-05
2.0145e-05
2.06208e-05
2.07797e-05
2.05053e-05
2.01919e-05
1.95678e-05
1.88992e-05
1.86058e-05
1.86101e-05
1.89155e-05
1.95791e-05
2.01111e-05
2.04603e-05
2.00295e-05
1.9605e-05
1.89432e-05
1.83235e-05
1.80231e-05
1.80299e-05
1.833e-05
1.89445e-05
1.96043e-05
2.00329e-05
1.97732e-05
1.93144e-05
1.86491e-05
1.80455e-05
1.77871e-05
1.77923e-05
1.80497e-05
1.86594e-05
1.93335e-05
1.97943e-05
1.97844e-05
1.9312e-05
1.8645e-05
1.80492e-05
1.78001e-05
1.78014e-05
1.8059e-05
1.86644e-05
1.93302e-05
1.97991e-05
2.00272e-05
1.95745e-05
1.89394e-05
1.83506e-05
1.80651e-05
1.80676e-05
1.83566e-05
1.89537e-05
1.95979e-05
2.00488e-05
2.04908e-05
2.00883e-05
1.95964e-05
1.89623e-05
1.86636e-05
1.86639e-05
1.89632e-05
1.9607e-05
2.01132e-05
2.05164e-05
2.08731e-05
2.06219e-05
2.0182e-05
1.96092e-05
1.93269e-05
1.93265e-05
1.96076e-05
2.01844e-05
2.06394e-05
2.08812e-05
2.13533e-05
2.0869e-05
2.04946e-05
2.00264e-05
1.97829e-05
1.9785e-05
2.00277e-05
2.05021e-05
2.09046e-05
2.13763e-05
2.07929e-05
2.03624e-05
2.00066e-05
1.9586e-05
1.93722e-05
1.9385e-05
1.96017e-05
2.00259e-05
2.03858e-05
2.07751e-05
2.03432e-05
2.0283e-05
1.97719e-05
1.92927e-05
1.90551e-05
1.90594e-05
1.93213e-05
1.98591e-05
2.02577e-05
2.02717e-05
2.00898e-05
1.99303e-05
1.93565e-05
1.87336e-05
1.84583e-05
1.84685e-05
1.87624e-05
1.93769e-05
1.98584e-05
2.00596e-05
1.96854e-05
1.93985e-05
1.87855e-05
1.82012e-05
1.79143e-05
1.79253e-05
1.82147e-05
1.87885e-05
1.93942e-05
1.96887e-05
1.94476e-05
1.91234e-05
1.85088e-05
1.79386e-05
1.76945e-05
1.76997e-05
1.7941e-05
1.85119e-05
1.91298e-05
1.94553e-05
1.9454e-05
1.91194e-05
1.85094e-05
1.79467e-05
1.77088e-05
1.77084e-05
1.7949e-05
1.85146e-05
1.91206e-05
1.9452e-05
1.96715e-05
1.93632e-05
1.87928e-05
1.82395e-05
1.79609e-05
1.79607e-05
1.82369e-05
1.87907e-05
1.93676e-05
1.96743e-05
2.00547e-05
1.98192e-05
1.94003e-05
1.88115e-05
1.85215e-05
1.85191e-05
1.88033e-05
1.93933e-05
1.98252e-05
2.00633e-05
2.0349e-05
2.0261e-05
1.99242e-05
1.93994e-05
1.91276e-05
1.91239e-05
1.93856e-05
1.99019e-05
2.02522e-05
2.03362e-05
2.08175e-05
2.03451e-05
2.00729e-05
1.96764e-05
1.94487e-05
1.94479e-05
1.96669e-05
2.00549e-05
2.03519e-05
2.08219e-05
2.04143e-05
1.97381e-05
1.94472e-05
1.91248e-05
1.89463e-05
1.89521e-05
1.91319e-05
1.94649e-05
1.97642e-05
2.04109e-05
1.98076e-05
1.98161e-05
1.93788e-05
1.89603e-05
1.87403e-05
1.87431e-05
1.89817e-05
1.94614e-05
1.97988e-05
1.97453e-05
1.96055e-05
1.95551e-05
1.90285e-05
1.84483e-05
1.81825e-05
1.81888e-05
1.84701e-05
1.90391e-05
1.94766e-05
1.95801e-05
1.92369e-05
1.90602e-05
1.84935e-05
1.79399e-05
1.76589e-05
1.76669e-05
1.7942e-05
1.84799e-05
1.90415e-05
1.92347e-05
1.90063e-05
1.87949e-05
1.82197e-05
1.76764e-05
1.74392e-05
1.74394e-05
1.76678e-05
1.82073e-05
1.87839e-05
1.90029e-05
1.90021e-05
1.87839e-05
1.82165e-05
1.76785e-05
1.74461e-05
1.74437e-05
1.76722e-05
1.82085e-05
1.87729e-05
1.89903e-05
1.91902e-05
1.90102e-05
1.84884e-05
1.7961e-05
1.76872e-05
1.76856e-05
1.79543e-05
1.84781e-05
1.90041e-05
1.91856e-05
1.9504e-05
1.94186e-05
1.90563e-05
1.85016e-05
1.82182e-05
1.82165e-05
1.8493e-05
1.9044e-05
1.9419e-05
1.95133e-05
1.97402e-05
1.97886e-05
1.95285e-05
1.90404e-05
1.87797e-05
1.87774e-05
1.90276e-05
1.95014e-05
1.97732e-05
1.97336e-05
2.04367e-05
1.97657e-05
1.95493e-05
1.92014e-05
1.89869e-05
1.89865e-05
1.91908e-05
1.95193e-05
1.97499e-05
2.04307e-05
2.03101e-05
1.91342e-05
1.88718e-05
1.86298e-05
1.84758e-05
1.8476e-05
1.86274e-05
1.88819e-05
1.91606e-05
2.03419e-05
1.92514e-05
1.92872e-05
1.89358e-05
1.85734e-05
1.8363e-05
1.83631e-05
1.85807e-05
1.90022e-05
1.9273e-05
1.92245e-05
1.90423e-05
1.9089e-05
1.86274e-05
1.8094e-05
1.78353e-05
1.78345e-05
1.81026e-05
1.86233e-05
1.90024e-05
1.90322e-05
1.8704e-05
1.86261e-05
1.8116e-05
1.75962e-05
1.73215e-05
1.73259e-05
1.75849e-05
1.80847e-05
1.8596e-05
1.87014e-05
1.84901e-05
1.83738e-05
1.78395e-05
1.7325e-05
1.70949e-05
1.70905e-05
1.73082e-05
1.78177e-05
1.83527e-05
1.848e-05
1.84809e-05
1.83604e-05
1.78327e-05
1.73176e-05
1.70912e-05
1.70893e-05
1.73084e-05
1.78187e-05
1.83462e-05
1.84653e-05
1.86473e-05
1.85757e-05
1.80947e-05
1.75907e-05
1.73236e-05
1.73225e-05
1.75852e-05
1.80843e-05
1.85662e-05
1.86391e-05
1.89098e-05
1.89469e-05
1.86314e-05
1.81071e-05
1.78318e-05
1.78322e-05
1.81027e-05
1.86201e-05
1.89462e-05
1.89231e-05
1.91441e-05
1.92599e-05
1.90594e-05
1.86067e-05
1.83596e-05
1.83597e-05
1.85983e-05
1.90353e-05
1.92457e-05
1.91525e-05
2.03478e-05
1.92083e-05
1.89854e-05
1.86736e-05
1.84739e-05
1.8474e-05
1.86647e-05
1.89516e-05
1.91771e-05
2.03403e-05
2.04763e-05
1.86578e-05
1.83439e-05
1.81451e-05
1.80005e-05
1.79998e-05
1.81411e-05
1.83512e-05
1.86885e-05
2.05395e-05
1.88249e-05
1.87912e-05
1.85104e-05
1.81865e-05
1.79773e-05
1.79762e-05
1.81848e-05
1.856e-05
1.87659e-05
1.88087e-05
1.85043e-05
1.86321e-05
1.82342e-05
1.77362e-05
1.74789e-05
1.74726e-05
1.77306e-05
1.82068e-05
1.85227e-05
1.8491e-05
1.81784e-05
1.81961e-05
1.77368e-05
1.72441e-05
1.69722e-05
1.69721e-05
1.72188e-05
1.76843e-05
1.81458e-05
1.81675e-05
1.7979e-05
1.79534e-05
1.74559e-05
1.69634e-05
1.67361e-05
1.67282e-05
1.69383e-05
1.74223e-05
1.79214e-05
1.79656e-05
1.79698e-05
1.79393e-05
1.74427e-05
1.69448e-05
1.67216e-05
1.67199e-05
1.69332e-05
1.74227e-05
1.79211e-05
1.79552e-05
1.81246e-05
1.81438e-05
1.7694e-05
1.72065e-05
1.69446e-05
1.69447e-05
1.72032e-05
1.7683e-05
1.81315e-05
1.81149e-05
1.83626e-05
1.84811e-05
1.81993e-05
1.7699e-05
1.74314e-05
1.74349e-05
1.77018e-05
1.81936e-05
1.84812e-05
1.83757e-05
1.86837e-05
1.87472e-05
1.85836e-05
1.81612e-05
1.79282e-05
1.79322e-05
1.81648e-05
1.85739e-05
1.87425e-05
1.87022e-05
2.05246e-05
1.87567e-05
1.84396e-05
1.81466e-05
1.79629e-05
1.79661e-05
1.81481e-05
1.84184e-05
1.87298e-05
2.05214e-05
2.04735e-05
1.84288e-05
1.79179e-05
1.77035e-05
1.75401e-05
1.75305e-05
1.76773e-05
1.7893e-05
1.84198e-05
2.05072e-05
1.85924e-05
1.83126e-05
1.80852e-05
1.77866e-05
1.75724e-05
1.75704e-05
1.77752e-05
1.81124e-05
1.82594e-05
1.85424e-05
1.80243e-05
1.816e-05
1.78203e-05
1.7354e-05
1.7098e-05
1.7089e-05
1.73411e-05
1.7777e-05
1.80232e-05
1.7973e-05
1.76794e-05
1.7749e-05
1.73367e-05
1.68687e-05
1.66e-05
1.65988e-05
1.6838e-05
1.7273e-05
1.76821e-05
1.76425e-05
1.74876e-05
1.75201e-05
1.7055e-05
1.65843e-05
1.63599e-05
1.63502e-05
1.6557e-05
1.70186e-05
1.74805e-05
1.74626e-05
1.74771e-05
1.75083e-05
1.70416e-05
1.65617e-05
1.6341e-05
1.63393e-05
1.65483e-05
1.70183e-05
1.74877e-05
1.74602e-05
1.76308e-05
1.77087e-05
1.72865e-05
1.68176e-05
1.65603e-05
1.65592e-05
1.68122e-05
1.72726e-05
1.76902e-05
1.76161e-05
1.78799e-05
1.80192e-05
1.77648e-05
1.72895e-05
1.70291e-05
1.70325e-05
1.72928e-05
1.77584e-05
1.80125e-05
1.78861e-05
1.84131e-05
1.82543e-05
1.81072e-05
1.77158e-05
1.74965e-05
1.75014e-05
1.77237e-05
1.81058e-05
1.8251e-05
1.84337e-05
2.04755e-05
1.84995e-05
1.79497e-05
1.76429e-05
1.74679e-05
1.74724e-05
1.76525e-05
1.79419e-05
1.84754e-05
2.04749e-05
1.85155e-05
1.84035e-05
1.7569e-05
1.72805e-05
1.70912e-05
1.70869e-05
1.72658e-05
1.75551e-05
1.84101e-05
1.85662e-05
1.85407e-05
1.78719e-05
1.76671e-05
1.73856e-05
1.71749e-05
1.71794e-05
1.7392e-05
1.77086e-05
1.78246e-05
1.849e-05
1.76083e-05
1.77054e-05
1.7423e-05
1.69857e-05
1.6738e-05
1.67365e-05
1.69885e-05
1.73929e-05
1.75752e-05
1.75506e-05
1.72209e-05
1.73277e-05
1.6961e-05
1.65196e-05
1.62609e-05
1.62656e-05
1.65054e-05
1.69154e-05
1.72718e-05
1.71847e-05
1.70355e-05
1.71153e-05
1.66895e-05
1.62434e-05
1.60267e-05
1.60226e-05
1.62298e-05
1.66705e-05
1.70925e-05
1.70211e-05
1.70313e-05
1.71112e-05
1.66803e-05
1.62238e-05
1.60107e-05
1.60118e-05
1.62195e-05
1.66689e-05
1.71034e-05
1.70288e-05
1.72035e-05
1.73079e-05
1.6921e-05
1.64755e-05
1.62266e-05
1.6227e-05
1.64744e-05
1.69127e-05
1.72961e-05
1.71954e-05
1.75206e-05
1.75974e-05
1.73715e-05
1.69251e-05
1.66751e-05
1.6679e-05
1.69321e-05
1.73708e-05
1.75919e-05
1.75218e-05
1.84054e-05
1.78284e-05
1.76736e-05
1.73131e-05
1.71083e-05
1.71135e-05
1.73258e-05
1.76828e-05
1.78313e-05
1.84221e-05
1.85415e-05
1.84775e-05
1.75698e-05
1.72106e-05
1.7036e-05
1.70406e-05
1.72258e-05
1.75773e-05
1.84669e-05
1.85441e-05
1.34689e-05
1.8578e-05
1.73797e-05
1.69409e-05
1.67062e-05
1.67018e-05
1.69269e-05
1.73661e-05
1.85815e-05
1.3433e-05
1.86613e-05
1.75282e-05
1.72911e-05
1.7013e-05
1.68024e-05
1.68069e-05
1.70226e-05
1.7332e-05
1.74731e-05
1.85949e-05
1.73533e-05
1.73024e-05
1.70629e-05
1.66477e-05
1.64042e-05
1.64055e-05
1.66546e-05
1.70352e-05
1.71716e-05
1.72812e-05
1.68601e-05
1.69494e-05
1.66241e-05
1.62056e-05
1.59531e-05
1.59601e-05
1.62003e-05
1.659e-05
1.69008e-05
1.6822e-05
1.66575e-05
1.67486e-05
1.63623e-05
1.59399e-05
1.57287e-05
1.5728e-05
1.59349e-05
1.6356e-05
1.67388e-05
1.66513e-05
1.66555e-05
1.67471e-05
1.63549e-05
1.59241e-05
1.57176e-05
1.57195e-05
1.59249e-05
1.63533e-05
1.67498e-05
1.66645e-05
1.68601e-05
1.69382e-05
1.65893e-05
1.61711e-05
1.593e-05
1.59301e-05
1.61712e-05
1.65854e-05
1.69323e-05
1.68592e-05
1.73074e-05
1.72123e-05
1.70118e-05
1.65963e-05
1.63561e-05
1.63586e-05
1.66027e-05
1.70137e-05
1.72069e-05
1.73048e-05
1.85598e-05
1.74828e-05
1.7278e-05
1.69432e-05
1.67503e-05
1.67538e-05
1.6955e-05
1.72918e-05
1.74875e-05
1.85712e-05
1.33971e-05
1.86187e-05
1.73342e-05
1.68587e-05
1.66634e-05
1.66664e-05
1.68751e-05
1.7353e-05
1.86208e-05
1.3407e-05
2.94201e-05
1.84735e-05
1.73211e-05
1.66734e-05
1.6383e-05
1.63844e-05
1.66746e-05
1.73269e-05
1.84974e-05
2.92144e-05
1.84842e-05
1.7266e-05
1.69327e-05
1.66506e-05
1.64485e-05
1.64553e-05
1.66726e-05
1.69908e-05
1.72284e-05
1.84359e-05
1.72373e-05
1.69358e-05
1.67255e-05
1.63327e-05
1.60982e-05
1.61046e-05
1.63498e-05
1.67129e-05
1.68273e-05
1.71827e-05
1.65905e-05
1.66037e-05
1.632e-05
1.59263e-05
1.56829e-05
1.56932e-05
1.59342e-05
1.6306e-05
1.65768e-05
1.65722e-05
1.63531e-05
1.6415e-05
1.60745e-05
1.56786e-05
1.54753e-05
1.54793e-05
1.56849e-05
1.60855e-05
1.64264e-05
1.63647e-05
1.63574e-05
1.64171e-05
1.607e-05
1.56691e-05
1.54721e-05
1.54758e-05
1.56788e-05
1.60834e-05
1.64354e-05
1.63805e-05
1.66181e-05
1.66017e-05
1.62973e-05
1.59113e-05
1.56805e-05
1.56823e-05
1.59172e-05
1.63042e-05
1.66093e-05
1.66271e-05
1.72555e-05
1.68717e-05
1.66923e-05
1.63109e-05
1.60826e-05
1.60848e-05
1.63198e-05
1.67016e-05
1.68732e-05
1.72516e-05
1.84605e-05
1.72412e-05
1.69352e-05
1.66168e-05
1.64344e-05
1.6436e-05
1.6627e-05
1.69524e-05
1.72499e-05
1.84648e-05
2.919e-05
1.84998e-05
1.72653e-05
1.66185e-05
1.63783e-05
1.63783e-05
1.66297e-05
1.72872e-05
1.85125e-05
2.91843e-05
9.22007e-05
1.7104e-05
1.73492e-05
1.6507e-05
1.61527e-05
1.61612e-05
1.65291e-05
1.73863e-05
1.71637e-05
9.19061e-05
1.70526e-05
1.71166e-05
1.66229e-05
1.63215e-05
1.61306e-05
1.61373e-05
1.63513e-05
1.66971e-05
1.71007e-05
1.70304e-05
1.72527e-05
1.66425e-05
1.64302e-05
1.6056e-05
1.58305e-05
1.58388e-05
1.60755e-05
1.64253e-05
1.65536e-05
1.72226e-05
1.64551e-05
1.63123e-05
1.60623e-05
1.56909e-05
1.54541e-05
1.54634e-05
1.57011e-05
1.60563e-05
1.62981e-05
1.6458e-05
1.61557e-05
1.61298e-05
1.58339e-05
1.5462e-05
1.52638e-05
1.52685e-05
1.54687e-05
1.58479e-05
1.61499e-05
1.61807e-05
1.61643e-05
1.61311e-05
1.58289e-05
1.54562e-05
1.52663e-05
1.52688e-05
1.54667e-05
1.58465e-05
1.6154e-05
1.6194e-05
1.64972e-05
1.6306e-05
1.60449e-05
1.56899e-05
1.54676e-05
1.54694e-05
1.56969e-05
1.60557e-05
1.63212e-05
1.65131e-05
1.73146e-05
1.65865e-05
1.6411e-05
1.60613e-05
1.58428e-05
1.58437e-05
1.6069e-05
1.6423e-05
1.65937e-05
1.73127e-05
1.71077e-05
1.7108e-05
1.66515e-05
1.63281e-05
1.61507e-05
1.61497e-05
1.63332e-05
1.66665e-05
1.7119e-05
1.71055e-05
9.18841e-05
1.71181e-05
1.73109e-05
1.6497e-05
1.61875e-05
1.61844e-05
1.65015e-05
1.73323e-05
1.71444e-05
9.18663e-05
0.000217441
1.39617e-05
1.72582e-05
1.64323e-05
1.60191e-05
1.60288e-05
1.64611e-05
1.73093e-05
1.40183e-05
0.000216964
1.38412e-05
1.7011e-05
1.63628e-05
1.60166e-05
1.58335e-05
1.5839e-05
1.60474e-05
1.64437e-05
1.7009e-05
1.38142e-05
1.71787e-05
1.64134e-05
1.61525e-05
1.57918e-05
1.55751e-05
1.55827e-05
1.5809e-05
1.61488e-05
1.63342e-05
1.71641e-05
1.64228e-05
1.60531e-05
1.5821e-05
1.54676e-05
1.52354e-05
1.52419e-05
1.54729e-05
1.58122e-05
1.60392e-05
1.64337e-05
1.60541e-05
1.58714e-05
1.56097e-05
1.52575e-05
1.50622e-05
1.50644e-05
1.52565e-05
1.56142e-05
1.58836e-05
1.60759e-05
1.6063e-05
1.58705e-05
1.56052e-05
1.52562e-05
1.50702e-05
1.50694e-05
1.52595e-05
1.56141e-05
1.58823e-05
1.60832e-05
1.64633e-05
1.60404e-05
1.58108e-05
1.54825e-05
1.52656e-05
1.52652e-05
1.54837e-05
1.58144e-05
1.60485e-05
1.64745e-05
1.72568e-05
1.63587e-05
1.61528e-05
1.58278e-05
1.56159e-05
1.56136e-05
1.58277e-05
1.61563e-05
1.636e-05
1.72508e-05
1.39487e-05
1.7019e-05
1.6427e-05
1.60656e-05
1.58848e-05
1.588e-05
1.606e-05
1.64289e-05
1.70209e-05
1.3927e-05
0.000216946
1.39239e-05
1.72465e-05
1.64631e-05
1.60796e-05
1.60728e-05
1.64564e-05
1.72571e-05
1.3953e-05
0.000216905
0.00042679
2.01867e-05
1.65066e-05
1.63367e-05
1.59382e-05
1.59504e-05
1.63747e-05
1.65739e-05
2.01899e-05
0.000426153
2.01106e-05
1.67643e-05
1.61623e-05
1.57444e-05
1.55653e-05
1.55714e-05
1.57784e-05
1.62518e-05
1.67809e-05
2.002e-05
1.64664e-05
1.62469e-05
1.58896e-05
1.55398e-05
1.53353e-05
1.53438e-05
1.55599e-05
1.58922e-05
1.61805e-05
1.64803e-05
1.63742e-05
1.58174e-05
1.5585e-05
1.52499e-05
1.50261e-05
1.5032e-05
1.52546e-05
1.55772e-05
1.58062e-05
1.63942e-05
1.59973e-05
1.56271e-05
1.53887e-05
1.50565e-05
1.48672e-05
1.48679e-05
1.50512e-05
1.53872e-05
1.56331e-05
1.60147e-05
1.60045e-05
1.56241e-05
1.53861e-05
1.50595e-05
1.48795e-05
1.48768e-05
1.50581e-05
1.53881e-05
1.56268e-05
1.60143e-05
1.64065e-05
1.57978e-05
1.55833e-05
1.52798e-05
1.50698e-05
1.50681e-05
1.52769e-05
1.55813e-05
1.58001e-05
1.6412e-05
1.65531e-05
1.61893e-05
1.59102e-05
1.56028e-05
1.53976e-05
1.53932e-05
1.55965e-05
1.59057e-05
1.6186e-05
1.65443e-05
2.01138e-05
1.67926e-05
1.62666e-05
1.58306e-05
1.56387e-05
1.56313e-05
1.5816e-05
1.62545e-05
1.67839e-05
2.00898e-05
0.000426152
2.01092e-05
1.65485e-05
1.64141e-05
1.60188e-05
1.60092e-05
1.63951e-05
1.65393e-05
2.0122e-05
0.000426084
0.00073255
5.38899e-05
1.45089e-05
1.59679e-05
1.57902e-05
1.58001e-05
1.60037e-05
1.45781e-05
5.38537e-05
0.000731757
5.39361e-05
1.60164e-05
1.60228e-05
1.55145e-05
1.53276e-05
1.53348e-05
1.55503e-05
1.61184e-05
1.60525e-05
5.37128e-05
1.45381e-05
1.61373e-05
1.56445e-05
1.52953e-05
1.51017e-05
1.51111e-05
1.53193e-05
1.5653e-05
1.60799e-05
1.45778e-05
1.60433e-05
1.56079e-05
1.53485e-05
1.50278e-05
1.48124e-05
1.48185e-05
1.50326e-05
1.5341e-05
1.55982e-05
1.60705e-05
1.58526e-05
1.53959e-05
1.51609e-05
1.48451e-05
1.46621e-05
1.46615e-05
1.4837e-05
1.51548e-05
1.53968e-05
1.58686e-05
1.5853e-05
1.53889e-05
1.51592e-05
1.48505e-05
1.46761e-05
1.46729e-05
1.48464e-05
1.51567e-05
1.53879e-05
1.58603e-05
1.60495e-05
1.55772e-05
1.53501e-05
1.50653e-05
1.48621e-05
1.48604e-05
1.50619e-05
1.53475e-05
1.55808e-05
1.60606e-05
1.4595e-05
1.60654e-05
1.5675e-05
1.5371e-05
1.51716e-05
1.5168e-05
1.53655e-05
1.56717e-05
1.6069e-05
1.46017e-05
5.37389e-05
1.60576e-05
1.61526e-05
1.56158e-05
1.54038e-05
1.53983e-05
1.56038e-05
1.61412e-05
1.60543e-05
5.37219e-05
0.000731751
5.38128e-05
1.46088e-05
1.60718e-05
1.5869e-05
1.58612e-05
1.60513e-05
1.45876e-05
5.38117e-05
0.000731674
0.00113183
0.000122362
1.39011e-05
1.48875e-05
1.52752e-05
1.52814e-05
1.49148e-05
1.39391e-05
0.000122327
0.00113099
0.000122512
1.4448e-05
1.58894e-05
1.53135e-05
1.51067e-05
1.51153e-05
1.53497e-05
1.59882e-05
1.44987e-05
0.000122107
1.40245e-05
1.60179e-05
1.54038e-05
1.50426e-05
1.48585e-05
1.48685e-05
1.50718e-05
1.54199e-05
1.59687e-05
1.40361e-05
1.499e-05
1.54039e-05
1.50924e-05
1.4784e-05
1.45791e-05
1.4587e-05
1.47911e-05
1.50864e-05
1.53955e-05
1.50199e-05
1.5327e-05
1.51609e-05
1.4907e-05
1.46067e-05
1.4432e-05
1.44308e-05
1.45985e-05
1.48997e-05
1.51576e-05
1.53382e-05
1.53182e-05
1.51507e-05
1.49065e-05
1.46127e-05
1.44448e-05
1.4442e-05
1.46071e-05
1.49008e-05
1.51477e-05
1.53225e-05
1.49635e-05
1.53664e-05
1.50948e-05
1.4822e-05
1.46263e-05
1.46242e-05
1.48179e-05
1.50916e-05
1.53702e-05
1.4978e-05
1.39797e-05
1.5934e-05
1.54375e-05
1.51173e-05
1.49212e-05
1.49185e-05
1.51128e-05
1.54352e-05
1.59428e-05
1.39985e-05
0.000122119
1.4496e-05
1.60288e-05
1.54093e-05
1.51683e-05
1.51655e-05
1.54017e-05
1.60205e-05
1.44961e-05
0.000122089
0.00113094
0.000122296
1.40267e-05
1.49992e-05
1.5336e-05
1.5332e-05
1.49837e-05
1.39897e-05
0.000122274
0.00113088
0.00160795
0.000237651
2.7467e-05
1.32581e-05
1.40735e-05
1.40796e-05
1.32813e-05
2.74666e-05
0.000237642
0.00160723
0.000237907
1.33039e-05
1.56684e-05
1.51434e-05
1.49157e-05
1.49257e-05
1.5182e-05
1.57739e-05
1.33507e-05
0.000237301
2.76132e-05
1.58025e-05
1.52012e-05
1.48078e-05
1.46289e-05
1.46384e-05
1.48384e-05
1.522e-05
1.57605e-05
2.74977e-05
1.33958e-05
1.52197e-05
1.48465e-05
1.45472e-05
1.43528e-05
1.43607e-05
1.45526e-05
1.4837e-05
1.52079e-05
1.3417e-05
1.41153e-05
1.49461e-05
1.46567e-05
1.43698e-05
1.42035e-05
1.42012e-05
1.43592e-05
1.46443e-05
1.49366e-05
1.41212e-05