/*--------------------------------*- C++ -*----------------------------------*\
| =========                 |                                                 |
| \\      /  F ield         | OpenFOAM: The Open Source CFD Toolbox           |
|  \\    /   O peration     | Version:  2406                                  |
|   \\  /    A nd           | Website:  www.openfoam.com                      |
|    \\/     M anipulation  |                                                 |
\*---------------------------------------------------------------------------*/
FoamFile
{
    version     2.0;
    format      ascii;
    arch        "LSB;label=32;scalar=64";
    class       volVectorField;
    location    "150";
    object      momentError;
}
// * * * * * * * * * * * * * * * * * * * * * * * * * * * * * * * * * * * * * //

dimensions      [0 1 -2 0 0 0 0];

internalField   nonuniform List<vector> 
25000
(
(0.000106846 0.00027792 -0.000213676)
(-0.00114016 -8.48106e-05 -0.00013076)
(-0.000436881 5.09824e-05 -6.04566e-05)
(-0.000199378 3.37335e-05 -3.8337e-05)
(-0.000107157 1.25222e-05 -2.72086e-05)
(-6.91608e-05 2.96472e-06 -1.99588e-05)
(-5.33905e-05 -2.14543e-06 -1.42365e-05)
(-4.74926e-05 -1.07998e-07 -8.95438e-06)
(-4.74303e-05 7.47512e-06 -3.78396e-06)
(-4.2104e-05 2.35333e-06 1.37846e-06)
(-0.000203818 -0.00105879 -0.000136745)
(-0.000484792 -0.000371524 -9.86908e-05)
(-0.000294212 -0.000109532 -6.1705e-05)
(-0.000171095 -3.61745e-05 -4.12568e-05)
(-0.000103167 -1.64221e-05 -2.94533e-05)
(-6.80389e-05 -1.06163e-05 -2.20081e-05)
(-5.11271e-05 -8.4396e-06 -1.65026e-05)
(-4.28152e-05 -5.37733e-06 -1.17229e-05)
(-4.10326e-05 -5.65853e-07 -6.81975e-06)
(-3.63488e-05 5.1845e-06 -1.16253e-06)
(-1.02202e-07 -0.000444454 -6.35644e-05)
(-0.000190305 -0.000253677 -6.40058e-05)
(-0.000169553 -0.000118361 -4.96392e-05)
(-0.000119953 -5.78496e-05 -3.7079e-05)
(-8.20892e-05 -3.14766e-05 -2.81123e-05)
(-5.79703e-05 -2.01789e-05 -2.18957e-05)
(-4.4369e-05 -1.43015e-05 -1.7128e-05)
(-3.63525e-05 -1.00075e-05 -1.28415e-05)
(-3.23171e-05 -4.93761e-06 -8.42125e-06)
(-2.77929e-05 1.37295e-06 -3.24009e-06)
(1.98941e-05 -0.000228541 -3.91359e-05)
(-8.1286e-05 -0.000164083 -4.28545e-05)
(-9.82171e-05 -9.55539e-05 -3.77593e-05)
(-8.31894e-05 -5.5609e-05 -3.10175e-05)
(-6.26986e-05 -3.41899e-05 -2.51704e-05)
(-4.73938e-05 -2.30517e-05 -2.06011e-05)
(-3.74901e-05 -1.67243e-05 -1.67766e-05)
(-3.05056e-05 -1.23115e-05 -1.30886e-05)
(-2.59412e-05 -8.6395e-06 -9.11481e-06)
(-2.12389e-05 -4.06567e-06 -4.29767e-06)
(2.45873e-05 -0.000138246 -2.62717e-05)
(-3.73091e-05 -0.00011206 -3.01992e-05)
(-5.94725e-05 -7.47738e-05 -2.86829e-05)
(-5.69378e-05 -4.81235e-05 -2.53433e-05)
(-4.75341e-05 -3.18313e-05 -2.18749e-05)
(-3.82803e-05 -2.24625e-05 -1.87403e-05)
(-3.1434e-05 -1.68678e-05 -1.58306e-05)
(-2.64156e-05 -1.34084e-05 -1.26724e-05)
(-2.20191e-05 -1.08031e-05 -9.01741e-06)
(-1.76723e-05 -8.79305e-06 -4.53321e-06)
(2.04623e-05 -9.90324e-05 -1.88705e-05)
(-1.5346e-05 -8.35127e-05 -2.20715e-05)
(-3.57149e-05 -5.97153e-05 -2.21645e-05)
(-4.02716e-05 -4.10529e-05 -2.07833e-05)
(-3.64049e-05 -2.87271e-05 -1.883e-05)
(-3.14867e-05 -2.09176e-05 -1.67923e-05)
(-2.75019e-05 -1.6401e-05 -1.45277e-05)
(-2.36682e-05 -1.37847e-05 -1.17793e-05)
(-2.06493e-05 -1.29891e-05 -8.41806e-06)
(-1.74182e-05 -1.31922e-05 -3.99493e-06)
(2.38829e-05 -8.14942e-05 -1.34851e-05)
(-3.30161e-06 -6.86704e-05 -1.6635e-05)
(-2.18208e-05 -5.14151e-05 -1.74599e-05)
(-2.83287e-05 -3.71421e-05 -1.71174e-05)
(-2.86068e-05 -2.69454e-05 -1.6124e-05)
(-2.65536e-05 -2.04712e-05 -1.47415e-05)
(-2.47317e-05 -1.68477e-05 -1.29817e-05)
(-2.34457e-05 -1.52753e-05 -1.05146e-05)
(-2.20381e-05 -1.60278e-05 -7.17429e-06)
(-1.97531e-05 -1.86536e-05 -2.78142e-06)
(2.70267e-05 -7.4457e-05 -9.31323e-06)
(7.01555e-06 -6.30513e-05 -1.23639e-05)
(-1.04944e-05 -4.82853e-05 -1.36178e-05)
(-1.94018e-05 -3.64586e-05 -1.38366e-05)
(-2.18817e-05 -2.73503e-05 -1.33437e-05)
(-2.26869e-05 -2.19604e-05 -1.24012e-05)
(-2.33328e-05 -1.88445e-05 -1.08594e-05)
(-2.38903e-05 -1.86447e-05 -8.51866e-06)
(-2.55232e-05 -2.05299e-05 -5.27209e-06)
(-2.56152e-05 -2.5359e-05 -6.90812e-07)
(3.85697e-05 -7.40637e-05 -5.30111e-06)
(1.57231e-05 -6.50968e-05 -8.4247e-06)
(-1.58554e-06 -5.05547e-05 -9.91646e-06)
(-1.12344e-05 -3.77879e-05 -1.04572e-05)
(-1.63275e-05 -2.89582e-05 -1.02786e-05)
(-1.92257e-05 -2.38778e-05 -9.45299e-06)
(-2.23388e-05 -2.21232e-05 -8.05539e-06)
(-2.61489e-05 -2.34144e-05 -5.69256e-06)
(-3.08182e-05 -2.74474e-05 -2.36218e-06)
(-3.4808e-05 -3.18542e-05 2.2865e-06)
(2.07054e-05 -6.32468e-05 -1.69292e-06)
(1.92145e-05 -6.04698e-05 -3.93157e-06)
(7.84698e-06 -4.93588e-05 -5.79338e-06)
(-2.92795e-06 -3.70662e-05 -6.64732e-06)
(-1.04696e-05 -2.84162e-05 -6.60597e-06)
(-1.64351e-05 -2.37833e-05 -5.82104e-06)
(-2.26615e-05 -2.29e-05 -4.20914e-06)
(-2.86582e-05 -2.56728e-05 -1.60359e-06)
(-3.44832e-05 -3.20736e-05 1.86618e-06)
(-3.12841e-05 -3.0041e-05 5.70785e-06)
(6.30358e-05 0.000698338 3.57697e-05)
(-0.00233119 3.02102e-05 0.000257183)
(-0.0012533 8.21284e-05 0.000189747)
(-0.000668792 9.49232e-05 0.000149934)
(-0.000355112 5.11722e-05 0.000116413)
(-0.000205233 3.18932e-05 9.31285e-05)
(-0.000118507 -1.84973e-06 7.92089e-05)
(-6.90558e-05 -1.39495e-05 7.37578e-05)
(-2.3045e-05 -2.50463e-05 7.47611e-05)
(1.33844e-05 -3.06328e-05 8.54673e-05)
(-0.000782468 -0.0018872 0.000221972)
(-0.00135163 -0.000766043 0.000219946)
(-0.000935714 -0.000268274 0.000167488)
(-0.000577293 -5.04145e-05 0.000126499)
(-0.000344782 5.20759e-06 9.66246e-05)
(-0.000208432 1.89041e-05 7.735e-05)
(-0.00013261 1.58779e-05 6.65535e-05)
(-7.66988e-05 9.38468e-06 6.27162e-05)
(-3.40704e-05 4.159e-06 6.54934e-05)
(-3.55165e-06 -1.13108e-06 7.48403e-05)
(-0.000376504 -0.00112451 0.000161747)
(-0.000790954 -0.000602561 0.000158201)
(-0.000644599 -0.000245989 0.000134476)
(-0.000452325 -8.12878e-05 0.000105075)
(-0.000304213 -1.25016e-05 8.13292e-05)
(-0.000198395 7.87182e-06 6.58499e-05)
(-0.00012814 1.35294e-05 5.7784e-05)
(-7.9439e-05 1.30207e-05 5.56069e-05)
(-3.55339e-05 1.02038e-05 5.7848e-05)
(1.61898e-06 8.61317e-06 6.60059e-05)
(-0.000189361 -0.000699711 0.000136719)
(-0.000428205 -0.000412524 0.000119137)
(-0.000436321 -0.000196678 0.000102496)
(-0.000361113 -7.58582e-05 8.38925e-05)
(-0.000262212 -1.88851e-05 6.73965e-05)
(-0.000183909 4.14495e-06 5.64386e-05)
(-0.000126089 1.11022e-05 5.08694e-05)
(-7.73371e-05 1.21246e-05 4.96032e-05)
(-3.58938e-05 1.06602e-05 5.20202e-05)
(2.26052e-06 7.8281e-06 5.87234e-05)
(-4.87064e-05 -0.000443438 0.000116543)
(-0.000259373 -0.000295745 9.45767e-05)
(-0.000310324 -0.000159874 8.04788e-05)
(-0.000279511 -7.01314e-05 6.71487e-05)
(-0.000227275 -2.13681e-05 5.59692e-05)
(-0.000169819 -4.89844e-07 4.86471e-05)
(-0.000119914 8.46085e-06 4.53311e-05)
(-7.83727e-05 1.02233e-05 4.53308e-05)
(-3.76526e-05 9.52295e-06 4.81132e-05)
(1.59752e-06 8.22491e-06 5.40704e-05)
(-6.52301e-06 -0.000326755 0.000104898)
(-0.000138932 -0.000230721 8.2542e-05)
(-0.000212465 -0.000135127 6.76838e-05)
(-0.000223632 -6.73627e-05 5.68388e-05)
(-0.000193148 -2.88608e-05 4.84888e-05)
(-0.000154918 -6.33389e-06 4.35131e-05)
(-0.00011586 2.12848e-06 4.19821e-05)
(-7.62777e-05 5.64391e-06 4.32373e-05)
(-3.74899e-05 6.35151e-06 4.64838e-05)
(2.76218e-06 7.66461e-06 5.33662e-05)
(4.81615e-05 -0.000255672 0.000100077)
(-7.50575e-05 -0.000193049 7.72894e-05)
(-0.000149198 -0.00012952 6.26413e-05)
(-0.000171949 -7.74203e-05 5.19798e-05)
(-0.000164977 -4.34116e-05 4.4822e-05)
(-0.000138972 -2.3193e-05 4.1139e-05)
(-0.000108902 -1.1654e-05 4.07148e-05)
(-7.57121e-05 -5.27035e-06 4.29412e-05)
(-3.7678e-05 -2.61874e-06 4.80464e-05)
(6.3895e-06 2.69812e-06 5.61715e-05)
(5.90865e-05 -0.000214221 0.00010178)
(-2.60578e-05 -0.000181181 7.90763e-05)
(-0.000100335 -0.000133253 6.27739e-05)
(-0.00013553 -0.000100458 5.18157e-05)
(-0.000136951 -6.98979e-05 4.45411e-05)
(-0.000123354 -5.08611e-05 4.11267e-05)
(-0.000100054 -3.39721e-05 4.15439e-05)
(-7.12294e-05 -2.39497e-05 4.50098e-05)
(-3.50476e-05 -1.44441e-05 5.12424e-05)
(7.08991e-06 -7.8387e-06 6.23365e-05)
(7.09107e-05 -0.00016927 0.000108583)
(-9.87647e-06 -0.000167892 8.51761e-05)
(-7.32788e-05 -0.000147973 6.831e-05)
(-0.000106589 -0.000121916 5.56109e-05)
(-0.000112716 -0.000100156 4.73907e-05)
(-0.000103163 -7.81142e-05 4.39078e-05)
(-8.4912e-05 -5.72931e-05 4.43509e-05)
(-6.21494e-05 -3.86736e-05 4.89513e-05)
(-2.94658e-05 -2.35244e-05 5.70907e-05)
(2.52336e-06 -8.31503e-06 7.01289e-05)
(1.89674e-05 -0.000124558 0.000121159)
(-2.09618e-05 -0.000166049 9.83993e-05)
(-5.80295e-05 -0.000154559 7.92099e-05)
(-8.46728e-05 -0.000136912 6.39348e-05)
(-8.92515e-05 -0.000117107 5.3921e-05)
(-7.95162e-05 -9.54784e-05 4.95189e-05)
(-6.29268e-05 -6.83505e-05 5.07429e-05)
(-4.40569e-05 -4.40033e-05 5.66837e-05)
(-1.39608e-05 -2.62838e-05 6.61669e-05)
(1.60204e-05 -4.34332e-06 8.15102e-05)
(-0.000392427 -0.000175468 0.000491961)
(3.01193e-05 -6.74909e-05 0.000327888)
(-0.00069483 -0.000157099 0.000202955)
(-0.000412133 -6.19743e-05 0.000163045)
(-0.000253249 -2.07023e-05 0.00012998)
(-0.00015669 4.48809e-06 0.000101886)
(-8.4947e-05 5.20793e-06 7.78826e-05)
(-3.16951e-05 4.15788e-07 5.80741e-05)
(2.04397e-05 -1.00621e-05 4.10643e-05)
(6.07473e-05 -3.59099e-05 3.119e-05)
(-0.000276954 0.000241188 0.000301586)
(-0.000602518 -0.000389778 0.000261259)
(-0.000548893 -0.000152808 0.000203248)
(-0.000359503 -4.37551e-05 0.000163378)
(-0.000223836 -9.50582e-07 0.000130819)
(-0.000136482 2.27501e-05 0.000104147)
(-8.02527e-05 3.35671e-05 8.22627e-05)
(-3.42953e-05 3.34291e-05 6.27654e-05)
(3.59369e-06 2.56025e-05 4.44728e-05)
(2.98335e-05 3.28452e-06 2.82689e-05)
(-0.000348497 -0.000519273 0.000164882)
(-0.000367432 -0.000358098 0.000186723)
(-0.000355051 -0.000149182 0.000172897)
(-0.00027722 -4.19786e-05 0.000147031)
(-0.000190451 8.40391e-06 0.000121287)
(-0.000121796 2.95179e-05 9.93988e-05)
(-7.33034e-05 3.83667e-05 8.04617e-05)
(-3.86983e-05 3.76685e-05 6.24745e-05)
(-8.47759e-06 2.68139e-05 4.37908e-05)
(1.34369e-05 6.91513e-06 2.50529e-05)
(-0.000222508 -0.000308468 0.000125851)
(-0.000234789 -0.000220806 0.000138408)
(-0.000236831 -0.000115207 0.00013492)
(-0.000206395 -3.57091e-05 0.000121559)
(-0.00015409 9.04589e-06 0.000104778)
(-0.000106434 3.00389e-05 8.88975e-05)
(-7.04041e-05 3.74472e-05 7.38917e-05)
(-4.20101e-05 3.63515e-05 5.79195e-05)
(-1.98961e-05 2.93534e-05 3.9862e-05)
(-6.08834e-06 1.34219e-05 1.95305e-05)
(-0.000135023 -0.000191133 0.000100525)
(-0.000166326 -0.00013125 0.000103809)
(-0.000171831 -7.33203e-05 0.000102968)
(-0.000155196 -2.3377e-05 9.60399e-05)
(-0.000125935 9.46296e-06 8.61395e-05)
(-9.37491e-05 2.54767e-05 7.5593e-05)
(-6.62181e-05 3.21833e-05 6.45471e-05)
(-4.42902e-05 3.29592e-05 5.09487e-05)
(-2.7144e-05 2.94467e-05 3.35266e-05)
(-1.63522e-05 2.4477e-05 1.29768e-05)
(-9.18459e-05 -0.000117353 8.37517e-05)
(-0.000118254 -7.75157e-05 8.09486e-05)
(-0.000130386 -4.24016e-05 7.87989e-05)
(-0.000124537 -1.24795e-05 7.51215e-05)
(-0.000105678 7.01912e-06 6.92755e-05)
(-8.40353e-05 1.89493e-05 6.27303e-05)
(-6.28782e-05 2.35878e-05 5.45365e-05)
(-4.3997e-05 2.57193e-05 4.30167e-05)
(-2.67004e-05 2.90107e-05 2.71382e-05)
(-1.06452e-05 3.58921e-05 6.8215e-06)
(-7.47236e-05 -5.77306e-05 7.10934e-05)
(-9.49839e-05 -4.04322e-05 6.45369e-05)
(-0.000107145 -2.46493e-05 6.14653e-05)
(-0.00010495 -9.98747e-06 5.83509e-05)
(-9.37392e-05 -2.9583e-08 5.46372e-05)
(-7.71828e-05 6.08698e-06 5.01278e-05)
(-6.01783e-05 1.02696e-05 4.44247e-05)
(-4.02735e-05 1.50978e-05 3.4869e-05)
(-1.92841e-05 2.41707e-05 2.02714e-05)
(8.11805e-06 4.36888e-05 1.48796e-06)
(-9.02282e-05 -8.39426e-06 6.09963e-05)
(-8.87911e-05 -1.54896e-05 5.21366e-05)
(-9.99262e-05 -1.33662e-05 4.69594e-05)
(-9.82235e-05 -1.61572e-05 4.35375e-05)
(-8.83313e-05 -1.44702e-05 4.00136e-05)
(-7.38159e-05 -1.33409e-05 3.68982e-05)
(-5.56331e-05 -8.19444e-06 3.23343e-05)
(-3.38807e-05 6.69524e-07 2.44229e-05)
(-4.7721e-06 1.67781e-05 1.21253e-05)
(3.73847e-05 4.49636e-05 -4.12022e-06)
(-0.000114491 3.9397e-05 5.10607e-05)
(-0.000103101 1.15703e-05 4.00242e-05)
(-0.000109108 -6.96283e-06 3.3306e-05)
(-0.000104966 -2.39532e-05 2.8223e-05)
(-8.99797e-05 -3.46659e-05 2.43261e-05)
(-7.14875e-05 -3.63471e-05 2.10335e-05)
(-4.89281e-05 -2.9145e-05 1.75406e-05)
(-2.12202e-05 -1.32573e-05 1.13239e-05)
(1.27508e-05 8.58681e-06 1.44824e-06)
(6.17801e-05 4.38455e-05 -1.03351e-05)
(-0.000145308 7.51026e-05 4.45465e-05)
(-0.000137193 2.66506e-05 2.9237e-05)
(-0.000138353 -2.33715e-06 1.96758e-05)
(-0.000125587 -3.46483e-05 1.24222e-05)
(-0.000100131 -5.34264e-05 7.06147e-06)
(-6.88739e-05 -5.81068e-05 3.51116e-06)
(-3.53156e-05 -4.39985e-05 5.30973e-07)
(-1.4995e-06 -1.73924e-05 -3.84379e-06)
(3.82824e-05 8.26982e-06 -9.91035e-06)
(8.88995e-05 4.91911e-05 -1.37337e-05)
(-1.69161e-05 9.92155e-05 0.000264505)
(-0.000564504 -7.47549e-06 9.29101e-05)
(-0.000451491 0.000101458 7.86069e-05)
(-0.000213097 0.000182414 0.000101448)
(-0.000199427 0.000211503 0.000107232)
(-0.000200793 0.000238058 0.00010229)
(-0.000195337 0.000249073 8.96755e-05)
(-0.000191727 0.000249726 7.08701e-05)
(-0.000192371 0.000236029 4.64785e-05)
(-0.000218598 0.000199581 2.16323e-05)
(-8.96552e-05 -0.00044671 7.09287e-05)
(-0.000333094 -0.000214393 7.83262e-05)
(-0.000273634 6.1514e-05 9.98939e-05)
(-0.000212007 0.000102941 0.000117491)
(-0.000191773 0.000118089 0.000120634)
(-0.000181648 0.000136557 0.000114081)
(-0.00018117 0.000151413 0.000100771)
(-0.000186945 0.000154182 7.98822e-05)
(-0.000204157 0.000145509 5.16483e-05)
(-0.000257093 0.000121886 1.80929e-05)
(2.56071e-05 -0.00036047 2.92039e-05)
(-5.0843e-05 -0.000178269 7.45359e-05)
(-0.000147505 -4.65707e-05 0.000103273)
(-0.000173398 8.14075e-06 0.000118487)
(-0.000168931 4.19842e-05 0.000121625)
(-0.000163325 6.5097e-05 0.000115863)
(-0.000168012 7.99137e-05 0.000102966)
(-0.000185073 8.55547e-05 8.19351e-05)
(-0.000214287 8.02737e-05 5.20965e-05)
(-0.000275502 6.29676e-05 1.4924e-05)
(8.13782e-05 -0.000127649 3.55035e-05)
(-5.95456e-06 -0.000133069 7.27792e-05)
(-8.91443e-05 -9.31002e-05 9.71925e-05)
(-0.000127118 -4.55395e-05 0.000110335)
(-0.000135618 -8.59531e-06 0.000113819)
(-0.000141619 1.60416e-05 0.000109622)
(-0.000156522 3.24257e-05 9.79296e-05)
(-0.000181187 3.93047e-05 7.75546e-05)
(-0.000223162 3.63849e-05 4.81646e-05)
(-0.00029336 2.49644e-05 9.04306e-06)
(8.55422e-05 -0.000109962 3.59751e-05)
(-7.5452e-07 -0.00011959 6.5028e-05)
(-5.87315e-05 -0.000100368 8.57076e-05)
(-8.96376e-05 -6.87082e-05 9.77442e-05)
(-0.000107495 -3.95627e-05 0.000101455)
(-0.00012158 -1.84242e-05 9.82466e-05)
(-0.000143664 -5.08161e-06 8.85817e-05)
(-0.000179999 1.26549e-06 6.95685e-05)
(-0.000229721 8.58628e-07 3.99142e-05)
(-0.000303501 -6.12713e-06 9.32475e-07)
(7.81952e-05 -0.00011366 3.03827e-05)
(6.77627e-06 -0.000114483 5.38906e-05)
(-3.82878e-05 -0.000102904 7.24984e-05)
(-6.67781e-05 -8.2984e-05 8.33828e-05)
(-8.54424e-05 -6.46426e-05 8.72924e-05)
(-0.000107042 -4.96795e-05 8.57451e-05)
(-0.00013683 -4.01123e-05 7.70686e-05)
(-0.000175263 -3.48253e-05 5.91565e-05)
(-0.000230977 -3.3242e-05 3.10983e-05)
(-0.000305939 -3.40973e-05 -8.3996e-06)
(7.10929e-05 -0.000119841 2.13394e-05)
(7.977e-06 -0.000120113 4.11697e-05)
(-2.83179e-05 -0.000117311 5.71203e-05)
(-5.1645e-05 -0.000108829 6.7537e-05)
(-7.40786e-05 -0.000100031 7.1908e-05)
(-9.7027e-05 -9.16206e-05 7.08759e-05)
(-0.000128983 -8.48932e-05 6.42413e-05)
(-0.000173111 -7.93128e-05 4.7975e-05)
(-0.000228111 -7.33531e-05 2.0248e-05)
(-0.000297617 -6.46714e-05 -1.80234e-05)
(5.2005e-05 -0.000135182 6.18717e-06)
(6.06992e-06 -0.000145495 2.3048e-05)
(-2.72493e-05 -0.00015003 3.7663e-05)
(-4.85612e-05 -0.000156757 4.72666e-05)
(-6.75776e-05 -0.00015548 5.1795e-05)
(-9.20259e-05 -0.000153263 5.23874e-05)
(-0.000125196 -0.000146757 4.67736e-05)
(-0.000164308 -0.000137902 3.22058e-05)
(-0.000215089 -0.000122573 7.26393e-06)
(-0.000277241 -0.000100897 -2.9106e-05)
(4.00301e-05 -0.000160703 -1.43477e-05)
(-6.61402e-06 -0.000186087 -1.32143e-06)
(-3.77459e-05 -0.000207284 1.11268e-05)
(-5.44257e-05 -0.000223998 2.05684e-05)
(-6.91895e-05 -0.000232709 2.5852e-05)
(-8.87143e-05 -0.000233452 2.73845e-05)
(-0.000115549 -0.000225039 2.40847e-05)
(-0.00015152 -0.00020899 1.20449e-05)
(-0.000193253 -0.000184825 -1.00276e-05)
(-0.000249387 -0.000146615 -3.99044e-05)
(1.40552e-05 -0.000206476 -3.50069e-05)
(-3.51528e-05 -0.000258646 -3.13047e-05)
(-5.97462e-05 -0.000283782 -2.15814e-05)
(-6.8178e-05 -0.000309622 -1.2377e-05)
(-7.46899e-05 -0.000323979 -5.89631e-06)
(-8.55797e-05 -0.000326878 -2.33044e-06)
(-0.000105158 -0.0003155 -3.59885e-06)
(-0.000128855 -0.000290258 -1.25263e-05)
(-0.000157869 -0.000257122 -2.82621e-05)
(-0.000191102 -0.000200746 -4.73917e-05)
(0.000163682 0.000135639 0.000253664)
(0.000166325 0.000213427 0.000202064)
(0.000174434 0.000337578 0.000192912)
(0.000159953 0.000362009 0.000203801)
(-2.0659e-05 0.000357317 0.000209843)
(-0.000141371 0.000370385 0.000214054)
(-0.000227465 0.000383214 0.00021383)
(-0.000302937 0.000389558 0.000207405)
(-0.000376524 0.000370992 0.000194239)
(-0.000472752 0.000338347 0.000183124)
(0.000277005 0.000131457 0.000179511)
(0.000266276 0.000232839 0.000181989)
(0.000214011 0.000308832 0.000185584)
(8.90055e-05 0.000234056 0.000193067)
(-3.97433e-05 0.000208139 0.000198113)
(-0.000133297 0.000209424 0.000201082)
(-0.000216611 0.000219138 0.000200426)
(-0.000299251 0.000220716 0.000193615)
(-0.000393119 0.000208966 0.000180875)
(-0.00053495 0.000180616 0.000167207)
(0.000392394 0.00013871 0.000143747)
(0.000348802 0.000179725 0.000162569)
(0.000179853 0.00014613 0.000172609)
(5.36212e-05 0.000103428 0.000182139)
(-4.5825e-05 9.50524e-05 0.000189073)
(-0.00012788 0.000100958 0.000192263)
(-0.000208843 0.000108625 0.000191525)
(-0.000302992 0.000112989 0.00018496)
(-0.000413391 0.000108624 0.000171981)
(-0.000569112 9.11582e-05 0.000156799)
(0.000394413 0.000169867 0.000133435)
(0.000271847 8.40699e-05 0.000152063)
(0.000138403 3.71773e-05 0.000164762)
(3.74118e-05 1.94211e-05 0.000174964)
(-4.23949e-05 1.83799e-05 0.000181829)
(-0.000119568 2.54006e-05 0.000185065)
(-0.000204247 3.58203e-05 0.000183897)
(-0.000300312 4.12363e-05 0.000176912)
(-0.000423294 3.99653e-05 0.0001643)
(-0.000582909 3.32087e-05 0.000147891)
(0.00036353 2.58059e-05 0.000125219)
(0.000225322 -1.5746e-05 0.000145102)
(0.000118045 -3.4008e-05 0.000159842)
(3.57658e-05 -3.92782e-05 0.00017022)
(-3.98284e-05 -3.653e-05 0.000176254)
(-0.000111219 -2.8677e-05 0.000178582)
(-0.000194933 -2.10724e-05 0.000177232)
(-0.000302744 -1.6592e-05 0.000170126)
(-0.000430631 -1.76007e-05 0.000157059)
(-0.000587697 -2.44614e-05 0.000140738)
(0.000344031 -7.77914e-05 0.000120602)
(0.000215224 -8.80763e-05 0.000140734)
(0.000116515 -9.33224e-05 0.000156734)
(3.57813e-05 -9.14562e-05 0.000166793)
(-3.15727e-05 -8.69687e-05 0.000172053)
(-0.000104745 -7.9877e-05 0.000174139)
(-0.000193611 -7.38799e-05 0.000172194)
(-0.000298974 -7.09869e-05 0.000164832)
(-0.000434435 -7.1962e-05 0.000152209)
(-0.000596611 -7.9649e-05 0.000135819)
(0.000352507 -0.000160994 0.000119279)
(0.000209941 -0.000158707 0.000138551)
(0.000115544 -0.000162066 0.000153891)
(4.31023e-05 -0.000159898 0.000163783)
(-2.76194e-05 -0.000155393 0.000168795)
(-9.81626e-05 -0.000149068 0.000170364)
(-0.000186136 -0.000142559 0.000168697)
(-0.000299949 -0.000137383 0.000161477)
(-0.000436106 -0.000134067 0.000148743)
(-0.000601655 -0.000134189 0.000132957)
(0.00035244 -0.000245087 0.000117934)
(0.000211876 -0.000251552 0.000134764)
(0.000117408 -0.000256492 0.000149865)
(4.49427e-05 -0.000260231 0.00015944)
(-1.9382e-05 -0.000255183 0.000164439)
(-9.17655e-05 -0.000247395 0.000166487)
(-0.000181486 -0.000237072 0.000164721)
(-0.000287477 -0.000224885 0.000158009)
(-0.000422123 -0.000207271 0.000145933)
(-0.000586464 -0.000183733 0.000131169)
(0.000342215 -0.00033627 0.000115525)
(0.000198566 -0.000365679 0.000129649)
(0.000112825 -0.000386727 0.000143576)
(5.00779e-05 -0.000390287 0.000153766)
(-1.20904e-05 -0.000383653 0.000159358)
(-7.99881e-05 -0.000371701 0.000161768)
(-0.000164123 -0.000353817 0.000160933)
(-0.000267532 -0.000331296 0.00015462)
(-0.000384029 -0.00029584 0.00014315)
(-0.000534194 -0.000243629 0.000131193)
(0.000284044 -0.000435059 0.000117964)
(0.000166862 -0.000509036 0.000126302)
(0.000106493 -0.00053937 0.000139107)
(5.9884e-05 -0.000543927 0.000149397)
(4.39658e-06 -0.000531895 0.000155993)
(-6.20571e-05 -0.000512465 0.000159398)
(-0.000143633 -0.000489052 0.00015905)
(-0.00022835 -0.000451644 0.000153932)
(-0.000323316 -0.00039466 0.00014488)
(-0.000423535 -0.000322429 0.000137242)
(0.000291238 0.000113959 0.000615429)
(0.000456825 0.000209262 0.000526025)
(0.00045119 0.000288405 0.000456051)
(0.000334824 0.000245033 0.000415921)
(0.000111804 0.000209171 0.000395326)
(-3.47304e-05 0.000207428 0.000389986)
(-0.000159559 0.000225011 0.000393243)
(-0.000276274 0.000252527 0.000399995)
(-0.000366735 0.000253927 0.000408471)
(-0.000447558 0.000243126 0.000428522)
(0.000466291 0.000281153 0.000515601)
(0.000504724 0.000324278 0.000463979)
(0.000408958 0.000288555 0.000405674)
(0.000240584 0.000173284 0.000368359)
(8.52744e-05 0.000138534 0.000350196)
(-3.36398e-05 0.000129568 0.000346274)
(-0.000149248 0.000136052 0.000350585)
(-0.000265934 0.000143544 0.000360255)
(-0.000379508 0.00014321 0.000375255)
(-0.000527915 0.000118353 0.000401019)
(0.000543853 0.000307859 0.000431309)
(0.000483685 0.00027162 0.000395248)
(0.00031735 0.000175236 0.000355725)
(0.00018981 0.000106367 0.000330798)
(7.11362e-05 8.28207e-05 0.00031901)
(-3.84029e-05 7.49807e-05 0.000316901)
(-0.000148571 7.25777e-05 0.000323012)
(-0.000272303 7.34092e-05 0.000335146)
(-0.000403567 7.02163e-05 0.000352781)
(-0.000570685 5.13329e-05 0.000382116)
(0.000508255 0.000268295 0.000376678)
(0.000375569 0.000170298 0.000348164)
(0.000251203 0.000107695 0.000322868)
(0.00015236 6.66658e-05 0.000306435)
(5.54354e-05 4.31042e-05 0.000298345)
(-4.54928e-05 3.21709e-05 0.00029807)
(-0.000155703 2.88472e-05 0.000304447)
(-0.000277081 2.54862e-05 0.000317063)
(-0.000418089 2.12598e-05 0.000336891)
(-0.000587345 1.28343e-05 0.000367638)
(0.000469708 0.000108349 0.000342668)
(0.000333267 7.14177e-05 0.000320773)
(0.000219828 4.77587e-05 0.000303695)
(0.00012823 2.37749e-05 0.00029209)
(3.73913e-05 5.65817e-06 0.000286217)
(-5.39843e-05 -3.94511e-06 0.000286348)
(-0.000159176 -1.04112e-05 0.000292839)
(-0.000287236 -1.56909e-05 0.000305879)
(-0.000429183 -2.14426e-05 0.000326153)
(-0.000591383 -2.93882e-05 0.000357916)
(0.000450206 1.50654e-05 0.000326733)
(0.000317693 1.41979e-07 0.000307724)
(0.000205854 -1.41105e-05 0.000294666)
(0.000111609 -2.67979e-05 0.000285706)
(2.80529e-05 -3.81503e-05 0.000280968)
(-6.20618e-05 -4.57e-05 0.000281582)
(-0.000168906 -5.18264e-05 0.000287987)
(-0.000290737 -5.83911e-05 0.000300693)
(-0.000435714 -6.47865e-05 0.000321291)
(-0.000597988 -7.36397e-05 0.000353503)
(0.000445677 -6.2419e-05 0.000323291)
(0.00030253 -7.36502e-05 0.000304966)
(0.000192373 -8.61023e-05 0.000293834)
(0.000104123 -9.53487e-05 0.000286169)
(1.84995e-05 -0.000102657 0.000282277)
(-6.7389e-05 -0.000107746 0.000283072)
(-0.000170892 -0.00011245 0.00028927)
(-0.000297775 -0.000115723 0.000301819)
(-0.000439537 -0.000119116 0.0003219)
(-0.000600278 -0.00012053 0.000353658)
(0.000429493 -0.000147111 0.000328324)
(0.000288855 -0.000166526 0.000309966)
(0.000183031 -0.000180613 0.000299984)
(9.51357e-05 -0.000190616 0.000293579)
(1.57716e-05 -0.0001945 0.0002903)
(-7.13551e-05 -0.00019746 0.000291253)
(-0.00017471 -0.000197301 0.000297426)
(-0.00029175 -0.000195858 0.000309048)
(-0.000429038 -0.000186055 0.000327551)
(-0.000581229 -0.000164251 0.000357847)
(0.000396495 -0.000229525 0.000338845)
(0.000263383 -0.000269782 0.000322088)
(0.000168923 -0.000295986 0.000314177)
(9.20415e-05 -0.00030436 0.000309178)
(1.24758e-05 -0.000305783 0.000306486)
(-6.96765e-05 -0.00030551 0.000307732)
(-0.000167562 -0.000301021 0.000312983)
(-0.000280771 -0.000291823 0.000323391)
(-0.000394354 -0.000264757 0.000339022)
(-0.000523467 -0.000211936 0.000365064)
(0.000312095 -0.000306568 0.000360132)
(0.000217315 -0.000379826 0.000346699)
(0.00015278 -0.000417564 0.00034127)
(9.03463e-05 -0.000427404 0.000337077)
(1.66681e-05 -0.00042557 0.000334687)
(-6.62611e-05 -0.000421502 0.000335248)
(-0.000160574 -0.00041812 0.000339751)
(-0.000251505 -0.000399434 0.000348372)
(-0.000336678 -0.000349598 0.000360276)
(-0.000401058 -0.000271557 0.000381527)
(0.00010403 -8.61096e-05 0.00065766)
(0.000302992 -2.23147e-05 0.000559633)
(0.000289251 1.49372e-06 0.000458998)
(0.000195875 -5.69684e-05 0.000390759)
(5.66882e-05 -8.57094e-05 0.000350751)
(2.56146e-08 -8.25302e-05 0.000329722)
(-5.14504e-05 -7.05354e-05 0.000321626)
(-0.000109296 -5.32938e-05 0.000321212)
(-0.000120823 -5.19519e-05 0.000326205)
(-0.000116659 -4.19268e-05 0.000343531)
(0.000218967 0.000102177 0.000557363)
(0.000275169 7.88622e-05 0.000482822)
(0.000219538 9.68478e-06 0.000396029)
(0.000122931 -7.85006e-05 0.000334897)
(5.20639e-05 -8.69953e-05 0.000298556)
(7.18994e-06 -8.67849e-05 0.000280125)
(-4.34416e-05 -8.02676e-05 0.000273331)
(-9.17821e-05 -7.18132e-05 0.000276125)
(-0.000122694 -6.84419e-05 0.000287343)
(-0.000154756 -9.42255e-05 0.000311921)
(0.000259985 0.000109616 0.000448115)
(0.000220594 5.6551e-05 0.000390635)
(0.000143285 -2.05287e-05 0.000329756)
(0.000103739 -6.05378e-05 0.000284973)
(5.20261e-05 -6.78664e-05 0.000256098)
(5.63597e-06 -7.22977e-05 0.000240441)
(-3.98464e-05 -7.58362e-05 0.00023673)
(-9.91378e-05 -7.675e-05 0.000243059)
(-0.000145082 -8.21775e-05 0.000258796)
(-0.0001949 -0.000107922 0.0002899)
(0.000222261 8.11539e-05 0.000368934)
(0.000147347 1.97163e-05 0.000321605)
(0.000108197 -7.06376e-06 0.000278833)
(7.98208e-05 -3.1358e-05 0.000245161)
(4.2213e-05 -4.88952e-05 0.000221986)
(-2.31582e-06 -5.91757e-05 0.000209913)
(-5.24108e-05 -6.69354e-05 0.000208216)
(-0.000103791 -7.40025e-05 0.000217128)
(-0.000159149 -7.99861e-05 0.000237384)
(-0.000218357 -9.60541e-05 0.000273112)
(0.000206941 -4.46118e-06 0.000317863)
(0.000139057 -1.0448e-05 0.00027643)
(9.65321e-05 -1.20853e-05 0.000242097)
(6.4389e-05 -2.5987e-05 0.000215239)
(2.4825e-05 -4.08727e-05 0.000196668)
(-1.36137e-05 -5.16722e-05 0.00018716)
(-5.75714e-05 -6.02826e-05 0.000187538)
(-0.000116243 -6.7956e-05 0.000198872)
(-0.000172314 -7.61553e-05 0.000221818)
(-0.000227692 -8.67796e-05 0.000260746)
(0.000197298 -2.12289e-05 0.000287165)
(0.000140434 -2.46074e-05 0.000248084)
(9.37471e-05 -2.8045e-05 0.000218158)
(5.20663e-05 -3.58955e-05 0.000195334)
(1.67963e-05 -4.51461e-05 0.000179891)
(-2.21241e-05 -5.1976e-05 0.000172748)
(-6.96448e-05 -5.90132e-05 0.000174891)
(-0.000121001 -6.5852e-05 0.000187591)
(-0.000179067 -7.14029e-05 0.000212295)
(-0.000235735 -8.00412e-05 0.000252808)
(0.000195316 -3.74039e-05 0.000270386)
(0.000131636 -4.66291e-05 0.000232661)
(8.52751e-05 -5.57701e-05 0.000205523)
(4.75781e-05 -6.17813e-05 0.000185294)
(8.85126e-06 -6.69819e-05 0.000172189)
(-2.7392e-05 -7.09905e-05 0.00016683)
(-7.09916e-05 -7.25272e-05 0.000170072)
(-0.000127476 -7.44589e-05 0.000183835)
(-0.000184208 -7.68782e-05 0.00020885)
(-0.000236981 -7.59459e-05 0.00024896)
(0.000177687 -6.993e-05 0.000263619)
(0.000120949 -8.92616e-05 0.000227845)
(7.90362e-05 -9.98727e-05 0.00020319)
(4.13713e-05 -0.000107098 0.000185483)
(7.75394e-06 -0.000109547 0.000174293)
(-2.74661e-05 -0.000107777 0.00017021)
(-7.21096e-05 -0.000104564 0.000174737)
(-0.000122625 -9.87209e-05 0.000188181)
(-0.000175988 -8.95042e-05 0.00021185)
(-0.000219737 -7.15777e-05 0.000249494)
(0.000146243 -9.44692e-05 0.000264237)
(0.000100524 -0.000129121 0.000231855)
(6.87816e-05 -0.000150202 0.000211248)
(3.9245e-05 -0.000158165 0.000196366)
(8.7429e-06 -0.000158024 0.000187006)
(-2.19643e-05 -0.000153673 0.000184578)
(-6.07028e-05 -0.000143067 0.00018873)
(-0.000109144 -0.000126472 0.000201699)
(-0.000151693 -0.000101796 0.000222065)
(-0.000176777 -5.84812e-05 0.000253577)
(9.49172e-05 -0.000109115 0.000274714)
(6.30209e-05 -0.000159269 0.000248526)
(5.22454e-05 -0.000192871 0.000232959)
(3.58879e-05 -0.000207219 0.000221155)
(1.33583e-05 -0.000206289 0.000213919)
(-1.18806e-05 -0.00019745 0.000211865)
(-4.31791e-05 -0.000181517 0.000216129)
(-7.66061e-05 -0.000149297 0.000227016)
(-0.000100419 -9.61123e-05 0.000242753)
(-0.000100463 -3.7815e-05 0.000267222)
(4.64508e-05 -0.000223505 0.000218832)
(0.00019445 -0.00020634 0.000141636)
(0.000149353 -0.000221444 5.53711e-05)
(7.00425e-05 -0.00028129 -2.27043e-06)
(-1.9547e-05 -0.000297571 -3.59436e-05)
(-4.15581e-05 -0.000284231 -5.82301e-05)
(-7.50794e-05 -0.000263093 -7.47664e-05)
(-0.000124682 -0.000232557 -8.77714e-05)
(-0.000119432 -0.000219821 -9.98235e-05)
(-7.72216e-05 -0.000203267 -0.000105937)
(0.00010753 -9.23124e-05 0.000137269)
(0.000127682 -0.000155688 8.24761e-05)
(8.04141e-05 -0.000225128 1.2419e-05)
(2.26348e-05 -0.000282503 -3.74799e-05)
(-9.15234e-06 -0.000273027 -6.9939e-05)
(-2.68612e-05 -0.00026603 -9.23372e-05)
(-5.85948e-05 -0.000253868 -0.000109151)
(-9.43048e-05 -0.000235871 -0.000121571)
(-0.000102917 -0.000217075 -0.000132015)
(-7.96271e-05 -0.000226023 -0.00013498)
(0.00011029 -0.000100409 3.86374e-05)
(6.98795e-05 -0.000158192 2.4108e-06)
(3.17336e-05 -0.000210143 -4.04019e-05)
(2.68439e-05 -0.000226378 -7.6211e-05)
(1.00294e-06 -0.00022303 -0.000104032)
(-2.26688e-05 -0.000222717 -0.000124957)
(-4.77232e-05 -0.000220686 -0.000139907)
(-8.75384e-05 -0.000212038 -0.00015006)
(-0.000103533 -0.00019988 -0.000156095)
(-9.69126e-05 -0.000204126 -0.000152854)
(6.9803e-05 -0.000100762 -3.22201e-05)
(2.35839e-05 -0.000141101 -5.96305e-05)
(1.87974e-05 -0.000147601 -8.75127e-05)
(1.46708e-05 -0.000160997 -0.000114557)
(-2.95607e-06 -0.000172091 -0.000137884)
(-2.53977e-05 -0.000177543 -0.000155778)
(-5.20491e-05 -0.000180359 -0.000168058)
(-7.83526e-05 -0.000177891 -0.000174679)
(-9.68105e-05 -0.000168003 -0.000175698)
(-0.000101774 -0.000165082 -0.000166458)