/*--------------------------------*- C++ -*----------------------------------*\
| =========                 |                                                 |
| \\      /  F ield         | OpenFOAM: The Open Source CFD Toolbox           |
|  \\    /   O peration     | Version:  2406                                  |
|   \\  /    A nd           | Website:  www.openfoam.com                      |
|    \\/     M anipulation  |                                                 |
\*---------------------------------------------------------------------------*/
FoamFile
{
    version     2.0;
    format      ascii;
    arch        "LSB;label=32;scalar=64";
    class       volScalarField;
    location    "150";
    object      nuTilda;
}
// * * * * * * * * * * * * * * * * * * * * * * * * * * * * * * * * * * * * * //

dimensions      [0 2 -1 0 0 0 0];

internalField   nonuniform List<scalar> 
25000
(
3.96613e-05
3.97393e-05
3.9788e-05
3.98122e-05
3.98228e-05
3.98228e-05
3.98122e-05
3.97884e-05
3.97433e-05
3.96613e-05
3.97432e-05
3.98126e-05
3.98518e-05
3.98735e-05
3.9884e-05
3.9884e-05
3.98738e-05
3.98615e-05
3.98128e-05
3.97394e-05
3.97883e-05
3.98614e-05
3.98941e-05
3.99084e-05
3.99183e-05
3.99183e-05
3.99097e-05
3.98942e-05
3.98519e-05
3.97881e-05
3.98122e-05
3.98737e-05
3.99097e-05
3.99298e-05
3.99382e-05
3.9939e-05
3.99299e-05
3.99085e-05
3.98735e-05
3.98122e-05
3.98228e-05
3.9884e-05
3.99183e-05
3.9939e-05
3.99514e-05
3.99515e-05
3.99382e-05
3.99183e-05
3.9884e-05
3.98228e-05
3.98228e-05
3.9884e-05
3.99183e-05
3.99382e-05
3.99515e-05
3.99515e-05
3.99382e-05
3.99183e-05
3.9884e-05
3.98228e-05
3.98123e-05
3.98735e-05
3.99085e-05
3.99299e-05
3.99391e-05
3.99391e-05
3.99299e-05
3.99085e-05
3.98735e-05
3.98123e-05
3.97881e-05
3.98519e-05
3.98942e-05
3.99097e-05
3.99183e-05
3.99183e-05
3.99097e-05
3.98942e-05
3.98519e-05
3.97881e-05
3.97394e-05
3.98128e-05
3.98615e-05
3.98738e-05
3.9884e-05
3.9884e-05
3.98738e-05
3.98615e-05
3.98128e-05
3.97394e-05
3.96613e-05
3.97433e-05
3.97884e-05
3.98122e-05
3.98228e-05
3.98228e-05
3.98122e-05
3.97884e-05
3.97433e-05
3.96613e-05
3.8962e-05
3.921e-05
3.9358e-05
3.94329e-05
3.94656e-05
3.94656e-05
3.9433e-05
3.93596e-05
3.92202e-05
3.89621e-05
3.92199e-05
3.94354e-05
3.95543e-05
3.96197e-05
3.96512e-05
3.96512e-05
3.96213e-05
3.95797e-05
3.94357e-05
3.92103e-05
3.93594e-05
3.95795e-05
3.96806e-05
3.97256e-05
3.97546e-05
3.97549e-05
3.97292e-05
3.96808e-05
3.95545e-05
3.93581e-05
3.94329e-05
3.96212e-05
3.97291e-05
3.97892e-05
3.98149e-05
3.98171e-05
3.97893e-05
3.97257e-05
3.96198e-05
3.9433e-05
3.94656e-05
3.96512e-05
3.97548e-05
3.9817e-05
3.98536e-05
3.98537e-05
3.98149e-05
3.97547e-05
3.96512e-05
3.94656e-05
3.94656e-05
3.96512e-05
3.97546e-05
3.98149e-05
3.98537e-05
3.98537e-05
3.98149e-05
3.97547e-05
3.96512e-05
3.94656e-05
3.9433e-05
3.96198e-05
3.97257e-05
3.97893e-05
3.98172e-05
3.98172e-05
3.97893e-05
3.97257e-05
3.96198e-05
3.9433e-05
3.93581e-05
3.95545e-05
3.96808e-05
3.97292e-05
3.97549e-05
3.97549e-05
3.97292e-05
3.96808e-05
3.95545e-05
3.93581e-05
3.92103e-05
3.94357e-05
3.95797e-05
3.96213e-05
3.96512e-05
3.96512e-05
3.96213e-05
3.95797e-05
3.94357e-05
3.92103e-05
3.89621e-05
3.92202e-05
3.93596e-05
3.9433e-05
3.94656e-05
3.94656e-05
3.9433e-05
3.93596e-05
3.92202e-05
3.89621e-05
3.82541e-05
3.86786e-05
3.89261e-05
3.90532e-05
3.91084e-05
3.91085e-05
3.90533e-05
3.89295e-05
3.86934e-05
3.82541e-05
3.86931e-05
3.90583e-05
3.92577e-05
3.93666e-05
3.94188e-05
3.94189e-05
3.937e-05
3.92954e-05
3.90587e-05
3.86789e-05
3.89293e-05
3.92952e-05
3.94664e-05
3.95439e-05
3.95915e-05
3.9592e-05
3.95494e-05
3.94666e-05
3.92579e-05
3.89262e-05
3.90532e-05
3.93698e-05
3.95493e-05
3.96488e-05
3.96922e-05
3.96954e-05
3.96489e-05
3.9544e-05
3.93668e-05
3.90532e-05
3.91084e-05
3.94189e-05
3.95919e-05
3.96953e-05
3.97553e-05
3.97554e-05
3.96921e-05
3.95915e-05
3.94189e-05
3.91085e-05
3.91085e-05
3.94188e-05
3.95915e-05
3.96922e-05
3.97554e-05
3.97554e-05
3.96921e-05
3.95915e-05
3.94189e-05
3.91085e-05
3.90532e-05
3.93667e-05
3.9544e-05
3.96489e-05
3.96956e-05
3.96956e-05
3.9649e-05
3.9544e-05
3.93668e-05
3.90532e-05
3.89262e-05
3.92579e-05
3.94666e-05
3.95494e-05
3.9592e-05
3.9592e-05
3.95494e-05
3.94666e-05
3.92579e-05
3.89262e-05
3.86789e-05
3.90587e-05
3.92954e-05
3.937e-05
3.9419e-05
3.9419e-05
3.937e-05
3.92954e-05
3.90587e-05
3.86789e-05
3.82541e-05
3.86933e-05
3.89295e-05
3.90533e-05
3.91085e-05
3.91085e-05
3.90533e-05
3.89295e-05
3.86934e-05
3.82541e-05
3.75511e-05
3.81493e-05
3.84953e-05
3.86748e-05
3.87529e-05
3.8753e-05
3.86752e-05
3.85007e-05
3.81675e-05
3.75511e-05
3.81673e-05
3.86828e-05
3.89626e-05
3.91148e-05
3.91873e-05
3.91876e-05
3.91201e-05
3.90102e-05
3.86832e-05
3.81494e-05
3.85005e-05
3.90099e-05
3.92521e-05
3.93632e-05
3.94289e-05
3.94298e-05
3.93705e-05
3.92524e-05
3.89628e-05
3.84954e-05
3.86751e-05
3.91199e-05
3.93703e-05
3.95088e-05
3.95699e-05
3.95739e-05
3.95089e-05
3.93634e-05
3.91149e-05
3.86749e-05
3.87529e-05
3.91875e-05
3.94297e-05
3.95739e-05
3.96564e-05
3.96564e-05
3.95697e-05
3.94289e-05
3.91874e-05
3.8753e-05
3.87529e-05
3.91873e-05
3.94289e-05
3.95699e-05
3.96565e-05
3.96565e-05
3.95697e-05
3.94289e-05
3.91874e-05
3.8753e-05
3.86749e-05
3.91149e-05
3.93634e-05
3.95089e-05
3.95743e-05
3.95743e-05
3.95089e-05
3.93634e-05
3.91149e-05
3.86749e-05
3.84954e-05
3.89628e-05
3.92523e-05
3.93704e-05
3.94299e-05
3.94299e-05
3.93705e-05
3.92523e-05
3.89628e-05
3.84954e-05
3.81494e-05
3.86832e-05
3.90102e-05
3.91201e-05
3.91876e-05
3.91876e-05
3.91201e-05
3.90102e-05
3.86832e-05
3.81494e-05
3.75511e-05
3.81675e-05
3.85007e-05
3.86752e-05
3.8753e-05
3.8753e-05
3.86752e-05
3.85007e-05
3.81675e-05
3.75511e-05
3.68626e-05
3.76249e-05
3.80677e-05
3.82993e-05
3.84001e-05
3.84001e-05
3.82999e-05
3.80752e-05
3.7646e-05
3.68626e-05
3.76458e-05
3.83096e-05
3.86691e-05
3.88643e-05
3.89568e-05
3.89573e-05
3.88716e-05
3.87249e-05
3.831e-05
3.7625e-05
3.8075e-05
3.87246e-05
3.90378e-05
3.91834e-05
3.92669e-05
3.92681e-05
3.91921e-05
3.9038e-05
3.86694e-05
3.80678e-05
3.82999e-05
3.88714e-05
3.91919e-05
3.93689e-05
3.94478e-05
3.94525e-05
3.9369e-05
3.91836e-05
3.88644e-05
3.82994e-05
3.84001e-05
3.89572e-05
3.9268e-05
3.94524e-05
3.95568e-05
3.95568e-05
3.94474e-05
3.92668e-05
3.89568e-05
3.84001e-05
3.84001e-05
3.89568e-05
3.92669e-05
3.94478e-05
3.95568e-05
3.95569e-05
3.94474e-05
3.92668e-05
3.89568e-05
3.84001e-05
3.82993e-05
3.88644e-05
3.91835e-05
3.9369e-05
3.9453e-05
3.9453e-05
3.9369e-05
3.91836e-05
3.88644e-05
3.82993e-05
3.80678e-05
3.86694e-05
3.9038e-05
3.91921e-05
3.92682e-05
3.92682e-05
3.91921e-05
3.9038e-05
3.86694e-05
3.80678e-05
3.76249e-05
3.83099e-05
3.87248e-05
3.88716e-05
3.89573e-05
3.89573e-05
3.88716e-05
3.87248e-05
3.83099e-05
3.76249e-05
3.68625e-05
3.76459e-05
3.80751e-05
3.82999e-05
3.84001e-05
3.84001e-05
3.82999e-05
3.80752e-05
3.76459e-05
3.68625e-05
3.61897e-05
3.71058e-05
3.76433e-05
3.79265e-05
3.80499e-05
3.805e-05
3.79275e-05
3.76529e-05
3.71292e-05
3.61896e-05
3.71291e-05
3.79382e-05
3.83771e-05
3.86148e-05
3.87271e-05
3.87279e-05
3.86241e-05
3.84394e-05
3.79385e-05
3.71057e-05
3.76528e-05
3.84391e-05
3.88232e-05
3.90041e-05
3.91051e-05
3.91067e-05
3.90141e-05
3.88234e-05
3.83773e-05
3.76433e-05
3.79275e-05
3.8624e-05
3.90139e-05
3.9229e-05
3.93257e-05
3.93309e-05
3.9229e-05
3.90042e-05
3.86149e-05
3.79265e-05
3.805e-05
3.87278e-05
3.91066e-05
3.93308e-05
3.94564e-05
3.94564e-05
3.93251e-05
3.91049e-05
3.87271e-05
3.80499e-05
3.80499e-05
3.87271e-05
3.91051e-05
3.93257e-05
3.94564e-05
3.94564e-05
3.93251e-05
3.91049e-05
3.87271e-05
3.80499e-05
3.79265e-05
3.86149e-05
3.90042e-05
3.92291e-05
3.93315e-05
3.93315e-05
3.92291e-05
3.90042e-05
3.86149e-05
3.79265e-05
3.76433e-05
3.83772e-05
3.88234e-05
3.90141e-05
3.91068e-05
3.91068e-05
3.90141e-05
3.88234e-05
3.83772e-05
3.76432e-05
3.71057e-05
3.79385e-05
3.84393e-05
3.86241e-05
3.87279e-05
3.87279e-05
3.86241e-05
3.84393e-05
3.79385e-05
3.71056e-05
3.61895e-05
3.71291e-05
3.76528e-05
3.79275e-05
3.80499e-05
3.80499e-05
3.79275e-05
3.76528e-05
3.71291e-05
3.61894e-05
3.55287e-05
3.65902e-05
3.72203e-05
3.75549e-05
3.7701e-05
3.77011e-05
3.75564e-05
3.7232e-05
3.66155e-05
3.55286e-05
3.66156e-05
3.75674e-05
3.80853e-05
3.83657e-05
3.84977e-05
3.84988e-05
3.8377e-05
3.81529e-05
3.75676e-05
3.659e-05
3.72319e-05
3.81528e-05
3.8608e-05
3.88249e-05
3.89433e-05
3.89452e-05
3.8836e-05
3.86082e-05
3.80854e-05
3.72202e-05
3.75563e-05
3.83768e-05
3.88359e-05
3.90888e-05
3.92033e-05
3.92089e-05
3.90888e-05
3.88249e-05
3.83657e-05
3.75547e-05
3.7701e-05
3.84987e-05
3.89451e-05
3.92088e-05
3.93551e-05
3.93551e-05
3.92025e-05
3.8943e-05
3.84975e-05
3.77008e-05
3.77009e-05
3.84976e-05
3.89432e-05
3.92032e-05
3.93551e-05
3.93551e-05
3.92025e-05
3.8943e-05
3.84975e-05
3.77008e-05
3.75548e-05
3.83657e-05
3.88249e-05
3.90889e-05
3.92096e-05
3.92096e-05
3.90889e-05
3.88249e-05
3.83657e-05
3.75547e-05
3.72202e-05
3.80854e-05
3.86081e-05
3.8836e-05
3.89454e-05
3.89454e-05
3.8836e-05
3.86081e-05
3.80854e-05
3.72201e-05
3.659e-05
3.75675e-05
3.81528e-05
3.83769e-05
3.84988e-05
3.84988e-05
3.83769e-05
3.81528e-05
3.75675e-05
3.65899e-05
3.55284e-05
3.66153e-05
3.72318e-05
3.75562e-05
3.77009e-05
3.77009e-05
3.75562e-05
3.72318e-05
3.66153e-05
3.55284e-05
3.48798e-05
3.60778e-05
3.67978e-05
3.71832e-05
3.7352e-05
3.73522e-05
3.71852e-05
3.68113e-05
3.61045e-05
3.48795e-05
3.61046e-05
3.71963e-05
3.77932e-05
3.81164e-05
3.8268e-05
3.82694e-05
3.81295e-05
3.7865e-05
3.71963e-05
3.60774e-05
3.68112e-05
3.78649e-05
3.83918e-05
3.86454e-05
3.87811e-05
3.87834e-05
3.86575e-05
3.83919e-05
3.77932e-05
3.67974e-05
3.7185e-05
3.81294e-05
3.86574e-05
3.89483e-05
3.90805e-05
3.90865e-05
3.89482e-05
3.86454e-05
3.81163e-05
3.71829e-05
3.73519e-05
3.82692e-05
3.87833e-05
3.90864e-05
3.92529e-05
3.92529e-05
3.90796e-05
3.87807e-05
3.82677e-05
3.73517e-05
3.73517e-05
3.82678e-05
3.8781e-05
3.90804e-05
3.9253e-05
3.92529e-05
3.90795e-05
3.87807e-05
3.82677e-05
3.73516e-05
3.71829e-05
3.81163e-05
3.86454e-05
3.89483e-05
3.90873e-05
3.90873e-05
3.89483e-05
3.86453e-05
3.81162e-05
3.71828e-05
3.67973e-05
3.77931e-05
3.83918e-05
3.86575e-05
3.87837e-05
3.87837e-05
3.86575e-05
3.83918e-05
3.77931e-05
3.67973e-05
3.60772e-05
3.71961e-05
3.78649e-05
3.81294e-05
3.82694e-05
3.82694e-05
3.81294e-05
3.78649e-05
3.71961e-05
3.60772e-05
3.48791e-05
3.61042e-05
3.68111e-05
3.71849e-05
3.73519e-05
3.73519e-05
3.7185e-05
3.68111e-05
3.61043e-05
3.48792e-05
3.4248e-05
3.55702e-05
3.63762e-05
3.68116e-05
3.70029e-05
3.70032e-05
3.68141e-05
3.63915e-05
3.5598e-05
3.42476e-05
3.55983e-05
3.68252e-05
3.75007e-05
3.78667e-05
3.80379e-05
3.80396e-05
3.78816e-05
3.75758e-05
3.68249e-05
3.55696e-05
3.63915e-05
3.75758e-05
3.81747e-05
3.84656e-05
3.86187e-05
3.86213e-05
3.84786e-05
3.81746e-05
3.75004e-05
3.63757e-05
3.6814e-05
3.78815e-05
3.84786e-05
3.88073e-05
3.89573e-05
3.89636e-05
3.88072e-05
3.84654e-05
3.78665e-05
3.68111e-05
3.70029e-05
3.80395e-05
3.86212e-05
3.89635e-05
3.915e-05
3.91499e-05
3.89562e-05
3.86181e-05
3.80374e-05
3.70025e-05
3.70026e-05
3.80377e-05
3.86186e-05
3.89572e-05
3.91501e-05
3.91499e-05
3.89562e-05
3.86181e-05
3.80374e-05
3.70025e-05
3.68111e-05
3.78665e-05
3.84655e-05
3.88074e-05
3.89645e-05
3.89645e-05
3.88072e-05
3.84654e-05
3.78664e-05
3.6811e-05
3.63756e-05
3.75003e-05
3.81745e-05
3.84785e-05
3.86216e-05
3.86216e-05
3.84785e-05
3.81745e-05
3.75003e-05
3.63755e-05
3.55694e-05
3.68247e-05
3.75756e-05
3.78814e-05
3.80396e-05
3.80396e-05
3.78814e-05
3.75756e-05
3.68247e-05
3.55694e-05
3.42471e-05
3.55976e-05
3.63911e-05
3.68137e-05
3.70028e-05
3.70029e-05
3.68138e-05
3.63912e-05
3.55977e-05
3.42472e-05
3.36428e-05
3.50702e-05
3.59568e-05
3.64408e-05
3.66544e-05
3.66547e-05
3.64439e-05
3.59738e-05
3.50989e-05
3.36421e-05
3.50993e-05
3.64546e-05
3.72077e-05
3.76167e-05
3.78074e-05
3.78095e-05
3.76332e-05
3.72856e-05
3.64542e-05
3.50695e-05
3.59739e-05
3.72857e-05
3.79566e-05
3.82854e-05
3.84559e-05
3.84589e-05
3.82992e-05
3.79565e-05
3.72074e-05
3.59562e-05
3.64438e-05
3.76332e-05
3.82993e-05
3.8666e-05
3.88337e-05
3.88402e-05
3.86658e-05
3.82852e-05
3.76164e-05
3.64402e-05
3.66546e-05
3.78094e-05
3.84588e-05
3.88402e-05
3.90463e-05
3.90461e-05
3.88324e-05
3.84552e-05
3.78068e-05
3.66539e-05
3.66541e-05
3.78072e-05
3.84558e-05
3.88337e-05
3.90464e-05
3.90462e-05
3.88324e-05
3.84552e-05
3.78068e-05
3.66539e-05
3.64404e-05
3.76164e-05
3.82852e-05
3.8666e-05
3.88413e-05
3.88413e-05
3.86658e-05
3.82851e-05
3.76163e-05
3.64402e-05
3.59563e-05
3.72074e-05
3.79564e-05
3.82992e-05
3.84593e-05
3.84593e-05
3.82992e-05
3.79564e-05
3.72073e-05
3.59561e-05
3.50695e-05
3.64541e-05
3.72854e-05
3.7633e-05
3.78095e-05
3.78095e-05
3.7633e-05
3.72854e-05
3.6454e-05
3.50693e-05
3.36419e-05
3.50987e-05
3.59735e-05
3.64436e-05
3.66544e-05
3.66544e-05
3.64436e-05
3.59735e-05
3.50986e-05
3.36418e-05
3.30775e-05
3.45819e-05
3.55418e-05
3.60721e-05
3.63073e-05
3.63078e-05
3.60759e-05
3.55604e-05
3.46115e-05
3.3077e-05
3.46121e-05
3.60858e-05
3.6915e-05
3.73665e-05
3.75767e-05
3.75791e-05
3.73846e-05
3.69949e-05
3.60853e-05
3.45814e-05
3.55606e-05
3.69952e-05
3.7738e-05
3.81049e-05
3.82929e-05
3.82962e-05
3.81195e-05
3.77377e-05
3.69145e-05
3.55413e-05
3.6076e-05
3.73847e-05
3.81196e-05
3.85243e-05
3.87098e-05
3.87164e-05
3.8524e-05
3.81046e-05
3.73662e-05
3.60717e-05
3.63077e-05
3.75791e-05
3.82962e-05
3.87165e-05
3.89419e-05
3.89417e-05
3.87083e-05
3.8292e-05
3.7576e-05
3.63069e-05
3.63072e-05
3.75765e-05
3.82928e-05
3.87097e-05
3.8942e-05
3.89418e-05
3.87083e-05
3.8292e-05
3.7576e-05
3.63069e-05
3.60718e-05
3.73663e-05
3.81047e-05
3.85243e-05
3.87177e-05
3.87177e-05
3.85241e-05
3.81046e-05
3.73661e-05
3.60716e-05
3.55414e-05
3.69146e-05
3.77376e-05
3.81195e-05
3.82967e-05
3.82967e-05
3.81195e-05
3.77376e-05
3.69144e-05
3.55412e-05
3.45814e-05
3.60852e-05
3.69948e-05
3.73845e-05
3.75793e-05
3.75793e-05
3.73845e-05
3.69948e-05
3.60851e-05
3.45812e-05
3.30769e-05
3.46114e-05
3.55601e-05
3.60756e-05
3.63076e-05
3.63076e-05
3.60756e-05
3.55601e-05
3.46113e-05
3.30766e-05
3.25753e-05
3.41114e-05
3.51335e-05
3.5707e-05
3.59629e-05
3.59635e-05
3.57115e-05
3.51535e-05
3.41418e-05
3.25749e-05
3.41424e-05
3.57201e-05
3.66227e-05
3.71165e-05
3.7346e-05
3.73488e-05
3.7136e-05
3.67045e-05
3.57196e-05
3.41112e-05
3.51539e-05
3.67049e-05
3.75188e-05
3.79242e-05
3.81296e-05
3.81332e-05
3.79395e-05
3.75185e-05
3.66224e-05
3.51332e-05
3.57118e-05
3.71362e-05
3.79397e-05
3.83823e-05
3.85855e-05
3.85923e-05
3.83819e-05
3.79239e-05
3.71162e-05
3.57068e-05
3.59637e-05
3.73489e-05
3.81333e-05
3.85924e-05
3.88369e-05
3.88366e-05
3.85839e-05
3.81286e-05
3.73453e-05
3.59627e-05
3.5963e-05
3.73459e-05
3.81295e-05
3.85854e-05
3.8837e-05
3.88368e-05
3.85839e-05
3.81286e-05
3.73453e-05
3.59627e-05
3.57069e-05
3.71163e-05
3.7924e-05
3.83823e-05
3.85937e-05
3.85937e-05
3.83821e-05
3.79238e-05
3.71162e-05
3.57068e-05
3.51333e-05
3.66224e-05
3.75185e-05
3.79396e-05
3.81339e-05
3.81339e-05
3.79395e-05
3.75184e-05
3.66223e-05
3.51332e-05
3.41112e-05
3.57196e-05
3.67044e-05
3.7136e-05
3.73492e-05
3.73492e-05
3.7136e-05
3.67044e-05
3.57196e-05
3.41111e-05
3.25749e-05
3.41419e-05
3.51535e-05
3.57114e-05
3.59635e-05
3.59635e-05
3.57114e-05
3.51535e-05
3.41418e-05
3.25748e-05
3.21688e-05
3.3667e-05
3.47351e-05
3.53474e-05
3.56226e-05
3.56234e-05
3.53525e-05
3.47564e-05
3.36979e-05
3.21684e-05
3.36984e-05
3.53594e-05
3.63317e-05
3.68669e-05
3.71155e-05
3.71187e-05
3.68877e-05
3.64148e-05
3.53588e-05
3.36668e-05
3.47569e-05
3.64153e-05
3.72994e-05
3.77433e-05
3.79662e-05
3.79701e-05
3.77592e-05
3.7299e-05
3.63314e-05
3.47349e-05
3.53528e-05
3.6888e-05
3.77595e-05
3.824e-05
3.84608e-05
3.84678e-05
3.82396e-05
3.7743e-05
3.68667e-05
3.53473e-05
3.56236e-05
3.71188e-05
3.79702e-05
3.84679e-05
3.87312e-05
3.87309e-05
3.84591e-05
3.79651e-05
3.71149e-05
3.56226e-05
3.56227e-05
3.71155e-05
3.79662e-05
3.84608e-05
3.87314e-05
3.87311e-05
3.84591e-05
3.79651e-05
3.71149e-05
3.56226e-05
3.53474e-05
3.68668e-05
3.77431e-05
3.82401e-05
3.84694e-05
3.84693e-05
3.82398e-05
3.7743e-05
3.68667e-05
3.53474e-05
3.4735e-05
3.63314e-05
3.72991e-05
3.77594e-05
3.7971e-05
3.7971e-05
3.77594e-05
3.72991e-05
3.63314e-05
3.4735e-05
3.36668e-05
3.53589e-05
3.64149e-05
3.68879e-05
3.71193e-05
3.71193e-05
3.68879e-05
3.64149e-05
3.53589e-05
3.36669e-05
3.21685e-05
3.36981e-05
3.47566e-05
3.53527e-05
3.56237e-05
3.56237e-05
3.53527e-05
3.47566e-05
3.36981e-05
3.21685e-05
3.19186e-05
3.32622e-05
3.43508e-05
3.49952e-05
3.5288e-05
3.52889e-05
3.50012e-05
3.43735e-05
3.32938e-05
3.19183e-05
3.32942e-05
3.50059e-05
3.60425e-05
3.66181e-05
3.68855e-05
3.68891e-05
3.66401e-05
3.61269e-05
3.50055e-05
3.32623e-05
3.4374e-05
3.61273e-05
3.70799e-05
3.75623e-05
3.78027e-05
3.78069e-05
3.75789e-05
3.70796e-05
3.60423e-05
3.4351e-05
3.50017e-05
3.66405e-05
3.75792e-05
3.80975e-05
3.83359e-05
3.83429e-05
3.8097e-05
3.7562e-05
3.6618e-05
3.49956e-05
3.52894e-05
3.68893e-05
3.7807e-05
3.83431e-05
3.8625e-05
3.86247e-05
3.8334e-05
3.78016e-05
3.68849e-05
3.52882e-05
3.52884e-05
3.68856e-05
3.78027e-05
3.83359e-05
3.86253e-05
3.8625e-05
3.83341e-05
3.78016e-05
3.68849e-05
3.52882e-05
3.49956e-05
3.66181e-05
3.75622e-05
3.80976e-05
3.83447e-05
3.83447e-05
3.80973e-05
3.75621e-05
3.6618e-05
3.49956e-05
3.4351e-05
3.60424e-05
3.70797e-05
3.75792e-05
3.7808e-05
3.7808e-05
3.75791e-05
3.70797e-05
3.60424e-05
3.43511e-05
3.32623e-05
3.50056e-05
3.6127e-05
3.66404e-05
3.68899e-05
3.68899e-05
3.66404e-05
3.61271e-05
3.50057e-05
3.32625e-05
3.19184e-05
3.32941e-05
3.43738e-05
3.50015e-05
3.52895e-05
3.52895e-05
3.50015e-05
3.43738e-05
3.32941e-05
3.19184e-05
3.1906e-05
3.29176e-05
3.39871e-05
3.46539e-05
3.49613e-05
3.49625e-05
3.46605e-05
3.4011e-05
3.29496e-05
3.19057e-05
3.29498e-05
3.4663e-05
3.5756e-05
3.63703e-05
3.66562e-05
3.66601e-05
3.63934e-05
3.58413e-05
3.46627e-05
3.29176e-05
3.40113e-05
3.58417e-05
3.68607e-05
3.73813e-05
3.76391e-05
3.76436e-05
3.73984e-05
3.68604e-05
3.57559e-05
3.39874e-05
3.4661e-05
3.63938e-05
3.73988e-05
3.79547e-05
3.82106e-05
3.82178e-05
3.79542e-05
3.7381e-05
3.63702e-05
3.46543e-05
3.49629e-05
3.66604e-05
3.76438e-05
3.8218e-05
3.85183e-05
3.8518e-05
3.82087e-05
3.76379e-05
3.66555e-05
3.49616e-05
3.49618e-05
3.66564e-05
3.76392e-05
3.82107e-05
3.85186e-05
3.85182e-05
3.82088e-05
3.76379e-05
3.66555e-05
3.49616e-05
3.46543e-05
3.63704e-05
3.73813e-05
3.79549e-05
3.82198e-05
3.82197e-05
3.79546e-05
3.73811e-05
3.63703e-05
3.46544e-05
3.39875e-05
3.5756e-05
3.68605e-05
3.73988e-05
3.76449e-05
3.76449e-05
3.73988e-05
3.68605e-05
3.5756e-05
3.39876e-05
3.29179e-05
3.46629e-05
3.58416e-05
3.63939e-05
3.66612e-05
3.66612e-05
3.63938e-05
3.58416e-05
3.46629e-05
3.29179e-05
3.19058e-05
3.29499e-05
3.40114e-05
3.4661e-05
3.49632e-05
3.49632e-05
3.4661e-05
3.40113e-05
3.29499e-05
3.19057e-05
3.22788e-05
3.26677e-05
3.36548e-05
3.43279e-05
3.46457e-05
3.4647e-05
3.43351e-05
3.36796e-05
3.27e-05
3.22781e-05
3.27001e-05
3.43363e-05
3.54735e-05
3.61241e-05
3.64278e-05
3.64321e-05
3.61482e-05
3.55594e-05
3.4336e-05
3.26676e-05
3.368e-05
3.55599e-05
3.66419e-05
3.72005e-05
3.74756e-05
3.74803e-05
3.7218e-05
3.66416e-05
3.54733e-05
3.36551e-05
3.43356e-05
3.61487e-05
3.72184e-05
3.78118e-05
3.80852e-05
3.80924e-05
3.78113e-05
3.72001e-05
3.6124e-05
3.43283e-05
3.46475e-05
3.64324e-05
3.74805e-05
3.80926e-05
3.84111e-05
3.84107e-05
3.80831e-05
3.74742e-05
3.64271e-05
3.4646e-05
3.46462e-05
3.64281e-05
3.74757e-05
3.80853e-05
3.84114e-05
3.8411e-05
3.80832e-05
3.74742e-05
3.64271e-05
3.4646e-05
3.43284e-05
3.61242e-05
3.72005e-05
3.78121e-05
3.80945e-05
3.80944e-05
3.78117e-05
3.72002e-05
3.61241e-05
3.43284e-05
3.36552e-05
3.54735e-05
3.66418e-05
3.72185e-05
3.74818e-05
3.74818e-05
3.72184e-05
3.66417e-05
3.54735e-05
3.36553e-05
3.26679e-05
3.43363e-05
3.55597e-05
3.61487e-05
3.64333e-05
3.64333e-05
3.61487e-05
3.55597e-05
3.43363e-05
3.26679e-05
3.22781e-05
3.27002e-05
3.36801e-05
3.43357e-05
3.46479e-05
3.46478e-05
3.43356e-05
3.368e-05
3.27002e-05
3.22781e-05
3.3197e-05
3.25652e-05
3.337e-05
3.40245e-05
3.43459e-05
3.43474e-05
3.40323e-05
3.33956e-05
3.25978e-05
3.31965e-05
3.25979e-05
3.40336e-05
3.51965e-05
3.58799e-05
3.62007e-05
3.62053e-05
3.59049e-05
3.52829e-05
3.40333e-05
3.2565e-05
3.33959e-05
3.52834e-05
3.64238e-05
3.70197e-05
3.7312e-05
3.7317e-05
3.70377e-05
3.64235e-05
3.51963e-05
3.33701e-05
3.40327e-05
3.59053e-05
3.70381e-05
3.76687e-05
3.79594e-05
3.79667e-05
3.76681e-05
3.70193e-05
3.58798e-05
3.40248e-05
3.43478e-05
3.62056e-05
3.73172e-05
3.79669e-05
3.83034e-05
3.83029e-05
3.79572e-05
3.73105e-05
3.61998e-05
3.4346e-05
3.43463e-05
3.6201e-05
3.73121e-05
3.79595e-05
3.83037e-05
3.83033e-05
3.79573e-05
3.73105e-05
3.61998e-05
3.4346e-05
3.40249e-05
3.588e-05
3.70197e-05
3.7669e-05
3.79689e-05
3.79688e-05
3.76686e-05
3.70194e-05
3.58799e-05
3.40249e-05
3.33703e-05
3.51965e-05
3.64237e-05
3.70382e-05
3.73187e-05
3.73186e-05
3.70381e-05
3.64237e-05
3.51965e-05
3.33704e-05
3.25654e-05
3.40336e-05
3.52833e-05
3.59054e-05
3.62067e-05
3.62067e-05
3.59054e-05
3.52833e-05
3.40336e-05
3.25653e-05
3.31963e-05
3.25979e-05
3.3396e-05
3.40329e-05
3.43483e-05
3.43483e-05
3.40328e-05
3.33959e-05
3.2598e-05
3.31963e-05
3.49076e-05
3.2683e-05
3.31573e-05
3.37547e-05
3.40692e-05
3.40708e-05
3.37631e-05
3.31837e-05
3.27157e-05
3.49062e-05
3.27157e-05
3.37685e-05
3.49277e-05
3.56386e-05
3.59753e-05
3.59801e-05
3.56644e-05
3.50145e-05
3.37683e-05
3.26826e-05
3.3184e-05
3.50149e-05
3.62069e-05
3.68391e-05
3.71486e-05
3.71537e-05
3.68576e-05
3.62066e-05
3.49275e-05
3.31574e-05
3.37634e-05
3.56647e-05
3.68579e-05
3.75255e-05
3.78334e-05
3.78407e-05
3.75249e-05
3.68387e-05
3.56384e-05
3.37549e-05
3.40712e-05
3.59804e-05
3.71539e-05
3.7841e-05
3.81952e-05
3.81947e-05
3.78311e-05
3.71469e-05
3.59742e-05
3.40692e-05
3.40695e-05
3.59755e-05
3.71487e-05
3.78335e-05
3.81956e-05
3.81951e-05
3.78312e-05
3.71469e-05
3.59742e-05
3.40692e-05
3.3755e-05
3.56386e-05
3.68391e-05
3.75258e-05
3.78431e-05
3.7843e-05
3.75253e-05
3.68388e-05
3.56385e-05
3.37551e-05
3.31576e-05
3.49277e-05
3.62068e-05
3.68581e-05
3.71555e-05
3.71555e-05
3.6858e-05
3.62068e-05
3.49277e-05
3.31577e-05
3.2683e-05
3.37686e-05
3.50149e-05
3.56649e-05
3.59816e-05
3.59816e-05
3.56648e-05
3.50148e-05
3.37686e-05
3.26829e-05
3.49061e-05
3.27157e-05
3.31841e-05
3.37637e-05
3.40718e-05
3.40717e-05
3.37636e-05
3.3184e-05
3.27157e-05
3.49059e-05
3.75543e-05
3.31288e-05
3.30546e-05
3.35353e-05
3.38266e-05
3.38284e-05
3.35442e-05
3.30817e-05
3.31614e-05
3.75525e-05
3.31614e-05
3.35605e-05
3.46712e-05
3.54012e-05
3.57521e-05
3.57572e-05
3.54277e-05
3.47583e-05
3.35604e-05
3.3128e-05
3.30818e-05
3.47586e-05
3.59917e-05
3.66589e-05
3.69852e-05
3.69906e-05
3.66777e-05
3.59914e-05
3.4671e-05
3.30546e-05
3.35445e-05
3.5428e-05
3.66781e-05
3.73821e-05
3.77071e-05
3.77145e-05
3.73814e-05
3.66584e-05
3.5401e-05
3.35354e-05
3.38286e-05
3.57574e-05
3.69907e-05
3.77148e-05
3.80866e-05
3.80861e-05
3.77047e-05
3.69833e-05
3.57508e-05
3.38264e-05
3.38269e-05
3.57522e-05
3.69853e-05
3.77073e-05
3.8087e-05
3.80865e-05
3.77048e-05
3.69834e-05
3.57509e-05
3.38264e-05
3.35355e-05
3.54013e-05
3.66589e-05
3.73824e-05
3.7717e-05
3.77169e-05
3.73819e-05
3.66585e-05
3.5401e-05
3.35356e-05
3.30547e-05
3.46712e-05
3.59916e-05
3.66783e-05
3.69925e-05
3.69925e-05
3.66782e-05
3.59916e-05
3.46712e-05
3.30549e-05
3.31284e-05
3.35605e-05
3.47586e-05
3.54283e-05
3.57588e-05
3.57588e-05
3.54282e-05
3.47586e-05
3.35605e-05
3.31283e-05
3.75525e-05
3.31613e-05
3.30819e-05
3.35448e-05
3.38293e-05
3.38293e-05
3.35446e-05
3.30817e-05
3.31614e-05
3.75523e-05
4.14494e-05
3.40287e-05
3.31153e-05
3.3393e-05
3.36363e-05
3.36383e-05
3.34025e-05
3.3143e-05
3.40612e-05
4.14431e-05
3.40613e-05
3.34398e-05
3.44332e-05
3.51697e-05
3.5532e-05
3.55374e-05
3.51969e-05
3.45207e-05
3.34398e-05
3.40272e-05
3.3143e-05
3.45208e-05
3.5779e-05
3.64792e-05
3.68219e-05
3.68275e-05
3.64984e-05
3.57788e-05
3.44332e-05
3.31151e-05
3.34027e-05
3.51971e-05
3.64986e-05
3.72386e-05
3.75806e-05
3.7588e-05
3.72379e-05
3.64787e-05
3.51694e-05
3.33931e-05
3.36386e-05
3.55375e-05
3.68276e-05
3.75883e-05
3.79776e-05
3.79771e-05
3.75781e-05
3.68199e-05
3.55306e-05
3.36361e-05
3.36366e-05
3.55321e-05
3.6822e-05
3.75808e-05
3.7978e-05
3.79775e-05
3.75783e-05
3.682e-05
3.55306e-05
3.36362e-05
3.33933e-05
3.51697e-05
3.64792e-05
3.7239e-05
3.75907e-05
3.75906e-05
3.72385e-05
3.64788e-05
3.51695e-05
3.33934e-05
3.31154e-05
3.44333e-05
3.5779e-05
3.6499e-05
3.68296e-05
3.68296e-05
3.64989e-05
3.5779e-05
3.44333e-05
3.31156e-05
3.40278e-05
3.344e-05
3.45209e-05
3.51974e-05
3.55392e-05
3.55392e-05
3.51974e-05
3.45209e-05
3.344e-05
3.40275e-05
4.14431e-05
3.40608e-05
3.31431e-05
3.3403e-05
3.36393e-05
3.36393e-05
3.34029e-05
3.31428e-05
3.40609e-05
4.14427e-05
4.65865e-05
3.556e-05
3.34223e-05
3.33647e-05
3.35235e-05
3.35257e-05
3.33747e-05
3.34503e-05
3.55921e-05
4.65779e-05
3.55926e-05
3.3449e-05
3.42237e-05
3.4947e-05
3.53166e-05
3.53223e-05
3.49749e-05
3.43114e-05
3.34491e-05
3.5557e-05
3.34505e-05
3.43113e-05
3.55701e-05
3.63002e-05
3.66589e-05
3.66646e-05
3.63197e-05
3.557e-05
3.42238e-05
3.34217e-05
3.33749e-05
3.49749e-05
3.63199e-05
3.7095e-05
3.74539e-05
3.74614e-05
3.70944e-05
3.62997e-05
3.49469e-05
3.33647e-05
3.35259e-05
3.53223e-05
3.66648e-05
3.74616e-05
3.78681e-05
3.78676e-05
3.74514e-05
3.66568e-05
3.53151e-05
3.35231e-05
3.35237e-05
3.53166e-05
3.66589e-05
3.74541e-05
3.78686e-05
3.78681e-05
3.74515e-05
3.66568e-05
3.53152e-05
3.35232e-05
3.3365e-05
3.4947e-05
3.63002e-05
3.70955e-05
3.74641e-05
3.7464e-05
3.7095e-05
3.62999e-05
3.4947e-05
3.3365e-05
3.34223e-05
3.42238e-05
3.55702e-05
3.63203e-05
3.66669e-05
3.66669e-05
3.63203e-05
3.55702e-05
3.4224e-05
3.34223e-05
3.55587e-05
3.34491e-05
3.43116e-05
3.49755e-05
3.53242e-05
3.53242e-05
3.49755e-05
3.43117e-05
3.34492e-05
3.55575e-05
4.65789e-05
3.55914e-05
3.34503e-05
3.33751e-05
3.35267e-05
3.35266e-05
3.33749e-05
3.34499e-05
3.55913e-05
4.65773e-05
5.26607e-05
3.78846e-05
3.40654e-05
3.35049e-05
3.35259e-05
3.35282e-05
3.35154e-05
3.40936e-05
3.79163e-05
5.2652e-05
3.7917e-05
3.36534e-05
3.40584e-05
3.4738e-05
3.51082e-05
3.51142e-05
3.47665e-05
3.41463e-05
3.36534e-05
3.78797e-05
3.40937e-05
3.41461e-05
3.53672e-05
3.61223e-05
3.64962e-05
3.65021e-05
3.61421e-05
3.53672e-05
3.40586e-05
3.4064e-05
3.35156e-05
3.47664e-05
3.61422e-05
3.69514e-05
3.7327e-05
3.73345e-05
3.69508e-05
3.61219e-05
3.4738e-05
3.35046e-05
3.35285e-05
3.51142e-05
3.65022e-05
3.73347e-05
3.77583e-05
3.77578e-05
3.73244e-05
3.6494e-05
3.51068e-05
3.35254e-05
3.35262e-05
3.51083e-05
3.64963e-05
3.73272e-05
3.77589e-05
3.77583e-05
3.73246e-05
3.64941e-05
3.51068e-05
3.35255e-05
3.35051e-05
3.47381e-05
3.61224e-05
3.6952e-05
3.73374e-05
3.73373e-05
3.69515e-05
3.6122e-05
3.47381e-05
3.3505e-05
3.40651e-05
3.40585e-05
3.53674e-05
3.61428e-05
3.65046e-05
3.65046e-05
3.61427e-05
3.53674e-05
3.40588e-05
3.40649e-05
3.78824e-05
3.36534e-05
3.41464e-05
3.47671e-05
3.51162e-05
3.51162e-05
3.47671e-05
3.41465e-05
3.36535e-05
3.78805e-05
5.26539e-05
3.79157e-05
3.40935e-05
3.35157e-05
3.35293e-05
3.35292e-05
3.35154e-05
3.40928e-05
3.79149e-05
5.26514e-05
5.94096e-05
4.09842e-05
3.51674e-05
3.38864e-05
3.37004e-05
3.37029e-05
3.38974e-05
3.51959e-05
4.10173e-05
5.94033e-05
4.10175e-05
3.411e-05
3.3957e-05
3.455e-05
3.4911e-05
3.49171e-05
3.4579e-05
3.40451e-05
3.41098e-05
4.09793e-05
3.5196e-05
3.40448e-05
3.51732e-05
3.5946e-05
3.6334e-05
3.63401e-05
3.59661e-05
3.51733e-05
3.39573e-05
3.51659e-05
3.38977e-05
3.45789e-05
3.59662e-05
3.68079e-05
3.71999e-05
3.72074e-05
3.68074e-05
3.59457e-05
3.45499e-05
3.38861e-05
3.37032e-05
3.49172e-05
3.63402e-05
3.72077e-05
3.76482e-05
3.76476e-05
3.71973e-05
3.63317e-05
3.49094e-05
3.36998e-05
3.37008e-05
3.49111e-05
3.63341e-05
3.72002e-05
3.76488e-05
3.76482e-05
3.71975e-05
3.63318e-05
3.49094e-05
3.37e-05
3.38868e-05
3.45502e-05
3.59463e-05
3.68087e-05
3.72105e-05
3.72104e-05
3.68081e-05
3.59459e-05
3.455e-05
3.38868e-05
3.51672e-05
3.39573e-05
3.51736e-05
3.5967e-05
3.63428e-05
3.63427e-05
3.59669e-05
3.51735e-05
3.39574e-05
3.51672e-05
4.09819e-05
3.41099e-05
3.40453e-05
3.45797e-05
3.49194e-05
3.49194e-05
3.45796e-05
3.40452e-05
3.41099e-05
4.09807e-05
5.94046e-05
4.10164e-05
3.51957e-05
3.38979e-05
3.37041e-05
3.3704e-05
3.38974e-05
3.5195e-05
4.10162e-05
5.94036e-05
6.66081e-05
4.5326e-05
3.68707e-05
3.45991e-05
3.41078e-05
3.41104e-05
3.46103e-05
3.68988e-05
4.53588e-05
6.66046e-05
4.53582e-05
3.49406e-05
3.39525e-05
3.43945e-05
3.47313e-05
3.47377e-05
3.4424e-05
3.40407e-05
3.49403e-05
4.53203e-05
3.68984e-05
3.40404e-05
3.4993e-05
3.57725e-05
3.61727e-05
3.61789e-05
3.57929e-05
3.49931e-05
3.39527e-05
3.68682e-05
3.46104e-05
3.4424e-05
3.5793e-05
3.66646e-05
3.70727e-05
3.70802e-05
3.66641e-05
3.57722e-05
3.43944e-05
3.45982e-05
3.41106e-05
3.47378e-05
3.61791e-05
3.70805e-05
3.75377e-05
3.75371e-05
3.707e-05
3.61704e-05
3.47296e-05
3.4107e-05
3.41079e-05
3.47316e-05
3.61729e-05
3.70731e-05
3.75383e-05
3.75378e-05
3.70702e-05
3.61704e-05
3.47297e-05
3.41072e-05
3.45987e-05
3.43948e-05
3.57729e-05
3.66655e-05
3.70835e-05
3.70833e-05
3.66649e-05
3.57724e-05
3.43946e-05
3.45991e-05
3.68691e-05
3.39529e-05
3.49935e-05
3.57938e-05
3.61818e-05
3.61818e-05
3.57937e-05
3.49934e-05
3.39529e-05
3.68699e-05
4.53217e-05
3.49403e-05
3.40409e-05
3.44247e-05
3.47401e-05
3.47401e-05
3.44246e-05
3.40408e-05
3.49403e-05
4.53217e-05
6.6604e-05
4.5357e-05
3.68984e-05
3.46107e-05
3.41117e-05
3.41115e-05
3.461e-05
3.68975e-05
4.53572e-05
6.66043e-05
7.40486e-05
5.0621e-05
3.92445e-05
3.57514e-05
3.48464e-05
3.48493e-05
3.57633e-05
3.92736e-05
5.06542e-05
7.405e-05
5.06526e-05
3.62519e-05
3.40837e-05
3.4287e-05
3.45786e-05
3.45852e-05
3.4317e-05
3.41722e-05
3.62516e-05
5.06179e-05
3.92728e-05
3.41718e-05
3.48333e-05
3.56031e-05
3.60128e-05
3.60192e-05
3.56237e-05
3.48335e-05
3.40838e-05
3.92434e-05
3.57634e-05
3.4317e-05
3.56237e-05
3.65217e-05
3.69453e-05
3.69529e-05
3.65211e-05
3.56028e-05
3.42869e-05
3.57507e-05
3.48495e-05
3.45853e-05
3.60194e-05
3.69532e-05
3.74269e-05
3.74263e-05
3.69426e-05