/*--------------------------------*- C++ -*----------------------------------*\
| =========                 |                                                 |
| \\      /  F ield         | OpenFOAM: The Open Source CFD Toolbox           |
|  \\    /   O peration     | Version:  2406                                  |
|   \\  /    A nd           | Website:  www.openfoam.com                      |
|    \\/     M anipulation  |                                                 |
\*---------------------------------------------------------------------------*/
FoamFile
{
    version     2.0;
    format      ascii;
    arch        "LSB;label=32;scalar=64";
    class       volScalarField;
    location    "150";
    object      p;
}
// * * * * * * * * * * * * * * * * * * * * * * * * * * * * * * * * * * * * * //

dimensions      [0 2 -2 0 0 0 0];

internalField   nonuniform List<scalar> 
25000
(
3.36161e-05
-0.000833581
-0.00150363
-0.00195303
-0.00217657
-0.00217253
-0.00194029
-0.00147991
-0.000792661
0.000114971
-0.000833232
-0.00185869
-0.00262788
-0.00314067
-0.00339497
-0.00339126
-0.00312896
-0.00260668
-0.00182611
-0.000791132
-0.001503
-0.00262773
-0.00346448
-0.00402034
-0.00429598
-0.00429288
-0.00401088
-0.00344818
-0.00260467
-0.00147628
-0.00195208
-0.00314031
-0.00402023
-0.00460229
-0.00489083
-0.00488849
-0.00459517
-0.00400838
-0.00312439
-0.001934
-0.00217549
-0.00339444
-0.00429568
-0.00489069
-0.00518569
-0.00518396
-0.00488555
-0.00428731
-0.00338337
-0.00216285
-0.00217143
-0.00339054
-0.00429242
-0.00488815
-0.00518379
-0.00518257
-0.00488451
-0.00428653
-0.00338278
-0.0021624
-0.00193926
-0.00312819
-0.00401026
-0.00459468
-0.0048852
-0.00488432
-0.00459209
-0.00400608
-0.00312264
-0.00193268
-0.00147907
-0.00260595
-0.00344749
-0.00400778
-0.00428681
-0.00428617
-0.0040059
-0.00344444
-0.00260186
-0.00147413
-0.00079212
-0.00182549
-0.00260405
-0.00312376
-0.00338281
-0.00338233
-0.00312232
-0.0026017
-0.00182231
-0.000788233
0.000115239
-0.000790765
-0.00147581
-0.00193348
-0.00216234
-0.00216195
-0.00193231
-0.00147386
-0.00078807
0.000118513
-0.0175424
-0.0174181
-0.0173193
-0.0172448
-0.0172068
-0.0172085
-0.0172512
-0.0173348
-0.0174536
-0.017595
-0.0174137
-0.0172456
-0.0171746
-0.017131
-0.0171107
-0.0171122
-0.0171365
-0.0171874
-0.0172712
-0.0174524
-0.017312
-0.0171709
-0.0171111
-0.0170825
-0.0170713
-0.0170725
-0.0170867
-0.01712
-0.0171862
-0.0173324
-0.0172364
-0.0171251
-0.0170797
-0.0170638
-0.0170599
-0.0170608
-0.017067
-0.0170858
-0.0171345
-0.017248
-0.0171981
-0.0171036
-0.0170666
-0.0170577
-0.0170579
-0.0170587
-0.0170603
-0.0170711
-0.0171099
-0.0172051
-0.0172
-0.0171046
-0.0170667
-0.0170571
-0.017057
-0.0170577
-0.0170593
-0.0170702
-0.0171091
-0.0172044
-0.0172428
-0.0171287
-0.0170803
-0.0170623
-0.0170573
-0.0170579
-0.0170642
-0.0170833
-0.0171322
-0.0172458
-0.0173266
-0.0171795
-0.0171132
-0.0170805
-0.0170673
-0.0170679
-0.0170823
-0.0171158
-0.0171824
-0.0173288
-0.0174455
-0.0172635
-0.0171794
-0.0171291
-0.0171058
-0.0171064
-0.0171307
-0.0171819
-0.0172661
-0.0174475
-0.0175869
-0.0174448
-0.0173259
-0.0172427
-0.0172012
-0.0172018
-0.0172443
-0.0173282
-0.0174474
-0.0175891
-0.0365498
-0.036277
-0.0360603
-0.035914
-0.0358383
-0.0358422
-0.0359267
-0.0360853
-0.0363216
-0.0366101
-0.0362724
-0.0359475
-0.035701
-0.0355276
-0.0354418
-0.0354454
-0.0355396
-0.0357234
-0.035984
-0.0363216
-0.036053
-0.0356973
-0.0354266
-0.0352339
-0.035137
-0.0351403
-0.0352441
-0.0354447
-0.0357239
-0.0360858
-0.035906
-0.0355221
-0.0352313
-0.0350289
-0.0349267
-0.0349294
-0.0350371
-0.0352452
-0.0355412
-0.0359285
-0.0358301
-0.0354352
-0.0351328
-0.0349248
-0.0348195
-0.0348216
-0.0349311
-0.0351432
-0.0354492
-0.0358464
-0.0358343
-0.0354386
-0.0351351
-0.0349261
-0.0348202
-0.0348218
-0.034931
-0.035143
-0.0354489
-0.0358461
-0.035919
-0.0355326
-0.0352386
-0.0350331
-0.0349287
-0.0349299
-0.0350369
-0.0352447
-0.0355406
-0.0359278
-0.036078
-0.0357167
-0.0354391
-0.035241
-0.0351403
-0.0351414
-0.0352441
-0.0354441
-0.035723
-0.0360847
-0.0363147
-0.0359777
-0.0357186
-0.0355372
-0.0354465
-0.0354474
-0.0355398
-0.0357228
-0.0359829
-0.0363202
-0.0366035
-0.0363158
-0.0360812
-0.0359253
-0.0358443
-0.0358451
-0.0359276
-0.036085
-0.0363206
-0.0366086
-0.0478984
-0.047758
-0.0476492
-0.0475838
-0.0475488
-0.0475522
-0.0475939
-0.0476675
-0.04779
-0.0479425
-0.0477555
-0.0475993
-0.0474648
-0.0473757
-0.0473335
-0.0473368
-0.0473858
-0.0474823
-0.0476256
-0.04779
-0.0476448
-0.0474627
-0.0473192
-0.0472193
-0.0471717
-0.0471747
-0.0472285
-0.0473345
-0.047483
-0.0476682
-0.0475784
-0.0473723
-0.0472178
-0.0471117
-0.0470604
-0.0470628
-0.0471191
-0.0472299
-0.0473881
-0.0475965
-0.0475425
-0.0473293
-0.0471693
-0.0470593
-0.0470051
-0.047007
-0.0470649
-0.0471784
-0.0473415
-0.0475574
-0.0475453
-0.047332
-0.0471716
-0.0470611
-0.0470063
-0.0470076
-0.0470652
-0.0471784
-0.0473415
-0.0475573
-0.0475866
-0.0473805
-0.0472249
-0.0471168
-0.0470636
-0.0470646
-0.0471199
-0.0472301
-0.047388
-0.0475963
-0.0476601
-0.0474769
-0.0473307
-0.0472275
-0.0471769
-0.0471776
-0.0472299
-0.0473349
-0.0474829
-0.047668
-0.0477828
-0.0476203
-0.0474793
-0.0473857
-0.0473401
-0.0473408
-0.0473877
-0.0474829
-0.0476254
-0.0477894
-0.0479357
-0.047785
-0.0476649
-0.0475944
-0.0475562
-0.0475568
-0.0475962
-0.0476681
-0.0477897
-0.0479416
-0.0539503
-0.0538715
-0.053807
-0.0537714
-0.053751
-0.053752
-0.0537732
-0.0538083
-0.0538759
-0.0539598
-0.0538705
-0.0537703
-0.053677
-0.0536209
-0.0535936
-0.0535947
-0.0536235
-0.05368
-0.0537737
-0.0538755
-0.0538053
-0.0536762
-0.0535746
-0.0535102
-0.0534802
-0.0534812
-0.053513
-0.0535787
-0.0536802
-0.0538082
-0.0537693
-0.0536197
-0.0535097
-0.0534387
-0.0534056
-0.0534065
-0.0534411
-0.0535136
-0.0536244
-0.053774
-0.053748
-0.0535919
-0.0534793
-0.0534053
-0.0533703
-0.053371
-0.0534073
-0.0534827
-0.0535966
-0.0537539
-0.0537482
-0.0535923
-0.0534798
-0.0534058
-0.0533708
-0.0533713
-0.0534074
-0.0534827
-0.0535966
-0.053754
-0.0537688
-0.0536206
-0.0535113
-0.0534402
-0.0534068
-0.0534072
-0.0534414
-0.0535137
-0.0536244
-0.0537742
-0.0538038
-0.0536769
-0.0535768
-0.0535125
-0.053482
-0.0534823
-0.0535135
-0.0535788
-0.0536802
-0.0538085
-0.0538717
-0.0537709
-0.0536783
-0.0536232
-0.0535957
-0.053596
-0.053624
-0.05368
-0.0537737
-0.0538756
-0.0539561
-0.053873
-0.0538065
-0.0537727
-0.0537528
-0.053753
-0.0537734
-0.0538079
-0.0538754
-0.0539594
-0.0580734
-0.058059
-0.05804
-0.0580328
-0.0580265
-0.0580251
-0.0580277
-0.0580294
-0.0580447
-0.0580588
-0.0580566
-0.0580253
-0.0579859
-0.0579653
-0.0579531
-0.0579519
-0.0579614
-0.0579782
-0.0580133
-0.0580424
-0.0580365
-0.0579843
-0.0579378
-0.0579101
-0.0578958
-0.0578949
-0.057907
-0.0579324
-0.0579764
-0.0580258
-0.0580284
-0.0579625
-0.0579089
-0.057874
-0.0578568
-0.0578561
-0.0578717
-0.0579054
-0.0579581
-0.0580231
-0.0580212
-0.0579492
-0.0578935
-0.0578558
-0.0578374
-0.057837
-0.0578544
-0.0578915
-0.0579472
-0.0580191
-0.0580192
-0.0579473
-0.0578916
-0.0578541
-0.0578361
-0.0578358
-0.0578535
-0.0578908
-0.0579466
-0.0580188
-0.0580214
-0.0579562
-0.0579032
-0.0578691
-0.0578528
-0.0578527
-0.0578689
-0.0579031
-0.0579565
-0.0580222
-0.0580228
-0.0579728
-0.0579284
-0.0579023
-0.0578894
-0.0578894
-0.0579025
-0.0579288
-0.0579737
-0.0580242
-0.0580384
-0.0580084
-0.0579724
-0.0579549
-0.0579446
-0.0579446
-0.0579552
-0.057973
-0.0580095
-0.0580399
-0.0580532
-0.0580381
-0.0580222
-0.0580198
-0.0580161
-0.0580162
-0.05802
-0.0580228
-0.0580393
-0.0580546
-0.0621508
-0.0621706
-0.0621775
-0.0621866
-0.0621898
-0.0621891
-0.0621839
-0.0621711
-0.0621611
-0.0621402
-0.0621694
-0.0621869
-0.062191
-0.0621986
-0.0622002
-0.0621994
-0.0621961
-0.0621863
-0.0621795
-0.0621603
-0.0621767
-0.0621906
-0.0621957
-0.0622027
-0.0622049
-0.0622041
-0.0622003
-0.0621921
-0.0621863
-0.0621713
-0.062186
-0.0621978
-0.0622021
-0.0622063
-0.0622078
-0.0622072
-0.0622047
-0.0622
-0.0621959
-0.0621847
-0.0621889
-0.0621987
-0.0622035
-0.062207
-0.0622088
-0.0622086
-0.0622064
-0.0622029
-0.0621988
-0.0621898
-0.0621877
-0.0621973
-0.062202
-0.0622056
-0.0622077
-0.0622077
-0.0622058
-0.0622027
-0.0621987
-0.0621901
-0.0621819
-0.0621935
-0.0621978
-0.0622024
-0.0622047
-0.0622049
-0.0622031
-0.0621992
-0.062196
-0.0621855
-0.0621684
-0.0621833
-0.0621892
-0.0621972
-0.0622006
-0.0622009
-0.0621982
-0.0621911
-0.0621864
-0.0621728
-0.0621578
-0.0621764
-0.0621831
-0.0621928
-0.0621957
-0.0621961
-0.0621939
-0.0621853
-0.0621798
-0.0621623
-0.0621371
-0.0621577
-0.0621682
-0.0621811
-0.0621861
-0.0621865
-0.0621824
-0.0621704
-0.0621612
-0.0621417
-0.0668321
-0.066849
-0.066855
-0.0668623
-0.0668653
-0.0668654
-0.0668624
-0.0668539
-0.0668468
-0.0668294
-0.0668496
-0.0668708
-0.0668823
-0.0668935
-0.0668975
-0.0668974
-0.0668938
-0.0668828
-0.0668707
-0.0668494
-0.0668589
-0.0668846
-0.0669005
-0.0669142
-0.0669197
-0.0669199
-0.0669144
-0.0669012
-0.0668868
-0.0668616
-0.0668692
-0.0668979
-0.066916
-0.0669298
-0.0669361
-0.0669363
-0.0669307
-0.0669178
-0.0669012
-0.0668741
-0.0668741
-0.0669031
-0.066923
-0.0669374
-0.0669446
-0.0669452
-0.0669389
-0.0669256
-0.0669075
-0.0668798
-0.0668754
-0.0669043
-0.0669239
-0.0669385
-0.066946
-0.0669466
-0.0669405
-0.0669274
-0.0669091
-0.0668816
-0.0668724
-0.0669009
-0.0669191
-0.0669333
-0.0669402
-0.0669409
-0.0669355
-0.0669228
-0.0669063
-0.0668795
-0.0668633
-0.0668898
-0.0669062
-0.0669208
-0.0669273
-0.066928
-0.0669229
-0.0669099
-0.0668952
-0.0668706
-0.0668553
-0.066878
-0.0668919
-0.0669047
-0.0669094
-0.0669099
-0.0669064
-0.066895
-0.0668828
-0.066862
-0.0668384
-0.0668576
-0.0668676
-0.0668782
-0.0668822
-0.0668826
-0.0668793
-0.0668698
-0.0668613
-0.0668441
-0.0720765
-0.0720783
-0.0720755
-0.0720763
-0.0720764
-0.0720771
-0.0720783
-0.0720778
-0.0720804
-0.0720774
-0.0720887
-0.0720952
-0.0720979
-0.0721017
-0.0721023
-0.0721025
-0.0721023
-0.0720989
-0.0720962
-0.0720888
-0.0720961
-0.0721077
-0.0721133
-0.0721191
-0.0721206
-0.0721207
-0.072119
-0.0721132
-0.0721082
-0.0720961
-0.0721044
-0.072119
-0.0721267
-0.072133
-0.0721352
-0.0721352
-0.0721329
-0.0721264
-0.0721187
-0.0721038
-0.0721094
-0.0721245
-0.0721336
-0.0721407
-0.0721437
-0.0721438
-0.0721406
-0.0721332
-0.0721237
-0.0721075
-0.0721127
-0.0721278
-0.072137
-0.0721443
-0.0721474
-0.0721474
-0.0721441
-0.0721364
-0.0721265
-0.0721099
-0.0721141
-0.0721285
-0.0721367
-0.0721437
-0.0721463
-0.0721462
-0.0721434
-0.0721359
-0.072127
-0.0721111
-0.0721117
-0.072124
-0.0721306
-0.0721374
-0.0721395
-0.0721393
-0.0721367
-0.0721294
-0.0721221
-0.0721085
-0.0721106
-0.0721188
-0.0721238
-0.0721287
-0.0721294
-0.072129
-0.0721275
-0.0721217
-0.072116
-0.0721067
-0.0721043
-0.072109
-0.0721096
-0.0721121
-0.0721118
-0.0721112
-0.0721103
-0.0721066
-0.072105
-0.0720995
-0.0775683
-0.0775666
-0.0775641
-0.0775656
-0.0775674
-0.0775706
-0.077575
-0.0775787
-0.0775854
-0.0775895
-0.0775783
-0.0775806
-0.0775813
-0.0775841
-0.0775861
-0.0775889
-0.0775925
-0.0775945
-0.0775974
-0.0775977
-0.0775865
-0.0775926
-0.0775949
-0.0775987
-0.0776009
-0.0776036
-0.077606
-0.0776061
-0.0776077
-0.077604
-0.0775955
-0.077604
-0.0776079
-0.0776123
-0.0776148
-0.077617
-0.0776187
-0.0776177
-0.0776165
-0.0776104
-0.0776021
-0.0776117
-0.077617
-0.0776221
-0.0776249
-0.0776268
-0.0776273
-0.077625
-0.0776223
-0.0776145
-0.0776085
-0.0776186
-0.0776243
-0.0776296
-0.0776322
-0.0776336
-0.0776336
-0.0776307
-0.077627
-0.0776187
-0.0776145
-0.0776241
-0.0776295
-0.0776345
-0.0776366
-0.0776376
-0.0776374
-0.0776343
-0.0776309
-0.0776229
-0.0776183
-0.0776266
-0.0776306
-0.0776352
-0.0776367
-0.0776374
-0.0776371
-0.0776339
-0.0776315
-0.077625
-0.0776234
-0.0776285
-0.0776318
-0.0776348
-0.0776353
-0.0776356
-0.0776356
-0.0776333
-0.0776314
-0.077628
-0.0776261
-0.0776278
-0.0776278
-0.0776292
-0.0776287
-0.0776286
-0.077629
-0.0776276
-0.0776283
-0.077628
-0.0832667
-0.0832585
-0.083253
-0.0832524
-0.083253
-0.0832557
-0.0832607
-0.0832666
-0.0832767
-0.0832879
-0.0832715
-0.0832657
-0.0832615
-0.0832608
-0.0832613
-0.0832639
-0.0832685
-0.0832739
-0.0832825
-0.0832911
-0.0832737
-0.0832713
-0.0832677
-0.0832677
-0.0832681
-0.0832705
-0.0832748
-0.0832791
-0.0832868
-0.0832927
-0.083276
-0.0832763
-0.0832747
-0.0832753
-0.083276
-0.0832782
-0.0832817
-0.083285
-0.0832906
-0.0832944
-0.0832777
-0.0832799
-0.0832798
-0.0832812
-0.0832822
-0.0832841
-0.0832868
-0.0832892
-0.0832933
-0.0832955
-0.0832804
-0.0832838
-0.0832848
-0.0832868
-0.0832878
-0.0832895
-0.0832917
-0.0832933
-0.0832966
-0.083298
-0.0832843
-0.0832881
-0.0832895
-0.0832916
-0.0832925
-0.0832939
-0.0832961
-0.0832975
-0.0833006
-0.0833019
-0.0832879
-0.0832913
-0.0832921
-0.0832941
-0.0832948
-0.0832962
-0.0832985
-0.0833
-0.0833036
-0.0833056
-0.0832935
-0.0832953
-0.0832958
-0.0832968
-0.0832972
-0.0832987
-0.0833013
-0.0833037
-0.0833073
-0.0833111
-0.0832992
-0.083298
-0.0832966
-0.0832967
-0.0832966
-0.0832982
-0.0833016
-0.0833048
-0.0833099
-0.0833159
-0.0889762
-0.0889693
-0.0889649
-0.0889637
-0.088963
-0.0889637
-0.088966
-0.0889687
-0.0889747
-0.0889839
-0.0889734
-0.088967
-0.0889628
-0.0889616
-0.0889613
-0.0889629
-0.0889659
-0.0889696
-0.0889764
-0.0889843
-0.0889711
-0.0889662
-0.0889615
-0.0889605
-0.0889604
-0.0889622
-0.0889657
-0.0889695
-0.0889764
-0.0889829
-0.0889704
-0.0889668
-0.0889632
-0.0889624
-0.0889624
-0.0889643
-0.0889675
-0.0889709
-0.0889768
-0.0889818
-0.0889706
-0.0889681
-0.0889651
-0.0889647
-0.0889649
-0.0889664
-0.0889693
-0.0889722
-0.0889772
-0.0889813
-0.0889723
-0.0889708
-0.0889685
-0.0889684
-0.0889684
-0.0889698
-0.0889723
-0.0889748
-0.0889792
-0.0889826
-0.0889758
-0.0889749
-0.088973
-0.0889729
-0.0889729
-0.088974
-0.0889763
-0.0889786
-0.0889824
-0.0889853
-0.08898
-0.0889793
-0.0889773
-0.0889771
-0.0889768
-0.0889778
-0.08898
-0.0889819
-0.0889858
-0.0889886
-0.0889863
-0.0889853
-0.0889836
-0.0889827
-0.0889821
-0.0889828
-0.0889849
-0.0889871
-0.0889904
-0.0889938
-0.0889939
-0.0889913
-0.0889886
-0.0889871
-0.088986
-0.0889865
-0.0889886
-0.0889907
-0.0889943
-0.0889992
-0.0946956
-0.0946882
-0.0946846
-0.0946834
-0.0946816
-0.0946802
-0.0946797
-0.0946792
-0.0946814
-0.0946883
-0.0946889
-0.0946811
-0.0946766
-0.0946741
-0.0946716
-0.0946704
-0.0946703
-0.0946712
-0.0946753
-0.0946822
-0.094681
-0.0946738
-0.0946677
-0.0946646
-0.0946618
-0.0946604
-0.0946611
-0.0946626
-0.0946674
-0.0946742
-0.0946745
-0.0946675
-0.0946614
-0.0946578
-0.0946549
-0.0946538
-0.0946544
-0.0946561
-0.0946613
-0.0946675
-0.0946698
-0.0946628
-0.094656
-0.0946523
-0.0946494
-0.0946483
-0.0946494
-0.0946515
-0.0946567
-0.0946628
-0.0946669
-0.0946599
-0.0946533
-0.0946493
-0.0946465
-0.0946458
-0.0946469
-0.0946492
-0.0946546
-0.0946604
-0.0946659
-0.0946594
-0.0946528
-0.0946489
-0.0946463
-0.0946456
-0.094647
-0.0946495
-0.0946545
-0.0946599
-0.0946662
-0.0946602
-0.0946538
-0.09465
-0.0946474
-0.0946469
-0.0946486
-0.094651
-0.0946562
-0.0946611
-0.0946689
-0.0946635
-0.0946579
-0.094654
-0.0946516
-0.0946512
-0.0946529
-0.0946557
-0.09466
-0.0946648
-0.0946738
-0.0946678
-0.0946623
-0.0946586
-0.0946563
-0.094656
-0.0946577
-0.0946604
-0.0946644
-0.0946699
-0.100302
-0.100299
-0.1003
-0.100301
-0.100301
-0.100301
-0.1003
-0.100298
-0.100297
-0.1003
-0.100293
-0.10029
-0.100289
-0.100289
-0.100288
-0.100287
-0.100286
-0.100286
-0.100286
-0.10029
-0.100284
-0.10028
-0.100277
-0.100276
-0.100274
-0.100273
-0.100273
-0.100272
-0.100275
-0.10028
-0.100277
-0.100272
-0.100268
-0.100265
-0.100263
-0.100262
-0.100262
-0.100262
-0.100266
-0.100271
-0.100271
-0.100265
-0.10026
-0.100256
-0.100254
-0.100252
-0.100253
-0.100254
-0.100259
-0.100265
-0.100268
-0.100261
-0.100254
-0.10025
-0.100247
-0.100246
-0.100247
-0.100249
-0.100255
-0.100261
-0.100266
-0.100259
-0.100252
-0.100248
-0.100245
-0.100244
-0.100245
-0.100248
-0.100253
-0.100259
-0.100265
-0.100258
-0.100251
-0.100247
-0.100245
-0.100244
-0.100245
-0.100248
-0.100254
-0.100259
-0.100266
-0.10026
-0.100255
-0.100251
-0.100248
-0.100248
-0.10025
-0.100253
-0.100257
-0.100262
-0.10027
-0.100264
-0.10026
-0.100256
-0.100254
-0.100254
-0.100256
-0.100258
-0.100262
-0.100267
-0.1058
-0.1058
-0.105803
-0.105805
-0.105805
-0.105805
-0.105804
-0.105802
-0.105799
-0.105799
-0.105789
-0.105789
-0.10579
-0.105791
-0.10579
-0.10579
-0.105789
-0.105787
-0.105786
-0.105786
-0.105779
-0.105777
-0.105776
-0.105776
-0.105775
-0.105774
-0.105773
-0.105772
-0.105772
-0.105775
-0.105771
-0.105768
-0.105765
-0.105764
-0.105762
-0.105761
-0.105761
-0.105761
-0.105763
-0.105766
-0.105765
-0.10576
-0.105756
-0.105754
-0.105751
-0.10575
-0.105751
-0.105752
-0.105755
-0.10576
-0.105762
-0.105755
-0.10575
-0.105746
-0.105744
-0.105743
-0.105744
-0.105746
-0.105751
-0.105756
-0.105759
-0.105753
-0.105747
-0.105743
-0.10574
-0.10574
-0.105741
-0.105743
-0.105748
-0.105754
-0.105759
-0.105752
-0.105746
-0.105742
-0.10574
-0.105739
-0.105741
-0.105743
-0.105748
-0.105754
-0.105759
-0.105754
-0.105748
-0.105745
-0.105743
-0.105743
-0.105745
-0.105747
-0.105751
-0.105756
-0.105762
-0.105757
-0.105753
-0.105751
-0.10575
-0.10575
-0.105751
-0.105753
-0.105756
-0.10576
-0.111222
-0.111221
-0.11122
-0.111218
-0.111216
-0.111214
-0.111214
-0.111213
-0.11121
-0.11121
-0.111209
-0.111207
-0.111206
-0.111204
-0.111202
-0.1112
-0.1112
-0.111199
-0.111197
-0.111198
-0.111198
-0.111194
-0.111191
-0.111189
-0.111187
-0.111186
-0.111186
-0.111185
-0.111185
-0.111187
-0.11119
-0.111184
-0.11118
-0.111178
-0.111176
-0.111175
-0.111175
-0.111175
-0.111177
-0.111181
-0.111184
-0.111177
-0.111172
-0.111168
-0.111166
-0.111165
-0.111166
-0.111167
-0.111171
-0.111177
-0.11118
-0.111172
-0.111166
-0.111162
-0.111159
-0.111159
-0.11116
-0.111162
-0.111167
-0.111173
-0.111178
-0.11117
-0.111163
-0.111159
-0.111156
-0.111156
-0.111157
-0.11116
-0.111165
-0.111172
-0.111177
-0.111169
-0.111162
-0.111158
-0.111156
-0.111155
-0.111157
-0.111159
-0.111165
-0.111171
-0.111176
-0.11117
-0.111164
-0.111161
-0.111159
-0.111159
-0.11116
-0.111163
-0.111167
-0.111172
-0.111178
-0.111173
-0.111168
-0.111166
-0.111165
-0.111164
-0.111166
-0.111168
-0.111172
-0.111176
-0.116524
-0.116524
-0.116522
-0.116519
-0.116515
-0.116514
-0.116514
-0.116515
-0.116515
-0.116513
-0.116513
-0.116512
-0.11651
-0.116508
-0.116506
-0.116505
-0.116505
-0.116506
-0.116505
-0.116505
-0.116505
-0.116502
-0.1165
-0.116498
-0.116496
-0.116496
-0.116497
-0.116497
-0.116498
-0.116499
-0.116501
-0.116496
-0.116492
-0.11649
-0.116489
-0.116489
-0.11649
-0.116492
-0.116494
-0.116497
-0.116497
-0.116491
-0.116487
-0.116485
-0.116484
-0.116484
-0.116486
-0.116488
-0.116491
-0.116496
-0.116495
-0.116489
-0.116484
-0.116482
-0.116481
-0.116481
-0.116483
-0.116486
-0.11649
-0.116496
-0.116495
-0.116489
-0.116484
-0.116482
-0.11648
-0.116481
-0.116483
-0.116485
-0.11649
-0.116496
-0.116497
-0.11649
-0.116485
-0.116483
-0.116482
-0.116482
-0.116484
-0.116487
-0.116491
-0.116497
-0.116498
-0.116493
-0.116489
-0.116487
-0.116487
-0.116487
-0.116488
-0.116491
-0.116494
-0.116499
-0.116501
-0.116497
-0.116494
-0.116493
-0.116493
-0.116493
-0.116494
-0.116496
-0.116499
-0.116502
-0.121787
-0.121784
-0.12178
-0.121776
-0.121773
-0.121773
-0.121775
-0.121778
-0.121781
-0.121783
-0.121781
-0.121778
-0.121775
-0.121771
-0.121769
-0.121768
-0.12177
-0.121773
-0.121775
-0.121777
-0.121778
-0.121773
-0.12177
-0.121766
-0.121764
-0.121764
-0.121766
-0.121768
-0.121772
-0.121775
-0.121776
-0.121771
-0.121766
-0.121764
-0.121762
-0.121762
-0.121764
-0.121767
-0.121771
-0.121776
-0.121775
-0.121769
-0.121765
-0.121762
-0.12176
-0.121761
-0.121763
-0.121766
-0.121771
-0.121777
-0.121775
-0.121769
-0.121764
-0.121762
-0.12176
-0.121761
-0.121763
-0.121766
-0.121772
-0.121778
-0.121776
-0.12177
-0.121765
-0.121763
-0.121762
-0.121763
-0.121765
-0.121768
-0.121773
-0.12178
-0.121778
-0.121772
-0.121768
-0.121766
-0.121765
-0.121765
-0.121767
-0.12177
-0.121775
-0.121781
-0.121781
-0.121775
-0.121772
-0.12177
-0.12177
-0.12177
-0.121772
-0.121775
-0.121779
-0.121784
-0.121784
-0.121779
-0.121777
-0.121776
-0.121776
-0.121776
-0.121777
-0.12178
-0.121783
-0.121788
-0.127002
-0.126997
-0.126992
-0.126989
-0.126988
-0.126989
-0.126993
-0.126999
-0.127005
-0.127011
-0.126999
-0.126996
-0.126992
-0.126989
-0.126988
-0.126989
-0.126992
-0.126998
-0.127003
-0.127007
-0.127001
-0.126997
-0.126993
-0.126991
-0.12699
-0.126991
-0.126994
-0.126999
-0.127005
-0.127009
-0.127004
-0.127
-0.126996
-0.126994
-0.126993
-0.126994
-0.126997
-0.127001
-0.127007
-0.127012
-0.127008
-0.127003
-0.126999
-0.126997
-0.126996
-0.126997
-0.127
-0.127004
-0.127009
-0.127015
-0.127011
-0.127006
-0.127002
-0.127001
-0.127
-0.127001
-0.127004
-0.127007
-0.127012
-0.127018
-0.127015
-0.12701
-0.127007
-0.127005
-0.127005
-0.127006
-0.127008
-0.127011
-0.127015
-0.127021
-0.127019
-0.127014
-0.127011
-0.12701
-0.127009
-0.12701
-0.127012
-0.127015
-0.127019
-0.127024
-0.127023
-0.127019
-0.127017
-0.127016
-0.127015
-0.127016
-0.127017
-0.127019
-0.127022
-0.127027
-0.127029
-0.127024
-0.127022
-0.127022
-0.127021
-0.127021
-0.127022
-0.127024
-0.127027
-0.127032
-0.132221
-0.132211
-0.132206
-0.132202
-0.132203
-0.132205
-0.132209
-0.132216
-0.132224
-0.132234
-0.132218
-0.132213
-0.132208
-0.132205
-0.132205
-0.132207
-0.132211
-0.132217
-0.132225
-0.132231
-0.132222
-0.132218
-0.132213
-0.13221
-0.132209
-0.132211
-0.132215
-0.132221
-0.132229
-0.132235
-0.132228
-0.132223
-0.132218
-0.132216
-0.132215
-0.132216
-0.13222
-0.132226
-0.132232
-0.132239
-0.132232
-0.132228
-0.132224
-0.132222
-0.132221
-0.132222
-0.132225
-0.13223
-0.132236
-0.132242
-0.132237
-0.132233
-0.13223
-0.132228
-0.132227
-0.132228
-0.132231
-0.132235
-0.13224
-0.132245
-0.132242
-0.132238
-0.132236
-0.132234
-0.132234
-0.132234
-0.132237
-0.13224
-0.132244
-0.132249
-0.132247
-0.132244
-0.132241
-0.13224
-0.13224
-0.13224
-0.132242
-0.132244
-0.132248
-0.132253
-0.132253
-0.132249
-0.132248
-0.132246
-0.132246
-0.132246
-0.132247
-0.132249
-0.132252
-0.132256
-0.132261
-0.132255
-0.132253
-0.132252
-0.132252
-0.132251
-0.132252
-0.132253
-0.132256
-0.132264
-0.137449
-0.137437
-0.137431
-0.137429
-0.137429
-0.137431
-0.137435
-0.137441
-0.137449
-0.137463
-0.137445
-0.137439
-0.137433
-0.137431
-0.137431
-0.137432
-0.137436
-0.137442
-0.137451
-0.137459
-0.137449
-0.137443
-0.137438
-0.137435
-0.137434
-0.137436
-0.137439
-0.137446
-0.137454
-0.137462
-0.137452
-0.137448
-0.137443
-0.137441
-0.13744
-0.137441
-0.137444
-0.13745
-0.137457
-0.137464
-0.137456
-0.137452
-0.137449
-0.137447
-0.137446
-0.137446
-0.137449
-0.137454
-0.13746
-0.137466
-0.13746
-0.137457
-0.137454
-0.137453
-0.137452
-0.137452
-0.137455
-0.137458
-0.137463
-0.137468
-0.137464
-0.137462
-0.13746
-0.137459
-0.137458
-0.137458
-0.13746
-0.137463
-0.137467
-0.137472
-0.137469
-0.137467
-0.137465
-0.137464
-0.137463
-0.137464
-0.137465
-0.137468
-0.137471
-0.137476
-0.137474
-0.137472
-0.137471
-0.13747
-0.137469
-0.137469
-0.13747
-0.137472
-0.137475
-0.13748
-0.137485
-0.137477
-0.137476
-0.137475
-0.137474
-0.137474
-0.137475
-0.137477
-0.137479
-0.137489
-0.142663
-0.142651
-0.142647
-0.142646
-0.142647
-0.142649
-0.142651
-0.142656
-0.142662
-0.142678
-0.142657
-0.142652
-0.142647
-0.142646
-0.142646
-0.142648
-0.142651
-0.142656
-0.142664
-0.142672
-0.142659
-0.142655
-0.14265
-0.142648
-0.142647
-0.142649
-0.142652
-0.142657
-0.142665
-0.142673
-0.142661
-0.142657
-0.142653
-0.142651
-0.142651
-0.142652
-0.142655
-0.14266
-0.142666
-0.142672
-0.142663
-0.14266
-0.142657
-0.142655
-0.142655
-0.142656
-0.142658
-0.142662
-0.142667
-0.142673
-0.142666
-0.142664
-0.142662
-0.14266
-0.142659
-0.14266
-0.142662
-0.142665
-0.142669
-0.142674
-0.142669
-0.142668
-0.142666
-0.142665
-0.142665
-0.142665
-0.142667
-0.142669
-0.142672
-0.142676
-0.142673
-0.142672
-0.142671
-0.14267
-0.142669
-0.14267
-0.142671
-0.142673
-0.142676
-0.14268
-0.142678
-0.142677
-0.142676
-0.142675
-0.142674
-0.142674
-0.142676
-0.142677
-0.14268
-0.142684
-0.14269
-0.142681
-0.14268
-0.142679
-0.142678
-0.142679
-0.14268
-0.142682
-0.142684
-0.142695
-0.147875
-0.147863
-0.14786
-0.147859
-0.14786
-0.14786
-0.147859
-0.14786
-0.147863
-0.147876
-0.147865
-0.14786
-0.147856
-0.147855
-0.147854
-0.147854
-0.147854
-0.147856
-0.14786
-0.147867
-0.147864
-0.147858
-0.147854
-0.147851
-0.14785
-0.14785
-0.147851
-0.147854
-0.147858
-0.147864
-0.14786
-0.147857
-0.147853
-0.14785
-0.147849
-0.147848
-0.147849
-0.147852
-0.147856
-0.14786
-0.147858
-0.147856
-0.147852
-0.14785
-0.147848
-0.147848
-0.147849
-0.147851
-0.147854
-0.147857
-0.147858
-0.147855
-0.147853
-0.147851
-0.147849
-0.147849
-0.147849
-0.147851
-0.147854
-0.147856
-0.147858
-0.147856
-0.147854
-0.147852
-0.147851
-0.147851
-0.147851
-0.147852
-0.147854
-0.147857
-0.14786
-0.147858
-0.147856
-0.147855
-0.147853
-0.147853
-0.147854
-0.147855
-0.147857
-0.147859
-0.147862
-0.14786
-0.147859
-0.147857
-0.147856
-0.147856
-0.147856
-0.147858
-0.147859
-0.147862
-0.147874
-0.147864
-0.147862
-0.147859
-0.147858
-0.147858
-0.147859
-0.147861
-0.147863
-0.147873
-0.153046
-0.153035
-0.153035
-0.153035
-0.153035
-0.153034
-0.153032
-0.153032
-0.153031
-0.153042
-0.153035
-0.153029
-0.153028
-0.153027
-0.153027
-0.153026
-0.153025
-0.153024
-0.153025
-0.15303
-0.15303
-0.153025
-0.153022
-0.15302
-0.153019
-0.153018
-0.153018
-0.153018
-0.15302
-0.153024
-0.153023
-0.15302
-0.153017
-0.153014
-0.153013
-0.153012
-0.153012
-0.153012
-0.153014
-0.153017
-0.153019
-0.153016
-0.153012
-0.15301
-0.153008
-0.153007
-0.153007
-0.153008
-0.15301
-0.153013
-0.153016
-0.153013
-0.15301
-0.153007
-0.153006
-0.153005
-0.153005
-0.153005
-0.153007
-0.15301
-0.153014
-0.153011
-0.153008
-0.153006
-0.153005
-0.153004
-0.153004
-0.153005
-0.153006
-0.153008
-0.153015
-0.153011
-0.153008
-0.153006
-0.153005
-0.153004
-0.153004
-0.153006
-0.153007
-0.15301
-0.153016
-0.153012
-0.15301
-0.153007
-0.153006
-0.153006
-0.153006
-0.153008
-0.153009
-0.153012
-0.153027
-0.153016
-0.153013
-0.153009
-0.153008
-0.153008
-0.153009
-0.153011
-0.153013
-0.153023
-0.158157
-0.158149
-0.158152
-0.158152
-0.158152
-0.158151
-0.158149
-0.158147
-0.158144
-0.158151
-0.158143
-0.15814
-0.158142
-0.158143
-0.158143
-0.158142
-0.158139
-0.158137
-0.158135
-0.158137
-0.158137
-0.158133
-0.158133
-0.158133
-0.158133
-0.158131
-0.15813
-0.158128
-0.158127
-0.15813
-0.158128
-0.158126
-0.158125
-0.158124
-0.158123
-0.158122
-0.158121
-0.15812
-0.15812
-0.158121
-0.158122
-0.15812
-0.158118
-0.158117
-0.158116
-0.158115
-0.158114
-0.158114
-0.158114
-0.158116
-0.158118
-0.158115
-0.158113
-0.158111
-0.15811
-0.158109
-0.158109
-0.158109
-0.158111
-0.158113
-0.158115
-0.158112
-0.158109
-0.158107
-0.158106
-0.158106
-0.158106
-0.158107
-0.158109
-0.158111
-0.158116
-0.158111
-0.158108
-0.158106
-0.158105
-0.158105
-0.158105
-0.158107
-0.158108
-0.158113
-0.158115
-0.15811
-0.158108
-0.158106
-0.158105
-0.158106
-0.158106
-0.158108
-0.158109
-0.158113
-0.158125
-0.158114
-0.158112
-0.158108
-0.158108
-0.158108
-0.158109
-0.158113
-0.158114
-0.158124
-0.163225
-0.163218
-0.163222
-0.163221
-0.16322
-0.163219
-0.163217
-0.163216
-0.163211
-0.163217
-0.16321
-0.163208
-0.16321
-0.163211
-0.163211
-0.163209
-0.163207
-0.163204
-0.1632
-0.163201
-0.163204
-0.1632
-0.163201
-0.163201
-0.1632
-0.163199
-0.163196
-0.163194
-0.163192
-0.163195
-0.163195
-0.163192
-0.163192
-0.163191
-0.16319
-0.163188
-0.163187
-0.163185
-0.163184
-0.163186
-0.163189
-0.163185
-0.163183
-0.163182
-0.16318
-0.163179
-0.163178
-0.163178
-0.163178
-0.163181
-0.163184
-0.16318
-0.163177
-0.163174
-0.163173
-0.163172
-0.163172
-0.163172
-0.163174
-0.163178
-0.163181
-0.163176
-0.163172
-0.163169
-0.163168
-0.163167
-0.163168
-0.163169
-0.163171
-0.163175
-0.163182
-0.163174
-0.16317
-0.163167
-0.163165
-0.163165
-0.163166
-0.163168
-0.16317
-0.163176
-0.163179
-0.163172
-0.163169
-0.163166
-0.163165
-0.163165
-0.163166
-0.163168
-0.16317
-0.163175
-0.163188
-0.163176
-0.163174
-0.163169
-0.163168
-0.163169
-0.16317
-0.163174
-0.163175
-0.163185
-0.168222
-0.168214
-0.168218
-0.168216
-0.168215
-0.168215
-0.168214
-0.168215
-0.168209
-0.168216
-0.168205
-0.168204
-0.168207
-0.168208
-0.168208
-0.168207
-0.168206
-0.168204
-0.168199
-0.1682
-0.168202
-0.168198
-0.1682
-0.168201
-0.168201
-0.1682
-0.168198
-0.168197
-0.168194
-0.168197
-0.168195
-0.168192
-0.168193
-0.168193
-0.168193
-0.168192
-0.168191
-0.16819
-0.168188
-0.168191
-0.168192
-0.168188
-0.168187
-0.168186
-0.168186
-0.168185
-0.168185
-0.168185
-0.168185
-0.168189
-0.168191
-0.168185
-0.168183
-0.168181
-0.16818
-0.16818
-0.16818
-0.168181
-0.168183
-0.168187
-0.16819
-0.168183
-0.16818
-0.168178
-0.168177
-0.168177
-0.168177
-0.168179
-0.168181
-0.168187
-0.168192
-0.168183
-0.16818
-0.168177
-0.168176
-0.168176
-0.168177
-0.168179
-0.168181
-0.168189
-0.16819
-0.168183
-0.16818
-0.168178
-0.168177
-0.168177
-0.168178
-0.16818
-0.168181
-0.168187
-0.168201
-0.168188
-0.168187
-0.168183
-0.168182
-0.168182
-0.168183
-0.168187
-0.168186
-0.168197
-0.173207
-0.173196
-0.173198
-0.173194
-0.173192
-0.173191
-0.173192
-0.173195
-0.173192
-0.173202
-0.173191
-0.173187
-0.173188
-0.173187
-0.173186
-0.173185
-0.173185
-0.173186
-0.173183
-0.173185
-0.17319
-0.173184
-0.173185
-0.173183
-0.173182
-0.173182
-0.173181
-0.173182
-0.17318
-0.173186
-0.173186
-0.17318
-0.17318
-0.173179
-0.173178
-0.173177
-0.173177
-0.173178
-0.173178
-0.173183
-0.173185
-0.173179
-0.173177
-0.173175
-0.173174
-0.173174
-0.173174
-0.173175
-0.173177
-0.173183
-0.173185
-0.173178
-0.173175
-0.173173
-0.173171
-0.173171
-0.173172
-0.173174
-0.173177
-0.173184
-0.173186
-0.173177
-0.173174
-0.173171
-0.17317
-0.17317
-0.173171
-0.173174
-0.173177
-0.173184
-0.173189
-0.173178
-0.173175
-0.173172
-0.173171
-0.173171
-0.173172
-0.173175
-0.173178
-0.173187
-0.173186
-0.173178
-0.173176
-0.173174
-0.173173
-0.173173
-0.173174
-0.173177
-0.173178
-0.173185
-0.173199
-0.173184
-0.173184
-0.173181
-0.17318
-0.173181
-0.173181
-0.173185
-0.173184
-0.173198
-0.178158
-0.178142