/*--------------------------------*- C++ -*----------------------------------*\
| =========                 |                                                 |
| \\      /  F ield         | OpenFOAM: The Open Source CFD Toolbox           |
|  \\    /   O peration     | Version:  2406                                  |
|   \\  /    A nd           | Website:  www.openfoam.com                      |
|    \\/     M anipulation  |                                                 |
\*---------------------------------------------------------------------------*/
FoamFile
{
    version     2.0;
    format      ascii;
    arch        "LSB;label=32;scalar=64";
    class       surfaceScalarField;
    location    "150";
    object      phi;
}
// * * * * * * * * * * * * * * * * * * * * * * * * * * * * * * * * * * * * * //

dimensions      [0 3 -1 0 0 0 0];

oriented        oriented;

internalField   nonuniform List<scalar> 
73500
(
1.5708e-06
1.55327e-06
4.76362e-05
-1.78521e-06
-1.77482e-06
1.16674e-06
1.34815e-06
5.15868e-05
-1.60636e-06
7.74535e-07
1.2413e-06
5.45967e-05
-1.51083e-06
3.8719e-07
1.17712e-06
5.66261e-05
-1.44998e-06
1.22506e-09
1.14614e-06
5.76481e-05
-1.4181e-06
-3.83736e-07
1.14705e-06
5.76484e-05
-1.41958e-06
-7.65524e-07
1.18061e-06
5.66272e-05
-1.45616e-06
-1.1441e-06
1.24656e-06
5.45986e-05
-1.52448e-06
-1.50895e-06
1.35288e-06
5.15898e-05
-1.64051e-06
1.50947e-06
4.76409e-05
-1.8291e-06
-1.82958e-06
1.3644e-06
1.16062e-06
5.15867e-05
-1.62248e-06
1.03944e-06
1.02963e-06
5.52267e-05
6.96468e-07
9.44884e-07
5.80052e-05
3.49826e-07
8.90663e-07
5.988e-05
1.67964e-09
8.64371e-07
6.08244e-05
-3.45296e-07
8.65101e-07
6.08247e-05
-6.89732e-07
8.92386e-07
5.9881e-05
-1.02929e-06
9.47051e-07
5.8007e-05
-1.35232e-06
1.02971e-06
5.52295e-05
1.14422e-06
5.15898e-05
-1.63973e-06
1.25233e-06
7.7456e-07
5.45965e-05
-1.51562e-06
9.53972e-07
6.91998e-07
5.80051e-05
6.40553e-07
6.3437e-07
6.06083e-05
3.22092e-07
5.96688e-07
6.2366e-05
2.09189e-09
5.7817e-07
6.32517e-05
-3.17449e-07
5.78488e-07
6.3252e-05
-6.34679e-07
5.97612e-07
6.23669e-05
-9.46633e-07
6.35249e-07
6.06098e-05
-1.24628e-06
6.90127e-07
5.80071e-05
7.65565e-07
5.45986e-05
-1.52423e-06
1.18372e-06
3.88594e-07
5.66258e-05
-1.45241e-06
8.97434e-07
3.47889e-07
5.98797e-05
6.02647e-07
3.18837e-07
6.23659e-05
3.03109e-07
2.98941e-07
6.40454e-05
2.2269e-09
2.89238e-07
6.48918e-05
-2.98242e-07
2.89424e-07
6.4892e-05
-5.97093e-07
2.99133e-07
6.4046e-05
-8.9221e-07
3.18257e-07
6.2367e-05
-1.18073e-06
3.46018e-07
5.98812e-05
3.83861e-07
5.66274e-05
-1.45628e-06
1.14978e-06
3.68564e-09
5.76477e-05
-1.41767e-06
8.69704e-07
2.14862e-09
6.0824e-05
5.83046e-07
3.59301e-10
6.32515e-05
2.93358e-07
-3.10861e-10
6.48917e-05
2.35202e-09
-6.9135e-10
6.57185e-05
-2.88586e-07
-7.82001e-10
6.57187e-05
-5.78186e-07
-6.7351e-10
6.48922e-05
-8.65171e-07
-5.27566e-10
6.32523e-05
-1.14789e-06
-4.67549e-10
6.08251e-05
-2.71981e-10
5.76489e-05
-1.42078e-06
1.14897e-06
-3.81482e-07
5.7648e-05
-1.41913e-06
8.68338e-07
-3.44502e-07
6.08243e-05
5.82535e-07
-3.17615e-07
6.32517e-05
2.93025e-07
-2.99679e-07
6.48919e-05
2.26141e-09
-2.90522e-07
6.57186e-05
-2.88494e-07
-2.90765e-07
6.57188e-05
-5.78069e-07
-3.00381e-07
6.48922e-05
-8.65143e-07
-3.19297e-07
6.32523e-05
-1.14774e-06
-3.46642e-07
6.08251e-05
-3.84366e-07
5.76489e-05
-1.42077e-06
1.18119e-06
-7.63102e-07
5.66267e-05
-1.45448e-06
8.94723e-07
-6.87986e-07
5.98806e-05
6.00436e-07
-6.34126e-07
6.23665e-05
3.02262e-07
-5.97202e-07
6.40458e-05
2.06195e-09
-5.79029e-07
6.48921e-05
-2.98097e-07
-5.79345e-07
6.48922e-05
-5.9682e-07
-5.98268e-07
6.40461e-05
-8.9184e-07
-6.35745e-07
6.2367e-05
-1.18053e-06
-6.90532e-07
5.98812e-05
-7.65721e-07
5.66273e-05
-1.45615e-06
1.24641e-06
-1.14191e-06
5.45982e-05
-1.52289e-06
9.48255e-07
-1.02727e-06
5.80066e-05
6.37484e-07
-9.44975e-07
6.06095e-05
3.20717e-07
-8.91146e-07
6.23668e-05
1.82392e-09
-8.64784e-07
6.32522e-05
-3.17153e-07
-8.65132e-07
6.32522e-05
-6.34287e-07
-8.92436e-07
6.2367e-05
-9.46224e-07
-9.46925e-07
6.06098e-05
-1.24592e-06
-1.02951e-06
5.80071e-05
-1.14401e-06
5.45986e-05
-1.52401e-06
1.35242e-06
-1.50702e-06
5.15894e-05
-1.63841e-06
1.03058e-06
-1.34973e-06
5.52292e-05
6.91856e-07
-1.2438e-06
5.80068e-05
3.47879e-07
-1.17878e-06
5.98809e-05
1.56919e-09
-1.14638e-06
6.0825e-05
-3.45099e-07
-1.14691e-06
6.0825e-05
-6.89189e-07
-1.18003e-06
5.98811e-05
-1.02884e-06
-1.2459e-06
5.80071e-05
-1.35199e-06
-1.35216e-06
5.52295e-05
-1.50884e-06
5.15898e-05
-1.63937e-06
1.5095e-06
4.76405e-05
-1.82736e-06
-1.82847e-06
1.14505e-06
5.15895e-05
-1.63707e-06
7.66843e-07
5.45984e-05
-1.52168e-06
3.85364e-07
5.66272e-05
-1.45402e-06
1.10042e-09
5.76488e-05
-1.41899e-06
-3.83171e-07
5.76488e-05
-1.41926e-06
-7.64936e-07
5.66273e-05
-1.45516e-06
-1.14365e-06
5.45986e-05
-1.52337e-06
-1.50876e-06
5.15898e-05
-1.63921e-06
4.76408e-05
-1.82877e-06
-1.82868e-06
2.16618e-06
2.15415e-06
4.83313e-05
-2.51143e-06
-2.50325e-06
1.55035e-06
1.86024e-06
5.23357e-05
-1.99435e-06
1.04312e-06
1.76116e-06
5.53872e-05
-2.04644e-06
5.25851e-07
1.71202e-06
5.74452e-05
-2.01566e-06
-4.01857e-11
1.68752e-06
5.84815e-05
-1.99583e-06
-5.26029e-07
1.68807e-06
5.84817e-05
-1.9963e-06
-1.04211e-06
1.71446e-06
5.74458e-05
-2.01764e-06
-1.54712e-06
1.76514e-06
5.53883e-05
-2.05016e-06
-2.14652e-06
1.86032e-06
5.23374e-05
-2.00982e-06
2.14413e-06
4.83343e-05
-2.49341e-06
-2.49121e-06
1.86988e-06
1.54237e-06
5.23356e-05
-2.00618e-06
1.46854e-06
1.4605e-06
5.60274e-05
1.00255e-06
1.38862e-06
5.88423e-05
5.089e-07
1.34353e-06
6.0741e-05
-2.29598e-10
1.3218e-06
6.16975e-05
-5.08305e-07
1.32256e-06
6.16977e-05
-1.00037e-06
1.34503e-06
6.07416e-05
-1.4626e-06
1.39018e-06
5.88433e-05
-1.86245e-06
1.4604e-06
5.60289e-05
1.54493e-06
5.23375e-05
-2.01146e-06
1.7698e-06
1.0397e-06
5.53872e-05
-2.05374e-06
1.39613e-06
9.97706e-07
5.88423e-05
9.59638e-07
9.53792e-07
6.14783e-05
4.88456e-07
9.22887e-07
6.32568e-05
3.32482e-10
9.07932e-07
6.41528e-05
-4.87442e-07
9.08261e-07
6.4153e-05
-9.57499e-07
9.24049e-07
6.32573e-05
-1.39237e-06
9.55278e-07
6.14792e-05
-1.76709e-06
9.98102e-07
5.88434e-05
1.0399e-06
5.53885e-05
-2.05196e-06
1.71841e-06
5.24176e-07
5.74452e-05
-2.02061e-06
1.34974e-06
5.05513e-07
6.0741e-05
9.28662e-07
4.84706e-07
6.32568e-05
4.72933e-07
4.68558e-07
6.49548e-05
5.9725e-10
4.60828e-07
6.58104e-05
-4.71316e-07
4.61198e-07
6.58105e-05
-9.26335e-07
4.69282e-07
6.49551e-05
-1.34734e-06
4.85319e-07
6.32574e-05
-1.71649e-06
5.06276e-07
6.07419e-05
5.23964e-07
5.74462e-05
-2.01944e-06
1.69215e-06
-1.43642e-10
5.84815e-05
-1.99816e-06
1.3274e-06
-1.29871e-09
6.16975e-05
9.12991e-07
-2.24584e-09
6.41528e-05
4.65243e-07
-2.34865e-09
6.58104e-05
9.55251e-10
-2.39297e-09
6.66457e-05
-4.63254e-07
-2.27868e-09
6.66458e-05
-9.10783e-07
-2.02102e-09
6.58107e-05
-1.32498e-06
-1.7782e-09
6.41533e-05
-1.69048e-06
-1.56363e-09
6.16982e-05
-1.41602e-09
5.84823e-05
-1.99855e-06
1.69157e-06
-5.25654e-07
5.84817e-05
-1.99796e-06
1.32674e-06
-5.08925e-07
6.16977e-05
9.12989e-07
-4.88435e-07
6.41529e-05
4.65251e-07
-4.73211e-07
6.58105e-05
1.10838e-09
-4.65459e-07
6.66458e-05
-4.63023e-07
-4.65483e-07
6.66459e-05
-9.10605e-07
-4.73177e-07
6.58107e-05
-1.32485e-06
-4.88739e-07
6.41533e-05
-1.69044e-06
-5.09279e-07
6.16982e-05
-5.26622e-07
5.84823e-05
-1.9986e-06
1.71709e-06
-1.04115e-06
5.74457e-05
-2.01819e-06
1.34882e-06
-9.99859e-07
6.07415e-05
9.27906e-07
-9.57661e-07
6.32572e-05
4.73119e-07
-9.26918e-07
6.49551e-05
1.13301e-09
-9.11879e-07
6.58106e-05
-4.707e-07
-9.11931e-07
6.58107e-05
-9.25795e-07
-9.27272e-07
6.49553e-05
-1.34698e-06
-9.5815e-07
6.32575e-05
-1.71633e-06
-1.00072e-06
6.0742e-05
-1.04231e-06
5.74462e-05
-2.01955e-06
1.76731e-06
-1.54621e-06
5.53881e-05
-2.05087e-06
1.39341e-06
-1.46138e-06
5.88432e-05
9.58831e-07
-1.3915e-06
6.1479e-05
4.8872e-07
-1.34674e-06
6.32573e-05
1.2021e-09
-1.32479e-06
6.41532e-05
-4.86442e-07
-1.32499e-06
6.41533e-05
-9.56699e-07
-1.34734e-06
6.32575e-05
-1.39187e-06
-1.39235e-06
6.14793e-05
-1.76689e-06
-1.4624e-06
5.88435e-05
-1.54685e-06
5.53886e-05
-2.05207e-06
1.86289e-06
-2.1452e-06
5.23372e-05
-2.01034e-06
1.46337e-06
-1.86073e-06
5.60286e-05
1.00156e-06
-1.76519e-06
5.88432e-05
5.09348e-07
-1.7149e-06
6.07417e-05
1.1388e-09
-1.68914e-06
6.16981e-05
-5.0724e-07
-1.68943e-06
6.16981e-05
-9.99478e-07
-1.71563e-06
6.07419e-05
-1.462e-06
-1.76637e-06
5.88435e-05
-1.86225e-06
-1.8618e-06
5.6029e-05
-2.14572e-06
5.23376e-05
-2.01152e-06
2.14712e-06
4.8334e-05
-2.49253e-06
-2.49258e-06
1.54824e-06
5.23372e-05
-2.00934e-06
1.04322e-06
5.53882e-05
-2.04986e-06
5.26889e-07
5.7446e-05
-2.01724e-06
9.77953e-10
5.84821e-05
-1.99662e-06
-5.24974e-07
5.84822e-05
-1.99681e-06
-1.04141e-06
5.74461e-05
-2.01805e-06
-1.54671e-06
5.53885e-05
-2.05088e-06
-2.14625e-06
5.23376e-05
-2.01054e-06
4.83344e-05
-2.49291e-06
-2.49244e-06
1.63373e-06
1.62889e-06
4.88821e-05
-1.9108e-06
-1.90641e-06
1.14995e-06
1.40534e-06
5.29233e-05
-1.51226e-06
7.74976e-07
1.371e-06
5.60041e-05
-1.61544e-06
3.8722e-07
1.33538e-06
5.80815e-05
-1.58602e-06
-4.36185e-10
1.31981e-06
5.91271e-05
-1.5792e-06
-3.88301e-07
1.3201e-06
5.91274e-05
-1.57887e-06
-7.76657e-07
1.3365e-06
5.80822e-05
-1.58546e-06
-1.15253e-06
1.3731e-06
5.60054e-05
-1.61471e-06
-1.62782e-06
1.4058e-06
5.29257e-05
-1.51986e-06
1.62643e-06
4.88858e-05
-1.90423e-06
-1.90256e-06
1.40929e-06
1.14566e-06
5.29232e-05
-1.5162e-06
1.09789e-06
1.0937e-06
5.66486e-05
7.56469e-07
1.06322e-06
5.94895e-05
3.84257e-07
1.04149e-06
6.14059e-05
-8.45902e-10
1.0303e-06
6.23709e-05
-3.85419e-07
1.03079e-06
6.23711e-05
-7.56763e-07
1.04258e-06
6.14066e-05
-1.09607e-06
1.06466e-06
5.94908e-05
-1.40683e-06
1.09472e-06
5.66506e-05
1.15122e-06
5.29258e-05
-1.52086e-06
1.37508e-06
7.71569e-07
5.6004e-05
-1.61816e-06
1.06736e-06
7.53122e-07
5.94894e-05
7.30808e-07
7.2707e-07
6.21494e-05
3.7116e-07
7.12175e-07
6.39444e-05
-5.55278e-10
7.05286e-07
6.48486e-05
-3.71905e-07
7.05619e-07
6.48488e-05
-7.30658e-07
7.13234e-07
6.39451e-05
-1.06616e-06
7.28673e-07
6.21505e-05
-1.37414e-06
7.54928e-07
5.9491e-05
7.75214e-07
5.60057e-05
-1.61583e-06
1.33895e-06
3.84154e-07
5.80814e-05
-1.58839e-06
1.04533e-06
3.81098e-07
6.14058e-05
7.15956e-07
3.68079e-07
6.39444e-05
3.63455e-07
3.60172e-07
6.56582e-05
-2.41553e-10
3.56777e-07
6.65217e-05
-3.63607e-07
3.57152e-07
6.65219e-05
-7.15367e-07
3.61085e-07
6.56587e-05
-1.04419e-06
3.69462e-07
6.39453e-05
-1.33753e-06
3.83232e-07
6.1407e-05
3.86683e-07
5.80827e-05
-1.58608e-06
1.32309e-06
-3.02927e-09
5.91271e-05
-1.58121e-06
1.03408e-06
-3.23002e-09
6.23708e-05
7.08861e-07
-3.30963e-09
6.48486e-05
3.60102e-07
-3.04327e-09
6.65217e-05
1.16069e-10
-2.83129e-09
6.73647e-05
-3.5971e-07
-2.59305e-09
6.73649e-05
-7.07904e-07
-2.23452e-09
6.65221e-05
-1.03248e-06
-1.92434e-09
6.48493e-05
-1.32114e-06
-1.69863e-09
6.23717e-05
-1.44923e-09
5.91281e-05
-1.57933e-06
1.32333e-06
-3.90783e-07
5.91273e-05
-1.58114e-06
1.03422e-06
-3.87766e-07
6.23711e-05
7.09177e-07
-3.74167e-07
6.48488e-05
3.60341e-07
-3.66128e-07
6.65219e-05
3.84393e-10
-3.62243e-07
6.73649e-05
-3.59395e-07
-3.62002e-07
6.7365e-05
-7.07678e-07
-3.65421e-07
6.65222e-05
-1.03235e-06
-3.73205e-07
6.48493e-05
-1.32104e-06
-3.8637e-07
6.23718e-05
-3.89461e-07
5.91281e-05
-1.57938e-06
1.33985e-06
-7.78586e-07
5.80823e-05
-1.5879e-06
1.04606e-06
-7.58641e-07
6.14066e-05
7.16512e-07
-7.32654e-07
6.39451e-05
3.64323e-07
-7.17345e-07
6.56587e-05
6.54741e-10
-7.09958e-07
6.65221e-05
-3.62799e-07
-7.0976e-07
6.65222e-05
-7.14685e-07
-7.16716e-07
6.5659e-05
-1.04372e-06
-7.31671e-07
6.39454e-05
-1.33734e-06
-7.57629e-07
6.14071e-05
-7.77624e-07
5.80828e-05
-1.58613e-06
1.37652e-06
-1.154e-06
5.60055e-05
-1.61794e-06
1.06812e-06
-1.09746e-06
5.94909e-05
7.32014e-07
-1.06761e-06
6.21506e-05
3.72648e-07
-1.0455e-06
6.39453e-05
9.58845e-10
-1.0338e-06
6.48493e-05
-3.70538e-07
-1.03349e-06
6.48493e-05
-7.29635e-07
-1.04496e-06
6.39454e-05
-1.06551e-06
-1.06668e-06
6.21508e-05
-1.37386e-06
-1.09655e-06
5.94912e-05
-1.15304e-06
5.60059e-05
-1.6159e-06
1.40961e-06
-1.62852e-06
5.29258e-05
-1.52298e-06
1.09821e-06
-1.40785e-06
5.66507e-05
7.58569e-07
-1.37491e-06
5.9491e-05
3.86411e-07
-1.33826e-06
6.1407e-05
1.42592e-09
-1.3216e-06
6.23718e-05
-3.83819e-07
-1.32145e-06
6.23718e-05
-7.55483e-07
-1.33754e-06
6.14071e-05
-1.09537e-06
-1.37401e-06
5.94912e-05
-1.40665e-06
-1.40673e-06
5.66509e-05
-1.62753e-06
5.2926e-05
-1.52101e-06
1.63035e-06
4.8886e-05
-1.90498e-06
-1.90535e-06
1.15512e-06
5.29259e-05
-1.52141e-06
7.79014e-07
5.60058e-05
-1.61635e-06
3.90244e-07
5.80828e-05
-1.58631e-06
1.78253e-09
5.91281e-05
-1.57944e-06
-3.86631e-07
5.91281e-05
-1.57904e-06
-7.75402e-07
5.80828e-05
-1.5856e-06
-1.15177e-06
5.60058e-05
-1.61507e-06
-1.62741e-06
5.2926e-05
-1.52003e-06
4.88861e-05
-1.90394e-06
-1.90316e-06
1.13239e-06
1.1295e-06
4.92807e-05
-1.33071e-06
-1.32524e-06
8.14724e-07
1.01211e-06
5.33534e-05
-1.12121e-06
5.54686e-07
1.02013e-06
5.64586e-05
-1.2117e-06
2.7659e-07
9.94524e-07
5.85524e-05
-1.18474e-06
1.35246e-09
9.89739e-07
5.96061e-05
-1.19122e-06
-2.74202e-07
9.89835e-07
5.96063e-05
-1.19088e-06
-5.5359e-07
9.95115e-07
5.85528e-05
-1.18408e-06
-8.1527e-07
1.02134e-06
5.64594e-05
-1.21068e-06
-1.12722e-06
1.01232e-06
5.3355e-05
-1.12666e-06
1.12944e-06
4.92832e-05
-1.32634e-06
-1.32584e-06
1.01445e-06
8.12758e-07
5.33534e-05
-1.12439e-06
7.86525e-07
7.84526e-07
5.71073e-05
5.47805e-07
7.81594e-07
5.99694e-05
2.78611e-07
7.72245e-07
6.19e-05
8.3684e-10
7.685e-07
6.2872e-05
-2.76572e-07
7.68753e-07
6.28721e-05
-5.45248e-07
7.72597e-07
6.19005e-05
-7.82734e-07
7.81846e-07
5.99703e-05
-1.00994e-06
7.84643e-07
5.71087e-05
8.17309e-07
5.33552e-05
-1.12618e-06
1.02264e-06
5.52992e-07
5.64586e-05
-1.21409e-06
7.83831e-07
5.46227e-07
5.99694e-05
5.35369e-07
5.33339e-07
6.26482e-05
2.71461e-07
5.26987e-07
6.44557e-05
9.0741e-10
5.23668e-07
6.5366e-05
-2.69508e-07
5.23643e-07
6.53661e-05
-5.32775e-07
5.27152e-07
6.44561e-05
-7.8041e-07
5.33688e-07
6.26489e-05
-1.01956e-06
5.46414e-07
5.99704e-05
5.55281e-07
5.64597e-05
-1.21063e-06
9.97061e-07
2.7448e-07
5.85525e-05
-1.18723e-06
7.74408e-07
2.76616e-07
6.19e-05
5.29127e-07
2.69723e-07
6.44557e-05
2.68585e-07
2.66587e-07
6.61808e-05
8.16346e-10
2.64756e-07
6.70498e-05
-2.66587e-07
2.649e-07
6.70499e-05
-5.26526e-07
2.66559e-07
6.61811e-05
-7.71571e-07
2.69615e-07
6.44562e-05
-9.93604e-07
2.77321e-07
6.19007e-05
2.75586e-07
5.85532e-05
-1.18383e-06
9.92393e-07
-3.4536e-10
5.96064e-05
-1.19393e-06
7.7098e-07
-6.28322e-10
6.28721e-05
5.25648e-07
-1.08741e-09
6.5366e-05
2.66777e-07
-1.06449e-09
6.70498e-05
8.89502e-10
-1.15195e-09
6.78981e-05
-2.65032e-07
-1.30971e-09
6.78981e-05
-5.23271e-07
-1.06993e-09
6.705e-05
-7.67622e-07
-8.79658e-10
6.53664e-05
-9.88513e-07
-8.39256e-10
6.28726e-05
-3.71889e-10
5.96068e-05
-1.19051e-06
9.92665e-07
-2.75797e-07
5.96065e-05
-1.19431e-06
7.70795e-07
-2.78364e-07
6.28722e-05
5.25766e-07
-2.71145e-07
6.53661e-05
2.66738e-07
-2.68594e-07
6.70499e-05
7.34812e-10
-2.6695e-07
6.78981e-05
-2.64876e-07
-2.66864e-07
6.78982e-05
-5.2321e-07
-2.68703e-07
6.705e-05
-7.67728e-07
-2.71546e-07
6.53664e-05
-9.88303e-07
-2.78448e-07
6.28726e-05
-2.76433e-07
5.96068e-05
-1.19044e-06
9.97805e-07
-5.54241e-07
5.8553e-05
-1.18724e-06
7.74791e-07
-5.4639e-07
6.19005e-05
5.2886e-07
-5.34246e-07
6.4456e-05
2.68479e-07
-5.27956e-07
6.6181e-05
8.40588e-10
-5.24749e-07
6.70499e-05
-2.66711e-07
-5.24941e-07
6.705e-05
-5.26475e-07
-5.28189e-07
6.61811e-05
-7.71285e-07
-5.34593e-07
6.44562e-05
-9.93567e-07
-5.4754e-07
6.19007e-05
-5.55985e-07
5.85532e-05
-1.18342e-06
1.02367e-06
-8.15432e-07
5.64596e-05
-1.21405e-06
7.83751e-07
-7.83152e-07
5.99703e-05
5.35384e-07
-7.80984e-07
6.26488e-05
2.71428e-07
-7.71951e-07
6.44561e-05
7.31983e-10
-7.68339e-07
6.53662e-05
-2.69549e-07
-7.68414e-07
6.53663e-05
-5.32849e-07
-7.72619e-07
6.44562e-05
-7.80609e-07
-7.82102e-07
6.26489e-05
-1.01946e-06
-7.84833e-07
5.99704e-05
-8.18038e-07
5.64597e-05
-1.21033e-06
1.0147e-06
-1.12644e-06
5.3355e-05
-1.12904e-06
7.86419e-07
-1.00944e-06
5.71086e-05
5.48333e-07
-1.01882e-06
5.99702e-05
2.78661e-07
-9.93159e-07
6.19005e-05
7.60536e-10
-9.88116e-07
6.28723e-05
-2.77158e-07
-9.88567e-07
6.28723e-05
-5.45828e-07
-9.94219e-07
6.19006e-05
-7.83205e-07
-1.02075e-06
5.99704e-05
-1.01059e-06
-1.01228e-06
5.71087e-05
-1.12998e-06
5.33551e-05
-1.12611e-06
1.13214e-06
4.92831e-05
-1.32519e-06
-1.32825e-06
8.19457e-07
5.33549e-05
-1.12464e-06
5.56908e-07
5.64594e-05
-1.20922e-06
2.76774e-07
5.85529e-05
-1.18253e-06
4.11909e-10
5.96065e-05
-1.18969e-06
-2.756e-07
5.96065e-05
-1.19007e-06
-5.54804e-07
5.8553e-05
-1.18395e-06
-8.16374e-07
5.64596e-05
-1.21161e-06
-1.12777e-06
5.33551e-05
-1.12782e-06
4.92832e-05
-1.32658e-06
-1.32794e-06
7.70379e-07
7.75631e-07
4.95469e-05
-9.03902e-07
-9.06528e-07
5.80002e-07
7.23976e-07
5.36456e-05
-8.23454e-07
3.98565e-07
7.4104e-07
5.67713e-05
-8.70582e-07
1.98701e-07
7.20784e-07
5.88792e-05
-8.46282e-07
7.97462e-10
7.22962e-07
5.99403e-05
-8.58044e-07
-1.96657e-07
7.22942e-07
5.99404e-05
-8.57645e-07
-3.9731e-07
7.2075e-07
5.88796e-05
-8.45336e-07
-5.79773e-07
7.41327e-07
5.67721e-05
-8.68633e-07
-7.66181e-07
7.23142e-07
5.36469e-05
-8.25144e-07
7.74773e-07
4.95487e-05
-9.01237e-07
-9.04994e-07
7.18938e-07
5.83496e-07
5.36454e-05
-8.17696e-07
5.62239e-07
5.65282e-07
5.7425e-05
3.95587e-07
5.71817e-07
6.03074e-05
2.00871e-07
5.65602e-07
6.22518e-05
4.62568e-10
5.66126e-07
6.32309e-05
-1.99627e-07
5.66147e-07
6.3231e-05
-3.93566e-07
5.65593e-07
6.22522e-05
-5.59186e-07
5.71668e-07
6.03081e-05
-7.15397e-07
5.64899e-07
5.74262e-05
5.86689e-07
5.36468e-05
-8.19042e-07
7.37132e-07
4.0025e-07
5.67709e-05
-8.65991e-07
5.69564e-07
3.96989e-07
6.03071e-05
3.924e-07
3.9319e-07
6.30055e-05
1.98815e-07
3.89832e-07
6.48266e-05
3.99988e-10
3.88292e-07
6.57438e-05
-1.9782e-07
3.88226e-07
6.57439e-05
-3.90678e-07
3.89838e-07
6.4827e-05
-5.67057e-07
3.93289e-07
6.30062e-05
-7.34657e-07
3.96933e-07
6.0308e-05
4.0196e-07
5.67719e-05
-8.62528e-07
7.17419e-07
1.98295e-07
5.88788e-05
-8.41892e-07
5.63729e-07
2.00461e-07
6.22515e-05
3.89313e-07
1.98458e-07
6.48264e-05
1.98481e-07
1.9789e-07
6.65648e-05
2.12598e-10
1.97021e-07
6.74405e-05
-1.97698e-07
1.97157e-07
6.74406e-05
-3.87728e-07
1.97848e-07
6.6565e-05
-5.61585e-07
1.98324e-07
6.48269e-05
-7.14495e-07
2.0098e-07
6.22521e-05
1.99131e-07
5.88794e-05
-8.38549e-07
7.20063e-07
-9.21859e-10
5.99398e-05
-8.54175e-07
5.64708e-07
-9.91482e-10
6.32304e-05
3.87798e-07
-1.35633e-09
6.57435e-05
1.97658e-07
-1.39213e-09
6.74404e-05
2.14609e-10
-1.45595e-09
6.82953e-05
-1.97182e-07
-1.59323e-09
6.82954e-05
-3.86362e-07
-1.29453e-09
6.74406e-05
-5.62082e-07
-1.10268e-09
6.57439e-05
-7.16775e-07
-1.10191e-09
6.32309e-05
-6.73056e-10
5.99402e-05
-8.5074e-07
7.20345e-07
-2.00352e-07
5.994e-05
-8.54554e-07
5.64569e-07
-2.02797e-07
6.32306e-05
3.87936e-07
-2.00519e-07
6.57436e-05
1.97691e-07
-2.00448e-07
6.74404e-05
7.09656e-11
-1.99714e-07
6.82953e-05
-1.96999e-07
-1.99517e-07
6.82953e-05
-3.86325e-07
-2.00395e-07
6.74406e-05
-5.62257e-07
-2.00615e-07
6.57439e-05
-7.16655e-07
-2.02464e-07
6.32309e-05
-2.00553e-07
5.99402e-05
-8.50824e-07
7.18323e-07
-4.01912e-07
5.88792e-05
-8.42333e-07
5.64264e-07
-3.97559e-07
6.22518e-05
3.8931e-07
-3.94385e-07
6.48267e-05
1.9852e-07
-3.91008e-07
6.65648e-05
2.86493e-10
-3.89443e-07
6.74405e-05
-1.97858e-07
-3.89576e-07
6.74405e-05
-3.87722e-07
-3.9085e-07
6.6565e-05
-5.61478e-07
-3.94228e-07
6.48269e-05
-7.14866e-07
-3.98142e-07
6.2252e-05
-4.02871e-07
5.88793e-05
-8.38624e-07
7.3892e-07
-5.85234e-07
5.67717e-05
-8.66583e-07
5.70149e-07
-5.63868e-07
6.03078e-05
3.92829e-07
-5.70925e-07
6.30059e-05
1.98998e-07
-5.64883e-07
6.48267e-05
2.34259e-10
-5.65424e-07
6.57438e-05
-1.97885e-07
-5.65246e-07
6.57438e-05
-3.90975e-07
-5.65151e-07
6.48269e-05
-5.67648e-07
-5.71373e-07
6.30061e-05
-7.35222e-07
-5.64617e-07
6.0308e-05
-5.8723e-07
5.67718e-05
-8.63164e-07
7.20771e-07
-7.71836e-07
5.36467e-05
-8.22865e-07
5.63421e-07
-7.20039e-07
5.7426e-05
3.96635e-07
-7.38458e-07
6.03079e-05
2.01264e-07
-7.18164e-07
6.2252e-05
5.30185e-10
-7.20101e-07
6.32309e-05
-2.00356e-07
-7.20405e-07
6.32309e-05
-3.94492e-07
-7.18566e-07
6.22521e-05
-5.60514e-07
-7.39477e-07
6.0308e-05
-7.17336e-07
-7.21918e-07
5.74261e-05
-7.74278e-07
5.36467e-05
-8.20314e-07
7.72748e-07
4.95485e-05
-9.04663e-07
-9.04169e-07
5.85345e-07
5.36467e-05
-8.23152e-07
4.0136e-07
5.67718e-05
-8.66384e-07
1.99442e-07
5.88794e-05
-8.42286e-07
3.52558e-10
5.99403e-05
-8.54531e-07
-1.98255e-07
5.99403e-05
-8.54637e-07
-3.99236e-07
5.88795e-05
-8.42968e-07
-5.82337e-07
5.67719e-05
-8.67687e-07
-7.68634e-07
5.36468e-05
-8.24781e-07
4.95486e-05
-9.03275e-07
-9.06073e-07
6.1025e-07
6.1387e-07
4.97606e-05
-7.17872e-07
-7.17862e-07
4.79677e-07
5.81837e-07
5.3879e-05
-6.82045e-07
3.29237e-07
5.84284e-07
5.70198e-05
-6.80396e-07
1.64566e-07
5.60899e-07
5.9138e-05
-6.52987e-07
9.47188e-11
5.62336e-07
6.02043e-05
-6.60225e-07
-1.64065e-07
5.62232e-07
6.02044e-05
-6.60149e-07
-3.29516e-07
5.61171e-07
5.91382e-05
-6.52849e-07
-4.80732e-07
5.85419e-07
5.70203e-05
-6.79683e-07
-6.087e-07
5.82184e-07
5.38798e-05
-6.8477e-07
6.14241e-07
4.97617e-05
-7.17754e-07
-7.17504e-07
5.79117e-07
4.82752e-07
5.38787e-05
-6.79929e-07
4.54525e-07
4.5607e-07
5.76776e-05
3.18522e-07
4.5494e-07
6.0575e-05
1.61062e-07
4.42222e-07
6.25298e-05
-1.86122e-10
4.41616e-07
6.35141e-05
-1.6102e-07
4.41798e-07
6.35142e-05
-3.18184e-07
4.42496e-07
6.25301e-05
-4.53941e-07
4.55463e-07
6.05755e-05
-5.77929e-07
4.57106e-07
5.76784e-05
4.85974e-07
5.38797e-05
-6.82294e-07
5.82791e-07
3.31137e-07
5.70195e-05
-6.78275e-07
4.54682e-07
3.19102e-07
6.05748e-05
3.14648e-07
3.13969e-07
6.32883e-05
1.58985e-07
3.06643e-07
6.51197e-05
-2.87187e-11
3.04134e-07
6.60421e-05
-1.59232e-07
3.04056e-07
6.60422e-05
-3.1461e-07
3.07071e-07
6.51199e-05
-4.53896e-07
3.14946e-07
6.32887e-05
-5.82236e-07
3.19628e-07
6.05754e-05
3.32834e-07
5.70201e-05
-6.76985e-07
5.59761e-07
1.64445e-07
5.91375e-05
-6.50769e-07
4.42324e-07
1.60161e-07
6.25295e-05
3.07767e-07
1.57878e-07
6.51196e-05
1.57113e-07
1.55527e-07
6.68683e-05
-2.80102e-10
1.54163e-07
6.77493e-05
-1.57306e-07
1.54481e-07
6.77493e-05
-3.07469e-07
1.55797e-07
6.68685e-05
-4.41833e-07
1.58094e-07
6.51198e-05
-5.5849e-07
1.61249e-07
6.25299e-05
1.65531e-07
5.91379e-05
-6.49737e-07
5.61454e-07
-1.32958e-09
6.02038e-05
-6.58208e-07
4.42308e-07
-1.43484e-09
6.35137e-05
3.05253e-07
-1.97749e-09
6.60419e-05
1.55853e-07
-2.06133e-09
6.77492e-05
-1.17974e-10
-2.08516e-09
6.86094e-05
-1.56236e-07
-2.20778e-09
6.86095e-05
-3.04959e-07
-1.79548e-09
6.77493e-05
-4.40977e-07
-1.44134e-09
6.60421e-05
-5.59929e-07
-1.36757e-09
6.3514e-05
-7.43278e-10
6.0204e-05
-6.57064e-07
5.61654e-07
-1.67166e-07
6.02039e-05
-6.58693e-07
4.42065e-07
-1.63664e-07
6.35138e-05
3.05465e-07
-1.6124e-07
6.60419e-05
1.55984e-07
-1.59514e-07
6.77492e-05
-2.41967e-10
-1.58232e-07
6.86094e-05
-1.55971e-07
-1.57973e-07
6.86094e-05
-3.04825e-07
-1.5936e-07
6.77493e-05
-4.41184e-07
-1.61256e-07
6.60421e-05
-5.59764e-07
-1.63107e-07
6.3514e-05
-1.6706e-07
6.0204e-05
-6.57186e-07
5.60474e-07
-3.33236e-07
5.91378e-05
-6.51328e-07
4.42996e-07
-3.21042e-07
6.25297e-05
3.07993e-07
-3.16949e-07
6.51196e-05
1.57382e-07
-3.09435e-07
6.68683e-05
3.7361e-11
-3.06688e-07
6.77492e-05
-1.57333e-07
-3.06793e-07
6.77492e-05
-3.07381e-07
-3.09234e-07
6.68683e-05
-4.41542e-07
-3.16634e-07
6.51197e-05
-5.58855e-07
-3.21385e-07
6.25298e-05
-3.33849e-07
5.91378e-05
-6.49883e-07
5.84578e-07
-4.8513e-07
5.70199e-05
-6.78982e-07
4.5566e-07
-4.56813e-07
6.05752e-05
3.15664e-07
-4.5597e-07
6.32884e-05
1.59598e-07
-4.43107e-07
6.51197e-05
3.39514e-11
-4.42367e-07
6.6042e-05
-1.59057e-07
-4.42197e-07
6.6042e-05
-3.1465e-07
-4.43209e-07
6.51197e-05
-4.54422e-07
-4.56206e-07
6.32885e-05
-5.82655e-07
-4.57215e-07
6.05753e-05
-4.86522e-07
5.70199e-05
-6.77686e-07
5.81631e-07
-6.12461e-07
5.38795e-05
-6.83986e-07
4.5681e-07
-5.80478e-07
5.76781e-05
3.20429e-07
-5.83672e-07
6.05752e-05
1.62084e-07
-5.59764e-07
6.25298e-05
3.55218e-10
-5.60704e-07
6.35139e-05
-1.61517e-07
-5.60892e-07
6.35139e-05
-3.19058e-07
-5.59937e-07
6.25298e-05
-4.55075e-07
-5.84273e-07
6.05753e-05
-5.79745e-07
-5.81699e-07
5.76782e-05
-6.14208e-07
5.38795e-05
-6.83261e-07
6.1388e-07
4.97615e-05
-7.18846e-07
-7.1886e-07
4.8573e-07
5.38795e-05
-6.83826e-07
3.33101e-07
5.70199e-05
-6.78488e-07
1.6635e-07
5.91378e-05
-6.50859e-07
3.49034e-10
6.0204e-05
-6.5804e-07
-1.65332e-07
6.0204e-05
-6.58037e-07
-3.31491e-07
5.91378e-05
-6.51097e-07
-4.83644e-07
5.702e-05
-6.79134e-07
-6.1122e-07
5.38795e-05
-6.84759e-07
4.97615e-05
-7.19214e-07
-7.19452e-07
5.99349e-07
6.01311e-07
4.99707e-05
-7.06686e-07
-7.06063e-07
4.78686e-07
5.68952e-07
5.4107e-05
-6.77075e-07
3.26677e-07
5.56865e-07
5.72615e-05
-6.47813e-07
1.63479e-07
5.30983e-07
5.93888e-05
-6.19459e-07
-1.96032e-09
5.29522e-07
6.04597e-05
-6.20356e-07
-1.66889e-07
5.29435e-07
6.04598e-05
-6.20336e-07
-3.30101e-07
5.31356e-07
5.9389e-05
-6.19299e-07
-4.82161e-07
5.58091e-07
5.72618e-05
-6.46727e-07
-6.00822e-07
5.69639e-07
5.41076e-05
-6.78512e-07
6.0195e-07
4.99714e-05
-7.0781e-07
-7.05106e-07
5.6801e-07
4.79857e-07
5.41068e-05
-6.76181e-07
4.45849e-07
4.45498e-07
5.79225e-05
3.08603e-07
4.35888e-07
6.08331e-05
1.54985e-07
4.17262e-07
6.27967e-05
-2.07843e-09
4.14656e-07
6.37854e-05
-1.58653e-07
4.14937e-07
6.37855e-05
-3.1169e-07
4.17912e-07
6.27969e-05
-4.48486e-07
4.37075e-07
6.08335e-05
-5.69475e-07
4.47491e-07
5.79232e-05
4.83061e-07
5.41075e-05
-6.7883e-07
5.57381e-07
3.26885e-07
5.72612e-05
-6.46964e-07
4.37704e-07
3.07479e-07
6.0833e-05
3.02513e-07
3.00034e-07
6.3559e-05
1.51948e-07
2.88563e-07
6.53989e-05
-1.74398e-09
2.85103e-07
6.63257e-05
-1.55574e-07
2.85195e-07
6.63258e-05
-3.05675e-07
2.89572e-07
6.53992e-05
-4.39763e-07
3.01912e-07
6.35594e-05
-5.59009e-07
3.0909e-07
6.08335e-05
3.29171e-07
5.72618e-05
-6.4698e-07
5.32131e-07
1.62455e-07
5.93885e-05
-6.19162e-07
4.19638e-07
1.53024e-07
6.27965e-05
2.91576e-07
1.49509e-07
6.53989e-05
1.47899e-07
1.4492e-07
6.7156e-05
-1.79092e-09
1.43163e-07
6.80412e-05
-1.5108e-07
1.4367e-07
6.80413e-05
-2.94102e-07
1.4583e-07
6.71562e-05
-4.21535e-07
1.50695e-07
6.53992e-05
-5.32899e-07
1.55114e-07
6.2797e-05
1.64446e-07
5.9389e-05
-6.19507e-07
5.31056e-07
-3.77244e-09
6.04595e-05
-6.20422e-07
4.17598e-07
-3.96661e-09
6.37853e-05
2.88195e-07
-4.42409e-09
6.63256e-05
1.46312e-07
-4.45805e-09
6.80412e-05
-1.40194e-09
-4.29268e-09
6.89056e-05
-1.49168e-07
-4.18479e-09
6.89057e-05
-2.90308e-07
-3.61544e-09
6.80414e-05
-4.18558e-07
-3.06118e-09
6.63259e-05
-5.31539e-07
-2.78061e-09
6.37857e-05
-2.06376e-09
6.04599e-05
-6.20682e-07
5.31157e-07
-1.69855e-07
6.04597e-05
-6.20708e-07
4.17495e-07
-1.61432e-07
6.37854e-05
2.8851e-07
-1.57952e-07
6.63257e-05
1.46644e-07
-1.53689e-07
6.80412e-05
-1.28763e-09
-1.51674e-07
6.89056e-05
-1.4877e-07
-1.51248e-07
6.89057e-05
-2.90024e-07
-1.52977e-07
6.80414e-05
-4.18637e-07
-1.57065e-07
6.6326e-05
-5.3139e-07
-1.59897e-07
6.37857e-05
-1.68566e-07
6.04599e-05
-6.20813e-07
5.32795e-07
-3.33629e-07
5.93889e-05
-6.19561e-07
4.20468e-07
-3.14573e-07
6.27969e-05
2.92351e-07
-3.08075e-07
6.53991e-05
1.4876e-07
-2.96301e-07
6.71562e-05
-8.69062e-10
-2.92267e-07
6.80414e-05
-1.50506e-07
-2.92156e-07
6.80414e-05
-2.93604e-07
-2.95572e-07
6.71563e-05
-4.21027e-07
-3.06949e-07
6.53994e-05
-5.33168e-07
-3.13689e-07
6.27971e-05
-3.32812e-07
5.93891e-05
-6.19761e-07
5.59213e-07
-4.86409e-07
5.72619e-05
-6.47446e-07
4.39246e-07
-4.51367e-07
6.08335e-05
3.04263e-07
-4.41981e-07
6.35594e-05
1.53472e-07
-4.23056e-07
6.53993e-05
-6.86275e-10
-4.20111e-07
6.6326e-05
-1.54489e-07
-4.19788e-07
6.6326e-05
-3.04924e-07
-4.22526e-07
6.53994e-05
-4.39722e-07
-4.41234e-07
6.35596e-05
-5.59217e-07
-4.50488e-07
6.08337e-05
-4.86098e-07
5.7262e-05
-6.47739e-07
5.70903e-07
-6.04602e-07
5.41076e-05
-6.79174e-07
4.48857e-07
-5.72263e-07
5.79232e-05
3.11295e-07
-5.60796e-07
6.08336e-05
1.57171e-07
-5.34486e-07
6.27971e-05
-2.47893e-10
-5.32562e-07
6.37858e-05
-1.57753e-07
-5.32491e-07
6.37858e-05
-3.11382e-07
-5.33997e-07
6.27972e-05
-4.48734e-07
-5.60252e-07
6.08337e-05
-5.70726e-07
-5.71922e-07
5.79234e-05
-6.04428e-07
5.41077e-05
-6.79671e-07
6.03366e-07
4.99715e-05
-7.0954e-07
-7.07729e-07
4.84315e-07
5.41077e-05
-6.80704e-07
3.30776e-07
5.7262e-05
-6.48916e-07
1.6638e-07
5.93892e-05
-6.21019e-07
-2.80073e-11
6.04601e-05
-6.219e-07
-1.66217e-07
6.04601e-05
-6.21743e-07
-3.30243e-07
5.93892e-05
-6.20647e-07
-4.83528e-07
5.72621e-05
-6.48483e-07
-6.02267e-07
5.41078e-05
-6.80274e-07
4.99715e-05
-7.08895e-07
-7.08276e-07
6.37851e-07
6.36377e-07
5.01951e-05
-7.52272e-07
-7.44084e-07
5.06977e-07
6.00323e-07
5.435e-05
-7.10499e-07
3.44896e-07
5.82272e-07
5.75185e-05
-6.75795e-07
1.73448e-07
5.57811e-07
5.96553e-05
-6.50907e-07
-2.19219e-09
5.5532e-07
6.0731e-05
-6.49157e-07
-1.77734e-07
5.5563e-07
6.0731e-05
-6.49889e-07
-3.49516e-07
5.59723e-07
5.96554e-05
-6.53055e-07
-5.116e-07
5.8589e-07
5.75187e-05
-6.78642e-07
-6.40649e-07
6.04179e-07
5.43503e-05
-7.16749e-07
6.40294e-07
5.01953e-05
-7.53798e-07
-7.49784e-07
6.03307e-07
5.07735e-07
5.43501e-05
-7.16195e-07
4.73276e-07
4.7125e-07
5.8183e-05
3.25481e-07
4.58476e-07
6.11069e-05
1.63982e-07
4.38196e-07
6.30793e-05
-1.89405e-09
4.34964e-07
6.40725e-05
-1.67276e-07
4.35603e-07
6.40726e-05
-3.28669e-07
4.39644e-07
6.30794e-05
-4.76462e-07
4.60839e-07
6.1107e-05
-6.05071e-07
4.74909e-07
5.81833e-05
5.11704e-07
5.43504e-05
-7.18585e-07
5.86312e-07
3.46076e-07
5.75189e-05
-6.79815e-07
4.62183e-07
3.24024e-07
6.1107e-05
3.19353e-07
3.16041e-07
6.38456e-05
1.61128e-07
3.03204e-07
6.5694e-05
-1.16578e-09
2.99865e-07
6.66249e-05
-1.63894e-07
3.00021e-07
6.66249e-05
-3.22069e-07
3.0463e-07
6.5694e-05
-4.6402e-07
3.18602e-07
6.38456e-05
-5.88109e-07
3.26138e-07
6.11071e-05
3.48497e-07
5.7519e-05
-6.80994e-07
5.61932e-07
1.73632e-07
5.96557e-05
-6.54721e-07
4.42183e-07
1.62208e-07
6.30796e-05
3.0709e-07
1.5864e-07
6.56941e-05
1.56029e-07
1.52799e-07
6.74593e-05
-1.12692e-09
1.51056e-07
6.83486e-05
-1.57923e-07
1.51639e-07
6.83486e-05
-3.08778e-07
1.5382e-07