/*--------------------------------*- C++ -*----------------------------------*\
| =========                 |                                                 |
| \\      /  F ield         | OpenFOAM: The Open Source CFD Toolbox           |
|  \\    /   O peration     | Version:  2406                                  |
|   \\  /    A nd           | Website:  www.openfoam.com                      |
|    \\/     M anipulation  |                                                 |
\*---------------------------------------------------------------------------*/
FoamFile
{
    version     2.0;
    format      ascii;
    arch        "LSB;label=32;scalar=64";
    class       volSymmTensorField;
    location    "150";
    object      turbulenceProperties:devReff;
}
// * * * * * * * * * * * * * * * * * * * * * * * * * * * * * * * * * * * * * //

dimensions      [0 2 -2 0 0 0 0];

internalField   nonuniform List<symmTensor> 
25000
(
(4.39572e-06 -3.75337e-06 -1.59212e-06 4.39341e-06 -1.59272e-06 -8.78913e-06)
(6.12243e-06 1.9464e-06 -1.08276e-06 2.66444e-06 -1.40382e-06 -8.78686e-06)
(4.55343e-06 1.0968e-06 -7.7447e-07 3.64646e-06 -1.44784e-06 -8.19989e-06)
(4.22761e-06 6.82789e-07 -4.59682e-07 3.9427e-06 -1.45289e-06 -8.17031e-06)
(4.06109e-06 2.35624e-07 -1.4989e-07 4.08217e-06 -1.45344e-06 -8.14326e-06)
(4.07739e-06 -2.44394e-07 1.59595e-07 4.06966e-06 -1.4536e-06 -8.14705e-06)
(4.29196e-06 -6.93052e-07 4.69745e-07 3.89287e-06 -1.45323e-06 -8.18483e-06)
(4.72506e-06 -1.11695e-06 7.85292e-07 3.5116e-06 -1.44859e-06 -8.23666e-06)
(6.13895e-06 -1.85195e-06 1.11586e-06 2.49835e-06 -1.40999e-06 -8.6373e-06)
(4.11251e-06 4.03335e-06 1.59622e-06 4.10752e-06 -1.59348e-06 -8.22004e-06)
(2.67347e-06 1.94283e-06 -1.40398e-06 6.11942e-06 -1.08233e-06 -8.7929e-06)
(4.35699e-06 1.06567e-06 -1.0915e-06 4.35293e-06 -1.09146e-06 -8.70992e-06)
(3.89125e-06 7.66263e-07 -8.08472e-07 4.15345e-06 -1.11446e-06 -8.0447e-06)
(3.75273e-06 4.58377e-07 -4.86859e-07 3.95885e-06 -1.13505e-06 -7.71158e-06)
(3.70451e-06 1.46237e-07 -1.59476e-07 3.85046e-06 -1.14596e-06 -7.55497e-06)
(3.71447e-06 -1.67502e-07 1.68772e-07 3.84528e-06 -1.14637e-06 -7.55976e-06)
(3.78394e-06 -4.93225e-07 4.96197e-07 3.94222e-06 -1.13642e-06 -7.72617e-06)
(3.93733e-06 -8.48441e-07 8.17585e-07 4.13176e-06 -1.11767e-06 -8.06909e-06)
(4.35648e-06 -1.27772e-06 1.10098e-06 4.36405e-06 -1.09737e-06 -8.72053e-06)
(2.49845e-06 -1.85345e-06 1.41224e-06 6.14244e-06 -1.11188e-06 -8.64089e-06)
(3.65529e-06 1.0957e-06 -1.449e-06 4.54901e-06 -7.72774e-07 -8.2043e-06)
(4.15865e-06 7.64683e-07 -1.11532e-06 3.89086e-06 -8.07751e-07 -8.04951e-06)
(3.76611e-06 5.19223e-07 -8.19319e-07 3.7661e-06 -8.18463e-07 -7.53221e-06)
(3.58216e-06 3.11705e-07 -4.96257e-07 3.64384e-06 -8.26357e-07 -7.22599e-06)
(3.50494e-06 9.68717e-08 -1.63353e-07 3.57646e-06 -8.3131e-07 -7.0814e-06)
(3.50905e-06 -1.21562e-07 1.71331e-07 3.57536e-06 -8.32e-07 -7.08441e-06)
(3.59229e-06 -3.47177e-07 5.04034e-07 3.64294e-06 -8.28554e-07 -7.23523e-06)
(3.76916e-06 -5.7852e-07 8.26531e-07 3.77648e-06 -8.22273e-07 -7.54564e-06)
(4.12335e-06 -8.47054e-07 1.1209e-06 3.94443e-06 -8.13004e-07 -8.06777e-06)
(3.51089e-06 -1.1166e-06 1.45113e-06 4.73092e-06 -7.80766e-07 -8.24181e-06)
(3.94864e-06 6.84554e-07 -1.45402e-06 4.22335e-06 -4.58239e-07 -8.17199e-06)
(3.96179e-06 4.56794e-07 -1.13599e-06 3.75093e-06 -4.85768e-07 -7.71272e-06)
(3.64421e-06 3.10736e-07 -8.27365e-07 3.58238e-06 -4.9526e-07 -7.22659e-06)
(3.45875e-06 1.86111e-07 -5.01059e-07 3.45931e-06 -5.00075e-07 -6.91806e-06)
(3.37335e-06 5.58617e-08 -1.65638e-07 3.3955e-06 -5.03014e-07 -6.76885e-06)
(3.37435e-06 -7.69107e-08 1.72004e-07 3.3968e-06 -5.03787e-07 -6.77115e-06)
(3.45901e-06 -2.12281e-07 5.07217e-07 3.46529e-06 -5.02371e-07 -6.9243e-06)
(3.63606e-06 -3.45103e-07 8.32751e-07 3.60058e-06 -4.99102e-07 -7.23664e-06)
(3.93473e-06 -4.90654e-07 1.13999e-06 3.7946e-06 -4.91081e-07 -7.72933e-06)
(3.88962e-06 -6.91874e-07 1.45584e-06 4.30154e-06 -4.64578e-07 -8.19116e-06)
(4.08672e-06 2.37349e-07 -1.45459e-06 4.05674e-06 -1.48807e-07 -8.14347e-06)
(3.85303e-06 1.45895e-07 -1.14698e-06 3.70199e-06 -1.58407e-07 -7.55503e-06)
(3.57691e-06 9.60922e-08 -8.32319e-07 3.50425e-06 -1.62336e-07 -7.08116e-06)
(3.39504e-06 5.5487e-08 -5.04068e-07 3.37371e-06 -1.64622e-07 -6.76875e-06)
(3.3081e-06 1.36447e-08 -1.67208e-07 3.30859e-06 -1.66203e-07 -6.61669e-06)
(3.30765e-06 -2.93512e-08 1.72079e-07 3.31051e-06 -1.66888e-07 -6.61816e-06)
(3.39239e-06 -7.31727e-08 5.08649e-07 3.38059e-06 -1.66688e-07 -6.77298e-06)
(3.56864e-06 -1.15599e-07 8.36408e-07 3.51987e-06 -1.6573e-07 -7.08851e-06)
(3.83571e-06 -1.62074e-07 1.15004e-06 3.73016e-06 -1.62871e-07 -7.56588e-06)
(4.06056e-06 -2.42107e-07 1.4562e-06 4.09481e-06 -1.53679e-07 -8.15536e-06)
(4.07322e-06 -2.42239e-07 -1.45449e-06 4.07334e-06 1.60529e-07 -8.14656e-06)
(3.84716e-06 -1.66957e-07 -1.14742e-06 3.71168e-06 1.69749e-07 -7.55883e-06)
(3.57585e-06 -1.21805e-07 -8.33049e-07 3.50766e-06 1.72299e-07 -7.08352e-06)
(3.39639e-06 -7.71211e-08 -5.04796e-07 3.37379e-06 1.72968e-07 -6.77019e-06)
(3.31001e-06 -2.94129e-08 -1.67916e-07 3.3077e-06 1.73046e-07 -6.61771e-06)
(3.3093e-06 1.84532e-08 1.71508e-07 3.30948e-06 1.72468e-07 -6.61878e-06)
(3.39356e-06 6.56891e-08 5.08238e-07 3.37974e-06 1.71278e-07 -6.7733e-06)
(3.56939e-06 1.10366e-07 8.36074e-07 3.51924e-06 1.69576e-07 -7.08863e-06)
(3.83622e-06 1.58225e-07 1.14982e-06 3.72965e-06 1.66191e-07 -7.56587e-06)
(4.06062e-06 2.3898e-07 1.45611e-06 4.09453e-06 1.56657e-07 -8.15515e-06)
(3.89612e-06 -6.90902e-07 -1.45412e-06 4.28787e-06 4.70586e-07 -8.18399e-06)
(3.94349e-06 -4.9193e-07 -1.1374e-06 3.78109e-06 4.97056e-07 -7.72458e-06)
(3.64315e-06 -3.4673e-07 -8.29533e-07 3.59029e-06 5.04933e-07 -7.23344e-06)
(3.465e-06 -2.12187e-07 -5.03412e-07 3.45803e-06 5.08093e-07 -6.92303e-06)
(3.38027e-06 -7.30358e-08 -1.67702e-07 3.392e-06 5.09555e-07 -6.77227e-06)
(3.37959e-06 6.5767e-08 1.70322e-07 3.39344e-06 5.09112e-07 -6.77303e-06)
(3.46265e-06 2.04883e-07 5.05901e-07 3.46264e-06 5.06765e-07 -6.92529e-06)
(3.63849e-06 3.39953e-07 8.31837e-07 3.59855e-06 5.02804e-07 -7.23704e-06)
(3.93623e-06 4.86862e-07 1.13938e-06 3.7931e-06 4.94302e-07 -7.72933e-06)
(3.88976e-06 6.8866e-07 1.45554e-06 4.30074e-06 4.67485e-07 -8.19051e-06)
(3.51454e-06 -1.11483e-06 -1.44939e-06 4.7212e-06 7.86057e-07 -8.23574e-06)
(4.13097e-06 -8.46448e-07 -1.11829e-06 3.93351e-06 8.18168e-07 -8.06448e-06)
(3.77651e-06 -5.77677e-07 -8.23287e-07 3.76715e-06 8.27328e-07 -7.54366e-06)
(3.60038e-06 -3.44576e-07 -5.00156e-07 3.63491e-06 8.33594e-07 -7.23529e-06)
(3.51949e-06 -1.15254e-07 -1.66757e-07 3.56775e-06 8.37157e-07 -7.08724e-06)
(3.51896e-06 1.10687e-07 1.68602e-07 3.56886e-06 8.36804e-07 -7.08782e-06)
(3.59864e-06 3.40175e-07 5.01967e-07 3.63836e-06 8.32566e-07 -7.23699e-06)
(3.77318e-06 5.7369e-07 8.24999e-07 3.77316e-06 8.25701e-07 -7.54634e-06)
(4.12584e-06 8.4347e-07 1.11987e-06 3.94198e-06 8.1602e-07 -8.06782e-06)
(3.51113e-06 1.11339e-06 1.45064e-06 4.72969e-06 7.83533e-07 -8.24082e-06)
(2.50117e-06 -1.85104e-06 -1.41065e-06 6.1346e-06 1.11649e-06 -8.63577e-06)
(4.36407e-06 -1.27598e-06 -1.09833e-06 4.35397e-06 1.10177e-06 -8.71804e-06)
(3.94546e-06 -8.46084e-07 -8.14282e-07 4.1226e-06 1.12199e-06 -8.06807e-06)
(3.79421e-06 -4.89748e-07 -4.92147e-07 3.93323e-06 1.14067e-06 -7.72744e-06)
(3.72977e-06 -1.61394e-07 -1.63939e-07 3.83459e-06 1.15062e-06 -7.56436e-06)
(3.72941e-06 1.58847e-07 1.65186e-07 3.83544e-06 1.15035e-06 -7.56485e-06)
(3.79296e-06 4.87413e-07 4.93401e-07 3.93582e-06 1.13985e-06 -7.72878e-06)
(3.94301e-06 8.44165e-07 8.15563e-07 4.12719e-06 1.12069e-06 -8.0702e-06)
(4.36003e-06 1.27452e-06 1.09959e-06 4.36061e-06 1.10008e-06 -8.72065e-06)
(2.49874e-06 1.85051e-06 1.41157e-06 6.14102e-06 1.11439e-06 -8.63976e-06)
(4.11082e-06 4.03066e-06 -1.59426e-06 4.11041e-06 1.5969e-06 -8.22123e-06)
(6.14247e-06 -1.85284e-06 -1.11299e-06 2.4981e-06 1.4131e-06 -8.64057e-06)
(4.72989e-06 -1.1152e-06 -7.8185e-07 3.5102e-06 1.45171e-06 -8.2401e-06)
(4.30051e-06 -6.90508e-07 -4.65725e-07 3.88899e-06 1.4563e-06 -8.1895e-06)
(4.09402e-06 -2.40877e-07 -1.5483e-07 4.06007e-06 1.45658e-06 -8.15409e-06)
(4.09405e-06 2.4018e-07 1.5557e-07 4.06029e-06 1.45639e-06 -8.15434e-06)
(4.30044e-06 6.89953e-07 4.66533e-07 3.88972e-06 1.45575e-06 -8.19016e-06)
(4.72931e-06 1.11479e-06 7.82779e-07 3.51155e-06 1.45083e-06 -8.24086e-06)
(6.14071e-06 1.85173e-06 1.114e-06 2.5003e-06 1.41193e-06 -8.64101e-06)
(4.10967e-06 -4.03204e-06 1.59504e-06 4.11276e-06 1.59536e-06 -8.22244e-06)
(6.26458e-06 -3.33527e-06 3.2929e-06 6.26839e-06 3.30046e-06 -1.2533e-05)
(8.36682e-06 2.0026e-06 2.21062e-06 3.76512e-06 3.02259e-06 -1.21319e-05)
(6.34529e-06 4.9095e-07 1.57823e-06 5.29971e-06 2.74216e-06 -1.1645e-05)
(6.14972e-06 4.71397e-07 9.48462e-07 5.48959e-06 2.62801e-06 -1.16393e-05)
(6.02875e-06 1.72517e-07 3.10155e-07 5.59093e-06 2.56154e-06 -1.16197e-05)
(6.04456e-06 -1.73506e-07 -3.33201e-07 5.57651e-06 2.56188e-06 -1.16211e-05)
(6.21082e-06 -4.72353e-07 -9.81162e-07 5.43608e-06 2.62879e-06 -1.16469e-05)
(6.569e-06 -5.1512e-07 -1.63805e-06 5.13593e-06 2.74533e-06 -1.17049e-05)
(8.3569e-06 -1.89131e-06 -2.30488e-06 3.60887e-06 3.02752e-06 -1.19658e-05)
(5.92586e-06 3.64567e-06 -3.26993e-06 5.92037e-06 3.2698e-06 -1.18462e-05)
(3.77572e-06 1.99142e-06 3.01687e-06 8.37775e-06 2.21733e-06 -1.21535e-05)
(5.94633e-06 7.09586e-07 2.12506e-06 5.96381e-06 2.13227e-06 -1.19101e-05)
(5.68729e-06 3.42953e-07 1.44984e-06 5.88895e-06 2.02767e-06 -1.15762e-05)
(5.82613e-06 1.66289e-07 8.61611e-07 5.63111e-06 1.95057e-06 -1.14572e-05)
(5.84844e-06 4.59793e-08 2.79734e-07 5.51641e-06 1.90832e-06 -1.13648e-05)
(5.85758e-06 -6.83309e-08 -2.99735e-07 5.50992e-06 1.91002e-06 -1.13675e-05)
(5.85357e-06 -2.0247e-07 -8.88839e-07 5.61031e-06 1.95718e-06 -1.14639e-05)
(5.73825e-06 -4.28111e-07 -1.49334e-06 5.85959e-06 2.04702e-06 -1.15978e-05)
(5.95269e-06 -1.01384e-06 -2.17844e-06 5.96971e-06 2.17839e-06 -1.19224e-05)
(3.60541e-06 -1.89563e-06 -3.02682e-06 8.36497e-06 2.30417e-06 -1.19704e-05)
(5.31525e-06 4.73335e-07 2.74003e-06 6.34524e-06 1.58095e-06 -1.16605e-05)
(5.8897e-06 3.31634e-07 2.02322e-06 5.70215e-06 1.45601e-06 -1.15918e-05)
(5.63191e-06 3.05399e-07 1.37991e-06 5.64151e-06 1.38574e-06 -1.12734e-05)
(5.667e-06 1.75162e-07 8.1381e-07 5.50505e-06 1.33166e-06 -1.11721e-05)
(5.66616e-06 4.65063e-08 2.64701e-07 5.4471e-06 1.30444e-06 -1.11133e-05)
(5.66951e-06 -7.91179e-08 -2.79846e-07 5.44504e-06 1.30636e-06 -1.11145e-05)
(5.67549e-06 -2.17474e-07 -8.32478e-07 5.50137e-06 1.33902e-06 -1.11769e-05)
(5.63182e-06 -3.68256e-07 -1.40377e-06 5.6464e-06 1.40295e-06 -1.12782e-05)
(5.83895e-06 -4.26512e-07 -2.04521e-06 5.75011e-06 1.49105e-06 -1.15891e-05)
(5.131e-06 -5.16557e-07 -2.74501e-06 6.58013e-06 1.6368e-06 -1.17111e-05)
(5.50056e-06 4.65084e-07 2.62746e-06 6.1435e-06 9.48762e-07 -1.16441e-05)
(5.63165e-06 1.56322e-07 1.94652e-06 5.82937e-06 8.64162e-07 -1.1461e-05)
(5.50162e-06 1.71321e-07 1.32673e-06 5.6732e-06 8.17914e-07 -1.11748e-05)
(5.51256e-06 1.07147e-07 7.76819e-07 5.51702e-06 7.81224e-07 -1.10296e-05)
(5.51178e-06 2.48236e-08 2.52894e-07 5.44245e-06 7.62173e-07 -1.09542e-05)
(5.51256e-06 -5.70466e-08 -2.63793e-07 5.44371e-06 7.63865e-07 -1.09563e-05)
(5.50988e-06 -1.43958e-07 -7.88952e-07 5.52258e-06 7.86999e-07 -1.10325e-05)
(5.4867e-06 -2.14971e-07 -1.33975e-06 5.6904e-06 8.30089e-07 -1.11771e-05)
(5.59409e-06 -2.00178e-07 -1.95714e-06 5.87189e-06 8.85931e-07 -1.1466e-05)
(5.42611e-06 -4.74062e-07 -2.62852e-06 6.2268e-06 9.77769e-07 -1.16529e-05)
(5.59803e-06 1.6964e-07 2.56236e-06 6.02328e-06 3.09891e-07 -1.16213e-05)
(5.51986e-06 4.00107e-08 1.90574e-06 5.84775e-06 2.80834e-07 -1.13676e-05)
(5.44561e-06 4.24936e-08 1.30034e-06 5.66876e-06 2.6715e-07 -1.11144e-05)
(5.43974e-06 2.31005e-08 7.58166e-07 5.51564e-06 2.56152e-07 -1.09554e-05)
(5.43833e-06 -1.4571e-09 2.47174e-07 5.44099e-06 2.50581e-07 -1.08793e-05)
(5.43671e-06 -2.59738e-08 -2.54866e-07 5.44341e-06 2.51809e-07 -1.08801e-05)
(5.43358e-06 -5.2311e-08 -7.6603e-07 5.52363e-06 2.60226e-07 -1.09572e-05)
(5.43107e-06 -7.21951e-08 -1.30784e-06 5.68702e-06 2.7518e-07 -1.11181e-05)
(5.49105e-06 -6.36418e-08 -1.91067e-06 5.88084e-06 2.93718e-07 -1.13719e-05)
(5.55785e-06 -1.74957e-07 -2.56147e-06 6.06907e-06 3.26182e-07 -1.16269e-05)
(5.57955e-06 -1.74163e-07 2.56284e-06 6.04168e-06 -3.33449e-07 -1.16212e-05)
(5.51242e-06 -7.21073e-08 1.90847e-06 5.85602e-06 -2.99248e-07 -1.13684e-05)
(5.44533e-06 -8.25233e-08 1.30329e-06 5.67017e-06 -2.78305e-07 -1.11155e-05)
(5.44189e-06 -5.89811e-08 7.60318e-07 5.51384e-06 -2.61477e-07 -1.09557e-05)
(5.44131e-06 -2.68096e-08 2.48561e-07 5.43888e-06 -2.52223e-07 -1.08802e-05)
(5.43975e-06 4.9993e-09 -2.54115e-07 5.44125e-06 -2.51392e-07 -1.0881e-05)
(5.43572e-06 3.71896e-08 -7.65658e-07 5.522e-06 -2.58797e-07 -1.09577e-05)
(5.43258e-06 6.15488e-08 -1.30767e-06 5.68581e-06 -2.73286e-07 -1.11184e-05)
(5.49249e-06 5.64291e-08 -1.91056e-06 5.87976e-06 -2.91589e-07 -1.13722e-05)
(5.55758e-06 1.69743e-07 -2.56127e-06 6.0689e-06 -3.23827e-07 -1.16265e-05)
(5.4377e-06 -4.73488e-07 2.6299e-06 6.20872e-06 -9.81133e-07 -1.16464e-05)
(5.61305e-06 -2.04548e-07 1.95611e-06 5.85141e-06 -8.88357e-07 -1.14645e-05)
(5.50142e-06 -2.19662e-07 1.33648e-06 5.67465e-06 -8.3132e-07 -1.11761e-05)
(5.52173e-06 -1.4594e-07 7.84023e-07 5.51099e-06 -7.87381e-07 -1.10327e-05)
(5.52283e-06 -5.33794e-08 2.57266e-07 5.43521e-06 -7.64178e-07 -1.0958e-05)
(5.52111e-06 3.66049e-08 -2.6146e-07 5.43741e-06 -7.63657e-07 -1.09585e-05)
(5.51671e-06 1.29367e-07 -7.87832e-07 5.51747e-06 -7.85736e-07 -1.10342e-05)
(5.49197e-06 2.04761e-07 -1.33921e-06 5.68641e-06 -8.28327e-07 -1.11784e-05)
(5.5979e-06 1.93222e-07 -1.95677e-06 5.86888e-06 -8.83899e-07 -1.14668e-05)
(5.42521e-06 4.68516e-07 -2.62791e-06 6.22628e-06 -9.75456e-07 -1.16515e-05)
(5.13584e-06 -5.1451e-07 2.74597e-06 6.56754e-06 -1.63762e-06 -1.17034e-05)
(5.85675e-06 -4.29005e-07 2.04453e-06 5.73226e-06 -1.49161e-06 -1.1589e-05)
(5.64733e-06 -3.70048e-07 1.40093e-06 5.63132e-06 -1.40306e-06 -1.12786e-05)
(5.69061e-06 -2.16593e-07 8.27532e-07 5.48793e-06 -1.33896e-06 -1.11785e-05)
(5.68631e-06 -7.37091e-08 2.72437e-07 5.43173e-06 -1.30672e-06 -1.1118e-05)
(5.68518e-06 6.05742e-08 -2.75837e-07 5.43321e-06 -1.30644e-06 -1.11184e-05)
(5.68672e-06 2.0422e-07 -8.3051e-07 5.49279e-06 -1.33803e-06 -1.11795e-05)
(5.64009e-06 3.58831e-07 -1.40281e-06 5.63993e-06 -1.40143e-06 -1.128e-05)
(5.84565e-06 4.19976e-07 -2.04455e-06 5.7448e-06 -1.48918e-06 -1.15905e-05)
(5.12975e-06 5.10695e-07 -2.74398e-06 6.57885e-06 -1.63457e-06 -1.17086e-05)
(3.60749e-06 -1.88918e-06 3.02715e-06 8.35322e-06 -2.30339e-06 -1.19607e-05)
(5.97196e-06 -1.014e-06 2.17744e-06 5.95079e-06 -2.17779e-06 -1.19227e-05)
(5.75573e-06 -4.28186e-07 1.49024e-06 5.84299e-06 -2.04643e-06 -1.15987e-05)
(5.87227e-06 -2.0197e-07 8.83409e-07 5.59382e-06 -1.95682e-06 -1.14661e-05)
(5.88064e-06 -6.54256e-08 2.91055e-07 5.49084e-06 -1.9103e-06 -1.13715e-05)
(5.87976e-06 5.48758e-08 -2.94049e-07 5.49205e-06 -1.91018e-06 -1.13718e-05)
(5.86949e-06 1.92095e-07 -8.86001e-07 5.59753e-06 -1.95644e-06 -1.1467e-05)
(5.75044e-06 4.19916e-07 -1.49186e-06 5.84945e-06 -2.04576e-06 -1.15999e-05)
(5.96256e-06 1.00748e-06 -2.17741e-06 5.96095e-06 -2.17684e-06 -1.19235e-05)
(3.605e-06 1.88753e-06 -3.02537e-06 8.36143e-06 -2.30228e-06 -1.19664e-05)
(5.92158e-06 3.65172e-06 3.27016e-06 5.92242e-06 -3.2694e-06 -1.1844e-05)
(8.37007e-06 -1.89504e-06 2.30348e-06 3.60231e-06 -3.02726e-06 -1.19724e-05)
(6.58213e-06 -5.16989e-07 1.63448e-06 5.1274e-06 -2.74491e-06 -1.17095e-05)
(6.22784e-06 -4.74956e-07 9.74993e-07 5.42329e-06 -2.62852e-06 -1.16511e-05)
(6.0697e-06 -1.76215e-07 3.23426e-07 5.5561e-06 -2.56166e-06 -1.16258e-05)
(6.06934e-06 1.68415e-07 -3.2634e-07 5.55675e-06 -2.56162e-06 -1.16261e-05)
(6.22671e-06 4.67535e-07 -9.77573e-07 5.42505e-06 -2.62837e-06 -1.16518e-05)
(6.57976e-06 5.10232e-07 -1.6362e-06 5.13003e-06 -2.74466e-06 -1.17098e-05)
(8.36499e-06 1.88878e-06 -2.30379e-06 3.60581e-06 -3.02693e-06 -1.19708e-05)
(5.92261e-06 -3.65127e-06 -3.2687e-06 5.92363e-06 -3.26893e-06 -1.18462e-05)
(5.31676e-06 -8.57575e-07 4.56232e-06 5.2799e-06 4.57407e-06 -1.05967e-05)
(6.31022e-06 1.13459e-06 3.07845e-06 3.70808e-06 4.08782e-06 -1.00183e-05)
(4.9812e-06 -5.42098e-08 2.1885e-06 4.92595e-06 3.89586e-06 -9.90715e-06)
(4.90324e-06 2.52224e-07 1.30981e-06 4.94501e-06 3.81986e-06 -9.84825e-06)
(4.82099e-06 6.82419e-08 4.29535e-07 5.01339e-06 3.75917e-06 -9.83438e-06)
(4.82194e-06 -6.79116e-08 -4.63997e-07 5.0109e-06 3.75949e-06 -9.83284e-06)
(4.91354e-06 -2.53737e-07 -1.35443e-06 4.93556e-06 3.82034e-06 -9.8491e-06)
(5.08911e-06 2.24694e-08 -2.25951e-06 4.8715e-06 3.8991e-06 -9.96061e-06)
(6.28425e-06 -1.12997e-06 -3.18872e-06 3.6992e-06 4.09402e-06 -9.98345e-06)
(5.14455e-06 9.67424e-07 -4.54312e-06 5.14601e-06 4.54092e-06 -1.02906e-05)
(3.72552e-06 1.1385e-06 4.07837e-06 6.31095e-06 3.08859e-06 -1.00365e-05)
(4.85106e-06 3.21358e-07 2.99422e-06 4.86061e-06 3.00534e-06 -9.71167e-06)
(4.78011e-06 3.62943e-08 2.13891e-06 5.04158e-06 2.95283e-06 -9.82169e-06)
(4.95544e-06 9.83339e-09 1.28504e-06 4.90102e-06 2.92899e-06 -9.85647e-06)
(4.94858e-06 -7.02666e-09 4.18066e-07 4.88738e-06 2.91088e-06 -9.83597e-06)
(4.94922e-06 -2.34895e-09 -4.49939e-07 4.88527e-06 2.91276e-06 -9.83448e-06)
(4.95647e-06 -2.12567e-08 -1.32415e-06 4.8949e-06 2.93635e-06 -9.85137e-06)
(4.79519e-06 -6.82784e-08 -2.19461e-06 5.03455e-06 2.976e-06 -9.82974e-06)
(4.85443e-06 -5.06042e-07 -3.05716e-06 4.8712e-06 3.05439e-06 -9.72563e-06)
(3.69127e-06 -1.13244e-06 -4.09393e-06 6.29296e-06 3.18444e-06 -9.98423e-06)
(4.93515e-06 -5.79008e-08 3.89136e-06 4.97923e-06 2.19112e-06 -9.91437e-06)
(5.04485e-06 3.20969e-08 2.94702e-06 4.79022e-06 2.14801e-06 -9.83507e-06)
(4.88838e-06 1.19593e-07 2.10012e-06 4.8922e-06 2.10803e-06 -9.78058e-06)
(4.95295e-06 6.39002e-08 1.26395e-06 4.85249e-06 2.07717e-06 -9.80544e-06)
(4.92993e-06 1.52855e-08 4.12974e-07 4.86501e-06 2.06358e-06 -9.79494e-06)
(4.92942e-06 -3.40321e-08 -4.3926e-07 4.8642e-06 2.06618e-06 -9.79362e-06)
(4.95148e-06 -8.31183e-08 -1.29349e-06 4.85107e-06 2.08681e-06 -9.80254e-06)
(4.88065e-06 -1.39376e-07 -2.13347e-06 4.89161e-06 2.12893e-06 -9.77225e-06)
(5.01467e-06 -6.66697e-08 -2.97483e-06 4.80248e-06 2.18708e-06 -9.81715e-06)
(4.86512e-06 2.33913e-08 -3.89983e-06 5.09691e-06 2.25422e-06 -9.96203e-06)
(4.94874e-06 2.52766e-07 3.81733e-06 4.89914e-06 1.30889e-06 -9.84788e-06)
(4.90015e-06 8.05049e-09 2.92296e-06 4.95647e-06 1.28779e-06 -9.85662e-06)
(4.852e-06 6.39957e-08 2.07072e-06 4.95484e-06 1.26896e-06 -9.80684e-06)
(4.90292e-06 2.33682e-08 1.24124e-06 4.90373e-06 1.24667e-06 -9.80665e-06)
(4.89708e-06 -6.10034e-10 4.07064e-07 4.89194e-06 1.23615e-06 -9.78901e-06)
(4.89665e-06 -1.97483e-08 -4.27282e-07 4.89307e-06 1.2389e-06 -9.78971e-06)
(4.89816e-06 -4.3342e-08 -1.26232e-06 4.90658e-06 1.25547e-06 -9.80475e-06)
(4.83988e-06 -8.17963e-08 -2.09102e-06 4.96082e-06 1.28602e-06 -9.80071e-06)
(4.88184e-06 -2.0309e-08 -2.93869e-06 4.968e-06 1.31599e-06 -9.84984e-06)
(4.92694e-06 -2.54736e-07 -3.8213e-06 4.92235e-06 1.34587e-06 -9.84929e-06)
(5.01418e-06 6.86972e-08 3.75876e-06 4.81925e-06 4.2782e-07 -9.83342e-06)
(4.8873e-06 -7.08066e-09 2.90674e-06 4.94844e-06 4.18456e-07 -9.83574e-06)
(4.86387e-06 1.58735e-08 2.05814e-06 4.9305e-06 4.15363e-07 -9.79437e-06)
(4.89158e-06 -2.60861e-10 1.23139e-06 4.8982e-06 4.10592e-07 -9.78979e-06)
(4.89226e-06 -7.26204e-09 4.05508e-07 4.89254e-06 4.09268e-07 -9.7848e-06)
(4.89059e-06 -1.10039e-08 -4.20382e-07 4.89403e-06 4.11505e-07 -9.78461e-06)
(4.88626e-06 -1.75356e-08 -1.24591e-06 4.90208e-06 4.17702e-07 -9.78834e-06)
(4.85455e-06 -3.0801e-08 -2.07154e-06 4.93862e-06 4.28325e-07 -9.79317e-06)
(4.8724e-06 -1.38535e-09 -2.91608e-06 4.96063e-06 4.37524e-07 -9.83303e-06)
(4.99918e-06 -6.97579e-08 -3.76008e-06 4.83221e-06 4.50768e-07 -9.83139e-06)
(5.00995e-06 -6.69663e-08 3.75931e-06 4.8218e-06 -4.65914e-07 -9.83175e-06)
(4.88468e-06 -1.95959e-09 2.91031e-06 4.94907e-06 -4.50548e-07 -9.83374e-06)
(4.86335e-06 -3.33579e-08 2.06224e-06 4.92976e-06 -4.38285e-07 -9.79311e-06)
(4.8919e-06 -1.91751e-08 1.23463e-06 4.89616e-06 -4.25181e-07 -9.78806e-06)
(4.89359e-06 -1.0842e-08 4.08008e-07 4.89072e-06 -4.17835e-07 -9.78431e-06)
(4.89246e-06 -4.6451e-09 -4.18801e-07 4.892e-06 -4.16128e-07 -9.78446e-06)
(4.88782e-06 4.7041e-09 -1.24499e-06 4.90037e-06 -4.19946e-07 -9.78819e-06)
(4.85584e-06 2.08651e-08 -2.07095e-06 4.93721e-06 -4.29148e-07 -9.79304e-06)
(4.87388e-06 -5.71324e-09 -2.91574e-06 4.95926e-06 -4.37521e-07 -9.83315e-06)
(4.99915e-06 6.48772e-08 -3.75976e-06 4.83175e-06 -4.50216e-07 -9.8309e-06)
(4.93445e-06 -2.5294e-07 3.82101e-06 4.91334e-06 -1.35623e-06 -9.84779e-06)
(4.89443e-06 -2.03598e-08 2.93458e-06 4.95588e-06 -1.32485e-06 -9.8503e-06)
(4.84933e-06 -8.23797e-08 2.08354e-06 4.9507e-06 -1.29315e-06 -9.80002e-06)
(4.9059e-06 -4.32198e-08 1.25215e-06 4.89809e-06 -1.26138e-06 -9.80399e-06)
(4.90269e-06 -1.72669e-08 4.14613e-07 4.8861e-06 -1.24464e-06 -9.78879e-06)
(4.9016e-06 4.67438e-09 -4.22544e-07 4.88732e-06 -1.24345e-06 -9.78891e-06)
(4.90302e-06 3.11652e-08 -1.25945e-06 4.90138e-06 -1.25771e-06 -9.8044e-06)
(4.84447e-06 7.2419e-08 -2.0894e-06 4.95626e-06 -1.28688e-06 -9.80073e-06)
(4.8859e-06 1.36871e-08 -2.93769e-06 4.96419e-06 -1.31602e-06 -9.85009e-06)
(4.92659e-06 2.49661e-07 -3.82027e-06 4.92112e-06 -1.34527e-06 -9.84771e-06)
(4.86923e-06 2.54453e-08 3.89937e-06 5.08909e-06 -2.26088e-06 -9.95832e-06)
(5.0278e-06 -6.75427e-08 2.97155e-06 4.78981e-06 -2.19303e-06 -9.8176e-06)
(4.89076e-06 -1.39631e-07 2.12673e-06 4.88058e-06 -2.13402e-06 -9.77134e-06)
(4.96116e-06 -8.20323e-08 1.28345e-06 4.84034e-06 -2.09157e-06 -9.8015e-06)
(4.9391e-06 -3.1194e-08 4.25606e-07 4.85321e-06 -2.07133e-06 -9.7923e-06)
(4.93849e-06 2.07885e-08 -4.31522e-07 4.85392e-06 -2.0705e-06 -9.79241e-06)
(4.95934e-06 7.24068e-08 -1.28883e-06 4.84263e-06 -2.08904e-06 -9.80197e-06)
(4.88764e-06 1.31173e-07 -2.13065e-06 4.8844e-06 -2.12985e-06 -9.77204e-06)
(5.02169e-06 6.09031e-08 -2.97304e-06 4.79577e-06 -2.1871e-06 -9.81746e-06)
(4.86498e-06 -2.84738e-08 -3.89809e-06 5.09408e-06 -2.25345e-06 -9.95906e-06)
(3.69462e-06 -1.12557e-06 4.0931e-06 6.28194e-06 -3.18829e-06 -9.97656e-06)
(4.87016e-06 -5.06041e-07 3.05371e-06 4.85447e-06 -3.05821e-06 -9.72463e-06)
(4.80742e-06 -6.81007e-08 2.18773e-06 5.02059e-06 -2.97965e-06 -9.82801e-06)
(4.96851e-06 -2.16684e-08 1.31364e-06 4.8811e-06 -2.94005e-06 -9.84961e-06)
(4.96151e-06 -2.50734e-09 4.35094e-07 4.87044e-06 -2.91696e-06 -9.83195e-06)
(4.96112e-06 -6.3795e-09 -4.39613e-07 4.87102e-06 -2.91638e-06 -9.83214e-06)
(4.96743e-06 1.33333e-08 -1.31771e-06 4.88276e-06 -2.93833e-06 -9.85019e-06)
(4.80555e-06 6.09754e-08 -2.19064e-06 5.02339e-06 -2.97684e-06 -9.82893e-06)
(4.86505e-06 4.99988e-07 -3.05446e-06 4.85963e-06 -3.05453e-06 -9.72468e-06)
(3.69376e-06 1.12429e-06 -4.09128e-06 6.28579e-06 -3.18375e-06 -9.97955e-06)
(5.14399e-06 9.73629e-07 4.54156e-06 5.14134e-06 -4.54362e-06 -1.02853e-05)
(6.29573e-06 -1.13105e-06 3.18463e-06 3.68835e-06 -4.09684e-06 -9.98409e-06)
(5.09865e-06 2.31737e-08 2.25212e-06 4.86015e-06 -3.90162e-06 -9.95879e-06)
(4.92419e-06 -2.55295e-07 1.3434e-06 4.92224e-06 -3.82277e-06 -9.84644e-06)
(4.83417e-06 -7.06766e-08 4.48541e-07 4.99555e-06 -3.76154e-06 -9.82972e-06)
(4.8339e-06 6.40285e-08 -4.52042e-07 4.99619e-06 -3.76111e-06 -9.83008e-06)
(4.92364e-06 2.49215e-07 -1.34664e-06 4.92399e-06 -3.82148e-06 -9.84764e-06)
(5.09787e-06 -2.85042e-08 -2.25453e-06 4.8624e-06 -3.89956e-06 -9.96027e-06)
(6.29339e-06 1.12589e-06 -3.18538e-06 3.69037e-06 -4.0943e-06 -9.98376e-06)
(5.14726e-06 -9.73176e-07 -4.53985e-06 5.14092e-06 -4.54075e-06 -1.02882e-05)
(3.52217e-06 2.20265e-07 4.24528e-06 3.47777e-06 4.25346e-06 -6.99993e-06)
(3.73779e-06 2.06398e-07 2.88041e-06 2.80641e-06 3.77744e-06 -6.54419e-06)
(3.18666e-06 -3.36199e-07 2.02291e-06 3.51097e-06 3.7e-06 -6.69764e-06)
(3.17922e-06 7.80253e-08 1.20395e-06 3.4774e-06 3.64885e-06 -6.65661e-06)
(3.1113e-06 -2.90437e-08 3.96562e-07 3.56086e-06 3.6021e-06 -6.67216e-06)
(3.10191e-06 3.5304e-08 -4.24099e-07 3.5656e-06 3.60224e-06 -6.66752e-06)
(3.15652e-06 -6.92552e-08 -1.23787e-06 3.49184e-06 3.64901e-06 -6.64836e-06)
(3.22999e-06 3.18807e-07 -2.07585e-06 3.51237e-06 3.7027e-06 -6.74236e-06)
(3.70692e-06 -2.35699e-07 -2.95754e-06 2.86825e-06 3.78258e-06 -6.57517e-06)
(3.44677e-06 -2.12376e-07 -4.23218e-06 3.44881e-06 4.2318e-06 -6.89558e-06)
(2.8218e-06 2.13105e-07 3.77145e-06 3.73453e-06 2.88973e-06 -6.55632e-06)
(3.17639e-06 -3.08847e-09 2.79979e-06 3.1813e-06 2.80893e-06 -6.35769e-06)
(3.23163e-06 -9.87411e-08 2.01615e-06 3.43415e-06 2.79005e-06 -6.66578e-06)
(3.34444e-06 -3.18282e-08 1.2042e-06 3.38217e-06 2.78735e-06 -6.7266e-06)
(3.31538e-06 -2.90056e-08 3.92321e-07 3.43586e-06 2.77746e-06 -6.75125e-06)
(3.31045e-06 2.93103e-08 -4.18914e-07 3.43681e-06 2.7788e-06 -6.74727e-06)
(3.32933e-06 4.04087e-08 -1.23512e-06 3.38518e-06 2.79221e-06 -6.71451e-06)
(3.22638e-06 1.12445e-07 -2.05893e-06 3.43644e-06 2.8073e-06 -6.66282e-06)
(3.18074e-06 -9.6577e-08 -2.84488e-06 3.19185e-06 2.84401e-06 -6.37259e-06)
(2.86248e-06 -2.36235e-07 -3.78001e-06 3.71222e-06 2.95481e-06 -6.5747e-06)
(3.51796e-06 -3.36933e-07 3.69602e-06 3.17999e-06 2.02616e-06 -6.69795e-06)
(3.44009e-06 -9.96567e-08 2.78627e-06 3.2341e-06 2.02493e-06 -6.67419e-06)
(3.37675e-06 -3.32307e-09 1.98881e-06 3.37344e-06 1.99553e-06 -6.75019e-06)
(3.40872e-06 4.70515e-09 1.18891e-06 3.37823e-06 1.97515e-06 -6.78695e-06)
(3.36521e-06 1.73278e-09 3.87469e-07 3.42547e-06 1.96509e-06 -6.79069e-06)
(3.36219e-06 -5.448e-09 -4.10088e-07 3.42631e-06 1.96727e-06 -6.7885e-06)
(3.40219e-06 -2.35704e-09 -1.21338e-06 3.38017e-06 1.98282e-06 -6.78235e-06)
(3.36808e-06 1.9977e-08 -2.01402e-06 3.37075e-06 2.01103e-06 -6.73884e-06)
(3.42425e-06 1.13586e-07 -2.80354e-06 3.22621e-06 2.0524e-06 -6.65045e-06)
(3.50877e-06 3.20647e-07 -3.70114e-06 3.22997e-06 2.07184e-06 -6.73873e-06)
(3.47933e-06 8.05577e-08 3.64545e-06 3.17242e-06 1.20423e-06 -6.65176e-06)
(3.38413e-06 -2.93092e-08 2.78181e-06 3.34015e-06 1.20699e-06 -6.72428e-06)
(3.38273e-06 7.14414e-09 1.96962e-06 3.40429e-06 1.19329e-06 -6.78702e-06)
(3.41918e-06 -1.44494e-08 1.17515e-06 3.41464e-06 1.17968e-06 -6.83383e-06)
(3.39886e-06 -5.57133e-09 3.84188e-07 3.43786e-06 1.17389e-06 -6.83672e-06)
(3.39778e-06 2.4922e-09 -4.01692e-07 3.43891e-06 1.17638e-06 -6.8367e-06)
(3.41528e-06 1.45862e-08 -1.19287e-06 3.41558e-06 1.18726e-06 -6.83086e-06)
(3.37693e-06 -2.48719e-09 -1.98539e-06 3.40211e-06 1.20712e-06 -6.77904e-06)
(3.37922e-06 3.94168e-08 -2.79249e-06 3.33045e-06 1.22821e-06 -6.70967e-06)
(3.48653e-06 -7.06275e-08 -3.64788e-06 3.15573e-06 1.2307e-06 -6.64226e-06)
(3.55996e-06 -2.70382e-08 3.59972e-06 3.10857e-06 3.96151e-07 -6.66853e-06)
(3.43704e-06 -2.55651e-08 2.77284e-06 3.31229e-06 3.93187e-07 -6.74933e-06)
(3.42775e-06 5.06015e-09 1.96e-06 3.3616e-06 3.89611e-07 -6.78935e-06)
(3.44151e-06 -4.01981e-09 1.16983e-06 3.39562e-06 3.87047e-07 -6.83713e-06)
(3.42767e-06 -2.21474e-09 3.84492e-07 3.42444e-06 3.87461e-07 -6.85211e-06)
(3.42657e-06 -9.51922e-10 -3.97245e-07 3.42468e-06 3.89493e-07 -6.85124e-06)
(3.43878e-06 1.93227e-09 -1.18209e-06 3.3949e-06 3.93364e-07 -6.83368e-06)
(3.42451e-06 -5.65669e-09 -1.97093e-06 3.35992e-06 4.00685e-07 -6.78443e-06)
(3.43229e-06 2.74442e-08 -2.78004e-06 3.30866e-06 4.08407e-07 -6.74095e-06)
(3.5601e-06 3.21737e-08 -3.60075e-06 3.09957e-06 4.13222e-07 -6.65967e-06)
(3.56423e-06 3.81854e-08 3.59992e-06 3.10073e-06 -4.24931e-07 -6.66496e-06)
(3.4373e-06 3.27099e-08 2.77515e-06 3.30849e-06 -4.18927e-07 -6.74579e-06)
(3.42738e-06 -2.32134e-09 1.96302e-06 3.35999e-06 -4.09154e-07 -6.78737e-06)
(3.44054e-06 4.41089e-09 1.17244e-06 3.3944e-06 -4.00084e-07 -6.83494e-06)
(3.4271e-06 -3.19015e-10 3.86668e-07 3.42376e-06 -3.95429e-07 -6.85086e-06)
(3.42661e-06 -4.03353e-09 -3.95736e-07 3.42362e-06 -3.93864e-07 -6.85023e-06)
(3.43908e-06 -7.81632e-09 -1.1811e-06 3.39381e-06 -3.9533e-07 -6.83289e-06)
(3.42493e-06 9.35788e-12 -1.97029e-06 3.3589e-06 -4.01084e-07 -6.78383e-06)
(3.43318e-06 -3.21597e-08 -2.77966e-06 3.30757e-06 -4.07886e-07 -6.74075e-06)
(3.55992e-06 -3.51954e-08 -3.60041e-06 3.09928e-06 -4.12132e-07 -6.6592e-06)
(3.49103e-06 -6.60841e-08 3.64729e-06 3.15512e-06 -1.23892e-06 -6.64615e-06)
(3.38483e-06 4.38291e-08 2.78874e-06 3.32763e-06 -1.23534e-06 -6.71245e-06)
(3.37984e-06 1.46087e-10 1.97874e-06 3.39961e-06 -1.21296e-06 -6.77945e-06)
(3.41705e-06 1.57982e-08 1.18394e-06 3.41266e-06 -1.19226e-06 -6.82971e-06)
(3.3978e-06 2.7058e-09 3.90782e-07 3.43597e-06 -1.18141e-06 -6.83377e-06)
(3.39737e-06 -7.63785e-09 -3.97206e-07 3.43601e-06 -1.18032e-06 -6.83338e-06)
(3.41623e-06 -2.01842e-08 -1.1899e-06 3.41227e-06 -1.18894e-06 -6.82851e-06)
(3.37877e-06 -2.75501e-09 -1.98357e-06 3.39883e-06 -1.20737e-06 -6.7776e-06)
(3.3817e-06 -4.34669e-08 -2.79139e-06 3.32746e-06 -1.22763e-06 -6.70916e-06)
(3.48544e-06 6.76736e-08 -3.64682e-06 3.15538e-06 -1.22954e-06 -6.64083e-06)
(3.51193e-06 3.2315e-07 3.70042e-06 3.22873e-06 -2.07677e-06 -6.74066e-06)
(3.4304e-06 1.15005e-07 2.80044e-06 3.22132e-06 -2.05663e-06 -6.65172e-06)
(3.37066e-06 2.07549e-08 2.00789e-06 3.36643e-06 -2.01451e-06 -6.73709e-06)
(3.40415e-06 -2.08869e-09 1.2044e-06 3.37495e-06 -1.98608e-06 -6.77909e-06)
(3.36258e-06 -5.47707e-09 3.98249e-07 3.42069e-06 -1.97098e-06 -6.78326e-06)
(3.36237e-06 3.83729e-10 -4.02882e-07 3.42068e-06 -1.97029e-06 -6.78305e-06)
(3.40393e-06 -2.4693e-09 -1.20863e-06 3.37476e-06 -1.98394e-06 -6.77868e-06)
(3.37078e-06 -2.40459e-08 -2.01105e-06 3.36568e-06 -2.01097e-06 -6.73646e-06)
(3.4287e-06 -1.16108e-07 -2.80172e-06 3.22078e-06 -2.0516e-06 -6.64948e-06)
(3.50673e-06 -3.22642e-07 -3.69944e-06 3.22861e-06 -2.07034e-06 -6.73534e-06)
(2.86557e-06 -2.30952e-07 3.77901e-06 3.70543e-06 -2.95684e-06 -6.57099e-06)
(3.18959e-06 -9.64294e-08 2.8417e-06 3.18098e-06 -2.84575e-06 -6.37057e-06)
(3.23073e-06 1.121e-07 2.05265e-06 3.42784e-06 -2.80874e-06 -6.65857e-06)