/*--------------------------------*- C++ -*----------------------------------*\
| =========                 |                                                 |
| \\      /  F ield         | OpenFOAM: The Open Source CFD Toolbox           |
|  \\    /   O peration     | Version:  2406                                  |
|   \\  /    A nd           | Website:  www.openfoam.com                      |
|    \\/     M anipulation  |                                                 |
\*---------------------------------------------------------------------------*/
FoamFile
{
    version     2.0;
    format      ascii;
    arch        "LSB;label=32;scalar=64";
    class       volScalarField;
    location    "150";
    object      turbulenceProperties:epsilon;
}
// * * * * * * * * * * * * * * * * * * * * * * * * * * * * * * * * * * * * * //

dimensions      [0 2 -3 0 0 0 0];

internalField   nonuniform List<scalar> 
25000
(
1.13938e-06
1.00845e-06
8.09077e-07
7.8712e-07
7.74711e-07
7.75534e-07
7.9051e-07
8.193e-07
9.77663e-07
1.07277e-06
1.00934e-06
9.12283e-07
7.64412e-07
6.93087e-07
6.60239e-07
6.61233e-07
6.96341e-07
7.71306e-07
9.21604e-07
9.7844e-07
8.09828e-07
7.65539e-07
6.60316e-07
6.0062e-07
5.72952e-07
5.73578e-07
6.02682e-07
6.63843e-07
7.70841e-07
8.20325e-07
7.87545e-07
6.93356e-07
6.00759e-07
5.4436e-07
5.17662e-07
5.18114e-07
5.45625e-07
6.02908e-07
6.96905e-07
7.91788e-07
7.74869e-07
6.60334e-07
5.72957e-07
5.17676e-07
4.91429e-07
4.91688e-07
5.18427e-07
5.74307e-07
6.62371e-07
7.7721e-07
7.75517e-07
6.61153e-07
5.73488e-07
5.17986e-07
4.91635e-07
4.91802e-07
5.1848e-07
5.74321e-07
6.6236e-07
7.77156e-07
7.9037e-07
6.96121e-07
6.02423e-07
5.45463e-07
5.18351e-07
5.18459e-07
5.45788e-07
6.0296e-07
6.96883e-07
7.91622e-07
8.19062e-07
7.70298e-07
6.63548e-07
6.02744e-07
5.7413e-07
5.74208e-07
6.02978e-07
6.63933e-07
7.70809e-07
8.20062e-07
9.77104e-07
9.2112e-07
7.71123e-07
6.96607e-07
6.62134e-07
6.62203e-07
6.96799e-07
7.71456e-07
9.21556e-07
9.78064e-07
1.07262e-06
9.78538e-07
8.20021e-07
7.91496e-07
7.76993e-07
7.77025e-07
7.91581e-07
8.20105e-07
9.7842e-07
1.073e-06
2.18552e-06
1.95247e-06
1.64656e-06
1.61239e-06
1.58797e-06
1.58868e-06
1.61593e-06
1.66852e-06
1.91474e-06
2.03374e-06
1.95809e-06
1.7039e-06
1.57472e-06
1.52126e-06
1.48677e-06
1.48778e-06
1.52436e-06
1.58523e-06
1.72111e-06
1.9159e-06
1.65001e-06
1.57963e-06
1.46727e-06
1.42252e-06
1.39902e-06
1.39961e-06
1.42484e-06
1.4708e-06
1.58168e-06
1.67011e-06
1.61337e-06
1.52208e-06
1.42323e-06
1.37146e-06
1.34554e-06
1.34627e-06
1.37272e-06
1.42477e-06
1.52482e-06
1.61751e-06
1.58839e-06
1.48732e-06
1.39917e-06
1.34583e-06
1.32109e-06
1.32137e-06
1.34646e-06
1.40054e-06
1.48898e-06
1.59024e-06
1.58877e-06
1.48793e-06
1.39973e-06
1.34598e-06
1.32134e-06
1.32157e-06
1.34654e-06
1.40057e-06
1.48903e-06
1.59006e-06
1.61588e-06
1.52439e-06
1.42441e-06
1.37269e-06
1.34667e-06
1.34679e-06
1.37303e-06
1.42495e-06
1.5249e-06
1.61697e-06
1.66806e-06
1.58172e-06
1.47081e-06
1.42517e-06
1.40048e-06
1.40055e-06
1.42536e-06
1.47104e-06
1.58185e-06
1.6692e-06
1.91256e-06
1.72111e-06
1.58526e-06
1.52483e-06
1.48884e-06
1.48892e-06
1.52504e-06
1.58549e-06
1.72105e-06
1.91408e-06
2.03383e-06
1.91721e-06
1.66972e-06
1.61702e-06
1.58995e-06
1.59001e-06
1.61712e-06
1.6697e-06
1.91616e-06
2.03415e-06
1.80032e-06
1.50248e-06
1.35844e-06
1.29986e-06
1.26961e-06
1.26979e-06
1.30181e-06
1.37437e-06
1.50621e-06
1.72504e-06
1.50656e-06
1.29941e-06
1.25783e-06
1.22314e-06
1.19756e-06
1.19784e-06
1.22441e-06
1.26652e-06
1.31404e-06
1.50563e-06
1.35969e-06
1.26206e-06
1.19177e-06
1.15508e-06
1.13234e-06
1.13261e-06
1.15647e-06
1.19363e-06
1.26186e-06
1.37426e-06
1.29947e-06
1.22288e-06
1.15535e-06
1.11639e-06
1.09319e-06
1.09379e-06
1.11715e-06
1.1559e-06
1.22388e-06
1.30161e-06
1.26935e-06
1.19717e-06
1.13195e-06
1.09332e-06
1.07379e-06
1.07397e-06
1.09355e-06
1.1327e-06
1.1977e-06
1.26937e-06
1.26957e-06
1.19749e-06
1.13224e-06
1.09318e-06
1.07384e-06
1.07398e-06
1.09351e-06
1.13264e-06
1.19769e-06
1.26922e-06
1.30168e-06
1.22394e-06
1.15556e-06
1.11684e-06
1.09368e-06
1.09376e-06
1.11705e-06
1.15581e-06
1.22383e-06
1.30113e-06
1.37388e-06
1.26209e-06
1.19336e-06
1.1562e-06
1.13251e-06
1.13255e-06
1.15632e-06
1.19344e-06
1.26177e-06
1.37342e-06
1.50383e-06
1.31389e-06
1.26602e-06
1.224e-06
1.19754e-06
1.19759e-06
1.22411e-06
1.26613e-06
1.31355e-06
1.50386e-06
1.72419e-06
1.50675e-06
1.37384e-06
1.30114e-06
1.26918e-06
1.26924e-06
1.30131e-06
1.37406e-06
1.50621e-06
1.72422e-06
1.01604e-06
7.76487e-07
7.37069e-07
6.90341e-07
6.71088e-07
6.70822e-07
6.90447e-07
7.46935e-07
7.87816e-07
9.95017e-07
7.7868e-07
6.64507e-07
6.55535e-07
6.28709e-07
6.13965e-07
6.13825e-07
6.28586e-07
6.60037e-07
6.72838e-07
7.86845e-07
7.37041e-07
6.57889e-07
6.15928e-07
5.84874e-07
5.67474e-07
5.67564e-07
5.85628e-07
6.16677e-07
6.56633e-07
7.45891e-07
6.89337e-07
6.28124e-07
5.84837e-07
5.56817e-07
5.39905e-07
5.4025e-07
5.57258e-07
5.84953e-07
6.27565e-07
6.89194e-07
6.70324e-07
6.1333e-07
5.6703e-07
5.39921e-07
5.25411e-07
5.25453e-07
5.39843e-07
5.67056e-07
6.12876e-07
6.69402e-07
6.70228e-07
6.13316e-07
5.67131e-07
5.39779e-07
5.25344e-07
5.25338e-07
5.39717e-07
5.66936e-07
6.12815e-07
6.69291e-07
6.89979e-07
6.27924e-07
5.84836e-07
5.56954e-07
5.39874e-07
5.39853e-07
5.5687e-07
5.84645e-07
6.27386e-07
6.88832e-07
7.4642e-07
6.56831e-07
6.16272e-07
5.85028e-07
5.66878e-07
5.66859e-07
5.84991e-07
6.16157e-07
6.56319e-07
7.45138e-07
7.86291e-07
6.72463e-07
6.59161e-07
6.27603e-07
6.12733e-07
6.12752e-07
6.2767e-07
6.59255e-07
6.72203e-07
7.85465e-07
9.93811e-07
7.86993e-07
7.4535e-07
6.88825e-07
6.69277e-07
6.69317e-07
6.88967e-07
7.45677e-07
7.86949e-07
9.9337e-07
5.85627e-07
4.31221e-07
4.13917e-07
3.79032e-07
3.65552e-07
3.6515e-07
3.77698e-07
4.17227e-07
4.37491e-07
5.80449e-07
4.3217e-07
3.63527e-07
3.51365e-07
3.2625e-07
3.16128e-07
3.16004e-07
3.25777e-07
3.52996e-07
3.66536e-07
4.36703e-07
4.13404e-07
3.52507e-07
3.19981e-07
2.92011e-07
2.78785e-07
2.7883e-07
2.92602e-07
3.20509e-07
3.50519e-07
4.15933e-07
3.77931e-07
3.25508e-07
2.91811e-07
2.68255e-07
2.55481e-07
2.55654e-07
2.68548e-07
2.91967e-07
3.24596e-07
3.7616e-07
3.64648e-07
3.15379e-07
2.7831e-07
2.55421e-07
2.43366e-07
2.43334e-07
2.5527e-07
2.78185e-07
3.14836e-07
3.63544e-07
3.64316e-07
3.15293e-07
2.78364e-07
2.55311e-07
2.43267e-07
2.43216e-07
2.55139e-07
2.78062e-07
3.1477e-07
3.63448e-07
3.76931e-07
3.24972e-07
2.91933e-07
2.6833e-07
2.55307e-07
2.55248e-07
2.68156e-07
2.91637e-07
3.24405e-07
3.7589e-07
4.16541e-07
3.50736e-07
3.20162e-07
2.92046e-07
2.78163e-07
2.78116e-07
2.91919e-07
3.19926e-07
3.5018e-07
4.15341e-07
4.36469e-07
3.66265e-07
3.52205e-07
3.24812e-07
3.14927e-07
3.14912e-07
3.24771e-07
3.52158e-07
3.65938e-07
4.35626e-07
5.79349e-07
4.3683e-07
4.15815e-07
3.76149e-07
3.63649e-07
3.63667e-07
3.76195e-07
4.16026e-07
4.36743e-07
5.78838e-07
3.95543e-07
2.98385e-07
2.84553e-07
2.58911e-07
2.48696e-07
2.48407e-07
2.57264e-07
2.84358e-07
3.00054e-07
3.91367e-07
2.99304e-07
2.56636e-07
2.40718e-07
2.1889e-07
2.11043e-07
2.11064e-07
2.18719e-07
2.41403e-07
2.57025e-07
2.99698e-07
2.83878e-07
2.414e-07
2.15407e-07
1.92108e-07
1.82166e-07
1.82207e-07
1.92677e-07
2.15992e-07
2.39267e-07
2.83151e-07
2.57857e-07
2.18195e-07
1.91894e-07
1.72339e-07
1.6262e-07
1.62702e-07
1.72524e-07
1.92158e-07
2.17659e-07
2.56001e-07
2.47756e-07
2.10308e-07
1.8171e-07
1.62532e-07
1.52811e-07
1.52775e-07
1.62426e-07
1.81712e-07
2.10174e-07
2.47196e-07
2.47462e-07
2.10285e-07
1.81701e-07
1.62392e-07
1.52712e-07
1.5269e-07
1.6234e-07
1.81637e-07
2.10157e-07
2.47153e-07
2.56361e-07
2.17787e-07
1.92007e-07
1.723e-07
1.62437e-07
1.62427e-07
1.72274e-07
1.9196e-07
2.17611e-07
2.55913e-07
2.83527e-07
2.39365e-07
2.15621e-07
1.92185e-07
1.81699e-07
1.81709e-07
1.92198e-07
2.15629e-07
2.39187e-07
2.82917e-07
2.99387e-07
2.5674e-07
2.406e-07
2.17856e-07
2.10244e-07
2.10271e-07
2.17951e-07
2.40778e-07
2.56715e-07
2.98953e-07
3.90549e-07
2.99803e-07
2.83303e-07
2.561e-07
2.47311e-07
2.47351e-07
2.56179e-07
2.83567e-07
2.99836e-07
3.90002e-07
3.19243e-07
2.58873e-07
2.45409e-07
2.23682e-07
2.14843e-07
2.14693e-07
2.22157e-07
2.43794e-07
2.57961e-07
3.14376e-07
2.59266e-07
2.31357e-07
2.13058e-07
1.93651e-07
1.86753e-07
1.86837e-07
1.93743e-07
2.13652e-07
2.30437e-07
2.57178e-07
2.4423e-07
2.1351e-07
1.91945e-07
1.72245e-07
1.6432e-07
1.64307e-07
1.72728e-07
1.92579e-07
2.11442e-07
2.42217e-07
2.22586e-07
1.93006e-07
1.72091e-07
1.55648e-07
1.47949e-07
1.47973e-07
1.55691e-07
1.72318e-07
1.92804e-07
2.2103e-07
2.1399e-07
1.8611e-07
1.63944e-07
1.47903e-07
1.40196e-07
1.40147e-07
1.47782e-07
1.63998e-07
1.86223e-07
2.13832e-07
2.13845e-07
1.86182e-07
1.63905e-07
1.47748e-07
1.40126e-07
1.40115e-07
1.47751e-07
1.63982e-07
1.86282e-07
2.13879e-07
2.21316e-07
1.9294e-07
1.72215e-07
1.55595e-07
1.47877e-07
1.47872e-07
1.55615e-07
1.72291e-07
1.92972e-07
2.21233e-07
2.42786e-07
2.11776e-07
1.92424e-07
1.72524e-07
1.64102e-07
1.64111e-07
1.72539e-07
1.92497e-07
2.11762e-07
2.42569e-07
2.57238e-07
2.30447e-07
2.13095e-07
1.93256e-07
1.8644e-07
1.86457e-07
1.9331e-07
2.13287e-07
2.30522e-07
2.57048e-07
3.13652e-07
2.57823e-07
2.42919e-07
2.21405e-07
2.14072e-07
2.14111e-07
2.21488e-07
2.43263e-07
2.58077e-07
3.13541e-07
2.94891e-07
2.57119e-07
2.4296e-07
2.23454e-07
2.15421e-07
2.15585e-07
2.22799e-07
2.41857e-07
2.56097e-07
2.90403e-07
2.57353e-07
2.3712e-07
2.17794e-07
2.00189e-07
1.93572e-07
1.93721e-07
2.00734e-07
2.19143e-07
2.36256e-07
2.54373e-07
2.41929e-07
2.18682e-07
1.99598e-07
1.81667e-07
1.74553e-07
1.74527e-07
1.8209e-07
2.00243e-07
2.16844e-07
2.39847e-07
2.23227e-07
2.0031e-07
1.81854e-07
1.66605e-07
1.59671e-07
1.59647e-07
1.66508e-07
1.81897e-07
2.0016e-07
2.22092e-07
2.15609e-07
1.93694e-07
1.74638e-07
1.59802e-07
1.53073e-07
1.53019e-07
1.59594e-07
1.7453e-07
1.93711e-07
2.15539e-07
2.15814e-07
1.93902e-07
1.74571e-07
1.59658e-07
1.53064e-07
1.53029e-07
1.59619e-07
1.74561e-07
1.9379e-07
2.1568e-07
2.22902e-07
2.00622e-07
1.82035e-07
1.66634e-07
1.59781e-07
1.59758e-07
1.66581e-07
1.8195e-07
2.00406e-07
2.22606e-07
2.41379e-07
2.1766e-07
2.005e-07
1.82298e-07
1.74685e-07
1.74655e-07
1.82181e-07
2.00358e-07
2.17349e-07
2.40881e-07
2.5577e-07
2.36822e-07
2.1902e-07
2.00784e-07
1.93907e-07
1.93858e-07
2.00659e-07
2.189e-07
2.36495e-07
2.55079e-07
2.90464e-07
2.55858e-07
2.41221e-07
2.22685e-07
2.15784e-07
2.15759e-07
2.22595e-07
2.41319e-07
2.56076e-07
2.90338e-07
2.85365e-07
2.60931e-07
2.4666e-07
2.29472e-07
2.22035e-07
2.22252e-07
2.29097e-07
2.45765e-07
2.59557e-07
2.8104e-07
2.59591e-07
2.44719e-07
2.26642e-07
2.10992e-07
2.04481e-07
2.04583e-07
2.11554e-07
2.283e-07
2.43855e-07
2.56556e-07
2.45344e-07
2.27931e-07
2.10806e-07
1.94152e-07
1.87358e-07
1.873e-07
1.94434e-07
2.11312e-07
2.2615e-07
2.43443e-07
2.29629e-07
2.11615e-07
1.94601e-07
1.79993e-07
1.7332e-07
1.73311e-07
1.79866e-07
1.9454e-07
2.11504e-07
2.28808e-07
2.22887e-07
2.05099e-07
1.8776e-07
1.73591e-07
1.67435e-07
1.67417e-07
1.73456e-07
1.87741e-07
2.05163e-07
2.22742e-07
2.23319e-07
2.05335e-07
1.877e-07
1.73516e-07
1.67535e-07
1.6753e-07
1.73581e-07
1.87848e-07
2.05285e-07
2.22953e-07
2.30054e-07
2.12033e-07
1.94751e-07
1.80225e-07
1.73761e-07
1.73766e-07
1.80241e-07
1.94808e-07
2.11895e-07
2.29568e-07
2.45718e-07
2.27226e-07
2.11926e-07
1.95161e-07
1.88009e-07
1.87978e-07
1.95057e-07
2.1184e-07
2.26968e-07
2.45075e-07
2.59139e-07
2.44946e-07
2.28774e-07
2.12343e-07
2.05463e-07
2.0539e-07
2.12135e-07
2.28551e-07
2.44503e-07
2.58121e-07
2.82119e-07
2.59564e-07
2.45552e-07
2.2965e-07
2.23018e-07
2.22915e-07
2.29301e-07
2.452e-07
2.59169e-07
2.81142e-07
2.70711e-07
2.56302e-07
2.44083e-07
2.29753e-07
2.23429e-07
2.2402e-07
2.30526e-07
2.4488e-07
2.56999e-07
2.69489e-07
2.54369e-07
2.45819e-07
2.30058e-07
2.16308e-07
2.10233e-07
2.10437e-07
2.17324e-07
2.3257e-07
2.45837e-07
2.53134e-07
2.43369e-07
2.32149e-07
2.16837e-07
2.01297e-07
1.9485e-07
1.94987e-07
2.01897e-07
2.17678e-07
2.31063e-07
2.42955e-07
2.30762e-07
2.1769e-07
2.01995e-07
1.88149e-07
1.81787e-07
1.81939e-07
1.8843e-07
2.02407e-07
2.18188e-07
2.3118e-07
2.24814e-07
2.11197e-07
1.9548e-07
1.82105e-07
1.765e-07
1.76657e-07
1.82362e-07
1.95996e-07
2.12001e-07
2.25577e-07
2.25372e-07
2.1137e-07
1.95399e-07
1.82105e-07
1.76705e-07
1.76812e-07
1.82544e-07
1.96124e-07
2.12047e-07
2.25824e-07
2.31601e-07
2.17662e-07
2.02054e-07
1.88578e-07
1.82488e-07
1.82635e-07
1.88955e-07
2.02693e-07
2.18411e-07
2.32027e-07
2.4461e-07
2.30948e-07
2.17818e-07
2.02593e-07
1.9594e-07
1.9603e-07
2.02858e-07
2.18379e-07
2.31679e-07
2.44959e-07
2.55877e-07
2.45999e-07
2.32882e-07
2.18382e-07
2.11851e-07
2.11891e-07
2.18549e-07
2.3326e-07
2.4659e-07
2.55767e-07
2.70919e-07
2.55977e-07
2.44588e-07
2.31575e-07
2.25566e-07
2.25556e-07
2.31467e-07
2.44623e-07
2.56385e-07
2.7053e-07
2.57663e-07
2.47991e-07
2.37723e-07
2.25866e-07
2.20201e-07
2.20514e-07
2.2612e-07
2.37987e-07
2.48023e-07
2.56285e-07
2.46346e-07
2.41923e-07
2.28256e-07
2.15988e-07
2.1016e-07
2.1019e-07
2.16462e-07
2.30007e-07
2.40945e-07
2.44191e-07
2.38144e-07
2.3108e-07
2.16947e-07
2.02307e-07
1.96033e-07
1.96125e-07
2.02654e-07
2.17197e-07
2.29235e-07
2.37094e-07
2.27322e-07
2.17818e-07
2.03247e-07
1.90075e-07
1.83844e-07
1.83981e-07
1.90211e-07
2.03279e-07
2.17804e-07
2.27399e-07
2.2157e-07
2.11387e-07
1.96948e-07
1.843e-07
1.78995e-07
1.79099e-07
1.84387e-07
1.97166e-07
2.11805e-07
2.22043e-07
2.21822e-07
2.11334e-07
1.9686e-07
1.84378e-07
1.79257e-07
1.79282e-07
1.84578e-07
1.97272e-07
2.11734e-07
2.22152e-07
2.27269e-07
2.17142e-07
2.03169e-07
1.90637e-07
1.84701e-07
1.84752e-07
1.90762e-07
2.03477e-07
2.17661e-07
2.27761e-07
2.37801e-07
2.28717e-07
2.17581e-07
2.03658e-07
1.97254e-07
1.97259e-07
2.03677e-07
2.17816e-07
2.29283e-07
2.38395e-07
2.46389e-07
2.4097e-07
2.30853e-07
2.17911e-07
2.1166e-07
2.11651e-07
2.17875e-07
2.30909e-07
2.41378e-07
2.4658e-07
2.56813e-07
2.46308e-07
2.37894e-07
2.27254e-07
2.21788e-07
2.21836e-07
2.27282e-07
2.38068e-07
2.47149e-07
2.57367e-07
2.43063e-07
2.34237e-07
2.26576e-07
2.17302e-07
2.12631e-07
2.12913e-07
2.17651e-07
2.27018e-07
2.34793e-07
2.42647e-07
2.33814e-07
2.33047e-07
2.21565e-07
2.10952e-07
2.05773e-07
2.05865e-07
2.11578e-07
2.23525e-07
2.32466e-07
2.32154e-07
2.2847e-07
2.2513e-07
2.12315e-07
1.98812e-07
1.92974e-07
1.93185e-07
1.99422e-07
2.12763e-07
2.23506e-07
2.27777e-07
2.19515e-07
2.13272e-07
1.99914e-07
1.87581e-07
1.81664e-07
1.81887e-07
1.87859e-07
1.99979e-07
2.13178e-07
2.19586e-07
2.1429e-07
2.0725e-07
1.94031e-07
1.82156e-07
1.77167e-07
1.77271e-07
1.82208e-07
1.94096e-07
2.07389e-07
2.14459e-07
2.1443e-07
2.07164e-07
1.94043e-07
1.82322e-07
1.77454e-07
1.77445e-07
1.82369e-07
1.94154e-07
2.07189e-07
2.14386e-07
2.19204e-07
2.12497e-07
2.00071e-07
1.8837e-07
1.82609e-07
1.82605e-07
1.88317e-07
2.00027e-07
2.12594e-07
2.19266e-07
2.27667e-07
2.22625e-07
2.13279e-07
2.00468e-07
1.94297e-07
1.94247e-07
2.00293e-07
2.13125e-07
2.22761e-07
2.27862e-07
2.33928e-07
2.32542e-07
2.24994e-07
2.13291e-07
2.07342e-07
2.07262e-07
2.12988e-07
2.2449e-07
2.32338e-07
2.33634e-07
2.4364e-07
2.33857e-07
2.28086e-07
2.19313e-07
2.14314e-07
2.14297e-07
2.19102e-07
2.27676e-07
2.34013e-07
2.43743e-07
2.33902e-07
2.19838e-07
2.13939e-07
2.07105e-07
2.03322e-07
2.03447e-07
2.07259e-07
2.14337e-07
2.20438e-07
2.33824e-07
2.21408e-07
2.22349e-07
2.12823e-07
2.03753e-07
1.99045e-07
1.99104e-07
2.04212e-07
2.14649e-07
2.21961e-07
2.19997e-07
2.17446e-07
2.1672e-07
2.05203e-07
1.92831e-07
1.87281e-07
1.87409e-07
1.93285e-07
2.05431e-07
2.14976e-07
2.16873e-07
2.0954e-07
2.05904e-07
1.93775e-07
1.82264e-07
1.76551e-07
1.76709e-07
1.82308e-07
1.93493e-07
2.05501e-07
2.09492e-07
2.04612e-07
2.00207e-07
1.88046e-07
1.769e-07
1.7212e-07
1.72124e-07
1.76729e-07
1.87791e-07
1.99973e-07
2.04538e-07
2.04522e-07
1.99972e-07
1.87982e-07
1.76944e-07
1.72256e-07
1.72209e-07
1.76817e-07
1.87817e-07
1.99737e-07
2.04268e-07
2.08522e-07
2.04826e-07
1.9367e-07
1.82694e-07
1.77117e-07
1.77085e-07
1.82557e-07
1.93455e-07
2.04695e-07
2.08424e-07
2.15191e-07
2.13697e-07
2.05803e-07
1.93946e-07
1.88016e-07
1.87981e-07
1.93764e-07
2.05538e-07
2.13706e-07
2.15395e-07
2.19883e-07
2.21734e-07
2.16131e-07
2.05478e-07
1.99882e-07
1.99833e-07
2.05201e-07
2.15532e-07
2.21389e-07
2.19736e-07
2.34414e-07
2.20471e-07
2.16199e-07
2.08767e-07
2.04194e-07
2.04185e-07
2.08538e-07
2.15537e-07
2.2012e-07
2.34278e-07
2.31264e-07
2.06337e-07
2.01309e-07
1.96421e-07
1.93272e-07
1.93276e-07
1.96373e-07
2.01536e-07
2.06927e-07
2.31988e-07
2.08893e-07
2.10532e-07
2.0317e-07
1.95518e-07
1.91117e-07
1.9112e-07
1.95672e-07
2.04609e-07
2.10221e-07
2.08289e-07
2.04974e-07
2.06482e-07
1.96655e-07
1.85518e-07
1.80221e-07
1.80205e-07
1.85693e-07
1.9657e-07
2.04601e-07
2.04748e-07
1.97991e-07
1.96628e-07
1.85967e-07
1.75374e-07
1.69897e-07
1.69982e-07
1.7515e-07
1.85328e-07
1.95993e-07
1.97935e-07
1.9357e-07
1.91342e-07
1.80305e-07
1.69964e-07
1.65416e-07
1.65332e-07
1.69635e-07
1.79866e-07
1.90902e-07
1.9336e-07
1.93377e-07
1.91064e-07
1.80169e-07
1.6982e-07
1.65345e-07
1.65309e-07
1.69639e-07
1.79887e-07
1.90767e-07
1.93051e-07
1.96791e-07
1.95566e-07
1.85533e-07
1.75265e-07
1.69936e-07
1.69914e-07
1.75156e-07
1.85319e-07
1.95367e-07
1.96618e-07
2.02122e-07
2.03409e-07
1.96739e-07
1.85785e-07
1.8015e-07
1.80158e-07
1.85695e-07
1.96502e-07
2.03393e-07
2.02406e-07
2.0655e-07
2.09937e-07
2.05842e-07
1.96221e-07
1.91047e-07
1.91048e-07
1.96043e-07
2.05323e-07
2.09627e-07
2.06732e-07
2.32121e-07
2.07958e-07
2.03752e-07
1.97348e-07
1.93232e-07
1.93234e-07
1.97161e-07
2.03026e-07
2.07284e-07
2.31951e-07
2.3505e-07
1.9596e-07
1.90042e-07
1.86221e-07
1.83365e-07
1.83352e-07
1.86142e-07
1.90203e-07
1.96628e-07
2.36502e-07
1.99508e-07
1.99723e-07
1.941e-07
1.87442e-07
1.83169e-07
1.83147e-07
1.87409e-07
1.95155e-07
1.99185e-07
1.99142e-07
1.93391e-07
1.96674e-07
1.88445e-07
1.78272e-07
1.7311e-07
1.72987e-07
1.78157e-07
1.8788e-07
1.94357e-07
1.93101e-07
1.86908e-07
1.87642e-07
1.78282e-07
1.68451e-07
1.63137e-07
1.63134e-07
1.67956e-07
1.7723e-07
1.86604e-07
1.86682e-07
1.82927e-07
1.82684e-07
1.72655e-07
1.62967e-07
1.58569e-07
1.58419e-07
1.62487e-07
1.71993e-07
1.82032e-07
1.82655e-07
1.82741e-07
1.82396e-07
1.72396e-07
1.62611e-07
1.58295e-07
1.58263e-07
1.62389e-07
1.71999e-07
1.82027e-07
1.82443e-07
1.858e-07
1.86564e-07
1.77424e-07
1.67716e-07
1.62606e-07
1.62607e-07
1.67652e-07
1.77204e-07
1.86312e-07
1.85602e-07
1.90428e-07
1.93486e-07
1.87724e-07
1.77523e-07
1.72171e-07
1.72241e-07
1.7758e-07
1.87606e-07
1.93487e-07
1.907e-07
1.96505e-07
1.98788e-07
1.95652e-07
1.86922e-07
1.82171e-07
1.82253e-07
1.86997e-07
1.95449e-07
1.98688e-07
1.96893e-07
2.36161e-07
1.98065e-07
1.9204e-07
1.86254e-07
1.826e-07
1.82665e-07
1.86286e-07
1.916e-07
1.97499e-07
2.36087e-07
2.3537e-07
1.91002e-07
1.81154e-07
1.77148e-07
1.74007e-07
1.73817e-07
1.76626e-07
1.80663e-07
1.90839e-07
2.36146e-07
1.94433e-07
1.89551e-07
1.8523e-07
1.79268e-07
1.75001e-07
1.74962e-07
1.7904e-07
1.85805e-07
1.88451e-07
1.93364e-07
1.83325e-07
1.86783e-07
1.79984e-07
1.70682e-07
1.65665e-07
1.6549e-07
1.70427e-07
1.79111e-07
1.83962e-07
1.8227e-07
1.76668e-07
1.78512e-07
1.70341e-07
1.61216e-07
1.56082e-07
1.56059e-07
1.60629e-07
1.69093e-07
1.77167e-07
1.75929e-07
1.72968e-07
1.73962e-07
1.64833e-07
1.55785e-07
1.51541e-07
1.51363e-07
1.55274e-07
1.64129e-07
1.73175e-07
1.72473e-07
1.7276e-07
1.73727e-07
1.64574e-07
1.55361e-07
1.51193e-07
1.51161e-07
1.55111e-07
1.64123e-07
1.73318e-07
1.72425e-07
1.75695e-07
1.77701e-07
1.69357e-07
1.60239e-07
1.55334e-07
1.55314e-07
1.60137e-07
1.69084e-07
1.77329e-07
1.75403e-07
1.80387e-07
1.83879e-07
1.78864e-07
1.69415e-07
1.64331e-07
1.64397e-07
1.6948e-07
1.78737e-07
1.83743e-07
1.80513e-07
1.90677e-07
1.88346e-07
1.85699e-07
1.77847e-07
1.73493e-07
1.73592e-07
1.78004e-07
1.85671e-07
1.88278e-07
1.91104e-07
2.35416e-07
1.92494e-07
1.8181e-07
1.7594e-07
1.72579e-07
1.72667e-07
1.7613e-07
1.81653e-07
1.91993e-07
2.35402e-07
1.93168e-07
1.90402e-07
1.74019e-07
1.68661e-07
1.65111e-07
1.6503e-07
1.68379e-07
1.73759e-07
1.90564e-07
1.94227e-07
1.93277e-07
1.80409e-07
1.767e-07
1.71245e-07
1.67157e-07
1.67244e-07
1.71375e-07
1.77551e-07
1.79455e-07
1.92198e-07
1.74813e-07
1.77488e-07
1.72039e-07
1.63521e-07
1.58774e-07
1.58744e-07
1.63574e-07
1.71445e-07
1.74865e-07
1.73656e-07
1.67504e-07
1.7011e-07
1.63045e-07
1.54627e-07
1.49789e-07
1.49873e-07
1.54363e-07
1.62169e-07
1.6901e-07
1.66797e-07
1.64038e-07
1.66e-07
1.57855e-07
1.49464e-07
1.45451e-07
1.45378e-07
1.49216e-07
1.57496e-07
1.65557e-07
1.6376e-07
1.63956e-07
1.65919e-07
1.57682e-07
1.49105e-07
1.45162e-07
1.45182e-07
1.49026e-07
1.57466e-07
1.65767e-07
1.63908e-07
1.67162e-07
1.69719e-07
1.62278e-07
1.53804e-07
1.49155e-07
1.49162e-07
1.53783e-07
1.62118e-07
1.69486e-07
1.67005e-07
1.73062e-07
1.75308e-07
1.71022e-07
1.62356e-07
1.57583e-07
1.57656e-07
1.62489e-07
1.7101e-07
1.752e-07
1.73086e-07
1.90443e-07
1.79531e-07
1.76851e-07
1.69823e-07
1.65864e-07
1.65965e-07
1.70073e-07
1.77035e-07
1.7959e-07
1.90789e-07
1.9371e-07
1.91961e-07
1.7405e-07
1.67305e-07
1.64049e-07
1.64137e-07
1.67599e-07
1.74198e-07
1.91741e-07
1.93764e-07
1.02654e-07
1.94119e-07
1.70172e-07
1.61984e-07
1.57655e-07
1.57573e-07
1.61718e-07
1.69921e-07
1.94216e-07
1.02106e-07
1.95888e-07
1.73415e-07
1.69188e-07
1.63947e-07
1.59961e-07
1.60047e-07
1.64136e-07
1.70014e-07
1.72327e-07
1.94471e-07
1.69671e-07
1.69433e-07
1.64984e-07
1.57081e-07
1.52512e-07
1.52535e-07
1.57211e-07
1.64449e-07
1.66857e-07
1.68249e-07
1.60444e-07
1.62727e-07
1.56635e-07
1.48819e-07
1.44187e-07
1.44312e-07
1.48722e-07
1.55992e-07
1.61792e-07
1.59717e-07
1.56738e-07
1.5894e-07
1.51735e-07
1.43948e-07
1.40111e-07
1.40098e-07
1.43859e-07
1.51618e-07
1.58752e-07
1.5662e-07
1.56699e-07
1.5891e-07
1.51597e-07
1.43664e-07
1.39913e-07
1.39947e-07
1.43678e-07
1.51567e-07
1.58961e-07
1.56869e-07
1.60442e-07
1.62508e-07
1.5598e-07
1.48186e-07
1.43768e-07
1.43771e-07
1.48188e-07
1.55906e-07
1.62396e-07
1.60425e-07
1.6876e-07
1.67649e-07
1.63997e-07
1.56112e-07
1.51619e-07
1.51665e-07
1.56232e-07
1.64035e-07
1.67544e-07
1.68709e-07
1.93739e-07
1.72518e-07
1.68956e-07
1.62609e-07
1.58971e-07
1.59037e-07
1.62835e-07
1.69227e-07
1.72611e-07
1.93978e-07
1.01562e-07
1.94995e-07
1.69299e-07
1.60419e-07
1.56849e-07
1.56907e-07
1.60731e-07
1.69665e-07
1.95038e-07
1.01712e-07
4.90465e-07
1.92247e-07
1.68968e-07
1.56809e-07
1.51519e-07
1.51546e-07
1.56836e-07
1.69098e-07
1.92768e-07
4.83633e-07
1.92491e-07
1.68166e-07
1.62173e-07
1.56995e-07
1.53265e-07
1.53393e-07
1.57414e-07
1.63314e-07
1.67434e-07
1.91465e-07
1.67353e-07
1.62259e-07
1.58502e-07
1.5119e-07
1.4688e-07
1.46997e-07
1.51507e-07
1.58264e-07
1.60159e-07
1.66278e-07
1.55258e-07
1.56117e-07
1.50955e-07
1.43743e-07
1.39358e-07
1.3954e-07
1.43887e-07
1.50696e-07
1.55606e-07
1.54912e-07
1.50968e-07
1.52643e-07
1.46447e-07
1.3928e-07
1.35648e-07
1.35719e-07
1.39394e-07
1.46648e-07
1.52853e-07
1.51181e-07
1.51046e-07
1.5268e-07
1.46367e-07
1.39113e-07
1.35592e-07
1.35657e-07
1.39284e-07
1.4661e-07
1.53021e-07
1.51474e-07
1.55771e-07
1.56073e-07
1.50535e-07
1.43473e-07
1.39314e-07
1.39347e-07
1.4358e-07
1.50661e-07
1.56216e-07
1.55939e-07
1.67691e-07
1.61006e-07
1.57873e-07
1.50787e-07
1.46595e-07
1.46636e-07
1.50952e-07
1.5805e-07
1.61035e-07
1.67616e-07
1.91977e-07
1.67684e-07
1.62246e-07
1.56363e-07
1.53003e-07
1.53033e-07
1.56555e-07
1.62577e-07
1.67853e-07
1.92066e-07
4.82824e-07
1.92818e-07
1.67897e-07
1.55782e-07
1.51434e-07
1.51433e-07
1.55993e-07
1.68322e-07
1.93082e-07
4.82635e-07
4.77801e-06
1.65235e-07
1.69553e-07
1.53627e-07
1.47212e-07
1.47366e-07
1.54044e-07
1.70294e-07
1.66406e-07
4.74763e-06
1.64258e-07
1.6521e-07
1.56217e-07
1.50803e-07
1.47364e-07
1.47488e-07
1.5136e-07
1.57644e-07
1.64901e-07
1.63817e-07
1.67687e-07
1.56615e-07
1.52927e-07
1.46104e-07
1.42038e-07
1.42185e-07
1.4646e-07
1.52837e-07
1.54917e-07
1.67087e-07
1.52668e-07
1.50639e-07
1.46219e-07
1.39533e-07
1.35332e-07
1.35495e-07
1.39715e-07
1.4611e-07
1.50371e-07
1.52717e-07
1.47266e-07
1.4735e-07
1.42098e-07
1.35469e-07
1.31979e-07
1.32061e-07
1.35588e-07
1.42349e-07
1.47718e-07
1.47722e-07
1.47423e-07
1.47373e-07
1.42009e-07
1.3537e-07
1.32023e-07
1.32066e-07
1.35553e-07
1.42323e-07
1.47791e-07
1.47965e-07
1.53445e-07
1.50516e-07
1.45902e-07
1.39516e-07
1.35567e-07
1.356e-07
1.39641e-07
1.46099e-07
1.50796e-07
1.53741e-07
1.68876e-07
1.55535e-07
1.52571e-07
1.46201e-07
1.42258e-07
1.42275e-07
1.46342e-07
1.52794e-07
1.55669e-07
1.68839e-07
1.65308e-07
1.65043e-07
1.56784e-07
1.50931e-07
1.47734e-07
1.47715e-07
1.51025e-07
1.57066e-07
1.65255e-07
1.65265e-07
4.74537e-06
1.65521e-07
1.6882e-07
1.53447e-07
1.47847e-07
1.47791e-07
1.5353e-07
1.69237e-07
1.66031e-07
4.74353e-06
2.58832e-05
1.10404e-07
1.67945e-07
1.52228e-07
1.44739e-07
1.44915e-07
1.52767e-07
1.68955e-07
1.11305e-07
2.57711e-05
1.0851e-07
1.63181e-07
1.51297e-07
1.45171e-07
1.41948e-07
1.42048e-07
1.45736e-07
1.52827e-07
1.63142e-07
1.08082e-07
1.66415e-07
1.52265e-07
1.4777e-07
1.41325e-07
1.37489e-07
1.37623e-07
1.41636e-07
1.47703e-07
1.50768e-07
1.66117e-07
1.52057e-07
1.4584e-07
1.4185e-07
1.35595e-07
1.31539e-07
1.3165e-07
1.35688e-07
1.41691e-07
1.45581e-07
1.52253e-07
1.45373e-07
1.4263e-07
1.381e-07
1.31919e-07
1.28529e-07
1.28565e-07
1.31903e-07
1.3818e-07
1.42848e-07
1.45767e-07
1.45533e-07
1.42612e-07
1.38022e-07
1.31897e-07
1.28665e-07
1.28651e-07
1.31954e-07
1.38179e-07
1.42825e-07
1.45899e-07
1.52803e-07
1.45602e-07
1.41666e-07
1.35857e-07
1.3206e-07
1.32052e-07
1.35877e-07
1.41731e-07
1.4575e-07
1.53011e-07
1.67916e-07
1.51221e-07
1.47777e-07
1.41971e-07
1.3821e-07
1.38169e-07
1.4197e-07
1.47841e-07
1.51245e-07
1.678e-07
1.10197e-07
1.63334e-07
1.52517e-07
1.46067e-07
1.42872e-07
1.42785e-07
1.45966e-07
1.52552e-07
1.63371e-07
1.09855e-07
2.57667e-05
1.0981e-07
1.67732e-07
1.52804e-07
1.45835e-07
1.45712e-07
1.52678e-07
1.67937e-07
1.1027e-07
2.57572e-05
9.49874e-05
2.30859e-07
1.53909e-07
1.50526e-07
1.43281e-07
1.43501e-07
1.51232e-07
1.55177e-07
2.30926e-07
9.47116e-05
2.29115e-07
1.58578e-07
1.47553e-07
1.40226e-07
1.37141e-07
1.37248e-07
1.40841e-07
1.49224e-07
1.58893e-07
2.27064e-07
1.53172e-07
1.49134e-07
1.42966e-07
1.36838e-07
1.33283e-07
1.33432e-07
1.37194e-07
1.43013e-07
1.47885e-07
1.53418e-07
1.51222e-07
1.41537e-07
1.37636e-07
1.31808e-07
1.27957e-07
1.28056e-07
1.31891e-07
1.37498e-07
1.4133e-07
1.51588e-07
1.44347e-07
1.38233e-07
1.34213e-07
1.28474e-07
1.25234e-07
1.25245e-07
1.28384e-07
1.34186e-07
1.38336e-07
1.4466e-07
1.44476e-07
1.38178e-07
1.34168e-07
1.28526e-07
1.2544e-07
1.25396e-07
1.28503e-07
1.34202e-07
1.38226e-07
1.44653e-07
1.51815e-07
1.41179e-07
1.37605e-07
1.32326e-07
1.28701e-07
1.28671e-07
1.32276e-07
1.37569e-07
1.41221e-07
1.51918e-07
1.54777e-07
1.48046e-07
1.43337e-07
1.37951e-07
1.34369e-07
1.34291e-07
1.37841e-07
1.43256e-07
1.47985e-07
1.54612e-07
2.29197e-07
1.59115e-07
1.49496e-07
1.41774e-07
1.38438e-07
1.38308e-07
1.41512e-07
1.49274e-07
1.58948e-07
2.2865e-07
9.47095e-05
2.29085e-07
1.54701e-07
1.5196e-07
1.44735e-07
1.44562e-07
1.5161e-07
1.5453e-07
2.29376e-07
9.46817e-05
0.000261263
1.63482e-06
1.19167e-07
1.43962e-07
1.40703e-07
1.40882e-07
1.44613e-07
1.20311e-07
1.63245e-06
0.000260716
1.63745e-06
1.44919e-07
1.4498e-07
1.36111e-07
1.32942e-07
1.33067e-07
1.3675e-07
1.46748e-07
1.45573e-07
1.62412e-06
1.19652e-07
1.47091e-07
1.38553e-07
1.3255e-07
1.29245e-07
1.29406e-07
1.32969e-07
1.38703e-07
1.46015e-07
1.20301e-07
1.45328e-07
1.37764e-07
1.33475e-07
1.27997e-07
1.24348e-07
1.24451e-07
1.2808e-07
1.33344e-07
1.37585e-07
1.45817e-07
1.41818e-07
1.3413e-07
1.30262e-07
1.24897e-07
1.2181e-07
1.21801e-07
1.24761e-07
1.30156e-07
1.34144e-07
1.42104e-07
1.41825e-07
1.34006e-07
1.30231e-07
1.24989e-07
1.22044e-07
1.21991e-07
1.24919e-07
1.30188e-07
1.33989e-07
1.41956e-07
1.45437e-07
1.37215e-07
1.33502e-07
1.28638e-07
1.25184e-07
1.25154e-07
1.28579e-07
1.33456e-07
1.37278e-07
1.45639e-07
1.20585e-07
1.45752e-07
1.39094e-07
1.33868e-07
1.30446e-07
1.30384e-07
1.33772e-07
1.39034e-07
1.45816e-07
1.20696e-07
1.62568e-06
1.45665e-07
1.47371e-07
1.37903e-07
1.34268e-07
1.34172e-07
1.37692e-07
1.47163e-07
1.45607e-07
1.62466e-06
0.000260707
1.62998e-06
1.20819e-07
1.45844e-07
1.42114e-07
1.41973e-07
1.45474e-07
1.20468e-07
1.62991e-06
0.000260656
0.000574242
8.26152e-06
1.09524e-07
1.25345e-07
1.31817e-07
1.31924e-07
1.25809e-07
1.10124e-07
8.25512e-06
0.000573414
8.28024e-06
1.18127e-07
1.42574e-07
1.32566e-07
1.29096e-07
1.29245e-07
1.33201e-07
1.44385e-07
1.18958e-07
8.22738e-06
1.11477e-07
1.44921e-07
1.34284e-07
1.28187e-07
1.25107e-07
1.25275e-07
1.28688e-07
1.34566e-07
1.44e-07
1.11662e-07
1.2708e-07
1.34144e-07
1.2904e-07
1.23877e-07
1.20465e-07
1.20596e-07
1.23995e-07
1.28936e-07
1.33988e-07
1.27584e-07
1.32712e-07
1.30026e-07
1.25925e-07
1.20922e-07
1.18026e-07
1.18006e-07
1.20787e-07
1.258e-07
1.29966e-07
1.32905e-07
1.32558e-07
1.29849e-07
1.25915e-07
1.21021e-07
1.18235e-07
1.1819e-07
1.20929e-07
1.25819e-07
1.29797e-07
1.32633e-07
1.26628e-07
1.33482e-07
1.29079e-07
1.24515e-07
1.21246e-07
1.21212e-07
1.24445e-07
1.29024e-07
1.33548e-07
1.26873e-07
1.10767e-07
1.43376e-07
1.34873e-07
1.29466e-07
1.26165e-07
1.26119e-07
1.2939e-07
1.34833e-07
1.43534e-07
1.11064e-07
8.22898e-06
1.18913e-07
1.45119e-07
1.34238e-07
1.30153e-07
1.30105e-07
1.34105e-07
1.44968e-07
1.18915e-07
8.22494e-06
0.00057337
8.25107e-06
1.11512e-07
1.27235e-07
1.32869e-07
1.328e-07
1.26972e-07
1.10925e-07
8.24808e-06
0.000573308
0.00106031
2.99882e-05
4.26598e-07
9.95758e-08
1.12064e-07
1.12162e-07
9.99255e-08
4.26559e-07
2.99774e-05
0.00105933
3.00449e-05
1.00301e-07
1.38682e-07
1.29605e-07
1.25815e-07
1.25986e-07
1.30276e-07
1.40586e-07
1.01008e-07
2.99008e-05
4.31124e-07
1.41096e-07
1.3074e-07
1.24196e-07
1.21257e-07
1.21415e-07
1.24712e-07
1.31065e-07
1.40317e-07
4.27551e-07
1.01656e-07
1.30923e-07
1.24849e-07
1.19936e-07
1.16756e-07
1.16885e-07
1.20025e-07
1.24686e-07
1.30711e-07
1.01977e-07
1.12731e-07
1.26331e-07
1.2172e-07
1.17034e-07
1.14324e-07