/*--------------------------------*- C++ -*----------------------------------*\
| =========                 |                                                 |
| \\      /  F ield         | OpenFOAM: The Open Source CFD Toolbox           |
|  \\    /   O peration     | Version:  2406                                  |
|   \\  /    A nd           | Website:  www.openfoam.com                      |
|    \\/     M anipulation  |                                                 |
\*---------------------------------------------------------------------------*/
FoamFile
{
    version     2.0;
    format      ascii;
    arch        "LSB;label=32;scalar=64";
    class       volSymmTensorField;
    location    "150";
    object      turbulenceProperties:R;
}
// * * * * * * * * * * * * * * * * * * * * * * * * * * * * * * * * * * * * * //

dimensions      [0 2 -2 0 0 0 0];

internalField   nonuniform List<symmTensor> 
25000
(
(2.74201e-05 -1.39086e-06 -5.89983e-07 2.74193e-05 -5.90205e-07 2.25343e-05)
(2.65442e-05 7.24436e-07 -4.02995e-07 2.52572e-05 -5.22491e-07 2.09951e-05)
(2.3435e-05 4.09339e-07 -2.8904e-07 2.30965e-05 -5.40349e-07 1.86753e-05)
(2.30189e-05 2.55169e-07 -1.7179e-07 2.29125e-05 -5.42968e-07 1.83856e-05)
(2.27881e-05 8.81081e-08 -5.60492e-08 2.2796e-05 -5.43493e-07 1.82244e-05)
(2.28055e-05 -9.13879e-08 5.96782e-08 2.28026e-05 -5.43555e-07 1.82343e-05)
(2.30891e-05 -2.59004e-07 1.75551e-07 2.294e-05 -5.43096e-07 1.84263e-05)
(2.3636e-05 -4.16867e-07 2.93085e-07 2.31831e-05 -5.4064e-07 1.87984e-05)
(2.61777e-05 -6.89437e-07 4.1541e-07 2.48224e-05 -5.24907e-07 2.06768e-05)
(2.65499e-05 1.49461e-06 5.91502e-07 2.65481e-05 -5.90483e-07 2.198e-05)
(2.52716e-05 7.23264e-07 -5.22664e-07 2.65544e-05 -4.02924e-07 2.10029e-05)
(2.4709e-05 3.98268e-07 -4.07918e-07 2.47075e-05 -4.07904e-07 1.98256e-05)
(2.25855e-05 2.86997e-07 -3.02806e-07 2.26837e-05 -4.17412e-07 1.8115e-05)
(2.15258e-05 1.71889e-07 -1.82569e-07 2.16031e-05 -4.25637e-07 1.72268e-05)
(2.10262e-05 5.48701e-08 -5.98374e-08 2.1081e-05 -4.29981e-07 1.68015e-05)
(2.10447e-05 -6.28492e-08 6.33255e-08 2.10938e-05 -4.30133e-07 1.68145e-05)
(2.15848e-05 -1.84959e-07 1.86074e-07 2.16441e-05 -4.26155e-07 1.72685e-05)
(2.26988e-05 -3.17947e-07 3.06384e-07 2.27717e-05 -4.18841e-07 1.81995e-05)
(2.48265e-05 -4.77518e-07 4.11466e-07 2.48293e-05 -4.10117e-07 1.99392e-05)
(2.48316e-05 -6.89843e-07 5.25629e-07 2.61879e-05 -4.13836e-07 2.06856e-05)
(2.31099e-05 4.08932e-07 -5.40792e-07 2.34435e-05 -2.88411e-07 1.86837e-05)
(2.27022e-05 2.86558e-07 -4.17956e-07 2.26019e-05 -3.02698e-07 1.81273e-05)
(2.10514e-05 1.94929e-07 -3.07592e-07 2.10514e-05 -3.07271e-07 1.68097e-05)
(2.00749e-05 1.17115e-07 -1.86455e-07 2.00981e-05 -3.10481e-07 1.6014e-05)
(1.96103e-05 3.64168e-08 -6.14091e-08 1.96372e-05 -3.12512e-07 1.56306e-05)
(1.96218e-05 -4.56987e-08 6.44082e-08 1.96468e-05 -3.12772e-07 1.56394e-05)
(2.0111e-05 -1.30452e-07 1.8939e-07 2.013e-05 -3.11329e-07 1.60425e-05)
(2.11049e-05 -2.17191e-07 3.10301e-07 2.11077e-05 -3.08702e-07 1.68571e-05)
(2.27611e-05 -3.17258e-07 4.19824e-07 2.26941e-05 -3.04505e-07 1.8195e-05)
(2.31965e-05 -4.16728e-07 5.41579e-07 2.36518e-05 -2.91391e-07 1.88102e-05)
(2.29205e-05 2.55828e-07 -5.43388e-07 2.30231e-05 -1.71251e-07 1.83908e-05)
(2.16082e-05 1.71297e-07 -4.25996e-07 2.15291e-05 -1.82162e-07 1.72303e-05)
(2.01005e-05 1.16759e-07 -3.10881e-07 2.00773e-05 -1.86093e-07 1.60158e-05)
(1.91316e-05 7.0009e-08 -1.88483e-07 1.91319e-05 -1.88113e-07 1.52282e-05)
(1.86575e-05 2.10232e-08 -6.23366e-08 1.86658e-05 -1.89306e-07 1.48405e-05)
(1.86655e-05 -2.89461e-08 6.47355e-08 1.8674e-05 -1.89605e-07 1.48471e-05)
(1.91525e-05 -7.98535e-08 1.90799e-07 1.91548e-05 -1.88977e-07 1.52466e-05)
(2.01308e-05 -1.29663e-07 3.12884e-07 2.01175e-05 -1.87524e-07 1.60457e-05)
(2.16494e-05 -1.83993e-07 4.27489e-07 2.15969e-05 -1.84153e-07 1.72755e-05)
(2.29561e-05 -2.58564e-07 5.44071e-07 2.31101e-05 -1.7362e-07 1.84413e-05)
(2.27999e-05 8.87532e-08 -5.43923e-07 2.27886e-05 -5.56444e-08 1.82265e-05)
(2.10833e-05 5.47417e-08 -4.30361e-07 2.10267e-05 -5.94363e-08 1.68029e-05)
(1.96374e-05 3.61238e-08 -3.12892e-07 1.96101e-05 -6.10266e-08 1.56307e-05)
(1.86659e-05 2.08831e-08 -1.89711e-07 1.86579e-05 -6.19571e-08 1.48407e-05)
(1.81877e-05 5.13884e-09 -6.29737e-08 1.81879e-05 -6.25953e-08 1.44498e-05)
(1.8192e-05 -1.10542e-08 6.48082e-08 1.81931e-05 -6.28534e-08 1.44537e-05)
(1.86775e-05 -2.75381e-08 1.91427e-07 1.86731e-05 -6.27321e-08 1.48518e-05)
(1.96559e-05 -4.3457e-08 3.14429e-07 1.96375e-05 -6.23027e-08 1.56495e-05)
(2.11071e-05 -6.08124e-08 4.31512e-07 2.10675e-05 -6.11113e-08 1.68291e-05)
(2.28222e-05 -9.05326e-08 5.44527e-07 2.2835e-05 -5.7466e-08 1.82542e-05)
(2.28037e-05 -9.05818e-08 -5.43886e-07 2.28037e-05 6.00274e-08 1.82343e-05)
(2.10933e-05 -6.26445e-08 -4.30529e-07 2.10425e-05 6.36921e-08 1.68136e-05)
(1.96455e-05 -4.57898e-08 -3.13167e-07 1.96199e-05 6.4772e-08 1.56384e-05)
(1.86716e-05 -2.90241e-08 -1.89977e-07 1.86631e-05 6.50956e-08 1.48455e-05)
(1.8192e-05 -1.10775e-08 -6.32405e-08 1.81911e-05 6.51723e-08 1.4453e-05)
(1.81946e-05 6.94983e-09 6.45931e-08 1.81946e-05 6.49548e-08 1.44555e-05)
(1.86788e-05 2.47217e-08 1.91272e-07 1.86736e-05 6.44593e-08 1.48526e-05)
(1.96564e-05 4.14897e-08 3.14304e-07 1.96375e-05 6.37485e-08 1.56497e-05)
(2.11071e-05 5.93681e-08 4.3143e-07 2.10671e-05 6.23573e-08 1.68289e-05)
(2.28215e-05 8.93634e-08 5.44492e-07 2.28341e-05 5.85797e-08 1.82535e-05)
(2.29393e-05 -2.58201e-07 -5.43427e-07 2.30857e-05 1.75865e-07 1.84247e-05)
(2.16414e-05 -1.84471e-07 -4.26518e-07 2.15805e-05 1.86393e-07 1.72659e-05)
(2.01259e-05 -1.30275e-07 -3.11675e-07 2.01061e-05 1.89715e-07 1.60393e-05)
(1.91521e-05 -7.98183e-08 -1.89368e-07 1.91494e-05 1.91129e-07 1.52444e-05)
(1.86717e-05 -2.74878e-08 -6.31166e-08 1.86761e-05 1.91777e-07 1.48507e-05)
(1.86733e-05 2.47521e-08 6.41025e-08 1.86785e-05 1.9161e-07 1.48522e-05)
(1.91565e-05 7.70706e-08 1.90305e-07 1.91565e-05 1.9063e-07 1.52489e-05)
(2.01325e-05 1.27728e-07 3.12541e-07 2.01175e-05 1.88915e-07 1.60463e-05)
(2.16497e-05 1.82571e-07 4.27261e-07 2.1596e-05 1.85361e-07 1.72752e-05)
(2.29539e-05 2.57363e-07 5.43959e-07 2.31075e-05 1.74707e-07 1.84393e-05)
(2.3181e-05 -4.16067e-07 -5.40932e-07 2.36313e-05 2.93366e-07 1.87956e-05)
(2.27565e-05 -3.17031e-07 -4.18847e-07 2.26826e-05 3.06439e-07 1.81888e-05)
(2.11033e-05 -2.16874e-07 -3.09083e-07 2.10998e-05 3.106e-07 1.68534e-05)
(2.0115e-05 -1.29474e-07 -1.87933e-07 2.01279e-05 3.13222e-07 1.60435e-05)
(1.96346e-05 -4.33273e-08 -6.26888e-08 1.96527e-05 3.14711e-07 1.56472e-05)
(1.96356e-05 4.16106e-08 6.33824e-08 1.96544e-05 3.14579e-07 1.56482e-05)
(2.0118e-05 1.27821e-07 1.88614e-07 2.01329e-05 3.12836e-07 1.60465e-05)
(2.11078e-05 2.15378e-07 3.09725e-07 2.11078e-05 3.09989e-07 1.68581e-05)
(2.27616e-05 3.15916e-07 4.1944e-07 2.26928e-05 3.05635e-07 1.81946e-05)
(2.31931e-05 4.15531e-07 5.41395e-07 2.36478e-05 2.92424e-07 1.88071e-05)
(2.48163e-05 -6.88948e-07 -5.25036e-07 2.61687e-05 4.15551e-07 2.06712e-05)
(2.48232e-05 -4.76866e-07 -4.10477e-07 2.48194e-05 4.1176e-07 1.99341e-05)
(2.26993e-05 -3.17064e-07 -3.05147e-07 2.27657e-05 4.20458e-07 1.81973e-05)
(2.15924e-05 -1.83655e-07 -1.84555e-07 2.16446e-05 4.27749e-07 1.72718e-05)
(2.10638e-05 -6.05574e-08 -6.1512e-08 2.11032e-05 4.31729e-07 1.68261e-05)
(2.10647e-05 5.96016e-08 6.19801e-08 2.11045e-05 4.31626e-07 1.6827e-05)
(2.15948e-05 1.8278e-07 1.85025e-07 2.16483e-05 4.27445e-07 1.72741e-05)
(2.2703e-05 3.16345e-07 3.05627e-07 2.2772e-05 4.19972e-07 1.82011e-05)
(2.48272e-05 4.76321e-07 4.10946e-07 2.48274e-05 4.11129e-07 1.99386e-05)
(2.48271e-05 6.88749e-07 5.25379e-07 2.61828e-05 4.14772e-07 2.06814e-05)
(2.65476e-05 1.49361e-06 -5.90775e-07 2.65475e-05 5.91751e-07 2.19778e-05)
(2.61897e-05 -6.89768e-07 -4.1434e-07 2.4833e-05 5.26062e-07 2.06863e-05)
(2.36474e-05 -4.16213e-07 -2.918e-07 2.31922e-05 5.41804e-07 1.88068e-05)
(2.31057e-05 -2.58054e-07 -1.74049e-07 2.29519e-05 5.44243e-07 1.8438e-05)
(2.28317e-05 -9.00727e-08 -5.78966e-08 2.2819e-05 5.44666e-07 1.82517e-05)
(2.28322e-05 8.98122e-08 5.81734e-08 2.28195e-05 5.44596e-07 1.82521e-05)
(2.31068e-05 2.57846e-07 1.74351e-07 2.29533e-05 5.44038e-07 1.84389e-05)
(2.36483e-05 4.1606e-07 2.92147e-07 2.31938e-05 5.41476e-07 1.88076e-05)
(2.61876e-05 6.89356e-07 4.14718e-07 2.48323e-05 5.2563e-07 2.06847e-05)
(2.65516e-05 -1.49412e-06 5.91062e-07 2.65528e-05 5.91183e-07 2.19818e-05)
(3.79364e-05 -1.18702e-06 1.17194e-06 3.79378e-05 1.17463e-06 3.12464e-05)
(3.67747e-05 7.23155e-07 7.98276e-07 3.51129e-05 1.09148e-06 2.93724e-05)
(3.331e-05 1.7881e-07 5.7481e-07 3.29291e-05 9.98728e-07 2.67577e-05)
(3.29264e-05 1.72429e-07 3.46932e-07 3.26849e-05 9.61283e-07 2.64194e-05)
(3.26537e-05 6.3222e-08 1.13662e-07 3.24932e-05 9.38719e-07 2.61861e-05)
(3.26663e-05 -6.35844e-08 -1.22107e-07 3.24947e-05 9.38845e-07 2.61924e-05)
(3.29824e-05 -1.72779e-07 -3.58894e-07 3.2699e-05 9.61569e-07 2.64503e-05)
(3.35978e-05 -1.87631e-07 -5.96654e-07 3.30758e-05 9.99978e-07 2.69416e-05)
(3.64453e-05 -6.83373e-07 -8.32807e-07 3.47297e-05 1.09391e-06 2.91022e-05)
(3.65537e-05 1.2975e-06 -1.16377e-06 3.65518e-05 1.16372e-06 3.02286e-05)
(3.51662e-05 7.19533e-07 1.09005e-06 3.6829e-05 8.01156e-07 2.94108e-05)
(3.37108e-05 2.59591e-07 7.77419e-07 3.37172e-05 7.80058e-07 2.71783e-05)
(3.24135e-05 1.26318e-07 5.34014e-07 3.24878e-05 7.46843e-07 2.60549e-05)
(3.19547e-05 6.14758e-08 3.18532e-07 3.18826e-05 7.21112e-07 2.55651e-05)
(3.16276e-05 1.70285e-08 1.036e-07 3.15047e-05 7.06751e-07 2.52527e-05)
(3.16411e-05 -2.53065e-08 -1.11008e-07 3.15124e-05 7.07379e-07 2.52618e-05)
(3.19955e-05 -7.48583e-08 -3.28627e-07 3.19056e-05 7.23621e-07 2.55928e-05)
(3.25368e-05 -1.57911e-07 -5.50827e-07 3.25815e-05 7.55056e-07 2.61422e-05)
(3.38721e-05 -3.70906e-07 -7.96963e-07 3.38783e-05 7.96945e-07 2.73326e-05)
(3.47377e-05 -6.84541e-07 -1.09303e-06 3.64564e-05 8.32069e-07 2.9113e-05)
(3.29675e-05 1.72409e-07 9.98038e-07 3.33426e-05 5.75851e-07 2.67842e-05)
(3.25389e-05 1.22324e-07 7.46267e-07 3.24697e-05 5.37054e-07 2.60908e-05)
(3.13577e-05 1.13293e-07 5.11899e-07 3.13613e-05 5.14064e-07 2.50864e-05)
(3.09271e-05 6.5144e-08 3.02662e-07 3.08669e-05 4.95255e-07 2.46645e-05)
(3.06917e-05 1.73242e-08 9.86043e-08 3.06101e-05 4.85919e-07 2.44412e-05)
(3.06991e-05 -2.94728e-08 -1.04248e-07 3.06154e-05 4.86641e-07 2.44467e-05)
(3.09543e-05 -8.08964e-08 -3.09666e-07 3.08895e-05 4.9809e-07 2.46855e-05)
(3.13928e-05 -1.36612e-07 -5.20757e-07 3.13982e-05 5.20453e-07 2.51197e-05)
(3.25363e-05 -1.57097e-07 -7.53312e-07 3.25036e-05 5.49199e-07 2.61171e-05)
(3.30886e-05 -1.88138e-07 -9.99776e-07 3.36164e-05 5.96149e-07 2.69545e-05)
(3.26983e-05 1.7012e-07 9.6108e-07 3.29335e-05 3.47041e-07 2.64271e-05)
(3.1891e-05 5.7796e-08 7.19675e-07 3.19641e-05 3.19501e-07 2.55715e-05)
(3.08733e-05 6.3728e-08 4.93514e-07 3.09371e-05 3.04247e-07 2.467e-05)
(3.03563e-05 3.99911e-08 2.89936e-07 3.0358e-05 2.9158e-07 2.41822e-05)
(3.00908e-05 9.27837e-09 9.45248e-08 3.00649e-05 2.84879e-07 2.39363e-05)
(3.0099e-05 -2.1325e-08 -9.86101e-08 3.00733e-05 2.85546e-07 2.39427e-05)
(3.03683e-05 -5.37302e-08 -2.94466e-07 3.03731e-05 2.93737e-07 2.41941e-05)
(3.08829e-05 -7.99497e-08 -4.98264e-07 3.09587e-05 3.08718e-07 2.46855e-05)
(3.19038e-05 -7.40049e-08 -7.23546e-07 3.20065e-05 3.27525e-07 2.55968e-05)
(3.27104e-05 -1.73405e-07 -9.61471e-07 3.30033e-05 3.57653e-07 2.64632e-05)
(3.24998e-05 6.21673e-08 9.39019e-07 3.26557e-05 1.13565e-07 2.61895e-05)
(3.15115e-05 1.4818e-08 7.05795e-07 3.16329e-05 1.04007e-07 2.52572e-05)
(3.06112e-05 1.58296e-08 4.844e-07 3.06943e-05 9.95179e-08 2.44423e-05)
(3.00672e-05 8.63532e-09 2.83414e-07 3.00956e-05 9.57536e-08 2.39385e-05)
(2.98127e-05 -5.45799e-10 9.25863e-08 2.98137e-05 9.38626e-08 2.37005e-05)
(2.9815e-05 -9.72927e-09 -9.5468e-08 2.98175e-05 9.43226e-08 2.3703e-05)
(3.00712e-05 -1.95524e-08 -2.8632e-07 3.01048e-05 9.72649e-08 2.39447e-05)
(3.06198e-05 -2.68937e-08 -4.87189e-07 3.07151e-05 1.02508e-07 2.4455e-05)
(3.15173e-05 -2.35699e-08 -7.0762e-07 3.16616e-05 1.08779e-07 2.5272e-05)
(3.25028e-05 -6.41162e-08 -9.38698e-07 3.26902e-05 1.19535e-07 2.62052e-05)
(3.24967e-05 -6.3825e-08 9.39197e-07 3.26661e-05 -1.22198e-07 2.61932e-05)
(3.15148e-05 -2.67051e-08 7.06805e-07 3.1642e-05 -1.10827e-07 2.52629e-05)
(3.06167e-05 -3.0741e-08 4.85494e-07 3.07005e-05 -1.03672e-07 2.44476e-05)
(3.00693e-05 -2.20455e-08 2.84186e-07 3.00962e-05 -9.77328e-08 2.39403e-05)
(2.98165e-05 -1.00424e-08 9.31062e-08 2.98156e-05 -9.44778e-08 2.37028e-05)
(2.98182e-05 1.87264e-09 -9.51866e-08 2.98188e-05 -9.41666e-08 2.37048e-05)
(3.00728e-05 1.39004e-08 -2.86181e-07 3.01051e-05 -9.67308e-08 2.39454e-05)
(3.06206e-05 2.29278e-08 -4.87124e-07 3.07149e-05 -1.01803e-07 2.44551e-05)
(3.15183e-05 2.08987e-08 -7.0758e-07 3.16617e-05 -1.07991e-07 2.52724e-05)
(3.2501e-05 6.22052e-08 -9.38625e-07 3.26884e-05 -1.18672e-07 2.62036e-05)
(3.26992e-05 -1.73195e-07 9.61976e-07 3.29812e-05 -3.58883e-07 2.64501e-05)
(3.19067e-05 -7.56204e-08 7.23164e-07 3.19948e-05 -3.28421e-07 2.55932e-05)
(3.08847e-05 -8.16942e-08 4.97049e-07 3.09491e-05 -3.09175e-07 2.46822e-05)
(3.03725e-05 -5.44701e-08 2.92626e-07 3.03685e-05 -2.93879e-07 2.41937e-05)
(3.01071e-05 -1.99542e-08 9.61708e-08 3.00743e-05 -2.85664e-07 2.39462e-05)
(3.01076e-05 1.36836e-08 -9.77386e-08 3.00763e-05 -2.85469e-07 2.39472e-05)
(3.03741e-05 4.82846e-08 -2.94048e-07 3.03744e-05 -2.93265e-07 2.41967e-05)
(3.08867e-05 7.61524e-08 -4.98065e-07 3.0959e-05 -3.08063e-07 2.46868e-05)
(3.1906e-05 7.14332e-08 -7.23409e-07 3.20061e-05 -3.26773e-07 2.55972e-05)
(3.27049e-05 1.71376e-07 -9.61248e-07 3.29979e-05 -3.56807e-07 2.64585e-05)
(3.30713e-05 -1.87393e-07 1.00012e-06 3.35927e-05 -5.96445e-07 2.69382e-05)
(3.25432e-05 -1.58015e-07 7.53063e-07 3.24973e-05 -5.49406e-07 2.61174e-05)
(3.13987e-05 -1.37277e-07 5.19703e-07 3.13928e-05 -5.20492e-07 2.51197e-05)
(3.09633e-05 -8.05687e-08 3.07826e-07 3.08879e-05 -4.98069e-07 2.46883e-05)
(3.07142e-05 -2.7458e-08 1.01488e-07 3.06194e-05 -4.86778e-07 2.44543e-05)
(3.07145e-05 2.2565e-08 -1.02754e-07 3.06207e-05 -4.86674e-07 2.44549e-05)
(3.09637e-05 7.59662e-08 -3.08934e-07 3.08916e-05 -4.97724e-07 2.46898e-05)
(3.13984e-05 1.33115e-07 -5.20398e-07 3.13983e-05 -5.19889e-07 2.51215e-05)
(3.25404e-05 1.54689e-07 -7.53068e-07 3.25032e-05 -5.48509e-07 2.61181e-05)
(3.30797e-05 1.86003e-07 -9.994e-07 3.36075e-05 -5.95335e-07 2.69469e-05)
(3.47092e-05 -6.82211e-07 1.09315e-06 3.6423e-05 -8.31787e-07 2.90873e-05)
(3.38791e-05 -3.70964e-07 7.96597e-07 3.38714e-05 -7.96725e-07 2.73325e-05)
(3.25435e-05 -1.57939e-07 5.49685e-07 3.25757e-05 -7.54838e-07 2.61422e-05)
(3.2007e-05 -7.46735e-08 3.26619e-07 3.1904e-05 -7.23486e-07 2.55966e-05)
(3.16601e-05 -2.42305e-08 1.07793e-07 3.15158e-05 -7.07483e-07 2.52708e-05)
(3.16606e-05 2.03234e-08 -1.08902e-07 3.1517e-05 -7.07439e-07 2.52714e-05)
(3.2008e-05 7.10226e-08 -3.27577e-07 3.19075e-05 -7.23345e-07 2.55983e-05)
(3.25438e-05 1.54889e-07 -5.50281e-07 3.25803e-05 -7.54593e-07 2.6144e-05)
(3.38751e-05 3.68578e-07 -7.96586e-07 3.38746e-05 -7.96379e-07 2.73317e-05)
(3.47216e-05 6.81616e-07 -1.0925e-06 3.64392e-05 -8.31386e-07 2.90986e-05)
(3.65529e-05 1.29965e-06 1.16385e-06 3.65532e-05 -1.16358e-06 3.02301e-05)
(3.64716e-05 -6.8472e-07 8.32298e-07 3.47489e-05 -1.09382e-06 2.91214e-05)
(3.36138e-05 -1.88312e-07 5.95353e-07 3.30839e-05 -9.99824e-07 2.69511e-05)
(3.29989e-05 -1.73731e-07 3.56637e-07 3.27047e-05 -9.61471e-07 2.64591e-05)
(3.26877e-05 -6.45771e-08 1.18525e-07 3.24995e-05 -9.38766e-07 2.62029e-05)
(3.26881e-05 6.17186e-08 -1.19593e-07 3.25003e-05 -9.38753e-07 2.62033e-05)
(3.29995e-05 1.71017e-07 -3.57581e-07 3.27063e-05 -9.61416e-07 2.64599e-05)
(3.36127e-05 1.8585e-07 -5.9598e-07 3.30847e-05 -9.99734e-07 2.69508e-05)
(3.64606e-05 6.8246e-07 -8.32413e-07 3.4741e-05 -1.0937e-06 2.91128e-05)
(3.6556e-05 -1.29949e-06 -1.16333e-06 3.65564e-05 -1.16341e-06 3.02321e-05)
(3.42141e-05 -2.92413e-07 1.55565e-06 3.42015e-05 1.55965e-06 2.8788e-05)
(3.1811e-05 3.9703e-07 1.07725e-06 3.09004e-05 1.43046e-06 2.60971e-05)
(2.99197e-05 -1.92522e-08 7.77227e-07 2.99001e-05 1.38358e-06 2.46322e-05)
(2.92929e-05 9.02492e-08 4.68669e-07 2.93078e-05 1.3668e-06 2.40146e-05)
(2.89474e-05 2.44972e-08 1.54193e-07 2.90165e-05 1.34945e-06 2.36865e-05)
(2.89497e-05 -2.43786e-08 -1.66564e-07 2.90175e-05 1.34957e-06 2.3689e-05)
(2.93172e-05 -9.07914e-08 -4.84639e-07 2.93251e-05 1.36698e-06 2.40349e-05)
(3.01229e-05 7.98143e-09 -8.0261e-07 3.00456e-05 1.38501e-06 2.4777e-05)
(3.18408e-05 -3.95762e-07 -1.11683e-06 3.09354e-05 1.4339e-06 2.61431e-05)
(3.34707e-05 3.2987e-07 -1.54911e-06 3.34712e-05 1.54835e-06 2.82077e-05)
(3.09479e-05 3.98743e-07 1.4284e-06 3.18535e-05 1.08174e-06 2.6128e-05)
(2.927e-05 1.15021e-07 1.0717e-06 2.92734e-05 1.07568e-06 2.40577e-05)
(2.88232e-05 1.31425e-08 7.74518e-07 2.89179e-05 1.06925e-06 2.35358e-05)
(2.85234e-05 3.58323e-09 4.68261e-07 2.85036e-05 1.06731e-06 2.3126e-05)
(2.82463e-05 -2.56816e-09 1.52798e-07 2.82239e-05 1.06389e-06 2.28427e-05)
(2.82496e-05 -8.58516e-10 -1.64448e-07 2.82263e-05 1.06459e-06 2.28463e-05)
(2.8538e-05 -7.74731e-09 -4.82606e-07 2.85156e-05 1.0702e-06 2.31411e-05)
(2.89264e-05 -2.47783e-08 -7.96427e-07 2.90132e-05 1.07999e-06 2.3619e-05)
(2.94259e-05 -1.81128e-07 -1.09425e-06 2.94319e-05 1.09326e-06 2.42072e-05)
(3.09256e-05 -3.96285e-07 -1.43262e-06 3.18361e-05 1.11435e-06 2.61401e-05)
(2.99166e-05 -2.05669e-08 1.38225e-06 2.99323e-05 7.78305e-07 2.46419e-05)
(2.8969e-05 1.16478e-08 1.06946e-06 2.88766e-05 7.79504e-07 2.35692e-05)
(2.81658e-05 4.38289e-08 7.69665e-07 2.81672e-05 7.72562e-07 2.27899e-05)
(2.77896e-05 2.35221e-08 4.65271e-07 2.77526e-05 7.64621e-07 2.23569e-05)
(2.753e-05 5.64193e-09 1.5243e-07 2.7506e-05 7.61671e-07 2.2095e-05)
(2.75329e-05 -1.25617e-08 -1.62137e-07 2.75088e-05 7.62654e-07 2.20984e-05)
(2.78054e-05 -3.0606e-08 -4.76292e-07 2.77684e-05 7.68411e-07 2.23726e-05)
(2.81836e-05 -5.10799e-08 -7.81896e-07 2.81877e-05 7.80231e-07 2.28135e-05)
(2.89515e-05 -2.4142e-08 -1.07723e-06 2.88747e-05 7.91972e-07 2.35807e-05)
(3.00419e-05 8.30732e-09 -1.38501e-06 3.01243e-05 8.00575e-07 2.47761e-05)
(2.93051e-05 9.04436e-08 1.3659e-06 2.92873e-05 4.68339e-07 2.40106e-05)
(2.85008e-05 2.93409e-09 1.0653e-06 2.85213e-05 4.6935e-07 2.31225e-05)
(2.77561e-05 2.35645e-08 7.62478e-07 2.7794e-05 4.67256e-07 2.23584e-05)
(2.73451e-05 8.6533e-09 4.59635e-07 2.73454e-05 4.61643e-07 2.18981e-05)
(2.70814e-05 -2.2645e-10 1.51106e-07 2.70795e-05 4.58868e-07 2.16298e-05)
(2.70887e-05 -7.33208e-09 -1.5864e-07 2.70873e-05 4.59973e-07 2.1636e-05)
(2.7352e-05 -1.60498e-08 -4.67442e-07 2.73552e-05 4.64907e-07 2.19075e-05)
(2.77573e-05 -3.011e-08 -7.69724e-07 2.78018e-05 4.73397e-07 2.23679e-05)
(2.85046e-05 -7.40055e-09 -1.07085e-06 2.8536e-05 4.79541e-07 2.31365e-05)
(2.932e-05 -9.11483e-08 -1.36732e-06 2.93183e-05 4.81574e-07 2.40328e-05)
(2.90141e-05 2.46606e-08 1.3493e-06 2.89441e-05 1.53577e-07 2.36841e-05)
(2.82195e-05 -2.5879e-09 1.06238e-06 2.82419e-05 1.52941e-07 2.28384e-05)
(2.75012e-05 5.85911e-09 7.59684e-07 2.75258e-05 1.53316e-07 2.20907e-05)
(2.70813e-05 -9.68509e-11 4.57184e-07 2.70837e-05 1.52442e-07 2.16305e-05)
(2.68621e-05 -2.70531e-09 1.51063e-07 2.68622e-05 1.52464e-07 2.13945e-05)
(2.68635e-05 -4.09925e-09 -1.56604e-07 2.68648e-05 1.53297e-07 2.13966e-05)
(2.70816e-05 -6.50934e-09 -4.62489e-07 2.70875e-05 1.55053e-07 2.16343e-05)
(2.75063e-05 -1.13687e-08 -7.64612e-07 2.75373e-05 1.58096e-07 2.20998e-05)
(2.82199e-05 -5.06329e-10 -1.0658e-06 2.82522e-05 1.5991e-07 2.28452e-05)
(2.90088e-05 -2.50414e-08 -1.34978e-06 2.89489e-05 1.61815e-07 2.3685e-05)
(2.90149e-05 -2.40393e-08 1.3495e-06 2.89473e-05 -1.67252e-07 2.36871e-05)
(2.82221e-05 -7.16208e-10 1.06368e-06 2.82457e-05 -1.6467e-07 2.28427e-05)
(2.75043e-05 -1.23125e-08 7.6118e-07 2.75288e-05 -1.61772e-07 2.20945e-05)
(2.70794e-05 -7.11796e-09 4.58308e-07 2.7081e-05 -1.57831e-07 2.16301e-05)
(2.68631e-05 -4.03895e-09 1.51994e-07 2.6862e-05 -1.55655e-07 2.13952e-05)
(2.68643e-05 -1.73043e-09 -1.56015e-07 2.68642e-05 -1.5502e-07 2.13968e-05)
(2.70817e-05 1.74619e-09 -4.62148e-07 2.70864e-05 -1.55887e-07 2.16339e-05)
(2.75061e-05 7.70136e-09 -7.64393e-07 2.75361e-05 -1.584e-07 2.20991e-05)
(2.82204e-05 -2.08812e-09 -1.06567e-06 2.82516e-05 -1.59909e-07 2.28451e-05)
(2.90073e-05 2.32894e-08 -1.34966e-06 2.89472e-05 -1.61617e-07 2.36836e-05)
(2.93233e-05 -9.05057e-08 1.36722e-06 2.93158e-05 -4.85279e-07 2.4034e-05)
(2.85099e-05 -7.41902e-09 1.06935e-06 2.85323e-05 -4.8277e-07 2.3137e-05)
(2.7757e-05 -3.03247e-08 7.66969e-07 2.77943e-05 -4.76021e-07 2.23644e-05)
(2.73514e-05 -1.60045e-08 4.63677e-07 2.73485e-05 -4.67093e-07 2.19043e-05)
(2.70896e-05 -6.41084e-09 1.53937e-07 2.70835e-05 -4.62109e-07 2.1635e-05)
(2.70901e-05 1.7355e-09 -1.56882e-07 2.70848e-05 -4.61668e-07 2.16358e-05)
(2.73527e-05 1.15406e-08 -4.66381e-07 2.73521e-05 -4.65737e-07 2.19065e-05)
(2.77579e-05 2.66581e-08 -7.69127e-07 2.77991e-05 -4.73713e-07 2.23669e-05)
(2.85057e-05 4.98753e-09 -1.07048e-06 2.85342e-05 -4.79554e-07 2.31359e-05)
(2.93147e-05 8.93325e-08 -1.36695e-06 2.93128e-05 -4.81358e-07 2.40283e-05)
(3.00394e-05 9.03679e-09 1.38484e-06 3.01175e-05 -8.02941e-07 2.47735e-05)
(2.89587e-05 -2.44582e-08 1.07604e-06 2.88725e-05 -7.94128e-07 2.3583e-05)
(2.81843e-05 -5.11734e-08 7.79425e-07 2.81806e-05 -7.82095e-07 2.28108e-05)
(2.78059e-05 -3.02061e-08 4.72595e-07 2.77614e-05 -7.70162e-07 2.237e-05)
(2.75354e-05 -1.15142e-08 1.57097e-07 2.75037e-05 -7.64557e-07 2.20978e-05)
(2.75356e-05 7.67334e-09 -1.59281e-07 2.75044e-05 -7.64253e-07 2.20982e-05)
(2.78065e-05 2.66618e-08 -4.74577e-07 2.77636e-05 -7.69233e-07 2.23711e-05)
(2.81841e-05 4.80735e-08 -7.8086e-07 2.81829e-05 -7.80569e-07 2.28115e-05)
(2.89531e-05 2.20539e-08 -1.07658e-06 2.88713e-05 -7.91979e-07 2.35797e-05)
(3.00331e-05 -1.01123e-08 -1.38439e-06 3.01145e-05 -8.00302e-07 2.47685e-05)
(3.09091e-05 -3.93878e-07 1.43233e-06 3.18145e-05 -1.1157e-06 2.6125e-05)
(2.94299e-05 -1.81127e-07 1.09301e-06 2.94243e-05 -1.09462e-06 2.4206e-05)
(2.89255e-05 -2.47138e-08 7.9393e-07 2.90028e-05 -1.08132e-06 2.36143e-05)
(2.85379e-05 -7.89735e-09 4.78776e-07 2.85061e-05 -1.07154e-06 2.31372e-05)
(2.82508e-05 -9.16409e-10 1.59023e-07 2.82175e-05 -1.06612e-06 2.28439e-05)
(2.82511e-05 -2.33165e-09 -1.60674e-07 2.82182e-05 -1.06591e-06 2.28443e-05)
(2.85388e-05 4.85952e-09 -4.80256e-07 2.85079e-05 -1.07091e-06 2.31383e-05)
(2.8926e-05 2.2128e-08 -7.94984e-07 2.90051e-05 -1.0803e-06 2.36151e-05)
(2.94245e-05 1.78961e-07 -1.09328e-06 2.94226e-05 -1.09331e-06 2.42024e-05)
(3.0909e-05 3.93432e-07 -1.43169e-06 3.18161e-05 -1.11411e-06 2.61242e-05)
(3.34626e-05 3.31985e-07 1.54857e-06 3.34617e-05 -1.54927e-06 2.82016e-05)
(3.18501e-05 -3.96142e-07 1.11539e-06 3.09369e-05 -1.43489e-06 2.61482e-05)
(3.01209e-05 8.23161e-09 7.99982e-07 3.00361e-05 -1.38591e-06 2.47723e-05)
(2.9314e-05 -9.13488e-08 4.80691e-07 2.93133e-05 -1.36785e-06 2.40288e-05)
(2.89476e-05 -2.53712e-08 1.61015e-07 2.90055e-05 -1.3503e-06 2.36836e-05)
(2.89481e-05 2.29847e-08 -1.62272e-07 2.90063e-05 -1.35015e-06 2.36841e-05)
(2.93156e-05 8.91733e-08 -4.8185e-07 2.93157e-05 -1.36739e-06 2.40302e-05)
(3.01229e-05 -1.01251e-08 -8.00839e-07 3.00392e-05 -1.38518e-06 2.4774e-05)
(3.18439e-05 3.94333e-07 -1.11566e-06 3.09322e-05 -1.434e-06 2.61429e-05)
(3.34641e-05 -3.31832e-07 -1.54799e-06 3.34619e-05 -1.5483e-06 2.8201e-05)
(2.54894e-05 7.18331e-08 1.38448e-06 2.54749e-05 1.38714e-06 2.20579e-05)
(2.2545e-05 6.99202e-08 9.75778e-07 2.22295e-05 1.27966e-06 1.90618e-05)
(2.18358e-05 -1.16348e-07 7.00064e-07 2.1948e-05 1.28045e-06 1.84151e-05)
(2.11782e-05 2.72973e-08 4.21206e-07 2.12826e-05 1.27656e-06 1.77372e-05)
(2.08783e-05 -1.02088e-08 1.39391e-07 2.10363e-05 1.26613e-06 1.74395e-05)
(2.08711e-05 1.24093e-08 -1.4907e-07 2.10341e-05 1.26618e-06 1.74372e-05)
(2.11719e-05 -2.42296e-08 -4.33081e-07 2.12892e-05 1.27664e-06 1.77415e-05)
(2.19894e-05 1.10365e-07 -7.18622e-07 2.20872e-05 1.28181e-06 1.85372e-05)
(2.26907e-05 -7.99369e-08 -1.00305e-06 2.24063e-05 1.28286e-06 1.92035e-05)
(2.52117e-05 -6.92604e-08 -1.3802e-06 2.52124e-05 1.38008e-06 2.18388e-05)
(2.22659e-05 7.22732e-08 1.27906e-06 2.25754e-05 9.80036e-07 1.90853e-05)
(2.07988e-05 -1.08103e-09 9.79982e-07 2.08005e-05 9.83182e-07 1.74617e-05)
(2.07058e-05 -3.51429e-08 7.17565e-07 2.07779e-05 9.93004e-07 1.71832e-05)
(2.03536e-05 -1.14298e-08 4.32439e-07 2.03672e-05 1.00096e-06 1.6737e-05)
(2.0123e-05 -1.04604e-08 1.41484e-07 2.01665e-05 1.00164e-06 1.64927e-05)
(2.01191e-05 1.05704e-08 -1.51076e-07 2.01647e-05 1.00214e-06 1.64919e-05)
(2.03468e-05 1.45156e-08 -4.4368e-07 2.03668e-05 1.00302e-06 1.67388e-05)
(2.07746e-05 4.0133e-08 -7.34854e-07 2.08496e-05 1.00196e-06 1.7245e-05)
(2.09234e-05 -3.38047e-08 -9.95791e-07 2.09273e-05 9.95486e-07 1.75794e-05)
(2.239e-05 -8.00286e-08 -1.28054e-06 2.26778e-05 1.00099e-06 1.91929e-05)
(2.19504e-05 -1.16639e-07 1.27948e-06 2.18334e-05 7.01413e-07 1.84139e-05)
(2.08189e-05 -3.5568e-08 9.94434e-07 2.07454e-05 7.22708e-07 1.72091e-05)
(2.01806e-05 -1.20293e-09 7.19935e-07 2.01794e-05 7.22365e-07 1.65147e-05)
(1.97171e-05 1.71419e-09 4.33149e-07 1.9706e-05 7.19594e-07 1.60026e-05)
(1.94297e-05 6.33678e-10 1.41697e-07 1.94518e-05 7.18632e-07 1.57157e-05)
(1.94301e-05 -1.99243e-09 -1.49976e-07 1.94536e-05 7.19467e-07 1.57178e-05)
(1.97272e-05 -8.5908e-10 -4.42244e-07 1.97192e-05 7.22686e-07 1.60152e-05)
(2.0189e-05 7.23163e-09 -7.29069e-07 2.019e-05 7.27987e-07 1.65303e-05)
(2.07908e-05 4.04271e-08 -9.97822e-07 2.07203e-05 7.3048e-07 1.7205e-05)
(2.20709e-05 1.10967e-07 -1.28086e-06 2.19744e-05 7.17002e-07 1.85246e-05)
(2.12687e-05 2.81837e-08 1.27539e-06 2.11613e-05 4.21308e-07 1.77242e-05)
(2.03594e-05 -1.05284e-08 9.99273e-07 2.03436e-05 4.33572e-07 1.67283e-05)
(1.97077e-05 2.60383e-09 7.17867e-07 1.97155e-05 4.3492e-07 1.60011e-05)
(1.92843e-05 -5.30831e-09 4.31717e-07 1.92827e-05 4.33381e-07 1.55177e-05)
(1.9006e-05 -2.05388e-09 1.41631e-07 1.90204e-05 4.32756e-07 1.52326e-05)
(1.90116e-05 9.18965e-10 -1.48118e-07 1.90268e-05 4.33773e-07 1.52378e-05)
(1.929e-05 5.35861e-09 -4.3823e-07 1.92902e-05 4.36168e-07 1.55259e-05)
(1.97068e-05 -9.06147e-10 -7.23331e-07 1.9716e-05 4.39785e-07 1.60067e-05)
(2.03487e-05 1.4155e-08 -1.00281e-06 2.03312e-05 4.41065e-07 1.67257e-05)
(2.12691e-05 -2.47093e-08 -1.27622e-06 2.11534e-05 4.30565e-07 1.77255e-05)
(2.10248e-05 -9.50384e-09 1.26529e-06 2.08661e-05 1.39246e-07 1.74295e-05)
(2.01571e-05 -9.21969e-09 9.99987e-07 2.01121e-05 1.41798e-07 1.64835e-05)
(1.94455e-05 1.85058e-09 7.16802e-07 1.94213e-05 1.42487e-07 1.5709e-05)
(1.90223e-05 -1.48224e-09 4.31358e-07 1.90054e-05 1.42718e-07 1.52322e-05)
(1.87839e-05 -8.20473e-10 1.42439e-07 1.87827e-05 1.43539e-07 1.49756e-05)
(1.87842e-05 -3.5265e-10 -1.47164e-07 1.87835e-05 1.44292e-07 1.49767e-05)
(1.90197e-05 7.12324e-10 -4.35772e-07 1.90035e-05 1.45012e-07 1.52328e-05)
(1.94447e-05 -2.06865e-09 -7.20768e-07 1.94211e-05 1.4653e-07 1.57113e-05)
(2.01484e-05 9.89729e-09 -1.00257e-06 2.01038e-05 1.47285e-07 1.64796e-05)
(2.10112e-05 1.1309e-08 -1.26566e-06 2.08493e-05 1.45247e-07 1.7419e-05)
(2.10248e-05 1.34221e-08 1.26536e-06 2.08619e-05 -1.49362e-07 1.74293e-05)
(2.0157e-05 1.17963e-08 1.00081e-06 2.01105e-05 -1.51078e-07 1.64846e-05)
(1.94469e-05 -8.48913e-10 7.17875e-07 1.94223e-05 -1.49628e-07 1.57114e-05)
(1.90193e-05 1.62608e-09 4.32221e-07 1.90023e-05 -1.47492e-07 1.52312e-05)
(1.87826e-05 -1.18183e-10 1.43246e-07 1.87813e-05 -1.46491e-07 1.4975e-05)
(1.87823e-05 -1.49427e-09 -1.46605e-07 1.87812e-05 -1.45912e-07 1.49751e-05)
(1.90177e-05 -2.88146e-09 -4.35407e-07 1.9001e-05 -1.45737e-07 1.5231e-05)
(1.94429e-05 3.42217e-12 -7.20533e-07 1.94188e-05 -1.46676e-07 1.57096e-05)
(2.01478e-05 -1.15979e-08 -1.00244e-06 2.01025e-05 -1.47097e-07 1.64787e-05)
(2.10095e-05 -1.23711e-08 -1.26553e-06 2.08476e-05 -1.44863e-07 1.74175e-05)
(2.12821e-05 -2.31197e-08 1.27602e-06 2.11646e-05 -4.3344e-07 1.77356e-05)
(2.03562e-05 1.57395e-08 1.00147e-06 2.03357e-05 -4.43625e-07 1.67302e-05)
(1.9706e-05 5.32231e-11 7.20906e-07 1.97132e-05 -4.41911e-07 1.60047e-05)
(1.92858e-05 5.80386e-09 4.3495e-07 1.92842e-05 -4.38004e-07 1.55214e-05)
(1.90054e-05 9.97742e-10 1.44098e-07 1.90195e-05 -4.35635e-07 1.52326e-05)
(1.90049e-05 -2.8164e-09 -1.46467e-07 1.90192e-05 -4.35236e-07 1.52324e-05)
(1.92841e-05 -7.41517e-09 -4.37139e-07 1.92827e-05 -4.36787e-07 1.55205e-05)
(1.97026e-05 -1.00372e-09 -7.22666e-07 1.97099e-05 -4.39875e-07 1.60024e-05)
(2.03469e-05 -1.56095e-08 -1.00242e-06 2.03274e-05 -4.40857e-07 1.67231e-05)
(2.12634e-05 2.36758e-08 -1.27585e-06 2.1148e-05 -4.30159e-07 1.77207e-05)
(2.20794e-05 1.11833e-07 1.2806e-06 2.19814e-05 -7.18707e-07 1.85313e-05)
(2.07959e-05 4.09321e-08 9.96716e-07 2.07215e-05 -7.31984e-07 1.72075e-05)
(2.01837e-05 7.51319e-09 7.26848e-07 2.01822e-05 -7.29245e-07 1.65247e-05)
(1.97185e-05 -7.61273e-10 4.38974e-07 1.97079e-05 -7.23873e-07 1.6007e-05)
(1.94193e-05 -2.00307e-09 1.45647e-07 1.94405e-05 -7.20827e-07 1.57087e-05)
(1.94189e-05 1.40337e-10 -1.47342e-07 1.94402e-05 -7.20572e-07 1.57085e-05)
(1.97178e-05 -8.99996e-10 -4.40516e-07 1.97072e-05 -7.23095e-07 1.60065e-05)
(2.0182e-05 -8.70454e-09 -7.27995e-07 2.01802e-05 -7.27966e-07 1.65232e-05)
(2.07877e-05 -4.13244e-08 -9.97173e-07 2.07137e-05 -7.30195e-07 1.72007e-05)
(2.20597e-05 -1.11657e-07 -1.28027e-06 2.19635e-05 -7.16483e-07 1.85152e-05)
(2.23835e-05 -7.82386e-08 1.2802e-06 2.2668e-05 -1.00168e-06 1.91867e-05)
(2.0921e-05 -3.3753e-08 9.94676e-07 2.09179e-05 -9.96093e-07 1.75746e-05)
(2.07631e-05 4.00097e-08 7.32615e-07 2.08335e-05 -1.00247e-06 1.72335e-05)
(2.0333e-05 1.38045e-08 4.40293e-07 2.03487e-05 -1.00355e-06 1.67257e-05)
(2.01027e-05 9.75315e-09 1.46458e-07 2.01447e-05 -1.00283e-06 1.64778e-05)
(2.01029e-05 -1.1511e-08 -1.47729e-07 2.01451e-05 -1.00268e-06 1.6478e-05)
(2.03339e-05 -1.54837e-08 -4.41442e-07 2.035e-05 -1.00311e-06 1.67266e-05)
(2.07647e-05 -4.14512e-08 -7.33443e-07 2.0835e-05 -1.00175e-06 1.72347e-05)