/*--------------------------------*- C++ -*----------------------------------*\
| =========                 |                                                 |
| \\      /  F ield         | OpenFOAM: The Open Source CFD Toolbox           |
|  \\    /   O peration     | Version:  2406                                  |
|   \\  /    A nd           | Website:  www.openfoam.com                      |
|    \\/     M anipulation  |                                                 |
\*---------------------------------------------------------------------------*/
FoamFile
{
    version     2.0;
    format      ascii;
    arch        "LSB;label=32;scalar=64";
    class       volScalarField;
    location    "150";
    object      turbulenceProperties:k;
}
// * * * * * * * * * * * * * * * * * * * * * * * * * * * * * * * * * * * * * //

dimensions      [0 2 -2 0 0 0 0];

internalField   nonuniform List<scalar> 
25000
(
3.86869e-05
3.63983e-05
3.26034e-05
3.21585e-05
3.19043e-05
3.19212e-05
3.22277e-05
3.28088e-05
3.58384e-05
3.7539e-05
3.64145e-05
3.46211e-05
3.16922e-05
3.01779e-05
2.94543e-05
2.94765e-05
3.02487e-05
3.1835e-05
3.47975e-05
3.58526e-05
3.26185e-05
3.17157e-05
2.94563e-05
2.80935e-05
2.7439e-05
2.7454e-05
2.81417e-05
2.95348e-05
3.18251e-05
3.28293e-05
3.21672e-05
3.01838e-05
2.80968e-05
2.67459e-05
2.60819e-05
2.60933e-05
2.67769e-05
2.8147e-05
3.02609e-05
3.22537e-05
3.19075e-05
2.94564e-05
2.74391e-05
2.60823e-05
2.54127e-05
2.54194e-05
2.61012e-05
2.74715e-05
2.95018e-05
3.19557e-05
3.19209e-05
2.94747e-05
2.74519e-05
2.60901e-05
2.5418e-05
2.54224e-05
2.61025e-05
2.74718e-05
2.95016e-05
3.19546e-05
3.22248e-05
3.02439e-05
2.81357e-05
2.67729e-05
2.60993e-05
2.6102e-05
2.67809e-05
2.81482e-05
3.02604e-05
3.22503e-05
3.2804e-05
3.1814e-05
2.95283e-05
2.81432e-05
2.74672e-05
2.74691e-05
2.81487e-05
2.95368e-05
3.18245e-05
3.2824e-05
3.58281e-05
3.47884e-05
3.18312e-05
3.02544e-05
2.94966e-05
2.94981e-05
3.02586e-05
3.18381e-05
3.47966e-05
3.58457e-05
3.75365e-05
3.58545e-05
3.28232e-05
3.22478e-05
3.19512e-05
3.19519e-05
3.22495e-05
3.28249e-05
3.58523e-05
3.75431e-05
5.35603e-05
5.063e-05
4.64984e-05
4.60153e-05
4.56665e-05
4.56767e-05
4.60659e-05
4.68076e-05
5.01386e-05
5.16671e-05
5.0703e-05
4.73032e-05
4.54781e-05
4.47012e-05
4.41925e-05
4.42076e-05
4.47469e-05
4.56303e-05
4.75415e-05
5.01536e-05
4.65471e-05
4.55497e-05
4.39027e-05
4.32293e-05
4.28715e-05
4.28806e-05
4.32646e-05
4.39554e-05
4.55785e-05
4.68298e-05
4.60294e-05
4.47133e-05
4.32402e-05
4.24483e-05
4.2046e-05
4.20575e-05
4.24678e-05
4.32635e-05
4.47535e-05
4.60884e-05
4.56725e-05
4.42008e-05
4.2874e-05
4.20507e-05
4.16635e-05
4.16678e-05
4.20603e-05
4.2895e-05
4.42255e-05
4.56991e-05
4.5678e-05
4.42098e-05
4.28824e-05
4.20529e-05
4.16674e-05
4.16709e-05
4.20617e-05
4.28953e-05
4.42262e-05
4.56965e-05
4.60652e-05
4.47473e-05
4.3258e-05
4.24673e-05
4.20638e-05
4.20656e-05
4.24726e-05
4.32663e-05
4.47547e-05
4.60807e-05
4.68011e-05
4.5579e-05
4.39556e-05
4.32697e-05
4.28939e-05
4.2895e-05
4.32725e-05
4.39591e-05
4.55808e-05
4.68171e-05
5.01098e-05
4.75415e-05
4.56307e-05
4.47538e-05
4.42233e-05
4.42245e-05
4.47569e-05
4.56341e-05
4.75407e-05
5.01297e-05
5.16681e-05
5.01709e-05
4.68244e-05
4.60814e-05
4.5695e-05
4.56958e-05
4.60829e-05
4.68241e-05
5.01572e-05
5.16722e-05
4.86018e-05
4.44043e-05
4.2226e-05
4.13076e-05
4.08252e-05
4.08281e-05
4.13386e-05
4.24728e-05
4.44596e-05
4.75748e-05
4.44647e-05
4.13006e-05
4.06384e-05
4.00765e-05
3.96564e-05
3.96611e-05
4.00973e-05
4.07793e-05
4.15325e-05
4.44509e-05
4.22454e-05
4.07074e-05
3.95614e-05
3.89496e-05
3.85655e-05
3.85701e-05
3.89732e-05
3.95924e-05
4.07034e-05
4.24712e-05
4.13015e-05
4.00723e-05
3.89542e-05
3.82943e-05
3.78954e-05
3.7906e-05
3.83073e-05
3.89635e-05
4.00886e-05
4.13355e-05
4.08211e-05
3.96499e-05
3.85588e-05
3.78978e-05
3.75594e-05
3.75624e-05
3.79017e-05
3.85717e-05
3.96587e-05
4.08214e-05
4.08246e-05
3.96553e-05
3.85638e-05
3.78953e-05
3.75601e-05
3.75626e-05
3.7901e-05
3.85707e-05
3.96585e-05
4.0819e-05
4.13366e-05
4.00896e-05
3.89578e-05
3.83021e-05
3.79041e-05
3.79053e-05
3.83056e-05
3.8962e-05
4.00879e-05
4.13279e-05
4.24652e-05
4.07071e-05
3.95879e-05
3.89687e-05
3.85685e-05
3.85691e-05
3.89706e-05
3.95893e-05
4.07021e-05
4.2458e-05
4.44243e-05
4.15301e-05
4.07713e-05
4.00906e-05
3.96561e-05
3.96569e-05
4.00925e-05
4.07731e-05
4.15247e-05
4.44247e-05
4.7563e-05
4.44676e-05
4.24646e-05
4.1328e-05
4.08183e-05
4.08192e-05
4.13307e-05
4.2468e-05
4.44595e-05
4.75635e-05
3.65112e-05
3.19182e-05
3.10994e-05
3.0099e-05
2.96771e-05
2.96712e-05
3.01013e-05
3.13069e-05
3.21502e-05
3.61314e-05
3.19633e-05
2.95305e-05
2.93335e-05
2.87289e-05
2.83911e-05
2.83879e-05
2.87262e-05
2.94346e-05
2.9715e-05
3.21304e-05
3.10989e-05
2.93867e-05
2.84374e-05
2.77129e-05
2.72986e-05
2.73008e-05
2.77309e-05
2.84547e-05
2.9358e-05
3.1285e-05
3.00771e-05
2.87157e-05
2.77121e-05
2.70423e-05
2.66295e-05
2.66381e-05
2.7053e-05
2.77148e-05
2.87028e-05
3.0074e-05
2.96602e-05
2.83764e-05
2.72879e-05
2.663e-05
2.62711e-05
2.62722e-05
2.6628e-05
2.72885e-05
2.83659e-05
2.96398e-05
2.9658e-05
2.83761e-05
2.72903e-05
2.66264e-05
2.62694e-05
2.62693e-05
2.66249e-05
2.72856e-05
2.83645e-05
2.96373e-05
3.00911e-05
2.8711e-05
2.7712e-05
2.70457e-05
2.66288e-05
2.66283e-05
2.70436e-05
2.77075e-05
2.86987e-05
3.00661e-05
3.12961e-05
2.93625e-05
2.84453e-05
2.77167e-05
2.72842e-05
2.72838e-05
2.77158e-05
2.84427e-05
2.9351e-05
3.12692e-05
3.2119e-05
2.97068e-05
2.94151e-05
2.87037e-05
2.83626e-05
2.8363e-05
2.87053e-05
2.94172e-05
2.9701e-05
3.21022e-05
3.61095e-05
3.21335e-05
3.12737e-05
3.00659e-05
2.9637e-05
2.96379e-05
3.0069e-05
3.12805e-05
3.21326e-05
3.61015e-05
2.77239e-05
2.37858e-05
2.33037e-05
2.23007e-05
2.1901e-05
2.18889e-05
2.22614e-05
2.33967e-05
2.3958e-05
2.7601e-05
2.38119e-05
2.18399e-05
2.14733e-05
2.0693e-05
2.03703e-05
2.03662e-05
2.06781e-05
2.15235e-05
2.193e-05
2.39365e-05
2.32892e-05
2.15085e-05
2.04947e-05
1.95798e-05
1.91321e-05
1.91337e-05
1.95997e-05
2.05116e-05
2.14474e-05
2.33603e-05
2.22683e-05
2.06695e-05
1.95732e-05
1.87684e-05
1.83169e-05
1.83231e-05
1.87786e-05
1.95784e-05
2.06405e-05
2.22161e-05
2.18739e-05
2.03461e-05
1.91158e-05
1.83148e-05
1.78785e-05
1.78773e-05
1.83093e-05
1.91115e-05
2.03286e-05
2.18407e-05
2.18639e-05
2.03433e-05
1.91177e-05
1.83108e-05
1.78749e-05
1.7873e-05
1.83046e-05
1.91073e-05
2.03264e-05
2.18379e-05
2.22388e-05
2.06525e-05
1.95772e-05
1.8771e-05
1.83107e-05
1.83086e-05
1.87649e-05
1.95673e-05
2.06344e-05
2.22081e-05
2.33774e-05
2.1454e-05
2.05005e-05
1.95811e-05
1.91107e-05
1.91091e-05
1.95768e-05
2.0493e-05
2.1437e-05
2.33437e-05
2.393e-05
2.1922e-05
2.14993e-05
2.06474e-05
2.03315e-05
2.0331e-05
2.06461e-05
2.14979e-05
2.19121e-05
2.39069e-05
2.75749e-05
2.39399e-05
2.3357e-05
2.22157e-05
2.18439e-05
2.18444e-05
2.22171e-05
2.3363e-05
2.39375e-05
2.75627e-05
2.27924e-05
1.97878e-05
1.93218e-05
1.84306e-05
1.80635e-05
1.8053e-05
1.83719e-05
1.93152e-05
1.98429e-05
2.26718e-05
1.98181e-05
1.83494e-05
1.77722e-05
1.69483e-05
1.66423e-05
1.66431e-05
1.69417e-05
1.77977e-05
1.83633e-05
1.98313e-05
1.92989e-05
1.77976e-05
1.6814e-05
1.58798e-05
1.54642e-05
1.54659e-05
1.59034e-05
1.68368e-05
1.77185e-05
1.92742e-05
1.8393e-05
1.69214e-05
1.5871e-05
1.50422e-05
1.46127e-05
1.46164e-05
1.50502e-05
1.58819e-05
1.69005e-05
1.83267e-05
1.80293e-05
1.66133e-05
1.54448e-05
1.46087e-05
1.41661e-05
1.41645e-05
1.46039e-05
1.54449e-05
1.6608e-05
1.80089e-05
1.80186e-05
1.66124e-05
1.54444e-05
1.46024e-05
1.41615e-05
1.41605e-05
1.46e-05
1.54417e-05
1.66073e-05
1.80073e-05
1.83396e-05
1.69055e-05
1.58757e-05
1.50405e-05
1.46044e-05
1.4604e-05
1.50394e-05
1.58737e-05
1.68987e-05
1.83236e-05
1.9287e-05
1.77222e-05
1.68224e-05
1.58831e-05
1.54443e-05
1.54448e-05
1.58836e-05
1.68227e-05
1.77156e-05
1.92662e-05
1.9821e-05
1.83531e-05
1.77681e-05
1.69082e-05
1.66108e-05
1.66118e-05
1.69119e-05
1.77746e-05
1.83522e-05
1.98066e-05
2.26481e-05
1.98346e-05
1.92793e-05
1.83303e-05
1.80131e-05
1.80146e-05
1.83331e-05
1.92883e-05
1.98357e-05
2.26322e-05
2.04871e-05
1.84348e-05
1.79449e-05
1.71311e-05
1.6789e-05
1.67832e-05
1.70726e-05
1.78857e-05
1.84021e-05
2.03304e-05
1.84486e-05
1.74225e-05
1.67193e-05
1.59403e-05
1.56543e-05
1.56578e-05
1.59441e-05
1.67427e-05
1.73878e-05
1.83744e-05
1.79017e-05
1.67371e-05
1.58708e-05
1.50354e-05
1.46861e-05
1.46856e-05
1.50566e-05
1.5897e-05
1.66557e-05
1.78278e-05
1.70891e-05
1.59137e-05
1.50287e-05
1.42943e-05
1.3937e-05
1.39382e-05
1.42962e-05
1.50386e-05
1.59054e-05
1.70293e-05
1.67556e-05
1.56273e-05
1.46693e-05
1.39349e-05
1.3568e-05
1.35657e-05
1.39291e-05
1.46717e-05
1.5632e-05
1.67495e-05
1.675e-05
1.56303e-05
1.46676e-05
1.39275e-05
1.35646e-05
1.35641e-05
1.39277e-05
1.4671e-05
1.56345e-05
1.67513e-05
1.70403e-05
1.5911e-05
1.50341e-05
1.42918e-05
1.39337e-05
1.39334e-05
1.42927e-05
1.50374e-05
1.59123e-05
1.70371e-05
1.78487e-05
1.66689e-05
1.58906e-05
1.50477e-05
1.46764e-05
1.46768e-05
1.50483e-05
1.58936e-05
1.66683e-05
1.78407e-05
1.83765e-05
1.73882e-05
1.67208e-05
1.5924e-05
1.56411e-05
1.56418e-05
1.59263e-05
1.67284e-05
1.7391e-05
1.83697e-05
2.0307e-05
1.83971e-05
1.78535e-05
1.70437e-05
1.67588e-05
1.67604e-05
1.70469e-05
1.78662e-05
1.84062e-05
2.03034e-05
1.97039e-05
1.83778e-05
1.78576e-05
1.71235e-05
1.68123e-05
1.68187e-05
1.70984e-05
1.78169e-05
1.83409e-05
1.95534e-05
1.83858e-05
1.76393e-05
1.69039e-05
1.62065e-05
1.59368e-05
1.59429e-05
1.62286e-05
1.69561e-05
1.76072e-05
1.82794e-05
1.78195e-05
1.69383e-05
1.61833e-05
1.54402e-05
1.51356e-05
1.51345e-05
1.54583e-05
1.62094e-05
1.6867e-05
1.77428e-05
1.71148e-05
1.62114e-05
1.54482e-05
1.47879e-05
1.44778e-05
1.44767e-05
1.47836e-05
1.545e-05
1.62053e-05
1.70713e-05
1.68196e-05
1.59418e-05
1.51393e-05
1.44837e-05
1.41767e-05
1.41742e-05
1.44743e-05
1.51346e-05
1.59425e-05
1.68169e-05
1.68276e-05
1.59503e-05
1.51364e-05
1.44771e-05
1.41763e-05
1.41746e-05
1.44754e-05
1.51359e-05
1.59457e-05
1.68224e-05
1.71024e-05
1.6224e-05
1.54559e-05
1.47892e-05
1.44828e-05
1.44818e-05
1.47869e-05
1.54523e-05
1.62153e-05
1.7091e-05
1.77994e-05
1.68987e-05
1.62198e-05
1.54671e-05
1.51413e-05
1.514e-05
1.54621e-05
1.6214e-05
1.68866e-05
1.7781e-05
1.83296e-05
1.76282e-05
1.69514e-05
1.62306e-05
1.59505e-05
1.59485e-05
1.62255e-05
1.69467e-05
1.76161e-05
1.83048e-05
1.95554e-05
1.83324e-05
1.77934e-05
1.7094e-05
1.68265e-05
1.68255e-05
1.70906e-05
1.7797e-05
1.83402e-05
1.95512e-05
1.93994e-05
1.85211e-05
1.79967e-05
1.73547e-05
1.707e-05
1.70783e-05
1.73405e-05
1.79639e-05
1.84718e-05
1.92519e-05
1.8473e-05
1.79219e-05
1.72442e-05
1.66378e-05
1.63792e-05
1.63833e-05
1.66599e-05
1.7307e-05
1.78902e-05
1.83652e-05
1.79485e-05
1.7293e-05
1.66308e-05
1.59612e-05
1.56801e-05
1.56777e-05
1.59729e-05
1.66508e-05
1.72255e-05
1.7879e-05
1.73606e-05
1.66624e-05
1.59797e-05
1.53698e-05
1.5083e-05
1.50827e-05
1.53644e-05
1.59771e-05
1.6658e-05
1.73296e-05
1.71027e-05
1.64039e-05
1.56969e-05
1.50949e-05
1.48261e-05
1.48253e-05
1.5089e-05
1.56961e-05
1.64065e-05
1.70971e-05
1.71192e-05
1.64134e-05
1.56944e-05
1.50916e-05
1.48305e-05
1.48302e-05
1.50944e-05
1.57006e-05
1.64114e-05
1.71052e-05
1.73767e-05
1.66788e-05
1.59858e-05
1.53797e-05
1.51023e-05
1.51025e-05
1.53803e-05
1.59881e-05
1.66734e-05
1.73583e-05
1.79624e-05
1.72664e-05
1.66749e-05
1.60027e-05
1.57073e-05
1.5706e-05
1.59984e-05
1.66716e-05
1.72566e-05
1.79388e-05
1.84574e-05
1.79302e-05
1.7325e-05
1.6691e-05
1.64185e-05
1.64156e-05
1.66828e-05
1.73165e-05
1.7914e-05
1.84211e-05
1.92888e-05
1.84721e-05
1.79561e-05
1.73614e-05
1.71077e-05
1.71038e-05
1.73482e-05
1.79432e-05
1.8458e-05
1.92554e-05
1.89133e-05
1.83654e-05
1.79074e-05
1.73684e-05
1.71258e-05
1.71485e-05
1.73975e-05
1.79364e-05
1.83898e-05
1.88705e-05
1.82954e-05
1.79652e-05
1.73746e-05
1.68463e-05
1.66079e-05
1.66159e-05
1.68858e-05
1.74689e-05
1.79659e-05
1.82516e-05
1.7881e-05
1.74531e-05
1.68667e-05
1.62517e-05
1.59899e-05
1.59955e-05
1.62759e-05
1.68994e-05
1.74125e-05
1.7866e-05
1.74064e-05
1.69e-05
1.62798e-05
1.57134e-05
1.54463e-05
1.54528e-05
1.57251e-05
1.62964e-05
1.69193e-05
1.74223e-05
1.71788e-05
1.66459e-05
1.60157e-05
1.54598e-05
1.52213e-05
1.52281e-05
1.54707e-05
1.60368e-05
1.66775e-05
1.7208e-05
1.72001e-05
1.66527e-05
1.60124e-05
1.54598e-05
1.52302e-05
1.52348e-05
1.54785e-05
1.60421e-05
1.66793e-05
1.72174e-05
1.74381e-05
1.68989e-05
1.62822e-05
1.57313e-05
1.54761e-05
1.54824e-05
1.5747e-05
1.63079e-05
1.69279e-05
1.74541e-05
1.79268e-05
1.74082e-05
1.69049e-05
1.63039e-05
1.60345e-05
1.60382e-05
1.63146e-05
1.69266e-05
1.74357e-05
1.79396e-05
1.83502e-05
1.79718e-05
1.74806e-05
1.69268e-05
1.66716e-05
1.66732e-05
1.69333e-05
1.74948e-05
1.79934e-05
1.83463e-05
1.89206e-05
1.83532e-05
1.79257e-05
1.74371e-05
1.72075e-05
1.72071e-05
1.7433e-05
1.7927e-05
1.83678e-05
1.8907e-05
1.84715e-05
1.8076e-05
1.76787e-05
1.72248e-05
1.70048e-05
1.70169e-05
1.72344e-05
1.76882e-05
1.80765e-05
1.8422e-05
1.80153e-05
1.78264e-05
1.7308e-05
1.68344e-05
1.66052e-05
1.66064e-05
1.68528e-05
1.73737e-05
1.77903e-05
1.7937e-05
1.76941e-05
1.74142e-05
1.6871e-05
1.6292e-05
1.60378e-05
1.60416e-05
1.6306e-05
1.68807e-05
1.7345e-05
1.76553e-05
1.72802e-05
1.69055e-05
1.63298e-05
1.5793e-05
1.55328e-05
1.55386e-05
1.57986e-05
1.63311e-05
1.6905e-05
1.72832e-05
1.70576e-05
1.66536e-05
1.60752e-05
1.55521e-05
1.53279e-05
1.53323e-05
1.55557e-05
1.60841e-05
1.667e-05
1.70758e-05
1.70673e-05
1.66515e-05
1.60716e-05
1.55554e-05
1.53391e-05
1.53402e-05
1.55638e-05
1.60884e-05
1.66672e-05
1.708e-05
1.72782e-05
1.68793e-05
1.63267e-05
1.58163e-05
1.5569e-05
1.55712e-05
1.58215e-05
1.63391e-05
1.68994e-05
1.72969e-05
1.76816e-05
1.73254e-05
1.68956e-05
1.63463e-05
1.60877e-05
1.60879e-05
1.63471e-05
1.69047e-05
1.73469e-05
1.77037e-05
1.80175e-05
1.77912e-05
1.74057e-05
1.69091e-05
1.66643e-05
1.6664e-05
1.69077e-05
1.74078e-05
1.78063e-05
1.80245e-05
1.8441e-05
1.80139e-05
1.76848e-05
1.72776e-05
1.7066e-05
1.70678e-05
1.72787e-05
1.76913e-05
1.80446e-05
1.84609e-05
1.79597e-05
1.75795e-05
1.72664e-05
1.68999e-05
1.67138e-05
1.67249e-05
1.69134e-05
1.72828e-05
1.75995e-05
1.79443e-05
1.75628e-05
1.75012e-05
1.70545e-05
1.66379e-05
1.64315e-05
1.64352e-05
1.66625e-05
1.71291e-05
1.74794e-05
1.75011e-05
1.7338e-05
1.71905e-05
1.66902e-05
1.61505e-05
1.59118e-05
1.59205e-05
1.61752e-05
1.67078e-05
1.7129e-05
1.73121e-05
1.69856e-05
1.67291e-05
1.61952e-05
1.56885e-05
1.54398e-05
1.54493e-05
1.57001e-05
1.61978e-05
1.67254e-05
1.69885e-05
1.67789e-05
1.64904e-05
1.59553e-05
1.54607e-05
1.52488e-05
1.52533e-05
1.54629e-05
1.5958e-05
1.64959e-05
1.67855e-05
1.67844e-05
1.6487e-05
1.59558e-05
1.54678e-05
1.52611e-05
1.52608e-05
1.54698e-05
1.59604e-05
1.6488e-05
1.67827e-05
1.69737e-05
1.66987e-05
1.62015e-05
1.57215e-05
1.548e-05
1.54798e-05
1.57193e-05
1.61997e-05
1.67025e-05
1.69761e-05
1.73079e-05
1.70953e-05
1.67281e-05
1.62176e-05
1.59663e-05
1.59642e-05
1.62105e-05
1.6722e-05
1.71005e-05
1.73153e-05
1.75679e-05
1.74823e-05
1.71853e-05
1.67298e-05
1.6494e-05
1.64909e-05
1.67179e-05
1.71661e-05
1.74746e-05
1.75569e-05
1.7981e-05
1.75644e-05
1.73234e-05
1.69778e-05
1.67799e-05
1.67792e-05
1.69697e-05
1.73079e-05
1.75703e-05
1.79848e-05
1.76348e-05
1.7043e-05
1.67858e-05
1.65041e-05
1.63484e-05
1.63534e-05
1.65102e-05
1.6801e-05
1.70653e-05
1.76319e-05
1.71028e-05
1.71005e-05
1.67173e-05
1.63529e-05
1.61615e-05
1.61639e-05
1.63712e-05
1.6788e-05
1.70856e-05
1.70492e-05
1.69224e-05
1.68688e-05
1.64089e-05
1.59057e-05
1.56751e-05
1.56805e-05
1.59244e-05
1.6418e-05
1.68016e-05
1.69005e-05
1.66008e-05
1.64389e-05
1.59446e-05
1.54642e-05
1.52205e-05
1.52274e-05
1.5466e-05
1.59329e-05
1.64229e-05
1.65989e-05
1.64002e-05
1.62086e-05
1.57071e-05
1.52356e-05
1.50295e-05
1.50296e-05
1.52282e-05
1.56965e-05
1.61992e-05
1.63972e-05
1.63966e-05
1.61991e-05
1.57045e-05
1.52375e-05
1.50354e-05
1.50334e-05
1.5232e-05
1.56976e-05
1.61896e-05
1.63864e-05
1.65605e-05
1.63959e-05
1.59403e-05
1.54824e-05
1.52449e-05
1.52436e-05
1.54766e-05
1.59314e-05
1.63906e-05
1.65566e-05
1.68349e-05
1.67516e-05
1.64329e-05
1.59516e-05
1.57059e-05
1.57044e-05
1.59441e-05
1.64223e-05
1.67519e-05
1.68429e-05
1.70448e-05
1.70769e-05
1.68459e-05
1.64218e-05
1.61955e-05
1.61935e-05
1.64108e-05
1.68225e-05
1.70636e-05
1.70391e-05
1.76541e-05
1.70666e-05
1.68738e-05
1.65701e-05
1.63834e-05
1.63831e-05
1.6561e-05
1.6848e-05
1.7053e-05
1.7649e-05
1.75461e-05
1.65237e-05
1.62913e-05
1.60789e-05
1.59444e-05
1.59445e-05
1.60768e-05
1.62999e-05
1.65462e-05
1.75735e-05
1.66247e-05
1.66462e-05
1.63368e-05
1.60208e-05
1.58376e-05
1.58377e-05
1.60269e-05
1.63936e-05
1.66339e-05
1.66016e-05
1.64384e-05
1.64685e-05
1.60644e-05
1.56014e-05
1.53768e-05
1.53761e-05
1.56087e-05
1.60609e-05
1.63943e-05
1.64298e-05
1.61429e-05
1.6066e-05
1.56202e-05
1.51688e-05
1.49306e-05
1.49343e-05
1.51591e-05
1.55934e-05
1.60402e-05
1.61407e-05
1.59566e-05
1.58469e-05
1.53804e-05
1.49335e-05
1.47334e-05
1.47296e-05
1.4919e-05
1.53616e-05
1.58287e-05
1.5948e-05
1.59487e-05
1.58354e-05
1.53746e-05
1.49272e-05
1.47302e-05
1.47286e-05
1.49192e-05
1.53625e-05
1.58231e-05
1.59353e-05
1.6094e-05
1.60227e-05
1.5602e-05
1.51641e-05
1.49323e-05
1.49313e-05
1.51594e-05
1.5593e-05
1.60145e-05
1.60869e-05
1.63242e-05
1.63464e-05
1.60678e-05
1.56126e-05
1.53738e-05
1.53741e-05
1.56088e-05
1.60581e-05
1.63458e-05
1.63356e-05
1.65322e-05
1.66227e-05
1.64429e-05
1.60493e-05
1.58347e-05
1.58347e-05
1.6042e-05
1.64222e-05
1.66104e-05
1.65394e-05
1.75786e-05
1.65874e-05
1.63893e-05
1.61166e-05
1.59427e-05
1.59428e-05
1.6109e-05
1.63601e-05
1.65605e-05
1.75721e-05
1.76897e-05
1.61139e-05
1.58375e-05
1.56624e-05
1.55359e-05
1.55354e-05
1.56589e-05
1.58437e-05
1.61403e-05
1.77442e-05
1.62581e-05
1.62201e-05
1.59715e-05
1.56884e-05
1.55063e-05
1.55053e-05
1.56869e-05
1.60138e-05
1.61982e-05
1.62442e-05
1.59759e-05
1.6076e-05
1.57266e-05
1.5294e-05
1.50705e-05
1.50651e-05
1.52891e-05
1.5703e-05
1.59821e-05
1.59645e-05
1.56911e-05
1.56966e-05
1.52944e-05
1.48662e-05
1.46302e-05
1.46301e-05
1.48444e-05
1.52493e-05
1.56533e-05
1.56818e-05
1.55173e-05
1.54857e-05
1.50507e-05
1.46226e-05
1.44248e-05
1.4418e-05
1.4601e-05
1.50218e-05
1.54581e-05
1.55058e-05
1.55095e-05
1.54735e-05
1.50394e-05
1.46066e-05
1.44124e-05
1.44109e-05
1.45966e-05
1.50221e-05
1.54579e-05
1.54968e-05
1.56447e-05
1.56516e-05
1.52576e-05
1.48338e-05
1.46064e-05
1.46064e-05
1.48309e-05
1.52481e-05
1.56411e-05
1.56363e-05
1.58536e-05
1.59462e-05
1.56965e-05
1.52618e-05
1.50295e-05
1.50326e-05
1.52643e-05
1.56916e-05
1.59463e-05
1.58649e-05
1.61363e-05
1.61821e-05
1.60341e-05
1.56665e-05
1.54639e-05
1.54674e-05
1.56696e-05
1.60258e-05
1.6178e-05
1.61522e-05
1.77314e-05
1.61992e-05
1.592e-05
1.56636e-05
1.55035e-05
1.55062e-05
1.5665e-05
1.59017e-05
1.6176e-05
1.77287e-05
1.76854e-05
1.59173e-05
1.54713e-05
1.52829e-05
1.51402e-05
1.51319e-05
1.52602e-05
1.54497e-05
1.59094e-05
1.77145e-05
1.60585e-05
1.58087e-05
1.56062e-05
1.53449e-05
1.51584e-05
1.51566e-05
1.53349e-05
1.56292e-05
1.57627e-05
1.60154e-05
1.55631e-05
1.56703e-05
1.5371e-05
1.49655e-05
1.47431e-05
1.47353e-05
1.49543e-05
1.53337e-05
1.55527e-05
1.55189e-05
1.5262e-05
1.53123e-05
1.49505e-05
1.45434e-05
1.43101e-05
1.43091e-05
1.45169e-05
1.48957e-05
1.52547e-05
1.52302e-05
1.50949e-05
1.51132e-05
1.4706e-05
1.42965e-05
1.41012e-05
1.40929e-05
1.42731e-05
1.46746e-05
1.50791e-05
1.50733e-05
1.50858e-05
1.51031e-05
1.46945e-05
1.42771e-05
1.4085e-05
1.40835e-05
1.42656e-05
1.46744e-05
1.50853e-05
1.50712e-05
1.52201e-05
1.52777e-05
1.49073e-05
1.44993e-05
1.42759e-05
1.42749e-05
1.44947e-05
1.48953e-05
1.52617e-05
1.52074e-05
1.54386e-05
1.55492e-05
1.53231e-05
1.49098e-05
1.46836e-05
1.46866e-05
1.49127e-05
1.53176e-05
1.55435e-05
1.54439e-05
1.59037e-05
1.57584e-05
1.56248e-05
1.52837e-05
1.50929e-05
1.50971e-05
1.52905e-05
1.56236e-05
1.57555e-05
1.59216e-05
1.76871e-05
1.59782e-05
1.54987e-05
1.52306e-05
1.50779e-05
1.50817e-05
1.52388e-05
1.5492e-05
1.59574e-05
1.76866e-05
1.59897e-05
1.58959e-05
1.51715e-05
1.49192e-05
1.47542e-05
1.47505e-05
1.49065e-05
1.51594e-05
1.59015e-05
1.60335e-05
1.60143e-05
1.54298e-05
1.5247e-05
1.50003e-05
1.48168e-05
1.48206e-05
1.50057e-05
1.52822e-05
1.5389e-05
1.59707e-05
1.52053e-05
1.52795e-05
1.50295e-05
1.46489e-05
1.44337e-05
1.44323e-05
1.46512e-05
1.50036e-05
1.51676e-05
1.51556e-05
1.48677e-05
1.49502e-05
1.46275e-05
1.42432e-05
1.40186e-05
1.40225e-05
1.4231e-05
1.45883e-05
1.49021e-05
1.48365e-05
1.47061e-05
1.47653e-05
1.43918e-05
1.40034e-05
1.38146e-05
1.38111e-05
1.39918e-05
1.43755e-05
1.47457e-05
1.46937e-05
1.47025e-05
1.47618e-05
1.43839e-05
1.39866e-05
1.38009e-05
1.38018e-05
1.39828e-05
1.43741e-05
1.47551e-05
1.47003e-05
1.48527e-05
1.49333e-05
1.45931e-05
1.42053e-05
1.39889e-05
1.39892e-05
1.42043e-05
1.4586e-05
1.49231e-05
1.48457e-05
1.51297e-05
1.51868e-05
1.49851e-05
1.45966e-05
1.43794e-05
1.43827e-05
1.46026e-05
1.49845e-05
1.51821e-05
1.51307e-05
1.58976e-05
1.53922e-05
1.5252e-05
1.49376e-05
1.47593e-05
1.47638e-05
1.49486e-05
1.526e-05
1.53947e-05
1.5912e-05
1.60121e-05
1.59597e-05
1.5172e-05
1.48589e-05
1.47066e-05
1.47105e-05
1.48719e-05
1.51785e-05
1.59505e-05
1.60144e-05
1.1625e-05
1.60461e-05
1.5009e-05
1.46273e-05
1.44232e-05
1.44194e-05
1.46151e-05
1.49971e-05
1.6049e-05
1.1594e-05
1.61179e-05
1.51343e-05
1.49238e-05
1.46801e-05
1.44966e-05
1.45005e-05
1.46882e-05
1.49587e-05
1.50868e-05
1.60607e-05
1.49861e-05
1.49331e-05
1.47201e-05
1.43585e-05
1.41467e-05
1.41478e-05
1.43643e-05
1.46962e-05
1.48207e-05
1.49239e-05
1.45575e-05
1.46251e-05
1.4338e-05
1.39733e-05
1.37539e-05
1.37599e-05
1.39688e-05
1.43087e-05
1.45833e-05
1.45246e-05
1.43811e-05
1.44502e-05
1.41106e-05
1.37425e-05
1.35584e-05
1.35578e-05
1.37382e-05
1.41052e-05
1.44417e-05
1.43757e-05
1.43794e-05
1.44489e-05
1.41042e-05
1.37289e-05
1.35489e-05
1.35505e-05
1.37296e-05
1.41028e-05
1.44512e-05
1.43872e-05
1.45575e-05
1.46155e-05
1.43081e-05
1.39436e-05
1.37339e-05
1.3734e-05
1.39437e-05
1.43047e-05
1.46105e-05
1.45568e-05
1.49465e-05
1.48558e-05
1.4676e-05
1.4314e-05
1.41052e-05
1.41073e-05
1.43196e-05
1.46777e-05
1.48512e-05
1.49443e-05
1.60304e-05
1.50951e-05
1.49121e-05
1.46197e-05
1.44516e-05
1.44546e-05
1.46299e-05
1.4924e-05
1.50992e-05
1.60403e-05
1.1563e-05
1.60811e-05
1.49696e-05
1.45563e-05
1.43862e-05
1.43888e-05
1.45705e-05
1.49858e-05
1.60829e-05
1.15716e-05
2.53673e-05
1.59537e-05
1.49588e-05
1.43973e-05
1.41453e-05
1.41465e-05
1.43983e-05
1.49638e-05
1.59742e-05
2.519e-05
1.59628e-05
1.49089e-05
1.46158e-05
1.43687e-05
1.41924e-05
1.41983e-05
1.43875e-05
1.46655e-05
1.48764e-05
1.59212e-05
1.48863e-05
1.4618e-05
1.44302e-05
1.40878e-05
1.38837e-05
1.38892e-05
1.41024e-05
1.44193e-05
1.45248e-05
1.48393e-05
1.43257e-05
1.4328e-05
1.40767e-05
1.37333e-05
1.35217e-05
1.35305e-05
1.37401e-05
1.40647e-05
1.43049e-05
1.431e-05
1.41195e-05
1.41635e-05
1.38632e-05
1.35179e-05
1.33406e-05
1.33441e-05
1.35234e-05
1.38728e-05
1.41734e-05
1.41295e-05
1.41232e-05
1.41653e-05
1.38594e-05
1.35098e-05
1.33378e-05
1.3341e-05
1.35181e-05
1.3871e-05
1.41812e-05
1.41431e-05
1.43496e-05
1.43264e-05
1.40572e-05
1.37204e-05
1.35195e-05
1.35211e-05
1.37255e-05
1.40631e-05
1.4333e-05
1.43573e-05
1.49022e-05
1.45631e-05
1.44015e-05
1.40689e-05
1.38702e-05
1.38721e-05
1.40766e-05
1.44096e-05
1.45645e-05
1.48989e-05
1.59425e-05
1.48875e-05
1.46175e-05
1.43393e-05
1.41802e-05
1.41816e-05
1.43481e-05
1.46324e-05
1.4895e-05
1.59462e-05
2.51689e-05
1.59763e-05
1.49105e-05
1.43499e-05
1.41412e-05
1.41412e-05
1.43596e-05
1.49294e-05
1.59872e-05
2.5164e-05
7.93611e-05
1.47668e-05
1.49829e-05
1.42542e-05
1.39473e-05
1.39546e-05
1.42733e-05
1.50148e-05
1.48182e-05
7.91078e-05
1.47223e-05
1.47805e-05
1.43495e-05
1.40858e-05
1.39192e-05
1.3925e-05
1.41114e-05
1.44132e-05
1.47667e-05
1.47033e-05
1.48994e-05
1.4366e-05
1.41765e-05
1.385e-05
1.36538e-05
1.36608e-05
1.38667e-05
1.41723e-05
1.42897e-05
1.48735e-05
1.42094e-05
1.40777e-05
1.38554e-05
1.35311e-05
1.33251e-05
1.33331e-05
1.35399e-05
1.38503e-05
1.40656e-05
1.42119e-05
1.39498e-05
1.39185e-05
1.36566e-05
1.33318e-05
1.31588e-05
1.31629e-05
1.33376e-05
1.36687e-05
1.39359e-05
1.39714e-05
1.39573e-05
1.39196e-05
1.36524e-05
1.33269e-05
1.3161e-05
1.31632e-05
1.33359e-05
1.36675e-05
1.39394e-05
1.39829e-05
1.42458e-05
1.40724e-05
1.38404e-05
1.35302e-05
1.33366e-05
1.33382e-05
1.35363e-05
1.38498e-05
1.40855e-05
1.42595e-05
1.49529e-05
1.43181e-05
1.416e-05
1.38545e-05
1.36643e-05
1.36651e-05
1.38612e-05
1.41703e-05
1.43243e-05
1.49513e-05
1.477e-05
1.47731e-05
1.43738e-05
1.40914e-05
1.39366e-05
1.39357e-05
1.40958e-05
1.43867e-05
1.47825e-05
1.47681e-05
7.90889e-05
1.47788e-05
1.49496e-05
1.42456e-05
1.39773e-05
1.39746e-05
1.42495e-05
1.49681e-05
1.48015e-05
7.90736e-05
0.000186641
1.20476e-05
1.49029e-05
1.41899e-05
1.38324e-05
1.38408e-05
1.42147e-05
1.49468e-05
1.20963e-05
0.000186232
1.19435e-05
1.46892e-05
1.4126e-05
1.38238e-05
1.36639e-05
1.36686e-05
1.38502e-05
1.41954e-05
1.46875e-05
1.19203e-05
1.4834e-05
1.41693e-05
1.39379e-05
1.3623e-05
1.34343e-05
1.34408e-05
1.36378e-05
1.39347e-05
1.41013e-05
1.48216e-05
1.41817e-05
1.38551e-05
1.36482e-05
1.33392e-05
1.31372e-05
1.31427e-05
1.33438e-05
1.36406e-05
1.38433e-05
1.41911e-05
1.38626e-05
1.36966e-05
1.34641e-05
1.31562e-05
1.29856e-05
1.29875e-05
1.31554e-05
1.3468e-05
1.37072e-05
1.38815e-05
1.38703e-05
1.36958e-05
1.34603e-05
1.31551e-05
1.29925e-05
1.29918e-05
1.31579e-05
1.3468e-05
1.37061e-05
1.38878e-05
1.42167e-05
1.38443e-05
1.36394e-05
1.33521e-05
1.31632e-05
1.31628e-05
1.33531e-05
1.36426e-05
1.38513e-05
1.42264e-05
1.49016e-05
1.41225e-05
1.39382e-05
1.3654e-05
1.34694e-05
1.34674e-05
1.36539e-05
1.39412e-05
1.41236e-05
1.48964e-05
1.20363e-05
1.46961e-05
1.4181e-05
1.38659e-05
1.37082e-05
1.3704e-05
1.38611e-05
1.41826e-05
1.46978e-05
1.20177e-05
0.000186217
1.20148e-05
1.48926e-05
1.42165e-05
1.38846e-05
1.38788e-05
1.42106e-05
1.49018e-05
1.20399e-05
0.000186182
0.000364918
1.74035e-05
1.42509e-05
1.41067e-05
1.37625e-05
1.3773e-05
1.41395e-05
1.43088e-05
1.7406e-05
0.000364375
1.73377e-05
1.44753e-05
1.39537e-05
1.35898e-05
1.34335e-05
1.34387e-05
1.3619e-05
1.40305e-05
1.44896e-05
1.72599e-05
1.42161e-05
1.40263e-05
1.37121e-05
1.34065e-05
1.32283e-05
1.32356e-05
1.34238e-05
1.37144e-05
1.39694e-05
1.42282e-05
1.4139e-05
1.36526e-05
1.34454e-05
1.31523e-05
1.29574e-05
1.29624e-05
1.31564e-05
1.34388e-05
1.36431e-05
1.41564e-05
1.38136e-05
1.34868e-05
1.32743e-05
1.29835e-05
1.28181e-05
1.28187e-05
1.2979e-05
1.3273e-05
1.3492e-05
1.38286e-05
1.38198e-05
1.34842e-05
1.32721e-05
1.29861e-05
1.28287e-05
1.28264e-05
1.2985e-05
1.32738e-05
1.34866e-05
1.38283e-05
1.4167e-05
1.36358e-05
1.34441e-05
1.31781e-05
1.2995e-05
1.29935e-05
1.31756e-05
1.34423e-05
1.36378e-05
1.41718e-05
1.4291e-05
1.3977e-05
1.37299e-05
1.34608e-05
1.3282e-05
1.32781e-05
1.34554e-05
1.3726e-05
1.39741e-05
1.42834e-05
1.73407e-05
1.44998e-05
1.40433e-05
1.36641e-05
1.34968e-05
1.34904e-05
1.36514e-05
1.40329e-05
1.44922e-05
1.732e-05
0.000364374
1.73365e-05
1.42869e-05
1.41735e-05
1.38321e-05
1.38238e-05
1.41571e-05
1.4279e-05
1.73475e-05
0.000364317
0.000623352
4.63958e-05
1.25215e-05
1.37866e-05
1.3634e-05
1.36426e-05
1.38175e-05
1.25811e-05
4.63639e-05
0.00062268
4.64348e-05
1.38275e-05
1.38337e-05
1.33922e-05
1.32293e-05
1.32354e-05
1.3423e-05
1.39159e-05
1.38586e-05
4.62435e-05
1.25465e-05
1.39321e-05
1.35015e-05
1.31965e-05
1.30275e-05
1.30356e-05
1.32171e-05
1.35089e-05
1.3883e-05
1.2581e-05
1.38516e-05
1.34727e-05
1.32422e-05
1.29614e-05
1.27737e-05
1.2779e-05
1.29656e-05
1.32359e-05
1.34645e-05
1.38752e-05
1.36878e-05
1.32881e-05
1.30786e-05
1.28018e-05
1.26418e-05
1.26413e-05
1.27949e-05
1.30734e-05
1.32889e-05
1.37017e-05
1.36882e-05
1.32821e-05
1.30771e-05
1.28066e-05
1.26539e-05
1.26511e-05
1.2803e-05
1.3075e-05
1.32813e-05
1.36945e-05
1.38571e-05
1.34463e-05
1.32438e-05
1.29938e-05
1.28165e-05
1.2815e-05
1.29908e-05
1.32415e-05
1.34494e-05
1.38667e-05
1.25958e-05
1.38705e-05
1.35279e-05
1.32617e-05
1.30878e-05
1.30847e-05
1.3257e-05
1.35249e-05
1.38735e-05
1.26016e-05
4.62659e-05
1.3863e-05
1.39453e-05
1.34795e-05
1.32949e-05
1.32902e-05
1.34692e-05
1.39355e-05
1.38602e-05
4.62512e-05
0.000622674
4.63288e-05
1.26076e-05
1.38762e-05
1.3702e-05
1.36953e-05
1.38586e-05
1.25893e-05
4.63278e-05
0.000622609
0.000957999
0.000105107
1.19894e-05
1.28508e-05
1.31876e-05
1.31929e-05
1.28743e-05
1.20221e-05
0.000105074
0.000957291
0.000105234
1.24699e-05
1.37185e-05
1.32194e-05
1.30394e-05
1.30468e-05
1.32505e-05
1.38035e-05
1.25137e-05
0.000104888
1.20957e-05
1.38291e-05
1.32946e-05
1.29793e-05
1.28186e-05
1.28271e-05
1.30044e-05
1.33085e-05
1.3787e-05
1.21058e-05
1.29392e-05
1.32973e-05
1.30222e-05
1.27519e-05
1.25731e-05
1.25799e-05
1.2758e-05
1.30171e-05
1.32901e-05
1.2965e-05
1.32322e-05
1.30861e-05
1.28604e-05
1.25969e-05
1.2444e-05
1.24429e-05
1.25899e-05
1.28541e-05
1.30833e-05
1.32419e-05
1.32247e-05
1.30773e-05
1.28599e-05
1.26021e-05
1.2455e-05
1.24527e-05
1.25973e-05
1.2855e-05
1.30747e-05
1.32284e-05
1.29163e-05
1.3265e-05
1.30243e-05
1.27847e-05
1.26138e-05
1.2612e-05
1.27811e-05
1.30215e-05
1.32683e-05
1.29288e-05
1.20572e-05
1.3757e-05
1.33237e-05
1.30436e-05
1.28726e-05
1.28702e-05
1.30398e-05
1.33217e-05
1.37646e-05
1.20734e-05
0.000104898
1.25113e-05
1.38385e-05
1.3302e-05
1.30925e-05
1.30901e-05
1.32954e-05
1.38313e-05
1.25115e-05
0.000104873
0.000957251
0.000105048
1.20976e-05
1.29471e-05
1.324e-05
1.32366e-05
1.29337e-05
1.20657e-05
0.000105029
0.000957201
0.00135374
0.000203476
2.36664e-05
1.14396e-05
1.21471e-05
1.21524e-05
1.14596e-05
2.36657e-05
0.000203463
0.00135313
0.000203691
1.1477e-05
1.35272e-05
1.3073e-05
1.28752e-05
1.28838e-05
1.31062e-05
1.36179e-05
1.15174e-05
0.000203176
2.3792e-05
1.36426e-05
1.31205e-05
1.27775e-05
1.26212e-05
1.26293e-05
1.28038e-05
1.31367e-05
1.36067e-05
2.36928e-05
1.15584e-05
1.31387e-05
1.28108e-05
1.25483e-05
1.23786e-05
1.23854e-05
1.2553e-05
1.28026e-05
1.31287e-05
1.15768e-05
1.21831e-05
1.29014e-05
1.26452e-05
1.23932e-05
1.22475e-05
1.22455e-05