/*--------------------------------*- C++ -*----------------------------------*\
| =========                 |                                                 |
| \\      /  F ield         | OpenFOAM: The Open Source CFD Toolbox           |
|  \\    /   O peration     | Version:  2406                                  |
|   \\  /    A nd           | Website:  www.openfoam.com                      |
|    \\/     M anipulation  |                                                 |
\*---------------------------------------------------------------------------*/
FoamFile
{
    version     2.0;
    format      ascii;
    arch        "LSB;label=32;scalar=64";
    class       volScalarField;
    location    "150";
    object      turbulenceProperties:nut;
}
// * * * * * * * * * * * * * * * * * * * * * * * * * * * * * * * * * * * * * //

dimensions      [0 2 -1 0 0 0 0];

internalField   nonuniform List<scalar> 
25000
(
5.88723e-06
5.92844e-06
5.95433e-06
5.96718e-06
5.97281e-06
5.97281e-06
5.96719e-06
5.9545e-06
5.93058e-06
5.88721e-06
5.9305e-06
5.9674e-06
5.98827e-06
5.99985e-06
6.00547e-06
6.00547e-06
5.99998e-06
5.99342e-06
5.96747e-06
5.92851e-06
5.95446e-06
5.99338e-06
6.01086e-06
6.01852e-06
6.02378e-06
6.02381e-06
6.01921e-06
6.0109e-06
5.98831e-06
5.95436e-06
5.96717e-06
5.99996e-06
6.01919e-06
6.02997e-06
6.03447e-06
6.03491e-06
6.02999e-06
6.01854e-06
5.99987e-06
5.9672e-06
5.97281e-06
6.00546e-06
6.0238e-06
6.0349e-06
6.04155e-06
6.04156e-06
6.03448e-06
6.02379e-06
6.00548e-06
5.97281e-06
5.97281e-06
6.00547e-06
6.02379e-06
6.03448e-06
6.04156e-06
6.04157e-06
6.03448e-06
6.02379e-06
6.00548e-06
5.97281e-06
5.9672e-06
5.99987e-06
6.01854e-06
6.02999e-06
6.03492e-06
6.03492e-06
6.03e-06
6.01854e-06
5.99987e-06
5.9672e-06
5.95436e-06
5.98831e-06
6.0109e-06
6.01921e-06
6.02381e-06
6.02381e-06
6.01921e-06
6.0109e-06
5.98831e-06
5.95436e-06
5.92851e-06
5.96747e-06
5.99343e-06
5.99998e-06
6.00548e-06
6.00548e-06
5.99998e-06
5.99343e-06
5.96747e-06
5.92851e-06
5.88722e-06
5.93058e-06
5.9545e-06
5.96719e-06
5.97282e-06
5.97282e-06
5.96719e-06
5.9545e-06
5.93058e-06
5.88721e-06
5.52549e-06
5.65212e-06
5.72853e-06
5.76749e-06
5.78451e-06
5.78451e-06
5.76751e-06
5.72938e-06
5.65736e-06
5.52555e-06
5.6572e-06
5.76875e-06
5.83094e-06
5.86529e-06
5.88188e-06
5.8819e-06
5.86611e-06
5.84425e-06
5.76893e-06
5.65226e-06
5.72929e-06
5.84414e-06
5.8974e-06
5.92121e-06
5.93657e-06
5.9367e-06
5.9231e-06
5.89748e-06
5.83105e-06
5.7286e-06
5.76747e-06
5.86605e-06
5.92304e-06
5.95494e-06
5.96862e-06
5.96976e-06
5.95499e-06
5.92127e-06
5.86534e-06
5.76752e-06
5.7845e-06
5.88187e-06
5.93668e-06
5.96974e-06
5.98924e-06
5.98927e-06
5.96861e-06
5.9366e-06
5.8819e-06
5.78452e-06
5.78451e-06
5.88189e-06
5.93658e-06
5.96863e-06
5.98926e-06
5.98928e-06
5.96861e-06
5.9366e-06
5.8819e-06
5.78452e-06
5.76752e-06
5.86534e-06
5.92126e-06
5.95498e-06
5.96981e-06
5.96982e-06
5.95499e-06
5.92127e-06
5.86534e-06
5.76751e-06
5.7286e-06
5.83104e-06
5.89748e-06
5.9231e-06
5.93672e-06
5.93672e-06
5.9231e-06
5.89748e-06
5.83105e-06
5.7286e-06
5.65226e-06
5.76893e-06
5.84425e-06
5.86611e-06
5.88191e-06
5.88191e-06
5.86611e-06
5.84425e-06
5.76893e-06
5.65226e-06
5.52554e-06
5.65736e-06
5.72937e-06
5.76751e-06
5.78452e-06
5.78452e-06
5.76751e-06
5.72938e-06
5.65736e-06
5.52554e-06
5.17397e-06
5.38302e-06
5.50729e-06
5.57181e-06
5.60003e-06
5.60004e-06
5.57188e-06
5.50901e-06
5.39036e-06
5.17401e-06
5.39022e-06
5.57442e-06
5.67666e-06
5.73302e-06
5.76013e-06
5.7602e-06
5.73475e-06
5.69615e-06
5.57463e-06
5.38314e-06
5.50891e-06
5.69601e-06
5.78495e-06
5.82547e-06
5.85043e-06
5.85071e-06
5.82836e-06
5.78506e-06
5.67679e-06
5.50737e-06
5.57183e-06
5.73467e-06
5.82828e-06
5.88063e-06
5.90353e-06
5.90522e-06
5.88069e-06
5.82554e-06
5.73308e-06
5.57184e-06
5.60002e-06
5.76017e-06
5.85067e-06
5.90519e-06
5.93694e-06
5.93697e-06
5.90347e-06
5.85046e-06
5.76016e-06
5.60004e-06
5.60004e-06
5.76014e-06
5.85045e-06
5.90354e-06
5.93697e-06
5.93699e-06
5.90347e-06
5.85046e-06
5.76016e-06
5.60004e-06
5.57184e-06
5.73308e-06
5.82553e-06
5.88069e-06
5.90533e-06
5.90533e-06
5.8807e-06
5.82554e-06
5.73308e-06
5.57184e-06
5.50736e-06
5.67679e-06
5.78506e-06
5.82836e-06
5.85073e-06
5.85074e-06
5.82836e-06
5.78506e-06
5.67679e-06
5.50736e-06
5.38313e-06
5.57463e-06
5.69614e-06
5.73475e-06
5.76021e-06
5.76021e-06
5.73475e-06
5.69615e-06
5.57463e-06
5.38313e-06
5.17399e-06
5.39035e-06
5.509e-06
5.57187e-06
5.60004e-06
5.60004e-06
5.57188e-06
5.50901e-06
5.39036e-06
5.174e-06
4.83947e-06
5.12319e-06
5.29211e-06
5.38112e-06
5.42014e-06
5.42015e-06
5.38129e-06
5.29477e-06
5.132e-06
4.83946e-06
5.13189e-06
5.38508e-06
5.52576e-06
5.60327e-06
5.64045e-06
5.64059e-06
5.60599e-06
5.54996e-06
5.3853e-06
5.12326e-06
5.29468e-06
5.5498e-06
5.67379e-06
5.73126e-06
5.7654e-06
5.76585e-06
5.735e-06
5.67391e-06
5.5259e-06
5.29217e-06
5.38124e-06
5.6059e-06
5.73491e-06
5.80707e-06
5.83911e-06
5.84123e-06
5.80713e-06
5.73134e-06
5.60334e-06
5.38115e-06
5.42013e-06
5.64055e-06
5.7658e-06
5.84119e-06
5.88462e-06
5.88465e-06
5.83899e-06
5.76541e-06
5.64047e-06
5.42015e-06
5.42014e-06
5.64045e-06
5.76541e-06
5.83912e-06
5.88465e-06
5.88467e-06
5.83899e-06
5.76541e-06
5.64047e-06
5.42015e-06
5.38114e-06
5.60333e-06
5.73132e-06
5.80714e-06
5.8414e-06
5.84141e-06
5.80714e-06
5.73133e-06
5.60334e-06
5.38115e-06
5.29216e-06
5.52589e-06
5.6739e-06
5.735e-06
5.76589e-06
5.76589e-06
5.735e-06
5.67391e-06
5.5259e-06
5.29216e-06
5.12324e-06
5.38529e-06
5.54995e-06
5.60598e-06
5.6406e-06
5.6406e-06
5.60599e-06
5.54995e-06
5.3853e-06
5.12325e-06
4.83943e-06
5.13199e-06
5.29476e-06
5.38128e-06
5.42015e-06
5.42015e-06
5.38128e-06
5.29476e-06
5.13199e-06
4.83944e-06
4.52568e-06
4.87387e-06
5.08387e-06
5.196e-06
5.24528e-06
5.2453e-06
5.19631e-06
5.08749e-06
4.88375e-06
4.52566e-06
4.8837e-06
5.20101e-06
5.37829e-06
5.47607e-06
5.52285e-06
5.52311e-06
5.47977e-06
5.4061e-06
5.2012e-06
4.87392e-06
5.08742e-06
5.40595e-06
5.56397e-06
5.63845e-06
5.6814e-06
5.68202e-06
5.64291e-06
5.56409e-06
5.37842e-06
5.08393e-06
5.19627e-06
5.47968e-06
5.64282e-06
5.73418e-06
5.77523e-06
5.77769e-06
5.73424e-06
5.63852e-06
5.47613e-06
5.19603e-06
5.24529e-06
5.52307e-06
5.68198e-06
5.77764e-06
5.83222e-06
5.83224e-06
5.77504e-06
5.68138e-06
5.52286e-06
5.24529e-06
5.24529e-06
5.52286e-06
5.6814e-06
5.77524e-06
5.83225e-06
5.83226e-06
5.77504e-06
5.68137e-06
5.52286e-06
5.24529e-06
5.19602e-06
5.47612e-06
5.63851e-06
5.73425e-06
5.77792e-06
5.77793e-06
5.73425e-06
5.63852e-06
5.47613e-06
5.19602e-06
5.08392e-06
5.37841e-06
5.56407e-06
5.6429e-06
5.68208e-06
5.68208e-06
5.64291e-06
5.56408e-06
5.37841e-06
5.08392e-06
4.8739e-06
5.20118e-06
5.40608e-06
5.47975e-06
5.52312e-06
5.52312e-06
5.47976e-06
5.40608e-06
5.20119e-06
4.8739e-06
4.52562e-06
4.88372e-06
5.08746e-06
5.19629e-06
5.24529e-06
5.24529e-06
5.19629e-06
5.08747e-06
4.88373e-06
4.52562e-06
4.23208e-06
4.63493e-06
4.88249e-06
5.01631e-06
5.07535e-06
5.07539e-06
5.0168e-06
4.88699e-06
4.64553e-06
4.23202e-06
4.64552e-06
5.02189e-06
5.23399e-06
5.35125e-06
5.40724e-06
5.40762e-06
5.35589e-06
5.26455e-06
5.02203e-06
4.6349e-06
4.88694e-06
5.26443e-06
5.45541e-06
5.54686e-06
5.59832e-06
5.59912e-06
5.55193e-06
5.45551e-06
5.23409e-06
4.88248e-06
5.01676e-06
5.3558e-06
5.55185e-06
5.66187e-06
5.71178e-06
5.71449e-06
5.6619e-06
5.54691e-06
5.35129e-06
5.0163e-06
5.07536e-06
5.40758e-06
5.59907e-06
5.71445e-06
5.7797e-06
5.7797e-06
5.7115e-06
5.59824e-06
5.40721e-06
5.07532e-06
5.07534e-06
5.40723e-06
5.59831e-06
5.71178e-06
5.77973e-06
5.77973e-06
5.71149e-06
5.59824e-06
5.4072e-06
5.07532e-06
5.01631e-06
5.35129e-06
5.5469e-06
5.66193e-06
5.71479e-06
5.7148e-06
5.66192e-06
5.5469e-06
5.35128e-06
5.01628e-06
4.88248e-06
5.23408e-06
5.4555e-06
5.55192e-06
5.5992e-06
5.5992e-06
5.55192e-06
5.4555e-06
5.23407e-06
4.88246e-06
4.63489e-06
5.02201e-06
5.26453e-06
5.35586e-06
5.40763e-06
5.40763e-06
5.35586e-06
5.26453e-06
5.022e-06
4.63486e-06
4.23199e-06
4.64549e-06
4.88695e-06
5.01676e-06
5.07535e-06
5.07535e-06
5.01676e-06
4.88695e-06
4.64548e-06
4.23196e-06
3.95615e-06
4.40526e-06
4.68697e-06
4.84119e-06
4.90955e-06
4.90961e-06
4.8419e-06
4.69231e-06
4.41636e-06
3.95611e-06
4.41638e-06
4.84704e-06
5.09237e-06
5.22844e-06
5.29328e-06
5.29381e-06
5.23395e-06
5.12496e-06
4.84711e-06
4.4052e-06
4.69227e-06
5.12487e-06
5.34789e-06
5.45626e-06
5.51598e-06
5.51696e-06
5.46185e-06
5.34795e-06
5.09241e-06
4.68692e-06
4.84185e-06
5.23388e-06
5.46178e-06
5.59001e-06
5.64864e-06
5.65155e-06
5.59002e-06
5.45627e-06
5.22844e-06
4.84114e-06
4.90957e-06
5.29377e-06
5.51691e-06
5.65151e-06
5.72702e-06
5.72701e-06
5.64826e-06
5.51585e-06
5.29321e-06
4.90948e-06
4.90951e-06
5.29325e-06
5.51596e-06
5.64863e-06
5.72706e-06
5.72704e-06
5.64826e-06
5.51584e-06
5.2932e-06
4.90948e-06
4.84116e-06
5.22844e-06
5.45627e-06
5.59006e-06
5.65192e-06
5.65192e-06
5.59003e-06
5.45626e-06
5.22842e-06
4.84112e-06
4.68692e-06
5.09239e-06
5.34793e-06
5.46182e-06
5.51706e-06
5.51706e-06
5.46182e-06
5.34792e-06
5.09238e-06
4.68688e-06
4.40517e-06
4.84707e-06
5.12491e-06
5.2339e-06
5.29381e-06
5.29382e-06
5.23391e-06
5.12491e-06
4.84706e-06
4.40513e-06
3.95603e-06
4.41628e-06
4.69222e-06
4.84181e-06
4.90954e-06
4.90954e-06
4.84182e-06
4.69223e-06
4.41629e-06
3.95601e-06
3.69709e-06
4.18452e-06
4.49681e-06
4.67007e-06
4.7473e-06
4.74738e-06
4.67098e-06
4.50283e-06
4.19583e-06
3.69696e-06
4.19586e-06
4.67603e-06
4.95304e-06
5.10733e-06
5.18074e-06
5.18142e-06
5.11366e-06
4.98706e-06
4.67602e-06
4.18433e-06
4.50278e-06
4.98701e-06
5.24123e-06
5.36647e-06
5.43428e-06
5.43543e-06
5.3725e-06
5.24125e-06
4.95301e-06
4.49665e-06
4.67089e-06
5.11358e-06
5.37245e-06
5.51853e-06
5.58575e-06
5.58881e-06
5.5185e-06
5.36644e-06
5.10727e-06
4.66992e-06
4.74727e-06
5.18135e-06
5.43537e-06
5.58878e-06
5.67421e-06
5.67418e-06
5.58527e-06
5.43407e-06
5.1806e-06
4.74714e-06
4.74717e-06
5.18067e-06
5.43423e-06
5.58572e-06
5.67424e-06
5.67421e-06
5.58527e-06
5.43406e-06
5.18059e-06
4.74714e-06
4.66992e-06
5.10727e-06
5.36644e-06
5.51856e-06
5.58924e-06
5.58924e-06
5.51852e-06
5.36643e-06
5.10725e-06
4.6699e-06
4.49662e-06
4.95298e-06
5.24122e-06
5.37247e-06
5.43555e-06
5.43555e-06
5.37247e-06
5.24122e-06
4.95297e-06
4.49661e-06
4.18427e-06
4.67596e-06
4.98699e-06
5.11359e-06
5.18142e-06
5.18143e-06
5.11359e-06
4.987e-06
4.67596e-06
4.18427e-06
3.69684e-06
4.19572e-06
4.50272e-06
4.67086e-06
4.74726e-06
4.74727e-06
4.67087e-06
4.50274e-06
4.19574e-06
3.69687e-06
3.45597e-06
3.97311e-06
4.31214e-06
4.50294e-06
4.58851e-06
4.58862e-06
4.50407e-06
4.31878e-06
3.98451e-06
3.4558e-06
3.98461e-06
4.50899e-06
4.81599e-06
4.98787e-06
5.06955e-06
5.07039e-06
4.99493e-06
4.85096e-06
4.50887e-06
3.97288e-06
4.31878e-06
4.85097e-06
5.13549e-06
5.27747e-06
5.35318e-06
5.35449e-06
5.28388e-06
5.13545e-06
4.81588e-06
4.31194e-06
4.504e-06
4.99488e-06
5.28386e-06
5.44743e-06
5.5231e-06
5.52627e-06
5.44736e-06
5.27739e-06
4.98775e-06
4.50275e-06
4.58852e-06
5.07032e-06
5.35444e-06
5.52626e-06
5.6213e-06
5.62124e-06
5.52253e-06
5.35289e-06
5.06934e-06
4.58832e-06
4.58837e-06
5.06946e-06
5.35312e-06
5.52306e-06
5.62133e-06
5.62127e-06
5.52252e-06
5.35288e-06
5.06933e-06
4.58831e-06
4.50275e-06
4.98775e-06
5.27739e-06
5.44743e-06
5.52677e-06
5.52676e-06
5.44738e-06
5.27736e-06
4.98772e-06
4.50271e-06
4.3119e-06
4.81584e-06
5.1354e-06
5.28383e-06
5.35464e-06
5.35464e-06
5.28383e-06
5.1354e-06
4.81583e-06
4.31187e-06
3.97279e-06
4.50879e-06
4.85086e-06
4.99483e-06
5.07038e-06
5.07039e-06
4.99484e-06
4.85087e-06
4.50879e-06
3.97279e-06
3.45562e-06
3.98435e-06
4.31861e-06
4.5039e-06
4.58847e-06
4.58848e-06
4.50392e-06
4.31865e-06
3.98439e-06
3.45566e-06
3.23507e-06
3.77191e-06
4.13348e-06
4.34011e-06
4.43343e-06
4.43359e-06
4.34147e-06
4.14061e-06
3.78326e-06
3.23484e-06
3.78342e-06
4.34612e-06
4.68125e-06
4.87005e-06
4.95973e-06
4.96072e-06
4.87777e-06
4.7168e-06
4.34593e-06
3.77163e-06
4.14066e-06
4.71688e-06
5.03068e-06
5.18922e-06
5.2727e-06
5.27416e-06
5.19597e-06
5.0306e-06
4.68109e-06
4.13322e-06
4.34145e-06
4.87777e-06
5.19599e-06
5.37671e-06
5.4607e-06
5.46396e-06
5.37661e-06
5.18911e-06
4.8699e-06
4.33989e-06
4.43351e-06
4.96067e-06
5.27413e-06
5.46395e-06
5.56831e-06
5.56823e-06
5.46004e-06
5.27234e-06
4.95947e-06
4.43322e-06
4.43332e-06
4.95965e-06
5.27263e-06
5.46066e-06
5.56835e-06
5.56827e-06
5.46003e-06
5.27233e-06
4.95946e-06
4.43321e-06
4.33995e-06
4.86993e-06
5.18914e-06
5.37671e-06
5.46452e-06
5.46451e-06
5.37663e-06
5.18908e-06
4.86987e-06
4.33986e-06
4.13326e-06
4.68108e-06
5.03057e-06
5.19594e-06
5.27436e-06
5.27436e-06
5.19593e-06
5.03055e-06
4.68104e-06
4.13317e-06
3.77163e-06
4.34589e-06
4.71673e-06
4.87769e-06
4.96075e-06
4.96075e-06
4.87769e-06
4.71672e-06
4.34586e-06
3.77155e-06
3.23477e-06
3.78318e-06
4.14049e-06
4.34134e-06
4.43346e-06
4.43346e-06
4.34134e-06
4.14048e-06
3.78315e-06
3.23471e-06
3.03753e-06
3.58205e-06
3.96149e-06
4.18208e-06
4.28246e-06
4.28266e-06
4.18369e-06
3.96908e-06
3.59338e-06
3.03736e-06
3.59359e-06
4.1879e-06
4.54904e-06
4.75399e-06
4.85136e-06
4.85251e-06
4.76231e-06
4.5849e-06
4.18768e-06
3.58187e-06
3.9692e-06
4.58504e-06
4.92696e-06
5.10179e-06
5.19286e-06
5.19447e-06
5.10883e-06
4.92683e-06
4.54886e-06
3.9613e-06
4.18374e-06
4.76235e-06
5.10889e-06
5.30641e-06
5.39856e-06
5.40188e-06
5.30627e-06
5.10165e-06
4.75383e-06
4.18191e-06
4.28265e-06
4.8525e-06
5.19446e-06
5.4019e-06
5.5153e-06
5.51519e-06
5.39782e-06
5.19244e-06
4.85107e-06
4.28229e-06
4.28241e-06
4.8513e-06
5.19281e-06
5.39852e-06
5.51534e-06
5.51525e-06
5.39781e-06
5.19243e-06
4.85106e-06
4.28228e-06
4.18198e-06
4.75388e-06
5.1017e-06
5.30641e-06
5.40252e-06
5.4025e-06
5.30631e-06
5.10163e-06
4.75381e-06
4.18188e-06
3.96134e-06
4.54886e-06
4.92682e-06
5.10883e-06
5.19473e-06
5.19473e-06
5.10881e-06
4.92679e-06
4.54881e-06
3.96125e-06
3.58187e-06
4.18766e-06
4.58485e-06
4.76225e-06
4.85259e-06
4.85259e-06
4.76225e-06
4.58483e-06
4.18762e-06
3.58179e-06
3.03732e-06
3.59334e-06
3.969e-06
4.18359e-06
4.28258e-06
4.28258e-06
4.18359e-06
3.96899e-06
3.5933e-06
3.03725e-06
2.86906e-06
3.40527e-06
3.79698e-06
4.02937e-06
4.13602e-06
4.13628e-06
4.03123e-06
3.80495e-06
3.41649e-06
2.86893e-06
3.41671e-06
4.03481e-06
4.41954e-06
4.6398e-06
4.74453e-06
4.74583e-06
4.64863e-06
4.45551e-06
4.03459e-06
3.40517e-06
3.80512e-06
4.45568e-06
4.82441e-06
5.0152e-06
5.1137e-06
5.11544e-06
5.02249e-06
4.82426e-06
4.41937e-06
3.79688e-06
4.03134e-06
4.64873e-06
5.02259e-06
5.23655e-06
5.33669e-06
5.34006e-06
5.23638e-06
5.01504e-06
4.63966e-06
4.0293e-06
4.13635e-06
4.74586e-06
5.11546e-06
5.3401e-06
5.46228e-06
5.46215e-06
5.33589e-06
5.11323e-06
4.74424e-06
4.13594e-06
4.13605e-06
4.74451e-06
5.11367e-06
5.33667e-06
5.46234e-06
5.46223e-06
5.33589e-06
5.11323e-06
4.74423e-06
4.13593e-06
4.02935e-06
4.63971e-06
5.01511e-06
5.23656e-06
5.34079e-06
5.34076e-06
5.23645e-06
5.01503e-06
4.63965e-06
4.02929e-06
3.79691e-06
4.41938e-06
4.82427e-06
5.02253e-06
5.11579e-06
5.11578e-06
5.02251e-06
4.82424e-06
4.41935e-06
3.79686e-06
3.40517e-06
4.03459e-06
4.45549e-06
4.64862e-06
4.746e-06
4.746e-06
4.64862e-06
4.45548e-06
4.03457e-06
3.40513e-06
2.86893e-06
3.41651e-06
3.80493e-06
4.03121e-06
4.13629e-06
4.13629e-06
4.03121e-06
3.80493e-06
3.41648e-06
2.86889e-06
2.73741e-06
3.24373e-06
3.6409e-06
3.88258e-06
3.9946e-06
3.99492e-06
3.88466e-06
3.64915e-06
3.25478e-06
2.7373e-06
3.25498e-06
3.88742e-06
4.29297e-06
4.52759e-06
4.63933e-06
4.64078e-06
4.53687e-06
4.32888e-06
3.88721e-06
3.24365e-06
3.64932e-06
4.32907e-06
4.72313e-06
4.92948e-06
5.03524e-06
5.03711e-06
4.937e-06
4.72298e-06
4.29283e-06
3.64084e-06
3.88479e-06
4.537e-06
4.93712e-06
5.16714e-06
5.27511e-06
5.27852e-06
5.16695e-06
4.92932e-06
4.52749e-06
3.88257e-06
3.99501e-06
4.64084e-06
5.03715e-06
5.27859e-06
5.40928e-06
5.40914e-06
5.27426e-06
5.03474e-06
4.63905e-06
3.99459e-06
3.99466e-06
4.63934e-06
5.03523e-06
5.27511e-06
5.40937e-06
5.40924e-06
5.27428e-06
5.03474e-06
4.63905e-06
3.99459e-06
3.88258e-06
4.52754e-06
4.92941e-06
5.16718e-06
5.27934e-06
5.27931e-06
5.16706e-06
4.92933e-06
4.52749e-06
3.88258e-06
3.64085e-06
4.29284e-06
4.72301e-06
4.93709e-06
5.03756e-06
5.03755e-06
4.93707e-06
4.723e-06
4.29284e-06
3.64087e-06
3.24366e-06
3.88725e-06
4.32892e-06
4.53693e-06
4.64106e-06
4.64106e-06
4.53693e-06
4.32892e-06
3.88725e-06
3.24368e-06
2.73733e-06
3.25486e-06
3.64922e-06
3.88474e-06
3.99505e-06
3.99505e-06
3.88473e-06
3.64921e-06
3.25485e-06
2.73731e-06
2.65848e-06
3.10115e-06
3.49444e-06
3.74232e-06
3.85869e-06
3.85908e-06
3.74466e-06
3.50299e-06
3.11213e-06
2.65838e-06
3.11227e-06
3.74652e-06
4.16959e-06
4.41749e-06
4.53587e-06
4.53746e-06
4.42716e-06
4.20532e-06
3.74637e-06
3.10118e-06
3.50318e-06
4.20553e-06
4.62324e-06
4.84467e-06
4.95752e-06
4.9595e-06
4.85239e-06
4.62309e-06
4.1695e-06
3.49454e-06
3.74485e-06
4.42733e-06
4.85254e-06
5.09821e-06
5.21385e-06
5.21729e-06
5.098e-06
4.84452e-06
4.41744e-06
3.74247e-06
3.85925e-06
4.53757e-06
4.95958e-06
5.21737e-06
5.35633e-06
5.35617e-06
5.21295e-06
4.95698e-06
4.5356e-06
3.85879e-06
3.85885e-06
4.53594e-06
4.95754e-06
5.21387e-06
5.35644e-06
5.35629e-06
5.21297e-06
4.95699e-06
4.53561e-06
3.85879e-06
3.74246e-06
4.4175e-06
4.84464e-06
5.09828e-06
5.21818e-06
5.21815e-06
5.09814e-06
4.84455e-06
4.41746e-06
3.74249e-06
3.49454e-06
4.16953e-06
4.62314e-06
4.85252e-06
4.96004e-06
4.96004e-06
4.85251e-06
4.62313e-06
4.16954e-06
3.49458e-06
3.10121e-06
3.74642e-06
4.2054e-06
4.42728e-06
4.53784e-06
4.53784e-06
4.42728e-06
4.2054e-06
3.74644e-06
3.10125e-06
2.65842e-06
3.11222e-06
3.50311e-06
3.74481e-06
3.8593e-06
3.8593e-06
3.74481e-06
3.50311e-06
3.11223e-06
2.65841e-06
2.65455e-06
2.98317e-06
3.35955e-06
3.60963e-06
3.729e-06
3.72945e-06
3.61217e-06
3.36828e-06
2.99402e-06
2.65446e-06
2.99408e-06
3.61311e-06
4.04967e-06
4.30962e-06
4.43422e-06
4.43595e-06
4.31961e-06
4.08511e-06
3.613e-06
2.98319e-06
3.36842e-06
4.08529e-06
4.52479e-06
4.76081e-06
4.88055e-06
4.88263e-06
4.76869e-06
4.52466e-06
4.04961e-06
3.35964e-06
3.61234e-06
4.31979e-06
4.76885e-06
5.02976e-06
5.1529e-06
5.15635e-06
5.02954e-06
4.76066e-06
4.30959e-06
3.60978e-06
3.72962e-06
4.43607e-06
4.88273e-06
5.15645e-06
5.30346e-06
5.30328e-06
5.15195e-06
4.87997e-06
4.43394e-06
3.7291e-06
3.72918e-06
4.43431e-06
4.88059e-06
5.15294e-06
5.30359e-06
5.30342e-06
5.15199e-06
4.87998e-06
4.43395e-06
3.72911e-06
3.60979e-06
4.30966e-06
4.7608e-06
5.02987e-06
5.15733e-06
5.15729e-06
5.02971e-06
4.7607e-06
4.30962e-06
3.60982e-06
3.35968e-06
4.04966e-06
4.52473e-06
4.76887e-06
4.88327e-06
4.88327e-06
4.76885e-06
4.52473e-06
4.04967e-06
3.35973e-06
2.98329e-06
3.6131e-06
4.08523e-06
4.31979e-06
4.43642e-06
4.43642e-06
4.31978e-06
4.08523e-06
3.61311e-06
2.9833e-06
2.65447e-06
2.99412e-06
3.36845e-06
3.61238e-06
3.72975e-06
3.72975e-06
3.61236e-06
3.36842e-06
2.99412e-06
2.65446e-06
2.77261e-06
2.89955e-06
3.23937e-06
3.48584e-06
3.60648e-06
3.60699e-06
3.48857e-06
3.24825e-06
2.91027e-06
2.7724e-06
2.91031e-06
3.489e-06
3.93365e-06
4.20416e-06
4.33451e-06
4.33635e-06
4.21441e-06
3.9687e-06
3.4889e-06
2.89952e-06
3.24839e-06
3.9689e-06
4.42796e-06
4.67793e-06
4.80436e-06
4.80654e-06
4.68595e-06
4.42781e-06
3.9336e-06
3.23947e-06
3.48876e-06
4.2146e-06
4.68612e-06
4.96184e-06
5.09228e-06
5.09575e-06
4.96158e-06
4.67776e-06
4.20412e-06
3.48601e-06
3.60718e-06
4.33649e-06
4.80665e-06
5.09586e-06
5.25067e-06
5.25047e-06
5.09128e-06
4.80372e-06
4.33418e-06
3.60658e-06
3.60668e-06
4.33461e-06
4.80441e-06
5.09234e-06
5.25082e-06
5.25063e-06
5.09132e-06
4.80373e-06
4.33419e-06
3.60659e-06
3.48603e-06
4.20421e-06
4.67793e-06
4.96195e-06
5.09678e-06
5.09674e-06
4.96178e-06
4.67781e-06
4.20416e-06
3.48605e-06
3.23952e-06
3.93366e-06
4.4279e-06
4.68615e-06
4.80724e-06
4.80724e-06
4.68612e-06
4.42788e-06
3.93366e-06
3.23956e-06
2.89963e-06
3.48899e-06
3.96883e-06
4.2146e-06
4.33688e-06
4.33688e-06
4.21459e-06
3.96883e-06
3.489e-06
2.89962e-06
2.77241e-06
2.91035e-06
3.2484e-06
3.48878e-06
3.60731e-06
3.60731e-06
3.48876e-06
3.24838e-06
2.91036e-06
2.77238e-06
3.07859e-06
2.86574e-06
3.13869e-06
3.37324e-06
3.49262e-06
3.49317e-06
3.37611e-06
3.14767e-06
2.87645e-06
3.07843e-06
2.87648e-06
3.37659e-06
3.82207e-06
4.10124e-06
4.23679e-06
4.23874e-06
4.11169e-06
3.85666e-06
3.3765e-06
2.86568e-06
3.14778e-06
3.85683e-06
4.33278e-06
4.59605e-06
4.72895e-06
4.73121e-06
4.60418e-06
4.33263e-06
3.822e-06
3.13874e-06
3.37627e-06
4.11187e-06
4.60434e-06
4.89441e-06
5.032e-06
5.03546e-06
4.89414e-06
4.59586e-06
4.10118e-06
3.37335e-06
3.49333e-06
4.23887e-06
4.73132e-06
5.03558e-06
5.19798e-06
5.19777e-06
5.03094e-06
4.72824e-06
4.2364e-06
3.49265e-06
3.49278e-06
4.23689e-06
4.72899e-06
5.03206e-06
5.19814e-06
5.19795e-06
5.03099e-06
4.72825e-06
4.23641e-06
3.49267e-06
3.37339e-06
4.10129e-06
4.59605e-06
4.89455e-06
5.03656e-06
5.03651e-06
4.89435e-06
4.59591e-06
4.10122e-06
3.3734e-06
3.1388e-06
3.82207e-06
4.33274e-06
4.6044e-06
4.73198e-06
4.73197e-06
4.60437e-06
4.33272e-06
3.82207e-06
3.13884e-06
2.8658e-06
3.3766e-06
3.8568e-06
4.11191e-06
4.23933e-06
4.23932e-06
4.1119e-06
3.8568e-06
3.3766e-06
2.86577e-06
3.07837e-06
2.8765e-06
3.14782e-06
3.37633e-06
3.49351e-06
3.49351e-06
3.3763e-06
3.14778e-06
2.87651e-06
3.07835e-06
3.70795e-06
2.90464e-06
3.06492e-06
3.27518e-06
3.38968e-06
3.39028e-06
3.27821e-06
3.07402e-06
2.91549e-06
3.70741e-06
2.9155e-06
3.28017e-06
3.71581e-06
4.00117e-06
4.14123e-06
4.14328e-06
4.01178e-06
3.74992e-06
3.2801e-06
2.90451e-06
3.0741e-06
3.75006e-06
4.23944e-06
4.51521e-06
4.65433e-06
4.65668e-06
4.52342e-06
4.2393e-06
3.71575e-06
3.06495e-06
3.27833e-06
4.01192e-06
4.52357e-06
4.82751e-06
4.97205e-06
4.97552e-06
4.82723e-06
4.515e-06
4.00109e-06
3.27527e-06
3.39041e-06
4.14338e-06
4.65677e-06
4.97564e-06
5.14542e-06
5.14519e-06
4.97096e-06
4.65356e-06
4.14078e-06
3.38967e-06
3.38981e-06
4.14131e-06
4.65437e-06
4.97212e-06
5.14559e-06
5.14538e-06
4.97101e-06
4.65357e-06
4.14079e-06
3.38969e-06
3.2753e-06
4.0012e-06
4.51521e-06
4.82766e-06
4.97666e-06
4.97661e-06
4.82745e-06
4.51505e-06
4.00112e-06
3.27533e-06
3.06501e-06
3.71581e-06
4.2394e-06
4.52366e-06
4.6575e-06
4.65749e-06
4.52362e-06
4.23938e-06
3.71581e-06
3.06506e-06
2.90463e-06
3.28018e-06
3.75005e-06
4.01199e-06
4.14391e-06
4.14391e-06
4.01198e-06
3.75005e-06
3.28019e-06
2.90459e-06
3.70739e-06
2.91548e-06
3.07415e-06
3.27841e-06
3.39063e-06
3.39062e-06
3.27838e-06
3.0741e-06
2.91551e-06
3.70729e-06
4.84092e-06
3.05513e-06
3.02971e-06
3.19685e-06
3.30111e-06
3.30177e-06
3.20003e-06
3.03896e-06
3.06634e-06
4.84009e-06
3.06633e-06
3.20579e-06
3.61627e-06
3.90433e-06
4.04803e-06
4.05016e-06
3.91508e-06
3.64989e-06
3.20575e-06
3.05486e-06
3.03901e-06
3.65e-06
4.14815e-06
4.43545e-06
4.58053e-06
4.58294e-06
4.44372e-06
4.14802e-06
3.61621e-06
3.0297e-06
3.20013e-06
3.91519e-06
4.44386e-06
4.76115e-06
4.91246e-06
4.91592e-06
4.76086e-06
4.43522e-06
3.90424e-06
3.19692e-06
3.30187e-06
4.05024e-06
4.58302e-06
4.91604e-06
5.09298e-06
5.09274e-06
4.91132e-06
4.57969e-06
4.04751e-06
3.30105e-06
3.30122e-06
4.04809e-06
4.58056e-06
4.91253e-06
5.09317e-06
5.09294e-06
4.91137e-06
4.57971e-06
4.04752e-06
3.30107e-06
3.19696e-06
3.90436e-06
4.43544e-06
4.76131e-06
4.91711e-06
4.91705e-06
4.76109e-06
4.43527e-06
3.90427e-06
3.19698e-06
3.02975e-06
3.61627e-06
4.14812e-06
4.44397e-06
4.58382e-06
4.58381e-06
4.44393e-06
4.14809e-06
3.61626e-06
3.02982e-06
3.05499e-06
3.20581e-06
3.65001e-06
3.91529e-06
4.05083e-06
4.05082e-06
3.91527e-06
3.65e-06
3.20581e-06
3.05494e-06
4.84011e-06
3.0663e-06
3.03906e-06
3.20022e-06
3.30211e-06
3.3021e-06
3.20017e-06
3.03899e-06
3.06632e-06
4.84002e-06
6.87847e-06
3.3748e-06
3.05049e-06
3.14675e-06
3.23278e-06
3.23349e-06
3.1501e-06
3.05999e-06
3.38676e-06
6.87481e-06
3.38677e-06
3.16319e-06
3.52552e-06
3.81138e-06
3.95749e-06
3.9597e-06
3.82223e-06
3.55869e-06
3.16319e-06
3.37425e-06
3.06001e-06
3.55874e-06
4.0592e-06
4.35681e-06
4.50754e-06
4.51002e-06
4.36515e-06
4.0591e-06
3.52551e-06
3.05043e-06
3.15017e-06
3.82231e-06
4.36526e-06
4.69532e-06
4.85321e-06
4.85667e-06
4.69503e-06
4.35659e-06
3.81129e-06
3.1468e-06
3.23357e-06
3.95976e-06
4.51009e-06
4.85679e-06
5.04068e-06
5.04044e-06
4.85204e-06
4.50666e-06
3.95693e-06
3.23269e-06
3.23288e-06
3.95754e-06
4.50758e-06
4.85329e-06
5.04089e-06
5.04066e-06
4.85211e-06
4.50668e-06
3.95694e-06
3.23271e-06
3.14685e-06
3.81141e-06
4.35682e-06
4.69551e-06
4.8579e-06
4.85784e-06
4.69528e-06
4.35664e-06
3.81132e-06
3.14688e-06
3.05051e-06
3.52555e-06
4.0592e-06
4.36541e-06
4.51096e-06
4.51095e-06
4.36537e-06
4.05918e-06
3.52556e-06
3.05059e-06
3.37447e-06
3.16324e-06
3.5588e-06
3.82245e-06
3.96042e-06
3.96042e-06
3.82244e-06
3.55879e-06
3.16324e-06
3.37435e-06
6.87478e-06
3.38658e-06
3.06004e-06
3.15026e-06
3.23384e-06
3.23383e-06
3.15021e-06
3.05995e-06
3.38662e-06
6.87454e-06
1.02615e-05
3.96894e-06
3.15702e-06
3.13685e-06
3.19269e-06
3.19346e-06
3.14036e-06
3.16689e-06
3.98208e-06
1.02552e-05
3.9823e-06
3.16642e-06
3.44691e-06
3.7234e-06
3.87019e-06
3.87247e-06
3.73434e-06
3.47967e-06
3.16645e-06
3.96771e-06
3.16693e-06
3.47964e-06
3.97308e-06
4.2794e-06
4.43542e-06
4.43795e-06
4.28779e-06
3.97303e-06
3.44695e-06
3.15681e-06
3.14043e-06
3.73435e-06
4.28787e-06
4.63005e-06
4.79432e-06
4.79778e-06
4.62978e-06
4.2792e-06
3.72334e-06
3.13685e-06
3.19353e-06
3.87248e-06
4.438e-06
4.79789e-06
4.98854e-06
4.9883e-06
4.79314e-06
4.43451e-06
3.86961e-06
3.19257e-06
3.19278e-06
3.87019e-06
4.43545e-06
4.79441e-06
4.98877e-06
4.98853e-06
4.79321e-06
4.43452e-06
3.86962e-06
3.1926e-06
3.13694e-06
3.7234e-06
4.27943e-06
4.63028e-06
4.79906e-06
4.799e-06
4.63004e-06
4.27926e-06
3.72337e-06
3.13696e-06
3.15704e-06
3.44693e-06
3.97311e-06
4.28807e-06
4.43896e-06
4.43895e-06
4.28804e-06
3.97311e-06
3.447e-06
3.15704e-06
3.9684e-06
3.16646e-06
3.47976e-06
3.73456e-06
3.87324e-06
3.87324e-06
3.73456e-06
3.47977e-06
3.16649e-06
3.96792e-06
1.02559e-05
3.98181e-06
3.16687e-06
3.1405e-06
3.19382e-06
3.1938e-06
3.14043e-06
3.16673e-06
3.98175e-06
1.02547e-05
1.52602e-05
4.99638e-06
3.38829e-06
3.1861e-06
3.19355e-06
3.19437e-06
3.18982e-06
3.39867e-06
5.01142e-06
1.52524e-05
5.01176e-06
3.23886e-06
3.38569e-06
3.64203e-06
3.78696e-06
3.78931e-06
3.65305e-06
3.41815e-06
3.23887e-06
4.99404e-06
3.39871e-06
3.41807e-06
3.89058e-06
4.20337e-06
4.36419e-06
4.36678e-06
4.2118e-06
3.89059e-06
3.38579e-06
3.38776e-06
3.18989e-06
3.65303e-06
4.21185e-06
4.56538e-06
4.73581e-06
4.73925e-06
4.56512e-06
4.2032e-06
3.64202e-06
3.18599e-06
3.19445e-06
3.78932e-06
4.36683e-06
4.73937e-06
4.93657e-06
4.93632e-06
4.73461e-06
4.36326e-06
3.78639e-06
3.19336e-06
3.19363e-06
3.78699e-06
4.36424e-06
4.73592e-06
4.93682e-06
4.93658e-06
4.73469e-06
4.36328e-06
3.7864e-06
3.1934e-06
3.18617e-06
3.64207e-06
4.20344e-06
4.56565e-06
4.7406e-06
4.74053e-06
4.56541e-06
4.20327e-06
3.64206e-06
3.18616e-06
3.38819e-06
3.38576e-06
3.89066e-06
4.2121e-06
4.36786e-06
4.36785e-06
4.21207e-06
3.89068e-06
3.38585e-06
3.38812e-06
4.99529e-06
3.23888e-06
3.41821e-06
3.65328e-06
3.79014e-06
3.79014e-06
3.65328e-06
3.41825e-06
3.2389e-06
4.99442e-06
1.5254e-05
5.01115e-06
3.39863e-06
3.18994e-06
3.19474e-06
3.19471e-06
3.18981e-06
3.39836e-06
5.01078e-06
1.52518e-05
2.19476e-05
6.61132e-06
3.81046e-06
3.32282e-06
3.25569e-06
3.25659e-06
3.32683e-06
3.82182e-06
6.63011e-06
2.19409e-05
6.63024e-06
3.40474e-06
3.34855e-06
3.56987e-06
3.70928e-06
3.71169e-06
3.58094e-06
3.38082e-06
3.40467e-06
6.60858e-06
3.82186e-06
3.3807e-06
3.81278e-06
4.12894e-06
4.29394e-06
4.29657e-06
4.13739e-06
3.81282e-06
3.34864e-06
3.80986e-06
3.32693e-06
3.58091e-06
4.13743e-06
4.50132e-06
4.67768e-06
4.68111e-06
4.50107e-06
4.12879e-06
3.56984e-06
3.32271e-06
3.2567e-06
3.71169e-06
4.29663e-06
4.68123e-06
4.88478e-06
4.88453e-06
4.67647e-06
4.29299e-06
3.70866e-06
3.25548e-06
3.25582e-06
3.70931e-06
4.29402e-06
4.67782e-06
4.88506e-06
4.88481e-06
4.67656e-06
4.29301e-06
3.70867e-06
3.25555e-06
3.32295e-06
3.56993e-06
4.12906e-06
4.50165e-06
4.68252e-06
4.68244e-06
4.50139e-06
4.12887e-06
3.56989e-06
3.32296e-06
3.81038e-06
3.34864e-06
3.81293e-06
4.13774e-06
4.29773e-06
4.29772e-06
4.1377e-06
3.81292e-06
3.34869e-06
3.81041e-06
6.61002e-06
3.40471e-06
3.38088e-06
3.5812e-06
3.71257e-06
3.71256e-06
3.58117e-06
3.38087e-06
3.40469e-06
6.60937e-06
2.19422e-05
6.62962e-06
3.82176e-06
3.32697e-06
3.25701e-06
3.25697e-06
3.32681e-06
3.82149e-06
6.62953e-06
2.19411e-05
3.01238e-05
9.35801e-06
4.52927e-06
3.58862e-06
3.40392e-06
3.40489e-06
3.59291e-06
4.54181e-06
9.38091e-06
3.01197e-05
9.38048e-06
3.72088e-06
3.34689e-06
3.5109e-06
3.63944e-06
3.64191e-06
3.52205e-06
3.37921e-06
3.72075e-06
9.35402e-06
4.54162e-06
3.37909e-06
3.74144e-06
4.05651e-06
4.22482e-06
4.22749e-06
4.06496e-06
3.74149e-06
3.34696e-06
4.52815e-06
3.59294e-06
3.52204e-06
4.065e-06
4.43795e-06
4.61996e-06
4.62338e-06
4.4377e-06
4.05637e-06
3.51087e-06
3.58827e-06
3.40494e-06
3.64196e-06
4.22756e-06
4.62351e-06
4.83319e-06
4.83293e-06
4.61874e-06
4.22384e-06
3.63879e-06
3.40361e-06
3.40395e-06
3.63954e-06
4.22493e-06
4.62013e-06
4.8335e-06
4.83323e-06
4.61884e-06
4.22387e-06
3.63881e-06
3.4037e-06
3.58848e-06
3.51104e-06
4.05668e-06
4.43833e-06
4.62484e-06
4.62476e-06
4.43805e-06
4.05646e-06
3.51093e-06
3.58864e-06
4.52854e-06
3.34702e-06
3.74164e-06
4.06535e-06
4.22872e-06
4.2287e-06
4.0653e-06
3.7416e-06
3.34702e-06
4.52891e-06
9.35504e-06
3.72078e-06
3.37929e-06
3.52232e-06
3.64284e-06
3.64283e-06
3.52228e-06
3.37923e-06
3.72075e-06
9.35497e-06
3.0119e-05
9.37964e-06
4.54164e-06
3.59306e-06
3.40536e-06
3.40529e-06
3.59279e-06
4.54124e-06
9.37979e-06
3.01193e-05
3.93561e-05
1.34659e-05
5.66988e-06
4.04774e-06
3.68409e-06
3.68521e-06
4.05268e-06
5.6849e-06
1.34942e-05
3.93578e-05
1.34929e-05
4.25868e-06
3.39502e-06
3.47055e-06
3.58079e-06
3.5833e-06
3.48179e-06
3.42774e-06
4.25857e-06
1.34632e-05
5.68445e-06
3.4276e-06
3.67899e-06
3.98658e-06
4.15702e-06
4.15972e-06
3.99504e-06
3.67907e-06
3.39507e-06
5.6693e-06
4.05273e-06
3.48176e-06
3.99506e-06
4.37531e-06
4.56265e-06
4.56606e-06
4.37508e-06
3.98647e-06
3.47049e-06
4.04745e-06
3.68529e-06
3.58336e-06
4.1598e-06
4.56619e-06
4.78181e-06