/*--------------------------------*- C++ -*----------------------------------*\
| =========                 |                                                 |
| \\      /  F ield         | OpenFOAM: The Open Source CFD Toolbox           |
|  \\    /   O peration     | Version:  2406                                  |
|   \\  /    A nd           | Website:  www.openfoam.com                      |
|    \\/     M anipulation  |                                                 |
\*---------------------------------------------------------------------------*/
FoamFile
{
    version     2.0;
    format      ascii;
    arch        "LSB;label=32;scalar=64";
    class       volScalarField;
    location    "150";
    object      turbulenceProperties:L;
}
// * * * * * * * * * * * * * * * * * * * * * * * * * * * * * * * * * * * * * //

dimensions      [0 1 0 0 0 0 0];

internalField   nonuniform List<scalar> 
25000
(
0.0347025
0.0357806
0.0378083
0.0380702
0.0382222
0.038212
0.0380293
0.0376898
0.0360592
0.0352291
0.0357729
0.0366913
0.0383515
0.0393032
0.0397836
0.0397687
0.0392572
0.0382659
0.0365982
0.0360519
0.0377995
0.0383378
0.0397829
0.0407372
0.0412208
0.0412096
0.0407024
0.03973
0.0382713
0.037678
0.0380651
0.0392994
0.0407349
0.0417523
0.0422809
0.0422718
0.0417281
0.0406985
0.0392492
0.038014
0.0382202
0.0397822
0.0412207
0.0422807
0.0428349
0.0428292
0.0422653
0.0411965
0.0397516
0.0381914
0.0382122
0.0397699
0.0412112
0.0422743
0.0428304
0.0428267
0.0422642
0.0411962
0.0397517
0.0381921
0.038031
0.0392603
0.0407067
0.0417312
0.0422669
0.0422647
0.041725
0.0406976
0.0392495
0.038016
0.0376925
0.038278
0.0397344
0.0407013
0.0411997
0.0411983
0.0406974
0.0397286
0.0382717
0.037681
0.0360642
0.036603
0.0382682
0.0392534
0.0397551
0.0397541
0.0392507
0.038264
0.0365987
0.0360554
0.0352302
0.0360512
0.0376815
0.0380175
0.0381941
0.0381937
0.0380164
0.0376805
0.0360522
0.0352271
0.0294708
0.0303186
0.0316419
0.0318102
0.0319327
0.0319292
0.0317928
0.0315372
0.0304671
0.0300059
0.030297
0.0313743
0.0320023
0.0322819
0.0324685
0.0324629
0.0322655
0.0319499
0.0312956
0.0304622
0.0316253
0.0319781
0.0325768
0.0328315
0.0329696
0.0329661
0.0328183
0.0325572
0.031967
0.0315297
0.0318054
0.0322776
0.0328275
0.0331351
0.0332945
0.0332901
0.0331275
0.0328185
0.032263
0.031785
0.0319306
0.0324655
0.0329686
0.0332927
0.0334489
0.0334472
0.0332888
0.0329606
0.0324564
0.0319213
0.0319287
0.0324621
0.0329654
0.0332918
0.0334473
0.0334459
0.0332883
0.0329604
0.0324561
0.0319222
0.031793
0.0322653
0.0328206
0.0331277
0.0332876
0.0332869
0.0331257
0.0328175
0.0322626
0.0317877
0.0315394
0.0319669
0.0325572
0.0328163
0.032961
0.0329605
0.0328153
0.0325559
0.0319662
0.031534
0.0304755
0.0312956
0.0319497
0.032263
0.0324572
0.0324568
0.0322619
0.0319486
0.0312959
0.0304695
0.0300056
0.0304573
0.0315316
0.0317874
0.0319228
0.0319225
0.0317869
0.0315317
0.0304614
0.0300044
0.030925
0.0323601
0.0331902
0.0335608
0.0337602
0.033759
0.0335482
0.0330937
0.0323403
0.031257
0.0323385
0.0335638
0.0338427
0.0340832
0.0342653
0.0342633
0.0340745
0.0337856
0.03347
0.0323432
0.0331827
0.0338154
0.0343083
0.03458
0.0347539
0.0347518
0.0345698
0.0342949
0.0338157
0.0330943
0.0335633
0.0340851
0.0345782
0.0348793
0.0350645
0.0350597
0.0348734
0.0345738
0.0340781
0.0335495
0.0337619
0.0342681
0.0347569
0.0350635
0.035224
0.0352226
0.0350615
0.0347511
0.0342643
0.0337618
0.0337604
0.0342658
0.0347546
0.0350645
0.0352237
0.0352225
0.0350618
0.0347515
0.0342644
0.0337628
0.033549
0.0340776
0.0345764
0.0348758
0.0350606
0.03506
0.0348742
0.0345745
0.0340784
0.0335526
0.0330966
0.0338142
0.0342969
0.0345718
0.0347526
0.0347523
0.0345709
0.0342963
0.0338163
0.0330994
0.0323529
0.0334709
0.0337889
0.0340773
0.0342654
0.0342651
0.0340765
0.0337881
0.0334731
0.0323527
0.0312609
0.0323374
0.0330969
0.0335525
0.0337631
0.0337627
0.0335514
0.0330956
0.0323403
0.0312607
0.0356787
0.0381597
0.0386636
0.0393048
0.0395853
0.0395892
0.0393033
0.0385354
0.0380219
0.0358657
0.0381329
0.0396815
0.0398228
0.040245
0.0404866
0.0404889
0.0402471
0.0397559
0.0395581
0.0380335
0.038664
0.0397883
0.0404563
0.0409867
0.0412996
0.041298
0.0409737
0.040444
0.0398061
0.0385488
0.0393191
0.0402545
0.0409875
0.0414988
0.0418224
0.0418159
0.0414906
0.0409853
0.0402633
0.0393212
0.0395965
0.0404971
0.0413077
0.0418223
0.0421115
0.0421106
0.0418236
0.0413072
0.0405046
0.0396102
0.039598
0.0404973
0.0413059
0.0418249
0.0421128
0.0421129
0.0418261
0.0413094
0.0405056
0.0396118
0.03931
0.0402576
0.0409873
0.0414962
0.0418232
0.0418236
0.0414978
0.0409907
0.0402662
0.0393264
0.0385419
0.0398031
0.0404507
0.0409842
0.0413105
0.0413108
0.0409848
0.0404526
0.0398109
0.0385585
0.0380402
0.0395637
0.0397691
0.0402629
0.0405069
0.0405066
0.0402618
0.0397677
0.0395675
0.0380502
0.0358766
0.0380318
0.0385558
0.0393265
0.039612
0.0396114
0.0393244
0.0385516
0.0380323
0.0358806
0.0409583
0.0442036
0.0446585
0.0456545
0.046071
0.0460837
0.0456947
0.0445698
0.0440442
0.0410493
0.0441792
0.0461338
0.0465341
0.0474097
0.0477873
0.0477921
0.0474271
0.0464815
0.0460389
0.0440642
0.0446724
0.0464976
0.0476453
0.0487524
0.0493238
0.0493218
0.0487281
0.0476257
0.0465621
0.0446043
0.0456877
0.0474369
0.0487611
0.049805
0.0504197
0.0504114
0.0497914
0.0487543
0.04747
0.0457414
0.0460995
0.0478157
0.0493449
0.0504229
0.0510409
0.0510426
0.0504301
0.0493504
0.0478363
0.0461345
0.04611
0.047819
0.0493424
0.0504281
0.051046
0.0510488
0.0504365
0.0493558
0.0478388
0.0461375
0.045718
0.0474562
0.0487557
0.0498016
0.0504285
0.0504314
0.0498096
0.0487681
0.047477
0.0457496
0.0445881
0.0465549
0.0476386
0.0487513
0.0493514
0.0493535
0.0487566
0.0476474
0.0465734
0.0446202
0.0440701
0.0460474
0.0465075
0.0474623
0.0478329
0.0478334
0.0474638
0.0465091
0.0460577
0.0440914
0.0410688
0.0440609
0.0446075
0.0457417
0.0461312
0.0461306
0.0457403
0.0446019
0.0440631
0.0410778
0.0452038
0.048473
0.0490445
0.0502157
0.0507241
0.0507389
0.0502959
0.0490529
0.048405
0.0453239
0.0484353
0.0503267
0.0511428
0.0523773
0.0528604
0.0528591
0.0523878
0.0511076
0.0503076
0.0484198
0.0490736
0.0511077
0.0525932
0.0541259
0.0548535
0.0548505
0.0540863
0.0525576
0.0512202
0.0491051
0.050267
0.0524192
0.0541414
0.0556244
0.0564418
0.0564349
0.0556095
0.0541224
0.0524512
0.0503578
0.0507722
0.0529065
0.0548879
0.0564497
0.0573329
0.0573363
0.0564586
0.0548877
0.0529149
0.0508009
0.0507872
0.0529079
0.0548886
0.0564616
0.0573423
0.0573443
0.0564661
0.0548934
0.052916
0.0508031
0.0503401
0.0524435
0.0541331
0.0556275
0.056458
0.0564589
0.0556296
0.0541363
0.0524542
0.0503622
0.0490888
0.051215
0.0525802
0.0541209
0.0548888
0.0548881
0.05412
0.0525797
0.0512245
0.0491153
0.0484324
0.0503216
0.0511501
0.0524396
0.0529105
0.0529088
0.0524339
0.0511407
0.0503228
0.04845
0.0453476
0.0484151
0.0490985
0.0503529
0.050795
0.050793
0.0503491
0.0490871
0.0484138
0.0453635
0.047729
0.0502403
0.0508982
0.052087
0.0526136
0.0526229
0.0521761
0.0509821
0.0502838
0.0479127
0.0502204
0.0516494
0.0527241
0.0540015
0.0544958
0.0544897
0.0539952
0.052688
0.0517009
0.0503229
0.0509593
0.0526968
0.0541258
0.0556171
0.0562798
0.056281
0.0555785
0.0540813
0.0528246
0.051065
0.0521509
0.0540467
0.0556299
0.0570533
0.0577863
0.0577841
0.0570494
0.0556112
0.0540607
0.0522425
0.0526661
0.0545428
0.0563121
0.057791
0.0585762
0.0585813
0.0578025
0.0563074
0.0545345
0.0526757
0.052675
0.0545375
0.0563154
0.0578059
0.0585835
0.0585846
0.0578055
0.0563087
0.0545302
0.0526728
0.0522256
0.0540511
0.0556196
0.0570582
0.0577935
0.0577941
0.0570563
0.0556134
0.0540489
0.0522305
0.0510351
0.0528037
0.0540921
0.0555949
0.0562985
0.0562978
0.0555938
0.054087
0.0528046
0.0510465
0.05032
0.0517003
0.0527224
0.0540292
0.0545186
0.0545174
0.0540254
0.0527105
0.0516961
0.0503293
0.0479403
0.0502905
0.0510279
0.0522203
0.052661
0.0526586
0.0522155
0.0510098
0.0502781
0.0479446
0.0487357
0.0503488
0.0510364
0.0521055
0.0525817
0.0525717
0.0521437
0.0510941
0.0503975
0.048923
0.0503359
0.0513377
0.0524343
0.053552
0.0540055
0.0539952
0.0535158
0.0523534
0.0513846
0.0504841
0.0510902
0.0523809
0.0535951
0.0548766
0.0554311
0.0554332
0.054845
0.0535519
0.0524916
0.0512012
0.0521187
0.053544
0.0548628
0.056086
0.0566901
0.0566925
0.0560942
0.0548592
0.053554
0.0521852
0.0525702
0.053997
0.0554243
0.0566787
0.0572987
0.0573037
0.0566969
0.0554328
0.0539958
0.0525745
0.0525577
0.0539826
0.0554296
0.0566913
0.0572995
0.0573028
0.0566947
0.0554304
0.0539903
0.0525659
0.0521377
0.0535231
0.0548489
0.0560836
0.0566806
0.0566827
0.056088
0.0548552
0.0535375
0.0521551
0.0511197
0.0524424
0.0535347
0.0548293
0.0554206
0.055423
0.0548381
0.0535442
0.0524611
0.0511462
0.050415
0.0513539
0.0523607
0.0535124
0.0539823
0.0539856
0.0535208
0.0523679
0.0513716
0.0504492
0.0489204
0.0504093
0.0511277
0.0521504
0.0525595
0.0525611
0.0521557
0.0511225
0.0503986
0.0489257
0.0492
0.0501946
0.0508597
0.0517699
0.0521926
0.0521799
0.051791
0.0509053
0.050259
0.0493882
0.0502573
0.0509436
0.0519166
0.0528519
0.0532682
0.0532616
0.0528167
0.0518213
0.0509886
0.0504073
0.0509271
0.0518423
0.0528652
0.0539683
0.0544544
0.0544586
0.053949
0.0528335
0.0519448
0.0510269
0.051761
0.0528129
0.0539375
0.0550081
0.055535
0.0555359
0.0550178
0.0539414
0.0528198
0.0518075
0.0521427
0.0532281
0.0544253
0.0555135
0.056024
0.0560255
0.0555241
0.0544266
0.0532239
0.0521512
0.0521175
0.0532127
0.0544295
0.0555193
0.0560156
0.056016
0.0555141
0.0544188
0.053216
0.0521388
0.0517372
0.0527868
0.0539268
0.0549904
0.0555
0.0554995
0.0549892
0.0539229
0.0527954
0.0517645
0.0509084
0.0518832
0.0527952
0.0538987
0.0544073
0.0544095
0.0539059
0.0528005
0.0518979
0.0509418
0.0502812
0.0509318
0.0517945
0.0527676
0.0532045
0.0532092
0.0527805
0.0518071
0.0509549
0.0503307
0.049341
0.0502587
0.0509163
0.0517598
0.052135
0.052141
0.0517795
0.0509346
0.0502778
0.0493838
0.0499259
0.0504581
0.0510147
0.0517678
0.0521218
0.0520874
0.0517242
0.0509722
0.0504214
0.0499825
0.0505512
0.0508998
0.051727
0.0525248
0.0528995
0.0528866
0.0524632
0.0515854
0.0508989
0.0506153
0.051051
0.0516087
0.0524922
0.05348
0.0539197
0.0539104
0.0534404
0.0524414
0.0516707
0.0510738
0.051711
0.0524412
0.053434
0.0543982
0.0548727
0.0548615
0.0543779
0.0534065
0.0524113
0.0516877
0.0520413
0.052839
0.0538763
0.054849
0.0552864
0.055274
0.0548294
0.0538408
0.0527888
0.0519973
0.0520091
0.0528282
0.0538818
0.0548487
0.0552703
0.0552619
0.0548157
0.0538319
0.052786
0.051983
0.0516642
0.0524429
0.0534298
0.0543672
0.0548202
0.0548091
0.0543401
0.0533877
0.0523979
0.0516405
0.0509872
0.0516771
0.052433
0.0533945
0.0538447
0.0538385
0.053377
0.0523993
0.0516363
0.050969
0.0504791
0.0508905
0.0515681
0.0523995
0.0527982
0.0527957
0.0523895
0.0515472
0.05086
0.0504845
0.0499164
0.0504717
0.0509874
0.0516655
0.0519979
0.0519985
0.0516715
0.0509855
0.0504516
0.0499344
0.050627
0.0509214
0.0513792
0.0520071
0.0523263
0.0523077
0.0519922
0.0513636
0.0509167
0.050695
0.0510031
0.051121
0.0518357
0.0525469
0.0529051
0.0529032
0.0525179
0.0517346
0.0511729
0.0511184
0.0513551
0.0516744
0.0524855
0.0534112
0.0538356
0.0538293
0.0533884
0.0524704
0.0517803
0.0514133
0.0519233
0.0524359
0.0533495
0.0542566
0.0547151
0.054705
0.0542469
0.0533473
0.0524371
0.0519192
0.0522453
0.0528282
0.053773
0.0546814
0.0550889
0.055081
0.0546747
0.0537581
0.0528021
0.0522175
0.0522304
0.0528315
0.0537789
0.0546754
0.0550688
0.0550669
0.0546605
0.0537509
0.0528066
0.052211
0.0519266
0.052477
0.0533544
0.0542166
0.0546517
0.0546479
0.0542077
0.0533342
0.0524457
0.0518986
0.051375
0.0518095
0.0524473
0.0533225
0.0537522
0.0537518
0.0533213
0.0524331
0.0517776
0.051343
0.051004
0.0511715
0.0516871
0.0524303
0.0528111
0.0528116
0.0524325
0.051684
0.0511499
0.0509942
0.0506689
0.0510051
0.0513686
0.0519273
0.0522324
0.0522296
0.0519257
0.0513593
0.0509617
0.0506417
0.0514531
0.0517054
0.0520319
0.0525344
0.0528044
0.0527868
0.052513
0.0520048
0.0516711
0.0514753
0.0517251
0.0516228
0.0522322
0.0528624
0.0531875
0.0531816
0.0528228
0.0521144
0.051655
0.051821
0.051922
0.0520212
0.0527709
0.0536434
0.0540458
0.0540311
0.0536024
0.0527431
0.0521185
0.0519632
0.0524012
0.0527176
0.0535694
0.0544334
0.0548754
0.0548587
0.0544133
0.053565
0.0527238
0.0523973
0.0527018
0.0530925
0.0539721
0.0548385
0.0552271
0.055219
0.0548343
0.0539676
0.0530836
0.0526915
0.0526933
0.0530981
0.0539712
0.0548258
0.0552048
0.0552054
0.0548222
0.0539635
0.0530964
0.052696
0.0524201
0.052766
0.0535588
0.0543763
0.0548045
0.0548047
0.0543801
0.0535618
0.05276
0.0524164
0.0519695
0.0521699
0.0527111
0.0535324
0.0539536
0.0539571
0.0535441
0.0527207
0.052162
0.0519584
0.0517225
0.0516508
0.0520291
0.0527164
0.0530866
0.0530917
0.0527351
0.0520583
0.0516621
0.0517387
0.0514227
0.0517227
0.0519438
0.0524132
0.0527003
0.0527014
0.0524259
0.0519672
0.0517141
0.0514173
0.052024
0.0525895
0.052821
0.053196
0.0534209
0.0534127
0.0531857
0.0527943
0.0525494
0.0520285
0.0524917
0.0522589
0.0527729
0.0533298
0.0536358
0.0536317
0.0532991
0.0526565
0.0522818
0.05258
0.0526046
0.0525302
0.0532252
0.0540547
0.0544509
0.0544416
0.0540229
0.0532104
0.0526403
0.0526415
0.0530404
0.0531893
0.0539887
0.054824
0.0552657
0.0552535
0.0548207
0.0540084
0.053216
0.0530439
0.0533364
0.0535577
0.0543954
0.0552386
0.0556245
0.0556241
0.0552518
0.0544139
0.0535734
0.0533414
0.0533424
0.0535735
0.0544
0.0552351
0.0556135
0.0556173
0.0552449
0.054412
0.0535893
0.053359
0.0531054
0.0532598
0.053996
0.0547917
0.0552218
0.0552242
0.054802
0.054011
0.0532684
0.0531117
0.052744
0.0527188
0.0531863
0.0539768
0.0543976
0.0544002
0.0539895
0.0532035
0.0527183
0.0527315
0.0525868
0.0522951
0.052566
0.0532169
0.0535794
0.0535827
0.0532349
0.0526025
0.0523155
0.0525956
0.0519956
0.0525474
0.0526803
0.0530894
0.0533637
0.0533643
0.053104
0.0527207
0.0525684
0.0520032
0.0522208
0.0534889
0.0536725
0.0539358
0.0541282
0.0541279
0.0539386
0.0536547
0.0534459
0.0521801
0.0533196
0.0530074
0.053404
0.0538913
0.0541897
0.0541894
0.0538799
0.0533052
0.0530271
0.0533631
0.0534283
0.0531838
0.0537988
0.0545808
0.0549763
0.0549775
0.0545677
0.0538047
0.0533103
0.0534457
0.053828
0.0538142
0.0545476
0.0553533
0.0557969
0.0557901
0.055371
0.0545948
0.0538586
0.0538324
0.0541073
0.0541736
0.0549698
0.0557916
0.0561769
0.056184
0.0558184
0.0550034
0.054205
0.0541221
0.0541208
0.0541935
0.0549803
0.0558033
0.056183
0.056186
0.0558181
0.0550018
0.0542145
0.0541437
0.0539104
0.053888
0.0545796
0.0553619
0.0557938
0.0557957
0.0553705
0.0545954
0.0539017
0.0539223
0.0536184
0.0533883
0.0537931
0.054561
0.0549817
0.0549811
0.0545676
0.0538093
0.0533893
0.0535996
0.0534751
0.053045
0.0532251
0.0538421
0.0541945
0.0541944
0.0538544
0.0532587
0.0530646
0.0534633
0.0521725
0.0533795
0.0535082
0.0538718
0.054131
0.0541308
0.0538846
0.053556
0.0534228
0.0521821
0.0520117
0.0542396
0.054496
0.0546941
0.0548745
0.0548754
0.0546991
0.0544813
0.054188
0.0519318
0.0539914
0.0537443
0.0540351
0.0544733
0.054776
0.0547775
0.0544746
0.0539563
0.0537806
0.0540216
0.0542553
0.0538518
0.0543815
0.0551293
0.0555329
0.0555428
0.0551379
0.0544224
0.0540173
0.0542788
0.054643
0.0544577
0.0551283
0.0559126
0.0563644
0.0563648
0.0559537
0.0552101
0.0545344
0.0546602
0.0549072
0.0548122
0.0555695
0.0563792
0.0567712
0.0567847
0.0564207
0.0556229
0.0548614
0.0549277
0.0549213
0.0548339
0.0555904
0.05641
0.0567958
0.0567987
0.0564292
0.0556224
0.0548618
0.0549437
0.054725
0.0545373
0.055195
0.0559737
0.0564106
0.0564104
0.0559791
0.0552122
0.0545558
0.0547395
0.0544683
0.054078
0.0544337
0.0551871
0.0556085
0.0556029
0.0551827
0.0544422
0.0540779
0.0544488
0.0542019
0.0538074
0.053922
0.05451
0.0548507
0.0548445
0.0545046
0.053936
0.0538142
0.0541752
0.0519505
0.0540895
0.0543505
0.0546909
0.0549317
0.0549268
0.0546885
0.0543817
0.0541282
0.0519546
0.051922
0.0546321
0.0551984
0.0554185
0.0556305
0.0556455
0.0554585
0.0552323
0.054638
0.0518794
0.0543837
0.0544878
0.0546914
0.0550968
0.055414
0.0554169
0.0551129
0.0546424
0.0545672
0.0544645
0.0550306
0.0545708
0.0550173
0.0557354
0.0561481
0.0561629
0.0557558
0.0550842
0.0547854
0.0551136
0.0554552
0.0551536
0.0557629
0.0565294
0.0569897
0.0569918
0.056581
0.0558659
0.0552593
0.0555142
0.0557136
0.0554963
0.0562188
0.0570168
0.0574161
0.0574331
0.0570636
0.0562791
0.0555595
0.0557537
0.0557305
0.0555153
0.056241
0.0570556
0.0574492
0.0574522
0.0570786
0.0562796
0.0555481
0.0557576
0.0555327
0.0552178
0.055844
0.0566154
0.0570581
0.05706
0.0566244
0.0558666
0.0552467
0.0555558
0.0552569
0.0547916
0.0551032
0.055839
0.0562617
0.0562561
0.0558336
0.0551131
0.0548017
0.0552473
0.0546554
0.0545748
0.0546502
0.0552051
0.0555337
0.0555259
0.0551929
0.0546523
0.0545797
0.0546248
0.0519196
0.0545201
0.0551449
0.0555124
0.0557449
0.0557379
0.0554974
0.0551568
0.0545556
0.0519204
0.0543885
0.0546938
0.0557988
0.0561415
0.0563998
0.0564066
0.056164
0.0558157
0.0546763
0.0543142
0.0544833
0.0552032
0.055363
0.0557459
0.0560644
0.0560568
0.0557337
0.055289
0.0552764
0.0545657
0.0557313
0.0552939
0.0556512
0.0563401
0.0567501
0.0567526
0.0563351
0.0556993
0.0555076
0.055828
0.0562371
0.055837
0.0563807
0.0571227
0.0575783
0.0575702
0.0571472
0.0564572
0.0559293
0.0562977
0.0564916
0.0561616
0.0568324
0.0576095
0.0580061
0.0580134
0.0576334
0.0568649
0.0561994
0.0565158
0.0564988
0.0561687
0.0568481
0.0576441
0.058035
0.0580329
0.0576518
0.0568676
0.0561816
0.056503
0.0562669
0.0558708
0.0564477
0.057199
0.0576394
0.0576386
0.0572009
0.0564616
0.05589
0.0562802
0.0558758
0.0554726
0.0557337
0.0564404
0.0568569
0.0568503
0.0564289
0.0557347
0.0554811
0.0558738
0.0546909
0.0552705
0.0553436
0.0558606
0.0561731
0.0561645
0.0558401
0.0553292
0.055266
0.0546661
0.0543505
0.0545764
0.0557923
0.0562538
0.0564906
0.0564831
0.0562291
0.0557805
0.0545921
0.0543467
0.063445
0.0544087
0.056146
0.056749
0.0570906
0.0570979
0.0567711
0.0561624
0.0543961
0.0635301
0.0542797
0.0557878
0.0559929
0.0563731
0.0566979
0.0566899
0.056355
0.0559163
0.0558757
0.0543841
0.056183
0.0559642
0.0562477
0.0569144
0.0573271
0.0573249
0.056902
0.0562935
0.0561875
0.0563058
0.0568834
0.0564765
0.0569542
0.0576733
0.0581293
0.0581167
0.0576826
0.0570134
0.0565599
0.0569493
0.0571737
0.0567884
0.0574003
0.0581534
0.0585496
0.0585509
0.0581624
0.0574115
0.0568056
0.0571848
0.0571775
0.0567914
0.0574135
0.0581821
0.0585703
0.0585668
0.0581807
0.0574164
0.0567869
0.0571621
0.0568849
0.0564975
0.0570146
0.0577347
0.0581716
0.0581713
0.0577346
0.0570214
0.0565072
0.0568863
0.0562631
0.0561211
0.0563323
0.0570019
0.0574112
0.0574069
0.0569909
0.056329
0.0561298
0.0562673
0.0544354
0.0558601
0.0560037
0.0564868
0.0567855
0.0567796
0.0564672
0.0559812
0.0558527
0.0544187
0.0636151
0.0543417
0.0562139
0.0568856
0.0571636
0.0571583
0.056858
0.0561835
0.0543387
0.0635916
0.042804
0.0544644
0.0562631
0.0572445
0.057694
0.0576912
0.0572406
0.0562477
0.0544224
0.0429544
0.0544419
0.0562487
0.0566159
0.057006
0.0573224
0.0573101
0.0569658
0.0565073
0.0563101
0.0545201
0.0563938
0.0565989
0.0568269
0.0574675
0.0578732
0.0578616
0.0574366
0.0568482
0.056793
0.0564893
0.0573855
0.0570838
0.0574891
0.0581776
0.0586268
0.0586076
0.0581631
0.0575145
0.0571329
0.057419
0.0577462
0.0573803
0.0579158
0.0586349
0.0590243
0.0590166
0.058623
0.0578961
0.057361
0.0577262
0.057739
0.0573771
0.0579239
0.0586525
0.0590303
0.0590233
0.0586345
0.0578999
0.0573452
0.0576983
0.0573396
0.05709
0.0575299
0.058205
0.0586314
0.0586279
0.0581942
0.0575178
0.0570769
0.0573241
0.05637
0.0567182
0.0568834
0.0575051
0.0579012
0.0578971
0.0574893
0.0568674
0.0567156
0.0563762
0.0544837
0.0562891
0.0566
0.0570613
0.0573464
0.0573436
0.0570438
0.0565712
0.0562749
0.0544773
0.0429724
0.0544189
0.056348
0.0573372
0.0577017
0.0577018
0.0573178
0.0563124
0.0544002
0.0429766
0.0243135
0.0564297
0.0562043
0.0575611
0.0581398
0.0581243
0.0575206
0.0561384
0.0563259
0.024352
0.0565091
0.0565173
0.0571754
0.057603
0.0579046
0.057892
0.0575474
0.0570353
0.0565437
0.0565517
0.0563553
0.0571287
0.0573521
0.057969
0.0583655
0.0583502
0.0579329
0.0573605
0.057295
0.0564105
0.0576498
0.0576161
0.0579566
0.0586142
0.0590588
0.059041
0.0585951
0.0579684
0.0576444
0.0576467
0.0581341
0.0579055
0.0583591
0.0590438
0.0594295
0.0594203
0.059031
0.0583337
0.05787
0.0580896
0.058119
0.0579037
0.0583685
0.0590547
0.0594247
0.0594198
0.0590348
0.0583363
0.0578628
0.0580657
0.0575782
0.0576304
0.0579891
0.0586159
0.0590331
0.0590295
0.0586028
0.0579695
0.0576037
0.0575504
0.0562605
0.057238
0.0573855
0.0579585
0.0583426
0.0583409
0.0579445
0.0573646
0.0572257
0.0562636
0.0564237
0.0565315
0.0571132
0.0575882
0.0578678
0.0578696
0.0575792
0.0570876
0.0565134
0.0564273
0.0243549
0.0564011
0.0562605
0.0575764
0.0580768
0.0580824
0.0575687
0.0562258
0.0563577
0.0243572
0.0161873
0.0622369
0.0562884
0.0576976
0.0584042
0.0583861
0.057645
0.0561998
0.0621079
0.0162043
0.0625039
0.0566906
0.0576608
0.0581756
0.0584675
0.0584568
0.0581163
0.0575048
0.056694
0.0625688
0.056413
0.0575579
0.0578617
0.0584619
0.0588485
0.058834
0.0584288
0.0578683
0.0577113
0.0564427
0.0577121
0.058106
0.0584067
0.0590385
0.0594814
0.0594689
0.0590284
0.0584242
0.0581346
0.0576952
0.0583401
0.058397
0.0587831
0.0594384
0.0598241
0.0598199
0.0594404
0.0587749
0.0583753
0.058301
0.0583244
0.0583994
0.0587917
0.059441
0.0598083
0.05981
0.0594347
0.0587751
0.0583777
0.0582878
0.0576431
0.0581325
0.0584267
0.05901
0.0594225
0.0594234
0.0590078
0.05842
0.0581178
0.0576235
0.0562908
0.0576681
0.057861
0.0583942
0.0587714
0.0587757
0.0583943
0.0578548
0.0576658
0.0563006
0.0622662
0.0566773
0.057534
0.0580833
0.0583721
0.0583809
0.0580934
0.0575307
0.0566742
0.0623147
0.0162051
0.0623183
0.0563019
0.0576414
0.0582936
0.0583059
0.0576533
0.0562848
0.0622532
0.0162065
0.0120589
0.0516761
0.0574354
0.0578375
0.0585518
0.058529
0.0577682
0.057314
0.0516725
0.0120671
0.0517742
0.0570663
0.0580451
0.0587042
0.0589929
0.0589807
0.0586369
0.0578702
0.0570379
0.0518907
0.0575007
0.0578789
0.0583587
0.0589455
0.0593146
0.0592978
0.0589061
0.058354
0.0580125
0.0574815
0.0577691
0.0585648
0.0588586
0.0594621
0.0598954
0.0598837
0.0594528
0.0588747
0.0585893
0.057736
0.058443
0.0588754
0.0592113
0.059835
0.0602139
0.0602126
0.0598456
0.0592147
0.0588651
0.0584118
0.0584304
0.0588819
0.0592165
0.059829
0.0601892
0.0601945
0.0598318
0.0592129
0.0588769
0.0584125
0.0577143
0.058605
0.0588632
0.0594038
0.0598084
0.0598119
0.0594094
0.0588671
0.0586006
0.0577045
0.0573547
0.0579967
0.0583209
0.058825
0.059194
0.0592026
0.0588368
0.0583291
0.0580027
0.0573701
0.0517696
0.0570181
0.0578438
0.0585401
0.0588534
0.0588672
0.0585673
0.0578653
0.057033
0.0518005
0.0120673
0.051776
0.057358
0.0576989
0.0584037
0.0584212
0.0577322
0.057374
0.0517595
0.012068
0.00978822
0.0317636
0.0610956
0.0584279
0.058791
0.058772
0.0583605
0.060947
0.0317769
0.00979292
0.0317526
0.0583001
0.058315
0.0591648
0.0594734
0.0594588
0.0590922
0.0581264
0.0582346
0.0318155
0.0610309
0.0580926
0.0588358
0.0594279
0.0597807
0.0597618
0.0593796
0.0588198
0.0582114
0.0609513
0.0582886
0.0589831
0.0593232
0.0599047
0.0603278
0.0603152
0.0598951
0.0593392
0.0590057
0.0582413
0.0586747
0.0593407
0.0596634
0.0602613
0.0606331
0.0606343
0.0602779
0.059676
0.05934
0.0586457
0.0586744
0.059355
0.0596672
0.0602504
0.0606041
0.0606107
0.0602589
0.0596723
0.0593571
0.0586609
0.0582792
0.0590455
0.0593216
0.05983
0.0602267
0.0602303
0.0598368
0.0593267
0.0590387
0.058259
0.0609152
0.0582377
0.0587784
0.0592796
0.0596422
0.0596493
0.0592903
0.0587847
0.0582312
0.0609012
0.031808
0.0582253
0.0580649
0.0589682
0.0593252
0.0593357
0.0589908
0.0580854
0.0582312
0.0318129
0.00979308
0.0317889
0.0608829
0.0582369
0.058644
0.0586586
0.058274
0.0609272
0.0317892
0.0097935
0.00848467
0.0214322
0.0622827
0.0603903
0.0596981
0.0596856
0.0603333
0.0621967
0.0214389
0.0084875
0.0214226
0.0612532
0.0585602
0.0595757
0.0599314
0.0599134
0.0595008
0.0583634
0.061146
0.021454
0.0620071
0.0583094
0.0593158
0.0599394
0.0602782
0.0602576
0.0598795
0.0592847
0.0584147
0.0619825
0.0601818
0.059396
0.0598386
0.0604023
0.0608114
0.0607947
0.0603879
0.0598523
0.059417
0.0601238
0.0595968
0.0598232
0.0601797
0.0607536
0.0611144
0.061117
0.060771
0.0601951
0.059831
0.0595756
0.0596144
0.0598443
0.0601812
0.0607415
0.0610873
0.0610931
0.0607531
0.0601928
0.0598505
0.0596061
0.0602369
0.0594731
0.0598356
0.0603247
0.0607129
0.0607173
0.0603332
0.0598421
0.0594658
0.0602077
0.0621073
0.0584781
0.0592508
0.0597892
0.0601508
0.0601563
0.0597981
0.0592552
0.058462
0.0620657
0.021453
0.0611517
0.0582895
0.0593855
0.0598083
0.0598138
0.0594002
0.0583046
0.0611514
0.0214557
0.00848762
0.0214414
0.0620023
0.0601634
0.0595791
0.0595868
0.0601946
0.0620842
0.0214433
0.00848787
0.00771889
0.0159038
0.0443467
0.0638479
0.0620758
0.0620619
0.063791
0.0443488
0.015908
0.00772074
0.015899
0.0636973
0.0589485
0.059927
0.0603363
0.060315
0.0598457
0.0587359
0.0635855
0.0159151
0.0442309
0.0586828
0.0597307
0.0604285
0.0607611
0.060741
0.0603642
0.0596937
0.0587759
0.0443219
0.0635178
0.0597716
0.0603476
0.0608989
0.0612925
0.0612753
0.0608876
0.0603691
0.0597998
0.0634687
0.0619834
0.0602738
0.0607029
0.0612558
0.0616046
0.0616095
0.0612788
0.0607293
0.0602943
0.0619709
0.0620201
0.0602987
0.0607085
0.0612527
0.0615899
0.061596
0.06127
0.0607318
0.0603148
0.0620203
0.0636671
0.0598582
0.0603574
0.0608473
0.0612279
0.0612333
0.0608595
0.0603723
0.0598597
0.0636449
0.0443472
0.058866
0.059681
0.0603158
0.0606864
0.0606902
0.0603236
0.0596881
0.0588521
0.0443455
0.0159143
0.0635787
0.058672
0.0597758
0.0602723
0.0602729
0.0597815
0.0586833
0.0635985
0.0159158
0.00772082
0.0159088
0.0442921
0.0635628
0.061982
0.0619808
0.0635842
0.0443245
0.01591
0.00772095
0.00726646
0.0127271
0.029599
0.0581414
0.0647213
0.0647452
0.0581923
0.0296081
0.012731
0.00726781
0.0127253
0.0523779
0.0597592
0.0602569
0.0607073
0.0606951
0.0602065
0.0595877
0.052463
0.0127343
0.0295717
0.0595193
0.0600491
0.0608831
0.0612349
0.0612288
0.0608467
0.0600441
0.0596479
0.0296285
0.0579685
0.0601703
0.0608385
0.0613939
0.0617804
0.0617715
0.0614102
0.060898
0.0602355
0.0580705
0.0647125
0.0607141
0.061234
0.0617708
0.062111
0.0621243
0.0618122
0.0612854
0.0607664
0.0647817
0.0647859
0.0607418
0.0612472
0.0617843
0.0621158
0.0621242
0.0618142
0.0612899
0.0607778
0.0648407
0.0581649
0.0602567
0.0608755
0.0613897
0.0617671
0.0617763
0.061411
0.0609045
0.0602795
0.0581835
0.029628
0.0597148
0.0600348
0.0608386
0.0612363
0.0612409
0.060851
0.0600533
0.0597202
0.0296282
0.0127341
0.0524321
0.0595252
0.0601871
0.0607276
0.0607264
0.0601911
0.0595411
0.0524546
0.0127349
0.007268
0.0127317
0.0296041
0.0580974
0.0647783
0.0647711
0.0581116
0.0296144
0.0127326
0.00726803
0.00700508
0.0108254
0.021373
0.0411821
0.0561484
0.0561612
0.0411909
0.0213741
0.010828
0.00700594
0.0108248
0.03678
0.0614201
0.0607412
0.0611168
0.0611048
0.0606877
0.0612432
0.0368254
0.0108293
0.0213619
0.0612177
0.0602527
0.0612803
0.0616661
0.061665
0.0612536
0.0602536
0.0613438
0.0213891
0.0411542
0.0607192
0.0612722
0.0618488
0.0622234
0.0622184
0.0618754
0.0613441
0.0607917
0.041218
0.0561992
0.0611836
0.0617191
0.0622426
0.0625686
0.0625821
0.0622856
0.0617729
0.0612365
0.0562718
0.0562444
0.061203
0.0617387
0.0622731
0.0625921
0.0625972
0.0622964
0.061776
0.0612338
0.0562864
0.0412238
0.0607826
0.0613263
0.0618896
0.0622614
0.0622665
0.0619017
0.0613469
0.0608011
0.0412281
0.0213892
0.0613884
0.0602578
0.0612938
0.0617336
0.0617337
0.0612953
0.0602665
0.0613885
0.0213885
0.0108297
0.0368286
0.0612074
0.0607243
0.0611926
0.061187
0.060715
0.0612043
0.0368305
0.0108299
0.00700619
0.0108288
0.0213779
0.0412067
0.0562634
0.0562574
0.0412113
0.0213816
0.0108292
0.00700613
0.00686423
0.00965769
0.0165686
0.0290835
0.0400933
0.0400988
0.0290863
0.0165699
0.00966003
0.00686504
0.00965784
0.0265921
0.0634108
0.0615461
0.0617077
0.0617025
0.0615073
0.0632783
0.0266172
0.00966046
0.0165642
0.0632996
0.0603449
0.0616144
0.0620719
0.0620803
0.0616088
0.0603621
0.0634726
0.0165791
0.0290812
0.0616057
0.0616372
0.0622769
0.062654
0.0626569
0.0623209
0.0617246
0.0616918
0.0291164
0.0401265
0.0618321
0.0621649
0.0626934
0.0630138
0.0630292
0.0627409
0.0622191
0.061883
0.0401692
0.0401422
0.0618475
0.0621943
0.0627411
0.0630535
0.0630568
0.0627577
0.0622196
0.061866
0.0401674
0.02911
0.0616558
0.0617181
0.0623643
0.0627373
0.0627384
0.0623653
0.0617222
0.0616615
0.0291148
0.0165787
0.063484
0.0603846
0.0616886
0.062196
0.0621921
0.0616777
0.0603762
0.0634767
0.016579
0.00966071
0.0266216
0.0633328
0.0616153
0.0618448
0.061835
0.0615896
0.0632956
0.026624
0.00966095
0.00686517
0.00966071
0.0165733
0.029105
0.0401615
0.0401623
0.0291094
0.0165756
0.00966102
0.0068652
0.006803
0.00893214
0.0136318
0.0218403
0.0289834
0.028984
0.0218401
0.0136329
0.00893411
0.0068037
0.00893253
0.0203292
0.0609441
0.0628656
0.0626853
0.0626784
0.0628113
0.0608284
0.0203423
0.00893402
0.0136297
0.0609117
0.0604082
0.0618984
0.0624563
0.0624625
0.0618891
0.0604147
0.0611299
0.0136379
0.0218392
0.0629775
0.0619236
0.0626776
0.0630642
0.0630677
0.0627171
0.0620005
0.0630609
0.0218582
0.0289952
0.0628181
0.0625409
0.0631006
0.0634202
0.0634313
0.0631404
0.0625823
0.062856
0.0290158
0.0290017
0.0628193
0.0625682
0.0631482
0.0634575
0.0634582
0.0631541
0.0625779
0.0628272
0.029014
0.0218537
0.062988
0.0619963
0.0627645
0.0631449
0.0631421
0.0627561
0.0619885
0.062989
0.0218565
0.0136377
0.0610875
0.0604367
0.0619671
0.0625685
0.0625634
0.0619509
0.0604206
0.0610989
0.013638
0.0089342
0.0203459
0.0609834
0.0629695
0.0628224
0.0628126
0.0629365
0.0609391
0.0203473
0.00893437
0.0068037
0.00893457
0.0136352
0.0218514
0.0290114
0.0290126
0.0218541
0.0136365
0.00893477
0.00680376
0.00679536
0.00848109
0.0117849
0.0173659
0.022136
0.0221362
0.0173661
0.0117863
0.00848295
0.00679608
0.00848169
0.0163665
0.0493102
0.0642197
0.0641264
0.0641192
0.0641556
0.0492552
0.0163744
0.00848261
0.0117843
0.0493001
0.0605496
0.0621118
0.0628018
0.0628023
0.0620934
0.060543
0.0494619
0.011789
0.017366
0.0643719
0.0621147
0.0630439
0.0634568
0.0634584
0.0630716
0.0621732