/*--------------------------------*- C++ -*----------------------------------*\
| =========                 |                                                 |
| \\      /  F ield         | OpenFOAM: The Open Source CFD Toolbox           |
|  \\    /   O peration     | Version:  2406                                  |
|   \\  /    A nd           | Website:  www.openfoam.com                      |
|    \\/     M anipulation  |                                                 |
\*---------------------------------------------------------------------------*/
FoamFile
{
    version     2.0;
    format      ascii;
    arch        "LSB;label=32;scalar=64";
    class       volScalarField;
    location    "150";
    object      turbulenceProperties:I;
}
// * * * * * * * * * * * * * * * * * * * * * * * * * * * * * * * * * * * * * //

dimensions      [0 0 0 0 0 0 0];

internalField   nonuniform List<scalar> 
25000
(
0.00506212
0.00491125
0.00464899
0.00461771
0.0045997
0.00460091
0.00462265
0.00466356
0.00487322
0.00498628
0.00491234
0.00479116
0.00458488
0.00447456
0.00442086
0.00442251
0.00447978
0.00459516
0.00480328
0.00487418
0.00465007
0.00458659
0.00442107
0.00431815
0.00426782
0.00426898
0.00432184
0.00442694
0.00459445
0.00466501
0.00461834
0.004475
0.0043184
0.00421386
0.00416149
0.00416239
0.00421629
0.00432224
0.00448068
0.00462452
0.00459994
0.00442102
0.00426783
0.00416152
0.00410801
0.00410855
0.00416302
0.00427033
0.00442441
0.00460339
0.00460089
0.00442239
0.00426882
0.00416214
0.00410844
0.00410879
0.00416312
0.00427036
0.00442439
0.00460331
0.00462246
0.00447943
0.00432138
0.00421598
0.00416287
0.00416308
0.0042166
0.00432233
0.00448065
0.00462427
0.00466322
0.00459365
0.00442645
0.00432195
0.00427001
0.00427015
0.00432237
0.00442709
0.0045944
0.00466464
0.00487253
0.00480265
0.00459489
0.00448021
0.00442402
0.00442413
0.00448052
0.00459538
0.00480321
0.00487372
0.00498612
0.00487432
0.00466459
0.0046241
0.00460307
0.00460312
0.00462422
0.0046647
0.00487417
0.00498656
0.00586457
0.00570684
0.00547263
0.00544656
0.0054271
0.00542768
0.00544946
0.00549061
0.0056787
0.00575933
0.00571098
0.00552178
0.00541816
0.00537431
0.00534494
0.00534583
0.00537697
0.00542706
0.00553539
0.00567955
0.00547553
0.00542244
0.00532769
0.00528943
0.00526886
0.0052694
0.00529153
0.00533077
0.00542397
0.0054919
0.00544743
0.00537506
0.00529012
0.00524427
0.00522075
0.00522144
0.00524542
0.00529145
0.00537736
0.00545078
0.00542748
0.00534546
0.00526903
0.00522105
0.00519836
0.00519861
0.00522161
0.00527025
0.00534687
0.00542897
0.00542778
0.00534599
0.00526953
0.00522118
0.00519859
0.0051988
0.00522169
0.00527028
0.00534691
0.00542882
0.00544945
0.00537702
0.00529114
0.00524541
0.00522183
0.00522194
0.00524572
0.00529162
0.00537742
0.00545032
0.00549025
0.00542403
0.00533081
0.00529185
0.0052702
0.00527027
0.005292
0.00533099
0.00542411
0.00549116
0.0056771
0.00553542
0.0054271
0.00537739
0.00534676
0.00534682
0.00537756
0.00542728
0.00553534
0.0056782
0.00575941
0.00568055
0.00549161
0.00545037
0.00542874
0.00542878
0.00545045
0.00549157
0.00567975
0.00575962
0.0055001
0.00526273
0.00513602
0.00508252
0.00505409
0.00505424
0.00508434
0.00515082
0.00526565
0.00544107
0.00526634
0.00508153
0.0050451
0.00501309
0.00498822
0.00498849
0.0050143
0.00505367
0.0050955
0.00526513
0.00513724
0.0050494
0.00498261
0.00494713
0.00492426
0.00492453
0.00494855
0.00498442
0.00504895
0.00515071
0.00508218
0.00501285
0.00494743
0.00490866
0.00488467
0.00488534
0.00490944
0.00494792
0.00501373
0.00508412
0.00505387
0.00498784
0.00492385
0.00488483
0.00486465
0.00486483
0.00488505
0.0049246
0.0049883
0.00505378
0.00505406
0.00498815
0.00492415
0.00488466
0.00486469
0.00486484
0.004885
0.00492453
0.00498829
0.00505363
0.00508424
0.00501385
0.0049476
0.00490912
0.00488521
0.00488528
0.00490932
0.00494782
0.00501369
0.00508365
0.00515038
0.00504921
0.00498416
0.00494827
0.00492441
0.00492444
0.00494837
0.00498422
0.00504887
0.00514991
0.00526358
0.00509537
0.00505318
0.00501387
0.00498815
0.00498819
0.00501398
0.00505327
0.00509501
0.00526357
0.00544042
0.00526614
0.00515033
0.00508367
0.0050536
0.00505365
0.00508383
0.00515052
0.00526564
0.00544042
0.00471793
0.00441572
0.00436196
0.00429334
0.00426421
0.00426376
0.00429344
0.00437636
0.00443151
0.00469295
0.00441886
0.00425218
0.0042416
0.00420006
0.00417647
0.00417622
0.0041998
0.00424879
0.00426526
0.00443014
0.00436194
0.00424545
0.0041802
0.00412917
0.00409945
0.00409959
0.00413045
0.00418138
0.00424325
0.00437482
0.00429181
0.00419911
0.00412912
0.00408157
0.0040516
0.00405224
0.00408234
0.00412925
0.00419807
0.00429148
0.00426302
0.00417541
0.00409866
0.00405164
0.00402558
0.00402565
0.00405146
0.00409865
0.00417458
0.00426148
0.00426285
0.00417537
0.00409883
0.00405136
0.00402544
0.00402542
0.00405122
0.00409844
0.00417447
0.0042613
0.00429274
0.00419871
0.00412907
0.00408179
0.00405153
0.00405148
0.00408162
0.0041287
0.00419777
0.00429092
0.00437562
0.0042436
0.00418071
0.0041294
0.00409834
0.0040983
0.00412932
0.00418049
0.00424274
0.00437371
0.00442938
0.00426468
0.00424739
0.00419815
0.00417434
0.00417437
0.00419826
0.00424752
0.00426425
0.00442819
0.00469154
0.00443037
0.00437404
0.00429092
0.00426129
0.00426135
0.00429113
0.00437451
0.00443029
0.00469101
0.00408591
0.00378829
0.00375233
0.00367241
0.0036402
0.00363919
0.00366914
0.00375975
0.00380187
0.00407665
0.00379039
0.00363395
0.00360625
0.00354204
0.00351525
0.00351489
0.00354073
0.00361041
0.00364135
0.00380016
0.0037512
0.00360922
0.00352626
0.00344867
0.00341001
0.00341014
0.0034504
0.00352766
0.00360403
0.00375684
0.00366976
0.00354004
0.0034481
0.00337855
0.00333868
0.00333924
0.00337945
0.00344852
0.00353751
0.00366541
0.00363798
0.00351319
0.00340857
0.0033385
0.00329952
0.00329941
0.00333798
0.00340816
0.00351164
0.00363518
0.00363714
0.00351294
0.00340873
0.00333813
0.00329919
0.00329901
0.00333756
0.00340778
0.00351146
0.00363494
0.0036673
0.00353856
0.00344843
0.00337877
0.00333811
0.00333792
0.00337822
0.00344754
0.00353699
0.00366475
0.00375823
0.0036046
0.00352672
0.00344877
0.0034081
0.00340795
0.00344839
0.00352606
0.00360316
0.00375551
0.00379967
0.0036407
0.0036084
0.00353811
0.0035119
0.00351185
0.00353799
0.00360827
0.00363988
0.00379783
0.00407474
0.00380045
0.00375659
0.00366539
0.00363545
0.00363549
0.00366549
0.00375706
0.00380026
0.00407384
0.00368893
0.00344037
0.00340188
0.00332396
0.00329143
0.00329046
0.00331865
0.00340127
0.0034451
0.00367906
0.00344302
0.00331637
0.00326629
0.00319129
0.00316316
0.00316323
0.00319066
0.0032686
0.00331758
0.0034441
0.00339989
0.00326863
0.00317968
0.00309179
0.0030519
0.00305207
0.00309407
0.00318181
0.00326133
0.00339767
0.00332061
0.00318878
0.00309095
0.0030109
0.00296846
0.00296883
0.0030117
0.00309198
0.00318679
0.00331459
0.00328834
0.00316043
0.00305001
0.00296807
0.00292362
0.00292345
0.00296757
0.00305
0.0031599
0.00328646
0.00328737
0.00316034
0.00304997
0.00296742
0.00292315
0.00292304
0.00296718
0.00304969
0.00315984
0.00328632
0.00331577
0.00318728
0.00309139
0.00301073
0.00296763
0.00296758
0.00301062
0.0030912
0.00318662
0.00331431
0.00339882
0.00326169
0.00318047
0.00309211
0.00304995
0.00304999
0.00309216
0.00318049
0.00326107
0.00339698
0.00344323
0.00331668
0.00326591
0.00318753
0.00316018
0.00316028
0.00318787
0.0032665
0.00331659
0.00344197
0.00367717
0.00344442
0.00339814
0.00331492
0.00328685
0.00328699
0.00331517
0.00339892
0.0034445
0.00367587
0.00348361
0.0033075
0.00326536
0.00319184
0.00316049
0.00315993
0.00318638
0.00325995
0.00330452
0.00347021
0.00330875
0.00321859
0.00315527
0.00308239
0.00305536
0.0030557
0.00308275
0.00315746
0.00321535
0.00330204
0.00326145
0.00315697
0.00307663
0.00299614
0.00296191
0.00296185
0.00299823
0.00307915
0.00314925
0.00325468
0.00318794
0.00307984
0.00299548
0.00292298
0.00288701
0.00288714
0.00292317
0.00299645
0.00307901
0.00318233
0.00315737
0.00305274
0.00296023
0.0028868
0.00284934
0.00284909
0.0028862
0.00296046
0.00305319
0.00315677
0.00315683
0.00305304
0.00296005
0.00288604
0.00284899
0.00284893
0.00288605
0.00296039
0.00305343
0.00315694
0.00318338
0.00307957
0.00299601
0.00292273
0.00288668
0.00288664
0.00292282
0.00299633
0.00307968
0.00318306
0.00325661
0.00315051
0.00307854
0.00299736
0.00296094
0.00296097
0.00299742
0.00307883
0.00315045
0.00325586
0.00330225
0.0032154
0.00315542
0.00308083
0.00305409
0.00305415
0.00308103
0.00315612
0.00321565
0.00330163
0.00346823
0.00330411
0.00325704
0.00318369
0.00315766
0.0031578
0.00318398
0.00325818
0.00330491
0.00346791
0.00340186
0.00328836
0.00324357
0.00317758
0.00314926
0.00314985
0.00317525
0.00323987
0.00328503
0.00338882
0.00328908
0.00322477
0.00315912
0.00309476
0.00306965
0.00307023
0.00309686
0.00316398
0.00322181
0.00327952
0.00324012
0.00316233
0.00309348
0.00302319
0.002994
0.00299389
0.00302495
0.00309596
0.00315565
0.00323311
0.00317677
0.00309523
0.00302398
0.00296025
0.00292984
0.00292973
0.00295981
0.00302414
0.00309463
0.00317271
0.00314993
0.00307013
0.00299437
0.00293044
0.00290001
0.00289975
0.00292948
0.00299389
0.00307018
0.00314967
0.00315068
0.00307094
0.00299408
0.00292977
0.00289997
0.0028998
0.00292959
0.00299402
0.00307049
0.00315018
0.0031756
0.00309643
0.00302472
0.00296037
0.00293034
0.00293024
0.00296014
0.00302436
0.00309559
0.00317454
0.00323826
0.00315861
0.00309695
0.00302582
0.00299456
0.00299443
0.00302533
0.0030964
0.00315748
0.00323658
0.00328401
0.00322373
0.00316354
0.00309705
0.00307096
0.00307077
0.00309656
0.0031631
0.00322261
0.00328179
0.003389
0.00328427
0.00323772
0.00317483
0.00315057
0.00315047
0.00317451
0.00323805
0.00328496
0.00338863
0.00336007
0.0032861
0.00324135
0.0031844
0.00315885
0.00315962
0.00318308
0.00323838
0.0032817
0.00334725
0.00328182
0.00323567
0.00317621
0.00312138
0.00309778
0.00309817
0.00312345
0.00318198
0.00323279
0.0032722
0.00323698
0.00318069
0.00312165
0.00305976
0.00303348
0.00303325
0.00306086
0.00312351
0.00317446
0.00323069
0.0031849
0.00312366
0.00306152
0.00300415
0.0029768
0.00297677
0.00300361
0.00306126
0.00312324
0.00318204
0.00316183
0.00310009
0.00303509
0.00297796
0.00295214
0.00295206
0.00297737
0.00303501
0.00310033
0.00316131
0.00316335
0.00310098
0.00303484
0.00297763
0.00295257
0.00295255
0.0029779
0.00303543
0.00310078
0.00316205
0.00318635
0.00312518
0.00306208
0.0030051
0.00297868
0.0029787
0.00300516
0.0030623
0.00312467
0.00318467
0.00323818
0.0031782
0.00312575
0.00306369
0.00303608
0.00303596
0.00306328
0.00312543
0.0031773
0.00323607
0.00328037
0.00323636
0.00318359
0.00312632
0.00310145
0.00310117
0.00312555
0.00318281
0.0032349
0.00327715
0.00335041
0.00328167
0.00323762
0.00318494
0.00316228
0.00316191
0.00318373
0.00323647
0.00328043
0.00334752
0.00330192
0.00325669
0.00321793
0.00317051
0.00314898
0.00315106
0.00317316
0.00322051
0.00325883
0.00329817
0.00325046
0.00322418
0.00317305
0.00312596
0.00310451
0.00310526
0.0031296
0.00318163
0.00322421
0.00324654
0.00321552
0.00318019
0.00312877
0.0030728
0.00304875
0.00304928
0.00307508
0.00313178
0.00317647
0.00321415
0.00317394
0.00313091
0.00307545
0.00302311
0.00299812
0.00299875
0.00302423
0.003077
0.00313267
0.00317535
0.0031538
0.00310803
0.00305118
0.00299943
0.00297702
0.00297768
0.00300047
0.00305318
0.00311096
0.00315645
0.00315574
0.00310865
0.00305086
0.00299942
0.00297788
0.00297832
0.00300121
0.00305367
0.00311112
0.0031573
0.0031768
0.00313078
0.00307564
0.0030248
0.00300098
0.00300159
0.00302631
0.00307806
0.00313345
0.00317824
0.00321959
0.00317605
0.00313226
0.00307769
0.00305295
0.0030533
0.00307869
0.00313426
0.00317855
0.00322072
0.00325527
0.00322471
0.00318264
0.00313335
0.0031104
0.00311054
0.00313394
0.00318393
0.00322663
0.0032549
0.00330249
0.00325553
0.00321949
0.00317669
0.0031564
0.00315636
0.00317631
0.0032196
0.00325681
0.00330129
0.00324734
0.0032153
0.00318185
0.00314211
0.00312266
0.00312377
0.00314298
0.00318269
0.00321533
0.00324299
0.00320988
0.00319616
0.00315165
0.00310975
0.00308926
0.00308936
0.00311143
0.00315761
0.00319291
0.00320288
0.0031832
0.00316129
0.00311404
0.00306174
0.00303856
0.00303891
0.00306305
0.00311492
0.00315498
0.00317969
0.00314713
0.00311629
0.00306529
0.00301611
0.00299198
0.00299254
0.00301664
0.00306538
0.00311621
0.00314736
0.00312747
0.00309373
0.00304208
0.00299383
0.00297299
0.00297341
0.00299417
0.0030429
0.00309523
0.0031291
0.00312835
0.00309353
0.00304173
0.00299413
0.00297407
0.00297417
0.00299493
0.0030433
0.00309496
0.00312948
0.00314693
0.00311385
0.00306497
0.00301831
0.00299544
0.00299564
0.0030188
0.00306611
0.00311568
0.0031486
0.00318206
0.00315319
0.00311628
0.0030668
0.00304323
0.00304325
0.00306686
0.0031171
0.00315512
0.00318402
0.00321005
0.00319297
0.00316047
0.00311658
0.00309469
0.00309466
0.00311644
0.00316065
0.0031943
0.00321064
0.00324463
0.00320972
0.00318233
0.00314685
0.0031282
0.00312836
0.00314694
0.0031829
0.00321243
0.00324635
0.00318658
0.00315551
0.00312933
0.0030973
0.00308087
0.00308189
0.00309853
0.00313083
0.00315733
0.00318525
0.003154
0.00315158
0.00311337
0.00307661
0.00305822
0.00305855
0.00307888
0.00312017
0.00314962
0.00314848
0.0031358
0.00312575
0.00308236
0.00303369
0.00301198
0.0030128
0.00303602
0.00308398
0.00312016
0.00313345
0.00310513
0.00308502
0.00303788
0.00299161
0.00296861
0.00296952
0.00299271
0.00303812
0.00308468
0.00310538
0.00308685
0.00306368
0.00301609
0.00297062
0.00295099
0.00295143
0.00297082
0.00301633
0.00306418
0.00308745
0.00308735
0.00306336
0.00301613
0.00297129
0.00295218
0.00295215
0.00297147
0.00301655
0.00306344
0.00308718
0.00310404
0.00308222
0.00303847
0.00299474
0.00297245
0.00297244
0.00299452
0.0030383
0.00308256
0.00310424
0.00313308
0.00311707
0.00308583
0.00303997
0.00301711
0.00301691
0.0030393
0.00308527
0.00311754
0.00313374
0.00315447
0.00314987
0.00312527
0.00308507
0.003064
0.0030637
0.00308397
0.00312351
0.00314917
0.00315347
0.00318849
0.00315415
0.00313447
0.0031044
0.00308692
0.00308685
0.00310365
0.00313306
0.00315467
0.00318882
0.00314254
0.00309213
0.00307071
0.00304617
0.00303242
0.00303289
0.00304674
0.00307213
0.0030942
0.00314234
0.00309755
0.00310039
0.00306769
0.00303555
0.00301847
0.0030187
0.00303726
0.00307419
0.00309907
0.00309273
0.00308318
0.00308156
0.00304164
0.00299621
0.00297519
0.0029757
0.00299798
0.00304251
0.00307544
0.00308122
0.00305508
0.00304352
0.00299987
0.00295594
0.00293335
0.00293402
0.00295612
0.00299879
0.00304206
0.00305493
0.00303723
0.00302287
0.00297823
0.00293481
0.00291569
0.00291571
0.0029341
0.00297723
0.00302201
0.00303697
0.0030369
0.00302199
0.00297798
0.00293499
0.00291627
0.00291607
0.00293447
0.00297734
0.00302112
0.00303598
0.00305139
0.00303956
0.00299948
0.00295769
0.00293572
0.00293558
0.00295714
0.00299866
0.00303908
0.00305104
0.00307523
0.00307086
0.00304389
0.00300055
0.00297813
0.00297799
0.00299985
0.00304292
0.0030709
0.00307597
0.00309234
0.00309829
0.0030795
0.00304197
0.00302167
0.00302148
0.00304095
0.00307737
0.00309709
0.00309183
0.00314433
0.00309433
0.0030788
0.00305229
0.00303571
0.00303567
0.00305145
0.00307644
0.0030931
0.00314389
0.00311998
0.00303041
0.00301098
0.00299258
0.00298069
0.0029807
0.0029924
0.0030118
0.00303252
0.00312248
0.00303967
0.00304461
0.00301837
0.00299048
0.00297406
0.00297407
0.00299107
0.00302364
0.00304353
0.00303761
0.00302456
0.00303052
0.00299544
0.00295349
0.00293293
0.00293287
0.0029542
0.00299514
0.00302372
0.00302381
0.00299857
0.00299472
0.00295529
0.00291385
0.00289165
0.00289202
0.00291293
0.00295277
0.00299234
0.00299839
0.00298187
0.00297496
0.00293329
0.00289195
0.00287329
0.00287293
0.00289056
0.00293151
0.00297327
0.00298109
0.00298114
0.00297389
0.00293274
0.00289134
0.00287299
0.00287284
0.00289058
0.00293161
0.00297275
0.0029799
0.00299405
0.00299071
0.0029536
0.00291342
0.00289185
0.00289176
0.00291298
0.00295276
0.00298997
0.00299341
0.00301408
0.00301932
0.00299581
0.0029546
0.00293268
0.00293272
0.00295425
0.00299492
0.00301927
0.00301515
0.00303127
0.00304253
0.00302823
0.00299321
0.00297384
0.00297385
0.00299254
0.00302632
0.00304142
0.00303195
0.00312296
0.00303634
0.0030201
0.00299617
0.0029806
0.00298061
0.00299546
0.00301741
0.00303388
0.0031224
0.00311837
0.0029789
0.00295515
0.00294003
0.00292877
0.00292873
0.00293973
0.00295575
0.00298139
0.00312325
0.0029922
0.00299162
0.00297075
0.00294573
0.00292929
0.0029292
0.0029456
0.00297471
0.00298965
0.00299099
0.00296806
0.00298047
0.0029502
0.00291084
0.00289025
0.00288974
0.00291039
0.00294801
0.00297179
0.00296705
0.00294277
0.00294653
0.0029109
0.0028714
0.00284929
0.00284928
0.00286931
0.00290662
0.00294249
0.00294193
0.00292708
0.00292738
0.00288837
0.00284856
0.00283
0.00282933
0.00284646
0.00288561
0.0029248
0.00292602
0.00292634
0.00292625
0.0028873
0.00284701
0.00282879
0.00282865
0.00284605
0.00288565
0.00292478
0.00292517
0.00293845
0.00294234
0.00290743
0.00286831
0.002847
0.00284701
0.00286804
0.00290654
0.00294136
0.00293769
0.00295674
0.00296848
0.00294744
0.00290784
0.00288637
0.00288667
0.00290808
0.00294698
0.0029685
0.00295781
0.00298107
0.00298821
0.00297666
0.00294375
0.00292537
0.0029257
0.00294405
0.0029759
0.00298784
0.00298256
0.00312217
0.00298688
0.00296294
0.00294025
0.00292581
0.00292607
0.00294038
0.00296124
0.00298475
0.00312194
0.00310404
0.00294743
0.00290773
0.00289122
0.0028783
0.00287752
0.00288909
0.00290573
0.00294676
0.00310667
0.00296049
0.00294023
0.00292344
0.00290026
0.00288327
0.00288311
0.00289934
0.00292563
0.002936
0.00295658
0.00291637
0.00292945
0.00290359
0.00286651
0.00284587
0.00284512
0.00286545
0.00290008
0.00291848
0.00291227
0.00288928
0.00289721
0.00286509
0.00282733
0.00280531
0.00280521
0.00282476
0.00285985
0.00289178
0.0028863
0.00287404
0.00287902
0.00284231
0.00280399
0.00278552
0.0027847
0.00280169
0.00283929
0.00287578
0.00287201
0.00287319
0.00287806
0.00284121
0.00280209
0.00278393
0.00278378
0.00280097
0.00283927
0.00287638
0.00287182
0.00288534
0.00289396
0.00286098
0.00282307
0.00280198
0.00280189
0.00282262
0.00285984
0.00289246
0.00288415
0.00290473
0.00291818
0.00289912
0.00286123
0.00284018
0.00284046
0.00286151
0.00289861
0.00291765
0.00290525
0.00294628
0.00293563
0.00292526
0.00289455
0.00287711
0.00287752
0.00289519
0.00292515
0.00293538
0.00294794
0.00310431
0.00295318
0.0029104
0.00288635
0.00287247
0.00287283
0.00288713
0.00290977
0.00295126
0.00310427
0.00293857
0.00293259
0.00286683
0.00284413
0.00282897
0.00282862
0.00284293
0.00286572
0.00293315
0.00294265
0.0029435
0.00289208
0.00287696
0.00285497
0.00283813
0.0028385
0.0028555
0.00288032
0.0028883
0.00293954
0.00287005
0.00288004
0.00285859
0.00282361
0.00280351
0.00280338
0.00282384
0.00285614
0.00286951
0.0028654
0.00283925
0.00285021
0.00282156
0.00278573
0.00276441
0.0027648
0.00278455
0.00281778
0.00284565
0.00283629
0.00282438
0.00283322
0.00279946
0.00276292
0.00274497
0.00274463
0.00276178
0.00279788
0.00283135
0.0028232
0.00282404
0.00283289
0.0027987
0.00276127
0.00274362
0.00274371
0.0027609
0.00279775
0.00283225
0.00282384
0.00283784
0.00284863
0.00281826
0.00278204
0.0027615
0.00276154
0.00278195
0.00281757
0.00284766
0.00283717
0.00286295
0.00287133
0.0028544
0.0028186
0.00279827
0.00279859
0.00281918
0.00285435
0.00287089
0.00286305
0.00293282
0.00288863
0.0028775
0.00284905
0.00283267
0.0028331
0.00285009
0.00287825
0.00288887
0.00293416
0.00294072
0.00293855
0.00286696
0.00283843
0.00282445
0.00282483
0.00283968
0.00286757
0.00293771
0.00294092
0.00249491
0.00293376
0.00283922
0.0028041
0.00278506
0.00278469
0.00280294
0.00283812
0.00293406
0.00249161
0.00294032
0.00285197
0.00283409
0.00281221
0.00279524
0.00279562
0.002813
0.00283743
0.00284752
0.00293514
0.00283705
0.00283498
0.00281685
0.00278346
0.00276356
0.00276367
0.00278403
0.00281458
0.00282431
0.00283119
0.00279739
0.00280693
0.00278147
0.00274733
0.0027264
0.00272699
0.00274689
0.00277864
0.00280294
0.00279425
0.00278099
0.00279077
0.00276003
0.00272527
0.00270768
0.00270763
0.00272485
0.00275951
0.00278996
0.00278049
0.00278083
0.00279065
0.00275942
0.00272393
0.00270673
0.00270689
0.00272399
0.00275928
0.00279088
0.00278159
0.00279741
0.00280603
0.00277858
0.00274442
0.00272443
0.00272444
0.00274443
0.00277825
0.00280555
0.00279735
0.00283334
0.00282766
0.00281265
0.00277916
0.00275952
0.00275973
0.0027797
0.00281281
0.00282722
0.00283313
0.00293238
0.00284832
0.00283301
0.00280644
0.00279092
0.00279121
0.00280741
0.00283415
0.0028487
0.00293328
0.00248829
0.00293702
0.00283553
0.0027973
0.0027815
0.00278176
0.00279867
0.00283706
0.00293717
0.00248921
0.00367036
0.00291295
0.00282252
0.00277024
0.00274646
0.00274658
0.00277034
0.002823
0.00291485
0.00365753
0.00291378
0.00281871
0.00279286
0.00277047
0.00275408
0.00275465
0.00277229
0.00279762
0.00281566
0.00291001
0.00281567
0.00279307
0.00277718
0.00274544
0.00272618
0.00272672
0.00274687
0.00277615
0.00278416
0.00281123
0.00276332
0.00276654
0.00274435
0.0027121
0.00269184
0.00269272
0.00271278
0.00274319
0.00276431
0.00276181
0.00274394
0.00275126
0.00272416
0.00269146
0.00267446
0.00267481
0.00269201
0.00272509
0.00275222
0.00274491
0.0027443
0.00275144
0.00272378
0.00269065
0.00267419
0.00267451
0.00269148
0.00272491
0.00275297
0.00274624
0.00276563
0.00276638
0.00274245
0.00271082
0.00269162
0.00269177
0.00271133
0.00274303
0.00276701
0.00276637
0.00281717
0.00278782
0.00277442
0.00274359
0.00272484
0.00272503
0.00274433
0.0027752
0.00278794
0.00281685
0.00291193
0.0028167
0.00279302
0.00276763
0.00275288
0.00275301
0.00276847
0.00279444
0.0028174
0.00291227
0.00365598
0.00291502
0.00281795
0.00276565
0.00274605
0.00274604
0.00276659
0.00281974
0.00291602
0.00365562
0.00646707
0.00279081
0.00281301
0.00274495
0.00271581
0.00271652
0.00274679
0.00281601
0.00279568
0.00645674
0.00278659
0.00279484
0.00275576
0.00273162
0.00271606
0.00271663
0.0027341
0.00276187
0.00279355
0.00278481
0.00280514
0.00275733
0.00274117
0.00271081
0.00269221
0.00269291
0.00271244
0.00274077
0.00275
0.00280272
0.0027406
0.00273082
0.00271132
0.00268081
0.00266102
0.00266182
0.00268168
0.00271082
0.00272964
0.00274084
0.00271602
0.00271597
0.00269248
0.00266169
0.00264507
0.00264548
0.00266227
0.00269367
0.00271766
0.00271812
0.00271675
0.00271607
0.00269205
0.00266119
0.00264528
0.0026455
0.00266209
0.00269354
0.002718
0.00271924
0.0027441
0.00273029
0.00270984
0.00268071
0.00266216
0.00266232
0.00268131
0.00271076
0.00273156
0.00274542
0.00281017
0.00275273
0.00273956
0.00271121
0.00269323
0.0026933
0.00271187
0.00274056
0.00275331
0.00281001
0.0027911
0.00279413
0.00275807
0.00273213
0.00271772
0.00271763
0.00273255
0.00275931
0.00279502
0.00279091
0.00645591
0.00279192
0.00280986
0.00274408
0.00271868
0.00271842
0.00274445
0.00281159
0.00279407
0.00645527
0.00988421
0.00251044
0.00279391
0.00272745
0.00269345
0.00269426
0.00272984
0.00279803
0.00251551
0.00987336
0.00249955
0.0027747
0.00272294
0.00269493
0.00267993
0.00268039
0.0026975
0.00272963
0.00277455
0.00249713
0.00278743
0.00272709
0.00270679
0.00267739
0.00265946
0.0026601
0.00267885
0.00270649
0.00272055
0.00278626
0.00272663
0.00269795
0.00267985
0.00265074
0.00263127
0.00263183
0.0026512
0.00267911
0.00269681
0.00272753
0.00269635
0.0026831
0.00266238
0.00263316
0.00261674
0.00261692
0.00263309
0.00266277
0.00268414
0.00269818
0.00269709
0.00268302
0.002662
0.00263305
0.00261742
0.00261735
0.00263333
0.00266276
0.00268403
0.00269879
0.00272998
0.00269689
0.00267898
0.002652
0.00263386
0.00263382
0.0026521
0.00267929
0.00269757
0.00273091
0.00279376
0.00272257
0.0027068
0.0026804
0.0026629
0.0026627
0.0026804
0.00270709
0.00272267
0.00279327
0.00250924
0.00277533
0.0027282
0.00269899
0.00268423
0.00268382
0.00269852
0.00272836
0.00277549
0.00250729
0.00987283
0.00250699
0.00279291
0.00272995
0.00269848
0.00269791
0.00272939
0.00279377
0.00250961
0.0098719
0.0137838
0.00300523
0.00272096
0.00270834
0.00267567
0.00267669
0.00271149
0.00272649
0.00300545
0.0137735
0.00299952
0.00274316
0.00269523
0.00266111
0.00264639
0.0026469
0.00266398
0.00270265
0.00274454
0.00299279
0.00271761
0.00270223
0.00267382
0.00264519
0.0026282
0.00262893
0.00264689
0.00267404
0.00269674
0.00271877
0.00271141
0.00266724
0.00264901
0.00262134
0.00260252
0.00260303
0.00262175
0.00264837
0.00266632
0.00271308
0.00268059
0.00265161
0.00263275
0.00260514
0.00258918
0.00258924
0.00260469
0.00263263
0.00265212
0.00268206
0.00268119
0.00265135
0.00263253
0.0026054
0.00259024
0.00259001
0.00260529
0.00263271
0.00265159
0.00268202
0.00271409
0.00266559
0.00264886
0.0026239
0.00260628
0.00260613
0.00262365
0.0026487
0.00266579
0.00271455
0.00272476
0.00269746
0.00267553
0.00265051
0.00263351
0.00263313
0.00264998
0.00267516
0.00269719
0.00272403
0.00299977
0.00274547
0.00270385
0.00266834
0.00265258
0.00265196
0.00266711
0.00270285
0.00274475
0.00299799
0.0137733
0.0029994
0.00272436
0.0027147
0.00268238
0.00268158
0.00271314
0.00272361
0.00300036
0.0137723
0.0179822
0.00488806
0.00254023
0.00266661
0.00265237
0.00265321
0.0026696
0.00254628
0.00488639
0.0179724
0.0048901
0.00267022
0.00267278
0.00263102
0.00261558
0.00261619
0.00263405
0.00268071
0.00267324
0.00488003
0.00254276
0.00268226
0.00264249
0.00261378
0.00259764
0.00259845
0.00261583
0.00264321
0.00267754
0.00254625
0.00267287
0.00263891
0.0026183
0.00259174
0.00257357
0.0025741
0.00259216
0.00261769
0.00263812
0.00267516
0.00265759
0.00262138
0.00260272
0.0025764
0.00256091
0.00256087
0.00257571
0.00260221
0.00262147
0.00265895
0.00265763
0.00262079
0.00260257
0.00257687
0.00256214
0.00256186
0.00257652
0.00260237
0.00262072
0.00265826
0.0026734
0.00263633
0.00261845
0.00259497
0.00257787
0.00257772
0.00259467
0.00261823
0.00263664
0.00267434
0.00254775
0.00267632
0.00264506
0.00262022
0.00260364
0.00260333
0.00261976
0.00264478
0.00267662
0.00254834
0.00488119
0.00267365
0.00268353
0.00263957
0.00262206
0.00262159
0.00263857
0.00268259
0.00267339
0.00488043
0.0179722
0.0048845
0.00254894
0.00267525
0.00265898
0.00265832
0.00267355
0.00254709
0.00488446
0.0179713
0.0222728
0.00733141
0.00247586
0.00256426
0.0025982
0.00259872
0.00256661
0.00247923
0.00733027
0.0222643
0.00733583
0.00252564
0.00265102
0.00260358
0.0025864
0.00258713
0.00260665
0.00265922
0.00253008
0.00732375
0.00248681
0.00266168
0.00261172
0.00258185
0.00256646
0.00256731
0.00258435
0.00261309
0.00265763
0.00248786
0.00257307
0.00261125
0.00258611
0.00256046
0.0025431
0.00254379
0.00256107
0.00258562
0.00261055
0.00257564
0.0026026
0.00259103
0.00257064
0.00254551
0.00253067
0.00253057
0.0025448
0.00257001
0.00259076
0.00260355
0.00260185
0.00259016
0.00257059
0.00254603
0.0025318
0.00253156
0.00254555
0.00257011
0.00258991
0.00260222
0.0025708
0.00260808
0.00258633
0.00256375
0.00254722
0.00254703
0.0025634
0.00258606
0.00260841
0.00257205
0.00248286
0.00265475
0.00261459
0.00258825
0.00257186
0.00257163
0.00258787
0.0026144
0.00265548
0.00248453
0.00732414
0.00252984
0.00266259
0.00261171
0.00259167
0.00259143
0.00261106
0.0026619
0.00252986
0.00732323
0.0222639
0.00732935
0.00248701
0.00257386
0.00260337
0.00260303
0.00257253
0.00248373
0.0073287
0.0222633
0.0264771
0.0101695
0.00346523
0.00240991
0.0024838
0.00248434
0.00241201
0.00346517
0.0101691
0.0264707
0.0101748
0.00241351
0.00262212
0.00257895
0.00255997
0.00256083
0.00258223
0.00263089
0.00241775
0.0101619
0.00347442
0.00263328
0.00258438
0.00255164
0.00253662
0.00253744
0.00255427
0.00258599
0.00262982
0.00346717
0.0024224
0.00258544
0.00255497
0.00252996
0.00251344
0.00251413
0.00253044
0.00255416
0.00258446
0.00242433
0.00248751
0.00256259
0.00253904
0.00251493
0.00250075
0.00250056
0.00251401
0.00253797
0.00256178
0.00248804
0.00248606
0.00256158
0.00253883
0.00251508
0.00250135
0.00250111
0.00251438
0.00253787
0.00256092
0.00248606
0.00241678
0.00258194
0.00255467
0.00253212
0.00251609
0.00251587
0.00253161
0.00255404
0.00258188
0.00241762
0.00346522
0.00262581
0.00258655
0.00255634
0.00253973
0.00253957
0.00255601
0.00258624
0.00262643
0.00346535
0.0101625
0.00241803
0.00263378
0.00258528
0.00256265
0.00256263
0.00258503
0.00263328
0.00241728
0.0101616
0.0264697
0.0101685
0.00346964
0.0024207
0.00248757
0.00248762
0.00241989
0.0034671
0.0101677
0.0264695
0.0304713
0.0133159
0.00520975
0.00263197
0.00236775
0.00236687
0.00262965
0.00520857
0.0133154
0.0304657
0.0133213
0.00292112
0.00257405
0.00255518
0.00253526
0.00253572
0.00255709
0.00258082
0.00291638
0.0133079
0.00521504
0.0025838
0.00256157
0.00252357
0.00250787
0.00250809
0.00252498
0.00256179
0.00257886
0.00520449
0.00263983
0.00255865
0.00252533
0.00250025
0.00248419
0.00248453
0.0024996
0.00252297
0.00255611
0.0026352
0.00236809
0.00253495
0.00250789
0.00248456
0.00247088
0.00247035
0.00248292
0.00250583
0.00253283
0.00236558
0.00236542
0.00253384
0.00250738
0.00248404
0.00247069
0.00247036
0.00248285
0.00250565
0.00253236
0.00236343
0.00263094
0.00255522
0.00252391
0.00250044
0.00248472
0.00248435
0.00249958
0.00252271
0.00255426
0.00263009
0.00520462
0.00257599
0.0025622
0.00252534
0.0025078
0.00250761
0.00252483
0.00256142
0.00257576
0.0052046
0.013308
0.00291813
0.00258356
0.00255795
0.00253439
0.00253443
0.00255778
0.00258287
0.00291688
0.0133072
0.0304641
0.0133144
0.00520933
0.00263399
0.0023657
0.00236596
0.00263334
0.00520746
0.0133134
0.0304639
0.034178
0.0166548
0.00732647
0.00370699
0.00271549
0.00271486
0.00370626
0.00732714
0.0166556
0.0341747
0.0166605
0.00415675
0.00249115
0.00252468
0.00250904
0.00250948
0.00252668
0.00249783
0.0041516
0.0166483
0.00733142
0.00249889
0.00254377
0.00249845
0.00248149
0.0024815
0.00249942
0.00254372
0.00249426
0.00732079
0.0037096
0.00252538
0.00249867
0.00247284
0.00245738
0.00245756
0.00247178
0.00249585
0.0025226
0.00370378
0.00271305
0.00250627
0.00247934
0.00245661
0.00244358
0.00244306
0.00245494
0.00247722
0.00250417
0.00270955
0.00271087
0.00250552
0.00247858
0.00245542
0.00244267
0.00244247
0.00245452
0.0024771
0.00250428
0.00270885
0.00370327
0.00252298
0.00249659
0.00247122
0.00245587
0.00245567
0.00247074
0.00249575
0.00252221
0.00370288
0.00732075
0.00249245