/*--------------------------------*- C++ -*----------------------------------*\
| =========                 |                                                 |
| \\      /  F ield         | OpenFOAM: The Open Source CFD Toolbox           |
|  \\    /   O peration     | Version:  2406                                  |
|   \\  /    A nd           | Website:  www.openfoam.com                      |
|    \\/     M anipulation  |                                                 |
\*---------------------------------------------------------------------------*/
FoamFile
{
    version     2.0;
    format      ascii;
    arch        "LSB;label=32;scalar=64";
    class       volVectorField;
    location    "150";
    object      U;
}
// * * * * * * * * * * * * * * * * * * * * * * * * * * * * * * * * * * * * * //

dimensions      [0 1 -1 0 0 0 0];

internalField   nonuniform List<vector> 
25000
(
(0.00533212 0.00533346 1.00321)
(0.00357955 0.00480106 1.00299)
(0.00254428 0.00459501 1.00282)
(0.00151418 0.00447074 1.0027)
(0.000492736 0.00440554 1.00264)
(-0.000524727 0.00440662 1.00264)
(-0.00155403 0.00447401 1.0027)
(-0.0026079 0.00460267 1.00283)
(-0.00370509 0.00482208 1.00301)
(-0.00532952 0.00532557 1.00325)
(0.00480261 0.0035804 1.00299)
(0.00349424 0.00349514 1.00272)
(0.00244172 0.00340867 1.00253)
(0.00144716 0.0033427 1.00241)
(0.000471046 0.00330868 1.00235)
(-0.000499136 0.00331088 1.00235)
(-0.00148091 0.00335064 1.00242)
(-0.00248673 0.0034278 1.00254)
(-0.00354832 0.00354318 1.00273)
(-0.00482553 0.00369947 1.00301)
(0.00459825 0.00254416 1.00282)
(0.00340851 0.00244211 1.00253)
(0.00237245 0.00237303 1.00234)
(0.00140093 0.00232264 1.00221)
(0.00045678 0.00229751 1.00215)
(-0.000478534 0.0023002 1.00215)
(-0.001425 0.00233193 1.00221)
(-0.00239958 0.00239291 1.00234)
(-0.00343287 0.00247973 1.00254)
(-0.00460631 0.00260024 1.00283)
(0.00447366 0.00151365 1.0027)
(0.0033433 0.00144697 1.00241)
(0.00232239 0.0014011 1.00221)
(0.00136764 0.00136789 1.00208)
(0.000446963 0.00135165 1.00202)
(-0.000462738 0.00135409 1.00202)
(-0.00138406 0.00137585 1.00208)
(-0.00233865 0.00141639 1.00221)
(-0.00335596 0.00147146 1.00242)
(-0.00447797 0.0015438 1.00271)
(0.00440821 0.000492433 1.00264)
(0.00330957 0.000470648 1.00235)
(0.00229753 0.000456608 1.00215)
(0.00135154 0.00044693 1.00202)
(0.000442722 0.000442712 1.00195)
(-0.000453871 0.000444602 1.00195)
(-0.00136257 0.000452902 1.00202)
(-0.0023077 0.000467315 1.00215)
(-0.00331697 0.00048621 1.00235)
(-0.00441096 0.000510686 1.00264)
(0.00440863 -0.000524721 1.00264)
(0.00331174 -0.000499438 1.00235)
(0.00230038 -0.000478776 1.00215)
(0.00135406 -0.000462904 1.00202)
(0.000444652 -0.000454002 1.00195)
(-0.000452509 -0.000452641 1.00195)
(-0.00136165 -0.00045873 1.00202)
(-0.00230706 -0.000471626 1.00215)
(-0.0033165 -0.000489453 1.00235)
(-0.00441061 -0.000513117 1.00264)
(0.00447538 -0.00155357 1.0027)
(0.00335123 -0.00148084 1.00241)
(0.00233205 -0.00142511 1.00221)
(0.00137584 -0.00138415 1.00208)
(0.000452939 -0.0013627 1.00202)
(-0.000458613 -0.00136179 1.00202)
(-0.00138124 -0.00138138 1.00208)
(-0.00233672 -0.00142047 1.00221)
(-0.00335459 -0.0014745 1.00242)
(-0.00447692 -0.00154608 1.0027)
(0.00460325 -0.00260694 1.00283)
(0.00342795 -0.0024863 1.00254)
(0.00239283 -0.00239934 1.00234)
(0.00141629 -0.00233854 1.00221)
(0.000467278 -0.00230767 1.00215)
(-0.000471554 -0.00230709 1.00215)
(-0.00142035 -0.00233683 1.00221)
(-0.00239637 -0.00239649 1.00234)
(-0.00343055 -0.0024824 1.00254)
(-0.00460452 -0.00260222 1.00283)
(0.00482194 -0.00370382 1.00301)
(0.00354287 -0.00354745 1.00273)
(0.00247938 -0.00343222 1.00254)
(0.00147115 -0.00335553 1.00241)
(0.000486052 -0.00331667 1.00235)
(-0.000489519 -0.00331635 1.00235)
(-0.00147448 -0.00335458 1.00242)
(-0.00248231 -0.00343066 1.00254)
(-0.00354513 -0.0035453 1.00273)
(-0.00482307 -0.00370108 1.00301)
(0.00532514 -0.00532801 1.00324)
(0.00369874 -0.00482414 1.00301)
(0.00259951 -0.00460517 1.00283)
(0.00154323 -0.00447711 1.0027)
(0.000510288 -0.00441032 1.00264)
(-0.000513376 -0.00441019 1.00264)
(-0.00154626 -0.00447673 1.0027)
(-0.00260233 -0.00460462 1.00283)
(-0.00370103 -0.00482344 1.00301)
(-0.00532642 -0.00532683 1.00324)
(0.00710859 0.00711782 1.01887)
(0.00480019 0.00632448 1.018)
(0.00341619 0.0063716 1.01734)
(0.00203244 0.00634575 1.01689)
(0.000659807 0.0063236 1.01666)
(-0.000712317 0.0063243 1.01667)
(-0.00209211 0.00634688 1.01691)
(-0.00349795 0.0063761 1.01737)
(-0.00498431 0.00634756 1.01807)
(-0.00711195 0.00710109 1.01899)
(0.00631517 0.00480361 1.018)
(0.00479509 0.00480215 1.01698)
(0.00349354 0.00485211 1.01624)
(0.00209526 0.00489744 1.01575)
(0.000682515 0.00492106 1.0155)
(-0.000732066 0.0049235 1.01551)
(-0.00214946 0.00490605 1.01576)
(-0.00355545 0.00487291 1.01627)
(-0.00486842 0.0048542 1.01703)
(-0.00635743 0.00496921 1.01807)
(0.0063713 0.00341211 1.01733)
(0.00484755 0.00349449 1.01624)
(0.00350938 0.00351165 1.01544)
(0.00211193 0.00352294 1.01492)
(0.000691032 0.00353153 1.01466)
(-0.000732957 0.00353521 1.01466)
(-0.00215513 0.00353529 1.01493)
(-0.00355376 0.00353622 1.01547)
(-0.00488698 0.00353754 1.01627)
(-0.00638619 0.00347913 1.01738)
(0.00634732 0.00202725 1.01688)
(0.00489623 0.00209359 1.01574)
(0.0035217 0.00211179 1.01492)
(0.00211727 0.00211764 1.01437)
(0.000695831 0.00212258 1.01411)
(-0.000729099 0.00212645 1.01411)
(-0.00215062 0.00212984 1.01438)
(-0.00355276 0.00213395 1.01493)
(-0.00492022 0.00212715 1.01577)
(-0.0063571 0.00206938 1.01691)
(0.00632725 0.000655239 1.01666)
(0.00492152 0.000679503 1.0155)
(0.00353117 0.000689417 1.01465)
(0.00212272 0.000694844 1.0141)
(0.000700076 0.000699323 1.01383)
(-0.000725769 0.00070268 1.01383)
(-0.00214747 0.000705295 1.01411)
(-0.00355371 0.000707428 1.01467)
(-0.00493834 0.000704685 1.01551)
(-0.00633422 0.000684407 1.01668)
(0.00632752 -0.000716649 1.01666)
(0.00492529 -0.000735571 1.0155)
(0.00353597 -0.000735417 1.01466)
(0.00212696 -0.000730898 1.01411)
(0.000703682 -0.000727255 1.01383)
(-0.000723105 -0.00072448 1.01383)
(-0.00214567 -0.000722658 1.01411)
(-0.00355231 -0.000721636 1.01467)
(-0.00493744 -0.000716734 1.01551)
(-0.00633374 -0.000695017 1.01668)
(0.00635086 -0.00209617 1.0169)
(0.00490828 -0.00215287 1.01576)
(0.00353657 -0.00215816 1.01493)
(0.00213095 -0.00215292 1.01438)
(0.000706466 -0.00214952 1.01411)
(-0.000721191 -0.00214743 1.01411)
(-0.00214486 -0.00214658 1.01438)
(-0.00354892 -0.0021477 1.01493)
(-0.00491769 -0.00213888 1.01577)
(-0.00635559 -0.00207975 1.01691)
(0.0063798 -0.00350168 1.01737)
(0.00487552 -0.00355922 1.01626)
(0.00353798 -0.00355689 1.01546)
(0.00213541 -0.00355564 1.01493)
(0.000708945 -0.00355606 1.01466)
(-0.000719991 -0.00355443 1.01466)
(-0.00214597 -0.00355077 1.01493)
(-0.00354726 -0.00354908 1.01547)
(-0.00488267 -0.00354859 1.01627)
(-0.00638368 -0.003489 1.01738)
(0.00635129 -0.00498794 1.01807)
(0.00485682 -0.00487218 1.01702)
(0.00353956 -0.00489044 1.01627)
(0.002129 -0.00492328 1.01576)
(0.000706592 -0.0049409 1.01551)
(-0.000714799 -0.00493961 1.01551)
(-0.0021369 -0.00491949 1.01576)
(-0.00354674 -0.00488432 1.01627)
(-0.00486248 -0.00486415 1.01703)
(-0.006354 -0.00497814 1.01807)
(0.00710409 -0.00711525 1.01898)
(0.0049716 -0.00636093 1.01807)
(0.00348137 -0.00638929 1.01737)
(0.00207167 -0.00635978 1.01691)
(0.00068678 -0.00633647 1.01667)
(-0.000692619 -0.00633555 1.01667)
(-0.00207746 -0.00635704 1.01691)
(-0.00348695 -0.00638489 1.01738)
(-0.00497638 -0.00635509 1.01807)
(-0.00710662 -0.00710816 1.01899)
(0.00527674 0.00527625 1.0349)
(0.00363918 0.00468805 1.03383)
(0.00253927 0.00494644 1.03303)
(0.0015015 0.00496798 1.03249)
(0.000484219 0.00498908 1.03222)
(-0.000518696 0.00498943 1.03222)
(-0.00153576 0.00496831 1.03251)
(-0.00257917 0.00494854 1.03306)
(-0.00374703 0.004705 1.0339)
(-0.00528968 0.00527885 1.03502)
(0.00468664 0.00363697 1.03382)
(0.00364588 0.00364555 1.0326)
(0.00267839 0.00375274 1.03169)
(0.00159483 0.00382172 1.03108)
(0.000519802 0.003861 1.03077)
(-0.000553954 0.00386221 1.03078)
(-0.00162846 0.0038254 1.03109)
(-0.00270962 0.00376029 1.03172)
(-0.003681 0.00366684 1.03266)
(-0.00471432 0.00373172 1.0339)
(0.00494876 0.00253404 1.03302)
(0.00375417 0.00267515 1.03169)
(0.00272406 0.00272116 1.0307)
(0.00162454 0.00275387 1.03003)
(0.000530253 0.00277148 1.0297)
(-0.000560393 0.00277377 1.02971)
(-0.00165348 0.0027609 1.03005)
(-0.00275027 0.00273315 1.03072)
(-0.00377457 0.00269226 1.03173)
(-0.00495882 0.0025608 1.03307)
(0.00497002 0.0014974 1.03248)
(0.0038241 0.00159163 1.03107)
(0.00275693 0.00162122 1.03003)
(0.00164875 0.00164553 1.02934)
(0.000540442 0.00165997 1.02899)
(-0.000565182 0.00166256 1.02899)
(-0.00167271 0.00165317 1.02935)
(-0.00277794 0.00163382 1.03005)
(-0.00383971 0.00160811 1.0311)
(-0.00497886 0.00151545 1.03251)
(0.00499178 0.000481045 1.03221)
(0.00386333 0.00051666 1.03077)
(0.00277431 0.00052703 1.0297)
(0.0016633 0.000536977 1.02899)
(0.000547344 0.000543932 1.02864)
(-0.000567211 0.000546223 1.02864)
(-0.00168215 0.000543924 1.029)
(-0.00279137 0.000538289 1.02971)
(-0.00387671 0.000531038 1.03078)
(-0.00499976 0.000496198 1.03223)
(0.00499162 -0.000521664 1.03222)
(0.00386468 -0.000556991 1.03077)
(0.00277656 -0.000563579 1.0297)
(0.00166562 -0.000568571 1.02899)
(0.0005497 -0.000570688 1.02864)
(-0.000565202 -0.000568671 1.02864)
(-0.00168062 -0.000562759 1.029)
(-0.00279007 -0.000554255 1.02971)
(-0.00387581 -0.00054488 1.03078)
(-0.00499933 -0.000508575 1.03223)
(0.00497089 -0.00153853 1.0325)
(0.00382759 -0.00163124 1.03109)
(0.00276342 -0.00165672 1.03004)
(0.00165623 -0.00167583 1.02934)
(0.000547255 -0.00168543 1.029)
(-0.000559292 -0.00168386 1.029)
(-0.00166781 -0.00167108 1.02935)
(-0.00277433 -0.00164907 1.03005)
(-0.00383724 -0.00162141 1.0311)
(-0.00497756 -0.00152746 1.03251)
(0.00495073 -0.00258163 1.03306)
(0.00376234 -0.00271266 1.03172)
(0.00273561 -0.00275309 1.03072)
(0.00163684 -0.00278082 1.03005)
(0.000541624 -0.00279404 1.02971)
(-0.000550783 -0.00279274 1.02971)
(-0.00164582 -0.00277697 1.03005)
(-0.0027443 -0.00274699 1.03073)
(-0.00377042 -0.00270454 1.03173)
(-0.00495666 -0.00257209 1.03307)
(0.00470664 -0.00374976 1.03389)
(0.00366875 -0.00368405 1.03265)
(0.00269496 -0.00377722 1.03172)
(0.00161131 -0.00384202 1.0311)
(0.000534571 -0.00387862 1.03078)
(-0.000541386 -0.00387753 1.03078)
(-0.00161812 -0.00383883 1.0311)
(-0.0027018 -0.00377208 1.03173)
(-0.00367547 -0.00367729 1.03266)
(-0.00471148 -0.00374141 1.0339)
(0.00527988 -0.0052918 1.03501)
(0.0037339 -0.00471684 1.0339)
(0.00256403 -0.00496068 1.03306)
(0.00151919 -0.00498026 1.03251)
(0.000500092 -0.0050007 1.03223)
(-0.000504788 -0.00499987 1.03223)
(-0.00152402 -0.0049778 1.03251)
(-0.00256927 -0.00495677 1.03307)
(-0.00373941 -0.00471164 1.0339)
(-0.00528438 -0.00528543 1.03502)
(0.00355837 0.00355068 1.04571)
(0.00261696 0.00331058 1.04464)
(0.0018101 0.00365084 1.04387)
(0.00107738 0.0036901 1.04335)
(0.000344837 0.00374929 1.04309)
(-0.000356579 0.00374887 1.0431)
(-0.00108314 0.00368794 1.04337)
(-0.00180939 0.00364611 1.0439)
(-0.00266623 0.00331415 1.0447)
(-0.00356026 0.00354958 1.04579)
(0.00331578 0.00260851 1.04464)
(0.0026682 0.00266094 1.04346)
(0.00194787 0.00278895 1.04257)
(0.001157 0.00284455 1.04197)
(0.000381572 0.00288581 1.04168)
(-0.000394562 0.00288599 1.04168)
(-0.00116615 0.00284452 1.04199)
(-0.00194881 0.00278559 1.0426)
(-0.00266993 0.0026562 1.0435)
(-0.00332398 0.00265134 1.0447)
(0.00365829 0.0018019 1.04386)
(0.00279686 0.00194022 1.04257)
(0.00201433 0.00200631 1.0416)
(0.00118883 0.00204545 1.04095)
(0.000391217 0.00206451 1.04063)
(-0.000403278 0.00206513 1.04064)
(-0.00119859 0.00204671 1.04097)
(-0.00202114 0.00200589 1.04162)
(-0.00279982 0.00193358 1.0426)
(-0.00365752 0.00179339 1.0439)
(0.00369678 0.00107272 1.04335)
(0.00285216 0.00115184 1.04197)
(0.00205314 0.00118255 1.04095)
(0.00121921 0.00121267 1.04028)
(0.000401496 0.0012275 1.03994)
(-0.000412584 0.00122806 1.03995)
(-0.0012294 0.00121369 1.04029)
(-0.00206187 0.00118304 1.04097)
(-0.0028586 0.00115054 1.04199)
(-0.00369949 0.00106825 1.04337)
(0.0037559 0.000342058 1.04309)
(0.00289257 0.000377934 1.04167)
(0.00207137 0.000386566 1.04063)
(0.00123386 0.000396097 1.03994)
(0.000406386 0.000400912 1.0396)
(-0.0004169 0.000401349 1.0396)
(-0.00124364 0.000397274 1.03995)
(-0.0020803 0.000388055 1.04064)
(-0.00289971 0.000379399 1.04169)
(-0.00376007 0.00034251 1.04311)
(0.00375481 -0.000358604 1.04309)
(0.00289201 -0.000397413 1.04168)
(0.0020712 -0.00040703 1.04064)
(0.00123384 -0.000417023 1.03994)
(0.000406763 -0.000421622 1.0396)
(-0.000416249 -0.000421007 1.0396)
(-0.00124296 -0.000415441 1.03995)
(-0.00207957 -0.000404719 1.04064)
(-0.00289909 -0.000394709 1.04169)
(-0.00375981 -0.000356735 1.04311)
(0.00369333 -0.00108471 1.04336)
(0.00284966 -0.00116847 1.04198)
(0.00205204 -0.00120186 1.04096)
(0.00121909 -0.00123293 1.04028)
(0.000402426 -0.00124748 1.03995)
(-0.000410722 -0.00124685 1.03995)
(-0.00122714 -0.00123108 1.04029)
(-0.00205981 -0.00119906 1.04097)
(-0.00285699 -0.00116535 1.04199)
(-0.00369882 -0.00108224 1.04337)
(0.00365063 -0.00181041 1.04389)
(0.00278996 -0.00195107 1.04259)
(0.00201074 -0.00202354 1.04162)
(0.00118822 -0.00206442 1.04097)
(0.000393068 -0.00208281 1.04064)
(-0.000400049 -0.00208218 1.04064)
(-0.00119513 -0.00206253 1.04097)
(-0.00201782 -0.00202066 1.04162)
(-0.00279725 -0.00194758 1.0426)
(-0.00365649 -0.00180714 1.0439)
(0.00331728 -0.00266796 1.04469)
(0.00266008 -0.00267227 1.0435)
(0.00193859 -0.00280153 1.04259)
(0.00115576 -0.00285995 1.04199)
(0.000384457 -0.00290078 1.04169)
(-0.000390167 -0.00290018 1.04169)
(-0.00116149 -0.00285821 1.04199)
(-0.0019447 -0.00279866 1.0426)
(-0.00266694 -0.0026685 1.0435)
(-0.00332334 -0.00266364 1.0447)
(0.00355166 -0.00356219 1.04579)
(0.00265587 -0.0033256 1.0447)
(0.00179921 -0.00365793 1.0439)
(0.00107392 -0.00369949 1.04337)
(0.000347699 -0.00375973 1.0431)
(-0.000352184 -0.0037594 1.04311)
(-0.00107842 -0.00369843 1.04337)
(-0.00180416 -0.0036562 1.0439)
(-0.00266176 -0.00332283 1.0447)
(-0.00355783 -0.00355811 1.04579)
(0.00235368 0.00234377 1.05218)
(0.00191461 0.00232903 1.05116)
(0.00131314 0.00261611 1.05042)
(0.000793764 0.00264538 1.04993)
(0.000248211 0.00271826 1.04969)
(-0.000250843 0.00271746 1.04969)
(-0.000790428 0.00264181 1.04994)
(-0.00129746 0.00260675 1.05044)
(-0.0019313 0.00232023 1.05119)
(-0.00234624 0.00233182 1.05223)
(0.00233596 0.00190246 1.05115)
(0.00195407 0.00194332 1.05002)
(0.00140934 0.00205081 1.04917)
(0.000845815 0.00208018 1.04861)
(0.000281807 0.00211909 1.04832)
(-0.000285251 0.00211891 1.04833)
(-0.000846382 0.00208 1.04861)
(-0.00140155 0.00204596 1.04919)
(-0.00194535 0.00192827 1.05005)
(-0.00233418 0.00191316 1.05119)
(0.00262611 0.0013026 1.05041)
(0.00206219 0.00139916 1.04917)
(0.00148375 0.00147305 1.04824)
(0.000878738 0.00150885 1.04763)
(0.000293291 0.00152884 1.04732)
(-0.00029682 0.00152853 1.04732)
(-0.000880585 0.00150776 1.04763)
(-0.00148571 0.00146886 1.04825)
(-0.00206386 0.00138511 1.04919)
(-0.00262254 0.00128051 1.05044)
(0.0026552 0.000787534 1.04992)
(0.00209108 0.000839186 1.0486)
(0.00151918 0.00087082 1.04762)
(0.000906727 0.000898599 1.04698)
(0.00030228 0.000911096 1.04666)
(-0.00030721 0.000910488 1.04666)
(-0.000911291 0.000896115 1.04698)
(-0.00152445 0.000865868 1.04763)
(-0.00209758 0.000832085 1.04861)
(-0.00265768 0.000777383 1.04994)
(0.00272889 0.000243848 1.04968)
(0.00212936 0.000277023 1.04832)
(0.0015384 0.000287694 1.04732)
(0.000919146 0.000296064 1.04666)
(0.000304891 0.000298681 1.04633)
(-0.000311624 0.000298077 1.04633)
(-0.000925376 0.000294139 1.04666)
(-0.00154495 0.000284363 1.04732)
(-0.00213587 0.000273331 1.04833)
(-0.00273295 0.000240199 1.04969)
(0.00272774 -0.000253948 1.04968)
(0.00212883 -0.000288893 1.04832)
(0.00153761 -0.00030105 1.04732)
(0.000918106 -0.000311899 1.04666)
(0.000304317 -0.000316446 1.04633)
(-0.000311809 -0.000316602 1.04633)
(-0.000925394 -0.000312652 1.04666)
(-0.00154462 -0.000302435 1.04732)
(-0.00213547 -0.000290606 1.04833)
(-0.00273291 -0.000256604 1.04969)
(0.00265162 -0.000792362 1.04993)
(0.0020892 -0.000848891 1.04861)
(0.00151629 -0.000883946 1.04763)
(0.000903562 -0.000914684 1.04698)
(0.000300236 -0.000928948 1.04666)
(-0.000307834 -0.000928826 1.04666)
(-0.000910924 -0.000914334 1.04698)
(-0.00152365 -0.000883574 1.04763)
(-0.00209662 -0.000848936 1.04861)
(-0.00265761 -0.000793527 1.04994)
(0.00261568 -0.00129787 1.05043)
(0.00205441 -0.0014035 1.04918)
(0.00147696 -0.00148776 1.04825)
(0.000873192 -0.00152674 1.04763)
(0.000290509 -0.00154703 1.04732)
(-0.000297467 -0.00154658 1.04732)
(-0.000880092 -0.00152545 1.04763)
(-0.00148413 -0.00148591 1.04825)
(-0.00206211 -0.00140147 1.04918)
(-0.00262228 -0.00129678 1.05043)
(0.00232757 -0.00193223 1.05118)
(0.00193589 -0.00194732 1.05004)
(0.0013932 -0.00206531 1.04918)
(0.00083938 -0.00209887 1.04861)
(0.00027971 -0.00213675 1.04833)
(-0.000285459 -0.00213606 1.04833)
(-0.000845141 -0.0020968 1.04861)
(-0.00139945 -0.00206199 1.04919)
(-0.00194346 -0.00194316 1.05005)
(-0.00233462 -0.00192815 1.05118)
(0.00233778 -0.00234805 1.05223)
(0.00192142 -0.00233666 1.05118)
(0.00128934 -0.00262396 1.05043)
(0.000785146 -0.0026588 1.04994)
(0.000246961 -0.00273337 1.04969)
(-0.000250916 -0.00273263 1.04969)
(-0.000789071 -0.00265649 1.04994)
(-0.00129384 -0.0026204 1.05043)
(-0.00192758 -0.00233157 1.05119)
(-0.00234482 -0.0023421 1.05223)
(0.00183811 0.00181508 1.05669)
(0.00161662 0.00186413 1.05571)
(0.00109329 0.00203349 1.05501)
(0.000669537 0.00203302 1.05455)
(0.000199691 0.00209309 1.05431)
(-0.000211636 0.00209346 1.05432)
(-0.000678972 0.00203299 1.05455)
(-0.00108978 0.00202872 1.05502)
(-0.00163083 0.00185664 1.05573)
(-0.00183287 0.00180316 1.05672)
(0.00188644 0.00159146 1.05571)
(0.0015961 0.00157152 1.05463)
(0.00112645 0.00162777 1.05383)
(0.000683592 0.00161992 1.05329)
(0.000223964 0.00164702 1.05303)
(-0.000233844 0.00164753 1.05303)
(-0.000693126 0.00162342 1.0533)
(-0.00113027 0.00163054 1.05384)
(-0.00159724 0.00156407 1.05465)
(-0.00188631 0.00159702 1.05573)
(0.00205868 0.00107428 1.05501)
(0.00165297 0.00110656 1.05382)
(0.00118278 0.00116178 1.05295)
(0.000705226 0.00117636 1.05237)
(0.000234683 0.00119056 1.05208)
(-0.000243103 0.00119061 1.05208)
(-0.000712875 0.00117722 1.05237)
(-0.00119277 0.00116273 1.05295)
(-0.00166455 0.00110104 1.05384)
(-0.00206034 0.00106079 1.05502)
(0.00205819 0.000657833 1.05454)
(0.00164414 0.000670505 1.05329)
(0.00119691 0.000690275 1.05236)
(0.0007179 0.000702624 1.05175)
(0.000239659 0.000708874 1.05145)
(-0.000248702 0.000708603 1.05145)
(-0.000726649 0.000701503 1.05176)
(-0.00120715 0.000688279 1.05237)
(-0.00165697 0.000669417 1.0533)
(-0.00206554 0.000656697 1.05455)
(0.00211883 0.000192046 1.0543)
(0.00167033 0.000215174 1.05302)
(0.00121029 0.000224702 1.05207)
(0.000724119 0.000229047 1.05145)
(0.000240417 0.000229769 1.05114)
(-0.000250341 0.000229553 1.05114)
(-0.00073355 0.000228288 1.05145)
(-0.00122024 0.000223373 1.05208)
(-0.00168064 0.000214828 1.05302)
(-0.00212657 0.000193531 1.05431)
(0.00211764 -0.000215128 1.0543)
(0.00166994 -0.000238833 1.05302)
(0.0012097 -0.000249066 1.05207)
(0.000723422 -0.000255249 1.05145)
(0.000240209 -0.000257117 1.05114)
(-0.000250263 -0.000257025 1.05114)
(-0.000733303 -0.000255264 1.05145)
(-0.00121955 -0.000249319 1.05208)
(-0.00167983 -0.000239072 1.05302)
(-0.00212626 -0.00021588 1.05431)
(0.00205513 -0.000678552 1.05454)
(0.0016442 -0.000694296 1.05329)
(0.00119528 -0.000715307 1.05236)
(0.000715842 -0.000729603 1.05175)
(0.000238682 -0.000736888 1.05145)
(-0.000248483 -0.000736574 1.05145)
(-0.000725525 -0.000728849 1.05175)
(-0.00120531 -0.000714361 1.05237)
(-0.00165465 -0.000693599 1.05329)
(-0.00206468 -0.000679016 1.05455)
(0.00204824 -0.00108539 1.05501)
(0.00164963 -0.00112813 1.05383)
(0.00117956 -0.00119161 1.05295)
(0.000701869 -0.00120699 1.05236)
(0.000233571 -0.00122032 1.05207)
(-0.000242475 -0.0012198 1.05207)
(-0.000710954 -0.00120534 1.05237)
(-0.0011892 -0.0011893 1.05295)
(-0.00166041 -0.00112564 1.05383)
(-0.00205855 -0.0010842 1.05502)
(0.00187366 -0.00162492 1.05572)
(0.00158108 -0.00159312 1.05464)
(0.00111646 -0.00166102 1.05383)
(0.000682014 -0.00165427 1.05329)
(0.000224616 -0.00167825 1.05302)
(-0.000232107 -0.00167751 1.05302)
(-0.000689671 -0.00165198 1.05329)
(-0.00112519 -0.00165735 1.05383)
(-0.00159186 -0.00158847 1.05464)
(-0.00188453 -0.00162066 1.05572)
(0.00181828 -0.00182916 1.05671)
(0.00161357 -0.00188315 1.05572)
(0.00107561 -0.00205672 1.05501)
(0.000668541 -0.0020621 1.05454)
(0.000203058 -0.00212275 1.05431)
(-0.000208644 -0.00212205 1.05431)
(-0.000674254 -0.00205988 1.05454)
(-0.00108214 -0.00205321 1.05501)
(-0.0016227 -0.00187787 1.05572)
(-0.0018287 -0.00182226 1.05671)
(0.00182878 0.00179634 1.06087)
(0.00161972 0.00184625 1.05992)
(0.0010887 0.00193288 1.05924)
(0.00067338 0.00191895 1.05878)
(0.000195767 0.00196314 1.05855)
(-0.000216099 0.00196382 1.05855)
(-0.000693979 0.00192055 1.05878)
(-0.00109811 0.00193054 1.05924)
(-0.001637 0.00184009 1.05993)
(-0.00182595 0.00178654 1.06089)
(0.00187584 0.00158376 1.05991)
(0.00156192 0.00152603 1.05887)
(0.0010884 0.00155374 1.0581)
(0.000665435 0.00152717 1.05758)
(0.000212385 0.00154613 1.05732)
(-0.000229888 0.00154676 1.05732)
(-0.000683737 0.00153223 1.05759)
(-0.00110271 0.00156155 1.0581)
(-0.00157216 0.001527 1.05888)
(-0.00187699 0.00159157 1.05993)
(0.00196408 0.00106196 1.05923)
(0.00158928 0.00105932 1.05809)
(0.00113224 0.00110171 1.05725)
(0.000680321 0.00110068 1.0567)
(0.00022312 0.00111119 1.05642)
(-0.000238323 0.0011117 1.05642)
(-0.000694311 0.00110341 1.0567)
(-0.00114818 0.00110742 1.05726)
(-0.0016066 0.00106321 1.0581)
(-0.00196826 0.00106047 1.05924)
(0.00195078 0.000655012 1.05877)
(0.00156093 0.000644803 1.05758)
(0.00113057 0.000657278 1.05669)
(0.000680204 0.000656792 1.05611)
(0.000225391 0.000659383 1.05582)
(-0.000239715 0.00065993 1.05582)
(-0.000693396 0.000658376 1.05611)
(-0.00114372 0.000659907 1.0567)
(-0.00157565 0.000650966 1.05758)
(-0.00195876 0.000663768 1.05878)
(0.00199562 0.000182765 1.05854)
(0.00157844 0.000197635 1.05732)
(0.00114005 0.000206715 1.05641)
(0.000682787 0.000208201 1.05582)
(0.000226102 0.000208769 1.05552)
(-0.000239266 0.000209475 1.05552)
(-0.000694732 0.000210201 1.05582)
(-0.00115138 0.000209688 1.05642)
(-0.00158905 0.00020263 1.05732)
(-0.00200251 0.000190591 1.05855)
(0.0019944 -0.000223067 1.05854)
(0.00157772 -0.000238835 1.05732)
(0.00113959 -0.000248717 1.05641)
(0.000682674 -0.000251103 1.05582)
(0.00022672 -0.000251198 1.05552)
(-0.000238372 -0.000250397 1.05552)
(-0.000693633 -0.000249 1.05582)
(-0.00114978 -0.000245721 1.05642)
(-0.00158741 -0.000235112 1.05732)
(-0.00200185 -0.000219435 1.05855)
(0.00194892 -0.000695676 1.05877)
(0.00156111 -0.00068719 1.05758)
(0.00112969 -0.000699398 1.05669)
(0.000680124 -0.000699717 1.05611)
(0.000226845 -0.000701934 1.05582)
(-0.000237062 -0.000701065 1.05582)
(-0.000689806 -0.000697346 1.05611)
(-0.00113931 -0.000695976 1.0567)
(-0.00157077 -0.000683279 1.05758)
(-0.00195684 -0.000692441 1.05878)
(0.00195626 -0.00109471 1.05923)
(0.00158863 -0.00110138 1.0581)
(0.00113186 -0.00114846 1.05725)
(0.000680125 -0.00114591 1.05669)
(0.000225637 -0.00115451 1.05642)
(-0.000233958 -0.00115343 1.05642)
(-0.000688381 -0.00114282 1.0567)
(-0.00114029 -0.00114385 1.05726)
(-0.00159811 -0.00109603 1.0581)
(-0.00196469 -0.00109055 1.05924)
(0.00186368 -0.0016305 1.05992)
(0.0015516 -0.0015677 1.05888)
(0.00108513 -0.00160393 1.0581)
(0.00066921 -0.00157496 1.05758)
(0.000217549 -0.00158941 1.05732)
(-0.000223418 -0.00158814 1.05732)
(-0.000675096 -0.00157108 1.05758)
(-0.00109199 -0.00159773 1.0581)
(-0.00156091 -0.00155989 1.05888)
(-0.00187256 -0.00162312 1.05993)
(0.00180921 -0.00182328 1.06088)
(0.00161503 -0.00187584 1.05992)
(0.00108049 -0.00196757 1.05923)
(0.000680235 -0.00195864 1.05878)
(0.000204747 -0.0020021 1.05855)
(-0.000207527 -0.00200082 1.05855)
(-0.000683018 -0.0019547 1.05878)
(-0.00108403 -0.00196125 1.05924)
(-0.00162212 -0.00186716 1.05993)
(-0.00181824 -0.0018123 1.06089)
(0.0019754 0.00192607 1.0654)
(0.00170307 0.00196685 1.06444)
(0.00114461 0.00202514 1.06375)
(0.000712149 0.00201929 1.06329)
(0.00020642 0.00205772 1.06306)
(-0.000229734 0.0020601 1.06306)
(-0.000737919 0.00202742 1.06329)
(-0.00116193 0.00203457 1.06376)
(-0.00172298 0.00197553 1.06445)
(-0.00197641 0.00193279 1.0654)
(0.0020128 0.00165778 1.06444)
(0.00164566 0.00159752 1.0634)
(0.00114581 0.00162567 1.06263)
(0.000703173 0.00160134 1.06211)
(0.000221521 0.00162031 1.06186)
(-0.000239973 0.00162166 1.06186)
(-0.000722351 0.00160902 1.06212)
(-0.00116283 0.00163963 1.06263)
(-0.00165848 0.00161003 1.0634)
(-0.002014 0.0016757 1.06445)
(0.00206914 0.00111656 1.06375)
(0.00167214 0.00111104 1.06263)
(0.00119076 0.00115341 1.06179)
(0.000720231 0.00114926 1.06124)
(0.000234904 0.00116094 1.06097)
(-0.000249542 0.0011622 1.06097)
(-0.000733527 0.00115416 1.06124)
(-0.00120444 0.00116348 1.0618)
(-0.00168661 0.0011234 1.06263)
(-0.00207247 0.00112733 1.06376)
(0.00206133 0.000693994 1.06329)
(0.00164375 0.00067904 1.06211)
(0.00118538 0.000692686 1.06124)
(0.00071586 0.000687586 1.06067)
(0.000237002 0.000690687 1.06038)
(-0.000249258 0.000692024 1.06038)
(-0.000726143 0.000691816 1.06067)
(-0.0011946 0.000699469 1.06125)
(-0.00165307 0.00069078 1.06212)
(-0.0020651 0.000710248 1.0633)
(0.00209719 0.000193849 1.06307)
(0.0016596 0.000204971 1.06186)
(0.00119564 0.000215547 1.06097)
(0.000718665 0.000216619 1.06038)
(0.000239354 0.000218502 1.06009)
(-0.000248458 0.000219995 1.06009)
(-0.000726486 0.000220862 1.06038)
(-0.00120166 0.000221955 1.06097)
(-0.00166381 0.000214057 1.06186)
(-0.00209847 0.000206165 1.06307)
(0.00209663 -0.000236012 1.06307)
(0.00165818 -0.000249112 1.06186)
(0.00119505 -0.000260917 1.06097)
(0.000719109 -0.000262191 1.06038)
(0.000240438 -0.000262371 1.06009)
(-0.00024698 -0.000261195 1.06009)
(-0.0007245 -0.000258706 1.06038)
(-0.00119943 -0.000255696 1.06097)
(-0.00166136 -0.000242617 1.06186)
(-0.00209706 -0.000228908 1.06307)
(0.00206104 -0.000738625 1.0633)
(0.00164326 -0.000724883 1.06212)
(0.0011849 -0.000737371 1.06124)
(0.000717106 -0.000732258 1.06067)
(0.000240364 -0.000733861 1.06038)
(-0.00024478 -0.000732773 1.06038)
(-0.000720857 -0.000729405 1.06067)
(-0.00118789 -0.000733033 1.06125)
(-0.00164537 -0.000719128 1.06212)
(-0.00206101 -0.000732762 1.0633)
(0.00206584 -0.00115678 1.06376)
(0.00167223 -0.00115803 1.06263)
(0.00119194 -0.00120181 1.0618)
(0.000722469 -0.00119422 1.06125)
(0.000240004 -0.0012033 1.06097)
(-0.00024255 -0.00120235 1.06097)
(-0.000724553 -0.0011914 1.06125)
(-0.0011934 -0.00119727 1.0618)
(-0.00167381 -0.00115251 1.06264)
(-0.00206534 -0.00115167 1.06376)
(0.00200542 -0.00171129 1.06445)
(0.00164036 -0.00164758 1.06341)
(0.00114832 -0.00167836 1.06263)
(0.000710835 -0.00164779 1.06212)
(0.000229884 -0.00166084 1.06186)
(-0.000230409 -0.00165987 1.06186)
(-0.0007109 -0.00164473 1.06212)
(-0.00114843 -0.0016733 1.06263)
(-0.00164158 -0.00164058 1.06341)
(-0.00200479 -0.0017043 1.06445)
(0.00196361 -0.00196762 1.06541)
(0.00170416 -0.00200591 1.06445)
(0.0011487 -0.00206555 1.06376)
(0.000726794 -0.00205929 1.0633)
(0.000219784 -0.00209325 1.06307)
(-0.000218057 -0.00209236 1.06307)
(-0.00072451 -0.00205665 1.0633)
(-0.00114572 -0.00206095 1.06376)
(-0.00170343 -0.0019994 1.06445)
(-0.00196392 -0.00195774 1.06541)
(0.00206887 0.00204339 1.07028)
(0.00173876 0.00208403 1.06932)
(0.00117102 0.00214079 1.06862)
(0.000730448 0.00214593 1.06816)
(0.000210151 0.00218072 1.06792)
(-0.000237656 0.00218138 1.06793)
(-0.000760606 0.0021497 1.06816)
(-0.00119492 0.00214477 1.06863)
(-0.00176425 0.00208683 1.06932)
(-0.00207736 0.00204794 1.07029)
(0.00210028 0.00171574 1.06932)
(0.00169667 0.00167099 1.06827)
(0.00118276 0.00170886 1.06749)
(0.000724546 0.00169233 1.06698)
(0.000223476 0.00171232 1.06672)
(-0.000249328 0.0017128 1.06672)
(-0.000750108 0.00169725 1.06698)
(-0.00120628 0.00171943 1.0675)
(-0.00171688 0.0016823 1.06828)
(-0.00210918 0.00173202 1.06933)
(0.00215419 0.00116234 1.06863)
(0.00173138 0.0011664 1.0675)
(0.00123127 0.00121286 1.06666)
(0.000745155 0.00121068 1.06611)
(0.000238396 0.00122438 1.06583)
(-0.000261182 0.00122566 1.06583)
(-0.000765835 0.00121548 1.06611)
(-0.00125051 0.00122242 1.06666)
(-0.00175092 0.00117957 1.0675)
(-0.00216449 0.00117557 1.06864)
(0.00215677 0.00072568 1.06817)
(0.00170987 0.000713294 1.06698)
(0.0012277 0.000730968 1.06611)
(0.000740435 0.000725747 1.06553)
(0.000241202 0.000730864 1.06524)
(-0.000260984 0.000732633 1.06524)
(-0.000757734 0.000731344 1.06553)
(-0.00124277 0.000739255 1.06611)
(-0.00172434 0.000725877 1.06699)
(-0.00216645 0.000741829 1.06817)
(0.00218866 0.000205749 1.06794)
(0.00172635 0.000215203 1.06673)
(0.00123993 0.000227548 1.06583)
(0.000745211 0.000229562 1.06525)
(0.000245366 0.000233276 1.06495)
(-0.000260817 0.000235249 1.06495)
(-0.000759358 0.000235253 1.06525)
(-0.00125208 0.000235791 1.06584)
(-0.00173714 0.000225385 1.06673)
(-0.00219689 0.000217381 1.06794)
(0.00218736 -0.000241261 1.06794)
(0.00172439 -0.000254891 1.06673)
(0.00123956 -0.000268465 1.06584)
(0.000746199 -0.000269531 1.06525)
(0.000246915 -0.000270277 1.06495)
(-0.00025906 -0.000268767 1.06496)
(-0.000757256 -0.000265103 1.06525)
(-0.00125013 -0.00026188 1.06584)
(-0.00173505 -0.000247188 1.06673)
(-0.0021959 -0.000233846 1.06794)
(0.00215511 -0.000764708 1.06818)
(0.00170798 -0.000754037 1.06699)
(0.00122812 -0.000769911 1.06612)
(0.000743506 -0.000763686 1.06554)
(0.000246163 -0.000766184 1.06525)
(-0.000255644 -0.000764926 1.06525)
(-0.000752553 -0.000760404 1.06554)
(-0.00123694 -0.000764882 1.06612)
(-0.00171759 -0.000747291 1.06699)
(-0.00216358 -0.000757794 1.06818)
(0.00215132 -0.00119831 1.06864)
(0.00173114 -0.00120703 1.06751)
(0.00123419 -0.00125212 1.06667)
(0.000749937 -0.00124598 1.06612)