/*--------------------------------*- C++ -*----------------------------------*\
| =========                 |                                                 |
| \\      /  F ield         | OpenFOAM: The Open Source CFD Toolbox           |
|  \\    /   O peration     | Version:  2406                                  |
|   \\  /    A nd           | Website:  www.openfoam.com                      |
|    \\/     M anipulation  |                                                 |
\*---------------------------------------------------------------------------*/
FoamFile
{
    version     2.0;
    format      ascii;
    arch        "LSB;label=32;scalar=64";
    class       volVectorField;
    location    "1.2";
    object      U;
}
// * * * * * * * * * * * * * * * * * * * * * * * * * * * * * * * * * * * * * //

dimensions      [0 1 -1 0 0 0 0];

internalField   nonuniform List<vector> 
16000
(
(0.153132 0.153132 1.11474)
(0.117573 0.168169 1.1542)
(0.072459 0.17688 1.17285)
(0.0244946 0.180953 1.18018)
(-0.0244946 0.180953 1.18018)
(-0.072459 0.17688 1.17285)
(-0.117573 0.168169 1.1542)
(-0.153132 0.153132 1.11474)
(0.168169 0.117573 1.1542)
(0.126109 0.126109 1.18728)
(0.0766337 0.131081 1.19757)
(0.0257137 0.133402 1.19978)
(-0.0257137 0.133402 1.19978)
(-0.0766337 0.131081 1.19757)
(-0.126109 0.126109 1.18728)
(-0.168169 0.117573 1.1542)
(0.17688 0.072459 1.17285)
(0.131081 0.0766337 1.19757)
(0.0792027 0.0792027 1.20176)
(0.0264749 0.0803911 1.20065)
(-0.0264749 0.0803911 1.20065)
(-0.0792027 0.0792027 1.20176)
(-0.131081 0.0766337 1.19757)
(-0.17688 0.072459 1.17285)
(0.180953 0.0244946 1.18018)
(0.133402 0.0257137 1.19978)
(0.0803911 0.0264749 1.20065)
(0.0268183 0.0268183 1.1979)
(-0.0268183 0.0268183 1.1979)
(-0.0803911 0.0264749 1.20065)
(-0.133402 0.0257137 1.19978)
(-0.180953 0.0244946 1.18018)
(0.180953 -0.0244946 1.18018)
(0.133402 -0.0257137 1.19978)
(0.0803911 -0.0264749 1.20065)
(0.0268183 -0.0268183 1.1979)
(-0.0268183 -0.0268183 1.1979)
(-0.0803911 -0.0264749 1.20065)
(-0.133402 -0.0257137 1.19978)
(-0.180953 -0.0244946 1.18018)
(0.17688 -0.072459 1.17285)
(0.131081 -0.0766337 1.19757)
(0.0792027 -0.0792027 1.20176)
(0.0264749 -0.0803911 1.20065)
(-0.0264749 -0.0803911 1.20065)
(-0.0792027 -0.0792027 1.20176)
(-0.131081 -0.0766337 1.19757)
(-0.17688 -0.072459 1.17285)
(0.168169 -0.117573 1.1542)
(0.126109 -0.126109 1.18728)
(0.0766337 -0.131081 1.19757)
(0.0257137 -0.133402 1.19978)
(-0.0257137 -0.133402 1.19978)
(-0.0766337 -0.131081 1.19757)
(-0.126109 -0.126109 1.18728)
(-0.168169 -0.117573 1.1542)
(0.153132 -0.153132 1.11474)
(0.117573 -0.168169 1.1542)
(0.072459 -0.17688 1.17285)
(0.0244946 -0.180953 1.18018)
(-0.0244946 -0.180953 1.18018)
(-0.072459 -0.17688 1.17285)
(-0.117573 -0.168169 1.1542)
(-0.153132 -0.153132 1.11474)
(0.0494154 0.0494154 1.29062)
(0.0414003 0.0615755 1.3895)
(0.0279271 0.0703803 1.44408)
(0.00984083 0.0751711 1.46809)
(-0.00984083 0.0751711 1.46809)
(-0.0279271 0.0703803 1.44408)
(-0.0414003 0.0615755 1.3895)
(-0.0494154 0.0494154 1.29062)
(0.0615755 0.0414003 1.3895)
(0.0531611 0.0531611 1.48728)
(0.0357288 0.0616406 1.53241)
(0.0125458 0.0660227 1.54992)
(-0.0125458 0.0660227 1.54992)
(-0.0357288 0.0616406 1.53241)
(-0.0531611 0.0531611 1.48728)
(-0.0615755 0.0414003 1.3895)
(0.0703803 0.0279271 1.44408)
(0.0616406 0.0357288 1.53241)
(0.0413007 0.0413007 1.57006)
(0.0144349 0.0441146 1.5832)
(-0.0144349 0.0441146 1.5832)
(-0.0413007 0.0413007 1.57006)
(-0.0616406 0.0357288 1.53241)
(-0.0703803 0.0279271 1.44408)
(0.075171 0.00984083 1.46809)
(0.0660227 0.0125458 1.54992)
(0.0441146 0.0144349 1.5832)
(0.0153734 0.0153734 1.59386)
(-0.0153734 0.0153734 1.59386)
(-0.0441146 0.0144349 1.5832)
(-0.0660227 0.0125458 1.54992)
(-0.0751711 0.00984083 1.46809)
(0.075171 -0.00984083 1.46809)
(0.0660227 -0.0125458 1.54992)
(0.0441146 -0.0144349 1.5832)
(0.0153734 -0.0153734 1.59386)
(-0.0153734 -0.0153734 1.59386)
(-0.0441146 -0.0144349 1.5832)
(-0.0660227 -0.0125458 1.54992)
(-0.0751711 -0.00984083 1.46809)
(0.0703803 -0.027927 1.44408)
(0.0616406 -0.0357288 1.53241)
(0.0413007 -0.0413007 1.57006)
(0.0144349 -0.0441146 1.5832)
(-0.0144349 -0.0441146 1.5832)
(-0.0413007 -0.0413007 1.57006)
(-0.0616406 -0.0357288 1.53241)
(-0.0703803 -0.027927 1.44408)
(0.0615755 -0.0414003 1.3895)
(0.0531611 -0.0531611 1.48728)
(0.0357288 -0.0616406 1.53241)
(0.0125458 -0.0660227 1.54992)
(-0.0125458 -0.0660227 1.54992)
(-0.0357288 -0.0616406 1.53241)
(-0.0531611 -0.0531611 1.48728)
(-0.0615755 -0.0414003 1.3895)
(0.0494154 -0.0494154 1.29062)
(0.0414003 -0.0615755 1.3895)
(0.0279271 -0.0703803 1.44408)
(0.00984083 -0.075171 1.46809)
(-0.00984083 -0.075171 1.46809)
(-0.0279271 -0.0703803 1.44408)
(-0.0414003 -0.0615755 1.3895)
(-0.0494154 -0.0494154 1.29062)
(0.0295334 0.0295334 1.18369)
(0.0263057 0.0381217 1.33605)
(0.0179588 0.0440247 1.43119)
(0.00638113 0.0472238 1.47636)
(-0.00638113 0.0472238 1.47636)
(-0.0179588 0.0440247 1.43119)
(-0.0263057 0.0381217 1.33605)
(-0.0295334 0.0295334 1.18369)
(0.0381217 0.0263057 1.33605)
(0.03387 0.03387 1.50686)
(0.0231033 0.0393329 1.60045)
(0.00819889 0.0422271 1.64149)
(-0.00819889 0.0422271 1.64149)
(-0.0231033 0.0393329 1.60045)
(-0.03387 0.03387 1.50686)
(-0.0381217 0.0263057 1.33605)
(0.0440247 0.0179588 1.43119)
(0.0393329 0.0231033 1.60045)
(0.0268026 0.0268026 1.68906)
(0.00948465 0.028713 1.72654)
(-0.00948465 0.028713 1.72654)
(-0.0268026 0.0268026 1.68906)
(-0.0393329 0.0231033 1.60045)
(-0.0440247 0.0179588 1.43119)
(0.0472238 0.00638113 1.47636)
(0.042227 0.00819889 1.64149)
(0.028713 0.00948465 1.72654)
(0.0101528 0.0101528 1.76219)
(-0.0101528 0.0101528 1.76219)
(-0.028713 0.00948465 1.72654)
(-0.0422271 0.00819889 1.64149)
(-0.0472238 0.00638113 1.47636)
(0.0472238 -0.00638113 1.47636)
(0.042227 -0.00819889 1.64149)
(0.028713 -0.00948464 1.72654)
(0.0101528 -0.0101528 1.76219)
(-0.0101528 -0.0101528 1.76219)
(-0.028713 -0.00948464 1.72654)
(-0.0422271 -0.00819889 1.64149)
(-0.0472238 -0.00638113 1.47636)
(0.0440247 -0.0179588 1.43119)
(0.0393329 -0.0231033 1.60045)
(0.0268026 -0.0268026 1.68906)
(0.00948465 -0.028713 1.72654)
(-0.00948465 -0.028713 1.72654)
(-0.0268026 -0.0268026 1.68906)
(-0.0393329 -0.0231033 1.60045)
(-0.0440247 -0.0179588 1.43119)
(0.0381217 -0.0263057 1.33605)
(0.03387 -0.03387 1.50686)
(0.0231033 -0.0393329 1.60045)
(0.00819889 -0.042227 1.64149)
(-0.00819889 -0.042227 1.64149)
(-0.0231033 -0.0393329 1.60045)
(-0.03387 -0.03387 1.50686)
(-0.0381217 -0.0263057 1.33605)
(0.0295334 -0.0295334 1.18369)
(0.0263057 -0.0381217 1.33605)
(0.0179588 -0.0440247 1.43119)
(0.00638113 -0.0472238 1.47636)
(-0.00638113 -0.0472238 1.47636)
(-0.0179588 -0.0440247 1.43119)
(-0.0263057 -0.0381217 1.33605)
(-0.0295334 -0.0295334 1.18369)
(0.00607788 0.00607788 1.17735)
(0.00678721 0.00932593 1.34012)
(0.00531535 0.0121436 1.44756)
(0.00200434 0.0137879 1.50053)
(-0.00200434 0.0137879 1.50053)
(-0.00531535 0.0121436 1.44756)
(-0.00678721 0.00932593 1.34012)
(-0.00607788 0.00607788 1.17735)
(0.00932593 0.00678721 1.34012)
(0.010642 0.010642 1.53329)
(0.0082524 0.0137676 1.64786)
(0.00308277 0.0154575 1.70082)
(-0.00308277 0.0154575 1.70082)
(-0.0082524 0.0137676 1.64786)
(-0.010642 0.010642 1.53329)
(-0.00932593 0.00678721 1.34012)
(0.0121436 0.00531536 1.44756)
(0.0137676 0.0082524 1.64786)
(0.0104758 0.0104758 1.76219)
(0.00386311 0.0115575 1.81303)
(-0.00386311 0.0115575 1.81303)
(-0.0104758 0.0104758 1.76219)
(-0.0137676 0.0082524 1.64786)
(-0.0121436 0.00531536 1.44756)
(0.0137879 0.00200435 1.50053)
(0.0154575 0.00308277 1.70082)
(0.0115575 0.00386311 1.81303)
(0.00421153 0.00421154 1.8613)
(-0.00421153 0.00421154 1.8613)
(-0.0115575 0.00386311 1.81303)
(-0.0154575 0.00308277 1.70082)
(-0.0137879 0.00200435 1.50053)
(0.0137879 -0.00200434 1.50053)
(0.0154575 -0.00308276 1.70082)
(0.0115575 -0.0038631 1.81303)
(0.00421153 -0.00421153 1.8613)
(-0.00421153 -0.00421153 1.8613)
(-0.0115575 -0.0038631 1.81303)
(-0.0154575 -0.00308276 1.70082)
(-0.0137879 -0.00200434 1.50053)
(0.0121436 -0.00531535 1.44756)
(0.0137676 -0.00825239 1.64786)
(0.0104758 -0.0104758 1.76219)
(0.00386311 -0.0115575 1.81303)
(-0.00386311 -0.0115575 1.81303)
(-0.0104758 -0.0104758 1.76219)
(-0.0137676 -0.00825239 1.64786)
(-0.0121436 -0.00531535 1.44756)
(0.00932593 -0.00678721 1.34012)
(0.010642 -0.0106419 1.53329)
(0.0082524 -0.0137676 1.64786)
(0.00308277 -0.0154575 1.70082)
(-0.00308277 -0.0154575 1.70082)
(-0.0082524 -0.0137676 1.64786)
(-0.010642 -0.0106419 1.53329)
(-0.00932593 -0.00678721 1.34012)
(0.00607788 -0.00607788 1.17735)
(0.00678721 -0.00932593 1.34012)
(0.00531535 -0.0121436 1.44756)
(0.00200434 -0.0137879 1.50053)
(-0.00200434 -0.0137879 1.50053)
(-0.00531535 -0.0121436 1.44756)
(-0.00678721 -0.00932593 1.34012)
(-0.00607788 -0.00607788 1.17735)
(0.00420929 0.00420929 1.15879)
(0.00417758 0.00573707 1.32761)
(0.00305281 0.00697193 1.44156)
(0.00112169 0.00767951 1.4987)
(-0.00112169 0.00767951 1.4987)
(-0.00305281 0.00697193 1.44156)
(-0.00417758 0.00573707 1.32761)
(-0.00420929 0.00420929 1.15879)
(0.00573707 0.00417758 1.32761)
(0.0058271 0.00582711 1.53244)
(0.00432306 0.00720708 1.65824)
(0.00159285 0.00796351 1.71788)
(-0.00159285 0.00796351 1.71788)
(-0.00432306 0.00720708 1.65824)
(-0.0058271 0.0058271 1.53244)
(-0.00573707 0.00417758 1.32761)
(0.00697193 0.00305281 1.44156)
(0.00720708 0.00432306 1.65824)
(0.00533722 0.00533723 1.7871)
(0.00194952 0.00580511 1.84585)
(-0.00194952 0.00580511 1.84585)
(-0.00533722 0.00533722 1.7871)
(-0.00720708 0.00432306 1.65824)
(-0.00697194 0.00305281 1.44156)
(0.00767951 0.00112169 1.4987)
(0.00796351 0.00159285 1.71788)
(0.00580511 0.00194952 1.84585)
(0.00208328 0.00208329 1.90127)
(-0.00208328 0.00208329 1.90127)
(-0.00580511 0.00194952 1.84585)
(-0.00796351 0.00159285 1.71788)
(-0.00767951 0.00112169 1.4987)
(0.00767951 -0.00112169 1.4987)
(0.00796351 -0.00159285 1.71788)
(0.00580511 -0.00194951 1.84585)
(0.00208328 -0.00208328 1.90127)
(-0.00208328 -0.00208328 1.90127)
(-0.00580511 -0.00194951 1.84585)
(-0.00796351 -0.00159285 1.71788)
(-0.00767951 -0.00112169 1.4987)
(0.00697193 -0.00305281 1.44156)
(0.00720707 -0.00432305 1.65824)
(0.00533722 -0.00533722 1.7871)
(0.00194952 -0.0058051 1.84585)
(-0.00194952 -0.0058051 1.84585)
(-0.00533722 -0.00533722 1.7871)
(-0.00720708 -0.00432305 1.65824)
(-0.00697194 -0.00305281 1.44156)
(0.00573707 -0.00417758 1.32761)
(0.0058271 -0.0058271 1.53244)
(0.00432306 -0.00720707 1.65824)
(0.00159285 -0.00796351 1.71788)
(-0.00159285 -0.00796351 1.71788)
(-0.00432306 -0.00720707 1.65824)
(-0.0058271 -0.0058271 1.53244)
(-0.00573707 -0.00417758 1.32761)
(0.00420928 -0.00420928 1.15879)
(0.00417758 -0.00573707 1.32761)
(0.00305281 -0.00697193 1.44156)
(0.00112169 -0.00767951 1.4987)
(-0.00112169 -0.00767951 1.4987)
(-0.00305281 -0.00697193 1.44156)
(-0.00417758 -0.00573707 1.32761)
(-0.00420929 -0.00420929 1.15879)
(0.00130174 0.00130174 1.15563)
(0.00140465 0.00190345 1.3259)
(0.00109256 0.00244352 1.44189)
(0.000412967 0.00276631 1.50046)
(-0.000412967 0.00276631 1.50046)
(-0.00109256 0.00244352 1.44189)
(-0.00140465 0.00190345 1.3259)
(-0.00130174 0.00130174 1.15563)
(0.00190345 0.00140465 1.3259)
(0.00214529 0.0021453 1.53424)
(0.0016872 0.00280356 1.66415)
(0.000637026 0.00317699 1.72646)
(-0.000637026 0.00317699 1.72646)
(-0.0016872 0.00280356 1.66415)
(-0.0021453 0.0021453 1.53424)
(-0.00190345 0.00140465 1.3259)
(0.00244352 0.00109257 1.44189)
(0.00280356 0.0016872 1.66415)
(0.00219038 0.00219039 1.7989)
(0.000816972 0.0024356 1.86114)
(-0.000816972 0.0024356 1.86114)
(-0.00219038 0.00219038 1.7989)
(-0.00280356 0.0016872 1.66415)
(-0.00244352 0.00109257 1.44189)
(0.00276631 0.00041297 1.50046)
(0.00317699 0.000637029 1.72646)
(0.0024356 0.000816975 1.86114)
(0.000886492 0.000886495 1.91993)
(-0.000886493 0.000886495 1.91993)
(-0.0024356 0.000816975 1.86114)
(-0.00317699 0.000637029 1.72646)
(-0.00276631 0.000412971 1.50046)
(0.00276631 -0.000412964 1.50046)
(0.00317699 -0.000637022 1.72646)
(0.0024356 -0.000816969 1.86114)
(0.000886492 -0.00088649 1.91993)
(-0.000886493 -0.00088649 1.91993)
(-0.0024356 -0.000816969 1.86114)
(-0.00317699 -0.000637022 1.72646)
(-0.00276631 -0.000412964 1.50046)
(0.00244352 -0.00109256 1.44189)
(0.00280356 -0.0016872 1.66415)
(0.00219038 -0.00219038 1.7989)
(0.000816972 -0.00243559 1.86114)
(-0.000816972 -0.00243559 1.86114)
(-0.00219038 -0.00219038 1.7989)
(-0.00280356 -0.0016872 1.66415)
(-0.00244352 -0.00109256 1.44189)
(0.00190345 -0.00140465 1.3259)
(0.00214529 -0.00214529 1.53424)
(0.0016872 -0.00280355 1.66415)
(0.000637026 -0.00317699 1.72646)
(-0.000637026 -0.00317699 1.72646)
(-0.0016872 -0.00280355 1.66415)
(-0.0021453 -0.00214529 1.53424)
(-0.00190345 -0.00140465 1.3259)
(0.00130174 -0.00130174 1.15563)
(0.00140465 -0.00190345 1.3259)
(0.00109256 -0.00244352 1.44189)
(0.000412967 -0.00276631 1.50046)
(-0.000412968 -0.00276631 1.50046)
(-0.00109256 -0.00244352 1.44189)
(-0.00140465 -0.00190345 1.3259)
(-0.00130174 -0.00130174 1.15563)
(0.000792205 0.000792206 1.15296)
(0.000788355 0.00108156 1.32433)
(0.000581399 0.00132234 1.44146)
(0.000214721 0.00146385 1.50077)
(-0.00021472 0.00146385 1.50077)
(-0.000581398 0.00132234 1.44146)
(-0.000788355 0.00108156 1.32433)
(-0.000792206 0.000792206 1.15296)
(0.00108156 0.000788358 1.32433)
(0.00110842 0.00110842 1.53467)
(0.000833461 0.00139004 1.66657)
(0.000309536 0.00155285 1.73013)
(-0.000309535 0.00155285 1.73013)
(-0.000833461 0.00139004 1.66657)
(-0.00110842 0.00110842 1.53467)
(-0.00108156 0.000788358 1.32433)
(0.00132233 0.000581402 1.44146)
(0.00139004 0.000833465 1.66657)
(0.00105205 0.00105206 1.80409)
(0.000388559 0.00116372 1.86797)
(-0.000388559 0.00116372 1.86797)
(-0.00105205 0.00105206 1.80409)
(-0.00139004 0.000833465 1.66657)
(-0.00132234 0.000581401 1.44146)
(0.00146385 0.000214725 1.50077)
(0.00155285 0.00030954 1.73013)
(0.00116372 0.000388563 1.86797)
(0.000420373 0.000420376 1.92846)
(-0.000420373 0.000420376 1.92846)
(-0.00116372 0.000388563 1.86797)
(-0.00155285 0.00030954 1.73013)
(-0.00146385 0.000214724 1.50077)
(0.00146385 -0.000214716 1.50077)
(0.00155285 -0.000309531 1.73013)
(0.00116372 -0.000388555 1.86797)
(0.000420373 -0.000420369 1.92846)
(-0.000420373 -0.000420369 1.92846)
(-0.00116372 -0.000388555 1.86797)
(-0.00155285 -0.000309531 1.73013)
(-0.00146385 -0.000214716 1.50077)
(0.00132233 -0.000581394 1.44146)
(0.00139004 -0.000833456 1.66657)
(0.00105205 -0.00105205 1.80409)
(0.000388559 -0.00116372 1.86797)
(-0.000388559 -0.00116372 1.86797)
(-0.00105205 -0.00105205 1.80409)
(-0.00139004 -0.000833456 1.66657)
(-0.00132234 -0.000581394 1.44146)
(0.00108156 -0.00078835 1.32433)
(0.00110842 -0.00110841 1.53467)
(0.00083346 -0.00139004 1.66657)
(0.000309535 -0.00155284 1.73013)
(-0.000309536 -0.00155284 1.73013)
(-0.000833461 -0.00139004 1.66657)
(-0.00110842 -0.00110841 1.53467)
(-0.00108156 -0.000788351 1.32433)
(0.000792202 -0.000792201 1.15296)
(0.000788353 -0.00108155 1.32433)
(0.000581397 -0.00132233 1.44146)
(0.00021472 -0.00146384 1.50077)
(-0.00021472 -0.00146384 1.50077)
(-0.000581398 -0.00132233 1.44146)
(-0.000788354 -0.00108156 1.32433)
(-0.000792204 -0.000792203 1.15296)
(0.000340737 0.000340738 1.1521)
(0.000347865 0.000479673 1.32392)
(0.000260863 0.000598212 1.44154)
(9.69834e-05 0.000668248 1.50117)
(-9.69839e-05 0.000668248 1.50117)
(-0.000260864 0.000598212 1.44154)
(-0.000347867 0.000479673 1.32392)
(-0.000340739 0.000340739 1.1521)
(0.000479668 0.000347869 1.32392)
(0.000505478 0.000505483 1.53513)
(0.000384179 0.00064285 1.6679)
(0.000143137 0.000722072 1.732)
(-0.000143138 0.000722072 1.732)
(-0.00038418 0.00064285 1.6679)
(-0.00050548 0.000505483 1.53513)
(-0.000479672 0.00034787 1.32392)
(0.000598206 0.000260868 1.44154)
(0.000642846 0.000384184 1.6679)
(0.000489664 0.000489669 1.80663)
(0.0001812 0.000544342 1.87124)
(-0.000181201 0.000544342 1.87124)
(-0.000489665 0.000489669 1.80663)
(-0.000642847 0.000384184 1.6679)
(-0.00059821 0.000260868 1.44154)
(0.000668241 9.6988e-05 1.50117)
(0.000722067 0.000143142 1.732)
(0.000544337 0.000181205 1.87124)
(0.000196974 0.000196979 1.93251)
(-0.000196975 0.000196978 1.93251)
(-0.000544338 0.000181205 1.87124)
(-0.000722068 0.000143142 1.732)
(-0.000668245 9.69882e-05 1.50117)
(0.000668241 -9.69794e-05 1.50117)
(0.000722067 -0.000143133 1.732)
(0.000544337 -0.000181196 1.87124)
(0.000196974 -0.000196971 1.93251)
(-0.000196975 -0.000196971 1.93251)
(-0.000544338 -0.000181196 1.87124)
(-0.000722068 -0.000143133 1.732)
(-0.000668244 -9.69793e-05 1.50117)
(0.000598206 -0.00026086 1.44154)
(0.000642845 -0.000384175 1.6679)
(0.000489664 -0.000489661 1.80663)
(0.0001812 -0.000544334 1.87124)
(-0.000181201 -0.000544334 1.87124)
(-0.000489665 -0.000489661 1.80663)
(-0.000642846 -0.000384175 1.6679)
(-0.000598208 -0.00026086 1.44154)
(0.000479668 -0.000347862 1.32392)
(0.000505478 -0.000505474 1.53513)
(0.000384179 -0.000642842 1.6679)
(0.000143137 -0.000722064 1.732)
(-0.000143138 -0.000722064 1.732)
(-0.00038418 -0.000642842 1.6679)
(-0.000505479 -0.000505475 1.53513)
(-0.000479669 -0.000347862 1.32392)
(0.000340735 -0.000340734 1.1521)
(0.000347865 -0.000479665 1.32392)
(0.000260863 -0.000598204 1.44154)
(9.69832e-05 -0.00066824 1.50117)
(-9.69841e-05 -0.00066824 1.50117)
(-0.000260864 -0.000598205 1.44154)
(-0.000347865 -0.000479667 1.32392)
(-0.000340736 -0.000340735 1.1521)
(0.000183379 0.000183381 1.15155)
(0.000182637 0.000252986 1.32363)
(0.0001345 0.00031088 1.44151)
(4.95863e-05 0.000344804 1.5013)
(-4.95834e-05 0.000344803 1.5013)
(-0.000134498 0.000310878 1.44151)
(-0.000182635 0.000252983 1.32363)
(-0.000183379 0.000183379 1.15155)
(0.000252981 0.00018264 1.32363)
(0.000258956 0.000258961 1.5353)
(0.000193546 0.000324769 1.66852)
(7.15912e-05 0.000362584 1.73289)
(-7.15886e-05 0.000362584 1.73289)
(-0.000193544 0.000324768 1.66852)
(-0.000258955 0.000258959 1.5353)
(-0.000252983 0.000182639 1.32363)
(0.000310875 0.000134504 1.44151)
(0.000324765 0.000193551 1.66852)
(0.000243696 0.000243701 1.80785)
(8.96179e-05 0.000269588 1.87281)
(-8.96161e-05 0.000269587 1.87281)
(-0.000243695 0.0002437 1.80785)
(-0.000324764 0.00019355 1.66852)
(-0.000310877 0.000134503 1.44151)
(0.000344799 4.95905e-05 1.5013)
(0.00036258 7.1596e-05 1.73289)
(0.000269583 8.96223e-05 1.87281)
(9.70176e-05 9.70215e-05 1.93446)
(-9.70164e-05 9.70214e-05 1.93446)
(-0.000269582 8.96217e-05 1.87281)
(-0.000362579 7.15951e-05 1.73289)
(-0.000344801 4.95895e-05 1.5013)
(0.000344798 -4.95792e-05 1.5013)
(0.000362579 -7.15839e-05 1.73289)
(0.000269583 -8.96119e-05 1.87281)
(9.70175e-05 -9.70126e-05 1.93446)
(-9.70166e-05 -9.70127e-05 1.93446)
(-0.000269583 -8.96123e-05 1.87281)
(-0.000362579 -7.15847e-05 1.73289)
(-0.000344801 -4.95801e-05 1.5013)
(0.000310874 -0.000134494 1.44151)
(0.000324764 -0.00019354 1.66852)
(0.000243696 -0.000243691 1.80785)
(8.96174e-05 -0.000269578 1.87281)
(-8.96167e-05 -0.000269579 1.87281)
(-0.000243695 -0.000243691 1.80785)
(-0.000324764 -0.00019354 1.66852)
(-0.000310876 -0.000134494 1.44151)
(0.000252979 -0.00018263 1.32363)
(0.000258955 -0.00025895 1.5353)
(0.000193545 -0.000324759 1.66852)
(7.15901e-05 -0.000362575 1.73289)
(-7.15896e-05 -0.000362575 1.73289)
(-0.000193545 -0.00032476 1.66852)
(-0.000258955 -0.000258951 1.5353)
(-0.000252982 -0.000182631 1.32363)
(0.000183375 -0.000183374 1.15155)
(0.000182634 -0.000252976 1.32363)
(0.000134499 -0.00031087 1.44151)
(4.95849e-05 -0.000344795 1.5013)
(-4.95846e-05 -0.000344795 1.5013)
(-0.000134499 -0.000310871 1.44151)
(-0.000182634 -0.000252978 1.32363)
(-0.000183377 -0.000183376 1.15155)
(8.67719e-05 8.67735e-05 1.15132)
(8.77102e-05 0.000121326 1.32351)
(6.52147e-05 0.000150478 1.44152)
(2.41383e-05 0.000167611 1.50139)
(-2.41367e-05 0.000167611 1.50139)
(-6.52134e-05 0.000150477 1.44152)
(-8.77094e-05 0.000121324 1.32351)
(-8.67727e-05 8.67733e-05 1.15132)
(0.000121319 8.7714e-05 1.32351)
(0.000126292 0.000126297 1.53541)
(9.51094e-05 0.000159577 1.66884)
(3.52685e-05 0.000178636 1.73335)
(-3.52671e-05 0.000178636 1.73335)
(-9.51085e-05 0.000159577 1.66884)
(-0.000126291 0.000126296 1.53541)
(-0.000121321 8.77135e-05 1.32351)
(0.000150471 6.52194e-05 1.44152)
(0.000159572 9.5115e-05 1.66884)
(0.000120352 0.000120357 1.80847)
(4.43135e-05 0.000133317 1.8736)
(-4.43127e-05 0.000133317 1.8736)
(-0.000120351 0.000120357 1.80847)
(-0.000159572 9.51143e-05 1.66884)
(-0.000150473 6.52189e-05 1.44152)
(0.000167603 2.41428e-05 1.50139)
(0.00017863 3.52737e-05 1.73335)
(0.000133312 4.43184e-05 1.8736)
(4.8003e-05 4.80073e-05 1.93544)
(-4.80025e-05 4.80072e-05 1.93544)
(-0.000133312 4.4318e-05 1.8736)
(-0.00017863 3.52732e-05 1.73335)
(-0.000167605 2.41425e-05 1.50139)
(0.000167603 -2.41324e-05 1.50139)
(0.00017863 -3.52623e-05 1.73335)
(0.000133312 -4.43083e-05 1.8736)
(4.80029e-05 -4.79985e-05 1.93544)
(-4.80026e-05 -4.79986e-05 1.93544)
(-0.000133312 -4.43086e-05 1.8736)
(-0.00017863 -3.52627e-05 1.73335)
(-0.000167604 -2.41328e-05 1.50139)
(0.00015047 -6.52097e-05 1.44152)
(0.000159571 -9.51041e-05 1.66884)
(0.000120352 -0.000120347 1.80847)
(4.43133e-05 -0.000133308 1.8736)
(-4.43131e-05 -0.000133308 1.8736)
(-0.000120352 -0.000120348 1.80847)
(-0.000159571 -9.51044e-05 1.66884)
(-0.000150471 -6.521e-05 1.44152)
(0.000121318 -8.77052e-05 1.32351)
(0.000126291 -0.000126287 1.53541)
(9.51091e-05 -0.000159568 1.66884)
(3.52679e-05 -0.000178627 1.73335)
(-3.52678e-05 -0.000178627 1.73335)
(-9.5109e-05 -0.000159568 1.66884)
(-0.000126291 -0.000126287 1.53541)
(-0.000121319 -8.77057e-05 1.32351)
(8.67691e-05 -8.6768e-05 1.15132)
(8.77085e-05 -0.000121315 1.32351)
(6.52141e-05 -0.000150468 1.44152)
(2.41375e-05 -0.000167601 1.50139)
(-2.41376e-05 -0.000167601 1.50139)
(-6.52142e-05 -0.000150469 1.44152)
(-8.77087e-05 -0.000121317 1.32351)
(-8.67698e-05 -8.6769e-05 1.15132)
(4.52186e-05 4.52205e-05 1.15119)
(4.53641e-05 6.27496e-05 1.32345)
(3.35603e-05 7.74238e-05 1.44152)
(1.23975e-05 8.60294e-05 1.50143)
(-1.23929e-05 8.60284e-05 1.50143)
(-3.35562e-05 7.74206e-05 1.44152)
(-4.53602e-05 6.27445e-05 1.32345)
(-4.52166e-05 4.52174e-05 1.15119)
(6.27435e-05 4.53677e-05 1.32345)
(6.47568e-05 6.47621e-05 1.53546)
(4.85781e-05 8.14855e-05 1.669)
(1.79891e-05 9.10627e-05 1.73357)
(-1.79852e-05 9.1062e-05 1.73357)
(-4.85747e-05 8.14836e-05 1.669)
(-6.47542e-05 6.4759e-05 1.53546)
(-6.27435e-05 4.53648e-05 1.32345)
(7.74172e-05 3.35646e-05 1.44152)
(8.14803e-05 4.85831e-05 1.669)
(6.12729e-05 6.12775e-05 1.80878)
(2.25356e-05 6.77832e-05 1.874)
(-2.2533e-05 6.77828e-05 1.874)
(-6.12706e-05 6.12763e-05 1.80878)
(-8.14788e-05 4.85811e-05 1.669)
(-7.74183e-05 3.35624e-05 1.44152)
(8.60229e-05 1.24016e-05 1.50143)
(9.10577e-05 1.79939e-05 1.73357)
(6.77789e-05 2.254e-05 1.874)
(2.43786e-05 2.43825e-05 1.93593)
(-2.4377e-05 2.43823e-05 1.93593)
(-6.77774e-05 2.2539e-05 1.874)
(-9.10569e-05 1.79923e-05 1.73357)
(-8.60247e-05 1.23998e-05 1.50143)
(8.60222e-05 -1.2389e-05 1.50143)
(9.10573e-05 -1.79807e-05 1.73357)
(6.77786e-05 -2.25289e-05 1.874)
(2.43784e-05 -2.43732e-05 1.93593)
(-2.43772e-05 -2.43735e-05 1.93593)
(-6.77776e-05 -2.25296e-05 1.874)
(-9.10569e-05 -1.79819e-05 1.73357)
(-8.60246e-05 -1.23905e-05 1.50143)
(7.74151e-05 -3.35526e-05 1.44152)
(8.14789e-05 -4.85704e-05 1.669)
(6.12719e-05 -6.12665e-05 1.80878)
(2.25347e-05 -6.77736e-05 1.874)
(-2.25338e-05 -6.77738e-05 1.874)
(-6.12712e-05 -6.12671e-05 1.80878)
(-8.14788e-05 -4.85713e-05 1.669)
(-7.74178e-05 -3.35538e-05 1.44152)
(6.27394e-05 -4.53561e-05 1.32345)
(6.47542e-05 -6.47495e-05 1.53546)
(4.85763e-05 -8.14744e-05 1.669)
(1.79874e-05 -9.10528e-05 1.73357)
(-1.79867e-05 -9.10529e-05 1.73357)
(-4.85758e-05 -8.14749e-05 1.669)
(-6.47542e-05 -6.47504e-05 1.53546)
(-6.27421e-05 -4.53575e-05 1.32345)
(4.52128e-05 -4.52121e-05 1.15119)
(4.53598e-05 -6.27366e-05 1.32345)
(3.3558e-05 -7.74119e-05 1.44152)
(1.23953e-05 -8.60187e-05 1.50143)
(-1.23949e-05 -8.60191e-05 1.50143)
(-3.35577e-05 -7.74129e-05 1.44152)
(-4.53602e-05 -6.27386e-05 1.32345)
(-4.52148e-05 -4.52143e-05 1.15119)
(2.23427e-05 2.23438e-05 1.15113)
(2.25631e-05 3.1169e-05 1.32341)
(1.67716e-05 3.86081e-05 1.44152)
(6.20884e-06 4.29822e-05 1.50145)
(-6.20878e-06 4.29821e-05 1.50145)
(-1.67717e-05 3.86078e-05 1.44152)
(-2.25637e-05 3.11686e-05 1.32341)
(-2.23442e-05 2.23444e-05 1.15113)
(3.11641e-05 2.25663e-05 1.32341)
(3.24207e-05 3.24253e-05 1.53548)
(2.44308e-05 4.09526e-05 1.66908)
(9.06414e-06 4.58424e-05 1.73369)
(-9.06424e-06 4.58424e-05 1.73369)
(-2.44311e-05 4.09525e-05 1.66908)
(-3.24216e-05 3.24251e-05 1.53548)
(-3.11669e-05 2.25667e-05 1.32341)
(3.86023e-05 1.67758e-05 1.44152)
(4.09481e-05 2.44356e-05 1.66908)
(3.09181e-05 3.09225e-05 1.80894)
(1.13898e-05 3.42534e-05 1.8742)
(-1.13901e-05 3.42533e-05 1.8742)
(-3.09185e-05 3.09223e-05 1.80894)
(-4.0949e-05 2.44355e-05 1.66908)
(-3.86046e-05 1.67758e-05 1.44152)
(4.29761e-05 6.2132e-06 1.50145)
(4.5838e-05 9.06898e-06 1.73369)
(3.42493e-05 1.13942e-05 1.8742)
(1.23356e-05 1.23395e-05 1.93618)
(-1.2336e-05 1.23394e-05 1.93618)
(-3.42498e-05 1.1394e-05 1.8742)
(-4.58387e-05 9.0688e-06 1.73369)
(-4.2978e-05 6.21312e-06 1.50145)
(4.29761e-05 -6.20462e-06 1.50145)
(4.58379e-05 -9.05964e-06 1.73369)
(3.42493e-05 -1.1386e-05 1.8742)
(1.23356e-05 -1.23323e-05 1.93618)
(-1.23361e-05 -1.23324e-05 1.93618)
(-3.42498e-05 -1.13861e-05 1.8742)
(-4.58386e-05 -9.05984e-06 1.73369)
(-4.29776e-05 -6.2048e-06 1.50145)
(3.86021e-05 -1.67679e-05 1.44152)
(4.0948e-05 -2.44268e-05 1.66908)
(3.0918e-05 -3.09145e-05 1.80894)
(1.13897e-05 -3.42461e-05 1.8742)
(-1.13903e-05 -3.42461e-05 1.8742)
(-3.09186e-05 -3.09147e-05 1.80894)
(-4.09486e-05 -2.44271e-05 1.66908)
(-3.86033e-05 -1.67682e-05 1.44152)
(3.11632e-05 -2.25594e-05 1.32341)
(3.24204e-05 -3.24171e-05 1.53548)
(2.44307e-05 -4.09449e-05 1.66908)
(9.06389e-06 -4.58351e-05 1.73369)
(-9.06461e-06 -4.58352e-05 1.73369)
(-2.44314e-05 -4.09453e-05 1.66908)
(-3.24209e-05 -3.24176e-05 1.53548)
(-3.11641e-05 -2.256e-05 1.32341)
(2.23404e-05 -2.23394e-05 1.15113)
(2.2562e-05 -3.11611e-05 1.32341)
(1.67714e-05 -3.86e-05 1.44152)
(6.20849e-06 -4.29742e-05 1.50145)
(-6.20927e-06 -4.29745e-05 1.50145)
(-1.67721e-05 -3.86009e-05 1.44152)
(-2.25628e-05 -3.11625e-05 1.32341)
(-2.23414e-05 -2.23406e-05 1.15113)
(1.14914e-05 1.14926e-05 1.1511)
(1.15733e-05 1.59848e-05 1.3234)
(8.58686e-06 1.97581e-05 1.44152)
(3.17744e-06 2.1976e-05 1.50146)
(-3.17542e-06 2.19756e-05 1.50146)
(-8.58515e-06 1.97569e-05 1.44152)
(-1.15723e-05 1.5983e-05 1.3234)
(-1.14921e-05 1.14925e-05 1.1511)
(1.59815e-05 1.15758e-05 1.3234)
(1.65721e-05 1.65755e-05 1.5355)
(1.24727e-05 2.09013e-05 1.66912)
(4.62674e-06 2.33845e-05 1.73375)
(-4.62509e-06 2.33843e-05 1.73375)
(-1.24714e-05 2.09004e-05 1.66912)
(-1.65717e-05 1.65742e-05 1.5355)
(-1.59842e-05 1.15752e-05 1.3234)
(1.97547e-05 8.58997e-06 1.44152)
(2.0898e-05 1.24762e-05 1.66912)
(1.57695e-05 1.57728e-05 1.80902)
(5.80963e-06 1.74682e-05 1.8743)
(-5.80851e-06 1.7468e-05 1.8743)
(-1.57687e-05 1.57722e-05 1.80902)
(-2.08981e-05 1.24753e-05 1.66912)
(-1.97578e-05 8.58915e-06 1.44152)
(2.19726e-05 3.18071e-06 1.50146)
(2.33814e-05 4.63044e-06 1.73375)
(1.74652e-05 5.81293e-06 1.8743)
(6.29126e-06 6.29416e-06 1.9363)
(-6.29054e-06 6.29403e-06 1.9363)
(-1.74648e-05 5.81249e-06 1.8743)
(-2.33817e-05 4.62973e-06 1.73375)
(-2.1976e-05 3.17996e-06 1.50146)
(2.19723e-05 -3.1721e-06 1.50146)
(2.33812e-05 -4.62129e-06 1.73375)
(1.74651e-05 -5.80512e-06 1.8743)
(6.29114e-06 -6.28753e-06 1.9363)
(-6.29066e-06 -6.28764e-06 1.9363)
(-1.74648e-05 -5.80546e-06 1.8743)
(-2.33817e-05 -4.62187e-06 1.73375)
(-2.19759e-05 -3.1728e-06 1.50146)
(1.97539e-05 -8.58192e-06 1.44152)
(2.08974e-05 -1.24676e-05 1.66912)
(1.57691e-05 -1.57652e-05 1.80902)
(5.80922e-06 -1.74614e-05 1.8743)
(-5.8089e-06 -1.74615e-05 1.8743)
(-1.5769e-05 -1.57654e-05 1.80902)
(-2.08979e-05 -1.2468e-05 1.66912)
(-1.97574e-05 -8.58251e-06 1.44152)
(1.59798e-05 -1.15685e-05 1.3234)
(1.65709e-05 -1.65672e-05 1.5355)
(1.24719e-05 -2.08939e-05 1.66912)
(4.62594e-06 -2.33778e-05 1.73375)
(-4.62582e-06 -2.33779e-05 1.73375)
(-1.24718e-05 -2.08942e-05 1.66912)
(-1.65714e-05 -1.65678e-05 1.5355)
(-1.59831e-05 -1.15696e-05 1.3234)
(1.14889e-05 -1.14883e-05 1.1511)
(1.15715e-05 -1.59776e-05 1.3234)
(8.58581e-06 -1.97514e-05 1.44152)
(3.1764e-06 -2.19698e-05 1.50146)
(-3.17639e-06 -2.19701e-05 1.50146)
(-8.58587e-06 -1.97522e-05 1.44152)
(-1.15721e-05 -1.59793e-05 1.3234)
(-1.14909e-05 -1.14904e-05 1.1511)
(5.80286e-06 5.80326e-06 1.15108)
(5.85611e-06 8.08851e-06 1.32339)
(4.35034e-06 1.00116e-05 1.44152)
(1.60998e-06 1.11432e-05 1.50146)
(-1.61178e-06 1.11435e-05 1.50146)
(-4.35214e-06 1.00125e-05 1.44152)
(-5.8584e-06 8.09003e-06 1.32339)
(-5.80573e-06 5.8056e-06 1.15108)
(8.08566e-06 5.8581e-06 1.32339)
(8.40478e-06 8.40765e-06 1.5355)
(6.33371e-06 1.06152e-05 1.66915)
(2.3501e-06 1.18833e-05 1.73378)
(-2.35177e-06 1.18835e-05 1.73378)
(-6.33547e-06 1.06158e-05 1.66915)
(-8.40705e-06 8.40865e-06 1.5355)
(-8.08987e-06 5.85996e-06 1.32339)
(1.00081e-05 4.35319e-06 1.44152)
(1.06124e-05 6.33696e-06 1.66915)
(8.0174e-06 8.02034e-06 1.80906)
(2.95463e-06 8.88692e-06 1.87436)
(-2.95592e-06 8.88704e-06 1.87436)
(-8.01878e-06 8.02071e-06 1.80906)
(-1.06142e-05 6.33765e-06 1.66915)
(-1.00115e-05 4.35423e-06 1.44152)
(1.11394e-05 1.61312e-06 1.50146)
(1.18805e-05 2.35355e-06 1.73378)
(8.88419e-06 2.95768e-06 1.87436)
(3.20129e-06 3.20398e-06 1.93637)
(-3.20228e-06 3.20406e-06 1.93637)
(-8.88527e-06 2.95795e-06 1.87436)
(-1.18818e-05 2.35411e-06 1.73378)
(-1.1142e-05 1.61394e-06 1.50146)
(1.11397e-05 -1.60866e-06 1.50146)
(1.18806e-05 -2.34835e-06 1.73378)
(8.88433e-06 -2.95289e-06 1.87436)
(3.20139e-06 -3.1996e-06 1.93637)
(-3.20222e-06 -3.19954e-06 1.93637)
(-8.8852e-06 -2.95268e-06 1.87436)
(-1.18816e-05 -2.34794e-06 1.73378)
(-1.11416e-05 -1.60808e-06 1.50146)
(1.00088e-05 -4.34919e-06 1.44152)
(1.06129e-05 -6.33214e-06 1.66915)
(8.01779e-06 -8.01575e-06 1.80906)
(2.95492e-06 -8.8825e-06 1.87436)
(-2.95573e-06 -8.88247e-06 1.87436)
(-8.01857e-06 -8.01566e-06 1.80906)