/*--------------------------------*- C++ -*----------------------------------*\
| =========                 |                                                 |
| \\      /  F ield         | OpenFOAM: The Open Source CFD Toolbox           |
|  \\    /   O peration     | Version:  2406                                  |
|   \\  /    A nd           | Website:  www.openfoam.com                      |
|    \\/     M anipulation  |                                                 |
\*---------------------------------------------------------------------------*/
FoamFile
{
    version     2.0;
    format      ascii;
    arch        "LSB;label=32;scalar=64";
    class       surfaceScalarField;
    location    "0.3";
    object      phi;
}
// * * * * * * * * * * * * * * * * * * * * * * * * * * * * * * * * * * * * * //

dimensions      [0 3 -1 0 0 0 0];

oriented        oriented;

internalField   nonuniform List<scalar> 
73500
(
6.10426e-05
6.10426e-05
5.55894e-05
-6.53364e-05
-6.53364e-05
5.08706e-05
6.37478e-05
6.50943e-05
-6.77317e-05
3.64436e-05
6.55623e-05
7.25541e-05
-6.97464e-05
1.90033e-05
6.66902e-05
7.76908e-05
-7.09694e-05
1.26606e-12
6.72292e-05
8.03014e-05
-7.15345e-05
-1.90033e-05
6.72292e-05
8.03014e-05
-7.15345e-05
-3.64436e-05
6.66902e-05
7.76908e-05
-7.09694e-05
-5.08706e-05
6.55623e-05
7.25541e-05
-6.97464e-05
-6.10426e-05
6.37478e-05
6.50943e-05
-6.77317e-05
6.10426e-05
5.55894e-05
-6.53364e-05
-6.53364e-05
6.37478e-05
5.08706e-05
6.50943e-05
-6.77317e-05
5.31831e-05
5.31831e-05
7.57136e-05
3.79691e-05
5.46094e-05
8.3536e-05
1.97316e-05
5.54751e-05
8.87022e-05
1.19162e-12
5.58889e-05
9.12692e-05
-1.97316e-05
5.58889e-05
9.12692e-05
-3.79691e-05
5.54751e-05
8.87022e-05
-5.31831e-05
5.46094e-05
8.3536e-05
-6.37478e-05
5.31831e-05
7.57136e-05
5.08706e-05
6.50943e-05
-6.77317e-05
6.55623e-05
3.64436e-05
7.25541e-05
-6.97464e-05
5.46094e-05
3.79691e-05
8.3536e-05
3.88895e-05
3.88895e-05
9.14271e-05
2.0168e-05
3.94393e-05
9.65135e-05
1.10356e-12
3.97043e-05
9.90004e-05
-2.0168e-05
3.97043e-05
9.90004e-05
-3.88895e-05
3.94393e-05
9.65135e-05
-5.46094e-05
3.88895e-05
9.14271e-05
-6.55623e-05
3.79691e-05
8.3536e-05
3.64436e-05
7.25541e-05
-6.97464e-05
6.66902e-05
1.90033e-05
7.76908e-05
-7.09694e-05
5.54751e-05
1.97316e-05
8.87022e-05
3.94393e-05
2.0168e-05
9.65135e-05
2.04244e-05
2.04244e-05
0.00010148
9.69444e-13
2.05487e-05
0.000103884
-2.04244e-05
2.05487e-05
0.000103884
-3.94393e-05
2.04244e-05
0.00010148
-5.54751e-05
2.0168e-05
9.65135e-05
-6.66902e-05
1.97316e-05
8.87022e-05
1.90033e-05
7.76908e-05
-7.09694e-05
6.72292e-05
1.26606e-12
8.03014e-05
-7.15345e-05
5.58889e-05
1.1916e-12
9.12692e-05
3.97043e-05
1.10352e-12
9.90004e-05
2.05487e-05
9.69402e-13
0.000103884
8.19818e-13
8.19775e-13
0.000106237
-2.05487e-05
6.67318e-13
0.000106237
-3.97042e-05
5.22611e-13
0.000103884
-5.58889e-05
3.93366e-13
9.90004e-05
-6.72292e-05
2.83178e-13
9.12692e-05
1.92296e-13
8.03014e-05
-7.15345e-05
6.72292e-05
-1.90033e-05
8.03014e-05
-7.15345e-05
5.58889e-05
-1.97316e-05
9.12692e-05
3.97043e-05
-2.0168e-05
9.90004e-05
2.05487e-05
-2.04244e-05
0.000103884
6.67359e-13
-2.05487e-05
0.000106237
-2.05487e-05
-2.05487e-05
0.000106237
-3.97042e-05
-2.04244e-05
0.000103884
-5.58889e-05
-2.0168e-05
9.90004e-05
-6.72292e-05
-1.97316e-05
9.12692e-05
-1.90033e-05
8.03014e-05
-7.15345e-05
6.66902e-05
-3.64436e-05
7.76908e-05
-7.09694e-05
5.54751e-05
-3.79691e-05
8.87022e-05
3.94393e-05
-3.88895e-05
9.65135e-05
2.04244e-05
-3.94393e-05
0.00010148
5.22652e-13
-3.97042e-05
0.000103884
-2.04244e-05
-3.97042e-05
0.000103884
-3.94393e-05
-3.94393e-05
0.00010148
-5.54751e-05
-3.88895e-05
9.65135e-05
-6.66902e-05
-3.79691e-05
8.87022e-05
-3.64436e-05
7.76908e-05
-7.09694e-05
6.55623e-05
-5.08706e-05
7.25541e-05
-6.97464e-05
5.46094e-05
-5.31831e-05
8.3536e-05
3.88895e-05
-5.46094e-05
9.14271e-05
2.0168e-05
-5.54751e-05
9.65135e-05
3.9341e-13
-5.58889e-05
9.90004e-05
-2.0168e-05
-5.58889e-05
9.90004e-05
-3.88895e-05
-5.54751e-05
9.65135e-05
-5.46094e-05
-5.46094e-05
9.14271e-05
-6.55623e-05
-5.31831e-05
8.3536e-05
-5.08706e-05
7.25541e-05
-6.97464e-05
6.37478e-05
-6.10426e-05
6.50943e-05
-6.77317e-05
5.31831e-05
-6.37478e-05
7.57136e-05
3.79691e-05
-6.55623e-05
8.3536e-05
1.97316e-05
-6.66902e-05
8.87022e-05
2.83231e-13
-6.72292e-05
9.12692e-05
-1.97316e-05
-6.72292e-05
9.12692e-05
-3.79691e-05
-6.66902e-05
8.87022e-05
-5.31831e-05
-6.55623e-05
8.3536e-05
-6.37478e-05
-6.37478e-05
7.57136e-05
-6.10426e-05
6.50943e-05
-6.77317e-05
6.10426e-05
5.55894e-05
-6.53364e-05
-6.53364e-05
5.08706e-05
6.50943e-05
-6.77317e-05
3.64436e-05
7.25541e-05
-6.97464e-05
1.90033e-05
7.76908e-05
-7.09694e-05
1.92363e-13
8.03014e-05
-7.15345e-05
-1.90033e-05
8.03014e-05
-7.15345e-05
-3.64436e-05
7.76908e-05
-7.09694e-05
-5.08706e-05
7.25541e-05
-6.97464e-05
-6.10426e-05
6.50943e-05
-6.77317e-05
5.55894e-05
-6.53364e-05
-6.53364e-05
1.23627e-05
1.23627e-05
5.38145e-05
-1.14752e-05
-1.14752e-05
1.14118e-05
1.45383e-05
6.46956e-05
-1.31887e-05
8.72003e-06
1.61482e-05
7.36081e-05
-1.45105e-05
4.72344e-06
1.72651e-05
7.9911e-05
-1.54887e-05
-1.58212e-13
1.7822e-05
8.31662e-05
-1.59633e-05
-4.72344e-06
1.7822e-05
8.31662e-05
-1.59633e-05
-8.72003e-06
1.72651e-05
7.9911e-05
-1.54887e-05
-1.14118e-05
1.61482e-05
7.36081e-05
-1.45105e-05
-1.23627e-05
1.45383e-05
6.46956e-05
-1.31887e-05
1.23627e-05
5.38145e-05
-1.14752e-05
-1.14752e-05
1.45383e-05
1.14118e-05
6.46956e-05
-1.31887e-05
1.35496e-05
1.35496e-05
7.7691e-05
1.03936e-05
1.51152e-05
8.77251e-05
5.6276e-06
1.61694e-05
9.45639e-05
-1.08104e-13
1.66911e-05
9.80277e-05
-5.6276e-06
1.66911e-05
9.80277e-05
-1.03936e-05
1.61694e-05
9.45639e-05
-1.35496e-05
1.51152e-05
8.77251e-05
-1.45383e-05
1.35496e-05
7.7691e-05
1.14118e-05
6.46956e-05
-1.31887e-05
1.61482e-05
8.72003e-06
7.36081e-05
-1.45105e-05
1.51152e-05
1.03936e-05
8.77251e-05
1.16188e-05
1.16188e-05
9.84199e-05
6.2955e-06
1.24317e-05
0.000105575
-4.75757e-14
1.28327e-05
0.000109154
-6.2955e-06
1.28327e-05
0.000109154
-1.16188e-05
1.24317e-05
0.000105575
-1.51152e-05
1.16188e-05
9.84199e-05
-1.61482e-05
1.03936e-05
8.77251e-05
8.72003e-06
7.36081e-05
-1.45105e-05
1.72651e-05
4.72344e-06
7.9911e-05
-1.54887e-05
1.61694e-05
5.6276e-06
9.45639e-05
1.24317e-05
6.2955e-06
0.000105575
6.73519e-06
6.73519e-06
0.000112873
7.07794e-16
6.95172e-06
0.0001165
-6.73519e-06
6.95172e-06
0.0001165
-1.24317e-05
6.73519e-06
0.000112873
-1.61694e-05
6.2955e-06
0.000105575
-1.72651e-05
5.6276e-06
9.45639e-05
4.72344e-06
7.9911e-05
-1.54887e-05
1.7822e-05
-1.58158e-13
8.31662e-05
-1.59633e-05
1.66911e-05
-1.08069e-13
9.80277e-05
1.28327e-05
-4.75589e-14
0.000109154
6.95172e-06
7.08909e-16
0.0001165
2.88569e-14
2.88448e-14
0.00012014
-6.95172e-06
3.4087e-14
0.00012014
-1.28327e-05
2.08072e-14
0.0001165
-1.66911e-05
-3.22802e-15
0.000109154
-1.7822e-05
-2.97808e-14
9.80277e-05
-5.20168e-14
8.31662e-05
-1.59633e-05
1.7822e-05
-4.72344e-06
8.31662e-05
-1.59633e-05
1.66911e-05
-5.6276e-06
9.80277e-05
1.28327e-05
-6.2955e-06
0.000109154
6.95172e-06
-6.73519e-06
0.0001165
3.41114e-14
-6.95172e-06
0.00012014
-6.95172e-06
-6.95172e-06
0.00012014
-1.28327e-05
-6.73519e-06
0.0001165
-1.66911e-05
-6.2955e-06
0.000109154
-1.7822e-05
-5.6276e-06
9.80277e-05
-4.72344e-06
8.31662e-05
-1.59633e-05
1.72651e-05
-8.72003e-06
7.9911e-05
-1.54887e-05
1.61694e-05
-1.03936e-05
9.45639e-05
1.24317e-05
-1.16188e-05
0.000105575
6.73519e-06
-1.24317e-05
0.000112873
2.08447e-14
-1.28327e-05
0.0001165
-6.73519e-06
-1.28327e-05
0.0001165
-1.24317e-05
-1.24317e-05
0.000112873
-1.61694e-05
-1.16188e-05
0.000105575
-1.72651e-05
-1.03936e-05
9.45639e-05
-8.72003e-06
7.9911e-05
-1.54887e-05
1.61482e-05
-1.14118e-05
7.36081e-05
-1.45105e-05
1.51152e-05
-1.35496e-05
8.77251e-05
1.16188e-05
-1.51152e-05
9.84199e-05
6.2955e-06
-1.61694e-05
0.000105575
-3.17603e-15
-1.66911e-05
0.000109154
-6.2955e-06
-1.66911e-05
0.000109154
-1.16188e-05
-1.61694e-05
0.000105575
-1.51152e-05
-1.51152e-05
9.84199e-05
-1.61482e-05
-1.35496e-05
8.77251e-05
-1.14118e-05
7.36081e-05
-1.45105e-05
1.45383e-05
-1.23627e-05
6.46956e-05
-1.31887e-05
1.35496e-05
-1.45383e-05
7.7691e-05
1.03936e-05
-1.61482e-05
8.77251e-05
5.6276e-06
-1.72651e-05
9.45639e-05
-2.97134e-14
-1.7822e-05
9.80277e-05
-5.6276e-06
-1.7822e-05
9.80277e-05
-1.03936e-05
-1.72651e-05
9.45639e-05
-1.35496e-05
-1.61482e-05
8.77251e-05
-1.45383e-05
-1.45383e-05
7.7691e-05
-1.23627e-05
6.46956e-05
-1.31887e-05
1.23627e-05
5.38145e-05
-1.14752e-05
-1.14752e-05
1.14118e-05
6.46956e-05
-1.31887e-05
8.72003e-06
7.36081e-05
-1.45105e-05
4.72344e-06
7.9911e-05
-1.54887e-05
-5.19352e-14
8.31662e-05
-1.59633e-05
-4.72344e-06
8.31662e-05
-1.59633e-05
-8.72003e-06
7.9911e-05
-1.54887e-05
-1.14118e-05
7.36081e-05
-1.45105e-05
-1.23627e-05
6.46956e-05
-1.31887e-05
5.38145e-05
-1.14752e-05
-1.14752e-05
5.64192e-06
5.64192e-06
5.26925e-05
-5.08096e-06
-5.08096e-06
5.27962e-06
6.75237e-06
6.41565e-05
-5.85099e-06
4.09764e-06
7.63725e-06
7.37021e-05
-6.54927e-06
2.24321e-06
8.28066e-06
8.05551e-05
-7.07036e-06
5.79375e-14
8.61381e-06
8.41278e-05
-7.33215e-06
-2.24321e-06
8.61381e-06
8.41278e-05
-7.33215e-06
-4.09764e-06
8.28066e-06
8.05551e-05
-7.07036e-06
-5.27962e-06
7.63725e-06
7.37021e-05
-6.54927e-06
-5.64192e-06
6.75237e-06
6.41565e-05
-5.85099e-06
5.64192e-06
5.26925e-05
-5.08096e-06
-5.08096e-06
6.75237e-06
5.27962e-06
6.41565e-05
-5.85099e-06
6.48091e-06
6.48091e-06
7.82339e-05
5.08483e-06
7.40642e-06
8.9352e-05
2.79254e-06
8.05824e-06
9.70786e-05
8.57878e-14
8.39407e-06
0.00010104
-2.79254e-06
8.39407e-06
0.00010104
-5.08483e-06
8.05824e-06
9.70786e-05
-6.48091e-06
7.40642e-06
8.9352e-05
-6.75237e-06
6.48091e-06
7.82339e-05
5.27962e-06
6.41565e-05
-5.85099e-06
7.63725e-06
4.09764e-06
7.37021e-05
-6.54927e-06
7.40642e-06
5.08483e-06
8.9352e-05
5.84788e-06
5.84788e-06
0.000101537
3.22101e-06
6.37773e-06
0.000109882
1.11256e-13
6.64948e-06
0.00011412
-3.22101e-06
6.64948e-06
0.00011412
-5.84788e-06
6.37773e-06
0.000109882
-7.40642e-06
5.84788e-06
0.000101537
-7.63725e-06
5.08483e-06
8.9352e-05
4.09764e-06
7.37021e-05
-6.54927e-06
8.28066e-06
2.24321e-06
8.05551e-05
-7.07036e-06
8.05824e-06
2.79254e-06
9.70786e-05
6.37773e-06
3.22101e-06
0.000109882
3.51698e-06
3.51698e-06
0.000118595
1.2835e-13
3.66844e-06
0.000122998
-3.51698e-06
3.66844e-06
0.000122998
-6.37773e-06
3.51698e-06
0.000118595
-8.05824e-06
3.22101e-06
0.000109882
-8.28066e-06
2.79254e-06
9.70786e-05
2.24321e-06
8.05551e-05
-7.07036e-06
8.61381e-06
5.80168e-14
8.41278e-05
-7.33215e-06
8.39407e-06
8.58635e-14
0.00010104
6.64948e-06
1.11328e-13
0.00011412
3.66844e-06
1.28417e-13
0.000122998
1.33246e-13
1.33306e-13
0.000127477
-3.66844e-06
1.24933e-13
0.000127477
-6.64948e-06
1.05502e-13
0.000122998
-8.39407e-06
7.94371e-14
0.00011412
-8.61381e-06
5.18777e-14
0.00010104
2.72317e-14
8.41278e-05
-7.33215e-06
8.61381e-06
-2.24321e-06
8.41278e-05
-7.33215e-06
8.39407e-06
-2.79254e-06
0.00010104
6.64948e-06
-3.22101e-06
0.00011412
3.66844e-06
-3.51698e-06
0.000122998
1.24882e-13
-3.66844e-06
0.000127477
-3.66844e-06
-3.66844e-06
0.000127477
-6.64948e-06
-3.51698e-06
0.000122998
-8.39407e-06
-3.22101e-06
0.00011412
-8.61381e-06
-2.79254e-06
0.00010104
-2.24321e-06
8.41278e-05
-7.33215e-06
8.28066e-06
-4.09764e-06
8.05551e-05
-7.07036e-06
8.05824e-06
-5.08483e-06
9.70786e-05
6.37773e-06
-5.84788e-06
0.000109882
3.51698e-06
-6.37773e-06
0.000118595
1.05467e-13
-6.64948e-06
0.000122998
-3.51698e-06
-6.64948e-06
0.000122998
-6.37773e-06
-6.37773e-06
0.000118595
-8.05824e-06
-5.84788e-06
0.000109882
-8.28066e-06
-5.08483e-06
9.70786e-05
-4.09764e-06
8.05551e-05
-7.07036e-06
7.63725e-06
-5.27962e-06
7.37021e-05
-6.54927e-06
7.40642e-06
-6.48091e-06
8.9352e-05
5.84788e-06
-7.40642e-06
0.000101537
3.22101e-06
-8.05824e-06
0.000109882
7.9421e-14
-8.39407e-06
0.00011412
-3.22101e-06
-8.39407e-06
0.00011412
-5.84788e-06
-8.05824e-06
0.000109882
-7.40642e-06
-7.40642e-06
0.000101537
-7.63725e-06
-6.48091e-06
8.9352e-05
-5.27962e-06
7.37021e-05
-6.54927e-06
6.75237e-06
-5.64192e-06
6.41565e-05
-5.85099e-06
6.48091e-06
-6.75237e-06
7.82339e-05
5.08483e-06
-7.63725e-06
8.9352e-05
2.79254e-06
-8.28066e-06
9.70786e-05
5.18862e-14
-8.61381e-06
0.00010104
-2.79254e-06
-8.61381e-06
0.00010104
-5.08483e-06
-8.28066e-06
9.70786e-05
-6.48091e-06
-7.63725e-06
8.9352e-05
-6.75237e-06
-6.75237e-06
7.82339e-05
-5.64192e-06
6.41565e-05
-5.85099e-06
5.64192e-06
5.26925e-05
-5.08096e-06
-5.08096e-06
5.27962e-06
6.41565e-05
-5.85099e-06
4.09764e-06
7.37021e-05
-6.54927e-06
2.24321e-06
8.05551e-05
-7.07036e-06
2.72666e-14
8.41278e-05
-7.33215e-06
-2.24321e-06
8.41278e-05
-7.33215e-06
-4.09764e-06
8.05551e-05
-7.07036e-06
-5.27962e-06
7.37021e-05
-6.54927e-06
-5.64192e-06
6.41565e-05
-5.85099e-06
5.26925e-05
-5.08096e-06
-5.08096e-06
1.04963e-06
1.04963e-06
5.22046e-05
-8.05655e-07
-8.05655e-07
1.11574e-06
1.44356e-06
6.37207e-05
-1.07379e-06
9.31473e-07
1.76873e-06
7.34165e-05
-1.29892e-06
5.30286e-07
2.00975e-06
8.04187e-05
-1.47221e-06
-5.24832e-14
2.1376e-06
8.40833e-05
-1.56286e-06
-5.30286e-07
2.1376e-06
8.40833e-05
-1.56286e-06
-9.31474e-07
2.00975e-06
8.04187e-05
-1.47221e-06
-1.11574e-06
1.76873e-06
7.34165e-05
-1.29892e-06
-1.04963e-06
1.44356e-06
6.37207e-05
-1.07379e-06
1.04963e-06
5.22046e-05
-8.05655e-07
-8.05655e-07
1.44356e-06
1.11574e-06
6.37207e-05
-1.07379e-06
1.5517e-06
1.5517e-06
7.80176e-05
1.30313e-06
1.91167e-06
8.94576e-05
7.43034e-07
2.17401e-06
9.74744e-05
-3.89024e-14
2.31378e-06
0.000101607
-7.43034e-07
2.31378e-06
0.000101607
-1.30313e-06
2.17401e-06
9.74744e-05
-1.5517e-06
1.91167e-06
8.94576e-05
-1.44356e-06
1.5517e-06
7.80176e-05
1.11574e-06
6.37207e-05
-1.0738e-06
1.76873e-06
9.31473e-07
7.34165e-05
-1.29892e-06
1.91167e-06
1.30313e-06
8.94576e-05
1.61167e-06
1.61167e-06
0.000102137
9.19755e-07
1.83544e-06
0.000110912
-2.20617e-14
1.95368e-06
0.0001154
-9.19755e-07
1.95368e-06
0.0001154
-1.61167e-06
1.83544e-06
0.000110912
-1.91167e-06
1.61167e-06
0.000102137
-1.76873e-06
1.30313e-06
8.94576e-05
9.31473e-07
7.34165e-05
-1.29892e-06
2.00975e-06
5.30286e-07
8.04187e-05
-1.47221e-06
2.17401e-06
7.43034e-07
9.74744e-05
1.83544e-06
9.19755e-07
0.000110912
1.04855e-06
1.04855e-06
0.000120168
-6.94621e-15
1.11635e-06
0.000124884
-1.04855e-06
1.11635e-06
0.000124884
-1.83544e-06
1.04855e-06
0.000120168
-2.17401e-06
9.19755e-07
0.000110912
-2.00975e-06
7.43034e-07
9.74744e-05
5.30286e-07
8.04187e-05
-1.47221e-06
2.1376e-06
-5.2484e-14
8.40833e-05
-1.56286e-06
2.31378e-06
-3.889e-14
0.000101607
1.95368e-06
-2.20256e-14
0.0001154
1.11635e-06
-6.88613e-15
0.000124884
2.64785e-15
2.72639e-15
0.00012971
-1.11635e-06
5.03838e-15
0.00012971
-1.95368e-06
5.59836e-16
0.000124884
-2.31378e-06
-8.45849e-15
0.0001154
-2.1376e-06
-1.86988e-14
0.000101607
-2.68874e-14
8.40833e-05
-1.56286e-06
2.1376e-06
-5.30286e-07
8.40833e-05
-1.56286e-06
2.31378e-06
-7.43034e-07
0.000101607
1.95368e-06
-9.19755e-07
0.0001154
1.11635e-06
-1.04855e-06
0.000124884
4.95203e-15
-1.11635e-06
0.00012971
-1.11635e-06
-1.11635e-06
0.00012971
-1.95368e-06
-1.04855e-06
0.000124884
-2.31378e-06
-9.19755e-07
0.0001154
-2.1376e-06
-7.43034e-07
0.000101607
-5.30286e-07
8.40833e-05
-1.56286e-06
2.00975e-06
-9.31474e-07
8.04187e-05
-1.47221e-06
2.17401e-06
-1.30313e-06
9.74744e-05
1.83544e-06
-1.61167e-06
0.000110912
1.04855e-06
-1.83544e-06
0.000120168
4.8028e-16
-1.95368e-06
0.000124884
-1.04855e-06
-1.95368e-06
0.000124884
-1.83544e-06
-1.83544e-06
0.000120168
-2.17401e-06
-1.61167e-06
0.000110912
-2.00975e-06
-1.30313e-06
9.74744e-05
-9.31474e-07
8.04187e-05
-1.47221e-06
1.76873e-06
-1.11574e-06
7.34165e-05
-1.29892e-06
1.91167e-06
-1.5517e-06
8.94576e-05
1.61167e-06
-1.91167e-06
0.000102137
9.19755e-07
-2.17401e-06
0.000110912
-8.51617e-15
-2.31378e-06
0.0001154
-9.19755e-07
-2.31378e-06
0.0001154
-1.61167e-06
-2.17401e-06
0.000110912
-1.91167e-06
-1.91167e-06
0.000102137
-1.76873e-06
-1.5517e-06
8.94576e-05
-1.11574e-06
7.34165e-05
-1.29892e-06
1.44356e-06
-1.04963e-06
6.37207e-05
-1.07379e-06
1.5517e-06
-1.44356e-06
7.80176e-05
1.30313e-06
-1.76873e-06
8.94576e-05
7.43034e-07
-2.00975e-06
9.74744e-05
-1.87215e-14
-2.1376e-06
0.000101607
-7.43034e-07
-2.1376e-06
0.000101607
-1.30313e-06
-2.00975e-06
9.74744e-05
-1.5517e-06
-1.76873e-06
8.94576e-05
-1.44356e-06
-1.44356e-06
7.80176e-05
-1.04963e-06
6.37207e-05
-1.07379e-06
1.04963e-06
5.22046e-05
-8.05655e-07
-8.05655e-07
1.11574e-06
6.37207e-05
-1.0738e-06
9.31473e-07
7.34165e-05
-1.29892e-06
5.30286e-07
8.04187e-05
-1.47221e-06
-2.68682e-14
8.40833e-05
-1.56286e-06
-5.30286e-07
8.40833e-05
-1.56286e-06
-9.31474e-07
8.04187e-05
-1.47221e-06
-1.11574e-06
7.34165e-05
-1.29892e-06
-1.04963e-06
6.37207e-05
-1.07379e-06
5.22046e-05
-8.05655e-07
-8.05655e-07
9.27094e-07
9.27094e-07
5.20502e-05
-8.49929e-07
-8.49929e-07
8.45435e-07
1.07131e-06
6.36605e-05
-9.29502e-07
6.52313e-07
1.20541e-06
7.34355e-05
-1.03125e-06
3.56778e-07
1.30769e-06
8.05144e-05
-1.10785e-06
-1.8401e-14
1.36129e-06
8.42254e-05
-1.14653e-06
-3.56778e-07
1.36129e-06
8.42254e-05
-1.14653e-06
-6.52313e-07
1.30769e-06
8.05144e-05
-1.10785e-06
-8.45435e-07
1.20541e-06
7.34355e-05
-1.03125e-06
-9.27094e-07
1.07131e-06
6.36605e-05
-9.29502e-07
9.27094e-07
5.20502e-05
-8.49929e-07
-8.49929e-07
1.07131e-06
8.45435e-07
6.36605e-05
-9.29502e-07
1.02263e-06
1.02263e-06
7.8115e-05
8.08694e-07
1.17439e-06
8.97026e-05
4.47702e-07
1.28787e-06
9.78552e-05
-1.43865e-14
1.34784e-06
0.000102068
-4.47702e-07
1.34784e-06
0.000102068
-8.08694e-07
1.28787e-06
9.78552e-05
-1.02263e-06
1.17439e-06
8.97026e-05
-1.07131e-06
1.02263e-06
7.8115e-05
8.45435e-07
6.36605e-05
-9.29502e-07
1.20541e-06
6.52313e-07
7.34355e-05
-1.03125e-06
1.17439e-06
8.08694e-07
8.97026e-05
9.41221e-07
9.41221e-07
0.000102603
5.2473e-07
1.03963e-06
0.000111577
-8.15102e-15
1.09169e-06
0.000116181
-5.2473e-07
1.09169e-06
0.000116181
-9.41221e-07
1.03963e-06
0.000111577
-1.17439e-06
9.41221e-07
0.000102603
-1.20541e-06
8.08694e-07
8.97026e-05
6.52313e-07
7.34355e-05
-1.03125e-06
1.30769e-06
3.56778e-07
8.05144e-05
-1.10785e-06
1.28787e-06
4.47702e-07
9.78552e-05
1.03963e-06
5.2473e-07
0.000111577
5.8188e-07
5.8188e-07
0.000121084
-2.12758e-15
6.12138e-07
0.000125946
-5.8188e-07
6.12138e-07
0.000125946
-1.03963e-06
5.8188e-07
0.000121084
-1.28787e-06
5.2473e-07
0.000111577
-1.30769e-06
4.47702e-07
9.78552e-05
3.56778e-07
8.05144e-05
-1.10785e-06
1.36129e-06
-1.86652e-14
8.42254e-05
-1.14653e-06
1.34784e-06
-1.4693e-14
0.000102068
1.09169e-06
-8.46104e-15
0.000116181
6.12138e-07
-2.41979e-15
0.000125946
1.67751e-15
1.41351e-15
0.000130934
-6.12138e-07
1.94521e-15
0.000130934
-1.09169e-06
-7.1107e-16
0.000125946
-1.34784e-06
-5.37846e-15
0.000116181
-1.36129e-06
-1.02795e-14
0.000102068
-1.34729e-14
8.42254e-05
-1.14653e-06
1.36129e-06
-3.56778e-07
8.42254e-05
-1.14653e-06
1.34784e-06
-4.47702e-07
0.000102068
1.09169e-06
-5.2473e-07
0.000116181
6.12138e-07
-5.8188e-07
0.000125946
2.18475e-15
-6.12138e-07
0.000130934
-6.12138e-07
-6.12138e-07
0.000130934
-1.09169e-06
-5.8188e-07
0.000125946
-1.34784e-06
-5.2473e-07
0.000116181
-1.36129e-06
-4.47702e-07
0.000102068
-3.56778e-07
8.42254e-05
-1.14653e-06
1.30769e-06
-6.52313e-07
8.05144e-05
-1.10785e-06
1.28787e-06
-8.08694e-07
9.78552e-05
1.03963e-06
-9.41221e-07
0.000111577
5.8188e-07
-1.03963e-06
0.000121084
-4.87282e-16
-1.09169e-06
0.000125946
-5.8188e-07
-1.09169e-06
0.000125946
-1.03963e-06
-1.03963e-06
0.000121084
-1.28787e-06
-9.41221e-07
0.000111577
-1.30769e-06
-8.08694e-07
9.78552e-05
-6.52313e-07
8.05144e-05
-1.10785e-06
1.20541e-06
-8.45435e-07
7.34355e-05
-1.03125e-06
1.17439e-06
-1.02263e-06
8.97026e-05
9.41221e-07
-1.17439e-06
0.000102603
5.2473e-07
-1.28787e-06
0.000111577
-5.15952e-15
-1.34784e-06
0.000116181
-5.2473e-07
-1.34784e-06
0.000116181
-9.41221e-07
-1.28787e-06
0.000111577
-1.17439e-06
-1.17439e-06
0.000102603
-1.20541e-06
-1.02263e-06
8.97026e-05
-8.45435e-07
7.34355e-05
-1.03125e-06
1.07131e-06
-9.27094e-07
6.36605e-05
-9.29502e-07
1.02263e-06
-1.07131e-06
7.8115e-05
8.08694e-07
-1.20541e-06
8.97026e-05
4.47702e-07
-1.30769e-06
9.78552e-05
-1.00602e-14
-1.36129e-06
0.000102068
-4.47702e-07
-1.36129e-06
0.000102068
-8.08694e-07
-1.30769e-06
9.78552e-05
-1.02263e-06
-1.20541e-06
8.97026e-05
-1.07131e-06
-1.07131e-06
7.8115e-05
-9.27094e-07
6.36605e-05
-9.29502e-07
9.27094e-07
5.20502e-05
-8.49929e-07
-8.49929e-07
8.45435e-07
6.36605e-05
-9.29502e-07
6.52313e-07
7.34355e-05
-1.03125e-06
3.56778e-07
8.05144e-05
-1.10785e-06
-1.32524e-14
8.42254e-05
-1.14653e-06
-3.56778e-07
8.42254e-05
-1.14653e-06
-6.52313e-07
8.05144e-05
-1.10785e-06
-8.45435e-07
7.34355e-05
-1.03125e-06
-9.27094e-07
6.36605e-05
-9.29502e-07
5.20502e-05
-8.49929e-07
-8.49929e-07
-1.61505e-07
-1.61505e-07
5.19764e-05
1.98405e-07
1.98405e-07
-9.85106e-08
-8.72923e-08
6.35473e-05
1.37462e-07
-5.12965e-08
-6.86713e-08
7.33266e-05
1.304e-07
-2.05748e-08
-3.47919e-08
8.04115e-05
1.06983e-07
-2.98703e-14
-2.23118e-08
8.41282e-05
9.8904e-08
2.05747e-08
-2.23118e-08
8.41282e-05
9.8904e-08
5.12964e-08
-3.47919e-08
8.04115e-05
1.06983e-07
9.85105e-08
-6.86713e-08
7.33266e-05
1.304e-07
1.61505e-07
-8.72923e-08
6.35473e-05
1.37462e-07
-1.61505e-07
5.19764e-05
1.98405e-07
1.98405e-07
-8.72923e-08
-9.85106e-08
6.35473e-05
1.37462e-07
-1.88143e-08
-1.88143e-08
7.7978e-05
1.28355e-08
1.1549e-08
8.95907e-05
1.70006e-08
4.94334e-08
9.77668e-05
-3.31895e-14
6.66777e-08
0.000101996
-1.70006e-08
6.66777e-08
0.000101996
-1.28356e-08
4.94334e-08
9.77668e-05
1.88142e-08
1.1549e-08
8.95907e-05
8.72922e-08
-1.88143e-08
7.7978e-05
-9.85106e-08
6.35473e-05
1.37462e-07
-6.86713e-08
-5.12965e-08
7.33266e-05
1.304e-07
1.1549e-08
1.28355e-08
8.95907e-05
4.29299e-08
4.29299e-08
0.000102541
3.53457e-08
7.57722e-08
0.000111558
-3.30698e-14
9.216e-08
0.000116191
-3.53458e-08
9.216e-08
0.000116191
-4.293e-08
7.57722e-08
0.000111558
-1.1549e-08
4.29299e-08
0.000102541
6.86712e-08
1.28355e-08
8.95907e-05
-5.12965e-08
7.33266e-05
1.304e-07
-3.47919e-08
-2.05748e-08
8.04115e-05
1.06983e-07
4.94334e-08
1.70006e-08
9.77668e-05
7.57722e-08
3.53457e-08
0.000111558
5.41734e-08
5.41734e-08
0.000121127
-3.23525e-14
6.39303e-08
0.000126028
-5.41735e-08
6.39303e-08
0.000126028
-7.57722e-08
5.41734e-08
0.000121127
-4.94335e-08
3.53457e-08
0.000111558
3.47918e-08
1.70006e-08
9.77668e-05
-2.05748e-08
8.04115e-05
1.06983e-07
-2.23118e-08
-3.02753e-14
8.41282e-05
9.8904e-08
6.66777e-08
-3.37852e-14
0.000101996
9.216e-08
-3.37645e-14
0.000116191
6.39303e-08
-3.31264e-14
0.000126028
-3.11911e-14
-3.19802e-14
0.000131062
-6.39303e-08
-3.14358e-14
0.000131062
-9.216e-08
-3.13416e-14
0.000126028
-6.66777e-08
-3.11e-14
0.000116191
2.23118e-08
-3.0272e-14
0.000101996
-2.64653e-14
8.41282e-05
9.8904e-08
-2.23118e-08
2.05747e-08
8.41282e-05
9.8904e-08
6.66777e-08
-1.70006e-08
0.000101996
9.216e-08
-3.53458e-08
0.000116191
6.39303e-08
-5.41735e-08
0.000126028
-3.06646e-14
-6.39303e-08
0.000131062
-6.39303e-08
-6.39303e-08
0.000131062
-9.216e-08
-5.41735e-08
0.000126028
-6.66777e-08
-3.53457e-08
0.000116191
2.23118e-08
-1.70006e-08
0.000101996
2.05747e-08
8.41282e-05
9.8904e-08
-3.47919e-08
5.12964e-08
8.04115e-05
1.06983e-07
4.94334e-08
-1.28356e-08
9.77668e-05
7.57722e-08
-4.293e-08
0.000111558
5.41734e-08
-7.57722e-08
0.000121127
-3.06267e-14
-9.216e-08
0.000126028
-5.41735e-08
-9.216e-08
0.000126028
-7.57722e-08
-7.57722e-08
0.000121127
-4.94335e-08
-4.293e-08
0.000111558
3.47919e-08
-1.28356e-08
9.77668e-05
5.12965e-08
8.04115e-05
1.06983e-07
-6.86713e-08
9.85105e-08
7.33266e-05
1.304e-07
1.1549e-08
1.88142e-08
8.95907e-05
4.29299e-08
-1.1549e-08
0.000102541
3.53457e-08
-4.94335e-08
0.000111558
-3.04619e-14
-6.66777e-08
0.000116191
-3.53457e-08
-6.66777e-08
0.000116191
-4.293e-08
-4.94335e-08
0.000111558
-1.1549e-08
-1.1549e-08
0.000102541
6.86712e-08
1.88143e-08
8.95907e-05
9.85105e-08
7.33266e-05
1.304e-07
-8.72923e-08
1.61505e-07
6.35473e-05
1.37462e-07
-1.88143e-08
8.72922e-08
7.7978e-05
1.28355e-08
6.86712e-08
8.95907e-05
1.70006e-08
3.47918e-08
9.77668e-05
-2.97452e-14
2.23118e-08
0.000101996
-1.70006e-08
2.23118e-08
0.000101996
-1.28356e-08
3.47919e-08
9.77668e-05
1.88143e-08
6.86712e-08
8.95907e-05
8.72922e-08
8.72922e-08
7.7978e-05
1.61505e-07
6.35473e-05
1.37462e-07
-1.61505e-07
5.19764e-05
1.98405e-07
1.98405e-07
-9.85106e-08
6.35473e-05
1.37462e-07
-5.12965e-08
7.33266e-05
1.304e-07
-2.05748e-08
8.04115e-05
1.06983e-07
-2.6025e-14
8.41282e-05
9.8904e-08
2.05747e-08
8.41282e-05
9.8904e-08
5.12965e-08
8.04115e-05
1.06983e-07
9.85105e-08
7.33266e-05
1.304e-07
1.61505e-07
6.35473e-05
1.37462e-07
5.19764e-05
1.98405e-07
1.98405e-07
3.42659e-07
3.42659e-07
5.19599e-05
-3.34374e-07
-3.34374e-07
2.89871e-07
3.64156e-07
6.35779e-05
-3.41915e-07
2.13586e-07
3.9179e-07
7.33786e-05
-3.6752e-07
1.13389e-07
4.12712e-07
8.04841e-05
-3.85051e-07
-2.50144e-14
4.22663e-07
8.42123e-05
-3.93353e-07
-1.1339e-07
4.22663e-07
8.42123e-05
-3.93353e-07
-2.13586e-07
4.12712e-07
8.04841e-05
-3.85051e-07
-2.89871e-07
3.9179e-07
7.33786e-05
-3.6752e-07
-3.42659e-07
3.64156e-07
6.35779e-05
-3.41915e-07
3.42659e-07
5.19599e-05
-3.34374e-07
-3.34374e-07
3.64156e-07
2.89871e-07
6.35779e-05
-3.41915e-07
3.19215e-07
3.19215e-07
7.80679e-05
2.39719e-07
3.48862e-07
8.97131e-05
1.28994e-07
3.70417e-07
9.79198e-05
-3.26177e-14
3.81272e-07
0.000102166
-1.28994e-07
3.81272e-07
0.000102166
-2.39719e-07
3.70417e-07
9.79198e-05
-3.19215e-07
3.48862e-07
8.97131e-05
-3.64156e-07
3.19215e-07
7.80679e-05
2.89871e-07
6.35779e-05
-3.41915e-07
3.9179e-07
2.13586e-07
7.33786e-05
-3.6752e-07
3.48862e-07
2.39719e-07
8.97131e-05
2.65381e-07
2.65381e-07
0.000102708
1.43719e-07
2.83788e-07
0.000111767
-3.83264e-14
2.9316e-07
0.000116422
-1.43719e-07
2.9316e-07
0.000116422
-2.65381e-07
2.83788e-07
0.000111767
-3.48862e-07
2.65381e-07
0.000102708
-3.9179e-07
2.39719e-07
8.97131e-05
2.13586e-07
7.33786e-05
-3.6752e-07
4.12712e-07
1.13389e-07
8.04841e-05
-3.85051e-07
3.70417e-07
1.28994e-07
9.79198e-05
2.83788e-07
1.43719e-07
0.000111767
1.5437e-07
1.5437e-07
0.000121386
-4.21298e-14
1.5982e-07
0.000126316
-1.5437e-07
1.5982e-07
0.000126316
-2.83788e-07
1.5437e-07
0.000121386
-3.70418e-07
1.43719e-07
0.000111767
-4.12712e-07
1.28994e-07
9.79198e-05
1.13389e-07
8.04841e-05
-3.85051e-07
4.22663e-07
-2.50412e-14
8.42123e-05
-3.93353e-07
3.81272e-07
-3.27868e-14
0.000102166
2.9316e-07
-3.86239e-14
0.000116422
1.5982e-07
-4.25238e-14
0.000126316
-4.39077e-14
-4.43411e-14
0.000131381
-1.5982e-07
-4.41761e-14
0.000131381
-2.9316e-07
-4.20396e-14
0.000126316
-3.81273e-07
-3.79005e-14
0.000116422
-4.22663e-07
-3.19348e-14
0.000102166
-2.42311e-14
8.42123e-05
-3.93353e-07
4.22663e-07
-1.1339e-07
8.42123e-05
-3.93353e-07
3.81272e-07
-1.28994e-07
0.000102166
2.9316e-07
-1.43719e-07
0.000116422
1.5982e-07
-1.5437e-07
0.000126316
-4.37676e-14
-1.5982e-07
0.000131381
-1.5982e-07
-1.5982e-07
0.000131381
-2.9316e-07
-1.5437e-07
0.000126316
-3.81273e-07
-1.43719e-07
0.000116422
-4.22663e-07
-1.28994e-07
0.000102166
-1.1339e-07
8.42123e-05
-3.93353e-07
4.12712e-07
-2.13586e-07
8.04841e-05
-3.85051e-07
3.70417e-07
-2.39719e-07
9.79198e-05
2.83788e-07
-2.65381e-07
0.000111767
1.5437e-07
-2.83788e-07
0.000121386
-4.17151e-14
-2.9316e-07
0.000126316
-1.5437e-07
-2.9316e-07
0.000126316
-2.83788e-07
-2.83788e-07
0.000121386
-3.70418e-07
-2.65381e-07
0.000111767
-4.12712e-07
-2.39719e-07
9.79198e-05
-2.13586e-07
8.04841e-05
-3.85051e-07
3.9179e-07
-2.89871e-07
7.33786e-05
-3.6752e-07
3.48862e-07
-3.19215e-07
8.97131e-05
2.65381e-07
-3.48862e-07
0.000102708
1.43719e-07
-3.70418e-07
0.000111767
-3.77003e-14
-3.81273e-07
0.000116422
-1.43719e-07
-3.81273e-07
0.000116422
-2.65381e-07
-3.70418e-07
0.000111767
-3.48862e-07
-3.48862e-07
0.000102708
-3.9179e-07
-3.19215e-07
8.97131e-05
-2.89871e-07
7.33786e-05
-3.6752e-07
3.64156e-07
-3.42659e-07
6.35779e-05
-3.41915e-07
3.19215e-07
-3.64156e-07
7.80679e-05
2.39719e-07
-3.9179e-07
8.97131e-05
1.28994e-07
-4.12712e-07
9.79198e-05
-3.1878e-14
-4.22663e-07
0.000102166
-1.28994e-07
-4.22663e-07
0.000102166
-2.39719e-07
-4.12712e-07
9.79198e-05
-3.19215e-07
-3.9179e-07
8.97131e-05
-3.64156e-07
-3.64156e-07
7.80679e-05
-3.42659e-07
6.35779e-05
-3.41915e-07
3.42659e-07
5.19599e-05
-3.34374e-07
-3.34374e-07
2.89871e-07
6.35779e-05
-3.41915e-07
2.13586e-07
7.33786e-05
-3.6752e-07
1.13389e-07
8.04841e-05
-3.85051e-07
-2.42805e-14
8.42123e-05
-3.93353e-07
-1.1339e-07
8.42123e-05
-3.93353e-07
-2.13586e-07
8.04841e-05
-3.85051e-07
-2.89871e-07
7.33786e-05
-3.6752e-07
-3.42659e-07
6.35779e-05
-3.41915e-07
5.19599e-05
-3.34374e-07
-3.34374e-07
-1.88752e-07
-1.88752e-07
5.19469e-05
1.95226e-07
1.95226e-07
-1.4833e-07
-1.81694e-07
6.35322e-05
1.86914e-07
-1.02865e-07
-1.86135e-07
7.33242e-05
1.95021e-07
-5.25066e-08
-1.87043e-07
8.04227e-05
1.98074e-07
-1.28544e-14
-1.8693e-07
8.41474e-05
1.99313e-07
5.25066e-08
-1.8693e-07
8.41474e-05
1.99313e-07
1.02865e-07
-1.87043e-07
8.04227e-05
1.98074e-07
1.4833e-07
-1.86135e-07
7.33242e-05
1.95021e-07
1.88752e-07
-1.81694e-07
6.35322e-05
1.86914e-07
-1.88752e-07
5.19469e-05
1.95226e-07
1.95226e-07
-1.81694e-07
-1.4833e-07
6.35322e-05
1.86914e-07
-1.42206e-07
-1.42206e-07
7.79889e-05
-9.75872e-08
-1.44607e-07
8.9627e-05
-4.9758e-08
-1.43346e-07
9.78283e-05
-2.10906e-14
-1.42524e-07
0.000102072
4.9758e-08
-1.42524e-07
0.000102072
9.75872e-08
-1.43346e-07
9.78283e-05
1.42206e-07
-1.44607e-07
8.9627e-05
1.81694e-07
-1.42206e-07
7.79889e-05
-1.4833e-07
6.35322e-05
1.86914e-07
-1.86135e-07
-1.02865e-07
7.33242e-05
1.95021e-07
-1.44607e-07
-9.75872e-08
8.9627e-05
-9.89515e-08
-9.89515e-08
0.000102616
-5.01272e-08
-9.72992e-08
0.000111672
-2.88777e-14
-9.63136e-08
0.000116326
5.01271e-08
-9.63136e-08
0.000116326
9.89514e-08
-9.72992e-08
0.000111672
1.44607e-07
-9.89515e-08
0.000102616
1.86135e-07
-9.75872e-08
8.9627e-05
-1.02865e-07
7.33242e-05
1.95021e-07
-1.87043e-07
-5.25066e-08
8.04227e-05
1.98074e-07
-1.43346e-07
-4.9758e-08
9.78283e-05
-9.72992e-08
-5.01272e-08
0.000111672
-4.89805e-08
-4.89805e-08
0.000121289
-3.48052e-14
-4.83092e-08
0.000126219
4.89805e-08
-4.83092e-08
0.000126219
9.72991e-08
-4.89805e-08
0.000121289
1.43346e-07
-5.01272e-08
0.000111672