/*--------------------------------*- C++ -*----------------------------------*\
| =========                 |                                                 |
| \\      /  F ield         | OpenFOAM: The Open Source CFD Toolbox           |
|  \\    /   O peration     | Version:  2406                                  |
|   \\  /    A nd           | Website:  www.openfoam.com                      |
|    \\/     M anipulation  |                                                 |
\*---------------------------------------------------------------------------*/
FoamFile
{
    version     2.0;
    format      ascii;
    arch        "LSB;label=32;scalar=64";
    class       volScalarField;
    location    "0.5";
    object      div(phi);
}
// * * * * * * * * * * * * * * * * * * * * * * * * * * * * * * * * * * * * * //

dimensions      [0 0 -1 0 0 0 0];

internalField   nonuniform List<scalar> 
25000
(
-0.0987492
-0.0869229
-0.0858247
-0.0808587
-0.0755859
-0.0725899
-0.0687789
-0.0663376
-0.0687375
-0.05447
-0.082459
-0.0712266
-0.0683585
-0.0662951
-0.0629707
-0.0576132
-0.0568701
-0.0561462
-0.0506897
-0.0410006
-0.0728155
-0.062842
-0.0641909
-0.0619717
-0.0578025
-0.0556686
-0.0523558
-0.0497265
-0.0501045
-0.0379707
-0.0657925
-0.057608
-0.0571609
-0.0566285
-0.0540892
-0.0495642
-0.0488346
-0.048559
-0.0447462
-0.0363598
-0.0597791
-0.0510294
-0.0529164
-0.0521982
-0.0492847
-0.0475616
-0.0459105
-0.0443099
-0.0436378
-0.0344497
-0.0554407
-0.0477729
-0.0482986
-0.048341
-0.046636
-0.0439194
-0.043161
-0.042997
-0.0413745
-0.0325965
-0.0522248
-0.0441739
-0.0452405
-0.0451975
-0.0429839
-0.0415239
-0.0418176
-0.0410264
-0.0392495
-0.03212
-0.0494839
-0.0415068
-0.0423548
-0.0413681
-0.0399166
-0.0400469
-0.0387769
-0.0392668
-0.0396195
-0.0303227
-0.0463219
-0.0391933
-0.0377914
-0.0374605
-0.0369426
-0.0355444
-0.0372467
-0.037987
-0.036454
-0.0297198
-0.0380789
-0.0294233
-0.0293917
-0.0290187
-0.0284261
-0.0291452
-0.029574
-0.0294613
-0.0297713
-0.0223109
-0.0326655
-0.0322221
-0.032906
-0.0324433
-0.0329284
-0.0339157
-0.0354525
-0.0367836
-0.0383736
-0.0318934
-0.0301049
-0.0281962
-0.0289225
-0.0293834
-0.0295741
-0.029629
-0.0305503
-0.031561
-0.0314839
-0.0259463
-0.0319413
-0.0289955
-0.0300063
-0.0309131
-0.0307814
-0.0304697
-0.0307097
-0.030851
-0.030995
-0.0257257
-0.0335227
-0.0297641
-0.0313798
-0.0321903
-0.031824
-0.0311469
-0.0310147
-0.0309881
-0.0304405
-0.0253875
-0.0360587
-0.0310809
-0.0321357
-0.0332454
-0.0325965
-0.0316804
-0.0314779
-0.0310319
-0.0300349
-0.0252869
-0.0371108
-0.0316766
-0.0332227
-0.0336054
-0.0329393
-0.0319433
-0.0312815
-0.030755
-0.0303915
-0.0248152
-0.0397596
-0.0329873
-0.033201
-0.0337626
-0.032475
-0.0312457
-0.0312545
-0.030871
-0.0295037
-0.025237
-0.0404941
-0.0332896
-0.0335271
-0.0325235
-0.0313461
-0.0309294
-0.030102
-0.0297609
-0.0308009
-0.0244873
-0.0412959
-0.0338893
-0.0321451
-0.0313843
-0.0300319
-0.0290263
-0.0290126
-0.0300463
-0.0287947
-0.0235238
-0.034837
-0.0270241
-0.0267599
-0.0257969
-0.0249248
-0.0245039
-0.0244063
-0.0237995
-0.023162
-0.0174235
-0.0879219
-0.075982
-0.0716236
-0.0652099
-0.0574732
-0.0513023
-0.0467811
-0.0433253
-0.0430082
-0.0342014
-0.0702084
-0.0557828
-0.050938
-0.0454162
-0.0399876
-0.0354242
-0.0328434
-0.0321643
-0.0302749
-0.0246605
-0.0593965
-0.0470321
-0.042898
-0.0388926
-0.0339358
-0.0303052
-0.028369
-0.0271268
-0.0275278
-0.0223827
-0.0504392
-0.0395285
-0.0369239
-0.0333548
-0.0295658
-0.0262724
-0.0248025
-0.0247645
-0.0243926
-0.0208844
-0.0440074
-0.034445
-0.0323346
-0.0296429
-0.0263708
-0.0239563
-0.0227903
-0.0225676
-0.0230021
-0.0197004
-0.0398747
-0.0312018
-0.0292024
-0.0270216
-0.0244088
-0.0221765
-0.0214654
-0.0216503
-0.0221513
-0.0188343
-0.0369813
-0.0287751
-0.0271987
-0.0252328
-0.0226518
-0.0210978
-0.0209825
-0.0212973
-0.0214985
-0.0187053
-0.0344418
-0.0272933
-0.025778
-0.023641
-0.0216504
-0.0210078
-0.0205141
-0.0211907
-0.0223695
-0.018156
-0.0320077
-0.0256143
-0.0238544
-0.0223833
-0.0210696
-0.0200334
-0.0206633
-0.0216783
-0.0214398
-0.0176674
-0.0257284
-0.0199435
-0.0194187
-0.0184338
-0.0175394
-0.0175158
-0.0178254
-0.0179625
-0.0179413
-0.0135901
0.0426715
0.0348953
0.0308199
0.0248192
0.0176142
0.0124073
0.00752635
0.00555171
0.00596009
0.00441143
0.0346249
0.0260941
0.0213683
0.0169836
0.0124923
0.0078751
0.00614017
0.00467791
0.00290732
0.00298669
0.0259826
0.0192695
0.0168367
0.012581
0.00859931
0.00643179
0.00354956
0.00211859
0.00308498
0.00145594
0.019645
0.0144082
0.0108229
0.00838288
0.00566228
0.00260436
0.00199659
0.00153447
-8.77596e-05
0.000836481
0.0128529
0.00854474
0.00756189
0.00462027
0.00232633
0.00147752
-0.000134457
-0.00118937
5.29824e-05
-0.000690701
0.00934033
0.00601024
0.00335952
0.0021479
0.000681644
-0.00102535
-0.00141728
-0.00133645
-0.00242802
-0.00121356
0.00516096
0.00230222
0.00159846
-0.000159695
-0.00129997
-0.00182954
-0.00251898
-0.0033662
-0.00222584
-0.00211633
0.00306247
0.000766842
-0.000646565
-0.0016048
-0.00238186
-0.00313449
-0.00357372
-0.00305857
-0.00355101
-0.00229981
0.000774284
-0.000515757
-0.0018215
-0.0024529
-0.00316856
-0.00352462
-0.0033868
-0.00383429
-0.00288024
-0.00212353
0.000350954
-0.000841554
-0.00160871
-0.00236191
-0.00278787
-0.00292385
-0.00289133
-0.00245501
-0.00180607
-0.00129234
-0.0257862
-0.0195219
-0.0165824
-0.0138757
-0.00853205
-0.00300963
0.00137503
0.00483547
0.00746209
0.00603866
-0.0153451
-0.00937224
-0.00784221
-0.00379883
-0.000615355
0.00168973
0.00529086
0.00708169
0.00687935
0.00649644
-0.010516
-0.00625497
-0.00252053
-0.0011128
0.0013179
0.00436723
0.00534948
0.00679952
0.00874195
0.00643601
-0.00499976
-0.00185469
-0.00148982
0.00119318
0.00301121
0.0037231
0.0062846
0.00781022
0.00717393
0.00687493
-0.00288811
-0.00125078
0.0011858
0.00218484
0.00310134
0.0049872
0.00577101
0.00669055
0.00830083
0.00633624
-0.000987947
0.000967501
0.00160585
0.0030459
0.00427414
0.00445382
0.00616011
0.00749477
0.00703346
0.00635156
0.000474828
0.00117843
0.00281361
0.00404463
0.00446657
0.00576273
0.00643547
0.00678461
0.00757346
0.00612891
0.00110468
0.00260018
0.00352032
0.00461756
0.00556466
0.00609588
0.00664257
0.0073669
0.00722411
0.00585347
0.00265712
0.00298642
0.00467646
0.0055722
0.00643452
0.00678835
0.00723975
0.00726861
0.00701994
0.00547472
0.00240602
0.00337354
0.00454824
0.0056149
0.00610316
0.00642901
0.0063332
0.00606622
0.00541373
0.00400423
0.081513
0.0717487
0.0695279
0.0633045
0.0572187
0.0528709
0.0481061
0.0451524
0.0464198
0.0361053
0.0694678
0.0566526
0.050659
0.047222
0.0422458
0.0365913
0.0361236
0.0355004
0.0318033
0.0273301
0.0571257
0.0459493
0.0449111
0.0395307
0.0343365
0.03228
0.0291775
0.0283702
0.0312982
0.0239789
0.0497968
0.0400437
0.0353277
0.0327552
0.0283569
0.0234239
0.0249737
0.0265352
0.0245466
0.0226653
0.0407746
0.031468
0.0313001
0.0268572
0.0219827
0.0208395
0.0205538
0.0213462
0.0246404
0.0199301
0.0365115
0.0290173
0.0257239
0.0237301
0.0207784
0.017649
0.0192923
0.0214048
0.0207388
0.0188886
0.0320071
0.0242456
0.0239469
0.021914
0.0189438
0.0185802
0.01881
0.0189474
0.021039
0.0177089
0.0288058
0.0230824
0.0216325
0.0201782
0.0188574
0.0182182
0.0180393
0.0198448
0.0200571
0.016887
0.0262833
0.0207894
0.0201446
0.0192635
0.018603
0.0177552
0.0189241
0.0191754
0.0197347
0.0160894
0.0208068
0.0166852
0.0166908
0.0164135
0.0158036
0.016085
0.0162246
0.0165691
0.0164514
0.0124678
0.0144232
0.0179744
0.0209415
0.0227011
0.0256738
0.0279959
0.0302601
0.0317138
0.0322054
0.0264706
0.0173271
0.0179832
0.0189822
0.0209351
0.0217428
0.0227255
0.0245845
0.0259843
0.0261517
0.021928
0.0202562
0.0192321
0.020826
0.0210265
0.0211724
0.0216732
0.0227843
0.024601
0.0260313
0.0216582
0.0235023
0.0208056
0.0208279
0.0211679
0.0201457
0.0192408
0.0215882
0.02398
0.0246786
0.0216357
0.0247897
0.0211006
0.0217463
0.0210613
0.019104
0.0186623
0.0206048
0.0230737
0.0248771
0.0211325
0.026018
0.0221273
0.0222182
0.0217483
0.0206941
0.0196312
0.0215845
0.0237046
0.0243339
0.0209228
0.0270354
0.022532
0.0229176
0.0231861
0.0217079
0.021882
0.0228833
0.0238694
0.0245825
0.0206819
0.0268899
0.0232445
0.0236608
0.0234018
0.0231151
0.0232268
0.0234364
0.0244795
0.0247928
0.0200649
0.0268503
0.0226082
0.0235361
0.0236295
0.023688
0.0232466
0.0238892
0.0242521
0.0235042
0.0184174
0.02167
0.0186548
0.0196661
0.0203169
0.0202423
0.0204323
0.0201978
0.0197061
0.0183342
0.0136874
0.0868355
0.0775688
0.0753652
0.0710753
0.0656894
0.0610591
0.057548
0.0552105
0.054732
0.0449141
0.0739044
0.0607755
0.0570554
0.0523714
0.0472038
0.0431717
0.041391
0.041516
0.0410824
0.0341497
0.0669206
0.0546087
0.0509374
0.0467599
0.041192
0.0368822
0.036149
0.0370223
0.0384172
0.0326101
0.0610582
0.0487576
0.0461119
0.0416458
0.0357077
0.0312609
0.0317862
0.0343427
0.0360391
0.0314055
0.0566735
0.0450101
0.0422988
0.0382985
0.0323787
0.0286598
0.0302137
0.0329227
0.0347256
0.030562
0.0539937
0.0424341
0.0404044
0.0370427
0.0328751
0.0302083
0.0309619
0.0329732
0.0348004
0.0297189
0.0521443
0.0411752
0.03913
0.0370683
0.0335401
0.0317684
0.0327276
0.0339124
0.0343206
0.0297685
0.0501228
0.0398387
0.0385525
0.0360722
0.0337713
0.0334775
0.0330275
0.0342327
0.0357274
0.0289214
0.0474164
0.0381
0.0362276
0.0346643
0.033445
0.0321161
0.0333858
0.0345835
0.0339773
0.0274854
0.038175
0.0297102
0.0292682
0.0284601
0.0274991
0.0277758
0.0281167
0.0281033
0.027575
0.0206742
0.0286998
0.032217
0.0354576
0.0389005
0.0415686
0.0424534
0.045145
0.0472966
0.0458003
0.0399816
0.0288559
0.0285107
0.0317848
0.0320338
0.0315704
0.0335206
0.0334433
0.0354038
0.0393233
0.0317045
0.0353051
0.0327417
0.0313716
0.0327868
0.0318345
0.0293712
0.0325758
0.0360859
0.0359181
0.032997
0.037376
0.0322941
0.0350873
0.0330212
0.0302343
0.0298349
0.0306622
0.0339727
0.0388959
0.0326759
0.041983
0.0364236
0.0344575
0.0345047
0.0316945
0.0288794
0.0325271
0.0368134
0.0371361
0.0340463
0.0430365
0.0360502
0.0379963
0.0359974
0.0339258
0.0338184
0.0349187
0.0370831
0.0407598
0.0338383
0.0463952
0.0394453
0.0383163
0.0389072
0.036956
0.0359901
0.038297
0.0406343
0.0399573
0.0349903
0.0462775
0.0396957
0.040499
0.0394911
0.0383644
0.0394347
0.0395385
0.0406076
0.0429412
0.034337
0.0466161
0.0390961
0.0396113
0.0388993
0.0390248
0.0381417
0.0398407
0.0416938
0.0403958
0.0324379
0.0374779
0.0311829
0.0319231
0.0324233
0.0321361
0.0329558
0.0334829
0.0332345
0.032164
0.0240898
0.0959549
0.0866738
0.0849067
0.0810413
0.0757997
0.0706249
0.0680165
0.0666342
0.065382
0.054938
0.0794934
0.0662072
0.0640078
0.0589007
0.0535933
0.0502087
0.0480291
0.0489795
0.0510268
0.041825
0.0728563
0.060825
0.0566256
0.0536169
0.0479976
0.0425316
0.0431452
0.045647
0.0464835
0.0412188
0.066375
0.0540544
0.0535012
0.0486782
0.0425535
0.0388895
0.0388912
0.0423008
0.0466014
0.0400111
0.063731
0.0523175
0.0491563
0.046442
0.0409556
0.0366039
0.0392057
0.0432574
0.0445476
0.0403793
0.061138
0.0494296
0.0491569
0.0457552
0.0416469
0.0400858
0.040843
0.0433472
0.0470029
0.0397987
0.0612287
0.0500723
0.0481222
0.046746
0.0435291
0.0415395
0.0437038
0.0460513
0.0461725
0.0405835
0.0594677
0.0491409
0.0486207
0.0463309
0.0439017
0.0443826
0.0443136
0.0459685
0.0489072
0.0397319
0.0578773
0.0478379
0.0463825
0.0448752
0.0437291
0.0425629
0.0442477
0.0467904
0.0461152
0.037516
0.0467143
0.0373894
0.0374657
0.0368219
0.0360232
0.0365167
0.0373001
0.0375425
0.0370048
0.0280918
0.054696
0.0543056
0.0556236
0.0579773
0.0585235
0.0571944
0.0587559
0.0600334
0.0569358
0.0495584
0.0493494
0.0442731
0.0471443
0.0447716
0.0426854
0.0439281
0.0423615
0.0440163
0.048986
0.0389478
0.0549572
0.0481691
0.0439641
0.0446225
0.0421313
0.0377256
0.0412294
0.0450537
0.0439498
0.0406888
0.0548465
0.0452228
0.0478081
0.0435914
0.0390172
0.0381982
0.0384024
0.0418961
0.0481886
0.0402226
0.0591251
0.0496919
0.0454883
0.0443708
0.0399937
0.0358045
0.0404959
0.0457251
0.0457127
0.0421717
0.0594951
0.0479756
0.0492
0.0455487
0.0417494
0.041756
0.0430151
0.0457607
0.050568
0.0421205
0.0625256
0.0517523
0.0490688
0.048242
0.0455472
0.0437475
0.0468932
0.0501293
0.0495797
0.0434863
0.062206
0.051217
0.0511399
0.0488725
0.0466886
0.0477317
0.0481597
0.049785
0.0531052
0.0428174
0.0612362
0.0506415
0.0492238
0.0478915
0.0468695
0.0460495
0.0477788
0.0508638
0.0497163
0.0399017
0.0497503
0.0397956
0.0399916
0.0394672
0.0388729
0.0393663
0.0402987
0.0403699
0.0392261
0.029623
0.0866701
0.08089
0.0803085
0.0797006
0.0767514
0.072968
0.0720899
0.0714147
0.0688296
0.0581374
0.0738831
0.0629357
0.0631414
0.058685
0.054379
0.0536065
0.0510923
0.0523557
0.0558974
0.04461
0.0735801
0.062051
0.0564284
0.0551516
0.0507455
0.0451798
0.0479797
0.0509105
0.050263
0.045438
0.0694174
0.0558961
0.0568636
0.0512022
0.0449734
0.043057
0.0435113
0.0472399
0.0533832
0.0445698
0.0705056
0.0576599
0.0524233
0.0496317
0.0435882
0.0390659
0.0448352
0.0504544
0.0506389
0.0463707
0.069206
0.0545866
0.054526
0.0496503
0.0449799
0.0451036
0.0472905
0.0504274
0.0557197
0.0461128
0.0707658
0.0573153
0.0536653
0.052222
0.049019
0.0476395
0.0515604
0.0552753
0.0545884
0.0478129
0.0697016
0.056234
0.0555013
0.0527386
0.050532
0.0522654
0.0529708
0.0550923
0.0589192
0.0470357
0.0679809
0.0552677
0.0533606
0.0516382
0.0510873
0.050187
0.0530536
0.0565013
0.0553735
0.0444281
0.0552934
0.0436688
0.0434065
0.0428651
0.0421191
0.0432048
0.044448
0.0447383
0.0438717
0.0325968
0.0694205
0.0677755
0.068805
0.0714355
0.0713436
0.0691839
0.070288
0.0706566
0.0667212
0.0571923
0.0620902
0.0551403
0.0581172
0.0549253
0.0516473
0.0531378
0.0503354
0.0517952
0.0567652
0.0443954
0.0684849
0.0591936
0.0532364
0.0536622
0.050301
0.0446595
0.0490663
0.0524663
0.0503811
0.0464673
0.0671254
0.0545014
0.0572108
0.051052
0.0449397
0.0445572
0.0449606
0.0486578
0.0559845
0.0458974
0.0718959
0.0595032
0.0530089
0.0504098
0.0443907
0.0400896
0.0474438
0.0537016
0.0527884
0.0487571
0.0718844
0.0565298
0.05696
0.051128
0.0464564
0.047905
0.05052
0.053611
0.0597077
0.0487048
0.0750598
0.0610126
0.056364
0.0552307
0.0521252
0.0511478
0.0557292
0.0599088
0.058332
0.0508861
0.0744837
0.0600377
0.0594809
0.0565894
0.0546568
0.0569354
0.0577697
0.0596135
0.0634872
0.0500883
0.0730406
0.059234
0.0576225
0.0558526
0.0557224
0.0547807
0.057801
0.061195
0.0592784
0.0470423
0.0592162
0.0469879
0.046709
0.0464276
0.0456576
0.0468259
0.0479137
0.0478344
0.0464537
0.0342849
0.0881671
0.0827063
0.0828358
0.0830582
0.0807594
0.0774456
0.0770201
0.0758782
0.0731224
0.0609901
0.0746542
0.0644627
0.0655924
0.0617701
0.0578986
0.0576864
0.0550184
0.0562775
0.0591954
0.0466896
0.0757326
0.0644825
0.0590906
0.058518
0.0543244
0.0489508
0.0523
0.0547141
0.0533341
0.0477497
0.0721774
0.0587746
0.0604022
0.0542958
0.0479892
0.0471762
0.0476189
0.0511264
0.0571602
0.0469426
0.075047
0.0617658
0.0556946
0.0524105
0.0461709
0.0426222
0.0494959
0.0550485
0.0542356
0.0493639
0.0743156
0.0588511
0.0586433
0.0526286
0.0479384
0.0495645
0.0521775
0.0550691
0.0605726
0.0491923
0.0770975
0.0627807
0.0582744
0.0568347
0.0537078
0.0528194
0.0572565
0.0610877
0.0591935
0.0514706
0.0764047
0.0619259
0.0612731
0.0582804
0.0562105
0.0584162
0.059058
0.0606263
0.0644249
0.050532
0.0749219
0.0612724
0.059191
0.0573569
0.0570009
0.055927
0.0588524
0.0621825
0.0600648
0.0478596
0.0608619
0.0482538
0.0479261
0.0474547
0.0466087
0.0477446
0.04877
0.0485563
0.04731
0.0347961
0.0997891
0.0941564
0.0936669
0.0936767
0.0903909
0.0858332
0.0845004
0.0827788
0.0787495
0.0657656
0.085214
0.0740177
0.0749189
0.0695921
0.0642994
0.0635047
0.059564
0.0601929
0.0632695
0.0493767
0.0873255
0.0739406
0.066517
0.0652739
0.0597791
0.0531692
0.0561933
0.0580618
0.0557089
0.0498836
0.0821824
0.0663599
0.0676702
0.0596825
0.0523071
0.0512868
0.0504504
0.0532133
0.0592119
0.0483348
0.0848971
0.0692872
0.0613702
0.0570648
0.0500621
0.0457533
0.0518367
0.0567006
0.0552876
0.0503877
0.083284
0.0651626
0.0642132
0.0567522
0.0510044
0.0521115
0.0537159
0.0561025
0.0614601
0.0499211
0.0856241
0.0690977
0.0632695
0.0607716
0.056661
0.0547606
0.0587042
0.0620562
0.0598394
0.0520802
0.0843162
0.06754
0.0660883
0.0620056
0.0589043
0.0604316
0.0604247
0.061595
0.065189
0.0512587
0.0818109
0.0662856
0.0632842
0.0605869
0.0594174
0.0577631
0.0603235
0.0634775
0.0611493
0.0488538
0.0660456
0.0517763
0.0508839
0.0497932
0.0485252
0.0494123
0.0504485
0.0502011
0.0489428
0.0362495
0.0629964
0.0611195
0.0631931
0.065585
0.0663471
0.0659451
0.0681282
0.0685747
0.0668937
0.0559823
0.0543867
0.0489054
0.051742
0.0498987
0.0487443
0.0504574
0.0493716
0.0514604
0.0547526
0.0427267
0.0586059
0.0511871
0.0474501
0.0486102
0.0466827
0.0434789
0.0477629
0.0503177
0.048466
0.0435549
0.0580072
0.0481121
0.0507056
0.0462327
0.0424751
0.04376
0.0436409
0.0463494
0.0520667
0.0420751
0.0637694
0.0532802
0.0480022
0.04642
0.0425157
0.0397322
0.0454445
0.0499133
0.0481212
0.0442465
0.0649935
0.0521552
0.0529124
0.0478578
0.0440757
0.0458618
0.0471418
0.0491303
0.0543954
0.0437661
0.06987
0.0578841
0.0538976
0.0527986
0.0500454
0.0483496
0.0520556
0.0553207
0.0525583
0.0461626
0.0706558
0.0581706
0.0579286
0.0550508
0.0525878
0.0542353
0.0542111
0.0546069
0.0581092
0.0453811
0.0704455
0.0584865
0.0565261
0.05457
0.053729
0.0523297
0.0541387
0.0570043
0.0540916
0.0434322
0.0573313
0.0458406
0.0456646
0.0450254
0.0440914
0.0447515
0.0454174
0.0445736
0.0430751
0.0318145
0.0959573
0.087572
0.0858929
0.0852509
0.0810389
0.0763678
0.0746162
0.0730362
0.0698326
0.0585236
0.0806463
0.0676589
0.067489
0.0615657
0.0567424
0.0558076
0.0522081
0.0529972
0.0561515
0.0436512
0.0802925
0.0661112
0.0583955
0.0568227
0.0518906
0.046385
0.0491798
0.0506446
0.0484559
0.0435551
0.0738511
0.0581964
0.0585077
0.0510278
0.0451667
0.044905
0.0433253
0.0452635
0.0506565
0.0412052
0.0752448
0.0602497
0.0525752
0.0487707
0.0432278
0.0390576
0.0434238
0.0469283
0.0455615
0.0421372
0.0735526
0.0565798
0.0551871
0.0484636
0.0428111
0.0429561
0.0430646
0.0447905
0.0498008
0.0408269
0.0752952
0.0601402
0.0545155
0.0512874
0.0469491
0.0436965
0.0464051
0.0488978
0.0473024
0.041999
0.0743808
0.0587668
0.0567168
0.0521623
0.0480475
0.048201
0.0473527
0.0478592
0.0511826
0.0409185
0.0716045
0.0578057
0.0538565
0.0505794
0.0480812
0.0457691
0.0470017
0.0492488
0.0476232
0.0388056
0.0576013
0.0444653
0.0430087
0.040957
0.0390576
0.0389604
0.0394247
0.0390349
0.0385288
0.0289768
0.0158342
0.0177593
0.0203274
0.0242865
0.0277766
0.0302961
0.0347428
0.0371998
0.0364843
0.0314187
0.0136897
0.0143841
0.0186608
0.0191009
0.0211429
0.024991
0.025912
0.0286658
0.0326642
0.0251439
0.0209189
0.0197648
0.0182236
0.0211942
0.0224553
0.0222148
0.0272057
0.0303248
0.0290178
0.0271226
0.0240715
0.0205664
0.0238288
0.0223131
0.0219449
0.0252056
0.0258656
0.0283255
0.033468
0.0267234
0.0318364
0.0274642
0.0243418
0.0250035
0.0241569
0.0231454
0.0280269
0.0317883
0.0305901
0.0288923
0.0351135
0.0286641
0.0303624
0.0277805
0.0256858
0.027747
0.0287411
0.030709
0.0353641
0.0286255
0.0411439
0.0350041
0.0326954
0.0321311
0.0307646
0.0290493
0.0319437
0.0348778
0.0335758
0.0301998
0.0437586
0.0364811
0.0366815
0.0348292
0.0327252
0.033432
0.0335582
0.0338629
0.0371939
0.0295466
0.0450462
0.0382524
0.0364218
0.0351912
0.0336891
0.0327731
0.0331041
0.0356445
0.0340831
0.0277838
0.037334
0.0297617
0.0297238
0.0287742
0.0280296
0.0277255
0.0280653
0.0275019
0.0268226
0.0201841
0.0748635
0.0654214
0.0625566
0.0613213
0.0565227
0.0517969
0.0491329
0.0473537
0.0442394
0.0368932
0.0599276
0.0478876
0.0471135
0.0417283
0.037464
0.0363746
0.0332547
0.0334213
0.0356457
0.0272151
0.0571977
0.0455122
0.0387076
0.0372766
0.0334487
0.029283
0.03099
0.0318138
0.0300942
0.0271485
0.0496669
0.0381309
0.0382474
0.0323412
0.0282158
0.0282106
0.0267874
0.0278518
0.0316182
0.0255991
0.0493327
0.0390606
0.0330685
0.0301174
0.0262629
0.0236101
0.0264651
0.0286732
0.0279817
0.026189
0.0467873
0.0357165
0.0345269
0.0293473
0.0249695
0.0253277
0.0253446
0.0267875
0.0304904
0.0253226
0.0476701
0.0379796
0.0338785
0.0307516
0.027654
0.0250344
0.0270444
0.0290272
0.02878
0.0260103
0.0467497
0.0368265
0.0349958
0.0314592
0.0280193
0.0278779
0.0274615
0.0283415
0.0313362
0.0254685
0.0450774
0.036546
0.0328823
0.0302815
0.027885
0.0265116
0.0273001
0.0296659
0.0294533
0.024372
0.0365473
0.0274832
0.0260834
0.0239773
0.0226706
0.0224851
0.0233585
0.0238009
0.0242547
0.0184472
-0.0409948
-0.0333723
-0.0301021
-0.0242264
-0.0180355
-0.0131291
-0.00717282
-0.00306727
-0.00271094
-0.000300305
-0.0349764
-0.0259341
-0.0199758
-0.0164611
-0.0123505
-0.00635692
-0.00472252
-0.00223224
0.00206638
0.000458944
-0.0236283
-0.0166371
-0.0158256
-0.0106444
-0.00664302
-0.00522794
-0.000331969
0.00231405
0.00071843
0.0033032
-0.0176457
-0.0122958
-0.00683475
-0.00563586
-0.00327398
0.0011165
0.00136647
0.00256678
0.00676258
0.00400508
-0.00775729
-0.00328779
-0.00399571
-0.000423399
0.00168852
0.00171625
0.00532045
0.00757215
0.00555109
0.00685914
-0.00391126
-0.00103212
0.0029399
0.0030513
0.00383458
0.00682126
0.00707427
0.00750961
0.0107557
0.00748177
0.00287017
0.00559419
0.00534799
0.00703084
0.00807938
0.0078531
0.00990915
0.0117889
0.00998887
0.0093881
0.00573976
0.00758503
0.00928572
0.0097179
0.00971899
0.011154
0.0115353
0.0111836
0.0131364
0.00958063
0.00908688
0.00973563
0.0104907
0.0105024
0.0109204
0.0109368
0.0113594
0.0128377
0.0116554
0.00931849
0.00757992
0.00743835
0.00798808
0.00837029
0.00856516
0.00888742
0.00928662
0.00898005
0.00876044
0.00625233
0.0369948
0.0262579
0.0189301
0.0156863
0.00902826
0.00321354
-0.000191972
-0.00207703
-0.00514372
-0.00262294
0.0246723
0.0150735
0.0135614
0.00677573
0.00233171
0.000930197
-0.0036773
-0.00505449
-0.00237673
-0.00361799
0.0239609
0.0160012
0.00799531
0.00622303
0.00273627
-0.00217331
-0.00176279
-0.00245381
-0.00559075
-0.00219215
0.0183576
0.0107987
0.010473
0.00488552
0.00138487
0.00109781
-0.00266095
-0.00402366
-0.00109675
-0.0025248
0.018858
0.0134626
0.00724667
0.00504309
0.00279656
-0.00105767
-0.000563695
-0.000642108
-0.00325779
-0.000777981
0.0177759
0.0104549
0.00899093
0.00512535
0.00192262
0.00200529
-0.000437123
-0.00171028
0.000424122
-0.000641661
0.0169752
0.0125013
0.0080593
0.00513948
0.00366366
0.000753639
0.000691893
0.00090916
-0.00060087
0.000229928
0.0172427
0.0102662
0.00828239
0.0052431
0.00266952
0.00188444
0.000923938
-3.19752e-05
0.000986333
0.000554348
0.0138533
0.0102484
0.00584093
0.00374543
0.00143527
0.000482986
-0.000139767
0.000451747
0.000385807
0.00037922
0.0112932
0.006003
0.00364917
0.00117488
-4.8898e-08
-0.000753737
-0.000539748
-0.000340121
0.000344523
0.000236832
-0.106731
-0.0942583
-0.0918075
-0.0818336
-0.0727878
-0.0660147
-0.058048
-0.052183
-0.0535319
-0.0398204
-0.086863
-0.0708416
-0.0619838
-0.0578603
-0.0521147
-0.0431831
-0.0429149
-0.0411678
-0.0340525
-0.0299293
-0.0643312
-0.0516749
-0.0524403
-0.0452624
-0.039341
-0.0384774
-0.0326201
-0.030295
-0.0343693
-0.0244197
-0.0521934
-0.0428263
-0.035818
-0.034445
-0.0311506
-0.0255491
-0.0276519
-0.0283888
-0.0232226
-0.0224743
-0.0370957
-0.0281234
-0.0298823
-0.024928
-0.0213746
-0.0231359
-0.0206541
-0.0197703
-0.0240196
-0.0178858
-0.0301134
-0.0250401
-0.020633
-0.0199224
-0.0185746
-0.0158057
-0.0178176
-0.0197335
-0.016874
-0.0164407
-0.0235557
-0.017307
-0.0188375
-0.0169095
-0.0149036
-0.0157518
-0.0153533
-0.0146186
-0.0175408
-0.0142785
-0.0192945
-0.0166576
-0.0154457
-0.0150399
-0.0144399
-0.0136049
-0.0136842
-0.0155642
-0.0149617
-0.0132177
-0.0175831
-0.0145033
-0.0147472
-0.0147522
-0.0141179
-0.0138833
-0.0144649
-0.0144296
-0.0151254
-0.0125315
-0.0140316
-0.0121256
-0.0130525
-0.0131068
-0.0128877
-0.0129102
-0.012935
-0.0131876
-0.0129007
-0.0100921
-0.0409146
-0.0426376
-0.0467737
-0.0457572
-0.0462892
-0.047045
-0.0464753
-0.0447599
-0.0465814
-0.0353499
-0.0379632
-0.0364667
-0.0350708
-0.0364955
-0.0368426
-0.0340634
-0.0364408
-0.0372216
-0.0329984
-0.0283404
-0.0325198
-0.0296177
-0.0332286
-0.0316693
-0.0305245
-0.032223
-0.0304721
-0.0303271
-0.0335301
-0.0253163
-0.0313442
-0.0284071
-0.0259903
-0.0271371
-0.026708
-0.0247088
-0.0275156
-0.0293665
-0.0266334
-0.0241863
-0.0273058
-0.0223562
-0.0244229
-0.0225443
-0.0209522
-0.0234592
-0.0236032
-0.0241908
-0.0269599
-0.0215907
-0.0256384
-0.0224961
-0.0206244
-0.0202455
-0.019811
-0.0196879
-0.0221312
-0.0243118
-0.0232284
-0.0205328
-0.0249728
-0.0200508
-0.0212728
-0.0205145
-0.0195953
-0.0206551
-0.0216612
-0.0220958
-0.0232513
-0.0196666
-0.024002
-0.0212162
-0.0211581
-0.0210701
-0.020735
-0.0208283
-0.0212563
-0.0223659
-0.0227499
-0.0185592
-0.02454
-0.0214128
-0.0215567
-0.0219626
-0.0213674
-0.0213517
-0.021562
-0.0223483
-0.0214854
-0.0175145
-0.0204227
-0.0174488
-0.0187505
-0.0189326
-0.0189363
-0.0187591
-0.0186759
-0.0181121
-0.0171714
-0.0129898
-0.0942109
-0.0877581
-0.088692
-0.0833167
-0.0778956
-0.073695
-0.0685962
-0.0635414
-0.0645726
-0.0488856
-0.0805802
-0.0695864
-0.0645498
-0.0621291
-0.0583999
-0.0516994
-0.0516117
-0.0510697
-0.0452069
-0.0378224
-0.0662496
-0.0555703
-0.0566484
-0.0522333
-0.0474995
-0.0464233
-0.0427542
-0.041186
-0.0442971
-0.0337389
-0.0580023
-0.0485814
-0.0440605
-0.042924
-0.0399414
-0.0356086
-0.037175
-0.0386894
-0.0357517
-0.0317788
-0.0483507
-0.0378882
-0.0384415
-0.0344419
-0.0307912
-0.0319697
-0.0316217
-0.0320682
-0.0350461
-0.0286254
-0.0435695
-0.0350898
-0.0312095
-0.0290838
-0.0272883
-0.0264663
-0.0289457
-0.0313785
-0.0308882
-0.0270123
-0.0394924
-0.0301022
-0.0298408
-0.0277688
-0.0256556
-0.0265429
-0.0279564
-0.0288023
-0.0303402
-0.0260079
-0.0364236
-0.0296119
-0.0283636
-0.0272168
-0.0262318
-0.0265432
-0.0269334
-0.0288899
-0.02997
-0.0245596
-0.034445
-0.0280863
-0.0275272
-0.0271388
-0.0266264
-0.0261447
-0.0275379
-0.0287027
-0.0284671
-0.0234957
-0.0281823
-0.0228844
-0.0235281
-0.0234023
-0.0229718
-0.0232784
-0.0235647
-0.0235439
-0.0232369
-0.017494
-0.0750949
-0.0715203
-0.0743534
-0.071035
-0.0685988
-0.0657538
-0.06216
-0.0582066
-0.0582318
-0.0444785
-0.0662121
-0.058676
-0.0554554
-0.0553362
-0.053019
-0.0478909
-0.0480798
-0.0473356
-0.0423929
-0.0351783
-0.0555345
-0.0478825
-0.0506643
-0.0476109
-0.0444904
-0.0439504
-0.0410141
-0.0400583
-0.0422591
-0.032399
-0.0502504
-0.0426858
-0.0394139
-0.0397545
-0.0379687
-0.034729
-0.0367681
-0.0381473
-0.035622
-0.031278
-0.0416488
-0.0331525
-0.0350052
-0.0323528
-0.0300016
-0.0316388
-0.0316832
-0.0326983
-0.0354199
-0.0287701
-0.0380439
-0.0310787
-0.0285162
-0.0277452
-0.0271578
-0.0264023
-0.0295081
-0.0320698
-0.0316772
-0.0275405
-0.034256
-0.0263267
-0.0271667
-0.0266907
-0.0250883
-0.0268356
-0.0283639
-0.0295296
-0.0313106
-0.0265003
-0.0314458
-0.0260783
-0.0258258
-0.0258036
-0.0259868
-0.0267779
-0.027539
-0.0299148
-0.0307125
-0.0251462
-0.0301128
-0.0241471
-0.0255221
-0.0258816
-0.0267445
-0.0265154
-0.0285392
-0.0293999
-0.0293587
-0.0237989
-0.0247278
-0.0209182
-0.0221431
-0.0231835
-0.0232248
-0.0241214
-0.0243365
-0.0243914
-0.0236454
-0.0176645
-0.0512973
-0.0494084
-0.0520288
-0.050897
-0.0512077
-0.050722
-0.0497238
-0.0483586
-0.0477615
-0.0378971
-0.0464978
-0.0408073
-0.0391335
-0.0403094
-0.0394725
-0.0377838
-0.0390498
-0.0389607
-0.0366461
-0.0307174
-0.0408386
-0.0352845
-0.0377258
-0.0360758
-0.0350442
-0.0356121
-0.034574
-0.0353528
-0.0370394
-0.0293789
-0.03982
-0.0336231
-0.0315002
-0.0323278
-0.0313288
-0.029871
-0.032655
-0.0342273
-0.0329125
-0.0291521
-0.0350679
-0.0282638
-0.0300334
-0.0281932
-0.0267797
-0.028612
-0.0290596
-0.0307812
-0.03347
-0.0271915
-0.034171
-0.0281173
-0.0263499
-0.0261909
-0.0259993
-0.0250833
-0.0283225
-0.0307483
-0.0300429
-0.0265042
-0.0323742
-0.0252121
-0.0261579
-0.0261441
-0.0244996
-0.0263324
-0.027315
-0.0281664
-0.0303099
-0.0248558
-0.0308609
-0.0258494
-0.0255774
-0.0254844
-0.025807
-0.0260084
-0.0266929
-0.028918
-0.0284592
-0.0236622
-0.030489
-0.0241433
-0.0257061
-0.0258757
-0.0263526
-0.026001
-0.0273398
-0.0271636
-0.0271727
-0.0211241
-0.0249853
-0.021319
-0.0225252
-0.0234286
-0.0232273
-0.0236176
-0.0232082
-0.0229883
-0.0212501
-0.0160538
-0.0703422
-0.0657822
-0.066477
-0.0640668
-0.062013
-0.0584957
-0.0561406
-0.0532043
-0.0497635
-0.0412927
-0.0617812
-0.0527492
-0.0503468
-0.0482463
-0.0451142
-0.0426432
-0.0411574
-0.0401528
-0.0391498
-0.0320872
-0.0567254
-0.0472615
-0.0458822
-0.0432975
-0.0400654
-0.0379068
-0.0373884
-0.0377882
-0.0370756
-0.0312405
-0.0533108
-0.0433071
-0.0411892
-0.0385533
-0.0351312
-0.0334687
-0.0344127
-0.0353414
-0.0354723
-0.0303056
-0.0498464
-0.0397345
-0.0383973
-0.0352712
-0.0316956
-0.0310589
-0.0320386
-0.0336929
-0.0342414
-0.0291783
-0.048069
-0.0385906
-0.0368813
-0.0344948
-0.0320217
-0.0303369
-0.0316411
-0.0329566
-0.0331849
-0.0282523
-0.0473547
-0.0373263
-0.036487
-0.0353569
-0.0322366
-0.0315433
-0.0319496
-0.0324912
-0.0326507
-0.0275868
-0.0452899
-0.0374152
-0.0364338
-0.0347621
-0.0331311
-0.0324161
-0.0319115
-0.0327207
-0.0329085
-0.0267294
-0.0444226
-0.0354725
-0.0354864
-0.0342135
-0.0332189
-0.031796
-0.0322804
-0.0325841
-0.0315585
-0.0251735
-0.0357272
-0.0292994
-0.0295486
-0.029284
-0.0282709
-0.0280855
-0.0278012
-0.0273318
-0.0260034
-0.0197584
-0.0857994
-0.0816018
-0.0824672
-0.0756018
-0.0695119
-0.0646632
-0.0602489
-0.0548583
-0.0541917
-0.0420657
-0.071867
-0.0642139
-0.0585232
-0.0542491
-0.0502927
-0.0441863
-0.0434981
-0.0426649
-0.0378911
-0.0314179
-0.05923
-0.0523923
-0.0522148
-0.046907
-0.0414496
-0.0393836
-0.0372602
-0.0360529
-0.0367191
-0.0288511
-0.0542654
-0.0481609
-0.0435348
-0.0411183
-0.0367234
-0.0324919
-0.0334435
-0.0344837
-0.0327347
-0.0276021
-0.0476911
-0.04141
-0.0417178
-0.0380784
-0.0333608
-0.0315297
-0.0315611
-0.0320444
-0.0322283
-0.0267718
-0.0455286
-0.0408663
-0.0389895
-0.0375425
-0.0346031
-0.0318702
-0.0319525
-0.0324581
-0.0323101
-0.0262459
-0.0434845
-0.0383286
-0.039433
-0.0380343
-0.0352076
-0.0334224
-0.0336215
-0.0336559
-0.0321924
-0.0274823
-0.0418337
-0.038484
-0.0389875
-0.0377786
-0.0356235
-0.0351836
-0.034189
-0.0340344
-0.0351438
-0.0270863
-0.0408474
-0.0372074
-0.0378553
-0.0371014
-0.0359343
-0.0343111
-0.034859
-0.0357929
-0.0337584
-0.0276176
-0.0331841
-0.0295384