/*--------------------------------*- C++ -*----------------------------------*\
| =========                 |                                                 |
| \\      /  F ield         | OpenFOAM: The Open Source CFD Toolbox           |
|  \\    /   O peration     | Version:  2406                                  |
|   \\  /    A nd           | Website:  www.openfoam.com                      |
|    \\/     M anipulation  |                                                 |
\*---------------------------------------------------------------------------*/
FoamFile
{
    version     2.0;
    format      ascii;
    arch        "LSB;label=32;scalar=64";
    class       volScalarField;
    location    "0.5";
    object      magR;
}
// * * * * * * * * * * * * * * * * * * * * * * * * * * * * * * * * * * * * * //

dimensions      [0 2 -2 0 0 0 0];

internalField   uniform 0;

boundaryField
{
    walls
    {
        type            calculated;
        value           nonuniform List<scalar> 
2000
(
5.83179e-07
8.27567e-07
1.0943e-06
1.31526e-06
1.4405e-06
1.4408e-06
1.31606e-06
1.09539e-06
8.28736e-07
5.84116e-07
2.42257e-07
3.32095e-07
4.36881e-07
5.27295e-07
5.79618e-07
5.79473e-07
5.26839e-07
4.36122e-07
3.31054e-07
2.4111e-07
9.86775e-08
1.29714e-07
1.65628e-07
1.96905e-07
2.14626e-07
2.13572e-07
1.93947e-07
1.61323e-07
1.24912e-07
9.42508e-08
1.47347e-07
1.92411e-07
2.41474e-07
2.81984e-07
3.03664e-07
3.00706e-07
2.73885e-07
2.30052e-07
1.80395e-07
1.36825e-07
1.45515e-07
1.84299e-07
2.24719e-07
2.56562e-07
2.7243e-07
2.68177e-07
2.44848e-07
2.07717e-07
1.65509e-07
1.27023e-07
1.93247e-07
2.40643e-07
2.88975e-07
3.25842e-07
3.43035e-07
3.35787e-07
3.05168e-07
2.56981e-07
2.01478e-07
1.49454e-07
2.25906e-07
2.75626e-07
3.2532e-07
3.61679e-07
3.75734e-07
3.62837e-07
3.24464e-07
2.67627e-07
2.03827e-07
1.45502e-07
2.52968e-07
3.10047e-07
3.66651e-07
4.07052e-07
4.20209e-07
4.01935e-07
3.5516e-07
2.89747e-07
2.18615e-07
1.5631e-07
2.40757e-07
3.03837e-07
3.66937e-07
4.11906e-07
4.2554e-07
4.03907e-07
3.51725e-07
2.81796e-07
2.09063e-07
1.49874e-07
2.20783e-07
2.88253e-07
3.55374e-07
4.01246e-07
4.1068e-07
3.80019e-07
3.17114e-07
2.38909e-07
1.64508e-07
1.10286e-07
2.08336e-07
2.7232e-07
3.32449e-07
3.68315e-07
3.66307e-07
3.25542e-07
2.57499e-07
1.81051e-07
1.1503e-07
7.10151e-08
2.05463e-07
2.60685e-07
3.07815e-07
3.30278e-07
3.18712e-07
2.75359e-07
2.12288e-07
1.45918e-07
9.09043e-08
5.47682e-08
2.10749e-07
2.60465e-07
2.9901e-07
3.13816e-07
2.98925e-07
2.57786e-07
2.00873e-07
1.41478e-07
9.11906e-08
5.65307e-08
2.2004e-07
2.76516e-07
3.2051e-07
3.39548e-07
3.28204e-07
2.89674e-07
2.33337e-07
1.71798e-07
1.1616e-07
7.49697e-08
2.04785e-07
2.78192e-07
3.46899e-07
3.90876e-07
3.98506e-07
3.69298e-07
3.12126e-07
2.421e-07
1.73036e-07
1.18569e-07
1.34962e-07
2.08127e-07
2.96805e-07
3.75773e-07
4.22805e-07
4.26265e-07
3.89181e-07
3.2591e-07
2.54123e-07
1.91499e-07
7.56547e-08
1.28581e-07
2.06436e-07
2.93072e-07
3.65878e-07
4.04235e-07
3.99313e-07
3.56336e-07
2.92279e-07
2.27907e-07
5.92177e-08
9.78876e-08
1.56088e-07
2.25897e-07
2.89555e-07
3.27235e-07
3.25135e-07
2.8385e-07
2.20055e-07
1.59026e-07
5.79804e-08
9.41426e-08
1.44963e-07
2.03031e-07
2.51187e-07
2.73231e-07
2.59103e-07
2.12934e-07
1.52186e-07
1.00422e-07
5.65763e-08
9.46522e-08
1.47038e-07
2.04842e-07
2.49605e-07
2.6649e-07
2.48523e-07
2.02007e-07
1.44173e-07
9.52651e-08
5.58299e-08
9.45491e-08
1.49623e-07
2.09084e-07
2.55402e-07
2.73334e-07
2.56916e-07
2.12417e-07
1.56589e-07
1.08178e-07
5.43983e-08
9.05175e-08
1.42379e-07
1.978e-07
2.41966e-07
2.60754e-07
2.48627e-07
2.10599e-07
1.61383e-07
1.17545e-07
5.26488e-08
8.27402e-08
1.236e-07
1.67155e-07
2.02992e-07
2.20973e-07
2.16342e-07
1.91689e-07
1.56686e-07
1.23297e-07
6.48073e-08
9.22306e-08
1.24456e-07
1.57147e-07
1.83157e-07
1.96773e-07
1.94912e-07
1.78573e-07
1.54122e-07
1.28953e-07
8.83343e-08
1.15158e-07
1.38859e-07
1.58549e-07
1.70774e-07
1.73759e-07
1.66985e-07
1.51095e-07
1.31056e-07
1.08888e-07
1.58279e-07
1.85289e-07
2.09055e-07
2.28045e-07
2.4178e-07
2.47302e-07
2.432e-07
2.2605e-07
2.00037e-07
1.6107e-07
3.66318e-07
4.15814e-07
4.74062e-07
5.22917e-07
5.5514e-07
5.56543e-07
5.20769e-07
4.44612e-07
3.46298e-07
2.36435e-07
6.97911e-07
8.03257e-07
9.14671e-07
9.85959e-07
9.86244e-07
8.97967e-07
7.33636e-07
5.29488e-07
3.38459e-07
1.93653e-07
8.85748e-07
1.03226e-06
1.13248e-06
1.13944e-06
1.03017e-06
8.26762e-07
5.84851e-07
3.65691e-07
2.08346e-07
1.14694e-07
6.82506e-07
8.7368e-07
9.97697e-07
1.00086e-06
8.76557e-07
6.73255e-07
4.53809e-07
2.69906e-07
1.40879e-07
6.76238e-08
2.78245e-07
4.15514e-07
5.47461e-07
6.21231e-07
5.99018e-07
4.98974e-07
3.62364e-07
2.34333e-07
1.34933e-07
7.57479e-08
1.01761e-07
1.72396e-07
2.52428e-07
3.28692e-07
3.61863e-07
3.42861e-07
2.81464e-07
2.009e-07
1.30511e-07
7.8893e-08
7.32063e-08
1.34096e-07
1.94318e-07
2.57345e-07
2.90627e-07
2.87088e-07
2.49164e-07
1.87218e-07
1.31916e-07
8.35428e-08
4.4603e-08
7.92969e-08
1.2798e-07
1.72546e-07
2.03866e-07
2.12384e-07
2.00029e-07
1.71851e-07
1.42132e-07
1.12084e-07
9.46168e-08
1.47483e-07
2.04015e-07
2.40961e-07
2.49078e-07
2.25763e-07
1.79753e-07
1.23989e-07
7.69755e-08
4.34066e-08
1.6959e-07
2.49253e-07
3.16837e-07
3.73738e-07
3.91197e-07
3.6808e-07
3.07695e-07
2.22764e-07
1.45375e-07
7.83857e-08
4.95274e-07
6.80414e-07
8.39366e-07
9.48115e-07
9.51233e-07
8.51946e-07
6.73546e-07
4.61506e-07
2.79407e-07
1.51163e-07
2.4706e-06
3.83936e-06
5.40493e-06
6.81767e-06
7.69416e-06
7.79765e-06
7.04971e-06
5.62725e-06
3.90417e-06
2.43561e-06
1.82557e-05
3.19481e-05
4.83602e-05
6.30774e-05
7.25044e-05
7.41715e-05
6.75532e-05
5.43752e-05
3.82114e-05
2.38279e-05
5.54328e-05
8.85778e-05
0.000124916
0.000154037
0.000168435
0.000164489
0.000143432
0.000111554
7.83853e-05
5.25843e-05
5.94703e-05
9.11488e-05
0.000124166
0.000148264
0.000155921
0.000145646
0.000121591
9.18394e-05
6.51899e-05
4.67655e-05
4.96645e-05
7.76997e-05
0.000105264
0.000121694
0.000119737
0.00010131
7.46459e-05
4.89908e-05
2.98937e-05
1.87247e-05
4.41139e-05
6.93443e-05
9.22033e-05
9.99351e-05
8.74428e-05
6.26643e-05
3.75534e-05
1.94623e-05
8.97606e-06
3.69323e-06
4.61212e-05
7.20683e-05
9.92749e-05
0.000114112
0.00010984
9.14541e-05
6.72225e-05
4.40314e-05
2.62665e-05
1.49673e-05
7.10761e-05
0.0001148
0.000170493
0.000218011
0.000239917
0.000231105
0.000197526
0.000149793
9.75898e-05
5.47303e-05
9.25306e-05
0.000152422
0.000230547
0.000298189
0.00032907
0.000308083
0.000241368
0.000153799
7.42381e-05
2.4717e-05
0.000119905
0.000183769
0.00025511
0.000298228
0.000290452
0.000230235
0.000142683
6.4432e-05
1.85503e-05
2.56111e-06
0.000172631
0.000238351
0.000291537
0.000297906
0.000249659
0.000168408
9.2033e-05
4.30911e-05
1.61867e-05
6.32909e-06
0.000333437
0.000442853
0.000516495
0.000511613
0.000429854
0.000308991
0.000198438
0.000127823
9.81134e-05
8.92401e-05
0.000502862
0.000607598
0.00070825
0.000763863
0.00078111
0.0007745
0.000758541
0.000727165
0.000665703
0.000553815
5.82442e-07
8.26136e-07
1.09219e-06
1.31269e-06
1.43783e-06
1.43837e-06
1.31408e-06
1.09394e-06
8.27675e-07
5.83449e-07
2.35349e-07
3.24405e-07
4.29615e-07
5.21526e-07
5.75937e-07
5.77953e-07
5.27058e-07
4.37439e-07
3.32593e-07
2.42554e-07
8.45233e-08
1.13415e-07
1.49004e-07
1.82255e-07
2.03694e-07
2.0725e-07
1.92018e-07
1.62769e-07
1.28191e-07
9.81887e-08
1.18001e-07
1.5814e-07
2.05587e-07
2.49402e-07
2.78459e-07
2.85348e-07
2.68379e-07
2.32396e-07
1.8732e-07
1.4548e-07
1.09593e-07
1.43638e-07
1.82715e-07
2.18758e-07
2.4369e-07
2.51655e-07
2.40886e-07
2.14201e-07
1.78726e-07
1.43364e-07
1.35699e-07
1.82437e-07
2.35589e-07
2.83659e-07
3.17226e-07
3.2929e-07
3.17874e-07
2.85834e-07
2.411e-07
1.93453e-07
1.17761e-07
1.74852e-07
2.45161e-07
3.12292e-07
3.62729e-07
3.8614e-07
3.79222e-07
3.44726e-07
2.91729e-07
2.3232e-07
9.29251e-08
1.57332e-07
2.46478e-07
3.40644e-07
4.17663e-07
4.58929e-07
4.56295e-07
4.12999e-07
3.42555e-07
2.65505e-07
6.93e-08
1.26025e-07
2.12426e-07
3.13543e-07
4.03335e-07
4.56217e-07
4.5763e-07
4.10396e-07
3.3229e-07
2.51399e-07
6.12763e-08
1.0719e-07
1.79214e-07
2.68091e-07
3.5148e-07
4.04217e-07
4.09284e-07
3.67626e-07
2.96566e-07
2.24297e-07
6.3763e-08
1.03122e-07
1.6316e-07
2.36748e-07
3.06794e-07
3.5322e-07
3.61043e-07
3.29199e-07
2.70572e-07
2.08398e-07
6.87615e-08
1.07082e-07
1.6327e-07
2.29688e-07
2.91932e-07
3.3375e-07
3.42815e-07
3.17125e-07
2.65756e-07
2.07584e-07
7.17919e-08
1.11094e-07
1.67216e-07
2.31309e-07
2.90325e-07
3.29817e-07
3.39288e-07
3.16677e-07
2.69286e-07
2.13356e-07
7.27996e-08
1.10768e-07
1.64204e-07
2.23601e-07
2.77548e-07
3.13303e-07
3.22239e-07
3.0292e-07
2.62108e-07
2.13888e-07
7.32793e-08
1.08834e-07
1.57755e-07
2.10483e-07
2.56149e-07
2.83736e-07
2.86602e-07
2.65111e-07
2.27193e-07
1.86974e-07
7.99572e-08
1.14934e-07
1.59779e-07
2.04419e-07
2.37179e-07
2.48792e-07
2.35483e-07
2.01345e-07
1.57803e-07
1.19727e-07
1.01976e-07
1.39192e-07
1.81188e-07
2.16636e-07
2.33731e-07
2.26428e-07
1.95808e-07
1.50707e-07
1.04445e-07
6.96683e-08
1.46829e-07
1.89441e-07
2.299e-07
2.56451e-07
2.59104e-07
2.36108e-07
1.92953e-07
1.4131e-07
9.31489e-08
5.92544e-08
2.0689e-07
2.5842e-07
3.02461e-07
3.24294e-07
3.14967e-07
2.75887e-07
2.16857e-07
1.52738e-07
9.69104e-08
5.97092e-08
1.84754e-07
2.37845e-07
2.91315e-07
3.22436e-07
3.18814e-07
2.80118e-07
2.18415e-07
1.50609e-07
9.3873e-08
5.60235e-08
1.08462e-07
1.51392e-07
2.04085e-07
2.43974e-07
2.55834e-07
2.34577e-07
1.88822e-07
1.33359e-07
8.52547e-08
5.20714e-08
6.24144e-08
9.0021e-08
1.26921e-07
1.59905e-07
1.77206e-07
1.72285e-07
1.47436e-07
1.11353e-07
7.61462e-08
4.97281e-08
4.57287e-08
6.18639e-08
8.39781e-08
1.06613e-07
1.2222e-07
1.25784e-07
1.15676e-07
9.51742e-08
7.07749e-08
4.97608e-08
3.03117e-08
4.09506e-08
5.74627e-08
7.87243e-08
9.79143e-08
1.10186e-07
1.11321e-07
1.01385e-07
8.3233e-08
6.3778e-08
3.73809e-08
5.19428e-08
6.64208e-08
8.69795e-08
1.04257e-07
1.16904e-07
1.21361e-07
1.16415e-07
1.03433e-07
8.51248e-08
7.82405e-08
1.21668e-07
1.62542e-07
2.02397e-07
2.26504e-07
2.34481e-07
2.28069e-07
2.10452e-07
1.87245e-07
1.56051e-07
1.40945e-07
2.25938e-07
3.39644e-07
4.42669e-07
5.18656e-07
5.53132e-07
5.5022e-07
5.16084e-07
4.61935e-07
3.81404e-07
1.20206e-07
2.32354e-07
4.10195e-07
6.24216e-07
8.28555e-07
9.76866e-07
1.04337e-06
1.0194e-06
9.21248e-07
7.52738e-07
6.02307e-08
1.37314e-07
2.77967e-07
4.958e-07
7.55539e-07
9.98574e-07
1.15853e-06
1.19436e-06
1.1102e-06
9.34931e-07
3.02004e-08
8.55187e-08
1.82481e-07
3.33768e-07
5.17845e-07
6.97543e-07
8.18788e-07
8.45645e-07
7.78467e-07
6.65264e-07
1.16879e-08
3.95527e-08
1.03043e-07
2.07686e-07
3.27552e-07
4.27039e-07
4.69067e-07
4.4204e-07
3.58227e-07
2.72328e-07
6.47748e-08
1.02675e-07
1.43754e-07
2.02051e-07
2.54613e-07
2.86203e-07
2.78786e-07
2.32058e-07
1.64174e-07
1.04907e-07
8.06802e-08
1.31451e-07
1.76908e-07
2.2588e-07
2.51277e-07
2.4864e-07
2.19144e-07
1.65476e-07
1.16209e-07
6.67237e-08
8.33001e-08
1.01897e-07
1.24751e-07
1.44459e-07
1.52459e-07
1.43359e-07
1.1939e-07
8.48537e-08
5.67393e-08
3.28373e-08
7.52041e-08
1.01313e-07
1.61574e-07
2.28013e-07
2.74232e-07
2.793e-07
2.48666e-07
1.93271e-07
1.43083e-07
8.91652e-08
1.16418e-07
2.16558e-07
3.67934e-07
5.43563e-07
6.65656e-07
7.00866e-07
6.46052e-07
5.10832e-07
3.74681e-07
2.08776e-07
3.18553e-07
5.56891e-07
8.84297e-07
1.28594e-06
1.58454e-06
1.70725e-06
1.61515e-06
1.32734e-06
9.90823e-07
6.07618e-07
2.15334e-06
3.23165e-06
4.68203e-06
6.31388e-06
7.5169e-06
7.8998e-06
7.31344e-06
5.92481e-06
4.24857e-06
2.67041e-06
2.17437e-05
3.32638e-05
4.5816e-05
5.65364e-05
6.22075e-05
6.10422e-05
5.31941e-05
4.0824e-05
2.77194e-05
1.72153e-05
5.4331e-05
8.50691e-05
0.000120912
0.000152214
0.000171004
0.000171487
0.000152813
0.000120041
8.36785e-05
5.41097e-05
4.2333e-05
6.484e-05
9.41451e-05
0.000122857
0.000144291
0.000151446
0.00014048
0.000114367
8.3947e-05
5.92454e-05
4.67421e-05
6.69973e-05
9.03957e-05
0.000111089
0.000123643
0.000124121
0.000111203
8.90355e-05
6.65557e-05
4.96773e-05
6.43977e-05
9.69414e-05
0.000127811
0.000151161
0.000159001
0.000148157
0.000122322
9.08403e-05
6.35032e-05
4.50994e-05
3.72182e-05
7.8323e-05
0.000126181
0.000164044
0.000177851
0.000165539
0.000134783
9.8936e-05
6.86048e-05
4.75683e-05
2.01243e-05
4.41657e-05
9.14682e-05
0.000152373
0.000190635
0.000190656
0.000164239
0.000128444
9.4995e-05
6.94513e-05
2.93741e-05
3.05469e-05
4.73372e-05
9.24194e-05
0.000147225
0.00016972
0.000157517
0.000130481
0.000103291
8.36064e-05
0.000136831
0.000112606
7.73148e-05
8.21963e-05
0.000123142
0.000161852
0.000161542
0.000141762
0.000124567
0.000111738
0.000364437
0.000315455
0.000213402
0.000162946
0.000176155
0.000221634
0.00023588
0.000229068
0.000213561
0.00018386
0.000311222
0.000290464
0.000311653
0.000376834
0.000508184
0.000652123
0.000704093
0.000664196
0.00054651
0.000395112
0.000573525
0.00100412
0.00148052
0.0019365
0.00226377
0.0023636
0.00215363
0.00169904
0.00114857
0.000664092
5.8316e-07
8.27063e-07
1.09314e-06
1.31322e-06
1.4377e-06
1.43755e-06
1.31278e-06
1.0925e-06
8.2639e-07
5.82564e-07
2.3898e-07
3.28591e-07
4.33692e-07
5.24514e-07
5.77231e-07
5.77127e-07
5.24007e-07
4.32462e-07
3.26411e-07
2.36208e-07
8.68099e-08
1.16438e-07
1.52498e-07
1.85137e-07
2.04687e-07
2.05102e-07
1.86043e-07
1.53273e-07
1.16297e-07
8.5672e-08
1.10675e-07
1.50452e-07
1.98393e-07
2.42145e-07
2.69464e-07
2.72475e-07
2.50166e-07
2.0916e-07
1.60889e-07
1.1909e-07
7.86011e-08
1.09545e-07
1.48193e-07
1.85187e-07
2.10839e-07
2.18207e-07
2.05599e-07
1.77208e-07
1.41509e-07
1.08831e-07
7.93325e-08
1.15755e-07
1.61931e-07
2.06508e-07
2.38802e-07
2.50229e-07
2.3851e-07
2.0781e-07
1.67976e-07
1.30529e-07
8.05716e-08
1.14666e-07
1.56181e-07
1.94176e-07
2.19003e-07
2.23496e-07
2.06926e-07
1.74658e-07
1.37344e-07
1.05674e-07
9.15255e-08
1.23291e-07
1.58768e-07
1.8824e-07
2.02716e-07
1.97664e-07
1.74489e-07
1.39993e-07
1.04782e-07
7.80428e-08
1.01127e-07
1.30472e-07
1.60919e-07
1.83837e-07
1.91105e-07
1.79988e-07
1.53052e-07
1.17677e-07
8.35781e-08
5.88852e-08
1.29593e-07
1.63581e-07
1.97007e-07
2.19973e-07
2.24001e-07
2.06743e-07
1.718e-07
1.28357e-07
8.70204e-08
5.74557e-08
1.69616e-07
2.13701e-07
2.55913e-07
2.82782e-07
2.84599e-07
2.58936e-07
2.11481e-07
1.54723e-07
1.01909e-07
6.47012e-08
1.99155e-07
2.54101e-07
3.06047e-07
3.37281e-07
3.36919e-07
3.02862e-07
2.43679e-07
1.75201e-07
1.13582e-07
7.09058e-08
2.00728e-07
2.59135e-07
3.14521e-07
3.47081e-07
3.45516e-07
3.08508e-07
2.46503e-07
1.76355e-07
1.14821e-07
7.23122e-08
1.75592e-07
2.27692e-07
2.78784e-07
3.10491e-07
3.12023e-07
2.81856e-07
2.28956e-07
1.6757e-07
1.12461e-07
7.25563e-08
1.46174e-07
1.90495e-07
2.36866e-07
2.70008e-07
2.78961e-07
2.60261e-07
2.1903e-07
1.66058e-07
1.14714e-07
7.4778e-08
1.29031e-07
1.69717e-07
2.14949e-07
2.51821e-07
2.68594e-07
2.59537e-07
2.26269e-07
1.77466e-07
1.25933e-07
8.37318e-08
1.26506e-07
1.68683e-07
2.17995e-07
2.61967e-07
2.8729e-07
2.85977e-07
2.57259e-07
2.09156e-07
1.54263e-07
1.07483e-07
1.3488e-07
1.82583e-07
2.40155e-07
2.93828e-07
3.28855e-07
3.35205e-07
3.10636e-07
2.6271e-07
2.04049e-07
1.5151e-07
1.36979e-07
1.96559e-07
2.72102e-07
3.44897e-07
3.97047e-07
4.14595e-07
3.93742e-07
3.41946e-07
2.74309e-07
2.10189e-07
1.41035e-07
2.11698e-07
3.0425e-07
3.9471e-07
4.59071e-07
4.774e-07
4.43921e-07
3.69093e-07
2.76784e-07
1.94505e-07
1.49943e-07
2.2417e-07
3.20159e-07
4.11473e-07
4.67465e-07
4.65972e-07
4.0479e-07
3.04247e-07
1.99416e-07
1.20105e-07
1.71395e-07
2.39217e-07
3.19398e-07
3.88059e-07
4.17397e-07
3.92466e-07
3.18913e-07
2.21902e-07
1.3323e-07
7.2842e-08
2.21458e-07
2.82209e-07
3.41421e-07
3.83658e-07
3.89205e-07
3.51032e-07
2.77011e-07
1.89469e-07
1.11713e-07
5.94476e-08
2.99167e-07
3.74833e-07
4.29342e-07
4.54721e-07
4.38516e-07
3.80248e-07
2.89473e-07
1.89399e-07
1.02154e-07
4.78689e-08
3.6562e-07
4.67565e-07
5.43835e-07
5.74496e-07
5.47387e-07
4.66502e-07
3.50464e-07
2.25329e-07
1.22514e-07
5.53735e-08
1.35824e-07
2.16531e-07
3.15236e-07
3.88481e-07
4.10001e-07
3.71336e-07
2.9316e-07
1.99909e-07
1.27802e-07
7.36839e-08
2.10526e-08
5.23584e-08
1.07605e-07
1.695e-07
2.16229e-07
2.30586e-07
2.13484e-07
1.75478e-07
1.37852e-07
1.05838e-07
7.86274e-09
2.21738e-08
4.48692e-08
8.1163e-08
1.18198e-07
1.45808e-07
1.54156e-07
1.40076e-07
1.16888e-07
8.9182e-08
1.59889e-09
5.89638e-09
1.33721e-08
2.8168e-08
4.59789e-08
6.28903e-08
7.24916e-08
6.97146e-08
6.00087e-08
4.46013e-08
1.87151e-08
2.21251e-08
2.40469e-08
2.46407e-08
2.38047e-08
2.30641e-08
2.27968e-08
2.20157e-08
2.00262e-08
1.71222e-08
7.59992e-08
1.11255e-07
1.41262e-07
1.64131e-07
1.66331e-07
1.47484e-07
1.10589e-07
6.83496e-08
3.17635e-08
1.31127e-08
1.89683e-07
2.72707e-07
3.45924e-07
4.01259e-07
4.17686e-07
3.90807e-07
3.24893e-07
2.33193e-07
1.45352e-07
7.56742e-08
3.28889e-07
4.76321e-07
6.10992e-07
6.95307e-07
6.95381e-07
6.07169e-07
4.6038e-07
2.96657e-07
1.71765e-07
8.44515e-08
3.86647e-07
5.88758e-07
7.75741e-07
8.79421e-07
8.58196e-07
7.21383e-07
5.26874e-07
3.35247e-07
1.95484e-07
1.00457e-07
4.18423e-07
6.3836e-07
8.50351e-07
9.72948e-07
9.6562e-07
8.40428e-07
6.48687e-07
4.33371e-07
2.46079e-07
1.07499e-07
4.28319e-07
7.12874e-07
1.03536e-06
1.2797e-06
1.36283e-06
1.24991e-06
9.777e-07
6.24758e-07
3.3e-07
1.38179e-07
4.43281e-07
9.64217e-07
1.69799e-06
2.40569e-06
2.82195e-06
2.77287e-06
2.27494e-06
1.53522e-06
8.59901e-07
4.06753e-07
2.86587e-06
5.53758e-06
9.20004e-06
1.28744e-05
1.51353e-05
1.51287e-05
1.28736e-05
9.29752e-06
5.56082e-06
2.86231e-06
2.6333e-05
4.34271e-05
6.42019e-05
8.29376e-05
9.367e-05
9.25751e-05
7.99394e-05
6.0531e-05
3.99281e-05
2.34995e-05
2.40269e-05
4.25109e-05
6.69975e-05
9.05078e-05
0.000108381
0.000117803
0.000115773
0.000100727
7.65809e-05
5.21897e-05
3.43523e-08
1.49489e-06
6.05406e-06
1.3651e-05
2.52379e-05
3.89647e-05
4.87783e-05
5.1275e-05
4.642e-05
3.75905e-05
3.29082e-06
9.619e-07
1.64789e-06
1.13911e-06
2.31031e-09
3.75453e-06
2.26394e-05
4.2692e-05
4.76952e-05
4.06399e-05
6.74601e-07
7.52443e-09
3.97203e-06
1.66585e-05
1.12461e-05
3.91667e-06
6.24134e-06
2.0642e-05
4.11482e-05
4.68451e-05
3.59738e-07
4.19021e-06
4.16265e-05
8.10791e-05
4.25839e-05
4.16467e-05
5.8556e-05
3.36573e-05
1.86902e-05
1.95651e-05
1.95566e-06
2.90937e-05
0.0001224
0.000126609
6.63951e-05
5.64049e-05
9.17243e-05
0.000104767
5.29643e-05
1.85385e-05
8.33616e-06
8.67668e-05
0.000189415
0.000133599
8.72002e-05
0.000100235
0.000126719
0.000152092
0.000124086
5.14318e-05
5.18579e-05
0.000210061
0.000265197
0.000106193
1.04892e-05
2.44489e-06
3.31541e-05
0.00011538
0.000189556
0.000150713
0.0001494
0.000439874
0.000724102
0.000660172
0.000413473
0.000213662
0.000147065
0.000249525
0.000391392
0.000348577
0.000164666
0.000421822
0.000796785
0.00105727
0.00108223
0.000963857
0.000850128
0.000817361
0.000653453
0.000418636
9.10516e-05
0.000370736
0.000820307
0.00136786
0.00185507
0.00204758
0.00177634
0.00122687
0.000804741
0.000597432
5.84154e-07
8.28717e-07
1.09554e-06
1.31627e-06
1.44107e-06
1.44076e-06
1.31544e-06
1.09438e-06
8.27628e-07
5.83168e-07
2.41177e-07
3.30936e-07
4.35764e-07
5.25866e-07
5.77705e-07
5.76968e-07
5.23892e-07
4.3305e-07
3.28228e-07
2.38813e-07
9.45041e-08
1.25313e-07
1.61573e-07
1.93136e-07
2.10831e-07
2.0924e-07
1.88691e-07
1.5514e-07
1.18081e-07
8.74569e-08
1.37499e-07
1.81581e-07
2.30764e-07
2.71247e-07
2.91896e-07
2.86417e-07
2.55835e-07
2.08286e-07
1.56007e-07
1.12641e-07
1.25551e-07
1.60166e-07
1.96929e-07
2.24479e-07
2.34677e-07
2.23709e-07
1.93981e-07
1.53166e-07
1.11528e-07
7.89541e-08
1.41094e-07
1.75342e-07
2.10394e-07
2.34333e-07
2.39634e-07
2.23787e-07
1.90668e-07
1.48445e-07
1.07517e-07
7.60263e-08
1.31003e-07
1.59357e-07
1.88531e-07
2.09016e-07
2.14392e-07
2.02663e-07
1.76545e-07
1.41891e-07
1.06906e-07
7.77204e-08
1.41734e-07
1.74208e-07
2.07247e-07
2.32458e-07
2.42786e-07
2.35286e-07
2.10736e-07
1.73818e-07
1.32476e-07
9.50015e-08
1.43766e-07
1.88709e-07
2.35681e-07
2.72817e-07
2.9023e-07
2.83827e-07
2.54524e-07
2.09022e-07
1.56871e-07
1.10475e-07
1.11344e-07
1.65934e-07
2.33668e-07
2.96075e-07
3.35267e-07
3.40914e-07
3.12694e-07
2.60119e-07
1.97125e-07
1.40646e-07
7.32726e-08
1.21652e-07
1.92071e-07
2.68503e-07
3.2999e-07
3.58412e-07
3.46892e-07
3.0177e-07
2.38682e-07
1.77147e-07
5.5894e-08
9.45447e-08
1.54466e-07
2.25962e-07
2.92428e-07
3.34974e-07
3.41543e-07
3.12014e-07
2.58623e-07
1.99992e-07
5.56308e-08
8.85935e-08
1.38826e-07
2.00144e-07
2.60341e-07
3.03669e-07
3.17404e-07
2.97648e-07
2.52719e-07
1.98803e-07
6.9557e-08
1.00484e-07
1.4554e-07
1.99871e-07
2.52688e-07
2.9011e-07
2.99989e-07
2.78084e-07
2.32106e-07
1.78004e-07
1.07592e-07
1.40014e-07
1.81617e-07
2.28486e-07
2.70588e-07
2.95838e-07
2.93654e-07
2.61796e-07
2.09447e-07
1.5368e-07
1.86343e-07
2.31675e-07
2.74554e-07
3.10717e-07
3.32833e-07
3.3379e-07
3.08405e-07
2.59162e-07
1.96919e-07
1.39073e-07
2.33979e-07
3.01024e-07
3.62786e-07
4.03637e-07
4.14827e-07
3.93656e-07
3.43245e-07
2.73651e-07
1.98958e-07
1.36961e-07
1.64302e-07
2.36348e-07
3.20521e-07
3.9019e-07
4.24732e-07
4.14639e-07
3.64142e-07
2.8861e-07
2.0806e-07
1.4272e-07
9.97998e-08
1.53885e-07
2.27501e-07
3.01643e-07
3.52414e-07
3.62691e-07
3.29847e-07
2.66445e-07
1.94672e-07
1.35513e-07
9.21141e-08
1.35977e-07
1.95171e-07
2.57418e-07
3.03953e-07
3.18828e-07
2.96546e-07
2.45299e-07
1.84406e-07
1.32701e-07
1.07697e-07
1.54865e-07
2.15037e-07
2.76282e-07
3.21529e-07
3.3618e-07
3.14308e-07
2.62807e-07
1.99392e-07
1.44268e-07
1.23517e-07
1.79451e-07
2.47947e-07
3.15627e-07
3.64992e-07
3.81766e-07
3.59693e-07
3.05651e-07
2.35853e-07
1.73175e-07
1.36467e-07
1.98052e-07
2.70602e-07
3.41428e-07
3.94443e-07
4.16767e-07
4.02128e-07
3.55861e-07
2.8995e-07
2.26373e-07
1.50071e-07
2.16286e-07
2.90076e-07
3.57835e-07
4.06421e-07
4.26475e-07
4.1543e-07
3.79048e-07
3.28312e-07
2.8003e-07
1.29772e-07
1.88629e-07
2.60668e-07
3.29167e-07
3.84115e-07
4.14324e-07
4.16873e-07
3.94789e-07
3.58916e-07
3.20909e-07
1.69499e-07
2.25484e-07
2.89909e-07
3.4345e-07
3.70557e-07
3.59732e-07
3.12544e-07
2.41635e-07
1.70863e-07
1.17355e-07
1.97987e-07
2.37036e-07
2.71229e-07
2.87006e-07
2.68393e-07
2.17831e-07
1.50206e-07
8.48508e-08
4.0679e-08
1.68021e-08
1.47269e-07
1.82391e-07
2.12511e-07
2.24001e-07
2.03658e-07
1.57904e-07
1.02581e-07
5.29457e-08
2.39137e-08
7.81918e-09
9.81385e-08
1.42748e-07
1.87527e-07
2.15029e-07
2.0769e-07
1.67312e-07
1.08951e-07
5.39581e-08
1.86868e-08
3.55096e-09
4.79411e-08
7.27432e-08
1.09356e-07
1.50503e-07
1.75792e-07
1.74134e-07
1.44864e-07
1.01849e-07
5.80862e-08
2.91128e-08
5.5879e-08
7.20433e-08
9.03893e-08
1.13942e-07
1.35509e-07
1.49123e-07
1.46924e-07
1.28666e-07
9.94456e-08
7.30668e-08
7.87584e-08
1.28219e-07
1.74047e-07
2.18445e-07
2.43781e-07
2.50413e-07
2.39064e-07
2.14856e-07
1.85704e-07
1.59152e-07
1.03205e-07
1.8942e-07
2.91294e-07
3.94621e-07
4.61225e-07
4.77005e-07
4.45128e-07
3.84244e-07
3.2072e-07
2.70036e-07
1.47739e-07
2.39395e-07
3.55341e-07
4.65646e-07
5.41087e-07
5.57817e-07
5.16942e-07
4.39326e-07
3.60071e-07
3.01644e-07
5.27345e-08
1.05804e-07
1.97253e-07
3.04168e-07
3.99848e-07
4.5442e-07
4.59232e-07
4.22329e-07
3.70015e-07
3.22227e-07
7.33745e-08
1.24737e-07
2.03126e-07
2.94513e-07
3.72643e-07
4.15388e-07
4.16884e-07
3.8666e-07
3.46699e-07
3.12287e-07
1.71616e-07
3.7056e-07
6.4112e-07
8.82795e-07
9.83904e-07
9.29453e-07
7.65144e-07
5.68624e-07
4.03375e-07
3.05656e-07
2.69748e-06
5.10384e-06
8.36879e-06
1.15787e-05
1.36797e-05
1.3915e-05
1.2147e-05
9.05879e-06
5.64999e-06
3.03317e-06
2.48295e-05
4.13911e-05
6.20017e-05
7.9121e-05
8.625e-05
8.21421e-05
7.08763e-05
5.62605e-05
4.037e-05
2.5607e-05
5.61042e-05
8.28684e-05
0.000103974
0.000109964
0.000100438
7.7258e-05
5.01975e-05
3.08186e-05
2.23416e-05
1.83542e-05
4.52743e-05
5.69683e-05
5.52117e-05
3.67937e-05
1.40425e-05
4.60863e-06
6.29463e-06
9.0845e-06
5.79823e-06
1.06406e-06
1.41633e-05
1.19062e-05
4.85719e-06
6.11534e-07
1.95963e-06
7.89286e-06
1.43039e-05
1.69377e-05
1.43024e-05
9.16732e-06
2.22624e-06
2.08095e-06
1.45181e-06
1.97493e-06
4.6309e-06
1.11428e-05
2.11689e-05
2.62061e-05
1.81119e-05
4.26995e-06
1.46734e-05
2.74488e-05
4.83641e-05
7.68933e-05
0.000106803
0.000116491
8.9573e-05
4.26659e-05
9.45835e-06
6.50685e-07
3.95175e-05
4.7479e-05
5.92305e-05
6.7958e-05
5.20777e-05
1.98923e-05
3.1294e-06
2.82557e-07
1.52478e-07
2.39913e-07
4.66665e-06
3.23341e-06
5.65668e-06
2.85334e-06
2.27782e-08
1.00826e-06
1.00834e-06
2.04594e-06
6.69293e-07
7.81755e-08
1.63412e-07
6.45667e-06
9.41704e-06
1.78414e-06
1.06868e-06
3.79011e-07
1.04212e-05
1.87514e-05
7.46119e-07
5.96148e-06
9.25585e-06
4.07175e-05
6.90466e-05
6.29331e-05
3.95698e-05
2.4905e-06
2.81305e-05
4.3691e-05
2.50987e-07
4.29024e-05
0.000149058
0.000260441
0.0003159
0.000299333
0.000194364
1.8217e-05
4.57037e-05
0.00011291
9.70187e-06
2.2542e-05
0.000750743
0.00107158
0.00130903
0.00124938
0.000600999
3.56487e-05
3.48937e-05
0.000206036
6.64635e-05
3.65097e-06
)
;
    }
    inlet
    {
        type            calculated;
        value           uniform 0;
    }
    outlet
    {
        type            calculated;
        value           uniform 0;
    }
}


// ************************************************************************* //
