/*--------------------------------*- C++ -*----------------------------------*\
| =========                 |                                                 |
| \\      /  F ield         | OpenFOAM: The Open Source CFD Toolbox           |
|  \\    /   O peration     | Version:  2406                                  |
|   \\  /    A nd           | Website:  www.openfoam.com                      |
|    \\/     M anipulation  |                                                 |
\*---------------------------------------------------------------------------*/
FoamFile
{
    version     2.0;
    format      ascii;
    arch        "LSB;label=32;scalar=64";
    class       volVectorField;
    location    "0.5";
    object      momentError;
}
// * * * * * * * * * * * * * * * * * * * * * * * * * * * * * * * * * * * * * //

dimensions      [0 1 -2 0 0 0 0];

internalField   nonuniform List<vector> 
25000
(
(-0.56424 -0.61998 -0.82266)
(-0.471715 -0.598572 -0.922412)
(-0.353564 -0.596324 -0.956691)
(-0.231682 -0.595199 -0.957744)
(-0.110587 -0.595138 -0.950882)
(0.00970002 -0.602816 -0.954317)
(0.134946 -0.618542 -0.968536)
(0.2614 -0.634927 -0.973541)
(0.41428 -0.641226 -0.942283)
(0.623253 -0.67009 -0.861807)
(-0.543761 -0.527461 -0.932941)
(-0.487915 -0.563324 -1.04291)
(-0.385944 -0.573902 -1.06619)
(-0.264915 -0.575751 -1.05544)
(-0.136154 -0.576502 -1.041)
(-0.0054129 -0.583013 -1.04254)
(0.128918 -0.594797 -1.05997)
(0.257057 -0.60418 -1.07179)
(0.393836 -0.602741 -1.04486)
(0.554697 -0.595098 -0.943222)
(-0.562941 -0.415597 -0.970682)
(-0.501625 -0.473743 -1.07022)
(-0.403045 -0.497756 -1.08655)
(-0.282336 -0.504167 -1.07114)
(-0.149687 -0.505495 -1.05318)
(-0.0138536 -0.50966 -1.05375)
(0.12456 -0.516462 -1.07271)
(0.252463 -0.517792 -1.0874)
(0.378544 -0.504317 -1.06526)
(0.529393 -0.474851 -0.970492)
(-0.590124 -0.296881 -0.968598)
(-0.516523 -0.357436 -1.05728)
(-0.412619 -0.386157 -1.06974)
(-0.289104 -0.395175 -1.05201)
(-0.154521 -0.39607 -1.03207)
(-0.0167339 -0.397158 -1.03183)
(0.123102 -0.399055 -1.05112)
(0.250423 -0.395031 -1.06675)
(0.373217 -0.376439 -1.04739)
(0.521842 -0.341114 -0.961831)
(-0.618834 -0.180174 -0.954656)
(-0.532969 -0.234263 -1.03662)
(-0.420756 -0.261738 -1.04666)
(-0.292225 -0.270848 -1.02749)
(-0.154327 -0.270666 -1.00654)
(-0.0153521 -0.268257 -1.00591)
(0.124491 -0.265564 -1.02533)
(0.251123 -0.258748 -1.04159)
(0.371392 -0.241827 -1.02424)
(0.516828 -0.211962 -0.944796)
(-0.652275 -0.0711579 -0.948951)
(-0.554238 -0.117465 -1.02956)
(-0.431515 -0.141202 -1.03952)
(-0.295171 -0.148443 -1.02022)
(-0.152186 -0.145941 -0.999169)
(-0.0103169 -0.139522 -0.998609)
(0.13037 -0.132186 -1.01821)
(0.256352 -0.123344 -1.03458)
(0.374699 -0.110499 -1.01741)
(0.517622 -0.0888119 -0.939121)
(-0.68968 0.0373835 -0.952157)
(-0.576697 -0.00375819 -1.03654)
(-0.442031 -0.0221445 -1.04871)
(-0.296071 -0.0251404 -1.03036)
(-0.145994 -0.0182719 -1.00989)
(-0.000763908 -0.0067335 -1.00982)
(0.14085 0.00601254 -1.02953)
(0.266076 0.0169859 -1.04546)
(0.381932 0.0257479 -1.02688)
(0.52359 0.0395229 -0.944823)
(-0.719771 0.148532 -0.945048)
(-0.589368 0.105846 -1.0375)
(-0.440794 0.0920893 -1.05345)
(-0.285982 0.095891 -1.03663)
(-0.13159 0.108813 -1.01745)
(0.0146343 0.126488 -1.01795)
(0.154673 0.145262 -1.03733)
(0.276902 0.159922 -1.05286)
(0.39024 0.168601 -1.03203)
(0.529704 0.180209 -0.942451)
(-0.733597 0.274357 -0.903048)
(-0.580208 0.220363 -1.00186)
(-0.416645 0.210792 -1.02415)
(-0.257494 0.222518 -1.01094)
(-0.105219 0.242557 -0.99416)
(0.0356646 0.267116 -0.994923)
(0.169699 0.293944 -1.01285)
(0.288869 0.317997 -1.02595)
(0.403144 0.338992 -1.00028)
(0.53813 0.364316 -0.90505)
(-0.748709 0.402708 -0.82174)
(-0.542601 0.343849 -0.900552)
(-0.367408 0.351066 -0.93056)
(-0.212718 0.374546 -0.926873)
(-0.0709984 0.401212 -0.915833)
(0.0597055 0.432814 -0.91693)
(0.18714 0.470426 -0.929937)
(0.308932 0.509368 -0.934506)
(0.438607 0.550272 -0.902363)
(0.58881 0.614699 -0.831127)
(-0.590615 -0.843573 -2.98524)
(-0.508154 -0.818399 -3.36791)
(-0.392733 -0.821731 -3.62859)
(-0.25582 -0.817847 -3.73705)
(-0.107477 -0.808456 -3.77592)
(0.0456783 -0.796243 -3.77298)
(0.195877 -0.780361 -3.72903)
(0.335169 -0.756707 -3.60709)
(0.485406 -0.710512 -3.30926)
(0.713008 -0.702474 -2.85807)
(-0.55886 -0.660285 -3.3752)
(-0.536268 -0.735205 -3.9611)
(-0.455148 -0.777604 -4.28468)
(-0.321063 -0.783806 -4.38475)
(-0.161714 -0.778266 -4.40162)
(0.006467 -0.773635 -4.40393)
(0.175574 -0.76786 -4.3927)
(0.328855 -0.748315 -4.29331)
(0.466309 -0.692454 -3.94755)
(0.630249 -0.631915 -3.31517)
(-0.606735 -0.498588 -3.64082)
(-0.581997 -0.607284 -4.29421)
(-0.491963 -0.660574 -4.57794)
(-0.349171 -0.665737 -4.61435)
(-0.188025 -0.660173 -4.59597)
(-0.0182124 -0.658775 -4.60122)
(0.15821 -0.660655 -4.62918)
(0.32567 -0.651694 -4.59605)
(0.471211 -0.601258 -4.29824)
(0.623716 -0.518713 -3.61898)
(-0.667065 -0.335011 -3.75249)
(-0.620855 -0.436275 -4.40072)
(-0.507473 -0.487237 -4.62303)
(-0.356673 -0.498407 -4.6261)
(-0.196441 -0.498014 -4.59837)
(-0.0287804 -0.497107 -4.60453)
(0.14699 -0.496903 -4.64321)
(0.320154 -0.48919 -4.64357)
(0.478732 -0.449828 -4.4084)
(0.635241 -0.375836 -3.74673)
(-0.721538 -0.176065 -3.79176)
(-0.657143 -0.256725 -4.42035)
(-0.523666 -0.306712 -4.61046)
(-0.363289 -0.325808 -4.60521)
(-0.199248 -0.330052 -4.57607)
(-0.0301152 -0.328119 -4.58166)
(0.145718 -0.323037 -4.6207)
(0.320046 -0.311511 -4.62948)
(0.484662 -0.280546 -4.42764)
(0.642472 -0.228387 -3.79189)
(-0.767625 -0.0282094 -3.79243)
(-0.692692 -0.0889372 -4.42661)
(-0.545707 -0.136591 -4.62133)
(-0.372731 -0.159612 -4.61716)
(-0.199327 -0.164828 -4.587)
(-0.0246976 -0.160006 -4.5911)
(0.153539 -0.150057 -4.62849)
(0.328474 -0.1349 -4.63487)
(0.491221 -0.111349 -4.43001)
(0.643937 -0.0824562 -3.79292)
(-0.802437 0.109129 -3.75259)
(-0.720225 0.0679163 -4.41674)
(-0.56667 0.0297938 -4.6518)
(-0.379882 0.00901423 -4.65823)
(-0.19379 0.00661448 -4.62757)
(-0.0118693 0.0158932 -4.62919)
(0.169767 0.0311691 -4.66254)
(0.343285 0.0479417 -4.65585)
(0.495159 0.0592112 -4.41273)
(0.638349 0.0623659 -3.7488)
(-0.818221 0.238865 -3.63276)
(-0.720287 0.209301 -4.3125)
(-0.565834 0.192213 -4.61477)
(-0.37219 0.184909 -4.65663)
(-0.176966 0.190109 -4.63447)
(0.00987095 0.204659 -4.63268)
(0.191297 0.222394 -4.65197)
(0.355785 0.233608 -4.60857)
(0.488966 0.225482 -4.3009)
(0.624418 0.208809 -3.62263)
(-0.807541 0.377305 -3.3419)
(-0.668799 0.339843 -3.96458)
(-0.509941 0.345931 -4.30911)
(-0.326402 0.363516 -4.41443)
(-0.139015 0.383003 -4.4274)
(0.0395887 0.401209 -4.42246)
(0.207467 0.413693 -4.40264)
(0.351715 0.412287 -4.29454)
(0.468796 0.393191 -3.9442)
(0.605423 0.383528 -3.32217)
(-0.81093 0.553571 -2.92082)
(-0.582814 0.494676 -3.34893)
(-0.402424 0.516465 -3.63419)
(-0.2356 0.549231 -3.75009)
(-0.0760783 0.576522 -3.78748)
(0.0762738 0.595269 -3.78115)
(0.219398 0.604964 -3.73401)
(0.350206 0.605095 -3.61039)
(0.480174 0.601156 -3.31418)
(0.651014 0.642778 -2.88288)
(-0.58914 -1.04525 -4.9674)
(-0.492306 -0.944995 -5.62965)
(-0.369826 -0.91498 -6.07462)
(-0.221975 -0.889964 -6.21708)
(-0.0585419 -0.867653 -6.23084)
(0.114129 -0.848503 -6.16491)
(0.282749 -0.832772 -6.02175)
(0.437555 -0.818486 -5.74424)
(0.601229 -0.782265 -5.14379)
(0.864376 -0.794058 -4.24979)
(-0.570103 -0.857862 -5.61191)
(-0.528143 -0.869157 -6.54161)
(-0.437013 -0.871393 -7.08052)
(-0.299561 -0.850729 -7.26434)
(-0.13443 -0.827855 -7.30918)
(0.0456628 -0.808473 -7.27098)
(0.222337 -0.791882 -7.15379)
(0.378604 -0.77182 -6.88579)
(0.520751 -0.724499 -6.22899)
(0.710821 -0.679564 -5.13991)
(-0.611592 -0.690037 -6.06828)
(-0.556003 -0.743576 -7.09923)
(-0.461418 -0.76318 -7.66329)
(-0.326513 -0.748699 -7.87192)
(-0.164734 -0.727502 -7.93929)
(0.0139085 -0.70749 -7.91974)
(0.191772 -0.68854 -7.80998)
(0.349897 -0.663292 -7.53852)
(0.489876 -0.610059 -6.87542)
(0.668418 -0.540989 -5.72815)
(-0.654958 -0.506128 -6.24397)
(-0.574022 -0.56485 -7.31355)
(-0.464447 -0.592054 -7.9007)
(-0.326743 -0.585952 -8.1451)
(-0.166859 -0.565965 -8.2324)
(0.00695888 -0.544538 -8.22158)
(0.181674 -0.523895 -8.10797)
(0.337886 -0.49467 -7.8132)
(0.479583 -0.442739 -7.13975)
(0.65867 -0.37605 -5.9835)
(-0.693361 -0.321528 -6.308)
(-0.590957 -0.369574 -7.3937)
(-0.464841 -0.397206 -7.99625)
(-0.317505 -0.395642 -8.25701)
(-0.153034 -0.376202 -8.34074)
(0.0127723 -0.353214 -8.32977)
(0.184764 -0.33296 -8.22733)
(0.338636 -0.304516 -7.9238)
(0.478142 -0.261514 -7.24333)
(0.653786 -0.212633 -6.08841)
(-0.721874 -0.147063 -6.3149)
(-0.604122 -0.180765 -7.40403)
(-0.463497 -0.203947 -8.01034)
(-0.305421 -0.20428 -8.27212)
(-0.135772 -0.190741 -8.35667)
(0.0312246 -0.168463 -8.34618)
(0.199052 -0.141103 -8.24248)
(0.347141 -0.114053 -7.93978)
(0.480091 -0.0835045 -7.26035)
(0.647929 -0.0559342 -6.10983)
(-0.736992 0.0128141 -6.25354)
(-0.606505 -0.00899003 -7.33443)
(-0.454951 -0.0240661 -7.9346)
(-0.28715 -0.0215425 -8.18376)
(-0.112603 -0.00480337 -8.27119)
(0.0600941 0.0195556 -8.25973)
(0.22216 0.0458679 -8.14681)
(0.361006 0.069236 -7.85495)
(0.482472 0.0863273 -7.18561)
(0.639801 0.0942642 -6.0447)
(-0.735069 0.1607 -6.06095)
(-0.589173 0.141225 -7.1124)
(-0.429111 0.13694 -7.70022)
(-0.2527 0.146225 -7.92109)
(-0.075007 0.167701 -7.99208)
(0.0960998 0.193929 -7.97325)
(0.250634 0.219045 -7.86517)
(0.378913 0.23917 -7.59848)
(0.485642 0.245181 -6.94445)
(0.632277 0.244018 -5.82788)
(-0.70905 0.314069 -5.55713)
(-0.53595 0.278965 -6.51256)
(-0.368752 0.285918 -7.08148)
(-0.193038 0.306392 -7.28429)
(-0.0211111 0.333037 -7.33971)
(0.139454 0.359892 -7.30969)
(0.280707 0.383556 -7.20146)
(0.395969 0.401506 -6.94647)
(0.491111 0.407636 -6.31107)
(0.631963 0.424567 -5.27843)
(-0.703207 0.513477 -4.85228)
(-0.460757 0.450884 -5.53175)
(-0.274707 0.4656 -6.00265)
(-0.10569 0.492685 -6.16975)
(0.0495607 0.520846 -6.20665)
(0.192339 0.547182 -6.16351)
(0.319653 0.573123 -6.05147)
(0.433635 0.601362 -5.81405)
(0.548243 0.63176 -5.25998)
(0.725294 0.719356 -4.46665)
(-0.180635 -1.21115 -6.63453)
(-0.161663 -1.06863 -7.61786)
(-0.0764124 -1.03481 -8.31208)
(0.0374666 -1.01059 -8.54365)
(0.157775 -0.987398 -8.57667)
(0.273558 -0.961695 -8.48999)
(0.374416 -0.928563 -8.27128)
(0.453146 -0.882993 -7.8244)
(0.525964 -0.810696 -6.89418)
(0.676448 -0.81048 -5.55654)
(-0.192079 -0.984564 -7.60983)
(-0.199997 -0.959939 -8.86556)
(-0.141253 -0.975493 -9.63554)
(-0.0320082 -0.966826 -9.88935)
(0.0949475 -0.949164 -9.9541)
(0.221218 -0.926985 -9.91019)
(0.331674 -0.894736 -9.74236)
(0.412368 -0.843043 -9.33876)
(0.464739 -0.750556 -8.37674)
(0.556569 -0.683945 -6.86522)
(-0.294459 -0.8143 -8.33744)
(-0.27537 -0.829753 -9.68126)
(-0.200963 -0.863499 -10.4285)
(-0.0810152 -0.861178 -10.6787)
(0.0541466 -0.846016 -10.7761)
(0.189083 -0.823601 -10.7611)
(0.310326 -0.78887 -10.5949)
(0.403172 -0.735827 -10.2148)
(0.465778 -0.641282 -9.29169)
(0.558504 -0.552029 -7.74528)
(-0.401286 -0.631121 -8.65176)
(-0.350277 -0.643382 -10.0044)
(-0.248543 -0.678578 -10.7396)
(-0.110977 -0.685202 -11.0696)
(0.0356539 -0.684553 -11.3577)
(0.179318 -0.66602 -11.4017)
(0.305631 -0.614579 -11.0534)
(0.407621 -0.558688 -10.5743)
(0.484375 -0.475132 -9.66497)
(0.585699 -0.397467 -8.14277)
(-0.49066 -0.448769 -8.78545)
(-0.416928 -0.440753 -10.1316)
(-0.28845 -0.467943 -10.8778)
(-0.135159 -0.481922 -11.3502)
(0.0226385 -0.495428 -12.0462)
(0.188684 -0.479024 -12.2234)
(0.321615 -0.42048 -11.4221)
(0.420367 -0.363268 -10.7407)
(0.50518 -0.298576 -9.81566)
(0.608705 -0.247938 -8.31137)
(-0.559389 -0.27776 -8.81887)
(-0.468321 -0.244507 -10.1535)
(-0.319111 -0.255675 -10.8954)
(-0.146682 -0.264135 -11.3475)
(0.0227286 -0.267617 -11.9826)
(0.192993 -0.251941 -12.1354)
(0.330037 -0.213951 -11.4035)
(0.434985 -0.169716 -10.7556)
(0.522057 -0.129535 -9.83973)
(0.622326 -0.109727 -8.3457)
(-0.607038 -0.123998 -8.74931)
(-0.49893 -0.0667581 -10.0689)
(-0.335767 -0.0556136 -10.7987)
(-0.146077 -0.0499507 -11.1081)
(0.0347333 -0.0420954 -11.354)
(0.197575 -0.0264771 -11.3812)
(0.337119 -0.00673994 -11.0733)
(0.449643 0.0153893 -10.6249)
(0.531965 0.0259373 -9.73302)
(0.62677 0.0162431 -8.24295)
(-0.632642 0.0127875 -8.49102)
(-0.499638 0.0852197 -9.77849)
(-0.327519 0.121594 -10.5244)
(-0.132949 0.145837 -10.7711)
(0.0519239 0.161964 -10.8586)
(0.215151 0.173829 -10.8361)
(0.35288 0.18285 -10.6721)
(0.459938 0.182964 -10.3019)
(0.53257 0.16519 -9.39849)
(0.626164 0.134902 -7.91547)
(-0.635029 0.143426 -7.79474)
(-0.461916 0.215112 -8.95202)
(-0.282383 0.274068 -9.71281)
(-0.0946813 0.317587 -9.96847)
(0.0798818 0.34405 -10.0296)
(0.232564 0.353945 -9.98448)
(0.359232 0.34968 -9.81845)
(0.455818 0.330682 -9.42996)
(0.522992 0.295664 -8.50465)
(0.625683 0.268904 -7.09659)
(-0.687047 0.308688 -6.93868)
(-0.434095 0.371554 -7.71611)
(-0.22848 0.448178 -8.33991)
(-0.0436313 0.500085 -8.55279)
(0.118848 0.528183 -8.58407)
(0.259627 0.534559 -8.51002)
(0.379297 0.523904 -8.32123)
(0.480583 0.500723 -7.92894)
(0.57348 0.469678 -7.08442)
(0.726019 0.485657 -5.92076)
(-0.326946 -1.53676 -7.9135)
(-0.26752 -1.33784 -9.48817)
(-0.182054 -1.2694 -10.5451)
(-0.0830261 -1.21439 -10.9453)
(0.0231941 -1.16437 -11.0234)
(0.136171 -1.12025 -10.902)
(0.248243 -1.08418 -10.5733)
(0.350631 -1.05912 -9.90763)
(0.459331 -1.03708 -8.5664)
(0.673185 -1.13903 -6.59922)
(-0.346082 -1.31377 -9.49821)
(-0.32127 -1.27208 -11.3599)
(-0.258266 -1.26336 -12.4731)
(-0.156859 -1.21728 -12.845)
(-0.0342802 -1.15855 -12.9227)
(0.0981589 -1.10154 -12.85)
(0.226125 -1.05072 -12.6056)
(0.334484 -1.00217 -12.0262)
(0.427069 -0.939228 -10.6655)
(0.584825 -0.94341 -8.50477)
(-0.447049 -1.1545 -10.63)
(-0.387881 -1.16938 -12.5435)
(-0.306239 -1.18443 -13.575)
(-0.187004 -1.14399 -13.8788)
(-0.046145 -1.08349 -13.9664)
(0.101259 -1.02045 -13.9364)
(0.239712 -0.96091 -13.718)
(0.355692 -0.899826 -13.2076)
(0.448617 -0.819725 -11.9239)
(0.601749 -0.783005 -9.73936)
(-0.55978 -0.965241 -11.1555)
(-0.462037 -0.982225 -13.0103)
(-0.347228 -1.00028 -13.9583)
(-0.199825 -0.970765 -14.2734)
(-0.0360484 -0.922283 -14.5602)
(0.129406 -0.861673 -14.704)
(0.270729 -0.793149 -14.2311)
(0.392003 -0.725182 -13.6458)
(0.489569 -0.648903 -12.4188)
(0.64046 -0.6123 -10.2987)
(-0.665114 -0.769676 -11.4036)
(-0.538374 -0.763186 -13.1876)
(-0.389589 -0.770838 -14.0966)
(-0.208437 -0.75375 -14.5394)
(-0.0175459 -0.738195 -15.3072)
(0.166238 -0.699712 -15.8601)
(0.303299 -0.603837 -14.7319)
(0.431764 -0.527295 -13.8239)
(0.532322 -0.468889 -12.5933)
(0.676592 -0.455287 -10.5314)
(-0.751418 -0.584487 -11.5)
(-0.6042 -0.544289 -13.2233)
(-0.429508 -0.528971 -14.1041)
(-0.222782 -0.50397 -14.5038)
(-0.011104 -0.487748 -15.1632)
(0.186962 -0.461693 -15.6197)
(0.33815 -0.378391 -14.6381)
(0.469972 -0.324127 -13.8065)
(0.569275 -0.296173 -12.5974)
(0.704924 -0.315107 -10.5659)
(-0.81434 -0.417493 -11.4531)
(-0.648399 -0.344159 -13.1272)
(-0.456209 -0.298899 -14.0017)
(-0.233994 -0.253204 -14.2569)
(-0.00881126 -0.219654 -14.4702)
(0.198568 -0.191574 -14.5635)
(0.368972 -0.146479 -14.1592)
(0.502335 -0.128031 -13.62)
(0.598083 -0.137064 -12.4373)
(0.728241 -0.190213 -10.4051)
(-0.855229 -0.2666 -11.1543)
(-0.663506 -0.172605 -12.7615)
(-0.458391 -0.100868 -13.6785)
(-0.227876 -0.0362631 -13.913)
(0.00208533 0.0119378 -13.9552)
(0.212508 0.0413447 -13.902)
(0.389219 0.0557537 -13.6858)
(0.524848 0.0459717 -13.198)
(0.619685 0.00630705 -11.9724)
(0.755942 -0.071521 -9.93013)
(-0.877934 -0.11546 -10.2875)
(-0.64442 -0.024291 -11.6909)
(-0.428593 0.0627177 -12.6344)
(-0.200759 0.139169 -12.9096)
(0.021572 0.193977 -12.9333)
(0.225128 0.221526 -12.8333)
(0.399232 0.22353 -12.5845)
(0.536601 0.199857 -12.0363)
(0.640135 0.149298 -10.7627)
(0.800626 0.0732321 -8.81223)
(-0.965892 0.0491331 -9.31067)
(-0.645984 0.134037 -10.1643)
(-0.39964 0.233679 -10.9121)
(-0.166933 0.314103 -11.1283)
(0.0520907 0.369941 -11.104)
(0.254329 0.398501 -10.9425)
(0.436179 0.40272 -10.6298)
(0.597078 0.386246 -10.0413)
(0.746753 0.347532 -8.84659)
(0.981392 0.307711 -7.19191)
(0.132786 -0.821259 -9.12323)
(0.116156 -0.79577 -10.9909)
(0.136551 -0.795235 -12.254)
(0.151877 -0.763821 -12.7275)
(0.160264 -0.722318 -12.7952)
(0.156756 -0.689148 -12.6035)
(0.133248 -0.680381 -12.1487)
(0.0814293 -0.705111 -11.2817)
(0.013767 -0.766157 -9.61481)
(-0.0106455 -0.976452 -7.16202)
(0.117259 -0.557396 -11.0422)
(0.111843 -0.638579 -13.3215)
(0.124914 -0.710424 -14.7102)
(0.154498 -0.718801 -15.1796)
(0.187871 -0.695928 -15.2634)
(0.211561 -0.670507 -15.1428)
(0.212776 -0.661543 -14.7934)
(0.181219 -0.675496 -14.0195)
(0.120982 -0.704697 -12.2994)
(0.0933123 -0.846961 -9.60511)
(0.0253071 -0.386061 -12.4551)
(0.0503609 -0.506689 -14.8343)
(0.089578 -0.610516 -16.1521)
(0.147739 -0.641239 -16.5425)
(0.210964 -0.631632 -16.6386)
(0.261437 -0.61016 -16.5927)
(0.281212 -0.597801 -16.2789)
(0.264979 -0.603801 -15.5666)
(0.218646 -0.623012 -13.9052)
(0.209177 -0.738481 -11.1735)
(-0.0872136 -0.236707 -13.1476)
(-0.0446613 -0.351368 -15.4638)
(0.0220225 -0.458331 -16.6798)
(0.11562 -0.502757 -17.055)
(0.219938 -0.510082 -17.3461)
(0.307454 -0.496244 -17.6382)
(0.338622 -0.48737 -17.0133)
(0.33759 -0.491119 -16.1754)
(0.306502 -0.514221 -14.5595)
(0.307713 -0.630662 -11.9087)
(-0.188846 -0.110341 -13.5013)
(-0.148181 -0.198749 -15.7228)
(-0.0612492 -0.290763 -16.8758)
(0.0676273 -0.339622 -17.3392)
(0.221122 -0.370398 -18.1087)
(0.34841 -0.392141 -19.045)
(0.377491 -0.374229 -17.7454)
(0.395687 -0.375105 -16.4423)
(0.381942 -0.412626 -14.8046)
(0.388357 -0.54493 -12.2339)
(-0.275516 -0.0078873 -13.6666)
(-0.241822 -0.0640712 -15.7969)
(-0.143829 -0.128204 -16.9053)
(0.00465255 -0.162911 -17.2997)
(0.177175 -0.190184 -17.8665)
(0.327584 -0.227197 -18.5423)
(0.397929 -0.229001 -17.5182)
(0.438451 -0.256572 -16.4142)
(0.443599 -0.323252 -14.8307)
(0.458462 -0.481226 -12.3135)
(-0.34573 0.0709283 -13.6561)
(-0.313146 0.0444866 -15.7033)
(-0.20838 0.0130429 -16.8045)
(-0.0516353 0.00197475 -17.0762)
(0.122957 -0.00995481 -17.2268)
(0.282385 -0.041867 -17.355)
(0.394143 -0.075373 -16.8875)
(0.463977 -0.141042 -16.1707)
(0.492399 -0.24527 -14.6576)
(0.525299 -0.433411 -12.1624)
(-0.397953 0.130625 -13.3496)
(-0.350061 0.124228 -15.2821)
(-0.239195 0.123153 -16.4297)
(-0.0819161 0.134101 -16.7021)
(0.0889933 0.136255 -16.7057)
(0.24914 0.110574 -16.6067)
(0.379808 0.0540195 -16.314)
(0.474517 -0.0410631 -15.6705)
(0.529716 -0.177757 -14.1309)
(0.598819 -0.39233 -11.6531)
(-0.427513 0.184941 -12.3961)
(-0.341886 0.184726 -14.0359)
(-0.224099 0.208221 -15.2011)
(-0.0758849 0.237178 -15.5307)
(0.0811037 0.249303 -15.528)
(0.232378 0.226593 -15.3686)
(0.366871 0.161433 -15.0279)
(0.47821 0.0512147 -14.3215)
(0.563613 -0.103477 -12.749)
(0.689451 -0.328651 -10.4226)
(-0.496089 0.274835 -11.4434)
(-0.339009 0.273205 -12.3919)
(-0.196646 0.31769 -13.3114)
(-0.0482866 0.357231 -13.5719)
(0.104327 0.374272 -13.5173)
(0.258111 0.3558 -13.2823)
(0.40933 0.294206 -12.8579)
(0.556085 0.18375 -12.0986)
(0.700858 0.0160268 -10.6233)
(0.915513 -0.227041 -8.68796)
(-0.269601 0.0199767 -11.2496)
(-0.184357 -0.112882 -12.657)
(-0.115303 -0.244526 -13.7059)
(-0.0772175 -0.342563 -14.0196)
(-0.0636699 -0.424396 -13.9483)
(-0.0674032 -0.51026 -13.6359)
(-0.085126 -0.620031 -13.0678)
(-0.113727 -0.771267 -12.0714)
(-0.118771 -0.960435 -10.2274)
(-0.0364611 -1.29294 -7.41478)
(-0.273695 0.0902756 -13.0278)
(-0.180124 -0.0894792 -15.1212)
(-0.0844103 -0.232867 -16.4827)
(-0.00685797 -0.329065 -16.9135)
(0.0487122 -0.398615 -16.9437)
(0.0838632 -0.468501 -16.7694)
(0.0958094 -0.565635 -16.3414)
(0.0849013 -0.699787 -15.4261)
(0.0768378 -0.85486 -13.4404)
(0.13597 -1.10996 -10.3064)
(-0.267702 0.227152 -14.5068)
(-0.15273 0.0120255 -16.8473)
(-0.0344594 -0.150678 -18.2154)
(0.0705667 -0.256728 -18.6047)
(0.15616 -0.327649 -18.6871)
(0.215308 -0.39227 -18.6606)
(0.237221 -0.482007 -18.2709)
(0.229164 -0.607658 -17.3655)
(0.214987 -0.752602 -15.3912)
(0.276805 -0.980034 -12.2001)
(-0.264607 0.388888 -15.2087)
(-0.140692 0.160668 -17.595)
(-0.0125251 -0.0134038 -18.8992)
(0.11187 -0.131641 -19.287)
(0.22965 -0.214132 -19.6026)
(0.321858 -0.280945 -20.1927)
(0.347971 -0.375435 -19.3786)
(0.343715 -0.492436 -18.2118)
(0.329968 -0.632351 -16.2437)
(0.391419 -0.851678 -13.1472)
(-0.265919 0.543057 -15.5434)
(-0.145663 0.314423 -17.9267)
(-0.0188172 0.140054 -19.1861)
(0.11795 0.0173312 -19.649)
(0.278047 -0.0785642 -20.5262)
(0.417576 -0.187018 -22.1064)
(0.435078 -0.276201 -20.4545)
(0.437547 -0.37643 -18.6237)
(0.429674 -0.517926 -16.6208)
(0.488045 -0.74132 -13.6306)
(-0.261366 0.675204 -15.6684)
(-0.153578 0.451006 -18.0455)
(-0.0358517 0.286027 -19.2885)
(0.0985332 0.16978 -19.6681)
(0.254619 0.0795978 -20.0948)
(0.411094 -0.0328904 -20.8826)
(0.480625 -0.130896 -19.8647)
(0.506331 -0.249846 -18.6069)
(0.514371 -0.407435 -16.7466)
(0.574804 -0.643122 -13.8401)
(-0.241784 0.78174 -15.5841)
(-0.146097 0.559466 -17.9564)
(-0.0406284 0.408761 -19.2411)
(0.0854911 0.302019 -19.5306)
(0.231402 0.219395 -19.6069)
(0.378794 0.12706 -19.6672)
(0.490823 0.0177362 -19.2132)
(0.556159 -0.122449 -18.3996)
(0.587349 -0.300272 -16.6547)
(0.658457 -0.549834 -13.7954)
(-0.199175 0.866016 -15.1373)
(-0.109314 0.638141 -17.465)
(-0.011755 0.500977 -18.8471)
(0.105614 0.40393 -19.1756)
(0.241915 0.327624 -19.161)
(0.384537 0.243561 -19.0218)
(0.509943 0.133997 -18.6823)
(0.601559 -0.0119191 -17.9427)
(0.656274 -0.197816 -16.1723)
(0.753878 -0.451402 -13.3535)
(-0.11452 0.941667 -13.915)
(-0.0233936 0.694343 -15.9978)
(0.0708968 0.565853 -17.4398)
(0.176823 0.477635 -17.8765)
(0.297427 0.406308 -17.889)
(0.427574 0.328921 -17.7155)
(0.552242 0.226796 -17.3301)
(0.656768 0.0917851 -16.5224)
(0.735154 -0.0788779 -14.7196)
(0.876979 -0.309738 -12.1038)
(0.0196821 1.10484 -12.5441)
(0.133027 0.79892 -13.9682)
(0.227946 0.658602 -15.2093)
(0.320878 0.569858 -15.6419)
(0.424942 0.502457 -15.662)
(0.545585 0.434521 -15.4373)
(0.676813 0.350503 -14.9852)
(0.809209 0.239896 -14.1285)
(0.940086 0.0928088 -12.4432)
(1.16703 -0.106237 -10.3327)
(-0.220974 0.430291 -13.7538)
(-0.266764 0.246599 -14.3622)
(-0.283673 0.12157 -14.9726)
(-0.314025 0.0267893 -14.9639)
(-0.360045 -0.0586413 -14.7117)
(-0.420842 -0.14782 -14.3298)
(-0.488573 -0.250813 -13.7908)
(-0.555514 -0.370486 -12.8458)
(-0.591868 -0.479542 -11.0017)
(-0.627409 -0.616144 -8.18302)
(-0.0421609 0.644072 -15.2786)
(-0.0773187 0.453864 -16.8673)
(-0.0886335 0.314002 -17.9272)
(-0.10252 0.191277 -18.1013)
(-0.135734 0.0765569 -17.9842)
(-0.189086 -0.0398192 -17.7534)
(-0.255515 -0.168573 -17.361)
(-0.328368 -0.305075 -16.4518)
(-0.386425 -0.420864 -14.4019)
(-0.426324 -0.565034 -11.134)
(0.0573819 0.821636 -16.7048)
(0.0407539 0.635097 -18.6899)
(0.0567536 0.478775 -19.8177)
(0.0676861 0.32965 -19.9877)
(0.0516053 0.191216 -19.982)
(0.00381819 0.0550976 -20.0273)
(-0.0654091 -0.0978551 -19.6574)
(-0.146452 -0.254451 -18.6003)
(-0.221828 -0.385625 -16.4761)
(-0.265017 -0.539243 -13.1267)
(0.13451 0.949952 -17.2875)
(0.129942 0.777481 -19.441)
(0.159831 0.61569 -20.5752)
(0.186804 0.453014 -20.7889)
(0.193243 0.300026 -21.0879)
(0.160604 0.151165 -21.9038)
(0.0995284 -0.0353684 -21.1392)
(0.0182518 -0.205658 -19.6434)
(-0.070703 -0.34843 -17.4513)
(-0.12247 -0.512252 -14.1719)
(0.21016 1.03868 -17.4756)
(0.203257 0.882028 -19.7443)
(0.230351 0.724893 -20.9172)
(0.262024 0.563032 -21.2231)
(0.294361 0.406192 -21.9637)
(0.301399 0.225031 -23.5474)
(0.241086 0.0170233 -22.0822)
(0.155315 -0.158958 -20.1084)
(0.06297 -0.313373 -17.9479)
(1.29186e-05 -0.487585 -14.785)
(0.283496 1.09322 -17.4439)
(0.268645 0.946899 -19.8272)
(0.284846 0.798602 -21.0729)
(0.304769 0.640064 -21.3495)
(0.330801 0.480083 -21.5832)
(0.358427 0.286546 -22.1202)
(0.319054 0.0846621 -21.2745)
(0.252974 -0.102959 -20.1057)
(0.17208 -0.273354 -18.1854)
(0.107062 -0.457048 -15.1117)
(0.352781 1.11593 -17.1802)
(0.333244 0.971405 -19.675)
(0.338944 0.832718 -21.0422)
(0.342665 0.678656 -21.3264)
(0.349784 0.519776 -21.3134)
(0.358942 0.341991 -21.2256)
(0.353117 0.148968 -20.8075)
(0.31857 -0.0471363 -20.0293)
(0.253925 -0.230827 -18.1972)
(0.197426 -0.418236 -15.151)
(0.425655 1.10789 -16.5033)
(0.405316 0.95615 -19.0544)
(0.407174 0.828856 -20.5836)
(0.398569 0.684072 -20.9783)
(0.390456 0.532463 -20.9593)
(0.38806 0.366818 -20.7717)
(0.382786 0.184153 -20.4057)
(0.360368 -0.00793747 -19.6599)
(0.309757 -0.191558 -17.7576)
(0.276864 -0.371935 -14.7237)
(0.514697 1.06936 -14.9558)
(0.493563 0.901941 -17.3272)
(0.497725 0.786072 -18.9542)
(0.481389 0.65554 -19.4969)
(0.45782 0.516155 -19.5695)
(0.436621 0.36475 -19.3958)
(0.41612 0.198056 -18.9755)
(0.388573 0.0232417 -18.1454)
(0.346475 -0.143887 -16.1893)
(0.345345 -0.299222 -13.3566)
(0.662531 1.13638 -13.1622)
(0.62809 0.912469 -14.873)
(0.637124 0.780277 -16.2993)
(0.614559 0.647688 -16.8641)
(0.578125 0.51783 -16.9865)
(0.540409 0.381987 -16.8286)
(0.505506 0.23713 -16.3699)
(0.473613 0.0839092 -15.473)
(0.444731 -0.0668961 -13.6485)
(0.476107 -0.209503 -11.3706)
(-0.997528 0.375234 -15.637)
(-0.93932 0.398149 -15.9637)
(-0.931714 0.352311 -16.3841)
(-0.908133 0.245248 -16.163)
(-0.8704 0.101393 -15.7453)
(-0.809212 -0.0542242 -15.2895)
(-0.710674 -0.195617 -14.7258)
(-0.575476 -0.307974 -13.8195)
(-0.393022 -0.347441 -12.0784)
(-0.205988 -0.311404 -9.58915)
(-0.962643 0.380957 -16.8205)
(-0.950478 0.404318 -18.2442)
(-0.939858 0.395648 -19.1539)
(-0.906301 0.314615 -19.1369)
(-0.863176 0.179932 -18.9063)
(-0.80285 0.0205076 -18.704)
(-0.706403 -0.13469 -18.2985)
(-0.573759 -0.25711 -17.3528)
(-0.405171 -0.314947 -15.2836)
(-0.243422 -0.308971 -12.1243)
(-0.932368 0.461294 -18.0848)
(-0.914138 0.479069 -19.9457)
(-0.889582 0.476254 -20.9299)
(-0.84669 0.396337 -20.9144)
(-0.806572 0.258677 -20.8195)
(-0.767003 0.0864757 -21.0005)
(-0.67935 -0.0921838 -20.6792)
(-0.550364 -0.23341 -19.5544)
(-0.399165 -0.307089 -17.3644)
(-0.250077 -0.322086 -13.9982)
(-0.871038 0.527522 -18.5015)
(-0.833086 0.537844 -20.5593)
(-0.793741 0.530203 -21.5774)
(-0.748832 0.449288 -21.6413)
(-0.719606 0.312573 -21.8927)
(-0.701101 0.133378 -22.8459)
(-0.604691 -0.0658619 -22.2494)
(-0.479374 -0.22002 -20.5808)
(-0.354945 -0.302854 -18.3192)
(-0.226972 -0.331534 -15.0096)
(-0.812103 0.56761 -18.5136)
(-0.746916 0.567252 -20.7373)
(-0.696112 0.553937 -21.8484)
(-0.651915 0.474012 -22.039)
(-0.620629 0.344296 -22.5572)
(-0.59239 0.163001 -23.758)
(-0.493002 -0.0493439 -22.701)
(-0.389864 -0.206612 -20.9191)
(-0.294443 -0.292909 -18.7865)
(-0.19273 -0.330845 -15.6056)
(-0.758216 0.584293 -18.3316)
(-0.669234 0.568681 -20.7453)
(-0.610151 0.54819 -21.9956)
(-0.566108 0.464718 -22.2258)
(-0.526019 0.334665 -22.3628)
(-0.46752 0.161299 -22.6548)
(-0.387161 -0.0273718 -21.9327)
(-0.312738 -0.177401 -20.8934)
(-0.242794 -0.265783 -19.0176)
(-0.159899 -0.306944 -15.9402)
(-0.707656 0.585008 -17.9291)
(-0.599368 0.543952 -20.5115)
(-0.535789 0.513451 -21.9361)
(-0.492806 0.42666 -22.2327)
(-0.453979 0.301516 -22.208)
(-0.401109 0.15062 -22.0711)
(-0.333569 -0.0066614 -21.6455)
(-0.272289 -0.140323 -20.9012)
(-0.218695 -0.222705 -19.0311)
(-0.143855 -0.257756 -15.9777)
(-0.650259 0.581723 -17.091)
(-0.533128 0.498042 -19.7633)
(-0.469356 0.452111 -21.3792)
(-0.429708 0.365766 -21.8156)
(-0.397748 0.253316 -21.8232)
(-0.359042 0.128468 -21.6468)
(-0.313595 0.00359002 -21.2772)
(-0.271214 -0.102461 -20.5255)
(-0.228664 -0.166531 -18.5493)
(-0.149143 -0.185503 -15.511)
(-0.572636 0.579632 -15.3233)
(-0.453381 0.434885 -17.8167)
(-0.393264 0.366835 -19.5286)
(-0.362563 0.284044 -20.1159)
(-0.345747 0.190291 -20.2195)
(-0.331238 0.0956152 -20.0681)
(-0.315783 0.00975194 -19.6616)
(-0.299147 -0.0560755 -18.8201)
(-0.268083 -0.0872574 -16.8058)
(-0.188217 -0.0745261 -14.0329)
(-0.466957 0.648292 -13.2796)
(-0.332192 0.415574 -15.0801)
(-0.278265 0.309162 -16.5458)
(-0.265002 0.220142 -17.1208)
(-0.274778 0.143876 -17.2499)
(-0.296247 0.0795981 -17.1078)
(-0.321449 0.0345706 -16.6832)
(-0.339771 0.0143012 -15.8363)
(-0.32956 0.0271953 -14.086)
(-0.275702 0.075222 -12.0407)
(-0.244903 0.295805 -16.1022)
(-0.333931 0.416809 -16.6415)
(-0.427421 0.486645 -17.2165)
(-0.469338 0.481936 -17.017)
(-0.470296 0.426822 -16.567)
(-0.437751 0.353302 -16.0984)
(-0.377825 0.297843 -15.576)
(-0.311789 0.276016 -14.745)
(-0.26239 0.311049 -13.0747)
(-0.280567 0.423801 -10.8754)
(-0.423697 0.402203 -17.0863)
(-0.531245 0.599368 -18.7203)
(-0.630928 0.711302 -19.7328)
(-0.674669 0.705636 -19.6824)
(-0.678189 0.614711 -19.3723)
(-0.647098 0.487504 -19.1318)
(-0.578731 0.375053 -18.7778)
(-0.488972 0.303694 -17.8914)
(-0.413102 0.283725 -15.8813)
(-0.407804 0.313817 -12.9431)
(-0.569369 0.495288 -18.2109)
(-0.694751 0.7286 -20.2997)
(-0.795294 0.862156 -21.3448)
(-0.842301 0.85353 -21.255)
(-0.859877 0.742793 -21.0464)
(-0.851772 0.581185 -21.1705)
(-0.779783 0.419828 -20.9534)
(-0.660349 0.302444 -19.8984)
(-0.550722 0.240222 -17.8151)
(-0.519023 0.223392 -14.6234)
(-0.634955 0.510129 -18.5235)
(-0.77046 0.741724 -20.8103)
(-0.868028 0.87523 -21.8653)
(-0.922573 0.868593 -21.8456)
(-0.96656 0.760934 -21.9692)
(-0.99829 0.597518 -22.7979)
(-0.917893 0.404518 -22.4049)
(-0.778429 0.247934 -20.8555)
(-0.652875 0.160517 -18.7196)
(-0.602533 0.120118 -15.5371)
(-0.658132 0.460781 -18.4702)
(-0.789482 0.661333 -20.9076)
(-0.880819 0.778012 -22.0464)
(-0.940879 0.770016 -22.1824)
(-1.00294 0.67493 -22.5964)
(-1.05295 0.518988 -23.6057)
(-0.969723 0.307609 -22.7701)
(-0.835861 0.143518 -21.1798)
(-0.718013 0.060916 -19.1745)
(-0.661945 0.0163036 -16.1169)
(-0.660796 0.371646 -18.2292)
(-0.780207 0.522352 -20.8274)
(-0.865363 0.608757 -22.1112)
(-0.925503 0.587633 -22.3356)
(-0.981704 0.487678 -22.4845)
(-1.00949 0.335743 -22.7588)
(-0.952948 0.16088 -22.1198)
(-0.860473 0.032586 -21.2035)
(-0.763352 -0.0314558 -19.441)
(-0.700881 -0.0687364 -16.5122)
(-0.655172 0.266555 -17.7618)
(-0.758925 0.356299 -20.5166)
(-0.840976 0.405486 -21.9879)
(-0.902773 0.372026 -22.3127)
(-0.956635 0.279896 -22.3378)
(-0.982327 0.157874 -22.2509)
(-0.955558 0.0356088 -21.8888)
(-0.893379 -0.0560897 -21.2537)
(-0.807894 -0.102087 -19.5266)