/*--------------------------------*- C++ -*----------------------------------*\
| =========                 |                                                 |
| \\      /  F ield         | OpenFOAM: The Open Source CFD Toolbox           |
|  \\    /   O peration     | Version:  2406                                  |
|   \\  /    A nd           | Website:  www.openfoam.com                      |
|    \\/     M anipulation  |                                                 |
\*---------------------------------------------------------------------------*/
FoamFile
{
    version     2.0;
    format      ascii;
    arch        "LSB;label=32;scalar=64";
    class       volScalarField;
    location    "0.5";
    object      p;
}
// * * * * * * * * * * * * * * * * * * * * * * * * * * * * * * * * * * * * * //

dimensions      [0 2 -2 0 0 0 0];

internalField   nonuniform List<scalar> 
25000
(
169.317
169.266
169.231
169.208
169.197
169.196
169.206
169.227
169.26
169.312
169.265
169.208
169.168
169.141
169.128
169.127
169.139
169.163
169.202
169.26
169.231
169.168
169.123
169.093
169.077
169.076
169.09
169.118
169.162
169.225
169.208
169.141
169.092
169.06
169.044
169.043
169.057
169.088
169.134
169.201
169.196
169.127
169.077
169.043
169.026
169.026
169.041
169.072
169.12
169.189
169.195
169.126
169.075
169.042
169.025
169.024
169.039
169.07
169.119
169.188
169.205
169.137
169.088
169.056
169.039
169.039
169.053
169.084
169.131
169.198
169.226
169.161
169.116
169.085
169.07
169.069
169.083
169.111
169.155
169.219
169.258
169.199
169.158
169.132
169.118
169.117
169.13
169.155
169.194
169.251
169.308
169.256
169.221
169.198
169.186
169.186
169.197
169.218
169.252
169.304
167.755
167.779
167.796
167.806
167.811
167.809
167.801
167.787
167.768
167.741
167.779
167.806
167.825
167.837
167.842
167.841
167.832
167.816
167.795
167.766
167.794
167.824
167.845
167.859
167.866
167.864
167.854
167.837
167.813
167.782
167.805
167.836
167.859
167.875
167.882
167.881
167.87
167.851
167.825
167.793
167.81
167.841
167.865
167.882
167.89
167.888
167.877
167.857
167.83
167.797
167.809
167.84
167.863
167.88
167.888
167.886
167.875
167.856
167.829
167.796
167.801
167.831
167.853
167.869
167.876
167.875
167.865
167.846
167.821
167.789
167.788
167.816
167.836
167.85
167.856
167.855
167.846
167.829
167.806
167.775
167.769
167.795
167.812
167.824
167.829
167.828
167.82
167.806
167.785
167.757
167.743
167.765
167.781
167.791
167.796
167.795
167.789
167.776
167.758
167.732
167.593
167.586
167.582
167.579
167.576
167.575
167.574
167.574
167.576
167.58
167.586
167.58
167.576
167.572
167.569
167.567
167.567
167.568
167.57
167.574
167.581
167.575
167.57
167.566
167.563
167.561
167.561
167.562
167.565
167.57
167.578
167.571
167.565
167.561
167.559
167.558
167.557
167.558
167.561
167.566
167.576
167.568
167.563
167.559
167.557
167.556
167.555
167.555
167.558
167.564
167.575
167.567
167.561
167.557
167.555
167.554
167.554
167.554
167.557
167.564
167.576
167.568
167.562
167.557
167.555
167.554
167.554
167.555
167.558
167.564
167.577
167.57
167.563
167.559
167.556
167.555
167.555
167.557
167.56
167.565
167.58
167.572
167.567
167.562
167.56
167.559
167.559
167.561
167.563
167.568
167.585
167.577
167.572
167.569
167.567
167.566
167.566
167.567
167.57
167.574
166.567
166.567
166.569
166.57
166.57
166.569
166.567
166.565
166.562
166.558
166.568
166.569
166.57
166.571
166.571
166.569
166.567
166.564
166.561
166.557
166.566
166.568
166.57
166.57
166.57
166.568
166.566
166.563
166.56
166.556
166.565
166.567
166.568
166.568
166.568
166.567
166.565
166.562
166.558
166.555
166.565
166.566
166.567
166.567
166.566
166.565
166.563
166.56
166.557
166.554
166.564
166.565
166.565
166.564
166.564
166.563
166.561
166.558
166.556
166.553
166.564
166.564
166.563
166.562
166.561
166.56
166.558
166.556
166.554
166.551
166.562
166.562
166.561
166.56
166.559
166.558
166.556
166.554
166.552
166.549
166.561
166.56
166.559
166.558
166.557
166.555
166.554
166.552
166.55
166.547
166.561
166.559
166.557
166.556
166.555
166.553
166.552
166.551
166.55
166.547
165.876
165.871
165.869
165.867
165.866
165.865
165.864
165.863
165.863
165.865
165.872
165.867
165.864
165.862
165.86
165.859
165.858
165.857
165.858
165.86
165.866
165.861
165.858
165.855
165.853
165.852
165.852
165.852
165.853
165.855
165.862
165.857
165.852
165.849
165.847
165.847
165.847
165.847
165.849
165.852
165.859
165.853
165.848
165.845
165.843
165.843
165.843
165.844
165.846
165.85
165.857
165.851
165.846
165.842
165.84
165.84
165.841
165.842
165.845
165.849
165.856
165.851
165.846
165.841
165.839
165.839
165.839
165.842
165.845
165.849
165.857
165.852
165.847
165.843
165.84
165.84
165.84
165.843
165.845
165.849
165.858
165.853
165.849
165.845
165.843
165.842
165.843
165.845
165.847
165.85
165.863
165.858
165.853
165.849
165.847
165.847
165.848
165.849
165.853
165.855
164.899
164.896
164.895
164.893
164.892
164.89
164.888
164.886
164.883
164.881
164.895
164.893
164.892
164.89
164.889
164.887
164.885
164.883
164.881
164.881
164.89
164.888
164.887
164.885
164.884
164.883
164.881
164.88
164.878
164.877
164.885
164.884
164.882
164.88
164.879
164.879
164.878
164.876
164.875
164.875
164.881
164.88
164.877
164.875
164.874
164.875
164.874
164.873
164.873
164.873
164.878
164.876
164.874
164.871
164.87
164.87
164.87
164.871
164.871
164.872
164.874
164.873
164.87
164.868
164.867
164.867
164.867
164.868
164.869
164.87
164.871
164.87
164.868
164.866
164.865
164.865
164.865
164.867
164.868
164.868
164.869
164.867
164.865
164.864
164.863
164.863
164.864
164.865
164.867
164.866
164.868
164.866
164.864
164.863
164.863
164.863
164.864
164.866
164.869
164.869
163.904
163.899
163.896
163.893
163.891
163.89
163.89
163.89
163.889
163.895
163.896
163.892
163.889
163.887
163.885
163.885
163.885
163.886
163.887
163.894
163.89
163.886
163.883
163.88
163.879
163.879
163.88
163.881
163.883
163.888
163.884
163.88
163.877
163.874
163.874
163.874
163.875
163.877
163.879
163.884
163.879
163.875
163.871
163.869
163.869
163.87
163.871
163.873
163.876
163.881
163.874
163.87
163.867
163.865
163.864
163.865
163.868
163.871
163.874
163.878
163.871
163.867
163.864
163.862
163.862
163.863
163.865
163.869
163.873
163.876
163.868
163.864
163.862
163.861
163.86
163.862
163.864
163.868
163.871
163.874
163.867
163.862
163.86
163.86
163.86
163.861
163.864
163.867
163.871
163.872
163.863
163.859
163.858
163.859
163.86
163.862
163.865
163.87
163.876
163.878
162.796
162.798
162.797
162.797
162.797
162.798
162.798
162.799
162.799
162.806
162.784
162.788
162.788
162.789
162.79
162.792
162.794
162.796
162.799
162.806
162.779
162.781
162.782
162.783
162.784
162.786
162.789
162.792
162.795
162.801
162.774
162.775
162.776
162.777
162.779
162.781
162.784
162.788
162.791
162.797
162.77
162.771
162.771
162.772
162.774
162.776
162.78
162.784
162.789
162.793
162.767
162.767
162.767
162.768
162.77
162.773
162.777
162.782
162.786
162.79
162.765
162.764
162.764
162.766
162.768
162.771
162.775
162.78
162.784
162.787
162.763
162.761
162.762
162.764
162.766
162.77
162.774
162.778
162.782
162.785
162.763
162.759
162.76
162.762
162.765
162.769
162.772
162.776
162.78
162.782
162.757
162.754
162.757
162.76
162.764
162.768
162.773
162.778
162.783
162.784
161.594
161.599
161.599
161.601
161.602
161.603
161.605
161.608
161.612
161.621
161.582
161.588
161.59
161.592
161.595
161.597
161.601
161.606
161.611
161.621
161.577
161.581
161.583
161.586
161.589
161.592
161.597
161.602
161.609
161.617
161.573
161.576
161.578
161.581
161.585
161.589
161.593
161.6
161.607
161.615
161.571
161.573
161.575
161.578
161.582
161.586
161.592
161.599
161.606
161.613
161.57
161.571
161.573
161.577
161.581
161.586
161.592
161.599
161.606
161.612
161.57
161.57
161.573
161.577
161.582
161.587
161.593
161.6
161.606
161.612
161.571
161.571
161.574
161.578
161.583
161.589
161.595
161.601
161.607
161.613
161.574
161.573
161.576
161.58
161.585
161.591
161.597
161.603
161.608
161.614
161.573
161.572
161.576
161.581
161.586
161.593
161.599
161.605
161.612
161.618
160.379
160.386
160.39
160.394
160.397
160.399
160.401
160.404
160.407
160.412
160.374
160.38
160.385
160.389
160.393
160.396
160.4
160.404
160.409
160.415
160.373
160.378
160.383
160.387
160.391
160.395
160.399
160.404
160.41
160.416
160.373
160.378
160.383
160.387
160.391
160.395
160.399
160.406
160.412
160.418
160.375
160.379
160.384
160.388
160.393
160.397
160.402
160.408
160.415
160.421
160.377
160.381
160.386
160.391
160.395
160.4
160.406
160.412
160.417
160.423
160.38
160.384
160.389
160.393
160.399
160.404
160.409
160.415
160.42
160.426
160.383
160.387
160.392
160.397
160.402
160.407
160.413
160.418
160.423
160.429
160.387
160.39
160.395
160.4
160.405
160.41
160.416
160.421
160.425
160.431
160.388
160.392
160.398
160.403
160.408
160.414
160.419
160.424
160.428
160.435
159.131
159.131
159.132
159.133
159.135
159.136
159.137
159.138
159.14
159.141
159.132
159.131
159.131
159.133
159.134
159.136
159.137
159.14
159.142
159.144
159.131
159.131
159.132
159.133
159.135
159.136
159.138
159.141
159.144
159.147
159.132
159.132
159.133
159.135
159.137
159.138
159.14
159.143
159.147
159.15
159.133
159.135
159.136
159.138
159.14
159.142
159.144
159.147
159.15
159.153
159.135
159.137
159.14
159.142
159.144
159.146
159.148
159.151
159.153
159.156
159.138
159.141
159.143
159.145
159.148
159.15
159.152
159.154
159.156
159.158
159.142
159.144
159.146
159.149
159.151
159.153
159.154
159.156
159.158
159.159
159.145
159.147
159.15
159.152
159.154
159.155
159.157
159.158
159.159
159.161
159.148
159.151
159.153
159.155
159.156
159.158
159.159
159.16
159.161
159.164
157.937
157.931
157.929
157.928
157.926
157.924
157.922
157.919
157.917
157.912
157.941
157.935
157.932
157.929
157.927
157.924
157.922
157.92
157.917
157.913
157.943
157.938
157.934
157.931
157.928
157.925
157.923
157.921
157.919
157.915
157.944
157.94
157.937
157.934
157.931
157.927
157.924
157.922
157.92
157.917
157.945
157.942
157.939
157.936
157.933
157.93
157.927
157.924
157.922
157.918
157.947
157.944
157.942
157.939
157.936
157.933
157.929
157.926
157.922
157.919
157.949
157.946
157.944
157.941
157.938
157.934
157.93
157.926
157.922
157.918
157.951
157.948
157.945
157.942
157.938
157.934
157.93
157.926
157.921
157.916
157.952
157.949
157.946
157.942
157.938
157.934
157.929
157.925
157.92
157.915
157.952
157.949
157.945
157.942
157.938
157.934
157.929
157.925
157.921
157.916
156.725
156.716
156.711
156.706
156.702
156.698
156.694
156.69
156.687
156.68
156.732
156.723
156.716
156.71
156.704
156.699
156.694
156.689
156.685
156.678
156.734
156.726
156.718
156.712
156.706
156.7
156.694
156.689
156.684
156.678
156.736
156.728
156.721
156.714
156.707
156.701
156.695
156.689
156.684
156.677
156.737
156.73
156.723
156.716
156.709
156.702
156.696
156.689
156.683
156.676
156.738
156.731
156.724
156.717
156.71
156.703
156.696
156.688
156.681
156.674
156.738
156.732
156.725
156.718
156.71
156.703
156.695
156.687
156.679
156.671
156.739
156.732
156.725
156.717
156.709
156.701
156.693
156.685
156.677
156.669
156.739
156.731
156.723
156.716
156.708
156.699
156.691
156.683
156.676
156.667
156.736
156.728
156.721
156.713
156.705
156.698
156.69
156.683
156.676
156.667
155.56
155.556
155.552
155.549
155.546
155.544
155.543
155.542
155.541
155.537
155.565
155.561
155.556
155.552
155.549
155.546
155.543
155.541
155.538
155.533
155.57
155.566
155.561
155.556
155.552
155.548
155.545
155.542
155.538
155.533
155.575
155.57
155.565
155.56
155.555
155.551
155.547
155.543
155.538
155.533
155.578
155.573
155.568
155.563
155.558
155.553
155.549
155.544
155.538
155.531
155.58
155.576
155.571
155.566
155.561
155.556
155.55
155.544
155.537
155.53
155.582
155.578
155.573
155.568
155.563
155.557
155.55
155.543
155.536
155.528
155.583
155.578
155.574
155.569
155.563
155.556
155.549
155.542
155.535
155.526
155.584
155.578
155.573
155.568
155.562
155.555
155.548
155.541
155.534
155.525
155.582
155.575
155.571
155.566
155.56
155.554
155.548
155.541
155.535
155.525
154.402
154.405
154.404
154.404
154.406
154.41
154.414
154.42
154.426
154.431
154.403
154.406
154.406
154.407
154.409
154.412
154.415
154.419
154.423
154.425
154.408
154.409
154.41
154.41
154.412
154.414
154.417
154.42
154.423
154.424
154.412
154.413
154.414
154.414
154.415
154.417
154.419
154.421
154.422
154.422
154.416
154.417
154.418
154.419
154.419
154.42
154.421
154.422
154.421
154.42
154.419
154.42
154.421
154.423
154.423
154.423
154.423
154.422
154.42
154.417
154.422
154.423
154.424
154.425
154.426
154.425
154.424
154.421
154.419
154.415
154.425
154.425
154.426
154.427
154.427
154.426
154.424
154.421
154.418
154.414
154.429
154.427
154.428
154.428
154.428
154.426
154.424
154.421
154.417
154.413
154.428
154.425
154.427
154.428
154.428
154.426
154.424
154.42
154.415
154.408
153.301
153.309
153.313
153.319
153.326
153.335
153.345
153.357
153.368
153.38
153.3
153.309
153.314
153.321
153.329
153.338
153.348
153.359
153.369
153.377
153.305
153.312
153.318
153.326
153.334
153.343
153.353
153.362
153.371
153.379
153.31
153.317
153.324
153.331
153.339
153.348
153.357
153.365
153.373
153.379
153.316
153.323
153.33
153.338
153.346
153.353
153.361
153.368
153.374
153.379
153.321
153.328
153.336
153.345
153.352
153.359
153.365
153.371
153.376
153.379
153.327
153.334
153.342
153.351
153.358
153.364
153.369
153.373
153.377
153.38
153.333
153.339
153.348
153.356
153.363
153.368
153.372
153.375
153.377
153.381
153.341
153.345
153.353
153.36
153.366
153.371
153.374
153.376
153.378
153.382
153.343
153.347
153.355
153.363
153.369
153.373
153.375
153.374
153.372
153.374
152.245
152.251
152.255
152.261
152.267
152.275
152.283
152.292
152.301
152.31
152.246
152.253
152.258
152.265
152.273
152.281
152.29
152.299
152.308
152.316
152.251
152.257
152.264
152.271
152.279
152.288
152.297
152.307
152.315
152.323
152.255
152.263
152.27
152.278
152.287
152.296
152.305
152.314
152.322
152.329
152.261
152.269
152.278
152.286
152.295
152.303
152.312
152.32
152.328
152.335
152.268
152.276
152.285
152.294
152.303
152.311
152.318
152.326
152.333
152.34
152.275
152.283
152.292
152.302
152.311
152.318
152.325
152.332
152.338
152.345
152.282
152.289
152.299
152.308
152.317
152.324
152.331
152.337
152.343
152.35
152.289
152.296
152.305
152.314
152.323
152.33
152.336
152.341
152.346
152.356
152.294
152.301
152.311
152.32
152.328
152.334
152.338
152.341
152.343
152.353
151.257
151.255
151.256
151.257
151.261
151.265
151.27
151.276
151.283
151.287
151.263
151.262
151.263
151.265
151.269
151.273
151.279
151.285
151.291
151.296
151.268
151.269
151.271
151.274
151.279
151.284
151.29
151.296
151.302
151.307
151.273
151.276
151.28
151.284
151.289
151.295
151.301
151.307
151.313
151.318
151.28
151.284
151.289
151.294
151.3
151.305
151.311
151.317
151.323
151.328
151.288
151.293
151.299
151.305
151.311
151.315
151.321
151.326
151.332
151.336
151.296
151.301
151.308
151.315
151.321
151.325
151.33
151.335
151.34
151.345
151.304
151.309
151.316
151.323
151.33
151.335
151.339
151.344
151.348
151.352
151.31
151.317
151.324
151.331
151.337
151.342
151.347
151.351
151.354
151.36
151.317
151.324
151.332
151.339
151.344
151.349
151.352
151.356
151.358
151.365
150.346
150.333
150.326
150.32
150.315
150.312
150.311
150.311
150.314
150.308
150.348
150.338
150.331
150.324
150.319
150.315
150.313
150.312
150.312
150.306
150.347
150.34
150.334
150.328
150.324
150.32
150.318
150.317
150.317
150.314
150.347
150.342
150.337
150.333
150.329
150.326
150.324
150.323
150.322
150.321
150.347
150.344
150.341
150.337
150.334
150.331
150.329
150.328
150.327
150.326
150.348
150.346
150.344
150.342
150.339
150.336
150.333
150.332
150.331
150.33
150.349
150.348
150.347
150.346
150.343
150.34
150.337
150.335
150.334
150.332
150.351
150.35
150.35
150.349
150.347
150.344
150.341
150.339
150.336
150.334
150.352
150.352
150.352
150.352
150.35
150.348
150.345
150.342
150.338
150.336
150.352
150.354
150.354
150.355
150.353
150.351
150.347
150.342
150.337
150.336
149.475
149.457
149.445
149.433
149.423
149.415
149.409
149.406
149.404
149.389
149.469
149.454
149.441
149.429
149.418
149.408
149.4
149.394
149.387
149.372
149.461
149.448
149.437
149.425
149.414
149.405
149.397
149.389
149.383
149.372
149.453
149.443
149.432
149.422
149.412
149.403
149.395
149.388
149.381
149.373
149.446
149.438
149.429
149.419
149.41
149.403
149.395
149.388
149.381
149.374
149.44
149.433
149.426
149.418
149.41
149.403
149.395
149.387
149.381
149.375
149.436
149.43
149.424
149.417
149.411
149.403
149.395
149.387
149.38
149.376
149.433
149.426
149.421
149.416
149.41
149.403
149.395
149.388
149.38
149.376
149.43
149.423
149.419
149.415
149.409
149.403
149.396
149.388
149.38
149.378
149.423
149.417
149.415
149.412
149.408
149.402
149.394
149.385
149.375
149.372
148.602
148.591
148.581
148.571
148.561
148.553
148.545
148.537
148.53
148.513
148.594
148.585
148.575
148.563
148.552
148.541
148.531
148.522
148.512
148.496
148.587
148.578
148.567
148.555
148.543
148.531
148.521
148.511
148.502
148.49
148.579
148.57
148.558
148.546
148.534
148.523
148.513
148.503
148.495
148.485
148.57
148.561
148.549
148.538
148.526
148.516
148.506
148.497
148.489
148.481
148.561
148.552
148.541
148.531
148.52
148.511
148.501
148.492
148.484
148.479
148.553
148.543
148.534
148.525
148.516
148.507
148.497
148.488
148.481
148.478
148.545
148.535
148.527
148.519
148.511
148.503
148.494
148.485
148.479
148.477
148.538
148.527
148.52
148.514
148.507
148.499
148.491
148.484
148.477
148.478
148.524
148.515
148.512
148.508
148.503
148.496
148.488
148.479
148.47
148.47
147.664
147.664
147.661
147.658
147.654
147.651
147.647
147.642
147.639
147.633
147.657
147.658
147.656
147.653
147.649
147.645
147.641
147.637
147.633
147.628
147.655
147.655
147.652
147.648
147.644
147.641
147.637
147.633
147.63
147.626
147.653
147.651
147.648
147.644
147.64
147.636
147.633
147.63
147.627
147.623
147.65
147.647
147.644
147.64
147.637
147.634
147.63
147.627
147.624
147.622
147.647
147.644
147.641
147.639
147.636
147.633
147.629
147.626
147.623
147.622
147.644
147.641
147.639
147.637
147.636
147.632
147.628
147.625
147.622
147.623
147.641
147.638
147.637
147.636
147.634
147.632
147.628
147.624
147.622
147.625
147.638
147.636
147.635
147.634
147.633
147.631
147.628
147.625
147.622
147.628
147.63
147.63
147.632
147.633
147.632
147.63
147.627
147.622
147.617
147.622
146.771
146.779
146.781
146.783
146.783
146.78
146.777
146.773
146.77
146.768
146.763
146.772
146.777
146.779
146.78
146.779
146.777
146.775
146.773
146.77
146.761
146.769
146.773
146.776
146.777
146.776
146.775
146.774
146.772
146.77
146.76
146.767
146.771
146.772
146.773
146.772
146.772
146.771
146.77
146.769
146.76
146.765
146.768
146.77
146.769
146.769
146.768
146.768
146.768
146.768
146.76
146.764
146.766
146.768
146.768
146.767
146.766
146.766
146.766
146.767
146.76
146.763
146.765
146.766
146.767
146.766
146.765
146.764
146.764
146.766
146.758
146.762
146.763
146.765
146.765
146.764
146.763
146.762
146.763
146.766
146.757
146.761
146.763
146.764
146.764
146.763
146.762
146.761
146.762
146.768
146.755
146.761
146.764
146.764
146.764
146.762
146.76
146.758
146.755
146.761
145.882
145.885
145.897
145.907
145.915
145.92
145.924
145.926
145.928
145.927
145.878
145.884
145.895
145.905
145.913
145.92
145.924
145.928
145.93
145.929
145.875
145.883
145.895
145.905
145.914
145.921
145.926
145.93
145.932
145.932
145.876
145.886
145.897
145.908
145.916
145.922
145.927
145.931
145.934
145.935
145.881
145.892
145.903
145.912
145.919
145.924
145.929
145.933
145.936
145.938
145.888
145.9
145.909
145.917
145.923
145.928
145.932
145.935
145.938
145.94
145.896
145.907
145.915
145.922
145.928
145.932
145.935
145.938
145.941
145.944
145.903
145.915
145.922
145.928
145.932
145.936
145.939
145.941
145.943
145.948
145.909
145.922
145.928
145.933
145.937
145.94
145.942
145.944
145.946
145.954
145.922
145.936
145.938
145.94
145.942
145.943
145.944
145.944
145.944
145.953
144.994
144.969
144.98
144.993
145.006
145.017
145.026
145.032
145.037
145.029
145.014
144.991
144.993
145.001
145.011
145.019
145.027
145.032
145.035
145.029
145.014
145.002
145.005
145.012
145.02
145.027
145.033
145.037
145.04
145.037
145.024
145.018
145.021
145.027
145.033
145.038
145.042
145.044
145.045
145.043
145.039
145.038
145.04
145.043
145.047
145.05
145.051
145.051
145.051
145.049
145.059
145.059
145.059
145.059
145.06
145.06
145.059
145.058
145.057
145.055
145.08
145.081
145.078
145.075
145.072
145.071
145.069
145.066
145.063
145.061
145.102
145.102
145.098
145.093
145.088
145.083
145.079
145.075
145.07
145.067
145.122
145.123
145.117
145.11
145.103
145.096
145.09
145.084
145.078
145.075
145.155
145.152
145.139
145.128
145.118
145.108
145.099
145.091
145.083
145.079
144.206
144.151
144.135
144.126
144.125
144.129
144.135
144.14
144.143
144.133
144.239
144.183
144.157
144.142
144.134
144.133
144.134
144.135
144.137
144.131
144.243
144.199
144.173
144.158
144.15
144.146
144.144
144.143
144.143
144.14
144.257
144.219
144.195
144.18
144.171
144.165
144.16
144.156
144.153
144.149
144.274
144.244
144.221
144.204
144.194
144.186
144.178
144.171
144.165
144.16
144.296
144.271
144.249
144.23
144.216
144.206
144.196
144.186
144.178
144.171
144.321
144.301
144.28
144.259
144.242
144.227
144.215
144.203
144.192
144.181
144.347
144.33
144.311
144.289
144.269
144.251
144.235
144.221
144.207
144.192
144.372
144.357
144.338
144.317
144.295
144.275
144.256
144.239
144.223
144.201
144.403
144.381
144.361
144.339
144.318
144.297
144.278
144.261
144.248
144.224
143.265
143.251
143.239
143.229
143.226
143.229
143.234
143.238
143.238
143.239
143.268
143.253
143.239
143.229
143.224
143.224
143.227
143.23
143.233
143.24
143.269
143.254
143.239
143.228
143.222
143.222
143.224
143.227
143.232
143.239
143.272
143.256
143.241
143.229
143.223
143.223
143.225
143.228
143.233
143.239
143.273
143.258
143.243
143.231
143.225
143.225
143.227
143.23
143.235
143.241
143.273
143.26
143.248
143.237
143.23
143.228
143.229
143.233
143.238
143.243
143.276
143.264
143.254
143.245
143.238
143.235
143.235
143.238
143.242
143.244
143.281
143.27
143.262
143.255
143.249
143.246
143.245
143.246
143.249
143.246
143.29
143.275
143.27
143.265
143.261
143.258
143.257
143.257
143.259
143.247
143.293
143.271
143.272
143.272
143.273
143.273
143.275
143.278
143.287
143.275
142.131
142.151
142.152
142.155
142.161
142.172
142.183
142.194
142.2
142.224
142.076
142.099
142.109
142.12
142.132
142.147
142.163
142.178
142.194
142.222
142.051
142.067
142.078
142.09
142.104
142.121
142.14
142.159
142.178
142.205
142.031
142.039
142.049
142.062
142.077
142.096
142.118
142.141
142.164
142.191
142.014
142.015
142.023
142.036
142.052
142.073
142.098
142.124
142.151
142.179
142
141.994
142.001
142.014
142.032
142.055
142.082
142.11
142.139
142.168
141.991
141.978
141.983
141.996
142.015
142.04
142.068
142.098
142.129
142.158
141.985
141.966
141.969
141.982
142.002
142.027
142.056
142.087
142.119
142.146
141.989
141.959
141.96
141.974
141.994
142.02
142.049
142.08
142.112
142.132
141.971
141.937
141.947
141.964
141.989
142.018
142.051
142.085
142.124
142.143
140.961
140.988
140.99
140.994
140.998
141.005
141.013
141.022
141.03
141.064
140.893
140.916
140.922
140.93
140.941
140.956
140.974
140.992
141.012
141.048
140.852
140.861
140.865
140.874
140.889
140.908
140.93
140.954
140.978
141.012
140.814
140.812
140.813
140.823
140.839
140.861
140.888
140.916
140.946
140.981
140.78
140.768
140.766
140.775
140.794
140.819
140.848
140.881
140.915
140.951
140.751
140.73
140.725
140.734
140.754
140.781
140.814
140.85
140.887
140.924
140.725
140.698
140.691
140.699
140.719
140.748
140.782
140.82
140.86
140.897
140.698
140.67
140.662
140.67
140.69
140.719
140.754
140.794
140.835
140.869
140.678
140.647
140.639
140.647
140.666
140.695
140.731
140.771
140.812
140.839
140.643
140.615
140.613
140.622
140.646
140.68
140.721
140.765
140.813
140.84
139.667
139.7
139.713
139.725
139.731
139.737
139.744
139.753
139.762
139.794
139.601
139.627
139.64
139.652
139.664
139.677
139.692
139.709
139.729
139.761
139.553
139.567
139.577
139.589
139.604
139.621
139.642
139.664
139.687
139.716
139.507
139.514
139.521
139.534
139.552
139.573
139.598
139.624
139.649
139.676
139.465
139.467
139.474
139.488
139.507
139.531
139.559
139.586
139.612
139.638
139.429
139.43
139.437
139.451
139.473
139.498
139.526
139.554
139.58
139.604
139.398
139.401
139.41
139.426
139.448
139.473
139.5
139.527
139.553
139.573
139.375
139.382
139.393
139.41
139.432
139.457
139.482
139.508
139.531
139.547
139.362
139.373
139.385
139.402
139.424
139.448
139.472
139.496
139.517
139.525
139.362
139.37
139.382
139.398
139.421
139.447
139.475
139.5
139.525
139.53
138.135
138.179
138.232
138.272
138.295
138.307
138.314
138.321
138.327
138.344
138.09
138.126
138.172
138.209
138.235
138.254
138.268
138.282
138.296
138.313
138.047
138.081
138.122
138.156
138.182
138.204
138.223
138.243
138.26
138.278
138.015
138.049
138.085
138.115
138.141
138.164
138.187
138.208
138.226
138.244
138
138.033
138.063
138.089
138.112
138.136
138.159
138.179
138.196
138.211
138.002
138.032
138.055
138.077
138.098
138.12
138.14
138.157
138.17
138.182
138.017
138.043
138.062
138.079
138.097
138.114
138.129
138.142
138.152
138.159
138.041
138.063
138.079
138.092
138.105
138.117
138.128
138.136
138.142
138.145
138.068
138.088
138.1
138.11
138.12
138.128
138.135
138.139
138.14
138.14
138.105
138.118
138.123
138.13
138.137
138.144
138.148
138.148
138.143
138.138
136.488
136.467
136.515
136.568
136.61
136.637
136.655
136.667
136.683
136.683
136.506
136.486
136.519
136.561
136.597
136.623
136.639
136.652
136.662
136.656
136.51
136.504
136.533
136.567
136.596
136.618
136.633
136.647
136.658
136.66
136.535
136.537
136.558
136.582
136.604
136.621
136.634
136.646
136.656
136.663
136.575
136.58
136.593
136.606
136.62
136.632
136.641
136.648
136.655
136.664
136.623
136.627
136.632
136.636
136.641
136.647
136.651
136.653
136.657
136.665
136.67
136.672
136.67
136.668
136.666
136.665
136.664
136.661
136.661
136.669
136.713
136.711
136.706
136.699
136.693
136.686
136.68
136.672
136.668
136.677
136.745
136.743
136.736
136.728
136.719
136.709
136.699
136.687
136.679
136.697
136.781
136.778
136.766
136.756
136.745
136.733
136.716
136.696
136.675
136.691
134.907
134.806
134.77
134.752
134.745
134.746
134.753
134.764
134.787
134.775
134.952
134.855
134.806
134.777
134.759
134.749
134.744
134.743
134.748
134.729
134.964
134.888
134.841
134.81
134.788
134.771
134.759
134.752
134.752
134.744
134.987
134.926
134.883
134.849
134.824
134.802
134.784
134.772
134.768
134.766
135.015
134.967
134.926
134.892
134.863
134.837
134.814
134.796
134.789
134.79
135.045
135.006
134.968
134.932
134.9
134.87
134.844
134.823
134.813
134.817
135.072
135.038
135.001
134.965
134.932
134.9
134.873
134.851
134.838
134.846
135.093
135.061
135.027
134.992
134.959
134.928
134.9
134.877
134.863
134.874
135.104
135.078
135.047
135.015
134.983
134.953
134.926
134.903
134.889
134.909
135.123
135.103
135.071
135.041
135.009
134.977
134.945
134.916
134.889
134.908
133.268
133.194
133.144
133.098
133.061
133.033
133.01
132.986
132.963
132.922
133.29
133.212
133.15
133.093
133.044
133.003
132.969
132.941
132.915
132.878
133.287
133.213
133.149
133.089
133.035
132.988
132.95
132.918
132.892
132.863
133.282
133.213
133.15
133.09
133.035
132.987
132.945
132.911
132.884
132.859
133.274
133.213
133.153
133.095
133.043
132.995
132.95
132.914
132.888
132.869
133.268
133.214
133.159
133.104
133.053
133.004
132.96
132.924
132.9
132.887
133.26
133.212
133.161
133.11
133.06
133.013
132.972
132.939
132.917
132.909
133.249
133.206
133.159
133.111
133.066
133.023
132.986
132.956
132.936
132.932
133.232
133.199
133.155
133.113
133.072
133.034
133.001
132.975
132.956
132.959
133.23
133.204
133.162
133.122
133.083
133.046
133.013
132.986
132.964
132.97
131.215
131.187
131.143
131.096
131.047
130.994
130.937
130.875
130.815
130.803
131.221
131.187
131.142
131.093
131.042
130.988
130.931
130.874
130.825
130.809
131.227
131.186
131.139
131.088
131.036
130.982
130.925
130.871
130.826
130.801
131.219
131.176
131.128
131.078
131.027
130.975
130.922
130.873
130.832
130.803
131.201
131.158
131.112
131.065
131.017
130.969
130.921
130.877
130.841
130.814
131.176
131.137
131.096
131.053
131.008
130.965
130.922
130.883
130.851
130.828
131.147
131.114
131.077
131.039
131
130.96
130.922
130.888
130.86
130.841
131.115
131.088
131.055
131.021
130.987
130.953
130.92
130.891
130.867
130.852
131.079
131.06
131.031
131.001
130.972
130.943
130.916
130.893
130.874
130.861
131.061
131.046
131.014
130.986
130.958
130.933
130.911
130.894
130.882
130.878
128.96
128.952
128.897
128.855
128.822
128.796
128.775
128.759
128.753
128.824
128.939
128.932
128.902
128.879
128.86
128.842
128.824
128.811
128.81
128.859
128.969
128.955
128.938
128.927
128.914
128.893
128.868
128.847
128.836
128.854
128.979
128.968
128.964
128.964
128.957
128.935
128.903
128.874
128.855
128.855
128.966
128.961
128.971
128.988
128.987
128.962
128.925
128.889
128.862
128.85
128.934
128.938
128.964
128.997
129.003
128.974
128.929
128.887
128.857
128.84
128.888
128.901
128.937
128.979
128.988
128.958
128.911
128.869
128.84
128.822
128.837
128.853
128.886
128.923
128.933
128.909
128.87
128.836
128.814
128.799
128.792
128.802
128.821
128.844
128.851
128.837
128.815
128.797
128.787
128.774
128.765
128.763
128.767
128.775
128.778
128.774
128.77
128.771
128.784
128.783
126.395
126.507
126.56
126.62
126.664
126.688
126.692
126.686
126.678
126.752
126.409
126.547
126.672
126.794
126.874
126.898
126.874
126.828
126.784
126.81
126.529
126.712
126.926
127.125
127.23
127.222
127.131
127.002
126.883
126.831
126.66
126.928
127.26
127.544
127.661
127.603
127.423
127.194
126.986
126.86
126.773
127.132
127.567
127.894
127.999
127.899
127.653
127.344
127.062
126.876
126.834
127.251
127.72
128.032
128.11
127.989
127.726
127.393
127.082
126.869
126.823
127.237
127.674
127.942
127.995
127.876
127.635
127.328
127.037
126.835
126.746
127.098
127.469
127.692
127.734
127.634
127.435
127.182
126.946
126.784
126.651
126.898
127.176
127.356
127.396