/*--------------------------------*- C++ -*----------------------------------*\
| =========                 |                                                 |
| \\      /  F ield         | OpenFOAM: The Open Source CFD Toolbox           |
|  \\    /   O peration     | Version:  2406                                  |
|   \\  /    A nd           | Website:  www.openfoam.com                      |
|    \\/     M anipulation  |                                                 |
\*---------------------------------------------------------------------------*/
FoamFile
{
    version     2.0;
    format      ascii;
    arch        "LSB;label=32;scalar=64";
    class       surfaceScalarField;
    location    "0.5";
    object      phi;
}
// * * * * * * * * * * * * * * * * * * * * * * * * * * * * * * * * * * * * * //

dimensions      [0 3 -1 0 0 0 0];

oriented        oriented;

internalField   nonuniform List<scalar> 
73500
(
4.68802e-05
4.68018e-05
5.69265e-05
-5.19239e-05
-5.18684e-05
3.80558e-05
4.74959e-05
6.48233e-05
-5.27336e-05
2.68194e-05
4.78546e-05
7.06074e-05
-5.34677e-05
1.39431e-05
4.79772e-05
7.44386e-05
-5.37493e-05
2.65872e-07
4.80052e-05
7.63554e-05
-5.38628e-05
-1.3423e-05
4.79746e-05
7.63745e-05
-5.38328e-05
-2.63259e-05
4.78924e-05
7.44952e-05
-5.36676e-05
-3.76036e-05
4.77189e-05
7.07017e-05
-5.33429e-05
-4.6521e-05
4.72986e-05
6.49547e-05
-5.25376e-05
4.65563e-05
5.70881e-05
-5.16062e-05
-5.16598e-05
4.75764e-05
3.79232e-05
6.48293e-05
-5.27567e-05
3.83997e-05
3.82595e-05
7.28419e-05
2.68481e-05
3.83395e-05
7.82789e-05
1.38738e-05
3.83155e-05
8.17285e-05
2.30386e-07
3.82759e-05
8.34184e-05
-1.3421e-05
3.82515e-05
8.3433e-05
-2.64262e-05
3.82413e-05
8.17713e-05
-3.80373e-05
3.82208e-05
7.83494e-05
-4.73083e-05
3.81022e-05
7.2941e-05
3.7709e-05
6.49556e-05
-5.25617e-05
4.79563e-05
2.66414e-05
7.06128e-05
-5.35013e-05
3.85023e-05
2.66593e-05
7.82791e-05
2.67775e-05
2.65665e-05
8.3331e-05
1.37767e-05
2.64634e-05
8.64561e-05
1.99376e-07
2.63949e-05
8.79612e-05
-1.33895e-05
2.63756e-05
8.79731e-05
-2.64219e-05
2.64094e-05
8.64911e-05
-3.82013e-05
2.64802e-05
8.33881e-05
-4.77359e-05
2.65336e-05
7.83572e-05
2.64493e-05
7.07077e-05
-5.33228e-05
4.8101e-05
1.37267e-05
7.44365e-05
-5.37989e-05
3.85005e-05
1.36487e-05
8.17243e-05
2.66946e-05
1.35345e-05
8.6453e-05
1.36974e-05
1.3439e-05
8.93281e-05
1.79488e-07
1.33839e-05
9.0694e-05
-1.33465e-05
1.33741e-05
9.07042e-05
-2.63751e-05
1.34061e-05
8.93583e-05
-3.8237e-05
1.34761e-05
8.65023e-05
-4.79085e-05
1.35586e-05
8.17901e-05
1.35724e-05
7.45108e-05
-5.36526e-05
4.81518e-05
2.43459e-08
7.63411e-05
-5.3934e-05
3.8483e-05
-1.43901e-08
8.34063e-05
2.66422e-05
-6.15406e-08
8.79521e-05
1.36535e-05
-9.12359e-08
9.06889e-05
1.72815e-07
-1.03878e-07
9.19793e-05
-1.33186e-05
-1.0784e-07
9.19887e-05
-2.63387e-05
-1.04465e-07
9.07168e-05
-3.82319e-05
-9.13454e-08
8.79974e-05
-4.79721e-05
-7.47614e-08
8.34657e-05
-8.7894e-08
7.64045e-05
-5.3802e-05
4.81462e-05
-1.36725e-05
7.63443e-05
-5.39272e-05
3.84775e-05
-1.36731e-05
8.34097e-05
2.6639e-05
-1.36517e-05
8.79555e-05
1.36518e-05
-1.36167e-05
9.06924e-05
1.71494e-07
-1.35888e-05
9.1983e-05
-1.3318e-05
-1.35858e-05
9.19923e-05
-2.63365e-05
-1.36128e-05
9.072e-05
-3.82285e-05
-1.36593e-05
8.8e-05
-4.79668e-05
-1.37061e-05
8.34672e-05
-1.37417e-05
7.64043e-05
-5.37987e-05
4.8085e-05
-2.6571e-05
7.44477e-05
-5.37799e-05
3.84873e-05
-2.66664e-05
8.17359e-05
2.66846e-05
-2.6669e-05
8.64645e-05
1.36909e-05
-2.66269e-05
8.93395e-05
1.76725e-07
-2.65864e-05
9.07055e-05
-1.33477e-05
-2.65792e-05
9.07152e-05
-2.63729e-05
-2.66117e-05
8.93682e-05
-3.82276e-05
-2.66599e-05
8.65102e-05
-4.7895e-05
-2.66766e-05
8.17946e-05
-2.6599e-05
7.45098e-05
-5.36481e-05
4.79307e-05
-3.78378e-05
7.06369e-05
-5.34646e-05
3.84814e-05
-3.82451e-05
7.83018e-05
2.67616e-05
-3.84157e-05
8.33522e-05
1.3764e-05
-3.8451e-05
8.64759e-05
1.87922e-07
-3.84425e-05
8.79798e-05
-1.33993e-05
-3.84348e-05
8.79902e-05
-2.64262e-05
-3.84304e-05
8.6506e-05
-3.81952e-05
-3.83974e-05
8.33996e-05
-4.77159e-05
-3.82408e-05
7.8363e-05
-3.78199e-05
7.07042e-05
-5.33215e-05
4.75266e-05
-4.67069e-05
6.48717e-05
-5.26852e-05
3.83607e-05
-4.74588e-05
7.28783e-05
2.68154e-05
-4.78976e-05
7.83095e-05
1.3844e-05
-4.80729e-05
8.17541e-05
2.01881e-07
-4.81322e-05
8.34402e-05
-1.34486e-05
-4.81239e-05
8.34512e-05
-2.64484e-05
-4.80549e-05
8.17857e-05
-3.80409e-05
-4.78821e-05
7.8359e-05
-4.72712e-05
-4.74488e-05
7.29431e-05
-4.66507e-05
6.49459e-05
-5.25085e-05
4.67434e-05
5.69881e-05
-5.18003e-05
-5.17078e-05
3.79489e-05
6.48732e-05
-5.26591e-05
2.67382e-05
7.0643e-05
-5.34503e-05
1.388e-05
7.44616e-05
-5.377e-05
2.17945e-07
7.63687e-05
-5.39109e-05
-1.34566e-05
7.63805e-05
-5.39034e-05
-2.63481e-05
7.44954e-05
-5.37538e-05
-3.76154e-05
7.06963e-05
-5.34316e-05
-4.64819e-05
6.49424e-05
-5.2647e-05
5.70669e-05
-5.15755e-05
-5.16641e-05
1.8126e-05
1.74146e-05
5.55891e-05
-1.74167e-05
-1.6848e-05
1.64341e-05
1.94502e-05
6.55645e-05
-1.85651e-05
1.27158e-05
2.0749e-05
7.33209e-05
-1.98152e-05
7.59985e-06
2.1585e-05
7.86203e-05
-2.07234e-05
1.70961e-06
2.19616e-05
8.13503e-05
-2.11413e-05
-4.26128e-06
2.19053e-05
8.14715e-05
-2.11088e-05
-9.6137e-06
2.1429e-05
7.89831e-05
-2.06438e-05
-1.37185e-05
2.05195e-05
7.39201e-05
-1.97125e-05
-1.59509e-05
1.91864e-05
6.63782e-05
-1.84558e-05
1.71888e-05
5.65703e-05
-1.58541e-05
-1.68276e-05
2.00533e-05
1.55097e-05
6.5596e-05
-1.89764e-05
1.81418e-05
1.73365e-05
7.68054e-05
1.38621e-05
1.84275e-05
8.48138e-05
8.02669e-06
1.90763e-05
9.00029e-05
1.38802e-06
1.93551e-05
9.25923e-05
-5.30972e-06
1.92882e-05
9.26765e-05
-1.13246e-05
1.88838e-05
9.0259e-05
-1.59126e-05
1.81345e-05
8.525e-05
-1.82725e-05
1.69877e-05
7.74309e-05
1.51601e-05
6.64075e-05
-1.77486e-05
2.13206e-05
1.1569e-05
7.33505e-05
-2.01865e-05
1.91928e-05
1.28666e-05
8.48103e-05
1.45407e-05
1.36108e-05
9.27277e-05
8.24982e-06
1.40261e-05
9.77209e-05
1.13399e-06
1.41926e-05
0.000100162
-6.02776e-06
1.41249e-05
0.000100222
-1.24604e-05
1.38279e-05
9.79037e-05
-1.73597e-05
1.33002e-05
9.30477e-05
-1.98473e-05
1.24761e-05
8.52853e-05
1.11266e-05
7.39867e-05
-1.91484e-05
2.21672e-05
6.26175e-06
7.86034e-05
-2.11019e-05
1.98443e-05
6.87739e-06
8.99658e-05
1.49407e-05
7.19608e-06
9.76938e-05
8.36602e-06
7.34993e-06
0.000102497
9.5977e-07
7.39275e-06
0.000104818
-6.48415e-06
7.33063e-06
0.000104862
-1.31757e-05
7.16461e-06
0.000102634
-1.82835e-05
6.89558e-06
9.79381e-05
-2.09033e-05
6.47887e-06
9.0335e-05
5.77793e-06
7.91018e-05
-2.02025e-05
2.25784e-05
2.4133e-07
8.1248e-05
-2.1547e-05
2.0153e-05
1.38001e-07
9.24962e-05
1.5125e-05
4.37564e-09
0.000100091
8.40976e-06
-1.12061e-07
0.000104781
8.58754e-07
-1.9629e-07
0.000107034
-6.72566e-06
-2.49584e-07
0.000107071
-1.35441e-05
-2.74362e-07
0.000104893
-1.87519e-05
-2.69839e-07
0.000100293
-2.1437e-05
-2.44898e-07
9.28022e-05
-2.44006e-07
8.16598e-05
-2.0728e-05
2.25755e-05
-5.77135e-06
8.12524e-05
-2.15556e-05
2.01387e-05
-6.59176e-06
9.25e-05
1.51006e-05
-7.17733e-06
0.000100092
8.3776e-06
-7.5612e-06
0.000104778
8.20116e-07
-7.77067e-06
0.000107029
-6.76889e-06
-7.81406e-06
0.000107063
-1.35891e-05
-7.69658e-06
0.000104882
-1.87953e-05
-7.41813e-06
0.000100277
-2.14768e-05
-6.94967e-06
9.27803e-05
-6.23865e-06
8.16278e-05
-2.07622e-05
2.21639e-05
-1.10658e-05
7.86239e-05
-2.11347e-05
1.98047e-05
-1.25582e-05
8.99834e-05
1.48704e-05
-1.35619e-05
9.77013e-05
8.2686e-06
-1.41997e-05
0.000102494
8.39874e-07
-1.45256e-05
0.000104806
-6.62035e-06
-1.45595e-05
0.000104841
-1.33196e-05
-1.43108e-05
0.000102602
-1.84233e-05
-1.37729e-05
9.78924e-05
-2.1029e-05
-1.28886e-05
9.02693e-05
-1.15063e-05
7.90058e-05
-2.03139e-05
2.13271e-05
-1.50088e-05
7.34074e-05
-2.0242e-05
1.91403e-05
-1.70042e-05
8.48583e-05
1.44299e-05
-1.83364e-05
9.27566e-05
8.08396e-06
-1.91877e-05
9.77294e-05
9.20062e-07
-1.96124e-05
0.000100152
-6.27854e-06
-1.96409e-05
0.000100193
-1.27287e-05
-1.92832e-05
9.78542e-05
-1.76196e-05
-1.85266e-05
9.29728e-05
-2.00754e-05
-1.73162e-05
8.51756e-05
-1.541e-05
7.38273e-05
-1.93476e-05
2.00655e-05
-1.69594e-05
6.57147e-05
-1.9042e-05
1.80782e-05
-1.91206e-05
7.69079e-05
1.37111e-05
-2.06208e-05
8.48873e-05
7.78295e-06
-2.16234e-05
9.00436e-05
1.06017e-06
-2.21213e-05
9.25996e-05
-5.70245e-06
-2.21469e-05
9.26499e-05
-1.17509e-05
-2.1714e-05
9.01962e-05
-1.6327e-05
-2.0806e-05
8.51456e-05
-1.86099e-05
-1.94289e-05
7.72759e-05
-1.73247e-05
6.61889e-05
-1.79862e-05
1.80714e-05
5.57808e-05
-1.6555e-05
-1.7334e-05
1.63193e-05
6.57432e-05
-1.82936e-05
1.25018e-05
7.34646e-05
-1.96826e-05
7.26327e-06
7.87154e-05
-2.06964e-05
1.25748e-06
8.1391e-05
-2.11946e-05
-4.80279e-06
8.14547e-05
-2.12167e-05
-1.0203e-05
7.89063e-05
-2.07793e-05
-1.43003e-05
7.378e-05
-1.98437e-05
-1.64247e-05
6.6173e-05
-1.85824e-05
5.63024e-05
-1.6204e-05
-1.68136e-05
1.11351e-05
7.99447e-06
5.3792e-05
-9.92656e-06
-7.57112e-06
1.07712e-05
9.97217e-06
6.49566e-05
-9.15518e-06
9.2365e-06
1.13177e-05
7.38097e-05
-1.04263e-05
6.76651e-06
1.21929e-05
8.00447e-05
-1.12933e-05
3.71507e-06
1.26305e-05
8.33785e-05
-1.17382e-05
5.03796e-07
1.26609e-05
8.36783e-05
-1.17734e-05
-2.43142e-06
1.2317e-05
8.09354e-05
-1.14387e-05
-4.74526e-06
1.16086e-05
7.526e-05
-1.07282e-05
-6.18023e-06
1.05728e-05
6.68927e-05
-9.73996e-06
9.07101e-06
5.60887e-05
-6.31575e-06
-8.5182e-06
1.24334e-05
7.01775e-06
6.49805e-05
-1.09842e-05
1.19184e-05
8.95869e-06
7.82121e-05
9.87786e-06
1.01644e-05
8.78908e-05
6.72805e-06
1.08925e-05
9.43455e-05
2.95428e-06
1.12389e-05
9.76614e-05
-9.31338e-07
1.12579e-05
9.78799e-05
-4.42133e-06
1.09795e-05
9.50086e-05
-7.05278e-06
1.04005e-05
8.90157e-05
-8.41376e-06
9.49366e-06
7.98049e-05
8.05964e-06
6.7012e-05
-8.05705e-06
1.3344e-05
4.98528e-06
7.37826e-05
-1.18717e-05
1.26556e-05
6.51033e-06
8.78391e-05
1.02486e-05
7.39897e-06
9.77972e-05
6.63532e-06
7.89436e-06
0.000104236
2.38535e-06
8.11367e-06
0.000107453
-1.94383e-06
8.12407e-06
0.000107609
-5.81203e-06
7.95454e-06
0.000104727
-8.68395e-06
7.58454e-06
9.86705e-05
-1.0062e-05
6.95438e-06
8.91394e-05
5.88719e-06
7.55145e-05
-9.46556e-06
1.40074e-05
2.17978e-06
7.98567e-05
-1.25681e-05
1.31496e-05
3.07089e-06
9.41693e-05
1.0476e-05
3.54061e-06
0.000104135
6.55952e-06
3.77396e-06
0.000110449
2.02113e-06
3.86529e-06
0.000113529
-2.57271e-06
3.87404e-06
0.000113639
-6.6885e-06
3.82222e-06
0.00011082
-9.7471e-06
3.68586e-06
0.000104834
-1.11892e-05
3.41785e-06
9.52558e-05
2.89888e-06
8.13429e-05
-1.04887e-05
1.43682e-05
-1.03329e-06
8.29243e-05
-1.29317e-05
1.34171e-05
-8.60473e-07
9.72956e-05
1.05977e-05
-8.43886e-07
0.000107214
6.51847e-06
-8.65698e-07
0.000113423
1.83799e-06
-8.76425e-07
0.000116388
-2.88336e-06
-8.61934e-07
0.000116466
-7.13374e-06
-8.1543e-07
0.000113723
-1.03009e-05
-7.27556e-07
0.000107817
-1.17895e-05
-6.05489e-07
9.82588e-05
-4.97774e-07
8.42617e-05
-1.10397e-05
1.44197e-05
-4.18847e-06
8.28649e-05
-1.2968e-05
1.34668e-05
-4.74294e-06
9.72603e-05
1.06326e-05
-5.18254e-06
0.000107192
6.52812e-06
-5.46175e-06
0.000113409
1.8154e-06
-5.57847e-06
0.00011638
-2.938e-06
-5.55952e-06
0.000116456
-7.21239e-06
-5.41214e-06
0.000113698
-1.03916e-05
-5.09777e-06
0.000107773
-1.18794e-05
-4.58138e-06
9.81906e-05
-3.83737e-06
8.41622e-05
-1.11171e-05
1.41534e-05
-6.82528e-06
7.96937e-05
-1.26691e-05
1.32891e-05
-8.03672e-06
9.40733e-05
1.05676e-05
-8.89944e-06
0.000104072
6.5722e-06
-9.44006e-06
0.000110404
1.9381e-06
-9.68572e-06
0.000113489
-2.75045e-06
-9.67168e-06
0.000113587
-6.93891e-06
-9.40937e-06
0.000110735
-1.00334e-05
-8.86312e-06
0.0001047
-1.14711e-05
-7.97913e-06
9.50539e-05
-6.66054e-06
8.10507e-05
-1.07348e-05
1.35544e-05
-8.5894e-06
7.3556e-05
-1.20132e-05
1.28539e-05
-1.02509e-05
8.77103e-05
1.03604e-05
-1.14274e-05
9.77163e-05
6.60813e-06
-1.21882e-05
0.000104171
2.1937e-06
-1.2556e-05
0.000107382
-2.29443e-06
-1.25558e-05
0.000107512
-6.28293e-06
-1.21974e-05
0.00010458
-9.21006e-06
-1.14619e-05
9.84479e-05
-1.05658e-05
-1.0311e-05
8.88119e-05
-8.58861e-06
7.50482e-05
-9.89775e-06
1.26223e-05
-9.2304e-06
6.47452e-05
-1.10771e-05
1.20991e-05
-1.09668e-05
7.80911e-05
9.9371e-06
-1.22644e-05
8.78316e-05
6.58565e-06
-1.31491e-05
9.43029e-05
2.57514e-06
-1.35976e-05
9.76008e-05
-1.53442e-06
-1.3615e-05
9.77704e-05
-5.19102e-06
-1.32138e-05
9.48202e-05
-7.88649e-06
-1.23886e-05
8.8718e-05
-9.1731e-06
-1.11625e-05
7.93671e-05
-9.37527e-06
6.64067e-05
-8.64024e-06
1.11344e-05
5.35827e-05
-8.44818e-06
-9.76693e-06
1.07887e-05
6.48765e-05
-9.79504e-06
9.1261e-06
7.38192e-05
-1.09984e-05
6.41602e-06
8.00806e-05
-1.18454e-05
3.07351e-06
8.33832e-05
-1.22873e-05
-4.12394e-07
8.36023e-05
-1.23166e-05
-3.54729e-06
8.07362e-05
-1.19487e-05
-5.93354e-06
7.49044e-05
-1.11655e-05
-7.24073e-06
6.63625e-05
-1.00813e-05
5.53934e-05
-7.13767e-06
-8.59487e-06
5.31094e-06
-2.74624e-06
5.3086e-05
-3.9529e-06
2.17437e-06
6.12326e-06
-1.03824e-06
6.41679e-05
1.08565e-06
6.53242e-06
3.08916e-07
7.31451e-05
1.30797e-08
6.51334e-06
1.25796e-06
7.9615e-05
-7.53593e-07
6.14048e-06
1.85702e-06
8.32122e-05
-1.27772e-06
5.50171e-06
2.14521e-06
8.37341e-05
-1.53395e-06
4.69851e-06
2.18246e-06
8.1155e-05
-1.58201e-06
3.78936e-06
1.99933e-06
7.56178e-05
-1.43602e-06
2.83599e-06
1.64895e-06
6.74059e-05
-1.19662e-06
1.06258e-06
5.68235e-05
1.88977e-06
-8.4287e-07
5.39971e-06
-3.22306e-06
6.4036e-05
-3.90784e-06
6.20853e-06
-1.17938e-06
7.76014e-05
6.37995e-06
2.51753e-07
8.78255e-05
5.9973e-06
1.19784e-06
9.48285e-05
5.22731e-06
1.76e-06
9.85584e-05
4.25329e-06
2.03778e-06
9.89803e-05
3.25025e-06
2.10704e-06
9.61016e-05
2.36011e-06
1.96488e-06
8.99511e-05
1.68276e-06
1.6053e-06
8.05322e-05
9.24925e-07
6.76332e-05
1.2053e-06
5.49236e-06
-3.71797e-06
7.2754e-05
-3.91281e-06
6.28383e-06
-1.66681e-06
8.75793e-05
6.25806e-06
-3.24471e-07
9.84396e-05
5.57287e-06
5.00545e-07
0.00010565
4.48826e-06
9.60689e-07
0.000109358
3.2498e-06
1.21255e-06
0.000109689
2.06022e-06
1.34464e-06
0.000106688
1.12928e-06
1.30997e-06
0.000100261
6.07537e-07
1.05786e-06
9.02157e-05
4.67508e-07
7.61274e-05
4.5513e-07
5.65877e-06
-4.18384e-06
7.87872e-05
-4.07944e-06
6.38238e-06
-2.41064e-06
9.42237e-05
6.18232e-06
-1.30518e-06
0.000105342
5.27297e-06
-6.55998e-07
0.000112537
3.98627e-06
-2.99582e-07
0.000116091
2.58307e-06
-7.07792e-08
0.000116332
1.25122e-06
1.21779e-07
0.000113379
2.50873e-07
2.12148e-07
0.000106936
-2.10405e-07
1.35574e-07
9.66392e-05
-2.1912e-07
8.19742e-05
-1.53247e-07
5.77297e-06
-4.60793e-06
8.17667e-05
-4.16196e-06
6.45796e-06
-3.26557e-06
9.74861e-05
6.15213e-06
-2.46533e-06
0.000108699
5.10873e-06
-1.99489e-06
0.000115817
3.72014e-06
-1.69763e-06
0.000119181
2.24973e-06
-1.46914e-06
0.000119338
8.26506e-07
-1.26273e-06
0.00011653
-2.41129e-07
-1.07756e-06
0.000110171
-6.87106e-07
-9.56035e-07
9.97965e-05
-1.00569e-06
8.488e-05
-5.2045e-07
5.79739e-06
-4.86832e-06
8.15061e-05
-4.15695e-06
6.5027e-06
-4.0211e-06
9.7325e-05
6.19154e-06
-3.55879e-06
0.000108605
5.1186e-06
-3.27712e-06
0.00011577
3.68088e-06
-3.04619e-06
0.000119168
2.15726e-06
-2.82756e-06
0.000119335
7.0167e-07
-2.60749e-06
0.000116495
-3.7249e-07
-2.32746e-06
0.000110093
-8.05792e-07
-2.00783e-06
9.96698e-05
-1.73927e-06
8.46942e-05
-6.06957e-07
5.68516e-06
-4.8498e-06
7.80182e-05
-4.01667e-06
6.47106e-06
-4.46664e-06
9.37384e-05
6.26384e-06
-4.32126e-06
0.000105046
5.27232e-06
-4.24417e-06
0.000112362
3.85224e-06
-4.12575e-06
0.000115985
2.31232e-06
-3.94188e-06
0.000116237
8.87501e-07
-3.68251e-06
0.000113228
-1.3941e-07
-3.29644e-06
0.000106687
-5.57823e-07
-2.79953e-06
9.62587e-05
-2.26964e-06
8.14275e-05
-4.09017e-07
5.39735e-06
-4.48158e-06
7.15129e-05
-3.71584e-06
6.29916e-06
-4.42255e-06
8.67661e-05
6.27466e-06
-4.50016e-06
9.79181e-05
5.47762e-06
-4.58931e-06
0.00010531
4.20598e-06
-4.58599e-06
0.000109108
2.77117e-06
-4.45075e-06
0.000109448
1.4475e-06
-4.16806e-06
0.00010638
4.8844e-07
-3.71846e-06
9.98216e-05
5.05606e-08
-3.14191e-06
8.9584e-05
-2.47688e-06
7.52515e-05
4.95107e-08
4.89766e-06
-3.75326e-06
6.23817e-05
-3.26089e-06
5.90593e-06
-3.79079e-06
7.645e-05
6.12922e-06
-3.94789e-06
8.70518e-05
5.65265e-06
-4.11839e-06
9.43028e-05
4.69062e-06
-4.18819e-06
9.81574e-05
3.51192e-06
-4.10312e-06
9.8593e-05
2.37547e-06
-3.84978e-06
9.56303e-05
1.48759e-06
-3.43325e-06
8.93118e-05
9.8545e-07
-2.9372e-06
7.96583e-05
-2.34495e-06
6.64832e-05
7.72745e-07
4.02954e-06
5.10687e-05
-2.68702e-06
-2.58115e-06
5.10401e-06
6.26275e-05
-2.61791e-06
5.67647e-06
7.20602e-05
-2.76479e-06
5.69092e-06
7.88649e-05
-2.9224e-06
5.23587e-06
8.26428e-05
-2.9991e-06
4.48697e-06
8.31927e-05
-2.95134e-06
3.63651e-06
8.05088e-05
-2.77846e-06
2.80628e-06
7.47655e-05
-2.46942e-06
2.11684e-06
6.62918e-05
-2.18076e-06
5.54666e-05
1.48269e-06
-1.78648e-06
6.25754e-06
-6.71426e-06
5.35933e-05
-4.76395e-06
4.66489e-06
7.10772e-06
-5.21851e-06
6.47039e-05
3.79263e-06
7.6605e-06
-3.84014e-06
7.36747e-05
2.7219e-06
7.85186e-06
-2.75489e-06
8.02156e-05
1.93184e-06
7.71514e-06
-1.94885e-06
8.39742e-05
1.30415e-06
7.22576e-06
-1.43329e-06
8.47335e-05
9.16385e-07
6.37123e-06
-1.17011e-06
8.24542e-05
7.28474e-07
5.15152e-06
-1.15845e-06
7.72603e-05
7.46103e-07
3.63766e-06
-1.41766e-06
6.93835e-05
9.69173e-07
-2.05892e-06
5.8966e-05
2.11127e-06
1.45412e-06
5.763e-06
-8.24121e-06
6.42377e-05
-4.46901e-06
6.52137e-06
-6.28525e-06
7.78893e-05
6.96464e-06
-4.6829e-06
8.8207e-05
7.09015e-06
-3.44943e-06
9.53885e-05
6.93011e-06
-2.57249e-06
9.93406e-05
6.49533e-06
-2.00735e-06
9.99932e-05
5.773e-06
-1.68682e-06
9.73531e-05
4.74765e-06
-1.63086e-06
9.14651e-05
3.44185e-06
-1.89663e-06
8.2332e-05
-2.64657e-06
6.96153e-05
2.06062e-06
5.26756e-06
-9.2886e-06
7.25325e-05
-4.02142e-06
6.01394e-06
-7.04127e-06
8.75746e-05
6.38263e-06
-5.29862e-06
9.86806e-05
6.40784e-06
-4.0169e-06
0.000106189
6.17327e-06
-3.14282e-06
0.000110166
5.73318e-06
-2.5756e-06
0.000110708
5.06589e-06
-2.21291e-06
0.000107894
4.16556e-06
-2.10747e-06
0.000101655
3.05388e-06
-2.36297e-06
9.18138e-05
-3.17376e-06
7.78545e-05
1.86788e-06
4.96106e-06
-9.81339e-06
7.81632e-05
-3.82351e-06
5.6663e-06
-7.50519e-06
9.3978e-05
5.96292e-06
-5.75366e-06
0.000105497
5.89619e-06
-4.49378e-06
0.000113083
5.5943e-06
-3.64979e-06
0.000116907
5.14417e-06
-3.09445e-06
0.00011731
4.49346e-06
-2.70716e-06
0.00011454
3.65343e-06
-2.56912e-06
0.000108257
2.66441e-06
-2.81132e-06
9.80935e-05
-3.62513e-06
8.34724e-05
1.63301e-06
4.71131e-06
-9.93572e-06
8.07692e-05
-3.59809e-06
5.41327e-06
-7.72969e-06
9.70057e-05
5.6872e-06
-6.06576e-06
0.00010874
5.57169e-06
-4.86749e-06
0.000116312
5.23148e-06
-4.03952e-06
0.000119919
4.78979e-06
-3.47329e-06
0.000120172
4.14076e-06
-3.10497e-06
0.000117592
3.32487e-06
-2.98132e-06
0.000111416
2.41351e-06
-3.21646e-06
0.000101133
-4.00376e-06
8.61912e-05
1.49536e-06
4.47445e-06
-9.6892e-06
8.01467e-05
-3.36384e-06
5.22042e-06
-7.71188e-06
9.65635e-05
5.5394e-06
-6.21507e-06
0.000108439
5.44828e-06
-5.12034e-06
0.000116122
5.10206e-06
-4.33441e-06
0.00011982
4.63656e-06
-3.78211e-06
0.000120121
3.99418e-06
-3.44221e-06
0.00011749
3.21958e-06
-3.33623e-06
0.000111242
2.36957e-06
-3.5597e-06
0.00010088
-4.292e-06
8.58492e-05
1.51732e-06
4.17571e-06
-9.11053e-06
7.63033e-05
-3.03835e-06
5.01541e-06
-7.43807e-06
9.26277e-05
5.45829e-06
-6.1486e-06
0.000104544
5.4819e-06
-5.19512e-06
0.000112423
5.19527e-06
-4.49818e-06
0.000116447
4.7291e-06
-4.00058e-06
0.000116936
4.11663e-06
-3.69153e-06
0.000114106
3.39754e-06
-3.59166e-06
0.000107678
2.59608e-06
-3.79429e-06
9.73127e-05
-4.45547e-06
8.24461e-05
1.75471e-06
3.75028e-06
-8.20975e-06
6.94654e-05
-2.60123e-06
4.71132e-06
-6.88085e-06
8.52539e-05
5.33895e-06
-5.80431e-06
9.69546e-05
5.56936e-06
-5.00465e-06
0.0001049
5.45401e-06
-4.4177e-06
0.000109157
5.09449e-06
-3.99798e-06
0.00010982
4.56471e-06
-3.73543e-06
0.00010697
3.90454e-06
-3.6553e-06
0.000100563
3.11644e-06
-3.85476e-06
9.04492e-05
-4.40694e-06
7.61438e-05
2.1882e-06
3.08945e-06
-7.03199e-06
6.00426e-05
-1.92267e-06
4.17718e-06
-6.02233e-06
7.45102e-05
5.03947e-06
-5.14294e-06
8.55389e-05
5.57883e-06
-4.50504e-06
9.3277e-05
5.77097e-06
-4.0369e-06
9.76e-05
5.65926e-06
-3.70596e-06
9.84291e-05
5.30118e-06
-3.51001e-06
9.57802e-05
4.72308e-06
-3.47201e-06
8.97233e-05
3.95261e-06
-3.71239e-06
8.03017e-05
-4.14566e-06
6.72338e-05
2.95185e-06
2.03562e-06
4.84333e-05
-5.35677e-06
-1.07087e-06
3.16621e-06
6.0157e-05
-4.67556e-06
4.32981e-06
6.98421e-05
-4.07865e-06
5.33272e-06
7.70297e-05
-3.66026e-06
6.02004e-06
8.12596e-05
-3.32711e-06
6.33716e-06
8.22697e-05
-3.08544e-06
6.27856e-06
8.00235e-05
-2.95193e-06
5.8005e-06
7.46895e-05
-2.90492e-06
4.96007e-06
6.65801e-05
-3.14919e-06
5.59615e-05
3.67085e-06
-3.3438e-06
6.6999e-06
-5.62825e-06
5.32046e-05
-4.62519e-06
4.0955e-06
8.04668e-06
-5.53421e-06
6.47713e-05
4.26619e-06
8.84451e-06
-5.10569e-06
7.41701e-05
3.96248e-06
9.012e-06
-4.61113e-06
8.11074e-05
3.69356e-06
8.61789e-06
-4.16457e-06
8.52658e-05
3.39752e-06
7.70633e-06
-3.92165e-06
8.64467e-05
3.24057e-06
6.33882e-06
-3.98461e-06
8.46091e-05
3.30492e-06
4.65976e-06
-4.4452e-06
7.98436e-05
3.63843e-06
2.87149e-06
-5.43765e-06
7.23039e-05
4.40011e-06
-6.98101e-06
6.20258e-05
1.38659e-06
5.47396e-06
6.31447e-06
-6.73458e-06
6.36224e-05
-4.45132e-06
7.58781e-06
-6.44756e-06
7.7653e-05
8.39518e-06
-5.86077e-06
8.8271e-05
8.73631e-06
-5.19775e-06
9.57459e-05
8.6382e-06
-4.64534e-06
0.000100021
8.11308e-06
-4.35513e-06
0.00010104
7.15572e-06
-4.41094e-06
9.88224e-05
5.78227e-06
-4.92821e-06
9.3403e-05
4.08802e-06
-6.06675e-06
8.47248e-05
-7.97571e-06
7.23328e-05
2.42091e-06
5.68485e-06
-7.41775e-06
7.15944e-05
-3.94028e-06
6.9236e-06
-6.95431e-06
8.6948e-05
7.74741e-06
-6.19326e-06
9.8297e-05
8.17457e-06
-5.40043e-06
0.000106062
8.24278e-06
-4.78073e-06
0.00011032
7.97649e-06
-4.47098e-06
0.000111171
7.31968e-06
-4.54046e-06
0.000108753
6.22285e-06
-5.10944e-06
0.000103001
4.74516e-06
-6.38284e-06
9.36794e-05
-8.60018e-06
8.01427e-05
3.1332e-06
5.07809e-06
-7.57425e-06
7.69137e-05
-3.5606e-06
6.23921e-06
-7.03212e-06
9.29896e-05
7.06037e-06
-6.17326e-06
0.000104743
7.53847e-06
-5.30641e-06
0.000112594
7.7108e-06
-4.64944e-06
0.000116676
7.62928e-06
-4.33434e-06
0.000117316
7.19894e-06
-4.42037e-06
0.000114914
6.32742e-06
-5.04815e-06
0.000109133
5.0372e-06
-6.45156e-06
9.95106e-05
-8.88452e-06
8.53416e-05
3.50303e-06
4.45226e-06
-7.31961e-06
7.92628e-05
-3.10756e-06
5.56055e-06
-6.77358e-06
9.57146e-05
6.4154e-06
-5.89865e-06
0.000107689
6.96351e-06
-5.02963e-06
0.000115556
7.22173e-06
-4.36694e-06
0.000119435
7.27847e-06
-4.0307e-06
0.000119866
7.01317e-06
-4.13308e-06
0.000117623
6.32087e-06
-4.83439e-06
0.000111948
5.21044e-06
-6.34422e-06
0.000102195
-8.92875e-06
8.76945e-05
3.79685e-06
3.82514e-06
-6.71786e-06
7.8451e-05
-2.64789e-06
4.90355e-06
-6.23925e-06
9.50207e-05
5.8197e-06
-5.43339e-06
0.000107122
6.47798e-06
-4.62649e-06
0.000115121
6.85007e-06
-4.01204e-06
0.000119148
7.00003e-06
-3.70021e-06
0.000119687
6.86932e-06
-3.81611e-06
0.000117353
6.34873e-06
-4.55808e-06
0.000111539
5.40147e-06
-6.12729e-06
0.00010166
-8.75956e-06
8.70372e-05
4.08729e-06
3.1854e-06
-5.85878e-06
7.44906e-05
-2.16013e-06
4.24514e-06
-5.49209e-06
9.08782e-05
5.24822e-06
-4.79946e-06
0.000102966
6.05723e-06
-4.09445e-06
0.000111138
6.60134e-06
-3.55961e-06
0.000115499
6.89601e-06
-3.30944e-06
0.000116298
6.91281e-06
-3.47463e-06
0.000113796
6.55563e-06
-4.24327e-06
0.000107768
5.75694e-06
-5.80825e-06
9.78422e-05
-8.36869e-06
8.33467e-05
4.50509e-06
2.54346e-06
-4.82497e-06
6.76159e-05
-1.66561e-06
3.58653e-06
-4.5822e-06
8.33539e-05
4.69134e-06
-4.02895e-06
9.51312e-05
5.69891e-06
-3.45473e-06
0.000103303
6.48974e-06
-3.02296e-06
0.000107877
7.0141e-06
-2.85502e-06
0.000108887
7.22755e-06
-3.08042e-06
0.000106407
7.03677e-06
-3.84982e-06
0.000100408
6.34791e-06
-5.34343e-06
9.07193e-05
-7.63094e-06
7.67531e-05
5.03729e-06
1.89758e-06
-3.70731e-06
5.82318e-05
-1.15089e-06
2.90232e-06
-3.55517e-06
7.25239e-05
4.11366e-06
-3.15523e-06
8.35001e-05
5.37091e-06
-2.74624e-06
9.13569e-05
6.4938e-06
-2.44248e-06
9.59414e-05
7.35005e-06
-2.35875e-06
9.71193e-05
7.84105e-06
-2.61892e-06
9.48725e-05
7.84068e-06
-3.33484e-06
8.92527e-05
7.28408e-06
-4.70415e-06
8.02621e-05
-6.55964e-06
6.75128e-05
5.96663e-06
1.2105e-06
4.67381e-05
-2.45446e-06
-7.29097e-07
2.10308e-06
5.81371e-05
-2.39389e-06
3.43249e-06
6.75924e-05
-2.19893e-06
5.0145e-06
7.4741e-05
-2.00278e-06
6.58371e-06
7.91283e-05
-1.84429e-06
7.90134e-06
8.04502e-05
-1.82016e-06
8.77315e-06
7.86203e-05
-2.05112e-06
8.94985e-06
7.37617e-05
-2.54789e-06
8.37224e-06
6.61216e-05
-3.63449e-06
5.58567e-05
6.7257e-06
-4.78484e-06
6.35664e-06
3.31138e-06
5.07312e-05
-4.419e-06
-2.74852e-06
7.49599e-06
1.41535e-06
6.35084e-05
-1.25514e-06
7.81668e-06
-7.15838e-08
7.41162e-05
-1.50024e-07
7.26679e-06
-1.15267e-06
8.21193e-05
7.41471e-07
5.9669e-06
-2.01854e-06
8.71471e-05
1.49567e-06
4.12955e-06
-2.92113e-06
8.8999e-05
2.26993e-06
2.02336e-06
-4.0886e-06
8.76422e-05
3.22953e-06
3.95593e-08
-5.67246e-06
8.31593e-05
4.40898e-06
-1.51837e-06
-7.82959e-06
7.5665e-05
6.09207e-06
-1.03406e-05
6.51325e-05
-2.0338e-06
7.79914e-06
7.03651e-06
3.68921e-06
6.13322e-05
-5.08887e-06
8.26289e-06
1.31347e-06
7.65677e-05
8.74634e-06
-4.04572e-07
8.81641e-05
8.52035e-06
-1.57003e-06
9.64389e-05
7.68123e-06
-2.4702e-06
0.000101364
6.35296e-06
-3.42267e-06
0.000102924
4.66019e-06
-4.69621e-06
0.000101181
2.77415e-06
-6.49246e-06
9.61687e-05
9.25631e-07
-8.95491e-06
8.77557e-05
-1.20669e-05
7.53394e-05
-3.09947e-07
7.14432e-06
4.09338e-06
6.93757e-05
-5.28606e-06
8.3497e-06
1.30659e-06
8.57937e-05
8.92779e-06
-5.49374e-07
9.79137e-05
8.92745e-06
-1.73218e-06
0.000106277
8.43772e-06
-2.61869e-06
0.000111011
7.54073e-06
-3.57892e-06
0.000112278
6.25121e-06
-4.91817e-06
0.00011032
4.6093e-06
-6.86839e-06
0.000105078
2.80983e-06
-9.60621e-06
9.61899e-05
-1.32236e-05
8.28178e-05
1.33809e-06
6.93592e-06
4.60942e-06
7.4778e-05
-5.26361e-06
8.05483e-06
1.51768e-06
9.17089e-05
8.67804e-06
-4.28748e-07
0.000104051
8.84264e-06
-1.60763e-06
0.000112359
8.62048e-06
-2.46673e-06
0.000116798
8.0895e-06
-3.41788e-06
0.000117735
7.16533e-06
-4.79501e-06
0.00011577
5.7903e-06
-6.86317e-06
0.000110562
4.09593e-06
-9.81445e-06
0.000101472
-1.37606e-05
8.75866e-05
2.4364e-06
6.5461e-06
5.2051e-06
7.72661e-05
-5.08852e-06
7.57149e-06
1.92276e-06
9.43349e-05
8.24997e-06
-9.41135e-08
0.000106731
8.58578e-06
-1.29534e-06
0.000114963
8.59922e-06
-2.15714e-06
0.000119162
8.34397e-06
-3.09657e-06
0.000119848
7.70852e-06
-4.46893e-06
0.000117985
6.58956e-06
-6.59997e-06
0.000112862
5.05778e-06
-9.67724e-06
0.00010365
-1.38009e-05
8.94759e-05
3.36482e-06
6.10474e-06
5.79071e-06
7.66714e-05
-4.85141e-06
7.0422e-06
2.45052e-06
9.36087e-05
7.7792e-06
3.84965e-07
0.000105962
8.2912e-06
-8.68374e-07
0.000114238
8.52519e-06
-1.77663e-06
0.000118587
8.46752e-06
-2.73204e-06
0.000119431
8.06613e-06
-4.0844e-06
0.000117426
7.20199e-06
-6.19989e-06
0.000112063
5.85377e-06
-9.27603e-06
0.000102666
-1.33704e-05
8.83563e-05
4.15194e-06
5.75335e-06
6.24293e-06
7.30212e-05
-4.67569e-06
6.59624e-06
3.0074e-06
8.95319e-05
7.36063e-06
9.52748e-07
0.00010169
8.01272e-06
-3.38199e-07
0.000110015
8.45841e-06
-1.29304e-06
0.000114626
8.63265e-06
-2.27735e-06
0.000115726
8.47692e-06
-3.63309e-06
0.000113558
7.85924e-06
-5.6906e-06
0.000107935
6.68631e-06
-8.63951e-06
9.84369e-05
-1.24829e-05
8.42178e-05
4.97401e-06
5.63796e-06
6.32039e-06
6.6558e-05
-4.59948e-06
6.41012e-06
3.43955e-06
8.22029e-05
7.18721e-06
1.49248e-06
9.38712e-05
7.95729e-06
2.0834e-07
0.000102044
8.61696e-06
-7.73255e-07
0.000106755
9.04978e-06
-1.77584e-06
0.000108011
9.14303e-06
-3.11474e-06
0.000105854
8.73224e-06
-5.04741e-06
0.000100234
7.67178e-06
-7.73586e-06
9.0933e-05
-1.10317e-05
7.72026e-05
5.81444e-06
6.00812e-06
5.90073e-06
5.7669e-05
-4.97097e-06
6.7096e-06
3.59538e-06
7.17159e-05
7.4951e-06
1.8366e-06
8.24245e-05
8.36988e-06
6.26859e-07
9.01196e-05
9.23178e-06
-3.35902e-07
9.46992e-05
9.90882e-06
-1.30141e-06
9.60238e-05
1.02224e-05
-2.54377e-06
9.40445e-05
9.95444e-06
-4.23865e-06
8.87676e-05
8.98223e-06
-6.57848e-06
8.01283e-05
-9.13867e-06
6.75829e-05
7.05654e-06
6.77607e-06
4.66743e-05
4.64573e-06
-5.41645e-06
7.59656e-06
5.77757e-05
3.17431e-06
8.48251e-06
6.6843e-05
1.74248e-06
9.46572e-06
7.36625e-05
7.67631e-07
1.0509e-05
7.78711e-05
-7.59091e-08
1.13903e-05
7.91952e-05
-8.8104e-07
1.18611e-05
7.75342e-05
-1.88329e-06
1.15563e-05
7.29612e-05
-3.09093e-06
1.03871e-05
6.5646e-05
-4.89641e-06
5.55965e-05
7.97306e-06
-6.43869e-06
1.68589e-06
1.33283e-05
4.70639e-05
-1.34155e-06
-9.84196e-06
1.83442e-06
1.08605e-05
6.09455e-05
-8.2881e-06
1.38965e-06
8.05467e-06
7.29233e-05
-6.25434e-06
3.01987e-07
5.45396e-06
8.22707e-05
-4.35856e-06
-1.3712e-06
3.02267e-06
8.8407e-05
-2.45963e-06
-3.3132e-06
6.58937e-07
9.10273e-05
-6.05993e-07
-5.12637e-06
-1.80477e-06
9.00722e-05
1.31676e-06
-6.28422e-06
-4.40204e-06
8.56299e-05
3.20838e-06
-6.51947e-06
-7.13938e-06
7.7832e-05
5.31911e-06
-9.52102e-06
6.66992e-05
-5.30757e-06
6.82682e-06
3.78353e-06
1.56881e-05
5.79776e-05
-2.63818e-06
4.47901e-06
1.23801e-05
7.44854e-05
4.44734e-06
9.0066e-06
8.73748e-05
3.69432e-06
5.96087e-06
9.68091e-05
2.33734e-06
3.20879e-06
0.000102649
6.17351e-07
5.55924e-07
0.000104851
-1.18499e-06
-2.23947e-06
0.000103516
-2.73753e-06
-5.26969e-06
9.86841e-05
-3.71861e-06
-8.47347e-06
9.01606e-05
-1.15361e-05
7.72503e-05
-3.54481e-06
5.34419e-06
1.74369e-05
6.63624e-05
-3.93536e-06
6.24908e-06
1.33855e-05
8.40087e-05
6.45314e-06
9.57851e-06
9.72599e-05
5.9631e-06
6.26575e-06
0.000106578
4.90436e-06
3.35039e-06
0.000112031
3.47318e-06
5.56906e-07
0.000113801
1.84846e-06
-2.44044e-06
0.000112235
2.26956e-07
-5.77235e-06
0.000107291
-1.06532e-06
-9.3726e-06
9.84695e-05
-1.30098e-05
8.47726e-05
-1.4761e-06
6.35569e-06
1.86071e-05
7.21587e-05
-4.76988e-06
7.35641e-06
1.4066e-05
9.01431e-05
7.70704e-06
9.98476e-06
0.000103408
7.4319e-06
6.52608e-06
0.000112479
6.64998e-06
3.5333e-06
0.000117489
5.52501e-06
6.76125e-07
0.000118821
4.14943e-06
-2.42315e-06
0.000117209
2.59196e-06
-5.92648e-06
0.000112358
1.10866e-06
-9.77432e-06
0.000103442
-1.37451e-05
8.93682e-05
1.32792e-07
7.02459e-06
1.925e-05
7.51137e-05