/*--------------------------------*- C++ -*----------------------------------*\
| =========                 |                                                 |
| \\      /  F ield         | OpenFOAM: The Open Source CFD Toolbox           |
|  \\    /   O peration     | Version:  2406                                  |
|   \\  /    A nd           | Website:  www.openfoam.com                      |
|    \\/     M anipulation  |                                                 |
\*---------------------------------------------------------------------------*/
FoamFile
{
    version     2.0;
    format      ascii;
    arch        "LSB;label=32;scalar=64";
    class       volSymmTensorField;
    location    "0.5";
    object      turbulenceProperties:devReff;
}
// * * * * * * * * * * * * * * * * * * * * * * * * * * * * * * * * * * * * * //

dimensions      [0 2 -2 0 0 0 0];

internalField   nonuniform List<symmTensor> 
25000
(
(0.029233 -0.0243038 -0.0726163 0.0294671 -0.0722853 -0.0587001)
(0.0515627 -0.012201 -0.0460439 0.0319945 -0.0660501 -0.0835572)
(0.0587476 -0.00668032 -0.0282807 0.038138 -0.0571302 -0.0968856)
(0.0623981 -0.00304577 -0.0154816 0.0419343 -0.0508714 -0.104332)
(0.0640029 -0.000805232 -0.00524745 0.0437839 -0.0478224 -0.107787)
(0.0640396 0.00109913 0.00419036 0.0438326 -0.0478629 -0.107872)
(0.0625549 0.00332387 0.0144842 0.0420647 -0.0509974 -0.10462)
(0.0591314 0.0069832 0.0274107 0.0382963 -0.0573403 -0.0974277)
(0.0519302 0.012472 0.0454135 0.0322593 -0.066353 -0.0841895)
(0.0293582 0.0245008 0.0722651 0.0301483 -0.0726565 -0.0595066)
(0.0316038 -0.0121239 -0.0663511 0.0519181 -0.0456853 -0.0835219)
(0.0532375 -0.00530829 -0.0372469 0.0536276 -0.0369225 -0.106865)
(0.0595334 -0.00285244 -0.0206166 0.0567298 -0.0308813 -0.116263)
(0.0623817 -0.00121484 -0.0106323 0.0583518 -0.0271084 -0.120733)
(0.063536 -0.000215883 -0.00357837 0.059078 -0.0253159 -0.122614)
(0.0635818 0.000565285 0.00264487 0.0590823 -0.0253303 -0.122664)
(0.0625859 0.00154987 0.00974467 0.0583328 -0.0271561 -0.120919)
(0.0599979 0.00318935 0.0198455 0.0566299 -0.0309728 -0.116628)
(0.0536972 0.00568817 0.0367263 0.0535782 -0.0370832 -0.107275)
(0.0319303 0.0125663 0.066165 0.0520842 -0.0459155 -0.0840145)
(0.0377317 -0.00665074 -0.057443 0.0590566 -0.0279162 -0.0967882)
(0.0563888 -0.00283287 -0.0312033 0.0598083 -0.0202958 -0.116197)
(0.0616419 -0.0014785 -0.0164956 0.0618439 -0.0161881 -0.123486)
(0.0637109 -0.000576692 -0.0081505 0.0628896 -0.0139123 -0.1266)
(0.0644188 -5.91913e-05 -0.0027157 0.0633327 -0.0128857 -0.127751)
(0.0644652 0.000311307 0.00189502 0.0633178 -0.0128852 -0.127783)
(0.0639209 0.000815067 0.00736549 0.0628112 -0.0139131 -0.126732)
(0.0620991 0.00170105 0.0158086 0.0616634 -0.0161995 -0.123763)
(0.0567636 0.00309713 0.0307467 0.0597151 -0.0203461 -0.116479)
(0.0379803 0.00695767 0.0572919 0.0590894 -0.0280226 -0.0970697)
(0.0415068 -0.00303235 -0.0512064 0.0626668 -0.0150983 -0.104174)
(0.058034 -0.001179 -0.0274383 0.0625877 -0.0103065 -0.120622)
(0.0627218 -0.000558209 -0.0142207 0.0638353 -0.007852 -0.126557)
(0.0643682 -0.000174588 -0.00687969 0.0644475 -0.00659032 -0.128816)
(0.0648143 9.2813e-06 -0.00228238 0.0646981 -0.00605062 -0.129512)
(0.0648565 0.000119961 0.00153761 0.0646804 -0.00604299 -0.129537)
(0.0645647 0.00030703 0.00616443 0.0643621 -0.00656823 -0.128927)
(0.0631465 0.000698755 0.013589 0.0636551 -0.00782081 -0.126802)
(0.058339 0.00138164 0.0270118 0.0625203 -0.0102848 -0.120859)
(0.0417226 0.00332705 0.0510427 0.0626707 -0.0151017 -0.104393)
(0.0433236 -0.000809713 -0.0481761 0.0642529 -0.00484123 -0.107576)
(0.0587592 -0.00018116 -0.0256606 0.0637154 -0.00324331 -0.122475)
(0.063166 -3.14527e-05 -0.0132049 0.0645209 -0.00242025 -0.127687)
(0.0646252 2.04809e-05 -0.00634337 0.0648717 -0.00200512 -0.129497)
(0.0649571 2.06046e-05 -0.00210158 0.0650058 -0.00182795 -0.129963)
(0.0649988 1.31198e-05 0.00139968 0.064988 -0.00181523 -0.129987)
(0.0648172 3.38113e-05 0.00566635 0.0647881 -0.00196783 -0.129605)
(0.0635747 0.000120466 0.0126004 0.0643482 -0.00236175 -0.127923)
(0.0590289 0.000339238 0.0252416 0.0636609 -0.0031725 -0.12269)
(0.0435329 0.00106476 0.0479854 0.0642256 -0.00476732 -0.107758)
(0.0433304 0.00109011 -0.0482301 0.0642702 0.00461159 -0.107601)
(0.0587548 0.000602246 -0.0256943 0.0637355 0.00299022 -0.12249)
(0.0631496 0.000347682 -0.0132226 0.0645461 0.00219504 -0.127696)
(0.0646091 0.000139555 -0.00634837 0.0648975 0.00181375 -0.129507)
(0.0649464 1.49312e-05 -0.0020961 0.0650291 0.00166726 -0.129976)
(0.0649915 -5.89279e-05 0.00141336 0.0650101 0.0016836 -0.130002)
(0.0648058 -0.00014537 0.00568516 0.0648147 0.00186192 -0.12962)
(0.0635602 -0.000297853 0.0126221 0.064375 0.00227349 -0.127935)
(0.05902 -0.00049303 0.0252649 0.0636792 0.00309901 -0.122699)
(0.0435543 -0.000885638 0.0480058 0.0642168 0.00474504 -0.107771)
(0.0415239 0.00330875 -0.0513661 0.0627386 0.0149078 -0.104263)
(0.058013 0.00157778 -0.0275388 0.0626685 0.0100978 -0.120681)
(0.0626647 0.000859714 -0.0142734 0.0639278 0.00767626 -0.126592)
(0.0643157 0.000330791 -0.00689463 0.0645344 0.00645057 -0.12885)
(0.0647754 3.061e-05 -0.00226602 0.0647783 0.00594025 -0.129554)
(0.0648262 -0.000148696 0.00157823 0.0647629 0.00595773 -0.129589)
(0.0645257 -0.000396715 0.00622186 0.0644552 0.00650403 -0.128981)
(0.063085 -0.00086084 0.0136557 0.0637623 0.00776765 -0.126847)
(0.0582881 -0.00153604 0.0270813 0.0626131 0.0102357 -0.120901)
(0.0417789 -0.00316282 0.0511035 0.0626675 0.0150866 -0.104446)
(0.0377197 0.00694851 -0.0576977 0.0592184 0.0278226 -0.0969381)
(0.0563399 0.00319955 -0.0313708 0.0599488 0.0201974 -0.116289)
(0.0615695 0.00174934 -0.0165841 0.0619713 0.0161291 -0.123541)
(0.0636527 0.000724809 -0.00817629 0.0629935 0.0138898 -0.126646)
(0.0643816 0.0001239 -0.00268909 0.0634257 0.0128883 -0.127807)
(0.0644367 -0.000295753 0.00196462 0.0634181 0.0129064 -0.127855)
(0.0638642 -0.000852991 0.00746486 0.062939 0.0139455 -0.126803)
(0.0619898 -0.0018033 0.0159229 0.0618383 0.0162298 -0.123828)
(0.0566477 -0.00323669 0.0308627 0.0598982 0.0203597 -0.116546)
(0.0380426 -0.00687582 0.0573899 0.0591114 0.028032 -0.097154)
(0.0316282 0.0125841 -0.0666818 0.0519727 0.0457843 -0.0836008)
(0.0533096 0.00571277 -0.0374886 0.0534928 0.0370527 -0.106802)
(0.0596521 0.00314706 -0.0207523 0.0565 0.0310559 -0.116152)
(0.0625448 0.00139401 -0.0106775 0.0580679 0.0273119 -0.120613)
(0.0637233 0.000323149 -0.00354381 0.0587781 0.0255339 -0.122501)
(0.0637727 -0.000511205 0.00274587 0.0587894 0.0255539 -0.122562)
(0.0627418 -0.00153905 0.0098936 0.0580751 0.0273755 -0.120817)
(0.0600604 -0.00323191 0.0200213 0.0564448 0.0311736 -0.116505)
(0.0536623 -0.0058324 0.0369039 0.0534643 0.0372458 -0.107127)
(0.0320788 -0.0125063 0.0663104 0.0517398 0.0460255 -0.0838185)
(0.0291282 0.0244822 -0.072884 0.0295959 0.0725592 -0.0587241)
(0.0515424 0.0123957 -0.0463074 0.0318227 0.0663951 -0.0833651)
(0.0588642 0.00689527 -0.0284499 0.0378011 0.0575231 -0.0966653)
(0.0625742 0.00319814 -0.01555 0.0415153 0.051282 -0.10409)
(0.0642173 0.000902588 -0.00521534 0.0433112 0.0482318 -0.107529)
(0.0642869 -0.00104932 0.00430981 0.0433143 0.0482599 -0.107601)
(0.0628096 -0.00331795 0.0146696 0.0415143 0.0513704 -0.104324)
(0.059328 -0.00701709 0.0276377 0.037739 0.0576736 -0.097067)
(0.0520919 -0.0127118 0.0456448 0.0317285 0.0666209 -0.0838204)
(0.0298484 -0.0245131 0.0724723 0.0292693 0.0727756 -0.0591177)
(-0.00126745 -0.0196353 -0.113482 -0.00126223 -0.112798 0.00252968)
(0.0123978 -0.0159893 -0.0768948 0.000228484 -0.111149 -0.0126262)
(0.0210306 -0.011806 -0.0485625 0.00276283 -0.0990362 -0.0237935)
(0.0278623 -0.00697735 -0.027054 0.00462218 -0.0889408 -0.0324845)
(0.0314729 -0.00172101 -0.00959534 0.00579518 -0.083494 -0.0372681)
(0.03172 0.00348285 0.0064845 0.00619819 -0.0832883 -0.0379182)
(0.0286576 0.00854875 0.0238929 0.00579649 -0.0883169 -0.0344541)
(0.0224738 0.0130375 0.0453336 0.00458345 -0.0979738 -0.0270573)
(0.0143502 0.0166562 0.0736485 0.00261814 -0.109733 -0.0169684)
(0.000941166 0.0194093 0.11052 0.00183632 -0.111326 -0.00277748)
(-4.76484e-05 -0.0159838 -0.111494 0.0128108 -0.0758869 -0.0127631)
(0.0162314 -0.0134739 -0.0646589 0.0168698 -0.0638937 -0.0331011)
(0.0273042 -0.00978971 -0.0349874 0.0205266 -0.0527655 -0.0478308)
(0.0347737 -0.00557141 -0.017464 0.0227565 -0.0446135 -0.0575302)
(0.0383123 -0.00122846 -0.00599398 0.023909 -0.0403385 -0.0622213)
(0.0385249 0.00305398 0.00363511 0.0240852 -0.0402038 -0.0626101)
(0.0355038 0.00726539 0.0150571 0.023279 -0.0442043 -0.0587828)
(0.028722 0.0112536 0.0324953 0.0213731 -0.0520744 -0.0500951)
(0.0181762 0.0146307 0.0621372 0.0181366 -0.0629389 -0.0363129)
(0.00206177 0.0166161 0.109227 0.014762 -0.0746599 -0.0168238)
(0.00227431 -0.0121127 -0.0992306 0.0216162 -0.0472991 -0.0238905)
(0.0198436 -0.00994227 -0.0533769 0.0278783 -0.0339984 -0.047722)
(0.0316116 -0.00685981 -0.0258891 0.0320744 -0.0250786 -0.0636861)
(0.0385526 -0.00371799 -0.0115826 0.034158 -0.0194276 -0.0727106)
(0.0416233 -0.000716839 -0.00380873 0.0351521 -0.016647 -0.0767754)
(0.0417816 0.00220148 0.00201583 0.035226 -0.016573 -0.0770076)
(0.039129 0.00511197 0.00975064 0.034367 -0.0192044 -0.073496)
(0.0327994 0.00807415 0.023987 0.0324377 -0.0246885 -0.0652371)
(0.0214758 0.0109336 0.0514986 0.0286348 -0.033423 -0.0501105)
(0.00413869 0.012637 0.0977106 0.0228798 -0.0464767 -0.0270185)
(0.00390107 -0.00753175 -0.0891647 0.0284826 -0.0255762 -0.0323837)
(0.0219989 -0.00588235 -0.0451807 0.0352698 -0.0163242 -0.0572687)
(0.0337003 -0.00385325 -0.0201488 0.0388748 -0.0106648 -0.072575)
(0.040288 -0.00199247 -0.00813016 0.0405466 -0.00733464 -0.0808346)
(0.0431602 -0.00029307 -0.00253768 0.0413712 -0.00572936 -0.0845314)
(0.0432914 0.00136068 0.00109852 0.0413924 -0.0056907 -0.0846838)
(0.0407797 0.00301795 0.00666071 0.040589 -0.00722353 -0.0813687)
(0.0347259 0.00477602 0.0186481 0.0389521 -0.0104764 -0.073678)
(0.0233508 0.00667005 0.0437559 0.0356721 -0.016038 -0.0590229)
(0.00555427 0.00800458 0.0881461 0.0292496 -0.0251525 -0.0348039)
(0.00478504 -0.00244541 -0.0838347 0.0319627 -0.00797188 -0.0367477)
(0.0230504 -0.00169226 -0.0409439 0.0386607 -0.0047458 -0.0617111)
(0.0346489 -0.000976032 -0.0173584 0.0418212 -0.00281416 -0.0764701)
(0.0411093 -0.000406108 -0.00648671 0.0432875 -0.00169351 -0.0843967)
(0.0439208 9.87319e-05 -0.00193298 0.0440383 -0.00115619 -0.0879592)
(0.0440403 0.000599511 0.000666904 0.0440364 -0.00114394 -0.0880767)
(0.0415573 0.00109784 0.00519627 0.0432566 -0.00165829 -0.0848139)
(0.0355809 0.00163135 0.0160677 0.0417659 -0.00275273 -0.0773468)
(0.0242165 0.0022773 0.039781 0.038873 -0.00465132 -0.0630895)
(0.00628495 0.00285157 0.0831017 0.0324156 -0.00783942 -0.0387005)
(0.00484551 0.00268273 -0.0838014 0.031944 0.00820203 -0.0367895)
(0.0230994 0.00248693 -0.0409117 0.0386338 0.00496275 -0.0617332)
(0.0346608 0.00184731 -0.01734 0.0418038 0.00307123 -0.0764646)
(0.041106 0.00115262 -0.00647888 0.0432705 0.00198529 -0.0843765)
(0.0439127 0.000498024 -0.00192534 0.0440148 0.00146345 -0.0879275)
(0.0440277 -0.00013516 0.000682984 0.0440053 0.00145484 -0.088033)
(0.0415332 -0.000766471 0.00522346 0.0432219 0.00196584 -0.0847552)
(0.0355446 -0.00144375 0.0161078 0.0417183 0.0030488 -0.0772629)
(0.0241667 -0.00211549 0.0398409 0.0387965 0.00493579 -0.0629632)
(0.00625047 -0.00237239 0.083172 0.0322814 0.00814301 -0.0385319)
(0.00407887 0.0077699 -0.0890342 0.0284841 0.0256534 -0.032563)
(0.0221398 0.0066365 -0.045061 0.035237 0.0164324 -0.0573768)
(0.0337417 0.00469045 -0.0200743 0.0388466 0.0108471 -0.0725883)
(0.0402922 0.00272141 -0.00808923 0.0405025 0.00758066 -0.0807947)
(0.0431486 0.000890972 -0.00250052 0.0413039 0.00601516 -0.0844524)
(0.0432641 -0.000870375 0.00115596 0.0413068 0.00599562 -0.084571)
(0.0407177 -0.00264666 0.00674875 0.0404885 0.00753209 -0.0812063)
(0.0346083 -0.00455467 0.0187767 0.0388258 0.0107791 -0.0734341)
(0.0231781 -0.00650117 0.043945 0.0354755 0.0163375 -0.0586536)
(0.00545104 -0.00755695 0.0883653 0.0288683 0.025481 -0.0343193)
(0.00251199 0.0123706 -0.0989196 0.0217722 0.047096 -0.0242841)
(0.0200614 0.0106104 -0.0531097 0.0279243 0.0339028 -0.0479857)
(0.031742 0.00760739 -0.0257045 0.032047 0.0251208 -0.063789)
(0.0386402 0.00439748 -0.0114611 0.0340595 0.0195922 -0.0726997)
(0.0416836 0.00132657 -0.00370142 0.0350006 0.0168984 -0.0766842)
(0.0418035 -0.00165184 0.00214773 0.03504 0.0168777 -0.0768435)
(0.0390682 -0.00465482 0.00992947 0.0341598 0.0195369 -0.073228)
(0.0326113 -0.00775202 0.0242353 0.0322123 0.0250338 -0.0648236)
(0.0211464 -0.0107318 0.05184 0.0283464 0.0337748 -0.0494928)
(0.00393727 -0.0123051 0.0980967 0.0223006 0.04686 -0.0262378)
(0.000263671 0.0164033 -0.110876 0.0130494 0.0753629 -0.013313)
(0.016661 0.0140927 -0.0641571 0.0167325 0.0635561 -0.0333935)
(0.0278084 0.0104524 -0.034612 0.0201385 0.0526551 -0.0479469)
(0.0352807 0.00619652 -0.0171842 0.0221947 0.0447155 -0.0574753)
(0.0387691 0.00183753 -0.00574723 0.023242 0.0406069 -0.0620111)
(0.0388974 -0.00246935 0.00390421 0.0233438 0.040586 -0.0622411)
(0.0357381 -0.00673281 0.0153842 0.0224839 0.0446553 -0.058222)
(0.0287243 -0.0108299 0.0329086 0.0205613 0.0525575 -0.0492856)
(0.0178514 -0.0144182 0.0626589 0.0173495 0.0634215 -0.035201)
(0.00183915 -0.0163362 0.109804 0.0136199 0.075137 -0.0154591)
(-0.00110244 0.019609 -0.112511 -0.000736375 0.111973 0.00183882)
(0.0128065 0.0161979 -0.0760414 0.000268145 0.110504 -0.0130746)
(0.0217526 0.0121853 -0.0478584 0.00246282 0.0987371 -0.0242154)
(0.0286514 0.00739987 -0.0264887 0.00408327 0.0889728 -0.0327347)
(0.0322065 0.00219657 -0.0091073 0.00505158 0.0837876 -0.0372581)
(0.0323535 -0.0029826 0.00696332 0.00524382 0.083765 -0.0375973)
(0.029146 -0.0080685 0.024411 0.00463559 0.0889042 -0.0337816)
(0.0227129 -0.0126451 0.0459198 0.00325748 0.0986133 -0.0259703)
(0.0142441 -0.0166125 0.0743188 0.00123964 0.110357 -0.0154837)
(0.000912266 -0.0193319 0.111216 7.13385e-05 0.111839 -0.000983605)
(-0.00852003 -0.0171646 -0.155361 -0.00848849 -0.154111 0.0170085)
(0.000897208 -0.0113332 -0.117945 -0.00927643 -0.165788 0.00837922)
(0.00529651 -0.0077947 -0.0816052 -0.0076545 -0.160137 0.002358)
(0.00898948 -0.00408459 -0.0490513 -0.00629742 -0.152861 -0.00269206)
(0.0111754 -0.000256429 -0.0188676 -0.00523954 -0.148217 -0.00593586)
(0.0115221 0.00347958 0.010428 -0.00459464 -0.147359 -0.00692742)
(0.0100858 0.00700471 0.0404871 -0.00440981 -0.150295 -0.00567595)
(0.00723292 0.0100394 0.0728528 -0.00473015 -0.15593 -0.00250277)
(0.00378048 0.0125359 0.109093 -0.00550929 -0.16037 0.0017288)
(-0.00503091 0.0168602 0.147194 -0.00411334 -0.148631 0.00914426)
(-0.00932411 -0.0120048 -0.166124 0.00108876 -0.115854 0.00823535)
(0.0015419 -0.00860429 -0.112472 0.00222377 -0.11096 -0.00376567)
(0.00778795 -0.00609424 -0.071013 0.00470842 -0.102987 -0.0124964)
(0.0127871 -0.00315741 -0.0403142 0.00654997 -0.0961226 -0.0193371)
(0.0155813 -5.0521e-05 -0.0149853 0.00775825 -0.0921004 -0.0233395)
(0.0159314 0.00298393 0.00864726 0.00818115 -0.091506 -0.0241126)
(0.0139124 0.00579991 0.0338153 0.00777297 -0.094334 -0.0216854)
(0.00979019 0.0081901 0.064178 0.00661301 -0.100008 -0.0164032)
(0.00435552 0.00996568 0.105212 0.00481576 -0.106886 -0.00917128)
(-0.00641989 0.0122688 0.158994 0.00471061 -0.110888 0.00170928)
(-0.00822294 -0.00938046 -0.160002 0.00543121 -0.0785258 0.00279173)
(0.00374046 -0.00683193 -0.104107 0.00829573 -0.0686568 -0.0120362)
(0.0113995 -0.00469337 -0.0633663 0.0120142 -0.0614456 -0.0234137)
(0.0172985 -0.0023468 -0.0348032 0.014679 -0.0564272 -0.0319775)
(0.0204308 -1.40007e-06 -0.0125683 0.0162575 -0.0536714 -0.0366883)
(0.0207278 0.0022243 0.00764066 0.0165935 -0.0533171 -0.0373213)
(0.0183138 0.00429185 0.029722 0.0156442 -0.0553545 -0.0339581)
(0.0132887 0.00613789 0.0579964 0.0135463 -0.0596147 -0.0268351)
(0.00630119 0.0076304 0.0984281 0.0105116 -0.0659902 -0.0168128)
(-0.00550796 0.00913017 0.154558 0.0086315 -0.0749185 -0.00312354)
(-0.00761692 -0.006274 -0.152878 0.00928646 -0.0449526 -0.00166954)
(0.00515724 -0.00447362 -0.0972218 0.0132828 -0.0372256 -0.01844)
(0.0138068 -0.00295495 -0.0581944 0.0177414 -0.0323061 -0.0315483)
(0.0202735 -0.00142393 -0.0313524 0.0207777 -0.0291574 -0.0410511)
(0.0235148 8.66884e-06 -0.0110765 0.0223667 -0.0275009 -0.0458815)
(0.0237654 0.00130941 0.00704615 0.0225872 -0.0273299 -0.0463526)
(0.0212108 0.00253411 0.0271827 0.0214439 -0.0286246 -0.0426547)
(0.0156589 0.00370007 0.053813 0.0188448 -0.0313697 -0.0345037)
(0.00761652 0.00473049 0.0927022 0.0150141 -0.0357998 -0.0226306)
(-0.00484177 0.00571393 0.148724 0.0118334 -0.0429296 -0.00699162)
(-0.00743698 -0.00269687 -0.148787 0.0113838 -0.0138705 -0.00394678)
(0.00587663 -0.00176614 -0.0934911 0.0158807 -0.0112557 -0.0217574)
(0.0150752 -0.0010822 -0.0555274 0.0206335 -0.00961888 -0.0357088)
(0.0217477 -0.000507129 -0.0296174 0.0237111 -0.00858822 -0.0454588)
(0.0249041 -9.46428e-06 -0.0103363 0.0251341 -0.00806728 -0.0500382)
(0.0251119 0.000427905 0.00679016 0.0252703 -0.00803137 -0.0503822)
(0.02262 0.000827442 0.0259602 0.0241764 -0.00846355 -0.0467964)
(0.0169124 0.00120531 0.0517159 0.0214574 -0.0093832 -0.0383698)
(0.0083315 0.00157849 0.0896661 0.0172741 -0.0108746 -0.0256056)
(-0.00448207 0.0019991 0.145419 0.0134216 -0.0133147 -0.00893956)
(-0.00768545 0.00100956 -0.148799 0.011325 0.0161891 -0.00363957)
(0.00579687 0.00106073 -0.093451 0.0157797 0.0129246 -0.0215766)
(0.0150898 0.000850238 -0.0554745 0.020513 0.0109591 -0.0356029)
(0.0218246 0.000428483 -0.0295634 0.0235841 0.00975477 -0.0454088)
(0.02502 -8.74327e-06 -0.0102745 0.025008 0.00914944 -0.0500281)
(0.0252334 -0.000402531 0.00687066 0.025136 0.00909335 -0.0503694)
(0.0227057 -0.000811651 0.0260765 0.0240162 0.0095714 -0.0467219)
(0.0169478 -0.00127123 0.0518825 0.0212619 0.0106392 -0.0382097)
(0.00831307 -0.00164509 0.0899016 0.0170398 0.0124464 -0.0253528)
(-0.00451806 -0.00182284 0.145726 0.0131127 0.0154921 -0.00859468)
(-0.00834706 0.00473815 -0.152865 0.00912705 0.0468607 -0.000779986)
(0.00491741 0.00385584 -0.0970641 0.0130059 0.0385521 -0.0179233)
(0.0138621 0.00280465 -0.0580082 0.0173877 0.0333505 -0.0312498)
(0.0205217 0.00144201 -0.0311671 0.0203733 0.0300753 -0.040895)
(0.0238617 7.16926e-05 -0.0108707 0.0219334 0.0283826 -0.0457951)
(0.0241182 -0.00119744 0.00731496 0.0221266 0.0282413 -0.0462447)
(0.0214739 -0.00245145 0.0275564 0.0209323 0.0296335 -0.0424062)
(0.0157697 -0.00372033 0.0543313 0.0182707 0.0325745 -0.0340404)
(0.00755593 -0.0047926 0.0934279 0.0143556 0.0373697 -0.0219115)
(-0.00493279 -0.00558597 0.149666 0.0109434 0.0451498 -0.00601061)
(-0.00941085 0.00820952 -0.159833 0.00520341 0.0796947 0.00420743)
(0.00333823 0.00639853 -0.103725 0.00787169 0.0693531 -0.0112099)
(0.0115483 0.00467994 -0.0629593 0.0114108 0.0619272 -0.0229591)
(0.0177901 0.00251567 -0.0344017 0.0139505 0.0568644 -0.0317406)
(0.0210837 0.000263363 -0.0121316 0.0154497 0.0541695 -0.0365334)
(0.0213781 -0.00192445 0.00817691 0.0157337 0.0539494 -0.0371118)
(0.0188021 -0.00403585 0.0304214 0.0147421 0.05619 -0.0335443)
(0.0135088 -0.00600454 0.0589272 0.0126063 0.0607505 -0.0261151)
(0.00618911 -0.00764096 0.0996942 0.00950384 0.067584 -0.0156929)
(-0.00565887 -0.00910938 0.156179 0.00725966 0.0772108 -0.0016008)
(-0.0107528 0.0115585 -0.165534 0.000330261 0.116196 0.0104225)
(0.00120232 0.00856104 -0.111709 0.00111986 0.110851 -0.00232218)
(0.00832065 0.00634842 -0.0702447 0.00331903 0.102692 -0.0116397)
(0.0138381 0.00355496 -0.0395439 0.00500104 0.0958852 -0.0188392)
(0.0168532 0.000529237 -0.0141614 0.00612385 0.0920669 -0.022977)
(0.0171803 -0.00248625 0.00960181 0.00649446 0.09177 -0.0236747)
(0.0149298 -0.00534828 0.0349776 0.00605661 0.0949758 -0.0209864)
(0.0103967 -0.00787507 0.0656322 0.0048956 0.101122 -0.0152923)
(0.00436502 -0.00992056 0.107071 0.00312871 0.108582 -0.00749374)
(-0.00653875 -0.0122473 0.161264 0.00259357 0.113254 0.00394518)
(-0.0103117 0.0168895 -0.154273 -0.00940269 0.153779 0.0197144)
(0.000207752 0.011483 -0.116757 -0.0104253 0.164696 0.0102176)
(0.00585341 0.00828545 -0.0803184 -0.00918375 0.158817 0.00333034)
(0.0102952 0.00468402 -0.0476842 -0.00806179 0.151723 -0.0022334)
(0.0128394 0.000889637 -0.0174156 -0.00719023 0.14747 -0.00564918)
(0.0132371 -0.00285942 0.0120275 -0.00672311 0.147128 -0.00651397)
(0.0115914 -0.00645101 0.0423108 -0.00671811 0.150662 -0.00487331)
(0.00828532 -0.00965241 0.0749675 -0.00719341 0.156976 -0.0010919)
(0.00414595 -0.0126362 0.111526 -0.00802798 0.16214 0.00388202)
(-0.00497948 -0.0170637 0.149736 -0.00697866 0.150903 0.0119581)
(-0.00105723 -0.00651785 -0.160048 -0.00128986 -0.157475 0.00234709)
(0.000695332 -0.0050509 -0.124884 -0.0026417 -0.17546 0.00194636)
(0.0015808 -0.00369061 -0.0892764 -0.00246982 -0.175034 0.00088902)
(0.00253491 -0.00187252 -0.0557165 -0.00203378 -0.17114 -0.000501126)
(0.00335562 1.57945e-05 -0.0230711 -0.00134652 -0.167878 -0.0020091)
(0.00384562 0.00181051 0.00921524 -0.000603093 -0.166538 -0.00324253)
(0.00406601 0.0032931 0.0417589 0.000117172 -0.167213 -0.00418318)
(0.00422968 0.00422937 0.0752781 0.000744055 -0.168823 -0.00497373)
(0.00495159 0.00456894 0.1112 0.00115622 -0.167697 -0.00610782)
(0.00454173 0.00480925 0.148174 0.00205502 -0.149831 -0.00659676)
(-0.00177021 -0.00636234 -0.177032 -0.000412619 -0.120863 0.00218283)
(0.000155163 -0.0053459 -0.125174 -0.00010473 -0.121791 -5.04326e-05)
(0.00226069 -0.00389257 -0.0830171 0.000712488 -0.11801 -0.00297317)
(0.00422308 -0.00199953 -0.0494014 0.00161909 -0.113522 -0.00584216)
(0.00554224 -2.00274e-05 -0.0196895 0.00250578 -0.110302 -0.00804802)
(0.00604651 0.00178216 0.00873519 0.00310399 -0.109287 -0.0091505)
(0.00582732 0.00330201 0.0381189 0.00332977 -0.110555 -0.00915709)
(0.00506184 0.00442564 0.0712234 0.00330216 -0.113262 -0.00836399)
(0.00434297 0.00503335 0.112969 0.00309936 -0.115537 -0.00744233)
(0.00281567 0.00502715 0.165526 0.00332394 -0.113535 -0.00613961)
(-0.00265572 -0.00668034 -0.176112 -0.000208215 -0.0835298 0.00286394)
(0.000132358 -0.00527557 -0.120945 0.00142858 -0.0782573 -0.00156094)
(0.00337832 -0.00359794 -0.0781082 0.0030817 -0.0739966 -0.00646002)
(0.00617109 -0.00174875 -0.0452405 0.00462646 -0.0703912 -0.0107976)
(0.00783302 -2.82242e-05 -0.0174462 0.00587902 -0.0678728 -0.013712)
(0.00828969 0.00136609 0.00858159 0.00648173 -0.0671736 -0.0147714)
(0.00770978 0.00255617 0.0359206 0.00631427 -0.0684458 -0.014024)
(0.0061925 0.00359351 0.0681172 0.00568957 -0.0708952 -0.0118821)
(0.00426185 0.00436707 0.110441 0.00481845 -0.0739762 -0.00908029)
(0.00189057 0.00459142 0.166203 0.00410182 -0.0780167 -0.0059924)
(-0.00378307 -0.00613446 -0.172679 0.00098344 -0.0480146 0.00279963)
(-0.000105995 -0.00455136 -0.116621 0.00346507 -0.0433438 -0.00335908)
(0.00402645 -0.00295383 -0.0743432 0.00565307 -0.0402633 -0.00967951)
(0.00754585 -0.00140116 -0.0422406 0.00750777 -0.0378594 -0.0150536)
(0.00958161 -0.000149553 -0.0158418 0.00890207 -0.0360374 -0.0184837)
(0.0100561 0.000658777 0.0084205 0.00939839 -0.0355833 -0.0194545)
(0.0091949 0.00137914 0.0342105 0.00890449 -0.0367741 -0.0180994)
(0.00711968 0.00220067 0.0655675 0.00782589 -0.0386243 -0.0149456)
(0.00427455 0.00294873 0.107395 0.00646011 -0.0410398 -0.0107347)
(0.00122809 0.00338114 0.164072 0.00497293 -0.0449423 -0.00620103)
(-0.00493798 -0.00470095 -0.170658 0.00178734 -0.013464 0.00315063)
(-0.000462692 -0.0033453 -0.114179 0.00462821 -0.0123593 -0.00416552)
(0.00432223 -0.00216379 -0.0722102 0.00705078 -0.0116614 -0.011373)
(0.00838734 -0.00119579 -0.0403819 0.00902951 -0.0110938 -0.0174169)
(0.0108283 -0.000507508 -0.0148451 0.0105604 -0.0106596 -0.0213887)
(0.0113433 -8.98699e-05 0.00831387 0.0109806 -0.0105803 -0.022324)
(0.0101676 0.000279167 0.0330303 0.0102022 -0.0109096 -0.0203698)
(0.00772672 0.000718469 0.0640699 0.00888387 -0.0114029 -0.0166106)
(0.00431827 0.00120885 0.10567 0.00728437 -0.0119895 -0.0116026)
(0.000818272 0.00172531 0.162753 0.00539494 -0.0129848 -0.00621321)
(-0.0060335 -0.0028836 -0.171234 0.00185295 0.0206348 0.00418055)
(-0.00105829 -0.00186887 -0.114463 0.00460845 0.0173554 -0.00355016)
(0.00400337 -0.00125643 -0.0723357 0.00699566 0.0152767 -0.010999)
(0.00831772 -0.00102448 -0.040448 0.00890518 0.0138106 -0.0172229)
(0.0109341 -0.000927647 -0.0148164 0.0103631 0.0127999 -0.0212972)
(0.0115005 -0.000779037 0.00850306 0.0107712 0.0125117 -0.0222717)
(0.0102451 -0.000696076 0.0333538 0.0100345 0.0131006 -0.0202797)
(0.00768167 -0.000747732 0.0644491 0.00874186 0.0142279 -0.0164235)
(0.00415606 -0.000656402 0.106141 0.00714062 0.0158818 -0.0112967)
(0.000531975 -0.000139827 0.163361 0.00524353 0.0185877 -0.0057755)
(-0.00706436 -0.000862666 -0.17437 0.00111392 0.0548284 0.00595044)
(-0.00193992 -0.00024897 -0.117448 0.00338812 0.0480288 -0.0014482)
(0.00304968 -0.000141663 -0.074665 0.00544344 0.0435924 -0.00849312)
(0.00731428 -0.00053302 -0.0423034 0.00709238 0.040379 -0.0144067)
(0.00983637 -0.00102996 -0.0156594 0.00831789 0.0381593 -0.0181543)
(0.0104565 -0.00137821 0.00892958 0.00877668 0.0375965 -0.0192332)
(0.00941076 -0.00177608 0.0350146 0.00835843 0.0389485 -0.0177692)
(0.00699817 -0.00228127 0.066616 0.00736408 0.0413671 -0.0143623)
(0.00378337 -0.00250803 0.108779 0.00604006 0.0448519 -0.00982343)
(0.000374435 -0.00195373 0.165875 0.00454475 0.0504715 -0.00491918)
(-0.00802373 0.00107268 -0.178826 -0.000180724 0.0897474 0.00820445)
(-0.00301771 0.00130155 -0.122282 0.00120707 0.0824331 0.00181064)
(0.00166634 0.00107522 -0.0785945 0.00258097 0.0767788 -0.0042473)
(0.00569438 0.00024054 -0.0452257 0.00377859 0.0723769 -0.00947297)
(0.00811975 -0.000818899 -0.0170341 0.00478803 0.0695342 -0.0129078)
(0.00882378 -0.00184864 0.00940907 0.00533173 0.0688249 -0.0141555)
(0.00801432 -0.00283578 0.0371672 0.00527694 0.070342 -0.0132913)
(0.00597095 -0.00367366 0.069807 0.00483801 0.0734315 -0.010809)
(0.00337806 -0.00408837 0.112703 0.00415892 0.0776517 -0.00753697)
(0.000418085 -0.00353572 0.169137 0.00349884 0.0833839 -0.00391693)
(-0.00882764 0.0029968 -0.180417 -0.00181318 0.126671 0.0106408)
(-0.00416706 0.00271668 -0.127012 -0.00157544 0.125594 0.0057425)
(-1.76194e-05 0.00227612 -0.0837463 -0.00106505 0.120172 0.00108267)
(0.00362567 0.00110062 -0.0493445 -0.000454257 0.114721 -0.00317141)
(0.00594 -0.000450245 -0.0190098 0.000258959 0.111133 -0.00619896)
(0.00677919 -0.00205601 0.00999209 0.000870222 0.110208 -0.00764941)
(0.00630894 -0.00351358 0.0399439 0.00128779 0.111953 -0.00759673)
(0.00482479 -0.00457442 0.0736456 0.00159168 0.115546 -0.00641648)
(0.00305657 -0.00503792 0.116063 0.00184869 0.119139 -0.00490526)
(0.000693492 -0.00446947 0.1693 0.002259 0.118702 -0.00295249)
(-0.00926845 0.0054546 -0.163486 -0.00417067 0.163065 0.0134391)
(-0.00562343 0.0042253 -0.127469 -0.00451019 0.178926 0.0101336)
(-0.00223667 0.00358027 -0.0905512 -0.00468449 0.176441 0.00692116)
(0.00089595 0.00203656 -0.0557547 -0.00458504 0.171354 0.00368909)
(0.00308401 7.77526e-05 -0.022104 -0.004124 0.167668 0.00104)
(0.00414073 -0.00188765 0.0110414 -0.00340935 0.166533 -0.000731376)
(0.00420865 -0.00361739 0.0443512 -0.00253688 0.167921 -0.00167177)
(0.00360326 -0.00472127 0.078579 -0.00158712 0.170679 -0.00201613)
(0.00311145 -0.00518864 0.115031 -0.000617721 0.17107 -0.00249373)
(0.00194522 -0.0050051 0.151964 0.000393048 0.154484 -0.00233826)
(-0.00170319 -0.00468579 -0.15906 0.00294329 -0.155386 -0.00124011)
(0.00043504 -0.00259612 -0.125016 0.000763931 -0.176773 -0.00119897)
(0.000640636 -0.00189411 -0.0908927 0.000657913 -0.179793 -0.00129855)
(0.000658679 -0.001076 -0.0583608 0.00088604 -0.178437 -0.00154472)
(0.00100083 -0.000518206 -0.0259728 0.00140093 -0.176363 -0.00240176)
(0.00177503 -5.93106e-05 0.0064958 0.00191144 -0.17479 -0.00368647)
(0.00319395 0.000216042 0.03913 0.00224134 -0.17388 -0.00543528)
(0.00536515 0.000432334 0.072385 0.00225513 -0.172746 -0.00762028)
(0.00823674 0.000936471 0.10825 0.00186359 -0.168142 -0.0101003)
(0.00909379 0.00249856 0.14652 0.00232721 -0.147104 -0.011421)
(-0.0016587 -0.00364449 -0.180227 0.00194309 -0.118956 -0.00028439)
(-0.000444188 -0.00275309 -0.129544 0.000990778 -0.123647 -0.000546591)
(-0.000248877 -0.00226229 -0.0882506 0.00115948 -0.123057 -0.000910603)
(7.44615e-05 -0.0014232 -0.0544326 0.00157332 -0.120689 -0.00164778)
(0.00056416 -0.000526193 -0.0234472 0.0021808 -0.118292 -0.00274496)
(0.00124225 0.000237533 0.00667639 0.00271555 -0.116914 -0.0039578)
(0.00234599 0.000822322 0.0374457 0.00296854 -0.116767 -0.00531453)
(0.00403225 0.00130963 0.0711587 0.00291008 -0.116983 -0.00694233)
(0.0063635 0.00181482 0.113074 0.00252307 -0.115884 -0.00888657)
(0.00728532 0.00273571 0.166493 0.00256085 -0.110287 -0.00984618)
(-0.00218969 -0.00431294 -0.183622 -0.000662302 -0.0822537 0.00285199)
(-0.0008029 -0.00350868 -0.129114 -0.00089164 -0.0804178 0.00169454)
(-0.00013987 -0.00279699 -0.086254 -0.000293921 -0.0788266 0.00043379)
(0.000608938 -0.00174244 -0.0519785 0.000549513 -0.0767598 -0.00115845)
(0.00120872 -0.000656105 -0.0216824 0.00147416 -0.0745796 -0.00268288)
(0.00174532 0.000176075 0.0070957 0.00217148 -0.0734185 -0.0039168)
(0.00258213 0.000843799 0.0367572 0.00238874 -0.0738232 -0.00497087)
(0.0038085 0.00152848 0.0703809 0.00224056 -0.0744802 -0.00604907)
(0.0054488 0.00227432 0.113347 0.00184747 -0.0747276 -0.00729626)
(0.00591324 0.0032888 0.170076 0.001868 -0.0753777 -0.00778123)
(-0.00342217 -0.00482784 -0.183762 -0.0014745 -0.0467382 0.00489667)
(-0.00169717 -0.00392161 -0.127723 -0.00120748 -0.044687 0.00290465)
(-0.000586053 -0.00307919 -0.0844513 -0.000309143 -0.0435228 0.000895196)
(0.000671786 -0.00201368 -0.0498262 0.000637217 -0.0420597 -0.001309)
(0.00148241 -0.000984418 -0.0200951 0.00157155 -0.0401386 -0.00305396)
(0.0020046 -0.000264348 0.00732236 0.00218051 -0.0390898 -0.00418511)
(0.00273398 0.000371348 0.0357554 0.00232453 -0.0400889 -0.00505851)
(0.00362591 0.00118056 0.0692261 0.0021518 -0.0409799 -0.00577771)