/*--------------------------------*- C++ -*----------------------------------*\
| =========                 |                                                 |
| \\      /  F ield         | OpenFOAM: The Open Source CFD Toolbox           |
|  \\    /   O peration     | Version:  2406                                  |
|   \\  /    A nd           | Website:  www.openfoam.com                      |
|    \\/     M anipulation  |                                                 |
\*---------------------------------------------------------------------------*/
FoamFile
{
    version     2.0;
    format      ascii;
    arch        "LSB;label=32;scalar=64";
    class       volScalarField;
    location    "0.5";
    object      turbulenceProperties:nuEff;
}
// * * * * * * * * * * * * * * * * * * * * * * * * * * * * * * * * * * * * * //

dimensions      [0 2 -1 0 0 0 0];

internalField   nonuniform List<scalar> 
25000
(
0.00647862
0.00655622
0.0065914
0.006599
0.00659754
0.00659713
0.00659744
0.00658826
0.00655288
0.00647498
0.00655583
0.00658578
0.00657681
0.00656408
0.00655688
0.00655667
0.00656314
0.00657476
0.00658368
0.00655262
0.00659101
0.00657704
0.00655518
0.0065406
0.00653444
0.00653434
0.00654
0.00655373
0.00657594
0.00658948
0.0065988
0.00656452
0.00654081
0.00652887
0.00652497
0.0065249
0.00652834
0.00653949
0.00656365
0.00659797
0.00659743
0.00655737
0.0065347
0.006525
0.00652257
0.00652248
0.00652443
0.00653335
0.0065566
0.00659708
0.00659704
0.00655721
0.00653465
0.00652495
0.00652249
0.00652237
0.00652431
0.00653324
0.00655647
0.00659692
0.00659739
0.00656388
0.00654056
0.00652867
0.00652469
0.00652449
0.00652788
0.00653903
0.00656311
0.00659731
0.00658835
0.00657583
0.00655465
0.00654025
0.00653399
0.0065337
0.00653928
0.00655293
0.0065749
0.0065883
0.00655227
0.00658487
0.00657704
0.00656467
0.00655745
0.00655709
0.0065634
0.00657496
0.00658367
0.00655272
0.00647469
0.00655376
0.00658998
0.00659847
0.00659748
0.00659712
0.00659728
0.00658803
0.00655181
0.00647429
0.00612219
0.00630326
0.00651583
0.00668253
0.00677165
0.0067746
0.00669202
0.00653233
0.00632412
0.00614343
0.00630535
0.00670475
0.00698294
0.00709753
0.00712715
0.00712566
0.00709528
0.00698738
0.00672031
0.00632279
0.00651856
0.00698318
0.00715919
0.00714454
0.00711375
0.0071113
0.00713743
0.00715171
0.00698774
0.00652986
0.00668364
0.00709723
0.00714506
0.00707553
0.00703108
0.00702929
0.0070698
0.00713628
0.00709458
0.00668872
0.00677003
0.00712728
0.00711573
0.00703237
0.00698629
0.00698495
0.00702801
0.00710848
0.00712331
0.00677182
0.00677004
0.00712679
0.00711544
0.00703245
0.00698665
0.00698554
0.0070288
0.00710947
0.00712406
0.00677163
0.00668432
0.00709614
0.00714394
0.00707546
0.00703187
0.00703072
0.00707189
0.00713884
0.0070958
0.00668757
0.00652145
0.00698376
0.0071576
0.00714361
0.00711408
0.00711277
0.00714001
0.00715422
0.006987
0.00652683
0.00631118
0.00670962
0.00698424
0.00709636
0.00712583
0.00712515
0.00709524
0.00698614
0.00671632
0.00631817
0.00613073
0.00631087
0.00651995
0.00668189
0.00676724
0.00676838
0.00668536
0.00652578
0.00631768
0.00613778
0.00579566
0.00587343
0.00600426
0.00612517
0.00620267
0.00621456
0.00615754
0.00604956
0.00592331
0.00584337
0.00587795
0.00614199
0.00639653
0.0065956
0.00671357
0.00672823
0.0066349
0.00644966
0.00619661
0.00592393
0.00601255
0.00639994
0.0067759
0.00705885
0.00721183
0.00722735
0.00710092
0.00683157
0.00645265
0.00605179
0.0061325
0.00659751
0.00705645
0.00738405
0.00753611
0.00754927
0.00742082
0.00710651
0.00664299
0.00616326
0.0062022
0.00670591
0.00719805
0.00752428
0.00765722
0.00766891
0.00755488
0.00724045
0.00674418
0.00622645
0.00620058
0.00670432
0.00719572
0.00752043
0.00765175
0.00766275
0.00754911
0.00723504
0.00673949
0.00622277
0.00612917
0.00659488
0.00705271
0.00737707
0.00752542
0.00753614
0.00740676
0.00709243
0.00663035
0.006153
0.00601049
0.00640007
0.00677649
0.00705722
0.00720577
0.00721647
0.00708613
0.00681443
0.00643561
0.0060369
0.00587915
0.0061465
0.00640302
0.00660141
0.00671554
0.00672424
0.0066247
0.00643464
0.00617914
0.00590686
0.00579963
0.00588112
0.00601426
0.0061347
0.00620866
0.00621474
0.00615139
0.00603803
0.00590791
0.00582629
0.00577433
0.00581707
0.00591211
0.00600446
0.00606864
0.00608548
0.00605022
0.00597584
0.00588696
0.00583917
0.00582178
0.00603609
0.00624286
0.00641322
0.00652598
0.00655015
0.00647611
0.00632491
0.00611856
0.00588947
0.00592001
0.00624437
0.00657288
0.00686537
0.00707372
0.00711213
0.00695437
0.0066734
0.00633188
0.00598277
0.00600823
0.0064076
0.00685398
0.00732706
0.00774472
0.00781863
0.00745862
0.00697131
0.00649458
0.00606384
0.00605718
0.00649859
0.00702633
0.00768145
0.00844161
0.00859097
0.00786301
0.00715467
0.00658338
0.00610801
0.00604928
0.00648986
0.00701441
0.00765899
0.00839253
0.00853085
0.00783134
0.0071384
0.00657321
0.00610064
0.00598757
0.0063863
0.00682932
0.00729283
0.00769306
0.00775781
0.00741035
0.00693685
0.00646898
0.00604386
0.00589262
0.00621923
0.00655021
0.00684384
0.00704973
0.00708279
0.00692127
0.00663955
0.00630017
0.00595502
0.00579245
0.00601211
0.00622674
0.00640413
0.00651949
0.00654002
0.00645815
0.00629903
0.00608797
0.00585908
0.00574471
0.00579606
0.00590202
0.006003
0.00607069
0.00608477
0.00604205
0.00595871
0.00586209
0.00581077
0.00578444
0.00581192
0.00588631
0.00596007
0.00601474
0.00603484
0.00601467
0.00596189
0.00589294
0.00585378
0.00581449
0.00600979
0.0061903
0.00633881
0.00644402
0.00647725
0.0064245
0.00630033
0.00611645
0.00589435
0.00588738
0.00618526
0.00647995
0.00675018
0.00696399
0.007027
0.00688956
0.00663046
0.00630949
0.00596882
0.00594906
0.00631397
0.00672062
0.00718208
0.00766935
0.00783189
0.00742837
0.00691897
0.00645102
0.00603025
0.00597675
0.00637785
0.00686321
0.00753409
0.00865254
0.00932991
0.00794994
0.00710498
0.00652505
0.0060606
0.00595742
0.00635517
0.00683456
0.0074866
0.00852253
0.00909461
0.00788642
0.00707679
0.00650817
0.00604908
0.00589525
0.00625358
0.00665278
0.00709965
0.00755981
0.00771162
0.0073418
0.00685922
0.0064078
0.00599861
0.00580809
0.00610157
0.00639786
0.0066728
0.00689108
0.00695711
0.00682269
0.006567
0.0062532
0.00592323
0.00571858
0.00591462
0.00610667
0.00627115
0.00639017
0.00642961
0.00637437
0.00624386
0.00605745
0.00584137
0.00568116
0.00571651
0.00580884
0.00590215
0.00597214
0.00599927
0.00597714
0.00591706
0.00584084
0.00580125
0.00579899
0.00583687
0.00591465
0.00598848
0.00604516
0.00607204
0.00606269
0.0060203
0.00595419
0.0059015
0.00583437
0.00604142
0.00622312
0.00637072
0.00648206
0.00653067
0.00649599
0.00638361
0.00619516
0.00594629
0.00590076
0.00620573
0.00649616
0.00676344
0.00699321
0.00709384
0.00698227
0.00672549
0.00638663
0.00601316
0.00595126
0.0063142
0.00670575
0.00715333
0.00766733
0.00794235
0.00756433
0.00702074
0.00651807
0.00606364
0.00596821
0.00635863
0.00681601
0.00744349
0.00852009
0.00972728
0.00815599
0.00720727
0.00658054
0.00608477
0.00594184
0.00632371
0.00676899
0.00736395
0.00830858
0.00915559
0.00801515
0.00715226
0.00655152
0.00606744
0.00587664
0.00621859
0.00658802
0.00699815
0.00744251
0.00766885
0.0073711
0.00690028
0.00644055
0.00601384
0.00578877
0.00606835
0.00634267
0.00659646
0.00681228
0.00690812
0.0068143
0.00658431
0.00627653
0.0059351
0.00569814
0.00588315
0.00605937
0.00621002
0.00632707
0.00638081
0.00634975
0.00624192
0.00606723
0.00584569
0.00566051
0.00568458
0.00576354
0.00584618
0.00591341
0.00594782
0.00594031
0.00589644
0.00583201
0.00579371
0.00570914
0.0057724
0.00588355
0.00598923
0.00607365
0.0061228
0.00612739
0.00608738
0.00600978
0.00593046
0.00575616
0.00598901
0.00620447
0.00638771
0.0065376
0.00662408
0.00661189
0.0064967
0.00627956
0.00598451
0.00583246
0.00615983
0.0064783
0.00678068
0.00706687
0.00724321
0.00716012
0.0068729
0.00647875
0.00604951
0.0058936
0.00627057
0.00667558
0.00714338
0.00773269
0.00820277
0.00783501
0.00718605
0.00660305
0.00609307
0.00592384
0.00631945
0.00677191
0.00737948
0.00843736
0.0103222
0.0084881
0.00735645
0.00664849
0.00610524
0.00591367
0.00629501
0.0067238
0.00727058
0.00809583
0.00895443
0.00811453
0.00723267
0.00659447
0.00607771
0.00586579
0.00620492
0.00655667
0.00693024
0.00732957
0.0075736
0.00736062
0.0069236
0.006459
0.00601315
0.00579455
0.00607056
0.00632894
0.00655679
0.00674992
0.00684681
0.0067801
0.00657538
0.00627431
0.00592297
0.00571853
0.00589881
0.00605946
0.00618824
0.00628682
0.00633383
0.00630946
0.00621424
0.0060473
0.00582203
0.00569296
0.0057084
0.00577058
0.00583306
0.00588278
0.005907
0.00589798
0.00585867
0.00579989
0.00576242
0.00560282
0.00566982
0.00580603
0.00594892
0.00607389
0.00615529
0.00617206
0.00611974
0.00601178
0.00589805
0.00565269
0.0058877
0.00612968
0.00635911
0.00656951
0.00671511
0.00672711
0.00658818
0.00631976
0.00597362
0.00573716
0.00606526
0.00640572
0.00675577
0.00712872
0.00742236
0.00737453
0.0070177
0.00653878
0.00604913
0.00581179
0.00618834
0.00660424
0.00710096
0.00778285
0.00850158
0.00815189
0.00734351
0.00666059
0.00609491
0.00586198
0.00625787
0.00670916
0.00730181
0.00830071
0.0100365
0.0086646
0.00745099
0.00668448
0.00610287
0.00587715
0.00626283
0.00668722
0.00720041
0.00790867
0.00857107
0.00804066
0.00724449
0.00660461
0.00606875
0.00585641
0.00620544
0.00655647
0.00690755
0.0072579
0.00746386
0.00729705
0.00690664
0.00645426
0.00599968
0.00580976
0.00610005
0.00636061
0.00657401
0.00674104
0.00681678
0.00675194
0.00656116
0.00626685
0.00590961
0.0057519
0.00594674
0.00610913
0.00622658
0.00630651
0.00633656
0.00630467
0.00621027
0.00604406
0.00581304
0.00573236
0.00575807
0.00582098
0.00587459
0.00591009
0.00592035
0.00590256
0.00586049
0.00580106
0.00575978
0.00553891
0.00558557
0.00571393
0.00586384
0.00600838
0.00611014
0.0061294
0.00605678
0.00592153
0.00579474
0.00558733
0.00579901
0.00603206
0.0062725
0.00651642
0.00670655
0.00673665
0.00656915
0.00625832
0.00589221
0.00567782
0.00598315
0.00631212
0.00667211
0.00709299
0.00748096
0.00747884
0.00705379
0.00650683
0.00598929
0.00576267
0.00612096
0.00652321
0.00701677
0.0077282
0.00860797
0.00832768
0.00738701
0.00663612
0.00604708
0.00582715
0.00621249
0.0066507
0.00721685
0.00812382
0.00949156
0.00859998
0.00742687
0.00664767
0.00605696
0.00585996
0.00624553
0.00666409
0.0071524
0.00777452
0.00828393
0.00789029
0.00717955
0.00655622
0.00602037
0.00585756
0.00621704
0.00657194
0.00691232
0.00722789
0.00738792
0.00722415
0.00685359
0.00640675
0.00594985
0.00582605
0.00613422
0.00640495
0.00661609
0.00676745
0.00682013
0.00673827
0.0065368
0.00622986
0.00586163
0.00577611
0.00598895
0.00616239
0.00628167
0.0063544
0.00637061
0.00632204
0.00620878
0.00601968
0.00576918
0.00575134
0.00578979
0.00586335
0.00592184
0.0059556
0.00595798
0.00592723
0.00586691
0.0057837
0.00571919
0.00552698
0.005552
0.00565405
0.00578082
0.00590985
0.00600387
0.00601971
0.00594702
0.00581945
0.00571162
0.00557382
0.00576056
0.00596362
0.00617639
0.00640028
0.0065804
0.00660938
0.00644528
0.00614794
0.0058088
0.0056716
0.00595153
0.00624774
0.00657425
0.0069658
0.00734077
0.00735802
0.00694459
0.00640934
0.00591573
0.00576714
0.00610385
0.00647455
0.0069285
0.0075842
0.00841728
0.00821862
0.00728962
0.00654739
0.00597921
0.0058436
0.00621453
0.00662779
0.00715636
0.00798395
0.0091844
0.00843694
0.0073115
0.00655278
0.00598487
0.00588794
0.00626885
0.00667447
0.00714362
0.00773047
0.00817496
0.00776065
0.00706027
0.00645054
0.00593627
0.00589505
0.0062598
0.00661359
0.00694908
0.00724949
0.0073677
0.00715147
0.00674888
0.00629363
0.00585087
0.00586921
0.00618955
0.00646614
0.00667707
0.00681563
0.00683285
0.00669812
0.00644767
0.0061127
0.00574813
0.00581886
0.00604414
0.00622407
0.0063434
0.0064041
0.00638968
0.00629393
0.00612921
0.00590139
0.00564412
0.00578277
0.0058289
0.00590756
0.00596683
0.00599154
0.00596967
0.00590004
0.00579359
0.00566996
0.0055883
0.00552958
0.00554704
0.0056292
0.00573027
0.00583414
0.00591185
0.005929
0.00587522
0.00577476
0.00569355
0.00557138
0.00574911
0.00592867
0.00610788
0.00629264
0.00643891
0.00646284
0.00632926
0.00607514
0.00577415
0.00567362
0.00594462
0.00621607
0.00650324
0.00683685
0.00713925
0.00714101
0.00679301
0.00632031
0.0058693
0.00577872
0.00611015
0.00646155
0.00688268
0.00747746
0.00817308
0.00794
0.00712214
0.00644589
0.00591964
0.00586722
0.00623934
0.00664566
0.00717023
0.00802076
0.00931073
0.00824316
0.00714692
0.00643587
0.00590866
0.00592258
0.00631222
0.00672344
0.00721019
0.00784425
0.008252
0.00763222
0.0069016
0.00631857
0.00584291
0.00593647
0.00631619
0.00668122
0.00702884
0.0073275
0.00737087
0.00704299
0.00659725
0.0061521
0.0057445
0.00591129
0.00624954
0.00653595
0.00674549
0.00685733
0.00680772
0.0065971
0.0063035
0.00596858
0.00563528
0.00585486
0.00609582
0.00627916
0.0063876
0.00641629
0.00634863
0.00619738
0.00599638
0.00576379
0.0055324
0.00580572
0.00586051
0.00593682
0.00598353
0.00598163
0.00592136
0.00581278
0.0056804
0.00555136
0.00548709
0.00552436
0.00554538
0.00562397
0.00571471
0.00580551
0.00587564
0.00589949
0.00586626
0.00578957
0.00572655
0.00555899
0.00573892
0.00591198
0.00607431
0.00623471
0.0063603
0.00638714
0.00628385
0.0060653
0.00578874
0.00566003
0.0059332
0.00619703
0.00646263
0.00675628
0.00700524
0.0069954
0.0067024
0.00628226
0.00586163
0.00576955
0.00610689
0.00645801
0.00686961
0.00743198
0.00800736
0.00771151
0.00699421
0.00638151
0.00589002
0.00586683
0.00625254
0.0066773
0.00724159
0.00821497
0.00968958
0.00805556
0.00701077
0.00635228
0.00586218
0.00593143
0.00634299
0.00678963
0.00734617
0.0081206
0.00840864
0.00750613
0.00677033
0.00622601
0.00578833
0.00594988
0.00635545
0.0067547
0.00713816
0.00743376
0.00735732
0.00692729
0.00647461
0.00606085
0.00569103
0.0059216
0.00628308
0.00658847
0.00679544
0.00686477
0.00674345
0.00648736
0.00619338
0.00588651
0.00559005
0.00585525
0.00611183
0.00629716
0.00638691
0.00637774
0.00627049
0.00609971
0.00590479
0.00569732
0.00549982
0.00579534
0.00585722
0.00592677
0.00595531
0.00592857
0.00584828
0.0057345
0.00561321
0.00550673
0.00547172
0.00551336
0.00553912
0.0056212
0.0057126
0.00580183
0.00587213
0.00590364
0.00588583
0.00582533
0.00577258
0.00553928
0.00572329
0.00590077
0.00606386
0.00621911
0.00633949
0.00637321
0.00629121
0.00609391
0.00582703
0.00563194
0.00591181
0.00618452
0.00645312
0.00673602
0.00696084
0.00694671
0.00668536
0.0062939
0.00588515
0.0057367
0.00608584
0.00645668
0.00688721
0.00745187
0.00794469
0.00760105
0.00694567
0.00637302
0.00589889
0.00583346
0.00623938
0.00670462
0.0073404
0.00848796
0.00984089
0.00792034
0.00694855
0.00633207
0.00586301
0.00590036
0.00634002
0.0068444
0.00750438
0.00845589
0.00844878
0.00741732
0.00671478
0.00620507
0.00578936
0.00591942
0.0063538
0.00680216
0.00723129
0.00750604
0.00731973
0.00685844
0.00642882
0.00604553
0.00569815
0.00588713
0.00626946
0.00659924
0.00680605
0.00684084
0.00668447
0.00642807
0.00615736
0.0058796
0.0056059
0.00581443
0.00608121
0.00627162
0.00635115
0.00632458
0.00621067
0.00605141
0.00588035
0.00570008
0.0055249
0.00575308
0.00581952
0.00588797
0.00590963
0.00587716
0.00580057
0.00570192
0.00560323
0.00552098
0.00550667
0.00551807
0.00554079
0.00562228
0.00571241
0.00579871
0.00586612
0.00589904
0.0058896
0.00584209
0.00579942
0.00553789
0.0057194
0.00589837
0.00606178
0.00621322
0.00632747
0.00636283
0.00629563
0.00611803
0.00586345
0.00561873
0.00589816
0.00617751
0.00645114
0.00672736
0.00693061
0.00691625
0.00668579
0.00632392
0.00592803
0.00570914
0.00606096
0.00644786
0.00689698
0.00745487
0.00785996
0.00752974
0.00694423
0.00640752
0.00594511
0.00579227
0.00620487
0.00670086
0.0073908
0.00861678
0.00949061
0.00784477
0.00695678
0.00637144
0.00591218
0.00584799
0.00629707
0.00684418
0.00758806
0.00865282
0.00841046
0.00739967
0.00673604
0.00624916
0.0058421
0.00585878
0.00630043
0.00678475
0.00725587
0.00752468
0.00730043
0.00685571
0.00645455
0.00609264
0.00575433
0.00582186
0.00620531
0.00655533
0.00677729
0.0068123
0.0066618
0.00642771
0.00618419
0.00592825
0.00566452
0.00575041
0.00601498
0.00621698
0.00630738
0.0062907
0.00619241
0.00605543
0.00590893
0.00574929
0.00558419
0.00569788
0.00576612
0.00584469
0.00587671
0.00585527
0.00579285
0.00571208
0.00563298
0.00556859
0.00556437
0.00553456
0.00554929
0.00562416
0.00570662
0.00578189
0.00583495
0.00585334
0.00583314
0.00578054
0.00573533
0.0055552
0.00573141
0.00590689
0.00606379
0.00620088
0.0062933
0.00630991
0.0062372
0.00606646
0.00582183
0.00563322
0.00591168
0.00619486
0.00646692
0.00672275
0.00688417
0.00685094
0.00664033
0.0063071
0.00592747
0.00571438
0.00606749
0.00646649
0.00692476
0.00745058
0.00774616
0.00744315
0.00693538
0.00643776
0.00598585
0.00578222
0.00619464
0.00670734
0.00741951
0.0085867
0.00904205
0.00779656
0.00700377
0.00644295
0.00598355
0.00582006
0.0062634
0.0068233
0.0075897
0.00861993
0.0083593
0.00744693
0.00682077
0.00634339
0.00593001
0.00581575
0.00624492
0.00673463
0.00722257
0.00750961
0.0073213
0.00692013
0.00654562
0.00619311
0.00584812
0.00577118
0.00613863
0.00649254
0.00673489
0.00680001
0.00668573
0.00648684
0.00627037
0.00602748
0.00575902
0.00570178
0.00595273
0.00616188
0.00627335
0.00628421
0.006216
0.00610882
0.00598826
0.00584461
0.00567737
0.00566053
0.00572302
0.00581119
0.00586053
0.00585966
0.00581913
0.00576101
0.00570385
0.00565676
0.00565398
0.00557669
0.00558854
0.00565478
0.00572172
0.00577242
0.00579155
0.00577015
0.00571061
0.00562637
0.00556772
0.00560252
0.00577711
0.00594395
0.00608161
0.00618451
0.00622814
0.00619307
0.00607896
0.00588694
0.00564928
0.00568307
0.00596245
0.00624199
0.00649582
0.0067037
0.00678951
0.00670042
0.0064727
0.00614663
0.00578731
0.00576035
0.00611602
0.0065182
0.00696389
0.00741321
0.00756948
0.00726669
0.0068116
0.00634338
0.00590644
0.00581613
0.006228
0.00674316
0.00744
0.0084288
0.00861859
0.0076951
0.0069868
0.00643791
0.00597292
0.00583573
0.00626984
0.00681841
0.00754962
0.00845682
0.00832592
0.00752145
0.00690788
0.00641277
0.00597497
0.00581375
0.00622465
0.00669537
0.00717147
0.00749346
0.00739693
0.00704714
0.00667837
0.00630536
0.00592887
0.00575871
0.00610511
0.00644746
0.00670456
0.0068195
0.00676914
0.00661484
0.00641497
0.0061614
0.00586258
0.00568829
0.00592178
0.00613009
0.0062637
0.00631569
0.00629499
0.00622785
0.0061312
0.00598896
0.00579756
0.00565472
0.00570724
0.00580006
0.00586852
0.00589806
0.00589287
0.00586834
0.00583658
0.00580048
0.00578427
0.00563788
0.00565816
0.00571986
0.00576904
0.00578813
0.00576586
0.00570283
0.00561194
0.00551405
0.00546816
0.00567114
0.0058594
0.00602483
0.00613996
0.00619675
0.00617705
0.00608045
0.00592491
0.00572291
0.00551261
0.0057563
0.00605439
0.00634104
0.00657452
0.0067192
0.00670778
0.00653832
0.00627453
0.00595458
0.00563394
0.005832
0.00620793
0.00662577
0.00706246
0.00742937
0.00743238
0.00706512
0.00661377
0.00616752
0.00576582
0.00587686
0.00630268
0.00682794
0.00751554
0.00839323
0.00841264
0.00756271
0.00687759
0.00633069
0.00587623
0.00587789
0.006313
0.00685009
0.00754611
0.00841137
0.00842325
0.00761096
0.0069438
0.00640053
0.0059382
0.00583695
0.00623893
0.00668984
0.00715331
0.00752954
0.00754711
0.00722193
0.00680615
0.00636833
0.005944
0.00576835
0.00610308
0.00643417
0.00670496
0.0068775
0.00690171
0.00678422
0.00656803
0.00626175
0.0059075
0.00569081
0.00591475
0.00612272
0.00627774
0.00637353
0.00640221
0.00636617
0.00626799
0.00609049
0.00584816
0.00565641
0.00570429
0.00580205
0.00588886
0.00594868
0.00597559
0.00597103
0.00593699
0.00587263
0.00581317
0.00571692
0.00575011
0.00580869
0.00584168
0.005834
0.00578312
0.00569999
0.0056032
0.00551423
0.00549227
0.00575087
0.00595907
0.00612809
0.00622393
0.00623866
0.0061692
0.0060367
0.00586897
0.0056793
0.00550094
0.00583284
0.00615563
0.00645649
0.00667426
0.00675663
0.00665975
0.00643637
0.00616204
0.00586499
0.00558571
0.00590101
0.00630126
0.00674229
0.00718106
0.00747147
0.00732555
0.00689839
0.00645509
0.00604356
0.00568822
0.00593241
0.00637453
0.00691813
0.00762859
0.00850055
0.008291
0.00739536
0.00672239
0.0062004
0.00578423
0.00591611
0.00635554
0.00689373
0.00760434
0.00859789
0.0086571
0.00762073
0.00686513
0.0062942
0.00584547
0.00585897
0.00625729
0.00670179
0.00717849
0.00763072
0.0077217
0.00732287
0.00679558
0.00628589
0.00584853
0.00577798
0.00610668
0.006434
0.00671962
0.00693311
0.0069911
0.00684767
0.00655306
0.00617007
0.00579026
0.00569172
0.00591101
0.00611909
0.00628467
0.00639696
0.00642939
0.0063634
0.00620182
0.0059581
0.00569031
0.0056518
0.00569861
0.00579821
0.0058902
0.00595244
0.00596654
0.00592286
0.00582658
0.00569999
0.00561215
0.00578292
0.00582763
0.00588497
0.00590613
0.00588016
0.00581112
0.00571546
0.00561378
0.00552802
0.00551833
0.00581912
0.0060431
0.00621422
0.00629614
0.00628329
0.00618562
0.00603638
0.00586559
0.00568546
0.00552415
0.00589644
0.006237
0.0065457
0.00674909
0.00678584
0.0066392
0.00639551
0.00612726
0.00585165
0.00559766
0.00595611
0.00637369
0.00683037
0.00726636
0.00748401
0.00723314
0.00679046
0.0063748
0.00600113
0.00568158
0.00597473
0.00643122
0.0069979
0.00775051
0.00861296
0.00808932
0.00721061
0.00659555
0.00612612
0.00575533
0.0059416
0.00638971
0.00694879
0.00772428
0.00895096
0.00859747
0.007432
0.00671148
0.00619092
0.00579275
0.00586493
0.00626588
0.00672053
0.00722394
0.00770442
0.00769188
0.00717551
0.00663051
0.00615507
0.00577019
0.00576367
0.00609085
0.00641972
0.00670801
0.00690927
0.00691226
0.00669874
0.00637413
0.00601376
0.00568782
0.00565923
0.00587686
0.00608308
0.00624255
0.0063347
0.00632576
0.00621124
0.00602336
0.00579395
0.00557532
0.00560915
0.00565737
0.00575554
0.00584138
0.00588605
0.00586909
0.00579151
0.00567725
0.00556057
0.00550978
0.00565666
0.00572494
0.00581236
0.00585811
0.00584773
0.00578608
0.00569336
0.00559492
0.0055135
0.00550985
0.00573067
0.00597133
0.00616223
0.00625824
0.0062524
0.00615771
0.00601073
0.00584616
0.00567729
0.00552784
0.00584675
0.00619992
0.00652041
0.00672513
0.00675342
0.0066018
0.00636211
0.00610521
0.00584844
0.00561156
0.00593841
0.00636685
0.00683529
0.00726763
0.00744555
0.00716608
0.00673713
0.00634514
0.00599895
0.00570192
0.0059761
0.00644466
0.00703612
0.00782797
0.00863784
0.00793831
0.00711096
0.00654502
0.00611599
0.00577607
0.00594693
0.00640595
0.00699476
0.00784176
0.00919009
0.00833064
0.00727316
0.00663137
0.00616652
0.00580892
0.00586197
0.00626771
0.00673556
0.00724939
0.00767039
0.00751427
0.00700982
0.0065319
0.00611895
0.00578245
0.0057481
0.00607391
0.00640162
0.00667687
0.00683564
0.00678572
0.00656773
0.0062841
0.0059795
0.0057039
0.00563486
0.00584992
0.00605089
0.0061976
0.00626761
0.00623896
0.00612671
0.00596702
0.00578053
0.00560622
0.00558797
0.00563479
0.00572831
0.00580686
0.00584255
0.00582151
0.0057536
0.0056645
0.00558224
0.0055679
0.00546024
0.00552402
0.00563132
0.00571288
0.00574181
0.00571436
0.00564855
0.00556907
0.00549912
0.00549738
0.00553483
0.00576376
0.00597402
0.00610788
0.00614289
0.00608358
0.005966
0.00582465
0.00566966
0.00552509
0.00568034
0.00602358
0.00636019
0.00659423
0.00665329
0.00653218
0.00632178
0.00609214
0.00585292
0.00562312
0.00581979
0.0062456
0.00673133
0.00717886
0.00735018
0.00708878
0.00669478
0.00633666
0.00601368
0.00572608
0.00590766
0.00638142
0.00699927
0.00781052
0.00846937
0.00778429
0.00704819
0.00653445
0.00613664
0.00580837
0.0059144
0.00638104
0.00699482
0.0078424
0.0087681
0.00801313
0.00717316
0.00661274
0.0061889
0.00584573
0.00584673
0.00625632
0.00673513
0.00723064
0.00754725
0.00735794
0.00692889
0.00651595
0.00614451
0.00582372
0.00574057
0.006067
0.00639769
0.00666242
0.0067924
0.00673187
0.00653836
0.00629097
0.00601685
0.00575349
0.00563475
0.00585132
0.00605506
0.0062004
0.00626589
0.00623973
0.00614244
0.00600354
0.00583498
0.00566667
0.0055979
0.00564941
0.00574735
0.00582866
0.00586709
0.00585273
0.00579715
0.00572212
0.00565054
0.00563786
0.0053919
0.00541975
0.00550547
0.00558533
0.00563251
0.00563539
0.00560022
0.00554342
0.00548525
0.0054829
0.00542805
0.00561068
0.00579438
0.00593172
0.00599822
0.00598428
0.00590775
0.00579323
0.00564886
0.00550177
0.00555444
0.0058481
0.00615189
0.00638834
0.0064898
0.0064303
0.00626972
0.006067
0.00583371
0.00559752
0.00569819
0.00608249
0.00653603
0.00697393
0.00718193
0.00699385
0.00665439
0.00632039
0.00599873
0.00570071
0.00581491
0.00626504
0.00687043
0.00767981
0.00831778
0.00768177
0.00700624
0.00651912
0.0061231
0.00578285
0.0058626
0.00632444
0.0069539
0.00785223
0.00876283
0.00790536
0.00712304
0.0065941
0.00617554
0.00582044
0.00583112
0.00624471
0.00674009
0.007252
0.00753937
0.00731687
0.00690194
0.0065061
0.00613708
0.00580267
0.00575051
0.0060823
0.00642164
0.0066887
0.00680779
0.00673758
0.00654475
0.0062999
0.00602082
0.00574106
0.00566143
0.00588116
0.00608809
0.00623359
0.00629608
0.00626785
0.00616985
0.00602762
0.00584893
0.00566306
0.00563049
0.00568364
0.00578223
0.00586231
0.00589852
0.00588292
0.00582609
0.00574658
0.0056642
0.00563556
0.0054304
0.00542096
0.00547117
0.0055272
0.00556922
0.00558469
0.00557062
0.00553362
0.00548815
0.00549194
0.00543604
0.00557173
0.00570951
0.00581756
0.00588318
0.00589357
0.00584919
0.00575946
0.00562812
0.00548571
0.00553794
0.00577568
0.00601675
0.00620909
0.00631434
0.00630182
0.00619021
0.00601556
0.0057921
0.00555752
0.00566759
0.00599616
0.00637258
0.00673119
0.0069367
0.0068419
0.00657074
0.00626058
0.00594098
0.00564023
0.00578874
0.00619913
0.00674173
0.00744176
0.00801513
0.00756527
0.00694147
0.00645811
0.00605455
0.00570799
0.0058615
0.00631401
0.00695015
0.00794956
0.00940962
0.00799804
0.00709996
0.00653929
0.00610464
0.0057412
0.00586528
0.00629103
0.0068222
0.00741599
0.0077518
0.00740343
0.00690173
0.00646591
0.00607599
0.00573179
0.00581619
0.00616091
0.00651581
0.00679439
0.00689882
0.00678464
0.00655112
0.00627678
0.00597763
0.00568809
0.00574786
0.00596687
0.00616569
0.00629728
0.00634057
0.00629119
0.00617413
0.00601531
0.00582304
0.00563085
0.00571949
0.00575799
0.005837
0.00589655
0.00591521
0.00588672
0.00582091
0.00573435
0.00564623
0.00561655
0.005445
0.00543344
0.00547365
0.00552006
0.00556088
0.00558768
0.00559492
0.00558323
0.00556029
0.00557964
0.00545778
0.00558497
0.00569928
0.00578249
0.00583802
0.00585911
0.00584001
0.00577911
0.0056717
0.00554357
0.0055703
0.00578637
0.00598313
0.00612757
0.00621106
0.00621533
0.00614048
0.00600012
0.0058005
0.00557939
0.00571028
0.0060094
0.00631934
0.00658807
0.00674199
0.00669006
0.00648285
0.00621266
0.00591497
0.00562783
0.00584684
0.00623269
0.00670295
0.00724523
0.00763394
0.00735452
0.00684025
0.00639158
0.00600349
0.00566973
0.00594409
0.00639168
0.00700037
0.0079416
0.00929379
0.00795073
0.00704206
0.00647559
0.00604394
0.0056909
0.00597621
0.00641029
0.00694621
0.00756963
0.00792513
0.00746709
0.00688662
0.00641878
0.00602215
0.00568517
0.00594717
0.00628983
0.00662687
0.00688471
0.00696367
0.00681167
0.00654357
0.00624787
0.005942
0.00565763
0.00588123
0.00607632
0.00623851
0.00633781
0.00635845
0.00629367
0.00616607
0.00600121
0.0058085
0.00562202
0.00583058
0.00583118
0.00587237
0.00590448
0.00590856
0.00587553
0.0058109
0.00572832
0.00564559
0.00562377
0.00546134
0.00546943
0.0055169
0.00556493
0.0056072
0.00564076
0.0056647
0.00568055
0.00568917
0.00573038
0.00548784
0.00564266
0.00576443
0.00584389
0.00589289
0.00591479
0.00591009
0.00587608
0.00579693
0.00568057
0.00562535
0.00586721
0.0060661
0.00619765
0.00626499
0.00626415
0.00620121
0.00608362
0.00590313
0.00568477
0.00579379
0.00611647
0.0064201
0.00666163
0.00678589
0.00672547
0.00652809
0.00627232
0.0059839
0.00569571
0.00595926
0.00636412
0.00681629
0.00730413
0.007632
0.00736844
0.00686933
0.0064254
0.00603905
0.00570366
0.00608491
0.00654484
0.00711437
0.00792028
0.00886759
0.00791944
0.00705286
0.00648765
0.00605506
0.00570101
0.00613918
0.00657654
0.0070537
0.00756004
0.00783723
0.00744298
0.00688404
0.00641813
0.0060217
0.00568412
0.00611327
0.00644986
0.00672417
0.00690745
0.00694746
0.00679617
0.00653407
0.00624213
0.00593912
0.00565443
0.00601819
0.00620731
0.00631834
0.00636636
0.00635522
0.00627883
0.00614996
0.00598859
0.00580154
0.00561794
0.00591897
0.00592045
0.00592818
0.00592695
0.00590639
0.00586047
0.00579113
0.00570907
0.00562984
0.00561265
0.00549494
0.00556166
0.00566647
0.00575541
0.00581906
0.00585865
0.00588275
0.00590135
0.00591303
0.00594086
0.00549733
0.00571027
0.00590045
0.00603819
0.00612415
0.00616242
0.00616303
0.00613266
0.00604778
0.0059002
0.00559473
0.00590278
0.00618367
0.00639401
0.00651563
0.00653416
0.00646796
0.0063417
0.0061408
0.00588069
0.00571845
0.00610886
0.0065053
0.00685259
0.00706433
0.00702257
0.00679676
0.00651289
0.00619514
0.00586722
0.00582343
0.00628662
0.00681946
0.00740924
0.00788386
0.00766302
0.00710969
0.00663257
0.00622253
0.00585743
0.00585973
0.00635184
0.00694244
0.00765304
0.0083324
0.00793191
0.00719548
0.00665027
0.0062168
0.00584642
0.00580041
0.00625243
0.00674066
0.00719374
0.00746821
0.00732936
0.00694032
0.00654175
0.00617011
0.00582937
0.00566753
0.00603063
0.00636827
0.00661542
0.00674079
0.0067109
0.00655481
0.00633458
0.00607492
0.00580128
0.0055075
0.0057515
0.0059624
0.00611105
0.00619406
0.00620531
0.00615167
0.00605236
0.00591594
0.00575972
0.00540128
0.00548552
0.00559913
0.00569935
0.00576821
0.00579762
0.00578939
0.00575857
0.00572395
0.00574136
0.00551451
0.00559508
0.0057543
0.00590498
0.00601444
0.00607845
0.00611424
0.00613804
0.00614679
0.00611253
0.00552578
0.00576028
0.00601585
0.00623041
0.00637431
0.00644007
0.0064485
0.00641647
0.0063142
0.00610953
0.005568
0.00589844
0.00626544
0.00659502
0.00681617
0.00686686
0.00678484
0.006635
0.00640711
0.00610325
0.00560906
0.00599708
0.00647846
0.00701006
0.0074439
0.00744998
0.00714949
0.00681236
0.00646426
0.00610173
0.00561922
0.00603047
0.00658583
0.00734846
0.00833655
0.00822455
0.00746991
0.00692615
0.00649364
0.00610204
0.00557745
0.00596211
0.00646924
0.00712147
0.00789318
0.00797758
0.0073945
0.00689257
0.00647308
0.00608854
0.00548517
0.00580581
0.00619103
0.00659266
0.00695021
0.00709165
0.00695573
0.00669653
0.00638462
0.0060459
0.00536995
0.00561123