/*--------------------------------*- C++ -*----------------------------------*\
| =========                 |                                                 |
| \\      /  F ield         | OpenFOAM: The Open Source CFD Toolbox           |
|  \\    /   O peration     | Version:  2406                                  |
|   \\  /    A nd           | Website:  www.openfoam.com                      |
|    \\/     M anipulation  |                                                 |
\*---------------------------------------------------------------------------*/
FoamFile
{
    version     2.0;
    format      ascii;
    arch        "LSB;label=32;scalar=64";
    class       volScalarField;
    location    "0.5";
    object      turbulenceProperties:nut;
}
// * * * * * * * * * * * * * * * * * * * * * * * * * * * * * * * * * * * * * //

dimensions      [0 2 -1 0 0 0 0];

internalField   uniform 0;

boundaryField
{
    walls
    {
        type            nutUSpaldingWallFunction;
        value           nonuniform List<scalar> 
2000
(
3.16913e-09
4.54637e-09
5.99489e-09
7.18301e-09
7.85308e-09
7.85413e-09
7.18585e-09
5.99873e-09
4.55045e-09
3.17235e-09
1.90666e-09
2.67826e-09
3.51799e-09
4.22357e-09
4.62642e-09
4.62571e-09
4.22133e-09
3.51424e-09
2.67312e-09
1.90112e-09
1.09777e-09
1.5024e-09
1.93728e-09
2.30403e-09
2.51059e-09
2.50303e-09
2.28276e-09
1.90627e-09
1.46808e-09
1.06734e-09
1.40326e-09
1.91273e-09
2.44042e-09
2.8708e-09
3.10506e-09
3.08648e-09
2.81998e-09
2.36903e-09
1.83864e-09
1.341e-09
1.39255e-09
1.86293e-09
2.33524e-09
2.70933e-09
2.90527e-09
2.87739e-09
2.63283e-09
2.22533e-09
1.74414e-09
1.2813e-09
1.65684e-09
2.19366e-09
2.72427e-09
3.13669e-09
3.34587e-09
3.30236e-09
3.01314e-09
2.53523e-09
1.96742e-09
1.4155e-09
1.82314e-09
2.38388e-09
2.92938e-09
3.34379e-09
3.53786e-09
3.46291e-09
3.12849e-09
2.59905e-09
1.98142e-09
1.39245e-09
1.95401e-09
2.56214e-09
3.15217e-09
3.59502e-09
3.78898e-09
3.68711e-09
3.30674e-09
2.7287e-09
2.06834e-09
1.45495e-09
1.8957e-09
2.5306e-09
3.15373e-09
3.62128e-09
3.81843e-09
3.69824e-09
3.28714e-09
2.6826e-09
2.01251e-09
1.41796e-09
1.79775e-09
2.45027e-09
3.09245e-09
3.56356e-09
3.73613e-09
3.56258e-09
3.08491e-09
2.42444e-09
1.73764e-09
1.17508e-09
1.73497e-09
2.36637e-09
2.96862e-09
3.38133e-09
3.48324e-09
3.24023e-09
2.71525e-09
2.04556e-09
1.39563e-09
8.97395e-10
1.72026e-09
2.3039e-09
2.83182e-09
3.16283e-09
3.19844e-09
2.92427e-09
2.4123e-09
1.7923e-09
1.20824e-09
7.65409e-10
1.74723e-09
2.3027e-09
2.7819e-09
3.06528e-09
3.07526e-09
2.80849e-09
2.33201e-09
1.75872e-09
1.21058e-09
7.80393e-10
1.79403e-09
2.38862e-09
2.9028e-09
3.21693e-09
3.25651e-09
3.01658e-09
2.55624e-09
1.98092e-09
1.40405e-09
9.2768e-10
1.71677e-09
2.39744e-09
3.04694e-09
3.50669e-09
3.66772e-09
3.50052e-09
3.05499e-09
2.44418e-09
1.79226e-09
1.22836e-09
1.32977e-09
2.00691e-09
2.76915e-09
3.42292e-09
3.8031e-09
3.82211e-09
3.49717e-09
2.93241e-09
2.26799e-09
1.64755e-09
9.32862e-10
1.49416e-09
2.21681e-09
2.93936e-09
3.4807e-09
3.70004e-09
3.55295e-09
3.09749e-09
2.47111e-09
1.833e-09
8.02915e-10
1.26427e-09
1.86782e-09
2.5059e-09
3.01574e-09
3.25057e-09
3.13252e-09
2.69456e-09
2.07667e-09
1.47037e-09
7.92473e-10
1.23425e-09
1.78491e-09
2.3471e-09
2.76402e-09
2.91033e-09
2.72563e-09
2.25934e-09
1.65669e-09
1.10953e-09
7.80462e-10
1.23803e-09
1.80011e-09
2.35945e-09
2.75288e-09
2.86569e-09
2.65654e-09
2.18733e-09
1.60256e-09
1.07422e-09
7.74304e-10
1.23745e-09
1.81973e-09
2.38955e-09
2.79209e-09
2.91068e-09
2.71119e-09
2.25572e-09
1.68573e-09
1.16117e-09
7.62228e-10
1.20508e-09
1.76552e-09
2.31e-09
2.70143e-09
2.82808e-09
2.65741e-09
2.24397e-09
1.71721e-09
1.22176e-09
7.47135e-10
1.1406e-09
1.61904e-09
2.08369e-09
2.42589e-09
2.55537e-09
2.44039e-09
2.11834e-09
1.68645e-09
1.25805e-09
8.48503e-10
1.21903e-09
1.62591e-09
2.00635e-09
2.27777e-09
2.38006e-09
2.28929e-09
2.02834e-09
1.6695e-09
1.29308e-09
1.02561e-09
1.39651e-09
1.73863e-09
2.01723e-09
2.18212e-09
2.20544e-09
2.08241e-09
1.83108e-09
1.51176e-09
1.16592e-09
1.46604e-09
1.86893e-09
2.23399e-09
2.52049e-09
2.70019e-09
2.7377e-09
2.62155e-09
2.34321e-09
1.95835e-09
1.48156e-09
2.45144e-09
3.06677e-09
3.6893e-09
4.19088e-09
4.49321e-09
4.49988e-09
4.17959e-09
3.54617e-09
2.74072e-09
1.87413e-09
3.63887e-09
4.59136e-09
5.5196e-09
6.18247e-09
6.39129e-09
6.034e-09
5.15719e-09
3.94737e-09
2.70277e-09
1.65856e-09
4.21159e-09
5.35504e-09
6.29258e-09
6.75667e-09
6.56495e-09
5.73634e-09
4.48828e-09
3.14616e-09
2.00756e-09
1.20323e-09
3.58985e-09
4.83474e-09
5.82257e-09
6.24071e-09
5.94666e-09
5.05824e-09
3.84252e-09
2.61232e-09
1.57992e-09
8.70719e-10
2.07135e-09
3.06537e-09
4.02965e-09
4.65784e-09
4.70806e-09
4.20905e-09
3.3471e-09
2.39546e-09
1.53875e-09
9.33459e-10
1.11741e-09
1.78614e-09
2.50469e-09
3.1499e-09
3.45347e-09
3.34113e-09
2.86418e-09
2.17753e-09
1.50597e-09
9.55873e-10
9.11766e-10
1.52941e-09
2.13142e-09
2.70901e-09
3.01729e-09
2.99508e-09
2.65689e-09
2.08474e-09
1.51558e-09
9.89953e-10
6.7493e-10
1.11125e-09
1.65392e-09
2.12461e-09
2.43226e-09
2.494e-09
2.32588e-09
1.98119e-09
1.58868e-09
1.1867e-09
1.06741e-09
1.62203e-09
2.19719e-09
2.60347e-09
2.74682e-09
2.58673e-09
2.17667e-09
1.62086e-09
1.09043e-09
6.6352e-10
1.5251e-09
2.23593e-09
2.87581e-09
3.40516e-09
3.62048e-09
3.4885e-09
3.02435e-09
2.31961e-09
1.60876e-09
9.52163e-10
2.94628e-09
4.14455e-09
5.23418e-09
6.03463e-09
6.25096e-09
5.84272e-09
4.89416e-09
3.62829e-09
2.40262e-09
1.42436e-09
7.89541e-09
1.19778e-08
1.64038e-08
2.02368e-08
2.25298e-08
2.2715e-08
2.06561e-08
1.68139e-08
1.21015e-08
7.82718e-09
2.69624e-08
4.4034e-08
6.31008e-08
7.9507e-08
8.95454e-08
9.08051e-08
8.29288e-08
6.78164e-08
4.91571e-08
3.17569e-08
5.33778e-08
8.24858e-08
1.13215e-07
1.37847e-07
1.50573e-07
1.48387e-07
1.31915e-07
1.05593e-07
7.65097e-08
5.16777e-08
5.5725e-08
8.39328e-08
1.12768e-07
1.34612e-07
1.43553e-07
1.37652e-07
1.1914e-07
9.36712e-08
6.83037e-08
4.80817e-08
4.98721e-08
7.60623e-08
1.01837e-07
1.19155e-07
1.21956e-07
1.10027e-07
8.81871e-08
6.36049e-08
4.22754e-08
2.73912e-08
4.63718e-08
7.09246e-08
9.38628e-08
1.05529e-07
1.00456e-07
8.17944e-08
5.77135e-08
3.59922e-08
2.01445e-08
1.00909e-08
4.76568e-08
7.26144e-08
9.82027e-08
1.14464e-07
1.15548e-07
1.03199e-07
8.25977e-08
5.952e-08
3.90281e-08
2.38615e-08
6.21852e-08
9.67251e-08
1.3706e-07
1.70676e-07
1.87205e-07
1.82966e-07
1.60671e-07
1.26609e-07
8.75413e-08
5.29401e-08
7.31521e-08
1.15202e-07
1.65142e-07
2.07142e-07
2.276e-07
2.18536e-07
1.8183e-07
1.28678e-07
7.39646e-08
3.24665e-08
8.5816e-08
1.29304e-07
1.75826e-07
2.072e-07
2.1074e-07
1.82577e-07
1.31452e-07
7.52442e-08
3.14718e-08
8.03919e-09
1.0742e-07
1.51808e-07
1.90935e-07
2.07064e-07
1.91938e-07
1.50533e-07
1.00309e-07
5.87273e-08
2.89489e-08
1.40444e-08
1.61196e-07
2.22498e-07
2.71797e-07
2.8915e-07
2.68424e-07
2.18918e-07
1.61141e-07
1.14815e-07
8.77963e-08
7.14628e-08
2.07728e-07
2.70505e-07
3.30365e-07
3.70474e-07
3.88346e-07
3.86309e-07
3.68843e-07
3.357e-07
2.86103e-07
2.204e-07
3.16652e-09
4.54128e-09
5.98746e-09
7.17404e-09
7.84377e-09
7.84566e-09
7.17897e-09
5.99369e-09
4.54676e-09
3.17006e-09
1.87319e-09
2.64011e-09
3.48203e-09
4.19519e-09
4.60838e-09
4.61826e-09
4.2224e-09
3.52073e-09
2.68072e-09
1.90808e-09
9.98446e-10
1.38376e-09
1.8157e-09
2.19739e-09
2.43141e-09
2.45733e-09
2.26879e-09
1.91671e-09
1.49156e-09
1.09443e-09
1.22477e-09
1.69614e-09
2.21129e-09
2.66269e-09
2.94445e-09
2.98888e-09
2.78508e-09
2.38378e-09
1.88156e-09
1.39233e-09
1.17055e-09
1.59909e-09
2.05716e-09
2.45719e-09
2.71341e-09
2.76743e-09
2.60666e-09
2.26766e-09
1.82821e-09
1.3799e-09
1.33423e-09
1.85136e-09
2.4038e-09
2.88123e-09
3.18932e-09
3.26313e-09
3.08951e-09
2.70612e-09
2.19623e-09
1.65793e-09
1.22325e-09
1.80381e-09
2.46318e-09
3.05614e-09
3.4624e-09
3.5977e-09
3.44237e-09
3.03531e-09
2.4683e-09
1.85471e-09
1.05803e-09
1.69076e-09
2.47118e-09
3.22321e-09
3.77489e-09
3.99933e-09
3.85567e-09
3.39074e-09
2.72358e-09
2.01282e-09
8.84026e-10
1.47581e-09
2.25591e-09
3.06344e-09
3.69491e-09
3.98479e-09
3.86258e-09
3.37763e-09
2.67329e-09
1.94662e-09
8.19885e-10
1.33652e-09
2.03276e-09
2.78311e-09
3.39606e-09
3.69994e-09
3.60712e-09
3.15736e-09
2.49333e-09
1.81523e-09
8.40116e-10
1.30527e-09
1.91924e-09
2.579e-09
3.12457e-09
3.40646e-09
3.34028e-09
2.95082e-09
2.35706e-09
1.73528e-09
8.79832e-10
1.33573e-09
1.92001e-09
2.53158e-09
3.03089e-09
3.29009e-09
3.23587e-09
2.88399e-09
2.33125e-09
1.73112e-09
9.03383e-10
1.36618e-09
1.94833e-09
2.54253e-09
3.02066e-09
3.26626e-09
3.2154e-09
2.88148e-09
2.35016e-09
1.76044e-09
9.11138e-10
1.36375e-09
1.92679e-09
2.49032e-09
2.93852e-09
3.16506e-09
3.11541e-09
2.80411e-09
2.31157e-09
1.76311e-09
9.14792e-10
1.34909e-09
1.88004e-09
2.39973e-09
2.79751e-09
2.9785e-09
2.89949e-09
2.58412e-09
2.1177e-09
1.62365e-09
9.64971e-10
1.3949e-09
1.89475e-09
2.35708e-09
2.66862e-09
2.74797e-09
2.57058e-09
2.1832e-09
1.6939e-09
1.23567e-09
1.12003e-09
1.56858e-09
2.04658e-09
2.44252e-09
2.64486e-09
2.59391e-09
2.29582e-09
1.82816e-09
1.31552e-09
8.86927e-10
1.40021e-09
1.89455e-09
2.36802e-09
2.70854e-09
2.81727e-09
2.6613e-09
2.27525e-09
1.75746e-09
1.22645e-09
8.03214e-10
1.7275e-09
2.29146e-09
2.80128e-09
3.12724e-09
3.17494e-09
2.92729e-09
2.44361e-09
1.84286e-09
1.25632e-09
8.06838e-10
1.61179e-09
2.17787e-09
2.73749e-09
3.11609e-09
3.19838e-09
2.95434e-09
2.45392e-09
1.82668e-09
1.23174e-09
7.75764e-10
1.16309e-09
1.65138e-09
2.20128e-09
2.62684e-09
2.79513e-09
2.6503e-09
2.24481e-09
1.69578e-09
1.1614e-09
7.41937e-10
8.29114e-10
1.20101e-09
1.6455e-09
2.02781e-09
2.23212e-09
2.19393e-09
1.9294e-09
1.51874e-09
1.08399e-09
7.21459e-10
6.85307e-10
9.54479e-10
1.27767e-09
1.58186e-09
1.77776e-09
1.80936e-09
1.66299e-09
1.37954e-09
1.03653e-09
7.21754e-10
5.32721e-10
7.4128e-10
1.0126e-09
1.31353e-09
1.55183e-09
1.6683e-09
1.62429e-09
1.43397e-09
1.14474e-09
8.40202e-10
6.04229e-10
8.55386e-10
1.10397e-09
1.39363e-09
1.61031e-09
1.72808e-09
1.71128e-09
1.55995e-09
1.3073e-09
1.00254e-09
9.50689e-10
1.44212e-09
1.91186e-09
2.33969e-09
2.5915e-09
2.64773e-09
2.51914e-09
2.24234e-09
1.8807e-09
1.45333e-09
1.36559e-09
2.11052e-09
3.00771e-09
3.78462e-09
4.31068e-09
4.48414e-09
4.32432e-09
3.88685e-09
3.27117e-09
2.51293e-09
1.23788e-09
2.14582e-09
3.37505e-09
4.67066e-09
5.74347e-09
6.35403e-09
6.40089e-09
5.89905e-09
4.99383e-09
3.81162e-09
8.10284e-10
1.55391e-09
2.65789e-09
4.05437e-09
5.42639e-09
6.43926e-09
6.82476e-09
6.50056e-09
5.59909e-09
4.35341e-09
5.30917e-10
1.16264e-09
2.05377e-09
3.18114e-09
4.30454e-09
5.16766e-09
5.51639e-09
5.2603e-09
4.50409e-09
3.53379e-09
2.96939e-10
7.2511e-10
1.44748e-09
2.37923e-09
3.25169e-09
3.826e-09
3.92106e-09
3.53468e-09
2.7991e-09
2.04418e-09
8.44781e-10
1.29751e-09
1.77132e-09
2.33598e-09
2.78348e-09
2.99126e-09
2.84826e-09
2.37961e-09
1.73397e-09
1.1385e-09
9.67198e-10
1.5096e-09
2.00999e-09
2.49777e-09
2.75626e-09
2.73879e-09
2.45257e-09
1.9301e-09
1.40031e-09
8.61177e-10
9.88807e-10
1.29458e-09
1.62647e-09
1.90325e-09
2.03321e-09
1.95807e-09
1.69365e-09
1.28464e-09
9.04581e-10
5.59373e-10
9.29253e-10
1.29105e-09
1.90736e-09
2.51924e-09
2.91485e-09
2.94653e-09
2.65351e-09
2.12455e-09
1.59132e-09
1.02891e-09
1.21229e-09
2.05163e-09
3.1505e-09
4.27964e-09
5.00693e-09
5.16606e-09
4.7536e-09
3.84737e-09
2.86673e-09
1.73109e-09
2.24606e-09
3.65971e-09
5.39321e-09
7.25817e-09
8.52711e-09
8.92651e-09
8.34807e-09
6.9198e-09
5.21167e-09
3.33743e-09
7.25601e-09
1.07716e-08
1.5012e-08
1.92941e-08
2.21974e-08
2.28857e-08
2.11178e-08
1.73476e-08
1.27418e-08
8.27922e-09
3.00205e-08
4.51371e-08
6.10267e-08
7.43081e-08
8.1466e-08
8.05222e-08
7.15703e-08
5.68417e-08
4.03465e-08
2.60049e-08
5.27265e-08
8.04574e-08
1.10954e-07
1.36815e-07
1.51952e-07
1.52213e-07
1.37137e-07
1.10448e-07
7.96337e-08
5.25865e-08
4.52252e-08
6.80816e-08
9.51235e-08
1.19918e-07
1.36875e-07
1.4101e-07
1.30217e-07
1.07202e-07
7.9784e-08
5.55945e-08
4.80441e-08
6.94419e-08
9.2751e-08
1.12695e-07
1.24451e-07
1.24747e-07
1.12766e-07
9.18904e-08
6.91631e-08
4.98838e-08
5.85176e-08
8.71788e-08
1.14807e-07
1.36242e-07
1.4531e-07
1.39122e-07
1.19588e-07
9.30421e-08
6.72043e-08
4.70117e-08
4.17594e-08
7.64531e-08
1.13912e-07
1.43298e-07
1.55711e-07
1.48976e-07
1.26961e-07
9.80706e-08
7.04823e-08
4.85802e-08
2.85856e-08
5.37252e-08
9.34262e-08
1.36922e-07
1.62521e-07
1.62536e-07
1.43411e-07
1.1518e-07
8.61192e-08
6.13164e-08
3.59073e-08
4.27309e-08
6.22431e-08
1.00594e-07
1.38574e-07
1.51283e-07
1.39766e-07
1.16306e-07
9.06774e-08
6.87311e-08
9.25178e-08
9.51646e-08
8.39989e-08
9.35285e-08
1.241e-07
1.46907e-07
1.41953e-07
1.22402e-07
1.01765e-07
8.21695e-08
1.69707e-07
1.79911e-07
1.57149e-07
1.42578e-07
1.54765e-07
1.7835e-07
1.79282e-07
1.6453e-07
1.41855e-07
1.11668e-07
1.5438e-07
1.71453e-07
1.98932e-07
2.39333e-07
2.97609e-07
3.47231e-07
3.52186e-07
3.17434e-07
2.53315e-07
1.78981e-07
2.25299e-07
3.69018e-07
5.21404e-07
6.59127e-07
7.50819e-07
7.71219e-07
7.0408e-07
5.67863e-07
4.01037e-07
2.46667e-07
3.16901e-09
4.54454e-09
5.99076e-09
7.17583e-09
7.84326e-09
7.84274e-09
7.17436e-09
5.98857e-09
4.54219e-09
3.16695e-09
1.89081e-09
2.66091e-09
3.50223e-09
4.2099e-09
4.61472e-09
4.61422e-09
4.20741e-09
3.49615e-09
2.6501e-09
1.87737e-09
1.0149e-09
1.40624e-09
1.84167e-09
2.21863e-09
2.43868e-09
2.44171e-09
2.22528e-09
1.8474e-09
1.40519e-09
1.00673e-09
1.17762e-09
1.64514e-09
2.16356e-09
2.61495e-09
2.88579e-09
2.90551e-09
2.66768e-09
2.23476e-09
1.71414e-09
1.23168e-09
9.54939e-10
1.35451e-09
1.80943e-09
2.2187e-09
2.48298e-09
2.53579e-09
2.3655e-09
2.01893e-09
1.58452e-09
1.16555e-09
9.60383e-10
1.40106e-09
1.91044e-09
2.37192e-09
2.67989e-09
2.75777e-09
2.59083e-09
2.22592e-09
1.76002e-09
1.30285e-09
9.69511e-10
1.39293e-09
1.86853e-09
2.28403e-09
2.54139e-09
2.57322e-09
2.37479e-09
2.00105e-09
1.55577e-09
1.14471e-09
1.04819e-09
1.45613e-09
1.88734e-09
2.24087e-09
2.42373e-09
2.38654e-09
2.13911e-09
1.7473e-09
1.31806e-09
9.50728e-10
1.11428e-09
1.5076e-09
1.90307e-09
2.20873e-09
2.33781e-09
2.2535e-09
1.97409e-09
1.57099e-09
1.1476e-09
8.00092e-10
1.29712e-09
1.73167e-09
2.15431e-09
2.46554e-09
2.57687e-09
2.45332e-09
2.11901e-09
1.65694e-09
1.17638e-09
7.88184e-10
1.5296e-09
2.03975e-09
2.52884e-09
2.87577e-09
2.98409e-09
2.81616e-09
2.40673e-09
1.85785e-09
1.29587e-09
8.4766e-10
1.6877e-09
2.26806e-09
2.82182e-09
3.20375e-09
3.30921e-09
3.09996e-09
2.62501e-09
2.0048e-09
1.38483e-09
8.96536e-10
1.69585e-09
2.29548e-09
2.86944e-09
3.26047e-09
3.36069e-09
3.13523e-09
2.64359e-09
2.01288e-09
1.39407e-09
9.07389e-10
1.56238e-09
2.12054e-09
2.66499e-09
3.04529e-09
3.15712e-09
2.96637e-09
2.52667e-09
1.95087e-09
1.37646e-09
9.09276e-10
1.39637e-09
1.901e-09
2.41174e-09
2.79542e-09
2.94769e-09
2.82496e-09
2.45898e-09
1.94007e-09
1.39328e-09
9.26215e-10
1.29366e-09
1.77115e-09
2.27245e-09
2.67849e-09
2.88007e-09
2.82014e-09
2.50847e-09
2.02067e-09
1.47523e-09
9.92631e-10
1.27811e-09
1.76456e-09
2.29217e-09
2.74415e-09
3.00137e-09
2.99295e-09
2.71382e-09
2.23475e-09
1.67055e-09
1.1567e-09
1.32928e-09
1.85226e-09
2.43224e-09
2.94409e-09
3.26048e-09
3.29892e-09
3.04619e-09
2.56977e-09
1.98279e-09
1.42741e-09
1.34193e-09
1.9379e-09
2.62568e-09
3.24791e-09
3.65966e-09
3.75797e-09
3.52258e-09
3.02031e-09
2.37694e-09
1.74438e-09
1.36611e-09
2.02796e-09
2.81155e-09
3.52774e-09
4.00003e-09
4.09721e-09
3.79122e-09
3.16502e-09
2.39003e-09
1.66345e-09
1.41829e-09
2.10024e-09
2.90059e-09
3.61863e-09
4.0445e-09
4.03661e-09
3.58255e-09
2.81144e-09
1.95497e-09
1.23809e-09
1.53941e-09
2.18564e-09
2.89651e-09
3.49113e-09
3.77328e-09
3.63346e-09
3.09541e-09
2.31698e-09
1.5269e-09
9.11418e-10
1.8011e-09
2.41865e-09
3.01748e-09
3.467e-09
3.61517e-09
3.39348e-09
2.83957e-09
2.1033e-09
1.37079e-09
8.04791e-10
2.16538e-09
2.87784e-09
3.47206e-09
3.8472e-09
3.88905e-09
3.56362e-09
2.91699e-09
2.10266e-09
1.29761e-09
7.04746e-10
2.44852e-09
3.295e-09
4.01255e-09
4.43856e-09
4.45318e-09
4.03673e-09
3.2768e-09
2.33619e-09
1.44841e-09
7.69116e-10
1.33476e-09
2.05575e-09
2.87244e-09
3.49196e-09
3.7299e-09
3.50937e-09
2.93654e-09
2.17049e-09
1.48627e-09
9.16421e-10
4.2577e-10
8.6131e-10
1.48678e-09
2.10121e-09
2.52138e-09
2.62275e-09
2.42046e-09
2.00669e-09
1.55922e-09
1.14581e-09
2.31701e-10
5.06865e-10
8.67175e-10
1.33486e-09
1.73795e-09
1.97722e-09
1.97981e-09
1.74567e-09
1.4078e-09
1.03076e-09
8.74593e-11
2.25064e-10
4.1258e-10
6.9707e-10
9.7328e-10
1.17978e-09
1.24582e-09
1.13758e-09
9.35221e-10
6.73948e-10
3.96121e-10
5.0786e-10
5.93363e-10
6.44498e-10
6.52468e-10
6.40025e-10
6.14701e-10
5.62332e-10
4.77924e-10
3.75077e-10
9.34524e-10
1.36537e-09
1.75363e-09
2.0557e-09
2.14156e-09
1.98915e-09
1.6133e-09
1.12332e-09
6.33062e-10
3.18391e-10
1.6375e-09
2.36706e-09
3.03913e-09
3.55907e-09
3.76823e-09
3.61537e-09
3.12135e-09
2.37986e-09
1.60428e-09
9.29048e-10
2.29475e-09
3.33287e-09
4.30978e-09
4.9899e-09
5.15685e-09
4.74371e-09
3.87146e-09
2.76294e-09
1.77985e-09
9.94982e-10
2.53407e-09
3.79554e-09
4.98985e-09
5.76443e-09
5.8693e-09
5.27602e-09
4.20963e-09
2.9826e-09
1.93043e-09
1.10929e-09
2.65982e-09
3.98865e-09
5.27917e-09
6.13356e-09
6.3104e-09
5.79521e-09
4.7834e-09
3.49194e-09
2.22343e-09
1.15664e-09
2.69863e-09
4.26866e-09
5.95742e-09
7.25713e-09
7.7959e-09
7.39232e-09
6.15068e-09
4.36796e-09
2.65963e-09
1.34732e-09
2.75563e-09
5.13588e-09
8.06774e-09
1.06876e-08
1.21839e-08
1.20532e-08
1.03265e-08
7.58204e-09
4.78487e-09
2.61097e-09
8.64921e-09
1.49984e-08
2.2743e-08
2.99096e-08
3.41487e-08
3.41403e-08
2.99104e-08
2.28924e-08
1.50382e-08
8.64221e-09
3.37724e-08
5.31876e-08
7.51278e-08
9.41111e-08
1.04857e-07
1.04098e-07
9.19977e-08
7.24517e-08
5.05081e-08
3.14893e-08
3.19167e-08
5.24926e-08
7.7131e-08
9.93291e-08
1.14744e-07
1.20796e-07
1.15609e-07
9.91655e-08
7.54253e-08
5.14394e-08
5.35552e-10
6.69868e-09
1.75824e-08
3.10031e-08
4.67597e-08
6.10848e-08
6.78632e-08
6.54152e-08
5.54156e-08
4.20327e-08
9.39908e-09
5.10006e-09
7.8707e-09
6.67388e-09
5.68585e-11
1.43452e-08
4.21951e-08
5.8354e-08
5.62929e-08
4.40686e-08
3.51181e-09
1.83304e-10
1.34228e-08
3.488e-08
2.83276e-08
1.46572e-08
1.88594e-08
3.71789e-08
5.13728e-08
4.80919e-08
2.38158e-09
1.24243e-08
5.70707e-08
9.23949e-08
6.42521e-08
6.31375e-08
7.51708e-08
4.98628e-08
3.14293e-08
2.80738e-08
6.73539e-09
4.11715e-08
1.11179e-07
1.21688e-07
8.46221e-08
7.62393e-08
9.91309e-08
1.00527e-07
5.94881e-08
2.70331e-08
1.63997e-08
8.07031e-08
1.45368e-07
1.25634e-07
1.00116e-07
1.08851e-07
1.21187e-07
1.26565e-07
1.0057e-07
5.04988e-08
5.07205e-08
1.39117e-07
1.78276e-07
1.08171e-07
2.66143e-08
1.07821e-08
5.28107e-08
1.06644e-07
1.30694e-07
9.80338e-08
9.79109e-08
2.20424e-07
3.33017e-07
3.36575e-07
2.60768e-07
1.73709e-07
1.3355e-07
1.72789e-07
2.0538e-07
1.65047e-07
1.0422e-07
2.1542e-07
3.54259e-07
4.51614e-07
4.73925e-07
4.41529e-07
3.95498e-07
3.60798e-07
2.82773e-07
1.85385e-07
7.22974e-08
1.99047e-07
3.61182e-07
5.30605e-07
6.62934e-07
7.05155e-07
6.24669e-07
4.64076e-07
3.21795e-07
2.31048e-07
3.17247e-09
4.55036e-09
5.99919e-09
7.18652e-09
7.855e-09
7.85393e-09
7.18364e-09
5.99516e-09
4.54653e-09
3.16905e-09
1.90144e-09
2.67253e-09
3.51247e-09
4.21655e-09
4.61705e-09
4.61344e-09
4.20685e-09
3.49906e-09
2.65912e-09
1.89001e-09
1.06909e-09
1.47097e-09
1.90808e-09
2.27689e-09
2.48329e-09
2.47178e-09
2.24464e-09
1.86116e-09
1.41836e-09
1.01953e-09
1.34504e-09
1.84603e-09
2.37351e-09
2.80329e-09
3.03073e-09
2.99574e-09
2.70458e-09
2.22903e-09
1.68209e-09
1.19039e-09
1.27218e-09
1.70943e-09
2.15378e-09
2.49637e-09
2.65145e-09
2.57481e-09
2.28269e-09
1.8464e-09
1.3695e-09
9.57567e-10
1.36643e-09
1.80688e-09
2.24281e-09
2.56291e-09
2.68559e-09
2.57532e-09
2.2587e-09
1.81132e-09
1.33911e-09
9.35667e-10
1.30569e-09
1.70409e-09
2.09698e-09
2.38949e-09
2.50851e-09
2.4235e-09
2.15465e-09
1.76187e-09
1.33441e-09
9.48355e-10
1.37024e-09
1.79972e-09
2.2222e-09
2.55031e-09
2.70715e-09
2.65556e-09
2.40145e-09
1.99508e-09
1.52169e-09
1.07241e-09
1.38226e-09
1.8901e-09
2.40438e-09
2.81324e-09
3.02013e-09
2.97912e-09
2.69608e-09
2.23385e-09
1.68778e-09
1.17631e-09
1.18196e-09
1.74684e-09
2.3917e-09
2.9578e-09
3.29923e-09
3.3332e-09
3.05852e-09
2.5542e-09
1.94131e-09
1.36383e-09
9.14762e-10
1.44431e-09
2.12098e-09
2.78581e-09
3.26731e-09
3.43704e-09
3.25939e-09
2.79758e-09
2.18271e-09
1.57088e-09
7.75004e-10
1.23764e-09
1.85591e-09
2.50635e-09
3.03407e-09
3.29749e-09
3.22851e-09
2.85542e-09
2.29271e-09
1.69205e-09
7.72752e-10
1.18931e-09
1.73838e-09
2.32673e-09
2.82541e-09
3.10498e-09
3.08662e-09
2.77407e-09
2.26046e-09
1.68586e-09
8.8605e-10
1.2847e-09
1.78943e-09
2.32477e-09
2.77418e-09
3.01922e-09
2.98165e-09
2.66083e-09
2.14561e-09
1.5755e-09
1.15739e-09
1.57423e-09
2.04953e-09
2.5235e-09
2.89309e-09
3.05566e-09
2.94293e-09
2.56421e-09
2.01472e-09
1.43988e-09
1.62024e-09
2.14312e-09
2.64009e-09
3.04664e-09
3.28458e-09
3.29038e-09
3.03277e-09
2.54845e-09
1.94005e-09
1.35445e-09
1.86277e-09
2.51611e-09
3.13168e-09
3.57643e-09
3.75914e-09
3.6404e-09
3.23835e-09
2.63483e-09
1.95236e-09
1.34184e-09
1.50006e-09
2.16955e-09
2.90277e-09
3.50292e-09
3.81387e-09
3.75808e-09
3.35773e-09
2.72213e-09
2.00657e-09
1.37611e-09
1.10532e-09
1.66799e-09
2.35281e-09
2.99176e-09
3.40165e-09
3.46212e-09
3.16026e-09
2.59207e-09
1.92646e-09
1.33312e-09
1.05235e-09
1.54624e-09
2.14193e-09
2.71481e-09
3.10687e-09
3.19921e-09
2.96076e-09
2.46403e-09
1.86356e-09
1.31608e-09
1.15804e-09
1.67446e-09
2.27297e-09
2.83503e-09
3.21577e-09
3.30481e-09
3.06822e-09
2.57034e-09
1.95491e-09
1.38517e-09
1.25945e-09
1.8326e-09
2.48014e-09
3.07595e-09
3.47552e-09
3.57262e-09
3.33261e-09
2.81959e-09
2.16683e-09
1.54919e-09
1.33877e-09
1.94674e-09
2.6166e-09
3.22761e-09
3.64468e-09
3.7698e-09
3.5682e-09
3.09493e-09
2.45903e-09
1.82546e-09
1.41901e-09
2.05464e-09
2.73035e-09
3.32165e-09
3.7119e-09
3.82308e-09
3.63976e-09
3.21669e-09
2.65332e-09
2.07935e-09
1.29824e-09
1.88962e-09
2.5575e-09
3.15631e-09
3.58611e-09
3.75642e-09
3.64794e-09
3.29827e-09
2.80247e-09
2.26047e-09
1.52853e-09
2.10725e-09
2.72868e-09
3.23836e-09
3.50675e-09
3.4437e-09
3.05674e-09
2.44081e-09
1.77815e-09
1.22048e-09
1.6809e-09
2.17241e-09
2.61903e-09
2.90016e-09
2.87666e-09
2.53091e-09
1.94948e-09
1.2841e-09
7.37188e-10
3.70691e-10
1.40229e-09
1.85035e-09
2.25557e-09
2.49158e-09
2.42884e-09
2.07747e-09
1.5423e-09
9.60626e-10
5.31214e-10
2.31019e-10
1.09357e-09
1.59234e-09
2.08933e-09
2.43051e-09
2.4593e-09
2.15414e-09
1.60235e-09
9.73814e-10
4.58017e-10
1.42983e-10
7.0519e-10
1.05358e-09
1.5014e-09
1.95337e-09
2.2209e-09
2.20828e-09
1.90878e-09
1.43793e-09
9.18226e-10
5.19565e-10
7.74811e-10
1.04782e-09
1.33663e-09
1.64767e-09
1.89385e-09
2.00825e-09
1.92531e-09
1.65922e-09
1.27633e-09
9.12799e-10
9.54878e-10
1.48976e-09
1.99455e-09
2.45282e-09
2.71216e-09
2.75764e-09
2.59355e-09
2.2712e-09
1.87115e-09
1.47073e-09
1.12701e-09
1.89252e-09
2.73525e-09
3.52487e-09
4.00939e-09
4.09346e-09
3.79637e-09
3.24331e-09
2.61543e-09
2.03352e-09
1.40542e-09
2.18637e-09
3.09169e-09
3.90322e-09
4.42334e-09
4.50671e-09
4.16148e-09
3.52113e-09
2.80778e-09
2.17628e-09
7.47723e-10
1.32588e-09
2.15584e-09
3.00715e-09
3.67542e-09
3.97518e-09
3.87076e-09
3.43735e-09
2.85524e-09
2.2662e-09
9.14756e-10
1.4659e-09
2.19446e-09
2.94827e-09
3.52071e-09
3.76347e-09
3.64929e-09
3.25761e-09
2.74441e-09
2.22351e-09
1.53933e-09
2.85506e-09
4.4356e-09
5.77307e-09
6.37718e-09
6.15814e-09
5.28822e-09
4.12178e-09
3.00923e-09
2.19385e-09
8.33284e-09
1.4264e-08
2.14548e-08
2.80174e-08
3.20852e-08
3.24242e-08
2.88565e-08
2.25261e-08
1.51839e-08
8.95548e-09
3.25692e-08
5.16337e-08
7.35242e-08
9.14087e-08
9.96488e-08
9.67014e-08
8.54277e-08
6.92659e-08
5.08558e-08
3.3199e-08
5.37781e-08
7.9174e-08
1.01112e-07
1.11984e-07
1.09466e-07
9.31127e-08
6.90615e-08
4.78104e-08
3.53336e-08
2.70441e-08
4.7132e-08
6.28627e-08
6.84548e-08
5.69855e-08
3.2424e-08
1.61599e-08
1.90337e-08
2.24256e-08
1.53595e-08
4.67959e-09
2.3071e-08
2.40053e-08
1.5339e-08
4.5228e-09
9.64202e-09
2.28188e-08
3.18631e-08
3.30739e-08
2.68646e-08
1.76614e-08
7.40181e-09
8.22216e-09
7.29913e-09
9.36889e-09
1.62757e-08
2.79126e-08
4.01318e-08
4.28442e-08
3.07798e-08
1.09198e-08
2.35555e-08
4.00214e-08
6.28568e-08
8.92921e-08
1.12829e-07
1.1892e-07
9.78145e-08
5.79201e-08
2.06593e-08
3.45094e-09
4.32836e-08
5.60064e-08
7.10673e-08
8.25595e-08
7.23075e-08
3.99076e-08
1.23752e-08
2.6682e-09
1.66026e-09
1.87032e-09
1.16241e-08
1.06742e-08
1.67027e-08
1.17156e-08
5.04324e-10
6.40711e-09
6.18834e-09
9.02259e-09
4.09861e-09
8.91649e-10
1.42808e-09
1.63325e-08
2.2874e-08
8.7105e-09
6.64642e-09
3.46593e-09
2.62359e-08
3.52418e-08
4.2686e-09
1.34028e-08
1.76589e-08
5.08015e-08
7.81161e-08
7.90391e-08
6.15043e-08
1.08579e-08
4.81494e-08
5.91781e-08
1.83667e-09
4.54299e-08
9.79185e-08
1.59927e-07
2.00138e-07
2.07333e-07
1.64123e-07
3.73903e-08
6.46053e-08
1.06138e-07
2.08031e-08
3.04832e-08
2.65988e-07
3.84065e-07
4.83042e-07
5.02268e-07
3.29667e-07
5.6552e-08
5.44101e-08
1.54009e-07
6.89434e-08
9.7046e-09
)
;
    }
    inlet
    {
        type            calculated;
        value           uniform 0;
    }
    outlet
    {
        type            calculated;
        value           uniform 0;
    }
}


// ************************************************************************* //
