/*--------------------------------*- C++ -*----------------------------------*\
| =========                 |                                                 |
| \\      /  F ield         | OpenFOAM: The Open Source CFD Toolbox           |
|  \\    /   O peration     | Version:  2406                                  |
|   \\  /    A nd           | Website:  www.openfoam.com                      |
|    \\/     M anipulation  |                                                 |
\*---------------------------------------------------------------------------*/
FoamFile
{
    version     2.0;
    format      ascii;
    arch        "LSB;label=32;scalar=64";
    class       volSymmTensorField;
    location    "0.5";
    object      turbulenceProperties:R;
}
// * * * * * * * * * * * * * * * * * * * * * * * * * * * * * * * * * * * * * //

dimensions      [0 2 -2 0 0 0 0];

internalField   uniform (0 -0 -0 0 -0 0);

boundaryField
{
    walls
    {
        type            calculated;
        value           nonuniform List<symmTensor> 
2000
(
(-8.55897e-08 7.14321e-08 2.95848e-07 -5.45891e-08 -2.49885e-07 1.40179e-07)
(-1.48018e-07 9.0603e-08 4.67986e-07 -5.04406e-08 -2.88608e-07 1.98458e-07)
(-2.2455e-07 9.4517e-08 6.72153e-07 -3.33906e-08 -2.81054e-07 2.57941e-07)
(-2.952e-07 7.31432e-08 8.52342e-07 -1.05341e-08 -2.06766e-07 3.05734e-07)
(-3.38277e-07 2.75663e-08 9.58389e-07 5.98335e-09 -7.62532e-08 3.32294e-07)
(-3.38317e-07 -2.73931e-08 9.58608e-07 5.99942e-09 7.62326e-08 3.32318e-07)
(-2.95304e-07 -7.30416e-08 8.52914e-07 -1.05066e-08 2.06872e-07 3.0581e-07)
(-2.24679e-07 -9.45116e-08 6.72885e-07 -3.33545e-08 2.81333e-07 2.58033e-07)
(-1.47783e-07 -9.08786e-08 4.68684e-07 -5.08396e-08 2.89034e-07 1.98623e-07)
(-8.55574e-08 -7.15152e-08 2.96346e-07 -5.47799e-08 2.50305e-07 1.40337e-07)
(-2.09773e-09 1.32043e-09 1.31056e-07 -6.54993e-10 -1.10276e-07 2.75272e-09)
(-4.58834e-09 1.19234e-09 2.00053e-07 -5.062e-11 -1.22881e-07 4.63896e-09)
(-6.39642e-09 1.4501e-09 2.85044e-07 -5.16348e-10 -1.18895e-07 6.91277e-09)
(-8.40597e-09 1.12046e-09 3.62281e-07 -4.70377e-10 -8.77287e-08 8.87635e-09)
(-9.59101e-09 5.66578e-10 4.08447e-07 -4.75941e-10 -3.24423e-08 1.00669e-08)
(-9.63063e-09 -2.12014e-10 4.08344e-07 -4.38365e-10 3.24462e-08 1.0069e-08)
(-8.53077e-09 -7.9895e-10 3.61964e-07 -3.58058e-10 8.76642e-08 8.88883e-09)
(-6.61243e-09 -1.18996e-09 2.84542e-07 -3.09078e-10 1.18699e-07 6.92151e-09)
(-4.67759e-09 -1.14748e-09 1.99419e-07 3.9242e-13 1.22504e-07 4.6772e-09)
(-2.31509e-09 -1.27315e-09 1.30431e-07 -4.87526e-10 1.09756e-07 2.80262e-09)
(3.73085e-10 1.36016e-10 5.34648e-08 -6.8244e-10 -4.48305e-08 3.09355e-10)
(1.87507e-10 2.69238e-10 7.82596e-08 -7.15422e-10 -4.78309e-08 5.27915e-10)
(-2.41329e-11 4.19868e-10 1.08158e-07 -7.70294e-10 -4.49145e-08 7.94427e-10)
(-3.3968e-10 3.66976e-10 1.35348e-07 -6.84793e-10 -3.26455e-08 1.02447e-09)
(-5.4679e-10 1.51449e-10 1.5129e-07 -6.22394e-10 -1.19418e-08 1.16918e-09)
(-5.48283e-10 -9.3695e-11 1.50539e-07 -6.29839e-10 1.19809e-08 1.17812e-09)
(-3.78731e-10 -2.55197e-10 1.33294e-07 -6.71334e-10 3.22439e-08 1.05006e-09)
(-1.51938e-10 -2.72473e-10 1.05319e-07 -6.70196e-10 4.38167e-08 8.22134e-10)
(6.81132e-11 -2.12329e-10 7.53373e-08 -6.37211e-10 4.61017e-08 5.69097e-10)
(1.56094e-10 -9.70737e-11 5.10615e-08 -5.09112e-10 4.28266e-08 3.53018e-10)
(9.3986e-10 2.90322e-10 7.98222e-08 -7.1176e-10 -6.69568e-08 -2.281e-10)
(6.82199e-10 5.53249e-10 1.16125e-07 -4.30363e-10 -7.08897e-08 -2.51836e-10)
(2.20237e-10 5.39698e-10 1.57748e-07 5.63455e-11 -6.53475e-08 -2.76583e-10)
(-1.62019e-10 2.06734e-10 1.93874e-07 4.44363e-10 -4.65838e-08 -2.82344e-10)
(-2.85758e-10 -2.98504e-10 2.14067e-07 5.57698e-10 -1.67572e-08 -2.71939e-10)
(-1.09318e-10 -7.29519e-10 2.11953e-07 3.67192e-10 1.69481e-08 -2.57874e-10)
(2.83078e-10 -1.00274e-09 1.88229e-07 -4.27103e-11 4.55542e-08 -2.40368e-10)
(7.14632e-10 -9.68e-10 1.50189e-07 -4.85865e-10 6.24798e-08 -2.28767e-10)
(1.18104e-09 -7.76031e-10 1.08789e-07 -9.94451e-10 6.65911e-08 -1.86592e-10)
(1.18585e-09 -3.08618e-10 7.4095e-08 -1.03972e-09 6.22022e-08 -1.46137e-10)
(-2.63819e-10 -2.60621e-11 7.89032e-08 5.01257e-10 -6.60414e-08 -2.37438e-10)
(-7.29173e-10 -3.73069e-10 1.11351e-07 9.897e-10 -6.76985e-08 -2.60527e-10)
(-1.05742e-09 -1.10203e-09 1.46897e-07 1.34699e-09 -6.05615e-08 -2.89572e-10)
(-1.00781e-09 -2.17194e-09 1.76437e-07 1.32475e-09 -4.21378e-08 -3.16941e-10)
(-3.75285e-10 -3.21104e-09 1.92036e-07 6.98287e-10 -1.48506e-08 -3.23002e-10)
(7.35743e-10 -3.78484e-09 1.8898e-07 -4.25407e-10 1.52049e-08 -3.10335e-10)
(1.99922e-09 -3.71824e-09 1.68225e-07 -1.73648e-09 4.07223e-08 -2.62734e-10)
(2.88636e-09 -2.83332e-09 1.3558e-07 -2.67103e-09 5.63509e-08 -2.15334e-10)
(3.36143e-09 -1.72597e-09 9.97927e-08 -3.23736e-09 6.10261e-08 -1.24078e-10)
(2.68682e-09 -4.45374e-10 6.87539e-08 -2.62873e-09 5.77323e-08 -5.80957e-11)
(-3.04506e-09 -4.57797e-10 1.04806e-07 3.47441e-09 -8.76181e-08 -4.29351e-10)
(-4.29312e-09 -2.19432e-09 1.45391e-07 4.8099e-09 -8.82632e-08 -5.16789e-10)
(-4.41487e-09 -4.54492e-09 1.8886e-07 5.03287e-09 -7.77301e-08 -6.18006e-10)
(-3.42317e-09 -7.14851e-09 2.2399e-07 4.1372e-09 -5.33809e-08 -7.14032e-10)
(-1.16642e-09 -8.97259e-09 2.41675e-07 1.90547e-09 -1.86105e-08 -7.39049e-10)
(1.74262e-09 -9.48996e-09 2.36474e-07 -1.03473e-09 1.90813e-08 -7.07893e-10)
(4.51775e-09 -8.52128e-09 2.09511e-07 -3.94145e-09 5.07761e-08 -5.76308e-10)
(6.10695e-09 -6.01783e-09 1.67579e-07 -5.67634e-09 6.97555e-08 -4.30611e-10)
(6.56615e-09 -3.36625e-09 1.21303e-07 -6.35445e-09 7.4359e-08 -2.11694e-10)
(4.86322e-09 -7.93444e-10 8.07341e-08 -4.7927e-09 6.80173e-08 -7.05195e-11)
(-6.23095e-09 -1.02672e-09 1.22518e-07 6.54292e-09 -1.02294e-07 -3.11969e-10)
(-8.0061e-09 -4.15681e-09 1.66456e-07 8.4003e-09 -1.00958e-07 -3.94198e-10)
(-7.48687e-09 -7.67927e-09 2.12507e-07 7.94333e-09 -8.73993e-08 -4.56464e-10)
(-5.53498e-09 -1.13677e-08 2.48476e-07 6.09318e-09 -5.91767e-08 -5.582e-10)
(-1.86446e-09 -1.34774e-08 2.64552e-07 2.42076e-09 -2.03399e-08 -5.56294e-10)
(2.37628e-09 -1.35623e-08 2.55363e-07 -1.86838e-09 2.06494e-08 -5.07901e-10)
(6.02435e-09 -1.1558e-08 2.22604e-07 -5.66894e-09 5.4021e-08 -3.55406e-10)
(7.78367e-09 -7.74639e-09 1.74378e-07 -7.54798e-09 7.27026e-08 -2.35691e-10)
(7.99174e-09 -4.11385e-09 1.22574e-07 -7.93381e-09 7.52866e-08 -5.7928e-11)
(5.58725e-09 -9.06467e-10 7.84812e-08 -5.58681e-09 6.62883e-08 -4.38532e-13)
(-6.4614e-09 -1.04808e-09 1.37187e-07 6.49493e-09 -1.146e-07 -3.35249e-11)
(-8.0692e-09 -4.13297e-09 1.87204e-07 8.19898e-09 -1.13737e-07 -1.2978e-10)
(-7.14771e-09 -7.25581e-09 2.39525e-07 7.35273e-09 -9.86857e-08 -2.05028e-10)
(-5.13582e-09 -1.04425e-08 2.79739e-07 5.46508e-09 -6.67444e-08 -3.29263e-10)
(-1.66856e-09 -1.17898e-08 2.96015e-07 1.99535e-09 -2.28092e-08 -3.26794e-10)
(1.96061e-09 -1.13006e-08 2.83056e-07 -1.67216e-09 2.28902e-08 -2.88447e-10)
(4.73305e-09 -9.07488e-09 2.43848e-07 -4.57264e-09 5.91896e-08 -1.60407e-10)
(5.7178e-09 -5.6614e-09 1.8896e-07 -5.62875e-09 7.87817e-08 -8.90545e-11)
(5.58495e-09 -2.85904e-09 1.31638e-07 -5.6026e-09 8.07984e-08 1.76481e-11)
(3.63417e-09 -5.72545e-10 8.4431e-08 -3.63852e-09 7.1234e-08 4.34639e-12)
(-3.87239e-09 -5.72092e-10 1.30516e-07 3.64055e-09 -1.09239e-07 2.31841e-10)
(-4.98364e-09 -2.43776e-09 1.83409e-07 4.80514e-09 -1.11757e-07 1.78505e-10)
(-4.39695e-09 -4.20532e-09 2.3975e-07 4.23846e-09 -9.90199e-08 1.5849e-10)
(-3.3683e-09 -6.31328e-09 2.83201e-07 3.27161e-09 -6.76733e-08 9.66936e-11)
(-1.27783e-09 -7.11998e-09 2.99931e-07 1.1205e-09 -2.30519e-08 1.57335e-10)
(8.74805e-10 -6.61014e-09 2.84583e-07 -1.13298e-09 2.31983e-08 2.58176e-10)
(2.21059e-09 -4.74871e-09 2.41578e-07 -2.61261e-09 5.88803e-08 4.02024e-10)
(2.19641e-09 -2.40646e-09 1.83811e-07 -2.66847e-09 7.68532e-08 4.72061e-10)
(1.31572e-09 -7.60804e-10 1.25938e-07 -1.78525e-09 7.73947e-08 4.69524e-10)
(-2.8375e-11 2.49952e-11 8.10582e-08 -3.25986e-10 6.82685e-08 3.54361e-10)
(-1.80246e-09 -1.75793e-10 1.19586e-07 1.60432e-09 -1.00344e-07 1.98137e-10)
(-2.7878e-09 -1.25006e-09 1.73923e-07 2.58303e-09 -1.06239e-07 2.04769e-10)
(-2.81608e-09 -2.51476e-09 2.32189e-07 2.55602e-09 -9.60211e-08 2.6006e-10)
(-2.40479e-09 -4.10555e-09 2.75937e-07 2.06356e-09 -6.58506e-08 3.41232e-10)
(-1.10726e-09 -4.70192e-09 2.89526e-07 5.95545e-10 -2.19169e-08 5.11719e-10)
(2.61998e-10 -4.20422e-09 2.67746e-07 -9.46281e-10 2.23842e-08 6.84283e-10)
(9.02598e-10 -2.58071e-09 2.17674e-07 -1.70818e-09 5.37568e-08 8.05583e-10)
(5.52037e-10 -9.08127e-10 1.55603e-07 -1.3702e-09 6.57591e-08 8.18164e-10)
(-5.39519e-10 1.53846e-10 9.88613e-08 -1.47836e-10 6.12985e-08 6.87355e-10)
(-1.23196e-09 2.05146e-10 5.95663e-08 7.18065e-10 5.03208e-08 5.1389e-10)
(-8.09538e-10 3.6356e-11 1.12815e-07 7.24969e-10 -9.47317e-08 8.45685e-11)
(-1.85866e-09 -7.14818e-10 1.64336e-07 1.68067e-09 -1.00346e-07 1.77992e-10)
(-2.29443e-09 -1.81334e-09 2.17277e-07 1.93761e-09 -8.96883e-08 3.5682e-10)
(-2.21225e-09 -3.22188e-09 2.53368e-07 1.64529e-09 -6.01517e-08 5.66955e-10)
(-1.28016e-09 -3.93648e-09 2.58281e-07 5.0369e-10 -1.90866e-08 7.76471e-10)
(-8.88815e-11 -3.74041e-09 2.29312e-07 -7.95858e-10 1.97488e-08 8.8474e-10)
(7.09294e-10 -2.63232e-09 1.766e-07 -1.56944e-09 4.42311e-08 8.60145e-10)
(8.31081e-10 -1.34431e-09 1.17713e-07 -1.54863e-09 5.02982e-08 7.17551e-10)
(3.60472e-10 -3.7604e-10 6.89374e-08 -8.63279e-10 4.31615e-08 5.02807e-10)
(7.66641e-12 -6.7145e-11 3.82807e-08 -3.38062e-10 3.24968e-08 3.30396e-10)
(8.16285e-10 2.83507e-10 1.11327e-07 -7.7855e-10 -9.33441e-08 -3.77342e-11)
(1.1853e-10 2.61373e-10 1.57438e-07 -1.79542e-10 -9.58725e-08 6.10122e-11)
(-6.51458e-10 -2.51719e-10 2.01302e-07 4.33462e-10 -8.27768e-08 2.17996e-10)
(-1.04362e-09 -1.06676e-09 2.27295e-07 6.30043e-10 -5.36359e-08 4.13575e-10)
(-8.62573e-10 -1.82491e-09 2.24764e-07 3.20156e-10 -1.63067e-08 5.42417e-10)
(-2.09148e-10 -2.22213e-09 1.93955e-07 -3.33443e-10 1.69557e-08 5.42591e-10)
(5.89197e-10 -2.08471e-09 1.45552e-07 -1.02956e-09 3.66405e-08 4.40368e-10)
(1.0939e-09 -1.44023e-09 9.48208e-08 -1.37466e-09 4.06377e-08 2.80753e-10)
(1.2317e-09 -7.61375e-10 5.44278e-08 -1.38062e-09 3.41629e-08 1.48918e-10)
(1.02622e-09 -2.3489e-10 2.94871e-08 -1.103e-09 2.50817e-08 7.67793e-11)
(2.86056e-09 5.94918e-10 1.14235e-07 -2.7813e-09 -9.56538e-08 -7.92598e-11)
(2.86837e-09 1.64812e-09 1.57389e-07 -2.78171e-09 -9.55982e-08 -8.66617e-11)
(1.71607e-09 2.01965e-09 1.95613e-07 -1.62107e-09 -8.0202e-08 -9.50014e-11)
(5.39865e-10 1.72434e-09 2.15996e-07 -4.97406e-10 -5.08208e-08 -4.24593e-11)
(-2.54954e-10 6.02048e-10 2.10818e-07 2.91216e-10 -1.52707e-08 -3.62629e-11)
(-2.03642e-10 -6.67495e-10 1.81597e-07 2.80402e-10 1.57784e-08 -7.67601e-11)
(5.4127e-10 -1.5333e-09 1.37775e-07 -4.18259e-10 3.4502e-08 -1.23011e-10)
(1.30543e-09 -1.47136e-09 9.20061e-08 -1.13165e-09 3.92328e-08 -1.73785e-10)
(1.86926e-09 -1.03684e-09 5.46542e-08 -1.71435e-09 3.41539e-08 -1.54904e-10)
(1.68473e-09 -3.39701e-10 3.04376e-08 -1.5704e-09 2.5858e-08 -1.14331e-10)
(4.56024e-09 7.23413e-10 1.19152e-07 -4.62847e-09 -9.99502e-08 6.82224e-11)
(6.19903e-09 3.19765e-09 1.66959e-07 -6.11033e-09 -1.01523e-07 -8.86997e-11)
(5.27756e-09 5.24565e-09 2.09533e-07 -4.90763e-09 -8.60553e-08 -3.69925e-10)
(3.37028e-09 6.46943e-09 2.33557e-07 -2.80962e-09 -5.51894e-08 -5.60665e-10)
(1.0329e-09 5.7683e-09 2.31369e-07 -2.98095e-10 -1.71242e-08 -7.34809e-10)
(-4.50589e-10 3.85416e-09 2.04063e-07 1.27062e-09 1.72623e-08 -8.20028e-10)
(-6.36715e-10 1.58881e-09 1.6016e-07 1.42847e-09 3.95942e-08 -7.91752e-10)
(-3.68519e-11 1.9347e-10 1.11908e-07 7.43851e-10 4.72577e-08 -7.06999e-10)
(1.02352e-09 -4.96787e-10 6.98024e-08 -4.9777e-10 4.32802e-08 -5.25751e-10)
(1.35486e-09 -2.61596e-10 4.04353e-08 -9.93505e-10 3.42588e-08 -3.61354e-10)
(4.68497e-09 6.44555e-10 1.10638e-07 -5.35931e-09 -9.32834e-08 6.74336e-10)
(8.89757e-09 4.56981e-09 1.67553e-07 -9.52472e-09 -1.02544e-07 6.27152e-10)
(9.97184e-09 9.95117e-09 2.26262e-07 -1.02248e-08 -9.36688e-08 2.5297e-10)
(7.99661e-09 1.5392e-08 2.68292e-07 -7.81566e-09 -6.41267e-08 -1.80951e-10)
(3.16647e-09 1.79383e-08 2.8038e-07 -2.50499e-09 -2.14507e-08 -6.61487e-10)
(-2.19367e-09 1.67736e-08 2.59706e-07 3.18642e-09 2.13088e-08 -9.92749e-10)
(-5.92923e-09 1.26393e-08 2.13955e-07 7.04548e-09 5.22659e-08 -1.11626e-09)
(-7.03481e-09 7.50145e-09 1.57597e-07 8.10677e-09 6.5992e-08 -1.07195e-09)
(-5.65253e-09 3.02627e-09 1.04036e-07 6.5427e-09 6.40331e-08 -8.9017e-10)
(-3.25025e-09 4.98611e-10 6.4006e-08 3.92793e-09 5.40286e-08 -6.77679e-10)
(2.27908e-09 2.52544e-10 7.27372e-08 -3.12908e-09 -6.17148e-08 8.50005e-10)
(6.25689e-09 3.25315e-09 1.24978e-07 -7.3804e-09 -7.73361e-08 1.12351e-09)
(8.93728e-09 9.13277e-09 1.93148e-07 -1.00777e-08 -8.10302e-08 1.14046e-09)
(8.55347e-09 1.70364e-08 2.5751e-07 -9.46982e-09 -6.26025e-08 9.16343e-10)
(3.8107e-09 2.35513e-08 2.97074e-07 -4.22624e-09 -2.3624e-08 4.15541e-10)
(-3.71845e-09 2.5622e-08 2.99351e-07 3.85015e-09 2.38567e-08 -1.31705e-10)
(-1.09554e-08 2.25713e-08 2.66337e-07 1.15433e-08 6.4491e-08 -5.87911e-10)
(-1.47944e-08 1.54127e-08 2.11819e-07 1.55742e-08 8.81641e-08 -7.7985e-10)
(-1.48752e-08 7.87143e-09 1.52561e-07 1.57204e-08 9.33692e-08 -8.45242e-10)
(-1.06737e-08 1.77475e-09 1.03326e-07 1.13903e-08 8.68004e-08 -7.16567e-10)
(-5.81074e-10 -6.1039e-11 4.07093e-08 1.62073e-10 -3.47029e-08 4.19001e-10)
(1.76858e-11 1.83946e-10 7.70683e-08 -7.22217e-10 -4.8233e-08 7.04531e-10)
(9.82415e-10 1.42141e-09 1.34289e-07 -1.98909e-09 -5.71778e-08 1.00667e-09)
(1.5045e-09 3.94073e-09 2.0108e-07 -2.70097e-09 -4.99166e-08 1.19647e-09)
(6.9764e-10 7.3031e-09 2.57707e-07 -1.85553e-09 -2.15528e-08 1.15789e-09)
(-1.83262e-09 9.7276e-09 2.84836e-07 9.09726e-10 2.17766e-08 9.22895e-10)
(-5.36502e-09 1.03761e-08 2.74345e-07 4.7644e-09 6.57784e-08 6.00618e-10)
(-8.10333e-09 8.19478e-09 2.32516e-07 7.67371e-09 9.64074e-08 4.29615e-10)
(-9.98408e-09 5.22222e-09 1.76073e-07 9.73027e-09 1.07644e-07 2.53811e-10)
(-8.23598e-09 1.40806e-09 1.23291e-07 7.98795e-09 1.03451e-07 2.48023e-10)
(6.2009e-11 7.6875e-11 3.18598e-08 -1.32909e-10 -2.71717e-08 7.09001e-11)
(-4.50532e-10 -1.15346e-10 5.85918e-08 2.79721e-10 -3.68487e-08 1.70811e-10)
(-9.07352e-10 -5.93073e-10 1.01409e-07 5.43585e-10 -4.35549e-08 3.63767e-10)
(-1.19915e-09 -1.46781e-09 1.54872e-07 5.98881e-10 -3.90684e-08 6.0027e-10)
(-9.30656e-10 -2.20758e-09 2.03957e-07 9.2344e-11 -1.77961e-08 8.38312e-10)
(-2.49695e-10 -2.43934e-09 2.3075e-07 -7.55307e-10 1.69955e-08 1.005e-09)
(2.49943e-10 -1.67919e-09 2.23631e-07 -1.31988e-09 5.33011e-08 1.06994e-09)
(1.4758e-10 -6.4592e-10 1.8537e-07 -1.23321e-09 7.69524e-08 1.08563e-09)
(-1.18586e-09 4.61427e-10 1.32592e-07 2.40687e-10 8.14243e-08 9.45169e-10)
(-1.75433e-09 2.88541e-10 8.60498e-08 9.73341e-10 7.23721e-08 7.8099e-10)
(5.20115e-09 9.33051e-10 3.09333e-08 -5.21208e-09 -2.6382e-08 1.09334e-11)
(7.03275e-09 3.72114e-09 5.59288e-08 -7.04906e-09 -3.52131e-08 1.63195e-11)
(6.84961e-09 7.12119e-09 9.37299e-08 -6.85808e-09 -4.03006e-08 8.47234e-12)
(4.95486e-09 1.04787e-08 1.3873e-07 -5.07584e-09 -3.50688e-08 1.20978e-10)
(1.33759e-09 1.17139e-08 1.76547e-07 -1.59724e-09 -1.54721e-08 2.59645e-10)
(-2.29948e-09 1.06479e-08 1.92378e-07 1.86319e-09 1.41543e-08 4.36291e-10)
(-4.66602e-09 7.91206e-09 1.77982e-07 4.13112e-09 4.25134e-08 5.34893e-10)
(-5.19857e-09 4.62492e-09 1.38841e-07 4.64294e-09 5.78618e-08 5.55626e-10)
(-4.71338e-09 2.15606e-09 9.14831e-08 4.2703e-09 5.64465e-08 4.43082e-10)
(-3.14585e-09 3.93642e-10 5.42173e-08 2.82114e-09 4.57568e-08 3.24709e-10)
(8.12973e-09 1.33636e-09 2.98185e-08 -8.11763e-09 -2.53677e-08 -1.21007e-11)
(1.22147e-08 6.28428e-09 5.54974e-08 -1.21993e-08 -3.48002e-08 -1.53903e-11)
(1.27675e-08 1.28692e-08 9.4149e-08 -1.26431e-08 -4.02364e-08 -1.24458e-10)
(1.02249e-08 2.04762e-08 1.38756e-07 -1.01513e-08 -3.46976e-08 -7.36147e-11)
(3.57906e-09 2.4525e-08 1.7412e-07 -3.49987e-09 -1.48217e-08 -7.91825e-11)
(-4.14962e-09 2.38113e-08 1.86346e-07 4.15573e-09 1.41234e-08 -6.11332e-12)
(-9.87851e-09 1.85956e-08 1.69625e-07 9.87834e-09 4.08138e-08 1.66781e-13)
(-1.14956e-08 1.10961e-08 1.30968e-07 1.14756e-08 5.47336e-08 2.00537e-11)
(-1.00428e-08 4.92519e-09 8.62157e-08 1.00989e-08 5.32367e-08 -5.60652e-11)
(-6.18173e-09 8.61298e-10 5.12347e-08 6.25549e-09 4.32818e-08 -7.37626e-11)
(5.48604e-09 8.88186e-10 2.98003e-08 -5.48823e-09 -2.5289e-08 2.18443e-12)
(8.82873e-09 4.5397e-09 5.6101e-08 -8.86381e-09 -3.49798e-08 3.50865e-11)
(9.67326e-09 9.65068e-09 9.65809e-08 -9.63789e-09 -4.0979e-08 -3.53704e-11)
(8.36101e-09 1.64315e-08 1.42405e-07 -8.4114e-09 -3.5195e-08 5.03973e-11)
(3.30895e-09 2.12034e-08 1.78707e-07 -3.3491e-09 -1.47761e-08 4.0148e-11)
(-3.5866e-09 2.21506e-08 1.91392e-07 3.53049e-09 1.48777e-08 5.61131e-11)
(-9.59502e-09 1.86706e-08 1.75391e-07 9.61013e-09 4.24266e-08 -1.5111e-11)
(-1.20579e-08 1.19644e-08 1.37678e-07 1.20997e-08 5.75869e-08 -4.17814e-11)
(-1.14314e-08 5.77643e-09 9.36081e-08 1.15806e-08 5.77217e-08 -1.49264e-10)
(-7.53646e-09 1.13902e-09 5.81857e-08 7.69099e-09 4.90551e-08 -1.54534e-10)
(1.21684e-09 1.47928e-10 2.93083e-08 -1.24474e-09 -2.48813e-08 2.79036e-11)
(2.61362e-09 1.29923e-09 5.42738e-08 -2.72407e-09 -3.37971e-08 1.10443e-10)
(3.39313e-09 3.32678e-09 9.25932e-08 -3.60919e-09 -3.9231e-08 2.16059e-10)
(3.61952e-09 7.09877e-09 1.35567e-07 -4.04354e-09 -3.34499e-08 4.24014e-10)
(1.71847e-09 1.11964e-08 1.70139e-07 -2.26145e-09 -1.40393e-08 5.4298e-10)
(-2.28061e-09 1.38751e-08 1.83295e-07 1.70359e-09 1.42273e-08 5.77021e-10)
(-7.00402e-09 1.36207e-08 1.70256e-07 6.57305e-09 4.10942e-08 4.30975e-10)
(-9.86789e-09 9.82298e-09 1.36849e-07 9.59066e-09 5.70715e-08 2.77226e-10)
(-1.05578e-08 5.40008e-09 9.67039e-08 1.05289e-08 5.94161e-08 2.89072e-11)
(-7.72048e-09 1.24728e-09 6.33648e-08 7.79266e-09 5.32127e-08 -7.21767e-11)
(-4.46595e-10 -8.98049e-11 2.83777e-08 4.58989e-10 -2.40924e-08 -1.23943e-11)
(-1.18504e-10 -6.81365e-11 4.96766e-08 5.76091e-11 -3.09062e-08 6.08945e-11)
(4.17e-10 3.80573e-10 8.04764e-08 -6.26546e-10 -3.40823e-08 2.09546e-10)
(1.09557e-09 2.1586e-09 1.14713e-07 -1.53486e-09 -2.83702e-08 4.39291e-10)
(7.49618e-10 5.12868e-09 1.42942e-07 -1.37441e-09 -1.195e-08 6.24793e-10)
(-1.33957e-09 7.95542e-09 1.55596e-07 6.49131e-10 1.18254e-08 6.90435e-10)
(-4.71391e-09 9.18395e-09 1.48452e-07 4.15441e-09 3.54917e-08 5.59503e-10)
(-7.45157e-09 7.47283e-09 1.24876e-07 7.07095e-09 5.16701e-08 3.80622e-10)
(-8.92595e-09 4.61308e-09 9.41985e-08 8.81844e-09 5.74615e-08 1.07516e-10)
(-7.19285e-09 1.20962e-09 6.66819e-08 7.20618e-09 5.56897e-08 -1.3324e-11)
(1.20797e-09 1.61935e-10 3.49665e-08 -9.9947e-10 -2.95982e-08 -2.08504e-10)
(1.54984e-09 6.93321e-10 5.54492e-08 -1.35156e-09 -3.4293e-08 -1.98285e-10)
(1.58828e-09 1.4259e-09 8.10969e-08 -1.49937e-09 -3.41111e-08 -8.89104e-11)
(1.58905e-09 2.91623e-09 1.07858e-07 -1.71063e-09 -2.65166e-08 1.21583e-10)
(8.07528e-10 4.90527e-09 1.2897e-07 -1.13914e-09 -1.07242e-08 3.31611e-10)
(-1.08959e-09 6.8073e-09 1.38575e-07 6.08112e-10 1.04651e-08 4.8148e-10)
(-3.9123e-09 7.66291e-09 1.33828e-07 3.44061e-09 3.18281e-08 4.71689e-10)
(-6.35009e-09 6.3596e-09 1.16475e-07 5.92554e-09 4.79539e-08 4.24549e-10)
(-8.17769e-09 4.24216e-09 9.28176e-08 7.94821e-09 5.63789e-08 2.29488e-10)
(-7.16011e-09 1.25114e-09 6.98555e-08 7.01368e-09 5.8162e-08 1.46435e-10)
(6.14488e-09 1.09105e-09 4.75655e-08 -5.61294e-09 -4.0038e-08 -5.31941e-10)
(6.79414e-09 3.47605e-09 6.92124e-08 -6.22228e-09 -4.22571e-08 -5.71865e-10)
(5.19896e-09 5.07554e-09 9.0515e-08 -4.58766e-09 -3.73892e-08 -6.11305e-10)
(3.44284e-09 6.50777e-09 1.088e-07 -2.93963e-09 -2.6051e-08 -5.03212e-10)
(1.14656e-09 6.65372e-09 1.20204e-07 -7.2026e-10 -9.35584e-09 -4.26302e-10)
(-8.8453e-10 5.95694e-09 1.22327e-07 1.23074e-09 9.7815e-09 -3.46215e-10)
(-2.2062e-09 4.38822e-09 1.14666e-07 2.5279e-09 2.77265e-08 -3.21698e-10)
(-2.46134e-09 2.43813e-09 9.86149e-08 2.72879e-09 4.09546e-08 -2.67446e-10)
(-2.10918e-09 1.04161e-09 7.90207e-08 2.36526e-09 4.83472e-08 -2.56087e-10)
(-8.31535e-10 5.99674e-11 5.90489e-08 9.89681e-10 4.9403e-08 -1.58146e-10)
(5.41126e-09 8.81677e-10 8.59634e-08 -3.92667e-09 -7.14995e-08 -1.48459e-09)
(4.69171e-09 2.18053e-09 1.12247e-07 -2.9746e-09 -6.74168e-08 -1.71711e-09)
(1.46866e-09 8.30312e-10 1.36947e-07 6.42886e-10 -5.56158e-08 -2.11154e-09)
(-2.68561e-10 -2.00234e-09 1.56964e-07 2.63401e-09 -3.68026e-08 -2.36545e-09)
(-3.50373e-10 -7.30842e-09 1.70311e-07 2.95697e-09 -1.27235e-08 -2.60659e-09)
(2.7337e-09 -1.24727e-08 1.73824e-07 -7.95138e-11 1.41983e-08 -2.65419e-09)
(8.81853e-09 -1.61249e-08 1.66214e-07 -6.38128e-09 4.02944e-08 -2.43725e-09)
(1.52164e-08 -1.48654e-08 1.46381e-07 -1.31656e-08 6.0799e-08 -2.05079e-09)
(2.05264e-08 -1.04895e-08 1.19084e-07 -1.91697e-08 7.29464e-08 -1.35675e-09)
(1.83907e-08 -3.10912e-09 8.60302e-08 -1.76076e-08 7.23632e-08 -7.83134e-10)
(-1.62472e-08 -3.05692e-09 1.98989e-07 1.91595e-08 -1.64829e-07 -2.91233e-09)
(-1.99873e-08 -1.11209e-08 2.51267e-07 2.3702e-08 -1.50679e-07 -3.71469e-09)
(-2.11191e-08 -2.34573e-08 3.08932e-07 2.59151e-08 -1.25728e-07 -4.796e-09)
(-1.65514e-08 -3.77884e-08 3.57488e-07 2.22305e-08 -8.42345e-08 -5.67911e-09)
(-5.41593e-09 -5.1684e-08 3.87887e-07 1.14624e-08 -2.93923e-08 -6.04643e-09)
(1.18354e-08 -5.92858e-08 3.87634e-07 -6.18739e-09 3.14696e-08 -5.64798e-09)
(3.09644e-08 -5.71769e-08 3.52379e-07 -2.6638e-08 8.55373e-08 -4.32648e-09)
(4.27438e-08 -4.16119e-08 2.85039e-07 -3.9853e-08 1.18949e-07 -2.89076e-09)
(4.64471e-08 -2.35522e-08 2.0379e-07 -4.54024e-08 1.25564e-07 -1.04467e-09)
(3.21229e-08 -5.04899e-09 1.25025e-07 -3.18784e-08 1.0616e-07 -2.44407e-10)
(-5.06803e-08 -9.45505e-09 3.77385e-07 5.37914e-08 -3.1352e-07 -3.1111e-09)
(-5.95915e-08 -3.25526e-08 4.82671e-07 6.38783e-08 -2.91127e-07 -4.28674e-09)
(-5.2748e-08 -5.67224e-08 5.94058e-07 5.76647e-08 -2.43152e-07 -4.91664e-09)
(-3.69038e-08 -7.98857e-08 6.72904e-07 4.22468e-08 -1.59024e-07 -5.34298e-09)
(-1.13835e-08 -9.15297e-08 6.89289e-07 1.58726e-08 -5.13879e-08 -4.48901e-09)
(1.59216e-08 -8.77554e-08 6.26464e-07 -1.30012e-08 5.29037e-08 -2.9203e-09)
(3.63291e-08 -6.94819e-08 4.97731e-07 -3.54068e-08 1.23529e-07 -9.22324e-10)
(4.17248e-08 -4.15422e-08 3.40254e-07 -4.19359e-08 1.44673e-07 2.11056e-10)
(3.74179e-08 -1.92815e-08 1.99653e-07 -3.84244e-08 1.24922e-07 1.00658e-09)
(2.18522e-08 -3.45158e-09 1.02495e-07 -2.2554e-08 8.79794e-08 7.01816e-10)
(-4.65304e-08 -8.01751e-09 4.79568e-07 4.62108e-08 -4.00093e-07 3.19591e-10)
(-5.64948e-08 -2.96355e-08 6.22126e-07 5.69871e-08 -3.76358e-07 -4.92249e-10)
(-4.58514e-08 -4.67482e-08 7.38787e-07 4.61421e-08 -3.01902e-07 -2.90682e-10)
(-3.18129e-08 -6.33035e-08 7.81463e-07 3.22082e-08 -1.82868e-07 -3.95318e-10)
(-1.11188e-08 -6.78988e-08 7.23383e-07 1.06246e-08 -5.10973e-08 4.94186e-10)
(8.71866e-09 -6.17915e-08 5.78932e-07 -9.87205e-09 5.19613e-08 1.15339e-09)
(2.24796e-08 -4.68017e-08 3.97551e-07 -2.40637e-08 1.01215e-07 1.58406e-09)
(2.59603e-08 -2.72379e-08 2.34795e-07 -2.72483e-08 1.01416e-07 1.28801e-09)
(2.35622e-08 -1.26399e-08 1.22454e-07 -2.46324e-08 7.7251e-08 1.07023e-09)
(1.48316e-08 -2.57074e-09 6.0464e-08 -1.54445e-08 5.18209e-08 6.129e-10)
(-1.45483e-08 -2.49511e-09 3.69144e-07 1.02354e-08 -3.1059e-07 4.31288e-09)
(-1.368e-08 -6.47037e-09 5.27256e-07 8.9299e-09 -3.21672e-07 4.75014e-09)
(-5.15328e-09 -2.75648e-09 6.52558e-07 9.28421e-11 -2.68019e-07 5.06043e-09)
(-4.21623e-09 -2.98777e-09 6.89022e-07 2.0054e-10 -1.61509e-07 4.01569e-09)
(-3.51545e-09 -5.54114e-09 6.18263e-07 4.81381e-10 -4.34197e-08 3.03406e-09)
(-5.83877e-10 -1.07814e-08 4.74014e-07 -1.29462e-09 4.2759e-08 1.8785e-09)
(5.05664e-09 -1.34447e-08 3.1064e-07 -6.13736e-09 7.91268e-08 1.08073e-09)
(9.12019e-09 -1.04063e-08 1.74708e-07 -9.55991e-09 7.55368e-08 4.39726e-10)
(1.0371e-08 -5.80273e-09 8.35559e-08 -1.06179e-08 5.28957e-08 2.46935e-10)
(7.02237e-09 -1.32622e-09 3.57782e-08 -7.09166e-09 3.09005e-08 6.92903e-11)
(7.6192e-09 1.50754e-09 1.49643e-07 -1.10905e-08 -1.27351e-07 3.47129e-09)
(1.58104e-08 9.16118e-09 2.48876e-07 -2.08133e-08 -1.54753e-07 5.00282e-09)
(2.2906e-08 2.6139e-08 3.55292e-07 -2.90312e-08 -1.49126e-07 6.12517e-09)
(1.81695e-08 4.24587e-08 4.24484e-07 -2.39262e-08 -1.02503e-07 5.75665e-09)
(4.71664e-09 4.91065e-08 4.19431e-07 -9.16301e-09 -3.18532e-08 4.44638e-09)
(-8.96141e-09 4.2143e-08 3.48957e-07 6.19296e-09 2.96164e-08 2.76844e-09)
(-1.57843e-08 2.80273e-08 2.46725e-07 1.43989e-08 6.13688e-08 1.38539e-09)
(-1.51424e-08 1.41921e-08 1.51335e-07 1.4558e-08 6.4278e-08 5.84447e-10)
(-1.10789e-08 5.34311e-09 8.03684e-08 1.09252e-08 4.99472e-08 1.53769e-10)
(-6.42097e-09 9.28157e-10 4.05015e-08 6.46495e-09 3.44401e-08 -4.39842e-11)
(2.31621e-08 3.97492e-09 5.14355e-08 -2.42661e-08 -4.41924e-08 1.10395e-09)
(3.60201e-08 1.89704e-08 9.68153e-08 -3.78368e-08 -6.13265e-08 1.81663e-09)
(3.91448e-08 4.07524e-08 1.55321e-07 -4.1509e-08 -6.66642e-08 2.36424e-09)
(3.12559e-08 6.49864e-08 2.14173e-07 -3.39727e-08 -5.34458e-08 2.71675e-09)
(1.05121e-08 7.71507e-08 2.42857e-07 -1.28471e-08 -2.00002e-08 2.33498e-09)
(-1.28347e-08 7.30651e-08 2.30118e-07 1.10957e-08 1.8404e-08 1.73892e-09)
(-2.93981e-08 5.61816e-08 1.83281e-07 2.8452e-08 4.50018e-08 9.46094e-10)
(-3.33967e-08 3.29578e-08 1.23552e-07 3.27905e-08 5.22828e-08 6.06247e-10)
(-3.053e-08 1.5562e-08 7.28102e-08 3.03886e-08 4.52248e-08 1.41374e-10)
(-1.9961e-08 3.30651e-09 3.97284e-08 1.98993e-08 3.35495e-08 6.1711e-11)
(2.69661e-08 4.53341e-09 3.33868e-08 -2.72002e-08 -2.84747e-08 2.34162e-10)
(4.3016e-08 2.25231e-08 6.89716e-08 -4.35273e-08 -4.30573e-08 5.11356e-10)
(4.27394e-08 4.38637e-08 1.13301e-07 -4.31574e-08 -4.76847e-08 4.18041e-10)
(3.32272e-08 6.77376e-08 1.60872e-07 -3.40116e-08 -3.89147e-08 7.84492e-10)
(1.11322e-08 7.81885e-08 1.8916e-07 -1.18126e-08 -1.43258e-08 6.80408e-10)
(-1.26918e-08 7.38484e-08 1.87989e-07 1.20651e-08 1.62041e-08 6.2667e-10)
(-3.00048e-08 5.76058e-08 1.58827e-07 2.977e-08 4.00477e-08 2.34759e-10)
(-3.45645e-08 3.4198e-08 1.13134e-07 3.44379e-08 4.86435e-08 1.26572e-10)
(-3.28507e-08 1.67736e-08 7.24673e-08 3.31434e-08 4.55981e-08 -2.92769e-10)
(-2.0985e-08 3.40017e-09 4.20254e-08 2.12173e-08 3.55908e-08 -2.32288e-10)
(2.34455e-09 4.29602e-10 2.41395e-08 -2.20817e-09 -2.01647e-08 -1.36379e-10)
(4.01405e-09 2.18959e-09 4.78144e-08 -3.94228e-09 -2.89338e-08 -7.17666e-11)
(3.17081e-09 3.25791e-09 8.3699e-08 -3.01931e-09 -3.41123e-08 -1.51494e-10)
(2.8464e-09 5.75278e-09 1.18708e-07 -2.90504e-09 -2.74452e-08 5.86348e-11)
(1.01117e-09 7.08819e-09 1.43641e-07 -1.16131e-09 -9.8288e-09 1.50146e-10)
(-1.38305e-09 7.64441e-09 1.49367e-07 1.0351e-09 1.35302e-08 3.47948e-10)
(-3.85692e-09 7.16271e-09 1.3689e-07 3.45942e-09 3.46704e-08 3.975e-10)
(-5.16684e-09 4.94471e-09 1.11572e-07 4.64356e-09 4.76369e-08 5.23276e-10)
(-7.09204e-09 3.59893e-09 8.50333e-08 6.72217e-09 5.30033e-08 3.69865e-10)
(-5.29662e-09 8.5519e-10 6.04791e-08 4.91874e-09 5.09586e-08 3.77885e-10)
(-3.23197e-08 -5.67734e-09 4.46995e-08 3.24827e-08 -3.73636e-08 -1.62976e-10)
(-4.24083e-08 -2.2056e-08 7.9133e-08 4.26416e-08 -4.81532e-08 -2.33245e-10)
(-4.01294e-08 -4.12585e-08 1.22375e-07 4.02762e-08 -5.0167e-08 -1.46867e-10)
(-2.62864e-08 -5.41038e-08 1.55271e-07 2.64824e-08 -3.60369e-08 -1.96007e-10)
(-7.42395e-09 -5.4421e-08 1.66958e-07 7.60898e-09 -1.12625e-08 -1.85033e-10)
(8.02877e-09 -4.47673e-08 1.52354e-07 -7.8601e-09 1.43369e-08 -1.68669e-10)
(1.60246e-08 -3.01958e-08 1.18467e-07 -1.59849e-08 3.08763e-08 -3.96785e-11)
(1.64114e-08 -1.60503e-08 7.74416e-08 -1.65339e-08 3.40664e-08 1.2259e-10)
(1.2457e-08 -6.22174e-09 4.42248e-08 -1.2715e-08 2.84538e-08 2.58019e-10)
(6.96363e-09 -1.03096e-09 2.26189e-08 -7.2499e-09 1.94633e-08 2.86275e-10)
(-6.29042e-08 -1.19183e-08 7.73253e-08 6.40999e-08 -6.50042e-08 -1.19572e-09)
(-8.01819e-08 -4.33063e-08 1.27781e-07 8.25063e-08 -7.89884e-08 -2.32435e-09)
(-6.93111e-08 -7.41415e-08 1.8369e-07 7.21573e-08 -7.71003e-08 -2.8462e-09)
(-4.57313e-08 -9.98709e-08 2.33188e-07 4.96318e-08 -5.66052e-08 -3.90056e-09)
(-1.15521e-08 -1.04911e-07 2.54781e-07 1.57757e-08 -1.99479e-08 -4.22364e-09)
(1.92767e-08 -9.31908e-08 2.41557e-07 -1.50788e-08 1.99778e-08 -4.19788e-09)
(3.8958e-08 -6.92209e-08 1.96862e-07 -3.5566e-08 4.89361e-08 -3.39201e-09)
(4.26829e-08 -3.99697e-08 1.34792e-07 -4.02672e-08 5.76254e-08 -2.41575e-09)
(3.70138e-08 -1.78826e-08 7.98377e-08 -3.58099e-08 5.04596e-08 -1.20392e-09)
(2.12925e-08 -3.01749e-09 3.88218e-08 -2.0784e-08 3.33635e-08 -5.08514e-10)
(-1.14302e-07 -2.4515e-08 2.51794e-07 1.21908e-07 -2.11317e-07 -7.60567e-09)
(-1.30015e-07 -7.71754e-08 3.87078e-07 1.44103e-07 -2.38247e-07 -1.4088e-08)
(-9.48158e-08 -1.182e-07 5.27777e-07 1.1484e-07 -2.2013e-07 -2.00246e-08)
(-4.54758e-08 -1.41748e-07 6.34014e-07 7.22632e-08 -1.5294e-07 -2.67874e-08)
(7.94874e-09 -1.28578e-07 6.57676e-07 2.21824e-08 -5.11902e-08 -3.01311e-08)
(4.26756e-08 -9.70673e-08 5.91357e-07 -1.26545e-08 4.83687e-08 -3.00211e-08)
(5.5553e-08 -6.23559e-08 4.5611e-07 -3.00966e-08 1.12196e-07 -2.54564e-08)
(5.0345e-08 -3.17185e-08 2.9633e-07 -3.16146e-08 1.25437e-07 -1.87304e-08)
(4.28425e-08 -1.48295e-08 1.63884e-07 -3.17005e-08 1.02343e-07 -1.1142e-08)
(2.55371e-08 -1.45428e-09 7.97918e-08 -1.95358e-08 6.72409e-08 -6.00137e-09)
(-2.99948e-07 -9.68155e-08 1.30466e-06 3.68573e-07 -1.10687e-06 -6.86257e-08)
(-3.28863e-07 -2.83262e-07 2.2644e-06 4.63319e-07 -1.41143e-06 -1.34456e-07)
(-1.6737e-07 -4.40533e-07 3.48262e-06 3.80945e-07 -1.47464e-06 -2.13575e-07)
(8.17001e-08 -4.90347e-07 4.64855e-06 2.13364e-07 -1.14944e-06 -2.95064e-07)
(3.20108e-07 -3.3537e-07 5.40084e-06 2.8738e-08 -4.53948e-07 -3.48846e-07)
(3.94777e-07 -7.69371e-08 5.48464e-06 -3.347e-08 4.13184e-07 -3.61307e-07)
(2.87946e-07 1.2857e-07 4.83745e-06 3.45036e-08 1.1566e-06 -3.22449e-07)
(9.83824e-08 1.96228e-07 3.66366e-06 1.5059e-07 1.52475e-06 -2.48972e-07)
(-6.66411e-10 1.16828e-07 2.34291e-06 1.57554e-07 1.44695e-06 -1.56888e-07)
(-6.96885e-08 5.62741e-08 1.31328e-06 1.55872e-07 1.1045e-06 -8.61831e-08)
(-9.48575e-07 -3.03777e-07 9.76286e-06 1.23409e-06 -8.36523e-06 -2.85514e-07)