/*--------------------------------*- C++ -*----------------------------------*\
| =========                 |                                                 |
| \\      /  F ield         | OpenFOAM: The Open Source CFD Toolbox           |
|  \\    /   O peration     | Version:  2406                                  |
|   \\  /    A nd           | Website:  www.openfoam.com                      |
|    \\/     M anipulation  |                                                 |
\*---------------------------------------------------------------------------*/
FoamFile
{
    version     2.0;
    format      ascii;
    arch        "LSB;label=32;scalar=64";
    class       volVectorField;
    location    "0.5";
    object      U;
}
// * * * * * * * * * * * * * * * * * * * * * * * * * * * * * * * * * * * * * //

dimensions      [0 1 -1 0 0 0 0];

internalField   nonuniform List<vector> 
25000
(
(0.149958 0.149589 1.12448)
(0.122808 0.161272 1.15687)
(0.0905973 0.170166 1.17482)
(0.0557866 0.17578 1.18434)
(0.019297 0.178564 1.18842)
(-0.0177055 0.178479 1.18844)
(-0.0542285 0.175543 1.18436)
(-0.0891902 0.169767 1.17483)
(-0.121742 0.160659 1.15682)
(-0.148836 0.148921 1.12423)
(0.161599 0.122278 1.15681)
(0.131057 0.130463 1.18679)
(0.0959028 0.136704 1.19915)
(0.0585841 0.140751 1.20376)
(0.0200862 0.142706 1.20518)
(-0.0187529 0.142616 1.20523)
(-0.0572851 0.140493 1.20392)
(-0.094795 0.136288 1.19938)
(-0.130335 0.129887 1.18704)
(-0.160898 0.121519 1.15688)
(0.170519 0.0899441 1.17473)
(0.137362 0.0951597 1.19913)
(0.0999914 0.0991703 1.20686)
(0.0607554 0.101786 1.20797)
(0.0206874 0.103038 1.20755)
(-0.0195779 0.10297 1.20763)
(-0.0596708 0.101589 1.20822)
(-0.0990929 0.0988552 1.20724)
(-0.136826 0.0947305 1.19959)
(-0.169891 0.0893049 1.17504)
(0.176151 0.0550596 1.18424)
(0.141441 0.0577738 1.20377)
(0.102655 0.0598679 1.20801)
(0.0621751 0.0612394 1.20678)
(0.0210878 0.0618971 1.20518)
(-0.0201007 0.0618582 1.20528)
(-0.0612067 0.0611205 1.20708)
(-0.101864 0.0596615 1.20848)
(-0.140996 0.0574569 1.20436)
(-0.175572 0.0545137 1.18474)
(0.178953 0.018503 1.18834)
(0.143415 0.0192338 1.20523)
(0.103932 0.0197682 1.20764)
(0.0628598 0.0201238 1.20525)
(0.0212889 0.0203016 1.20309)
(-0.0203388 0.0202887 1.20321)
(-0.0619329 0.0200749 1.20558)
(-0.103187 0.0196563 1.20816)
(-0.143013 0.0190131 1.2059)
(-0.178391 0.0180676 1.18897)
(0.17888 -0.0185677 1.18839)
(0.143338 -0.0196524 1.20534)
(0.103879 -0.0205366 1.20781)
(0.0628338 -0.0211027 1.20544)
(0.0212879 -0.0213616 1.2033)
(-0.0203224 -0.02135 1.20341)
(-0.0619008 -0.0210877 1.20577)
(-0.103138 -0.0205623 1.20834)
(-0.142948 -0.019779 1.20605)
(-0.178324 -0.018867 1.18908)
(0.175942 -0.0551523 1.18437)
(0.141217 -0.0582095 1.20409)
(0.1025 -0.0606416 1.20847)
(0.0620994 -0.0622194 1.20733)
(0.0210835 -0.062957 1.20577)
(-0.0200512 -0.0629228 1.20588)
(-0.06112 -0.0621478 1.20764)
(-0.10173 -0.0605859 1.20898)
(-0.140808 -0.0582344 1.20478)
(-0.175381 -0.0552924 1.18508)
(0.170159 -0.0901267 1.1749)
(0.137023 -0.0956666 1.19961)
(0.0997596 -0.0999865 1.20754)
(0.0606374 -0.102789 1.20879)
(0.0206741 -0.10412 1.20843)
(-0.0195235 -0.104079 1.20852)
(-0.0595602 -0.102681 1.20907)
(-0.0989029 -0.0998676 1.20801)
(-0.136543 -0.0956026 1.20025)
(-0.169584 -0.0900995 1.17557)
(0.161051 -0.122586 1.15693)
(0.130621 -0.131026 1.18729)
(0.0956182 -0.137518 1.19989)
(0.0584296 -0.141713 1.20467)
(0.0200346 -0.14375 1.20617)
(-0.0187324 -0.143712 1.20625)
(-0.0572072 -0.141611 1.2049)
(-0.0946395 -0.13739 1.20029)
(-0.130031 -0.130899 1.18785)
(-0.160449 -0.122359 1.15754)
(0.148986 -0.149684 1.12436)
(0.122182 -0.161311 1.1571)
(0.0901905 -0.170308 1.1753)
(0.0555436 -0.176012 1.18499)
(0.0191846 -0.178871 1.18918)
(-0.0177226 -0.178864 1.18924)
(-0.0541867 -0.176002 1.18518)
(-0.0890885 -0.170278 1.17562)
(-0.121498 -0.161191 1.15755)
(-0.148572 -0.149105 1.12486)
(0.0539619 0.0507975 1.26092)
(0.0483064 0.060618 1.34612)
(0.0397344 0.0683424 1.40039)
(0.0275381 0.0740266 1.43263)
(0.0131441 0.0769797 1.44785)
(-0.0021087 0.0770329 1.4485)
(-0.0168828 0.0742182 1.43463)
(-0.0299094 0.0686731 1.40392)
(-0.0397768 0.0611174 1.3514)
(-0.0468381 0.0517471 1.26811)
(0.0631099 0.0448658 1.34635)
(0.0575327 0.0545459 1.43668)
(0.0467747 0.0620092 1.48517)
(0.0315485 0.0672014 1.51072)
(0.0137775 0.069839 1.52199)
(-0.00487638 0.0697647 1.52242)
(-0.0229419 0.0670042 1.51203)
(-0.0388707 0.0617357 1.48747)
(-0.0507822 0.054277 1.44019)
(-0.0576456 0.0447305 1.35138)
(0.0705017 0.0359932 1.40061)
(0.0647512 0.0434898 1.48517)
(0.0521881 0.0491345 1.52795)
(0.0345933 0.0529629 1.54898)
(0.0142419 0.0548644 1.55768)
(-0.00699905 0.0547204 1.55798)
(-0.0275696 0.0525484 1.54991)
(-0.0457445 0.0485016 1.52957)
(-0.0593057 0.0427252 1.4876)
(-0.0660309 0.0351479 1.404)
(0.0760374 0.023421 1.4326)
(0.0698084 0.0279922 1.51058)
(0.0559047 0.0313284 1.54887)
(0.0366531 0.0335238 1.56668)
(0.0145556 0.0345732 1.57356)
(-0.00842937 0.0344024 1.57379)
(-0.0306943 0.0330155 1.56739)
(-0.050433 0.030509 1.55012)
(-0.0652058 0.0269187 1.51239)
(-0.0721546 0.0221072 1.43496)
(0.0789188 0.00868437 1.44744)
(0.0723973 0.00999749 1.52161)
(0.0577851 0.0108294 1.55739)
(0.0376772 0.0113184 1.57341)
(0.0146838 0.0114929 1.57929)
(-0.009202 0.011316 1.57948)
(-0.0323367 0.0107824 1.57401)
(-0.0528742 0.00993121 1.55844)
(-0.068265 0.00875456 1.5231)
(-0.075327 0.00710241 1.44924)
(0.0789459 -0.00678744 1.44759)
(0.0723477 -0.00879926 1.52172)
(0.0576972 -0.0105071 1.55746)
(0.0375676 -0.0117341 1.57345)
(0.0145609 -0.0124418 1.57932)
(-0.00933405 -0.0126125 1.57951)
(-0.0324693 -0.0122626 1.57403)
(-0.0529954 -0.0114239 1.55844)
(-0.0683661 -0.0101264 1.52308)
(-0.075401 -0.00850672 1.44919)
(0.0761227 -0.0215802 1.43313)
(0.0696717 -0.0268485 1.51095)
(0.0556548 -0.0310492 1.5491)
(0.0363299 -0.0339656 1.56682)
(0.0141822 -0.0355282 1.57366)
(-0.00883741 -0.0356875 1.57387)
(-0.0311192 -0.034476 1.56744)
(-0.0508314 -0.0319663 1.55013)
(-0.065538 -0.0282247 1.51235)
(-0.0724034 -0.0233831 1.43478)
(0.0706088 -0.0343376 1.40171)
(0.0645719 -0.0425083 1.48593)
(0.0518222 -0.0489727 1.52844)
(0.0340739 -0.0534683 1.54928)
(0.0136011 -0.0558393 1.55787)
(-0.0077432 -0.0560049 1.55811)
(-0.0283682 -0.0539891 1.54998)
(-0.0465101 -0.0499245 1.52957)
(-0.0599583 -0.0439656 1.48747)
(-0.0665037 -0.0362223 1.40361)
(0.0631497 -0.0435622 1.34832)
(0.0573512 -0.0538116 1.43803)
(0.0463571 -0.0619885 1.48604)
(0.0308602 -0.0677482 1.51125)
(0.012828 -0.0707906 1.52229)
(-0.00604381 -0.0709849 1.52255)
(-0.024247 -0.0683583 1.51203)
(-0.0401884 -0.0630842 1.48733)
(-0.0519226 -0.0554503 1.43984)
(-0.058378 -0.045574 1.35065)
(0.0535686 -0.0496767 1.26402)
(0.0480355 -0.0596263 1.3483)
(0.0392328 -0.0678338 1.40173)
(0.0266579 -0.0739369 1.43332)
(0.0118593 -0.0772016 1.44808)
(-0.00374426 -0.0774566 1.4484)
(-0.0187741 -0.0747332 1.43427)
(-0.0318962 -0.0691713 1.40332)
(-0.0415891 -0.061494 1.35051)
(-0.0482753 -0.0515662 1.26683)
(0.0357482 0.0231769 1.12723)
(0.0336319 0.0311132 1.25358)
(0.0296132 0.0372518 1.34301)
(0.0235445 0.0416887 1.40113)
(0.0159611 0.0442558 1.43107)
(0.00765712 0.0448608 1.43466)
(-0.00053583 0.043584 1.41204)
(-0.00793804 0.0405036 1.36158)
(-0.0139425 0.0360512 1.28007)
(-0.0188508 0.0302002 1.16162)
(0.0408328 0.0198393 1.25464)
(0.0384766 0.0276887 1.40369)
(0.033107 0.0336299 1.49605)
(0.0248598 0.0377762 1.55068)
(0.0147266 0.0400578 1.57708)
(0.00384958 0.0404615 1.57944)
(-0.00673009 0.0390767 1.55795)
(-0.0160191 0.0360298 1.50882)
(-0.0230591 0.0315892 1.42288)
(-0.0276742 0.0257995 1.28124)
(0.0449006 0.0153664 1.344)
(0.0424489 0.0218967 1.49599)
(0.0359676 0.0266239 1.58603)
(0.0259774 0.0297644 1.63685)
(0.0138707 0.0314153 1.66044)
(0.00102627 0.0316469 1.66202)
(-0.0113896 0.030553 1.64179)
(-0.0222102 0.0281967 1.59496)
(-0.0301676 0.0246574 1.50994)
(-0.0344465 0.0198853 1.364)
(0.0480495 0.00880727 1.40069)
(0.0453961 0.0132424 1.54967)
(0.0380347 0.0162569 1.63613)
(0.026809 0.0181655 1.68384)
(0.0133751 0.0191297 1.70558)
(-0.0007745 0.0192591 1.70671)
(-0.014426 0.018636 1.68742)
(-0.0263498 0.0172607 1.64273)
(-0.0350662 0.0151208 1.56021)
(-0.039258 0.0120871 1.416)
(0.0497107 0.000900738 1.42803)
(0.0469865 0.00280746 1.57438)
(0.0391587 0.00389496 1.65855)
(0.0272771 0.00452126 1.7046)
(0.0131498 0.0048392 1.72547)
(-0.00167084 0.00491558 1.7264)
(-0.0159671 0.00479288 1.7075)
(-0.0284981 0.00448568 1.66391)
(-0.0376533 0.00397341 1.58302)
(-0.0418299 0.00310204 1.44061)
(0.0497112 -0.0074401 1.42798)
(0.0470708 -0.00817544 1.57436)
(0.0392592 -0.00907052 1.65849)
(0.0273427 -0.00974331 1.70449)
(0.0131427 -0.0100631 1.72531)
(-0.00177147 -0.0100203 1.72617)
(-0.0161532 -0.00962554 1.70718)
(-0.0287375 -0.0088304 1.66345)
(-0.0379089 -0.00763285 1.58232)
(-0.0420509 -0.00617999 1.43954)
(0.0480179 -0.0151724 1.40075)
(0.0456139 -0.0184716 1.54978)
(0.0382986 -0.0213077 1.6361)
(0.0269583 -0.0232809 1.68363)
(0.0133032 -0.0242647 1.70517)
(-0.00111763 -0.0242765 1.70608)
(-0.0150265 -0.0233602 1.68648)
(-0.0271157 -0.0214563 1.64133)
(-0.0358782 -0.0185692 1.5581)
(-0.0399688 -0.0148464 1.41278)
(0.0447232 -0.0214085 1.34478)
(0.0427206 -0.0268724 1.49672)
(0.0363 -0.0314197 1.58643)
(0.0260875 -0.0346218 1.63684)
(0.0135924 -0.0362979 1.66001)
(0.000278696 -0.036424 1.66111)
(-0.0125651 -0.0350213 1.64028)
(-0.0236569 -0.032104 1.59261)
(-0.0316827 -0.0277485 1.50634)
(-0.0357457 -0.0220898 1.35852)
(0.0402351 -0.0254333 1.25705)
(0.0386042 -0.0322572 1.40585)
(0.0333264 -0.03797 1.49762)
(0.0247268 -0.042136 1.55151)
(0.0139908 -0.0444366 1.57709)
(0.00242605 -0.0447388 1.57855)
(-0.00877097 -0.043049 1.55598)
(-0.0184626 -0.039458 1.50546)
(-0.0255622 -0.0341882 1.41766)
(-0.0297143 -0.027303 1.27345)
(0.0341906 -0.0273139 1.13202)
(0.0331803 -0.0340742 1.25815)
(0.0293397 -0.0399405 1.34682)
(0.0228383 -0.0444119 1.40375)
(0.0144854 -0.0470334 1.43226)
(0.00529587 -0.0475746 1.43424)
(-0.00370832 -0.0460335 1.40975)
(-0.0116504 -0.0424704 1.35709)
(-0.0177474 -0.0373004 1.27298)
(-0.0222166 -0.0301592 1.15154)
(0.0201535 -0.0123191 1.14123)
(0.0210751 -0.00625586 1.27259)
(0.0213861 -0.00100951 1.36886)
(0.0212678 0.0030016 1.4343)
(0.0205113 0.00595225 1.4702)
(0.0192147 0.00778133 1.47729)
(0.0174709 0.00864114 1.45571)
(0.0152871 0.00854431 1.40484)
(0.01269 0.00772674 1.32307)
(0.00889307 0.00593186 1.20542)
(0.0194298 -0.0137273 1.27244)
(0.020842 -0.00642684 1.43536)
(0.0210172 -0.000777098 1.54196)
(0.0200242 0.00335719 1.60858)
(0.0180572 0.00612585 1.64269)
(0.0155265 0.00768737 1.64777)
(0.0127645 0.00824076 1.62424)
(0.0100332 0.00784972 1.56927)
(0.00759986 0.00662466 1.4756)
(0.00503556 0.00438064 1.32661)
(0.01875 -0.0134388 1.36685)
(0.0208342 -0.00613763 1.54023)
(0.0209148 -0.000949505 1.6497)
(0.0191347 0.00257598 1.71499)
(0.0161181 0.0047579 1.74667)
(0.012556 0.00596131 1.75027)
(0.00890694 0.00643849 1.72648)
(0.00559221 0.00613499 1.67071)
(0.00312058 0.00501245 1.57261)
(0.00151296 0.00280813 1.41204)
(0.018615 -0.0135521 1.42804)
(0.0210257 -0.00702293 1.60367)
(0.0209449 -0.0027226 1.71243)
(0.0185421 -2.63679e-05 1.77495)
(0.0147896 0.00151632 1.80355)
(0.0105774 0.00243374 1.80602)
(0.00632137 0.00302062 1.78353)
(0.00248671 0.0030501 1.72921)
(-0.000149718 0.00239175 1.63068)
(-0.0011732 0.000742602 1.46669)
(0.0183247 -0.0138719 1.45734)
(0.0210912 -0.00868997 1.63326)
(0.0209726 -0.00552877 1.74096)
(0.0182027 -0.00366729 1.80121)
(0.0140594 -0.00259818 1.82707)
(0.00956208 -0.00185657 1.82874)
(0.0049966 -0.00123318 1.80809)
(0.000799801 -0.000861652 1.75546)
(-0.00198999 -0.00088759 1.65735)
(-0.00271687 -0.00164922 1.4924)
(0.0177401 -0.0142023 1.45554)
(0.0208625 -0.0105941 1.63233)
(0.0209512 -0.00866122 1.74049)
(0.0182214 -0.00758919 1.80104)
(0.0139888 -0.00687778 1.82711)
(0.00933593 -0.0062805 1.82875)
(0.00463688 -0.00568741 1.80772)
(0.000393768 -0.00500883 1.75459)
(-0.002356 -0.0043467 1.65585)
(-0.00295646 -0.00407058 1.49005)
(0.0166767 -0.014167 1.4228)
(0.020177 -0.0121246 1.60097)
(0.0207417 -0.0114138 1.71102)
(0.0184649 -0.0111844 1.77421)
(0.0144914 -0.0109346 1.8031)
(0.00988887 -0.0105196 1.80536)
(0.00528256 -0.00989726 1.78207)
(0.00130734 -0.00886342 1.72648)
(-0.00121089 -0.00751819 1.62618)
(-0.00185881 -0.00626056 1.45967)
(0.0151025 -0.0134966 1.35868)
(0.0189531 -0.0127064 1.53604)
(0.0201555 -0.013011 1.64755)
(0.0186475 -0.0135974 1.71373)
(0.0153607 -0.0139355 1.74556)
(0.0112728 -0.0138065 1.74866)
(0.0071479 -0.0131133 1.72369)
(0.00365367 -0.0117725 1.66601)
(0.00141802 -0.00994315 1.56511)
(0.000481628 -0.00797782 1.40053)
(0.0130717 -0.0120812 1.26205)
(0.0171385 -0.0119035 1.43011)
(0.0190554 -0.0127376 1.53959)
(0.0185974 -0.0138764 1.60745)
(0.0164345 -0.0147222 1.64163)
(0.0133796 -0.0149371 1.64581)
(0.0101407 -0.014389 1.62049)
(0.00728701 -0.0130828 1.56275)
(0.0053354 -0.0112723 1.46521)
(0.00394058 -0.00917565 1.31103)
(0.0101448 -0.0097862 1.12872)
(0.0143233 -0.0093087 1.26625)
(0.0170922 -0.0101097 1.36676)
(0.0180503 -0.0114012 1.43422)
(0.0175181 -0.0125426 1.47027)
(0.0160069 -0.0131438 1.47595)
(0.014043 -0.0130692 1.45161)
(0.0119777 -0.0122782 1.39671)
(0.0101742 -0.0111841 1.30978)
(0.00782251 -0.00950578 1.18628)
(0.0262672 -0.0245216 1.12215)
(0.0266486 -0.0188382 1.25194)
(0.02612 -0.0133013 1.34805)
(0.0256879 -0.0088971 1.41531)
(0.0249598 -0.00529525 1.45442)
(0.0238311 -0.0026523 1.46544)
(0.0219807 -0.000907709 1.44838)
(0.0190126 -0.000223875 1.40294)
(0.0145658 -0.0008617 1.32766)
(0.00835342 -0.00349512 1.21615)
(0.0238538 -0.0297344 1.24709)
(0.0237544 -0.0227238 1.41352)
(0.023326 -0.0166665 1.52492)
(0.0228809 -0.0117972 1.5971)
(0.0221719 -0.00807315 1.63619)
(0.0211448 -0.00544127 1.64492)
(0.0195752 -0.003763 1.62381)
(0.017097 -0.00314645 1.57079)
(0.0133084 -0.00384581 1.47955)
(0.00779718 -0.00645568 1.33308)
(0.0206149 -0.0312082 1.33587)
(0.0210333 -0.0236092 1.51822)
(0.0210142 -0.0174689 1.63702)
(0.0205649 -0.0127479 1.71074)
(0.0197092 -0.00934533 1.74838)
(0.0185978 -0.00701844 1.75514)
(0.0170868 -0.00549397 1.73231)
(0.0148627 -0.00493234 1.67591)
(0.0116136 -0.00566666 1.57669)
(0.00700612 -0.0083484 1.4147)
(0.0180253 -0.03179 1.39244)
(0.0188557 -0.0239649 1.5819)
(0.0192402 -0.0179486 1.7035)
(0.0188278 -0.0135463 1.77612)
(0.0178716 -0.0105337 1.8105)
(0.0167247 -0.00850894 1.81535)
(0.015235 -0.00708994 1.79359)
(0.0131147 -0.00655627 1.73757)
(0.0102131 -0.00732244 1.63546)
(0.0063213 -0.0100495 1.46668)
(0.0155837 -0.031579 1.41713)
(0.0170249 -0.0240078 1.61045)
(0.0179149 -0.0183546 1.73337)
(0.0176735 -0.0143293 1.80451)
(0.0167288 -0.0116275 1.83522)
(0.0156244 -0.00980913 1.8382)
(0.0141772 -0.00855451 1.81932)
(0.012109 -0.00812394 1.76518)
(0.00945129 -0.00893834 1.66226)
(0.00610205 -0.0116461 1.49041)
(0.0133247 -0.0308622 1.40971)
(0.0154302 -0.0238099 1.60596)
(0.0169495 -0.0186603 1.73078)
(0.0170999 -0.0150237 1.80318)
(0.0163224 -0.0125506 1.83481)
(0.0152332 -0.0109017 1.83811)
(0.0138053 -0.00988511 1.81862)
(0.0118676 -0.00965392 1.76359)
(0.00951087 -0.0105343 1.65957)
(0.00658172 -0.0131727 1.48626)
(0.0109995 -0.0296645 1.36994)
(0.0138257 -0.0232864 1.568)
(0.0161227 -0.0187264 1.69516)
(0.0169202 -0.0155547 1.77125)
(0.0165638 -0.0133924 1.80764)
(0.015617 -0.0119706 1.81307)
(0.0142906 -0.011224 1.79035)
(0.012607 -0.0111811 1.73231)
(0.010629 -0.0121211 1.62719)
(0.00800121 -0.0146936 1.4542)
(0.00847679 -0.028013 1.29761)
(0.0119813 -0.0223572 1.49369)
(0.0151364 -0.0183443 1.62151)
(0.0168024 -0.0156533 1.70081)
(0.017192 -0.0139159 1.74144)
(0.0167505 -0.0128738 1.74909)
(0.0158108 -0.0124199 1.72523)
(0.0145277 -0.0125887 1.66607)
(0.0129412 -0.0136684 1.56228)
(0.0104103 -0.0161684 1.3938)
(0.0053379 -0.026127 1.19199)
(0.00952967 -0.0210861 1.37608)
(0.0136 -0.017411 1.49993)
(0.016347 -0.0150959 1.58022)
(0.0178402 -0.0137845 1.6238)
(0.0183668 -0.0131971 1.634)
(0.0182154 -0.0131948 1.61175)
(0.0175348 -0.0137935 1.55518)
(0.0164614 -0.0152801 1.45807)
(0.0141347 -0.0177748 1.30361)
(0.00126004 -0.0228635 1.04837)
(0.00578152 -0.0185722 1.19736)
(0.0108189 -0.0153777 1.30955)
(0.0149694 -0.0135927 1.38832)
(0.0180814 -0.0127866 1.43423)
(0.02013 -0.0127354 1.44778)
(0.0212659 -0.0133038 1.4295)
(0.0214788 -0.0143427 1.37962)
(0.0209625 -0.0162542 1.29735)
(0.0184055 -0.018189 1.17765)
(0.0259073 -0.0223545 1.14988)
(0.0296898 -0.021425 1.27841)
(0.0305806 -0.0186633 1.37311)
(0.030327 -0.0157753 1.44048)
(0.0288575 -0.0130175 1.48191)
(0.0262946 -0.011065 1.49765)
(0.0224643 -0.0103667 1.48772)
(0.0171708 -0.011384 1.45164)
(0.0101546 -0.0149008 1.38702)
(0.00251215 -0.0212429 1.28498)
(0.0239619 -0.0250117 1.26495)
(0.0271066 -0.0234861 1.42907)
(0.0282366 -0.0207336 1.53899)
(0.0285397 -0.0176343 1.61183)
(0.0280019 -0.0148436 1.65356)
(0.026643 -0.0129533 1.66666)
(0.0242373 -0.0123773 1.65184)
(0.0203594 -0.0136301 1.6073)
(0.0145291 -0.017412 1.52654)
(0.00733409 -0.0243947 1.39074)
(0.0205053 -0.0252487 1.34297)
(0.0237239 -0.023436 1.5237)
(0.0253205 -0.0205534 1.64232)
(0.0260934 -0.0174513 1.71793)
(0.0261483 -0.0148554 1.75867)
(0.0255833 -0.0132464 1.76937)
(0.0241841 -0.0128843 1.75202)
(0.0214406 -0.0142944 1.70319)
(0.0168201 -0.0182392 1.61372)
(0.0106449 -0.0256645 1.4621)
(0.0173573 -0.0246894 1.39012)
(0.0203858 -0.0225911 1.57955)
(0.0223802 -0.0195603 1.70281)
(0.023567 -0.0165136 1.77873)
(0.0240591 -0.0141448 1.81654)
(0.0240921 -0.0128373 1.82453)
(0.0234586 -0.01277 1.8077)
(0.0216023 -0.0144638 1.75875)
(0.0180186 -0.018761 1.66556)
(0.0128166 -0.0266818 1.50619)
(0.0142077 -0.0233079 1.40688)
(0.0172083 -0.0211754 1.60188)
(0.0196657 -0.0181692 1.72822)
(0.0213267 -0.0152768 1.80399)
(0.0222487 -0.0131488 1.83857)
(0.0227541 -0.01209 1.84383)
(0.0226541 -0.012278 1.82963)
(0.0215114 -0.014341 1.78246)
(0.0188663 -0.0190647 1.68781)
(0.0147135 -0.0274264 1.52442)
(0.0112565 -0.0214123 1.39257)
(0.0142565 -0.0194143 1.59183)
(0.0172116 -0.0165986 1.72135)
(0.0194432 -0.0139454 1.79951)
(0.0208728 -0.0120555 1.83602)
(0.0217659 -0.0112251 1.84235)
(0.0220717 -0.0117079 1.82722)
(0.0215595 -0.0141792 1.77856)
(0.0198578 -0.0193236 1.68219)
(0.016725 -0.0280508 1.51666)
(0.00845012 -0.0191232 1.34651)
(0.0114679 -0.0173855 1.54829)
(0.0149209 -0.0148727 1.68073)
(0.0177814 -0.012543 1.76321)
(0.0198543 -0.0109637 1.80545)
(0.0212739 -0.0104323 1.81546)
(0.0221077 -0.0112971 1.79757)
(0.0222685 -0.0141664 1.74556)
(0.0215429 -0.019669 1.64777)
(0.0193752 -0.028644 1.48227)
(0.00585928 -0.0165941 1.2681)
(0.0088462 -0.01515 1.46803)
(0.0127412 -0.0129626 1.60103)
(0.0162886 -0.0109834 1.68686)
(0.01918 -0.0097703 1.73411)
(0.0213906 -0.00965709 1.74775)
(0.0229989 -0.0109988 1.72978)
(0.023984 -0.0142978 1.67718)
(0.0242448 -0.0201302 1.58104)
(0.0227954 -0.0290763 1.42003)
(0.00347111 -0.0140723 1.15608)
(0.00635263 -0.0128386 1.34362)
(0.0105824 -0.0109156 1.47195)
(0.0148579 -0.00928893 1.55846)
(0.0187676 -0.00848714 1.60914)
(0.0221019 -0.0088636 1.62657)
(0.0248162 -0.0107698 1.61166)
(0.0268292 -0.0145824 1.56294)
(0.0282182 -0.0208375 1.4743)
(0.0276588 -0.0295157 1.3273)
(0.00141949 -0.0111119 1.00485)
(0.00379202 -0.0100958 1.15543)
(0.00819303 -0.0085215 1.27056)
(0.0132741 -0.00738524 1.35476)
(0.018499 -0.00704693 1.40799)
(0.023363 -0.00784362 1.42994)
(0.0276249 -0.0101128 1.42073)
(0.0309151 -0.0139351 1.38048)
(0.0333273 -0.0200925 1.30796)
(0.0326683 -0.0273424 1.19623)
(0.0184056 0.00708889 1.11427)
(0.0240132 0.00078459 1.26455)
(0.0259635 -0.00295256 1.37634)
(0.0249393 -0.00508757 1.45692)
(0.0214336 -0.00656986 1.50925)
(0.0160549 -0.00843757 1.53482)
(0.00917825 -0.0116414 1.53442)
(0.00121279 -0.016747 1.50755)
(-0.00772682 -0.0247552 1.45092)
(-0.0145652 -0.0347464 1.35372)
(0.0207456 0.00878148 1.23311)
(0.0258929 0.00127801 1.4157)
(0.0280811 -0.00357252 1.53741)
(0.0278571 -0.00639321 1.61888)
(0.0257192 -0.00831387 1.66808)
(0.0221046 -0.0105233 1.68869)
(0.0171144 -0.0140599 1.68232)
(0.0106075 -0.0197552 1.64735)
(0.00232599 -0.0283015 1.57643)
(-0.00566127 -0.0396673 1.4483)
(0.0210753 0.0104957 1.31121)
(0.0257244 0.00188384 1.50666)
(0.028009 -0.00345374 1.63369)
(0.0283479 -0.00652475 1.71536)
(0.0272134 -0.00863098 1.76143)
(0.0249879 -0.0110222 1.7778)
(0.0216119 -0.0147047 1.76804)
(0.0166352 -0.0205829 1.72902)
(0.00966634 -0.0293699 1.65041)
(0.00217023 -0.0414762 1.50797)
(0.0206681 0.0126867 1.35758)
(0.0245528 0.00320246 1.55816)
(0.0267518 -0.00250882 1.68773)
(0.0274812 -0.00576703 1.76846)
(0.0271178 -0.00802471 1.81036)
(0.0260099 -0.0105923 1.8222)
(0.0240338 -0.0145563 1.81234)
(0.0204865 -0.0207761 1.77342)
(0.0149115 -0.0300377 1.69144)
(0.00813733 -0.0428971 1.54166)
(0.0199911 0.0152602 1.37363)
(0.0229786 0.0050943 1.57659)
(0.0250617 -0.000973894 1.70779)
(0.0262054 -0.00447086 1.78796)
(0.0265547 -0.00696412 1.8264)
(0.026375 -0.00974997 1.83441)
(0.0253966 -0.0138806 1.82645)
(0.0230692 -0.020474 1.78908)
(0.0189344 -0.0302249 1.70526)
(0.0133141 -0.0436219 1.55106)
(0.0194733 0.0179854 1.35912)
(0.0215099 0.00734721 1.56326)
(0.0234149 0.000923202 1.69628)
(0.0249418 -0.00289685 1.77865)
(0.0259619 -0.00568412 1.81987)
(0.0265069 -0.0087427 1.83014)
(0.0262673 -0.0131315 1.82026)
(0.0250384 -0.0200245 1.77973)
(0.022373 -0.0301246 1.6929)
(0.0180032 -0.0438129 1.53556)
(0.0195885 0.0207257 1.31367)
(0.0206223 0.00983463 1.51721)
(0.0221748 0.00308055 1.65142)
(0.0239056 -0.00113175 1.73731)
(0.025485 -0.00432072 1.78414)
(0.026709 -0.00772784 1.79898)
(0.027349 -0.012457 1.78663)
(0.0272312 -0.0196171 1.74182)
(0.0260151 -0.0298816 1.65234)
(0.0228544 -0.0435151 1.49373)
(0.0205821 0.0230933 1.23713)
(0.0208558 0.0123797 1.43554)
(0.021929 0.00542201 1.56808)
(0.0237104 0.000835517 1.65582)
(0.0257629 -0.00279177 1.7069)
(0.0277185 -0.00665763 1.72549)
(0.0293183 -0.0118399 1.71337)
(0.0303069 -0.0192852 1.66767)
(0.0303825 -0.0295607 1.57898)
(0.0280097 -0.0425862 1.42349)
(0.0234071 0.0249707 1.12856)
(0.022955 0.0148626 1.31133)
(0.0234169 0.00777273 1.43635)
(0.0251324 0.00282954 1.52243)
(0.0275664 -0.00129551 1.57541)
(0.0302466 -0.00569587 1.59711)
(0.0327705 -0.0114109 1.58786)
(0.034727 -0.0191572 1.5458)
(0.0359472 -0.0294229 1.46397)
(0.0343657 -0.041368 1.32137)
(0.0272548 0.0238124 0.98251)
(0.0272134 0.0154853 1.12515)
(0.0273106 0.00880539 1.2331)
(0.0289451 0.00400522 1.31328)
(0.0316402 -0.000301401 1.36601)
(0.0349394 -0.00486504 1.39043)
(0.0382871 -0.0106294 1.38591)
(0.0409063 -0.0178349 1.35187)
(0.0426221 -0.0273313 1.28602)
(0.0401997 -0.0366571 1.17894)
(-0.0019503 0.0416723 1.04005)
(0.00139877 0.0331784 1.2241)
(0.00349225 0.0243677 1.3669)
(0.00240764 0.0168226 1.47293)
(-0.00138809 0.00968023 1.54463)
(-0.00725307 0.00240937 1.58419)
(-0.0142699 -0.00576894 1.5932)
(-0.0213372 -0.0149108 1.57164)
(-0.0277443 -0.0254199 1.51594)
(-0.0292099 -0.0347346 1.4143)
(0.00494029 0.0493758 1.16952)
(0.0101216 0.0381414 1.3841)
(0.0130643 0.027449 1.53093)
(0.0127791 0.0182689 1.63163)
(0.00983754 0.0100606 1.69515)
(0.00496427 0.00197623 1.72657)
(-0.00120226 -0.00692388 1.72886)
(-0.00817226 -0.0170588 1.701)
(-0.0155043 -0.0283698 1.63457)
(-0.0198292 -0.0396595 1.50565)
(0.0112345 0.0536215 1.25527)
(0.0165243 0.0405554 1.47855)
(0.0194993 0.0287998 1.62559)
(0.0195717 0.01889 1.72173)
(0.017311 0.0102825 1.77819)
(0.0134138 0.00196241 1.80255)
(0.00835096 -0.00715278 1.80068)
(0.00219573 -0.0176266 1.77014)
(-0.00480545 -0.0293822 1.69856)
(-0.00996062 -0.0417031 1.55833)
(0.0163605 0.0572653 1.30863)
(0.0211743 0.0427565 1.53176)
(0.0237418 0.0301323 1.67681)
(0.0239073 0.0196907 1.76854)
(0.0221758 0.0107802 1.81818)
(0.0191956 0.0022551 1.83584)
(0.0153456 -0.0071271 1.83296)
(0.0102622 -0.0179594 1.80306)
(0.00401904 -0.0302249 1.72936)
(-0.00158722 -0.0433641 1.58365)
(0.0209799 0.0602033 1.33197)
(0.0248288 0.0447923 1.55184)
(0.0267656 0.0315407 1.69434)
(0.0269665 0.0206332 1.78301)
(0.0257506 0.0113216 1.82831)
(0.0236415 0.00251729 1.84186)
(0.0207169 -0.0069703 1.83942)
(0.0166332 -0.0179996 1.80984)
(0.0114414 -0.030549 1.73391)
(0.00608271 -0.0440023 1.58432)
(0.0253061 0.0624029 1.32564)
(0.0280808 0.0465994 1.54102)
(0.0292764 0.0329631 1.68124)
(0.0294173 0.0216525 1.76967)
(0.0286709 0.0119404 1.81694)
(0.0272327 0.00278622 1.83297)
(0.0249315 -0.00685568 1.82793)
(0.0218241 -0.0178645 1.7935)
(0.0177947 -0.0303661 1.71342)
(0.0129161 -0.0436703 1.56043)
(0.029906 0.0636958 1.28987)
(0.031621 0.0480527 1.49918)
(0.0319287 0.0343461 1.63648)
(0.0317574 0.0227647 1.72546)
(0.0311968 0.0126974 1.77636)
(0.0302091 0.00324939 1.79595)
(0.0286625 -0.00652913 1.78839)
(0.0265266 -0.0174548 1.74909)
(0.0235997 -0.0296298 1.6656)
(0.0192249 -0.0422789 1.5109)
(0.0348679 0.0634834 1.22509)
(0.0360624 0.0488293 1.42442)
(0.0355362 0.0354777 1.55613)
(0.0349292 0.0238855 1.6437)
(0.0343338 0.0136243 1.69624)
(0.0336436 0.00395091 1.71788)
(0.0326936 -0.00597082 1.70992)
(0.0312854 -0.0167412 1.66929)
(0.0291249 -0.0283305 1.5861)
(0.0248591 -0.0396925 1.43418)
(0.0413808 0.0617984 1.13053)
(0.0421485 0.0487011 1.31066)
(0.0408982 0.0359007 1.43157)
(0.0398779 0.0245347 1.5142)
(0.0390728 0.0142411 1.56562)
(0.0383939 0.0044844 1.58803)
(0.0376085 -0.00544963 1.58152)
(0.0363766 -0.0158842 1.54366)
(0.034515 -0.0267215 1.46679)
(0.0303231 -0.0363504 1.32749)
(0.0469823 0.0543997 0.999343)
(0.0494937 0.044471 1.13831)
(0.0483457 0.0329591 1.24011)
(0.0471776 0.0229099 1.31381)
(0.0459465 0.0134767 1.36161)
(0.0448245 0.00455732 1.38369)
(0.0435759 -0.00444194 1.37964)
(0.0416723 -0.0134224 1.34838)
(0.0391035 -0.0227332 1.28673)
(0.0333933 -0.0294983 1.18281)
(-0.0281755 0.0609372 0.961511)
(-0.0316436 0.0568382 1.16713)
(-0.0318025 0.0476356 1.33477)
(-0.032784 0.0374074 1.46453)
(-0.0346071 0.0261984 1.5553)
(-0.0372316 0.0148201 1.6076)
(-0.0398694 0.00353995 1.62275)
(-0.0414128 -0.00688356 1.60067)
(-0.0410666 -0.0159876 1.53764)
(-0.0353964 -0.0206012 1.42205)
(-0.0223592 0.0698462 1.10539)
(-0.0226871 0.0632549 1.343)
(-0.0214555 0.0526449 1.5127)
(-0.0216676 0.0405068 1.63353)
(-0.023354 0.027749 1.71242)
(-0.0261876 0.0149725 1.75407)
(-0.0294893 0.00237738 1.76237)
(-0.0324752 -0.0095202 1.7363)
(-0.0342617 -0.0197346 1.66601)
(-0.0318257 -0.0263937 1.52497)
(-0.0142629 0.0734591 1.20343)
(-0.0136731 0.0653312 1.44781)
(-0.0120585 0.0537094 1.61442)
(-0.0119901 0.0406863 1.72692)
(-0.013549 0.0273678 1.79532)
(-0.016335 0.0141982 1.82742)
(-0.0196806 0.00120356 1.83093)
(-0.0230893 -0.0112797 1.8037)
(-0.0257504 -0.0222156 1.73099)
(-0.024911 -0.0300325 1.58183)
(-0.00672423 0.075202 1.2677)
(-0.00543307 0.0658194 1.50838)
(-0.00384617 0.0533656 1.66912)
(-0.00376975 0.0398097 1.77375)
(-0.00523308 0.0262034 1.83281)
(-0.00780517 0.0128705 1.85665)
(-0.0108087 -0.000304466 1.85826)
(-0.0141236 -0.0131302 1.83219)
(-0.0171465 -0.0245836 1.75876)
(-0.0177739 -0.0332069 1.60647)
(0.000588908 0.0750646 1.30152)
(0.00200501 0.0651055 1.53467)
(0.00326919 0.0522372 1.68875)
(0.00326126 0.0384308 1.78728)
(0.00195999 0.0246656 1.84076)
(-0.000236242 0.0113024 1.86068)
(-0.00290837 -0.00186395 1.86156)
(-0.00600169 -0.014708 1.83444)
(-0.00902567 -0.0262274 1.75864)
(-0.0105556 -0.0350057 1.60357)
(0.00726447 0.0733355 1.30598)
(0.00861024 0.0633845 1.53018)
(0.00940301 0.050544 1.67782)
(0.00920568 0.036772 1.77287)
(0.00806642 0.0230422 1.82633)
(0.00621287 0.00971242 1.84782)
(0.00373651 -0.00328608 1.84589)
(0.000883732 -0.0157465 1.81318)
(-0.00202548 -0.0268478 1.73283)
(-0.00417423 -0.0352157 1.57457)
(0.0134282 0.0699891 1.28201)
(0.0145905 0.0606066 1.4961)
(0.0147755 0.0482696 1.63694)
(0.0141857 0.0348863 1.7292)
(0.0129338 0.0214538 1.78357)
(0.0111384 0.00841222 1.80666)
(0.00884013 -0.00412328 1.80176)
(0.00618488 -0.0159049 1.76395)
(0.00336137 -0.026161 1.67996)
(0.000809509 -0.0335261 1.51971)
(0.0188019 0.0646805 1.23039)
(0.0200557 0.0564827 1.43146)
(0.0196702 0.045151 1.56366)
(0.0185636 0.0326124 1.65159)
(0.0169094 0.0198824 1.70492)
(0.0148322 0.00750252 1.72786)
(0.0123819 -0.00427057 1.7213)
(0.00961116 -0.0150433 1.68144)
(0.00663328 -0.024022 1.59707)
(0.00374975 -0.0297739 1.43872)
(0.023831 0.0576483 1.14992)
(0.0250561 0.0508657 1.33032)
(0.0241521 0.0407685 1.45014)
(0.022474 0.0294984 1.53121)
(0.0201129 0.0179305 1.58124)
(0.0172873 0.00670131 1.60277)
(0.0141158 -0.00382462 1.59574)
(0.0106865 -0.0131208 1.55696)
(0.00723959 -0.0204197 1.47718)
(0.00431633 -0.0241474 1.32982)
(0.025823 0.0458466 1.03122)
(0.0284668 0.0414144 1.17146)
(0.0275151 0.0331104 1.27284)
(0.0253165 0.0242019 1.34465)
(0.0218822 0.0149124 1.38985)
(0.0177313 0.00602394 1.40912)
(0.013174 -0.00211716 1.40207)
(0.00850503 -0.00891557 1.3669)
(0.00429881 -0.0139304 1.299)
(0.00109666 -0.0153282 1.18463)
(-0.0361785 0.0481224 0.93015)
(-0.0453523 0.0537517 1.13233)
(-0.0497544 0.051263 1.30242)
(-0.0520742 0.0447202 1.43954)
(-0.0527064 0.0351208 1.5387)
(-0.0522917 0.0243781 1.59693)
(-0.0507031 0.0138103 1.61357)
(-0.0474459 0.00464574 1.58798)
(-0.0422507 -0.0022725 1.51682)
(-0.0337712 -0.0045198 1.38941)
(-0.0389698 0.0580495 1.08813)
(-0.0453248 0.0622631 1.32514)
(-0.0482232 0.0588531 1.50011)
(-0.0496975 0.0502638 1.62966)
(-0.0504149 0.0384683 1.71709)
(-0.0507465 0.0255407 1.76434)
(-0.0504221 0.0129449 1.774)
(-0.0487729 0.00184046 1.7446)
(-0.0450295 -0.00655902 1.66553)
(-0.0377332 -0.010698 1.50966)
(-0.036389 0.0622978 1.19994)
(-0.0416388 0.0654178 1.44365)
(-0.0436371 0.0608365 1.61551)
(-0.044653 0.0508605 1.73607)
(-0.0454931 0.0378433 1.81195)
(-0.0464208 0.0239167 1.84868)
(-0.0469738 0.0104827 1.85304)
(-0.0464356 -0.0015109 1.82272)
(-0.0438359 -0.0108446 1.74157)
(-0.0374764 -0.016087 1.57735)
(-0.0322464 0.0632238 1.27635)
(-0.0361916 0.0650688 1.51504)
(-0.0375478 0.0594193 1.6795)
(-0.0383688 0.0485685 1.79045)
(-0.0393984 0.0349286 1.85549)
(-0.0407513 0.0206125 1.88295)
(-0.0418055 0.00690681 1.88466)
(-0.0420199 -0.00550304 1.85538)
(-0.0404213 -0.0153318 1.77368)
(-0.0354015 -0.0211762 1.60643)
(-0.0270831 0.0610232 1.32111)
(-0.0300277 0.061944 1.55041)