/*--------------------------------*- C++ -*----------------------------------*\
| =========                 |                                                 |
| \\      /  F ield         | OpenFOAM: The Open Source CFD Toolbox           |
|  \\    /   O peration     | Version:  2406                                  |
|   \\  /    A nd           | Website:  www.openfoam.com                      |
|    \\/     M anipulation  |                                                 |
\*---------------------------------------------------------------------------*/
FoamFile
{
    version     2.0;
    format      ascii;
    arch        "LSB;label=32;scalar=64";
    class       volScalarField;
    location    "0.8";
    object      div(phi);
}
// * * * * * * * * * * * * * * * * * * * * * * * * * * * * * * * * * * * * * //

dimensions      [0 0 -1 0 0 0 0];

internalField   nonuniform List<scalar> 
25000
(
-0.00202257
-0.00187477
-0.0018966
-0.00187665
-0.00185207
-0.0018132
-0.00179243
-0.00178662
-0.00177531
-0.00147934
-0.00180432
-0.00160117
-0.00162626
-0.00161825
-0.00157399
-0.00153451
-0.00151304
-0.00150417
-0.00146979
-0.00117218
-0.00176017
-0.00157328
-0.00159285
-0.00160964
-0.0015629
-0.00150211
-0.00149036
-0.00148439
-0.00143902
-0.00116611
-0.00171234
-0.00149521
-0.00156598
-0.00156733
-0.00152194
-0.00147265
-0.00145496
-0.00145359
-0.00141989
-0.00114932
-0.00167051
-0.00145951
-0.00149854
-0.00152774
-0.00148485
-0.00143452
-0.00142998
-0.00142829
-0.00138498
-0.00113099
-0.00161791
-0.00138733
-0.00145586
-0.00146716
-0.00143802
-0.00139481
-0.00138074
-0.00138666
-0.00135905
-0.00109063
-0.00157666
-0.00134034
-0.00137809
-0.00141167
-0.00136296
-0.00132752
-0.00134575
-0.00133741
-0.00129441
-0.00105754
-0.00149505
-0.00127309
-0.00131742
-0.00131105
-0.00128535
-0.00128751
-0.00125756
-0.0012747
-0.00126994
-0.00100204
-0.00142625
-0.00118222
-0.00119562
-0.00120166
-0.00119183
-0.00115997
-0.00118299
-0.00120138
-0.00115323
-0.00091948
-0.00115127
-0.000911582
-0.000935268
-0.000940899
-0.00093385
-0.000942374
-0.00094624
-0.000937474
-0.000912955
-0.000700826
-0.00196179
-0.00180957
-0.00178418
-0.00172418
-0.00168125
-0.00165471
-0.00166538
-0.00170028
-0.0017383
-0.00146568
-0.00170839
-0.00146368
-0.001443
-0.00142061
-0.00138204
-0.00135263
-0.00136254
-0.00138933
-0.00140621
-0.0011671
-0.00163135
-0.00140205
-0.00140501
-0.00141261
-0.0013752
-0.00133408
-0.0013309
-0.00134562
-0.00135239
-0.00114462
-0.00158612
-0.00133901
-0.00138413
-0.00139669
-0.0013624
-0.00132085
-0.00131358
-0.00131967
-0.00131506
-0.0011172
-0.00155384
-0.00131187
-0.0013493
-0.00138047
-0.0013455
-0.00130651
-0.00130083
-0.00129976
-0.00128425
-0.00109569
-0.00153697
-0.00127642
-0.00132738
-0.00134425
-0.00132063
-0.00128069
-0.00126947
-0.00127465
-0.00126996
-0.00106817
-0.00154486
-0.00126082
-0.00128155
-0.00130894
-0.00126284
-0.00123068
-0.00124713
-0.00124432
-0.00123437
-0.00105819
-0.00151682
-0.00124207
-0.00125124
-0.001233
-0.00120152
-0.0012028
-0.00118003
-0.00120956
-0.00124864
-0.00102676
-0.0014979
-0.00120672
-0.00118363
-0.00116613
-0.00114362
-0.00111244
-0.00114271
-0.00118629
-0.00117626
-0.000959487
-0.00123389
-0.000973302
-0.00097863
-0.000965487
-0.000945616
-0.000950922
-0.000960815
-0.000964189
-0.000949317
-0.000724761
-0.00256112
-0.00235395
-0.0023068
-0.00220292
-0.00210396
-0.00202479
-0.00199808
-0.00200582
-0.00201275
-0.00166783
-0.00221427
-0.00187513
-0.00179768
-0.00170725
-0.00160316
-0.00154591
-0.0015422
-0.00157631
-0.0015958
-0.00130671
-0.00207096
-0.00172933
-0.00164321
-0.00157457
-0.00147731
-0.00140799
-0.00141585
-0.00146159
-0.0014963
-0.00126628
-0.00193815
-0.00157054
-0.00153377
-0.00145777
-0.00137132
-0.00131214
-0.00131912
-0.00137294
-0.00141906
-0.00122227
-0.00184494
-0.00148841
-0.00142988
-0.00138546
-0.00130503
-0.00125295
-0.00126592
-0.00131659
-0.00136342
-0.00118753
-0.00177733
-0.00141685
-0.00138795
-0.00133044
-0.00126758
-0.00121744
-0.00122892
-0.00128911
-0.00134234
-0.00115347
-0.00175526
-0.00139656
-0.00134636
-0.00131328
-0.00122867
-0.00119293
-0.00123462
-0.00127973
-0.00131798
-0.00113971
-0.00169445
-0.0013767
-0.00134467
-0.0012768
-0.00121746
-0.00121693
-0.0012146
-0.00128303
-0.00134455
-0.00110606
-0.00164544
-0.00133197
-0.00129049
-0.00124802
-0.00120957
-0.0011761
-0.00122251
-0.00128104
-0.001275
-0.00102859
-0.00132748
-0.00105744
-0.00106107
-0.00104248
-0.00101804
-0.00102614
-0.00104138
-0.00104857
-0.00102764
-0.000777931
-0.00183973
-0.00175314
-0.00177842
-0.00175479
-0.00174873
-0.00175321
-0.00177973
-0.00180668
-0.0018177
-0.001487
-0.00163427
-0.00142681
-0.00140431
-0.00137855
-0.00134652
-0.00133545
-0.00138341
-0.00143896
-0.00145628
-0.00118756
-0.00156813
-0.00134319
-0.00132307
-0.00128625
-0.00123536
-0.00122443
-0.00127017
-0.00134331
-0.00138836
-0.00116239
-0.00153085
-0.0012701
-0.00124186
-0.00119424
-0.001131
-0.00111382
-0.00118344
-0.00127205
-0.00132175
-0.0011337
-0.00149591
-0.00122234
-0.00119005
-0.00113522
-0.00105782
-0.00105508
-0.0011299
-0.00122306
-0.00128294
-0.0011083
-0.00148302
-0.00120581
-0.00117989
-0.00112113
-0.00106033
-0.00104846
-0.00111757
-0.0012125
-0.00126973
-0.00108347
-0.00149683
-0.00121323
-0.00118821
-0.0011585
-0.00108868
-0.00108089
-0.00115399
-0.00121717
-0.00125471
-0.00107419
-0.00147398
-0.00122534
-0.00121386
-0.00116854
-0.00112457
-0.00114175
-0.00115591
-0.00122674
-0.00127992
-0.00103981
-0.00144782
-0.00119942
-0.00118474
-0.00116291
-0.00113929
-0.0011176
-0.00116581
-0.00121969
-0.00120419
-0.000958997
-0.00117522
-0.00096013
-0.00098307
-0.000979443
-0.000964713
-0.000974462
-0.00098484
-0.000982942
-0.000951225
-0.000710551
-0.00258385
-0.00239382
-0.00236365
-0.00226669
-0.0021557
-0.00205506
-0.00199628
-0.0019651
-0.00193706
-0.00158042
-0.002222
-0.00189299
-0.00181674
-0.00171514
-0.0015933
-0.00152397
-0.00150805
-0.00152893
-0.00152975
-0.00123771
-0.00206146
-0.0017287
-0.00163549
-0.00154534
-0.00142099
-0.00134525
-0.00136014
-0.00140526
-0.00143073
-0.0011968
-0.00190915
-0.00154901
-0.00149485
-0.00137166
-0.00123572
-0.00117931
-0.00122688
-0.00130321
-0.00134634
-0.00115217
-0.00180019
-0.00144838
-0.00136073
-0.00124396
-0.0010968
-0.0010631
-0.00114295
-0.00123211
-0.00128707
-0.0011138
-0.00172274
-0.00136801
-0.00131077
-0.0011916
-0.00107523
-0.00104332
-0.00111263
-0.0012058
-0.00125989
-0.00107866
-0.00168812
-0.00134263
-0.00127949
-0.00121414
-0.00110547
-0.00107829
-0.00114236
-0.00119836
-0.00123608
-0.00105902
-0.00161775
-0.00131433
-0.00127852
-0.00120034
-0.00113224
-0.00112963
-0.00113368
-0.00120094
-0.00124992
-0.00102111
-0.00155127
-0.00125669
-0.00121466
-0.00116889
-0.00112472
-0.00109161
-0.00113392
-0.00118427
-0.00117411
-0.000937024
-0.00123582
-0.00098301
-0.000984077
-0.000962174
-0.000935436
-0.000939799
-0.000951199
-0.000955533
-0.000930507
-0.000700265
-0.00141393
-0.00138103
-0.00142624
-0.00142379
-0.00143654
-0.00145391
-0.00149043
-0.00152135
-0.0015326
-0.00125327
-0.00128593
-0.00114404
-0.00114254
-0.00113698
-0.00112657
-0.00112796
-0.00118156
-0.00123416
-0.00124996
-0.00101732
-0.00126266
-0.00109835
-0.00109989
-0.00107838
-0.00104369
-0.00104585
-0.00109643
-0.00116727
-0.00120455
-0.0010055
-0.00126593
-0.00106241
-0.00104453
-0.00100914
-0.000949921
-0.000944132
-0.0010271
-0.00111294
-0.00115552
-0.000987214
-0.00125758
-0.00103502
-0.00101453
-0.000956646
-0.000872569
-0.000882585
-0.000979048
-0.00107512
-0.00112673
-0.000968768
-0.0012661
-0.00103642
-0.00101549
-0.000956661
-0.000890058
-0.000890805
-0.000976975
-0.00107003
-0.0011176
-0.000949239
-0.00128992
-0.00105054
-0.00103581
-0.00100898
-0.000946113
-0.000945039
-0.00101823
-0.00107598
-0.00110487
-0.000939433
-0.00127903
-0.00106715
-0.00106179
-0.00102657
-0.000989535
-0.00100621
-0.00102123
-0.00108102
-0.00112107
-0.000905779
-0.00125734
-0.00104366
-0.00103625
-0.00102109
-0.00100064
-0.000982732
-0.00102155
-0.00106514
-0.00104581
-0.000826653
-0.00101959
-0.00083439
-0.000858218
-0.000856542
-0.000843973
-0.00084949
-0.000854387
-0.000847935
-0.000813491
-0.000605314
-0.00232742
-0.00215569
-0.00213022
-0.00205151
-0.00195615
-0.00186448
-0.00181434
-0.0017934
-0.00176313
-0.00144679
-0.00204598
-0.00174682
-0.00168099
-0.00158445
-0.00146414
-0.00140327
-0.00138171
-0.00139851
-0.00140811
-0.00113588
-0.00191344
-0.00161071
-0.0015178
-0.00143537
-0.00131619
-0.00123707
-0.00125368
-0.00129702
-0.0013133
-0.00110335
-0.00176781
-0.00143791
-0.00139569
-0.00127454
-0.00113944
-0.00108649
-0.00112986
-0.00119938
-0.00124425
-0.00106253
-0.00166446
-0.00134777
-0.0012634
-0.00115194
-0.00100642
-0.000969945
-0.00105138
-0.00113804
-0.001186
-0.00102904
-0.0015854
-0.00126484
-0.00121706
-0.00110105
-0.000986555
-0.000956267
-0.00102426
-0.00111158
-0.00116414
-0.000997042
-0.00154923
-0.00123953
-0.00118136
-0.00112221
-0.00101793
-0.000992404
-0.00105317
-0.00110653
-0.00114213
-0.000979123
-0.00147597
-0.00120714
-0.00117651
-0.00110467
-0.00104198
-0.00104021
-0.0010446
-0.00110945
-0.0011553
-0.000945888
-0.00141303
-0.00114602
-0.00111312
-0.00107027
-0.00103259
-0.00100227
-0.00104554
-0.00109384
-0.00108817
-0.00086906
-0.00111968
-0.000894862
-0.000896399
-0.000878846
-0.000855682
-0.00086364
-0.000878186
-0.00088714
-0.000866927
-0.000654372
-0.00111147
-0.00110348
-0.00114556
-0.00114853
-0.00117161
-0.00119825
-0.00124476
-0.00128655
-0.00129905
-0.00106984
-0.00100204
-0.000906209
-0.000919313
-0.000928287
-0.000932392
-0.000947415
-0.00100265
-0.00105348
-0.00107809
-0.000877402
-0.000991121
-0.000882019
-0.000898926
-0.000893815
-0.000877599
-0.000887629
-0.00094143
-0.00101213
-0.00104363
-0.00087638
-0.00100636
-0.000864883
-0.00086494
-0.000848696
-0.000807432
-0.000811612
-0.000890915
-0.000969477
-0.00101377
-0.000865673
-0.00100581
-0.000851403
-0.000850298
-0.000814157
-0.000750297
-0.000763237
-0.000855328
-0.000946488
-0.000991747
-0.000855282
-0.00101689
-0.000859315
-0.000859017
-0.000821432
-0.00077241
-0.000778646
-0.000859981
-0.000944854
-0.000990636
-0.000841526
-0.00103953
-0.000875025
-0.000880502
-0.000871549
-0.000825507
-0.000830928
-0.000900046
-0.000954962
-0.000981709
-0.000835493
-0.00103063
-0.000893402
-0.000905408
-0.000889243
-0.000866458
-0.000888533
-0.000905534
-0.000961776
-0.000998731
-0.000807931
-0.0010174
-0.000872749
-0.000888357
-0.000886751
-0.000880497
-0.00086959
-0.000909156
-0.00094957
-0.000934105
-0.00073844
-0.000824168
-0.000703223
-0.000737965
-0.00074899
-0.000745274
-0.000756232
-0.000763365
-0.000759745
-0.000729061
-0.000543168
-0.00220517
-0.00200606
-0.00193683
-0.0018306
-0.00170761
-0.0015958
-0.00153094
-0.00149731
-0.00145914
-0.00120074
-0.00190048
-0.00159091
-0.00151197
-0.00139527
-0.00126687
-0.00119618
-0.00115793
-0.0011614
-0.00116826
-0.000941582
-0.00177598
-0.00146879
-0.00135528
-0.00126277
-0.00113815
-0.00104868
-0.00105177
-0.00107994
-0.00108532
-0.000915668
-0.00164015
-0.00130507
-0.00124907
-0.00111951
-0.000982351
-0.000921633
-0.000944628
-0.000995236
-0.00103177
-0.000880584
-0.00154725
-0.00122597
-0.00112663
-0.00101068
-0.000868091
-0.000818371
-0.000878691
-0.00094584
-0.000980284
-0.000852631
-0.00147695
-0.00114546
-0.0010829
-0.000964665
-0.00084832
-0.000809584
-0.000855153
-0.000921177
-0.000962642
-0.000824651
-0.00143569
-0.00111928
-0.00104618
-0.000975051
-0.000873005
-0.000835878
-0.000876713
-0.000915791
-0.000940931
-0.000806717
-0.00136693
-0.0010811
-0.00103491
-0.000954724
-0.000886263
-0.000870679
-0.000867007
-0.000912301
-0.000947554
-0.0007763
-0.00129232
-0.00102252
-0.000968306
-0.000918054
-0.000867873
-0.000835039
-0.000857677
-0.000894561
-0.000885739
-0.000706495
-0.00102144
-0.000789484
-0.000775423
-0.000744341
-0.000715058
-0.000710276
-0.00071631
-0.000719276
-0.000699098
-0.000529427
-0.000748298
-0.000764149
-0.00081062
-0.000832258
-0.000870168
-0.000906439
-0.000957479
-0.00099738
-0.00100696
-0.000832754
-0.000743253
-0.000676855
-0.000695735
-0.000704854
-0.000717969
-0.000735451
-0.000783284
-0.000826117
-0.000849311
-0.00069138
-0.000788325
-0.000696142
-0.000705929
-0.000702617
-0.000692101
-0.000700587
-0.000746531
-0.000805561
-0.000827455
-0.000697032
-0.000844746
-0.000708647
-0.000701357
-0.000685251
-0.000649373
-0.000651858
-0.000714787
-0.000776848
-0.000812981
-0.000692252
-0.000874285
-0.000718443
-0.000706426
-0.000670716
-0.000614719
-0.000619107
-0.00069302
-0.000766392
-0.000797951
-0.000687781
-0.000907296
-0.000737764
-0.000724534
-0.000687055
-0.000639469
-0.000640784
-0.000702244
-0.000767147
-0.000801888
-0.000678309
-0.00093783
-0.000759779
-0.000750278
-0.000731245
-0.000689129
-0.000685159
-0.000736482
-0.000778333
-0.000793582
-0.000673231
-0.000941321
-0.000777871
-0.000773617
-0.00074969
-0.000722214
-0.000732092
-0.000742339
-0.000779232
-0.000805747
-0.000648862
-0.000924405
-0.000763273
-0.000756486
-0.00074747
-0.000729341
-0.000716802
-0.000736365
-0.000766379
-0.00074612
-0.000586767
-0.000750801
-0.00061024
-0.00062867
-0.000626102
-0.000616906
-0.000615642
-0.000615008
-0.000604954
-0.00057316
-0.000426605
-0.00185066
-0.00169709
-0.00165852
-0.00158943
-0.00149989
-0.00141156
-0.00136311
-0.00134258
-0.00130749
-0.00108341
-0.00163465
-0.0013798
-0.00132484
-0.00123121
-0.00112212
-0.00106854
-0.0010353
-0.00104047
-0.001056
-0.000850621
-0.00153887
-0.00128542
-0.00119175
-0.00112007
-0.00101564
-0.000935967
-0.000944991
-0.00097563
-0.000978267
-0.000831195
-0.00141665
-0.00113996
-0.00110544
-0.000996406
-0.000877592
-0.000827667
-0.00085009
-0.000897582
-0.00093761
-0.000800347
-0.00133262
-0.00107355
-0.000994756
-0.000901387
-0.000778502
-0.000733702
-0.000792897
-0.000858514
-0.00088957
-0.00077788
-0.00126337
-0.000998204
-0.00095746
-0.000859782
-0.000761321
-0.000730078
-0.000774031
-0.000835817
-0.000878419
-0.000753845
-0.00122477
-0.000974888
-0.000921753
-0.000869169
-0.000783528
-0.000754774
-0.000795597
-0.000835224
-0.00085994
-0.000740102
-0.00115971
-0.000940765
-0.000911799
-0.000850546
-0.000796444
-0.000789144
-0.000789701
-0.000834851
-0.000870729
-0.000715623
-0.00109965
-0.000886906
-0.000855679
-0.00081849
-0.000783762
-0.000758982
-0.000786148
-0.000824175
-0.000819386
-0.000655806
-0.000867758
-0.000688894
-0.000685898
-0.000667762
-0.000647994
-0.000650814
-0.000662089
-0.000669502
-0.000653906
-0.000497103
-0.000666093
-0.000680164
-0.000718687
-0.000736393
-0.000773272
-0.000808846
-0.000860496
-0.00090369
-0.000912883
-0.000758726
-0.000636034
-0.000583178
-0.000605895
-0.000621176
-0.000637771
-0.000661298
-0.000708581
-0.000750118
-0.000777738
-0.000632483
-0.000666593
-0.000599232
-0.000615981
-0.000620902
-0.000619194
-0.000631162
-0.000678937
-0.000738187
-0.000757792
-0.000641713
-0.000710796
-0.000609889
-0.000614478
-0.00060844
-0.000582731
-0.000591564
-0.000653027
-0.000712319
-0.000750901
-0.000639195
-0.000733648
-0.00062006
-0.000619976
-0.000597961
-0.000554542
-0.000562891
-0.000635644
-0.000707876
-0.000737529
-0.00063833
-0.000759015
-0.00063718
-0.0006386
-0.000613532
-0.000578503
-0.000585712
-0.000646981
-0.000709469
-0.000745961
-0.000631559
-0.000787211
-0.000658152
-0.000661947
-0.000656299
-0.000625117
-0.000628619
-0.000681004
-0.000724197
-0.000740128
-0.000630069
-0.000788813
-0.000677293
-0.000685586
-0.000674941
-0.000658537
-0.00067553
-0.000689655
-0.000728172
-0.000756421
-0.000610401
-0.000782317
-0.000664977
-0.000676286
-0.000676371
-0.000670942
-0.000664434
-0.000689699
-0.000721456
-0.000705287
-0.000556493
-0.000636376
-0.000538194
-0.000564937
-0.000572941
-0.00057093
-0.000576801
-0.000580884
-0.000575238
-0.000547761
-0.000408718
-0.00172988
-0.00157414
-0.00152586
-0.00145299
-0.00136063
-0.00127203
-0.00122206
-0.00119809
-0.00116392
-0.000965181
-0.00152487
-0.0012726
-0.00121284
-0.00111666
-0.00101156
-0.000957046
-0.000922252
-0.000924745
-0.000938067
-0.000756528
-0.00144104
-0.00118648
-0.00108826
-0.0010145
-0.000913125
-0.000836028
-0.000840721
-0.00086556
-0.0008673
-0.000738165
-0.0013338
-0.00105353
-0.00100922
-0.000901081
-0.000787748
-0.000738878
-0.000754557
-0.000795111
-0.000830233
-0.000709572
-0.00126139
-0.000993514
-0.000908191
-0.000813693
-0.000697506
-0.000653732
-0.000703408
-0.000759385
-0.00078643
-0.000688244
-0.00120296
-0.000925038
-0.000872519
-0.000774611
-0.00067945
-0.000649044
-0.000684869
-0.000738057
-0.000774605
-0.000665494
-0.00116706
-0.000902341
-0.000839376
-0.000780304
-0.000698159
-0.000667962
-0.000701326
-0.000734473
-0.000755968
-0.000650107
-0.00110814
-0.000868314
-0.000827608
-0.000761833
-0.000706561
-0.000694535
-0.000692652
-0.000730172
-0.000760135
-0.000625388
-0.001044
-0.000816876
-0.000771708
-0.000729844
-0.00068978
-0.000664265
-0.000682974
-0.000714378
-0.000709682
-0.000566961
-0.000823558
-0.000630619
-0.000616603
-0.000590591
-0.000567049
-0.000563611
-0.000569838
-0.000574298
-0.000559271
-0.000425371
-0.000712828
-0.000707457
-0.000728168
-0.000728628
-0.000747335
-0.000768495
-0.000807355
-0.000838701
-0.000843529
-0.000697502
-0.000652922
-0.000583783
-0.000595727
-0.000599522
-0.000608214
-0.00062211
-0.000661067
-0.000696322
-0.0007168
-0.000582356
-0.000671646
-0.000590976
-0.00059822
-0.000594937
-0.000586539
-0.0005931
-0.000632407
-0.000682982
-0.000699518
-0.00058983
-0.000708807
-0.000596444
-0.000591873
-0.000579705
-0.00055047
-0.000554769
-0.000607732
-0.000659749
-0.000691205
-0.000587189
-0.000726246
-0.000602061
-0.000594553
-0.000566534
-0.000521592
-0.00052766
-0.000591243
-0.000654106
-0.000679159
-0.000585283
-0.000748832
-0.000616067
-0.00060856
-0.000579087
-0.000541477
-0.000546528
-0.000600194
-0.000655098
-0.000684833
-0.000578165
-0.000770108
-0.000632795
-0.000629407
-0.000616723
-0.000584181
-0.000583992
-0.000629065
-0.000665876
-0.000677854
-0.000574266
-0.000770232
-0.000647343
-0.000648416
-0.000632567
-0.000612693
-0.000623597
-0.000634357
-0.000665853
-0.000688051
-0.000553518
-0.000755252
-0.000633453
-0.000634657
-0.000630783
-0.000618968
-0.000610563
-0.000627911
-0.000653939
-0.000636045
-0.000499089
-0.000612591
-0.000508008
-0.000527916
-0.000529452
-0.00052381
-0.000523905
-0.000523598
-0.000514817
-0.000486235
-0.00036166
-0.00193011
-0.00175402
-0.00168633
-0.0015903
-0.00147787
-0.00137537
-0.00131602
-0.00128884
-0.00124948
-0.00103245
-0.00166149
-0.00138905
-0.00132097
-0.00121438
-0.00109769
-0.00103569
-0.000997709
-0.000997774
-0.00100946
-0.000810784
-0.00155407
-0.00128699
-0.00118317
-0.00110192
-0.000990769
-0.000907536
-0.0009102
-0.00093535
-0.000934828
-0.000792103
-0.0014295
-0.00113915
-0.00109323
-0.000977001
-0.000854779
-0.000803197
-0.000819265
-0.000860479
-0.000895708
-0.000762466
-0.0013432
-0.00106979
-0.000981544
-0.000879692
-0.000755536
-0.000712177
-0.000764529
-0.000822842
-0.000849717
-0.000740904
-0.00127611
-0.000993782
-0.000941093
-0.000836099
-0.000734849
-0.000705393
-0.000744638
-0.000800843
-0.000838852
-0.000717957
-0.00123472
-0.00096902
-0.000905786
-0.000844342
-0.000756984
-0.000726558
-0.000763977
-0.000799262
-0.000821014
-0.000704588
-0.00117224
-0.000932734
-0.000894699
-0.000826564
-0.000768606
-0.00075818
-0.000756655
-0.000798072
-0.000830386
-0.000680959
-0.00110598
-0.00088013
-0.000836407
-0.000794176
-0.000754062
-0.000727627
-0.000751425
-0.000786209
-0.000780578
-0.000623315
-0.000874697
-0.000680934
-0.000670179
-0.000645512
-0.000622412
-0.000621945
-0.000631245
-0.00063709
-0.00062169
-0.000471519
-0.000737937
-0.000748942
-0.000791131
-0.000808252
-0.000839884
-0.000870846
-0.000914801
-0.000952457
-0.000959032
-0.000790733
-0.00071835
-0.000655056
-0.000671605
-0.000679962
-0.000688907
-0.000704914
-0.000748768
-0.000787253
-0.000808638
-0.000654917
-0.000745611
-0.000663743
-0.000674155
-0.000671442
-0.000661553
-0.000669383
-0.000712236
-0.000767463
-0.000786062
-0.000660299
-0.000784721
-0.000665935
-0.000663076
-0.000649075
-0.000616753
-0.000622587
-0.000681605
-0.000738825
-0.000772821
-0.000655575
-0.000801011
-0.000668161
-0.000660459
-0.000629125
-0.00057983
-0.000590103
-0.000660524
-0.000729428
-0.000757958
-0.000652361
-0.000822456
-0.000680102
-0.000673185
-0.00063941
-0.00059903
-0.00060716
-0.00066811
-0.00072981
-0.00076357
-0.000644275
-0.000845912
-0.000698359
-0.000694733
-0.000682144
-0.000646013
-0.000648566
-0.000700962
-0.000742424
-0.000757134
-0.000642238
-0.000845163
-0.000714391
-0.000717543
-0.000700345
-0.000679738
-0.00069501
-0.00070766
-0.000746101
-0.000772934
-0.000621716
-0.000832498
-0.000701285
-0.000704018
-0.000699994
-0.000690298
-0.000681654
-0.000707136
-0.000738019
-0.000720706
-0.000567556
-0.000676578
-0.000563392
-0.000586198
-0.000590118
-0.000585641
-0.000590469
-0.000594094
-0.000587764
-0.000560125
-0.000416473
-0.00173384
-0.00159345
-0.00156218
-0.00150042
-0.00141962
-0.00134192
-0.00129743
-0.00127902
-0.00125052
-0.00103263
-0.00153208
-0.0012951
-0.00124124
-0.00115674
-0.00105769
-0.00100816
-0.000981702
-0.000989301
-0.00100156
-0.000807822
-0.00144233
-0.00120068
-0.00111495
-0.0010476
-0.000951891
-0.000883423
-0.000892122
-0.000920646
-0.000927808
-0.000785384
-0.00133021
-0.00106586
-0.00102854
-0.000927508
-0.000820761
-0.00077916
-0.00080159
-0.000847347
-0.000882648
-0.000754359
-0.00125443
-0.00100083
-0.000924429
-0.000834562
-0.00072336
-0.000691498
-0.00074648
-0.000805587
-0.000837197
-0.000729978
-0.00119258
-0.000932717
-0.00088782
-0.000793153
-0.000703727
-0.000681293
-0.000724652
-0.000783756
-0.0008218
-0.000705183
-0.00115906
-0.000911571
-0.000856707
-0.000804638
-0.000724958
-0.000702047
-0.000742374
-0.000778208
-0.000802883
-0.000689155
-0.00110071
-0.000881036
-0.000849144
-0.000788757
-0.000737868
-0.000732071
-0.000732296
-0.000776147
-0.00080749
-0.000662942
-0.00104391
-0.000832487
-0.000796843
-0.000758963
-0.000725136
-0.000700157
-0.000726994
-0.000759324
-0.000756161
-0.000603629
-0.00082489
-0.000645722
-0.000638054
-0.000617913
-0.000596445
-0.000597728
-0.000605676
-0.000611447
-0.000597616
-0.000452058
-0.000719586
-0.000729243
-0.000772624
-0.000787764
-0.000821642
-0.00085757
-0.000903139
-0.00093984
-0.000954475
-0.000781886
-0.000675002
-0.000619129
-0.000634948
-0.000651687
-0.000667684
-0.000685459
-0.000735765
-0.000777723
-0.00079376
-0.000645462
-0.000689761
-0.000616619
-0.000637164
-0.000638418
-0.00063492
-0.000651728
-0.000694596
-0.000748594
-0.000773777
-0.000645924
-0.000726707
-0.000622894
-0.00062114
-0.00061578
-0.000592117
-0.000600828
-0.000663027
-0.000722068
-0.00075201
-0.000639773
-0.000744254
-0.000623038
-0.000622637
-0.000597114
-0.00055441
-0.000570782
-0.000640162
-0.000706621
-0.000738313
-0.000633115
-0.000768448
-0.000640238
-0.00063594
-0.000607896
-0.000573556
-0.000583214
-0.000645142
-0.000707255
-0.00073828
-0.000623217
-0.000798092
-0.000660175
-0.000660239
-0.000651535
-0.00061861
-0.000623981
-0.000676053
-0.000715431
-0.000731073
-0.00061882
-0.000802648
-0.000680239
-0.000684942
-0.000670436
-0.000652387
-0.0006682
-0.00068026
-0.000718313
-0.000742514
-0.000596249
-0.000797729
-0.00067145
-0.000675169
-0.00067183
-0.00066347
-0.00065399
-0.000679374
-0.000706284
-0.000689694
-0.000542013
-0.000650227
-0.000540419
-0.000562541
-0.000566687
-0.000561165
-0.000565036
-0.000565905
-0.000557952
-0.000531108
-0.000392533
-0.00190368
-0.00175491
-0.00172723
-0.00165832
-0.00156745
-0.00147982
-0.0014244
-0.00139767
-0.00136572
-0.00111909
-0.00165891
-0.00141177
-0.00135433
-0.00126788
-0.00115995
-0.00110334
-0.00107405
-0.00107963
-0.00108439
-0.00087148
-0.00153653
-0.00129055
-0.00120765
-0.0011378
-0.00103525
-0.000963481
-0.00096925
-0.000995356
-0.00100301
-0.000842157
-0.00139583
-0.00113509
-0.00110224
-0.000998896
-0.000887503
-0.00084209
-0.00086606
-0.000913594
-0.000945992
-0.000806257
-0.00129961
-0.00105451
-0.000983186
-0.000892287
-0.000775375
-0.000743753
-0.000801084
-0.000861808
-0.000895691
-0.000777537
-0.00122243
-0.000976799
-0.000938584
-0.000842346
-0.000749736
-0.000725566
-0.000773429
-0.00083696
-0.000876105
-0.000750493
-0.00118466
-0.000950713
-0.000902306
-0.000853368
-0.000769704
-0.000747744
-0.000792221
-0.00083046
-0.000857325
-0.000735701
-0.00111979
-0.000918259
-0.000893479
-0.000835248
-0.000784551
-0.000781539
-0.000782832
-0.000832136
-0.000866918
-0.000710949
-0.00106742
-0.000866932
-0.000840057
-0.000804272
-0.000774416
-0.000749692
-0.000784083
-0.000820681
-0.000818941
-0.000655509
-0.000843003
-0.000673656
-0.00067215
-0.00065714
-0.000638351
-0.000645503
-0.000658671
-0.000668255
-0.000656977
-0.000496686
-0.000758089
-0.00078041
-0.000831763
-0.00084291
-0.000874286
-0.000910024
-0.00095268
-0.000985937
-0.00100246
-0.00081237
-0.000671826
-0.00063434
-0.000655324
-0.000681068
-0.000701666
-0.000718378
-0.000774128
-0.000817037
-0.000825263
-0.000668796
-0.000658031
-0.000611678
-0.000650744
-0.000657896
-0.00065878
-0.000682596
-0.000725143
-0.000778485
-0.000806444
-0.000665852
-0.000680382
-0.000613482
-0.000622391
-0.000628725
-0.000611793
-0.000622623
-0.000690279
-0.000751426
-0.000777006
-0.000659037
-0.000684465
-0.000603023
-0.000622112
-0.000605796
-0.000568024
-0.000591493
-0.000663251
-0.000730523
-0.000764167
-0.000651169
-0.000698704
-0.000619916
-0.000631424
-0.000614442
-0.000586281
-0.000599306
-0.000666604
-0.000731951
-0.000762505
-0.000641739
-0.00072375
-0.00063587
-0.000656509
-0.000659363
-0.000631706
-0.000642531
-0.000699258
-0.000740648
-0.00075731
-0.000640361
-0.000724624
-0.000658324
-0.000680909
-0.00067935
-0.000668222
-0.000690425
-0.000705178
-0.000747408
-0.000774021
-0.000619891
-0.000725716
-0.000650271
-0.000675041
-0.000682568
-0.000684106
-0.00067804
-0.000710715
-0.000740651
-0.00072461
-0.000570696
-0.000591905
-0.000526885
-0.000563846
-0.00057986
-0.000580853
-0.000591595
-0.000596471
-0.000590704
-0.000565495
-0.000417047
-0.00224012
-0.00201423
-0.00192731
-0.00180228
-0.00165262
-0.00152163
-0.00142864
-0.00136806
-0.00132474
-0.00107135
-0.00190156
-0.00157724
-0.00147894
-0.00134651
-0.001205
-0.00111345
-0.0010607
-0.00105005
-0.0010324
-0.000826332
-0.00175188
-0.00142894
-0.00130376
-0.00119748
-0.00106046
-0.000965583
-0.000947241
-0.000950976
-0.000951804
-0.000788861
-0.0015925
-0.00125158
-0.00117961
-0.00104026
-0.000901322
-0.000832744
-0.000836666
-0.000869225
-0.000884111
-0.000749613
-0.00148522
-0.00115686
-0.00104641
-0.000920012
-0.000778296
-0.000730086
-0.000767693
-0.000809088
-0.000833442
-0.00071706
-0.00140465
-0.00106871
-0.000990394
-0.000863467
-0.00074491
-0.000704914
-0.000733754
-0.000782262
-0.000808614
-0.000688116
-0.00135232
-0.00103529
-0.000949392
-0.000865524
-0.000761954
-0.000719201
-0.000746484
-0.000770927
-0.000786828
-0.000671605
-0.00128458
-0.000990231
-0.000932867
-0.000842983
-0.000768638
-0.00074402
-0.000733181
-0.000765484
-0.000792352
-0.000645006
-0.00120292
-0.000937435
-0.000862822
-0.000804957
-0.000745418
-0.000709371
-0.000722896
-0.000751168
-0.000740903
-0.000590954
-0.000952602
-0.000714609
-0.000686345
-0.000643874
-0.00060913
-0.000598439
-0.000601412
-0.000602125
-0.000587881
-0.000442957
-0.000549768
-0.000587738
-0.000648555
-0.000672869
-0.000717499
-0.000767707
-0.000813818
-0.000838262
-0.000858154
-0.000681559
-0.00056645
-0.000538791
-0.000554708
-0.000576531
-0.00060651
-0.000615459
-0.000672341
-0.000710141
-0.000700225
-0.000566503
-0.000606987
-0.000547276
-0.000579893
-0.000577179
-0.000574835
-0.000601434
-0.00063202
-0.000671168
-0.000696415
-0.000562066
-0.000679803
-0.000582516
-0.000565693
-0.000565469
-0.000546161
-0.000549433
-0.000608043
-0.00065747
-0.000664658
-0.000558725
-0.000714071
-0.000585961
-0.000586444
-0.00055386
-0.000511937
-0.000532013
-0.000587946
-0.000637288
-0.000660365
-0.000552131
-0.000758403
-0.000620565
-0.000601581
-0.000572444
-0.000534865
-0.000541533
-0.000593709
-0.000643372
-0.000658213
-0.000545273
-0.000793812
-0.000644224
-0.000638547
-0.000617568
-0.000583554
-0.000581811
-0.000623688
-0.000651114
-0.00065389
-0.000545222
-0.000814776
-0.00066978
-0.000665546
-0.000643055
-0.000617254
-0.000623801
-0.000629531
-0.000652747
-0.000667994
-0.000525004
-0.000804431
-0.00067215
-0.0006554
-0.000648104
-0.00062645
-0.00061366
-0.000625181
-0.000644702
-0.000616953
-0.000479942
-0.000663391
-0.000535098
-0.000549662
-0.000542702
-0.000531894
-0.000525819
-0.000519646
-0.000502226
-0.000471112
-0.000342167
-0.00220056
-0.00198587
-0.00192257
-0.00181454
-0.00167321
-0.00154265
-0.00144326
-0.00137682
-0.00133168
-0.00107229
-0.0019007
-0.0015899
-0.00149506
-0.00136801
-0.00122175
-0.0011274
-0.00106878
-0.00105305
-0.00102807
-0.000819873
-0.00173583
-0.00142769
-0.00130852
-0.00120608
-0.00106793
-0.000970959
-0.000948058
-0.000945172
-0.000943368
-0.000777326
-0.00154545
-0.00123215
-0.0011715
-0.00103491
-0.000897851
-0.000829779
-0.000830685
-0.000859563
-0.000869569
-0.000735325
-0.00141609
-0.00112324
-0.00102293
-0.000903238
-0.000765802
-0.000722335
-0.000757246
-0.000794234
-0.00081678
-0.000701009
-0.00131178
-0.00102238
-0.000958654
-0.00083814
-0.000727325
-0.000691478
-0.000719706
-0.000765836
-0.000790673
-0.000671977
-0.00124952
-0.000982477
-0.000910473
-0.000837989
-0.000739863
-0.000703203
-0.000731179
-0.000755076
-0.000770783
-0.000658859
-0.00117222
-0.000934755
-0.000892362
-0.000813128
-0.00074674
-0.000728004
-0.000719208
-0.000754148
-0.000782799
-0.000637208
-0.00109995
-0.000881875
-0.000826145
-0.000776207
-0.00072779
-0.000696013
-0.00071764
-0.000748959
-0.000741549
-0.000594305
-0.000867978
-0.000673247
-0.000655457
-0.000623723
-0.000595967
-0.000594271
-0.000604464
-0.000610893
-0.00060206
-0.000454373
-0.00028596
-0.000343288
-0.000407607
-0.000436277
-0.000497778
-0.000567565
-0.000627457
-0.000661544
-0.000693389
-0.00054327
-0.000293429
-0.000312124
-0.000339663
-0.000386736
-0.000441371
-0.000464013
-0.000535166
-0.000577151
-0.000565556
-0.000458605
-0.000327219
-0.000322241
-0.000384918
-0.000401683
-0.000423701
-0.000471587
-0.000505944
-0.000545568