/*--------------------------------*- C++ -*----------------------------------*\
| =========                 |                                                 |
| \\      /  F ield         | OpenFOAM: The Open Source CFD Toolbox           |
|  \\    /   O peration     | Version:  2406                                  |
|   \\  /    A nd           | Website:  www.openfoam.com                      |
|    \\/     M anipulation  |                                                 |
\*---------------------------------------------------------------------------*/
FoamFile
{
    version     2.0;
    format      ascii;
    arch        "LSB;label=32;scalar=64";
    class       volScalarField;
    location    "0.8";
    object      magR;
}
// * * * * * * * * * * * * * * * * * * * * * * * * * * * * * * * * * * * * * //

dimensions      [0 2 -2 0 0 0 0];

internalField   uniform 0;

boundaryField
{
    walls
    {
        type            calculated;
        value           nonuniform List<scalar> 
2000
(
5.84334e-07
8.28531e-07
1.095e-06
1.31554e-06
1.44034e-06
1.44033e-06
1.31553e-06
1.09499e-06
8.28516e-07
5.8432e-07
2.35134e-07
3.22797e-07
4.2608e-07
5.15362e-07
5.6713e-07
5.67113e-07
5.15315e-07
4.26013e-07
3.22725e-07
2.35066e-07
8.25474e-08
1.10472e-07
1.44873e-07
1.75851e-07
1.94124e-07
1.94085e-07
1.75744e-07
1.44721e-07
1.10305e-07
8.23865e-08
1.08368e-07
1.45985e-07
1.91343e-07
2.31502e-07
2.5498e-07
2.54871e-07
2.31203e-07
1.90923e-07
1.45535e-07
1.0795e-07
8.53332e-08
1.14173e-07
1.49483e-07
1.81015e-07
1.99501e-07
1.99311e-07
1.80497e-07
1.48759e-07
1.13402e-07
8.46182e-08
9.35942e-08
1.25347e-07
1.6389e-07
1.98082e-07
2.17997e-07
2.17634e-07
1.97083e-07
1.62477e-07
1.23811e-07
9.21311e-08
8.9415e-08
1.19224e-07
1.5542e-07
1.87468e-07
2.05992e-07
2.05341e-07
1.85658e-07
1.52816e-07
1.16312e-07
8.65506e-08
9.3504e-08
1.24334e-07
1.61531e-07
1.94226e-07
2.12867e-07
2.1175e-07
1.91111e-07
1.57034e-07
1.19264e-07
8.84784e-08
9.39752e-08
1.24532e-07
1.61279e-07
1.9339e-07
2.11429e-07
2.09834e-07
1.88958e-07
1.54929e-07
1.17423e-07
8.69804e-08
9.5634e-08
1.26636e-07
1.63817e-07
1.96147e-07
2.14084e-07
2.12087e-07
1.90619e-07
1.55982e-07
1.1798e-07
8.72564e-08
9.51234e-08
1.26081e-07
1.63203e-07
1.95407e-07
2.13109e-07
2.10802e-07
1.89048e-07
1.54269e-07
1.16336e-07
8.5871e-08
9.41327e-08
1.24989e-07
1.61997e-07
1.94068e-07
2.11562e-07
2.08989e-07
1.86994e-07
1.52109e-07
1.143e-07
8.41429e-08
9.24683e-08
1.22889e-07
1.59373e-07
1.90976e-07
2.08118e-07
2.05383e-07
1.83467e-07
1.48908e-07
1.11637e-07
8.20457e-08
9.10965e-08
1.2107e-07
1.56995e-07
1.8812e-07
2.04996e-07
2.02299e-07
1.80724e-07
1.46707e-07
1.10036e-07
8.09147e-08
9.00462e-08
1.19735e-07
1.55341e-07
1.86262e-07
2.03182e-07
2.00824e-07
1.79806e-07
1.46394e-07
1.10171e-07
8.12514e-08
8.88352e-08
1.18545e-07
1.54367e-07
1.85713e-07
2.03277e-07
2.01689e-07
1.81404e-07
1.48506e-07
1.12424e-07
8.33395e-08
8.65619e-08
1.16385e-07
1.52806e-07
1.85166e-07
2.0401e-07
2.03687e-07
1.84388e-07
1.52016e-07
1.15937e-07
8.65215e-08
8.3453e-08
1.13129e-07
1.49972e-07
1.83349e-07
2.03607e-07
2.0471e-07
1.865e-07
1.5468e-07
1.18647e-07
8.89987e-08
8.0621e-08
1.09745e-07
1.46362e-07
1.80072e-07
2.01116e-07
2.03171e-07
1.85755e-07
1.54392e-07
1.18538e-07
8.89573e-08
7.87664e-08
1.07155e-07
1.42986e-07
1.76214e-07
1.97131e-07
1.99373e-07
1.82294e-07
1.51308e-07
1.15857e-07
8.66964e-08
7.79827e-08
1.0579e-07
1.40774e-07
1.73159e-07
1.93414e-07
1.95339e-07
1.7832e-07
1.47714e-07
1.12835e-07
8.42542e-08
7.79548e-08
1.05544e-07
1.40062e-07
1.71805e-07
1.91439e-07
1.92982e-07
1.7595e-07
1.45674e-07
1.11297e-07
8.31661e-08
7.81026e-08
1.058e-07
1.4036e-07
1.71969e-07
1.91408e-07
1.92806e-07
1.75799e-07
1.45706e-07
1.11571e-07
8.36084e-08
7.80561e-08
1.0597e-07
1.40829e-07
1.72687e-07
1.92328e-07
1.93865e-07
1.76967e-07
1.4695e-07
1.12843e-07
8.48549e-08
7.79477e-08
1.06054e-07
1.41175e-07
1.73322e-07
1.93216e-07
1.94909e-07
1.78056e-07
1.47982e-07
1.13796e-07
8.57373e-08
7.85949e-08
1.0682e-07
1.41958e-07
1.74058e-07
1.93858e-07
1.95431e-07
1.78467e-07
1.48296e-07
1.14105e-07
8.60279e-08
8.20869e-08
1.10607e-07
1.45714e-07
1.77453e-07
1.96729e-07
1.97762e-07
1.80348e-07
1.49799e-07
1.15314e-07
8.68605e-08
8.98347e-08
1.19158e-07
1.54594e-07
1.85964e-07
2.04339e-07
2.04136e-07
1.85336e-07
1.53374e-07
1.1754e-07
8.79e-08
1.01169e-07
1.31759e-07
1.67886e-07
1.98875e-07
2.15802e-07
2.13331e-07
1.91821e-07
1.57204e-07
1.19085e-07
8.79197e-08
1.12306e-07
1.4425e-07
1.81117e-07
2.11585e-07
2.26552e-07
2.21028e-07
1.96016e-07
1.58292e-07
1.17926e-07
8.57397e-08
1.17763e-07
1.50826e-07
1.88479e-07
2.18789e-07
2.32333e-07
2.24456e-07
1.96818e-07
1.56995e-07
1.15398e-07
8.29499e-08
1.12781e-07
1.46444e-07
1.85196e-07
2.16685e-07
2.30885e-07
2.23066e-07
1.95122e-07
1.55033e-07
1.13414e-07
8.12334e-08
9.94181e-08
1.32226e-07
1.71233e-07
2.04355e-07
2.21001e-07
2.15861e-07
1.90378e-07
1.52279e-07
1.12174e-07
8.09644e-08
8.49196e-08
1.15762e-07
1.53748e-07
1.87633e-07
2.06798e-07
2.05271e-07
1.83668e-07
1.48901e-07
1.11334e-07
8.16041e-08
7.57081e-08
1.04388e-07
1.40372e-07
1.73346e-07
1.93372e-07
1.94265e-07
1.75988e-07
1.44491e-07
1.09616e-07
8.15275e-08
7.27034e-08
1.00148e-07
1.34741e-07
1.66559e-07
1.86341e-07
1.87992e-07
1.71226e-07
1.41409e-07
1.07976e-07
8.07782e-08
7.25644e-08
9.93153e-08
1.32982e-07
1.63848e-07
1.83041e-07
1.84687e-07
1.68458e-07
1.39474e-07
1.06794e-07
8.01026e-08
7.40345e-08
1.01432e-07
1.35621e-07
1.66917e-07
1.86547e-07
1.88813e-07
1.73397e-07
1.45181e-07
1.12854e-07
8.57555e-08
6.79345e-08
9.63496e-08
1.32119e-07
1.65686e-07
1.88204e-07
1.93806e-07
1.81845e-07
1.56426e-07
1.25848e-07
9.83047e-08
7.32772e-08
1.02824e-07
1.39947e-07
1.76451e-07
2.04048e-07
2.16552e-07
2.11863e-07
1.91849e-07
1.63113e-07
1.32103e-07
1.11837e-07
1.47467e-07
1.90424e-07
2.33258e-07
2.67559e-07
2.8621e-07
2.84713e-07
2.62501e-07
2.23925e-07
1.77264e-07
1.9065e-07
2.38316e-07
2.9178e-07
3.41787e-07
3.77805e-07
3.9051e-07
3.73555e-07
3.26919e-07
2.58713e-07
1.85742e-07
3.37575e-07
4.02546e-07
4.68122e-07
5.18994e-07
5.40362e-07
5.20994e-07
4.5834e-07
3.61972e-07
2.55092e-07
1.63032e-07
6.09044e-07
6.95957e-07
7.73016e-07
8.14669e-07
8.03506e-07
7.32212e-07
6.10574e-07
4.62714e-07
3.23371e-07
2.15602e-07
1.02153e-06
1.13961e-06
1.236e-06
1.27157e-06
1.22853e-06
1.10601e-06
9.25122e-07
7.19448e-07
5.28543e-07
3.75999e-07
1.43033e-06
1.58956e-06
1.72157e-06
1.77534e-06
1.72617e-06
1.56988e-06
1.32793e-06
1.04081e-06
7.5808e-07
5.24944e-07
1.58057e-06
1.78308e-06
1.94469e-06
2.01902e-06
1.96669e-06
1.77604e-06
1.46906e-06
1.10465e-06
7.55132e-07
4.88911e-07
1.47588e-06
1.70617e-06
1.85834e-06
1.92176e-06
1.8567e-06
1.65469e-06
1.34288e-06
9.91844e-07
6.76422e-07
4.51999e-07
1.61653e-06
1.93601e-06
2.05363e-06
2.02236e-06
1.8526e-06
1.58073e-06
1.25356e-06
9.38597e-07
6.83024e-07
5.15388e-07
1.70583e-06
2.26912e-06
2.60188e-06
2.69509e-06
2.60452e-06
2.37875e-06
2.07997e-06
1.76654e-06
1.49794e-06
1.30418e-06
5.84299e-07
8.2849e-07
1.09496e-06
1.3155e-06
1.44031e-06
1.44032e-06
1.31553e-06
1.09501e-06
8.28534e-07
5.84338e-07
2.34952e-07
3.22593e-07
4.25877e-07
5.15194e-07
5.67024e-07
5.6708e-07
5.15345e-07
4.26086e-07
3.22805e-07
2.35141e-07
8.20854e-08
1.09966e-07
1.44375e-07
1.75432e-07
1.93839e-07
1.93957e-07
1.75755e-07
1.4483e-07
1.10454e-07
8.25446e-08
1.07112e-07
1.44583e-07
1.89934e-07
2.30284e-07
2.54104e-07
2.54409e-07
2.31124e-07
1.91125e-07
1.45873e-07
1.08335e-07
8.32725e-08
1.11859e-07
1.47111e-07
1.789e-07
1.9791e-07
1.98391e-07
1.80225e-07
1.48989e-07
1.13911e-07
8.52473e-08
9.02041e-08
1.21546e-07
1.5998e-07
1.94569e-07
2.15338e-07
2.16104e-07
1.96688e-07
1.62991e-07
1.24874e-07
9.34363e-08
8.43502e-08
1.13705e-07
1.49914e-07
1.82684e-07
2.0258e-07
2.03682e-07
1.85755e-07
1.54317e-07
1.18657e-07
8.92251e-08
8.56769e-08
1.16065e-07
1.53639e-07
1.87777e-07
2.08775e-07
2.10468e-07
1.92518e-07
1.60479e-07
1.23829e-07
9.33364e-08
8.30195e-08
1.13119e-07
1.50664e-07
1.85102e-07
2.06698e-07
2.09139e-07
1.91931e-07
1.60486e-07
1.24213e-07
9.3876e-08
8.20798e-08
1.12416e-07
1.5055e-07
1.85871e-07
2.08415e-07
2.11591e-07
1.94702e-07
1.63128e-07
1.26418e-07
9.55825e-08
8.06642e-08
1.10602e-07
1.48449e-07
1.83787e-07
2.06609e-07
2.10198e-07
1.93687e-07
1.62373e-07
1.2581e-07
9.50797e-08
8.05176e-08
1.10097e-07
1.47512e-07
1.82532e-07
2.0519e-07
2.08777e-07
1.92346e-07
1.61149e-07
1.24701e-07
9.41121e-08
8.08194e-08
1.10015e-07
1.46835e-07
1.81201e-07
2.03288e-07
2.06528e-07
1.90011e-07
1.58965e-07
1.22794e-07
9.2522e-08
8.14961e-08
1.10536e-07
1.46999e-07
1.80819e-07
2.02295e-07
2.05033e-07
1.88249e-07
1.57206e-07
1.21223e-07
9.12094e-08
8.19318e-08
1.10922e-07
1.47199e-07
1.80611e-07
2.01555e-07
2.03785e-07
1.86691e-07
1.55606e-07
1.19817e-07
9.00876e-08
8.21358e-08
1.1109e-07
1.47228e-07
1.80284e-07
2.00725e-07
2.0242e-07
1.84934e-07
1.53711e-07
1.18074e-07
8.86511e-08
8.24305e-08
1.11238e-07
1.47054e-07
1.7956e-07
1.99293e-07
2.0025e-07
1.82189e-07
1.50691e-07
1.15175e-07
8.61259e-08
8.33105e-08
1.11898e-07
1.47169e-07
1.7885e-07
1.97583e-07
1.9757e-07
1.78782e-07
1.4696e-07
1.1158e-07
8.29495e-08
8.51912e-08
1.13648e-07
1.48361e-07
1.79135e-07
1.96764e-07
1.95716e-07
1.76176e-07
1.44026e-07
1.08697e-07
8.03533e-08
8.76773e-08
1.16228e-07
1.50675e-07
1.80809e-07
1.97545e-07
1.95586e-07
1.75309e-07
1.42733e-07
1.0722e-07
7.89052e-08
8.929e-08
1.18079e-07
1.52674e-07
1.82688e-07
1.99022e-07
1.96487e-07
1.75619e-07
1.42594e-07
1.06794e-07
7.83874e-08
8.8601e-08
1.17468e-07
1.52364e-07
1.82675e-07
1.99181e-07
1.96634e-07
1.75651e-07
1.42506e-07
1.06673e-07
7.82952e-08
8.58647e-08
1.14399e-07
1.49311e-07
1.79938e-07
1.96948e-07
1.94937e-07
1.74457e-07
1.41731e-07
1.06279e-07
7.81437e-08
8.2224e-08
1.09966e-07
1.44352e-07
1.7498e-07
1.92511e-07
1.91393e-07
1.71948e-07
1.40172e-07
1.05472e-07
7.77792e-08
7.92267e-08
1.05942e-07
1.3934e-07
1.69565e-07
1.87389e-07
1.87199e-07
1.68995e-07
1.38419e-07
1.04617e-07
7.74401e-08
7.82888e-08
1.04364e-07
1.36873e-07
1.66518e-07
1.84288e-07
1.84667e-07
1.67416e-07
1.37836e-07
1.04759e-07
7.79445e-08
8.02627e-08
1.0693e-07
1.39714e-07
1.69395e-07
1.87175e-07
1.87709e-07
1.70767e-07
1.41468e-07
1.08451e-07
8.13806e-08
8.35633e-08
1.1214e-07
1.47007e-07
1.7828e-07
1.97129e-07
1.98136e-07
1.81195e-07
1.51424e-07
1.17522e-07
8.92204e-08
8.52788e-08
1.16326e-07
1.54679e-07
1.89387e-07
2.11128e-07
2.13896e-07
1.97459e-07
1.66964e-07
1.31402e-07
1.0095e-07
8.37401e-08
1.16773e-07
1.58665e-07
1.97725e-07
2.23705e-07
2.2954e-07
2.1439e-07
1.83325e-07
1.45765e-07
1.12783e-07
8.04656e-08
1.14022e-07
1.57689e-07
1.99896e-07
2.29446e-07
2.38192e-07
2.24368e-07
1.92884e-07
1.53622e-07
1.18787e-07
7.84762e-08
1.10878e-07
1.5355e-07
1.95749e-07
2.25861e-07
2.35216e-07
2.21347e-07
1.89158e-07
1.48934e-07
1.13829e-07
7.92561e-08
1.09529e-07
1.48951e-07
1.87695e-07
2.14578e-07
2.21411e-07
2.05856e-07
1.73078e-07
1.33434e-07
1.00075e-07
8.12738e-08
1.09603e-07
1.45456e-07
1.79405e-07
2.01164e-07
2.03756e-07
1.85828e-07
1.52986e-07
1.15342e-07
8.49272e-08
8.22907e-08
1.09124e-07
1.42136e-07
1.71877e-07
1.89084e-07
1.88117e-07
1.68852e-07
1.37108e-07
1.02403e-07
7.50023e-08
8.19645e-08
1.08328e-07
1.40411e-07
1.68283e-07
1.83346e-07
1.80743e-07
1.61169e-07
1.30449e-07
9.75972e-08
7.16935e-08
8.0909e-08
1.07261e-07
1.39462e-07
1.67019e-07
1.81733e-07
1.78953e-07
1.59667e-07
1.29592e-07
9.74163e-08
7.18166e-08
8.40138e-08
1.09659e-07
1.40692e-07
1.67026e-07
1.80879e-07
1.7791e-07
1.59044e-07
1.29711e-07
9.8179e-08
7.29518e-08
8.79131e-08
1.09992e-07
1.35464e-07
1.56401e-07
1.65986e-07
1.61061e-07
1.4263e-07
1.1559e-07
8.72465e-08
6.50783e-08
1.06019e-07
1.24788e-07
1.44163e-07
1.58709e-07
1.63152e-07
1.55834e-07
1.37954e-07
1.13619e-07
8.85899e-08
6.89509e-08
1.57001e-07
1.78944e-07
1.9837e-07
2.11564e-07
2.13947e-07
2.04495e-07
1.84396e-07
1.57602e-07
1.2938e-07
1.06345e-07
2.28095e-07
2.70633e-07
3.0403e-07
3.26001e-07
3.32116e-07
3.21559e-07
2.95605e-07
2.59083e-07
2.18704e-07
1.84057e-07
2.96544e-07
3.98096e-07
4.80639e-07
5.35928e-07
5.58903e-07
5.50308e-07
5.13774e-07
4.57271e-07
3.91878e-07
3.32151e-07
3.06228e-07
5.16821e-07
7.26751e-07
8.84624e-07
9.69342e-07
9.80676e-07
9.31224e-07
8.39159e-07
7.26051e-07
6.14956e-07
1.21428e-07
3.83945e-07
7.85069e-07
1.18574e-06
1.47021e-06
1.59114e-06
1.56702e-06
1.43948e-06
1.25516e-06
1.05628e-06
5.0474e-10
6.44131e-08
3.59381e-07
8.83574e-07
1.44452e-06
1.83836e-06
1.99102e-06
1.93484e-06
1.74299e-06
1.48748e-06
3.9451e-08
2.74418e-09
2.54523e-08
2.17648e-07
6.52865e-07
1.19153e-06
1.61486e-06
1.80605e-06
1.77101e-06
1.59672e-06
1.04563e-07
4.84217e-08
6.28255e-09
6.42321e-09
9.9066e-08
3.86109e-07
8.08247e-07
1.18318e-06
1.36651e-06
1.37544e-06
7.98086e-08
5.14111e-08
1.87791e-08
1.20205e-09
7.33632e-09
9.8627e-08
3.65599e-07
7.59447e-07
1.10659e-06
1.2986e-06
9.89825e-08
6.4959e-08
2.96207e-08
5.92259e-09
2.37063e-10
1.50736e-08
1.06503e-07
3.27469e-07
6.72579e-07
1.04285e-06
5.84285e-07
8.28464e-07
1.09493e-06
1.31545e-06
1.44025e-06
1.44025e-06
1.31546e-06
1.09494e-06
8.2848e-07
5.843e-07
2.34909e-07
3.22522e-07
4.25774e-07
5.15043e-07
5.66824e-07
5.66839e-07
5.15083e-07
4.25828e-07
3.22574e-07
2.34954e-07
8.20228e-08
1.09854e-07
1.44198e-07
1.7516e-07
1.93466e-07
1.93491e-07
1.75225e-07
1.44281e-07
1.0993e-07
8.20829e-08
1.06862e-07
1.44201e-07
1.89392e-07
2.29526e-07
2.53112e-07
2.53193e-07
2.29741e-07
1.89678e-07
1.44478e-07
1.07097e-07
8.24216e-08
1.10743e-07
1.45722e-07
1.77209e-07
1.95912e-07
1.96116e-07
1.77765e-07
1.46504e-07
1.11575e-07
8.3201e-08
8.7996e-08
1.18777e-07
1.56687e-07
1.90793e-07
2.11145e-07
2.11598e-07
1.92058e-07
1.58509e-07
1.20814e-07
8.99845e-08
8.08156e-08
1.09177e-07
1.44388e-07
1.76257e-07
1.95436e-07
1.96095e-07
1.78108e-07
1.47074e-07
1.12252e-07
8.3889e-08
8.15271e-08
1.10272e-07
1.45948e-07
1.78217e-07
1.97649e-07
1.9834e-07
1.80168e-07
1.4878e-07
1.13569e-07
8.48845e-08
7.96156e-08
1.07438e-07
1.41968e-07
1.73157e-07
1.91832e-07
1.92273e-07
1.74412e-07
1.43797e-07
1.09631e-07
8.19466e-08
8.0567e-08
1.08279e-07
1.42479e-07
1.73199e-07
1.91347e-07
1.91342e-07
1.73197e-07
1.42498e-07
1.08418e-07
8.09128e-08
8.18741e-08
1.09444e-07
1.43188e-07
1.73247e-07
1.90684e-07
1.90115e-07
1.71662e-07
1.40931e-07
1.06989e-07
7.96901e-08
8.46277e-08
1.12649e-07
1.46618e-07
1.76565e-07
1.93587e-07
1.92424e-07
1.73324e-07
1.42011e-07
1.07567e-07
7.99211e-08
8.72104e-08
1.1588e-07
1.50415e-07
1.80593e-07
1.97455e-07
1.95782e-07
1.75958e-07
1.43878e-07
1.08738e-07
8.05956e-08
8.89401e-08
1.18296e-07
1.53609e-07
1.84343e-07
2.01367e-07
1.99396e-07
1.78924e-07
1.46046e-07
1.10164e-07
8.1486e-08
8.90414e-08
1.18751e-07
1.54617e-07
1.85896e-07
2.03258e-07
2.01296e-07
1.80543e-07
1.47226e-07
1.10938e-07
8.19585e-08
8.78809e-08
1.17549e-07
1.53578e-07
1.85211e-07
2.02974e-07
2.01335e-07
1.80762e-07
1.47487e-07
1.11185e-07
8.21341e-08
8.64263e-08
1.15787e-07
1.51633e-07
1.83382e-07
2.01517e-07
2.00414e-07
1.80391e-07
1.47545e-07
1.1149e-07
8.24791e-08
8.57752e-08
1.14855e-07
1.50447e-07
1.82198e-07
2.00639e-07
2.00103e-07
1.80722e-07
1.48395e-07
1.12577e-07
8.35289e-08
8.62846e-08
1.15402e-07
1.51038e-07
1.82937e-07
2.01696e-07
2.01627e-07
1.8272e-07
1.50708e-07
1.14895e-07
8.56113e-08
8.75369e-08
1.17127e-07
1.5331e-07
1.85702e-07
2.04892e-07
2.05127e-07
1.86339e-07
1.54202e-07
1.18012e-07
8.82461e-08
8.9048e-08
1.19341e-07
1.56379e-07
1.8948e-07
2.09104e-07
2.0936e-07
1.90185e-07
1.57356e-07
1.2038e-07
8.9959e-08
9.06316e-08
1.21477e-07
1.59154e-07
1.92702e-07
2.12387e-07
2.1219e-07
1.92129e-07
1.58224e-07
1.20341e-07
8.93842e-08
9.24424e-08
1.23492e-07
1.61242e-07
1.9462e-07
2.13754e-07
2.12632e-07
1.91441e-07
1.565e-07
1.17982e-07
8.68445e-08
9.4389e-08
1.2538e-07
1.62717e-07
1.9539e-07
2.13521e-07
2.11282e-07
1.89058e-07
1.5341e-07
1.14618e-07
8.35831e-08
9.64209e-08
1.274e-07
1.6429e-07
1.96188e-07
2.13318e-07
2.10106e-07
1.87105e-07
1.51032e-07
1.12076e-07
8.11396e-08
9.61848e-08
1.27295e-07
1.64232e-07
1.95988e-07
2.12818e-07
2.09285e-07
1.86076e-07
1.50001e-07
1.11136e-07
8.04033e-08
9.0008e-08
1.20931e-07
1.58395e-07
1.91077e-07
2.09036e-07
2.06625e-07
1.84527e-07
1.49486e-07
1.11572e-07
8.15154e-08
7.90397e-08
1.08708e-07
1.46016e-07
1.79671e-07
1.99594e-07
1.99642e-07
1.80177e-07
1.47533e-07
1.11701e-07
8.29784e-08
6.92356e-08
9.66027e-08
1.32121e-07
1.65284e-07
1.86297e-07
1.88714e-07
1.72342e-07
1.42785e-07
1.09648e-07
8.27257e-08
6.47938e-08
8.99031e-08
1.22688e-07
1.53795e-07
1.74082e-07
1.77335e-07
1.62956e-07
1.35858e-07
1.05068e-07
7.99206e-08
6.62158e-08
9.03578e-08
1.21208e-07
1.50182e-07
1.68755e-07
1.71262e-07
1.57076e-07
1.30795e-07
1.00971e-07
7.66879e-08
7.17505e-08
9.66936e-08
1.27591e-07
1.5593e-07
1.73367e-07
1.74636e-07
1.5927e-07
1.3199e-07
1.01164e-07
7.61414e-08
8.01921e-08
1.07185e-07
1.39774e-07
1.68981e-07
1.86228e-07
1.86326e-07
1.68986e-07
1.39375e-07
1.06e-07
7.89813e-08
8.98656e-08
1.19554e-07
1.5487e-07
1.85895e-07
2.0348e-07
2.02233e-07
1.82145e-07
1.49105e-07
1.1228e-07
8.26848e-08
9.8521e-08
1.30439e-07
1.68079e-07
2.00448e-07
2.17894e-07
2.1485e-07
1.91819e-07
1.5548e-07
1.15924e-07
8.44565e-08
1.04596e-07
1.38098e-07
1.77408e-07
2.10452e-07
2.27237e-07
2.22179e-07
1.96478e-07
1.57551e-07
1.16376e-07
8.39991e-08
1.05385e-07
1.39119e-07
1.78667e-07
2.11421e-07
2.27363e-07
2.21101e-07
1.94414e-07
1.55046e-07
1.14267e-07
8.23329e-08
1.01352e-07
1.33403e-07
1.71253e-07
2.03363e-07
2.20092e-07
2.16117e-07
1.92626e-07
1.56426e-07
1.17739e-07
8.62481e-08
1.01058e-07
1.31542e-07
1.66805e-07
1.97386e-07
2.14715e-07
2.13912e-07
1.94959e-07
1.63017e-07
1.2601e-07
9.38083e-08
6.90678e-08
1.04256e-07
1.49485e-07
1.92868e-07
2.22464e-07
2.31174e-07
2.1812e-07
1.88709e-07
1.50806e-07
1.15636e-07
2.07447e-08
4.52482e-08
8.90232e-08
1.45119e-07
1.99411e-07
2.36674e-07
2.48104e-07
2.34158e-07
2.02219e-07
1.65578e-07
8.91514e-09
1.97649e-08
4.28528e-08
7.97429e-08
1.28101e-07
1.78321e-07
2.18011e-07
2.37188e-07
2.33534e-07
2.1546e-07
4.46521e-09
6.12581e-09
1.111e-08
2.26718e-08
4.47477e-08
7.92033e-08
1.22969e-07
1.6726e-07
2.0304e-07
2.27162e-07
1.53282e-09
2.07019e-09
1.89827e-09
2.68889e-09
5.02654e-09
1.24319e-08
2.97258e-08
6.10246e-08
1.07061e-07
1.66096e-07
2.87047e-09
4.87915e-09
5.0033e-09
5.99884e-09
5.76813e-09
4.67098e-09
2.68689e-09
1.59127e-09
4.28611e-09
2.22425e-08
4.24031e-09
5.91307e-09
6.49563e-09
1.04293e-08
1.75278e-08
2.89519e-08
4.06668e-08
4.40854e-08
3.22977e-08
1.0155e-08
5.52798e-09
4.55578e-09
3.74465e-09
6.6028e-09
1.59359e-08
3.89115e-08
7.99675e-08
1.28292e-07
1.57237e-07
1.24759e-07
2.74114e-08
1.66686e-08
6.87787e-09
1.79769e-09
1.3447e-09
8.20149e-09
3.37624e-08
8.1368e-08
1.35156e-07
1.46265e-07
1.25333e-07
1.02233e-07
6.46165e-08
2.78491e-08
5.16882e-09
5.26936e-10
8.55016e-09
3.69733e-08
7.55509e-08
9.16265e-08
3.50141e-07
2.68601e-07
1.56037e-07
5.77974e-08
8.15915e-09
1.72485e-10
1.15375e-08
5.07124e-08
9.69385e-08
1.15189e-07
5.84324e-07
8.28513e-07
1.09498e-06
1.3155e-06
1.44029e-06
1.44028e-06
1.31547e-06
1.09494e-06
8.28468e-07
5.84283e-07
2.35067e-07
3.22704e-07
4.25962e-07
5.15205e-07
5.66934e-07
5.66885e-07
5.15072e-07
4.2578e-07
3.22521e-07
2.34904e-07
8.23744e-08
1.10245e-07
1.44592e-07
1.75504e-07
1.93714e-07
1.93625e-07
1.75261e-07
1.44252e-07
1.09882e-07
8.20292e-08
1.07912e-07
1.45373e-07
1.90578e-07
2.30568e-07
2.53888e-07
2.5365e-07
2.29907e-07
1.89634e-07
1.44333e-07
1.06905e-07
8.453e-08
1.13073e-07
1.48072e-07
1.79272e-07
1.97442e-07
1.96982e-07
1.7799e-07
1.46227e-07
1.11007e-07
8.25083e-08
9.1911e-08
1.23044e-07
1.6092e-07
1.94426e-07
2.13698e-07
2.12811e-07
1.9196e-07
1.57387e-07
1.19108e-07
8.80881e-08
8.61162e-08
1.14851e-07
1.49911e-07
1.80871e-07
1.98473e-07
1.97208e-07
1.77374e-07
1.4495e-07
1.09393e-07
8.08468e-08
8.77697e-08
1.16915e-07
1.52388e-07
1.83601e-07
2.01204e-07
1.99692e-07
1.7944e-07
1.46521e-07
1.10496e-07
8.15535e-08
8.60798e-08
1.1445e-07
1.49006e-07
1.79428e-07
1.96576e-07
1.95091e-07
1.75334e-07
1.43225e-07
1.08072e-07
7.97991e-08
8.63337e-08
1.14895e-07
1.49704e-07
1.8043e-07
1.97883e-07
1.96661e-07
1.77055e-07
1.44939e-07
1.09577e-07
8.09958e-08
8.51299e-08
1.13748e-07
1.4881e-07
1.79992e-07
1.98027e-07
1.97404e-07
1.7829e-07
1.46471e-07
1.11148e-07
8.24362e-08
8.36894e-08
1.12562e-07
1.48254e-07
1.80359e-07
1.99437e-07
1.99732e-07
1.81224e-07
1.49615e-07
1.14144e-07
8.50938e-08
8.18584e-08
1.10756e-07
1.46821e-07
1.79665e-07
1.99734e-07
2.01018e-07
1.83276e-07
1.52058e-07
1.16636e-07
8.74054e-08
8.08607e-08
1.09689e-07
1.45873e-07
1.79109e-07
1.99811e-07
2.0179e-07
1.84603e-07
1.53657e-07
1.18251e-07
8.88761e-08
8.1143e-08
1.09829e-07
1.45812e-07
1.7893e-07
1.99645e-07
2.01737e-07
1.84663e-07
1.5375e-07
1.18308e-07
8.88868e-08
8.30737e-08
1.11727e-07
1.4738e-07
1.79981e-07
2.00099e-07
2.01643e-07
1.84116e-07
1.52886e-07
1.17266e-07
8.78297e-08
8.62143e-08
1.15109e-07
1.50579e-07
1.82559e-07
2.01739e-07
2.02266e-07
1.83848e-07
1.52009e-07
1.16068e-07
8.65925e-08
8.88944e-08
1.18335e-07
1.54086e-07
1.85864e-07
2.04376e-07
2.0397e-07
1.84623e-07
1.52088e-07
1.15734e-07
8.61263e-08
8.91617e-08
1.19141e-07
1.55539e-07
1.87768e-07
2.06376e-07
2.05716e-07
1.85935e-07
1.52979e-07
1.16335e-07
8.65937e-08
8.71104e-08
1.17196e-07
1.54034e-07
1.86915e-07
2.0619e-07
2.06036e-07
1.86567e-07
1.53756e-07
1.17204e-07
8.74943e-08
8.4743e-08
1.14514e-07
1.51268e-07
1.84456e-07
2.0438e-07
2.05046e-07
1.86382e-07
1.54195e-07
1.18074e-07
8.85473e-08
8.36936e-08
1.13132e-07
1.49585e-07
1.82752e-07
2.03048e-07
2.04413e-07
1.86564e-07
1.55058e-07
1.19342e-07
8.99044e-08
8.42335e-08
1.1369e-07
1.50128e-07
1.8338e-07
2.03962e-07
2.05799e-07
1.88449e-07
1.5727e-07
1.21555e-07
9.1876e-08
8.56689e-08
1.15522e-07
1.52376e-07
1.86014e-07
2.06944e-07
2.09056e-07
1.91815e-07
1.60519e-07
1.24385e-07
9.41966e-08
8.68403e-08
1.17273e-07
1.54834e-07
1.89083e-07
2.10428e-07
2.12683e-07
1.95313e-07
1.63684e-07
1.27049e-07
9.64149e-08
8.73706e-08
1.18162e-07
1.562e-07
1.90734e-07
2.12091e-07
2.14017e-07
1.96089e-07
1.63854e-07
1.2678e-07
9.59997e-08
8.78666e-08
1.18326e-07
1.5589e-07
1.8957e-07
2.09698e-07
2.10085e-07
1.90627e-07
1.57245e-07
1.1985e-07
8.94855e-08
8.76743e-08
1.16948e-07
1.52806e-07
1.84285e-07
2.01845e-07
1.99697e-07
1.78306e-07
1.44097e-07
1.07297e-07
7.83499e-08
8.61988e-08
1.13958e-07
1.47637e-07
1.76596e-07
1.91569e-07
1.87394e-07
1.65073e-07
1.31287e-07
9.60394e-08
6.89004e-08
8.30482e-08
1.09589e-07
1.41741e-07
1.69297e-07
1.83255e-07
1.78872e-07
1.57257e-07
1.24905e-07
9.12159e-08
6.52086e-08
7.98549e-08
1.05523e-07
1.36875e-07
1.6421e-07
1.78723e-07
1.75703e-07
1.55903e-07
1.2533e-07
9.274e-08
6.71121e-08
7.82395e-08
1.03587e-07
1.34822e-07
1.62686e-07
1.78476e-07
1.77301e-07
1.5939e-07
1.3024e-07
9.81643e-08
7.24239e-08
7.88875e-08
1.0485e-07
1.36875e-07
1.65852e-07
1.83107e-07
1.83531e-07
1.66963e-07
1.38522e-07
1.06368e-07
8.00978e-08
8.12344e-08
1.08969e-07
1.43157e-07
1.74246e-07
1.93353e-07
1.95e-07
1.7883e-07
1.49861e-07
1.16535e-07
8.89215e-08
8.28155e-08
1.12418e-07
1.49216e-07
1.82895e-07
2.04184e-07
2.07042e-07
1.90971e-07
1.61043e-07
1.26214e-07
9.6991e-08
8.2874e-08
1.13793e-07
1.52808e-07
1.88946e-07
2.12414e-07
2.1653e-07
2.00592e-07
1.69757e-07
1.33529e-07
1.02816e-07
8.20968e-08
1.13179e-07
1.52653e-07
1.89565e-07
2.13834e-07
2.18514e-07
2.02739e-07
1.7167e-07
1.3503e-07
1.03787e-07
8.71378e-08
1.171e-07
1.54163e-07
1.87943e-07
2.09276e-07
2.12047e-07
1.9579e-07
1.65576e-07
1.30384e-07
1.00447e-07
9.96218e-08
1.28478e-07
1.62314e-07
1.90939e-07
2.06996e-07
2.05956e-07
1.88393e-07
1.59479e-07
1.26902e-07
9.98141e-08
1.29081e-07
1.54703e-07
1.79755e-07
1.94949e-07
1.94842e-07
1.78429e-07
1.49446e-07
1.15256e-07
8.38157e-08
6.27242e-08
1.56558e-07
1.67775e-07
1.71675e-07
1.63143e-07
1.41136e-07
1.099e-07
7.61469e-08
4.67133e-08
2.62727e-08
1.58846e-08
1.45633e-07
1.40632e-07
1.30197e-07
1.12082e-07
8.82639e-08
6.30602e-08
4.06269e-08
2.33955e-08
1.25481e-08
6.96058e-09
1.2361e-07
1.24892e-07
1.257e-07
1.19201e-07
1.04496e-07
8.33497e-08
5.93962e-08
3.60974e-08
1.85548e-08
7.17891e-09
1.83092e-07
2.08229e-07
2.32337e-07
2.37685e-07
2.15943e-07
1.68987e-07
1.09656e-07
5.44022e-08
2.00462e-08
4.09533e-09
3.28915e-07
3.77384e-07
4.17351e-07
4.18838e-07
3.67599e-07
2.73524e-07
1.66163e-07
7.66951e-08
2.67785e-08
5.70316e-09
4.32839e-07
4.79844e-07
5.1513e-07
5.03941e-07
4.31733e-07
3.15974e-07
1.92449e-07
9.32151e-08
3.63152e-08
9.58776e-09
3.8444e-07
4.1816e-07
4.42371e-07
4.28535e-07
3.67826e-07
2.76999e-07
1.81237e-07
1.00415e-07
4.74285e-08
1.59238e-08
3.72174e-07
4.0954e-07
4.36299e-07
4.32679e-07
3.90705e-07
3.21279e-07
2.39756e-07
1.61743e-07
9.93342e-08
5.35771e-08
4.49016e-07
4.69928e-07
4.83598e-07
4.83962e-07
4.56992e-07
4.04849e-07
3.36371e-07
2.6789e-07
2.066e-07
1.60944e-07
1.37326e-06
1.49651e-06
1.55197e-06
1.53418e-06
1.44248e-06
1.27761e-06
1.06222e-06
8.27796e-07
6.15905e-07
4.3944e-07
)
;
    }
    inlet
    {
        type            calculated;
        value           uniform 0;
    }
    outlet
    {
        type            calculated;
        value           uniform 0;
    }
}


// ************************************************************************* //
