/*--------------------------------*- C++ -*----------------------------------*\
| =========                 |                                                 |
| \\      /  F ield         | OpenFOAM: The Open Source CFD Toolbox           |
|  \\    /   O peration     | Version:  2406                                  |
|   \\  /    A nd           | Website:  www.openfoam.com                      |
|    \\/     M anipulation  |                                                 |
\*---------------------------------------------------------------------------*/
FoamFile
{
    version     2.0;
    format      ascii;
    arch        "LSB;label=32;scalar=64";
    class       volVectorField;
    location    "0.8";
    object      momentError;
}
// * * * * * * * * * * * * * * * * * * * * * * * * * * * * * * * * * * * * * //

dimensions      [0 1 -2 0 0 0 0];

internalField   nonuniform List<vector> 
25000
(
(-0.00385194 -0.00475939 -0.0036806)
(-0.0022898 -0.00505687 -0.00468976)
(-0.00138198 -0.00475457 -0.00491699)
(-0.000796633 -0.00448324 -0.00503478)
(-0.000221487 -0.00433666 -0.00513698)
(0.000376996 -0.00430295 -0.00520931)
(0.00100492 -0.00436495 -0.0052458)
(0.00180104 -0.00450458 -0.00525406)
(0.00301828 -0.0047386 -0.00513857)
(0.00457965 -0.00460835 -0.00401566)
(-0.00422983 -0.00314949 -0.00479537)
(-0.00253547 -0.00328167 -0.00618706)
(-0.00151026 -0.00299806 -0.00647005)
(-0.00094665 -0.00283029 -0.00662166)
(-0.000400374 -0.00275172 -0.00675649)
(0.000182427 -0.00272402 -0.00684994)
(0.000800358 -0.00275071 -0.00689328)
(0.00160583 -0.00288869 -0.00689374)
(0.00300482 -0.00324314 -0.00674003)
(0.0048239 -0.00318317 -0.00529715)
(-0.0041055 -0.00228025 -0.00512377)
(-0.0023569 -0.00229794 -0.00658605)
(-0.00140344 -0.00212394 -0.00689895)
(-0.000897743 -0.00205334 -0.00707999)
(-0.000391343 -0.0020292 -0.00723246)
(0.000154914 -0.00202009 -0.00733155)
(0.000720552 -0.00203587 -0.00736655)
(0.00142891 -0.00214278 -0.00733758)
(0.00265441 -0.00244378 -0.00714311)
(0.00436869 -0.00250147 -0.00563714)
(-0.00404986 -0.00175474 -0.00532111)
(-0.00229244 -0.00181014 -0.00683188)
(-0.00138407 -0.0017092 -0.00718287)
(-0.000897908 -0.00167482 -0.0073853)
(-0.000397287 -0.00167155 -0.00754262)
(0.000140866 -0.00167606 -0.00763955)
(0.000682652 -0.0016972 -0.00766627)
(0.00131915 -0.00178293 -0.00761334)
(0.00238438 -0.00199868 -0.00737643)
(0.00394271 -0.00201353 -0.00581617)
(-0.00409842 -0.00122106 -0.00548162)
(-0.00229839 -0.00131973 -0.00703811)
(-0.0013964 -0.00126268 -0.00741904)
(-0.000914941 -0.00123807 -0.00763096)
(-0.000414402 -0.00123768 -0.00778405)
(0.000122615 -0.00124582 -0.00787335)
(0.000652119 -0.00126832 -0.00789123)
(0.00124872 -0.00133279 -0.00782167)
(0.00222492 -0.00146571 -0.00755415)
(0.00370932 -0.00142887 -0.00594574)
(-0.00421593 -0.000633968 -0.00560705)
(-0.00232518 -0.000767007 -0.00719499)
(-0.0014015 -0.000741074 -0.00759439)
(-0.000919613 -0.00071735 -0.00780996)
(-0.000419818 -0.000712985 -0.0079568)
(0.000114548 -0.000717745 -0.00803529)
(0.000636389 -0.000733734 -0.00804015)
(0.00121299 -0.000774842 -0.00795508)
(0.0021527 -0.000838518 -0.00766768)
(0.00362408 -0.000779193 -0.00602996)
(-0.00437797 8.13904e-06 -0.00571228)
(-0.00236884 -0.000165039 -0.00731797)
(-0.00140083 -0.000182273 -0.00772117)
(-0.000912216 -0.000167637 -0.00793218)
(-0.000413225 -0.000161063 -0.00806926)
(0.000122613 -0.000157295 -0.00813292)
(0.000642149 -0.000160647 -0.00812067)
(0.00121569 -0.000168344 -0.00802173)
(0.00216539 -0.000152203 -0.00772583)
(0.00365978 -8.10902e-05 -0.00607595)
(-0.00456505 0.000803515 -0.00579799)
(-0.00248535 0.000597482 -0.00740591)
(-0.00145113 0.00049156 -0.00779366)
(-0.000925193 0.000463911 -0.00798178)
(-0.000399572 0.000464748 -0.00809802)
(0.000157052 0.000484688 -0.00814267)
(0.000697888 0.000516975 -0.00811545)
(0.00130798 0.00058013 -0.00801294)
(0.00231861 0.000711738 -0.00772626)
(0.00384224 0.00077214 -0.00608078)
(-0.00461085 0.00203435 -0.00575536)
(-0.00270619 0.00183821 -0.00731774)
(-0.00160858 0.00155626 -0.00767645)
(-0.000977552 0.00143702 -0.00782307)
(-0.000365685 0.00142989 -0.00790567)
(0.000265499 0.00150213 -0.00792861)
(0.000885871 0.00163824 -0.00789209)
(0.00158903 0.00185344 -0.00779803)
(0.00270846 0.00213129 -0.00752986)
(0.00421227 0.00196082 -0.00591924)
(-0.00371841 0.00371632 -0.00477812)
(-0.00230818 0.00341884 -0.00593482)
(-0.00144873 0.00300213 -0.00620241)
(-0.00079382 0.00284278 -0.00629138)
(-0.000146713 0.0028773 -0.00633068)
(0.000511786 0.00305178 -0.00633105)
(0.0011706 0.00334529 -0.00629156)
(0.00189225 0.00373193 -0.00620946)
(0.00290128 0.00401462 -0.00598013)
(0.00433921 0.00347297 -0.00469565)
(-0.00271161 -0.00659748 -0.0155921)
(-0.000638529 -0.00703591 -0.0176457)
(0.000477865 -0.00673119 -0.0169178)
(0.00116054 -0.00632264 -0.0161722)
(0.00174948 -0.00597524 -0.0157799)
(0.00234279 -0.00568376 -0.0155728)
(0.00294705 -0.00543725 -0.0155119)
(0.00369385 -0.00525421 -0.0157041)
(0.0048094 -0.00516777 -0.0157011)
(0.00642268 -0.00495086 -0.0119852)
(-0.00325731 -0.00456898 -0.0180117)
(-0.00122982 -0.00473408 -0.0204483)
(-7.17402e-05 -0.00441365 -0.0194131)
(0.000535178 -0.00416202 -0.0186156)
(0.00104317 -0.00396976 -0.0182895)
(0.00157243 -0.0038131 -0.018181)
(0.00215262 -0.00371029 -0.0182796)
(0.00293006 -0.00374108 -0.0188202)
(0.00423651 -0.00400445 -0.0194822)
(0.00602422 -0.00391968 -0.0159061)
(-0.00329756 -0.00365089 -0.0176456)
(-0.00121318 -0.00367165 -0.0197538)
(-0.000132149 -0.00343139 -0.0186166)
(0.00042064 -0.0032673 -0.017939)
(0.000872419 -0.00316524 -0.0177319)
(0.00134606 -0.00309306 -0.0176506)
(0.00187885 -0.00307534 -0.0176834)
(0.00260088 -0.00320414 -0.0181783)
(0.0037954 -0.00355198 -0.0190984)
(0.0055296 -0.003659 -0.0161686)
(-0.00345035 -0.00306224 -0.0172604)
(-0.00128953 -0.00317234 -0.0192742)
(-0.000221715 -0.00300748 -0.0182446)
(0.000322691 -0.0028867 -0.0177438)
(0.000764377 -0.00282373 -0.01765)
(0.00122426 -0.00278733 -0.0175897)
(0.00172874 -0.00280155 -0.0175429)
(0.00240509 -0.00294776 -0.0178805)
(0.00351418 -0.00326082 -0.0187459)
(0.00519598 -0.00335649 -0.0161099)
(-0.00371364 -0.00246072 -0.0172235)
(-0.00140966 -0.00268121 -0.0192542)
(-0.000299697 -0.00260259 -0.0183221)
(0.000259317 -0.00251713 -0.0179194)
(0.000712855 -0.00246572 -0.0178716)
(0.00117969 -0.00243776 -0.0178229)
(0.00167315 -0.00245305 -0.0177489)
(0.00231948 -0.00256542 -0.0179959)
(0.00338998 -0.00278656 -0.0187728)
(0.00508948 -0.0028361 -0.0162088)
(-0.00395281 -0.00176991 -0.0173913)
(-0.00148934 -0.00209097 -0.019445)
(-0.000310586 -0.0020964 -0.0185113)
(0.000279039 -0.00203818 -0.0181046)
(0.00075164 -0.00198945 -0.0180536)
(0.00122924 -0.0019623 -0.0180015)
(0.00172212 -0.00196953 -0.0179251)
(0.00235383 -0.00203583 -0.0181697)
(0.00340286 -0.00215234 -0.0189369)
(0.00511312 -0.00216612 -0.0163606)
(-0.00412353 -0.0009528 -0.0177769)
(-0.00152492 -0.00136138 -0.0198619)
(-0.000266485 -0.00145268 -0.0188314)
(0.000371693 -0.00143778 -0.0183212)
(0.000875939 -0.00140664 -0.0182204)
(0.00137675 -0.00138396 -0.0181517)
(0.00188563 -0.00138017 -0.0180969)
(0.00251797 -0.00139597 -0.0184218)
(0.00355173 -0.00140752 -0.0192527)
(0.0052319 -0.00140885 -0.0165888)
(-0.0042344 0.000143095 -0.0185335)
(-0.00159915 -0.000314953 -0.0207534)
(-0.000266087 -0.000505735 -0.0196227)
(0.000458924 -0.000561775 -0.0189373)
(0.00105244 -0.000573703 -0.0187231)
(0.00162776 -0.000566362 -0.01863)
(0.00219501 -0.000552286 -0.018644)
(0.00285512 -0.000516017 -0.0191037)
(0.00387777 -0.000427758 -0.0199637)
(0.00548156 -0.000470311 -0.0170287)
(-0.00407546 0.00180463 -0.0192779)
(-0.00173457 0.00139835 -0.0218734)
(-0.000370936 0.00104601 -0.0208741)
(0.000497546 0.00088504 -0.0200851)
(0.00126343 0.000821188 -0.0197564)
(0.00199524 0.000816653 -0.0196312)
(0.00268486 0.000852409 -0.0196964)
(0.00341703 0.000951294 -0.0201831)
(0.00446641 0.0010971 -0.0207815)
(0.00596341 0.000750583 -0.0172534)
(-0.0026922 0.00411017 -0.0170832)
(-0.000968011 0.00365178 -0.019344)
(0.000101479 0.0032018 -0.0187148)
(0.00101781 0.00300003 -0.0180125)
(0.00188559 0.00294714 -0.0176344)
(0.0027184 0.00296187 -0.017424)
(0.00348935 0.00301279 -0.0173521)
(0.00424454 0.00310858 -0.0175283)
(0.00516536 0.00307096 -0.0175218)
(0.00664727 0.00226235 -0.0139762)
(0.00168907 -0.00827102 -0.0365356)
(0.00360168 -0.00794277 -0.0381454)
(0.00482649 -0.00713126 -0.0354689)
(0.00557422 -0.00632487 -0.0327151)
(0.00603959 -0.0056618 -0.0306042)
(0.00635334 -0.00515117 -0.028824)
(0.00661242 -0.00476919 -0.0272063)
(0.00702709 -0.00449983 -0.0258291)
(0.00786182 -0.00424513 -0.0237007)
(0.00932744 -0.00371376 -0.0135007)
(0.00032232 -0.00563607 -0.039128)
(0.00237841 -0.00517228 -0.0415532)
(0.00372805 -0.00445862 -0.0382182)
(0.00437326 -0.00392034 -0.0353229)
(0.00462741 -0.00353373 -0.0335168)
(0.00469291 -0.00328074 -0.0324006)
(0.00474216 -0.00315619 -0.0318364)
(0.00504115 -0.00320432 -0.032032)
(0.00593746 -0.00345742 -0.0320678)
(0.0073584 -0.00325831 -0.0236094)
(4.88721e-05 -0.00434672 -0.0376452)
(0.00224875 -0.00382603 -0.0392914)
(0.00359206 -0.00327023 -0.0353927)
(0.00414976 -0.00292847 -0.0324727)
(0.00425135 -0.0027306 -0.0308423)
(0.00413463 -0.00264885 -0.0300074)
(0.00401527 -0.00268823 -0.0298621)
(0.00415361 -0.00288817 -0.030719)
(0.00484694 -0.00329843 -0.0320046)
(0.00608026 -0.00344229 -0.0256382)
(-5.49842e-05 -0.00352026 -0.0364102)
(0.00218556 -0.00318976 -0.0375661)
(0.00349247 -0.00283714 -0.0335256)
(0.00399341 -0.00265243 -0.0307183)
(0.00401101 -0.00256711 -0.0292332)
(0.00378882 -0.0025798 -0.0285243)
(0.00358474 -0.00270182 -0.0285423)
(0.00363444 -0.00292852 -0.0296695)
(0.00419119 -0.00329035 -0.0315463)
(0.00531264 -0.00347689 -0.0265099)
(-0.00021778 -0.00279181 -0.0361031)
(0.00209047 -0.00273662 -0.0370455)
(0.00338422 -0.00262186 -0.0329761)
(0.00386423 -0.00259114 -0.0302539)
(0.00384742 -0.0026053 -0.0288526)
(0.00356125 -0.00266559 -0.0281871)
(0.00333625 -0.00278428 -0.0282718)
(0.00338066 -0.00294546 -0.02952)
(0.0039013 -0.00316182 -0.0316754)
(0.00502962 -0.00329463 -0.027312)
(-0.000384739 -0.00203849 -0.0364509)
(0.00199588 -0.00226957 -0.0373717)
(0.0032989 -0.00239388 -0.033292)
(0.00379122 -0.00252102 -0.0305744)
(0.00379961 -0.00265401 -0.0291926)
(0.00354917 -0.00274713 -0.0285466)
(0.00335636 -0.00279335 -0.028648)
(0.00341911 -0.00284179 -0.0299273)
(0.00394365 -0.0028899 -0.0321412)
(0.00509805 -0.0029576 -0.0279296)
(-0.000507219 -0.00114663 -0.0374385)
(0.00191497 -0.00163051 -0.0385556)
(0.00323778 -0.00196224 -0.0344961)
(0.00377664 -0.00222145 -0.0317041)
(0.00387434 -0.00243189 -0.0302671)
(0.00375679 -0.00254412 -0.0296207)
(0.0036458 -0.00255922 -0.0297131)
(0.0037417 -0.00252679 -0.0309511)
(0.00429078 -0.00244627 -0.0330129)
(0.00545398 -0.00250958 -0.0284476)
(-0.000523976 5.57645e-05 -0.0392759)
(0.00185135 -0.000588051 -0.0409308)
(0.00318404 -0.0010759 -0.0370477)
(0.0038141 -0.00144134 -0.0341842)
(0.00406567 -0.00170659 -0.032647)
(0.00412504 -0.00184551 -0.0319329)
(0.00415168 -0.0018713 -0.0319421)
(0.00433961 -0.00180869 -0.0330108)
(0.00494737 -0.00167112 -0.0346255)
(0.00611439 -0.00184806 -0.0291047)
(-0.000135454 0.00182954 -0.0411752)
(0.00190649 0.00114559 -0.043783)
(0.00318976 0.000527207 -0.0406037)
(0.00394814 7.58598e-05 -0.0378906)
(0.00441887 -0.00023891 -0.0362918)
(0.00472295 -0.000406909 -0.0354077)
(0.00496303 -0.000456341 -0.035121)
(0.00530696 -0.000398058 -0.0356689)
(0.00601973 -0.000319706 -0.0362109)
(0.00721987 -0.000935531 -0.0290322)
(0.00183568 0.00429153 -0.0387544)
(0.00325057 0.00350088 -0.0407507)
(0.0042508 0.0027634 -0.0384736)
(0.00504569 0.0022623 -0.0361391)
(0.00567264 0.00193429 -0.0344699)
(0.00618509 0.00174597 -0.0331651)
(0.0066252 0.00165877 -0.0320997)
(0.00708687 0.00164838 -0.0313953)
(0.00777176 0.00141072 -0.0301465)
(0.00914779 0.000156382 -0.0219596)
(0.008278 -0.0149406 -0.0600599)
(0.00929631 -0.0124968 -0.0602092)
(0.0102203 -0.0108907 -0.0555942)
(0.0109475 -0.00970626 -0.05051)
(0.0114953 -0.00870992 -0.045991)
(0.0119055 -0.00778546 -0.0415907)
(0.0121919 -0.00683544 -0.0370866)
(0.0124776 -0.00584382 -0.0324727)
(0.0129928 -0.00469011 -0.0261146)
(0.0142772 -0.00341338 -0.0065244)
(0.00508228 -0.0120941 -0.0622713)
(0.00624084 -0.00981323 -0.064044)
(0.00731676 -0.00838237 -0.058817)
(0.00803475 -0.00740657 -0.0537839)
(0.00848276 -0.00666583 -0.0500124)
(0.00872421 -0.00607887 -0.047062)
(0.00884876 -0.00557265 -0.0447188)
(0.00902062 -0.00516109 -0.0430488)
(0.00945313 -0.00482024 -0.0404691)
(0.0102524 -0.00400905 -0.0249499)
(0.00358842 -0.0107254 -0.0602714)
(0.00510174 -0.00867774 -0.0611516)
(0.00630048 -0.00747148 -0.0550494)
(0.00707138 -0.00666611 -0.0498656)
(0.00749493 -0.006106 -0.046311)
(0.00761852 -0.00574554 -0.0440252)
(0.00761311 -0.00551506 -0.042786)
(0.00765888 -0.00539979 -0.0425172)
(0.00787943 -0.00537355 -0.0420702)
(0.00838461 -0.00501824 -0.0301219)
(0.0026667 -0.00961709 -0.0587382)
(0.00448604 -0.00796957 -0.058857)
(0.00585321 -0.00703406 -0.0523148)
(0.0067659 -0.00642254 -0.0469449)
(0.0072398 -0.006034 -0.0434004)
(0.00724035 -0.00581201 -0.0415415)
(0.00706219 -0.00566723 -0.0410652)
(0.00697704 -0.00563503 -0.0416615)
(0.00706706 -0.00566426 -0.042439)
(0.00750859 -0.00549377 -0.0328976)
(0.0019905 -0.00841574 -0.0586407)
(0.00412021 -0.00719616 -0.0582558)
(0.00568425 -0.00657361 -0.0513795)
(0.00676861 -0.00623239 -0.0457029)
(0.00735342 -0.00606929 -0.0421829)
(0.00727744 -0.0058836 -0.0406756)
(0.00695394 -0.00568137 -0.0405076)
(0.00676109 -0.00558128 -0.0416885)
(0.00679535 -0.00556439 -0.0432338)
(0.00728568 -0.00553123 -0.0350611)
(0.00161013 -0.00705317 -0.0595894)
(0.00396539 -0.00621814 -0.0589731)
(0.00563352 -0.0058938 -0.052004)
(0.006796 -0.00580689 -0.0462872)
(0.00744498 -0.00582102 -0.0427206)
(0.00744424 -0.00569635 -0.0412492)
(0.00714561 -0.005418 -0.0412125)
(0.00695412 -0.00523361 -0.0425317)
(0.00697214 -0.00516293 -0.0442656)
(0.00749873 -0.00527557 -0.0364952)
(0.00155425 -0.00544178 -0.0615528)
(0.0040306 -0.00493031 -0.0610233)
(0.00570844 -0.00483155 -0.0542166)
(0.00684663 -0.00488967 -0.0487532)
(0.00752593 -0.00498725 -0.0452149)
(0.00770633 -0.00491211 -0.0434842)
(0.00761777 -0.00472993 -0.0432783)
(0.00752137 -0.00459723 -0.0442726)
(0.00754767 -0.00456072 -0.0456175)
(0.00806623 -0.00489463 -0.037292)
(0.0018791 -0.00348631 -0.0648361)
(0.00437854 -0.00321268 -0.0647511)
(0.00605547 -0.00327933 -0.0582772)
(0.00720022 -0.00343398 -0.0530138)
(0.00795587 -0.00360772 -0.0495803)
(0.00834404 -0.00367708 -0.0475582)
(0.008474 -0.00367226 -0.0467363)
(0.00848656 -0.00368869 -0.0471019)
(0.00853764 -0.00377147 -0.0475859)
(0.00902394 -0.00441349 -0.0377215)
(0.0028526 -0.0009872 -0.0682973)
(0.0051405 -0.000882752 -0.0689549)
(0.00680491 -0.00112793 -0.0633784)
(0.00803547 -0.00141764 -0.0583685)
(0.00893878 -0.00173066 -0.05489)
(0.00952962 -0.00199481 -0.0524341)
(0.00984722 -0.00222823 -0.0507863)
(0.00998122 -0.00245159 -0.0500727)
(0.0101082 -0.00276802 -0.0488314)
(0.0106755 -0.00394688 -0.0363673)
(0.00581883 0.001924 -0.0681996)
(0.00769739 0.00194927 -0.0665982)
(0.00925774 0.00149853 -0.0615255)
(0.0105534 0.00102645 -0.0566019)
(0.0115729 0.000516658 -0.0526839)
(0.0123206 -1.77696e-06 -0.0492264)
(0.0128018 -0.000546658 -0.0459898)
(0.0130534 -0.00111548 -0.0430338)
(0.0132444 -0.00197799 -0.0388658)
(0.0142243 -0.00383232 -0.0239906)
(0.0192558 -0.0268176 -0.0800722)
(0.018896 -0.0201404 -0.0790959)
(0.0192385 -0.0160199 -0.0722419)
(0.0196263 -0.0131443 -0.064161)
(0.0198093 -0.010872 -0.0560924)
(0.0197444 -0.00897543 -0.0474314)
(0.0193825 -0.00732587 -0.0378792)
(0.0188343 -0.00596727 -0.0272702)
(0.0183509 -0.00482491 -0.0133097)
(0.0187841 -0.00425634 0.0219494)
(0.0131415 -0.0229953 -0.084358)
(0.0135212 -0.0169633 -0.0847361)
(0.0144538 -0.0134257 -0.0767454)
(0.0151332 -0.0109963 -0.0686845)
(0.0154562 -0.00918033 -0.0618297)
(0.0153785 -0.00779189 -0.0556057)
(0.0149374 -0.00670083 -0.0497253)
(0.0143165 -0.0059595 -0.0441208)
(0.0137985 -0.00559486 -0.0366461)
(0.0137507 -0.00531228 -0.00989564)
(0.0101014 -0.0210059 -0.0835759)
(0.0113174 -0.0154188 -0.0821024)
(0.0126349 -0.0123263 -0.072682)
(0.0135641 -0.0102832 -0.0643435)
(0.0140379 -0.00886076 -0.05783)
(0.0139332 -0.00786954 -0.0527025)
(0.0133694 -0.0071592 -0.0487102)
(0.0126009 -0.00675652 -0.0453404)
(0.0118211 -0.00670028 -0.0411227)
(0.0114072 -0.00687224 -0.020362)
(0.00822132 -0.0193109 -0.083299)
(0.00999952 -0.0142633 -0.0800994)
(0.0116725 -0.0115838 -0.0698012)
(0.012969 -0.00992341 -0.0609423)
(0.013784 -0.00887776 -0.0543887)
(0.0136129 -0.00819441 -0.0499653)
(0.0127265 -0.00760664 -0.0474793)
(0.0117458 -0.00735636 -0.0456088)
(0.0107897 -0.00741483 -0.0433125)
(0.0102726 -0.00784051 -0.0266171)
(0.00679477 -0.0174522 -0.0849473)
(0.00911867 -0.0129763 -0.0802949)
(0.0111788 -0.0107324 -0.0691518)
(0.0129361 -0.00954141 -0.0593875)
(0.0142546 -0.00900587 -0.0524655)
(0.0140659 -0.0084242 -0.049582)
(0.0127488 -0.0077603 -0.047195)
(0.011493 -0.00751606 -0.0464618)
(0.0104522 -0.00764805 -0.0455104)
(0.00998901 -0.00834649 -0.0312365)
(0.00580468 -0.015419 -0.088201)
(0.00859038 -0.0114379 -0.0823448)
(0.0108901 -0.00957548 -0.0706837)
(0.0127917 -0.0087169 -0.0606589)
(0.0141786 -0.00847987 -0.0531839)
(0.0141159 -0.00806472 -0.0502886)
(0.0128724 -0.00747033 -0.0485575)
(0.0116871 -0.0072878 -0.0481098)
(0.0106917 -0.0075211 -0.0475547)
(0.0103396 -0.00853811 -0.0341439)
(0.00521123 -0.0131692 -0.0931755)
(0.00836183 -0.00959158 -0.0863797)
(0.0107792 -0.00801747 -0.0744947)
(0.0125169 -0.00731336 -0.0648106)
(0.0136435 -0.00712563 -0.0578669)
(0.0137991 -0.00687289 -0.0535473)
(0.0131509 -0.00668152 -0.0516259)
(0.0123134 -0.00677122 -0.0506304)
(0.0114788 -0.00720009 -0.0495407)
(0.0112685 -0.00862351 -0.0354406)
(0.00502304 -0.0106973 -0.100489)
(0.00845695 -0.00741483 -0.0929841)
(0.0110201 -0.00607446 -0.0809491)
(0.0127691 -0.00552755 -0.0713347)
(0.0138508 -0.00543322 -0.0644162)
(0.0142397 -0.00549726 -0.0594768)
(0.0140436 -0.00568623 -0.0561745)
(0.0135048 -0.00607688 -0.0540779)
(0.0128733 -0.00674656 -0.0517806)
(0.0128482 -0.00863415 -0.0354093)
(0.00534377 -0.00786611 -0.109051)
(0.00885892 -0.00480224 -0.10089)
(0.011602 -0.00372244 -0.0892408)
(0.0135579 -0.00341029 -0.0793479)
(0.0148567 -0.00355788 -0.0718872)
(0.0155364 -0.00394096 -0.0659597)
(0.0156778 -0.00448691 -0.0611241)
(0.0154395 -0.00516999 -0.0573253)
(0.0151116 -0.00615185 -0.0525559)
(0.0155223 -0.00871897 -0.0321693)
(0.00751763 -0.00502315 -0.119074)
(0.0109084 -0.00185572 -0.104574)
(0.0139044 -0.0010573 -0.0916567)
(0.0162291 -0.00106468 -0.0804076)
(0.0179136 -0.00153876 -0.0711811)
(0.0190018 -0.00228303 -0.0629212)
(0.0195815 -0.00321516 -0.0550676)
(0.0197525 -0.00428776 -0.0474112)
(0.019826 -0.00592583 -0.0377944)
(0.0211036 -0.00936739 -0.012242)
(0.0300488 -0.0361743 -0.0880812)
(0.02862 -0.0269723 -0.0885146)
(0.0281943 -0.0212781 -0.0804026)
(0.0278359 -0.0171497 -0.0698215)
(0.0272023 -0.0137957 -0.0580896)
(0.0262504 -0.0111227 -0.0444903)
(0.0248034 -0.00906664 -0.0286376)
(0.022855 -0.00775641 -0.0102088)
(0.0205455 -0.00736466 0.013783)
(0.018947 -0.00952076 0.0691459)
(0.0217505 -0.0329038 -0.0999356)
(0.0211851 -0.0245773 -0.0999362)
(0.0215619 -0.019858 -0.0897446)
(0.0218561 -0.016361 -0.0786648)
(0.0218151 -0.0136025 -0.0682517)
(0.0212816 -0.0115027 -0.0578653)
(0.0201454 -0.0100049 -0.0472105)
(0.0184642 -0.00924702 -0.0360521)
(0.0163766 -0.00935138 -0.0216655)
(0.0145007 -0.0111625 0.019301)
(0.0168019 -0.0313985 -0.10444)
(0.017473 -0.0237337 -0.100692)
(0.0185709 -0.0195955 -0.0879935)
(0.0194537 -0.0165929 -0.0761165)
(0.0199335 -0.0143563 -0.065938)
(0.0196761 -0.0127002 -0.0568732)
(0.018641 -0.0115514 -0.0487772)
(0.0170345 -0.0110819 -0.0407505)
(0.0149466 -0.0113961 -0.0307634)
(0.0130232 -0.0133676 0.00149134)
(0.0131545 -0.0299533 -0.108625)
(0.0147413 -0.0229067 -0.101343)
(0.0165434 -0.0192303 -0.0868924)
(0.0181677 -0.0167548 -0.0739715)
(0.0194454 -0.015113 -0.0637279)
(0.0193935 -0.0138117 -0.0554285)
(0.0180856 -0.0126718 -0.0493647)
(0.0163957 -0.0123164 -0.0432592)
(0.0143693 -0.0127555 -0.0359925)
(0.0126601 -0.014929 -0.00978911)
(0.0101264 -0.0281015 -0.114644)
(0.0125276 -0.021646 -0.104288)
(0.0150479 -0.0184139 -0.0880935)
(0.0175276 -0.0165882 -0.0736172)
(0.0198338 -0.0157947 -0.0624922)
(0.0200632 -0.0146376 -0.0571811)
(0.0182403 -0.0132321 -0.0504619)
(0.0163141 -0.0128576 -0.0458381)
(0.0144006 -0.0134671 -0.0405312)
(0.0130085 -0.0160003 -0.0181212)
(0.00775295 -0.0259357 -0.122522)
(0.010795 -0.0199112 -0.109408)
(0.0138075 -0.0169747 -0.0919124)
(0.0166462 -0.0154252 -0.0766597)
(0.019155 -0.014913 -0.0640961)
(0.019732 -0.0140619 -0.0585536)
(0.0182082 -0.0129118 -0.0532283)
(0.0165625 -0.0127723 -0.0490512)
(0.0149175 -0.0136669 -0.044459)
(0.0138955 -0.0166886 -0.0236661)
(0.00593157 -0.0234649 -0.132768)
(0.00946733 -0.0177294 -0.1171)
(0.0127955 -0.0149414 -0.0986127)
(0.015564 -0.0133485 -0.0832548)
(0.0177099 -0.0126468 -0.071609)
(0.0185759 -0.0120796 -0.0630487)
(0.0181024 -0.0117819 -0.0577039)
(0.0171458 -0.0122246 -0.0530488)
(0.0159234 -0.0135407 -0.0479504)
(0.0153271 -0.0171847 -0.0266533)
(0.00460666 -0.0207373 -0.146565)
(0.00852741 -0.0151843 -0.128367)
(0.0121517 -0.0125084 -0.108992)
(0.0150636 -0.0109683 -0.0931814)
(0.0172064 -0.0102728 -0.0810183)
(0.0183994 -0.0101264 -0.0714113)
(0.0186583 -0.0104776 -0.0640045)
(0.0182648 -0.011449 -0.0579604)
(0.0174799 -0.0132082 -0.0514121)
(0.0173698 -0.0175015 -0.0275054)
(0.00363901 -0.0177455 -0.163302)
(0.00783852 -0.0122823 -0.142115)
(0.0117563 -0.00972162 -0.122394)
(0.0149901 -0.00835002 -0.105548)
(0.0174662 -0.00789846 -0.0920551)
(0.0190922 -0.00816276 -0.0807362)
(0.0199009 -0.00904589 -0.0709942)
(0.0200457 -0.0105132 -0.0625735)
(0.019838 -0.0127849 -0.0529471)
(0.0206332 -0.0178539 -0.0242543)
(0.00399937 -0.0155482 -0.19086)
(0.00832508 -0.00955975 -0.157284)
(0.0127115 -0.00697572 -0.133665)
(0.01653 -0.00580398 -0.113393)
(0.0196658 -0.00567475 -0.0962883)
(0.0220153 -0.00638274 -0.0809221)
(0.0236372 -0.00781702 -0.0664547)
(0.0246118 -0.00990104 -0.0524376)
(0.0253463 -0.0131066 -0.0361043)
(0.0276038 -0.0192821 0.000169423)
(0.0332568 -0.0314306 -0.0976833)
(0.0335702 -0.0258201 -0.0935128)
(0.0342009 -0.0215065 -0.0804821)
(0.034027 -0.0179215 -0.064588)
(0.0328382 -0.0148322 -0.0468685)
(0.0307956 -0.0125493 -0.0261269)
(0.0278437 -0.0113281 -0.00158228)
(0.0240732 -0.0115158 0.0275037)
(0.0196479 -0.013608 0.0649792)
(0.0159931 -0.0205054 0.147711)
(0.0257814 -0.0288548 -0.116383)
(0.0268119 -0.0242911 -0.112185)
(0.0280851 -0.0212345 -0.0973889)
(0.0285818 -0.0183401 -0.0814363)
(0.0281758 -0.015759 -0.0657805)
(0.0268348 -0.0138501 -0.0494988)
(0.0245298 -0.0128884 -0.0321343)
(0.0213905 -0.013231 -0.0131635)
(0.0176537 -0.01521 0.0107842)
(0.0143178 -0.0208677 0.0711408)
(0.0212467 -0.0276576 -0.127018)
(0.023255 -0.0239367 -0.117998)
(0.0251699 -0.0215795 -0.100267)
(0.0262967 -0.0192356 -0.0833753)
(0.0265666 -0.0171945 -0.0680235)
(0.0256756 -0.0156637 -0.0533706)
(0.0236244 -0.014883 -0.0393427)
(0.0207367 -0.0152953 -0.0245149)
(0.0172424 -0.0171965 -0.00643536)
(0.0142645 -0.0226398 0.0413085)
(0.0176498 -0.0262714 -0.136525)
(0.0201457 -0.0231783 -0.122905)
(0.0226487 -0.021342 -0.102814)
(0.024624 -0.0196521 -0.084498)
(0.0259748 -0.0183738 -0.0692103)
(0.0255081 -0.0172468 -0.0554043)
(0.0232558 -0.01639 -0.0439099)
(0.0204371 -0.0168114 -0.0316268)
(0.0172229 -0.0187204 -0.0172901)
(0.0146731 -0.0241539 0.0215672)
(0.014416 -0.0242867 -0.147634)
(0.0172321 -0.0217985 -0.129911)
(0.0203165 -0.0204659 -0.107534)
(0.0232899 -0.0195869 -0.0871301)
(0.0260676 -0.0194302 -0.0703922)
(0.0261418 -0.0185559 -0.0613025)
(0.0233453 -0.0173184 -0.0482132)
(0.0204341 -0.017656 -0.037891)
(0.0175877 -0.0196867 -0.0264291)
(0.0155876 -0.0253388 0.00653927)
(0.0116666 -0.0219205 -0.160691)
(0.0146211 -0.019922 -0.13924)
(0.0180376 -0.0189132 -0.115072)
(0.0213718 -0.0183312 -0.0935639)
(0.024415 -0.0184774 -0.0745499)
(0.0250516 -0.0180412 -0.0648377)
(0.0228369 -0.0171446 -0.054171)
(0.0205258 -0.017781 -0.044569)
(0.0182788 -0.0201049 -0.0344162)
(0.0169527 -0.0261711 -0.00457159)
(0.00945339 -0.0192166 -0.176633)
(0.0123888 -0.0176188 -0.151612)
(0.0159091 -0.0167785 -0.125988)
(0.0190767 -0.0160861 -0.103994)
(0.0216138 -0.0158994 -0.0864505)
(0.0226426 -0.0157546 -0.0721476)
(0.022002 -0.0159405 -0.0617232)
(0.0208157 -0.0172879 -0.052027)
(0.0193918 -0.020059 -0.0417791)
(0.0188812 -0.0267127 -0.0124617)
(0.00794501 -0.0162054 -0.197199)
(0.0107018 -0.0149364 -0.168482)
(0.0142426 -0.0142502 -0.141683)
(0.0174387 -0.0135915 -0.118941)
(0.0199393 -0.0133354 -0.100415)
(0.0214234 -0.0135631 -0.0848156)
(0.021871 -0.014478 -0.0719326)
(0.0216262 -0.0163893 -0.0607914)
(0.0210433 -0.0195865 -0.0492725)
(0.021485 -0.0268537 -0.0180408)
(0.0074148 -0.0129005 -0.222308)
(0.009717 -0.0118935 -0.188968)
(0.013145 -0.0113544 -0.161759)
(0.01647 -0.0108659 -0.137704)
(0.0192831 -0.0108095 -0.11736)
(0.0213228 -0.0113801 -0.099592)
(0.0225715 -0.0127654 -0.0838909)
(0.0231983 -0.0150899 -0.0700244)
(0.0236196 -0.0187442 -0.0551954)
(0.0255432 -0.0268059 -0.019601)
(0.00984933 -0.0102681 -0.267671)
(0.0110839 -0.00932855 -0.217133)
(0.0141782 -0.00884536 -0.184647)
(0.0176534 -0.00849093 -0.155966)
(0.0209993 -0.00863947 -0.130748)
(0.0238699 -0.00949141 -0.107631)
(0.0262232 -0.011225 -0.0858972)
(0.0280824 -0.0139449 -0.0651633)
(0.0299441 -0.0185026 -0.0424345)
(0.0338782 -0.0278619 0.00116316)
(0.0180598 -0.00552316 -0.134039)
(0.0229489 -0.0122619 -0.109826)
(0.0264535 -0.0144412 -0.0825439)
(0.0277675 -0.0145505 -0.0548395)
(0.0270922 -0.0138054 -0.0264838)
(0.0247803 -0.0132254 0.00462879)
(0.0209787 -0.013588 0.0399994)
(0.0159578 -0.0154802 0.0809654)
(0.00996862 -0.0198158 0.132226)
(0.00445068 -0.0306656 0.243223)
(0.0183255 -0.00417002 -0.147787)
(0.0223329 -0.0108756 -0.128987)
(0.0254207 -0.0140172 -0.104154)
(0.026884 -0.0149726 -0.0795427)
(0.0267712 -0.014905 -0.0557885)
(0.0251796 -0.014784 -0.0314504)
(0.0221865 -0.0153841 -0.00573768)
(0.0179769 -0.0172758 0.0222121)
(0.0127841 -0.0209688 0.0562214)
(0.00793036 -0.0298229 0.136057)
(0.0178784 -0.00338177 -0.159243)
(0.0216065 -0.0107416 -0.137748)
(0.0247449 -0.014563 -0.111463)
(0.0266004 -0.0160984 -0.0870441)
(0.0271392 -0.0165893 -0.0646136)
(0.0261129 -0.0168535 -0.0427104)
(0.0235585 -0.0175792 -0.0212992)
(0.0198268 -0.0194577 0.00157486)
(0.0151493 -0.0228796 0.0285447)
(0.0110151 -0.0309839 0.0918756)
(0.0166744 -0.00206213 -0.170154)
(0.0199891 -0.0100471 -0.145741)
(0.023213 -0.0144099 -0.118063)
(0.0257061 -0.0166107 -0.0928589)
(0.027331 -0.0179294 -0.0712079)
(0.0269145 -0.0186824 -0.0505817)
(0.0243907 -0.0192885 -0.0324336)
(0.0209939 -0.0210842 -0.0127335)
(0.0169087 -0.0244121 0.00957165)
(0.0134748 -0.0321983 0.0611118)
(0.0153801 -6.36614e-05 -0.182877)
(0.0180632 -0.00865755 -0.155872)
(0.0213038 -0.0135138 -0.126783)
(0.0245858 -0.016501 -0.0998646)
(0.0277286 -0.0190307 -0.0767086)
(0.0280695 -0.0202266 -0.0632467)
(0.0251156 -0.0204015 -0.0423487)
(0.0218425 -0.0219975 -0.0251383)
(0.0184153 -0.025361 -0.00665603)
(0.0157516 -0.0331241 0.0366878)
(0.0145263 0.00238394 -0.197542)
(0.0163158 -0.00677723 -0.168256)
(0.0192728 -0.0119454 -0.138297)
(0.0226523 -0.015195 -0.110861)
(0.0260694 -0.017968 -0.085105)
(0.0270681 -0.0195961 -0.0705333)
(0.0247987 -0.0201263 -0.0537705)
(0.022349 -0.0220166 -0.0377105)
(0.0197712 -0.0256351 -0.0212775)
(0.0179712 -0.0336273 0.0171085)
(0.014551 0.00525232 -0.215014)
(0.0152163 -0.00447738 -0.183553)
(0.0175422 -0.00981957 -0.153099)
(0.0203562 -0.0129544 -0.125735)
(0.0230335 -0.0152826 -0.102701)
(0.0243368 -0.0169922 -0.082431)
(0.0238507 -0.01859 -0.0663421)
(0.0227499 -0.0212297 -0.0509755)
(0.0212149 -0.0252802 -0.035166)
(0.0204011 -0.0337004 0.00118043)
(0.0159452 0.00850542 -0.236972)
(0.015284 -0.00173085 -0.203186)
(0.0168205 -0.00721935 -0.172793)
(0.0191119 -0.0103735 -0.145491)
(0.0213729 -0.0125713 -0.121845)
(0.0229562 -0.0145026 -0.100687)
(0.0236145 -0.0167866 -0.0822993)
(0.0235529 -0.0199776 -0.0659061)
(0.0229728 -0.0244165 -0.0494023)
(0.0232011 -0.0332715 -0.0124234)
(0.0197584 0.0122191 -0.263178)
(0.0173043 0.00147033 -0.225827)
(0.0178037 -0.00416168 -0.196627)
(0.0195153 -0.00745832 -0.169169)
(0.0215439 -0.00985568 -0.144401)
(0.0233131 -0.0121016 -0.1216)
(0.0245523 -0.0148482 -0.100713)
(0.0252367 -0.0184471 -0.0818625)
(0.025604 -0.0233346 -0.0623319)
(0.027334 -0.0327581 -0.0220568)
(0.0295459 0.0159527 -0.313146)
(0.024551 0.00420428 -0.258366)
(0.0234375 -0.00177757 -0.225258)
(0.0241607 -0.00516286 -0.19433)
(0.0257459 -0.00774696 -0.165439)
(0.0276133 -0.010283 -0.137665)
(0.0294245 -0.013419 -0.110819)
(0.0309556 -0.0174843 -0.0849663)
(0.0325097 -0.0233518 -0.0572896)
(0.0359346 -0.033906 -0.00994037)
(-0.0136884 0.0351999 -0.203859)
(-0.0049862 0.0153128 -0.146809)
(0.00130323 0.00489102 -0.0971404)
(0.00463354 -0.00126182 -0.0510833)
(0.00546869 -0.00539584 -0.00732846)
(0.00419622 -0.00876514 0.0369923)
(0.00123197 -0.0124911 0.0839456)
(-0.00289238 -0.017268 0.135296)
(-0.00777785 -0.024228 0.196342)
(-0.0123461 -0.0373998 0.326899)
(-0.00225689 0.0337135 -0.200663)
(0.00491125 0.0147144 -0.157928)
(0.0101976 0.00419723 -0.117303)
(0.0130818 -0.00236697 -0.0794871)
(0.0138344 -0.00675777 -0.0442684)
(0.0127323 -0.0101513 -0.00973644)
(0.0100895 -0.0136215 0.0251288)
(0.00628077 -0.0178136 0.061364)
(0.00172749 -0.0233501 0.102916)
(-0.00213749 -0.0339348 0.196445)
(0.0046377 0.033788 -0.206254)
(0.0105532 0.0145749 -0.165181)
(0.0153204 0.00363626 -0.126039)
(0.0181318 -0.0033432 -0.0907929)
(0.0190961 -0.00807407 -0.0588223)
(0.0182215 -0.0116908 -0.0280298)
(0.0157346 -0.0150953 0.00149383)
(0.0120943 -0.0190218 0.0320609)
(0.00772311 -0.0239266 0.0661713)
(0.00435837 -0.0332422 0.14086)
(0.00898031 0.0350533 -0.212852)
(0.0137568 0.0155683 -0.172743)