/*--------------------------------*- C++ -*----------------------------------*\
| =========                 |                                                 |
| \\      /  F ield         | OpenFOAM: The Open Source CFD Toolbox           |
|  \\    /   O peration     | Version:  2406                                  |
|   \\  /    A nd           | Website:  www.openfoam.com                      |
|    \\/     M anipulation  |                                                 |
\*---------------------------------------------------------------------------*/
FoamFile
{
    version     2.0;
    format      ascii;
    arch        "LSB;label=32;scalar=64";
    class       volScalarField;
    location    "0.8";
    object      nu;
}
// * * * * * * * * * * * * * * * * * * * * * * * * * * * * * * * * * * * * * //

dimensions      [0 2 -1 0 0 0 0];

internalField   nonuniform List<scalar> 
25000
(
0.00649272
0.00656646
0.00659852
0.00660474
0.00660286
0.00660285
0.00660472
0.00659849
0.00656644
0.00649275
0.00656645
0.00659289
0.00658071
0.00656709
0.00655973
0.00655972
0.00656706
0.00658067
0.00659285
0.00656645
0.00659853
0.00658073
0.006556
0.00654109
0.00653508
0.00653507
0.00654107
0.00655595
0.00658068
0.00659851
0.00660477
0.00656712
0.00654111
0.00652934
0.00652585
0.00652584
0.00652932
0.00654107
0.00656707
0.00660473
0.00660291
0.00655978
0.00653512
0.00652587
0.00652402
0.00652401
0.00652584
0.00653508
0.00655973
0.00660286
0.00660291
0.00655978
0.00653512
0.00652588
0.00652403
0.00652402
0.00652585
0.00653508
0.00655973
0.00660286
0.00660479
0.00656714
0.00654114
0.00652937
0.00652588
0.00652587
0.00652934
0.00654109
0.00656709
0.00660475
0.00659856
0.00658077
0.00655604
0.00654114
0.00653513
0.00653512
0.00654111
0.00655599
0.00658071
0.00659852
0.00656647
0.00659294
0.00658077
0.00656715
0.00655979
0.00655978
0.00656712
0.00658073
0.0065929
0.00656647
0.00649269
0.00656647
0.00659857
0.0066048
0.00660292
0.00660291
0.00660477
0.00659853
0.00656646
0.00649274
0.00616057
0.00633637
0.00655052
0.00671959
0.00680851
0.00680861
0.0067199
0.00655105
0.006337
0.00616119
0.00633635
0.00671112
0.00697614
0.00708591
0.007114
0.00711394
0.00708584
0.00697633
0.00671169
0.00633699
0.00655046
0.0069761
0.00713365
0.00711556
0.00708464
0.00708453
0.00711525
0.00713337
0.00697634
0.00655104
0.00671945
0.00708592
0.00711565
0.00704261
0.00699762
0.00699751
0.0070423
0.00711523
0.00708585
0.00671993
0.00680828
0.00711411
0.00708488
0.00699776
0.0069509
0.00695079
0.00699746
0.00708445
0.00711391
0.00680869
0.00680825
0.00711412
0.00708492
0.00699781
0.00695095
0.00695084
0.00699752
0.0070845
0.00711394
0.00680866
0.00671936
0.00708592
0.00711575
0.00704275
0.00699777
0.00699766
0.00704245
0.00711537
0.0070859
0.00671984
0.00655034
0.00697603
0.00713374
0.00711574
0.00708486
0.00708475
0.00711547
0.00713352
0.0069763
0.00655088
0.00633623
0.00671098
0.00697606
0.00708595
0.00711412
0.00711407
0.00708591
0.00697626
0.0067115
0.00633678
0.00616047
0.00633623
0.00655036
0.00671942
0.00680835
0.00680845
0.0067197
0.00655081
0.00633676
0.00616097
0.00583419
0.0059058
0.00604049
0.006167
0.00624339
0.00624386
0.00616825
0.00604219
0.00590762
0.0058359
0.00590584
0.00614374
0.00638722
0.00658241
0.0066925
0.00669307
0.00658394
0.00638927
0.00614582
0.00590761
0.00604046
0.00638708
0.00673471
0.00699938
0.00713478
0.0071354
0.00700112
0.00673704
0.00638933
0.00604222
0.0061667
0.00658189
0.00699891
0.00729495
0.0074214
0.00742196
0.00729664
0.00700132
0.00658418
0.00616841
0.00624262
0.00669136
0.00713359
0.00742072
0.00752248
0.00752296
0.00742225
0.00713592
0.00669362
0.00624427
0.00624253
0.00669123
0.00713341
0.00742053
0.00752229
0.00752277
0.00742203
0.0071357
0.00669342
0.00624412
0.00616648
0.00658157
0.00699845
0.0072944
0.00742083
0.00742136
0.00729599
0.00700069
0.00658366
0.00616801
0.00604021
0.0063867
0.00673416
0.00699867
0.00713395
0.0071345
0.00700019
0.00673619
0.00638863
0.00604167
0.00590565
0.00614344
0.00638679
0.00658183
0.00669177
0.00669224
0.00658308
0.00638845
0.0061451
0.00590701
0.00583409
0.00590565
0.00604026
0.00616666
0.00624292
0.00624328
0.00616762
0.00604156
0.00590701
0.00583534
0.00580566
0.00584158
0.00594427
0.0060468
0.00611099
0.00611189
0.0060492
0.00594753
0.0058451
0.00580895
0.00584172
0.00602213
0.00621722
0.00638535
0.00648783
0.00648903
0.0063884
0.00622113
0.00602608
0.00584511
0.0059443
0.006217
0.00651255
0.00678108
0.00695534
0.00695713
0.00678527
0.0065173
0.0062213
0.00594766
0.00604634
0.00638441
0.00678005
0.00719712
0.0075254
0.00752875
0.00720335
0.00678579
0.00638896
0.00604962
0.00610961
0.00648558
0.00695213
0.0075216
0.00811244
0.00811942
0.00753044
0.00695867
0.00649025
0.0061128
0.00610938
0.00648525
0.00695158
0.00752042
0.00810968
0.00811651
0.00752908
0.00695799
0.00648983
0.00611249
0.00604574
0.00638362
0.00677883
0.00719504
0.00752207
0.00752521
0.00720089
0.00678422
0.00638788
0.00604881
0.00594358
0.0062161
0.00651132
0.00677936
0.00695308
0.00695468
0.00678311
0.00651557
0.00621994
0.00594657
0.00584106
0.00602136
0.00621629
0.0063842
0.00648644
0.00648745
0.00638681
0.00621964
0.00602475
0.00584396
0.00580519
0.00584111
0.00594377
0.00604621
0.00611024
0.00611098
0.00604817
0.00594644
0.00584402
0.00580792
0.0057728
0.00579301
0.005881
0.00597219
0.00603059
0.00603211
0.00597625
0.0058865
0.00579894
0.00577828
0.00579318
0.00594733
0.00611816
0.00626938
0.00636452
0.00636659
0.00627464
0.00612486
0.0059541
0.00579902
0.00588092
0.00611773
0.00637959
0.00662896
0.00680181
0.00680511
0.00663644
0.00638788
0.00612522
0.00588686
0.00597117
0.0062676
0.00662703
0.00704088
0.0074215
0.00742909
0.00705298
0.00663746
0.00627575
0.00597716
0.00602782
0.00636025
0.00679565
0.00741313
0.00836682
0.00839581
0.00743288
0.0068081
0.00636888
0.00603385
0.00602716
0.00635942
0.00679438
0.00741021
0.0083554
0.00838368
0.00742974
0.00680677
0.00636807
0.00603325
0.00596942
0.00626552
0.0066242
0.00703632
0.00741384
0.00742118
0.00704812
0.00663451
0.00627372
0.0059756
0.00587858
0.00611513
0.00637655
0.00662522
0.00679727
0.00680045
0.00663247
0.00638473
0.0061227
0.00588479
0.00579066
0.00594474
0.00611553
0.00626665
0.00636166
0.00636364
0.00627177
0.00612217
0.00595164
0.00579684
0.00577036
0.00579076
0.00587901
0.00597038
0.00602884
0.00603031
0.00597435
0.00588452
0.00579694
0.00577635
0.00577377
0.00578916
0.00587212
0.0059593
0.00601587
0.00601812
0.00596527
0.00588016
0.00579774
0.00578144
0.00578928
0.00593423
0.00609537
0.00623939
0.00633157
0.00633476
0.00624746
0.00610554
0.0059444
0.00579784
0.0058716
0.00609445
0.00634126
0.00658007
0.0067501
0.00675541
0.00659196
0.00635431
0.00610612
0.00588072
0.00595708
0.00623603
0.00657662
0.00697868
0.00736485
0.0073779
0.00699871
0.00659361
0.00624921
0.00596665
0.00601069
0.00632392
0.00673929
0.0073501
0.00838086
0.00843917
0.00738425
0.00676017
0.00633826
0.00602065
0.00600932
0.0063222
0.00673675
0.00734443
0.00835701
0.00841336
0.00737845
0.00675778
0.00633679
0.00601956
0.00595337
0.00623161
0.00657082
0.00696978
0.00735031
0.00736323
0.00698996
0.0065883
0.00624549
0.00596377
0.0058664
0.00608865
0.00633468
0.00657233
0.00674119
0.00674663
0.00658469
0.00634855
0.00610145
0.00587683
0.00578332
0.00592802
0.00608911
0.00623315
0.00632541
0.00632882
0.00624191
0.00610044
0.00593973
0.00579367
0.00576769
0.00578326
0.00586671
0.00595445
0.0060115
0.00601404
0.00596129
0.00587619
0.00579377
0.00577762
0.00576623
0.00577891
0.0058597
0.00594544
0.00600175
0.00600501
0.00595413
0.0058715
0.00579167
0.0057777
0.00577885
0.00591942
0.00607669
0.00621814
0.00630984
0.00631456
0.00623013
0.00609186
0.00593465
0.00579168
0.00585823
0.00607488
0.00631545
0.00654993
0.00671955
0.00672763
0.00656798
0.00633522
0.00609254
0.00587205
0.00594108
0.00621218
0.00654409
0.00693948
0.00732682
0.0073473
0.00697048
0.00657022
0.00623233
0.00595567
0.00599285
0.00629706
0.00670186
0.00730297
0.00834391
0.00843983
0.00735655
0.00673418
0.00631903
0.0060079
0.00599084
0.00629436
0.00669768
0.00729346
0.00830288
0.00839296
0.00734636
0.00672995
0.00631638
0.00600592
0.0059356
0.00620514
0.00653443
0.00692424
0.00730155
0.00732145
0.006955
0.0065607
0.00622555
0.00595034
0.00585047
0.00606553
0.00630422
0.00653619
0.00670336
0.00671156
0.00655463
0.00632456
0.00608378
0.00586466
0.00576993
0.00590935
0.00606578
0.00620659
0.00629798
0.006303
0.00621934
0.00608194
0.00592553
0.00578345
0.0057574
0.00576947
0.00585015
0.00593608
0.00599278
0.00599642
0.00594579
0.00586326
0.00578351
0.00576986
0.00576458
0.00577668
0.00585742
0.00594365
0.00600109
0.00600587
0.00595648
0.00587504
0.00579601
0.00578221
0.00577641
0.00591543
0.00607166
0.00621313
0.00630622
0.00631315
0.00623079
0.00609414
0.00593815
0.00579578
0.00585466
0.00606866
0.00630683
0.00654051
0.00671224
0.00672414
0.00656707
0.00633592
0.00609469
0.00587519
0.00593642
0.00620371
0.00653149
0.00692425
0.00731529
0.00734563
0.00696982
0.00656967
0.006233
0.00595762
0.00598753
0.00628696
0.00668572
0.00727976
0.00831956
0.00846256
0.00735769
0.00673212
0.00631804
0.00600851
0.00598556
0.00628386
0.00668031
0.00726622
0.0082576
0.00838431
0.00734069
0.00672508
0.00631364
0.00600526
0.00593108
0.00619571
0.00651904
0.00690251
0.00727634
0.00730347
0.00694403
0.00655374
0.00622171
0.00594887
0.00584729
0.00605825
0.00629258
0.00652099
0.00668713
0.00669778
0.00654464
0.00631795
0.00608003
0.00586304
0.00576835
0.00590477
0.00605833
0.00619705
0.0062879
0.00629407
0.00621248
0.00607729
0.00592284
0.00578221
0.00575763
0.0057677
0.00584654
0.00593115
0.00598744
0.00599167
0.00594219
0.00586096
0.00578233
0.00576941
0.00575864
0.00577023
0.00585155
0.00593916
0.00599858
0.00600534
0.0059573
0.00587639
0.00579731
0.005783
0.00577003
0.00590804
0.00606435
0.00620716
0.00630283
0.0063126
0.00623203
0.00609591
0.00593973
0.00579675
0.00584776
0.00606015
0.00629752
0.00653213
0.00670761
0.00672434
0.00656933
0.00633804
0.00609615
0.0058759
0.00592923
0.00619412
0.00651964
0.00691162
0.00730822
0.00735056
0.00697468
0.006572
0.00623388
0.00595767
0.00598057
0.00627688
0.00667158
0.00725994
0.00829701
0.00849425
0.00736502
0.00673331
0.00631756
0.00600748
0.00597954
0.00627448
0.0066662
0.00724384
0.0082155
0.0083768
0.0073393
0.0067228
0.0063112
0.00600297
0.00592657
0.0061881
0.00650754
0.00688625
0.0072566
0.00728962
0.00693632
0.00654849
0.00621768
0.00594562
0.00584453
0.00605292
0.00628445
0.00651026
0.00667523
0.0066873
0.00653672
0.00631204
0.0060755
0.00585946
0.0057674
0.00590183
0.00605341
0.00619044
0.00628042
0.00628684
0.0062063
0.00607226
0.00591879
0.00577894
0.00575849
0.00576708
0.00584446
0.00592775
0.00598318
0.00598722
0.00593811
0.00585748
0.00577948
0.00576704
0.00575512
0.00576581
0.00584735
0.00593615
0.00599745
0.00600602
0.00595888
0.00587785
0.00579802
0.0057826
0.00576628
0.00590309
0.00605929
0.00620338
0.00630169
0.00631423
0.006235
0.00609866
0.00594147
0.00579719
0.00584391
0.00605465
0.00629124
0.00652688
0.00670629
0.00672793
0.0065745
0.00634213
0.00609859
0.00587683
0.0059256
0.00618832
0.00651186
0.00690331
0.00730546
0.00735995
0.00698345
0.0065771
0.00623646
0.00595865
0.0059778
0.00627159
0.00666298
0.00724652
0.00828016
0.00852957
0.00737639
0.00673765
0.00631927
0.00600791
0.00597838
0.00627093
0.00665919
0.00723066
0.00818698
0.00837474
0.00734199
0.00672383
0.00631123
0.00600245
0.00592746
0.00618709
0.00650399
0.00687952
0.00724709
0.00728323
0.00693347
0.00654679
0.00621628
0.00594428
0.00584744
0.00605446
0.00628426
0.00650825
0.00667182
0.00668372
0.00653383
0.0063098
0.00607365
0.00585781
0.00577199
0.00590548
0.00605585
0.00619153
0.00628024
0.00628578
0.00620488
0.00607078
0.00591733
0.00577746
0.00576419
0.00577217
0.00584871
0.00593089
0.0059851
0.00598804
0.00593817
0.00585709
0.00577878
0.00576604
0.00575352
0.0057627
0.00584338
0.00593216
0.00599421
0.0060037
0.00595693
0.00587553
0.00579497
0.00577884
0.0057644
0.00589948
0.00605464
0.0061988
0.00629845
0.00631273
0.00623423
0.00609739
0.00593918
0.005794
0.00584213
0.00605089
0.00628596
0.00652141
0.00670305
0.00672817
0.00657579
0.00634226
0.00609714
0.00587425
0.00592434
0.00618492
0.00650619
0.00689612
0.00730101
0.00736428
0.00698766
0.0065783
0.00623543
0.00595639
0.00597774
0.0062695
0.00665809
0.00723753
0.00826625
0.00855017
0.00738209
0.00673827
0.00631774
0.0060054
0.00598019
0.00627124
0.00665727
0.00722525
0.0081742
0.00837342
0.00734154
0.00672195
0.00630843
0.0059992
0.00593139
0.00619016
0.00650575
0.00687967
0.00724526
0.00728029
0.00693014
0.00654316
0.00621239
0.00594026
0.00585317
0.00605975
0.00628868
0.00651142
0.00667313
0.00668274
0.0065311
0.00630608
0.0060694
0.00585336
0.0057789
0.0059121
0.00606173
0.0061962
0.00628305
0.0062863
0.00620331
0.00606771
0.00591328
0.00577292
0.00577132
0.00577909
0.00585502
0.0059361
0.00598859
0.0059894
0.00593745
0.00585469
0.00577513
0.00576167
0.00575507
0.00576304
0.00584224
0.00592983
0.00599125
0.00600058
0.00595367
0.005872
0.00579117
0.00577507
0.00576581
0.00589948
0.006053
0.00619585
0.00629499
0.00630943
0.006231
0.00609382
0.00593525
0.0057901
0.005844
0.00605116
0.00628426
0.00651799
0.00669914
0.00672513
0.00657317
0.0063391
0.00609339
0.00587047
0.00592713
0.00618621
0.00650531
0.00689272
0.00729612
0.00736157
0.00698566
0.00657532
0.00623168
0.00595263
0.00598199
0.00627275
0.00665967
0.00723669
0.00826064
0.00854639
0.00737912
0.00673444
0.00631343
0.00600127
0.00598621
0.00627705
0.0066626
0.00723075
0.00818283
0.00837146
0.00733632
0.00671661
0.00630312
0.00599434
0.00593896
0.00619812
0.00651381
0.0068878
0.00725196
0.00728044
0.00692563
0.00653734
0.00620635
0.00593465
0.0058616
0.00606879
0.00629766
0.00651957
0.00667869
0.0066837
0.00652795
0.00630072
0.00606319
0.00584728
0.00578738
0.00592109
0.00607041
0.00620365
0.00628796
0.00628756
0.00620106
0.00606299
0.00590724
0.00576668
0.00577883
0.00578695
0.00586249
0.0059424
0.00599272
0.00599056
0.00593562
0.00585048
0.00576941
0.00575552
0.00575714
0.00576489
0.00584296
0.00592906
0.00598911
0.00599754
0.00595025
0.0058686
0.00578809
0.00577278
0.00576787
0.00590121
0.00605344
0.00619446
0.00629182
0.0063051
0.00622625
0.00608917
0.00593108
0.00578698
0.00584673
0.00605352
0.00628517
0.00651657
0.006695
0.0067192
0.00656702
0.0063334
0.00608842
0.00586671
0.00593105
0.0061901
0.00650811
0.00689306
0.00729149
0.00735164
0.006977
0.00656829
0.00622587
0.00594825
0.00598744
0.00627893
0.00666619
0.0072437
0.00826564
0.00851631
0.00736607
0.00672583
0.00630669
0.00599622
0.00599301
0.00628541
0.00667281
0.00724538
0.00821097
0.00836358
0.00732462
0.00670742
0.00629569
0.00598867
0.00594635
0.00620741
0.0065249
0.00690074
0.0072637
0.00728053
0.00691844
0.00652907
0.00619881
0.00592863
0.00586861
0.00607755
0.00630742
0.00652905
0.0066851
0.006684
0.00652311
0.0062937
0.00605603
0.00584128
0.00579323
0.00592837
0.00607804
0.00621032
0.00629188
0.00628741
0.00619718
0.00605696
0.00590066
0.00576098
0.00578297
0.00579214
0.00586771
0.00594668
0.00599491
0.00598985
0.00593217
0.00584526
0.00576356
0.00575034
0.00575802
0.00576662
0.0058445
0.00592968
0.00598846
0.00599582
0.00594814
0.00586677
0.00578703
0.00577297
0.00576877
0.00590297
0.00605494
0.00619464
0.00628999
0.00630153
0.00622209
0.00608552
0.00592863
0.00578621
0.00584825
0.00605603
0.00628748
0.00651712
0.00669203
0.00671279
0.00655997
0.00632767
0.00608458
0.00586496
0.00593366
0.00619418
0.00651281
0.00689661
0.00728879
0.00733823
0.00696498
0.0065601
0.00622068
0.0059456
0.00599125
0.00628509
0.00667497
0.0072564
0.00828073
0.0084702
0.00734713
0.00671563
0.00630054
0.00599296
0.0059975
0.00629291
0.00668441
0.00726512
0.00825174
0.0083488
0.00730951
0.00669768
0.00628947
0.00598528
0.00595042
0.00621452
0.00653537
0.00691467
0.00727687
0.00727979
0.00691068
0.00652158
0.00619337
0.00592565
0.00587131
0.00608286
0.00631477
0.006537
0.00669044
0.00668362
0.00651852
0.00628822
0.00605168
0.00583904
0.00579415
0.00593139
0.00608222
0.00621433
0.00629396
0.00628643
0.00619381
0.00605289
0.00589738
0.00575957
0.00578214
0.00579295
0.00586926
0.00594808
0.00599514
0.0059884
0.00592944
0.00584226
0.00576129
0.00574972
0.0057571
0.00576687
0.00584531
0.00593033
0.00598827
0.00599471
0.00594667
0.00586573
0.00578694
0.00577416
0.00576773
0.00590326
0.00605583
0.00619508
0.00628886
0.00629867
0.00621866
0.0060829
0.00592753
0.00578687
0.00584744
0.00605682
0.00628919
0.00651818
0.00668993
0.00670681
0.00655331
0.00632294
0.00608241
0.00586511
0.00593336
0.00619606
0.00651666
0.00690094
0.0072874
0.00732441
0.00695276
0.006553
0.00621759
0.00594541
0.00599142
0.00628819
0.00668209
0.00726968
0.00829924
0.00842176
0.00732819
0.00670729
0.00629732
0.00599293
0.0059975
0.00629627
0.00669287
0.00728324
0.00829307
0.00833222
0.00729631
0.00669118
0.00628728
0.00598608
0.00594933
0.00621652
0.00654136
0.00692502
0.00728765
0.00727913
0.00690564
0.00651825
0.00619283
0.00592767
0.00586859
0.00608265
0.00631713
0.00654097
0.00669349
0.00668343
0.0065166
0.00628714
0.00605265
0.00584224
0.00578987
0.0059291
0.00608165
0.00621468
0.0062941
0.00628576
0.00619301
0.00605314
0.00589946
0.0057637
0.0057769
0.00578926
0.00586686
0.00594654
0.00599396
0.00598744
0.00592914
0.0058433
0.00576411
0.00575446
0.00575605
0.00576647
0.00584541
0.00593037
0.00598753
0.00599284
0.00594409
0.00586317
0.00578488
0.00577279
0.00576637
0.00590271
0.00605593
0.00619503
0.00628745
0.00629545
0.00621464
0.00607943
0.00592525
0.00578577
0.00584578
0.00605632
0.00628981
0.00651873
0.00668782
0.00670091
0.00654671
0.0063183
0.00608016
0.00586471
0.0059314
0.00619575
0.00651853
0.00690402
0.00728578
0.00731159
0.00694191
0.00654744
0.00621595
0.00594614
0.00598894
0.00628788
0.0066855
0.00727901
0.00831262
0.00838146
0.00731391
0.0067027
0.00629736
0.0059954
0.00599405
0.0062951
0.00669592
0.00729448
0.00832408
0.00832315
0.00729015
0.00669041
0.00628996
0.00599074
0.00594456
0.00621366
0.00654169
0.00692946
0.00729454
0.00728116
0.00690651
0.00652117
0.00619802
0.00593437
0.00586261
0.00607808
0.00631473
0.00654084
0.00669477
0.00668519
0.00651944
0.00629194
0.00605944
0.00585038
0.00578321
0.00592345
0.0060776
0.00621241
0.00629353
0.00628696
0.00619628
0.00605867
0.00590704
0.00577259
0.00577029
0.00578344
0.00586233
0.00594359
0.00599282
0.00598837
0.00593241
0.00584893
0.00577183
0.00576346
0.00575736
0.00576747
0.00584606
0.0059302
0.00598578
0.00598907
0.00593865
0.0058568
0.00577813
0.00576592
0.00576726
0.00590342
0.00605646
0.00619472
0.00628508
0.00629044
0.00620797
0.00607244
0.00591857
0.00577949
0.00584595
0.00605665
0.00629049
0.00651883
0.00668485
0.0066937
0.00653823
0.00631109
0.00607455
0.00586016
0.00593056
0.00619543
0.00651943
0.0069055
0.00728255
0.0072989
0.00693117
0.00654118
0.00621264
0.00594425
0.00598673
0.00628638
0.00668608
0.00728309
0.00831586
0.00835128
0.00730441
0.00670026
0.0062979
0.00599702
0.0059903
0.00629189
0.00669473
0.00729789
0.0083413
0.00832783
0.00729209
0.00669418
0.00629501
0.00599602
0.0059396
0.00620888
0.00653832
0.00692895
0.00729857
0.00728788
0.00691385
0.00652919
0.00620647
0.00594249
0.00585715
0.00607254
0.00631023
0.00653856
0.00669586
0.00669001
0.0065271
0.00630132
0.00606954
0.00586008
0.00577799
0.005918
0.00607304
0.00620979
0.00629387
0.00629082
0.00620335
0.00606804
0.00591754
0.00578284
0.00576585
0.00577879
0.00585847
0.00594137
0.00599311
0.00599173
0.00593877
0.00585761
0.00578185
0.00577337
0.00576254
0.00577182
0.00584912
0.00593135
0.00598423
0.00598444
0.0059315
0.00584813
0.0057688
0.0057566
0.00577207
0.00590749
0.00605938
0.0061956
0.0062826
0.00628409
0.00619889
0.00606227
0.00590827
0.00576964
0.00584996
0.00606016
0.00629333
0.00651984
0.00668149
0.00668492
0.00652716
0.00630041
0.00606487
0.00585145
0.00593325
0.00619785
0.00652186
0.00690703
0.00727801
0.00728501
0.00691856
0.00653197
0.0062055
0.00593814
0.00598763
0.00628696
0.00668701
0.00728475
0.00831117
0.00832562
0.00729584
0.00669638
0.00629543
0.00599478
0.00598945
0.00629036
0.00669317
0.00729772
0.00835131
0.00834441
0.00729807
0.00669816
0.00629797
0.00599784
0.00593777
0.00620608
0.00653526
0.00692731
0.00730263
0.00729884
0.00692451
0.00653787
0.00621322
0.0059472
0.00585533
0.00606968
0.00630725
0.00653713
0.00669836
0.00669727
0.00653672
0.00631086
0.00607767
0.005866
0.00577684
0.00591586
0.00607091
0.00620906
0.006296
0.00629639
0.00621134
0.00607671
0.0059254
0.00578867
0.0057655
0.00577761
0.00585737
0.00594134
0.00599514
0.00599625
0.00594519
0.00586471
0.00578835
0.0057781
0.00577113
0.00577993
0.00585571
0.00593551
0.00598511
0.0059819
0.00592634
0.00584164
0.00576202
0.00575057
0.0057805
0.00591557
0.00606603
0.00619951
0.00628227
0.00627911
0.00619071
0.00605283
0.00589893
0.00576146
0.00585777
0.00606778
0.00629992
0.00652376
0.00667983
0.00667666
0.0065157
0.00628882
0.00605431
0.00584243
0.00593986
0.00620443
0.00652803
0.00691138
0.00727475
0.0072706
0.0069041
0.00652017
0.00619563
0.00592977
0.00599256
0.00629169
0.00669161
0.00728922
0.00830769
0.00829734
0.00728378
0.00668841
0.00628861
0.00598853
0.00599271
0.00629299
0.00669523
0.00730051
0.00836538
0.00836102
0.0073005
0.00669727
0.00629537
0.00599422
0.00594006
0.00620744
0.00653583
0.00692854
0.00730884
0.00730985
0.00693214
0.00654135
0.0062135
0.00594526
0.00585746
0.00607082
0.00630773
0.00653825
0.00670212
0.00670376
0.00654298
0.0063147
0.00607851
0.00586422
0.0057792
0.00591727
0.0060718
0.00621037
0.0062987
0.00630044
0.0062153
0.00607899
0.00592515
0.00578588
0.00576796
0.00577918
0.00585848
0.00594259
0.00599702
0.0059986
0.00594703
0.00586487
0.00578614
0.00577356
0.00577923
0.00578881
0.00586396
0.00594202
0.00598893
0.00598285
0.00592518
0.00583952
0.00575993
0.0057496
0.00578913
0.00592513
0.00607502
0.00620631
0.00628522
0.00627771
0.0061863
0.00604737
0.00589394
0.00575811
0.00586647
0.00607754
0.00630943
0.006531
0.00668157
0.00667155
0.006507
0.00627983
0.00604664
0.00583686
0.00594814
0.00621387
0.00653791
0.00692001
0.00727571
0.00725822
0.00689007
0.00650845
0.00618627
0.00592276
0.00599988
0.00630004
0.00670096
0.00730037
0.0083155
0.00826421
0.00726686
0.00667687
0.00627937
0.0059812
0.00599877
0.00629962
0.00670249
0.00731061
0.00839062
0.00836146
0.00729328
0.00668957
0.0062877
0.00598731
0.00594498
0.00621245
0.00654074
0.00693417
0.00731664
0.00731487
0.00693131
0.00653685
0.00620711
0.00593856
0.00586147
0.00607465
0.00631108
0.00654139
0.00670529
0.00670575
0.00654201
0.00631056
0.00607209
0.00585702
0.0057824
0.00592019
0.00607412
0.00621209
0.00629973
0.0063001
0.00621265
0.00607371
0.00591778
0.00577773
0.00577033
0.00578122
0.00585986
0.00594322
0.00599667
0.0059967
0.00594292
0.00585836
0.00577772
0.00576444
0.00578056
0.0057923
0.00586857
0.0059467
0.00599265
0.00598507
0.0059262
0.0058401
0.00576087
0.00575184
0.00579204
0.0059304
0.00608141
0.0062123
0.0062891
0.0062787
0.00618526
0.00604584
0.00589323
0.00575918
0.00587085
0.0060844
0.00631763
0.00653862
0.00668537
0.00666972
0.00650215
0.00627502
0.00604347
0.00583602
0.00595373
0.00622203
0.00654814
0.00693096
0.00728089
0.00724959
0.00687895
0.0064997
0.00618043
0.00591984
0.00600607
0.00630877
0.00671277
0.00731763
0.00833808
0.00822995
0.00724799
0.00666517
0.00627162
0.00597664
0.00600474
0.0063077
0.00671337
0.00732769
0.0084255
0.00833853
0.00727706
0.00667822
0.00627939
0.00598186
0.00594999
0.00621889
0.00654847
0.0069431
0.00732389
0.00731111
0.00692236
0.00652756
0.00619906
0.00593279
0.00586517
0.00607921
0.00631581
0.00654536
0.00670671
0.00670277
0.0065354
0.0063025
0.00606439
0.00585122
0.00578478
0.00592317
0.00607675
0.00621349
0.00629893
0.00629643
0.00620645
0.00606622
0.00591047
0.00577215
0.00577176
0.00578306
0.00586113
0.00594329
0.00599492
0.00599279
0.00593715
0.00585166
0.00577128
0.0057596
0.00577238
0.00578649
0.00586508
0.00594508
0.00599213
0.00598498
0.00592637
0.00584081
0.00576253
0.00575493
0.00578578
0.00592671
0.00608003
0.00621245
0.00628957
0.00627865
0.00618494
0.0060461
0.0058948
0.00576247
0.00586714
0.00608342
0.00631911
0.00654139
0.00668696
0.00666849
0.00649976
0.0062736
0.00604402
0.00583871
0.00595285
0.00622412
0.00655342
0.00693872
0.00728572
0.00724356
0.00687161
0.00649523
0.00617916
0.00592135
0.0060077
0.00631366
0.00672223
0.00733508
0.00836654
0.00819951
0.0072319
0.00665714
0.00626836
0.00597681
0.00600784
0.00631392
0.00672416
0.00734727
0.00846307
0.00830315
0.00725905
0.00666885
0.00627504
0.00598116
0.00595328
0.00622462
0.00655683
0.0069535
0.00733025
0.00730268
0.00691148
0.00651978
0.00619495
0.00593208
0.00586788
0.00608363
0.00632125
0.00655021
0.00670799
0.00669875
0.00652897
0.00629698
0.00606139
0.00585123
0.00578686
0.00592652
0.0060803
0.00621596
0.006299
0.0062938
0.0062025
0.00606285
0.00590905
0.00577336
0.00577362
0.0057859
0.00586382
0.00594498
0.00599498
0.00599131
0.00593514
0.00585041
0.00577176
0.00576237
0.00575967
0.00577456
0.00585483
0.005937
0.00598632
0.00598121
0.00592434
0.00584029
0.00576331
0.00575664
0.00577382
0.00591558
0.00607058
0.00620508
0.00628421
0.00627511
0.00618313
0.00604601
0.00589626
0.00576507
0.00585728
0.00607462
0.00631205
0.00653605
0.00668259
0.00666477
0.00649754
0.00627349
0.00604589
0.00584203
0.00594612
0.00621896
0.00655059
0.00693799
0.00728382
0.00723709
0.00686707
0.00649413
0.00618087
0.00592491
0.00600457
0.00631288
0.00672541
0.0073449
0.00838294
0.00817521
0.00722168
0.00665415
0.00626942
0.0059802
0.00600776
0.00631672
0.00673176
0.00736417
0.00849863
0.00827562
0.00724707
0.00666501
0.00627573
0.00598444
0.00595505
0.00622904
0.00656465
0.00696452
0.0073384
0.0072977
0.00690541
0.00651749
0.00619625
0.00593576
0.00587056
0.00608839
0.00632777
0.00655712
0.00671219
0.00669861
0.00652751
0.00629717
0.00606404
0.00585583
0.00579014
0.00593134
0.00608595
0.00622133
0.00630276
0.00629573
0.00620394
0.00606535
0.00591326
0.00577907
0.00577736
0.0057908
0.00586913
0.00594992
0.00599897
0.00599448
0.00593837
0.00585461
0.00577728
0.00576902
0.00574921
0.00576272
0.00584279
0.00592595
0.00597741
0.0059751
0.00592095
0.00583898
0.00576329
0.00575688
0.00576264
0.00590273
0.00605737
0.00619273
0.00627409
0.00626823
0.00617951
0.00604485
0.00589653
0.00576571
0.00584693
0.00606265
0.00629945
0.00652361
0.00667166
0.00665732
0.00649411
0.00627298
0.00604697
0.00584362
0.00593795
0.00620977
0.00654095
0.00692747
0.00727156
0.00722755
0.00686353
0.00649428
0.00618285
0.00592745
0.0059997
0.00630822
0.00672193
0.00734265
0.00837254
0.00815624
0.00721729
0.00665468
0.00627208
0.00598347
0.00600644
0.00631689
0.00673527
0.00737515
0.0085318
0.00827054
0.00724448
0.00666621
0.006279
0.00598825
0.00595657
0.00623258
0.00657145
0.00697564
0.00735083
0.00730162
0.00690672
0.00652018
0.00620034
0.00594013
0.00587395
0.00609362
0.00633512
0.00656606
0.00672041
0.006704
0.00653147
0.0063015
0.00606905
0.00586078
0.00579465
0.00593722
0.00609304
0.00622901
0.00630991
0.00630174
0.00620932
0.00607082
0.00591894
0.00578442
0.00578201
0.00579648
0.00587559
0.00595668
0.00600541
0.00600039
0.00594401
0.00586026
0.00578287
0.00577416
0.00574573
0.00575644
0.00583437
0.00591674
0.00596928
0.00596962
0.00591841
0.0058386
0.00576394
0.00575739
0.0057576
0.0058944
0.00604647
0.00618067
0.00626322
0.00626079
0.00617587
0.00604382
0.00589661
0.00576566
0.0058417
0.00605381
0.00628734
0.00650913
0.00665769
0.00664811
0.00649028
0.00627224
0.00604729
0.00584374
0.00593363
0.00620225
0.00652981
0.0069115
0.00725178
0.00721582
0.0068606
0.00649465
0.0061839
0.00592807
0.00599739
0.00630398
0.00671541
0.0073307
0.00833713
0.00814239
0.00721743
0.00665669
0.00627403
0.00598462
0.00600676
0.00631694
0.00673601
0.00737952
0.00855962
0.00828928
0.00724987
0.00666973
0.00628165
0.00598973
0.00595927
0.00623603
0.00657685
0.00698515
0.00736571
0.00731339
0.00691321
0.00652449
0.00620337
0.00594167
0.00587821
0.00609876
0.00634175
0.00657463
0.00672999
0.00671222
0.00653751
0.00630591
0.00607206
0.00586211
0.00579949
0.00594259
0.0060992
0.00623597
0.00631704
0.00630813
0.0062145
0.00607471
0.00592143
0.00578524
0.00578609
0.00580079
0.00588033
0.00596177
0.0060105
0.006005
0.00594777
0.00586289
0.00578417
0.00577394
0.00575033
0.00575871
0.00583398
0.00591444
0.00596681
0.00596886
0.00592004
0.00584207
0.00576828
0.00576171
0.00575988
0.005894
0.00604305
0.00617494
0.00625745
0.00625762
0.00617605
0.00604623
0.00589988
0.00576876
0.00584263
0.00605156
0.00628121
0.00649944
0.00664755
0.00664244
0.00648973
0.0062742
0.00604976
0.00584576
0.00593383
0.00619933
0.00652229
0.00689761
0.00723375
0.00720781
0.00686106
0.00649705
0.00618593
0.00592917
0.00599743
0.00630169
0.00670909
0.00731539
0.00829499
0.00813892
0.00722243
0.0066602
0.00627576
0.00598486
0.00600688
0.00631598
0.00673353
0.00737567
0.0085688
0.00832176
0.00725987
0.00667379
0.00628292
0.00598912
0.00595919
0.00623588
0.00657706
0.00698756
0.00737481
0.00732596
0.00692058
0.00652775
0.00620394
0.00594028
0.00587724
0.00609814
0.00634195
0.0065766
0.00673451
0.0067178
0.00654163
0.00630774
0.00607178
0.00586001
0.00579687
0.00594038
0.00609784
0.00623597
0.00631851
0.0063103
0.00621613
0.00607496
0.00592013
0.00578249
0.00578115
0.00579628
0.00587673
0.00595944
0.00600946
0.00600473
0.00594737
0.00586164
0.00578171
0.00577037
0.00576072
0.00576927
0.0058439
0.00592346
0.00597555
0.00597842
0.00593113
0.00585462
0.00578187
0.0057756
0.00576728
0.00590135
0.00604959
0.00618068
0.00626352
0.00626561
0.00618641
0.00605823
0.00591264
0.00578146
0.0058468
0.0060552
0.00628351
0.00650054
0.00664972
0.00664864
0.00649945
0.00628523
0.00606082
0.00585626
0.00593464
0.00619911
0.00651982
0.00689226
0.00722958
0.00721449
0.00687199
0.00650736
0.00619495
0.00593705
0.00599456
0.00629739
0.00670157
0.0073006
0.0082682
0.00816084
0.00723741
0.00666963
0.00628242
0.00598999
0.00599979
0.00630742
0.00672198
0.00735683
0.00853414
0.00835378
0.00727374
0.00668079
0.00628698
0.00599175
0.00594743
0.00622309
0.00656303
0.00697246
0.00736458
0.00732993
0.00692626
0.00653122
0.00620572
0.00594113
0.00586072
0.00608132
0.0063257