/*--------------------------------*- C++ -*----------------------------------*\
| =========                 |                                                 |
| \\      /  F ield         | OpenFOAM: The Open Source CFD Toolbox           |
|  \\    /   O peration     | Version:  2406                                  |
|   \\  /    A nd           | Website:  www.openfoam.com                      |
|    \\/     M anipulation  |                                                 |
\*---------------------------------------------------------------------------*/
FoamFile
{
    version     2.0;
    format      ascii;
    arch        "LSB;label=32;scalar=64";
    class       volScalarField;
    location    "0.8";
    object      nut;
}
// * * * * * * * * * * * * * * * * * * * * * * * * * * * * * * * * * * * * * //

dimensions      [0 2 -1 0 0 0 0];

internalField   uniform 0;

boundaryField
{
    walls
    {
        type            nutUSpaldingWallFunction;
        value           nonuniform List<scalar> 
2000
(
3.17315e-09
4.54983e-09
5.99747e-09
7.1841e-09
7.85258e-09
7.85256e-09
7.18407e-09
5.99742e-09
4.54977e-09
3.1731e-09
1.87214e-09
2.6321e-09
3.46447e-09
4.16478e-09
4.56511e-09
4.56503e-09
4.16454e-09
3.46414e-09
2.63175e-09
1.87181e-09
9.84086e-10
1.36166e-09
1.78471e-09
2.14978e-09
2.36079e-09
2.3605e-09
2.14898e-09
1.78356e-09
1.3604e-09
9.8291e-10
1.16252e-09
1.61505e-09
2.11613e-09
2.54392e-09
2.78973e-09
2.789e-09
2.5419e-09
2.11329e-09
1.612e-09
1.15977e-09
1.00423e-09
1.3893e-09
1.8191e-09
2.18798e-09
2.40033e-09
2.39893e-09
2.18414e-09
1.8137e-09
1.38355e-09
9.99072e-10
1.0627e-09
1.47107e-09
1.92456e-09
2.31213e-09
2.5343e-09
2.53172e-09
2.30498e-09
1.91438e-09
1.46e-09
1.0525e-09
1.03338e-09
1.42663e-09
1.86301e-09
2.23543e-09
2.44787e-09
2.44312e-09
2.22218e-09
1.84382e-09
1.40518e-09
1.01298e-09
1.06207e-09
1.46378e-09
1.90755e-09
2.28446e-09
2.49759e-09
2.48955e-09
2.26194e-09
1.87483e-09
1.42692e-09
1.02674e-09
1.06535e-09
1.46521e-09
1.90573e-09
2.27843e-09
2.48725e-09
2.47574e-09
2.24629e-09
1.8594e-09
1.41339e-09
1.01606e-09
1.07683e-09
1.48032e-09
1.92404e-09
2.29827e-09
2.50634e-09
2.49198e-09
2.25836e-09
1.86713e-09
1.41749e-09
1.01803e-09
1.0733e-09
1.47634e-09
1.91962e-09
2.29296e-09
2.49934e-09
2.48272e-09
2.24694e-09
1.85454e-09
1.40536e-09
1.0081e-09
1.06644e-09
1.4685e-09
1.91092e-09
2.28332e-09
2.48821e-09
2.46962e-09
2.23195e-09
1.83858e-09
1.39024e-09
9.95628e-10
1.05485e-09
1.45333e-09
1.8919e-09
2.26096e-09
2.46331e-09
2.44341e-09
2.20606e-09
1.81478e-09
1.37031e-09
9.80355e-10
1.04524e-09
1.44012e-09
1.87455e-09
2.24018e-09
2.4406e-09
2.42087e-09
2.18579e-09
1.79831e-09
1.35824e-09
9.72056e-10
1.03784e-09
1.43037e-09
1.86243e-09
2.2266e-09
2.42734e-09
2.41004e-09
2.17899e-09
1.79595e-09
1.35926e-09
9.74531e-10
1.02927e-09
1.42165e-09
1.85526e-09
2.22258e-09
2.42804e-09
2.4164e-09
2.19083e-09
1.81179e-09
1.37622e-09
9.89794e-10
1.01306e-09
1.40572e-09
1.84374e-09
2.21856e-09
2.4334e-09
2.43103e-09
2.21285e-09
1.8379e-09
1.4024e-09
1.01277e-09
9.90619e-10
1.3815e-09
1.82272e-09
2.2052e-09
2.43045e-09
2.43851e-09
2.22834e-09
1.85757e-09
1.42239e-09
1.03043e-09
9.69894e-10
1.35604e-09
1.79571e-09
2.18096e-09
2.41219e-09
2.42726e-09
2.22288e-09
1.85545e-09
1.4216e-09
1.03014e-09
9.56167e-10
1.33634e-09
1.77022e-09
2.15221e-09
2.38278e-09
2.39935e-09
2.19741e-09
1.83265e-09
1.40181e-09
1.01402e-09
9.50329e-10
1.32589e-09
1.75339e-09
2.12927e-09
2.35515e-09
2.36949e-09
2.16793e-09
1.80586e-09
1.3793e-09
9.96432e-10
9.50119e-10
1.324e-09
1.74796e-09
2.11905e-09
2.34039e-09
2.35193e-09
2.15024e-09
1.79054e-09
1.36776e-09
9.8853e-10
9.51221e-10
1.32597e-09
1.75023e-09
2.12029e-09
2.34015e-09
2.35062e-09
2.1491e-09
1.79078e-09
1.36981e-09
9.91746e-10
9.50876e-10
1.32727e-09
1.75381e-09
2.12571e-09
2.34704e-09
2.35852e-09
2.15784e-09
1.80013e-09
1.37936e-09
1.00077e-09
9.50068e-10
1.32791e-09
1.75645e-09
2.1305e-09
2.35368e-09
2.36629e-09
2.16597e-09
1.80787e-09
1.38648e-09
1.00714e-09
9.54892e-10
1.33378e-09
1.76241e-09
2.13604e-09
2.35846e-09
2.37017e-09
2.16903e-09
1.81022e-09
1.38879e-09
1.00923e-09
9.80656e-10
1.36256e-09
1.79084e-09
2.16148e-09
2.37981e-09
2.38746e-09
2.18301e-09
1.82143e-09
1.39778e-09
1.0152e-09
1.03635e-09
1.42615e-09
1.85693e-09
2.22441e-09
2.4358e-09
2.43431e-09
2.2198e-09
1.84794e-09
1.41424e-09
1.02262e-09
1.11458e-09
1.51673e-09
1.95318e-09
2.3178e-09
2.51864e-09
2.50092e-09
2.26707e-09
1.87607e-09
1.4256e-09
1.02276e-09
1.1882e-09
1.60325e-09
2.0461e-09
2.40747e-09
2.59479e-09
2.55584e-09
2.29732e-09
1.88401e-09
1.41709e-09
1.00716e-09
1.22324e-09
1.64765e-09
2.09667e-09
2.45738e-09
2.63517e-09
2.58006e-09
2.30308e-09
1.87454e-09
1.3984e-09
9.86962e-10
1.19128e-09
1.61815e-09
2.07421e-09
2.44287e-09
2.62509e-09
2.57025e-09
2.2909e-09
1.86016e-09
1.38363e-09
9.74401e-10
1.10273e-09
1.52001e-09
1.97694e-09
2.35672e-09
2.55564e-09
2.51904e-09
2.2566e-09
1.83983e-09
1.37433e-09
9.72416e-10
1.00124e-09
1.4011e-09
1.85068e-09
2.2366e-09
2.4537e-09
2.44258e-09
2.20752e-09
1.81471e-09
1.36801e-09
9.77109e-10
9.33253e-10
1.31509e-09
1.75032e-09
2.13067e-09
2.35483e-09
2.36149e-09
2.15051e-09
1.7816e-09
1.35505e-09
9.76551e-10
9.10394e-10
1.28212e-09
1.70697e-09
2.07918e-09
2.302e-09
2.31448e-09
2.11468e-09
1.75824e-09
1.3426e-09
9.71048e-10
9.09328e-10
1.27558e-09
1.69329e-09
2.05838e-09
2.27694e-09
2.28946e-09
2.09367e-09
1.74346e-09
1.33359e-09
9.66064e-10
9.20566e-10
1.29216e-09
1.71379e-09
2.08191e-09
2.30356e-09
2.32067e-09
2.13107e-09
1.78683e-09
1.37944e-09
1.00727e-09
8.73347e-10
1.25211e-09
1.68654e-09
2.07249e-09
2.31608e-09
2.35808e-09
2.1941e-09
1.87038e-09
1.47466e-09
1.09513e-09
9.14794e-10
1.30299e-09
1.74706e-09
2.15394e-09
2.43361e-09
2.52392e-09
2.40932e-09
2.11945e-09
1.72852e-09
1.31236e-09
1.18517e-09
1.62506e-09
2.10988e-09
2.55568e-09
2.87321e-09
2.99432e-09
2.88766e-09
2.56839e-09
2.09889e-09
1.57144e-09
1.64315e-09
2.18063e-09
2.74046e-09
3.22991e-09
3.54988e-09
3.62257e-09
3.41072e-09
2.93823e-09
2.29318e-09
1.61715e-09
2.33186e-09
3.00668e-09
3.66138e-09
4.17234e-09
4.42058e-09
4.32277e-09
3.8663e-09
3.12748e-09
2.27345e-09
1.49299e-09
3.3478e-09
4.20554e-09
4.97938e-09
5.50081e-09
5.63781e-09
5.32558e-09
4.60929e-09
3.63529e-09
2.62898e-09
1.77171e-09
4.59663e-09
5.69023e-09
6.6398e-09
7.22755e-09
7.31437e-09
6.85788e-09
5.94655e-09
4.76466e-09
3.55262e-09
2.49102e-09
5.65027e-09
6.97836e-09
8.136e-09
8.86926e-09
9.01085e-09
8.50122e-09
7.42219e-09
5.97539e-09
4.43175e-09
3.05639e-09
6.00726e-09
7.48791e-09
8.76764e-09
9.59763e-09
9.76183e-09
9.16988e-09
7.89675e-09
6.19774e-09
4.42133e-09
2.92615e-09
5.76013e-09
7.2882e-09
8.52689e-09
9.31146e-09
9.42339e-09
8.78051e-09
7.47371e-09
5.80172e-09
4.13291e-09
2.78874e-09
6.09012e-09
7.87446e-09
9.06445e-09
9.60605e-09
9.40927e-09
8.53657e-09
7.16409e-09
5.60833e-09
4.15744e-09
3.02221e-09
6.2948e-09
8.68062e-09
1.04815e-08
1.14576e-08
1.15973e-08
1.09697e-08
9.77401e-09
8.26565e-09
6.72881e-09
5.3392e-09
3.17303e-09
4.54968e-09
5.99732e-09
7.18397e-09
7.85249e-09
7.85253e-09
7.18408e-09
5.99748e-09
4.54984e-09
3.17317e-09
1.87125e-09
2.63108e-09
3.46346e-09
4.16395e-09
4.56459e-09
4.56486e-09
4.16469e-09
3.4645e-09
2.63214e-09
1.87217e-09
9.80708e-10
1.35783e-09
1.78094e-09
2.14664e-09
2.35866e-09
2.35954e-09
2.14906e-09
1.78438e-09
1.36152e-09
9.84065e-10
1.15425e-09
1.60553e-09
2.10657e-09
2.5357e-09
2.78386e-09
2.78591e-09
2.54137e-09
2.11465e-09
1.61429e-09
1.1623e-09
9.89311e-10
1.37199e-09
1.80136e-09
2.17228e-09
2.38858e-09
2.39214e-09
2.18213e-09
1.81541e-09
1.38736e-09
1.00361e-09
1.03896e-09
1.44358e-09
1.8963e-09
2.28692e-09
2.51532e-09
2.5208e-09
2.30215e-09
1.91809e-09
1.46767e-09
1.0616e-09
9.97129e-10
1.38581e-09
1.82229e-09
2.2003e-09
2.42294e-09
2.43101e-09
2.22289e-09
1.8549e-09
1.42247e-09
1.03204e-09
1.00671e-09
1.40336e-09
1.8499e-09
2.23768e-09
2.46807e-09
2.48031e-09
2.27213e-09
1.89993e-09
1.46013e-09
1.06091e-09
9.87466e-10
1.38143e-09
1.82787e-09
2.21809e-09
2.45299e-09
2.47071e-09
2.26788e-09
1.89998e-09
1.46291e-09
1.06466e-09
9.80606e-10
1.37616e-09
1.82702e-09
2.22373e-09
2.46546e-09
2.48841e-09
2.28788e-09
1.91908e-09
1.47876e-09
1.07647e-09
9.70212e-10
1.36251e-09
1.81136e-09
2.20842e-09
2.45234e-09
2.47836e-09
2.28057e-09
1.91364e-09
1.4744e-09
1.073e-09
9.69132e-10
1.3587e-09
1.80434e-09
2.19917e-09
2.44201e-09
2.46808e-09
2.27088e-09
1.90478e-09
1.46643e-09
1.0663e-09
9.71355e-10
1.35808e-09
1.79926e-09
2.18933e-09
2.42812e-09
2.45176e-09
2.25395e-09
1.88893e-09
1.45265e-09
1.05523e-09
9.76328e-10
1.36202e-09
1.80049e-09
2.1865e-09
2.42084e-09
2.44087e-09
2.24113e-09
1.87609e-09
1.44124e-09
1.04603e-09
9.79521e-10
1.36493e-09
1.802e-09
2.18496e-09
2.41541e-09
2.43176e-09
2.22974e-09
1.86437e-09
1.43097e-09
1.03814e-09
9.81013e-10
1.36619e-09
1.80222e-09
2.18254e-09
2.40931e-09
2.42176e-09
2.21686e-09
1.85043e-09
1.41818e-09
1.02797e-09
9.83167e-10
1.36731e-09
1.80091e-09
2.17716e-09
2.39877e-09
2.40582e-09
2.19663e-09
1.82807e-09
1.39675e-09
1.00993e-09
9.89581e-10
1.37227e-09
1.80177e-09
2.17188e-09
2.38613e-09
2.38604e-09
2.17138e-09
1.80021e-09
1.36988e-09
9.86953e-10
1.0032e-09
1.38538e-09
1.8107e-09
2.174e-09
2.38007e-09
2.37229e-09
2.15193e-09
1.7781e-09
1.34809e-09
9.67918e-10
1.02103e-09
1.40456e-09
1.82795e-09
2.18643e-09
2.38585e-09
2.37133e-09
2.14543e-09
1.7683e-09
1.33684e-09
9.57198e-10
1.0325e-09
1.41822e-09
1.84277e-09
2.20032e-09
2.39677e-09
2.37801e-09
2.14775e-09
1.76724e-09
1.33358e-09
9.53346e-10
1.02761e-09
1.41372e-09
1.84047e-09
2.20022e-09
2.39794e-09
2.3791e-09
2.14799e-09
1.76658e-09
1.33266e-09
9.52658e-10
1.00805e-09
1.39098e-09
1.81779e-09
2.17996e-09
2.38143e-09
2.3665e-09
2.13903e-09
1.76068e-09
1.32963e-09
9.51528e-10
9.81655e-10
1.35771e-09
1.78057e-09
2.14297e-09
2.34841e-09
2.34004e-09
2.12013e-09
1.74879e-09
1.32345e-09
9.48808e-10
9.59582e-10
1.32706e-09
1.74243e-09
2.10209e-09
2.30992e-09
2.30849e-09
2.09775e-09
1.73536e-09
1.31687e-09
9.46272e-10
9.52606e-10
1.31491e-09
1.72347e-09
2.07886e-09
2.28643e-09
2.28931e-09
2.08572e-09
1.73088e-09
1.31796e-09
9.50041e-10
9.67239e-10
1.33461e-09
1.74528e-09
2.10078e-09
2.3083e-09
2.31234e-09
2.1112e-09
1.75868e-09
1.34622e-09
9.75477e-10
9.9141e-10
1.37408e-09
1.80054e-09
2.16762e-09
2.38276e-09
2.39022e-09
2.18929e-09
1.83351e-09
1.41412e-09
1.032e-09
1.00384e-09
1.40528e-09
1.85755e-09
2.24941e-09
2.48507e-09
2.50499e-09
2.30768e-09
1.94661e-09
1.51421e-09
1.1131e-09
9.92708e-10
1.40859e-09
1.88674e-09
2.30958e-09
2.57477e-09
2.61571e-09
2.42699e-09
2.06135e-09
1.61355e-09
1.19129e-09
9.68742e-10
1.38815e-09
1.8796e-09
2.32506e-09
2.61503e-09
2.67568e-09
2.49557e-09
2.12655e-09
1.66629e-09
1.22975e-09
9.53997e-10
1.36457e-09
1.8492e-09
2.29537e-09
2.5899e-09
2.65513e-09
2.47492e-09
2.10128e-09
1.63494e-09
1.19805e-09
9.598e-10
1.35439e-09
1.81509e-09
2.23705e-09
2.50985e-09
2.55854e-09
2.36732e-09
1.98996e-09
1.52851e-09
1.10718e-09
9.74696e-10
1.35496e-09
1.78889e-09
2.176e-09
2.41254e-09
2.43153e-09
2.22342e-09
1.84507e-09
1.39799e-09
1.0013e-09
9.82137e-10
1.35132e-09
1.76376e-09
2.11958e-09
2.32269e-09
2.31541e-09
2.09666e-09
1.72527e-09
1.29972e-09
9.27912e-10
9.79747e-10
1.34527e-09
1.75061e-09
2.09232e-09
2.27925e-09
2.25937e-09
2.03768e-09
1.67344e-09
1.26201e-09
9.02626e-10
9.72006e-10
1.33715e-09
1.74337e-09
2.08269e-09
2.26695e-09
2.24564e-09
2.02602e-09
1.6667e-09
1.26058e-09
9.03576e-10
9.94675e-10
1.35537e-09
1.75275e-09
2.08273e-09
2.26041e-09
2.2376e-09
2.02117e-09
1.66764e-09
1.26661e-09
9.12293e-10
1.0227e-09
1.35789e-09
1.71255e-09
2.00052e-09
2.14447e-09
2.10526e-09
1.89069e-09
1.55395e-09
1.17826e-09
8.50661e-10
1.14699e-09
1.46704e-09
1.77915e-09
2.01859e-09
2.122e-09
2.06316e-09
1.8525e-09
1.53768e-09
1.18934e-09
8.81309e-10
1.45881e-09
1.8295e-09
2.16338e-09
2.40732e-09
2.50535e-09
2.43695e-09
2.21291e-09
1.87898e-09
1.49988e-09
1.14915e-09
1.83391e-09
2.35725e-09
2.81032e-09
3.13758e-09
3.28018e-09
3.2159e-09
2.95495e-09
2.54793e-09
2.06884e-09
1.60808e-09
2.15381e-09
2.98611e-09
3.72086e-09
4.25504e-09
4.51274e-09
4.47012e-09
4.14646e-09
3.60907e-09
2.95757e-09
2.30882e-09
2.19659e-09
3.50404e-09
4.79413e-09
5.78544e-09
6.32494e-09
6.37029e-09
5.97069e-09
5.23638e-09
4.31611e-09
3.36771e-09
1.2457e-09
2.91997e-09
5.02617e-09
6.92398e-09
8.16598e-09
8.57177e-09
8.21568e-09
7.29036e-09
6.03745e-09
4.69197e-09
4.01352e-11
9.75666e-10
3.11132e-09
5.78005e-09
8.07763e-09
9.36569e-09
9.51564e-09
8.74034e-09
7.38419e-09
5.78778e-09
6.24157e-10
1.36985e-10
6.09802e-10
2.44485e-09
4.96064e-09
7.17677e-09
8.36784e-09
8.3784e-09
7.45663e-09
6.04477e-09
1.13604e-09
8.1914e-10
2.56659e-10
2.76976e-10
1.55798e-09
3.59373e-09
5.47195e-09
6.46317e-09
6.35984e-09
5.51602e-09
9.63037e-10
8.50803e-10
5.08392e-10
9.72812e-11
3.12551e-10
1.55422e-09
3.36206e-09
4.92268e-09
5.58661e-09
5.32394e-09
1.09951e-09
9.82955e-10
6.74007e-10
2.67774e-10
3.46965e-11
4.89445e-10
1.57703e-09
2.93793e-09
4.11602e-09
4.65354e-09
3.17298e-09
4.54959e-09
5.9972e-09
7.18379e-09
7.85227e-09
7.85229e-09
7.18383e-09
5.99725e-09
4.54965e-09
3.17303e-09
1.87104e-09
2.63073e-09
3.46295e-09
4.1632e-09
4.5636e-09
4.56368e-09
4.1634e-09
3.46322e-09
2.63099e-09
1.87126e-09
9.8025e-10
1.35699e-09
1.7796e-09
2.1446e-09
2.35588e-09
2.35607e-09
2.14509e-09
1.78023e-09
1.35756e-09
9.8069e-10
1.15259e-09
1.60293e-09
2.10288e-09
2.53059e-09
2.77719e-09
2.77774e-09
2.53204e-09
2.10483e-09
1.60481e-09
1.15415e-09
9.83106e-10
1.36359e-09
1.79092e-09
2.15968e-09
2.37378e-09
2.37529e-09
2.16383e-09
1.7968e-09
1.36986e-09
9.8879e-10
1.02331e-09
1.42335e-09
1.87229e-09
2.25963e-09
2.48519e-09
2.48846e-09
2.26879e-09
1.8856e-09
1.43825e-09
1.03741e-09
9.71327e-10
1.35174e-09
1.78084e-09
2.15254e-09
2.37022e-09
2.37511e-09
2.16636e-09
1.80106e-09
1.37493e-09
9.93785e-10
9.76554e-10
1.36002e-09
1.7926e-09
2.16717e-09
2.38662e-09
2.39173e-09
2.18167e-09
1.81383e-09
1.38479e-09
1.00099e-09
9.62466e-10
1.33851e-09
1.76249e-09
2.12926e-09
2.34333e-09
2.34663e-09
2.1387e-09
1.77637e-09
1.35517e-09
9.79627e-10
9.69493e-10
1.34491e-09
1.76638e-09
2.12957e-09
2.3397e-09
2.33966e-09
2.12956e-09
1.76652e-09
1.34597e-09
9.72038e-10
9.79096e-10
1.35376e-09
1.77175e-09
2.12994e-09
2.33473e-09
2.33046e-09
2.11798e-09
1.75459e-09
1.33507e-09
9.63016e-10
9.99134e-10
1.37791e-09
1.79764e-09
2.15484e-09
2.35644e-09
2.34776e-09
2.13052e-09
1.76281e-09
1.33949e-09
9.64725e-10
1.0177e-09
1.40199e-09
1.82602e-09
2.18483e-09
2.38519e-09
2.37278e-09
2.1503e-09
1.77698e-09
1.3484e-09
9.69704e-10
1.03002e-09
1.41981e-09
1.84967e-09
2.21251e-09
2.41403e-09
2.39953e-09
2.17243e-09
1.79333e-09
1.35921e-09
9.76253e-10
1.03073e-09
1.42316e-09
1.8571e-09
2.22391e-09
2.42789e-09
2.41351e-09
2.18445e-09
1.8022e-09
1.36504e-09
9.79716e-10
1.02249e-09
1.41432e-09
1.84944e-09
2.21889e-09
2.42582e-09
2.4138e-09
2.18608e-09
1.80415e-09
1.36691e-09
9.81001e-10
1.01209e-09
1.4013e-09
1.83507e-09
2.20544e-09
2.41513e-09
2.40703e-09
2.18333e-09
1.80459e-09
1.36921e-09
9.83523e-10
1.00741e-09
1.39437e-09
1.82626e-09
2.19671e-09
2.40868e-09
2.40474e-09
2.18578e-09
1.81095e-09
1.37737e-09
9.91171e-10
1.01107e-09
1.39844e-09
1.83065e-09
2.20216e-09
2.41645e-09
2.41594e-09
2.20056e-09
1.8282e-09
1.39467e-09
1.00623e-09
1.02003e-09
1.4112e-09
1.84747e-09
2.22249e-09
2.43984e-09
2.44156e-09
2.22716e-09
1.85405e-09
1.41773e-09
1.02509e-09
1.03078e-09
1.42748e-09
1.87004e-09
2.25009e-09
2.47045e-09
2.4723e-09
2.25521e-09
1.87719e-09
1.43509e-09
1.03723e-09
1.04197e-09
1.44309e-09
1.8903e-09
2.27345e-09
2.49415e-09
2.49272e-09
2.26931e-09
1.88352e-09
1.4348e-09
1.03317e-09
1.05467e-09
1.4577e-09
1.90546e-09
2.2873e-09
2.50397e-09
2.49591e-09
2.26433e-09
1.87092e-09
1.41751e-09
1.01509e-09
1.06822e-09
1.47131e-09
1.91612e-09
2.29283e-09
2.5023e-09
2.48619e-09
2.24701e-09
1.84821e-09
1.39261e-09
9.91568e-10
1.08225e-09
1.48578e-09
1.92745e-09
2.29857e-09
2.50084e-09
2.4777e-09
2.23276e-09
1.8306e-09
1.37361e-09
9.73712e-10
1.08062e-09
1.48503e-09
1.92702e-09
2.29713e-09
2.49724e-09
2.47175e-09
2.22523e-09
1.82292e-09
1.36654e-09
9.68288e-10
1.03757e-09
1.4391e-09
1.88476e-09
2.26167e-09
2.46994e-09
2.45244e-09
2.21384e-09
1.81908e-09
1.36981e-09
9.7646e-10
9.58196e-10
1.34817e-09
1.7931e-09
2.17797e-09
2.40097e-09
2.40132e-09
2.18172e-09
1.80448e-09
1.37078e-09
9.87154e-10
8.83548e-10
1.25412e-09
1.68655e-09
2.06941e-09
2.30167e-09
2.31992e-09
2.12311e-09
1.7687e-09
1.3553e-09
9.85318e-10
8.48385e-10
1.2001e-09
1.61173e-09
1.98003e-09
2.20798e-09
2.23317e-09
2.05149e-09
1.71562e-09
1.32033e-09
9.64715e-10
8.59739e-10
1.20381e-09
1.59978e-09
1.9514e-09
2.16632e-09
2.18597e-09
2.00579e-09
1.67614e-09
1.28854e-09
9.40614e-10
9.03065e-10
1.25484e-09
1.65089e-09
1.99684e-09
2.20241e-09
2.21227e-09
2.02292e-09
1.68551e-09
1.29004e-09
9.36502e-10
9.66729e-10
1.33657e-09
1.74576e-09
2.09765e-09
2.30115e-09
2.30189e-09
2.09768e-09
1.74269e-09
1.32749e-09
9.57755e-10
1.03657e-09
1.42904e-09
1.85896e-09
2.22391e-09
2.42952e-09
2.42039e-09
2.19631e-09
1.81626e-09
1.37514e-09
9.85023e-10
1.09662e-09
1.5074e-09
1.95455e-09
2.32901e-09
2.53357e-09
2.51182e-09
2.26706e-09
1.86343e-09
1.4023e-09
9.97894e-10
1.13756e-09
1.56102e-09
2.02032e-09
2.39956e-09
2.59959e-09
2.56397e-09
2.30063e-09
1.8786e-09
1.40564e-09
9.94583e-10
1.14281e-09
1.56807e-09
2.0291e-09
2.40634e-09
2.60048e-09
2.55635e-09
2.2858e-09
1.86025e-09
1.38999e-09
9.82461e-10
1.11581e-09
1.52829e-09
1.97708e-09
2.34972e-09
2.5492e-09
2.52089e-09
2.2729e-09
1.87038e-09
1.41571e-09
1.01081e-09
1.11383e-09
1.51518e-09
1.94545e-09
2.30714e-09
2.51085e-09
2.5051e-09
2.28974e-09
1.91829e-09
1.47584e-09
1.06419e-09
8.82196e-10
1.31396e-09
1.8189e-09
2.27441e-09
2.56575e-09
2.62689e-09
2.45262e-09
2.09814e-09
1.64747e-09
1.20965e-09
4.22346e-10
7.87953e-10
1.32392e-09
1.91046e-09
2.39922e-09
2.66484e-09
2.65388e-09
2.3946e-09
1.97174e-09
1.50713e-09
2.51857e-10
4.74531e-10
8.46039e-10
1.32386e-09
1.82938e-09
2.24041e-09
2.45168e-09
2.41348e-09
2.15351e-09
1.77089e-09
1.64682e-10
2.31371e-10
3.69879e-10
6.12507e-10
9.60204e-10
1.36242e-09
1.72597e-09
1.94823e-09
1.97636e-09
1.82901e-09
8.49046e-11
1.18227e-10
1.24235e-10
1.64816e-10
2.50569e-10
4.37403e-10
7.22649e-10
1.04999e-09
1.33494e-09
1.50943e-09
1.24556e-10
1.99694e-10
2.24642e-10
2.68663e-10
2.71019e-10
2.3803e-10
1.63657e-10
1.10594e-10
1.84719e-10
4.39599e-10
1.58359e-10
2.24601e-10
2.63621e-10
3.77602e-10
5.37605e-10
7.32534e-10
8.73884e-10
8.59115e-10
6.39939e-10
2.71847e-10
1.86851e-10
1.91664e-10
1.88007e-10
2.8522e-10
5.07302e-10
8.78474e-10
1.32318e-09
1.65392e-09
1.68867e-09
1.26651e-09
5.0062e-10
4.27117e-10
2.75277e-10
1.28505e-10
1.10206e-10
3.37232e-10
7.79322e-10
1.25068e-09
1.53872e-09
1.39594e-09
1.27056e-09
1.29798e-09
1.08766e-09
6.94345e-10
2.54855e-10
6.09114e-11
3.35345e-10
7.71415e-10
1.07767e-09
1.0483e-09
2.38379e-09
2.34516e-09
1.86572e-09
1.08496e-09
3.36261e-10
2.86315e-11
4.03871e-10
9.37429e-10
1.2565e-09
1.20676e-09
3.17312e-09
4.54976e-09
5.99739e-09
7.18398e-09
7.85243e-09
7.85238e-09
7.18387e-09
5.99723e-09
4.5496e-09
3.17297e-09
1.87181e-09
2.63164e-09
3.46389e-09
4.164e-09
4.56415e-09
4.5639e-09
4.16334e-09
3.46298e-09
2.63073e-09
1.87102e-09
9.82822e-10
1.35994e-09
1.78259e-09
2.14718e-09
2.35773e-09
2.35707e-09
2.14536e-09
1.78001e-09
1.35719e-09
9.80297e-10
1.15952e-09
1.61089e-09
2.11094e-09
2.53762e-09
2.78241e-09
2.7808e-09
2.53316e-09
2.10453e-09
1.60382e-09
1.15288e-09
9.98433e-10
1.38109e-09
1.80855e-09
2.17505e-09
2.38512e-09
2.38171e-09
2.1655e-09
1.79471e-09
1.36558e-09
9.8374e-10
1.05095e-09
1.45445e-09
1.90312e-09
2.28589e-09
2.50356e-09
2.49719e-09
2.26808e-09
1.87741e-09
1.42578e-09
1.02396e-09
1.00986e-09
1.39435e-09
1.82227e-09
2.1869e-09
2.39272e-09
2.38336e-09
2.16089e-09
1.78508e-09
1.35338e-09
9.71557e-10
1.02169e-09
1.40964e-09
1.84065e-09
2.20705e-09
2.41283e-09
2.40171e-09
2.17627e-09
1.79691e-09
1.36172e-09
9.76748e-10
1.0096e-09
1.39136e-09
1.81552e-09
2.17618e-09
2.37868e-09
2.36765e-09
2.14562e-09
1.77204e-09
1.34334e-09
9.63826e-10
1.01142e-09
1.39467e-09
1.82072e-09
2.18362e-09
2.38835e-09
2.37931e-09
2.1585e-09
1.785e-09
1.35476e-09
9.72652e-10
1.00276e-09
1.38613e-09
1.81406e-09
2.18037e-09
2.38941e-09
2.38481e-09
2.16771e-09
1.79654e-09
1.36663e-09
9.83209e-10
9.92335e-10
1.37726e-09
1.8099e-09
2.18309e-09
2.39983e-09
2.402e-09
2.1895e-09
1.82006e-09
1.38908e-09
1.0025e-09
9.78983e-10
1.36368e-09
1.79916e-09
2.17794e-09
2.40202e-09
2.41147e-09
2.20465e-09
1.83821e-09
1.40758e-09
1.01909e-09
9.71658e-10
1.35561e-09
1.79203e-09
2.17381e-09
2.40258e-09
2.41714e-09
2.21442e-09
1.85003e-09
1.41948e-09
1.02956e-09
9.73734e-10
1.35667e-09
1.79158e-09
2.17248e-09
2.40136e-09
2.41675e-09
2.21486e-09
1.85072e-09
1.41991e-09
1.02964e-09
9.87859e-10
1.37099e-09
1.80335e-09
2.18029e-09
2.40471e-09
2.41605e-09
2.21084e-09
1.84434e-09
1.41223e-09
1.02212e-09
1.01057e-09
1.39626e-09
1.82724e-09
2.19937e-09
2.41676e-09
2.42063e-09
2.20887e-09
1.83785e-09
1.40338e-09
1.01328e-09
1.02969e-09
1.4201e-09
1.8532e-09
2.22368e-09
2.43607e-09
2.43311e-09
2.21457e-09
1.83843e-09
1.4009e-09
1.00994e-09
1.03159e-09
1.42602e-09
1.86388e-09
2.23761e-09
2.45065e-09
2.44585e-09
2.2242e-09
1.84502e-09
1.40535e-09
1.01329e-09
1.01699e-09
1.41172e-09
1.85281e-09
2.23137e-09
2.44929e-09
2.44818e-09
2.22883e-09
1.85076e-09
1.41177e-09
1.01973e-09
9.9997e-10
1.39184e-09
1.83236e-09
2.21334e-09
2.4361e-09
2.44096e-09
2.22747e-09
1.854e-09
1.41818e-09
1.02723e-09
9.92368e-10
1.38153e-09
1.81984e-09
2.20079e-09
2.42636e-09
2.43634e-09
2.22881e-09
1.86035e-09
1.42749e-09
1.03684e-09
9.96284e-10
1.38569e-09
1.82388e-09
2.20542e-09
2.43305e-09
2.44646e-09
2.24258e-09
1.87656e-09
1.44365e-09
1.05071e-09
1.00665e-09
1.39933e-09
1.84056e-09
2.22478e-09
2.45478e-09
2.4701e-09
2.26704e-09
1.90022e-09
1.46415e-09
1.06688e-09
1.01506e-09
1.41228e-09
1.85869e-09
2.2472e-09
2.48002e-09
2.49628e-09
2.29228e-09
1.92309e-09
1.48328e-09
1.0822e-09
1.01885e-09
1.41883e-09
1.86873e-09
2.2592e-09
2.49202e-09
2.50586e-09
2.29786e-09
1.92431e-09
1.48135e-09
1.07934e-09
1.02238e-09
1.42003e-09
1.86645e-09
2.25074e-09
2.47474e-09
2.47754e-09
2.25842e-09
1.87637e-09
1.43121e-09
1.03388e-09
1.02101e-09
1.40988e-09
1.84373e-09
2.21208e-09
2.41753e-09
2.40173e-09
2.16782e-09
1.77863e-09
1.33742e-09
9.53066e-10
1.01045e-09
1.38769e-09
1.80527e-09
2.15506e-09
2.34135e-09
2.30995e-09
2.06778e-09
1.68002e-09
1.24963e-09
8.80926e-10
9.87666e-10
1.35485e-09
1.76076e-09
2.10004e-09
2.27857e-09
2.24501e-09
2.00723e-09
1.62951e-09
1.21081e-09
8.5171e-10
9.64233e-10
1.32384e-09
1.72348e-09
2.06116e-09
2.24388e-09
2.22057e-09
1.99663e-09
1.63291e-09
1.22316e-09
8.66852e-10
9.52238e-10
1.3089e-09
1.7076e-09
2.04941e-09
2.24197e-09
2.23292e-09
2.02388e-09
1.67181e-09
1.2665e-09
9.08247e-10
9.57056e-10
1.31865e-09
1.72347e-09
2.07375e-09
2.27743e-09
2.28066e-09
2.08226e-09
1.73616e-09
1.33032e-09
9.66028e-10
9.74394e-10
1.35014e-09
1.7715e-09
2.13743e-09
2.35468e-09
2.36696e-09
2.17172e-09
1.82188e-09
1.40683e-09
1.02988e-09
9.85973e-10
1.37617e-09
1.81707e-09
2.20184e-09
2.43465e-09
2.45548e-09
2.26091e-09
1.904e-09
1.47729e-09
1.08615e-09
9.86406e-10
1.38646e-09
1.84375e-09
2.2462e-09
2.49433e-09
2.52384e-09
2.33005e-09
1.96649e-09
1.52918e-09
1.12566e-09
9.80729e-10
1.38187e-09
1.8426e-09
2.2507e-09
2.50453e-09
2.53798e-09
2.34529e-09
1.98004e-09
1.53968e-09
1.13216e-09
1.01718e-09
1.411e-09
1.85374e-09
2.23887e-09
2.47167e-09
2.49167e-09
2.29569e-09
1.93666e-09
1.507e-09
1.1097e-09
1.10408e-09
1.49344e-09
1.91314e-09
2.2606e-09
2.45506e-09
2.4475e-09
2.2421e-09
1.89262e-09
1.4822e-09
1.1054e-09
1.29385e-09
1.67327e-09
2.03639e-09
2.28934e-09
2.36546e-09
2.24132e-09
1.94534e-09
1.55107e-09
1.14959e-09
8.31627e-10
1.45621e-09
1.75855e-09
1.97985e-09
2.0527e-09
1.94139e-09
1.66552e-09
1.28702e-09
8.91987e-10
5.64895e-10
3.58665e-10
1.39309e-09
1.57839e-09
1.67136e-09
1.63104e-09
1.45629e-09
1.18519e-09
8.75958e-10
5.84059e-10
3.5931e-10
2.16456e-10
1.25995e-09
1.46768e-09
1.63569e-09
1.69358e-09
1.61467e-09
1.40562e-09
1.10485e-09
7.61174e-10
4.56071e-10
2.20295e-10
1.60274e-09
2.00725e-09
2.38281e-09
2.58439e-09
2.51831e-09
2.16649e-09
1.60755e-09
9.77547e-10
4.77206e-10
1.55462e-10
2.29478e-09
2.88967e-09
3.4119e-09
3.65741e-09
3.48927e-09
2.91041e-09
2.07386e-09
1.20634e-09
5.69585e-10
1.9018e-10
2.71534e-09
3.34815e-09
3.88206e-09
4.09691e-09
3.85115e-09
3.17986e-09
2.2695e-09
1.35983e-09
6.86822e-10
2.6186e-10
2.52505e-09
3.07744e-09
3.53618e-09
3.70942e-09
3.49085e-09
2.9332e-09
2.18747e-09
1.42343e-09
8.0938e-10
3.58022e-10
2.47541e-09
3.03835e-09
3.50617e-09
3.73104e-09
3.62207e-09
3.21228e-09
2.59725e-09
1.90761e-09
1.2748e-09
7.5472e-10
2.77719e-09
3.30564e-09
3.73467e-09
3.99659e-09
3.98806e-09
3.70268e-09
3.19793e-09
2.60044e-09
1.99784e-09
1.48113e-09
5.51093e-09
6.72476e-09
7.63444e-09
8.1094e-09
8.07091e-09
7.49155e-09
6.47152e-09
5.19159e-09
3.90107e-09
2.74029e-09
)
;
    }
    inlet
    {
        type            calculated;
        value           uniform 0;
    }
    outlet
    {
        type            calculated;
        value           uniform 0;
    }
}


// ************************************************************************* //
